/*--------------------------------*- C++ -*----------------------------------*\
| =========                 |                                                 |
| \\      /  F ield         | OpenFOAM: The Open Source CFD Toolbox           |
|  \\    /   O peration     | Version:  v2006                                 |
|   \\  /    A nd           | Website:  www.openfoam.com                      |
|    \\/     M anipulation  |                                                 |
\*---------------------------------------------------------------------------*/
FoamFile
{
    version     2.0;
    format      ascii;
    class       volScalarField;
    location    "750";
    object      epsilon;
}
// * * * * * * * * * * * * * * * * * * * * * * * * * * * * * * * * * * * * * //

dimensions      [0 2 -3 0 0 0 0];


internalField   nonuniform List<scalar> 
171728
(
4.95567e-07
4.97331e-07
4.97331e-07
4.99575e-07
4.45573e-07
4.53736e-07
4.53738e-07
4.63711e-07
4.03752e-07
4.18514e-07
4.18516e-07
4.39411e-07
3.68363e-07
3.88554e-07
3.88556e-07
4.1767e-07
3.38014e-07
3.62105e-07
3.62108e-07
3.96085e-07
3.11645e-07
3.38275e-07
3.38278e-07
3.74584e-07
2.88472e-07
3.1664e-07
3.16643e-07
3.53714e-07
2.67922e-07
2.97024e-07
2.97027e-07
3.34151e-07
2.49579e-07
2.79373e-07
2.79375e-07
3.16488e-07
2.33136e-07
2.63681e-07
2.63684e-07
3.01165e-07
2.18365e-07
2.49957e-07
2.4996e-07
2.88497e-07
2.05089e-07
2.38201e-07
2.38205e-07
2.78701e-07
1.93171e-07
2.28413e-07
2.28418e-07
2.7188e-07
1.82497e-07
2.20601e-07
2.20607e-07
2.68166e-07
1.72978e-07
2.14773e-07
2.14781e-07
2.67646e-07
1.6454e-07
2.10941e-07
2.10947e-07
2.70495e-07
1.5712e-07
2.09114e-07
2.09117e-07
2.767e-07
1.50666e-07
2.09306e-07
2.09309e-07
2.86282e-07
1.45134e-07
2.11564e-07
2.11566e-07
2.99237e-07
1.40489e-07
2.15905e-07
2.15905e-07
3.15618e-07
1.367e-07
2.22347e-07
2.22349e-07
3.35375e-07
1.33745e-07
2.30908e-07
2.30911e-07
3.58409e-07
1.31602e-07
2.41575e-07
2.41579e-07
3.8455e-07
1.30256e-07
2.54332e-07
2.54338e-07
4.13539e-07
1.29692e-07
2.69121e-07
2.69131e-07
4.45048e-07
1.29919e-07
2.85897e-07
2.85908e-07
4.78689e-07
1.30907e-07
3.04559e-07
3.04574e-07
5.14058e-07
1.32663e-07
3.25006e-07
3.25022e-07
5.50618e-07
1.35185e-07
3.47115e-07
3.47137e-07
5.8803e-07
1.38476e-07
3.70764e-07
3.70787e-07
6.25831e-07
1.42537e-07
3.95783e-07
3.95815e-07
6.63596e-07
1.47376e-07
4.22044e-07
4.22078e-07
7.01062e-07
1.5299e-07
4.49347e-07
4.49385e-07
7.3788e-07
1.59406e-07
4.77583e-07
4.77626e-07
7.74038e-07
1.66583e-07
5.06424e-07
5.06478e-07
8.08964e-07
1.74588e-07
5.35947e-07
5.35992e-07
8.42974e-07
1.83384e-07
5.65755e-07
5.65823e-07
8.75816e-07
1.92946e-07
5.95744e-07
5.95805e-07
9.07421e-07
2.03313e-07
6.25801e-07
6.25872e-07
9.37838e-07
2.14413e-07
6.55618e-07
6.55694e-07
9.67037e-07
2.26285e-07
6.85241e-07
6.85315e-07
9.95013e-07
2.38858e-07
7.14377e-07
7.14463e-07
1.02185e-06
2.52128e-07
7.43005e-07
7.4309e-07
1.04747e-06
2.6605e-07
7.71028e-07
7.71109e-07
1.07215e-06
2.80503e-07
7.98116e-07
7.98208e-07
1.09544e-06
2.95491e-07
8.24478e-07
8.24571e-07
1.11783e-06
3.10994e-07
8.4998e-07
8.5008e-07
1.13927e-06
3.26876e-07
8.74497e-07
8.74597e-07
1.15961e-06
3.43029e-07
8.97987e-07
8.98065e-07
1.17899e-06
3.59447e-07
9.20513e-07
9.20623e-07
1.19748e-06
3.76038e-07
9.42011e-07
9.42103e-07
1.21503e-06
3.92655e-07
9.62495e-07
9.62584e-07
1.23173e-06
4.09278e-07
9.81854e-07
9.81954e-07
1.24751e-06
4.2577e-07
1.00028e-06
1.0004e-06
1.26235e-06
4.4218e-07
1.01781e-06
1.01791e-06
1.27667e-06
4.58354e-07
1.03437e-06
1.03446e-06
1.2902e-06
4.74297e-07
1.04991e-06
1.05e-06
1.30296e-06
4.89585e-07
1.06423e-06
1.06432e-06
1.3145e-06
5.04593e-07
1.07803e-06
1.07817e-06
1.32579e-06
5.19535e-07
1.09099e-06
1.09111e-06
1.33676e-06
5.33412e-07
1.10278e-06
1.10276e-06
1.34642e-06
5.46912e-07
1.11347e-06
1.11371e-06
1.35526e-06
5.60303e-07
1.12485e-06
1.12501e-06
1.36506e-06
5.72748e-07
1.13355e-06
1.13368e-06
1.37222e-06
5.82981e-07
1.14062e-06
1.14062e-06
1.37751e-06
5.9472e-07
1.14978e-06
1.14934e-06
1.38631e-06
6.08242e-07
1.15986e-06
1.16059e-06
1.39496e-06
6.15134e-07
1.1622e-06
1.16448e-06
1.39721e-06
6.22308e-07
1.16653e-06
1.16572e-06
1.40014e-06
6.4063e-07
1.18728e-06
1.18138e-06
1.42348e-06
6.47255e-07
1.19019e-06
1.18909e-06
1.42844e-06
6.32152e-07
1.15518e-06
1.16353e-06
1.3792e-06
6.26893e-07
1.14461e-06
1.14576e-06
1.35787e-06
6.72173e-07
1.18875e-06
1.1959e-06
1.44258e-06
7.22429e-07
1.27871e-06
1.26539e-06
1.52568e-06
7.104e-07
1.29605e-06
1.27618e-06
1.53248e-06
6.51126e-07
1.1724e-06
1.19281e-06
1.43779e-06
6.28467e-07
1.07991e-06
1.08519e-06
1.28419e-06
6.40599e-07
1.09786e-06
1.11424e-06
1.27766e-06
6.56833e-07
1.15365e-06
1.21591e-06
1.43235e-06
6.96156e-07
1.25808e-06
1.19828e-06
1.51639e-06
7.44954e-07
1.28836e-06
1.17821e-06
1.51127e-06
7.19648e-07
1.19519e-06
1.21759e-06
1.42801e-06
6.7529e-07
1.16706e-06
1.24827e-06
1.3834e-06
6.79432e-07
1.20392e-06
1.22642e-06
1.42774e-06
6.83876e-07
1.17753e-06
1.15264e-06
1.45892e-06
6.81702e-07
1.15337e-06
1.13253e-06
1.44403e-06
6.89959e-07
1.17865e-06
1.17689e-06
1.38504e-06
6.90743e-07
1.1967e-06
1.20496e-06
1.37066e-06
6.89885e-07
1.184e-06
1.19319e-06
1.417e-06
6.926e-07
1.17187e-06
1.17203e-06
1.44384e-06
6.89749e-07
1.1655e-06
1.15575e-06
1.42319e-06
6.78372e-07
1.1542e-06
1.15018e-06
1.3858e-06
6.74946e-07
1.15452e-06
1.1636e-06
1.38523e-06
6.65969e-07
1.11763e-06
1.12166e-06
1.37232e-06
5.06417e-07
5.05584e-07
5.05582e-07
5.06417e-07
5.05583e-07
5.05583e-07
5.09649e-07
5.09649e-07
5.09649e-07
5.09649e-07
5.05584e-07
5.05584e-07
5.06417e-07
5.05584e-07
5.05583e-07
5.06418e-07
4.99575e-07
4.67236e-07
4.97331e-07
4.97335e-07
4.63713e-07
4.63721e-07
4.99575e-07
4.67237e-07
4.97334e-07
4.97335e-07
4.63718e-07
4.63723e-07
4.97332e-07
4.6371e-07
4.63715e-07
4.99575e-07
4.67239e-07
4.97334e-07
4.63711e-07
4.63719e-07
4.67243e-07
4.63708e-07
4.41422e-07
4.53739e-07
4.53748e-07
4.26738e-07
4.26747e-07
4.63709e-07
4.41422e-07
4.53743e-07
4.5375e-07
4.26738e-07
4.26749e-07
4.53743e-07
4.26732e-07
4.26742e-07
4.6371e-07
4.41428e-07
4.53745e-07
4.26734e-07
4.26742e-07
4.41434e-07
4.39404e-07
4.19278e-07
4.18521e-07
4.1853e-07
3.95675e-07
3.95684e-07
4.39408e-07
4.19279e-07
4.18521e-07
4.18533e-07
3.9567e-07
3.95686e-07
4.18526e-07
3.95665e-07
3.9568e-07
4.39409e-07
4.19285e-07
4.18525e-07
3.95668e-07
3.95675e-07
4.19293e-07
4.17658e-07
3.9764e-07
3.88564e-07
3.88573e-07
3.6846e-07
3.68468e-07
4.1766e-07
3.97641e-07
3.88558e-07
3.88576e-07
3.6845e-07
3.6847e-07
3.8857e-07
3.68447e-07
3.68466e-07
4.17664e-07
3.97647e-07
3.88564e-07
3.68449e-07
3.68455e-07
3.97655e-07
3.96071e-07
3.7608e-07
3.62118e-07
3.62126e-07
3.44031e-07
3.44038e-07
3.96074e-07
3.76081e-07
3.62108e-07
3.62129e-07
3.44017e-07
3.44041e-07
3.62124e-07
3.44016e-07
3.44037e-07
3.96078e-07
3.76087e-07
3.62113e-07
3.44018e-07
3.44023e-07
3.76096e-07
3.7457e-07
3.55106e-07
3.38291e-07
3.38298e-07
3.21873e-07
3.21879e-07
3.74573e-07
3.55107e-07
3.38277e-07
3.38301e-07
3.21856e-07
3.21881e-07
3.38297e-07
3.21856e-07
3.21879e-07
3.74577e-07
3.55113e-07
3.38283e-07
3.21858e-07
3.21862e-07
3.55122e-07
3.53699e-07
3.3539e-07
3.16658e-07
3.16664e-07
3.01762e-07
3.01767e-07
3.53701e-07
3.35391e-07
3.16641e-07
3.16666e-07
3.01742e-07
3.01769e-07
3.16664e-07
3.01743e-07
3.01767e-07
3.53705e-07
3.35396e-07
3.16647e-07
3.01745e-07
3.01748e-07
3.35406e-07
3.34137e-07
3.17527e-07
2.97043e-07
2.97048e-07
2.83622e-07
2.83626e-07
3.34139e-07
3.17529e-07
2.97024e-07
2.9705e-07
2.83601e-07
2.83628e-07
2.97048e-07
2.83602e-07
2.83627e-07
3.34143e-07
3.17534e-07
2.97029e-07
2.83604e-07
2.83606e-07
3.17545e-07
3.16474e-07
3.01969e-07
2.79393e-07
2.79397e-07
2.67441e-07
2.67445e-07
3.16476e-07
3.01971e-07
2.79372e-07
2.79399e-07
2.67418e-07
2.67446e-07
2.79398e-07
2.6742e-07
2.67445e-07
3.16479e-07
3.01976e-07
2.79377e-07
2.67422e-07
2.67423e-07
3.01987e-07
3.01151e-07
2.89034e-07
2.63703e-07
2.63707e-07
2.53225e-07
2.5323e-07
3.01154e-07
2.89036e-07
2.6368e-07
2.63709e-07
2.53201e-07
2.53231e-07
2.63707e-07
2.53204e-07
2.5323e-07
3.01156e-07
2.89041e-07
2.63685e-07
2.53206e-07
2.53207e-07
2.89054e-07
2.88481e-07
2.78945e-07
2.4998e-07
2.49985e-07
2.40979e-07
2.40983e-07
2.88484e-07
2.78945e-07
2.49956e-07
2.49986e-07
2.40953e-07
2.40984e-07
2.49984e-07
2.40955e-07
2.40983e-07
2.88486e-07
2.78952e-07
2.49961e-07
2.40958e-07
2.40958e-07
2.78965e-07
2.78683e-07
2.71822e-07
2.38226e-07
2.38231e-07
2.307e-07
2.30705e-07
2.78685e-07
2.71825e-07
2.382e-07
2.38232e-07
2.30673e-07
2.30706e-07
2.3823e-07
2.30675e-07
2.30704e-07
2.78689e-07
2.71829e-07
2.38205e-07
2.30677e-07
2.30678e-07
2.71842e-07
2.71862e-07
2.67853e-07
2.28441e-07
2.28446e-07
2.22396e-07
2.22402e-07
2.71866e-07
2.67858e-07
2.28413e-07
2.28447e-07
2.22367e-07
2.22404e-07
2.28445e-07
2.2237e-07
2.224e-07
2.71868e-07
2.67861e-07
2.28419e-07
2.22371e-07
2.22372e-07
2.67877e-07
2.68146e-07
2.66969e-07
2.20633e-07
2.20639e-07
2.16074e-07
2.16082e-07
2.68152e-07
2.66975e-07
2.20603e-07
2.20641e-07
2.16042e-07
2.16083e-07
2.20638e-07
2.16046e-07
2.16079e-07
2.68152e-07
2.66979e-07
2.20609e-07
2.16046e-07
2.16048e-07
2.66995e-07
2.67622e-07
2.6914e-07
2.14809e-07
2.14817e-07
2.11741e-07
2.11753e-07
2.67628e-07
2.69147e-07
2.14777e-07
2.14819e-07
2.11709e-07
2.11755e-07
2.14814e-07
2.1171e-07
2.11748e-07
2.67629e-07
2.6915e-07
2.14783e-07
2.1171e-07
2.11715e-07
2.6917e-07
2.70469e-07
2.74646e-07
2.10978e-07
2.1099e-07
2.09408e-07
2.09425e-07
2.70477e-07
2.74654e-07
2.10945e-07
2.10992e-07
2.09374e-07
2.09427e-07
2.10985e-07
2.09374e-07
2.09418e-07
2.70477e-07
2.74658e-07
2.10952e-07
2.09374e-07
2.09383e-07
2.74681e-07
2.76669e-07
2.83528e-07
2.09152e-07
2.09169e-07
2.09121e-07
2.09142e-07
2.76679e-07
2.83538e-07
2.09118e-07
2.09171e-07
2.09086e-07
2.09144e-07
2.09161e-07
2.09083e-07
2.09132e-07
2.76678e-07
2.8354e-07
2.09126e-07
2.09084e-07
2.09095e-07
2.83568e-07
2.86254e-07
2.95796e-07
2.09348e-07
2.0937e-07
2.10842e-07
2.10866e-07
2.86266e-07
2.95809e-07
2.09311e-07
2.09373e-07
2.10805e-07
2.10871e-07
2.09359e-07
2.10799e-07
2.10855e-07
2.86261e-07
2.9581e-07
2.09322e-07
2.10801e-07
2.10816e-07
2.95838e-07
2.99203e-07
3.11482e-07
2.11608e-07
2.11636e-07
2.14663e-07
2.14694e-07
2.99212e-07
3.11495e-07
2.1157e-07
2.11638e-07
2.14625e-07
2.14699e-07
2.11622e-07
2.14618e-07
2.14679e-07
2.99212e-07
3.11499e-07
2.11582e-07
2.14618e-07
2.14637e-07
3.11528e-07
3.15575e-07
3.30545e-07
2.15952e-07
2.15985e-07
2.20587e-07
2.20625e-07
3.15583e-07
3.30557e-07
2.15911e-07
2.15988e-07
2.20545e-07
2.20629e-07
2.15968e-07
2.20537e-07
2.20606e-07
3.15589e-07
3.30565e-07
2.15925e-07
2.20538e-07
2.20561e-07
3.30601e-07
3.35321e-07
3.52891e-07
2.22401e-07
2.22437e-07
2.28631e-07
2.2867e-07
3.35337e-07
3.52909e-07
2.22354e-07
2.22442e-07
2.28579e-07
2.28674e-07
2.22418e-07
2.28571e-07
2.28648e-07
3.35344e-07
3.52917e-07
2.22372e-07
2.28573e-07
2.28599e-07
3.52965e-07
3.58339e-07
3.78369e-07
2.30973e-07
2.3101e-07
2.38783e-07
2.38823e-07
3.58367e-07
3.78393e-07
2.30917e-07
2.31015e-07
2.38722e-07
2.38829e-07
2.30987e-07
2.38712e-07
2.38799e-07
3.58369e-07
3.78402e-07
2.30937e-07
2.38716e-07
2.38746e-07
3.78456e-07
3.84461e-07
4.06756e-07
2.41649e-07
2.41689e-07
2.5103e-07
2.51073e-07
3.84497e-07
4.06784e-07
2.41584e-07
2.41694e-07
2.50961e-07
2.5108e-07
2.41665e-07
2.5095e-07
2.51045e-07
3.84496e-07
4.06796e-07
2.41611e-07
2.50956e-07
2.50986e-07
4.06847e-07
4.13451e-07
4.37713e-07
2.54415e-07
2.54458e-07
2.65327e-07
2.6537e-07
4.13493e-07
4.37737e-07
2.54341e-07
2.54463e-07
2.65249e-07
2.6538e-07
2.54429e-07
2.65236e-07
2.65345e-07
4.13495e-07
4.37754e-07
2.5437e-07
2.65245e-07
2.6528e-07
4.37823e-07
4.44941e-07
4.70862e-07
2.69216e-07
2.69259e-07
2.81618e-07
2.81667e-07
4.44981e-07
4.70902e-07
2.69133e-07
2.69267e-07
2.81532e-07
2.81677e-07
2.69232e-07
2.81521e-07
2.81638e-07
4.44988e-07
4.70916e-07
2.69165e-07
2.81531e-07
2.81566e-07
4.70981e-07
4.78572e-07
5.05835e-07
2.85999e-07
2.86046e-07
2.99835e-07
2.99881e-07
4.78625e-07
5.05861e-07
2.85907e-07
2.86055e-07
2.9974e-07
2.99895e-07
2.86017e-07
2.99725e-07
2.99858e-07
4.78629e-07
5.05883e-07
2.85943e-07
2.99739e-07
2.99778e-07
5.05961e-07
5.13931e-07
5.42084e-07
3.04674e-07
3.04718e-07
3.19849e-07
3.19898e-07
5.13972e-07
5.42115e-07
3.04572e-07
3.04731e-07
3.19745e-07
3.19914e-07
3.04696e-07
3.19732e-07
3.1987e-07
5.13985e-07
5.42136e-07
3.04614e-07
3.19748e-07
3.19781e-07
5.42214e-07
5.50497e-07
5.79244e-07
3.25128e-07
3.25175e-07
3.41565e-07
3.41612e-07
5.50545e-07
5.79274e-07
3.25016e-07
3.25189e-07
3.4145e-07
3.4163e-07
3.25147e-07
3.41437e-07
3.41592e-07
5.50554e-07
5.793e-07
3.25056e-07
3.41456e-07
3.41494e-07
5.79399e-07
5.87883e-07
6.16899e-07
3.4725e-07
3.47293e-07
3.64856e-07
3.64902e-07
5.87927e-07
6.16922e-07
3.47128e-07
3.47311e-07
3.64732e-07
3.64925e-07
3.4727e-07
3.64719e-07
3.64885e-07
5.8794e-07
6.16962e-07
3.47169e-07
3.64743e-07
3.64776e-07
6.17043e-07
6.2568e-07
6.54587e-07
3.70905e-07
3.70949e-07
3.89553e-07
3.89594e-07
6.25721e-07
6.54611e-07
3.70773e-07
3.70968e-07
3.89418e-07
3.89622e-07
3.70935e-07
3.89404e-07
3.89584e-07
6.25745e-07
6.54647e-07
3.70823e-07
3.89434e-07
3.89465e-07
6.54738e-07
6.63451e-07
6.9204e-07
3.95937e-07
3.95975e-07
4.15537e-07
4.15577e-07
6.63489e-07
6.92066e-07
3.95794e-07
3.96002e-07
4.15392e-07
4.15608e-07
3.95965e-07
4.15383e-07
4.1557e-07
6.63519e-07
6.92104e-07
3.95842e-07
4.15416e-07
4.15439e-07
6.92199e-07
7.00915e-07
7.28903e-07
4.22207e-07
4.2224e-07
4.42575e-07
4.42608e-07
7.00956e-07
7.28914e-07
4.22054e-07
4.22269e-07
4.4242e-07
4.42642e-07
4.22242e-07
4.42411e-07
4.4261e-07
7.00981e-07
7.28957e-07
4.22108e-07
4.42447e-07
4.42469e-07
7.29075e-07
7.37727e-07
7.65142e-07
4.4951e-07
4.49546e-07
4.70645e-07
4.70675e-07
7.37762e-07
7.65169e-07
4.49346e-07
4.49578e-07
4.70481e-07
4.70716e-07
4.49537e-07
4.70476e-07
4.70682e-07
7.37789e-07
7.65218e-07
4.49393e-07
4.70519e-07
4.7053e-07
7.65307e-07
7.73873e-07
8.00188e-07
4.77764e-07
4.77782e-07
4.99321e-07
4.99337e-07
7.73906e-07
8.00188e-07
4.77591e-07
4.77821e-07
4.99149e-07
4.99387e-07
4.77801e-07
4.99139e-07
4.99379e-07
7.73942e-07
8.00244e-07
4.77647e-07
4.99191e-07
4.99218e-07
8.00387e-07
8.08772e-07
8.34399e-07
5.06609e-07
5.06623e-07
5.28699e-07
5.28722e-07
8.08798e-07
8.34412e-07
5.06428e-07
5.06671e-07
5.28518e-07
5.28769e-07
5.06664e-07
5.28525e-07
5.28738e-07
8.08841e-07
8.34466e-07
5.065e-07
5.28574e-07
5.28567e-07
8.34557e-07
8.4283e-07
8.6745e-07
5.3612e-07
5.36144e-07
5.58476e-07
5.5848e-07
8.42862e-07
8.67456e-07
5.35931e-07
5.36184e-07
5.58288e-07
5.58538e-07
5.36151e-07
5.58286e-07
5.58516e-07
8.429e-07
8.67514e-07
5.35977e-07
5.58346e-07
5.58336e-07
8.67609e-07
8.75657e-07
8.99273e-07
5.65957e-07
5.65948e-07
5.88425e-07
5.88421e-07
8.75665e-07
8.99267e-07
5.65763e-07
5.66011e-07
5.88233e-07
5.88485e-07
5.66002e-07
5.88232e-07
5.88488e-07
8.75719e-07
8.99331e-07
5.65821e-07
5.88299e-07
5.88302e-07
8.99448e-07
9.07257e-07
9.29941e-07
5.9593e-07
5.95931e-07
6.18484e-07
6.18485e-07
9.07275e-07
9.29959e-07
5.9573e-07
5.95987e-07
6.18285e-07
6.18547e-07
5.95986e-07
6.183e-07
6.18514e-07
9.07322e-07
9.30012e-07
5.95798e-07
6.18364e-07
6.18321e-07
9.30081e-07
9.37709e-07
9.59371e-07
6.25992e-07
6.25982e-07
6.48381e-07
6.48362e-07
9.37733e-07
9.59357e-07
6.25786e-07
6.26049e-07
6.4818e-07
6.48437e-07
6.26029e-07
6.48186e-07
6.48451e-07
9.37781e-07
9.5943e-07
6.25835e-07
6.48264e-07
6.48254e-07
9.5954e-07
9.66871e-07
9.87598e-07
6.55813e-07
6.55789e-07
6.78057e-07
6.78033e-07
9.66871e-07
9.87604e-07
6.55605e-07
6.55862e-07
6.77851e-07
6.78102e-07
6.55878e-07
6.77861e-07
6.78091e-07
9.66931e-07
9.87658e-07
6.5568e-07
6.77935e-07
6.7789e-07
9.87732e-07
9.94899e-07
1.01467e-06
6.85433e-07
6.85405e-07
7.07329e-07
7.07314e-07
9.94904e-07
1.01468e-06
6.85219e-07
6.85475e-07
7.07125e-07
7.07396e-07
6.85473e-07
7.07159e-07
7.07411e-07
9.94955e-07
1.01474e-06
6.85272e-07
7.07239e-07
7.07208e-07
1.01483e-06
1.0217e-06
1.04057e-06
7.14557e-07
7.14534e-07
7.36083e-07
7.36038e-07
1.02171e-06
1.04055e-06
7.1435e-07
7.14616e-07
7.35876e-07
7.36119e-07
7.14627e-07
7.35881e-07
7.36102e-07
1.02177e-06
1.04062e-06
7.14425e-07
7.35969e-07
7.359e-07
1.04067e-06
1.0474e-06
1.06543e-06
7.43199e-07
7.43156e-07
7.64269e-07
7.64241e-07
1.04738e-06
1.06544e-06
7.42989e-07
7.43234e-07
7.64069e-07
7.64332e-07
7.43222e-07
7.64111e-07
7.64351e-07
1.04744e-06
1.06551e-06
7.43019e-07
7.64192e-07
7.64145e-07
1.06558e-06
1.072e-06
1.08903e-06
7.71188e-07
7.71155e-07
7.91609e-07
7.9155e-07
1.07201e-06
1.08901e-06
7.70984e-07
7.71243e-07
7.91404e-07
7.91639e-07
7.71273e-07
7.91417e-07
7.91647e-07
1.07208e-06
1.08908e-06
7.71067e-07
7.91508e-07
7.91444e-07
1.08915e-06
1.09536e-06
1.11158e-06
7.98306e-07
7.98247e-07
8.18121e-07
8.1807e-07
1.09533e-06
1.11158e-06
7.98098e-07
7.98332e-07
8.17924e-07
8.18169e-07
7.98337e-07
8.17954e-07
8.18175e-07
1.0954e-06
1.11166e-06
7.98135e-07
8.18048e-07
8.17973e-07
1.1117e-06
1.11772e-06
1.13324e-06
8.24638e-07
8.24589e-07
8.43867e-07
8.43803e-07
1.11771e-06
1.13323e-06
8.24439e-07
8.24685e-07
8.43664e-07
8.43906e-07
8.24705e-07
8.43702e-07
8.43929e-07
1.11778e-06
1.13331e-06
8.24503e-07
8.43796e-07
8.43725e-07
1.13338e-06
1.13916e-06
1.15383e-06
8.50148e-07
8.5008e-07
8.68628e-07
8.68552e-07
1.13914e-06
1.15381e-06
8.49942e-07
8.50185e-07
8.68427e-07
8.68664e-07
8.50203e-07
8.68459e-07
8.68665e-07
1.13922e-06
1.1539e-06
8.50001e-07
8.68561e-07
8.68465e-07
1.15394e-06
1.15953e-06
1.17341e-06
8.74666e-07
8.74588e-07
8.92368e-07
8.92297e-07
1.15951e-06
1.1734e-06
8.74465e-07
8.74697e-07
8.92164e-07
8.92389e-07
8.747e-07
8.92214e-07
8.92412e-07
1.15959e-06
1.17347e-06
8.74502e-07
8.92291e-07
8.92208e-07
1.17352e-06
1.17889e-06
1.19205e-06
8.9813e-07
8.98064e-07
9.15116e-07
9.1503e-07
1.17888e-06
1.19204e-06
8.97924e-07
8.98154e-07
9.14916e-07
9.15145e-07
8.98183e-07
9.14966e-07
9.15178e-07
1.17894e-06
1.19213e-06
8.97981e-07
9.15067e-07
9.1498e-07
1.19218e-06
1.19737e-06
1.20988e-06
9.20671e-07
9.20576e-07
9.36914e-07
9.36805e-07
1.19735e-06
1.20983e-06
9.2047e-07
9.20698e-07
9.36714e-07
9.36933e-07
9.20729e-07
9.36743e-07
9.36931e-07
1.19744e-06
1.20994e-06
9.20532e-07
9.36849e-07
9.36733e-07
1.20996e-06
1.21497e-06
1.22667e-06
9.42166e-07
9.4207e-07
9.57581e-07
9.57495e-07
1.21493e-06
1.22668e-06
9.41959e-07
9.42182e-07
9.57381e-07
9.57607e-07
9.42182e-07
9.57449e-07
9.57635e-07
1.21503e-06
1.22676e-06
9.41982e-07
9.5754e-07
9.57443e-07
1.2268e-06
1.2316e-06
1.24269e-06
9.62618e-07
9.62534e-07
9.77301e-07
9.77176e-07
1.2316e-06
1.24265e-06
9.62413e-07
9.62642e-07
9.77102e-07
9.77299e-07
9.62695e-07
9.77128e-07
9.77351e-07
1.23168e-06
1.24274e-06
9.625e-07
9.77233e-07
9.77155e-07
1.24283e-06
1.2474e-06
1.25773e-06
9.82031e-07
9.81902e-07
9.95897e-07
9.95783e-07
1.24735e-06
1.25769e-06
9.81824e-07
9.82017e-07
9.95702e-07
9.9593e-07
9.82073e-07
9.95742e-07
9.959e-07
1.24744e-06
1.2578e-06
9.81874e-07
9.95868e-07
9.95715e-07
1.25779e-06
1.2623e-06
1.27218e-06
1.00044e-06
1.00032e-06
1.01367e-06
1.01356e-06
1.26227e-06
1.27217e-06
1.00024e-06
1.00046e-06
1.01347e-06
1.01368e-06
1.00043e-06
1.01354e-06
1.0137e-06
1.26238e-06
1.27226e-06
1.00024e-06
1.01362e-06
1.0135e-06
1.27226e-06
1.27659e-06
1.2858e-06
1.01794e-06
1.01782e-06
1.03041e-06
1.03033e-06
1.27658e-06
1.28581e-06
1.01774e-06
1.01795e-06
1.03021e-06
1.03045e-06
1.01798e-06
1.03031e-06
1.03047e-06
1.27665e-06
1.2859e-06
1.01779e-06
1.0304e-06
1.03027e-06
1.28594e-06
1.29006e-06
1.29878e-06
1.03446e-06
1.03438e-06
1.04632e-06
1.04615e-06
1.29008e-06
1.29871e-06
1.03426e-06
1.0345e-06
1.04612e-06
1.04626e-06
1.03453e-06
1.04614e-06
1.04637e-06
1.29016e-06
1.29878e-06
1.03434e-06
1.04622e-06
1.04617e-06
1.2989e-06
1.30288e-06
1.31062e-06
1.05014e-06
1.04993e-06
1.06091e-06
1.06073e-06
1.30276e-06
1.31051e-06
1.04994e-06
1.05005e-06
1.06071e-06
1.06088e-06
1.05014e-06
1.0607e-06
1.06088e-06
1.30284e-06
1.31063e-06
1.04994e-06
1.06083e-06
1.0607e-06
1.31066e-06
1.31444e-06
1.32175e-06
1.06432e-06
1.06425e-06
1.07463e-06
1.07466e-06
1.3144e-06
1.32197e-06
1.0641e-06
1.06436e-06
1.07442e-06
1.07478e-06
1.06437e-06
1.07465e-06
1.07471e-06
1.31451e-06
1.32204e-06
1.06417e-06
1.07476e-06
1.07453e-06
1.32194e-06
1.32567e-06
1.33314e-06
1.07813e-06
1.07805e-06
1.08817e-06
1.08787e-06
1.32583e-06
1.33288e-06
1.07793e-06
1.07821e-06
1.088e-06
1.08804e-06
1.0781e-06
1.08787e-06
1.08809e-06
1.32592e-06
1.33304e-06
1.07794e-06
1.088e-06
1.0879e-06
1.33306e-06
1.33679e-06
1.34265e-06
1.09122e-06
1.09096e-06
1.0999e-06
1.09986e-06
1.33653e-06
1.34272e-06
1.09105e-06
1.09113e-06
1.09969e-06
1.0999e-06
1.09126e-06
1.0999e-06
1.10017e-06
1.33667e-06
1.34272e-06
1.09106e-06
1.0999e-06
1.09994e-06
1.34302e-06
1.3461e-06
1.35202e-06
1.10282e-06
1.10277e-06
1.11116e-06
1.11097e-06
1.3462e-06
1.35191e-06
1.10259e-06
1.10279e-06
1.11098e-06
1.11117e-06
1.10296e-06
1.11087e-06
1.11092e-06
1.34619e-06
1.35203e-06
1.10273e-06
1.11106e-06
1.11079e-06
1.35188e-06
1.35542e-06
1.36133e-06
1.11373e-06
1.11357e-06
1.12205e-06
1.12197e-06
1.35529e-06
1.36132e-06
1.11355e-06
1.11378e-06
1.12184e-06
1.1221e-06
1.11357e-06
1.12199e-06
1.12215e-06
1.35546e-06
1.3615e-06
1.11346e-06
1.12214e-06
1.122e-06
1.36151e-06
1.36492e-06
1.36992e-06
1.12501e-06
1.12481e-06
1.13221e-06
1.13173e-06
1.36487e-06
1.36947e-06
1.12481e-06
1.12497e-06
1.132e-06
1.13196e-06
1.12503e-06
1.13177e-06
1.13199e-06
1.36503e-06
1.36971e-06
1.12486e-06
1.13192e-06
1.13174e-06
1.36961e-06
1.37252e-06
1.37404e-06
1.13389e-06
1.13351e-06
1.13844e-06
1.13873e-06
1.37213e-06
1.3745e-06
1.13367e-06
1.13374e-06
1.13833e-06
1.13891e-06
1.1337e-06
1.13874e-06
1.13877e-06
1.37236e-06
1.37455e-06
1.13343e-06
1.13881e-06
1.13858e-06
1.37458e-06
1.37671e-06
1.3821e-06
1.14015e-06
1.14058e-06
1.14713e-06
1.14705e-06
1.37737e-06
1.38233e-06
1.14005e-06
1.14068e-06
1.14691e-06
1.14665e-06
1.1408e-06
1.14714e-06
1.14763e-06
1.37732e-06
1.38173e-06
1.14063e-06
1.14681e-06
1.14748e-06
1.38286e-06
1.3861e-06
1.39427e-06
1.15033e-06
1.14979e-06
1.15945e-06
1.15816e-06
1.38589e-06
1.39244e-06
1.15004e-06
1.14925e-06
1.1592e-06
1.15833e-06
1.15007e-06
1.15784e-06
1.15758e-06
1.38519e-06
1.3927e-06
1.14991e-06
1.15806e-06
1.15747e-06
1.392e-06
1.39714e-06
1.39339e-06
1.16105e-06
1.16009e-06
1.16169e-06
1.16194e-06
1.39539e-06
1.3944e-06
1.1609e-06
1.16081e-06
1.1617e-06
1.16416e-06
1.15971e-06
1.16215e-06
1.16285e-06
1.39615e-06
1.39757e-06
1.15965e-06
1.16434e-06
1.16288e-06
1.39555e-06
1.39467e-06
1.39451e-06
1.16147e-06
1.16197e-06
1.16315e-06
1.16377e-06
1.3958e-06
1.39572e-06
1.1615e-06
1.16426e-06
1.16307e-06
1.16476e-06
1.16302e-06
1.1638e-06
1.16458e-06
1.39923e-06
1.3965e-06
1.16303e-06
1.16476e-06
1.16434e-06
1.3965e-06
1.39912e-06
1.42181e-06
1.16659e-06
1.16669e-06
1.18446e-06
1.18259e-06
1.39986e-06
1.41906e-06
1.16633e-06
1.16597e-06
1.18363e-06
1.177e-06
1.16697e-06
1.18224e-06
1.18163e-06
1.39934e-06
1.41044e-06
1.16649e-06
1.17644e-06
1.18064e-06
1.41724e-06
1.42884e-06
1.43379e-06
1.19005e-06
1.1876e-06
1.19467e-06
1.19186e-06
1.4255e-06
1.42917e-06
1.18918e-06
1.18185e-06
1.19406e-06
1.18908e-06
1.18654e-06
1.1918e-06
1.19122e-06
1.41614e-06
1.42482e-06
1.1856e-06
1.18919e-06
1.19079e-06
1.42784e-06
1.43388e-06
1.36968e-06
1.19228e-06
1.18997e-06
1.1583e-06
1.16338e-06
1.42954e-06
1.37986e-06
1.19201e-06
1.18885e-06
1.15943e-06
1.17172e-06
1.18989e-06
1.1648e-06
1.16508e-06
1.42634e-06
1.39657e-06
1.18981e-06
1.17326e-06
1.16657e-06
1.38242e-06
1.36501e-06
1.33664e-06
1.14607e-06
1.1539e-06
1.13377e-06
1.14356e-06
1.37717e-06
1.35612e-06
1.14698e-06
1.16201e-06
1.13343e-06
1.1453e-06
1.15481e-06
1.14372e-06
1.14256e-06
1.39393e-06
1.3616e-06
1.15608e-06
1.14569e-06
1.14221e-06
1.35291e-06
1.344e-06
1.43305e-06
1.13662e-06
1.14476e-06
1.19034e-06
1.17201e-06
1.36075e-06
1.4004e-06
1.13596e-06
1.14554e-06
1.19121e-06
1.17708e-06
1.14422e-06
1.17084e-06
1.18386e-06
1.36358e-06
1.40621e-06
1.14356e-06
1.17621e-06
1.18494e-06
1.42208e-06
1.46038e-06
1.55473e-06
1.21712e-06
1.19026e-06
1.27906e-06
1.25947e-06
1.4155e-06
1.51204e-06
1.21869e-06
1.19719e-06
1.27869e-06
1.25483e-06
1.20397e-06
1.25821e-06
1.25692e-06
1.42446e-06
1.50214e-06
1.20608e-06
1.25302e-06
1.25725e-06
1.51425e-06
1.56525e-06
1.52588e-06
1.28729e-06
1.27919e-06
1.2774e-06
1.29838e-06
1.53586e-06
1.58299e-06
1.28547e-06
1.26678e-06
1.27205e-06
1.27735e-06
1.26858e-06
1.30042e-06
1.27903e-06
1.51621e-06
1.53763e-06
1.26679e-06
1.27806e-06
1.27385e-06
1.5332e-06
1.5153e-06
1.35803e-06
1.25359e-06
1.29268e-06
1.16432e-06
1.20344e-06
1.58244e-06
1.43945e-06
1.24918e-06
1.27423e-06
1.16693e-06
1.21684e-06
1.27546e-06
1.21088e-06
1.21754e-06
1.53843e-06
1.45565e-06
1.26998e-06
1.22408e-06
1.21981e-06
1.44924e-06
1.34653e-06
1.30902e-06
1.13997e-06
1.16618e-06
1.11297e-06
1.09488e-06
1.4178e-06
1.27251e-06
1.14442e-06
1.18575e-06
1.11684e-06
1.10416e-06
1.18633e-06
1.08958e-06
1.09659e-06
1.44152e-06
1.29334e-06
1.19107e-06
1.10042e-06
1.10063e-06
1.29308e-06
1.31821e-06
1.37792e-06
1.11401e-06
1.08824e-06
1.14234e-06
1.09764e-06
1.26892e-06
1.28873e-06
1.11718e-06
1.09224e-06
1.1424e-06
1.09789e-06
1.07981e-06
1.08522e-06
1.07271e-06
1.28605e-06
1.29687e-06
1.08221e-06
1.08827e-06
1.07401e-06
1.26257e-06
1.3863e-06
1.37393e-06
1.14875e-06
1.10713e-06
1.14997e-06
1.12813e-06
1.303e-06
1.34432e-06
1.15088e-06
1.12173e-06
1.15769e-06
1.19625e-06
1.08558e-06
1.13688e-06
1.16899e-06
1.32163e-06
1.45414e-06
1.08857e-06
1.20316e-06
1.17972e-06
1.4048e-06
1.37339e-06
1.38742e-06
1.14983e-06
1.14011e-06
1.17614e-06
1.22203e-06
1.35591e-06
1.47278e-06
1.15779e-06
1.20687e-06
1.17171e-06
1.20501e-06
1.19653e-06
1.23183e-06
1.24659e-06
1.46877e-06
1.45058e-06
1.20472e-06
1.21103e-06
1.23538e-06
1.50764e-06
1.40719e-06
1.53882e-06
1.20129e-06
1.25365e-06
1.27554e-06
1.2973e-06
1.50674e-06
1.58981e-06
1.18938e-06
1.19598e-06
1.25836e-06
1.18336e-06
1.25389e-06
1.29073e-06
1.25723e-06
1.445e-06
1.37971e-06
1.23729e-06
1.17798e-06
1.23751e-06
1.51296e-06
1.55627e-06
1.53353e-06
1.28355e-06
1.29593e-06
1.25924e-06
1.22719e-06
1.59211e-06
1.4701e-06
1.27098e-06
1.18415e-06
1.26536e-06
1.20963e-06
1.25167e-06
1.22088e-06
1.20622e-06
1.38035e-06
1.42668e-06
1.2354e-06
1.20414e-06
1.21153e-06
1.43376e-06
1.52414e-06
1.40302e-06
1.23338e-06
1.19946e-06
1.17663e-06
1.16547e-06
1.45385e-06
1.37166e-06
1.24346e-06
1.22151e-06
1.1852e-06
1.24385e-06
1.19036e-06
1.1651e-06
1.16698e-06
1.4486e-06
1.52419e-06
1.20095e-06
1.24557e-06
1.17954e-06
1.38194e-06
1.40051e-06
1.39025e-06
1.17218e-06
1.16764e-06
1.17893e-06
1.19941e-06
1.37481e-06
1.43033e-06
1.17736e-06
1.24623e-06
1.17672e-06
1.23939e-06
1.16683e-06
1.19886e-06
1.18904e-06
1.53469e-06
1.51941e-06
1.17827e-06
1.24025e-06
1.18997e-06
1.41567e-06
1.39364e-06
1.38985e-06
1.1806e-06
1.20331e-06
1.17427e-06
1.18494e-06
1.43876e-06
1.41239e-06
1.17761e-06
1.22482e-06
1.17035e-06
1.16241e-06
1.19879e-06
1.19048e-06
1.20857e-06
1.51237e-06
1.36987e-06
1.19746e-06
1.16864e-06
1.20595e-06
1.45485e-06
1.39099e-06
1.39883e-06
1.16949e-06
1.17129e-06
1.16676e-06
1.15003e-06
1.4085e-06
1.36844e-06
1.16668e-06
1.14562e-06
1.16498e-06
1.12687e-06
1.2078e-06
1.15412e-06
1.1935e-06
1.35914e-06
1.31217e-06
1.20567e-06
1.13224e-06
1.19248e-06
1.44583e-06
1.4057e-06
1.42192e-06
1.16974e-06
1.15016e-06
1.18323e-06
1.17293e-06
1.37064e-06
1.40532e-06
1.16826e-06
1.12819e-06
1.18148e-06
1.16746e-06
1.1863e-06
1.16945e-06
1.1645e-06
1.31778e-06
1.39233e-06
1.1846e-06
1.1623e-06
1.16094e-06
1.38699e-06
1.42447e-06
1.41305e-06
1.18464e-06
1.18312e-06
1.18101e-06
1.19855e-06
1.41789e-06
1.44498e-06
1.18278e-06
1.18275e-06
1.18021e-06
1.206e-06
1.16034e-06
1.19587e-06
1.15696e-06
1.41162e-06
1.46058e-06
1.15676e-06
1.20275e-06
1.15477e-06
1.36649e-06
1.41394e-06
1.41016e-06
1.1788e-06
1.19886e-06
1.17645e-06
1.18877e-06
1.44784e-06
1.42776e-06
1.17882e-06
1.20737e-06
1.17768e-06
1.19896e-06
1.15814e-06
1.18823e-06
1.17451e-06
1.46583e-06
1.449e-06
1.15757e-06
1.19868e-06
1.17618e-06
1.4064e-06
1.41375e-06
1.42268e-06
1.1771e-06
1.18435e-06
1.18234e-06
1.17305e-06
1.42723e-06
1.4063e-06
1.17852e-06
1.19338e-06
1.18283e-06
1.17611e-06
1.18071e-06
1.17307e-06
1.18992e-06
1.44748e-06
1.41075e-06
1.1821e-06
1.17589e-06
1.19008e-06
1.44043e-06
1.42588e-06
1.4186e-06
1.18332e-06
1.17175e-06
1.18003e-06
1.16692e-06
1.40741e-06
1.40087e-06
1.1834e-06
1.1724e-06
1.17884e-06
1.15954e-06
1.19035e-06
1.16711e-06
1.18152e-06
1.41057e-06
1.38615e-06
1.19028e-06
1.15885e-06
1.17999e-06
1.42487e-06
1.41905e-06
1.39504e-06
1.17649e-06
1.16568e-06
1.16081e-06
1.15714e-06
1.40215e-06
1.39023e-06
1.17506e-06
1.15648e-06
1.15959e-06
1.15071e-06
1.17561e-06
1.15588e-06
1.15583e-06
1.3865e-06
1.37682e-06
1.17393e-06
1.15004e-06
1.15507e-06
1.38559e-06
1.39547e-06
1.38758e-06
1.15747e-06
1.15531e-06
1.15336e-06
1.15364e-06
1.39108e-06
1.38651e-06
1.15673e-06
1.15083e-06
1.15362e-06
1.1576e-06
1.15276e-06
1.15304e-06
1.15056e-06
1.37975e-06
1.39484e-06
1.15236e-06
1.15744e-06
1.15082e-06
1.38083e-06
1.39038e-06
1.38408e-06
1.15406e-06
1.15486e-06
1.14314e-06
1.14687e-06
1.38987e-06
1.38882e-06
1.15452e-06
1.16349e-06
1.14387e-06
1.1534e-06
1.15223e-06
1.14774e-06
1.1467e-06
1.40169e-06
1.4013e-06
1.1529e-06
1.15405e-06
1.14734e-06
1.38899e-06
1.36646e-06
1.11224e-06
1.11674e-06
1.37252e-06
1.11264e-06
1.12105e-06
6.70537e-07
6.73088e-07
6.70081e-07
1.11636e-06
1.38202e-06
1.11654e-06
5.35663e-07
5.35601e-07
5.35655e-07
5.35655e-07
5.34573e-07
5.35516e-07
5.33634e-07
5.35654e-07
5.34573e-07
5.35517e-07
5.35654e-07
5.33634e-07
5.35256e-07
5.35987e-07
5.35987e-07
1.10717e-06
3.88067e-06
9.33917e-07
4.60585e-06
1.26086e-05
1.66015e-05
1.10712e-06
3.88121e-06
9.3393e-07
4.60638e-06
4.95567e-07
4.95567e-07
4.95567e-07
4.57231e-07
4.57231e-07
4.57232e-07
4.57232e-07
5.43136e-07
1.22024e-06
4.95565e-07
4.85523e-07
5.25345e-07
1.20948e-06
4.82301e-07
1.26098e-05
1.6603e-05
5.43156e-07
4.95565e-07
1.22026e-06
4.85523e-07
5.25333e-07
4.82301e-07
1.2095e-06
2.52183e-06
2.52237e-06
4.84192e-07
2.37257e-06
2.37281e-06
1.43088e-06
5.59293e-06
1.32969e-06
6.13611e-06
2.12848e-05
2.31113e-05
1.43097e-06
5.59371e-06
1.3298e-06
6.1369e-06
4.45573e-07
4.45573e-07
4.45573e-07
4.13542e-07
4.13542e-07