/*--------------------------------*- C++ -*----------------------------------*\
| =========                 |                                                 |
| \\      /  F ield         | OpenFOAM: The Open Source CFD Toolbox           |
|  \\    /   O peration     | Version:  v2012                                 |
|   \\  /    A nd           | Website:  www.openfoam.com                      |
|    \\/     M anipulation  |                                                 |
\*---------------------------------------------------------------------------*/
FoamFile
{
    version     2.0;
    format      ascii;
    class       volScalarField;
    location    "750";
    object      k;
}
// * * * * * * * * * * * * * * * * * * * * * * * * * * * * * * * * * * * * * //

dimensions      [0 2 -2 0 0 0 0];


internalField   nonuniform List<scalar> 
171728
(
3.58932e-05
3.58912e-05
3.58912e-05
3.59957e-05
3.39296e-05
3.3889e-05
3.3889e-05
3.39623e-05
3.21578e-05
3.20081e-05
3.20081e-05
3.19522e-05
3.05346e-05
3.02293e-05
3.02292e-05
2.99885e-05
2.90329e-05
2.8554e-05
2.85539e-05
2.81226e-05
2.76354e-05
2.69871e-05
2.69871e-05
2.63906e-05
2.63308e-05
2.5531e-05
2.55309e-05
2.48072e-05
2.51112e-05
2.41849e-05
2.41848e-05
2.3378e-05
2.3971e-05
2.29506e-05
2.29505e-05
2.21045e-05
2.29058e-05
2.18268e-05
2.18267e-05
2.09858e-05
2.1912e-05
2.08113e-05
2.08112e-05
2.00131e-05
2.09865e-05
1.99013e-05
1.99011e-05
1.91812e-05
2.01241e-05
1.90947e-05
1.90946e-05
1.84894e-05
1.93239e-05
1.83884e-05
1.83883e-05
1.79327e-05
1.85848e-05
1.77793e-05
1.77792e-05
1.75059e-05
1.79042e-05
1.72656e-05
1.72655e-05
1.71999e-05
1.72799e-05
1.68465e-05
1.68465e-05
1.70223e-05
1.67097e-05
1.65212e-05
1.65211e-05
1.69816e-05
1.61924e-05
1.62896e-05
1.62896e-05
1.70787e-05
1.57254e-05
1.61519e-05
1.61519e-05
1.73037e-05
1.53073e-05
1.61075e-05
1.61076e-05
1.76567e-05
1.49374e-05
1.61536e-05
1.61538e-05
1.8134e-05
1.46145e-05
1.62921e-05
1.62924e-05
1.87285e-05
1.43382e-05
1.65203e-05
1.65207e-05
1.94281e-05
1.4108e-05
1.68359e-05
1.68362e-05
2.02207e-05
1.39234e-05
1.72352e-05
1.72359e-05
2.10945e-05
1.37845e-05
1.77159e-05
1.77167e-05
2.20356e-05
1.36906e-05
1.82729e-05
1.82738e-05
2.30308e-05
1.36423e-05
1.8902e-05
1.89029e-05
2.4065e-05
1.3639e-05
1.95979e-05
1.95988e-05
2.51254e-05
1.36816e-05
2.03563e-05
2.03576e-05
2.62026e-05
1.37698e-05
2.11689e-05
2.11708e-05
2.72828e-05
1.39044e-05
2.20329e-05
2.20338e-05
2.83621e-05
1.40857e-05
2.29389e-05
2.29419e-05
2.94277e-05
1.43138e-05
2.38849e-05
2.38856e-05
3.04876e-05
1.45866e-05
2.4854e-05
2.4857e-05
3.15188e-05
1.49091e-05
2.58568e-05
2.5859e-05
3.25383e-05
1.52763e-05
2.68721e-05
2.68743e-05
3.35333e-05
1.56886e-05
2.78992e-05
2.79023e-05
3.45041e-05
1.61473e-05
2.89353e-05
2.89381e-05
3.54517e-05
1.6646e-05
2.99665e-05
2.99696e-05
3.63718e-05
1.71903e-05
3.1002e-05
3.10047e-05
3.72706e-05
1.7772e-05
3.20221e-05
3.20256e-05
3.81395e-05
1.83941e-05
3.30387e-05
3.30417e-05
3.89883e-05
1.90535e-05
3.40369e-05
3.40397e-05
3.98143e-05
1.9737e-05
3.50083e-05
3.50118e-05
4.06036e-05
2.04555e-05
3.59679e-05
3.59709e-05
4.13796e-05
2.11985e-05
3.69005e-05
3.69043e-05
4.21267e-05
2.19662e-05
3.78104e-05
3.78133e-05
4.28503e-05
2.27436e-05
3.86887e-05
3.86913e-05
4.35456e-05
2.35452e-05
3.95463e-05
3.95495e-05
4.4224e-05
2.43456e-05
4.03677e-05
4.03714e-05
4.4868e-05
2.51666e-05
4.11725e-05
4.1175e-05
4.55023e-05
2.59733e-05
4.1928e-05
4.1934e-05
4.60946e-05
2.67847e-05
4.26739e-05
4.26754e-05
4.66727e-05
2.76044e-05
4.33853e-05
4.3388e-05
4.72347e-05
2.84042e-05
4.40762e-05
4.40788e-05
4.77742e-05
2.92009e-05
4.47146e-05
4.47205e-05
4.82786e-05
2.99616e-05
4.53369e-05
4.53379e-05
4.87528e-05
3.07405e-05
4.59469e-05
4.59507e-05
4.92328e-05
3.14999e-05
4.6519e-05
4.65222e-05
4.96995e-05
3.22134e-05
4.70387e-05
4.70425e-05
5.00888e-05
3.286e-05
4.75519e-05
4.75538e-05
5.04887e-05
3.36708e-05
4.81045e-05
4.81094e-05
5.09533e-05
3.43085e-05
4.84874e-05
4.84959e-05
5.11859e-05
3.47639e-05
4.88572e-05
4.88659e-05
5.15551e-05
3.54466e-05
4.93864e-05
4.93373e-05
5.19419e-05
3.62641e-05
4.98596e-05
4.98988e-05
5.2295e-05
3.65301e-05
4.98986e-05
5.01048e-05
5.23177e-05
3.71049e-05
5.048e-05
5.01705e-05
5.27835e-05
3.82248e-05
5.14815e-05
5.12072e-05
5.39022e-05
3.83628e-05
5.11941e-05
5.14059e-05
5.33338e-05
3.74886e-05
4.96413e-05
5.04e-05
5.13175e-05
3.75233e-05
4.95556e-05
4.96549e-05
5.20574e-05
3.95939e-05
5.24884e-05
5.0803e-05
5.57508e-05
4.17134e-05
5.67273e-05
5.53788e-05
5.7934e-05
4.35587e-05
5.71471e-05
5.78087e-05
5.69075e-05
4.27885e-05
4.91665e-05
5.28843e-05
5.17723e-05
3.70845e-05
4.73146e-05
4.70098e-05
5.08374e-05
3.54218e-05
5.10699e-05
4.82206e-05
5.31069e-05
3.71649e-05
5.10041e-05
4.96975e-05
5.14725e-05
4.14447e-05
5.07155e-05
5.03027e-05
5.15528e-05
4.75557e-05
5.80866e-05
5.95239e-05
6.10606e-05
4.89307e-05
5.92777e-05
6.18305e-05
6.21864e-05
4.27857e-05
5.35796e-05
5.32196e-05
5.32803e-05
3.81006e-05
4.98426e-05
4.72004e-05
5.10556e-05
3.72651e-05
4.81294e-05
4.78689e-05
5.33087e-05
4.01332e-05
5.08015e-05
5.25611e-05
5.39449e-05
4.37958e-05
5.56017e-05
5.51739e-05
5.39484e-05
4.50612e-05
5.65883e-05
5.56155e-05
5.59719e-05
4.40803e-05
5.31245e-05
5.37071e-05
5.68406e-05
4.12208e-05
5.04631e-05
5.1295e-05
5.44223e-05
4.01368e-05
5.03836e-05
5.03724e-05
5.23302e-05
4.08644e-05
5.21803e-05
5.14285e-05
5.29091e-05
4.25375e-05
5.23208e-05
5.23974e-05
5.47159e-05
3.63068e-05
3.6291e-05
3.6291e-05
3.63068e-05
3.6291e-05
3.6291e-05
3.6423e-05
3.6423e-05
3.6423e-05
3.6423e-05
3.6291e-05
3.6291e-05
3.63068e-05
3.6291e-05
3.6291e-05
3.63068e-05
3.59957e-05
3.42687e-05
3.58912e-05
3.58912e-05
3.43767e-05
3.43766e-05
3.59957e-05
3.42687e-05
3.58911e-05
3.58912e-05
3.43767e-05
3.43766e-05
3.58912e-05
3.43767e-05
3.43767e-05
3.59957e-05
3.42687e-05
3.58912e-05
3.43767e-05
3.43767e-05
3.42687e-05
3.39623e-05
3.22635e-05
3.38889e-05
3.38889e-05
3.24684e-05
3.24683e-05
3.39622e-05
3.22635e-05
3.38889e-05
3.38889e-05
3.24684e-05
3.24683e-05
3.38889e-05
3.24685e-05
3.24683e-05
3.39622e-05
3.22635e-05
3.38889e-05
3.24685e-05
3.24684e-05
3.22634e-05
3.19522e-05
3.02994e-05
3.2008e-05
3.20078e-05
3.06643e-05
3.06642e-05
3.19522e-05
3.02994e-05
3.2008e-05
3.20078e-05
3.06644e-05
3.06641e-05
3.20079e-05
3.06645e-05
3.06642e-05
3.19522e-05
3.02993e-05
3.2008e-05
3.06645e-05
3.06644e-05
3.02991e-05
2.99886e-05
2.84254e-05
3.0229e-05
3.02288e-05
2.89624e-05
2.89622e-05
2.99885e-05
2.84254e-05
3.02292e-05
3.02288e-05
2.89626e-05
2.89621e-05
3.02289e-05
2.89628e-05
2.89623e-05
2.99885e-05
2.84253e-05
3.02291e-05
2.89627e-05
2.89626e-05
2.8425e-05
2.81228e-05
2.66741e-05
2.85536e-05
2.85534e-05
2.7368e-05
2.73678e-05
2.81227e-05
2.66741e-05
2.85539e-05
2.85533e-05
2.73684e-05
2.73677e-05
2.85535e-05
2.73685e-05
2.73679e-05
2.81227e-05
2.66739e-05
2.85538e-05
2.73684e-05
2.73682e-05
2.66737e-05
2.63909e-05
2.50664e-05
2.69866e-05
2.69864e-05
2.58841e-05
2.58838e-05
2.63909e-05
2.50664e-05
2.6987e-05
2.69863e-05
2.58846e-05
2.58837e-05
2.69865e-05
2.58847e-05
2.58839e-05
2.63908e-05
2.50662e-05
2.69869e-05
2.58846e-05
2.58844e-05
2.50659e-05
2.48076e-05
2.36126e-05
2.55303e-05
2.55301e-05
2.45102e-05
2.45099e-05
2.48076e-05
2.36126e-05
2.55308e-05
2.55299e-05
2.45108e-05
2.45098e-05
2.55302e-05
2.4511e-05
2.45101e-05
2.48074e-05
2.36124e-05
2.55307e-05
2.45109e-05
2.45107e-05
2.36121e-05
2.33785e-05
2.23126e-05
2.41841e-05
2.41839e-05
2.32478e-05
2.32475e-05
2.33785e-05
2.23126e-05
2.41847e-05
2.41837e-05
2.32485e-05
2.32474e-05
2.4184e-05
2.32487e-05
2.32476e-05
2.33783e-05
2.23123e-05
2.41846e-05
2.32486e-05
2.32484e-05
2.2312e-05
2.2105e-05
2.11682e-05
2.29497e-05
2.29494e-05
2.20965e-05
2.20962e-05
2.2105e-05
2.11682e-05
2.29504e-05
2.29492e-05
2.20973e-05
2.20961e-05
2.29495e-05
2.20975e-05
2.20964e-05
2.21048e-05
2.1168e-05
2.29503e-05
2.20974e-05
2.20972e-05
2.11675e-05
2.09865e-05
2.01708e-05
2.18258e-05
2.18255e-05
2.10541e-05
2.10538e-05
2.09864e-05
2.01708e-05
2.18266e-05
2.18254e-05
2.1055e-05
2.10537e-05
2.18257e-05
2.10552e-05
2.1054e-05
2.09862e-05
2.01706e-05
2.18265e-05
2.10551e-05
2.10549e-05
2.01701e-05
2.00138e-05
1.93147e-05
2.08103e-05
2.081e-05
2.01179e-05
2.01177e-05
2.00138e-05
1.93147e-05
2.08112e-05
2.08098e-05
2.01189e-05
2.01175e-05
2.08101e-05
2.0119e-05
2.01178e-05
2.00135e-05
1.93144e-05
2.08111e-05
2.01189e-05
2.01188e-05
1.9314e-05
1.91817e-05
1.85905e-05
1.99002e-05
1.98999e-05
1.92855e-05
1.92852e-05
1.91818e-05
1.85905e-05
1.99011e-05
1.98997e-05
1.92864e-05
1.92851e-05
1.99e-05
1.92866e-05
1.92854e-05
1.91815e-05
1.85903e-05
1.9901e-05
1.92865e-05
1.92864e-05
1.85897e-05
1.84899e-05
1.79978e-05
1.90936e-05
1.90934e-05
1.85544e-05
1.85542e-05
1.84898e-05
1.79979e-05
1.90945e-05
1.90932e-05
1.85554e-05
1.85541e-05
1.90935e-05
1.85555e-05
1.85543e-05
1.84896e-05
1.79977e-05
1.90945e-05
1.85554e-05
1.85553e-05
1.79972e-05
1.79333e-05
1.75392e-05
1.83874e-05
1.83872e-05
1.79213e-05
1.79211e-05
1.79333e-05
1.75393e-05
1.83883e-05
1.8387e-05
1.79222e-05
1.7921e-05
1.83873e-05
1.79223e-05
1.79212e-05
1.79331e-05
1.7539e-05
1.83883e-05
1.79222e-05
1.79222e-05
1.75387e-05
1.75064e-05
1.72176e-05
1.77783e-05
1.77782e-05
1.73837e-05
1.73836e-05
1.75066e-05
1.72177e-05
1.77792e-05
1.7778e-05
1.73846e-05
1.73835e-05
1.77782e-05
1.73847e-05
1.73837e-05
1.75062e-05
1.72175e-05
1.77792e-05
1.73846e-05
1.73846e-05
1.72172e-05
1.72003e-05
1.70259e-05
1.72647e-05
1.72646e-05
1.6941e-05
1.6941e-05
1.72004e-05
1.7026e-05
1.72655e-05
1.72645e-05
1.69418e-05
1.69409e-05
1.72647e-05
1.69419e-05
1.6941e-05
1.72002e-05
1.70259e-05
1.72656e-05
1.69417e-05
1.69418e-05
1.70257e-05
1.70226e-05
1.69724e-05
1.68457e-05
1.68457e-05
1.6592e-05
1.6592e-05
1.70227e-05
1.69724e-05
1.68465e-05
1.68456e-05
1.65927e-05
1.65919e-05
1.68457e-05
1.65927e-05
1.6592e-05
1.70225e-05
1.69723e-05
1.68466e-05
1.65926e-05
1.65928e-05
1.69722e-05
1.69818e-05
1.70432e-05
1.65205e-05
1.65206e-05
1.63367e-05
1.63369e-05
1.69818e-05
1.70435e-05
1.65212e-05
1.65205e-05
1.63374e-05
1.63368e-05
1.65205e-05
1.63374e-05
1.63368e-05
1.69816e-05
1.70433e-05
1.65213e-05
1.63373e-05
1.63375e-05
1.70433e-05
1.70787e-05
1.72433e-05
1.62891e-05
1.62892e-05
1.61752e-05
1.61755e-05
1.7079e-05
1.72434e-05
1.62897e-05
1.62891e-05
1.61757e-05
1.61754e-05
1.62891e-05
1.61757e-05
1.61753e-05
1.70787e-05
1.72433e-05
1.62898e-05
1.61757e-05
1.6176e-05
1.72435e-05
1.73034e-05
1.75716e-05
1.61514e-05
1.61517e-05
1.6107e-05
1.61074e-05
1.73039e-05
1.75718e-05
1.61519e-05
1.61516e-05
1.61075e-05
1.61074e-05
1.61515e-05
1.61074e-05
1.61072e-05
1.73036e-05
1.75718e-05
1.61522e-05
1.61074e-05
1.61078e-05
1.75721e-05
1.76563e-05
1.80248e-05
1.61072e-05
1.61075e-05
1.61328e-05
1.61333e-05
1.76568e-05
1.80251e-05
1.61076e-05
1.61075e-05
1.61332e-05
1.61333e-05
1.61074e-05
1.6133e-05
1.61331e-05
1.76566e-05
1.8025e-05
1.61079e-05
1.61331e-05
1.61336e-05
1.80255e-05
1.81331e-05
1.85968e-05
1.61536e-05
1.61539e-05
1.62489e-05
1.62494e-05
1.81338e-05
1.8597e-05
1.61537e-05
1.61539e-05
1.62491e-05
1.62495e-05
1.61538e-05
1.62489e-05
1.62492e-05
1.81335e-05
1.85972e-05
1.61542e-05
1.62491e-05
1.62496e-05
1.85975e-05
1.87277e-05
1.92754e-05
1.62923e-05
1.62927e-05
1.64551e-05
1.64557e-05
1.87283e-05
1.92757e-05
1.62923e-05
1.62927e-05
1.64552e-05
1.64558e-05
1.62925e-05
1.64549e-05
1.64555e-05
1.87281e-05
1.92759e-05
1.62929e-05
1.64552e-05
1.64558e-05
1.92766e-05
1.9427e-05
2.00493e-05
1.65207e-05
1.65211e-05
1.67494e-05
1.67499e-05
1.94276e-05
2.00496e-05
1.65206e-05
1.65213e-05
1.67493e-05
1.67502e-05
1.65211e-05
1.67489e-05
1.67497e-05
1.94276e-05
2.005e-05
1.65213e-05
1.67494e-05
1.67498e-05
2.00505e-05
2.02198e-05
2.09057e-05
1.68364e-05
1.6837e-05
1.71285e-05
1.71289e-05
2.02202e-05
2.09063e-05
1.68361e-05
1.6837e-05
1.71282e-05
1.71294e-05
1.68367e-05
1.71277e-05
1.7129e-05
2.02205e-05
2.09067e-05
1.68368e-05
1.71283e-05
1.71289e-05
2.09077e-05
2.10928e-05
2.18326e-05
1.72363e-05
1.72365e-05
1.75893e-05
1.75898e-05
2.10931e-05
2.18333e-05
1.72358e-05
1.72369e-05
1.75888e-05
1.75904e-05
1.72367e-05
1.75884e-05
1.75897e-05
2.10938e-05
2.18337e-05
1.72366e-05
1.75892e-05
1.75895e-05
2.18347e-05
2.20338e-05
2.28161e-05
1.77172e-05
1.77175e-05
1.81278e-05
1.81285e-05
2.20347e-05
2.28167e-05
1.77165e-05
1.77179e-05
1.81271e-05
1.81289e-05
1.77175e-05
1.81268e-05
1.81286e-05
2.20352e-05
2.28169e-05
1.77172e-05
1.81275e-05
1.81281e-05
2.28187e-05
2.30282e-05
2.38416e-05
1.82743e-05
1.82746e-05
1.87396e-05
1.87402e-05
2.30294e-05
2.38415e-05
1.82733e-05
1.82752e-05
1.87387e-05
1.87407e-05
1.82748e-05
1.87384e-05
1.87405e-05
2.30294e-05
2.38423e-05
1.82743e-05
1.87391e-05
1.87397e-05
2.3844e-05
2.40626e-05
2.48954e-05
1.89035e-05
1.89039e-05
1.94195e-05
1.94197e-05
2.40633e-05
2.48949e-05
1.89023e-05
1.89045e-05
1.94183e-05
1.94206e-05
1.89043e-05
1.94177e-05
1.94203e-05
2.40635e-05
2.48966e-05
1.89034e-05
1.94188e-05
1.94192e-05
2.4898e-05
2.51232e-05
2.59678e-05
1.95997e-05
1.96e-05
2.01634e-05
2.01637e-05
2.51231e-05
2.59678e-05
1.95983e-05
1.96005e-05
2.0162e-05
2.01646e-05
1.96003e-05
2.01615e-05
2.01642e-05
2.51242e-05
2.5969e-05
1.95992e-05
2.01628e-05
2.01628e-05
2.59707e-05
2.61997e-05
2.70457e-05
2.03583e-05
2.03585e-05
2.09625e-05
2.09624e-05
2.61998e-05
2.70452e-05
2.03566e-05
2.03594e-05
2.09609e-05
2.09637e-05
2.03594e-05
2.09601e-05
2.09638e-05
2.6201e-05
2.70467e-05
2.03579e-05
2.09618e-05
2.09621e-05
2.7049e-05
2.72799e-05
2.81249e-05
2.11716e-05
2.11713e-05
2.18161e-05
2.18164e-05
2.72795e-05
2.8125e-05
2.11697e-05
2.11726e-05
2.18142e-05
2.18173e-05
2.1172e-05
2.18141e-05
2.18173e-05
2.7281e-05
2.8126e-05
2.11702e-05
2.18152e-05
2.18153e-05
2.81271e-05
2.83593e-05
2.91906e-05
2.20349e-05
2.20352e-05
2.271e-05
2.2709e-05
2.83597e-05
2.91899e-05
2.20326e-05
2.20357e-05
2.27079e-05
2.27113e-05
2.20371e-05
2.27067e-05
2.2711e-05
2.83605e-05
2.91918e-05
2.2035e-05
2.27093e-05
2.27086e-05
2.91941e-05
2.94256e-05
3.02538e-05
2.29427e-05
2.29413e-05
2.3649e-05
2.36497e-05
2.94251e-05
3.02539e-05
2.29403e-05
2.29438e-05
2.36466e-05
2.36503e-05
2.29424e-05
2.36474e-05
2.36504e-05
2.9427e-05
3.02549e-05
2.29401e-05
2.36483e-05
2.36478e-05
3.02564e-05
3.04839e-05
3.12862e-05
2.38865e-05
2.38871e-05
2.46114e-05
2.46096e-05
3.04851e-05
3.12843e-05
2.38838e-05
2.38874e-05
2.46088e-05
2.46122e-05
2.38887e-05
2.46075e-05
2.46135e-05
3.0485e-05
3.12872e-05
2.38861e-05
2.46104e-05
2.46106e-05
3.12904e-05
3.15157e-05
3.2311e-05
2.48581e-05
2.48562e-05
2.56076e-05
2.56069e-05
3.15134e-05
3.23109e-05
2.48552e-05
2.48587e-05
2.56049e-05
2.5609e-05
2.48596e-05
2.56048e-05
2.56083e-05
3.15166e-05
3.23126e-05
2.48567e-05
2.56072e-05
2.56052e-05
3.23128e-05
3.25368e-05
3.3309e-05
2.58596e-05
2.58588e-05
2.66199e-05
2.66189e-05
3.25371e-05
3.33084e-05
2.58566e-05
2.58607e-05
2.66169e-05
2.66205e-05
2.58601e-05
2.66171e-05
2.66215e-05
3.25383e-05
3.33098e-05
2.58569e-05
2.66189e-05
2.66181e-05
3.33124e-05
3.35298e-05
3.42852e-05
2.68752e-05
2.6874e-05
2.76447e-05
2.76429e-05
3.35293e-05
3.4284e-05
2.6872e-05
2.68757e-05
2.76417e-05
2.76456e-05
2.68773e-05
2.76412e-05
2.76468e-05
3.35306e-05
3.42865e-05
2.6874e-05
2.76442e-05
2.76434e-05
3.42882e-05
3.45018e-05
3.5239e-05
2.79027e-05
2.79008e-05
2.86796e-05
2.8678e-05
3.45009e-05
3.5238e-05
2.78995e-05
2.79035e-05
2.86765e-05
2.86805e-05
2.79038e-05
2.86766e-05
2.86802e-05
3.45031e-05
3.524e-05
2.79004e-05
2.86792e-05
2.86765e-05
3.524e-05
3.54505e-05
3.61634e-05
2.89384e-05
2.89366e-05
2.97118e-05
2.97097e-05
3.54499e-05
3.61623e-05
2.89351e-05
2.89391e-05
2.97086e-05
2.97124e-05
2.89399e-05
2.97083e-05
2.97139e-05
3.54516e-05
3.61646e-05
2.89363e-05
2.97115e-05
2.97104e-05
3.61669e-05
3.63692e-05
3.70671e-05
2.99698e-05
2.99677e-05
3.07463e-05
3.07445e-05
3.6368e-05
3.70668e-05
2.99663e-05
2.99704e-05
3.07428e-05
3.07472e-05
2.9971e-05
3.07439e-05
3.07481e-05
3.63702e-05
3.70685e-05
2.99675e-05
3.07465e-05
3.07442e-05
3.70691e-05
3.72686e-05
3.79436e-05
3.10047e-05
3.10026e-05
3.1772e-05
3.17692e-05
3.72681e-05
3.79419e-05
3.10012e-05
3.10053e-05
3.17686e-05
3.17723e-05
3.1007e-05
3.17684e-05
3.17738e-05
3.72697e-05
3.79444e-05
3.10032e-05
3.17717e-05
3.17702e-05
3.79461e-05
3.81381e-05
3.87966e-05
3.20259e-05
3.20231e-05
3.27877e-05
3.2785e-05
3.81366e-05
3.87957e-05
3.20222e-05
3.20261e-05
3.27841e-05
3.27885e-05
3.20266e-05
3.27847e-05
3.27879e-05
3.81389e-05
3.87984e-05
3.2023e-05
3.27883e-05
3.27841e-05
3.87972e-05
3.89877e-05
3.96288e-05
3.30413e-05
3.30387e-05
3.37935e-05
3.37906e-05
3.89869e-05
3.9628e-05
3.30377e-05
3.30417e-05
3.37898e-05
3.37936e-05
3.30423e-05
3.37908e-05
3.37956e-05
3.89893e-05
3.96299e-05
3.30384e-05
3.37935e-05
3.37917e-05
3.96316e-05
3.98121e-05
4.04246e-05
3.404e-05
3.40369e-05
3.47697e-05
3.47663e-05
3.98111e-05
4.04234e-05
3.4036e-05
3.40396e-05
3.47662e-05
3.47703e-05
3.40416e-05
3.47663e-05
3.47705e-05
3.98129e-05
4.04263e-05
3.40378e-05
3.47704e-05
3.47671e-05
4.04261e-05
4.06025e-05
4.12044e-05
3.50112e-05
3.50081e-05
3.57327e-05
3.57296e-05
4.06015e-05
4.12036e-05
3.50076e-05
3.50115e-05
3.57291e-05
3.57328e-05
3.50123e-05
3.57304e-05
3.57342e-05
4.06041e-05
4.12057e-05
3.50086e-05
3.57333e-05
3.57303e-05
4.12064e-05
4.13779e-05
4.19588e-05
3.59706e-05
3.5967e-05
3.66726e-05
3.66684e-05
4.13769e-05
4.19569e-05
3.59667e-05
3.59703e-05
3.66685e-05
3.66722e-05
3.5972e-05
3.66693e-05
3.66735e-05
4.13791e-05
4.196e-05
3.59681e-05
3.66731e-05
3.66699e-05
4.19602e-05
4.2126e-05
4.26883e-05
3.69037e-05
3.68995e-05
3.75894e-05
3.75851e-05
4.2124e-05
4.26869e-05
3.68997e-05
3.69033e-05
3.75856e-05
3.75885e-05
3.69041e-05
3.7586e-05
3.75893e-05
4.2127e-05
4.26894e-05
3.69006e-05
3.7589e-05
3.75855e-05
4.26889e-05
4.28497e-05
4.33877e-05
3.78128e-05
3.78091e-05
3.84721e-05
3.8469e-05
4.28486e-05
4.33876e-05
3.7809e-05
3.78126e-05
3.84681e-05
3.84727e-05
3.78138e-05
3.84708e-05
3.84734e-05
4.28509e-05
4.33903e-05
3.78099e-05
3.84738e-05
3.84698e-05
4.33901e-05
4.3544e-05
4.40723e-05
3.86906e-05
3.8687e-05
3.93386e-05
3.9333e-05
4.35436e-05
4.40694e-05
3.86863e-05
3.869e-05
3.9335e-05
3.9337e-05
3.86912e-05
3.93347e-05
3.93392e-05
4.35461e-05
4.40723e-05
3.86874e-05
3.93383e-05
3.93357e-05
4.40731e-05
4.42233e-05
4.4722e-05
3.95496e-05
3.95444e-05
4.01648e-05
4.01606e-05
4.42205e-05
4.47214e-05
3.95456e-05
3.9548e-05
4.01616e-05
4.01659e-05
3.95508e-05
4.01629e-05
4.01653e-05
4.42234e-05
4.4725e-05
3.95469e-05
4.01674e-05
4.01624e-05
4.47235e-05
4.48671e-05
4.53612e-05
4.03689e-05
4.03653e-05
4.09787e-05
4.09741e-05
4.48669e-05
4.53599e-05
4.03652e-05
4.03695e-05
4.09746e-05
4.09774e-05
4.03692e-05
4.09763e-05
4.09777e-05
4.48701e-05
4.53616e-05
4.03662e-05
4.09787e-05
4.0974e-05
4.53614e-05
4.55022e-05
4.59588e-05
4.11762e-05
4.11704e-05
4.17448e-05
4.1739e-05
4.55002e-05
4.59562e-05
4.11721e-05
4.11738e-05
4.17411e-05
4.17437e-05
4.11756e-05
4.17417e-05
4.1748e-05
4.55019e-05
4.59601e-05
4.11718e-05
4.17458e-05
4.17445e-05
4.59624e-05
4.60912e-05
4.65419e-05
4.19308e-05
4.19257e-05
4.24894e-05
4.24875e-05
4.60892e-05
4.65432e-05
4.19279e-05
4.19319e-05
4.24849e-05
4.24901e-05
4.1933e-05
4.249e-05
4.24889e-05
4.60935e-05
4.65456e-05
4.19307e-05
4.24922e-05
4.24852e-05
4.65418e-05
4.66737e-05
4.71125e-05
4.26734e-05
4.2671e-05
4.32165e-05
4.32069e-05
4.66749e-05
4.71063e-05
4.26687e-05
4.26728e-05
4.32125e-05
4.32108e-05
4.26729e-05
4.32101e-05
4.32132e-05
4.66763e-05
4.7109e-05
4.26692e-05
4.32125e-05
4.32093e-05
4.71097e-05
4.72383e-05
4.76483e-05
4.33927e-05
4.33823e-05
4.39026e-05
4.39013e-05
4.72312e-05
4.7651e-05
4.33887e-05
4.33865e-05
4.38995e-05
4.39068e-05
4.33878e-05
4.39046e-05
4.39057e-05
4.72344e-05
4.76549e-05
4.33839e-05
4.39093e-05
4.3903e-05
4.76524e-05
4.77673e-05
4.81638e-05
4.40701e-05
4.40721e-05
4.45651e-05
4.45581e-05
4.77726e-05
4.81607e-05
4.40659e-05
4.40749e-05
4.45629e-05
4.45638e-05
4.40784e-05
4.45617e-05
4.45677e-05
4.77756e-05
4.81632e-05
4.4075e-05
4.45665e-05
4.45654e-05
4.8168e-05
4.8279e-05
4.86421e-05
4.47249e-05
4.47121e-05
4.51812e-05
4.51799e-05
4.82716e-05
4.86432e-05
4.47231e-05
4.47192e-05
4.51752e-05
4.51783e-05
4.4721e-05
4.51826e-05
4.51825e-05
4.82748e-05
4.86428e-05
4.47189e-05
4.51802e-05
4.51775e-05
4.86421e-05
4.87493e-05
4.91321e-05
4.53287e-05
4.53339e-05
4.57979e-05
4.57914e-05
4.87562e-05
4.91291e-05
4.53231e-05
4.53345e-05
4.57944e-05
4.57975e-05
4.53344e-05
4.57929e-05
4.57869e-05
4.87554e-05
4.91362e-05
4.53312e-05
4.57992e-05
4.57851e-05
4.91234e-05
4.92479e-05
4.96007e-05
4.59592e-05
4.59448e-05
4.63907e-05
4.63733e-05
4.92376e-05
4.95853e-05
4.59553e-05
4.59491e-05
4.63902e-05
4.63832e-05
4.59421e-05
4.63796e-05
4.63898e-05
4.92446e-05
4.95894e-05
4.59387e-05
4.63875e-05
4.63876e-05
4.95978e-05
4.9694e-05
4.99846e-05
4.65215e-05
4.65119e-05
4.69153e-05
4.69189e-05
4.96848e-05
4.99977e-05
4.65197e-05
4.65176e-05
4.69103e-05
4.69173e-05
4.6531e-05
4.69241e-05
4.69279e-05
4.96878e-05
4.99947e-05
4.65271e-05
4.69196e-05
4.69222e-05
5.00015e-05
5.00764e-05
5.03696e-05
4.70357e-05
4.70362e-05
4.73847e-05
4.73994e-05
5.00883e-05
5.03876e-05
4.70328e-05
4.70417e-05
4.73792e-05
4.73996e-05
4.70414e-05
4.73992e-05
4.73927e-05
5.0087e-05
5.03939e-05
4.70394e-05
4.74022e-05
4.73913e-05
5.03829e-05
5.04719e-05
5.08869e-05
4.7529e-05
4.75501e-05
4.80078e-05
4.79879e-05
5.04941e-05
5.08634e-05
4.75232e-05
4.75483e-05
4.80083e-05
4.80028e-05
4.75427e-05
4.79946e-05
4.80053e-05
5.04988e-05
5.08689e-05
4.75409e-05
4.80115e-05
4.80085e-05
5.08721e-05
5.0987e-05
5.11956e-05
4.81405e-05
4.80981e-05
4.84515e-05
4.83933e-05
5.09436e-05
5.11363e-05
4.81369e-05
4.81023e-05
4.84411e-05
4.83803e-05
4.81196e-05
4.8389e-05
4.83697e-05
5.09464e-05
5.11314e-05
4.81181e-05
4.83715e-05
4.83557e-05
5.11198e-05
5.12535e-05
5.13685e-05
4.85365e-05
4.84935e-05
4.86971e-05
4.87454e-05
5.12076e-05
5.14317e-05
4.85348e-05
4.85094e-05
4.87099e-05
4.8797e-05
4.84617e-05
4.87621e-05
4.8789e-05
5.12115e-05
5.14715e-05
4.84537e-05
4.88055e-05
4.87941e-05
5.14674e-05
5.14234e-05
5.18434e-05
4.87594e-05
4.88325e-05
4.92188e-05
4.92335e-05
5.15055e-05
5.18579e-05
4.87634e-05
4.88449e-05
4.92033e-05
4.91681e-05
4.88968e-05
4.92345e-05
4.92317e-05
5.15278e-05
5.17695e-05
4.88964e-05
4.91788e-05
4.92288e-05
5.18464e-05
5.19942e-05
5.23091e-05
4.9424e-05
4.93998e-05
4.98444e-05
4.97958e-05
5.19741e-05
5.22537e-05
4.941e-05
4.93432e-05
4.9834e-05
4.97849e-05
4.93619e-05
4.97866e-05
4.97627e-05
5.18938e-05
5.22946e-05
4.93611e-05
4.97787e-05
4.9757e-05
5.22376e-05
5.23398e-05
5.22391e-05
4.98889e-05
4.9856e-05
4.98907e-05
4.98794e-05
5.22961e-05
5.22435e-05
4.98819e-05
4.98916e-05
4.98991e-05
5.00736e-05
4.98565e-05
4.99007e-05
4.99386e-05
5.23639e-05
5.24652e-05
4.98554e-05
5.00966e-05
4.99569e-05
5.23072e-05
5.22542e-05
5.27138e-05
4.98896e-05
4.98779e-05
5.02248e-05
5.0167e-05
5.22558e-05
5.26366e-05
4.99014e-05
5.00841e-05
5.02371e-05
5.01178e-05
4.99378e-05
5.01384e-05
5.0104e-05
5.24864e-05
5.2473e-05
4.9957e-05
5.01124e-05
5.00847e-05
5.2564e-05
5.2939e-05
5.37571e-05
5.05659e-05
5.05053e-05
5.13522e-05
5.13528e-05
5.28685e-05
5.37677e-05
5.05414e-05
5.02045e-05
5.13148e-05
5.09942e-05
5.04282e-05
5.13572e-05
5.13582e-05
5.2544e-05
5.33119e-05
5.03684e-05
5.09854e-05
5.13228e-05
5.37766e-05
5.38377e-05
5.31222e-05
5.1442e-05
5.14677e-05
5.12969e-05
5.14166e-05
5.3866e-05
5.33949e-05
5.14114e-05
5.11958e-05
5.13034e-05
5.13746e-05
5.15019e-05
5.14503e-05
5.14949e-05
5.34627e-05
5.36055e-05
5.14832e-05
5.14165e-05
5.15119e-05
5.35426e-05
5.28928e-05
5.15938e-05
5.08754e-05
5.11274e-05
4.97895e-05
4.98755e-05
5.32086e-05
5.17158e-05
5.09407e-05
5.13608e-05
4.98627e-05
5.07339e-05
5.12495e-05
4.98844e-05
4.97361e-05
5.36013e-05
5.28267e-05
5.13221e-05
5.07598e-05
4.98142e-05
5.14303e-05
5.15858e-05
5.26528e-05
4.96871e-05
4.96697e-05
5.00199e-05
4.9578e-05
5.16578e-05
5.17477e-05
4.97406e-05
5.04146e-05
4.99445e-05
4.98056e-05
4.94623e-05
4.94631e-05
4.93588e-05
5.27278e-05
5.17947e-05
4.95099e-05
4.97108e-05
4.93464e-05
5.16044e-05
5.31364e-05
5.4753e-05
5.07188e-05
4.97351e-05
5.22403e-05
5.13782e-05
5.1939e-05
5.36736e-05
5.05535e-05
4.97588e-05
5.21562e-05
5.01082e-05
4.96572e-05
5.14524e-05
5.2452e-05
5.17799e-05
5.22493e-05
4.9581e-05
5.0082e-05
5.23176e-05
5.52012e-05
5.49465e-05
5.58886e-05
5.25739e-05
5.23107e-05
5.39442e-05
5.56759e-05
5.43261e-05
5.86174e-05
5.24473e-05
5.06807e-05
5.36695e-05
5.38564e-05
5.33237e-05
5.59028e-05
5.53852e-05
5.25938e-05
5.63909e-05
5.31656e-05
5.41303e-05
5.51744e-05
5.77358e-05
5.62012e-05
5.73112e-05
5.4493e-05
5.65403e-05
5.54889e-05
5.73622e-05
5.92165e-05
6.00787e-05
5.42543e-05
5.51611e-05
5.55445e-05
5.77077e-05
5.57777e-05
5.7445e-05
5.59708e-05
5.72623e-05
6.05663e-05
5.55914e-05
5.76777e-05
5.59091e-05
5.73891e-05
5.73574e-05
5.54545e-05
5.55232e-05
5.71392e-05
5.4101e-05
5.13659e-05
5.94217e-05
5.1184e-05
5.56607e-05
5.78949e-05
5.49467e-05
5.61193e-05
5.56098e-05
5.09768e-05
5.12637e-05
6.06747e-05
5.60646e-05
5.57158e-05
5.55375e-05
5.18922e-05
5.22761e-05
5.48271e-05
5.0753e-05
5.26229e-05
4.9469e-05
4.89728e-05
4.71976e-05
5.02089e-05
4.82268e-05
5.34441e-05
5.3431e-05
4.91003e-05
4.76392e-05
5.01052e-05
4.72544e-05
4.88082e-05
5.46705e-05
4.85059e-05
5.05907e-05
4.76246e-05
4.87958e-05
5.06594e-05
5.0375e-05
4.93058e-05
4.82722e-05
4.7202e-05
4.76906e-05
4.98018e-05
4.86156e-05
5.31547e-05
4.82229e-05
4.68716e-05
4.73337e-05
4.67818e-05
4.88306e-05
5.03407e-05
5.04532e-05
4.82364e-05
4.97282e-05
4.87605e-05
4.71811e-05
4.9977e-05
5.29558e-05
4.93835e-05
5.03803e-05
4.78013e-05
5.06959e-05
4.86411e-05
5.11926e-05
5.35903e-05
5.31842e-05
4.73708e-05
4.76462e-05
4.84301e-05
4.94757e-05
5.07579e-05
5.13343e-05
5.05162e-05
5.04105e-05
5.16257e-05
5.03929e-05
4.97064e-05
5.03214e-05
5.18159e-05
5.05505e-05
5.44742e-05
4.88087e-05
5.09843e-05
5.15645e-05
5.0589e-05
5.28674e-05
5.19506e-05
4.87033e-05
4.95101e-05
5.1634e-05
4.98597e-05
4.99769e-05
5.04629e-05
4.9498e-05
5.15327e-05
5.16515e-05
4.98586e-05
4.97084e-05
4.93828e-05
5.08217e-05
5.5767e-05
6.23129e-05
5.35115e-05
5.0912e-05
5.90357e-05
5.67874e-05
5.23987e-05
5.96074e-05
5.35288e-05
5.09624e-05
5.91635e-05
5.79592e-05
4.98678e-05
5.65055e-05
5.67687e-05
5.25921e-05
6.07176e-05
4.9739e-05
5.75452e-05
5.68373e-05
6.00442e-05
6.28536e-05
6.16383e-05
6.00079e-05
5.82582e-05
6.03381e-05
5.94554e-05
6.0429e-05
6.13851e-05
6.02332e-05
5.97598e-05
6.07413e-05
6.18572e-05
5.85891e-05
5.94577e-05
6.02456e-05
6.18229e-05
6.44511e-05
5.8798e-05
6.18873e-05
6.07161e-05
6.27425e-05
6.05334e-05
5.30597e-05
5.94916e-05
5.92249e-05
5.30067e-05
5.47171e-05
6.07716e-05
5.54281e-05
6.00443e-05
6.17761e-05
5.30899e-05
5.58685e-05
6.00504e-05
5.48855e-05
5.43107e-05
6.432e-05
5.60754e-05
6.0554e-05
5.6135e-05
5.45018e-05
5.42325e-05
5.24197e-05
5.07848e-05
5.1587e-05
5.34906e-05
4.94101e-05
5.06081e-05
5.49437e-05
5.23283e-05
5.13682e-05
5.30166e-05
4.88293e-05
4.76613e-05
5.24065e-05
5.06846e-05
4.97775e-05
5.46e-05
4.85741e-05
5.2297e-05
4.78607e-05
4.93269e-05
5.09974e-05
5.07655e-05
5.0958e-05
4.90742e-05
4.97015e-05
4.87494e-05
4.79711e-05
5.18704e-05
4.93912e-05
4.85618e-05
4.696e-05
4.85322e-05
4.67475e-05
4.96259e-05
4.82529e-05
5.01122e-05
4.82671e-05
4.89525e-05
4.92036e-05
4.70809e-05
5.01245e-05
5.29442e-05
5.12161e-05
5.3413e-05
4.88254e-05
4.78421e-05
5.09933e-05
4.91549e-05
4.93187e-05
5.1757e-05
4.89407e-05
4.74403e-05
5.12907e-05
5.15708e-05
5.06537e-05
4.92447e-05
5.15917e-05
4.97385e-05
5.39929e-05
5.08171e-05
5.15705e-05
5.18885e-05
5.39424e-05
5.39117e-05
5.60931e-05
5.18975e-05
5.09058e-05
5.41913e-05
5.50535e-05
5.27251e-05
5.74588e-05
5.20868e-05
5.2695e-05
5.41525e-05
5.50815e-05
5.17512e-05
5.47248e-05
5.23234e-05
5.46734e-05
5.72472e-05
5.20114e-05
5.47347e-05
5.22814e-05
5.38267e-05
5.64428e-05
5.73847e-05
5.47484e-05
5.59153e-05
5.55532e-05
5.6832e-05
5.8019e-05
5.91378e-05
5.46736e-05
5.55318e-05
5.54631e-05
5.59464e-05
5.27132e-05
5.6612e-05
5.40942e-05
5.75171e-05
5.77952e-05
5.25828e-05
5.56362e-05
5.3904e-05
5.565e-05
5.74211e-05
5.59675e-05
5.55829e-05
5.67878e-05
5.46014e-05
5.41247e-05
5.90258e-05
5.50661e-05
5.55008e-05
5.58942e-05
5.46633e-05
5.41743e-05
5.44539e-05
5.42667e-05
5.48328e-05
5.76419e-05
5.54659e-05
5.42956e-05
5.43371e-05
5.48093e-05
5.68225e-05
5.56296e-05
5.3305e-05
5.38094e-05
5.29527e-05
5.17361e-05
5.06589e-05
5.44636e-05
5.19539e-05
5.39099e-05
5.34771e-05
5.18359e-05
5.15558e-05
5.47991e-05
5.07974e-05
5.30783e-05
5.51526e-05
5.30987e-05
5.48055e-05
5.17903e-05
5.33422e-05
5.47965e-05
5.30871e-05
5.22613e-05
5.12672e-05
5.03563e-05
5.05895e-05
5.02214e-05
5.18651e-05
5.21902e-05
5.13346e-05
5.10977e-05
5.05456e-05
5.03581e-05
5.23262e-05
5.02525e-05
5.07902e-05
5.29164e-05
5.21088e-05
5.2525e-05
5.04292e-05
5.08224e-05
5.2417e-05
5.22761e-05
5.34643e-05
5.05785e-05
5.04388e-05
5.13658e-05
5.18847e-05
5.2475e-05
5.4038e-05
5.05175e-05
5.03269e-05
5.11794e-05
5.09569e-05
5.06069e-05
5.17742e-05
5.063e-05
5.21139e-05
5.31324e-05
5.06019e-05
5.07781e-05
5.05559e-05
5.25822e-05
5.38163e-05
5.50851e-05
5.19046e-05
5.22778e-05
5.30839e-05
5.31223e-05
5.42779e-05
5.50291e-05
5.17955e-05
5.16089e-05
5.31026e-05
5.31198e-05
5.09863e-05
5.30782e-05
5.26507e-05
5.35187e-05
5.51172e-05
5.08418e-05
5.30369e-05
5.26268e-05
5.46575e-05
5.50787e-05
5.23537e-05
5.23434e-05
5.5006e-05
5.23814e-05
5.24476e-05
4.2545e-05
4.25541e-05
4.21465e-05
5.20595e-05
5.5133e-05
5.20568e-05
3.73773e-05
3.73765e-05
3.7377e-05
3.7377e-05
3.73701e-05
3.73777e-05
3.73043e-05
3.73768e-05
3.73701e-05
3.73777e-05
3.73768e-05
3.73043e-05
3.73741e-05
3.72959e-05
3.72959e-05
3.58805e-05
4.08712e-05
3.66032e-05
4.51454e-05
5.51149e-05
6.48951e-05
3.58803e-05
4.08723e-05
3.66033e-05
4.51456e-05
3.58932e-05
3.58932e-05
3.58932e-05
3.44005e-05
3.44005e-05
3.44005e-05
3.44005e-05
3.52758e-05
3.56379e-05
3.58929e-05
3.53771e-05
3.60475e-05
3.42378e-05
3.53822e-05
5.51167e-05
6.48973e-05
3.52759e-05
3.58929e-05
3.56377e-05
3.53771e-05
3.60475e-05
3.53822e-05
3.42375e-05
3.65966e-05
3.65974e-05
3.5279e-05
3.40646e-05
3.40635e-05
3.39676e-05
5.13523e-05
3.46791e-05
5.46243e-05
7.65453e-05
8.08615e-05
3.39674e-05
5.13534e-05
3.46792e-05
5.46252e-05
3.39296e-05
3.39296e-05
3.39297e-05
3.25854e-05