/*--------------------------------*- C++ -*----------------------------------*\
| =========                 |                                                 |
| \\      /  F ield         | OpenFOAM: The Open Source CFD Toolbox           |
|  \\    /   O peration     | Version:  v2012                                 |
|   \\  /    A nd           | Website:  www.openfoam.com                      |
|    \\/     M anipulation  |                                                 |
\*---------------------------------------------------------------------------*/
FoamFile
{
    version     2.0;
    format      ascii;
    class       volScalarField;
    location    "750";
    object      nut;
}
// * * * * * * * * * * * * * * * * * * * * * * * * * * * * * * * * * * * * * //

dimensions      [0 2 -1 0 0 0 0];


internalField   nonuniform List<scalar> 
171728
(
1.80081e-06
1.76155e-06
2.60473e-06
2.27091e-06
1.77712e-06
1.74152e-06
3.21032e-06
2.23727e-06
1.77423e-06
1.72898e-06
5.30847e-06
2.20179e-06
1.79244e-06
1.70828e-06
8.15385e-06
2.17068e-06
1.85064e-06
1.67251e-06
5.21614e-06
2.14988e-06
1.91129e-06
1.62424e-06
2.35596e-06
2.1244e-06
1.81888e-06
1.58544e-06
1.46906e-06
2.09143e-06
1.72354e-06
1.54539e-06
1.30083e-06
2.04586e-06
1.70198e-06
1.4971e-06
1.27607e-06
1.99531e-06
1.69938e-06
1.4327e-06
1.27395e-06
1.93323e-06
1.69045e-06
1.35934e-06
1.28069e-06
1.8576e-06
1.75293e-06
1.2774e-06
1.27864e-06
1.76558e-06
1.86615e-06
1.19507e-06
1.25759e-06
1.65849e-06
2.05402e-06
1.12932e-06
1.20608e-06
1.54602e-06
2.43422e-06
1.08239e-06
1.13207e-06
1.42695e-06
2.83442e-06
1.05812e-06
1.06548e-06
1.3149e-06
2.93304e-06
1.08647e-06
1.01029e-06
1.21147e-06
2.38053e-06
1.16122e-06
9.95583e-07
1.14752e-06
2.07546e-06
1.26013e-06
1.02773e-06
1.20357e-06
1.94043e-06
1.2998e-06
1.14398e-06
1.18743e-06
1.87491e-06
1.43719e-06
1.34695e-06
1.76172e-06
1.81538e-06
1.6161e-06
1.62608e-06
2.39693e-06
1.74453e-06
2.11239e-06
2.20365e-06
3.45343e-06
1.66176e-06
2.95314e-06
2.91282e-06
5.51804e-06
1.57185e-06
3.8663e-06
4.09935e-06
8.49239e-06
1.48572e-06
5.07674e-06
5.46614e-06
1.2414e-05
1.39228e-06
6.96467e-06
7.1444e-06
1.73367e-05
1.33209e-06
8.90102e-06
9.34159e-06
2.43104e-05
1.31899e-06
1.1625e-05
1.21503e-05
3.06305e-05
1.32075e-06
1.42924e-05
1.36552e-05
3.8169e-05
1.46201e-06
1.82792e-05
2.06732e-05
4.47344e-05
1.6086e-06
2.14518e-05
2.09224e-05
5.22211e-05
1.8454e-06
2.64171e-05
2.68229e-05
5.99304e-05
2.35569e-06
3.06484e-05
3.14e-05
6.18107e-05
2.81241e-06
3.58193e-05
3.6212e-05
7.20578e-05
3.68318e-06
4.12235e-05
4.02875e-05
7.46051e-05
4.68597e-06
4.68492e-05
4.83303e-05
7.85117e-05
5.68091e-06
5.29268e-05
5.05138e-05
8.30222e-05
7.96346e-06
5.78797e-05
6.10286e-05
8.96373e-05
9.37048e-06
6.51941e-05
6.36765e-05
9.09509e-05
9.72651e-06
6.92431e-05
7.03222e-05
9.34322e-05
1.64248e-05
7.83922e-05
7.72278e-05
0.000101543
1.60013e-05
8.22555e-05
8.30496e-05
0.000104163
2.31406e-05
8.82917e-05
8.8375e-05
0.000106166
2.2496e-05
9.46948e-05
9.77492e-05
0.000108591
2.8457e-05
0.000101458
9.48421e-05
0.0001179
3.54016e-05
0.000103801
0.000110302
0.000120487
4.30609e-05
0.000115157
0.000113204
0.000116751
4.35429e-05
0.000113225
0.000112038
0.00012631
4.76609e-05
0.000119928
0.000123812
0.000133223
6.29129e-05
0.000131053
0.000122996
0.000130951
6.42663e-05
0.000129162
0.000133023
0.00013348
6.86067e-05
0.000132539
0.000133677
0.00014072
7.963e-05
0.000140962
0.000137528
0.000141065
8.67412e-05
0.000143374
0.000148049
0.000145671
9.48809e-05
0.000148913
0.000147531
0.000146666
9.60253e-05
0.000150346
0.000147037
0.000148188
0.000105164
0.000152577
0.000157141
0.00015678
0.000119404
0.000165105
0.000163889
0.000156886
0.000120038
0.000164058
0.000162103
0.000152197
0.000121587
0.000160575
0.000162376
0.00016145
0.00013566
0.000175366
0.000174571
0.000168958
0.000141193
0.000177677
0.000175945
0.000165499
0.000144828
0.000172527
0.000173783
0.000165375
0.000148612
0.000175978
0.000179434
0.000168939
0.000154915
0.000188499
0.000186833
0.000171473
0.00016607
0.000192254
0.000188083
0.000179288
0.000173692
0.000187816
0.000186043
0.00017769
0.000169697
0.000185245
0.000190552
0.000172039
0.000171967
0.000193671
0.000198606
0.000181061
0.000188979
0.000203206
0.000201477
0.00019134
0.000196894
0.000207105
0.000201274
0.000184793
0.00019687
0.000196961
0.000195347
0.000171635
0.000190129
0.00019383
0.000197752
0.000185433
0.000197024
0.000216648
0.000217864
0.000206865
0.000218704
0.000215821
0.000220177
0.000193892
0.000217603
0.00020029
0.000200322
0.000171775
0.000207356
0.00020986
0.000197623
0.000184399
0.000215146
0.00023035
0.000225689
0.000210532
0.000233434
0.000222233
0.000233176
0.00020676
0.000228073
0.000202147
0.000212607
0.0001857
0.000219282
0.000208871
0.000206987
0.000187501
0.000231357
0.000233808
0.000223628
0.000202521
0.000242964
0.000233823
0.000228023
0.000200928
0.000236238
0.000217831
0.000221968
0.000195163
0.00023397
0.000219553
0.000225245
0.000202972
0.00024208
0.000224116
0.000226341
0.000201662
0.000240176
0.000220663
0.00021705
0.000190266
0.000238495
0.000225963
0.000224606
0.000199531
0.000252142
0.00023435
0.00023662
0.000211013
0.000253183
0.000222626
0.000225575
0.000197951
0.000239483
0.000215354
0.000215304
0.000187995
0.00024368
0.000235032
0.000229301
0.000205159
0.000263592
0.000245789
0.000242894
0.00021763
0.000263426
0.000223028
0.00023086
0.000202126
2.25315e-06
1.94466e-06
2.1597e-06
2.26122e-06
2.13427e-06
2.28282e-06
1.81917e-06
1.95398e-06
2.03731e-06
1.92651e-06
2.15979e-06
2.4066e-06
2.18773e-06
2.98092e-06
2.44378e-06
2.27362e-06
2.24658e-06
2.17189e-06
1.74183e-06
1.76288e-06
1.82584e-06
1.74663e-06
2.2599e-06
2.21806e-06
1.83381e-06
1.8992e-06
1.76476e-06
1.90194e-06
2.15073e-06
1.74401e-06
2.13516e-06
2.18352e-06
2.18048e-06
2.19856e-06
2.9523e-06
2.30181e-06
2.25257e-06
2.1588e-06
2.10134e-06
1.86216e-06
1.74217e-06
2.0286e-06
1.73206e-06
2.21608e-06
2.16836e-06
1.74523e-06
1.90411e-06
1.69238e-06
1.90887e-06
2.13064e-06
1.73348e-06
2.11757e-06
2.18401e-06
2.37055e-06
2.32565e-06
4.62092e-06
2.34976e-06
2.219e-06
2.09851e-06
2.11009e-06
2.08706e-06
1.72809e-06
2.38442e-06
1.71567e-06
2.16648e-06
2.12776e-06
1.67565e-06
1.91059e-06
1.62914e-06
1.91251e-06
2.11347e-06
1.71451e-06
2.10146e-06
2.37029e-06
2.58431e-06
2.34667e-06
7.64583e-06
2.32005e-06
2.18291e-06
2.12811e-06
2.40419e-06
2.55807e-06
1.70914e-06
3.65075e-06
1.69118e-06
2.12543e-06
2.0817e-06
1.61053e-06
1.9124e-06
1.53473e-06
1.90551e-06
2.09712e-06
1.68417e-06
2.08253e-06
2.57465e-06
2.44967e-06
2.30388e-06
6.21042e-06
2.25709e-06
2.156e-06
2.46422e-06
2.70588e-06
4.29433e-06
1.68458e-06
6.72763e-06
1.65857e-06
2.07776e-06
2.02481e-06
1.50528e-06
1.90018e-06
1.42167e-06
1.88159e-06
2.07704e-06
1.63636e-06
2.05877e-06
2.38104e-06
2.13512e-06
2.24024e-06
2.83051e-06
2.15695e-06
2.12842e-06
2.69739e-06
2.65098e-06
7.53739e-06
1.65016e-06
7.40137e-06
1.6246e-06
2.02026e-06
1.97617e-06
1.39712e-06
1.87215e-06
1.32899e-06
1.84023e-06
2.05183e-06
1.59474e-06
2.02396e-06
2.1095e-06
2.01105e-06
2.11639e-06
1.58568e-06
2.00311e-06
2.09611e-06
2.473e-06
1.95037e-06
6.35977e-06
1.61409e-06
3.55655e-06
1.57662e-06
1.97183e-06
1.93509e-06
1.30953e-06
1.82726e-06
1.26518e-06
1.77736e-06
2.01338e-06
1.55576e-06
1.97512e-06
2.01317e-06
1.98816e-06
1.97365e-06
1.31777e-06
1.9103e-06
2.05155e-06
1.91894e-06
1.71483e-06
2.93654e-06
1.56131e-06
1.86746e-06
1.51392e-06
1.93088e-06
1.89018e-06
1.25251e-06
1.75794e-06
1.22036e-06
1.69496e-06
1.96001e-06
1.51e-06
1.90995e-06
1.98545e-06
1.93952e-06
1.89523e-06
1.2799e-06
1.85447e-06
2.00236e-06
1.70048e-06
1.57676e-06
1.67973e-06
1.49867e-06
1.38721e-06
1.4531e-06
1.88557e-06
1.83424e-06
1.21043e-06
1.67474e-06
1.1785e-06
1.62371e-06
1.89161e-06
1.44808e-06
1.83473e-06
1.93646e-06
1.88782e-06
1.8394e-06
1.27365e-06
1.79386e-06
1.94238e-06
1.56618e-06
1.47111e-06
1.34475e-06
1.43875e-06
1.26979e-06
1.39204e-06
1.82897e-06
1.75267e-06
1.16915e-06
1.60762e-06
1.16397e-06
1.5607e-06
1.81173e-06
1.37815e-06
1.74825e-06
1.88407e-06
1.83105e-06
1.77859e-06
1.27897e-06
1.72876e-06
1.86821e-06
1.46494e-06
1.45274e-06
1.25041e-06
1.3747e-06
1.20327e-06
1.3225e-06
1.74576e-06
1.65563e-06
1.15857e-06
1.54738e-06
1.21391e-06
1.49347e-06
1.72562e-06
1.29808e-06
1.65185e-06
1.82639e-06
1.76582e-06
1.70859e-06
1.28051e-06
1.64046e-06
1.77869e-06
1.45422e-06
1.51649e-06
1.1936e-06
1.3041e-06
1.17125e-06
1.23917e-06
1.64563e-06
1.54777e-06
1.27341e-06
1.47291e-06
1.43611e-06
1.41186e-06
1.62555e-06
1.21261e-06
1.54307e-06
1.75737e-06
1.6824e-06
1.61973e-06
1.2655e-06
1.55577e-06
1.67486e-06
1.53244e-06
1.65928e-06
1.16568e-06
1.21729e-06
1.15299e-06
1.14746e-06
1.53427e-06
1.44197e-06
1.46779e-06
1.3992e-06
1.75257e-06
1.36495e-06
1.51403e-06
1.14161e-06
1.42711e-06
1.66983e-06
1.59182e-06
1.53234e-06
1.222e-06
1.46079e-06
1.56595e-06
1.69078e-06
2.1117e-06
1.15103e-06
1.12424e-06
1.15747e-06
1.05594e-06
1.4249e-06
1.34283e-06
1.99745e-06
1.35919e-06
3.38517e-06
1.34104e-06
1.39761e-06
1.09312e-06
1.31233e-06
1.57514e-06
1.49581e-06
1.43555e-06
1.15117e-06
1.35143e-06
1.45219e-06
2.21908e-06
2.67492e-06
1.16067e-06
1.03419e-06
1.15131e-06
9.77889e-07
1.32249e-06
1.25543e-06
4.0141e-06
1.33306e-06
5.88352e-06
1.28831e-06
1.27992e-06
1.06178e-06
1.19249e-06
1.47517e-06
1.39126e-06
1.32432e-06
1.08104e-06
1.2496e-06
1.34078e-06
2.67282e-06
2.43409e-06
1.1406e-06
9.57688e-07
1.08648e-06
9.10036e-07
1.23604e-06
1.17828e-06
6.34133e-06
1.26939e-06
6.74452e-06
1.21096e-06
1.16728e-06
1.07036e-06
1.09742e-06
1.36735e-06
1.28732e-06
1.22967e-06
1.02222e-06
1.16383e-06
1.2366e-06
2.34801e-06
1.69924e-06
1.08394e-06
9.02013e-07
1.03649e-06
8.84792e-07
1.16549e-06
1.14521e-06
6.65305e-06
1.19291e-06
4.94412e-06
1.16798e-06
1.07936e-06
1.15253e-06
1.04093e-06
1.26613e-06
1.21186e-06
1.14538e-06
9.91581e-07
1.09313e-06
1.16582e-06
1.60436e-06
1.43638e-06
1.01418e-06
8.74295e-07
1.05831e-06
9.20977e-07
1.13258e-06
1.1616e-06
4.10484e-06
1.1736e-06
2.54714e-06
1.1943e-06
1.02232e-06
1.22978e-06
1.03788e-06
1.20222e-06
1.19647e-06
1.0682e-06
1.01401e-06
1.08374e-06
1.17712e-06
1.44401e-06
1.36484e-06
1.08168e-06
9.44491e-07
1.11562e-06
9.79108e-07
1.19652e-06
1.22505e-06
2.279e-06
1.2382e-06
1.71653e-06
1.30166e-06
1.05353e-06
1.28967e-06
1.05768e-06
1.19873e-06
1.32151e-06
1.10101e-06
1.10973e-06
1.10387e-06
1.17893e-06
1.36e-06
1.58774e-06
1.13975e-06
1.01e-06
1.28866e-06
1.16795e-06
1.2476e-06
1.54577e-06
1.6299e-06
1.33401e-06
1.48956e-06
1.46453e-06
1.07544e-06
1.38209e-06
1.2297e-06
1.3534e-06
1.56417e-06
1.12608e-06
1.25728e-06
1.30753e-06
1.62413e-06
1.68864e-06
2.15233e-06
1.35539e-06
1.23927e-06
1.57389e-06
1.45334e-06
1.63853e-06
2.14695e-06
1.496e-06
1.50074e-06
1.61404e-06
1.75004e-06
1.30709e-06
1.57312e-06
1.51155e-06
1.66744e-06
2.18314e-06
1.37657e-06
1.54831e-06
1.57517e-06
2.28383e-06
2.30979e-06
3.22596e-06
1.66572e-06
1.54226e-06
2.00551e-06
1.91715e-06
2.26963e-06
3.15497e-06
1.67726e-06
1.85514e-06
2.00183e-06
2.18669e-06
1.58895e-06
1.9482e-06
1.91093e-06
2.33327e-06
3.35854e-06
1.66428e-06
2.08229e-06
1.96278e-06
3.18074e-06
3.50341e-06
5.04158e-06
2.14814e-06
2.04503e-06
2.70157e-06
2.59307e-06
3.45437e-06
4.91689e-06
2.16112e-06
2.37418e-06
2.63594e-06
2.68644e-06
2.06962e-06
2.7287e-06
2.66232e-06
3.70373e-06
4.86303e-06
2.11944e-06
2.72266e-06
2.64605e-06
5.10583e-06
5.47113e-06
7.78674e-06
2.92056e-06
2.83446e-06
3.70045e-06
3.59898e-06
5.42424e-06
7.96706e-06
2.86082e-06
3.00784e-06
3.63801e-06
4.05414e-06
2.87018e-06
3.61878e-06
3.59211e-06
5.29799e-06
8.11553e-06
2.84412e-06
3.82085e-06
3.62856e-06
7.81398e-06
8.42967e-06
1.1452e-05
3.96839e-06
3.88082e-06
4.90044e-06
4.83622e-06
8.55553e-06
1.1447e-05
3.88929e-06
4.19654e-06
4.9097e-06
5.6019e-06
3.86858e-06
4.75343e-06
4.84546e-06
8.86072e-06
1.14426e-05
3.86481e-06
5.02012e-06
4.94303e-06
1.14768e-05
1.22538e-05
1.65894e-05
5.29517e-06
5.16411e-06
6.56576e-06
6.37503e-06
1.21689e-05
1.62922e-05
5.27796e-06
5.91047e-06
6.44029e-06
7.33502e-06
5.22953e-06
6.36805e-06
6.45164e-06
1.22052e-05
1.72628e-05
5.3249e-06
6.75039e-06
6.35349e-06
1.63551e-05
1.76555e-05
2.26372e-05
7.02677e-06
6.96067e-06
8.58292e-06
8.60874e-06
1.75146e-05
2.32245e-05
7.02832e-06
8.31041e-06
8.42986e-06
9.2744e-06
6.93971e-06
8.55046e-06
8.63029e-06
1.83038e-05
2.26762e-05
6.9027e-06
8.41481e-06
8.53073e-06
2.28239e-05
2.37877e-05
2.92063e-05
9.13394e-06
8.95476e-06
1.09346e-05
1.07964e-05
2.42859e-05
2.86609e-05
8.85579e-06
9.34433e-06
1.10747e-05
1.32741e-05
9.0179e-06
1.07304e-05
1.11992e-05
2.38254e-05
3.14801e-05
8.9372e-06
1.20437e-05
1.12332e-05
2.9228e-05
3.07247e-05
3.67757e-05
1.16899e-05
1.16809e-05
1.39135e-05
1.37393e-05
3.01653e-05
3.7133e-05
1.1844e-05
1.40013e-05
1.35845e-05
1.33692e-05
1.19759e-05
1.37165e-05
1.36018e-05
3.37943e-05
3.28773e-05
1.19642e-05
1.20865e-05
1.33201e-05
3.69872e-05
3.80371e-05
4.35883e-05
1.45687e-05
1.43681e-05
1.72974e-05
1.72329e-05
3.83798e-05
4.35753e-05
1.42704e-05
1.30687e-05
1.72971e-05
1.96177e-05
1.47347e-05
1.71447e-05
1.77289e-05
3.24027e-05
4.89197e-05
1.43532e-05
1.98799e-05
1.74703e-05
4.30907e-05
4.51272e-05
5.08999e-05
1.83431e-05
1.83109e-05
2.0906e-05
2.07397e-05
4.52084e-05
5.08356e-05
1.83422e-05
2.16667e-05
2.10238e-05
2.22133e-05
1.79004e-05
2.06809e-05
2.15681e-05
5.23131e-05
5.15705e-05
1.76147e-05
2.05351e-05
2.07402e-05
5.08646e-05
5.21155e-05
5.69214e-05
2.19944e-05
2.15121e-05
2.52149e-05
2.50033e-05
5.195e-05
5.66974e-05
2.19172e-05
2.17274e-05
2.4939e-05
2.44681e-05
2.40886e-05
2.49868e-05
2.81533e-05
5.0954e-05
5.51515e-05
2.30335e-05
2.49805e-05
2.63655e-05
5.93679e-05
5.82865e-05
6.31923e-05
2.60751e-05
2.64463e-05
2.99797e-05
2.989e-05
5.82801e-05
6.35582e-05
2.61405e-05
2.733e-05
2.9741e-05
3.05992e-05
2.79179e-05
2.98051e-05
2.80314e-05
5.77644e-05
6.45397e-05
2.60612e-05
3.06981e-05
2.77669e-05
6.02803e-05
6.45282e-05
6.83206e-05
3.1577e-05
3.07739e-05
3.45378e-05
3.4391e-05
6.45394e-05
6.8007e-05
3.09945e-05
3.08522e-05
3.50628e-05
3.46281e-05
3.09837e-05
3.43933e-05
3.67467e-05
6.5322e-05
6.75853e-05
3.03983e-05
3.49077e-05
3.69277e-05
7.11197e-05
6.93729e-05
7.39162e-05
3.55534e-05
3.57346e-05
4.05929e-05
3.99324e-05
6.92502e-05
7.35118e-05
3.6087e-05
3.61342e-05
3.94476e-05
3.92979e-05
3.72227e-05
3.99388e-05
4.13373e-05
6.86918e-05
7.31881e-05
3.74506e-05
3.89374e-05
3.93397e-05
7.37647e-05
7.50831e-05
7.80541e-05
4.21277e-05
4.12546e-05
4.52467e-05
4.5455e-05
7.45938e-05
7.81397e-05
4.15484e-05
4.08339e-05
4.73603e-05
4.67137e-05
4.29293e-05
4.54189e-05
4.48204e-05
7.43563e-05
7.84116e-05
4.11775e-05
4.66712e-05
4.64879e-05
7.76797e-05
7.89225e-05
8.20351e-05
4.65499e-05
4.69563e-05
5.11833e-05
5.14322e-05
7.91732e-05
8.25883e-05
4.77909e-05
4.82579e-05
4.9435e-05
4.9915e-05
4.58636e-05
5.13258e-05
5.12762e-05
7.94394e-05
8.1801e-05
4.75258e-05
4.96686e-05
4.89539e-05
8.19201e-05
8.30845e-05
8.78649e-05
5.25054e-05
5.29354e-05
5.72991e-05
5.64431e-05
8.3495e-05
8.62214e-05
5.17441e-05
5.08289e-05
6.029e-05
5.83692e-05
5.21365e-05
5.64838e-05
5.76254e-05
8.25946e-05
8.73573e-05
5.04232e-05
5.79963e-05
6.12268e-05
8.83264e-05
8.89669e-05
9.05961e-05
5.97817e-05
5.78792e-05
6.48438e-05
6.34096e-05
8.71219e-05
9.09264e-05
6.24843e-05
6.09168e-05
6.40876e-05
6.3511e-05
6.08731e-05
6.32934e-05
6.51742e-05
8.86987e-05
9.09013e-05
6.46423e-05
6.38235e-05
6.66761e-05
9.09721e-05
9.08259e-05
9.31356e-05
6.46291e-05
6.535e-05
6.61965e-05
6.88375e-05
9.18988e-05
9.42549e-05
6.34141e-05
6.39555e-05
6.53074e-05
6.87193e-05
6.46033e-05
6.87848e-05
6.46455e-05
9.12942e-05
9.38491e-05
6.572e-05
6.81361e-05
6.24392e-05
9.18539e-05
9.46977e-05
0.000100396
6.92962e-05
6.91848e-05
7.8377e-05
7.5481e-05
9.48679e-05
9.86841e-05
6.9511e-05
7.05171e-05
8.00602e-05
7.49827e-05
6.87053e-05
7.54905e-05
7.73631e-05
9.50586e-05
9.88776e-05
6.40384e-05
7.50976e-05
7.94198e-05
0.000100855
0.000100856
0.000101798
7.90156e-05
7.85152e-05
7.83971e-05
8.14363e-05
0.000100024
0.000102713
8.07141e-05
7.71763e-05
8.13172e-05
8.32864e-05
7.84675e-05
8.14043e-05
8.18394e-05
9.97029e-05
0.000102776
8.17708e-05
8.3017e-05
8.41657e-05
0.000103447
0.000102739
0.000107911
8.08071e-05
8.21492e-05
9.12585e-05
8.74494e-05
0.00010312
0.000105642
8.37047e-05
8.34306e-05
9.02987e-05
8.5013e-05
8.38943e-05
8.73752e-05
8.87363e-05
0.000103278
0.000105415
8.47494e-05
8.48329e-05
8.74889e-05
0.000105945
0.000108291
0.000108139
9.24879e-05
8.85022e-05
9.10721e-05
9.23111e-05
0.000106568
0.000109918
9.04439e-05
8.83524e-05
9.04031e-05
9.79665e-05
8.88939e-05
9.20087e-05
8.90118e-05
0.000106722
0.000112068
8.80555e-05
9.73343e-05
9.00517e-05
0.000107534
0.000108508
0.000114151
9.06376e-05
9.48762e-05
9.79113e-05
0.000100944
0.000110868
0.000114496
9.21302e-05
9.86206e-05
9.98381e-05
9.61524e-05
9.04623e-05
0.000101252
0.000101236
0.000112243
0.000110819
9.14517e-05
9.54958e-05
9.97593e-05
0.000116151
0.000115404
0.000118519
0.00010079
0.000101108
0.000106711
0.000101399
0.000114788
0.000116012
0.000101541
9.50342e-05
0.00010474
0.000101319
0.000105548
0.000101362
0.000110601
0.000110858
0.00011847
0.000103634
0.00010602
0.000110904
0.000120732
0.000119209
0.000122722
0.00010835
0.000103878
0.000113211
0.000114104
0.000117108
0.000123667
0.000106452
0.000106893
0.000112894
0.000116994
0.000109888
0.000113642
0.000106199
0.000120666
0.000124043
0.000110803
0.000113882
0.000107649
0.000117027
0.00012307
0.000122592
0.000113957
0.000115746
0.000112693
0.000114706
0.000124145
0.000122866
0.000113989
0.000117707
0.000113069
0.000116148
0.00010507
0.000114099
0.000111928
0.000123938
0.000122998
0.000106528
0.000110737
0.000108784
0.000123818
0.000122568
0.000127922
0.000112158
0.000113768
0.000118832
0.000113344
0.000122505
0.000125835
0.000112663
0.000115456
0.000119176
0.000119676
0.00011697
0.000114794
0.000126283
0.000123525
0.00012952
0.000114396
0.000122972
0.000126928
0.000132905
0.000129723
0.000133669
0.000122474
0.000118464
0.000128438
0.000130362
0.000128027
0.000135545
0.000122375
0.000120782
0.000127178
0.000122607
0.0001269
0.000130192
0.000124947
0.000129899
0.000129567
0.000128828
0.000122773
0.000128462
0.000131308
0.000133674
0.000133314
0.000128625
0.000131648
0.000128034
0.0001307
0.000135892
0.000134732
0.000127448
0.000124469
0.000128179
0.000132086
0.000123982
0.000129802
0.000124857
0.00013
0.000136685
0.000127534
0.000130929
0.000125038
0.000131797
0.000133664
0.000137344
0.000128615
0.000129927
0.00013269
0.000130739
0.000134425
0.000136087
0.000129052
0.00013344
0.000133098
0.000133193
0.000128662
0.000131251
0.000136429
0.000137562
0.000137347
0.000125517
0.000134107
0.000136083
0.000140074
0.000138169
0.00014196
0.000134407
0.000131838
0.00013954
0.000138384
0.00013676
0.000141108
0.000134634
0.000132868
0.000138969
0.000136592
0.000137975
0.000138664
0.000138604
0.000137073
0.000139676
0.000137862
0.000135304
0.000138173
0.000141169
0.000142609
0.000144356
0.000140747
0.000141104
0.000142671
0.00014461
0.000142439
0.000145251
0.000140046
0.000139595
0.000143249
0.000147298
0.000138229
0.000143486
0.000141845
0.00014113
0.000147559
0.000137884
0.000146212
0.000143502
0.000144311
0.000144749
0.000147219
0.00014353
0.000144413
0.000147815
0.000145598
0.000145188
0.000146319
0.000144873
0.000147884
0.000147899
0.000146232
0.000144522
0.000146898
0.000147542
0.000147891
0.000145645
0.000146232
0.000148265
0.000148617
0.000146935
0.000147413
0.000147135
0.00014858
0.000148081
0.000148182
0.000150928
0.000147443
0.000149336
0.000147758
0.000145374
0.000146635
0.000145692
0.000147274
0.00015075
0.000147845
0.000145286
0.000146514
0.000148152
0.0001457
0.000146491
0.000146915
0.000147346
0.000154278
0.000148172
0.000150596
0.000155326
0.000150151
0.000149109
0.000149339
0.000147358
0.000150329
0.000157155
0.000157665
0.000150069
0.000149929
0.000157283
0.000148395
0.000154542
0.000147309
0.000154857
0.000156737
0.000155787
0.000155618
0.000156955
0.000157838
0.000152504
0.000161716
0.000162865
0.000150706
0.000159247
0.000159372
0.000157933
0.000161002
0.000159632
0.000159334
0.000163202
0.000161469
0.000154871
0.000157031
0.000159581
0.000163177
0.000162919
0.000157224
0.000156752
0.000155377
0.000161917
0.000164989
0.000160985
0.000165592
0.000160166
0.000158952
0.000160705
0.000161487
0.000159895
0.000163156
0.000161073
0.000165349
0.000158379
0.000157673
0.000157401
0.000162593
0.000162977
0.000159239
0.000152624
0.000155371
0.000159884
0.000160659
0.000164541
0.000163613
0.00016139
0.000158395
0.000155199
0.000160175
0.000162804
0.000165235
0.000161784
0.000157682
0.000160889
0.000162219
0.000157141
0.000157253
0.000158394
0.000160859
0.000159566
0.000158871
0.00016128
0.000164693
0.000166273
0.000160973
0.000172349
0.000171399
0.000155766
0.000165978
0.000167713
0.000162956
0.000171473
0.000171535
0.000166694
0.000172071
0.000176125
0.000158233
0.000164992
0.000164631
0.000172343
0.000176031
0.000168801
0.000164641
0.000164987
0.000172811
0.000174656
0.000173473
0.000177352
0.000167441
0.000168737
0.000171586
0.000173634
0.000173707
0.000175535
0.000176993
0.000177959
0.000176022
0.000165992
0.000166872
0.000177389
0.00017622
0.000177157
0.000165931
0.00016558
0.00016721
0.000174509
0.00017711
0.000176102
0.000173887
0.000168399
0.000163857
0.000174688
0.000175297
0.000175667
0.00017421
0.000174736
0.000173368
0.000173002
0.000166688
0.000165299
0.000175975
0.000174156
0.000173825
0.000164588
0.000167189
0.000168599
0.000176226
0.000173169
0.000177576
0.000173112
0.000163465
0.000165296
0.000176043
0.000174344
0.000178578
0.000178027
0.00017361
0.00017289
0.000178471
0.000165331
0.000168726
0.000173665
0.000177405
0.000177567
0.000168999
0.000169079
0.000171854
0.000178393
0.000175957
0.000181905
0.000185542
0.000166835
0.000176119
0.000179404
0.000179414
0.000181823
0.000184237
0.000178629
0.000185694
0.000179835
0.000169555
0.000174424
0.000178085
0.000185325
0.000180652
0.000170241
0.000172639
0.000177646
0.00018384
0.000188321
0.000190184
0.000191933
0.000177515
0.000179569
0.000183363
0.000186008
0.000189527
0.000188807
0.000182397
0.000192216
0.000190755
0.000175198
0.000176094
0.000182655
0.000188281
0.000190168
0.000178675
0.000178044
0.000176643
0.000191192
0.000191952
0.000191155
0.000189259
0.000179226
0.000174311
0.000190679
0.000188713
0.000190796
0.000187103
0.00019225
0.0001894
0.00019271
0.000175802
0.000172902
0.000191738
0.000186444
0.000192317
0.000178341
0.000176104
0.000173501
0.000189965
0.000187804
0.000186924
0.000185698
0.000173772
0.000172666
0.000189833
0.000186637
0.000187393
0.000187302
0.000191624
0.000185488
0.000186352
0.000172534
0.000176286
0.000191532
0.000188062
0.000186804
0.000172471
0.000173757
0.000180526
0.000186547
0.000185528
0.000192558
0.000191891
0.000173164
0.000179204
0.0001871
0.000190033
0.000193349
0.000196765
0.000185733
0.000191314
0.00018959
0.000177837
0.000183468
0.000186221
0.000197147
0.000189847
0.000178482
0.000181667
0.000184621
0.00019534
0.000193979
0.000200568
0.000199578
0.000180076
0.000184518
0.000195833
0.000198009
0.000200396
0.000199785
0.000194738
0.000200758
0.000205566
0.000183802
0.00018414
0.00019505
0.000201097
0.000205955
0.00019088
0.00018479
0.000186292
0.000201251
0.000201669
0.000203275
0.000205817
0.000185591
0.00019006
0.000200931
0.000199899
0.000202714
0.000200963
0.000206883
0.000206824
0.000206935
0.000184001
0.000184293
0.000207164
0.000201559
0.000206602
0.000187256
0.000186421
0.00018542
0.000203631
0.000206084
0.000203404
0.000202992
0.000190084
0.00018287
0.000203183
0.000201277
0.000203093
0.000200734
0.000203726
0.000200424
0.000191808
0.000184239
0.000181589
0.000202146
0.00019652
0.000190401
0.00017242
0.000184573
0.000180095
0.000201871
0.000199843
0.000197887
0.000195924
0.00018112
0.00017705
0.000201766
0.000199264
0.000197571
0.000196905
0.000190294
0.000193289
0.000191321
0.000180899
0.000179679
0.000189145
0.00019448
0.000192832
0.00018119
0.00017967
0.000189059
0.000197344
0.000195654
0.000204343
0.000209707
0.000178107
0.000195804
0.000197
0.000196743
0.000204052
0.000209862
0.000199521
0.000212996
0.000221702
0.000180904
0.000195257
0.000202199
0.00021447
0.000223457
0.000206024
0.000191267
0.000197652
0.000209386
0.000213791
0.000216372
0.000217009
0.000197342
0.000196243
0.000209586
0.000214577
0.000217665
0.000219731
0.000224231
0.000219065
0.000223748
0.000197011
0.000200042
0.000225925
0.000221129
0.000225174
0.000198701
0.000197539
0.000189868
0.000216948
0.000215647
0.000211324
0.000203838
0.000193678
0.000180783
0.000218346
0.000219903
0.000212609
0.000207713
0.000215573
0.000201718
0.000196033
0.000198348
0.000183994
0.000216404
0.000203913
0.000194309
0.000173039
0.000188292
0.00018428
0.000208265
0.000202338
0.000204548
0.000202367
0.000179976
0.000187551
0.000208827
0.000203871
0.000203931
0.000199643
0.000193862
0.00020198
0.000194971
0.000182285
0.000179863
0.000191549
0.000196589
0.00019105
0.000180068
0.000184491
0.000196698
0.000204328
0.000208185
0.000216216
0.000226013
0.000191014
0.000207894
0.000203493
0.000199735
0.000214367
0.000217245
0.000203833
0.000228182
0.000228247
0.000181407
0.000199985
0.000199203
0.00021964
0.000227947
0.000208734
0.000198479
0.000202692
0.000220404
0.000228268
0.000225231
0.000228814
0.000208455
0.000201633
0.000219232
0.000222869
0.000225154
0.000229405
0.000231947
0.000229635
0.000234807
0.000202335
0.000208033
0.000233127
0.000232803
0.000238195
0.000210156
0.000201674
0.000191362
0.000225442
0.000222986
0.000215049
0.000206338
0.000197735
0.000180908
0.000225601
0.000229773
0.000216476
0.000216911
0.000230505
0.000204287
0.000210171
0.000206592
0.000191864
0.000236211
0.000217623
0.000213869
0.000187369
0.000190014
0.000188361
0.000212057
0.000204192
0.000209097
0.000203388
0.000179833
0.000186139
0.000213236
0.000212694
0.000209851
0.000208171
0.000206927
0.000202011
0.000204515
0.000189818
0.000186015
0.000209294
0.000207208
0.00020527
0.000185472
0.000189441
0.000201748
0.000209559
0.000208766
0.000223355
0.000228781
0.000189457
0.000208304
0.00020996
0.000208078
0.000222503
0.000220902
0.00020712
0.000230411
0.000224824
0.000186812
0.000199839
0.000205887
0.000219674
0.000221239
0.000201515
0.000202881
0.000203985
0.000226536
0.000232003
0.000229709
0.000234856
0.000209515
0.000208486
0.000225802
0.000224699
0.000229187
0.000228839
0.000227898
0.000236835
0.000230694
0.000201216
0.000203589
0.000224512
0.000227933
0.000227513
0.000202423
0.000202588
0.000194871
0.000228996
0.000232297
0.000219932
0.00021967
0.000205951
0.000194274
0.000228747
0.000228824
0.000220418
0.000221952
0.000228906
0.000219699
0.000220448
0.000202522
0.000196808
0.000226668
0.000222562
0.000221491
0.00019554
0.000194338
0.000197309
0.000218751
0.000218008
0.000218948
0.000217702
0.000193586
0.000195688
0.000219249
0.000221016
0.000219374
0.000221697
0.000219938
0.000217375
0.000222779
0.000196422
0.000199958
0.0002213
0.000223436
0.000225098
0.000201956
0.000198604
0.000203221
0.000221726
0.000219911
0.000226765
0.000224354
0.000196748
0.000200038
0.000221976
0.000223826
0.00022661
0.000226216
0.000225207
0.000223767
0.000227529
0.000200859
0.000202627
0.000227019
0.000226968
0.000228748
0.000203606
0.000202977
0.000196368
0.00022729
0.000224755
0.00022292
0.00022179
0.000199608
0.000195458
0.000227097
0.000226124
0.000222354
0.000218886
0.000226881
0.000221146
0.000217863
0.000201199
0.000192353
0.000227334
0.000217905
0.000217003
0.000190978
0.00019551
0.000196289
0.000221236
0.000221122
0.00022043
0.000221892
0.000195022
0.000199435
0.000220775
0.000217897
0.000220207
0.000219025
0.000216885
0.000222009
0.000218441
0.000191683
0.000197372
0.000216057
0.000218932
0.000218231
0.000196884
0.000197841
0.000207019
0.000221978
0.000225296
0.000231645
0.000232924
0.000201213
0.000208659
0.000222197
0.000224072
0.000232104
0.000235244
0.000224072
0.000233549
0.000235395
0.00019985
0.000210796
0.000224304
0.000235513
0.000235448
0.000210898
0.000207227
0.000202225
0.000232856
0.000233743
0.00023138
0.00022796
0.000208642
0.000198531
0.000233321
0.000236435
0.000231715
0.000232223
0.000236533
0.000227895
0.000231257
0.000210916
0.000202054
0.000236515
0.000231603
0.000230731
0.000201161
0.000199886
0.000192561
0.000226635
0.000222891
0.000218619
0.000216329
0.000195855
0.000189276
0.00022689
0.000226121
0.000218441
0.000215951
0.000224768
0.000215774
0.000214926
0.000198995
0.000189522
0.000224528
0.000215885
0.000215248
0.000188535
0.000192096
0.000200869
0.000218211
0.000215934
0.000224022
0.000228257
0.000189261
0.000205933
0.000217974
0.000215317
0.000222825
0.000221445
0.000214327
0.000227989
0.000223697
0.000188972
0.000200026
0.000214683
0.00022226
0.000223993
0.000201915
0.000203134
0.000212041
0.000229691
0.000234977
0.000239318
0.000244646
0.000208971
0.000218963
0.000228542
0.000228346
0.000238806
0.000240822
0.000231394
0.000245214
0.000243945
0.000202905
0.000214629
0.000231537
0.00024183
0.000244071
0.000217488
0.000212104
0.000204497
0.000240112
0.000245164
0.000235331
0.000230694
0.000218232
0.000198942
0.000239699
0.000241915
0.000237088
0.000238956
0.000244902
0.000231109
0.000236043
0.000214803
0.000206118
0.000245042
0.00023855
0.000236642
0.000203996
0.000203851
0.00022865
0.000222826
0.000197021
0.000230327
0.00023155
0.000256437
0.000266562
0.000263157
0.000227838
0.000204965
0.000228304
7.31906e-06
1.81497e-06
2.24387e-06
3.59492e-06
1.12207e-06
1.99907e-06
5.38397e-07
1.6137e-06
7.90793e-07
2.66815e-06
1.21436e-06
1.47841e-06
2.28244e-06
1.74375e-06
1.7439e-06
1.10821e-06
1.3834e-05
1.02253e-06
1.56925e-05
1.05824e-05
1.2791e-05
1.31867e-06
1.38795e-05
1.24796e-06
1.56054e-05
1.95982e-06
2.01168e-06
1.91597e-06
1.78167e-06
1.9742e-06
1.99888e-06
1.91255e-06
1.11747e-06
3.25799e-07
1.46704e-06
1.75091e-06
1.1134e-06
4.33106e-07
1.46208e-06
1.06652e-05
1.29638e-05
7.90784e-07
1.93702e-06
9.05756e-07
2.68227e-06
7.99231e-07
1.96904e-06
1.12544e-06
1.5044e-06
1.51558e-06
2.26849e-06
1.69623e-06
1.71703e-06
1.32845e-06
1.9101e-05
1.23533e-06
2.16251e-05
1.68527e-05
1.90652e-05
1.51026e-06
1.87944e-05
1.4504e-06
2.11806e-05
1.9758e-06
2.00727e-06
1.91391e-06
1.7749e-06
1.979e-06