/*--------------------------------*- C++ -*----------------------------------*\
| =========                 |                                                 |
| \\      /  F ield         | OpenFOAM: The Open Source CFD Toolbox           |
|  \\    /   O peration     | Version:  v2006                                 |
|   \\  /    A nd           | Website:  www.openfoam.com                      |
|    \\/     M anipulation  |                                                 |
\*---------------------------------------------------------------------------*/
FoamFile
{
    version     2.0;
    format      ascii;
    class       volScalarField;
    location    "750";
    object      p;
}
// * * * * * * * * * * * * * * * * * * * * * * * * * * * * * * * * * * * * * //

dimensions      [0 2 -2 0 0 0 0];


internalField   nonuniform List<scalar> 
171728
(
0.00360413
0.00360445
0.00360446
0.00360751
0.00354877
0.00354919
0.00354919
0.00355218
0.00349802
0.00349799
0.00349799
0.00350074
0.00344563
0.00344564
0.00344564
0.00344842
0.00339428
0.00339429
0.00339429
0.00339704
0.0033443
0.00334431
0.00334432
0.00334704
0.00329578
0.00329579
0.00329579
0.00329848
0.00324855
0.00324857
0.00324857
0.00325122
0.00320242
0.00320244
0.00320244
0.00320506
0.00315719
0.00315721
0.00315721
0.0031598
0.00311268
0.0031127
0.0031127
0.00311527
0.00306877
0.00306879
0.00306879
0.00307134
0.00302538
0.00302539
0.0030254
0.00302791
0.00298245
0.00298247
0.00298247
0.00298496
0.00293995
0.00293996
0.00293996
0.00294246
0.00289786
0.00289787
0.00289787
0.00290035
0.00285615
0.00285615
0.00285615
0.00285863
0.00281481
0.0028148
0.0028148
0.00281727
0.00277379
0.00277378
0.00277378
0.00277624
0.00273309
0.00273307
0.00273307
0.00273553
0.00269269
0.00269265
0.00269265
0.0026951
0.00265255
0.0026525
0.0026525
0.00265495
0.00261265
0.00261261
0.00261261
0.00261505
0.002573
0.00257295
0.00257295
0.00257538
0.00253358
0.00253352
0.00253352
0.00253594
0.00249437
0.00249431
0.00249431
0.00249671
0.00245537
0.00245531
0.00245531
0.0024577
0.00241656
0.00241652
0.00241652
0.00241888
0.00237796
0.00237791
0.00237791
0.00238026
0.00233954
0.0023395
0.0023395
0.00234182
0.0023013
0.00230126
0.00230126
0.00230357
0.00226324
0.0022632
0.0022632
0.00226549
0.00222534
0.00222531
0.00222531
0.00222758
0.00218761
0.00218759
0.00218759
0.00218983
0.00215003
0.00215001
0.00215001
0.00215224
0.00211261
0.0021126
0.0021126
0.0021148
0.00207533
0.00207532
0.00207532
0.00207751
0.0020382
0.00203818
0.00203818
0.00204035
0.0020012
0.00200118
0.00200118
0.00200334
0.00196433
0.0019643
0.0019643
0.00196645
0.00192758
0.00192755
0.00192755
0.00192968
0.00189095
0.00189091
0.00189091
0.00189304
0.00185444
0.00185439
0.00185439
0.0018565
0.00181803
0.00181797
0.00181797
0.00182007
0.00178171
0.00178165
0.00178165
0.00178374
0.00174549
0.00174542
0.00174542
0.00174751
0.00170936
0.00170928
0.00170928
0.00171136
0.00167331
0.00167322
0.00167322
0.0016753
0.00163733
0.00163724
0.00163724
0.00163931
0.00160143
0.00160133
0.00160133
0.00160339
0.00156559
0.00156549
0.00156549
0.00156754
0.00152981
0.0015297
0.0015297
0.00153175
0.00149409
0.00149397
0.00149397
0.00149602
0.00145842
0.0014583
0.0014583
0.00146034
0.00142279
0.00142267
0.00142267
0.0014247
0.00138721
0.00138709
0.00138709
0.00138912
0.00135167
0.00135154
0.00135154
0.00135356
0.00131614
0.00131602
0.00131602
0.00131804
0.00128067
0.00128054
0.00128054
0.00128256
0.00124521
0.00124509
0.00124508
0.0012471
0.00120977
0.00120965
0.00120965
0.00121165
0.00117434
0.00117423
0.00117424
0.00117625
0.00113898
0.00113885
0.00113885
0.00114085
0.00110351
0.0011034
0.0011034
0.00110541
0.00106808
0.00106801
0.001068
0.00107002
0.00103282
0.00103271
0.0010327
0.0010347
0.000997451
0.000997309
0.000997342
0.000999314
0.000961878
0.000961812
0.000961816
0.000963837
0.000926664
0.000926625
0.000926545
0.000928609
0.000891803
0.000891527
0.000891527
0.000893462
0.000855418
0.000855382
0.000855512
0.000857481
0.000818515
0.000818821
0.000818664
0.000820891
0.000784047
0.000784095
0.000784057
0.000786184
0.00075145
0.000750775
0.000751161
0.000752706
0.000717789
0.000717425
0.000716974
0.000718689
0.00068065
0.000680482
0.000680726
0.000682733
0.000640344
0.000640132
0.000640395
0.000642931
0.000602967
0.000603745
0.000602621
0.00060519
0.00056762
0.000568324
0.000569435
0.000571077
0.000535115
0.000535017
0.000535231
0.000537288
0.000505018
0.000504174
0.000502624
0.000504579
0.000470161
0.000468558
0.000470015
0.000471037
0.000430735
0.000430684
0.000432154
0.000434008
0.000393061
0.000395008
0.000392612
0.000395936
0.000356427
0.000356306
0.000355456
0.000358115
0.000318647
0.000317702
0.000319485
0.000320728
0.000283325
0.000283091
0.000283848
0.000285328
0.000248688
0.000249055
0.000248513
0.000250671
0.000213469
0.000213715
0.00021322
0.000215804
0.000178254
0.000177998
0.000177934
0.000180015
0.000142134
0.000141896
0.000142013
0.000143824
0.000105126
0.000105081
0.000105193
0.000107063
6.84118e-05
6.85844e-05
6.86894e-05
7.07792e-05
3.36354e-05
3.3192e-05
3.31391e-05
3.50348e-05
6.09679e-06
6.92086e-06
6.67373e-06
5.01554e-06
0.00361753
0.00361776
0.00361776
0.00361753
0.00361776
0.00361776
0.00361852
0.00361852
0.00361852
0.00361852
0.00361776
0.00361776
0.00361753
0.00361776
0.00361776
0.00361753
0.00360751
0.00355875
0.00360445
0.00360445
0.00356103
0.00356103
0.00360751
0.00355875
0.00360445
0.00360445
0.00356103
0.00356103
0.00360445
0.00356103
0.00356103
0.00360751
0.00355875
0.00360446
0.00356103
0.00356103
0.00355875
0.00355218
0.00350767
0.00354919
0.00354919
0.00351111
0.00351111
0.00355218
0.00350767
0.00354919
0.00354919
0.00351111
0.00351111
0.00354919
0.00351111
0.00351111
0.00355218
0.00350767
0.00354919
0.00351111
0.00351111
0.00350767
0.00350074
0.0034553
0.00349799
0.00349799
0.00345866
0.00345866
0.00350074
0.0034553
0.00349799
0.00349799
0.00345866
0.00345866
0.00349799
0.00345866
0.00345866
0.00350074
0.0034553
0.00349799
0.00345866
0.00345866
0.0034553
0.00344842
0.00340375
0.00344565
0.00344565
0.00340701
0.00340701
0.00344842
0.00340375
0.00344564
0.00344565
0.00340701
0.00340701
0.00344565
0.00340701
0.00340701
0.00344842
0.00340375
0.00344564
0.00340701
0.00340701
0.00340375
0.00339704
0.00335354
0.00339429
0.00339429
0.00335667
0.00335667
0.00339704
0.00335353
0.00339429
0.00339429
0.00335667
0.00335667
0.00339429
0.00335667
0.00335667
0.00339704
0.00335354
0.00339429
0.00335667
0.00335667
0.00335353
0.00334704
0.00330478
0.00334432
0.00334432
0.0033078
0.0033078
0.00334703
0.00330478
0.00334432
0.00334432
0.00330779
0.0033078
0.00334432
0.0033078
0.0033078
0.00334703
0.00330478
0.00334431
0.0033078
0.00330779
0.00330478
0.00329847
0.00325735
0.0032958
0.00329579
0.00326027
0.00326027
0.00329847
0.00325735
0.00329579
0.00329579
0.00326027
0.00326027
0.0032958
0.00326027
0.00326027
0.00329848
0.00325735
0.00329579
0.00326027
0.00326027
0.00325735
0.00325122
0.00321105
0.00324857
0.00324857
0.00321388
0.00321388
0.00325122
0.00321105
0.00324857
0.00324857
0.00321388
0.00321388
0.00324857
0.00321388
0.00321388
0.00325122
0.00321105
0.00324857
0.00321388
0.00321388
0.00321106
0.00320506
0.00316568
0.00320244
0.00320244
0.00316845
0.00316844
0.00320506
0.00316568
0.00320244
0.00320244
0.00316845
0.00316845
0.00320244
0.00316844
0.00316845
0.00320506
0.00316568
0.00320244
0.00316845
0.00316845
0.00316568
0.0031598
0.00312105
0.00315721
0.00315721
0.00312378
0.00312377
0.00315981
0.00312105
0.00315721
0.00315721
0.00312378
0.00312378
0.00315721
0.00312377
0.00312377
0.00315981
0.00312105
0.00315721
0.00312378
0.00312377
0.00312105
0.00311527
0.00307704
0.0031127
0.0031127
0.00307972
0.00307973
0.00311527
0.00307703
0.0031127
0.0031127
0.00307972
0.00307973
0.0031127
0.00307973
0.00307971
0.00311527
0.00307703
0.0031127
0.00307973
0.00307971
0.00307704
0.00307133
0.00303354
0.00306879
0.00306879
0.0030362
0.0030362
0.00307133
0.00303354
0.00306879
0.00306879
0.00303619
0.0030362
0.0030688
0.0030362
0.0030362
0.00307133
0.00303354
0.0030688
0.0030362
0.0030362
0.00303354
0.00302791
0.00299053
0.0030254
0.00302539
0.00299315
0.00299315
0.00302791
0.00299054
0.0030254
0.0030254
0.00299315
0.00299315
0.0030254
0.00299315
0.00299316
0.00302791
0.00299052
0.0030254
0.00299315
0.00299316
0.00299053
0.00298496
0.00294798
0.00298246
0.00298247
0.00295055
0.00295055
0.00298497
0.00294797
0.00298246
0.00298247
0.00295055
0.00295055
0.00298246
0.00295055
0.00295054
0.00298496
0.00294797
0.00298246
0.00295055
0.00295055
0.00294797
0.00294246
0.00290582
0.00293996
0.00293995
0.00290835
0.00290835
0.00294246
0.00290582
0.00293996
0.00293996
0.00290835
0.00290835
0.00293997
0.00290835
0.00290835
0.00294246
0.00290582
0.00293997
0.00290835
0.00290835
0.00290582
0.00290035
0.00286404
0.00289787
0.00289786
0.00286655
0.00286654
0.00290035
0.00286405
0.00289787
0.00289787
0.00286655
0.00286655
0.00289786
0.00286654
0.00286654
0.00290035
0.00286404
0.00289786
0.00286655
0.00286654
0.00286405
0.00285863
0.00282264
0.00285615
0.00285615
0.0028251
0.0028251
0.00285863
0.00282264
0.00285615
0.00285615
0.0028251
0.0028251
0.00285615
0.0028251
0.00282511
0.00285863
0.00282264
0.00285615
0.0028251
0.00282511
0.00282264
0.00281727
0.00278157
0.0028148
0.0028148
0.002784
0.00278401
0.00281727
0.00278157
0.0028148
0.0028148
0.002784
0.002784
0.0028148
0.00278401
0.002784
0.00281727
0.00278157
0.0028148
0.002784
0.002784
0.00278157
0.00277624
0.00274082
0.00277378
0.00277378
0.00274322
0.00274322
0.00277624
0.00274082
0.00277378
0.00277378
0.00274322
0.00274322
0.00277378
0.00274322
0.00274322
0.00277624
0.00274082
0.00277378
0.00274322
0.00274322
0.00274082
0.00273553
0.00270036
0.00273307
0.00273307
0.00270273
0.00270273
0.00273552
0.00270036
0.00273307
0.00273307
0.00270273
0.00270273
0.00273307
0.00270273
0.00270273
0.00273553
0.00270036
0.00273307
0.00270273
0.00270273
0.00270036
0.0026951
0.00266017
0.00269265
0.00269265
0.00266252
0.00266252
0.0026951
0.00266018
0.00269265
0.00269265
0.00266252
0.00266252
0.00269265
0.00266252
0.00266252
0.0026951
0.00266018
0.00269265
0.00266252
0.00266252
0.00266017
0.00265495
0.00262024
0.0026525
0.0026525
0.00262256
0.00262256
0.00265495
0.00262024
0.0026525
0.0026525
0.00262256
0.00262256
0.0026525
0.00262256
0.00262256
0.00265495
0.00262025
0.0026525
0.00262256
0.00262256
0.00262025
0.00261505
0.00258055
0.00261261
0.0026126
0.00258284
0.00258284
0.00261505
0.00258055
0.00261261
0.00261261
0.00258284
0.00258284
0.00261261
0.00258284
0.00258284
0.00261505
0.00258055
0.00261261
0.00258284
0.00258284
0.00258055
0.00257538
0.00254108
0.00257295
0.00257295
0.00254336
0.00254335
0.00257538
0.00254108
0.00257295
0.00257295
0.00254336
0.00254335
0.00257295
0.00254335
0.00254336
0.00257538
0.00254108
0.00257295
0.00254335
0.00254336
0.00254108
0.00253594
0.00250184
0.00253352
0.00253352
0.00250409
0.00250409
0.00253594
0.00250184
0.00253352
0.00253352
0.00250409
0.00250409
0.00253352
0.00250409
0.00250409
0.00253594
0.00250184
0.00253352
0.00250409
0.00250409
0.00250184
0.00249671
0.0024628
0.00249431
0.00249431
0.00246504
0.00246504
0.00249671
0.0024628
0.00249431
0.00249431
0.00246504
0.00246504
0.00249431
0.00246504
0.00246504
0.00249671
0.0024628
0.00249431
0.00246504
0.00246504
0.0024628
0.0024577
0.00242396
0.00245531
0.00245531
0.0024262
0.0024262
0.0024577
0.00242396
0.00245531
0.00245531
0.0024262
0.0024262
0.00245531
0.0024262
0.0024262
0.0024577
0.00242396
0.00245531
0.0024262
0.0024262
0.00242396
0.00241888
0.00238532
0.00241652
0.00241652
0.00238755
0.00238755
0.00241888
0.00238532
0.00241652
0.00241652
0.00238755
0.00238755
0.00241652
0.00238755
0.00238755
0.00241888
0.00238532
0.00241652
0.00238755
0.00238755
0.00238532
0.00238026
0.00234687
0.00237791
0.00237791
0.00234909
0.00234909
0.00238026
0.00234687
0.00237791
0.00237791
0.00234909
0.00234909
0.00237791
0.00234909
0.00234909
0.00238026
0.00234687
0.00237791
0.00234909
0.00234909
0.00234687
0.00234182
0.00230859
0.0023395
0.0023395
0.00231081
0.00231081
0.00234182
0.00230859
0.0023395
0.0023395
0.00231081
0.00231081
0.0023395
0.00231081
0.00231081
0.00234182
0.00230859
0.0023395
0.00231081
0.00231081
0.00230859
0.00230357
0.00227049
0.00230126
0.00230126
0.0022727
0.0022727
0.00230357
0.00227049
0.00230126
0.00230126
0.0022727
0.0022727
0.00230126
0.0022727
0.0022727
0.00230357
0.00227049
0.00230126
0.0022727
0.0022727
0.00227049
0.00226549
0.00223257
0.0022632
0.0022632
0.00223477
0.00223477
0.00226549
0.00223257
0.0022632
0.0022632
0.00223477
0.00223477
0.0022632
0.00223477
0.00223477
0.00226549
0.00223257
0.0022632
0.00223477
0.00223477
0.00223257
0.00222757
0.0021948
0.00222531
0.00222531
0.002197
0.002197
0.00222757
0.0021948
0.00222531
0.00222531
0.002197
0.002197
0.00222531
0.002197
0.00219701
0.00222758
0.0021948
0.00222531
0.002197
0.002197
0.0021948
0.00218983
0.0021572
0.00218759
0.00218759
0.00215939
0.00215939
0.00218983
0.0021572
0.00218759
0.00218759
0.00215939
0.00215939
0.00218759
0.00215939
0.00215939
0.00218983
0.0021572
0.00218759
0.00215939
0.00215939
0.0021572
0.00215224
0.00211975
0.00215001
0.00215001
0.00212194
0.00212194
0.00215224
0.00211975
0.00215001
0.00215001
0.00212194
0.00212194
0.00215001
0.00212194
0.00212194
0.00215224
0.00211975
0.00215001
0.00212194
0.00212194
0.00211975
0.0021148
0.00208244
0.0021126
0.0021126
0.00208462
0.00208462
0.0021148
0.00208244
0.0021126
0.0021126
0.00208462
0.00208462
0.0021126
0.00208462
0.00208463
0.0021148
0.00208244
0.0021126
0.00208462
0.00208463
0.00208244
0.00207751
0.00204528
0.00207532
0.00207532
0.00204745
0.00204745
0.0020775
0.00204528
0.00207532
0.00207532
0.00204745
0.00204745
0.00207532
0.00204745
0.00204745
0.00207751
0.00204528
0.00207532
0.00204745
0.00204745
0.00204528
0.00204035
0.00200825
0.00203818
0.00203818
0.00201042
0.00201042
0.00204035
0.00200825
0.00203818
0.00203818
0.00201042
0.00201042
0.00203818
0.00201042
0.00201042
0.00204035
0.00200825
0.00203818
0.00201042
0.00201042
0.00200825
0.00200334
0.00197135
0.00200118
0.00200118
0.00197351
0.00197351
0.00200334
0.00197135
0.00200118
0.00200118
0.00197351
0.00197351
0.00200118
0.00197351
0.00197351
0.00200334
0.00197135
0.00200118
0.00197351
0.00197351
0.00197135
0.00196645
0.00193457
0.0019643
0.0019643
0.00193673
0.00193673
0.00196645
0.00193457
0.0019643
0.0019643
0.00193673
0.00193673
0.0019643
0.00193673
0.00193673
0.00196645
0.00193457
0.0019643
0.00193673
0.00193673
0.00193457
0.00192968
0.00189791
0.00192755
0.00192755
0.00190006
0.00190006
0.00192968
0.00189791
0.00192755
0.00192755
0.00190006
0.00190006
0.00192755
0.00190006
0.00190006
0.00192968
0.00189791
0.00192755
0.00190006
0.00190006
0.00189791
0.00189304
0.00186137
0.00189091
0.00189091
0.00186351
0.00186351
0.00189304
0.00186137
0.00189091
0.00189091
0.00186351
0.00186351
0.00189091
0.00186351
0.00186351
0.00189304
0.00186137
0.00189091
0.00186351
0.00186351
0.00186137
0.0018565
0.00182493
0.00185439
0.00185439
0.00182707
0.00182706
0.0018565
0.00182493
0.00185439
0.00185439
0.00182707
0.00182707
0.00185439
0.00182707
0.00182707
0.0018565
0.00182493
0.00185439
0.00182707
0.00182707
0.00182493
0.00182007
0.00178859
0.00181797
0.00181797
0.00179072
0.00179072
0.00182007
0.00178859
0.00181797
0.00181797
0.00179072
0.00179072
0.00181797
0.00179072
0.00179072
0.00182007
0.00178859
0.00181797
0.00179072
0.00179072
0.00178859
0.00178374
0.00175235
0.00178165
0.00178165
0.00175447
0.00175447
0.00178374
0.00175235
0.00178165
0.00178165
0.00175447
0.00175447
0.00178165
0.00175447
0.00175447
0.00178374
0.00175235
0.00178165
0.00175447
0.00175447
0.00175235
0.00174751
0.0017162
0.00174542
0.00174542
0.00171831
0.00171831
0.00174751
0.0017162
0.00174542
0.00174542
0.00171831
0.00171831
0.00174542
0.00171831
0.00171831
0.00174751
0.0017162
0.00174542
0.00171831
0.00171831
0.0017162
0.00171136
0.00168013
0.00170928
0.00170928
0.00168223
0.00168223
0.00171136
0.00168013
0.00170928
0.00170928
0.00168223
0.00168223
0.00170928
0.00168223
0.00168223
0.00171136
0.00168013
0.00170928
0.00168223
0.00168223
0.00168012
0.0016753
0.00164413
0.00167322
0.00167322
0.00164623
0.00164623
0.0016753
0.00164413
0.00167322
0.00167322
0.00164623
0.00164623
0.00167322
0.00164623
0.00164623
0.0016753
0.00164413
0.00167322
0.00164623
0.00164623
0.00164413
0.00163931
0.00160821
0.00163724
0.00163724
0.0016103
0.0016103
0.00163931
0.00160821
0.00163724
0.00163724
0.0016103
0.0016103
0.00163724
0.0016103
0.0016103
0.00163931
0.00160821
0.00163724
0.0016103
0.0016103
0.00160821
0.00160339
0.00157235
0.00160133
0.00160133
0.00157444
0.00157444
0.00160339
0.00157235
0.00160133
0.00160133
0.00157444
0.00157444
0.00160133
0.00157444
0.00157444
0.00160339
0.00157235
0.00160133
0.00157444
0.00157444
0.00157235
0.00156754
0.00153656
0.00156549
0.00156549
0.00153864
0.00153864
0.00156754
0.00153656
0.00156549
0.00156549
0.00153864
0.00153864
0.00156549
0.00153864
0.00153864
0.00156754
0.00153656
0.00156549
0.00153864
0.00153864
0.00153656
0.00153175
0.00150082
0.0015297
0.0015297
0.0015029
0.0015029
0.00153175
0.00150082
0.0015297
0.0015297
0.0015029
0.0015029
0.0015297
0.0015029
0.0015029
0.00153175
0.00150082
0.0015297
0.0015029
0.0015029
0.00150082
0.00149602
0.00146514
0.00149397
0.00149397
0.00146721
0.00146721
0.00149602
0.00146514
0.00149397
0.00149397
0.00146721
0.00146721
0.00149397
0.00146721
0.00146721
0.00149602
0.00146514
0.00149397
0.00146721
0.00146721
0.00146514
0.00146034
0.0014295
0.0014583
0.0014583
0.00143157
0.00143157
0.00146034
0.0014295
0.0014583
0.0014583
0.00143157
0.00143157
0.0014583
0.00143157
0.00143157
0.00146034
0.0014295
0.0014583
0.00143157
0.00143157
0.0014295
0.0014247
0.00139391
0.00142267
0.00142267
0.00139598
0.00139598
0.0014247
0.00139391
0.00142267
0.00142267
0.00139598
0.00139598
0.00142267
0.00139598
0.00139598
0.0014247
0.00139391
0.00142267
0.00139598
0.00139598
0.00139391
0.00138912
0.00135836
0.00138709
0.00138709
0.00136042
0.00136042
0.00138912
0.00135836
0.00138709
0.00138709
0.00136042
0.00136042
0.00138709
0.00136042
0.00136042
0.00138912
0.00135836
0.00138709
0.00136042
0.00136042
0.00135835
0.00135356
0.00132283
0.00135154
0.00135154
0.00132489
0.00132489
0.00135356
0.00132283
0.00135154
0.00135154
0.00132489
0.00132489
0.00135154
0.00132489
0.00132489
0.00135356
0.00132283
0.00135154
0.00132489
0.00132489
0.00132283
0.00131804
0.00128735
0.00131602
0.00131602
0.00128941
0.00128941
0.00131804
0.00128735
0.00131601
0.00131602
0.00128941
0.00128941
0.00131602
0.00128941
0.00128941
0.00131804
0.00128735
0.00131602
0.00128941
0.00128941
0.00128735
0.00128256
0.00125189
0.00128055
0.00128054
0.00125395
0.00125395
0.00128256
0.00125189
0.00128055
0.00128054
0.00125395
0.00125395
0.00128054
0.00125395
0.00125395
0.00128256
0.00125189
0.00128054
0.00125395
0.00125395
0.00125189
0.00124709
0.00121645
0.00124508
0.00124508
0.0012185
0.00121851
0.0012471
0.00121645
0.00124508
0.00124508
0.0012185
0.0012185
0.00124509
0.0012185
0.0012185
0.0012471
0.00121645
0.00124509
0.0012185
0.0012185
0.00121644
0.00121166
0.00118103
0.00120965
0.00120965
0.00118308
0.00118308
0.00121166
0.00118103
0.00120965
0.00120965
0.00118308
0.00118308
0.00120964
0.00118308
0.00118308
0.00121166
0.00118103
0.00120964
0.00118309
0.00118308
0.00118103
0.00117624
0.00114565
0.00117423
0.00117423
0.0011477
0.0011477
0.00117624
0.00114565
0.00117423
0.00117423
0.0011477
0.0011477
0.00117424
0.0011477
0.0011477
0.00117625
0.00114564
0.00117424
0.0011477
0.0011477
0.00114565
0.00114086
0.0011102
0.00113885
0.00113885
0.00111226
0.00111226
0.00114085
0.00111021
0.00113885
0.00113885
0.00111226
0.00111226
0.00113885
0.00111226
0.00111226
0.00114085
0.00111021
0.00113885
0.00111226
0.00111226
0.0011102
0.0011054
0.0010748
0.00110339
0.0011034
0.00107684
0.00107684
0.00110541
0.00107481
0.00110339
0.0011034
0.00107684
0.00107684
0.0011034
0.00107685
0.00107685
0.00110541
0.0010748
0.0011034
0.00107684
0.00107685
0.00107481
0.00107001
0.00103951
0.001068
0.001068
0.00104155
0.00104153
0.00107002
0.00103949
0.001068
0.001068
0.00104155
0.00104153
0.00106802
0.00104153
0.00104152
0.00107001
0.00103949
0.00106802
0.00104152
0.00104152
0.00103948
0.00103473
0.00100409
0.00103273
0.00103272
0.00100617
0.00100617
0.00103471
0.0010041
0.00103273
0.00103271
0.00100617
0.0010062
0.00103269
0.00100618
0.00100618
0.00103471
0.00100413
0.00103269
0.00100621
0.00100619
0.00100412
0.000999272
0.000968591
0.000997273
0.000997293
0.000970639
0.000970665
0.000999292
0.000968624
0.00099728
0.000997328
0.00097064
0.000970679
0.000997322
0.000970677
0.000970693
0.000999323
0.000968633
0.000997327
0.000970689
0.000970693
0.000968643
0.000963796
0.000933433
0.000961796
0.000961809
0.00093542
0.000935392
0.000963819
0.000933396
0.000961795
0.000961814
0.000935406
0.000935336
0.000961826
0.000935372
0.00093536
0.000963826
0.000933329
0.000961823
0.000935317
0.000935347
0.000933359
0.000928692
0.000898284
0.000926681
0.000926647
0.000900398
0.000900382
0.000928654
0.000898278
0.000926663
0.000926564
0.000900393
0.000900338
0.000926599
0.00090038
0.000900354
0.000928575
0.000898263
0.000926582
0.00090034
0.000900354
0.000898263
0.000893468
0.000862367
0.000891527
0.000891523
0.00086448
0.000864494
0.000893469
0.000862375
0.000891532
0.000891519
0.000864512
0.000864606
0.000891513
0.000864512
0.00086454
0.00089347
0.000862483
0.00089152
0.000864627
0.000864571
0.00086243
0.000857393
0.000825607
0.000855321
0.000855353
0.000827599
0.000827744
0.000857409
0.000825784
0.00085536
0.000855483
0.000827594
0.000827777
0.000855424
0.000827769
0.00082778
0.000857533
0.000825723
0.000855462
0.000827805
0.000827772
0.000825753
0.000820798
0.000790945
0.000818693
0.000818829
0.000792791
0.000792743
0.000820966
0.000790897
0.000818631
0.000818666
0.00079273
0.000792559
0.000818772
0.000792697
0.000792662
0.000820815
0.000790741
0.000818723
0.000792503
0.00079259
0.000790804
0.000786338
0.000757461
0.00078427
0.000784135
0.00075936
0.000758962
0.000786226
0.000757012
0.000784259
0.000784099
0.000759485
0.000759373
0.000784123
0.00075895
0.000759125
0.000786141
0.000757474
0.000784101
0.000759358
0.000759272
0.000757275
0.000752861
0.000723267
0.000751022
0.00075078
0.000725605
0.00072595
0.000752534
0.000723661
0.000751125
0.000751165
0.000725514
0.000725612
0.000750829
0.000725981
0.000725657
0.000752957
0.000723292
0.00075095
0.000725651
0.000725561
0.000723324
0.000718578
0.00068724
0.00071697
0.000717382
0.000689796
0.000690011
0.000718998
0.000687709
0.000716847
0.000716929
0.000689776
0.000690016
0.000717133
0.000690112
0.000690294
0.000718595
0.000687725
0.000717002
0.000690117
0.000690282
0.000687888
0.000681921
0.000649028
0.0006801
0.00068036
0.000650763
0.000650078
0.000682476
0.00064796
0.000680148
0.0006806
0.000650978
0.000650728
0.000680822
0.000649989
0.000650609
0.000682607
0.000648457
0.00068089
0.000650691
0.00065083
0.000648429
0.000643828
0.000611233
0.000641316
0.000640403
0.000613128
0.000613048
0.000642781
0.000611225
0.000641402
0.000640614
0.000612815
0.000611944
0.000640358
0.000612667
0.000611701
0.000643002
0.00061016
0.000640489
0.000611534
0.000611336
0.000610038
0.000606193
0.0005745
0.000603808
0.000603953
0.000576369
0.000576707
0.000606257
0.000575071
0.000603492
0.000602895
0.000576422
0.000577075
0.000602774
0.000577047
0.000577176
0.000605248
0.000575552
0.000602383
0.000577388
0.000577262
0.000575517
0.000569663
0.000540404
0.000567383
0.000567766
0.000542355
0.000542699
0.000570287
0.00054077
0.000567578
0.000568894
0.000542585
0.000543615
0.000568932
0.000542921
0.000544321
0.000571204
0.000541518
0.000569224
0.000544009
0.000544561
0.00054197
0.000536177
0.000510406
0.000534726
0.000535065
0.000512523
0.000512755
0.000536605
0.000510359
0.000534744
0.000535117
0.000512207
0.000511092
0.000535812
0.000512208
0.000511082
0.000536896
0.000508735
0.000535831
0.000510597
0.000510713
0.000508893
0.000506234
0.00047657
0.000504855
0.000504734
0.00047875
0.000478049
0.000505952
0.000475723
0.000504436
0.000503145
0.000479049
0.000478745
0.000502996
0.000477874
0.000477812
0.000504362
0.000476475
0.00050267
0.00047857
0.000478162
0.000475898
0.000471482
0.000437893
0.000469198
0.000468572
0.000439978
0.000439348
0.000470659
0.000437463
0.000469715
0.000469917
0.000440478
0.000441635
0.000468944
0.000439837
0.000441105
0.000471717
0.000439711
0.000469561
0.00044208
0.000441618
0.000439177
0.000432541
0.000401164
0.000430146
0.00043014
0.000403322
0.000404184
0.00043257
0.000402345
0.000430554
0.000431698
0.000402435
0.000402168
0.000431738
0.00040423
0.000403443
0.0004343
0.000400234
0.00043191
0.000402238
0.0004027
0.000401077
0.000396265
0.00036408
0.000394593
0.000395165
0.000366528
0.000366637
0.00039731
0.000364153
0.000393575
0.000392709
0.000366027
0.00036505
0.000394029
0.000366316
0.000365704
0.000395131
0.000362774
0.000393143
0.000364706
0.000365227
0.000363275
0.000358852
0.000325697
0.000356729
0.000356567
0.000327469
0.000327069
0.000358711
0.000324812
0.000356538
0.000355772
0.000327979
0.000328399
0.000356044
0.000327015
0.000327385
0.000357639
0.000326346
0.000355854
0.000328378
0.00032797
0.000325685
0.000320713
0.000290188
0.000318144
0.000317697
0.000291841
0.000291557
0.000319749
0.000289715
0.000318801
0.000319453
0.00029222
0.000292763
0.000318227
0.000291533
0.000291657
0.000321425
0.000290743
0.000318885
0.000292762
0.000292066
0.000290036
0.000285523
0.000255163
0.000283286
0.000283107
0.000257379
0.000257603
0.000285104
0.00025573
0.000283512
0.000283866
0.000257194
0.000257325
0.000283033
0.000257658
0.000257499
0.000285936
0.000255326
0.000283176
0.00025742
0.000257324
0.000255391
0.000250352
0.000219945
0.000248583
0.000248923
0.000222143
0.000222395
0.000250997
0.000220406
0.000248333
0.000248318
0.000221964
0.000221807
0.000248935
0.000222601
0.000222849
0.000250485
0.000219881
0.000248719
0.000222003
0.000222646
0.000220601
0.000215203
0.000185041
0.000213376
0.000213566
0.000187081
0.000187012
0.000215597
0.000184854
0.00021325
0.000213099
0.000187046
0.000186871
0.000213987
0.000186955
0.000187017
0.000215135
0.00018472
0.000213818
0.000186825
0.000186975
0.000184903
0.000180235
0.000149212
0.000178239
0.000178112
0.00015126
0.000151157
0.000179996
0.000148998
0.000178231
0.000178031
0.000151296
0.000151259
0.000177939
0.000150992
0.000150781
0.000179876
0.000149106
0.00017794
0.000151102
0.000150823
0.000148773
0.000144214
0.000112249
0.000142102
0.000142025
0.000114337
0.000114336
0.000144024
0.000112244
0.000142148
0.000142151
0.000114376
0.000114427
0.00014169
0.000114303
0.000114194
0.000144127
0.000112342
0.000141732
0.000114408
0.000114235
0.000112097
0.000107162
7.55171e-05
0.000105057
0.000105078
7.74743e-05
7.75209e-05
0.000107196
7.55672e-05
0.000105088
0.000105176
7.75176e-05
7.76581e-05
0.000104999
7.7601e-05
7.77455e-05
0.000107295
7.56942e-05
0.000105053
7.77393e-05
7.77839e-05
7.57622e-05
7.05502e-05
3.97809e-05
6.84755e-05
6.84998e-05
4.17913e-05
4.18052e-05
7.05989e-05
3.98364e-05
6.85075e-05
6.8601e-05
4.17569e-05
4.17754e-05
6.87421e-05
4.18451e-05
4.18878e-05
7.0713e-05
3.98116e-05
6.87655e-05
4.1819e-05
4.1862e-05
3.9885e-05
3.49321e-05
8.27865e-06
3.31427e-05
3.3166e-05
1.13056e-05
1.13625e-05
3.49899e-05
8.33373e-06
3.31052e-05
3.31111e-05
1.12317e-05
1.10501e-05
3.32231e-05
1.13473e-05
1.12468e-05
3.49303e-05
8.04274e-06
3.31894e-05
1.10328e-05
1.11703e-05
8.16495e-06
5.1463e-06
6.95922e-06
7.01402e-06
5.16929e-06
6.87411e-06
6.76118e-06
6.166e-06
5.87441e-06
6.02258e-06
6.84482e-06
4.95408e-06
6.76317e-06
0.00362591
0.00363567
0.00363047
0.00363047
0.00365285
0.00363963
0.00366824
0.00363368
0.00365285
0.00363964
0.00363368
0.00366825
0.00364421
0.00367198
0.00367198
0.00358126
0.0036004
0.00360961
0.00357334
0.00357408
0.00357684
0.00358125
0.00360039
0.00360959
0.00357333
0.00360413
0.00360413
0.00360413
0.00356072
0.00356072
0.00356072
0.00356072
0.00357877
0.00360459
0.00360453
0.00358759
0.00360761
0.00357768
0.00358848
0.0035742
0.00357684
0.00357877
0.00360453
0.00360459
0.0035876
0.00360762
0.00358848
0.00357768
0.00361047
0.00361046
0.00358199
0.00357731
0.00357731
0.00353464
0.00355391
0.00355528
0.00353318
0.00355283
0.00353273
0.00353463
0.00355392
0.00355527
0.00353317
0.00354877
0.00354877
0.00354877
0.00351118
0.00351118
0.00351118
0.00351118
0.00353322
0.00355399
0.00354877
0.0035369
0.00355278
0.00353376
0.00353663
0.00355282
0.00353273
0.00353322
0.00354877
0.00355398
0.0035369
0.00355278
0.00353663
0.00353376
0.00355501
0.003555
0.00353345
0.00353409
0.00353409
0.00348237
0.00350117
0.00350225
0.00348135
0.00350081
0.00348107
0.00348237
0.00350117
0.00350225
0.00348135
0.00349802
0.00349802
0.00349802
0.00345864
0.00345864
0.00345864
0.00345864
0.00348147
0.00350158
0.00349789
0.00348485
0.00350101
0.00348183
0.00348475
0.00350081
0.00348106
0.00348147
0.00349789
0.00350157
0.00348485
0.00350101
0.00348475
0.00348183
0.00350182
0.00350182
0.00348146
0.0034819
0.0034819
0.00342984
0.0034485
0.00344936
0.00342907
0.00344829
0.0034289
0.00342985
0.0034485
0.00344936
0.00342908
0.00344563
0.00344563
0.00344563
0.003407
0.003407
0.003407
0.003407
0.00342934
0.00344891
0.0034456
0.00343269
0.00344862
0.00342952
0.00343266
0.00344829
0.0034289
0.00342934
0.0034456
0.00344891
0.00343269
0.00344862
0.00343266
0.00342952
0.00344894
0.00344895
0.00342938
0.00342946
0.00342946
0.00337865
0.003397
0.00339763
0.00337809
0.00339686
0.00337796
0.00337865
0.003397
0.00339763
0.00337809
0.00339428
0.00339428
0.00339428
0.00335666
0.00335666
0.00335666
0.00335666
0.00337838
0.00339735
0.00339426
0.00338166
0.00339718
0.00337849
0.00338163
0.00339686
0.00337796
0.00337838
0.00339426
0.00339735
0.00338166
0.00339718
0.00338163
0.00337849
0.00339734
0.00339734
0.00337846
0.0033784
0.0033784
0.003329
0.00334695
0.00334741
0.00332861
0.00334684
0.0033285
0.003329
0.00334695
0.00334741
0.00332861
0.0033443
0.0033443
0.0033443
0.00330778
0.00330778
0.00330778
0.00330778
0.00332889
0.00334725
0.00334429
0.00333205
0.00334714
0.00332896
0.00333203
0.00334684
0.0033285
0.00332889
0.00334429
0.00334725
0.00333205
0.00334714