/*--------------------------------*- C++ -*----------------------------------*\
| =========                 |                                                 |
| \\      /  F ield         | OpenFOAM: The Open Source CFD Toolbox           |
|  \\    /   O peration     | Version:  v2012                                 |
|   \\  /    A nd           | Website:  www.openfoam.com                      |
|    \\/     M anipulation  |                                                 |
\*---------------------------------------------------------------------------*/
FoamFile
{
    version     2.0;
    format      ascii;
    class       volScalarField;
    location    "1450";
    object      k;
}
// * * * * * * * * * * * * * * * * * * * * * * * * * * * * * * * * * * * * * //

dimensions      [0 2 -2 0 0 0 0];


internalField   nonuniform List<scalar> 
171728
(
1.58158e-07
3.00051e-07
3.46459e-07
3.60582e-07
1.56495e-07
2.87786e-07
3.29036e-07
3.40829e-07
1.51492e-07
2.73052e-07
3.11446e-07
3.22386e-07
1.47447e-07
2.55568e-07
2.95341e-07
3.04309e-07
1.45676e-07
2.36964e-07
2.8102e-07
2.88317e-07
1.41854e-07
2.20051e-07
2.6869e-07
2.74587e-07
1.40361e-07
2.05706e-07
2.56942e-07
2.61912e-07
1.3372e-07
1.93992e-07
2.46824e-07
2.50402e-07
1.30494e-07
1.85276e-07
2.33982e-07
2.39983e-07
1.29885e-07
1.78514e-07
2.22467e-07
2.30607e-07
1.2688e-07
1.75781e-07
2.10305e-07
2.23111e-07
1.23638e-07
1.7425e-07
1.95977e-07
2.17254e-07
1.20826e-07
1.72832e-07
1.83082e-07
2.11847e-07
1.17301e-07
1.71256e-07
1.7632e-07
2.10492e-07
1.13884e-07
1.70521e-07
1.75937e-07
2.13462e-07
1.11226e-07
1.73558e-07
1.80498e-07
2.20521e-07
1.0936e-07
1.82138e-07
1.88969e-07
2.33427e-07
1.06588e-07
1.9847e-07
2.05708e-07
2.53678e-07
1.03265e-07
2.28013e-07
2.32629e-07
2.82967e-07
1.01158e-07
2.78396e-07
2.83235e-07
3.36912e-07
1.00396e-07
3.51643e-07
3.5429e-07
4.30401e-07
9.99426e-08
4.69038e-07
4.78875e-07
7.05141e-07
9.97464e-08
6.29187e-07
6.2913e-07
9.78033e-07
1.00099e-07
8.75915e-07
8.66689e-07
2.67336e-06
1.0245e-07
1.17063e-06
1.18322e-06
2.12329e-06
1.04956e-07
1.57471e-06
1.58334e-06
2.90898e-06
1.12383e-07
2.18017e-06
2.14099e-06
8.47089e-06
1.25541e-07
2.67169e-06
2.75751e-06
8.14294e-06
1.37678e-07
3.55511e-06
3.46853e-06
1.08142e-05
1.69617e-07
4.39225e-06
4.43744e-06
1.27063e-05
1.90144e-07
5.19668e-06
5.2547e-06
1.34747e-05
2.532e-07
6.67925e-06
6.5727e-06
1.814e-05
3.14643e-07
7.59571e-06
7.87207e-06
1.97512e-05
4.00067e-07
9.2469e-06
8.90573e-06
2.1462e-05
5.63817e-07
1.04001e-05
1.06941e-05
2.32509e-05
6.68759e-07
1.21468e-05
1.23299e-05
2.5162e-05
8.92166e-07
1.38056e-05
1.32728e-05
2.64478e-05
1.40076e-06
1.52641e-05
1.5949e-05
2.76193e-05
1.48001e-06
1.72469e-05
1.70577e-05
2.95892e-05
1.70333e-06
1.905e-05
1.87332e-05
3.05909e-05
2.47857e-06
2.09741e-05
2.16811e-05
3.13603e-05
2.77348e-06
2.25873e-05
2.25942e-05
3.28569e-05
3.27117e-06
2.43528e-05
2.39895e-05
3.42264e-05
4.24282e-06
2.63077e-05
2.68967e-05
3.53379e-05
4.98988e-06
2.75721e-05
2.7742e-05
3.59259e-05
5.65857e-06
3.0027e-05
2.92884e-05
3.71857e-05
7.31959e-06
3.09333e-05
3.17844e-05
3.8514e-05
7.72408e-06
3.28731e-05
3.22862e-05
3.89454e-05
9.02553e-06
3.42439e-05
3.44389e-05
4.07589e-05
1.13031e-05
3.56918e-05
3.54451e-05
4.1115e-05
1.18126e-05
3.70589e-05
3.71095e-05
4.25673e-05
1.3593e-05
3.72589e-05
3.78995e-05
4.30139e-05
1.46911e-05
3.97556e-05
3.82602e-05
4.35158e-05
1.65556e-05
4.13145e-05
4.16368e-05
4.58675e-05
1.93451e-05
4.09936e-05
4.23211e-05
4.56261e-05
1.97424e-05
4.10421e-05
4.16534e-05
4.53558e-05
1.99069e-05
4.36238e-05
4.18591e-05
4.69125e-05
2.32981e-05
4.55697e-05
4.53289e-05
4.89787e-05
2.55533e-05
4.56463e-05
4.63335e-05
4.88644e-05
2.60599e-05
4.54919e-05
4.58375e-05
4.8638e-05
2.62224e-05
4.60808e-05
4.58025e-05
4.97197e-05
2.74389e-05
4.8124e-05
4.80792e-05
5.01302e-05
3.07346e-05
4.91315e-05
4.89324e-05
5.09487e-05
3.19735e-05
4.92726e-05
4.91262e-05
5.24272e-05
3.21743e-05
5.00821e-05
5.03936e-05
5.24183e-05
3.34753e-05
5.03218e-05
5.06539e-05
5.19905e-05
3.4521e-05
5.07632e-05
5.06519e-05
5.31197e-05
3.49014e-05
5.22361e-05
5.15388e-05
5.41954e-05
3.65646e-05
5.24502e-05
5.24178e-05
5.3943e-05
3.77482e-05
5.2369e-05
5.34353e-05
5.41803e-05
3.8503e-05
5.34975e-05
5.38901e-05
5.58153e-05
3.94939e-05
5.42617e-05
5.33259e-05
5.54882e-05
4.00398e-05
5.37703e-05
5.29895e-05
5.43344e-05
4.01511e-05
5.38399e-05
5.44384e-05
5.55735e-05
4.16668e-05
5.56266e-05
5.60568e-05
5.75888e-05
4.32711e-05
5.58751e-05
5.59612e-05
5.75013e-05
4.33689e-05
5.53663e-05
5.53962e-05
5.62769e-05
4.32238e-05
5.53734e-05
5.55193e-05
5.57647e-05
4.35738e-05
5.59187e-05
5.5637e-05
5.66408e-05
4.41814e-05
5.63384e-05
5.59892e-05
5.85123e-05
4.53165e-05
5.71025e-05
5.72835e-05
5.89777e-05
4.59716e-05
5.69862e-05
5.73149e-05
5.73803e-05
4.58125e-05
5.64181e-05
5.63899e-05
5.6511e-05
4.54712e-05
5.66469e-05
5.64621e-05
5.7882e-05
4.59302e-05
5.74803e-05
5.75289e-05
5.9201e-05
4.71693e-05
5.76617e-05
5.74508e-05
5.85676e-05
4.71036e-05
5.68093e-05
5.63631e-05
5.68002e-05
4.60909e-05
5.62559e-05
5.63462e-05
5.69982e-05
4.60006e-05
5.73375e-05
5.81743e-05
5.96481e-05
4.7501e-05
5.82917e-05
5.85287e-05
6.01216e-05
4.77884e-05
5.70216e-05
5.63418e-05
5.685e-05
4.62552e-05
5.53069e-05
5.51351e-05
5.53117e-05
4.57286e-05
5.62495e-05
5.66137e-05
5.81467e-05
4.6931e-05
5.80028e-05
5.8035e-05
6.02119e-05
4.75177e-05
5.63738e-05
5.63249e-05
5.83234e-05
3.58903e-07
3.38542e-07
3.23907e-07
3.49003e-07
2.9247e-07
3.18316e-07
1.5567e-07
1.59956e-07
1.79806e-07
1.61743e-07
3.0931e-07
3.214e-07
3.63347e-07
3.41358e-07
3.115e-07
3.6165e-07
3.57847e-07
3.43269e-07
4.59854e-07
3.54518e-07
4.22114e-07
3.47999e-07
3.47822e-07
3.30532e-07
2.55193e-07
3.90874e-07
2.46443e-07
3.8525e-07
3.60276e-07
2.9137e-07
3.47443e-07
3.60923e-07
3.43539e-07
2.84804e-07
3.3376e-07
2.7541e-07
3.42141e-07
3.41741e-07
3.22533e-07
4.00412e-07
3.46519e-07
3.40159e-07
3.44816e-07
3.27877e-07
3.137e-07
2.43389e-07
3.83172e-07
2.3427e-07
3.81312e-07
3.42692e-07
2.76821e-07
3.26075e-07
3.40341e-07
3.2558e-07
2.73223e-07
3.15704e-07
2.66826e-07
3.23719e-07
3.21149e-07
3.01757e-07
3.23283e-07
3.4481e-07
2.80912e-07
3.46644e-07
3.11056e-07
2.99349e-07
2.3129e-07
3.81565e-07
2.22758e-07
3.89291e-07
3.18941e-07
2.60179e-07
2.96096e-07
3.22726e-07
3.12478e-07
2.64608e-07
2.99199e-07
2.58164e-07
3.05571e-07
3.00678e-07
2.83557e-07
2.68662e-07
3.4884e-07
2.40714e-07
3.59138e-07
2.97108e-07
2.87903e-07
2.20125e-07
3.96711e-07
2.12727e-07
4.37709e-07
2.89261e-07
2.41524e-07
2.71963e-07
3.11318e-07
3.11737e-07
2.55972e-07
2.8431e-07
2.4914e-07
2.89367e-07
2.82701e-07
2.68236e-07
2.34814e-07
3.63441e-07
2.24166e-07
3.79166e-07
2.86181e-07
2.8052e-07
2.10536e-07
4.51671e-07
2.04182e-07
4.91268e-07
2.67134e-07
2.23912e-07
2.55404e-07
3.11071e-07
3.14324e-07
2.46651e-07
2.71728e-07
2.39132e-07
2.75448e-07
2.67487e-07
2.54378e-07
2.2192e-07
3.8411e-07
2.1641e-07
4.01082e-07
2.79505e-07
2.78253e-07
2.02231e-07
5.15199e-07
1.9668e-07
6.53849e-07
2.52098e-07
2.09088e-07
2.42758e-07
3.14093e-07
3.38484e-07
2.3668e-07
2.59744e-07
2.2943e-07
2.62655e-07
2.5375e-07
2.42373e-07
2.1467e-07
4.11995e-07
2.09675e-07
4.63102e-07
2.7807e-07
2.85862e-07
1.95018e-07
7.10458e-07
1.90186e-07
8.26064e-07
2.39795e-07
1.96523e-07
2.3121e-07
3.40363e-07
3.69984e-07
2.27114e-07
2.49347e-07
2.20898e-07
2.51045e-07
2.41922e-07
2.32115e-07
2.08059e-07
4.80574e-07
2.03452e-07
5.08204e-07
2.86072e-07
2.92177e-07
1.88676e-07
8.3727e-07
1.84642e-07
8.00154e-07
2.28556e-07
1.87215e-07
2.21642e-07
3.68582e-07
3.3978e-07
2.19185e-07
2.37414e-07
2.15246e-07
2.40509e-07
2.31852e-07
2.23217e-07
2.02008e-07
5.0881e-07
1.98088e-07
4.5551e-07
2.91556e-07
2.6595e-07
1.8345e-07
7.03985e-07
1.80408e-07
4.32159e-07
2.1946e-07
1.79878e-07
2.13239e-07
3.16835e-07
2.52292e-07
2.1431e-07
2.25125e-07
2.11864e-07
2.31036e-07
2.23019e-07
2.14796e-07
1.97062e-07
4.073e-07
1.94257e-07
2.91052e-07
2.59275e-07
2.2435e-07
1.79588e-07
3.68278e-07
1.78118e-07
2.45971e-07
2.11874e-07
1.76124e-07
2.10846e-07
2.49199e-07
2.23767e-07
2.1089e-07
2.13554e-07
2.07006e-07
2.23325e-07
2.14664e-07
2.07761e-07
1.93106e-07
2.63151e-07
1.91262e-07
2.09193e-07
2.23015e-07
2.07658e-07
1.77987e-07
2.24296e-07
1.77881e-07
1.93709e-07
2.10893e-07
1.74687e-07
2.12004e-07
2.22141e-07
2.06348e-07
2.05339e-07
1.99644e-07
1.99921e-07
2.17419e-07
2.07758e-07
2.02775e-07
1.91266e-07
1.99067e-07
1.91975e-07
1.83663e-07
2.07192e-07
1.99091e-07
1.77956e-07
1.89478e-07
1.78653e-07
1.82731e-07
2.13459e-07
1.73162e-07
2.20687e-07
2.05654e-07
1.94952e-07
1.98172e-07
1.85915e-07
1.93701e-07
2.11807e-07
2.0294e-07
2.00458e-07
1.92379e-07
1.81841e-07
1.96707e-07
1.8098e-07
1.99138e-07
1.93399e-07
1.79087e-07
1.81465e-07
1.81107e-07
1.80526e-07
2.2363e-07
1.71497e-07
2.34561e-07
1.94702e-07
1.8867e-07
1.92695e-07
1.77396e-07
1.89154e-07
2.09895e-07
2.01012e-07
2.0152e-07
1.9949e-07
1.81224e-07
2.1069e-07
1.84467e-07
1.93649e-07
1.90472e-07
1.81898e-07
1.80693e-07
1.84583e-07
1.83144e-07
2.39396e-07
1.70439e-07
2.5714e-07
1.88861e-07
1.86164e-07
1.88177e-07
1.75672e-07
1.8583e-07
2.12069e-07
2.02646e-07
2.05633e-07
2.15011e-07
1.86141e-07
2.29733e-07
1.92115e-07
1.9121e-07
1.91276e-07
1.85611e-07
1.84129e-07
1.89351e-07
1.88386e-07
2.64024e-07
1.72514e-07
2.87982e-07
1.8693e-07
1.87872e-07
1.84812e-07
1.78962e-07
1.83736e-07
2.18057e-07
2.07795e-07
2.13849e-07
2.34963e-07
1.94835e-07
2.49781e-07
2.03521e-07
1.92978e-07
1.97565e-07
1.91142e-07
1.90134e-07
1.97901e-07
1.98639e-07
2.97258e-07
1.79364e-07
3.2978e-07
1.89594e-07
1.94528e-07
1.83413e-07
1.8634e-07
1.84614e-07
2.29165e-07
2.17545e-07
2.28511e-07
2.55033e-07
2.07901e-07
2.68089e-07
2.22187e-07
2.01075e-07
2.12148e-07
2.01299e-07
2.0185e-07
2.13321e-07
2.16138e-07
3.41631e-07
1.93415e-07
3.72603e-07
1.98094e-07
2.09889e-07
1.85532e-07
2.00709e-07
1.94087e-07
2.47232e-07
2.34832e-07
2.56369e-07
2.71847e-07
2.27994e-07
2.84047e-07
2.52184e-07
2.18655e-07
2.42557e-07
2.19081e-07
2.21212e-07
2.392e-07
2.42842e-07
3.82707e-07
2.19635e-07
4.03332e-07
2.16123e-07
2.39402e-07
1.96464e-07
2.25051e-07
2.15256e-07
2.7264e-07
2.66385e-07
3.19927e-07
2.88503e-07
2.6173e-07
3.21904e-07
2.97247e-07
2.54758e-07
3.05527e-07
2.46455e-07
2.52367e-07
2.85176e-07
2.88925e-07
4.07285e-07
2.65455e-07
3.99148e-07
2.51418e-07
2.99077e-07
2.22988e-07
2.68149e-07
2.54986e-07
3.21284e-07
3.41899e-07
4.09575e-07
3.30367e-07
3.10659e-07
3.61522e-07
3.60744e-07
3.26384e-07
4.0648e-07
2.98136e-07
3.03123e-07
3.4691e-07
3.54501e-07
3.98003e-07
3.26394e-07
4.05341e-07
3.19538e-07
3.98621e-07
2.71286e-07
3.31664e-07
3.06678e-07
3.97989e-07
4.49698e-07
6.27113e-07
3.85925e-07
3.85915e-07
4.75281e-07
4.75233e-07
4.44232e-07
6.39262e-07
3.6836e-07
3.80543e-07
4.55908e-07
4.70519e-07
4.15807e-07
4.3717e-07
4.8422e-07
4.35719e-07
6.2874e-07
3.34944e-07
4.46717e-07
4.36179e-07
6.4691e-07
6.9273e-07
9.495e-07
5.14937e-07
5.07097e-07
6.02707e-07
6.17297e-07
6.99773e-07
9.5006e-07
4.94812e-07
4.99969e-07
5.86346e-07
6.10867e-07
5.18271e-07
5.83206e-07
6.26158e-07
6.82077e-07
9.28078e-07
4.62504e-07
5.76049e-07
5.20907e-07
9.19247e-07
1.00944e-06
1.62455e-06
6.5488e-07
6.60693e-07
8.51252e-07
8.23341e-07
1.03762e-06
1.5346e-06
6.38123e-07
6.66667e-07
8.37015e-07
8.40476e-07
6.45983e-07
7.96865e-07
8.85485e-07
1.02564e-06
1.53983e-06
5.57914e-07
8.10949e-07
1.0318e-06
2.11339e-06
1.75313e-06
2.24667e-06
8.83084e-07
8.97193e-07
1.10915e-06
1.12869e-06
1.6757e-06
2.44414e-06
8.76758e-07
8.96413e-07
1.09771e-06
1.15833e-06
1.08849e-06
1.10114e-06
1.2071e-06
1.67864e-06
2.33655e-06
1.12952e-06
1.10546e-06
1.07222e-06
2.50344e-06
2.52459e-06
3.75126e-06
1.23772e-06
1.20313e-06
1.51105e-06
1.50509e-06
2.65526e-06
3.4693e-06
1.22688e-06
1.25047e-06
1.49331e-06
1.4923e-06
1.14991e-06
1.46503e-06
1.16302e-06
2.56469e-06
3.48349e-06
1.00651e-06
1.44281e-06
1.15643e-06
1.91396e-06
3.94832e-06
5.06198e-06
1.61084e-06
1.60924e-06
2.00573e-06
2.00837e-06
3.76772e-06
5.25056e-06
1.58439e-06
1.62389e-06
2.00547e-06
2.06115e-06
1.39145e-06
2.00663e-06
2.47196e-06
3.71044e-06
5.2915e-06
1.6172e-06
2.02174e-06
2.71009e-06
8.23582e-06
5.46886e-06
7.29808e-06
2.14582e-06
2.18039e-06
2.63133e-06
2.57222e-06
5.59546e-06
7.26552e-06
2.13633e-06
2.17496e-06
2.61185e-06
2.61093e-06
2.60158e-06
2.57178e-06
2.70792e-06
5.68209e-06
7.03222e-06
2.81801e-06
2.55111e-06
2.90701e-06
8.11397e-06
7.70532e-06
9.50111e-06
2.80186e-06
2.69507e-06
3.34637e-06
3.30834e-06
7.58347e-06
9.19128e-06
2.8246e-06
2.8259e-06
3.31113e-06
3.42053e-06
2.75297e-06
3.27072e-06
3.36738e-06
7.47273e-06
9.64965e-06
2.97102e-06
3.34498e-06
4.13215e-06
1.00682e-05
9.9534e-06
1.18968e-05
3.53363e-06
3.57071e-06
4.18999e-06
4.23431e-06
9.83985e-06
1.23315e-05
3.46569e-06
3.55187e-06
4.17896e-06
4.13402e-06
3.66505e-06
4.24952e-06
4.35052e-06
1.00593e-05
1.16428e-05
4.5082e-06
4.12204e-06
4.88134e-06
1.25304e-05
1.2435e-05
1.45128e-05
4.51047e-06
4.40643e-06
5.09664e-06
4.97209e-06
1.27208e-05
1.39044e-05
4.46088e-06
4.45419e-06
5.08122e-06
5.21847e-06
4.46205e-06
4.91459e-06
4.71889e-06
1.21767e-05
1.45865e-05
4.88189e-06
5.07641e-06
4.89474e-06
1.30537e-05
1.49531e-05
1.67834e-05
5.27863e-06
5.21924e-06
6.3259e-06
6.30864e-06
1.43606e-05
1.69437e-05
5.34212e-06
5.3774e-06
6.26388e-06
6.25876e-06
4.98994e-06
6.30473e-06
6.38998e-06
1.50805e-05
1.65673e-05
4.99921e-06
6.20411e-06
6.89914e-06
1.738e-05
1.73341e-05
1.91573e-05
6.68663e-06
6.70414e-06
7.55699e-06
7.42762e-06
1.75783e-05
1.90843e-05
6.51508e-06
6.5999e-06
7.5778e-06
7.53499e-06
6.86822e-06
7.40708e-06
7.59231e-06
1.70725e-05
1.92859e-05
7.46552e-06
7.53393e-06
8.25697e-06
1.94727e-05
1.95377e-05
2.08e-05
7.73926e-06
7.56811e-06
8.5623e-06
8.74027e-06
1.94098e-05
2.09403e-05
7.88878e-06
7.91639e-06
8.4803e-06
8.73439e-06
7.70226e-06
8.68445e-06
8.90241e-06
1.9761e-05
2.08634e-05
8.32442e-06
8.69755e-06
9.0014e-06
2.09658e-05
2.13825e-05
2.34994e-05
9.12276e-06
9.29216e-06
1.07725e-05
1.0302e-05
2.14659e-05
2.30203e-05
8.90871e-06
8.92948e-06
1.06679e-05
1.02997e-05
9.42378e-06
1.01915e-05
1.02212e-05
2.1217e-05
2.30259e-05
9.33482e-06
1.01186e-05
9.93455e-06
2.2896e-05
2.37848e-05
2.42424e-05
1.11175e-05
1.05782e-05
1.16633e-05
1.15931e-05
2.33686e-05
2.45011e-05
1.11196e-05
1.09051e-05
1.1849e-05
1.22269e-05
1.04464e-05
1.1616e-05
1.18505e-05
2.35701e-05
2.47809e-05
1.02935e-05
1.21086e-05
1.17755e-05
2.46776e-05
2.44692e-05
2.59922e-05
1.17465e-05
1.19679e-05
1.29971e-05
1.32353e-05
2.49051e-05
2.62278e-05
1.19419e-05
1.24431e-05
1.25951e-05
1.27781e-05
1.2442e-05
1.33707e-05
1.37705e-05
2.50344e-05
2.57295e-05
1.23193e-05
1.27503e-05
1.35184e-05
2.62165e-05
2.66926e-05
2.83503e-05
1.43557e-05
1.37987e-05
1.66609e-05
1.52753e-05
2.65939e-05
2.75466e-05
1.36057e-05
1.31312e-05
1.61474e-05
1.55471e-05
1.39296e-05
1.49453e-05
1.4627e-05
2.61136e-05
2.80059e-05
1.36502e-05
1.54567e-05
1.46533e-05
2.72223e-05
2.85157e-05
2.87024e-05
1.68784e-05
1.56067e-05
1.70711e-05
1.684e-05
2.78499e-05
2.89217e-05
1.65517e-05
1.6071e-05
1.6976e-05
1.68611e-05
1.51444e-05
1.66614e-05
1.69247e-05
2.83334e-05
2.87813e-05
1.52774e-05
1.68817e-05
1.69456e-05
2.92191e-05
2.89117e-05
3.01231e-05
1.70888e-05
1.73182e-05
1.78366e-05
1.84774e-05
2.92703e-05
3.01709e-05
1.70504e-05
1.69678e-05
1.82594e-05
1.80597e-05
1.75206e-05
1.87685e-05
1.90196e-05
2.89584e-05
2.99573e-05
1.74042e-05
1.80405e-05
1.89085e-05
3.03738e-05
3.06153e-05
3.17019e-05
1.88593e-05
1.88369e-05
2.11128e-05
2.05031e-05
3.04463e-05
3.14807e-05
1.89178e-05
1.88398e-05
2.08806e-05
2.11823e-05
1.94149e-05
2.03138e-05
2.0223e-05
3.04517e-05
3.19196e-05
1.94074e-05
2.11077e-05
2.03235e-05
3.11166e-05
3.19442e-05
3.24092e-05
2.15799e-05
2.11882e-05
2.22134e-05
2.26857e-05
3.18303e-05
3.26442e-05
2.1441e-05
2.16696e-05
2.22677e-05
2.23167e-05
2.04701e-05
2.23538e-05
2.19236e-05
3.21413e-05
3.23856e-05
2.04301e-05
2.25113e-05
2.16001e-05
3.24961e-05
3.25799e-05
3.35885e-05
2.22961e-05
2.28557e-05
2.37697e-05
2.36579e-05
3.28441e-05
3.35769e-05
2.2359e-05
2.23786e-05
2.36061e-05
2.30623e-05
2.26243e-05
2.37218e-05
2.46058e-05
3.25059e-05
3.3399e-05
2.232e-05
2.31842e-05
2.43536e-05
3.39573e-05
3.40093e-05
3.49836e-05
2.45045e-05
2.43118e-05
2.60242e-05
2.61422e-05
3.3899e-05
3.48902e-05
2.42307e-05
2.40623e-05
2.59938e-05
2.64921e-05
2.49186e-05
2.60594e-05
2.56893e-05
3.3875e-05
3.52618e-05
2.50281e-05
2.63971e-05
2.67727e-05
3.50954e-05
3.51978e-05
3.5789e-05
2.64397e-05
2.64454e-05
2.71855e-05
2.69739e-05
3.50892e-05
3.57044e-05
2.65878e-05
2.68982e-05
2.76771e-05
2.74184e-05
2.62786e-05
2.7048e-05
2.73523e-05
3.54379e-05
3.56858e-05
2.71268e-05
2.76615e-05
2.7631e-05
3.58005e-05
3.59688e-05
3.69802e-05
2.73829e-05
2.74197e-05
2.90269e-05
2.94141e-05
3.5974e-05
3.71805e-05
2.77964e-05
2.74948e-05
2.90726e-05
2.88003e-05
2.75273e-05
2.94751e-05
2.91201e-05
3.58212e-05
3.67959e-05
2.76786e-05
2.83872e-05
2.81994e-05
3.67543e-05
3.73899e-05
3.83345e-05
2.97869e-05
3.00737e-05
3.13106e-05
3.12113e-05
3.74692e-05
3.81611e-05
2.9801e-05
2.97489e-05
3.13159e-05
3.15859e-05
2.98378e-05
3.08275e-05
3.12432e-05
3.72508e-05
3.85056e-05
2.90912e-05
3.14099e-05
3.14235e-05
3.83841e-05
3.8425e-05
3.84876e-05
3.15186e-05
3.1322e-05
3.17439e-05
3.24533e-05
3.83078e-05
3.91302e-05
3.15367e-05
3.1864e-05
3.17589e-05
3.22711e-05
3.14178e-05
3.22514e-05
3.16747e-05
3.8652e-05
3.89233e-05
3.18249e-05
3.21944e-05
3.22231e-05
3.87528e-05
3.86327e-05
4.03963e-05
3.1909e-05
3.30281e-05
3.40399e-05
3.4277e-05
3.94763e-05
4.03446e-05
3.18459e-05
3.23192e-05
3.36497e-05
3.29756e-05
3.19948e-05
3.41129e-05
3.41873e-05
3.9034e-05
3.99066e-05
3.23697e-05
3.38051e-05
3.41265e-05
4.05029e-05
4.07837e-05
4.13504e-05
3.46485e-05
3.44868e-05
3.56041e-05
3.48088e-05
4.04607e-05
4.08885e-05
3.44157e-05
3.38502e-05
3.57954e-05
3.6013e-05
3.46762e-05
3.50732e-05
3.53269e-05
4.02845e-05
4.153e-05
3.46454e-05
3.53275e-05
3.53629e-05
4.10422e-05
4.14359e-05
4.19265e-05
3.57034e-05
3.51661e-05
3.61995e-05
3.6561e-05
4.11796e-05
4.21906e-05
3.59672e-05
3.65575e-05
3.6559e-05
3.7399e-05
3.53891e-05
3.69106e-05
3.649e-05
4.17581e-05
4.2405e-05
3.54227e-05
3.66457e-05
3.63817e-05
4.21601e-05
4.22069e-05
4.27968e-05
3.67194e-05
3.68252e-05
3.7742e-05
3.71606e-05
4.22577e-05
4.21051e-05
3.69816e-05
3.74253e-05
3.77962e-05
3.72504e-05
3.71361e-05
3.72196e-05
3.80329e-05
4.25081e-05
4.2325e-05
3.70576e-05
3.78187e-05
3.8078e-05
4.29936e-05
4.28609e-05
4.32666e-05
3.78651e-05
3.72825e-05
3.82627e-05
3.99849e-05
4.2154e-05
4.48637e-05
3.78981e-05
3.72161e-05
3.80978e-05
3.7274e-05
3.81155e-05
3.86864e-05
3.82972e-05
4.23368e-05
4.26058e-05
3.81764e-05
3.8067e-05
3.83416e-05
4.32028e-05
4.36023e-05
4.56402e-05
3.88613e-05
4.09735e-05
4.12121e-05
4.17611e-05
4.54425e-05
4.59175e-05
3.83096e-05
3.7582e-05
4.08202e-05
4.1489e-05
3.85335e-05
4.12543e-05
4.09258e-05
4.30219e-05
4.62144e-05
3.85201e-05
4.08918e-05
4.07305e-05
4.56641e-05
4.58055e-05
4.55254e-05
4.14658e-05
4.17007e-05
4.1489e-05
4.04505e-05
4.58257e-05
4.44143e-05
4.14414e-05
4.22845e-05
4.19208e-05
4.28636e-05
4.14049e-05
4.10843e-05
4.1718e-05
4.6559e-05
4.6587e-05
4.1322e-05
4.23343e-05
4.18338e-05
4.56388e-05
4.55261e-05
4.54564e-05
4.13822e-05
4.02644e-05
4.13245e-05
4.02075e-05
4.44124e-05
4.46142e-05
4.19068e-05
4.28236e-05
4.17874e-05
4.17069e-05
4.16883e-05
4.09652e-05
4.15492e-05
4.65401e-05
4.52897e-05
4.18199e-05
4.17523e-05
4.16049e-05
4.5315e-05
4.55546e-05
4.6659e-05
4.13345e-05
4.0321e-05
4.22392e-05
4.285e-05
4.48801e-05
4.73165e-05
4.1787e-05
4.14897e-05
4.2243e-05
4.13624e-05
4.15469e-05
4.28322e-05
4.20343e-05
4.52687e-05
4.53474e-05
4.15932e-05
4.16382e-05
4.1865e-05
4.63832e-05
4.70929e-05
4.83936e-05
4.30852e-05
4.38742e-05
4.50782e-05
4.59198e-05
4.78615e-05
4.92326e-05
4.28236e-05
4.14569e-05
4.43418e-05
4.43766e-05
4.29212e-05
4.53278e-05
4.51153e-05
4.57068e-05
4.85292e-05
4.25847e-05
4.4594e-05
4.50409e-05
4.87981e-05
4.86039e-05
4.90619e-05
4.55083e-05
4.61858e-05
4.60769e-05
4.62753e-05
4.93218e-05
4.88436e-05
4.48619e-05
4.54168e-05
4.60142e-05
4.69009e-05
4.54951e-05
4.56986e-05
4.5802e-05
4.90197e-05
4.98533e-05
4.54938e-05
4.63024e-05
4.58712e-05
4.88833e-05
4.9105e-05
4.86714e-05
4.60895e-05
4.61077e-05
4.57779e-05
4.53705e-05
4.87897e-05
4.82947e-05
4.61403e-05
4.69716e-05
4.61135e-05
4.65938e-05
4.57876e-05
4.54912e-05
4.5673e-05
4.98765e-05
4.89174e-05
4.58566e-05
4.59905e-05
4.5697e-05
4.85752e-05
4.86454e-05
4.84806e-05
4.56365e-05
4.52893e-05
4.55422e-05
4.53437e-05
4.83161e-05
4.87498e-05
4.59656e-05
4.62329e-05
4.57865e-05
4.58773e-05
4.56832e-05
4.57804e-05
4.64052e-05
4.88483e-05
4.85972e-05
4.56947e-05
4.57328e-05
4.62468e-05
4.95282e-05
4.86511e-05
5.06501e-05
4.55995e-05
4.5673e-05
4.75625e-05
4.78316e-05
4.90368e-05
5.07874e-05
4.57981e-05
4.58796e-05
4.71552e-05
4.69964e-05
4.6667e-05
4.76115e-05
4.72668e-05
4.87727e-05
5.04891e-05
4.65782e-05
4.75646e-05
4.72695e-05
5.00519e-05
5.10841e-05
5.17285e-05
4.82701e-05
4.84097e-05
4.92982e-05
4.92891e-05
5.11191e-05
5.16556e-05
4.79406e-05
4.7724e-05
4.91716e-05
4.89376e-05
4.74378e-05
4.90136e-05
4.81523e-05
5.08462e-05
5.13775e-05
4.74351e-05
4.88402e-05
4.80668e-05
5.0692e-05
5.17418e-05
5.1555e-05
4.93781e-05
4.93705e-05
4.94127e-05
4.94263e-05
5.16788e-05
5.15956e-05
4.92873e-05
4.90824e-05
4.93676e-05
4.92311e-05
4.85115e-05
4.92401e-05
4.96618e-05
5.14121e-05
5.14316e-05
4.83926e-05
4.90415e-05
4.96308e-05
5.22286e-05
5.15752e-05
5.20386e-05
4.94107e-05
4.94308e-05
4.95391e-05
4.96358e-05
5.16328e-05
5.2126e-05
4.93713e-05
4.92565e-05
4.9532e-05
4.97289e-05
4.99189e-05
4.9883e-05
5.01541e-05
5.15205e-05
5.23926e-05
4.99678e-05
5.01432e-05
5.03308e-05
5.24504e-05
5.22671e-05
5.2746e-05
4.98482e-05
4.98827e-05
5.05391e-05
5.02992e-05
5.22562e-05
5.23418e-05
4.98892e-05
5.0138e-05
5.07464e-05
5.09053e-05
5.0146e-05
5.0303e-05
5.0066e-05
5.25967e-05
5.28205e-05
5.03272e-05
5.06458e-05
5.01597e-05
5.19792e-05
5.27705e-05
5.27178e-05
5.06307e-05
5.03373e-05
5.07291e-05
5.05072e-05
5.23562e-05
5.2676e-05
5.0842e-05
5.097e-05
5.08926e-05
5.09282e-05
5.00655e-05
5.0476e-05
5.05675e-05
5.28297e-05
5.26969e-05
5.01441e-05
5.06481e-05
5.02528e-05
5.27644e-05
5.27584e-05
5.34016e-05
5.07685e-05
5.0776e-05
5.15417e-05
5.18882e-05
5.29107e-05
5.39791e-05
5.089e-05
5.08401e-05
5.09554e-05
5.07707e-05
5.11837e-05
5.20009e-05
5.21924e-05
5.2712e-05
5.30126e-05
5.05786e-05
5.12283e-05
5.19819e-05
5.41462e-05
5.36208e-05
5.42125e-05
5.18707e-05
5.21541e-05
5.24036e-05
5.24753e-05
5.41148e-05
5.42151e-05
5.11659e-05
5.07954e-05
5.23611e-05
5.18411e-05
5.22643e-05
5.24544e-05
5.22254e-05
5.31438e-05
5.38846e-05
5.22029e-05
5.21994e-05
5.24218e-05
5.39417e-05
5.42733e-05
5.4402e-05
5.24814e-05
5.24807e-05
5.25868e-05
5.24402e-05
5.42141e-05
5.39738e-05
5.25939e-05
5.23634e-05
5.29209e-05
5.37753e-05
5.22008e-05
5.23691e-05
5.22175e-05
5.412e-05
5.53487e-05
5.24497e-05
5.3177e-05
5.25182e-05
5.40137e-05
5.44924e-05
5.51109e-05
5.26318e-05
5.24402e-05
5.32786e-05
5.2917e-05
5.39835e-05
5.48581e-05
5.30728e-05
5.40532e-05
5.36112e-05
5.42724e-05
5.23084e-05
5.29258e-05
5.37649e-05
5.55678e-05
5.582e-05
5.25977e-05
5.38767e-05
5.37296e-05
5.56451e-05
5.5214e-05
5.5256e-05
5.35363e-05
5.34467e-05
5.39065e-05
5.41736e-05
5.52005e-05
5.57907e-05
5.37034e-05
5.42515e-05
5.37462e-05
5.33503e-05
5.4084e-05
5.42433e-05
5.42646e-05
5.57872e-05
5.45719e-05
5.39857e-05
5.35976e-05
5.41046e-05
5.56331e-05
5.52611e-05
5.51413e-05
5.3931e-05
5.4197e-05
5.39098e-05
5.39323e-05
5.57911e-05
5.50941e-05
5.37194e-05
5.30004e-05
5.35054e-05
5.2599e-05
5.418e-05
5.39106e-05
5.332e-05
5.44417e-05
5.39877e-05
5.39927e-05
5.29905e-05
5.32237e-05
5.43467e-05
5.51488e-05
5.52635e-05
5.38757e-05
5.38225e-05
5.38687e-05
5.37954e-05
5.50613e-05
5.52073e-05
5.3477e-05
5.25969e-05
5.35502e-05
5.34521e-05
5.32328e-05
5.37284e-05
5.33382e-05
5.40383e-05
5.55474e-05
5.31717e-05
5.36775e-05
5.34063e-05
5.51213e-05
5.54291e-05
5.68536e-05
5.3936e-05
5.39069e-05
5.51888e-05
5.52823e-05
5.54319e-05
5.69249e-05
5.38153e-05
5.42759e-05
5.54363e-05
5.59517e-05
5.37417e-05
5.53119e-05
5.5727e-05
5.60312e-05
5.74788e-05
5.40345e-05
5.58873e-05
5.583e-05
5.7431e-05
5.70623e-05
5.72628e-05
5.55601e-05
5.55684e-05
5.59389e-05
5.57871e-05
5.70731e-05
5.69661e-05
5.57882e-05
5.61774e-05
5.61218e-05
5.6283e-05
5.60832e-05
5.589e-05
5.63816e-05
5.75686e-05
5.7214e-05
5.60969e-05
5.61035e-05
5.62914e-05
5.75642e-05
5.72287e-05
5.64837e-05
5.59332e-05
5.57611e-05
5.55097e-05
5.54091e-05
5.69094e-05
5.64044e-05
5.61107e-05
5.61773e-05
5.55548e-05
5.5495e-05
5.63627e-05
5.54503e-05
5.55099e-05
5.71053e-05
5.64547e-05
5.62548e-05
5.54455e-05
5.54738e-05
5.63851e-05
5.64547e-05
5.64634e-05
5.53989e-05
5.53736e-05
5.53348e-05
5.54271e-05
5.64071e-05
5.66771e-05
5.54101e-05
5.54118e-05
5.53071e-05
5.53909e-05
5.5182e-05
5.53289e-05
5.47234e-05
5.6454e-05
5.66557e-05
5.52326e-05
5.54194e-05
5.48669e-05
5.5764e-05
5.65547e-05
5.7018e-05
5.53719e-05
5.55871e-05
5.58591e-05
5.59313e-05
5.67889e-05
5.70872e-05
5.53278e-05
5.54635e-05
5.57846e-05
5.56821e-05
5.47046e-05
5.58447e-05
5.50619e-05
5.67417e-05
5.68185e-05
5.48452e-05
5.56382e-05
5.50451e-05
5.63525e-05
5.70736e-05
5.71387e-05
5.59491e-05
5.59619e-05
5.60332e-05
5.60055e-05
5.71085e-05
5.71418e-05
5.58842e-05
5.56893e-05
5.59872e-05
5.57631e-05
5.55424e-05
5.61387e-05
5.69767e-05
5.68203e-05
5.68898e-05
5.53865e-05
5.57333e-05
5.66812e-05
5.82643e-05
5.71773e-05
5.79195e-05
5.60805e-05
5.60619e-05
5.67628e-05
5.68135e-05
5.7226e-05
5.79986e-05
5.60526e-05
5.59289e-05
5.67781e-05
5.69464e-05
5.73301e-05
5.70021e-05
5.77222e-05
5.70669e-05
5.81716e-05
5.7098e-05
5.70979e-05
5.77197e-05
5.89857e-05
5.80623e-05
5.82442e-05
5.70019e-05
5.70181e-05
5.72423e-05
5.71656e-05
5.80915e-05
5.80544e-05
5.70026e-05
5.71456e-05
5.72226e-05
5.72676e-05
5.77195e-05
5.71107e-05
5.69033e-05
5.82805e-05
5.82633e-05
5.77391e-05
5.73778e-05
5.73244e-05
5.76262e-05
5.82409e-05
5.76959e-05
5.72401e-05
5.71458e-05
5.68947e-05
5.67307e-05
5.8006e-05
5.75081e-05
5.72199e-05
5.72286e-05
5.68579e-05
5.66154e-05
5.64267e-05
5.64755e-05
5.57387e-05
5.81931e-05
5.73877e-05
5.68256e-05
5.65345e-05
5.58722e-05
5.6508e-05
5.76213e-05
5.72552e-05
5.66835e-05
5.66141e-05
5.63587e-05
5.6498e-05
5.75015e-05
5.7579e-05
5.66464e-05
5.64786e-05
5.63439e-05
5.64054e-05
5.57174e-05
5.64652e-05
5.62791e-05
5.73531e-05
5.74688e-05
5.57943e-05
5.63401e-05
5.59816e-05
5.75181e-05
5.72591e-05
5.80403e-05
5.63486e-05
5.65049e-05
5.67312e-05
5.69779e-05
5.76629e-05
5.81889e-05
5.63389e-05
5.647e-05
5.68372e-05
5.72873e-05
5.68769e-05
5.73068e-05
5.79623e-05
5.76306e-05
5.84856e-05
5.64962e-05
5.73991e-05
5.78522e-05
5.91277e-05
5.83033e-05
5.8933e-05
5.71929e-05
5.72639e-05
5.7874e-05
5.76959e-05
5.83337e-05
5.86457e-05
5.72716e-05
5.74608e-05
5.78462e-05
5.75724e-05
5.80662e-05
5.76646e-05
5.80143e-05
5.85582e-05
5.8409e-05
5.79992e-05
5.75606e-05
5.79835e-05
5.87874e-05
5.89515e-05
5.83019e-05
5.79052e-05
5.77119e-05
5.76955e-05
5.75194e-05
5.86642e-05
5.80629e-05
5.78646e-05
5.75443e-05
5.75616e-05
5.69243e-05
5.77396e-05
5.71456e-05
5.6342e-05
5.83349e-05
5.74629e-05
5.77387e-05
5.6537e-05
5.62337e-05
5.69112e-05
5.81491e-05
5.73069e-05
5.73243e-05
5.71605e-05
5.64236e-05
5.63758e-05
5.79118e-05
5.72178e-05
5.72115e-05
5.67106e-05
5.64523e-05
5.64457e-05
5.60698e-05
5.62727e-05
5.58727e-05
5.74056e-05
5.73454e-05
5.59765e-05
5.62646e-05
5.58433e-05
5.67579e-05
5.7288e-05
5.74799e-05
5.63104e-05
5.63128e-05
5.63083e-05
5.64594e-05
5.72154e-05
5.79595e-05
5.63627e-05
5.64503e-05
5.63806e-05
5.71227e-05
5.59407e-05
5.67429e-05
5.77009e-05
5.74665e-05
5.87884e-05
5.59759e-05
5.77715e-05
5.80429e-05
5.93333e-05
5.76944e-05
5.89933e-05
5.64889e-05
5.6903e-05
5.78278e-05
5.80587e-05
5.82941e-05
5.93286e-05
5.658e-05
5.75744e-05
5.7813e-05
5.81934e-05
5.82673e-05
5.82504e-05
5.88193e-05
5.90374e-05
5.95221e-05
5.85552e-05
5.85449e-05
5.8971e-05
6.01678e-05
5.90859e-05
5.88161e-05
5.80016e-05
5.81407e-05
5.80018e-05
5.79116e-05
5.93664e-05
5.83571e-05
5.79653e-05
5.8208e-05
5.79523e-05
5.75904e-05
5.88083e-05
5.78062e-05
5.72036e-05
5.95193e-05
5.78209e-05
5.89346e-05
5.709e-05
5.68482e-05
5.7341e-05
5.86167e-05
5.70004e-05
5.77808e-05
5.73333e-05
5.61391e-05
5.56973e-05
5.80052e-05
5.63778e-05
5.77268e-05
5.69179e-05
5.61571e-05
5.56168e-05
5.62246e-05
5.54286e-05
5.47002e-05
5.74795e-05
5.62666e-05
5.58878e-05
5.51762e-05
5.45271e-05
5.53091e-05
5.69154e-05
5.68817e-05
5.58663e-05
5.5535e-05
5.56981e-05
5.56118e-05
5.63468e-05
5.7138e-05
5.58911e-05
5.55189e-05
5.57106e-05
5.56931e-05
5.46429e-05
5.55481e-05
5.54869e-05
5.62675e-05
5.73863e-05
5.44949e-05
5.57981e-05
5.56549e-05
5.74988e-05
5.70243e-05
5.83077e-05
5.57727e-05
5.60475e-05
5.70135e-05
5.75544e-05
5.75597e-05
5.90797e-05
5.57639e-05
5.61994e-05
5.6919e-05
5.74704e-05
5.66643e-05
5.78516e-05
5.85768e-05
5.7781e-05
5.90081e-05
5.68505e-05
5.79266e-05
5.86757e-05
6.01511e-05
5.84704e-05
5.86727e-05
5.73361e-05
5.77297e-05
5.75876e-05
5.76826e-05
5.91476e-05
5.85734e-05
5.72771e-05
5.76289e-05
5.75902e-05
5.76163e-05
5.8716e-05
5.78232e-05
5.8278e-05
5.90596e-05
5.84879e-05
5.87985e-05
5.77487e-05
5.82765e-05
5.88997e-05
5.86284e-05
5.65853e-05
5.6376e-05
5.82374e-05
5.66202e-05
5.63944e-05
4.75921e-05
4.76088e-05
4.80526e-05
5.65546e-05
5.82099e-05
5.6543e-05
4.17512e-08
2.36526e-07
4.07011e-08
5.07217e-08
2.81637e-07
3.09009e-07
2.34009e-07
1.19648e-07
2.72842e-07
3.44174e-07
1.24286e-07
4.64432e-07
3.68245e-07
2.27418e-07
4.18758e-07
3.045e-07
5.74632e-06
2.61918e-07
7.6109e-06
1.36809e-05
2.11228e-05
3.58948e-07
4.76997e-06
3.19174e-07
6.43326e-06
1.6231e-07
1.81977e-07
1.64592e-07
1.57776e-07
1.62655e-07
1.81642e-07
1.64488e-07
2.64867e-07
6.12567e-07
2.33319e-07
2.98127e-07
2.69534e-07
5.92933e-07
2.3197e-07
1.37343e-05
2.1125e-05
2.54224e-07
2.43226e-07
7.21385e-07
3.43299e-07
2.60767e-07
2.42173e-07
6.93566e-07
1.85486e-06
1.89255e-06
3.52124e-07
1.82726e-06
1.84782e-06
4.99967e-07
1.1105e-05
4.12183e-07
1.39138e-05
3.63302e-05
4.62175e-05
5.4983e-07
9.43313e-06
4.64475e-07
1.21591e-05
1.61559e-07
1.80686e-07
1.63344e-07
1.52805e-07
1.5792e-07
1.7797e-07
1.599e-07
2.52128e-07