/*--------------------------------*- C++ -*----------------------------------*\
| =========                 |                                                 |
| \\      /  F ield         | OpenFOAM: The Open Source CFD Toolbox           |
|  \\    /   O peration     | Version:  v2012                                 |
|   \\  /    A nd           | Website:  www.openfoam.com                      |
|    \\/     M anipulation  |                                                 |
\*---------------------------------------------------------------------------*/
FoamFile
{
    version     2.0;
    format      ascii;
    class       volScalarField;
    location    "0.155";
    object      p;
}
// * * * * * * * * * * * * * * * * * * * * * * * * * * * * * * * * * * * * * //

dimensions      [0 2 -2 0 0 0 0];


internalField   nonuniform List<scalar> 
247104
(
1.93412e-06
1.93461e-06
1.93462e-06
1.93444e-06
1.93422e-06
1.93447e-06
1.93462e-06
1.93454e-06
1.93461e-06
1.93467e-06
1.93471e-06
1.93449e-06
1.93434e-06
1.93452e-06
1.93472e-06
1.93464e-06
1.93462e-06
1.93471e-06
1.93442e-06
1.93402e-06
1.93386e-06
1.93407e-06
1.93447e-06
1.93472e-06
1.9346e-06
1.93444e-06
1.93449e-06
1.93403e-06
1.93354e-06
1.93336e-06
1.93358e-06
1.93409e-06
1.93452e-06
1.93439e-06
1.93413e-06
1.93422e-06
1.93435e-06
1.93386e-06
1.93336e-06
1.93317e-06
1.93341e-06
1.93393e-06
1.93437e-06
1.93416e-06
1.93448e-06
1.93452e-06
1.93407e-06
1.93358e-06
1.93341e-06
1.93363e-06
1.93413e-06
1.93455e-06
1.93443e-06
1.93462e-06
1.93472e-06
1.93447e-06
1.93409e-06
1.93393e-06
1.93413e-06
1.93451e-06
1.93473e-06
1.9346e-06
1.93454e-06
1.93464e-06
1.93472e-06
1.93452e-06
1.93437e-06
1.93455e-06
1.93473e-06
1.93461e-06
1.9346e-06
1.93439e-06
1.93416e-06
1.93443e-06
1.9346e-06
1.90025e-06
1.89817e-06
1.89828e-06
1.89714e-06
1.89683e-06
1.89679e-06
1.89678e-06
1.89848e-06
1.89881e-06
1.89828e-06
1.89618e-06
1.89304e-06
1.89289e-06
1.89289e-06
1.89304e-06
1.89659e-06
1.8968e-06
1.89715e-06
1.89304e-06
1.89296e-06
1.89298e-06
1.89298e-06
1.89296e-06
1.89304e-06
1.89708e-06
1.89797e-06
1.90026e-06
1.89683e-06
1.89289e-06
1.89298e-06
1.89309e-06
1.89309e-06
1.89298e-06
1.89289e-06
1.89686e-06
1.89864e-06
1.89817e-06
1.8968e-06
1.89289e-06
1.89298e-06
1.89309e-06
1.89309e-06
1.89298e-06
1.89289e-06
1.89698e-06
1.89662e-06
1.89678e-06
1.89304e-06
1.89296e-06
1.89298e-06
1.89298e-06
1.89296e-06
1.89304e-06
1.89689e-06
1.8977e-06
1.89848e-06
1.89659e-06
1.89304e-06
1.89289e-06
1.89289e-06
1.89304e-06
1.89665e-06
1.89704e-06
1.8985e-06
1.89881e-06
1.8968e-06
1.89708e-06
1.89686e-06
1.89698e-06
1.89689e-06
1.89704e-06
1.89957e-06
1.89797e-06
1.89864e-06
1.89662e-06
1.89768e-06
1.89851e-06
1.88017e-06
1.87996e-06
1.87981e-06
1.87758e-06
1.87754e-06
1.87755e-06
1.87758e-06
1.87997e-06
1.88008e-06
1.87982e-06
1.87693e-06
1.87381e-06
1.87362e-06
1.87361e-06
1.87381e-06
1.87778e-06
1.87805e-06
1.87759e-06
1.87381e-06
1.87334e-06
1.87333e-06
1.87333e-06
1.87334e-06
1.87381e-06
1.87857e-06
1.88053e-06
1.88018e-06
1.87755e-06
1.87362e-06
1.87333e-06
1.87334e-06
1.87334e-06
1.87333e-06
1.87362e-06
1.87855e-06
1.88011e-06
1.87997e-06
1.87756e-06
1.87362e-06
1.87333e-06
1.87334e-06
1.87334e-06
1.87333e-06
1.87362e-06
1.87845e-06
1.87799e-06
1.87758e-06
1.87381e-06
1.87334e-06
1.87333e-06
1.87333e-06
1.87334e-06
1.87381e-06
1.87861e-06
1.88051e-06
1.87997e-06
1.87778e-06
1.87381e-06
1.87362e-06
1.87362e-06
1.87381e-06
1.87827e-06
1.87835e-06
1.88043e-06
1.88009e-06
1.87806e-06
1.87857e-06
1.87855e-06
1.87845e-06
1.87861e-06
1.87835e-06
1.88057e-06
1.88053e-06
1.88011e-06
1.87799e-06
1.88052e-06
1.88043e-06
1.86035e-06
1.86017e-06
1.8601e-06
1.85775e-06
1.85773e-06
1.85762e-06
1.85781e-06
1.86023e-06
1.86037e-06
1.8601e-06
1.85683e-06
1.8539e-06
1.85382e-06
1.85382e-06
1.85389e-06
1.85785e-06
1.85843e-06
1.85775e-06
1.8539e-06
1.85371e-06
1.8537e-06
1.85369e-06
1.85371e-06
1.8539e-06
1.85885e-06
1.86075e-06
1.86035e-06
1.85774e-06
1.85382e-06
1.8537e-06
1.85369e-06
1.85369e-06
1.8537e-06
1.85382e-06
1.85897e-06
1.86027e-06
1.86018e-06
1.85763e-06
1.85382e-06
1.8537e-06
1.85369e-06
1.85369e-06
1.8537e-06
1.85382e-06
1.85891e-06
1.85833e-06
1.85782e-06
1.8539e-06
1.85371e-06
1.8537e-06
1.8537e-06
1.85371e-06
1.85389e-06
1.85896e-06
1.86067e-06
1.86023e-06
1.85785e-06
1.8539e-06
1.85382e-06
1.85382e-06
1.8539e-06
1.85877e-06
1.85869e-06
1.86071e-06
1.86037e-06
1.85843e-06
1.85886e-06
1.85897e-06
1.85891e-06
1.85896e-06
1.85869e-06
1.86066e-06
1.86075e-06
1.86027e-06
1.85833e-06
1.86067e-06
1.86071e-06
1.84052e-06
1.84036e-06
1.84021e-06
1.83782e-06
1.8378e-06
1.83761e-06
1.83789e-06
1.84033e-06
1.84048e-06
1.84022e-06
1.83677e-06
1.83391e-06
1.83389e-06
1.83389e-06
1.83391e-06
1.83783e-06
1.83858e-06
1.83782e-06
1.83391e-06
1.83386e-06
1.83386e-06
1.83386e-06
1.83386e-06
1.83391e-06
1.83902e-06
1.84091e-06
1.84053e-06
1.8378e-06
1.83389e-06
1.83386e-06
1.83386e-06
1.83386e-06
1.83386e-06
1.83389e-06
1.83923e-06
1.84051e-06
1.84037e-06
1.83762e-06
1.83389e-06
1.83386e-06
1.83386e-06
1.83386e-06
1.83386e-06
1.83389e-06
1.83919e-06
1.83858e-06
1.8379e-06
1.83391e-06
1.83386e-06
1.83386e-06
1.83386e-06
1.83386e-06
1.83391e-06
1.83916e-06
1.84089e-06
1.84034e-06
1.83783e-06
1.83391e-06
1.83389e-06
1.83389e-06
1.83391e-06
1.83904e-06
1.83886e-06
1.84086e-06
1.8405e-06
1.83856e-06
1.83902e-06
1.83923e-06
1.83919e-06
1.83916e-06
1.83886e-06
1.84081e-06
1.84092e-06
1.84051e-06
1.83858e-06
1.84089e-06
1.84086e-06
1.82064e-06
1.82048e-06
1.8203e-06
1.8179e-06
1.81788e-06
1.81767e-06
1.81797e-06
1.82042e-06
1.82059e-06
1.8203e-06
1.81683e-06
1.81397e-06
1.81397e-06
1.81397e-06
1.81397e-06
1.81787e-06
1.81865e-06
1.8179e-06
1.81397e-06
1.81396e-06
1.81396e-06
1.81396e-06
1.81396e-06
1.81397e-06
1.81912e-06
1.82102e-06
1.82064e-06
1.81788e-06
1.81397e-06
1.81396e-06
1.81396e-06
1.81396e-06
1.81396e-06
1.81397e-06
1.81936e-06
1.82063e-06
1.82048e-06
1.81767e-06
1.81397e-06
1.81396e-06
1.81396e-06
1.81396e-06
1.81396e-06
1.81397e-06
1.81933e-06
1.81871e-06
1.81797e-06
1.81397e-06
1.81396e-06
1.81396e-06
1.81396e-06
1.81396e-06
1.81397e-06
1.81928e-06
1.82102e-06
1.82042e-06
1.81787e-06
1.81397e-06
1.81397e-06
1.81397e-06
1.81397e-06
1.81919e-06
1.81899e-06
1.82096e-06
1.82059e-06
1.81866e-06
1.81912e-06
1.81936e-06
1.81933e-06
1.81928e-06
1.81897e-06
1.82089e-06
1.82102e-06
1.82064e-06
1.81872e-06
1.82102e-06
1.82096e-06
1.80072e-06
1.80057e-06
1.80037e-06
1.79797e-06
1.79795e-06
1.79774e-06
1.79805e-06
1.80051e-06
1.80067e-06
1.80037e-06
1.7969e-06
1.79404e-06
1.79404e-06
1.79404e-06
1.79404e-06
1.79793e-06
1.79874e-06
1.79797e-06
1.79404e-06
1.79404e-06
1.79404e-06
1.79404e-06
1.79404e-06
1.79405e-06
1.7992e-06
1.8011e-06
1.80073e-06
1.79795e-06
1.79404e-06
1.79404e-06
1.79404e-06
1.79404e-06
1.79404e-06
1.79404e-06
1.79946e-06
1.80073e-06
1.80057e-06
1.79774e-06
1.79404e-06
1.79404e-06
1.79404e-06
1.79404e-06
1.79404e-06
1.79404e-06
1.79943e-06
1.79881e-06
1.79805e-06
1.79404e-06
1.79404e-06
1.79404e-06
1.79404e-06
1.79404e-06
1.79404e-06
1.79936e-06
1.80111e-06
1.8005e-06
1.79793e-06
1.79404e-06
1.79404e-06
1.79404e-06
1.79404e-06
1.79929e-06
1.79906e-06
1.80104e-06
1.80066e-06
1.79873e-06
1.7992e-06
1.79946e-06
1.79943e-06
1.79936e-06
1.79906e-06
1.80099e-06
1.8011e-06
1.80073e-06
1.79881e-06
1.80111e-06
1.80104e-06
1.7808e-06
1.78065e-06
1.78045e-06
1.77805e-06
1.77803e-06
1.77781e-06
1.77812e-06
1.78059e-06
1.78075e-06
1.78045e-06
1.77698e-06
1.77412e-06
1.77412e-06
1.77412e-06
1.77412e-06
1.778e-06
1.77882e-06
1.77805e-06
1.77412e-06
1.77412e-06
1.77412e-06
1.77412e-06
1.77412e-06
1.77412e-06
1.77928e-06
1.78118e-06
1.78081e-06
1.77803e-06
1.77412e-06
1.77412e-06
1.77412e-06
1.77412e-06
1.77412e-06
1.77412e-06
1.77953e-06
1.78081e-06
1.78065e-06
1.77782e-06
1.77412e-06
1.77412e-06
1.77412e-06
1.77412e-06
1.77412e-06
1.77412e-06
1.77951e-06
1.77889e-06
1.77812e-06
1.77412e-06
1.77412e-06
1.77412e-06
1.77412e-06
1.77412e-06
1.77412e-06
1.77944e-06
1.78119e-06
1.78058e-06
1.778e-06
1.77412e-06
1.77412e-06
1.77412e-06
1.77412e-06
1.77937e-06
1.77914e-06
1.78112e-06
1.78074e-06
1.77881e-06
1.77928e-06
1.77954e-06
1.77951e-06
1.77944e-06
1.77914e-06
1.78107e-06
1.78118e-06
1.78081e-06
1.77889e-06
1.78119e-06
1.78112e-06
1.76088e-06
1.76073e-06
1.76053e-06
1.75813e-06
1.75811e-06
1.75789e-06
1.7582e-06
1.76066e-06
1.76082e-06
1.76052e-06
1.75705e-06
1.7542e-06
1.7542e-06
1.7542e-06
1.7542e-06
1.75808e-06
1.75889e-06
1.75813e-06
1.7542e-06
1.7542e-06
1.7542e-06
1.7542e-06
1.7542e-06
1.7542e-06
1.75936e-06
1.76126e-06
1.76089e-06
1.75811e-06
1.7542e-06
1.7542e-06
1.7542e-06
1.7542e-06
1.7542e-06
1.7542e-06
1.75961e-06
1.76089e-06
1.76073e-06
1.75789e-06
1.7542e-06
1.7542e-06
1.7542e-06
1.7542e-06
1.7542e-06
1.7542e-06
1.75959e-06
1.75897e-06
1.7582e-06
1.7542e-06
1.7542e-06
1.7542e-06
1.7542e-06
1.7542e-06
1.7542e-06
1.75952e-06
1.76127e-06
1.76066e-06
1.75808e-06
1.7542e-06
1.7542e-06
1.7542e-06
1.7542e-06
1.75945e-06
1.75922e-06
1.76119e-06
1.76082e-06
1.75889e-06
1.75936e-06
1.75961e-06
1.75959e-06
1.75952e-06
1.75922e-06
1.76115e-06
1.76126e-06
1.76089e-06
1.75897e-06
1.76127e-06
1.7612e-06
1.74096e-06
1.74081e-06
1.7406e-06
1.73821e-06
1.73818e-06
1.73797e-06
1.73828e-06
1.74074e-06
1.7409e-06
1.7406e-06
1.73713e-06
1.73427e-06
1.73427e-06
1.73427e-06
1.73427e-06
1.73815e-06
1.73897e-06
1.7382e-06
1.73427e-06
1.73427e-06
1.73427e-06
1.73427e-06
1.73427e-06
1.73427e-06
1.73943e-06
1.74133e-06
1.74096e-06
1.73818e-06
1.73427e-06
1.73427e-06
1.73427e-06
1.73427e-06
1.73427e-06
1.73427e-06
1.73969e-06
1.74097e-06
1.7408e-06
1.73797e-06
1.73427e-06
1.73427e-06
1.73427e-06
1.73427e-06
1.73427e-06
1.73427e-06
1.73967e-06
1.73905e-06
1.73828e-06
1.73427e-06
1.73427e-06
1.73427e-06
1.73427e-06
1.73427e-06
1.73427e-06
1.7396e-06
1.74135e-06
1.74074e-06
1.73816e-06
1.73427e-06
1.73427e-06
1.73427e-06
1.73427e-06
1.73953e-06
1.7393e-06
1.74127e-06
1.7409e-06
1.73897e-06
1.73943e-06
1.73969e-06
1.73967e-06
1.7396e-06
1.7393e-06
1.74123e-06
1.74134e-06
1.74096e-06
1.73905e-06
1.74134e-06
1.74128e-06
1.72104e-06
1.72089e-06
1.72068e-06
1.71828e-06
1.71826e-06
1.71804e-06
1.71835e-06
1.72082e-06
1.72098e-06
1.72068e-06
1.71721e-06
1.71435e-06
1.71435e-06
1.71435e-06
1.71435e-06
1.71823e-06
1.71904e-06
1.71828e-06
1.71435e-06
1.71435e-06
1.71435e-06
1.71435e-06
1.71435e-06
1.71435e-06
1.71951e-06
1.72141e-06
1.72104e-06
1.71826e-06
1.71435e-06
1.71435e-06
1.71435e-06
1.71435e-06
1.71435e-06
1.71435e-06
1.71977e-06
1.72104e-06
1.72088e-06
1.71804e-06
1.71435e-06
1.71435e-06
1.71435e-06
1.71435e-06
1.71435e-06
1.71435e-06
1.71975e-06
1.71912e-06
1.71835e-06
1.71435e-06
1.71435e-06
1.71435e-06
1.71435e-06
1.71435e-06
1.71435e-06
1.71967e-06
1.72142e-06
1.72081e-06
1.71823e-06
1.71435e-06
1.71435e-06
1.71435e-06
1.71435e-06
1.71961e-06
1.71937e-06
1.72135e-06
1.72097e-06
1.71904e-06
1.71951e-06
1.71977e-06
1.71975e-06
1.71967e-06
1.71937e-06
1.7213e-06
1.72141e-06
1.72104e-06
1.71912e-06
1.72142e-06
1.72135e-06
1.70111e-06
1.70096e-06
1.70075e-06
1.69836e-06
1.69834e-06
1.69812e-06
1.69843e-06
1.70089e-06
1.70105e-06
1.70076e-06
1.69728e-06
1.69443e-06
1.69443e-06
1.69443e-06
1.69443e-06
1.69831e-06
1.69912e-06
1.69836e-06
1.69443e-06
1.69443e-06
1.69443e-06
1.69443e-06
1.69443e-06
1.69443e-06
1.69959e-06
1.70149e-06
1.70112e-06
1.69833e-06
1.69443e-06
1.69443e-06
1.69443e-06
1.69443e-06
1.69443e-06
1.69443e-06
1.69984e-06
1.70112e-06
1.70096e-06
1.69812e-06
1.69443e-06
1.69443e-06
1.69443e-06
1.69443e-06
1.69443e-06
1.69443e-06
1.69982e-06
1.6992e-06
1.69843e-06
1.69443e-06
1.69443e-06
1.69443e-06
1.69443e-06
1.69443e-06
1.69443e-06
1.69975e-06
1.7015e-06
1.70089e-06
1.69831e-06
1.69443e-06
1.69443e-06
1.69443e-06
1.69443e-06
1.69968e-06
1.69945e-06
1.70142e-06
1.70105e-06
1.69912e-06
1.69959e-06
1.69984e-06
1.69982e-06
1.69975e-06
1.69945e-06
1.70138e-06
1.70149e-06
1.70112e-06
1.6992e-06
1.7015e-06
1.70143e-06
1.68119e-06
1.68104e-06
1.68083e-06
1.67844e-06
1.67841e-06
1.6782e-06
1.67851e-06
1.68097e-06
1.68113e-06
1.68083e-06
1.67736e-06
1.6745e-06
1.6745e-06
1.6745e-06
1.6745e-06
1.67838e-06
1.6792e-06
1.67844e-06
1.6745e-06
1.6745e-06
1.6745e-06
1.6745e-06
1.6745e-06
1.6745e-06
1.67966e-06
1.68157e-06
1.68119e-06
1.67841e-06
1.6745e-06
1.6745e-06
1.6745e-06
1.6745e-06
1.6745e-06
1.6745e-06
1.67992e-06
1.6812e-06
1.68103e-06
1.6782e-06
1.6745e-06
1.6745e-06
1.6745e-06
1.6745e-06
1.6745e-06
1.6745e-06
1.6799e-06
1.67928e-06
1.67851e-06
1.6745e-06
1.6745e-06
1.6745e-06
1.6745e-06
1.6745e-06
1.6745e-06
1.67983e-06
1.68158e-06
1.68097e-06
1.67839e-06
1.6745e-06
1.6745e-06
1.6745e-06
1.6745e-06
1.67976e-06
1.67953e-06
1.6815e-06
1.68113e-06
1.6792e-06
1.67966e-06
1.67992e-06
1.6799e-06
1.67983e-06
1.67953e-06
1.68146e-06
1.68157e-06
1.6812e-06
1.67928e-06
1.68158e-06
1.68151e-06
1.66127e-06
1.66112e-06
1.66091e-06
1.65851e-06
1.65849e-06
1.65828e-06
1.65859e-06
1.66105e-06
1.66121e-06
1.66091e-06
1.65744e-06
1.65458e-06
1.65458e-06
1.65458e-06
1.65458e-06
1.65846e-06
1.65928e-06
1.65851e-06
1.65458e-06
1.65458e-06
1.65458e-06
1.65458e-06
1.65458e-06
1.65458e-06
1.65974e-06
1.66164e-06
1.66127e-06
1.65849e-06
1.65458e-06
1.65458e-06
1.65458e-06
1.65458e-06
1.65458e-06
1.65458e-06
1.66e-06
1.66127e-06
1.66111e-06
1.65828e-06
1.65458e-06
1.65458e-06
1.65458e-06
1.65458e-06
1.65458e-06
1.65458e-06
1.65998e-06
1.65935e-06
1.65858e-06
1.65458e-06
1.65458e-06
1.65458e-06
1.65458e-06
1.65458e-06
1.65458e-06
1.6599e-06
1.66165e-06
1.66105e-06
1.65846e-06
1.65458e-06
1.65458e-06
1.65458e-06
1.65458e-06
1.65984e-06
1.65961e-06
1.66158e-06
1.6612e-06
1.65927e-06
1.65974e-06
1.66e-06
1.65998e-06
1.65991e-06
1.65961e-06
1.66153e-06
1.66164e-06
1.66127e-06
1.65936e-06
1.66165e-06
1.66158e-06
1.64134e-06
1.64119e-06
1.64098e-06
1.63859e-06
1.63857e-06
1.63835e-06
1.63866e-06
1.64113e-06
1.64128e-06
1.64099e-06
1.63751e-06
1.63466e-06
1.63466e-06
1.63466e-06
1.63466e-06
1.63854e-06
1.63935e-06
1.63859e-06
1.63466e-06
1.63466e-06
1.63466e-06
1.63466e-06
1.63466e-06
1.63466e-06
1.63982e-06
1.64172e-06
1.64135e-06
1.63857e-06
1.63466e-06
1.63466e-06
1.63466e-06
1.63466e-06
1.63466e-06
1.63466e-06
1.64008e-06
1.64135e-06
1.64119e-06
1.63835e-06
1.63466e-06
1.63466e-06
1.63466e-06
1.63466e-06
1.63466e-06
1.63466e-06
1.64006e-06
1.63943e-06
1.63866e-06
1.63466e-06
1.63466e-06
1.63466e-06
1.63466e-06
1.63466e-06
1.63466e-06
1.63998e-06
1.64173e-06
1.64112e-06
1.63854e-06
1.63466e-06
1.63466e-06
1.63466e-06
1.63466e-06
1.63991e-06
1.63968e-06
1.64165e-06
1.64128e-06
1.63935e-06
1.63982e-06
1.64007e-06
1.64005e-06
1.63998e-06
1.63968e-06
1.64161e-06
1.64172e-06
1.64135e-06
1.63943e-06
1.64173e-06
1.64166e-06
1.62142e-06
1.62127e-06
1.62106e-06
1.61866e-06
1.61864e-06
1.61843e-06
1.61874e-06
1.6212e-06
1.62136e-06
1.62106e-06
1.61759e-06
1.61473e-06
1.61473e-06
1.61473e-06
1.61473e-06
1.61861e-06
1.61943e-06
1.61867e-06
1.61473e-06
1.61473e-06
1.61473e-06
1.61473e-06
1.61473e-06
1.61473e-06
1.61989e-06
1.6218e-06
1.62143e-06
1.61864e-06
1.61473e-06
1.61473e-06
1.61473e-06
1.61473e-06
1.61473e-06
1.61473e-06
1.62015e-06
1.62143e-06
1.62126e-06
1.61843e-06
1.61473e-06
1.61473e-06
1.61473e-06
1.61473e-06
1.61473e-06
1.61473e-06
1.62013e-06
1.61951e-06
1.61874e-06
1.61473e-06
1.61473e-06
1.61473e-06
1.61473e-06
1.61473e-06
1.61473e-06
1.62006e-06
1.62181e-06
1.6212e-06
1.61862e-06
1.61473e-06
1.61473e-06
1.61473e-06
1.61473e-06
1.61999e-06
1.61976e-06
1.62173e-06
1.62136e-06
1.61943e-06
1.61989e-06
1.62015e-06
1.62013e-06
1.62006e-06
1.61976e-06
1.62169e-06
1.6218e-06
1.62143e-06
1.61951e-06
1.62181e-06
1.62174e-06
1.6015e-06
1.60135e-06
1.60114e-06
1.59874e-06
1.59872e-06
1.5985e-06
1.59881e-06
1.60128e-06
1.60144e-06
1.60114e-06
1.59767e-06
1.59481e-06
1.59481e-06
1.59481e-06
1.59481e-06
1.59869e-06
1.59951e-06
1.59874e-06
1.59481e-06
1.59481e-06
1.59481e-06
1.59481e-06
1.59481e-06
1.59481e-06
1.59997e-06
1.60187e-06
1.6015e-06
1.59872e-06
1.59481e-06
1.59481e-06
1.59481e-06
1.59481e-06
1.59481e-06
1.59481e-06
1.60023e-06
1.6015e-06
1.60134e-06
1.59851e-06
1.59481e-06
1.59481e-06
1.59481e-06
1.59481e-06
1.59481e-06
1.59481e-06
1.60021e-06
1.59958e-06
1.59881e-06
1.59481e-06
1.59481e-06
1.59481e-06
1.59481e-06
1.59481e-06
1.59481e-06
1.60013e-06
1.60188e-06
1.60127e-06
1.59869e-06
1.59481e-06
1.59481e-06
1.59481e-06
1.59481e-06
1.60007e-06
1.59983e-06
1.60181e-06
1.60143e-06
1.5995e-06
1.59997e-06
1.60023e-06
1.60021e-06
1.60013e-06
1.59984e-06
1.60176e-06
1.60187e-06
1.6015e-06
1.59959e-06
1.60188e-06
1.60181e-06
1.58157e-06
1.58142e-06
1.58121e-06
1.57882e-06
1.5788e-06
1.57858e-06
1.57889e-06
1.58135e-06
1.58151e-06
1.58122e-06
1.57774e-06
1.57489e-06
1.57489e-06
1.57489e-06
1.57489e-06
1.57877e-06
1.57959e-06
1.57882e-06
1.57489e-06
1.57489e-06
1.57489e-06
1.57489e-06
1.57489e-06
1.57489e-06
1.58005e-06
1.58195e-06
1.58158e-06
1.5788e-06
1.57489e-06
1.57489e-06
1.57489e-06
1.57489e-06
1.57489e-06
1.57489e-06
1.58031e-06
1.58158e-06
1.58142e-06
1.57858e-06
1.57489e-06
1.57489e-06
1.57489e-06
1.57489e-06
1.57489e-06
1.57489e-06
1.58029e-06
1.57966e-06
1.57889e-06
1.57489e-06
1.57489e-06
1.57489e-06
1.57489e-06
1.57489e-06
1.57489e-06
1.58021e-06
1.58196e-06
1.58135e-06
1.57877e-06
1.57489e-06
1.57489e-06
1.57489e-06
1.57489e-06
1.58014e-06
1.57991e-06
1.58188e-06
1.58151e-06
1.57958e-06
1.58005e-06
1.5803e-06
1.58029e-06
1.58021e-06
1.57991e-06
1.58184e-06
1.58195e-06
1.58158e-06
1.57966e-06
1.58196e-06
1.58189e-06
1.56165e-06
1.5615e-06
1.56129e-06
1.5589e-06
1.55887e-06
1.55866e-06
1.55897e-06
1.56143e-06
1.56159e-06
1.56129e-06
1.55782e-06
1.55497e-06
1.55497e-06
1.55497e-06
1.55497e-06
1.55885e-06
1.55966e-06
1.5589e-06
1.55497e-06
1.55497e-06
1.55497e-06
1.55497e-06
1.55497e-06
1.55497e-06
1.56013e-06
1.56203e-06
1.56166e-06
1.55887e-06
1.55497e-06
1.55497e-06
1.55497e-06
1.55497e-06
1.55497e-06
1.55497e-06
1.56038e-06
1.56166e-06
1.5615e-06
1.55866e-06
1.55497e-06
1.55497e-06
1.55497e-06
1.55497e-06
1.55497e-06
1.55497e-06
1.56036e-06
1.55974e-06
1.55897e-06
1.55497e-06
1.55497e-06
1.55497e-06
1.55497e-06
1.55497e-06
1.55497e-06
1.56029e-06
1.56204e-06
1.56143e-06
1.55885e-06
1.55497e-06
1.55497e-06
1.55497e-06
1.55497e-06
1.56022e-06
1.55999e-06
1.56196e-06
1.56159e-06
1.55966e-06
1.56013e-06
1.56038e-06
1.56036e-06
1.56029e-06
1.55999e-06
1.56192e-06
1.56203e-06
1.56166e-06
1.55974e-06
1.56204e-06
1.56197e-06
1.54173e-06
1.54158e-06
1.54137e-06
1.53897e-06
1.53895e-06
1.53874e-06
1.53905e-06
1.5415e-06
1.54167e-06
1.54137e-06
1.5379e-06
1.53504e-06
1.53504e-06
1.53504e-06
1.53504e-06
1.53893e-06
1.53974e-06
1.53897e-06
1.53504e-06
1.53504e-06
1.53504e-06
1.53504e-06
1.53504e-06
1.53504e-06
1.5402e-06
1.5421e-06
1.54173e-06
1.53895e-06
1.53504e-06
1.53504e-06
1.53504e-06
1.53504e-06
1.53504e-06
1.53504e-06
1.54046e-06
1.54173e-06
1.54157e-06
1.53874e-06
1.53504e-06
1.53504e-06
1.53504e-06
1.53504e-06
1.53504e-06
1.53504e-06
1.54044e-06
1.53981e-06
1.53904e-06
1.53504e-06
1.53504e-06
1.53504e-06
1.53504e-06
1.53504e-06
1.53504e-06
1.54037e-06
1.54211e-06
1.54151e-06
1.53892e-06
1.53504e-06
1.53504e-06
1.53504e-06
1.53504e-06
1.5403e-06
1.54007e-06
1.54204e-06
1.54166e-06
1.53973e-06
1.5402e-06
1.54046e-06
1.54044e-06
1.54037e-06
1.54007e-06
1.54199e-06
1.5421e-06
1.54173e-06
1.53981e-06
1.54211e-06
1.54204e-06
1.5218e-06
1.52165e-06
1.52144e-06
1.51905e-06
1.51903e-06
1.51881e-06
1.51912e-06
1.52158e-06
1.52175e-06
1.52145e-06
1.51797e-06
1.51512e-06
1.51512e-06
1.51512e-06
1.51512e-06
1.519e-06
1.51982e-06
1.51905e-06
1.51512e-06
1.51512e-06
1.51512e-06
1.51512e-06
1.51512e-06
1.51512e-06
1.52028e-06
1.52218e-06
1.52181e-06
1.51903e-06
1.51512e-06
1.51512e-06
1.51512e-06
1.51512e-06
1.51512e-06
1.51512e-06
1.52054e-06
1.52181e-06
1.52165e-06
1.51881e-06
1.51512e-06
1.51512e-06
1.51512e-06
1.51512e-06
1.51512e-06
1.51512e-06
1.52052e-06
1.51989e-06
1.51912e-06
1.51512e-06
1.51512e-06
1.51512e-06
1.51512e-06
1.51512e-06
1.51512e-06
1.52044e-06
1.52219e-06
1.52158e-06
1.519e-06
1.51512e-06
1.51512e-06
1.51512e-06
1.51512e-06
1.52038e-06
1.52014e-06
1.52212e-06
1.52174e-06
1.51981e-06
1.52028e-06
1.52053e-06
1.52052e-06
1.52044e-06
1.52014e-06
1.52207e-06
1.52218e-06
1.52181e-06
1.51989e-06
1.52219e-06
1.52212e-06
1.50188e-06
1.50173e-06
1.50152e-06
1.49913e-06
1.49911e-06
1.49889e-06
1.4992e-06
1.50166e-06
1.50182e-06
1.50152e-06
1.49805e-06
1.4952e-06
1.4952e-06
1.4952e-06
1.4952e-06
1.49908e-06
1.49989e-06
1.49913e-06
1.4952e-06
1.4952e-06
1.4952e-06
1.4952e-06
1.4952e-06
1.4952e-06
1.50036e-06
1.50226e-06
1.50189e-06
1.4991e-06
1.4952e-06
1.4952e-06
1.4952e-06
1.4952e-06
1.4952e-06
1.4952e-06
1.50061e-06
1.50189e-06
1.50173e-06
1.49889e-06
1.4952e-06
1.4952e-06
1.4952e-06
1.4952e-06
1.4952e-06
1.4952e-06
1.50059e-06
1.49997e-06
1.4992e-06
1.4952e-06
1.4952e-06
1.4952e-06
1.4952e-06
1.4952e-06
1.4952e-06
1.50052e-06
1.50227e-06
1.50166e-06
1.49908e-06
1.4952e-06
1.4952e-06
1.4952e-06
1.4952e-06
1.50045e-06
1.50022e-06
1.50219e-06
1.50182e-06
1.49989e-06
1.50036e-06
1.50061e-06
1.50059e-06
1.50052e-06
1.50022e-06
1.50215e-06
1.50226e-06
1.50189e-06
1.49997e-06
1.50227e-06
1.5022e-06
1.48196e-06
1.48181e-06
1.4816e-06
1.4792e-06
1.47918e-06
1.47897e-06
1.47928e-06
1.48174e-06
1.4819e-06
1.4816e-06
1.47813e-06
1.47527e-06
1.47527e-06
1.47527e-06
1.47527e-06
1.47916e-06
1.47997e-06
1.4792e-06
1.47527e-06
1.47527e-06
1.47527e-06
1.47527e-06
1.47527e-06
1.47527e-06
1.48043e-06
1.48233e-06
1.48196e-06
1.47918e-06
1.47527e-06
1.47527e-06
1.47527e-06
1.47527e-06
1.47527e-06
1.47527e-06
1.48069e-06
1.48196e-06
1.4818e-06
1.47897e-06
1.47527e-06
1.47527e-06
1.47527e-06
1.47527e-06
1.47527e-06
1.47527e-06
1.48067e-06
1.48005e-06
1.47928e-06
1.47527e-06
1.47527e-06
1.47527e-06
1.47527e-06
1.47527e-06
1.47527e-06
1.4806e-06
1.48234e-06
1.48174e-06
1.47915e-06
1.47527e-06
1.47527e-06
1.47527e-06
1.47527e-06
1.48053e-06
1.4803e-06
1.48227e-06
1.48189e-06
1.47997e-06
1.48043e-06
1.48069e-06
1.48067e-06
1.4806e-06
1.4803e-06
1.48222e-06
1.48234e-06
1.48196e-06
1.48005e-06
1.48234e-06
1.48228e-06
1.46204e-06
1.46189e-06
1.46168e-06
1.45928e-06
1.45926e-06
1.45904e-06
1.45935e-06
1.46181e-06
1.46198e-06
1.46168e-06
1.4582e-06
1.45535e-06
1.45535e-06
1.45535e-06
1.45535e-06
1.45923e-06
1.46005e-06
1.45928e-06
1.45535e-06
1.45535e-06
1.45535e-06
1.45535e-06
1.45535e-06
1.45535e-06
1.46051e-06
1.46241e-06
1.46204e-06
1.45926e-06
1.45535e-06
1.45535e-06
1.45535e-06
1.45535e-06
1.45535e-06
1.45535e-06
1.46077e-06
1.46204e-06
1.46188e-06
1.45905e-06
1.45535e-06
1.45535e-06
1.45535e-06
1.45535e-06
1.45535e-06
1.45535e-06
1.46075e-06
1.46012e-06
1.45935e-06
1.45535e-06
1.45535e-06
1.45535e-06
1.45535e-06
1.45535e-06
1.45535e-06
1.46067e-06
1.46242e-06
1.46181e-06
1.45923e-06
1.45535e-06
1.45535e-06
1.45535e-06
1.45535e-06
1.46061e-06
1.46037e-06
1.46235e-06
1.46197e-06
1.46004e-06
1.46051e-06
1.46077e-06
1.46075e-06
1.46067e-06
1.46037e-06
1.4623e-06
1.46241e-06
1.46204e-06
1.46012e-06
1.46242e-06
1.46235e-06
1.44211e-06
1.44196e-06
1.44175e-06
1.43936e-06
1.43934e-06
1.43912e-06
1.43943e-06
1.44189e-06
1.44205e-06
1.44176e-06
1.43828e-06
1.43543e-06
1.43543e-06
1.43543e-06
1.43543e-06
1.43931e-06
1.44012e-06
1.43936e-06
1.43543e-06
1.43543e-06
1.43543e-06
1.43543e-06
1.43543e-06
1.43543e-06
1.44059e-06
1.44249e-06
1.44212e-06
1.43934e-06
1.43543e-06
1.43543e-06
1.43543e-06
1.43543e-06
1.43543e-06
1.43543e-06
1.44085e-06
1.44212e-06
1.44196e-06
1.43912e-06
1.43543e-06
1.43543e-06
1.43543e-06
1.43543e-06
1.43543e-06
1.43543e-06
1.44082e-06
1.4402e-06
1.43943e-06
1.43543e-06
1.43543e-06
1.43543e-06
1.43543e-06
1.43543e-06
1.43543e-06
1.44075e-06
1.4425e-06
1.44189e-06
1.43931e-06
1.43543e-06
1.43543e-06
1.43543e-06
1.43543e-06
1.44068e-06
1.44045e-06
1.44242e-06
1.44205e-06
1.44012e-06
1.44059e-06
1.44084e-06
1.44082e-06
1.44075e-06
1.44045e-06
1.44238e-06
1.44249e-06
1.44212e-06
1.4402e-06
1.4425e-06
1.44243e-06
1.42219e-06
1.42204e-06
1.42183e-06
1.41944e-06
1.41941e-06
1.4192e-06
1.41951e-06
1.42197e-06
1.42213e-06
1.42183e-06
1.41836e-06
1.4155e-06
1.4155e-06
1.4155e-06
1.4155e-06
1.41939e-06
1.4202e-06
1.41944e-06
1.41551e-06
1.4155e-06
1.4155e-06
1.4155e-06
1.4155e-06
1.4155e-06
1.42067e-06
1.42257e-06
1.42219e-06
1.41941e-06
1.4155e-06
1.4155e-06
1.4155e-06
1.4155e-06
1.4155e-06
1.4155e-06
1.42092e-06
1.4222e-06
1.42203e-06
1.4192e-06
1.4155e-06
1.4155e-06
1.4155e-06
1.4155e-06
1.4155e-06
1.4155e-06
1.4209e-06
1.42028e-06
1.41951e-06
1.4155e-06
1.4155e-06
1.4155e-06
1.4155e-06
1.4155e-06
1.4155e-06
1.42083e-06
1.42258e-06
1.42197e-06
1.41939e-06
1.4155e-06
1.4155e-06
1.4155e-06
1.4155e-06
1.42076e-06
1.42053e-06
1.4225e-06
1.42213e-06
1.4202e-06
1.42066e-06
1.42092e-06
1.4209e-06
1.42083e-06
1.42053e-06
1.42246e-06
1.42257e-06
1.4222e-06
1.42028e-06
1.42258e-06
1.42251e-06
1.40227e-06
1.40212e-06
1.40191e-06
1.39951e-06
1.39949e-06
1.39928e-06
1.39959e-06
1.40205e-06
1.40221e-06
1.40191e-06
1.39844e-06
1.39558e-06
1.39558e-06
1.39558e-06
1.39558e-06
1.39946e-06
1.40028e-06
1.39951e-06
1.39558e-06
1.39558e-06
1.39558e-06
1.39558e-06
1.39558e-06
1.39558e-06
1.40074e-06
1.40264e-06
1.40227e-06
1.39949e-06
1.39558e-06
1.39558e-06
1.39558e-06
1.39558e-06
1.39558e-06
1.39558e-06
1.401e-06
1.40227e-06
1.40211e-06
1.39928e-06
1.39558e-06
1.39558e-06
1.39558e-06
1.39558e-06
1.39558e-06
1.39558e-06
1.40098e-06
1.40035e-06
1.39958e-06
1.39558e-06
1.39558e-06
1.39558e-06
1.39558e-06
1.39558e-06
1.39558e-06
1.4009e-06
1.40265e-06
1.40204e-06
1.39946e-06
1.39558e-06
1.39558e-06
1.39558e-06
1.39558e-06
1.40084e-06
1.4006e-06
1.40258e-06
1.4022e-06
1.40027e-06
1.40074e-06
1.401e-06
1.40098e-06
1.40091e-06
1.40061e-06
1.40253e-06
1.40264e-06
1.40227e-06
1.40036e-06
1.40265e-06
1.40258e-06
1.38234e-06
1.38219e-06
1.38198e-06
1.37959e-06
1.37957e-06
1.37935e-06
1.37966e-06
1.38212e-06
1.38228e-06
1.38199e-06
1.37851e-06
1.37566e-06
1.37566e-06
1.37566e-06
1.37566e-06
1.37954e-06
1.38035e-06
1.37959e-06
1.37566e-06
1.37566e-06
1.37566e-06
1.37566e-06
1.37566e-06
1.37566e-06
1.38082e-06
1.38272e-06
1.38235e-06
1.37957e-06
1.37566e-06
1.37566e-06
1.37566e-06
1.37566e-06
1.37566e-06
1.37566e-06
1.38108e-06
1.38235e-06
1.38219e-06
1.37935e-06
1.37566e-06
1.37566e-06
1.37566e-06
1.37566e-06
1.37566e-06
1.37566e-06
1.38106e-06
1.38043e-06
1.37966e-06
1.37566e-06
1.37566e-06
1.37566e-06
1.37566e-06
1.37566e-06
1.37566e-06
1.38098e-06
1.38273e-06
1.38212e-06
1.37954e-06
1.37566e-06
1.37566e-06
1.37566e-06
1.37566e-06
1.38091e-06
1.38068e-06
1.38265e-06
1.38228e-06
1.38035e-06
1.38082e-06
1.38107e-06
1.38106e-06
1.38098e-06
1.38068e-06
1.38261e-06
1.38272e-06
1.38235e-06
1.38043e-06
1.38273e-06
1.38266e-06
1.36242e-06
1.36227e-06
1.36206e-06
1.35967e-06
1.35964e-06
1.35943e-06
1.35974e-06
1.3622e-06
1.36236e-06
1.36206e-06
1.35859e-06
1.35573e-06
1.35573e-06
1.35573e-06
1.35573e-06
1.35962e-06
1.36043e-06
1.35967e-06
1.35573e-06
1.35573e-06
1.35573e-06
1.35573e-06
1.35573e-06
1.35573e-06
1.36089e-06
1.3628e-06
1.36242e-06
1.35964e-06
1.35573e-06
1.35573e-06
1.35573e-06
1.35573e-06
1.35573e-06
1.35573e-06
1.36115e-06
1.36243e-06
1.36226e-06
1.35943e-06
1.35573e-06
1.35573e-06
1.35573e-06
1.35573e-06
1.35573e-06
1.35573e-06
1.36113e-06
1.36051e-06
1.35974e-06
1.35573e-06
1.35573e-06
1.35573e-06
1.35573e-06
1.35573e-06
1.35573e-06
1.36106e-06
1.36281e-06
1.3622e-06
1.35962e-06
1.35573e-06
1.35573e-06
1.35573e-06
1.35573e-06
1.36099e-06
1.36076e-06
1.36273e-06
1.36236e-06
1.36043e-06
1.36089e-06
1.36115e-06
1.36113e-06
1.36106e-06
1.36076e-06
1.36269e-06
1.3628e-06
1.36243e-06
1.36051e-06
1.36281e-06
1.36274e-06
1.3425e-06
1.34235e-06
1.34214e-06
1.33974e-06
1.33972e-06
1.3395e-06
1.33981e-06
1.34227e-06
1.34244e-06
1.34214e-06
1.33867e-06
1.33581e-06
1.33581e-06
1.33581e-06
1.33581e-06
1.3397e-06
1.34051e-06
1.33974e-06
1.33581e-06
1.33581e-06
1.33581e-06
1.33581e-06
1.33581e-06
1.33581e-06
1.34097e-06
1.34287e-06
1.3425e-06
1.33972e-06
1.33581e-06
1.33581e-06
1.33581e-06
1.33581e-06
1.33581e-06
1.33581e-06
1.34123e-06
1.3425e-06
1.34234e-06
1.33951e-06
1.33581e-06
1.33581e-06
1.33581e-06
1.33581e-06
1.33581e-06
1.33581e-06
1.34121e-06
1.34058e-06
1.33981e-06
1.33581e-06
1.33581e-06
1.33581e-06
1.33581e-06
1.33581e-06
1.33581e-06
1.34113e-06
1.34288e-06
1.34227e-06
1.33969e-06
1.33581e-06
1.33581e-06
1.33581e-06
1.33581e-06
1.34107e-06
1.34083e-06
1.34281e-06
1.34243e-06
1.3405e-06
1.34097e-06
1.34123e-06
1.34121e-06
1.34114e-06
1.34084e-06
1.34276e-06
1.34287e-06
1.3425e-06
1.34059e-06
1.34288e-06
1.34281e-06
1.32257e-06
1.32242e-06
1.32221e-06
1.31982e-06
1.3198e-06
1.31958e-06
1.31989e-06
1.32235e-06
1.32251e-06
1.32222e-06
1.31874e-06
1.31589e-06
1.31589e-06
1.31589e-06
1.31589e-06
1.31977e-06
1.32058e-06
1.31982e-06
1.31589e-06
1.31589e-06
1.31589e-06
1.31589e-06
1.31589e-06
1.31589e-06
1.32105e-06
1.32295e-06
1.32258e-06
1.3198e-06
1.31589e-06
1.31589e-06
1.31589e-06
1.31589e-06
1.31589e-06
1.31589e-06
1.32131e-06
1.32258e-06
1.32242e-06
1.31958e-06
1.31589e-06
1.31589e-06
1.31589e-06
1.31589e-06
1.31589e-06
1.31589e-06
1.32128e-06
1.32066e-06
1.31989e-06
1.31589e-06
1.31589e-06
1.31589e-06
1.31589e-06
1.31589e-06
1.31589e-06
1.32121e-06
1.32296e-06
1.32235e-06
1.31977e-06
1.31589e-06
1.31589e-06
1.31589e-06
1.31589e-06
1.32114e-06
1.32091e-06
1.32288e-06
1.32251e-06
1.32058e-06
1.32105e-06
1.3213e-06
1.32128e-06
1.32121e-06
1.32091e-06
1.32284e-06
1.32295e-06
1.32258e-06
1.32066e-06
1.32296e-06
1.32289e-06
1.30265e-06
1.3025e-06
1.30229e-06
1.29989e-06
1.29987e-06
1.29966e-06
1.29997e-06
1.30243e-06
1.30259e-06
1.30229e-06
1.29882e-06
1.29596e-06
1.29596e-06
1.29596e-06
1.29596e-06
1.29985e-06
1.30066e-06
1.29989e-06
1.29596e-06
1.29596e-06
1.29596e-06
1.29596e-06
1.29596e-06
1.29596e-06
1.30112e-06
1.30302e-06
1.30265e-06
1.29987e-06
1.29596e-06
1.29596e-06
1.29596e-06
1.29596e-06
1.29596e-06
1.29596e-06
1.30138e-06
1.30265e-06
1.30249e-06
1.29966e-06
1.29596e-06
1.29596e-06
1.29596e-06
1.29596e-06
1.29596e-06
1.29596e-06
1.30136e-06
1.30074e-06
1.29996e-06
1.29596e-06
1.29596e-06
1.29596e-06
1.29596e-06
1.29596e-06
1.29596e-06
1.30129e-06
1.30303e-06
1.30243e-06
1.29984e-06
1.29596e-06
1.29596e-06
1.29596e-06
1.29596e-06
1.30122e-06
1.30099e-06
1.30296e-06
1.30258e-06
1.30065e-06
1.30112e-06