/*--------------------------------*- C++ -*----------------------------------*\
| =========                 |                                                 |
| \\      /  F ield         | OpenFOAM: The Open Source CFD Toolbox           |
|  \\    /   O peration     | Version:  v2012                                 |
|   \\  /    A nd           | Website:  www.openfoam.com                      |
|    \\/     M anipulation  |                                                 |
\*---------------------------------------------------------------------------*/
FoamFile
{
    version     2.0;
    format      ascii;
    class       volScalarField;
    location    "887.5";
    object      k;
}
// * * * * * * * * * * * * * * * * * * * * * * * * * * * * * * * * * * * * * //

dimensions      [0 2 -2 0 0 0 0];


internalField   nonuniform List<scalar> 
171728
(
1.66195e-07
2.59729e-07
4.4433e-07
3.57758e-07
1.65158e-07
2.47173e-07
4.53548e-07
3.39668e-07
1.61446e-07
2.34973e-07
4.87726e-07
3.25154e-07
1.57807e-07
2.2416e-07
5.50069e-07
3.14187e-07
1.54251e-07
2.14262e-07
6.26341e-07
3.02227e-07
1.50721e-07
2.05155e-07
6.96494e-07
2.83958e-07
1.47332e-07
1.97228e-07
7.16316e-07
2.67114e-07
1.44091e-07
1.90488e-07
5.84407e-07
2.5312e-07
1.41035e-07
1.84493e-07
3.47739e-07
2.41724e-07
1.37483e-07
1.79187e-07
2.28518e-07
2.32554e-07
1.34645e-07
1.74468e-07
1.93244e-07
2.33511e-07
1.3245e-07
1.70827e-07
1.85094e-07
2.53932e-07
1.30562e-07
1.68141e-07
1.84962e-07
3.07007e-07
1.29065e-07
1.66845e-07
1.87139e-07
3.73645e-07
1.28658e-07
1.674e-07
1.91611e-07
4.31628e-07
1.28836e-07
1.71091e-07
1.99161e-07
4.43923e-07
1.25725e-07
1.80422e-07
2.10432e-07
3.2948e-07
1.17136e-07
2.00264e-07
2.31329e-07
2.54335e-07
1.09652e-07
2.30828e-07
2.655e-07
2.76637e-07
1.04297e-07
2.67956e-07
3.11644e-07
3.3325e-07
1.03102e-07
3.50128e-07
3.82042e-07
4.43818e-07
1.01717e-07
4.80461e-07
4.84823e-07
6.03787e-07
1.01535e-07
6.30712e-07
6.67114e-07
1.59098e-06
1.02101e-07
8.84875e-07
9.15897e-07
1.47516e-06
1.03213e-07
1.13273e-06
1.16798e-06
2.50667e-06
1.07303e-07
1.7057e-06
1.62532e-06
4.64764e-06
1.13275e-07
2.15701e-06
2.17876e-06
6.23266e-06
1.2266e-07
2.62943e-06
2.75064e-06
7.20663e-06
1.37255e-07
3.50519e-06
3.50234e-06
9.7006e-06
1.61713e-07
4.39246e-06
4.35862e-06
1.28882e-05
1.94026e-07
5.35046e-06
5.37315e-06
1.47973e-05
2.38537e-07
6.58733e-06
6.46042e-06
1.72811e-05
3.21103e-07
7.62678e-06
7.854e-06
1.93687e-05
3.74834e-07
8.95774e-06
9.11265e-06
2.21617e-05
5.37984e-07
1.07399e-05
1.05766e-05
2.33224e-05
6.38149e-07
1.18074e-05
1.19261e-05
2.42948e-05
8.94884e-07
1.42863e-05
1.39513e-05
2.70736e-05
1.09163e-06
1.51682e-05
1.52559e-05
2.83981e-05
1.45018e-06
1.72525e-05
1.81693e-05
2.88156e-05
1.59632e-06
1.91526e-05
1.92283e-05
3.05765e-05
2.59996e-06
2.08028e-05
2.07677e-05
3.1792e-05
3.06643e-06
2.23926e-05
2.23741e-05
3.25626e-05
3.19641e-06
2.45587e-05
2.48989e-05
3.42669e-05
4.17161e-06
2.63723e-05
2.60962e-05
3.49641e-05
5.00612e-06
2.77851e-05
2.8152e-05
3.62312e-05
6.01253e-06
2.96109e-05
2.92888e-05
3.68863e-05
6.85392e-06
3.08935e-05
3.12641e-05
3.87656e-05
8.14165e-06
3.33377e-05
3.30686e-05
3.93001e-05
9.67606e-06
3.38103e-05
3.38403e-05
4.01388e-05
9.86911e-06
3.58344e-05
3.54859e-05
4.14968e-05
1.20893e-05
3.67952e-05
3.70679e-05
4.18728e-05
1.45581e-05
3.81119e-05
3.7881e-05
4.32906e-05
1.53199e-05
3.95844e-05
3.96466e-05
4.46396e-05
1.64824e-05
3.95973e-05
4.0056e-05
4.46356e-05
1.76444e-05
4.18175e-05
4.14124e-05
4.54551e-05
2.04361e-05
4.34573e-05
4.27991e-05
4.6708e-05
2.17118e-05
4.34588e-05
4.3638e-05
4.70072e-05
2.29369e-05
4.38503e-05
4.3844e-05
4.73873e-05
2.40861e-05
4.52221e-05
4.53743e-05
4.88974e-05
2.60792e-05
4.63715e-05
4.65293e-05
4.95442e-05
2.73902e-05
4.70385e-05
4.6631e-05
4.96457e-05
2.83503e-05
4.78002e-05
4.7762e-05
4.99637e-05
3.0131e-05
4.82996e-05
4.88936e-05
5.1859e-05
3.10837e-05
4.97411e-05
4.92254e-05
5.19379e-05
3.24172e-05
4.98884e-05
4.99105e-05
5.14894e-05
3.32352e-05
5.00335e-05
5.03836e-05
5.28763e-05
3.44809e-05
5.13236e-05
5.11653e-05
5.37566e-05
3.57107e-05
5.20268e-05
5.1986e-05
5.31948e-05
3.629e-05
5.20944e-05
5.20152e-05
5.3368e-05
3.77552e-05
5.28468e-05
5.31911e-05
5.56407e-05
3.86504e-05
5.36319e-05
5.37255e-05
5.51787e-05
3.91886e-05
5.3582e-05
5.35991e-05
5.42402e-05
3.94786e-05
5.40109e-05
5.35804e-05
5.5785e-05
4.13752e-05
5.50787e-05
5.4918e-05
5.70591e-05
4.24877e-05
5.5104e-05
5.56455e-05
5.56766e-05
4.21609e-05
5.49125e-05
5.51179e-05
5.56054e-05
4.18968e-05
5.50167e-05
5.45911e-05
5.79464e-05
4.36243e-05
5.64948e-05
5.60463e-05
5.75207e-05
4.52584e-05
5.66191e-05
5.6996e-05
5.61838e-05
4.48436e-05
5.56046e-05
5.63461e-05
5.70953e-05
4.43371e-05
5.63844e-05
5.59219e-05
5.8394e-05
4.48569e-05
5.74378e-05
5.7013e-05
5.80998e-05
4.60358e-05
5.67974e-05
5.72678e-05
5.7542e-05
4.61292e-05
5.63255e-05
5.63868e-05
5.73065e-05
4.61127e-05
5.69699e-05
5.6755e-05
5.80288e-05
4.68905e-05
5.78469e-05
5.79314e-05
5.88341e-05
4.6813e-05
5.77341e-05
5.72676e-05
5.80286e-05
4.59806e-05
5.60692e-05
5.60673e-05
5.72877e-05
4.61663e-05
5.67896e-05
5.70758e-05
5.87676e-05
4.75555e-05
5.81546e-05
5.80883e-05
5.88855e-05
4.72348e-05
5.66558e-05
5.65658e-05
5.67917e-05
4.61891e-05
5.58355e-05
5.59018e-05
5.716e-05
4.6572e-05
5.73676e-05
5.73377e-05
5.89771e-05
4.74912e-05
5.77941e-05
5.77233e-05
5.91802e-05
4.65306e-05
5.43962e-05
5.47583e-05
5.65263e-05
3.5546e-07
3.01157e-07
3.06917e-07
3.53077e-07
3.29171e-07
2.94453e-07
1.64512e-07
1.47602e-07
2.07261e-07
2.0839e-07
2.90002e-07
3.09806e-07
3.61701e-07
3.74926e-07
3.21216e-07
3.60645e-07
3.54294e-07
3.35148e-07
2.57456e-07
2.56265e-07
2.50073e-07
2.4816e-07
3.52206e-07
3.31495e-07
3.30832e-07
3.1701e-07
3.22482e-07
3.10551e-07
4.248e-07
2.50392e-07
4.38238e-07
3.59797e-07
3.45194e-07
3.30979e-07
4.50245e-07
3.20291e-07
3.42863e-07
3.33832e-07
3.1703e-07
2.47328e-07
2.44618e-07
2.39582e-07
2.34565e-07
3.30399e-07
3.10885e-07
3.19537e-07
3.07157e-07
3.10792e-07
2.95857e-07
4.41868e-07
2.37866e-07
4.50782e-07
3.42374e-07
3.31946e-07
3.15793e-07
4.7522e-07
3.02453e-07
3.27776e-07
3.15836e-07
3.00395e-07
2.37271e-07
2.31539e-07
2.31697e-07
2.23262e-07
3.09912e-07
2.92613e-07
3.07621e-07
2.92532e-07
2.98525e-07
2.83073e-07
4.53441e-07
2.26726e-07
4.62406e-07
3.29934e-07
3.28507e-07
2.98332e-07
5.33754e-07
2.8655e-07
3.16135e-07
2.99322e-07
2.86399e-07
2.30013e-07
2.2065e-07
2.25247e-07
2.12921e-07
2.91718e-07
2.76233e-07
2.95856e-07
2.80598e-07
2.88313e-07
2.7732e-07
4.64707e-07
2.16635e-07
4.64641e-07
3.27619e-07
3.33574e-07
2.82645e-07
6.06161e-07
2.71171e-07
3.05363e-07
2.85633e-07
2.76255e-07
2.23674e-07
2.10344e-07
2.18915e-07
2.02976e-07
2.75442e-07
2.61673e-07
2.86121e-07
2.77155e-07
2.79747e-07
2.78738e-07
4.58594e-07
2.07308e-07
4.09574e-07
3.32988e-07
3.43081e-07
2.67936e-07
6.82e-07
2.60842e-07
2.87263e-07
2.75692e-07
2.67972e-07
2.17501e-07
2.0069e-07
2.14124e-07
1.94068e-07
2.60988e-07
2.48605e-07
2.77456e-07
2.82851e-07
2.70403e-07
3.02667e-07
3.88462e-07
1.99027e-07
3.20406e-07
3.42157e-07
3.4949e-07
2.58991e-07
7.16358e-07
2.53224e-07
2.69252e-07
2.67363e-07
2.58199e-07
2.13017e-07
1.92e-07
2.10587e-07
1.86425e-07
2.48034e-07
2.3696e-07
2.68346e-07
3.08544e-07
2.63002e-07
3.2696e-07
2.9994e-07
1.92054e-07
2.59827e-07
3.47176e-07
3.37052e-07
2.51274e-07
6.48669e-07
2.46257e-07
2.54136e-07
2.57482e-07
2.48796e-07
2.09802e-07
1.84727e-07
2.06406e-07
1.79953e-07
2.3655e-07
2.26957e-07
2.61345e-07
3.381e-07
2.58675e-07
4.00114e-07
2.52224e-07
1.8593e-07
2.3847e-07
3.26446e-07
3.03014e-07
2.44886e-07
3.97847e-07
2.42323e-07
2.42607e-07
2.48303e-07
2.39897e-07
2.04833e-07
1.78445e-07
1.99679e-07
1.73974e-07
2.26712e-07
2.17558e-07
2.58055e-07
4.29309e-07
2.52756e-07
5.15899e-07
2.35529e-07
1.80337e-07
2.28755e-07
3.02435e-07
3.04913e-07
2.41947e-07
2.47691e-07
2.42122e-07
2.32872e-07
2.39373e-07
2.30679e-07
1.97946e-07
1.72652e-07
1.93841e-07
1.69314e-07
2.1736e-07
2.08103e-07
2.50433e-07
5.3698e-07
2.47473e-07
5.64593e-07
2.26895e-07
1.75592e-07
2.2246e-07
3.04312e-07
3.06151e-07
2.43619e-07
1.97875e-07
2.64259e-07
2.32837e-07
2.3033e-07
2.24522e-07
1.92765e-07
1.68341e-07
1.90458e-07
1.65997e-07
2.07982e-07
1.99874e-07
2.47482e-07
5.64758e-07
2.48642e-07
4.94997e-07
2.21274e-07
1.716e-07
2.18096e-07
3.05366e-07
2.55456e-07
2.77211e-07
1.86079e-07
3.45632e-07
2.50723e-07
2.24546e-07
2.23376e-07
1.90025e-07
1.65348e-07
1.89151e-07
1.63472e-07
1.99877e-07
1.93083e-07
2.5033e-07
4.39922e-07
2.64848e-07
3.09835e-07
2.17383e-07
1.68673e-07
2.16845e-07
2.50511e-07
2.18825e-07
3.80443e-07
1.84774e-07
5.14419e-07
3.02243e-07
2.23991e-07
2.26494e-07
1.89144e-07
1.63049e-07
1.89817e-07
1.62682e-07
1.93217e-07
1.88116e-07
2.71254e-07
2.77588e-07
2.97556e-07
2.14517e-07
2.17019e-07
1.67147e-07
2.18707e-07
2.17333e-07
1.99789e-07
5.66531e-07
1.86567e-07
7.24339e-07
3.68535e-07
2.27956e-07
2.35983e-07
1.9012e-07
1.62692e-07
1.92014e-07
1.63241e-07
1.8847e-07
1.84781e-07
3.08732e-07
2.02666e-07
3.48638e-07
1.83815e-07
2.1977e-07
1.67052e-07
2.24134e-07
1.9937e-07
1.92717e-07
7.7045e-07
1.90423e-07
8.71183e-07
4.25471e-07
2.38686e-07
2.47546e-07
1.93082e-07
1.63929e-07
1.97148e-07
1.66386e-07
1.85535e-07
1.85436e-07
3.62715e-07
1.80508e-07
4.02713e-07
1.74587e-07
2.25685e-07
1.69803e-07
2.29371e-07
1.93096e-07
1.91334e-07
8.91078e-07
1.9671e-07
9.10252e-07
4.42966e-07
2.50115e-07
2.5477e-07
1.99784e-07
1.67744e-07
2.04572e-07
1.75435e-07
1.87213e-07
1.89608e-07
4.12085e-07
1.7462e-07
4.31954e-07
1.77422e-07
2.29821e-07
1.78633e-07
2.28063e-07
1.9279e-07
1.96564e-07
9.09119e-07
2.06728e-07
7.6862e-07
3.40553e-07
2.56845e-07
2.5673e-07
2.07911e-07
1.77326e-07
2.20068e-07
1.91401e-07
1.92856e-07
2.04868e-07
4.34078e-07
1.80351e-07
4.17987e-07
1.91019e-07
2.28216e-07
1.94608e-07
2.33761e-07
2.00142e-07
2.10565e-07
6.76167e-07
2.24308e-07
4.54614e-07
2.53322e-07
2.60093e-07
2.73339e-07
2.22481e-07
1.97035e-07
2.50284e-07
2.12875e-07
2.10498e-07
2.33824e-07
4.03193e-07
1.95827e-07
3.56579e-07
2.18529e-07
2.37885e-07
2.1693e-07
2.5562e-07
2.16481e-07
2.41331e-07
4.14196e-07
2.55786e-07
3.5973e-07
2.66765e-07
2.81832e-07
3.17096e-07
2.56541e-07
2.26669e-07
2.91166e-07
2.56954e-07
2.48357e-07
2.95384e-07
3.34836e-07
2.27462e-07
3.1972e-07
2.56391e-07
2.64082e-07
2.59734e-07
3.02051e-07
2.53736e-07
2.97485e-07
3.4693e-07
2.96328e-07
3.24404e-07
3.16891e-07
3.41969e-07
3.98354e-07
3.11149e-07
2.66195e-07
3.40498e-07
3.34972e-07
3.10948e-07
4.10613e-07
3.32826e-07
2.72266e-07
3.78112e-07
3.23065e-07
3.17234e-07
3.36012e-07
3.57946e-07
3.18911e-07
4.09341e-07
3.23922e-07
3.56222e-07
3.31764e-07
4.00962e-07
4.24267e-07
7.69828e-07
3.63394e-07
3.49471e-07
5.03336e-07
4.47139e-07
4.52355e-07
6.31943e-07
3.88259e-07
3.49456e-07
5.14809e-07
4.23012e-07
3.85073e-07
4.45188e-07
4.63702e-07
4.42286e-07
6.11676e-07
3.46123e-07
4.57687e-07
4.30594e-07
5.91595e-07
8.40171e-07
8.36895e-07
5.2991e-07
4.82566e-07
5.7399e-07
5.47758e-07
7.01673e-07
8.53172e-07
5.49722e-07
4.49063e-07
5.82022e-07
5.91692e-07
4.7414e-07
5.47003e-07
6.7257e-07
6.58781e-07
9.9161e-07
4.41817e-07
6.27496e-07
6.37731e-07
1.23588e-06
8.78982e-07
1.64475e-06
6.26483e-07
6.27659e-07
8.46271e-07
8.80043e-07
9.89924e-07
1.84427e-06
6.14413e-07
6.30561e-07
8.29821e-07
7.96297e-07
7.87187e-07
8.76768e-07
8.66292e-07
1.1007e-06
1.48601e-06
7.51474e-07
8.26929e-07
8.25985e-07
1.60217e-06
1.8011e-06
2.34385e-06
9.05089e-07
8.90916e-07
1.13202e-06
9.61128e-07
1.85369e-06
1.75428e-06
8.82871e-07
8.90469e-07
1.09985e-06
1.0856e-06
8.45871e-07
9.44509e-07
1.00085e-06
1.67671e-06
2.43345e-06
8.05864e-07
1.11533e-06
9.87189e-07
1.82157e-06
2.56238e-06
3.46404e-06
1.20121e-06
1.15405e-06
1.48567e-06
1.66675e-06
2.19801e-06
4.717e-06
1.17685e-06
1.13591e-06
1.47656e-06
1.43685e-06
1.22438e-06
1.67001e-06
1.63302e-06
2.52562e-06
3.32013e-06
1.21214e-06
1.4748e-06
1.6133e-06
4.49195e-06
3.75414e-06
5.42973e-06
1.6286e-06
1.70115e-06
2.03404e-06
1.95559e-06
4.80503e-06
4.73228e-06
1.6125e-06
1.59954e-06
2.02137e-06
2.03225e-06
1.7578e-06
1.94783e-06
2.10546e-06
3.6985e-06
5.58371e-06
1.74033e-06
2.05819e-06
2.08348e-06
5.95024e-06
5.75325e-06
7.01462e-06
2.15125e-06
2.15344e-06
2.59504e-06
2.48539e-06
5.07675e-06
7.26022e-06
2.13904e-06
2.15243e-06
2.58566e-06
2.60073e-06
2.2194e-06
2.47646e-06
2.57803e-06
5.92014e-06
7.10068e-06
2.18929e-06
2.61132e-06
2.54145e-06
6.81413e-06
7.43443e-06
9.3902e-06
2.76672e-06
2.64148e-06
3.31064e-06
3.38508e-06
7.45078e-06
9.25295e-06
2.75236e-06
2.74886e-06
3.29445e-06
3.24606e-06
2.72404e-06
3.33835e-06
3.26959e-06
7.50052e-06
9.30077e-06
2.70355e-06
3.25071e-06
3.25654e-06
9.2364e-06
9.85367e-06
1.19735e-05
3.51578e-06
3.53068e-06
4.15413e-06
4.04778e-06
9.99531e-06
1.18876e-05
3.50344e-06
3.4758e-06
4.15307e-06
4.13558e-06
3.45868e-06
4.02224e-06
4.29418e-06
9.74278e-06
1.20156e-05
3.45545e-06
4.13311e-06
4.289e-06
1.22876e-05
1.25212e-05
1.45268e-05
4.39212e-06
4.40023e-06
5.19556e-06
5.21854e-06
1.23129e-05
1.4874e-05
4.41938e-06
4.37217e-06
5.2077e-06
5.11069e-06
4.60545e-06
5.25641e-06
5.03632e-06
1.25297e-05
1.43981e-05
4.562e-06
5.14734e-06
4.99561e-06
1.43906e-05
1.49686e-05
1.66203e-05
5.41288e-06
5.33956e-06
6.08987e-06
6.2982e-06
1.5422e-05
1.66242e-05
5.39848e-06
5.36479e-06
6.09325e-06
6.22495e-06
5.27609e-06
6.22698e-06
6.31863e-06
1.49028e-05
1.67319e-05
5.2717e-06
6.19706e-06
6.30041e-06
1.67905e-05
1.71526e-05
1.93207e-05
6.46443e-06
6.66316e-06
7.59539e-06
7.30803e-06
1.70388e-05
1.92125e-05
6.47523e-06
6.48154e-06
7.64966e-06
7.40903e-06
6.61434e-06
7.30896e-06
7.33913e-06
1.72416e-05
1.90927e-05
6.58256e-06
7.39856e-06
7.34006e-06
1.90399e-05
1.98186e-05
2.11351e-05
7.93506e-06
7.65028e-06
8.71385e-06
8.69598e-06
1.96355e-05
2.08532e-05
7.97639e-06
7.82409e-06
8.66344e-06
8.87988e-06
7.62051e-06
8.66249e-06
8.88011e-06
1.95849e-05
2.13819e-05
7.63117e-06
8.88939e-06
8.83946e-06
2.14247e-05
2.14731e-05
2.28462e-05
8.92798e-06
9.01262e-06
1.02354e-05
1.0392e-05
2.14077e-05
2.31195e-05
8.91104e-06
9.16928e-06
1.0262e-05
1.01358e-05
9.30088e-06
1.03848e-05
1.06309e-05
2.17721e-05
2.2769e-05
9.24855e-06
1.0113e-05
1.05963e-05
2.31656e-05
2.33404e-05
2.47186e-05
1.07197e-05
1.07021e-05
1.1665e-05
1.14272e-05
2.33726e-05
2.43945e-05
1.07004e-05
1.05227e-05
1.16347e-05
1.15418e-05
1.09207e-05
1.14234e-05
1.11699e-05
2.31652e-05
2.46789e-05
1.08825e-05
1.15497e-05
1.11509e-05
2.39088e-05
2.50385e-05
2.61033e-05
1.20405e-05
1.18522e-05
1.34544e-05
1.36975e-05
2.49635e-05
2.65144e-05
1.2041e-05
1.19906e-05
1.34085e-05
1.37005e-05
1.13278e-05
1.3629e-05
1.35502e-05
2.51061e-05
2.61587e-05
1.13383e-05
1.36629e-05
1.35416e-05
2.64528e-05
2.65117e-05
2.78596e-05
1.38999e-05
1.43306e-05
1.50392e-05
1.50749e-05
2.6806e-05
2.73866e-05
1.38248e-05
1.39526e-05
1.49851e-05
1.46178e-05
1.42147e-05
1.50942e-05
1.56545e-05
2.641e-05
2.74798e-05
1.42072e-05
1.46818e-05
1.56671e-05
2.82033e-05
2.81531e-05
2.86459e-05
1.55813e-05
1.51514e-05
1.69361e-05
1.65989e-05
2.76219e-05
2.88501e-05
1.55422e-05
1.51333e-05
1.70483e-05
1.73639e-05
1.61144e-05
1.65364e-05
1.66842e-05
2.7985e-05
2.94053e-05
1.60467e-05
1.74791e-05
1.66238e-05
2.86328e-05
2.88044e-05
3.00094e-05
1.70317e-05
1.73123e-05
1.76748e-05
1.86077e-05
2.93371e-05
3.03414e-05
1.71859e-05
1.79971e-05
1.78143e-05
1.86422e-05
1.67786e-05
1.86749e-05
1.8071e-05
2.96759e-05
3.01516e-05
1.68037e-05
1.91684e-05
1.81814e-05
3.00985e-05
3.05999e-05
3.2126e-05
1.8626e-05
1.90771e-05
2.14632e-05
2.06086e-05
3.05857e-05
3.13637e-05
1.86122e-05
1.87339e-05
2.11359e-05
2.03472e-05
1.88461e-05
2.05642e-05
2.10242e-05
3.03546e-05
3.1328e-05
1.89778e-05
2.00441e-05
2.09021e-05
3.16185e-05
3.23261e-05
3.25466e-05
2.21135e-05
2.08811e-05
2.3172e-05
2.18983e-05
3.16e-05
3.2303e-05
2.17746e-05
2.11036e-05
2.25052e-05
2.20206e-05
2.13171e-05
2.17605e-05
2.16363e-05
3.1718e-05
3.25133e-05
2.11052e-05
2.2068e-05
2.15379e-05
3.22514e-05
3.27025e-05
3.35493e-05
2.32537e-05
2.25111e-05
2.35055e-05
2.39782e-05
3.26324e-05
3.38654e-05
2.2554e-05
2.23554e-05
2.35464e-05
2.41968e-05
2.19985e-05
2.4102e-05
2.44844e-05
3.27305e-05
3.38088e-05
2.21266e-05
2.4305e-05
2.45023e-05
3.40236e-05
3.38993e-05
3.48683e-05
2.39438e-05
2.43905e-05
2.5741e-05
2.60217e-05
3.41242e-05
3.48742e-05
2.42871e-05
2.47162e-05
2.5899e-05
2.57293e-05
2.49221e-05
2.59977e-05
2.561e-05
3.41545e-05
3.48583e-05
2.49081e-05
2.57063e-05
2.56083e-05
3.47343e-05
3.50899e-05
3.60433e-05
2.62453e-05
2.64693e-05
2.7616e-05
2.71932e-05
3.51181e-05
3.57999e-05
2.63125e-05
2.61212e-05
2.75701e-05
2.77754e-05
2.60205e-05
2.72057e-05
2.77846e-05
3.50616e-05
3.60581e-05
2.60213e-05
2.77848e-05
2.77543e-05
3.60371e-05
3.63233e-05
3.70565e-05
2.81195e-05
2.77103e-05
2.95584e-05
2.9459e-05
3.60413e-05
3.7081e-05
2.80135e-05
2.82165e-05
2.92696e-05
2.89767e-05
2.81725e-05
2.94559e-05
2.87258e-05
3.63142e-05
3.68002e-05
2.81285e-05
2.89066e-05
2.86886e-05
3.66158e-05
3.72269e-05
3.81104e-05
2.98488e-05
2.9671e-05
3.06127e-05
3.0369e-05
3.72678e-05
3.78061e-05
2.96137e-05
2.93352e-05
3.07339e-05
3.07404e-05
2.91297e-05
3.03412e-05
3.09939e-05
3.69925e-05
3.81193e-05
2.91166e-05
3.07298e-05
3.10289e-05
3.84701e-05
3.84206e-05
3.94242e-05
3.10713e-05
3.08834e-05
3.26673e-05
3.28407e-05
3.81012e-05
3.94797e-05
3.12472e-05
3.11982e-05
3.27764e-05
3.27773e-05
3.16132e-05
3.2875e-05
3.2855e-05
3.84277e-05
3.94209e-05
3.16447e-05
3.27501e-05
3.28167e-05
3.92252e-05
3.96135e-05
3.99721e-05
3.3163e-05
3.33229e-05
3.40721e-05
3.37282e-05
3.97069e-05
3.99365e-05
3.31695e-05
3.3281e-05
3.3954e-05
3.38417e-05
3.29663e-05
3.37286e-05
3.32671e-05
3.96349e-05
3.99651e-05
3.29081e-05
3.36036e-05
3.32076e-05
3.98172e-05
4.00547e-05
4.03183e-05
3.41154e-05
3.37879e-05
3.43098e-05
3.50741e-05
4.00356e-05
4.12186e-05
3.40057e-05
3.38742e-05
3.40838e-05
3.46704e-05
3.37309e-05
3.52117e-05
3.54222e-05
4.00482e-05
4.0833e-05
3.36936e-05
3.50375e-05
3.53994e-05
4.13259e-05
4.05998e-05
4.25871e-05
3.47947e-05
3.57358e-05
3.71112e-05
3.67916e-05
4.15607e-05
4.20895e-05
3.43265e-05
3.52248e-05
3.69503e-05
3.68943e-05
3.5875e-05
3.67433e-05
3.6532e-05
4.11818e-05
4.23449e-05
3.58561e-05
3.67521e-05
3.64951e-05
4.17737e-05
4.28931e-05
4.34396e-05
3.74098e-05
3.68424e-05
3.78506e-05
3.72923e-05
4.21347e-05
4.27561e-05
3.76581e-05
3.73588e-05
3.88769e-05
3.80425e-05
3.65783e-05
3.74813e-05
3.73448e-05
4.25474e-05
4.29691e-05
3.65381e-05
3.76379e-05
3.73483e-05
4.2841e-05
4.35649e-05
4.38637e-05
3.80996e-05
3.79292e-05
3.90463e-05
3.94041e-05
4.31618e-05
4.4173e-05
3.90388e-05
3.81537e-05
3.91469e-05
3.90347e-05
3.80999e-05
3.94243e-05
3.97111e-05
4.30949e-05
4.3888e-05
3.81127e-05
3.9223e-05
3.97374e-05
4.45286e-05
4.39533e-05
4.42912e-05
3.93592e-05
3.95885e-05
3.99536e-05
3.96839e-05
4.42335e-05
4.40171e-05
3.91669e-05
3.9463e-05
3.95696e-05
4.00496e-05
3.9996e-05
3.95909e-05
4.02526e-05
4.41415e-05
4.45549e-05
4.00292e-05
4.00319e-05
4.02291e-05
4.46213e-05
4.44258e-05
4.52896e-05
4.00441e-05
3.97453e-05
4.07838e-05
4.09941e-05
4.4065e-05
4.55779e-05
3.97502e-05
4.00742e-05
4.08326e-05
4.07229e-05
4.02425e-05
4.09385e-05
4.04701e-05
4.4592e-05
4.52351e-05
4.02004e-05
4.08909e-05
4.04246e-05
4.50691e-05
4.56229e-05
4.67902e-05
4.12698e-05
4.15628e-05
4.27402e-05
4.28855e-05
4.60473e-05
4.70339e-05
4.13795e-05
4.13558e-05
4.28713e-05
4.28699e-05
4.11e-05
4.33085e-05
4.28143e-05
4.5608e-05
4.6779e-05
4.10384e-05
4.25448e-05
4.23838e-05
4.66007e-05
4.69086e-05
4.6915e-05
4.2981e-05
4.31028e-05
4.31474e-05
4.31872e-05
4.70946e-05
4.68469e-05
4.312e-05
4.31583e-05
4.33073e-05
4.34303e-05
4.3071e-05
4.34748e-05
4.33711e-05
4.6913e-05
4.70816e-05
4.26164e-05
4.35122e-05
4.3352e-05
4.69242e-05
4.69788e-05
4.77371e-05
4.32379e-05
4.31931e-05
4.41444e-05
4.40214e-05
4.68625e-05
4.75137e-05
4.33844e-05
4.343e-05
4.40765e-05
4.36639e-05
4.33797e-05
4.36266e-05
4.35237e-05
4.71222e-05
4.73153e-05
4.3503e-05
4.37464e-05
4.37102e-05
4.72287e-05
4.78522e-05
4.81993e-05
4.4302e-05
4.43204e-05
4.47904e-05
4.48113e-05
4.77454e-05
4.82288e-05
4.42386e-05
4.40651e-05
4.48798e-05
4.52735e-05
4.38027e-05
4.47396e-05
4.51408e-05
4.74963e-05
4.85863e-05
4.3911e-05
4.49487e-05
4.50672e-05
4.86302e-05
4.84254e-05
4.939e-05
4.51088e-05
4.51658e-05
4.62615e-05
4.6142e-05
4.844e-05
4.93059e-05
4.52113e-05
4.55722e-05
4.62645e-05
4.62439e-05
4.55281e-05
4.62839e-05
4.62983e-05
4.88135e-05
4.93095e-05
4.54794e-05
4.6355e-05
4.64064e-05
4.9459e-05
4.95242e-05
4.95608e-05
4.65279e-05
4.62516e-05
4.67218e-05
4.66282e-05
4.93801e-05
4.95941e-05
4.65268e-05
4.63682e-05
4.67516e-05
4.64294e-05
4.64984e-05
4.67018e-05
4.69426e-05
4.93755e-05
4.93073e-05
4.66009e-05
4.66262e-05
4.6782e-05
4.96312e-05
4.95848e-05
5.0359e-05
4.6746e-05
4.69204e-05
4.75425e-05
4.77907e-05
4.98001e-05
5.04959e-05
4.6761e-05
4.64446e-05
4.73105e-05
4.72521e-05
4.69693e-05
4.77636e-05
4.7012e-05
4.93366e-05
5.02672e-05
4.67577e-05
4.72861e-05
4.68102e-05
4.97273e-05
5.06378e-05
5.11473e-05
4.79595e-05
4.78968e-05
4.85433e-05
4.80368e-05
5.05478e-05
5.06309e-05
4.77827e-05
4.77156e-05
4.86464e-05
4.87619e-05
4.71706e-05
4.79542e-05
4.87307e-05
5.0586e-05
5.13297e-05
4.71481e-05
4.87462e-05
4.88944e-05
5.15937e-05
5.11785e-05
5.14318e-05
4.85662e-05
4.82352e-05
4.89158e-05
4.93011e-05
5.08237e-05
5.19065e-05
4.8712e-05
4.89347e-05
4.90605e-05
4.91875e-05
4.91745e-05
4.95201e-05
4.9689e-05
5.14009e-05
5.15031e-05
4.92575e-05
4.91194e-05
4.95799e-05
5.1964e-05
5.16432e-05
5.22037e-05
4.92987e-05
4.95981e-05
4.99861e-05
4.99693e-05
5.2047e-05
5.20842e-05
4.92925e-05
4.93089e-05
4.99335e-05
4.9876e-05
4.96923e-05
4.99149e-05
4.9529e-05
5.15841e-05
5.21465e-05
4.95731e-05
4.96896e-05
4.93701e-05
5.14783e-05
5.22409e-05
5.22641e-05
5.00198e-05
4.99652e-05
5.01212e-05
5.00077e-05
5.20869e-05
5.21675e-05
5.00234e-05
5.00662e-05
5.01193e-05
5.02558e-05
4.94878e-05
4.98605e-05
4.98084e-05
5.22776e-05
5.2404e-05
4.9359e-05
5.03492e-05
5.01711e-05
5.24914e-05
5.23918e-05
5.33169e-05
5.0327e-05
5.023e-05
5.11547e-05
5.09414e-05
5.23635e-05
5.31443e-05
5.02337e-05
5.02545e-05
5.11179e-05
5.06764e-05
5.04169e-05
5.10866e-05
5.15775e-05
5.24153e-05
5.29265e-05
5.07581e-05
5.08267e-05
5.16296e-05
5.3732e-05
5.34925e-05
5.36451e-05
5.13785e-05
5.11641e-05
5.17685e-05
5.18738e-05
5.32644e-05
5.38259e-05
5.14092e-05
5.11677e-05
5.18812e-05
5.20327e-05
5.16676e-05
5.19037e-05
5.1618e-05
5.32195e-05
5.38752e-05
5.16707e-05
5.18848e-05
5.15629e-05
5.3244e-05
5.36397e-05
5.35187e-05
5.17736e-05
5.20348e-05
5.17689e-05
5.21916e-05
5.3916e-05
5.38818e-05
5.189e-05
5.21311e-05
5.18821e-05
5.21469e-05
5.14872e-05
5.21071e-05
5.13788e-05
5.38956e-05
5.37606e-05
5.1433e-05
5.20037e-05
5.13408e-05
5.30623e-05
5.3687e-05
5.50349e-05
5.18778e-05
5.21849e-05
5.30817e-05
5.23911e-05
5.38856e-05
5.42836e-05
5.19639e-05
5.21526e-05
5.30557e-05
5.27359e-05
5.15442e-05
5.24052e-05
5.33238e-05
5.37958e-05
5.46854e-05
5.15184e-05
5.27959e-05
5.33485e-05
5.54386e-05
5.51941e-05
5.50737e-05
5.3352e-05
5.27775e-05
5.35482e-05
5.35438e-05
5.45539e-05
5.51934e-05
5.33229e-05
5.30952e-05
5.35105e-05
5.36166e-05
5.36587e-05
5.3584e-05
5.37781e-05
5.49407e-05
5.52609e-05
5.3707e-05
5.37171e-05
5.38727e-05
5.53065e-05
5.50428e-05
5.46526e-05
5.35305e-05
5.36199e-05
5.33881e-05
5.36446e-05
5.52037e-05
5.50163e-05
5.34839e-05
5.36317e-05
5.32903e-05
5.35912e-05
5.36256e-05
5.36096e-05
5.30972e-05
5.52537e-05
5.49899e-05
5.37396e-05
5.36461e-05
5.31378e-05
5.42516e-05
5.46458e-05
5.48803e-05
5.33271e-05
5.36236e-05
5.33387e-05
5.36766e-05
5.50231e-05
5.53363e-05
5.32138e-05
5.35558e-05
5.32518e-05
5.35282e-05
5.30461e-05
5.3693e-05
5.35542e-05
5.49943e-05
5.50983e-05
5.30573e-05
5.35419e-05
5.33391e-05
5.53421e-05
5.51669e-05
5.68593e-05
5.35802e-05
5.38805e-05
5.51188e-05
5.48306e-05
5.55449e-05
5.63776e-05
5.35827e-05
5.36009e-05
5.52735e-05
5.46873e-05
5.42481e-05
5.49491e-05
5.54127e-05
5.52041e-05
5.60957e-05
5.39601e-05
5.45614e-05
5.52466e-05
5.70406e-05
5.70645e-05
5.70937e-05
5.54496e-05
5.50224e-05
5.57229e-05
5.52505e-05
5.64476e-05
5.63782e-05
5.55902e-05
5.50411e-05
5.57913e-05
5.57251e-05
5.54455e-05
5.51345e-05
5.49011e-05
5.63226e-05
5.70299e-05
5.53068e-05
5.55867e-05
5.49412e-05
5.58367e-05
5.69466e-05
5.5592e-05
5.56548e-05
5.52546e-05
5.47526e-05
5.51018e-05
5.63783e-05
5.62377e-05
5.5687e-05
5.57898e-05
5.46918e-05
5.5418e-05
5.45941e-05
5.49508e-05
5.43153e-05
5.71058e-05
5.64511e-05
5.47013e-05
5.53957e-05
5.44953e-05
5.53271e-05
5.54848e-05
5.53248e-05
5.45153e-05
5.50108e-05
5.42753e-05
5.47243e-05
5.62366e-05
5.60127e-05
5.44617e-05
5.50057e-05
5.41846e-05
5.42217e-05
5.44251e-05
5.48914e-05
5.60884e-05
5.62733e-05
5.5349e-05
5.46042e-05
5.46039e-05
5.60489e-05
5.77365e-05
5.55693e-05
5.78825e-05
5.43813e-05
5.47323e-05
5.63352e-05
5.60051e-05
5.60315e-05
5.74792e-05
5.42463e-05
5.41649e-05
5.60616e-05
5.50089e-05
5.6442e-05
5.61848e-05
5.65813e-05
5.53438e-05
5.68391e-05
5.63549e-05
5.54894e-05
5.64924e-05
5.77221e-05
5.81864e-05
5.85809e-05
5.68645e-05
5.65441e-05
5.73602e-05
5.70774e-05
5.77387e-05
5.81349e-05
5.66465e-05
5.58839e-05
5.73701e-05
5.73817e-05
5.63903e-05
5.67256e-05
5.55318e-05
5.72531e-05
5.84354e-05
5.63369e-05
5.69496e-05
5.55976e-05
5.62457e-05
5.8446e-05
5.69338e-05
5.7301e-05
5.70202e-05
5.61168e-05
5.59017e-05
5.79952e-05
5.65557e-05
5.73626e-05
5.75329e-05
5.65232e-05
5.73021e-05
5.54067e-05
5.57286e-05
5.55034e-05
5.84952e-05
5.77772e-05
5.54749e-05
5.66339e-05
5.55113e-05
5.67536e-05
5.6809e-05
5.6616e-05
5.58183e-05
5.56378e-05
5.5566e-05
5.55706e-05
5.64622e-05
5.69364e-05
5.61812e-05
5.67776e-05
5.56963e-05
5.57136e-05
5.58946e-05
5.58598e-05
5.70359e-05
5.75877e-05
5.66447e-05
5.58102e-05
5.59163e-05
5.69489e-05
5.83169e-05
5.67359e-05
5.77651e-05
5.562e-05
5.5841e-05
5.66506e-05
5.72407e-05
5.72892e-05
5.8581e-05
5.56874e-05
5.56219e-05
5.62435e-05
5.59946e-05
5.71826e-05
5.73775e-05
5.72105e-05
5.66312e-05
5.76121e-05
5.71368e-05
5.66879e-05
5.7268e-05
5.81549e-05
5.79391e-05
5.81756e-05
5.69233e-05
5.74053e-05
5.71721e-05
5.72938e-05
5.86404e-05
5.79448e-05
5.66291e-05
5.65386e-05
5.71919e-05
5.72954e-05
5.70975e-05
5.7092e-05
5.66635e-05
5.78773e-05
5.84389e-05
5.72382e-05
5.73159e-05
5.68091e-05
5.75624e-05
5.81588e-05
5.76913e-05
5.71566e-05
5.69992e-05
5.68142e-05
5.64323e-05
5.78001e-05
5.72071e-05
5.71977e-05
5.72911e-05
5.69412e-05
5.68043e-05
5.65712e-05
5.63492e-05
5.63919e-05
5.84045e-05
5.74123e-05
5.66652e-05
5.65479e-05
5.63255e-05
5.7308e-05
5.76634e-05
5.79141e-05
5.6733e-05
5.63795e-05
5.679e-05
5.65425e-05
5.72136e-05
5.77753e-05
5.68284e-05
5.66522e-05
5.68282e-05
5.66736e-05
5.63809e-05
5.66365e-05
5.6794e-05
5.73381e-05
5.76861e-05
5.62586e-05
5.64188e-05
5.64459e-05
5.77999e-05
5.81242e-05
5.89148e-05
5.7039e-05
5.68996e-05
5.77399e-05
5.77012e-05
5.7986e-05
5.87618e-05
5.70182e-05
5.69391e-05
5.77207e-05
5.77427e-05
5.70698e-05
5.76715e-05
5.76333e-05
5.79726e-05
5.8985e-05
5.68578e-05
5.78077e-05
5.77064e-05
5.87866e-05
5.89609e-05
5.81411e-05
5.78192e-05
5.78854e-05
5.75818e-05
5.79614e-05
5.88874e-05
5.89891e-05
5.77799e-05
5.78115e-05
5.74226e-05
5.74898e-05
5.76969e-05
5.79341e-05
5.74998e-05
5.90387e-05
5.82668e-05
5.78005e-05
5.77366e-05
5.76056e-05
5.82021e-05
5.79239e-05
5.6912e-05
5.71371e-05
5.77349e-05
5.61819e-05
5.6235e-05
5.87385e-05
5.69206e-05
5.6992e-05
5.70438e-05
5.61751e-05
5.61353e-05
5.71731e-05
5.63055e-05
5.65126e-05
5.80409e-05
5.68679e-05
5.72327e-05
5.61803e-05
5.64851e-05
5.7271e-05
5.69031e-05
5.80122e-05
5.60869e-05
5.59838e-05
5.6485e-05
5.61112e-05
5.67874e-05
5.74732e-05
5.61141e-05
5.60426e-05
5.66052e-05
5.64749e-05
5.64899e-05
5.62145e-05
5.70856e-05
5.68308e-05
5.7903e-05
5.64572e-05
5.64792e-05
5.70529e-05
5.85231e-05
5.83334e-05
5.91947e-05
5.70506e-05
5.67015e-05
5.80153e-05
5.81508e-05
5.79124e-05
5.94844e-05
5.71179e-05
5.70646e-05
5.79444e-05
5.80689e-05
5.74655e-05
5.80985e-05
5.78628e-05
5.82632e-05
5.93706e-05
5.74469e-05
5.80706e-05
5.78612e-05
5.90882e-05
5.91998e-05
5.79038e-05
5.80515e-05
5.82361e-05
5.73298e-05
5.74736e-05
5.95271e-05
5.79591e-05
5.79681e-05
5.80989e-05
5.72426e-05
5.7228e-05
5.77952e-05
5.72593e-05
5.64184e-05
5.93833e-05
5.77886e-05
5.77953e-05
5.70852e-05
5.64066e-05
5.69566e-05
5.76911e-05
5.69578e-05
5.68204e-05
5.68168e-05
5.59972e-05
5.58194e-05
5.7647e-05
5.66173e-05
5.67863e-05
5.66994e-05
5.60509e-05
5.59293e-05
5.60643e-05
5.58231e-05
5.58114e-05
5.75332e-05
5.67601e-05
5.60451e-05
5.5883e-05
5.57859e-05
5.68516e-05
5.69753e-05
5.80651e-05
5.59754e-05
5.58128e-05
5.66117e-05
5.67506e-05
5.66492e-05
5.83313e-05
5.6035e-05
5.59312e-05
5.66618e-05
5.67964e-05
5.59534e-05
5.69313e-05
5.73276e-05
5.68147e-05
5.83088e-05
5.59314e-05
5.69487e-05
5.73484e-05
5.88031e-05
5.82986e-05
5.88909e-05
5.70179e-05
5.72126e-05
5.76073e-05
5.77525e-05
5.86015e-05
5.91998e-05
5.70421e-05
5.71918e-05
5.75885e-05
5.7657e-05
5.76379e-05
5.78399e-05
5.79747e-05
5.85397e-05
5.90149e-05
5.76679e-05
5.77541e-05
5.80018e-05
5.92628e-05
5.8899e-05
5.73097e-05
5.7622e-05
5.7724e-05
5.64788e-05
5.59519e-05
5.91239e-05
5.65907e-05
5.76023e-05
5.76428e-05
5.65244e-05
5.628e-05
5.79445e-05
5.58432e-05
5.61253e-05
5.89598e-05
5.69876e-05
5.7968e-05
5.61659e-05
5.61633e-05
5.69676e-05
5.69078e-05
5.49783e-05
5.44905e-05
5.62079e-05
5.50312e-05
5.48559e-05
4.59948e-05
4.63399e-05
4.617e-05
5.45912e-05
5.66524e-05
5.46321e-05
1.45811e-07
2.47836e-07
7.71887e-08
1.09969e-07
2.66213e-07
2.80703e-07
1.29883e-07
1.26793e-07
2.70935e-07
3.98075e-07
1.72738e-07
5.1177e-07
3.68344e-07
4.07923e-07
4.05093e-07
2.9792e-07
4.83202e-06
2.64208e-07
6.4671e-06
1.31196e-05
2.03735e-05
3.61087e-07
4.95443e-06
3.19355e-07
6.62634e-06
1.49294e-07
2.09595e-07
2.10415e-07
1.66065e-07
1.4937e-07
2.0979e-07
2.10373e-07
2.5847e-07
5.11591e-07
2.19814e-07
2.56817e-07
2.58074e-07
4.99742e-07
2.18712e-07
1.31284e-05
2.05637e-05
2.52119e-07
3.73968e-07
7.77504e-07
4.46013e-07
2.57752e-07
3.73354e-07
7.62766e-07
1.88934e-06
1.90939e-06
3.51475e-07
1.85991e-06
1.88725e-06
4.91026e-07
9.5346e-06
4.0822e-07
1.21868e-05
3.53847e-05
4.52886e-05
5.54696e-07
9.8013e-06
4.63348e-07
1.25249e-05
1.48528e-07
2.08618e-07
2.09472e-07
1.62361e-07
1.45899e-07
2.04773e-07