/*--------------------------------*- C++ -*----------------------------------*\
| =========                 |                                                 |
| \\      /  F ield         | OpenFOAM: The Open Source CFD Toolbox           |
|  \\    /   O peration     | Version:  v2012                                 |
|   \\  /    A nd           | Website:  www.openfoam.com                      |
|    \\/     M anipulation  |                                                 |
\*---------------------------------------------------------------------------*/
FoamFile
{
    version     2.0;
    format      ascii;
    class       volScalarField;
    location    "887.5";
    object      nut;
}
// * * * * * * * * * * * * * * * * * * * * * * * * * * * * * * * * * * * * * //

dimensions      [0 2 -1 0 0 0 0];


internalField   nonuniform List<scalar> 
171728
(
1.71312e-06
1.80089e-06
2.00428e-06
2.36565e-06
1.72918e-06
1.76356e-06
2.08123e-06
2.32623e-06
1.72961e-06
1.73778e-06
2.40828e-06
2.29258e-06
1.7269e-06
1.71868e-06
3.18101e-06
2.29154e-06
1.72392e-06
1.69766e-06
5.23573e-06
2.26971e-06
1.7198e-06
1.67086e-06
8.68907e-06
2.12633e-06
1.71783e-06
1.64239e-06
1.15296e-05
1.97421e-06
1.71826e-06
1.60941e-06
9.7034e-06
1.83736e-06
1.7235e-06
1.56297e-06
4.17548e-06
1.7005e-06
1.7125e-06
1.50383e-06
2.00803e-06
1.56613e-06
1.72332e-06
1.4291e-06
1.47621e-06
1.5773e-06
1.75176e-06
1.35132e-06
1.34041e-06
1.98088e-06
1.78055e-06
1.26237e-06
1.29544e-06
2.83423e-06
1.80998e-06
1.1736e-06
1.25661e-06
4.0059e-06
1.86366e-06
1.08189e-06
1.21947e-06
5.11734e-06
1.94425e-06
9.91573e-07
1.17937e-06
5.42309e-06
1.93806e-06
9.35609e-07
1.13157e-06
2.94562e-06
1.73726e-06
9.28826e-07
1.11396e-06
1.4405e-06
1.57402e-06
9.6311e-07
1.17014e-06
1.33187e-06
1.42133e-06
9.71015e-07
1.23628e-06
1.37731e-06
1.40265e-06
1.23567e-06
1.38194e-06
1.62977e-06
1.34565e-06
1.60947e-06
1.62308e-06
1.68088e-06
1.28776e-06
2.05931e-06
2.22634e-06
7.51268e-06
1.24165e-06
2.95352e-06
3.10714e-06
4.76852e-06
1.13832e-06
3.35478e-06
3.69242e-06
6.51939e-06
1.08305e-06
5.89443e-06
5.22358e-06
1.62402e-05
1.02556e-06
7.29834e-06
7.29304e-06
2.24394e-05
9.86327e-07
8.33535e-06
9.06499e-06
2.1816e-05
9.59549e-07
1.15799e-05
1.15729e-05
2.87734e-05
1.05161e-06
1.46417e-05
1.44438e-05
4.0682e-05
1.14592e-06
1.78504e-05
1.80504e-05
4.45536e-05
1.28063e-06
2.26766e-05
2.14898e-05
5.20159e-05
1.82041e-06
2.55801e-05
2.68064e-05
5.66503e-05
1.81005e-06
2.98585e-05
3.10142e-05
6.80076e-05
2.89014e-06
3.75267e-05
3.60268e-05
7.05028e-05
3.01138e-06
3.85813e-05
3.97321e-05
6.94802e-05
4.59554e-06
5.09596e-05
4.81265e-05
8.11484e-05
5.32457e-06
5.08494e-05
4.95792e-05
8.68419e-05
7.5449e-06
5.84795e-05
6.46447e-05
8.49726e-05
6.3349e-06
6.57066e-05
6.63446e-05
9.19129e-05
1.39593e-05
7.11115e-05
7.04838e-05
9.63337e-05
1.69583e-05
7.48985e-05
7.44857e-05
9.74106e-05
1.46583e-05
8.34945e-05
8.59135e-05
0.000104951
2.04902e-05
9.01522e-05
8.7875e-05
0.000106376
2.44408e-05
9.37615e-05
9.66795e-05
0.000111359
3.00271e-05
0.000100891
9.81366e-05
0.000111667
3.27305e-05
0.000103003
0.00010575
0.000121091
3.92961e-05
0.000115826
0.000114089
0.00012154
5.11329e-05
0.00011343
0.000114144
0.0001241
4.37021e-05
0.000123354
0.000120386
0.000130494
5.52316e-05
0.000125318
0.000127604
0.000129253
7.34668e-05
0.00013042
0.000128589
0.000135165
7.4551e-05
0.00013869
0.000138097
0.000142674
7.84122e-05
0.000132936
0.000137185
0.000140381
7.87976e-05
0.000144437
0.000142519
0.000142764
9.76255e-05
0.000155181
0.000149922
0.000149485
0.000103092
0.00015265
0.000153973
0.000149814
0.000107802
0.000152089
0.000151732
0.000149314
0.000109932
0.000158806
0.000159778
0.000157103
0.000121883
0.000164688
0.000166699
0.000160797
0.000128325
0.000167469
0.00016435
0.000159863
0.000129993
0.000170831
0.000169944
0.000158616
0.000141539
0.000171382
0.000176696
0.000170349
0.000144651
0.000181146
0.000177198
0.000171144
0.000152684
0.000180885
0.000180986
0.000165263
0.000154993
0.000179256
0.000182117
0.000172607
0.00016219
0.000186987
0.000186057
0.000179523
0.000170305
0.000191964
0.000191713
0.000174078
0.000170185
0.000190315
0.000189087
0.000171485
0.000180675
0.000194263
0.000196617
0.000187549
0.000187656
0.000200479
0.000201339
0.000186075
0.000189331
0.000198605
0.000199878
0.000175981
0.000185362
0.000199929
0.0001969
0.00018419
0.000201176
0.000208309
0.000205479
0.00019606
0.000213763
0.000209084
0.000213452
0.000185517
0.000209245
0.000207135
0.00021039
0.000180924
0.000198825
0.000205001
0.000202364
0.00019846
0.000212408
0.000217067
0.000211824
0.000198297
0.000231677
0.000220634
0.000222116
0.000186472
0.000228413
0.000210197
0.000217955
0.00019048
0.000219591
0.000214586
0.000211904
0.000200381
0.000222127
0.000225728
0.000220935
0.000199731
0.000234781
0.000221806
0.000225771
0.000196509
0.000236052
0.00021653
0.000217246
0.000193428
0.000233991
0.000219997
0.000218187
0.000196913
0.000243807
0.000229058
0.000231006
0.000204747
0.000246012
0.00023266
0.000228719
0.000200441
0.000235864
0.000216738
0.000216143
0.000192674
0.000235216
0.000220246
0.000222711
0.000203629
0.000253419
0.00023725
0.000236738
0.000209251
0.000254307
0.000227094
0.000226089
0.000193435
0.000241512
0.000216627
0.000217391
0.000192317
0.000243934
0.0002296
0.000229371
0.000205394
0.000259556
0.000241214
0.000239089
0.000213586
0.000261204
0.000225536
0.000227445
0.000204013
2.22275e-06
2.03026e-06
2.1933e-06
2.26969e-06
2.37051e-06
1.6787e-06
1.71157e-06
1.72029e-06
2.11478e-06
2.0926e-06
2.0591e-06
2.20262e-06
2.28761e-06
2.28051e-06
1.91925e-06
2.37721e-06
2.21734e-06
2.16321e-06
1.54235e-06
1.77828e-06
1.51559e-06
1.75364e-06
2.26915e-06
2.2321e-06
1.83936e-06
1.45214e-06
1.83392e-06
1.42315e-06
2.63774e-06
1.77026e-06
2.78542e-06
2.29171e-06
2.235e-06
1.72867e-06
2.05143e-06
1.67191e-06
2.33493e-06
2.16096e-06
2.12612e-06
1.50861e-06
1.74244e-06
1.49422e-06
1.71434e-06
2.23123e-06
2.19325e-06
1.83483e-06
1.4052e-06
1.83493e-06
1.33496e-06
2.84162e-06
1.74318e-06
3.12954e-06
2.22637e-06
2.14327e-06
1.64917e-06
2.2847e-06
1.57606e-06
2.29821e-06
2.12416e-06
2.08553e-06
1.49258e-06
1.70873e-06
1.49925e-06
1.70026e-06
2.19143e-06
2.15116e-06
1.83008e-06
1.31259e-06
1.81527e-06
1.24015e-06
3.26104e-06
1.7226e-06
3.84871e-06
2.13527e-06
2.14694e-06
1.55355e-06
2.92315e-06
1.48803e-06
2.28951e-06
2.08349e-06
2.0574e-06
1.50162e-06
1.69783e-06
1.50843e-06
1.68465e-06
2.14807e-06
2.10452e-06
1.81276e-06
1.21952e-06
1.80767e-06
1.18801e-06
4.08827e-06
1.70285e-06
4.75427e-06
2.16078e-06
2.3721e-06
1.46506e-06
4.55446e-06
1.39247e-06
2.28816e-06
2.05816e-06
2.06627e-06
1.5102e-06
1.67657e-06
1.51453e-06
1.65044e-06
2.10051e-06
2.05785e-06
1.80911e-06
1.18042e-06
1.80949e-06
1.16909e-06
4.852e-06
1.6772e-06
4.38303e-06
2.40327e-06
2.6232e-06
1.37168e-06
7.78719e-06
1.32725e-06
2.15253e-06
2.06847e-06
2.09116e-06
1.51827e-06
1.64158e-06
1.53982e-06
1.60949e-06
2.05329e-06
2.01891e-06
1.80496e-06
1.19471e-06
1.78026e-06
1.3474e-06
4.0933e-06
1.64861e-06
3.0664e-06
2.63063e-06
2.82982e-06
1.31478e-06
1.09193e-05
1.26531e-06
1.99798e-06
2.09108e-06
2.07601e-06
1.54542e-06
1.59745e-06
1.57181e-06
1.56333e-06
2.01442e-06
1.98225e-06
1.77254e-06
1.39943e-06
1.75202e-06
1.64667e-06
2.75724e-06
1.61766e-06
2.20031e-06
2.82037e-06
3.00676e-06
1.24598e-06
1.12692e-05
1.19086e-06
1.84927e-06
2.0716e-06
2.04078e-06
1.57972e-06
1.55187e-06
1.58207e-06
1.51258e-06
1.9779e-06
1.94306e-06
1.7454e-06
1.84161e-06
1.75158e-06
3.09559e-06
2.10809e-06
1.57583e-06
1.95967e-06
2.87621e-06
2.81092e-06
1.17181e-06
5.24503e-06
1.11756e-06
1.71501e-06
2.03699e-06
1.98585e-06
1.57348e-06
1.49727e-06
1.53095e-06
1.44476e-06
1.93868e-06
1.88293e-06
1.75414e-06
3.81849e-06
1.70309e-06
6.55514e-06
1.93076e-06
1.51742e-06
1.86111e-06
2.81741e-06
3.06826e-06
1.09828e-06
2.31624e-06
1.03713e-06
1.57576e-06
1.97796e-06
1.89895e-06
1.51328e-06
1.42719e-06
1.46715e-06
1.37475e-06
1.87693e-06
1.79273e-06
1.67714e-06
7.42594e-06
1.65624e-06
9.16572e-06
1.84122e-06
1.44873e-06
1.79181e-06
3.06538e-06
3.37872e-06
1.02654e-06
1.54622e-06
1.14299e-06
1.56937e-06
1.89122e-06
1.83371e-06
1.45374e-06
1.35718e-06
1.41596e-06
1.30558e-06
1.78542e-06
1.69382e-06
1.66212e-06
9.48319e-06
1.6936e-06
8.12517e-06
1.77704e-06
1.36941e-06
1.72911e-06
3.37268e-06
2.51817e-06
1.24748e-06
1.3615e-06
1.978e-06
1.93424e-06
1.82652e-06
1.81383e-06
1.40503e-06
1.28702e-06
1.3669e-06
1.22061e-06
1.68378e-06
1.58828e-06
1.71812e-06
6.6648e-06
1.91038e-06
3.59604e-06
1.71487e-06
1.28207e-06
1.68203e-06
2.41901e-06
1.90905e-06
2.45574e-06
1.30593e-06
4.69467e-06
2.7761e-06
1.80848e-06
1.82186e-06
1.35505e-06
1.19994e-06
1.32174e-06
1.14634e-06
1.57445e-06
1.48344e-06
1.99166e-06
2.93817e-06
2.33433e-06
1.79246e-06
1.6721e-06
1.1961e-06
1.63967e-06
1.8715e-06
1.59291e-06
5.75389e-06
1.26831e-06
9.37818e-06
3.95492e-06
1.82071e-06
1.88488e-06
1.30482e-06
1.12492e-06
1.26217e-06
1.05857e-06
1.46614e-06
1.36225e-06
2.47975e-06
1.59942e-06
3.00273e-06
1.29968e-06
1.63447e-06
1.09975e-06
1.61856e-06
1.56668e-06
1.43488e-06
1.05329e-05
1.23052e-06
1.31148e-05
5.04294e-06
1.88881e-06
1.93469e-06
1.24588e-06
1.04272e-06
1.20976e-06
9.74002e-07
1.33986e-06
1.26738e-06
3.19097e-06
1.23332e-06
3.71343e-06
1.06221e-06
1.60972e-06
1.00898e-06
1.56243e-06
1.40909e-06
1.30283e-06
1.35508e-05
1.18464e-06
1.38123e-05
5.45952e-06
1.91754e-06
1.84014e-06
1.20005e-06
9.54672e-07
1.12718e-06
9.26434e-07
1.24492e-06
1.14982e-06
3.78448e-06
1.0282e-06
3.8795e-06
9.42251e-07
1.53182e-06
9.61547e-07
1.36698e-06
1.27565e-06
1.20541e-06
1.39004e-05
1.14133e-06
1.05625e-05
3.24871e-06
1.79079e-06
1.57506e-06
1.1212e-06
9.02389e-07
1.09022e-06
9.04046e-07
1.13039e-06
1.09117e-06
3.82665e-06
9.31917e-07
3.26342e-06
8.9182e-07
1.31429e-06
9.29529e-07
1.2049e-06
1.18768e-06
1.13023e-06
8.13978e-06
1.10166e-06
3.32232e-06
1.52641e-06
1.52368e-06
1.38981e-06
1.05309e-06
9.01829e-07
1.11707e-06
8.70978e-07
1.06969e-06
1.07198e-06
2.98371e-06
8.85129e-07
2.06446e-06
9.25613e-07
1.18209e-06
9.07168e-07
1.15013e-06
1.11462e-06
1.13382e-06
2.70999e-06
1.15211e-06
2.02986e-06
1.33702e-06
1.36557e-06
1.34225e-06
1.11319e-06
9.23897e-07
1.16908e-06
9.60577e-07
1.10783e-06
1.20588e-06
1.71622e-06
9.4114e-07
1.31355e-06
9.5995e-07
1.1544e-06
9.88104e-07
1.22912e-06
1.14977e-06
1.209e-06
1.88336e-06
1.20023e-06
1.47847e-06
1.37507e-06
1.40468e-06
1.33844e-06
1.22729e-06
9.50886e-07
1.15513e-06
1.19185e-06
1.20254e-06
1.498e-06
1.31523e-06
9.99847e-07
1.36273e-06
1.12591e-06
1.26198e-06
1.21183e-06
1.35257e-06
1.25507e-06
1.52151e-06
1.37832e-06
1.30351e-06
1.22093e-06
1.47533e-06
1.35152e-06
3.32517e-06
1.22467e-06
1.21837e-06
1.9059e-06
1.5358e-06
1.63456e-06
2.26622e-06
1.3556e-06
1.21558e-06
1.97199e-06
1.40301e-06
1.44058e-06
1.52645e-06
1.51518e-06
1.59263e-06
2.13299e-06
1.22013e-06
1.56359e-06
1.35602e-06
1.86496e-06
3.6728e-06
2.49951e-06
1.95802e-06
1.62049e-06
1.79591e-06
1.62924e-06
2.48191e-06
2.36848e-06
2.09531e-06
1.45613e-06
1.87774e-06
1.94701e-06
1.44735e-06
1.63887e-06
2.40446e-06
2.20946e-06
3.41152e-06
1.3038e-06
2.13183e-06
2.24104e-06
4.72338e-06
2.43283e-06
5.77428e-06
1.95784e-06
2.01907e-06
2.82883e-06
3.19414e-06
2.86935e-06
7.81461e-06
1.92334e-06
2.03505e-06
2.77448e-06
2.57627e-06
3.1822e-06
3.21225e-06
3.11326e-06
3.78103e-06
4.7187e-06
2.9994e-06
2.71503e-06
2.87753e-06
6.49232e-06
6.32576e-06
7.57825e-06
3.01539e-06
2.96053e-06
3.73397e-06
2.58454e-06
7.06624e-06
3.65174e-06
2.92276e-06
3.00707e-06
3.56097e-06
3.53502e-06
2.68871e-06
2.50346e-06
2.73595e-06
5.47993e-06
8.41145e-06
2.47818e-06
3.66222e-06
2.69027e-06
3.81819e-06
8.26492e-06
1.05594e-05
3.87982e-06
3.4745e-06
4.72431e-06
5.98275e-06
5.15806e-06
1.96248e-05
3.75918e-06
3.55008e-06
4.69696e-06
4.43359e-06
3.75705e-06
6.0201e-06
5.51258e-06
8.2455e-06
9.53025e-06
3.71779e-06
4.6222e-06
5.44411e-06
1.60885e-05
1.14403e-05
1.81231e-05
5.28887e-06
5.84921e-06
6.75862e-06
6.38732e-06
1.92657e-05
1.39938e-05
5.21936e-06
5.10427e-06
6.71678e-06
6.76702e-06
5.99741e-06
6.37119e-06
7.23293e-06
1.08676e-05
1.88797e-05
5.95314e-06
6.915e-06
7.17176e-06
2.16451e-05
1.90531e-05
2.17474e-05
7.08201e-06
7.22399e-06
8.51129e-06
7.83609e-06
1.50141e-05
2.35298e-05
7.04639e-06
7.13595e-06
8.50049e-06
8.66716e-06
7.60195e-06
7.85539e-06
8.48168e-06
1.99229e-05
2.23921e-05
7.46991e-06
8.71778e-06
8.26836e-06
2.0823e-05
2.29511e-05
2.88996e-05
9.09336e-06
8.33256e-06
1.09004e-05
1.14812e-05
2.31905e-05
2.78601e-05
9.04398e-06
9.0837e-06
1.08028e-05
1.05454e-05
8.88741e-06
1.12159e-05
1.05122e-05
2.34919e-05
2.84369e-05
8.77237e-06
1.0545e-05
1.04658e-05
2.75799e-05
3.0149e-05
3.66661e-05
1.16045e-05
1.17163e-05
1.37483e-05
1.29964e-05
3.08325e-05
3.57016e-05
1.15097e-05
1.14181e-05
1.37251e-05
1.37049e-05
1.10493e-05
1.28617e-05
1.47317e-05
2.95703e-05
3.7127e-05
1.10852e-05
1.36532e-05
1.47868e-05
3.8483e-05
3.84499e-05
4.4625e-05
1.46287e-05
1.46399e-05
1.77491e-05
1.77158e-05
3.66168e-05
4.6498e-05
1.48206e-05
1.45488e-05
1.78415e-05
1.70912e-05
1.61606e-05
1.80867e-05
1.64998e-05
3.86669e-05
4.37056e-05
1.59254e-05
1.73831e-05
1.62606e-05
4.37518e-05
4.56364e-05
4.90646e-05
1.8284e-05
1.76588e-05
1.98435e-05
2.15788e-05
4.83444e-05
4.95223e-05
1.81839e-05
1.79561e-05
1.9834e-05
2.09821e-05
1.72402e-05
2.11696e-05
2.16832e-05
4.51219e-05
4.99533e-05
1.72406e-05
2.07915e-05
2.15815e-05
5.05206e-05
5.06224e-05
5.85058e-05
2.13673e-05
2.31272e-05
2.62038e-05
2.43884e-05
5.04637e-05
5.83125e-05
2.142e-05
2.16709e-05
2.6668e-05
2.47691e-05
2.27331e-05
2.45165e-05
2.43162e-05
5.13699e-05
5.68532e-05
2.25357e-05
2.46785e-05
2.43831e-05
5.64806e-05
6.01468e-05
6.33449e-05
2.75826e-05
2.56101e-05
2.9432e-05
2.91762e-05
5.92654e-05
6.13347e-05
2.7951e-05
2.65683e-05
2.913e-05
3.062e-05
2.50021e-05
2.9013e-05
2.993e-05
5.83687e-05
6.48271e-05
2.51442e-05
3.06989e-05
2.97491e-05
6.44876e-05
6.39047e-05
6.75729e-05
2.96093e-05
3.02051e-05
3.48215e-05
3.63539e-05
6.33876e-05
6.96441e-05
2.95667e-05
3.14542e-05
3.51419e-05
3.43955e-05
3.18973e-05
3.63422e-05
3.87256e-05
6.58396e-05
6.72583e-05
3.16193e-05
3.41802e-05
3.84187e-05
7.09883e-05
6.92539e-05
7.39085e-05
3.69106e-05
3.7174e-05
3.93008e-05
3.73773e-05
6.96285e-05
7.13736e-05
3.6909e-05
3.56647e-05
3.9239e-05
3.83862e-05
3.94804e-05
3.75095e-05
3.60946e-05
6.82285e-05
7.36658e-05
3.91429e-05
3.84669e-05
3.5957e-05
6.87432e-05
7.45692e-05
7.71463e-05
4.04533e-05
3.8742e-05
4.58585e-05
4.79213e-05
7.36592e-05
8.04674e-05
4.06282e-05
4.01931e-05
4.57367e-05
4.82964e-05
3.55043e-05
4.74627e-05
4.5529e-05
7.51734e-05
7.79185e-05
3.55521e-05
4.77713e-05
4.5505e-05
7.8332e-05
7.85188e-05
8.45485e-05
4.74074e-05
5.12496e-05
5.12434e-05
5.18167e-05
8.11841e-05
8.12805e-05
4.70477e-05
4.84657e-05
5.0774e-05
4.75503e-05
4.87456e-05
5.20626e-05
5.55782e-05
7.80543e-05
8.09198e-05
4.87826e-05
4.74936e-05
5.57361e-05
8.65071e-05
8.54875e-05
8.49808e-05
5.38921e-05
5.06324e-05
5.8932e-05
5.56011e-05
8.14985e-05
8.58068e-05
5.3451e-05
4.9351e-05
5.97828e-05
6.08159e-05
5.77988e-05
5.51753e-05
5.72683e-05
8.29816e-05
8.9541e-05
5.72745e-05
6.08026e-05
5.66455e-05
8.505e-05
8.4577e-05
8.84178e-05
5.74658e-05
5.89132e-05
5.5233e-05
6.31956e-05
8.78185e-05
9.17727e-05
5.88088e-05
6.41106e-05
5.68857e-05
6.38537e-05
5.59616e-05
6.37699e-05
5.91228e-05
9.03245e-05
9.05996e-05
5.59731e-05
6.76282e-05
5.99627e-05
8.98249e-05
9.11611e-05
9.91733e-05
5.95184e-05
6.50047e-05
7.47379e-05
7.12405e-05
9.23993e-05
9.47314e-05
6.03971e-05
6.26823e-05
7.39176e-05
6.90108e-05
6.29161e-05
7.12014e-05
7.42245e-05
9.08326e-05
9.42186e-05
6.39841e-05
6.70965e-05
7.35433e-05
9.6218e-05
9.96768e-05
9.85797e-05
7.84082e-05
7.14323e-05
8.2559e-05
7.33244e-05
9.52181e-05
9.68093e-05
7.73393e-05
7.27532e-05
7.80496e-05
7.39676e-05
7.46218e-05
7.22893e-05
7.11786e-05
9.57297e-05
9.81409e-05
7.3232e-05
7.41497e-05
7.04803e-05
9.63962e-05
9.85754e-05
0.000101289
8.15725e-05
7.58848e-05
7.82146e-05
8.09698e-05
9.79144e-05
0.000103251
7.65762e-05
7.45707e-05
7.80966e-05
8.25613e-05
7.19801e-05
8.18014e-05
8.46503e-05
9.85671e-05
0.000102788
7.27888e-05
8.32638e-05
8.48274e-05
0.000104226
0.000102618
0.000106264
7.94705e-05
8.22648e-05
8.67628e-05
8.93456e-05
0.000104088
0.000106634
8.15222e-05
8.46281e-05
8.7973e-05
8.67679e-05
8.62202e-05
8.91971e-05
8.61094e-05
0.000104106
0.000106316
8.61845e-05
8.66745e-05
8.61843e-05
0.000105716
0.000106803
0.000110528
8.85931e-05
9.0886e-05
9.33426e-05
9.10201e-05
0.000107324
0.000109317
8.92865e-05
8.79167e-05
9.34377e-05
9.52872e-05
8.74441e-05
9.10893e-05
9.57283e-05
0.0001068
0.000110924
8.75412e-05
9.55424e-05
9.55924e-05
0.000110994
0.000111536
0.000113822
9.54617e-05
9.32033e-05
0.000101579
0.000101414
0.000110061
0.000114343
9.50685e-05
9.69784e-05
9.93695e-05
9.75996e-05
9.69541e-05
0.000101451
9.54724e-05
0.000111764
0.000112373
9.67022e-05
9.71767e-05
9.52092e-05
0.000110814
0.000114026
0.00011727
0.00010212
0.000101307
0.000102554
0.000100894
0.000114697
0.000115514
0.000100157
9.84647e-05
0.000103215
0.000103244
9.64494e-05
0.00010064
0.000105152
0.000112696
0.000117219
9.63478e-05
0.000103344
0.000105474
0.000119798
0.000118575
0.000123556
0.000104187
0.000102977
0.000112012
0.000113473
0.000116592
0.000123445
0.000105406
0.000104944
0.000113069
0.00011286
0.000108516
0.000113661
0.000113951
0.000118439
0.000123163
0.000108855
0.00011293
0.000113818
0.000121903
0.000124211
0.000124651
0.000114739
0.000115828
0.00011784
0.000114522
0.000124234
0.000123426
0.000115159
0.000115567
0.000117824
0.000115933
0.000113289
0.000114314
0.000110977
0.000123962
0.000124114
0.000113001
0.000113929
0.000110653
0.000122685
0.000124322
0.000122689
0.000116514
0.000113455
0.000113151
0.000118954
0.000123293
0.000128831
0.000116584
0.000114654
0.000111531
0.000115592
0.000112858
0.000119863
0.000121778
0.000123789
0.000126007
0.000112693
0.000118403
0.000121771
0.000130073
0.000123542
0.000133804
0.000115228
0.000122738
0.000128462
0.00012693
0.000130431
0.000131811
0.000111476
0.000118057
0.000125564
0.000126637
0.000124102
0.0001263
0.000124897
0.000127475
0.000133139
0.000124101
0.000126386
0.000124664
0.000129511
0.000135222
0.000137665
0.00012969
0.000125926
0.000129855
0.000125456
0.00013129
0.000133149
0.000129816
0.000129091
0.000136968
0.000130959
0.000123672
0.000126732
0.000124942
0.000133848
0.000134744
0.000123414
0.000128004
0.000125015
0.000132904
0.00013801
0.000138791
0.000130618
0.000129029
0.000134814
0.000137729
0.000135222
0.000141005
0.000137553
0.00013066
0.000136262
0.000134426
0.0001292
0.000138395
0.00013908
0.000134904
0.000138431
0.000129361
0.000135723
0.000139434
0.000142329
0.000138809
0.000138843
0.000136311
0.000138309
0.000137771
0.000135501
0.000140857
0.000136634
0.000135584
0.000136844
0.000135102
0.000138263
0.000140701
0.000134412
0.000139789
0.000139553
0.000140538
0.000141128
0.000138142
0.000139972
0.000141057
0.000138886
0.000141997
0.00013722
0.000134602
0.000138983
0.000140049
0.000136013
0.000143247
0.000135049
0.000137153
0.000139061
0.000138064
0.000138421
0.000138852
0.000136562
0.000139971
0.000141524
0.000138602
0.000139758
0.000137043
0.000140909
0.000143527
0.00015006
0.0001416
0.000143416
0.000150385
0.000151814
0.000145791
0.00015201
0.000142093
0.000141599
0.000150961
0.000150892
0.000140053
0.00015442
0.000150642
0.000143285
0.00015002
0.000140385
0.000148557
0.000147633
0.000149169
0.000150416
0.000149332
0.000151476
0.000152783
0.000150559
0.000150814
0.000152036
0.000149116
0.000152169
0.000152667
0.000151746
0.000152966
0.000152162
0.000153398
0.000152804
0.000150567
0.000150713
0.00014874
0.000153728
0.000152471
0.00014986
0.000149217
0.000152671
0.000150585
0.000150152
0.000154998
0.000154022
0.00014864
0.000151269
0.0001517
0.000152051
0.000154398
0.000150842
0.000152019
0.000151489
0.000150048
0.000150387
0.000149723
0.000152837
0.000152001
0.000151465
0.000149012
0.000152829
0.000153427
0.000155279
0.000155381
0.00015613
0.000156673
0.000152195
0.000153779
0.000154669
0.00015286
0.000156704
0.000159726
0.000151076
0.000155926
0.000158358
0.000150266
0.000156045
0.000151906
0.000157225
0.000157783
0.00015575
0.000154372
0.000159885
0.000157727
0.000158629
0.000164837
0.00016394
0.000154611
0.00015916
0.000158438
0.000161502
0.000164927
0.000165529
0.000160564
0.000164742
0.000164897
0.00015715
0.000159893
0.000160211
0.000165885
0.000166044
0.000160513
0.000160371
0.000159256
0.000166323
0.000164034
0.000165557
0.000164807
0.000159163
0.000159398
0.000166454
0.000165987
0.000166031
0.000163988
0.000166101
0.000165369
0.000168119
0.000159917
0.000157846
0.000167298
0.000165164
0.000167163
0.00016046
0.000158813
0.000162556
0.000164952
0.000166505
0.000169097
0.000171613
0.000160312
0.000164038
0.000165251
0.000163128
0.000167253
0.000166532
0.000167468
0.00017141
0.000164592
0.000157342
0.000161701
0.000165936
0.000166968
0.000162976
0.000157748
0.000164
0.00016658
0.000171857
0.000171753
0.0001746
0.000170448
0.000163836
0.000162713
0.000170244
0.000169379
0.000175222
0.000175916
0.000164851
0.000169467
0.000174784
0.000163348
0.000167615
0.000164567
0.000176031
0.000176182
0.000168742
0.0001663
0.000166908
0.000174056
0.000171194
0.000174955
0.000177793
0.000163439
0.000170077
0.000175139
0.000176753
0.00017614
0.000177103
0.000177983
0.000179564
0.000181943
0.000167679
0.000167467
0.00017888
0.000176899
0.000181394
0.000171694
0.000167936
0.000171169
0.000177449
0.00017984
0.000181759
0.000181903
0.000170819
0.000170689
0.000177521
0.000177585
0.000181454
0.00018112
0.000181903
0.000181871
0.000178307
0.000167612
0.000170898
0.000181142
0.000179649
0.000176607
0.00016597
0.000170956
0.000169676
0.00018149
0.000181325
0.000180371
0.000179969
0.0001702
0.000169216
0.000181658
0.000182369
0.000180394
0.000181961
0.000176981
0.000178627
0.000177365
0.000171437
0.000171034
0.000175551
0.00018257
0.000179749
0.000170311
0.000170013
0.000175715
0.000181358
0.000180955
0.000186654
0.000184454
0.000169941
0.000174042
0.000180634
0.000181076
0.000186124
0.000182335
0.000181551
0.000185487
0.000190485
0.000170485
0.000172628
0.000183925
0.000183806
0.000190996
0.000179485
0.000176696
0.000177234
0.000188221
0.00018574
0.000190509
0.000190629
0.000174494
0.000178219
0.000188169
0.000185661
0.000191207
0.00019187
0.000191284
0.00019107
0.000190287
0.00017426
0.000178571
0.000191421
0.000191124
0.000189911
0.000175353
0.000176579
0.000173904
0.000189789
0.000191802
0.000187502
0.000191918
0.00017862
0.000177379
0.0001906
0.000192531
0.000188415
0.000190879
0.000188049
0.000191229
0.000184079
0.000178308
0.000175878
0.000187647
0.000189716
0.000183712
0.0001701
0.000174518
0.000183716
0.000187835
0.000191072
0.000196365
0.000191094
0.000176786
0.000178309
0.00018859
0.000190268
0.000196374
0.000193538
0.000184729
0.000191136
0.000197906
0.000175535
0.000180771
0.000184409
0.000193711
0.000197826
0.000186159
0.000184674
0.000184886
0.000198622
0.000193774
0.000200622
0.000199658
0.000179851
0.000184637
0.000198663
0.000196166
0.000200728
0.000200479
0.000201146
0.000200055
0.000203133
0.000182313
0.000185229
0.000201302
0.000201151
0.000203916
0.000187222
0.000184478
0.000180662
0.000200519
0.000200294
0.000198495
0.000199993
0.000184503
0.000182422
0.000200567
0.000200671
0.000197848
0.000200093
0.000201968
0.000199565
0.000195131
0.000185005
0.000182864
0.000202953
0.000200655
0.000196078
0.000177053
0.000179768
0.000178528
0.000197078
0.00019919
0.000194451
0.000197894
0.000181898
0.000182694
0.000196085
0.000199317
0.000193487
0.000196965
0.000193573
0.000197824
0.000195561
0.000182438
0.000181524
0.000194284
0.000197359
0.000194481
0.00018141
0.000179806
0.000191834
0.00019567
0.000199033
0.00020699
0.000205761
0.000183707
0.000189541
0.000195408
0.000196731
0.000208281
0.000203458
0.000200704
0.00020709
0.000212173
0.000181547
0.00018611
0.000199011
0.00020285
0.000210697
0.000195957
0.000193292
0.000196842
0.000210352
0.000207267
0.000214968
0.000209855
0.000189863
0.00019016
0.00021172
0.000206085
0.000215722
0.0002135
0.000213072
0.000209219
0.000208967
0.000187376
0.000194613
0.000211673
0.000212229
0.000208815
0.000187656
0.000195773
0.000186161
0.000214882
0.000210227
0.000207836
0.000209539
0.000190013
0.000189338
0.000215369
0.000215074
0.000207766
0.000213916
0.000205421
0.000207855
0.000199786
0.000195197
0.00019275
0.000205856
0.000212595
0.000201281
0.000179684
0.000184477
0.000179469
0.000204846
0.000208727
0.000199049
0.000203355
0.000188889
0.000184942
0.000205093
0.000210737
0.000199012
0.000201136
0.000200165
0.00020459
0.00021362
0.000191174
0.000181686
0.000201725
0.000203455
0.000213495
0.00019689
0.000180264
0.000195649
0.000199049
0.000202521
0.000213282
0.000211321
0.000184356
0.000194018
0.000198544
0.000199192
0.000211106
0.000202759
0.00021755
0.000213753
0.000220603
0.000180616
0.000188293
0.000216894
0.000207601
0.000219753
0.00019985
0.000197768
0.000204262
0.000218376
0.000216144
0.000225689
0.00022385
0.000195842
0.000202007
0.000215949
0.000209118
0.000224758
0.000223132
0.00021922
0.000221226
0.000210821
0.000190791
0.000201451
0.000218669
0.000220997
0.000211585
0.000187758
0.000203296
0.00019345
0.000225882
0.000223968
0.000216964
0.000214778
0.000200956
0.000189817
0.000225499
0.000225709
0.000219971
0.000226419
0.000208933
0.000212199
0.000208212
0.000201935
0.000199371
0.000209761
0.00022029
0.000208434
0.000188514
0.000192065
0.000189077
0.000214
0.000211436
0.000209931
0.000208629
0.000188216
0.000189338
0.000217257
0.000222447
0.000211657
0.000212039
0.000211092
0.00021061
0.000220946
0.000197829
0.000189392
0.000210526
0.000212377
0.000219821
0.000199943
0.000189354
0.000196156
0.000209958
0.000210493
0.000217724
0.000222834
0.000191405
0.000202543
0.000211023
0.000210412
0.000214551
0.000212283
0.000222585
0.000224498
0.000223838
0.0001886
0.000194734
0.000221724
0.000217613
0.000224015
0.000200239
0.000197213
0.000200209
0.00022034
0.000225014
0.000223625
0.000225603
0.00020294
0.000199785
0.000217614
0.000216664
0.000223562
0.000224908
0.000223183
0.000224104
0.000220249
0.000196476
0.000202832
0.000224194
0.000225781
0.000221875
0.000196851
0.000199942
0.000196171
0.00022372
0.000223379
0.00022072
0.000217998
0.000198509
0.000193315
0.00022393
0.000225251
0.000221838
0.000221025
0.000219565
0.000217224
0.000217418
0.000202484
0.000194795
0.000220905
0.000219545
0.000217653
0.000194058
0.000195361
0.000195968
0.000219446
0.000216992
0.000218834
0.000216793
0.000192756
0.000195064
0.00022032
0.000219007
0.000219258
0.000217934
0.000216861
0.000217626
0.000219244
0.000193465
0.000194245
0.00021632
0.000215716
0.000216356
0.000195596
0.000197181
0.000205549
0.000220729
0.000219317
0.000228388
0.000226356
0.000196054
0.00020266
0.000220724
0.000219968
0.000228633
0.000228709
0.000221379
0.000226161
0.000227653
0.000195931
0.00020582
0.000219455
0.000228652
0.000228045
0.000204423
0.000205948
0.000202734
0.000230189
0.000229418
0.000230701
0.000234105
0.000203711
0.000209038
0.0002302
0.000230439
0.000229408
0.000230254
0.000229026
0.000233686
0.000229032
0.000206313
0.000203891
0.000229815
0.000232233
0.000230057
0.000202042
0.00020098
0.000191863
0.000227369
0.000232892
0.000218207
0.000219755
0.000207219
0.000192901
0.000226113
0.000226887
0.000218003
0.000217834
0.000226488
0.000220105
0.000219676
0.000202127
0.000191651
0.00022715
0.000218165
0.000219547
0.000193178
0.000190957
0.000197271
0.000216473
0.000216161
0.000218197
0.000214777
0.000190773
0.000192824
0.000216685
0.000216008
0.000219389
0.000217888
0.000219
0.000215777
0.000223582
0.000190394
0.000196033
0.000218797
0.000217924
0.000223338
0.000201788
0.000199336
0.000209166
0.000222653
0.000219299
0.00023405
0.000235188
0.000195558
0.000211409
0.000223482
0.000222565
0.000233606
0.000234831
0.000227577
0.000235216
0.00023509
0.000198365
0.000210829
0.000227433
0.000235228
0.000235175
0.000210713
0.000209278
0.000202404
0.000235687
0.000237588
0.000232228
0.000233948
0.000211927
0.000203514
0.000235024
0.000236472
0.000231351
0.000231507
0.000235367
0.000232115
0.000224726
0.000211049
0.000201935
0.000235481
0.000230424
0.000224737
0.000195533
0.000200564
0.000193422
0.000228189
0.000228588
0.000219672
0.000217659
0.000200785
0.000190367
0.000227735
0.000227201
0.000220059
0.000218649
0.000221022
0.000217277
0.000216387
0.000199611
0.000191546
0.000220937
0.000217899
0.000216131
0.000190884
0.000192803
0.000199584
0.000218687
0.000216786
0.000222888
0.000223721
0.000189775
0.000201318
0.00021918
0.000217973
0.00022339
0.000224384
0.00021697
0.000225018
0.000227792
0.000191189
0.000201393
0.000216727
0.00022542
0.000227914
0.000204123
0.000201103
0.000210209
0.000226342
0.000228243
0.000236266
0.00023907
0.00020334
0.000214477
0.00022664
0.000228123
0.000235984
0.00023707
0.00023121
0.0002401
0.000240239
0.000203013
0.000211721
0.000231462
0.000238182
0.000240395
0.000213833
0.000210502
0.000205338
0.000237787
0.000240292
0.000235634
0.000231768
0.000214159
0.000200924
0.000237416
0.000238096
0.000235816
0.000233111
0.000241624
0.000231151
0.00023412
0.000211461
0.000202267
0.000241692
0.000232364
0.000234264
0.000204508
0.000205189
0.000230178
0.000226122
0.000200379
0.000230485
0.000228121
0.000255284
0.000258146
0.000258871
0.000228331
0.000202373
0.00022855
5.58033e-06
2.17744e-06
1.90701e-06
2.70996e-06
1.20388e-06
1.98139e-06
5.38209e-07
1.43427e-06
1.26766e-06
2.12474e-06
2.23517e-06
1.22811e-06
2.39886e-06
2.12299e-06
1.6523e-06
1.06524e-06
1.33201e-05
1.04604e-06
1.50738e-05
1.05953e-05
1.27904e-05
1.34553e-06
1.3485e-05
1.2367e-06
1.52589e-05
1.73279e-06
2.09792e-06
2.08646e-06
1.72828e-06
1.75893e-06
2.10964e-06
2.08722e-06
1.2739e-06
3.21975e-07
1.63145e-06
1.786e-06
1.21961e-06
4.24817e-07
1.63233e-06
1.05949e-05
1.28465e-05
1.27484e-06
2.64154e-06
5.82926e-07
2.01359e-06
1.26522e-06
2.66451e-06
7.28315e-07
1.49833e-06
1.51317e-06
2.35419e-06
1.698e-06
1.72192e-06
1.3013e-06
1.82887e-05
1.24526e-06
2.06613e-05
1.68431e-05
1.90562e-05
1.53528e-06
1.85249e-05
1.44874e-06
2.09534e-05
1.76047e-06
2.11231e-06
2.08711e-06
1.72985e-06
1.7627e-06
2.12691e-06