/*--------------------------------*- C++ -*----------------------------------*\
| =========                 |                                                 |
| \\      /  F ield         | OpenFOAM: The Open Source CFD Toolbox           |
|  \\    /   O peration     | Version:  v2012                                 |
|   \\  /    A nd           | Website:  www.openfoam.com                      |
|    \\/     M anipulation  |                                                 |
\*---------------------------------------------------------------------------*/
FoamFile
{
    version     2.0;
    format      ascii;
    class       volScalarField;
    location    "887.5";
    object      p;
}
// * * * * * * * * * * * * * * * * * * * * * * * * * * * * * * * * * * * * * //

dimensions      [0 2 -2 0 0 0 0];


internalField   nonuniform List<scalar> 
171728
(
0.00351919
0.00351806
0.00351821
0.00351895
0.00348375
0.00348224
0.0034823
0.00348513
0.00344532
0.0034434
0.00344353
0.00344582
0.00340125
0.00339959
0.00339961
0.00340184
0.00335319
0.00335176
0.00335177
0.00335411
0.00330431
0.00330302
0.00330301
0.0033054
0.00325604
0.00325486
0.00325487
0.00325726
0.00320874
0.00320768
0.00320766
0.00321008
0.00316241
0.00316149
0.00316146
0.00316394
0.00311706
0.00311625
0.00311627
0.00311871
0.00307263
0.00307192
0.00307196
0.00307437
0.00302895
0.00302838
0.00302838
0.00303082
0.00298586
0.0029853
0.00298539
0.00298768
0.00294315
0.00294282
0.00294271
0.00294516
0.00290074
0.00290048
0.00290038
0.00290281
0.00285873
0.00285865
0.00285854
0.00286087
0.00281706
0.00281702
0.00281714
0.0028192
0.00277581
0.0027756
0.00277565
0.00277797
0.00273469
0.00273489
0.00273474
0.0027368
0.00269412
0.00269414
0.00269408
0.00269591
0.00265375
0.00265369
0.00265388
0.00265572
0.00261368
0.00261393
0.00261382
0.00261547
0.00257398
0.00257429
0.00257412
0.00257591
0.00253451
0.00253471
0.00253487
0.00253583
0.0024954
0.00249603
0.00249572
0.00249808
0.00245639
0.00245666
0.00245684
0.00245835
0.00241758
0.0024181
0.00241793
0.0024195
0.00237904
0.00237954
0.00237951
0.00238135
0.00234074
0.00234126
0.00234131
0.00234324
0.0023026
0.00230325
0.00230317
0.00230506
0.0022646
0.00226517
0.00226522
0.0022671
0.00222682
0.00222748
0.00222745
0.00222927
0.00218912
0.00218979
0.00218979
0.0021916
0.00215156
0.00215226
0.00215219
0.0021541
0.00211417
0.00211474
0.00211483
0.0021165
0.00207699
0.00207766
0.00207752
0.00207962
0.00203984
0.00204034
0.00204043
0.00204229
0.00200289
0.00200339
0.00200342
0.00200507
0.00196586
0.00196642
0.00196621
0.00196853
0.00192949
0.00192964
0.00192973
0.00193148
0.0018927
0.00189293
0.00189294
0.00189495
0.00185601
0.00185645
0.00185646
0.00185848
0.00181992
0.00181998
0.00181996
0.001822
0.00178368
0.00178374
0.00178377
0.00178582
0.00174755
0.00174757
0.00174751
0.00174959
0.0017116
0.00171156
0.00171165
0.0017138
0.00167582
0.00167582
0.00167574
0.0016776
0.00164009
0.00163975
0.00163979
0.00164211
0.0016041
0.00160432
0.00160426
0.00160622
0.00156903
0.00156853
0.0015687
0.0015706
0.00153391
0.00153359
0.0015334
0.00153573
0.00149822
0.00149809
0.00149821
0.00150006
0.00146291
0.00146244
0.00146258
0.00146454
0.00142764
0.00142795
0.0014275
0.00142971
0.00139309
0.0013925
0.00139272
0.00139467
0.00135803
0.00135734
0.00135761
0.00135942
0.00132284
0.00132279
0.00132258
0.00132467
0.00128783
0.00128791
0.00128785
0.00128988
0.00125338
0.00125293
0.00125294
0.00125482
0.00121863
0.00121824
0.0012182
0.00122005
0.00118381
0.00118375
0.00118383
0.00118571
0.00114945
0.00114901
0.00114916
0.00115118
0.00111456
0.00111459
0.00111429
0.00111619
0.00108033
0.00107979
0.00107998
0.00108164
0.00104546
0.00104541
0.00104541
0.00104758
0.001011
0.00101099
0.00101085
0.0010128
0.000976476
0.000976214
0.0009762
0.000977874
0.000941893
0.000941619
0.000941708
0.000943702
0.000907855
0.000907721
0.000907828
0.000909907
0.000873192
0.000873161
0.000872988
0.000874776
0.000838167
0.000837896
0.000837911
0.000839743
0.00080395
0.00080405
0.000804006
0.000806202
0.000770441
0.000770116
0.000770163
0.000771998
0.000735183
0.000734718
0.000735011
0.000736437
0.000699513
0.000699843
0.000699621
0.000701949
0.000665525
0.000665904
0.000665595
0.000668242
0.00063214
0.00063161
0.000631817
0.000633016
0.000596925
0.000596241
0.000596549
0.000598044
0.000560849
0.000561065
0.000561086
0.000563678
0.000526577
0.000527229
0.000526673
0.000529047
0.000492702
0.000492446
0.0004926
0.000494008
0.000457577
0.000456808
0.000457295
0.00045903
0.000421749
0.000421884
0.000421554
0.000423897
0.000387092
0.000387358
0.000387251
0.000389247
0.000352849
0.000352653
0.000352862
0.000354646
0.000317121
0.000317105
0.000316841
0.000318926
0.000281056
0.00028086
0.000281117
0.000283174
0.000246582
0.000246705
0.000246783
0.000248741
0.000211906
0.000211792
0.000211577
0.000213412
0.000175322
0.000174909
0.000174957
0.000176939
0.000139394
0.000139708
0.00013979
0.000142012
0.000105059
0.000105377
0.000105283
0.000107255
6.97068e-05
6.92455e-05
6.9248e-05
7.10396e-05
3.34584e-05
3.24224e-05
3.26236e-05
3.43751e-05
4.84142e-06
6.11971e-06
6.18517e-06
4.25557e-06
0.00352361
0.00352113
0.00352102
0.00352347
0.0035212
0.00352131
0.00352754
0.00352751
0.00352757
0.00352755
0.00352101
0.00352137
0.00352372
0.00352136
0.00352147
0.00352375
0.00351885
0.00348987
0.00351813
0.00351811
0.00349167
0.00349165
0.00351878
0.00348989
0.00351812
0.00351815
0.00349172
0.00349174
0.00351814
0.00349179
0.00349171
0.00351893
0.00348983
0.00351818
0.0034916
0.00349166
0.00348981
0.00348514
0.00345125
0.00348233
0.00348233
0.00345344
0.00345344
0.00348515
0.00345123
0.00348227
0.0034822
0.00345355
0.00345365
0.00348228
0.00345355
0.00345356
0.00348511
0.00345131
0.00348226
0.00345359
0.0034536
0.0034513
0.00344576
0.00340796
0.00344347
0.00344343
0.00341098
0.00341098
0.00344572
0.00340796
0.00344352
0.00344341
0.00341101
0.00341105
0.00344351
0.00341103
0.00341105
0.00344579
0.00340799
0.0034436
0.00341104
0.00341101
0.00340798
0.0034018
0.00336052
0.0033996
0.0033996
0.00336385
0.00336382
0.00340179
0.00336051
0.00339961
0.00339957
0.00336388
0.00336387
0.00339962
0.00336385
0.00336388
0.00340184
0.00336053
0.00339959
0.00336389
0.00336393
0.00336055
0.00335406
0.00331182
0.00335173
0.00335174
0.00331517
0.00331518
0.00335404
0.00331181
0.00335178
0.00335176
0.00331519
0.00331521
0.00335179
0.00331518
0.00331519
0.0033541
0.00331183
0.00335179
0.00331523
0.00331519
0.00331184
0.00330537
0.00326355
0.00330299
0.00330299
0.00326682
0.00326681
0.00330535
0.00326353
0.00330304
0.00330301
0.00326685
0.00326682
0.00330307
0.00326681
0.00326686
0.00330539
0.00326355
0.00330304
0.00326686
0.00326687
0.00326357
0.00325723
0.00321624
0.00325485
0.00325485
0.00321939
0.00321937
0.00325719
0.00321621
0.00325488
0.0032549
0.0032194
0.00321945
0.0032549
0.00321938
0.00321933
0.00325725
0.00321624
0.00325488
0.00321941
0.00321938
0.00321624
0.00321006
0.0031699
0.00320768
0.00320768
0.00317295
0.00317295
0.00321002
0.00316989
0.00320772
0.00320767
0.00317296
0.00317293
0.00320769
0.00317295
0.0031729
0.00321006
0.00316989
0.00320772
0.00317296
0.00317299
0.00316996
0.00316386
0.00312455
0.00316149
0.00316149
0.0031275
0.00312748
0.00316385
0.00312454
0.0031615
0.00316149
0.00312749
0.00312744
0.0031615
0.0031275
0.00312746
0.00316387
0.00312454
0.00316153
0.00312747
0.00312749
0.00312457
0.00311864
0.00308009
0.00311628
0.00311627
0.00308295
0.00308292
0.00311863
0.00308009
0.00311629
0.0031163
0.00308297
0.00308292
0.00311631
0.00308295
0.00308299
0.00311865
0.00308005
0.00311635
0.00308294
0.00308303
0.00308016
0.00307433
0.00303644
0.00307193
0.00307193
0.00303919
0.0030392
0.00307431
0.00303641
0.00307194
0.00307197
0.00303918
0.00303924
0.003072
0.00303921
0.00303923
0.00307425
0.00303638
0.003072
0.00303925
0.00303923
0.00303648
0.00303074
0.00299335
0.00302841
0.00302838
0.00299611
0.00299607
0.00303075
0.00299323
0.00302839
0.00302835
0.00299613
0.00299614
0.00302845
0.00299608
0.00299612
0.00303069
0.00299332
0.00302844
0.00299608
0.00299615
0.00299327
0.00298777
0.00295067
0.00298544
0.00298532
0.00295337
0.00295339
0.00298766
0.00295068
0.00298543
0.00298545
0.00295331
0.00295325
0.00298542
0.00295338
0.0029535
0.00298775
0.00295069
0.00298543
0.00295333
0.00295348
0.00295072
0.00294516
0.00290809
0.00294276
0.0029428
0.00291092
0.002911
0.00294514
0.00290818
0.00294278
0.00294269
0.0029109
0.00291102
0.00294282
0.00291098
0.00291114
0.00294516
0.00290818
0.00294288
0.00291098
0.00291106
0.00290834
0.00290259
0.00286599
0.00290048
0.00290047
0.00286898
0.0028691
0.00290272
0.0028663
0.00290049
0.00290042
0.00286899
0.00286901
0.00290051
0.00286912
0.00286913
0.00290268
0.00286616
0.00290052
0.00286904
0.00286907
0.00286626
0.00286053
0.00282438
0.0028587
0.00285864
0.00282719
0.0028272
0.00286085
0.00282464
0.00285865
0.00285855
0.00282725
0.00282742
0.00285869
0.00282722
0.00282741
0.00286075
0.00282464
0.0028585
0.00282744
0.00282743
0.00282442
0.00281896
0.00278344
0.00281706
0.00281701
0.00278585
0.00278597
0.00281932
0.00278294
0.00281703
0.00281706
0.00278603
0.00278607
0.00281717
0.00278594
0.00278608
0.00281931
0.00278327
0.00281709
0.002786
0.00278611
0.00278326
0.00277806
0.00274204
0.00277579
0.00277559
0.00274471
0.00274506
0.00277766
0.00274189
0.00277599
0.00277571
0.00274449
0.00274493
0.00277577
0.00274505
0.00274498
0.00277796
0.00274207
0.00277576
0.00274506
0.00274499
0.00274206
0.00273681
0.00270117
0.00273451
0.00273488
0.00270436
0.00270408
0.00273668
0.00270128
0.00273459
0.00273475
0.00270433
0.00270434
0.00273477
0.00270407
0.00270421
0.00273684
0.00270127
0.00273472
0.00270427
0.00270422
0.00270109
0.00269599
0.00266085
0.00269411
0.00269416
0.00266386
0.00266373
0.00269611
0.00266081
0.00269396
0.00269407
0.00266397
0.00266389
0.00269406
0.0026637
0.0026638
0.00269601
0.00266081
0.00269406
0.00266387
0.00266382
0.00266077
0.00265568
0.00262043
0.00265389
0.0026537
0.00262391
0.00262396
0.00265563
0.00262055
0.00265398
0.00265391
0.00262385
0.00262374
0.00265393
0.00262396
0.00262376
0.00265567
0.00262063
0.00265398
0.00262373
0.00262373
0.00262083
0.0026154
0.00258084
0.00261387
0.00261391
0.00258397
0.00258411
0.00261553
0.00258078
0.0026138
0.0026138
0.002584
0.00258408
0.0026137
0.0025841
0.0025843
0.0026155
0.00258081
0.00261368
0.00258405
0.00258432
0.00258082
0.00257582
0.00254138
0.00257422
0.00257433
0.00254458
0.00254466
0.00257592
0.00254117
0.00257425
0.00257415
0.00254459
0.00254465
0.00257429
0.00254465
0.0025444
0.00257574
0.00254136
0.0025743
0.00254463
0.00254445
0.0025409
0.00253633
0.0025023
0.00253473
0.00253471
0.00250553
0.00250573
0.00253607
0.00250267
0.00253475
0.00253484
0.00250551
0.00250542
0.00253456
0.00250577
0.00250589
0.00253647
0.00250214
0.00253461
0.00250545
0.00250586
0.002503
0.00249735
0.0024634
0.00249572
0.00249599
0.00246651
0.00246647
0.00249806
0.00246317
0.00249573
0.0024957
0.00246653
0.00246654
0.00249602
0.00246646
0.00246646
0.00249715
0.00246359
0.00249601
0.00246654
0.00246648
0.00246327
0.00245851
0.00242465
0.0024568
0.00245667
0.00242767
0.00242773
0.00245802
0.00242474
0.00245683
0.00245686
0.00242766
0.00242763
0.00245674
0.00242772
0.00242765
0.0024587
0.00242464
0.00245677
0.00242761
0.00242763
0.00242458
0.00241966
0.00238623
0.00241801
0.00241812
0.00238914
0.00238907
0.00242003
0.00238596
0.00241799
0.00241796
0.00238915
0.00238913
0.00241796
0.00238908
0.00238911
0.00241964
0.00238617
0.00241794
0.00238912
0.00238913
0.00238617
0.00238134
0.00234804
0.00237955
0.00237954
0.00235083
0.00235083
0.00238107
0.00234831
0.00237955
0.00237952
0.00235083
0.00235086
0.00237956
0.00235085
0.00235087
0.00238126
0.00234802
0.00237958
0.00235088
0.00235086
0.00234811
0.00234314
0.00231002
0.00234128
0.00234125
0.00231271
0.00231272
0.00234335
0.00230991
0.00234129
0.00234131
0.00231273
0.0023127
0.00234135
0.00231274
0.0023127
0.00234313
0.00230998
0.00234134
0.0023127
0.00231268
0.00231004
0.00230508
0.00227195
0.00230318
0.00230325
0.00227468
0.00227467
0.00230506
0.00227208
0.00230318
0.00230318
0.00227467
0.0022747
0.00230315
0.00227465
0.00227467
0.00230503
0.00227201
0.00230312
0.00227469
0.00227469
0.00227196
0.00226705
0.00223423
0.00226521
0.00226518
0.00223691
0.00223692
0.00226711
0.0022341
0.00226521
0.00226523
0.00223692
0.00223687
0.00226523
0.00223693
0.00223688
0.00226709
0.00223424
0.00226525
0.00223686
0.00223688
0.00223416
0.00222934
0.00219653
0.00222748
0.00222747
0.00219919
0.00219916
0.00222924
0.00219654
0.00222749
0.00222745
0.00219918
0.00219921
0.00222741
0.00219914
0.00219918
0.00222936
0.00219652
0.00222739
0.0021992
0.0021992
0.0021965
0.00219163
0.00215894
0.00218975
0.00218979
0.00216158
0.00216167
0.00219162
0.00215907
0.00218975
0.00218979
0.00216158
0.00216159
0.00218988
0.00216169
0.00216167
0.00219162
0.00215895
0.0021899
0.00216159
0.00216165
0.00215907
0.00215404
0.00212155
0.00215224
0.00215224
0.00212417
0.00212406
0.00215415
0.00212138
0.00215224
0.00215219
0.00212418
0.00212413
0.00215219
0.00212406
0.00212399
0.00215403
0.00212154
0.00215217
0.00212413
0.00212401
0.00212133
0.00211666
0.00208426
0.00211482
0.00211475
0.00208684
0.002087
0.00211655
0.00208449
0.00211481
0.00211484
0.00208684
0.00208688
0.00211466
0.00208697
0.00208696
0.00211667
0.00208428
0.00211468
0.00208684
0.00208695
0.0020845
0.0020794
0.00204726
0.00207755
0.00207768
0.00204978
0.00204962
0.00207955
0.00204698
0.00207756
0.00207754
0.00204976
0.00204963
0.00207773
0.00204966
0.00204985
0.00207938
0.00204716
0.00207772
0.00204966
0.00204985
0.00204722
0.00204237
0.00200993
0.00204051
0.00204031
0.00201248
0.00201256
0.00204214
0.00201023
0.00204049
0.00204041
0.00201251
0.00201271
0.00204047
0.00201256
0.0020124
0.00204235
0.00201025
0.00204046
0.00201275
0.0020124
0.0020099
0.00200504
0.00197328
0.00200316
0.00200339
0.00197555
0.00197568
0.00200539
0.00197317
0.0020032
0.0020034
0.00197556
0.00197548
0.00200313
0.00197569
0.00197563
0.0020053
0.00197295
0.00200316
0.00197546
0.00197567
0.00197337
0.00196849
0.00193662
0.0019665
0.00196641
0.00193916
0.00193883
0.0019683
0.00193642
0.00196647
0.00196624
0.00193907
0.00193886
0.00196653
0.0019388
0.00193893
0.00196813
0.00193663
0.00196654
0.00193881
0.00193889
0.00193639
0.00193166
0.00189945
0.00192982
0.00192967
0.00190181
0.00190211
0.00193158
0.00189983
0.00192977
0.00192977
0.00190185
0.00190215
0.00192965
0.00190208
0.00190198
0.00193182
0.00189973
0.00192962
0.00190218
0.00190199
0.00189972
0.00189464
0.00186343
0.00189263
0.00189295
0.00186551
0.00186556
0.001895
0.00186325
0.00189268
0.00189288
0.00186557
0.00186551
0.00189288
0.00186558
0.00186567
0.00189486
0.00186329
0.00189289
0.00186551
0.00186567
0.00186337
0.00185865
0.0018269
0.00185651
0.00185641
0.00182921
0.00182911
0.00185841
0.00182685
0.00185656
0.00185644
0.0018292
0.0018291
0.00185651
0.0018291
0.001829
0.00185846
0.00182685
0.00185651
0.00182909
0.00182902
0.00182679
0.00182203
0.00179055
0.00182005
0.00182001
0.00179274
0.00179273
0.00182201
0.00179058
0.00182001
0.00182
0.00179272
0.0017928
0.00181994
0.00179274
0.00179286
0.00182205
0.00179062
0.00181995
0.00179282
0.00179286
0.00179066
0.00178577
0.00175443
0.00178371
0.0017837
0.00175662
0.00175668
0.00178582
0.00175445
0.00178373
0.00178375
0.00175663
0.00175654
0.00178379
0.00175667
0.00175647
0.00178578
0.0017544
0.00178379
0.00175655
0.00175648
0.00175434
0.00174961
0.0017184
0.00174757
0.00174761
0.00172044
0.00172045
0.00174958
0.00171843
0.00174756
0.0017475
0.00172048
0.00172059
0.00174747
0.00172045
0.00172074
0.00174961
0.00171849
0.00174746
0.0017206
0.00172075
0.00171862
0.00171366
0.00168267
0.00171153
0.00171153
0.00168486
0.00168482
0.0017137
0.00168263
0.00171158
0.00171164
0.00168485
0.00168476
0.00171176
0.00168484
0.00168455
0.00171371
0.00168261
0.00171178
0.00168474
0.00168455
0.00168237
0.00167784
0.00164653
0.00167584
0.00167583
0.00164869
0.00164873
0.00167783
0.00164662
0.00167579
0.00167579
0.00164862
0.00164873
0.00167553
0.00164869
0.00164884
0.00167782
0.00164663
0.00167552
0.00164874
0.00164884
0.00164686
0.00164176
0.00161107
0.0016397
0.00163976
0.00161304
0.00161314
0.00164187
0.00161116
0.00163967
0.00163971
0.001613
0.00161302
0.00164001
0.0016132
0.00161324
0.00164185
0.00161106
0.00164003
0.00161313
0.00161326
0.00161107
0.00160634
0.00157576
0.00160424
0.00160429
0.00157782
0.00157757
0.00160639
0.00157538
0.00160419
0.00160421
0.00157792
0.00157775
0.0016042
0.00157746
0.0015773
0.00160631
0.00157559
0.00160421
0.00157758
0.00157728
0.00157527
0.00157101
0.00154006
0.00156895
0.00156865
0.00154204
0.00154221
0.00157064
0.00154028
0.00156912
0.00156889
0.00154215
0.00154224
0.00156851
0.00154228
0.00154239
0.00157085
0.00154014
0.00156851
0.00154218
0.00154244
0.00154045
0.0015353
0.00150476
0.00153323
0.00153347
0.00150694
0.00150709
0.00153557
0.00150491
0.00153317
0.00153331
0.0015066
0.00150679
0.00153365
0.00150709
0.00150711
0.0015354
0.00150487
0.00153369
0.00150703
0.00150705
0.00150486
0.00150003
0.00146952
0.00149813
0.00149814
0.00147155
0.00147136
0.00150011
0.00146929
0.00149784
0.00149803
0.00147165
0.00147162
0.00149811
0.00147121
0.00147124
0.00150012
0.00146944
0.00149805
0.00147148
0.0014713
0.00146926
0.00146478
0.00143435
0.00146267
0.00146256
0.00143626
0.00143645
0.00146458
0.00143453
0.00146285
0.00146274
0.00143639
0.00143625
0.00146245
0.00143657
0.00143632
0.0014647
0.0014343
0.00146252
0.00143619
0.00143629
0.00143438
0.00142964
0.0013993
0.00142756
0.00142777
0.00140144
0.00140142
0.00142986
0.00139928
0.00142761
0.00142754
0.00140139
0.00140147
0.00142767
0.00140149
0.00140163
0.0014296
0.00139935
0.0014276
0.0014015
0.00140153
0.00139943
0.00139459
0.00136422
0.00139268
0.00139256
0.00136629
0.0013662
0.00139453
0.00136405
0.0013926
0.00139269
0.00136629
0.00136626
0.00139281
0.00136602
0.00136614
0.00139462
0.00136422
0.00139275
0.00136635
0.00136636
0.00136413
0.0013595
0.00132941
0.00135752
0.00135747
0.00133147
0.0013315
0.00135934
0.00132944
0.00135755
0.00135749
0.00133144
0.00133139
0.0013574
0.00133143
0.00133134
0.00135951
0.00132935
0.00135766
0.00133133
0.00133137
0.00132935
0.00132473
0.0012944
0.00132277
0.00132284
0.00129638
0.00129649
0.00132477
0.00129455
0.00132273
0.00132271
0.00129643
0.00129657
0.00132266
0.00129668
0.00129668
0.00132466
0.00129449
0.00132258
0.00129651
0.00129647
0.00129457
0.00128968
0.00125963
0.00128766
0.00128767
0.00126176
0.00126167
0.00128983
0.00125959
0.00128772
0.00128779
0.00126172
0.00126157
0.00128799
0.00126169
0.00126161
0.00128977
0.00125953
0.00128782
0.0012617
0.00126166
0.00125956
0.00125494
0.00122483
0.00125308
0.00125303
0.00122688
0.00122693
0.00125488
0.00122482
0.00125303
0.00125289
0.0012269
0.00122696
0.00125285
0.00122683
0.00122686
0.00125484
0.00122482
0.00125293
0.00122683
0.00122686
0.00122472
0.00122015
0.0011904
0.0012182
0.00121829
0.00119244
0.00119248
0.00122015
0.00119037
0.00121821
0.0012183
0.00119241
0.00119237
0.00121823
0.00119246
0.00119233
0.00122013
0.00119039
0.0012182
0.0011924
0.00119233
0.00119034
0.00118575
0.00115565
0.00118386
0.00118379
0.00115769
0.00115759
0.00118567
0.0011556
0.00118384
0.00118378
0.00115784
0.00115791
0.0011837
0.00115761
0.00115789
0.00118576
0.00115579
0.00118376
0.0011579
0.00115803
0.0011559
0.00115092
0.00112096
0.00114891
0.00114892
0.00112301
0.00112316
0.00115093
0.00112116
0.00114906
0.00114916
0.00112295
0.00112295
0.00114926
0.00112327
0.00112312
0.00115107
0.00112089
0.00114932
0.00112297
0.00112295
0.00112091
0.00111631
0.0010866
0.00111448
0.00111458
0.00108874
0.00108863
0.00111647
0.00108642
0.00111436
0.0011143
0.00108867
0.00108859
0.00111437
0.00108845
0.00108831
0.00111619
0.0010865
0.00111422
0.00108854
0.00108833
0.00108629
0.0010819
0.00105191
0.00108004
0.00107993
0.00105392
0.00105392
0.00108172
0.00105195
0.00108003
0.00108001
0.00105397
0.00105398
0.0010797
0.00105396
0.00105408
0.00108184
0.00105201
0.00107979
0.00105409
0.00105423
0.00105221
0.00104723
0.00101749
0.00104528
0.0010453
0.0010195
0.00101952
0.0010473
0.0010176
0.0010453
0.00104527
0.00101948
0.00101944
0.00104558
0.00101967
0.0010198
0.00104732
0.00101747
0.00104568
0.00101947
0.00101963
0.00101756
0.00101281
0.00098284
0.00101089
0.00101089
0.000984881
0.000985003
0.00101289
0.000982842
0.00101091
0.0010109
0.000984937
0.000985052
0.00101101
0.000984884
0.000984632
0.00101279
0.00098285
0.00101084
0.000984887
0.000984623
0.000982579
0.000978131
0.000948272
0.000976198
0.000976354
0.000950306
0.000950266
0.000978123
0.00094822
0.000976225
0.000976306
0.000950256
0.000950197
0.00097592
0.000950238
0.000950213
0.000978117
0.000948215
0.000975948
0.000950263
0.000950263
0.000948299
0.000943618
0.00091433
0.000941771
0.000941604
0.000916314
0.00091606
0.000943546
0.000914197
0.000941725
0.000941613
0.000916318
0.000916225
0.000941786
0.00091613
0.000916569
0.000943566
0.000914347
0.000941824
0.000916316
0.000916598
0.000914581
0.000909686
0.000879663
0.000907778
0.000907659
0.000881724
0.000882028
0.000909622
0.000879876
0.000907786
0.000907771
0.000881737
0.000881874
0.00090802
0.000881995
0.000881684
0.000909742
0.00087972
0.000908025
0.000881817
0.000881676
0.000879569
0.000874909
0.000844644
0.000872947
0.000873217
0.00084666
0.000846653
0.00087506
0.000844565
0.000872957
0.000873067
0.000846654
0.000846639
0.000872819
0.000846596
0.000846435
0.00087493
0.000844566
0.000872814
0.000846579
0.000846422
0.000844435
0.000839902
0.000810524
0.000837992
0.000837928
0.000812417
0.000812347
0.000839829
0.000810524
0.000837978
0.000837952
0.000812415
0.000812378
0.000837827
0.00081242
0.000812622
0.000839835
0.000810511
0.000837809
0.000812402
0.000812574
0.000810734
0.000805976
0.000776882
0.000804021
0.000803956
0.000778853
0.000778723
0.000805976
0.000776743
0.000804043
0.000803968
0.000778915
0.000778711
0.00080431
0.000778741
0.000778852
0.000805954
0.000776791
0.00080427
0.000778711
0.000778892
0.000776766
0.000772176
0.000741601
0.000770275
0.000770147
0.00074378
0.000743726
0.000772037
0.000741536
0.000770307
0.000770182
0.000743747
0.000743948
0.000770074
0.000743619
0.000743323
0.000772133
0.000741747
0.000770131
0.000743922
0.00074341
0.00074128
0.000736706
0.000706101
0.00073481
0.000734814
0.000708131
0.000708388
0.000736674
0.000706414
0.000734753
0.000735007
0.000708072
0.000708315
0.000734431
0.000708423
0.000708462
0.000736856
0.000706279
0.000734518
0.00070837
0.000708435
0.000706549
0.000701417
0.000672306
0.000699463
0.000699744
0.000674105
0.000674187
0.000701733
0.000672467
0.000699426
0.000699534
0.000674093
0.000673856
0.000700047
0.000674404
0.000674908
0.000701538
0.00067216
0.000699981
0.000673982
0.000674791
0.000672942
0.000667747
0.000638784
0.000665763
0.000665716
0.000640698
0.000640431
0.000667864
0.000638361
0.000665746
0.000665511
0.00064069
0.000640512
0.000666333
0.000640222
0.000639825
0.000667608
0.000638549
0.000666235
0.000640341
0.000639867
0.000637796
0.000634121
0.000603255
0.000632172
0.000631908
0.000605417
0.0006053
0.000633642
0.000603023
0.000632201
0.000632067
0.000605556
0.000605746
0.000630954
0.000605156
0.000604671
0.000633882
0.000603345
0.000631049
0.000605538
0.000604795
0.000602741
0.000598307
0.000567367
0.000596353
0.000596257
0.000569426
0.000569434
0.000598127
0.000567587
0.000596473
0.000596624
0.00056947
0.000569654
0.000596066
0.000569702
0.000570372
0.000598429
0.000567702
0.000596149
0.000569868
0.000570328
0.000568395
0.000562605
0.000533377
0.000560694
0.000560747
0.00053527
0.000535496
0.000562907
0.000533786
0.000560673
0.000560825
0.000535086
0.000534892
0.000561803
0.000535675
0.00053591
0.00056293
0.000533244
0.000561727
0.000535172
0.000535795
0.000533822
0.000528791
0.000499508
0.000526892
0.000527152
0.000501456
0.000501626
0.00052918
0.000499373
0.000526693
0.0005265
0.000501366
0.000501297
0.000527113
0.000501335
0.000500724
0.000528646
0.000499321
0.000527031
0.000501172
0.000500788
0.000498748
0.000494806
0.000464147
0.000492787
0.000492762
0.000466166
0.000465796
0.000494513
0.000463639
0.000492806
0.000492799
0.000466425
0.000466531
0.000491974
0.000465669
0.000465796
0.000494625
0.000464225
0.000492089
0.000466273
0.000465911
0.000463825
0.000459232
0.000428339
0.000457177
0.000456834
0.000430411
0.000430379
0.000458803
0.000428534
0.000457412
0.000457463
0.000430382
0.00043029
0.000457066
0.000430547
0.000430741
0.000459311
0.000428299
0.000457128
0.000430383
0.00043065
0.000428701
0.000423529
0.000393773
0.000421638
0.000421689
0.000395716
0.000395913
0.000423797
0.000394038
0.000421521
0.000421412
0.000395594
0.000395611
0.000421946
0.000395982
0.00039585
0.000423479
0.000393806
0.000421839
0.000395702
0.000395767
0.000393905
0.000389149
0.000359505
0.000387193
0.000387323
0.000361504
0.00036146
0.000389336
0.000359359
0.00038712
0.000387184
0.000361547
0.000361642
0.000387269
0.000361393
0.000361443
0.000389189
0.000359603
0.00038724
0.000361675
0.00036157
0.000359437
0.000354715
0.000323845
0.000352758
0.000352719
0.000325996
0.000326134
0.000354594
0.000323993
0.000352801
0.000352856
0.000325961
0.000325929
0.000352687
0.000326117
0.000326001
0.000354788
0.000323771
0.000352783
0.000325907
0.000325964
0.000323851
0.000318915
0.000288016
0.000316956
0.000317104
0.000289914
0.000289736
0.000319052
0.000287748
0.000316917
0.000316873
0.00028999
0.000289946
0.000316976
0.000289763
0.000289936
0.000318828
0.000287986
0.000316914
0.000289864
0.000289922
0.000287979
0.000283211
0.000253394
0.000281112
0.000280848
0.000255233
0.000255123
0.000282933
0.000253319
0.000281201
0.00028118
0.000255269
0.000255301
0.000281112
0.000255127
0.000255253
0.000283214
0.000253451
0.00028113
0.000255316
0.000255289
0.000253399
0.000248735
0.000218469
0.000246722
0.000246716
0.000220678
0.000220881
0.00024871
0.000218673
0.000246718
0.000246758
0.000220586
0.000220603
0.000246713
0.000220824
0.000220492
0.00024878
0.000218421
0.000246734
0.000220606
0.000220465
0.000218333
0.000213566
0.000182054
0.000211688
0.000211839
0.000184226
0.000184125
0.000213707
0.000181932
0.000211612
0.000211586
0.000184244
0.000184135
0.000211485
0.000184099
0.000184044
0.000213486
0.000181955
0.000211455
0.000184098
0.000184044
0.000181885
0.000177026
0.00014639
0.000175048
0.000174915
0.000148211
0.000148172
0.000176926
0.00014642
0.000175086
0.000174988
0.000148256
0.000148327
0.000174968
0.000148273
0.000148579
0.000176966
0.000146539
0.000174974
0.000148402
0.00014859
0.000146733
0.000141648
0.000111919
0.000139558
0.000139605
0.000113817
0.000114003
0.00014173
0.000112114
0.000139585
0.000139699
0.000113787
0.000113906
0.000139963
0.00011405
0.000114057
0.000141813
0.000112022
0.000139971
0.000113978
0.000114056
0.000112094
0.000107195
7.63821e-05
0.000105215
0.000105378
7.85772e-05
7.84921e-05
0.000107348
7.62374e-05
0.000105176
0.000105255
7.8559e-05
7.84339e-05
0.000105263
7.83953e-05
7.82426e-05
0.00010725
7.62082e-05
0.000105259
7.83435e-05
7.82363e-05
7.6069e-05
7.13308e-05
3.96006e-05
6.94554e-05
6.93293e-05
4.17538e-05
4.15685e-05
7.11779e-05
3.93554e-05
6.94541e-05
6.93314e-05
4.18076e-05
4.17455e-05
6.91604e-05
4.1532e-05
4.16413e-05
7.11764e-05
3.9549e-05
6.91583e-05
4.16905e-05
4.1662e-05
3.94664e-05
3.44874e-05
7.27728e-06
3.2633e-05
3.24415e-05
1.01761e-05
1.02932e-05
3.42523e-05
7.41464e-06
3.26926e-05
3.26549e-05
1.02063e-05
1.04007e-05
3.2557e-05
1.03162e-05
1.02246e-05
3.44606e-05
7.47708e-06
3.25896e-05
1.0442e-05
1.02663e-05
7.34572e-06
4.20459e-06
6.01966e-06
6.05837e-06
4.30718e-06
5.99502e-06
6.11368e-06
4.98443e-06
5.00118e-06
4.87606e-06
6.06534e-06
4.34522e-06
6.04701e-06
0.00353067
0.00353321
0.00353188
0.00353216
0.00355917
0.00353303
0.00356268
0.00353348
0.00355919
0.00353335
0.00353365
0.00356292
0.00354434
0.00356601
0.0035661
0.0035033
0.0035169
0.00352076
0.00349562
0.00349369
0.003499
0.00350325
0.00351684
0.00352072
0.00349554
0.00351919
0.00351917
0.00351916
0.0034928
0.00349283
0.00349272
0.00349268
0.00350287
0.00351446
0.00351973
0.00351052
0.00352181
0.00350013
0.00351074
0.00349376
0.00349897
0.00350294
0.0035198
0.00351469
0.00351034
0.00352192
0.00351073
0.00350001
0.00352062
0.00352068
0.00350764
0.00349994
0.00349995
0.00347573
0.00349012
0.00348986
0.00347379
0.00348735
0.00347282
0.00347574
0.00348998
0.00348981
0.00347382
0.00348378
0.00348365
0.00348363
0.00345538
0.00345543
0.00345531
0.00345528
0.00347352
0.00348856
0.00348222
0.00347286
0.00348694
0.00347405
0.00347283
0.00348716
0.00347274
0.0034735
0.00348225
0.00348852
0.00347287
0.00348693
0.00347282
0.00347404
0.00349019
0.00349025
0.00347131
0.00347439
0.00347439
0.00343333
0.00344801
0.00344891
0.00343203
0.00344683
0.0034311
0.00343328
0.003448
0.00344888
0.00343197
0.00344537
0.00344524
0.00344523
0.00341278
0.00341282
0.0034127
0.00341269
0.00343201
0.00344758
0.00344342
0.003433
0.00344654
0.00343248
0.00343296
0.00344683
0.00343108
0.00343199
0.00344348
0.00344761
0.00343301
0.00344657
0.00343301
0.00343248
0.00344833
0.00344834
0.00343033
0.00343224
0.00343224
0.00338701
0.0034034
0.00340486
0.00338559
0.00340268
0.00338509
0.00338691
0.00340334
0.00340483
0.00338557
0.00340131
0.00340118
0.00340115
0.00336539
0.0033654
0.00336531
0.0033653
0.00338614
0.0034032
0.00339957
0.00338783
0.00340265
0.00338632
0.00338785
0.00340267
0.00338499
0.00338611
0.00339958
0.0034033
0.00338788
0.00340264
0.00338786
0.00338621
0.00340344
0.00340343
0.00338459
0.0033857
0.00338571
0.00333808
0.00335523
0.00335654
0.00333687
0.00335481
0.00333659
0.00333799
0.00335522
0.00335658
0.00333684
0.00335321
0.00335313
0.00335312
0.00331651
0.00331654
0.00331646
0.00331644
0.00333769
0.00335524
0.00335178
0.00333954
0.00335487
0.00333762
0.00333957
0.0033548
0.00333658
0.00333765
0.00335177
0.00335524
0.00333961
0.00335487
0.0033396
0.00333758
0.00335526
0.00335524
0.00333621
0.00333702
0.00333701
0.00328896
0.00330628
0.00330728
0.0032881
0.003306
0.00328786
0.00328892
0.00330629
0.00330734
0.0032881
0.00330434
0.00330426
0.00330424
0.00326803
0.00326804
0.00326797
0.00326798
0.00328891
0.00330632
0.00330306