/*--------------------------------*- C++ -*----------------------------------*\
| =========                 |                                                 |
| \\      /  F ield         | OpenFOAM: The Open Source CFD Toolbox           |
|  \\    /   O peration     | Version:  v2012                                 |
|   \\  /    A nd           | Website:  www.openfoam.com                      |
|    \\/     M anipulation  |                                                 |
\*---------------------------------------------------------------------------*/
FoamFile
{
    version     2.0;
    format      ascii;
    class       volScalarField;
    location    "1125";
    object      k;
}
// * * * * * * * * * * * * * * * * * * * * * * * * * * * * * * * * * * * * * //

dimensions      [0 2 -2 0 0 0 0];


internalField   nonuniform List<scalar> 
171728
(
1.64307e-07
2.54275e-07
3.54349e-07
3.5299e-07
1.62777e-07
2.43166e-07
3.48336e-07
3.36693e-07
1.58853e-07
2.32638e-07
3.43462e-07
3.24263e-07
1.55113e-07
2.23424e-07
3.43312e-07
3.1326e-07
1.51663e-07
2.15894e-07
3.48038e-07
3.02105e-07
1.48471e-07
2.09346e-07
3.83329e-07
2.93704e-07
1.45355e-07
2.03432e-07
4.35275e-07
2.76643e-07
1.41999e-07
1.97497e-07
5.32637e-07
2.53803e-07
1.38838e-07
1.92309e-07
6.58547e-07
2.44033e-07
1.36579e-07
1.88316e-07
6.99936e-07
2.38125e-07
1.34002e-07
1.84939e-07
5.78698e-07
2.39846e-07
1.32144e-07
1.829e-07
3.64323e-07
2.50149e-07
1.29662e-07
1.82596e-07
2.53653e-07
2.71964e-07
1.27922e-07
1.8422e-07
2.0863e-07
2.83988e-07
1.27737e-07
1.87711e-07
1.88925e-07
2.75097e-07
1.27261e-07
1.93095e-07
1.84961e-07
2.36593e-07
1.25799e-07
2.03239e-07
1.91204e-07
2.38106e-07
1.23799e-07
2.20051e-07
2.04779e-07
2.71377e-07
1.22774e-07
2.49573e-07
2.29891e-07
3.26317e-07
1.21065e-07
2.92598e-07
2.76843e-07
3.88848e-07
1.16102e-07
3.68915e-07
3.53683e-07
5.0031e-07
1.1178e-07
4.79431e-07
4.73966e-07
6.73018e-07
1.11078e-07
6.55763e-07
6.55952e-07
1.09057e-06
1.13299e-07
8.63331e-07
8.17023e-07
1.65138e-06
1.15183e-07
1.23007e-06
1.24166e-06
2.49322e-06
1.13789e-07
1.56343e-06
1.53468e-06
3.88666e-06
1.15066e-07
2.19072e-06
2.11232e-06
5.65795e-06
1.23833e-07
2.79475e-06
2.73384e-06
7.3719e-06
1.38353e-07
3.437e-06
3.49925e-06
9.85259e-06
1.58078e-07
4.50156e-06
4.34772e-06
1.31128e-05
1.88256e-07
5.43895e-06
5.25128e-06
1.35253e-05
2.46786e-07
6.34418e-06
6.85087e-06
1.85663e-05
3.03942e-07
8.06738e-06
7.38682e-06
1.95439e-05
3.84495e-07
9.13385e-06
9.13785e-06
2.11434e-05
5.26113e-07
1.04159e-05
1.07122e-05
2.35746e-05
6.69088e-07
1.22421e-05
1.19084e-05
2.49211e-05
8.52539e-07
1.38457e-05
1.37964e-05
2.65276e-05
1.13847e-06
1.53114e-05
1.55278e-05
2.79673e-05
1.42575e-06
1.75659e-05
1.71567e-05
2.93931e-05
1.7712e-06
1.87535e-05
1.88803e-05
3.03375e-05
2.35886e-06
2.06908e-05
2.12116e-05
3.17956e-05
2.7285e-06
2.33565e-05
2.24663e-05
3.29587e-05
3.41937e-06
2.39927e-05
2.42813e-05
3.3981e-05
4.32101e-06
2.5993e-05
2.66001e-05
3.47456e-05
4.95064e-06
2.78921e-05
2.74209e-05
3.6438e-05
6.03014e-06
3.04015e-05
2.99181e-05
3.785e-05
7.35911e-06
3.07845e-05
3.178e-05
3.78678e-05
7.51646e-06
3.25094e-05
3.18268e-05
3.85499e-05
9.50162e-06
3.51888e-05
3.46958e-05
4.1515e-05
1.16167e-05
3.55983e-05
3.6366e-05
4.15064e-05
1.18229e-05
3.57847e-05
3.62266e-05
4.16062e-05
1.22664e-05
3.88003e-05
3.80082e-05
4.34882e-05
1.64492e-05
3.94206e-05
4.00295e-05
4.40213e-05
1.7532e-05
3.95043e-05
3.99624e-05
4.39829e-05
1.7404e-05
4.18065e-05
4.12518e-05
4.60937e-05
1.94311e-05
4.31537e-05
4.27924e-05
4.73644e-05
2.1892e-05
4.34182e-05
4.36559e-05
4.71859e-05
2.28941e-05
4.3937e-05
4.39704e-05
4.71694e-05
2.36374e-05
4.46836e-05
4.50342e-05
4.84282e-05
2.62323e-05
4.65391e-05
4.65857e-05
4.92139e-05
2.80236e-05
4.73867e-05
4.73956e-05
5.05882e-05
2.85422e-05
4.80605e-05
4.72148e-05
5.06077e-05
2.92999e-05
4.80256e-05
4.85567e-05
5.00539e-05
3.09469e-05
4.8666e-05
5.02003e-05
5.17026e-05
3.29786e-05
5.0652e-05
4.98786e-05
5.33344e-05
3.37357e-05
5.09365e-05
4.94033e-05
5.24872e-05
3.37295e-05
5.06667e-05
5.07661e-05
5.17463e-05
3.52204e-05
5.15803e-05
5.33053e-05
5.49233e-05
3.77867e-05
5.34241e-05
5.35257e-05
5.59763e-05
3.80652e-05
5.26898e-05
5.14221e-05
5.26225e-05
3.72254e-05
5.18201e-05
5.14105e-05
5.31266e-05
3.78443e-05
5.41951e-05
5.52551e-05
5.74382e-05
4.12829e-05
5.50876e-05
5.59078e-05
5.69009e-05
4.20499e-05
5.47362e-05
5.41155e-05
5.52811e-05
4.18759e-05
5.48658e-05
5.38699e-05
5.5822e-05
4.20883e-05
5.52999e-05
5.53844e-05
5.6276e-05
4.21643e-05
5.47997e-05
5.53435e-05
5.54804e-05
4.22836e-05
5.49039e-05
5.50611e-05
5.67073e-05
4.47005e-05
5.73941e-05
5.70521e-05
5.9287e-05
4.59406e-05
5.76791e-05
5.78823e-05
5.90614e-05
4.52455e-05
5.56323e-05
5.613e-05
5.61879e-05
4.44671e-05
5.53822e-05
5.53104e-05
5.60473e-05
4.49295e-05
5.74923e-05
5.66761e-05
5.83673e-05
4.6371e-05
5.76341e-05
5.73894e-05
5.82874e-05
4.66726e-05
5.67242e-05
5.72816e-05
5.7691e-05
4.66824e-05
5.70401e-05
5.75293e-05
5.87495e-05
4.65645e-05
5.73657e-05
5.7636e-05
5.89145e-05
4.61165e-05
5.67537e-05
5.63342e-05
5.70189e-05
4.62777e-05
5.67385e-05
5.58946e-05
5.69756e-05
4.73539e-05
5.75452e-05
5.77157e-05
5.91493e-05
4.73058e-05
5.73011e-05
5.84721e-05
5.92763e-05
4.66355e-05
5.65859e-05
5.70677e-05
5.76017e-05
4.67897e-05
5.65716e-05
5.55359e-05
5.69661e-05
4.70212e-05
5.66082e-05
5.53534e-05
5.7133e-05
4.59112e-05
5.52387e-05
5.56138e-05
5.76418e-05
3.65178e-07
3.05951e-07
3.06849e-07
3.49981e-07
3.2356e-07
3.09737e-07
1.62545e-07
1.59498e-07
1.85898e-07
1.77283e-07
2.87853e-07
3.10096e-07
3.60643e-07
3.20189e-07
3.11247e-07
3.55652e-07
3.64026e-07
3.43085e-07
2.48695e-07
2.83814e-07
2.40378e-07
2.77058e-07
3.48997e-07
3.28178e-07
3.34859e-07
3.08973e-07
3.22994e-07
2.9909e-07
3.66746e-07
2.45975e-07
3.72448e-07
3.59447e-07
3.40162e-07
4.74747e-07
3.50063e-07
4.47753e-07
3.39565e-07
3.41747e-07
3.2236e-07
2.3748e-07
2.74454e-07
2.29739e-07
2.67165e-07
3.26974e-07
3.07833e-07
3.18695e-07
2.95319e-07
3.06796e-07
2.84752e-07
3.72589e-07
2.35156e-07
3.70517e-07
3.38707e-07
3.21053e-07
4.39305e-07
3.44169e-07
4.13079e-07
3.26671e-07
3.21197e-07
3.04426e-07
2.2734e-07
2.64806e-07
2.20172e-07
2.57662e-07
3.06788e-07
2.9073e-07
3.03068e-07
2.81447e-07
2.92287e-07
2.72328e-07
3.69251e-07
2.25562e-07
3.58833e-07
3.19723e-07
3.04525e-07
4.05263e-07
3.42983e-07
3.95886e-07
3.15974e-07
3.03399e-07
2.89018e-07
2.17646e-07
2.55259e-07
2.10197e-07
2.4811e-07
2.89832e-07
2.76009e-07
2.88828e-07
2.6942e-07
2.79571e-07
2.61402e-07
3.53221e-07
2.17598e-07
3.33086e-07
3.02886e-07
2.91854e-07
3.9589e-07
3.46215e-07
4.02451e-07
3.04307e-07
2.88133e-07
2.7628e-07
2.07762e-07
2.45785e-07
2.00366e-07
2.39376e-07
2.75243e-07
2.63328e-07
2.76828e-07
2.58903e-07
2.69881e-07
2.5183e-07
3.25118e-07
2.10885e-07
2.95889e-07
2.90171e-07
2.87416e-07
4.04037e-07
3.70781e-07
4.06174e-07
2.95887e-07
2.75591e-07
2.65724e-07
1.97938e-07
2.37397e-07
1.90676e-07
2.32031e-07
2.62694e-07
2.52013e-07
2.68312e-07
2.4959e-07
2.65269e-07
2.43746e-07
2.84703e-07
2.04925e-07
2.53158e-07
2.87293e-07
2.90514e-07
4.06088e-07
4.21444e-07
3.9247e-07
2.80167e-07
2.65058e-07
2.55488e-07
1.88465e-07
2.30355e-07
1.8261e-07
2.24904e-07
2.51471e-07
2.41603e-07
2.64382e-07
2.42018e-07
2.60239e-07
2.37278e-07
2.45055e-07
1.98964e-07
2.28528e-07
2.90428e-07
3.0309e-07
3.78666e-07
5.01759e-07
3.26219e-07
2.55635e-07
2.54932e-07
2.45645e-07
1.80851e-07
2.23041e-07
1.75856e-07
2.17649e-07
2.41137e-07
2.31734e-07
2.58435e-07
2.36074e-07
2.52179e-07
2.33606e-07
2.24796e-07
1.93459e-07
2.15331e-07
3.0401e-07
3.2903e-07
3.12056e-07
6.31538e-07
2.89441e-07
2.44671e-07
2.45152e-07
2.35494e-07
1.74301e-07
2.15819e-07
1.69892e-07
2.1011e-07
2.31289e-07
2.2217e-07
2.50238e-07
2.32932e-07
2.46744e-07
2.31056e-07
2.12482e-07
1.89234e-07
2.05079e-07
3.29361e-07
3.42119e-07
2.86898e-07
6.98581e-07
2.85608e-07
2.38203e-07
2.35131e-07
2.26268e-07
1.68632e-07
2.08181e-07
1.65034e-07
2.02331e-07
2.21765e-07
2.13241e-07
2.46215e-07
2.30037e-07
2.44475e-07
2.24367e-07
2.0306e-07
1.85673e-07
1.97892e-07
3.4082e-07
3.07279e-07
2.86559e-07
6.4672e-07
3.05579e-07
2.39141e-07
2.26019e-07
2.18006e-07
1.63879e-07
2.00522e-07
1.60754e-07
1.96368e-07
2.12954e-07
2.05925e-07
2.43859e-07
2.22256e-07
2.42173e-07
2.17517e-07
1.96507e-07
1.83234e-07
1.95041e-07
2.93298e-07
2.42826e-07
3.13922e-07
4.08158e-07
3.50046e-07
2.47762e-07
2.17825e-07
2.0983e-07
1.59917e-07
1.95436e-07
1.5745e-07
1.94022e-07
2.05828e-07
2.00693e-07
2.41316e-07
2.16312e-07
2.36286e-07
2.13185e-07
1.95074e-07
1.82504e-07
1.96291e-07
2.4044e-07
2.2239e-07
3.68338e-07
2.72864e-07
4.36714e-07
2.68396e-07
2.09709e-07
2.02306e-07
1.56734e-07
1.93816e-07
1.55941e-07
1.94074e-07
2.00787e-07
1.97408e-07
2.33935e-07
2.12584e-07
2.28544e-07
2.12675e-07
1.96898e-07
1.83688e-07
1.98608e-07
2.21569e-07
2.11175e-07
4.59088e-07
2.16396e-07
5.06575e-07
2.8324e-07
2.02478e-07
1.99599e-07
1.56088e-07
1.9446e-07
1.58012e-07
1.96674e-07
1.9772e-07
1.96306e-07
2.2827e-07
2.13031e-07
2.28875e-07
2.12933e-07
2.00175e-07
1.86848e-07
2.11924e-07
2.10795e-07
2.02629e-07
5.13693e-07
1.92299e-07
5.13383e-07
2.78263e-07
2.00709e-07
2.03522e-07
1.58917e-07
1.97494e-07
1.64585e-07
2.00631e-07
1.97098e-07
1.97545e-07
2.29647e-07
2.12559e-07
2.37348e-07
2.13448e-07
2.17542e-07
1.91709e-07
2.38119e-07
2.02907e-07
1.99168e-07
4.98395e-07
1.84722e-07
3.68354e-07
2.37104e-07
2.05929e-07
2.1526e-07
1.66585e-07
2.01963e-07
1.75827e-07
2.07762e-07
1.99081e-07
2.03377e-07
2.41686e-07
2.14391e-07
2.63838e-07
2.21936e-07
2.4749e-07
2.00335e-07
2.95172e-07
2.00271e-07
2.02628e-07
3.29696e-07
1.89218e-07
2.48431e-07
2.34516e-07
2.20236e-07
2.37784e-07
1.79365e-07
2.10185e-07
1.94077e-07
2.21346e-07
2.06751e-07
2.17625e-07
2.73304e-07
2.24887e-07
3.11768e-07
2.37687e-07
3.16646e-07
2.15061e-07
4.00716e-07
2.05663e-07
2.17582e-07
2.32927e-07
2.00039e-07
2.12803e-07
2.60111e-07
2.45537e-07
2.74925e-07
2.01072e-07
2.26884e-07
2.22725e-07
2.46959e-07
2.23965e-07
2.4836e-07
3.26756e-07
2.4412e-07
3.69606e-07
2.85297e-07
4.31551e-07
2.40153e-07
5.13301e-07
2.24681e-07
2.52337e-07
2.13091e-07
2.21818e-07
2.17839e-07
3.11452e-07
2.88556e-07
3.41836e-07
2.3412e-07
2.56518e-07
2.70286e-07
2.89493e-07
2.60892e-07
3.05493e-07
3.88441e-07
2.99957e-07
4.37822e-07
3.66937e-07
5.39327e-07
2.80715e-07
5.91979e-07
2.64184e-07
3.23705e-07
2.23289e-07
2.65285e-07
2.47033e-07
3.72842e-07
3.60256e-07
4.57524e-07
2.84237e-07
3.01731e-07
3.40922e-07
3.58875e-07
3.23837e-07
4.1356e-07
4.53162e-07
3.94279e-07
5.05917e-07
4.76116e-07
6.02707e-07
3.46536e-07
6.16418e-07
3.46089e-07
4.43444e-07
2.59699e-07
3.37445e-07
3.22305e-07
4.76044e-07
4.96753e-07
6.32304e-07
3.65875e-07
3.82496e-07
4.35397e-07
4.67792e-07
4.53052e-07
6.26585e-07
5.30868e-07
5.05815e-07
5.8012e-07
6.21829e-07
6.00434e-07
4.49216e-07
5.78748e-07
4.82391e-07
6.5193e-07
3.36274e-07
4.40932e-07
4.19328e-07
6.0018e-07
6.75036e-07
1.02688e-06
4.68912e-07
4.98684e-07
6.1283e-07
6.27342e-07
6.80548e-07
9.79723e-07
5.96533e-07
6.51229e-07
7.08587e-07
7.73236e-07
5.89635e-07
6.02229e-07
6.85029e-07
7.18989e-07
1.01399e-06
4.56881e-07
5.9816e-07
5.79517e-07
1.01241e-06
1.12801e-06
1.53452e-06
6.4532e-07
6.83509e-07
8.20535e-07
8.55119e-07
1.09152e-06
1.54521e-06
7.47012e-07
8.18531e-07
9.79716e-07
8.94467e-07
7.14572e-07
8.10563e-07
8.41458e-07
1.12099e-06
1.44091e-06
6.19747e-07
7.51906e-07
7.91031e-07
1.48208e-06
1.72011e-06
2.31931e-06
8.93375e-07
9.12927e-07
1.08967e-06
1.17245e-06
1.66426e-06
2.39403e-06
1.07346e-06
9.58338e-07
1.25863e-06
1.30311e-06
9.04461e-07
1.11726e-06
1.10103e-06
1.508e-06
2.77925e-06
8.66885e-07
1.17745e-06
1.09107e-06
2.3229e-06
2.48347e-06
3.86196e-06
1.19206e-06
1.29352e-06
1.55359e-06
1.56269e-06
2.64782e-06
3.6676e-06
1.34865e-06
1.34317e-06
1.72366e-06
1.41935e-06
1.19144e-06
1.48004e-06
1.46954e-06
3.03241e-06
3.12629e-06
1.18717e-06
1.4157e-06
1.47183e-06
3.62066e-06
4.16299e-06
4.93404e-06
1.64916e-06
1.65227e-06
1.94509e-06
2.12724e-06
3.86995e-06
5.16853e-06
1.8008e-06
1.55047e-06
1.99421e-06
2.10926e-06
1.60406e-06
2.039e-06
1.9891e-06
3.26918e-06
5.34572e-06
1.60676e-06
1.93948e-06
1.98747e-06
5.23652e-06
5.24697e-06
7.22009e-06
2.08863e-06
2.28969e-06
2.62219e-06
2.69116e-06
5.6383e-06
7.32913e-06
2.13684e-06
2.33034e-06
2.70966e-06
2.83227e-06
2.106e-06
2.56991e-06
2.63689e-06
5.76152e-06
7.23276e-06
2.10768e-06
2.62695e-06
2.63813e-06
7.0233e-06
7.73742e-06
9.60955e-06
2.79188e-06
2.90794e-06
3.36027e-06
3.41105e-06
7.61218e-06
9.49903e-06
2.90373e-06
2.8886e-06
3.44146e-06
3.34852e-06
2.78388e-06
3.26318e-06
3.18723e-06
7.63535e-06
9.14875e-06
2.77489e-06
3.23754e-06
3.17798e-06
9.42492e-06
1.00153e-05
1.18335e-05
3.55114e-06
3.56244e-06
4.11569e-06
4.41099e-06
1.00769e-05
1.19744e-05
3.59126e-06
3.6482e-06
4.11006e-06
4.30283e-06
3.45458e-06
4.28613e-06
4.45523e-06
9.60547e-06
1.21207e-05
3.45133e-06
4.17666e-06
4.47054e-06
1.25769e-05
1.23486e-05
1.43811e-05
4.38767e-06
4.64831e-06
5.17569e-06
5.16241e-06
1.25088e-05
1.47083e-05
4.38082e-06
4.45058e-06
5.13479e-06
5.12635e-06
4.59008e-06
5.14395e-06
4.72624e-06
1.25756e-05
1.40734e-05
4.60926e-06
4.95124e-06
4.73222e-06
1.33318e-05
1.48527e-05
1.68123e-05
5.33445e-06
5.44228e-06
6.20277e-06
6.25053e-06
1.50524e-05
1.65081e-05
5.29864e-06
5.42308e-06
6.16189e-06
6.6982e-06
4.91931e-06
6.14133e-06
6.61957e-06
1.4614e-05
1.74022e-05
4.90149e-06
6.50838e-06
6.58934e-06
1.7694e-05
1.73306e-05
1.9271e-05
6.64151e-06
6.4564e-06
7.58586e-06
7.53482e-06
1.70907e-05
1.91359e-05
6.6265e-06
7.05562e-06
7.57453e-06
7.44283e-06
7.01344e-06
7.50334e-06
7.54058e-06
1.79889e-05
1.88994e-05
7.01472e-06
7.22168e-06
7.53379e-06
1.94019e-05
1.96983e-05
2.07643e-05
7.75271e-06
8.01408e-06
8.54798e-06
8.8995e-06
1.9658e-05
2.13726e-05
7.69892e-06
7.59909e-06
8.48773e-06
8.70803e-06
7.62609e-06
9.05794e-06
8.49334e-06
1.9148e-05
2.0781e-05
7.60823e-06
8.62769e-06
8.45417e-06
2.05306e-05
2.12118e-05
2.32293e-05
9.02282e-06
8.99549e-06
1.0418e-05
9.96638e-06
2.16722e-05
2.25366e-05
9.00278e-06
9.19215e-06
1.03732e-05
1.05597e-05
9.03125e-06
9.91228e-06
1.03276e-05
2.13964e-05
2.33004e-05
8.98035e-06
1.04133e-05
1.03649e-05
2.31916e-05
2.3672e-05
2.46368e-05
1.07495e-05
1.05082e-05
1.17145e-05
1.18386e-05
2.29836e-05
2.48612e-05
1.0699e-05
1.08998e-05
1.17634e-05
1.17116e-05
1.06298e-05
1.18025e-05
1.16852e-05
2.36362e-05
2.44429e-05
1.06964e-05
1.15539e-05
1.16439e-05
2.45653e-05
2.49595e-05
2.61506e-05
1.21482e-05
1.22727e-05
1.3335e-05
1.35328e-05
2.5276e-05
2.62265e-05
1.20808e-05
1.20244e-05
1.32826e-05
1.33317e-05
1.20466e-05
1.35141e-05
1.34191e-05
2.47666e-05
2.61776e-05
1.1982e-05
1.33203e-05
1.3411e-05
2.61492e-05
2.65313e-05
2.76662e-05
1.36974e-05
1.38612e-05
1.51937e-05
1.48557e-05
2.65214e-05
2.74333e-05
1.37587e-05
1.38208e-05
1.50386e-05
1.51988e-05
1.38537e-05
1.48804e-05
1.49545e-05
2.65961e-05
2.76787e-05
1.38499e-05
1.50857e-05
1.4914e-05
2.76192e-05
2.80094e-05
2.89413e-05
1.56192e-05
1.52459e-05
1.67458e-05
1.69059e-05
2.78028e-05
2.91338e-05
1.54994e-05
1.56248e-05
1.68542e-05
1.68262e-05
1.54732e-05
1.69634e-05
1.70339e-05
2.79895e-05
2.88888e-05
1.54374e-05
1.67622e-05
1.70774e-05
2.91003e-05
2.92391e-05
3.01935e-05
1.72882e-05
1.759e-05
1.85436e-05
1.8642e-05
2.94624e-05
3.00568e-05
1.72505e-05
1.72201e-05
1.8521e-05
1.84879e-05
1.74715e-05
1.85816e-05
1.85059e-05
2.91813e-05
3.01086e-05
1.74901e-05
1.84739e-05
1.8326e-05
3.00811e-05
3.05035e-05
3.15322e-05
1.88959e-05
1.87669e-05
2.0634e-05
1.99126e-05
3.02571e-05
3.12676e-05
1.89365e-05
1.89055e-05
2.06909e-05
2.0669e-05
1.88582e-05
1.99356e-05
2.03478e-05
3.04376e-05
3.15518e-05
1.87034e-05
2.05812e-05
2.04979e-05
3.14308e-05
3.18312e-05
3.24449e-05
2.12681e-05
2.06397e-05
2.20819e-05
2.30005e-05
3.17079e-05
3.30146e-05
2.12957e-05
2.1262e-05
2.19631e-05
2.20995e-05
2.09102e-05
2.30083e-05
2.24136e-05
3.18627e-05
3.25066e-05
2.11303e-05
2.21787e-05
2.2565e-05
3.27276e-05
3.26541e-05
3.37374e-05
2.22645e-05
2.34287e-05
2.40475e-05
2.37929e-05
3.32142e-05
3.34761e-05
2.21518e-05
2.24101e-05
2.39364e-05
2.38582e-05
2.27797e-05
2.36853e-05
2.40504e-05
3.27076e-05
3.36054e-05
2.28337e-05
2.38029e-05
2.39027e-05
3.37052e-05
3.4126e-05
3.49881e-05
2.47854e-05
2.40019e-05
2.61331e-05
2.56217e-05
3.36619e-05
3.47567e-05
2.46292e-05
2.43308e-05
2.6076e-05
2.60803e-05
2.4613e-05
2.56261e-05
2.56701e-05
3.3945e-05
3.4995e-05
2.44918e-05
2.60543e-05
2.57094e-05
3.45933e-05
3.51545e-05
3.58239e-05
2.63042e-05
2.60404e-05
2.70347e-05
2.72949e-05
3.50202e-05
3.58097e-05
2.64462e-05
2.66395e-05
2.77948e-05
2.72707e-05
2.58205e-05
2.72815e-05
2.71776e-05
3.5231e-05
3.56927e-05
2.58852e-05
2.7222e-05
2.72384e-05
3.59596e-05
3.61339e-05
3.73189e-05
2.75965e-05
2.78512e-05
2.96802e-05
2.98292e-05
3.6156e-05
3.7549e-05
2.82068e-05
2.74518e-05
2.91697e-05
2.91669e-05
2.80045e-05
2.98946e-05
3.00406e-05
3.58638e-05
3.71729e-05
2.80375e-05
2.9203e-05
2.99813e-05
3.77118e-05
3.75805e-05
3.81426e-05
3.03211e-05
3.03992e-05
3.13935e-05
3.09559e-05
3.7773e-05
3.78564e-05
2.9636e-05
2.98606e-05
3.10958e-05
3.15326e-05
3.0487e-05
3.08004e-05
3.10968e-05
3.75739e-05
3.84354e-05
3.04181e-05
3.15676e-05
3.10904e-05
3.78428e-05
3.82235e-05
3.84782e-05
3.14132e-05
3.09529e-05
3.13857e-05
3.14918e-05
3.78817e-05
3.87937e-05
3.12758e-05
3.17733e-05
3.16976e-05
3.18231e-05
3.10858e-05
3.1421e-05
3.10669e-05
3.85277e-05
3.84602e-05
3.10882e-05
3.18109e-05
3.10663e-05
3.81452e-05
3.87778e-05
4.07818e-05
3.15532e-05
3.24445e-05
3.4358e-05
3.45693e-05
3.93614e-05
4.09166e-05
3.22288e-05
3.18371e-05
3.43641e-05
3.37411e-05
3.1384e-05
3.47721e-05
3.48356e-05
3.8563e-05
4.0416e-05
3.1329e-05
3.37301e-05
3.46444e-05
4.12446e-05
4.10878e-05
4.14235e-05
3.501e-05
3.49832e-05
3.59594e-05
3.54965e-05
4.10486e-05
4.10389e-05
3.49287e-05
3.47146e-05
3.58894e-05
3.62951e-05
3.54379e-05
3.56123e-05
3.59952e-05
4.09488e-05
4.18397e-05
3.53014e-05
3.62328e-05
3.60817e-05
4.14964e-05
4.14537e-05
4.12364e-05
3.60472e-05
3.55105e-05
3.60357e-05
3.56506e-05
4.10608e-05
4.12628e-05
3.59261e-05
3.64436e-05
3.57881e-05
3.63701e-05
3.59953e-05
3.557e-05
3.5998e-05
4.18929e-05
4.15263e-05
3.61252e-05
3.62757e-05
3.61038e-05
4.14703e-05
4.1308e-05
4.3136e-05
3.60476e-05
3.60142e-05
3.76521e-05
3.79781e-05
4.15691e-05
4.34956e-05
3.57868e-05
3.63095e-05
3.74099e-05
3.68085e-05
3.60792e-05
3.82704e-05
3.79892e-05
4.15382e-05
4.26409e-05
3.61104e-05
3.69113e-05
3.73577e-05
4.31385e-05
4.36519e-05
4.46254e-05
3.84704e-05
3.84825e-05
3.97994e-05
3.92297e-05
4.37446e-05
4.38764e-05
3.8371e-05
3.782e-05
3.99789e-05
3.98509e-05
3.85426e-05
3.94095e-05
3.93007e-05
4.32501e-05
4.45963e-05
3.81181e-05
3.98611e-05
3.94661e-05
4.3967e-05
4.47097e-05
4.45826e-05
3.99971e-05
3.92599e-05
4.01092e-05
3.93792e-05
4.38839e-05
4.38961e-05
4.02204e-05
4.01245e-05
4.0437e-05
4.0264e-05
3.9387e-05
3.94243e-05
3.94222e-05
4.46703e-05
4.4403e-05
3.96253e-05
3.99937e-05
3.96512e-05
4.39353e-05
4.45944e-05
4.47434e-05
4.0074e-05
3.96914e-05
4.0229e-05
4.17375e-05
4.41641e-05
4.61333e-05
4.04247e-05
4.0257e-05
4.03727e-05
4.06177e-05
3.94417e-05
4.11886e-05
4.08568e-05
4.44135e-05
4.51294e-05
3.96529e-05
4.05064e-05
4.08551e-05
4.55667e-05
4.50085e-05
4.65947e-05
4.07931e-05
4.22476e-05
4.28144e-05
4.31559e-05
4.64701e-05
4.69887e-05
4.04802e-05
4.10699e-05
4.2343e-05
4.21711e-05
4.1706e-05
4.30084e-05
4.33909e-05
4.55279e-05
4.63983e-05
4.16783e-05
4.24868e-05
4.31745e-05
4.72759e-05
4.6862e-05
4.71587e-05
4.31705e-05
4.32616e-05
4.34402e-05
4.33016e-05
4.7017e-05
4.67844e-05
4.28752e-05
4.25935e-05
4.35189e-05
4.36263e-05
4.36521e-05
4.32921e-05
4.38856e-05
4.65544e-05
4.73015e-05
4.33588e-05
4.35691e-05
4.34148e-05
4.71865e-05
4.71903e-05
4.73244e-05
4.34505e-05
4.33041e-05
4.37238e-05
4.36638e-05
4.68348e-05
4.73882e-05
4.36116e-05
4.37964e-05
4.38894e-05
4.41197e-05
4.38806e-05
4.39181e-05
4.37943e-05
4.74067e-05
4.75033e-05
4.33413e-05
4.38068e-05
4.32943e-05
4.70219e-05
4.74156e-05
4.80555e-05
4.38174e-05
4.37862e-05
4.45526e-05
4.43711e-05
4.74679e-05
4.78102e-05
4.39467e-05
4.41984e-05
4.45826e-05
4.45226e-05
4.38074e-05
4.41961e-05
4.45191e-05
4.7567e-05
4.8035e-05
4.34916e-05
4.47094e-05
4.50488e-05
4.82709e-05
4.83806e-05
4.97261e-05
4.50354e-05
4.48505e-05
4.65351e-05
4.64185e-05
4.81059e-05
4.95346e-05
4.50461e-05
4.48161e-05
4.65284e-05
4.61974e-05
4.47866e-05
4.62372e-05
4.57601e-05
4.82317e-05
4.94155e-05
4.5267e-05
4.62132e-05
4.57923e-05
4.8956e-05
4.98944e-05
4.99571e-05
4.68734e-05
4.67309e-05
4.72048e-05
4.71941e-05
4.97289e-05
5.0083e-05
4.68411e-05
4.66267e-05
4.71278e-05
4.73944e-05
4.61989e-05
4.7161e-05
4.74768e-05
4.96896e-05
5.0209e-05
4.61361e-05
4.73312e-05
4.73211e-05
5.04104e-05
4.99722e-05
5.01729e-05
4.7215e-05
4.73371e-05
4.74975e-05
4.78313e-05
5.0205e-05
5.05323e-05
4.71574e-05
4.74653e-05
4.75185e-05
4.73633e-05
4.77705e-05
4.79661e-05
4.80989e-05
5.02298e-05
4.97319e-05
4.75914e-05
4.72664e-05
4.78761e-05
5.06192e-05
5.02592e-05
5.03222e-05
4.76758e-05
4.7895e-05
4.77877e-05
4.78337e-05
5.05644e-05
5.03257e-05
4.75658e-05
4.73036e-05
4.76519e-05
4.76945e-05
4.80982e-05
4.80611e-05
4.78862e-05
4.97187e-05
5.07243e-05
4.78681e-05
4.77519e-05
4.76341e-05
5.00537e-05
5.0447e-05
5.1911e-05
4.78427e-05
4.78169e-05
4.90686e-05
4.85078e-05
5.03351e-05
5.11594e-05
4.78527e-05
4.84525e-05
4.94436e-05
4.99828e-05
4.781e-05
4.81876e-05
4.80046e-05
5.1255e-05
5.27261e-05
4.76242e-05
5.0073e-05
4.87676e-05
5.11961e-05
5.22305e-05
5.26913e-05
4.96217e-05
4.92168e-05
5.05221e-05
5.05374e-05
5.15612e-05
5.28254e-05
4.98672e-05
5.01155e-05
5.03838e-05
5.0024e-05
4.86243e-05
5.03466e-05
5.06576e-05
5.27833e-05
5.19342e-05
4.95526e-05
5.00785e-05
5.08399e-05
5.32521e-05
5.2691e-05
5.22211e-05
5.0573e-05
5.07002e-05
5.0498e-05
5.07738e-05
5.29195e-05
5.2789e-05
5.0392e-05
4.98439e-05
5.02282e-05
4.94768e-05
5.09218e-05
5.0937e-05
5.09585e-05
5.18383e-05
5.11946e-05
5.09274e-05
4.94451e-05
5.06747e-05
5.26052e-05
5.22114e-05
5.22891e-05
5.03925e-05
5.07348e-05
5.02641e-05
5.0525e-05
5.2785e-05
5.25795e-05
5.01263e-05
4.94653e-05
5.00844e-05
5.03924e-05
5.07897e-05
5.07403e-05
5.02261e-05
5.12302e-05
5.27702e-05
5.03426e-05
4.99014e-05
4.9778e-05
5.16914e-05
5.24817e-05
5.40947e-05
5.0304e-05
5.05064e-05
5.16788e-05
5.10621e-05
5.25922e-05
5.32459e-05
5.02811e-05
5.12191e-05
5.2173e-05
5.29664e-05
5.02187e-05
5.09172e-05
5.16049e-05
5.33266e-05
5.52292e-05
4.98162e-05
5.28678e-05
5.21125e-05
5.43804e-05
5.44372e-05
5.52714e-05
5.22429e-05
5.16736e-05
5.33073e-05
5.31616e-05
5.36305e-05
5.51766e-05
5.26789e-05
5.33307e-05
5.34799e-05
5.36087e-05
5.25188e-05
5.32367e-05
5.38076e-05
5.54546e-05
5.52639e-05
5.3002e-05
5.36562e-05
5.40132e-05
5.60719e-05
5.52855e-05
5.39905e-05
5.33824e-05
5.33759e-05
5.3005e-05
5.326e-05
5.52909e-05
5.4423e-05
5.34876e-05
5.34582e-05
5.25818e-05
5.17971e-05
5.37976e-05
5.31895e-05
5.23341e-05
5.50417e-05
5.29025e-05
5.39483e-05
5.18662e-05
5.18683e-05
5.29703e-05
5.38146e-05
5.30842e-05
5.26102e-05
5.28549e-05
5.18291e-05
5.19241e-05
5.41976e-05
5.31838e-05
5.21321e-05
5.13495e-05
5.14236e-05
5.09448e-05
5.16992e-05
5.1815e-05
5.11561e-05
5.27151e-05
5.26954e-05
5.12116e-05
5.11204e-05
5.0848e-05
5.24358e-05
5.31463e-05
5.53924e-05
5.18037e-05
5.19034e-05
5.30047e-05
5.31943e-05
5.32334e-05
5.55648e-05
5.14391e-05
5.11382e-05
5.33777e-05
5.42706e-05
5.13553e-05
5.34423e-05
5.44543e-05
5.31704e-05
5.65938e-05
5.12933e-05
5.45489e-05
5.50158e-05
5.70865e-05
5.58795e-05
5.69654e-05
5.39189e-05
5.40424e-05
5.53634e-05
5.51544e-05
5.59995e-05
5.66124e-05
5.42268e-05
5.50894e-05
5.55503e-05
5.60006e-05
5.51443e-05
5.50766e-05
5.55801e-05
5.70123e-05
5.75707e-05
5.56815e-05
5.59582e-05
5.6062e-05
5.71491e-05
5.69773e-05
5.61919e-05
5.54411e-05
5.51755e-05
5.51626e-05
5.48506e-05
5.65732e-05
5.58929e-05
5.56123e-05
5.59683e-05
5.51927e-05
5.46408e-05
5.54563e-05
5.48212e-05
5.44766e-05
5.74095e-05
5.5397e-05
5.58744e-05
5.45115e-05
5.43164e-05
5.53211e-05
5.6116e-05
5.59968e-05
5.49299e-05
5.47242e-05
5.47387e-05
5.47128e-05
5.58831e-05
5.61351e-05
5.48861e-05
5.42234e-05
5.46225e-05
5.39449e-05
5.43483e-05
5.47392e-05
5.43851e-05
5.52256e-05
5.50873e-05
5.40404e-05
5.37909e-05
5.38951e-05
5.56188e-05
5.6086e-05
5.6491e-05
5.47663e-05
5.48578e-05
5.51475e-05
5.53197e-05
5.62916e-05
5.66593e-05
5.46532e-05
5.40713e-05
5.51607e-05
5.5378e-05
5.46085e-05
5.52984e-05
5.50637e-05
5.53416e-05
5.68106e-05
5.40008e-05
5.5161e-05
5.48163e-05
5.62949e-05
5.64949e-05
5.59112e-05
5.51587e-05
5.53179e-05
5.49141e-05
5.49389e-05
5.66426e-05
5.59464e-05
5.51885e-05
5.55269e-05
5.49669e-05
5.54327e-05
5.50571e-05
5.49803e-05
5.46473e-05
5.69064e-05
5.65583e-05
5.48602e-05
5.54346e-05
5.46671e-05
5.55421e-05
5.58371e-05
5.57926e-05
5.47422e-05
5.47512e-05
5.46131e-05
5.46525e-05
5.58687e-05
5.59372e-05
5.4794e-05
5.52352e-05
5.46228e-05
5.48286e-05
5.44825e-05
5.46799e-05
5.45588e-05
5.64867e-05
5.59398e-05
5.45661e-05
5.5044e-05
5.48349e-05
5.61927e-05
5.60856e-05
5.82704e-05
5.48135e-05
5.49068e-05
5.68336e-05
5.69521e-05
5.62881e-05
5.84259e-05
5.47569e-05
5.4841e-05
5.66839e-05
5.63021e-05
5.51289e-05
5.6938e-05
5.74134e-05
5.59623e-05
5.78592e-05
5.55325e-05
5.64691e-05
5.74474e-05
5.90303e-05
5.85332e-05
5.8917e-05
5.73013e-05
5.73898e-05
5.77661e-05
5.77264e-05
5.86623e-05
5.8791e-05
5.71873e-05
5.6948e-05
5.77697e-05
5.78693e-05
5.78867e-05
5.77829e-05
5.82603e-05
5.82059e-05
5.90771e-05
5.78693e-05
5.78845e-05
5.82161e-05
5.93729e-05
5.87998e-05
5.71152e-05
5.7715e-05
5.76069e-05
5.64053e-05
5.60544e-05
5.85674e-05
5.66294e-05
5.77453e-05
5.78745e-05
5.65863e-05
5.68102e-05
5.81e-05
5.60541e-05
5.59608e-05
5.90732e-05
5.73326e-05
5.80695e-05
5.66886e-05
5.60015e-05
5.64367e-05
5.69484e-05
5.65236e-05
5.60197e-05
5.56737e-05
5.55684e-05
5.53616e-05
5.64556e-05
5.63004e-05
5.61685e-05
5.62669e-05
5.55879e-05
5.54447e-05
5.54298e-05
5.52707e-05
5.49335e-05
5.70869e-05
5.62887e-05
5.54705e-05
5.53203e-05
5.49195e-05
5.57852e-05
5.66038e-05
5.76661e-05
5.55849e-05
5.54744e-05
5.65044e-05
5.70656e-05
5.65846e-05
5.84754e-05
5.5582e-05
5.54223e-05
5.62622e-05
5.61184e-05
5.50235e-05
5.70954e-05
5.68007e-05
5.63114e-05
5.75465e-05
5.4979e-05
5.61981e-05
5.66216e-05
5.81491e-05
5.78638e-05
5.82823e-05
5.68456e-05
5.74345e-05
5.73544e-05
5.76814e-05
5.86699e-05
5.86435e-05
5.66539e-05
5.65894e-05
5.73258e-05
5.73488e-05
5.723e-05
5.77375e-05
5.75062e-05
5.77954e-05
5.83152e-05
5.70805e-05
5.73631e-05
5.74352e-05
5.8382e-05
5.83078e-05
5.83236e-05
5.73823e-05
5.76029e-05
5.73351e-05
5.69144e-05
5.85235e-05
5.76468e-05
5.73958e-05
5.74007e-05
5.74056e-05
5.73584e-05
5.74264e-05
5.68253e-05
5.686e-05
5.83282e-05
5.82258e-05
5.73923e-05
5.72995e-05
5.69825e-05
5.7679e-05
5.83486e-05
5.84761e-05
5.73186e-05
5.68206e-05
5.73558e-05
5.68697e-05
5.76263e-05
5.79449e-05
5.73929e-05
5.73385e-05
5.74181e-05
5.73959e-05
5.68368e-05
5.68118e-05
5.72653e-05
5.82361e-05
5.84833e-05
5.69695e-05
5.7409e-05
5.73901e-05
5.85641e-05
5.85027e-05
5.80903e-05
5.73753e-05
5.70344e-05
5.72541e-05
5.72478e-05
5.80906e-05
5.8343e-05
5.74312e-05
5.74701e-05
5.72716e-05
5.75353e-05
5.75438e-05
5.73717e-05
5.78198e-05
5.85656e-05
5.86655e-05
5.76369e-05
5.76728e-05
5.78776e-05
5.90413e-05
5.79849e-05
5.71798e-05
5.70334e-05
5.72351e-05
5.64397e-05
5.6837e-05
5.83291e-05
5.77168e-05
5.70354e-05
5.74774e-05
5.64035e-05
5.66053e-05
5.77649e-05
5.69188e-05
5.66104e-05
5.85959e-05
5.741e-05
5.78113e-05
5.66581e-05
5.65375e-05
5.72008e-05
5.71496e-05
5.78294e-05
5.63646e-05
5.67376e-05
5.66167e-05
5.67623e-05
5.76759e-05
5.78571e-05
5.63019e-05
5.63538e-05
5.64438e-05
5.60362e-05
5.627e-05
5.66521e-05
5.59631e-05
5.72797e-05
5.68279e-05
5.61674e-05
5.58722e-05
5.58044e-05
5.67188e-05
5.81125e-05
5.90413e-05
5.70254e-05
5.69621e-05
5.77779e-05
5.75171e-05
5.80309e-05
5.86644e-05
5.68439e-05
5.60758e-05
5.77536e-05
5.73133e-05
5.60594e-05
5.74427e-05
5.75254e-05
5.69029e-05
5.85399e-05
5.58911e-05
5.72281e-05
5.75187e-05
5.89273e-05
5.9077e-05
5.82251e-05
5.78203e-05
5.75519e-05
5.7376e-05
5.72681e-05
5.86896e-05
5.81514e-05
5.78437e-05
5.76941e-05
5.76385e-05
5.82186e-05
5.78828e-05
5.74927e-05
5.81514e-05
5.87896e-05
5.94988e-05
5.79495e-05
5.84407e-05
5.83567e-05
5.93921e-05
5.8044e-05
5.72325e-05
5.70003e-05
5.70091e-05
5.63638e-05
5.655e-05
5.80541e-05
5.75749e-05
5.72834e-05
5.82296e-05
5.64904e-05
5.74546e-05
5.80866e-05
5.66696e-05
5.69002e-05
5.95316e-05
5.83885e-05
5.83253e-05
5.77263e-05
5.70997e-05
5.77507e-05
5.72385e-05
5.80046e-05
5.63499e-05
5.65324e-05
5.67958e-05
5.6702e-05
5.75821e-05
5.78351e-05
5.6427e-05
5.69465e-05
5.65847e-05
5.59263e-05
5.65757e-05
5.65325e-05
5.6024e-05
5.81296e-05
5.67716e-05
5.66578e-05
5.57349e-05
5.58325e-05
5.69689e-05
5.81919e-05
5.86379e-05
5.70737e-05
5.68401e-05
5.7371e-05
5.69486e-05
5.79097e-05
5.79855e-05
5.68054e-05
5.5798e-05
5.70518e-05
5.56793e-05
5.59848e-05
5.66324e-05
5.59983e-05
5.66999e-05
5.65423e-05
5.5735e-05
5.53167e-05
5.56568e-05
5.70604e-05
5.86109e-05
5.69444e-05
5.73355e-05
5.69137e-05
5.60071e-05
5.61303e-05
5.79442e-05
5.72249e-05
5.7028e-05
5.57108e-05
5.60638e-05
5.61993e-05
5.60878e-05
5.62772e-05
5.64259e-05
5.66229e-05
5.74424e-05
5.57224e-05
5.63163e-05
5.64905e-05
5.76268e-05
5.67112e-05
5.4743e-05
5.50301e-05
5.71233e-05
5.48739e-05
5.54174e-05
4.61603e-05
4.63193e-05
4.64288e-05
5.55501e-05
5.7542e-05
5.56764e-05
8.03336e-08
2.39627e-07
5.74166e-08
7.36157e-08
2.88017e-07
2.77135e-07
1.35482e-07
1.33394e-07
2.68183e-07
3.31397e-07
1.84029e-07
3.93033e-07
3.6162e-07
2.18541e-07
4.32387e-07
3.06999e-07
4.85549e-06
2.6888e-07
6.48586e-06
1.32469e-05
2.05977e-05
3.60566e-07
5.14879e-06
3.21137e-07
6.86997e-06
1.6148e-07
1.88002e-07
1.80233e-07
1.63742e-07
1.61614e-07
1.88861e-07
1.80525e-07
2.69168e-07
5.09948e-07
2.2383e-07
2.51687e-07
2.75396e-07
4.96123e-07
2.2298e-07
1.36396e-05
2.09586e-05
2.49339e-07
3.32768e-07
6.82447e-07
3.53413e-07
2.54996e-07
3.32788e-07
6.59977e-07
1.83022e-06
1.88489e-06
3.47342e-07
1.80796e-06
1.85245e-06
4.93858e-07
9.58679e-06
4.10537e-07
1.21934e-05
3.56326e-05
4.55237e-05
5.53507e-07
1.00652e-05
4.64517e-07
1.29019e-05
1.60698e-07
1.88171e-07
1.79479e-07
1.59825e-07