/*--------------------------------*- C++ -*----------------------------------*\
| =========                 |                                                 |
| \\      /  F ield         | OpenFOAM: The Open Source CFD Toolbox           |
|  \\    /   O peration     | Version:  v2012                                 |
|   \\  /    A nd           | Website:  www.openfoam.com                      |
|    \\/     M anipulation  |                                                 |
\*---------------------------------------------------------------------------*/
FoamFile
{
    version     2.0;
    format      ascii;
    class       volScalarField;
    location    "1125";
    object      nut;
}
// * * * * * * * * * * * * * * * * * * * * * * * * * * * * * * * * * * * * * //

dimensions      [0 2 -1 0 0 0 0];


internalField   nonuniform List<scalar> 
171728
(
1.70798e-06
1.62689e-06
1.68628e-06
2.31765e-06
1.70991e-06
1.59714e-06
1.63776e-06
2.30383e-06
1.70025e-06
1.57565e-06
1.59471e-06
2.30338e-06
1.68902e-06
1.56086e-06
1.57997e-06
2.26945e-06
1.68069e-06
1.55892e-06
1.5648e-06
2.26975e-06
1.67492e-06
1.55898e-06
1.80741e-06
2.30726e-06
1.67074e-06
1.55545e-06
2.32797e-06
2.12934e-06
1.66016e-06
1.53173e-06
4.27244e-06
1.85603e-06
1.65167e-06
1.49919e-06
8.44706e-06
1.75595e-06
1.66584e-06
1.46615e-06
1.17084e-05
1.69714e-06
1.66787e-06
1.41946e-06
9.78338e-06
1.77327e-06
1.68693e-06
1.37185e-06
4.64419e-06
2.00879e-06
1.68665e-06
1.32375e-06
2.47973e-06
2.36336e-06
1.69688e-06
1.27511e-06
1.67339e-06
2.57804e-06
1.75344e-06
1.22046e-06
1.28541e-06
2.43734e-06
1.80585e-06
1.15118e-06
1.09902e-06
1.71967e-06
1.82308e-06
1.09655e-06
1.01781e-06
1.49662e-06
1.81505e-06
1.05196e-06
9.6112e-07
1.56249e-06
1.83321e-06
1.07182e-06
9.47166e-07
1.7119e-06
1.83262e-06
1.11988e-06
1.02721e-06
1.76402e-06
1.71802e-06
1.31386e-06
1.23479e-06
2.00813e-06
1.58401e-06
1.60869e-06
1.59088e-06
2.24395e-06
1.50545e-06
2.18798e-06
2.21707e-06
3.77675e-06
1.46309e-06
2.74896e-06
2.48602e-06
5.3402e-06
1.42113e-06
4.10109e-06
4.27309e-06
7.80631e-06
1.23274e-06
4.93173e-06
4.8448e-06
1.24383e-05
1.05585e-06
7.30868e-06
6.85838e-06
1.82422e-05
1.01057e-06
9.29556e-06
8.98797e-06
2.26022e-05
1.00422e-06
1.10308e-05
1.15862e-05
2.9827e-05
1.01523e-06
1.52892e-05
1.45454e-05
4.34529e-05
1.08196e-06
1.85411e-05
1.69299e-05
3.68358e-05
1.39388e-06
2.06346e-05
2.4561e-05
5.86076e-05
1.63391e-06
2.8044e-05
2.41214e-05
5.94018e-05
1.89577e-06
3.14955e-05
3.0859e-05
6.1731e-05
2.71112e-06
3.47643e-05
3.71689e-05
7.07539e-05
3.36885e-06
4.18539e-05
3.99462e-05
7.39274e-05
4.13749e-06
4.75908e-05
4.69777e-05
7.88485e-05
5.74073e-06
5.13405e-05
5.31079e-05
8.33533e-05
7.03519e-06
6.09896e-05
5.82803e-05
8.84755e-05
8.49729e-06
6.31791e-05
6.34202e-05
9.06563e-05
1.21748e-05
6.88182e-05
7.32688e-05
9.58677e-05
1.32389e-05
8.19792e-05
7.59406e-05
0.000100086
1.62909e-05
8.03442e-05
8.14746e-05
0.000103572
2.19411e-05
8.7435e-05
9.18437e-05
0.000104693
2.37689e-05
9.3282e-05
9.10112e-05
0.00011139
2.92201e-05
0.000106434
0.000101648
0.000118745
3.93019e-05
0.000103558
0.000111198
0.000116207
3.3947e-05
0.000108076
0.000104819
0.000115754
4.44551e-05
0.000123403
0.000118222
0.000132022
6.17611e-05
0.00012278
0.000128272
0.00013054
5.71963e-05
0.000118159
0.000121967
0.000128345
5.06042e-05
0.000135412
0.000128621
0.000137542
8.22052e-05
0.000137262
0.0001414
0.000139392
8.98797e-05
0.000133169
0.000136835
0.000136095
7.96046e-05
0.000145304
0.000141352
0.000145541
8.79828e-05
0.000152644
0.000149552
0.000152981
0.000104907
0.000152405
0.000153962
0.000151288
0.00010834
0.000153705
0.000153221
0.000149137
0.000105612
0.000154855
0.000156956
0.000154606
0.000121502
0.000165155
0.00016571
0.000157066
0.000134053
0.000169572
0.000171041
0.000165182
0.000133808
0.000173734
0.0001663
0.000165625
0.000134003
0.000170964
0.00017263
0.000159315
0.000141808
0.000171952
0.000185137
0.000166449
0.00015754
0.000185216
0.000182732
0.000177971
0.000162166
0.000187316
0.000175367
0.000173153
0.000155465
0.000182795
0.000180796
0.000163478
0.000161951
0.000185894
0.000199181
0.000181612
0.000184915
0.000201025
0.000204524
0.000194245
0.000188684
0.000197275
0.000187504
0.000171298
0.000174936
0.000185906
0.000180878
0.000167103
0.000171772
0.000200978
0.000207926
0.000194866
0.000202392
0.000209024
0.000217063
0.000194878
0.000210726
0.000205926
0.00020336
0.000183752
0.000206445
0.000206411
0.000198727
0.000186528
0.00020745
0.000211028
0.000210672
0.000190583
0.000206711
0.000206762
0.000211183
0.000183192
0.000201019
0.00020295
0.000204862
0.000186074
0.000220733
0.000221444
0.000217962
0.000203523
0.000236366
0.000228861
0.00022944
0.000208174
0.000232119
0.000213624
0.000218319
0.000189856
0.000221421
0.000207783
0.000209028
0.000185008
0.000221902
0.000224149
0.00021787
0.000199815
0.000236037
0.000227964
0.000224464
0.000200543
0.000241018
0.000220508
0.000223774
0.000195044
0.000242488
0.000222623
0.000226073
0.000202165
0.000242521
0.000227286
0.000230679
0.000207148
0.000237123
0.000223038
0.000221765
0.000194732
0.000237359
0.000221981
0.000214683
0.000190656
0.000250587
0.00022971
0.000227615
0.000205
0.000252802
0.000230006
0.000238963
0.000209673
0.000245855
0.000225209
0.000232243
0.000200539
0.000248258
0.000225987
0.000220251
0.000196079
0.000255622
0.000227837
0.00021674
0.000196185
0.000250988
0.000227531
0.000227745
0.000204305
2.26461e-06
2.13998e-06
2.12828e-06
2.21698e-06
2.29058e-06
2.18572e-06
1.70258e-06
1.67583e-06
1.81349e-06
1.62724e-06
1.96346e-06
2.24124e-06
2.2666e-06
1.84363e-06
2.06875e-06
2.32374e-06
2.25915e-06
2.2084e-06
1.721e-06
1.65614e-06
1.68872e-06
1.65899e-06
2.21398e-06
2.15958e-06
1.96579e-06
1.84266e-06
1.93808e-06
1.82497e-06
1.99974e-06
1.60245e-06
2.14897e-06
2.26929e-06
2.20333e-06
2.30943e-06
1.65072e-06
2.24578e-06
2.30538e-06
2.20581e-06
2.15784e-06
1.68178e-06
1.66416e-06
1.66978e-06
1.6846e-06
2.15738e-06
2.10789e-06
1.92869e-06
1.8176e-06
1.90369e-06
1.79687e-06
2.18799e-06
1.58073e-06
2.30645e-06
2.21854e-06
2.12011e-06
2.23458e-06
1.60161e-06
2.12945e-06
2.30809e-06
2.15555e-06
2.11562e-06
1.66708e-06
1.69174e-06
1.65599e-06
1.70923e-06
2.10636e-06
2.07235e-06
1.89528e-06
1.79034e-06
1.86497e-06
1.77517e-06
2.35949e-06
1.56318e-06
2.5099e-06
2.12864e-06
2.01667e-06
2.07476e-06
1.58335e-06
2.0654e-06
2.27716e-06
2.11359e-06
2.08281e-06
1.64903e-06
1.71351e-06
1.6269e-06
1.72162e-06
2.07115e-06
2.04419e-06
1.85336e-06
1.76951e-06
1.82469e-06
1.75358e-06
2.54785e-06
1.55784e-06
2.60112e-06
2.01302e-06
1.90928e-06
2.08933e-06
1.56744e-06
2.18744e-06
2.25356e-06
2.08097e-06
2.06776e-06
1.61818e-06
1.7229e-06
1.58322e-06
1.72597e-06
2.04344e-06
2.02284e-06
1.81616e-06
1.74791e-06
1.79801e-06
1.72786e-06
2.57979e-06
1.5586e-06
2.35393e-06
1.8987e-06
1.88619e-06
2.21875e-06
1.70782e-06
2.46159e-06
2.32363e-06
2.06701e-06
2.07457e-06
1.56922e-06
1.72648e-06
1.51818e-06
1.73092e-06
2.02223e-06
2.00181e-06
1.79962e-06
1.71996e-06
1.82597e-06
1.70097e-06
2.2356e-06
1.55799e-06
1.87692e-06
1.89523e-06
1.97271e-06
2.56579e-06
2.16586e-06
2.66085e-06
2.17454e-06
2.07217e-06
2.06605e-06
1.50217e-06
1.73286e-06
1.45732e-06
1.72445e-06
2.00081e-06
1.97317e-06
1.8362e-06
1.6953e-06
1.83998e-06
1.67678e-06
1.78565e-06
1.53957e-06
1.60899e-06
1.98423e-06
2.4643e-06
2.54305e-06
3.56061e-06
1.99557e-06
1.87851e-06
2.06269e-06
2.03629e-06
1.44299e-06
1.7186e-06
1.39576e-06
1.69519e-06
1.97094e-06
1.92785e-06
1.83283e-06
1.67284e-06
1.7889e-06
1.67061e-06
1.57144e-06
1.50642e-06
1.46868e-06
2.501e-06
3.13391e-06
1.84576e-06
7.31376e-06
1.60273e-06
1.76337e-06
2.03097e-06
1.97062e-06
1.3785e-06
1.68359e-06
1.3262e-06
1.63507e-06
1.9232e-06
1.86166e-06
1.77225e-06
1.67019e-06
1.75033e-06
1.67042e-06
1.4366e-06
1.47462e-06
1.34277e-06
3.15713e-06
3.69833e-06
1.5741e-06
1.11136e-05
1.53822e-06
1.69751e-06
1.96422e-06
1.89042e-06
1.30953e-06
1.61459e-06
1.25498e-06
1.54245e-06
1.8545e-06
1.7768e-06
1.75019e-06
1.66323e-06
1.74282e-06
1.59627e-06
1.31567e-06
1.43151e-06
1.23914e-06
3.69784e-06
3.31065e-06
1.54114e-06
1.16058e-05
1.75133e-06
1.75622e-06
1.88329e-06
1.79576e-06
1.23576e-06
1.51543e-06
1.17511e-06
1.44701e-06
1.76877e-06
1.69091e-06
1.7358e-06
1.56956e-06
1.72127e-06
1.50148e-06
1.21507e-06
1.38209e-06
1.17003e-06
3.02713e-06
2.19308e-06
1.87087e-06
5.60125e-06
2.5128e-06
1.97549e-06
1.78449e-06
1.67366e-06
1.15655e-06
1.42731e-06
1.09314e-06
1.38172e-06
1.68157e-06
1.61074e-06
1.70874e-06
1.48144e-06
1.6291e-06
1.41774e-06
1.15938e-06
1.33338e-06
1.12987e-06
2.14724e-06
1.88897e-06
2.86211e-06
2.83311e-06
4.33743e-06
2.31611e-06
1.65784e-06
1.5322e-06
1.07067e-06
1.36732e-06
1.01206e-06
1.32521e-06
1.5983e-06
1.53099e-06
1.58879e-06
1.39992e-06
1.47242e-06
1.36173e-06
1.1186e-06
1.28514e-06
1.07381e-06
1.86461e-06
1.70121e-06
4.88589e-06
1.81098e-06
6.17899e-06
2.57897e-06
1.51368e-06
1.42361e-06
9.95194e-07
1.31169e-06
9.53576e-07
1.27349e-06
1.51442e-06
1.45013e-06
1.44984e-06
1.35162e-06
1.39215e-06
1.29305e-06
1.0667e-06
1.23436e-06
1.1186e-06
1.67469e-06
1.51304e-06
6.42583e-06
1.36029e-06
6.66355e-06
2.52377e-06
1.40717e-06
1.35767e-06
9.39541e-07
1.25714e-06
9.18248e-07
1.20397e-06
1.42953e-06
1.35373e-06
1.37786e-06
1.26462e-06
1.36377e-06
1.18955e-06
1.15569e-06
1.1689e-06
1.28105e-06
1.48755e-06
1.35934e-06
6.39693e-06
1.12958e-06
3.67395e-06
1.77518e-06
1.34236e-06
1.32486e-06
9.0869e-07
1.18386e-06
8.93828e-07
1.1296e-06
1.32745e-06
1.25691e-06
1.36748e-06
1.169e-06
1.44064e-06
1.1341e-06
1.33734e-06
1.10904e-06
1.68441e-06
1.3294e-06
1.2326e-06
2.94372e-06
1.03759e-06
1.61324e-06
1.52601e-06
1.32045e-06
1.32769e-06
8.88536e-07
1.11068e-06
8.91671e-07
1.07196e-06
1.23552e-06
1.18305e-06
1.47757e-06
1.12343e-06
1.67595e-06
1.0899e-06
1.8523e-06
1.05961e-06
2.56359e-06
1.20796e-06
1.16338e-06
1.3963e-06
9.68002e-07
1.08214e-06
1.53226e-06
1.32457e-06
1.35374e-06
9.05057e-07
1.06973e-06
9.23102e-07
1.07024e-06
1.17027e-06
1.17833e-06
1.74772e-06
1.08365e-06
1.91482e-06
1.25122e-06
2.82045e-06
1.05513e-06
3.39901e-06
1.15826e-06
1.18926e-06
1.04296e-06
9.41807e-07
9.30012e-07
1.68929e-06
1.37162e-06
1.49938e-06
9.52551e-07
1.08646e-06
1.03092e-06
1.13325e-06
1.19542e-06
1.27036e-06
2.01276e-06
1.28671e-06
2.13399e-06
1.56904e-06
3.54012e-06
1.10762e-06
3.64858e-06
1.19602e-06
1.36721e-06
9.13881e-07
1.01662e-06
9.10716e-07
1.77674e-06
1.51182e-06
1.79661e-06
1.06177e-06
1.14658e-06
1.2133e-06
1.29613e-06
1.29076e-06
1.51833e-06
2.14329e-06
1.70413e-06
2.22843e-06
1.93349e-06
3.6012e-06
1.25499e-06
3.27076e-06
1.4182e-06
1.69364e-06
9.34037e-07
1.21603e-06
1.13069e-06
1.99772e-06
1.91157e-06
2.25232e-06
1.28881e-06
1.36232e-06
1.44573e-06
1.60369e-06
1.6318e-06
2.20274e-06
2.30231e-06
2.03111e-06
2.28591e-06
2.52681e-06
2.95705e-06
1.52975e-06
2.29486e-06
1.80065e-06
2.31478e-06
1.13736e-06
1.47869e-06
1.38027e-06
2.00845e-06
2.29305e-06
3.58288e-06
1.53962e-06
1.68097e-06
2.0557e-06
2.07893e-06
2.32825e-06
3.26787e-06
2.24389e-06
2.5727e-06
2.4563e-06
2.92042e-06
2.22653e-06
1.99395e-06
2.47186e-06
2.52369e-06
3.51884e-06
1.5059e-06
2.01486e-06
1.89197e-06
3.58368e-06
3.92205e-06
4.99365e-06
2.11843e-06
2.28072e-06
2.67898e-06
2.81047e-06
3.65198e-06
5.13013e-06
2.52107e-06
3.0629e-06
3.41905e-06
2.94179e-06
2.52953e-06
2.63465e-06
2.81251e-06
3.89096e-06
4.50275e-06
2.00098e-06
2.29255e-06
2.52326e-06
4.75732e-06
5.69003e-06
7.28508e-06
2.92512e-06
2.94729e-06
3.43205e-06
3.84277e-06
5.39119e-06
7.6183e-06
3.81531e-06
3.14378e-06
4.26978e-06
4.80612e-06
3.01677e-06
3.64224e-06
3.58007e-06
4.41795e-06
1.03426e-05
2.79592e-06
4.0899e-06
3.51525e-06
7.43952e-06
7.58618e-06
1.32175e-05
3.79567e-06
4.34625e-06
5.23049e-06
5.08581e-06
8.52552e-06
1.20326e-05
4.57732e-06
4.80533e-06
6.22712e-06
4.2061e-06
3.86081e-06
4.74882e-06
4.69558e-06
1.15949e-05
9.23858e-06
3.82959e-06
4.47571e-06
4.70863e-06
1.16834e-05
1.43691e-05
1.51463e-05
5.51506e-06
5.29138e-06
6.19854e-06
7.09256e-06
1.23796e-05
1.59739e-05
6.39773e-06
4.58823e-06
6.37938e-06
6.79656e-06
5.20303e-06
6.76821e-06
6.47e-06
9.15537e-06
1.72103e-05
5.21741e-06
6.16899e-06
6.46316e-06
1.67202e-05
1.58526e-05
2.24614e-05
6.65885e-06
7.68969e-06
8.59673e-06
8.8749e-06
1.77212e-05
2.34913e-05
6.81949e-06
7.83688e-06
9.00805e-06
9.86526e-06
6.80991e-06
8.36728e-06
8.86256e-06
1.87104e-05
2.32057e-05
6.82939e-06
8.83213e-06
8.88811e-06
2.18462e-05
2.43102e-05
3.03644e-05
9.17849e-06
9.75577e-06
1.12269e-05
1.12401e-05
2.38703e-05
2.92825e-05
9.79084e-06
9.68305e-06
1.17863e-05
1.0874e-05
9.25762e-06
1.05401e-05
9.93118e-06
2.43832e-05
2.76865e-05
9.20569e-06
1.04867e-05
9.85882e-06
2.87769e-05
3.13627e-05
3.61222e-05
1.18444e-05
1.15889e-05
1.35105e-05
1.52156e-05
3.12524e-05
3.64749e-05
1.2159e-05
1.2215e-05
1.35668e-05
1.46236e-05
1.10642e-05
1.45629e-05
1.61976e-05
2.88608e-05
3.79801e-05
1.10188e-05
1.41568e-05
1.63161e-05
4.13234e-05
3.76136e-05
4.35914e-05
1.46007e-05
1.6119e-05
1.75102e-05
1.73184e-05
3.81414e-05
4.5872e-05
1.46614e-05
1.48333e-05
1.73332e-05
1.65624e-05
1.63991e-05
1.73683e-05
1.45101e-05
3.91907e-05
4.1281e-05
1.656e-05
1.58808e-05
1.46009e-05
3.76665e-05
4.47849e-05
5.04018e-05
1.76641e-05
1.83752e-05
2.06002e-05
2.10313e-05
4.64184e-05
4.87789e-05
1.75117e-05
1.75828e-05
2.03919e-05
2.37128e-05
1.47318e-05
2.0381e-05
2.31531e-05
4.27414e-05
5.39485e-05
1.4671e-05
2.29395e-05
2.29547e-05
5.44068e-05
5.19778e-05
5.85625e-05
2.2648e-05
2.13714e-05
2.63484e-05
2.55039e-05
5.05474e-05
5.72044e-05
2.26293e-05
2.54661e-05
2.64401e-05
2.5328e-05
2.51967e-05
2.51288e-05
2.63132e-05
5.62464e-05
5.6958e-05
2.52246e-05
2.41963e-05
2.63332e-05
6.00477e-05
5.96957e-05
6.09126e-05
2.64075e-05
2.78453e-05
2.81036e-05
3.10154e-05
5.89273e-05
6.50201e-05
2.62022e-05
2.52234e-05
2.77878e-05
2.88405e-05
2.57777e-05
3.21162e-05
2.78663e-05
5.68671e-05
6.08109e-05
2.57271e-05
2.86065e-05
2.76208e-05
5.96301e-05
6.20699e-05
6.97229e-05
3.00363e-05
3.04731e-05
3.59598e-05
3.2975e-05
6.5483e-05
6.59399e-05
2.99779e-05
3.08696e-05
3.57235e-05
3.68521e-05
3.02371e-05
3.27776e-05
3.55365e-05
6.29904e-05
7.05452e-05
2.98787e-05
3.62715e-05
3.57815e-05
6.9678e-05
7.11769e-05
7.34249e-05
3.70231e-05
3.52405e-05
3.97331e-05
4.03057e-05
6.71569e-05
7.44341e-05
3.67755e-05
3.80826e-05
4.02827e-05
3.98526e-05
3.63903e-05
4.01398e-05
3.96308e-05
7.13893e-05
7.23952e-05
3.6874e-05
3.89744e-05
3.94362e-05
7.30341e-05
7.41289e-05
7.77138e-05
4.13366e-05
4.2004e-05
4.52028e-05
4.68488e-05
7.5826e-05
7.8503e-05
4.10793e-05
4.05672e-05
4.49502e-05
4.5037e-05
4.07017e-05
4.66972e-05
4.58381e-05
7.30472e-05
7.78677e-05
4.03406e-05
4.51629e-05
4.58352e-05
7.77295e-05
7.88689e-05
8.26854e-05
4.62121e-05
4.77478e-05
5.20781e-05
4.9924e-05
7.91309e-05
8.12655e-05
4.67384e-05
4.69196e-05
5.10539e-05
5.2095e-05
4.73609e-05
5.00274e-05
5.02838e-05
7.92663e-05
8.29145e-05
4.73877e-05
5.15208e-05
5.00396e-05
8.22837e-05
8.37274e-05
8.66161e-05
5.35265e-05
5.09216e-05
5.66826e-05
5.76099e-05
8.23951e-05
8.78724e-05
5.27255e-05
5.3597e-05
5.75358e-05
5.74357e-05
5.22782e-05
5.81326e-05
5.86505e-05
8.37826e-05
8.6468e-05
5.20702e-05
5.71249e-05
5.9116e-05
8.76165e-05
8.74271e-05
9.05463e-05
5.88558e-05
6.10258e-05
6.26874e-05
6.42381e-05
8.9e-05
9.00437e-05
5.87123e-05
5.85938e-05
6.25163e-05
6.231e-05
6.02617e-05
6.37819e-05
6.28079e-05
8.72349e-05
9.00509e-05
6.05745e-05
6.23466e-05
6.14917e-05
9.00915e-05
9.15053e-05
9.54819e-05
6.34197e-05
6.33147e-05
7.06886e-05
6.5266e-05
9.02055e-05
9.33153e-05
6.36957e-05
6.34682e-05
7.12496e-05
7.09249e-05
6.35485e-05
6.54381e-05
6.86313e-05
9.10776e-05
9.55236e-05
6.22702e-05
7.0319e-05
6.9326e-05
9.45355e-05
9.64637e-05
9.7859e-05
7.36991e-05
6.84196e-05
7.46791e-05
8.05328e-05
9.50791e-05
0.000101276
7.41319e-05
7.36508e-05
7.41166e-05
7.49838e-05
7.08702e-05
8.07879e-05
7.66043e-05
9.66022e-05
9.83427e-05
7.21594e-05
7.5592e-05
7.78296e-05
9.94558e-05
9.82383e-05
0.000102319
7.41329e-05
8.22996e-05
8.10782e-05
8.05408e-05
0.000101797
0.000101312
7.35892e-05
7.54503e-05
8.02586e-05
8.01362e-05
7.75888e-05
7.9874e-05
8.18363e-05
9.86998e-05
0.000101628
7.81932e-05
7.98845e-05
8.09203e-05
0.000102659
0.000103874
0.000107166
8.47407e-05
8.03599e-05
9.02042e-05
8.64485e-05
0.000101568
0.000105717
8.33831e-05
8.16996e-05
8.88586e-05
8.94174e-05
8.4329e-05
8.66142e-05
8.70901e-05
0.00010286
0.000107376
8.35109e-05
8.93398e-05
8.73173e-05
0.000104764
0.000107403
0.000109039
8.98792e-05
8.76445e-05
8.94521e-05
9.08628e-05
0.000106493
0.00010873
8.99493e-05
9.20335e-05
9.49544e-05
9.18732e-05
8.62761e-05
9.07675e-05
8.95741e-05
0.000108095
0.000108503
8.67056e-05
9.15294e-05
9.01214e-05
0.000109182
0.000110104
0.000115493
9.13837e-05
9.29631e-05
0.000101383
0.000102899
0.000110018
0.000117027
9.63499e-05
9.12582e-05
9.85955e-05
9.77337e-05
9.34831e-05
0.000103719
0.000104357
0.000108646
0.000114249
9.38785e-05
9.7909e-05
0.000104146
0.000118316
0.000116534
0.000118467
0.000104996
0.000106014
0.000109926
0.000106331
0.000117903
0.000116518
0.00010049
0.00010131
0.000107141
0.000110451
0.000106903
0.000105413
0.000108184
0.000116118
0.000120328
0.000106552
0.000110736
0.000108265
0.000116995
0.00011822
0.000116867
0.00010864
0.000104652
0.000103122
0.000103095
0.000115773
0.000118215
0.000107055
0.000111094
0.000104914
0.00010658
0.000106312
0.000102382
0.000100256
0.000120275
0.000117111
0.000106554
0.00010657
0.000100649
0.000114271
0.000117794
0.000128124
0.000102454
0.000107974
0.000117271
0.000119725
0.000120916
0.000129399
0.000106771
0.000104806
0.000117653
0.000112526
0.000100549
0.00012096
0.000120456
0.000116762
0.000125201
0.000100566
0.000112571
0.000119082
0.000130614
0.000129616
0.000130998
0.000121128
0.000121952
0.000126078
0.000123053
0.000129847
0.000128692
0.000120944
0.000118211
0.00012617
0.000128063
0.000124274
0.000124153
0.000126215
0.000127959
0.000133222
0.000123137
0.000127823
0.00012704
0.000131075
0.000130654
0.000126814
0.000125766
0.000121987
0.000121613
0.000118926
0.00012817
0.000126665
0.000125553
0.000128615
0.000120355
0.000124597
0.000125025
0.00011815
0.00012103
0.000133188
0.000128903
0.000126438
0.000123926
0.000122594
0.000128221
0.000126336
0.000134687
0.000120212
0.000120033
0.000127171
0.000130522
0.000127676
0.000137835
0.00011871
0.000122607
0.000125165
0.000121508
0.000120363
0.00013217
0.000130482
0.000128069
0.000131733
0.000121329
0.000122172
0.000126133
0.000135848
0.000137335
0.000142824
0.000132049
0.000133385
0.000140097
0.000136403
0.000139038
0.000139043
0.000130796
0.000127232
0.000140669
0.000139935
0.000133769
0.000138081
0.000137403
0.00013487
0.000142878
0.000130527
0.000140518
0.000138212
0.000139563
0.000143029
0.000141369
0.000141041
0.000135558
0.000139541
0.000132642
0.000138485
0.000135745
0.00014208
0.000141444
0.000142045
0.000140083
0.000137177
0.000133841
0.000133849
0.000143018
0.000139935
0.000138611
0.000138251
0.000135514
0.000136671
0.000140858
0.000139409
0.00013818
0.000133525
0.000135428
0.000145016
0.000136511
0.000146672
0.000141045
0.000139063
0.000137111
0.000138481
0.000132603
0.000141649
0.000138294
0.000139296
0.000141402
0.000134246
0.000137184
0.000138863
0.000142867
0.000140292
0.000148608
0.000138123
0.000148137
0.000150268
0.000153403
0.000148387
0.000151511
0.000136632
0.000140583
0.000146851
0.000145617
0.000143259
0.000152173
0.000153874
0.000143254
0.000147386
0.000143776
0.00014791
0.000153373
0.000152582
0.000149926
0.000151287
0.000152471
0.000153672
0.000153297
0.000152379
0.000151398
0.000149164
0.000150143
0.000147889
0.000153574
0.000153726
0.000155526
0.000152004
0.000156189
0.000147883
0.000151745
0.000154503
0.000153819
0.000153554
0.000151683
0.000151075
0.000150487
0.000152868
0.000151878
0.000152518
0.000152432
0.000149003
0.000151267
0.000153745
0.000154531
0.000153555
0.000155264
0.000155632
0.000154359
0.000153266
0.000152061
0.000151674
0.000152247
0.000152955
0.000149222
0.000148848
0.000150399
0.000152155
0.000152175
0.000152424
0.000154118
0.000153321
0.000151215
0.000151052
0.000152998
0.000155066
0.000154373
0.000154394
0.000152692
0.000152476
0.000155128
0.000151494
0.000152388
0.00014974
0.000155565
0.000158496
0.000154242
0.000153549
0.000161161
0.000156621
0.000155665
0.000165797
0.000164724
0.000152145
0.000159654
0.000156771
0.000155426
0.000165848
0.000163002
0.000156007
0.00016355
0.000159827
0.000152954
0.000159084
0.00015931
0.000163371
0.00016049
0.000156011
0.000161987
0.000162155
0.000167928
0.000166538
0.000169221
0.00016884
0.000160524
0.000162411
0.000167784
0.000165741
0.000168863
0.000170962
0.000162148
0.000168264
0.000170126
0.00016053
0.000164152
0.000162193
0.000170713
0.000169551
0.000164176
0.000161933
0.000162511
0.000168928
0.000169615
0.000169949
0.000172644
0.000162922
0.000164965
0.000168764
0.000171364
0.000170173
0.000168488
0.000172183
0.000173245
0.000174627
0.000164056
0.000159294
0.000171433
0.000167763
0.000173417
0.00016598
0.000162599
0.00016108
0.000170782
0.000172761
0.000169245
0.000170055
0.000164868
0.00016203
0.000169866
0.000167018
0.000167736
0.000167122
0.000174573
0.000172103
0.000170978
0.000158377
0.000162213
0.000173052
0.000167374
0.000168165
0.000160202
0.000161121
0.000168955
0.000168654
0.00016893
0.000175046
0.000171086
0.000161362
0.000164295
0.000168227
0.000172005
0.000177972
0.000183187
0.000169284
0.00016933
0.000167439
0.000165115
0.000175699
0.000166895
0.000183889
0.000172129
0.000163746
0.000170759
0.000174501
0.00017871
0.0001756
0.000185294
0.000184818
0.00016629
0.000174231
0.00018095
0.000184436
0.000184934
0.000183833
0.000171057
0.000183019
0.00018536
0.000176018
0.000171552
0.000177404
0.000184441
0.00018767
0.000177467
0.000174351
0.000170878
0.000185751
0.00018609
0.000184868
0.000186607
0.000174694
0.000174158
0.000185008
0.000182076
0.000182797
0.000176274
0.00018778
0.000187363
0.00018865
0.000170522
0.00016376
0.000188836
0.000176832
0.000187414
0.000174398
0.000170243
0.00016832
0.000183471
0.000186083
0.000179959
0.000182783
0.000173832
0.000171359
0.000181217
0.000175041
0.000177858
0.000178526
0.000187262
0.000184295
0.000179338
0.00016299
0.000169362
0.000184547
0.000175496
0.000175577
0.000164252
0.000168732
0.000177402
0.000179269
0.000181724
0.000186886
0.000182837
0.000170723
0.000172449
0.000178237
0.000183814
0.000190135
0.00019632
0.000177942
0.000181723
0.000185462
0.000172227
0.000184864
0.000174432
0.000195419
0.000188752
0.000178117
0.000179377
0.000187091
0.000190736
0.000186643
0.00019951
0.000197696
0.000174358
0.000185655
0.000193827
0.00019972
0.000201886
0.000204721
0.000192117
0.000198562
0.000205368
0.000186391
0.00018933
0.000195612
0.000204792
0.000208079
0.000194681
0.000187227
0.000180541
0.000200863
0.00020026
0.000199572
0.000201253
0.000186493
0.000183054
0.0002028
0.000204342
0.000197323
0.000192194
0.000206407
0.000201044
0.00019615
0.000187881
0.000173976
0.000208707
0.000192182
0.000193105
0.000174824
0.000179012
0.000170916
0.000196648
0.000198269
0.000187808
0.000188224
0.000181241
0.000171295
0.000193826
0.000187738
0.000184479
0.000179479
0.000190321
0.000187158
0.00018067
0.000171747
0.000166386
0.000186212
0.000180153
0.000177313
0.000163989
0.000170194
0.000181798
0.000186183
0.000186711
0.00019173
0.000193503
0.000170578
0.000183547
0.0001831
0.000179375
0.000194028
0.000199887
0.000180814
0.000195455
0.000202043
0.00016816
0.000188694
0.00017909
0.000202123
0.000205279
0.000192404
0.000184638
0.000193396
0.000198113
0.000199613
0.000210117
0.00020921
0.000186225
0.000191787
0.000200092
0.00020624
0.000211672
0.000216665
0.000207886
0.000208724
0.000213451
0.000191449
0.000199259
0.000211574
0.000216665
0.000217863
0.000196616
0.000193416
0.000189187
0.000211285
0.000209698
0.000209844
0.00020726
0.000191399
0.000186846
0.000212791
0.00021724
0.000210362
0.000207597
0.000212828
0.000206902
0.000205049
0.000198203
0.000185621
0.000217062
0.000206967
0.000205388
0.000184462
0.000188378
0.000187232
0.000207993
0.000205905
0.000205781
0.000205189
0.000186398
0.000187733
0.000207916
0.000203675
0.000204884
0.000199173
0.000203625
0.00020546
0.000203314
0.000183866
0.000180928
0.000202748
0.00019856
0.000200449
0.00018537
0.00018762
0.000191518
0.000205946
0.000206279
0.000209577
0.000210907
0.000188616
0.000192474
0.000205038
0.000199781
0.000209638
0.000210259
0.000204998
0.00021066
0.000209531
0.000182063
0.000192373
0.000201076
0.000208399
0.000207504
0.000190842
0.000191444
0.000187608
0.000210035
0.000211271
0.000208376
0.000208496
0.000192256
0.000187485
0.000210293
0.000212143
0.000208966
0.000212479
0.000209773
0.000208774
0.000206375
0.000192952
0.000191752
0.000208034
0.00021194
0.000206024
0.000184626
0.000186437
0.000182742
0.000206457
0.000206278
0.000201858
0.000201908
0.000186229
0.00018333
0.000207198
0.00021089
0.000202321
0.000204453
0.000203924
0.000202252
0.000200432
0.000190883
0.00018447
0.000204063
0.000205883
0.000202391
0.000183611
0.00018374
0.000197308
0.000202351
0.000202865
0.000216417
0.000217497
0.00018478
0.000198779
0.000202273
0.000203322
0.000215311
0.000212129
0.000203602
0.000217334
0.000220082
0.000183649
0.000194179
0.000206648
0.000213476
0.000220534
0.000201628
0.000199023
0.000205408
0.000220396
0.000221605
0.00022757
0.000228128
0.000200412
0.00020569
0.000219359
0.00021706
0.000227264
0.000227686
0.000224672
0.000228575
0.000232725
0.000196344
0.000206043
0.000224666
0.000228057
0.000232334
0.000210141
0.000204678
0.000195191
0.000228224
0.000228208
0.000219582
0.000217085
0.000204207
0.000192109
0.000228185
0.000229086
0.00022108
0.000223276
0.000232848
0.000217302
0.00021756
0.000206175
0.000197169
0.000232578
0.000222608
0.000218023
0.000192136
0.000193757
0.000189413
0.000216551
0.000213709
0.000211206
0.000208374
0.000190287
0.000186384
0.000217884
0.000219138
0.000211823
0.000210927
0.000213094
0.000207669
0.000205983
0.000195273
0.000188186
0.000213668
0.000209941
0.000206295
0.000184096
0.000189309
0.000195237
0.000210708
0.000208544
0.000216613
0.000220183
0.000187513
0.000200004
0.000211101
0.000209943
0.000214865
0.00021365
0.000205893
0.000220363
0.000218761
0.000187619
0.000194401
0.000205946
0.000214261
0.000217528
0.00019843
0.000196269
0.000199469
0.000219209
0.000223625
0.000223811
0.00022763
0.000201269
0.000203417
0.000217739
0.000217143
0.000223402
0.000223702
0.000222616
0.000228356
0.000226348
0.000195787
0.000199878
0.00022136
0.000224011
0.000225459
0.000201382
0.000199465
0.000199954
0.000224278
0.000227427
0.000224457
0.000222254
0.000202487
0.000196675
0.000224224
0.000224397
0.000224935
0.000224525
0.000225874
0.000221664
0.000220721
0.000199794
0.000199158
0.000225247
0.000223979
0.000221419
0.00019549
0.000199954
0.000202059
0.000224434
0.000221305
0.000225647
0.000221475
0.000196137
0.000197922
0.000224987
0.000224407
0.000226167
0.000225062
0.000220176
0.000220775
0.000223307
0.000198939
0.000201041
0.000221019
0.000224794
0.000224203
0.000200946
0.000202161
0.000201318
0.000226291
0.000222874
0.000226829
0.000225933
0.000198751
0.000201863
0.000226767
0.000226062
0.000227114
0.000228954
0.000225979
0.000226855
0.000231475
0.000201502
0.000204994
0.000226733
0.000230061
0.00023215
0.000207994
0.000200463
0.000194542
0.00022537
0.000226179
0.000220469
0.000223395
0.000201646
0.000197855
0.000225586
0.000229249
0.000220588
0.000223489
0.000231897
0.000224421
0.000223679
0.000204508
0.000197949
0.000232553
0.000224377
0.000223481
0.000196593
0.000193699
0.000196799
0.000219313
0.000222432
0.000220361
0.000222119
0.000197181
0.000197699
0.000219207
0.000221434
0.000219116
0.000216665
0.000220674
0.000221421
0.000215591
0.000196657
0.000191211
0.000220242
0.000215452
0.000214332
0.000189754
0.000198397
0.000206739
0.000223535
0.000223678
0.000231496
0.000229488
0.0001986
0.000204274
0.000222113
0.000216213
0.000230733
0.0002249
0.000215714
0.000228285
0.000226877
0.000190849
0.000200372
0.000214234
0.000223676
0.000226282
0.000203521
0.000206975
0.000203456
0.000232658
0.00023035
0.000230896
0.000229607
0.000204366
0.000202382
0.000232287
0.000228083
0.00023279
0.00023579
0.000230508
0.000231175
0.000236196
0.000201888
0.000209928
0.000230299
0.000237222
0.000237564
0.000210438
0.000202032
0.000195815
0.000228022
0.000227735
0.000222363
0.000224281
0.00020155
0.00019848
0.000230262
0.000237119
0.000224004
0.00023413
0.000236609
0.000225794
0.000229167
0.00021029
0.000206564
0.000238469
0.000236947
0.000231378
0.000201712
0.000195338
0.000200387
0.000221956
0.000224139
0.000225545
0.000226005
0.000198267
0.000200538
0.000223309
0.000230487
0.000224669
0.000222768
0.000226779
0.000225449
0.00022261
0.000204704
0.000196296
0.000228178
0.000222114
0.000221904
0.00019644
0.000201592
0.000208261
0.000228405
0.000227565
0.000234817
0.000230859
0.000200914
0.000203082
0.000226886
0.000221622
0.000232089
0.000220177
0.000222209
0.000227896
0.000222131
0.000195426
0.000193161
0.000220897
0.000217064
0.000219352
0.000196069
0.000208084
0.000200692
0.000235219
0.000230856
0.000229521
0.000229032
0.000202668
0.000200783
0.000232304
0.000220213
0.000229192
0.000226924
0.000222758
0.000229238
0.000228987
0.000193126
0.000199633
0.00021957
0.000226757
0.000228667
0.000201433
0.000201583
0.000225691
0.00022665
0.000202742
0.000226081
0.000227112
0.000251942
0.000249527
0.000251471
0.000228718
0.000202883
0.000228995
3.79728e-06
2.06751e-06
1.5974e-06
1.70386e-06
1.28877e-06
1.83821e-06
5.84483e-07
1.41897e-06
1.19592e-06
1.76692e-06
2.04263e-06
1.12003e-06
2.32572e-06
1.74032e-06
2.00748e-06
1.16461e-06
1.33535e-05
1.10911e-06
1.50954e-05
1.06441e-05
1.28626e-05
1.34509e-06
1.37478e-05
1.25429e-06
1.55341e-05
1.68476e-06
1.81356e-06
1.6253e-06
1.71193e-06
1.71243e-06
1.84393e-06
1.62648e-06
1.30367e-06
3.19596e-07
1.57026e-06
1.61551e-06
1.28768e-06
4.23431e-07
1.57266e-06
1.08013e-05
1.29708e-05
1.19702e-06
2.10794e-06
4.90351e-07
1.67664e-06
1.18475e-06
2.11524e-06
6.14071e-07
1.44038e-06
1.48821e-06
2.31166e-06
1.64733e-06
1.69113e-06
1.32901e-06
1.83367e-05
1.27406e-06
2.06703e-05
1.69007e-05
1.91041e-05
1.53231e-06
1.87853e-05
1.4502e-06
2.12694e-05
1.71432e-06
1.85068e-06
1.62554e-06