/*--------------------------------*- C++ -*----------------------------------*\
| =========                 |                                                 |
| \\      /  F ield         | OpenFOAM: The Open Source CFD Toolbox           |
|  \\    /   O peration     | Version:  v2012                                 |
|   \\  /    A nd           | Website:  www.openfoam.com                      |
|    \\/     M anipulation  |                                                 |
\*---------------------------------------------------------------------------*/
FoamFile
{
    version     2.0;
    format      ascii;
    class       volScalarField;
    location    "1125";
    object      p;
}
// * * * * * * * * * * * * * * * * * * * * * * * * * * * * * * * * * * * * * //

dimensions      [0 2 -2 0 0 0 0];


internalField   nonuniform List<scalar> 
171728
(
0.00351933
0.00351824
0.00351833
0.00351904
0.00348387
0.0034824
0.00348247
0.00348528
0.0034454
0.00344356
0.00344363
0.00344587
0.00340134
0.00339968
0.00339966
0.00340196
0.00335326
0.00335183
0.0033518
0.00335413
0.00330436
0.00330303
0.00330305
0.00330527
0.00325607
0.00325488
0.00325493
0.00325731
0.00320876
0.00320769
0.00320771
0.00321007
0.00316242
0.0031615
0.00316154
0.00316389
0.00311708
0.00311628
0.00311631
0.00311867
0.00307263
0.00307195
0.00307199
0.00307434
0.00302895
0.00302839
0.00302837
0.00303077
0.00298584
0.0029854
0.00298531
0.00298777
0.00294313
0.0029428
0.00294281
0.00294517
0.0029008
0.00290054
0.00290057
0.00290278
0.00285873
0.00285853
0.0028585
0.00286081
0.00281703
0.00281688
0.0028168
0.00281908
0.00277568
0.00277556
0.00277566
0.00277768
0.00273468
0.00273466
0.00273469
0.0027367
0.00269402
0.00269403
0.00269409
0.00269606
0.00265369
0.00265382
0.00265375
0.00265555
0.00261372
0.00261385
0.00261378
0.00261556
0.00257401
0.00257422
0.00257431
0.0025757
0.0025345
0.00253481
0.00253478
0.00253641
0.00249531
0.00249567
0.00249565
0.00249728
0.00245628
0.0024567
0.0024568
0.0024584
0.00241765
0.00241808
0.00241808
0.00241978
0.00237904
0.00237959
0.00237955
0.00238132
0.00234071
0.00234127
0.0023413
0.00234315
0.00230258
0.00230314
0.00230309
0.00230488
0.00226461
0.00226524
0.00226535
0.00226714
0.00222685
0.0022275
0.0022274
0.00222948
0.00218902
0.00218977
0.00218972
0.00219139
0.00215163
0.00215214
0.00215233
0.00215415
0.00211418
0.00211491
0.00211478
0.00211666
0.0020769
0.00207751
0.00207754
0.00207939
0.00203982
0.00204032
0.00204038
0.00204225
0.0020028
0.00200337
0.0020033
0.0020052
0.00196598
0.0019663
0.00196637
0.00196828
0.00192921
0.00192964
0.00192963
0.00193161
0.00189269
0.00189299
0.00189289
0.00189491
0.00185605
0.00185619
0.00185636
0.00185837
0.00181994
0.00182008
0.00182002
0.00182193
0.00178355
0.00178369
0.00178353
0.00178592
0.00174761
0.00174766
0.00174782
0.00174962
0.00171174
0.00171135
0.00171146
0.00171342
0.00167542
0.00167578
0.0016754
0.00167783
0.00164006
0.00163992
0.00164029
0.00164226
0.00160488
0.00160419
0.00160426
0.00160607
0.00156882
0.00156886
0.00156848
0.0015709
0.00153309
0.00153343
0.00153347
0.00153554
0.00149873
0.00149767
0.00149811
0.00149976
0.00146319
0.00146287
0.00146253
0.00146483
0.00142759
0.00142805
0.0014279
0.00143004
0.00139311
0.00139246
0.00139279
0.0013946
0.00135827
0.00135747
0.00135761
0.00135933
0.00132271
0.00132284
0.00132256
0.00132469
0.00128761
0.00128753
0.00128763
0.00128976
0.00125326
0.00125291
0.00125283
0.00125472
0.00121869
0.00121835
0.00121833
0.00122025
0.0011838
0.00118356
0.00118347
0.00118544
0.00114908
0.00114873
0.00114913
0.0011507
0.00111457
0.00111449
0.00111438
0.0011165
0.00108
0.00107995
0.00107926
0.00108166
0.00104526
0.001045
0.00104515
0.00104678
0.00101108
0.00101078
0.00101148
0.00101287
0.000976965
0.00097669
0.000976864
0.000979039
0.000942466
0.000942299
0.000941563
0.000943749
0.000906958
0.000906752
0.000906387
0.000908137
0.000872405
0.000872507
0.000873264
0.000875091
0.000839074
0.000839388
0.000839711
0.000841683
0.000805044
0.000803911
0.000803549
0.000805349
0.000768874
0.00076882
0.000768304
0.000770417
0.000734795
0.000735252
0.000735361
0.000737395
0.00070105
0.000700872
0.000701405
0.000703105
0.000665689
0.000665469
0.000665507
0.000667491
0.000630222
0.000630374
0.000630026
0.00063232
0.000596833
0.000596741
0.000596696
0.000598417
0.000562933
0.000562455
0.000562636
0.000564284
0.000526973
0.000526741
0.000526716
0.000528674
0.000491335
0.000491757
0.000491564
0.000493863
0.000457172
0.000457539
0.000457481
0.000459605
0.000422705
0.000422027
0.000422343
0.00042399
0.00038704
0.000386684
0.000386775
0.000388645
0.000351921
0.000352214
0.000352014
0.000354202
0.000317246
0.000317314
0.000317233
0.000319198
0.000281678
0.000281523
0.000281469
0.000283377
0.000246165
0.000246125
0.000246087
0.000248207
0.000211137
0.000211091
0.000211436
0.000213383
0.00017568
0.000175547
0.000175643
0.000177494
0.000139985
0.000140007
0.000139605
0.000141652
0.000104332
0.000104314
0.000104065
0.000106254
6.84448e-05
6.83445e-05
6.87033e-05
7.05696e-05
3.31836e-05
3.27668e-05
3.31995e-05
3.48986e-05
5.76555e-06
6.6244e-06
6.58647e-06
4.78673e-06
0.00352372
0.00352123
0.00352121
0.00352367
0.00352131
0.00352136
0.00352767
0.00352765
0.00352768
0.00352768
0.00352121
0.00352137
0.00352382
0.00352144
0.00352146
0.0035238
0.00351897
0.00348999
0.00351827
0.00351824
0.00349182
0.00349183
0.00351893
0.00349
0.00351825
0.00351826
0.00349187
0.00349187
0.00351828
0.00349184
0.00349179
0.00351904
0.00348997
0.00351828
0.00349171
0.00349192
0.00348999
0.00348524
0.00345136
0.00348241
0.00348236
0.00345358
0.00345364
0.00348523
0.00345135
0.0034824
0.00348235
0.00345364
0.0034537
0.00348247
0.0034536
0.00345369
0.00348524
0.00345142
0.00348236
0.00345373
0.00345373
0.00345139
0.00344584
0.00340805
0.00344349
0.00344347
0.00341113
0.00341115
0.00344584
0.00340807
0.00344357
0.00344353
0.00341112
0.00341111
0.00344361
0.00341111
0.00341106
0.00344591
0.0034081
0.00344374
0.00341118
0.00341155
0.00340816
0.00340188
0.00336056
0.0033996
0.00339961
0.00336394
0.00336396
0.00340189
0.00336057
0.00339966
0.00339966
0.00336391
0.00336391
0.00339975
0.00336391
0.00336391
0.00340194
0.00336059
0.00339944
0.003364
0.00336444
0.00336065
0.0033541
0.00331186
0.00335177
0.00335177
0.00331522
0.0033152
0.00335411
0.00331186
0.00335184
0.00335182
0.00331524
0.00331518
0.00335185
0.00331524
0.00331513
0.00335413
0.00331186
0.00335154
0.00331522
0.00331546
0.00331166
0.00330541
0.00326356
0.00330304
0.00330305
0.00326683
0.00326685
0.0033054
0.00326358
0.00330306
0.00330306
0.00326688
0.00326686
0.00330301
0.00326687
0.0032669
0.00330542
0.00326359
0.00330308
0.00326685
0.00326664
0.00326364
0.00325724
0.00321626
0.00325493
0.00325489
0.00321944
0.00321941
0.00325725
0.00321625
0.00325494
0.00325489
0.00321946
0.00321941
0.00325492
0.00321941
0.00321939
0.00325729
0.00321627
0.00325479
0.00321945
0.00321949
0.00321624
0.00321008
0.00316995
0.0032077
0.00320768
0.00317301
0.00317296
0.00321006
0.00316992
0.00320769
0.00320772
0.003173
0.00317298
0.00320768
0.00317297
0.00317298
0.0032101
0.00316993
0.00320775
0.00317297
0.00317299
0.00316993
0.00316389
0.00312459
0.00316148
0.0031615
0.00312755
0.00312749
0.00316387
0.00312456
0.0031615
0.00316152
0.00312756
0.00312752
0.00316149
0.00312751
0.00312751
0.0031639
0.00312454
0.00316151
0.00312753
0.00312748
0.00312456
0.00311866
0.00308011
0.00311627
0.00311629
0.00308298
0.00308296
0.00311864
0.00308011
0.00311627
0.00311628
0.00308301
0.00308296
0.00311632
0.00308297
0.00308298
0.00311865
0.0030801
0.00311632
0.00308304
0.003083
0.00308011
0.00307431
0.00303645
0.00307195
0.00307196
0.00303926
0.00303923
0.00307432
0.00303643
0.00307196
0.00307196
0.00303927
0.00303917
0.00307196
0.00303923
0.00303923
0.00307434
0.00303639
0.00307196
0.00303921
0.00303925
0.00303645
0.00303074
0.0029933
0.00302842
0.00302839
0.00299612
0.00299612
0.00303073
0.00299332
0.00302837
0.00302833
0.0029961
0.00299611
0.0030284
0.00299612
0.00299605
0.00303073
0.00299331
0.00302839
0.00299607
0.00299606
0.00299337
0.00298769
0.00295067
0.00298536
0.00298539
0.00295344
0.00295343
0.00298771
0.00295065
0.00298537
0.00298534
0.00295345
0.0029534
0.00298538
0.00295343
0.0029534
0.00298773
0.00295053
0.00298537
0.00295341
0.00295334
0.00295072
0.0029451
0.00290839
0.00294281
0.0029428
0.0029111
0.00291109
0.00294511
0.00290832
0.00294279
0.0029428
0.00291109
0.00291119
0.00294279
0.0029111
0.00291109
0.00294499
0.00290839
0.0029428
0.00291115
0.00291104
0.00290826
0.00290289
0.00286617
0.00290058
0.00290054
0.00286898
0.002869
0.00290282
0.00286626
0.00290055
0.00290062
0.002869
0.002869
0.00290045
0.00286899
0.00286915
0.00290288
0.00286625
0.00290038
0.002869
0.00286921
0.0028662
0.00286078
0.0028245
0.00285854
0.00285853
0.00282732
0.00282726
0.00286083
0.00282448
0.00285858
0.00285846
0.00282726
0.00282719
0.00285857
0.00282726
0.00282731
0.0028608
0.00282438
0.00285862
0.00282717
0.00282726
0.00282448
0.00281914
0.00278305
0.00281689
0.00281687
0.00278595
0.00278587
0.00281911
0.00278301
0.0028169
0.00281682
0.00278591
0.0027858
0.00281682
0.00278587
0.00278595
0.00281903
0.00278303
0.00281672
0.00278588
0.00278603
0.002783
0.00277778
0.00274203
0.00277561
0.00277557
0.00274493
0.00274486
0.00277771
0.00274194
0.00277563
0.00277563
0.00274486
0.00274469
0.00277558
0.00274484
0.00274491
0.00277779
0.00274194
0.00277559
0.00274479
0.00274493
0.00274193
0.00273682
0.00270124
0.00273474
0.00273467
0.00270415
0.00270412
0.00273671
0.00270121
0.00273474
0.00273467
0.00270407
0.00270402
0.00273472
0.00270413
0.00270409
0.00273679
0.00270107
0.00273477
0.00270414
0.00270409
0.00270125
0.00269607
0.00266071
0.00269406
0.00269404
0.00266386
0.00266382
0.00269602
0.00266071
0.00269407
0.00269402
0.00266379
0.00266372
0.00269409
0.00266383
0.0026638
0.00269594
0.00266064
0.00269413
0.00266374
0.00266385
0.00266064
0.00265556
0.00262064
0.00265382
0.00265382
0.00262373
0.00262379
0.0026556
0.00262059
0.00265369
0.00265365
0.00262376
0.00262376
0.00265371
0.00262381
0.00262384
0.00265552
0.00262056
0.00265375
0.00262378
0.00262383
0.0026206
0.00261555
0.00258084
0.00261383
0.00261383
0.00258409
0.00258409
0.0026155
0.0025808
0.00261383
0.00261376
0.00258411
0.00258418
0.00261387
0.0025841
0.00258411
0.00261547
0.00258079
0.00261386
0.00258415
0.00258411
0.00258075
0.00257577
0.00254139
0.00257415
0.0025742
0.00254471
0.00254459
0.00257579
0.00254137
0.00257416
0.00257432
0.00254469
0.00254449
0.00257414
0.00254461
0.00254469
0.00257587
0.00254128
0.00257414
0.0025445
0.0025447
0.00254136
0.00253644
0.00250215
0.00253484
0.00253479
0.0025054
0.0025054
0.00253636
0.00250231
0.0025348
0.00253489
0.00250537
0.00250538
0.00253487
0.00250541
0.0025054
0.00253632
0.00250241
0.00253487
0.00250548
0.00250542
0.00250221
0.00249724
0.00246341
0.00249566
0.00249565
0.00246643
0.00246639
0.00249738
0.00246323
0.00249563
0.00249551
0.00246642
0.0024665
0.00249569
0.00246639
0.00246639
0.00249728
0.00246307
0.0024957
0.00246641
0.0024664
0.00246335
0.00245838
0.00242463
0.00245667
0.0024567
0.00242774
0.00242774
0.00245826
0.00242488
0.0024567
0.00245692
0.00242775
0.00242771
0.00245671
0.00242774
0.00242773
0.00245841
0.00242487
0.00245671
0.00242771
0.00242774
0.00242478
0.00241977
0.00238644
0.0024181
0.00241808
0.0023892
0.00238913
0.00241995
0.00238615
0.00241809
0.00241806
0.00238922
0.0023891
0.00241802
0.00238915
0.00238919
0.00241987
0.00238622
0.00241803
0.00238915
0.00238918
0.00238618
0.00238149
0.00234798
0.00237958
0.00237957
0.00235083
0.00235083
0.00238126
0.00234817
0.00237959
0.00237949
0.00235081
0.00235085
0.00237957
0.00235083
0.00235091
0.00238129
0.00234803
0.00237957
0.00235086
0.00235092
0.00234805
0.00234308
0.00230995
0.0023413
0.00234126
0.00231266
0.0023127
0.00234323
0.00230998
0.00234128
0.00234129
0.00231267
0.00231259
0.00234133
0.0023127
0.00231259
0.00234318
0.00230991
0.00234134
0.0023126
0.00231258
0.00230993
0.00230506
0.00227201
0.00230315
0.00230314
0.00227469
0.00227466
0.00230508
0.00227188
0.00230316
0.0023031
0.00227471
0.00227478
0.002303
0.00227466
0.00227485
0.00230497
0.00227209
0.002303
0.00227479
0.00227484
0.00227184
0.00226712
0.00223423
0.00226524
0.00226525
0.00223695
0.00223691
0.00226697
0.00223436
0.00226526
0.00226532
0.00223696
0.00223688
0.00226545
0.00223692
0.00223693
0.00226721
0.00223429
0.00226546
0.0022369
0.00223694
0.00223449
0.00222932
0.0021965
0.0022275
0.00222749
0.00219912
0.00219921
0.00222946
0.00219651
0.0022275
0.00222738
0.00219907
0.00219905
0.00222738
0.00219922
0.00219906
0.00222934
0.00219636
0.00222738
0.00219907
0.00219902
0.00219627
0.00219158
0.00215893
0.00218971
0.00218977
0.00216163
0.0021615
0.0021916
0.00215893
0.00218966
0.00218969
0.00216165
0.00216168
0.00218971
0.00216148
0.00216166
0.00219148
0.00215907
0.00218968
0.0021617
0.00216168
0.00215904
0.00215406
0.0021216
0.00215227
0.00215217
0.00212416
0.00212422
0.00215404
0.00212158
0.00215231
0.00215233
0.00212421
0.00212415
0.00215228
0.00212423
0.00212417
0.00215418
0.00212155
0.00215232
0.00212414
0.00212417
0.00212157
0.0021167
0.00208424
0.00211481
0.00211488
0.00208685
0.00208687
0.00211672
0.00208428
0.00211484
0.00211478
0.00208679
0.0020868
0.00211481
0.00208686
0.00208684
0.00211666
0.00208427
0.0021148
0.00208683
0.00208682
0.00208426
0.00207937
0.00204712
0.00207753
0.00207752
0.00204964
0.00204958
0.00207937
0.00204709
0.0020775
0.00207751
0.00204964
0.00204966
0.00207754
0.00204959
0.00204964
0.00207939
0.00204712
0.00207752
0.00204967
0.00204964
0.00204711
0.00204224
0.00201007
0.00204038
0.00204032
0.00201254
0.00201262
0.00204224
0.00201016
0.00204036
0.00204037
0.00201258
0.00201255
0.00204035
0.00201262
0.0020126
0.00204224
0.00201008
0.00204036
0.00201256
0.00201259
0.00201009
0.00200521
0.00197317
0.00200328
0.00200337
0.00197562
0.00197557
0.00200528
0.00197306
0.00200331
0.00200329
0.00197558
0.00197558
0.00200333
0.00197556
0.00197556
0.00200521
0.00197317
0.00200332
0.00197558
0.00197555
0.00197313
0.0019683
0.00193642
0.00196639
0.0019663
0.00193877
0.00193872
0.0019682
0.0019365
0.00196638
0.00196636
0.00193877
0.0019388
0.00196633
0.00193875
0.00193877
0.00196831
0.00193645
0.00196632
0.0019388
0.0019388
0.00193645
0.00193158
0.00189968
0.0019296
0.00192964
0.00190206
0.00190223
0.00193168
0.00189979
0.00192959
0.00192964
0.00190205
0.00190205
0.0019296
0.00190221
0.00190214
0.0019316
0.00189969
0.00192965
0.00190208
0.00190211
0.00189976
0.00189485
0.00186332
0.00189288
0.00189298
0.00186553
0.0018653
0.0018949
0.00186305
0.00189286
0.00189286
0.00186552
0.00186549
0.00189297
0.0018653
0.00186545
0.00189486
0.00186325
0.00189293
0.00186547
0.00186543
0.0018632
0.00185847
0.00182674
0.00185644
0.00185621
0.00182902
0.00182915
0.00185826
0.00182696
0.00185643
0.00185638
0.00182904
0.00182909
0.00185632
0.00182914
0.00182899
0.0018584
0.00182685
0.00185632
0.0018291
0.00182902
0.00182674
0.00182193
0.00179057
0.00181989
0.00182008
0.00179269
0.00179272
0.00182212
0.00179055
0.00181992
0.00182001
0.00179273
0.00179266
0.00181988
0.00179273
0.00179279
0.00182203
0.00179044
0.00181991
0.00179265
0.00179277
0.00179069
0.00178577
0.00175453
0.0017837
0.00178367
0.00175678
0.00175669
0.00178576
0.00175451
0.00178369
0.00178357
0.00175659
0.00175672
0.00178385
0.0017567
0.00175678
0.00178564
0.00175464
0.00178383
0.00175674
0.00175677
0.00175447
0.00174973
0.00171836
0.00174775
0.00174768
0.00172049
0.00172046
0.0017497
0.00171826
0.0017476
0.00174779
0.00172065
0.00172061
0.00174762
0.00172041
0.00172031
0.00174984
0.00171835
0.00174761
0.00172061
0.00172033
0.0017182
0.00171354
0.00168242
0.00171139
0.00171138
0.00168441
0.00168456
0.00171346
0.0016826
0.0017116
0.00171148
0.00168442
0.00168433
0.00171132
0.00168463
0.00168457
0.00171351
0.0016823
0.00171134
0.00168431
0.00168459
0.00168257
0.00167767
0.00164696
0.00167557
0.00167572
0.00164918
0.00164901
0.00167785
0.0016468
0.0016755
0.0016754
0.00164895
0.001649
0.00167575
0.001649
0.00164924
0.00167756
0.00164705
0.00167573
0.00164906
0.00164913
0.00164708
0.00164219
0.00161104
0.00164026
0.00163995
0.00161301
0.00161305
0.00164199
0.00161094
0.00164011
0.00164024
0.00161325
0.00161344
0.00164025
0.00161302
0.00161276
0.00164234
0.00161112
0.0016402
0.00161339
0.00161294
0.0016108
0.00160628
0.00157552
0.00160407
0.00160422
0.00157756
0.00157776
0.0016062
0.00157572
0.00160429
0.00160431
0.00157751
0.00157735
0.00160382
0.0015777
0.00157764
0.0016063
0.00157536
0.001604
0.00157734
0.00157761
0.00157563
0.00157076
0.00154026
0.00156873
0.00156891
0.00154233
0.00154219
0.00157099
0.00154026
0.00156863
0.00156846
0.00154218
0.00154211
0.00156894
0.00154231
0.0015424
0.00157061
0.00154023
0.00156882
0.00154217
0.00154223
0.00154031
0.00153555
0.00150467
0.0015335
0.00153327
0.00150676
0.00150657
0.00153548
0.00150443
0.00153345
0.00153341
0.00150701
0.00150718
0.00153343
0.00150649
0.00150648
0.00153554
0.00150486
0.00153336
0.0015071
0.00150682
0.00150449
0.00149992
0.00146943
0.0014977
0.00149779
0.00147143
0.00147162
0.00149969
0.00146957
0.00149803
0.00149824
0.0014714
0.00147131
0.00149763
0.00147156
0.00147159
0.00150006
0.00146931
0.0014979
0.00147128
0.0014715
0.00146951
0.00146471
0.00143448
0.00146276
0.00146296
0.00143665
0.00143676
0.00146491
0.00143482
0.00146262
0.00146251
0.00143633
0.00143633
0.00146294
0.00143683
0.00143675
0.0014646
0.00143447
0.00146277
0.00143654
0.00143658
0.00143471
0.00142978
0.00139954
0.00142789
0.00142791
0.00140157
0.00140113
0.00143008
0.0013992
0.00142762
0.0014277
0.00140172
0.00140167
0.00142799
0.00140137
0.00140156
0.00142981
0.00139955
0.00142787
0.0014017
0.00140163
0.0013994
0.00139482
0.00136429
0.00139275
0.00139233
0.00136621
0.00136629
0.00139442
0.00136404
0.00139309
0.00139292
0.00136654
0.00136657
0.0013925
0.00136614
0.00136602
0.00139481
0.00136435
0.00139272
0.00136631
0.00136621
0.00136402
0.00135955
0.00132933
0.00135742
0.00135761
0.00133143
0.00133165
0.00135935
0.00132956
0.00135762
0.00135778
0.00133124
0.00133126
0.00135735
0.00133155
0.00133142
0.00135963
0.00132928
0.00135752
0.00133133
0.00133143
0.00132938
0.00132462
0.0012943
0.00132272
0.00132293
0.0012964
0.00129638
0.00132489
0.00129438
0.00132248
0.00132245
0.00129626
0.00129616
0.00132272
0.00129637
0.00129646
0.00132454
0.00129424
0.00132271
0.00129635
0.00129649
0.00129448
0.00128957
0.0012595
0.00128763
0.00128749
0.00126155
0.00126144
0.00128961
0.00125944
0.00128756
0.00128749
0.00126159
0.00126161
0.00128772
0.00126152
0.0012615
0.00128954
0.00125948
0.00128772
0.00126149
0.00126133
0.0012594
0.00125482
0.00122475
0.00125288
0.00125286
0.00122684
0.00122696
0.00125478
0.00122484
0.00125291
0.001253
0.0012269
0.00122699
0.00125282
0.001227
0.00122706
0.0012548
0.00122486
0.00125266
0.00122698
0.00122708
0.00122492
0.00122007
0.00119024
0.00121817
0.0012183
0.0011923
0.00119228
0.00122016
0.0011902
0.00121824
0.00121829
0.00119228
0.00119215
0.00121842
0.0011923
0.00119224
0.00122018
0.00119012
0.00121847
0.00119219
0.00119228
0.00119016
0.00118556
0.00115558
0.00118369
0.0011836
0.00115761
0.0011575
0.0011855
0.00115541
0.00118362
0.00118347
0.00115761
0.00115769
0.00118349
0.0011574
0.00115737
0.00118541
0.00115567
0.0011835
0.00115766
0.00115742
0.00115537
0.0011509
0.00112111
0.0011489
0.00114883
0.00112304
0.00112306
0.00115072
0.00112106
0.00114896
0.00114914
0.00112317
0.00112325
0.00114872
0.00112302
0.00112303
0.00115104
0.00112112
0.00114883
0.00112323
0.00112321
0.00112114
0.00111644
0.00108615
0.00111449
0.00111452
0.00108843
0.00108856
0.00111643
0.00108652
0.00111452
0.0011144
0.00108817
0.00108791
0.00111453
0.0010887
0.00108878
0.00111635
0.00108587
0.00111463
0.00108797
0.00108844
0.00108643
0.00108138
0.00105145
0.00107963
0.00107974
0.00105348
0.00105353
0.00108177
0.00105148
0.00107938
0.00107921
0.00105354
0.00105363
0.00107999
0.00105365
0.00105356
0.00108112
0.00105155
0.00107959
0.00105358
0.0010535
0.00105145
0.00104684
0.00101776
0.00104493
0.00104495
0.00101956
0.00101946
0.00104679
0.00101737
0.00104506
0.00104522
0.00101978
0.00102005
0.00104489
0.00101931
0.00101923
0.00104698
0.00101808
0.00104491
0.00101995
0.00101952
0.00101744
0.00101316
0.000983512
0.00101108
0.00101096
0.000985491
0.000985261
0.00101276
0.000983334
0.00101129
0.00101155
0.000985534
0.000985446
0.00101074
0.000985203
0.000985469
0.0010135
0.000983477
0.00101107
0.000985633
0.00098569
0.00098366
0.000978804
0.000948483
0.000976924
0.00097667
0.000950787
0.000950943
0.000978704
0.000948846
0.000976852
0.000976659
0.000950543
0.000950373
0.000977044
0.000951058
0.000951016
0.00097873
0.000948203
0.000977164
0.000950443
0.000950713
0.000948589
0.000943705
0.000913368
0.000942001
0.000942244
0.000915523
0.000915785
0.000944081
0.000913501
0.000941733
0.000941569
0.000915409
0.000915179
0.000942078
0.000915619
0.000915158
0.000943356
0.000913003
0.000941711
0.000914986
0.000915006
0.000912903
0.000908612
0.000879233
0.000906731
0.000906917
0.000880873
0.000880812
0.000908678
0.000878985
0.00090671
0.000906554
0.000881141
0.000881289
0.000906289
0.000880846
0.000880984
0.000908353
0.000879641
0.000906242
0.000881328
0.000881324
0.000879509
0.000874669
0.00084588
0.000872446
0.00087238
0.000847579
0.000847569
0.000874471
0.000845889
0.000872751
0.000873034
0.000847786
0.000848172
0.000872867
0.000847776
0.000848287
0.000875202
0.000846324
0.000873321
0.000848332
0.000848431
0.000846429
0.000841339
0.000810936
0.000839302
0.000839253
0.000813459
0.000813159
0.000841343
0.000810791
0.00083939
0.000839676
0.000813152
0.000812925
0.000839748
0.000812935
0.000812705
0.000841619
0.000810456
0.000839724
0.000812675
0.000812362
0.000810288
0.000806009
0.000775064
0.000804399
0.000804119
0.000777256
0.000777344
0.000805885
0.000775232
0.0008041
0.000803819
0.000777168
0.000776807
0.000803619
0.000777387
0.0007771
0.000805486
0.000774749
0.000803294
0.000776839
0.000776988
0.000774986
0.00077033
0.000741546
0.00076848
0.000768707
0.000743237
0.000743519
0.000770544
0.000741721
0.000768475
0.000768173
0.000743352
0.0007434
0.000768611
0.000743644
0.000743629
0.000770118
0.000741791
0.000768603
0.000743558
0.000743808
0.000741938
0.000737064
0.000707913
0.000734974
0.000735164
0.000709758
0.000709643
0.000737176
0.000707697
0.000735095
0.000735268
0.000709874
0.000710165
0.000735314
0.000709588
0.000709732
0.000737317
0.000708198
0.000735471
0.000710112
0.000709885
0.000707873
0.000703174
0.000672391
0.000701114
0.000700941
0.000674525
0.000674376
0.000702938
0.000672336
0.000701207
0.000701429
0.000674442
0.000674471
0.000701002
0.00067436
0.000674465
0.000703421
0.000672375
0.000701147
0.000674523
0.000674424
0.000672356
0.000667477
0.000636877
0.000665544
0.000665467
0.000638922
0.000638998
0.000667474
0.000637057
0.000665435
0.000665462
0.000638783
0.000638747
0.000665586
0.000639001
0.000639145
0.00066747
0.000636723
0.000665522
0.00063874
0.000638996
0.000637036
0.000632181
0.000603204
0.000630282
0.00063039
0.0006051
0.000605177
0.000632352
0.000603189
0.000630165
0.000630087
0.000605088
0.00060501
0.000630489
0.000605128
0.000605011
0.000631996
0.000603087
0.000630329
0.000604901
0.00060495
0.000603006
0.000598661
0.000569164
0.000596759
0.000596782
0.000571223
0.000571139
0.000598595
0.000569028
0.000596804
0.000596801
0.000571326
0.000571348
0.000596553
0.000571154
0.000571023
0.000598618
0.00056923
0.000596536
0.000571333
0.000571105
0.00056902
0.000564414
0.00053366
0.000562522
0.000562422
0.000535773
0.000535679
0.000564277
0.000533613
0.000562618
0.000562615
0.000535811
0.000535757
0.000562354
0.000535706
0.00053562
0.000564481
0.00053366
0.000562437
0.000535796
0.00053567
0.000533553
0.000528742
0.000498395
0.000526783
0.000526729
0.00050029
0.000500373
0.000528745
0.000498558
0.000526765
0.000526672
0.000500201
0.000500115
0.00052667
0.000500396
0.000500442
0.0005287
0.000498346
0.000526686
0.000500177
0.000500391
0.000498577
0.000493661
0.000464024
0.000491616
0.000491728
0.000465913
0.000466102
0.000493842
0.000464219
0.000491522
0.000491503
0.000465845
0.00046595
0.000491826
0.000466147
0.000466237
0.000493637
0.000464107
0.000491762
0.000465997
0.000466177
0.000464303
0.00045937
0.000429119
0.000457357
0.000457504
0.000431193
0.000431047
0.000459503
0.000428865
0.000457339
0.000457448
0.000431322
0.000431371
0.000457622
0.000430971
0.000430968
0.000459465
0.00042914
0.000457603
0.000431273
0.00043107
0.000428868
0.000424276
0.000393608
0.000422327
0.00042212
0.00039567
0.000395468
0.000423989
0.000393403
0.000422448
0.00042245
0.000395703
0.000395648
0.000422002
0.000395409
0.000395418
0.000424274
0.000393554
0.000422106
0.000395601
0.00039546
0.000393405
0.000388778
0.000358601
0.000386827
0.000386703
0.000360597
0.00036074
0.000388643
0.000358843
0.000386829
0.000386788
0.000360527
0.000360569
0.000386706
0.000360816
0.00036087
0.000388734
0.000358649
0.000386713
0.000360652
0.000360804
0.000358892
0.000353888
0.000323968
0.000351944
0.000352128
0.000325987
0.000326127
0.000354141
0.000324101
0.00035187
0.000351926
0.000325946
0.00032598
0.000352274
0.000326157
0.000326101
0.000353944
0.000323981
0.000352197
0.000326006
0.000326044
0.000324027
0.000319197
0.000288634
0.000317249
0.000317319
0.00029064
0.000290561
0.00031928
0.00028848
0.000317228
0.000317241
0.000290652
0.000290547
0.000317228
0.000290489
0.00029034
0.000319191
0.000288449
0.000317205
0.000290469
0.000290346
0.000288269
0.000283755
0.000253056
0.000281708
0.000281597
0.000255019
0.000254941
0.000283586
0.00025298
0.000281726
0.000281565
0.000255014
0.000254882
0.000281363
0.000254896
0.000254883
0.000283548
0.000252957
0.000281364
0.000254852
0.00025489
0.000252978
0.000248243
0.000217745
0.000246201
0.000246138
0.000219778
0.000219792
0.000248182
0.000217815
0.000246202
0.000246091
0.000219849
0.000220006
0.000246158
0.000219889
0.000220106
0.000248167
0.000218084
0.00024617
0.000220101
0.000220178
0.000218176
0.000212908
0.000182266
0.000210912
0.00021097
0.000184339
0.000184388
0.00021299
0.000182308
0.000210995
0.000211314
0.000184376
0.000184614
0.000211354
0.000184439
0.000184542
0.000213331
0.000182452
0.000211444
0.000184652
0.000184561
0.000182393
0.000177428
0.000146918
0.00017549
0.000175526
0.000148951
0.000148972
0.000177456
0.00014693
0.000175505
0.000175652
0.000148846
0.000148698
0.000175568
0.000148873
0.000148672
0.000177551
0.000146582
0.00017556
0.000148613
0.000148591
0.000146543
0.000142071
0.000111358
0.000140122
0.000140124
0.000113389
0.000113351
0.000142087
0.000111329
0.000139994
0.000139705
0.0001133
0.000112919
0.00013974
0.000113272
0.000113095
0.000141668
0.000111006
0.000139619
0.000112815
0.00011299
0.000111125
0.000106445
7.52848e-05
0.00010442
0.000104368
7.72993e-05
7.72665e-05
0.000106406
7.52491e-05
0.000104365
0.000104123
7.73883e-05
7.75133e-05
0.000104213
7.73258e-05
7.74218e-05
0.000106176
7.55562e-05
0.000104168
7.75639e-05
7.75065e-05
7.54905e-05
7.02909e-05
3.92168e-05
6.82393e-05
6.82386e-05
4.12305e-05
4.13209e-05
7.02644e-05
3.93485e-05
6.8365e-05
6.86163e-05
4.13647e-05
4.17819e-05
6.85145e-05
4.1487e-05
4.17848e-05
7.06254e-05
3.98231e-05
6.86276e-05
4.19401e-05
4.19212e-05
3.98085e-05
3.42789e-05
7.98276e-06
3.24659e-05
3.26007e-05
1.09223e-05
1.09349e-05
3.4448e-05
7.95794e-06
3.2582e-05
3.30273e-05
1.09429e-05
1.10191e-05
3.3066e-05
1.0966e-05
1.10543e-05
3.49096e-05
7.94101e-06
3.31951e-05
1.10553e-05
1.10753e-05
7.9639e-06
4.8885e-06
6.7843e-06
6.8059e-06
4.8559e-06
6.65236e-06
6.77011e-06
5.74633e-06
5.75782e-06
5.72731e-06
6.74416e-06
4.79368e-06
6.60443e-06
0.00353079
0.00353335
0.00353203
0.00353226
0.00355924
0.00353323
0.00356283
0.0035336
0.00355948
0.00353342
0.00353372
0.00356299
0.00354441
0.00356608
0.00356607
0.00350341
0.00351699
0.00352087
0.00349565
0.00349386
0.00349902
0.00350335
0.00351688
0.00352086
0.00349576
0.00351932
0.00351931
0.00351931
0.00349295
0.00349298
0.00349288
0.00349288
0.00350306
0.00351462
0.00351988
0.00351062
0.00352205
0.00350018
0.00351085
0.00349386
0.00349922
0.00350308
0.00351992
0.00351475
0.00351048
0.00352205
0.0035109
0.00350012
0.00352049
0.00352088
0.00350785
0.0035001
0.0035
0.0034759
0.00349007
0.00348992
0.00347389
0.00348732
0.00347295
0.00347581
0.00349015
0.00348998
0.00347392
0.00348391
0.00348382
0.00348378
0.0034555
0.00345552
0.00345547
0.00345537
0.00347366
0.00348866
0.00348242
0.00347292
0.00348711
0.00347421
0.00347294
0.00348729
0.00347292
0.00347364
0.00348237
0.0034887
0.00347297
0.00348706
0.00347299
0.00347419
0.00349036
0.00349043
0.00347141
0.00347448
0.00347419
0.00343338
0.00344812
0.003449
0.00343211
0.00344696
0.00343121
0.00343335
0.00344811
0.003449
0.00343205
0.00344545
0.00344535
0.0034453
0.00341288
0.0034129
0.00341285
0.00341287
0.00343213
0.00344767
0.00344354
0.00343309
0.00344667
0.00343264
0.00343309
0.003447
0.00343109
0.00343197
0.00344359
0.00344768
0.00343307
0.00344667
0.00343306
0.00343252
0.00344836
0.00344808
0.0034304
0.00343237
0.00343269
0.00338708
0.00340353
0.00340495
0.00338564
0.00340281
0.00338511
0.00338703
0.00340346
0.00340491
0.00338564
0.00340136
0.00340131
0.0034013
0.00336544
0.00336547
0.0033654
0.00336543
0.00338623
0.00340333
0.00339968
0.00338792
0.00340275
0.00338637
0.00338795
0.00340274
0.0033851
0.00338627
0.00339965
0.00340333
0.00338799
0.00340268
0.00338795
0.00338634
0.00340356
0.00340414
0.00338463
0.00338581
0.00338515
0.00333818
0.00335525
0.00335663
0.00333696
0.00335486
0.00333663
0.00333808
0.00335526
0.00335661
0.00333691
0.00335327
0.00335321
0.00335321
0.00331655
0.00331658
0.00331649
0.00331644
0.00333773
0.00335529
0.00335184
0.00333958
0.00335491
0.00333765
0.00333964
0.00335483
0.00333662
0.0033377
0.0033518
0.00335528
0.00333959
0.00335487
0.00333963
0.00333761
0.00335541
0.00335641
0.00333617
0.00333696
0.00333596
0.00328902
0.00330635
0.00330738
0.00328815
0.00330604
0.00328791
0.00328896
0.00330632
0.00330738
0.00328815
0.00330437
0.0033043
0.00330426
0.00326805
0.00326806
0.00326803
0.00326807
0.00328897
0.00330635
0.00330307
0.00329095
0.00330611
0.00328881
0.00329099