/*--------------------------------*- C++ -*----------------------------------*\
| =========                 |                                                 |
| \\      /  F ield         | OpenFOAM: The Open Source CFD Toolbox           |
|  \\    /   O peration     | Version:  v2012                                 |
|   \\  /    A nd           | Website:  www.openfoam.com                      |
|    \\/     M anipulation  |                                                 |
\*---------------------------------------------------------------------------*/
FoamFile
{
    version     2.0;
    format      ascii;
    class       volScalarField;
    location    "250";
    object      epsilon;
}
// * * * * * * * * * * * * * * * * * * * * * * * * * * * * * * * * * * * * * //

dimensions      [0 2 -3 0 0 0 0];


internalField   nonuniform List<scalar> 
171728
(
4.95567e-07
4.97331e-07
4.97331e-07
4.99575e-07
4.45573e-07
4.53736e-07
4.53738e-07
4.63711e-07
4.03752e-07
4.18514e-07
4.18516e-07
4.39411e-07
3.68363e-07
3.88554e-07
3.88556e-07
4.1767e-07
3.38014e-07
3.62105e-07
3.62108e-07
3.96085e-07
3.11645e-07
3.38275e-07
3.38278e-07
3.74584e-07
2.88472e-07
3.1664e-07
3.16643e-07
3.53714e-07
2.67922e-07
2.97024e-07
2.97027e-07
3.34152e-07
2.49579e-07
2.79373e-07
2.79375e-07
3.16489e-07
2.33136e-07
2.63681e-07
2.63684e-07
3.01167e-07
2.18365e-07
2.49957e-07
2.4996e-07
2.88495e-07
2.05089e-07
2.382e-07
2.38205e-07
2.78708e-07
1.93171e-07
2.28413e-07
2.28418e-07
2.71885e-07
1.82497e-07
2.20602e-07
2.20609e-07
2.68176e-07
1.72978e-07
2.14775e-07
2.14783e-07
2.6764e-07
1.6454e-07
2.1094e-07
2.10946e-07
2.70502e-07
1.5712e-07
2.09114e-07
2.09118e-07
2.76685e-07
1.50666e-07
2.09305e-07
2.09308e-07
2.86288e-07
1.45134e-07
2.11564e-07
2.11566e-07
2.99241e-07
1.40489e-07
2.15906e-07
2.15905e-07
3.15621e-07
1.367e-07
2.22347e-07
2.22348e-07
3.35378e-07
1.33745e-07
2.30906e-07
2.30909e-07
3.58401e-07
1.31602e-07
2.41573e-07
2.41578e-07
3.84536e-07
1.30255e-07
2.54328e-07
2.54334e-07
4.13535e-07
1.29693e-07
2.69124e-07
2.69133e-07
4.45051e-07
1.29918e-07
2.85896e-07
2.85908e-07
4.78693e-07
1.30907e-07
3.04558e-07
3.04572e-07
5.14039e-07
1.32663e-07
3.25005e-07
3.25022e-07
5.50632e-07
1.35185e-07
3.47118e-07
3.47139e-07
5.88035e-07
1.38476e-07
3.70761e-07
3.70786e-07
6.25815e-07
1.42537e-07
3.95789e-07
3.95818e-07
6.63606e-07
1.47375e-07
4.22039e-07
4.22075e-07
7.01058e-07
1.52993e-07
4.49355e-07
4.49389e-07
7.37918e-07
1.59399e-07
4.77555e-07
4.77604e-07
7.73956e-07
1.66596e-07
5.06476e-07
5.06521e-07
8.09033e-07
1.74587e-07
5.35927e-07
5.35984e-07
8.42983e-07
1.83372e-07
5.65746e-07
5.65805e-07
8.75798e-07
1.92947e-07
5.95744e-07
5.9581e-07
9.07411e-07
2.03302e-07
6.25773e-07
6.2584e-07
9.37829e-07
2.14423e-07
6.55644e-07
6.55722e-07
9.67033e-07
2.26288e-07
6.85244e-07
6.85318e-07
9.95039e-07
2.38864e-07
7.14389e-07
7.14472e-07
1.02184e-06
2.52131e-07
7.43018e-07
7.43103e-07
1.04752e-06
2.6602e-07
7.7096e-07
7.71046e-07
1.07205e-06
2.80495e-07
7.98127e-07
7.98219e-07
1.09546e-06
2.95523e-07
8.24574e-07
8.24667e-07
1.11799e-06
3.10929e-07
8.49803e-07
8.49902e-07
1.13897e-06
3.2686e-07
8.74642e-07
8.7472e-07
1.1601e-06
3.42995e-07
8.97545e-07
8.97671e-07
1.17804e-06
3.59596e-07
9.20568e-07
9.2063e-07
1.19839e-06
3.76443e-07
9.40923e-07
9.4106e-07
1.21284e-06
3.9332e-07
9.61313e-07
9.61381e-07
1.23122e-06
4.10825e-07
9.79158e-07
9.79268e-07
1.2455e-06
4.2735e-07
9.94161e-07
9.9428e-07
1.25112e-06
4.51466e-07
1.03182e-06
1.03189e-06
1.31445e-06
4.58321e-07
1.018e-06
1.01808e-06
1.28775e-06
4.53757e-07
9.83795e-07
9.83922e-07
1.21692e-06
4.66406e-07
9.96793e-07
9.96906e-07
1.23146e-06
4.9639e-07
1.04219e-06
1.04227e-06
1.30305e-06
5.23822e-07
1.07793e-06
1.07803e-06
1.36154e-06
5.3642e-07
1.09361e-06
1.09371e-06
1.38987e-06
5.39773e-07
1.09689e-06
1.097e-06
1.39701e-06
5.39812e-07
1.09617e-06
1.09627e-06
1.39583e-06
5.39478e-07
1.09546e-06
1.09556e-06
1.39447e-06
5.39533e-07
1.09556e-06
1.09566e-06
1.3946e-06
5.39752e-07
1.09587e-06
1.09597e-06
1.39518e-06
5.39871e-07
1.096e-06
1.0961e-06
1.39546e-06
5.39885e-07
1.09602e-06
1.09612e-06
1.39551e-06
5.39884e-07
1.09602e-06
1.09612e-06
1.39548e-06
5.39883e-07
1.09603e-06
1.09613e-06
1.39552e-06
5.3988e-07
1.09602e-06
1.09612e-06
1.3955e-06
5.39879e-07
1.09602e-06
1.09612e-06
1.39548e-06
5.39877e-07
1.09601e-06
1.09611e-06
1.39549e-06
5.39877e-07
1.09601e-06
1.09612e-06
1.39549e-06
5.39877e-07
1.09601e-06
1.09612e-06
1.39547e-06
5.39878e-07
1.09602e-06
1.09612e-06
1.39554e-06
5.39877e-07
1.09602e-06
1.09612e-06
1.39549e-06
5.39875e-07
1.09601e-06
1.09612e-06
1.39547e-06
5.39875e-07
1.09602e-06
1.09612e-06
1.3955e-06
5.39874e-07
1.09601e-06
1.09612e-06
1.39553e-06
5.39874e-07
1.09601e-06
1.09612e-06
1.39555e-06
5.3987e-07
1.09601e-06
1.09612e-06
1.3955e-06
5.39866e-07
1.09601e-06
1.09612e-06
1.39548e-06
5.39864e-07
1.096e-06
1.09611e-06
1.39538e-06
5.39861e-07
1.096e-06
1.09611e-06
1.39541e-06
5.39859e-07
1.09601e-06
1.09611e-06
1.39552e-06
5.39857e-07
1.09601e-06
1.09611e-06
1.39556e-06
5.39855e-07
1.09601e-06
1.09612e-06
1.39557e-06
5.39855e-07
1.09602e-06
1.09612e-06
1.39554e-06
5.39855e-07
1.09602e-06
1.09613e-06
1.39545e-06
5.39858e-07
1.09603e-06
1.09613e-06
1.39541e-06
5.39864e-07
1.09605e-06
1.09616e-06
1.39546e-06
5.39862e-07
1.09608e-06
1.09618e-06
1.39548e-06
5.39393e-07
1.09577e-06
1.09587e-06
1.39512e-06
5.18977e-07
1.03561e-06
1.03567e-06
1.34547e-06
5.06417e-07
5.05584e-07
5.05582e-07
5.06417e-07
5.05583e-07
5.05583e-07
5.09649e-07
5.09649e-07
5.09649e-07
5.09649e-07
5.05584e-07
5.05584e-07
5.06417e-07
5.05584e-07
5.05583e-07
5.06418e-07
4.99575e-07
4.67236e-07
4.97331e-07
4.97335e-07
4.63713e-07
4.63721e-07
4.99575e-07
4.67237e-07
4.97334e-07
4.97335e-07
4.63718e-07
4.63723e-07
4.97332e-07
4.6371e-07
4.63715e-07
4.99575e-07
4.67239e-07
4.97334e-07
4.63711e-07
4.63719e-07
4.67243e-07
4.63708e-07
4.41422e-07
4.53739e-07
4.53748e-07
4.26738e-07
4.26747e-07
4.63709e-07
4.41422e-07
4.53743e-07
4.5375e-07
4.26738e-07
4.26749e-07
4.53743e-07
4.26732e-07
4.26742e-07
4.6371e-07
4.41428e-07
4.53745e-07
4.26734e-07
4.26742e-07
4.41434e-07
4.39404e-07
4.19278e-07
4.18521e-07
4.1853e-07
3.95675e-07
3.95684e-07
4.39408e-07
4.19279e-07
4.18521e-07
4.18533e-07
3.9567e-07
3.95686e-07
4.18526e-07
3.95665e-07
3.9568e-07
4.39409e-07
4.19285e-07
4.18525e-07
3.95668e-07
3.95675e-07
4.19293e-07
4.17658e-07
3.9764e-07
3.88564e-07
3.88573e-07
3.6846e-07
3.68468e-07
4.1766e-07
3.97641e-07
3.88558e-07
3.88576e-07
3.6845e-07
3.6847e-07
3.8857e-07
3.68447e-07
3.68466e-07
4.17664e-07
3.97647e-07
3.88564e-07
3.68449e-07
3.68456e-07
3.97655e-07
3.96071e-07
3.76079e-07
3.62118e-07
3.62126e-07
3.44031e-07
3.44038e-07
3.96074e-07
3.76081e-07
3.62108e-07
3.62129e-07
3.44017e-07
3.44041e-07
3.62124e-07
3.44016e-07
3.44037e-07
3.96078e-07
3.76087e-07
3.62113e-07
3.44018e-07
3.44023e-07
3.76096e-07
3.7457e-07
3.55105e-07
3.38291e-07
3.38298e-07
3.21873e-07
3.21879e-07
3.74573e-07
3.55106e-07
3.38277e-07
3.38301e-07
3.21856e-07
3.21881e-07
3.38297e-07
3.21856e-07
3.21879e-07
3.74577e-07
3.55112e-07
3.38283e-07
3.21858e-07
3.21862e-07
3.55122e-07
3.53699e-07
3.3539e-07
3.16658e-07
3.16664e-07
3.01762e-07
3.01767e-07
3.53701e-07
3.35391e-07
3.16641e-07
3.16666e-07
3.01743e-07
3.01769e-07
3.16664e-07
3.01743e-07
3.01767e-07
3.53706e-07
3.35397e-07
3.16647e-07
3.01746e-07
3.01748e-07
3.35407e-07
3.34138e-07
3.17527e-07
2.97043e-07
2.97048e-07
2.83622e-07
2.83626e-07
3.3414e-07
3.17529e-07
2.97024e-07
2.9705e-07
2.83601e-07
2.83628e-07
2.97048e-07
2.83602e-07
2.83627e-07
3.34144e-07
3.17535e-07
2.97029e-07
2.83604e-07
2.83607e-07
3.17545e-07
3.16474e-07
3.0197e-07
2.79393e-07
2.79397e-07
2.67441e-07
2.67445e-07
3.16477e-07
3.01971e-07
2.79372e-07
2.79399e-07
2.67418e-07
2.67447e-07
2.79398e-07
2.6742e-07
2.67446e-07
3.16479e-07
3.0198e-07
2.79377e-07
2.67422e-07
2.67424e-07
3.01988e-07
3.01149e-07
2.8904e-07
2.63703e-07
2.63707e-07
2.53226e-07
2.5323e-07
3.01152e-07
2.8904e-07
2.6368e-07
2.63709e-07
2.53202e-07
2.53231e-07
2.63708e-07
2.53204e-07
2.5323e-07
3.01158e-07
2.89042e-07
2.63685e-07
2.53206e-07
2.53207e-07
2.89052e-07
2.88486e-07
2.78948e-07
2.4998e-07
2.49985e-07
2.40979e-07
2.40984e-07
2.88485e-07
2.78948e-07
2.49956e-07
2.49986e-07
2.40954e-07
2.40985e-07
2.49985e-07
2.40956e-07
2.40984e-07
2.88486e-07
2.78954e-07
2.49961e-07
2.40958e-07
2.40959e-07
2.7897e-07
2.78686e-07
2.7182e-07
2.38226e-07
2.3823e-07
2.30699e-07
2.30704e-07
2.78688e-07
2.71822e-07
2.382e-07
2.38232e-07
2.30672e-07
2.30706e-07
2.38231e-07
2.30675e-07
2.30704e-07
2.78694e-07
2.71832e-07
2.38206e-07
2.30677e-07
2.30678e-07
2.71848e-07
2.71858e-07
2.67856e-07
2.28441e-07
2.28446e-07
2.22397e-07
2.22403e-07
2.71861e-07
2.67865e-07
2.28413e-07
2.28448e-07
2.22368e-07
2.22404e-07
2.28445e-07
2.22371e-07
2.22402e-07
2.71869e-07
2.67864e-07
2.28419e-07
2.22372e-07
2.22374e-07
2.67884e-07
2.6815e-07
2.66983e-07
2.20634e-07
2.2064e-07
2.16076e-07
2.16084e-07
2.6816e-07
2.66986e-07
2.20603e-07
2.20642e-07
2.16044e-07
2.16085e-07
2.2064e-07
2.16048e-07
2.16078e-07
2.68159e-07
2.6699e-07
2.20611e-07
2.16048e-07
2.16047e-07
2.66988e-07
2.67632e-07
2.69137e-07
2.14811e-07
2.1482e-07
2.11742e-07
2.11752e-07
2.67639e-07
2.69138e-07
2.1478e-07
2.14821e-07
2.11709e-07
2.11755e-07
2.14813e-07
2.11709e-07
2.1175e-07
2.67638e-07
2.69149e-07
2.14782e-07
2.11711e-07
2.11717e-07
2.69183e-07
2.70465e-07
2.74637e-07
2.10978e-07
2.1099e-07
2.09408e-07
2.09425e-07
2.70467e-07
2.74649e-07
2.10945e-07
2.10991e-07
2.09373e-07
2.09426e-07
2.10986e-07
2.09373e-07
2.09415e-07
2.7047e-07
2.74645e-07
2.10953e-07
2.09373e-07
2.0938e-07
2.74662e-07
2.76671e-07
2.83528e-07
2.09152e-07
2.09169e-07
2.09121e-07
2.09141e-07
2.76682e-07
2.83539e-07
2.09118e-07
2.09171e-07
2.09086e-07
2.09144e-07
2.0916e-07
2.09083e-07
2.09131e-07
2.76679e-07
2.83542e-07
2.09125e-07
2.09084e-07
2.09095e-07
2.83563e-07
2.86252e-07
2.95795e-07
2.09346e-07
2.0937e-07
2.10842e-07
2.10866e-07
2.86267e-07
2.95807e-07
2.0931e-07
2.09371e-07
2.10804e-07
2.1087e-07
2.0936e-07
2.10799e-07
2.10856e-07
2.8626e-07
2.95809e-07
2.09323e-07
2.108e-07
2.10816e-07
2.95841e-07
2.99203e-07
3.11479e-07
2.11608e-07
2.11635e-07
2.14662e-07
2.14694e-07
2.99214e-07
3.11495e-07
2.1157e-07
2.11638e-07
2.14624e-07
2.14698e-07
2.11622e-07
2.14618e-07
2.14679e-07
2.9921e-07
3.11499e-07
2.11582e-07
2.14618e-07
2.14637e-07
3.1153e-07
3.15576e-07
3.30537e-07
2.15952e-07
2.15986e-07
2.20586e-07
2.20624e-07
3.15592e-07
3.30553e-07
2.15912e-07
2.15988e-07
2.20544e-07
2.20629e-07
2.15968e-07
2.20536e-07
2.20605e-07
3.1559e-07
3.30561e-07
2.15925e-07
2.20538e-07
2.2056e-07
3.30599e-07
3.3532e-07
3.5288e-07
2.224e-07
2.22437e-07
2.28629e-07
2.28668e-07
3.35341e-07
3.529e-07
2.22354e-07
2.22441e-07
2.28577e-07
2.28672e-07
2.22417e-07
2.28568e-07
2.28646e-07
3.35344e-07
3.52907e-07
2.22372e-07
2.28571e-07
2.28597e-07
3.52953e-07
3.58328e-07
3.78362e-07
2.3097e-07
2.31009e-07
2.38781e-07
2.38821e-07
3.5836e-07
3.78387e-07
2.30914e-07
2.31013e-07
2.3872e-07
2.38827e-07
2.30985e-07
2.3871e-07
2.38797e-07
3.58361e-07
3.78396e-07
2.30936e-07
2.38714e-07
2.38744e-07
3.78446e-07
3.84456e-07
4.06748e-07
2.41648e-07
2.41688e-07
2.51027e-07
2.5107e-07
3.84491e-07
4.06778e-07
2.41583e-07
2.41693e-07
2.50958e-07
2.51077e-07
2.41662e-07
2.50947e-07
2.51043e-07
3.84491e-07
4.06789e-07
2.41608e-07
2.50953e-07
2.50985e-07
4.06845e-07
4.13442e-07
4.37713e-07
2.54412e-07
2.54454e-07
2.65327e-07
2.65372e-07
4.13483e-07
4.37745e-07
2.54338e-07
2.5446e-07
2.6525e-07
2.65381e-07
2.54427e-07
2.65238e-07
2.65345e-07
4.13485e-07
4.37759e-07
2.54367e-07
2.65246e-07
2.6528e-07
4.37819e-07
4.44947e-07
4.70875e-07
2.69218e-07
2.69262e-07
2.81622e-07
2.81669e-07
4.44992e-07
4.70908e-07
2.69135e-07
2.69269e-07
2.81535e-07
2.81679e-07
2.69234e-07
2.81523e-07
2.81641e-07
4.44996e-07
4.70925e-07
2.69168e-07
2.81534e-07
2.81569e-07
4.70991e-07
4.78581e-07
5.05817e-07
2.85999e-07
2.86045e-07
2.99829e-07
2.99877e-07
4.7863e-07
5.05845e-07
2.85908e-07
2.86055e-07
2.99734e-07
2.9989e-07
2.86017e-07
2.9972e-07
2.9985e-07
4.78636e-07
5.05865e-07
2.85943e-07
2.99734e-07
2.99771e-07
5.05943e-07
5.13917e-07
5.4209e-07
3.04671e-07
3.04718e-07
3.1985e-07
3.19899e-07
5.13962e-07
5.4212e-07
3.0457e-07
3.04729e-07
3.19746e-07
3.19915e-07
3.0469e-07
3.19732e-07
3.19874e-07
5.13971e-07
5.42145e-07
3.04609e-07
3.19749e-07
3.19785e-07
5.42225e-07
5.50502e-07
5.79256e-07
3.25129e-07
3.25174e-07
3.41569e-07
3.41617e-07
5.50545e-07
5.79286e-07
3.25017e-07
3.25189e-07
3.41455e-07
3.41636e-07
3.2515e-07
3.41442e-07
3.41595e-07
5.50559e-07
5.79314e-07
3.25059e-07
3.41462e-07
3.41497e-07
5.79402e-07
5.87893e-07
6.16888e-07
3.47251e-07
3.47297e-07
3.64854e-07
3.64898e-07
5.8794e-07
6.16911e-07
3.4713e-07
3.47314e-07
3.64729e-07
3.64922e-07
3.47276e-07
3.64715e-07
3.64881e-07
5.87956e-07
6.16946e-07
3.47175e-07
3.6474e-07
3.64772e-07
6.17034e-07
6.25674e-07
6.54591e-07
3.70905e-07
3.70947e-07
3.89558e-07
3.89601e-07
6.25714e-07
6.54618e-07
3.70773e-07
3.70968e-07
3.89423e-07
3.89627e-07
3.7093e-07
3.89412e-07
3.89589e-07
6.25736e-07
6.54653e-07
3.70819e-07
3.8944e-07
3.8947e-07
6.54752e-07
6.63454e-07
6.92029e-07
3.95941e-07
3.9598e-07
4.15526e-07
4.15564e-07
6.63496e-07
6.92049e-07
3.95799e-07
3.96005e-07
4.15381e-07
4.15596e-07
3.9597e-07
4.1537e-07
4.15561e-07
6.63518e-07
6.92093e-07
3.95848e-07
4.15404e-07
4.15431e-07
6.92195e-07
7.009e-07
7.28936e-07
4.22201e-07
4.22235e-07
4.426e-07
4.42634e-07
7.00937e-07
7.28958e-07
4.22048e-07
4.22266e-07
4.42445e-07
4.42668e-07
4.22233e-07
4.42437e-07
4.42636e-07
7.00971e-07
7.28995e-07
4.22099e-07
4.42473e-07
4.42494e-07
7.291e-07
7.37758e-07
7.65062e-07
4.49523e-07
4.49554e-07
4.70602e-07
4.70629e-07
7.37798e-07
7.65073e-07
4.4936e-07
4.49583e-07
4.70437e-07
4.70674e-07
4.49558e-07
4.7043e-07
4.70644e-07
7.37817e-07
7.65136e-07
4.49414e-07
4.70477e-07
4.70492e-07
7.65238e-07
7.73793e-07
8.00276e-07
4.77732e-07
4.77754e-07
4.99366e-07
4.99388e-07
7.7382e-07
8.00288e-07
4.77559e-07
4.77798e-07
4.99194e-07
4.9943e-07
4.77769e-07
4.99189e-07
4.99407e-07
7.73874e-07
8.00325e-07
4.77615e-07
4.99233e-07
4.99245e-07
8.00441e-07
8.08871e-07
8.34404e-07
5.06656e-07
5.06675e-07
5.28705e-07
5.2872e-07
8.08903e-07
8.34414e-07
5.06476e-07
5.06715e-07
5.28523e-07
5.28774e-07
5.06698e-07
5.28524e-07
5.2875e-07
8.08927e-07
8.34479e-07
5.06534e-07
5.2858e-07
5.28579e-07
8.34578e-07
8.42822e-07
8.67427e-07
5.36113e-07
5.36123e-07
5.58454e-07
5.5846e-07
8.42842e-07
8.67427e-07
5.35925e-07
5.36176e-07
5.58267e-07
5.58516e-07
5.36155e-07
5.58266e-07
5.58502e-07
8.42896e-07
8.67484e-07
5.35982e-07
5.58324e-07
5.58322e-07
8.67595e-07
8.75636e-07
8.99267e-07
5.65936e-07
5.65939e-07
5.88425e-07
5.88425e-07
8.75652e-07
8.99273e-07
5.65741e-07
5.65992e-07
5.88231e-07
5.88488e-07
5.65983e-07
5.88236e-07
5.88474e-07
8.75697e-07
8.99334e-07
5.65802e-07
5.88301e-07
5.88287e-07
8.99432e-07
9.07256e-07
9.29926e-07
5.95936e-07
5.95932e-07
6.18464e-07
6.18459e-07
9.07272e-07
9.29928e-07
5.95737e-07
5.95994e-07
6.18266e-07
6.18523e-07
5.95985e-07
6.18275e-07
6.18515e-07
9.07324e-07
9.29987e-07
5.95797e-07
6.18343e-07
6.18322e-07
9.30082e-07
9.37682e-07
9.59366e-07
6.25963e-07
6.25953e-07
6.48388e-07
6.48371e-07
9.37701e-07
9.59362e-07
6.25757e-07
6.26016e-07
6.48187e-07
6.48444e-07
6.26011e-07
6.48194e-07
6.48439e-07
9.37747e-07
9.5943e-07
6.25818e-07
6.4827e-07
6.48241e-07
9.59519e-07
9.66886e-07
9.87623e-07
6.55839e-07
6.55815e-07
6.7807e-07
6.78052e-07
9.66891e-07
9.87632e-07
6.55632e-07
6.55891e-07
6.77864e-07
6.78122e-07
6.55892e-07
6.7788e-07
6.78121e-07
9.66953e-07
9.87689e-07
6.55693e-07
6.77957e-07
6.77921e-07
9.87772e-07
9.94913e-07
1.01467e-06
6.85433e-07
6.8541e-07
7.07335e-07
7.07308e-07
9.94923e-07
1.01467e-06
6.85221e-07
6.8548e-07
7.07129e-07
7.07386e-07
6.85481e-07
7.07149e-07
7.07386e-07
9.94969e-07
1.01474e-06
6.85281e-07
7.07228e-07
7.07185e-07
1.01481e-06
1.02172e-06
1.0406e-06
7.14575e-07
7.14545e-07
7.36107e-07
7.36071e-07
1.02171e-06
1.04059e-06
7.14365e-07
7.14624e-07
7.35903e-07
7.36158e-07
7.14629e-07
7.35922e-07
7.36162e-07
1.02178e-06
1.04066e-06
7.14427e-07
7.36009e-07
7.35958e-07
1.04073e-06
1.04741e-06
1.06534e-06
7.43201e-07
7.43164e-07
7.64205e-07
7.64166e-07
1.0474e-06
1.06534e-06
7.42995e-07
7.43247e-07
7.64001e-07
7.6425e-07
7.43255e-07
7.64027e-07
7.64259e-07
1.04746e-06
1.06541e-06
7.43052e-07
7.64112e-07
7.64055e-07
1.06547e-06
1.07193e-06
1.08904e-06
7.71137e-07
7.71096e-07
7.91614e-07
7.91566e-07
1.07193e-06
1.08903e-06
7.7093e-07
7.71179e-07
7.91412e-07
7.9166e-07
7.71191e-07
7.91436e-07
7.91666e-07
1.07199e-06
1.08911e-06
7.70987e-07
7.91528e-07
7.91463e-07
1.08916e-06
1.09535e-06
1.1117e-06
7.98302e-07
7.98253e-07
8.18186e-07
8.18134e-07
1.09534e-06
1.11169e-06
7.98097e-07
7.98345e-07
8.17985e-07
8.18229e-07
7.98356e-07
8.18022e-07
8.1824e-07
1.09541e-06
1.11177e-06
7.98152e-07
8.18113e-07
8.18037e-07
1.11182e-06
1.11788e-06
1.13307e-06
8.24742e-07
8.24686e-07
8.4378e-07
8.43708e-07
1.11787e-06
1.13304e-06
8.24539e-07
8.24781e-07
8.43578e-07
8.43815e-07
8.24796e-07
8.43597e-07
8.43825e-07
1.11794e-06
1.13313e-06
8.24594e-07
8.43696e-07
8.43623e-07
1.13318e-06
1.13888e-06
1.15409e-06
8.49975e-07
8.49903e-07
8.68652e-07
8.68602e-07
1.13885e-06
1.15413e-06
8.4977e-07
8.50007e-07
8.68453e-07
8.68692e-07
8.50013e-07
8.68521e-07
8.68725e-07
1.13894e-06
1.15417e-06
8.49812e-07
8.68603e-07
8.68522e-07
1.15425e-06
1.15995e-06
1.17286e-06
8.74782e-07
8.74733e-07
8.92208e-07
8.92091e-07
1.15999e-06
1.17275e-06
8.7458e-07
8.74818e-07
8.92005e-07
8.92227e-07
8.7486e-07
8.91988e-07
8.92197e-07
1.16003e-06
1.1729e-06
8.74658e-07
8.9211e-07
8.92e-07
1.17288e-06
1.178e-06
1.19221e-06
8.97757e-07
8.97626e-07
9.14784e-07
9.14748e-07
1.17788e-06
1.19232e-06
8.97554e-07
8.9777e-07
9.14587e-07
9.14832e-07
8.97767e-07
9.14714e-07
9.1496e-07
1.17803e-06
1.19233e-06
8.97571e-07
9.14779e-07
9.1476e-07
1.1926e-06
1.1981e-06
1.20907e-06
9.20624e-07
9.20609e-07
9.36728e-07
9.36581e-07
1.19826e-06
1.20891e-06
9.20421e-07
9.2068e-07
9.36521e-07
9.36726e-07
9.2075e-07
9.36487e-07
9.36589e-07
1.19823e-06
1.2091e-06
9.20548e-07
9.36615e-07
9.36392e-07
1.20877e-06
1.21308e-06
1.22429e-06
9.41208e-07
9.41026e-07
9.55463e-07
9.55388e-07
1.21287e-06
1.22432e-06
9.41006e-07
9.41185e-07
9.5527e-07
9.55489e-07
9.411e-07
9.55345e-07
9.55656e-07
1.21307e-06
1.22436e-06
9.40905e-07
9.55437e-07
9.55462e-07
1.2248e-06
1.23063e-06
1.24404e-06
9.61345e-07
9.61327e-07
9.77007e-07
9.76895e-07
1.23078e-06
1.24403e-06
9.61148e-07
9.61395e-07
9.76796e-07
9.77012e-07
9.61607e-07
9.76861e-07
9.76908e-07
1.23075e-06
1.24412e-06
9.61413e-07
9.76947e-07
9.76718e-07
1.24378e-06
1.24586e-06
1.24334e-06
9.79381e-07
9.79212e-07
9.8785e-07
9.87716e-07
1.24576e-06
1.24324e-06
9.7917e-07
9.79362e-07
9.87648e-07
9.87863e-07
9.7921e-07
9.87662e-07
9.87859e-07
1.2459e-06
1.24339e-06
9.79017e-07
9.87792e-07
9.87663e-07
1.24349e-06
1.25084e-06
1.30329e-06
9.94298e-07
9.94203e-07
1.024e-06
1.02394e-06
1.25085e-06
1.30336e-06
9.94093e-07
9.94329e-07
1.02379e-06
1.02403e-06
9.94379e-07
1.02391e-06
1.02414e-06
1.25093e-06
1.30339e-06
9.94186e-07
1.02399e-06
1.02395e-06
1.30351e-06
1.31438e-06
1.29179e-06
1.03196e-06
1.03186e-06
1.02774e-06
1.02762e-06
1.31436e-06
1.2917e-06
1.03176e-06
1.03196e-06
1.02757e-06
1.02773e-06
1.03204e-06
1.0276e-06
1.02783e-06
1.31441e-06
1.2918e-06
1.03185e-06
1.02767e-06
1.02762e-06
1.29199e-06
1.28754e-06
1.2178e-06
1.01811e-06
1.01802e-06
9.88835e-07
9.88774e-07
1.28748e-06
1.21786e-06
1.01794e-06
1.01812e-06
9.88662e-07
9.88875e-07
1.0182e-06
9.88738e-07
9.88838e-07
1.28756e-06
1.21792e-06
1.01801e-06
9.8886e-07
9.88682e-07
1.21786e-06
1.21689e-06
1.22143e-06
9.83914e-07
9.8384e-07
9.89223e-07
9.89094e-07
1.21694e-06
1.22134e-06
9.83731e-07
9.8394e-07
9.89025e-07
9.89202e-07
9.83873e-07
9.89021e-07
9.89146e-07
1.217e-06
1.22144e-06
9.83723e-07
9.89141e-07
9.88982e-07
1.22136e-06
1.23154e-06
1.28811e-06
9.97003e-07
9.96869e-07
1.02997e-06
1.02983e-06
1.23143e-06
1.28802e-06
9.96803e-07
9.96976e-07
1.02976e-06
1.02995e-06
9.9695e-07
1.02977e-06
1.03e-06
1.23153e-06
1.28812e-06
9.96774e-07
1.02986e-06
1.02979e-06
1.28822e-06
1.30293e-06
1.35118e-06
1.04236e-06
1.04224e-06
1.07121e-06
1.07113e-06
1.30286e-06
1.3512e-06
1.04216e-06
1.04236e-06
1.07101e-06
1.07124e-06
1.04243e-06
1.07109e-06
1.07129e-06
1.30295e-06
1.35129e-06
1.04222e-06
1.07118e-06
1.07109e-06
1.35139e-06
1.36136e-06
1.38444e-06
1.07806e-06
1.07798e-06
1.09134e-06
1.09127e-06
1.36139e-06
1.38446e-06
1.07785e-06
1.07809e-06
1.09114e-06
1.09138e-06
1.07813e-06
1.09121e-06
1.09139e-06
1.36147e-06
1.38454e-06
1.07793e-06
1.09131e-06
1.0912e-06
1.38459e-06
1.38973e-06
1.39448e-06
1.09375e-06
1.09367e-06
1.09688e-06
1.09679e-06
1.38975e-06
1.39445e-06
1.09355e-06
1.09379e-06
1.09669e-06
1.09692e-06
1.09379e-06
1.09672e-06
1.09692e-06
1.38982e-06
1.39456e-06
1.09361e-06
1.09683e-06
1.09673e-06
1.39461e-06
1.3969e-06
1.39387e-06
1.09705e-06
1.09695e-06
1.09659e-06
1.09648e-06
1.39687e-06
1.39381e-06
1.09686e-06
1.09708e-06
1.09639e-06
1.09661e-06
1.09709e-06
1.09642e-06
1.09661e-06
1.39697e-06
1.39393e-06
1.0969e-06
1.09653e-06
1.09642e-06
1.39395e-06
1.39577e-06
1.39235e-06
1.09634e-06
1.09622e-06
1.09571e-06
1.0956e-06
1.39571e-06
1.3923e-06
1.09614e-06
1.09636e-06
1.09551e-06
1.09573e-06
1.09635e-06
1.09554e-06
1.09573e-06
1.39582e-06
1.39241e-06
1.09617e-06
1.09565e-06
1.09554e-06
1.39243e-06
1.39441e-06
1.39229e-06
1.09562e-06
1.09551e-06
1.09563e-06
1.09554e-06
1.39436e-06
1.39228e-06
1.09542e-06
1.09564e-06
1.09543e-06
1.09566e-06
1.09564e-06
1.09548e-06
1.09567e-06
1.39446e-06
1.39238e-06
1.09545e-06
1.09558e-06
1.09548e-06
1.39242e-06
1.39449e-06
1.39287e-06
1.0957e-06
1.09562e-06
1.09595e-06
1.09586e-06
1.39447e-06
1.39287e-06
1.0955e-06
1.09573e-06
1.09575e-06
1.09598e-06
1.09574e-06
1.0958e-06
1.09599e-06
1.39456e-06
1.39296e-06
1.09556e-06
1.0959e-06
1.0958e-06
1.393e-06
1.39507e-06
1.39319e-06
1.09602e-06
1.09593e-06
1.09614e-06
1.09605e-06
1.39506e-06
1.39317e-06
1.09582e-06
1.09605e-06
1.09594e-06
1.09617e-06
1.09606e-06
1.09598e-06
1.09617e-06
1.39514e-06
1.39327e-06
1.09587e-06
1.09608e-06
1.09599e-06
1.39331e-06
1.39535e-06
1.39327e-06
1.09616e-06
1.09606e-06
1.09618e-06
1.09608e-06
1.39533e-06
1.39325e-06
1.09596e-06
1.09618e-06
1.09598e-06
1.0962e-06
1.09619e-06
1.09602e-06
1.09621e-06
1.39542e-06
1.39335e-06
1.09601e-06
1.09612e-06
1.09603e-06
1.39339e-06
1.39541e-06
1.39324e-06
1.09618e-06
1.09608e-06
1.09618e-06
1.09608e-06
1.39538e-06
1.39321e-06
1.09598e-06
1.0962e-06
1.09598e-06
1.0962e-06
1.09621e-06
1.09602e-06
1.09621e-06
1.39548e-06
1.39332e-06
1.09602e-06
1.09612e-06
1.09602e-06
1.39335e-06
1.39538e-06
1.3933e-06
1.09617e-06
1.09608e-06
1.09618e-06
1.09609e-06
1.39536e-06
1.39327e-06
1.09598e-06
1.0962e-06
1.09599e-06
1.09621e-06
1.09621e-06
1.09603e-06
1.09621e-06
1.39545e-06
1.39337e-06
1.09602e-06
1.09613e-06
1.09603e-06
1.3934e-06
1.39543e-06
1.39326e-06
1.09618e-06
1.09609e-06
1.09618e-06
1.09608e-06
1.3954e-06
1.39323e-06
1.09599e-06
1.09621e-06
1.09598e-06
1.09621e-06
1.09621e-06
1.09602e-06
1.09621e-06
1.3955e-06
1.39333e-06
1.09603e-06
1.09612e-06
1.09602e-06
1.39337e-06
1.39541e-06
1.39323e-06
1.09617e-06
1.09608e-06
1.09617e-06
1.09608e-06
1.39538e-06
1.39321e-06
1.09598e-06
1.0962e-06
1.09597e-06
1.0962e-06
1.09621e-06
1.09602e-06
1.09621e-06
1.39547e-06
1.39332e-06
1.09602e-06
1.09612e-06
1.09602e-06
1.39336e-06
1.39537e-06
1.39327e-06
1.09617e-06
1.09608e-06
1.09617e-06
1.09608e-06
1.39535e-06
1.39325e-06
1.09597e-06
1.0962e-06
1.09597e-06
1.0962e-06
1.09621e-06
1.09601e-06
1.0962e-06
1.39544e-06
1.39334e-06
1.09602e-06
1.09611e-06
1.09602e-06
1.39338e-06
1.3954e-06
1.39324e-06
1.09617e-06
1.09607e-06
1.09617e-06
1.09607e-06
1.39537e-06
1.39321e-06
1.09597e-06
1.09619e-06
1.09597e-06
1.09619e-06
1.0962e-06
1.09601e-06
1.0962e-06
1.39545e-06
1.39332e-06
1.09601e-06
1.09611e-06
1.09601e-06
1.39336e-06
1.39539e-06
1.39325e-06
1.09617e-06
1.09607e-06
1.09617e-06
1.09607e-06
1.39536e-06
1.39322e-06
1.09597e-06
1.09619e-06
1.09597e-06
1.0962e-06
1.0962e-06
1.09601e-06
1.0962e-06
1.39546e-06
1.39333e-06
1.09601e-06
1.09612e-06
1.09602e-06
1.39337e-06
1.39537e-06
1.3933e-06
1.09616e-06
1.09607e-06
1.09617e-06
1.09608e-06
1.39534e-06
1.39328e-06
1.09597e-06
1.0962e-06
1.09598e-06
1.0962e-06
1.0962e-06
1.09602e-06
1.09621e-06
1.39545e-06
1.39337e-06
1.09601e-06
1.09612e-06
1.09602e-06
1.39341e-06
1.39544e-06
1.39321e-06
1.09617e-06
1.09608e-06
1.09616e-06
1.09607e-06
1.39542e-06
1.3932e-06
1.09598e-06
1.0962e-06
1.09597e-06
1.09619e-06
1.0962e-06
1.09601e-06
1.0962e-06
1.39551e-06
1.39329e-06
1.09602e-06
1.09611e-06
1.09601e-06
1.39334e-06
1.39537e-06
1.39323e-06
1.09617e-06
1.09607e-06
1.09617e-06
1.09608e-06
1.39536e-06
1.39321e-06
1.09597e-06
1.0962e-06
1.09597e-06
1.0962e-06
1.0962e-06
1.09601e-06
1.09621e-06
1.39545e-06
1.39333e-06
1.09602e-06
1.09612e-06
1.09602e-06
1.39336e-06
1.39535e-06
1.39328e-06
1.09617e-06
1.09608e-06
1.09617e-06
1.09608e-06
1.39533e-06
1.39327e-06
1.09597e-06
1.0962e-06
1.09597e-06
1.0962e-06
1.09621e-06
1.09602e-06
1.09621e-06
1.39544e-06
1.39336e-06
1.09602e-06
1.09612e-06
1.09602e-06
1.3934e-06
1.39539e-06
1.39332e-06
1.09617e-06
1.09608e-06
1.09617e-06
1.09607e-06
1.39538e-06
1.39328e-06
1.09597e-06
1.0962e-06
1.09597e-06
1.0962e-06
1.09621e-06
1.09601e-06
1.0962e-06
1.39547e-06
1.39339e-06
1.09602e-06
1.09612e-06
1.09602e-06
1.39342e-06
1.39545e-06
1.39329e-06
1.09617e-06
1.09607e-06
1.09617e-06
1.09607e-06
1.39541e-06
1.39327e-06
1.09597e-06
1.0962e-06
1.09597e-06
1.0962e-06
1.0962e-06
1.09601e-06
1.0962e-06
1.39551e-06
1.39336e-06
1.09602e-06
1.09611e-06
1.09602e-06
1.39341e-06
1.39545e-06
1.39324e-06
1.09617e-06
1.09608e-06
1.09617e-06
1.09607e-06
1.39544e-06
1.3932e-06
1.09597e-06
1.0962e-06
1.09597e-06
1.09619e-06
1.0962e-06
1.096e-06
1.0962e-06
1.39552e-06
1.39331e-06
1.09602e-06
1.09611e-06
1.09601e-06
1.39333e-06
1.39542e-06
1.39319e-06
1.09617e-06
1.09607e-06
1.09616e-06
1.09607e-06
1.39538e-06
1.39318e-06
1.09597e-06
1.09619e-06
1.09597e-06
1.0962e-06
1.0962e-06
1.09601e-06
1.0962e-06
1.39549e-06
1.39327e-06
1.09601e-06
1.09612e-06
1.09602e-06
1.39332e-06
1.39537e-06
1.39313e-06
1.09617e-06
1.09607e-06
1.09615e-06
1.09606e-06
1.39535e-06
1.39311e-06
1.09597e-06
1.0962e-06
1.09596e-06
1.09618e-06
1.0962e-06
1.09599e-06
1.09619e-06
1.39544e-06
1.39322e-06
1.09602e-06
1.0961e-06
1.096e-06
1.39326e-06
1.39527e-06
1.39323e-06
1.09616e-06
1.09607e-06
1.09615e-06
1.09606e-06
1.39526e-06
1.3932e-06
1.09596e-06
1.09619e-06
1.09596e-06
1.09619e-06
1.0962e-06
1.096e-06
1.0962e-06
1.39535e-06
1.39332e-06
1.09601e-06
1.09611e-06
1.09601e-06
1.39335e-06
1.39529e-06
1.39333e-06
1.09616e-06
1.09606e-06
1.09615e-06
1.09606e-06
1.39527e-06
1.39331e-06
1.09596e-06
1.09619e-06
1.09596e-06
1.09618e-06
1.0962e-06
1.09599e-06
1.09619e-06
1.39537e-06
1.39341e-06
1.09601e-06
1.0961e-06
1.096e-06
1.39345e-06
1.39541e-06
1.39333e-06
1.09616e-06
1.09607e-06
1.09615e-06
1.09606e-06
1.39538e-06
1.39331e-06
1.09596e-06
1.09619e-06
1.09595e-06
1.09618e-06
1.0962e-06
1.09599e-06
1.09619e-06
1.39548e-06
1.39341e-06
1.09601e-06
1.0961e-06
1.096e-06
1.39344e-06
1.39544e-06
1.39332e-06
1.09616e-06
1.09607e-06
1.09614e-06
1.09605e-06
1.39542e-06
1.39331e-06
1.09596e-06
1.09619e-06
1.09595e-06
1.09618e-06
1.0962e-06
1.09599e-06
1.09618e-06
1.39552e-06
1.3934e-06
1.09601e-06
1.0961e-06
1.096e-06
1.39341e-06
1.39548e-06
1.39328e-06
1.09616e-06
1.09607e-06
1.09613e-06
1.09605e-06
1.39546e-06
1.39326e-06
1.09596e-06
1.09619e-06
1.09594e-06
1.09617e-06
1.0962e-06
1.09598e-06
1.09618e-06
1.39555e-06
1.39335e-06
1.09601e-06
1.09609e-06
1.09599e-06
1.39335e-06
1.39548e-06
1.39317e-06
1.09616e-06
1.09607e-06
1.09613e-06
1.09604e-06
1.39547e-06
1.39314e-06
1.09597e-06
1.0962e-06
1.09593e-06
1.09616e-06
1.0962e-06
1.09597e-06
1.09617e-06
1.39555e-06
1.39324e-06
1.09602e-06
1.09608e-06
1.09598e-06
1.39327e-06
1.39539e-06
1.39313e-06
1.09617e-06
1.09608e-06
1.09612e-06
1.09603e-06
1.39537e-06
1.39311e-06
1.09597e-06
1.0962e-06
1.09592e-06
1.09615e-06
1.09621e-06
1.09596e-06
1.09616e-06
1.39544e-06
1.39321e-06
1.09602e-06
1.09607e-06
1.09597e-06
1.39329e-06
1.39531e-06
1.39317e-06
1.09618e-06
1.09609e-06
1.09611e-06
1.09601e-06
1.39528e-06
1.39317e-06
1.09598e-06
1.09621e-06
1.09591e-06
1.09614e-06
1.09622e-06
1.09595e-06
1.09615e-06
1.39537e-06
1.39328e-06
1.09603e-06
1.09606e-06
1.09596e-06
1.39337e-06
1.39531e-06
1.39319e-06
1.0962e-06
1.09611e-06
1.09609e-06
1.096e-06
1.3953e-06
1.3932e-06
1.096e-06
1.09623e-06
1.09589e-06
1.09612e-06
1.09624e-06
1.09594e-06
1.09612e-06
1.39539e-06
1.39331e-06
1.09605e-06
1.09604e-06
1.09594e-06
1.39336e-06
1.3953e-06
1.39299e-06
1.09622e-06
1.09613e-06
1.09566e-06
1.09556e-06
1.39531e-06
1.39298e-06
1.09603e-06
1.09625e-06
1.09546e-06
1.09568e-06
1.09626e-06
1.0955e-06
1.09569e-06
1.39541e-06
1.39308e-06
1.09607e-06
1.0956e-06
1.0955e-06
1.39312e-06
1.39498e-06
1.3708e-06
1.09592e-06
1.09583e-06
1.07198e-06
1.07184e-06
1.39498e-06
1.37077e-06
1.09572e-06
1.09594e-06
1.07184e-06
1.0719e-06
1.09595e-06
1.07191e-06
1.07193e-06
1.39508e-06
1.37083e-06
1.09576e-06
1.07196e-06
1.07181e-06
1.37083e-06
1.34547e-06
1.03566e-06
1.03552e-06
1.34544e-06
1.03556e-06
1.03558e-06
5.1893e-07
5.18971e-07
5.1893e-07
1.0356e-06
1.34549e-06
1.03552e-06
5.35663e-07
5.35601e-07
5.35655e-07
5.35655e-07
5.34573e-07
5.35516e-07
5.33634e-07
5.35654e-07
5.34573e-07
5.35517e-07
5.35654e-07
5.33634e-07
5.35256e-07
5.35987e-07
5.35987e-07
1.10717e-06
3.88067e-06
9.33917e-07
4.60585e-06
1.26086e-05
1.66015e-05
1.10712e-06
3.88121e-06
9.3393e-07
4.60638e-06
4.95567e-07
4.95567e-07
4.95567e-07
4.57231e-07
4.57231e-07
4.57232e-07
4.57232e-07
5.43136e-07
1.22024e-06
4.95565e-07
4.85523e-07
5.25345e-07
1.20948e-06
4.82301e-07
1.26098e-05
1.6603e-05
5.43156e-07
4.95565e-07
1.22026e-06
4.85523e-07
5.25333e-07
4.82301e-07
1.2095e-06
2.52183e-06
2.52237e-06
4.84192e-07
2.37257e-06
2.3728e-06
1.43088e-06
5.59292e-06
1.32969e-06
6.1361e-06
2.12848e-05
2.31113e-05
1.43097e-06
5.5937e-06
1.3298e-06
6.13689e-06
4.45573e-07
4.45573e-07
4.45573e-07
4.13542e-07
4.13542e-07
4.13543e-07
4.13543e-07
5.87084e-07
1.1948e-06