/*--------------------------------*- C++ -*----------------------------------*\
| =========                 |                                                 |
| \\      /  F ield         | OpenFOAM: The Open Source CFD Toolbox           |
|  \\    /   O peration     | Version:  v2012                                 |
|   \\  /    A nd           | Website:  www.openfoam.com                      |
|    \\/     M anipulation  |                                                 |
\*---------------------------------------------------------------------------*/
FoamFile
{
    version     2.0;
    format      ascii;
    class       volScalarField;
    location    "250";
    object      k;
}
// * * * * * * * * * * * * * * * * * * * * * * * * * * * * * * * * * * * * * //

dimensions      [0 2 -2 0 0 0 0];


internalField   nonuniform List<scalar> 
171728
(
3.58932e-05
3.58912e-05
3.58912e-05
3.59957e-05
3.39296e-05
3.3889e-05
3.3889e-05
3.39623e-05
3.21578e-05
3.20081e-05
3.20081e-05
3.19522e-05
3.05346e-05
3.02293e-05
3.02292e-05
2.99885e-05
2.90329e-05
2.8554e-05
2.85539e-05
2.81226e-05
2.76354e-05
2.69871e-05
2.69871e-05
2.63906e-05
2.63308e-05
2.5531e-05
2.55309e-05
2.48072e-05
2.51112e-05
2.41849e-05
2.41848e-05
2.33781e-05
2.3971e-05
2.29506e-05
2.29505e-05
2.21045e-05
2.29058e-05
2.18268e-05
2.18267e-05
2.09859e-05
2.1912e-05
2.08114e-05
2.08112e-05
2.00132e-05
2.09865e-05
1.99013e-05
1.99012e-05
1.91817e-05
2.01242e-05
1.90948e-05
1.90945e-05
1.84869e-05
1.93239e-05
1.83886e-05
1.83882e-05
1.79313e-05
1.85848e-05
1.77793e-05
1.77791e-05
1.7505e-05
1.79042e-05
1.72657e-05
1.72659e-05
1.71995e-05
1.72798e-05
1.68462e-05
1.68459e-05
1.70212e-05
1.67097e-05
1.65211e-05
1.65211e-05
1.69811e-05
1.61923e-05
1.62896e-05
1.62896e-05
1.70793e-05
1.57254e-05
1.61519e-05
1.6152e-05
1.73018e-05
1.53073e-05
1.61073e-05
1.61073e-05
1.76548e-05
1.49374e-05
1.61533e-05
1.61534e-05
1.81335e-05
1.46145e-05
1.62919e-05
1.62921e-05
1.87294e-05
1.43382e-05
1.65202e-05
1.65205e-05
1.94291e-05
1.4108e-05
1.68359e-05
1.68364e-05
2.02211e-05
1.39235e-05
1.72356e-05
1.72362e-05
2.10948e-05
1.37844e-05
1.77157e-05
1.77164e-05
2.20357e-05
1.36906e-05
1.82728e-05
1.82736e-05
2.30302e-05
1.36422e-05
1.89019e-05
1.89028e-05
2.4065e-05
1.36391e-05
1.9598e-05
1.95993e-05
2.51259e-05
1.36814e-05
2.0356e-05
2.03574e-05
2.62025e-05
1.37699e-05
2.11692e-05
2.11704e-05
2.72831e-05
1.39046e-05
2.20331e-05
2.20346e-05
2.83607e-05
1.40856e-05
2.2939e-05
2.29415e-05
2.94307e-05
1.43134e-05
2.38831e-05
2.38845e-05
3.04837e-05
1.45877e-05
2.48574e-05
2.48598e-05
3.15218e-05
1.49087e-05
2.58552e-05
2.58575e-05
3.2538e-05
1.52757e-05
2.68713e-05
2.68739e-05
3.35324e-05
1.56888e-05
2.79005e-05
2.7903e-05
3.45047e-05
1.6146e-05
2.89325e-05
2.89353e-05
3.54495e-05
1.66468e-05
2.99685e-05
2.9972e-05
3.63738e-05
1.71904e-05
3.10008e-05
3.1003e-05
3.7269e-05
1.77739e-05
3.20269e-05
3.20306e-05
3.81431e-05
1.83909e-05
3.30314e-05
3.30341e-05
3.89836e-05
1.90567e-05
3.40428e-05
3.40466e-05
3.98196e-05
1.97341e-05
3.50076e-05
3.50104e-05
4.0598e-05
2.04646e-05
3.59742e-05
3.59777e-05
4.1394e-05
2.11991e-05
3.69033e-05
3.6906e-05
4.21185e-05
2.19861e-05
3.78537e-05
3.78593e-05
4.28914e-05
2.27368e-05
3.86311e-05
3.86308e-05
4.34982e-05
2.36252e-05
3.97868e-05
3.9791e-05
4.44353e-05
2.42866e-05
4.01315e-05
4.0139e-05
4.44896e-05
2.54262e-05
4.1849e-05
4.18482e-05
4.64832e-05
2.60227e-05
4.15754e-05
4.15815e-05
4.48325e-05
2.72662e-05
4.41793e-05
4.41864e-05
4.84876e-05
3.04037e-05
4.78994e-05
4.78966e-05
5.35515e-05
2.89509e-05
4.30854e-05
4.30869e-05
4.61329e-05
2.61455e-05
3.92779e-05
3.92844e-05
4.12621e-05
2.67139e-05
4.13357e-05
4.13397e-05
4.41843e-05
3.31884e-05
4.74463e-05
4.74479e-05
5.01623e-05
3.79911e-05
5.13979e-05
5.1401e-05
5.41458e-05
4.03268e-05
5.30331e-05
5.30372e-05
5.57392e-05
4.09286e-05
5.32706e-05
5.32748e-05
5.59076e-05
4.09169e-05
5.31361e-05
5.31401e-05
5.5717e-05
4.08105e-05
5.30585e-05
5.30625e-05
5.5625e-05
4.08162e-05
5.30916e-05
5.30951e-05
5.56723e-05
4.08764e-05
5.314e-05
5.3143e-05
5.57182e-05
4.09023e-05
5.31549e-05
5.31582e-05
5.57379e-05
4.09057e-05
5.31546e-05
5.31582e-05
5.57266e-05
4.09064e-05
5.31565e-05
5.31603e-05
5.57412e-05
4.09061e-05
5.31556e-05
5.3159e-05
5.57261e-05
4.09056e-05
5.31548e-05
5.31587e-05
5.57338e-05
4.09053e-05
5.31554e-05
5.31587e-05
5.574e-05
4.09047e-05
5.31538e-05
5.31573e-05
5.57239e-05
4.09046e-05
5.31538e-05
5.3158e-05
5.57346e-05
4.09051e-05
5.31558e-05
5.31592e-05
5.57379e-05
4.09047e-05
5.31542e-05
5.3157e-05
5.57234e-05
4.0905e-05
5.31551e-05
5.31595e-05
5.57404e-05
4.09049e-05
5.31563e-05
5.31593e-05
5.57342e-05
4.09051e-05
5.3155e-05
5.31589e-05
5.5725e-05
4.09051e-05
5.3155e-05
5.31588e-05
5.57338e-05
4.0905e-05
5.31542e-05
5.31582e-05
5.57351e-05
4.09057e-05
5.31568e-05
5.31606e-05
5.57404e-05
4.09052e-05
5.31541e-05
5.31578e-05
5.57242e-05
4.09054e-05
5.31556e-05
5.31599e-05
5.57405e-05
4.09053e-05
5.31551e-05
5.31588e-05
5.57314e-05
4.09052e-05
5.3155e-05
5.31588e-05
5.57267e-05
4.09051e-05
5.31553e-05
5.31591e-05
5.57394e-05
4.0905e-05
5.31555e-05
5.31593e-05
5.57362e-05
4.0905e-05
5.31555e-05
5.31592e-05
5.57255e-05
4.09052e-05
5.31561e-05
5.31598e-05
5.57365e-05
4.09055e-05
5.31571e-05
5.31608e-05
5.57384e-05
4.09056e-05
5.31581e-05
5.31617e-05
5.57268e-05
4.08943e-05
5.3139e-05
5.31425e-05
5.57269e-05
4.0433e-05
5.19187e-05
5.19215e-05
5.533e-05
3.63068e-05
3.6291e-05
3.6291e-05
3.63068e-05
3.6291e-05
3.6291e-05
3.6423e-05
3.6423e-05
3.6423e-05
3.6423e-05
3.6291e-05
3.6291e-05
3.63068e-05
3.6291e-05
3.6291e-05
3.63068e-05
3.59957e-05
3.42687e-05
3.58912e-05
3.58912e-05
3.43767e-05
3.43766e-05
3.59957e-05
3.42687e-05
3.58911e-05
3.58912e-05
3.43767e-05
3.43766e-05
3.58912e-05
3.43767e-05
3.43767e-05
3.59957e-05
3.42687e-05
3.58912e-05
3.43767e-05
3.43767e-05
3.42687e-05
3.39623e-05
3.22635e-05
3.38889e-05
3.38889e-05
3.24684e-05
3.24683e-05
3.39622e-05
3.22635e-05
3.38889e-05
3.38889e-05
3.24684e-05
3.24683e-05
3.38889e-05
3.24685e-05
3.24683e-05
3.39623e-05
3.22635e-05
3.38889e-05
3.24685e-05
3.24684e-05
3.22634e-05
3.19522e-05
3.02993e-05
3.2008e-05
3.20078e-05
3.06643e-05
3.06642e-05
3.19522e-05
3.02994e-05
3.2008e-05
3.20078e-05
3.06644e-05
3.06641e-05
3.20079e-05
3.06645e-05
3.06642e-05
3.19522e-05
3.02992e-05
3.2008e-05
3.06645e-05
3.06644e-05
3.02991e-05
2.99886e-05
2.84254e-05
3.0229e-05
3.02288e-05
2.89624e-05
2.89622e-05
2.99885e-05
2.84254e-05
3.02292e-05
3.02288e-05
2.89626e-05
2.89621e-05
3.02289e-05
2.89628e-05
2.89623e-05
2.99885e-05
2.84253e-05
3.02291e-05
2.89627e-05
2.89626e-05
2.8425e-05
2.81228e-05
2.66741e-05
2.85536e-05
2.85534e-05
2.7368e-05
2.73678e-05
2.81227e-05
2.66741e-05
2.85539e-05
2.85533e-05
2.73684e-05
2.73677e-05
2.85535e-05
2.73685e-05
2.73679e-05
2.81227e-05
2.66739e-05
2.85538e-05
2.73684e-05
2.73682e-05
2.66737e-05
2.63909e-05
2.50664e-05
2.69866e-05
2.69864e-05
2.58841e-05
2.58838e-05
2.63909e-05
2.50664e-05
2.6987e-05
2.69863e-05
2.58846e-05
2.58837e-05
2.69865e-05
2.58847e-05
2.58839e-05
2.63908e-05
2.50662e-05
2.69869e-05
2.58846e-05
2.58844e-05
2.50659e-05
2.48076e-05
2.36126e-05
2.55303e-05
2.55301e-05
2.45102e-05
2.451e-05
2.48076e-05
2.36126e-05
2.55308e-05
2.55299e-05
2.45108e-05
2.45098e-05
2.55302e-05
2.4511e-05
2.45101e-05
2.48075e-05
2.36124e-05
2.55307e-05
2.45109e-05
2.45107e-05
2.36121e-05
2.33786e-05
2.23125e-05
2.41841e-05
2.41839e-05
2.32478e-05
2.32475e-05
2.33785e-05
2.23126e-05
2.41847e-05
2.41837e-05
2.32485e-05
2.32474e-05
2.4184e-05
2.32487e-05
2.32476e-05
2.33784e-05
2.23123e-05
2.41846e-05
2.32486e-05
2.32484e-05
2.23119e-05
2.2105e-05
2.11683e-05
2.29497e-05
2.29494e-05
2.20965e-05
2.20962e-05
2.21051e-05
2.11682e-05
2.29504e-05
2.29492e-05
2.20973e-05
2.20961e-05
2.29495e-05
2.20975e-05
2.20964e-05
2.21048e-05
2.1168e-05
2.29503e-05
2.20974e-05
2.20972e-05
2.11676e-05
2.09864e-05
2.0171e-05
2.18258e-05
2.18255e-05
2.10541e-05
2.10538e-05
2.09864e-05
2.01709e-05
2.18267e-05
2.18254e-05
2.1055e-05
2.10537e-05
2.18257e-05
2.10552e-05
2.1054e-05
2.09862e-05
2.01705e-05
2.18265e-05
2.1055e-05
2.10549e-05
2.01702e-05
2.00137e-05
1.93149e-05
2.08102e-05
2.081e-05
2.01179e-05
2.01177e-05
2.00137e-05
1.9315e-05
2.08111e-05
2.08099e-05
2.01189e-05
2.01176e-05
2.08101e-05
2.01191e-05
2.01179e-05
2.00135e-05
1.93148e-05
2.08111e-05
2.01189e-05
2.01188e-05
1.93147e-05
1.91817e-05
1.85901e-05
1.99002e-05
1.98999e-05
1.92855e-05
1.92853e-05
1.91821e-05
1.85901e-05
1.99011e-05
1.98998e-05
1.92865e-05
1.9285e-05
1.99001e-05
1.92866e-05
1.92852e-05
1.9182e-05
1.85893e-05
1.99011e-05
1.92864e-05
1.92863e-05
1.85886e-05
1.84905e-05
1.79992e-05
1.90937e-05
1.90935e-05
1.85546e-05
1.85543e-05
1.84904e-05
1.79988e-05
1.90947e-05
1.90931e-05
1.85556e-05
1.8554e-05
1.90934e-05
1.85556e-05
1.85542e-05
1.84878e-05
1.79976e-05
1.90944e-05
1.85554e-05
1.85552e-05
1.7995e-05
1.79353e-05
1.75386e-05
1.83875e-05
1.83874e-05
1.79212e-05
1.7921e-05
1.79353e-05
1.75379e-05
1.83884e-05
1.83868e-05
1.79222e-05
1.79211e-05
1.83873e-05
1.79222e-05
1.79214e-05
1.79325e-05
1.75398e-05
1.83883e-05
1.79223e-05
1.79224e-05
1.75402e-05
1.75064e-05
1.722e-05
1.77784e-05
1.77782e-05
1.73841e-05
1.73842e-05
1.75058e-05
1.72212e-05
1.77793e-05
1.77779e-05
1.7385e-05
1.73842e-05
1.7778e-05
1.73852e-05
1.73836e-05
1.75061e-05
1.7222e-05
1.7779e-05
1.73853e-05
1.73845e-05
1.7216e-05
1.72029e-05
1.70261e-05
1.72649e-05
1.72647e-05
1.69407e-05
1.69407e-05
1.72033e-05
1.7026e-05
1.72658e-05
1.72649e-05
1.69415e-05
1.69404e-05
1.7265e-05
1.69416e-05
1.69409e-05
1.72045e-05
1.70246e-05
1.7266e-05
1.69413e-05
1.69418e-05
1.70249e-05
1.70219e-05
1.69736e-05
1.68453e-05
1.68455e-05
1.6592e-05
1.65918e-05
1.70222e-05
1.69726e-05
1.68461e-05
1.6845e-05
1.65927e-05
1.6592e-05
1.68454e-05
1.65925e-05
1.65918e-05
1.70203e-05
1.69738e-05
1.68462e-05
1.65926e-05
1.65926e-05
1.69722e-05
1.69818e-05
1.70413e-05
1.65205e-05
1.65205e-05
1.63362e-05
1.63364e-05
1.69808e-05
1.70421e-05
1.65212e-05
1.65205e-05
1.63368e-05
1.63363e-05
1.65201e-05
1.63368e-05
1.63369e-05
1.69817e-05
1.70415e-05
1.65209e-05
1.63368e-05
1.63376e-05
1.70451e-05
1.70764e-05
1.72419e-05
1.6289e-05
1.62892e-05
1.61747e-05
1.6175e-05
1.70767e-05
1.72421e-05
1.62896e-05
1.62891e-05
1.61752e-05
1.61749e-05
1.6289e-05
1.61752e-05
1.61749e-05
1.70763e-05
1.72417e-05
1.62897e-05
1.61752e-05
1.61755e-05
1.72433e-05
1.73009e-05
1.75713e-05
1.61514e-05
1.61517e-05
1.61068e-05
1.61072e-05
1.73013e-05
1.75713e-05
1.61519e-05
1.61518e-05
1.61072e-05
1.61071e-05
1.61513e-05
1.61071e-05
1.6107e-05
1.73012e-05
1.75706e-05
1.61519e-05
1.61072e-05
1.61076e-05
1.75725e-05
1.76539e-05
1.80269e-05
1.61069e-05
1.61073e-05
1.6133e-05
1.61333e-05
1.76543e-05
1.80262e-05
1.61073e-05
1.61073e-05
1.61334e-05
1.61332e-05
1.61071e-05
1.6133e-05
1.61332e-05
1.76538e-05
1.80259e-05
1.61076e-05
1.61331e-05
1.61337e-05
1.80275e-05
1.81334e-05
1.85978e-05
1.61533e-05
1.61536e-05
1.62489e-05
1.62495e-05
1.81329e-05
1.85984e-05
1.61535e-05
1.61535e-05
1.62491e-05
1.62495e-05
1.61533e-05
1.6249e-05
1.62493e-05
1.81321e-05
1.85987e-05
1.61538e-05
1.62492e-05
1.62497e-05
1.85995e-05
1.87281e-05
1.92761e-05
1.6292e-05
1.62924e-05
1.64552e-05
1.64557e-05
1.87287e-05
1.9276e-05
1.6292e-05
1.62924e-05
1.64552e-05
1.64559e-05
1.62922e-05
1.6455e-05
1.64556e-05
1.87286e-05
1.92764e-05
1.62925e-05
1.64553e-05
1.64559e-05
1.92773e-05
1.94276e-05
2.00495e-05
1.65205e-05
1.6521e-05
1.67494e-05
1.675e-05
1.9428e-05
2.00493e-05
1.65204e-05
1.65211e-05
1.67493e-05
1.67502e-05
1.65209e-05
1.6749e-05
1.67497e-05
1.94282e-05
2.00497e-05
1.65211e-05
1.67494e-05
1.67499e-05
2.00504e-05
2.02203e-05
2.09059e-05
1.68364e-05
1.6837e-05
1.71286e-05
1.7129e-05
2.02205e-05
2.09056e-05
1.68361e-05
1.68372e-05
1.71283e-05
1.71293e-05
1.68367e-05
1.71277e-05
1.7129e-05
2.02208e-05
2.0906e-05
1.68368e-05
1.71282e-05
1.7129e-05
2.09078e-05
2.10933e-05
2.18326e-05
1.72364e-05
1.72369e-05
1.75892e-05
1.75897e-05
2.10932e-05
2.18328e-05
1.72359e-05
1.72372e-05
1.75888e-05
1.75901e-05
1.72368e-05
1.75882e-05
1.75898e-05
2.10934e-05
2.18335e-05
1.72367e-05
1.75889e-05
1.75895e-05
2.18346e-05
2.20338e-05
2.28159e-05
1.7717e-05
1.77173e-05
1.81276e-05
1.81283e-05
2.20337e-05
2.28166e-05
1.77163e-05
1.77177e-05
1.8127e-05
1.81289e-05
1.77175e-05
1.81266e-05
1.81284e-05
2.20341e-05
2.28174e-05
1.77172e-05
1.81274e-05
1.81279e-05
2.28182e-05
2.3028e-05
2.38419e-05
1.8274e-05
1.82745e-05
1.87397e-05
1.874e-05
2.30289e-05
2.38416e-05
1.82731e-05
1.8275e-05
1.87388e-05
1.87407e-05
1.82747e-05
1.87381e-05
1.87403e-05
2.30294e-05
2.38427e-05
1.82741e-05
1.87391e-05
1.87395e-05
2.3844e-05
2.4063e-05
2.48957e-05
1.89035e-05
1.89038e-05
1.94199e-05
1.94202e-05
2.40631e-05
2.48959e-05
1.89023e-05
1.89044e-05
1.94188e-05
1.9421e-05
1.89042e-05
1.94182e-05
1.94206e-05
2.40639e-05
2.48969e-05
1.89034e-05
1.94193e-05
1.94195e-05
2.48987e-05
2.51239e-05
2.59667e-05
1.96002e-05
1.96001e-05
2.01627e-05
2.01632e-05
2.51238e-05
2.59672e-05
1.95988e-05
1.9601e-05
2.01613e-05
2.01641e-05
1.96005e-05
2.0161e-05
2.01639e-05
2.51248e-05
2.59683e-05
1.95994e-05
2.01622e-05
2.01625e-05
2.59705e-05
2.61987e-05
2.70463e-05
2.0358e-05
2.03583e-05
2.09633e-05
2.09634e-05
2.61999e-05
2.70455e-05
2.03563e-05
2.03592e-05
2.09616e-05
2.09641e-05
2.03589e-05
2.09612e-05
2.09645e-05
2.62006e-05
2.70466e-05
2.03574e-05
2.09622e-05
2.09628e-05
2.70491e-05
2.72799e-05
2.81241e-05
2.11717e-05
2.11716e-05
2.1815e-05
2.18148e-05
2.72796e-05
2.81234e-05
2.11697e-05
2.11723e-05
2.18131e-05
2.18169e-05
2.11729e-05
2.18126e-05
2.18159e-05
2.72804e-05
2.81264e-05
2.11711e-05
2.1815e-05
2.18139e-05
2.81263e-05
2.83589e-05
2.91931e-05
2.20354e-05
2.20354e-05
2.27116e-05
2.27113e-05
2.83588e-05
2.91929e-05
2.20332e-05
2.20365e-05
2.27094e-05
2.27123e-05
2.20361e-05
2.2709e-05
2.27133e-05
2.83611e-05
2.91929e-05
2.2034e-05
2.27103e-05
2.2711e-05
2.91971e-05
2.94265e-05
3.02506e-05
2.29418e-05
2.29413e-05
2.36471e-05
2.36461e-05
2.94261e-05
3.02495e-05
2.29393e-05
2.29434e-05
2.36447e-05
2.3648e-05
2.29438e-05
2.36439e-05
2.36474e-05
2.94276e-05
3.02516e-05
2.29414e-05
2.3646e-05
2.36449e-05
3.0252e-05
3.0483e-05
3.12888e-05
2.38863e-05
2.38853e-05
2.46139e-05
2.46136e-05
3.04821e-05
3.12894e-05
2.38838e-05
2.38865e-05
2.46111e-05
2.46152e-05
2.38868e-05
2.46114e-05
2.4616e-05
3.04824e-05
3.12911e-05
2.38841e-05
2.46134e-05
2.46131e-05
3.12937e-05
3.15174e-05
3.23106e-05
2.486e-05
2.48595e-05
2.56066e-05
2.56053e-05
3.15183e-05
3.23088e-05
2.48569e-05
2.48613e-05
2.56042e-05
2.56078e-05
2.48616e-05
2.56033e-05
2.56078e-05
3.15205e-05
3.23111e-05
2.48586e-05
2.56058e-05
2.56048e-05
3.23124e-05
3.2536e-05
3.33089e-05
2.58587e-05
2.58572e-05
2.66196e-05
2.66185e-05
3.25344e-05
3.33087e-05
2.5856e-05
2.58593e-05
2.66163e-05
2.66203e-05
2.58602e-05
2.66167e-05
2.6621e-05
3.25362e-05
3.33103e-05
2.5857e-05
2.66191e-05
2.66177e-05
3.3312e-05
3.35297e-05
3.42853e-05
2.68744e-05
2.68731e-05
2.76453e-05
2.76436e-05
3.35299e-05
3.42836e-05
2.68711e-05
2.68753e-05
2.76425e-05
2.76463e-05
2.68755e-05
2.76419e-05
2.76473e-05
3.35315e-05
3.42862e-05
2.68723e-05
2.76447e-05
2.76437e-05
3.42882e-05
3.45021e-05
3.52367e-05
2.79036e-05
2.79021e-05
2.8677e-05
2.86757e-05
3.45009e-05
3.52367e-05
2.79003e-05
2.79042e-05
2.86739e-05
2.86778e-05
2.79055e-05
2.86742e-05
2.86779e-05
3.4503e-05
3.52378e-05
2.79018e-05
2.86766e-05
2.86746e-05
3.52385e-05
3.54479e-05
3.61646e-05
2.89357e-05
2.89338e-05
2.97131e-05
2.97106e-05
3.54476e-05
3.61627e-05
2.89328e-05
2.89365e-05
2.97095e-05
2.97139e-05
2.89369e-05
2.97095e-05
2.97152e-05
3.54489e-05
3.61664e-05
2.89335e-05
2.97132e-05
2.97113e-05
3.6168e-05
3.63712e-05
3.70683e-05
2.9972e-05
2.99697e-05
3.07474e-05
3.07457e-05
3.63697e-05
3.70681e-05
2.99682e-05
2.99726e-05
3.07442e-05
3.07477e-05
2.99739e-05
3.07447e-05
3.07482e-05
3.63728e-05
3.70685e-05
2.997e-05
3.07467e-05
3.07447e-05
3.70693e-05
3.72684e-05
3.79433e-05
3.10035e-05
3.10017e-05
3.17717e-05
3.1769e-05
3.72681e-05
3.79419e-05
3.10001e-05
3.10038e-05
3.17681e-05
3.17725e-05
3.10044e-05
3.17685e-05
3.17736e-05
3.72686e-05
3.79454e-05
3.10009e-05
3.17722e-05
3.17698e-05
3.79464e-05
3.81406e-05
3.87953e-05
3.20302e-05
3.20274e-05
3.27865e-05
3.27836e-05
3.81391e-05
3.87941e-05
3.20266e-05
3.20309e-05
3.2783e-05
3.27867e-05
3.20319e-05
3.27831e-05
3.27877e-05
3.81423e-05
3.87961e-05
3.20281e-05
3.27862e-05
3.27839e-05
3.87966e-05
3.89822e-05
3.96341e-05
3.30344e-05
3.30316e-05
3.37987e-05
3.37956e-05
3.89812e-05
3.96328e-05
3.30306e-05
3.30341e-05
3.3795e-05
3.37988e-05
3.30359e-05
3.37955e-05
3.37994e-05
3.89829e-05
3.96353e-05
3.30321e-05
3.37989e-05
3.37957e-05
3.96353e-05
3.98193e-05
4.04119e-05
3.40469e-05
3.40433e-05
3.47563e-05
3.47539e-05
3.98175e-05
4.04124e-05
3.40431e-05
3.4047e-05
3.47525e-05
3.47568e-05
3.40474e-05
3.47546e-05
3.47578e-05
3.98204e-05
4.04139e-05
3.40437e-05
3.47572e-05
3.4754e-05
4.04148e-05
4.05958e-05
4.12322e-05
3.50082e-05
3.50059e-05
3.57577e-05
3.57537e-05
4.05969e-05
4.12289e-05
3.50044e-05
3.50086e-05
3.5754e-05
3.57574e-05
3.50089e-05
3.57531e-05
3.57606e-05
4.05978e-05
4.12327e-05
3.50051e-05
3.57564e-05
3.57569e-05
4.12348e-05
4.13913e-05
4.19248e-05
3.59808e-05
3.59761e-05
3.66484e-05
3.66433e-05
4.1387e-05
4.19237e-05
3.59768e-05
3.59801e-05
3.66445e-05
3.66481e-05
3.59832e-05
3.66471e-05
3.66448e-05
4.1391e-05
4.19273e-05
3.59796e-05
3.6652e-05
3.66412e-05
4.19216e-05
4.21185e-05
4.27763e-05
3.69003e-05
3.68977e-05
3.76468e-05
3.76478e-05
4.21203e-05
4.27768e-05
3.68966e-05
3.69005e-05
3.76428e-05
3.76477e-05
3.6903e-05
3.76447e-05
3.76495e-05
4.2122e-05
4.27773e-05
3.68991e-05
3.76451e-05
3.76456e-05
4.27749e-05
4.29026e-05
4.32575e-05
3.7864e-05
3.78587e-05
3.84211e-05
3.84087e-05
4.28961e-05
4.32455e-05
3.78596e-05
3.78634e-05
3.8418e-05
3.84172e-05
3.78541e-05
3.8413e-05
3.8426e-05
4.29012e-05
4.32547e-05
3.78506e-05
3.84185e-05
3.8423e-05
4.32746e-05
4.34564e-05
4.43551e-05
3.86277e-05
3.86242e-05
3.95052e-05
3.95131e-05
4.34573e-05
4.43669e-05
3.86252e-05
3.86269e-05
3.94999e-05
3.95115e-05
3.86528e-05
3.95186e-05
3.95032e-05
4.34576e-05
4.43649e-05
3.86492e-05
3.9519e-05
3.94991e-05
4.43327e-05
4.44784e-05
4.44384e-05
3.97874e-05
3.97858e-05
4.00801e-05
4.00605e-05
4.44785e-05
4.44073e-05
3.97818e-05
3.97889e-05
4.00761e-05
4.00714e-05
3.97663e-05
4.00546e-05
4.00516e-05
4.44832e-05
4.44247e-05
3.97627e-05
4.00632e-05
4.00484e-05
4.44167e-05
4.44882e-05
4.62547e-05
4.01524e-05
4.0136e-05
4.14656e-05
4.14793e-05
4.44596e-05
4.62878e-05
4.01491e-05
4.01452e-05
4.14624e-05
4.14729e-05
4.01409e-05
4.14899e-05
4.15027e-05
4.44744e-05
4.62717e-05
4.01374e-05
4.14868e-05
4.14997e-05
4.6281e-05
4.64859e-05
4.50895e-05
4.18392e-05
4.18423e-05
4.17474e-05
4.17323e-05
4.65081e-05
4.50569e-05
4.18347e-05
4.1841e-05
4.17426e-05
4.1741e-05
4.18423e-05
4.17323e-05
4.1718e-05
4.64975e-05
4.50781e-05
4.18396e-05
4.17373e-05
4.17146e-05
4.50414e-05
4.48673e-05
4.68133e-05
4.159e-05
4.15755e-05
4.23045e-05
4.23036e-05
4.48384e-05
4.68506e-05
4.15855e-05
4.15847e-05
4.22999e-05
4.23088e-05
4.15664e-05
4.23062e-05
4.23135e-05
4.48576e-05
4.68382e-05
4.15627e-05
4.23134e-05
4.23106e-05
4.6876e-05
4.84454e-05
5.35225e-05
4.4166e-05
4.41749e-05
4.78478e-05
4.78393e-05
4.84758e-05
5.35074e-05
4.41605e-05
4.41764e-05
4.78436e-05
4.78417e-05
4.41976e-05
4.78433e-05
4.78514e-05
4.84653e-05
5.35109e-05
4.41956e-05
4.78411e-05
4.78464e-05
5.35119e-05
5.35604e-05
4.7258e-05
4.79038e-05
4.78951e-05
4.50122e-05
4.50108e-05
5.35451e-05
4.72643e-05
4.79003e-05
4.78975e-05
4.50148e-05
4.50129e-05
4.79084e-05
4.50205e-05
4.50276e-05
5.35485e-05
4.72648e-05
4.7903e-05
4.50189e-05
4.50233e-05
4.72764e-05
4.61174e-05
4.14006e-05
4.30761e-05
4.30765e-05
3.96018e-05
3.95994e-05
4.61259e-05
4.14023e-05
4.30775e-05
4.30786e-05
3.95999e-05
3.96022e-05
4.3084e-05
3.96017e-05
3.95922e-05
4.61257e-05
4.14039e-05
4.30823e-05
3.96079e-05
3.95938e-05
4.1388e-05
4.12763e-05
4.31844e-05
3.92807e-05
3.92766e-05
3.98465e-05
3.98371e-05
4.12762e-05
4.31718e-05
3.92782e-05
3.92797e-05
3.98422e-05
3.98408e-05
3.92691e-05
3.98351e-05
3.98336e-05
4.12782e-05
4.31766e-05
3.92704e-05
3.98408e-05
3.98321e-05
4.31698e-05
4.41957e-05
4.92725e-05
4.13518e-05
4.13391e-05
4.6101e-05
4.60937e-05
4.41829e-05
4.92695e-05
4.13465e-05
4.1343e-05
4.60971e-05
4.60975e-05
4.13417e-05
4.60978e-05
4.6106e-05
4.41871e-05
4.92728e-05
4.13373e-05
4.60993e-05
4.61005e-05
4.92808e-05
5.0155e-05
5.36363e-05
4.74471e-05
4.74418e-05
5.06363e-05
5.0635e-05
5.01539e-05
5.36406e-05
4.74433e-05
4.74452e-05
5.06326e-05
5.06369e-05
4.74536e-05
5.064e-05
5.06408e-05
5.01562e-05
5.36415e-05
4.74486e-05
5.06426e-05
5.0638e-05
5.3642e-05
5.41418e-05
5.55817e-05
5.13947e-05
5.13936e-05
5.28045e-05
5.2802e-05
5.41462e-05
5.5583e-05
5.13911e-05
5.13953e-05
5.28019e-05
5.28048e-05
5.1398e-05
5.28057e-05
5.28061e-05
5.41465e-05
5.55849e-05
5.13959e-05
5.28098e-05
5.28049e-05
5.55855e-05
5.57358e-05
5.58966e-05
5.30327e-05
5.30295e-05
5.32696e-05
5.32642e-05
5.57363e-05
5.58942e-05
5.30305e-05
5.30327e-05
5.32681e-05
5.32688e-05
5.3034e-05
5.32682e-05
5.32696e-05
5.57385e-05
5.58977e-05
5.30329e-05
5.32724e-05
5.32683e-05
5.58969e-05
5.5908e-05
5.57168e-05
5.32722e-05
5.32665e-05
5.31848e-05
5.31773e-05
5.59051e-05
5.5712e-05
5.32707e-05
5.32712e-05
5.31835e-05
5.31828e-05
5.32719e-05
5.3182e-05
5.31824e-05
5.59088e-05
5.57162e-05
5.32706e-05
5.31862e-05
5.31812e-05
5.57129e-05
5.57212e-05
5.5613e-05
5.31387e-05
5.31313e-05
5.30649e-05
5.30587e-05
5.57164e-05
5.56095e-05
5.31372e-05
5.31366e-05
5.30631e-05
5.30632e-05
5.3136e-05
5.30633e-05
5.30632e-05
5.57205e-05
5.56132e-05
5.31348e-05
5.30673e-05
5.3062e-05
5.56102e-05
5.56276e-05
5.56424e-05
5.30597e-05
5.3054e-05
5.30731e-05
5.30691e-05
5.56243e-05
5.56421e-05
5.30578e-05
5.30582e-05
5.30712e-05
5.30725e-05
5.30585e-05
5.30734e-05
5.30735e-05
5.56278e-05
5.56446e-05
5.30573e-05
5.30771e-05
5.30722e-05
5.56436e-05
5.56712e-05
5.56941e-05
5.3091e-05
5.30872e-05
5.31307e-05
5.3127e-05
5.56709e-05
5.56938e-05
5.30891e-05
5.30905e-05
5.3129e-05
5.31302e-05
5.30917e-05
5.31313e-05
5.31318e-05
5.56733e-05
5.5696e-05
5.30904e-05
5.31344e-05
5.31304e-05
5.56955e-05
5.57168e-05
5.57179e-05
5.31395e-05
5.31356e-05
5.3154e-05
5.31494e-05
5.57165e-05
5.57171e-05
5.31378e-05
5.31389e-05
5.31523e-05
5.3153e-05
5.31405e-05
5.31539e-05
5.31542e-05
5.57185e-05
5.57192e-05
5.31391e-05
5.3157e-05
5.3153e-05
5.57188e-05
5.57372e-05
5.57114e-05
5.31553e-05
5.31504e-05
5.31553e-05
5.31502e-05
5.57362e-05
5.57088e-05
5.31536e-05
5.31541e-05
5.31536e-05
5.31541e-05
5.31552e-05
5.31546e-05
5.31549e-05
5.57383e-05
5.57122e-05
5.3154e-05
5.31582e-05
5.31538e-05
5.57104e-05
5.57276e-05
5.5721e-05
5.31552e-05
5.31501e-05
5.31563e-05
5.31514e-05
5.57252e-05
5.57197e-05
5.31536e-05
5.31541e-05
5.31546e-05
5.31556e-05
5.31549e-05
5.31559e-05
5.3156e-05
5.57284e-05
5.57226e-05
5.31537e-05
5.31596e-05
5.31548e-05
5.57213e-05
5.57413e-05
5.57086e-05
5.31569e-05
5.3152e-05
5.31564e-05
5.31513e-05
5.574e-05
5.5707e-05
5.31553e-05
5.31562e-05
5.31547e-05
5.31553e-05
5.31563e-05
5.31559e-05
5.31555e-05
5.57428e-05
5.57098e-05
5.31552e-05
5.31593e-05
5.31543e-05
5.57076e-05
5.57274e-05
5.57157e-05
5.31561e-05
5.3151e-05
5.31552e-05
5.31504e-05
5.57256e-05
5.57146e-05
5.31544e-05
5.31549e-05
5.31536e-05
5.31546e-05
5.31554e-05
5.31549e-05
5.31557e-05
5.57279e-05
5.57192e-05
5.31542e-05
5.31587e-05
5.31544e-05
5.57197e-05
5.57299e-05
5.57208e-05
5.31551e-05
5.31503e-05
5.31556e-05
5.31509e-05
5.57287e-05
5.57199e-05
5.31535e-05
5.31545e-05
5.31539e-05
5.31546e-05
5.31554e-05
5.31554e-05
5.31553e-05
5.57331e-05
5.57225e-05
5.31542e-05
5.31589e-05
5.31542e-05
5.57196e-05
5.57409e-05
5.57051e-05
5.31555e-05
5.31508e-05
5.3154e-05
5.31493e-05
5.574e-05
5.57039e-05
5.31538e-05
5.31543e-05
5.31524e-05
5.31528e-05
5.31552e-05
5.31537e-05
5.31537e-05
5.57423e-05
5.57058e-05
5.3154e-05
5.31571e-05
5.31526e-05
5.5705e-05
5.57238e-05
5.57212e-05
5.31541e-05
5.31493e-05
5.31553e-05
5.315e-05
5.57229e-05
5.57177e-05
5.31525e-05
5.31529e-05
5.31536e-05
5.31544e-05
5.31538e-05
5.31545e-05
5.31549e-05
5.5725e-05
5.57226e-05
5.31527e-05
5.31586e-05
5.31538e-05
5.57201e-05
5.57361e-05
5.57136e-05
5.31545e-05
5.31492e-05
5.3155e-05
5.31504e-05
5.57318e-05
5.57145e-05
5.31528e-05
5.31537e-05
5.31533e-05
5.31543e-05
5.31543e-05
5.31551e-05
5.31551e-05
5.57376e-05
5.57156e-05
5.31531e-05
5.31585e-05
5.31539e-05
5.57162e-05
5.57362e-05
5.57088e-05
5.31557e-05
5.31511e-05
5.31539e-05
5.31494e-05
5.57364e-05
5.57072e-05
5.31541e-05
5.31549e-05
5.31522e-05
5.31527e-05
5.31556e-05
5.31541e-05
5.31536e-05
5.5738e-05
5.57095e-05
5.31544e-05
5.3157e-05
5.31523e-05
5.57069e-05
5.57245e-05
5.57221e-05
5.31538e-05
5.31494e-05
5.31556e-05
5.31508e-05
5.57234e-05
5.57209e-05
5.31522e-05
5.31527e-05
5.31542e-05
5.31551e-05
5.31537e-05
5.31557e-05
5.3156e-05
5.57253e-05
5.57238e-05
5.31524e-05
5.31597e-05
5.31549e-05
5.57228e-05
5.57402e-05
5.57108e-05
5.31552e-05
5.31502e-05
5.3155e-05
5.31508e-05
5.57376e-05
5.57128e-05
5.31537e-05
5.31548e-05
5.31533e-05
5.3154e-05
5.31556e-05
5.31557e-05
5.31554e-05
5.57423e-05
5.57104e-05
5.31545e-05
5.31587e-05
5.31542e-05
5.57115e-05
5.57337e-05
5.57075e-05
5.31554e-05
5.31514e-05
5.31547e-05
5.31501e-05
5.57356e-05
5.57075e-05
5.31537e-05
5.31545e-05
5.31529e-05
5.31538e-05
5.31558e-05
5.31549e-05
5.31544e-05
5.57321e-05
5.57109e-05
5.31546e-05
5.31586e-05
5.31534e-05
5.57079e-05
5.57262e-05
5.57143e-05
5.31552e-05
5.31502e-05
5.31549e-05
5.31501e-05
5.57252e-05
5.57109e-05
5.31533e-05
5.31541e-05
5.31532e-05
5.31541e-05
5.31547e-05
5.31548e-05
5.31556e-05
5.57275e-05
5.57179e-05
5.31536e-05
5.31589e-05
5.31544e-05
5.57194e-05
5.57287e-05
5.57217e-05
5.31546e-05
5.31501e-05
5.31551e-05
5.31502e-05
5.57259e-05
5.57198e-05
5.31531e-05
5.3154e-05
5.31536e-05
5.31544e-05
5.31554e-05
5.31552e-05
5.31546e-05
5.57319e-05
5.57232e-05
5.31543e-05
5.3159e-05
5.31535e-05
5.57199e-05
5.57396e-05
5.57136e-05
5.31548e-05
5.31496e-05
5.31562e-05
5.31515e-05
5.5734e-05
5.57159e-05
5.31529e-05
5.31537e-05
5.31542e-05
5.3155e-05
5.31539e-05
5.3156e-05
5.31564e-05
5.57411e-05
5.57148e-05
5.31526e-05
5.31596e-05
5.31551e-05
5.57193e-05
5.57368e-05
5.57079e-05
5.31564e-05
5.31517e-05
5.31539e-05
5.31492e-05
5.57377e-05
5.57063e-05
5.31548e-05
5.31556e-05
5.31522e-05
5.3153e-05
5.31569e-05
5.3154e-05
5.31538e-05
5.57381e-05
5.57102e-05
5.31557e-05
5.31578e-05
5.31528e-05
5.57075e-05
5.57244e-05
5.57228e-05
5.31544e-05
5.31497e-05
5.31562e-05
5.31512e-05
5.57231e-05
5.57212e-05
5.31524e-05
5.31533e-05
5.31544e-05
5.31552e-05
5.31539e-05
5.31556e-05
5.31562e-05
5.57262e-05
5.57243e-05
5.31528e-05
5.31598e-05
5.31549e-05
5.57228e-05
5.57399e-05
5.57095e-05
5.31557e-05
5.31509e-05
5.31549e-05
5.31502e-05
5.57382e-05
5.57089e-05
5.31542e-05
5.3155e-05
5.31531e-05
5.31539e-05
5.31561e-05
5.31545e-05
5.31547e-05
5.5742e-05
5.571e-05
5.3155e-05
5.31582e-05
5.31535e-05
5.57089e-05
5.57327e-05
5.57108e-05
5.31558e-05
5.31509e-05
5.3155e-05
5.31502e-05
5.57322e-05
5.57085e-05
5.31538e-05
5.31547e-05
5.31533e-05
5.31542e-05
5.31553e-05
5.31545e-05
5.31549e-05
5.57328e-05
5.57128e-05
5.31541e-05
5.31584e-05
5.31538e-05
5.57114e-05
5.57262e-05
5.57225e-05
5.31552e-05
5.31504e-05
5.31551e-05
5.31504e-05
5.57241e-05
5.57209e-05
5.31535e-05
5.31543e-05
5.31534e-05
5.31543e-05
5.31552e-05
5.31547e-05
5.31551e-05
5.57281e-05
5.57238e-05
5.31541e-05
5.31585e-05
5.31539e-05
5.57226e-05
5.57396e-05
5.5712e-05
5.31556e-05
5.31508e-05
5.31544e-05
5.31497e-05
5.57375e-05
5.57119e-05
5.31539e-05
5.31548e-05
5.31528e-05
5.31537e-05
5.31556e-05
5.31543e-05
5.31546e-05
5.57408e-05
5.57142e-05
5.31544e-05
5.3158e-05
5.31535e-05
5.57135e-05
5.5735e-05
5.57088e-05
5.31556e-05
5.31509e-05
5.31542e-05
5.31495e-05
5.57346e-05
5.5707e-05
5.3154e-05
5.31549e-05
5.31525e-05
5.31533e-05
5.31558e-05
5.3154e-05
5.31543e-05
5.5737e-05
5.571e-05
5.31546e-05
5.31577e-05
5.31531e-05
5.57087e-05
5.57254e-05
5.57208e-05
5.31555e-05
5.31508e-05
5.31543e-05
5.31496e-05
5.5724e-05
5.57192e-05
5.31538e-05
5.31547e-05
5.31526e-05
5.31534e-05
5.31556e-05
5.31541e-05
5.31543e-05
5.57269e-05
5.5722e-05
5.31544e-05
5.31578e-05
5.31532e-05
5.57211e-05
5.57361e-05
5.57177e-05
5.31562e-05
5.31515e-05
5.31539e-05
5.31492e-05
5.57343e-05
5.57165e-05
5.31545e-05
5.31553e-05
5.31522e-05
5.3153e-05
5.31562e-05
5.31537e-05
5.31539e-05
5.5737e-05
5.57193e-05
5.3155e-05
5.31574e-05
5.31527e-05
5.57167e-05
5.57391e-05
5.57084e-05
5.31572e-05
5.31525e-05
5.31534e-05
5.31487e-05
5.57379e-05
5.5707e-05
5.31555e-05
5.31563e-05
5.31517e-05
5.31525e-05
5.31572e-05
5.31532e-05
5.31533e-05
5.57405e-05
5.57097e-05
5.3156e-05
5.31568e-05
5.3152e-05
5.57078e-05
5.5729e-05
5.57095e-05
5.31582e-05
5.31535e-05
5.31521e-05
5.31474e-05
5.57274e-05
5.57083e-05
5.31565e-05
5.31572e-05
5.31503e-05
5.31511e-05
5.3158e-05
5.31518e-05
5.3152e-05
5.57301e-05
5.5711e-05
5.31567e-05
5.31554e-05
5.31507e-05
5.57134e-05
5.57243e-05
5.55134e-05
5.31394e-05
5.31346e-05
5.29711e-05
5.29657e-05
5.57228e-05
5.55119e-05
5.31377e-05
5.31381e-05
5.29707e-05
5.29685e-05
5.31389e-05
5.29719e-05
5.29696e-05
5.57255e-05
5.55143e-05
5.31376e-05
5.29748e-05
5.29695e-05
5.55146e-05
5.53302e-05
5.19177e-05
5.19124e-05
5.53281e-05
5.19179e-05
5.19152e-05
4.04309e-05
4.04335e-05
4.04319e-05
5.19159e-05
5.53304e-05
5.19165e-05
3.73773e-05
3.73765e-05
3.7377e-05
3.7377e-05
3.73701e-05
3.73777e-05
3.73043e-05
3.73768e-05
3.73701e-05
3.73777e-05
3.73768e-05
3.73043e-05
3.73741e-05
3.72959e-05
3.72959e-05
3.58805e-05
4.08712e-05
3.66032e-05
4.51454e-05
5.51149e-05
6.48951e-05
3.58803e-05
4.08723e-05
3.66033e-05
4.51456e-05
3.58932e-05
3.58932e-05
3.58932e-05
3.44005e-05
3.44005e-05
3.44005e-05
3.44005e-05
3.52758e-05
3.56379e-05
3.58929e-05
3.53771e-05
3.60475e-05
3.42378e-05
3.53822e-05
5.51167e-05
6.48973e-05
3.52759e-05
3.58929e-05
3.56377e-05
3.53771e-05
3.60475e-05
3.53822e-05
3.42375e-05
3.65966e-05
3.65975e-05
3.5279e-05
3.40645e-05
3.40634e-05
3.39676e-05
5.13523e-05
3.46791e-05
5.46243e-05
7.65453e-05
8.08615e-05
3.39674e-05
5.13534e-05
3.46792e-05
5.46252e-05
3.39296e-05
3.39296e-05
3.39297e-05
3.25854e-05
3.25854e-05
3.25855e-05