/*--------------------------------*- C++ -*----------------------------------*\
| =========                 |                                                 |
| \\      /  F ield         | OpenFOAM: The Open Source CFD Toolbox           |
|  \\    /   O peration     | Version:  v2012                                 |
|   \\  /    A nd           | Website:  www.openfoam.com                      |
|    \\/     M anipulation  |                                                 |
\*---------------------------------------------------------------------------*/
FoamFile
{
    version     2.0;
    format      ascii;
    class       volScalarField;
    location    "250";
    object      nut;
}
// * * * * * * * * * * * * * * * * * * * * * * * * * * * * * * * * * * * * * //

dimensions      [0 2 -1 0 0 0 0];


internalField   nonuniform List<scalar> 
171728
(
0.000233973
0.000233116
0.000233116
0.000233423
0.000232532
0.000227802
0.000227801
0.000223866
0.000230516
0.000220319
0.000220318
0.000209109
0.000227799
0.000211664
0.000211662
0.000193784
0.000224433
0.000202648
0.000202645
0.000179707
0.000220552
0.00019377
0.000193767
0.000167336
0.000216305
0.000185273
0.00018527
0.000156584
0.000211821
0.000177231
0.000177228
0.000147203
0.000207208
0.000169686
0.000169683
0.000138946
0.000202546
0.000162609
0.000162605
0.00013161
0.000197891
0.000155948
0.000155944
0.00012495
0.000193277
0.000149645
0.000149641
0.000118815
0.000188685
0.000143666
0.000143658
0.000113133
0.000184152
0.000137953
0.000137942
0.000107906
0.000179708
0.000132461
0.000132453
0.000103042
0.000175341
0.000127189
0.000127189
9.84245e-05
0.000171037
0.000122142
0.000122135
9.42407e-05
0.000166788
0.000117366
0.000117364
9.06505e-05
0.000162589
0.000112881
0.00011288
8.77326e-05
0.000158418
0.000108749
0.000108751
8.53604e-05
0.000154266
0.000105016
0.000105016
8.36435e-05
0.000150146
0.000101702
0.000101701
8.25726e-05
0.000146066
9.88861e-05
9.88868e-05
8.21018e-05
0.000142049
9.6578e-05
9.65796e-05
8.21552e-05
0.00013812
9.47897e-05
9.47923e-05
8.2688e-05
0.000134297
9.35162e-05
9.35186e-05
8.36635e-05
0.000130634
9.27452e-05
9.2748e-05
8.50157e-05
0.000127157
9.24615e-05
9.24648e-05
8.66913e-05
0.000123903
9.26349e-05
9.26386e-05
8.86364e-05
0.000120903
9.32337e-05
9.32393e-05
9.07903e-05
0.000118189
9.42246e-05
9.42302e-05
9.31147e-05
0.000115793
9.55654e-05
9.55679e-05
9.556e-05
0.000113733
9.72305e-05
9.72367e-05
9.81002e-05
0.000112023
9.91674e-05
9.91786e-05
0.000100723
0.000110679
0.000101359
0.000101362
0.000103374
0.0001097
0.000103764
0.000103773
0.000106083
0.000109091
0.000106345
0.000106353
0.000108798
0.000108844
0.000109084
0.000109093
0.000111524
0.000108963
0.000111957
0.000111964
0.000114255
0.000109421
0.000114907
0.000114916
0.000116956
0.000110215
0.000117958
0.000117973
0.000119669
0.000111344
0.000121074
0.000121078
0.000122336
0.000112767
0.000124243
0.000124258
0.000125001
0.000114429
0.000127369
0.000127376
0.000127583
0.000116523
0.000130684
0.000130697
0.000130269
0.000118601
0.000133764
0.00013377
0.000132683
0.000121224
0.000137059
0.000137069
0.000135396
0.000123741
0.000140134
0.000140142
0.000137624
0.000126838
0.000143682
0.000143704
0.000140547
0.000129386
0.000145901
0.00014589
0.000142097
0.000133442
0.000151414
0.000151424
0.00014652
0.000134968
0.000150782
0.000150827
0.000144685
0.000141628
0.000160976
0.000160951
0.000156132
0.000142615
0.00015648
0.000156507
0.000144587
0.000148206
0.000170245
0.000170289
0.000160976
0.000181521
0.00020284
0.000202801
0.000200427
0.000166243
0.000169823
0.000169814
0.0001574
0.000131909
0.000139294
0.000139325
0.00012443
0.000129388
0.000147553
0.000147569
0.000134839
0.000189249
0.000187956
0.000187951
0.000166328
0.000242159
0.000217406
0.000217411
0.000189845
0.000271155
0.000230767
0.00023078
0.000200154
0.00027929
0.000232992
0.000233006
0.000201535
0.000279302
0.000231967
0.00023198
0.000200359
0.000277823
0.000231269
0.000231282
0.000199679
0.000277788
0.000231492
0.000231501
0.000199935
0.000278546
0.000231886
0.000231891
0.000200226
0.000278892
0.000232012
0.000232019
0.00020036
0.000278939
0.000232009
0.000232019
0.000200283
0.000278949
0.000232025
0.000232035
0.000200383
0.000278947
0.000232018
0.000232026
0.000200276
0.000278941
0.000232012
0.000232024
0.000200335
0.000278938
0.000232018
0.000232025
0.000200378
0.000278929
0.000232005
0.000232012
0.000200262
0.000278928
0.000232004
0.000232019
0.000200341
0.000278934
0.00023202
0.000232028
0.000200356
0.000278929
0.000232007
0.000232009
0.000200258
0.000278935
0.000232015
0.00023203
0.000200384
0.000278934
0.000232025
0.000232028
0.000200335
0.000278936
0.000232015
0.000232025
0.000200264
0.000278936
0.000232015
0.000232026
0.000200325
0.000278937
0.000232009
0.000232021
0.00020034
0.000278948
0.00023203
0.00023204
0.000200382
0.000278943
0.000232009
0.000232018
0.00020028
0.000278947
0.000232022
0.000232036
0.000200393
0.000278946
0.000232017
0.000232026
0.000200312
0.000278946
0.000232015
0.000232026
0.000200273
0.000278946
0.000232018
0.000232028
0.000200363
0.000278945
0.000232019
0.000232029
0.000200344
0.000278945
0.000232017
0.000232027
0.00020028
0.000278946
0.000232021
0.00023203
0.000200364
0.000278947
0.000232025
0.000232035
0.00020037
0.000278949
0.000232028
0.000232038
0.000200284
0.000279038
0.000231927
0.000231936
0.000200337
0.000283509
0.000234257
0.00023427
0.000204781
0.000234266
0.000234448
0.000234449
0.000234267
0.000234448
0.000234449
0.000234274
0.000234274
0.000234274
0.000234274
0.000234448
0.000234448
0.000234266
0.000234448
0.000234448
0.000234266
0.000233423
0.000226205
0.000233116
0.000233114
0.000229361
0.000229357
0.000233422
0.000226204
0.000233114
0.000233114
0.000229359
0.000229356
0.000233116
0.000229364
0.00022936
0.000233423
0.000226203
0.000233114
0.000229363
0.000229359
0.000226201
0.000223868
0.000212232
0.000227799
0.000227794
0.000222332
0.000222326
0.000223867
0.000212232
0.000227797
0.000227793
0.000222333
0.000222325
0.000227797
0.000222337
0.000222329
0.000223867
0.000212229
0.000227796
0.000222336
0.000222331
0.000212225
0.000209113
0.000197064
0.000220313
0.000220307
0.00021388
0.000213873
0.00020911
0.000197063
0.000220315
0.000220305
0.000213885
0.000213871
0.00022031
0.000213889
0.000213876
0.00020911
0.000197059
0.000220312
0.000213886
0.000213881
0.000197053
0.000193791
0.00018288
0.000211654
0.000211647
0.00020489
0.000204883
0.000193789
0.00018288
0.00021166
0.000211645
0.000204899
0.000204881
0.00021165
0.000204903
0.000204885
0.000193787
0.000182875
0.000211656
0.0002049
0.000204895
0.000182867
0.000179716
0.000170272
0.000202634
0.000202627
0.000195943
0.000195936
0.000179714
0.000170271
0.000202644
0.000202625
0.000195956
0.000195933
0.000202629
0.000195959
0.000195938
0.000179711
0.000170266
0.00020264
0.000195957
0.000195952
0.000170259
0.000167347
0.000159246
0.000193753
0.000193746
0.000187337
0.00018733
0.000167345
0.000159246
0.000193767
0.000193743
0.000187354
0.000187327
0.000193748
0.000187356
0.000187331
0.000167342
0.000159241
0.000193762
0.000187353
0.000187348
0.000159233
0.000156596
0.000149617
0.000185253
0.000185246
0.000179173
0.000179166
0.000156594
0.000149616
0.00018527
0.000185242
0.000179193
0.000179163
0.000185247
0.000179195
0.000179168
0.00015659
0.000149611
0.000185265
0.000179193
0.000179188
0.000149603
0.000147215
0.000141111
0.000177208
0.000177202
0.000171501
0.000171494
0.000147214
0.00014111
0.000177229
0.000177198
0.000171524
0.000171491
0.000177203
0.000171526
0.000171496
0.00014721
0.000141105
0.000177224
0.000171523
0.000171519
0.000141095
0.000138959
0.000133552
0.00016966
0.000169653
0.000164309
0.000164302
0.000138958
0.000133551
0.000169684
0.00016965
0.000164335
0.000164299
0.000169655
0.000164337
0.000164304
0.000138953
0.000133544
0.000169679
0.000164334
0.00016433
0.000133535
0.000131625
0.000126689
0.000162581
0.000162574
0.000157547
0.00015754
0.000131623
0.000126688
0.000162607
0.00016257
0.000157575
0.000157537
0.000162575
0.000157576
0.000157542
0.000131618
0.000126682
0.000162602
0.000157573
0.00015757
0.000126674
0.00012496
0.000120366
0.000155916
0.00015591
0.000151158
0.000151151
0.000124961
0.000120367
0.000155945
0.000155907
0.000151188
0.000151148
0.000155912
0.000151189
0.000151154
0.000124958
0.000120362
0.000155941
0.000151186
0.000151184
0.000120355
0.000118824
0.000114426
0.000149613
0.000149605
0.000145097
0.00014509
0.000118827
0.000114425
0.000149643
0.000149602
0.000145129
0.000145085
0.000149608
0.000145129
0.00014509
0.000118824
0.000114411
0.000149638
0.000145124
0.000145122
0.000114395
0.000113187
0.000108854
0.000143632
0.000143625
0.000139321
0.000139313
0.000113185
0.000108846
0.000143664
0.000143618
0.000139354
0.000139308
0.000143624
0.000139353
0.000139311
0.000113149
0.000108832
0.000143656
0.000139348
0.000139344
0.000108793
0.000107965
0.000103692
0.000137916
0.00013791
0.000133774
0.000133765
0.000107961
0.000103683
0.000137949
0.000137902
0.000133808
0.000133766
0.00013791
0.000133805
0.000133775
0.000107928
0.000103705
0.000137943
0.000133807
0.000133809
0.00010371
0.000103062
9.91596e-05
0.000132426
0.000132416
0.000128453
0.000128447
0.000103052
9.91732e-05
0.000132459
0.000132412
0.000128486
0.000128445
0.000132419
0.000128489
0.00012844
0.000103056
9.91785e-05
0.000132453
0.000128488
0.000128473
9.90963e-05
9.84767e-05
9.49975e-05
0.000127155
0.000127146
0.000123343
0.000123332
9.84812e-05
9.4993e-05
0.000127187
0.000127146
0.000123375
0.000123327
0.000127152
0.000123376
0.000123341
9.84933e-05
9.49787e-05
0.000127186
0.000123371
0.000123374
9.49751e-05
9.42529e-05
9.14516e-05
0.000122106
0.000122099
0.000118479
0.000118465
9.4252e-05
9.14375e-05
0.000122138
0.000122091
0.000118509
0.000118465
0.000122103
0.000118508
0.000118471
9.42331e-05
9.14501e-05
0.000122136
0.00011851
0.000118503
9.14262e-05
9.0669e-05
8.83607e-05
0.000117334
0.000117321
0.000113917
0.000113906
9.06544e-05
8.83653e-05
0.000117364
0.000117319
0.000113946
0.000113902
0.00011732
0.000113949
0.000113919
9.06657e-05
8.83577e-05
0.000117352
0.000113947
0.00011395
8.83857e-05
8.77142e-05
8.58983e-05
0.00011285
0.000112837
0.000109688
0.000109675
8.77139e-05
8.58954e-05
0.000112879
0.000112835
0.000109715
0.000109673
0.000112842
0.000109717
0.000109683
8.7711e-05
8.58909e-05
0.000112873
0.000109718
0.000109712
8.58982e-05
8.53643e-05
8.40682e-05
0.000108719
0.000108706
0.000105848
0.000105835
8.53642e-05
8.40636e-05
0.000108746
0.000108706
0.000105874
0.000105832
0.00010871
0.000105876
0.000105842
8.53633e-05
8.40552e-05
0.00010874
0.000105876
0.000105871
8.4064e-05
8.36492e-05
8.28815e-05
0.000104986
0.000104974
0.000102457
0.000102443
8.36488e-05
8.28707e-05
0.000105013
0.000104972
0.000102485
0.00010244
0.000104981
0.000102484
0.000102452
8.36432e-05
8.28663e-05
0.000105009
0.000102484
0.00010248
8.287e-05
8.25882e-05
8.22727e-05
0.000101674
0.000101661
9.95154e-05
9.95055e-05
8.25771e-05
8.22732e-05
0.000101701
0.000101658
9.95432e-05
9.95039e-05
0.000101667
9.95457e-05
9.95141e-05
8.25694e-05
8.2274e-05
0.000101695
9.95466e-05
9.95409e-05
8.22699e-05
8.21077e-05
8.22154e-05
9.88574e-05
9.88463e-05
9.70795e-05
9.70693e-05
8.21057e-05
8.2209e-05
9.8884e-05
9.88441e-05
9.71071e-05
9.70686e-05
9.88536e-05
9.71081e-05
9.70782e-05
8.2105e-05
8.22099e-05
9.88802e-05
9.71097e-05
9.7104e-05
8.22061e-05
8.21614e-05
8.26532e-05
9.65499e-05
9.65397e-05
9.51615e-05
9.51514e-05
8.21567e-05
8.26456e-05
9.65762e-05
9.65385e-05
9.51883e-05
9.51511e-05
9.65488e-05
9.51883e-05
9.51586e-05
8.2158e-05
8.26465e-05
9.65743e-05
9.51904e-05
9.51833e-05
8.26407e-05
8.27006e-05
8.35365e-05
9.47623e-05
9.47535e-05
9.37602e-05
9.37492e-05
8.2694e-05
8.35282e-05
9.4788e-05
9.4753e-05
9.37862e-05
9.37487e-05
9.47601e-05
9.37841e-05
9.37592e-05
8.26957e-05
8.35283e-05
9.47845e-05
9.37859e-05
9.37825e-05
8.35306e-05
8.36716e-05
8.48123e-05
9.34913e-05
9.34818e-05
9.2867e-05
9.2857e-05
8.36619e-05
8.4809e-05
9.3516e-05
9.34814e-05
9.28917e-05
9.28573e-05
9.34895e-05
9.289e-05
9.28666e-05
8.36623e-05
8.48115e-05
9.35125e-05
9.28928e-05
9.28885e-05
8.48074e-05
8.50213e-05
8.64264e-05
9.27241e-05
9.27129e-05
9.24652e-05
9.24583e-05
8.50129e-05
8.64271e-05
9.27476e-05
9.2713e-05
9.24888e-05
9.2459e-05
9.2723e-05
9.24892e-05
9.24661e-05
8.50147e-05
8.64293e-05
9.27446e-05
9.24923e-05
9.24867e-05
8.64226e-05
8.66954e-05
8.83187e-05
9.24392e-05
9.24312e-05
9.25314e-05
9.25215e-05
8.6695e-05
8.83118e-05
9.24615e-05
9.24315e-05
9.25535e-05
9.25234e-05
9.24398e-05
9.25505e-05
9.25301e-05
8.66971e-05
8.8316e-05
9.24599e-05
9.25549e-05
9.25491e-05
8.83126e-05
8.86426e-05
9.04242e-05
9.2615e-05
9.26067e-05
9.3029e-05
9.30202e-05
8.86366e-05
9.04221e-05
9.26358e-05
9.26074e-05
9.30499e-05
9.30226e-05
9.26161e-05
9.30475e-05
9.30286e-05
8.86403e-05
9.04246e-05
9.26347e-05
9.30521e-05
9.30461e-05
9.04247e-05
9.07961e-05
9.27054e-05
9.32182e-05
9.32067e-05
9.3922e-05
9.3916e-05
9.07901e-05
9.2705e-05
9.32379e-05
9.32098e-05
9.39413e-05
9.39183e-05
9.32151e-05
9.39413e-05
9.39256e-05
9.07942e-05
9.27083e-05
9.32322e-05
9.39461e-05
9.39417e-05
9.27096e-05
9.31087e-05
9.51337e-05
9.42069e-05
9.41998e-05
9.51839e-05
9.51759e-05
9.31113e-05
9.51254e-05
9.42251e-05
9.42026e-05
9.5202e-05
9.51751e-05
9.42081e-05
9.52001e-05
9.51866e-05
9.31133e-05
9.51267e-05
9.42238e-05
9.52015e-05
9.52009e-05
9.51304e-05
9.55589e-05
9.76583e-05
9.55505e-05
9.55419e-05
9.67703e-05
9.6761e-05
9.55522e-05
9.76506e-05
9.55676e-05
9.55417e-05
9.67871e-05
9.67723e-05
9.55541e-05
9.67841e-05
9.67705e-05
9.55528e-05
9.7667e-05
9.55681e-05
9.67977e-05
9.67838e-05
9.76517e-05
9.81085e-05
0.000100255
9.72151e-05
9.72079e-05
9.86467e-05
9.86387e-05
9.81025e-05
0.000100252
9.72309e-05
9.72117e-05
9.86624e-05
9.86385e-05
9.72134e-05
9.86602e-05
9.86531e-05
9.81158e-05
0.000100244
9.72262e-05
9.86619e-05
9.86647e-05
0.00010026
0.000100715
0.000102913
9.91549e-05
9.91461e-05
0.000100781
0.000100769
0.000100709
0.000102904
9.91693e-05
9.91545e-05
0.000100795
0.000100775
9.91642e-05
0.00010079
0.000100776
0.000100713
0.000102913
9.91755e-05
0.000100799
0.000100787
0.000102901
0.00010339
0.000105595
0.000101351
0.000101339
0.000103131
0.000103126
0.00010338
0.000105598
0.000101366
0.000101341
0.000103143
0.000103128
0.000101346
0.000103146
0.00010314
0.000103379
0.000105601
0.000101357
0.000103152
0.000103149
0.000105606
0.000106074
0.000108317
0.00010375
0.000103744
0.000105672
0.00010566
0.000106077
0.000108306
0.00010376
0.000103749
0.000105687
0.00010567
0.000103755
0.00010568
0.000105673
0.000106085
0.000108314
0.000103764
0.00010569
0.000105681
0.000108309
0.000108805
0.000111038
0.000106338
0.000106325
0.000108381
0.000108372
0.000108792
0.000111037
0.000106353
0.000106333
0.00010839
0.000108376
0.000106341
0.000108392
0.000108383
0.000108798
0.00011104
0.00010635
0.0001084
0.000108391
0.000111039
0.000111525
0.000113766
0.000109074
0.000109064
0.000111217
0.000111204
0.000111524
0.000113754
0.000109083
0.00010907
0.00011123
0.000111215
0.000109074
0.000111224
0.000111224
0.000111528
0.000113764
0.000109083
0.000111234
0.00011123
0.000113765
0.000114256
0.000116479
0.000111948
0.000111937
0.000114149
0.000114142
0.000114246
0.00011648
0.000111958
0.000111943
0.000114161
0.000114147
0.000111954
0.000114161
0.000114148
0.000114254
0.000116479
0.000111959
0.000114167
0.000114156
0.000116473
0.000116963
0.000119184
0.000114898
0.000114887
0.000117183
0.000117166
0.00011696
0.000119171
0.000114911
0.000114896
0.00011719
0.00011718
0.000114898
0.000117187
0.000117191
0.000116961
0.000119188
0.000114907
0.000117203
0.000117194
0.000119188
0.000119667
0.000121877
0.000117953
0.000117939
0.000120291
0.000120283
0.000119656
0.000121876
0.000117959
0.00011795
0.000120302
0.000120285
0.00011796
0.000120302
0.000120289
0.00011967
0.000121871
0.000117964
0.000120304
0.000120296
0.000121867
0.000122347
0.000124517
0.000121064
0.000121055
0.000123419
0.000123405
0.000122346
0.000124509
0.000121074
0.000121058
0.000123425
0.000123417
0.000121062
0.000123425
0.000123425
0.000122341
0.000124524
0.000121069
0.000123439
0.00012343
0.000124522
0.000124997
0.000127148
0.000124238
0.000124222
0.000126597
0.000126581
0.000124989
0.000127141
0.000124245
0.000124236
0.000126603
0.000126591
0.000124242
0.0001266
0.000126597
0.000125002
0.000127147
0.000124247
0.00012661
0.000126601
0.000127142
0.000127587
0.000129819
0.000127363
0.000127349
0.000129876
0.00012986
0.000127582
0.000129812
0.000127368
0.000127354
0.000129881
0.000129869
0.000127365
0.000129881
0.000129873
0.000127585
0.000129819
0.00012737
0.000129892
0.000129877
0.000129812
0.00013028
0.000132213
0.000130686
0.000130667
0.000132879
0.00013287
0.000130269
0.000132217
0.000130691
0.00013068
0.000132883
0.000132876
0.000130681
0.000132893
0.000132882
0.00013028
0.000132218
0.000130686
0.000132898
0.000132886
0.000132217
0.000132681
0.000135038
0.00013374
0.000133732
0.00013638
0.000136362
0.00013269
0.000135021
0.000133745
0.000133738
0.000136385
0.000136373
0.000133737
0.000136375
0.000136396
0.000132687
0.000135035
0.000133741
0.000136384
0.0001364
0.000135043
0.000135388
0.000137072
0.000137081
0.000137057
0.000139158
0.000139127
0.000135364
0.000137059
0.000137084
0.000137071
0.00013916
0.000139149
0.000137094
0.000139169
0.000139119
0.00013538
0.000137077
0.000137098
0.000139193
0.000139123
0.000137031
0.000137642
0.000140411
0.000140088
0.000140077
0.000142966
0.000142992
0.000137648
0.000140429
0.000140093
0.000140084
0.000142968
0.00014297
0.000140097
0.000142985
0.000142988
0.000137655
0.000140414
0.000140099
0.000142969
0.00014299
0.0001404
0.000140625
0.000141259
0.000143727
0.000143707
0.000145233
0.000145144
0.000140598
0.000141166
0.000143725
0.00014372
0.00014524
0.000145195
0.00014365
0.000145182
0.000145242
0.000140613
0.000141226
0.000143654
0.000145214
0.00014525
0.000141323
0.000141859
0.000146446
0.000145867
0.000145843
0.000149947
0.000150031
0.000141847
0.000146543
0.000145881
0.000145852
0.00014994
0.000149995
0.000146037
0.000150087
0.000149954
0.000141851
0.000146508
0.000146042
0.00015007
0.000149954
0.000146335
0.000146774
0.000145169
0.000151373
0.00015139
0.000151316
0.000151181
0.000146801
0.000144962
0.000151363
0.000151388
0.000151317
0.000151247
0.00015123
0.000151143
0.00015107
0.000146808
0.000145071
0.000151234
0.000151193
0.000151078
0.000144967
0.000144745
0.000154782
0.000150934
0.000150813
0.000158387
0.00015851
0.000144542
0.000155004
0.00015094
0.000150872
0.000158397
0.000158442
0.000150806
0.000158597
0.000158687
0.000144642
0.000154885
0.00015081
0.000158559
0.000158695
0.00015499
0.000156104
0.000147165
0.000160864
0.000160915
0.000158785
0.000158692
0.000156266
0.000146964
0.000160864
0.00016088
0.000158781
0.000158734
0.000160915
0.0001587
0.00015856
0.000156178
0.000147084
0.000160926
0.000158718
0.000158566
0.000146834
0.000144844
0.000151335
0.000156568
0.000156474
0.000157295
0.000157299
0.000144656
0.000151568
0.000156567
0.000156523
0.000157293
0.000157323
0.000156378
0.000157322
0.000157341
0.000144771
0.000151485
0.000156381
0.000157364
0.000157348
0.000151715
0.000160704
0.000199583
0.00017012
0.000170205
0.000200485
0.000200438
0.000160908
0.000199483
0.000170111
0.000170201
0.000200483
0.000200436
0.00017035
0.000200476
0.000200499
0.000160833
0.000199494
0.000170367
0.000200444
0.000200498
0.000199473
0.000200526
0.000165051
0.000202857
0.000202801
0.000184408
0.000184408
0.000200421
0.000165087
0.00020286
0.0002028
0.000184462
0.000184406
0.000202876
0.000184493
0.000184534
0.000200433
0.000165082
0.000202869
0.000184458
0.000184528
0.000165171
0.000157297
0.000126295
0.00016973
0.000169746
0.000142685
0.000142686
0.000157349
0.000126315
0.000169773
0.000169745
0.0001427
0.000142691
0.000169799
0.000142713
0.000142627
0.00015734
0.000126314
0.000169811
0.000142741
0.000142662
0.000126225
0.000124507
0.0001303
0.000139285
0.000139274
0.000138739
0.000138692
0.000124518
0.000130233
0.000139295
0.000139282
0.000138737
0.000138702
0.00013921
0.000138686
0.000138645
0.00012452
0.000130251
0.000139244
0.000138714
0.000138662
0.0001302
0.000134921
0.000161711
0.000147643
0.000147569
0.000178562
0.000178518
0.000134851
0.000161689
0.000147634
0.000147581
0.000178566
0.000178529
0.000147562
0.000178557
0.000178586
0.000134867
0.0001617
0.00014756
0.000178553
0.000178578
0.000161739
0.000166302
0.00018702
0.000187941
0.000187911
0.000211449
0.000211452
0.000166291
0.000187047
0.000187947
0.000187919
0.000211458
0.000211446
0.00018798
0.000211506
0.000211477
0.000166297
0.000187042
0.000187975
0.000211508
0.000211491
0.000187038
0.000189835
0.000199386
0.000217351
0.000217357
0.000228783
0.000228781
0.000189864
0.000199399
0.000217361
0.000217349
0.000228801
0.000228779
0.00021737
0.000228827
0.000228789
0.000189855
0.000199397
0.000217389
0.00022884
0.000228818
0.000199394
0.000200145
0.00020174
0.000230729
0.000230722
0.000232894
0.00023287
0.000200153
0.00020173
0.000230751
0.000230723
0.000232922
0.000232882
0.000230733
0.000232918
0.000232889
0.000200155
0.000201739
0.000230763
0.000232932
0.000232918
0.000201731
0.000201547
0.000200662
0.00023297
0.000232944
0.000232339
0.000232296
0.000201534
0.000200634
0.000232999
0.000232957
0.000232369
0.000232317
0.000232963
0.00023235
0.000232314
0.000201545
0.00020065
0.000232992
0.000232364
0.000232343
0.000200623
0.000200398
0.000199924
0.000231956
0.000231913
0.000231309
0.000231274
0.00020037
0.000199901
0.000231985
0.000231933
0.000231335
0.000231288
0.000231928
0.000231327
0.000231286
0.000200385
0.000199913
0.000231957
0.00023134
0.000231315
0.000199886
0.000199714
0.000200052
0.000231248
0.000231218
0.000231314
0.000231297
0.000199692
0.000200051
0.000231274
0.000231229
0.000231339
0.000231302
0.00023123
0.000231348
0.000231308
0.000199705
0.000200055
0.000231259
0.000231358
0.000231337
0.000200042
0.000199944
0.000200379
0.000231456
0.000231441
0.000231776
0.000231763
0.000199943
0.000200379
0.000231481
0.000231444
0.000231803
0.000231766
0.000231453
0.000231814
0.000231777
0.000199948
0.000200381
0.000231481
0.000231819
0.000231805
0.000200371
0.000200232
0.000200538
0.000231849
0.000231834
0.000231971
0.000231951
0.000200232
0.000200535
0.000231876
0.000231838
0.000231998
0.000231956
0.00023185
0.000232003
0.000231966
0.000200234
0.000200536
0.000231877
0.000232009
0.000231994
0.000200528
0.00020037
0.000200496
0.000231983
0.00023196
0.000231982
0.000231958
0.000200366
0.000200481
0.00023201
0.000231967
0.00023201
0.000231966
0.000231975
0.00023201
0.000231973
0.000200368
0.00020049
0.000232004
0.000232019
0.000232002
0.000200472
0.000200304
0.000200556
0.000231982
0.000231958
0.000231989
0.000231967
0.00020029
0.000200551
0.000232009
0.000231966
0.000232017
0.000231977
0.000231973
0.00023202
0.00023198
0.0002003
0.000200557
0.000232002
0.00023203
0.000232009
0.000200543
0.000200397
0.000200472
0.000231995
0.000231972
0.000231992
0.000231968
0.00020039
0.000200465
0.000232023
0.000231983
0.000232019
0.000231976
0.000231984
0.000232021
0.000231978
0.000200398
0.00020047
0.000232013
0.000232029
0.000232006
0.000200449
0.000200299
0.000200528
0.00023199
0.000231965
0.000231983
0.00023196
0.00020029
0.000200523
0.000232017
0.000231974
0.00023201
0.000231971
0.000231977
0.000232013
0.000231979
0.000200293
0.000200541
0.000232006
0.000232025
0.000232008
0.000200538
0.000200323
0.000200559
0.000231982
0.00023196
0.000231986
0.000231965
0.000200317
0.000200556
0.00023201
0.000231971
0.000232013
0.000231972
0.000231977
0.000232018
0.000231978
0.000200335
0.000200561
0.000232006
0.000232028
0.000232006
0.000200534
0.000200398
0.00020045
0.000231986
0.000231965
0.000231973
0.000231952
0.000200395
0.000200446
0.000232013
0.00023197
0.000232001
0.000231957
0.000231977
0.000232005
0.000231964
0.000200399
0.000200443
0.000232006
0.000232011
0.000231993
0.000200432
0.000200276
0.000200565
0.000231974
0.000231953
0.000231984
0.000231958
0.000200273
0.000200544
0.000232002
0.000231958
0.000232011
0.00023197
0.000231965
0.000232011
0.000231974
0.000200274
0.000200563
0.000231994
0.000232024
0.000232003
0.00020054
0.000200367
0.000200503
0.000231978
0.000231951
0.000231981
0.00023196
0.00020034
0.000200512
0.000232005
0.000231965
0.000232008
0.000231969
0.000231969
0.000232014
0.000231975
0.000200367
0.000200507
0.000231998
0.000232023
0.000232004
0.000200505
0.000200357
0.000200481
0.000231987
0.000231966
0.000231973
0.000231953
0.000200362
0.000200471
0.000232014
0.000231974
0.000231999
0.000231956
0.000231979
0.000232007
0.000231962
0.000200361
0.000200474
0.000232008
0.00023201
0.00023199
0.000200449
0.000200284
0.000200574
0.000231972
0.000231953
0.000231986
0.000231964
0.000200277
0.000200568
0.000231999
0.000231956
0.000232015
0.000231975
0.000231962
0.00023202
0.000231982
0.000200278
0.000200572
0.00023199
0.000232032
0.000232011
0.000200561
0.000200399
0.000200486
0.000231983
0.000231959
0.000231981
0.000231964
0.000200383
0.000200501
0.000232012
0.000231973
0.000232008
0.000231967
0.000231979
0.00023202
0.000231978
0.000200402
0.000200471
0.000232009
0.000232024
0.000232006
0.000200474
0.000200347
0.000200456
0.000231985
0.000231969
0.000231979
0.000231959
0.000200362
0.000200461
0.000232011
0.000231971
0.000232005
0.000231965
0.000231981
0.000232015
0.000231969
0.000200324
0.00020047
0.00023201
0.000232024
0.000231999
0.000200445
0.000200284
0.00020051
0.000231982
0.000231959
0.000231982
0.000231958
0.000200283
0.000200488
0.000232008
0.000231967
0.000232007
0.000231968
0.000231971
0.000232014
0.00023198
0.000200285
0.000200524
0.000232001
0.000232027
0.000232008
0.000200529
0.000200302
0.00020057
0.000231978
0.000231958
0.000231983
0.000231961
0.000200283
0.000200562
0.000232006
0.000231967
0.000232012
0.000231971
0.000231978
0.000232018
0.000231972
0.000200315
0.000200571
0.000232007
0.000232029
0.000232002
0.000200543
0.000200385
0.000200519
0.00023198
0.000231955
0.000231993
0.000231971
0.00020035
0.000200537
0.000232005
0.000231965
0.000232017
0.000231976
0.000231966
0.000232024
0.000231986
0.000200386
0.000200516
0.000231993
0.000232033
0.000232014
0.00020054
0.000200373
0.000200485
0.000231994
0.000231973
0.000231975
0.000231953
0.000200381
0.000200477
0.000232022
0.00023198
0.000232002
0.000231961
0.00023199
0.00023201
0.000231966
0.000200371
0.00020049
0.000232019
0.00023202
0.000231997
0.000200465
0.000200296
0.000200579
0.000231978
0.000231956
0.000231995
0.000231971
0.00020029
0.000200572
0.000232003
0.000231962
0.00023202
0.00023198
0.000231966
0.000232023
0.000231986
0.000200299
0.000200577
0.000231996
0.000232036
0.000232015
0.000200561
0.000200406
0.000200468
0.000231991
0.000231968
0.000231984
0.000231962
0.000200397
0.000200468
0.000232019
0.000231978
0.00023201
0.000231969
0.000231986
0.000232014
0.000231974
0.000200409
0.000200461
0.000232015
0.000232023
0.000232004
0.000200447
0.000200337
0.000200479
0.000231991
0.000231967
0.000231986
0.000231964
0.000200337
0.000200464
0.000232015
0.000231974
0.000232013
0.000231972
0.000231978
0.000232015
0.000231977
0.000200327
0.000200482
0.000232007
0.000232026
0.000232006
0.000200467
0.000200285
0.000200563
0.000231986
0.000231964
0.000231988
0.000231966
0.000200273
0.000200555
0.000232013
0.000231972
0.000232015
0.000231974
0.000231978
0.000232017
0.000231979
0.000200288
0.000200562
0.000232007
0.000232027
0.000232008
0.000200551
0.000200377
0.000200495
0.000231989
0.000231966
0.000231984
0.000231962
0.000200364
0.000200496
0.000232016
0.000231975
0.000232011
0.00023197
0.00023198
0.000232015
0.000231977
0.000200375
0.000200501
0.00023201
0.000232025
0.000232007
0.000200494
0.000200343
0.000200487
0.000231988
0.000231966
0.000231984
0.000231962
0.000200342
0.000200478
0.000232015
0.000231975
0.00023201
0.000231969
0.000231981
0.000232014
0.000231976
0.000200349
0.000200486
0.000232011
0.000232024
0.000232005
0.000200471
0.000200287
0.000200579
0.000231986
0.000231965
0.000231986
0.000231964
0.000200281
0.00020057
0.000232013
0.000231972
0.000232013
0.000231972
0.000231979
0.000232017
0.000231978
0.00020029
0.000200575
0.000232008
0.000232027
0.000232008
0.000200558
0.000200375
0.000200551
0.00023199
0.000231968
0.000231985
0.000231964
0.000200367
0.000200543
0.000232017
0.000231976
0.000232012
0.000231971
0.000231982
0.000232016
0.000231976
0.000200374
0.000200547
0.000232011
0.000232026
0.000232006
0.000200516
0.000200398
0.000200481
0.000231994
0.000231973
0.000231985
0.000231963
0.000200391
0.000200469
0.000232021
0.00023198
0.000232012
0.00023197
0.000231986
0.000232015
0.000231976
0.000200396
0.000200473
0.000232015
0.000232025
0.000232004
0.000200453
0.000200326
0.000200519
0.000231998
0.000231976
0.000232065
0.000232043
0.000200313
0.000200511
0.000232025
0.000231984
0.000232091
0.000232051
0.000231989
0.000232094
0.000232058
0.000200318
0.000200515
0.000232018
0.000232105
0.000232086
0.000200528
0.000200339
0.000202332
0.000231899
0.000231875
0.000235578
0.00023556
0.000200328
0.000202326
0.000231926
0.000231883
0.000235603
0.000235571
0.000231888
0.000235601
0.000235575
0.000200333
0.000202334
0.000231916
0.000235614
0.000235601
0.000202336
0.000204783
0.000234238
0.000234221
0.000204772
0.00023426
0.000234232
0.000283504
0.00028352
0.000283519
0.000234235
0.00020478
0.000234258
0.00023473
0.000234746
0.000234729
0.000234729
0.000235118
0.000234798
0.000234702
0.000234727
0.000235118
0.000234798
0.000234727
0.000234701
0.000234867
0.000233566
0.000233566
0.000104652
3.8741e-05
0.000129114
3.98253e-05
2.16828e-05
2.28306e-05
0.000104655
3.87377e-05
0.000129112
3.98212e-05
0.000233973
0.000233973
0.000233973
0.000232935
0.000232935
0.000232935
0.000232935
0.0002062
9.36746e-05
0.000233969
0.000231994
0.000222612
8.72276e-05
0.000233611
2.16821e-05
2.28302e-05
0.000206193
0.000233969
9.36718e-05
0.000231994
0.000222617
0.000233611
8.72249e-05
4.77978e-05
4.77899e-05
0.000231344
4.40178e-05
4.40106e-05
7.25719e-05
4.24349e-05
8.14006e-05
4.37645e-05
2.47747e-05
2.54626e-05
7.25665e-05
4.24308e-05
8.13942e-05
4.37602e-05
0.000232532
0.000232532
0.000232532
0.000231084
0.000231084