/*--------------------------------*- C++ -*----------------------------------*\
| =========                 |                                                 |
| \\      /  F ield         | OpenFOAM: The Open Source CFD Toolbox           |
|  \\    /   O peration     | Version:  v2006                                 |
|   \\  /    A nd           | Website:  www.openfoam.com                      |
|    \\/     M anipulation  |                                                 |
\*---------------------------------------------------------------------------*/
FoamFile
{
    version     2.0;
    format      ascii;
    class       volScalarField;
    location    "250";
    object      p;
}
// * * * * * * * * * * * * * * * * * * * * * * * * * * * * * * * * * * * * * //

dimensions      [0 2 -2 0 0 0 0];


internalField   nonuniform List<scalar> 
171728
(
0.00361702
0.00361735
0.00361735
0.0036204
0.00356167
0.00356208
0.00356208
0.00356507
0.00351091
0.00351088
0.00351088
0.00351364
0.00345853
0.00345854
0.00345854
0.00346131
0.00340717
0.00340718
0.00340718
0.00340993
0.0033572
0.00335721
0.00335721
0.00335993
0.00330867
0.00330869
0.00330869
0.00331138
0.00326145
0.00326147
0.00326147
0.00326412
0.00321532
0.00321534
0.00321534
0.00321796
0.00317009
0.0031701
0.00317011
0.0031727
0.00312558
0.00312562
0.00312561
0.00312815
0.00308167
0.0030817
0.00308167
0.00308423
0.00303828
0.0030383
0.00303831
0.00304083
0.00299533
0.00299534
0.00299533
0.00299785
0.00295285
0.00295287
0.00295287
0.00295535
0.00291074
0.00291071
0.00291071
0.00291327
0.00286904
0.00286903
0.00286902
0.00287149
0.0028277
0.00282771
0.0028277
0.00283015
0.00278668
0.00278669
0.00278669
0.00278914
0.00274598
0.00274597
0.00274597
0.00274843
0.00270557
0.00270554
0.00270555
0.002708
0.00266543
0.00266539
0.00266539
0.00266784
0.00262554
0.00262549
0.00262549
0.00262793
0.00258588
0.00258583
0.00258583
0.00258826
0.00254646
0.0025464
0.0025464
0.00254882
0.00250725
0.00250719
0.00250719
0.00250959
0.00246824
0.00246819
0.00246819
0.00247058
0.00242944
0.00242939
0.00242939
0.00243176
0.00239083
0.00239079
0.00239079
0.00239314
0.00235241
0.00235237
0.00235237
0.0023547
0.00231417
0.00231414
0.00231414
0.00231644
0.00227611
0.00227608
0.00227608
0.00227836
0.00223821
0.00223819
0.00223819
0.00224045
0.00220048
0.00220046
0.00220046
0.0022027
0.0021629
0.00216289
0.00216289
0.00216511
0.00212548
0.00212546
0.00212546
0.00212767
0.0020882
0.00208819
0.00208819
0.00209037
0.00205106
0.00205105
0.00205105
0.00205322
0.00201406
0.00201405
0.00201404
0.0020162
0.00197719
0.00197717
0.00197717
0.00197931
0.00194045
0.00194042
0.00194042
0.00194255
0.00190382
0.00190378
0.00190378
0.0019059
0.0018673
0.00186725
0.00186725
0.00186937
0.00183089
0.00183084
0.00183084
0.00183294
0.00179457
0.00179451
0.00179451
0.0017966
0.00175838
0.00175831
0.00175831
0.0017604
0.00172221
0.00172213
0.00172213
0.0017242
0.00168624
0.00168617
0.00168617
0.00168826
0.00165019
0.00165006
0.00165007
0.00165212
0.00161447
0.00161443
0.00161443
0.00161651
0.0015785
0.00157828
0.00157828
0.00158031
0.00154318
0.00154318
0.00154317
0.00154522
0.00150705
0.00150682
0.00150682
0.0015089
0.00147251
0.00147222
0.00147222
0.00147389
0.00144165
0.00144138
0.00144137
0.00144327
0.00140029
0.0014001
0.0014001
0.00140248
0.00135913
0.00135965
0.00135966
0.00136202
0.00132747
0.00132759
0.00132759
0.00132943
0.0013001
0.00129929
0.00129929
0.00130058
0.0012713
0.00127026
0.00127026
0.00127156
0.00123933
0.00123868
0.00123868
0.0012403
0.00120449
0.00120423
0.00120423
0.00120615
0.00116825
0.00116818
0.00116818
0.00117024
0.00113162
0.00113162
0.00113162
0.00113372
0.00109503
0.001095
0.001095
0.0010971
0.00105848
0.00105844
0.00105844
0.00106053
0.00102193
0.0010219
0.0010219
0.00102398
0.000985374
0.000985346
0.000985346
0.000987432
0.000948806
0.000948778
0.000948778
0.000950865
0.00091223
0.000912203
0.000912203
0.00091429
0.00087565
0.000875622
0.000875622
0.000877711
0.000839069
0.000839041
0.000839041
0.000841129
0.000802484
0.000802457
0.000802457
0.000804544
0.000765902
0.000765874
0.000765874
0.000767963
0.000729322
0.000729293
0.000729293
0.000731381
0.000692742
0.000692715
0.000692715
0.000694802
0.000656158
0.00065613
0.00065613
0.000658219
0.000619569
0.00061954
0.00061954
0.000621629
0.000582973
0.000582946
0.000582946
0.000585035
0.00054638
0.000546354
0.000546353
0.000548442
0.000509804
0.000509777
0.000509777
0.000511865
0.000473239
0.000473209
0.000473209
0.000475295
0.000436666
0.000436637
0.000436637
0.000438724
0.000400087
0.000400061
0.000400061
0.000402148
0.000363504
0.000363476
0.000363475
0.000365563
0.000326917
0.00032689
0.00032689
0.000328977
0.000290329
0.000290302
0.000290303
0.00029239
0.000253744
0.000253716
0.000253715
0.000255801
0.000217157
0.00021713
0.00021713
0.000219215
0.000180572
0.000180547
0.000180547
0.000182628
0.000143987
0.000143961
0.000143961
0.000146037
0.000107399
0.000107376
0.000107376
0.000109437
7.08126e-05
7.07793e-05
7.07772e-05
7.28058e-05
3.49676e-05
3.43845e-05
3.43806e-05
3.62634e-05
6.15733e-06
7.32084e-06
7.31795e-06
5.31601e-06
0.00363043
0.00363065
0.00363065
0.00363043
0.00363065
0.00363065
0.00363142
0.00363142
0.00363142
0.00363142
0.00363065
0.00363065
0.00363043
0.00363066
0.00363065
0.00363043
0.0036204
0.00357165
0.00361735
0.00361735
0.00357393
0.00357393
0.0036204
0.00357165
0.00361735
0.00361735
0.00357392
0.00357392
0.00361735
0.00357392
0.00357393
0.0036204
0.00357164
0.00361735
0.00357392
0.00357392
0.00357165
0.00356508
0.00352057
0.00356209
0.00356209
0.00352401
0.00352401
0.00356508
0.00352057
0.00356208
0.00356208
0.00352401
0.00352401
0.00356208
0.00352401
0.00352401
0.00356507
0.00352056
0.00356208
0.00352401
0.00352401
0.00352056
0.00351364
0.0034682
0.00351089
0.00351089
0.00347156
0.00347155
0.00351364
0.00346819
0.00351088
0.00351088
0.00347155
0.00347155
0.00351088
0.00347155
0.00347155
0.00351364
0.0034682
0.00351088
0.00347155
0.00347155
0.00346819
0.00346131
0.00341664
0.00345854
0.00345854
0.00341991
0.00341991
0.00346131
0.00341664
0.00345854
0.00345854
0.00341991
0.00341991
0.00345854
0.0034199
0.00341991
0.00346131
0.00341664
0.00345854
0.00341991
0.00341991
0.00341664
0.00340993
0.00336643
0.00340718
0.00340719
0.00336957
0.00336957
0.00340994
0.00336643
0.00340718
0.00340718
0.00336957
0.00336957
0.00340718
0.00336956
0.00336957
0.00340993
0.00336643
0.00340718
0.00336957
0.00336957
0.00336643
0.00335993
0.00331767
0.00335721
0.00335721
0.00332069
0.0033207
0.00335993
0.00331768
0.00335721
0.00335721
0.00332069
0.00332069
0.00335721
0.00332069
0.00332069
0.00335993
0.00331767
0.00335721
0.00332069
0.00332069
0.00331767
0.00331137
0.00327025
0.00330869
0.00330869
0.00327316
0.00327316
0.00331137
0.00327025
0.00330869
0.00330869
0.00327316
0.00327316
0.00330869
0.00327316
0.00327316
0.00331138
0.00327025
0.00330869
0.00327316
0.00327316
0.00327025
0.00326412
0.00322395
0.00326147
0.00326147
0.00322678
0.00322678
0.00326412
0.00322394
0.00326147
0.00326147
0.00322678
0.00322678
0.00326147
0.00322678
0.00322677
0.00326412
0.00322395
0.00326147
0.00322678
0.00322678
0.00322395
0.00321795
0.00317858
0.00321533
0.00321533
0.00318134
0.00318135
0.00321796
0.00317858
0.00321533
0.00321534
0.00318135
0.00318133
0.00321534
0.00318135
0.00318134
0.00321795
0.00317858
0.00321534
0.00318133
0.00318134
0.00317857
0.00317269
0.00313394
0.00317011
0.0031701
0.00313665
0.00313666
0.00317269
0.00313396
0.00317011
0.00317011
0.00313665
0.00313668
0.0031701
0.00313666
0.00313669
0.00317271
0.00313396
0.0031701
0.00313668
0.00313669
0.00313395
0.00312817
0.00308995
0.0031256
0.00312562
0.0030926
0.0030926
0.00312817
0.00308993
0.0031256
0.00312561
0.0030926
0.00309261
0.00312559
0.00309259
0.0030926
0.00312816
0.00308992
0.00312559
0.00309261
0.0030926
0.00308992
0.00308425
0.00304646
0.00308171
0.0030817
0.00304914
0.00304913
0.00308424
0.00304646
0.00308171
0.00308167
0.00304914
0.00304908
0.00308167
0.00304913
0.00304906
0.00308423
0.00304644
0.00308167
0.00304908
0.00304905
0.00304645
0.0030408
0.00300342
0.0030383
0.0030383
0.00300606
0.00300605
0.00304079
0.00300343
0.0030383
0.00303831
0.00300606
0.00300603
0.00303833
0.00300605
0.00300607
0.00304081
0.00300342
0.00303833
0.00300603
0.00300607
0.00300342
0.00299785
0.00296088
0.00299533
0.00299534
0.00296344
0.00296345
0.00299786
0.00296088
0.00299533
0.00299533
0.00296344
0.00296343
0.00299534
0.00296345
0.00296339
0.00299785
0.00296087
0.00299534
0.00296343
0.00296339
0.00296085
0.00295537
0.00291869
0.00295289
0.00295287
0.00292127
0.00292126
0.00295536
0.00291868
0.00295289
0.00295287
0.00292127
0.00292126
0.00295285
0.00292126
0.00292125
0.00295535
0.00291868
0.00295285
0.00292126
0.00292125
0.00291873
0.00291321
0.00287692
0.00291072
0.00291071
0.0028794
0.0028794
0.00291321
0.00287693
0.00291072
0.00291071
0.0028794
0.0028794
0.00291079
0.0028794
0.00287945
0.00291321
0.00287692
0.00291079
0.0028794
0.00287945
0.00287691
0.00287152
0.00283554
0.00286902
0.00286903
0.00283797
0.00283796
0.00287152
0.00283554
0.00286902
0.00286902
0.00283797
0.00283796
0.00286901
0.00283796
0.00283798
0.00287152
0.00283554
0.00286901
0.00283796
0.00283798
0.00283551
0.00283018
0.00279448
0.0028277
0.0028277
0.00279688
0.00279688
0.00283018
0.00279448
0.0028277
0.0028277
0.00279688
0.00279688
0.00282766
0.00279688
0.00279687
0.00283018
0.00279448
0.00282766
0.00279688
0.00279687
0.00279445
0.00278916
0.00275372
0.00278669
0.00278669
0.0027561
0.0027561
0.00278916
0.00275372
0.00278669
0.00278669
0.0027561
0.0027561
0.00278666
0.0027561
0.00275609
0.00278916
0.00275372
0.00278666
0.0027561
0.00275609
0.00275371
0.00274843
0.00271325
0.00274597
0.00274597
0.00271561
0.00271561
0.00274843
0.00271325
0.00274597
0.00274597
0.00271561
0.00271561
0.00274596
0.00271561
0.0027156
0.00274843
0.00271326
0.00274596
0.00271561
0.0027156
0.00271325
0.002708
0.00267305
0.00270554
0.00270554
0.00267539
0.00267539
0.002708
0.00267306
0.00270554
0.00270555
0.00267539
0.00267539
0.00270554
0.00267539
0.00267539
0.002708
0.00267306
0.00270554
0.00267539
0.00267539
0.00267305
0.00266783
0.00263312
0.00266538
0.00266539
0.00263543
0.00263543
0.00266784
0.00263312
0.00266538
0.00266539
0.00263543
0.00263543
0.00266539
0.00263543
0.00263543
0.00266784
0.00263312
0.00266539
0.00263543
0.00263543
0.00263312
0.00262793
0.00259343
0.00262548
0.00262549
0.00259572
0.00259572
0.00262793
0.00259343
0.00262549
0.00262549
0.00259572
0.00259572
0.00262548
0.00259572
0.00259572
0.00262793
0.00259343
0.00262548
0.00259572
0.00259572
0.00259343
0.00258826
0.00255396
0.00258582
0.00258583
0.00255624
0.00255624
0.00258826
0.00255396
0.00258582
0.00258583
0.00255624
0.00255624
0.00258582
0.00255624
0.00255624
0.00258826
0.00255396
0.00258582
0.00255624
0.00255624
0.00255396
0.00254881
0.00251472
0.0025464
0.0025464
0.00251697
0.00251697
0.00254882
0.00251472
0.0025464
0.0025464
0.00251697
0.00251697
0.0025464
0.00251697
0.00251697
0.00254882
0.00251472
0.0025464
0.00251697
0.00251697
0.00251471
0.00250959
0.00247568
0.00250719
0.00250719
0.00247792
0.00247792
0.00250959
0.00247568
0.00250719
0.00250719
0.00247792
0.00247792
0.00250719
0.00247792
0.00247792
0.00250959
0.00247568
0.00250719
0.00247792
0.00247792
0.00247568
0.00247058
0.00243684
0.00246819
0.00246819
0.00243907
0.00243907
0.00247058
0.00243684
0.00246819
0.00246819
0.00243907
0.00243907
0.00246819
0.00243907
0.00243907
0.00247058
0.00243684
0.00246819
0.00243907
0.00243907
0.00243684
0.00243176
0.0023982
0.00242939
0.00242939
0.00240042
0.00240042
0.00243176
0.0023982
0.00242939
0.00242939
0.00240042
0.00240042
0.00242939
0.00240042
0.00240042
0.00243176
0.0023982
0.00242939
0.00240042
0.00240042
0.0023982
0.00239314
0.00235974
0.00239079
0.00239079
0.00236196
0.00236196
0.00239314
0.00235974
0.00239079
0.00239079
0.00236196
0.00236196
0.00239079
0.00236196
0.00236196
0.00239314
0.00235974
0.00239079
0.00236196
0.00236196
0.00235974
0.0023547
0.00232147
0.00235237
0.00235237
0.00232368
0.00232368
0.0023547
0.00232147
0.00235237
0.00235237
0.00232368
0.00232368
0.00235237
0.00232368
0.00232368
0.0023547
0.00232147
0.00235237
0.00232368
0.00232368
0.00232147
0.00231644
0.00228337
0.00231414
0.00231414
0.00228557
0.00228558
0.00231644
0.00228337
0.00231414
0.00231414
0.00228557
0.00228558
0.00231414
0.00228558
0.00228558
0.00231644
0.00228337
0.00231414
0.00228558
0.00228558
0.00228337
0.00227836
0.00224544
0.00227608
0.00227608
0.00224764
0.00224764
0.00227836
0.00224544
0.00227608
0.00227608
0.00224764
0.00224764
0.00227608
0.00224764
0.00224764
0.00227836
0.00224544
0.00227608
0.00224764
0.00224764
0.00224544
0.00224045
0.00220767
0.00223819
0.00223819
0.00220988
0.00220988
0.00224045
0.00220768
0.00223819
0.00223819
0.00220988
0.00220988
0.00223819
0.00220988
0.00220988
0.00224045
0.00220768
0.00223819
0.00220988
0.00220988
0.00220768
0.0022027
0.00217007
0.00220046
0.00220046
0.00217227
0.00217227
0.0022027
0.00217007
0.00220046
0.00220046
0.00217227
0.00217226
0.00220046
0.00217227
0.00217227
0.0022027
0.00217007
0.00220046
0.00217226
0.00217227
0.00217007
0.00216511
0.00213262
0.00216289
0.00216289
0.00213481
0.00213481
0.00216511
0.00213262
0.00216289
0.00216289
0.00213481
0.00213481
0.00216289
0.00213481
0.00213481
0.00216511
0.00213262
0.00216289
0.00213481
0.0021348
0.00213261
0.00212767
0.00209531
0.00212546
0.00212546
0.00209749
0.00209749
0.00212767
0.00209531
0.00212546
0.00212546
0.00209749
0.00209749
0.00212546
0.00209749
0.00209749
0.00212767
0.00209531
0.00212546
0.00209749
0.00209749
0.00209531
0.00209037
0.00205814
0.00208819
0.00208819
0.00206032
0.00206032
0.00209037
0.00205814
0.00208819
0.00208819
0.00206032
0.00206032
0.00208819
0.00206032
0.00206032
0.00209037
0.00205814
0.00208819
0.00206032
0.00206032
0.00205814
0.00205322
0.00202111
0.00205105
0.00205105
0.00202328
0.00202329
0.00205322
0.00202111
0.00205105
0.00205105
0.00202328
0.00202328
0.00205105
0.00202329
0.00202328
0.00205322
0.00202111
0.00205105
0.00202328
0.00202328
0.00202111
0.0020162
0.00198421
0.00201404
0.00201405
0.00198638
0.00198638
0.0020162
0.00198421
0.00201404
0.00201404
0.00198638
0.00198638
0.00201404
0.00198638
0.00198638
0.0020162
0.00198421
0.00201404
0.00198638
0.00198638
0.00198421
0.00197931
0.00194744
0.00197717
0.00197717
0.00194959
0.00194959
0.00197931
0.00194744
0.00197717
0.00197717
0.00194959
0.00194959
0.00197717
0.00194959
0.00194959
0.00197931
0.00194744
0.00197717
0.00194959
0.00194959
0.00194744
0.00194255
0.00191078
0.00194042
0.00194042
0.00191293
0.00191292
0.00194255
0.00191078
0.00194042
0.00194042
0.00191292
0.00191293
0.00194042
0.00191292
0.00191293
0.00194255
0.00191078
0.00194042
0.00191293
0.00191293
0.00191078
0.0019059
0.00187424
0.00190378
0.00190378
0.00187638
0.00187638
0.0019059
0.00187424
0.00190378
0.00190378
0.00187638
0.00187638
0.00190378
0.00187638
0.00187638
0.0019059
0.00187424
0.00190378
0.00187638
0.00187638
0.00187424
0.00186937
0.0018378
0.00186725
0.00186725
0.00183993
0.00183993
0.00186937
0.0018378
0.00186725
0.00186725
0.00183993
0.00183993
0.00186725
0.00183993
0.00183993
0.00186937
0.0018378
0.00186725
0.00183993
0.00183993
0.0018378
0.00183294
0.00180145
0.00183084
0.00183084
0.00180358
0.00180358
0.00183294
0.00180145
0.00183084
0.00183084
0.00180358
0.00180358
0.00183084
0.00180358
0.00180358
0.00183294
0.00180145
0.00183084
0.00180358
0.00180358
0.00180145
0.0017966
0.00176524
0.0017945
0.0017945
0.00176735
0.00176735
0.0017966
0.00176524
0.0017945
0.00179451
0.00176735
0.00176735
0.0017945
0.00176735
0.00176735
0.0017966
0.00176524
0.0017945
0.00176735
0.00176735
0.00176524
0.0017604
0.00172904
0.00175831
0.00175831
0.00173116
0.00173116
0.0017604
0.00172904
0.00175831
0.00175831
0.00173116
0.00173116
0.00175831
0.00173116
0.00173116
0.0017604
0.00172904
0.00175831
0.00173116
0.00173116
0.00172903
0.0017242
0.00169308
0.00172213
0.00172213
0.00169516
0.00169517
0.0017242
0.00169308
0.00172213
0.00172213
0.00169516
0.00169517
0.00172213
0.00169517
0.00169517
0.0017242
0.00169308
0.00172213
0.00169517
0.00169517
0.00169309
0.00168825
0.00165695
0.00168617
0.00168617
0.00165908
0.00165908
0.00168825
0.00165694
0.00168617
0.00168617
0.00165908
0.00165908
0.00168618
0.00165907
0.00165907
0.00168825
0.00165695
0.00168617
0.00165908
0.00165907
0.00165694
0.00165212
0.00162129
0.00165007
0.00165006
0.0016233
0.00162331
0.00165212
0.00162131
0.00165007
0.00165007
0.0016233
0.0016233
0.00165007
0.00162332
0.00162332
0.00165212
0.0016213
0.00165007
0.00162331
0.00162332
0.00162131
0.00161651
0.0015852
0.00161442
0.00161443
0.0015874
0.00158738
0.00161653
0.00158518
0.00161442
0.00161443
0.0015874
0.00158738
0.00161442
0.00158738
0.00158736
0.00161652
0.00158519
0.00161442
0.00158738
0.00158736
0.00158518
0.00158033
0.0015498
0.0015783
0.00157828
0.00155175
0.00155176
0.00158031
0.00154982
0.0015783
0.00157829
0.00155175
0.00155175
0.00157829
0.00155177
0.00155178
0.00158032
0.00154981
0.00157829
0.00155176
0.00155178
0.00154984
0.00154518
0.00151405
0.00154316
0.00154317
0.00151632
0.00151631
0.00154521
0.00151403
0.00154315
0.00154316
0.00151632
0.00151631
0.00154319
0.0015163
0.00151628
0.00154519
0.00151403
0.00154319
0.0015163
0.00151628
0.00151401
0.00150894
0.00147799
0.00150684
0.00150682
0.00147994
0.00147995
0.00150891
0.00147801
0.00150684
0.00150683
0.00147995
0.00147995
0.00150681
0.00147995
0.00147996
0.00150892
0.001478
0.00150681
0.00147996
0.00147997
0.00147802
0.00147387
0.00144807
0.00147221
0.00147222
0.00145009
0.00145008
0.00147388
0.00144804
0.00147221
0.00147222
0.00145009
0.00145009
0.00147222
0.00145007
0.00145006
0.00147388
0.00144805
0.00147222
0.00145006
0.00145005
0.00144802
0.00144331
0.00140846
0.0014414
0.00144138
0.00141113
0.00141113
0.00144329
0.00140847
0.0014414
0.00144139
0.00141113
0.00141113
0.00144137
0.00141113
0.00141114
0.0014433
0.00140847
0.00144137
0.00141113
0.00141114
0.00140848
0.00140246
0.00136697
0.00140009
0.0014001
0.00136877
0.00136876
0.00140246
0.00136696
0.0014001
0.0014001
0.00136877
0.00136877
0.00140011
0.00136876
0.00136876
0.00140246
0.00136697
0.00140011
0.00136877
0.00136876
0.00136695
0.00136203
0.00133348
0.00135965
0.00135965
0.00133507
0.00133506
0.00136202
0.00133347
0.00135966
0.00135966
0.00133507
0.00133507
0.00135964
0.00133506
0.00133507
0.00136203
0.00133347
0.00135965
0.00133506
0.00133506
0.00133347
0.00132943
0.00130446
0.00132759
0.00132759
0.00130641
0.00130641
0.00132943
0.00130447
0.00132759
0.00132759
0.00130641
0.00130641
0.00132759
0.00130642
0.00130642
0.00132943
0.00130446
0.00132759
0.00130642
0.00130642
0.00130447
0.00130058
0.00127556
0.00129929
0.00129929
0.00127767
0.00127767
0.00130058
0.00127556
0.00129929
0.00129929
0.00127767
0.00127767
0.00129929
0.00127767
0.00127767
0.00130058
0.00127556
0.00129929
0.00127767
0.00127767
0.00127555
0.00127156
0.00124474
0.00127026
0.00127026
0.00124687
0.00124687
0.00127156
0.00124474
0.00127026
0.00127026
0.00124687
0.00124687
0.00127026
0.00124687
0.00124687
0.00127156
0.00124474
0.00127026
0.00124687
0.00124687
0.00124474
0.0012403
0.00121095
0.00123868
0.00123867
0.00121305
0.00121305
0.0012403
0.00121095
0.00123868
0.00123867
0.00121305
0.00121305
0.00123867
0.00121305
0.00121305
0.0012403
0.00121095
0.00123868
0.00121305
0.00121305
0.00121095
0.00120615
0.00117519
0.00120423
0.00120423
0.00117728
0.00117728
0.00120615
0.00117519
0.00120423
0.00120423
0.00117728
0.00117728
0.00120423
0.00117728
0.00117728
0.00120615
0.00117519
0.00120423
0.00117728
0.00117728
0.00117519
0.00117024
0.0011387
0.00116818
0.00116818
0.00114077
0.00114077
0.00117024
0.0011387
0.00116818
0.00116818
0.00114077
0.00114077
0.00116818
0.00114077
0.00114077
0.00117024
0.0011387
0.00116818
0.00114077
0.00114077
0.0011387
0.00113372
0.00110208
0.00113162
0.00113162
0.00110415
0.00110415
0.00113372
0.00110208
0.00113162
0.00113162
0.00110415
0.00110415
0.00113162
0.00110415
0.00110415
0.00113372
0.00110208
0.00113162
0.00110415
0.00110415
0.00110208
0.0010971
0.0010655
0.001095
0.001095
0.00106758
0.00106758
0.0010971
0.0010655
0.001095
0.001095
0.00106758
0.00106758
0.001095
0.00106758
0.00106758
0.0010971
0.0010655
0.001095
0.00106758
0.00106758
0.0010655
0.00106052
0.00102896
0.00105844
0.00105844
0.00103103
0.00103103
0.00106052
0.00102896
0.00105844
0.00105844
0.00103103
0.00103103
0.00105844
0.00103103
0.00103104
0.00106052
0.00102896
0.00105844
0.00103103
0.00103103
0.00102896
0.00102398
0.000992412
0.0010219
0.0010219
0.000994486
0.000994486
0.00102398
0.000992412
0.0010219
0.0010219
0.000994486
0.000994486
0.0010219
0.000994486
0.000994486
0.00102398
0.000992412
0.0010219
0.000994486
0.000994486
0.000992411
0.000987431
0.000955847
0.000985346
0.000985346
0.000957921
0.000957921
0.000987431
0.000955847
0.000985346
0.000985346
0.000957921
0.000957921
0.000985346
0.000957921
0.000957921
0.000987432
0.000955846
0.000985346
0.000957921
0.000957921
0.000955846
0.000950865
0.000919273
0.000948778
0.000948778
0.000921348
0.000921348
0.000950865
0.000919273
0.000948778
0.000948778
0.000921348
0.000921348
0.000948778
0.000921348
0.000921348
0.000950865
0.000919272
0.000948778
0.000921348
0.000921348
0.000919272
0.00091429
0.000882693
0.000912203
0.000912203
0.000884767
0.000884766
0.00091429
0.000882693
0.000912203
0.000912203
0.000884767
0.000884767
0.000912203
0.000884766
0.000884767
0.00091429
0.000882693
0.000912203
0.000884767
0.000884767
0.000882692
0.000877711
0.000846112
0.000875622
0.000875622
0.000848187
0.000848187
0.00087771
0.000846112
0.000875622
0.000875622
0.000848187
0.000848187
0.000875622
0.000848187
0.000848187
0.000877711
0.000846111
0.000875622
0.000848187
0.000848187
0.000846111
0.000841128
0.000809528
0.000839041
0.000839041
0.000811603
0.000811603
0.000841128
0.000809528
0.000839041
0.000839041
0.000811603
0.000811603
0.000839041
0.000811603
0.000811603
0.000841129
0.000809527
0.000839041
0.000811603
0.000811603
0.000809527
0.000804544
0.000772945
0.000802457
0.000802457
0.000775019
0.000775019
0.000804543
0.000772945
0.000802457
0.000802457
0.000775019
0.000775019
0.000802457
0.000775019
0.000775019
0.000804544
0.000772945
0.000802457
0.000775019
0.000775019
0.000772944
0.000767962
0.000736363
0.000765874
0.000765874
0.000738439
0.000738439
0.000767962
0.000736364
0.000765874
0.000765874
0.000738439
0.000738439
0.000765875
0.000738439
0.000738439
0.000767963
0.000736363
0.000765874
0.000738439
0.000738439
0.000736363
0.00073138
0.000699785
0.000729293
0.000729293
0.000701861
0.000701861
0.00073138
0.000699785
0.000729293
0.000729293
0.000701861
0.000701861
0.000729294
0.000701861
0.000701861
0.000731381
0.000699785
0.000729293
0.000701861
0.000701861
0.000699784
0.000694802
0.0006632
0.000692715
0.000692715
0.000665275
0.000665274
0.000694801
0.000663201
0.000692715
0.000692715
0.000665274
0.000665275
0.000692715
0.000665275
0.000665275
0.000694802
0.0006632
0.000692715
0.000665275
0.000665275
0.0006632
0.000658218
0.000626614
0.00065613
0.00065613
0.000628689
0.000628689
0.000658218
0.000626614
0.00065613
0.00065613
0.000628689
0.000628689
0.000656131
0.000628689
0.000628689
0.000658218
0.000626614
0.000656131
0.000628689
0.000628689
0.000626613
0.000621628
0.000590021
0.00061954
0.00061954
0.000592097
0.000592097
0.000621628
0.000590021
0.00061954
0.00061954
0.000592097
0.000592097
0.00061954
0.000592097
0.000592097
0.000621629
0.000590021
0.00061954
0.000592097
0.000592097
0.00059002
0.000585034
0.000553426
0.000582947
0.000582946
0.0005555
0.0005555
0.000585034
0.000553426
0.000582946
0.000582946
0.0005555
0.000555499
0.000582946
0.0005555
0.000555499
0.000585035
0.000553425
0.000582946
0.000555499
0.000555499
0.000553424
0.000548442
0.000516845
0.000546353
0.000546353
0.000518918
0.000518918
0.000548442
0.000516845
0.000546354
0.000546353
0.000518918
0.000518919
0.000546353
0.000518918
0.000518919
0.000548442
0.000516845
0.000546353
0.000518919
0.000518919
0.000516845
0.000511864
0.000480276
0.000509777
0.000509776
0.000482352
0.000482351
0.000511864
0.000480276
0.000509777
0.000509777
0.000482352
0.000482352
0.000509777
0.000482351
0.000482352
0.000511865
0.000480276
0.000509777
0.000482352
0.000482352
0.000480276
0.000475294
0.000443706
0.000473209
0.000473209
0.000445782
0.000445782
0.000475294
0.000443706
0.000473209
0.000473209
0.000445782
0.000445782
0.000473209
0.000445782
0.000445782
0.000475294
0.000443706
0.000473209
0.000445782
0.000445781
0.000443705
0.000438723
0.00040713
0.000436637
0.000436637
0.000409204
0.000409204
0.000438723
0.00040713
0.000436637
0.000436637
0.000409204
0.000409204
0.000436637
0.000409204
0.000409204
0.000438723
0.000407129
0.000436637
0.000409203
0.000409203
0.000407129
0.000402147
0.000370547
0.00040006
0.000400061
0.000372622
0.000372622
0.000402147
0.000370547
0.000400061
0.000400061
0.000372622
0.000372622
0.000400061
0.000372622
0.000372622
0.000402147
0.000370547
0.00040006
0.000372622
0.000372622
0.000370546
0.000365562
0.000333962
0.000363475
0.000363475
0.000336037
0.000336037
0.000365562
0.000333962
0.000363476
0.000363476
0.000336036
0.000336036
0.000363476
0.000336035
0.000336036
0.000365562
0.000333961
0.000363475
0.000336037
0.000336037
0.000333961
0.000328976
0.000297373
0.000326889
0.000326889
0.000299447
0.000299447
0.000328977
0.000297373
0.000326889
0.000326889
0.000299446
0.000299447
0.00032689
0.000299446
0.000299446
0.000328976
0.000297373
0.00032689
0.000299447
0.000299446
0.000297372
0.000292389
0.000260787
0.000290302
0.000290302
0.000262861
0.000262861
0.000292389
0.000260787
0.000290302
0.000290302
0.00026286
0.00026286
0.000290302
0.000262861
0.000262861
0.00029239
0.000260786
0.000290302
0.00026286
0.000262861
0.000260786
0.000255801
0.000224201
0.000253716
0.000253716
0.000226275
0.000226276
0.000255801
0.000224201
0.000253715
0.000253716
0.000226275
0.000226275
0.000253715
0.000226275
0.000226276
0.000255802
0.000224201
0.000253715
0.000226276
0.000226276
0.000224201
0.000219213
0.000187617
0.000217131
0.000217131
0.000189689
0.000189689
0.000219213
0.000187617
0.00021713
0.00021713
0.00018969
0.00018969
0.000217131
0.000189689
0.00018969
0.000219213
0.000187617
0.000217131
0.000189689
0.000189689
0.000187617
0.000182626
0.000151034
0.000180546
0.000180546
0.000153104
0.000153104
0.000182626
0.000151034
0.000180547
0.000180547
0.000153103
0.000153103
0.000180547
0.000153103
0.000153103
0.000182627
0.000151033
0.000180547
0.000153103
0.000153103
0.000151033
0.000146036
0.000114451
0.000143962
0.000143961
0.000116516
0.000116516
0.000146036
0.000114452
0.000143961
0.000143961
0.000116516
0.000116517
0.000143962
0.000116516
0.000116516
0.000146035
0.000114451
0.000143961
0.000116517
0.000116516
0.00011445
0.000109437
7.78577e-05
0.000107377
0.000107377
7.99198e-05
7.99196e-05
0.000109437
7.78579e-05
0.000107376
0.000107376
7.99194e-05
7.99178e-05
0.000107376
7.99197e-05
7.99182e-05
0.000109437
7.7856e-05
0.000107376
7.99174e-05
7.99176e-05
7.78551e-05
7.28078e-05
4.12933e-05
7.07798e-05
7.07796e-05
4.33556e-05
4.33552e-05
7.2808e-05
4.12922e-05
7.07792e-05
7.07778e-05
4.33539e-05
4.33506e-05
7.07776e-05
4.33535e-05
4.33509e-05
7.28063e-05
4.12881e-05
7.0777e-05
4.33499e-05
4.335e-05
4.12877e-05
3.6268e-05
8.60724e-06
3.4386e-05
3.4386e-05
1.17839e-05
1.17852e-05
3.62664e-05
8.60876e-06
3.43845e-05
3.43805e-05
1.1787e-05
1.17804e-05
3.43808e-05
1.17863e-05
1.17808e-05
3.62629e-05
8.6037e-06
3.43805e-05
1.17833e-05
1.17849e-05
8.60559e-06
5.3177e-06
7.31919e-06
7.31877e-06
5.31833e-06
7.32103e-06
7.31486e-06
6.15787e-06
6.15618e-06
6.15715e-06
7.317e-06
5.31353e-06
7.31904e-06
0.0036388
0.00364857
0.00364336
0.00364337
0.00366575
0.00365253
0.00368114
0.00364658
0.00366575
0.00365253
0.00364658
0.00368115
0.0036571
0.00368488
0.00368488
0.00359416
0.00361329
0.0036225
0.00358624
0.00358698
0.00358973
0.00359414
0.00361329
0.00362249
0.00358622
0.00361702
0.00361702
0.00361702
0.00357362
0.00357362
0.00357362
0.00357362
0.00359167
0.00361749
0.00361742
0.00360049
0.00362051
0.00359057
0.00360137
0.0035871
0.00358974
0.00359167
0.00361742
0.00361749
0.00360049
0.00362051
0.00360137
0.00359057
0.00362336
0.00362336
0.00359489
0.00359021
0.00359021
0.00354753
0.00356681
0.00356817
0.00354607
0.00356573
0.00354563
0.00354753
0.00356681
0.00356817
0.00354607
0.00356167
0.00356166
0.00356166
0.00352408
0.00352408
0.00352407
0.00352407
0.00354611
0.00356688
0.00356166
0.00354979
0.00356567
0.00354666
0.00354952
0.00356571
0.00354562
0.00354611
0.00356166
0.00356688
0.00354979
0.00356567
0.00354952
0.00354665
0.0035679
0.0035679
0.00354634
0.00354699
0.00354699
0.00349527
0.00351407
0.00351514
0.00349424
0.00351371
0.00349396
0.00349527
0.00351407
0.00351514
0.00349424
0.00351091
0.00351091
0.00351091
0.00347153
0.00347153
0.00347153
0.00347153
0.00349437
0.00351447
0.00351079
0.00349774
0.00351391
0.00349473
0.00349765
0.00351371
0.00349396
0.00349437
0.00351079
0.00351447
0.00349774
0.00351391
0.00349765
0.00349473
0.00351471
0.00351471
0.00349436
0.00349479
0.00349479
0.00344274
0.0034614
0.00346226
0.00344197
0.00346118
0.00344179
0.00344274
0.00346139
0.00346226
0.00344197
0.00345853
0.00345853
0.00345853
0.0034199
0.0034199
0.0034199
0.0034199
0.00344223
0.0034618
0.00345849
0.00344559
0.00346152
0.00344242
0.00344555
0.00346119
0.00344179
0.00344223
0.00345849
0.0034618
0.00344559
0.00346152
0.00344555
0.00344242
0.00346184
0.00346184
0.00344228
0.00344235
0.00344235
0.00339155
0.0034099
0.00341053
0.00339099
0.00340975
0.00339086
0.00339155
0.0034099
0.00341053
0.00339099
0.00340718
0.00340717
0.00340717
0.00336955
0.00336955
0.00336955
0.00336955
0.00339127
0.00341025
0.00340716
0.00339455
0.00341008
0.00339138
0.00339452
0.00340975
0.00339086
0.00339127
0.00340716
0.00341025
0.00339455
0.00341008
0.00339452
0.00339138
0.00341024
0.00341024
0.00339135
0.00339129
0.00339129
0.0033419
0.00335985
0.0033603
0.00334151
0.00335973
0.00334139
0.0033419
0.00335985
0.0033603
0.0033415
0.0033572
0.0033572
0.0033572
0.00332068
0.00332068
0.00332068
0.00332068
0.00334178
0.00336015
0.00335718
0.00334495
0.00336003
0.00334185