/*--------------------------------*- C++ -*----------------------------------*\
| =========                 |                                                 |
| \\      /  F ield         | OpenFOAM: The Open Source CFD Toolbox           |
|  \\    /   O peration     | Version:  v2012                                 |
|   \\  /    A nd           | Website:  www.openfoam.com                      |
|    \\/     M anipulation  |                                                 |
\*---------------------------------------------------------------------------*/
FoamFile
{
    version     2.0;
    format      ascii;
    class       volScalarField;
    location    "250";
    object      p;
}
// * * * * * * * * * * * * * * * * * * * * * * * * * * * * * * * * * * * * * //

dimensions      [0 2 -2 0 0 0 0];


internalField   nonuniform List<scalar> 
171728
(
0.00361708
0.00361741
0.00361741
0.00362046
0.00356172
0.00356214
0.00356214
0.00356513
0.00351097
0.00351094
0.00351094
0.00351369
0.00345858
0.00345859
0.0034586
0.00346137
0.00340723
0.00340724
0.00340724
0.00340999
0.00335726
0.00335727
0.00335726
0.00335998
0.00330873
0.00330874
0.00330875
0.00331143
0.0032615
0.00326153
0.00326152
0.00326417
0.00321537
0.00321539
0.00321539
0.00321802
0.00317014
0.00317015
0.00317017
0.00317275
0.00312563
0.00312567
0.00312567
0.0031282
0.00308172
0.00308175
0.00308172
0.00308429
0.00303833
0.00303835
0.00303837
0.00304089
0.00299539
0.0029954
0.00299539
0.00299791
0.00295291
0.00295293
0.00295293
0.00295541
0.00291079
0.00291077
0.00291077
0.00291332
0.0028691
0.00286908
0.00286908
0.00287155
0.00282775
0.00282776
0.00282776
0.0028302
0.00278674
0.00278674
0.00278675
0.00278919
0.00274604
0.00274603
0.00274603
0.00274849
0.00270563
0.0027056
0.00270561
0.00270806
0.00266549
0.00266545
0.00266545
0.0026679
0.0026256
0.00262555
0.00262555
0.00262799
0.00258595
0.00258589
0.00258589
0.00258832
0.00254652
0.00254646
0.00254646
0.00254888
0.00250731
0.00250725
0.00250725
0.00250966
0.00246831
0.00246825
0.00246825
0.00247064
0.0024295
0.00242946
0.00242946
0.00243182
0.00239089
0.00239085
0.00239085
0.0023932
0.00235247
0.00235244
0.00235244
0.00235476
0.00231424
0.0023142
0.0023142
0.0023165
0.00227617
0.00227614
0.00227614
0.00227842
0.00223827
0.00223825
0.00223825
0.00224051
0.00220054
0.00220052
0.00220052
0.00220276
0.00216296
0.00216294
0.00216294
0.00216517
0.00212553
0.00212552
0.00212552
0.00212772
0.00208826
0.00208824
0.00208824
0.00209043
0.00205112
0.0020511
0.0020511
0.00205327
0.00201412
0.0020141
0.0020141
0.00201625
0.00197725
0.00197722
0.00197722
0.00197937
0.0019405
0.00194047
0.00194046
0.0019426
0.00190387
0.00190382
0.00190383
0.00190595
0.00186735
0.0018673
0.0018673
0.00186941
0.00183094
0.00183088
0.00183088
0.00183299
0.00179461
0.00179455
0.00179455
0.00179664
0.00175842
0.00175835
0.00175835
0.00176044
0.00172225
0.00172216
0.00172216
0.00172424
0.00168628
0.00168621
0.0016862
0.00168829
0.00165022
0.0016501
0.0016501
0.00165216
0.00161451
0.00161447
0.00161447
0.00161655
0.00157853
0.00157831
0.00157831
0.00158035
0.00154321
0.00154321
0.0015432
0.00154525
0.00150709
0.00150686
0.00150686
0.00150894
0.00147256
0.00147227
0.00147227
0.00147394
0.00144167
0.00144139
0.00144139
0.00144329
0.00140031
0.00140013
0.00140013
0.00140251
0.00135917
0.00135969
0.0013597
0.00136206
0.00132751
0.00132762
0.00132762
0.00132946
0.00130011
0.0012993
0.0012993
0.00130059
0.00127131
0.00127027
0.00127027
0.00127157
0.00123935
0.0012387
0.0012387
0.00124032
0.00120453
0.00120427
0.00120427
0.00120619
0.00116828
0.00116822
0.00116822
0.00117027
0.00113165
0.00113165
0.00113165
0.00113374
0.00109506
0.00109503
0.00109503
0.00109713
0.00105852
0.00105848
0.00105848
0.00106056
0.00102197
0.00102194
0.00102194
0.00102402
0.000985412
0.000985384
0.000985384
0.00098747
0.000948837
0.00094881
0.00094881
0.000950898
0.000912255
0.000912228
0.000912228
0.000914316
0.00087567
0.000875642
0.000875642
0.000877731
0.000839085
0.000839058
0.000839058
0.000841145
0.000802501
0.000802473
0.000802473
0.000804561
0.000765918
0.00076589
0.00076589
0.000767979
0.000729335
0.000729306
0.000729306
0.000731394
0.000692752
0.000692726
0.000692726
0.000694813
0.00065617
0.000656142
0.000656142
0.00065823
0.000619587
0.000619558
0.000619559
0.000621646
0.000583004
0.000582978
0.000582978
0.000585066
0.000546421
0.000546394
0.000546395
0.000548483
0.000509838
0.00050981
0.000509809
0.000511897
0.000473255
0.000473225
0.000473225
0.000475313
0.000436671
0.000436645
0.000436645
0.000438732
0.000400088
0.00040006
0.00040006
0.000402148
0.000363505
0.000363476
0.000363477
0.000365564
0.000326921
0.000326895
0.000326895
0.000328982
0.000290337
0.000290309
0.000290309
0.000292396
0.000253753
0.000253725
0.000253725
0.00025581
0.000217167
0.000217141
0.000217141
0.000219225
0.000180581
0.000180554
0.000180554
0.000182636
0.000143995
0.00014397
0.000143969
0.000146044
0.000107403
0.000107381
0.00010738
0.000109441
7.08158e-05
7.07828e-05
7.07808e-05
7.28095e-05
3.49698e-05
3.43866e-05
3.43829e-05
3.62661e-05
6.15734e-06
7.32132e-06
7.31897e-06
5.31574e-06
0.00363048
0.00363071
0.00363071
0.00363048
0.00363071
0.00363071
0.00363147
0.00363147
0.00363148
0.00363148
0.00363071
0.00363071
0.00363049
0.00363071
0.00363071
0.00363049
0.00362046
0.0035717
0.0036174
0.0036174
0.00357398
0.00357398
0.00362046
0.0035717
0.00361741
0.00361741
0.00357398
0.00357398
0.00361741
0.00357398
0.00357398
0.00362046
0.0035717
0.00361741
0.00357398
0.00357398
0.0035717
0.00356513
0.00352062
0.00356215
0.00356214
0.00352407
0.00352407
0.00356513
0.00352062
0.00356214
0.00356214
0.00352407
0.00352406
0.00356214
0.00352407
0.00352406
0.00356513
0.00352062
0.00356214
0.00352406
0.00352406
0.00352062
0.0035137
0.00346825
0.00351094
0.00351094
0.00347161
0.00347161
0.0035137
0.00346825
0.00351094
0.00351094
0.00347161
0.00347161
0.00351094
0.00347161
0.00347161
0.0035137
0.00346825
0.00351094
0.00347161
0.00347161
0.00346825
0.00346137
0.0034167
0.0034586
0.0034586
0.00341996
0.00341996
0.00346137
0.0034167
0.0034586
0.0034586
0.00341996
0.00341996
0.0034586
0.00341996
0.00341996
0.00346137
0.0034167
0.0034586
0.00341996
0.00341996
0.0034167
0.00340999
0.00336648
0.00340724
0.00340724
0.00336962
0.00336962
0.00340999
0.00336649
0.00340724
0.00340724
0.00336962
0.00336962
0.00340724
0.00336962
0.00336962
0.00340999
0.00336649
0.00340724
0.00336962
0.00336962
0.00336648
0.00335999
0.00331773
0.00335727
0.00335727
0.00332075
0.00332075
0.00335998
0.00331773
0.00335726
0.00335727
0.00332075
0.00332075
0.00335727
0.00332075
0.00332075
0.00335998
0.00331773
0.00335726
0.00332075
0.00332075
0.00331773
0.00331143
0.0032703
0.00330875
0.00330874
0.00327322
0.00327322
0.00331142
0.0032703
0.00330874
0.00330875
0.00327321
0.00327322
0.00330875
0.00327322
0.00327322
0.00331143
0.0032703
0.00330875
0.00327322
0.00327321
0.0032703
0.00326418
0.003224
0.00326152
0.00326152
0.00322683
0.00322683
0.00326417
0.003224
0.00326153
0.00326152
0.00322684
0.00322683
0.00326153
0.00322683
0.00322683
0.00326417
0.00322401
0.00326153
0.00322683
0.00322683
0.003224
0.00321801
0.00317863
0.00321538
0.00321539
0.0031814
0.00318141
0.00321801
0.00317863
0.00321539
0.00321539
0.0031814
0.00318138
0.00321539
0.00318141
0.0031814
0.00321801
0.00317863
0.0032154
0.00318138
0.0031814
0.00317862
0.00317275
0.00313399
0.00317017
0.00317015
0.0031367
0.00313671
0.00317274
0.00313401
0.00317017
0.00317017
0.0031367
0.00313673
0.00317016
0.00313671
0.00313674
0.00317276
0.00313401
0.00317016
0.00313673
0.00313674
0.003134
0.00312822
0.00309
0.00312566
0.00312567
0.00309265
0.00309265
0.00312822
0.00308998
0.00312566
0.00312566
0.00309265
0.00309266
0.00312565
0.00309265
0.00309265
0.00312821
0.00308997
0.00312565
0.00309266
0.00309265
0.00308997
0.0030843
0.00304652
0.00308176
0.00308175
0.00304919
0.00304919
0.00308429
0.00304651
0.00308176
0.00308172
0.00304919
0.00304914
0.00308172
0.00304919
0.00304911
0.00308429
0.0030465
0.00308172
0.00304914
0.00304911
0.0030465
0.00304085
0.00300347
0.00303836
0.00303835
0.00300611
0.00300611
0.00304085
0.00300349
0.00303836
0.00303837
0.00300611
0.00300609
0.00303838
0.00300611
0.00300613
0.00304087
0.00300347
0.00303838
0.00300609
0.00300612
0.00300348
0.0029979
0.00296094
0.00299538
0.0029954
0.0029635
0.00296351
0.00299791
0.00296093
0.00299538
0.00299538
0.0029635
0.00296349
0.00299539
0.0029635
0.00296345
0.0029979
0.00296092
0.00299539
0.00296349
0.00296345
0.00296091
0.00295542
0.00291874
0.00295294
0.00295293
0.00292132
0.00292131
0.00295541
0.00291873
0.00295294
0.00295292
0.00292132
0.00292132
0.0029529
0.00292131
0.0029213
0.00295541
0.00291874
0.0029529
0.00292132
0.0029213
0.00291879
0.00291327
0.00287698
0.00291077
0.00291077
0.00287946
0.00287946
0.00291326
0.00287698
0.00291077
0.00291077
0.00287946
0.00287946
0.00291084
0.00287946
0.00287951
0.00291326
0.00287698
0.00291084
0.00287946
0.00287951
0.00287697
0.00287157
0.00283559
0.00286908
0.00286908
0.00283802
0.00283802
0.00287158
0.0028356
0.00286908
0.00286908
0.00283802
0.00283802
0.00286907
0.00283802
0.00283803
0.00287157
0.00283559
0.00286907
0.00283802
0.00283803
0.00283556
0.00283024
0.00279454
0.00282776
0.00282776
0.00279694
0.00279694
0.00283024
0.00279454
0.00282776
0.00282776
0.00279694
0.00279694
0.00282772
0.00279694
0.00279692
0.00283024
0.00279454
0.00282772
0.00279694
0.00279692
0.00279451
0.00278921
0.00275378
0.00278674
0.00278674
0.00275616
0.00275616
0.00278921
0.00275378
0.00278674
0.00278675
0.00275616
0.00275616
0.00278672
0.00275616
0.00275614
0.00278921
0.00275378
0.00278672
0.00275616
0.00275614
0.00275377
0.00274849
0.00271331
0.00274603
0.00274603
0.00271567
0.00271567
0.00274849
0.00271331
0.00274603
0.00274603
0.00271566
0.00271567
0.00274602
0.00271567
0.00271566
0.00274849
0.00271332
0.00274602
0.00271567
0.00271566
0.00271331
0.00270806
0.00267311
0.0027056
0.0027056
0.00267545
0.00267545
0.00270806
0.00267312
0.0027056
0.00270561
0.00267545
0.00267545
0.0027056
0.00267545
0.00267545
0.00270806
0.00267312
0.0027056
0.00267545
0.00267545
0.00267311
0.00266789
0.00263318
0.00266545
0.00266545
0.0026355
0.0026355
0.0026679
0.00263318
0.00266545
0.00266545
0.0026355
0.0026355
0.00266545
0.0026355
0.00263549
0.0026679
0.00263318
0.00266545
0.0026355
0.00263549
0.00263318
0.00262799
0.00259349
0.00262555
0.00262555
0.00259578
0.00259578
0.00262799
0.00259349
0.00262555
0.00262555
0.00259578
0.00259578
0.00262555
0.00259578
0.00259578
0.00262799
0.00259349
0.00262555
0.00259578
0.00259578
0.00259349
0.00258832
0.00255402
0.00258589
0.00258589
0.0025563
0.0025563
0.00258832
0.00255403
0.00258589
0.00258589
0.0025563
0.0025563
0.00258589
0.0025563
0.0025563
0.00258832
0.00255403
0.00258589
0.0025563
0.0025563
0.00255403
0.00254888
0.00251478
0.00254646
0.00254646
0.00251704
0.00251704
0.00254888
0.00251478
0.00254646
0.00254646
0.00251704
0.00251704
0.00254646
0.00251704
0.00251704
0.00254888
0.00251478
0.00254646
0.00251704
0.00251703
0.00251478
0.00250966
0.00247574
0.00250725
0.00250725
0.00247798
0.00247798
0.00250966
0.00247574
0.00250725
0.00250725
0.00247798
0.00247798
0.00250725
0.00247798
0.00247798
0.00250966
0.00247574
0.00250725
0.00247798
0.00247798
0.00247574
0.00247064
0.0024369
0.00246825
0.00246825
0.00243914
0.00243914
0.00247064
0.0024369
0.00246825
0.00246825
0.00243914
0.00243914
0.00246825
0.00243914
0.00243914
0.00247064
0.0024369
0.00246825
0.00243914
0.00243914
0.0024369
0.00243182
0.00239826
0.00242946
0.00242946
0.00240049
0.00240049
0.00243182
0.00239826
0.00242946
0.00242946
0.00240049
0.00240049
0.00242946
0.00240049
0.00240049
0.00243182
0.00239826
0.00242946
0.00240049
0.00240048
0.00239826
0.0023932
0.0023598
0.00239085
0.00239085
0.00236202
0.00236202
0.0023932
0.0023598
0.00239085
0.00239085
0.00236202
0.00236202
0.00239085
0.00236202
0.00236202
0.0023932
0.0023598
0.00239085
0.00236202
0.00236202
0.0023598
0.00235476
0.00232153
0.00235244
0.00235244
0.00232374
0.00232374
0.00235476
0.00232153
0.00235244
0.00235244
0.00232374
0.00232374
0.00235244
0.00232374
0.00232374
0.00235476
0.00232153
0.00235244
0.00232374
0.00232374
0.00232153
0.0023165
0.00228343
0.0023142
0.0023142
0.00228564
0.00228564
0.0023165
0.00228343
0.0023142
0.0023142
0.00228564
0.00228564
0.0023142
0.00228564
0.00228564
0.0023165
0.00228343
0.0023142
0.00228564
0.00228564
0.00228343
0.00227842
0.0022455
0.00227614
0.00227614
0.0022477
0.0022477
0.00227842
0.0022455
0.00227614
0.00227614
0.0022477
0.0022477
0.00227614
0.0022477
0.0022477
0.00227842
0.0022455
0.00227614
0.0022477
0.0022477
0.0022455
0.00224051
0.00220773
0.00223825
0.00223825
0.00220993
0.00220993
0.00224051
0.00220773
0.00223825
0.00223825
0.00220993
0.00220994
0.00223825
0.00220993
0.00220993
0.00224051
0.00220774
0.00223825
0.00220994
0.00220993
0.00220773
0.00220276
0.00217013
0.00220052
0.00220052
0.00217232
0.00217232
0.00220276
0.00217013
0.00220052
0.00220052
0.00217232
0.00217232
0.00220052
0.00217232
0.00217232
0.00220276
0.00217013
0.00220052
0.00217232
0.00217232
0.00217013
0.00216516
0.00213267
0.00216294
0.00216294
0.00213486
0.00213486
0.00216516
0.00213267
0.00216294
0.00216294
0.00213486
0.00213486
0.00216294
0.00213486
0.00213486
0.00216516
0.00213267
0.00216294
0.00213486
0.00213486
0.00213267
0.00212772
0.00209536
0.00212552
0.00212552
0.00209755
0.00209755
0.00212772
0.00209536
0.00212552
0.00212552
0.00209755
0.00209755
0.00212552
0.00209755
0.00209755
0.00212772
0.00209536
0.00212552
0.00209755
0.00209755
0.00209536
0.00209043
0.0020582
0.00208824
0.00208824
0.00206037
0.00206037
0.00209043
0.0020582
0.00208824
0.00208824
0.00206037
0.00206037
0.00208824
0.00206037
0.00206037
0.00209043
0.0020582
0.00208824
0.00206037
0.00206037
0.0020582
0.00205327
0.00202117
0.0020511
0.0020511
0.00202334
0.00202334
0.00205327
0.00202117
0.0020511
0.0020511
0.00202334
0.00202334
0.0020511
0.00202334
0.00202334
0.00205327
0.00202117
0.0020511
0.00202334
0.00202334
0.00202116
0.00201625
0.00198426
0.0020141
0.0020141
0.00198643
0.00198643
0.00201626
0.00198426
0.0020141
0.0020141
0.00198643
0.00198643
0.0020141
0.00198643
0.00198643
0.00201625
0.00198426
0.0020141
0.00198643
0.00198643
0.00198426
0.00197936
0.00194749
0.00197722
0.00197722
0.00194964
0.00194964
0.00197936
0.00194749
0.00197722
0.00197722
0.00194964
0.00194964
0.00197722
0.00194964
0.00194964
0.00197937
0.00194749
0.00197722
0.00194964
0.00194964
0.00194749
0.0019426
0.00191083
0.00194047
0.00194047
0.00191297
0.00191297
0.0019426
0.00191082
0.00194047
0.00194047
0.00191297
0.00191297
0.00194046
0.00191297
0.00191297
0.0019426
0.00191083
0.00194046
0.00191297
0.00191297
0.00191083
0.00190595
0.00187428
0.00190383
0.00190382
0.00187642
0.00187642
0.00190595
0.00187428
0.00190383
0.00190383
0.00187642
0.00187642
0.00190383
0.00187642
0.00187642
0.00190595
0.00187428
0.00190383
0.00187642
0.00187642
0.00187428
0.00186941
0.00183784
0.0018673
0.0018673
0.00183997
0.00183997
0.00186941
0.00183784
0.0018673
0.0018673
0.00183997
0.00183997
0.0018673
0.00183997
0.00183997
0.00186941
0.00183784
0.0018673
0.00183997
0.00183997
0.00183784
0.00183299
0.00180149
0.00183088
0.00183088
0.00180362
0.00180362
0.00183299
0.00180149
0.00183088
0.00183088
0.00180362
0.00180362
0.00183088
0.00180362
0.00180362
0.00183299
0.00180149
0.00183088
0.00180362
0.00180362
0.00180149
0.00179664
0.00176528
0.00179455
0.00179455
0.00176739
0.00176739
0.00179664
0.00176528
0.00179455
0.00179455
0.00176739
0.00176739
0.00179455
0.00176739
0.00176739
0.00179664
0.00176528
0.00179455
0.00176739
0.00176739
0.00176528
0.00176044
0.00172907
0.00175835
0.00175835
0.00173119
0.00173119
0.00176044
0.00172907
0.00175835
0.00175835
0.00173119
0.00173119
0.00175835
0.00173119
0.00173119
0.00176044
0.00172907
0.00175835
0.00173119
0.00173119
0.00172907
0.00172424
0.00169311
0.00172216
0.00172216
0.0016952
0.0016952
0.00172424
0.00169312
0.00172216
0.00172216
0.0016952
0.0016952
0.00172216
0.0016952
0.00169521
0.00172424
0.00169311
0.00172216
0.0016952
0.00169521
0.00169312
0.00168828
0.00165698
0.00168621
0.00168621
0.00165912
0.00165911
0.00168828
0.00165697
0.00168621
0.0016862
0.00165912
0.00165911
0.00168621
0.00165911
0.0016591
0.00168828
0.00165698
0.00168621
0.00165911
0.0016591
0.00165697
0.00165216
0.00162133
0.0016501
0.00165009
0.00162334
0.00162335
0.00165215
0.00162135
0.0016501
0.0016501
0.00162334
0.00162334
0.0016501
0.00162335
0.00162336
0.00165216
0.00162133
0.0016501
0.00162335
0.00162336
0.00162135
0.00161655
0.00158524
0.00161446
0.00161447
0.00158744
0.00158741
0.00161657
0.00158521
0.00161446
0.00161447
0.00158744
0.0015874
0.00161446
0.00158741
0.0015874
0.00161656
0.00158522
0.00161446
0.00158741
0.0015874
0.00158521
0.00158036
0.00154983
0.00157833
0.00157831
0.00155178
0.00155179
0.00158034
0.00154985
0.00157833
0.00157832
0.00155178
0.00155179
0.00157832
0.0015518
0.00155181
0.00158035
0.00154984
0.00157832
0.00155179
0.00155181
0.00154987
0.00154521
0.00151409
0.00154319
0.0015432
0.00151636
0.00151634
0.00154524
0.00151407
0.00154319
0.0015432
0.00151636
0.00151635
0.00154322
0.00151634
0.00151632
0.00154523
0.00151407
0.00154322
0.00151634
0.00151632
0.00151405
0.00150898
0.00147804
0.00150689
0.00150687
0.00148
0.00148
0.00150896
0.00147806
0.00150689
0.00150688
0.00148
0.00148
0.00150685
0.00148001
0.00148002
0.00150896
0.00147805
0.00150685
0.00148001
0.00148002
0.00147807
0.00147392
0.00144809
0.00147226
0.00147226
0.00145011
0.0014501
0.00147393
0.00144806
0.00147226
0.00147227
0.00145012
0.00145011
0.00147227
0.00145009
0.00145008
0.00147393
0.00144807
0.00147228
0.00145008
0.00145007
0.00144804
0.00144333
0.00140849
0.00144141
0.0014414
0.00141116
0.00141116
0.00144331
0.00140849
0.00144142
0.0014414
0.00141116
0.00141116
0.00144138
0.00141116
0.00141117
0.00144331
0.00140849
0.00144138
0.00141116
0.00141116
0.00140851
0.00140249
0.00136701
0.00140012
0.00140013
0.00136881
0.00136881
0.00140249
0.001367
0.00140013
0.00140013
0.00136881
0.00136881
0.00140014
0.00136881
0.0013688
0.00140249
0.00136701
0.00140014
0.00136882
0.00136881
0.00136699
0.00136207
0.00133351
0.0013597
0.00135969
0.0013351
0.0013351
0.00136206
0.00133351
0.0013597
0.0013597
0.0013351
0.0013351
0.00135969
0.0013351
0.0013351
0.00136207
0.00133351
0.00135969
0.0013351
0.0013351
0.00133351
0.00132946
0.00130447
0.00132762
0.00132762
0.00130642
0.00130642
0.00132946
0.00130448
0.00132762
0.00132762
0.00130642
0.00130642
0.00132762
0.00130643
0.00130643
0.00132946
0.00130447
0.00132762
0.00130643
0.00130643
0.00130448
0.00130059
0.00127557
0.00129929
0.0012993
0.00127768
0.00127768
0.00130059
0.00127557
0.0012993
0.0012993
0.00127768
0.00127768
0.0012993
0.00127768
0.00127768
0.00130059
0.00127557
0.0012993
0.00127768
0.00127768
0.00127556
0.00127157
0.00124476
0.00127027
0.00127027
0.00124688
0.00124688
0.00127157
0.00124475
0.00127027
0.00127027
0.00124689
0.00124688
0.00127027
0.00124688
0.00124688
0.00127157
0.00124475
0.00127027
0.00124689
0.00124688
0.00124475
0.00124032
0.00121098
0.0012387
0.0012387
0.00121309
0.00121309
0.00124032
0.00121098
0.0012387
0.0012387
0.00121309
0.00121309
0.0012387
0.00121309
0.00121309
0.00124032
0.00121098
0.0012387
0.00121309
0.00121309
0.00121098
0.00120619
0.00117523
0.00120427
0.00120427
0.00117732
0.00117732
0.00120619
0.00117523
0.00120427
0.00120427
0.00117732
0.00117732
0.00120427
0.00117732
0.00117732
0.00120619
0.00117523
0.00120427
0.00117732
0.00117732
0.00117523
0.00117027
0.00113873
0.00116822
0.00116822
0.0011408
0.0011408
0.00117027
0.00113873
0.00116822
0.00116822
0.0011408
0.0011408
0.00116822
0.0011408
0.0011408
0.00117027
0.00113873
0.00116822
0.0011408
0.0011408
0.00113873
0.00113374
0.00110211
0.00113165
0.00113165
0.00110418
0.00110418
0.00113374
0.00110211
0.00113165
0.00113165
0.00110418
0.00110418
0.00113165
0.00110418
0.00110418
0.00113374
0.00110211
0.00113165
0.00110418
0.00110418
0.00110211
0.00109712
0.00106554
0.00109503
0.00109503
0.00106762
0.00106762
0.00109713
0.00106554
0.00109503
0.00109503
0.00106762
0.00106762
0.00109503
0.00106762
0.00106762
0.00109713
0.00106554
0.00109503
0.00106762
0.00106762
0.00106554
0.00106056
0.001029
0.00105848
0.00105848
0.00103107
0.00103107
0.00106056
0.001029
0.00105848
0.00105848
0.00103107
0.00103107
0.00105848
0.00103107
0.00103107
0.00106056
0.001029
0.00105848
0.00103107
0.00103107
0.001029
0.00102402
0.000992451
0.00102194
0.00102194
0.000994525
0.000994525
0.00102402
0.000992451
0.00102194
0.00102194
0.000994525
0.000994525
0.00102194
0.000994525
0.000994525
0.00102402
0.000992451
0.00102194
0.000994525
0.000994525
0.00099245
0.00098747
0.000955879
0.000985384
0.000985384
0.000957955
0.000957954
0.000987469
0.00095588
0.000985384
0.000985384
0.000957954
0.000957955
0.000985384
0.000957954
0.000957955
0.00098747
0.000955879
0.000985384
0.000957955
0.000957955
0.000955879
0.000950897
0.000919299
0.00094881
0.00094881
0.000921374
0.000921374
0.000950897
0.000919299
0.00094881
0.00094881
0.000921374
0.000921374
0.000948811
0.000921374
0.000921374
0.000950897
0.000919298
0.00094881
0.000921374
0.000921374
0.000919298
0.000914315
0.000882714
0.000912228
0.000912228
0.000884788
0.000884788
0.000914315
0.000882714
0.000912228
0.000912228
0.000884788
0.000884788
0.000912228
0.000884788
0.000884788
0.000914315
0.000882714
0.000912228
0.000884788
0.000884788
0.000882713
0.00087773
0.000846128
0.000875642
0.000875642
0.000848204
0.000848204
0.00087773
0.000846128
0.000875642
0.000875642
0.000848204
0.000848204
0.000875642
0.000848204
0.000848204
0.000877731
0.000846128
0.000875642
0.000848204
0.000848204
0.000846127
0.000841145
0.000809545
0.000839058
0.000839058
0.000811619
0.000811619
0.000841145
0.000809545
0.000839058
0.000839058
0.000811619
0.000811619
0.000839058
0.000811619
0.000811619
0.000841145
0.000809544
0.000839058
0.000811619
0.000811619
0.000809544
0.00080456
0.000772961
0.000802473
0.000802473
0.000775035
0.000775035
0.00080456
0.000772961
0.000802473
0.000802473
0.000775035
0.000775036
0.000802473
0.000775035
0.000775035
0.00080456
0.000772962
0.000802473
0.000775036
0.000775035
0.000772961
0.000767978
0.000736377
0.00076589
0.00076589
0.000738453
0.000738453
0.000767978
0.000736378
0.00076589
0.00076589
0.000738453
0.000738453
0.00076589
0.000738453
0.000738453
0.000767979
0.000736377
0.00076589
0.000738453
0.000738453
0.000736377
0.000731393
0.000699797
0.000729306
0.000729307
0.000701872
0.000701872
0.000731393
0.000699797
0.000729306
0.000729306
0.000701872
0.000701872
0.000729307
0.000701872
0.000701872
0.000731393
0.000699796
0.000729306
0.000701872
0.000701872
0.000699796
0.000694813
0.000663212
0.000692726
0.000692726
0.000665286
0.000665286
0.000694813
0.000663212
0.000692726
0.000692726
0.000665286
0.000665286
0.000692726
0.000665286
0.000665286
0.000694813
0.000663212
0.000692726
0.000665286
0.000665286
0.000663211
0.000658229
0.000626631
0.000656142
0.000656142
0.000628706
0.000628706
0.000658229
0.00062663
0.000656142
0.000656142
0.000628706
0.000628706
0.000656142
0.000628706
0.000628706
0.000658229
0.000626631
0.000656142
0.000628706
0.000628706
0.00062663
0.000621646
0.000590049
0.000619558
0.000619558
0.000592124
0.000592124
0.000621645
0.000590049
0.000619558
0.000619559
0.000592124
0.000592124
0.000619558
0.000592124
0.000592124
0.000621646
0.000590049
0.000619558
0.000592124
0.000592124
0.000590048
0.000585065
0.000553465
0.000582978
0.000582978
0.000555538
0.000555538
0.000585065
0.000553464
0.000582978
0.000582978
0.000555538
0.000555538
0.000582978
0.000555538
0.000555538
0.000585066
0.000553464
0.000582978
0.000555538
0.000555538
0.000553464
0.000548482
0.00051688
0.000546395
0.000546395
0.000518954
0.000518954
0.000548482
0.00051688
0.000546395
0.000546395
0.000518954
0.000518954
0.000546395
0.000518954
0.000518954
0.000548482
0.000516879
0.000546395
0.000518954
0.000518954
0.000516879
0.000511896
0.000480297
0.000509809
0.00050981
0.000482372
0.000482371
0.000511897
0.000480296
0.00050981
0.000509809
0.000482372
0.000482372
0.000509809
0.000482371
0.000482372
0.000511897
0.000480297
0.000509809
0.000482372
0.000482372
0.000480295
0.000475312
0.000443716
0.000473225
0.000473225
0.000445791
0.000445791
0.000475312
0.000443716
0.000473225
0.000473225
0.000445792
0.000445792
0.000473225
0.000445792
0.000445792
0.000475312
0.000443716
0.000473225
0.000445792
0.000445792
0.000443716
0.000438732
0.000407131
0.000436644
0.000436644
0.000409206
0.000409205
0.000438731
0.000407131
0.000436645
0.000436645
0.000409205
0.000409205
0.000436645
0.000409205
0.000409205
0.000438732
0.00040713
0.000436645
0.000409204
0.000409205
0.00040713
0.000402148
0.000370548
0.000400062
0.000400061
0.000372623
0.000372622
0.000402148
0.000370548
0.000400061
0.000400061
0.000372623
0.000372623
0.000400061
0.000372623
0.000372624
0.000402148
0.000370548
0.00040006
0.000372624
0.000372624
0.000370548
0.000365563
0.000333966
0.000363476
0.000363476
0.00033604
0.00033604
0.000365563
0.000333966
0.000363476
0.000363476
0.000336039
0.00033604
0.000363477
0.000336039
0.000336039
0.000365563
0.000333965
0.000363477
0.000336039
0.000336039
0.000333965
0.000328982
0.00029738
0.000326895
0.000326894
0.000299454
0.000299453
0.000328981
0.00029738
0.000326895
0.000326895
0.000299454
0.000299454
0.000326895
0.000299454
0.000299454
0.000328982
0.000297379
0.000326895
0.000299454
0.000299454
0.000297379
0.000292395
0.000260795
0.000290309
0.000290309
0.00026287
0.00026287
0.000292395
0.000260795
0.000290309
0.000290309
0.00026287
0.00026287
0.000290309
0.00026287
0.00026287
0.000292395
0.000260795
0.000290309
0.00026287
0.00026287
0.000260794
0.000255809
0.000224212
0.000253725
0.000253725
0.000226285
0.000226285
0.000255809
0.000224212
0.000253725
0.000253725
0.000226285
0.000226285
0.000253725
0.000226284
0.000226285
0.000255809
0.000224212
0.000253725
0.000226284
0.000226284
0.000224211
0.000219225
0.000187625
0.000217141
0.000217141
0.000189697
0.000189697
0.000219224
0.000187626
0.000217141
0.000217141
0.000189697
0.000189697
0.000217141
0.000189697
0.000189697
0.000219225
0.000187625
0.000217141
0.000189697
0.000189697
0.000187625
0.000182635
0.000151041
0.000180554
0.000180554
0.000153112
0.000153112
0.000182635
0.000151042
0.000180554
0.000180554
0.000153112
0.000153112
0.000180554
0.000153112
0.000153112
0.000182636
0.000151041
0.000180554
0.000153112
0.000153112
0.000151041
0.000146043
0.000114456
0.00014397
0.00014397
0.000116522
0.000116522
0.000146043
0.000114456
0.000143969
0.000143969
0.000116522
0.000116522
0.00014397
0.000116522
0.000116522
0.000146044
0.000114456
0.000143969
0.000116522
0.000116522
0.000114456
0.00010944
7.78614e-05
0.000107381
0.000107381
7.99228e-05
7.99227e-05
0.000109441
7.78614e-05
0.00010738
0.00010738
7.99223e-05
7.99209e-05
0.000107381
7.99225e-05
7.99207e-05
0.00010944
7.78594e-05
0.00010738
7.99207e-05
7.99202e-05
7.78588e-05
7.2811e-05
4.12968e-05
7.07837e-05
7.07833e-05
4.33582e-05
4.33576e-05
7.28111e-05
4.12955e-05
7.07828e-05
7.07813e-05
4.33565e-05
4.33531e-05
7.07812e-05
4.33558e-05
4.33532e-05
7.28093e-05
4.12913e-05
7.07808e-05
4.33523e-05
4.33522e-05
4.12909e-05
3.62711e-05
8.60767e-06
3.43886e-05
3.43884e-05
1.17849e-05
1.17854e-05
3.6269e-05
8.60813e-06
3.4387e-05
3.43829e-05
1.17881e-05
1.17813e-05
3.43828e-05
1.17868e-05
1.17816e-05
3.62656e-05
8.60396e-06
3.43825e-05
1.1784e-05
1.17859e-05
8.60581e-06
5.31769e-06
7.32028e-06
7.31885e-06
5.31712e-06
7.3221e-06
7.31581e-06
6.15746e-06
6.15623e-06
6.15712e-06
7.31769e-06
5.31338e-06
7.31997e-06
0.00363886
0.00364862
0.00364342
0.00364342
0.00366581
0.00365259
0.00368119
0.00364663
0.00366581
0.00365259
0.00364664
0.0036812
0.00365716
0.00368493
0.00368493
0.00359421
0.00361335
0.00362256
0.00358629
0.00358704
0.00358979
0.0035942
0.00361334
0.00362255
0.00358628
0.00361708
0.00361708
0.00361708
0.00357367
0.00357368
0.00357367
0.00357367
0.00359172
0.00361754
0.00361748
0.00360055
0.00362057
0.00359063
0.00360143
0.00358715
0.00358979
0.00359173
0.00361748
0.00361754
0.00360055
0.00362057
0.00360143
0.00359063
0.00362342
0.00362342
0.00359494
0.00359026
0.00359027
0.00354759
0.00356687
0.00356823
0.00354613
0.00356579
0.00354568
0.00354759
0.00356687
0.00356823
0.00354612
0.00356172
0.00356172
0.00356172
0.00352413
0.00352413
0.00352413
0.00352413
0.00354617
0.00356694
0.00356172
0.00354985
0.00356573
0.00354671
0.00354958
0.00356577
0.00354568
0.00354617
0.00356172
0.00356694
0.00354985
0.00356573
0.00354958
0.00354671
0.00356796
0.00356796
0.0035464
0.00354704
0.00354704
0.00349532
0.00351413
0.0035152
0.0034943
0.00351376
0.00349402
0.00349532
0.00351413
0.0035152
0.0034943
0.00351097
0.00351097
0.00351097
0.00347159
0.00347159
0.00347159
0.00347159
0.00349442
0.00351453
0.00351084
0.0034978
0.00351397
0.00349479
0.00349771
0.00351376
0.00349402
0.00349442
0.00351084
0.00351453
0.0034978
0.00351397
0.00349771
0.00349478
0.00351477
0.00351477
0.00349441
0.00349485
0.00349485
0.0034428
0.00346145
0.00346231
0.00344203
0.00346124
0.00344185
0.0034428
0.00346145
0.00346231
0.00344203
0.00345858
0.00345858
0.00345858
0.00341995
0.00341995
0.00341995
0.00341995
0.00344229
0.00346186
0.00345855
0.00344565
0.00346157
0.00344247
0.00344561
0.00346125
0.00344185
0.00344229
0.00345855
0.00346186
0.00344565
0.00346157
0.00344561
0.00344247
0.0034619
0.0034619
0.00344233
0.00344241
0.00344241
0.0033916
0.00340995
0.00341059
0.00339105
0.00340981
0.00339091
0.0033916
0.00340995
0.00341059
0.00339104
0.00340723
0.00340723
0.00340723
0.00336961
0.00336961
0.00336961
0.00336961
0.00339133
0.00341031
0.00340721
0.00339461
0.00341013
0.00339144
0.00339458
0.00340981
0.00339091
0.00339133
0.00340721
0.00341031
0.00339461
0.00341013
0.00339458
0.00339144
0.00341029
0.00341029
0.00339141
0.00339134
0.00339135
0.00334196
0.0033599
0.00336036
0.00334156
0.00335979
0.00334145
0.00334195
0.0033599
0.00336036
0.00334156
0.00335726
0.00335725
0.00335725
0.00332073
0.00332073
0.00332073
0.00332073
0.00334184
0.0033602
0.00335724
0.00334501
0.00336009
0.00334191
0.00334498
0.00335979
0.00334145
0.00334184
0.00335724