/*--------------------------------*- C++ -*----------------------------------*\
| =========                 |                                                 |
| \\      /  F ield         | OpenFOAM: The Open Source CFD Toolbox           |
|  \\    /   O peration     | Version:  v2012                                 |
|   \\  /    A nd           | Website:  www.openfoam.com                      |
|    \\/     M anipulation  |                                                 |
\*---------------------------------------------------------------------------*/
FoamFile
{
    version     2.0;
    format      ascii;
    class       volScalarField;
    location    "250";
    object      p;
}
// * * * * * * * * * * * * * * * * * * * * * * * * * * * * * * * * * * * * * //

dimensions      [0 2 -2 0 0 0 0];


internalField   nonuniform List<scalar> 
171728
(
0.00353249
0.00353146
0.00353149
0.00353223
0.00349687
0.00349547
0.00349549
0.00349833
0.00345891
0.0034569
0.00345696
0.00345924
0.00341466
0.003413
0.00341299
0.00341525
0.00336627
0.00336473
0.00336474
0.00336714
0.00331762
0.00331614
0.00331617
0.00331856
0.00326967
0.0032684
0.00326838
0.00327076
0.00322232
0.00322114
0.00322115
0.00322356
0.00317597
0.00317492
0.00317492
0.00317734
0.00313069
0.00312976
0.00312975
0.00313215
0.00308627
0.00308544
0.00308547
0.00308787
0.00304262
0.00304183
0.00304192
0.00304432
0.00299953
0.00299895
0.00299894
0.00300124
0.00295681
0.00295636
0.00295638
0.00295856
0.00291443
0.002914
0.00291395
0.00291635
0.00287236
0.00287191
0.00287197
0.00287423
0.00283063
0.00283028
0.00283021
0.00283253
0.00278931
0.00278921
0.00278902
0.00279125
0.00274822
0.0027481
0.00274785
0.00275024
0.00270763
0.0027073
0.00270753
0.00270952
0.00266724
0.00266719
0.00266719
0.00266915
0.00262718
0.0026271
0.00262677
0.00262881
0.00258749
0.00258721
0.00258734
0.00258904
0.00254794
0.00254856
0.00254785
0.00255004
0.00250875
0.00250845
0.00250868
0.00251026
0.00246961
0.00246947
0.00246962
0.00247169
0.00243094
0.00243117
0.00243093
0.00243301
0.00239234
0.00239229
0.00239232
0.00239434
0.00235405
0.00235422
0.00235421
0.00235662
0.00231586
0.00231604
0.00231599
0.0023179
0.00227797
0.00227812
0.00227816
0.00228017
0.00224004
0.00224032
0.00224022
0.00224243
0.00220249
0.0022028
0.00220286
0.00220459
0.00216499
0.00216519
0.00216516
0.00216738
0.00212752
0.00212791
0.00212792
0.00212972
0.00209047
0.00209067
0.00209069
0.00209271
0.00205339
0.00205368
0.00205363
0.0020556
0.00201658
0.00201677
0.00201682
0.00201875
0.00197985
0.00198004
0.00197998
0.00198198
0.00194327
0.00194335
0.0019434
0.00194539
0.00190686
0.00190693
0.00190692
0.00190894
0.00187062
0.00187074
0.00187066
0.00187266
0.0018345
0.00183432
0.00183448
0.00183648
0.00179853
0.00179857
0.00179842
0.00180054
0.00176282
0.0017627
0.0017628
0.00176473
0.00172724
0.0017271
0.00172702
0.00172913
0.00169184
0.00169163
0.00169157
0.00169369
0.0016565
0.00165639
0.00165641
0.00165837
0.00162176
0.00162137
0.00162143
0.0016234
0.00158691
0.00158675
0.00158674
0.00158873
0.00155272
0.00155234
0.00155232
0.00155429
0.00151792
0.00151758
0.00151758
0.00151956
0.00148363
0.0014837
0.00148369
0.00148565
0.00145113
0.00145076
0.00145076
0.00145257
0.00141841
0.0014175
0.00141751
0.00141923
0.00138332
0.0013827
0.00138271
0.00138462
0.00134581
0.00134553
0.00134554
0.00134763
0.001307
0.00130767
0.00130767
0.00131005
0.00126914
0.00126986
0.00126987
0.00127227
0.00123429
0.00123471
0.00123471
0.00123681
0.00120342
0.00120317
0.00120318
0.00120485
0.00117428
0.00117336
0.00117336
0.00117469
0.00114442
0.00114361
0.00114361
0.001145
0.00111311
0.00111262
0.00111262
0.00111423
0.00108011
0.00107986
0.00107986
0.00108168
0.00104563
0.00104551
0.00104551
0.00104747
0.00101022
0.00101016
0.00101016
0.00101218
0.00097432
0.000974288
0.000974288
0.000976347
0.000938219
0.000938192
0.000938192
0.000940265
0.000902063
0.000902035
0.000902035
0.000904109
0.000865876
0.000865848
0.000865848
0.000867925
0.000829687
0.000829658
0.000829658
0.000831734
0.000793501
0.000793473
0.000793473
0.00079555
0.00075731
0.000757282
0.000757282
0.000759358
0.000721123
0.000721095
0.000721095
0.000723172
0.000684933
0.000684905
0.000684905
0.000686981
0.000648747
0.000648721
0.000648721
0.000650797
0.000612562
0.000612532
0.000612532
0.000614608
0.000576378
0.000576352
0.000576351
0.000578428
0.000540196
0.000540168
0.000540169
0.000542243
0.000504016
0.000503987
0.000503988
0.000506063
0.000467837
0.000467809
0.000467809
0.000469885
0.000431659
0.000431632
0.000431632
0.000433706
0.000395483
0.000395454
0.000395454
0.000397528
0.000359306
0.000359279
0.000359278
0.000361353
0.000323127
0.000323101
0.000323101
0.000325175
0.000286948
0.000286919
0.000286919
0.000288992
0.000250767
0.000250738
0.000250738
0.000252811
0.000214585
0.00021456
0.000214559
0.00021663
0.000178402
0.000178375
0.000178376
0.000180442
0.000142218
0.000142192
0.000142192
0.000144249
0.000106026
0.000106007
0.000106006
0.000108047
6.98363e-05
6.98112e-05
6.98089e-05
7.18174e-05
3.44183e-05
3.3847e-05
3.38437e-05
3.56988e-05
6.01428e-06
6.83119e-06
6.82787e-06
5.13928e-06
0.00353697
0.00353457
0.00353451
0.0035369
0.00353459
0.00353458
0.0035409
0.00354087
0.00354091
0.00354089
0.00353448
0.00353455
0.00353698
0.00353458
0.00353458
0.00353698
0.00353221
0.00350306
0.00353147
0.00353146
0.00350484
0.0035048
0.0035322
0.00350305
0.00353148
0.00353149
0.00350484
0.00350481
0.00353148
0.00350482
0.00350481
0.00353225
0.00350305
0.00353151
0.00350482
0.00350484
0.00350307
0.00349832
0.00346473
0.00349548
0.0034955
0.00346692
0.00346693
0.00349833
0.00346474
0.00349546
0.0034955
0.00346694
0.00346686
0.00349549
0.00346693
0.00346692
0.00349833
0.00346472
0.00349552
0.00346689
0.00346693
0.00346472
0.00345924
0.00342148
0.00345693
0.00345694
0.00342457
0.00342456
0.00345926
0.00342148
0.00345691
0.00345697
0.00342457
0.00342455
0.00345693
0.00342459
0.00342461
0.00345925
0.00342148
0.00345694
0.00342456
0.00342458
0.00342147
0.00341526
0.00337365
0.00341299
0.00341303
0.00337699
0.00337697
0.00341526
0.00337364
0.00341298
0.003413
0.00337697
0.00337696
0.00341297
0.00337698
0.00337696
0.00341525
0.00337365
0.00341299
0.00337697
0.00337694
0.00337363
0.00336716
0.00332499
0.00336474
0.00336475
0.00332824
0.00332826
0.00336714
0.00332498
0.00336474
0.00336474
0.00332824
0.00332824
0.00336475
0.00332826
0.00332825
0.00336715
0.00332499
0.00336475
0.00332824
0.00332824
0.00332498
0.00331858
0.00327707
0.00331616
0.00331615
0.00328026
0.00328027
0.00331856
0.00327706
0.00331615
0.00331615
0.00328028
0.00328027
0.00331618
0.00328026
0.00328028
0.00331857
0.00327706
0.00331615
0.00328029
0.00328026
0.00327706
0.00327076
0.00322977
0.00326839
0.0032684
0.00323287
0.00323291
0.00327075
0.00322976
0.00326838
0.00326838
0.00323288
0.00323289
0.00326841
0.00323291
0.00323289
0.00327075
0.00322976
0.00326839
0.00323289
0.00323288
0.00322976
0.00322357
0.00318338
0.00322116
0.00322114
0.00318636
0.00318638
0.00322356
0.00318341
0.00322114
0.00322114
0.00318635
0.00318637
0.00322115
0.00318637
0.00318634
0.00322356
0.00318339
0.00322115
0.00318636
0.00318636
0.00318337
0.00317736
0.00313807
0.00317494
0.00317492
0.00314097
0.00314099
0.00317736
0.0031381
0.00317493
0.00317492
0.00314097
0.00314097
0.00317494
0.00314097
0.00314097
0.00317735
0.00313808
0.00317491
0.00314096
0.00314096
0.00313807
0.00313216
0.00309366
0.00312976
0.00312975
0.00309645
0.00309644
0.00313218
0.00309365
0.00312976
0.00312976
0.00309645
0.00309645
0.00312979
0.00309642
0.00309646
0.00313217
0.00309368
0.00312976
0.00309643
0.00309644
0.00309366
0.00308786
0.00304997
0.00308543
0.00308543
0.00305266
0.0030527
0.00308788
0.00304993
0.00308543
0.00308546
0.00305265
0.00305276
0.00308546
0.00305269
0.00305273
0.00308788
0.00305002
0.00308545
0.00305273
0.00305268
0.00304997
0.00304433
0.00300693
0.00304192
0.00304184
0.00300962
0.00300954
0.00304423
0.00300688
0.00304194
0.00304193
0.00300965
0.00300959
0.00304195
0.00300955
0.00300956
0.00304433
0.00300693
0.00304193
0.00300958
0.00300959
0.00300687
0.00300133
0.00296425
0.00299897
0.00299891
0.00296702
0.00296688
0.0030013
0.00296425
0.00299893
0.00299893
0.00296699
0.00296676
0.00299893
0.0029669
0.00296695
0.00300131
0.00296419
0.00299884
0.00296675
0.00296698
0.00296413
0.00295868
0.00292194
0.00295626
0.00295642
0.00292463
0.00292465
0.00295876
0.00292192
0.0029563
0.00295636
0.00292464
0.00292437
0.00295612
0.00292461
0.00292463
0.00295871
0.00292171
0.00295617
0.00292441
0.00292459
0.0029219
0.00291645
0.00287984
0.00291402
0.00291402
0.00288259
0.00288259
0.00291643
0.00287985
0.00291405
0.00291392
0.00288257
0.00288229
0.00291396
0.00288251
0.00288243
0.00291626
0.00287965
0.00291398
0.00288229
0.00288243
0.00287968
0.00287439
0.00283807
0.00287202
0.00287197
0.00284092
0.00284092
0.00287433
0.00283817
0.00287204
0.00287196
0.00284086
0.00284059
0.00287184
0.00284091
0.00284077
0.00287424
0.00283784
0.00287182
0.00284059
0.00284074
0.00283798
0.00283269
0.0027967
0.00283047
0.00283042
0.0027992
0.00279932
0.00283273
0.00279675
0.00283046
0.0028302
0.00279922
0.00279907
0.00283017
0.00279947
0.00279944
0.00283247
0.00279654
0.00283012
0.00279909
0.0027993
0.0027966
0.00279143
0.00275535
0.00278924
0.00278925
0.00275813
0.00275802
0.0027915
0.0027555
0.0027891
0.00278899
0.00275816
0.00275809
0.00278903
0.00275819
0.00275834
0.00279123
0.00275532
0.00278895
0.00275808
0.00275823
0.00275545
0.00275006
0.00271475
0.00274781
0.00274791
0.00271765
0.00271752
0.00275023
0.00271479
0.00274773
0.00274776
0.00271765
0.00271776
0.00274814
0.00271737
0.00271758
0.00275006
0.00271458
0.00274809
0.00271768
0.0027175
0.00271463
0.00270963
0.0026743
0.00270759
0.00270702
0.00267695
0.00267749
0.0027094
0.00267422
0.00270759
0.00270742
0.0026769
0.00267704
0.00270751
0.00267731
0.00267707
0.00270946
0.00267424
0.00270749
0.00267695
0.00267705
0.00267418
0.00266902
0.00263392
0.00266713
0.00266733
0.00263702
0.00263657
0.00266917
0.00263404
0.00266704
0.00266718
0.00263706
0.00263702
0.00266718
0.00263665
0.00263679
0.00266905
0.00263406
0.00266725
0.00263691
0.00263682
0.00263398
0.00262886
0.00259428
0.00262694
0.0026271
0.00259737
0.00259737
0.00262875
0.0025942
0.00262699
0.00262684
0.00259733
0.00259744
0.00262696
0.00259735
0.0025973
0.00262881
0.00259442
0.00262694
0.00259743
0.00259729
0.0025942
0.00258961
0.00255441
0.00258758
0.00258716
0.00255752
0.00255789
0.00258902
0.00255457
0.0025876
0.00258739
0.00255749
0.00255764
0.00258725
0.0025579
0.00255786
0.00258935
0.00255461
0.00258721
0.00255765
0.00255786
0.00255495
0.00254924
0.00251627
0.00254772
0.00254848
0.00251866
0.0025185
0.00255064
0.0025153
0.00254764
0.00254783
0.00251866
0.00251852
0.00254809
0.0025184
0.00251827
0.00254963
0.00251567
0.00254802
0.0025185
0.00251834
0.00251523
0.00251111
0.00247576
0.00250879
0.00250847
0.00247909
0.00247932
0.00251001
0.00247619
0.00250883
0.00250868
0.00247913
0.00247931
0.00250859
0.00247937
0.00247939
0.00251063
0.00247648
0.0025086
0.00247933
0.00247946
0.0024768
0.00247096
0.00243843
0.0024695
0.00246946
0.00244071
0.00244086
0.00247112
0.00243898
0.00246951
0.00246961
0.00244069
0.00244059
0.00246961
0.00244076
0.00244064
0.00247162
0.00243771
0.00246966
0.00244059
0.00244059
0.0024377
0.00243319
0.00239926
0.00243091
0.00243116
0.00240201
0.00240185
0.00243437
0.00239903
0.00243088
0.00243092
0.00240201
0.002402
0.00243108
0.00240187
0.00240197
0.00243278
0.00239958
0.00243104
0.002402
0.002402
0.00239948
0.00239446
0.00236126
0.00239235
0.00239225
0.00236377
0.00236382
0.00239377
0.00236189
0.00239238
0.0023923
0.0023638
0.00236382
0.00239225
0.00236384
0.00236385
0.00239446
0.00236146
0.00239229
0.0023638
0.00236384
0.00236146
0.00235641
0.00232299
0.00235422
0.00235416
0.00232541
0.0023254
0.00235712
0.00232262
0.00235419
0.00235424
0.00232538
0.00232551
0.00235423
0.00232543
0.00232547
0.00235669
0.00232279
0.00235423
0.00232552
0.00232548
0.00232277
0.00231793
0.00228552
0.00231586
0.00231606
0.00228781
0.00228768
0.00231758
0.00228553
0.00231584
0.00231596
0.00228784
0.00228758
0.00231597
0.00228765
0.00228758
0.00231785
0.00228515
0.00231599
0.00228759
0.00228757
0.00228511
0.00228067
0.00224719
0.00227831
0.00227813
0.00224957
0.00224962
0.00228073
0.0022469
0.00227831
0.00227821
0.00224957
0.00224969
0.00227826
0.00224963
0.00224972
0.00228016
0.00224739
0.00227823
0.0022497
0.00224974
0.00224732
0.00224219
0.0022097
0.00224008
0.00224029
0.00221223
0.00221221
0.00224197
0.00221
0.00224008
0.00224019
0.00221221
0.00221219
0.00224019
0.00221219
0.00221202
0.00224245
0.0022097
0.00224021
0.0022122
0.00221201
0.00220942
0.0022049
0.00217224
0.0022029
0.00220283
0.00217467
0.0021746
0.00220512
0.002172
0.00220291
0.00220286
0.00217469
0.00217463
0.00220283
0.00217459
0.00217478
0.00220485
0.00217212
0.00220283
0.00217461
0.00217479
0.00217231
0.00216727
0.00213461
0.00216521
0.00216518
0.00213708
0.00213712
0.00216712
0.00213474
0.0021652
0.00216517
0.00213707
0.0021371
0.00216531
0.00213714
0.00213702
0.0021672
0.0021347
0.00216532
0.00213711
0.00213702
0.00213461
0.00212975
0.00209758
0.00212779
0.00212789
0.00210004
0.00210004
0.00212987
0.00209748
0.00212779
0.0021279
0.00210006
0.00210006
0.00212775
0.00210001
0.00210004
0.00212988
0.00209749
0.00212774
0.00210005
0.00210005
0.00209758
0.00209271
0.00206046
0.00209076
0.0020907
0.00206287
0.00206284
0.00209261
0.00206049
0.00209076
0.0020907
0.00206286
0.00206281
0.00209076
0.00206285
0.00206288
0.00209261
0.00206046
0.00209076
0.00206281
0.00206289
0.00206046
0.00205559
0.00202358
0.00205364
0.00205364
0.00202599
0.00202604
0.00205564
0.00202358
0.00205362
0.00205363
0.00202601
0.00202604
0.00205363
0.00202603
0.00202599
0.00205561
0.0020236
0.00205363
0.00202605
0.00202597
0.0020236
0.00201874
0.00198683
0.00201677
0.00201681
0.00198918
0.00198916
0.00201872
0.00198684
0.00201679
0.0020168
0.00198917
0.00198919
0.00201679
0.00198916
0.00198916
0.00201874
0.00198682
0.00201678
0.00198916
0.00198922
0.00198683
0.00198198
0.00195024
0.00198001
0.00197999
0.00195255
0.00195254
0.001982
0.00195019
0.00198
0.00198001
0.00195256
0.00195254
0.00197999
0.00195255
0.00195257
0.00198197
0.00195023
0.00198003
0.00195255
0.00195251
0.00195022
0.00194541
0.00191373
0.0019434
0.00194339
0.00191603
0.00191598
0.00194535
0.00191375
0.00194342
0.0019434
0.00191602
0.00191601
0.00194342
0.00191597
0.00191598
0.0019454
0.00191373
0.00194337
0.00191601
0.00191604
0.00191375
0.00190892
0.00187746
0.00190692
0.00190689
0.0018797
0.00187978
0.00190896
0.00187754
0.00190691
0.00190691
0.00187968
0.00187971
0.0019069
0.00187985
0.00187975
0.00190892
0.00187749
0.00190695
0.00187973
0.00187972
0.00187747
0.00187266
0.00184133
0.00187065
0.00187073
0.00184354
0.00184344
0.00187271
0.00184118
0.00187064
0.00187065
0.00184355
0.00184352
0.00187068
0.00184335
0.00184346
0.00187268
0.00184129
0.00187063
0.00184351
0.00184346
0.00184127
0.00183653
0.00180528
0.0018345
0.00183438
0.00180744
0.00180748
0.00183641
0.00180536
0.00183451
0.00183447
0.00180744
0.00180739
0.00183442
0.00180748
0.00180745
0.00183649
0.00180524
0.00183445
0.0018074
0.00180748
0.00180531
0.0018005
0.00176948
0.00179847
0.00179854
0.00177163
0.00177165
0.00180058
0.00176949
0.00179846
0.00179841
0.00177161
0.00177165
0.0017985
0.00177166
0.00177166
0.00180048
0.00176955
0.0017985
0.00177168
0.00177163
0.00176949
0.00176472
0.0017339
0.00176269
0.0017627
0.00173599
0.00173599
0.00176473
0.00173388
0.00176268
0.00176276
0.00173601
0.00173605
0.00176271
0.00173598
0.00173594
0.00176481
0.00173385
0.0017627
0.00173598
0.00173597
0.00173386
0.00172916
0.00169839
0.00172712
0.00172711
0.0017005
0.00170046
0.00172913
0.00169838
0.00172714
0.00172713
0.0017005
0.00170041
0.00172708
0.00170047
0.00170055
0.0017291
0.00169834
0.00172709
0.00170037
0.00170051
0.00169843
0.00169366
0.00166308
0.00169163
0.00169162
0.00166513
0.00166517
0.00169366
0.00166311
0.00169162
0.00169156
0.00166511
0.00166515
0.00169169
0.00166517
0.00166512
0.00169363
0.00166312
0.00169167
0.00166519
0.00166514
0.00166307
0.00165839
0.00162809
0.00165637
0.00165638
0.00163017
0.0016301
0.00165841
0.00162804
0.00165635
0.00165638
0.00163018
0.00163017
0.00165633
0.00163011
0.00163014
0.00165843
0.00162809
0.00165634
0.00163016
0.00163012
0.00162807
0.0016234
0.00159331
0.00162142
0.00162137
0.00159529
0.00159535
0.00162337
0.00159335
0.00162143
0.00162144
0.0015953
0.00159537
0.00162141
0.00159535
0.00159534
0.00162342
0.00159336
0.0016214
0.00159537
0.00159537
0.00159335
0.0015887
0.00155895
0.00158669
0.00158675
0.00156101
0.001561
0.00158873
0.00155893
0.00158669
0.00158674
0.00156099
0.00156096
0.00158673
0.001561
0.001561
0.00158873
0.0015589
0.00158675
0.00156097
0.00156098
0.00155893
0.0015543
0.00152421
0.00155237
0.00155234
0.00152623
0.00152624
0.00155429
0.00152422
0.00155235
0.00155231
0.00152623
0.00152623
0.00155236
0.00152624
0.00152623
0.00155426
0.00152422
0.00155233
0.00152624
0.00152623
0.00152422
0.00151956
0.00149014
0.00151756
0.00151758
0.00149203
0.00149206
0.00151957
0.00149015
0.00151756
0.00151758
0.00149203
0.00149205
0.00151756
0.00149206
0.00149203
0.00151956
0.00149015
0.00151757
0.00149205
0.00149205
0.00149014
0.00148564
0.00145703
0.00148368
0.0014837
0.001459
0.00145901
0.00148565
0.00145703
0.00148368
0.0014837
0.001459
0.00145901
0.00148368
0.00145901
0.00145901
0.00148565
0.00145703
0.0014837
0.00145901
0.00145901
0.00145704
0.00145256
0.00142375
0.00145075
0.00145076
0.0014259
0.00142587
0.00145256
0.00142373
0.00145076
0.00145076
0.0014259
0.00142588
0.00145077
0.00142588
0.00142589
0.00145256
0.00142374
0.00145076
0.00142589
0.00142589
0.00142374
0.00141924
0.00138945
0.00141752
0.0014175
0.00139166
0.00139165
0.00141922
0.00138944
0.00141752
0.00141751
0.00139166
0.00139166
0.00141752
0.00139164
0.00139165
0.00141923
0.00138945
0.00141751
0.00139165
0.00139165
0.00138944
0.00138463
0.00135275
0.00138272
0.00138271
0.00135501
0.00135501
0.00138463
0.00135274
0.00138272
0.00138272
0.00135501
0.00135501
0.0013827
0.00135501
0.00135501
0.00138463
0.00135274
0.0013827
0.00135501
0.00135501
0.00135274
0.00134763
0.00131515
0.00134554
0.00134554
0.0013171
0.00131711
0.00134763
0.00131516
0.00134554
0.00134554
0.0013171
0.0013171
0.00134554
0.0013171
0.0013171
0.00134763
0.00131515
0.00134554
0.0013171
0.0013171
0.00131515
0.00131005
0.0012773
0.00130766
0.00130767
0.0012792
0.0012792
0.00131006
0.0012773
0.00130766
0.00130767
0.00127919
0.0012792
0.00130766
0.0012792
0.0012792
0.00131005
0.0012773
0.00130766
0.0012792
0.0012792
0.0012773
0.00127227
0.00124136
0.00126987
0.00126987
0.00124313
0.00124312
0.00127227
0.00124136
0.00126986
0.00126987
0.00124312
0.00124313
0.00126987
0.00124312
0.00124312
0.00127227
0.00124137
0.00126986
0.00124313
0.00124312
0.00124136
0.00123681
0.00120902
0.00123471
0.00123471
0.00121082
0.00121082
0.00123681
0.00120901
0.00123471
0.00123471
0.00121083
0.00121082
0.00123471
0.00121082
0.00121082
0.00123682
0.00120902
0.00123471
0.00121082
0.00121082
0.00120901
0.00120485
0.00117868
0.00120318
0.00120317
0.00118072
0.00118072
0.00120485
0.00117868
0.00120318
0.00120318
0.00118072
0.00118072
0.00120317
0.00118072
0.00118072
0.00120485
0.00117868
0.00120318
0.00118072
0.00118072
0.00117868
0.00117469
0.00114906
0.00117336
0.00117336
0.00115113
0.00115113
0.00117469
0.00114906
0.00117336
0.00117336
0.00115114
0.00115113
0.00117336
0.00115113
0.00115113
0.00117469
0.00114906
0.00117336
0.00115113
0.00115113
0.00114906
0.001145
0.00111851
0.00114361
0.00114361
0.00112052
0.00112052
0.001145
0.00111851
0.00114361
0.00114361
0.00112052
0.00112052
0.00114361
0.00112052
0.00112052
0.001145
0.00111851
0.00114361
0.00112052
0.00112052
0.00111851
0.00111423
0.00108621
0.00111262
0.00111262
0.00108822
0.00108822
0.00111423
0.00108621
0.00111262
0.00111262
0.00108822
0.00108822
0.00111262
0.00108822
0.00108822
0.00111423
0.00108621
0.00111262
0.00108822
0.00108822
0.00108621
0.00108168
0.00105219
0.00107986
0.00107986
0.00105422
0.00105422
0.00108168
0.00105219
0.00107986
0.00107986
0.00105422
0.00105422
0.00107986
0.00105422
0.00105422
0.00108168
0.00105219
0.00107986
0.00105422
0.00105422
0.00105219
0.00104747
0.00101701
0.00104551
0.00104551
0.00101906
0.00101906
0.00104747
0.00101701
0.00104551
0.00104551
0.00101906
0.00101906
0.00104551
0.00101906
0.00101906
0.00104747
0.00101701
0.00104551
0.00101906
0.00101906
0.00101701
0.00101218
0.000981227
0.00101016
0.00101016
0.000983285
0.000983285
0.00101218
0.000981227
0.00101016
0.00101016
0.000983285
0.000983285
0.00101016
0.000983285
0.000983285
0.00101218
0.000981227
0.00101016
0.000983285
0.000983285
0.000981226
0.000976346
0.000945166
0.000974288
0.000974288
0.000947227
0.000947227
0.000976346
0.000945166
0.000974288
0.000974288
0.000947227
0.000947227
0.000974288
0.000947227
0.000947227
0.000976346
0.000945166
0.000974288
0.000947227
0.000947227
0.000945165
0.000940264
0.000909014
0.000938192
0.000938192
0.000911076
0.000911076
0.000940264
0.000909014
0.000938192
0.000938192
0.000911076
0.000911076
0.000938192
0.000911076
0.000911076
0.000940264
0.000909013
0.000938192
0.000911076
0.000911076
0.000909013
0.000904108
0.000872833
0.000902035
0.000902035
0.000874897
0.000874897
0.000904108
0.000872833
0.000902035
0.000902035
0.000874897
0.000874897
0.000902035
0.000874897
0.000874897
0.000904109
0.000872833
0.000902035
0.000874897
0.000874897
0.000872832
0.000867924
0.000836641
0.000865848
0.000865848
0.000838704
0.000838704
0.000867924
0.000836641
0.000865848
0.000865848
0.000838704
0.000838704
0.000865848
0.000838704
0.000838704
0.000867924
0.000836641
0.000865848
0.000838704
0.000838704
0.00083664
0.000831733
0.000800457
0.000829658
0.000829658
0.000802521
0.000802521
0.000831733
0.000800457
0.000829658
0.000829658
0.000802521
0.000802521
0.000829659
0.000802521
0.000802521
0.000831734
0.000800457
0.000829658
0.000802521
0.000802521
0.000800456
0.000795549
0.000764265
0.000793473
0.000793473
0.000766329
0.000766329
0.000795549
0.000764265
0.000793473
0.000793473
0.000766329
0.000766329
0.000793473
0.000766329
0.000766329
0.000795549
0.000764265
0.000793473
0.000766329
0.000766329
0.000764264
0.000759357
0.000728078
0.000757282
0.000757282
0.000730141
0.000730141
0.000759357
0.000728078
0.000757282
0.000757282
0.000730141
0.000730141
0.000757282
0.000730141
0.000730141
0.000759357
0.000728078
0.000757282
0.000730141
0.000730141
0.000728078
0.000723171
0.00069189
0.000721095
0.000721095
0.000693954
0.000693954
0.000723171
0.00069189
0.000721095
0.000721095
0.000693954
0.000693954
0.000721095
0.000693954
0.000693954
0.000723171
0.000691889
0.000721095
0.000693954
0.000693954
0.000691888
0.00068698
0.000655702
0.000684905
0.000684905
0.000657766
0.000657766
0.00068698
0.000655703
0.000684905
0.000684905
0.000657766
0.000657766
0.000684905
0.000657765
0.000657766
0.000686981
0.000655702
0.000684905
0.000657766
0.000657766
0.000655702
0.000650796
0.000619516
0.000648721
0.000648721
0.000621579
0.000621579
0.000650796
0.000619516
0.000648721
0.000648721
0.000621579
0.000621579
0.000648721
0.00062158
0.00062158
0.000650796
0.000619515
0.000648721
0.000621579
0.000621579
0.000619515
0.000614607
0.000583334
0.000612533
0.000612532
0.000585397
0.000585397
0.000614607
0.000583334
0.000612533
0.000612532
0.000585397
0.000585397
0.000612532
0.000585398
0.000585398
0.000614608
0.000583334
0.000612532
0.000585397
0.000585398
0.000583334
0.000578427
0.000547149
0.000576351
0.000576351
0.000549213
0.000549213
0.000578427
0.000547149
0.000576351
0.000576351
0.000549213
0.000549213
0.000576352
0.000549213
0.000549213
0.000578427
0.000547149
0.000576351
0.000549213
0.000549213
0.000547148
0.000542243
0.00051097
0.000540169
0.000540169
0.000513032
0.000513032
0.000542242
0.00051097
0.000540169
0.000540169
0.000513032
0.000513032
0.000540169
0.000513032
0.000513032
0.000542243
0.00051097
0.000540169
0.000513032
0.000513032
0.000510969
0.000506063
0.000474791
0.000503987
0.000503987
0.000476854
0.000476853
0.000506063
0.00047479
0.000503987
0.000503987
0.000476854
0.000476854
0.000503987
0.000476853
0.000476854
0.000506063
0.00047479
0.000503987
0.000476853
0.000476854
0.00047479
0.000469885
0.000438611
0.00046781
0.000467809
0.000440674
0.000440675
0.000469884
0.000438611
0.000467809
0.000467809
0.000440675
0.000440675
0.000467809
0.000440675
0.000440675
0.000469885
0.000438611
0.000467809
0.000440675
0.000440675
0.000438611
0.000433705
0.000402436
0.000431632
0.000431631
0.000404498
0.000404499
0.000433705
0.000402436
0.000431632
0.000431632
0.000404498
0.000404498
0.000431632
0.000404498
0.000404498
0.000433705
0.000402435
0.000431632
0.000404498
0.000404498
0.000402434
0.000397528
0.000366261
0.000395454
0.000395454
0.000368323
0.000368322
0.000397529
0.00036626
0.000395454
0.000395454
0.000368323
0.000368323
0.000395454
0.000368322
0.000368323
0.000397529
0.00036626
0.000395454
0.000368322
0.000368323
0.00036626
0.000361353
0.000330081
0.000359279
0.000359279
0.000332142
0.000332142
0.000361353
0.00033008
0.000359279
0.000359279
0.000332143
0.000332143
0.000359279
0.000332143
0.000332143
0.000361353
0.00033008
0.000359278
0.000332143
0.000332143
0.00033008
0.000325175
0.000293899
0.000323101
0.0003231
0.000295962
0.000295963
0.000325174
0.0002939
0.000323101
0.000323101
0.000295962
0.000295962
0.000323101
0.000295962
0.000295962
0.000325175
0.000293899
0.000323101
0.000295962
0.000295962
0.000293899
0.000288991
0.000257721
0.000286918
0.000286918
0.000259784
0.000259784
0.000288991
0.000257722
0.000286918
0.000286919
0.000259783
0.000259783
0.000286919
0.000259784
0.000259784
0.000288992
0.00025772
0.000286919
0.000259783
0.000259783
0.00025772
0.00025281
0.000221541
0.00025074
0.00025074
0.000223601
0.0002236
0.000252811
0.000221541
0.000250738
0.000250738
0.000223602
0.000223602
0.000250739
0.000223601
0.000223601
0.00025281
0.000221541
0.000250738
0.000223602
0.000223602
0.000221541
0.000216629
0.000185357
0.000214559
0.000214559
0.000187417
0.000187417
0.000216629
0.000185357
0.000214559
0.000214559
0.000187417
0.000187418
0.00021456
0.000187416
0.000187416
0.000216629
0.000185358
0.00021456
0.000187416
0.000187415
0.000185356
0.000180441
0.000149177
0.000178375
0.000178375
0.000151234
0.000151233
0.000180441
0.000149176
0.000178376
0.000178377
0.000151234
0.000151233
0.000178376
0.000151233
0.000151233
0.000180442
0.000149176
0.000178376
0.000151233
0.000151233
0.000149175
0.00014425
0.000112994
0.000142193
0.000142193
0.000115044
0.000115045
0.000144249
0.000112994
0.000142193
0.000142193
0.000115044
0.000115044
0.000142192
0.000115046
0.000115045
0.000144249
0.000112992
0.000142191
0.000115044
0.000115045
0.000112993
0.000108048
7.68008e-05
0.000106007
0.000106007
7.88469e-05
7.88469e-05
0.000108048
7.68016e-05
0.000106007
0.000106006
7.88466e-05
7.88458e-05
0.000106006
7.88466e-05
7.88457e-05
0.000108047
7.6799e-05
0.000106006
7.88456e-05
7.88451e-05
7.68003e-05
7.18177e-05
4.06554e-05
6.98115e-05
6.98118e-05
4.26986e-05
4.26981e-05
7.18188e-05
4.06544e-05
6.98106e-05
6.9809e-05
4.26969e-05
4.26937e-05
6.98101e-05
4.26966e-05
4.26933e-05
7.18154e-05
4.06503e-05
6.98096e-05
4.26928e-05
4.26921e-05
4.06501e-05
3.5703e-05
8.34361e-06
3.38488e-05
3.38486e-05
1.13505e-05
1.13517e-05
3.57013e-05
8.34511e-06
3.38474e-05
3.38437e-05
1.13535e-05
1.13472e-05
3.38432e-05
1.13531e-05
1.13475e-05
3.5698e-05
8.34017e-06
3.3843e-05
1.13496e-05
1.13513e-05
8.34149e-06
5.14154e-06
6.82878e-06
6.82894e-06
5.14251e-06
6.83071e-06
6.82533e-06
6.01478e-06
6.01316e-06
6.01375e-06
6.82628e-06
5.13776e-06
6.82829e-06
0.00354407
0.00354667
0.00354546
0.00354548
0.00357245
0.00354658
0.003576
0.00354685
0.0035725
0.00354668
0.00354691
0.00357607
0.00355767
0.00357943
0.00357937
0.00351643
0.00353018
0.00353396
0.00350877
0.00350685
0.00351215
0.00351653
0.0035302
0.00353399
0.00350879
0.00353248
0.0035325
0.0035325
0.0035059
0.00350591
0.0035059
0.00350588
0.00351618
0.00352786
0.00353305
0.00352371
0.00353518
0.0035133
0.00352396
0.00350706
0.00351223
0.00351619
0.00353306
0.00352789
0.00352372
0.00353522
0.00352399
0.00351331
0.00353398
0.003534
0.00352099
0.00351322
0.00351321
0.00348914
0.00350319
0.00350298
0.00348708
0.00350037
0.00348614
0.00348915
0.00350318
0.00350296
0.00348704
0.00349689
0.00349688
0.00349686
0.00346892
0.00346894
0.00346891
0.0034689
0.00348683
0.00350173
0.00349535
0.00348601
0.00350017
0.00348736
0.00348607
0.00350046
0.00348609
0.00348683
0.00349536
0.00350174
0.00348601
0.00350016
0.00348608
0.00348735
0.00350341
0.00350341
0.00348453
0.00348771
0.00348769
0.00344691
0.00346146
0.00346229
0.00344547
0.00346026
0.00344464
0.00344683
0.00346144
0.00346235
0.00344547
0.00345894
0.0034589
0.00345889
0.00342631
0.00342633
0.00342631
0.00342631
0.00344556
0.00346106
0.00345692
0.00344657
0.00345999
0.00344598
0.00344659
0.00346024
0.00344464
0.00344553
0.00345692
0.00346107
0.00344653
0.00345999
0.00344658
0.00344594
0.00346168
0.00346168
0.00344388
0.00344577
0.00344577
0.0034003
0.00341683
0.00341833
0.00339884
0.00341614
0.00339839
0.00340028
0.00341681
0.00341827
0.00339883
0.00341469
0.00341466
0.00341466
0.0033785
0.00337851
0.0033785
0.00337849
0.00339945
0.00341671
0.003413
0.00340118
0.00341609
0.00339955
0.00340112
0.0034161
0.00339835
0.00339943
0.00341298
0.00341666
0.00340116
0.00341606
0.00340113
0.00339951
0.00341684
0.00341685
0.00339787
0.00339907
0.00339903
0.00335117
0.00336833
0.00336965
0.00334998
0.00336795
0.00334965
0.00335115
0.00336833
0.00336968
0.00334998
0.00336627
0.00336626
0.00336626
0.00332971
0.00332971
0.00332971
0.0033297
0.00335076
0.00336831
0.00336476
0.00335255
0.00336799
0.0033507
0.00335256
0.00336794
0.00334967
0.00335074
0.00336475
0.00336831
0.00335256
0.00336798
0.00335256
0.0033507
0.00336836
0.00336839
0.00334927
0.0033501
0.00335011
0.00330236
0.0033195
0.00332045
0.00330144
0.00331922
0.00330122
0.00330235
0.00331948
0.0033204
0.00330144
0.00331762
0.00331761
0.00331762
0.0032816
0.00328161
0.0032816
0.0032816
0.00330225
0.00331951
0.00331623