/*--------------------------------*- C++ -*----------------------------------*\
| =========                 |                                                 |
| \\      /  F ield         | OpenFOAM: The Open Source CFD Toolbox           |
|  \\    /   O peration     | Version:  v2006                                 |
|   \\  /    A nd           | Website:  www.openfoam.com                      |
|    \\/     M anipulation  |                                                 |
\*---------------------------------------------------------------------------*/
FoamFile
{
    version     2.0;
    format      ascii;
    class       volScalarField;
    location    "1000";
    object      nut;
}
// * * * * * * * * * * * * * * * * * * * * * * * * * * * * * * * * * * * * * //

dimensions      [0 2 -1 0 0 0 0];


internalField   nonuniform List<scalar> 
14212
(
9.82071e-05
5.05442e-05
2.38093e-05
5.05421e-05
0.00018493
0.000101597
2.381e-05
2.38083e-05
0.000171774
7.71436e-05
7.71721e-05
9.81813e-05
5.05424e-05
0.000139009
0.000185684
0.000101635
0.00019079
0.000138949
0.000184849
0.000101508
0.000190359
0.00017099
7.70855e-05
7.71285e-05
2.38102e-05
0.000185798
0.000101713
5.05453e-05
3.65684e-05
9.81016e-05
4.08915e-05
9.31687e-05
4.08862e-05
9.3062e-05
3.65736e-05
2.0245e-05
7.84675e-05
5.05356e-05
7.83759e-05
2.02488e-05
2.3804e-05
5.05351e-05
2.38056e-05
2.3805e-05
8.09821e-05
2.16477e-05
2.16456e-05
2.16409e-05
2.16402e-05
8.11177e-05
0.000103603
4.84757e-05
7.70471e-05
0.000125485
4.84632e-05
0.00010377
0.000125314
0.000103613
7.70843e-05
4.8464e-05
0.00012554
4.84589e-05
0.000103771
0.000125379
3.65655e-05
9.80683e-05
4.08914e-05
9.31034e-05
4.08858e-05
9.29735e-05
3.65714e-05
2.02423e-05
7.84046e-05
5.05305e-05
7.82555e-05
2.02469e-05
2.16444e-05
2.1647e-05
8.09845e-05
0.000103342
4.84665e-05
7.69154e-05
0.000125241
4.84527e-05
0.000124862
0.000103622
4.84778e-05
0.000125344
0.000103658
0.000182003
0.000173182
0.000180456
0.000172268
0.000141757
0.000134323
0.000171598
0.000154795
0.000154811
0.000134506
0.000154665
0.000154686
0.000162215
0.000138843
0.000133181
0.000166606
0.000133018
0.000166492
0.000162316
0.000153395
0.000119577
0.000101501
0.000142007
0.000119405
0.000141896
0.000153522
0.000161887
0.000138766
0.000133028
0.000166489
0.000132813
0.00016636
0.000162029
0.000152889
0.000119382
0.000101253
0.000141614
0.0001191
0.000153113
0.00014137
0.000133845
0.000170617
0.000154244
0.00015431
0.000153991
0.000153929
0.000134238
0.000101594
0.000142132
0.000142023
8.08289e-05
2.16383e-05
2.16411e-05
0.000103382
7.69721e-05
0.00012497
4.84648e-05
2.38054e-05
5.05345e-05
0.000101355
0.000141515
0.000131797
0.000154836
9.69161e-05
0.000132323
0.000165082
0.000156081
0.000101305
9.69264e-05
5.04309e-05
0.000169885
0.000102456
5.04162e-05
0.00016181
7.82123e-05
7.86324e-05
2.37789e-05
2.3774e-05
3.64472e-05
9.21992e-05
4.07466e-05
9.70801e-05
3.6448e-05
9.22807e-05
4.07469e-05
3.64552e-05
4.07498e-05
9.21891e-05
9.71993e-05
3.64535e-05
4.07511e-05
9.24865e-05
2.01958e-05
7.82604e-05
5.04331e-05
2.01944e-05
7.84182e-05
5.04055e-05
8.28869e-05
2.16526e-05
2.16472e-05
8.26476e-05
2.1654e-05
2.1647e-05
0.000105794
4.84798e-05
0.000125013
7.86955e-05
0.000104802
0.000126778
4.8491e-05
0.000106196
4.84797e-05
0.000126838
7.8748e-05
0.000105573
0.00012792
4.8479e-05
2.37799e-05
2.3771e-05
0.00013165
0.000145964
0.000126402
0.000149097
0.000132863
0.00014503
0.000127162
0.000150482
0.00015146
0.000150302
0.000128355
0.000133617
0.000149214
0.000152355
0.000129628
0.000147675
0.000117412
0.000137606
0.000102193
0.000145091
0.000118464
0.000139927
0.000141223
0.000102705
0.00014254
0.000136596
0.000166346
0.000150331
0.000151882
0.000134708
0.000153574
0.00015481
2.01824e-05
7.81491e-05
2.01854e-05
7.81656e-05
0.000138259
0.000113785
0.000137607
0.000114169
7.84462e-05
2.02478e-05
0.000119526
0.000153283
9.81585e-05
0.000138831
0.000170532
0.000189408
0.000185288
9.82857e-05
9.83053e-05
0.000171649
2.38033e-05
0.000181456
0.000184171
0.000190175
0.000171923
0.000189851
0.000189356
0.00016992
0.000183687
0.000189995
5.05269e-05
7.69839e-05
0.00018539
0.000189915
0.000170015
0.000101497
9.8165e-05
0.00013889
0.00019052
5.05292e-05
0.000170966
0.000185916
9.83057e-05
9.83365e-05
2.38037e-05
0.000170752
0.000169882
0.000171914
0.000171057
5.0523e-05
9.8161e-05
0.000184711
0.000101498
0.00013885
0.000185065
0.000189994
0.000189509
5.05192e-05
0.000184273
0.000189592
0.000101421
0.000183579
0.000188991
2.37968e-05
7.69002e-05
7.69802e-05
2.37993e-05
0.00018424
0.000138972
0.000101515
0.000183503
0.000188736
0.000189835
0.000139029
0.000101856
0.000184623
0.000189179
0.000101501
5.05266e-05
5.05291e-05
5.05142e-05
7.7293e-05
7.7334e-05
0.000170848
7.71211e-05
7.7141e-05
2.37975e-05
2.38032e-05
2.37973e-05
9.8154e-05
5.0524e-05
9.80449e-05
2.37958e-05
5.05259e-05
9.81732e-05
0.000171508
0.000172606
0.000171873
0.000189841
0.000139201
0.000101069
0.000138813
0.000190425
2.37982e-05
0.000185015
0.000139067
0.000101542
7.7315e-05
7.7357e-05
0.000172451
7.73562e-05
7.73871e-05
2.37983e-05
2.37924e-05
2.37996e-05
0.000170819
7.69837e-05
0.000171194
7.69163e-05
7.69546e-05
9.81339e-05
0.000138809
0.000138756
9.81043e-05
5.05211e-05
5.05108e-05
9.8053e-05
9.80794e-05
5.05096e-05
5.0499e-05
9.80189e-05
0.000184845
0.000185109
0.000190161
0.000138766
0.000101425
0.000101446
0.00013874
0.000189593
0.000183719
0.000183598
0.000138707
0.000100991
0.000101081
0.000138664
2.37935e-05
2.37852e-05
0.000169739
7.65348e-05
7.65996e-05
7.65924e-05
7.66323e-05
2.37958e-05
2.37873e-05
0.0001894
0.000183521
0.000189092
0.000138647
0.00010106
0.000101114
0.00013878
9.80975e-05
5.05149e-05
5.05024e-05
9.81177e-05
0.000185337
0.000101792
0.0001895
0.000184762
0.000101532
0.000138687
0.0001389
5.05139e-05
9.81066e-05
9.81711e-05
2.37996e-05
2.38007e-05
0.00017131
7.69179e-05
5.05138e-05
9.801e-05
0.000190463
0.000101416
0.000138735
0.000184147
0.000100977
0.000138655
7.65929e-05
7.668e-05
2.3798e-05
0.000138903
0.000185447
0.000190517
5.0522e-05
0.000184991
0.000190242
0.000101439
9.83061e-05
5.05191e-05
9.81313e-05
0.000185863
0.000101806
0.000139317
0.000186338
0.000138942
0.000191079
0.000101966
9.83584e-05
9.81894e-05
5.05414e-05
7.69321e-05
7.7011e-05
2.38006e-05
0.00019058
0.000139124
0.000101886
0.000186464
0.00010204
5.05293e-05
5.05312e-05
5.05413e-05
2.38068e-05
2.38034e-05
2.3806e-05
3.65567e-05
4.08795e-05
9.30957e-05
9.80914e-05
4.08759e-05
9.30411e-05
3.656e-05
3.65615e-05
9.32093e-05
4.08827e-05
9.81816e-05
9.31253e-05
4.08786e-05
3.6565e-05
3.65604e-05
9.32484e-05
4.0883e-05
9.82059e-05
9.31643e-05
4.08788e-05
3.65642e-05
2.38011e-05
2.02394e-05
5.05216e-05
7.84336e-05
7.83929e-05
2.0242e-05
0.000103594
0.00012523
4.84536e-05
7.70431e-05
0.000103501
4.84594e-05
0.000125365
3.6565e-05
4.08811e-05
9.30989e-05
9.8238e-05
3.65613e-05
4.08849e-05
9.3157e-05
2.02452e-05
7.84393e-05
5.05343e-05
2.02425e-05
7.84912e-05
3.65696e-05
9.32166e-05
4.08843e-05
9.83897e-05
3.65663e-05
9.32802e-05
4.0888e-05
3.65691e-05
9.32734e-05
4.08846e-05
9.84166e-05
3.65656e-05
9.33425e-05
4.08884e-05
2.38054e-05
2.02387e-05
5.05178e-05
7.83823e-05
7.83563e-05
2.02412e-05
3.65589e-05
9.30922e-05
4.08799e-05
9.81073e-05
9.30553e-05
4.08763e-05
3.65623e-05
2.02374e-05
7.83809e-05
5.05137e-05
7.83588e-05
2.02395e-05
2.37935e-05
0.000103237
0.000125028
4.84375e-05
7.68511e-05
0.000124816
4.8429e-05
0.00010338
8.06399e-05
2.16312e-05
2.16348e-05
2.16264e-05
2.16301e-05
8.07136e-05
0.000103256
0.000125114
4.84522e-05
7.69246e-05
4.84436e-05
0.000124878
0.000103409
2.37961e-05
2.02399e-05
7.84677e-05
5.05206e-05
7.8429e-05
2.0242e-05
2.02407e-05
7.85097e-05
5.05236e-05
7.84595e-05
2.02431e-05
2.02402e-05
5.05209e-05
7.83908e-05
2.02376e-05
7.84514e-05
0.000103903
0.000125735
4.84681e-05
7.72342e-05
4.84628e-05
0.000104005
0.000125562
8.12593e-05
2.16432e-05
2.16402e-05
2.16415e-05
2.16386e-05
8.1311e-05
0.00010392
0.000125755
4.84586e-05
7.72746e-05
0.000125566
4.84535e-05
0.000104026
0.000103848
7.71984e-05
0.000125296
4.84529e-05
4.84602e-05
0.000125505
0.000103711
8.11951e-05
2.1638e-05
2.16354e-05
2.1641e-05
2.16382e-05
8.11099e-05
0.000103857
7.7229e-05
0.000125248
4.84432e-05
0.000125484
4.84508e-05
0.000103708
2.38003e-05
2.3801e-05
2.38003e-05
3.65515e-05
4.08702e-05
9.30936e-05
9.8169e-05
4.08681e-05
9.31086e-05
3.65532e-05
2.02437e-05
7.83083e-05
5.05312e-05
2.02403e-05
7.83576e-05
3.6566e-05
9.80716e-05
4.08796e-05
9.29962e-05
3.65618e-05
4.08839e-05
9.30301e-05
2.38016e-05
2.02445e-05
7.83814e-05
5.05321e-05
2.02419e-05
7.84277e-05
3.65675e-05
9.31038e-05
4.08816e-05
9.82388e-05
3.65638e-05
9.31587e-05
4.08854e-05
2.38021e-05
0.000104085
0.000125768
4.84697e-05
7.73458e-05
0.000104036
0.000125891
4.84727e-05
8.13521e-05
2.1643e-05
2.164e-05
8.13393e-05
2.1644e-05
2.16408e-05
0.000104109
0.000125807
4.846e-05
7.7383e-05
0.00010406
0.000125936
4.84627e-05
8.135e-05
2.16435e-05
2.16404e-05
2.1643e-05
2.16401e-05
8.13399e-05
0.000104084
7.73492e-05
4.84744e-05
0.000125974
0.000125901
4.8473e-05
0.000104093
0.000104109
7.73845e-05
4.84639e-05
0.000126008
0.000125952
4.8463e-05
0.000104116
2.37955e-05
2.37944e-05
2.37967e-05
0.000103456
7.69653e-05
0.000125222
4.84511e-05
0.000125129
4.84455e-05
0.000103479
0.000103403
0.000125127
7.69224e-05
4.84358e-05
4.84296e-05
0.000125083
0.000103424
0.000103421
0.00012508
4.84235e-05
7.69419e-05
0.000103422
4.84272e-05
0.000125095
8.07212e-05
2.16334e-05
2.16313e-05
2.16279e-05
2.16301e-05
8.07097e-05
3.65488e-05
4.08698e-05
9.30445e-05
9.81511e-05
4.08678e-05
9.30673e-05
3.65502e-05
3.65561e-05
4.08711e-05
9.30435e-05
9.80916e-05
3.65539e-05
4.08735e-05
9.30341e-05
2.02369e-05
5.05162e-05
7.83131e-05
2.02395e-05
7.83081e-05
2.02366e-05
7.83339e-05
5.05139e-05
2.02349e-05
7.83289e-05
3.65572e-05
9.80622e-05
4.08779e-05
9.3002e-05
3.65602e-05
4.08747e-05
9.3008e-05
3.65526e-05
4.08706e-05
9.29816e-05
9.80637e-05
3.65507e-05
4.0873e-05
9.29625e-05
2.02335e-05
5.05039e-05
7.81827e-05
7.81875e-05
2.02359e-05
2.02333e-05
7.8244e-05
5.05015e-05
2.0232e-05
7.82224e-05
3.65536e-05
9.80294e-05
4.08773e-05
9.29121e-05
4.08741e-05
9.29228e-05
3.65567e-05
2.37891e-05
2.37877e-05
8.02392e-05
2.16127e-05
2.16151e-05
2.16161e-05
2.1619e-05
8.0261e-05
0.000102732
0.000124292
7.65267e-05
4.84192e-05
0.000124284
4.84083e-05
0.000102765
0.000102768
0.000124355
7.65805e-05
4.84329e-05
4.84216e-05
0.000124343
0.000102806
0.000102776
0.000124377
4.84006e-05
7.65596e-05
0.000124339
4.84041e-05
0.000102805
0.000102801
0.000124412
4.84113e-05
7.6608e-05
4.84164e-05
0.000124386
0.000102824
8.02227e-05
2.16253e-05
2.16283e-05
2.16185e-05
2.16216e-05
8.03347e-05
2.37914e-05
2.37899e-05
3.65564e-05
9.30195e-05
4.08709e-05
9.80994e-05
9.30195e-05
4.0874e-05
3.65538e-05
2.02363e-05
5.05085e-05
7.82574e-05
7.82547e-05
2.02386e-05
2.02361e-05
7.82896e-05
5.05059e-05
7.82801e-05
2.02346e-05
3.65576e-05
9.80977e-05
9.30056e-05
4.08792e-05
9.29978e-05
4.08755e-05
3.6561e-05
2.02389e-05
5.05192e-05
7.83642e-05
7.83909e-05
2.02365e-05
3.65575e-05
9.30519e-05
4.08719e-05
9.81267e-05
4.08753e-05
9.30783e-05
3.65542e-05
3.65589e-05
9.31343e-05
9.81345e-05
4.08807e-05
4.08769e-05
9.30888e-05
3.65625e-05
2.38037e-05
2.3804e-05
0.000103528
0.000125141
4.84409e-05
7.69806e-05
0.000103442
4.84536e-05
0.000125265
8.08463e-05
2.16346e-05
2.16334e-05
8.07521e-05
2.16381e-05
2.16385e-05
2.02407e-05
7.81689e-05
5.05236e-05
2.02369e-05
7.8215e-05
3.65631e-05
9.80356e-05
4.0879e-05
9.29046e-05
4.08834e-05
3.65584e-05
9.29341e-05
0.000103154
0.000124327
4.84276e-05
7.6775e-05
4.84435e-05
0.000102867
0.000124605
0.000103201
0.000124428
4.84411e-05
7.68508e-05
0.000124727
0.000102917
4.84562e-05
8.06725e-05
2.16285e-05
2.16315e-05
2.16356e-05
8.04985e-05
2.16384e-05
2.38033e-05
2.02426e-05
7.83762e-05
5.0528e-05
2.024e-05
7.84044e-05
3.6569e-05
9.8215e-05
9.31935e-05
4.08923e-05
9.30814e-05
4.08875e-05
3.6574e-05
2.02428e-05
7.82495e-05
5.05288e-05
7.83079e-05
2.02394e-05
3.6567e-05
9.81844e-05
9.30008e-05
4.08811e-05
9.30587e-05
3.65626e-05
4.08854e-05
2.02439e-05
7.83323e-05
3.65697e-05
9.82769e-05
4.08932e-05
9.33165e-05
4.08887e-05
9.32393e-05
3.65737e-05
3.6568e-05
9.31525e-05
9.82473e-05
4.08825e-05
3.65641e-05
4.08867e-05
9.3214e-05
2.02457e-05
5.05365e-05
7.85593e-05
7.85009e-05
2.02482e-05
0.000103621
0.000125106
4.84421e-05
7.7017e-05
0.000103441
4.84521e-05
0.000125336
8.09112e-05
2.16334e-05
2.16369e-05
8.08039e-05
2.16388e-05
2.16422e-05
0.000103655
0.0001252
4.84567e-05
7.70911e-05
0.000103475
0.000125447
4.84663e-05
2.38042e-05
2.02444e-05
7.84622e-05
5.05352e-05
2.02422e-05
7.84887e-05
2.02457e-05
7.85147e-05
5.05357e-05
2.02435e-05
7.85569e-05
2.0246e-05
5.05375e-05
7.85981e-05
7.856e-05
2.02481e-05
2.38055e-05
2.38049e-05
2.38049e-05
0.000161594
0.000166122
0.000132963
0.000138675
0.000165986
0.000132807
0.000161728
0.000133697
0.00015393
0.000153962
0.000170227
0.000153718
0.000153742
0.00013395
0.000134568
0.000154874
0.000154868
0.000171411
0.00015471
0.000134742
0.000154726
0.000172475
0.000172549
0.000158445
0.000134923
0.000155079
0.000155093
0.00017212
0.000134805
0.000155191
0.00015521
0.000133093
0.000169801
0.000153176
0.00015321
0.000153113
0.000153135
0.000133122
0.000133551
0.000153302
0.000153353
0.000170249
0.000153574
0.000133208
0.000153519
0.000153421
0.000119406
0.000141813
0.000101584
0.0001533
0.000119531
0.000141904
0.000162137
0.000166371
0.000133017
0.000139059
0.000161989
0.00016652
0.000133179
0.000134357
0.000154276
0.000154322
0.00017127
0.000134098
0.000154539
0.000154488
0.000180158
0.000180835
0.000171679
0.000171711
0.000170833
0.000156192
0.000157398
0.000170729
0.000178997
0.000170804
0.000178498
0.00017008
0.00015579
0.000156886
0.000180976
0.000171941
0.000171203
0.00018025
0.000171294
0.000157385
0.000158205
0.000179402
0.000170983
0.00017855
0.000170148
0.000170342
0.000156528
0.000157446
0.000153079
0.000101439
0.000119399
0.000141714
0.000119305
0.000141638
0.000153182
0.000161807
0.000132999
0.0001662
0.000138715
0.00013289
0.00016608
0.000161904
0.000152793
0.000119356
0.000141474
0.000101313
0.000119206
0.000141336
0.000152955
0.000161574
0.000166145
0.00013309
0.000138731
0.000165951
0.00013287
0.000161756
0.000152821
0.000141553
0.000119468
0.000101385
0.000141394
0.000119274
0.000153013
0.000161862
0.000166256
0.000133247
0.000138786
0.000166063
0.000133024
0.000162041
0.000153316
0.000142155
0.000119728
0.000101719
0.000119527
0.000142013
0.000153502
0.000153049
0.000101672
0.000141602
0.000119268
0.000152869
0.000119478
0.000141761
0.000134464
0.000171097
0.000154301
0.00015425
0.000154432
0.000154471
0.000134249
0.000179651
0.000171512
0.000172242
0.000157838
0.000181708
0.000172681
0.000182434
0.000173317
0.000158952
0.000180343
0.000171872
0.000158306
0.000162052
0.000139008
0.000133225
0.000166752
0.000133006
0.000166594
0.000162221
0.000152817
0.000141031
0.00011904
0.000101239
0.000152677
0.000141199
0.00011919
0.000161845
0.000166268
0.000138941
0.000132808
0.000161745
0.000132934
0.000166381
0.000153051
0.000119253
0.000162285
0.000166503
0.000133169
0.000139294
0.000162103
0.000166699
0.000133372
0.000153487
0.000141808
0.000119506
0.000101671
0.0001533
0.000141963
0.000119682
0.000134948
0.000172298
0.000155402
0.00015543
0.000155325
0.000155355
0.000135015
0.000134038
0.00015408
0.000170957
0.000154085
0.000154159
0.000133976
0.000154151
0.000134038
0.000171047
0.000154346
0.000154302
0.000154252
0.00015422
0.000134135
0.000161708
0.00016609
0.000132971
0.000138803
0.000132957
0.000166036
0.000161766
0.00016148
0.00016599
0.000132824
0.000138755
0.000132826
0.000165941
0.000161526
0.000161861
0.000166139
0.000132923
0.000138768
0.000161808
0.000132935
0.000166184
0.000153142
0.000141679
0.000101419
0.000119319
0.000141638
0.000119297
0.000153205
0.000153135
0.0001416
0.000119328
0.000101446
0.000141627
0.000153078
0.00011934
0.000161898
0.000166269
0.000138735
0.000132913
0.000132898
0.000166221
0.000161955
0.000161567
0.000166026
0.000132758
0.000138705
0.00016153
0.000132755
0.000166066
0.000152552
0.000140899
0.000100992
0.000118962
0.000118954
0.000140887
0.000152596
0.000152618
0.000141004
0.000119048
0.000101047
0.000152592
0.000119028
0.000140953
0.000161568
0.000166133
0.000138664
0.000132702
0.0001327
0.00016609
0.000161615
0.000133142
0.000169825
0.000153188
0.000153191
0.000153176
0.000153187
0.000133162
0.000161489
0.000165875
0.000132735
0.000138696
0.000132755
0.000165942
0.00016143
0.000152568
0.000140948
0.000101054
0.000119042
0.000152628
0.000140913
0.000119018
0.000152591
0.000140992
0.000119063
0.000101095
0.00014097
0.000119066
0.00015255
0.000161555
0.000166127
0.000138704
0.000132785
0.000161626
0.00013274
0.000166047
0.000153367
0.000142137
0.000101678
0.000119635
0.000142025
0.000119499
0.000153504
0.000153187
0.000101656
0.000141714
0.00011935
0.000141838
0.000119482
0.000153048
0.000161792
0.000165959
0.000132881
0.000138769
0.000166048
0.000132985
0.000161691
0.000161975
0.000166301
0.000133139
0.000138794
0.000166199
0.000133017
0.000162082
0.000134272
0.000154464
0.000154412
0.000171471
0.000134147
0.000154531
0.000154571
0.000153315
0.000141723
0.000119302
0.000101481
0.000119387
0.000153235
0.000141795
0.000162093
0.000166325
0.000138798
0.000132907
0.000132976
0.000162019
0.000166387
0.000152708
0.000140923
0.000118938
0.000101114
0.000152599
0.000119042
0.000141073
0.000161743
0.000166183
0.000138714
0.000132687
0.000161667
0.000132751
0.000166245
0.000162195
0.000133037
0.000166416
0.000139059
0.000162083
0.000133173
0.000166551
0.000153351
0.000119381
0.000141692
0.000101558
0.000153186
0.000119533
0.000141834
0.000153801
0.000142294
0.000119651
0.000101897
0.000142383
0.000153675
0.000119783
0.000162606
0.000139142
0.000166957
0.000133519
0.000166813
0.000133366
0.000162726
0.000162395
0.000166478
0.000133179
0.00013908
0.000166598
0.000162281
0.000133317
0.00015395
0.000101901
0.000119922
0.000142566
0.000142498
0.000119797
0.000154065
0.000162548
0.00016661
0.000133325
0.000139351
0.000162379
0.000166803
0.000133525
0.000153924
0.000142368
0.000119765
0.000101982
0.000153764
0.000142476
0.000119927
0.000154127
0.000101991
0.000120059
0.000142686
0.000142618
0.000119944
0.000154248
0.000168567
0.000152187
0.000167914
0.000175553
0.000154835
0.000171227
0.000164754
0.000173278
0.000161698
0.000178929
0.000177372
0.000165485
0.000172723
0.000176937
0.000176099
0.00015753
0.00016799
0.000174065
0.000172704
0.000158402
0.00016312
0.000177361
0.000177046
0.00016687
0.000176072
0.000180571
0.000182571
0.000169765
0.000170076
0.00015445
0.000144014
0.000151429
0.000175626
0.000179562
0.000173421
7.15214e-05
0.000148563
0.000167644
0.000154214
0.000160873
0.000163245
0.00014525
0.00015822
9.42436e-05
9.30131e-05
0.000128767
0.000160655
0.000161891
0.00018205
0.000166738
0.000185817
7.02549e-05
0.000152053
0.000184603
0.000163874
0.00018622
0.000174103
0.000150704
0.000168616
0.000160908
0.000167548
0.00017438
0.000177036
0.000160832
0.00016773
0.000160573
0.000162399
0.000173948
0.000174392
0.000185005
0.000178447
0.000178295
0.000155
0.000167411
0.000184484
0.000175619
0.000177659
0.000166241
0.000170469
0.000168869
0.000178891
0.000178635
0.000180985
0.000178903
0.000167872
0.00016604
0.000178687
0.000177115
0.000181021
0.000177954
0.000176222
0.000177789
0.000170097
0.000167886
0.000165157
0.000175842
0.000176932
0.000170159
0.000158143
0.000168039
0.000161801
0.000180185
0.000178374
0.000174835
0.000175625
0.000165635
0.000163343
0.000180213
0.00017729
0.000174718
0.000173995
0.0001687
0.00017454
0.000167226
0.000164603
0.00016154
0.000168789
0.000173136
0.000167294
0.000157177
0.000161385
0.000161726
0.000173702
0.000175018
0.000172377
0.000175195
0.000163114
0.000165055
0.000173532
0.00017344
0.000172212
0.00017386
0.000168404
0.000176119
0.00017651
0.000161294
0.000164374
0.00016847
0.000174824
0.000176303
0.000165857
0.000162568
0.0001682
0.000173177
0.000176511
0.000179746
0.000179366
0.000165617
0.000167421
0.000172926
0.000176097
0.000179964
0.000181418
0.000178557
0.000179825
0.000182279
0.000165498
0.000169331
0.000178389
0.000181893
0.000182531
0.000169677
0.000168861
0.000170413
0.000181262
0.000180272
0.000183715
0.000152605
0.000167721
0.00018157
0.00018225
0.000183748
0.000182626
0.000182795
0.000182805
0.000138535
9.81215e-05
0.000169448
0.000169216
0.000183112
0.000182594
0.000183495
0.000170044
2.37875e-05
2.37885e-05
0.000183199
0.00013854
9.81092e-05
5.01339e-05
9.52811e-05
0.000178475
2.36041e-05
7.0521e-05
0.000155253
7.24376e-05
2.36394e-05
0.000142265
0.000148665
9.41454e-05
5.01907e-05
9.47743e-05
5.02165e-05
2.36535e-05
2.36952e-05
5.01318e-05
9.30413e-05
9.24424e-05
5.01861e-05
0.000168123
0.000140828
0.000162624
0.000156142
0.00014403
0.000158178
0.000181564
0.000134399
9.71948e-05
0.00015861
0.000155783
0.000134218
9.7798e-05
0.000162852
2.36134e-05
2.36769e-05
9.56208e-05
0.000132139
0.000176687
0.000165051
0.000133928
0.000175316
9.54264e-05
7.90278e-05
7.82346e-05
0.000177066
7.83616e-05
7.77319e-05
9.71113e-05
5.03627e-05
9.53442e-05
5.04372e-05
2.3752e-05
2.37671e-05
9.74953e-05
5.03725e-05
9.53661e-05
5.04502e-05
0.000149964
0.000157177
0.000181733
0.000156773
0.000164586
0.000160189
0.000176438
0.000135277
9.98237e-05
0.000174308
0.000174677
0.000134493
0.000100988
0.000176784
2.37564e-05
2.37715e-05
0.000134804
0.000172463
9.92845e-05
0.000168365
0.000132558
0.000172295
0.000101109
7.8268e-05
7.80156e-05
0.000169767
7.842e-05
7.83591e-05
9.86386e-05
5.04558e-05
9.85687e-05
5.0422e-05
2.37562e-05
2.3742e-05
9.88612e-05
5.04595e-05
9.88894e-05
5.04173e-05
0.000167622
0.000163202
0.000172881
0.000171802
0.000171899
0.000168962
0.000163049
0.000136096
0.000101448
0.00018056
0.000178764
0.00013619
0.000101114
0.000180785
2.37548e-05
2.37388e-05
0.000136521
0.000177329
0.000101706
0.000177845
0.000136591
0.00017873
0.000101211
7.72313e-05
7.74757e-05
0.000162289
7.58503e-05
7.60084e-05
9.66261e-05
5.03592e-05
9.73441e-05
5.03454e-05
2.37284e-05
2.37324e-05
9.64337e-05
5.03489e-05
9.72529e-05
5.03343e-05
0.000171782
0.000169336
0.000160416
0.000169666
0.000168792
0.000166731
0.000155717
0.00013397
9.98382e-05
0.000178657
0.000175953
0.000134724
9.94515e-05
0.000177547
2.372e-05
2.37209e-05
0.000133895
0.00017835
9.97285e-05
0.000174844
0.000134917
0.000177397
9.90935e-05
7.4557e-05
7.4546e-05
0.000156295
7.46159e-05
7.45221e-05
9.64821e-05
5.03609e-05
9.61673e-05
5.03948e-05
2.37484e-05
2.3757e-05
9.62289e-05
5.035e-05
9.58945e-05
5.03871e-05
0.000167545
0.000165629
0.000155084
0.000163923
0.000165163
0.000163683
0.000163005
0.000135244
9.96495e-05
0.000175007
0.000173858
0.000133949
0.000100255
0.000174913
2.37374e-05
2.3755e-05
0.000134589
0.00017467
9.88283e-05
0.000172461
0.000133428
0.000174306
9.9612e-05
7.56941e-05
7.55876e-05
0.000161695
7.63429e-05
7.62851e-05
9.76225e-05
5.04432e-05
9.72168e-05
5.04679e-05
2.37617e-05
2.37676e-05
9.78594e-05
5.0443e-05
9.72923e-05
5.04689e-05
0.000166364
0.000165235
0.000166319
0.000168723
0.000170795
0.000172528
0.000174275
0.000137403
0.00010064
0.00018035
0.000178324
0.000136788
0.000100706
0.000181947
2.37722e-05
2.37774e-05
0.000137831
0.000179542
0.000100856
0.000179056
0.000136757
0.000181848
0.000101402
7.6995e-05
7.70679e-05
0.000168488
7.71747e-05
7.72636e-05
9.82193e-05
5.04917e-05
9.80071e-05
5.05012e-05
2.37806e-05
2.37861e-05
9.81727e-05
5.04862e-05
9.81749e-05
5.0492e-05
0.000178587
0.000171612
0.00017213
0.000174431
0.00017599
0.000177396
0.000152529
0.000138253
0.000100988
0.00018531
0.000181405
0.000137899
0.000101356
0.000186177
2.37773e-05
2.37787e-05
0.00013844
0.00018698
0.000101461
0.000182769
0.000138468
0.00018769
0.000101252
7.70901e-05
7.71101e-05
0.000169958
7.69651e-05
7.69019e-05
7.69071e-05
7.70826e-05
0.000170361
7.6841e-05
7.70847e-05
2.3648e-05
2.36247e-05
7.20816e-05
0.000157556
7.30006e-05
5.01954e-05
9.5262e-05
5.01938e-05
9.48844e-05
0.000174932
9.63785e-05
0.000175918
0.000131841
9.52552e-05
0.000164842
0.000131341
2.36481e-05
7.21232e-05
7.40616e-05
2.36873e-05
9.71643e-05
0.000155426
0.00013403
5.02833e-05
9.71516e-05
0.000164642
0.000102949
0.000135065
5.04234e-05
9.7353e-05
0.000173748
9.60977e-05
0.00017746
0.000135025
0.000176886
0.000102766
0.000136002
5.02076e-05
9.66732e-05
5.038e-05
9.66736e-05
7.90288e-05
7.8639e-05
2.37743e-05
2.37579e-05
2.36483e-05
2.36764e-05
2.36253e-05
2.36613e-05
0.000153912
7.25932e-05
0.000147956
7.22496e-05
7.10822e-05
2.37391e-05
2.36879e-05
2.37361e-05
2.36761e-05
0.000147371
7.48243e-05
7.44655e-05
7.25128e-05
7.14997e-05
9.38269e-05
5.01936e-05
9.44101e-05
5.02354e-05
0.000129039
9.56279e-05
0.00017279
0.000163268
0.000130749
9.4843e-05
0.000168883
0.000128839
9.50181e-05
0.000163793
0.000155134
0.00013035
9.50893e-05
0.000162954
9.40925e-05
5.03334e-05
5.02378e-05
9.48387e-05
9.37752e-05
5.03457e-05
5.02587e-05
9.47584e-05
0.000128851
0.00016144
9.672e-05
0.000165219
9.47727e-05
0.000166418
0.000129164
0.000128681
0.000158747
9.81361e-05
0.000162969
9.56407e-05
0.00016255
0.000129211
7.20103e-05
7.40461e-05
0.00014956
7.29674e-05
7.47614e-05
2.36903e-05
2.3715e-05
2.37457e-05
2.37059e-05
0.000152341
7.58267e-05
7.64967e-05
7.36468e-05
7.51113e-05
2.37482e-05
2.37212e-05
0.000128902
0.000169678
0.000180976
0.000126086
0.000163951
9.32357e-05
0.00017395
5.01281e-05
9.24048e-05
5.01959e-05
9.33246e-05
0.000168318
0.000180341
0.000126062
0.00016393
0.000173409
9.30094e-05
9.24969e-05
5.03388e-05
5.02183e-05
9.46563e-05
0.000125901
0.000161398
9.61349e-05
0.000166225
9.3181e-05
0.000168817
0.000127592
9.24468e-05
5.03465e-05
5.02316e-05
9.46262e-05
0.000125886
0.000162347
0.000166604
9.75717e-05
0.000168784
9.37044e-05
0.000127761
9.66329e-05
5.02824e-05
9.7054e-05
5.02973e-05
0.000135507
0.000171523
0.000103012
0.000185078
0.00013533
0.000176543
0.00010255
9.7096e-05
5.04104e-05
9.7343e-05
5.03867e-05
0.000134371
0.000161425
9.94458e-05
0.000171063
9.8043e-05
0.000167151
0.000134425
9.65541e-05
5.03536e-05
5.03054e-05
9.6527e-05
0.00013543
0.000185908
0.000181665
0.000101956
0.000179825
0.000102244
0.00013534
9.70405e-05
5.03836e-05
5.03824e-05
9.70519e-05
0.000152013
7.22385e-05
0.00014836
7.13322e-05
7.29593e-05
2.36453e-05
2.36938e-05
2.37478e-05
2.36948e-05
0.000148061
7.56629e-05
7.61766e-05
7.24857e-05
7.37928e-05
2.37487e-05
2.37073e-05
0.000133222
0.000181374
0.000102367
0.000186413
0.00013501
0.000182946
0.000101304
5.02058e-05
9.54939e-05
9.61749e-05
5.0243e-05
9.57804e-05
5.03679e-05
9.62594e-05
5.03579e-05
0.000131917
0.000164109
0.000173054
9.85684e-05
0.00017388
9.58809e-05
0.000132019
0.00013297
0.000186609
0.000182437
0.000101217
0.000182955
0.00010118
0.000132939
9.54292e-05
5.03452e-05
5.02642e-05
9.57851e-05
9.57451e-05
5.03833e-05
5.03595e-05
9.62793e-05
2.37667e-05
2.37567e-05
2.37507e-05
2.37471e-05
0.0001768
7.82253e-05
7.78433e-05
7.82404e-05
7.77021e-05
2.37556e-05
2.37549e-05
2.3753e-05
2.3747e-05
2.37506e-05
2.37796e-05
2.37496e-05
2.37813e-05
7.56472e-05
7.54328e-05
0.000157391
7.79004e-05
7.79966e-05
2.37795e-05
2.37816e-05
2.37806e-05
2.37835e-05
0.000161267
7.90229e-05
7.92247e-05
7.83828e-05
7.85324e-05
9.71545e-05
5.03677e-05
9.53012e-05
5.04215e-05
0.000133661
9.76536e-05
0.000164574
0.000162543
0.000130063
0.000100737
0.000164564
0.000133781
9.88812e-05
0.00016454
0.000171391
0.000130165
0.000101029
0.00016719
9.75376e-05
5.04599e-05
5.04493e-05
9.84817e-05
9.7598e-05
5.0437e-05
5.04297e-05
9.85532e-05
0.000134746
0.000168082
0.000102905
0.000170978
0.000101505
0.000166126
0.000137525
0.000134844
0.000174588
0.000102185
0.000174482
0.000101474
0.000170686
0.000137516
7.64393e-05
7.68788e-05
0.000164923
7.77891e-05
7.77051e-05
2.37518e-05
2.37603e-05
2.37625e-05
2.37671e-05
0.00016633
7.82767e-05
7.78739e-05
7.80221e-05
7.78104e-05
2.37541e-05
2.37597e-05
0.000133921
9.73305e-05
0.000165211
0.000162045
0.000129076
0.000100939
0.000164793
9.74783e-05
5.03739e-05
9.5344e-05
5.04307e-05
0.000133999
0.000165708
9.86393e-05
0.000165501
0.00012924
0.000165383
0.00010134
9.79571e-05
5.04676e-05
5.04612e-05
9.88318e-05
0.000135238
0.000167435
0.000103256
0.000169253
0.000101795
0.000165526
0.00013818
9.79417e-05
5.04389e-05
5.04372e-05
9.88227e-05
0.000135269
0.00017037
0.000170241
0.000102504
0.000166341
0.000101841
0.000138069
9.72111e-05
5.03668e-05
9.65837e-05
5.04031e-05
0.000135723
0.000182289
0.000101929
0.000182864
0.000135341
0.000182008
0.000101961
9.74977e-05
5.03855e-05
9.70906e-05
5.03898e-05
0.000135503
0.000177068
0.000101462
0.000179777
0.000101171
0.000178549
0.000136175
9.73359e-05
5.0414e-05
5.04082e-05
9.76261e-05
0.00013585
0.000180436
0.000180551
0.000101572
0.000181388
0.000101947
0.000136187
9.7567e-05
5.03727e-05
5.03892e-05
9.76729e-05
7.64871e-05
7.67832e-05
0.000161641
7.81381e-05
7.7971e-05
2.37546e-05
2.37648e-05
2.37628e-05
2.37711e-05
0.000164234
7.85949e-05
7.81447e-05
7.83828e-05
7.81052e-05
2.37554e-05
2.37639e-05
0.000135295
0.000181473
0.000101389
0.000181792
0.000133328
0.00018042
0.000101936
9.72475e-05
5.03649e-05
9.6141e-05
5.04091e-05
9.75962e-05
5.03894e-05
9.66093e-05
5.03997e-05
0.000135346
0.000172529
0.000175467
0.000101735
0.000173359
0.000101393
0.000136518
0.000135755
0.000179558
0.000178594
0.000101943
0.000179512
0.000101976
0.000136616
9.74426e-05
5.04176e-05
5.04142e-05
9.78318e-05
9.77487e-05
5.03816e-05
5.03993e-05
9.79516e-05
2.37552e-05
2.37533e-05
2.3754e-05
2.37552e-05
0.000168961
7.76894e-05
7.79699e-05
7.8434e-05
7.84013e-05
2.37308e-05
2.37486e-05
2.37347e-05
2.37521e-05
2.37727e-05
2.37527e-05
2.37727e-05
2.37507e-05
7.90535e-05
7.92628e-05
0.00017172
7.8248e-05
7.83558e-05
2.37303e-05
2.37431e-05
2.37266e-05
2.37405e-05
0.000171479
7.67098e-05
7.67068e-05
7.78079e-05
7.78851e-05
9.87093e-05
5.04341e-05
9.86405e-05
5.04063e-05
0.000138402
0.000102991
0.00017617
0.000181092
0.000137968
0.00010279
0.000180405
0.000138341
0.000102206
0.000178037
0.000179335
0.000137934
0.000101887
0.000180946
9.84781e-05
5.037e-05
5.04049e-05
9.77001e-05
9.85195e-05
5.03635e-05
5.03919e-05
9.76739e-05
0.000138337
0.000181435
0.000100964
0.000184035
0.000102237