/*--------------------------------*- C++ -*----------------------------------*\
| =========                 |                                                 |
| \\      /  F ield         | OpenFOAM: The Open Source CFD Toolbox           |
|  \\    /   O peration     | Version:  v2006                                 |
|   \\  /    A nd           | Website:  www.openfoam.com                      |
|    \\/     M anipulation  |                                                 |
\*---------------------------------------------------------------------------*/
FoamFile
{
    version     2.0;
    format      ascii;
    class       volVectorField;
    location    "1000";
    object      U;
}
// * * * * * * * * * * * * * * * * * * * * * * * * * * * * * * * * * * * * * //

dimensions      [0 1 -1 0 0 0 0];


internalField   nonuniform List<vector> 
14212
(
(7.39895e-07 -1.34108e-05 0.0911568)
(-9.57071e-07 -9.75847e-06 0.0819829)
(4.69884e-06 -3.44215e-06 0.071333)
(-9.61128e-06 -1.08507e-06 0.081984)
(7.20742e-06 3.59085e-08 0.107618)
(1.57932e-05 -8.04163e-06 0.0928132)
(-1.55779e-06 -4.83461e-06 0.071331)
(-4.63648e-06 -1.67611e-06 0.0713308)
(-4.59104e-05 -4.46406e-05 0.104338)
(-5.97808e-06 -7.6048e-06 0.0873234)
(-7.40269e-06 -5.55041e-06 0.087322)
(2.26004e-06 -1.33096e-05 0.0911567)
(4.63521e-06 -8.90729e-06 0.0819856)
(-1.01312e-06 -2.20669e-05 0.098418)
(-4.44557e-06 -8.55257e-06 0.107616)
(-7.36003e-06 -1.62586e-05 0.0928163)
(-3.77231e-06 -9.22001e-06 0.110127)
(5.5028e-07 -2.20367e-05 0.0984178)
(-4.14717e-08 -7.53044e-06 0.107615)
(9.63463e-06 -1.55501e-05 0.0928136)
(-2.77497e-06 -8.84521e-06 0.110128)
(4.32547e-05 -4.27374e-05 0.104335)
(8.31629e-06 -5.95119e-06 0.0873194)
(6.06082e-06 -8.0911e-06 0.0873189)
(2.75004e-06 -5.30217e-06 0.0713303)
(-9.02884e-06 -4.18692e-06 0.107616)
(-1.60124e-05 -6.31871e-06 0.0928166)
(8.04446e-06 -5.01512e-06 0.0819859)
(-4.15067e-07 6.24426e-07 0.0765943)
(2.4355e-07 -6.21807e-07 0.0911238)
(2.11342e-06 -6.40588e-06 0.0783961)
(-1.23347e-06 -1.25269e-05 0.0896649)
(1.48622e-06 3.2e-07 0.0783671)
(-1.57725e-06 4.13446e-07 0.0896269)
(1.48908e-06 -6.40625e-06 0.0766283)
(-4.512e-07 1.52876e-06 0.0681549)
(-1.10269e-06 -9.79916e-06 0.0855825)
(6.1447e-08 3.38441e-06 0.0819416)
(-1.0457e-06 1.43052e-06 0.0855381)
(1.70586e-06 -4.4496e-06 0.0682023)
(1.46502e-06 2.20162e-06 0.0712863)
(3.48952e-06 1.99638e-07 0.0819428)
(1.3385e-06 1.24069e-06 0.0712893)
(1.34908e-06 1.42758e-06 0.0712894)
(6.97509e-07 1.31547e-06 0.0833647)
(-2.48334e-06 -3.09332e-06 0.0681438)
(-2.60514e-06 -2.79077e-06 0.0681427)
(7.99644e-07 1.87104e-10 0.0681067)
(2.56141e-07 7.88489e-07 0.0681063)
(-4.24267e-06 -4.09553e-06 0.0833965)
(-1.7461e-06 3.16797e-06 0.0914429)
(-2.71029e-06 -7.57347e-06 0.0813343)
(7.17943e-07 -1.5897e-07 0.087286)
(-1.21899e-05 -1.82525e-05 0.0961304)
(4.45788e-07 -6.26972e-07 0.0812978)
(-8.77506e-06 -1.24506e-05 0.0914789)
(4.44099e-07 3.90434e-06 0.0960897)
(2.15643e-06 -3.76415e-07 0.0914399)
(-1.18206e-07 1.33408e-06 0.0872852)
(-7.45282e-06 -2.83056e-06 0.081332)
(-1.84763e-05 -1.06469e-05 0.0961251)
(-5.62383e-07 5.83886e-07 0.0812966)
(-1.32316e-05 -7.58088e-06 0.0914741)
(3.62231e-06 1.95649e-06 0.0960859)
(4.27387e-06 1.00414e-06 0.0765954)
(1.84646e-06 -6.04728e-07 0.0911238)
(2.41899e-06 -6.29432e-06 0.0783965)
(4.2958e-06 -1.21055e-05 0.0896644)
(2.43576e-06 4.08379e-07 0.0783673)
(3.89455e-06 6.05985e-07 0.0896271)
(2.9214e-06 -5.91104e-06 0.0766297)
(3.83284e-06 2.2932e-06 0.0681548)
(4.80522e-06 -8.40336e-06 0.0855808)
(3.37118e-06 3.85596e-06 0.0819419)
(4.36347e-06 2.6123e-06 0.0855372)
(2.18079e-06 -3.50027e-06 0.0682026)
(3.06949e-06 -2.47843e-06 0.0681399)
(1.61277e-06 -3.87751e-06 0.0681443)
(4.44279e-06 -4.27614e-06 0.0833919)
(2.03071e-06 3.56754e-06 0.0914316)
(4.74365e-06 -6.39314e-06 0.0813308)
(1.4547e-06 1.20005e-06 0.0872794)
(1.24657e-05 -1.6924e-05 0.0961204)
(1.40491e-06 1.14498e-07 0.0812917)
(-5.62577e-07 4.92309e-06 0.0960804)
(9.21727e-06 -1.17164e-05 0.0914678)
(6.07382e-06 -5.16514e-06 0.0813351)
(1.79955e-05 -1.08478e-05 0.0961227)
(1.29592e-05 -8.21875e-06 0.0914733)
(-5.84369e-06 -6.44656e-06 0.112807)
(-2.19723e-06 -3.58081e-06 0.115406)
(1.39439e-06 -3.00049e-06 0.112815)
(-4.09024e-06 -2.2034e-06 0.115412)
(5.10179e-05 -5.74993e-06 0.0994518)
(2.97945e-06 4.95163e-06 0.0973752)
(2.84141e-05 2.92069e-05 0.104215)
(-4.42542e-05 -1.83262e-05 0.10143)
(-1.9726e-05 -4.31734e-05 0.101427)
(-1.78118e-05 -1.57839e-05 0.0974239)
(2.96427e-05 4.45012e-06 0.101363)
(3.32171e-06 3.03743e-05 0.101361)
(-3.24376e-06 3.17109e-05 0.10282)
(-1.43369e-06 1.09305e-06 0.0983658)
(-2.803e-06 -2.1606e-05 0.0974431)
(-2.09566e-06 -5.39617e-05 0.103598)
(-2.63147e-06 2.21713e-06 0.0973827)
(-2.58708e-06 3.02555e-05 0.103498)
(-3.47714e-06 -5.46596e-05 0.102943)
(-2.51e-06 3.45469e-05 0.10124)
(-4.7648e-06 -2.01777e-05 0.0954589)
(-1.405e-06 3.47014e-06 0.0927675)
(-8.20336e-06 -5.08134e-05 0.0994562)
(-2.90874e-06 3.17219e-06 0.0953973)
(-1.52127e-06 3.39252e-05 0.0993972)
(-5.51609e-06 -5.47284e-05 0.101348)
(-3.06139e-07 3.14441e-05 0.102821)
(-6.62817e-08 9.93501e-07 0.0983658)
(2.82704e-06 -2.15533e-05 0.0974422)
(-1.36042e-06 -5.40757e-05 0.103598)
(1.69943e-06 1.98219e-06 0.0973829)
(-1.36271e-06 2.99979e-05 0.103498)
(4.50627e-07 -5.4563e-05 0.102942)
(1.35026e-07 3.44508e-05 0.101239)
(6.03311e-06 -1.94534e-05 0.0954566)
(3.26502e-06 3.9594e-06 0.0927645)
(7.55118e-06 -5.03364e-05 0.0994511)
(3.44998e-06 3.50267e-06 0.0953965)
(3.79089e-06 -5.43862e-05 0.101346)
(2.60311e-07 3.41048e-05 0.0993938)
(-4.15337e-06 5.02372e-06 0.0973697)
(-3.11803e-05 3.09115e-05 0.104214)
(4.27729e-05 -1.72422e-05 0.101421)
(1.8207e-05 -4.17179e-05 0.101424)
(-5.10616e-06 3.1818e-05 0.10136)
(-3.14024e-05 5.50921e-06 0.101357)
(1.69014e-05 -1.56332e-05 0.097417)
(3.62112e-06 -1.45684e-07 0.0927674)
(-5.14567e-05 -6.91621e-06 0.099455)
(3.33703e-05 -3.91917e-07 0.0993966)
(-5.07539e-07 1.06525e-06 0.0833592)
(-2.8753e-07 4.53872e-07 0.0681011)
(-1.06644e-06 -1.38158e-07 0.068106)
(-2.26903e-06 -9.75354e-07 0.0914388)
(-9.34461e-07 -9.13235e-07 0.0872823)
(-3.96578e-06 1.90249e-06 0.0960844)
(-1.60412e-07 -1.46901e-06 0.0812986)
(-2.8732e-06 -1.57945e-06 0.0712883)
(-4.54447e-06 -3.33282e-06 0.0819436)
(-3.58537e-06 -1.5354e-06 0.0927653)
(-3.35723e-05 1.09981e-06 0.0993954)
(1.5093e-06 7.0201e-05 0.0983656)
(-1.95642e-05 -4.9138e-05 0.110625)
(4.65404e-07 7.56455e-05 0.0909854)
(-1.50359e-05 8.31035e-05 0.0983433)
(-6.68602e-05 1.49539e-05 0.107738)
(-4.30967e-05 -4.13522e-05 0.110482)
(-5.34327e-05 7.68977e-05 0.0925906)
(-1.05697e-05 8.17417e-05 0.0909829)
(-1.98152e-05 3.90766e-05 0.081765)
(-0.000119292 1.11299e-05 0.107677)
(-2.85377e-06 -3.25006e-05 0.0925594)
(2.95537e-05 -3.07902e-05 0.0817525)
(-0.000115716 2.65264e-06 0.104194)
(-3.70403e-05 3.81203e-05 0.087103)
(4.93913e-06 -2.31523e-05 0.087093)
(-1.18556e-05 2.30417e-05 0.0711563)
(1.93677e-05 -1.93439e-05 0.0711373)
(3.11907e-06 3.3412e-05 0.0764222)
(9.81637e-06 6.51776e-05 0.0894658)
(-3.89312e-06 4.13839e-05 0.0781753)
(1.06866e-05 7.06928e-05 0.0910146)
(-1.08809e-06 4.05788e-05 0.076391)
(1.97619e-05 6.11852e-05 0.089501)
(1.3927e-06 3.28747e-05 0.0781986)
(-8.65746e-07 3.49329e-05 0.0764219)
(-6.92094e-06 4.18007e-05 0.0781735)
(-2.36345e-05 8.64095e-05 0.0894619)
(2.2631e-07 7.47782e-05 0.0910121)
(-8.89239e-06 4.72479e-05 0.0763971)
(-6.32984e-07 3.24876e-05 0.0781955)
(-1.03066e-05 7.57706e-05 0.0894986)
(-1.52206e-06 2.32158e-05 0.0680105)
(-2.42382e-05 5.66619e-05 0.0853355)
(-4.328e-06 2.84577e-05 0.0818006)
(-9.60996e-06 3.40301e-05 0.0679672)
(-1.04856e-05 4.56694e-05 0.0853835)
(3.08784e-05 -1.79744e-05 0.0817891)
(-4.70205e-06 -4.20968e-06 0.0832367)
(-1.62966e-06 -9.55084e-07 0.0679937)
(9.34869e-06 -1.45955e-05 0.0679963)
(-1.77235e-05 -4.19693e-06 0.0831966)
(3.92439e-06 -1.73096e-06 0.0680272)
(1.55907e-05 -1.29925e-05 0.0680276)
(-3.16775e-05 2.68346e-05 0.0913083)
(-1.6755e-05 1.07999e-05 0.0811594)
(-7.10759e-05 5.71289e-05 0.0959098)
(-2.29315e-05 3.40037e-05 0.0871494)
(-5.50965e-05 2.86712e-05 0.0912615)
(-4.33913e-05 6.29946e-05 0.0959576)
(-5.64061e-06 6.79171e-06 0.0811954)
(-1.43683e-05 9.32056e-06 0.0913008)
(6.8671e-06 -1.75443e-05 0.0811809)
(-4.19787e-05 -4.78967e-06 0.0958806)
(1.53417e-05 -1.73345e-05 0.087135)
(-2.81911e-05 1.12273e-06 0.0912531)
(-2.09933e-05 1.06254e-05 0.0959326)
(1.27067e-05 -1.4147e-05 0.0812139)
(-2.6593e-06 1.65117e-05 0.0711929)
(2.30415e-05 -1.31671e-05 0.0711669)
(-0.000113956 -7.85045e-05 0.113167)
(5.99428e-05 3.75288e-05 0.103122)
(1.15281e-05 5.7575e-05 0.0973636)
(-4.02188e-05 3.53472e-05 0.103691)
(2.15177e-05 7.65453e-05 0.098407)
(-3.32005e-05 2.20809e-05 0.103011)
(3.26724e-05 6.39341e-05 0.0974143)
(4.96194e-05 5.1707e-05 0.103778)
(2.13024e-05 7.53235e-05 0.102987)
(-5.25772e-05 4.85831e-05 0.103636)
(-3.12388e-05 9.59014e-05 0.0973048)
(4.12738e-06 8.73015e-05 0.0983868)
(-6.73822e-05 6.30458e-05 0.102875)
(3.39018e-05 6.39006e-05 0.103722)
(-1.02845e-05 9.59313e-05 0.0973619)
(-1.35026e-07 8.36834e-05 0.1013)
(-4.35569e-05 9.00623e-05 0.0952584)
(-9.42302e-05 7.19531e-05 0.0992678)
(-3.13592e-05 7.11103e-05 0.0926435)
(-8.9148e-05 7.43182e-05 0.101202)
(-2.13231e-05 8.64388e-05 0.0953216)
(-7.85538e-06 7.79223e-05 0.099323)
(-5.4562e-05 -3.65867e-05 0.0992127)
(1.20681e-05 -1.63783e-05 0.0926182)
(-3.61034e-05 4.26914e-05 0.0992771)
(-4.493e-05 4.08414e-05 0.0972488)
(-3.99241e-05 8.54607e-05 0.104293)
(-8.00922e-05 1.30506e-05 0.101239)
(-0.000105209 2.30689e-05 0.101213)
(-7.15987e-05 2.37811e-05 0.0971897)
(-5.44045e-05 9.04098e-05 0.101302)
(-2.72664e-05 4.54563e-05 0.101276)
(2.95558e-06 2.05142e-05 0.0679851)
(1.01516e-05 4.07341e-05 0.0853458)
(-1.84564e-07 2.61832e-05 0.0679499)
(1.85821e-05 3.49085e-05 0.0853822)
(7.00609e-05 2.48073e-05 0.101507)
(1.49184e-05 4.38428e-05 0.0953424)
(-2.77932e-05 1.41226e-05 0.101415)
(3.58466e-05 4.72417e-05 0.0953928)
(7.83651e-06 -5.06774e-06 0.0855809)
(2.80136e-06 -3.43117e-06 0.0682013)
(1.93682e-05 -4.20017e-06 0.0954557)
(5.47123e-05 -1.89312e-06 0.101345)
(-1.23962e-05 8.72403e-07 0.0911453)
(-2.12933e-05 -2.70012e-07 0.098411)
(-4.51372e-05 4.25662e-05 0.104344)
(-1.2678e-06 6.95185e-06 0.110145)
(4.83454e-06 6.53362e-06 0.107623)
(6.86868e-07 1.21313e-05 0.0911437)
(1.47598e-06 1.18597e-05 0.0911433)
(4.61393e-05 4.42774e-05 0.104338)
(4.2489e-06 9.60626e-07 0.0713158)
(-5.40263e-06 -7.16675e-06 0.112815)
(7.41821e-06 -1.36385e-06 0.107627)
(4.62191e-08 7.1179e-06 0.110136)
(-2.79613e-05 -2.90513e-05 0.104212)
(-1.46844e-06 -9.56041e-06 0.110143)
(6.80648e-07 -1.00513e-05 0.110147)
(4.22949e-05 -4.47568e-05 0.104349)
(7.90769e-06 -3.48705e-06 0.107634)
(8.28048e-06 -6.35578e-07 0.110139)
(8.68973e-06 4.76343e-07 0.0819686)
(-5.62948e-08 1.07645e-06 0.0872773)
(-3.55521e-06 -9.27426e-06 0.10762)
(-2.40699e-06 -9.84352e-06 0.110135)
(-3.18942e-05 3.01198e-05 0.10422)
(3.51651e-06 1.35479e-07 0.092762)
(2.63334e-07 1.2415e-06 0.0911168)
(1.79157e-06 1.35942e-07 0.0983609)
(8.16895e-06 2.43183e-06 0.110132)
(-3.68023e-06 -2.23611e-06 0.0819364)
(2.94599e-05 -3.13092e-05 0.104216)
(5.74681e-06 7.4175e-06 0.107617)
(1.56906e-07 -7.41542e-07 0.091116)
(9.46728e-07 -1.02248e-06 0.0911164)
(-1.22568e-06 -3.61271e-06 0.0712836)
(-3.86254e-07 -2.95104e-06 0.115431)
(7.55024e-07 -2.86484e-06 0.115439)
(2.74415e-06 -1.16164e-06 0.115418)
(1.04766e-06 1.37992e-06 0.115427)
(-8.34277e-06 -2.0701e-06 0.0819665)
(-1.24397e-05 -6.12568e-08 0.0911449)
(-7.55346e-06 -5.48278e-06 0.107632)
(-1.61339e-05 -5.90728e-06 0.092806)
(-2.11415e-05 -1.1505e-06 0.0984113)
(-7.94461e-06 -5.26765e-06 0.107626)
(-8.22108e-06 -4.63784e-06 0.11014)
(-8.28684e-06 -4.6134e-06 0.110146)
(-7.57068e-06 4.32883e-06 0.0819666)
(-8.95738e-06 -5.23225e-07 0.107627)
(-8.45425e-06 -2.47693e-06 0.110142)
(-1.58359e-05 6.63179e-06 0.0928033)
(-9.14082e-06 -1.70484e-07 0.107635)
(-8.64609e-06 -2.02793e-06 0.110149)
(-2.54179e-06 5.32482e-06 0.0713057)
(-5.93322e-06 7.52263e-06 0.087302)
(-6.88239e-06 6.62027e-06 0.0873039)
(-4.55929e-06 2.69912e-06 0.0713065)
(-3.28147e-06 6.95961e-06 0.107632)
(1.03292e-06 2.07517e-05 0.0984092)
(-5.78587e-06 1.62988e-05 0.0928035)
(-4.31058e-06 6.918e-06 0.107639)
(-2.1628e-06 7.27655e-06 0.110153)
(1.80708e-06 6.58484e-06 0.110142)
(2.29032e-06 2.02502e-05 0.0984087)
(5.97986e-06 1.47544e-05 0.0928032)
(3.75572e-06 6.33809e-06 0.10763)
(5.68831e-07 7.07964e-06 0.11015)
(1.3546e-06 -5.25899e-06 0.0927474)
(-3.5536e-06 7.94804e-06 0.0819671)
(-3.53857e-07 9.07151e-06 0.0819699)
(4.00369e-07 -4.24743e-06 0.0819206)
(6.65897e-06 5.14932e-06 0.0873098)
(4.24967e-06 7.29654e-06 0.0873085)
(-2.88171e-05 -3.15914e-05 0.104218)
(-1.23261e-06 -7.6183e-07 0.0872628)
(-1.01188e-06 -8.00065e-07 0.0872623)
(-2.45702e-06 -4.67906e-07 0.0712675)
(2.47946e-07 4.42109e-06 0.071317)
(-1.34908e-06 -1.88725e-06 0.0712694)
(-1.66217e-06 -1.11942e-05 0.0911319)
(-9.96654e-07 4.21806e-06 0.0819321)
(-7.62342e-07 -2.83335e-07 0.091118)
(2.01398e-06 2.44581e-06 0.0712701)
(4.15971e-06 -2.83537e-07 0.0819338)
(2.17317e-07 1.80251e-07 0.0911172)
(-2.41916e-06 -3.20835e-06 0.11542)
(2.47125e-06 -5.01267e-07 0.115412)
(1.52194e-06 4.01665e-07 0.11542)
(8.50782e-06 1.12232e-07 0.110137)
(2.11407e-05 1.47927e-06 0.0984153)
(-3.05043e-06 -4.70591e-07 0.092761)
(-1.70057e-06 2.35986e-06 0.0983619)
(8.02676e-06 2.81378e-06 0.110129)
(2.84349e-06 1.5426e-06 0.071275)
(-2.17047e-06 7.19488e-06 0.107623)
(1.22222e-06 -2.47561e-06 0.0983587)
(1.42227e-07 -3.74164e-06 0.0927597)
(-1.22056e-07 -2.67189e-06 0.0872806)
(-3.57348e-06 3.7296e-07 0.0872801)
(4.61088e-05 4.70003e-05 0.104336)
(8.19867e-06 2.92318e-06 0.0873252)
(2.58934e-06 8.2647e-06 0.0873236)
(-4.03245e-06 -3.30539e-06 0.071306)
(1.27213e-07 3.10051e-06 0.0712553)
(-3.47129e-06 -3.35609e-06 0.0713077)
(3.08973e-05 2.80167e-05 0.10422)
(-7.19379e-06 -6.0533e-06 0.087307)
(-4.41417e-05 -4.60303e-05 0.104344)
(-6.86974e-06 -6.56929e-06 0.0873045)
(1.3984e-06 6.76975e-07 0.0872587)
(-1.23498e-06 -1.13977e-05 0.0911322)
(-8.17486e-07 -1.96992e-05 0.0984034)
(-5.0929e-07 -1.9911e-05 0.0984041)
(-1.78973e-06 1.29954e-06 0.0911045)
(-2.94984e-06 -8.13184e-06 0.0819646)
(-7.44634e-07 5.42457e-06 0.0819158)
(-1.17878e-06 -1.277e-05 0.0911455)
(-1.11033e-06 1.06159e-06 0.091105)
(5.05905e-06 -8.12125e-06 0.0819632)
(5.61721e-07 5.21031e-06 0.0819123)
(7.50993e-08 -1.2982e-05 0.0911458)
(-2.45989e-06 -9.70169e-06 0.107627)
(-2.88192e-06 -9.80436e-06 0.107622)
(-2.10497e-06 -9.98547e-06 0.110137)
(-1.22455e-06 3.15406e-06 0.098354)
(-6.93977e-06 -1.57385e-05 0.0928041)
(1.08991e-06 4.69558e-06 0.0927472)
(-2.00431e-06 -2.15545e-05 0.0984128)
(-9.83742e-07 -1.03081e-05 0.110141)
(-1.97977e-07 -1.00033e-05 0.10763)
(1.34632e-06 -1.07672e-05 0.107635)
(-8.89466e-07 2.83209e-06 0.0983547)
(6.82831e-06 -1.6401e-05 0.0928047)
(-3.01347e-06 3.50193e-06 0.0927498)
(-1.23859e-06 -2.20015e-05 0.0984136)
(5.60818e-06 -2.96529e-06 0.0713015)
(1.14048e-07 3.05979e-06 0.0712436)
(-3.12746e-05 2.74375e-05 0.104229)
(7.97741e-06 -6.00647e-06 0.0873013)
(6.64874e-06 -7.33695e-06 0.0873013)
(-1.78804e-06 6.65515e-08 0.0872556)
(4.02281e-07 1.89234e-06 0.0872591)
(3.12991e-06 -4.90144e-06 0.071301)
(-2.60755e-06 7.94248e-07 0.0712476)
(8.7803e-06 -2.90056e-06 0.110144)
(8.37431e-06 -5.63991e-06 0.10764)
(8.62404e-06 -4.97865e-06 0.11015)
(-2.71083e-06 -6.26755e-07 0.0983554)
(1.68903e-05 -5.95669e-06 0.0928046)
(-2.96727e-06 2.25727e-06 0.0927516)
(2.14531e-05 2.01013e-06 0.0984118)
(-7.42834e-07 2.04776e-06 0.0911049)
(8.34966e-06 -4.27769e-06 0.0819636)
(-4.52846e-06 2.42585e-07 0.0819135)
(1.26954e-05 1.50873e-06 0.0911444)
(8.2283e-06 2.25755e-06 0.10762)
(1.42232e-05 7.01225e-06 0.0928034)
(8.25148e-06 -2.45321e-06 0.110147)
(8.2124e-06 4.61628e-07 0.107627)
(-5.34403e-06 6.93954e-07 0.092747)
(-2.8538e-06 1.92497e-07 0.0983547)
(2.0668e-05 3.08869e-06 0.0984105)
(-5.18508e-06 1.28052e-06 0.0819196)
(-1.08185e-06 2.91642e-06 0.0911049)
(1.21732e-05 2.58068e-06 0.091144)
(-1.05642e-08 1.99974e-06 0.0712762)
(1.92695e-06 5.56666e-07 0.0712772)
(2.94841e-05 2.85584e-05 0.104216)
(2.95801e-07 4.39804e-07 0.0872754)
(3.69054e-06 4.2781e-06 0.0819304)
(7.0047e-07 -4.37835e-07 0.0911182)
(-3.07199e-06 -9.84871e-06 0.110132)
(-1.16574e-06 3.75191e-06 0.0927607)
(-1.96588e-06 1.37461e-06 0.0983632)
(-7.69909e-07 -8.78183e-06 0.107623)
(1.81953e-06 3.52429e-06 0.09276)
(-1.0115e-06 1.00763e-06 0.0983637)
(1.32214e-06 1.25556e-06 0.0872702)
(-6.92493e-07 -5.55279e-07 0.0872734)
(-2.66445e-06 -1.4161e-06 0.0712733)
(1.87753e-06 -7.64439e-07 0.0983611)
(-8.51887e-06 -4.61665e-06 0.107623)
(-8.48686e-06 -3.96543e-06 0.110134)
(5.03755e-06 2.79811e-06 0.0819334)
(-8.51188e-06 -3.11274e-08 0.107619)
(-8.45816e-06 -2.20736e-06 0.110134)
(4.18975e-06 1.12401e-06 0.0927591)
(1.25075e-05 -2.19476e-06 0.0911561)
(-4.38261e-06 -3.02072e-06 0.0819322)
(-5.08269e-08 7.0606e-07 0.0911176)
(8.22778e-06 4.7239e-06 0.107615)
(-5.28444e-06 3.79521e-07 0.0927605)
(2.05665e-05 2.85454e-06 0.0984153)
(8.40199e-06 6.95717e-06 0.107611)
(-2.55112e-06 3.54477e-06 0.0983609)
(7.99957e-06 5.57935e-06 0.110125)
(1.57148e-05 4.41073e-06 0.092818)
(1.24368e-05 -1.21426e-06 0.0911561)
(-5.32938e-07 1.88422e-06 0.0911176)
(9.92988e-06 -2.50605e-06 0.0819847)
(1.40141e-06 5.77995e-07 0.0872726)
(1.307e-07 -8.36359e-07 0.0872748)
(-9.82725e-07 -3.01146e-06 0.0712766)
(3.34401e-06 6.78713e-06 0.110133)
(2.39861e-06 -3.03812e-06 0.0983585)
(-9.18257e-07 -4.80411e-06 0.0927605)
(6.41539e-06 8.62576e-06 0.107613)
(3.35497e-06 1.58869e-05 0.0928178)
(-2.21e-06 -4.98375e-06 0.0819343)
(-2.86414e-06 -3.53164e-06 0.0819378)
(-2.41031e-06 9.56987e-06 0.0819856)
(4.92117e-06 -1.06723e-06 0.0713273)
(-4.11978e-06 -1.18551e-06 0.0712849)
(-9.38058e-07 4.61322e-06 0.0713274)
(2.01444e-06 2.49945e-06 0.076577)
(-5.38691e-06 1.11663e-06 0.0783811)
(-1.16304e-05 1.98535e-06 0.0896521)
(4.67206e-07 5.87553e-07 0.09111)
(1.28732e-06 1.22978e-06 0.0783502)
(1.20914e-06 1.33765e-06 0.0896121)
(-4.90599e-06 1.59083e-06 0.0766125)
(-1.64099e-06 -1.94964e-06 0.0765783)
(-2.75787e-07 1.17691e-05 0.0896518)
(-1.28576e-06 5.18036e-06 0.0783823)
(9.16945e-07 -5.43122e-07 0.0911094)
(1.73506e-07 -8.44321e-07 0.089611)
(-9.1977e-07 -1.37538e-06 0.0783527)
(-1.04621e-06 4.64528e-06 0.0766157)
(4.41785e-07 -1.65083e-06 0.0765803)
(2.07026e-06 1.10553e-05 0.089651)
(-1.22198e-06 5.34094e-06 0.0783816)
(1.84114e-06 -8.44218e-07 0.0911099)
(2.56589e-06 -1.8489e-06 0.089613)
(-3.40248e-07 -1.34003e-06 0.0783536)
(-1.63119e-06 5.40784e-06 0.0766128)
(-1.8229e-06 -2.02632e-06 0.0712764)
(-2.01141e-06 9.04575e-07 0.0681408)
(-4.50478e-06 -3.56835e-07 0.0819281)
(8.84448e-06 1.90059e-06 0.0855685)
(-2.56043e-06 2.08438e-06 0.0855247)
(4.11153e-06 -1.47361e-06 0.0681862)
(-1.31125e-05 -7.49792e-06 0.09147)
(3.78184e-06 1.98738e-06 0.0960848)
(1.58e-07 2.9359e-07 0.081287)
(-7.1743e-06 -6.04702e-06 0.0873151)
(2.39098e-06 -2.42765e-07 0.0914389)
(-6.7212e-06 -3.37938e-06 0.0813227)
(-1.84119e-05 -1.0533e-05 0.0961272)
(-5.201e-06 2.05219e-06 0.0766207)
(1.09151e-06 1.50481e-06 0.0783579)
(1.22319e-06 2.46553e-06 0.0896193)
(-1.25554e-05 1.52494e-06 0.0911516)
(1.80423e-06 3.18506e-06 0.076585)
(-5.62337e-06 1.36706e-06 0.0783887)
(-1.15913e-05 3.09094e-06 0.089659)
(4.57546e-06 -3.15065e-06 0.0681957)
(-1.96004e-06 4.33762e-07 0.085534)
(9.46688e-06 -1.30689e-06 0.0819768)
(-1.44682e-06 -9.56796e-07 0.0681505)
(9.43833e-06 9.41563e-08 0.0855776)
(-2.35514e-06 4.48283e-06 0.0766238)
(-8.02875e-07 -1.21196e-06 0.0896181)
(-2.14857e-06 -1.52568e-06 0.0783609)
(-4.45882e-07 1.19436e-05 0.0911502)
(-3.04052e-06 -2.23319e-06 0.0765868)
(-1.59804e-06 1.13566e-05 0.0896588)
(-2.46173e-06 5.10575e-06 0.0783903)
(-3.17243e-06 5.67256e-06 0.0766209)
(1.22826e-06 -1.75188e-06 0.0896205)
(-1.59901e-06 -1.35811e-06 0.0783617)
(2.34243e-07 1.17696e-05 0.0911498)
(-1.17228e-06 -1.38089e-06 0.0765884)
(4.53327e-07 1.12522e-05 0.0896584)
(-2.42365e-06 5.38997e-06 0.0783896)
(4.7539e-06 -4.10025e-07 0.0713221)
(2.35621e-06 -1.70535e-06 0.0681341)
(4.56482e-06 -2.10987e-07 0.0819252)
(-9.05516e-06 -1.7664e-06 0.0855661)
(2.15726e-06 -1.24576e-06 0.0855221)
(-3.54258e-06 -1.7766e-07 0.0681805)
(1.62498e-06 -1.07105e-06 0.0765781)
(-1.18878e-05 -9.98407e-07 0.0896518)
(-5.54505e-06 5.87045e-07 0.0783802)
(5.17633e-07 -3.35042e-07 0.0911105)
(1.12179e-06 -9.26548e-07 0.0896133)
(1.24389e-06 1.6519e-07 0.0783512)
(-5.44647e-06 1.44173e-07 0.0766114)
(2.99688e-06 3.12827e-06 0.0681352)
(-8.5058e-06 3.38679e-06 0.0855653)
(5.18568e-06 2.12522e-06 0.0819249)
(2.58632e-06 2.42563e-06 0.0855209)
(-2.86643e-06 1.87339e-06 0.0681811)
(3.26387e-06 1.37876e-06 0.0712628)
(3.36403e-06 3.20725e-07 0.091422)
(-1.77329e-05 1.00347e-05 0.0961151)
(-4.88593e-06 5.02096e-06 0.0813074)
(8.34529e-07 -4.9088e-08 0.0872642)
(4.11787e-06 -3.00698e-06 0.0960752)
(1.76225e-06 1.10533e-06 0.0812722)
(-1.17588e-05 7.93913e-06 0.091456)
(1.15355e-06 -5.35437e-08 0.083344)
(-1.74778e-06 3.74288e-06 0.0681143)
(-3.23715e-06 1.92517e-06 0.0681209)
(1.34586e-06 1.01847e-07 0.0680771)
(6.63229e-07 -9.08238e-07 0.0680833)
(-3.85657e-06 4.94577e-06 0.083375)
(-9.95299e-09 -2.89011e-06 0.0914285)
(-1.01687e-05 1.79037e-05 0.0961181)
(-4.49811e-06 5.75353e-06 0.0813138)
(6.13529e-07 -2.25644e-07 0.0872668)
(-4.77627e-07 -7.86971e-07 0.0812776)
(2.26926e-06 -4.28744e-06 0.096078)
(-7.28817e-06 1.25674e-05 0.091463)
(-4.00971e-07 -2.98895e-06 0.0712653)
(-2.50447e-06 -2.91497e-06 0.0681329)
(-2.3619e-06 8.57625e-06 0.0855657)
(-1.21627e-06 -4.59948e-06 0.0819256)
(-1.33856e-06 -2.27392e-06 0.0855196)
(-1.53612e-06 2.62299e-06 0.0681826)
(2.17603e-07 -1.98331e-06 0.0681437)
(9.16246e-07 9.0544e-06 0.0855693)
(-1.3277e-06 -3.90439e-06 0.0819295)
(1.05691e-06 -2.18062e-06 0.0855254)
(-2.00137e-06 4.03758e-06 0.0681885)
(-4.47148e-07 3.62395e-06 0.0681797)
(1.31454e-06 8.70823e-06 0.0819614)
(2.33128e-06 -2.42515e-06 0.085516)
(1.7074e-06 -2.37731e-06 0.0681345)
(2.32956e-06 8.802e-06 0.0855599)
(-3.86805e-06 5.55688e-07 0.0914307)
(1.68435e-05 1.14965e-05 0.0961187)
(6.01628e-06 1.6514e-06 0.0813221)
(-8.86141e-07 -1.51908e-06 0.0872718)
(-6.20009e-07 -1.57864e-06 0.0812861)
(1.14746e-05 7.69507e-06 0.0914679)
(-5.17271e-06 -1.32837e-06 0.0960767)
(-1.33508e-06 -4.46339e-07 0.083351)
(2.14954e-06 2.17208e-06 0.0681311)
(1.73947e-06 2.48494e-06 0.0681254)
(-8.01432e-07 -1.14888e-06 0.0680942)
(-1.82552e-06 -4.312e-07 0.0680907)
(3.95142e-06 4.81868e-06 0.0833839)
(-1.02968e-07 -3.25729e-06 0.0914248)
(1.11386e-05 1.71055e-05 0.0961148)
(9.44759e-07 6.75384e-06 0.0813174)
(-2.32552e-06 -1.95032e-07 0.0872715)
(-1.1512e-06 -5.24905e-06 0.0960735)
(-2.42865e-06 1.85044e-07 0.0812827)
(6.81209e-06 1.23461e-05 0.0914611)
(1.16817e-05 7.74034e-06 0.0914605)
(6.03291e-06 6.14064e-06 0.0873009)
(-4.73196e-06 -2.13984e-06 0.0960723)
(-8.74027e-07 -6.27296e-07 0.0812777)
(5.71473e-06 2.648e-06 0.0813145)
(1.71411e-05 1.08928e-05 0.0961136)
(-3.50309e-06 4.52982e-07 0.0914238)
(3.78855e-06 4.66978e-06 0.0833761)
(-9.84176e-07 -6.20098e-07 0.0680873)
(-1.52341e-06 -4.85354e-07 0.0680838)
(1.96134e-06 2.75119e-06 0.0681249)
(2.00382e-06 2.49752e-06 0.0681196)
(-1.34575e-06 -6.07355e-07 0.0833432)
(7.42571e-06 1.19559e-05 0.0914539)
(5.58173e-06 6.69288e-06 0.0872996)
(-8.07872e-07 -5.72646e-06 0.096069)
(-1.4495e-06 -1.40902e-07 0.081274)
(1.16658e-05 1.66138e-05 0.0961097)
(1.81116e-06 6.59391e-06 0.0813095)
(4.94432e-07 -3.69471e-06 0.0914179)
(3.59458e-06 2.59781e-06 0.0713078)
(-2.88615e-06 -1.49461e-06 0.0712782)
(1.68687e-06 4.06117e-06 0.0713093)
(-1.58479e-06 2.64531e-06 0.0765624)
(-1.11585e-06 -4.70933e-06 0.0783648)
(-1.64095e-06 -1.06387e-05 0.0896378)
(-1.43415e-06 1.89569e-06 0.0910972)
(-1.46317e-06 2.1266e-06 0.0783363)
(-1.15405e-06 2.39704e-06 0.0895986)
(-5.2856e-07 -4.4121e-06 0.0765957)
(3.22202e-07 -4.05955e-06 0.0681897)
(-1.84884e-06 1.88848e-06 0.0855292)
(-2.32923e-06 -8.94296e-06 0.0819733)
(-1.66081e-06 1.97775e-06 0.0681421)
(-2.09216e-06 -9.43994e-06 0.0855737)
(2.88338e-07 -6.10696e-06 0.0766186)
(-2.43935e-07 -1.33217e-05 0.0911515)
(5.43554e-07 6.75462e-07 0.078358)
(-2.11979e-06 7.74895e-07 0.0896204)
(-1.40795e-06 1.08673e-06 0.0765849)
(1.27136e-06 -6.2333e-06 0.0783869)
(-2.00333e-06 -1.23331e-05 0.0896586)
(5.48185e-06 -3.28009e-06 0.0713175)
(-3.84027e-06 4.02515e-07 0.0681908)
(1.91781e-06 -1.05505e-06 0.0855305)
(-8.87042e-06 -1.87699e-06 0.0819751)
(2.10778e-06 -1.38268e-06 0.0681445)
(-9.32412e-06 -1.48424e-06 0.0855742)
(-5.75955e-06 3.83832e-07 0.0766197)
(9.1591e-07 -8.85894e-07 0.0896204)
(1.00182e-06 5.38063e-07 0.078359)
(-1.27021e-05 4.36594e-07 0.0911513)
(1.33496e-06 -1.0631e-06 0.0765864)
(-1.20527e-05 -9.72333e-07 0.0896586)
(-5.81305e-06 9.97031e-07 0.0783879)
(-3.10815e-06 4.95907e-06 0.0713182)
(1.16639e-05 7.37329e-06 0.0914752)
(-5.2749e-06 -9.77802e-07 0.0960824)
(-3.40432e-07 -2.5542e-06 0.0812929)
(7.48705e-06 3.94561e-06 0.087318)
(-3.86381e-06 3.68478e-07 0.0914379)
(1.69109e-05 1.15818e-05 0.0961247)
(6.24051e-06 7.87145e-07 0.0813284)
(4.43862e-06 4.97558e-06 0.0833907)
(-6.12006e-07 -1.72762e-06 0.0680989)
(-2.04816e-06 -5.18584e-07 0.0680954)
(-1.01462e-06 -2.97758e-07 0.0833581)
(2.29315e-06 1.60147e-06 0.0681354)
(1.55105e-06 2.3225e-06 0.0681293)
(6.35271e-06 1.26498e-05 0.0914684)
(-1.76845e-06 -4.71851e-06 0.0960792)
(-3.12231e-06 1.9074e-07 0.0812898)
(3.16285e-06 7.82064e-06 0.0873166)
(-6.50374e-07 -2.89491e-06 0.0914322)
(1.04886e-05 1.76357e-05 0.0961209)
(4.6111e-07 6.63874e-06 0.0813237)
(-3.40076e-07 -5.00111e-08 0.0833643)
(2.31749e-06 1.15939e-06 0.0681381)
(1.48138e-06 2.049e-06 0.0681319)
(-5.10448e-07 -2.24113e-06 0.0681019)
(-2.20319e-06 -7.57653e-07 0.0680986)
(5.1497e-06 5.23478e-06 0.0833968)
(-3.50408e-06 -6.64246e-08 0.0914451)
(6.82643e-07 -3.83077e-06 0.0872884)
(6.31472e-06 2.78289e-07 0.0813336)
(1.73159e-05 1.11336e-05 0.0961311)
(-5.02863e-06 -1.15642e-06 0.0960887)
(-1.87768e-07 -3.27541e-06 0.0812985)
(1.21249e-05 6.83875e-06 0.0914821)
(-1.02974e-06 -2.66459e-06 0.0914394)
(-4.42749e-06 8.72723e-07 0.0872877)
(4.18534e-07 6.33631e-06 0.081329)
(9.90259e-06 1.80881e-05 0.0961274)
(-2.38075e-06 -4.20387e-06 0.0960857)
(-3.40174e-06 -3.23467e-08 0.0812956)
(6.0525e-06 1.28084e-05 0.0914753)
(-3.11742e-07 2.76868e-06 0.0712647)
(-3.93984e-06 -2.73569e-06 0.0712957)
(2.39437e-06 4.73832e-07 0.0712659)
(2.81271e-06 1.6232e-08 0.091432)
(-1.1438e-08 1.24765e-06 0.087269)
(-1.80736e-05 -1.06669e-05 0.0961235)
(-5.94718e-06 -3.32288e-06 0.0813125)
(4.48756e-06 1.79341e-06 0.0960811)
(8.96713e-07 6.50444e-07 0.081277)
(-1.28931e-05 -7.3672e-06 0.091465)
(-4.27498e-07 3.63432e-06 0.0914266)
(-1.10508e-05 -1.76576e-05 0.096118)
(5.90667e-07 6.64961e-07 0.0872668)
(-4.04198e-06 -5.31909e-06 0.0813116)
(-1.16994e-07 1.70009e-06 0.0812763)
(2.07015e-06 4.58445e-06 0.096075)
(-8.15377e-06 -1.18284e-05 0.0914597)
(-7.19001e-06 -1.18786e-05 0.0914535)
(3.1117e-06 4.71863e-06 0.09607)
(4.60813e-07 2.08069e-06 0.0812681)
(-6.27412e-06 -6.48965e-06 0.087296)
(6.28397e-07 3.50313e-06 0.0914197)
(-3.63508e-06 -4.51112e-06 0.0813028)
(-1.00258e-05 -1.75079e-05 0.0961127)
(-5.47828e-07 8.26434e-07 0.0833507)
(-2.39983e-06 -2.66307e-06 0.0681182)
(-3.39298e-06 -1.88518e-06 0.0681182)
(3.70065e-07 1.40191e-06 0.0680832)
(6.89742e-07 1.29671e-06 0.0680827)
(-5.51361e-06 -4.19363e-06 0.0833765)
(-7.5033e-07 2.46316e-06 0.0765622)
(-6.52533e-07 -4.76483e-06 0.0783647)
(-1.42179e-06 -1.13742e-05 0.0896382)
(-1.15954e-06 1.74703e-06 0.0910976)
(-6.80699e-07 2.03535e-06 0.0783364)
(-1.82028e-06 1.82879e-06 0.0895997)
(-1.32262e-06 -4.53892e-06 0.0765942)
(-7.02392e-07 -4.89897e-06 0.0766025)
(-1.13766e-06 1.76219e-06 0.078343)
(-1.86789e-06 2.014e-06 0.0896061)
(-1.72113e-06 -1.19185e-05 0.0911389)
(-1.92461e-06 2.26893e-06 0.0765691)
(-5.71216e-07 -5.16878e-06 0.0783714)
(-2.18393e-06 -1.11634e-05 0.0896451)
(-2.33488e-06 2.43188e-06 0.068131)
(-1.16375e-06 4.98908e-06 0.0819238)
(-2.68516e-06 -8.92882e-06 0.0855654)
(-6.29796e-07 -3.56285e-06 0.0681783)
(-2.20693e-06 2.42413e-06 0.0855209)
(-1.01609e-06 -3.13969e-06 0.0681688)
(-2.11016e-06 2.86838e-06 0.0855127)
(-2.78787e-06 -7.53657e-06 0.0819564)
(-2.48147e-06 2.78315e-06 0.0681222)
(-2.79741e-06 -8.43404e-06 0.0855572)
(-1.9061e-06 1.70852e-06 0.0765765)
(-1.53793e-06 4.70457e-07 0.0911116)
(2.93525e-07 -5.73207e-06 0.0783786)
(-2.31588e-06 -1.18364e-05 0.0896521)
(-4.61131e-07 -5.52071e-06 0.07661)
(-4.11595e-07 1.23749e-06 0.0783501)
(-2.21068e-06 1.38458e-06 0.0896135)
(3.33564e-07 -4.82584e-06 0.0766011)
(-7.05401e-08 1.73806e-06 0.078343)
(-9.58244e-07 1.28018e-06 0.0896073)
(-8.71637e-07 -1.217e-05 0.0911393)
(7.58779e-07 2.29696e-06 0.0765687)
(8.85592e-08 -5.16943e-06 0.0783712)
(-8.97647e-08 -1.18873e-05 0.0896454)
(3.16036e-06 2.88759e-06 0.0681299)
(2.59793e-06 4.85594e-06 0.0819205)
(3.80762e-06 -8.9373e-06 0.0855643)
(2.40739e-06 2.16707e-06 0.0855212)
(2.16145e-06 -3.06079e-06 0.0681759)
(1.19412e-06 -2.86518e-06 0.0681665)
(6.43022e-07 2.30736e-06 0.085514)
(3.36911e-06 -7.64246e-06 0.0819542)
(1.9416e-06 2.98356e-06 0.0681221)
(2.10483e-06 -8.88656e-06 0.0855569)
(2.40265e-06 1.88338e-06 0.0765762)
(-4.3522e-07 2.30044e-07 0.0911119)
(1.011e-06 -5.70162e-06 0.0783784)
(1.76194e-06 -1.23099e-05 0.0896522)
(7.86564e-07 1.26012e-06 0.07835)
(7.10223e-07 7.84927e-07 0.0896145)
(1.8689e-06 -5.30839e-06 0.0766092)
(1.54969e-06 2.82777e-06 0.0712549)
(4.60287e-06 -2.61536e-06 0.0712881)
(5.41839e-06 -4.39098e-06 0.0833639)
(-3.84512e-07 1.304e-06 0.0680556)
(-4.83688e-07 1.24019e-06 0.0680588)
(3.69871e-06 -1.78786e-06 0.0680935)
(2.5406e-06 -2.81062e-06 0.0680966)
(3.02021e-07 3.74608e-07 0.0833333)
(2.0293e-07 2.99979e-06 0.0914221)
(9.64787e-06 -1.8005e-05 0.0961189)
(9.60551e-08 6.43959e-07 0.0872623)
(5.64188e-06 -5.75769e-06 0.0813036)
(-3.68985e-06 3.87733e-06 0.0960786)
(1.54954e-06 9.91993e-07 0.0812651)
(8.11724e-06 -1.21656e-05 0.091457)
(-2.53934e-06 -4.96535e-08 0.0914291)
(1.82363e-05 -9.8573e-06 0.0961217)