/*--------------------------------*- C++ -*----------------------------------*\
| =========                 |                                                 |
| \\      /  F ield         | OpenFOAM: The Open Source CFD Toolbox           |
|  \\    /   O peration     | Version:  v2012                                 |
|   \\  /    A nd           | Website:  www.openfoam.com                      |
|    \\/     M anipulation  |                                                 |
\*---------------------------------------------------------------------------*/
FoamFile
{
    version     2.0;
    format      ascii;
    class       volScalarField;
    location    "0.395";
    object      p;
}
// * * * * * * * * * * * * * * * * * * * * * * * * * * * * * * * * * * * * * //

dimensions      [0 2 -2 0 0 0 0];


internalField   nonuniform List<scalar> 
247104
(
1.84155e-06
1.84144e-06
1.84159e-06
1.84157e-06
1.84148e-06
1.84158e-06
1.84157e-06
1.84137e-06
1.84143e-06
1.8415e-06
1.84156e-06
1.84141e-06
1.84132e-06
1.84143e-06
1.84157e-06
1.84147e-06
1.84159e-06
1.84156e-06
1.84125e-06
1.84089e-06
1.84075e-06
1.84093e-06
1.8413e-06
1.84158e-06
1.84159e-06
1.84157e-06
1.84141e-06
1.84089e-06
1.84041e-06
1.84024e-06
1.84046e-06
1.84096e-06
1.84145e-06
1.84157e-06
1.84155e-06
1.84148e-06
1.84132e-06
1.84075e-06
1.84024e-06
1.84006e-06
1.84029e-06
1.84083e-06
1.84137e-06
1.84147e-06
1.84158e-06
1.84143e-06
1.84093e-06
1.84046e-06
1.84029e-06
1.8405e-06
1.841e-06
1.84147e-06
1.84159e-06
1.84157e-06
1.84157e-06
1.8413e-06
1.84096e-06
1.84083e-06
1.841e-06
1.84135e-06
1.84158e-06
1.84157e-06
1.84137e-06
1.84147e-06
1.84158e-06
1.84145e-06
1.84137e-06
1.84147e-06
1.84158e-06
1.84144e-06
1.84159e-06
1.84157e-06
1.84147e-06
1.84159e-06
1.84157e-06
1.8087e-06
1.8067e-06
1.80607e-06
1.80486e-06
1.80487e-06
1.80481e-06
1.80481e-06
1.80613e-06
1.80636e-06
1.80609e-06
1.80402e-06
1.80142e-06
1.8014e-06
1.8014e-06
1.80142e-06
1.80441e-06
1.80467e-06
1.80486e-06
1.80142e-06
1.80136e-06
1.80143e-06
1.80143e-06
1.80136e-06
1.80142e-06
1.80479e-06
1.80611e-06
1.8087e-06
1.80487e-06
1.8014e-06
1.80143e-06
1.80152e-06
1.80152e-06
1.80143e-06
1.8014e-06
1.80479e-06
1.80643e-06
1.8067e-06
1.80481e-06
1.8014e-06
1.80143e-06
1.80152e-06
1.80152e-06
1.80143e-06
1.8014e-06
1.80496e-06
1.80504e-06
1.80481e-06
1.80142e-06
1.80136e-06
1.80143e-06
1.80143e-06
1.80136e-06
1.80142e-06
1.80474e-06
1.80603e-06
1.80613e-06
1.80441e-06
1.80142e-06
1.8014e-06
1.8014e-06
1.80142e-06
1.80465e-06
1.80482e-06
1.80628e-06
1.80636e-06
1.80467e-06
1.80478e-06
1.80479e-06
1.80496e-06
1.80474e-06
1.80482e-06
1.80639e-06
1.80611e-06
1.80643e-06
1.80503e-06
1.80603e-06
1.80628e-06
1.78858e-06
1.78841e-06
1.78824e-06
1.78614e-06
1.78603e-06
1.78599e-06
1.78611e-06
1.78819e-06
1.78845e-06
1.78824e-06
1.78543e-06
1.7825e-06
1.78245e-06
1.78245e-06
1.7825e-06
1.7859e-06
1.78658e-06
1.78614e-06
1.7825e-06
1.78226e-06
1.7823e-06
1.7823e-06
1.78226e-06
1.7825e-06
1.7867e-06
1.78866e-06
1.78858e-06
1.78603e-06
1.78245e-06
1.7823e-06
1.78233e-06
1.78233e-06
1.7823e-06
1.78245e-06
1.78675e-06
1.78841e-06
1.78841e-06
1.78598e-06
1.78245e-06
1.7823e-06
1.78233e-06
1.78233e-06
1.7823e-06
1.78245e-06
1.78671e-06
1.78672e-06
1.78611e-06
1.7825e-06
1.78226e-06
1.7823e-06
1.7823e-06
1.78226e-06
1.78252e-06
1.78675e-06
1.78875e-06
1.78818e-06
1.7859e-06
1.7825e-06
1.78245e-06
1.78245e-06
1.7825e-06
1.78638e-06
1.78668e-06
1.78866e-06
1.78844e-06
1.78657e-06
1.7867e-06
1.78675e-06
1.7867e-06
1.78674e-06
1.78668e-06
1.78855e-06
1.78865e-06
1.78841e-06
1.78671e-06
1.78874e-06
1.78866e-06
1.76967e-06
1.7695e-06
1.76935e-06
1.76721e-06
1.7671e-06
1.76702e-06
1.7672e-06
1.76929e-06
1.76957e-06
1.76935e-06
1.76649e-06
1.76353e-06
1.76351e-06
1.76351e-06
1.76353e-06
1.76693e-06
1.7677e-06
1.76721e-06
1.76353e-06
1.76342e-06
1.76343e-06
1.76343e-06
1.76342e-06
1.76353e-06
1.7678e-06
1.76974e-06
1.76966e-06
1.7671e-06
1.76351e-06
1.76343e-06
1.76344e-06
1.76344e-06
1.76343e-06
1.76351e-06
1.76785e-06
1.7695e-06
1.76949e-06
1.76702e-06
1.76351e-06
1.76343e-06
1.76344e-06
1.76344e-06
1.76343e-06
1.76351e-06
1.76782e-06
1.76783e-06
1.7672e-06
1.76353e-06
1.76342e-06
1.76343e-06
1.76343e-06
1.76342e-06
1.76353e-06
1.76783e-06
1.76982e-06
1.76929e-06
1.76693e-06
1.76353e-06
1.76351e-06
1.7635e-06
1.76353e-06
1.76756e-06
1.76781e-06
1.76977e-06
1.76956e-06
1.7677e-06
1.76779e-06
1.76784e-06
1.76781e-06
1.76783e-06
1.76781e-06
1.76979e-06
1.76974e-06
1.76949e-06
1.76783e-06
1.76981e-06
1.76977e-06
1.75074e-06
1.75057e-06
1.75041e-06
1.74826e-06
1.74815e-06
1.74806e-06
1.74825e-06
1.75035e-06
1.75062e-06
1.75041e-06
1.74755e-06
1.74457e-06
1.74456e-06
1.74456e-06
1.74457e-06
1.74795e-06
1.74876e-06
1.74826e-06
1.74457e-06
1.74454e-06
1.74454e-06
1.74454e-06
1.74454e-06
1.74457e-06
1.74886e-06
1.75081e-06
1.75074e-06
1.74815e-06
1.74456e-06
1.74454e-06
1.74454e-06
1.74454e-06
1.74454e-06
1.74456e-06
1.74893e-06
1.75059e-06
1.75057e-06
1.74806e-06
1.74456e-06
1.74454e-06
1.74454e-06
1.74454e-06
1.74454e-06
1.74456e-06
1.74891e-06
1.74892e-06
1.74825e-06
1.74457e-06
1.74454e-06
1.74454e-06
1.74454e-06
1.74454e-06
1.74457e-06
1.74891e-06
1.75091e-06
1.75035e-06
1.74795e-06
1.74457e-06
1.74456e-06
1.74456e-06
1.74457e-06
1.74866e-06
1.74889e-06
1.75084e-06
1.75062e-06
1.74876e-06
1.74886e-06
1.74893e-06
1.74891e-06
1.7489e-06
1.74889e-06
1.75083e-06
1.75081e-06
1.75059e-06
1.74892e-06
1.75091e-06
1.75084e-06
1.7318e-06
1.73163e-06
1.73146e-06
1.72931e-06
1.7292e-06
1.72911e-06
1.7293e-06
1.7314e-06
1.73167e-06
1.73146e-06
1.72861e-06
1.72562e-06
1.72561e-06
1.72561e-06
1.72562e-06
1.72899e-06
1.72981e-06
1.72931e-06
1.72562e-06
1.72561e-06
1.72561e-06
1.72561e-06
1.72561e-06
1.72562e-06
1.7299e-06
1.73186e-06
1.7318e-06
1.7292e-06
1.72561e-06
1.72561e-06
1.72561e-06
1.72561e-06
1.72561e-06
1.72561e-06
1.72999e-06
1.73165e-06
1.73163e-06
1.72911e-06
1.72561e-06
1.72561e-06
1.72561e-06
1.72561e-06
1.72561e-06
1.72561e-06
1.72997e-06
1.72998e-06
1.7293e-06
1.72562e-06
1.72561e-06
1.72561e-06
1.72561e-06
1.72561e-06
1.72562e-06
1.72996e-06
1.73197e-06
1.7314e-06
1.72899e-06
1.72562e-06
1.72561e-06
1.72561e-06
1.72562e-06
1.72973e-06
1.72995e-06
1.73189e-06
1.73167e-06
1.72981e-06
1.7299e-06
1.72999e-06
1.72997e-06
1.72996e-06
1.72995e-06
1.73189e-06
1.73186e-06
1.73165e-06
1.72998e-06
1.73197e-06
1.73189e-06
1.71285e-06
1.71269e-06
1.71251e-06
1.71037e-06
1.71025e-06
1.71017e-06
1.71035e-06
1.71246e-06
1.71272e-06
1.71251e-06
1.70966e-06
1.70667e-06
1.70667e-06
1.70667e-06
1.70667e-06
1.71004e-06
1.71086e-06
1.71037e-06
1.70667e-06
1.70667e-06
1.70667e-06
1.70667e-06
1.70667e-06
1.70667e-06
1.71096e-06
1.71292e-06
1.71285e-06
1.71025e-06
1.70667e-06
1.70667e-06
1.70667e-06
1.70667e-06
1.70667e-06
1.70667e-06
1.71104e-06
1.71271e-06
1.71269e-06
1.71017e-06
1.70667e-06
1.70667e-06
1.70667e-06
1.70667e-06
1.70667e-06
1.70667e-06
1.71102e-06
1.71104e-06
1.71035e-06
1.70667e-06
1.70667e-06
1.70667e-06
1.70667e-06
1.70667e-06
1.70667e-06
1.71102e-06
1.71303e-06
1.71246e-06
1.71004e-06
1.70667e-06
1.70667e-06
1.70667e-06
1.70667e-06
1.71078e-06
1.71101e-06
1.71295e-06
1.71272e-06
1.71086e-06
1.71096e-06
1.71104e-06
1.71102e-06
1.71102e-06
1.71101e-06
1.71294e-06
1.71292e-06
1.71271e-06
1.71104e-06
1.71303e-06
1.71295e-06
1.69391e-06
1.69374e-06
1.69357e-06
1.69142e-06
1.69131e-06
1.69123e-06
1.69141e-06
1.69352e-06
1.69378e-06
1.69357e-06
1.69072e-06
1.68773e-06
1.68773e-06
1.68773e-06
1.68773e-06
1.69109e-06
1.69192e-06
1.69142e-06
1.68773e-06
1.68773e-06
1.68773e-06
1.68773e-06
1.68773e-06
1.68773e-06
1.69201e-06
1.69398e-06
1.69391e-06
1.69131e-06
1.68773e-06
1.68773e-06
1.68773e-06
1.68773e-06
1.68773e-06
1.68773e-06
1.6921e-06
1.69377e-06
1.69374e-06
1.69123e-06
1.68773e-06
1.68773e-06
1.68773e-06
1.68773e-06
1.68773e-06
1.68773e-06
1.69208e-06
1.6921e-06
1.69141e-06
1.68773e-06
1.68773e-06
1.68773e-06
1.68773e-06
1.68773e-06
1.68773e-06
1.69208e-06
1.69409e-06
1.69352e-06
1.69109e-06
1.68773e-06
1.68773e-06
1.68773e-06
1.68773e-06
1.69184e-06
1.69207e-06
1.694e-06
1.69378e-06
1.69192e-06
1.69201e-06
1.6921e-06
1.69208e-06
1.69208e-06
1.69207e-06
1.694e-06
1.69398e-06
1.69377e-06
1.6921e-06
1.69408e-06
1.694e-06
1.67497e-06
1.6748e-06
1.67463e-06
1.67248e-06
1.67237e-06
1.67229e-06
1.67247e-06
1.67458e-06
1.67484e-06
1.67463e-06
1.67178e-06
1.66879e-06
1.66879e-06
1.66879e-06
1.66879e-06
1.67215e-06
1.67298e-06
1.67248e-06
1.66879e-06
1.66879e-06
1.66879e-06
1.66879e-06
1.66879e-06
1.66879e-06
1.67307e-06
1.67504e-06
1.67497e-06
1.67237e-06
1.66879e-06
1.66879e-06
1.66879e-06
1.66879e-06
1.66879e-06
1.66879e-06
1.67316e-06
1.67483e-06
1.6748e-06
1.67229e-06
1.66879e-06
1.66879e-06
1.66879e-06
1.66879e-06
1.66879e-06
1.66879e-06
1.67314e-06
1.67315e-06
1.67247e-06
1.66879e-06
1.66879e-06
1.66879e-06
1.66879e-06
1.66879e-06
1.66879e-06
1.67314e-06
1.67515e-06
1.67458e-06
1.67215e-06
1.66879e-06
1.66879e-06
1.66879e-06
1.66879e-06
1.6729e-06
1.67313e-06
1.67506e-06
1.67484e-06
1.67298e-06
1.67307e-06
1.67316e-06
1.67314e-06
1.67314e-06
1.67313e-06
1.67505e-06
1.67504e-06
1.67483e-06
1.67316e-06
1.67514e-06
1.67506e-06
1.65603e-06
1.65586e-06
1.65569e-06
1.65354e-06
1.65343e-06
1.65335e-06
1.65353e-06
1.65563e-06
1.6559e-06
1.65569e-06
1.65284e-06
1.64985e-06
1.64985e-06
1.64985e-06
1.64985e-06
1.65321e-06
1.65404e-06
1.65354e-06
1.64985e-06
1.64985e-06
1.64985e-06
1.64985e-06
1.64985e-06
1.64985e-06
1.65413e-06
1.6561e-06
1.65603e-06
1.65343e-06
1.64985e-06
1.64985e-06
1.64985e-06
1.64985e-06
1.64985e-06
1.64985e-06
1.65422e-06
1.65589e-06
1.65586e-06
1.65335e-06
1.64985e-06
1.64985e-06
1.64985e-06
1.64985e-06
1.64985e-06
1.64985e-06
1.6542e-06
1.65421e-06
1.65353e-06
1.64985e-06
1.64985e-06
1.64985e-06
1.64985e-06
1.64985e-06
1.64985e-06
1.6542e-06
1.6562e-06
1.65563e-06
1.65321e-06
1.64985e-06
1.64985e-06
1.64985e-06
1.64985e-06
1.65396e-06
1.65419e-06
1.65612e-06
1.6559e-06
1.65404e-06
1.65413e-06
1.65422e-06
1.6542e-06
1.6542e-06
1.65419e-06
1.65611e-06
1.6561e-06
1.65589e-06
1.65421e-06
1.6562e-06
1.65612e-06
1.63709e-06
1.63692e-06
1.63675e-06
1.6346e-06
1.63449e-06
1.63441e-06
1.63459e-06
1.63669e-06
1.63696e-06
1.63675e-06
1.6339e-06
1.63091e-06
1.63091e-06
1.63091e-06
1.63091e-06
1.63427e-06
1.6351e-06
1.6346e-06
1.63091e-06
1.63091e-06
1.63091e-06
1.63091e-06
1.63091e-06
1.63091e-06
1.63519e-06
1.63715e-06
1.63709e-06
1.63449e-06
1.63091e-06
1.63091e-06
1.63091e-06
1.63091e-06
1.63091e-06
1.63091e-06
1.63528e-06
1.63695e-06
1.63692e-06
1.63441e-06
1.63091e-06
1.63091e-06
1.63091e-06
1.63091e-06
1.63091e-06
1.63091e-06
1.63526e-06
1.63527e-06
1.63459e-06
1.63091e-06
1.63091e-06
1.63091e-06
1.63091e-06
1.63091e-06
1.63091e-06
1.63526e-06
1.63726e-06
1.63669e-06
1.63427e-06
1.63091e-06
1.63091e-06
1.63091e-06
1.63091e-06
1.63502e-06
1.63525e-06
1.63718e-06
1.63696e-06
1.6351e-06
1.63519e-06
1.63528e-06
1.63526e-06
1.63526e-06
1.63525e-06
1.63717e-06
1.63715e-06
1.63695e-06
1.63527e-06
1.63726e-06
1.63718e-06
1.61815e-06
1.61798e-06
1.61781e-06
1.61566e-06
1.61555e-06
1.61546e-06
1.61565e-06
1.61775e-06
1.61802e-06
1.61781e-06
1.61496e-06
1.61197e-06
1.61197e-06
1.61197e-06
1.61197e-06
1.61533e-06
1.61616e-06
1.61566e-06
1.61197e-06
1.61197e-06
1.61197e-06
1.61197e-06
1.61197e-06
1.61197e-06
1.61625e-06
1.61821e-06
1.61815e-06
1.61555e-06
1.61197e-06
1.61197e-06
1.61197e-06
1.61197e-06
1.61197e-06
1.61197e-06
1.61634e-06
1.618e-06
1.61798e-06
1.61546e-06
1.61197e-06
1.61197e-06
1.61197e-06
1.61197e-06
1.61197e-06
1.61197e-06
1.61632e-06
1.61633e-06
1.61565e-06
1.61197e-06
1.61197e-06
1.61197e-06
1.61197e-06
1.61197e-06
1.61197e-06
1.61632e-06
1.61832e-06
1.61775e-06
1.61533e-06
1.61197e-06
1.61197e-06
1.61197e-06
1.61197e-06
1.61608e-06
1.61631e-06
1.61824e-06
1.61802e-06
1.61616e-06
1.61625e-06
1.61634e-06
1.61632e-06
1.61632e-06
1.61631e-06
1.61823e-06
1.61821e-06
1.61801e-06
1.61633e-06
1.61832e-06
1.61824e-06
1.59921e-06
1.59904e-06
1.59887e-06
1.59672e-06
1.5966e-06
1.59652e-06
1.5967e-06
1.59881e-06
1.59908e-06
1.59887e-06
1.59602e-06
1.59303e-06
1.59303e-06
1.59303e-06
1.59303e-06
1.59639e-06
1.59722e-06
1.59672e-06
1.59303e-06
1.59303e-06
1.59303e-06
1.59303e-06
1.59303e-06
1.59303e-06
1.59731e-06
1.59927e-06
1.59921e-06
1.5966e-06
1.59303e-06
1.59303e-06
1.59303e-06
1.59303e-06
1.59303e-06
1.59303e-06
1.5974e-06
1.59906e-06
1.59904e-06
1.59652e-06
1.59303e-06
1.59303e-06
1.59303e-06
1.59303e-06
1.59303e-06
1.59303e-06
1.59738e-06
1.59739e-06
1.5967e-06
1.59303e-06
1.59303e-06
1.59303e-06
1.59303e-06
1.59303e-06
1.59303e-06
1.59737e-06
1.59938e-06
1.59881e-06
1.59639e-06
1.59303e-06
1.59303e-06
1.59303e-06
1.59303e-06
1.59714e-06
1.59737e-06
1.5993e-06
1.59908e-06
1.59722e-06
1.59731e-06
1.5974e-06
1.59738e-06
1.59737e-06
1.59737e-06
1.59929e-06
1.59927e-06
1.59906e-06
1.59739e-06
1.59938e-06
1.5993e-06
1.58027e-06
1.5801e-06
1.57992e-06
1.57778e-06
1.57766e-06
1.57758e-06
1.57776e-06
1.57987e-06
1.58013e-06
1.57992e-06
1.57708e-06
1.57408e-06
1.57408e-06
1.57408e-06
1.57408e-06
1.57745e-06
1.57827e-06
1.57778e-06
1.57408e-06
1.57408e-06
1.57408e-06
1.57408e-06
1.57408e-06
1.57408e-06
1.57837e-06
1.58033e-06
1.58027e-06
1.57766e-06
1.57408e-06
1.57408e-06
1.57408e-06
1.57408e-06
1.57408e-06
1.57408e-06
1.57846e-06
1.58012e-06
1.5801e-06
1.57758e-06
1.57408e-06
1.57408e-06
1.57408e-06
1.57408e-06
1.57408e-06
1.57408e-06
1.57844e-06
1.57845e-06
1.57776e-06
1.57408e-06
1.57408e-06
1.57408e-06
1.57408e-06
1.57408e-06
1.57408e-06
1.57843e-06
1.58044e-06
1.57987e-06
1.57745e-06
1.57408e-06
1.57408e-06
1.57408e-06
1.57408e-06
1.5782e-06
1.57842e-06
1.58036e-06
1.58013e-06
1.57828e-06
1.57837e-06
1.57846e-06
1.57843e-06
1.57843e-06
1.57842e-06
1.58035e-06
1.58033e-06
1.58012e-06
1.57845e-06
1.58044e-06
1.58036e-06
1.56132e-06
1.56116e-06
1.56098e-06
1.55883e-06
1.55872e-06
1.55864e-06
1.55882e-06
1.56093e-06
1.56119e-06
1.56098e-06
1.55813e-06
1.55514e-06
1.55514e-06
1.55514e-06
1.55514e-06
1.5585e-06
1.55933e-06
1.55883e-06
1.55514e-06
1.55514e-06
1.55514e-06
1.55514e-06
1.55514e-06
1.55514e-06
1.55942e-06
1.56139e-06
1.56132e-06
1.55872e-06
1.55514e-06
1.55514e-06
1.55514e-06
1.55514e-06
1.55514e-06
1.55514e-06
1.55951e-06
1.56118e-06
1.56116e-06
1.55864e-06
1.55514e-06
1.55514e-06
1.55514e-06
1.55514e-06
1.55514e-06
1.55514e-06
1.55949e-06
1.55951e-06
1.55882e-06
1.55514e-06
1.55514e-06
1.55514e-06
1.55514e-06
1.55514e-06
1.55514e-06
1.55949e-06
1.5615e-06
1.56093e-06
1.5585e-06
1.55514e-06
1.55514e-06
1.55514e-06
1.55514e-06
1.55926e-06
1.55948e-06
1.56141e-06
1.56119e-06
1.55933e-06
1.55942e-06
1.55951e-06
1.55949e-06
1.55949e-06
1.55948e-06
1.56141e-06
1.56139e-06
1.56118e-06
1.55951e-06
1.5615e-06
1.56141e-06
1.54238e-06
1.54221e-06
1.54204e-06
1.53989e-06
1.53978e-06
1.5397e-06
1.53988e-06
1.54198e-06
1.54225e-06
1.54204e-06
1.53919e-06
1.5362e-06
1.5362e-06
1.5362e-06
1.5362e-06
1.53956e-06
1.54039e-06
1.53989e-06
1.5362e-06
1.5362e-06
1.5362e-06
1.5362e-06
1.5362e-06
1.5362e-06
1.54048e-06
1.54244e-06
1.54238e-06
1.53978e-06
1.5362e-06
1.5362e-06
1.5362e-06
1.5362e-06
1.5362e-06
1.5362e-06
1.54057e-06
1.54224e-06
1.54221e-06
1.5397e-06
1.5362e-06
1.5362e-06
1.5362e-06
1.5362e-06
1.5362e-06
1.5362e-06
1.54055e-06
1.54056e-06
1.53988e-06
1.5362e-06
1.5362e-06
1.5362e-06
1.5362e-06
1.5362e-06
1.5362e-06
1.54055e-06
1.54255e-06
1.54198e-06
1.53956e-06
1.5362e-06
1.5362e-06
1.5362e-06
1.5362e-06
1.54031e-06
1.54054e-06
1.54247e-06
1.54225e-06
1.54039e-06
1.54048e-06
1.54057e-06
1.54055e-06
1.54055e-06
1.54054e-06
1.54246e-06
1.54244e-06
1.54224e-06
1.54056e-06
1.54255e-06
1.54247e-06
1.52344e-06
1.52327e-06
1.52309e-06
1.52095e-06
1.52083e-06
1.52075e-06
1.52093e-06
1.52304e-06
1.52331e-06
1.5231e-06
1.52025e-06
1.51726e-06
1.51726e-06
1.51726e-06
1.51726e-06
1.52062e-06
1.52145e-06
1.52095e-06
1.51726e-06
1.51726e-06
1.51726e-06
1.51726e-06
1.51726e-06
1.51726e-06
1.52154e-06
1.5235e-06
1.52344e-06
1.52083e-06
1.51726e-06
1.51726e-06
1.51726e-06
1.51726e-06
1.51726e-06
1.51726e-06
1.52163e-06
1.52329e-06
1.52327e-06
1.52075e-06
1.51726e-06
1.51726e-06
1.51726e-06
1.51726e-06
1.51726e-06
1.51726e-06
1.52161e-06
1.52162e-06
1.52093e-06
1.51726e-06
1.51726e-06
1.51726e-06
1.51726e-06
1.51726e-06
1.51726e-06
1.5216e-06
1.52361e-06
1.52304e-06
1.52062e-06
1.51726e-06
1.51726e-06
1.51726e-06
1.51726e-06
1.52137e-06
1.5216e-06
1.52353e-06
1.52331e-06
1.52145e-06
1.52154e-06
1.52163e-06
1.52161e-06
1.5216e-06
1.52159e-06
1.52352e-06
1.5235e-06
1.52329e-06
1.52162e-06
1.52361e-06
1.52353e-06
1.5045e-06
1.50433e-06
1.50415e-06
1.50201e-06
1.50189e-06
1.50181e-06
1.50199e-06
1.5041e-06
1.50436e-06
1.50415e-06
1.50131e-06
1.49831e-06
1.49831e-06
1.49831e-06
1.49831e-06
1.50168e-06
1.5025e-06
1.50201e-06
1.49831e-06
1.49831e-06
1.49831e-06
1.49831e-06
1.49831e-06
1.49831e-06
1.5026e-06
1.50456e-06
1.5045e-06
1.50189e-06
1.49831e-06
1.49831e-06
1.49831e-06
1.49831e-06
1.49831e-06
1.49831e-06
1.50269e-06
1.50435e-06
1.50433e-06
1.50181e-06
1.49831e-06
1.49831e-06
1.49831e-06
1.49831e-06
1.49831e-06
1.49831e-06
1.50267e-06
1.50268e-06
1.50199e-06
1.49831e-06
1.49831e-06
1.49831e-06
1.49831e-06
1.49831e-06
1.49831e-06
1.50266e-06
1.50467e-06
1.5041e-06
1.50168e-06
1.49831e-06
1.49831e-06
1.49831e-06
1.49831e-06
1.50243e-06
1.50265e-06
1.50459e-06
1.50436e-06
1.5025e-06
1.50259e-06
1.50268e-06
1.50266e-06
1.50266e-06
1.50265e-06
1.50458e-06
1.50456e-06
1.50435e-06
1.50268e-06
1.50467e-06
1.50459e-06
1.48555e-06
1.48538e-06
1.48521e-06
1.48306e-06
1.48295e-06
1.48287e-06
1.48305e-06
1.48515e-06
1.48542e-06
1.48521e-06
1.48236e-06
1.47937e-06
1.47937e-06
1.47937e-06
1.47937e-06
1.48273e-06
1.48356e-06
1.48306e-06
1.47937e-06
1.47937e-06
1.47937e-06
1.47937e-06
1.47937e-06
1.47937e-06
1.48365e-06
1.48562e-06
1.48555e-06
1.48295e-06
1.47937e-06
1.47937e-06
1.47937e-06
1.47937e-06
1.47937e-06
1.47937e-06
1.48374e-06
1.48541e-06
1.48538e-06
1.48287e-06
1.47937e-06
1.47937e-06
1.47937e-06
1.47937e-06
1.47937e-06
1.47937e-06
1.48372e-06
1.48373e-06
1.48305e-06
1.47937e-06
1.47937e-06
1.47937e-06
1.47937e-06
1.47937e-06
1.47937e-06
1.48372e-06
1.48572e-06
1.48515e-06
1.48273e-06
1.47937e-06
1.47937e-06
1.47937e-06
1.47937e-06
1.48348e-06
1.48371e-06
1.48564e-06
1.48542e-06
1.48356e-06
1.48365e-06
1.48374e-06
1.48372e-06
1.48372e-06
1.48371e-06
1.48563e-06
1.48561e-06
1.48541e-06
1.48373e-06
1.48572e-06
1.48564e-06
1.46661e-06
1.46644e-06
1.46626e-06
1.46412e-06
1.464e-06
1.46392e-06
1.4641e-06
1.46621e-06
1.46648e-06
1.46626e-06
1.46342e-06
1.46042e-06
1.46042e-06
1.46042e-06
1.46042e-06
1.46379e-06
1.46462e-06
1.46412e-06
1.46042e-06
1.46042e-06
1.46042e-06
1.46042e-06
1.46042e-06
1.46042e-06
1.46471e-06
1.46667e-06
1.46661e-06
1.464e-06
1.46042e-06
1.46042e-06
1.46042e-06
1.46042e-06
1.46042e-06
1.46042e-06
1.4648e-06
1.46646e-06
1.46644e-06
1.46392e-06
1.46042e-06
1.46042e-06
1.46042e-06
1.46042e-06
1.46042e-06
1.46042e-06
1.46478e-06
1.46479e-06
1.4641e-06
1.46042e-06
1.46042e-06
1.46042e-06
1.46042e-06
1.46042e-06
1.46042e-06
1.46477e-06
1.46678e-06
1.46621e-06
1.46379e-06
1.46042e-06
1.46042e-06
1.46042e-06
1.46042e-06
1.46454e-06
1.46477e-06
1.4667e-06
1.46648e-06
1.46462e-06
1.46471e-06
1.4648e-06
1.46478e-06
1.46477e-06
1.46476e-06
1.46669e-06
1.46667e-06
1.46646e-06
1.46479e-06
1.46678e-06
1.4667e-06
1.44766e-06
1.4475e-06
1.44732e-06
1.44517e-06
1.44506e-06
1.44498e-06
1.44516e-06
1.44727e-06
1.44753e-06
1.44732e-06
1.44447e-06
1.44148e-06
1.44148e-06
1.44148e-06
1.44148e-06
1.44484e-06
1.44567e-06
1.44517e-06
1.44148e-06
1.44148e-06
1.44148e-06
1.44148e-06
1.44148e-06
1.44148e-06
1.44576e-06
1.44773e-06
1.44766e-06
1.44506e-06
1.44148e-06
1.44148e-06
1.44148e-06
1.44148e-06
1.44148e-06
1.44148e-06
1.44585e-06
1.44752e-06
1.4475e-06
1.44498e-06
1.44148e-06
1.44148e-06
1.44148e-06
1.44148e-06
1.44148e-06
1.44148e-06
1.44583e-06
1.44585e-06
1.44516e-06
1.44148e-06
1.44148e-06
1.44148e-06
1.44148e-06
1.44148e-06
1.44148e-06
1.44583e-06
1.44784e-06
1.44727e-06
1.44484e-06
1.44148e-06
1.44148e-06
1.44148e-06
1.44148e-06
1.44559e-06
1.44582e-06
1.44775e-06
1.44753e-06
1.44567e-06
1.44576e-06
1.44585e-06
1.44583e-06
1.44583e-06
1.44582e-06
1.44775e-06
1.44773e-06
1.44752e-06
1.44585e-06
1.44784e-06
1.44775e-06
1.42872e-06
1.42855e-06
1.42838e-06
1.42623e-06
1.42611e-06
1.42603e-06
1.42622e-06
1.42832e-06
1.42859e-06
1.42838e-06
1.42553e-06
1.42254e-06
1.42254e-06
1.42254e-06
1.42254e-06
1.4259e-06
1.42673e-06
1.42623e-06
1.42254e-06
1.42254e-06
1.42254e-06
1.42254e-06
1.42254e-06
1.42254e-06
1.42682e-06
1.42878e-06
1.42872e-06
1.42611e-06
1.42254e-06
1.42254e-06
1.42254e-06
1.42254e-06
1.42254e-06
1.42254e-06
1.42691e-06
1.42857e-06
1.42855e-06
1.42603e-06
1.42254e-06
1.42254e-06
1.42254e-06
1.42254e-06
1.42254e-06
1.42254e-06
1.42689e-06
1.4269e-06
1.42622e-06
1.42254e-06
1.42254e-06
1.42254e-06
1.42254e-06
1.42254e-06
1.42254e-06
1.42689e-06
1.42889e-06
1.42832e-06
1.4259e-06
1.42254e-06
1.42254e-06
1.42254e-06
1.42254e-06
1.42665e-06
1.42688e-06
1.42881e-06
1.42859e-06
1.42673e-06
1.42682e-06
1.42691e-06
1.42689e-06
1.42688e-06
1.42688e-06
1.4288e-06
1.42878e-06
1.42857e-06
1.4269e-06
1.42889e-06
1.42881e-06
1.40978e-06
1.40961e-06
1.40943e-06
1.40729e-06
1.40717e-06
1.40709e-06
1.40727e-06
1.40938e-06
1.40964e-06
1.40943e-06
1.40659e-06
1.40359e-06
1.40359e-06
1.40359e-06
1.40359e-06
1.40696e-06
1.40778e-06
1.40729e-06
1.40359e-06
1.40359e-06
1.40359e-06
1.40359e-06
1.40359e-06
1.40359e-06
1.40788e-06
1.40984e-06
1.40978e-06
1.40717e-06
1.40359e-06
1.40359e-06
1.40359e-06
1.40359e-06
1.40359e-06
1.40359e-06
1.40797e-06
1.40963e-06
1.40961e-06
1.40709e-06
1.40359e-06
1.40359e-06
1.40359e-06
1.40359e-06
1.40359e-06
1.40359e-06
1.40795e-06
1.40796e-06
1.40727e-06
1.40359e-06
1.40359e-06
1.40359e-06
1.40359e-06
1.40359e-06
1.40359e-06
1.40794e-06
1.40995e-06
1.40938e-06
1.40696e-06
1.40359e-06
1.40359e-06
1.40359e-06
1.40359e-06
1.40771e-06
1.40793e-06
1.40987e-06
1.40964e-06
1.40779e-06
1.40788e-06
1.40797e-06
1.40794e-06
1.40794e-06
1.40793e-06
1.40986e-06
1.40984e-06
1.40963e-06
1.40796e-06
1.40995e-06
1.40987e-06
1.39083e-06
1.39066e-06
1.39049e-06
1.38834e-06
1.38823e-06
1.38815e-06
1.38833e-06
1.39043e-06
1.3907e-06
1.39049e-06
1.38764e-06
1.38465e-06
1.38465e-06
1.38465e-06
1.38465e-06
1.38801e-06
1.38884e-06
1.38834e-06
1.38465e-06
1.38465e-06
1.38465e-06
1.38465e-06
1.38465e-06
1.38465e-06
1.38893e-06
1.3909e-06
1.39083e-06
1.38823e-06
1.38465e-06
1.38465e-06
1.38465e-06
1.38465e-06
1.38465e-06
1.38465e-06
1.38902e-06
1.39069e-06
1.39066e-06
1.38815e-06
1.38465e-06
1.38465e-06
1.38465e-06
1.38465e-06
1.38465e-06
1.38465e-06
1.389e-06
1.38901e-06
1.38833e-06
1.38465e-06
1.38465e-06
1.38465e-06
1.38465e-06
1.38465e-06
1.38465e-06
1.389e-06
1.39101e-06
1.39044e-06
1.38801e-06
1.38465e-06
1.38465e-06
1.38465e-06
1.38465e-06
1.38876e-06
1.38899e-06
1.39092e-06
1.3907e-06
1.38884e-06
1.38893e-06
1.38902e-06
1.389e-06
1.389e-06
1.38899e-06
1.39091e-06
1.3909e-06
1.39069e-06
1.38901e-06
1.391e-06
1.39092e-06
1.37189e-06
1.37172e-06
1.37154e-06
1.3694e-06
1.36928e-06
1.3692e-06
1.36938e-06
1.37149e-06
1.37175e-06
1.37154e-06
1.3687e-06
1.3657e-06
1.3657e-06
1.3657e-06
1.3657e-06
1.36907e-06
1.3699e-06
1.3694e-06
1.3657e-06
1.3657e-06
1.3657e-06
1.3657e-06
1.3657e-06
1.3657e-06
1.36999e-06
1.37195e-06
1.37189e-06
1.36928e-06
1.3657e-06
1.3657e-06
1.3657e-06
1.3657e-06
1.3657e-06
1.3657e-06
1.37008e-06
1.37174e-06
1.37172e-06
1.3692e-06
1.3657e-06
1.3657e-06
1.3657e-06
1.3657e-06
1.3657e-06
1.3657e-06
1.37006e-06
1.37007e-06
1.36938e-06
1.3657e-06
1.3657e-06
1.3657e-06
1.3657e-06
1.3657e-06
1.3657e-06
1.37005e-06
1.37206e-06
1.37149e-06
1.36907e-06
1.3657e-06
1.3657e-06
1.3657e-06
1.3657e-06
1.36982e-06
1.37004e-06
1.37198e-06
1.37175e-06
1.3699e-06
1.36999e-06
1.37008e-06
1.37006e-06
1.37005e-06
1.37004e-06
1.37197e-06
1.37195e-06
1.37174e-06
1.37007e-06
1.37206e-06
1.37198e-06
1.35294e-06
1.35277e-06
1.3526e-06
1.35045e-06
1.35034e-06
1.35026e-06
1.35044e-06
1.35254e-06
1.35281e-06
1.3526e-06
1.34975e-06
1.34676e-06
1.34676e-06
1.34676e-06
1.34676e-06
1.35012e-06
1.35095e-06
1.35045e-06
1.34676e-06
1.34676e-06
1.34676e-06
1.34676e-06
1.34676e-06
1.34676e-06
1.35104e-06
1.35301e-06
1.35294e-06
1.35034e-06
1.34676e-06
1.34676e-06
1.34676e-06
1.34676e-06
1.34676e-06
1.34676e-06
1.35113e-06
1.3528e-06
1.35277e-06
1.35026e-06
1.34676e-06
1.34676e-06
1.34676e-06
1.34676e-06
1.34676e-06
1.34676e-06
1.35111e-06
1.35112e-06
1.35044e-06
1.34676e-06
1.34676e-06
1.34676e-06
1.34676e-06
1.34676e-06
1.34676e-06
1.35111e-06
1.35311e-06
1.35255e-06
1.35012e-06
1.34676e-06
1.34676e-06
1.34676e-06
1.34676e-06
1.35087e-06
1.3511e-06
1.35303e-06
1.35281e-06
1.35095e-06
1.35104e-06
1.35113e-06
1.35111e-06
1.35111e-06
1.3511e-06
1.35302e-06
1.35301e-06
1.3528e-06
1.35112e-06
1.35311e-06
1.35303e-06
1.334e-06
1.33383e-06
1.33365e-06
1.33151e-06
1.33139e-06
1.33131e-06
1.33149e-06
1.3336e-06
1.33386e-06
1.33365e-06
1.33081e-06
1.32781e-06
1.32781e-06
1.32781e-06
1.32781e-06
1.33118e-06
1.33201e-06
1.33151e-06
1.32781e-06
1.32781e-06
1.32781e-06
1.32781e-06
1.32781e-06
1.32781e-06
1.3321e-06
1.33406e-06
1.334e-06
1.33139e-06
1.32781e-06
1.32781e-06
1.32781e-06
1.32781e-06
1.32781e-06
1.32781e-06
1.33219e-06
1.33385e-06
1.33383e-06
1.33131e-06
1.32781e-06
1.32781e-06
1.32781e-06
1.32781e-06
1.32781e-06
1.32781e-06
1.33217e-06
1.33218e-06
1.33149e-06
1.32781e-06
1.32781e-06
1.32781e-06
1.32781e-06
1.32781e-06
1.32781e-06
1.33216e-06
1.33417e-06
1.3336e-06
1.33118e-06
1.32781e-06
1.32781e-06
1.32781e-06
1.32781e-06
1.33193e-06
1.33215e-06
1.33409e-06
1.33386e-06
1.33201e-06
1.3321e-06
1.33219e-06
1.33217e-06
1.33216e-06
1.33215e-06
1.33408e-06
1.33406e-06
1.33385e-06
1.33218e-06
1.33417e-06
1.33409e-06
1.31505e-06
1.31488e-06
1.31471e-06
1.31256e-06
1.31245e-06
1.31237e-06
1.31255e-06
1.31465e-06
1.31492e-06
1.31471e-06
1.31186e-06
1.30887e-06
1.30887e-06
1.30887e-06
1.30887e-06
1.31223e-06
1.31306e-06
1.31256e-06
1.30887e-06
1.30887e-06
1.30887e-06
1.30887e-06
1.30887e-06
1.30887e-06
1.31315e-06
1.31512e-06
1.31505e-06
1.31245e-06
1.30887e-06
1.30887e-06
1.30887e-06
1.30887e-06
1.30887e-06
1.30887e-06
1.31324e-06
1.31491e-06
1.31488e-06
1.31237e-06
1.30887e-06
1.30887e-06
1.30887e-06
1.30887e-06
1.30887e-06
1.30887e-06
1.31322e-06
1.31323e-06
1.31255e-06
1.30887e-06
1.30887e-06
1.30887e-06
1.30887e-06
1.30887e-06
1.30887e-06
1.31322e-06
1.31523e-06
1.31466e-06
1.31223e-06
1.30887e-06
1.30887e-06
1.30887e-06
1.30887e-06
1.31298e-06
1.31321e-06
1.31514e-06
1.31492e-06
1.31306e-06
1.31315e-06
1.31324e-06
1.31322e-06
1.31322e-06
1.31321e-06
1.31513e-06
1.31512e-06
1.31491e-06
1.31323e-06
1.31522e-06
1.31514e-06
1.29611e-06
1.29594e-06
1.29576e-06
1.29362e-06
1.2935e-06
1.29342e-06
1.2936e-06
1.29571e-06
1.29598e-06
1.29576e-06
1.29292e-06
1.28992e-06
1.28992e-06
1.28992e-06
1.28992e-06
1.29329e-06
1.29412e-06
1.29362e-06
1.28992e-06
1.28992e-06
1.28992e-06
1.28992e-06
1.28992e-06
1.28992e-06
1.29421e-06
1.29617e-06
1.29611e-06
1.2935e-06
1.28992e-06
1.28992e-06
1.28992e-06
1.28992e-06
1.28992e-06
1.28992e-06
1.2943e-06
1.29596e-06
1.29594e-06
1.29342e-06
1.28992e-06
1.28992e-06
1.28992e-06
1.28992e-06
1.28992e-06
1.28992e-06
1.29428e-06
1.29429e-06
1.2936e-06
1.28992e-06
1.28992e-06
1.28992e-06
1.28992e-06
1.28992e-06
1.28992e-06
1.29427e-06
1.29628e-06
1.29571e-06
1.29329e-06
1.28992e-06
1.28992e-06
1.28992e-06
1.28992e-06
1.29404e-06
1.29426e-06
1.2962e-06
1.29597e-06
1.29412e-06
1.29421e-06
1.2943e-06
1.29428e-06
1.29427e-06
1.29426e-06
1.29619e-06
1.29617e-06
1.29596e-06
1.29429e-06
1.29628e-06
1.2962e-06
1.27716e-06
1.27699e-06
1.27682e-06
1.27467e-06
1.27456e-06
1.27448e-06
1.27466e-06
1.27676e-06
1.27703e-06
1.27682e-06
1.27397e-06
1.27098e-06
1.27098e-06
1.27098e-06
1.27098e-06
1.27434e-06
1.27517e-06
1.27467e-06
1.27098e-06
1.27098e-06
1.27098e-06
1.27098e-06
1.27098e-06
1.27098e-06
1.27526e-06
1.27723e-06
1.27716e-06
1.27456e-06
1.27098e-06
1.27098e-06
1.27098e-06
1.27098e-06
1.27098e-06
1.27098e-06
1.27535e-06
1.27702e-06
1.27699e-06
1.27448e-06
1.27098e-06
1.27098e-06
1.27098e-06
1.27098e-06
1.27098e-06
1.27098e-06
1.27533e-06
1.27534e-06
1.27466e-06
1.27098e-06
1.27098e-06
1.27098e-06
1.27098e-06
1.27098e-06
1.27098e-06
1.27533e-06
1.27733e-06
1.27676e-06
1.27434e-06
1.27098e-06
1.27098e-06
1.27098e-06
1.27098e-06
1.27509e-06
1.27532e-06
1.27725e-06
1.27703e-06
1.27517e-06
1.27526e-06
1.27535e-06
1.27533e-06
1.27533e-06
1.27532e-06
1.27724e-06
1.27722e-06
1.27702e-06
1.27534e-06
1.27733e-06
1.27725e-06
1.25822e-06
1.25805e-06
1.25787e-06
1.25573e-06
1.25561e-06
1.25553e-06
1.25571e-06
1.25782e-06
1.25808e-06
1.25787e-06
1.25503e-06
1.25203e-06
1.25203e-06
1.25203e-06
1.25203e-06
1.2554e-06
1.25622e-06
1.25573e-06
1.25203e-06
1.25203e-06
1.25203e-06
1.25203e-06
1.25203e-06
1.25203e-06
1.25632e-06
1.25828e-06
1.25822e-06
1.25561e-06
1.25203e-06
1.25203e-06
1.25203e-06
1.25203e-06
1.25203e-06
1.25203e-06
1.25641e-06
1.25807e-06
1.25805e-06
1.25553e-06
1.25203e-06
1.25203e-06
1.25203e-06
1.25203e-06
1.25203e-06
1.25203e-06
1.25639e-06
1.2564e-06
1.25571e-06
1.25203e-06
1.25203e-06
1.25203e-06
1.25203e-06
1.25203e-06
1.25203e-06
1.25638e-06
1.25839e-06
1.25782e-06
1.2554e-06
1.25203e-06
1.25203e-06
1.25203e-06
1.25203e-06
1.25615e-06
1.25637e-06
1.25831e-06
1.25808e-06
1.25623e-06
1.25632e-06
1.2564e-06
1.25638e-06
1.25638e-06
1.25637e-06
1.2583e-06
1.25828e-06
1.25807e-06
1.2564e-06
1.25839e-06
1.25831e-06
1.23927e-06
1.2391e-06
1.23893e-06
1.23678e-06
1.23667e-06
1.23658e-06
1.23677e-06
1.23887e-06
1.23914e-06
1.23893e-06
1.23608e-06
1.23309e-06
1.23309e-06
1.23309e-06
1.23309e-06
1.23645e-06
1.23728e-06
1.23678e-06
1.23309e-06
1.23309e-06
1.23309e-06
1.23309e-06
1.23309e-06
1.23309e-06
1.23737e-06
1.23933e-06
1.23927e-06
1.23667e-06
1.23309e-06
1.23309e-06
1.23309e-06
1.23309e-06
1.23309e-06
1.23309e-06
1.23746e-06
1.23913e-06
1.2391e-06
1.23659e-06
1.23309e-06
1.23309e-06
1.23309e-06
1.23309e-06
1.23309e-06
1.23309e-06
1.23744e-06
1.23745e-06
1.23677e-06
1.23309e-06
1.23309e-06
1.23309e-06
1.23309e-06
1.23309e-06
1.23309e-06
1.23744e-06
1.23944e-06
1.23887e-06
1.23645e-06
1.23309e-06
1.23309e-06
1.23309e-06
1.23309e-06
1.2372e-06
1.23743e-06
1.23936e-06