/*--------------------------------*- C++ -*----------------------------------*\
| =========                 |                                                 |
| \\      /  F ield         | OpenFOAM: The Open Source CFD Toolbox           |
|  \\    /   O peration     | Version:  v2012                                 |
|   \\  /    A nd           | Website:  www.openfoam.com                      |
|    \\/     M anipulation  |                                                 |
\*---------------------------------------------------------------------------*/
FoamFile
{
    version     2.0;
    format      ascii;
    class       volScalarField;
    location    "1650";
    object      k;
}
// * * * * * * * * * * * * * * * * * * * * * * * * * * * * * * * * * * * * * //

dimensions      [0 2 -2 0 0 0 0];


internalField   nonuniform List<scalar> 
171728
(
1.60631e-07
2.54921e-07
3.43483e-07
3.61296e-07
1.59954e-07
2.4363e-07
3.24239e-07
3.40964e-07
1.56387e-07
2.33147e-07
3.07075e-07
3.22692e-07
1.52594e-07
2.24157e-07
2.92142e-07
3.08525e-07
1.48842e-07
2.15804e-07
2.78268e-07
2.96474e-07
1.45054e-07
2.0715e-07
2.65065e-07
2.84163e-07
1.41279e-07
1.98505e-07
2.53008e-07
2.68792e-07
1.37715e-07
1.90963e-07
2.42628e-07
2.58264e-07
1.34173e-07
1.85234e-07
2.34172e-07
2.58484e-07
1.30934e-07
1.80445e-07
2.2685e-07
2.70992e-07
1.2777e-07
1.76182e-07
2.20457e-07
2.9149e-07
1.25039e-07
1.72815e-07
2.14667e-07
3.03797e-07
1.22544e-07
1.70573e-07
2.10015e-07
2.89176e-07
1.20094e-07
1.69753e-07
2.0684e-07
2.29978e-07
1.18048e-07
1.70453e-07
2.06611e-07
2.21553e-07
1.1612e-07
1.74236e-07
2.10245e-07
2.2001e-07
1.14075e-07
1.81839e-07
2.179e-07
2.12844e-07
1.12297e-07
1.97369e-07
2.35149e-07
2.32947e-07
1.11158e-07
2.27856e-07
2.61748e-07
2.33837e-07
1.09333e-07
2.71293e-07
3.11775e-07
3.42913e-07
1.09326e-07
3.47212e-07
3.90786e-07
4.21699e-07
1.10582e-07
4.51528e-07
4.73559e-07
6.71606e-07
1.10544e-07
6.70481e-07
6.82606e-07
1.04227e-06
1.05188e-07
8.08059e-07
9.15055e-07
1.86759e-06
1.01648e-07
1.25085e-06
1.28319e-06
2.78471e-06
1.02938e-07
1.5364e-06
1.54516e-06
3.34955e-06
1.08542e-07
2.22154e-06
2.35855e-06
6.35152e-06
1.18346e-07
2.55785e-06
2.56011e-06
6.73667e-06
1.32396e-07
3.73148e-06
3.64595e-06
1.08153e-05
1.56753e-07
4.16555e-06
4.3786e-06
1.20876e-05
1.87925e-07
5.3756e-06
5.38637e-06
1.4762e-05
2.34759e-07
6.51885e-06
6.53571e-06
1.74667e-05
3.00002e-07
7.63878e-06
7.6661e-06
1.95363e-05
3.93334e-07
9.24628e-06
9.21737e-06
2.14315e-05
4.93469e-07
1.03582e-05
1.0416e-05
2.35034e-05
6.91451e-07
1.23545e-05
1.22326e-05
2.49517e-05
8.2225e-07
1.33113e-05
1.37505e-05
2.65435e-05
1.15523e-06
1.57904e-05
1.56311e-05
2.8082e-05
1.35629e-06
1.69931e-05
1.67737e-05
2.89027e-05
1.89007e-06
1.91793e-05
1.95897e-05
3.10105e-05
2.13668e-06
2.09279e-05
2.05515e-05
3.14236e-05
2.87415e-06
2.19839e-05
2.28551e-05
3.27899e-05
3.30945e-06
2.52189e-05
2.42015e-05
3.43421e-05
4.19826e-06
2.59505e-05
2.66841e-05
3.53219e-05
4.87218e-06
2.81829e-05
2.74418e-05
3.5481e-05
5.98328e-06
2.87928e-05
2.98676e-05
3.77284e-05
6.65542e-06
3.19966e-05
3.12777e-05
3.86846e-05
8.33507e-06
3.27901e-05
3.26508e-05
3.91539e-05
9.24138e-06
3.34705e-05
3.4153e-05
3.95326e-05
1.02295e-05
3.62113e-05
3.54285e-05
4.21433e-05
1.26941e-05
3.64248e-05
3.73493e-05
4.21647e-05
1.31728e-05
3.84348e-05
3.77555e-05
4.28445e-05
1.50335e-05
3.87687e-05
3.94768e-05
4.39601e-05
1.68167e-05
4.08689e-05
4.05161e-05
4.51957e-05
1.85851e-05
4.14826e-05
4.07489e-05
4.53455e-05
1.90568e-05
4.16571e-05
4.33178e-05
4.64431e-05
2.17422e-05
4.44168e-05
4.34949e-05
4.72739e-05
2.33481e-05
4.43879e-05
4.34156e-05
4.79145e-05
2.35247e-05
4.42557e-05
4.54405e-05
4.82032e-05
2.60419e-05
4.63374e-05
4.68424e-05
4.93891e-05
2.75936e-05
4.77097e-05
4.69085e-05
4.96609e-05
2.89292e-05
4.77868e-05
4.78621e-05
5.0911e-05
2.99912e-05
4.76303e-05
4.80428e-05
5.05646e-05
3.01788e-05
4.94308e-05
4.9323e-05
5.1813e-05
3.25209e-05
5.03931e-05
5.00742e-05
5.2846e-05
3.37816e-05
5.05605e-05
5.0597e-05
5.10401e-05
3.48915e-05
5.1088e-05
5.10098e-05
5.51055e-05
3.53331e-05
5.22767e-05
5.2386e-05
5.54602e-05
3.64941e-05
5.20402e-05
5.22201e-05
5.1252e-05
3.73697e-05
5.18035e-05
5.18739e-05
5.28794e-05
3.79477e-05
5.35876e-05
5.33087e-05
5.704e-05
3.96384e-05
5.47372e-05
5.49593e-05
5.83273e-05
4.08835e-05
5.48529e-05
5.49541e-05
5.56548e-05
4.10413e-05
5.37711e-05
5.37258e-05
5.26597e-05
4.09662e-05
5.34984e-05
5.33839e-05
5.37446e-05
4.1499e-05
5.55619e-05
5.56253e-05
5.85144e-05
4.32182e-05
5.69084e-05
5.71491e-05
6.02648e-05
4.47818e-05
5.67426e-05
5.67786e-05
5.70779e-05
4.46066e-05
5.51501e-05
5.52983e-05
5.48708e-05
4.35966e-05
5.50228e-05
5.49557e-05
5.6461e-05
4.41368e-05
5.72344e-05
5.63888e-05
5.79021e-05
4.6371e-05
5.78045e-05
5.77816e-05
5.84797e-05
4.63125e-05
5.66644e-05
5.75585e-05
5.89192e-05
4.5288e-05
5.62653e-05
5.67433e-05
5.78576e-05
4.5556e-05
5.70961e-05
5.66482e-05
5.6574e-05
4.68667e-05
5.7219e-05
5.65089e-05
5.76518e-05
4.69523e-05
5.73275e-05
5.74009e-05
5.96787e-05
4.67915e-05
5.73221e-05
5.78794e-05
5.87721e-05
4.67435e-05
5.67173e-05
5.68921e-05
5.67294e-05
4.67242e-05
5.68945e-05
5.65349e-05
5.73233e-05
4.68001e-05
5.75194e-05
5.73407e-05
5.90618e-05
4.6402e-05
5.66537e-05
5.68371e-05
5.86552e-05
4.62372e-05
5.59162e-05
5.59359e-05
5.69728e-05
4.78261e-05
5.74879e-05
5.81047e-05
5.85171e-05
4.71101e-05
5.53301e-05
5.6169e-05
5.77073e-05
3.63664e-07
3.37664e-07
2.99366e-07
3.52878e-07
2.95485e-07
3.00453e-07
1.57484e-07
1.47676e-07
1.6336e-07
1.6901e-07
2.87345e-07
2.91956e-07
3.59888e-07
3.39935e-07
3.18939e-07
3.62487e-07
3.62627e-07
3.41921e-07
3.57049e-07
2.49389e-07
3.21978e-07
2.41159e-07
3.51959e-07
3.31045e-07
2.63672e-07
2.69435e-07
2.54162e-07
2.63592e-07
2.58679e-07
2.46512e-07
2.5025e-07
3.58846e-07
3.38997e-07
3.99304e-07
3.29202e-07
3.90154e-07
3.42519e-07
3.40571e-07
3.20814e-07
3.14874e-07
2.37899e-07
2.99968e-07
2.29219e-07
3.29904e-07
3.10434e-07
2.50837e-07
2.61382e-07
2.41206e-07
2.55236e-07
2.47426e-07
2.35601e-07
2.39312e-07
3.3768e-07
3.18844e-07
3.86441e-07
3.11118e-07
3.75816e-07
3.24903e-07
3.19608e-07
3.02217e-07
2.95489e-07
2.26665e-07
2.82529e-07
2.2004e-07
3.09465e-07
2.92758e-07
2.3814e-07
2.53275e-07
2.29719e-07
2.47447e-07
2.36731e-07
2.26312e-07
2.29353e-07
3.17707e-07
3.01851e-07
3.73963e-07
2.95728e-07
3.71781e-07
3.10796e-07
3.0114e-07
2.85775e-07
2.78428e-07
2.17965e-07
2.66429e-07
2.11254e-07
2.91931e-07
2.77355e-07
2.2711e-07
2.45541e-07
2.19759e-07
2.40132e-07
2.2704e-07
2.17835e-07
2.20184e-07
3.00831e-07
2.87048e-07
3.71141e-07
2.81673e-07
3.71208e-07
2.98454e-07
2.8482e-07
2.70895e-07
2.62626e-07
2.08916e-07
2.52117e-07
2.01892e-07
2.76606e-07
2.62614e-07
2.17475e-07
2.38427e-07
2.10895e-07
2.33408e-07
2.18008e-07
2.09336e-07
2.11589e-07
2.8609e-07
2.73565e-07
3.71261e-07
2.68247e-07
3.65663e-07
2.86477e-07
2.70069e-07
2.57355e-07
2.48875e-07
1.99541e-07
2.39435e-07
1.92986e-07
2.61842e-07
2.48085e-07
2.08775e-07
2.31839e-07
2.02875e-07
2.27297e-07
2.09537e-07
2.00523e-07
2.03456e-07
2.72704e-07
2.61618e-07
3.57385e-07
2.55874e-07
3.3007e-07
2.70074e-07
2.56671e-07
2.4521e-07
2.36375e-07
1.90841e-07
2.28168e-07
1.84327e-07
2.47429e-07
2.35454e-07
2.01005e-07
2.25842e-07
1.95522e-07
2.21231e-07
2.01448e-07
1.92725e-07
1.95656e-07
2.60938e-07
2.51155e-07
3.23927e-07
2.44952e-07
3.17828e-07
2.58947e-07
2.44678e-07
2.34369e-07
2.2566e-07
1.82182e-07
2.17967e-07
1.75844e-07
2.35012e-07
2.2519e-07
1.93717e-07
2.19686e-07
1.88382e-07
2.15354e-07
1.93854e-07
1.86468e-07
1.88433e-07
2.50618e-07
2.41758e-07
3.17931e-07
2.36186e-07
3.28892e-07
2.57839e-07
2.33964e-07
2.24446e-07
2.15375e-07
1.73888e-07
2.08994e-07
1.68798e-07
2.24954e-07
2.15859e-07
1.86745e-07
2.13942e-07
1.82227e-07
2.10713e-07
1.86763e-07
1.81569e-07
1.82357e-07
2.41273e-07
2.33056e-07
3.39888e-07
2.28654e-07
3.92466e-07
2.69678e-07
2.24111e-07
2.15145e-07
2.07214e-07
1.67319e-07
2.01002e-07
1.63354e-07
2.15693e-07
2.06613e-07
1.80729e-07
2.09751e-07
1.77032e-07
2.07235e-07
1.81208e-07
1.77151e-07
1.78124e-07
2.32624e-07
2.2535e-07
4.1681e-07
2.21989e-07
4.92971e-07
2.90407e-07
2.14905e-07
2.06782e-07
1.98823e-07
1.62145e-07
1.93274e-07
1.59299e-07
2.06507e-07
1.98496e-07
1.75795e-07
2.06488e-07
1.72772e-07
2.04172e-07
1.77318e-07
1.7347e-07
1.76076e-07
2.25016e-07
2.18745e-07
5.14503e-07
2.16071e-07
5.55393e-07
3.03756e-07
2.06652e-07
1.99553e-07
1.91623e-07
1.58607e-07
1.87475e-07
1.57479e-07
1.98532e-07
1.92095e-07
1.71905e-07
2.03723e-07
1.69924e-07
2.02325e-07
1.75671e-07
1.70933e-07
1.73055e-07
2.18547e-07
2.1297e-07
5.60552e-07
2.11119e-07
5.57592e-07
2.95018e-07
1.9959e-07
1.93647e-07
1.86416e-07
1.57267e-07
1.8256e-07
1.56189e-07
1.92271e-07
1.87075e-07
1.6949e-07
2.0224e-07
1.68853e-07
2.01819e-07
1.71759e-07
1.69849e-07
1.69179e-07
2.1295e-07
2.08683e-07
5.38044e-07
2.074e-07
4.42071e-07
2.31963e-07
1.93873e-07
1.89957e-07
1.81909e-07
1.55836e-07
1.82251e-07
1.56033e-07
1.87379e-07
1.8358e-07
1.68886e-07
2.01879e-07
1.69688e-07
2.03193e-07
1.68828e-07
1.70143e-07
1.69052e-07
2.08827e-07
2.06471e-07
4.1968e-07
2.06346e-07
3.76289e-07
2.2058e-07
1.9066e-07
1.90449e-07
1.8298e-07
1.56438e-07
1.8777e-07
1.59668e-07
1.84228e-07
1.83542e-07
1.70191e-07
2.04201e-07
1.73129e-07
2.09199e-07
1.6953e-07
1.72856e-07
1.71801e-07
2.07193e-07
2.07662e-07
3.67815e-07
2.08985e-07
3.44916e-07
2.19525e-07
1.9202e-07
1.96859e-07
1.90266e-07
1.61145e-07
2.00803e-07
1.67253e-07
1.85303e-07
1.8684e-07
1.745e-07
2.11277e-07
1.805e-07
2.21469e-07
1.72745e-07
1.78691e-07
1.79273e-07
2.0928e-07
2.14305e-07
3.35761e-07
2.15997e-07
2.97206e-07
2.12268e-07
2.00534e-07
2.12075e-07
2.05577e-07
1.71636e-07
2.23997e-07
1.84816e-07
1.90219e-07
2.02869e-07
1.83082e-07
2.25234e-07
1.93484e-07
2.42941e-07
1.804e-07
1.92905e-07
1.97422e-07
2.17622e-07
2.30763e-07
2.84101e-07
2.30412e-07
2.62478e-07
2.26652e-07
2.18699e-07
2.46751e-07
2.32569e-07
1.90052e-07
2.65043e-07
2.1328e-07
2.07103e-07
2.35243e-07
1.9897e-07
2.50112e-07
2.20954e-07
2.76242e-07
2.0324e-07
2.18863e-07
2.11102e-07
2.38938e-07
2.59939e-07
2.52245e-07
2.53856e-07
2.37134e-07
2.26194e-07
2.57894e-07
3.10636e-07
2.7641e-07
2.22639e-07
3.26269e-07
2.53761e-07
2.45277e-07
2.89098e-07
2.28042e-07
2.8758e-07
2.64736e-07
3.30358e-07
2.20144e-07
2.57399e-07
2.67114e-07
2.74504e-07
3.22562e-07
2.38589e-07
2.98131e-07
2.82846e-07
3.26988e-07
3.37168e-07
4.13354e-07
3.49489e-07
2.70091e-07
4.17168e-07
3.32757e-07
3.05667e-07
4.3054e-07
2.82133e-07
3.47814e-07
3.18426e-07
4.08049e-07
2.79548e-07
3.30405e-07
3.20789e-07
3.48891e-07
4.28282e-07
3.03076e-07
3.60638e-07
3.68023e-07
3.96599e-07
4.43241e-07
6.75037e-07
4.56725e-07
3.49875e-07
5.7163e-07
4.39644e-07
4.55865e-07
6.22989e-07
3.50711e-07
4.40562e-07
4.34453e-07
5.16499e-07
3.42524e-07
4.3376e-07
4.30962e-07
4.70189e-07
6.41619e-07
3.88749e-07
4.52585e-07
4.48386e-07
6.24166e-07
7.00921e-07
1.10593e-06
5.89475e-07
4.57746e-07
7.91774e-07
6.18725e-07
6.81122e-07
9.98871e-07
4.4789e-07
5.45276e-07
6.25445e-07
7.30628e-07
4.6921e-07
6.01978e-07
5.57674e-07
6.70192e-07
1.14762e-06
4.82288e-07
6.56361e-07
5.68264e-07
9.79111e-07
1.26442e-06
1.35105e-06
8.47616e-07
6.85424e-07
9.02811e-07
7.81006e-07
1.19358e-06
1.46092e-06
6.64621e-07
7.56581e-07
7.48625e-07
9.60913e-07
6.05429e-07
7.67531e-07
8.46369e-07
1.27792e-06
1.39095e-06
6.07682e-07
8.40497e-07
8.62548e-07
1.73433e-06
1.49297e-06
2.71983e-06
9.68671e-07
8.24454e-07
1.28849e-06
1.17194e-06
1.50243e-06
2.48015e-06
8.77386e-07
1.0405e-06
1.12348e-06
1.23423e-06
8.69634e-07
1.14804e-06
1.14019e-06
1.60873e-06
2.35479e-06
8.86448e-07
1.11656e-06
1.13734e-06
2.27997e-06
2.77114e-06
3.24916e-06
1.31241e-06
1.2649e-06
1.47321e-06
1.43583e-06
2.81783e-06
3.42277e-06
1.15198e-06
1.41332e-06
1.45852e-06
1.65758e-06
1.26641e-06
1.39895e-06
1.39047e-06
2.50958e-06
3.81907e-06
1.27675e-06
1.51424e-06
1.4039e-06
3.3187e-06
3.66422e-06
5.41662e-06
1.63114e-06
1.58719e-06
2.05177e-06
2.0819e-06
3.51667e-06
5.7199e-06
1.60431e-06
1.69832e-06
1.99003e-06
2.3375e-06
1.49649e-06
2.07316e-06
2.1378e-06
3.85454e-06
5.87986e-06
1.49325e-06
2.1749e-06
2.15319e-06
6.13091e-06
5.69981e-06
7.10699e-06
2.17251e-06
2.23761e-06
2.61928e-06
2.50824e-06
6.16858e-06
6.78939e-06
2.11835e-06
2.49273e-06
2.56917e-06
2.61273e-06
2.19789e-06
2.44555e-06
2.37556e-06
6.57687e-06
6.7309e-06
2.22609e-06
2.48146e-06
2.38518e-06
6.42003e-06
7.54649e-06
9.41029e-06
2.79887e-06
2.60822e-06
3.26195e-06
3.48209e-06
7.12248e-06
9.58408e-06
2.74674e-06
2.71689e-06
3.26906e-06
3.68456e-06
2.65697e-06
3.46333e-06
3.39726e-06
6.71816e-06
1.05231e-05
2.63032e-06
3.53187e-06
3.44991e-06
1.02071e-05
9.85368e-06
1.19435e-05
3.4585e-06
3.76206e-06
4.16872e-06
4.06675e-06
1.02802e-05
1.20262e-05
3.47206e-06
3.792e-06
4.16441e-06
4.15853e-06
3.4985e-06
4.01766e-06
4.2346e-06
1.11191e-05
1.13949e-05
3.53299e-06
4.0848e-06
4.21196e-06
1.15731e-05
1.24796e-05
1.43552e-05
4.39459e-06
4.22252e-06
5.08716e-06
5.13494e-06
1.2134e-05
1.43419e-05
4.38197e-06
4.47727e-06
5.06982e-06
5.30468e-06
4.50077e-06
5.13982e-06
4.93739e-06
1.16908e-05
1.48813e-05
4.50021e-06
5.14181e-06
4.98898e-06
1.45091e-05
1.48369e-05
1.67776e-05
5.35638e-06
5.35782e-06
6.22675e-06
6.36006e-06
1.52446e-05
1.67989e-05
5.34238e-06
5.53854e-06
6.2086e-06
6.18535e-06
5.19236e-06
6.22414e-06
6.28199e-06
1.52604e-05
1.66151e-05
5.21943e-06
6.17741e-06
6.24213e-06
1.66986e-05
1.72794e-05
1.90143e-05
6.49873e-06
6.60807e-06
7.39166e-06
7.30157e-06
1.70832e-05
1.90399e-05
6.48242e-06
6.50768e-06
7.39892e-06
7.48363e-06
6.61213e-06
7.26316e-06
7.49594e-06
1.72102e-05
1.90049e-05
6.63301e-06
7.46281e-06
7.53793e-06
1.92486e-05
1.94716e-05
2.11181e-05
7.71582e-06
7.70649e-06
8.7883e-06
8.94888e-06
1.95363e-05
2.11669e-05
7.71117e-06
7.72141e-06
8.74173e-06
8.86208e-06
7.71764e-06
8.93428e-06
8.6369e-06
1.94276e-05
2.11124e-05
7.66652e-06
8.75876e-06
8.64438e-06
2.08903e-05
2.15607e-05
2.28963e-05
9.15076e-06
9.28718e-06
1.01455e-05
1.00326e-05
2.16639e-05
2.29296e-05
9.09932e-06
9.31379e-06
1.01181e-05
1.01665e-05
9.13251e-06
9.94031e-06
1.02606e-05
2.15515e-05
2.28912e-05
9.19542e-06
1.0119e-05
1.0215e-05
2.31287e-05
2.32859e-05
2.46877e-05
1.04441e-05
1.04049e-05
1.18516e-05
1.20365e-05
2.32768e-05
2.47697e-05
1.04413e-05
1.04261e-05
1.17976e-05
1.18252e-05
1.05158e-05
1.19817e-05
1.18559e-05
2.32702e-05
2.46368e-05
1.04699e-05
1.1797e-05
1.1907e-05
2.45967e-05
2.50858e-05
2.60859e-05
1.22897e-05
1.24066e-05
1.31913e-05
1.30134e-05
2.51728e-05
2.59412e-05
1.21886e-05
1.22754e-05
1.31393e-05
1.33685e-05
1.23045e-05
1.29382e-05
1.30265e-05
2.50682e-05
2.62295e-05
1.23104e-05
1.3344e-05
1.29056e-05
2.60963e-05
2.64283e-05
2.77131e-05
1.35986e-05
1.34608e-05
1.52544e-05
1.5318e-05
2.62528e-05
2.77392e-05
1.35516e-05
1.38337e-05
1.52618e-05
1.50804e-05
1.34676e-05
1.53456e-05
1.55701e-05
2.65592e-05
2.76191e-05
1.3393e-05
1.51073e-05
1.56698e-05
2.78525e-05
2.80434e-05
2.87731e-05
1.56769e-05
1.56959e-05
1.6569e-05
1.66876e-05
2.81289e-05
2.88292e-05
1.56283e-05
1.55042e-05
1.64932e-05
1.66706e-05
1.60384e-05
1.65142e-05
1.64604e-05
2.79328e-05
2.87619e-05
1.61457e-05
1.65427e-05
1.65482e-05
2.85335e-05
2.90689e-05
3.03777e-05
1.6995e-05
1.71985e-05
1.88537e-05
1.86267e-05
2.91043e-05
3.03497e-05
1.69515e-05
1.69478e-05
1.88406e-05
1.87367e-05
1.66052e-05
1.86791e-05
1.88525e-05
2.90533e-05
3.03285e-05
1.66828e-05
1.88281e-05
1.89488e-05
3.06876e-05
3.06825e-05
3.12376e-05
1.93991e-05
1.90944e-05
2.02087e-05
2.0749e-05
3.06832e-05
3.13825e-05
1.93123e-05
1.95042e-05
2.01293e-05
2.05483e-05
1.97438e-05
2.06368e-05
2.0829e-05
3.07435e-05
3.13887e-05
1.9852e-05
2.0477e-05
2.09178e-05
3.1306e-05
3.14697e-05
3.26289e-05
2.04638e-05
2.11078e-05
2.23754e-05
2.15606e-05
3.15781e-05
3.21832e-05
2.04546e-05
2.0633e-05
2.22796e-05
2.19728e-05
2.08794e-05
2.14549e-05
2.15527e-05
3.15209e-05
3.24133e-05
2.09605e-05
2.20066e-05
2.13888e-05
3.22949e-05
3.29846e-05
3.36893e-05
2.29246e-05
2.19077e-05
2.39401e-05
2.44925e-05
3.24953e-05
3.41032e-05
2.28993e-05
2.28293e-05
2.3876e-05
2.4105e-05
2.25358e-05
2.45862e-05
2.4212e-05
3.28892e-05
3.38046e-05
2.23621e-05
2.39548e-05
2.45107e-05
3.41231e-05
3.39003e-05
3.48731e-05
2.44601e-05
2.52397e-05
2.58402e-05
2.60615e-05
3.44402e-05
3.49002e-05
2.4234e-05
2.43292e-05
2.59393e-05
2.59622e-05
2.4778e-05
2.58316e-05
2.66238e-05
3.39566e-05
3.48797e-05
2.48798e-05
2.61144e-05
2.6508e-05
3.51656e-05
3.51533e-05
3.58464e-05
2.61986e-05
2.61523e-05
2.7516e-05
2.76452e-05
3.50446e-05
3.59289e-05
2.63957e-05
2.65102e-05
2.72394e-05
2.73314e-05
2.68983e-05
2.77026e-05
2.70342e-05
3.52505e-05
3.58188e-05
2.68845e-05
2.72543e-05
2.71477e-05
3.5361e-05
3.60958e-05
3.71016e-05
2.8016e-05
2.81792e-05
2.92996e-05
2.86581e-05
3.61845e-05
3.65212e-05
2.77089e-05
2.76742e-05
2.94208e-05
2.94572e-05
2.708e-05
2.8606e-05
2.92441e-05
3.5961e-05
3.7123e-05
2.7184e-05
2.93587e-05
2.87596e-05
3.71974e-05
3.72959e-05
3.7858e-05
2.95525e-05
2.88274e-05
3.0598e-05
3.11907e-05
3.67418e-05
3.86402e-05
2.97908e-05
2.98741e-05
3.04067e-05
3.06151e-05
3.01357e-05
3.12445e-05
3.09851e-05
3.74657e-05
3.80196e-05
2.9963e-05
3.07852e-05
3.19822e-05
3.85632e-05
3.814e-05
3.94137e-05
3.11824e-05
3.19662e-05
3.26898e-05
3.28026e-05
3.898e-05
3.9103e-05
3.08277e-05
3.11299e-05
3.27841e-05
3.25984e-05
3.12253e-05
3.27775e-05
3.26877e-05
3.81974e-05
3.92472e-05
3.22331e-05
3.24745e-05
3.24189e-05
3.90745e-05
3.96063e-05
3.98518e-05
3.29487e-05
3.28213e-05
3.3625e-05
3.30334e-05
3.9123e-05
3.96987e-05
3.32205e-05
3.27909e-05
3.35764e-05
3.37465e-05
3.2864e-05
3.29642e-05
3.30094e-05
3.94364e-05
3.99232e-05
3.24007e-05
3.36925e-05
3.25361e-05
3.92485e-05
3.997e-05
4.10909e-05
3.38922e-05
3.35933e-05
3.51436e-05
3.59171e-05
4.01411e-05
4.1679e-05
3.36547e-05
3.42432e-05
3.50381e-05
3.51245e-05
3.32276e-05
3.59332e-05
3.58819e-05
4.01671e-05
4.11569e-05
3.30493e-05
3.50823e-05
3.59054e-05
4.18406e-05
4.14651e-05
4.23555e-05
3.57264e-05
3.61515e-05
3.69199e-05
3.63007e-05
4.17603e-05
4.16646e-05
3.5777e-05
3.53727e-05
3.70742e-05
3.69099e-05
3.64451e-05
3.63637e-05
3.68229e-05
4.13417e-05
4.22736e-05
3.64906e-05
3.69587e-05
3.69636e-05
4.21603e-05
4.2413e-05
4.23464e-05
3.70303e-05
3.64066e-05
3.72872e-05
3.80737e-05
4.18001e-05
4.32554e-05
3.71545e-05
3.73963e-05
3.72123e-05
3.78838e-05
3.68175e-05
3.79888e-05
3.72671e-05
4.25464e-05
4.28984e-05
3.69612e-05
3.77137e-05
3.72939e-05
4.25169e-05
4.2535e-05
4.41279e-05
3.77224e-05
3.84034e-05
3.90817e-05
3.86056e-05
4.34398e-05
4.34389e-05
3.73933e-05
3.79119e-05
3.91561e-05
3.87107e-05
3.77387e-05
3.87265e-05
3.87675e-05
4.29424e-05
4.37241e-05
3.76982e-05
3.88132e-05
3.86945e-05
4.36993e-05
4.43034e-05
4.47449e-05
3.92048e-05
3.867e-05
4.0201e-05
4.02227e-05
4.34899e-05
4.49438e-05
3.93762e-05
3.93953e-05
4.02678e-05
4.04458e-05
3.9277e-05
4.01847e-05
4.06357e-05
4.41241e-05
4.48576e-05
3.92322e-05
4.04769e-05
4.05192e-05
4.51069e-05
4.49912e-05
4.54423e-05
4.07268e-05
4.08822e-05
4.14823e-05
4.15774e-05
4.5334e-05
4.55789e-05
4.06296e-05
4.05046e-05
4.1002e-05
4.06141e-05
4.08028e-05
4.14993e-05
4.10453e-05
4.48816e-05
4.48421e-05
4.06387e-05
4.05536e-05
4.08312e-05
4.51785e-05
4.54573e-05
4.59601e-05
4.1499e-05
4.15647e-05
4.16837e-05
4.15052e-05
4.55584e-05
4.54206e-05
4.10265e-05
4.08609e-05
4.19621e-05
4.30713e-05
4.13684e-05
4.14494e-05
4.2062e-05
4.51164e-05
4.72053e-05
4.11821e-05
4.29204e-05
4.24618e-05
4.6369e-05
4.64229e-05
4.75124e-05
4.21588e-05
4.1658e-05
4.34916e-05
4.39613e-05
4.57581e-05
4.80696e-05
4.27382e-05
4.35627e-05
4.39465e-05
4.38692e-05
4.21499e-05
4.40296e-05
4.33e-05
4.74641e-05
4.73072e-05
4.25572e-05
4.35342e-05
4.30097e-05
4.69213e-05
4.75659e-05
4.75123e-05
4.38304e-05
4.44345e-05
4.44358e-05
4.46855e-05
4.82692e-05
4.77956e-05
4.40085e-05
4.37883e-05
4.39186e-05
4.30521e-05
4.38708e-05
4.45416e-05
4.45711e-05
4.7246e-05
4.63897e-05
4.3561e-05
4.33934e-05
4.44192e-05
4.79107e-05
4.75373e-05
4.76867e-05
4.44499e-05
4.459e-05
4.44002e-05
4.4091e-05
4.77144e-05
4.71881e-05
4.38544e-05
4.3006e-05
4.39848e-05
4.38746e-05
4.45673e-05
4.41705e-05
4.45368e-05
4.64083e-05
4.81761e-05
4.44368e-05
4.4732e-05
4.4497e-05
4.78987e-05
4.79485e-05
4.96189e-05
4.44557e-05
4.40902e-05
4.60859e-05
4.54008e-05
4.73628e-05
4.9152e-05
4.45203e-05
4.50446e-05
4.6627e-05
4.7167e-05
4.46958e-05
4.58779e-05
4.6199e-05
4.88052e-05
5.01243e-05
4.47894e-05
4.6734e-05
4.62758e-05
4.9354e-05
4.97738e-05
4.97946e-05
4.64932e-05
4.63015e-05
4.68991e-05
4.78999e-05
4.95502e-05
5.07281e-05
4.69277e-05
4.74036e-05
4.71469e-05
4.7562e-05
4.63714e-05
4.74629e-05
4.65619e-05
5.01575e-05
4.99715e-05
4.64082e-05
4.68847e-05
4.65216e-05
4.94226e-05
4.98822e-05
5.08033e-05
4.7158e-05
4.80596e-05
4.82102e-05
4.80121e-05
5.08452e-05
5.0378e-05
4.71919e-05
4.75629e-05
4.78971e-05
4.75362e-05
4.67985e-05
4.78512e-05
4.81229e-05
5.00201e-05
5.02972e-05
4.66652e-05
4.76749e-05
4.80711e-05
5.08616e-05
5.08558e-05
5.03759e-05
4.82686e-05
4.77943e-05
4.80606e-05
4.7485e-05
5.02947e-05
4.98441e-05
4.80395e-05
4.74914e-05
4.80031e-05
4.74639e-05
4.82435e-05
4.76008e-05
4.81807e-05
5.03114e-05
5.02319e-05
4.82629e-05
4.7987e-05
4.82627e-05
5.0555e-05
5.03819e-05
5.12469e-05
4.80025e-05
4.75093e-05
4.83272e-05
4.88253e-05
5.00247e-05
5.169e-05
4.79833e-05
4.75959e-05
4.84666e-05
4.91177e-05
4.81513e-05
4.89103e-05
4.85703e-05
5.04128e-05
5.16819e-05
4.82232e-05
4.8988e-05
4.85206e-05
5.1395e-05
5.15996e-05
5.22572e-05
4.89671e-05
4.93715e-05
5.004e-05
5.01464e-05
5.19677e-05
5.24128e-05
4.90904e-05
4.94425e-05
5.00367e-05
4.98876e-05
4.9321e-05
5.03002e-05
5.04281e-05
5.18495e-05
5.21017e-05
4.92119e-05
4.98889e-05
5.03949e-05
5.2843e-05
5.23164e-05
5.30368e-05
5.01457e-05
5.02895e-05
5.08045e-05
5.08219e-05
5.2489e-05
5.28902e-05
5.0118e-05
5.00943e-05
5.0742e-05
5.08141e-05
5.04249e-05
5.05434e-05
4.96761e-05
5.22354e-05
5.29023e-05
5.03944e-05
5.0553e-05
4.96766e-05
5.10843e-05
5.32305e-05
5.32375e-05
5.10644e-05
5.09434e-05
5.13223e-05
5.10155e-05
5.29561e-05
5.29241e-05
5.10071e-05
5.09127e-05
5.12968e-05
5.09435e-05
4.96125e-05
5.07878e-05
5.11917e-05
5.29471e-05
5.28105e-05
4.96182e-05
5.07538e-05
5.12009e-05
5.42738e-05
5.32188e-05
5.31466e-05
5.13166e-05
5.10333e-05
5.13147e-05
5.15575e-05
5.29621e-05
5.38136e-05
5.12956e-05
5.09671e-05
5.13187e-05
5.17876e-05
5.24656e-05
5.21336e-05
5.34762e-05
5.28581e-05
5.40672e-05
5.24344e-05
5.22319e-05
5.33975e-05
5.59892e-05
5.33101e-05
5.42989e-05
5.13804e-05
5.19425e-05
5.23441e-05
5.23463e-05
5.40307e-05
5.40142e-05
5.14154e-05
5.21732e-05
5.24333e-05
5.24853e-05
5.33068e-05
5.22302e-05
5.07724e-05
5.42615e-05
5.4133e-05
5.32271e-05
5.23683e-05
5.08612e-05
5.14648e-05
5.43448e-05
5.38836e-05
5.24731e-05
5.23224e-05
5.24262e-05
5.20936e-05
5.39548e-05
5.35083e-05
5.25313e-05
5.24497e-05
5.24252e-05
5.20824e-05
5.0312e-05
5.17754e-05
5.02672e-05
5.40745e-05
5.35028e-05
5.0449e-05
5.18802e-05
5.0414e-05
5.21818e-05
5.38742e-05
5.46146e-05
5.23975e-05
5.21032e-05
5.26738e-05
5.30115e-05
5.35817e-05
5.50517e-05
5.23744e-05
5.20673e-05
5.25845e-05
5.26339e-05
5.08195e-05
5.30862e-05
5.41857e-05
5.3517e-05
5.47026e-05
5.09089e-05
5.26523e-05
5.40089e-05
5.65304e-05
5.50383e-05
5.60587e-05
5.32399e-05
5.35001e-05
5.43787e-05
5.43138e-05
5.53588e-05
5.59436e-05
5.31095e-05
5.32877e-05
5.438e-05
5.45218e-05
5.50026e-05
5.4557e-05
5.62407e-05
5.51328e-05
5.62541e-05
5.48388e-05
5.47349e-05
5.62926e-05
5.83137e-05
5.60797e-05
5.57599e-05
5.44828e-05
5.44335e-05
5.45047e-05
5.45879e-05
5.59935e-05
5.60439e-05
5.45128e-05
5.46634e-05
5.45596e-05
5.47169e-05
5.62819e-05
5.48879e-05
5.53551e-05
5.63111e-05
5.6059e-05
5.63751e-05
5.50575e-05
5.56405e-05
5.6152e-05
5.57455e-05
5.55228e-05
5.44493e-05
5.45894e-05
5.42538e-05
5.43822e-05
5.60519e-05
5.55175e-05
5.45157e-05
5.46667e-05
5.42508e-05
5.43382e-05
5.4456e-05
5.40569e-05
5.23083e-05
5.60292e-05
5.54869e-05
5.4638e-05
5.40071e-05
5.21666e-05
5.28514e-05
5.55261e-05
5.56129e-05
5.42351e-05
5.4217e-05
5.43466e-05
5.39271e-05
5.54199e-05
5.49323e-05
5.42002e-05
5.41952e-05
5.41796e-05
5.38381e-05
5.19481e-05
5.34545e-05
5.1892e-05
5.54367e-05
5.48875e-05
5.17462e-05
5.33545e-05
5.16465e-05
5.31097e-05
5.56889e-05
5.60593e-05
5.43896e-05
5.39249e-05
5.45262e-05
5.45672e-05
5.49853e-05
5.639e-05
5.42319e-05
5.38253e-05
5.46387e-05
5.4586e-05
5.23945e-05
5.49809e-05
5.58488e-05
5.49009e-05
5.64134e-05
5.21495e-05
5.49433e-05
5.58887e-05
5.78877e-05
5.61851e-05
5.70506e-05
5.47044e-05
5.5033e-05
5.57645e-05
5.63204e-05
5.67288e-05
5.78009e-05
5.48815e-05
5.51931e-05
5.58252e-05
5.65002e-05
5.68254e-05
5.67398e-05
5.83224e-05
5.68172e-05
5.80434e-05
5.69384e-05
5.69811e-05
5.85845e-05
6.02531e-05
5.72986e-05
5.83251e-05
5.62136e-05
5.66132e-05
5.707e-05
5.68805e-05
5.79266e-05
5.79904e-05
5.61911e-05
5.66937e-05
5.69548e-05
5.67565e-05
5.8359e-05
5.69333e-05
5.70752e-05
5.81228e-05
5.77779e-05
5.86372e-05
5.70995e-05
5.73968e-05
5.76281e-05
5.83765e-05
5.72626e-05
5.71029e-05
5.68496e-05
5.64891e-05
5.5881e-05
5.79065e-05
5.65005e-05
5.69977e-05
5.66433e-05
5.6558e-05
5.59399e-05
5.61109e-05
5.54646e-05
5.44065e-05
5.7657e-05
5.66769e-05
5.6343e-05
5.55708e-05
5.43267e-05
5.49024e-05
5.69466e-05
5.56223e-05
5.58862e-05
5.54888e-05
5.49124e-05
5.50141e-05
5.63163e-05
5.58555e-05
5.60107e-05
5.57512e-05
5.50158e-05
5.53595e-05
5.42787e-05
5.49119e-05
5.46752e-05
5.66175e-05
5.62147e-05
5.41238e-05
5.49488e-05
5.43191e-05
5.60508e-05
5.56239e-05
5.73998e-05
5.48892e-05
5.50336e-05
5.59174e-05
5.63278e-05
5.60072e-05
5.7979e-05
5.49687e-05
5.53227e-05
5.56707e-05
5.56142e-05
5.52966e-05
5.67431e-05
5.66463e-05
5.62168e-05
5.70394e-05
5.4884e-05
5.58633e-05
5.63522e-05
5.77533e-05
5.78948e-05
5.9392e-05
5.67494e-05
5.695e-05
5.8082e-05
5.79153e-05
5.8309e-05
5.90657e-05
5.64613e-05
5.614e-05
5.78849e-05
5.74526e-05
5.69192e-05
5.78111e-05
5.74223e-05
5.73775e-05
5.87297e-05
5.66738e-05
5.76146e-05
5.7397e-05
5.83639e-05
5.94134e-05
5.79183e-05
5.81285e-05
5.79447e-05
5.73875e-05
5.73377e-05
5.90675e-05
5.777e-05
5.79718e-05
5.76435e-05
5.75449e-05
5.76604e-05
5.7528e-05
5.70229e-05
5.76298e-05
5.88258e-05
5.84596e-05
5.76082e-05
5.777e-05
5.79312e-05
5.88976e-05
5.76088e-05
5.65854e-05
5.67421e-05
5.67871e-05
5.57521e-05
5.59465e-05
5.75442e-05
5.68514e-05
5.70102e-05
5.74763e-05
5.60874e-05
5.67903e-05
5.7617e-05
5.62523e-05
5.70787e-05
5.83246e-05
5.76755e-05
5.79302e-05
5.68344e-05
5.72683e-05
5.80489e-05
5.6606e-05
5.78332e-05
5.57275e-05
5.59309e-05
5.64709e-05
5.66442e-05
5.69011e-05
5.80974e-05
5.60457e-05
5.67215e-05
5.64618e-05
5.67415e-05
5.67892e-05
5.6907e-05
5.6102e-05
5.76833e-05
5.78781e-05
5.68285e-05
5.66688e-05
5.58758e-05
5.66289e-05
5.81004e-05
5.8699e-05
5.70026e-05
5.70836e-05
5.7796e-05
5.76262e-05
5.82754e-05
5.84303e-05
5.6868e-05
5.67835e-05
5.74686e-05
5.67468e-05
5.60221e-05
5.72271e-05
5.62115e-05
5.78931e-05
5.75042e-05
5.57684e-05
5.65089e-05
5.59759e-05
5.72536e-05
5.87102e-05
5.83488e-05
5.7832e-05
5.76348e-05
5.76269e-05
5.74384e-05
5.84131e-05
5.8242e-05
5.74887e-05
5.67103e-05
5.73221e-05
5.67625e-05
5.66966e-05
5.72516e-05
5.80488e-05
5.74821e-05
5.78562e-05
5.65501e-05
5.70468e-05
5.82032e-05
5.95307e-05
5.83216e-05
5.81112e-05
5.74533e-05
5.73622e-05
5.7129e-05
5.71636e-05
5.82555e-05
5.82265e-05
5.72403e-05
5.69477e-05
5.7184e-05
5.75814e-05
5.82267e-05
5.73693e-05
5.81356e-05
5.80781e-05
5.88193e-05
5.84361e-05
5.78807e-05
5.83927e-05
5.90953e-05
5.81129e-05
5.80228e-05
5.70636e-05
5.7065e-05
5.68754e-05
5.67402e-05
5.8197e-05
5.76909e-05
5.72045e-05
5.76472e-05
5.72348e-05
5.75683e-05
5.77254e-05
5.67958e-05
5.62724e-05
5.88522e-05
5.82534e-05
5.80039e-05
5.72204e-05
5.62437e-05
5.68265e-05
5.80274e-05
5.80257e-05
5.68434e-05
5.66972e-05
5.68573e-05
5.67547e-05
5.76855e-05
5.79095e-05
5.72262e-05
5.73627e-05
5.70445e-05
5.68988e-05
5.60851e-05
5.67377e-05
5.60962e-05
5.81335e-05
5.7692e-05
5.59544e-05
5.65201e-05
5.58312e-05
5.70375e-05
5.80587e-05
5.81497e-05
5.69532e-05
5.69506e-05
5.71583e-05
5.74993e-05
5.80494e-05
5.86784e-05
5.69998e-05
5.68873e-05
5.69457e-05
5.7018e-05
5.63727e-05
5.7476e-05
5.7594e-05
5.7721e-05
5.83294e-05
5.60018e-05
5.71853e-05
5.75467e-05
5.88897e-05
5.81543e-05
5.71872e-05
5.71586e-05
5.75352e-05
5.65845e-05
5.70931e-05
5.87245e-05
5.78751e-05
5.691e-05
5.70344e-05
5.62201e-05
5.66082e-05
5.77856e-05
5.71748e-05
5.77423e-05
5.83925e-05
5.77005e-05
5.78645e-05
5.72364e-05
5.79655e-05
5.89173e-05
5.70135e-05
5.67321e-05
5.62239e-05
5.65493e-05
5.59184e-05
5.58568e-05
5.75974e-05
5.66482e-05
5.59522e-05
5.61579e-05
5.57735e-05
5.56647e-05
5.73945e-05
5.58938e-05
5.61215e-05
5.74384e-05
5.64668e-05
5.77288e-05
5.59222e-05
5.61997e-05
5.6998e-05
5.70291e-05
5.99157e-05
5.60452e-05
5.58945e-05
5.79047e-05
5.72631e-05
5.66982e-05
5.89215e-05
5.59805e-05
5.57551e-05
5.83683e-05
5.82085e-05
5.60726e-05
5.71905e-05
5.67754e-05
5.65245e-05
5.9733e-05
5.60996e-05
5.75362e-05
5.665e-05
5.82196e-05
6.01366e-05
5.83648e-05
5.81608e-05
5.75065e-05
5.73716e-05
5.68042e-05
5.9114e-05
5.75944e-05
5.87183e-05
5.87752e-05
5.79754e-05
5.84332e-05
5.7198e-05
5.701e-05
5.72237e-05
6.01494e-05
5.93558e-05
5.71146e-05
5.80261e-05
5.72296e-05
5.83663e-05
5.73974e-05
5.54786e-05
5.51434e-05
5.68788e-05
5.58697e-05
5.6357e-05
4.66002e-05
4.74015e-05
4.67422e-05
5.56762e-05
5.82487e-05
5.56914e-05
2.99357e-08
2.31141e-07
4.04301e-08
4.27192e-08
2.78609e-07
2.7678e-07
1.23906e-07
1.14191e-07
2.73466e-07
3.42666e-07
1.25714e-07
4.75611e-07
3.69593e-07
2.18439e-07
2.65543e-07
3.00777e-07
1.11275e-05
2.63002e-07
1.35051e-05
1.31289e-05
2.04799e-05
3.59837e-07
4.8746e-06
3.18343e-07
6.5049e-06
1.50469e-07
1.66625e-07
1.72219e-07
1.60542e-07
1.50428e-07
1.66587e-07
1.72752e-07
2.68839e-07
5.08984e-07
2.18889e-07
2.52282e-07
2.74787e-07
4.99217e-07
2.18305e-07
1.51409e-05
2.1103e-05
2.56175e-07
2.44155e-07
7.21949e-07
3.39669e-07
2.63018e-07
2.43039e-07
6.89987e-07
1.8473e-06
1.88822e-06
3.52754e-07
1.82043e-06
1.86266e-06
4.81763e-07
1.99623e-05
3.96115e-07
1.95267e-05
3.54741e-05
4.52693e-05
5.51988e-07
9.54692e-06
4.60674e-07
1.22057e-05
1.49466e-07
1.65585e-07
1.71902e-07
1.57378e-07
1.46471e-07
1.62456e-07