/*--------------------------------*- C++ -*----------------------------------*\
| =========                 |                                                 |
| \\      /  F ield         | OpenFOAM: The Open Source CFD Toolbox           |
|  \\    /   O peration     | Version:  v2012                                 |
|   \\  /    A nd           | Website:  www.openfoam.com                      |
|    \\/     M anipulation  |                                                 |
\*---------------------------------------------------------------------------*/
FoamFile
{
    version     2.0;
    format      ascii;
    class       volScalarField;
    location    "1650";
    object      p;
}
// * * * * * * * * * * * * * * * * * * * * * * * * * * * * * * * * * * * * * //

dimensions      [0 2 -2 0 0 0 0];


internalField   nonuniform List<scalar> 
171728
(
0.00352017
0.00351895
0.00351899
0.00351972
0.00348413
0.00348296
0.00348299
0.0034859
0.00344592
0.00344405
0.00344409
0.00344644
0.0034019
0.00340022
0.00340023
0.00340247
0.00335389
0.00335245
0.00335245
0.00335474
0.00330505
0.00330376
0.00330373
0.00330611
0.00325678
0.0032556
0.00325558
0.00325796
0.00320946
0.00320839
0.00320839
0.00321077
0.00316312
0.00316221
0.00316219
0.0031646
0.00311778
0.00311699
0.003117
0.00311939
0.00307334
0.00307266
0.00307267
0.00307507
0.00302968
0.00302915
0.00302911
0.00303147
0.00298657
0.00298615
0.00298619
0.00298836
0.00294387
0.00294334
0.00294346
0.00294573
0.00290152
0.00290114
0.00290129
0.00290375
0.00285945
0.00285939
0.00285911
0.00286153
0.00281775
0.00281779
0.00281743
0.00281972
0.0027764
0.00277623
0.0027763
0.00277823
0.00273538
0.00273538
0.0027354
0.00273771
0.00269473
0.00269477
0.00269479
0.00269665
0.00265443
0.00265434
0.00265456
0.00265633
0.00261437
0.00261445
0.00261448
0.00261614
0.00257466
0.00257504
0.00257495
0.00257644
0.00253522
0.00253551
0.00253565
0.00253701
0.00249597
0.00249641
0.00249645
0.00249836
0.00245702
0.00245751
0.00245734
0.00245891
0.00241827
0.00241866
0.00241871
0.00242027
0.0023797
0.00238028
0.00238032
0.00238204
0.00234141
0.00234196
0.00234187
0.00234383
0.00230322
0.00230389
0.00230387
0.00230579
0.00226525
0.00226586
0.00226592
0.00226762
0.00222741
0.00222809
0.00222809
0.0022301
0.00218976
0.00219047
0.00219041
0.00219219
0.00215222
0.00215287
0.00215292
0.00215478
0.00211483
0.00211554
0.00211548
0.00211732
0.00207755
0.00207811
0.00207819
0.00208002
0.00204049
0.00204111
0.00204105
0.00204297
0.00200342
0.00200392
0.00200392
0.00200574
0.00196668
0.00196711
0.00196717
0.00196937
0.00192988
0.00193026
0.00193019
0.00193191
0.00189321
0.00189345
0.00189354
0.00189567
0.00185688
0.00185724
0.00185707
0.00185904
0.00182057
0.00182057
0.00182078
0.00182276
0.00178421
0.00178442
0.0017842
0.00178627
0.00174818
0.00174802
0.00174825
0.00175052
0.00171221
0.00171255
0.00171224
0.00171413
0.00167652
0.00167599
0.00167635
0.00167839
0.00164053
0.0016406
0.00164043
0.00164257
0.00160483
0.00160497
0.00160485
0.00160715
0.00156986
0.00156915
0.00156946
0.00157116
0.00153385
0.00153412
0.0015337
0.001536
0.00149883
0.00149822
0.00149857
0.00150057
0.00146344
0.00146349
0.00146325
0.00146531
0.00142857
0.00142799
0.00142805
0.00143005
0.00139318
0.00139299
0.00139343
0.00139521
0.00135867
0.00135857
0.0013579
0.00136012
0.00132343
0.00132287
0.00132306
0.00132516
0.00128826
0.00128813
0.00128851
0.00129009
0.00125384
0.00125381
0.00125364
0.00125571
0.00121945
0.00121918
0.00121873
0.00122076
0.00118488
0.00118431
0.00118472
0.0011867
0.00114961
0.00114945
0.00114954
0.00115126
0.00111488
0.00111516
0.00111493
0.0011169
0.00108086
0.00108029
0.00108028
0.00108239
0.00104632
0.00104589
0.00104601
0.00104739
0.00101178
0.00101172
0.0010117
0.00101399
0.000977182
0.000977445
0.00097742
0.000979385
0.000942725
0.000941947
0.00094198
0.000943081
0.000907563
0.000907538
0.000907541
0.000909827
0.000873442
0.00087386
0.000873707
0.000876056
0.000839884
0.00083939
0.000839617
0.000841261
0.000804948
0.000804582
0.000804502
0.000806135
0.000769839
0.000769626
0.000769555
0.000771449
0.000735091
0.000735247
0.000735248
0.000737552
0.000700828
0.000701258
0.000701272
0.000703482
0.000666761
0.000666472
0.000666475
0.000668217
0.00063277
0.000632034
0.000631919
0.000633476
0.000597022
0.000596908
0.000596943
0.000598917
0.000561353
0.00056202
0.000562061
0.000564507
0.000527659
0.000527869
0.000527617
0.000529646
0.000493471
0.000492598
0.000492845
0.000494359
0.000457581
0.000457409
0.000457569
0.000459577
0.000422428
0.000422806
0.000422625
0.000424774
0.000388115
0.000388146
0.000387949
0.000389799
0.000352976
0.000352612
0.000352663
0.000354719
0.000317356
0.000317412
0.000317605
0.00031967
0.000282383
0.000282337
0.000282388
0.00028421
0.000247116
0.00024686
0.000246768
0.000248634
0.000211615
0.00021176
0.00021162
0.000213811
0.000176376
0.000176453
0.000176582
0.000178595
0.000140556
0.0001405
0.000140571
0.000142565
0.000104635
0.000104512
0.000104361
0.00010637
7.04988e-05
7.0285e-05
7.02848e-05
7.19667e-05
3.47133e-05
3.41828e-05
3.44201e-05
3.63883e-05
4.72762e-06
5.98559e-06
5.48886e-06
4.09492e-06
0.00352468
0.00352221
0.00352197
0.00352442
0.00352209
0.00352201
0.00352857
0.00352843
0.00352843
0.00352839
0.00352193
0.00352197
0.00352441
0.00352204
0.00352215
0.00352449
0.00351957
0.0034903
0.0035192
0.00351904
0.00349307
0.0034925
0.00351969
0.00349069
0.00351906
0.00351902
0.00349256
0.00349256
0.00351893
0.00349259
0.0034926
0.00351973
0.00349063
0.00351903
0.00349255
0.00349248
0.00349066
0.00348561
0.00345187
0.00348365
0.00348305
0.00345403
0.00345412
0.00348589
0.00345191
0.00348301
0.00348303
0.00345416
0.00345425
0.00348302
0.00345421
0.00345424
0.00348587
0.00345194
0.00348309
0.00345423
0.00345423
0.00345196
0.00344634
0.00340861
0.00344405
0.00344404
0.00341158
0.00341164
0.00344637
0.00340862
0.003444
0.00344406
0.00341169
0.00341171
0.00344408
0.00341169
0.0034117
0.0034464
0.00340863
0.00344422
0.00341167
0.00341167
0.00340864
0.00340243
0.00336119
0.00340018
0.00340021
0.00336456
0.00336454
0.00340245
0.00336119
0.00340017
0.00340016
0.00336458
0.00336456
0.00340021
0.00336454
0.00336456
0.00340246
0.0033612
0.00340024
0.00336452
0.00336464
0.00336118
0.00335473
0.00331255
0.00335239
0.0033524
0.00331589
0.0033159
0.00335473
0.00331254
0.00335239
0.0033524
0.00331586
0.0033159
0.00335244
0.00331588
0.00331587
0.00335475
0.00331254
0.00335246
0.00331588
0.0033159
0.00331255
0.0033061
0.00326428
0.00330374
0.00330373
0.00326753
0.00326754
0.00330609
0.00326427
0.00330377
0.00330375
0.00326751
0.00326753
0.00330379
0.00326756
0.0032676
0.0033061
0.00326429
0.00330369
0.00326755
0.00326744
0.00326428
0.00325796
0.00321696
0.00325563
0.0032556
0.0032201
0.0032201
0.00325794
0.00321694
0.00325563
0.00325561
0.0032201
0.00322012
0.0032556
0.00322012
0.00322014
0.00325796
0.00321695
0.00325564
0.0032201
0.00322001
0.00321695
0.00321077
0.00317061
0.00320842
0.00320838
0.00317366
0.00317367
0.00321074
0.00317062
0.00320841
0.0032084
0.00317366
0.00317367
0.00320843
0.00317367
0.00317365
0.00321077
0.00317063
0.0032084
0.00317366
0.00317368
0.00317064
0.00316457
0.00312528
0.0031622
0.00316219
0.00312822
0.00312819
0.00316457
0.00312527
0.0031622
0.0031622
0.00312822
0.00312821
0.00316223
0.0031282
0.0031282
0.00316459
0.00312529
0.00316221
0.00312819
0.00312828
0.00312528
0.00311937
0.00308082
0.003117
0.003117
0.00308366
0.00308368
0.00311936
0.00308085
0.003117
0.00311701
0.00308367
0.0030837
0.003117
0.0030837
0.00308368
0.00311939
0.00308083
0.00311701
0.0030837
0.00308363
0.00308084
0.00307504
0.00303714
0.00307268
0.00307266
0.00303996
0.00303986
0.00307505
0.00303714
0.00307269
0.00307269
0.00303996
0.00303997
0.00307268
0.00303988
0.00303989
0.00307504
0.00303719
0.0030726
0.00303996
0.00303982
0.00303712
0.00303145
0.00299402
0.00302911
0.00302915
0.00299681
0.0029968
0.00303151
0.00299405
0.0030291
0.00302912
0.00299681
0.00299671
0.00302911
0.00299677
0.00299678
0.0030315
0.00299408
0.00302915
0.00299674
0.00299679
0.00299394
0.00298846
0.00295136
0.00298612
0.00298612
0.00295415
0.00295412
0.00298846
0.00295127
0.00298612
0.00298619
0.00295416
0.00295416
0.00298605
0.00295414
0.00295413
0.00298852
0.00295129
0.00298614
0.00295416
0.00295407
0.00295128
0.0029458
0.00290904
0.00294349
0.00294336
0.00291179
0.0029118
0.00294571
0.00290895
0.00294349
0.00294348
0.00291179
0.00291193
0.00294345
0.0029118
0.00291188
0.00294573
0.00290908
0.00294354
0.00291188
0.00291171
0.00290919
0.00290357
0.0028669
0.00290122
0.00290114
0.00286969
0.00286973
0.00290345
0.00286698
0.00290124
0.00290125
0.00286966
0.00286981
0.0029015
0.00286975
0.00286951
0.00290356
0.00286693
0.00290147
0.0028698
0.00286943
0.00286696
0.00286148
0.0028252
0.00285919
0.00285939
0.00282792
0.00282788
0.00286158
0.00282529
0.00285919
0.00285912
0.00282796
0.00282801
0.0028592
0.00282788
0.00282781
0.00286146
0.00282509
0.00285916
0.00282802
0.00282782
0.0028251
0.00281984
0.0027838
0.00281756
0.00281775
0.0027865
0.00278644
0.00282
0.00278374
0.0028176
0.00281745
0.00278653
0.00278672
0.00281733
0.00278648
0.00278675
0.0028197
0.00278373
0.00281727
0.00278672
0.00278685
0.00278353
0.00277854
0.00274264
0.0027764
0.00277625
0.00274553
0.00274545
0.00277842
0.00274268
0.00277633
0.00277631
0.00274554
0.00274565
0.00277631
0.00274545
0.00274553
0.00277842
0.00274263
0.00277632
0.00274562
0.00274554
0.002743
0.00273742
0.00270191
0.00273534
0.00273538
0.00270494
0.0027048
0.00273747
0.00270202
0.00273533
0.00273541
0.002705
0.00270498
0.00273554
0.0027048
0.0027049
0.00273744
0.00270196
0.00273551
0.00270494
0.00270483
0.0027019
0.00269677
0.0026615
0.0026949
0.00269477
0.00266442
0.00266455
0.00269679
0.00266144
0.00269481
0.00269481
0.00266445
0.00266455
0.00269468
0.00266456
0.00266445
0.00269683
0.00266152
0.00269466
0.00266461
0.00266445
0.00266159
0.00265635
0.00262128
0.00265455
0.00265435
0.00262441
0.00262454
0.00265624
0.00262131
0.00265456
0.00265456
0.00262444
0.00262442
0.00265446
0.00262455
0.00262447
0.00265641
0.00262134
0.00265447
0.00262445
0.00262446
0.00262132
0.00261609
0.00258159
0.00261432
0.00261443
0.00258498
0.00258487
0.00261613
0.00258163
0.0026144
0.00261449
0.00258495
0.00258491
0.00261448
0.00258489
0.00258479
0.00261616
0.00258163
0.00261447
0.00258493
0.00258479
0.0025816
0.00257656
0.00254198
0.00257496
0.00257501
0.00254528
0.00254517
0.00257665
0.00254189
0.00257493
0.00257492
0.00254532
0.00254538
0.00257487
0.00254522
0.00254539
0.0025766
0.00254215
0.00257488
0.00254538
0.0025454
0.00254214
0.00253728
0.00250276
0.00253566
0.0025355
0.00250606
0.00250617
0.00253694
0.00250313
0.00253564
0.0025356
0.00250606
0.00250608
0.00253543
0.00250621
0.00250623
0.00253737
0.00250283
0.00253543
0.0025061
0.00250626
0.00250334
0.00249766
0.00246419
0.00249623
0.00249638
0.0024672
0.00246708
0.00249815
0.00246369
0.00249621
0.00249642
0.00246719
0.00246699
0.00249649
0.00246707
0.00246706
0.00249816
0.00246371
0.0024965
0.00246698
0.00246704
0.00246346
0.0024593
0.00242532
0.0024575
0.00245751
0.0024284
0.00242835
0.00245898
0.00242561
0.00245749
0.00245735
0.00242839
0.00242842
0.00245756
0.00242836
0.00242832
0.00245863
0.00242605
0.00245755
0.00242847
0.00242834
0.00242544
0.00242035
0.00238695
0.00241872
0.00241867
0.00238984
0.0023898
0.00242048
0.0023868
0.00241873
0.00241871
0.00238984
0.00238982
0.00241862
0.0023898
0.00238986
0.00242084
0.00238604
0.00241863
0.00238978
0.00238985
0.00238673
0.00238205
0.0023487
0.00238024
0.00238026
0.00235154
0.00235156
0.002382
0.00234899
0.00238024
0.00238034
0.00235154
0.00235146
0.00238032
0.00235155
0.00235153
0.00238151
0.0023492
0.00238031
0.00235152
0.00235152
0.002349
0.00234378
0.00231065
0.00234199
0.00234196
0.00231335
0.00231328
0.00234408
0.00231017
0.00234199
0.00234183
0.00231335
0.00231342
0.0023419
0.00231329
0.00231337
0.00234397
0.00231045
0.0023419
0.00231341
0.00231337
0.00231058
0.00230573
0.00227267
0.00230383
0.00230388
0.00227539
0.00227537
0.00230532
0.00227299
0.00230383
0.00230389
0.00227539
0.00227532
0.00230382
0.00227537
0.00227535
0.00230571
0.00227267
0.00230383
0.00227532
0.00227532
0.00227251
0.00226777
0.00223485
0.00226592
0.00226587
0.00223752
0.00223751
0.00226804
0.00223466
0.00226592
0.00226589
0.00223752
0.0022375
0.00226595
0.00223753
0.00223755
0.00226771
0.00223491
0.00226592
0.00223753
0.00223756
0.00223502
0.00222995
0.00219718
0.00222809
0.00222807
0.00219985
0.00219987
0.00222983
0.00219724
0.00222809
0.00222807
0.00219985
0.00219984
0.00222808
0.00219987
0.0021998
0.00223
0.00219717
0.00222809
0.00219981
0.00219978
0.00219707
0.00219229
0.00215964
0.00219046
0.00219048
0.00216228
0.00216227
0.0021923
0.00215964
0.00219046
0.00219044
0.00216229
0.00216228
0.00219042
0.00216227
0.00216232
0.00219229
0.00215962
0.00219039
0.0021623
0.00216232
0.00215968
0.00215474
0.00212223
0.0021529
0.00215286
0.00212482
0.00212484
0.00215475
0.00212223
0.00215291
0.0021529
0.00212482
0.00212478
0.00215293
0.00212486
0.00212481
0.00215473
0.00212223
0.00215294
0.0021248
0.0021248
0.00212223
0.00211734
0.00208491
0.00211551
0.00211553
0.0020875
0.00208746
0.00211732
0.00208489
0.0021155
0.00211547
0.0020875
0.00208753
0.00211546
0.00208745
0.00208746
0.00211734
0.00208493
0.00211545
0.00208752
0.00208745
0.00208486
0.00208004
0.0020478
0.00207817
0.00207812
0.00205032
0.00205035
0.00208003
0.00204783
0.00207818
0.00207819
0.00205033
0.0020503
0.00207815
0.00205035
0.0020504
0.00208005
0.00204779
0.00207814
0.0020503
0.00205043
0.0020479
0.00204291
0.00201072
0.00204106
0.00204109
0.00201322
0.00201322
0.00204294
0.00201073
0.00204107
0.00204103
0.00201321
0.00201321
0.00204111
0.00201322
0.00201308
0.00204292
0.00201072
0.00204112
0.00201322
0.00201305
0.00201055
0.00200587
0.0019739
0.00200394
0.00200394
0.00197629
0.00197626
0.00200587
0.00197386
0.00200394
0.00200393
0.0019763
0.00197627
0.00200383
0.00197627
0.00197646
0.00200582
0.00197394
0.00200382
0.00197629
0.00197648
0.00197423
0.00196904
0.00193704
0.00196712
0.00196709
0.00193946
0.00193953
0.00196903
0.00193711
0.00196713
0.00196713
0.00193946
0.0019395
0.0019673
0.00193953
0.00193934
0.00196911
0.00193701
0.00196732
0.00193949
0.00193929
0.00193676
0.0019322
0.00190044
0.00193022
0.00193028
0.00190271
0.00190257
0.00193222
0.00190029
0.00193023
0.00193022
0.00190271
0.00190262
0.00193004
0.00190257
0.00190269
0.00193213
0.00190043
0.00193001
0.00190264
0.00190268
0.00190047
0.00189559
0.00186386
0.00189359
0.00189344
0.00186615
0.00186633
0.0018955
0.00186407
0.00189358
0.00189353
0.00186617
0.00186626
0.00189362
0.00186634
0.00186621
0.00189561
0.00186386
0.0018936
0.00186622
0.00186626
0.00186389
0.00185906
0.00182757
0.00185704
0.00185724
0.00182983
0.00182968
0.00185921
0.00182739
0.00185705
0.00185708
0.00182981
0.00182977
0.00185708
0.00182968
0.00182987
0.00185903
0.00182763
0.00185712
0.00182985
0.00182983
0.00182762
0.00182273
0.00179123
0.00182071
0.00182056
0.00179343
0.00179349
0.00182259
0.00179137
0.00182074
0.00182072
0.00179339
0.0017934
0.00182074
0.0017935
0.00179317
0.00182279
0.00179115
0.00182073
0.00179334
0.00179323
0.00179104
0.00178642
0.00175502
0.00178436
0.00178443
0.00175718
0.00175702
0.00178653
0.00175485
0.0017843
0.00178428
0.00175723
0.00175719
0.00178416
0.00175698
0.0017574
0.00178633
0.00175507
0.00178417
0.00175719
0.00175732
0.00175529
0.00175021
0.00171906
0.00174814
0.00174801
0.00172116
0.00172147
0.00175012
0.00171942
0.00174821
0.00174821
0.00172114
0.00172117
0.00174843
0.00172151
0.00172106
0.00175027
0.00171908
0.00174841
0.00172125
0.00172127
0.00171891
0.00171432
0.00168329
0.00171224
0.00171255
0.00168545
0.00168511
0.00171461
0.00168289
0.00171216
0.0017122
0.00168546
0.00168539
0.00171205
0.00168506
0.00168538
0.00171432
0.0016832
0.00171212
0.00168535
0.00168518
0.00168319
0.00167847
0.00164722
0.00167642
0.001676
0.0016493
0.00164941
0.00167811
0.00164741
0.00167651
0.00167641
0.00164929
0.00164935
0.00167642
0.00164941
0.00164929
0.00167839
0.00164733
0.00167627
0.00164936
0.00164939
0.00164731
0.00164245
0.00161173
0.00164035
0.00164059
0.00161376
0.00161393
0.00164266
0.00161184
0.00164027
0.00164041
0.00161371
0.00161367
0.00164036
0.00161395
0.00161397
0.00164255
0.00161162
0.00164047
0.00161371
0.00161399
0.0016119
0.00160701
0.00157617
0.00160495
0.00160494
0.00157831
0.00157796
0.00160701
0.00157594
0.00160498
0.00160478
0.0015784
0.00157838
0.00160516
0.00157794
0.00157798
0.0016069
0.00157626
0.00160514
0.00157833
0.00157802
0.00157592
0.00157139
0.00154061
0.00156935
0.00156922
0.00154261
0.00154296
0.00157123
0.00154095
0.00156936
0.00156955
0.0015425
0.00154264
0.00156901
0.00154293
0.00154269
0.00157148
0.00154058
0.00156906
0.00154263
0.00154264
0.0015407
0.00153588
0.00150539
0.0015338
0.00153408
0.00150745
0.00150716
0.00153621
0.00150508
0.00153371
0.00153366
0.00150753
0.00150727
0.00153397
0.00150718
0.00150749
0.00153582
0.0015053
0.00153388
0.0015073
0.00150747
0.00150536
0.00150064
0.00146998
0.00149864
0.00149825
0.00147195
0.0014721
0.00150034
0.00147013
0.00149874
0.00149857
0.00147194
0.0014722
0.00149854
0.00147212
0.00147205
0.00150059
0.00147003
0.00149858
0.00147219
0.00147212
0.00147002
0.00146527
0.00143489
0.00146321
0.00146346
0.00143703
0.00143708
0.00146547
0.00143486
0.00146313
0.00146325
0.00143687
0.00143675
0.00146328
0.00143699
0.00143683
0.00146527
0.00143474
0.00146329
0.00143673
0.00143665
0.00143476
0.00143015
0.00139975
0.00142816
0.00142808
0.00140162
0.00140148
0.00143008
0.00139956
0.00142809
0.00142805
0.00140191
0.00140212
0.00142805
0.0014016
0.00140187
0.00143004
0.00140014
0.00142799
0.00140215
0.00140211
0.00139991
0.00139508
0.00136505
0.00139298
0.00139287
0.00136724
0.00136731
0.00139489
0.00136529
0.00139326
0.00139345
0.00136712
0.00136685
0.00139314
0.00136725
0.00136694
0.00139545
0.00136466
0.00139334
0.00136671
0.00136664
0.00136479
0.00136027
0.00132961
0.00135844
0.00135866
0.00133185
0.00133179
0.0013606
0.0013297
0.00135813
0.00135788
0.00133154
0.00133144
0.00135829
0.00133178
0.00133203
0.00135987
0.00132956
0.00135801
0.00133173
0.00133208
0.00132994
0.00132489
0.00129494
0.00132304
0.00132286
0.00129673
0.00129662
0.0013249
0.00129459
0.00132289
0.00132285
0.00129713
0.00129732
0.00132312
0.0012967
0.00129667
0.00132491
0.00129524
0.00132325
0.00129711
0.00129684
0.00129474
0.00129028
0.00126047
0.00128804
0.001288
0.00126235
0.00126241
0.00128994
0.0012605
0.00128852
0.00128876
0.00126255
0.00126266
0.00128806
0.0012624
0.00126244
0.00129061
0.00126039
0.00128821
0.00126248
0.00126243
0.00126042
0.0012558
0.00122537
0.00125385
0.00125393
0.00122775
0.00122809
0.00125591
0.0012258
0.0012538
0.00125373
0.00122726
0.00122712
0.0012538
0.00122788
0.00122755
0.00125561
0.0012251
0.00125369
0.00122728
0.00122737
0.0012254
0.00122068
0.00119113
0.00121907
0.00121923
0.00119321
0.00119284
0.00122107
0.00119089
0.00121865
0.00121854
0.00119327
0.00119309
0.00121897
0.00119307
0.00119339
0.00122044
0.00119119
0.00121884
0.00119331
0.00119347
0.00119139
0.00118647
0.0011561
0.00118455
0.00118411
0.00115802
0.00115803
0.00118616
0.00115597
0.00118471
0.00118451
0.00115826
0.00115841
0.00118468
0.00115806
0.00115807
0.00118657
0.00115627
0.00118482
0.0011583
0.00115816
0.00115602
0.00115136
0.00112168
0.00114925
0.00114947
0.00112359
0.00112386
0.00115131
0.00112189
0.00114945
0.00114973
0.00112358
0.0011238
0.00114931
0.00112376
0.00112353
0.00115154
0.00112173
0.00114935
0.00112358
0.00112344
0.00112152
0.00111704
0.00108691
0.00111506
0.00111525
0.00108915
0.00108899
0.00111725
0.00108688
0.00111501
0.00111508
0.00108902
0.00108877
0.001115
0.00108901
0.00108929
0.00111704
0.00108677
0.00111489
0.00108889
0.0010893
0.00108714
0.00108216
0.00105257
0.0010804
0.00108027
0.00105459
0.00105457
0.00108217
0.00105245
0.0010803
0.00108015
0.00105461
0.00105467
0.00108056
0.00105447
0.00105417
0.00108209
0.00105256
0.00108059
0.00105461
0.00105421
0.00105212
0.00104797
0.00101818
0.00104611
0.00104604
0.00102025
0.00102015
0.0010478
0.00101819
0.00104616
0.00104615
0.00102027
0.00102014
0.00104544
0.00102021
0.00102042
0.00104791
0.00101818
0.00104548
0.0010202
0.00102042
0.00101846
0.00101344
0.000983573
0.00101151
0.00101151
0.000985557
0.000985879
0.00101356
0.000983949
0.0010115
0.0010115
0.000985567
0.000985931
0.00101221
0.000986146
0.000986606
0.00101356
0.000983975
0.0010122
0.000986136
0.000986564
0.000984363
0.000978964
0.000949442
0.000977052
0.000977363
0.00095144
0.000951295
0.000979238
0.000948938
0.000977071
0.000977401
0.000951437
0.000951202
0.00097729
0.000950818
0.000950003
0.000979264
0.000948895
0.000977345
0.000950805
0.000950072
0.000947831
0.000944674
0.000913933
0.000942712
0.000942373
0.000916031
0.000915837
0.000944126
0.000913974
0.000942691
0.000942307
0.000916
0.000915861
0.000941186
0.000915971
0.000916197
0.000944107
0.000914003
0.000941257
0.00091604
0.000916207
0.00091435
0.000909173
0.000879907
0.000907262
0.000907239
0.000881806
0.000882063
0.000909353
0.000880308
0.000907238
0.000907247
0.000881803
0.000881965
0.000907932
0.000882337
0.000882783
0.000909356
0.000880166
0.000907911
0.000882159
0.000882703
0.000880748
0.000875408
0.000846313
0.000873504
0.00087374
0.000848309
0.000848277
0.000875741
0.000846029
0.000873512
0.000873654
0.000848359
0.000848458
0.000874201
0.000848015
0.000848102
0.000875606
0.000846226
0.000874146
0.000848219
0.000848173
0.000845975
0.000841559
0.000811146
0.000839621
0.000839598
0.000813297
0.000813342
0.000841321
0.000811204
0.000839677
0.000839792
0.000813281
0.000813335
0.000839425
0.000813331
0.00081309
0.00084152
0.000811164
0.000839517
0.000813346
0.000813106
0.000810982
0.000806371
0.000776539
0.000804554
0.000804574
0.00077854
0.00077839
0.000806435
0.000776429
0.000804523
0.000804472
0.000778499
0.000778291
0.00080423
0.000778324
0.000777929
0.000806346
0.000776314
0.000804216
0.000778198
0.000777819
0.000776108
0.00077185
0.000741999
0.000769885
0.000769696
0.000743885
0.000743696
0.000771715
0.000741916
0.000769857
0.000769651
0.000743879
0.000743719
0.000769379
0.000743743
0.000743985
0.000771636
0.000741952
0.000769289
0.000743767
0.000743984
0.00074215
0.000737284
0.000707462
0.000735233
0.000735121
0.000709379
0.000709585
0.000737266
0.000707741
0.000735228
0.0007351
0.000709422
0.000709571
0.00073552
0.000709806
0.00071022
0.000737284
0.000707728
0.000735543
0.000709783
0.000710281
0.000708204
0.000702772
0.00067299
0.000700771
0.000701094
0.000675025
0.000675328
0.000703075
0.000673055
0.000700832
0.000701125
0.000675028
0.000675432
0.00070166
0.000675165
0.000675257
0.000703078
0.000673105
0.000701703
0.000675251
0.000675227
0.000673003
0.000668329
0.000639016
0.000666511
0.000666705
0.000641122
0.000640874
0.000668345
0.000638721
0.000666476
0.000666728
0.000641043
0.00064073
0.000666455
0.000640646
0.000640263
0.000668352
0.000638592
0.000666419
0.000640547
0.000640242
0.000638234
0.00063434
0.000603905
0.000632528
0.000632206
0.000605956
0.000605732
0.000634031
0.000603775
0.00063248
0.000632061
0.000605991
0.000605715
0.000631518
0.000605768
0.000605415
0.000633903
0.000603775
0.000631509
0.000605719
0.000605382
0.000603622
0.000598995
0.000568324
0.000596941
0.000596776
0.000570154
0.000570361
0.000598926
0.000568652
0.000597004
0.000596869
0.000570187
0.000570532
0.000596851
0.00057062
0.000571084
0.000598982
0.000568794
0.000596823
0.000570739
0.000571083
0.000569213
0.000563633
0.000534321
0.000561553
0.000561786
0.000536215
0.00053638
0.000563964
0.000534503
0.00056155
0.000561849
0.000536146
0.000536121
0.000562466
0.000536444
0.00053651
0.000564062
0.000534232
0.000562464
0.000536202
0.000536508
0.000534431
0.000529714
0.00049977
0.000527795
0.000527927
0.000501939
0.000501746
0.000529844
0.000499434
0.000527702
0.000527604
0.000501949
0.000501859
0.00052773
0.000501477
0.000501303
0.000529557
0.00049957
0.000527741
0.000501647
0.000501339
0.000499151
0.000494908
0.000464138
0.00049302
0.000492838
0.000466226
0.000466204
0.000494586
0.00046411
0.00049306
0.000493053
0.000466271
0.000466404
0.000492529
0.000466169
0.000466358
0.000494755
0.000464281
0.000492567
0.000466377
0.000466391
0.000464313
0.000459304
0.000429289
0.000457352
0.000457378
0.000431147
0.000431208
0.000459315
0.000429439
0.000457417
0.000457557
0.000431165
0.000431229
0.000457649
0.000431395
0.000431488
0.000459492
0.000429341
0.000457681
0.000431294
0.000431418
0.000429542
0.00042462
0.000394988
0.000422611
0.000422651
0.000396942
0.000396908
0.000424755
0.000394982
0.000422597
0.000422579
0.000396852
0.000396704
0.000422751
0.00039688
0.000396521
0.000424629
0.000394787
0.000422652
0.000396678
0.000396443
0.000394574
0.000390263
0.000359582
0.000388276
0.000388237
0.000361718
0.000361646
0.000390234
0.000359489
0.000388174
0.000387987
0.000361699
0.000361514
0.000387773
0.000361535
0.000361492
0.00039002
0.000359491
0.000387729
0.000361497
0.000361537
0.000359503
0.000354682
0.000323961
0.000352696
0.000352649
0.000325952
0.00032602
0.000354609
0.000324036
0.000352735
0.000352644
0.000326034
0.000326231
0.000352734
0.000326139
0.000326529
0.000354657
0.000324233
0.000352803
0.000326349
0.000326633
0.000324491
0.000319165
0.000289087
0.000317174
0.000317273
0.000291062
0.000291123
0.000319266
0.000289126
0.000317243
0.000317499
0.000291084
0.00029126
0.000317719
0.000291167
0.000291138
0.000319461
0.000289189
0.000317786
0.000291257
0.000291114
0.000289062
0.000284329
0.000253961
0.000282364
0.00028236
0.000255996
0.000255851
0.000284323
0.00025377
0.000282369
0.000282455
0.000255982
0.00025582
0.000282228
0.000255715
0.000255434
0.000284369
0.000253721
0.000282195
0.000255668
0.000255386
0.000253418
0.000249118
0.000218459
0.00024713
0.000246991
0.00022048
0.00022051
0.000248945
0.000218554
0.000247111
0.000246914
0.000220431
0.000220296
0.000246645
0.00022054
0.000220555
0.000248873
0.000218376
0.000246586
0.000220333
0.000220499
0.000218585
0.000213621
0.000183136
0.000211623
0.000211693
0.000185151
0.000185267
0.000213745
0.000183251
0.000211568
0.000211525
0.000185127
0.000185259
0.000211819
0.000185333
0.000185466
0.000213594
0.000183321
0.000211788
0.00018537
0.000185514
0.000183452
0.000178315
0.000147498
0.000176322
0.000176414
0.000149542
0.000149546
0.000178396
0.000147468
0.000176325
0.000176475
0.000149591
0.000149666
0.000176581
0.000149535
0.000149595
0.000178515
0.000147567
0.000176667
0.000149667
0.000149657
0.00014752
0.000142543
0.000111435
0.000140508
0.000140506
0.000113404
0.000113316
0.000142517
0.000111354
0.000140543
0.000140593
0.000113411
0.000113285
0.000140561
0.000113296
0.000113262
0.000142602
0.000111259
0.000140566
0.000113219
0.000113213
0.000111234
0.000106611
7.70403e-05
0.000104645
0.000104561
7.89237e-05
7.87965e-05
0.000106539
7.68883e-05
0.000104623
0.000104464
7.8942e-05
7.88135e-05
0.000104381
7.87364e-05
7.86028e-05
0.000106413
7.6855e-05
0.000104299
7.86902e-05
7.85609e-05
7.66644e-05
7.23356e-05
4.11605e-05
7.0431e-05
7.03328e-05
4.33331e-05
4.33552e-05
7.22172e-05
4.12109e-05
7.04694e-05
7.04344e-05
4.33908e-05
4.36331e-05
7.01053e-05
4.34764e-05
4.3713e-05
7.22228e-05
4.14963e-05
7.00863e-05
4.37569e-05
4.37904e-05
4.15642e-05
3.59339e-05
7.16959e-06
3.40106e-05
3.40405e-05
1.01909e-05
1.0414e-05
3.60124e-05
7.44328e-06
3.4056e-05
3.4249e-05
9.99082e-06
9.82327e-06
3.44677e-05
1.04524e-05
1.05027e-05
3.62579e-05
6.93069e-06
3.45455e-05
1.00238e-05
1.04562e-05
7.40194e-06
4.02835e-06
5.83861e-06
6.11903e-06
4.27271e-06
5.69657e-06
5.5126e-06
5.12246e-06
4.46179e-06
4.87299e-06
5.93046e-06
3.70784e-06
5.89487e-06
0.00353156
0.00353417
0.00353288
0.00353302
0.00356001
0.00353397
0.00356356
0.00353431
0.00356016
0.0035341
0.00353434
0.00356376
0.00354506
0.00356675
0.00356683
0.00350443
0.00351657
0.00352197
0.00349689
0.00349457
0.00349978
0.00350404
0.00351774
0.00352157
0.00349632
0.00352008
0.00352008
0.00352004
0.00349332
0.00349363
0.00349358
0.00349357
0.00350373
0.00351538
0.00352057
0.00351139
0.00352267
0.00350092
0.0035116
0.00349437
0.0034998
0.00350378
0.00352063
0.00351543
0.00351132
0.00352278
0.00351159
0.00350095
0.00352147
0.00352159
0.00350858
0.00350084
0.00350084
0.00347631
0.00348971
0.00349045
0.00347361
0.00348798
0.00347348
0.0034764
0.00349069
0.00349054
0.00347443
0.00348449
0.00348451
0.00348448
0.00345599
0.00345607
0.00345608
0.00345602
0.00347425
0.00348927
0.00348299
0.00347361
0.00348773
0.00347479
0.00347359
0.00348795
0.00347353
0.00347426
0.00348302
0.00348927
0.00347361
0.00348773
0.00347354
0.00347477
0.00349098
0.00349106
0.00347202
0.00347522
0.00347516
0.0034339
0.00344861
0.00344944
0.00343258
0.00344745
0.00343179
0.00343394
0.00344867
0.00344949
0.00343262
0.00344598
0.00344597
0.00344593
0.00341342
0.00341346
0.00341342
0.00341339
0.00343266
0.00344824
0.00344408
0.00343363
0.00344721
0.00343311
0.0034336
0.00344749
0.00343176
0.00343265
0.00344411
0.00344821
0.00343364
0.00344722
0.00343363
0.00343312
0.00344902
0.003449
0.00343097
0.00343298
0.00343293
0.00338767
0.00340405
0.00340548
0.00338621
0.00340336
0.00338574
0.00338765
0.00340405
0.00340547
0.00338621
0.00340193
0.00340189
0.00340186
0.00336607
0.00336608
0.00336605
0.00336602
0.00338681
0.00340386
0.00340022
0.0033885
0.0034033
0.00338694
0.00338852
0.00340338
0.00338567
0.00338681
0.00340022
0.00340387
0.00338847
0.00340331
0.00338852
0.00338695
0.00340416
0.00340414
0.00338524
0.0033864
0.00338641
0.00333882
0.00335588
0.00335724
0.00333757
0.0033555
0.00333727
0.00333881
0.00335588
0.00335721
0.00333758
0.00335391
0.00335388
0.00335386
0.00331724
0.00331725
0.00331722
0.0033172
0.00333839
0.00335591
0.00335248
0.00334024
0.00335557
0.00333832
0.00334028
0.00335548
0.00333723
0.00333837
0.00335247
0.00335591
0.00334024
0.00335555
0.00334029
0.00333828
0.00335595
0.00335591
0.00333688
0.0033377
0.00333771
0.00328975
0.00330701
0.00330804
0.00328884
0.00330673
0.0032886
0.0032897
0.003307
0.00330801
0.00328883
0.00330506
0.00330503
0.00330501
0.00326876
0.00326877
0.00326875
0.00326873
0.00328964
0.00330706
0.0033038
0.00329162