/*--------------------------------*- C++ -*----------------------------------*\
| =========                 |                                                 |
| \\      /  F ield         | OpenFOAM: The Open Source CFD Toolbox           |
|  \\    /   O peration     | Version:  v2012                                 |
|   \\  /    A nd           | Website:  www.openfoam.com                      |
|    \\/     M anipulation  |                                                 |
\*---------------------------------------------------------------------------*/
FoamFile
{
    version     2.0;
    format      ascii;
    class       volScalarField;
    location    "0.445";
    object      p;
}
// * * * * * * * * * * * * * * * * * * * * * * * * * * * * * * * * * * * * * //

dimensions      [0 2 -2 0 0 0 0];


internalField   nonuniform List<scalar> 
247104
(
1.83418e-06
1.83405e-06
1.8342e-06
1.83419e-06
1.83412e-06
1.83421e-06
1.83419e-06
1.83398e-06
1.83405e-06
1.83412e-06
1.83418e-06
1.83403e-06
1.83394e-06
1.83405e-06
1.83418e-06
1.83409e-06
1.8342e-06
1.83418e-06
1.83387e-06
1.83352e-06
1.83338e-06
1.83355e-06
1.83392e-06
1.83419e-06
1.8342e-06
1.83419e-06
1.83403e-06
1.83352e-06
1.83304e-06
1.83287e-06
1.83308e-06
1.83359e-06
1.83407e-06
1.83419e-06
1.83418e-06
1.83412e-06
1.83394e-06
1.83338e-06
1.83287e-06
1.83269e-06
1.83292e-06
1.83345e-06
1.83399e-06
1.8341e-06
1.83421e-06
1.83405e-06
1.83355e-06
1.83308e-06
1.83292e-06
1.83313e-06
1.83362e-06
1.83409e-06
1.83421e-06
1.83419e-06
1.83419e-06
1.83392e-06
1.83359e-06
1.83345e-06
1.83362e-06
1.83397e-06
1.8342e-06
1.83419e-06
1.83398e-06
1.83409e-06
1.83419e-06
1.83407e-06
1.83399e-06
1.83409e-06
1.8342e-06
1.83405e-06
1.8342e-06
1.83419e-06
1.8341e-06
1.83421e-06
1.83419e-06
1.80154e-06
1.79956e-06
1.7989e-06
1.79767e-06
1.79767e-06
1.79762e-06
1.79762e-06
1.79895e-06
1.79915e-06
1.79889e-06
1.79684e-06
1.79428e-06
1.79426e-06
1.79426e-06
1.79428e-06
1.79722e-06
1.7975e-06
1.79767e-06
1.79428e-06
1.79422e-06
1.79429e-06
1.79429e-06
1.79422e-06
1.79428e-06
1.7976e-06
1.79898e-06
1.80154e-06
1.79767e-06
1.79426e-06
1.79429e-06
1.79438e-06
1.79438e-06
1.79429e-06
1.79426e-06
1.79763e-06
1.79927e-06
1.79956e-06
1.79762e-06
1.79426e-06
1.79429e-06
1.79438e-06
1.79438e-06
1.79429e-06
1.79427e-06
1.79779e-06
1.79788e-06
1.79762e-06
1.79428e-06
1.79422e-06
1.79429e-06
1.79429e-06
1.79422e-06
1.79428e-06
1.79758e-06
1.79892e-06
1.79895e-06
1.79722e-06
1.79428e-06
1.79426e-06
1.79426e-06
1.79428e-06
1.79748e-06
1.79764e-06
1.79911e-06
1.79915e-06
1.7975e-06
1.7976e-06
1.79763e-06
1.79778e-06
1.79758e-06
1.79764e-06
1.79915e-06
1.79898e-06
1.79927e-06
1.79788e-06
1.79891e-06
1.79911e-06
1.78144e-06
1.78127e-06
1.78111e-06
1.77902e-06
1.7789e-06
1.77885e-06
1.77899e-06
1.78104e-06
1.78131e-06
1.78111e-06
1.77832e-06
1.77535e-06
1.77532e-06
1.77532e-06
1.77534e-06
1.77875e-06
1.77946e-06
1.77901e-06
1.77534e-06
1.77514e-06
1.77519e-06
1.77519e-06
1.77514e-06
1.77535e-06
1.77955e-06
1.7815e-06
1.78144e-06
1.7789e-06
1.77532e-06
1.77519e-06
1.77523e-06
1.77523e-06
1.77519e-06
1.77532e-06
1.77959e-06
1.78126e-06
1.78127e-06
1.77885e-06
1.77532e-06
1.77519e-06
1.77523e-06
1.77523e-06
1.77519e-06
1.77532e-06
1.77955e-06
1.7796e-06
1.77899e-06
1.77534e-06
1.77514e-06
1.77519e-06
1.77519e-06
1.77514e-06
1.77535e-06
1.77958e-06
1.78159e-06
1.78104e-06
1.77875e-06
1.77535e-06
1.77532e-06
1.77532e-06
1.77535e-06
1.77921e-06
1.77955e-06
1.78152e-06
1.78131e-06
1.77946e-06
1.77955e-06
1.77959e-06
1.77955e-06
1.77958e-06
1.77954e-06
1.78138e-06
1.7815e-06
1.78126e-06
1.7796e-06
1.78159e-06
1.78152e-06
1.76262e-06
1.76245e-06
1.76232e-06
1.76019e-06
1.76007e-06
1.75999e-06
1.76018e-06
1.76225e-06
1.76254e-06
1.76232e-06
1.75949e-06
1.75651e-06
1.75649e-06
1.75649e-06
1.75651e-06
1.7599e-06
1.76067e-06
1.76019e-06
1.75651e-06
1.75641e-06
1.75642e-06
1.75642e-06
1.75641e-06
1.75651e-06
1.76074e-06
1.76269e-06
1.76262e-06
1.76007e-06
1.75649e-06
1.75642e-06
1.75644e-06
1.75644e-06
1.75643e-06
1.75649e-06
1.76078e-06
1.76244e-06
1.76245e-06
1.75999e-06
1.75649e-06
1.75642e-06
1.75644e-06
1.75644e-06
1.75642e-06
1.75649e-06
1.76074e-06
1.7608e-06
1.76017e-06
1.75651e-06
1.75641e-06
1.75642e-06
1.75642e-06
1.75641e-06
1.75651e-06
1.76076e-06
1.76276e-06
1.76225e-06
1.75989e-06
1.75651e-06
1.75649e-06
1.75649e-06
1.75651e-06
1.76049e-06
1.76077e-06
1.76273e-06
1.76253e-06
1.76067e-06
1.76074e-06
1.76078e-06
1.76074e-06
1.76076e-06
1.76077e-06
1.76276e-06
1.76268e-06
1.76243e-06
1.7608e-06
1.76275e-06
1.76272e-06
1.74376e-06
1.74359e-06
1.74343e-06
1.7413e-06
1.74118e-06
1.7411e-06
1.74128e-06
1.74336e-06
1.74364e-06
1.74343e-06
1.74061e-06
1.73762e-06
1.73761e-06
1.73761e-06
1.73762e-06
1.74097e-06
1.74178e-06
1.7413e-06
1.73762e-06
1.73759e-06
1.73759e-06
1.73759e-06
1.73759e-06
1.73762e-06
1.74185e-06
1.7438e-06
1.74376e-06
1.74118e-06
1.73761e-06
1.73759e-06
1.7376e-06
1.7376e-06
1.73759e-06
1.73761e-06
1.74192e-06
1.74358e-06
1.74359e-06
1.7411e-06
1.73761e-06
1.73759e-06
1.7376e-06
1.7376e-06
1.73759e-06
1.73761e-06
1.74189e-06
1.74194e-06
1.74128e-06
1.73762e-06
1.73759e-06
1.73759e-06
1.73759e-06
1.73759e-06
1.73762e-06
1.7419e-06
1.7439e-06
1.74336e-06
1.74097e-06
1.73762e-06
1.73761e-06
1.73761e-06
1.73762e-06
1.74164e-06
1.7419e-06
1.74384e-06
1.74363e-06
1.74178e-06
1.74185e-06
1.74192e-06
1.74189e-06
1.7419e-06
1.7419e-06
1.74384e-06
1.7438e-06
1.74358e-06
1.74194e-06
1.7439e-06
1.74384e-06
1.72488e-06
1.72471e-06
1.72454e-06
1.72241e-06
1.72229e-06
1.72222e-06
1.72239e-06
1.72448e-06
1.72475e-06
1.72454e-06
1.72173e-06
1.71873e-06
1.71873e-06
1.71873e-06
1.71873e-06
1.72207e-06
1.72289e-06
1.72241e-06
1.71873e-06
1.71872e-06
1.71873e-06
1.71873e-06
1.71872e-06
1.71873e-06
1.72296e-06
1.72492e-06
1.72488e-06
1.72229e-06
1.71873e-06
1.71873e-06
1.71873e-06
1.71873e-06
1.71873e-06
1.71873e-06
1.72304e-06
1.72471e-06
1.72471e-06
1.72222e-06
1.71873e-06
1.71873e-06
1.71873e-06
1.71873e-06
1.71873e-06
1.71873e-06
1.72301e-06
1.72306e-06
1.7224e-06
1.71873e-06
1.71873e-06
1.71873e-06
1.71873e-06
1.71872e-06
1.71873e-06
1.72302e-06
1.72503e-06
1.72448e-06
1.72207e-06
1.71873e-06
1.71873e-06
1.71873e-06
1.71873e-06
1.72276e-06
1.72303e-06
1.72496e-06
1.72475e-06
1.72289e-06
1.72296e-06
1.72304e-06
1.72301e-06
1.72302e-06
1.72302e-06
1.72496e-06
1.72492e-06
1.72471e-06
1.72306e-06
1.72502e-06
1.72496e-06
1.706e-06
1.70583e-06
1.70566e-06
1.70353e-06
1.70341e-06
1.70334e-06
1.70351e-06
1.7056e-06
1.70587e-06
1.70566e-06
1.70285e-06
1.69985e-06
1.69985e-06
1.69985e-06
1.69985e-06
1.70319e-06
1.70401e-06
1.70353e-06
1.69985e-06
1.69985e-06
1.69985e-06
1.69985e-06
1.69985e-06
1.69985e-06
1.70408e-06
1.70604e-06
1.706e-06
1.70341e-06
1.69985e-06
1.69985e-06
1.69985e-06
1.69985e-06
1.69985e-06
1.69985e-06
1.70416e-06
1.70583e-06
1.70583e-06
1.70334e-06
1.69985e-06
1.69985e-06
1.69985e-06
1.69985e-06
1.69985e-06
1.69985e-06
1.70413e-06
1.70418e-06
1.70351e-06
1.69985e-06
1.69985e-06
1.69985e-06
1.69985e-06
1.69985e-06
1.69985e-06
1.70414e-06
1.70615e-06
1.7056e-06
1.70319e-06
1.69985e-06
1.69985e-06
1.69985e-06
1.69985e-06
1.70388e-06
1.70415e-06
1.70608e-06
1.70586e-06
1.70401e-06
1.70408e-06
1.70416e-06
1.70413e-06
1.70414e-06
1.70415e-06
1.70607e-06
1.70604e-06
1.70583e-06
1.70418e-06
1.70615e-06
1.70608e-06
1.68712e-06
1.68695e-06
1.68678e-06
1.68466e-06
1.68454e-06
1.68446e-06
1.68464e-06
1.68672e-06
1.68699e-06
1.68678e-06
1.68397e-06
1.68097e-06
1.68097e-06
1.68097e-06
1.68097e-06
1.68431e-06
1.68513e-06
1.68466e-06
1.68097e-06
1.68097e-06
1.68097e-06
1.68097e-06
1.68097e-06
1.68097e-06
1.6852e-06
1.68716e-06
1.68712e-06
1.68454e-06
1.68097e-06
1.68097e-06
1.68097e-06
1.68097e-06
1.68097e-06
1.68097e-06
1.68528e-06
1.68695e-06
1.68695e-06
1.68446e-06
1.68097e-06
1.68097e-06
1.68097e-06
1.68097e-06
1.68097e-06
1.68097e-06
1.68526e-06
1.68531e-06
1.68464e-06
1.68097e-06
1.68097e-06
1.68097e-06
1.68097e-06
1.68097e-06
1.68097e-06
1.68526e-06
1.68727e-06
1.68672e-06
1.68431e-06
1.68097e-06
1.68097e-06
1.68097e-06
1.68097e-06
1.68501e-06
1.68527e-06
1.6872e-06
1.68699e-06
1.68513e-06
1.6852e-06
1.68528e-06
1.68525e-06
1.68526e-06
1.68527e-06
1.68719e-06
1.68716e-06
1.68695e-06
1.68531e-06
1.68727e-06
1.6872e-06
1.66824e-06
1.66808e-06
1.6679e-06
1.66578e-06
1.66566e-06
1.66559e-06
1.66576e-06
1.66784e-06
1.66811e-06
1.6679e-06
1.6651e-06
1.6621e-06
1.6621e-06
1.6621e-06
1.6621e-06
1.66543e-06
1.66625e-06
1.66578e-06
1.6621e-06
1.6621e-06
1.6621e-06
1.6621e-06
1.6621e-06
1.6621e-06
1.66632e-06
1.66829e-06
1.66824e-06
1.66566e-06
1.6621e-06
1.6621e-06
1.6621e-06
1.6621e-06
1.6621e-06
1.6621e-06
1.6664e-06
1.66808e-06
1.66808e-06
1.66559e-06
1.6621e-06
1.6621e-06
1.6621e-06
1.6621e-06
1.6621e-06
1.6621e-06
1.66638e-06
1.66643e-06
1.66576e-06
1.6621e-06
1.6621e-06
1.6621e-06
1.6621e-06
1.6621e-06
1.6621e-06
1.66639e-06
1.66839e-06
1.66784e-06
1.66543e-06
1.6621e-06
1.6621e-06
1.6621e-06
1.6621e-06
1.66613e-06
1.66639e-06
1.66832e-06
1.66811e-06
1.66625e-06
1.66632e-06
1.6664e-06
1.66638e-06
1.66639e-06
1.66639e-06
1.66832e-06
1.66828e-06
1.66808e-06
1.66643e-06
1.66839e-06
1.66832e-06
1.64937e-06
1.6492e-06
1.64903e-06
1.6469e-06
1.64678e-06
1.64671e-06
1.64688e-06
1.64897e-06
1.64923e-06
1.64903e-06
1.64622e-06
1.64322e-06
1.64322e-06
1.64322e-06
1.64322e-06
1.64656e-06
1.64738e-06
1.6469e-06
1.64322e-06
1.64322e-06
1.64322e-06
1.64322e-06
1.64322e-06
1.64322e-06
1.64745e-06
1.64941e-06
1.64937e-06
1.64678e-06
1.64322e-06
1.64322e-06
1.64322e-06
1.64322e-06
1.64322e-06
1.64322e-06
1.64753e-06
1.6492e-06
1.6492e-06
1.64671e-06
1.64322e-06
1.64322e-06
1.64322e-06
1.64322e-06
1.64322e-06
1.64322e-06
1.6475e-06
1.64755e-06
1.64688e-06
1.64322e-06
1.64322e-06
1.64322e-06
1.64322e-06
1.64322e-06
1.64322e-06
1.64751e-06
1.64952e-06
1.64897e-06
1.64656e-06
1.64322e-06
1.64322e-06
1.64322e-06
1.64322e-06
1.64725e-06
1.64752e-06
1.64945e-06
1.64923e-06
1.64738e-06
1.64745e-06
1.64753e-06
1.6475e-06
1.64751e-06
1.64752e-06
1.64944e-06
1.64941e-06
1.6492e-06
1.64755e-06
1.64952e-06
1.64945e-06
1.63049e-06
1.63032e-06
1.63015e-06
1.62803e-06
1.62791e-06
1.62783e-06
1.62801e-06
1.63009e-06
1.63036e-06
1.63015e-06
1.62734e-06
1.62434e-06
1.62434e-06
1.62434e-06
1.62434e-06
1.62768e-06
1.6285e-06
1.62803e-06
1.62434e-06
1.62434e-06
1.62434e-06
1.62434e-06
1.62434e-06
1.62434e-06
1.62857e-06
1.63053e-06
1.63049e-06
1.62791e-06
1.62434e-06
1.62434e-06
1.62434e-06
1.62434e-06
1.62434e-06
1.62434e-06
1.62865e-06
1.63032e-06
1.63032e-06
1.62783e-06
1.62434e-06
1.62434e-06
1.62434e-06
1.62434e-06
1.62434e-06
1.62434e-06
1.62863e-06
1.62868e-06
1.62801e-06
1.62434e-06
1.62434e-06
1.62434e-06
1.62434e-06
1.62434e-06
1.62434e-06
1.62863e-06
1.63064e-06
1.63009e-06
1.62768e-06
1.62434e-06
1.62434e-06
1.62434e-06
1.62434e-06
1.62838e-06
1.62864e-06
1.63057e-06
1.63036e-06
1.6285e-06
1.62857e-06
1.62865e-06
1.62862e-06
1.62863e-06
1.62864e-06
1.63056e-06
1.63053e-06
1.63032e-06
1.62868e-06
1.63064e-06
1.63057e-06
1.61161e-06
1.61145e-06
1.61127e-06
1.60915e-06
1.60903e-06
1.60896e-06
1.60913e-06
1.61121e-06
1.61148e-06
1.61127e-06
1.60847e-06
1.60547e-06
1.60547e-06
1.60547e-06
1.60547e-06
1.6088e-06
1.60962e-06
1.60915e-06
1.60547e-06
1.60547e-06
1.60547e-06
1.60547e-06
1.60547e-06
1.60547e-06
1.60969e-06
1.61166e-06
1.61161e-06
1.60903e-06
1.60547e-06
1.60547e-06
1.60547e-06
1.60547e-06
1.60547e-06
1.60547e-06
1.60977e-06
1.61145e-06
1.61145e-06
1.60896e-06
1.60547e-06
1.60547e-06
1.60547e-06
1.60547e-06
1.60547e-06
1.60547e-06
1.60975e-06
1.6098e-06
1.60913e-06
1.60547e-06
1.60547e-06
1.60547e-06
1.60547e-06
1.60547e-06
1.60547e-06
1.60976e-06
1.61176e-06
1.61121e-06
1.6088e-06
1.60547e-06
1.60547e-06
1.60547e-06
1.60547e-06
1.6095e-06
1.60977e-06
1.61169e-06
1.61148e-06
1.60962e-06
1.60969e-06
1.60977e-06
1.60975e-06
1.60976e-06
1.60976e-06
1.61169e-06
1.61166e-06
1.61145e-06
1.6098e-06
1.61176e-06
1.61169e-06
1.59274e-06
1.59257e-06
1.5924e-06
1.59027e-06
1.59015e-06
1.59008e-06
1.59025e-06
1.59234e-06
1.5926e-06
1.5924e-06
1.58959e-06
1.58659e-06
1.58659e-06
1.58659e-06
1.58659e-06
1.58993e-06
1.59075e-06
1.59027e-06
1.58659e-06
1.58659e-06
1.58659e-06
1.58659e-06
1.58659e-06
1.58659e-06
1.59082e-06
1.59278e-06
1.59274e-06
1.59015e-06
1.58659e-06
1.58659e-06
1.58659e-06
1.58659e-06
1.58659e-06
1.58659e-06
1.5909e-06
1.59257e-06
1.59257e-06
1.59008e-06
1.58659e-06
1.58659e-06
1.58659e-06
1.58659e-06
1.58659e-06
1.58659e-06
1.59087e-06
1.59092e-06
1.59025e-06
1.58659e-06
1.58659e-06
1.58659e-06
1.58659e-06
1.58659e-06
1.58659e-06
1.59088e-06
1.59289e-06
1.59234e-06
1.58993e-06
1.58659e-06
1.58659e-06
1.58659e-06
1.58659e-06
1.59062e-06
1.59089e-06
1.59282e-06
1.5926e-06
1.59075e-06
1.59082e-06
1.5909e-06
1.59087e-06
1.59088e-06
1.59089e-06
1.59281e-06
1.59278e-06
1.59257e-06
1.59092e-06
1.59289e-06
1.59282e-06
1.57386e-06
1.57369e-06
1.57352e-06
1.5714e-06
1.57128e-06
1.5712e-06
1.57138e-06
1.57346e-06
1.57373e-06
1.57352e-06
1.57071e-06
1.56771e-06
1.56771e-06
1.56771e-06
1.56771e-06
1.57105e-06
1.57187e-06
1.57139e-06
1.56771e-06
1.56771e-06
1.56771e-06
1.56771e-06
1.56771e-06
1.56771e-06
1.57194e-06
1.5739e-06
1.57386e-06
1.57127e-06
1.56771e-06
1.56771e-06
1.56771e-06
1.56771e-06
1.56771e-06
1.56771e-06
1.57202e-06
1.57369e-06
1.57369e-06
1.5712e-06
1.56771e-06
1.56771e-06
1.56771e-06
1.56771e-06
1.56771e-06
1.56771e-06
1.57199e-06
1.57205e-06
1.57138e-06
1.56771e-06
1.56771e-06
1.56771e-06
1.56771e-06
1.56771e-06
1.56771e-06
1.572e-06
1.57401e-06
1.57346e-06
1.57105e-06
1.56771e-06
1.56771e-06
1.56771e-06
1.56771e-06
1.57175e-06
1.57201e-06
1.57394e-06
1.57373e-06
1.57187e-06
1.57194e-06
1.57202e-06
1.57199e-06
1.572e-06
1.57201e-06
1.57393e-06
1.5739e-06
1.57369e-06
1.57205e-06
1.57401e-06
1.57394e-06
1.55498e-06
1.55482e-06
1.55464e-06
1.55252e-06
1.5524e-06
1.55233e-06
1.5525e-06
1.55458e-06
1.55485e-06
1.55464e-06
1.55184e-06
1.54884e-06
1.54884e-06
1.54884e-06
1.54884e-06
1.55217e-06
1.55299e-06
1.55252e-06
1.54884e-06
1.54884e-06
1.54884e-06
1.54884e-06
1.54884e-06
1.54884e-06
1.55306e-06
1.55503e-06
1.55498e-06
1.5524e-06
1.54884e-06
1.54884e-06
1.54884e-06
1.54884e-06
1.54884e-06
1.54884e-06
1.55314e-06
1.55482e-06
1.55482e-06
1.55233e-06
1.54884e-06
1.54884e-06
1.54884e-06
1.54884e-06
1.54884e-06
1.54884e-06
1.55312e-06
1.55317e-06
1.5525e-06
1.54884e-06
1.54884e-06
1.54884e-06
1.54884e-06
1.54884e-06
1.54884e-06
1.55313e-06
1.55513e-06
1.55458e-06
1.55217e-06
1.54884e-06
1.54884e-06
1.54884e-06
1.54884e-06
1.55287e-06
1.55313e-06
1.55506e-06
1.55485e-06
1.55299e-06
1.55306e-06
1.55314e-06
1.55312e-06
1.55313e-06
1.55313e-06
1.55506e-06
1.55503e-06
1.55482e-06
1.55317e-06
1.55513e-06
1.55506e-06
1.53611e-06
1.53594e-06
1.53577e-06
1.53364e-06
1.53352e-06
1.53345e-06
1.53362e-06
1.53571e-06
1.53597e-06
1.53577e-06
1.53296e-06
1.52996e-06
1.52996e-06
1.52996e-06
1.52996e-06
1.5333e-06
1.53412e-06
1.53364e-06
1.52996e-06
1.52996e-06
1.52996e-06
1.52996e-06
1.52996e-06
1.52996e-06
1.53419e-06
1.53615e-06
1.53611e-06
1.53352e-06
1.52996e-06
1.52996e-06
1.52996e-06
1.52996e-06
1.52996e-06
1.52996e-06
1.53427e-06
1.53594e-06
1.53594e-06
1.53345e-06
1.52996e-06
1.52996e-06
1.52996e-06
1.52996e-06
1.52996e-06
1.52996e-06
1.53424e-06
1.53429e-06
1.53362e-06
1.52996e-06
1.52996e-06
1.52996e-06
1.52996e-06
1.52996e-06
1.52996e-06
1.53425e-06
1.53626e-06
1.53571e-06
1.5333e-06
1.52996e-06
1.52996e-06
1.52996e-06
1.52996e-06
1.534e-06
1.53426e-06
1.53619e-06
1.53597e-06
1.53412e-06
1.53419e-06
1.53427e-06
1.53424e-06
1.53425e-06
1.53426e-06
1.53618e-06
1.53615e-06
1.53594e-06
1.53429e-06
1.53626e-06
1.53619e-06
1.51723e-06
1.51706e-06
1.51689e-06
1.51477e-06
1.51465e-06
1.51457e-06
1.51475e-06
1.51683e-06
1.5171e-06
1.51689e-06
1.51409e-06
1.51109e-06
1.51109e-06
1.51109e-06
1.51109e-06
1.51442e-06
1.51524e-06
1.51477e-06
1.51109e-06
1.51109e-06
1.51109e-06
1.51109e-06
1.51109e-06
1.51109e-06
1.51531e-06
1.51727e-06
1.51723e-06
1.51465e-06
1.51109e-06
1.51109e-06
1.51109e-06
1.51109e-06
1.51109e-06
1.51109e-06
1.51539e-06
1.51706e-06
1.51706e-06
1.51457e-06
1.51109e-06
1.51109e-06
1.51109e-06
1.51109e-06
1.51109e-06
1.51109e-06
1.51537e-06
1.51542e-06
1.51475e-06
1.51109e-06
1.51109e-06
1.51109e-06
1.51109e-06
1.51109e-06
1.51109e-06
1.51537e-06
1.51738e-06
1.51683e-06
1.51442e-06
1.51109e-06
1.51109e-06
1.51109e-06
1.51109e-06
1.51512e-06
1.51538e-06
1.51731e-06
1.5171e-06
1.51524e-06
1.51531e-06
1.51539e-06
1.51537e-06
1.51537e-06
1.51538e-06
1.51731e-06
1.51727e-06
1.51706e-06
1.51542e-06
1.51738e-06
1.51731e-06
1.49836e-06
1.49819e-06
1.49802e-06
1.49589e-06
1.49577e-06
1.4957e-06
1.49587e-06
1.49795e-06
1.49822e-06
1.49802e-06
1.49521e-06
1.49221e-06
1.49221e-06
1.49221e-06
1.49221e-06
1.49555e-06
1.49637e-06
1.49589e-06
1.49221e-06
1.49221e-06
1.49221e-06
1.49221e-06
1.49221e-06
1.49221e-06
1.49644e-06
1.4984e-06
1.49836e-06
1.49577e-06
1.49221e-06
1.49221e-06
1.49221e-06
1.49221e-06
1.49221e-06
1.49221e-06
1.49652e-06
1.49819e-06
1.49819e-06
1.4957e-06
1.49221e-06
1.49221e-06
1.49221e-06
1.49221e-06
1.49221e-06
1.49221e-06
1.49649e-06
1.49654e-06
1.49587e-06
1.49221e-06
1.49221e-06
1.49221e-06
1.49221e-06
1.49221e-06
1.49221e-06
1.4965e-06
1.49851e-06
1.49795e-06
1.49555e-06
1.49221e-06
1.49221e-06
1.49221e-06
1.49221e-06
1.49624e-06
1.49651e-06
1.49843e-06
1.49822e-06
1.49637e-06
1.49644e-06
1.49651e-06
1.49649e-06
1.4965e-06
1.49651e-06
1.49843e-06
1.4984e-06
1.49819e-06
1.49654e-06
1.49851e-06
1.49843e-06
1.47948e-06
1.47931e-06
1.47914e-06
1.47702e-06
1.4769e-06
1.47682e-06
1.477e-06
1.47908e-06
1.47935e-06
1.47914e-06
1.47634e-06
1.47334e-06
1.47334e-06
1.47334e-06
1.47334e-06
1.47667e-06
1.47749e-06
1.47702e-06
1.47334e-06
1.47334e-06
1.47334e-06
1.47334e-06
1.47334e-06
1.47334e-06
1.47756e-06
1.47952e-06
1.47948e-06
1.4769e-06
1.47334e-06
1.47334e-06
1.47334e-06
1.47334e-06
1.47334e-06
1.47334e-06
1.47764e-06
1.47931e-06
1.47931e-06
1.47682e-06
1.47334e-06
1.47334e-06
1.47334e-06
1.47334e-06
1.47334e-06
1.47334e-06
1.47762e-06
1.47767e-06
1.477e-06
1.47334e-06
1.47334e-06
1.47334e-06
1.47334e-06
1.47334e-06
1.47334e-06
1.47762e-06
1.47963e-06
1.47908e-06
1.47667e-06
1.47334e-06
1.47334e-06
1.47334e-06
1.47334e-06
1.47737e-06
1.47763e-06
1.47956e-06
1.47935e-06
1.47749e-06
1.47756e-06
1.47764e-06
1.47762e-06
1.47762e-06
1.47763e-06
1.47956e-06
1.47952e-06
1.47931e-06
1.47767e-06
1.47963e-06
1.47956e-06
1.46061e-06
1.46044e-06
1.46027e-06
1.45814e-06
1.45802e-06
1.45795e-06
1.45812e-06
1.46021e-06
1.46047e-06
1.46027e-06
1.45746e-06
1.45446e-06
1.45446e-06
1.45446e-06
1.45446e-06
1.4578e-06
1.45862e-06
1.45814e-06
1.45446e-06
1.45446e-06
1.45446e-06
1.45446e-06
1.45446e-06
1.45446e-06
1.45869e-06
1.46065e-06
1.46061e-06
1.45802e-06
1.45446e-06
1.45446e-06
1.45446e-06
1.45446e-06
1.45446e-06
1.45446e-06
1.45877e-06
1.46044e-06
1.46044e-06
1.45795e-06
1.45446e-06
1.45446e-06
1.45446e-06
1.45446e-06
1.45446e-06
1.45446e-06
1.45874e-06
1.45879e-06
1.45812e-06
1.45446e-06
1.45446e-06
1.45446e-06
1.45446e-06
1.45446e-06
1.45446e-06
1.45875e-06
1.46076e-06
1.46021e-06
1.4578e-06
1.45446e-06
1.45446e-06
1.45446e-06
1.45446e-06
1.4585e-06
1.45876e-06
1.46069e-06
1.46047e-06
1.45862e-06
1.45869e-06
1.45877e-06
1.45874e-06
1.45875e-06
1.45876e-06
1.46068e-06
1.46065e-06
1.46044e-06
1.45879e-06
1.46076e-06
1.46069e-06
1.44173e-06
1.44157e-06
1.44139e-06
1.43927e-06
1.43915e-06
1.43908e-06
1.43925e-06
1.44133e-06
1.4416e-06
1.44139e-06
1.43859e-06
1.43559e-06
1.43559e-06
1.43559e-06
1.43559e-06
1.43893e-06
1.43975e-06
1.43927e-06
1.43559e-06
1.43559e-06
1.43559e-06
1.43559e-06
1.43559e-06
1.43559e-06
1.43982e-06
1.44178e-06
1.44173e-06
1.43915e-06
1.43559e-06
1.43559e-06
1.43559e-06
1.43559e-06
1.43559e-06
1.43559e-06
1.43989e-06
1.44157e-06
1.44157e-06
1.43908e-06
1.43559e-06
1.43559e-06
1.43559e-06
1.43559e-06
1.43559e-06
1.43559e-06
1.43987e-06
1.43992e-06
1.43925e-06
1.43559e-06
1.43559e-06
1.43559e-06
1.43559e-06
1.43559e-06
1.43559e-06
1.43988e-06
1.44188e-06
1.44133e-06
1.43893e-06
1.43559e-06
1.43559e-06
1.43559e-06
1.43559e-06
1.43962e-06
1.43989e-06
1.44181e-06
1.4416e-06
1.43975e-06
1.43982e-06
1.43989e-06
1.43987e-06
1.43988e-06
1.43988e-06
1.44181e-06
1.44178e-06
1.44157e-06
1.43992e-06
1.44188e-06
1.44181e-06
1.42286e-06
1.42269e-06
1.42252e-06
1.4204e-06
1.42028e-06
1.4202e-06
1.42038e-06
1.42246e-06
1.42273e-06
1.42252e-06
1.41972e-06
1.41672e-06
1.41672e-06
1.41672e-06
1.41672e-06
1.42005e-06
1.42087e-06
1.4204e-06
1.41672e-06
1.41672e-06
1.41672e-06
1.41672e-06
1.41672e-06
1.41672e-06
1.42094e-06
1.4229e-06
1.42286e-06
1.42028e-06
1.41672e-06
1.41672e-06
1.41672e-06
1.41672e-06
1.41672e-06
1.41672e-06
1.42102e-06
1.42269e-06
1.42269e-06
1.4202e-06
1.41672e-06
1.41672e-06
1.41672e-06
1.41672e-06
1.41672e-06
1.41672e-06
1.421e-06
1.42105e-06
1.42038e-06
1.41672e-06
1.41672e-06
1.41672e-06
1.41672e-06
1.41672e-06
1.41672e-06
1.421e-06
1.42301e-06
1.42246e-06
1.42005e-06
1.41672e-06
1.41672e-06
1.41672e-06
1.41672e-06
1.42075e-06
1.42101e-06
1.42294e-06
1.42273e-06
1.42087e-06
1.42094e-06
1.42102e-06
1.421e-06
1.421e-06
1.42101e-06
1.42293e-06
1.4229e-06
1.42269e-06
1.42105e-06
1.42301e-06
1.42294e-06
1.40399e-06
1.40382e-06
1.40365e-06
1.40152e-06
1.4014e-06
1.40133e-06
1.4015e-06
1.40359e-06
1.40385e-06
1.40365e-06
1.40084e-06
1.39784e-06
1.39784e-06
1.39784e-06
1.39784e-06
1.40118e-06
1.402e-06
1.40152e-06
1.39784e-06
1.39784e-06
1.39784e-06
1.39784e-06
1.39784e-06
1.39784e-06
1.40207e-06
1.40403e-06
1.40399e-06
1.4014e-06
1.39784e-06
1.39784e-06
1.39784e-06
1.39784e-06
1.39784e-06
1.39784e-06
1.40215e-06
1.40382e-06
1.40382e-06
1.40133e-06
1.39784e-06
1.39784e-06
1.39784e-06
1.39784e-06
1.39784e-06
1.39784e-06
1.40212e-06
1.40217e-06
1.4015e-06
1.39784e-06
1.39784e-06
1.39784e-06
1.39784e-06
1.39784e-06
1.39784e-06
1.40213e-06
1.40414e-06
1.40359e-06
1.40118e-06
1.39784e-06
1.39784e-06
1.39784e-06
1.39784e-06
1.40188e-06
1.40214e-06
1.40407e-06
1.40385e-06
1.402e-06
1.40207e-06
1.40215e-06
1.40212e-06
1.40213e-06
1.40214e-06
1.40406e-06
1.40403e-06
1.40382e-06
1.40217e-06
1.40414e-06
1.40407e-06
1.38512e-06
1.38495e-06
1.38478e-06
1.38265e-06
1.38253e-06
1.38246e-06
1.38263e-06
1.38471e-06
1.38498e-06
1.38478e-06
1.38197e-06
1.37897e-06
1.37897e-06
1.37897e-06
1.37897e-06
1.38231e-06
1.38313e-06
1.38265e-06
1.37897e-06
1.37897e-06
1.37897e-06
1.37897e-06
1.37897e-06
1.37897e-06
1.3832e-06
1.38516e-06
1.38512e-06
1.38253e-06
1.37897e-06
1.37897e-06
1.37897e-06
1.37897e-06
1.37897e-06
1.37897e-06
1.38328e-06
1.38495e-06
1.38495e-06
1.38246e-06
1.37897e-06
1.37897e-06
1.37897e-06
1.37897e-06
1.37897e-06
1.37897e-06
1.38325e-06
1.3833e-06
1.38263e-06
1.37897e-06
1.37897e-06
1.37897e-06
1.37897e-06
1.37897e-06
1.37897e-06
1.38326e-06
1.38527e-06
1.38471e-06
1.38231e-06
1.37897e-06
1.37897e-06
1.37897e-06
1.37897e-06
1.383e-06
1.38327e-06
1.38519e-06
1.38498e-06
1.38313e-06
1.3832e-06
1.38327e-06
1.38325e-06
1.38326e-06
1.38327e-06
1.38519e-06
1.38516e-06
1.38495e-06
1.3833e-06
1.38527e-06
1.38519e-06
1.36624e-06
1.36607e-06
1.3659e-06
1.36378e-06
1.36366e-06
1.36359e-06
1.36376e-06
1.36584e-06
1.36611e-06
1.3659e-06
1.3631e-06
1.3601e-06
1.3601e-06
1.3601e-06
1.3601e-06
1.36343e-06
1.36425e-06
1.36378e-06
1.3601e-06
1.3601e-06
1.3601e-06
1.3601e-06
1.3601e-06
1.3601e-06
1.36432e-06
1.36628e-06
1.36624e-06
1.36366e-06
1.3601e-06
1.3601e-06
1.3601e-06
1.3601e-06
1.3601e-06
1.3601e-06
1.3644e-06
1.36607e-06
1.36608e-06
1.36359e-06
1.3601e-06
1.3601e-06
1.3601e-06
1.3601e-06
1.3601e-06
1.3601e-06
1.36438e-06
1.36443e-06
1.36376e-06
1.3601e-06
1.3601e-06
1.3601e-06
1.3601e-06
1.3601e-06
1.3601e-06
1.36438e-06
1.36639e-06
1.36584e-06
1.36343e-06
1.3601e-06
1.3601e-06
1.3601e-06
1.3601e-06
1.36413e-06
1.36439e-06
1.36632e-06
1.36611e-06
1.36425e-06
1.36432e-06
1.3644e-06
1.36438e-06
1.36438e-06
1.36439e-06
1.36632e-06
1.36628e-06
1.36607e-06
1.36443e-06
1.36639e-06
1.36632e-06
1.34737e-06
1.3472e-06
1.34703e-06
1.3449e-06
1.34478e-06
1.34471e-06
1.34488e-06
1.34697e-06
1.34723e-06
1.34703e-06
1.34422e-06
1.34122e-06
1.34122e-06
1.34122e-06
1.34122e-06
1.34456e-06
1.34538e-06
1.3449e-06
1.34122e-06
1.34122e-06
1.34122e-06
1.34122e-06
1.34122e-06
1.34122e-06
1.34545e-06
1.34741e-06
1.34737e-06
1.34478e-06
1.34122e-06
1.34122e-06
1.34122e-06
1.34122e-06
1.34122e-06
1.34122e-06
1.34553e-06
1.3472e-06
1.3472e-06
1.34471e-06
1.34122e-06
1.34122e-06
1.34122e-06
1.34122e-06
1.34122e-06
1.34122e-06
1.3455e-06
1.34555e-06
1.34488e-06
1.34122e-06
1.34122e-06
1.34122e-06
1.34122e-06
1.34122e-06
1.34122e-06
1.34551e-06
1.34752e-06
1.34697e-06
1.34456e-06
1.34122e-06
1.34122e-06
1.34122e-06
1.34122e-06
1.34526e-06
1.34552e-06
1.34745e-06
1.34723e-06
1.34538e-06
1.34545e-06
1.34553e-06
1.3455e-06
1.34551e-06
1.34552e-06
1.34744e-06
1.34741e-06
1.3472e-06
1.34555e-06
1.34752e-06
1.34745e-06
1.32849e-06
1.32833e-06
1.32815e-06
1.32603e-06
1.32591e-06
1.32584e-06
1.32601e-06
1.32809e-06
1.32836e-06
1.32815e-06
1.32535e-06
1.32235e-06
1.32235e-06
1.32235e-06
1.32235e-06
1.32568e-06
1.3265e-06
1.32603e-06
1.32235e-06
1.32235e-06
1.32235e-06
1.32235e-06
1.32235e-06
1.32235e-06
1.32657e-06
1.32854e-06
1.32849e-06
1.32591e-06
1.32235e-06
1.32235e-06
1.32235e-06
1.32235e-06
1.32235e-06
1.32235e-06
1.32665e-06
1.32833e-06
1.32833e-06
1.32584e-06
1.32235e-06
1.32235e-06
1.32235e-06
1.32235e-06
1.32235e-06
1.32235e-06
1.32663e-06
1.32668e-06
1.32601e-06
1.32235e-06
1.32235e-06
1.32235e-06
1.32235e-06
1.32235e-06
1.32235e-06
1.32664e-06
1.32864e-06
1.32809e-06
1.32568e-06
1.32235e-06
1.32235e-06
1.32235e-06
1.32235e-06
1.32638e-06
1.32665e-06
1.32857e-06
1.32836e-06
1.3265e-06
1.32657e-06
1.32665e-06
1.32663e-06
1.32664e-06
1.32664e-06
1.32857e-06
1.32854e-06
1.32833e-06
1.32668e-06
1.32864e-06
1.32857e-06
1.30962e-06
1.30945e-06
1.30928e-06
1.30716e-06
1.30703e-06
1.30696e-06
1.30714e-06
1.30922e-06
1.30949e-06
1.30928e-06
1.30647e-06
1.30347e-06
1.30347e-06
1.30347e-06
1.30347e-06
1.30681e-06
1.30763e-06
1.30715e-06
1.30347e-06
1.30347e-06
1.30347e-06
1.30347e-06
1.30347e-06
1.30347e-06
1.3077e-06
1.30966e-06
1.30962e-06
1.30703e-06
1.30347e-06
1.30347e-06
1.30347e-06
1.30347e-06
1.30347e-06
1.30347e-06
1.30778e-06
1.30945e-06
1.30945e-06
1.30696e-06
1.30347e-06
1.30347e-06
1.30347e-06
1.30347e-06
1.30347e-06
1.30347e-06
1.30775e-06
1.30781e-06
1.30714e-06
1.30347e-06
1.30347e-06
1.30347e-06
1.30347e-06
1.30347e-06
1.30347e-06
1.30776e-06
1.30977e-06
1.30922e-06
1.30681e-06
1.30347e-06
1.30347e-06
1.30347e-06
1.30347e-06
1.30751e-06
1.30777e-06
1.3097e-06
1.30949e-06
1.30763e-06
1.3077e-06
1.30778e-06
1.30775e-06
1.30776e-06
1.30777e-06
1.30969e-06
1.30966e-06
1.30945e-06
1.30781e-06
1.30977e-06
1.3097e-06
1.29075e-06
1.29058e-06
1.29041e-06
1.28828e-06
1.28816e-06
1.28809e-06
1.28826e-06
1.29034e-06
1.29061e-06
1.29041e-06
1.2876e-06
1.2846e-06
1.2846e-06
1.2846e-06
1.2846e-06
1.28794e-06
1.28876e-06
1.28828e-06
1.2846e-06
1.2846e-06
1.2846e-06
1.2846e-06
1.2846e-06
1.2846e-06
1.28883e-06
1.29079e-06
1.29075e-06
1.28816e-06
1.2846e-06
1.2846e-06
1.2846e-06
1.2846e-06
1.2846e-06
1.2846e-06
1.2889e-06
1.29058e-06
1.29058e-06
1.28809e-06
1.2846e-06
1.2846e-06
1.2846e-06
1.2846e-06
1.2846e-06
1.2846e-06
1.28888e-06
1.28893e-06
1.28826e-06
1.2846e-06
1.2846e-06
1.2846e-06
1.2846e-06
1.2846e-06
1.2846e-06
1.28889e-06
1.2909e-06
1.29034e-06
1.28794e-06
1.2846e-06
1.2846e-06
1.2846e-06
1.2846e-06
1.28863e-06
1.2889e-06
1.29082e-06
1.29061e-06
1.28876e-06
1.28883e-06
1.2889e-06
1.28888e-06
1.28889e-06
1.2889e-06
1.29082e-06
1.29079e-06
1.29058e-06
1.28893e-06
1.2909e-06
1.29082e-06
1.27187e-06
1.2717e-06
1.27153e-06
1.26941e-06
1.26929e-06
1.26921e-06
1.26939e-06
1.27147e-06
1.27174e-06
1.27153e-06
1.26872e-06
1.26572e-06
1.26572e-06
1.26572e-06
1.26572e-06
1.26906e-06
1.26988e-06
1.26941e-06
1.26572e-06
1.26572e-06
1.26572e-06
1.26572e-06
1.26572e-06
1.26572e-06
1.26995e-06
1.27191e-06
1.27187e-06
1.26929e-06
1.26572e-06
1.26572e-06
1.26572e-06
1.26572e-06
1.26572e-06
1.26572e-06
1.27003e-06
1.2717e-06
1.2717e-06
1.26921e-06
1.26572e-06
1.26572e-06
1.26572e-06
1.26572e-06
1.26572e-06
1.26572e-06
1.27001e-06
1.27006e-06
1.26939e-06
1.26572e-06
1.26572e-06
1.26572e-06
1.26572e-06
1.26572e-06
1.26572e-06
1.27001e-06
1.27202e-06
1.27147e-06
1.26906e-06
1.26572e-06
1.26572e-06
1.26572e-06
1.26572e-06
1.26976e-06
1.27002e-06
1.27195e-06
1.27174e-06
1.26988e-06
1.26995e-06
1.27003e-06
1.27e-06
1.27001e-06
1.27002e-06
1.27194e-06
1.27191e-06
1.2717e-06
1.27006e-06
1.27202e-06
1.27195e-06
1.253e-06
1.25283e-06
1.25265e-06
1.25053e-06
1.25041e-06
1.25034e-06
1.25051e-06
1.25259e-06
1.25286e-06
1.25266e-06
1.24985e-06
1.24685e-06
1.24685e-06
1.24685e-06
1.24685e-06
1.25018e-06
1.25101e-06
1.25053e-06
1.24685e-06
1.24685e-06
1.24685e-06
1.24685e-06
1.24685e-06
1.24685e-06
1.25108e-06
1.25304e-06
1.25299e-06
1.25041e-06
1.24685e-06
1.24685e-06
1.24685e-06
1.24685e-06
1.24685e-06
1.24685e-06
1.25115e-06
1.25283e-06
1.25283e-06
1.25034e-06
1.24685e-06
1.24685e-06
1.24685e-06
1.24685e-06
1.24685e-06
1.24685e-06
1.25113e-06
1.25118e-06
1.25051e-06
1.24685e-06
1.24685e-06
1.24685e-06
1.24685e-06
1.24685e-06
1.24685e-06
1.25114e-06
1.25315e-06
1.25259e-06
1.25019e-06
1.24685e-06
1.24685e-06
1.24685e-06
1.24685e-06
1.25088e-06
1.25115e-06
1.25307e-06
1.25286e-06
1.25101e-06
1.25108e-06
1.25115e-06
1.25113e-06
1.25114e-06
1.25114e-06
1.25307e-06
1.25304e-06
1.25283e-06
1.25118e-06
1.25314e-06
1.25307e-06
1.23412e-06
1.23395e-06
1.23378e-06
1.23165e-06
1.23153e-06
1.23146e-06
1.23163e-06
1.23372e-06
1.23398e-06
1.23378e-06
1.23097e-06
1.22797e-06
1.22797e-06
1.22797e-06
1.22797e-06
1.23131e-06
1.23213e-06
1.23165e-06
1.22797e-06
1.22797e-06
1.22797e-06
1.22797e-06
1.22797e-06
1.22797e-06
1.2322e-06
1.23416e-06
1.23412e-06
1.23153e-06
1.22797e-06
1.22797e-06
1.22797e-06
1.22797e-06
1.22797e-06
1.22797e-06
1.23228e-06
1.23395e-06
1.23395e-06
1.23146e-06
1.22797e-06
1.22797e-06
1.22797e-06
1.22797e-06
1.22797e-06
1.22797e-06
1.23225e-06
1.23231e-06
1.23163e-06
1.22797e-06
1.22797e-06
1.22797e-06
1.22797e-06
1.22797e-06
1.22797e-06
1.23226e-06
1.23427e-06
1.23372e-06
1.23131e-06
1.22797e-06
1.22797e-06
1.22797e-06
1.22797e-06
1.23201e-06
1.23227e-06
1.2342e-06
1.23398e-06
1.23213e-06