/*--------------------------------*- C++ -*----------------------------------*\
| =========                 |                                                 |
| \\      /  F ield         | OpenFOAM: The Open Source CFD Toolbox           |
|  \\    /   O peration     | Version:  v2012                                 |
|   \\  /    A nd           | Website:  www.openfoam.com                      |
|    \\/     M anipulation  |                                                 |
\*---------------------------------------------------------------------------*/
FoamFile
{
    version     2.0;
    format      ascii;
    class       volScalarField;
    location    "80.5";
    object      p;
}
// * * * * * * * * * * * * * * * * * * * * * * * * * * * * * * * * * * * * * //

dimensions      [0 2 -2 0 0 0 0];


internalField   nonuniform List<scalar> 
247104
(
9.34023e-07
9.33988e-07
9.33982e-07
9.33945e-07
9.33921e-07
9.3395e-07
9.33983e-07
9.33978e-07
9.33988e-07
9.33966e-07
9.33807e-07
9.33653e-07
9.33599e-07
9.33668e-07
9.33829e-07
9.33978e-07
9.33982e-07
9.33807e-07
9.33527e-07
9.33315e-07
9.33245e-07
9.33335e-07
9.3356e-07
9.33839e-07
9.33984e-07
9.33945e-07
9.33653e-07
9.33315e-07
9.33076e-07
9.32997e-07
9.33097e-07
9.33354e-07
9.33696e-07
9.33966e-07
9.34023e-07
9.33921e-07
9.33599e-07
9.33245e-07
9.32997e-07
9.32917e-07
9.3302e-07
9.33285e-07
9.33645e-07
9.33947e-07
9.3395e-07
9.33668e-07
9.33335e-07
9.33097e-07
9.3302e-07
9.33119e-07
9.33373e-07
9.33711e-07
9.33969e-07
9.33983e-07
9.33829e-07
9.3356e-07
9.33354e-07
9.33285e-07
9.33373e-07
9.33593e-07
9.3386e-07
9.33982e-07
9.33978e-07
9.33978e-07
9.33839e-07
9.33696e-07
9.33645e-07
9.33711e-07
9.3386e-07
9.33987e-07
9.33984e-07
9.33966e-07
9.33947e-07
9.33969e-07
9.33982e-07
9.21015e-07
9.20966e-07
9.20722e-07
9.20042e-07
9.19999e-07
9.19971e-07
9.20037e-07
9.20803e-07
9.20805e-07
9.20722e-07
9.19696e-07
9.18444e-07
9.18448e-07
9.18449e-07
9.18444e-07
9.19869e-07
9.2024e-07
9.20042e-07
9.18444e-07
9.18447e-07
9.18461e-07
9.18461e-07
9.18447e-07
9.18444e-07
9.20338e-07
9.21044e-07
9.21015e-07
9.19999e-07
9.18449e-07
9.18461e-07
9.18473e-07
9.18474e-07
9.18461e-07
9.18449e-07
9.20371e-07
9.20986e-07
9.20966e-07
9.19971e-07
9.18449e-07
9.18461e-07
9.18474e-07
9.18474e-07
9.18461e-07
9.18449e-07
9.20354e-07
9.20384e-07
9.20037e-07
9.18444e-07
9.18447e-07
9.18461e-07
9.18461e-07
9.18447e-07
9.18444e-07
9.20358e-07
9.21111e-07
9.20803e-07
9.19869e-07
9.18444e-07
9.18449e-07
9.18449e-07
9.18444e-07
9.20157e-07
9.20322e-07
9.20994e-07
9.20805e-07
9.2024e-07
9.20338e-07
9.20371e-07
9.20354e-07
9.20358e-07
9.20323e-07
9.20943e-07
9.21044e-07
9.20986e-07
9.20384e-07
9.21111e-07
9.20995e-07
9.1113e-07
9.111e-07
9.10947e-07
9.10221e-07
9.10158e-07
9.10129e-07
9.10213e-07
9.11027e-07
9.11052e-07
9.10947e-07
9.09866e-07
9.08577e-07
9.0858e-07
9.0858e-07
9.08577e-07
9.10023e-07
9.10427e-07
9.10221e-07
9.08577e-07
9.0858e-07
9.08587e-07
9.08587e-07
9.0858e-07
9.08577e-07
9.10496e-07
9.11235e-07
9.1113e-07
9.10158e-07
9.0858e-07
9.08587e-07
9.08594e-07
9.08594e-07
9.08587e-07
9.0858e-07
9.1051e-07
9.11128e-07
9.111e-07
9.10129e-07
9.0858e-07
9.08587e-07
9.08594e-07
9.08594e-07
9.08587e-07
9.0858e-07
9.10489e-07
9.10554e-07
9.10213e-07
9.08577e-07
9.0858e-07
9.08587e-07
9.08587e-07
9.0858e-07
9.08577e-07
9.1051e-07
9.11277e-07
9.11027e-07
9.10023e-07
9.08577e-07
9.08579e-07
9.0858e-07
9.08577e-07
9.10295e-07
9.10504e-07
9.11214e-07
9.11052e-07
9.10427e-07
9.10496e-07
9.1051e-07
9.10489e-07
9.1051e-07
9.10504e-07
9.11188e-07
9.11235e-07
9.11128e-07
9.10554e-07
9.11277e-07
9.11214e-07
9.01299e-07
9.01269e-07
9.01116e-07
9.00387e-07
9.00324e-07
9.00295e-07
9.0038e-07
9.01196e-07
9.01221e-07
9.01116e-07
9.00032e-07
8.98735e-07
8.98736e-07
8.98736e-07
8.98735e-07
9.00188e-07
9.00594e-07
9.00387e-07
8.98735e-07
8.98737e-07
8.9874e-07
8.9874e-07
8.98737e-07
8.98735e-07
9.0066e-07
9.01403e-07
9.01299e-07
9.00323e-07
8.98736e-07
8.9874e-07
8.98743e-07
8.98743e-07
8.9874e-07
8.98736e-07
9.00672e-07
9.01297e-07
9.01269e-07
9.00295e-07
8.98736e-07
8.9874e-07
8.98743e-07
8.98743e-07
8.9874e-07
8.98737e-07
9.00651e-07
9.00721e-07
9.0038e-07
8.98735e-07
8.98737e-07
8.9874e-07
8.9874e-07
8.98737e-07
8.98735e-07
9.00674e-07
9.01446e-07
9.01196e-07
9.00188e-07
8.98735e-07
8.98736e-07
8.98736e-07
8.98735e-07
9.00457e-07
9.0067e-07
9.01381e-07
9.01221e-07
9.00594e-07
9.0066e-07
9.00672e-07
9.00651e-07
9.00674e-07
9.0067e-07
9.01358e-07
9.01403e-07
9.01297e-07
9.00721e-07
9.01446e-07
9.01381e-07
8.91461e-07
8.91431e-07
8.91278e-07
8.90549e-07
8.90485e-07
8.90457e-07
8.90542e-07
8.91358e-07
8.91383e-07
8.91278e-07
8.90194e-07
8.88895e-07
8.88896e-07
8.88896e-07
8.88895e-07
8.90349e-07
8.90756e-07
8.90549e-07
8.88895e-07
8.88897e-07
8.88898e-07
8.88898e-07
8.88897e-07
8.88895e-07
8.90822e-07
8.91566e-07
8.91461e-07
8.90485e-07
8.88896e-07
8.88898e-07
8.88899e-07
8.88899e-07
8.88898e-07
8.88896e-07
8.90833e-07
8.91459e-07
8.91431e-07
8.90457e-07
8.88896e-07
8.88898e-07
8.88899e-07
8.88899e-07
8.88898e-07
8.88896e-07
8.90811e-07
8.90883e-07
8.90542e-07
8.88895e-07
8.88897e-07
8.88898e-07
8.88898e-07
8.88897e-07
8.88895e-07
8.90835e-07
8.91608e-07
8.91358e-07
8.90349e-07
8.88895e-07
8.88896e-07
8.88896e-07
8.88895e-07
8.90618e-07
8.90832e-07
8.91543e-07
8.91383e-07
8.90756e-07
8.90822e-07
8.90833e-07
8.90811e-07
8.90835e-07
8.90832e-07
8.9152e-07
8.91566e-07
8.91459e-07
8.90883e-07
8.91608e-07
8.91543e-07
8.81622e-07
8.81592e-07
8.81439e-07
8.8071e-07
8.80646e-07
8.80618e-07
8.80703e-07
8.8152e-07
8.81545e-07
8.81439e-07
8.80356e-07
8.79056e-07
8.79057e-07
8.79057e-07
8.79057e-07
8.8051e-07
8.80918e-07
8.8071e-07
8.79057e-07
8.79058e-07
8.79058e-07
8.79058e-07
8.79058e-07
8.79057e-07
8.80983e-07
8.81727e-07
8.81622e-07
8.80646e-07
8.79057e-07
8.79058e-07
8.79059e-07
8.79059e-07
8.79058e-07
8.79057e-07
8.80994e-07
8.8162e-07
8.81592e-07
8.80618e-07
8.79057e-07
8.79058e-07
8.79059e-07
8.79059e-07
8.79058e-07
8.79057e-07
8.80973e-07
8.81045e-07
8.80703e-07
8.79057e-07
8.79058e-07
8.79058e-07
8.79058e-07
8.79058e-07
8.79056e-07
8.80997e-07
8.8177e-07
8.8152e-07
8.8051e-07
8.79056e-07
8.79057e-07
8.79057e-07
8.79057e-07
8.8078e-07
8.80994e-07
8.81705e-07
8.81545e-07
8.80918e-07
8.80983e-07
8.80994e-07
8.80973e-07
8.80997e-07
8.80994e-07
8.81682e-07
8.81727e-07
8.8162e-07
8.81045e-07
8.8177e-07
8.81705e-07
8.71784e-07
8.71754e-07
8.71601e-07
8.70872e-07
8.70808e-07
8.7078e-07
8.70864e-07
8.71681e-07
8.71706e-07
8.71601e-07
8.70517e-07
8.69218e-07
8.69218e-07
8.69218e-07
8.69218e-07
8.70672e-07
8.71079e-07
8.70872e-07
8.69218e-07
8.69219e-07
8.69219e-07
8.69219e-07
8.69219e-07
8.69218e-07
8.71145e-07
8.71889e-07
8.71784e-07
8.70808e-07
8.69218e-07
8.69219e-07
8.69219e-07
8.69219e-07
8.69219e-07
8.69218e-07
8.71156e-07
8.71782e-07
8.71754e-07
8.7078e-07
8.69218e-07
8.69219e-07
8.69219e-07
8.69219e-07
8.69219e-07
8.69218e-07
8.71134e-07
8.71206e-07
8.70864e-07
8.69218e-07
8.69219e-07
8.69219e-07
8.69219e-07
8.69219e-07
8.69218e-07
8.71158e-07
8.71931e-07
8.71681e-07
8.70672e-07
8.69218e-07
8.69218e-07
8.69218e-07
8.69218e-07
8.70941e-07
8.71155e-07
8.71866e-07
8.71706e-07
8.71079e-07
8.71145e-07
8.71156e-07
8.71134e-07
8.71158e-07
8.71155e-07
8.71844e-07
8.71889e-07
8.71782e-07
8.71206e-07
8.71931e-07
8.71866e-07
8.61945e-07
8.61916e-07
8.61762e-07
8.61033e-07
8.60969e-07
8.60941e-07
8.61026e-07
8.61843e-07
8.61868e-07
8.61762e-07
8.60679e-07
8.59379e-07
8.5938e-07
8.5938e-07
8.59379e-07
8.60834e-07
8.61241e-07
8.61033e-07
8.59379e-07
8.59381e-07
8.5938e-07
8.5938e-07
8.59381e-07
8.59379e-07
8.61306e-07
8.6205e-07
8.61945e-07
8.60969e-07
8.5938e-07
8.5938e-07
8.5938e-07
8.5938e-07
8.5938e-07
8.5938e-07
8.61317e-07
8.61944e-07
8.61915e-07
8.60941e-07
8.59379e-07
8.5938e-07
8.5938e-07
8.5938e-07
8.5938e-07
8.59379e-07
8.61296e-07
8.61368e-07
8.61026e-07
8.59379e-07
8.59381e-07
8.5938e-07
8.5938e-07
8.59381e-07
8.59379e-07
8.6132e-07
8.62093e-07
8.61843e-07
8.60834e-07
8.59379e-07
8.59379e-07
8.59379e-07
8.59379e-07
8.61103e-07
8.61317e-07
8.62028e-07
8.61868e-07
8.61241e-07
8.61306e-07
8.61317e-07
8.61296e-07
8.6132e-07
8.61317e-07
8.62005e-07
8.6205e-07
8.61944e-07
8.61368e-07
8.62093e-07
8.62028e-07
8.52107e-07
8.52077e-07
8.51924e-07
8.51195e-07
8.51131e-07
8.51103e-07
8.51188e-07
8.52004e-07
8.5203e-07
8.51924e-07
8.5084e-07
8.49541e-07
8.49541e-07
8.49541e-07
8.49541e-07
8.50995e-07
8.51402e-07
8.51195e-07
8.49541e-07
8.49542e-07
8.49542e-07
8.49542e-07
8.49542e-07
8.49541e-07
8.51468e-07
8.52212e-07
8.52107e-07
8.51131e-07
8.49541e-07
8.49542e-07
8.49541e-07
8.49541e-07
8.49542e-07
8.49541e-07
8.51479e-07
8.52105e-07
8.52077e-07
8.51103e-07
8.49541e-07
8.49542e-07
8.49542e-07
8.49541e-07
8.49542e-07
8.49541e-07
8.51457e-07
8.51529e-07
8.51188e-07
8.49541e-07
8.49542e-07
8.49542e-07
8.49542e-07
8.49542e-07
8.49541e-07
8.51481e-07
8.52254e-07
8.52004e-07
8.50995e-07
8.49541e-07
8.49541e-07
8.49541e-07
8.49541e-07
8.51264e-07
8.51478e-07
8.52189e-07
8.5203e-07
8.51402e-07
8.51468e-07
8.51479e-07
8.51457e-07
8.51481e-07
8.51478e-07
8.52167e-07
8.52212e-07
8.52105e-07
8.51529e-07
8.52254e-07
8.52189e-07
8.42268e-07
8.42239e-07
8.42086e-07
8.41357e-07
8.41293e-07
8.41264e-07
8.41349e-07
8.42166e-07
8.42191e-07
8.42086e-07
8.41002e-07
8.39702e-07
8.39703e-07
8.39703e-07
8.39702e-07
8.41157e-07
8.41564e-07
8.41357e-07
8.39702e-07
8.39704e-07
8.39703e-07
8.39703e-07
8.39704e-07
8.39702e-07
8.4163e-07
8.42373e-07
8.42268e-07
8.41292e-07
8.39703e-07
8.39703e-07
8.39703e-07
8.39703e-07
8.39703e-07
8.39703e-07
8.4164e-07
8.42267e-07
8.42239e-07
8.41264e-07
8.39703e-07
8.39703e-07
8.39703e-07
8.39703e-07
8.39703e-07
8.39703e-07
8.41619e-07
8.41691e-07
8.41349e-07
8.39702e-07
8.39704e-07
8.39703e-07
8.39703e-07
8.39704e-07
8.39702e-07
8.41643e-07
8.42416e-07
8.42166e-07
8.41157e-07
8.39702e-07
8.39703e-07
8.39703e-07
8.39702e-07
8.41426e-07
8.4164e-07
8.42351e-07
8.42191e-07
8.41564e-07
8.4163e-07
8.4164e-07
8.41619e-07
8.41643e-07
8.4164e-07
8.42328e-07
8.42374e-07
8.42267e-07
8.41691e-07
8.42416e-07
8.42351e-07
8.3243e-07
8.324e-07
8.32247e-07
8.31518e-07
8.31454e-07
8.31426e-07
8.31511e-07
8.32327e-07
8.32353e-07
8.32247e-07
8.31163e-07
8.29864e-07
8.29864e-07
8.29864e-07
8.29864e-07
8.31318e-07
8.31726e-07
8.31518e-07
8.29864e-07
8.29865e-07
8.29865e-07
8.29865e-07
8.29865e-07
8.29864e-07
8.31791e-07
8.32535e-07
8.3243e-07
8.31454e-07
8.29864e-07
8.29865e-07
8.29864e-07
8.29864e-07
8.29865e-07
8.29864e-07
8.31802e-07
8.32428e-07
8.324e-07
8.31426e-07
8.29864e-07
8.29865e-07
8.29864e-07
8.29864e-07
8.29865e-07
8.29864e-07
8.3178e-07
8.31852e-07
8.31511e-07
8.29864e-07
8.29865e-07
8.29865e-07
8.29865e-07
8.29865e-07
8.29864e-07
8.31804e-07
8.32578e-07
8.32327e-07
8.31318e-07
8.29864e-07
8.29864e-07
8.29864e-07
8.29864e-07
8.31587e-07
8.31801e-07
8.32513e-07
8.32353e-07
8.31726e-07
8.31791e-07
8.31802e-07
8.3178e-07
8.31804e-07
8.31802e-07
8.3249e-07
8.32535e-07
8.32428e-07
8.31852e-07
8.32578e-07
8.32513e-07
8.22592e-07
8.22562e-07
8.22409e-07
8.2168e-07
8.21616e-07
8.21587e-07
8.21672e-07
8.22489e-07
8.22514e-07
8.22409e-07
8.21325e-07
8.20025e-07
8.20026e-07
8.20026e-07
8.20025e-07
8.2148e-07
8.21887e-07
8.2168e-07
8.20025e-07
8.20027e-07
8.20026e-07
8.20026e-07
8.20027e-07
8.20025e-07
8.21953e-07
8.22696e-07
8.22592e-07
8.21616e-07
8.20026e-07
8.20026e-07
8.20026e-07
8.20026e-07
8.20026e-07
8.20026e-07
8.21963e-07
8.2259e-07
8.22562e-07
8.21587e-07
8.20026e-07
8.20026e-07
8.20026e-07
8.20026e-07
8.20026e-07
8.20026e-07
8.21942e-07
8.22014e-07
8.21672e-07
8.20025e-07
8.20027e-07
8.20026e-07
8.20026e-07
8.20027e-07
8.20025e-07
8.21966e-07
8.22739e-07
8.22489e-07
8.2148e-07
8.20025e-07
8.20026e-07
8.20026e-07
8.20025e-07
8.21749e-07
8.21963e-07
8.22674e-07
8.22514e-07
8.21887e-07
8.21953e-07
8.21963e-07
8.21942e-07
8.21966e-07
8.21963e-07
8.22651e-07
8.22697e-07
8.2259e-07
8.22014e-07
8.22739e-07
8.22674e-07
8.12753e-07
8.12723e-07
8.1257e-07
8.11841e-07
8.11777e-07
8.11749e-07
8.11834e-07
8.1265e-07
8.12676e-07
8.1257e-07
8.11487e-07
8.10187e-07
8.10187e-07
8.10187e-07
8.10187e-07
8.11641e-07
8.12049e-07
8.11841e-07
8.10187e-07
8.10188e-07
8.10188e-07
8.10188e-07
8.10188e-07
8.10187e-07
8.12114e-07
8.12858e-07
8.12753e-07
8.11777e-07
8.10187e-07
8.10188e-07
8.10187e-07
8.10187e-07
8.10188e-07
8.10187e-07
8.12125e-07
8.12751e-07
8.12723e-07
8.11749e-07
8.10187e-07
8.10188e-07
8.10187e-07
8.10187e-07
8.10188e-07
8.10187e-07
8.12103e-07
8.12175e-07
8.11834e-07
8.10187e-07
8.10188e-07
8.10188e-07
8.10188e-07
8.10188e-07
8.10187e-07
8.12127e-07
8.12901e-07
8.1265e-07
8.11641e-07
8.10187e-07
8.10187e-07
8.10187e-07
8.10187e-07
8.1191e-07
8.12124e-07
8.12836e-07
8.12676e-07
8.12049e-07
8.12114e-07
8.12125e-07
8.12103e-07
8.12127e-07
8.12125e-07
8.12813e-07
8.12858e-07
8.12751e-07
8.12175e-07
8.12901e-07
8.12836e-07
8.02915e-07
8.02885e-07
8.02732e-07
8.02003e-07
8.01939e-07
8.01911e-07
8.01995e-07
8.02812e-07
8.02837e-07
8.02732e-07
8.01648e-07
8.00348e-07
8.00349e-07
8.00349e-07
8.00348e-07
8.01803e-07
8.0221e-07
8.02003e-07
8.00348e-07
8.0035e-07
8.00349e-07
8.00349e-07
8.0035e-07
8.00348e-07
8.02276e-07
8.0302e-07
8.02915e-07
8.01939e-07
8.00349e-07
8.00349e-07
8.00349e-07
8.00349e-07
8.00349e-07
8.00349e-07
8.02286e-07
8.02913e-07
8.02885e-07
8.0191e-07
8.00349e-07
8.00349e-07
8.00349e-07
8.00349e-07
8.00349e-07
8.00349e-07
8.02265e-07
8.02337e-07
8.01995e-07
8.00348e-07
8.0035e-07
8.00349e-07
8.00349e-07
8.0035e-07
8.00348e-07
8.02289e-07
8.03062e-07
8.02812e-07
8.01803e-07
8.00348e-07
8.00349e-07
8.00349e-07
8.00348e-07
8.02072e-07
8.02286e-07
8.02997e-07
8.02837e-07
8.0221e-07
8.02276e-07
8.02286e-07
8.02265e-07
8.02289e-07
8.02286e-07
8.02975e-07
8.0302e-07
8.02913e-07
8.02337e-07
8.03062e-07
8.02997e-07
7.93076e-07
7.93046e-07
7.92893e-07
7.92164e-07
7.921e-07
7.92072e-07
7.92157e-07
7.92974e-07
7.92999e-07
7.92893e-07
7.9181e-07
7.9051e-07
7.9051e-07
7.9051e-07
7.9051e-07
7.91964e-07
7.92372e-07
7.92164e-07
7.9051e-07
7.90511e-07
7.90511e-07
7.90511e-07
7.90511e-07
7.9051e-07
7.92437e-07
7.93181e-07
7.93076e-07
7.921e-07
7.9051e-07
7.90511e-07
7.9051e-07
7.9051e-07
7.90511e-07
7.9051e-07
7.92448e-07
7.93074e-07
7.93046e-07
7.92072e-07
7.9051e-07
7.90511e-07
7.9051e-07
7.9051e-07
7.90511e-07
7.9051e-07
7.92426e-07
7.92498e-07
7.92157e-07
7.9051e-07
7.90511e-07
7.90511e-07
7.90511e-07
7.90511e-07
7.9051e-07
7.9245e-07
7.93224e-07
7.92973e-07
7.91964e-07
7.9051e-07
7.9051e-07
7.9051e-07
7.9051e-07
7.92233e-07
7.92447e-07
7.93159e-07
7.92999e-07
7.92372e-07
7.92437e-07
7.92448e-07
7.92426e-07
7.9245e-07
7.92448e-07
7.93136e-07
7.93181e-07
7.93074e-07
7.92498e-07
7.93224e-07
7.93159e-07
7.83238e-07
7.83208e-07
7.83055e-07
7.82326e-07
7.82262e-07
7.82234e-07
7.82318e-07
7.83135e-07
7.8316e-07
7.83055e-07
7.81971e-07
7.80671e-07
7.80672e-07
7.80672e-07
7.80671e-07
7.82126e-07
7.82533e-07
7.82326e-07
7.80671e-07
7.80673e-07
7.80672e-07
7.80672e-07
7.80673e-07
7.80671e-07
7.82599e-07
7.83343e-07
7.83238e-07
7.82262e-07
7.80672e-07
7.80672e-07
7.80672e-07
7.80672e-07
7.80672e-07
7.80672e-07
7.82609e-07
7.83236e-07
7.83208e-07
7.82234e-07
7.80672e-07
7.80672e-07
7.80672e-07
7.80672e-07
7.80672e-07
7.80672e-07
7.82588e-07
7.8266e-07
7.82318e-07
7.80671e-07
7.80673e-07
7.80672e-07
7.80672e-07
7.80673e-07
7.80671e-07
7.82612e-07
7.83385e-07
7.83135e-07
7.82126e-07
7.80671e-07
7.80672e-07
7.80672e-07
7.80671e-07
7.82395e-07
7.82609e-07
7.8332e-07
7.8316e-07
7.82533e-07
7.82599e-07
7.82609e-07
7.82588e-07
7.82612e-07
7.82609e-07
7.83298e-07
7.83343e-07
7.83236e-07
7.8266e-07
7.83385e-07
7.8332e-07
7.73399e-07
7.73369e-07
7.73216e-07
7.72487e-07
7.72423e-07
7.72395e-07
7.7248e-07
7.73296e-07
7.73322e-07
7.73216e-07
7.72133e-07
7.70833e-07
7.70833e-07
7.70833e-07
7.70833e-07
7.72287e-07
7.72695e-07
7.72487e-07
7.70833e-07
7.70834e-07
7.70834e-07
7.70834e-07
7.70834e-07
7.70833e-07
7.7276e-07
7.73504e-07
7.73399e-07
7.72423e-07
7.70833e-07
7.70834e-07
7.70834e-07
7.70834e-07
7.70834e-07
7.70833e-07
7.72771e-07
7.73397e-07
7.73369e-07
7.72395e-07
7.70833e-07
7.70834e-07
7.70834e-07
7.70834e-07
7.70834e-07
7.70833e-07
7.72749e-07
7.72821e-07
7.7248e-07
7.70833e-07
7.70834e-07
7.70834e-07
7.70834e-07
7.70834e-07
7.70833e-07
7.72773e-07
7.73547e-07
7.73296e-07
7.72287e-07
7.70833e-07
7.70833e-07
7.70833e-07
7.70833e-07
7.72556e-07
7.72771e-07
7.73482e-07
7.73322e-07
7.72695e-07
7.7276e-07
7.72771e-07
7.72749e-07
7.72773e-07
7.72771e-07
7.73459e-07
7.73504e-07
7.73397e-07
7.72821e-07
7.73547e-07
7.73482e-07
7.63561e-07
7.63531e-07
7.63378e-07
7.62649e-07
7.62585e-07
7.62557e-07
7.62641e-07
7.63458e-07
7.63483e-07
7.63378e-07
7.62294e-07
7.60995e-07
7.60995e-07
7.60995e-07
7.60995e-07
7.62449e-07
7.62856e-07
7.62649e-07
7.60995e-07
7.60996e-07
7.60995e-07
7.60995e-07
7.60996e-07
7.60995e-07
7.62922e-07
7.63666e-07
7.63561e-07
7.62585e-07
7.60995e-07
7.60995e-07
7.60995e-07
7.60995e-07
7.60995e-07
7.60995e-07
7.62932e-07
7.63559e-07
7.63531e-07
7.62557e-07
7.60995e-07
7.60995e-07
7.60995e-07
7.60995e-07
7.60995e-07
7.60995e-07
7.62911e-07
7.62983e-07
7.62641e-07
7.60995e-07
7.60996e-07
7.60995e-07
7.60995e-07
7.60996e-07
7.60995e-07
7.62935e-07
7.63708e-07
7.63458e-07
7.62449e-07
7.60995e-07
7.60995e-07
7.60995e-07
7.60995e-07
7.62718e-07
7.62932e-07
7.63643e-07
7.63483e-07
7.62856e-07
7.62922e-07
7.62932e-07
7.62911e-07
7.62935e-07
7.62932e-07
7.63621e-07
7.63666e-07
7.63559e-07
7.62983e-07
7.63708e-07
7.63643e-07
7.53722e-07
7.53692e-07
7.53539e-07
7.5281e-07
7.52746e-07
7.52718e-07
7.52803e-07
7.53619e-07
7.53645e-07
7.53539e-07
7.52456e-07
7.51156e-07
7.51156e-07
7.51156e-07
7.51156e-07
7.5261e-07
7.53018e-07
7.5281e-07
7.51156e-07
7.51157e-07
7.51157e-07
7.51157e-07
7.51157e-07
7.51156e-07
7.53083e-07
7.53827e-07
7.53722e-07
7.52746e-07
7.51156e-07
7.51157e-07
7.51157e-07
7.51157e-07
7.51157e-07
7.51156e-07
7.53094e-07
7.5372e-07
7.53692e-07
7.52718e-07
7.51156e-07
7.51157e-07
7.51157e-07
7.51157e-07
7.51157e-07
7.51156e-07
7.53072e-07
7.53144e-07
7.52803e-07
7.51156e-07
7.51157e-07
7.51157e-07
7.51157e-07
7.51157e-07
7.51156e-07
7.53096e-07
7.5387e-07
7.53619e-07
7.5261e-07
7.51156e-07
7.51156e-07
7.51156e-07
7.51156e-07
7.5288e-07
7.53094e-07
7.53805e-07
7.53645e-07
7.53018e-07
7.53083e-07
7.53094e-07
7.53072e-07
7.53096e-07
7.53094e-07
7.53782e-07
7.53827e-07
7.5372e-07
7.53145e-07
7.5387e-07
7.53805e-07
7.43884e-07
7.43854e-07
7.43701e-07
7.42972e-07
7.42908e-07
7.4288e-07
7.42964e-07
7.43781e-07
7.43806e-07
7.43701e-07
7.42617e-07
7.41318e-07
7.41318e-07
7.41318e-07
7.41317e-07
7.42772e-07
7.43179e-07
7.42972e-07
7.41318e-07
7.41319e-07
7.41318e-07
7.41318e-07
7.41319e-07
7.41317e-07
7.43245e-07
7.43989e-07
7.43884e-07
7.42908e-07
7.41318e-07
7.41318e-07
7.41318e-07
7.41318e-07
7.41318e-07
7.41318e-07
7.43255e-07
7.43882e-07
7.43854e-07
7.4288e-07
7.41318e-07
7.41318e-07
7.41318e-07
7.41318e-07
7.41318e-07
7.41318e-07
7.43234e-07
7.43306e-07
7.42964e-07
7.41318e-07
7.41319e-07
7.41318e-07
7.41318e-07
7.41319e-07
7.41318e-07
7.43258e-07
7.44031e-07
7.43781e-07
7.42772e-07
7.41318e-07
7.41318e-07
7.41318e-07
7.41318e-07
7.43041e-07
7.43255e-07
7.43966e-07
7.43806e-07
7.43179e-07
7.43245e-07
7.43255e-07
7.43234e-07
7.43258e-07
7.43255e-07
7.43944e-07
7.43989e-07
7.43882e-07
7.43306e-07
7.44031e-07
7.43966e-07
7.34045e-07
7.34015e-07
7.33862e-07
7.33133e-07
7.33069e-07
7.33041e-07
7.33126e-07
7.33942e-07
7.33968e-07
7.33862e-07
7.32779e-07
7.31479e-07
7.31479e-07
7.31479e-07
7.31479e-07
7.32933e-07
7.33341e-07
7.33133e-07
7.31479e-07
7.31481e-07
7.3148e-07
7.3148e-07
7.31481e-07
7.31479e-07
7.33406e-07
7.3415e-07
7.34045e-07
7.33069e-07
7.31479e-07
7.3148e-07
7.3148e-07
7.3148e-07
7.3148e-07
7.31479e-07
7.33417e-07
7.34043e-07
7.34015e-07
7.33041e-07
7.31479e-07
7.3148e-07
7.3148e-07
7.3148e-07
7.3148e-07
7.31479e-07
7.33395e-07
7.33468e-07
7.33126e-07
7.31479e-07
7.3148e-07
7.3148e-07
7.3148e-07
7.3148e-07
7.31479e-07
7.33419e-07
7.34193e-07
7.33942e-07
7.32933e-07
7.31479e-07
7.31479e-07
7.31479e-07
7.31479e-07
7.33203e-07
7.33417e-07
7.34128e-07
7.33968e-07
7.33341e-07
7.33406e-07
7.33417e-07
7.33395e-07
7.33419e-07
7.33417e-07
7.34105e-07
7.3415e-07
7.34043e-07
7.33467e-07
7.34193e-07
7.34128e-07
7.24207e-07
7.24177e-07
7.24024e-07
7.23295e-07
7.23231e-07
7.23203e-07
7.23287e-07
7.24104e-07
7.24129e-07
7.24024e-07
7.2294e-07
7.21641e-07
7.21641e-07
7.21641e-07
7.21641e-07
7.23095e-07
7.23502e-07
7.23295e-07
7.21641e-07
7.21642e-07
7.21641e-07
7.21641e-07
7.21642e-07
7.21641e-07
7.23568e-07
7.24312e-07
7.24207e-07
7.23231e-07
7.21641e-07
7.21641e-07
7.21641e-07
7.21641e-07
7.21641e-07
7.21641e-07
7.23578e-07
7.24205e-07
7.24177e-07
7.23203e-07
7.21641e-07
7.21641e-07
7.21641e-07
7.21641e-07
7.21641e-07
7.21641e-07
7.23557e-07
7.23629e-07
7.23287e-07
7.21641e-07
7.21642e-07
7.21641e-07
7.21641e-07
7.21642e-07
7.21641e-07
7.23581e-07
7.24354e-07
7.24104e-07
7.23095e-07
7.21641e-07
7.21641e-07
7.21641e-07
7.21641e-07
7.23364e-07
7.23578e-07
7.24289e-07
7.24129e-07
7.23502e-07
7.23568e-07
7.23578e-07
7.23557e-07
7.23581e-07
7.23578e-07
7.24267e-07
7.24312e-07
7.24205e-07
7.23629e-07
7.24354e-07
7.24289e-07
7.14368e-07
7.14338e-07
7.14185e-07
7.13456e-07
7.13392e-07
7.13364e-07
7.13449e-07
7.14266e-07
7.14291e-07
7.14185e-07
7.13102e-07
7.11802e-07
7.11802e-07
7.11802e-07
7.11802e-07
7.13256e-07
7.13664e-07
7.13456e-07
7.11802e-07
7.11804e-07
7.11803e-07
7.11803e-07
7.11804e-07
7.11802e-07
7.13729e-07
7.14473e-07
7.14368e-07
7.13392e-07
7.11802e-07
7.11803e-07
7.11803e-07
7.11803e-07
7.11803e-07
7.11802e-07
7.1374e-07
7.14366e-07
7.14338e-07
7.13364e-07
7.11802e-07
7.11803e-07
7.11803e-07
7.11803e-07
7.11803e-07
7.11802e-07
7.13718e-07
7.13791e-07
7.13449e-07
7.11802e-07
7.11804e-07
7.11803e-07
7.11803e-07
7.11804e-07
7.11802e-07
7.13742e-07
7.14516e-07
7.14266e-07
7.13256e-07
7.11802e-07
7.11802e-07
7.11802e-07
7.11802e-07
7.13526e-07
7.1374e-07
7.14451e-07
7.14291e-07
7.13664e-07
7.13729e-07
7.1374e-07
7.13718e-07
7.13742e-07
7.1374e-07
7.14428e-07
7.14473e-07
7.14366e-07
7.13791e-07
7.14516e-07
7.14451e-07
7.0453e-07
7.045e-07
7.04347e-07
7.03618e-07
7.03554e-07
7.03526e-07
7.0361e-07
7.04427e-07
7.04452e-07
7.04347e-07
7.03263e-07
7.01964e-07
7.01964e-07
7.01964e-07
7.01964e-07
7.03418e-07
7.03825e-07
7.03618e-07
7.01964e-07
7.01965e-07
7.01964e-07
7.01964e-07
7.01965e-07
7.01964e-07
7.03891e-07
7.04635e-07
7.0453e-07
7.03554e-07
7.01964e-07
7.01964e-07
7.01964e-07
7.01964e-07
7.01964e-07
7.01964e-07
7.03901e-07
7.04528e-07
7.045e-07
7.03526e-07
7.01964e-07
7.01964e-07
7.01964e-07
7.01964e-07
7.01964e-07
7.01964e-07
7.0388e-07
7.03952e-07
7.0361e-07
7.01964e-07
7.01965e-07
7.01964e-07
7.01964e-07
7.01965e-07
7.01964e-07
7.03904e-07
7.04677e-07
7.04427e-07
7.03418e-07
7.01964e-07
7.01964e-07
7.01964e-07
7.01964e-07
7.03687e-07
7.03901e-07
7.04612e-07
7.04452e-07
7.03825e-07
7.03891e-07
7.03901e-07
7.0388e-07
7.03904e-07
7.03901e-07
7.0459e-07
7.04635e-07
7.04528e-07
7.03952e-07
7.04677e-07
7.04612e-07
6.94691e-07
6.94661e-07
6.94508e-07
6.93779e-07
6.93715e-07
6.93687e-07
6.93772e-07
6.94589e-07
6.94614e-07
6.94508e-07
6.93425e-07
6.92125e-07
6.92125e-07
6.92125e-07
6.92125e-07
6.93579e-07
6.93987e-07
6.93779e-07
6.92125e-07
6.92127e-07
6.92126e-07
6.92126e-07
6.92127e-07
6.92125e-07
6.94052e-07
6.94796e-07
6.94691e-07
6.93715e-07
6.92125e-07
6.92126e-07
6.92126e-07
6.92126e-07
6.92126e-07
6.92125e-07
6.94063e-07
6.94689e-07
6.94661e-07
6.93687e-07
6.92125e-07
6.92126e-07
6.92126e-07
6.92126e-07
6.92126e-07
6.92125e-07
6.94041e-07
6.94114e-07
6.93772e-07
6.92125e-07
6.92127e-07
6.92126e-07
6.92126e-07
6.92127e-07
6.92125e-07
6.94065e-07
6.94839e-07
6.94589e-07
6.93579e-07
6.92125e-07
6.92125e-07
6.92125e-07
6.92125e-07
6.93849e-07
6.94063e-07
6.94774e-07
6.94614e-07
6.93987e-07
6.94052e-07
6.94063e-07
6.94041e-07
6.94065e-07
6.94063e-07
6.94751e-07
6.94796e-07
6.94689e-07
6.94114e-07
6.94839e-07
6.94774e-07
6.84853e-07
6.84823e-07
6.8467e-07
6.83941e-07
6.83877e-07
6.83849e-07
6.83933e-07
6.8475e-07
6.84775e-07
6.8467e-07
6.83586e-07
6.82287e-07
6.82287e-07
6.82287e-07
6.82287e-07
6.83741e-07
6.84148e-07
6.83941e-07
6.82287e-07
6.82288e-07
6.82287e-07
6.82287e-07
6.82288e-07
6.82287e-07
6.84214e-07
6.84958e-07
6.84853e-07
6.83877e-07
6.82287e-07
6.82287e-07
6.82287e-07
6.82287e-07
6.82287e-07
6.82287e-07
6.84225e-07
6.84851e-07
6.84823e-07
6.83849e-07
6.82287e-07
6.82287e-07
6.82287e-07
6.82287e-07
6.82287e-07
6.82287e-07
6.84203e-07
6.84275e-07
6.83934e-07
6.82287e-07
6.82288e-07
6.82287e-07
6.82287e-07
6.82288e-07
6.82287e-07
6.84227e-07
6.85e-07
6.8475e-07
6.83741e-07
6.82287e-07
6.82287e-07
6.82287e-07
6.82287e-07
6.8401e-07
6.84224e-07
6.84935e-07
6.84775e-07
6.84148e-07
6.84214e-07
6.84225e-07
6.84203e-07
6.84227e-07
6.84224e-07
6.84913e-07
6.84958e-07
6.84851e-07
6.84275e-07
6.85e-07
6.84935e-07
6.75014e-07
6.74984e-07
6.74831e-07
6.74102e-07
6.74038e-07
6.7401e-07
6.74095e-07
6.74912e-07
6.74937e-07
6.74831e-07
6.73748e-07
6.72448e-07
6.72448e-07
6.72448e-07
6.72448e-07
6.73902e-07
6.7431e-07
6.74102e-07
6.72448e-07
6.7245e-07
6.72449e-07
6.72449e-07
6.7245e-07
6.72448e-07
6.74375e-07
6.75119e-07
6.75014e-07
6.74038e-07
6.72448e-07
6.72449e-07
6.72449e-07
6.72449e-07
6.72449e-07
6.72448e-07
6.74386e-07
6.75012e-07
6.74984e-07
6.7401e-07
6.72448e-07
6.72449e-07
6.72449e-07
6.72449e-07
6.72449e-07
6.72448e-07
6.74365e-07
6.74437e-07
6.74095e-07
6.72448e-07
6.7245e-07
6.72449e-07
6.72449e-07
6.7245e-07
6.72448e-07
6.74388e-07
6.75162e-07
6.74912e-07
6.73902e-07
6.72448e-07
6.72448e-07
6.72448e-07
6.72448e-07
6.74172e-07
6.74386e-07
6.75097e-07
6.74937e-07
6.7431e-07
6.74375e-07
6.74386e-07
6.74365e-07
6.74388e-07
6.74386e-07
6.75074e-07
6.75119e-07
6.75012e-07
6.74437e-07
6.75162e-07
6.75097e-07
6.65176e-07
6.65146e-07
6.64993e-07
6.64264e-07
6.642e-07
6.64172e-07
6.64257e-07
6.65073e-07
6.65099e-07
6.64993e-07
6.63909e-07
6.6261e-07
6.6261e-07
6.6261e-07
6.6261e-07
6.64064e-07
6.64471e-07
6.64264e-07
6.6261e-07
6.62611e-07
6.6261e-07
6.6261e-07
6.62611e-07
6.6261e-07
6.64537e-07
6.65281e-07
6.65176e-07
6.642e-07
6.6261e-07
6.6261e-07
6.6261e-07
6.6261e-07
6.6261e-07
6.6261e-07
6.64548e-07
6.65174e-07
6.65146e-07
6.64172e-07
6.6261e-07
6.6261e-07
6.6261e-07
6.6261e-07
6.6261e-07
6.6261e-07
6.64526e-07
6.64598e-07
6.64256e-07
6.6261e-07
6.62611e-07
6.6261e-07
6.6261e-07
6.62611e-07
6.6261e-07
6.6455e-07
6.65323e-07
6.65073e-07
6.64064e-07
6.6261e-07
6.6261e-07
6.6261e-07
6.6261e-07
6.64333e-07
6.64547e-07
6.65258e-07
6.65098e-07
6.64471e-07
6.64537e-07
6.64547e-07
6.64526e-07
6.6455e-07
6.64547e-07
6.65236e-07
6.65281e-07
6.65174e-07
6.64598e-07
6.65323e-07
6.65258e-07
6.55337e-07
6.55308e-07
6.55154e-07
6.54425e-07
6.54361e-07
6.54333e-07
6.54418e-07
6.55235e-07
6.5526e-07
6.55154e-07
6.54071e-07
6.52771e-07
6.52771e-07
6.52771e-07
6.52771e-07
6.54225e-07
6.54633e-07
6.54425e-07
6.52771e-07
6.52773e-07
6.52772e-07
6.52772e-07
6.52773e-07
6.52771e-07
6.54698e-07
6.55442e-07
6.55337e-07
6.54361e-07
6.52771e-07
6.52772e-07
6.52772e-07
6.52772e-07
6.52772e-07
6.52771e-07
6.54709e-07
6.55335e-07
6.55307e-07
6.54333e-07
6.52771e-07
6.52772e-07
6.52772e-07
6.52772e-07
6.52772e-07
6.52771e-07
6.54688e-07
6.5476e-07
6.54418e-07
6.52771e-07
6.52773e-07
6.52772e-07
6.52772e-07
6.52773e-07
6.52771e-07
6.54712e-07
6.55485e-07
6.55235e-07
6.54225e-07
6.52771e-07
6.52771e-07
6.52771e-07
6.52771e-07
6.54495e-07
6.54709e-07
6.5542e-07
6.5526e-07
6.54633e-07
6.54698e-07
6.54709e-07
6.54687e-07
6.54711e-07
6.54709e-07
6.55397e-07
6.55442e-07
6.55335e-07
6.5476e-07
6.55485e-07
6.5542e-07
6.45499e-07
6.45469e-07
6.45316e-07
6.44587e-07
6.44523e-07
6.44495e-07
6.4458e-07
6.45396e-07
6.45422e-07
6.45316e-07
6.44232e-07
6.42933e-07
6.42933e-07
6.42933e-07
6.42933e-07
6.44387e-07
6.44794e-07
6.44587e-07
6.42933e-07
6.42934e-07
6.42934e-07
6.42934e-07
6.42934e-07
6.42933e-07
6.4486e-07
6.45604e-07
6.45499e-07
6.44523e-07
6.42933e-07
6.42934e-07
6.42933e-07
6.42933e-07
6.42934e-07
6.42933e-07
6.44871e-07
6.45497e-07
6.45469e-07
6.44495e-07
6.42933e-07
6.42934e-07
6.42933e-07
6.42933e-07
6.42934e-07
6.42933e-07
6.44849e-07
6.44921e-07
6.4458e-07
6.42933e-07
6.42934e-07
6.42934e-07
6.42934e-07
6.42934e-07
6.42933e-07
6.44873e-07
6.45646e-07
6.45396e-07
6.44387e-07
6.42933e-07
6.42933e-07
6.42933e-07
6.42933e-07
6.44656e-07
6.4487e-07
6.45581e-07
6.45422e-07
6.44794e-07
6.4486e-07
6.44871e-07
6.44849e-07
6.44873e-07
6.4487e-07
6.45559e-07
6.45604e-07
6.45497e-07
6.44921e-07
6.45646e-07
6.45581e-07
6.3566e-07
6.35631e-07
6.35478e-07
6.34749e-07
6.34684e-07
6.34656e-07
6.34741e-07
6.35558e-07
6.35583e-07
6.35478e-07
6.34394e-07
6.33094e-07
6.33095e-07
6.33095e-07
6.33094e-07
6.34549e-07
6.34956e-07
6.34749e-07
6.33094e-07
6.33096e-07
6.33095e-07
6.33095e-07
6.33096e-07
6.33094e-07
6.35022e-07
6.35765e-07
6.3566e-07
6.34684e-07
6.33095e-07
6.33095e-07
6.33095e-07
6.33095e-07
6.33095e-07
6.33095e-07
6.35032e-07
6.35659e-07
6.35631e-07
6.34656e-07
6.33095e-07
6.33095e-07
6.33095e-07
6.33095e-07
6.33095e-07
6.33095e-07
6.35011e-07
6.35083e-07
6.34741e-07
6.33094e-07
6.33096e-07
6.33095e-07
6.33095e-07
6.33096e-07
6.33094e-07
6.35035e-07
6.35808e-07
6.35558e-07
6.34549e-07
6.33094e-07
6.33095e-07
6.33095e-07
6.33094e-07
6.34818e-07
6.35032e-07
6.35743e-07
6.35583e-07
6.34956e-07
6.35021e-07
6.35032e-07
6.35011e-07
6.35035e-07
6.35032e-07
6.3572e-07
6.35766e-07
6.35659e-07
6.35083e-07
6.35808e-07
6.35743e-07
6.25822e-07
6.25792e-07
6.25639e-07
6.2491e-07
6.24846e-07
6.24818e-07
6.24903e-07
6.25719e-07
6.25745e-07
6.25639e-07
6.24555e-07
6.23256e-07
6.23256e-07
6.23256e-07
6.23256e-07
6.2471e-07
6.25117e-07
6.2491e-07
6.23256e-07
6.23257e-07
6.23257e-07
6.23257e-07
6.23257e-07
6.23256e-07
6.25183e-07
6.25927e-07
6.25822e-07
6.24846e-07
6.23256e-07
6.23257e-07
6.23256e-07
6.23256e-07
6.23257e-07
6.23256e-07
6.25194e-07
6.2582e-07
6.25792e-07
6.24818e-07
6.23256e-07
6.23257e-07
6.23256e-07
6.23256e-07
6.23257e-07
6.23256e-07
6.25172e-07
6.25244e-07
6.24903e-07
6.23256e-07
6.23257e-07
6.23257e-07
6.23257e-07
6.23257e-07
6.23256e-07
6.25196e-07
6.2597e-07
6.25719e-07
6.2471e-07
6.23256e-07
6.23256e-07
6.23256e-07
6.23256e-07
6.24979e-07
6.25193e-07
6.25904e-07
6.25745e-07
6.25118e-07