/*--------------------------------*- C++ -*----------------------------------*\
| =========                 |                                                 |
| \\      /  F ield         | OpenFOAM: The Open Source CFD Toolbox           |
|  \\    /   O peration     | Version:  v2012                                 |
|   \\  /    A nd           | Website:  www.openfoam.com                      |
|    \\/     M anipulation  |                                                 |
\*---------------------------------------------------------------------------*/
FoamFile
{
    version     2.0;
    format      ascii;
    class       volScalarField;
    location    "587.5";
    object      epsilon;
}
// * * * * * * * * * * * * * * * * * * * * * * * * * * * * * * * * * * * * * //

dimensions      [0 2 -3 0 0 0 0];


internalField   nonuniform List<scalar> 
171728
(
1.6603e-09
3.25759e-09
5.04734e-09
4.82668e-09
1.61793e-09
3.01464e-09
4.71547e-09
4.64478e-09
1.52037e-09
2.77078e-09
4.35997e-09
4.61475e-09
1.42805e-09
2.56213e-09
4.03853e-09
4.48845e-09
1.36e-09
2.38282e-09
3.73189e-09
4.03006e-09
1.30842e-09
2.23215e-09
3.52261e-09
3.55413e-09
1.26245e-09
2.11297e-09
3.39909e-09
3.20896e-09
1.22149e-09
2.02324e-09
3.35661e-09
2.96835e-09
1.18541e-09
1.96296e-09
3.36623e-09
2.79611e-09
1.15205e-09
1.93343e-09
3.42362e-09
2.66526e-09
1.12033e-09
1.93428e-09
3.4757e-09
2.54208e-09
1.09015e-09
1.97123e-09
3.51409e-09
2.47171e-09
1.06136e-09
2.05322e-09
3.5886e-09
2.45335e-09
1.03361e-09
2.19251e-09
3.69825e-09
2.49941e-09
1.00777e-09
2.40446e-09
3.81199e-09
2.62008e-09
9.84283e-10
2.72983e-09
3.97515e-09
2.89065e-09
9.64176e-10
3.22112e-09
4.42501e-09
3.3729e-09
9.46724e-10
3.97179e-09
5.08924e-09
4.21249e-09
9.34316e-10
5.08941e-09
6.0103e-09
5.56986e-09
9.27252e-10
6.77494e-09
7.74083e-09
7.61353e-09
9.28412e-10
9.15958e-09
9.94717e-09
1.2596e-08
9.42757e-10
1.27601e-08
1.37136e-08
1.70362e-08
9.73567e-10
1.75896e-08
1.80667e-08
3.45439e-08
1.02537e-09
2.42522e-08
2.51504e-08
4.35159e-08
1.10789e-09
3.30774e-08
3.36856e-08
7.29222e-08
1.24464e-09
4.4458e-08
4.51964e-08
1.08697e-07
1.44411e-09
5.9325e-08
5.87913e-08
1.59154e-07
1.72392e-09
7.55433e-08
7.67686e-08
2.20407e-07
2.13273e-09
9.50896e-08
9.60129e-08
2.90144e-07
2.69543e-09
1.17136e-07
1.2205e-07
3.69828e-07
3.463e-09
1.46482e-07
1.45408e-07
4.43356e-07
4.4972e-09
1.74958e-07
1.74956e-07
5.2502e-07
5.74639e-09
2.04788e-07
2.04644e-07
5.88203e-07
7.58506e-09
2.40945e-07
2.43082e-07
6.52107e-07
9.90737e-09
2.77777e-07
2.8003e-07
7.17752e-07
1.28926e-08
3.22695e-07
3.20506e-07
7.66514e-07
1.69299e-08
3.67156e-07
3.6232e-07
7.95548e-07
2.12984e-08
4.04974e-07
4.05181e-07
8.35693e-07
2.66688e-08
4.61477e-07
4.559e-07
8.87553e-07
3.41934e-08
5.09702e-07
5.04324e-07
9.27449e-07
4.23929e-08
5.44719e-07
5.56039e-07
9.50552e-07
5.13997e-08
5.95579e-07
5.96029e-07
9.75198e-07
6.32078e-08
6.61691e-07
6.45036e-07
1.00552e-06
7.77028e-08
7.21278e-07
7.00438e-07
1.04342e-06
9.25126e-08
7.42515e-07
7.43791e-07
1.06789e-06
1.08472e-07
7.82272e-07
7.83426e-07
1.09321e-06
1.28384e-07
8.26816e-07
8.28714e-07
1.12197e-06
1.53398e-07
8.71297e-07
8.67882e-07
1.14885e-06
1.74326e-07
9.02801e-07
9.02166e-07
1.16813e-06
1.97756e-07
9.39709e-07
9.4155e-07
1.1951e-06
2.29021e-07
9.71287e-07
9.76692e-07
1.22192e-06
2.59804e-07
9.99609e-07
9.95922e-07
1.24195e-06
2.83814e-07
1.03016e-06
1.02397e-06
1.25965e-06
3.18209e-07
1.05889e-06
1.05803e-06
1.28018e-06
3.53513e-07
1.07549e-06
1.08287e-06
1.3071e-06
3.79083e-07
1.08241e-06
1.08948e-06
1.31514e-06
4.07851e-07
1.11992e-06
1.11579e-06
1.32857e-06
4.45611e-07
1.15241e-06
1.14323e-06
1.34926e-06
4.76787e-07
1.16791e-06
1.16555e-06
1.3756e-06
5.03817e-07
1.16345e-06
1.17619e-06
1.38116e-06
5.21535e-07
1.17574e-06
1.18483e-06
1.38713e-06
5.46793e-07
1.20316e-06
1.2006e-06
1.40169e-06
5.78547e-07
1.22624e-06
1.21746e-06
1.42148e-06
6.03907e-07
1.23549e-06
1.2346e-06
1.43429e-06
6.22159e-07
1.24173e-06
1.24781e-06
1.44202e-06
6.40852e-07
1.25545e-06
1.25671e-06
1.452e-06
6.59106e-07
1.26687e-06
1.2635e-06
1.46328e-06
6.76233e-07
1.27339e-06
1.27399e-06
1.47042e-06
6.92048e-07
1.27736e-06
1.28222e-06
1.47831e-06
7.07123e-07
1.28839e-06
1.28983e-06
1.48556e-06
7.21296e-07
1.29742e-06
1.29623e-06
1.49239e-06
7.35269e-07
1.3023e-06
1.30042e-06
1.49997e-06
7.46089e-07
1.30438e-06
1.30584e-06
1.50463e-06
7.5744e-07
1.31025e-06
1.31004e-06
1.50854e-06
7.68246e-07
1.31444e-06
1.31288e-06
1.51326e-06
7.7653e-07
1.3152e-06
1.31623e-06
1.51652e-06
7.84131e-07
1.31673e-06
1.31949e-06
1.51958e-06
7.91094e-07
1.32102e-06
1.32079e-06
1.5234e-06
7.98374e-07
1.32266e-06
1.32053e-06
1.52473e-06
8.02606e-07
1.31981e-06
1.32083e-06
1.5261e-06
8.04953e-07
1.31725e-06
1.32135e-06
1.52764e-06
8.07771e-07
1.32066e-06
1.31973e-06
1.52813e-06
8.10801e-07
1.32258e-06
1.31736e-06
1.52736e-06
8.12301e-07
1.31575e-06
1.31663e-06
1.5265e-06
8.10273e-07
1.30868e-06
1.31528e-06
1.52654e-06
8.08201e-07
1.30802e-06
1.30863e-06
1.52311e-06
8.08301e-07
1.3098e-06
1.30278e-06
1.52056e-06
8.06192e-07
1.30497e-06
1.30217e-06
1.51993e-06
8.02162e-07
1.29243e-06
1.30031e-06
1.51656e-06
7.9779e-07
1.28462e-06
1.28868e-06
1.50957e-06
7.95098e-07
1.28595e-06
1.28359e-06
1.50663e-06
7.90153e-07
1.27889e-06
1.27984e-06
1.50395e-06
7.82706e-07
1.26752e-06
1.26651e-06
1.49599e-06
7.81855e-07
1.26657e-06
1.263e-06
1.49099e-06
7.66183e-07
1.20881e-06
1.21162e-06
1.45265e-06
5.06705e-09
4.96565e-09
4.01494e-09
4.95671e-09
3.75126e-09
6.07274e-09
1.61762e-09
1.46357e-09
1.88376e-09
2.03677e-09
3.78761e-09
3.93179e-09
5.06552e-09
4.00805e-09
6.61283e-09
4.88414e-09
5.02679e-09
4.71838e-09
9.55982e-09
4.19732e-09
8.9562e-09
3.993e-09
4.93669e-09
4.48516e-09
3.87665e-09
1.29294e-08
3.58709e-09
1.27738e-08
4.49022e-09
3.08217e-09
4.28491e-09
4.99931e-09
4.82885e-09
1.29282e-08
4.81227e-09
1.27853e-08
4.68615e-09
4.65625e-09
4.34162e-09
8.65986e-09
3.91415e-09
7.45229e-09
3.69622e-09
4.45629e-09
4.05788e-09
3.51356e-09
1.26178e-08
3.32167e-09
1.20957e-08
4.20584e-09
2.82797e-09
3.97745e-09
4.77708e-09
4.6938e-09
1.27649e-08
4.44326e-09
1.26933e-08
4.65784e-09
4.29018e-09
3.8666e-09
6.93566e-09
3.62805e-09
5.3357e-09
3.43549e-09
4.03471e-09
3.70247e-09
3.25659e-09
1.18667e-08
3.08837e-09
1.04419e-08
3.90415e-09
2.61104e-09
3.69282e-09
4.63418e-09
4.39136e-09
1.26175e-08
4.11933e-09
1.22356e-08
4.55657e-09
3.83923e-09
3.49126e-09
4.85441e-09
3.37477e-09
3.71355e-09
3.20362e-09
3.68304e-09
3.39538e-09
3.04214e-09
9.65466e-09
2.91083e-09
6.97054e-09
3.62614e-09
2.42477e-09
3.44165e-09
4.27549e-09
3.82916e-09
1.19305e-08
3.80163e-09
1.05073e-08
4.15244e-09
3.46562e-09
3.14382e-09
3.43911e-09
3.15046e-09
2.86166e-09
3.00019e-09
3.37886e-09
3.12661e-09
2.86989e-09
6.15682e-09
2.76028e-09
4.2943e-09
3.38515e-09
2.26702e-09
3.23103e-09
3.77404e-09
3.41885e-09
9.90806e-09
3.56662e-09
8.08605e-09
3.61957e-09
3.12877e-09
2.91356e-09
2.72667e-09
2.95276e-09
2.43601e-09
2.81666e-09
3.11307e-09
2.88014e-09
2.72812e-09
3.87331e-09
2.63962e-09
3.0387e-09
3.18458e-09
2.13995e-09
3.05387e-09
3.38814e-09
3.07407e-09
7.55317e-09
3.42181e-09
6.30108e-09
3.24874e-09
2.90417e-09
2.7155e-09
2.36814e-09
2.77434e-09
2.22796e-09
2.65886e-09
2.87e-09
2.67381e-09
2.61232e-09
2.85451e-09
2.53901e-09
2.47396e-09
3.01358e-09
2.04366e-09
2.90384e-09
3.05269e-09
2.83147e-09
5.98038e-09
3.36107e-09
5.14608e-09
2.98662e-09
2.71017e-09
2.56139e-09
2.1984e-09
2.62452e-09
2.14634e-09
2.53635e-09
2.66743e-09
2.50947e-09
2.51728e-09
2.39086e-09
2.46153e-09
2.2324e-09
2.87051e-09
1.9759e-09
2.78274e-09
2.82244e-09
2.68303e-09
4.92067e-09
3.35985e-09
4.45532e-09
2.80762e-09
2.55992e-09
2.447e-09
2.13848e-09
2.51175e-09
2.13254e-09
2.45199e-09
2.50714e-09
2.38308e-09
2.44592e-09
2.20103e-09
2.41089e-09
2.15072e-09
2.75802e-09
1.93737e-09
2.6973e-09
2.68015e-09
2.58916e-09
4.31765e-09
3.40801e-09
3.90447e-09
2.6717e-09
2.44865e-09
2.36759e-09
2.13444e-09
2.43824e-09
2.15261e-09
2.40685e-09
2.38434e-09
2.29226e-09
2.40239e-09
2.14728e-09
2.3905e-09
2.15328e-09
2.68207e-09
1.93138e-09
2.64894e-09
2.59039e-09
2.51445e-09
3.78579e-09
3.46347e-09
3.46189e-09
2.54491e-09
2.37233e-09
2.32188e-09
2.16255e-09
2.40155e-09
2.20314e-09
2.39921e-09
2.29707e-09
2.23669e-09
2.39134e-09
2.16029e-09
2.4076e-09
2.19505e-09
2.64278e-09
1.96091e-09
2.63529e-09
2.51754e-09
2.47646e-09
3.36521e-09
3.5045e-09
3.15642e-09
2.46517e-09
2.33279e-09
2.31711e-09
2.22108e-09
2.40343e-09
2.29043e-09
2.43352e-09
2.2477e-09
2.22278e-09
2.41753e-09
2.21138e-09
2.46521e-09
2.27291e-09
2.63827e-09
2.03249e-09
2.66786e-09
2.48946e-09
2.49472e-09
3.11293e-09
3.56808e-09
3.04589e-09
2.43713e-09
2.33717e-09
2.35996e-09
2.31994e-09
2.45107e-09
2.42521e-09
2.52428e-09
2.24283e-09
2.2597e-09
2.48834e-09
2.30113e-09
2.57634e-09
2.39791e-09
2.68408e-09
2.15581e-09
2.75911e-09
2.5175e-09
2.55408e-09
3.04182e-09
3.66265e-09
3.07601e-09
2.46859e-09
2.39235e-09
2.46458e-09
2.46786e-09
2.56015e-09
2.62703e-09
2.68973e-09
2.29302e-09
2.36319e-09
2.61451e-09
2.43849e-09
2.75881e-09
2.59327e-09
2.79261e-09
2.34678e-09
2.91794e-09
2.58721e-09
2.6527e-09
3.10106e-09
3.78689e-09
3.18166e-09
2.56626e-09
2.52014e-09
2.66794e-09
2.69138e-09
2.74756e-09
2.93255e-09
2.96392e-09
2.42006e-09
2.56559e-09
2.81627e-09
2.65144e-09
3.04307e-09
2.87465e-09
2.97537e-09
2.63877e-09
3.18664e-09
2.70409e-09
2.82647e-09
3.23481e-09
3.91893e-09
3.49457e-09
2.79107e-09
2.76138e-09
3.03542e-09
3.02742e-09
3.05529e-09
3.38678e-09
3.40061e-09
2.65809e-09
2.93928e-09
3.13074e-09
2.96469e-09
3.48181e-09
3.31945e-09
3.27888e-09
3.08463e-09
3.63518e-09
2.91034e-09
3.14835e-09
3.61517e-09
4.29927e-09
4.09401e-09
3.21443e-09
3.1906e-09
3.67761e-09
3.53201e-09
3.54749e-09
4.06455e-09
4.073e-09
3.09568e-09
3.57788e-09
3.62128e-09
3.46154e-09
4.14541e-09
3.9905e-09
3.76976e-09
3.75908e-09
4.30053e-09
3.28901e-09
3.7677e-09
4.29139e-09
4.8965e-09
4.98386e-09
3.94513e-09
3.93372e-09
4.80254e-09
4.28326e-09
4.29161e-09
5.10338e-09
5.10388e-09
3.83765e-09
4.73289e-09
4.36377e-09
4.2128e-09
5.1772e-09
5.00885e-09
4.51052e-09
4.77868e-09
5.3406e-09
4.02979e-09
4.87158e-09
5.27272e-09
5.70452e-09
6.32827e-09
5.12051e-09
5.21937e-09
6.81913e-09
5.43152e-09
5.42371e-09
6.63497e-09
6.66004e-09
5.15011e-09
6.7443e-09
5.49955e-09
5.33598e-09
6.71209e-09
6.56945e-09
5.68584e-09
6.31859e-09
6.7353e-09
5.27512e-09
6.90213e-09
6.7013e-09
7.27332e-09
7.67539e-09
7.00692e-09
7.49736e-09
1.0284e-08
7.10187e-09
7.11681e-09
8.89217e-09
8.84651e-09
7.45277e-09
1.01348e-08
7.19051e-09
7.08128e-09
8.993e-09
8.73238e-09
7.13915e-09
8.45446e-09
9.20258e-09
7.62644e-09
1.01079e-08
8.11662e-09
9.26734e-09
1.02415e-08
1.1177e-08
1.15511e-08
1.59319e-08
9.63363e-09
9.52998e-09
1.21064e-08
1.23135e-08
1.1288e-08
1.65678e-08
9.71516e-09
9.42891e-09
1.21943e-08
1.21429e-08
1.00398e-08
1.18509e-08
1.20524e-08
1.12618e-08
1.67186e-08
1.09067e-08
1.27559e-08
1.27197e-08
1.54314e-08
1.76937e-08
2.64863e-08
1.30732e-08
1.32774e-08
1.67567e-08
1.65798e-08
1.83853e-08
2.5492e-08
1.3179e-08
1.31638e-08
1.68472e-08
1.65132e-08
1.28596e-08
1.60659e-08
1.71486e-08
1.86544e-08
2.53862e-08
1.35832e-08
1.67453e-08
1.78604e-08
3.04325e-08
2.95044e-08
4.23344e-08
1.81732e-08
1.814e-08
2.29539e-08
2.31166e-08
2.86457e-08
4.39621e-08
1.8266e-08
1.78433e-08
2.30178e-08
2.2967e-08
1.87978e-08
2.24887e-08
2.25045e-08
2.79512e-08
4.2957e-08
1.93375e-08
2.33272e-08
2.26646e-08
4.11171e-08
4.66147e-08
6.65501e-08
2.48369e-08
2.49586e-08
3.12725e-08
3.16879e-08
4.83441e-08
6.63198e-08
2.48876e-08
2.49287e-08
3.14011e-08
3.13241e-08
2.38845e-08
3.08338e-08
3.07313e-08
4.79308e-08
6.68488e-08
2.39502e-08
3.13798e-08
3.03842e-08
6.47208e-08
7.28127e-08
1.01904e-07
3.37271e-08
3.3904e-08
4.21492e-08
4.16918e-08
7.23775e-08
1.01414e-07
3.38449e-08
3.35745e-08
4.22857e-08
4.1983e-08
3.36024e-08
4.08405e-08
4.1561e-08
7.22553e-08
1.00482e-07
3.31525e-08
4.18824e-08
4.10919e-08
1.01756e-07
1.10248e-07
1.48351e-07
4.53107e-08
4.53518e-08
5.55876e-08
5.70371e-08
1.10086e-07
1.51965e-07
4.53692e-08
4.53882e-08
5.55978e-08
5.54297e-08
4.44722e-08
5.61124e-08
5.50523e-08
1.0938e-07
1.47983e-07
4.39553e-08
5.51652e-08
5.42931e-08
1.47176e-07
1.5903e-07
2.06661e-07
5.94275e-08
6.0245e-08
7.19511e-08
7.12642e-08
1.62512e-07
2.06161e-07
5.94288e-08
5.9021e-08
7.19054e-08
7.23946e-08
5.89491e-08
7.03508e-08
7.21905e-08
1.58544e-07
2.06217e-07
5.8151e-08
7.22359e-08
7.14166e-08
2.08094e-07
2.19427e-07
2.75143e-07
7.63444e-08
7.64044e-08
9.11931e-08
9.14313e-08
2.20794e-07
2.80902e-07
7.62526e-08
7.69652e-08
9.0909e-08
9.02744e-08
7.67203e-08
9.03198e-08
9.00262e-08
2.19301e-07
2.75093e-07
7.57727e-08
9.03016e-08
8.88404e-08
2.75131e-07
2.89711e-07
3.50905e-07
9.66236e-08
9.62987e-08
1.12878e-07
1.11832e-07
2.92423e-07
3.40969e-07
9.62796e-08
9.57675e-08
1.12651e-07
1.14791e-07
9.5555e-08
1.11179e-07
1.15053e-07
2.89359e-07
3.52983e-07
9.44039e-08
1.15846e-07
1.12906e-07
3.53795e-07
3.66724e-07
4.29901e-07
1.19036e-07
1.17913e-07
1.40219e-07
1.39946e-07
3.57569e-07
4.38619e-07
1.1864e-07
1.20738e-07
1.38932e-07
1.38265e-07
1.21109e-07
1.38702e-07
1.38363e-07
3.69976e-07
4.30576e-07
1.18733e-07
1.39251e-07
1.36377e-07
4.28159e-07
4.46028e-07
5.05267e-07
1.4677e-07
1.47142e-07
1.67523e-07
1.68623e-07
4.55922e-07
5.09638e-07
1.45552e-07
1.44931e-07
1.66749e-07
1.67635e-07
1.45079e-07
1.68394e-07
1.69382e-07
4.45028e-07
5.02553e-07
1.43237e-07
1.67212e-07
1.67346e-07
5.0805e-07
5.20982e-07
5.74347e-07
1.7586e-07
1.76166e-07
1.99718e-07
1.98894e-07
5.23983e-07
5.71683e-07
1.74686e-07
1.75332e-07
1.98049e-07
1.9723e-07
1.77572e-07
1.96029e-07
1.98783e-07
5.1842e-07
5.70797e-07
1.75709e-07
1.97246e-07
1.97602e-07
5.74972e-07
5.88916e-07
6.37291e-07
2.07128e-07
2.06944e-07
2.33103e-07
2.33406e-07
5.86018e-07
6.37123e-07
2.05961e-07
2.04848e-07
2.32611e-07
2.33554e-07
2.0536e-07
2.32279e-07
2.32304e-07
5.85246e-07
6.37824e-07
2.0446e-07
2.31982e-07
2.31047e-07
6.36823e-07
6.51322e-07
6.9542e-07
2.42409e-07
2.4265e-07
2.7104e-07
2.70494e-07
6.5125e-07
6.93858e-07
2.41605e-07
2.43957e-07
2.69875e-07
2.71404e-07
2.43535e-07
2.68178e-07
2.7577e-07
6.53262e-07
6.96543e-07
2.41728e-07
2.71539e-07
2.74712e-07
7.03762e-07
7.08852e-07
7.47433e-07
2.81516e-07
2.79713e-07
3.11936e-07
3.10259e-07
7.07191e-07
7.49064e-07
2.80367e-07
2.80292e-07
3.11375e-07
3.10762e-07
2.85942e-07
3.10484e-07
3.1706e-07
7.08806e-07
7.45637e-07
2.85709e-07
3.09251e-07
3.17688e-07
7.55859e-07
7.59503e-07
7.94541e-07
3.21682e-07
3.22572e-07
3.551e-07
3.59924e-07
7.62377e-07
7.96037e-07
3.21531e-07
3.22038e-07
3.55632e-07
3.54772e-07
3.27798e-07
3.57024e-07
3.51956e-07
7.58034e-07
7.92925e-07
3.28344e-07
3.52939e-07
3.53833e-07
7.87514e-07
8.05872e-07
8.34746e-07
3.67251e-07
3.69824e-07
4.00402e-07
3.94246e-07
8.0585e-07
8.3008e-07
3.67817e-07
3.65389e-07
4.00395e-07
3.97307e-07
3.59585e-07
3.92251e-07
3.90854e-07
8.03925e-07
8.32526e-07
3.58376e-07
3.92917e-07
3.83151e-07
8.23561e-07
8.44625e-07
8.70933e-07
4.10076e-07
4.06484e-07
4.43465e-07
4.47989e-07
8.40387e-07
8.74873e-07
4.10201e-07
4.08533e-07
4.4343e-07
4.44512e-07
4.03558e-07
4.48284e-07
4.44687e-07
8.42632e-07
8.70262e-07
3.9944e-07
4.43226e-07
4.49911e-07
8.74773e-07
8.80464e-07
9.05435e-07
4.56834e-07
4.6085e-07
4.94823e-07
4.97183e-07
8.84668e-07
9.10153e-07
4.55974e-07
4.56672e-07
4.92376e-07
4.94082e-07
4.5898e-07
4.97544e-07
5.0338e-07
8.79979e-07
9.06285e-07
4.67267e-07
4.9214e-07
5.17747e-07
9.19205e-07
9.14479e-07
9.39687e-07
5.05955e-07
5.09476e-07
5.40575e-07
5.4089e-07
9.2087e-07
9.39256e-07
5.03825e-07
5.06619e-07
5.40823e-07
5.4441e-07
5.16839e-07
5.40789e-07
5.46537e-07
9.16058e-07
9.41692e-07
5.34686e-07
5.4442e-07
5.62382e-07
9.43936e-07
9.48891e-07
9.70405e-07
5.53175e-07
5.45922e-07
5.87785e-07
5.79804e-07
9.43279e-07
9.5886e-07
5.54123e-07
5.55948e-07
5.88985e-07
5.86212e-07
5.54532e-07
5.78281e-07
5.82758e-07
9.49679e-07
9.67482e-07
5.66045e-07
5.85653e-07
5.91146e-07
9.67618e-07
9.77954e-07
9.99484e-07
5.99355e-07
5.95217e-07
6.365e-07
6.41238e-07
9.69707e-07
1.00572e-06
6.00344e-07
5.97055e-07
6.35942e-07
6.34394e-07
5.94753e-07
6.45642e-07
6.3533e-07
9.74871e-07
9.97633e-07
6.02709e-07
6.31742e-07
6.38349e-07
9.96787e-07
1.00781e-06
1.03248e-06
6.48858e-07
6.55966e-07
6.88079e-07
6.98606e-07
1.01617e-06
1.04631e-06
6.47924e-07
6.47683e-07
6.86967e-07
6.88799e-07
6.49247e-07
7.07372e-07
6.9078e-07
1.00675e-06
1.03311e-06
6.52078e-07
6.8733e-07
6.9494e-07
1.03467e-06
1.04089e-06
1.06028e-06
7.01657e-07
7.11854e-07
7.3225e-07
7.34428e-07
1.05446e-06
1.06641e-06
7.00326e-07
7.01547e-07
7.31471e-07
7.34948e-07
7.03166e-07
7.39484e-07
7.32252e-07
1.04115e-06
1.06122e-06
7.0908e-07
7.34435e-07
7.39141e-07
1.06183e-06
1.06633e-06
1.08377e-06
7.41225e-07
7.41051e-07
7.73448e-07
7.70066e-07
1.07085e-06
1.08384e-06
7.40644e-07
7.44714e-07
7.7347e-07
7.73487e-07
7.41115e-07
7.70452e-07
7.72309e-07
1.06775e-06
1.08455e-06
7.47926e-07
7.72418e-07
7.78059e-07
1.08598e-06
1.09095e-06
1.11156e-06
7.84409e-07
7.81714e-07
8.17195e-07
8.14785e-07
1.09035e-06
1.10857e-06
7.84539e-07
7.84169e-07
8.16579e-07
8.18187e-07
7.84044e-07
8.16069e-07
8.20459e-07
1.09145e-06
1.112e-06
7.89279e-07
8.17734e-07
8.22822e-07
1.11457e-06
1.119e-06
1.14283e-06
8.28845e-07
8.24705e-07
8.62608e-07
8.57913e-07
1.11563e-06
1.14136e-06
8.28052e-07
8.29281e-07
8.62064e-07
8.59695e-07
8.31612e-07
8.60066e-07
8.61232e-07
1.11874e-06
1.13913e-06
8.3268e-07
8.58707e-07
8.60577e-07
1.14294e-06
1.14943e-06
1.16403e-06
8.71481e-07
8.69104e-07
8.94263e-07
8.93703e-07
1.14911e-06
1.16598e-06
8.70869e-07
8.68597e-07
8.94028e-07
8.9453e-07
8.69255e-07
8.95175e-07
8.91494e-07
1.14607e-06
1.16471e-06
8.685e-07
8.93328e-07
8.89987e-07
1.16247e-06
1.16957e-06
1.18783e-06
9.01977e-07
9.01717e-07
9.29165e-07
9.30161e-07
1.17145e-06
1.18826e-06
9.021e-07
9.03614e-07
9.28999e-07
9.32529e-07
8.99868e-07
9.30213e-07
9.32167e-07
1.17107e-06
1.18889e-06
8.9865e-07
9.31616e-07
9.32442e-07
1.18798e-06
1.19436e-06
1.21257e-06
9.39045e-07
9.39924e-07
9.67456e-07
9.65245e-07
1.19455e-06
1.21174e-06
9.3868e-07
9.42062e-07
9.66869e-07
9.68604e-07
9.43161e-07
9.64659e-07
9.70216e-07
1.19514e-06
1.21568e-06
9.43533e-07
9.68717e-07
9.70556e-07
1.2155e-06
1.21897e-06
1.23718e-06
9.75831e-07
9.71361e-07
9.95504e-07
9.9205e-07
1.2174e-06
1.2353e-06
9.75204e-07
9.76615e-07
9.94949e-07
9.92802e-07
9.77893e-07
9.91698e-07
9.94887e-07
1.22232e-06
1.2362e-06
9.78378e-07
9.93088e-07
9.94615e-07
1.2378e-06
1.24247e-06
1.25655e-06
1.00077e-06
1.00028e-06
1.02016e-06
1.02391e-06
1.24177e-06
1.25738e-06
1.00037e-06
9.96799e-07
1.01955e-06
1.01595e-06
9.97331e-07
1.02276e-06
1.01496e-06
1.24013e-06
1.25201e-06
9.97013e-07
1.01409e-06
1.01959e-06
1.25459e-06
1.26198e-06
1.27557e-06
1.02779e-06
1.03124e-06
1.04993e-06
1.05292e-06
1.26208e-06
1.27885e-06
1.02712e-06
1.02515e-06
1.04957e-06
1.05104e-06
1.02405e-06
1.05235e-06
1.04952e-06
1.25802e-06
1.27433e-06
1.02876e-06
1.05039e-06
1.05231e-06
1.27397e-06
1.28076e-06
1.29752e-06
1.05679e-06
1.05941e-06
1.07489e-06
1.07308e-06
1.28554e-06
1.29787e-06
1.0565e-06
1.05859e-06
1.07498e-06
1.07786e-06
1.05743e-06
1.07324e-06
1.07786e-06
1.28016e-06
1.30068e-06
1.05891e-06
1.07725e-06
1.07565e-06
1.30179e-06
1.30294e-06
1.31263e-06
1.08021e-06
1.07509e-06
1.09104e-06
1.07937e-06
1.3002e-06
1.30062e-06
1.08034e-06
1.08343e-06
1.09112e-06
1.08968e-06
1.0833e-06
1.07947e-06
1.09064e-06
1.30683e-06
1.31327e-06
1.07929e-06
1.08848e-06
1.08278e-06
1.31217e-06
1.31645e-06
1.3268e-06
1.09508e-06
1.0832e-06
1.11237e-06
1.11194e-06
1.30486e-06
1.32306e-06
1.09495e-06
1.09122e-06
1.1116e-06
1.11005e-06
1.09315e-06
1.11084e-06
1.10965e-06
1.31629e-06
1.32593e-06
1.08545e-06
1.10827e-06
1.10685e-06
1.32392e-06
1.33159e-06
1.34657e-06
1.11862e-06
1.12062e-06
1.13613e-06
1.14526e-06
1.32895e-06
1.35335e-06
1.11784e-06
1.11688e-06
1.13561e-06
1.13611e-06
1.11657e-06
1.14547e-06
1.13593e-06
1.3307e-06
1.34478e-06
1.11503e-06
1.1371e-06
1.13818e-06
1.34308e-06
1.35265e-06
1.36933e-06
1.14173e-06
1.15208e-06
1.1595e-06
1.16668e-06
1.36185e-06
1.38296e-06
1.14106e-06
1.14159e-06
1.1583e-06
1.15777e-06
1.1416e-06
1.16698e-06
1.15684e-06
1.35055e-06
1.36908e-06
1.14495e-06
1.16064e-06
1.16307e-06
1.37043e-06
1.37357e-06
1.37773e-06
1.16398e-06
1.16752e-06
1.17166e-06
1.16429e-06
1.38545e-06
1.37634e-06
1.16298e-06
1.16271e-06
1.17205e-06
1.17352e-06
1.16125e-06
1.16412e-06
1.16688e-06
1.37416e-06
1.38109e-06
1.16729e-06
1.17429e-06
1.17135e-06
1.37938e-06
1.38008e-06
1.38481e-06
1.17314e-06
1.16377e-06
1.17955e-06
1.16946e-06
1.37719e-06
1.37161e-06
1.1737e-06
1.17608e-06
1.18028e-06
1.18178e-06
1.1685e-06
1.16953e-06
1.17882e-06
1.38369e-06
1.38619e-06
1.1717e-06
1.18204e-06
1.17985e-06
1.38371e-06
1.38876e-06
1.39852e-06
1.18364e-06
1.17532e-06
1.19866e-06
1.19583e-06
1.37475e-06
1.38775e-06
1.18432e-06
1.18439e-06
1.19859e-06
1.19706e-06
1.18367e-06
1.19635e-06
1.19935e-06
1.38917e-06
1.39731e-06
1.18426e-06
1.19628e-06
1.1977e-06
1.39697e-06
1.40244e-06
1.41329e-06
1.20341e-06
1.2027e-06
1.21647e-06
1.2206e-06
1.39416e-06
1.41861e-06
1.2032e-06
1.20175e-06
1.21549e-06
1.21407e-06
1.20418e-06
1.22087e-06
1.21685e-06
1.4014e-06
1.41125e-06
1.20205e-06
1.21328e-06
1.21417e-06
1.4164e-06
1.41847e-06
1.43169e-06
1.22055e-06
1.22603e-06
1.23251e-06
1.23544e-06
1.42561e-06
1.4381e-06
1.21922e-06
1.21779e-06
1.23095e-06
1.23051e-06
1.22086e-06
1.23461e-06
1.23026e-06
1.41577e-06
1.42904e-06
1.21839e-06
1.2305e-06
1.22923e-06
1.43103e-06
1.43546e-06
1.44053e-06
1.23544e-06
1.2366e-06
1.24324e-06
1.23975e-06
1.44071e-06
1.44112e-06
1.23431e-06
1.23487e-06
1.24334e-06
1.24541e-06
1.23316e-06
1.23898e-06
1.24223e-06
1.43361e-06
1.4418e-06
1.23267e-06
1.24501e-06
1.24279e-06
1.43904e-06
1.44338e-06
1.44827e-06
1.24558e-06
1.2423e-06
1.25183e-06
1.25238e-06
1.44377e-06
1.44881e-06
1.2461e-06
1.24814e-06
1.25312e-06
1.25486e-06
1.24503e-06
1.25204e-06
1.25204e-06
1.44506e-06
1.45109e-06
1.24586e-06
1.25483e-06
1.25327e-06
1.44824e-06
1.45162e-06
1.45889e-06
1.2542e-06
1.25568e-06
1.26288e-06
1.26433e-06
1.45196e-06
1.45821e-06
1.25515e-06
1.25673e-06
1.26211e-06
1.26145e-06
1.25466e-06
1.26447e-06
1.26411e-06
1.45434e-06
1.45885e-06
1.2556e-06
1.26134e-06
1.26328e-06
1.46009e-06
1.46212e-06
1.46681e-06
1.26561e-06
1.26662e-06
1.27246e-06
1.27222e-06
1.46165e-06
1.46811e-06
1.26455e-06
1.26354e-06
1.27149e-06
1.27124e-06
1.26687e-06
1.27243e-06
1.27331e-06
1.46159e-06
1.46539e-06
1.26576e-06
1.27134e-06
1.27259e-06
1.46765e-06
1.46969e-06
1.47509e-06
1.27438e-06
1.27324e-06
1.27949e-06
1.27563e-06
1.47076e-06
1.47234e-06
1.27349e-06
1.2739e-06
1.27936e-06
1.2805e-06
1.27506e-06
1.27545e-06
1.27931e-06
1.46827e-06
1.4739e-06
1.27451e-06
1.28052e-06
1.27955e-06
1.47533e-06
1.47825e-06
1.48295e-06
1.28129e-06
1.27783e-06
1.28731e-06
1.2862e-06
1.47484e-06
1.47894e-06
1.28149e-06
1.28224e-06
1.28776e-06
1.2882e-06
1.28073e-06
1.28566e-06
1.28677e-06
1.47732e-06
1.48423e-06
1.2813e-06
1.2879e-06
1.28724e-06
1.4828e-06
1.48565e-06
1.4894e-06
1.28936e-06
1.28886e-06
1.29463e-06
1.29568e-06
1.4822e-06
1.48999e-06
1.28953e-06
1.29019e-06
1.29368e-06
1.29482e-06
1.2891e-06
1.29552e-06
1.29524e-06
1.48728e-06
1.49072e-06
1.28927e-06
1.29488e-06
1.29475e-06
1.48954e-06
1.49233e-06
1.49712e-06
1.29614e-06
1.29747e-06
1.3008e-06
1.3012e-06
1.49377e-06
1.49933e-06
1.29506e-06
1.29598e-06
1.30012e-06
1.29896e-06
1.29689e-06
1.30173e-06
1.30127e-06
1.49312e-06
1.49574e-06
1.29627e-06
1.29948e-06
1.30003e-06
1.49734e-06
1.49964e-06
1.501e-06
1.30195e-06
1.30154e-06
1.30395e-06
1.30208e-06
1.50137e-06
1.50087e-06
1.30142e-06
1.3002e-06
1.30397e-06
1.30472e-06
1.30227e-06
1.30323e-06
1.30503e-06
1.49839e-06
1.5018e-06
1.30082e-06
1.3044e-06
1.30441e-06
1.50237e-06
1.50322e-06
1.50634e-06
1.30477e-06
1.30317e-06
1.30889e-06
1.30831e-06
1.50286e-06
1.50501e-06
1.30499e-06
1.30609e-06
1.30909e-06
1.30926e-06
1.30624e-06
1.30873e-06
1.30952e-06
1.50423e-06
1.50612e-06
1.30588e-06
1.30919e-06
1.30952e-06
1.50625e-06
1.50893e-06
1.51089e-06
1.3103e-06
1.31002e-06
1.31338e-06
1.3139e-06
1.50771e-06
1.5115e-06
1.3102e-06
1.31011e-06
1.31224e-06
1.31231e-06
1.31042e-06
1.3137e-06
1.31259e-06
1.50839e-06
1.51084e-06
1.3104e-06
1.3123e-06
1.3125e-06
1.511e-06
1.51311e-06
1.51511e-06
1.31416e-06
1.31472e-06
1.31592e-06
1.31581e-06
1.51402e-06
1.51547e-06
1.31278e-06
1.31273e-06
1.31511e-06
1.3151e-06
1.31321e-06
1.31529e-06
1.3143e-06
1.51308e-06
1.51467e-06
1.31314e-06
1.31497e-06
1.31428e-06
1.51439e-06
1.51727e-06
1.51723e-06
1.31621e-06
1.31569e-06
1.31702e-06
1.31566e-06
1.5173e-06
1.51703e-06
1.31609e-06
1.3164e-06
1.31761e-06
1.31884e-06
1.31506e-06
1.31551e-06
1.31797e-06
1.51683e-06
1.51792e-06
1.31522e-06
1.31892e-06
1.31828e-06
1.51748e-06
1.51902e-06
1.52004e-06
1.3172e-06
1.31656e-06
1.31869e-06
1.31996e-06
1.51908e-06
1.52033e-06
1.31787e-06
1.31935e-06
1.31892e-06
1.3205e-06
1.31871e-06
1.32013e-06
1.32016e-06
1.52012e-06
1.52227e-06
1.31893e-06
1.32055e-06
1.32007e-06
1.52119e-06
1.5224e-06
1.52346e-06
1.31959e-06
1.3209e-06
1.32166e-06
1.32266e-06
1.52273e-06
1.52519e-06
1.31955e-06
1.32078e-06
1.32123e-06
1.32086e-06
1.32044e-06
1.32256e-06
1.32066e-06
1.52439e-06
1.52347e-06
1.32024e-06
1.32064e-06
1.31988e-06
1.52318e-06
1.52525e-06
1.52483e-06
1.3219e-06
1.32279e-06
1.32183e-06
1.32092e-06
1.52731e-06
1.52519e-06
1.3214e-06
1.32092e-06
1.32125e-06
1.32082e-06
1.32057e-06
1.32079e-06
1.32089e-06
1.52509e-06
1.52374e-06
1.3197e-06
1.32061e-06
1.32057e-06
1.52424e-06
1.52665e-06
1.52537e-06
1.32143e-06
1.31988e-06
1.32009e-06
1.31727e-06
1.52654e-06
1.522e-06
1.32104e-06
1.32079e-06
1.32037e-06
1.32093e-06
1.32133e-06
1.31744e-06
1.3215e-06
1.52552e-06
1.52571e-06
1.3213e-06
1.32136e-06
1.32188e-06
1.52589e-06
1.52688e-06
1.52476e-06
1.31977e-06
1.31703e-06
1.31925e-06
1.31928e-06
1.52341e-06
1.52399e-06
1.32012e-06
1.32094e-06
1.31927e-06
1.32017e-06
1.32137e-06
1.31949e-06
1.3199e-06
1.52752e-06
1.52619e-06
1.32179e-06
1.32046e-06
1.31981e-06
1.52644e-06
1.5264e-06
1.52637e-06
1.31912e-06
1.32052e-06
1.31953e-06
1.32275e-06
1.52658e-06
1.52959e-06
1.31899e-06
1.3196e-06
1.31869e-06
1.31813e-06
1.31949e-06
1.32261e-06
1.31841e-06
1.52765e-06
1.52566e-06
1.31913e-06
1.31781e-06
1.31726e-06
1.52583e-06
1.5283e-06
1.52691e-06
1.31955e-06
1.32274e-06
1.31881e-06
1.31845e-06
1.53176e-06
1.52788e-06
1.31867e-06
1.31776e-06
1.31799e-06
1.31703e-06
1.31824e-06
1.31805e-06
1.31732e-06
1.52716e-06
1.5255e-06
1.31703e-06
1.31681e-06
1.31651e-06
1.52483e-06
1.52822e-06
1.52434e-06
1.31754e-06
1.3161e-06
1.31318e-06
1.31e-06
1.52911e-06
1.52184e-06
1.31717e-06
1.3168e-06
1.3136e-06
1.31569e-06
1.31684e-06
1.30991e-06
1.31394e-06
1.52714e-06
1.52613e-06
1.31634e-06
1.31599e-06
1.31492e-06
1.52504e-06
1.5257e-06
1.52119e-06
1.31185e-06
1.30866e-06
1.30886e-06
1.30743e-06
1.52296e-06
1.51734e-06
1.31245e-06
1.31484e-06
1.30919e-06
1.31037e-06
1.31295e-06
1.30755e-06
1.30913e-06
1.52761e-06
1.52258e-06
1.31399e-06
1.31049e-06
1.30957e-06
1.52185e-06
1.52258e-06
1.51988e-06
1.30844e-06
1.30793e-06
1.30728e-06
1.30957e-06
1.51905e-06
1.52142e-06
1.30845e-06
1.30862e-06
1.30635e-06
1.30385e-06
1.30814e-06
1.30964e-06
1.30616e-06
1.52376e-06
1.51764e-06
1.3081e-06
1.30367e-06
1.30481e-06
1.51904e-06
1.5215e-06
1.5181e-06
1.307e-06
1.3097e-06
1.3033e-06
1.30683e-06
1.52412e-06
1.52378e-06
1.30581e-06
1.30296e-06
1.30224e-06
1.302e-06
1.30586e-06
1.3073e-06
1.30454e-06
1.51898e-06
1.51676e-06
1.3043e-06
1.30199e-06
1.30283e-06
1.51839e-06
1.51954e-06
1.51407e-06
1.302e-06
1.30455e-06
1.29633e-06
1.29524e-06
1.52506e-06
1.51437e-06
1.30144e-06
1.30207e-06
1.29717e-06
1.30113e-06
1.3039e-06
1.2954e-06
1.29808e-06
1.51849e-06
1.51709e-06
1.30246e-06
1.30137e-06
1.29951e-06
1.51535e-06
1.51526e-06
1.50872e-06
1.29457e-06
1.29239e-06
1.28954e-06
1.28577e-06
1.51514e-06
1.5037e-06
1.29568e-06
1.30004e-06
1.2903e-06
1.29114e-06
1.29577e-06
1.28543e-06
1.28817e-06
1.51843e-06
1.51113e-06
1.29711e-06
1.29088e-06
1.28909e-06
1.5084e-06
1.5101e-06
1.50708e-06
1.28879e-06
1.28503e-06
1.28659e-06
1.28612e-06
1.50495e-06
1.50436e-06
1.28937e-06
1.28909e-06
1.28598e-06
1.28424e-06
1.28667e-06
1.28592e-06
1.28465e-06
1.51239e-06
1.50649e-06
1.28725e-06
1.28394e-06
1.28413e-06
1.50502e-06
1.50843e-06
1.49969e-06
1.28594e-06
1.28599e-06
1.27969e-06
1.28217e-06
1.50612e-06
1.50096e-06
1.28509e-06
1.28367e-06
1.27923e-06
1.28013e-06
1.28473e-06
1.28304e-06
1.283e-06
1.50785e-06
1.50078e-06
1.2841e-06
1.28079e-06
1.28228e-06
1.5028e-06
1.50053e-06
1.49288e-06
1.2761e-06
1.27788e-06
1.26801e-06
1.26855e-06
1.50185e-06
1.49559e-06
1.27601e-06
1.27896e-06
1.26765e-06
1.26833e-06
1.28144e-06
1.26863e-06
1.26938e-06
1.50192e-06
1.4921e-06
1.28129e-06
1.2687e-06
1.26939e-06
1.49466e-06
1.49433e-06
1.49293e-06
1.26737e-06
1.26769e-06
1.26771e-06
1.26731e-06
1.49706e-06
1.49323e-06
1.26698e-06
1.26664e-06
1.26709e-06
1.26364e-06
1.26736e-06
1.26635e-06
1.26275e-06
1.49355e-06
1.48998e-06
1.26706e-06
1.26233e-06
1.26173e-06
1.48956e-06
1.49446e-06
1.47641e-06
1.26816e-06
1.26745e-06
1.24907e-06
1.24731e-06
1.49436e-06
1.47318e-06
1.26786e-06
1.26437e-06
1.24961e-06
1.24714e-06
1.26302e-06
1.24714e-06
1.24474e-06
1.49203e-06
1.47376e-06
1.2621e-06
1.24634e-06
1.24458e-06
1.47151e-06
1.45577e-06
1.21034e-06
1.20818e-06
1.4524e-06
1.21136e-06
1.21175e-06
7.64541e-07
7.65524e-07
7.63946e-07
1.20959e-06
1.45473e-06
1.20992e-06
1.35989e-09
2.59797e-09
8.10228e-10
9.41066e-10
1.53095e-09
3.67666e-09
2.11124e-09
7.66748e-10
1.57973e-09
4.37491e-09
1.1261e-09
9.35276e-09
5.02413e-09
6.58244e-09
3.15591e-09
7.43197e-09
1.76345e-07
5.99892e-09
2.80825e-07
1.47121e-06
2.98111e-06
8.68959e-09
2.80345e-07
7.36445e-09
7.97613e-07
1.48038e-09
1.94707e-09
2.09792e-09
1.6413e-09
1.46448e-09
1.93409e-09
2.08538e-09
1.5193e-09
7.19543e-08
1.19895e-09
3.21539e-09
1.52978e-09
5.16385e-08
1.18851e-09
1.60097e-06
3.14384e-06
1.54935e-09
2.32863e-09
8.46415e-08
5.00469e-09
1.57081e-09
2.31165e-09
6.31562e-08
2.1421e-07
2.63425e-07
4.72891e-09
1.82961e-07
2.98611e-07
1.67819e-08
5.00654e-07
1.2192e-08
7.39492e-07
6.73883e-06
9.76561e-06
1.77978e-08
6.66678e-07
1.318e-08
9.1373e-07
1.45105e-09
1.90487e-09
2.05922e-09
1.545e-09
1.41066e-09