/*--------------------------------*- C++ -*----------------------------------*\
| =========                 |                                                 |
| \\      /  F ield         | OpenFOAM: The Open Source CFD Toolbox           |
|  \\    /   O peration     | Version:  v2012                                 |
|   \\  /    A nd           | Website:  www.openfoam.com                      |
|    \\/     M anipulation  |                                                 |
\*---------------------------------------------------------------------------*/
FoamFile
{
    version     2.0;
    format      ascii;
    class       volScalarField;
    location    "587.5";
    object      nut;
}
// * * * * * * * * * * * * * * * * * * * * * * * * * * * * * * * * * * * * * //

dimensions      [0 2 -1 0 0 0 0];


internalField   nonuniform List<scalar> 
171728
(
2.73185e-06
1.68532e-06
1.89234e-06
2.26566e-06
2.70697e-06
1.65811e-06
1.83565e-06
2.18599e-06
2.72567e-06
1.62164e-06
1.79426e-06
2.0993e-06
2.79475e-06
1.56792e-06
1.77302e-06
2.15945e-06
2.82592e-06
1.51934e-06
1.74694e-06
2.53075e-06
2.79023e-06
1.49566e-06
1.6912e-06
3.09303e-06
2.68033e-06
1.46674e-06
1.61248e-06
3.59574e-06
2.63293e-06
1.41722e-06
1.51707e-06
3.5926e-06
2.63137e-06
1.36507e-06
1.43409e-06
2.30466e-06
2.63935e-06
1.30574e-06
1.39801e-06
2.36143e-06
2.65137e-06
1.24177e-06
1.39894e-06
2.50392e-06
2.66483e-06
1.17698e-06
1.5706e-06
2.48484e-06
2.67911e-06
1.11072e-06
1.97526e-06
1.99879e-06
2.69719e-06
1.04938e-06
2.68017e-06
1.68355e-06
2.7149e-06
9.91371e-07
3.36809e-06
1.492e-06
2.72753e-06
9.43532e-07
3.5566e-06
1.36949e-06
2.73184e-06
9.0536e-07
2.91483e-06
1.3034e-06
2.72817e-06
8.95904e-07
2.0293e-06
1.36646e-06
2.71623e-06
9.47325e-07
1.92235e-06
1.51514e-06
2.70124e-06
1.04732e-06
1.80857e-06
1.77723e-06
2.67465e-06
1.22505e-06
1.61973e-06
2.56769e-06
2.6235e-06
1.77107e-06
2.35057e-06
1.81465e-06
2.55188e-06
1.84584e-06
2.16665e-06
6.22868e-06
2.46002e-06
3.17149e-06
3.15208e-06
8.07258e-06
2.34788e-06
3.88972e-06
4.14734e-06
5.82076e-06
2.20981e-06
4.75737e-06
5.37299e-06
1.44448e-05
2.05021e-06
7.40376e-06
7.0421e-06
1.54807e-05
1.94714e-06
7.84709e-06
9.52094e-06
2.55857e-05
1.85051e-06
1.47291e-05
1.07807e-05
2.849e-05
1.77964e-06
1.17091e-05
1.49156e-05
4.20222e-05
1.94344e-06
1.83635e-05
1.69397e-05
4.19678e-05
1.90624e-06
2.4538e-05
2.77242e-05
5.32721e-05
2.48641e-06
2.33326e-05
2.57115e-05
6.01857e-05
2.74565e-06
3.44527e-05
2.73133e-05
6.56438e-05
2.94954e-06
3.45186e-05
3.84431e-05
6.4894e-05
3.80962e-06
3.92752e-05
4.08357e-05
7.23385e-05
5.00263e-06
4.65337e-05
4.70376e-05
9.35189e-05
6.22063e-06
5.81743e-05
5.57195e-05
8.41649e-05
8.13894e-06
5.84904e-05
5.81539e-05
7.39626e-05
9.97238e-06
5.18218e-05
5.36915e-05
9.26514e-05
9.0597e-06
9.2547e-05
7.968e-05
0.000106429
1.83837e-05
8.63305e-05
8.38691e-05
0.000105505
1.72708e-05
6.43359e-05
7.62782e-05
9.59519e-05
1.55585e-05
7.95866e-05
8.42759e-05
0.000104706
2.85701e-05
0.000120515
9.77543e-05
0.000118766
3.42983e-05
0.000115312
0.000106109
0.000115422
3.12243e-05
9.62068e-05
0.00010276
0.000111537
3.399e-05
0.000105624
0.000107194
0.000126422
4.98198e-05
0.000125487
0.000124548
0.000131763
5.90484e-05
0.000121161
0.000119021
0.000123743
5.21391e-05
0.000120031
0.000116398
0.000123956
5.7764e-05
0.000137097
0.000140115
0.000146649
8.52881e-05
0.000136009
0.000142283
0.000144625
8.30951e-05
0.00013103
0.000129576
0.000129926
7.31937e-05
0.000148525
0.000136582
0.000145566
9.81557e-05
0.000159899
0.000162117
0.000159185
0.000113653
0.000147888
0.000153356
0.000151986
0.000100584
0.000136676
0.000144814
0.00013994
9.80676e-05
0.000163895
0.000157251
0.000155495
0.00013008
0.000185292
0.000172828
0.000170099
0.00013662
0.00017587
0.000173235
0.000164646
0.000136972
0.000156218
0.000169332
0.000155747
0.000130259
0.000159289
0.000166688
0.000161738
0.000136681
0.000183495
0.000176794
0.000172696
0.000157395
0.000189041
0.000181011
0.000171197
0.000160756
0.000184259
0.000183214
0.000170405
0.000162541
0.000181049
0.000191172
0.000176037
0.000168433
0.00019149
0.000190591
0.000175808
0.000174594
0.000197601
0.000188858
0.000179547
0.00017988
0.000193208
0.000195466
0.000181461
0.000182723
0.000190625
0.000198411
0.000179337
0.000189641
0.000202069
0.000199708
0.000184454
0.000194604
0.000206479
0.000203908
0.000187504
0.000199678
0.000203915
0.000203584
0.000185485
0.000202375
0.000203526
0.000206827
0.000188056
0.000207309
0.000210738
0.000210435
0.000191789
0.000213019
0.000213314
0.000209178
0.000189758
0.000215196
0.000210537
0.000211773
0.00019021
0.00021818
0.000211533
0.000216862
0.000195764
0.000221168
0.000219421
0.00021651
0.00019539
0.000227936
0.000221001
0.000216431
0.000193077
0.000230034
0.000217047
0.000218865
0.000196626
0.00022911
0.000214883
0.000222118
0.000199825
0.000232164
0.000223141
0.000221231
0.000196172
0.000238068
0.000230388
0.000220695
0.00019772
0.000241977
0.000223184
0.000225164
0.000200597
0.000239648
0.000216822
0.000227194
0.000200251
0.000239556
0.000223292
0.000223827
0.000197645
0.000245613
0.000232988
0.000220785
0.000198923
0.000248074
0.000233393
0.000228876
0.00020452
0.000246788
0.00022075
0.000232218
0.00020197
0.000245412
0.000217897
0.000221569
0.000193128
0.000251959
0.000235296
0.000227042
0.000203915
0.000252011
0.000232174
0.000233304
0.000208868
0.000241024
0.000216317
0.000217374
0.00019242
2.21797e-06
2.75708e-06
2.08404e-06
2.23825e-06
2.15683e-06
1.99131e-06
2.75064e-06
2.52389e-06
2.88886e-06
2.92453e-06
2.20076e-06
2.25886e-06
2.27045e-06
2.55795e-06
1.96145e-06
2.26666e-06
2.19724e-06
2.19259e-06
2.2502e-06
1.52924e-06
2.47525e-06
1.52626e-06
2.23488e-06
2.203e-06
5.45551e-06
1.7994e-06
3.51811e-06
1.92249e-06
1.72945e-06
1.66427e-06
1.72185e-06
2.26861e-06
2.19842e-06
2.76425e-06
1.84642e-06
2.25226e-06
2.19688e-06
2.18725e-06
2.23441e-06
2.58789e-06
1.52707e-06
3.0872e-06
1.53477e-06
2.20114e-06
2.16271e-06
2.98843e-06
1.9945e-06
1.99089e-06
2.26746e-06
1.72556e-06
1.63243e-06
1.74118e-06
2.19232e-06
2.18001e-06
2.13323e-06
1.8042e-06
2.07178e-06
2.10338e-06
2.22579e-06
2.3818e-06
3.35222e-06
1.53755e-06
4.48552e-06
1.55471e-06
2.15971e-06
2.11501e-06
1.82093e-06
2.38885e-06
1.56829e-06
3.05384e-06
1.74735e-06
1.58169e-06
1.7687e-06
2.18846e-06
2.33698e-06
2.11067e-06
1.77597e-06
2.48222e-06
2.14029e-06
2.37537e-06
2.5622e-06
4.95083e-06
1.56287e-06
6.56436e-06
1.592e-06
2.11181e-06
2.06924e-06
1.53608e-06
3.45348e-06
1.51322e-06
5.44774e-06
1.7751e-06
1.52842e-06
1.79294e-06
2.38648e-06
2.79673e-06
2.67748e-06
1.75819e-06
3.64239e-06
2.46362e-06
2.56032e-06
2.76521e-06
7.09837e-06
1.60179e-06
7.99143e-06
1.63564e-06
2.06641e-06
2.036e-06
1.51135e-06
6.46099e-06
1.50219e-06
1.05215e-05
1.79675e-06
1.50068e-06
1.80348e-06
2.82447e-06
3.28347e-06
4.09922e-06
1.70553e-06
5.91793e-06
3.04851e-06
2.7404e-06
2.36081e-06
7.40027e-06
1.64967e-06
4.9434e-06
1.69816e-06
2.0338e-06
2.0201e-06
1.49885e-06
1.1916e-05
1.49685e-06
1.50607e-05
1.80766e-06
1.47607e-06
1.83335e-06
3.28456e-06
3.60789e-06
6.65703e-06
1.63696e-06
8.74721e-06
3.58917e-06
2.31311e-06
2.00443e-06
4.10686e-06
1.71394e-06
2.2978e-06
1.74907e-06
2.01734e-06
1.99919e-06
1.49918e-06
1.49893e-05
1.50734e-06
8.58562e-06
1.84345e-06
1.4297e-06
1.8589e-06
3.55723e-06
2.54322e-06
9.26966e-06
1.53967e-06
9.87753e-06
3.74641e-06
1.9898e-06
1.9234e-06
1.94941e-06
1.75359e-06
1.40003e-06
1.74313e-06
1.99539e-06
1.96727e-06
1.51019e-06
6.62206e-06
1.51276e-06
2.99273e-06
1.8582e-06
1.37736e-06
1.84822e-06
2.46474e-06
2.04964e-06
8.69719e-06
1.45097e-06
5.33207e-06
2.39017e-06
1.92112e-06
1.87543e-06
1.31919e-06
1.73389e-06
1.20461e-06
1.69048e-06
1.9625e-06
1.90997e-06
1.51256e-06
2.39799e-06
1.50662e-06
1.54597e-06
1.8462e-06
1.32227e-06
1.83525e-06
2.01528e-06
1.8068e-06
4.64514e-06
1.40406e-06
3.87615e-06
2.34476e-06
1.87351e-06
1.8106e-06
1.18848e-06
1.67312e-06
1.16837e-06
1.6199e-06
1.9038e-06
1.8279e-06
1.50324e-06
1.43309e-06
1.48405e-06
1.29013e-06
1.82745e-06
1.25724e-06
1.7975e-06
1.79976e-06
1.74752e-06
3.92647e-06
1.39178e-06
4.49468e-06
2.51382e-06
1.80658e-06
1.72845e-06
1.16397e-06
1.60093e-06
1.15634e-06
1.54939e-06
1.82084e-06
1.73662e-06
1.47473e-06
1.26907e-06
1.44011e-06
1.22414e-06
1.78903e-06
1.19165e-06
1.75885e-06
1.74461e-06
1.73732e-06
4.74787e-06
1.50847e-06
5.07303e-06
2.51883e-06
1.72078e-06
1.63682e-06
1.15149e-06
1.53388e-06
1.13693e-06
1.4845e-06
1.72703e-06
1.64101e-06
1.42556e-06
1.21487e-06
1.37736e-06
1.19027e-06
1.7456e-06
1.12351e-06
1.69399e-06
1.73718e-06
1.76915e-06
4.95847e-06
1.84504e-06
3.29039e-06
2.04697e-06
1.62503e-06
1.54673e-06
1.13107e-06
1.46992e-06
1.11373e-06
1.41159e-06
1.62776e-06
1.53211e-06
1.35863e-06
1.18272e-06
1.31351e-06
1.16199e-06
1.67419e-06
1.06298e-06
1.61724e-06
1.77806e-06
1.88034e-06
2.80078e-06
2.48728e-06
1.76903e-06
1.71253e-06
1.53185e-06
1.46803e-06
1.10869e-06
1.39122e-06
1.09991e-06
1.31914e-06
1.51397e-06
1.42167e-06
1.29907e-06
1.15486e-06
1.26004e-06
1.12975e-06
1.60016e-06
1.00776e-06
1.56318e-06
1.89663e-06
1.96686e-06
1.54882e-06
3.21207e-06
1.16624e-06
1.52121e-06
1.44968e-06
1.39086e-06
1.09842e-06
1.29247e-06
1.08545e-06
1.22405e-06
1.39916e-06
1.31988e-06
1.25086e-06
1.12439e-06
1.21686e-06
1.10117e-06
1.54617e-06
9.57777e-07
1.51272e-06
1.95992e-06
1.9338e-06
1.10804e-06
3.57414e-06
1.01804e-06
1.39391e-06
1.3675e-06
1.30718e-06
1.08521e-06
1.20279e-06
1.06782e-06
1.13478e-06
1.29472e-06
1.21459e-06
1.21028e-06
1.09206e-06
1.17036e-06
1.05717e-06
1.4877e-06
9.06956e-07
1.45576e-06
1.89887e-06
1.73593e-06
9.97095e-07
3.22929e-06
9.21502e-07
1.31576e-06
1.28226e-06
1.24081e-06
1.06641e-06
1.12291e-06
1.05885e-06
1.08829e-06
1.19665e-06
1.14275e-06
1.16486e-06
1.05016e-06
1.13188e-06
9.94606e-07
1.44437e-06
8.96461e-07
1.37809e-06
1.68356e-06
1.42025e-06
9.09946e-07
2.11821e-06
1.15937e-06
1.31523e-06
1.21937e-06
1.24928e-06
1.05425e-06
1.07627e-06
1.09626e-06
1.12146e-06
1.11474e-06
1.17288e-06
1.11604e-06
9.9836e-07
1.16208e-06
1.0579e-06
1.4034e-06
9.3974e-07
1.34661e-06
1.37036e-06
1.40346e-06
1.34118e-06
1.96386e-06
1.84584e-06
1.5192e-06
1.24376e-06
1.35345e-06
1.0763e-06
1.11844e-06
1.19795e-06
1.18548e-06
1.17395e-06
1.26918e-06
1.1359e-06
1.05951e-06
1.24592e-06
1.09945e-06
1.32666e-06
1.01966e-06
1.49418e-06
1.38675e-06
1.41457e-06
2.00219e-06
1.78109e-06
2.53076e-06
1.80791e-06
1.42922e-06
1.50238e-06
1.22056e-06
1.20405e-06
1.28246e-06
1.36541e-06
1.32197e-06
1.58508e-06
1.27839e-06
1.16998e-06
1.33812e-06
1.24204e-06
1.45932e-06
1.22464e-06
1.45888e-06
1.48216e-06
1.55331e-06
2.50857e-06
1.7052e-06
2.87097e-06
1.99264e-06
1.65979e-06
2.33224e-06
1.41042e-06
1.36316e-06
1.59946e-06
1.73843e-06
1.67491e-06
2.4265e-06
1.46419e-06
1.2878e-06
1.63055e-06
1.6259e-06
1.71842e-06
1.63191e-06
1.81003e-06
1.53362e-06
2.51454e-06
2.91875e-06
2.04526e-06
2.27929e-06
2.12163e-06
2.30523e-06
3.19977e-06
1.63647e-06
1.903e-06
2.01829e-06
1.81955e-06
2.8556e-06
2.59064e-06
1.67458e-06
1.78358e-06
2.14027e-06
2.06474e-06
1.68903e-06
1.69631e-06
1.94948e-06
2.95258e-06
3.53093e-06
2.06173e-06
2.26744e-06
2.5168e-06
3.30334e-06
3.67601e-06
5.31341e-06
2.23378e-06
1.92996e-06
2.76645e-06
2.92766e-06
2.53876e-06
5.80185e-06
2.32985e-06
2.03951e-06
2.79976e-06
2.62756e-06
2.89259e-06
2.83721e-06
3.47232e-06
3.35689e-06
4.23111e-06
3.51969e-06
2.77001e-06
3.90948e-06
9.29479e-06
5.60421e-06
7.67521e-06
2.97284e-06
3.24045e-06
3.67682e-06
3.74316e-06
6.65514e-06
8.27237e-06
2.99797e-06
3.01081e-06
3.71133e-06
3.95769e-06
3.21026e-06
3.51393e-06
2.81392e-06
5.27383e-06
9.57167e-06
3.59329e-06
4.00286e-06
3.09261e-06
4.42574e-06
8.19954e-06
1.17453e-05
3.93535e-06
4.10009e-06
4.9923e-06
4.64201e-06
8.29624e-06
1.09975e-05
4.01225e-06
4.10235e-06
5.08015e-06
4.73882e-06
3.58546e-06
4.46797e-06
5.29311e-06
9.74067e-06
1.03313e-05
3.73021e-06
5.0276e-06
5.1962e-06
1.45182e-05
1.26463e-05
1.65957e-05
5.38401e-06
4.99143e-06
6.62209e-06
7.34369e-06
1.2063e-05
1.68012e-05
5.46748e-06
5.24994e-06
6.64904e-06
6.73081e-06
5.191e-06
7.14022e-06
6.28626e-06
1.13416e-05
1.68044e-05
5.08456e-06
6.58073e-06
6.11071e-06
1.37661e-05
1.76221e-05
2.29521e-05
7.07107e-06
7.60793e-06
8.68929e-06
7.2623e-06
1.85232e-05
1.78083e-05
7.12064e-06
7.0798e-06
8.81476e-06
8.5481e-06
7.04793e-06
7.10666e-06
8.61841e-06
1.77004e-05
2.24889e-05
6.85078e-06
8.5244e-06
8.88149e-06
2.47722e-05
2.41455e-05
2.96488e-05
9.27827e-06
7.96196e-06
1.09779e-05
1.50082e-05
1.83003e-05
4.56731e-05
9.37058e-06
9.54528e-06
1.10587e-05
1.08654e-05
9.10067e-06
1.47373e-05
1.02165e-05
2.39061e-05
2.99626e-05
9.39675e-06
1.06628e-05
1.00168e-05
2.70075e-05
3.0988e-05
3.6646e-05
1.17631e-05
1.49412e-05
1.40043e-05
1.24412e-05
4.56932e-05
2.92765e-05
1.18204e-05
1.11961e-05
1.40613e-05
1.45633e-05
1.0873e-05
1.228e-05
1.54815e-05
3.10249e-05
3.53399e-05
1.06764e-05
1.42157e-05
1.53945e-05
3.98275e-05
3.80946e-05
4.36191e-05
1.43921e-05
1.18312e-05
1.75245e-05
1.58918e-05
2.749e-05
3.96497e-05
1.46091e-05
1.53527e-05
1.74921e-05
1.54851e-05
1.64518e-05
1.53535e-05
1.58412e-05
3.6495e-05
4.28075e-05
1.63599e-05
1.56891e-05
1.57492e-05
4.23024e-05
4.50794e-05
4.95448e-05
1.85784e-05
1.9224e-05
1.9621e-05
2.43472e-05
4.62568e-05
5.75834e-05
1.85236e-05
1.64533e-05
2.0258e-05
2.46102e-05
1.56704e-05
2.45357e-05
2.25033e-05
4.42973e-05
5.5727e-05
1.56591e-05
2.5551e-05
2.1499e-05
4.95846e-05
5.10943e-05
5.88362e-05
2.11846e-05
2.44905e-05
2.78987e-05
2.29577e-05
5.73772e-05
5.50955e-05
2.15258e-05
2.64121e-05
2.65796e-05
2.54009e-05
2.53581e-05
2.29856e-05
2.6619e-05
5.87149e-05
5.72254e-05
2.36997e-05
2.67378e-05
2.56971e-05
5.98915e-05
6.01757e-05
6.35257e-05
2.84109e-05
2.28629e-05
2.93356e-05
3.09204e-05
5.54566e-05
6.59539e-05
2.74578e-05
2.46164e-05
3.00368e-05
2.66817e-05
2.61727e-05
3.28972e-05
2.93875e-05
5.62456e-05
5.78069e-05
2.56688e-05
2.41817e-05
2.97659e-05
6.39183e-05
6.45806e-05
6.78322e-05
3.10199e-05
3.50183e-05
3.49257e-05
3.94729e-05
6.85621e-05
6.88083e-05
3.12443e-05
3.09534e-05
3.36336e-05
3.73263e-05
3.26151e-05
3.45311e-05
3.54149e-05
6.10024e-05
7.21402e-05
3.26614e-05
3.81658e-05
3.52505e-05
6.53144e-05
6.87886e-05
7.27245e-05
3.59142e-05
3.84795e-05
3.9309e-05
3.49708e-05
6.85855e-05
6.96532e-05
3.50294e-05
3.72262e-05
4.01683e-05
3.86589e-05
3.43493e-05
3.7015e-05
3.26828e-05
7.25987e-05
7.26596e-05
3.41155e-05
3.92875e-05
3.20728e-05
6.89621e-05
7.39265e-05
7.89476e-05
3.98542e-05
3.46986e-05
4.58134e-05
4.45797e-05
7.12129e-05
7.87148e-05
4.10476e-05
4.04535e-05
4.49089e-05
4.57029e-05
3.51762e-05
4.48869e-05
5.74763e-05
7.3344e-05
7.77918e-05
3.35942e-05
4.59432e-05
5.61215e-05
9.13381e-05
8.02097e-05
8.23246e-05
4.90085e-05
4.79014e-05
5.30517e-05
5.56442e-05
8.02351e-05
8.72598e-05
4.70397e-05
4.67989e-05
5.13772e-05
5.21631e-05
6.28003e-05
5.38424e-05
6.12526e-05
7.90715e-05
8.41579e-05
6.41813e-05
5.23285e-05
6.68803e-05
8.61364e-05
8.29447e-05
8.79172e-05
5.27108e-05
5.92519e-05
5.57e-05
6.11113e-05
8.90588e-05
8.55847e-05
5.20669e-05
5.44145e-05
5.92516e-05
5.98468e-05
5.84465e-05
6.05001e-05
4.70606e-05
8.54655e-05
8.69811e-05
6.31768e-05
5.96934e-05
4.41448e-05
7.34556e-05
8.95687e-05
9.10947e-05
5.93613e-05
5.91806e-05
6.61546e-05
5.31527e-05
8.44197e-05
7.91381e-05
6.2925e-05
5.96964e-05
6.55353e-05
5.73271e-05
4.54777e-05
5.22275e-05
5.16888e-05
8.68385e-05
8.58646e-05
4.0771e-05
5.37373e-05
3.91011e-05
8.88232e-05
9.09051e-05
9.17321e-05
6.55616e-05
5.26684e-05
6.39026e-05
7.99308e-05
8.15465e-05
0.00011319
6.4248e-05
5.8415e-05
6.22112e-05
7.01475e-05
6.13269e-05
8.19976e-05
8.28293e-05
8.6732e-05
9.806e-05
4.67919e-05
7.32083e-05
9.17875e-05
0.000105246
9.35683e-05
0.000102661
6.67435e-05
8.95507e-05
8.2517e-05
8.89723e-05
0.000115426
0.000100913
6.59576e-05
7.56064e-05
8.11045e-05
8.31204e-05
8.6859e-05
9.11472e-05
8.63125e-05
0.000100358
0.000102581
0.000100642
8.53064e-05
0.000102457
0.000106253
0.000103088
0.000100847
8.42799e-05
8.55987e-05
8.08472e-05
7.10544e-05
9.86311e-05
8.90228e-05
8.30671e-05
8.21396e-05
8.22477e-05
7.9106e-05
8.40954e-05
6.69397e-05
7.43075e-05
0.000102118
9.85407e-05
9.92854e-05
7.77479e-05
7.67817e-05
9.66092e-05
0.000100453
0.000102477
7.91725e-05
6.85814e-05
7.81791e-05
6.88397e-05
8.93147e-05
0.00010043
8.09948e-05
7.8735e-05
8.1225e-05
8.16023e-05
7.25055e-05
6.60604e-05
7.72218e-05
9.8658e-05
0.00010351
7.2587e-05
8.11824e-05
7.07551e-05
0.000100959
0.000104394
0.000114372
8.33429e-05
7.96442e-05
9.91738e-05
0.000110291
0.000105749
0.000124576
8.47914e-05
8.43476e-05
9.65931e-05
9.45879e-05
8.46284e-05
0.000115499
0.000103682
0.000104974
0.000112068
7.90266e-05
9.43906e-05
0.000103937
0.000117866
0.000115542
0.000116224
0.000101688
0.000114306
0.000104669
0.000112207
0.000125593
0.000121507
9.88434e-05
9.82038e-05
0.00010437
0.00010522
0.000107006
0.000118326
0.000105276
0.000113656
0.000117331
0.000108125
0.000104728
0.000108222
0.000116208
0.000115927
0.000113545
0.000103868
0.000109793
9.96738e-05
9.88259e-05
0.000120368
0.000111164
0.000104693
0.000105871
0.000101351
0.00010331
0.000103115
9.8825e-05
9.65565e-05
0.000117442
0.000115579
0.00010647
0.000104164
0.000100176
0.000111226
0.00011339
0.000120042
9.86051e-05
9.72063e-05
0.000107449
0.000100732
0.000110605
0.000117603
0.000100138
0.000102067
0.000106493
0.000103904
9.56953e-05
9.6785e-05
0.000108119
0.000115128
0.000117696
9.91792e-05
0.000102369
0.000109669
0.000123417
0.000122394
0.000128665
0.000111454
0.000109463
0.000119808
0.000122289
0.000121449
0.000130222
0.000110426
0.000108198
0.000119099
0.00012197
0.000114031
0.000123877
0.000125369
0.000120127
0.00013058
0.000115596
0.000122575
0.000125731
0.00013218
0.00012929
0.000129575
0.000121587
0.000122289
0.000123192
0.00011872
0.00013016
0.000126973
0.000121676
0.000124011
0.000123784
0.000121248
0.000125389
0.000122796
0.00012023
0.000130943
0.000126189
0.000125224
0.000121317
0.000118934
0.000124615
0.000129097
0.000125939
0.000122202
0.000117764
0.000118661
0.00012038
0.000126524
0.000128539
0.000122521
0.000119267
0.000118525
0.000116156
0.000117538
0.000118508
0.000113617
0.000125415
0.000125068
0.000115948
0.000115398
0.000112233
0.000122261
0.000126002
0.000136371
0.00011829
0.000122829
0.000128782
0.000133632
0.000129738
0.000139529
0.000118089
0.000117735
0.000129261
0.000134642
0.000114267
0.000133396
0.000135432
0.000127147
0.000141421
0.000113482
0.000134709
0.000137582
0.000143503
0.000138943
0.000143449
0.000133993
0.000136649
0.000142153
0.000136478
0.000141037
0.000138259
0.000134399
0.00013894
0.000141915
0.00014235
0.000142097
0.000137514
0.00014502
0.000143485
0.000144867
0.000143826
0.000143906
0.000143983
0.00014628
0.000142908
0.000136873
0.00014134
0.000135035
0.000135959
0.000131062
0.000137168
0.000132218
0.00014104
0.000140964
0.000135297
0.000132434
0.000143042
0.000131352
0.00013177
0.000143926
0.000132358
0.000141259
0.000131984
0.000130099
0.000130547
0.000136342
0.000140819
0.000134484
0.000131017
0.00013453
0.000144708
0.000133598
0.000149861
0.000133743
0.000130254
0.000134296
0.000130423
0.000130158
0.000143398
0.000131427
0.000131382
0.000136476
0.000129183
0.00012959
0.000136791
0.000140823
0.000144042
0.00015436
0.000139847
0.000149516
0.000155054
0.000159169
0.000152414
0.000158428
0.000140405
0.000137519
0.000155905
0.000159698
0.00013865
0.000159319
0.000157448
0.000141448
0.000159796
0.000146355
0.000160495
0.000161577
0.000158734
0.000154452
0.000149684
0.00015662
0.000159387
0.000154574
0.000152675
0.000158277
0.000147234
0.000157184
0.000161683
0.000154662
0.000157967
0.000159988
0.000153526
0.000158419
0.000160053
0.000151756
0.00016183
0.000157429
0.000156011
0.000153444
0.000148806
0.000144671
0.000152705
0.000146918
0.00014738
0.000137063
0.000144392
0.000131565
0.000152343
0.000154168
0.000147308
0.00014625
0.000156338
0.000137317
0.00014735
0.000150338
0.000142955
0.000151534
0.000145679
0.000141638
0.000140568
0.00014506
0.000156306
0.000146745
0.000136562
0.00015541
0.000155843
0.000131713
0.000158091
0.000146754
0.000145499
0.000155784
0.0001523
0.000146123
0.000153604
0.000148475
0.000142678
0.000153786
0.000140519
0.000150058
0.000147227
0.000150823
0.000158649
0.000162838
0.00016067
0.00016554
0.00016878
0.000182674
0.000163362
0.000178865
0.000160676
0.000158868
0.000168654
0.00017
0.000155956
0.000183575
0.000173216
0.000157192
0.000164647
0.000156748
0.000171026
0.00017619
0.000169464
0.000162875
0.00016359
0.000169501
0.000184038
0.000172233
0.000180769
0.000179403
0.000170537
0.00016937
0.000170953
0.000170228
0.00017078
0.000175113
0.000182052
0.000173768
0.000164803
0.000163519
0.000178673
0.000173666
0.000177954
0.000165753
0.000163965
0.000162146
0.000172589
0.000175165
0.00017016
0.000159974
0.000167936
0.000149732
0.000171135
0.000170382
0.000170414
0.000170134
0.000171643
0.000158972
0.000164226
0.00016324
0.000162734
0.000175778
0.000170524
0.000165801
0.000156292
0.000161416
0.000157702
0.000168319
0.000157226
0.000164428
0.000155357
0.000148408
0.000150996
0.000169429
0.000170583
0.000166096
0.000168936
0.000162996
0.000154916
0.00016339
0.000162626
0.000161221
0.000163956
0.000166835
0.000163042
0.000159318
0.000158085
0.00016927
0.000164221
0.000158538
0.000175509
0.000177776
0.000154177
0.000171475
0.000165831
0.000168409
0.000175168
0.000172105
0.000167727
0.00017923
0.000180269
0.000161005
0.000166044
0.000166245
0.00017396
0.000179172
0.000171958
0.000171073
0.000172965
0.000179675
0.000182357
0.000184719
0.000189282
0.00017364
0.000177622
0.000179061
0.000175832
0.000183769
0.000181503
0.000182513
0.000189159
0.000183392
0.000167527
0.000170339
0.000181402
0.000180979
0.000182347
0.000171614
0.000172668
0.00017147
0.000184811
0.000189424
0.000184083
0.000187218
0.000177482
0.000174522
0.000183715
0.000181682
0.000182826
0.000181758
0.000182942
0.000186309
0.00018166
0.000170142
0.000170952
0.000181877
0.000181555
0.000180843
0.000169987
0.000171487
0.000175067
0.000183804
0.000185219
0.000185719
0.000181626
0.000173747
0.000169286
0.000182682
0.00018287
0.000186402
0.000189255
0.000181508
0.000181139
0.000185949
0.00017196
0.000178612
0.000181113
0.00018972
0.000187337
0.000175527
0.000175645
0.000176107
0.00018672
0.000181414
0.000187523
0.000187999
0.000169077
0.000176873
0.000188095
0.0001909
0.000190051
0.000191355
0.000187303
0.000188358
0.000188084
0.000179129
0.000177476
0.000188756
0.000191166
0.000189535
0.000175994
0.00017603
0.000178298
0.000188106
0.000191289
0.000192421
0.000197353
0.000178849
0.000184334
0.000190018
0.000190854
0.000190713
0.000189229
0.000188253
0.000197514
0.000192678
0.000176947
0.000174879
0.000189394
0.000188986
0.000190903
0.000178616
0.000178973
0.000180846
0.000194033
0.000197348
0.000196002
0.000194644
0.000184128
0.000178408
0.000191584
0.000189046
0.000194604
0.000192757
0.000194571
0.00019506
0.000196695
0.000174986
0.000180125
0.000192266
0.000193363
0.000195916
0.000181721
0.000180645
0.000180084
0.000195707
0.000192865
0.000194741
0.000190619
0.000177449
0.000174982
0.000195087
0.000194942
0.00019587
0.000198267
0.000196322
0.000190622
0.000194519
0.000181066
0.000182639
0.000196245
0.000198296
0.000195656
0.000179601
0.000180235
0.000184559
0.000194681
0.000190762
0.000199062
0.000199644
0.000175641
0.000185535
0.00019662
0.000198494
0.000200477
0.00019939
0.000194251
0.000198802
0.000197077
0.000182537
0.000183291
0.000195519
0.000198763
0.000198546
0.000183184
0.000185221
0.000185978
0.000201071
0.000202785
0.000204022
0.000206785
0.000187106
0.000189451
0.000201547
0.000200491
0.00020234
0.000203153
0.00019991
0.00020659
0.000205056
0.000183817
0.000186509
0.000200449
0.00020339
0.000204342
0.000187665
0.000185761
0.000186328
0.000204111
0.000206632
0.000204284
0.00020439
0.000189105
0.000185857
0.000202267
0.000203267
0.000203689
0.000202816
0.000205295
0.000204677
0.000204474
0.000186409
0.000185336
0.000204545
0.000203706
0.000203747
0.000185751
0.000186639
0.000187414
0.000204369
0.000203408
0.000204339
0.000202318
0.000185439
0.000184952
0.000204555
0.000202788
0.000205792
0.000206194
0.000204158
0.000203168
0.000204429
0.000185122
0.000188415
0.000203487
0.000205014
0.00020411
0.000187117
0.000187384
0.000190249
0.000204637
0.000202547
0.000208597
0.000208611
0.000185265
0.000190384
0.000206291
0.000207929
0.000209268
0.0002104
0.000205825
0.000208819
0.000210125
0.000189449
0.000191511
0.000205996
0.000210446
0.000210836
0.000191797
0.000190808
0.000191602
0.000210153
0.00021089
0.000212453
0.000213977
0.000191451
0.000193999
0.000210104
0.000210201
0.000210643
0.000208935
0.000210895
0.000213521
0.000210807
0.000191198
0.000188718
0.000211228
0.00020943
0.000210432
0.000190153
0.000191392
0.000191534
0.000212462
0.000213819
0.000212104
0.0002116
0.000193717
0.000190323
0.000210577
0.000208745
0.000211056
0.000210126
0.000210427
0.000211184
0.000209906
0.000188453
0.000191149
0.000209886
0.000209898
0.00020966
0.000189604
0.000191829
0.000193161
0.000212014
0.000210847
0.000212973
0.000210443
0.000189844
0.000190073
0.000212378
0.000212391
0.000214692
0.000216323
0.000210195
0.00021044
0.000214795
0.000192316
0.000195557
0.000210305
0.000216403
0.000215854
0.000195342
0.000192996
0.000193249
0.000213158
0.00021111
0.000214643
0.000217284
0.000190814
0.000196759
0.00021474
0.000216495
0.000214824
0.00021623
0.00021616
0.000217939
0.000217573
0.000195411
0.000194467
0.000216969
0.000216783
0.000217476
0.000195728
0.000193716
0.000197384
0.000215992
0.000219054
0.000219722
0.000221427
0.000197504
0.000199376
0.000215173
0.000216159
0.000218779
0.000216665
0.000217463
0.000221041
0.000216416
0.000194263
0.000194811
0.000217208
0.000216257
0.000215562
0.000193299
0.000197398
0.000196354
0.000220069
0.00022143
0.000219658
0.000218702
0.000199118
0.000195148
0.000219425
0.000217464
0.000219592
0.00021845
0.000216299
0.000218341
0.000217527
0.000194956
0.000195796
0.000215441
0.000217935
0.00021734
0.000195608
0.000196065
0.00019596
0.000219038
0.000217153
0.000218255
0.000214508
0.000194407
0.000191407
0.0002193
0.000218682
0.000219045
0.000220706
0.000219157
0.000214876
0.000221704
0.000195847
0.000198282
0.000219628
0.000221771
0.000222996
0.000199975
0.00019606
0.000196908
0.000218304
0.000214482
0.000219653
0.000219312
0.000191176
0.000197023
0.000219209
0.000221325
0.000220241
0.00022158
0.000221739
0.000219875
0.000220673
0.000198391
0.000197832
0.000223033
0.000221855
0.00022097
0.000196611
0.00019687
0.000199812
0.000220398
0.0002228
0.00022444
0.000230107
0.000198703
0.000207348
0.0002205
0.000221319
0.000223121
0.000221022
0.000220524
0.000229963
0.000221659
0.000197513
0.000196935
0.000220172
0.000220514
0.000220098
0.000197034
0.000200412
0.000201519
0.000225604
0.000230618
0.000226485
0.000227429
0.000207481
0.000200546
0.000224344
0.000221263
0.000225707
0.000224253
0.000223034
0.000226856
0.000225177
0.00019702
0.000199858
0.000220752
0.000223972
0.000224845
0.000200638
0.000201141
0.000197574
0.000226091
0.000223622
0.000222085
0.000216953
0.000198477
0.000191115
0.000225675
0.00022517
0.000223514
0.000226556
0.000225308
0.000217072
0.000224242
0.000200147
0.000202016
0.000225537
0.000227049
0.000226187
0.000200484
0.000197202
0.000198057
0.000221368
0.000216641
0.000221908
0.000219714
0.00019081
0.000196962
0.00022294
0.00022668
0.000223191
0.000225143
0.000223721
0.000219949
0.000222393
0.000201996
0.000200022
0.000226086
0.000225535
0.000223663
0.000198051
0.0001986
0.000202244
0.000222981
0.000223298
0.00022805
0.000231635
0.000198652
0.000206784
0.0002236
0.000223852
0.000226179
0.000221128
0.000222376
0.000231427
0.000224421
0.000199269
0.000195294
0.000222796
0.000220685
0.000222464
0.000198278
0.000202291
0.000201946
0.000228756
0.000233035
0.000229223
0.000233995
0.000207329
0.000207585
0.00022662
0.000221215
0.000227411
0.000225557
0.000226214
0.000234342
0.00023041
0.00019512
0.000200779
0.000223144
0.000225693
0.000228776
0.000204162
0.000201608
0.000199235
0.000228421
0.000232631
0.000224969
0.000223533
0.000206551
0.000196884
0.000227398
0.000228511
0.00022689
0.000231863
0.00023087
0.000223947
0.000229436
0.000202221
0.000206897
0.00023012
0.000232422
0.000230722
0.000203203
0.000198647
0.000197399
0.000223672
0.000220642
0.000222638
0.000217617
0.000195212
0.00019072
0.000226125
0.000231723
0.00022418
0.000224246
0.000226532
0.000216943
0.000219376
0.000206643
0.000196582
0.000229691
0.000223746
0.000220938
0.000193491
0.000197591
0.000206603
0.000223461
0.000218658
0.000231458
0.000231728
0.000191023
0.00020799
0.000224752
0.000222422
0.000229952
0.000224497
0.00021929
0.000231208
0.000226065
0.000195407
0.000198654
0.000220021
0.000223598
0.000224103
0.000201353
0.000207512
0.000202634
0.000233204
0.000235159
0.000231654
0.00023484
0.000210062
0.000207566
0.000231681
0.000227587
0.000230827
0.000232279
0.00023135
0.00023592
0.000235859
0.000200919
0.000208005
0.000229153
0.000233791
0.000235453
0.000210069
0.000199415
0.000187538
0.000226891
0.000230316
0.000216868
0.000217395
0.000203663
0.000187503
0.000227186
0.000231577
0.000217056
0.000220281
0.000234714
0.000217641
0.00022078
0.000207378
0.000191088
0.00023481
0.000221294
0.000221789
0.000191505
0.000190205
0.000216223
0.000216531
0.000190094
0.000216124
0.000217199
0.000241971
0.000242751
0.000244014
0.000217568
0.000191747
0.000217888
1.00816e-05
2.26169e-06
4.53972e-06
4.20661e-06
7.61479e-07
2.02497e-06
5.00965e-07
2.06714e-06
7.96919e-07
2.36324e-06
1.46811e-06
7.76068e-07
2.29242e-06
1.91474e-06
9.97855e-06
1.19975e-06
1.38203e-05
1.10391e-06
1.56722e-05
1.05556e-05
1.28819e-05
1.34589e-06
1.60777e-05
1.23693e-06
2.22087e-05
2.50547e-06
2.81857e-06
2.87712e-06
2.70825e-06
2.49268e-06
2.78035e-06
2.87136e-06
7.06811e-07
3.0851e-07
1.22918e-06
1.67903e-06
7.27704e-07
4.1505e-07
1.22108e-06
1.08503e-05
1.31055e-05
6.78261e-07
1.10868e-06
4.43352e-07
1.87002e-06
7.33465e-07
1.10546e-06
5.67291e-07
1.50799e-06
1.33783e-06
2.25256e-06
1.71339e-06
2.97285e-06
1.35357e-06
1.89873e-05
1.28748e-06
2.16142e-05
1.68907e-05
1.91056e-05
1.52122e-06
2.09721e-05
1.45853e-06
2.3173e-05
2.49359e-06
2.78535e-06
2.86836e-06
2.71388e-06
2.49834e-06