/*--------------------------------*- C++ -*----------------------------------*\
| =========                 |                                                 |
| \\      /  F ield         | OpenFOAM: The Open Source CFD Toolbox           |
|  \\    /   O peration     | Version:  v2006                                 |
|   \\  /    A nd           | Website:  www.openfoam.com                      |
|    \\/     M anipulation  |                                                 |
\*---------------------------------------------------------------------------*/
FoamFile
{
    version     2.0;
    format      ascii;
    class       volScalarField;
    location    "125";
    object      k;
}
// * * * * * * * * * * * * * * * * * * * * * * * * * * * * * * * * * * * * * //

dimensions      [0 2 -2 0 0 0 0];


internalField   nonuniform List<scalar> 
43248
(
1.49369e-05
1.61536e-05
1.61538e-05
1.81343e-05
1.46153e-05
1.62927e-05
1.6293e-05
1.87285e-05
1.43372e-05
1.65195e-05
1.65198e-05
1.94264e-05
1.4107e-05
1.68311e-05
1.68316e-05
2.02105e-05
1.39208e-05
1.7217e-05
1.72175e-05
2.10539e-05
1.37557e-05
1.76308e-05
1.76315e-05
2.18932e-05
1.36527e-05
1.80578e-05
1.80586e-05
2.26179e-05
1.34885e-05
1.82519e-05
1.8253e-05
2.29707e-05
1.32394e-05
1.82142e-05
1.82153e-05
2.30266e-05
1.3088e-05
1.81865e-05
1.81875e-05
2.30052e-05
1.30565e-05
1.82078e-05
1.82087e-05
2.30357e-05
1.30638e-05
1.82417e-05
1.82427e-05
2.30632e-05
1.30734e-05
1.82568e-05
1.82578e-05
2.30797e-05
1.30768e-05
1.82612e-05
1.8262e-05
2.30819e-05
1.30778e-05
1.82623e-05
1.82633e-05
2.30812e-05
1.30783e-05
1.82629e-05
1.82641e-05
2.30828e-05
1.30785e-05
1.8263e-05
1.82643e-05
2.30829e-05
1.30786e-05
1.82631e-05
1.82643e-05
2.3081e-05
1.30787e-05
1.82632e-05
1.82643e-05
2.30815e-05
1.30789e-05
1.82633e-05
1.82644e-05
2.3085e-05
1.30789e-05
1.82634e-05
1.82643e-05
2.30829e-05
1.3079e-05
1.82634e-05
1.82644e-05
2.30835e-05
1.30791e-05
1.82634e-05
1.82644e-05
2.30835e-05
1.30792e-05
1.82636e-05
1.82645e-05
2.30868e-05
1.30792e-05
1.82635e-05
1.82644e-05
2.30792e-05
1.30791e-05
1.82632e-05
1.82641e-05
2.30754e-05
1.3079e-05
1.82633e-05
1.82642e-05
2.30859e-05
1.80254e-05
1.61332e-05
1.61336e-05
1.80256e-05
1.61335e-05
1.61336e-05
1.61333e-05
1.61334e-05
1.80257e-05
1.61335e-05
1.61339e-05
1.8026e-05
1.81337e-05
1.85966e-05
1.61536e-05
1.61539e-05
1.62492e-05
1.62496e-05
1.8134e-05
1.85969e-05
1.61538e-05
1.61539e-05
1.62493e-05
1.62497e-05
1.61538e-05
1.62491e-05
1.62494e-05
1.8134e-05
1.85971e-05
1.61542e-05
1.62493e-05
1.62498e-05
1.85975e-05
1.87276e-05
1.92745e-05
1.62929e-05
1.62933e-05
1.64555e-05
1.6456e-05
1.8728e-05
1.92748e-05
1.62929e-05
1.62933e-05
1.64555e-05
1.64561e-05
1.62931e-05
1.64552e-05
1.64558e-05
1.87281e-05
1.92751e-05
1.62935e-05
1.64555e-05
1.64561e-05
1.92757e-05
1.94253e-05
2.00409e-05
1.65198e-05
1.65203e-05
1.6745e-05
1.67455e-05
1.94258e-05
2.00412e-05
1.65197e-05
1.65204e-05
1.67448e-05
1.67457e-05
1.65201e-05
1.67445e-05
1.67454e-05
1.94259e-05
2.00416e-05
1.65204e-05
1.6745e-05
1.67455e-05
2.00423e-05
2.02092e-05
2.08736e-05
1.68317e-05
1.68322e-05
1.7118e-05
1.71185e-05
2.02097e-05
2.08738e-05
1.68315e-05
1.68324e-05
1.71177e-05
1.71189e-05
1.68321e-05
1.71173e-05
1.71184e-05
2.02099e-05
2.08744e-05
1.68322e-05
1.71179e-05
1.71184e-05
2.08753e-05
2.10523e-05
2.17154e-05
1.72177e-05
1.72182e-05
1.75247e-05
1.75252e-05
2.10528e-05
2.17156e-05
1.72173e-05
1.72185e-05
1.75241e-05
1.75255e-05
1.72181e-05
1.75237e-05
1.75251e-05
2.10532e-05
2.17162e-05
1.72181e-05
1.75243e-05
1.75249e-05
2.17172e-05
2.18915e-05
2.24703e-05
1.76318e-05
1.76323e-05
1.79616e-05
1.79621e-05
2.1892e-05
2.24703e-05
1.76313e-05
1.76327e-05
1.79608e-05
1.79626e-05
1.76323e-05
1.79605e-05
1.79623e-05
2.18924e-05
2.24712e-05
1.7632e-05
1.79613e-05
1.79618e-05
2.2473e-05
2.26152e-05
2.28996e-05
1.80591e-05
1.80594e-05
1.82351e-05
1.82354e-05
2.26152e-05
2.28994e-05
1.80582e-05
1.80599e-05
1.82343e-05
1.8236e-05
1.80598e-05
1.82337e-05
1.82358e-05
2.26161e-05
2.29007e-05
1.80592e-05
1.82347e-05
1.82352e-05
2.2902e-05
2.29684e-05
2.29912e-05
1.82534e-05
1.82536e-05
1.82406e-05
1.82408e-05
2.29684e-05
2.29913e-05
1.82525e-05
1.82542e-05
1.82397e-05
1.82416e-05
1.82541e-05
1.82392e-05
1.82413e-05
2.29695e-05
2.29925e-05
1.82534e-05
1.82403e-05
1.82406e-05
2.2993e-05
2.30248e-05
2.29679e-05
1.82155e-05
1.82157e-05
1.81886e-05
1.81888e-05
2.30253e-05
2.29679e-05
1.82146e-05
1.82165e-05
1.81877e-05
1.81897e-05
1.82161e-05
1.81872e-05
1.81891e-05
2.30262e-05
2.29692e-05
1.82154e-05
1.81882e-05
1.81884e-05
2.29695e-05
2.30037e-05
2.29939e-05
1.81879e-05
1.81881e-05
1.81973e-05
1.81975e-05
2.30038e-05
2.2994e-05
1.8187e-05
1.8189e-05
1.81964e-05
1.81984e-05
1.81884e-05
1.81959e-05
1.81977e-05
2.3005e-05
2.29952e-05
1.81877e-05
1.81968e-05
1.8197e-05
2.29954e-05
2.30341e-05
2.30235e-05
1.82091e-05
1.82093e-05
1.82366e-05
1.82369e-05
2.30344e-05
2.30237e-05
1.82081e-05
1.82101e-05
1.82357e-05
1.82377e-05
1.82095e-05
1.82352e-05
1.82372e-05
2.30354e-05
2.30247e-05
1.82088e-05
1.82362e-05
1.82364e-05
2.30251e-05
2.30614e-05
2.30415e-05
1.82431e-05
1.82433e-05
1.82558e-05
1.82561e-05
2.30618e-05
2.30417e-05
1.82421e-05
1.82441e-05
1.82549e-05
1.82569e-05
1.82436e-05
1.82544e-05
1.82564e-05
2.30627e-05
2.30427e-05
1.82428e-05
1.82553e-05
1.82556e-05
2.30433e-05
2.30779e-05
2.30453e-05
1.82583e-05
1.82585e-05
1.8262e-05
1.82622e-05
2.30783e-05
2.30453e-05
1.82573e-05
1.82593e-05
1.8261e-05
1.8263e-05
1.82588e-05
1.82605e-05
1.82625e-05
2.30791e-05
2.30463e-05
1.82581e-05
1.82614e-05
1.82618e-05
2.30471e-05
2.30801e-05
2.30443e-05
1.82625e-05
1.82628e-05
1.82635e-05
1.82638e-05
2.30804e-05
2.30444e-05
1.82616e-05
1.82635e-05
1.82626e-05
1.82646e-05
1.8263e-05
1.82621e-05
1.82641e-05
2.30812e-05
2.30454e-05
1.82624e-05
1.8263e-05
1.82634e-05
2.3046e-05
2.30795e-05
2.30461e-05
1.82638e-05
1.8264e-05
1.82644e-05
1.82646e-05
2.30798e-05
2.3046e-05
1.82628e-05
1.82648e-05
1.82635e-05
1.82655e-05
1.82643e-05
1.82628e-05
1.8265e-05
2.30806e-05
2.30473e-05
1.82636e-05
1.82639e-05
1.82642e-05
2.30477e-05
2.30811e-05
2.3046e-05
1.82645e-05
1.82647e-05
1.82646e-05
1.82648e-05
2.30812e-05
2.30459e-05
1.82636e-05
1.82656e-05
1.82637e-05
1.82657e-05
1.8265e-05
1.8263e-05
1.8265e-05
2.30823e-05
2.30472e-05
1.82643e-05
1.82642e-05
1.82644e-05
2.30475e-05
2.30814e-05
2.30445e-05
1.82646e-05
1.82648e-05
1.82646e-05
1.82648e-05
2.30815e-05
2.30444e-05
1.82637e-05
1.82657e-05
1.82637e-05
1.82657e-05
1.8265e-05
1.8263e-05
1.8265e-05
2.30826e-05
2.30457e-05
1.82643e-05
1.82642e-05
1.82643e-05
2.30459e-05
2.30797e-05
2.30464e-05
1.82646e-05
1.82648e-05
1.82647e-05
1.82649e-05
2.30799e-05
2.30462e-05
1.82637e-05
1.82657e-05
1.82638e-05
1.82658e-05
1.8265e-05
1.82631e-05
1.82651e-05
2.3081e-05
2.30475e-05
1.82643e-05
1.82643e-05
1.82644e-05
2.30479e-05
2.30799e-05
2.30488e-05
1.82647e-05
1.82649e-05
1.82648e-05
1.82651e-05
2.308e-05
2.30489e-05
1.82637e-05
1.82657e-05
1.82639e-05
1.82658e-05
1.8265e-05
1.82633e-05
1.82651e-05
2.30811e-05
2.30497e-05
1.82643e-05
1.82643e-05
1.82644e-05
2.30498e-05
2.30839e-05
2.30461e-05
1.82648e-05
1.82651e-05
1.82649e-05
1.82651e-05
2.30839e-05
2.30463e-05
1.82639e-05
1.82658e-05
1.82639e-05
1.82659e-05
1.82651e-05
1.82634e-05
1.82651e-05
2.30848e-05
2.30472e-05
1.82644e-05
1.82643e-05
1.82645e-05
2.30471e-05
2.30821e-05
2.30461e-05
1.82648e-05
1.82651e-05
1.82648e-05
1.82652e-05
2.30822e-05
2.30461e-05
1.82639e-05
1.82658e-05
1.8264e-05
1.82659e-05
1.82651e-05
1.82634e-05
1.82652e-05
2.30829e-05
2.30477e-05
1.82644e-05
1.82644e-05
1.82645e-05
2.30476e-05
2.30821e-05
2.30464e-05
1.82648e-05
1.82652e-05
1.82648e-05
1.82652e-05
2.30822e-05
2.30465e-05
1.8264e-05
1.82659e-05
1.8264e-05
1.82659e-05
1.82652e-05
1.82634e-05
1.82652e-05
2.30837e-05
2.30471e-05
1.82645e-05
1.82644e-05
1.82646e-05
2.30474e-05
2.30825e-05
2.30466e-05
1.82648e-05
1.82651e-05
1.82649e-05
1.82653e-05
2.30824e-05
2.30476e-05
1.82639e-05
1.82659e-05
1.82641e-05
1.8266e-05
1.82652e-05
1.82635e-05
1.82654e-05
2.30835e-05
2.3047e-05
1.82645e-05
1.82644e-05
1.82647e-05
2.3048e-05
2.30855e-05
2.30381e-05
1.82648e-05
1.82653e-05
1.82647e-05
1.82651e-05
2.30862e-05
2.30384e-05
1.82641e-05
1.8266e-05
1.82639e-05
1.82658e-05
1.82653e-05
1.82633e-05
1.82652e-05
2.3086e-05
2.30394e-05
1.82647e-05
1.82642e-05
1.82645e-05
2.304e-05
2.30766e-05
2.30422e-05
1.82647e-05
1.82651e-05
1.82646e-05
1.8265e-05
2.30773e-05
2.30421e-05
1.8264e-05
1.82659e-05
1.82638e-05
1.82657e-05
1.82653e-05
1.82632e-05
1.82651e-05
2.30774e-05
2.30434e-05
1.82646e-05
1.82641e-05
1.82644e-05
2.3043e-05
2.30745e-05
2.30528e-05
1.82646e-05
1.82649e-05
1.82648e-05
1.8265e-05
2.30744e-05
2.30528e-05
1.82637e-05
1.82657e-05
1.82639e-05
1.82659e-05
1.8265e-05
1.82633e-05
1.82652e-05
2.30756e-05
2.3054e-05
1.82643e-05
1.82642e-05
1.82645e-05
2.3054e-05
2.30849e-05
1.82647e-05
1.8265e-05
2.30847e-05
1.82639e-05
1.82658e-05
1.82652e-05
2.30861e-05
1.82645e-05
1.50253e-05
1.50253e-05
1.50252e-05
1.50253e-05
5.35405e-05
7.00362e-05
5.29197e-05
7.00629e-05
6.96285e-05
6.96078e-05
5.3541e-05
7.00377e-05
5.29203e-05
7.00644e-05
1.49369e-05
1.49369e-05
1.49369e-05
1.4691e-05
1.4691e-05
1.4691e-05
1.4691e-05
2.93917e-05
4.52113e-05
1.49112e-05
1.61796e-05
2.88272e-05
4.56367e-05
1.48618e-05
6.96288e-05
6.96081e-05
2.93921e-05
1.49113e-05
4.5213e-05
1.61798e-05
2.88279e-05
1.48619e-05
4.5637e-05
5.90103e-05
5.90187e-05
1.82974e-05
5.92934e-05
5.93019e-05
5.48616e-05
7.00934e-05
5.43356e-05
7.01175e-05
6.95554e-05
6.95364e-05
5.48621e-05
7.0095e-05
5.43361e-05
7.01191e-05
1.46153e-05
1.46153e-05
1.46154e-05
1.44031e-05
1.44031e-05
1.44032e-05
1.44032e-05
3.10943e-05
4.64293e-05
1.47404e-05
1.63418e-05
3.05316e-05
4.68274e-05
1.47086e-05
6.95557e-05
6.95367e-05
3.10948e-05
1.47405e-05
4.6431e-05
1.63421e-05
3.05323e-05
1.47087e-05
4.68278e-05
5.96695e-05
5.96779e-05
1.89246e-05
5.99262e-05
5.99346e-05
5.5941e-05
7.0149e-05
5.55152e-05
7.01614e-05
6.9489e-05
6.94696e-05
5.59416e-05
7.01506e-05
5.55156e-05
7.01631e-05
1.43372e-05
1.43373e-05
1.43374e-05
1.41589e-05
1.41589e-05
1.4159e-05
1.4159e-05
3.27578e-05
4.7544e-05
1.46368e-05
1.65888e-05
3.22166e-05
4.79113e-05
1.46198e-05
6.94893e-05
6.94698e-05
3.27583e-05
1.4637e-05
4.75457e-05
1.65892e-05
3.22173e-05
1.46201e-05
4.79118e-05
6.02507e-05
6.02591e-05
1.96485e-05
6.0471e-05
6.04794e-05
5.6862e-05
7.01707e-05
5.65012e-05
7.01881e-05
6.94273e-05
6.94179e-05
5.68622e-05
7.01724e-05
5.65014e-05
7.01897e-05
1.4107e-05
1.41071e-05
1.41071e-05
1.39662e-05
1.39663e-05
1.39664e-05
1.39665e-05
3.43561e-05
4.85509e-05
1.46033e-05
1.69231e-05
3.38339e-05
4.88855e-05
1.46062e-05
6.94275e-05
6.94181e-05
3.43553e-05
1.46036e-05
4.85524e-05
1.69236e-05
3.38354e-05
1.46065e-05
4.88862e-05
6.0763e-05
6.0771e-05
2.04533e-05
6.09732e-05
6.09819e-05
5.7469e-05
7.0211e-05
5.7254e-05
7.02133e-05
6.93818e-05
6.93644e-05
5.74695e-05
7.02126e-05
5.72542e-05
7.0215e-05
1.39208e-05
1.3921e-05
1.3921e-05
1.37916e-05
1.37916e-05
1.37918e-05
1.37919e-05
3.5795e-05
4.94487e-05
1.46357e-05
1.73176e-05
3.5346e-05
4.97298e-05
1.46494e-05
6.93819e-05
6.93646e-05
3.57946e-05
1.4636e-05
4.94502e-05
1.73182e-05
3.53474e-05
1.46497e-05
4.97306e-05
6.12392e-05
6.12473e-05
2.13003e-05
6.13777e-05
6.13856e-05
5.77957e-05
7.01923e-05
5.76865e-05
7.01754e-05
6.93202e-05
6.93031e-05
5.77966e-05
7.01942e-05
5.76867e-05
7.01773e-05
1.37558e-05
1.37559e-05
1.3756e-05
1.36766e-05
1.36767e-05
1.36769e-05
1.3677e-05
3.69096e-05
5.01688e-05
1.47046e-05
1.77411e-05
3.65879e-05
5.03696e-05
1.47338e-05
6.93204e-05
6.93032e-05
3.69096e-05
1.4705e-05
5.01703e-05
1.77417e-05
3.65889e-05
1.47343e-05
5.03708e-05
6.15494e-05
6.15577e-05
2.21154e-05
6.16459e-05
6.16538e-05
5.7907e-05
7.01272e-05
5.78852e-05
7.00988e-05
6.92565e-05
6.92383e-05
5.79086e-05
7.01292e-05
5.78866e-05
7.01008e-05
1.36527e-05
1.36529e-05
1.3653e-05
1.35426e-05
1.35426e-05
1.35429e-05
1.3543e-05
3.7568e-05
5.06386e-05
1.48284e-05
1.81377e-05
3.74088e-05
5.07047e-05
1.48465e-05
6.92565e-05
6.92384e-05
3.75685e-05
1.48289e-05
5.06403e-05
1.81387e-05
3.74096e-05
1.48471e-05
5.07058e-05
6.17268e-05
6.17348e-05
2.27396e-05
6.1739e-05
6.17475e-05
5.78919e-05
7.00439e-05
5.7905e-05
7.00222e-05
6.91965e-05
6.91852e-05
5.78942e-05
7.00459e-05
5.79063e-05
7.00242e-05
1.34885e-05
1.34888e-05
1.34889e-05
1.32985e-05
1.32984e-05
1.32988e-05
1.32989e-05
3.77724e-05
5.07282e-05
1.48441e-05
1.82566e-05
3.77533e-05
5.07155e-05
1.48101e-05
6.91965e-05
6.91853e-05
3.77717e-05
1.48447e-05
5.07296e-05
1.82577e-05
3.7753e-05
1.48107e-05
5.07167e-05
6.17189e-05
6.17271e-05
2.29742e-05
6.16945e-05
6.17025e-05
5.78109e-05
6.99891e-05
5.78353e-05
6.99795e-05
6.91598e-05
6.91569e-05
5.7813e-05
6.99909e-05
5.78374e-05
6.99813e-05
1.32394e-05
1.32398e-05
1.32399e-05
1.31129e-05
1.31129e-05
1.31133e-05
1.31133e-05
3.77832e-05
5.06798e-05
1.46857e-05
1.81984e-05
3.77921e-05
5.06621e-05
1.46532e-05
6.91598e-05
6.9157e-05
3.77834e-05
1.46862e-05
5.06817e-05
1.81995e-05
3.77921e-05
1.46537e-05
5.06634e-05
6.1649e-05
6.16571e-05
2.29764e-05
6.1632e-05
6.16405e-05
5.77613e-05
6.99655e-05
5.77699e-05
6.99629e-05
6.91439e-05
6.91467e-05
5.77641e-05
6.99674e-05
5.77724e-05
6.99647e-05
1.3088e-05
1.30884e-05
1.30884e-05
1.30574e-05
1.30575e-05
1.30578e-05
1.30578e-05
3.7768e-05
5.06403e-05
1.46051e-05
1.81868e-05
3.77762e-05
5.06331e-05
1.4602e-05
6.91439e-05
6.91467e-05
3.77677e-05
1.46056e-05
5.06421e-05
1.81878e-05
3.77763e-05
1.46025e-05
5.06345e-05
6.16094e-05
6.16177e-05
2.29794e-05
6.16059e-05
6.1614e-05
5.77437e-05
6.9958e-05
5.77448e-05
6.99585e-05
6.91398e-05
6.91448e-05
5.77458e-05
6.99598e-05
5.7747e-05
6.99603e-05
1.30566e-05
1.30569e-05
1.3057e-05
1.30603e-05
1.30603e-05
1.30607e-05
1.30607e-05
3.77707e-05
5.06281e-05
1.46042e-05
1.82182e-05
3.77768e-05
5.0629e-05
1.46108e-05
6.91398e-05
6.91447e-05
3.77707e-05
1.46046e-05
5.06294e-05
1.82191e-05
3.77768e-05
1.46113e-05
5.06304e-05
6.16001e-05
6.16083e-05
2.30119e-05
6.16011e-05
6.16093e-05
5.77396e-05
6.99571e-05
5.77372e-05
6.99584e-05
6.91397e-05
6.91451e-05
5.77416e-05
6.99589e-05
5.77389e-05
6.99602e-05
1.30638e-05
1.30642e-05
1.30642e-05
1.30717e-05
1.30717e-05
1.3072e-05
1.30721e-05
3.77735e-05
5.06313e-05
1.46306e-05
1.82468e-05
3.77768e-05
5.06321e-05
1.4635e-05
6.91397e-05
6.9145e-05
3.77736e-05
1.46312e-05
5.0633e-05
1.82478e-05
3.77771e-05
1.46355e-05
5.06335e-05
6.16003e-05
6.16085e-05
2.30355e-05
6.16024e-05
6.16105e-05
5.7739e-05
6.99575e-05
5.77357e-05
6.99588e-05
6.91402e-05
6.91455e-05
5.7741e-05
6.99593e-05
5.77376e-05
6.99606e-05
1.30734e-05
1.30738e-05
1.30738e-05
1.30763e-05
1.30763e-05
1.30767e-05
1.30768e-05
3.77749e-05
5.06334e-05
1.46435e-05
1.82584e-05
3.77778e-05
5.0634e-05
1.46451e-05
6.91401e-05
6.91454e-05
3.77748e-05
1.46441e-05
5.0635e-05
1.82594e-05
3.77779e-05
1.46456e-05
5.06354e-05
6.16018e-05
6.161e-05
2.30468e-05
6.16035e-05
6.16117e-05
5.7739e-05
6.99578e-05
5.77357e-05
6.9959e-05
6.91404e-05
6.91456e-05
5.7741e-05
6.99595e-05
5.77375e-05
6.99608e-05
1.30768e-05
1.30772e-05
1.30772e-05
1.30777e-05
1.30777e-05
1.3078e-05
1.30781e-05
3.77755e-05
5.06343e-05
1.46478e-05
1.82615e-05
3.77796e-05
5.06344e-05
1.46482e-05
6.91404e-05
6.91456e-05
3.77755e-05
1.46484e-05
5.06359e-05
1.82624e-05
3.77797e-05
1.46488e-05
5.06358e-05
6.16022e-05
6.16105e-05
2.30462e-05
6.16037e-05
6.16119e-05
5.77391e-05
6.99579e-05
5.77358e-05
6.99591e-05
6.91405e-05
6.91458e-05
5.77408e-05
6.99596e-05
5.77375e-05
6.99609e-05
1.30778e-05
1.30782e-05
1.30783e-05
1.30782e-05
1.30782e-05
1.30786e-05
1.30786e-05
3.77755e-05
5.06342e-05
1.46491e-05
1.82625e-05
3.77804e-05
5.06344e-05
1.46493e-05
6.91405e-05
6.91457e-05
3.77753e-05
1.46497e-05
5.06356e-05
1.82635e-05
3.77804e-05
1.46498e-05
5.06359e-05
6.16022e-05
6.16104e-05
2.30469e-05
6.16037e-05
6.16118e-05
5.7739e-05
6.99579e-05
5.77357e-05
6.99592e-05
6.91406e-05
6.91459e-05
5.77407e-05
6.99597e-05
5.77373e-05
6.99609e-05
1.30783e-05
1.30787e-05
1.30787e-05
1.30785e-05
1.30784e-05
1.30789e-05
1.30789e-05
3.77757e-05
5.06341e-05
1.46497e-05
1.8263e-05
3.77807e-05
5.06344e-05
1.46498e-05
6.91406e-05
6.91457e-05
3.77757e-05
1.46503e-05
5.06353e-05
1.82642e-05
3.77807e-05
1.46504e-05
5.06358e-05
6.16021e-05
6.16103e-05
2.30471e-05
6.16035e-05
6.16117e-05
5.77388e-05
6.99579e-05
5.77355e-05
6.99592e-05
6.91407e-05
6.91459e-05
5.77405e-05
6.99597e-05
5.77372e-05
6.9961e-05
1.30785e-05
1.30789e-05
1.30789e-05
1.30786e-05
1.30786e-05
1.3079e-05
1.3079e-05
3.77758e-05
5.0634e-05
1.46501e-05
1.8263e-05
3.77809e-05
5.06344e-05
1.46502e-05
6.91406e-05
6.91458e-05
3.7776e-05
1.46507e-05
5.06354e-05
1.82642e-05
3.77811e-05
1.46508e-05
5.06358e-05
6.1602e-05
6.16103e-05
2.3048e-05
6.16034e-05
6.16117e-05
5.77387e-05
6.9958e-05
5.77354e-05
6.99592e-05
6.91406e-05
6.91459e-05
5.77403e-05
6.99597e-05
5.7737e-05
6.99609e-05
1.30786e-05
1.3079e-05
1.3079e-05
1.30787e-05
1.30787e-05
1.30791e-05
1.30791e-05
3.77758e-05
5.06339e-05
1.46503e-05
1.82631e-05
3.77812e-05
5.06343e-05
1.46503e-05
6.91406e-05
6.91458e-05
3.77757e-05
1.4651e-05
5.06353e-05
1.82643e-05
3.77811e-05
1.4651e-05
5.06357e-05
6.1602e-05
6.16102e-05
2.30486e-05
6.16034e-05
6.16116e-05
5.77385e-05
6.99579e-05
5.77352e-05
6.99592e-05
6.91406e-05
6.9146e-05
5.77401e-05
6.99597e-05
5.77368e-05
6.99609e-05
1.30787e-05
1.30791e-05
1.30791e-05
1.30788e-05
1.30788e-05
1.30792e-05
1.30792e-05
3.77754e-05
5.06337e-05
1.46504e-05
1.82632e-05
3.77812e-05
5.0634e-05
1.46504e-05
6.91406e-05
6.91458e-05
3.77752e-05
1.4651e-05
5.06351e-05
1.82643e-05
3.77808e-05
1.4651e-05
5.06354e-05
6.16019e-05
6.16101e-05
2.30447e-05
6.16033e-05
6.16115e-05
5.77383e-05
6.99578e-05
5.77348e-05
6.99588e-05
6.91405e-05
6.91462e-05
5.77399e-05
6.99596e-05
5.77365e-05
6.99609e-05
1.30789e-05
1.30793e-05
1.30792e-05
1.30789e-05
1.30789e-05
1.30793e-05
1.30793e-05
3.77749e-05
5.06336e-05
1.46505e-05
1.82633e-05
3.77811e-05
5.06338e-05
1.46505e-05
6.91406e-05
6.91458e-05
3.77746e-05
1.46511e-05
5.06351e-05
1.82643e-05
3.77805e-05
1.46511e-05
5.06352e-05
6.16018e-05
6.161e-05
2.30466e-05
6.16031e-05
6.16114e-05
5.77385e-05
6.99576e-05
5.77349e-05
6.99588e-05
6.91406e-05
6.9146e-05
5.77395e-05
6.99596e-05
5.77361e-05
6.99608e-05
1.30789e-05
1.30793e-05
1.30793e-05
1.3079e-05
1.3079e-05
1.30794e-05
1.30794e-05
3.77742e-05
5.06333e-05
1.46506e-05
1.82633e-05
3.77811e-05
5.06335e-05
1.46506e-05
6.91406e-05
6.91458e-05
3.77739e-05
1.46511e-05
5.06349e-05
1.82643e-05
3.778e-05
1.46511e-05
5.06351e-05
6.16016e-05
6.16098e-05
2.30471e-05
6.1603e-05
6.16112e-05
5.77387e-05
6.99576e-05
5.77352e-05
6.99588e-05
6.91404e-05
6.91458e-05
5.77391e-05
6.99595e-05
5.77358e-05
6.99608e-05
1.3079e-05
1.30794e-05
1.30794e-05
1.30791e-05
1.30791e-05
1.30795e-05
1.30795e-05
3.77739e-05
5.06333e-05
1.46506e-05
1.82634e-05
3.77812e-05
5.06333e-05
1.46506e-05
6.91406e-05
6.91458e-05
3.77735e-05
1.46512e-05
5.06348e-05
1.82643e-05
3.77798e-05
1.46512e-05
5.06351e-05
6.16014e-05
6.16096e-05
2.30474e-05
6.16028e-05
6.1611e-05
5.77389e-05
6.99576e-05
5.77354e-05
6.99588e-05
6.91401e-05
6.91454e-05
5.77389e-05
6.99595e-05
5.77355e-05
6.99607e-05
1.30791e-05
1.30795e-05
1.30795e-05
1.30792e-05
1.30792e-05
1.30796e-05
1.30796e-05
3.77743e-05
5.0633e-05
1.46507e-05
1.82634e-05
3.77807e-05
5.06332e-05
1.46507e-05
6.91406e-05
6.91457e-05
3.77737e-05
1.46512e-05
5.06346e-05
1.82643e-05
3.77792e-05
1.46512e-05
5.0635e-05
6.16012e-05
6.16095e-05
2.3046e-05
6.16027e-05
6.16109e-05
5.7739e-05
6.99576e-05
5.77355e-05
6.99588e-05
6.91397e-05
6.91451e-05
5.77386e-05
6.99595e-05
5.77352e-05
6.99607e-05
1.30792e-05
1.30796e-05
1.30796e-05
1.30792e-05
1.30792e-05
1.30796e-05
1.30796e-05
3.77741e-05
5.06328e-05
1.46508e-05
1.82634e-05
3.77797e-05
5.06328e-05
1.46508e-05
6.91405e-05
6.91457e-05
3.77731e-05
1.46513e-05
5.06343e-05
1.82643e-05
3.77783e-05
1.46513e-05
5.06346e-05
6.16011e-05
6.16094e-05
2.30497e-05
6.16025e-05
6.16107e-05
5.77392e-05
6.99576e-05
5.77356e-05
6.99589e-05
6.91393e-05
6.91447e-05
5.77386e-05
6.99595e-05
5.77351e-05
6.99607e-05
1.30792e-05
1.30796e-05
1.30796e-05
1.30792e-05
1.30792e-05
1.30795e-05
1.30795e-05
3.77731e-05
5.06327e-05
1.46508e-05
1.82635e-05
3.77792e-05
5.06323e-05
1.46508e-05
6.91405e-05
6.91457e-05
3.77718e-05
1.46513e-05
5.06342e-05
1.82644e-05
3.7778e-05
1.46512e-05
5.06342e-05
6.16009e-05
6.16091e-05
2.30541e-05
6.16023e-05
6.16105e-05
5.77396e-05
6.99577e-05
5.7736e-05
6.9959e-05
6.9139e-05
6.91444e-05
5.77389e-05
6.99595e-05
5.77353e-05
6.99608e-05
1.30791e-05
1.30794e-05
1.30795e-05
1.3079e-05
1.30789e-05
1.30793e-05
1.30794e-05
3.77727e-05
5.06325e-05
1.46507e-05
1.82632e-05
3.77792e-05
5.06324e-05
1.46506e-05
6.91405e-05
6.91457e-05
3.77713e-05
1.46511e-05
5.06342e-05
1.82641e-05
3.77782e-05
1.4651e-05
5.06341e-05
6.16008e-05
6.16091e-05
2.30445e-05
6.16023e-05
6.16106e-05
6.99578e-05
5.77366e-05
6.91388e-05
6.99596e-05
5.77359e-05
1.30789e-05
1.30793e-05
1.30794e-05
5.06322e-05
1.46505e-05
3.77787e-05
6.91405e-05
1.4651e-05
5.06339e-05
3.77783e-05
6.16011e-05
6.16094e-05
6.96432e-05
6.9645e-05
5.89543e-05
5.89633e-05
7.00317e-05
5.27909e-05
7.00286e-05
5.27897e-05
4.50047e-05
1.4965e-05
2.85393e-05
4.50071e-05
1.49649e-05
2.8539e-05
6.96447e-05
5.89613e-05
5.89534e-05
6.96431e-05
7.00331e-05
5.27917e-05
4.50072e-05
1.49651e-05
2.854e-05
7.00291e-05
5.27907e-05
1.49648e-05
4.50065e-05
2.85398e-05
4.50028e-05
1.49651e-05
2.85398e-05
7.00322e-05
5.27918e-05
1.49649e-05
4.50019e-05
2.85394e-05
7.00288e-05
5.27905e-05
6.9645e-05
5.89622e-05
5.89562e-05
6.96439e-05
1.49652e-05
4.50031e-05
2.85401e-05
1.49652e-05
4.50066e-05
2.85397e-05
7.00327e-05
5.2792e-05
7.00297e-05
5.27908e-05
5.89529e-05
5.89614e-05
6.96434e-05
6.96451e-05
6.96271e-05
6.96063e-05
6.96289e-05
6.96081e-05
5.90115e-05
5.90206e-05
1.82967e-05
5.9295e-05
5.93038e-05
6.95695e-05
6.95903e-05
6.95714e-05
6.95921e-05
1.84164e-05
5.96194e-05
5.96279e-05
5.93487e-05
5.93576e-05
5.35392e-05
7.00331e-05
5.29185e-05
7.00599e-05
2.93912e-05
4.52114e-05
1.4911e-05
1.61796e-05
2.88272e-05
4.56384e-05
1.48616e-05
2.93908e-05
4.52151e-05
1.4911e-05
1.618e-05
2.88267e-05
4.56406e-05
1.48615e-05
5.36575e-05
7.00899e-05
7.00668e-05
5.42271e-05
5.36562e-05
7.00869e-05
7.00638e-05
5.42258e-05
2.96798e-05
1.62114e-05
4.62463e-05
1.47763e-05
4.58327e-05
1.48165e-05
3.02431e-05
2.96792e-05
1.62118e-05
4.62484e-05
1.47762e-05
4.58361e-05
1.48166e-05
3.02427e-05
5.90185e-05
5.90106e-05
1.82969e-05
5.93015e-05
5.9294e-05
6.9627e-05
6.96062e-05
6.95711e-05
6.95918e-05
1.84168e-05
5.96257e-05
5.96181e-05
5.93552e-05
5.93477e-05
6.95694e-05
6.95902e-05
2.93919e-05
4.52151e-05
1.49112e-05
1.61798e-05
2.88277e-05
4.56409e-05
1.48617e-05
5.35399e-05
7.00336e-05
5.29192e-05
7.00604e-05
2.93916e-05
1.4911e-05
4.52154e-05
1.618e-05
2.88272e-05
1.48615e-05
4.56402e-05
5.36579e-05
7.00915e-05
7.00683e-05
5.42277e-05
2.96803e-05
1.62116e-05
4.62489e-05
1.47764e-05
4.58364e-05
1.48168e-05
3.02438e-05
5.36568e-05
7.00875e-05
7.00643e-05
5.42267e-05
2.96797e-05
1.62119e-05
1.47762e-05
4.62481e-05
1.48166e-05
4.58366e-05
3.02436e-05
5.35412e-05
7.00368e-05
5.29203e-05
7.00635e-05
2.93913e-05
1.4911e-05
4.52127e-05
1.61798e-05
2.88267e-05
1.48616e-05
4.56357e-05
5.35399e-05
7.00333e-05
5.2919e-05
7.00601e-05
2.96799e-05
1.62114e-05
4.62447e-05
1.47765e-05
4.58327e-05
1.48168e-05
3.02436e-05
5.3658e-05
7.00905e-05
7.00674e-05
5.42279e-05
2.96793e-05
1.62116e-05
1.47763e-05
4.62436e-05
1.48166e-05
4.58338e-05
3.02432e-05
5.36567e-05
7.00872e-05
7.0064e-05
5.42266e-05
5.90195e-05
5.90136e-05
1.8297e-05
5.93027e-05
5.92968e-05
6.96277e-05
6.9607e-05
6.95714e-05
6.95921e-05
1.84168e-05
5.96268e-05
5.9621e-05
5.93565e-05
5.93507e-05
6.95703e-05
6.9591e-05
2.93916e-05
1.49113e-05
4.52151e-05
1.61803e-05
2.88274e-05
1.48619e-05
4.56403e-05
5.35413e-05
7.00372e-05
5.29206e-05
7.0064e-05
5.35401e-05
7.00342e-05
5.29194e-05
7.0061e-05
2.96805e-05
1.62116e-05
1.47766e-05
4.62451e-05
1.48169e-05
4.58343e-05
3.02441e-05
2.968e-05
1.62121e-05
1.47766e-05
4.62482e-05
1.48169e-05
4.58363e-05
3.02435e-05
5.36582e-05
7.0091e-05
7.00679e-05
5.4228e-05
5.36571e-05
7.00881e-05
7.00649e-05
5.42268e-05
6.96272e-05
6.96065e-05
6.9629e-05
6.96083e-05
1.84171e-05
5.96176e-05
5.96261e-05
5.93473e-05
5.93557e-05
6.95697e-05
6.95905e-05
6.95715e-05
6.95923e-05
6.95538e-05
6.95348e-05
6.95558e-05
6.95368e-05
5.96711e-05
5.96798e-05
1.89236e-05
5.99283e-05
5.99365e-05
6.95022e-05
6.95202e-05
6.95042e-05
6.95221e-05
1.9065e-05
6.0209e-05
6.0217e-05
5.99756e-05
5.99839e-05
5.48603e-05
7.00904e-05
5.43343e-05
7.01146e-05
3.10938e-05
4.64294e-05
1.47401e-05
1.6342e-05
3.05314e-05
4.68289e-05
1.47084e-05
3.10933e-05
4.64327e-05
1.47401e-05
1.63425e-05
3.05309e-05
4.6831e-05
1.47084e-05
5.49594e-05
7.01464e-05
7.01217e-05
5.54283e-05
5.49581e-05
7.01435e-05
7.01188e-05
5.5427e-05
3.13808e-05
1.63963e-05
4.73832e-05
1.46561e-05
4.70004e-05
1.46803e-05
3.19351e-05
3.13802e-05
1.63967e-05
4.73851e-05
1.4656e-05
4.70035e-05
1.46804e-05
3.19346e-05
5.96775e-05
5.96698e-05
1.89238e-05
5.99344e-05
5.99269e-05
6.95538e-05
6.95347e-05
6.95039e-05
6.95218e-05
1.90655e-05
6.02147e-05
6.02075e-05
5.99817e-05
5.99742e-05
6.95021e-05
6.95201e-05
3.10945e-05
4.64331e-05
1.47403e-05
1.63421e-05
3.05321e-05
4.68315e-05
1.47085e-05
5.48609e-05
7.0091e-05
5.43349e-05
7.01152e-05
3.10942e-05
1.47402e-05
4.64331e-05
1.63426e-05
3.05315e-05
1.47084e-05
4.68306e-05
5.49597e-05
7.0148e-05
7.01233e-05
5.54287e-05
3.13815e-05
1.63963e-05
4.73857e-05
1.46562e-05
4.7004e-05
1.46805e-05
3.19359e-05
5.49584e-05
7.0144e-05
7.01193e-05
5.54275e-05
3.13808e-05
1.63968e-05
1.4656e-05
4.73848e-05
1.46804e-05
4.70039e-05
3.19356e-05
5.48623e-05
7.0094e-05
5.43361e-05
7.01177e-05
3.10939e-05
1.47402e-05
4.64305e-05
1.63423e-05
3.05311e-05
1.47084e-05
4.68264e-05
5.4861e-05
7.00907e-05
5.43347e-05
7.01148e-05
3.1381e-05
1.63961e-05
4.73816e-05
1.46563e-05
4.70003e-05
1.46806e-05
3.19357e-05
5.49598e-05
7.01468e-05
7.01219e-05
5.54289e-05
3.13805e-05
1.63966e-05
1.46561e-05
4.73807e-05
1.46804e-05
4.70013e-05
3.19353e-05
5.49585e-05
7.01437e-05
7.0119e-05
5.54277e-05
5.96786e-05
5.96729e-05
1.89241e-05
5.99353e-05
5.99297e-05
6.95545e-05
6.95355e-05
6.95041e-05
6.95221e-05
1.90655e-05
6.02159e-05
6.02102e-05
5.99827e-05
5.99771e-05
6.95029e-05
6.95209e-05
3.10942e-05
1.47405e-05
4.64328e-05
1.63426e-05
3.05317e-05
1.47087e-05
4.68308e-05
5.48623e-05
7.00944e-05
5.43363e-05
7.01182e-05
5.48612e-05
7.00916e-05
5.43351e-05
7.01158e-05
3.13817e-05
1.63963e-05
1.46564e-05
4.73822e-05
1.46808e-05
4.7002e-05
3.19361e-05
3.13811e-05
1.63969e-05
1.46564e-05
4.73851e-05
1.46807e-05
4.70036e-05
3.19355e-05
5.496e-05
7.01472e-05
7.01223e-05
5.5429e-05
5.49588e-05
7.01447e-05
7.012e-05
5.54278e-05
6.9554e-05
6.9535e-05
6.95559e-05
6.95369e-05
1.9066e-05
6.02066e-05
6.02152e-05
5.99737e-05
5.9982e-05
6.95024e-05
6.95204e-05
6.95043e-05
6.95223e-05
6.94874e-05
6.94679e-05
6.94893e-05
6.94698e-05
6.02527e-05
6.0261e-05
1.96471e-05
6.04733e-05
6.04813e-05
6.94371e-05
6.9453e-05
6.9439e-05
6.94548e-05
1.98071e-05
6.07261e-05
6.07332e-05
6.05152e-05
6.05232e-05
5.59397e-05
7.01462e-05
5.55139e-05
7.01585e-05
3.27571e-05
4.75442e-05
1.46366e-05
1.65892e-05
3.22164e-05
4.79127e-05
1.46196e-05
3.27566e-05
4.7547e-05
1.46366e-05
1.65897e-05
3.22158e-05
4.79145e-05
1.46196e-05
5.60223e-05
7.01693e-05
7.01615e-05
5.64254e-05
5.60209e-05
7.01665e-05
7.01587e-05
5.6424e-05
3.30321e-05
1.66643e-05
4.84128e-05
1.46027e-05
4.80624e-05
1.46095e-05
3.35632e-05
3.30314e-05
1.66648e-05
4.84144e-05
1.46026e-05
4.80652e-05
1.46095e-05
3.35626e-05
6.02585e-05
6.02512e-05
1.96474e-05
6.0479e-05
6.04716e-05
6.94873e-05
6.94678e-05
6.94388e-05
6.94546e-05
1.98076e-05
6.07313e-05
6.07242e-05
6.0521e-05
6.05135e-05
6.9437e-05
6.94528e-05
3.2758e-05
4.75478e-05
1.46368e-05
1.65891e-05
3.22171e-05
4.79153e-05
1.46198e-05
5.59403e-05
7.01467e-05
5.55144e-05
7.01591e-05
3.27576e-05
1.46367e-05
4.75476e-05
1.65899e-05
3.22164e-05
1.46197e-05
4.79142e-05
5.60227e-05
7.0171e-05
7.01632e-05
5.64257e-05
3.30329e-05
1.66641e-05
4.84152e-05
1.46029e-05
4.80659e-05
1.46097e-05
3.35641e-05
5.60214e-05
7.01671e-05
7.01593e-05
5.64244e-05
3.30322e-05
1.66649e-05
1.46027e-05
4.84142e-05
1.46096e-05
4.80656e-05
3.35636e-05
5.59419e-05
7.01495e-05
5.55157e-05
7.0162e-05
3.27574e-05
1.46367e-05
4.75449e-05
1.65895e-05
3.22161e-05
1.46197e-05
4.79103e-05
5.59405e-05
7.01464e-05
5.55144e-05
7.01588e-05
3.30325e-05
1.66638e-05
4.84116e-05
1.46029e-05
4.80624e-05
1.46098e-05
3.35639e-05
5.60229e-05
7.01696e-05
7.01621e-05
5.6426e-05
3.30319e-05
1.66646e-05
1.46028e-05
4.84106e-05
1.46096e-05
4.8063e-05
3.35636e-05
5.60215e-05
7.01668e-05
7.0159e-05
5.64247e-05
6.02598e-05
6.02542e-05
1.96478e-05
6.04799e-05
6.04744e-05
6.94881e-05
6.94686e-05
6.9439e-05
6.94548e-05
1.98078e-05
6.0732e-05
6.07266e-05
6.05218e-05
6.05164e-05
6.94378e-05
6.94535e-05
3.27576e-05
1.4637e-05
4.75474e-05
1.65898e-05
3.22167e-05
1.462e-05
4.79146e-05
5.59419e-05
7.01499e-05
5.55158e-05
7.01624e-05
5.59407e-05
7.01474e-05
5.55147e-05
7.01598e-05
3.30332e-05
1.66642e-05
1.46032e-05
4.84121e-05
1.461e-05
4.8064e-05
3.35644e-05
3.30325e-05
1.66648e-05
1.46031e-05
4.84145e-05
1.461e-05
4.80654e-05
3.35636e-05
5.60231e-05
7.01701e-05
7.01625e-05
5.6426e-05
5.60218e-05
7.01678e-05
7.016e-05
5.64248e-05
6.94875e-05
6.94681e-05
6.94895e-05
6.947e-05
1.98084e-05
6.0723e-05
6.0731e-05
6.05129e-05
6.05212e-05
6.94373e-05
6.9453e-05
6.94392e-05
6.9455e-05
6.94256e-05
6.94161e-05
6.94275e-05
6.94181e-05
6.07659e-05
6.07732e-05
2.04517e-05
6.09755e-05
6.09837e-05
6.93936e-05
6.94058e-05
6.93955e-05
6.94077e-05
2.06263e-05
6.12121e-05
6.1219e-05
6.10189e-05
6.10275e-05
5.68605e-05
7.01678e-05
5.64998e-05
7.01853e-05
3.43537e-05
4.85508e-05
1.4603e-05
1.69237e-05
3.38344e-05
4.88864e-05
1.4606e-05
3.43534e-05
4.85531e-05
1.46031e-05
1.69242e-05
3.38337e-05
4.88878e-05
1.46059e-05
5.69237e-05
7.02107e-05
7.01914e-05
5.72071e-05
5.69223e-05
7.0208e-05
7.01886e-05
5.72056e-05
3.46155e-05
1.70197e-05
4.9333e-05
1.46235e-05
4.9017e-05
1.46133e-05
3.51046e-05
3.46143e-05
1.70202e-05
4.93343e-05
1.46234e-05
4.90191e-05
1.46134e-05
3.51043e-05
6.07711e-05
6.0764e-05