/*--------------------------------*- C++ -*----------------------------------*\
| =========                 |                                                 |
| \\      /  F ield         | OpenFOAM: The Open Source CFD Toolbox           |
|  \\    /   O peration     | Version:  v2006                                 |
|   \\  /    A nd           | Website:  www.openfoam.com                      |
|    \\/     M anipulation  |                                                 |
\*---------------------------------------------------------------------------*/
FoamFile
{
    version     2.0;
    format      ascii;
    class       volVectorField;
    location    "125";
    object      U;
}
// * * * * * * * * * * * * * * * * * * * * * * * * * * * * * * * * * * * * * //

dimensions      [0 1 -1 0 0 0 0];


internalField   nonuniform List<vector> 
43248
(
(6.0713e-05 6.07313e-05 0.108929)
(-9.71708e-05 5.96822e-05 0.107975)
(5.96899e-05 -9.71405e-05 0.107975)
(-0.000157955 -0.000158033 0.106622)
(5.93649e-05 5.93762e-05 0.109226)
(-9.49173e-05 5.87705e-05 0.108152)
(5.87499e-05 -9.48842e-05 0.108152)
(-0.000153251 -0.000153249 0.106646)
(5.72665e-05 5.727e-05 0.109513)
(-9.1672e-05 5.72534e-05 0.10831)
(5.72341e-05 -9.16375e-05 0.10831)
(-0.000147705 -0.000147709 0.106644)
(5.43111e-05 5.43141e-05 0.109787)
(-8.69051e-05 5.46197e-05 0.108446)
(5.46103e-05 -8.68773e-05 0.108446)
(-0.000140486 -0.000140493 0.106619)
(4.88847e-05 4.88917e-05 0.110039)
(-7.87975e-05 5.04358e-05 0.108555)
(5.04343e-05 -7.8768e-05 0.108555)
(-0.000130348 -0.000130352 0.10657)
(4.12433e-05 4.12558e-05 0.110259)
(-6.63496e-05 4.27546e-05 0.108634)
(4.27469e-05 -6.62907e-05 0.108634)
(-0.000116651 -0.000116664 0.106504)
(2.82938e-05 2.831e-05 0.110425)
(-4.57889e-05 3.05465e-05 0.108674)
(3.05481e-05 -4.57976e-05 0.108674)
(-9.80627e-05 -9.80946e-05 0.106431)
(1.46631e-05 1.468e-05 0.110525)
(-2.58089e-05 1.78118e-05 0.108691)
(1.78211e-05 -2.58068e-05 0.10869)
(-8.3398e-05 -8.34395e-05 0.10638)
(8.0182e-06 8.02803e-06 0.110578)
(-1.51411e-05 1.12335e-05 0.108697)
(1.12282e-05 -1.51272e-05 0.108697)
(-7.55173e-05 -7.55604e-05 0.106354)
(3.8912e-06 3.89868e-06 0.110606)
(-8.51062e-06 7.26398e-06 0.108694)
(7.26356e-06 -8.49512e-06 0.108694)
(-7.07067e-05 -7.07264e-05 0.106335)
(3.3433e-07 3.49357e-07 0.110616)
(-3.91318e-06 4.46892e-06 0.108688)
(4.46732e-06 -3.90372e-06 0.108688)
(-6.78767e-05 -6.7888e-05 0.106322)
(-1.58921e-06 -1.5738e-06 0.110619)
(-1.86271e-06 3.2501e-06 0.108684)
(3.24458e-06 -1.84831e-06 0.108684)
(-6.70692e-05 -6.70881e-05 0.106316)
(-2.23498e-06 -2.22523e-06 0.110619)
(-1.47562e-06 2.94337e-06 0.108682)
(2.93999e-06 -1.45397e-06 0.108682)
(-6.69726e-05 -6.70024e-05 0.106315)
(-2.39074e-06 -2.38307e-06 0.110619)
(-1.42957e-06 2.90045e-06 0.108682)
(2.90516e-06 -1.41425e-06 0.108682)
(-6.7008e-05 -6.70326e-05 0.106314)
(-2.41705e-06 -2.4052e-06 0.110619)
(-1.41992e-06 2.89711e-06 0.108682)
(2.90301e-06 -1.41007e-06 0.108682)
(-6.70167e-05 -6.70444e-05 0.106314)
(-2.4215e-06 -2.41144e-06 0.110619)
(-1.4253e-06 2.89914e-06 0.108682)
(2.89999e-06 -1.42045e-06 0.108681)
(-6.70155e-05 -6.70543e-05 0.106314)
(-2.42211e-06 -2.41481e-06 0.110619)
(-1.43661e-06 2.90167e-06 0.108682)
(2.90066e-06 -1.42581e-06 0.108681)
(-6.70226e-05 -6.70558e-05 0.106314)
(-2.42148e-06 -2.40945e-06 0.110619)
(-1.44035e-06 2.90391e-06 0.108682)
(2.89958e-06 -1.41802e-06 0.108681)
(-6.70345e-05 -6.70542e-05 0.106314)
(-2.4259e-06 -2.40718e-06 0.110619)
(-1.43125e-06 2.9139e-06 0.108682)
(2.90273e-06 -1.40784e-06 0.108681)
(-6.70233e-05 -6.70417e-05 0.106314)
(-2.43487e-06 -2.41368e-06 0.110619)
(-1.42248e-06 2.91895e-06 0.108682)
(2.90059e-06 -1.4054e-06 0.108681)
(-6.7022e-05 -6.70411e-05 0.106314)
(-2.43198e-06 -2.41396e-06 0.110618)
(-1.42298e-06 2.90191e-06 0.108682)
(2.89874e-06 -1.40883e-06 0.108681)
(-6.70228e-05 -6.70524e-05 0.106314)
(-2.42506e-06 -2.40851e-06 0.110618)
(-1.4304e-06 2.90687e-06 0.108682)
(2.90264e-06 -1.41494e-06 0.108681)
(-6.70261e-05 -6.70539e-05 0.106314)
(-2.42511e-06 -2.40797e-06 0.110618)
(-1.43274e-06 2.90833e-06 0.108682)
(2.90272e-06 -1.4142e-06 0.108681)
(-6.70212e-05 -6.70474e-05 0.106314)
(-2.42641e-06 -2.4089e-06 0.110618)
(-1.43513e-06 2.91328e-06 0.108682)
(2.90672e-06 -1.41398e-06 0.108681)
(-6.70299e-05 -6.7056e-05 0.106314)
(-2.41315e-06 -2.39695e-06 0.110618)
(-1.43209e-06 2.90312e-06 0.108681)
(2.89776e-06 -1.41222e-06 0.108681)
(-6.70713e-05 -6.70995e-05 0.106314)
(-2.39831e-06 -2.38242e-06 0.110618)
(-1.44693e-06 2.91155e-06 0.108681)
(2.90792e-06 -1.42551e-06 0.108681)
(-6.7054e-05 -6.70801e-05 0.106314)
(-2.39304e-06 -2.37599e-06 0.110618)
(-1.47943e-06 2.94956e-06 0.108682)
(2.94277e-06 -1.45791e-06 0.108681)
(-6.70325e-05 -6.70585e-05 0.106314)
(-5.32976e-06 -5.31757e-06 0.106777)
(6.01557e-05 9.79644e-05 0.107927)
(-6.01358e-05 9.79658e-05 0.107927)
(5.40631e-06 -5.3582e-06 0.106777)
(9.78837e-05 6.00875e-05 0.107927)
(9.79649e-05 -6.01503e-05 0.107927)
(-9.78865e-05 6.0056e-05 0.107927)
(-9.79449e-05 -6.01396e-05 0.107927)
(-5.31969e-06 5.34343e-06 0.106777)
(6.00647e-05 -9.78593e-05 0.107927)
(-6.00448e-05 -9.78531e-05 0.107927)
(5.27466e-06 5.30963e-06 0.106776)
(0.000157974 0.000157884 0.106623)
(-7.84554e-06 -7.75671e-06 0.106815)
(5.97815e-05 9.72612e-05 0.107974)
(-5.97745e-05 9.72538e-05 0.107974)
(5.91236e-05 9.56766e-05 0.108109)
(-5.9153e-05 9.56781e-05 0.108109)
(-0.000157927 0.000157829 0.106622)
(7.82556e-06 -7.71887e-06 0.106815)
(9.71758e-05 5.97122e-05 0.107975)
(9.72466e-05 -5.97752e-05 0.107974)
(9.55804e-05 5.90333e-05 0.108109)
(9.56354e-05 -5.91242e-05 0.108109)
(-9.72255e-05 -5.97591e-05 0.107974)
(-9.55596e-05 5.90398e-05 0.10811)
(-9.56242e-05 -5.91093e-05 0.108109)
(0.000157891 -0.000157993 0.106622)
(-7.77029e-06 7.85978e-06 0.106815)
(-5.96672e-05 -9.71276e-05 0.107974)
(5.90109e-05 -9.55247e-05 0.108109)
(-5.89872e-05 -9.55172e-05 0.108109)
(7.72563e-06 7.83574e-06 0.106814)
(0.000153196 0.000153185 0.106646)
(-1.02286e-05 -1.01642e-05 0.106826)
(5.88603e-05 9.49927e-05 0.108151)
(-5.88832e-05 9.49884e-05 0.108151)
(5.75637e-05 9.23824e-05 0.108271)
(-5.75837e-05 9.23789e-05 0.108271)
(-0.000153247 0.000153211 0.106646)
(1.02097e-05 -1.01018e-05 0.106826)
(9.48951e-05 5.8772e-05 0.108152)
(9.49903e-05 -5.88689e-05 0.108151)
(9.22769e-05 5.7453e-05 0.108272)
(9.23871e-05 -5.7555e-05 0.108271)
(-9.49784e-05 -5.88551e-05 0.108151)
(-9.23195e-05 5.74646e-05 0.108272)
(-9.23699e-05 -5.75356e-05 0.108271)
(0.000153185 -0.000153217 0.106646)
(-1.01618e-05 1.02389e-05 0.106825)
(-5.87285e-05 -9.48809e-05 0.108152)
(5.74427e-05 -9.22823e-05 0.108272)
(-5.74166e-05 -9.22772e-05 0.108272)
(1.01097e-05 1.02061e-05 0.106825)
(0.000147652 0.000147625 0.106644)
(-1.31403e-05 -1.30924e-05 0.106812)
(5.73546e-05 9.17402e-05 0.108309)
(-5.73745e-05 9.17367e-05 0.108309)
(5.58129e-05 8.87631e-05 0.108414)
(-5.58174e-05 8.87415e-05 0.108414)
(-0.000147702 0.000147678 0.106644)
(1.31305e-05 -1.30383e-05 0.106812)
(9.16311e-05 5.72439e-05 0.10831)
(9.17405e-05 -5.73458e-05 0.108309)
(8.86567e-05 5.57034e-05 0.108414)
(8.87617e-05 -5.58017e-05 0.108413)
(-9.17268e-05 -5.73246e-05 0.108309)
(-8.8695e-05 5.56988e-05 0.108415)
(-8.87485e-05 -5.57827e-05 0.108414)
(0.000147637 -0.000147674 0.106644)
(-1.30841e-05 1.31467e-05 0.106811)
(-5.72048e-05 -9.16326e-05 0.108309)
(5.56946e-05 -8.8669e-05 0.108414)
(-5.56637e-05 -8.86511e-05 0.108414)
(1.30331e-05 1.31211e-05 0.106811)
(0.000140439 0.000140401 0.106619)
(-1.89913e-05 -1.89461e-05 0.106771)
(5.47255e-05 8.69752e-05 0.108446)
(-5.47338e-05 8.69598e-05 0.108445)
(5.15826e-05 8.0896e-05 0.10853)
(-5.15838e-05 8.08796e-05 0.108529)
(-0.000140481 0.000140443 0.106619)
(1.8983e-05 -1.88875e-05 0.106771)
(8.6869e-05 5.46184e-05 0.108446)
(8.69735e-05 -5.4717e-05 0.108445)
(8.07853e-05 5.14739e-05 0.108531)
(8.08939e-05 -5.15577e-05 0.108529)
(-8.69576e-05 -5.46948e-05 0.108445)
(-8.08062e-05 5.14795e-05 0.108531)
(-8.0873e-05 -5.15492e-05 0.10853)
(0.000140418 -0.000140462 0.106619)
(-1.89299e-05 1.90096e-05 0.10677)
(-5.45769e-05 -8.68627e-05 0.108446)
(5.1473e-05 -8.07745e-05 0.108531)
(-5.1434e-05 -8.07741e-05 0.10853)
(1.89006e-05 1.89793e-05 0.10677)
(0.00013031 0.000130279 0.106571)
(-2.76943e-05 -2.76555e-05 0.106709)
(5.0541e-05 7.88875e-05 0.108554)
(-5.05382e-05 7.88655e-05 0.108554)
(4.54125e-05 7.04431e-05 0.108617)
(-4.54156e-05 7.04146e-05 0.108617)
(-0.000130346 0.00013032 0.10657)
(2.76908e-05 -2.76155e-05 0.106709)
(7.87776e-05 5.04323e-05 0.108555)
(7.88838e-05 -5.05131e-05 0.108554)
(7.0333e-05 4.53054e-05 0.108618)
(7.04374e-05 -4.53906e-05 0.108616)
(-7.88563e-05 -5.04939e-05 0.108554)
(-7.03716e-05 4.53123e-05 0.108618)
(-7.04164e-05 -4.5392e-05 0.108617)
(0.000130299 -0.000130318 0.10657)
(-2.7645e-05 2.7716e-05 0.106709)
(-5.03825e-05 -7.87524e-05 0.108555)
(4.53036e-05 -7.03145e-05 0.108618)
(-4.52926e-05 -7.03296e-05 0.108617)
(2.76034e-05 2.76677e-05 0.106708)
(0.000116595 0.000116564 0.106504)
(-4.29313e-05 -4.29008e-05 0.106637)
(4.28473e-05 6.64155e-05 0.108633)
(-4.28569e-05 6.63857e-05 0.108633)
(3.39781e-05 5.14987e-05 0.108666)
(-3.39533e-05 5.14823e-05 0.108666)
(-0.00011663 0.000116592 0.106504)
(4.29587e-05 -4.28695e-05 0.106638)
(6.6305e-05 4.27479e-05 0.108634)
(6.64112e-05 -4.2836e-05 0.108633)
(5.13817e-05 3.38841e-05 0.108667)
(5.14699e-05 -3.39523e-05 0.108666)
(-6.63893e-05 -4.28478e-05 0.108633)
(-5.13861e-05 3.38647e-05 0.108667)
(-5.14739e-05 -3.39423e-05 0.108666)
(0.00011658 -0.000116604 0.106504)
(-4.29099e-05 4.29432e-05 0.106637)
(-4.27436e-05 -6.6313e-05 0.108634)
(3.38678e-05 -5.14004e-05 0.108667)
(-3.38395e-05 -5.13715e-05 0.108667)
(4.28766e-05 4.2924e-05 0.106636)
(9.80618e-05 9.80309e-05 0.106431)
(-5.65663e-05 -5.6555e-05 0.106583)
(3.06596e-05 4.59041e-05 0.108673)
(-3.06271e-05 4.58887e-05 0.108672)
(2.05915e-05 3.01003e-05 0.108686)
(-2.05743e-05 3.00873e-05 0.108686)
(-9.80676e-05 9.80476e-05 0.106431)
(5.65715e-05 -5.6525e-05 0.106583)
(4.57885e-05 3.05655e-05 0.108674)
(4.58733e-05 -3.06352e-05 0.108672)
(3.0006e-05 2.05052e-05 0.108687)
(3.0091e-05 -2.05797e-05 0.108686)
(-4.58667e-05 -3.06086e-05 0.108672)
(-3.00069e-05 2.04946e-05 0.108687)
(-3.00775e-05 -2.05435e-05 0.108686)
(9.80323e-05 -9.80749e-05 0.106431)
(-5.65326e-05 5.65848e-05 0.106583)
(-3.05098e-05 -4.57841e-05 0.108673)
(2.05023e-05 -3.00045e-05 0.108687)
(-2.04501e-05 -2.99924e-05 0.108687)
(5.65389e-05 5.65593e-05 0.106582)
(8.34022e-05 8.33566e-05 0.10638)
(-6.44202e-05 -6.44034e-05 0.106555)
(1.79068e-05 2.58969e-05 0.10869)
(-1.78949e-05 2.58827e-05 0.108689)
(1.24807e-05 1.71828e-05 0.108696)
(-1.24651e-05 1.71715e-05 0.108695)
(-8.34316e-05 8.33739e-05 0.10638)
(6.44184e-05 -6.43796e-05 0.106556)
(2.58017e-05 1.78205e-05 0.10869)
(2.58927e-05 -1.78995e-05 0.108689)
(1.70764e-05 1.23884e-05 0.108696)
(1.71849e-05 -1.24697e-05 0.108695)
(-2.58811e-05 -1.78638e-05 0.108689)
(-1.70864e-05 1.23923e-05 0.108697)
(-1.7155e-05 -1.24215e-05 0.108695)
(8.33831e-05 -8.34102e-05 0.10638)
(-6.4377e-05 6.44411e-05 0.106555)
(-1.77753e-05 -2.57885e-05 0.10869)
(1.23904e-05 -1.70765e-05 0.108696)
(-1.23372e-05 -1.70531e-05 0.108696)
(6.43926e-05 6.44104e-05 0.106555)
(7.5526e-05 7.54893e-05 0.106354)
(-6.91528e-05 -6.91363e-05 0.106536)
(1.13195e-05 1.52411e-05 0.108696)
(-1.13058e-05 1.52299e-05 0.108696)
(8.29136e-06 1.01432e-05 0.108694)
(-8.2845e-06 1.01365e-05 0.108694)
(-7.55603e-05 7.55005e-05 0.106353)
(6.91476e-05 -6.91161e-05 0.106536)
(1.51304e-05 1.12281e-05 0.108697)
(1.52395e-05 -1.13074e-05 0.108696)
(1.00309e-05 8.20123e-06 0.108695)
(1.01381e-05 -8.27856e-06 0.108694)
(-1.52094e-05 -1.12585e-05 0.108696)
(-1.00467e-05 8.19816e-06 0.108696)
(-1.01278e-05 -8.25028e-06 0.108694)
(7.55179e-05 -7.55306e-05 0.106353)
(-6.91236e-05 6.91694e-05 0.106536)
(-1.1173e-05 -1.51043e-05 0.108697)
(8.19648e-06 -1.00316e-05 0.108695)
(-8.16746e-06 -1.00161e-05 0.108695)
(6.90982e-05 6.91372e-05 0.106535)
(7.06777e-05 7.06412e-05 0.106335)
(-7.20115e-05 -7.19861e-05 0.106522)
(7.35867e-06 8.60592e-06 0.108693)
(-7.35513e-06 8.5983e-06 0.108693)
(5.11412e-06 4.92676e-06 0.108688)
(-5.11144e-06 4.9143e-06 0.108688)
(-7.07152e-05 7.0648e-05 0.106334)
(7.20044e-05 -7.19707e-05 0.106522)
(8.49348e-06 7.27176e-06 0.108694)
(8.59778e-06 -7.34817e-06 0.108692)
(4.80667e-06 5.03476e-06 0.108689)
(4.91307e-06 -5.10625e-06 0.108688)
(-8.59425e-06 -7.32833e-06 0.108693)
(-4.82434e-06 5.02306e-06 0.108689)
(-4.91538e-06 -5.09998e-06 0.108688)
(7.06553e-05 -7.06887e-05 0.106334)
(-7.19855e-05 7.20165e-05 0.106522)
(-7.2463e-06 -8.48311e-06 0.108694)
(5.02091e-06 -4.81333e-06 0.108689)
(-5.0176e-06 -4.79962e-06 0.108689)
(7.19312e-05 7.19798e-05 0.106521)
(6.78279e-05 6.78015e-05 0.106322)
(-7.29007e-05 -7.28749e-05 0.106516)
(4.55826e-06 4.01752e-06 0.108687)
(-4.55587e-06 4.00421e-06 0.108686)
(3.52033e-06 2.27254e-06 0.108684)
(-3.51238e-06 2.26066e-06 0.108683)
(-6.78672e-05 6.78044e-05 0.106321)
(7.28968e-05 -7.28583e-05 0.106516)
(3.89553e-06 4.48067e-06 0.108688)
(4.00274e-06 -4.55394e-06 0.108686)
(2.15454e-06 3.4425e-06 0.108684)
(2.25999e-06 -3.51252e-06 0.108683)
(-4.00564e-06 -4.54703e-06 0.108687)
(-2.16917e-06 3.43026e-06 0.108685)
(-2.25932e-06 -3.50215e-06 0.108683)
(6.78057e-05 -6.78495e-05 0.106321)
(-7.28736e-05 7.29077e-05 0.106515)
(-4.46426e-06 -3.88904e-06 0.108687)
(3.42793e-06 -2.16069e-06 0.108684)
(-3.42014e-06 -2.15013e-06 0.108684)
(7.28307e-05 7.28719e-05 0.106515)
(6.70309e-05 6.70053e-05 0.106316)
(-7.29953e-05 -7.29777e-05 0.106514)
(3.34062e-06 1.96378e-06 0.108683)
(-3.33484e-06 1.95123e-06 0.108682)
(3.07358e-06 1.6086e-06 0.108681)
(-3.07227e-06 1.59545e-06 0.108681)
(-6.70672e-05 6.70088e-05 0.106316)
(7.29833e-05 -7.29615e-05 0.106514)
(1.8456e-06 3.26189e-06 0.108684)
(1.95182e-06 -3.33116e-06 0.108682)
(1.49308e-06 2.9881e-06 0.108682)
(1.60485e-06 -3.06185e-06 0.108681)
(-1.94846e-06 -3.32064e-06 0.108683)
(-1.51238e-06 2.98015e-06 0.108683)
(-1.595e-06 -3.05014e-06 0.108681)
(6.701e-05 -6.70485e-05 0.106316)
(-7.29707e-05 7.30096e-05 0.106513)
(-3.23966e-06 -1.84365e-06 0.108683)
(2.97445e-06 -1.49314e-06 0.108682)
(-2.97066e-06 -1.49429e-06 0.108682)
(7.29328e-05 7.29616e-05 0.106513)
(6.69413e-05 6.69061e-05 0.106315)
(-7.29549e-05 -7.29428e-05 0.106513)
(3.0384e-06 1.56771e-06 0.108681)
(-3.038e-06 1.55195e-06 0.108681)
(3.00433e-06 1.52558e-06 0.108681)
(-2.99565e-06 1.51056e-06 0.10868)
(-6.6986e-05 6.69098e-05 0.106314)
(7.29527e-05 -7.2928e-05 0.106513)
(1.45333e-06 2.95159e-06 0.108682)
(1.56377e-06 -3.02791e-06 0.10868)
(1.41766e-06 2.91391e-06 0.108682)
(1.5246e-06 -2.99013e-06 0.10868)
(-1.55511e-06 -3.01564e-06 0.108681)
(-1.43323e-06 2.9047e-06 0.108682)
(-1.51588e-06 -2.97701e-06 0.108681)
(6.69181e-05 -6.6954e-05 0.106314)
(-7.29344e-05 7.29682e-05 0.106513)
(-2.93605e-06 -1.4536e-06 0.108682)
(2.90779e-06 -1.41637e-06 0.108682)
(-2.89409e-06 -1.41145e-06 0.108681)
(7.28966e-05 7.29312e-05 0.106512)
(6.69824e-05 6.69421e-05 0.106314)
(-7.29435e-05 -7.2923e-05 0.106513)
(3.00004e-06 1.52325e-06 0.108681)
(-2.99032e-06 1.50719e-06 0.10868)
(2.99369e-06 1.52284e-06 0.108681)
(-2.97856e-06 1.50922e-06 0.10868)
(-6.7015e-05 6.69443e-05 0.106314)
(7.29466e-05 -7.29084e-05 0.106513)
(1.41493e-06 2.91184e-06 0.108682)
(1.51897e-06 -2.98701e-06 0.10868)
(1.40875e-06 2.91209e-06 0.108682)
(1.51471e-06 -2.98497e-06 0.10868)
(-1.51147e-06 -2.97201e-06 0.10868)
(-1.41809e-06 2.89813e-06 0.108682)
(-1.50547e-06 -2.96679e-06 0.10868)
(6.69536e-05 -6.69961e-05 0.106314)
(-7.29186e-05 7.29513e-05 0.106513)
(-2.88946e-06 -1.40685e-06 0.108681)
(2.90394e-06 -1.40865e-06 0.108682)
(-2.88119e-06 -1.40043e-06 0.108681)
(7.28865e-05 7.2918e-05 0.106512)
(6.69897e-05 6.69593e-05 0.106314)
(-7.29411e-05 -7.29213e-05 0.106513)
(2.99104e-06 1.52526e-06 0.108681)
(-2.97758e-06 1.51e-06 0.10868)
(2.9928e-06 1.52765e-06 0.108681)
(-2.98104e-06 1.51525e-06 0.10868)
(-6.70194e-05 6.69605e-05 0.106314)
(7.29402e-05 -7.29056e-05 0.106513)
(1.40811e-06 2.9117e-06 0.108682)
(1.5149e-06 -2.98646e-06 0.10868)
(1.40967e-06 2.91106e-06 0.108682)
(1.51849e-06 -2.99363e-06 0.10868)
(-1.50616e-06 -2.96729e-06 0.10868)
(-1.42043e-06 2.89953e-06 0.108682)
(-1.50737e-06 -2.97358e-06 0.10868)
(6.6967e-05 -6.70097e-05 0.106314)
(-7.29166e-05 7.29414e-05 0.106513)
(-2.88082e-06 -1.40163e-06 0.108681)
(2.90173e-06 -1.41651e-06 0.108681)
(-2.87985e-06 -1.41228e-06 0.108681)
(7.2886e-05 7.2907e-05 0.106512)
(6.69915e-05 6.69585e-05 0.106314)
(-7.29284e-05 -7.29161e-05 0.106513)
(2.9934e-06 1.52675e-06 0.108681)
(-2.9846e-06 1.51316e-06 0.10868)
(2.99862e-06 1.52344e-06 0.108681)
(-2.99417e-06 1.5103e-06 0.10868)
(-6.70256e-05 6.69605e-05 0.106314)
(7.29193e-05 -7.29005e-05 0.106513)
(1.41067e-06 2.90986e-06 0.108682)
(1.51814e-06 -2.99572e-06 0.10868)
(1.41361e-06 2.90958e-06 0.108681)
(1.51904e-06 -2.99639e-06 0.10868)
(-1.50715e-06 -2.97421e-06 0.10868)
(-1.42986e-06 2.90057e-06 0.108682)
(-1.50952e-06 -2.97017e-06 0.10868)
(6.69668e-05 -6.70176e-05 0.106314)
(-7.29109e-05 7.29292e-05 0.106513)
(-2.87945e-06 -1.41483e-06 0.108681)
(2.89985e-06 -1.4258e-06 0.108681)
(-2.87706e-06 -1.41657e-06 0.108681)
(7.28783e-05 7.29027e-05 0.106512)
(6.70027e-05 6.69633e-05 0.106314)
(-7.29272e-05 -7.291e-05 0.106513)
(3.00061e-06 1.52383e-06 0.108681)
(-2.99924e-06 1.50866e-06 0.10868)
(2.99952e-06 1.525e-06 0.108681)
(-3.00031e-06 1.50908e-06 0.10868)
(-6.70439e-05 6.69637e-05 0.106314)
(7.29123e-05 -7.28957e-05 0.106513)
(1.41451e-06 2.91185e-06 0.108681)
(1.51844e-06 -2.99691e-06 0.10868)
(1.41342e-06 2.9139e-06 0.108681)
(1.51941e-06 -2.98949e-06 0.10868)
(-1.51089e-06 -2.96862e-06 0.10868)
(-1.43651e-06 2.9037e-06 0.108682)
(-1.51639e-06 -2.96223e-06 0.10868)
(6.69714e-05 -6.70275e-05 0.106314)
(-7.29071e-05 7.29355e-05 0.106513)
(-2.8801e-06 -1.41512e-06 0.108681)
(2.90046e-06 -1.4205e-06 0.108681)
(-2.88312e-06 -1.40853e-06 0.108681)
(7.28708e-05 7.29095e-05 0.106512)
(6.7006e-05 6.69739e-05 0.106314)
(-7.29459e-05 -7.2923e-05 0.106513)
(2.99706e-06 1.52544e-06 0.108681)
(-2.99977e-06 1.50883e-06 0.10868)
(2.99694e-06 1.52862e-06 0.108681)
(-2.99773e-06 1.51453e-06 0.10868)
(-6.70518e-05 6.69726e-05 0.106314)
(7.2937e-05 -7.29037e-05 0.106513)
(1.41214e-06 2.91442e-06 0.108681)
(1.51807e-06 -2.98669e-06 0.10868)
(1.40897e-06 2.9197e-06 0.108681)
(1.51996e-06 -2.98574e-06 0.10868)
(-1.51519e-06 -2.95987e-06 0.10868)
(-1.42784e-06 2.9142e-06 0.108682)
(-1.51401e-06 -2.96513e-06 0.10868)
(6.6979e-05 -6.70243e-05 0.106314)
(-7.29196e-05 7.29577e-05 0.106512)
(-2.8841e-06 -1.40607e-06 0.108681)
(2.90525e-06 -1.41005e-06 0.108681)
(-2.89041e-06 -1.4019e-06 0.108681)
(7.28844e-05 7.29253e-05 0.106512)
(6.69875e-05 6.69624e-05 0.106314)
(-7.29481e-05 -7.29341e-05 0.106513)
(2.9907e-06 1.52687e-06 0.108681)
(-2.99626e-06 1.51694e-06 0.10868)
(2.97804e-06 1.52085e-06 0.108681)
(-2.99859e-06 1.54001e-06 0.10868)
(-6.70307e-05 6.69702e-05 0.106314)
(7.29356e-05 -7.28778e-05 0.106513)
(1.40663e-06 2.91622e-06 0.108681)
(1.51879e-06 -2.98299e-06 0.10868)
(1.40272e-06 2.90579e-06 0.108681)
(1.52002e-06 -2.97961e-06 0.10868)
(-1.50999e-06 -2.96279e-06 0.10868)
(-1.41592e-06 2.91968e-06 0.108682)
(-1.50222e-06 -2.9617e-06 0.10868)
(6.69693e-05 -6.70055e-05 0.106314)
(-7.29154e-05 7.29526e-05 0.106512)
(-2.88916e-06 -1.39885e-06 0.108681)
(2.9002e-06 -1.40539e-06 0.108681)
(-2.88523e-06 -1.39461e-06 0.108681)
(7.28741e-05 7.29163e-05 0.106512)
(6.69786e-05 6.69448e-05 0.106314)
(-7.29307e-05 -7.29285e-05 0.106513)
(2.98145e-06 1.52542e-06 0.10868)
(-3.00103e-06 1.54209e-06 0.10868)
(2.98439e-06 1.51534e-06 0.10868)
(-2.98404e-06 1.50419e-06 0.10868)
(-6.70199e-05 6.69861e-05 0.106314)
(7.29301e-05 -7.29137e-05 0.106513)
(1.40201e-06 2.91034e-06 0.108681)
(1.51827e-06 -2.98217e-06 0.10868)
(1.40382e-06 2.91022e-06 0.108681)
(1.5167e-06 -2.98548e-06 0.10868)
(-1.50339e-06 -2.9646e-06 0.10868)
(-1.41243e-06 2.89844e-06 0.108682)
(-1.50826e-06 -2.96944e-06 0.10868)
(6.69632e-05 -6.7002e-05 0.106314)
(-7.29141e-05 7.29432e-05 0.106512)
(-2.88722e-06 -1.39679e-06 0.108681)
(2.90019e-06 -1.40816e-06 0.108681)
(-2.88533e-06 -1.40413e-06 0.108681)
(7.28769e-05 7.29066e-05 0.106512)
(6.69929e-05 6.69528e-05 0.106314)
(-7.29314e-05 -7.2918e-05 0.106513)
(2.98673e-06 1.51581e-06 0.10868)
(-2.99147e-06 1.50997e-06 0.10868)
(2.99062e-06 1.51864e-06 0.10868)
(-2.99457e-06 1.51123e-06 0.10868)
(-6.70276e-05 6.69508e-05 0.106314)
(7.29257e-05 -7.29078e-05 0.106513)
(1.40393e-06 2.90954e-06 0.108681)
(1.51448e-06 -2.98703e-06 0.10868)
(1.4066e-06 2.91205e-06 0.108681)
(1.51528e-06 -2.99087e-06 0.10868)
(-1.50726e-06 -2.97029e-06 0.10868)
(-1.42161e-06 2.9041e-06 0.108682)
(-1.50849e-06 -2.97127e-06 0.10868)
(6.69671e-05 -6.70141e-05 0.106314)
(-7.29143e-05 7.29388e-05 0.106512)
(-2.88545e-06 -1.40469e-06 0.108681)
(2.90012e-06 -1.41309e-06 0.108681)
(-2.8865e-06 -1.40567e-06 0.108681)
(7.28749e-05 7.2906e-05 0.106512)
(6.69949e-05 6.69652e-05 0.106314)
(-7.29362e-05 -7.29182e-05 0.106513)
(2.99222e-06 1.51938e-06 0.10868)
(-2.99721e-06 1.51131e-06 0.10868)
(2.99346e-06 1.51932e-06 0.10868)
(-2.99993e-06 1.51181e-06 0.10868)
(-6.70328e-05 6.69586e-05 0.106314)
(7.29311e-05 -7.2914e-05 0.106513)
(1.40789e-06 2.91424e-06 0.108681)
(1.51593e-06 -2.99499e-06 0.10868)
(1.40817e-06 2.91582e-06 0.108681)
(1.51577e-06 -2.99329e-06 0.10868)
(-1.50965e-06 -2.97377e-06 0.10868)
(-1.42609e-06 2.90805e-06 0.108682)
(-1.51063e-06 -2.97257e-06 0.10868)
(6.6968e-05 -6.70183e-05 0.106314)
(-7.29141e-05 7.29399e-05 0.106512)
(-2.89007e-06 -1.40785e-06 0.108681)
(2.90225e-06 -1.41481e-06 0.108681)
(-2.889e-06 -1.40683e-06 0.108681)
(7.2878e-05 7.29102e-05 0.106512)
(6.69877e-05 6.69628e-05 0.106314)
(-7.29144e-05 -7.28953e-05 0.106513)
(2.99364e-06 1.51904e-06 0.10868)
(-2.99932e-06 1.512e-06 0.10868)
(2.98935e-06 1.52044e-06 0.10868)
(-2.99443e-06 1.51335e-06 0.10868)
(-6.70253e-05 6.69515e-05 0.106314)
(7.29127e-05 -7.2891e-05 0.106513)
(1.40898e-06 2.91634e-06 0.108681)
(1.51568e-06 -2.99425e-06 0.10868)
(1.40985e-06 2.91231e-06 0.108681)
(1.51745e-06 -2.98768e-06 0.10868)
(-1.51002e-06 -2.97218e-06 0.10868)
(-1.42809e-06 2.90429e-06 0.108682)
(-1.51238e-06 -2.9681e-06 0.10868)
(6.69661e-05 -6.70145e-05 0.106314)
(-7.28918e-05 7.29218e-05 0.106512)
(-2.88952e-06 -1.40726e-06 0.108681)
(2.89934e-06 -1.41385e-06 0.108681)
(-2.8852e-06 -1.40674e-06 0.108681)
(7.28586e-05 7.2891e-05 0.106512)
(6.69988e-05 6.69757e-05 0.106314)
(-7.29017e-05 -7.28826e-05 0.106513)
(2.9971e-06 1.5223e-06 0.10868)
(-3.00204e-06 1.51512e-06 0.10868)
(2.98669e-06 1.51782e-06 0.10868)
(-2.98855e-06 1.51256e-06 0.10868)
(-6.70317e-05 6.69624e-05 0.106314)
(7.28988e-05 -7.28733e-05 0.106513)
(1.4117e-06 2.92044e-06 0.108681)
(1.51869e-06 -2.99578e-06 0.10868)
(1.40876e-06 2.9096e-06 0.108681)
(1.51669e-06 -2.98421e-06 0.10868)
(-1.51358e-06 -2.97624e-06 0.10868)
(-1.42388e-06 2.90186e-06 0.108682)
(-1.50843e-06 -2.96476e-06 0.10868)
(6.69804e-05 -6.70246e-05 0.106314)
(-7.2881e-05 7.29126e-05 0.106512)
(-2.89387e-06 -1.40869e-06 0.108681)
(2.89773e-06 -1.41065e-06 0.108681)
(-2.88094e-06 -1.40527e-06 0.108681)
(7.28425e-05 7.28732e-05 0.106512)
(6.70403e-05 6.70164e-05 0.106314)
(-7.29572e-05 -7.29366e-05 0.106513)
(2.98701e-06 1.52065e-06 0.10868)
(-2.98907e-06 1.5152e-06 0.10868)
(3.00876e-06 1.53289e-06 0.10868)
(-3.00901e-06 1.52876e-06 0.10868)
(-6.70733e-05 6.70071e-05 0.106314)
(7.29546e-05 -7.2928e-05 0.106513)
(1.41121e-06 2.91003e-06 0.108681)
(1.51827e-06 -2.98526e-06 0.10868)
(1.42606e-06 2.93132e-06 0.108681)
(1.53273e-06 -3.00596e-06 0.10868)
(-1.5113e-06 -2.96678e-06 0.10868)
(-1.43986e-06 2.9244e-06 0.108682)
(-1.5235e-06 -2.98601e-06 0.10868)
(6.70197e-05 -6.70625e-05 0.106314)
(-7.29343e-05 7.29676e-05 0.106512)
(-2.88318e-06 -1.40803e-06 0.108681)
(2.91993e-06 -1.4252e-06 0.108681)
(-2.90287e-06 -1.42042e-06 0.108681)
(7.28953e-05 7.29282e-05 0.106512)
(6.70181e-05 6.69951e-05 0.106314)
(-7.29595e-05 -7.29373e-05 0.106513)
(2.99597e-06 1.53382e-06 0.10868)
(-2.99765e-06 1.52808e-06 0.10868)
(3.0267e-06 1.55723e-06 0.10868)
(-3.02708e-06 1.55277e-06 0.10868)
(-6.70535e-05 6.69877e-05 0.106314)
(7.29591e-05 -7.29301e-05 0.106513)
(1.42701e-06 2.91931e-06 0.108681)
(1.53233e-06 -2.99376e-06 0.10868)
(1.45e-06 2.95012e-06 0.108681)
(1.55562e-06 -3.02346e-06 0.10868)
(-1.524e-06 -2.97434e-06 0.10868)
(-1.46271e-06 2.94423e-06 0.108682)
(-1.54754e-06 -3.00448e-06 0.10868)
(6.69982e-05 -6.70395e-05 0.106314)
(-7.29336e-05 7.29669e-05 0.106512)
(-2.89089e-06 -1.42106e-06 0.108681)
(2.938e-06 -1.44834e-06 0.108681)
(-2.92139e-06 -1.44376e-06 0.108681)
(7.28982e-05 7.29317e-05 0.106512)
(6.69959e-05 6.69753e-05 0.106314)
(3.03321e-06 1.567e-06 0.10868)
(-3.03502e-06 1.56228e-06 0.10868)
(-6.70304e-05 6.69665e-05 0.106314)
(1.46007e-06 2.95611e-06 0.108681)
(1.56562e-06 -3.03085e-06 0.10868)
(-1.55679e-06 -3.01074e-06 0.10868)
(6.69778e-05 -6.70198e-05 0.106314)
(-2.92778e-06 -1.455e-06 0.108681)
(6.11823e-05 6.11978e-05 0.108853)
(-6.11832e-05 6.11736e-05 0.108853)
(6.11897e-05 -6.11932e-05 0.108853)
(-6.12014e-05 -6.11841e-05 0.108853)
(1.81444e-06 2.12007e-05 0.0940169)
(-1.49151e-06 1.9604e-05 0.0835886)
(1.94842e-06 4.40512e-05 0.0940743)
(-4.17382e-06 1.62207e-07 0.0835682)
(-1.98867e-06 6.83317e-06 0.0721732)
(3.93934e-06 -1.57589e-06 0.07218)
(2.12163e-05 1.81083e-06 0.0940159)
(1.96024e-05 -1.50894e-06 0.0835888)
(4.41181e-05 1.94956e-06 0.0940749)
(1.58366e-07 -4.18941e-06 0.0835681)
(-6.07207e-05 6.07114e-05 0.108929)
(6.07245e-05 -6.07285e-05 0.108929)
(-6.07354e-05 -6.0716e-05 0.108928)
(5.9744e-05 5.97606e-05 0.109152)
(-5.97525e-05 5.97384e-05 0.109152)
(5.97553e-05 -5.97602e-05 0.109152)
(-5.97727e-05 -5.97525e-05 0.109152)
(-6.14086e-05 4.34528e-06 0.10246)
(-6.06787e-05 1.64326e-05 0.0957195)
(-0.000100946 1.86081e-05 0.10862)
(-9.65596e-05 5.93747e-05 0.108021)
(-0.00010518 4.66711e-06 0.102454)
(-2.85543e-05 4.68307e-06 0.0957156)
(-0.00010056 1.84667e-05 0.108686)
(6.83223e-06 -1.99776e-06 0.0721726)
(-1.57896e-06 3.9339e-06 0.0721794)
(4.31962e-06 -6.14378e-05 0.102461)
(1.86288e-05 -0.000100925 0.10862)
(1.64634e-05 -6.06863e-05 0.0957188)
(5.93736e-05 -9.65242e-05 0.108021)
(4.64751e-06 -0.000105194 0.102453)
(1.84859e-05 -0.000100535 0.108686)
(4.70294e-06 -2.85833e-05 0.095716)
(-2.88762e-05 -1.26463e-05 0.0893989)
(-1.26264e-05 -2.88654e-05 0.0893974)
(6.60305e-06 6.66632e-06 0.106799)
(-1.82853e-05 -4.80741e-07 0.0893687)
(-4.38335e-07 -1.82914e-05 0.089366)
(1.58692e-06 1.70654e-05 0.0937165)
(-3.81821e-07 1.79187e-05 0.0833659)
(1.53672e-06 3.97581e-05 0.0937637)
(-3.07397e-06 -2.09719e-06 0.0833527)
(-2.13609e-06 6.33183e-06 0.0720221)
(2.87746e-06 -2.30924e-06 0.0720325)
(1.70114e-05 1.58297e-06 0.0937155)
(1.79176e-05 -4.07143e-07 0.0833662)
(3.97873e-05 1.53297e-06 0.0937643)
(-2.10272e-06 -3.09366e-06 0.0833527)
(-5.93709e-05 5.93495e-05 0.109226)
(5.93758e-05 -5.93841e-05 0.109226)
(-5.9393e-05 -5.93783e-05 0.109226)
(5.77185e-05 5.772e-05 0.109442)
(-5.77191e-05 5.77084e-05 0.109442)
(5.77217e-05 -5.77261e-05 0.109442)
(-5.77366e-05 -5.77179e-05 0.109442)
(-5.44309e-05 3.42724e-06 0.102189)
(-5.64433e-05 1.47665e-05 0.0954283)
(-9.98463e-05 1.80504e-05 0.108878)
(-9.40618e-05 5.83238e-05 0.108193)
(-9.7865e-05 3.77725e-06 0.102184)
(-2.43616e-05 3.48441e-06 0.0954298)
(-9.935e-05 1.785e-05 0.10894)
(6.32392e-06 -2.1552e-06 0.0720215)
(-2.29673e-06 2.87284e-06 0.0720319)
(3.4417e-06 -5.44338e-05 0.102189)
(1.80745e-05 -9.9833e-05 0.108877)
(1.4783e-05 -5.6454e-05 0.0954276)
(5.8303e-05 -9.4029e-05 0.108193)
(3.76649e-06 -9.78619e-05 0.102183)
(1.78772e-05 -9.93429e-05 0.10894)
(3.49688e-06 -2.43859e-05 0.0954302)
(-2.66589e-05 -1.1789e-05 0.0891472)
(-1.1772e-05 -2.66469e-05 0.0891457)
(8.89221e-06 8.98897e-06 0.106823)
(-1.56384e-05 -2.82443e-07 0.0891247)
(-2.5383e-07 -1.56393e-05 0.0891221)
(8.80571e-07 1.38364e-05 0.0934504)
(-2.26452e-06 1.75036e-05 0.0831659)
(1.24386e-06 3.5073e-05 0.0934859)
(-4.16664e-06 -1.47991e-06 0.0831621)
(-9.23321e-07 7.18945e-06 0.0718856)
(5.01274e-06 -1.47197e-06 0.0719017)
(1.37846e-05 8.86094e-07 0.0934494)
(1.74973e-05 -2.27844e-06 0.0831662)
(3.51083e-05 1.26133e-06 0.0934864)
(-1.49528e-06 -4.16988e-06 0.0831622)
(-5.72677e-05 5.7259e-05 0.109513)
(5.72689e-05 -5.72759e-05 0.109513)
(-5.72847e-05 -5.72668e-05 0.109513)
(5.54205e-05 5.54207e-05 0.10972)
(-5.54189e-05 5.54034e-05 0.10972)
(5.54208e-05 -5.54278e-05 0.10972)
(-5.54306e-05 -5.54194e-05 0.10972)
(-4.72363e-05 2.89009e-06 0.101918)
(-5.17002e-05 1.34231e-05 0.0951578)
(-9.76911e-05 1.74162e-05 0.10912)
(-9.10106e-05 5.70226e-05 0.108346)
(-8.93892e-05 3.14347e-06 0.101912)
(-2.10958e-05 2.05298e-06 0.0951655)
(-9.73388e-05 1.72974e-05 0.109179)
(7.19029e-06 -9.36125e-07 0.071885)
(-1.46806e-06 5.01648e-06 0.0719011)
(2.89646e-06 -4.72497e-05 0.101919)
(1.74493e-05 -9.76805e-05 0.10912)
(1.34332e-05 -5.1711e-05 0.0951571)
(5.70115e-05 -9.09818e-05 0.108346)
(3.15014e-06 -8.93853e-05 0.101911)
(1.73326e-05 -9.73294e-05 0.109178)
(2.08748e-06 -2.11095e-05 0.0951659)
(-2.45708e-05 -1.03006e-05 0.0889176)
(-1.02794e-05 -2.45575e-05 0.0889161)
(1.12244e-05 1.13167e-05 0.106821)
(-1.43606e-05 1.27583e-06 0.0889042)
(1.3231e-06 -1.43515e-05 0.0889017)
(9.10508e-07 9.10302e-06 0.0932063)
(5.38241e-07 1.39929e-05 0.0829877)
(7.20003e-07 3.19568e-05 0.0932318)
(-1.41798e-06 -6.18397e-06 0.0829936)
(-2.59483e-06 5.27014e-06 0.0717644)
(1.98076e-06 -3.50584e-06 0.0717869)
(9.06059e-06 9.08202e-07 0.0932053)
(1.39922e-05 4.97036e-07 0.082988)
(3.19858e-05 7.28532e-07 0.0932323)
(-6.17007e-06 -1.45948e-06 0.0829937)
(-5.43108e-05 5.43005e-05 0.109787)
(5.43134e-05 -5.43185e-05 0.109787)
(-5.43228e-05 -5.43117e-05 0.109787)
(5.02733e-05 5.0279e-05 0.109978)
(-5.02676e-05 5.02713e-05 0.109978)
(5.02828e-05 -5.02712e-05 0.109978)
(-5.02835e-05 -5.02664e-05 0.109978)
(-3.75893e-05 1.77073e-06 0.10165)
(-4.71212e-05 1.14716e-05 0.0949114)
(-9.45202e-05 1.63756e-05 0.109346)
(-8.48701e-05 5.34923e-05 0.108476)
(-8.06479e-05 2.20447e-06 0.101645)
(-1.47404e-05 7.47722e-07 0.094927)