/*--------------------------------*- C++ -*----------------------------------*\
| =========                 |                                                 |
| \\      /  F ield         | OpenFOAM: The Open Source CFD Toolbox           |
|  \\    /   O peration     | Version:  v2006                                 |
|   \\  /    A nd           | Website:  www.openfoam.com                      |
|    \\/     M anipulation  |                                                 |
\*---------------------------------------------------------------------------*/
FoamFile
{
    version     2.0;
    format      ascii;
    class       volScalarField;
    location    "625";
    object      nut;
}
// * * * * * * * * * * * * * * * * * * * * * * * * * * * * * * * * * * * * * //

dimensions      [0 2 -1 0 0 0 0];


internalField   nonuniform List<scalar> 
14310
(
0.00011448
0.000112163
0.000112153
4.97999e-05
8.72807e-05
4.97945e-05
8.72516e-05
2.3554e-05
2.35521e-05
7.10461e-05
7.10345e-05
8.72774e-05
8.7533e-05
0.000109196
0.000107488
0.000109119
0.00010748
8.75157e-05
0.000109216
0.00010748
8.7253e-05
0.000109225
0.000107492
2.00812e-05
7.43001e-05
4.98033e-05
2.00805e-05
7.4352e-05
3.61984e-05
8.74304e-05
4.04519e-05
8.43887e-05
3.61977e-05
4.04527e-05
8.45033e-05
2.00811e-05
7.42806e-05
4.9798e-05
2.00803e-05
7.43329e-05
3.61973e-05
8.73834e-05
8.43518e-05
4.04504e-05
3.61965e-05
8.44571e-05
4.04512e-05
2.3555e-05
2.35532e-05
9.24421e-05
0.000102905
4.76761e-05
7.11361e-05
9.22673e-05
4.7681e-05
0.000103177
9.24517e-05
0.00010289
4.76642e-05
7.11216e-05
9.22775e-05
4.7669e-05
0.000103159
7.7283e-05
2.14551e-05
2.1452e-05
7.72196e-05
2.14559e-05
2.1453e-05
2.00798e-05
7.42942e-05
2.00793e-05
7.4343e-05
3.6196e-05
8.43813e-05
8.74239e-05
4.04517e-05
4.04524e-05
3.61953e-05
8.44912e-05
2.00797e-05
2.00789e-05
7.4333e-05
3.61951e-05
8.73842e-05
4.04501e-05
8.43625e-05
4.04508e-05
3.61944e-05
8.44643e-05
0.00010899
0.000112934
0.000112934
0.000114712
0.000108691
0.000113158
0.000113156
0.000110828
9.82897e-05
0.000110591
9.85838e-05
0.000110893
0.000107785
9.8309e-05
8.77447e-05
9.86065e-05
0.000110655
0.000107981
0.000112483
0.00010788
0.000105357
0.0001128
0.000105687
0.000112244
0.000113053
0.000112443
0.000105338
0.000107869
0.000112786
0.000112208
0.000105663
0.000113037
0.000110866
0.000107767
9.82926e-05
8.77188e-05
9.85679e-05
0.000110636
0.000107956
0.000112464
0.000107834
0.000105337
0.000112813
0.000105637
0.000112234
0.000113055
0.000110881
9.85948e-05
0.0001125
0.000107848
0.000112833
0.000105366
0.000112272
0.000113075
0.000105664
2.01478e-05
2.01499e-05
3.63417e-05
4.06198e-05
4.06174e-05
3.63453e-05
4.06134e-05
2.01337e-05
2.0135e-05
3.63339e-05
4.06158e-05
4.06146e-05
3.63344e-05
3.63395e-05
4.06152e-05
2.01475e-05
0.000145155
0.000141708
0.000142615
0.000141995
0.000142566
0.000141811
0.000124727
0.00012068
5.02245e-05
5.01923e-05
0.000137764
0.000126204
9.36051e-05
2.36982e-05
2.36813e-05
0.000132366
7.53104e-05
7.52073e-05
7.333e-05
7.32648e-05
2.37084e-05
2.36914e-05
0.000117402
9.11454e-05
0.000118631
0.000135053
0.000131163
0.000132156
9.29925e-05
0.000125959
0.000133728
9.1673e-05
5.02513e-05
5.0207e-05
9.31687e-05
0.000118372
0.000133346
0.000131076
0.000124932
0.000124362
9.26019e-05
0.000133112
9.15446e-05
5.02428e-05
5.01925e-05
9.30618e-05
0.000131606
0.000125456
0.000134172
5.02324e-05
9.31127e-05
7.52278e-05
7.53325e-05
2.37114e-05
2.37084e-05
2.01487e-05
5.02162e-05
7.75807e-05
7.72371e-05
2.01511e-05
2.01479e-05
7.65926e-05
5.02075e-05
2.01431e-05
7.69686e-05
2.36925e-05
2.36893e-05
7.76032e-05
2.15515e-05
2.15587e-05
7.68835e-05
2.15679e-05
2.15753e-05
9.73738e-05
0.000115433
7.46027e-05
4.82705e-05
0.000113888
4.82428e-05
9.85658e-05
9.74038e-05
0.000115116
7.45233e-05
4.83056e-05
4.82762e-05
0.000113521
9.86027e-05
9.62271e-05
4.81805e-05
0.000110798
7.39425e-05
0.000112279
9.51819e-05
4.82151e-05
9.62295e-05
4.82097e-05
0.000110323
7.38524e-05
9.51693e-05
4.82463e-05
0.000111847
7.84684e-05
2.15938e-05
2.16014e-05
2.1579e-05
2.15865e-05
7.93779e-05
2.37026e-05
2.36994e-05
3.63186e-05
9.05758e-05
4.06054e-05
8.73591e-05
4.05948e-05
8.68106e-05
3.63296e-05
3.63448e-05
8.80276e-05
4.06117e-05
9.22294e-05
3.63393e-05
8.85436e-05
4.06175e-05
2.01551e-05
5.02384e-05
7.72419e-05
7.6871e-05
2.01597e-05
2.01535e-05
7.62268e-05
5.02261e-05
2.01484e-05
7.65808e-05
3.6346e-05
9.26388e-05
8.94052e-05
4.06211e-05
8.8898e-05
4.06192e-05
3.63482e-05
3.63411e-05
4.06107e-05
8.77079e-05
9.21132e-05
3.63339e-05
4.06173e-05
8.82362e-05
2.01492e-05
5.02271e-05
7.67053e-05
7.64026e-05
2.01533e-05
2.01479e-05
7.58753e-05
5.02135e-05
2.01431e-05
7.61826e-05
3.63433e-05
9.2532e-05
4.06223e-05
8.90872e-05
4.06195e-05
8.85951e-05
3.63477e-05
5.02191e-05
7.66818e-05
7.64506e-05
9.26251e-05
8.91474e-05
8.86902e-05
9.75794e-05
0.000115138
7.45205e-05
4.83303e-05
0.000113439
4.82996e-05
9.89046e-05
9.77102e-05
0.00011541
7.4671e-05
4.83125e-05
0.00011373
4.82837e-05
9.90198e-05
7.89728e-05
2.16203e-05
2.16153e-05
2.16025e-05
2.15982e-05
7.99776e-05
2.37046e-05
2.37026e-05
0.000133925
0.000134322
0.000122349
0.00012054
0.000139338
0.000132145
0.000131711
0.000134412
0.000122612
0.000134163
0.000120623
0.000139158
0.000131724
0.000131965
0.000116921
0.000133159
0.0001241
0.000116399
0.000118153
0.000111879
0.000129979
0.000114267
0.000129144
0.000114575
0.000110786
0.00010878
0.000109502
0.000126498
0.000133505
9.61111e-05
0.000111096
0.000132155
9.52478e-05
0.000110113
0.000124706
0.000129631
0.000108127
0.000121107
9.44605e-05
0.000128205
0.000109164
0.000122654
0.000118534
0.000134612
0.000126999
0.000126503
0.000129167
0.000116795
0.000128683
0.000124874
0.000116496
0.000127626
0.000113976
0.000127009
0.000113
0.000125662
0.000129642
0.000115557
0.000129573
0.000119902
0.000128451
0.000116819
0.000130675
0.000125116
0.00010999
9.57414e-05
0.000129566
9.48135e-05
0.000123443
0.000108851
0.000126749
0.000106562
0.000119568
9.39239e-05
0.00012525
0.0001212
0.000107703
0.000134652
0.000122669
0.000119424
0.000132271
0.000121236
0.000118073
0.000133142
0.000128804
0.000129132
0.000114972
0.000119649
0.000127527
0.000130263
0.000116244
0.000130653
9.55413e-05
0.000109339
0.000128953
9.45811e-05
0.000108229
0.000123158
0.000126013
0.00010594
0.000118924
9.36116e-05
0.000124349
0.000107082
0.000120737
0.000134341
0.000122443
0.000118887
0.00013159
0.000121001
0.000132793
0.000117529
0.000131458
9.57201e-05
0.000109626
0.000129794
9.48137e-05
0.000108614
0.00012371
0.000135478
0.000123009
0.000119382
0.000132634
0.000121688
0.000133919
0.000118119
0.00011692
0.000114735
0.000114694
0.000114554
0.000116742
0.000114637
2.35552e-05
7.12249e-05
0.000115363
8.75832e-05
4.98074e-05
8.75526e-05
4.98025e-05
0.000109835
0.000109719
2.35557e-05
2.35539e-05
0.000115503
7.12374e-05
7.12206e-05
2.3557e-05
2.35554e-05
2.35553e-05
2.35536e-05
0.000116045
7.13923e-05
7.13781e-05
7.12563e-05
7.12385e-05
4.9804e-05
8.75744e-05
0.000108368
0.000113079
8.7976e-05
0.000109875
8.79576e-05
0.000112909
0.000108356
0.000109792
8.76055e-05
4.98156e-05
4.98085e-05
8.77742e-05
8.75971e-05
8.77689e-05
0.000108483
0.000113949
8.83565e-05
0.000111275
8.80068e-05
0.000110586
0.000109136
0.000108473
0.000109125
0.000108313
0.000113043
8.79474e-05
0.000109879
8.75888e-05
4.98115e-05
4.98037e-05
8.7818e-05
0.000108435
0.000113899
8.83387e-05
0.000111185
8.79782e-05
0.000110535
0.000109155
8.75732e-05
4.98073e-05
4.98005e-05
8.77937e-05
0.000108436
0.000113775
0.000111166
8.82945e-05
0.000110536
8.79542e-05
0.000109135
2.35548e-05
2.35531e-05
0.000115868
7.13226e-05
7.13298e-05
7.12023e-05
7.1218e-05
2.35562e-05
2.35545e-05
0.000108516
0.000113851
8.83042e-05
0.000110688
8.79805e-05
8.7641e-05
4.98099e-05
4.98039e-05
2.35545e-05
9.24729e-05
7.11444e-05
0.000103518
4.76801e-05
4.7678e-05
9.26286e-05
0.000103242
7.72632e-05
2.14529e-05
2.14542e-05
2.14516e-05
2.14523e-05
7.7317e-05
9.24545e-05
4.76783e-05
3.6198e-05
8.74712e-05
4.04531e-05
8.46222e-05
4.04525e-05
8.45377e-05
3.61986e-05
2.008e-05
7.44039e-05
4.98044e-05
7.43625e-05
2.00807e-05
3.6197e-05
8.74267e-05
8.45984e-05
4.04519e-05
8.44971e-05
4.04511e-05
3.61979e-05
2.008e-05
7.43949e-05
4.97993e-05
7.43468e-05
2.00807e-05
2.35547e-05
2.35529e-05
7.73047e-05
2.1456e-05
2.14532e-05
2.14553e-05
2.14524e-05
7.73551e-05
9.24873e-05
4.76872e-05
7.11597e-05
0.000103549
4.76828e-05
9.26414e-05
0.000103298
9.24967e-05
4.76753e-05
7.11435e-05
0.000103523
4.76708e-05
9.26544e-05
0.000103273
2.3556e-05
2.35564e-05
2.35543e-05
2.35546e-05
7.73837e-05
2.14552e-05
2.14524e-05
7.73625e-05
2.14558e-05
2.1453e-05
9.28218e-05
0.000104163
7.13369e-05
4.76977e-05
4.76941e-05
0.000103969
9.29237e-05
9.28492e-05
0.000104147
7.132e-05
4.76867e-05
4.76827e-05
0.000103943
9.29582e-05
9.28013e-05
4.76887e-05
0.000103656
7.13225e-05
9.2675e-05
4.76927e-05
0.000103877
9.28239e-05
4.7677e-05
0.000103626
7.13058e-05
9.26907e-05
4.76811e-05
0.000103852
7.73803e-05
2.14554e-05
2.14526e-05
2.14549e-05
2.14521e-05
7.73889e-05
2.00787e-05
4.98012e-05
7.43887e-05
7.43516e-05
2.00794e-05
3.61956e-05
8.46031e-05
8.74648e-05
4.04528e-05
4.04522e-05
8.45234e-05
3.61961e-05
3.61986e-05
4.04528e-05
8.4643e-05
8.7683e-05
3.61981e-05
4.04533e-05
8.47046e-05
2.00793e-05
4.98125e-05
7.45027e-05
7.44602e-05
2.00801e-05
2.00803e-05
7.44118e-05
4.98114e-05
2.00796e-05
7.44509e-05
3.61982e-05
8.76992e-05
4.04537e-05
8.47855e-05
4.04531e-05
8.47227e-05
3.61989e-05
3.61962e-05
8.4623e-05
4.04525e-05
8.76744e-05
3.61956e-05
4.0453e-05
8.46835e-05
3.61959e-05
8.477e-05
8.76915e-05
4.04535e-05
4.04528e-05
8.47032e-05
3.61966e-05
3.61985e-05
8.46326e-05
4.04519e-05
8.76976e-05
3.61976e-05
8.47205e-05
4.04527e-05
2.00793e-05
4.98082e-05
7.4502e-05
7.44605e-05
2.00799e-05
2.00803e-05
7.44065e-05
4.98069e-05
2.00796e-05
7.44504e-05
3.61983e-05
8.77246e-05
8.48239e-05
4.04535e-05
8.47479e-05
4.04527e-05
3.61991e-05
3.61957e-05
4.04513e-05
8.46067e-05
8.76785e-05
3.6195e-05
4.0452e-05
8.46828e-05
2.00784e-05
4.98044e-05
7.44742e-05
7.44378e-05
2.00793e-05
2.00793e-05
7.43926e-05
4.98033e-05
2.00784e-05
7.44304e-05
3.61954e-05
8.77001e-05
4.04527e-05
8.47712e-05
4.0452e-05
8.47015e-05
3.61962e-05
2.35538e-05
2.35541e-05
7.72462e-05
2.14506e-05
2.14538e-05
7.72288e-05
2.14511e-05
2.14543e-05
9.26978e-05
0.000104026
7.1272e-05
4.7686e-05
0.000103842
4.7682e-05
9.27967e-05
9.26693e-05
0.000104039
7.12845e-05
4.76967e-05
4.76927e-05
0.000103852
9.27669e-05
9.26885e-05
4.76761e-05
0.000103552
7.12657e-05
0.000103758
9.25713e-05
4.76803e-05
9.26626e-05
4.76869e-05
0.000103565
7.12778e-05
9.25467e-05
4.76911e-05
0.000103777
7.72359e-05
2.14506e-05
2.14539e-05
2.14501e-05
2.14534e-05
7.72353e-05
2.35552e-05
2.35555e-05
3.61983e-05
8.46553e-05
4.04522e-05
8.77272e-05
3.61977e-05
8.47176e-05
4.04527e-05
2.0079e-05
4.98073e-05
7.44706e-05
7.44441e-05
2.008e-05
2.00801e-05
7.44156e-05
4.98064e-05
2.00793e-05
7.4446e-05
0.00010986
0.000116743
0.000114852
0.000114844
0.000114679
0.00011467
0.000110094
0.0001097
0.000116559
0.000114699
0.000114701
0.000114528
0.000114531
0.000109928
0.00010906
0.000115121
0.000113703
0.000113691
0.000113458
0.000109371
0.000113474
0.000109343
0.00012269
0.000122707
0.00014666
0.000109591
0.000122203
0.000122182
0.000122425
0.000122425
0.000146116
0.000145623
0.000109463
0.000122149
0.000122228
0.000122395
0.000122438
0.0001461
0.00014562
0.000109124
0.000115283
0.000113774
0.000113768
0.000109402
0.000113565
0.00011356
0.000109771
0.000116246
0.00011415
0.000114141
0.000109514
0.000114341
0.000114332
0.000113011
0.000108022
0.000106126
0.00011385
0.000105829
0.000113606
0.000113241
0.000111339
9.89435e-05
8.77844e-05
0.000108517
9.86713e-05
0.000108334
0.000111566
0.000111278
8.77599e-05
0.000108465
9.8928e-05
0.000108273
9.86567e-05
0.000111512
0.000112964
0.000106102
0.000108012
0.00011383
0.000105806
0.000113586
0.000113196
0.000113946
0.000106246
0.000114373
0.00010878
0.000113738
0.000106497
0.000114593
0.000112565
0.000109444
8.82006e-05
9.95117e-05
0.000109296
9.92846e-05
0.000112753
0.000112191
9.89961e-05
0.000108842
8.81775e-05
0.000109007
0.000111983
9.92405e-05
0.000114391
0.000108875
0.000106822
0.000115256
0.000106599
0.000115063
0.000114574
0.000113909
0.000106223
0.000114354
0.00010877
0.000113697
0.000106475
0.000114575
0.000114362
0.0001068
0.000108865
0.000115242
0.000106578
0.000115047
0.000114549
0.000112973
0.000107966
0.00010607
0.000113821
0.000105775
0.000113585
0.000113198
0.000111299
9.89006e-05
8.77561e-05
0.00010848
9.86368e-05
0.0001083
0.000111522
0.000113898
0.000106199
0.000114332
0.000108758
0.000113688
0.000106471
0.000114553
0.00011252
0.000109409
8.81776e-05
9.94829e-05
0.000109258
9.9257e-05
0.000112711
0.000112142
9.8961e-05
0.000108801
8.81536e-05
0.000108966
0.000111934
9.92057e-05
0.000114353
0.000108865
0.000106829
0.00011523
0.000106586
0.000115029
0.000114544
0.000113895
0.000114341
0.000106199
0.000108748
0.000113694
0.000114557
0.000106456
0.000112492
0.000109341
8.814e-05
9.94791e-05
9.92535e-05
0.000109196
0.000112678
0.000112126
9.89678e-05
0.000108757
8.8123e-05
0.000111923
9.92122e-05
0.000108917
0.000114332
0.000108854
0.00011522
0.000106795
0.000115024
0.000106563
0.000114515
0.000109626
0.000116067
0.000114014
0.000114018
0.000114199
0.000109379
0.000114203
0.000113948
0.000114416
0.00010626
0.000108818
0.000113748
0.000114631
0.000106509
0.000112521
0.000109359
8.816e-05
9.94854e-05
0.00010922
9.92769e-05
0.000112698
0.000112162
9.90074e-05
0.000108786
8.81454e-05
0.000111961
0.000108944
9.92463e-05
0.000145151
0.000115461
0.000115253
0.000117286
0.000109819
0.000117919
0.000117817
0.000119586
0.000111057
0.000121108
0.0001226
0.000122575
0.000114636
0.000124728
0.000126499
0.00012675
0.000117857
0.000128189
0.000120612
0.000128297
0.00010747
0.000127205
0.000124743
0.000127926
9.7906e-05
0.000127038
0.000135493
0.000126054
0.000127013
0.000124748
0.000137157
0.000119386
0.000117368
0.000119025
0.000115426
0.000115466
0.000117019
0.000117066
0.000117448
0.000119226
0.000115417
0.00011523
0.000116953
0.00011698
0.000115271
0.000117008
0.000117037
0.000117198
0.000119238
0.000115264
0.000116851
0.000116982
0.000119163
0.000119394
0.000121923
0.0001176
0.00011791
0.000119943
0.000120336
0.000119699
0.000122258
0.000117457
0.000117868
0.000119958
0.000121325
0.000117839
0.000120521
0.000120078
0.000119828
0.000123494
0.00011778
0.000121388
0.000120077
0.000122005
0.000122701
0.000126896
0.00012091
0.000120878
0.000124974
0.000123569
0.00012272
0.000124812
0.000121114
0.000122512
0.000125402
0.000126165
0.000120848
0.000123706
0.000124815
0.000124295
0.00012656
0.000120913
0.00012634
0.000125068
0.000125974
0.000127687
0.000129109
0.000126599
0.000124738
0.000130027
0.000127919
0.000125424
0.000127951
0.000126943
0.000126297
0.000129713
0.000122346
0.000126167
0.000127357
0.000128251
0.000126518
0.00012244
0.000126349
0.000122357
0.000128058
0.000128327
0.000128806
0.000122535
0.000129697
0.000128835
0.000123782
0.000128078
0.000128277
0.000127909
0.000129164
0.000120754
0.000123432
0.00012253
0.000128293
0.000128034
0.000127637
0.000121397
0.000122754
0.000127956
0.000121695
0.000127117
0.000127857
0.000120966
0.000117479
0.000120827
0.000126982
0.000115782
0.000125751
0.00012738
0.000125269
0.00012077
0.00012533
0.000116339
0.000132287
0.000128034
0.000127138
0.000128806
0.000124604
0.000132377
0.000127882
0.000133861
0.00012946
0.000127285
0.000119369
0.000137491
0.000119399
0.000125545
0.00013786
0.000123977
0.000125226
0.000123799
0.000119504
0.000133012
0.000137264
0.000135582
0.000126687
0.000123662
0.000119452
0.000133067
0.000135149
0.0001272
0.00013615
0.000119341
0.000118817
0.000141524
0.000158466
0.000144204
0.00012614
0.00015988
0.000124292
0.000144015
0.000138133
0.000160946
0.000119894
0.000136227
0.000119396
8.80704e-05
4.98168e-05
4.98241e-05
8.78006e-05
2.35555e-05
2.35571e-05
8.80586e-05
4.98129e-05
4.98211e-05
8.78417e-05
0.00011008
0.000145134
0.000109763
0.000109961
0.000109899
0.00010974
0.000109842
0.000109777
0.000113102
0.000111844
0.000115947
0.000114984
8.86229e-05
0.000112211
2.35545e-05
2.35563e-05
0.000109718
0.000111837
0.000113005
0.000115719
0.000112107
8.85515e-05
0.000109217
7.1378e-05
7.1374e-05
0.000118112
7.14732e-05
7.14647e-05
8.86117e-05
4.98355e-05
8.84016e-05
4.98449e-05
2.35596e-05
2.35623e-05
8.85853e-05
4.98329e-05
8.83441e-05
4.98423e-05
0.000110155
0.000109971
0.000110075
0.000110552
0.000111117
0.000111893
0.000110751
0.000111557
8.90558e-05
0.000113433
0.000118943
0.000110714
8.95439e-05
0.000114229
2.35594e-05
2.35617e-05
0.000111467
0.000113188
8.90062e-05
0.000118994
0.000110586
0.000114036
8.96101e-05
7.16805e-05
7.16751e-05
0.000120483
7.18453e-05
7.18572e-05
8.92105e-05
4.98588e-05
8.88528e-05
4.98693e-05
2.35634e-05
2.35655e-05
8.94099e-05
4.98553e-05
8.9024e-05
4.98625e-05
0.000111142
0.000112665
0.000110926
0.0001134
0.000112429
0.000115455
0.000113508
0.000113334
8.99492e-05
0.000116257
0.000121785
0.000112539
9.02403e-05
0.000116898
2.35614e-05
2.3561e-05
0.00011377
0.000116766
9.03353e-05
0.000123949
0.000112825
0.00011787
9.08741e-05
7.20417e-05
7.20707e-05
0.000123748
7.23554e-05
7.23621e-05
9.02255e-05
4.98744e-05
8.99268e-05
4.98741e-05
2.35661e-05
2.35663e-05
8.99787e-05
4.98632e-05
8.98608e-05
4.98632e-05
0.000113025
0.000115455
0.000114562
0.000118055
0.0001146
0.000110287
0.000116071
0.000115553
9.08993e-05
0.000120079
0.000125631
0.000114773
9.12576e-05
0.000121118
2.35532e-05
2.35488e-05
0.000115244
0.000121536
9.1167e-05
0.000125654
0.000114949
0.000121705
9.0784e-05
7.27328e-05
7.26855e-05
0.000127749
7.27965e-05
7.27227e-05
9.01858e-05
4.98689e-05
9.02967e-05
4.98664e-05
2.35647e-05
2.35659e-05
8.99407e-05
4.98644e-05
8.99078e-05
4.98659e-05
0.000115526
0.000107917
0.000115975
0.000111232
0.000114732
0.000104959
0.000113686
0.000116063
9.13506e-05
0.00012328
0.000128711
0.000115937
9.13941e-05
0.000123696
2.35545e-05
2.35723e-05
0.000115049
0.000119091
8.95153e-05
0.000119271
0.000114845
0.000118486
8.96628e-05
7.25904e-05
7.24964e-05
0.000128068
7.25665e-05
7.24682e-05
8.92867e-05
4.98773e-05
8.96493e-05
4.99211e-05
2.35695e-05
2.35838e-05
9.01998e-05
4.98816e-05
9.02037e-05
4.99189e-05
0.000113316
0.000107456
0.000113493
9.78205e-05
0.000111207
0.000116572
0.000114511
0.000116775
9.12018e-05
0.000123186
0.000126687
0.000116498
9.0966e-05
0.00012278
2.3595e-05
2.36055e-05
0.000117857
0.000120852
9.10931e-05
0.000128052
0.000116679
0.000123074
9.21119e-05
7.27346e-05
7.29104e-05
0.000128231
7.2825e-05
7.30334e-05
9.04633e-05
5.0025e-05
8.99029e-05
5.00862e-05
2.36053e-05
2.36169e-05
8.95768e-05
5.00054e-05
8.96337e-05
5.00773e-05
0.000110714
0.000118893
0.000112177
0.000118051
0.000106065
0.000123336
0.000101728
0.000116754
9.11118e-05
0.000124106
0.000126033
0.000117036
9.05273e-05
0.000123934
2.36135e-05
2.3628e-05
0.000116965
0.000129704
9.24467e-05
0.000136122
0.000118214
0.000129935
9.19811e-05
7.17619e-05
7.16684e-05
0.000122651
7.03362e-05
7.00011e-05
9.27366e-05
5.01645e-05
9.1464e-05
5.02014e-05
2.36494e-05
2.36774e-05
9.301e-05
5.01695e-05
9.13608e-05
5.02071e-05
0.000106543
0.000125073
0.000100247
0.000148916
0.000117673
9.01382e-05
0.00012054
0.00012855
0.000115798
9.21956e-05
0.000121786
2.36491e-05
2.36529e-05
0.000118506
0.000126396
9.27068e-05
0.000139221
0.000115783
0.000127012
9.4659e-05
7.06179e-05
7.04972e-05
0.00012571
7.25177e-05
7.26282e-05
2.35568e-05
2.35589e-05
2.3555e-05
2.35571e-05
7.14018e-05
7.13879e-05
0.000118058
7.14982e-05
7.14872e-05
2.35618e-05
2.35588e-05
2.35596e-05
2.3557e-05
0.000118421
7.16403e-05
7.16177e-05
7.15055e-05
7.14935e-05
8.80731e-05
4.9812e-05
4.98194e-05
8.77968e-05
0.000109878
8.83748e-05
0.000111888
0.000116015
8.86807e-05
0.00011237
0.000115674
0.000109867
0.000109689
0.000111868
0.000115993
8.8652e-05
0.000112329
0.000114951
8.81135e-05
4.98339e-05
4.98254e-05
8.83742e-05
8.81163e-05
4.98293e-05
4.98207e-05
8.83712e-05
0.000109995
0.000116522
8.90101e-05
0.000113025
8.86936e-05
0.000112714
0.000110712
0.000109983
0.000116455
8.89976e-05
0.000113006
8.86642e-05
0.000112656
0.000110696
7.13818e-05
7.13791e-05
0.000118154
7.14803e-05
7.14783e-05
2.35561e-05
2.35581e-05
2.35596e-05
2.35569e-05
0.000118527
7.16611e-05
7.16641e-05
7.14867e-05
7.14887e-05
2.3561e-05
2.3558e-05
0.000109865
8.83574e-05
0.000111808
0.00011603
8.86616e-05
0.000112353
0.000109249
8.80335e-05
4.98085e-05
4.9816e-05
8.78121e-05
0.000109836
0.000111735
8.83029e-05
0.000115802
0.000112229
8.85773e-05
0.000109229
8.8089e-05
4.98313e-05
4.98225e-05
8.8316e-05
0.000109958
0.00011652
8.89753e-05
0.000113006
8.86722e-05
0.00011275
0.000110592
8.80581e-05
4.9827e-05
4.98174e-05
8.82996e-05
0.000109931
0.000116337
0.000112999
8.89538e-05
0.000112645
8.85835e-05
0.000110566
8.79765e-05
4.98118e-05
8.78269e-05
4.98207e-05
0.000109779
0.000111791
0.000109717
0.000115878
0.000115001
0.000112186
8.86174e-05
8.79739e-05
4.98097e-05
8.78302e-05
4.98175e-05
0.000109869
0.000116382
8.90097e-05
0.0001128
8.86348e-05
0.000112445
0.000110566
8.80138e-05
4.9833e-05
4.98225e-05
8.83279e-05
0.000109869
0.000116406
0.000112824
8.89821e-05
0.000112451
8.86249e-05
0.00011055
8.801e-05
4.98298e-05
4.98192e-05
8.8316e-05
7.13214e-05
7.13283e-05
0.000117946
7.1402e-05
7.14027e-05
2.35559e-05
2.35581e-05
2.35594e-05
2.35563e-05
0.000118373
7.16448e-05
7.16581e-05
7.14116e-05
7.14135e-05
2.35614e-05
2.35581e-05
0.00010973
0.000111837
0.000109687
0.000115829
0.000112127
8.86004e-05
0.000114951
8.79683e-05
4.9811e-05
4.9819e-05
8.77989e-05
8.79812e-05
4.98082e-05
4.98172e-05
8.78163e-05
0.000109798
0.000116186
0.000112597
8.89407e-05
0.000112291
8.85544e-05
0.000110462
0.000109814
0.000116347
0.00011267
8.89618e-05
0.000112329
8.86079e-05
0.000110482
8.79906e-05
4.98316e-05
4.98207e-05
8.82549e-05
8.80127e-05
4.98307e-05
4.98191e-05
8.82725e-05
2.35554e-05
2.35575e-05
2.35544e-05
2.35565e-05
0.000118501
7.16591e-05
7.16509e-05
7.14842e-05
7.14747e-05
2.35606e-05
2.35575e-05
2.35593e-05
2.35564e-05
2.35617e-05
2.35642e-05
2.35595e-05
2.3562e-05
7.16457e-05
7.16249e-05
0.000120183
7.17506e-05
7.1749e-05
2.35678e-05
2.35645e-05
2.35649e-05
2.3562e-05
0.000120718
7.2005e-05
7.20446e-05
7.17577e-05
7.17653e-05
8.86046e-05
4.98311e-05
8.83973e-05
4.98419e-05
0.000111442
8.90253e-05
0.000113462
0.000118298
0.000110811
8.93615e-05
0.00011406
0.000111434
8.90321e-05
0.000113518
0.000118851
0.000110797
8.94885e-05
0.000114179
8.86373e-05
4.98569e-05
4.98467e-05
8.8824e-05
8.86318e-05
4.98528e-05
4.98435e-05
8.88273e-05
0.000111539
0.000119085
8.97379e-05
0.000115316
8.9377e-05
0.000114723
0.000112201
0.000111536
0.000119686
8.98483e-05
0.000115411
8.95298e-05
0.000114853
0.000112216
7.17096e-05
7.17083e-05
0.000120712
7.19357e-05
7.19688e-05
2.35611e-05
2.35638e-05
2.35638e-05
2.3562e-05
0.0001213
7.20458e-05
7.21023e-05
7.19555e-05
7.19976e-05
2.35651e-05
2.35636e-05
0.00011139
8.89917e-05
0.000113279
0.000118119
0.000110695
8.93428e-05
0.000113744
8.86081e-05
4.98289e-05
8.83276e-05
4.98389e-05
0.000111402
0.000113408
8.90054e-05
0.000118979
0.000110674
0.000114002
8.95724e-05
8.86284e-05
4.98537e-05
4.98439e-05
8.89641e-05
0.000111524
0.000118958
8.98153e-05
0.000115261
8.93705e-05
0.000114427
0.00011241
8.86575e-05
4.9848e-05
4.98403e-05
8.90312e-05
0.00011155
0.000120169
0.000115758
9.01818e-05
0.000114821
8.96506e-05
0.00011248
8.86645e-05
4.98348e-05
8.83785e-05
4.98442e-05
0.000111529
0.000113428
8.90168e-05
0.000118681
0.000110695
0.000114142
8.94372e-05
8.86534e-05
4.98318e-05
8.83656e-05
4.9843e-05
0.000111693
0.000119833
8.99371e-05
0.00011567
8.9589e-05
0.000114997
0.000112415
8.86941e-05
4.98539e-05
4.98456e-05
8.89039e-05
0.000111666
0.000119415
0.000115469
8.98269e-05
0.000114829
8.94646e-05
0.000112409
8.86857e-05
4.98558e-05
4.98449e-05
8.89132e-05
7.16966e-05
7.17159e-05
0.000121156
7.20284e-05
7.20489e-05
2.35615e-05
2.35637e-05
2.35621e-05
2.35612e-05
0.00012198
7.23839e-05
7.24057e-05
7.2088e-05
7.21111e-05
2.35643e-05
2.35633e-05
0.000111463
0.000113263
8.89995e-05
0.000118623
0.000110608
0.000113997
8.94519e-05
8.86415e-05
4.98336e-05
8.82911e-05
4.98436e-05
8.86337e-05
4.98327e-05
8.83122e-05
4.98432e-05
0.000111641
0.000120214
0.000115855
9.02269e-05
0.000114964
8.9694e-05
0.000112649
0.000111631
0.000119375
0.000115418
8.98984e-05
0.000114718
8.94917e-05
0.000112602
8.87012e-05
4.98519e-05
4.98448e-05
8.90826e-05
8.86909e-05
4.98531e-05
4.98447e-05
8.90433e-05
2.35607e-05
2.35634e-05
2.35594e-05
2.3562e-05
0.000121018
7.2004e-05
7.20333e-05
7.18532e-05
7.18706e-05
2.35661e-05
2.35633e-05
2.35644e-05
2.35619e-05
2.35679e-05
2.35701e-05
2.35649e-05
2.35667e-05
7.20729e-05
7.21195e-05
0.000124323
7.24749e-05
7.25207e-05
2.35689e-05
2.35695e-05
2.35648e-05
2.3566e-05
0.000125273
7.29166e-05
7.28904e-05
7.25822e-05
7.2619e-05
8.92142e-05
4.98545e-05
8.88583e-05
4.98652e-05
0.000113138
8.97908e-05
0.000115838
0.000122059
0.000112314
9.04264e-05
0.000116456
0.000113143
8.98547e-05
0.000115839
0.000121526
0.00011233
9.01746e-05
0.00011634
8.93078e-05
4.98747e-05
4.98705e-05
8.98528e-05
8.9308e-05
4.98745e-05
4.98671e-05
8.98299e-05
0.000113353
0.000123431
9.12594e-05
0.000118663
9.05841e-05
0.00011737
0.000114631
0.000113352
0.000122437
9.08667e-05
0.000118392
9.02628e-05
0.000117171
0.000114609
7.2048e-05
7.21041e-05
0.000123429
7.22231e-05
7.22207e-05
2.35647e-05
2.35666e-05
2.35668e-05
2.35653e-05
0.000123866
7.25191e-05
7.25088e-05
7.22722e-05
7.22633e-05
2.35681e-05
2.35664e-05
0.00011361
8.98991e-05
0.000116194
0.000122423
0.000112588
9.0559e-05
0.0001172
8.94685e-05
4.9849e-05
8.90947e-05
4.98531e-05
0.000113692
0.000116729
9.02944e-05
0.000123834
0.000112668
0.000117763
9.08477e-05
8.94755e-05
4.98638e-05
4.98628e-05
8.98202e-05
0.000113804
0.000123869
9.12872e-05
0.000119572
9.07081e-05
0.000118308
0.000114791
8.95246e-05
4.98518e-05
4.98529e-05
8.97915e-05
0.000113883
0.000125185
0.000120102
9.11543e-05
0.000118914
9.09534e-05
0.0001148
8.92916e-05
4.98553e-05
8.8942e-05
4.98637e-05
0.000113372
0.000116101
8.98636e-05
0.000121917
0.000112541
0.000116876
9.03743e-05
8.93145e-05
4.98576e-05
8.89549e-05
4.98675e-05
0.000113517
0.000122667
9.08159e-05
0.000118905
9.02888e-05
0.000117778
0.000114568
8.93705e-05
4.98724e-05
4.98652e-05
8.98145e-05
0.000113561
0.000123307
0.000119291
9.10628e-05
0.000117957
9.04886e-05
0.000114621
8.93928e-05
4.98732e-05
4.98687e-05
8.98228e-05
7.24633e-05
7.24834e-05
0.000125497
7.27797e-05
7.27898e-05
2.35636e-05
2.35635e-05
2.35562e-05
2.35596e-05
0.00012605
7.29092e-05
7.29274e-05
7.28286e-05
7.28391e-05
2.35593e-05
2.35623e-05
0.000113698
0.000116182
8.99408e-05
0.000122075
0.000112774
0.000117171
9.0434e-05
8.94909e-05
4.98528e-05
8.91387e-05
4.98569e-05
8.94384e-05
4.98544e-05
8.90963e-05
4.98621e-05
0.000113953
0.000125332
0.000120614
9.11841e-05
0.00011924
9.09805e-05
0.000114821
0.000113877
0.000123542
0.000119969
9.10471e-05
0.000118491
9.05369e-05
0.000114784
8.95507e-05
4.9856e-05
4.98567e-05
8.9825e-05
8.94994e-05
4.98662e-05
4.9863e-05
8.98139e-05
2.35663e-05
2.3569e-05
2.35645e-05
2.35671e-05
0.000124493
7.26947e-05
7.26564e-05
7.24302e-05
7.24284e-05
2.35696e-05
2.35688e-05
2.35677e-05
2.35669e-05
2.35672e-05
2.35643e-05
2.3563e-05
2.35605e-05
7.29725e-05
7.29262e-05
0.000128645
7.31191e-05
7.30134e-05
2.35596e-05
2.35622e-05
2.35575e-05
2.35588e-05
0.000128997
7.30561e-05
7.29241e-05
7.31205e-05
7.29834e-05
9.01771e-05
4.98746e-05
8.9898e-05
4.98748e-05
0.000115903
9.13829e-05
0.000120264
0.000128095
0.000114888
9.17196e-05
0.000121968
0.000115859
9.09804e-05
0.000119824
0.000125826
0.000114864
9.13883e-05
0.000121255
9.02463e-05
4.98708e-05
4.9873e-05
9.03112e-05
9.01976e-05
4.98715e-05
4.98736e-05
9.02627e-05
0.00011605
0.000129338
9.17733e-05
0.000124623
9.17386e-05
0.000123511
0.000116535
0.000116002
0.000126875
9.15326e-05
0.000123734
9.14206e-05
0.000122577
0.000116474
7.25675e-05
7.25513e-05
0.000126557
7.27094e-05
7.26644e-05
2.35676e-05
2.35679e-05
2.35654e-05
2.35654e-05
0.00012715
7.27372e-05
7.26644e-05
7.27184e-05
7.26649e-05
2.35672e-05
2.35671e-05
0.00011556
9.13716e-05
0.000120952
0.000128318
0.000114954
9.15609e-05
0.000122249
8.98367e-05
4.98495e-05
8.9809e-05
4.98449e-05
0.000115386
0.000121025
9.11369e-05
0.000125471
0.000114937
0.000121387
9.07777e-05
8.99658e-05
4.98644e-05
4.98628e-05
8.9929e-05
0.000115606
0.000129328
9.15362e-05
0.000123707
9.15552e-05
0.00012322
0.000115725
8.98039e-05
4.98523e-05
4.98438e-05
8.9723e-05
0.000115396
0.000124004
0.000120511
8.98045e-05
0.00012113
9.04647e-05
0.000115365
9.00697e-05
4.9873e-05
8.98727e-05
4.98763e-05
0.000115572
0.000120641
9.11562e-05
0.000127194
0.000114824
0.000121797
9.14104e-05
9.00465e-05
4.98731e-05
8.9876e-05
4.9873e-05
0.000115638
0.000126479
9.13758e-05
0.000122708
9.12729e-05
0.000121991
0.000115927
9.00649e-05
4.98793e-05
4.98766e-05
9.00703e-05
0.000115648
0.000127877
0.000123189
9.13312e-05
0.000122661
9.13911e-05
0.000115882
9.00375e-05
4.98701e-05
4.98718e-05
9.00278e-05
7.27734e-05
7.28041e-05
0.000125685
7.2116e-05
7.21298e-05
2.35563e-05
2.35516e-05
2.35522e-05
2.35474e-05
0.000124848
7.1145e-05
7.11048e-05
7.18047e-05
7.18075e-05
2.35533e-05
2.35499e-05
0.000115314
0.000121248
9.1124e-05
0.00012727
0.000114929
0.000122087
9.1285e-05
8.98107e-05
4.98541e-05
8.98286e-05
4.985e-05
8.9823e-05
4.9866e-05
8.98293e-05
4.98659e-05
0.000115199
0.000124122
0.000120113
8.97113e-05
0.000121133
9.04453e-05
0.000114918
0.000115295
0.000127836
0.000122451
9.11208e-05
0.000122457
9.12427e-05
0.000115119
8.97431e-05
4.98587e-05
4.9849e-05
8.95846e-05
8.97766e-05
4.98667e-05
4.98651e-05
8.96451e-05
2.35686e-05
2.35675e-05
2.35669e-05
2.35661e-05
0.000128089
7.26406e-05
7.25458e-05
7.27762e-05
7.2694e-05
2.35648e-05
2.3566e-05
2.35643e-05
2.35649e-05
2.35579e-05
2.35558e-05
2.35564e-05
2.35558e-05
7.29371e-05
7.2835e-05
0.000127309
7.24774e-05
7.2513e-05
2.35574e-05
2.35544e-05
2.35574e-05
2.35548e-05
0.00012621
7.08569e-05
7.11299e-05
7.2128e-05
7.22298e-05
9.01781e-05
4.98704e-05
9.02488e-05
4.987e-05
0.000116408
9.16794e-05
0.000125173
0.000128403
0.000116545
9.13322e-05
0.00012506
0.000116396