/*--------------------------------*- C++ -*----------------------------------*\
| =========                 |                                                 |
| \\      /  F ield         | OpenFOAM: The Open Source CFD Toolbox           |
|  \\    /   O peration     | Version:  v2012                                 |
|   \\  /    A nd           | Website:  www.openfoam.com                      |
|    \\/     M anipulation  |                                                 |
\*---------------------------------------------------------------------------*/
FoamFile
{
    version     2.0;
    format      ascii;
    class       volScalarField;
    location    "1150";
    object      epsilon;
}
// * * * * * * * * * * * * * * * * * * * * * * * * * * * * * * * * * * * * * //

dimensions      [0 2 -3 0 0 0 0];


internalField   nonuniform List<scalar> 
171728
(
1.34032e-09
3.40073e-09
4.93579e-09
4.99197e-09
1.31161e-09
3.15588e-09
4.43565e-09
4.48923e-09
1.25281e-09
2.89841e-09
4.09732e-09
4.07052e-09
1.19872e-09
2.67022e-09
3.83752e-09
3.77987e-09
1.14757e-09
2.47034e-09
3.64995e-09
3.53059e-09
1.09964e-09
2.30257e-09
3.49528e-09
3.29667e-09
1.05468e-09
2.17352e-09
3.41904e-09
3.09565e-09
1.01321e-09
2.08227e-09
3.39956e-09
2.91979e-09
9.74752e-10
2.02291e-09
3.42341e-09
2.80835e-09
9.38517e-10
1.99619e-09
3.5222e-09
2.71649e-09
9.05308e-10
2.00137e-09
3.71671e-09
2.60952e-09
8.75391e-10
2.03956e-09
4.04584e-09
2.56015e-09
8.45804e-10
2.11849e-09
4.29601e-09
2.52961e-09
8.17696e-10
2.24841e-09
4.46819e-09
2.54183e-09
7.91365e-10
2.45365e-09
4.70498e-09
2.66347e-09
7.67329e-10
2.76403e-09
5.06027e-09
2.90339e-09
7.48042e-10
3.24527e-09
5.43949e-09
3.32878e-09
7.27169e-10
3.99623e-09
5.57729e-09
4.19642e-09
7.15777e-10
5.12664e-09
6.28058e-09
5.55172e-09
7.08277e-10
6.75945e-09
7.28241e-09
8.25589e-09
7.06457e-10
9.28378e-09
9.60917e-09
1.17139e-08
7.15863e-10
1.27281e-08
1.31931e-08
1.91715e-08
7.46443e-10
1.77627e-08
1.74978e-08
2.74305e-08
7.92994e-10
2.42573e-08
2.46858e-08
4.89161e-08
8.81382e-10
3.38205e-08
3.29219e-08
7.48285e-08
9.98565e-10
4.41178e-08
4.44652e-08
1.09048e-07
1.16687e-09
5.92093e-08
5.84739e-08
1.61414e-07
1.42737e-09
7.50187e-08
7.54603e-08
2.14726e-07
1.80988e-09
9.707e-08
9.64778e-08
2.93644e-07
2.32338e-09
1.16636e-07
1.15923e-07
3.63928e-07
3.15832e-09
1.45577e-07
1.47124e-07
4.40809e-07
3.99324e-09
1.73258e-07
1.67263e-07
5.18621e-07
5.1395e-09
2.06895e-07
2.07863e-07
5.89257e-07
7.18257e-09
2.41048e-07
2.39815e-07
6.4393e-07
9.05455e-09
2.79565e-07
2.80859e-07
7.16556e-07
1.2389e-08
3.23792e-07
3.17017e-07
7.52475e-07
1.48089e-08
3.66236e-07
3.61395e-07
7.93043e-07
2.13087e-08
4.00191e-07
4.19686e-07
8.54345e-07
2.55145e-08
4.68235e-07
4.45763e-07
8.76952e-07
3.22936e-08
5.02628e-07
5.04435e-07
9.13491e-07
4.16755e-08
5.4697e-07
5.55038e-07
9.48277e-07
5.10047e-08
6.04684e-07
5.97266e-07
9.76123e-07
6.23045e-08
6.4876e-07
6.494e-07
1.00551e-06
7.50928e-08
6.9291e-07
6.96884e-07
1.03709e-06
9.27205e-08
7.50897e-07
7.40428e-07
1.06609e-06
1.05623e-07
7.74828e-07
7.83186e-07
1.08562e-06
1.32494e-07
8.32226e-07
8.33393e-07
1.12236e-06
1.46952e-07
8.75129e-07
8.63522e-07
1.1472e-06
1.72361e-07
9.02623e-07
9.05474e-07
1.1683e-06
2.02396e-07
9.27595e-07
9.4088e-07
1.18019e-06
2.24438e-07
9.75579e-07
9.60265e-07
1.22674e-06
2.60602e-07
1.01052e-06
1.01473e-06
1.25383e-06
2.9538e-07
1.01809e-06
1.02993e-06
1.2468e-06
3.09596e-07
1.05011e-06
1.03849e-06
1.26527e-06
3.44585e-07
1.08886e-06
1.0888e-06
1.31618e-06
3.95186e-07
1.09436e-06
1.10665e-06
1.32306e-06
4.1222e-07
1.1121e-06
1.10818e-06
1.32655e-06
4.28536e-07
1.1445e-06
1.13925e-06
1.35157e-06
4.84428e-07
1.15336e-06
1.16386e-06
1.36262e-06
5.10902e-07
1.16315e-06
1.16855e-06
1.35711e-06
5.18408e-07
1.19028e-06
1.18173e-06
1.39371e-06
5.48324e-07
1.21197e-06
1.21332e-06
1.42733e-06
5.83045e-07
1.22678e-06
1.22444e-06
1.42471e-06
5.98397e-07
1.22513e-06
1.22397e-06
1.41984e-06
6.11661e-07
1.22645e-06
1.23532e-06
1.42262e-06
6.45082e-07
1.25718e-06
1.2656e-06
1.45183e-06
6.68355e-07
1.27742e-06
1.26899e-06
1.48299e-06
6.76529e-07
1.27803e-06
1.26129e-06
1.47112e-06
6.83153e-07
1.27128e-06
1.28499e-06
1.45309e-06
7.10902e-07
1.28223e-06
1.30531e-06
1.49062e-06
7.2995e-07
1.30632e-06
1.29209e-06
1.51543e-06
7.32618e-07
1.3044e-06
1.27655e-06
1.48172e-06
7.36095e-07
1.29031e-06
1.29046e-06
1.46785e-06
7.59623e-07
1.31487e-06
1.34278e-06
1.55035e-06
7.88011e-07
1.34062e-06
1.3386e-06
1.55463e-06
7.79076e-07
1.30238e-06
1.28251e-06
1.46379e-06
7.63618e-07
1.29044e-06
1.28433e-06
1.48145e-06
7.85181e-07
1.3277e-06
1.34596e-06
1.55935e-06
8.15638e-07
1.33375e-06
1.34714e-06
1.55096e-06
8.10884e-07
1.32291e-06
1.31106e-06
1.52402e-06
8.06258e-07
1.32567e-06
1.3123e-06
1.5309e-06
8.09496e-07
1.32651e-06
1.32594e-06
1.52594e-06
8.02067e-07
1.29775e-06
1.30403e-06
1.48432e-06
7.96783e-07
1.294e-06
1.29105e-06
1.49772e-06
8.19403e-07
1.33884e-06
1.33184e-06
1.57469e-06
8.31497e-07
1.33965e-06
1.34398e-06
1.57465e-06
8.11234e-07
1.28977e-06
1.29905e-06
1.49943e-06
7.93034e-07
1.28266e-06
1.28041e-06
1.48785e-06
7.96872e-07
1.30609e-06
1.29401e-06
1.52026e-06
8.07376e-07
1.29904e-06
1.29645e-06
1.51197e-06
8.04007e-07
1.2819e-06
1.28742e-06
1.50036e-06
7.9702e-07
1.2835e-06
1.29158e-06
1.52493e-06
7.88651e-07
1.27919e-06
1.28788e-06
1.52169e-06
7.75359e-07
1.25688e-06
1.24884e-06
1.46633e-06
7.57379e-07
1.19963e-06
1.18421e-06
1.42496e-06
5.29047e-09
3.94865e-09
3.91674e-09
4.9253e-09
4.06685e-09
3.94483e-09
1.31613e-09
1.33318e-09
1.52995e-09
1.54805e-09
3.70758e-09
3.71224e-09
5.22487e-09
4.2499e-09
3.85419e-09
5.02187e-09
5.26984e-09
4.77864e-09
3.25583e-09
3.68822e-09
3.06432e-09
3.53627e-09
4.90407e-09
4.44041e-09
4.71154e-09
4.01238e-09
4.44389e-09
3.85179e-09
4.37841e-09
3.22402e-09
4.18745e-09
5.20247e-09
4.71386e-09
5.00624e-09
4.54874e-09
4.96041e-09
4.54098e-09
4.74861e-09
4.30836e-09
2.99131e-09
3.47082e-09
2.79076e-09
3.28549e-09
4.41289e-09
3.98749e-09
4.34228e-09
3.78488e-09
4.05716e-09
3.56656e-09
4.11578e-09
2.96034e-09
3.92774e-09
4.68045e-09
4.2397e-09
4.9514e-09
4.17107e-09
4.95214e-09
4.13035e-09
4.28366e-09
3.91487e-09
2.72919e-09
3.22743e-09
2.55851e-09
3.06049e-09
3.96568e-09
3.61623e-09
3.9687e-09
3.50434e-09
3.7223e-09
3.32068e-09
3.87265e-09
2.72433e-09
3.72333e-09
4.21215e-09
3.8483e-09
4.96514e-09
3.89566e-09
5.03093e-09
3.82626e-09
3.8943e-09
3.57744e-09
2.50659e-09
3.00649e-09
2.36132e-09
2.85278e-09
3.59901e-09
3.30157e-09
3.64576e-09
3.26057e-09
3.43123e-09
3.09179e-09
3.67982e-09
2.51773e-09
3.56707e-09
3.82406e-09
3.51769e-09
5.04362e-09
3.69618e-09
5.05089e-09
3.57633e-09
3.5598e-09
3.27957e-09
2.31744e-09
2.80608e-09
2.19782e-09
2.67846e-09
3.28691e-09
3.02741e-09
3.36466e-09
3.03994e-09
3.1832e-09
2.8982e-09
3.53388e-09
2.34156e-09
3.44775e-09
3.49734e-09
3.24758e-09
5.03985e-09
3.52653e-09
4.92768e-09
3.33802e-09
3.26544e-09
3.01354e-09
2.16213e-09
2.64007e-09
2.06928e-09
2.53602e-09
3.01544e-09
2.78973e-09
3.12804e-09
2.85504e-09
2.97982e-09
2.73679e-09
3.42284e-09
2.20246e-09
3.37175e-09
3.23132e-09
3.03243e-09
4.86049e-09
3.43324e-09
4.58772e-09
3.11704e-09
3.00314e-09
2.78841e-09
2.04286e-09
2.50495e-09
1.97819e-09
2.42422e-09
2.78116e-09
2.59686e-09
2.93463e-09
2.70084e-09
2.81854e-09
2.60517e-09
3.36178e-09
2.10145e-09
3.3248e-09
3.02131e-09
2.87021e-09
4.48363e-09
3.3992e-09
4.2026e-09
2.93252e-09
2.78156e-09
2.60671e-09
1.96169e-09
2.40134e-09
1.92046e-09
2.34262e-09
2.59178e-09
2.44421e-09
2.7856e-09
2.57725e-09
2.70205e-09
2.50759e-09
3.30326e-09
2.03436e-09
3.18716e-09
2.86339e-09
2.75142e-09
4.12261e-09
3.41102e-09
3.91258e-09
2.81441e-09
2.60405e-09
2.46876e-09
1.91114e-09
2.32591e-09
1.88922e-09
2.28874e-09
2.44281e-09
2.33059e-09
2.67905e-09
2.48822e-09
2.62654e-09
2.44626e-09
3.13309e-09
2.00053e-09
2.97348e-09
2.74872e-09
2.67992e-09
3.88921e-09
3.49356e-09
3.87312e-09
2.72111e-09
2.46998e-09
2.37229e-09
1.88541e-09
2.27993e-09
1.88575e-09
2.26581e-09
2.33242e-09
2.25244e-09
2.61346e-09
2.43661e-09
2.59316e-09
2.42624e-09
2.91915e-09
1.99751e-09
2.77724e-09
2.6825e-09
2.6564e-09
3.87073e-09
3.6494e-09
3.95531e-09
2.61413e-09
2.37724e-09
2.31557e-09
1.88909e-09
2.26641e-09
1.91429e-09
2.28076e-09
2.25773e-09
2.20919e-09
2.5929e-09
2.42732e-09
2.6064e-09
2.44427e-09
2.74653e-09
2.02969e-09
2.64901e-09
2.66612e-09
2.677e-09
4.01026e-09
3.96676e-09
4.04302e-09
2.55234e-09
2.32696e-09
2.29977e-09
1.92559e-09
2.29076e-09
1.97717e-09
2.33613e-09
2.22085e-09
2.20268e-09
2.61937e-09
2.45606e-09
2.66905e-09
2.50219e-09
2.62308e-09
2.09947e-09
2.56668e-09
2.69252e-09
2.69525e-09
4.00424e-09
4.24453e-09
3.79373e-09
2.51885e-09
2.31963e-09
2.33086e-09
2.00096e-09
2.35589e-09
2.09112e-09
2.43756e-09
2.22312e-09
2.24086e-09
2.69258e-09
2.52482e-09
2.77718e-09
2.61985e-09
2.56358e-09
2.21533e-09
2.58058e-09
2.71401e-09
2.77353e-09
3.72131e-09
4.42385e-09
3.59073e-09
2.51246e-09
2.36309e-09
2.42661e-09
2.13001e-09
2.47245e-09
2.27374e-09
2.61019e-09
2.27358e-09
2.34261e-09
2.81304e-09
2.65831e-09
2.94674e-09
2.81572e-09
2.59958e-09
2.39822e-09
2.70366e-09
2.81819e-09
2.96729e-09
3.58687e-09
4.64026e-09
3.6207e-09
2.61082e-09
2.47986e-09
2.62388e-09
2.33383e-09
2.67002e-09
2.563e-09
2.87718e-09
2.39691e-09
2.53682e-09
3.00583e-09
2.87829e-09
3.22916e-09
3.10783e-09
2.75317e-09
2.6773e-09
2.94958e-09
3.03484e-09
3.21605e-09
3.6691e-09
4.9621e-09
3.87103e-09
2.81157e-09
2.71649e-09
2.96111e-09
2.64955e-09
2.9694e-09
2.98274e-09
3.30582e-09
2.62729e-09
2.89783e-09
3.32132e-09
3.20479e-09
3.64098e-09
3.5262e-09
3.03289e-09
3.11025e-09
3.36918e-09
3.30039e-09
3.50735e-09
3.97626e-09
5.34429e-09
4.34504e-09
3.17652e-09
3.11287e-09
3.66836e-09
3.13281e-09
3.43978e-09
3.68792e-09
3.96065e-09
3.04958e-09
3.52709e-09
3.79937e-09
3.66997e-09
4.3689e-09
4.14673e-09
3.50656e-09
3.78068e-09
4.04561e-09
3.62658e-09
3.85069e-09
4.52108e-09
5.53715e-09
5.26889e-09
3.90737e-09
3.90996e-09
4.60326e-09
3.89626e-09
4.18719e-09
4.57416e-09
5.00663e-09
3.78835e-09
4.67769e-09
4.54876e-09
4.36366e-09
5.33193e-09
5.17503e-09
4.28153e-09
4.81633e-09
5.02959e-09
4.05965e-09
4.96029e-09
5.47094e-09
6.05313e-09
6.73263e-09
5.12216e-09
5.02809e-09
6.70909e-09
4.91912e-09
5.33263e-09
6.1499e-09
6.47417e-09
5.08885e-09
6.54527e-09
5.67075e-09
5.52906e-09
6.80712e-09
6.66218e-09
5.33586e-09
6.26034e-09
6.68309e-09
5.42271e-09
6.72253e-09
7.15251e-09
7.04384e-09
8.64821e-09
7.4272e-09
7.35015e-09
1.01063e-08
6.56985e-09
6.97855e-09
8.40659e-09
8.83785e-09
7.25833e-09
1.02214e-08
7.25114e-09
6.99369e-09
9.20989e-09
9.06238e-09
7.21906e-09
8.60221e-09
8.77696e-09
7.18935e-09
1.00349e-08
9.44116e-09
8.80609e-09
1.12089e-08
1.07163e-08
1.14255e-08
1.56463e-08
9.15057e-09
9.53728e-09
1.15339e-08
1.19952e-08
1.14061e-08
1.57478e-08
9.96763e-09
9.90416e-09
1.20922e-08
1.2184e-08
9.52888e-09
1.17357e-08
1.25617e-08
1.16245e-08
1.61426e-08
1.1978e-08
1.21707e-08
1.46559e-08
1.73451e-08
1.72297e-08
2.60062e-08
1.25329e-08
1.29811e-08
1.6039e-08
1.66728e-08
1.75398e-08
2.61344e-08
1.30508e-08
1.32403e-08
1.71725e-08
1.63733e-08
1.35641e-08
1.6333e-08
1.6934e-08
1.77069e-08
2.49455e-08
1.5399e-08
1.62757e-08
1.76394e-08
2.46976e-08
2.91154e-08
4.26889e-08
1.75899e-08
1.8125e-08
2.24186e-08
2.27623e-08
2.91442e-08
4.20816e-08
1.87443e-08
1.76579e-08
2.3907e-08
2.35553e-08
1.86996e-08
2.24009e-08
2.4576e-08
2.75631e-08
4.23051e-08
1.89413e-08
2.28189e-08
2.41146e-08
4.44543e-08
4.65014e-08
6.58283e-08
2.39377e-08
2.4594e-08
3.1089e-08
3.16183e-08
4.62792e-08
6.81932e-08
2.56699e-08
2.52673e-08
3.29557e-08
3.15438e-08
2.66342e-08
3.11916e-08
3.46649e-08
4.74042e-08
6.57852e-08
2.59273e-08
3.05519e-08
3.21929e-08
6.80321e-08
7.2992e-08
1.01531e-07
3.38292e-08
3.42903e-08
4.09447e-08
4.17823e-08
7.51542e-08
1.01357e-07
3.59939e-08
3.44692e-08
4.2912e-08
4.26319e-08
3.70154e-08
4.13591e-08
4.56704e-08
7.16184e-08
1.02102e-07
3.38699e-08
4.15085e-08
4.05824e-08
1.00745e-07
1.08866e-07
1.50753e-07
4.43896e-08
4.45545e-08
5.56646e-08
5.56327e-08
1.08253e-07
1.46508e-07
4.60055e-08
4.60484e-08
5.89781e-08
5.6938e-08
4.99945e-08
5.51904e-08
6.02511e-08
1.10456e-07
1.46944e-07
4.44068e-08
5.46482e-08
5.42822e-08
1.52882e-07
1.62157e-07
2.0263e-07
5.84651e-08
5.97592e-08
7.08574e-08
7.12364e-08
1.58458e-07
2.06116e-07
6.24642e-08
6.02859e-08
7.33936e-08
7.37137e-08
6.22049e-08
7.04854e-08
7.32476e-08
1.57403e-07
2.06101e-07
5.7034e-08
7.03579e-08
7.06372e-08
1.99445e-07
2.14511e-07
2.7724e-07
7.62453e-08
7.57215e-08
9.10453e-08
9.22141e-08
2.18116e-07
2.76664e-07
7.76221e-08
7.92579e-08
9.08695e-08
9.61087e-08
7.86429e-08
9.14909e-08
9.39936e-08
2.20246e-07
2.81783e-07
7.5961e-08
9.27445e-08
8.98467e-08
2.80659e-07
2.92561e-07
3.48172e-07
9.63036e-08
9.77821e-08
1.12327e-07
1.11891e-07
2.9265e-07
3.50168e-07
9.70732e-08
1.00168e-07
1.15542e-07
1.1265e-07
9.89117e-08
1.1062e-07
1.14945e-07
2.96056e-07
3.39025e-07
9.45257e-08
1.08222e-07
1.11786e-07
3.47828e-07
3.63413e-07
4.26341e-07
1.173e-07
1.17779e-07
1.37153e-07
1.40737e-07
3.64213e-07
4.28546e-07
1.2048e-07
1.20442e-07
1.41318e-07
1.46386e-07
1.20374e-07
1.39398e-07
1.37139e-07
3.51174e-07
4.39344e-07
1.1793e-07
1.41167e-07
1.3648e-07
4.25746e-07
4.42977e-07
5.08732e-07
1.45801e-07
1.47256e-07
1.68834e-07
1.67037e-07
4.4615e-07
5.02883e-07
1.50632e-07
1.51911e-07
1.73107e-07
1.61717e-07
1.43566e-07
1.6531e-07
1.66182e-07
4.57439e-07
4.88337e-07
1.43218e-07
1.60802e-07
1.6592e-07
5.01934e-07
5.23511e-07
5.65651e-07
1.74771e-07
1.75131e-07
1.95733e-07
1.99273e-07
5.17239e-07
5.73193e-07
1.77674e-07
1.67166e-07
1.93696e-07
2.01649e-07
1.73502e-07
1.97568e-07
1.9844e-07
4.9863e-07
5.70509e-07
1.73208e-07
1.97213e-07
1.98325e-07
5.74285e-07
5.80018e-07
6.38282e-07
2.04106e-07
2.08297e-07
2.3361e-07
2.36331e-07
5.8927e-07
6.38155e-07
2.02151e-07
2.14324e-07
2.34903e-07
2.37764e-07
2.08451e-07
2.33528e-07
2.30028e-07
5.90728e-07
6.38927e-07
2.08268e-07
2.32186e-07
2.29668e-07
6.31197e-07
6.53816e-07
6.96066e-07
2.44456e-07
2.4368e-07
2.70714e-07
2.70732e-07
6.50799e-07
6.91632e-07
2.46336e-07
2.44591e-07
2.7278e-07
2.73081e-07
2.36226e-07
2.68024e-07
2.71162e-07
6.51366e-07
6.9357e-07
2.35643e-07
2.69044e-07
2.70412e-07
7.01775e-07
7.08347e-07
7.4512e-07
2.79347e-07
2.82429e-07
3.13073e-07
3.15838e-07
7.06246e-07
7.50444e-07
2.80692e-07
2.84382e-07
3.13008e-07
3.13306e-07
2.85629e-07
3.13396e-07
3.17802e-07
7.06842e-07
7.41884e-07
2.85098e-07
3.10758e-07
3.18003e-07
7.43801e-07
7.56927e-07
7.8798e-07
3.24214e-07
3.25815e-07
3.49441e-07
3.57842e-07
7.62385e-07
7.90405e-07
3.23955e-07
3.19644e-07
3.47395e-07
3.4884e-07
3.23451e-07
3.57039e-07
3.39737e-07
7.52532e-07
7.88217e-07
3.23782e-07
3.45384e-07
3.39241e-07
7.79447e-07
7.99255e-07
8.36007e-07
3.5901e-07
3.67208e-07
4.0188e-07
3.91253e-07
7.99363e-07
8.25395e-07
3.56826e-07
3.6513e-07
4.02363e-07
4.13658e-07
3.52469e-07
3.88451e-07
4.09222e-07
8.02215e-07
8.39478e-07
3.5141e-07
4.09282e-07
4.08227e-07
8.43795e-07
8.47157e-07
8.69417e-07
4.16782e-07
4.03422e-07
4.45676e-07
4.53807e-07
8.37126e-07
8.75791e-07
4.17849e-07
4.24175e-07
4.44881e-07
4.42997e-07
4.24134e-07
4.51961e-07
4.47422e-07
8.48136e-07
8.64039e-07
4.23528e-07
4.37857e-07
4.47418e-07
8.69953e-07
8.7726e-07
9.02676e-07
4.52813e-07
4.68318e-07
4.89704e-07
4.92982e-07
8.8613e-07
9.04016e-07
4.5244e-07
4.50359e-07
4.86305e-07
4.89151e-07
4.53535e-07
4.95781e-07
4.8683e-07
8.72415e-07
9.03698e-07
4.52884e-07
4.87685e-07
4.84318e-07
9.02313e-07
9.13354e-07
9.40811e-07
5.05067e-07
5.00664e-07
5.42212e-07
5.33534e-07
9.10794e-07
9.3331e-07
5.01075e-07
5.05573e-07
5.44997e-07
5.4903e-07
5.02576e-07
5.33144e-07
5.43109e-07
9.15199e-07
9.40496e-07
5.00925e-07
5.45624e-07
5.44112e-07
9.40789e-07
9.48898e-07
9.69157e-07
5.55038e-07
5.47969e-07
5.90891e-07
5.92002e-07
9.43644e-07
9.72256e-07
5.56559e-07
5.59371e-07
5.89844e-07
5.88132e-07
5.53313e-07
5.90826e-07
5.88415e-07
9.47705e-07
9.66031e-07
5.54153e-07
5.85346e-07
5.87103e-07
9.67862e-07
9.77104e-07
9.98902e-07
6.01011e-07
6.05366e-07
6.37849e-07
6.42083e-07
9.80474e-07
9.98544e-07
6.01061e-07
5.98902e-07
6.35622e-07
6.36153e-07
6.01405e-07
6.39854e-07
6.36791e-07
9.74254e-07
9.99079e-07
6.00192e-07
6.3558e-07
6.35922e-07
9.9801e-07
1.00716e-06
1.02934e-06
6.51178e-07
6.50725e-07
6.84106e-07
6.76905e-07
1.00524e-06
1.0256e-06
6.48784e-07
6.50015e-07
6.84517e-07
6.86602e-07
6.47142e-07
6.78522e-07
6.83496e-07
1.0077e-06
1.02958e-06
6.45699e-07
6.85272e-07
6.83219e-07
1.02817e-06
1.03676e-06
1.05684e-06
6.95758e-07
6.91133e-07
7.34121e-07
7.38908e-07
1.03453e-06
1.06177e-06
6.96774e-07
6.98561e-07
7.33285e-07
7.32582e-07
6.97872e-07
7.39184e-07
7.37074e-07
1.03682e-06
1.0553e-06
6.98663e-07
7.3191e-07
7.36206e-07
1.06015e-06
1.06374e-06
1.08249e-06
7.43357e-07
7.50913e-07
7.70557e-07
7.70701e-07
1.06839e-06
1.07871e-06
7.41795e-07
7.40429e-07
7.7099e-07
7.70407e-07
7.47208e-07
7.69788e-07
7.70912e-07
1.06175e-06
1.08096e-06
7.44529e-07
7.69069e-07
7.66236e-07
1.07903e-06
1.09017e-06
1.11536e-06
7.83778e-07
7.75765e-07
8.24269e-07
8.12442e-07
1.08385e-06
1.11054e-06
7.85362e-07
7.85402e-07
8.26051e-07
8.2405e-07
7.79915e-07
8.13553e-07
8.1892e-07
1.08929e-06
1.11658e-06
7.76663e-07
8.2295e-07
8.22114e-07
1.11353e-06
1.12155e-06
1.13174e-06
8.33598e-07
8.3075e-07
8.51113e-07
8.70367e-07
1.12185e-06
1.14763e-06
8.34429e-07
8.33484e-07
8.49842e-07
8.56728e-07
8.31238e-07
8.69535e-07
8.59294e-07
1.12305e-06
1.13526e-06
8.35298e-07
8.57425e-07
8.59738e-07
1.14142e-06
1.13706e-06
1.16421e-06
8.59696e-07
8.76659e-07
8.99823e-07
8.94069e-07
1.15229e-06
1.16126e-06
8.5791e-07
8.63037e-07
8.94536e-07
8.92228e-07
8.69693e-07
8.93924e-07
9.00869e-07
1.14034e-06
1.1607e-06
8.68443e-07
8.92256e-07
8.98087e-07
1.16364e-06
1.17242e-06
1.18737e-06
9.11507e-07
9.02705e-07
9.31721e-07
9.25387e-07
1.16639e-06
1.17894e-06
9.04982e-07
9.05584e-07
9.3236e-07
9.36455e-07
9.07831e-07
9.22508e-07
9.20611e-07
1.16903e-06
1.18966e-06
9.05304e-07
9.3567e-07
9.193e-07
1.17543e-06
1.19174e-06
1.20781e-06
9.35185e-07
9.30552e-07
9.52406e-07
9.59042e-07
1.1833e-06
1.20774e-06
9.41562e-07
9.41943e-07
9.64575e-07
9.5388e-07
9.26189e-07
9.60218e-07
9.6259e-07
1.194e-06
1.20207e-06
9.25862e-07
9.52487e-07
9.62877e-07
1.21539e-06
1.21571e-06
1.24301e-06
9.64884e-07
9.73512e-07
1.00698e-06
1.0065e-06
1.21885e-06
1.24685e-06
9.72223e-07
9.61251e-07
9.99694e-07
1.00086e-06
9.78862e-07
1.00673e-06
1.01161e-06
1.20761e-06
1.2416e-06
9.777e-07
1.00234e-06
1.00901e-06
1.25075e-06
1.24873e-06
1.25248e-06
1.01519e-06
1.01157e-06
1.02379e-06
1.01953e-06
1.25025e-06
1.24608e-06
1.00767e-06
1.01286e-06
1.02073e-06
1.02821e-06
1.01499e-06
1.01597e-06
1.01704e-06
1.2504e-06
1.25996e-06
1.01338e-06
1.02903e-06
1.01804e-06
1.24572e-06
1.25391e-06
1.26008e-06
1.02533e-06
1.0223e-06
1.03502e-06
1.04096e-06
1.2478e-06
1.26811e-06
1.02237e-06
1.02948e-06
1.03344e-06
1.03374e-06
1.01824e-06
1.03725e-06
1.03317e-06
1.26147e-06
1.25842e-06
1.01942e-06
1.03413e-06
1.03095e-06
1.25519e-06
1.26807e-06
1.30773e-06
1.04256e-06
1.05174e-06
1.07874e-06
1.08053e-06
1.27882e-06
1.30774e-06
1.04339e-06
1.038e-06
1.08405e-06
1.07356e-06
1.04473e-06
1.08456e-06
1.08451e-06
1.26278e-06
1.30038e-06
1.04021e-06
1.07395e-06
1.08008e-06
1.30982e-06
1.31496e-06
1.31781e-06
1.08843e-06
1.08563e-06
1.10001e-06
1.09443e-06
1.31151e-06
1.30897e-06
1.09338e-06
1.0887e-06
1.10144e-06
1.1077e-06
1.09117e-06
1.09273e-06
1.09873e-06
1.3122e-06
1.3257e-06
1.0898e-06
1.10656e-06
1.10236e-06
1.32122e-06
1.31868e-06
1.31087e-06
1.10127e-06
1.09683e-06
1.10598e-06
1.10651e-06
1.31036e-06
1.31695e-06
1.10126e-06
1.10789e-06
1.10117e-06
1.10757e-06
1.10119e-06
1.10504e-06
1.11115e-06
1.3267e-06
1.31718e-06
1.10432e-06
1.10663e-06
1.10984e-06
1.32319e-06
1.31379e-06
1.34014e-06
1.10874e-06
1.11213e-06
1.1288e-06
1.13354e-06
1.32367e-06
1.35017e-06
1.10275e-06
1.10861e-06
1.12427e-06
1.12564e-06
1.11585e-06
1.13888e-06
1.13645e-06
1.31921e-06
1.3402e-06
1.11181e-06
1.12814e-06
1.12715e-06
1.34462e-06
1.35091e-06
1.37688e-06
1.13957e-06
1.13896e-06
1.16336e-06
1.14846e-06
1.35493e-06
1.35455e-06
1.13632e-06
1.13585e-06
1.16577e-06
1.16184e-06
1.14289e-06
1.15153e-06
1.15357e-06
1.35017e-06
1.37169e-06
1.1362e-06
1.16195e-06
1.15549e-06
1.36111e-06
1.3806e-06
1.37468e-06
1.16646e-06
1.15069e-06
1.16777e-06
1.15863e-06
1.35589e-06
1.35854e-06
1.17011e-06
1.16559e-06
1.17239e-06
1.17146e-06
1.155e-06
1.16027e-06
1.15751e-06
1.3744e-06
1.37178e-06
1.15765e-06
1.16688e-06
1.16013e-06
1.35518e-06
1.37555e-06
1.37332e-06
1.16757e-06
1.16331e-06
1.171e-06
1.1871e-06
1.3637e-06
1.39375e-06
1.17208e-06
1.17316e-06
1.17337e-06
1.17772e-06
1.15877e-06
1.18187e-06
1.17528e-06
1.3735e-06
1.37918e-06
1.16153e-06
1.17649e-06
1.17889e-06
1.38232e-06
1.37864e-06
1.40822e-06
1.17853e-06
1.19526e-06
1.21069e-06
1.21149e-06
1.40227e-06
1.41684e-06
1.17702e-06
1.18067e-06
1.20202e-06
1.20059e-06
1.18652e-06
1.20757e-06
1.21624e-06
1.38374e-06
1.40363e-06
1.18986e-06
1.20612e-06
1.21574e-06
1.42321e-06
1.4144e-06
1.42019e-06
1.21714e-06
1.21483e-06
1.22283e-06
1.22232e-06
1.41992e-06
1.42223e-06
1.20982e-06
1.20862e-06
1.22191e-06
1.2256e-06
1.22132e-06
1.22461e-06
1.22698e-06
1.41078e-06
1.4233e-06
1.21888e-06
1.22389e-06
1.22007e-06
1.4237e-06
1.42176e-06
1.41504e-06
1.22281e-06
1.22328e-06
1.22172e-06
1.22229e-06
1.42407e-06
1.41567e-06
1.22318e-06
1.22784e-06
1.22377e-06
1.22829e-06
1.22767e-06
1.2269e-06
1.22792e-06
1.42555e-06
1.4202e-06
1.21986e-06
1.22397e-06
1.22125e-06
1.41839e-06
1.41628e-06
1.42472e-06
1.22165e-06
1.22113e-06
1.22763e-06
1.22274e-06
1.41643e-06
1.41672e-06
1.22388e-06
1.22769e-06
1.2295e-06
1.22843e-06
1.22721e-06
1.22397e-06
1.22511e-06
1.42135e-06
1.42309e-06
1.22382e-06
1.22957e-06
1.23008e-06
1.42013e-06
1.43277e-06
1.4584e-06
1.23566e-06
1.22883e-06
1.25988e-06
1.25493e-06
1.4231e-06
1.45137e-06
1.23679e-06
1.23171e-06
1.25848e-06
1.25916e-06
1.22547e-06
1.25046e-06
1.24402e-06
1.42854e-06
1.45831e-06
1.23183e-06
1.2594e-06
1.24737e-06
1.44209e-06
1.4634e-06
1.46837e-06
1.26471e-06
1.26114e-06
1.27278e-06
1.2749e-06
1.45779e-06
1.47221e-06
1.26338e-06
1.26638e-06
1.27169e-06
1.2718e-06
1.25453e-06
1.27391e-06
1.27932e-06
1.46509e-06
1.46612e-06
1.25643e-06
1.27026e-06
1.27788e-06
1.47914e-06
1.47007e-06
1.46057e-06
1.27346e-06
1.27695e-06
1.27182e-06
1.27662e-06
1.47585e-06
1.47136e-06
1.2721e-06
1.27066e-06
1.2691e-06
1.26293e-06
1.28258e-06
1.27927e-06
1.28182e-06
1.46641e-06
1.44644e-06
1.27976e-06
1.26144e-06
1.2757e-06
1.4717e-06
1.46121e-06
1.45762e-06
1.26984e-06
1.27413e-06
1.26795e-06
1.26868e-06
1.47185e-06
1.45834e-06
1.26725e-06
1.26267e-06
1.26711e-06
1.27388e-06
1.27763e-06
1.27178e-06
1.26705e-06
1.44767e-06
1.47272e-06
1.27064e-06
1.27391e-06
1.26401e-06
1.45145e-06
1.4624e-06
1.49261e-06
1.26901e-06
1.26871e-06
1.29041e-06
1.28089e-06
1.45971e-06
1.47406e-06
1.27047e-06
1.28505e-06
1.2964e-06
1.30394e-06
1.26672e-06
1.27567e-06
1.27738e-06
1.48518e-06
1.51013e-06
1.26455e-06
1.30462e-06
1.28812e-06
1.47904e-06
1.49921e-06
1.50139e-06
1.29802e-06
1.28933e-06
1.30545e-06
1.30532e-06
1.48221e-06
1.50209e-06
1.30134e-06
1.30429e-06
1.30348e-06
1.29472e-06
1.28796e-06
1.30297e-06
1.30958e-06
1.51182e-06
1.48607e-06
1.29968e-06
1.29788e-06
1.31289e-06
1.51378e-06
1.50218e-06
1.48525e-06
1.30512e-06
1.30658e-06
1.29698e-06
1.30507e-06
1.50545e-06
1.50044e-06
1.30171e-06
1.28896e-06
1.291e-06
1.27831e-06
1.31024e-06
1.30699e-06
1.29872e-06
1.48466e-06
1.45963e-06
1.31236e-06
1.27789e-06
1.29161e-06
1.48392e-06
1.48552e-06
1.47754e-06
1.2936e-06
1.30169e-06
1.28925e-06
1.29067e-06
1.50092e-06
1.48169e-06
1.28791e-06
1.27789e-06
1.28606e-06
1.28588e-06
1.29109e-06
1.2914e-06
1.2819e-06
1.46062e-06
1.47913e-06
1.28307e-06
1.28064e-06
1.27623e-06
1.46321e-06
1.48138e-06
1.51886e-06
1.28962e-06
1.28972e-06
1.30995e-06
1.29833e-06
1.48261e-06
1.50107e-06
1.28811e-06
1.29754e-06
1.32088e-06
1.33667e-06
1.28286e-06
1.29999e-06
1.31965e-06
1.49142e-06
1.54847e-06
1.27891e-06
1.33457e-06
1.32898e-06
1.53455e-06
1.53085e-06
1.54814e-06
1.32222e-06
1.31253e-06
1.3401e-06
1.33996e-06
1.51448e-06
1.54763e-06
1.33185e-06
1.3438e-06
1.3423e-06
1.3457e-06
1.33496e-06
1.34058e-06
1.3464e-06
1.55713e-06
1.55106e-06
1.34272e-06
1.34496e-06
1.34826e-06
1.55792e-06
1.54893e-06
1.5016e-06
1.33999e-06
1.34045e-06
1.31765e-06
1.31917e-06
1.54935e-06
1.50419e-06
1.34116e-06
1.34005e-06
1.3101e-06
1.29421e-06
1.34258e-06
1.31507e-06
1.29481e-06
1.548e-06
1.47337e-06
1.34064e-06
1.29238e-06
1.28554e-06
1.46683e-06
1.49807e-06
1.47272e-06
1.30489e-06
1.30624e-06
1.28738e-06
1.28999e-06
1.50066e-06
1.47885e-06
1.29686e-06
1.28285e-06
1.28183e-06
1.27581e-06
1.2838e-06
1.28922e-06
1.28006e-06
1.4706e-06
1.46301e-06
1.27562e-06
1.27848e-06
1.27536e-06
1.46662e-06
1.47637e-06
1.51987e-06
1.28768e-06
1.29063e-06
1.31378e-06
1.31746e-06
1.48374e-06
1.52461e-06
1.28268e-06
1.27974e-06
1.31651e-06
1.33099e-06
1.28746e-06
1.31897e-06
1.33284e-06
1.47322e-06
1.54449e-06
1.28717e-06
1.33515e-06
1.34115e-06
1.55139e-06
1.53212e-06
1.54626e-06
1.32646e-06
1.32759e-06
1.34028e-06
1.3363e-06
1.53354e-06
1.53799e-06
1.32999e-06
1.34373e-06
1.34257e-06
1.35067e-06
1.34044e-06
1.33473e-06
1.34233e-06
1.55675e-06
1.56089e-06
1.34921e-06
1.35134e-06
1.35013e-06
1.55211e-06
1.54701e-06
1.52907e-06
1.33958e-06
1.33509e-06
1.32602e-06
1.32403e-06
1.53862e-06
1.52541e-06
1.3414e-06
1.34625e-06
1.32483e-06
1.31626e-06
1.33755e-06
1.3245e-06
1.32265e-06
1.55988e-06
1.51426e-06
1.34358e-06
1.31712e-06
1.32079e-06
1.52319e-06
1.52994e-06
1.53263e-06
1.32328e-06
1.32246e-06
1.3233e-06
1.32372e-06
1.52667e-06
1.5325e-06
1.32153e-06
1.3112e-06
1.32142e-06
1.31131e-06
1.32081e-06
1.32328e-06
1.32216e-06
1.51411e-06
1.51332e-06
1.31687e-06
1.3088e-06
1.31546e-06
1.52717e-06
1.53679e-06
1.53641e-06
1.32596e-06
1.32654e-06
1.32832e-06
1.32848e-06
1.53682e-06
1.53642e-06
1.32462e-06
1.31701e-06
1.32843e-06
1.32983e-06
1.32436e-06
1.32779e-06
1.3249e-06
1.51986e-06
1.53689e-06
1.31725e-06
1.32564e-06
1.31906e-06
1.52637e-06
1.53674e-06
1.49779e-06
1.32696e-06
1.32689e-06
1.30435e-06
1.30416e-06
1.53676e-06
1.49884e-06
1.32741e-06
1.32984e-06
1.30558e-06
1.31334e-06
1.32228e-06
1.30486e-06
1.29691e-06
1.53876e-06
1.51118e-06
1.31754e-06
1.31308e-06
1.29715e-06
1.48473e-06
1.49662e-06
1.4878e-06
1.29691e-06
1.29738e-06
1.29051e-06
1.29253e-06
1.49804e-06
1.49268e-06
1.29745e-06
1.30341e-06
1.28928e-06
1.2892e-06
1.29042e-06
1.292e-06
1.28685e-06
1.50905e-06
1.48804e-06
1.29138e-06
1.2908e-06
1.28818e-06
1.48682e-06
1.49428e-06
1.54454e-06
1.29216e-06
1.29491e-06
1.32597e-06
1.33014e-06
1.50022e-06
1.55201e-06
1.29037e-06
1.28942e-06
1.3222e-06
1.31642e-06
1.29079e-06
1.32968e-06
1.33555e-06
1.49123e-06
1.53594e-06
1.29199e-06
1.31845e-06
1.33495e-06
1.56344e-06
1.55547e-06
1.56363e-06
1.33585e-06
1.33857e-06
1.34294e-06
1.34246e-06
1.56157e-06
1.56226e-06
1.33325e-06
1.32997e-06
1.34268e-06
1.3439e-06
1.34557e-06
1.34354e-06
1.3506e-06
1.54959e-06
1.56789e-06
1.34492e-06
1.34505e-06
1.35047e-06
1.57673e-06
1.56378e-06
1.51676e-06
1.34078e-06
1.33838e-06
1.30919e-06
1.30083e-06
1.56092e-06
1.50195e-06
1.34127e-06
1.34303e-06
1.31183e-06
1.31374e-06
1.34611e-06
1.3e-06
1.30063e-06
1.56864e-06
1.52022e-06
1.34652e-06
1.31199e-06
1.30216e-06
1.50245e-06
1.51469e-06
1.49378e-06
1.29872e-06
1.29112e-06
1.28431e-06
1.28257e-06
1.50013e-06
1.48909e-06
1.30073e-06
1.30127e-06
1.28362e-06
1.28212e-06
1.28874e-06
1.28127e-06
1.27813e-06
1.51716e-06
1.49055e-06
1.28971e-06
1.28075e-06
1.27733e-06
1.48272e-06
1.49566e-06
1.50641e-06
1.28403e-06
1.28363e-06
1.29136e-06
1.30161e-06
1.49472e-06
1.52402e-06
1.28291e-06
1.28146e-06
1.28839e-06
1.28841e-06
1.2792e-06
1.30266e-06
1.29748e-06
1.49231e-06
1.50515e-06
1.27799e-06
1.28936e-06
1.29453e-06
1.5155e-06
1.5113e-06
1.51617e-06
1.2955e-06
1.30517e-06
1.29926e-06
1.30448e-06
1.5291e-06
1.52266e-06
1.29302e-06
1.29322e-06
1.29857e-06
1.29805e-06
1.30057e-06
1.30437e-06
1.29792e-06
1.5105e-06
1.5142e-06
1.29806e-06
1.29746e-06
1.29686e-06
1.512e-06
1.51776e-06
1.51312e-06
1.29887e-06
1.30019e-06
1.29249e-06
1.2859e-06
1.52262e-06
1.50191e-06
1.29846e-06
1.2976e-06
1.29271e-06
1.28997e-06
1.29271e-06
1.28365e-06
1.28243e-06
1.51529e-06
1.50766e-06
1.29246e-06
1.2882e-06
1.28343e-06
1.49783e-06
1.51494e-06
1.51734e-06
1.29145e-06
1.28396e-06
1.2895e-06
1.28293e-06
1.50303e-06
1.50547e-06
1.29159e-06
1.28885e-06
1.2897e-06
1.28903e-06
1.28229e-06
1.28217e-06
1.28943e-06
1.50928e-06
1.51651e-06
1.28335e-06
1.28939e-06
1.29084e-06
1.51892e-06
1.51934e-06
1.50351e-06
1.2891e-06
1.28323e-06
1.28014e-06
1.28031e-06
1.50874e-06
1.50414e-06
1.2894e-06
1.29016e-06
1.28141e-06
1.28868e-06
1.29249e-06
1.28227e-06
1.29152e-06
1.52064e-06
1.51803e-06
1.29403e-06
1.29116e-06
1.29317e-06
1.52248e-06
1.50208e-06
1.46987e-06
1.2739e-06
1.2766e-06
1.254e-06
1.25874e-06
1.5045e-06
1.48011e-06
1.27519e-06
1.28494e-06
1.25314e-06
1.25567e-06
1.28664e-06
1.25906e-06
1.25339e-06
1.51821e-06
1.47361e-06
1.28824e-06
1.25608e-06
1.25247e-06
1.46766e-06
1.4706e-06
1.4597e-06
1.25219e-06
1.25738e-06
1.23458e-06
1.23648e-06
1.4808e-06
1.46317e-06
1.25073e-06
1.2498e-06
1.23167e-06
1.22167e-06
1.24722e-06
1.23402e-06
1.22276e-06
1.47207e-06
1.43837e-06
1.24539e-06
1.21861e-06
1.21952e-06
1.43989e-06
1.44487e-06
1.20163e-06
1.20191e-06
1.44583e-06
1.19894e-06
1.18698e-06
7.57467e-07
7.47724e-07
7.4967e-07
1.18934e-06
1.42123e-06
1.18642e-06
1.40751e-10
2.42208e-09
1.75416e-10
2.74837e-10
5.52849e-09
3.60833e-09
2.42841e-09
1.07595e-09
5.44553e-09
4.49585e-09
1.51219e-09
9.62265e-09
5.19444e-09
2.04799e-09
8.09651e-09
7.47654e-09
1.58331e-07
5.96562e-09
2.50129e-07
1.45854e-06
2.95177e-06
8.70895e-09
1.6373e-07
7.41719e-09
2.59438e-07
1.35109e-09
1.5588e-09
1.58526e-09
1.32642e-09
1.32726e-09
1.54793e-09
1.58509e-09
4.95271e-09
7.29788e-08
2.76865e-09
3.35569e-09
5.2177e-09
5.23109e-08
2.74086e-09
2.43826e-06
4.63904e-06
4.75162e-09
3.53932e-09
9.60685e-08
4.81211e-09
4.9827e-09
3.50415e-09
7.19073e-08
2.09958e-07
2.15628e-07
4.7835e-09
1.77953e-07
1.82523e-07
1.67888e-08
4.47554e-07
1.20427e-08
6.37221e-07
6.67661e-06
9.72281e-06
1.77941e-08
4.65663e-07
1.33965e-08
6.79387e-07
1.31274e-09
1.53367e-09
1.57168e-09