/*--------------------------------*- C++ -*----------------------------------*\
| =========                 |                                                 |
| \\      /  F ield         | OpenFOAM: The Open Source CFD Toolbox           |
|  \\    /   O peration     | Version:  v2012                                 |
|   \\  /    A nd           | Website:  www.openfoam.com                      |
|    \\/     M anipulation  |                                                 |
\*---------------------------------------------------------------------------*/
FoamFile
{
    version     2.0;
    format      ascii;
    class       volScalarField;
    location    "1150";
    object      k;
}
// * * * * * * * * * * * * * * * * * * * * * * * * * * * * * * * * * * * * * //

dimensions      [0 2 -2 0 0 0 0];


internalField   nonuniform List<scalar> 
171728
(
1.5985e-07
2.61076e-07
3.3444e-07
3.58328e-07
1.58783e-07
2.49504e-07
3.10509e-07
3.36844e-07
1.55045e-07
2.36406e-07
2.89578e-07
3.18073e-07
1.51365e-07
2.22566e-07
2.73647e-07
3.03165e-07
1.47679e-07
2.09978e-07
2.60169e-07
2.92624e-07
1.44012e-07
1.99739e-07
2.47326e-07
2.85226e-07
1.40395e-07
1.91184e-07
2.37976e-07
2.78107e-07
1.3707e-07
1.83955e-07
2.3102e-07
2.66149e-07
1.33864e-07
1.77845e-07
2.27583e-07
2.55532e-07
1.30669e-07
1.73258e-07
2.26684e-07
2.50403e-07
1.27777e-07
1.70405e-07
2.27212e-07
2.46751e-07
1.25414e-07
1.69045e-07
2.48864e-07
2.40239e-07
1.22908e-07
1.68771e-07
2.91547e-07
2.25645e-07
1.20531e-07
1.6901e-07
3.9585e-07
2.06196e-07
1.18315e-07
1.71233e-07
5.31321e-07
1.98522e-07
1.16499e-07
1.76525e-07
6.12141e-07
2.00718e-07
1.14859e-07
1.86873e-07
6.14333e-07
2.1303e-07
1.13812e-07
2.05006e-07
4.55194e-07
2.42901e-07
1.12083e-07
2.37314e-07
3.63568e-07
3.00435e-07
1.10989e-07
2.84563e-07
3.47555e-07
3.96703e-07
1.1136e-07
3.66134e-07
3.79202e-07
5.21988e-07
1.12411e-07
4.7747e-07
4.93477e-07
7.68676e-07
1.13477e-07
6.4875e-07
6.42677e-07
1.02164e-06
1.14358e-07
8.76075e-07
8.92527e-07
1.79426e-06
1.17736e-07
1.22007e-06
1.18251e-06
2.66421e-06
1.21664e-07
1.60214e-06
1.61182e-06
3.87374e-06
1.27836e-07
2.15208e-06
2.1252e-06
5.85107e-06
1.33614e-07
2.72836e-06
2.71697e-06
7.28659e-06
1.45081e-07
3.58905e-06
3.66272e-06
1.02545e-05
1.7171e-07
4.27908e-06
4.14641e-06
1.23497e-05
2.07815e-07
5.48462e-06
5.59167e-06
1.48566e-05
2.61745e-07
6.47386e-06
6.24287e-06
1.72587e-05
3.03923e-07
7.73667e-06
7.7441e-06
1.95766e-05
4.02549e-07
9.1681e-06
9.09281e-06
2.13912e-05
5.18382e-07
1.04651e-05
1.05199e-05
2.35401e-05
6.84407e-07
1.2251e-05
1.21826e-05
2.51794e-05
8.35445e-07
1.40385e-05
1.33464e-05
2.59504e-05
1.13254e-06
1.49585e-05
1.61083e-05
2.84609e-05
1.47457e-06
1.76392e-05
1.69485e-05
2.93548e-05
1.70381e-06
1.92835e-05
1.88092e-05
3.02597e-05
2.27978e-06
2.04761e-05
2.11506e-05
3.18385e-05
2.8412e-06
2.27477e-05
2.24954e-05
3.27761e-05
3.34532e-06
2.46515e-05
2.43721e-05
3.3942e-05
4.11537e-06
2.58638e-05
2.62677e-05
3.50212e-05
5.05957e-06
2.84182e-05
2.80435e-05
3.64184e-05
5.67722e-06
2.94758e-05
2.92635e-05
3.70125e-05
7.13769e-06
3.07995e-05
3.15146e-05
3.83748e-05
8.17608e-06
3.34503e-05
3.27768e-05
3.94934e-05
8.93988e-06
3.41763e-05
3.39455e-05
4.05141e-05
1.08692e-05
3.51561e-05
3.59112e-05
4.08371e-05
1.20158e-05
3.6536e-05
3.63774e-05
4.21674e-05
1.34978e-05
3.89103e-05
3.83693e-05
4.40966e-05
1.59663e-05
3.9275e-05
3.98975e-05
4.39243e-05
1.66006e-05
3.94881e-05
3.99555e-05
4.38055e-05
1.71005e-05
4.21961e-05
4.10567e-05
4.63473e-05
2.08966e-05
4.28461e-05
4.33705e-05
4.70014e-05
2.19822e-05
4.29373e-05
4.33857e-05
4.69305e-05
2.20258e-05
4.45286e-05
4.36105e-05
4.78219e-05
2.42946e-05
4.5556e-05
4.58813e-05
4.87499e-05
2.72073e-05
4.57145e-05
4.62671e-05
4.85265e-05
2.73816e-05
4.65244e-05
4.63302e-05
4.92665e-05
2.76095e-05
4.83235e-05
4.79209e-05
5.14764e-05
3.01864e-05
4.92707e-05
4.90685e-05
5.1715e-05
3.14678e-05
4.92887e-05
4.91245e-05
5.14265e-05
3.16298e-05
4.90327e-05
4.91891e-05
5.1505e-05
3.30415e-05
5.03603e-05
5.08647e-05
5.22912e-05
3.52138e-05
5.18268e-05
5.1784e-05
5.41486e-05
3.60885e-05
5.23695e-05
5.14285e-05
5.42948e-05
3.61801e-05
5.20711e-05
5.16218e-05
5.32777e-05
3.70227e-05
5.20294e-05
5.38457e-05
5.39469e-05
3.88508e-05
5.36691e-05
5.39989e-05
5.60341e-05
3.9802e-05
5.43192e-05
5.27481e-05
5.54728e-05
3.97838e-05
5.37467e-05
5.26391e-05
5.40905e-05
3.99809e-05
5.3815e-05
5.5725e-05
5.65154e-05
4.26749e-05
5.6257e-05
5.69135e-05
5.86075e-05
4.35302e-05
5.59773e-05
5.46415e-05
5.54645e-05
4.218e-05
5.42581e-05
5.33979e-05
5.41714e-05
4.19398e-05
5.53039e-05
5.6107e-05
5.79206e-05
4.4404e-05
5.67978e-05
5.79228e-05
5.88822e-05
4.55736e-05
5.67675e-05
5.67809e-05
5.76181e-05
4.55156e-05
5.67527e-05
5.5965e-05
5.75936e-05
4.56965e-05
5.71239e-05
5.67775e-05
5.79026e-05
4.55504e-05
5.62288e-05
5.67143e-05
5.63962e-05
4.46253e-05
5.54491e-05
5.56125e-05
5.59684e-05
4.51929e-05
5.75304e-05
5.68183e-05
5.92933e-05
4.78464e-05
5.88964e-05
5.89499e-05
6.06711e-05
4.79037e-05
5.7167e-05
5.80541e-05
5.80398e-05
4.60584e-05
5.57831e-05
5.59297e-05
5.64149e-05
4.56873e-05
5.69262e-05
5.6085e-05
5.78423e-05
4.6687e-05
5.75903e-05
5.70598e-05
5.82969e-05
4.72262e-05
5.68827e-05
5.70472e-05
5.76108e-05
4.72097e-05
5.67716e-05
5.72543e-05
5.83944e-05
4.7124e-05
5.6982e-05
5.7557e-05
5.90078e-05
4.6223e-05
5.6204e-05
5.62436e-05
5.70591e-05
4.55175e-05
5.47853e-05
5.38991e-05
5.58593e-05
3.64047e-07
3.09551e-07
3.01868e-07
3.52758e-07
3.15693e-07
3.00783e-07
1.57982e-07
1.54073e-07
1.73293e-07
1.71558e-07
2.94365e-07
2.90693e-07
3.56979e-07
3.25142e-07
3.26772e-07
3.59563e-07
3.63039e-07
3.42409e-07
2.5559e-07
2.56586e-07
2.47351e-07
2.49013e-07
3.51932e-07
3.31712e-07
3.12438e-07
2.75148e-07
3.04461e-07
2.66085e-07
2.86348e-07
2.52615e-07
2.78988e-07
3.56068e-07
3.36888e-07
3.21518e-07
3.16632e-07
3.15824e-07
3.3824e-07
3.41169e-07
3.22467e-07
2.44049e-07
2.45865e-07
2.34407e-07
2.36896e-07
3.30609e-07
3.10672e-07
3.01354e-07
2.6367e-07
2.92121e-07
2.56663e-07
2.76394e-07
2.39771e-07
2.69308e-07
3.35689e-07
3.18013e-07
3.14694e-07
2.94288e-07
3.13882e-07
3.19122e-07
3.21341e-07
3.04941e-07
2.31398e-07
2.341e-07
2.22575e-07
2.26666e-07
3.09586e-07
2.91167e-07
2.89137e-07
2.5453e-07
2.80255e-07
2.4861e-07
2.67443e-07
2.25981e-07
2.62582e-07
3.17082e-07
3.0207e-07
3.14063e-07
2.77399e-07
3.17246e-07
3.04732e-07
3.03892e-07
2.8884e-07
2.19707e-07
2.24425e-07
2.11393e-07
2.18265e-07
2.90169e-07
2.73838e-07
2.77294e-07
2.46869e-07
2.68613e-07
2.41862e-07
2.61426e-07
2.12903e-07
2.58424e-07
3.01195e-07
2.87314e-07
3.1855e-07
2.63382e-07
3.23516e-07
2.94142e-07
2.87882e-07
2.74061e-07
2.0873e-07
2.1639e-07
2.0108e-07
2.11324e-07
2.72989e-07
2.58609e-07
2.65767e-07
2.40067e-07
2.5773e-07
2.34672e-07
2.57154e-07
2.02088e-07
2.55114e-07
2.86428e-07
2.72753e-07
3.25818e-07
2.50322e-07
3.33273e-07
2.86433e-07
2.73217e-07
2.60477e-07
1.98508e-07
2.09765e-07
1.91115e-07
2.05501e-07
2.579e-07
2.45268e-07
2.5511e-07
2.32994e-07
2.47248e-07
2.28041e-07
2.55101e-07
1.93168e-07
2.55801e-07
2.71913e-07
2.59613e-07
3.3504e-07
2.39973e-07
3.36991e-07
2.79838e-07
2.59746e-07
2.48255e-07
1.88846e-07
2.04216e-07
1.82927e-07
2.00948e-07
2.44705e-07
2.33793e-07
2.44614e-07
2.26285e-07
2.36931e-07
2.20659e-07
2.57151e-07
1.85653e-07
2.64286e-07
2.5893e-07
2.4819e-07
3.36579e-07
2.32582e-07
3.22805e-07
2.68379e-07
2.47692e-07
2.3786e-07
1.81324e-07
1.99965e-07
1.77081e-07
1.97594e-07
2.33376e-07
2.23901e-07
2.34616e-07
2.1874e-07
2.27918e-07
2.13172e-07
2.66738e-07
1.79244e-07
2.73858e-07
2.47558e-07
2.37502e-07
3.15498e-07
2.28068e-07
2.91924e-07
2.57048e-07
2.37437e-07
2.28384e-07
1.75852e-07
1.96901e-07
1.72239e-07
1.94713e-07
2.23605e-07
2.1523e-07
2.25779e-07
2.1146e-07
2.19846e-07
2.06647e-07
2.7573e-07
1.74203e-07
2.78499e-07
2.36881e-07
2.2692e-07
2.86313e-07
2.26727e-07
2.78168e-07
2.51383e-07
2.28065e-07
2.19362e-07
1.71105e-07
1.9397e-07
1.67869e-07
1.91938e-07
2.15027e-07
2.07458e-07
2.18096e-07
2.05166e-07
2.1305e-07
2.01449e-07
2.78519e-07
1.70923e-07
2.72589e-07
2.26271e-07
2.17401e-07
2.77435e-07
2.26828e-07
2.7818e-07
2.47089e-07
2.19178e-07
2.12061e-07
1.66929e-07
1.91262e-07
1.64114e-07
1.89667e-07
2.07359e-07
2.01265e-07
2.11543e-07
2.00241e-07
2.08795e-07
1.9749e-07
2.68277e-07
1.69268e-07
2.48421e-07
2.16974e-07
2.15256e-07
2.8084e-07
2.40984e-07
3.05847e-07
2.41393e-07
2.12097e-07
2.06978e-07
1.63093e-07
1.89445e-07
1.60617e-07
1.8905e-07
2.01307e-07
1.96709e-07
2.08732e-07
1.96909e-07
2.09398e-07
1.95452e-07
2.39988e-07
1.68785e-07
2.15855e-07
2.15793e-07
2.2196e-07
3.10944e-07
2.77124e-07
3.13038e-07
2.26922e-07
2.0714e-07
2.02567e-07
1.60033e-07
1.8894e-07
1.58845e-07
1.89083e-07
1.9688e-07
1.93215e-07
2.09919e-07
1.95371e-07
2.11154e-07
1.95961e-07
2.09206e-07
1.68838e-07
1.94674e-07
2.24573e-07
2.44499e-07
3.09397e-07
3.63444e-07
2.673e-07
2.07092e-07
2.02881e-07
1.99452e-07
1.58758e-07
1.89223e-07
1.59293e-07
1.9008e-07
1.93542e-07
1.91093e-07
2.11176e-07
1.96602e-07
2.11214e-07
2.00295e-07
1.91617e-07
1.7046e-07
1.85031e-07
2.50585e-07
2.85209e-07
2.55699e-07
4.99839e-07
2.34085e-07
1.98045e-07
2.00159e-07
1.99056e-07
1.59666e-07
1.90681e-07
1.62704e-07
1.9293e-07
1.91837e-07
1.91468e-07
2.11536e-07
2.02143e-07
2.15035e-07
2.081e-07
1.84307e-07
1.75179e-07
1.83144e-07
2.92805e-07
3.15648e-07
2.31367e-07
5.9983e-07
2.30813e-07
1.98829e-07
2.00622e-07
2.03763e-07
1.63946e-07
1.93825e-07
1.70125e-07
1.98681e-07
1.92984e-07
1.96452e-07
2.16986e-07
2.10417e-07
2.24644e-07
2.1548e-07
1.83377e-07
1.837e-07
1.87158e-07
3.18239e-07
3.15323e-07
2.31629e-07
6.20484e-07
2.47238e-07
2.08391e-07
2.0672e-07
2.18468e-07
1.7295e-07
2.0103e-07
1.8566e-07
2.11379e-07
1.99725e-07
2.1034e-07
2.28226e-07
2.17593e-07
2.43765e-07
2.25861e-07
1.89727e-07
1.99952e-07
2.01276e-07
3.13735e-07
2.66099e-07
2.57511e-07
4.93906e-07
3.07795e-07
2.32794e-07
2.25499e-07
2.43461e-07
1.91456e-07
2.16426e-07
2.08491e-07
2.38022e-07
2.16756e-07
2.42347e-07
2.49778e-07
2.30263e-07
2.66902e-07
2.48522e-07
2.08034e-07
2.27936e-07
2.30622e-07
2.66562e-07
2.73159e-07
3.29525e-07
3.76626e-07
4.13759e-07
2.86077e-07
2.53202e-07
3.06382e-07
2.15726e-07
2.47945e-07
2.54495e-07
2.80934e-07
2.54468e-07
2.995e-07
2.74275e-07
2.57191e-07
3.0868e-07
2.98178e-07
2.391e-07
2.70345e-07
2.73503e-07
2.83201e-07
3.28299e-07
4.464e-07
3.47387e-07
5.38431e-07
3.69966e-07
3.28055e-07
4.06095e-07
2.67206e-07
2.94869e-07
3.20431e-07
3.54491e-07
3.19651e-07
4.18785e-07
3.20068e-07
3.07062e-07
3.73127e-07
3.58356e-07
2.93112e-07
3.43986e-07
3.49486e-07
3.42996e-07
3.97717e-07
5.70697e-07
3.57724e-07
6.46069e-07
4.96147e-07
4.47207e-07
6.22186e-07
3.45625e-07
3.77029e-07
4.26772e-07
4.5815e-07
4.58902e-07
6.15473e-07
4.0171e-07
3.91096e-07
4.7442e-07
4.65127e-07
3.69313e-07
4.45716e-07
4.76171e-07
4.45985e-07
6.4612e-07
6.64549e-07
4.58981e-07
7.03104e-07
6.971e-07
6.68698e-07
9.53819e-07
4.59153e-07
4.88801e-07
5.75034e-07
6.10303e-07
6.69592e-07
9.66879e-07
4.99302e-07
4.99006e-07
6.34226e-07
6.11802e-07
5.17341e-07
5.98367e-07
6.27967e-07
6.91234e-07
9.39945e-07
7.07326e-07
6.05064e-07
7.27794e-07
9.56797e-07
1.06128e-06
1.57776e-06
6.24449e-07
6.62482e-07
8.16194e-07
8.2976e-07
1.0684e-06
1.5431e-06
6.90658e-07
6.462e-07
8.94974e-07
8.5032e-07
6.88747e-07
8.14666e-07
9.34109e-07
1.02525e-06
1.49586e-06
7.41081e-07
8.18745e-07
8.93482e-07
1.60865e-06
1.71993e-06
2.32839e-06
8.68151e-07
8.90247e-07
1.09748e-06
1.13393e-06
1.68193e-06
2.41641e-06
9.60156e-07
9.26778e-07
1.20501e-06
1.12794e-06
1.00869e-06
1.12051e-06
1.34084e-06
1.67356e-06
2.40552e-06
9.57506e-07
1.1054e-06
1.20055e-06
2.4448e-06
2.55424e-06
3.68457e-06
1.2155e-06
1.23655e-06
1.47231e-06
1.53062e-06
2.65664e-06
3.69464e-06
1.33893e-06
1.23728e-06
1.61042e-06
1.5562e-06
1.45042e-06
1.51412e-06
1.72646e-06
2.57812e-06
3.62473e-06
1.27225e-06
1.50058e-06
1.44407e-06
3.65322e-06
3.91834e-06
5.26218e-06
1.57427e-06
1.61915e-06
2.05177e-06
2.00076e-06
3.91863e-06
5.08555e-06
1.68679e-06
1.66854e-06
2.19095e-06
2.10618e-06
1.87917e-06
1.98547e-06
2.37865e-06
3.92624e-06
5.19056e-06
1.57352e-06
1.9761e-06
2.0036e-06
5.48439e-06
5.68602e-06
7.18326e-06
2.16159e-06
2.16772e-06
2.54614e-06
2.61211e-06
5.48169e-06
7.24865e-06
2.34724e-06
2.24386e-06
2.75357e-06
2.6847e-06
2.46371e-06
2.57822e-06
2.69972e-06
5.53531e-06
7.14726e-06
2.08882e-06
2.54798e-06
2.52876e-06
6.87807e-06
7.50789e-06
9.50909e-06
2.75492e-06
2.75697e-06
3.34515e-06
3.36738e-06
7.63487e-06
9.4739e-06
2.91688e-06
2.88049e-06
3.32179e-06
3.61884e-06
2.89121e-06
3.3395e-06
3.51613e-06
7.58536e-06
9.77349e-06
2.74738e-06
3.4401e-06
3.32469e-06
9.77508e-06
1.00604e-05
1.19435e-05
3.53823e-06
3.61168e-06
4.19948e-06
4.16865e-06
1.00103e-05
1.20447e-05
3.52182e-06
3.83273e-06
4.35166e-06
4.1452e-06
3.70353e-06
4.11759e-06
4.3063e-06
1.02856e-05
1.17827e-05
3.4887e-06
3.96688e-06
4.11588e-06
1.18623e-05
1.24012e-05
1.434e-05
4.38517e-06
4.3323e-06
5.02007e-06
5.23522e-06
1.24619e-05
1.43543e-05
4.55126e-06
4.34978e-06
5.19472e-06
5.54649e-06
4.52259e-06
5.19771e-06
5.13794e-06
1.2043e-05
1.46618e-05
4.36301e-06
5.27954e-06
5.0771e-06
1.43905e-05
1.48368e-05
1.70788e-05
5.34724e-06
5.54138e-06
6.39883e-06
6.2456e-06
1.49345e-05
1.69125e-05
5.55911e-06
5.85318e-06
6.67835e-06
6.21701e-06
5.35496e-06
6.17433e-06
6.214e-06
1.5457e-05
1.66644e-05
5.31851e-06
6.09029e-06
6.20398e-06
1.67281e-05
1.76207e-05
1.88825e-05
6.64566e-06
6.54351e-06
7.34616e-06
7.47977e-06
1.73308e-05
1.89939e-05
6.89608e-06
6.28031e-06
7.32095e-06
7.29752e-06
6.51498e-06
7.39023e-06
7.37883e-06
1.68798e-05
1.85981e-05
6.49885e-06
7.26254e-06
7.378e-06
1.90979e-05
1.9241e-05
2.10292e-05
7.64141e-06
7.79689e-06
8.70886e-06
8.99364e-06
1.95105e-05
2.12432e-05
7.55345e-06
7.94703e-06
8.7409e-06
9.15179e-06
7.79239e-06
8.87089e-06
8.83636e-06
1.93546e-05
2.13512e-05
7.78617e-06
8.83597e-06
8.83944e-06
2.10642e-05
2.15698e-05
2.31242e-05
9.1632e-06
9.30386e-06
1.0301e-05
1.01563e-05
2.16472e-05
2.28129e-05
9.2477e-06
9.35001e-06
1.04504e-05
1.02635e-05
8.97858e-06
1.00528e-05
9.96983e-06
2.1696e-05
2.29034e-05
8.96998e-06
1.0067e-05
9.92545e-06
2.2948e-05
2.34897e-05
2.46463e-05
1.05761e-05
1.05862e-05
1.17823e-05
1.19894e-05
2.32346e-05
2.48339e-05
1.07038e-05
1.07032e-05
1.18132e-05
1.20377e-05
1.05987e-05
1.1846e-05
1.22624e-05
2.33304e-05
2.46598e-05
1.05611e-05
1.19234e-05
1.22659e-05
2.49265e-05
2.50409e-05
2.60998e-05
1.22853e-05
1.23798e-05
1.33109e-05
1.36332e-05
2.52473e-05
2.63322e-05
1.23122e-05
1.22871e-05
1.32461e-05
1.29466e-05
1.25789e-05
1.3597e-05
1.29697e-05
2.49718e-05
2.58797e-05
1.25907e-05
1.28214e-05
1.29945e-05
2.56637e-05
2.64046e-05
2.76483e-05
1.35466e-05
1.40639e-05
1.50115e-05
1.4821e-05
2.66227e-05
2.73197e-05
1.34584e-05
1.34797e-05
1.4975e-05
1.5714e-05
1.30998e-05
1.47135e-05
1.51712e-05
2.62909e-05
2.80473e-05
1.31129e-05
1.5529e-05
1.51035e-05
2.79107e-05
2.80905e-05
2.90634e-05
1.56855e-05
1.51072e-05
1.71099e-05
1.69662e-05
2.76137e-05
2.90838e-05
1.57299e-05
1.63014e-05
1.70971e-05
1.7068e-05
1.60199e-05
1.68221e-05
1.73542e-05
2.8394e-05
2.8881e-05
1.59748e-05
1.68537e-05
1.73607e-05
2.92088e-05
2.9275e-05
2.99621e-05
1.72994e-05
1.77341e-05
1.82937e-05
1.89336e-05
2.95332e-05
3.0374e-05
1.7282e-05
1.71878e-05
1.8216e-05
1.82342e-05
1.7469e-05
1.91121e-05
1.81708e-05
2.90554e-05
2.99397e-05
1.74874e-05
1.81293e-05
1.80205e-05
2.99009e-05
3.03074e-05
3.15631e-05
1.89139e-05
1.91166e-05
2.04767e-05
2.00051e-05
3.05475e-05
3.11003e-05
1.87248e-05
1.88538e-05
2.05684e-05
2.08182e-05
1.8745e-05
2.00345e-05
2.05722e-05
3.03637e-05
3.16453e-05
1.86129e-05
2.07374e-05
2.06098e-05
3.15815e-05
3.18475e-05
3.26099e-05
2.09218e-05
2.04779e-05
2.23814e-05
2.22367e-05
3.14094e-05
3.26832e-05
2.10878e-05
2.13016e-05
2.23052e-05
2.22999e-05
2.0981e-05
2.21707e-05
2.21471e-05
3.18905e-05
3.24796e-05
2.10448e-05
2.20968e-05
2.21173e-05
3.25163e-05
3.28625e-05
3.36589e-05
2.27474e-05
2.27864e-05
2.39494e-05
2.43728e-05
3.30028e-05
3.38155e-05
2.27217e-05
2.2641e-05
2.38974e-05
2.38696e-05
2.26323e-05
2.42884e-05
2.40501e-05
3.27123e-05
3.3646e-05
2.25797e-05
2.38421e-05
2.40367e-05
3.36955e-05
3.39315e-05
3.48852e-05
2.44805e-05
2.47694e-05
2.58112e-05
2.53987e-05
3.40285e-05
3.4606e-05
2.43679e-05
2.43933e-05
2.57754e-05
2.58929e-05
2.44293e-05
2.54425e-05
2.56011e-05
3.39534e-05
3.49274e-05
2.43942e-05
2.58573e-05
2.55393e-05
3.47198e-05
3.51361e-05
3.59796e-05
2.61784e-05
2.57695e-05
2.76927e-05
2.7763e-05
3.4857e-05
3.6198e-05
2.62039e-05
2.63257e-05
2.77123e-05
2.77405e-05
2.61344e-05
2.78193e-05
2.78374e-05
3.51747e-05
3.5957e-05
2.61363e-05
2.76701e-05
2.79002e-05
3.61909e-05
3.62252e-05
3.68753e-05
2.81315e-05
2.83916e-05
2.89294e-05
2.94082e-05
3.65041e-05
3.69693e-05
2.80884e-05
2.80747e-05
2.88829e-05
2.88211e-05
2.82971e-05
2.93827e-05
2.91731e-05
3.61748e-05
3.6777e-05
2.8285e-05
2.88117e-05
2.89151e-05
3.68552e-05
3.7107e-05
3.8337e-05
2.93342e-05
2.95097e-05
3.1111e-05
2.99999e-05
3.70671e-05
3.7653e-05
2.93579e-05
2.93259e-05
3.12407e-05
3.1133e-05
2.93881e-05
3.00068e-05
3.06968e-05
3.70269e-05
3.8333e-05
2.91359e-05
3.10258e-05
3.07555e-05
3.80198e-05
3.86144e-05
3.89977e-05
3.16228e-05
3.07294e-05
3.2315e-05
3.30522e-05
3.80579e-05
3.97131e-05
3.17251e-05
3.15706e-05
3.23199e-05
3.25269e-05
3.12749e-05
3.30943e-05
3.24469e-05
3.8614e-05
3.91501e-05
3.14483e-05
3.2583e-05
3.26209e-05
3.93299e-05
3.90922e-05
4.00058e-05
3.2415e-05
3.34764e-05
3.37299e-05
3.39215e-05
3.99114e-05
4.01701e-05
3.23972e-05
3.27226e-05
3.35469e-05
3.34443e-05
3.27893e-05
3.39055e-05
3.41409e-05
3.92815e-05
3.98826e-05
3.28697e-05
3.34605e-05
3.40236e-05
4.03014e-05
4.03745e-05
4.12663e-05
3.4363e-05
3.41509e-05
3.5593e-05
3.5099e-05
4.02936e-05
4.08657e-05
3.40759e-05
3.39374e-05
3.52734e-05
3.55822e-05
3.45386e-05
3.50297e-05
3.51117e-05
4.01598e-05
4.13772e-05
3.44173e-05
3.55668e-05
3.50228e-05
4.07822e-05
4.13965e-05
4.18377e-05
3.57536e-05
3.52807e-05
3.59761e-05
3.5926e-05
4.09825e-05
4.15827e-05
3.56675e-05
3.59424e-05
3.6701e-05
3.63872e-05
3.51614e-05
3.592e-05
3.5781e-05
4.15659e-05
4.1773e-05
3.50854e-05
3.63122e-05
3.59432e-05
4.1706e-05
4.20466e-05
4.33244e-05
3.61679e-05
3.64545e-05
3.8123e-05
3.84005e-05
4.19477e-05
4.369e-05
3.69677e-05
3.64551e-05
3.80102e-05
3.75953e-05
3.65163e-05
3.85251e-05
3.87048e-05
4.18509e-05
4.29684e-05
3.66015e-05
3.75965e-05
3.86028e-05
4.39009e-05
4.36319e-05
4.40962e-05
3.87603e-05
3.88435e-05
3.96365e-05
3.93704e-05
4.38979e-05
4.38275e-05
3.84336e-05
3.83071e-05
3.93153e-05
3.97071e-05
3.91287e-05
3.92607e-05
3.94452e-05
4.34088e-05
4.44075e-05
3.90392e-05
3.9779e-05
3.94601e-05
4.39417e-05
4.412e-05
4.40017e-05
3.9694e-05
3.94085e-05
3.97405e-05
3.95202e-05
4.38374e-05
4.40166e-05
3.94298e-05
3.98481e-05
3.95345e-05
3.99286e-05
3.9431e-05
3.93413e-05
3.93981e-05
4.44567e-05
4.42179e-05
3.946e-05
3.99488e-05
3.94324e-05
4.36592e-05
4.41182e-05
4.57637e-05
3.97699e-05
3.96897e-05
4.0838e-05
4.14743e-05
4.43096e-05
4.61639e-05
3.9604e-05
3.99355e-05
4.12337e-05
4.02601e-05
3.94357e-05
4.16347e-05
4.1203e-05
4.42378e-05
4.50819e-05
3.9452e-05
4.02795e-05
4.08583e-05
4.59014e-05
4.62133e-05
4.69255e-05
4.16227e-05
4.19722e-05
4.29829e-05
4.27397e-05
4.64084e-05
4.65275e-05
4.19638e-05
4.1038e-05
4.31244e-05
4.31905e-05
4.19684e-05
4.2813e-05
4.30142e-05
4.56125e-05
4.71596e-05
4.1697e-05
4.31575e-05
4.31377e-05
4.69648e-05
4.69446e-05
4.65164e-05
4.31219e-05
4.28323e-05
4.31953e-05
4.29467e-05
4.65408e-05
4.64662e-05
4.31907e-05
4.34197e-05
4.30641e-05
4.34741e-05
4.31165e-05
4.28956e-05
4.32574e-05
4.72294e-05
4.68454e-05
4.32938e-05
4.34207e-05
4.34028e-05
4.68965e-05
4.65258e-05
4.70144e-05
4.31959e-05
4.29963e-05
4.33078e-05
4.38613e-05
4.65762e-05
4.78409e-05
4.30141e-05
4.34213e-05
4.30801e-05
4.34237e-05
4.32949e-05
4.39868e-05
4.3975e-05
4.68484e-05
4.70746e-05
4.3412e-05
4.34186e-05
4.35296e-05
4.75286e-05
4.73879e-05
4.91927e-05
4.36491e-05
4.42849e-05
4.56091e-05
4.52026e-05
4.8153e-05
4.85221e-05
4.33732e-05
4.35472e-05
4.55571e-05
4.53381e-05
4.44357e-05
4.5441e-05
4.54275e-05
4.73709e-05
4.90219e-05
4.37913e-05
4.55143e-05
4.53311e-05
4.86867e-05
4.94141e-05
4.94944e-05
4.60172e-05
4.53554e-05
4.64008e-05
4.55217e-05
4.85424e-05
4.84442e-05
4.6075e-05
4.58113e-05
4.66665e-05
4.64478e-05
4.55678e-05
4.56913e-05
4.56603e-05
4.91888e-05
4.92428e-05
4.55953e-05
4.6249e-05
4.58147e-05
4.85202e-05
4.94855e-05
4.91592e-05
4.63921e-05
4.55592e-05
4.6283e-05
4.6342e-05
4.85026e-05
4.95386e-05
4.66724e-05
4.64999e-05
4.65602e-05
4.6543e-05
4.56563e-05
4.60305e-05
4.57018e-05
4.92582e-05
4.92857e-05
4.5821e-05
4.62868e-05
4.59097e-05
4.8917e-05
4.91926e-05
5.03427e-05
4.62935e-05
4.68931e-05
4.75372e-05
4.83083e-05
4.99242e-05
5.11279e-05
4.65531e-05
4.65609e-05
4.70092e-05
4.71179e-05
4.59072e-05
4.79798e-05
4.80408e-05
4.93847e-05
5.02096e-05
4.61551e-05
4.74235e-05
4.81706e-05
5.12163e-05
5.06988e-05
5.14047e-05
4.81286e-05
4.86207e-05
4.89962e-05
4.91092e-05
5.12619e-05
5.15103e-05
4.75857e-05
4.75679e-05
4.8782e-05
4.88248e-05
4.85979e-05
4.91225e-05
4.94212e-05
5.04921e-05
5.1451e-05
4.86197e-05
4.89332e-05
4.91005e-05
5.17131e-05
5.1461e-05
5.13036e-05
4.90689e-05
4.9154e-05
4.90546e-05
4.91058e-05
5.15574e-05
5.14024e-05
4.89737e-05
4.90904e-05
4.91284e-05
4.93497e-05
4.94865e-05
4.93476e-05
4.94724e-05
5.15533e-05
5.15303e-05
4.91055e-05
4.91423e-05
4.89926e-05
5.14174e-05
5.13035e-05
5.12997e-05
4.89909e-05
4.89912e-05
4.89482e-05
4.88684e-05
5.13811e-05
5.11413e-05
4.9124e-05
4.93474e-05
4.91077e-05
4.9284e-05
4.93841e-05
4.90297e-05
4.91499e-05
5.1535e-05
5.14229e-05
4.89804e-05
4.91118e-05
4.92043e-05
5.14605e-05
5.14823e-05
5.2943e-05
4.90211e-05
4.89016e-05
5.05075e-05
5.01765e-05
5.1233e-05
5.25083e-05
4.91671e-05
4.92904e-05
5.04779e-05
5.01819e-05
4.91274e-05
4.98926e-05
4.93903e-05
5.14955e-05
5.27129e-05
4.93177e-05
5.03767e-05
4.98119e-05
5.19845e-05
5.32012e-05
5.37104e-05
5.09546e-05
5.06321e-05
5.17384e-05
5.16601e-05
5.27943e-05
5.36997e-05
5.08925e-05
5.07865e-05
5.17121e-05
5.17845e-05
4.99275e-05
5.14941e-05
5.16316e-05
5.30673e-05
5.3844e-05
5.01984e-05
5.1739e-05
5.16863e-05
5.38981e-05
5.37691e-05
5.368e-05
5.18752e-05
5.19214e-05
5.19721e-05
5.22291e-05
5.38778e-05
5.41466e-05
5.18411e-05
5.18396e-05
5.18966e-05
5.16252e-05
5.20609e-05
5.23507e-05
5.25328e-05
5.38618e-05
5.30625e-05
5.20282e-05
5.15425e-05
5.22958e-05
5.43338e-05
5.36591e-05
5.33307e-05
5.19507e-05
5.22274e-05
5.17405e-05
5.19366e-05
5.41465e-05
5.35814e-05
5.18381e-05
5.15013e-05
5.16521e-05
5.14844e-05
5.25305e-05
5.21967e-05
5.20201e-05
5.30246e-05
5.32842e-05
5.22682e-05
5.1428e-05
5.17025e-05
5.33042e-05
5.33486e-05
5.4409e-05
5.17328e-05
5.1864e-05
5.20713e-05
5.18845e-05
5.35659e-05
5.37084e-05
5.16572e-05
5.1653e-05
5.2545e-05
5.34764e-05
5.18576e-05
5.19944e-05
5.18021e-05
5.36319e-05
5.56535e-05
5.16416e-05
5.34999e-05
5.18035e-05
5.36029e-05
5.47926e-05
5.56006e-05
5.26649e-05
5.20638e-05
5.39054e-05
5.35679e-05
5.3916e-05
5.52965e-05
5.31126e-05
5.37916e-05
5.39118e-05
5.39459e-05
5.19029e-05
5.32043e-05
5.36652e-05
5.58138e-05
5.5492e-05
5.23309e-05
5.40562e-05
5.41342e-05
5.58697e-05
5.56307e-05
5.52569e-05
5.40446e-05
5.38897e-05
5.40818e-05
5.42566e-05
5.55071e-05
5.5766e-05
5.396e-05
5.38556e-05
5.38464e-05
5.28908e-05
5.40757e-05
5.43001e-05
5.43213e-05
5.53689e-05
5.39732e-05
5.43336e-05
5.29985e-05
5.43201e-05
5.56812e-05
5.5184e-05
5.4607e-05
5.39837e-05
5.42604e-05
5.34505e-05
5.38216e-05
5.57705e-05
5.50763e-05
5.35917e-05
5.27224e-05
5.31946e-05
5.26536e-05
5.42293e-05
5.3952e-05
5.32663e-05
5.39041e-05
5.40329e-05
5.39778e-05
5.25782e-05
5.28491e-05
5.41048e-05
5.46107e-05
5.55905e-05
5.34085e-05
5.36464e-05
5.35836e-05
5.35816e-05
5.50168e-05
5.50364e-05
5.31893e-05
5.27665e-05
5.39363e-05
5.50567e-05
5.31876e-05
5.36696e-05
5.35419e-05
5.43017e-05
5.70318e-05
5.28117e-05
5.48091e-05
5.37441e-05
5.57956e-05
5.60801e-05
5.78344e-05
5.40898e-05
5.37202e-05
5.61097e-05
5.57915e-05
5.53025e-05
5.75389e-05
5.47967e-05
5.58629e-05
5.64573e-05
5.69343e-05
5.44715e-05
5.58936e-05
5.66857e-05
5.75157e-05
5.84625e-05
5.50531e-05
5.69012e-05
5.69508e-05
5.85761e-05
5.79263e-05
5.71421e-05
5.63739e-05
5.61987e-05
5.63877e-05
5.63485e-05
5.77274e-05
5.72595e-05
5.66044e-05
5.69488e-05
5.64051e-05
5.58056e-05
5.6801e-05
5.63239e-05
5.60273e-05
5.84447e-05
5.60366e-05
5.70029e-05
5.56272e-05
5.56396e-05
5.60354e-05
5.68048e-05
5.49962e-05
5.60861e-05
5.61204e-05
5.43349e-05
5.44682e-05
5.69472e-05
5.52373e-05
5.57452e-05
5.47818e-05
5.39331e-05
5.33217e-05
5.49738e-05
5.43656e-05
5.35958e-05
5.55553e-05
5.41917e-05
5.44799e-05
5.34071e-05
5.32179e-05
5.40733e-05
5.49602e-05
5.5881e-05
5.41491e-05
5.43128e-05
5.42601e-05
5.45098e-05
5.5219e-05
5.63155e-05
5.37915e-05
5.32875e-05
5.40858e-05
5.44961e-05
5.35877e-05
5.45992e-05
5.51365e-05
5.42202e-05
5.68278e-05
5.32301e-05
5.49577e-05
5.54346e-05
5.73864e-05
5.63881e-05
5.81814e-05
5.47761e-05
5.51226e-05
5.67691e-05
5.66742e-05
5.67492e-05
5.79236e-05
5.49139e-05
5.57557e-05
5.69864e-05
5.77044e-05
5.60849e-05
5.66572e-05
5.73302e-05
5.74705e-05
5.91315e-05
5.6509e-05
5.78323e-05
5.7845e-05
5.89091e-05
5.8275e-05
5.80081e-05
5.70221e-05
5.68307e-05
5.71148e-05
5.68543e-05
5.79579e-05
5.76806e-05
5.72183e-05
5.78086e-05
5.72497e-05
5.73024e-05
5.73693e-05
5.68368e-05
5.69466e-05
5.91575e-05
5.78254e-05
5.78815e-05
5.74051e-05
5.72207e-05
5.77294e-05
5.79458e-05
5.78079e-05
5.7004e-05
5.67654e-05
5.6827e-05
5.67075e-05
5.76638e-05
5.7752e-05
5.70434e-05
5.67296e-05
5.67356e-05
5.60981e-05
5.67287e-05
5.67056e-05
5.65718e-05
5.75581e-05
5.68634e-05
5.67882e-05
5.59768e-05
5.63028e-05
5.74856e-05
5.7891e-05
5.82365e-05
5.68452e-05
5.67709e-05
5.70982e-05
5.71493e-05
5.78728e-05
5.8283e-05
5.67468e-05
5.61039e-05
5.70695e-05
5.68467e-05
5.6613e-05
5.71133e-05
5.68895e-05
5.69092e-05
5.79716e-05
5.63025e-05
5.65444e-05
5.6524e-05
5.79048e-05
5.82485e-05
5.72788e-05
5.71039e-05
5.71565e-05
5.66979e-05
5.66983e-05
5.82948e-05
5.72621e-05
5.70923e-05
5.70374e-05
5.68051e-05
5.70515e-05
5.68875e-05
5.67331e-05
5.62394e-05
5.80857e-05
5.7856e-05
5.65361e-05
5.68559e-05
5.61273e-05
5.66296e-05
5.70292e-05
5.61554e-05
5.61946e-05
5.61907e-05
5.53919e-05
5.54626e-05
5.70184e-05
5.62614e-05
5.63134e-05
5.68332e-05
5.53987e-05
5.56079e-05
5.57348e-05
5.54574e-05
5.51096e-05
5.76642e-05
5.6411e-05
5.57218e-05
5.57001e-05
5.52178e-05
5.5844e-05
5.6172e-05
5.79469e-05
5.53767e-05
5.54587e-05
5.63301e-05
5.66316e-05
5.62953e-05
5.8348e-05
5.5366e-05
5.54987e-05
5.60818e-05
5.57921e-05
5.51238e-05
5.65835e-05
5.68858e-05
5.63856e-05
5.74527e-05
5.52361e-05
5.59636e-05
5.695e-05
5.87373e-05
5.84462e-05
5.98901e-05
5.7251e-05
5.7529e-05
5.87137e-05
5.8773e-05
5.88333e-05
6.00021e-05
5.70177e-05
5.65976e-05
5.86768e-05
5.86707e-05
5.79181e-05
5.8861e-05
5.93365e-05
5.79878e-05
5.99622e-05
5.79321e-05
5.87929e-05
5.93359e-05
6.06644e-05
5.99198e-05
5.88117e-05
5.87877e-05
5.88041e-05
5.83493e-05
5.79688e-05
6.00077e-05
5.82315e-05
5.87875e-05
5.88522e-05
5.8514e-05
5.87018e-05
5.93702e-05
5.80278e-05
5.83309e-05
6.00395e-05
5.91587e-05
5.93747e-05
5.87226e-05
5.84508e-05
5.85268e-05
5.84965e-05
5.70827e-05
5.76609e-05
5.71752e-05
5.62445e-05
5.59192e-05
5.78462e-05
5.66368e-05
5.78924e-05
5.81488e-05
5.63162e-05
5.62848e-05
5.73259e-05
5.58353e-05
5.57064e-05
5.87972e-05
5.69689e-05
5.74548e-05
5.61599e-05
5.57291e-05
5.64157e-05
5.70492e-05
5.7286e-05
5.60898e-05
5.58641e-05
5.60929e-05
5.63567e-05
5.66469e-05
5.79062e-05
5.61058e-05
5.60298e-05
5.60222e-05
5.59226e-05
5.56222e-05
5.6374e-05
5.61044e-05
5.69069e-05
5.71358e-05
5.56147e-05
5.5879e-05
5.59346e-05
5.75595e-05
5.74512e-05
5.81099e-05
5.63108e-05
5.68713e-05
5.70715e-05
5.75384e-05
5.82001e-05
5.87542e-05
5.61288e-05
5.60428e-05
5.69629e-05
5.69302e-05
5.66338e-05
5.75823e-05
5.72406e-05
5.7333e-05
5.80636e-05
5.64437e-05
5.69544e-05
5.71167e-05
5.83313e-05
5.81727e-05
5.82404e-05
5.71866e-05
5.7555e-05
5.72567e-05
5.7178e-05
5.87442e-05
5.79332e-05
5.71209e-05
5.70727e-05
5.72575e-05
5.71494e-05
5.72429e-05
5.70871e-05
5.682e-05
5.81085e-05
5.80556e-05
5.71289e-05
5.70772e-05
5.68414e-05
5.76256e-05
5.8266e-05
5.84615e-05
5.72525e-05
5.69947e-05
5.72599e-05
5.68242e-05
5.78714e-05
5.78218e-05
5.72646e-05
5.71375e-05
5.73107e-05
5.71594e-05
5.67302e-05
5.67258e-05
5.6812e-05
5.80591e-05
5.82734e-05
5.67819e-05
5.70859e-05
5.6904e-05
5.81357e-05
5.85098e-05
5.84227e-05
5.72779e-05
5.68473e-05
5.72412e-05
5.6911e-05
5.79157e-05
5.81308e-05
5.73362e-05
5.72711e-05
5.73109e-05
5.74286e-05
5.711e-05
5.69805e-05
5.75591e-05
5.84125e-05
5.87476e-05
5.72311e-05
5.75549e-05
5.76832e-05
5.89977e-05
5.83046e-05
5.68694e-05
5.71384e-05
5.68991e-05
5.60101e-05
5.63215e-05
5.81342e-05
5.73365e-05
5.72249e-05
5.74239e-05
5.60484e-05
5.66829e-05
5.75619e-05
5.65072e-05
5.67108e-05
5.87586e-05
5.75859e-05
5.76857e-05
5.69122e-05
5.67762e-05
5.74156e-05
5.67402e-05
5.65541e-05
5.57752e-05
5.61118e-05
5.55119e-05
5.58078e-05
5.72197e-05
5.69192e-05
5.5759e-05
5.61223e-05
5.53791e-05
5.50611e-05
5.60754e-05
5.5715e-05
5.50513e-05
5.72783e-05
5.59677e-05
5.60638e-05
5.49103e-05
5.48636e-05
5.58903e-05
5.66079e-05
5.46575e-05
5.4894e-05
5.69159e-05
5.45121e-05
5.4042e-05
4.57726e-05
4.50235e-05
4.50829e-05
5.40607e-05
5.5905e-05
5.3889e-05
7.59505e-08
2.39736e-07
5.48328e-08
7.09245e-08
2.85956e-07
2.83729e-07
1.17113e-07
1.27826e-07
2.72638e-07
3.28579e-07
1.75461e-07
3.97695e-07
3.66337e-07
2.12031e-07
4.18581e-07
3.0629e-07
4.84375e-06
2.65008e-07
6.47436e-06
1.30887e-05
2.05194e-05
3.61272e-07
4.95256e-06
3.21653e-07
6.63333e-06
1.55795e-07
1.74739e-07
1.73988e-07
1.59717e-07
1.55588e-07
1.74676e-07
1.74162e-07
2.67683e-07
5.07585e-07
2.22797e-07
2.58536e-07
2.73508e-07
4.96565e-07
2.21898e-07
1.84271e-05
2.7709e-05
2.50781e-07
2.73285e-07
8.3157e-07
3.29086e-07
2.5651e-07
2.71721e-07
7.89539e-07
1.84026e-06
1.90131e-06
3.49164e-07
1.81407e-06
1.87365e-06
4.96139e-07
9.53619e-06
4.10034e-07
1.20671e-05
3.5337e-05
4.53971e-05
5.42884e-07
9.79282e-06
4.63595e-07
1.25922e-05
1.54586e-07
1.73732e-07
1.73241e-07
1.55967e-07
1.52323e-07
1.71092e-07
1.70247e-07