/*--------------------------------*- C++ -*----------------------------------*\
| =========                 |                                                 |
| \\      /  F ield         | OpenFOAM: The Open Source CFD Toolbox           |
|  \\    /   O peration     | Version:  v2012                                 |
|   \\  /    A nd           | Website:  www.openfoam.com                      |
|    \\/     M anipulation  |                                                 |
\*---------------------------------------------------------------------------*/
FoamFile
{
    version     2.0;
    format      ascii;
    class       volScalarField;
    location    "1562.5";
    object      k;
}
// * * * * * * * * * * * * * * * * * * * * * * * * * * * * * * * * * * * * * //

dimensions      [0 2 -2 0 0 0 0];


internalField   nonuniform List<scalar> 
171728
(
1.59913e-07
2.55024e-07
3.40522e-07
3.6146e-07
1.58004e-07
2.449e-07
3.23819e-07
3.39114e-07
1.52091e-07
2.34867e-07
3.06883e-07
3.19096e-07
1.49159e-07
2.24625e-07
2.91169e-07
3.02361e-07
1.46033e-07
2.14186e-07
2.76678e-07
2.87429e-07
1.42666e-07
2.04859e-07
2.63648e-07
2.72803e-07
1.39364e-07
1.96536e-07
2.53043e-07
2.58274e-07
1.3608e-07
1.88914e-07
2.43617e-07
2.4561e-07
1.32884e-07
1.82206e-07
2.34494e-07
2.35006e-07
1.29787e-07
1.76729e-07
2.26255e-07
2.25253e-07
1.2683e-07
1.72204e-07
2.19198e-07
2.17173e-07
1.23999e-07
1.6809e-07
2.13679e-07
2.123e-07
1.21118e-07
1.65122e-07
2.10035e-07
2.11284e-07
1.18274e-07
1.64151e-07
2.0859e-07
2.13989e-07
1.15453e-07
1.65311e-07
2.09269e-07
2.22656e-07
1.12624e-07
1.69071e-07
2.12735e-07
2.38116e-07
1.10029e-07
1.76686e-07
2.20881e-07
2.51793e-07
1.07578e-07
1.92908e-07
2.36749e-07
2.64681e-07
1.05426e-07
2.26791e-07
2.63972e-07
2.96766e-07
1.03762e-07
2.7027e-07
3.12007e-07
3.3372e-07
1.02324e-07
3.39031e-07
3.85468e-07
5.40717e-07
1.01556e-07
4.63533e-07
5.00097e-07
6.3447e-07
1.01299e-07
6.40988e-07
6.67879e-07
1.2416e-06
1.01587e-07
9.04422e-07
8.98054e-07
1.57218e-06
1.0351e-07
1.11502e-06
1.22298e-06
2.71639e-06
1.06956e-07
1.69496e-06
1.62363e-06
3.81597e-06
1.13894e-07
2.06157e-06
2.1662e-06
5.64313e-06
1.23915e-07
2.87048e-06
2.77058e-06
7.47311e-06
1.41661e-07
3.39029e-06
3.53578e-06
1.0165e-05
1.59717e-07
4.38854e-06
4.37349e-06
1.21731e-05
1.94051e-07
5.47997e-06
5.43521e-06
1.5038e-05
2.40552e-07
6.36869e-06
6.5333e-06
1.74275e-05
2.90864e-07
7.89038e-06
7.74704e-06
1.92443e-05
3.95676e-07
8.97351e-06
9.16242e-06
2.16088e-05
5.03865e-07
1.06899e-05
1.05774e-05
2.33862e-05
6.72341e-07
1.2098e-05
1.19678e-05
2.49967e-05
8.25752e-07
1.35115e-05
1.41303e-05
2.66018e-05
1.1526e-06
1.59572e-05
1.54498e-05
2.78976e-05
1.38619e-06
1.70314e-05
1.71382e-05
2.93021e-05
1.74761e-06
1.89331e-05
1.89868e-05
3.04769e-05
2.32178e-06
2.06829e-05
2.08862e-05
3.16999e-05
2.64575e-06
2.2956e-05
2.2732e-05
3.28397e-05
3.65237e-06
2.44992e-05
2.44459e-05
3.40916e-05
3.94221e-06
2.5846e-05
2.61523e-05
3.49033e-05
5.11623e-06
2.83396e-05
2.81451e-05
3.63983e-05
5.69301e-06
2.89235e-05
2.90934e-05
3.71407e-05
6.99552e-06
3.17711e-05
3.1786e-05
3.80218e-05
8.19919e-06
3.24964e-05
3.22212e-05
3.91651e-05
9.23001e-06
3.42401e-05
3.45617e-05
4.24652e-05
1.05407e-05
3.6064e-05
3.60353e-05
3.99263e-05
1.22514e-05
3.61254e-05
3.60741e-05
4.07707e-05
1.28213e-05
3.82414e-05
3.82406e-05
4.37333e-05
1.56772e-05
3.9788e-05
3.97982e-05
4.55835e-05
1.69228e-05
4.00739e-05
4.00249e-05
4.57481e-05
1.76776e-05
4.17519e-05
4.17964e-05
4.50566e-05
2.03155e-05
4.21767e-05
4.22287e-05
4.48186e-05
2.06973e-05
4.28401e-05
4.24841e-05
4.68992e-05
2.30228e-05
4.50504e-05
4.5173e-05
4.9334e-05
2.4745e-05
4.54987e-05
4.57981e-05
4.9294e-05
2.59228e-05
4.60207e-05
4.59517e-05
4.85472e-05
2.73956e-05
4.6187e-05
4.69286e-05
4.97348e-05
2.78431e-05
4.79995e-05
4.72511e-05
5.05331e-05
3.00654e-05
4.90569e-05
4.8732e-05
5.07041e-05
3.19848e-05
4.91547e-05
4.96342e-05
5.22179e-05
3.24319e-05
4.95788e-05
4.97483e-05
5.25283e-05
3.25516e-05
5.08051e-05
5.08435e-05
5.20655e-05
3.43982e-05
5.13088e-05
5.11858e-05
5.26092e-05
3.61298e-05
5.14584e-05
5.1276e-05
5.44579e-05
3.65015e-05
5.25334e-05
5.2665e-05
5.47687e-05
3.75598e-05
5.27017e-05
5.30333e-05
5.39787e-05
3.88124e-05
5.3302e-05
5.30476e-05
5.4258e-05
3.93422e-05
5.40678e-05
5.38719e-05
5.54909e-05
3.99497e-05
5.42975e-05
5.43009e-05
5.60141e-05
4.03012e-05
5.42405e-05
5.42073e-05
5.59336e-05
4.18884e-05
5.53786e-05
5.55856e-05
5.65346e-05
4.3129e-05
5.53575e-05
5.62213e-05
5.71135e-05
4.25465e-05
5.44699e-05
5.41779e-05
5.56135e-05
4.25259e-05
5.65997e-05
5.44763e-05
5.65966e-05
4.52271e-05
5.77577e-05
5.81241e-05
5.88203e-05
4.57729e-05
5.5743e-05
5.8182e-05
5.79707e-05
4.40112e-05
5.44762e-05
5.47639e-05
5.58042e-05
4.33885e-05
5.62429e-05
5.41342e-05
5.6488e-05
4.63475e-05
5.90215e-05
5.82463e-05
5.95179e-05
4.83811e-05
5.8955e-05
5.96138e-05
5.96202e-05
4.6692e-05
5.58241e-05
5.6787e-05
5.7434e-05
4.45506e-05
5.51399e-05
5.51522e-05
5.66165e-05
4.52966e-05
5.71782e-05
5.64247e-05
5.73675e-05
4.76273e-05
5.81298e-05
5.7817e-05
5.88119e-05
4.77396e-05
5.7989e-05
5.79858e-05
5.95719e-05
4.69663e-05
5.68439e-05
5.76654e-05
5.8388e-05
4.62086e-05
5.58276e-05
5.63415e-05
5.66886e-05
4.59993e-05
5.62293e-05
5.59704e-05
5.73484e-05
4.66502e-05
5.73647e-05
5.64507e-05
5.84586e-05
4.70558e-05
5.67825e-05
5.68334e-05
5.77028e-05
4.66528e-05
5.49774e-05
5.61405e-05
5.71491e-05
3.61084e-07
3.37614e-07
3.17169e-07
3.51972e-07
2.96143e-07
3.38574e-07
1.56726e-07
1.50537e-07
1.66136e-07
1.63675e-07
2.88354e-07
2.92e-07
3.57524e-07
3.4061e-07
3.3319e-07
3.62463e-07
3.60113e-07
3.47586e-07
5.36276e-07
3.01773e-07
4.63379e-07
2.93454e-07
3.5099e-07
3.3089e-07
2.62194e-07
5.7212e-07
2.54438e-07
5.64951e-07
2.55035e-07
2.475e-07
2.46991e-07
3.54619e-07
3.43932e-07
3.06129e-07
3.28371e-07
2.97397e-07
3.40317e-07
3.45653e-07
3.20664e-07
4.20214e-07
2.90255e-07
3.13001e-07
2.80893e-07
3.29678e-07
3.11091e-07
2.51732e-07
5.60781e-07
2.43496e-07
5.47828e-07
2.44289e-07
2.37356e-07
2.36697e-07
3.41345e-07
3.33669e-07
2.93765e-07
3.10995e-07
2.8346e-07
3.20148e-07
3.19001e-07
3.00352e-07
2.86491e-07
2.77813e-07
2.35993e-07
2.68942e-07
3.10013e-07
2.93764e-07
2.40502e-07
5.42447e-07
2.31405e-07
5.25335e-07
2.34304e-07
2.27248e-07
2.27336e-07
3.30966e-07
3.22064e-07
2.80138e-07
2.95048e-07
2.71135e-07
3.03282e-07
2.9935e-07
2.83521e-07
2.26908e-07
2.66077e-07
2.12431e-07
2.57568e-07
2.92778e-07
2.78102e-07
2.2836e-07
5.15948e-07
2.20012e-07
4.75995e-07
2.25069e-07
2.16702e-07
2.18197e-07
3.19102e-07
3.05742e-07
2.68255e-07
2.80186e-07
2.59598e-07
2.88261e-07
2.82752e-07
2.69399e-07
2.09751e-07
2.54814e-07
2.03469e-07
2.46678e-07
2.77228e-07
2.64031e-07
2.17544e-07
4.60353e-07
2.10802e-07
4.04485e-07
2.15938e-07
2.07049e-07
2.0929e-07
3.01689e-07
2.85223e-07
2.56736e-07
2.66675e-07
2.47279e-07
2.73591e-07
2.68698e-07
2.56036e-07
2.01552e-07
2.44012e-07
1.96685e-07
2.35925e-07
2.63259e-07
2.50964e-07
2.08808e-07
3.87164e-07
2.03234e-07
3.57985e-07
2.07172e-07
1.98539e-07
2.01285e-07
2.81985e-07
2.73774e-07
2.44202e-07
2.55517e-07
2.35878e-07
2.58975e-07
2.55404e-07
2.43603e-07
1.955e-07
2.33316e-07
1.92539e-07
2.25782e-07
2.50287e-07
2.39095e-07
2.01483e-07
3.52354e-07
1.964e-07
3.26393e-07
1.99605e-07
1.90667e-07
1.95175e-07
2.7293e-07
2.65029e-07
2.33275e-07
2.45899e-07
2.26491e-07
2.46131e-07
2.43135e-07
2.3269e-07
1.9178e-07
2.23519e-07
1.89325e-07
2.1719e-07
2.38565e-07
2.28734e-07
1.94691e-07
3.12584e-07
1.89716e-07
2.66091e-07
1.93929e-07
1.83774e-07
1.90767e-07
2.63024e-07
2.46133e-07
2.24783e-07
2.36711e-07
2.20263e-07
2.3544e-07
2.32409e-07
2.22965e-07
1.88616e-07
2.15282e-07
1.86727e-07
2.10083e-07
2.28312e-07
2.19245e-07
1.8812e-07
2.519e-07
1.83477e-07
2.19106e-07
1.89922e-07
1.78e-07
1.88167e-07
2.44825e-07
2.304e-07
2.18482e-07
2.28235e-07
2.12306e-07
2.25622e-07
2.22751e-07
2.13943e-07
1.86299e-07
2.08436e-07
1.85136e-07
2.03462e-07
2.18893e-07
2.10364e-07
1.8214e-07
2.11773e-07
1.7858e-07
1.99415e-07
1.8778e-07
1.73269e-07
1.86955e-07
2.29508e-07
2.20467e-07
2.10387e-07
2.20895e-07
2.06798e-07
2.17334e-07
2.13813e-07
2.06451e-07
1.84779e-07
2.02019e-07
1.84303e-07
1.98936e-07
2.10099e-07
2.02703e-07
1.77529e-07
1.9758e-07
1.74614e-07
1.94851e-07
1.86878e-07
1.68977e-07
1.87075e-07
2.2018e-07
2.14169e-07
2.06499e-07
2.14865e-07
2.0663e-07
2.12207e-07
2.06447e-07
2.00436e-07
1.84269e-07
1.98252e-07
1.84197e-07
1.9738e-07
2.02594e-07
1.96652e-07
1.73834e-07
1.94124e-07
1.71643e-07
1.92221e-07
1.87262e-07
1.65746e-07
1.881e-07
2.13981e-07
2.08685e-07
2.07048e-07
2.10766e-07
2.14152e-07
2.10788e-07
2.00561e-07
1.95925e-07
1.84161e-07
1.97293e-07
1.84701e-07
1.96899e-07
1.9672e-07
1.92237e-07
1.71065e-07
1.91773e-07
1.69922e-07
1.90123e-07
1.88541e-07
1.64152e-07
1.90339e-07
2.08677e-07
2.0403e-07
2.17357e-07
2.08749e-07
2.29902e-07
2.12761e-07
1.9626e-07
1.9373e-07
1.85066e-07
1.96826e-07
1.87799e-07
1.96692e-07
1.92522e-07
1.89673e-07
1.69685e-07
1.89412e-07
1.70028e-07
1.87739e-07
1.91179e-07
1.64734e-07
1.94393e-07
2.04194e-07
2.00806e-07
2.36363e-07
2.08967e-07
2.65458e-07
2.19817e-07
1.94558e-07
1.94751e-07
1.88937e-07
1.96966e-07
1.94086e-07
1.99371e-07
1.90385e-07
1.90324e-07
1.7038e-07
1.8756e-07
1.73067e-07
1.88595e-07
1.95544e-07
1.67962e-07
1.9979e-07
2.01326e-07
2.00513e-07
2.79001e-07
2.11596e-07
3.26708e-07
2.34551e-07
1.96403e-07
2.00394e-07
1.95925e-07
2.01092e-07
2.03984e-07
2.0856e-07
1.91884e-07
1.95749e-07
1.74436e-07
1.89438e-07
1.80865e-07
1.95079e-07
2.00994e-07
1.7518e-07
2.08072e-07
2.01898e-07
2.05749e-07
3.41674e-07
2.18434e-07
3.80616e-07
2.48215e-07
2.038e-07
2.14304e-07
2.07716e-07
2.10737e-07
2.21447e-07
2.24947e-07
1.98411e-07
2.11096e-07
1.83761e-07
1.97821e-07
1.95345e-07
2.09156e-07
2.09649e-07
1.90085e-07
2.21282e-07
2.08932e-07
2.19044e-07
3.88162e-07
2.31589e-07
4.00611e-07
2.59906e-07
2.20933e-07
2.4368e-07
2.2738e-07
2.278e-07
2.49061e-07
2.51703e-07
2.16769e-07
2.42002e-07
2.00615e-07
2.14336e-07
2.20406e-07
2.33842e-07
2.24325e-07
2.16689e-07
2.45994e-07
2.25291e-07
2.48318e-07
4.00509e-07
2.55126e-07
3.97681e-07
2.82273e-07
2.55581e-07
3.01861e-07
2.59018e-07
2.62203e-07
2.92592e-07
2.83744e-07
2.5924e-07
2.87665e-07
2.29599e-07
2.41909e-07
2.61694e-07
2.75797e-07
2.57567e-07
2.5101e-07
2.74238e-07
2.58779e-07
3.06951e-07
4.01686e-07
2.967e-07
4.1256e-07
3.16939e-07
3.21301e-07
4.21232e-07
3.05557e-07
3.02748e-07
3.66805e-07
3.6021e-07
3.06738e-07
4.27643e-07
2.74299e-07
2.89826e-07
3.31371e-07
3.43399e-07
2.92368e-07
3.26382e-07
3.71162e-07
3.26855e-07
4.18719e-07
4.25173e-07
3.64137e-07
5.11838e-07
5.20932e-07
4.58707e-07
6.02466e-07
3.87061e-07
3.68873e-07
4.69698e-07
4.7603e-07
4.46565e-07
6.47693e-07
3.50936e-07
3.63652e-07
4.27469e-07
4.5134e-07
3.88875e-07
4.40352e-07
4.2984e-07
4.5135e-07
6.2935e-07
5.21714e-07
4.70472e-07
5.86246e-07
5.85326e-07
6.6622e-07
9.77722e-07
5.04355e-07
5.00156e-07
6.31115e-07
6.00559e-07
7.36987e-07
8.73408e-07
4.63303e-07
4.80994e-07
5.84751e-07
5.96191e-07
4.57932e-07
5.84713e-07
6.42114e-07
6.89302e-07
9.42051e-07
6.17579e-07
6.1362e-07
8.02837e-07
1.11993e-06
1.07067e-06
1.52546e-06
6.77633e-07
6.53829e-07
8.58136e-07
8.22697e-07
1.0158e-06
1.53365e-06
6.27895e-07
6.48251e-07
8.00587e-07
8.25561e-07
6.78017e-07
8.02563e-07
7.82428e-07
1.04864e-06
1.55611e-06
8.44086e-07
8.3935e-07
9.07916e-07
1.37509e-06
1.67815e-06
2.35912e-06
9.23664e-07
9.2598e-07
1.16137e-06
1.09046e-06
1.64308e-06
2.43931e-06
8.61628e-07
8.84504e-07
1.09309e-06
1.10966e-06
9.04429e-07
1.07078e-06
1.14434e-06
1.68615e-06
2.31815e-06
1.01961e-06
1.12552e-06
1.27164e-06
2.66392e-06
2.57045e-06
3.61763e-06
1.26079e-06
1.13229e-06
1.56191e-06
1.61766e-06
2.49456e-06
3.95302e-06
1.19071e-06
1.21426e-06
1.46531e-06
1.5031e-06
1.20001e-06
1.6017e-06
1.47098e-06
2.53474e-06
3.64921e-06
1.28619e-06
1.51082e-06
1.49723e-06
3.39988e-06
3.86293e-06
5.24027e-06
1.66739e-06
1.71332e-06
2.09667e-06
1.87527e-06
4.40026e-06
4.76143e-06
1.57459e-06
1.61638e-06
1.99427e-06
2.00571e-06
1.59274e-06
1.87402e-06
2.02697e-06
3.90451e-06
5.19396e-06
1.63773e-06
2.02467e-06
2.20175e-06
5.22399e-06
5.63629e-06
7.11444e-06
2.24271e-06
2.06593e-06
2.65154e-06
2.69169e-06
4.95567e-06
7.74895e-06
2.1303e-06
2.15279e-06
2.54256e-06
2.59507e-06
2.17659e-06
2.67996e-06
2.6017e-06
5.57179e-06
7.13897e-06
2.33048e-06
2.6032e-06
2.67173e-06
7.18335e-06
7.49183e-06
9.55966e-06
2.83912e-06
2.87221e-06
3.46075e-06
3.25151e-06
8.22925e-06
9.29551e-06
2.71084e-06
2.75195e-06
3.31559e-06
3.34256e-06
2.76228e-06
3.22902e-06
3.39529e-06
7.5214e-06
9.51218e-06
2.83976e-06
3.32889e-06
3.33889e-06
9.66171e-06
1.00792e-05
1.19372e-05
3.63586e-06
3.4006e-06
4.26836e-06
4.11626e-06
9.58734e-06
1.15864e-05
3.53203e-06
3.54533e-06
4.11548e-06
4.15313e-06
3.61632e-06
4.09907e-06
4.07507e-06
9.99962e-06
1.19295e-05
3.52322e-06
4.17669e-06
4.09497e-06
1.16947e-05
1.23775e-05
1.43344e-05
4.49866e-06
4.41787e-06
5.21548e-06
5.29474e-06
1.22901e-05
1.48849e-05
4.30156e-06
4.36252e-06
5.0592e-06
5.17036e-06
4.29159e-06
5.30753e-06
5.27122e-06
1.23981e-05
1.43843e-05
4.3078e-06
5.15568e-06
5.18933e-06
1.44718e-05
1.48966e-05
1.7016e-05
5.4847e-06
5.46885e-06
6.39466e-06
6.04691e-06
1.52912e-05
1.6503e-05
5.37446e-06
5.4392e-06
6.26922e-06
6.20922e-06
5.58817e-06
6.00984e-06
6.27809e-06
1.49144e-05
1.68801e-05
5.504e-06
6.20588e-06
6.25207e-06
1.70331e-05
1.74536e-05
1.8749e-05
6.6531e-06
6.41403e-06
7.35103e-06
7.60456e-06
1.69708e-05
1.91713e-05
6.50944e-06
6.55188e-06
7.25461e-06
7.56053e-06
6.5051e-06
7.57626e-06
7.37399e-06
1.73749e-05
1.90485e-05
6.4807e-06
7.51379e-06
7.36433e-06
1.87587e-05
1.9204e-05
2.11383e-05
7.67146e-06
7.87626e-06
8.77586e-06
8.70808e-06
1.9724e-05
2.10903e-05
7.57508e-06
7.78097e-06
8.77486e-06
8.59406e-06
7.70132e-06
8.65867e-06
8.76327e-06
1.94779e-05
2.10948e-05
7.701e-06
8.66043e-06
8.72007e-06
2.11401e-05
2.16363e-05
2.30228e-05
9.187e-06
9.0934e-06
1.02761e-05
1.02196e-05
2.14545e-05
2.29655e-05
9.17677e-06
9.0781e-06
1.01469e-05
1.05421e-05
9.17059e-06
1.02393e-05
1.02701e-05
2.15748e-05
2.29726e-05
9.09465e-06
1.04318e-05
1.01704e-05
2.29899e-05
2.33817e-05
2.45827e-05
1.05847e-05
1.06259e-05
1.18481e-05
1.19946e-05
2.3455e-05
2.46775e-05
1.04967e-05
1.07567e-05
1.16882e-05
1.12444e-05
1.06789e-05
1.18238e-05
1.17225e-05
2.32842e-05
2.43944e-05
1.05934e-05
1.12333e-05
1.16763e-05
2.46393e-05
2.49758e-05
2.60919e-05
1.22303e-05
1.22831e-05
1.31169e-05
1.29827e-05
2.495e-05
2.59603e-05
1.20788e-05
1.188e-05
1.32004e-05
1.44423e-05
1.2039e-05
1.29433e-05
1.3447e-05
2.48619e-05
2.66725e-05
1.20173e-05
1.39009e-05
1.3429e-05
2.62145e-05
2.6463e-05
2.7743e-05
1.36135e-05
1.35045e-05
1.52872e-05
1.5786e-05
2.64293e-05
2.80344e-05
1.37037e-05
1.50533e-05
1.52694e-05
1.58886e-05
1.39079e-05
1.55238e-05
1.49535e-05
2.70185e-05
2.76783e-05
1.38708e-05
1.49244e-05
1.49256e-05
2.7583e-05
2.8058e-05
2.88507e-05
1.5653e-05
1.64297e-05
1.67185e-05
1.72247e-05
2.83746e-05
2.89352e-05
1.56276e-05
1.59513e-05
1.65338e-05
1.62182e-05
1.54376e-05
1.67215e-05
1.69673e-05
2.79316e-05
2.86951e-05
1.5415e-05
1.68305e-05
1.68752e-05
2.90018e-05
2.91524e-05
3.0191e-05
1.72605e-05
1.72932e-05
1.85428e-05
1.82496e-05
2.9136e-05
2.9984e-05
1.70774e-05
1.66059e-05
1.855e-05
1.86361e-05
1.73222e-05
1.83807e-05
1.84598e-05
2.89908e-05
3.01521e-05
1.72555e-05
1.83485e-05
1.85042e-05
3.01543e-05
3.04755e-05
3.13668e-05
1.88676e-05
1.88255e-05
2.04885e-05
2.03605e-05
3.0347e-05
3.13447e-05
1.89145e-05
1.94799e-05
2.05112e-05
2.11374e-05
1.90377e-05
2.0328e-05
2.06253e-05
3.05461e-05
3.15709e-05
1.90315e-05
2.06527e-05
2.05651e-05
3.14595e-05
3.16808e-05
3.255e-05
2.10045e-05
2.08239e-05
2.20245e-05
2.2549e-05
3.16297e-05
3.27673e-05
2.09971e-05
2.12836e-05
2.19633e-05
2.21377e-05
2.08976e-05
2.22389e-05
2.19914e-05
3.17782e-05
3.24844e-05
2.08739e-05
2.19958e-05
2.19374e-05
3.24938e-05
3.28191e-05
3.39607e-05
2.25184e-05
2.31936e-05
2.4549e-05
2.43983e-05
3.311e-05
3.38152e-05
2.24453e-05
2.28593e-05
2.45091e-05
2.4419e-05
2.26771e-05
2.43739e-05
2.45167e-05
3.28354e-05
3.38346e-05
2.25946e-05
2.43094e-05
2.45096e-05
3.39163e-05
3.42124e-05
3.45766e-05
2.49846e-05
2.45077e-05
2.53928e-05
2.52747e-05
3.39551e-05
3.44995e-05
2.49641e-05
2.45512e-05
2.53914e-05
2.53674e-05
2.47328e-05
2.51898e-05
2.52346e-05
3.39951e-05
3.4608e-05
2.47659e-05
2.54159e-05
2.52131e-05
3.4571e-05
3.47533e-05
3.61724e-05
2.56385e-05
2.59769e-05
2.79188e-05
2.79206e-05
3.4848e-05
3.61638e-05
2.5658e-05
2.62346e-05
2.77534e-05
2.7812e-05
2.59106e-05
2.79635e-05
2.81271e-05
3.49903e-05
3.61074e-05
2.57992e-05
2.79437e-05
2.80364e-05
3.62263e-05
3.64334e-05
3.67515e-05
2.83601e-05
2.81668e-05
2.88203e-05
2.8704e-05
3.63365e-05
3.66358e-05
2.82562e-05
2.79809e-05
2.88404e-05
2.8819e-05
2.85003e-05
2.86878e-05
2.88848e-05
3.62408e-05
3.66478e-05
2.83874e-05
2.85427e-05
2.88502e-05
3.68439e-05
3.6909e-05
3.82606e-05
2.91609e-05
2.91651e-05
3.09682e-05
3.11772e-05
3.68502e-05
3.84426e-05
2.91471e-05
2.93246e-05
3.09914e-05
3.11983e-05
2.91871e-05
3.11644e-05
3.09695e-05
3.69589e-05
3.8431e-05
2.93435e-05
3.13149e-05
3.0972e-05
3.79778e-05
3.85824e-05
3.92078e-05
3.15115e-05
3.1755e-05
3.25921e-05
3.24584e-05
3.87416e-05
3.9038e-05
3.14559e-05
3.17071e-05
3.24621e-05
3.22436e-05
3.11692e-05
3.24633e-05
3.1618e-05
3.86527e-05
3.8854e-05
3.11153e-05
3.21795e-05
3.14841e-05
3.82574e-05
3.93604e-05
3.99877e-05
3.28723e-05
3.24979e-05
3.37093e-05
3.34167e-05
3.90857e-05
3.99427e-05
3.27866e-05
3.23031e-05
3.35984e-05
3.37147e-05
3.25513e-05
3.32754e-05
3.55517e-05
3.89303e-05
4.01991e-05
3.23908e-05
3.36333e-05
3.55331e-05
4.24285e-05
4.0204e-05
4.11941e-05
3.40006e-05
3.42729e-05
3.53207e-05
3.58479e-05
4.04374e-05
4.1526e-05
3.39695e-05
3.45252e-05
3.54535e-05
3.59089e-05
3.56943e-05
3.59226e-05
3.52863e-05
4.06944e-05
4.15307e-05
3.5675e-05
3.59456e-05
3.52387e-05
4.00441e-05
4.14443e-05
4.19e-05
3.57998e-05
3.60088e-05
3.64409e-05
3.60444e-05
4.158e-05
4.13872e-05
3.58868e-05
3.602e-05
3.64173e-05
3.60425e-05
3.50395e-05
3.61089e-05
3.49146e-05
4.1562e-05
4.13516e-05
3.49966e-05
3.60537e-05
3.48965e-05
4.0335e-05
4.19805e-05
4.27048e-05
3.64876e-05
3.60614e-05
3.73877e-05
3.77056e-05
4.14644e-05
4.31583e-05
3.6466e-05
3.60904e-05
3.73313e-05
3.75159e-05
3.50237e-05
3.73714e-05
3.75842e-05
4.14799e-05
4.30288e-05
3.50195e-05
3.7424e-05
3.75078e-05
4.32958e-05
4.30989e-05
4.43982e-05
3.81072e-05
3.84784e-05
3.96964e-05
3.95525e-05
4.36099e-05
4.42097e-05
3.79789e-05
3.81274e-05
3.96452e-05
3.95639e-05
3.84749e-05
3.96365e-05
4.04045e-05
4.34136e-05
4.42556e-05
3.83609e-05
3.96286e-05
4.04767e-05
4.53132e-05
4.4511e-05
4.44446e-05
3.99143e-05
3.96223e-05
4.0011e-05
3.9692e-05
4.42436e-05
4.42837e-05
3.99223e-05
3.97977e-05
4.00935e-05
3.99654e-05
4.07888e-05
3.99464e-05
4.11865e-05
4.43435e-05
4.43712e-05
4.09474e-05
3.99396e-05
4.14386e-05
4.57741e-05
4.44729e-05
4.56643e-05
4.00179e-05
3.98513e-05
4.11885e-05
4.1565e-05
4.44908e-05
4.58751e-05
4.01065e-05
4.00272e-05
4.11688e-05
4.13507e-05
4.11766e-05
4.13998e-05
4.09959e-05
4.44599e-05
4.57498e-05
4.1428e-05
4.1407e-05
4.10382e-05
4.50535e-05
4.59773e-05
4.62277e-05
4.17681e-05
4.19167e-05
4.24589e-05
4.22378e-05
4.60269e-05
4.59651e-05
4.17174e-05
4.18082e-05
4.23561e-05
4.23421e-05
4.0998e-05
4.21641e-05
4.11243e-05
4.59783e-05
4.60735e-05
4.09645e-05
4.22247e-05
4.08583e-05
4.47844e-05
4.6244e-05
4.66532e-05
4.24808e-05
4.22367e-05
4.26119e-05
4.23787e-05
4.5977e-05
4.64984e-05
4.2371e-05
4.23457e-05
4.25868e-05
4.241e-05
4.11945e-05
4.23685e-05
4.23662e-05
4.60843e-05
4.63714e-05
4.08537e-05
4.22644e-05
4.17655e-05
4.63011e-05
4.69809e-05
4.7875e-05
4.29685e-05
4.28392e-05
4.4259e-05
4.46111e-05
4.68987e-05
4.82562e-05
4.30814e-05
4.27226e-05
4.4418e-05
4.46972e-05
4.30969e-05
4.47007e-05
4.52226e-05
4.67236e-05
4.84051e-05
4.27517e-05
4.46942e-05
4.53374e-05
4.90938e-05
4.79497e-05
4.85023e-05
4.44817e-05
4.4923e-05
4.52756e-05
4.52528e-05
4.83803e-05
4.8531e-05
4.45633e-05
4.50493e-05
4.51298e-05
4.54186e-05
4.56508e-05
4.54068e-05
4.60144e-05
4.85593e-05
4.86064e-05
4.58695e-05
4.57582e-05
4.63902e-05
4.93319e-05
4.87735e-05
4.941e-05
4.55948e-05
4.54054e-05
4.62828e-05
4.61592e-05
4.86186e-05
4.91275e-05
4.54353e-05
4.54322e-05
4.62614e-05
4.56134e-05
4.59918e-05
4.59273e-05
4.55835e-05
4.86233e-05
4.88714e-05
4.6381e-05
4.58632e-05
4.59417e-05
4.85421e-05
4.94483e-05
4.9203e-05
4.63763e-05
4.63162e-05
4.64158e-05
4.6418e-05
4.91973e-05
4.91297e-05
4.64382e-05
4.59885e-05
4.66273e-05
4.69856e-05
4.55429e-05
4.61126e-05
4.61737e-05
4.90856e-05
4.98158e-05
4.58435e-05
4.671e-05
4.59831e-05
4.93612e-05
4.92079e-05
4.97327e-05
4.64053e-05
4.64197e-05
4.66951e-05
4.68761e-05
4.91602e-05
5.0213e-05
4.66252e-05
4.71334e-05
4.67242e-05
4.72515e-05
4.67701e-05
4.74714e-05
4.77392e-05
4.98966e-05
4.99039e-05
4.6482e-05
4.71713e-05
4.76928e-05
5.04943e-05
5.01367e-05
5.19092e-05
4.73674e-05
4.75063e-05
4.92457e-05
4.89114e-05
5.05891e-05
5.15023e-05
4.70491e-05
4.72876e-05
4.88722e-05
4.8172e-05
4.78433e-05
4.89484e-05
4.80695e-05
4.99636e-05
5.10614e-05
4.78039e-05
4.83064e-05
4.79323e-05
5.05382e-05
5.20995e-05
5.1936e-05
4.95406e-05
4.91754e-05
4.97252e-05
4.95518e-05
5.15827e-05
5.16514e-05
4.92724e-05
4.86242e-05
4.96692e-05
4.94739e-05
4.83192e-05
4.91344e-05
4.9296e-05
5.13354e-05
5.18082e-05
4.8123e-05
4.95333e-05
4.96118e-05
5.20002e-05
5.18893e-05
5.13621e-05
4.9686e-05
4.95763e-05
4.92988e-05
4.95093e-05
5.16723e-05
5.16477e-05
4.96681e-05
4.95891e-05
4.95385e-05
4.97039e-05
4.96152e-05
4.93839e-05
5.02074e-05
5.18353e-05
5.18385e-05
4.99369e-05
4.97082e-05
5.02708e-05
5.25203e-05
5.13816e-05
5.22327e-05
4.92521e-05
4.94729e-05
4.94458e-05
4.96857e-05
5.16941e-05
5.25344e-05
4.95285e-05
4.97718e-05
4.98829e-05
5.06003e-05
5.02511e-05
5.0516e-05
5.01803e-05
5.19555e-05
5.2986e-05
5.0268e-05
5.05579e-05
5.00463e-05
5.20772e-05
5.25694e-05
5.34381e-05
4.9962e-05
5.02065e-05
5.13542e-05
5.14505e-05
5.28192e-05
5.34054e-05
5.03815e-05
5.08963e-05
5.13521e-05
5.13121e-05
5.0124e-05
5.12669e-05
5.02638e-05
5.31671e-05
5.31858e-05
4.9989e-05
5.11697e-05
5.00619e-05
5.23002e-05
5.35128e-05
5.35996e-05
5.16033e-05
5.16364e-05
5.19544e-05
5.18494e-05
5.34386e-05
5.34204e-05
5.15055e-05
5.13418e-05
5.16847e-05
5.13595e-05
5.06839e-05
5.13683e-05
5.20625e-05
5.3183e-05
5.30664e-05
5.03894e-05
5.12101e-05
5.20335e-05
5.41962e-05
5.36411e-05
5.39432e-05
5.19874e-05
5.18731e-05
5.21539e-05
5.21464e-05
5.34882e-05
5.40965e-05
5.16925e-05
5.13735e-05
5.17877e-05
5.18592e-05
5.23817e-05
5.23496e-05
5.27516e-05
5.31529e-05
5.41248e-05
5.24651e-05
5.23682e-05
5.30233e-05
5.47902e-05
5.40953e-05
5.45857e-05
5.23352e-05
5.23295e-05
5.27667e-05
5.26157e-05
5.42068e-05
5.42874e-05
5.20222e-05
5.22357e-05
5.29573e-05
5.30539e-05
5.27483e-05
5.26918e-05
5.24901e-05
5.43442e-05
5.46787e-05
5.30302e-05
5.30083e-05
5.27144e-05
5.40083e-05
5.46585e-05
5.49919e-05
5.28391e-05
5.26458e-05
5.31139e-05
5.30037e-05
5.43078e-05
5.47958e-05
5.31576e-05
5.31979e-05
5.35497e-05
5.33648e-05
5.24256e-05
5.30085e-05
5.24868e-05
5.47056e-05
5.47448e-05
5.25699e-05
5.30417e-05
5.24195e-05
5.40688e-05
5.50987e-05
5.5352e-05
5.32815e-05
5.322e-05
5.38416e-05
5.39266e-05
5.49871e-05
5.55247e-05
5.36432e-05
5.34486e-05
5.3788e-05
5.39405e-05
5.27711e-05
5.39355e-05
5.38215e-05
5.48212e-05
5.54771e-05
5.24327e-05
5.3537e-05
5.32861e-05
5.52987e-05
5.53764e-05
5.52062e-05
5.396e-05
5.41224e-05
5.40465e-05
5.43915e-05
5.56085e-05
5.57698e-05
5.37914e-05
5.40235e-05
5.37287e-05
5.40111e-05
5.40319e-05
5.42895e-05
5.44132e-05
5.56096e-05
5.55384e-05
5.37249e-05
5.42954e-05
5.46107e-05
5.59644e-05
5.51966e-05
5.50966e-05
5.40382e-05
5.43919e-05
5.39859e-05
5.42664e-05
5.57815e-05
5.54949e-05
5.36711e-05
5.38993e-05
5.35811e-05
5.36471e-05
5.44673e-05
5.42398e-05
5.44815e-05
5.54994e-05
5.5069e-05
5.47311e-05
5.42162e-05
5.47632e-05
5.59359e-05
5.52296e-05
5.70334e-05
5.4022e-05
5.42615e-05
5.52967e-05
5.49537e-05
5.54984e-05
5.65759e-05
5.36331e-05
5.36532e-05
5.54243e-05
5.52442e-05
5.4474e-05
5.50494e-05
5.48612e-05
5.5081e-05
5.69062e-05
5.4724e-05
5.49557e-05
5.47872e-05
5.62742e-05
5.72952e-05
5.74327e-05
5.56608e-05
5.5243e-05
5.58582e-05
5.53033e-05
5.67847e-05
5.6508e-05
5.59733e-05
5.59974e-05
5.64381e-05
5.67428e-05
5.52696e-05
5.55448e-05
5.57609e-05
5.73142e-05
5.80595e-05
5.50627e-05
5.62709e-05
5.57225e-05
5.71279e-05
5.71866e-05
5.53616e-05
5.56721e-05
5.50159e-05
5.45503e-05
5.43674e-05
5.62551e-05
5.51524e-05
5.63372e-05
5.66618e-05
5.45972e-05
5.44173e-05
5.5741e-05
5.45006e-05
5.48843e-05
5.79257e-05
5.5028e-05
5.57143e-05
5.45792e-05
5.48678e-05
5.57162e-05
5.52819e-05
5.64205e-05
5.44638e-05
5.43828e-05
5.51612e-05
5.63986e-05
5.51762e-05
5.80231e-05
5.42888e-05
5.39042e-05
5.43447e-05
5.37204e-05
5.46884e-05
5.56975e-05
5.47352e-05
5.47906e-05
5.51423e-05
5.46282e-05
5.40426e-05
5.46097e-05
5.61005e-05
5.69844e-05
5.8884e-05
5.60696e-05
5.72244e-05
5.75769e-05
5.80498e-05
5.85215e-05
5.94065e-05
5.49788e-05
5.42175e-05
5.74869e-05
5.7762e-05
5.52128e-05
5.77501e-05
5.72274e-05
5.58416e-05
5.93746e-05
5.50097e-05
5.76092e-05
5.72673e-05
5.8684e-05
5.8971e-05
5.81378e-05
5.76869e-05
5.80064e-05
5.72503e-05
5.59507e-05
5.92748e-05
5.64662e-05
5.77976e-05
5.83351e-05
5.78389e-05
5.86644e-05
5.74906e-05
5.64839e-05
5.74899e-05
5.9656e-05
5.95691e-05
5.75888e-05
5.84102e-05
5.76607e-05
5.82805e-05
5.78223e-05
5.58374e-05
5.65266e-05
5.51721e-05
5.48727e-05
5.4061e-05
5.60741e-05
5.48961e-05
5.75201e-05
5.84332e-05
5.5386e-05
5.54223e-05
5.70981e-05
5.45569e-05
5.52961e-05
5.91925e-05
5.58021e-05
5.7351e-05
5.54205e-05
5.53619e-05
5.59339e-05
5.56968e-05
5.56612e-05
5.46087e-05
5.40125e-05
5.45296e-05
5.52599e-05
5.4915e-05
5.71642e-05
5.49405e-05
5.46771e-05
5.45118e-05
5.38518e-05
5.50068e-05
5.51682e-05
5.48966e-05
5.54598e-05
5.464e-05
5.5003e-05
5.40733e-05
5.47735e-05
5.6066e-05
5.60052e-05
5.92986e-05
5.49235e-05
5.64923e-05
5.81587e-05
5.9103e-05
5.782e-05
6.03578e-05
5.4586e-05
5.38979e-05
5.73954e-05
5.70245e-05
5.52148e-05
5.86504e-05
5.78258e-05
5.48148e-05
5.88906e-05
5.497e-05
5.7152e-05
5.76503e-05
5.92369e-05
5.97378e-05
6.06539e-05
5.88767e-05
5.94955e-05
5.95853e-05
5.96369e-05
6.0544e-05
6.0127e-05
5.83524e-05
5.82627e-05
5.94958e-05
5.98498e-05
5.83507e-05
5.91999e-05
5.87999e-05
5.95107e-05
6.10074e-05
5.82868e-05
5.96059e-05
5.89036e-05
5.97879e-05
6.05895e-05
5.73853e-05
5.95134e-05
5.92702e-05
5.68813e-05
5.62081e-05
5.97393e-05
5.66506e-05
5.94901e-05
5.98728e-05
5.75068e-05
5.8038e-05
5.87381e-05
5.64407e-05
5.71035e-05
6.09997e-05
5.80479e-05
5.88705e-05
5.78051e-05
5.73239e-05
5.76673e-05
5.69314e-05
5.56801e-05
5.59766e-05
5.55207e-05
5.48518e-05
5.47996e-05
5.63558e-05
5.57421e-05
5.64692e-05
5.68694e-05
5.49938e-05
5.50531e-05
5.6542e-05
5.51246e-05
5.56576e-05
5.75254e-05
5.58751e-05
5.66824e-05
5.52387e-05
5.56311e-05
5.66187e-05
5.57114e-05
5.78281e-05
5.4846e-05
5.48321e-05
5.63724e-05
5.66512e-05
5.59091e-05
5.81471e-05
5.49392e-05
5.4937e-05
5.59635e-05
5.55319e-05
5.55941e-05
5.65742e-05
5.58709e-05
5.58735e-05
5.72598e-05
5.55424e-05
5.57646e-05
5.57318e-05
5.71313e-05
5.82433e-05
5.92749e-05
5.71431e-05
5.73227e-05
5.82498e-05
5.82443e-05
5.8485e-05
5.9238e-05
5.68015e-05
5.63092e-05
5.80802e-05
5.76964e-05
5.63197e-05
5.80663e-05
5.75837e-05
5.76419e-05
5.87371e-05
5.61734e-05
5.76372e-05
5.75134e-05
5.85853e-05
5.92958e-05
5.87261e-05
5.8308e-05
5.82903e-05
5.79956e-05
5.80517e-05
5.92528e-05
5.88794e-05
5.81706e-05
5.78694e-05
5.80071e-05
5.79537e-05
5.78977e-05
5.80787e-05
5.83478e-05
5.88166e-05
5.88782e-05
5.78582e-05
5.79773e-05
5.83844e-05
5.95156e-05
5.86446e-05
5.80896e-05
5.77149e-05
5.78376e-05
5.70665e-05
5.70017e-05
5.88371e-05
5.79734e-05
5.7767e-05
5.79226e-05
5.72248e-05
5.76344e-05
5.83749e-05
5.72201e-05
5.79094e-05
5.88841e-05
5.87378e-05
5.84283e-05
5.78985e-05
5.81125e-05
5.87036e-05
5.80554e-05
5.74139e-05
5.68786e-05
5.66796e-05
5.62651e-05
5.59209e-05
5.7818e-05
5.68552e-05
5.71068e-05
5.75123e-05
5.65738e-05
5.68755e-05
5.72681e-05
5.59388e-05
5.59281e-05
5.8668e-05
5.77154e-05
5.74828e-05
5.65938e-05
5.59771e-05
5.67569e-05
5.73608e-05
5.71276e-05
5.61412e-05
5.58283e-05
5.60448e-05
5.58893e-05
5.682e-05
5.71561e-05
5.63978e-05
5.66444e-05
5.60805e-05
5.60551e-05
5.57739e-05
5.58796e-05
5.58249e-05
5.76273e-05
5.70807e-05
5.57774e-05
5.59758e-05
5.57271e-05
5.70458e-05
5.71758e-05
5.78191e-05
5.61116e-05
5.6236e-05
5.68149e-05
5.72311e-05
5.74505e-05
5.85281e-05
5.60749e-05
5.59778e-05
5.6353e-05
5.59327e-05
5.61957e-05
5.72514e-05
5.71521e-05
5.70769e-05
5.72027e-05
5.59664e-05
5.62223e-05
5.70137e-05
5.84003e-05
5.79353e-05
5.80684e-05
5.69607e-05
5.73529e-05
5.70138e-05
5.72474e-05
5.86086e-05
5.81357e-05
5.66025e-05
5.60155e-05
5.69113e-05
5.66686e-05
5.72378e-05
5.71938e-05
5.69553e-05
5.73073e-05
5.78034e-05
5.71413e-05
5.67606e-05
5.70282e-05
5.78671e-05
5.80465e-05
5.7752e-05
5.69124e-05
5.68901e-05
5.64707e-05
5.60304e-05
5.79166e-05
5.69529e-05
5.69249e-05
5.68873e-05
5.68389e-05
5.72897e-05
5.66049e-05
5.59533e-05
5.60557e-05
5.7911e-05
5.84642e-05
5.67618e-05
5.70191e-05
5.62863e-05
5.71505e-05
5.77124e-05
5.55013e-05
5.50287e-05
5.69184e-05
5.58452e-05
5.63895e-05
4.60626e-05
4.71054e-05
4.62807e-05
5.5143e-05
5.84614e-05
5.53338e-05
3.44111e-08
2.3487e-07
4.07243e-08
4.48854e-08
2.87328e-07
2.77556e-07
1.24607e-07
1.15393e-07
2.73491e-07
3.42032e-07
1.255e-07
4.53488e-07
3.6942e-07
2.19812e-07
4.03826e-07
2.99402e-07
5.69686e-06
2.61545e-07
7.59397e-06
1.32817e-05
2.07143e-05
3.60289e-07
4.83914e-06
3.2252e-07
6.4656e-06
1.53586e-07
1.69636e-07
1.6682e-07
1.59461e-07
1.53469e-07
1.69489e-07
1.67117e-07
2.69289e-07
5.03358e-07
2.19881e-07
2.52717e-07
2.75284e-07
4.90243e-07
2.19221e-07
1.45405e-05
2.20468e-05
2.55399e-07
2.44085e-07
7.05318e-07
3.37405e-07
2.61359e-07
2.43027e-07
6.73864e-07
1.84718e-06
1.90337e-06
3.51924e-07
1.81647e-06
1.87574e-06
4.95351e-07
1.12599e-05
4.0715e-07
1.40628e-05
3.57708e-05
4.5668e-05
5.5237e-07
9.52448e-06
4.658e-07
1.21964e-05
1.52361e-07
1.68063e-07
1.66149e-07
1.53406e-07
1.48976e-07
1.63727e-07
1.63151e-07
2.54767e-07