/*--------------------------------*- C++ -*----------------------------------*\
| =========                 |                                                 |
| \\      /  F ield         | OpenFOAM: The Open Source CFD Toolbox           |
|  \\    /   O peration     | Version:  v2012                                 |
|   \\  /    A nd           | Website:  www.openfoam.com                      |
|    \\/     M anipulation  |                                                 |
\*---------------------------------------------------------------------------*/
FoamFile
{
    version     2.0;
    format      ascii;
    class       volScalarField;
    location    "1562.5";
    object      nut;
}
// * * * * * * * * * * * * * * * * * * * * * * * * * * * * * * * * * * * * * //

dimensions      [0 2 -1 0 0 0 0];


internalField   nonuniform List<scalar> 
171728
(
1.71423e-06
1.75737e-06
2.16192e-06
2.28737e-06
1.73332e-06
1.74709e-06
2.13992e-06
2.23263e-06
1.69188e-06
1.75097e-06
2.12112e-06
2.19153e-06
1.7114e-06
1.74017e-06
2.09609e-06
2.16504e-06
1.72748e-06
1.71091e-06
2.06552e-06
2.13777e-06
1.73322e-06
1.68243e-06
2.03156e-06
2.09154e-06
1.73371e-06
1.65057e-06
2.00909e-06
2.02222e-06
1.72825e-06
1.60168e-06
1.97762e-06
1.94982e-06
1.72097e-06
1.54058e-06
1.9222e-06
1.87811e-06
1.71264e-06
1.47366e-06
1.85223e-06
1.78813e-06
1.70533e-06
1.40007e-06
1.77123e-06
1.69486e-06
1.69757e-06
1.3121e-06
1.68497e-06
1.62831e-06
1.68547e-06
1.22033e-06
1.59746e-06
1.60376e-06
1.67054e-06
1.13517e-06
1.51097e-06
1.60668e-06
1.65196e-06
1.05068e-06
1.41972e-06
1.64081e-06
1.62705e-06
9.7011e-07
1.32282e-06
1.70714e-06
1.60347e-06
9.03745e-07
1.2337e-06
1.66882e-06
1.57533e-06
8.7342e-07
1.17564e-06
1.5162e-06
1.54945e-06
9.29964e-07
1.15716e-06
1.46201e-06
1.52274e-06
9.85184e-07
1.23192e-06
1.23555e-06
1.48703e-06
1.15642e-06
1.40102e-06
2.28768e-06
1.44991e-06
1.55163e-06
1.72978e-06
2.03649e-06
1.39449e-06
2.09503e-06
2.21815e-06
4.63369e-06
1.30781e-06
3.02348e-06
2.95283e-06
4.48552e-06
1.22688e-06
3.37539e-06
4.0079e-06
9.66111e-06
1.13355e-06
5.86665e-06
5.26979e-06
1.19398e-05
1.06869e-06
6.47669e-06
7.1379e-06
1.77319e-05
1.01505e-06
9.76605e-06
9.10085e-06
2.31706e-05
1.04109e-06
1.1023e-05
1.17141e-05
3.2174e-05
1.03209e-06
1.4401e-05
1.45441e-05
3.67451e-05
1.151e-06
1.89529e-05
1.83406e-05
4.54415e-05
1.36571e-06
2.09535e-05
2.19507e-05
5.31191e-05
1.49205e-06
2.71821e-05
2.63727e-05
5.69598e-05
2.03711e-06
3.01354e-05
3.08972e-05
6.44425e-05
2.53109e-06
3.65465e-05
3.67278e-05
6.96061e-05
3.45466e-06
4.17097e-05
3.94836e-05
7.42829e-05
3.87564e-06
4.47319e-05
4.93136e-05
7.93255e-05
5.99404e-06
5.56461e-05
5.2412e-05
8.31091e-05
6.65057e-06
5.78649e-05
5.84839e-05
8.7825e-05
8.5062e-06
6.41547e-05
6.3973e-05
9.13842e-05
1.17959e-05
6.99207e-05
7.15243e-05
9.56086e-05
1.22901e-05
7.80399e-05
7.67756e-05
9.90632e-05
1.90672e-05
8.42621e-05
8.36284e-05
0.000104032
1.88068e-05
8.60948e-05
8.78251e-05
0.000105711
2.5525e-05
9.79337e-05
9.69584e-05
0.000112092
2.75529e-05
9.5888e-05
9.65873e-05
0.000114049
3.37353e-05
0.000109356
0.000109952
0.000117867
4.03608e-05
0.000110671
0.000108626
0.00011674
4.47568e-05
0.000115296
0.000117282
0.000138497
4.97418e-05
0.000125898
0.000125803
0.000124179
6.08232e-05
0.000122027
0.000121659
0.000123577
5.81065e-05
0.000130304
0.000130305
0.000136787
7.51711e-05
0.000138734
0.00013886
0.000145203
8.24581e-05
0.000137046
0.000136778
0.00014734
8.00085e-05
0.000145863
0.000145982
0.000143572
9.80641e-05
0.000146934
0.00014753
0.000140116
9.50414e-05
0.000146921
0.000144607
0.000146721
0.000106368
0.000159513
0.000159909
0.000159531
0.0001161
0.000161046
0.000163086
0.000160486
0.000120568
0.000163754
0.000162205
0.00015532
0.000129291
0.000161984
0.000167382
0.00015974
0.000126162
0.00017085
0.000167241
0.000164118
0.000138638
0.000177646
0.000174591
0.000162939
0.000153263
0.000177262
0.000180123
0.000170498
0.000154222
0.000177833
0.000178942
0.000172995
0.00014957
0.000184783
0.000185275
0.000170208
0.00016039
0.000188041
0.000187632
0.000170116
0.000173725
0.00018688
0.000185556
0.000179682
0.000173408
0.000193684
0.000193989
0.000182876
0.000178754
0.000194433
0.000196947
0.000178456
0.000187652
0.000196833
0.000195813
0.000178025
0.000190238
0.000201857
0.000200294
0.000184234
0.000193745
0.000203738
0.000203964
0.000187397
0.000192909
0.000202053
0.000201964
0.000186816
0.000202581
0.000209088
0.000209006
0.000188618
0.000215902
0.000212014
0.000218139
0.000194682
0.000211019
0.000203505
0.000204813
0.000186194
0.000203548
0.000214492
0.000199327
0.000186749
0.00022618
0.000226503
0.000224665
0.000200817
0.00023657
0.00021628
0.000233165
0.000200864
0.000222239
0.000205673
0.000210807
0.000188104
0.00021005
0.000212048
0.000200031
0.000186488
0.000230454
0.000231839
0.000224569
0.00020348
0.000255815
0.000238371
0.000240762
0.000208308
0.000248316
0.000218407
0.000226033
0.000197874
0.000225257
0.000210557
0.000212033
0.000192108
0.000225397
0.000222843
0.00021779
0.000194235
0.000248739
0.00023118
0.000228462
0.000201528
0.000254445
0.000232576
0.000231226
0.000207515
0.000249654
0.000227475
0.00023225
0.000204708
0.000243605
0.000220314
0.00022425
0.000194396
0.000240553
0.000221042
0.000221276
0.000196023
0.000246536
0.000230904
0.000224614
0.000203858
0.000253104
0.000230132
0.000227992
0.000201337
0.000256487
0.000225454
0.000232905
0.000201494
2.25708e-06
2.60082e-06
2.27666e-06
2.24191e-06
2.07758e-06
2.41101e-06
1.68652e-06
1.5691e-06
1.66996e-06
1.62809e-06
2.05531e-06
2.00301e-06
2.26463e-06
2.44738e-06
2.38253e-06
2.29151e-06
2.25373e-06
2.32163e-06
3.94779e-06
1.79761e-06
4.20446e-06
1.79944e-06
2.23861e-06
2.19533e-06
1.80109e-06
3.50453e-06
1.79391e-06
3.78645e-06
1.64266e-06
1.74628e-06
1.62007e-06
2.24465e-06
2.28696e-06
1.81453e-06
2.14553e-06
1.79434e-06
2.23424e-06
2.31375e-06
2.24495e-06
3.83819e-06
1.8041e-06
2.64824e-06
1.81629e-06
2.19331e-06
2.15825e-06
1.79571e-06
3.90347e-06
1.79672e-06
4.36511e-06
1.61659e-06
1.7505e-06
1.60907e-06
2.27465e-06
2.35437e-06
1.78511e-06
2.12611e-06
1.75941e-06
2.19304e-06
2.23396e-06
2.16938e-06
2.32344e-06
1.81945e-06
1.73348e-06
1.82912e-06
2.15621e-06
2.12413e-06
1.79191e-06
4.52871e-06
1.7695e-06
4.99782e-06
1.60711e-06
1.74536e-06
1.59991e-06
2.335e-06
2.40342e-06
1.75054e-06
2.10367e-06
1.72934e-06
2.16631e-06
2.16481e-06
2.12394e-06
1.63871e-06
1.8319e-06
1.51394e-06
1.83663e-06
2.12143e-06
2.09066e-06
1.75996e-06
5.0591e-06
1.73833e-06
4.88296e-06
1.59686e-06
1.7184e-06
1.58151e-06
2.37739e-06
2.37256e-06
1.7223e-06
2.07358e-06
1.69754e-06
2.13912e-06
2.12107e-06
2.09586e-06
1.49798e-06
1.83695e-06
1.46854e-06
1.8284e-06
2.08809e-06
2.05846e-06
1.73373e-06
4.74632e-06
1.72361e-06
4.07092e-06
1.57503e-06
1.68901e-06
1.55102e-06
2.32646e-06
2.24631e-06
1.688e-06
2.03906e-06
1.6434e-06
2.09402e-06
2.09212e-06
2.0553e-06
1.45903e-06
1.82388e-06
1.43404e-06
1.80281e-06
2.05536e-06
2.01885e-06
1.72149e-06
3.84664e-06
1.71356e-06
3.58521e-06
1.54217e-06
1.65972e-06
1.51393e-06
2.20812e-06
2.22166e-06
1.62778e-06
2.0145e-06
1.58611e-06
2.02586e-06
2.05055e-06
2.0051e-06
1.42961e-06
1.79482e-06
1.41938e-06
1.76277e-06
2.01514e-06
1.97264e-06
1.70958e-06
3.57932e-06
1.69059e-06
3.37935e-06
1.50608e-06
1.61431e-06
1.48366e-06
2.21789e-06
2.24494e-06
1.57124e-06
1.98648e-06
1.52584e-06
1.95355e-06
2.00064e-06
1.94989e-06
1.41753e-06
1.75237e-06
1.40546e-06
1.71497e-06
1.96843e-06
1.92184e-06
1.68039e-06
3.19576e-06
1.64232e-06
2.51304e-06
1.47736e-06
1.55701e-06
1.45936e-06
2.2213e-06
2.08077e-06
1.51362e-06
1.93813e-06
1.47481e-06
1.88365e-06
1.94576e-06
1.88395e-06
1.40102e-06
1.70141e-06
1.38539e-06
1.65835e-06
1.91642e-06
1.85958e-06
1.62716e-06
2.30578e-06
1.57319e-06
1.83363e-06
1.45374e-06
1.4914e-06
1.44215e-06
2.06444e-06
1.92815e-06
1.45255e-06
1.87159e-06
1.36969e-06
1.79533e-06
1.87855e-06
1.80051e-06
1.38047e-06
1.64231e-06
1.36406e-06
1.58106e-06
1.85252e-06
1.77773e-06
1.55526e-06
1.73185e-06
1.49968e-06
1.56535e-06
1.43912e-06
1.41929e-06
1.42638e-06
1.91394e-06
1.83377e-06
1.34236e-06
1.79385e-06
1.27277e-06
1.70215e-06
1.79405e-06
1.71556e-06
1.35701e-06
1.56118e-06
1.33563e-06
1.50991e-06
1.76934e-06
1.68903e-06
1.48082e-06
1.54167e-06
1.41841e-06
1.49992e-06
1.42235e-06
1.33204e-06
1.40807e-06
1.8265e-06
1.7716e-06
1.25735e-06
1.70599e-06
1.21693e-06
1.63544e-06
1.70676e-06
1.62705e-06
1.32748e-06
1.49526e-06
1.29612e-06
1.4599e-06
1.67857e-06
1.59889e-06
1.39822e-06
1.48592e-06
1.32847e-06
1.43327e-06
1.40255e-06
1.24154e-06
1.38107e-06
1.76151e-06
1.69383e-06
1.20565e-06
1.6194e-06
1.23492e-06
1.60897e-06
1.61424e-06
1.52995e-06
1.28244e-06
1.44781e-06
1.23964e-06
1.39883e-06
1.58514e-06
1.50323e-06
1.30472e-06
1.41501e-06
1.23271e-06
1.347e-06
1.37369e-06
1.15171e-06
1.34626e-06
1.6807e-06
1.60021e-06
1.25514e-06
1.53279e-06
1.33801e-06
1.60942e-06
1.51288e-06
1.43158e-06
1.22433e-06
1.3803e-06
1.18912e-06
1.31139e-06
1.48549e-06
1.40041e-06
1.20846e-06
1.31922e-06
1.13698e-06
1.23167e-06
1.33668e-06
1.06739e-06
1.30438e-06
1.58182e-06
1.49238e-06
1.38793e-06
1.44408e-06
1.63695e-06
1.63464e-06
1.41106e-06
1.33291e-06
1.17604e-06
1.28794e-06
1.14269e-06
1.22265e-06
1.3771e-06
1.29709e-06
1.11347e-06
1.20397e-06
1.0499e-06
1.12664e-06
1.2904e-06
9.90902e-07
1.24419e-06
1.4687e-06
1.38045e-06
1.76032e-06
1.34705e-06
2.23936e-06
1.70845e-06
1.30883e-06
1.2364e-06
1.12829e-06
1.20335e-06
1.09588e-06
1.16737e-06
1.27166e-06
1.2043e-06
1.02983e-06
1.10399e-06
9.80446e-07
1.04754e-06
1.21938e-06
9.28903e-07
1.17613e-06
1.35272e-06
1.27967e-06
2.37797e-06
1.25595e-06
2.72735e-06
1.69082e-06
1.21592e-06
1.16107e-06
1.09036e-06
1.14288e-06
1.07487e-06
1.12892e-06
1.175e-06
1.14385e-06
9.67872e-07
1.03317e-06
9.36864e-07
1.00565e-06
1.14764e-06
8.92271e-07
1.1071e-06
1.25612e-06
1.19883e-06
2.75623e-06
1.18457e-06
2.63116e-06
1.55131e-06
1.15282e-06
1.1456e-06
1.07536e-06
1.10172e-06
1.08423e-06
1.12032e-06
1.12935e-06
1.11533e-06
9.33131e-07
1.00017e-06
9.38425e-07
1.00121e-06
1.08342e-06
9.03914e-07
1.09883e-06
1.18512e-06
1.18609e-06
2.56183e-06
1.15068e-06
2.24607e-06
1.42953e-06
1.1568e-06
1.24563e-06
1.10321e-06
1.14659e-06
1.15337e-06
1.10449e-06
1.17805e-06
1.14052e-06
9.54191e-07
1.00465e-06
1.00179e-06
1.06652e-06
1.13596e-06
9.23393e-07
1.0318e-06
1.18041e-06
1.27674e-06
2.18404e-06
1.19862e-06
1.93892e-06
1.2761e-06
1.27488e-06
1.58809e-06
1.17004e-06
1.16346e-06
1.34882e-06
1.33647e-06
1.15106e-06
1.66479e-06
1.0217e-06
1.09387e-06
1.18499e-06
1.22836e-06
1.06941e-06
1.15587e-06
1.41447e-06
1.30704e-06
1.57136e-06
1.88475e-06
1.3503e-06
2.31117e-06
2.25089e-06
1.69961e-06
2.06418e-06
1.39441e-06
1.30042e-06
1.61792e-06
1.68323e-06
1.65697e-06
2.28222e-06
1.23176e-06
1.27271e-06
1.42495e-06
1.54792e-06
1.4644e-06
1.5055e-06
1.42559e-06
1.63983e-06
2.2375e-06
2.31047e-06
1.65111e-06
2.26521e-06
1.99225e-06
2.24409e-06
3.3152e-06
1.72088e-06
1.74319e-06
2.11336e-06
1.97313e-06
2.69912e-06
2.62495e-06
1.53898e-06
1.62739e-06
1.91858e-06
1.94572e-06
1.46977e-06
1.90312e-06
2.25147e-06
2.42664e-06
3.08057e-06
2.29931e-06
2.03479e-06
3.15878e-06
4.05039e-06
3.59049e-06
4.99158e-06
2.25098e-06
2.13993e-06
2.84115e-06
2.64235e-06
3.08369e-06
4.99063e-06
2.04223e-06
2.11498e-06
2.60597e-06
2.71965e-06
2.35299e-06
2.56769e-06
2.39506e-06
3.40708e-06
5.233e-06
3.28575e-06
2.78323e-06
2.96544e-06
3.98083e-06
5.48333e-06
7.55655e-06
3.04477e-06
3.11079e-06
3.79918e-06
3.50739e-06
5.1305e-06
8.40526e-06
2.78721e-06
2.89155e-06
3.53014e-06
3.56671e-06
2.91362e-06
3.4259e-06
3.83312e-06
5.60916e-06
7.3442e-06
3.43098e-06
3.66222e-06
4.57112e-06
9.78844e-06
8.17595e-06
1.17208e-05
4.14804e-06
3.44068e-06
5.12821e-06
5.56161e-06
8.08536e-06
1.30054e-05
3.88285e-06
3.95629e-06
4.71704e-06
4.87086e-06
3.95552e-06
5.50327e-06
4.70595e-06
7.96583e-06
1.18772e-05
4.42564e-06
4.90896e-06
4.70833e-06
1.0352e-05
1.2357e-05
1.66173e-05
5.43351e-06
5.95143e-06
6.96727e-06
5.79596e-06
1.52501e-05
1.44519e-05
5.04954e-06
5.2393e-06
6.55947e-06
6.53525e-06
5.09304e-06
5.82309e-06
6.6431e-06
1.25915e-05
1.64272e-05
5.15278e-06
6.64883e-06
7.53257e-06
1.63202e-05
1.797e-05
2.23209e-05
7.49293e-06
6.46615e-06
8.66642e-06
8.98871e-06
1.41865e-05
2.51881e-05
7.03176e-06
7.04739e-06
8.27329e-06
8.51337e-06
7.18232e-06
8.94559e-06
8.52133e-06
1.76283e-05
2.24539e-05
8.00779e-06
8.5538e-06
8.90356e-06
2.27856e-05
2.32473e-05
2.97151e-05
9.29859e-06
9.74367e-06
1.16407e-05
1.07431e-05
2.71106e-05
2.94431e-05
8.80966e-06
8.97809e-06
1.09644e-05
1.10628e-05
9.0043e-06
1.06371e-05
1.13498e-05
2.3422e-05
2.96e-05
9.4932e-06
1.09831e-05
1.11332e-05
3.04375e-05
3.14068e-05
3.68898e-05
1.21888e-05
1.10603e-05
1.43215e-05
1.33658e-05
2.97722e-05
3.41997e-05
1.17894e-05
1.17865e-05
1.37744e-05
1.37948e-05
1.22666e-05
1.33279e-05
1.33471e-05
3.10759e-05
3.67274e-05
1.17634e-05
1.39784e-05
1.3523e-05
3.5576e-05
3.79913e-05
4.31352e-05
1.51156e-05
1.45346e-05
1.75021e-05
1.82952e-05
3.64757e-05
4.63731e-05
1.42773e-05
1.44289e-05
1.67421e-05
1.73425e-05
1.39212e-05
1.84421e-05
1.77718e-05
3.79735e-05
4.3497e-05
1.41312e-05
1.72943e-05
1.73912e-05
4.36886e-05
4.48077e-05
5.19754e-05
1.8429e-05
1.87838e-05
2.19662e-05
1.97898e-05
4.75173e-05
4.92047e-05
1.79542e-05
1.8315e-05
2.14566e-05
2.06491e-05
1.91283e-05
1.96961e-05
2.14202e-05
4.50406e-05
5.08755e-05
1.869e-05
2.0749e-05
2.13066e-05
5.21205e-05
5.32282e-05
5.57059e-05
2.2887e-05
2.11071e-05
2.46982e-05
2.60969e-05
5.02957e-05
5.73935e-05
2.22325e-05
2.19327e-05
2.42694e-05
2.60117e-05
2.20406e-05
2.59744e-05
2.48163e-05
5.23362e-05
5.71292e-05
2.19405e-05
2.5792e-05
2.48124e-05
5.56746e-05
5.68187e-05
6.29534e-05
2.57368e-05
2.69992e-05
2.95996e-05
2.92811e-05
5.92568e-05
6.30374e-05
2.52647e-05
2.65392e-05
2.9764e-05
2.82598e-05
2.59347e-05
2.92606e-05
2.95492e-05
5.81826e-05
6.277e-05
2.60218e-05
2.87819e-05
2.94851e-05
6.3024e-05
6.4526e-05
6.88297e-05
3.119e-05
3.06476e-05
3.51256e-05
3.44419e-05
6.38298e-05
6.81283e-05
3.13816e-05
3.01423e-05
3.45171e-05
3.69428e-05
3.11162e-05
3.4709e-05
3.49293e-05
6.43107e-05
6.89135e-05
3.08535e-05
3.67336e-05
3.44405e-05
6.85184e-05
6.97343e-05
7.31381e-05
3.59699e-05
3.58402e-05
4.06929e-05
4.16304e-05
6.97665e-05
7.40052e-05
3.56427e-05
3.74437e-05
3.98362e-05
3.60274e-05
3.64715e-05
4.09548e-05
3.99563e-05
6.94901e-05
7.18031e-05
3.60529e-05
3.64272e-05
3.97053e-05
7.33572e-05
7.42792e-05
7.74524e-05
4.21455e-05
4.25602e-05
4.39027e-05
4.27704e-05
7.45033e-05
7.64235e-05
4.11997e-05
3.81348e-05
4.44006e-05
5.01544e-05
4.0698e-05
4.27917e-05
4.58773e-05
7.32311e-05
8.04479e-05
4.05961e-05
4.87908e-05
4.58721e-05
7.8108e-05
7.85071e-05
8.31329e-05
4.55787e-05
4.42635e-05
5.26154e-05
5.43388e-05
7.79389e-05
8.44948e-05
4.62204e-05
5.33025e-05
5.27212e-05
5.68384e-05
4.77105e-05
5.37765e-05
5.04722e-05
8.15524e-05
8.31743e-05
4.75841e-05
5.04064e-05
5.04139e-05
8.22672e-05
8.40566e-05
8.62474e-05
5.38351e-05
5.76349e-05
5.6535e-05
6.04432e-05
8.56684e-05
8.70448e-05
5.39735e-05
5.64031e-05
5.56256e-05
5.41502e-05
5.21241e-05
5.72413e-05
5.82414e-05
8.37572e-05
8.56632e-05
5.21346e-05
5.77965e-05
5.77231e-05
8.69619e-05
8.70859e-05
9.07292e-05
5.86577e-05
5.96823e-05
6.31381e-05
6.11959e-05
8.73428e-05
8.9677e-05
5.76354e-05
5.48703e-05
6.31565e-05
6.21371e-05
5.92926e-05
6.2031e-05
6.20885e-05
8.64035e-05
9.03238e-05
5.88602e-05
6.14625e-05
6.25218e-05
9.03805e-05
9.15299e-05
9.44315e-05
6.37103e-05
6.33646e-05
6.96875e-05
6.87911e-05
9.08731e-05
9.42799e-05
6.40071e-05
6.60343e-05
6.99785e-05
7.38623e-05
6.42658e-05
6.91459e-05
7.09192e-05
9.17102e-05
9.57093e-05
6.44302e-05
7.12539e-05
7.06133e-05
9.50067e-05
9.54148e-05
9.82447e-05
7.1803e-05
7.01742e-05
7.39363e-05
7.64867e-05
9.50413e-05
9.93254e-05
7.1933e-05
7.36646e-05
7.37381e-05
7.42015e-05
7.14231e-05
7.48171e-05
7.33937e-05
9.6148e-05
9.7942e-05
7.13677e-05
7.35682e-05
7.32566e-05
9.78681e-05
9.90039e-05
0.000103792
7.53458e-05
7.93961e-05
8.46186e-05
8.45311e-05
0.000100625
0.000103374
7.50557e-05
7.73611e-05
8.44796e-05
8.45449e-05
7.61554e-05
8.44942e-05
8.49003e-05
9.91709e-05
0.00010332
7.57837e-05
8.39355e-05
8.48583e-05
0.000103662
0.00010466
0.000104998
8.66367e-05
8.41447e-05
8.52706e-05
8.40218e-05
0.000103522
0.000104326
8.66034e-05
8.42077e-05
8.53714e-05
8.42302e-05
8.52928e-05
8.372e-05
8.35894e-05
0.00010358
0.000104833
8.55784e-05
8.47137e-05
8.37357e-05
0.000104604
0.000105181
0.000111294
8.49766e-05
8.67877e-05
9.55626e-05
9.608e-05
0.000105491
0.0001115
8.53086e-05
8.82966e-05
9.46184e-05
9.55619e-05
8.61217e-05
9.62228e-05
9.69397e-05
0.000106248
0.000111279
8.56749e-05
9.65248e-05
9.65112e-05
0.000111699
0.000112293
0.000112565
9.76251e-05
9.67922e-05
9.7042e-05
9.61019e-05
0.000111974
0.000111728
9.69882e-05
9.55555e-05
9.72677e-05
9.65861e-05
9.85062e-05
9.62717e-05
9.71191e-05
0.00011149
0.0001116
9.78525e-05
9.49126e-05
9.67563e-05
0.000112859
0.000112642
0.000118106
9.75697e-05
9.73047e-05
0.000104848
0.000106061
0.000112064
0.000119253
9.75478e-05
9.81935e-05
0.000105316
0.00010647
9.7675e-05
0.000106031
0.000106787
0.000112527
0.000119447
9.86477e-05
0.000107352
0.00010702
0.000118271
0.000119418
0.000121821
0.000107305
0.000109085
0.000111474
0.000111603
0.000120583
0.000121344
0.000107323
0.000109124
0.000110799
0.000110118
0.000106835
0.00011187
0.00010269
0.000120352
0.000120243
0.000106643
0.000110054
0.000101877
0.000112917
0.000122146
0.00012389
0.000112303
0.000110547
0.000114493
0.000111365
0.000120938
0.000122846
0.000111933
0.00010895
0.000113638
0.000112976
0.000106554
0.000110286
0.00012516
0.000119865
0.000124135
0.000105562
0.000112239
0.000125162
0.00013796
0.000124461
0.000128634
0.000115116
0.000115694
0.000120271
0.000124618
0.000125125
0.000131234
0.000114683
0.000117224
0.000121153
0.000124958
0.000126596
0.000125209
0.00012389
0.000126517
0.000131347
0.000126626
0.000125525
0.00012361
0.000125695
0.000129658
0.000131312
0.000122767
0.000125358
0.000125336
0.000122752
0.000131286
0.000128393
0.000123402
0.000125228
0.000125251
0.000122659
0.000121285
0.000123468
0.000115499
0.000131291
0.000128105
0.000120886
0.000123065
0.000115329
0.000122076
0.000131187
0.000132565
0.000124537
0.000121289
0.000125782
0.00012761
0.000127871
0.00013492
0.000124529
0.000121639
0.000125675
0.000126794
0.00011445
0.000125478
0.000126262
0.000127901
0.000134344
0.000114449
0.000125849
0.000125885
0.000135063
0.000134131
0.000140915
0.000129256
0.000131974
0.000138201
0.000138032
0.000137158
0.000140341
0.000128595
0.000129737
0.000137707
0.000137464
0.000130938
0.000138232
0.000141298
0.0001361
0.000140383
0.000130146
0.000138182
0.000141182
0.000143929
0.000141342
0.00014011
0.000139447
0.000137967
0.000138234
0.000135497
0.000140172
0.000138615
0.000139326
0.000138659
0.000138765
0.000137629
0.000143462
0.000137237
0.00014566
0.00014056
0.000139445
0.000143915
0.000137309
0.000147119
0.000147567
0.000139587
0.000144616
0.000137144
0.000135354
0.000141736
0.000144635
0.000139096
0.000146226
0.00013778
0.000136932
0.000141774
0.000143027
0.000145437
0.000143797
0.000143201
0.000139267
0.000145463
0.000147153
0.000143647
0.000144301
0.000143816
0.00014615
0.000147363
0.000145145
0.000146781
0.000148982
0.00014799
0.000146922
0.000146221
0.000144989
0.00014574
0.000148412
0.0001486
0.000142744
0.000147561
0.000141447
0.000146561
0.000146824
0.000143401
0.000148097
0.000140641
0.000140782
0.000147035
0.000147497
0.000148632
0.000147279
0.000146961
0.000145066
0.000145777
0.000146185
0.000147932
0.000148034
0.000146586
0.000145259
0.000140739
0.000144933
0.000144137
0.000146425
0.000145452
0.000139382
0.000144498
0.000140323
0.000144231
0.000148864
0.000153258
0.000148446
0.000147064
0.000155172
0.00015716
0.000147856
0.000155049
0.000148985
0.000146136
0.000156338
0.000157543
0.000147716
0.000157469
0.000160038
0.000146726
0.000155765
0.000145302
0.000156962
0.000160208
0.000158257
0.000153252
0.000155087
0.00015596
0.000158879
0.00015923
0.000159512
0.000155479
0.000155749
0.000156753
0.00015971
0.000158486
0.000161304
0.000162859
0.00016083
0.000165497
0.000156475
0.000156539
0.000163675
0.000163148
0.00016739
0.000160813
0.000156286
0.000160193
0.000160975
0.000159964
0.000165247
0.000164288
0.000155898
0.000158739
0.000160014
0.000160862
0.000164782
0.000159964
0.000165357
0.000163289
0.00016154
0.000156269
0.000156556
0.000167409
0.000162154
0.000163988
0.000155879
0.000160297
0.000158719
0.000165839
0.000165305
0.000165229
0.000164981
0.000158963
0.000157778
0.00016586
0.000161892
0.000166529
0.000167844
0.000160284
0.000162585
0.00016165
0.000157375
0.000161286
0.000162544
0.000166157
0.000160688
0.000157948
0.000158238
0.000158218
0.000164377
0.000164153
0.000162629
0.000164107
0.000157277
0.000161155
0.000165986
0.000168688
0.000163693
0.000168165
0.000165168
0.000167704
0.000171189
0.000161517
0.000160696
0.000163419
0.00016754
0.00017113
0.000164154
0.000159759
0.000169604
0.000166057
0.000167621
0.000177795
0.000176085
0.000162924
0.000168135
0.000164737
0.000167626
0.000175397
0.000171295
0.000171628
0.000177007
0.000171313
0.000160423
0.000165407
0.000171614
0.000172112
0.000170111
0.0001627
0.000170694
0.000171172
0.000179934
0.000177685
0.000181847
0.000179902
0.0001684
0.000168789
0.000178116
0.000173929
0.000181057
0.000179111
0.000172242
0.000177482
0.000177129
0.000166699
0.000169471
0.000170367
0.00017958
0.000178881
0.000169444
0.000170753
0.000166899
0.000181637
0.000180023
0.000178294
0.000179026
0.000168692
0.000167934
0.000181035
0.000179701
0.000179088
0.000179156
0.000179027
0.000177175
0.000183041
0.000169364
0.000168246
0.000181052
0.000179322
0.000183663
0.000173052
0.000166372
0.000169533
0.000177252
0.000178219
0.000175993
0.0001773
0.000167652
0.00017116
0.000178369
0.000178973
0.000178668
0.000183355
0.000183415
0.000182906
0.000182756
0.000168355
0.00017385
0.000183797
0.000183305
0.000182194
0.000170693
0.000171114
0.000176151
0.000178826
0.000180263
0.000187513
0.000188201
0.000172513
0.00017615
0.000181681
0.000185324
0.000188003
0.000188279
0.000181835
0.000187921
0.000180038
0.000174826
0.000175591
0.000181399
0.000187648
0.000178986
0.000169083
0.000176371
0.000176566
0.000189112
0.000189399
0.000191105
0.00019027
0.000176151
0.000175398
0.000189025
0.000188429
0.000189916
0.000187496
0.000182065
0.000186888
0.000190411
0.000175348
0.000173459
0.000180136
0.000185915
0.000189685
0.000178314
0.000176461
0.000177533
0.0001911
0.000190119
0.000191318
0.000191266
0.000175375
0.00017872
0.000189665
0.000187004
0.000188729
0.000188586
0.000192657
0.000192351
0.000195867
0.000173373
0.000178238
0.000192646
0.000191881
0.000197248
0.000183076
0.000178091
0.000180671
0.000192343
0.000192467
0.000194914
0.000194137
0.000179218
0.000179485
0.000189791
0.000190872
0.000195368
0.00019629
0.000196051
0.000194745
0.000194145
0.000179341
0.000181611
0.000197658
0.000196748
0.000195842
0.000178986
0.000180802
0.000182449
0.000195207
0.00019403
0.000196132
0.00019527
0.00017917
0.00018105
0.000196623
0.000197238
0.000199104
0.000197672
0.000193215
0.000195064
0.000191519
0.000181524
0.00018103
0.000194745
0.000196303
0.000192427
0.000177448
0.000182861
0.000184795
0.000196975
0.00019638
0.000200574
0.000200625
0.000181856
0.000184947
0.00019975
0.000197943
0.000200882
0.000201221
0.000192974
0.00020092
0.000199794
0.000181049
0.000184747
0.000191876
0.000197971
0.000195941
0.000183379
0.000184812
0.000184365
0.000201461
0.000201992
0.000202369
0.00020425
0.000185253
0.000186807
0.000201039
0.000201955
0.000200957
0.000202935
0.000201278
0.000203618
0.000204144
0.000185467
0.000186362
0.000198684
0.000203772
0.000204895
0.000187217
0.000184098
0.000181698
0.000202313
0.000204388
0.000200637
0.000203123
0.00018675
0.000184707
0.000200538
0.000202239
0.000198137
0.000199143
0.000204626
0.000202833
0.000204653
0.000185984
0.0001822
0.000205917
0.000202985
0.000206488
0.000187241
0.000181522
0.00019086
0.000199923
0.000202363
0.000207623
0.000206362
0.000184072
0.000189556
0.000197118
0.000197546
0.000207381
0.00020548
0.000204142
0.000206581
0.000204946
0.000181207
0.000189246
0.00020609
0.000204554
0.000204698
0.000187371
0.000192384
0.000197552
0.000210414
0.000208652
0.000214851
0.000211569
0.00019082
0.000192804
0.000211432
0.000210917
0.000218256
0.000220336
0.000207756
0.000212763
0.000212841
0.000191496
0.000201218
0.000206405
0.000216742
0.000212448
0.000194612
0.000196099
0.000185359
0.000214368
0.000209801
0.000206178
0.000203407
0.000191098
0.000182097
0.000219075
0.000221925
0.000207561
0.000207693
0.000213774
0.000205259
0.000208609
0.000200852
0.000185404
0.000213592
0.000208047
0.000208789
0.000187438
0.000183945
0.000186005
0.00020442
0.000201529
0.000204924
0.000212414
0.000180682
0.000194046
0.000204868
0.000203569
0.000199969
0.00019572
0.000206907
0.000208238
0.000203125
0.000183282
0.000178459
0.000206809
0.000198152
0.00020232
0.000184674
0.00018865
0.000201319
0.000210827
0.000218465
0.000222403
0.000227955
0.000196866
0.000207192
0.000203127
0.000197113
0.000220768
0.000220935
0.00020539
0.000224743
0.000219505
0.000181139
0.000201708
0.000203827
0.00022041
0.000219433
0.000199868
0.000201998
0.000201951
0.000224495
0.000229618
0.000225858
0.000218495
0.000206806
0.000194219
0.000223712
0.000225664
0.00022875
0.000234409
0.000222025
0.000221212
0.000226598
0.000203575
0.000210244
0.000222338
0.000232622
0.000227631
0.000202747
0.000200019
0.000189307
0.000221598
0.000213144
0.000210432
0.000204181
0.000191543
0.000182489
0.000227967
0.000235138
0.000214287
0.000216217
0.000225017
0.000207315
0.00021283
0.00020825
0.000191041
0.000226835
0.000215704
0.000213615
0.000189447
0.000188052
0.000183447
0.000208277
0.000202204
0.000202925
0.000205266
0.000181297
0.000189244
0.000210968
0.000210703
0.000204567
0.000200983
0.00021049
0.00020555
0.000205566
0.000188614
0.000178974
0.000210812
0.000202064
0.000205226
0.000185182
0.000183978
0.000200814
0.000203644
0.000212787
0.000224043
0.000231059
0.000192174
0.000207613
0.000202863
0.000198607
0.000218736
0.000215274
0.000206234
0.000228749
0.000223267
0.000178079
0.000197629
0.000204847
0.000216701
0.0002217
0.000201811
0.000203281
0.000214265
0.000229503
0.000234454
0.000239618
0.000241798
0.000208854
0.000213086
0.000225687
0.000224073
0.0002378
0.00023929
0.000227318
0.000238145
0.000233925
0.000201042
0.000215025
0.000226522
0.000238097
0.000234261
0.00020919
0.000214463
0.000199972
0.000241829
0.000241463
0.000227082
0.000221947
0.000210933
0.000195222
0.000240447
0.000242354
0.000231439
0.000235341
0.000235113
0.000222832
0.000226484
0.000215593
0.000203707
0.000235758
0.000233107
0.000228249
0.00019952
0.000196821
0.000186917
0.000220569
0.000216925
0.000210455
0.000209556
0.000193104
0.000186615
0.000224123
0.000227238
0.000212049
0.00021311
0.000222775
0.000211768
0.000216178
0.000200151
0.000188805
0.000224013
0.000213868
0.000216224
0.000192666
0.000185857
0.000195799
0.00020874
0.000208259
0.000216488
0.000218725
0.000186444
0.000197892
0.000210047
0.000210964
0.000213848
0.000211634
0.000215169
0.000218519
0.000214723
0.0001878
0.000193464
0.00021505
0.000213379
0.000213825
0.000193421
0.000197981
0.000205822
0.000221978
0.000223579
0.000231457
0.000231537
0.000199648
0.000205498
0.000219693
0.000216828
0.000230134
0.000227311
0.000217343
0.000230227
0.000225817
0.000195353
0.000202404
0.000216325
0.00022687
0.000225201
0.000200493
0.000205903
0.000204231
0.000232756
0.000232552
0.000232619
0.000232895
0.000205498
0.00020505
0.000231622
0.000229014
0.000232456
0.000231043
0.000228224
0.000232495
0.000233063
0.000202783
0.000203973
0.000227806
0.000230731
0.000233036
0.00020712
0.000203565
0.000201544
0.000230929
0.000231984
0.000227649
0.000228098
0.000204719
0.000202076
0.000230994
0.000231161
0.00022821
0.000230666
0.000234358
0.000229654
0.000234948
0.00020386
0.000204889
0.000234444
0.000233136
0.000236333
0.000206792
0.000201238
0.000198766
0.000226764
0.000226228
0.000223335
0.000221112
0.000200987
0.000195692
0.000227821
0.00023035
0.000225521
0.00022764
0.000230877
0.000221283
0.000221293
0.000204393
0.000200536
0.000232483
0.000225968
0.0002219
0.000195316
0.000198254
0.000196503
0.000222459
0.000220308
0.000221227
0.000219025
0.000195019
0.000195215
0.000224478
0.000226343
0.000222255
0.000222602
0.000219924
0.000218865
0.000218424
0.000199837
0.000197053
0.000220248
0.000221525
0.000218133
0.000194637
0.000196343
0.000200054
0.000221292
0.00022116
0.00022658
0.000229002
0.000196499
0.000203827
0.000222005
0.000221992
0.000223584
0.000221248
0.000220863
0.000229218
0.000228836
0.000196774
0.000197119
0.000219458
0.000222856
0.000227729
0.00020351
0.000200611
0.000202562
0.000227936
0.000230613
0.00023037
0.000233161
0.000204316
0.000204509
0.000225513
0.000221502
0.00022886
0.000226114
0.00023038
0.000232991
0.000231
0.000197403
0.000199913
0.000229361
0.000227426
0.0002311
0.000202603
0.000202248
0.000203067
0.000229809
0.000230698
0.00023058
0.000227796
0.000202926
0.000198982
0.000229142
0.000227758
0.000232769
0.000234768
0.00022846
0.000227161
0.000227218
0.00020019
0.000205779
0.000229131
0.000233188
0.000228829
0.000199244
0.000205552
0.000229329
0.000225985
0.000201081
0.000231573
0.000234587
0.000250715
0.000259754
0.000251968
0.000225949
0.000208698
0.000227421
2.14155e-06
2.08388e-06
1.02831e-06
1.07007e-06
1.35926e-06
1.95794e-06
5.79183e-07
1.23253e-06
1.22087e-06
2.34706e-06
1.38552e-06
1.68308e-06
2.303e-06
2.17409e-06
1.84549e-06
1.09143e-06
1.44599e-05
1.02175e-06
1.63268e-05
1.06363e-05
1.28963e-05
1.34481e-06
1.33299e-05
1.25968e-06
1.50704e-05
1.60168e-06
1.68602e-06
1.66345e-06
1.74e-06
1.62582e-06
1.70766e-06
1.69252e-06
1.34222e-06
3.14466e-07
1.60282e-06
1.74897e-06
1.3449e-06
4.17478e-07
1.60951e-06
1.11396e-05
1.3306e-05
1.22632e-06
1.77762e-06
5.23623e-07
2.1569e-06
1.21793e-06
1.78379e-06
6.41798e-07
1.4643e-06
1.51037e-06
2.26286e-06
1.66395e-06
1.7227e-06
1.32964e-06
1.98719e-05
1.22707e-06
2.21927e-05
1.69362e-05
1.91337e-05
1.53598e-06
1.82686e-05
1.45854e-06
2.068e-05
1.62436e-06
1.7083e-06
1.69337e-06
1.69953e-06
1.61864e-06