/*--------------------------------*- C++ -*----------------------------------*\
| =========                 |                                                 |
| \\      /  F ield         | OpenFOAM: The Open Source CFD Toolbox           |
|  \\    /   O peration     | Version:  v2012                                 |
|   \\  /    A nd           | Website:  www.openfoam.com                      |
|    \\/     M anipulation  |                                                 |
\*---------------------------------------------------------------------------*/
FoamFile
{
    version     2.0;
    format      ascii;
    class       volScalarField;
    location    "437.5";
    object      epsilon;
}
// * * * * * * * * * * * * * * * * * * * * * * * * * * * * * * * * * * * * * //

dimensions      [0 2 -3 0 0 0 0];


internalField   nonuniform List<scalar> 
171728
(
2.08527e-09
1.24543e-08
4.5322e-09
5.57266e-09
2.04791e-09
1.28053e-08
4.24385e-09
5.62269e-09
1.9866e-09
1.273e-08
3.9077e-09
4.76674e-09
1.92987e-09
1.00979e-08
3.60779e-09
3.97905e-09
1.8776e-09
6.12678e-09
3.33671e-09
3.56055e-09
1.82886e-09
4.04037e-09
3.09614e-09
3.30275e-09
1.78352e-09
3.11032e-09
2.87744e-09
3.11098e-09
1.7417e-09
2.52692e-09
2.71201e-09
2.9524e-09
1.70298e-09
2.19631e-09
2.59658e-09
2.82411e-09
1.66729e-09
2.06715e-09
2.52572e-09
2.73115e-09
1.63463e-09
2.04499e-09
2.49005e-09
2.67383e-09
1.60506e-09
2.07103e-09
2.48419e-09
2.65491e-09
1.57852e-09
2.14401e-09
2.51864e-09
2.67374e-09
1.55508e-09
2.27482e-09
2.6094e-09
2.73236e-09
1.5347e-09
2.47923e-09
2.78232e-09
2.82246e-09
1.51755e-09
2.79631e-09
3.07058e-09
3.0267e-09
1.50405e-09
3.29026e-09
3.54638e-09
3.50464e-09
1.49516e-09
4.02708e-09
4.24927e-09
4.39219e-09
1.49154e-09
5.16668e-09
5.41127e-09
5.9663e-09
1.49455e-09
6.8608e-09
7.20617e-09
8.65252e-09
1.50747e-09
9.37168e-09
9.61015e-09
1.35915e-08
1.53441e-09
1.26929e-08
1.30251e-08
1.93957e-08
1.5799e-09
1.84212e-08
1.79446e-08
3.24207e-08
1.64743e-09
2.52098e-08
2.47758e-08
4.81434e-08
1.76193e-09
3.46394e-08
3.35418e-08
7.31096e-08
1.92078e-09
4.40684e-08
4.46684e-08
1.09647e-07
2.14489e-09
5.76771e-08
5.90636e-08
1.59892e-07
2.4753e-09
7.56916e-08
7.57268e-08
2.20342e-07
2.92434e-09
9.53124e-08
9.5507e-08
2.92734e-07
3.51401e-09
1.1803e-07
1.18645e-07
3.67488e-07
4.36641e-09
1.43945e-07
1.4456e-07
4.45737e-07
5.46955e-09
1.73992e-07
1.74564e-07
5.21972e-07
6.90325e-09
2.04906e-07
2.06044e-07
5.90972e-07
8.80976e-09
2.43082e-07
2.41343e-07
6.54839e-07
1.12451e-08
2.78901e-07
2.81323e-07
7.11745e-07
1.42762e-08
3.17994e-07
3.19473e-07
7.61365e-07
1.82514e-08
3.68015e-07
3.63918e-07
8.06536e-07
2.29095e-08
4.07721e-07
4.09319e-07
8.47401e-07
2.8812e-08
4.54218e-07
4.55833e-07
8.83994e-07
3.60813e-08
5.05939e-07
5.03952e-07
9.18529e-07
4.42951e-08
5.50708e-07
5.53386e-07
9.5094e-07
5.45316e-08
6.00836e-07
5.98824e-07
9.81352e-07
6.60198e-08
6.48137e-07
6.51658e-07
1.01128e-06
7.97689e-08
6.96084e-07
6.96359e-07
1.04101e-06
9.50409e-08
7.42265e-07
7.40621e-07
1.06726e-06
1.12823e-07
7.85922e-07
7.86672e-07
1.09552e-06
1.32383e-07
8.25252e-07
8.27852e-07
1.1228e-06
1.53507e-07
8.69594e-07
8.67594e-07
1.14867e-06
1.78547e-07
9.05463e-07
9.06151e-07
1.17324e-06
2.02378e-07
9.4019e-07
9.37629e-07
1.19525e-06
2.31227e-07
9.71174e-07
9.74585e-07
1.22441e-06
2.6084e-07
9.97449e-07
1.00203e-06
1.24375e-06
2.88771e-07
1.03385e-06
1.02901e-06
1.2629e-06
3.22011e-07
1.05808e-06
1.0548e-06
1.2865e-06
3.52559e-07
1.07473e-06
1.07954e-06
1.30351e-06
3.81652e-07
1.09956e-06
1.10144e-06
1.32155e-06
4.14492e-07
1.12091e-06
1.12093e-06
1.33602e-06
4.46666e-07
1.14092e-06
1.1389e-06
1.35514e-06
4.72851e-07
1.15819e-06
1.16154e-06
1.36904e-06
5.01975e-07
1.17156e-06
1.17469e-06
1.38233e-06
5.31118e-07
1.19447e-06
1.18871e-06
1.39578e-06
5.5612e-07
1.21054e-06
1.21126e-06
1.41399e-06
5.73031e-07
1.21176e-06
1.22019e-06
1.42101e-06
5.98709e-07
1.23568e-06
1.22784e-06
1.43117e-06
6.27405e-07
1.2521e-06
1.24994e-06
1.4475e-06
6.42162e-07
1.24743e-06
1.25764e-06
1.45781e-06
6.51356e-07
1.25563e-06
1.25713e-06
1.45606e-06
6.722e-07
1.28243e-06
1.27101e-06
1.46918e-06
6.96143e-07
1.2873e-06
1.28611e-06
1.48536e-06
7.09002e-07
1.28277e-06
1.29396e-06
1.49031e-06
7.17523e-07
1.29158e-06
1.29046e-06
1.48953e-06
7.3075e-07
1.29677e-06
1.29129e-06
1.49552e-06
7.43337e-07
1.30314e-06
1.30873e-06
1.50277e-06
7.56165e-07
1.3107e-06
1.31442e-06
1.51256e-06
7.66823e-07
1.30982e-06
1.30822e-06
1.51831e-06
7.70955e-07
1.30757e-06
1.30569e-06
1.51231e-06
7.77625e-07
1.31221e-06
1.31271e-06
1.51346e-06
7.87976e-07
1.31911e-06
1.31967e-06
1.52243e-06
7.9198e-07
1.31657e-06
1.31759e-06
1.52515e-06
7.93146e-07
1.3127e-06
1.31122e-06
1.52229e-06
7.95642e-07
1.30954e-06
1.30969e-06
1.51719e-06
7.98263e-07
1.31205e-06
1.31417e-06
1.52202e-06
8.02512e-07
1.31389e-06
1.31503e-06
1.52489e-06
8.02754e-07
1.30603e-06
1.30589e-06
1.52019e-06
7.98465e-07
1.30177e-06
1.30103e-06
1.52019e-06
7.98192e-07
1.30093e-06
1.30247e-06
1.51886e-06
7.97893e-07
1.29446e-06
1.29352e-06
1.51283e-06
7.91112e-07
1.28642e-06
1.28218e-06
1.50562e-06
7.86842e-07
1.28061e-06
1.28101e-06
1.5024e-06
7.85909e-07
1.27672e-06
1.28114e-06
1.50137e-06
7.85009e-07
1.27581e-06
1.27638e-06
1.50489e-06
7.74193e-07
1.26045e-06
1.2566e-06
1.49196e-06
7.62653e-07
1.242e-06
1.24054e-06
1.46604e-06
7.66031e-07
1.253e-06
1.25569e-06
1.48094e-06
7.58687e-07
1.21229e-06
1.21453e-06
1.47288e-06
4.97559e-09
4.32894e-09
4.17498e-09
4.94515e-09
4.10923e-09
4.24015e-09
2.06771e-09
2.33221e-09
2.05034e-09
2.79055e-09
6.75063e-09
4.36862e-09
5.02039e-09
4.05468e-09
1.14246e-08
5.67965e-09
4.94712e-09
4.5305e-09
4.79451e-09
4.65185e-09
4.48426e-09
4.32751e-09
4.88105e-09
4.71789e-09
5.05732e-09
4.85033e-09
4.57812e-09
4.55132e-09
4.79089e-09
1.27742e-08
4.48317e-09
4.99476e-09
4.56522e-09
4.86839e-08
4.33229e-09
4.23511e-08
5.84566e-09
4.49693e-09
4.1235e-09
4.37522e-09
4.21816e-09
4.06957e-09
3.91942e-09
4.67369e-09
4.67936e-09
4.45053e-09
4.44103e-09
4.12639e-09
4.13132e-09
4.37467e-09
1.28068e-08
4.06697e-09
4.53179e-09
4.14919e-09
3.58037e-08
3.98838e-09
1.83163e-08
4.95679e-09
4.0947e-09
3.77081e-09
3.97483e-09
3.82994e-09
3.71094e-09
3.58756e-09
4.63015e-09
4.4584e-09
4.02439e-09
4.03532e-09
3.74333e-09
3.76573e-09
3.97135e-09
1.10663e-08
3.70328e-09
4.1204e-09
3.79183e-09
1.43113e-08
3.68058e-09
7.70527e-09
4.06393e-09
3.74621e-09
3.46661e-09
3.62927e-09
3.51105e-09
3.40233e-09
3.29196e-09
4.33036e-09
3.70933e-09
3.65991e-09
3.68267e-09
3.43169e-09
3.45063e-09
3.62076e-09
6.98264e-09
3.39156e-09
3.7671e-09
3.48435e-09
6.65217e-09
3.39992e-09
4.92896e-09
3.58517e-09
3.44585e-09
3.20444e-09
3.33263e-09
3.22338e-09
3.13928e-09
3.03495e-09
3.66823e-09
3.32346e-09
3.36146e-09
3.37917e-09
3.16688e-09
3.18087e-09
3.32098e-09
4.39422e-09
3.1258e-09
3.46341e-09
3.22018e-09
4.60031e-09
3.15509e-09
4.00057e-09
3.31958e-09
3.18751e-09
2.97971e-09
3.08037e-09
2.97774e-09
2.9193e-09
2.82609e-09
3.29391e-09
2.95584e-09
3.10745e-09
3.12002e-09
2.94664e-09
2.95455e-09
3.06681e-09
3.29988e-09
2.90835e-09
3.20302e-09
2.99168e-09
3.88424e-09
2.92816e-09
3.66611e-09
3.12323e-09
2.96659e-09
2.78992e-09
2.87153e-09
2.78078e-09
2.74273e-09
2.66016e-09
2.93094e-09
2.67066e-09
2.89827e-09
2.90462e-09
2.77043e-09
2.77285e-09
2.86137e-09
2.64764e-09
2.73699e-09
2.97834e-09
2.8004e-09
3.61616e-09
2.74734e-09
3.49193e-09
2.96044e-09
2.7807e-09
2.63499e-09
2.70569e-09
2.62576e-09
2.60856e-09
2.53693e-09
2.65661e-09
2.48365e-09
2.73292e-09
2.73384e-09
2.6365e-09
2.63392e-09
2.7003e-09
2.25702e-09
2.60785e-09
2.79123e-09
2.64554e-09
3.46012e-09
2.62207e-09
3.39432e-09
2.82801e-09
2.62983e-09
2.51244e-09
2.58129e-09
2.51347e-09
2.51284e-09
2.45265e-09
2.47935e-09
2.36006e-09
2.60878e-09
2.60519e-09
2.54139e-09
2.53516e-09
2.58168e-09
2.08565e-09
2.51891e-09
2.64039e-09
2.52331e-09
3.38317e-09
2.53893e-09
3.37716e-09
2.73081e-09
2.51148e-09
2.42223e-09
2.49542e-09
2.43655e-09
2.45631e-09
2.3986e-09
2.3609e-09
2.27834e-09
2.52322e-09
2.51653e-09
2.48449e-09
2.47619e-09
2.5032e-09
2.0445e-09
2.46839e-09
2.52228e-09
2.43339e-09
3.37866e-09
2.49574e-09
3.40825e-09
2.66897e-09
2.42514e-09
2.36482e-09
2.44894e-09
2.38846e-09
2.442e-09
2.37737e-09
2.28298e-09
2.23093e-09
2.47614e-09
2.46805e-09
2.46821e-09
2.45988e-09
2.463e-09
2.06235e-09
2.46014e-09
2.43623e-09
2.3759e-09
3.42494e-09
2.48273e-09
3.48986e-09
2.64295e-09
2.3733e-09
2.34557e-09
2.44467e-09
2.37865e-09
2.47221e-09
2.40007e-09
2.24169e-09
2.22019e-09
2.47041e-09
2.4622e-09
2.49552e-09
2.48845e-09
2.4639e-09
2.12576e-09
2.49492e-09
2.38419e-09
2.35456e-09
3.51731e-09
2.50525e-09
3.62624e-09
2.65314e-09
2.36358e-09
2.37663e-09
2.48815e-09
2.41471e-09
2.56025e-09
2.48316e-09
2.24005e-09
2.25794e-09
2.51038e-09
2.5039e-09
2.57997e-09
2.57306e-09
2.51082e-09
2.24154e-09
2.58624e-09
2.37235e-09
2.38175e-09
3.67012e-09
2.58163e-09
3.81926e-09
2.70173e-09
2.40816e-09
2.47358e-09
2.59348e-09
2.5163e-09
2.72328e-09
2.64447e-09
2.29081e-09
2.3613e-09
2.61121e-09
2.60451e-09
2.73718e-09
2.73388e-09
2.61719e-09
2.42476e-09
2.74209e-09
2.41293e-09
2.47742e-09
3.87674e-09
2.72971e-09
4.05635e-09
2.77815e-09
2.52737e-09
2.67413e-09
2.77879e-09
2.70098e-09
2.99249e-09
2.90778e-09
2.41728e-09
2.56761e-09
2.79116e-09
2.7884e-09
2.99915e-09
3.00362e-09
2.79795e-09
2.70803e-09
3.00345e-09
2.53124e-09
2.67827e-09
4.11246e-09
2.98671e-09
4.2716e-09
2.93813e-09
2.76637e-09
3.04061e-09
3.08529e-09
2.9984e-09
3.42489e-09
3.33253e-09
2.66172e-09
2.95588e-09
3.08839e-09
3.09377e-09
3.41755e-09
3.4215e-09
3.09549e-09
3.15272e-09
3.43158e-09
2.76962e-09
3.05249e-09
4.33492e-09
3.40534e-09
4.64937e-09
3.33634e-09
3.19396e-09
3.69004e-09
3.564e-09
3.47084e-09
4.09051e-09
3.988e-09
3.11548e-09
3.60606e-09
3.55425e-09
3.56118e-09
4.07918e-09
4.08721e-09
3.57695e-09
3.81971e-09
4.10673e-09
3.20797e-09
3.67391e-09
4.81697e-09
4.0394e-09
5.51364e-09
4.09985e-09
3.94807e-09
4.83707e-09
4.30479e-09
4.19228e-09
5.12165e-09
5.02041e-09
3.86225e-09
4.81508e-09
4.29023e-09
4.30308e-09
5.09769e-09
5.08889e-09
4.32308e-09
4.85358e-09
5.14282e-09
3.92053e-09
4.76239e-09
5.83918e-09
5.05606e-09
6.96519e-09
5.48912e-09
5.27008e-09
6.85832e-09
5.44204e-09
5.32625e-09
6.67021e-09
6.54858e-09
5.27793e-09
6.85858e-09
5.41427e-09
5.42478e-09
6.62814e-09
6.62797e-09
5.45724e-09
6.40425e-09
6.71793e-09
5.1971e-09
6.85632e-09
7.36415e-09
6.69158e-09
9.1066e-09
7.83661e-09
7.57503e-09
1.03656e-08
7.13428e-09
6.99779e-09
8.93783e-09
8.8211e-09
7.53863e-09
1.04948e-08
7.08504e-09
7.12887e-09
8.8827e-09
8.87515e-09
7.22682e-09
8.6539e-09
9.09528e-09
7.59266e-09
1.02999e-08
9.79837e-09
8.92612e-09
1.18725e-08
1.21037e-08
1.15383e-08
1.64217e-08
9.62284e-09
9.52217e-09
1.21664e-08
1.19728e-08
1.18115e-08
1.64149e-08
9.56413e-09
9.58309e-09
1.21104e-08
1.21086e-08
9.83587e-09
1.17613e-08
1.23574e-08
1.14345e-08
1.62893e-08
1.24474e-08
1.20483e-08
1.40311e-08
1.8226e-08
1.81982e-08
2.66222e-08
1.31555e-08
1.29133e-08
1.67278e-08
1.69325e-08
1.78853e-08
2.85328e-08
1.30903e-08
1.30993e-08
1.66279e-08
1.66208e-08
1.32516e-08
1.67427e-08
1.68244e-08
1.82084e-08
2.64613e-08
1.48161e-08
1.65578e-08
1.86157e-08
2.87507e-08
2.98265e-08
4.3877e-08
1.82406e-08
1.8567e-08
2.30991e-08
2.3688e-08
3.31794e-08
4.98226e-08
1.81159e-08
1.79908e-08
2.29838e-08
2.29447e-08
1.82622e-08
2.35566e-08
2.28514e-08
2.93165e-08
4.30483e-08
2.02759e-08
2.2859e-08
2.51719e-08
4.44336e-08
4.83709e-08
6.76909e-08
2.49657e-08
2.5371e-08
3.13222e-08
3.24768e-08
5.25241e-08
7.41926e-08
2.48509e-08
2.48759e-08
3.11747e-08
3.13624e-08
2.46712e-08
3.20203e-08
3.12078e-08
4.78394e-08
6.85757e-08
2.67005e-08
3.11896e-08
3.14702e-08
6.70031e-08
7.35741e-08
1.03763e-07
3.36963e-08
3.52485e-08
4.22973e-08
4.25362e-08
8.3769e-08
1.12478e-07
3.3528e-08
3.37169e-08
4.2139e-08
4.18669e-08
3.36629e-08
4.1834e-08
4.19137e-08
7.4519e-08
1.02353e-07
3.33847e-08
4.15755e-08
4.09204e-08
1.01148e-07
1.13068e-07
1.52684e-07
4.55102e-08
4.46241e-08
5.57361e-08
5.36945e-08
1.15944e-07
1.40587e-07
4.53483e-08
4.49724e-08
5.55218e-08
5.5495e-08
4.49916e-08
5.35916e-08
5.53147e-08
1.10574e-07
1.49566e-07
4.3991e-08
5.51652e-08
5.44162e-08
1.49309e-07
1.62437e-07
2.05749e-07
5.92899e-08
5.7749e-08
7.12505e-08
7.13292e-08
1.52536e-07
2.09549e-07
5.90477e-08
5.93796e-08
7.09677e-08
7.17271e-08
5.90486e-08
7.11194e-08
7.14945e-08
1.60953e-07
2.09634e-07
5.81618e-08
7.13861e-08
7.0665e-08
2.07129e-07
2.18986e-07
2.80237e-07
7.58884e-08
7.59948e-08
9.13326e-08
9.05878e-08
2.23079e-07
2.77339e-07
7.5606e-08
7.60662e-08
9.11225e-08
9.06219e-08
7.60881e-08
9.01051e-08
9.08938e-08
2.22036e-07
2.76229e-07
7.52738e-08
9.03068e-08
9.00466e-08
2.7807e-07
2.95755e-07
3.53306e-07
9.66165e-08
9.57953e-08
1.12582e-07
1.12661e-07
2.9164e-07
3.52162e-07
9.63908e-08
9.58391e-08
1.12189e-07
1.12978e-07
9.61161e-08
1.12028e-07
1.12672e-07
2.90955e-07
3.53485e-07
9.52458e-08
1.1248e-07
1.11847e-07
3.52027e-07
3.67176e-07
4.27067e-07
1.18216e-07
1.18748e-07
1.37501e-07
1.38087e-07
3.68023e-07
4.30162e-07
1.17811e-07
1.19199e-07
1.37344e-07
1.38533e-07
1.18593e-07
1.37144e-07
1.37845e-07
3.69716e-07
4.32027e-07
1.17788e-07
1.37944e-07
1.37068e-07
4.29581e-07
4.44224e-07
5.07944e-07
1.44738e-07
1.44926e-07
1.67045e-07
1.67386e-07
4.46232e-07
5.071e-07
1.44631e-07
1.45123e-07
1.66894e-07
1.67177e-07
1.44783e-07
1.66231e-07
1.66747e-07
4.47507e-07
5.06502e-07
1.43981e-07
1.66567e-07
1.65975e-07
5.06217e-07
5.23482e-07
5.75427e-07
1.74503e-07
1.75258e-07
1.97956e-07
1.98529e-07
5.23145e-07
5.75418e-07
1.74264e-07
1.75295e-07
1.97584e-07
1.99071e-07
1.74366e-07
1.97027e-07
1.98109e-07
5.22865e-07
5.77042e-07
1.7361e-07
1.98276e-07
1.97445e-07
5.76067e-07
5.90274e-07
6.40499e-07
2.06398e-07
2.0648e-07
2.331e-07
2.34742e-07
5.89854e-07
6.42599e-07
2.05973e-07
2.06752e-07
2.32485e-07
2.31986e-07
2.06469e-07
2.32783e-07
2.32991e-07
5.90783e-07
6.37855e-07
2.05792e-07
2.31593e-07
2.32238e-07
6.40576e-07
6.54818e-07
6.98586e-07
2.42336e-07
2.45174e-07
2.70998e-07
2.73314e-07
6.57849e-07
6.96793e-07
2.41646e-07
2.41731e-07
2.70448e-07
2.72287e-07
2.42247e-07
2.70765e-07
2.7092e-07
6.52992e-07
7.01524e-07
2.41462e-07
2.71555e-07
2.70234e-07
6.98691e-07
7.116e-07
7.48909e-07
2.8075e-07
2.81627e-07
3.10648e-07
3.09908e-07
7.07429e-07
7.42831e-07
2.8032e-07
2.82191e-07
3.10264e-07
3.10494e-07
2.80702e-07
3.06416e-07
3.10824e-07
7.14497e-07
7.48382e-07
2.80057e-07
3.09478e-07
3.10291e-07
7.49325e-07
7.6096e-07
7.9524e-07
3.21129e-07
3.21764e-07
3.54374e-07
3.59953e-07
7.572e-07
8.01716e-07
3.20532e-07
3.20412e-07
3.5319e-07
3.53321e-07
3.21307e-07
3.56007e-07
3.53966e-07
7.59795e-07
7.94365e-07
3.20762e-07
3.52477e-07
3.53235e-07
7.95295e-07
8.0658e-07
8.36573e-07
3.65686e-07
3.71704e-07
3.98733e-07
4.0077e-07
8.13501e-07
8.36718e-07
3.64461e-07
3.64777e-07
3.98e-07
3.98828e-07
3.65067e-07
3.98592e-07
3.99023e-07
8.05914e-07
8.36692e-07
3.6429e-07
3.97925e-07
3.98269e-07
8.37113e-07
8.46644e-07
8.73865e-07
4.09705e-07
4.09464e-07
4.44527e-07
4.421e-07
8.44927e-07
8.71186e-07
4.09169e-07
4.1018e-07
4.44152e-07
4.45042e-07
4.10506e-07
4.40772e-07
4.4516e-07
8.46914e-07
8.73515e-07
4.09773e-07
4.44185e-07
4.44591e-07
8.7433e-07
8.83783e-07
9.09707e-07
4.56821e-07
4.55588e-07
4.93797e-07
4.95486e-07
8.82108e-07
9.10989e-07
4.56258e-07
4.56799e-07
4.9268e-07
4.92623e-07
4.56963e-07
4.94049e-07
4.92992e-07
8.83169e-07
9.09166e-07
4.56383e-07
4.91438e-07
4.92446e-07
9.09385e-07
9.18677e-07
9.41443e-07
5.05722e-07
5.07403e-07
5.40822e-07
5.40448e-07
9.19695e-07
9.4003e-07
5.04582e-07
5.05044e-07
5.40067e-07
5.424e-07
5.05145e-07
5.38974e-07
5.41638e-07
9.18463e-07
9.42386e-07
5.04661e-07
5.41723e-07
5.41233e-07
9.4249e-07
9.50015e-07
9.73287e-07
5.52775e-07
5.52074e-07
5.89864e-07
5.89156e-07
9.48523e-07
9.73424e-07
5.52106e-07
5.54002e-07
5.89094e-07
5.87692e-07
5.53655e-07
5.88303e-07
5.8982e-07
9.50685e-07
9.71531e-07
5.53294e-07
5.86727e-07
5.89256e-07
9.73118e-07
9.81656e-07
1.00322e-06
6.02159e-07
6.01489e-07
6.37713e-07
6.37022e-07
9.82116e-07
1.00297e-06
6.01282e-07
5.99917e-07
6.36966e-07
6.39665e-07
6.01891e-07
6.36611e-07
6.37556e-07
9.79901e-07
1.00473e-06
6.01199e-07
6.38808e-07
6.371e-07
1.00321e-06
1.01101e-06
1.03228e-06
6.49476e-07
6.48672e-07
6.85335e-07
6.84727e-07
1.01045e-06
1.03174e-06
6.48874e-07
6.52377e-07
6.8475e-07
6.86436e-07
6.49624e-07
6.83899e-07
6.86585e-07
1.01315e-06
1.0332e-06
6.49336e-07
6.85704e-07
6.86383e-07
1.03352e-06
1.03997e-06
1.06066e-06
6.97101e-07
6.96772e-07
7.30992e-07
7.31567e-07
1.03961e-06
1.06123e-06
6.96403e-07
6.9713e-07
7.30398e-07
7.30018e-07
6.98349e-07
7.31068e-07
7.30629e-07
1.04002e-06
1.05927e-06
6.9802e-07
7.29329e-07
7.30202e-07
1.06025e-06
1.06788e-06
1.08851e-06
7.42157e-07
7.42983e-07
7.76091e-07
7.76415e-07
1.06865e-06
1.08806e-06
7.41606e-07
7.41366e-07
7.75282e-07
7.75938e-07
7.41326e-07
7.75444e-07
7.75807e-07
1.06684e-06
1.0887e-06
7.4097e-07
7.75229e-07
7.75189e-07
1.08798e-06
1.09583e-06
1.11558e-06
7.87161e-07
7.86664e-07
8.18093e-07
8.15546e-07
1.09475e-06
1.11378e-06
7.86325e-07
7.87216e-07
8.17723e-07
8.18752e-07
7.87331e-07
8.1521e-07
8.18644e-07
1.09595e-06
1.11586e-06
7.86649e-07
8.18321e-07
8.18418e-07
1.11626e-06
1.12215e-06
1.14103e-06
8.27967e-07
8.258e-07
8.57997e-07
8.59678e-07
1.12068e-06
1.1416e-06
8.2759e-07
8.28396e-07
8.56957e-07
8.57426e-07
8.28255e-07
8.58714e-07
8.58491e-07
1.12247e-06
1.14081e-06
8.28148e-07
8.57013e-07
8.57824e-07
1.14175e-06
1.14788e-06
1.16764e-06
8.68122e-07
8.70272e-07
8.9697e-07
8.97382e-07
1.14879e-06
1.1688e-06
8.67094e-07
8.6783e-07
8.97087e-07
8.98256e-07
8.69122e-07
8.97333e-07
8.97221e-07
1.14766e-06
1.16823e-06
8.68235e-07
8.97769e-07
8.96883e-07
1.16749e-06
1.17391e-06
1.19057e-06
9.05631e-07
9.0564e-07
9.30067e-07
9.3248e-07
1.17499e-06
1.19217e-06
9.0591e-07
9.06852e-07
9.29364e-07
9.2971e-07
9.04832e-07
9.311e-07
9.28352e-07
1.17454e-06
1.19013e-06
9.0481e-07
9.29092e-07
9.28061e-07
1.18889e-06
1.19654e-06
1.21566e-06
9.38655e-07
9.41789e-07
9.66155e-07
9.65206e-07
1.19837e-06
1.21488e-06
9.37495e-07
9.37888e-07
9.653e-07
9.65806e-07
9.3777e-07
9.64458e-07
9.68023e-07
1.19588e-06
1.21582e-06
9.37041e-07
9.66026e-07
9.67175e-07
1.21767e-06
1.22209e-06
1.23812e-06
9.74411e-07
9.71495e-07
9.94249e-07
9.89874e-07
1.22001e-06
1.2333e-06
9.74098e-07
9.7457e-07
9.9516e-07
9.96317e-07
9.76456e-07
9.90017e-07
9.95242e-07
1.22258e-06
1.23959e-06
9.761e-07
9.95776e-07
9.95877e-07
1.23948e-06
1.24295e-06
1.25724e-06
1.00037e-06
9.97471e-07
1.02218e-06
1.02504e-06
1.23912e-06
1.26073e-06
1.00124e-06
1.00263e-06
1.02176e-06
1.02245e-06
1.00066e-06
1.02457e-06
1.02092e-06
1.24436e-06
1.25752e-06
1.00135e-06
1.02213e-06
1.02088e-06
1.25667e-06
1.26359e-06
1.28153e-06
1.03028e-06
1.03427e-06
1.05103e-06
1.05411e-06
1.26796e-06
1.28612e-06
1.02938e-06
1.02926e-06
1.04967e-06
1.04838e-06
1.0289e-06
1.05415e-06
1.05022e-06
1.26334e-06
1.27927e-06
1.02863e-06
1.04838e-06
1.04962e-06
1.28119e-06
1.28662e-06
1.29741e-06
1.05684e-06
1.05797e-06
1.07264e-06
1.0696e-06
1.29019e-06
1.29465e-06
1.05564e-06
1.05473e-06
1.07262e-06
1.07397e-06
1.05623e-06
1.06941e-06
1.07317e-06
1.28429e-06
1.29844e-06
1.05557e-06
1.07359e-06
1.07294e-06
1.29855e-06
1.3022e-06
1.3156e-06
1.07783e-06
1.07515e-06
1.09385e-06
1.09458e-06
1.29867e-06
1.31391e-06
1.07801e-06
1.0802e-06
1.09378e-06
1.09677e-06
1.07897e-06
1.09363e-06
1.09511e-06
1.30416e-06
1.31856e-06
1.07888e-06
1.09612e-06
1.09551e-06
1.31705e-06
1.32046e-06
1.33398e-06
1.09951e-06
1.10066e-06
1.11785e-06
1.11653e-06
1.31962e-06
1.33305e-06
1.09937e-06
1.10186e-06
1.11757e-06
1.11599e-06
1.09974e-06
1.11579e-06
1.11431e-06
1.32292e-06
1.33291e-06
1.10026e-06
1.11667e-06
1.11437e-06
1.33136e-06
1.3394e-06
1.35115e-06
1.12369e-06
1.12133e-06
1.13708e-06
1.1357e-06
1.33753e-06
1.35023e-06
1.12345e-06
1.12016e-06
1.13651e-06
1.13339e-06
1.11999e-06
1.13609e-06
1.13745e-06
1.33717e-06
1.34647e-06
1.11966e-06
1.13384e-06
1.13602e-06
1.35019e-06
1.35455e-06
1.36187e-06
1.14075e-06
1.14057e-06
1.15296e-06
1.15475e-06
1.35505e-06
1.36504e-06
1.14006e-06
1.13859e-06
1.15218e-06
1.15632e-06
1.14237e-06
1.15436e-06
1.15502e-06
1.35079e-06
1.36594e-06
1.14082e-06
1.15626e-06
1.15373e-06
1.36519e-06
1.36647e-06
1.3795e-06
1.15768e-06
1.15879e-06
1.17122e-06
1.16842e-06
1.36883e-06
1.37566e-06
1.15704e-06
1.16154e-06
1.17141e-06
1.17198e-06
1.15904e-06
1.16776e-06
1.17041e-06
1.37141e-06
1.38084e-06
1.1583e-06
1.17232e-06
1.17191e-06
1.37833e-06
1.38423e-06
1.39665e-06
1.17573e-06
1.17216e-06
1.1902e-06
1.18836e-06
1.37909e-06
1.39249e-06
1.17615e-06
1.17456e-06
1.19075e-06
1.18548e-06
1.17405e-06
1.18796e-06
1.18704e-06
1.38341e-06
1.38967e-06
1.17558e-06
1.18386e-06
1.18604e-06
1.39131e-06
1.40151e-06
1.40867e-06
1.19492e-06
1.19466e-06
1.20443e-06
1.20763e-06
1.39918e-06
1.41425e-06
1.19524e-06
1.19073e-06
1.20396e-06
1.20709e-06
1.19232e-06
1.20864e-06
1.2073e-06
1.3945e-06
1.41032e-06
1.19022e-06
1.20621e-06
1.20483e-06
1.40945e-06
1.41033e-06
1.40717e-06
1.20586e-06
1.20915e-06
1.20915e-06
1.20929e-06
1.41665e-06
1.40801e-06
1.20517e-06
1.21108e-06
1.20848e-06
1.21679e-06
1.21063e-06
1.21114e-06
1.21627e-06
1.41533e-06
1.41977e-06
1.20915e-06
1.21946e-06
1.21815e-06
1.41873e-06
1.41064e-06
1.42797e-06
1.213e-06
1.21018e-06
1.22905e-06
1.2291e-06
1.40979e-06
1.42821e-06
1.21255e-06
1.21721e-06
1.22888e-06
1.22319e-06
1.21856e-06
1.22873e-06
1.22803e-06
1.42116e-06
1.42149e-06
1.22029e-06
1.22294e-06
1.2269e-06
1.42691e-06
1.43487e-06
1.45228e-06
1.2351e-06
1.23661e-06
1.24946e-06
1.25221e-06
1.43638e-06
1.45537e-06
1.23494e-06
1.22882e-06
1.24917e-06
1.24707e-06
1.23175e-06
1.25036e-06
1.244e-06
1.42603e-06
1.44544e-06
1.22991e-06
1.24499e-06
1.24208e-06
1.44301e-06
1.45619e-06
1.45375e-06
1.25232e-06
1.25396e-06
1.25468e-06
1.24973e-06
1.458e-06
1.44513e-06
1.252e-06
1.2518e-06
1.25454e-06
1.25788e-06
1.24804e-06
1.24901e-06
1.25632e-06
1.45134e-06
1.45751e-06
1.24661e-06
1.25739e-06
1.25673e-06
1.45554e-06
1.45471e-06
1.44688e-06
1.25378e-06
1.24769e-06
1.25269e-06
1.24894e-06
1.44555e-06
1.44165e-06
1.25399e-06
1.25749e-06
1.25331e-06
1.25547e-06
1.25739e-06
1.24942e-06
1.25762e-06
1.4587e-06
1.45104e-06
1.2583e-06
1.25652e-06
1.25932e-06
1.45434e-06
1.44955e-06
1.46397e-06
1.25425e-06
1.2551e-06
1.26883e-06
1.27691e-06
1.44756e-06
1.47637e-06
1.2548e-06
1.25607e-06
1.2679e-06
1.26677e-06
1.25795e-06
1.27686e-06
1.26778e-06
1.453e-06
1.46218e-06
1.25971e-06
1.26697e-06
1.26826e-06
1.46419e-06
1.47022e-06
1.48475e-06
1.27423e-06
1.28255e-06
1.28617e-06
1.28868e-06
1.48368e-06
1.49003e-06
1.27287e-06
1.2711e-06
1.28457e-06
1.28298e-06
1.27229e-06
1.28851e-06
1.28417e-06
1.4673e-06
1.48122e-06
1.27196e-06
1.28272e-06
1.28216e-06
1.48165e-06
1.48817e-06
1.48789e-06
1.28826e-06
1.28743e-06
1.28949e-06
1.28259e-06
1.49095e-06
1.47862e-06
1.28688e-06
1.28625e-06
1.28922e-06
1.29269e-06
1.28675e-06
1.28271e-06
1.28986e-06
1.48569e-06
1.49319e-06
1.28487e-06
1.29304e-06
1.29002e-06
1.48858e-06
1.48926e-06
1.48638e-06
1.289e-06
1.28256e-06
1.28921e-06
1.28878e-06
1.47997e-06
1.48453e-06
1.28919e-06
1.29352e-06
1.28907e-06
1.29183e-06
1.28987e-06
1.28925e-06
1.28984e-06
1.49558e-06
1.48961e-06
1.29073e-06
1.29219e-06
1.29133e-06
1.4877e-06
1.48869e-06
1.49326e-06
1.29089e-06
1.29127e-06
1.29688e-06
1.29639e-06
1.48825e-06
1.49408e-06
1.28966e-06
1.29028e-06
1.29482e-06
1.28954e-06
1.29078e-06
1.29598e-06
1.29637e-06
1.49046e-06
1.48447e-06
1.29143e-06
1.2892e-06
1.29471e-06
1.49255e-06
1.49639e-06
1.5003e-06
1.29834e-06
1.29737e-06
1.30067e-06
1.30109e-06
1.49656e-06
1.50028e-06
1.2967e-06
1.29199e-06
1.30161e-06
1.30504e-06
1.29791e-06
1.30097e-06
1.30074e-06
1.48775e-06
1.50315e-06
1.29632e-06
1.30477e-06
1.3012e-06
1.49995e-06
1.50294e-06
1.50835e-06
1.3015e-06
1.3029e-06
1.30758e-06
1.3085e-06
1.50365e-06
1.51077e-06
1.30328e-06
1.30878e-06
1.30896e-06
1.31408e-06
1.30203e-06
1.30949e-06
1.30859e-06
1.50887e-06
1.51791e-06
1.30294e-06
1.3145e-06
1.30918e-06
1.50897e-06
1.51174e-06
1.51489e-06
1.30985e-06
1.30966e-06
1.31333e-06
1.31016e-06
1.51354e-06
1.51074e-06
1.31074e-06
1.31394e-06
1.31321e-06
1.30946e-06
1.31104e-06
1.31079e-06
1.3149e-06
1.51945e-06
1.51017e-06
1.3112e-06
1.30974e-06
1.31426e-06
1.51682e-06
1.51625e-06
1.50939e-06
1.31319e-06
1.3094e-06
1.30927e-06
1.30777e-06
1.51189e-06
1.50685e-06
1.31288e-06
1.30807e-06
1.30898e-06
1.30599e-06
1.31478e-06
1.30774e-06
1.3103e-06
1.51104e-06
1.50433e-06
1.31406e-06
1.30569e-06
1.30987e-06
1.51119e-06
1.51061e-06
1.51133e-06
1.30851e-06
1.3077e-06
1.30994e-06
1.3106e-06
1.50857e-06
1.51155e-06
1.30828e-06
1.30611e-06
1.30976e-06
1.3108e-06
1.30915e-06
1.31017e-06
1.30902e-06
1.50615e-06
1.5112e-06
1.30887e-06
1.31034e-06
1.30903e-06
1.51071e-06
1.51458e-06
1.52171e-06
1.31195e-06
1.31259e-06
1.31746e-06
1.3182e-06
1.51506e-06
1.52341e-06
1.31165e-06
1.31297e-06
1.31686e-06
1.31845e-06
1.31077e-06
1.31811e-06
1.31621e-06
1.51517e-06
1.52399e-06
1.31071e-06
1.31865e-06
1.31569e-06
1.51945e-06
1.52465e-06
1.52241e-06
1.3184e-06
1.31911e-06
1.31715e-06
1.31768e-06
1.52651e-06
1.52379e-06
1.3178e-06
1.31943e-06
1.31694e-06
1.31871e-06
1.31736e-06
1.31795e-06
1.31817e-06
1.52699e-06
1.5248e-06
1.31688e-06
1.31903e-06
1.31838e-06
1.52363e-06
1.52357e-06
1.51785e-06
1.31563e-06
1.31625e-06
1.31293e-06
1.31325e-06
1.52489e-06
1.5186e-06
1.31546e-06
1.31708e-06
1.31259e-06
1.31224e-06
1.3176e-06
1.31359e-06
1.31483e-06
1.52593e-06
1.51711e-06
1.3182e-06
1.31264e-06
1.31466e-06
1.52112e-06
1.51947e-06
1.51955e-06
1.31269e-06
1.3125e-06
1.31238e-06
1.31014e-06
1.51997e-06
1.51566e-06
1.3123e-06
1.31114e-06
1.31206e-06
1.31006e-06
1.31362e-06
1.31006e-06
1.31024e-06
1.51816e-06
1.51492e-06
1.31306e-06
1.3094e-06
1.30949e-06
1.51582e-06
1.52123e-06
1.51823e-06
1.31195e-06
1.30963e-06
1.31031e-06
1.31033e-06
1.51704e-06
1.51841e-06
1.31188e-06
1.31035e-06
1.31063e-06
1.31236e-06
1.3097e-06
1.3106e-06
1.31077e-06
1.51721e-06
1.52126e-06
1.30925e-06
1.31309e-06
1.31158e-06
1.51908e-06
1.52015e-06
1.52288e-06
1.31033e-06
1.31177e-06
1.31249e-06
1.31412e-06
1.52164e-06
1.52657e-06
1.31062e-06
1.31327e-06
1.31252e-06
1.31508e-06
1.31172e-06
1.31415e-06
1.31257e-06
1.52427e-06
1.52768e-06
1.31247e-06
1.31547e-06
1.31276e-06
1.52357e-06
1.52548e-06
1.52336e-06
1.31286e-06
1.314e-06
1.31093e-06
1.30862e-06
1.52844e-06
1.52031e-06
1.31288e-06
1.31502e-06
1.31079e-06
1.30902e-06
1.31199e-06
1.30803e-06
1.30769e-06
1.52951e-06
1.5208e-06
1.31171e-06
1.30833e-06
1.30758e-06
1.51892e-06
1.52452e-06
1.51564e-06
1.30899e-06
1.30655e-06
1.30301e-06
1.30201e-06
1.52122e-06
1.51416e-06
1.30861e-06
1.3063e-06
1.30214e-06
1.30064e-06
1.30656e-06
1.30222e-06
1.30447e-06
1.52154e-06
1.51198e-06
1.30653e-06
1.30129e-06
1.30446e-06
1.51832e-06
1.51676e-06
1.51415e-06
1.3016e-06
1.30131e-06
1.29973e-06
1.3005e-06
1.5158e-06
1.51632e-06
1.30074e-06
1.30015e-06
1.2995e-06
1.30183e-06
1.30414e-06
1.30124e-06
1.30156e-06
1.51369e-06
1.51779e-06
1.3041e-06
1.30245e-06
1.30146e-06
1.51755e-06
1.51643e-06
1.51599e-06
1.29974e-06
1.30035e-06
1.2988e-06
1.29704e-06
1.51828e-06
1.51375e-06
1.29992e-06
1.30215e-06
1.29923e-06
1.2984e-06
1.30048e-06
1.29637e-06
1.29552e-06
1.5206e-06
1.51528e-06
1.30032e-06
1.29687e-06
1.295e-06
1.51174e-06
1.51714e-06
1.50551e-06
1.29675e-06
1.29519e-06
1.2882e-06
1.2883e-06
1.51487e-06
1.50549e-06
1.29696e-06
1.29489e-06
1.28748e-06
1.28454e-06
1.29379e-06
1.28798e-06
1.28767e-06
1.51598e-06
1.50003e-06
1.29301e-06
1.28403e-06
1.28652e-06
1.50448e-06
1.50631e-06
1.49871e-06
1.28578e-06
1.28648e-06
1.28068e-06
1.28142e-06
1.50659e-06
1.50134e-06
1.28486e-06
1.28227e-06
1.27993e-06
1.2797e-06
1.28611e-06
1.28183e-06
1.28169e-06
1.50087e-06
1.49815e-06
1.28493e-06
1.28052e-06
1.28155e-06
1.5008e-06
1.50034e-06
1.49991e-06
1.27996e-06
1.28019e-06
1.27811e-06
1.27697e-06
1.50271e-06
1.49856e-06
1.27937e-06
1.28008e-06
1.27848e-06
1.28098e-06
1.28063e-06
1.27716e-06
1.27772e-06
1.5009e-06
1.50429e-06
1.28087e-06
1.28131e-06
1.27831e-06
1.49952e-06
1.50198e-06
1.50309e-06
1.27795e-06
1.27659e-06
1.2772e-06
1.27603e-06
1.50015e-06
1.50158e-06
1.27841e-06
1.28105e-06
1.27774e-06
1.27896e-06
1.27739e-06
1.27608e-06
1.27685e-06
1.50662e-06
1.50551e-06
1.27797e-06
1.27828e-06
1.27689e-06
1.50282e-06
1.505e-06
1.49183e-06
1.27663e-06
1.27576e-06
1.26525e-06
1.26543e-06
1.50387e-06
1.49247e-06
1.27696e-06
1.27705e-06
1.26459e-06
1.26232e-06
1.27651e-06
1.26551e-06
1.2656e-06
1.50668e-06
1.48781e-06
1.27625e-06
1.26194e-06
1.26439e-06
1.49219e-06
1.49168e-06
1.46576e-06
1.26027e-06
1.26042e-06
1.24434e-06
1.2444e-06
1.49238e-06
1.46632e-06
1.25942e-06
1.25685e-06
1.24346e-06
1.24185e-06
1.26044e-06
1.24427e-06
1.24408e-06
1.48731e-06
1.46201e-06
1.25925e-06
1.24198e-06
1.24342e-06
1.46549e-06
1.46633e-06
1.47298e-06
1.24209e-06
1.24217e-06
1.24586e-06
1.24621e-06
1.46687e-06
1.47343e-06
1.24132e-06
1.24033e-06
1.24579e-06
1.24796e-06
1.24179e-06
1.24599e-06
1.2459e-06
1.46288e-06
1.47564e-06
1.24136e-06
1.24839e-06
1.24647e-06
1.47326e-06
1.48049e-06
1.48938e-06
1.25275e-06
1.2532e-06
1.24685e-06
1.24734e-06
1.48101e-06
1.48991e-06
1.25277e-06
1.25527e-06
1.24715e-06
1.24972e-06
1.25296e-06
1.24737e-06
1.24738e-06
1.48393e-06
1.4939e-06
1.25359e-06
1.25019e-06
1.24811e-06
1.49038e-06
1.47191e-06
1.21189e-06
1.2122e-06
1.47234e-06
1.21214e-06
1.21416e-06
7.58735e-07
7.60281e-07
7.59026e-07
1.21239e-06
1.47589e-06
1.21292e-06
3.42435e-09
2.44932e-09
2.00216e-09
2.04815e-09
1.76194e-09
8.79277e-09
2.80282e-08
1.34596e-09
1.63508e-09
4.23859e-09
1.32882e-09
5.91623e-09
5.8121e-09
7.64875e-09
2.10478e-08
7.4461e-09
1.65731e-07
5.97e-09
2.60807e-07
1.56708e-06
3.12815e-06
8.75763e-09
2.04133e-07
7.36564e-09
3.18655e-07
2.37825e-09
2.06631e-09
2.99942e-09
2.06379e-09
2.35459e-09
2.04651e-09
2.9495e-09
1.58853e-09
9.92407e-08
4.14176e-09
1.26124e-08
1.67143e-09
7.79288e-08
4.09255e-09
1.62092e-06
3.22163e-06
1.61962e-09
1.99857e-09
7.72706e-08
4.50064e-09
1.63455e-09
1.97921e-09
5.6933e-08
2.19522e-07
2.25001e-07
5.75764e-09
1.88407e-07
1.95743e-07
1.69439e-08
4.69366e-07
1.22145e-08
6.75295e-07
6.99539e-06
1.00227e-05
1.80769e-08
5.8474e-07
1.33182e-08
8.36664e-07
2.32418e-09
2.03144e-09
2.83039e-09
2.00158e-09
2.23522e-09