/*--------------------------------*- C++ -*----------------------------------*\
| =========                 |                                                 |
| \\      /  F ield         | OpenFOAM: The Open Source CFD Toolbox           |
|  \\    /   O peration     | Version:  v2006                                 |
|   \\  /    A nd           | Website:  www.openfoam.com                      |
|    \\/     M anipulation  |                                                 |
\*---------------------------------------------------------------------------*/
FoamFile
{
    version     2.0;
    format      ascii;
    class       surfaceScalarField;
    location    "250";
    object      phi;
}
// * * * * * * * * * * * * * * * * * * * * * * * * * * * * * * * * * * * * * //

dimensions      [0 3 -1 0 0 0 0];
oriented        oriented;


internalField   nonuniform List<scalar> 
41137
(
-1.50548e-06
3.91176e-07
0.00113933
8.18789e-07
1.13964e-06
-4.8473e-07
1.33696e-07
7.30296e-07
-5.18821e-07
5.93793e-08
-1.22156e-06
-0.00113887
1.52999e-06
1.49808e-06
0.00027442
-4.77537e-07
-4.85091e-07
-0.000276485
-8.02661e-07
-8.0312e-07
-0.00115249
4.34904e-07
4.28557e-07
0.00115323
-0.00114058
-1.49907e-06
4.16345e-07
0.00114096
-4.73844e-07
1.13672e-06
1.36077e-07
8.0285e-07
7.39271e-07
-5.05479e-07
-1.20668e-06
6.84488e-08
-1.49052e-06
3.99295e-07
-5.05441e-07
0.00114086
-0.00114048
-4.70677e-07
1.13437e-06
1.36524e-07
8.07954e-07
-1.20391e-06
7.36517e-07
6.84584e-08
-0.000276499
1.5287e-06
1.48021e-06
-4.71069e-07
-4.60365e-07
0.000274422
-7.79909e-07
-7.8017e-07
-0.00115544
4.18404e-07
4.19113e-07
0.00115617
-0.00114207
-1.48339e-06
7.80411e-07
3.92161e-07
0.00114241
-4.55031e-07
1.14183e-06
1.38262e-07
7.45541e-07
-4.89433e-07
-1.18868e-06
7.47295e-08
-0.00114198
-1.48053e-06
7.79822e-07
3.91362e-07
0.00114232
-4.57657e-07
1.13958e-06
1.41908e-07
7.40038e-07
-4.86708e-07
-1.18299e-06
7.19106e-08
-0.000276451
1.51268e-06
1.46967e-06
-4.45869e-07
-4.56643e-07
0.000274371
-7.5755e-07
-7.57764e-07
-0.0011583
4.08713e-07
4.09351e-07
0.00115899
-0.00114337
-1.47231e-06
7.57703e-07
3.84256e-07
0.00114367
-4.42249e-07
1.14673e-06
1.43021e-07
7.5183e-07
-4.73766e-07
-1.17053e-06
8.11725e-08
-0.00114328
-1.47004e-06
7.57707e-07
3.84588e-07
0.00114357
-4.45804e-07
1.14382e-06
1.45675e-07
7.46442e-07
-4.70946e-07
-1.16476e-06
7.84482e-08
-0.000276351
1.50144e-06
1.45841e-06
-4.31669e-07
-4.424e-07
0.000274265
-7.35206e-07
-7.35363e-07
-0.00116105
3.99392e-07
3.99951e-07
0.00116172
-0.00114448
-1.46053e-06
7.34826e-07
3.7567e-07
0.00114472
-4.29882e-07
1.15154e-06
1.47647e-07
7.58196e-07
-4.585e-07
-1.15242e-06
8.76924e-08
-0.00114438
-1.4583e-06
7.35196e-07
3.76795e-07
0.00114463
-4.33613e-07
1.1482e-06
1.49552e-07
7.52805e-07
-4.55649e-07
-1.14675e-06
8.50779e-08
-0.000276204
1.48993e-06
1.44688e-06
-4.17985e-07
-4.287e-07
0.000274114
-7.12437e-07
-7.12517e-07
-0.00116369
3.90054e-07
3.90676e-07
0.00116433
-0.00114539
-1.44834e-06
7.124e-07
3.66718e-07
0.00114559
-4.18114e-07
1.15602e-06
1.5181e-07
7.64583e-07
-4.43659e-07
-1.13463e-06
9.42845e-08
-0.0011453
-1.44557e-06
7.12378e-07
3.67139e-07
0.0011455
-4.21065e-07
1.15304e-06
1.54192e-07
7.59052e-07
-4.40943e-07
-1.12915e-06
9.16198e-08
-0.000276019
1.47775e-06
1.43469e-06
-4.04348e-07
-4.15047e-07
0.000273926
-6.89444e-07
-6.89454e-07
-0.00116622
3.75394e-07
3.81687e-07
0.00116685
-0.00114612
-1.43542e-06
6.89324e-07
3.56079e-07
0.00114628
-4.06154e-07
1.16078e-06
1.56386e-07
7.70865e-07
-4.29318e-07
-1.11734e-06
1.00904e-07
-0.00114603
-1.43256e-06
6.89309e-07
3.56364e-07
0.00114618
-4.08908e-07
1.15796e-06
1.59054e-07
7.65255e-07
-4.26673e-07
-1.11192e-06
9.8165e-08
-0.000275803
1.46477e-06
1.42167e-06
-3.90569e-07
-4.01294e-07
0.000273709
1.53789e-06
0.000274444
-4.79311e-07
-4.8422e-07
-0.000276524
-1.13856e-06
0.000276545
-1.17398e-06
-0.000274457
1.10092e-07
1.15188e-07
4.25911e-07
0.00113844
8.35521e-07
1.17162e-06
-4.85341e-07
1.36419e-07
7.27542e-07
-5.18625e-07
5.63475e-08
-1.2186e-06
-0.00113804
-0.00114018
4.12156e-07
-1.50118e-06
1.38399e-07
-4.76615e-07
-1.21109e-06
6.67946e-08
7.37679e-07
-5.09579e-07
8.07942e-07
1.16804e-06
0.00113968
-0.00113927
4.08051e-07
-1.53043e-06
1.37791e-07
-4.79328e-07
-1.20854e-06
6.66773e-08
-5.09572e-07
7.34735e-07
8.07633e-07
-1.12189e-06
-0.000274429
1.15056e-07
1.04556e-07
1.53396e-06
1.49099e-06
-0.000276544
-4.62576e-07
-4.68115e-07
0.00027445
-1.18166e-06
-1.13828e-06
0.000276501
-0.000274415
1.13135e-07
1.21051e-07
-5.05579e-07
4.01271e-07
0.00114037
-0.00113998
-4.76871e-07
1.17731e-06
1.40723e-07
-1.20709e-06
7.39253e-07
6.8385e-08
-1.53149e-06
-5.02734e-07
4.00881e-07
0.0011405
-0.00114013
-4.76748e-07
1.17489e-06
1.41564e-07
8.30205e-07
-1.20946e-06
7.39239e-07
6.54878e-08
0.00114147
7.85418e-07
-0.00114112
3.94647e-07
-1.52646e-06
1.46e-07
-4.66448e-07
-1.19617e-06
7.28486e-08
-4.93633e-07
7.46606e-07
1.17624e-06
0.00114159
7.85345e-07
-0.00114124
3.94661e-07
-1.5211e-06
1.45922e-07
-4.66657e-07
-1.19585e-06
7.29736e-08
-4.9351e-07
7.46679e-07
-4.65576e-07
-4.7046e-07
0.00027445
-1.14086e-06
0.000276491
-0.000274415
1.18448e-07
1.23525e-07
-5.02706e-07
4.00149e-07
0.00114137
-0.00114098
-4.68549e-07
1.13391e-06
1.32334e-07
-1.20405e-06
7.36658e-07
6.58371e-08
-1.52834e-06
4.05836e-07
-1.20674e-06
0.00114039
-0.00114
-4.73578e-07
1.17247e-06
1.39153e-07
8.02041e-07
-5.05437e-07
7.39222e-07
6.83613e-08
0.00114248
7.85792e-07
-0.00114213
3.93511e-07
-1.48345e-06
1.37645e-07
-4.58145e-07
-1.19038e-06
7.02853e-08
-4.90783e-07
7.41242e-07
1.17583e-06
0.00114149
7.8565e-07
-0.00114114
3.95198e-07
-1.52158e-06
1.42476e-07
-4.64704e-07
-1.19302e-06
7.30327e-08
-4.93355e-07
7.44041e-07
4.12712e-07
0.00114006
-4.74435e-07
1.17151e-06
1.38032e-07
8.0286e-07
7.36384e-07
-5.05353e-07
6.83304e-08
-1.2039e-06
7.85791e-07
-0.00114171
3.93656e-07
-1.48606e-06
1.37567e-07
-4.58239e-07
-1.19308e-06
7.31114e-08
7.44034e-07
-4.93374e-07
1.17066e-06
0.00114116
7.85164e-07
-0.0011408
3.94396e-07
-1.51505e-06
1.43341e-07
-4.63282e-07
-1.19039e-06
7.29315e-08
-4.93476e-07
7.41042e-07
-0.000276522
-4.67502e-07
-4.62738e-07
0.000274434
-1.13773e-06
0.000276476
-0.000274399
1.15394e-07
1.20449e-07
4.00365e-07
-5.05162e-07
0.00114107
-0.00114068
-4.66135e-07
1.12257e-06
1.29668e-07
8.08611e-07
-1.20356e-06
7.36559e-07
6.58754e-08
7.85973e-07
-0.00114161
3.94234e-07
-1.48376e-06
1.39838e-07
-4.61814e-07
-1.19017e-06
7.03509e-08
7.38606e-07
-4.9332e-07
1.1273e-06
0.00114216
7.85393e-07
-0.00114181
3.93031e-07
-1.47206e-06
1.35036e-07
-4.54964e-07
-1.19002e-06
7.3296e-08
-4.93276e-07
7.41119e-07
-0.00027439
1.13246e-07
1.23805e-07
1.52374e-06
1.48071e-06
-4.45907e-07
-4.54046e-07
0.000274397
-1.18313e-06
-1.14257e-06
0.000276401
-0.000274325
1.20574e-07
1.28496e-07
3.92815e-07
0.00114181
-4.63235e-07
1.18283e-06
1.46786e-07
7.48203e-07
-4.8963e-07
-1.19169e-06
7.45645e-08
-1.51845e-06
7.79968e-07
3.93248e-07
0.00114194
-4.6345e-07
1.17721e-06
1.46609e-07
7.48171e-07
-4.89556e-07
-1.19147e-06
7.46078e-08
0.00114277
7.63474e-07
-0.00114246
3.87988e-07
-1.51335e-06
1.49544e-07
-4.54644e-07
-1.17792e-06
7.94105e-08
-4.77732e-07
7.53032e-07
1.18099e-06
0.00114289
7.62883e-07
-0.00114259
3.86896e-07
-1.51045e-06
1.50374e-07
-4.54138e-07
-1.17761e-06
7.94785e-08
-4.77659e-07
7.53044e-07
-4.5156e-07
-4.56373e-07
0.000274397
-1.14564e-06
0.000276391
-0.000274322
1.2639e-07
1.31449e-07
3.91673e-07
0.00114283
-4.54916e-07
1.13946e-06
1.38447e-07
7.42848e-07
-4.86784e-07
-1.18591e-06
7.20147e-08
-1.51837e-06
7.79537e-07
3.92418e-07
0.00114184
-4.60551e-07
1.17768e-06
1.44542e-07
7.45451e-07
-4.89468e-07
-1.18861e-06
7.45768e-08
0.00114378
7.63787e-07
-0.00114348
3.86743e-07
-1.47311e-06
1.41227e-07
-4.4633e-07
-1.17211e-06
7.68764e-08
-4.74875e-07
7.47705e-07
1.18022e-06
0.00114279
7.63679e-07
-0.00114249
3.8832e-07
-1.51098e-06
1.4625e-07
-4.5242e-07
-1.17489e-06
7.959e-08
-4.77513e-07
7.50374e-07
7.80225e-07
3.93627e-07
0.0011415
-4.60655e-07
1.17127e-06
1.433e-07
7.42619e-07
-4.89467e-07
7.46283e-08
-1.18604e-06
7.63257e-07
-0.00114307
3.86022e-07
-1.47537e-06
1.42034e-07
-4.4572e-07
-1.17486e-06
7.95797e-08
7.50386e-07
-4.77554e-07
1.17539e-06
0.00114246
7.62673e-07
-0.00114215
3.86777e-07
-1.50456e-06
1.47809e-07
-4.51034e-07
-1.17218e-06
7.93749e-08
-4.77629e-07
7.47433e-07
-4.48993e-07
-4.53775e-07
0.00027438
-1.1421e-06
0.000276376
-0.000274305
1.22994e-07
1.28055e-07
7.80352e-07
3.92291e-07
0.00114251
-4.52325e-07
1.12791e-06
1.35004e-07
7.42692e-07
-4.8928e-07
7.49921e-08
-1.18562e-06
7.63873e-07
-0.00114297
3.87531e-07
-1.47315e-06
1.43592e-07
-4.49543e-07
-1.16929e-06
7.69177e-08
7.44939e-07
-4.7477e-07
1.13201e-06
0.00114347
7.62912e-07
-0.00114316
3.85379e-07
-1.46157e-06
1.39512e-07
-4.42726e-07
-1.17173e-06
7.97433e-08
-4.77435e-07
7.47537e-07
-0.000274296
1.21114e-07
1.31713e-07
1.51034e-06
1.47006e-06
-4.32346e-07
-4.40462e-07
0.000274294
-1.18778e-06
-1.14724e-06
0.000276255
-0.000274184
1.28266e-07
1.36186e-07
3.8543e-07
0.00114307
-4.51158e-07
1.18461e-06
1.51121e-07
7.54579e-07
-4.73884e-07
-1.17341e-06
8.10142e-08
-1.50739e-06
7.57314e-07
3.85213e-07
0.00114319
-4.50663e-07
1.18209e-06
1.51357e-07
7.54457e-07
-4.73873e-07
-1.1733e-06
8.10677e-08
0.00114388
7.40849e-07
-0.00114362
3.79832e-07
-1.50159e-06
1.5384e-07
-4.42024e-07
-1.15989e-06
8.59817e-08
-4.62379e-07
7.59357e-07
1.18549e-06
0.001144
7.40334e-07
-0.00114374
3.78955e-07
-1.49903e-06
1.54575e-07
-4.41943e-07
-1.1595e-06
8.6027e-08
-4.62262e-07
7.59432e-07
-4.37503e-07
-4.42309e-07
0.000274291
-1.15016e-06
0.000276244
-0.000274181
1.33933e-07
1.38993e-07
3.84125e-07
0.00114408
-4.42811e-07
1.14409e-06
1.42838e-07
7.49246e-07
-4.71023e-07
-1.1676e-06
7.84863e-08
-1.50787e-06
7.5748e-07
3.85472e-07
0.00114309
-4.48671e-07
1.18194e-06
1.4834e-07
7.51852e-07
-4.73704e-07
-1.17037e-06
8.10964e-08
0.00114489
7.41099e-07
-0.00114463
3.78692e-07
-1.46135e-06
1.45541e-07
-4.33719e-07
-1.1541e-06
8.34554e-08
-4.5953e-07
7.54042e-07
1.18517e-06
0.0011439
7.40729e-07
-0.00114364
3.79656e-07
-1.49892e-06
1.51037e-07
-4.3925e-07
-1.15697e-06
8.60944e-08
-4.62236e-07
7.56582e-07
7.57159e-07
3.85042e-07
0.00114275
-4.47505e-07
1.17646e-06
1.48637e-07
7.48893e-07
-4.73834e-07
8.10293e-08
-1.16787e-06
7.40674e-07
-0.00114422
3.78022e-07
-1.46394e-06
1.46244e-07
-4.33535e-07
-1.1567e-06
8.61262e-08
7.56812e-07
-4.62155e-07
1.17961e-06
0.00114356
7.40446e-07
-0.00114331
3.79396e-07
-1.49334e-06
1.51485e-07
-4.39272e-07
-1.15398e-06
8.60126e-08
-4.62144e-07
7.53934e-07
-4.35526e-07
-4.40296e-07
0.000274274
-1.14704e-06
0.00027623
-0.000274165
1.30977e-07
1.36071e-07
7.57287e-07
3.83601e-07
0.00114376
-4.39168e-07
1.13311e-06
1.4037e-07
7.48992e-07
-4.73633e-07
8.13945e-08
-1.16742e-06
7.40801e-07
-0.00114412
3.78831e-07
-1.46111e-06
1.48361e-07
-4.36395e-07
-1.15129e-06
8.34868e-08
7.51235e-07
-4.59441e-07
1.13623e-06
0.00114457
7.40651e-07
-0.00114431
3.78135e-07
-1.45035e-06
1.43194e-07
-4.30977e-07
-1.15353e-06
8.63526e-08
-4.61975e-07
7.54029e-07
-0.000274156
1.28361e-07
1.38977e-07
1.49874e-06
1.45844e-06
-4.18525e-07
-4.26604e-07
0.000274143
-1.19269e-06
-1.15217e-06
0.00027607
-0.000274005
1.35985e-07
1.43884e-07
3.77678e-07
0.00114412
-4.39139e-07
1.18898e-06
1.55066e-07
7.60942e-07
-4.58589e-07
-1.15536e-06
8.75914e-08
-1.4956e-06
7.34545e-07
3.76482e-07
0.00114424
-4.38278e-07
1.18689e-06
1.55985e-07
7.60813e-07
-4.58604e-07
-1.15521e-06
8.7587e-08
0.00114479
7.17922e-07
-0.00114458
3.70278e-07
-1.48906e-06
1.58661e-07
-4.29439e-07
-1.14213e-06
9.25158e-08
-4.47508e-07
7.65619e-07
1.18995e-06
0.00114491
7.17809e-07
-0.0011447
3.70256e-07
-1.48682e-06
1.5868e-07
-4.29907e-07
-1.14173e-06
9.26349e-08
-4.47335e-07
7.65776e-07
-4.23534e-07
-4.28333e-07
0.00027414
-1.15464e-06
0.000276059
-0.000274002
1.41188e-07
1.4624e-07
3.76206e-07
0.00114514
-4.30784e-07
1.1485e-06
1.46824e-07
7.55647e-07
-4.55718e-07
-1.14953e-06
8.50865e-08
-1.49611e-06
7.35201e-07
3.77522e-07
0.00114414
-4.36447e-07
1.18633e-06
1.52242e-07
7.58159e-07
-4.58445e-07
-1.15243e-06
8.76779e-08
0.0011458
7.1811e-07
-0.00114559
3.6933e-07
-1.44883e-06
1.50372e-07
-4.21152e-07
-1.13635e-06
8.99894e-08
-4.44667e-07
7.60291e-07
1.19015e-06
0.00114481
7.17602e-07
-0.0011446
3.70058e-07
-1.48639e-06
1.56038e-07
-4.26607e-07
-1.13917e-06
9.26089e-08
-4.47372e-07
7.62881e-07
7.34481e-07
3.76823e-07
0.00114381
-4.35557e-07
1.18106e-06
1.53025e-07
7.55349e-07
-4.5849e-07
8.75679e-08
-1.14966e-06
7.18119e-07
-0.00114518
3.69283e-07
-1.45174e-06
1.50367e-07
-4.21502e-07
-1.13892e-06
9.27434e-08
7.63163e-07
-4.4722e-07
1.18419e-06
0.00114448
7.17797e-07
-0.00114427
3.70326e-07
-1.48097e-06
1.55693e-07
-4.27024e-07
-1.13629e-06
9.25988e-08
-4.47276e-07
7.60222e-07
-4.2153e-07
-4.26264e-07
0.000274123
-1.15209e-06
0.000276045
-0.000273985
1.38822e-07
1.43844e-07
7.34628e-07
3.75264e-07
0.00114482
-4.27205e-07
1.13775e-06
1.448e-07
7.5541e-07
-4.58319e-07
8.79104e-08
-1.14924e-06
7.17808e-07
-0.00114509
3.69171e-07
-1.44854e-06
1.53396e-07
-4.23735e-07
-1.13358e-06
8.99608e-08
7.57465e-07
-4.44634e-07
1.14082e-06
0.00114549
7.17964e-07
-0.00114528
3.69184e-07
-1.43796e-06
1.47411e-07
-4.18724e-07
-1.13586e-06
9.29493e-08
-4.47108e-07
7.60318e-07
-0.000273976
1.35689e-07
1.46322e-07
1.48616e-06
1.44587e-06
-4.0446e-07
-4.1249e-07
0.000273955
-1.19749e-06
-1.15702e-06
0.000275854
-0.000273794
1.43324e-07
1.51174e-07
3.68332e-07
0.00114499
-4.26813e-07
1.19365e-06
1.595e-07
7.67228e-07
-4.4382e-07
-1.13768e-06
9.41668e-08
-1.48343e-06
7.11981e-07
3.67722e-07
0.00114511
-4.26521e-07
1.19132e-06
1.60116e-07
7.6722e-07
-4.43761e-07
-1.1374e-06
9.41917e-08
0.00114552
6.94935e-07
-0.00114535
3.59827e-07
-1.47625e-06
1.63395e-07
-4.17421e-07
-1.12472e-06
9.90843e-08
-4.33061e-07
7.71853e-07
1.1947e-06
0.00114564
6.94844e-07
-0.00114547
3.59825e-07
-1.47392e-06
1.63316e-07
-4.17766e-07
-1.1244e-06
9.91806e-08
-4.32948e-07
7.7197e-07
-4.0987e-07
-4.14678e-07
0.000273952
-1.15942e-06
0.000275843
-0.000273791
1.48445e-07
1.53488e-07
3.66944e-07
0.001146
-4.18465e-07
1.1532e-06
1.51286e-07
7.61925e-07
-4.40951e-07
-1.13188e-06
9.16697e-08
-1.48343e-06
7.12143e-07
3.68045e-07
0.00114501
-4.23933e-07
1.19111e-06
1.5684e-07
7.64461e-07
-4.43683e-07
-1.13474e-06
9.42561e-08
0.00114653
6.9513e-07
-0.00114637
3.58855e-07
-1.43603e-06
1.55133e-07
-4.09137e-07
-1.11894e-06
9.65537e-08
-4.30233e-07
7.66548e-07
1.19485e-06
0.00114554
6.94831e-07
-0.00114537
3.59924e-07
-1.47371e-06
1.60659e-07
-4.14746e-07
-1.1218e-06
9.91293e-08
-4.32957e-07
7.69098e-07
7.12186e-07
3.68112e-07
0.00114467
-4.23877e-07
1.18545e-06
1.56997e-07
7.61702e-07
-4.43673e-07
9.41614e-08
-1.13193e-06
6.95138e-07
-0.00114596
3.58819e-07
-1.43884e-06
1.55014e-07
-4.09357e-07
-1.12159e-06
9.92906e-08
7.69372e-07
-4.32828e-07
1.18898e-06
0.0011452
6.94803e-07
-0.00114504
3.59943e-07
-1.46808e-06
1.60417e-07
-4.14855e-07
-1.11894e-06
9.91142e-08
-4.32889e-07
7.66422e-07
-4.0727e-07
-4.12064e-07
0.000273935
-1.15682e-06
0.000275829
-0.000273774
1.46044e-07
1.51055e-07
7.1215e-07
3.66582e-07
0.00114569
-4.15527e-07
1.14214e-06
1.48782e-07
7.61834e-07
-4.43461e-07
9.45562e-08
-1.13146e-06
6.95036e-07
-0.00114586
3.58969e-07
-1.43585e-06
1.58028e-07
-4.11869e-07
-1.11619e-06
9.65011e-08
7.63698e-07
-4.30211e-07
1.14564e-06
0.00114621
6.95106e-07
-0.00114605
3.58743e-07
-1.42506e-06
1.52172e-07
-4.06552e-07
-1.11856e-06
9.944e-08
-4.32753e-07
7.66474e-07
-0.000273765
1.42992e-07
1.53629e-07
1.4731e-06
1.43281e-06
-3.90624e-07
-3.98611e-07
0.000273737
3.52044e-07
0.00114568
-4.14648e-07
1.1985e-06
1.64272e-07
7.73416e-07
-4.29528e-07
-1.12045e-06
1.00734e-07
-1.47049e-06
6.89043e-07
3.57003e-07
0.00114579
-4.14554e-07
1.19606e-06
1.647e-07
7.73474e-07
-4.29449e-07
-1.12014e-06
1.00793e-07
1.19633e-06
6.60953e-07
-0.00114607
3.54654e-07
-1.46102e-06
1.64805e-07
-4.06315e-07
-1.10481e-06
1.05754e-07
-4.19002e-07
7.78118e-07
0.0011462
-3.96193e-07
-4.00982e-07
0.000273734
-1.16943e-06
-0.000273557
1.57764e-07
1.57624e-07
0.000275607
3.56141e-07
0.00114669
-4.06288e-07
1.15812e-06
1.56099e-07
7.6814e-07
-4.26655e-07
-1.11462e-06
9.82499e-08
-1.4704e-06
6.835e-07
3.57238e-07
0.0011457
-4.11774e-07
1.196e-06
1.61695e-07
7.70671e-07
-4.29406e-07
-1.1175e-06
1.008e-07
6.89104e-07
3.5738e-07
0.00114536
-4.11813e-07
1.19023e-06
1.61662e-07
7.67946e-07
-4.29372e-07
1.0073e-07
-1.11467e-06
6.66953e-07
-0.00114654
3.81179e-07
-1.42596e-06
1.64921e-07
-3.97917e-07
-1.10201e-06
1.0584e-07
7.72768e-07
-4.18879e-07
0.00114662
1.19344e-06
6.66722e-07
-0.00114564
3.37864e-07
-1.45519e-06
1.61912e-07
-4.00645e-07
-1.09932e-06
1.02877e-07
-4.16239e-07
7.69717e-07
0.00114578
-3.93449e-07
-3.98251e-07
0.000273718
6.89092e-07
3.55721e-07
0.00114637
-4.03437e-07
1.14698e-06
1.53508e-07
7.68047e-07
-4.29184e-07
1.01122e-07
-1.11425e-06
1.15565e-06
6.72559e-07
-0.00114664
3.42467e-07
-1.41772e-06
1.59288e-07
-3.97936e-07
-1.10183e-06
1.05967e-07
-4.18798e-07
7.72698e-07
0.00114677
-0.000273531
1.54875e-07
1.6042e-07
0.000275565
3.9663e-08
9.8668e-05
2.53181e-09
-9.87102e-05
1.461e-08
9.86131e-05
-9.86195e-05
-8.18614e-09
-8.39604e-08
-1.63977e-09
0.000259332
-1.53704e-08
-8.11939e-09
-0.000259223
-3.58663e-08
-9.97855e-08
3.01359e-07
0.000251861
3.60828e-08
-0.000252062
0.00114159
-8.5335e-09
7.95349e-07
-1.17191e-06
5.93952e-07
-1.34139e-06
8.74273e-07
-0.00114094
3.99926e-07
-1.5061e-06
0.00113976
-1.21707e-06
6.36995e-08
-5.14808e-07
7.34653e-07
1.13838e-06
1.35466e-07
-4.84097e-07
8.18738e-07
-4.54774e-09
-2.75173e-08
0.000251694
1.69975e-08
-0.000251677
-1.65236e-09
-9.20214e-09
0.00114224
-1.33766e-06
5.95839e-07
-1.16855e-06
7.97113e-07
8.70177e-07
-1.92629e-07
9.55095e-10
0.000259395
-1.6367e-08
4.91188e-07
-0.000259678
3.8289e-08
-3.97467e-08
1.38667e-07
0.000283277
-8.38241e-09
-0.000283406
-3.97448e-08
1.38597e-07
0.00028319
-5.68008e-09
3.57805e-08
-0.000283319
1.53537e-06
1.4898e-06
-0.000276498
-4.78584e-07
0.000274427
-4.75676e-07
2.50681e-09
-1.45255e-08
0.000283029
1.10662e-08
-0.000283086
5.80528e-08
-1.45287e-08
0.000282943
1.1166e-08
-0.000283002
5.80682e-08
4.78917e-09
-7.65021e-11
6.92987e-08
0.000234407
-0.000234453
-1.84387e-08
-5.10315e-09
-2.79787e-09
-7.97854e-09
0.000195845
-0.000195928
9.39545e-08
9.09692e-11
0.000234617
-5.64218e-08
-5.90863e-09
-0.000234736
1.80985e-07
8.06816e-09
2.22941e-08
0.000195707
-3.07001e-09
-0.000195735
-9.85204e-05
2.80234e-09
3.69373e-08
9.84807e-05
-8.07192e-09
1.24931e-08
9.84323e-05
-9.84367e-05
6.92425e-08
-1.37817e-10
0.000234401
-0.000234447
-4.91705e-09
-1.83248e-08
-2.75851e-09
-7.97109e-09
0.000195824
-0.000195907
9.38631e-08
2.48048e-10
0.000234611
-6.20707e-09
-5.65197e-08
-0.000234729
1.81029e-07
8.09913e-09
2.22459e-08
0.000195687
-3.05547e-09
-0.000195714
-1.54355e-07
-0.00116835
3.03811e-09
-5.85099e-07
-4.43591e-07
0.00116953
-8.5873e-07
-0.00115919
6.74524e-09
4.48832e-07
-4.39577e-07
0.00116003
-0.00116824
2.12446e-10
-4.888e-07
-4.49058e-07
0.00116903
-0.00115471
4.20941e-07
4.21536e-07
0.00115527
-0.00115454
4.20872e-07
4.21515e-07
0.00115506
-0.00115434
4.21145e-07
4.21772e-07
0.00115508
-0.00115435
4.20762e-07
4.21393e-07
-7.17233e-08
-1.88675e-09
0.000258643
-0.000258536
-1.32014e-08
-2.01303e-08
-0.00025134
-3.34863e-08
-9.40661e-08
2.8612e-07
3.22707e-08
0.000251149
0.0011442
-0.00114354
-2.05433e-08
8.58786e-07
8.02226e-07
-1.15798e-06
-1.32646e-06
6.01493e-07
4.03676e-07
1.13779e-06
0.00114134
7.97422e-07
-1.20205e-06
7.00129e-08
-5.0136e-07
7.41016e-07
-1.49422e-06
1.34236e-07
-4.68297e-07
-0.000258986
-1.7852e-07
1.35819e-09
0.000258707
-1.47075e-08
4.70837e-07
-2.75973e-09
-2.23008e-08
0.000251001
1.35724e-08
-0.000250979
-1.02856e-08
-1.30096e-08
0.00114483
8.54913e-07
-1.32253e-06
6.03378e-07
-1.15422e-06
8.03932e-07
2.89027e-09
3.68794e-08
9.8473e-05
-9.85128e-05
-8.05106e-09
1.24297e-08
9.84246e-05
-9.8429e-05
-9.08968e-10
-6.92976e-08
0.000258636
-0.000258532
-2.00804e-08
-1.34046e-08
-1.32379e-06
0.00114408
3.71976e-09
-0.00114347
8.69827e-07
-1.16086e-06
7.99363e-07
6.01437e-07
-1.32089e-07
-0.000268097
9.841e-08
-2.86259e-07
0.000267912
3.98513e-07
1.13513e-06
0.00114125
7.97391e-07
-1.19942e-06
7.00297e-08
-5.01376e-07
7.38075e-07
-1.48844e-06
1.37016e-07
-4.68059e-07
-0.00027404
-8.18357e-08
-4.65734e-07
3.72678e-08
0.000273227
-3.44357e-09
0.0011447
8.5487e-07
-1.31988e-06
6.03353e-07
-1.1543e-06
8.0109e-07
-5.25157e-10
-2.21804e-08
0.000250993
1.36095e-08
-0.000250974
-1.035e-08
-0.00028267
3.5759e-08
-3.70055e-08
1.29163e-07
-5.91551e-09
0.000282548
-0.000282584
-3.70124e-08
1.29127e-07
-5.88399e-09
0.000282464
3.32997e-08
-1.16731e-06
-1.12392e-06
0.000276481
-0.000274414
1.08133e-07
1.16103e-07
5.64676e-10
-1.25275e-08
0.000282327
1.13205e-08
-0.000282377
5.0366e-08
2.76376e-09
-1.25347e-08
0.000282241
1.14539e-08
-0.000282293
5.04158e-08
-1.22129e-10
5.83841e-08
0.000233798
-0.000233839
-1.37067e-08
-3.75548e-09
-0.000195497
-2.84068e-09
8.87208e-08
-8.34553e-09
0.00019542
-0.000234095
9.07551e-11
1.68244e-07
0.000233987
-5.55234e-08
-5.02917e-09
7.91046e-09
1.81808e-08
0.000195297
-3.64131e-09
-0.00019532
-9.8348e-05
2.81303e-09
3.46782e-08
9.83105e-05
-8.03239e-09
1.0671e-08
9.82679e-05
-9.82705e-05
5.83682e-08
-1.37186e-10
0.000233791
-0.00023383
-3.82854e-09
-1.58121e-08
-0.000195477
-2.81579e-09
8.86798e-08
-8.34451e-09
0.000195399
-0.000234089
1.68323e-07
2.34686e-10
0.000233979
-5.07879e-09
-5.34674e-08
7.92791e-09
1.81191e-08
0.000195277
-3.59882e-09
-0.000195299
4.18553e-07
4.19167e-07
0.00115599
4.18346e-07
4.18941e-07
0.00115579
4.18557e-07
4.19311e-07
0.0011558
-0.00115759
4.11397e-07
4.11934e-07
0.00115812
-0.00115742
4.1094e-07
4.11709e-07
0.00115792
-0.00115721
4.11474e-07
4.12219e-07
0.00115793
-0.00115723
4.10887e-07
4.11468e-07
-6.07591e-08
-1.76132e-09
0.000257967
-0.000257862
-1.10325e-08
-3.17743e-08
-0.000250673
-3.14294e-08
-8.85915e-08
2.74409e-07
2.89278e-08
0.00025049
0.00114661
-0.00114603
2.70802e-09
8.43496e-07
8.08708e-07
-1.14283e-06
-1.31084e-06
6.08865e-07
3.90595e-07
1.14264e-06
0.00114275
7.75028e-07
-1.18405e-06
7.642e-08
-4.85394e-07
7.47277e-07
-1.48109e-06
1.38791e-07
-4.52477e-07
-0.000258302
-1.65847e-07
1.76856e-09
0.000258029
-1.26862e-08
4.50701e-07
-1.25038e-09
-1.81456e-08
0.000250358
1.07456e-08
-0.000250333
-1.62778e-08
-4.54968e-09
0.00114719
8.39666e-07
-1.30674e-06
6.10791e-07
-1.13876e-06
8.10401e-07
-9.83404e-05
2.85293e-09
3.46923e-08
9.83029e-05
-7.83656e-09
1.04783e-08
9.82601e-05
-9.82628e-05
-9.30241e-10
-5.83851e-08
0.00025796
-0.000257857
-3.16449e-08
-1.14369e-08
0.00114647
-0.0011459
3.50518e-09
8.48771e-07
8.05816e-07
-1.1429e-06
-1.30816e-06
6.08786e-07
-0.000250665
-3.38646e-08
-8.86939e-08
2.74645e-07
2.89474e-08
0.000250484
3.89793e-07
1.1406e-06
0.00114265
7.74358e-07
-1.17863e-06
7.35577e-08
-4.82819e-07
7.41522e-07
-1.47761e-06
1.4266e-07
-4.54155e-07
-0.000258295
9.68576e-10
-1.68369e-07
0.000258024
4.50779e-07
-1.22973e-08
-4.09246e-09
0.00114705
8.39424e-07
-1.30414e-06
6.10713e-07
-1.13889e-06
8.07496e-07
8.00862e-10
-1.81812e-08
0.00025035
1.0816e-08
-0.000250328
-1.60958e-08
-0.000282
3.37889e-08
-3.47104e-08
1.21046e-07
-6.77091e-09
0.000281887
-0.000281914
3.13198e-08
-3.46799e-08
1.20977e-07
-6.72599e-09
0.000281803
-1.17199e-06
-1.1286e-06
0.000276407
-0.000274349
1.16105e-07
1.26686e-07
-1.20971e-09
-1.0729e-08
0.000281688
1.14053e-08
-0.000281731
4.34329e-08
1.13294e-09
-1.07608e-08
0.000281602
1.15015e-08
-0.000281647
4.34637e-08
-1.33739e-10
4.86569e-08
0.000233246
-0.000233281
-1.13732e-08
-2.85422e-09
-0.000195107
-2.62436e-09
8.38646e-08
-8.96047e-09
0.000195035
-0.000233515
1.31363e-10
1.57057e-07
0.000233415
-5.26547e-08
-4.16736e-09
7.78845e-09
1.48483e-08
0.000194926
-4.36401e-09
-0.000194945
-9.81914e-05
2.71927e-09
3.26889e-08
9.8156e-05
-7.99761e-09
9.02773e-09
9.81186e-05
-9.81197e-05
4.86498e-08
-1.61474e-10
0.00023324
-0.000233272
-2.9197e-09
-1.34735e-08
-0.000195087
-2.59996e-09
8.3829e-08
-8.96877e-09
0.000195015
-0.000233509
1.57112e-07
2.35988e-10
0.000233406
-4.19147e-09
-5.05861e-08
7.79556e-09
1.4775e-08
0.000194906
-4.30914e-09
-0.000194924
4.08618e-07
4.09278e-07
0.00115882
4.08785e-07
4.09411e-07
0.00115861
4.08465e-07
4.09142e-07
0.00115863
-0.00116037
4.01721e-07
4.02305e-07
0.00116087
-0.00116019
4.01379e-07
4.02069e-07
0.00116067
-0.00115999
4.01586e-07
4.02277e-07
0.00116068
-0.00116001
4.01536e-07
4.02156e-07
-5.1008e-08
-1.6738e-09
0.000257315
-0.00025721
-9.43119e-09
-4.27853e-08
-0.000250055
-2.93303e-08
-8.37676e-08
2.61253e-07
2.5962e-08
0.000249881
0.00114886
-0.00114832
3.22348e-09
8.27971e-07
8.15e-07
-1.12676e-06
-1.29469e-06
6.16115e-07
3.8287e-07
1.1474e-06
0.00114395
7.524e-07
-1.16597e-06
8.28877e-08
-4.69861e-07
7.53558e-07
-1.46978e-06
1.4337e-07
-4.39666e-07
-0.000257638
-1.54715e-07
1.78417e-09
0.000257371
-1.09049e-08
4.30953e-07
7.38161e-12
-1.46583e-08
0.000249764
8.37758e-09
-0.000249736
-2.17742e-08
-4.08114e-09
0.0011494
8.2401e-07
-1.29049e-06
6.18081e-07
-1.12252e-06
8.1672e-07
-9.81838e-05
2.5833e-09
3.28371e-08
9.81484e-05
-7.71954e-09
8.83184e-09
9.81108e-05
-9.81119e-05
-7.75537e-10
-4.8599e-08
0.000257308
-0.000257206
-4.267e-08
-9.91621e-09
0.00114872
-0.00114818
4.07774e-09
8.27715e-07
8.12201e-07
-1.12675e-06
-1.29192e-06
6.16109e-07
-0.000250047
-3.15415e-08
-8.37716e-08
2.61161e-07
2.59199e-08
0.000249875
3.81893e-07
1.14537e-06
0.00114386
7.51602e-07
-1.16038e-06
8.00563e-08
-4.6719e-07
7.47923e-07
-1.46662e-06
1.4732e-07
-4.41829e-07
-0.00025763
9.74299e-10
-1.57163e-07
0.000257366
4.30916e-07
-1.05354e-08
-3.77113e-09
0.00114926
8.23604e-07
-1.28782e-06
6.18019e-07
-1.12258e-06
8.13832e-07
2.2002e-09
-1.48496e-08
0.000249756
8.44688e-09
-0.000249731
-2.14362e-08
-0.00028139
3.1863e-08
-3.26746e-08
1.13848e-07
-7.35478e-09
0.000281284
-0.000281304
2.93719e-08
-3.26485e-08
1.13742e-07
-7.32482e-09
0.000281201
-1.17705e-06
-1.13366e-06
0.000276283
-0.000274231
1.24307e-07
1.34914e-07
-2.62093e-09
-9.012e-09
0.000281106
1.0991e-08
-0.000281142
3.72468e-08
-8.69006e-11
-9.05436e-09
0.00028102
1.10433e-08
-0.000281059
3.72508e-08
-9.69875e-11
4.00427e-08
0.000232745
-0.000232774
-9.12374e-09
-2.01405e-09
-0.000194754
-2.37472e-09
7.96024e-08
-9.74965e-09
0.000194687
-0.00023299
1.38092e-10
1.46602e-07
0.000232896
-4.98722e-08
-3.28632e-09
7.78035e-09
1.19773e-08
0.000194591
-5.21816e-09
-0.000194605
-9.80492e-05
2.55771e-09
3.0936e-08
9.80157e-05
-7.89448e-09
7.48458e-09
9.79831e-05
-9.79827e-05
4.00192e-08
-1.64274e-10
0.000232739
-0.000232766
-2.04711e-09
-1.12295e-08
-0.000194734
-2.33578e-09
7.95738e-08
-9.7674e-09
0.000194667
-0.000232984
1.46656e-07
2.57882e-10
0.000232888
-3.32747e-09
-4.78105e-08
7.79156e-09
1.19175e-08
0.00019457
-5.1803e-09
-0.000194585
3.98902e-07
3.99701e-07
0.00116154
3.99275e-07
4.00089e-07
0.00116134
3.98941e-07
3.99537e-07
0.00116135
-0.00116304
3.92244e-07
3.92914e-07
0.00116351
-0.00116286
3.92217e-07
3.929e-07
0.00116331
-0.00116266
3.92121e-07
3.9276e-07
0.00116333
-0.00116267
3.9217e-07
3.92852e-07
-4.24307e-08
-1.67473e-09
0.000256693
-0.000256588
-8.11941e-09
-5.31043e-08
-0.000249485
-2.73287e-08
-7.96151e-08
2.49052e-07
2.33777e-08
0.00024932
0.00115095
-0.00115045
3.15166e-09
8.11754e-07
8.21343e-07
-1.10985e-06
-1.27805e-06
6.23521e-07
3.73716e-07
1.15239e-06
0.00114496
7.29339e-07
-1.14805e-06
8.9395e-08
-4.54758e-07
7.59799e-07
-1.45754e-06
1.48271e-07
-4.26961e-07
-0.000257
-1.44215e-07
1.78535e-09
0.000256741
-9.52996e-09
4.11602e-07
1.3884e-09
-1.18007e-08
0.000249217
6.26531e-09
-0.000249186
-2.67414e-08
-4.10402e-09
0.00115145
8.07717e-07
-1.27389e-06
6.25397e-07
-1.10558e-06
8.22968e-07
-9.80415e-05
2.34795e-09
3.10908e-08
9.8008e-05
-7.78039e-09
7.46024e-09
9.79754e-05
-9.79751e-05
-7.54301e-10
-4.00516e-08
0.000256686
-0.000256584
-5.30184e-08
-8.64746e-09
0.00115081
-0.00115031
4.16246e-09
8.11599e-07
8.18626e-07
-1.10981e-06
-1.27524e-06
6.23564e-07
-0.000249477
-2.94969e-08
-7.94592e-08
2.48707e-07
2.33576e-08
0.000249314
3.73968e-07
1.14967e-06
0.00114486
7.29295e-07
-1.14237e-06
8.66372e-08
-4.51984e-07
7.54294e-07
-1.45504e-06
1.51196e-07
-4.30151e-07
-0.000256993
8.19547e-10
-1.46541e-07
0.000256736
4.11504e-07
-9.04603e-09
-3.36077e-09
0.00115131
8.07509e-07
-1.27115e-06
6.25355e-07
-1.10561e-06
8.20141e-07
3.81785e-09
-1.19331e-08
0.000249209
6.24578e-09
-0.000249181
-2.65579e-08
-0.000280834
2.97978e-08
-3.09023e-08
1.07145e-07
-7.26639e-09
0.000280735
-0.000280748
2.72803e-08
-3.09402e-08
1.07048e-07
-7.18743e-09
0.000280652
-1.18211e-06
-1.13877e-06
0.000276116
-0.00027407
1.32319e-07
1.42911e-07
-3.76652e-09
-7.42691e-09
0.000280575
1.01617e-08
-0.000280606
3.19743e-08
-1.39123e-09
-7.50616e-09
0.000280489
1.03055e-08
-0.000280523
3.20204e-08
-8.43747e-11
3.22952e-08
0.00023229
-0.000232313
-6.95296e-09
-1.42934e-09
-0.000194435
-2.20985e-09
7.58775e-08
-1.05422e-08
0.000194372
-0.000232512
9.80404e-11
1.36961e-07
0.000232425
-4.72259e-08
-2.17372e-09
7.78941e-09
9.47993e-09
0.000194286
-6.09221e-09
-0.000194298
-9.79202e-05
2.30472e-09
2.93717e-08
9.78886e-05
-7.79372e-09
6.11576e-09
9.78604e-05
-9.78587e-05
3.2274e-08
-1.84488e-10
0.000232283
-0.000232305
-1.21125e-09
-9.07297e-09
-0.000194414
-2.18122e-09
7.58365e-08
-1.05403e-08
0.000194351
-0.000232506
1.37031e-07
2.52117e-10
0.000232416
-2.46242e-09
-4.51588e-08
7.81256e-09
9.4127e-09
0.000194266
-6.06863e-09
-0.000194277
3.89961e-07
3.90532e-07
0.00116416
3.90021e-07
3.90575e-07
0.00116395
3.89952e-07
3.90616e-07
0.00116397
-0.0011656
3.832e-07
3.838e-07
0.00116604
-0.00116542
3.83142e-07
3.83771e-07
0.00116584
-0.00116522
3.83243e-07
3.83804e-07
0.00116586
-0.00116524
3.83197e-07
3.83775e-07
-3.47388e-08
-1.70188e-09
0.000256106
-0.000255999
-7.04565e-09
-6.28414e-08
-0.00024896
-2.53218e-08
-7.58848e-08
2.37588e-07
2.10434e-08
0.000248803
0.00115288
-0.00115242
3.06884e-09
7.9507e-07
8.27775e-07
-1.0925e-06
-1.26123e-06
6.31039e-07
3.64239e-07
1.15709e-06
0.00114578
7.06714e-07
-1.13038e-06
9.59113e-08
-4.4009e-07
7.66082e-07
-1.44507e-06
1.52786e-07
-4.15011e-07
-0.000256395
-1.34581e-07
1.76417e-09
0.000256143
-8.37511e-09
3.9309e-07
2.71597e-09
-9.38568e-09