/*--------------------------------*- C++ -*----------------------------------*\
| =========                 |                                                 |
| \\      /  F ield         | OpenFOAM: The Open Source CFD Toolbox           |
|  \\    /   O peration     | Version:  v2006                                 |
|   \\  /    A nd           | Website:  www.openfoam.com                      |
|    \\/     M anipulation  |                                                 |
\*---------------------------------------------------------------------------*/
FoamFile
{
    version     2.0;
    format      ascii;
    class       volVectorField;
    location    "250";
    object      U;
}
// * * * * * * * * * * * * * * * * * * * * * * * * * * * * * * * * * * * * * //

dimensions      [0 1 -1 0 0 0 0];


internalField   nonuniform List<vector> 
14310
(
(-9.50014e-05 5.88944e-05 0.108152)
(-0.000154575 -0.000154565 0.106644)
(5.78975e-05 5.79133e-05 0.109515)
(-9.25836e-05 5.78734e-05 0.108311)
(5.77581e-05 -9.25267e-05 0.108311)
(-0.000149487 -0.000149492 0.106643)
(5.63505e-05 5.63647e-05 0.109794)
(-8.99491e-05 5.67715e-05 0.108451)
(5.65783e-05 -8.9835e-05 0.108451)
(-0.000144101 -0.000144126 0.106619)
(5.49075e-05 5.49163e-05 0.110064)
(-8.71045e-05 5.55266e-05 0.108572)
(5.54756e-05 -8.70417e-05 0.108572)
(-0.000138561 -0.000138581 0.106575)
(5.35422e-05 5.35465e-05 0.110324)
(-8.40931e-05 5.41033e-05 0.108675)
(5.41953e-05 -8.40942e-05 0.108675)
(-0.000133008 -0.000133033 0.106515)
(5.22194e-05 5.22275e-05 0.110574)
(-8.09891e-05 5.25922e-05 0.10876)
(5.26181e-05 -8.09767e-05 0.108759)
(-0.00012726 -0.000127287 0.10644)
(5.09689e-05 5.09748e-05 0.110813)
(-7.77005e-05 5.07968e-05 0.108827)
(5.08071e-05 -7.76945e-05 0.108826)
(-0.000121307 -0.000121352 0.106355)
(-0.000154204 0.000154129 0.106644)
(1.08203e-05 -1.07382e-05 0.10683)
(-9.50624e-05 -5.90043e-05 0.108152)
(-9.31609e-05 5.80467e-05 0.108273)
(-9.32668e-05 -5.81701e-05 0.108272)
(1.0683e-05 1.07881e-05 0.106828)
(0.000149299 0.000149294 0.106643)
(-1.29482e-05 -1.28809e-05 0.106817)
(5.79921e-05 9.26694e-05 0.10831)
(-5.79687e-05 9.26372e-05 0.10831)
(5.70145e-05 9.06246e-05 0.108417)
(-5.70563e-05 9.06423e-05 0.108417)
(-0.000149357 0.000149299 0.106643)
(1.29763e-05 -1.28713e-05 0.106818)
(9.25929e-05 5.78977e-05 0.108311)
(9.26171e-05 -5.78596e-05 0.10831)
(9.05407e-05 5.69287e-05 0.108418)
(9.06321e-05 -5.70497e-05 0.108417)
(-9.2683e-05 -5.80247e-05 0.10831)
(-9.05843e-05 5.69647e-05 0.108418)
(-9.06279e-05 -5.69954e-05 0.108417)
(0.00014921 -0.000149243 0.106643)
(-1.26783e-05 1.27575e-05 0.106817)
(-5.79075e-05 -9.25795e-05 0.108311)
(5.69536e-05 -9.05417e-05 0.108418)
(-5.68867e-05 -9.05392e-05 0.108417)
(1.29775e-05 1.30641e-05 0.106816)
(0.00014411 0.000144088 0.106619)
(-1.47748e-05 -1.47171e-05 0.106784)
(5.67608e-05 8.99712e-05 0.10845)
(-5.68677e-05 9.00095e-05 0.10845)
(5.59669e-05 8.79008e-05 0.108543)
(-5.58644e-05 8.78537e-05 0.108542)
(-0.000144126 0.000144094 0.106619)
(1.50065e-05 -1.49124e-05 0.106784)
(8.9875e-05 5.66622e-05 0.108451)
(8.99292e-05 -5.66777e-05 0.10845)
(8.78044e-05 5.58763e-05 0.108544)
(8.79213e-05 -5.60102e-05 0.108542)
(-9.00355e-05 -5.68931e-05 0.10845)
(-8.77929e-05 5.57706e-05 0.108544)
(-8.78241e-05 -5.5789e-05 0.108543)
(0.000144142 -0.00014418 0.106619)
(-1.45801e-05 1.46632e-05 0.106783)
(-5.67754e-05 -8.99364e-05 0.10845)
(5.59251e-05 -8.78265e-05 0.108544)
(-5.56851e-05 -8.7733e-05 0.108543)
(1.4975e-05 1.50699e-05 0.106783)
(0.000138837 0.000138809 0.106576)
(-1.68124e-05 -1.67606e-05 0.106731)
(5.55712e-05 8.71455e-05 0.108572)
(-5.56236e-05 8.7172e-05 0.108571)
(5.46633e-05 8.49712e-05 0.10865)
(-5.45589e-05 8.49051e-05 0.10865)
(-0.000138636 0.000138604 0.106575)
(1.69615e-05 -1.68679e-05 0.106732)
(8.70417e-05 5.54569e-05 0.108572)
(8.71382e-05 -5.55631e-05 0.108571)
(8.48712e-05 5.45812e-05 0.108651)
(8.49746e-05 -5.4652e-05 0.10865)
(-8.71513e-05 -5.55553e-05 0.108571)
(-8.4839e-05 5.44594e-05 0.108651)
(-8.49036e-05 -5.45586e-05 0.10865)
(0.00013891 -0.00013894 0.106575)
(-1.67457e-05 1.68414e-05 0.106731)
(-5.54309e-05 -8.70471e-05 0.108572)
(5.45675e-05 -8.48615e-05 0.108651)
(-5.44664e-05 -8.4813e-05 0.108651)
(1.68066e-05 1.69025e-05 0.10673)
(0.000133202 0.000133176 0.106515)
(-1.89562e-05 -1.89132e-05 0.106663)
(5.42831e-05 8.41996e-05 0.108674)
(-5.41946e-05 8.41631e-05 0.108674)
(5.30971e-05 8.18651e-05 0.108739)
(-5.30952e-05 8.1832e-05 0.108738)
(-0.00013296 0.000132933 0.106515)
(1.89012e-05 -1.88132e-05 0.106663)
(8.40863e-05 5.41559e-05 0.108675)
(8.4208e-05 -5.42719e-05 0.108674)
(8.17661e-05 5.30293e-05 0.10874)
(8.18412e-05 -5.30684e-05 0.108739)
(-8.41446e-05 -5.41748e-05 0.108674)
(-8.17674e-05 5.29916e-05 0.10874)
(-8.1831e-05 -5.30616e-05 0.108739)
(0.000133203 -0.000133216 0.106515)
(-1.89452e-05 1.90152e-05 0.106662)
(-5.404e-05 -8.4042e-05 0.108674)
(5.29759e-05 -8.17488e-05 0.10874)
(-5.29788e-05 -8.17437e-05 0.10874)
(1.87988e-05 1.88954e-05 0.106662)
(0.000127259 0.000127243 0.10644)
(-2.10142e-05 -2.09915e-05 0.106582)
(5.27454e-05 8.10876e-05 0.108759)
(-5.26962e-05 8.10455e-05 0.108758)
(5.13312e-05 7.86106e-05 0.10881)
(-5.13429e-05 7.85892e-05 0.10881)
(-0.000127224 0.000127194 0.10644)
(2.09416e-05 -2.08591e-05 0.106582)
(8.09688e-05 5.26143e-05 0.108759)
(8.10693e-05 -5.27118e-05 0.108758)
(7.85149e-05 5.12709e-05 0.108812)
(7.86062e-05 -5.13382e-05 0.10881)
(-8.10584e-05 -5.26898e-05 0.108759)
(-7.85233e-05 5.12373e-05 0.108811)
(-7.85816e-05 -5.13097e-05 0.10881)
(0.000127199 -0.000127232 0.10644)
(-2.09702e-05 2.10364e-05 0.106581)
(-5.25531e-05 -8.09359e-05 0.108759)
(5.12407e-05 -7.85117e-05 0.108811)
(-5.12298e-05 -7.85149e-05 0.108811)
(2.0865e-05 2.09555e-05 0.106581)
(0.000121273 0.000121261 0.106355)
(5.09536e-05 7.78167e-05 0.108826)
(-5.08946e-05 7.77667e-05 0.108825)
(-4.95005e-05 7.52617e-05 0.108864)
(-0.000121313 0.00012129 0.106354)
(2.28198e-05 -2.27747e-05 0.106492)
(7.76891e-05 5.08087e-05 0.108826)
(7.7784e-05 -5.08988e-05 0.108825)
(-7.77698e-05 -5.08863e-05 0.108826)
(-7.52068e-05 4.93991e-05 0.108866)
(-7.52628e-05 -4.94709e-05 0.108864)
(0.00012124 -0.000121272 0.106355)
(-5.07315e-05 -7.76509e-05 0.108826)
(-4.94201e-05 -7.52059e-05 0.108866)
(2.27664e-05 2.28505e-05 0.10649)
(-1.93373e-06 6.51518e-06 0.0720244)
(3.30393e-06 -1.93687e-06 0.0720317)
(-5.49917e-05 3.51017e-06 0.102189)
(-5.61772e-05 1.48619e-05 0.09543)
(-9.9887e-05 1.80932e-05 0.108878)
(-9.43462e-05 5.85727e-05 0.108194)
(-2.50801e-05 3.62818e-06 0.0954273)
(-9.95944e-05 1.79697e-05 0.10894)
(-9.78881e-05 3.79658e-06 0.102184)
(-2.65451e-05 -1.17704e-05 0.0891478)
(-1.17326e-05 -2.65832e-05 0.0891464)
(-0.000153138 -0.000153122 0.106646)
(-1.61953e-05 -4.16573e-07 0.0891225)
(-4.09533e-07 -1.61907e-05 0.0891199)
(1.19108e-06 1.44572e-05 0.0934454)
(-9.64711e-07 1.69467e-05 0.0831666)
(1.31847e-06 3.59714e-05 0.0934842)
(-3.39471e-06 -1.89132e-06 0.0831572)
(-2.0855e-06 6.30023e-06 0.0718875)
(3.21218e-06 -1.93243e-06 0.0718982)
(1.44263e-05 1.20633e-06 0.0934445)
(1.69572e-05 -9.79456e-07 0.0831669)
(3.60088e-05 1.34095e-06 0.0934844)
(-1.88766e-06 -3.4027e-06 0.0831573)
(-2.10878e-05 2.1073e-05 0.10997)
(6.12413e-05 -2.06808e-05 0.109804)
(-2.10968e-05 -2.10928e-05 0.10997)
(5.67384e-05 5.67449e-05 0.109725)
(-5.67276e-05 5.67363e-05 0.109725)
(5.67797e-05 -5.67798e-05 0.109725)
(-5.67248e-05 -5.67084e-05 0.109725)
(-4.85755e-05 2.91007e-06 0.101917)
(-5.20645e-05 1.36564e-05 0.0951597)
(-9.87432e-05 1.75658e-05 0.109122)
(-9.19363e-05 5.75975e-05 0.108348)
(-9.03369e-05 3.21624e-06 0.101913)
(-2.15564e-05 2.66137e-06 0.0951616)
(-9.84316e-05 1.75008e-05 0.109181)
(6.28018e-06 -2.14151e-06 0.0718868)
(-1.88793e-06 3.22402e-06 0.0718976)
(2.8854e-06 -4.85892e-05 0.101918)
(1.75669e-05 -9.87287e-05 0.109122)
(3.9248e-05 -0.000154791 0.10239)
(5.76516e-05 -9.19575e-05 0.108348)
(2.07202e-05 -0.000188733 0.105767)
(1.75216e-05 -9.84308e-05 0.109181)
(2.69506e-06 -2.1488e-05 0.095162)
(-2.42165e-05 -1.10394e-05 0.0889186)
(-1.10298e-05 -2.42156e-05 0.0889172)
(1.14775e-05 1.15709e-05 0.106825)
(-1.41555e-05 1.30417e-07 0.0888997)
(1.45288e-07 -1.41495e-05 0.0888971)
(8.73964e-07 1.20249e-05 0.0932006)
(-9.76421e-07 1.621e-05 0.0829853)
(1.01886e-06 3.30183e-05 0.0932307)
(-3.38871e-06 -2.24788e-06 0.0829815)
(-2.13263e-06 6.16442e-06 0.0717631)
(3.14724e-06 -1.90172e-06 0.0717769)
(1.1991e-05 9.02957e-07 0.0931998)
(1.62039e-05 -9.89633e-07 0.0829856)
(3.30515e-05 1.03064e-06 0.0932312)
(-2.25917e-06 -3.39284e-06 0.0829816)
(-5.63594e-05 5.63658e-05 0.109794)
(5.63502e-05 -5.63501e-05 0.109794)
(-5.63894e-05 -5.63647e-05 0.109794)
(5.52942e-05 5.52956e-05 0.109998)
(-5.52397e-05 5.52543e-05 0.109997)
(5.53235e-05 -5.53123e-05 0.109997)
(-5.5249e-05 -5.52364e-05 0.109997)
(-4.25846e-05 2.44249e-06 0.10165)
(-4.84587e-05 1.25946e-05 0.0949097)
(-9.74132e-05 1.71655e-05 0.109352)
(-8.92597e-05 5.65047e-05 0.108483)
(-8.32193e-05 2.72686e-06 0.101645)
(-1.86236e-05 1.83832e-06 0.0949157)
(-9.70437e-05 1.71042e-05 0.109408)
(6.10319e-06 -2.17672e-06 0.0717624)
(-1.90336e-06 3.08316e-06 0.0717762)
(2.40598e-06 -4.26243e-05 0.101651)
(1.71756e-05 -9.73927e-05 0.109352)
(1.25619e-05 -4.85993e-05 0.094909)
(5.6393e-05 -8.92065e-05 0.108483)
(2.75999e-06 -8.32336e-05 0.101644)
(1.70723e-05 -9.70275e-05 0.109407)
(1.94595e-06 -1.86739e-05 0.094916)
(-2.23211e-05 -1.05606e-05 0.0887099)
(-1.05539e-05 -2.23137e-05 0.0887086)
(1.35035e-05 1.35985e-05 0.106802)
(-1.22936e-05 5.88502e-07 0.0886967)
(6.15269e-07 -1.22899e-05 0.0886941)
(6.34849e-07 1.0009e-05 0.092979)
(-1.10694e-06 1.56356e-05 0.0828214)
(7.95845e-07 3.04973e-05 0.0930018)
(-3.45191e-06 -2.49766e-06 0.0828226)
(-2.15623e-06 6.04841e-06 0.0716501)
(3.06145e-06 -1.88204e-06 0.0716667)
(9.97605e-06 6.60003e-07 0.0929782)
(1.56302e-05 -1.12065e-06 0.0828217)
(3.0523e-05 7.9608e-07 0.0930022)
(-2.51932e-06 -3.45199e-06 0.0828228)
(-5.48795e-05 5.48851e-05 0.110064)
(5.49255e-05 -5.49219e-05 0.110064)
(-5.48824e-05 -5.48637e-05 0.110064)
(5.3874e-05 5.38785e-05 0.11026)
(-5.38453e-05 5.38551e-05 0.11026)
(5.38729e-05 -5.38608e-05 0.11026)
(-5.38793e-05 -5.3865e-05 0.11026)
(-3.70683e-05 2.03932e-06 0.101393)
(-4.53129e-05 1.15678e-05 0.0946788)
(-9.5833e-05 1.6834e-05 0.109568)
(-8.63963e-05 5.52758e-05 0.1086)
(-7.65739e-05 2.28318e-06 0.101386)
(-1.61183e-05 1.10577e-06 0.0946886)
(-9.53929e-05 1.67933e-05 0.10962)
(6.03119e-06 -2.11056e-06 0.0716494)
(-1.94467e-06 2.93719e-06 0.0716661)
(2.03165e-06 -3.70993e-05 0.101393)
(1.69094e-05 -9.58189e-05 0.109568)
(1.14882e-05 -4.53227e-05 0.0946782)
(5.50961e-05 -8.62919e-05 0.1086)
(2.32366e-06 -7.65495e-05 0.101385)
(1.67763e-05 -9.53629e-05 0.10962)
(1.21614e-06 -1.62747e-05 0.0946889)
(-2.07135e-05 -1.01128e-05 0.0885197)
(-1.00955e-05 -2.06978e-05 0.0885185)
(1.57096e-05 1.58064e-05 0.106759)
(-1.06524e-05 8.98223e-07 0.0885118)
(9.35559e-07 -1.06418e-05 0.0885092)
(4.23733e-07 8.34953e-06 0.0927777)
(-1.27523e-06 1.51788e-05 0.0826731)
(5.75934e-07 2.83864e-05 0.0927944)
(-3.57985e-06 -2.66909e-06 0.0826786)
(-2.17623e-06 5.93966e-06 0.0715476)
(2.93122e-06 -1.88629e-06 0.0715666)
(8.31777e-06 4.34896e-07 0.0927771)
(1.51766e-05 -1.295e-06 0.0826733)
(2.84131e-05 5.82069e-07 0.0927947)
(-2.68456e-06 -3.58419e-06 0.0826789)
(-5.34797e-05 5.34956e-05 0.110324)
(5.3558e-05 -5.35349e-05 0.110324)
(-5.35032e-05 -5.34913e-05 0.110324)
(5.25235e-05 5.25353e-05 0.110512)
(-5.25328e-05 5.25431e-05 0.110512)
(5.25179e-05 -5.25118e-05 0.110512)
(-5.25489e-05 -5.25287e-05 0.110512)
(-3.20896e-05 1.6926e-06 0.101147)
(-4.25852e-05 1.06087e-05 0.0944659)
(-9.39878e-05 1.65398e-05 0.10977)
(-8.33497e-05 5.378e-05 0.108698)
(-7.04463e-05 1.9298e-06 0.101137)
(-1.40177e-05 4.43932e-07 0.0944794)
(-9.34923e-05 1.64752e-05 0.109817)
(5.97901e-06 -2.06907e-06 0.0715468)
(-1.92827e-06 2.87407e-06 0.0715662)
(1.6964e-06 -3.2116e-05 0.101147)
(1.66343e-05 -9.3981e-05 0.109769)
(1.05521e-05 -4.24658e-05 0.0944654)
(5.37459e-05 -8.33023e-05 0.108698)
(1.91586e-06 -7.0396e-05 0.101136)
(1.65292e-05 -9.34836e-05 0.109817)
(4.5234e-07 -1.41215e-05 0.0944796)
(-1.92298e-05 -9.56442e-06 0.0883464)
(-9.52759e-06 -1.92234e-05 0.0883454)
(1.79257e-05 1.80093e-05 0.106698)
(-9.29804e-06 1.0923e-06 0.0883432)
(1.14447e-06 -9.30456e-06 0.0883405)
(2.12904e-07 6.90973e-06 0.0925945)
(-1.43694e-06 1.47839e-05 0.0825388)
(3.36718e-07 2.65688e-05 0.0926059)
(-3.73476e-06 -2.80061e-06 0.0825482)
(-2.15581e-06 5.85879e-06 0.0714547)
(2.81039e-06 -1.90484e-06 0.071476)
(6.88133e-06 2.0851e-07 0.0925941)
(1.47745e-05 -1.45063e-06 0.082539)
(2.65989e-05 3.54598e-07 0.092606)
(-2.82048e-06 -3.74521e-06 0.0825485)
(-5.22059e-05 5.22042e-05 0.110574)
(5.22145e-05 -5.2214e-05 0.110574)
(-5.22267e-05 -5.22085e-05 0.110574)
(5.12625e-05 5.12723e-05 0.110755)
(-5.12681e-05 5.12748e-05 0.110754)
(5.1271e-05 -5.1272e-05 0.110754)
(-5.12848e-05 -5.12713e-05 0.110754)
(-2.75762e-05 1.40461e-06 0.100914)
(-4.0136e-05 9.69991e-06 0.0942699)
(-9.18788e-05 1.62569e-05 0.109956)
(-8.02025e-05 5.21814e-05 0.108778)
(-6.48958e-05 1.62866e-06 0.100901)
(-1.22259e-05 -2.08876e-07 0.0942868)
(-9.13119e-05 1.61819e-05 0.11)
(5.8788e-06 -2.10256e-06 0.0714536)
(-1.90667e-06 2.80352e-06 0.0714758)
(1.42099e-06 -2.75813e-05 0.100914)
(1.63017e-05 -9.18642e-05 0.109955)
(9.70834e-06 -4.00891e-05 0.0942694)
(5.21926e-05 -8.0171e-05 0.108778)
(1.60419e-06 -6.48871e-05 0.100901)
(1.62389e-05 -9.12982e-05 0.109999)
(-2.51874e-07 -1.22448e-05 0.094287)
(-1.78174e-05 -8.97378e-06 0.0881886)
(-8.9507e-06 -1.77901e-05 0.0881878)
(1.98853e-05 1.99794e-05 0.106623)
(-8.08085e-06 1.40854e-06 0.0881896)
(1.45879e-06 -8.09022e-06 0.0881867)
(8.85095e-09 5.60899e-06 0.0924271)
(-1.57104e-06 1.43809e-05 0.0824171)
(1.18795e-07 2.49291e-05 0.0924342)
(-3.87175e-06 -2.95354e-06 0.0824299)
(-2.18388e-06 5.73897e-06 0.0713706)
(2.69377e-06 -1.91805e-06 0.071394)
(5.58931e-06 1.38548e-08 0.0924269)
(1.43765e-05 -1.58794e-06 0.0824174)
(2.49453e-05 1.48076e-07 0.0924341)
(-2.97769e-06 -3.87896e-06 0.0824302)
(-5.0955e-05 5.09603e-05 0.110814)
(5.09669e-05 -5.09618e-05 0.110813)
(-5.09681e-05 -5.09588e-05 0.110813)
(-5.01026e-05 5.01008e-05 0.110986)
(-5.0129e-05 -5.00985e-05 0.110986)
(-2.35243e-05 1.16013e-06 0.100695)
(-3.79987e-05 8.86865e-06 0.0940897)
(-8.94496e-05 1.59386e-05 0.110126)
(-7.68992e-05 5.03602e-05 0.108841)
(-5.98975e-05 1.36367e-06 0.100679)
(-1.06141e-05 -8.19448e-07 0.0941098)
(-8.88112e-05 1.58572e-05 0.110166)
(5.72821e-06 -2.15399e-06 0.0713692)
(-1.89272e-06 2.67804e-06 0.0713942)
(1.1596e-06 -2.35286e-05 0.100695)
(1.59775e-05 -8.9448e-05 0.110126)
(8.89897e-06 -3.79964e-05 0.0940892)
(5.03715e-05 -7.6874e-05 0.108841)
(1.34125e-06 -5.99053e-05 0.100679)
(1.59035e-05 -8.88006e-05 0.110166)
(-8.47448e-07 -1.06408e-05 0.0941099)
(-1.65515e-05 -8.52689e-06 0.0880448)
(-8.50245e-06 -1.65188e-05 0.0880443)
(2.19213e-05 2.20101e-05 0.106536)
(-6.91873e-06 1.69204e-06 0.0880499)
(1.73175e-06 -6.93159e-06 0.0880467)
(-1.17626e-05 2.64502e-05 0.0891469)
(-2.64633e-05 1.17431e-05 0.0891493)
(-0.000153103 0.00015303 0.106646)
(-2.95466e-07 1.60942e-05 0.0891202)
(-1.60957e-05 3.00929e-07 0.0891217)
(-6.51208e-06 1.93767e-06 0.0720244)
(1.94113e-06 -3.28585e-06 0.0720314)
(3.18155e-06 -1.95176e-06 0.0719632)
(-2.07373e-06 6.32376e-06 0.0719543)
(1.02438e-05 -1.01611e-05 0.106829)
(-7.95958e-08 1.49139e-05 0.0890062)
(-1.49114e-05 7.6586e-08 0.0890077)
(-1.15221e-05 2.55327e-05 0.0890295)
(-2.55281e-05 1.15095e-05 0.0890318)
(1.94644e-06 -3.17242e-06 0.071963)
(-6.31797e-06 2.08942e-06 0.0719543)
(-1.74684e-05 1.52423e-06 0.093715)
(-1.80937e-05 -1.10585e-06 0.0833677)
(1.21622e-06 -3.43423e-06 0.0833521)
(-3.96074e-05 1.5916e-06 0.0937655)
(-5.50087e-05 -3.50113e-06 0.102189)
(-9.98869e-05 -1.81962e-05 0.108878)
(-5.61473e-05 -1.48387e-05 0.095429)
(-9.43448e-05 -5.85429e-05 0.108193)
(-9.95821e-05 -1.79919e-05 0.10894)
(-2.52697e-05 -3.71072e-06 0.0954271)
(-9.78842e-05 -3.86203e-06 0.102184)
(-1.74603e-05 -1.46106e-06 0.0937148)
(-1.81153e-05 1.13409e-06 0.0833678)
(1.21758e-06 3.39348e-06 0.0833516)
(-3.96156e-05 -1.63906e-06 0.0937655)
(-9.41021e-05 3.51161e-06 0.102049)
(-9.37284e-05 5.82556e-05 0.108234)
(-2.32686e-05 3.18409e-06 0.0952919)
(-9.90297e-05 1.76585e-05 0.109062)
(-5.42504e-05 1.42586e-05 0.0952923)
(-9.9315e-05 1.78086e-05 0.109002)
(-5.17609e-05 3.21265e-06 0.102053)
(-3.77522e-05 1.49405e-06 0.0936217)
(1.58557e-06 -3.34871e-06 0.0832524)
(-1.74336e-05 -1.00418e-06 0.0832647)
(-1.58579e-05 1.35262e-06 0.0935761)
(-9.41237e-05 -3.47586e-06 0.102049)
(-9.37739e-05 -5.82699e-05 0.108233)
(-9.90351e-05 -1.77309e-05 0.109062)
(-2.31494e-05 -3.17628e-06 0.0952918)
(-9.93075e-05 -1.78238e-05 0.109001)
(-5.43886e-05 -1.43185e-05 0.0952912)
(-5.17658e-05 -3.18899e-06 0.102052)
(-3.77631e-05 -1.44134e-06 0.0936216)
(1.59073e-06 3.34615e-06 0.083252)
(-1.7454e-05 9.77439e-07 0.0832647)
(-1.58481e-05 -1.32292e-06 0.0935758)
(-6.50484e-06 -1.91261e-06 0.0720242)
(1.99159e-06 3.21891e-06 0.0720318)
(-1.9098e-06 -6.48128e-06 0.0720242)
(3.22275e-06 1.99544e-06 0.0720313)
(1.02867e-05 1.03917e-05 0.106828)
(-1.48039e-05 -2.15934e-08 0.0890086)
(-6.18915e-10 -1.48051e-05 0.089006)
(-2.55361e-05 -1.15881e-05 0.0890305)
(-1.15919e-05 -2.55326e-05 0.0890291)
(1.90929e-06 3.21469e-06 0.0719634)
(-6.29542e-06 -2.15302e-06 0.071954)
(3.23677e-06 1.9013e-06 0.071963)
(-2.14549e-06 -6.293e-06 0.071954)
(2.07162e-06 6.3613e-06 0.0718875)
(-3.20552e-06 -1.94961e-06 0.0718979)
(6.37064e-06 2.05199e-06 0.0718868)
(-1.93376e-06 -3.22774e-06 0.0718976)
(1.10476e-05 2.41037e-05 0.0889205)
(2.41015e-05 1.10347e-05 0.0889174)
(-1.15407e-05 -1.14517e-05 0.106826)
(-1.77898e-07 1.40791e-05 0.0888992)
(1.40766e-05 -1.97304e-07 0.0888972)
(-3.04576e-06 -1.98857e-06 0.0718357)
(2.10505e-06 6.1745e-06 0.071824)
(-1.98217e-06 -3.06336e-06 0.0718354)
(6.187e-06 2.08743e-06 0.0718232)
(0.000147013 0.000147004 0.106634)
(-2.01971e-07 1.31861e-05 0.0887954)
(1.31926e-05 -2.28956e-07 0.0887935)
(1.08696e-05 2.35294e-05 0.0888135)
(2.35161e-05 1.08478e-05 0.0888104)
(-1.18656e-06 1.44575e-05 0.0934452)
(9.6878e-07 1.69545e-05 0.0831669)
(-1.33499e-06 3.59801e-05 0.0934841)
(3.40235e-06 -1.92367e-06 0.0831573)
(2.9694e-06 4.85731e-05 0.101918)
(3.95034e-05 0.000154811 0.10239)
(1.76391e-05 9.87485e-05 0.109122)
(5.77555e-05 9.20234e-05 0.108347)
(2.0718e-05 0.000188671 0.105768)
(2.64536e-06 2.15883e-05 0.0951608)
(1.75795e-05 9.84368e-05 0.109181)
(-2.92759e-06 4.85571e-05 0.101918)
(-3.93532e-05 0.000154806 0.102388)
(-1.76023e-05 9.87596e-05 0.109122)
(-5.76873e-05 9.198e-05 0.108347)
(-2.07389e-05 0.00018864 0.105767)
(-2.67263e-06 2.16436e-05 0.09516)
(-1.75153e-05 9.84485e-05 0.109181)
(1.17561e-06 3.44243e-05 0.0933541)
(-3.33322e-06 -2.08447e-06 0.0830671)
(-1.00766e-06 1.65348e-05 0.0830737)
(1.0276e-06 1.32026e-05 0.0933199)
(-1.18362e-06 3.44283e-05 0.0933541)
(3.32002e-06 -2.11116e-06 0.0830673)
(1.03242e-06 1.65113e-05 0.083074)
(-1.03164e-06 1.31934e-05 0.0933198)
(2.99718e-06 8.66734e-05 0.101778)
(5.73841e-05 9.13179e-05 0.108383)
(2.33076e-06 2.02603e-05 0.0950354)
(1.7309e-05 9.7763e-05 0.109296)
(1.30729e-05 5.03046e-05 0.095032)
(1.74536e-05 9.81211e-05 0.109239)
(2.68303e-06 4.5584e-05 0.101784)
(-2.97325e-06 8.66655e-05 0.101778)
(-5.73342e-05 9.12869e-05 0.108382)
(-2.32158e-06 2.02142e-05 0.0950346)
(-1.7291e-05 9.77764e-05 0.109296)
(-1.30395e-05 5.03345e-05 0.0950308)
(-1.74132e-05 9.81216e-05 0.109239)
(-2.67968e-06 4.55856e-05 0.101783)
(-1.11075e-05 2.4271e-05 0.0889177)
(-2.42836e-05 1.11002e-05 0.0889199)
(1.16374e-05 -1.15349e-05 0.106826)
(1.96228e-07 1.40599e-05 0.0888975)
(-1.40518e-05 -1.6672e-07 0.0888989)
(-6.29367e-06 2.08634e-06 0.0718874)
(1.92456e-06 -3.19535e-06 0.0718979)
(3.05969e-06 -1.97678e-06 0.071836)
(-2.08243e-06 6.20266e-06 0.0718239)
(-0.000147005 0.000146976 0.106633)
(2.35705e-07 1.31199e-05 0.0887936)
(-1.31203e-05 -2.28584e-07 0.088795)
(-1.08192e-05 2.34807e-05 0.0888107)
(-2.34653e-05 1.0833e-05 0.0888131)
(1.96534e-06 -3.06643e-06 0.0718357)
(-6.20943e-06 2.09101e-06 0.0718238)
(4.85698e-05 2.95825e-06 0.101918)
(0.000154719 3.94229e-05 0.102389)
(9.87386e-05 1.76043e-05 0.109122)
(9.19411e-05 5.76721e-05 0.108348)
(0.000188686 2.069e-05 0.105767)
(2.15484e-05 2.63915e-06 0.0951602)
(9.8436e-05 1.75384e-05 0.109181)
(1.44575e-05 -1.16738e-06 0.0934446)
(1.69509e-05 9.47409e-07 0.0831664)
(3.59833e-05 -1.2899e-06 0.093484)
(-1.87375e-06 3.3736e-06 0.0831573)
(4.85926e-05 -2.90043e-06 0.101917)
(9.87285e-05 -1.76003e-05 0.109122)
(0.000176859 -3.32836e-05 0.104394)
(9.20496e-05 -5.77487e-05 0.108347)
(0.000188676 -2.07372e-05 0.105767)
(9.84396e-05 -1.7534e-05 0.109181)
(2.14842e-05 -2.70861e-06 0.0951605)
(3.44598e-05 1.18693e-06 0.0933546)
(-2.09589e-06 -3.34455e-06 0.0830672)
(1.65422e-05 -1.02405e-06 0.083074)
(1.31616e-05 1.02213e-06 0.0933191)
(8.66828e-05 2.98971e-06 0.101778)
(9.1231e-05 5.72801e-05 0.108383)
(2.02292e-05 2.31012e-06 0.0950348)
(9.77599e-05 1.72779e-05 0.109296)
(5.02726e-05 1.30472e-05 0.0950316)
(9.81059e-05 1.73978e-05 0.109239)
(4.55904e-05 2.63858e-06 0.101783)
(3.44292e-05 -1.15391e-06 0.0933542)
(-2.09763e-06 3.36657e-06 0.0830673)
(1.65458e-05 1.03664e-06 0.0830736)
(1.31919e-05 -1.05031e-06 0.0933192)
(8.6684e-05 -2.93483e-06 0.101778)
(9.13791e-05 -5.74833e-05 0.108382)
(9.77627e-05 -1.73696e-05 0.109296)
(2.02197e-05 -2.24901e-06 0.095035)
(9.81157e-05 -1.74847e-05 0.109239)
(5.01231e-05 -1.30542e-05 0.0950303)
(4.56057e-05 -2.71085e-06 0.101783)
(-1.44381e-05 1.20539e-06 0.0934441)
(-1.69325e-05 -9.77422e-07 0.0831668)
(-3.6008e-05 1.30729e-06 0.0934849)
(1.85911e-06 -3.40333e-06 0.0831578)
(-4.85904e-05 -2.95518e-06 0.101917)
(-9.87413e-05 -1.76843e-05 0.109122)
(-5.19604e-05 -1.36182e-05 0.0951588)
(-9.19675e-05 -5.76479e-05 0.108347)
(-9.03473e-05 -3.22543e-06 0.101913)
(-9.84148e-05 -1.75882e-05 0.109181)
(-2.16398e-05 -2.6642e-06 0.0951613)
(-1.44227e-05 -1.17555e-06 0.0934439)
(-1.69532e-05 1.00207e-06 0.0831669)
(-3.60128e-05 -1.31788e-06 0.0934849)
(1.88644e-06 3.39977e-06 0.0831574)
(-8.67049e-05 2.9506e-06 0.101778)
(-9.12406e-05 5.72464e-05 0.108384)
(-2.01475e-05 2.32726e-06 0.0950362)
(-9.77575e-05 1.72595e-05 0.109296)
(-5.02423e-05 1.30355e-05 0.0950322)
(-9.81053e-05 1.7398e-05 0.109239)
(-4.56014e-05 2.68342e-06 0.101783)
(-3.44762e-05 1.18141e-06 0.0933551)
(2.04845e-06 -3.32626e-06 0.0830677)
(-1.65441e-05 -1.01385e-06 0.0830739)
(-1.31734e-05 1.05836e-06 0.0933187)
(-8.67305e-05 -2.97547e-06 0.101779)
(-9.1254e-05 -5.72399e-05 0.108383)
(-9.77409e-05 -1.73046e-05 0.109296)
(-2.01663e-05 -2.35873e-06 0.095036)
(-9.80813e-05 -1.74419e-05 0.109239)
(-5.03662e-05 -1.30547e-05 0.0950313)
(-4.56182e-05 -2.65598e-06 0.101782)
(-3.44792e-05 -1.15592e-06 0.0933551)
(2.07607e-06 3.30562e-06 0.0830673)
(-1.65474e-05 1.0113e-06 0.083074)
(-1.31595e-05 -1.00486e-06 0.0933184)
(2.42875e-05 -1.11853e-05 0.0889171)
(1.1152e-05 -2.42971e-05 0.0889192)
(-1.16423e-05 1.17276e-05 0.106826)
(1.39148e-05 1.85694e-07 0.0888968)
(-2.09995e-07 -1.3908e-05 0.0889)
(2.12755e-06 -6.27646e-06 0.0718869)
(-3.21973e-06 1.89319e-06 0.0718981)
(-1.98407e-06 3.08968e-06 0.0718355)
(6.26746e-06 -2.01853e-06 0.0718232)
(0.000147024 -0.000147052 0.106634)
(1.32678e-05 2.59761e-07 0.0887929)
(-2.74064e-07 -1.32545e-05 0.0887961)
(2.33408e-05 -1.07756e-05 0.0888104)
(1.07506e-05 -2.33388e-05 0.0888124)
(-3.08909e-06 1.98424e-06 0.071836)
(2.02121e-06 -6.26508e-06 0.0718233)
(-2.9705e-06 -4.85904e-05 0.101917)
(-1.76451e-05 -9.87277e-05 0.109122)
(-3.94534e-05 -0.000154634 0.102388)
(-5.75415e-05 -9.18664e-05 0.108347)
(-2.07542e-05 -0.000188702 0.105767)
(-1.7535e-05 -9.84082e-05 0.109181)
(-2.64602e-06 -2.15852e-05 0.0951605)
(1.18543e-06 -1.44475e-05 0.0934444)
(-9.43247e-07 -1.69181e-05 0.0831664)
(1.2883e-06 -3.60266e-05 0.0934842)
(-3.37254e-06 1.88463e-06 0.0831577)
(-1.19131e-06 -1.44298e-05 0.0934442)
(9.97093e-07 -1.69513e-05 0.083167)
(-1.34286e-06 -3.60145e-05 0.0934843)
(3.40154e-06 1.88202e-06 0.0831575)
(2.9264e-06 -8.66869e-05 0.101777)
(5.73888e-05 -9.12937e-05 0.108383)
(1.73437e-05 -9.77533e-05 0.109296)
(2.25011e-06 -2.02119e-05 0.0950365)
(1.74758e-05 -9.81135e-05 0.109239)
(1.30478e-05 -5.0101e-05 0.0950316)
(2.72476e-06 -4.5602e-05 0.101783)
(-2.99371e-06 -8.67053e-05 0.101778)
(-5.71165e-05 -9.11522e-05 0.108383)
(-1.72563e-05 -9.7746e-05 0.109296)
(-2.32304e-06 -2.01069e-05 0.0950352)
(-1.73736e-05 -9.80819e-05 0.109239)
(-1.30438e-05 -5.03204e-05 0.0950312)
(-2.61701e-06 -4.56106e-05 0.101783)
(1.17584e-06 -3.44773e-05 0.0933544)
(-3.36643e-06 2.09403e-06 0.0830677)
(-1.02155e-06 -1.65115e-05 0.0830735)
(1.07122e-06 -1.31798e-05 0.093319)
(-1.15987e-06 -3.44775e-05 0.0933545)
(3.30663e-06 2.07349e-06 0.0830674)
(1.00771e-06 -1.65464e-05 0.0830741)
(-1.00404e-06 -1.31719e-05 0.0933188)
(-6.33647e-06 -2.03756e-06 0.0718872)
(1.95457e-06 3.19362e-06 0.0718983)
(-2.02282e-06 -6.33655e-06 0.0718873)
(3.20401e-06 1.95154e-06 0.0718979)
(-0.000146963 -0.000146984 0.106634)
(-1.3073e-05 2.11156e-07 0.0887958)
(2.34407e-07 -1.30685e-05 0.0887932)
(-2.35606e-05 -1.09019e-05 0.0888117)
(-1.08988e-05 -2.35548e-05 0.0888104)
(1.96072e-06 3.06993e-06 0.0718361)
(-6.17616e-06 -2.12429e-06 0.0718235)
(3.0742e-06 1.96032e-06 0.0718356)
(-2.12195e-06 -6.17025e-06 0.0718236)
(2.16079e-06 6.13824e-06 0.0717632)
(-3.10193e-06 -1.91227e-06 0.0717765)
(6.14227e-06 2.14997e-06 0.0717624)
(-1.90344e-06 -3.11454e-06 0.0717762)
(1.06404e-05 2.24605e-05 0.0887117)
(2.24562e-05 1.06214e-05 0.0887086)
(-1.38754e-05 -1.38041e-05 0.106803)
(-5.00498e-07 1.22094e-05 0.0886962)
(1.22078e-05 -5.20733e-07 0.0886943)
(-3.04725e-06 -1.93996e-06 0.0717201)
(2.06562e-06 6.13648e-06 0.0717054)
(-1.93524e-06 -3.05938e-06 0.0717198)
(6.14418e-06 2.05477e-06 0.0717045)
(0.00014159 0.000141574 0.1066)
(-6.71368e-07 1.15498e-05 0.0886016)
(1.15499e-05 -6.96632e-07 0.0885997)
(1.02474e-05 2.15311e-05 0.0886144)
(2.15246e-05 1.02294e-05 0.0886113)
(-9.06019e-07 1.20095e-05 0.0932005)
(9.76067e-07 1.6193e-05 0.0829855)
(-1.02802e-06 3.30149e-05 0.0932307)
(3.44353e-06 -2.26938e-06 0.0829817)
(2.4476e-06 4.25986e-05 0.101651)
(1.25904e-05 4.85781e-05 0.0949094)
(1.72026e-05 9.74233e-05 0.109352)
(5.65553e-05 8.93202e-05 0.108482)
(2.73861e-06 8.31982e-05 0.101644)
(1.8827e-06 1.86826e-05 0.0949149)
(1.71338e-05 9.70452e-05 0.109407)
(-2.47602e-06 4.25896e-05 0.101651)
(-1.25837e-05 4.85202e-05 0.0949083)
(-1.72103e-05 9.74314e-05 0.109352)
(-5.66086e-05 8.93167e-05 0.108482)
(-2.72914e-06 8.32055e-05 0.101645)
(-1.85913e-06 1.86779e-05 0.0949141)
(-1.71512e-05 9.70523e-05 0.109408)
(8.85725e-07 3.16971e-05 0.0931134)
(-3.44981e-06 -2.39683e-06 0.0829001)
(-1.06686e-06 1.59132e-05 0.0829013)
(7.86118e-07 1.09593e-05 0.0930871)
(-9.088e-07 3.16905e-05 0.0931134)
(3.39058e-06 -2.38782e-06 0.0829003)
(1.11338e-06 1.59063e-05 0.0829016)
(-7.54793e-07 1.09537e-05 0.093087)
(2.4989e-06 7.97454e-05 0.101513)
(5.63298e-05 8.86451e-05 0.108513)
(1.45089e-06 1.74757e-05 0.094799)
(1.70168e-05 9.62678e-05 0.109516)
(1.20259e-05 4.68007e-05 0.0947917)
(1.70969e-05 9.66753e-05 0.109462)
(2.24606e-06 3.97942e-05 0.101521)
(-2.54282e-06 7.97466e-05 0.101514)
(-5.62257e-05 8.85656e-05 0.108513)
(-1.5218e-06 1.75233e-05 0.0947983)
(-1.6938e-05 9.62676e-05 0.109516)
(-1.19767e-05 4.68716e-05 0.0947905)
(-1.7055e-05 9.66628e-05 0.109462)
(-2.21584e-06 3.98074e-05 0.101521)
(-1.0591e-05 2.23813e-05 0.0887088)
(-2.24009e-05 1.06056e-05 0.0887112)
(1.37164e-05 -1.36149e-05 0.106803)
(5.62203e-07 1.22789e-05 0.0886945)
(-1.22753e-05 -5.6214e-07 0.0886959)
(-6.16259e-06 2.11752e-06 0.071763)
(1.88599e-06 -3.15492e-06 0.0717765)
(2.972e-06 -1.97295e-06 0.0717204)
(-2.05827e-06 6.12477e-06 0.0717053)
(-0.000141752 0.000141718 0.106599)
(5.69199e-07 1.15049e-05 0.0885998)
(-1.14991e-05 -5.92133e-07 0.0886012)
(-1.02229e-05 2.16306e-05 0.0886116)
(-2.16196e-05 1.02049e-05 0.0886139)
(1.95964e-06 -2.98561e-06 0.0717201)
(-6.12814e-06 2.04788e-06 0.0717052)
(4.26237e-05 2.45238e-06 0.101651)
(4.8555e-05 1.25562e-05 0.094909)
(9.74014e-05 1.71831e-05 0.109352)
(8.92222e-05 5.64793e-05 0.108483)
(8.32262e-05 2.70047e-06 0.101645)
(1.86453e-05 1.8826e-06 0.0949143)
(9.70319e-05 1.71141e-05 0.109408)
(1.20269e-05 -8.68679e-07 0.0931999)
(1.62009e-05 9.75938e-07 0.0829852)
(3.30258e-05 -1.00712e-06 0.0932308)
(-2.23848e-06 3.35853e-06 0.0829816)
(4.26518e-05 -2.43461e-06 0.10165)
(9.73961e-05 -1.72142e-05 0.109352)
(4.86265e-05 -1.25574e-05 0.0949077)
(8.92983e-05 -5.64965e-05 0.108482)
(8.324e-05 -2.74617e-06 0.101645)
(9.70317e-05 -1.71134e-05 0.109408)
(1.86742e-05 -1.95425e-06 0.0949145)
(3.17301e-05 9.15843e-07 0.0931138)
(-2.40821e-06 -3.45909e-06 0.0829003)
(1.59098e-05 -1.08161e-06 0.0829016)
(1.09161e-05 7.74538e-07 0.0930863)
(7.97739e-05 2.51736e-06 0.101513)
(8.85385e-05 5.62205e-05 0.108514)
(1.74445e-05 1.43677e-06 0.0947985)
(9.62586e-05 1.69673e-05 0.109516)
(4.67753e-05 1.20085e-05 0.0947913)
(9.66498e-05 1.70424e-05 0.109462)
(3.97886e-05 2.22163e-06 0.101521)
(3.17054e-05 -8.62155e-07 0.0931134)
(-2.38014e-06 3.47222e-06 0.0829003)
(1.59241e-05 1.06884e-06 0.0829012)
(1.09495e-05 -7.82495e-07 0.0930865)
(7.9785e-05 -2.47889e-06 0.101514)
(8.86538e-05 -5.63392e-05 0.108513)
(9.62648e-05 -1.70405e-05 0.109516)
(1.73934e-05 -1.419e-06 0.0947987)
(9.66537e-05 -1.7082e-05 0.109462)
(4.6735e-05 -1.20449e-05 0.0947901)
(3.98029e-05 -2.23909e-06 0.10152)
(-1.19848e-05 9.12455e-07 0.0931994)
(-1.62192e-05 -9.77221e-07 0.0829855)
(-3.30563e-05 1.02229e-06 0.0932317)
(2.22224e-06 -3.4494e-06 0.0829822)
(-4.25971e-05 -2.47598e-06 0.10165)
(-9.74047e-05 -1.7251e-05 0.109352)
(-4.84358e-05 -1.25837e-05 0.0949088)
(-8.93431e-05 -5.66377e-05 0.108482)
(-8.32393e-05 -2.71168e-06 0.101646)
(-9.7038e-05 -1.72219e-05 0.109408)
(-1.86122e-05 -1.81821e-06 0.0949154)
(-1.19706e-05 -8.85602e-07 0.0931992)
(-1.62175e-05 9.85684e-07 0.0829855)
(-3.3059e-05 -1.00328e-06 0.0932317)
(2.25069e-06 3.45589e-06 0.0829818)
(-7.97659e-05 2.49516e-06 0.101514)