/*--------------------------------*- C++ -*----------------------------------*\
| =========                 |                                                 |
| \\      /  F ield         | OpenFOAM: The Open Source CFD Toolbox           |
|  \\    /   O peration     | Version:  v2012                                 |
|   \\  /    A nd           | Website:  www.openfoam.com                      |
|    \\/     M anipulation  |                                                 |
\*---------------------------------------------------------------------------*/
FoamFile
{
    version     2.0;
    format      ascii;
    class       volScalarField;
    location    "0.455";
    object      p;
}
// * * * * * * * * * * * * * * * * * * * * * * * * * * * * * * * * * * * * * //

dimensions      [0 2 -2 0 0 0 0];


internalField   nonuniform List<scalar> 
247104
(
1.83405e-06
1.83392e-06
1.83407e-06
1.83406e-06
1.83399e-06
1.83408e-06
1.83406e-06
1.83385e-06
1.83392e-06
1.83399e-06
1.83405e-06
1.8339e-06
1.83381e-06
1.83392e-06
1.83406e-06
1.83396e-06
1.83408e-06
1.83405e-06
1.83375e-06
1.83339e-06
1.83325e-06
1.83343e-06
1.83379e-06
1.83407e-06
1.83408e-06
1.83406e-06
1.8339e-06
1.83339e-06
1.83291e-06
1.83274e-06
1.83296e-06
1.83346e-06
1.83395e-06
1.83407e-06
1.83405e-06
1.83399e-06
1.83381e-06
1.83325e-06
1.83274e-06
1.83256e-06
1.83279e-06
1.83333e-06
1.83387e-06
1.83398e-06
1.83408e-06
1.83392e-06
1.83343e-06
1.83296e-06
1.83279e-06
1.833e-06
1.83349e-06
1.83396e-06
1.83409e-06
1.83406e-06
1.83406e-06
1.83379e-06
1.83346e-06
1.83333e-06
1.83349e-06
1.83384e-06
1.83407e-06
1.83406e-06
1.83385e-06
1.83396e-06
1.83407e-06
1.83395e-06
1.83387e-06
1.83396e-06
1.83407e-06
1.83392e-06
1.83408e-06
1.83407e-06
1.83398e-06
1.83409e-06
1.83406e-06
1.80145e-06
1.79948e-06
1.7988e-06
1.79758e-06
1.79758e-06
1.79753e-06
1.79752e-06
1.79886e-06
1.79906e-06
1.7988e-06
1.79675e-06
1.79419e-06
1.79418e-06
1.79418e-06
1.79419e-06
1.79712e-06
1.79741e-06
1.79758e-06
1.79419e-06
1.79413e-06
1.7942e-06
1.7942e-06
1.79413e-06
1.79419e-06
1.79751e-06
1.7989e-06
1.80145e-06
1.79758e-06
1.79418e-06
1.7942e-06
1.79429e-06
1.79429e-06
1.7942e-06
1.79418e-06
1.79754e-06
1.79918e-06
1.79948e-06
1.79753e-06
1.79418e-06
1.7942e-06
1.79429e-06
1.79429e-06
1.7942e-06
1.79418e-06
1.7977e-06
1.79779e-06
1.79752e-06
1.79419e-06
1.79413e-06
1.7942e-06
1.7942e-06
1.79413e-06
1.79419e-06
1.7975e-06
1.79884e-06
1.79886e-06
1.79712e-06
1.79419e-06
1.79418e-06
1.79418e-06
1.79419e-06
1.79739e-06
1.79755e-06
1.79902e-06
1.79906e-06
1.79741e-06
1.79751e-06
1.79754e-06
1.79769e-06
1.79749e-06
1.79755e-06
1.79906e-06
1.7989e-06
1.79918e-06
1.79779e-06
1.79883e-06
1.79902e-06
1.78136e-06
1.78119e-06
1.78102e-06
1.77893e-06
1.77882e-06
1.77877e-06
1.77891e-06
1.78096e-06
1.78123e-06
1.78102e-06
1.77824e-06
1.77527e-06
1.77525e-06
1.77525e-06
1.77527e-06
1.77867e-06
1.77938e-06
1.77893e-06
1.77527e-06
1.77507e-06
1.77512e-06
1.77512e-06
1.77507e-06
1.77527e-06
1.77946e-06
1.78141e-06
1.78136e-06
1.77882e-06
1.77525e-06
1.77512e-06
1.77516e-06
1.77516e-06
1.77512e-06
1.77525e-06
1.7795e-06
1.78117e-06
1.78119e-06
1.77877e-06
1.77525e-06
1.77512e-06
1.77516e-06
1.77516e-06
1.77512e-06
1.77525e-06
1.77946e-06
1.77952e-06
1.77891e-06
1.77527e-06
1.77507e-06
1.77512e-06
1.77512e-06
1.77507e-06
1.77528e-06
1.7795e-06
1.7815e-06
1.78095e-06
1.77866e-06
1.77527e-06
1.77525e-06
1.77525e-06
1.77527e-06
1.77912e-06
1.77946e-06
1.78143e-06
1.78122e-06
1.77937e-06
1.77946e-06
1.7795e-06
1.77946e-06
1.77949e-06
1.77946e-06
1.78129e-06
1.78141e-06
1.78117e-06
1.77952e-06
1.7815e-06
1.78143e-06
1.76255e-06
1.76238e-06
1.76224e-06
1.76012e-06
1.76e-06
1.75992e-06
1.7601e-06
1.76217e-06
1.76245e-06
1.76224e-06
1.75942e-06
1.75644e-06
1.75642e-06
1.75642e-06
1.75644e-06
1.75982e-06
1.7606e-06
1.76011e-06
1.75644e-06
1.75634e-06
1.75636e-06
1.75636e-06
1.75634e-06
1.75644e-06
1.76066e-06
1.7626e-06
1.76255e-06
1.76e-06
1.75642e-06
1.75636e-06
1.75637e-06
1.75637e-06
1.75636e-06
1.75642e-06
1.7607e-06
1.76236e-06
1.76238e-06
1.75992e-06
1.75642e-06
1.75636e-06
1.75637e-06
1.75637e-06
1.75636e-06
1.75642e-06
1.76067e-06
1.76072e-06
1.7601e-06
1.75644e-06
1.75634e-06
1.75636e-06
1.75636e-06
1.75634e-06
1.75644e-06
1.76069e-06
1.76268e-06
1.76217e-06
1.75981e-06
1.75644e-06
1.75642e-06
1.75642e-06
1.75644e-06
1.76041e-06
1.76069e-06
1.76265e-06
1.76245e-06
1.76059e-06
1.76066e-06
1.7607e-06
1.76066e-06
1.76069e-06
1.76069e-06
1.76268e-06
1.7626e-06
1.76236e-06
1.76072e-06
1.76268e-06
1.76265e-06
1.74369e-06
1.74352e-06
1.74336e-06
1.74124e-06
1.74112e-06
1.74104e-06
1.74122e-06
1.74329e-06
1.74357e-06
1.74336e-06
1.74055e-06
1.73756e-06
1.73755e-06
1.73755e-06
1.73756e-06
1.74091e-06
1.74171e-06
1.74124e-06
1.73756e-06
1.73753e-06
1.73753e-06
1.73753e-06
1.73753e-06
1.73756e-06
1.74179e-06
1.74373e-06
1.74369e-06
1.74112e-06
1.73755e-06
1.73753e-06
1.73754e-06
1.73754e-06
1.73753e-06
1.73755e-06
1.74185e-06
1.74351e-06
1.74352e-06
1.74104e-06
1.73755e-06
1.73753e-06
1.73754e-06
1.73754e-06
1.73753e-06
1.73755e-06
1.74182e-06
1.74188e-06
1.74122e-06
1.73756e-06
1.73753e-06
1.73753e-06
1.73753e-06
1.73753e-06
1.73756e-06
1.74183e-06
1.74383e-06
1.74329e-06
1.7409e-06
1.73756e-06
1.73755e-06
1.73755e-06
1.73756e-06
1.74156e-06
1.74184e-06
1.74378e-06
1.74357e-06
1.74171e-06
1.74178e-06
1.74185e-06
1.74182e-06
1.74183e-06
1.74183e-06
1.74377e-06
1.74373e-06
1.74351e-06
1.74188e-06
1.74383e-06
1.74378e-06
1.72482e-06
1.72465e-06
1.72449e-06
1.72236e-06
1.72224e-06
1.72217e-06
1.72234e-06
1.72442e-06
1.72469e-06
1.72449e-06
1.72168e-06
1.71868e-06
1.71868e-06
1.71868e-06
1.71868e-06
1.72202e-06
1.72284e-06
1.72236e-06
1.71868e-06
1.71868e-06
1.71868e-06
1.71868e-06
1.71868e-06
1.71868e-06
1.7229e-06
1.72486e-06
1.72482e-06
1.72224e-06
1.71868e-06
1.71868e-06
1.71868e-06
1.71868e-06
1.71868e-06
1.71868e-06
1.72298e-06
1.72465e-06
1.72466e-06
1.72217e-06
1.71868e-06
1.71868e-06
1.71868e-06
1.71868e-06
1.71868e-06
1.71868e-06
1.72295e-06
1.72301e-06
1.72234e-06
1.71868e-06
1.71868e-06
1.71868e-06
1.71868e-06
1.71868e-06
1.71868e-06
1.72296e-06
1.72497e-06
1.72442e-06
1.72202e-06
1.71868e-06
1.71868e-06
1.71868e-06
1.71868e-06
1.7227e-06
1.72297e-06
1.7249e-06
1.72469e-06
1.72284e-06
1.7229e-06
1.72298e-06
1.72295e-06
1.72296e-06
1.72297e-06
1.7249e-06
1.72486e-06
1.72465e-06
1.72301e-06
1.72497e-06
1.7249e-06
1.70595e-06
1.70578e-06
1.70561e-06
1.70349e-06
1.70337e-06
1.7033e-06
1.70347e-06
1.70555e-06
1.70582e-06
1.70561e-06
1.70281e-06
1.69981e-06
1.69981e-06
1.69981e-06
1.69981e-06
1.70314e-06
1.70396e-06
1.70349e-06
1.69981e-06
1.69981e-06
1.69981e-06
1.69981e-06
1.69981e-06
1.69981e-06
1.70403e-06
1.70599e-06
1.70595e-06
1.70337e-06
1.69981e-06
1.69981e-06
1.69981e-06
1.69981e-06
1.69981e-06
1.69981e-06
1.70411e-06
1.70578e-06
1.70578e-06
1.7033e-06
1.69981e-06
1.69981e-06
1.69981e-06
1.69981e-06
1.69981e-06
1.69981e-06
1.70408e-06
1.70414e-06
1.70347e-06
1.69981e-06
1.69981e-06
1.69981e-06
1.69981e-06
1.69981e-06
1.69981e-06
1.70409e-06
1.7061e-06
1.70555e-06
1.70314e-06
1.69981e-06
1.69981e-06
1.69981e-06
1.69981e-06
1.70383e-06
1.7041e-06
1.70603e-06
1.70582e-06
1.70396e-06
1.70403e-06
1.70411e-06
1.70408e-06
1.70409e-06
1.7041e-06
1.70603e-06
1.70599e-06
1.70578e-06
1.70414e-06
1.7061e-06
1.70603e-06
1.68708e-06
1.68692e-06
1.68675e-06
1.68462e-06
1.6845e-06
1.68443e-06
1.6846e-06
1.68668e-06
1.68695e-06
1.68674e-06
1.68394e-06
1.68094e-06
1.68094e-06
1.68094e-06
1.68094e-06
1.68428e-06
1.68509e-06
1.68462e-06
1.68094e-06
1.68094e-06
1.68094e-06
1.68094e-06
1.68094e-06
1.68094e-06
1.68516e-06
1.68712e-06
1.68708e-06
1.6845e-06
1.68094e-06
1.68094e-06
1.68094e-06
1.68094e-06
1.68094e-06
1.68094e-06
1.68524e-06
1.68691e-06
1.68692e-06
1.68443e-06
1.68094e-06
1.68094e-06
1.68094e-06
1.68094e-06
1.68094e-06
1.68094e-06
1.68521e-06
1.68527e-06
1.6846e-06
1.68094e-06
1.68094e-06
1.68094e-06
1.68094e-06
1.68094e-06
1.68094e-06
1.68522e-06
1.68723e-06
1.68668e-06
1.68428e-06
1.68094e-06
1.68094e-06
1.68094e-06
1.68094e-06
1.68496e-06
1.68523e-06
1.68716e-06
1.68695e-06
1.68509e-06
1.68516e-06
1.68524e-06
1.68521e-06
1.68522e-06
1.68523e-06
1.68716e-06
1.68712e-06
1.68691e-06
1.68527e-06
1.68723e-06
1.68716e-06
1.66822e-06
1.66805e-06
1.66788e-06
1.66575e-06
1.66563e-06
1.66556e-06
1.66573e-06
1.66781e-06
1.66808e-06
1.66788e-06
1.66508e-06
1.66208e-06
1.66208e-06
1.66208e-06
1.66208e-06
1.66541e-06
1.66623e-06
1.66575e-06
1.66208e-06
1.66208e-06
1.66208e-06
1.66208e-06
1.66208e-06
1.66208e-06
1.66629e-06
1.66825e-06
1.66822e-06
1.66563e-06
1.66208e-06
1.66208e-06
1.66208e-06
1.66208e-06
1.66208e-06
1.66208e-06
1.66637e-06
1.66804e-06
1.66805e-06
1.66556e-06
1.66208e-06
1.66208e-06
1.66208e-06
1.66208e-06
1.66208e-06
1.66208e-06
1.66634e-06
1.6664e-06
1.66573e-06
1.66208e-06
1.66208e-06
1.66208e-06
1.66208e-06
1.66208e-06
1.66208e-06
1.66635e-06
1.66836e-06
1.66781e-06
1.66541e-06
1.66208e-06
1.66208e-06
1.66208e-06
1.66208e-06
1.6661e-06
1.66637e-06
1.66829e-06
1.66808e-06
1.66623e-06
1.66629e-06
1.66637e-06
1.66634e-06
1.66635e-06
1.66636e-06
1.66829e-06
1.66825e-06
1.66804e-06
1.6664e-06
1.66836e-06
1.66829e-06
1.64935e-06
1.64918e-06
1.64901e-06
1.64689e-06
1.64677e-06
1.6467e-06
1.64687e-06
1.64895e-06
1.64921e-06
1.64901e-06
1.64621e-06
1.64321e-06
1.64321e-06
1.64321e-06
1.64321e-06
1.64654e-06
1.64736e-06
1.64689e-06
1.64321e-06
1.64321e-06
1.64321e-06
1.64321e-06
1.64321e-06
1.64321e-06
1.64743e-06
1.64939e-06
1.64935e-06
1.64677e-06
1.64321e-06
1.64321e-06
1.64321e-06
1.64321e-06
1.64321e-06
1.64321e-06
1.6475e-06
1.64918e-06
1.64918e-06
1.6467e-06
1.64321e-06
1.64321e-06
1.64321e-06
1.64321e-06
1.64321e-06
1.64321e-06
1.64748e-06
1.64753e-06
1.64687e-06
1.64321e-06
1.64321e-06
1.64321e-06
1.64321e-06
1.64321e-06
1.64321e-06
1.64749e-06
1.64949e-06
1.64895e-06
1.64654e-06
1.64321e-06
1.64321e-06
1.64321e-06
1.64321e-06
1.64723e-06
1.6475e-06
1.64942e-06
1.64921e-06
1.64736e-06
1.64743e-06
1.6475e-06
1.64748e-06
1.64749e-06
1.6475e-06
1.64942e-06
1.64939e-06
1.64918e-06
1.64753e-06
1.64949e-06
1.64942e-06
1.63048e-06
1.63031e-06
1.63014e-06
1.62802e-06
1.6279e-06
1.62783e-06
1.628e-06
1.63008e-06
1.63035e-06
1.63014e-06
1.62734e-06
1.62434e-06
1.62434e-06
1.62434e-06
1.62434e-06
1.62767e-06
1.62849e-06
1.62802e-06
1.62434e-06
1.62434e-06
1.62434e-06
1.62434e-06
1.62434e-06
1.62434e-06
1.62856e-06
1.63052e-06
1.63048e-06
1.6279e-06
1.62434e-06
1.62434e-06
1.62434e-06
1.62434e-06
1.62434e-06
1.62434e-06
1.62863e-06
1.63031e-06
1.63031e-06
1.62783e-06
1.62434e-06
1.62434e-06
1.62434e-06
1.62434e-06
1.62434e-06
1.62434e-06
1.62861e-06
1.62867e-06
1.628e-06
1.62434e-06
1.62434e-06
1.62434e-06
1.62434e-06
1.62434e-06
1.62434e-06
1.62862e-06
1.63063e-06
1.63008e-06
1.62767e-06
1.62434e-06
1.62434e-06
1.62434e-06
1.62434e-06
1.62836e-06
1.62863e-06
1.63056e-06
1.63035e-06
1.62849e-06
1.62856e-06
1.62863e-06
1.62861e-06
1.62862e-06
1.62863e-06
1.63055e-06
1.63052e-06
1.63031e-06
1.62867e-06
1.63063e-06
1.63056e-06
1.61161e-06
1.61145e-06
1.61127e-06
1.60915e-06
1.60903e-06
1.60896e-06
1.60913e-06
1.61121e-06
1.61148e-06
1.61127e-06
1.60847e-06
1.60547e-06
1.60547e-06
1.60547e-06
1.60547e-06
1.60881e-06
1.60962e-06
1.60915e-06
1.60547e-06
1.60547e-06
1.60547e-06
1.60547e-06
1.60547e-06
1.60547e-06
1.60969e-06
1.61165e-06
1.61161e-06
1.60903e-06
1.60547e-06
1.60547e-06
1.60547e-06
1.60547e-06
1.60547e-06
1.60547e-06
1.60977e-06
1.61144e-06
1.61145e-06
1.60896e-06
1.60547e-06
1.60547e-06
1.60547e-06
1.60547e-06
1.60547e-06
1.60547e-06
1.60974e-06
1.6098e-06
1.60913e-06
1.60547e-06
1.60547e-06
1.60547e-06
1.60547e-06
1.60547e-06
1.60547e-06
1.60975e-06
1.61176e-06
1.61121e-06
1.60881e-06
1.60547e-06
1.60547e-06
1.60547e-06
1.60547e-06
1.60949e-06
1.60976e-06
1.61169e-06
1.61148e-06
1.60962e-06
1.60969e-06
1.60977e-06
1.60974e-06
1.60975e-06
1.60976e-06
1.61169e-06
1.61165e-06
1.61144e-06
1.6098e-06
1.61176e-06
1.61169e-06
1.59275e-06
1.59258e-06
1.59241e-06
1.59029e-06
1.59017e-06
1.59009e-06
1.59027e-06
1.59234e-06
1.59261e-06
1.59241e-06
1.58961e-06
1.58661e-06
1.58661e-06
1.58661e-06
1.58661e-06
1.58994e-06
1.59076e-06
1.59029e-06
1.58661e-06
1.58661e-06
1.58661e-06
1.58661e-06
1.58661e-06
1.58661e-06
1.59082e-06
1.59279e-06
1.59275e-06
1.59017e-06
1.58661e-06
1.58661e-06
1.58661e-06
1.58661e-06
1.58661e-06
1.58661e-06
1.5909e-06
1.59258e-06
1.59258e-06
1.59009e-06
1.58661e-06
1.58661e-06
1.58661e-06
1.58661e-06
1.58661e-06
1.58661e-06
1.59088e-06
1.59093e-06
1.59027e-06
1.58661e-06
1.58661e-06
1.58661e-06
1.58661e-06
1.58661e-06
1.58661e-06
1.59089e-06
1.59289e-06
1.59234e-06
1.58994e-06
1.58661e-06
1.58661e-06
1.58661e-06
1.58661e-06
1.59063e-06
1.5909e-06
1.59282e-06
1.59261e-06
1.59076e-06
1.59082e-06
1.5909e-06
1.59087e-06
1.59089e-06
1.5909e-06
1.59282e-06
1.59279e-06
1.59258e-06
1.59093e-06
1.59289e-06
1.59282e-06
1.57388e-06
1.57371e-06
1.57354e-06
1.57142e-06
1.5713e-06
1.57123e-06
1.5714e-06
1.57348e-06
1.57374e-06
1.57354e-06
1.57074e-06
1.56774e-06
1.56774e-06
1.56774e-06
1.56774e-06
1.57107e-06
1.57189e-06
1.57142e-06
1.56774e-06
1.56774e-06
1.56774e-06
1.56774e-06
1.56774e-06
1.56774e-06
1.57196e-06
1.57392e-06
1.57388e-06
1.5713e-06
1.56774e-06
1.56774e-06
1.56774e-06
1.56774e-06
1.56774e-06
1.56774e-06
1.57203e-06
1.57371e-06
1.57371e-06
1.57123e-06
1.56774e-06
1.56774e-06
1.56774e-06
1.56774e-06
1.56774e-06
1.56774e-06
1.57201e-06
1.57206e-06
1.5714e-06
1.56774e-06
1.56774e-06
1.56774e-06
1.56774e-06
1.56774e-06
1.56774e-06
1.57202e-06
1.57402e-06
1.57348e-06
1.57107e-06
1.56774e-06
1.56774e-06
1.56774e-06
1.56774e-06
1.57176e-06
1.57203e-06
1.57396e-06
1.57374e-06
1.57189e-06
1.57196e-06
1.57203e-06
1.57201e-06
1.57202e-06
1.57203e-06
1.57395e-06
1.57392e-06
1.57371e-06
1.57207e-06
1.57402e-06
1.57395e-06
1.55501e-06
1.55484e-06
1.55467e-06
1.55255e-06
1.55243e-06
1.55236e-06
1.55253e-06
1.55461e-06
1.55488e-06
1.55467e-06
1.55187e-06
1.54887e-06
1.54887e-06
1.54887e-06
1.54887e-06
1.5522e-06
1.55302e-06
1.55255e-06
1.54887e-06
1.54887e-06
1.54887e-06
1.54887e-06
1.54887e-06
1.54887e-06
1.55309e-06
1.55505e-06
1.55501e-06
1.55243e-06
1.54887e-06
1.54887e-06
1.54887e-06
1.54887e-06
1.54887e-06
1.54887e-06
1.55316e-06
1.55484e-06
1.55484e-06
1.55236e-06
1.54887e-06
1.54887e-06
1.54887e-06
1.54887e-06
1.54887e-06
1.54887e-06
1.55314e-06
1.5532e-06
1.55253e-06
1.54887e-06
1.54887e-06
1.54887e-06
1.54887e-06
1.54887e-06
1.54887e-06
1.55315e-06
1.55516e-06
1.55461e-06
1.5522e-06
1.54887e-06
1.54887e-06
1.54887e-06
1.54887e-06
1.55289e-06
1.55316e-06
1.55509e-06
1.55488e-06
1.55302e-06
1.55309e-06
1.55316e-06
1.55314e-06
1.55315e-06
1.55316e-06
1.55508e-06
1.55505e-06
1.55484e-06
1.5532e-06
1.55516e-06
1.55509e-06
1.53614e-06
1.53597e-06
1.5358e-06
1.53368e-06
1.53356e-06
1.53349e-06
1.53366e-06
1.53574e-06
1.53601e-06
1.5358e-06
1.533e-06
1.53e-06
1.53e-06
1.53e-06
1.53e-06
1.53333e-06
1.53415e-06
1.53368e-06
1.53e-06
1.53e-06
1.53e-06
1.53e-06
1.53e-06
1.53e-06
1.53422e-06
1.53618e-06
1.53614e-06
1.53356e-06
1.53e-06
1.53e-06
1.53e-06
1.53e-06
1.53e-06
1.53e-06
1.53429e-06
1.53597e-06
1.53597e-06
1.53349e-06
1.53e-06
1.53e-06
1.53e-06
1.53e-06
1.53e-06
1.53e-06
1.53427e-06
1.53433e-06
1.53366e-06
1.53e-06
1.53e-06
1.53e-06
1.53e-06
1.53e-06
1.53e-06
1.53428e-06
1.53629e-06
1.53574e-06
1.53333e-06
1.53e-06
1.53e-06
1.53e-06
1.53e-06
1.53402e-06
1.53429e-06
1.53622e-06
1.53601e-06
1.53415e-06
1.53422e-06
1.53429e-06
1.53427e-06
1.53428e-06
1.53429e-06
1.53621e-06
1.53618e-06
1.53597e-06
1.53433e-06
1.53629e-06
1.53622e-06
1.51727e-06
1.5171e-06
1.51693e-06
1.51481e-06
1.51469e-06
1.51462e-06
1.51479e-06
1.51687e-06
1.51713e-06
1.51693e-06
1.51413e-06
1.51113e-06
1.51113e-06
1.51113e-06
1.51113e-06
1.51446e-06
1.51528e-06
1.51481e-06
1.51113e-06
1.51113e-06
1.51113e-06
1.51113e-06
1.51113e-06
1.51113e-06
1.51535e-06
1.51731e-06
1.51727e-06
1.51469e-06
1.51113e-06
1.51113e-06
1.51113e-06
1.51113e-06
1.51113e-06
1.51113e-06
1.51542e-06
1.5171e-06
1.5171e-06
1.51462e-06
1.51113e-06
1.51113e-06
1.51113e-06
1.51113e-06
1.51113e-06
1.51113e-06
1.5154e-06
1.51545e-06
1.51479e-06
1.51113e-06
1.51113e-06
1.51113e-06
1.51113e-06
1.51113e-06
1.51113e-06
1.51541e-06
1.51741e-06
1.51687e-06
1.51446e-06
1.51113e-06
1.51113e-06
1.51113e-06
1.51113e-06
1.51515e-06
1.51542e-06
1.51735e-06
1.51713e-06
1.51528e-06
1.51535e-06
1.51542e-06
1.5154e-06
1.51541e-06
1.51542e-06
1.51734e-06
1.51731e-06
1.5171e-06
1.51545e-06
1.51741e-06
1.51734e-06
1.4984e-06
1.49823e-06
1.49806e-06
1.49594e-06
1.49582e-06
1.49575e-06
1.49592e-06
1.498e-06
1.49826e-06
1.49806e-06
1.49526e-06
1.49226e-06
1.49226e-06
1.49226e-06
1.49226e-06
1.49559e-06
1.49641e-06
1.49594e-06
1.49226e-06
1.49226e-06
1.49226e-06
1.49226e-06
1.49226e-06
1.49226e-06
1.49648e-06
1.49844e-06
1.4984e-06
1.49582e-06
1.49226e-06
1.49226e-06
1.49226e-06
1.49226e-06
1.49226e-06
1.49226e-06
1.49655e-06
1.49823e-06
1.49823e-06
1.49575e-06
1.49226e-06
1.49226e-06
1.49226e-06
1.49226e-06
1.49226e-06
1.49226e-06
1.49653e-06
1.49658e-06
1.49592e-06
1.49226e-06
1.49226e-06
1.49226e-06
1.49226e-06
1.49226e-06
1.49226e-06
1.49654e-06
1.49854e-06
1.498e-06
1.49559e-06
1.49226e-06
1.49226e-06
1.49226e-06
1.49226e-06
1.49628e-06
1.49655e-06
1.49847e-06
1.49826e-06
1.49641e-06
1.49648e-06
1.49655e-06
1.49653e-06
1.49654e-06
1.49655e-06
1.49847e-06
1.49844e-06
1.49823e-06
1.49658e-06
1.49854e-06
1.49847e-06
1.47953e-06
1.47936e-06
1.47919e-06
1.47707e-06
1.47695e-06
1.47688e-06
1.47705e-06
1.47913e-06
1.4794e-06
1.47919e-06
1.47639e-06
1.47339e-06
1.47339e-06
1.47339e-06
1.47339e-06
1.47672e-06
1.47754e-06
1.47707e-06
1.47339e-06
1.47339e-06
1.47339e-06
1.47339e-06
1.47339e-06
1.47339e-06
1.47761e-06
1.47957e-06
1.47953e-06
1.47695e-06
1.47339e-06
1.47339e-06
1.47339e-06
1.47339e-06
1.47339e-06
1.47339e-06
1.47768e-06
1.47936e-06
1.47936e-06
1.47688e-06
1.47339e-06
1.47339e-06
1.47339e-06
1.47339e-06
1.47339e-06
1.47339e-06
1.47766e-06
1.47772e-06
1.47705e-06
1.47339e-06
1.47339e-06
1.47339e-06
1.47339e-06
1.47339e-06
1.47339e-06
1.47767e-06
1.47968e-06
1.47913e-06
1.47672e-06
1.47339e-06
1.47339e-06
1.47339e-06
1.47339e-06
1.47741e-06
1.47768e-06
1.47961e-06
1.4794e-06
1.47754e-06
1.47761e-06
1.47768e-06
1.47766e-06
1.47767e-06
1.47768e-06
1.4796e-06
1.47957e-06
1.47936e-06
1.47772e-06
1.47968e-06
1.47961e-06
1.46066e-06
1.46049e-06
1.46032e-06
1.4582e-06
1.45808e-06
1.45801e-06
1.45818e-06
1.46026e-06
1.46053e-06
1.46032e-06
1.45752e-06
1.45452e-06
1.45452e-06
1.45452e-06
1.45452e-06
1.45785e-06
1.45867e-06
1.4582e-06
1.45452e-06
1.45452e-06
1.45452e-06
1.45452e-06
1.45452e-06
1.45452e-06
1.45874e-06
1.4607e-06
1.46066e-06
1.45808e-06
1.45452e-06
1.45452e-06
1.45452e-06
1.45452e-06
1.45452e-06
1.45452e-06
1.45882e-06
1.46049e-06
1.46049e-06
1.45801e-06
1.45452e-06
1.45452e-06
1.45452e-06
1.45452e-06
1.45452e-06
1.45452e-06
1.45879e-06
1.45885e-06
1.45818e-06
1.45452e-06
1.45452e-06
1.45452e-06
1.45452e-06
1.45452e-06
1.45452e-06
1.4588e-06
1.46081e-06
1.46026e-06
1.45785e-06
1.45452e-06
1.45452e-06
1.45452e-06
1.45452e-06
1.45854e-06
1.45881e-06
1.46074e-06
1.46053e-06
1.45867e-06
1.45874e-06
1.45881e-06
1.45879e-06
1.4588e-06
1.45881e-06
1.46073e-06
1.4607e-06
1.46049e-06
1.45885e-06
1.46081e-06
1.46074e-06
1.44179e-06
1.44162e-06
1.44145e-06
1.43933e-06
1.43921e-06
1.43914e-06
1.43931e-06
1.44139e-06
1.44166e-06
1.44145e-06
1.43865e-06
1.43565e-06
1.43565e-06
1.43565e-06
1.43565e-06
1.43898e-06
1.4398e-06
1.43933e-06
1.43565e-06
1.43565e-06
1.43565e-06
1.43565e-06
1.43565e-06
1.43565e-06
1.43987e-06
1.44183e-06
1.44179e-06
1.43921e-06
1.43565e-06
1.43565e-06
1.43565e-06
1.43565e-06
1.43565e-06
1.43565e-06
1.43994e-06
1.44162e-06
1.44162e-06
1.43914e-06
1.43565e-06
1.43565e-06
1.43565e-06
1.43565e-06
1.43565e-06
1.43565e-06
1.43992e-06
1.43998e-06
1.43931e-06
1.43565e-06
1.43565e-06
1.43565e-06
1.43565e-06
1.43565e-06
1.43565e-06
1.43993e-06
1.44194e-06
1.44139e-06
1.43898e-06
1.43565e-06
1.43565e-06
1.43565e-06
1.43565e-06
1.43967e-06
1.43994e-06
1.44187e-06
1.44166e-06
1.4398e-06
1.43987e-06
1.43994e-06
1.43992e-06
1.43993e-06
1.43994e-06
1.44186e-06
1.44183e-06
1.44162e-06
1.43998e-06
1.44194e-06
1.44187e-06
1.42292e-06
1.42275e-06
1.42258e-06
1.42046e-06
1.42034e-06
1.42027e-06
1.42044e-06
1.42252e-06
1.42279e-06
1.42258e-06
1.41978e-06
1.41678e-06
1.41678e-06
1.41678e-06
1.41678e-06
1.42011e-06
1.42093e-06
1.42046e-06
1.41678e-06
1.41678e-06
1.41678e-06
1.41678e-06
1.41678e-06
1.41678e-06
1.421e-06
1.42296e-06
1.42292e-06
1.42034e-06
1.41678e-06
1.41678e-06
1.41678e-06
1.41678e-06
1.41678e-06
1.41678e-06
1.42107e-06
1.42275e-06
1.42275e-06
1.42027e-06
1.41678e-06
1.41678e-06
1.41678e-06
1.41678e-06
1.41678e-06
1.41678e-06
1.42105e-06
1.42111e-06
1.42044e-06
1.41678e-06
1.41678e-06
1.41678e-06
1.41678e-06
1.41678e-06
1.41678e-06
1.42106e-06
1.42307e-06
1.42252e-06
1.42011e-06
1.41678e-06
1.41678e-06
1.41678e-06
1.41678e-06
1.4208e-06
1.42107e-06
1.423e-06
1.42279e-06
1.42093e-06
1.421e-06
1.42107e-06
1.42105e-06
1.42106e-06
1.42107e-06
1.42299e-06
1.42296e-06
1.42275e-06
1.42111e-06
1.42307e-06
1.423e-06
1.40405e-06
1.40388e-06
1.40371e-06
1.40159e-06
1.40147e-06
1.4014e-06
1.40157e-06
1.40364e-06
1.40391e-06
1.40371e-06
1.40091e-06
1.39791e-06
1.39791e-06
1.39791e-06
1.39791e-06
1.40124e-06
1.40206e-06
1.40159e-06
1.39791e-06
1.39791e-06
1.39791e-06
1.39791e-06
1.39791e-06
1.39791e-06
1.40212e-06
1.40409e-06
1.40405e-06
1.40147e-06
1.39791e-06
1.39791e-06
1.39791e-06
1.39791e-06
1.39791e-06
1.39791e-06
1.4022e-06
1.40388e-06
1.40388e-06
1.4014e-06
1.39791e-06
1.39791e-06
1.39791e-06
1.39791e-06
1.39791e-06
1.39791e-06
1.40218e-06
1.40223e-06
1.40157e-06
1.39791e-06
1.39791e-06
1.39791e-06
1.39791e-06
1.39791e-06
1.39791e-06
1.40219e-06
1.40419e-06
1.40365e-06
1.40124e-06
1.39791e-06
1.39791e-06
1.39791e-06
1.39791e-06
1.40193e-06
1.4022e-06
1.40412e-06
1.40391e-06
1.40206e-06
1.40212e-06
1.4022e-06
1.40218e-06
1.40219e-06
1.4022e-06
1.40412e-06
1.40409e-06
1.40388e-06
1.40223e-06
1.40419e-06
1.40412e-06
1.38518e-06
1.38501e-06
1.38484e-06
1.38271e-06
1.38259e-06
1.38252e-06
1.38269e-06
1.38477e-06
1.38504e-06
1.38484e-06
1.38204e-06
1.37903e-06
1.37903e-06
1.37903e-06
1.37903e-06
1.38237e-06
1.38319e-06
1.38271e-06
1.37903e-06
1.37903e-06
1.37903e-06
1.37903e-06
1.37903e-06
1.37903e-06
1.38325e-06
1.38521e-06
1.38518e-06
1.38259e-06
1.37903e-06
1.37903e-06
1.37903e-06
1.37903e-06
1.37903e-06
1.37903e-06
1.38333e-06
1.385e-06
1.38501e-06
1.38252e-06
1.37903e-06
1.37903e-06
1.37903e-06
1.37903e-06
1.37903e-06
1.37903e-06
1.3833e-06
1.38336e-06
1.38269e-06
1.37903e-06
1.37903e-06
1.37903e-06
1.37903e-06
1.37903e-06
1.37903e-06
1.38331e-06
1.38532e-06
1.38477e-06
1.38237e-06
1.37903e-06
1.37903e-06
1.37903e-06
1.37903e-06
1.38305e-06
1.38333e-06
1.38525e-06
1.38504e-06
1.38319e-06
1.38325e-06
1.38333e-06
1.3833e-06
1.38331e-06
1.38332e-06
1.38525e-06
1.38521e-06
1.385e-06
1.38336e-06
1.38532e-06
1.38525e-06
1.3663e-06
1.36614e-06
1.36596e-06
1.36384e-06
1.36372e-06
1.36365e-06
1.36382e-06
1.3659e-06
1.36617e-06
1.36596e-06
1.36316e-06
1.36016e-06
1.36016e-06
1.36016e-06
1.36016e-06
1.36349e-06
1.36431e-06
1.36384e-06
1.36016e-06
1.36016e-06
1.36016e-06
1.36016e-06
1.36016e-06
1.36016e-06
1.36438e-06
1.36634e-06
1.3663e-06
1.36372e-06
1.36016e-06
1.36016e-06
1.36016e-06
1.36016e-06
1.36016e-06
1.36016e-06
1.36446e-06
1.36613e-06
1.36614e-06
1.36365e-06
1.36016e-06
1.36016e-06
1.36016e-06
1.36016e-06
1.36016e-06
1.36016e-06
1.36443e-06
1.36449e-06
1.36382e-06
1.36016e-06
1.36016e-06
1.36016e-06
1.36016e-06
1.36016e-06
1.36016e-06
1.36444e-06
1.36645e-06
1.3659e-06
1.36349e-06
1.36016e-06
1.36016e-06
1.36016e-06
1.36016e-06
1.36418e-06
1.36445e-06
1.36638e-06
1.36617e-06
1.36431e-06
1.36438e-06
1.36445e-06
1.36443e-06
1.36444e-06
1.36445e-06
1.36637e-06
1.36634e-06
1.36613e-06
1.36449e-06
1.36645e-06
1.36638e-06
1.34743e-06
1.34726e-06
1.34709e-06
1.34497e-06
1.34485e-06
1.34478e-06
1.34495e-06
1.34703e-06
1.34729e-06
1.34709e-06
1.34429e-06
1.34129e-06
1.34129e-06
1.34129e-06
1.34129e-06
1.34462e-06
1.34544e-06
1.34497e-06
1.34129e-06
1.34129e-06
1.34129e-06
1.34129e-06
1.34129e-06
1.34129e-06
1.34551e-06
1.34747e-06
1.34743e-06
1.34485e-06
1.34129e-06
1.34129e-06
1.34129e-06
1.34129e-06
1.34129e-06
1.34129e-06
1.34558e-06
1.34726e-06
1.34726e-06
1.34478e-06
1.34129e-06
1.34129e-06
1.34129e-06
1.34129e-06
1.34129e-06
1.34129e-06
1.34556e-06
1.34562e-06
1.34495e-06
1.34129e-06
1.34129e-06
1.34129e-06
1.34129e-06
1.34129e-06
1.34129e-06
1.34557e-06
1.34758e-06
1.34703e-06
1.34462e-06
1.34129e-06
1.34129e-06
1.34129e-06
1.34129e-06
1.34531e-06
1.34558e-06
1.34751e-06
1.3473e-06
1.34544e-06
1.34551e-06
1.34558e-06
1.34556e-06
1.34557e-06
1.34558e-06
1.3475e-06
1.34747e-06
1.34726e-06
1.34562e-06
1.34757e-06
1.34751e-06
1.32856e-06
1.32839e-06
1.32822e-06
1.32609e-06
1.32597e-06
1.3259e-06
1.32607e-06
1.32815e-06
1.32842e-06
1.32822e-06
1.32542e-06
1.32241e-06
1.32241e-06
1.32241e-06
1.32241e-06
1.32575e-06
1.32657e-06
1.32609e-06
1.32241e-06
1.32241e-06
1.32241e-06
1.32241e-06
1.32241e-06
1.32241e-06
1.32663e-06
1.32859e-06
1.32856e-06
1.32597e-06
1.32241e-06
1.32241e-06
1.32241e-06
1.32241e-06
1.32241e-06
1.32241e-06
1.32671e-06
1.32838e-06
1.32839e-06
1.3259e-06
1.32241e-06
1.32241e-06
1.32241e-06
1.32241e-06
1.32241e-06
1.32241e-06
1.32668e-06
1.32674e-06
1.32607e-06
1.32241e-06
1.32241e-06
1.32241e-06
1.32241e-06
1.32241e-06
1.32241e-06
1.32669e-06
1.3287e-06
1.32815e-06
1.32575e-06
1.32241e-06
1.32241e-06
1.32241e-06
1.32241e-06
1.32644e-06
1.32671e-06
1.32863e-06
1.32842e-06
1.32657e-06
1.32663e-06
1.32671e-06
1.32668e-06
1.32669e-06
1.3267e-06
1.32863e-06
1.32859e-06
1.32838e-06
1.32674e-06
1.3287e-06
1.32863e-06
1.30968e-06
1.30951e-06
1.30934e-06
1.30722e-06
1.3071e-06
1.30703e-06
1.3072e-06
1.30928e-06
1.30955e-06
1.30934e-06
1.30654e-06
1.30354e-06
1.30354e-06
1.30354e-06
1.30354e-06
1.30687e-06
1.30769e-06
1.30722e-06
1.30354e-06
1.30354e-06
1.30354e-06
1.30354e-06
1.30354e-06
1.30354e-06
1.30776e-06
1.30972e-06
1.30968e-06
1.3071e-06
1.30354e-06
1.30354e-06
1.30354e-06
1.30354e-06
1.30354e-06
1.30354e-06
1.30784e-06
1.30951e-06
1.30952e-06
1.30703e-06
1.30354e-06
1.30354e-06
1.30354e-06
1.30354e-06
1.30354e-06
1.30354e-06
1.30781e-06
1.30787e-06
1.3072e-06
1.30354e-06
1.30354e-06
1.30354e-06
1.30354e-06
1.30354e-06
1.30354e-06
1.30782e-06
1.30983e-06
1.30928e-06
1.30687e-06
1.30354e-06
1.30354e-06
1.30354e-06
1.30354e-06
1.30756e-06
1.30783e-06
1.30976e-06
1.30955e-06
1.30769e-06
1.30776e-06
1.30783e-06
1.30781e-06
1.30782e-06
1.30783e-06
1.30975e-06
1.30972e-06
1.30951e-06
1.30787e-06
1.30983e-06
1.30976e-06
1.29081e-06
1.29064e-06
1.29047e-06
1.28835e-06
1.28823e-06
1.28815e-06
1.28833e-06
1.2904e-06
1.29067e-06
1.29047e-06
1.28767e-06
1.28467e-06
1.28467e-06
1.28467e-06
1.28467e-06
1.288e-06
1.28882e-06
1.28835e-06
1.28467e-06
1.28467e-06
1.28467e-06
1.28467e-06
1.28467e-06
1.28467e-06
1.28888e-06
1.29085e-06
1.29081e-06
1.28823e-06
1.28467e-06
1.28467e-06
1.28467e-06
1.28467e-06
1.28467e-06
1.28467e-06
1.28896e-06
1.29064e-06
1.29064e-06
1.28815e-06
1.28467e-06
1.28467e-06
1.28467e-06
1.28467e-06
1.28467e-06
1.28467e-06
1.28894e-06
1.28899e-06
1.28833e-06
1.28467e-06
1.28467e-06
1.28467e-06
1.28467e-06
1.28467e-06
1.28467e-06
1.28895e-06
1.29095e-06
1.29041e-06
1.288e-06
1.28467e-06
1.28467e-06
1.28467e-06
1.28467e-06
1.28869e-06
1.28896e-06
1.29088e-06
1.29067e-06
1.28882e-06
1.28888e-06
1.28896e-06
1.28894e-06
1.28895e-06
1.28896e-06
1.29088e-06
1.29085e-06
1.29064e-06
1.28899e-06
1.29095e-06
1.29088e-06
1.27193e-06
1.27177e-06
1.27159e-06
1.26947e-06
1.26935e-06
1.26928e-06
1.26945e-06
1.27153e-06
1.2718e-06
1.27159e-06
1.26879e-06
1.26579e-06
1.26579e-06
1.26579e-06
1.26579e-06
1.26912e-06
1.26994e-06
1.26947e-06
1.26579e-06
1.26579e-06
1.26579e-06
1.26579e-06
1.26579e-06
1.26579e-06
1.27001e-06
1.27197e-06
1.27193e-06
1.26935e-06
1.26579e-06
1.26579e-06
1.26579e-06
1.26579e-06
1.26579e-06
1.26579e-06
1.27009e-06
1.27176e-06
1.27177e-06
1.26928e-06
1.26579e-06
1.26579e-06
1.26579e-06
1.26579e-06
1.26579e-06
1.26579e-06
1.27006e-06
1.27012e-06
1.26945e-06
1.26579e-06
1.26579e-06
1.26579e-06
1.26579e-06
1.26579e-06
1.26579e-06
1.27007e-06
1.27208e-06
1.27153e-06
1.26913e-06
1.26579e-06
1.26579e-06
1.26579e-06
1.26579e-06
1.26981e-06
1.27008e-06
1.27201e-06
1.2718e-06
1.26994e-06
1.27001e-06
1.27009e-06
1.27006e-06
1.27007e-06
1.27008e-06
1.27201e-06
1.27197e-06
1.27176e-06
1.27012e-06
1.27208e-06
1.27201e-06
1.25306e-06
1.25289e-06
1.25272e-06
1.2506e-06
1.25048e-06
1.25041e-06
1.25058e-06
1.25266e-06
1.25293e-06
1.25272e-06
1.24992e-06
1.24692e-06
1.24692e-06
1.24692e-06
1.24692e-06
1.25025e-06
1.25107e-06
1.2506e-06
1.24692e-06
1.24692e-06
1.24692e-06
1.24692e-06
1.24692e-06
1.24692e-06
1.25114e-06
1.2531e-06
1.25306e-06
1.25048e-06
1.24692e-06
1.24692e-06
1.24692e-06
1.24692e-06
1.24692e-06
1.24692e-06
1.25121e-06
1.25289e-06
1.25289e-06
1.25041e-06
1.24692e-06
1.24692e-06
1.24692e-06
1.24692e-06
1.24692e-06
1.24692e-06
1.25119e-06
1.25125e-06
1.25058e-06
1.24692e-06
1.24692e-06
1.24692e-06
1.24692e-06
1.24692e-06
1.24692e-06
1.2512e-06
1.25321e-06
1.25266e-06
1.25025e-06
1.24692e-06
1.24692e-06
1.24692e-06
1.24692e-06
1.25094e-06
1.25121e-06
1.25314e-06
1.25293e-06
1.25107e-06
1.25114e-06
1.25121e-06
1.25119e-06
1.2512e-06
1.25121e-06
1.25313e-06
1.2531e-06
1.25289e-06
1.25125e-06
1.25321e-06
1.25314e-06
1.23419e-06
1.23402e-06
1.23385e-06
1.23172e-06
1.2316e-06
1.23153e-06
1.2317e-06
1.23378e-06
1.23405e-06
1.23385e-06
1.23104e-06
1.22804e-06
1.22804e-06
1.22804e-06
1.22804e-06
1.23138e-06
1.2322e-06
1.23172e-06
1.22804e-06
1.22804e-06
1.22804e-06
1.22804e-06
1.22804e-06
1.22804e-06
1.23226e-06
1.23422e-06
1.23418e-06
1.2316e-06
1.22804e-06
1.22804e-06
1.22804e-06
1.22804e-06
1.22804e-06
1.22804e-06
1.23234e-06
1.23401e-06
1.23402e-06
1.23153e-06
1.22804e-06
1.22804e-06
1.22804e-06
1.22804e-06
1.22804e-06
1.22804e-06
1.23231e-06
1.23237e-06
1.2317e-06
1.22804e-06
1.22804e-06
1.22804e-06
1.22804e-06
1.22804e-06
1.22804e-06
1.23232e-06
1.23433e-06
1.23378e-06
1.23138e-06
1.22804e-06
1.22804e-06
1.22804e-06
1.22804e-06
1.23206e-06
1.23233e-06
1.23426e-06