/*--------------------------------*- C++ -*----------------------------------*\
| =========                 |                                                 |
| \\      /  F ield         | OpenFOAM: The Open Source CFD Toolbox           |
|  \\    /   O peration     | Version:  v2012                                 |
|   \\  /    A nd           | Website:  www.openfoam.com                      |
|    \\/     M anipulation  |                                                 |
\*---------------------------------------------------------------------------*/
FoamFile
{
    version     2.0;
    format      ascii;
    class       volScalarField;
    location    "0.19";
    object      p;
}
// * * * * * * * * * * * * * * * * * * * * * * * * * * * * * * * * * * * * * //

dimensions      [0 2 -2 0 0 0 0];


internalField   nonuniform List<scalar> 
247104
(
1.90748e-06
1.90776e-06
1.90782e-06
1.90769e-06
1.90751e-06
1.90772e-06
1.90782e-06
1.90769e-06
1.90776e-06
1.90782e-06
1.90786e-06
1.90766e-06
1.90753e-06
1.90769e-06
1.90787e-06
1.90779e-06
1.90782e-06
1.90786e-06
1.90756e-06
1.90717e-06
1.90702e-06
1.90721e-06
1.90761e-06
1.90788e-06
1.90781e-06
1.90769e-06
1.90766e-06
1.90717e-06
1.90668e-06
1.9065e-06
1.90673e-06
1.90724e-06
1.9077e-06
1.90766e-06
1.90748e-06
1.90751e-06
1.90753e-06
1.90702e-06
1.9065e-06
1.90632e-06
1.90655e-06
1.90709e-06
1.90757e-06
1.90746e-06
1.90772e-06
1.90769e-06
1.90721e-06
1.90673e-06
1.90655e-06
1.90678e-06
1.90728e-06
1.90773e-06
1.9077e-06
1.90782e-06
1.90787e-06
1.90761e-06
1.90724e-06
1.90709e-06
1.90728e-06
1.90766e-06
1.90788e-06
1.90781e-06
1.90769e-06
1.90779e-06
1.90788e-06
1.9077e-06
1.90757e-06
1.90773e-06
1.90788e-06
1.90775e-06
1.90781e-06
1.90766e-06
1.90746e-06
1.9077e-06
1.90781e-06
1.87364e-06
1.87156e-06
1.87148e-06
1.87034e-06
1.87017e-06
1.8701e-06
1.87011e-06
1.87158e-06
1.87195e-06
1.87148e-06
1.86942e-06
1.86643e-06
1.86632e-06
1.86632e-06
1.86643e-06
1.86983e-06
1.87003e-06
1.87034e-06
1.86643e-06
1.86635e-06
1.86639e-06
1.86639e-06
1.86635e-06
1.86643e-06
1.87027e-06
1.87116e-06
1.87364e-06
1.87017e-06
1.86632e-06
1.86639e-06
1.8665e-06
1.8665e-06
1.86639e-06
1.86632e-06
1.87013e-06
1.8718e-06
1.87156e-06
1.8701e-06
1.86632e-06
1.86639e-06
1.8665e-06
1.8665e-06
1.86639e-06
1.86632e-06
1.87027e-06
1.87e-06
1.87011e-06
1.86643e-06
1.86635e-06
1.86639e-06
1.86639e-06
1.86635e-06
1.86643e-06
1.87013e-06
1.87096e-06
1.87158e-06
1.86983e-06
1.86643e-06
1.86632e-06
1.86632e-06
1.86643e-06
1.86993e-06
1.87025e-06
1.87164e-06
1.87195e-06
1.87002e-06
1.87027e-06
1.87013e-06
1.87027e-06
1.87012e-06
1.87024e-06
1.87254e-06
1.87116e-06
1.8718e-06
1.87e-06
1.87095e-06
1.87164e-06
1.85355e-06
1.85335e-06
1.8532e-06
1.851e-06
1.85095e-06
1.85094e-06
1.85099e-06
1.85329e-06
1.85347e-06
1.85321e-06
1.85031e-06
1.84727e-06
1.84709e-06
1.84709e-06
1.84726e-06
1.85106e-06
1.85146e-06
1.851e-06
1.84726e-06
1.84684e-06
1.84684e-06
1.84683e-06
1.84684e-06
1.84727e-06
1.85186e-06
1.85384e-06
1.85356e-06
1.85095e-06
1.84709e-06
1.84683e-06
1.84685e-06
1.84685e-06
1.84684e-06
1.8471e-06
1.85188e-06
1.85349e-06
1.85335e-06
1.85095e-06
1.84709e-06
1.84683e-06
1.84685e-06
1.84685e-06
1.84684e-06
1.8471e-06
1.8518e-06
1.85146e-06
1.85099e-06
1.84727e-06
1.84684e-06
1.84684e-06
1.84684e-06
1.84684e-06
1.84727e-06
1.85192e-06
1.85386e-06
1.85329e-06
1.85106e-06
1.84727e-06
1.84709e-06
1.84709e-06
1.84726e-06
1.85155e-06
1.8517e-06
1.85376e-06
1.85346e-06
1.85147e-06
1.85186e-06
1.85188e-06
1.8518e-06
1.85192e-06
1.8517e-06
1.85386e-06
1.85384e-06
1.85349e-06
1.85146e-06
1.85387e-06
1.85377e-06
1.834e-06
1.83383e-06
1.83373e-06
1.83142e-06
1.83138e-06
1.83128e-06
1.83147e-06
1.83379e-06
1.83398e-06
1.83373e-06
1.83054e-06
1.82762e-06
1.82756e-06
1.82756e-06
1.82762e-06
1.8314e-06
1.83206e-06
1.83142e-06
1.82762e-06
1.82744e-06
1.82744e-06
1.82744e-06
1.82744e-06
1.82762e-06
1.83237e-06
1.83431e-06
1.834e-06
1.83139e-06
1.82756e-06
1.82744e-06
1.82744e-06
1.82744e-06
1.82744e-06
1.82756e-06
1.83248e-06
1.83392e-06
1.83383e-06
1.83128e-06
1.82756e-06
1.82744e-06
1.82744e-06
1.82744e-06
1.82744e-06
1.82756e-06
1.83243e-06
1.83204e-06
1.83147e-06
1.82762e-06
1.82744e-06
1.82744e-06
1.82744e-06
1.82744e-06
1.82762e-06
1.83246e-06
1.83429e-06
1.83379e-06
1.8314e-06
1.82762e-06
1.82756e-06
1.82756e-06
1.82762e-06
1.83226e-06
1.83227e-06
1.83429e-06
1.83398e-06
1.83207e-06
1.83238e-06
1.83248e-06
1.83243e-06
1.83246e-06
1.83227e-06
1.83426e-06
1.83431e-06
1.83391e-06
1.83204e-06
1.83429e-06
1.83429e-06
1.81443e-06
1.81427e-06
1.81408e-06
1.81178e-06
1.81173e-06
1.81157e-06
1.81183e-06
1.81417e-06
1.81438e-06
1.81408e-06
1.81084e-06
1.80794e-06
1.80792e-06
1.80792e-06
1.80794e-06
1.81168e-06
1.81248e-06
1.81178e-06
1.80794e-06
1.80789e-06
1.80789e-06
1.80789e-06
1.80789e-06
1.80794e-06
1.8128e-06
1.81473e-06
1.81444e-06
1.81173e-06
1.80792e-06
1.80789e-06
1.80789e-06
1.80789e-06
1.80789e-06
1.80792e-06
1.81298e-06
1.8144e-06
1.81427e-06
1.81157e-06
1.80792e-06
1.80789e-06
1.80789e-06
1.80789e-06
1.80789e-06
1.80792e-06
1.81295e-06
1.81253e-06
1.81183e-06
1.80794e-06
1.80789e-06
1.80789e-06
1.80789e-06
1.80789e-06
1.80794e-06
1.81291e-06
1.81476e-06
1.81418e-06
1.81168e-06
1.80794e-06
1.80792e-06
1.80792e-06
1.80794e-06
1.81277e-06
1.8127e-06
1.8147e-06
1.81436e-06
1.81244e-06
1.8128e-06
1.81297e-06
1.81295e-06
1.81291e-06
1.8127e-06
1.81469e-06
1.81473e-06
1.8144e-06
1.81253e-06
1.81476e-06
1.8147e-06
1.79482e-06
1.79466e-06
1.79445e-06
1.79214e-06
1.79209e-06
1.79192e-06
1.79219e-06
1.79454e-06
1.79473e-06
1.79445e-06
1.7912e-06
1.7883e-06
1.78829e-06
1.78829e-06
1.7883e-06
1.79202e-06
1.79282e-06
1.79214e-06
1.7883e-06
1.78828e-06
1.78828e-06
1.78828e-06
1.78828e-06
1.7883e-06
1.79318e-06
1.79511e-06
1.79483e-06
1.79209e-06
1.78829e-06
1.78828e-06
1.78828e-06
1.78828e-06
1.78828e-06
1.78829e-06
1.79338e-06
1.7948e-06
1.79466e-06
1.79192e-06
1.78829e-06
1.78828e-06
1.78828e-06
1.78828e-06
1.78828e-06
1.78829e-06
1.79336e-06
1.79294e-06
1.79219e-06
1.7883e-06
1.78828e-06
1.78828e-06
1.78828e-06
1.78828e-06
1.7883e-06
1.7933e-06
1.79516e-06
1.79454e-06
1.79202e-06
1.7883e-06
1.78829e-06
1.78829e-06
1.7883e-06
1.79319e-06
1.7931e-06
1.79507e-06
1.79473e-06
1.79282e-06
1.79318e-06
1.79338e-06
1.79336e-06
1.79331e-06
1.7931e-06
1.795e-06
1.79511e-06
1.7948e-06
1.79294e-06
1.79516e-06
1.79507e-06
1.7752e-06
1.77504e-06
1.77483e-06
1.77251e-06
1.77246e-06
1.77228e-06
1.77256e-06
1.77491e-06
1.7751e-06
1.77483e-06
1.77157e-06
1.76866e-06
1.76866e-06
1.76866e-06
1.76866e-06
1.77237e-06
1.77319e-06
1.77251e-06
1.76866e-06
1.76866e-06
1.76866e-06
1.76866e-06
1.76866e-06
1.76866e-06
1.77355e-06
1.77548e-06
1.7752e-06
1.77246e-06
1.76866e-06
1.76866e-06
1.76866e-06
1.76866e-06
1.76866e-06
1.76866e-06
1.77376e-06
1.77518e-06
1.77503e-06
1.77228e-06
1.76866e-06
1.76866e-06
1.76866e-06
1.76866e-06
1.76866e-06
1.76866e-06
1.77374e-06
1.77332e-06
1.77255e-06
1.76866e-06
1.76866e-06
1.76866e-06
1.76866e-06
1.76866e-06
1.76866e-06
1.77368e-06
1.77554e-06
1.77491e-06
1.77237e-06
1.76866e-06
1.76866e-06
1.76866e-06
1.76866e-06
1.77357e-06
1.77348e-06
1.77544e-06
1.77513e-06
1.77319e-06
1.77355e-06
1.77375e-06
1.77374e-06
1.77367e-06
1.77347e-06
1.77539e-06
1.77548e-06
1.77518e-06
1.77332e-06
1.77554e-06
1.77544e-06
1.75557e-06
1.75541e-06
1.75522e-06
1.75288e-06
1.75283e-06
1.75265e-06
1.75292e-06
1.75528e-06
1.75546e-06
1.75522e-06
1.75192e-06
1.74903e-06
1.74903e-06
1.74903e-06
1.74903e-06
1.75274e-06
1.75356e-06
1.75288e-06
1.74903e-06
1.74903e-06
1.74903e-06
1.74903e-06
1.74903e-06
1.74903e-06
1.75392e-06
1.75585e-06
1.75557e-06
1.75283e-06
1.74903e-06
1.74903e-06
1.74903e-06
1.74903e-06
1.74903e-06
1.74903e-06
1.75412e-06
1.75555e-06
1.7554e-06
1.75265e-06
1.74903e-06
1.74903e-06
1.74903e-06
1.74903e-06
1.74903e-06
1.74903e-06
1.75411e-06
1.75369e-06
1.75292e-06
1.74903e-06
1.74903e-06
1.74903e-06
1.74903e-06
1.74903e-06
1.74903e-06
1.75404e-06
1.75591e-06
1.75528e-06
1.75273e-06
1.74903e-06
1.74903e-06
1.74903e-06
1.74903e-06
1.75394e-06
1.75385e-06
1.75581e-06
1.75549e-06
1.75356e-06
1.75392e-06
1.75412e-06
1.75411e-06
1.75404e-06
1.75383e-06
1.75576e-06
1.75585e-06
1.75555e-06
1.75369e-06
1.75591e-06
1.75581e-06
1.73593e-06
1.73577e-06
1.73558e-06
1.73325e-06
1.73319e-06
1.73301e-06
1.73329e-06
1.73565e-06
1.73583e-06
1.73558e-06
1.73228e-06
1.72939e-06
1.72939e-06
1.72939e-06
1.72939e-06
1.7331e-06
1.73393e-06
1.73324e-06
1.72939e-06
1.72939e-06
1.72939e-06
1.72939e-06
1.72939e-06
1.72939e-06
1.73428e-06
1.73622e-06
1.73594e-06
1.73319e-06
1.72939e-06
1.72939e-06
1.72939e-06
1.72939e-06
1.72939e-06
1.72939e-06
1.73449e-06
1.73592e-06
1.73577e-06
1.73302e-06
1.72939e-06
1.72939e-06
1.72939e-06
1.72939e-06
1.72939e-06
1.72939e-06
1.73448e-06
1.73406e-06
1.73329e-06
1.72939e-06
1.72939e-06
1.72939e-06
1.72939e-06
1.72939e-06
1.72939e-06
1.73441e-06
1.73628e-06
1.73565e-06
1.7331e-06
1.72939e-06
1.72939e-06
1.72939e-06
1.72939e-06
1.73432e-06
1.73422e-06
1.73618e-06
1.73586e-06
1.73392e-06
1.73428e-06
1.73449e-06
1.73448e-06
1.73441e-06
1.73421e-06
1.73612e-06
1.73622e-06
1.73592e-06
1.73406e-06
1.73627e-06
1.73618e-06
1.7163e-06
1.71614e-06
1.71595e-06
1.71361e-06
1.71356e-06
1.71338e-06
1.71365e-06
1.71602e-06
1.7162e-06
1.71595e-06
1.71265e-06
1.70976e-06
1.70976e-06
1.70976e-06
1.70976e-06
1.71347e-06
1.7143e-06
1.71361e-06
1.70976e-06
1.70976e-06
1.70976e-06
1.70976e-06
1.70976e-06
1.70976e-06
1.71465e-06
1.71659e-06
1.71631e-06
1.71356e-06
1.70976e-06
1.70976e-06
1.70976e-06
1.70976e-06
1.70976e-06
1.70976e-06
1.71486e-06
1.71629e-06
1.71614e-06
1.71338e-06
1.70976e-06
1.70976e-06
1.70976e-06
1.70976e-06
1.70976e-06
1.70976e-06
1.71485e-06
1.71442e-06
1.71365e-06
1.70976e-06
1.70976e-06
1.70976e-06
1.70976e-06
1.70976e-06
1.70976e-06
1.71478e-06
1.71664e-06
1.71601e-06
1.71347e-06
1.70976e-06
1.70976e-06
1.70976e-06
1.70976e-06
1.71468e-06
1.71458e-06
1.71655e-06
1.71623e-06
1.71429e-06
1.71465e-06
1.71486e-06
1.71485e-06
1.71478e-06
1.71457e-06
1.71649e-06
1.71659e-06
1.71629e-06
1.71443e-06
1.71664e-06
1.71655e-06
1.69667e-06
1.69651e-06
1.69631e-06
1.69398e-06
1.69392e-06
1.69375e-06
1.69402e-06
1.69638e-06
1.69657e-06
1.69631e-06
1.69302e-06
1.69012e-06
1.69013e-06
1.69013e-06
1.69013e-06
1.69383e-06
1.69466e-06
1.69398e-06
1.69013e-06
1.69013e-06
1.69013e-06
1.69013e-06
1.69013e-06
1.69013e-06
1.69502e-06
1.69695e-06
1.69667e-06
1.69392e-06
1.69013e-06
1.69013e-06
1.69013e-06
1.69013e-06
1.69013e-06
1.69013e-06
1.69523e-06
1.69666e-06
1.6965e-06
1.69375e-06
1.69013e-06
1.69013e-06
1.69013e-06
1.69013e-06
1.69013e-06
1.69013e-06
1.69522e-06
1.69479e-06
1.69402e-06
1.69013e-06
1.69013e-06
1.69013e-06
1.69013e-06
1.69013e-06
1.69013e-06
1.69515e-06
1.69701e-06
1.69638e-06
1.69383e-06
1.69013e-06
1.69013e-06
1.69013e-06
1.69013e-06
1.69505e-06
1.69495e-06
1.69691e-06
1.69659e-06
1.69466e-06
1.69502e-06
1.69523e-06
1.69522e-06
1.69514e-06
1.69494e-06
1.69686e-06
1.69696e-06
1.69666e-06
1.69479e-06
1.69701e-06
1.69692e-06
1.67703e-06
1.67687e-06
1.67667e-06
1.67435e-06
1.67429e-06
1.67412e-06
1.67439e-06
1.67675e-06
1.67693e-06
1.67667e-06
1.67339e-06
1.67049e-06
1.67049e-06
1.6705e-06
1.6705e-06
1.6742e-06
1.67503e-06
1.67434e-06
1.67049e-06
1.67049e-06
1.6705e-06
1.6705e-06
1.6705e-06
1.6705e-06
1.67539e-06
1.67732e-06
1.67704e-06
1.67429e-06
1.6705e-06
1.6705e-06
1.6705e-06
1.6705e-06
1.6705e-06
1.6705e-06
1.67559e-06
1.67702e-06
1.67687e-06
1.67412e-06
1.6705e-06
1.6705e-06
1.6705e-06
1.6705e-06
1.6705e-06
1.6705e-06
1.67559e-06
1.67516e-06
1.67439e-06
1.6705e-06
1.6705e-06
1.6705e-06
1.6705e-06
1.6705e-06
1.6705e-06
1.67551e-06
1.67738e-06
1.67675e-06
1.6742e-06
1.6705e-06
1.6705e-06
1.6705e-06
1.6705e-06
1.67542e-06
1.67532e-06
1.67728e-06
1.67696e-06
1.67503e-06
1.67539e-06
1.67559e-06
1.67559e-06
1.67551e-06
1.67531e-06
1.67723e-06
1.67732e-06
1.67702e-06
1.67516e-06
1.67738e-06
1.67728e-06
1.6574e-06
1.65724e-06
1.65704e-06
1.65472e-06
1.65466e-06
1.65448e-06
1.65476e-06
1.65712e-06
1.6573e-06
1.65704e-06
1.65376e-06
1.65086e-06
1.65086e-06
1.65086e-06
1.65086e-06
1.65457e-06
1.6554e-06
1.65471e-06
1.65086e-06
1.65086e-06
1.65086e-06
1.65086e-06
1.65086e-06
1.65086e-06
1.65575e-06
1.65769e-06
1.65741e-06
1.65466e-06
1.65086e-06
1.65086e-06
1.65086e-06
1.65086e-06
1.65086e-06
1.65086e-06
1.65596e-06
1.65739e-06
1.65724e-06
1.65449e-06
1.65086e-06
1.65086e-06
1.65086e-06
1.65086e-06
1.65086e-06
1.65086e-06
1.65596e-06
1.65553e-06
1.65476e-06
1.65086e-06
1.65086e-06
1.65086e-06
1.65086e-06
1.65086e-06
1.65086e-06
1.65588e-06
1.65775e-06
1.65712e-06
1.65457e-06
1.65086e-06
1.65086e-06
1.65086e-06
1.65086e-06
1.65579e-06
1.65569e-06
1.65765e-06
1.65733e-06
1.65539e-06
1.65575e-06
1.65596e-06
1.65595e-06
1.65588e-06
1.65568e-06
1.6576e-06
1.65769e-06
1.65739e-06
1.65553e-06
1.65775e-06
1.65765e-06
1.63777e-06
1.63761e-06
1.6374e-06
1.63508e-06
1.63503e-06
1.63485e-06
1.63513e-06
1.63749e-06
1.63767e-06
1.63741e-06
1.63413e-06
1.63123e-06
1.63123e-06
1.63123e-06
1.63123e-06
1.63494e-06
1.63577e-06
1.63508e-06
1.63123e-06
1.63123e-06
1.63123e-06
1.63123e-06
1.63123e-06
1.63123e-06
1.63612e-06
1.63806e-06
1.63778e-06
1.63503e-06
1.63123e-06
1.63123e-06
1.63123e-06
1.63123e-06
1.63123e-06
1.63123e-06
1.63633e-06
1.63776e-06
1.63761e-06
1.63485e-06
1.63123e-06
1.63123e-06
1.63123e-06
1.63123e-06
1.63123e-06
1.63123e-06
1.63632e-06
1.6359e-06
1.63513e-06
1.63123e-06
1.63123e-06
1.63123e-06
1.63123e-06
1.63123e-06
1.63123e-06
1.63625e-06
1.63812e-06
1.63749e-06
1.63494e-06
1.63123e-06
1.63123e-06
1.63123e-06
1.63123e-06
1.63616e-06
1.63606e-06
1.63802e-06
1.6377e-06
1.63576e-06
1.63612e-06
1.63633e-06
1.63632e-06
1.63625e-06
1.63604e-06
1.63796e-06
1.63806e-06
1.63776e-06
1.6359e-06
1.63811e-06
1.63802e-06
1.61814e-06
1.61798e-06
1.61777e-06
1.61545e-06
1.6154e-06
1.61522e-06
1.61549e-06
1.61786e-06
1.61804e-06
1.61778e-06
1.6145e-06
1.6116e-06
1.6116e-06
1.6116e-06
1.6116e-06
1.61531e-06
1.61613e-06
1.61545e-06
1.6116e-06
1.6116e-06
1.6116e-06
1.6116e-06
1.6116e-06
1.6116e-06
1.61649e-06
1.61843e-06
1.61814e-06
1.6154e-06
1.6116e-06
1.6116e-06
1.6116e-06
1.6116e-06
1.6116e-06
1.6116e-06
1.6167e-06
1.61813e-06
1.61798e-06
1.61522e-06
1.6116e-06
1.6116e-06
1.6116e-06
1.6116e-06
1.6116e-06
1.6116e-06
1.61669e-06
1.61626e-06
1.61549e-06
1.6116e-06
1.6116e-06
1.6116e-06
1.6116e-06
1.6116e-06
1.6116e-06
1.61662e-06
1.61848e-06
1.61785e-06
1.6153e-06
1.6116e-06
1.6116e-06
1.6116e-06
1.6116e-06
1.61652e-06
1.61642e-06
1.61839e-06
1.61806e-06
1.61613e-06
1.61649e-06
1.6167e-06
1.61669e-06
1.61661e-06
1.61641e-06
1.61833e-06
1.61843e-06
1.61813e-06
1.61626e-06
1.61848e-06
1.61839e-06
1.59851e-06
1.59835e-06
1.59814e-06
1.59582e-06
1.59577e-06
1.59559e-06
1.59586e-06
1.59822e-06
1.5984e-06
1.59815e-06
1.59487e-06
1.59197e-06
1.59197e-06
1.59197e-06
1.59197e-06
1.59568e-06
1.5965e-06
1.59582e-06
1.59197e-06
1.59197e-06
1.59197e-06
1.59197e-06
1.59197e-06
1.59197e-06
1.59686e-06
1.59879e-06
1.59851e-06
1.59576e-06
1.59197e-06
1.59197e-06
1.59197e-06
1.59197e-06
1.59197e-06
1.59197e-06
1.59707e-06
1.5985e-06
1.59834e-06
1.59559e-06
1.59197e-06
1.59197e-06
1.59197e-06
1.59197e-06
1.59197e-06
1.59197e-06
1.59706e-06
1.59663e-06
1.59586e-06
1.59197e-06
1.59197e-06
1.59197e-06
1.59197e-06
1.59197e-06
1.59197e-06
1.59699e-06
1.59885e-06
1.59822e-06
1.59567e-06
1.59197e-06
1.59197e-06
1.59197e-06
1.59197e-06
1.59689e-06
1.59679e-06
1.59875e-06
1.59843e-06
1.5965e-06
1.59686e-06
1.59706e-06
1.59706e-06
1.59698e-06
1.59678e-06
1.5987e-06
1.5988e-06
1.5985e-06
1.59663e-06
1.59885e-06
1.59875e-06
1.57888e-06
1.57871e-06
1.57851e-06
1.57619e-06
1.57613e-06
1.57595e-06
1.57623e-06
1.57859e-06
1.57877e-06
1.57851e-06
1.57523e-06
1.57233e-06
1.57233e-06
1.57233e-06
1.57233e-06
1.57604e-06
1.57687e-06
1.57618e-06
1.57233e-06
1.57233e-06
1.57233e-06
1.57233e-06
1.57233e-06
1.57233e-06
1.57722e-06
1.57916e-06
1.57888e-06
1.57613e-06
1.57233e-06
1.57233e-06
1.57233e-06
1.57233e-06
1.57233e-06
1.57233e-06
1.57743e-06
1.57886e-06
1.57871e-06
1.57596e-06
1.57233e-06
1.57233e-06
1.57233e-06
1.57233e-06
1.57233e-06
1.57233e-06
1.57743e-06
1.577e-06
1.57623e-06
1.57233e-06
1.57233e-06
1.57233e-06
1.57233e-06
1.57233e-06
1.57233e-06
1.57735e-06
1.57922e-06
1.57859e-06
1.57604e-06
1.57233e-06
1.57233e-06
1.57233e-06
1.57233e-06
1.57726e-06
1.57716e-06
1.57912e-06
1.5788e-06
1.57687e-06
1.57722e-06
1.57743e-06
1.57743e-06
1.57735e-06
1.57715e-06
1.57907e-06
1.57916e-06
1.57886e-06
1.577e-06
1.57922e-06
1.57912e-06
1.55924e-06
1.55908e-06
1.55887e-06
1.55655e-06
1.5565e-06
1.55632e-06
1.5566e-06
1.55895e-06
1.55914e-06
1.55888e-06
1.5556e-06
1.5527e-06
1.5527e-06
1.5527e-06
1.5527e-06
1.55641e-06
1.55724e-06
1.55655e-06
1.5527e-06
1.5527e-06
1.5527e-06
1.5527e-06
1.5527e-06
1.5527e-06
1.55759e-06
1.55953e-06
1.55925e-06
1.5565e-06
1.5527e-06
1.5527e-06
1.5527e-06
1.5527e-06
1.5527e-06
1.5527e-06
1.5578e-06
1.55923e-06
1.55908e-06
1.55632e-06
1.5527e-06
1.5527e-06
1.5527e-06
1.5527e-06
1.5527e-06
1.5527e-06
1.55779e-06
1.55737e-06
1.55659e-06
1.5527e-06
1.5527e-06
1.5527e-06
1.5527e-06
1.5527e-06
1.5527e-06
1.55772e-06
1.55959e-06
1.55895e-06
1.55641e-06
1.5527e-06
1.5527e-06
1.5527e-06
1.5527e-06
1.55763e-06
1.55753e-06
1.55949e-06
1.55917e-06
1.55723e-06
1.55759e-06
1.5578e-06
1.55779e-06
1.55772e-06
1.55751e-06
1.55943e-06
1.55953e-06
1.55923e-06
1.55737e-06
1.55958e-06
1.55949e-06
1.53961e-06
1.53945e-06
1.53924e-06
1.53692e-06
1.53687e-06
1.53669e-06
1.53696e-06
1.53932e-06
1.53951e-06
1.53925e-06
1.53597e-06
1.53307e-06
1.53307e-06
1.53307e-06
1.53307e-06
1.53678e-06
1.5376e-06
1.53692e-06
1.53307e-06
1.53307e-06
1.53307e-06
1.53307e-06
1.53307e-06
1.53307e-06
1.53796e-06
1.5399e-06
1.53961e-06
1.53687e-06
1.53307e-06
1.53307e-06
1.53307e-06
1.53307e-06
1.53307e-06
1.53307e-06
1.53817e-06
1.5396e-06
1.53945e-06
1.53669e-06
1.53307e-06
1.53307e-06
1.53307e-06
1.53307e-06
1.53307e-06
1.53307e-06
1.53816e-06
1.53773e-06
1.53696e-06
1.53307e-06
1.53307e-06
1.53307e-06
1.53307e-06
1.53307e-06
1.53307e-06
1.53809e-06
1.53995e-06
1.53932e-06
1.53677e-06
1.53307e-06
1.53307e-06
1.53307e-06
1.53307e-06
1.53799e-06
1.53789e-06
1.53985e-06
1.53953e-06
1.5376e-06
1.53796e-06
1.53817e-06
1.53816e-06
1.53808e-06
1.53788e-06
1.5398e-06
1.5399e-06
1.5396e-06
1.53773e-06
1.53995e-06
1.53986e-06
1.51998e-06
1.51982e-06
1.51961e-06
1.51729e-06
1.51723e-06
1.51706e-06
1.51733e-06
1.51969e-06
1.51987e-06
1.51961e-06
1.51633e-06
1.51343e-06
1.51343e-06
1.51343e-06
1.51343e-06
1.51715e-06
1.51797e-06
1.51728e-06
1.51343e-06
1.51343e-06
1.51343e-06
1.51343e-06
1.51343e-06
1.51343e-06
1.51833e-06
1.52026e-06
1.51998e-06
1.51723e-06
1.51343e-06
1.51343e-06
1.51343e-06
1.51343e-06
1.51343e-06
1.51343e-06
1.51853e-06
1.51996e-06
1.51981e-06
1.51706e-06
1.51343e-06
1.51343e-06
1.51343e-06
1.51343e-06
1.51343e-06
1.51343e-06
1.51853e-06
1.5181e-06
1.51733e-06
1.51343e-06
1.51343e-06
1.51343e-06
1.51343e-06
1.51343e-06
1.51343e-06
1.51845e-06
1.52032e-06
1.51969e-06
1.51714e-06
1.51343e-06
1.51343e-06
1.51343e-06
1.51343e-06
1.51836e-06
1.51826e-06
1.52022e-06
1.5199e-06
1.51797e-06
1.51833e-06
1.51853e-06
1.51853e-06
1.51845e-06
1.51825e-06
1.52017e-06
1.52026e-06
1.51996e-06
1.5181e-06
1.52032e-06
1.52022e-06
1.50034e-06
1.50018e-06
1.49997e-06
1.49765e-06
1.4976e-06
1.49742e-06
1.4977e-06
1.50005e-06
1.50024e-06
1.49998e-06
1.4967e-06
1.4938e-06
1.4938e-06
1.4938e-06
1.4938e-06
1.49751e-06
1.49834e-06
1.49765e-06
1.4938e-06
1.4938e-06
1.4938e-06
1.4938e-06
1.4938e-06
1.4938e-06
1.49869e-06
1.50063e-06
1.50035e-06
1.4976e-06
1.4938e-06
1.4938e-06
1.4938e-06
1.4938e-06
1.4938e-06
1.4938e-06
1.4989e-06
1.50033e-06
1.50018e-06
1.49742e-06
1.4938e-06
1.4938e-06
1.4938e-06
1.4938e-06
1.4938e-06
1.4938e-06
1.49889e-06
1.49846e-06
1.49769e-06
1.4938e-06
1.4938e-06
1.4938e-06
1.4938e-06
1.4938e-06
1.4938e-06
1.49882e-06
1.50068e-06
1.50005e-06
1.49751e-06
1.4938e-06
1.4938e-06
1.4938e-06
1.4938e-06
1.49873e-06
1.49863e-06
1.50059e-06
1.50027e-06
1.49833e-06
1.49869e-06
1.4989e-06
1.49889e-06
1.49882e-06
1.49861e-06
1.50053e-06
1.50063e-06
1.50033e-06
1.49846e-06
1.50068e-06
1.50059e-06
1.48071e-06
1.48055e-06
1.48034e-06
1.47802e-06
1.47797e-06
1.47779e-06
1.47806e-06
1.48042e-06
1.48061e-06
1.48035e-06
1.47707e-06
1.47417e-06
1.47417e-06
1.47417e-06
1.47417e-06
1.47788e-06
1.4787e-06
1.47802e-06
1.47417e-06
1.47417e-06
1.47417e-06
1.47417e-06
1.47417e-06
1.47417e-06
1.47906e-06
1.48099e-06
1.48071e-06
1.47797e-06
1.47417e-06
1.47417e-06
1.47417e-06
1.47417e-06
1.47417e-06
1.47417e-06
1.47927e-06
1.4807e-06
1.48055e-06
1.47779e-06
1.47417e-06
1.47417e-06
1.47417e-06
1.47417e-06
1.47417e-06
1.47417e-06
1.47926e-06
1.47883e-06
1.47806e-06
1.47417e-06
1.47417e-06
1.47417e-06
1.47417e-06
1.47417e-06
1.47417e-06
1.47919e-06
1.48105e-06
1.48042e-06
1.47787e-06
1.47417e-06
1.47417e-06
1.47417e-06
1.47417e-06
1.47909e-06
1.47899e-06
1.48095e-06
1.48063e-06
1.4787e-06
1.47906e-06
1.47927e-06
1.47926e-06
1.47918e-06
1.47898e-06
1.4809e-06
1.481e-06
1.4807e-06
1.47883e-06
1.48105e-06
1.48096e-06
1.46107e-06
1.46091e-06
1.46071e-06
1.45839e-06
1.45833e-06
1.45815e-06
1.45843e-06
1.46079e-06
1.46097e-06
1.46071e-06
1.45743e-06
1.45453e-06
1.45453e-06
1.45453e-06
1.45453e-06
1.45824e-06
1.45907e-06
1.45838e-06
1.45453e-06
1.45453e-06
1.45453e-06
1.45453e-06
1.45453e-06
1.45453e-06
1.45942e-06
1.46136e-06
1.46108e-06
1.45833e-06
1.45453e-06
1.45453e-06
1.45453e-06
1.45453e-06
1.45453e-06
1.45453e-06
1.45963e-06
1.46106e-06
1.46091e-06
1.45816e-06
1.45453e-06
1.45453e-06
1.45453e-06
1.45453e-06
1.45453e-06
1.45453e-06
1.45963e-06
1.4592e-06
1.45843e-06
1.45453e-06
1.45453e-06
1.45453e-06
1.45453e-06
1.45453e-06
1.45453e-06
1.45955e-06
1.46142e-06
1.46079e-06
1.45824e-06
1.45453e-06
1.45453e-06
1.45453e-06
1.45453e-06
1.45946e-06
1.45936e-06
1.46132e-06
1.461e-06
1.45906e-06
1.45942e-06
1.45963e-06
1.45963e-06
1.45955e-06
1.45935e-06
1.46127e-06
1.46136e-06
1.46106e-06
1.4592e-06
1.46142e-06
1.46132e-06
1.44144e-06
1.44128e-06
1.44107e-06
1.43875e-06
1.4387e-06
1.43852e-06
1.4388e-06
1.44115e-06
1.44134e-06
1.44108e-06
1.4378e-06
1.4349e-06
1.4349e-06
1.4349e-06
1.4349e-06
1.43861e-06
1.43944e-06
1.43875e-06
1.4349e-06
1.4349e-06
1.4349e-06
1.4349e-06
1.4349e-06
1.4349e-06
1.43979e-06
1.44173e-06
1.44145e-06
1.4387e-06
1.4349e-06
1.4349e-06
1.4349e-06
1.4349e-06
1.4349e-06
1.4349e-06
1.44e-06
1.44143e-06
1.44128e-06
1.43852e-06
1.4349e-06
1.4349e-06
1.4349e-06
1.4349e-06
1.4349e-06
1.4349e-06
1.43999e-06
1.43956e-06
1.43879e-06
1.4349e-06
1.4349e-06
1.4349e-06
1.4349e-06
1.4349e-06
1.4349e-06
1.43992e-06
1.44178e-06
1.44115e-06
1.4386e-06
1.4349e-06
1.4349e-06
1.4349e-06
1.4349e-06
1.43982e-06
1.43972e-06
1.44169e-06
1.44137e-06
1.43943e-06
1.43979e-06
1.44e-06
1.43999e-06
1.43992e-06
1.43971e-06
1.44163e-06
1.44173e-06
1.44143e-06
1.43956e-06
1.44178e-06
1.44169e-06
1.42181e-06
1.42165e-06
1.42144e-06
1.41912e-06
1.41907e-06
1.41889e-06
1.41916e-06
1.42152e-06
1.4217e-06
1.42145e-06
1.41816e-06
1.41527e-06
1.41527e-06
1.41527e-06
1.41527e-06
1.41898e-06
1.4198e-06
1.41912e-06
1.41527e-06
1.41527e-06
1.41527e-06
1.41527e-06
1.41527e-06
1.41527e-06
1.42016e-06
1.42209e-06
1.42181e-06
1.41906e-06
1.41527e-06
1.41527e-06
1.41527e-06
1.41527e-06
1.41527e-06
1.41527e-06
1.42037e-06
1.42179e-06
1.42164e-06
1.41889e-06
1.41527e-06
1.41527e-06
1.41527e-06
1.41527e-06
1.41527e-06
1.41527e-06
1.42036e-06
1.41993e-06
1.41916e-06
1.41527e-06
1.41527e-06
1.41527e-06
1.41527e-06
1.41527e-06
1.41527e-06
1.42029e-06
1.42215e-06
1.42152e-06
1.41897e-06
1.41527e-06
1.41527e-06
1.41527e-06
1.41527e-06
1.42019e-06
1.42009e-06
1.42205e-06
1.42173e-06
1.4198e-06
1.42016e-06
1.42036e-06
1.42036e-06
1.42028e-06
1.42008e-06
1.422e-06
1.42209e-06
1.42179e-06
1.41993e-06
1.42215e-06
1.42205e-06
1.40217e-06
1.40201e-06
1.4018e-06
1.39949e-06
1.39943e-06
1.39925e-06
1.39953e-06
1.40189e-06
1.40207e-06
1.40181e-06
1.39853e-06
1.39563e-06
1.39563e-06
1.39563e-06
1.39563e-06
1.39934e-06
1.40017e-06
1.39948e-06
1.39563e-06
1.39563e-06
1.39563e-06
1.39563e-06
1.39563e-06
1.39563e-06
1.40052e-06
1.40246e-06
1.40218e-06
1.39943e-06
1.39563e-06
1.39563e-06
1.39563e-06
1.39563e-06
1.39563e-06
1.39563e-06
1.40073e-06
1.40216e-06
1.40201e-06
1.39925e-06
1.39563e-06
1.39563e-06
1.39563e-06
1.39563e-06
1.39563e-06
1.39563e-06
1.40072e-06
1.4003e-06
1.39953e-06
1.39563e-06
1.39563e-06
1.39563e-06
1.39563e-06
1.39563e-06
1.39563e-06
1.40065e-06
1.40252e-06
1.40189e-06
1.39934e-06
1.39563e-06
1.39563e-06
1.39563e-06
1.39563e-06
1.40056e-06
1.40046e-06
1.40242e-06
1.4021e-06
1.40016e-06
1.40052e-06
1.40073e-06
1.40072e-06
1.40065e-06
1.40045e-06
1.40236e-06
1.40246e-06
1.40216e-06
1.4003e-06
1.40251e-06
1.40242e-06
1.38254e-06
1.38238e-06
1.38217e-06
1.37985e-06
1.3798e-06
1.37962e-06
1.37989e-06
1.38225e-06
1.38244e-06
1.38218e-06
1.3789e-06
1.376e-06
1.376e-06
1.376e-06
1.376e-06
1.37971e-06
1.38054e-06
1.37985e-06
1.376e-06
1.376e-06
1.376e-06
1.376e-06
1.376e-06
1.376e-06
1.38089e-06
1.38283e-06
1.38254e-06
1.3798e-06
1.376e-06
1.376e-06
1.376e-06
1.376e-06
1.376e-06
1.376e-06
1.3811e-06
1.38253e-06
1.38238e-06
1.37962e-06
1.376e-06
1.376e-06
1.376e-06
1.376e-06
1.376e-06
1.376e-06
1.38109e-06
1.38066e-06
1.37989e-06
1.376e-06
1.376e-06
1.376e-06
1.376e-06
1.376e-06
1.376e-06
1.38102e-06
1.38288e-06
1.38225e-06
1.3797e-06
1.376e-06
1.376e-06
1.376e-06
1.376e-06
1.38092e-06
1.38082e-06
1.38279e-06
1.38247e-06
1.38053e-06
1.38089e-06
1.3811e-06
1.38109e-06
1.38101e-06
1.38081e-06
1.38273e-06
1.38283e-06
1.38253e-06
1.38066e-06
1.38288e-06
1.38279e-06
1.36291e-06
1.36275e-06
1.36254e-06
1.36022e-06
1.36016e-06
1.35999e-06
1.36026e-06
1.36262e-06
1.3628e-06
1.36254e-06
1.35926e-06
1.35637e-06
1.35637e-06
1.35637e-06
1.35637e-06
1.36008e-06
1.3609e-06
1.36021e-06
1.35637e-06
1.35637e-06
1.35637e-06
1.35637e-06
1.35637e-06
1.35637e-06
1.36126e-06
1.36319e-06
1.36291e-06
1.36016e-06
1.35637e-06
1.35637e-06
1.35637e-06
1.35637e-06
1.35637e-06
1.35637e-06
1.36147e-06
1.36289e-06
1.36274e-06
1.35999e-06
1.35637e-06
1.35637e-06
1.35637e-06
1.35637e-06
1.35637e-06
1.35637e-06
1.36146e-06
1.36103e-06
1.36026e-06
1.35637e-06
1.35637e-06
1.35637e-06
1.35637e-06
1.35637e-06
1.35637e-06
1.36138e-06
1.36325e-06
1.36262e-06
1.36007e-06
1.35637e-06
1.35637e-06
1.35637e-06
1.35637e-06
1.36129e-06
1.36119e-06
1.36315e-06
1.36283e-06
1.3609e-06
1.36126e-06
1.36146e-06
1.36146e-06
1.36138e-06
1.36118e-06
1.3631e-06
1.36319e-06
1.36289e-06
1.36103e-06
1.36325e-06
1.36315e-06
1.34327e-06
1.34311e-06
1.3429e-06
1.34059e-06
1.34053e-06
1.34035e-06
1.34063e-06
1.34298e-06
1.34317e-06
1.34291e-06
1.33963e-06
1.33673e-06
1.33673e-06
1.33673e-06
1.33673e-06
1.34044e-06
1.34127e-06
1.34058e-06
1.33673e-06
1.33673e-06
1.33673e-06
1.33673e-06
1.33673e-06
1.33673e-06
1.34162e-06
1.34356e-06
1.34328e-06
1.34053e-06
1.33673e-06
1.33673e-06
1.33673e-06
1.33673e-06
1.33673e-06
1.33673e-06
1.34183e-06
1.34326e-06
1.34311e-06
1.34035e-06
1.33673e-06
1.33673e-06
1.33673e-06
1.33673e-06
1.33673e-06
1.33673e-06
1.34182e-06
1.3414e-06
1.34063e-06
1.33673e-06
1.33673e-06
1.33673e-06
1.33673e-06
1.33673e-06
1.33673e-06
1.34175e-06
1.34362e-06
1.34299e-06
1.34044e-06
1.33673e-06
1.33673e-06
1.33673e-06
1.33673e-06
1.34166e-06
1.34156e-06
1.34352e-06
1.3432e-06
1.34126e-06
1.34162e-06
1.34183e-06
1.34182e-06
1.34175e-06
1.34154e-06
1.34346e-06
1.34356e-06
1.34326e-06
1.3414e-06
1.34361e-06
1.34352e-06
1.32364e-06
1.32348e-06
1.32327e-06
1.32095e-06
1.3209e-06
1.32072e-06
1.32099e-06
1.32335e-06
1.32354e-06
1.32328e-06
1.32e-06
1.3171e-06
1.3171e-06
1.3171e-06
1.3171e-06
1.32081e-06
1.32164e-06
1.32095e-06
1.3171e-06
1.3171e-06
1.3171e-06
1.3171e-06
1.3171e-06
1.3171e-06
1.32199e-06
1.32393e-06
1.32364e-06
1.3209e-06
1.3171e-06
1.3171e-06
1.3171e-06
1.3171e-06
1.3171e-06
1.3171e-06
1.3222e-06
1.32363e-06
1.32348e-06
1.32072e-06
1.3171e-06
1.3171e-06
1.3171e-06
1.3171e-06
1.3171e-06
1.3171e-06
1.32219e-06
1.32176e-06
1.32099e-06
1.3171e-06
1.3171e-06
1.3171e-06
1.3171e-06
1.3171e-06
1.3171e-06
1.32212e-06
1.32398e-06
1.32335e-06
1.3208e-06
1.3171e-06
1.3171e-06
1.3171e-06
1.3171e-06
1.32202e-06
1.32192e-06
1.32389e-06
1.32356e-06
1.32163e-06
1.32199e-06
1.3222e-06
1.32219e-06
1.32212e-06
1.32191e-06
1.32383e-06
1.32393e-06
1.32363e-06
1.32176e-06
1.32398e-06
1.32389e-06
1.30401e-06
1.30385e-06
1.30364e-06
1.30132e-06
1.30127e-06
1.30109e-06
1.30136e-06
1.30372e-06
1.3039e-06
1.30365e-06
1.30036e-06
1.29747e-06
1.29747e-06
1.29747e-06
1.29747e-06
1.30118e-06
1.302e-06
1.30132e-06
1.29747e-06
1.29747e-06
1.29747e-06
1.29747e-06
1.29747e-06
1.29747e-06
1.30236e-06
1.30429e-06
1.30401e-06
1.30126e-06
1.29747e-06
1.29747e-06
1.29747e-06
1.29747e-06
1.29747e-06
1.29747e-06
1.30257e-06
1.304e-06
1.30384e-06
1.30109e-06
1.29747e-06
1.29747e-06
1.29747e-06
1.29747e-06
1.29747e-06
1.29747e-06
1.30256e-06
1.30213e-06
1.30136e-06
1.29747e-06
1.29747e-06
1.29747e-06
1.29747e-06
1.29747e-06
1.29747e-06
1.30249e-06
1.30435e-06
1.30372e-06
1.30117e-06
1.29747e-06
1.29747e-06
1.29747e-06
1.29747e-06
1.30239e-06
1.30229e-06
1.30425e-06
1.30393e-06
1.302e-06
1.30236e-06
1.30256e-06
1.30256e-06
1.30248e-06
1.30228e-06
1.3042e-06
1.3043e-06
1.304e-06
1.30213e-06
1.30435e-06
1.30425e-06
1.28438e-06
1.28421e-06
1.28401e-06
1.28169e-06
1.28163e-06
1.28145e-06
1.28173e-06
1.28409e-06
1.28427e-06
1.28401e-06
1.28073e-06
1.27783e-06
1.27783e-06
1.27783e-06
1.27783e-06
1.28155e-06
1.28237e-06
1.28168e-06
1.27783e-06
1.27783e-06
1.27783e-06
1.27783e-06
1.27783e-06
1.27783e-06
1.28273e-06
1.28466e-06
1.28438e-06
1.28163e-06
1.27783e-06
1.27783e-06
1.27783e-06
1.27783e-06
1.27783e-06
1.27783e-06
1.28293e-06
1.28436e-06
1.28421e-06
1.28146e-06
1.27783e-06
1.27783e-06
1.27783e-06
1.27783e-06
1.27783e-06
1.27783e-06
1.28293e-06
1.2825e-06
1.28173e-06
1.27783e-06
1.27783e-06
1.27783e-06
1.27783e-06
1.27783e-06
1.27783e-06
1.28285e-06
1.28472e-06
1.28409e-06
1.28154e-06
1.27783e-06
1.27783e-06
1.27783e-06
1.27783e-06
1.28276e-06
1.28266e-06
1.28462e-06
1.2843e-06
1.28236e-06
1.28272e-06
1.28293e-06
1.28292e-06
1.28285e-06
1.28265e-06
1.28457e-06
1.28466e-06
1.28436e-06
1.2825e-06
1.28472e-06
1.28462e-06
1.26474e-06
1.26458e-06
1.26437e-06