/*--------------------------------*- C++ -*----------------------------------*\
| =========                 |                                                 |
| \\      /  F ield         | OpenFOAM: The Open Source CFD Toolbox           |
|  \\    /   O peration     | Version:  v2006                                 |
|   \\  /    A nd           | Website:  www.openfoam.com                      |
|    \\/     M anipulation  |                                                 |
\*---------------------------------------------------------------------------*/
FoamFile
{
    version     2.0;
    format      ascii;
    class       volScalarField;
    location    "1000";
    object      nut;
}
// * * * * * * * * * * * * * * * * * * * * * * * * * * * * * * * * * * * * * //

dimensions      [0 2 -1 0 0 0 0];


internalField   nonuniform List<scalar> 
42840
(
0.000134182
0.000157567
0.000127739
0.000129394
0.000121672
0.000162949
0.000142061
0.000136764
0.000118667
0.000139664
0.00016487
0.000161572
0.000135662
0.000141237
0.000163456
0.000144085
0.000158125
0.000167883
0.000150847
0.000142319
0.000152004
0.000158414
0.000147201
0.000147092
0.000140263
0.000153221
0.000158733
0.000158999
0.00013815
0.000164185
0.000172469
0.000159745
0.000149717
0.000170715
0.000169876
0.000155242
0.000160834
0.000169417
0.000165311
0.000156233
0.000163972
0.000168411
0.000167996
0.00016129
0.00016284
0.000172815
0.000175977
0.000165093
0.000166486
0.000177407
0.000177835
0.000165534
0.000171238
0.000180397
0.000178847
0.000165939
0.000174321
0.000181638
0.000181195
0.000168357
0.000176215
0.00018235
0.000182988
0.000169846
0.000180095
0.000184764
0.000185102
0.000171253
0.000184053
0.000187984
0.000187539
0.00017209
0.000188059
0.000189583
0.000189781
0.000175052
0.00019101
0.000191035
0.000191083
0.000175126
0.000192858
0.000193099
0.000193003
0.000176699
0.000195984
0.000195061
0.000195179
0.000178397
0.00019862
0.000195876
0.000195796
0.00017865
0.000201732
0.00019787
0.000197798
0.000179603
0.000205
0.000200555
0.000200669
0.000182292
0.000207595
0.000201005
0.000201192
0.000182295
0.000144012
0.000149765
0.000150298
0.000151869
0.000149821
0.000128201
0.000151018
0.000142631
0.000118921
0.000128098
0.00014273
0.000132162
0.000142729
0.000131809
0.000147025
0.000157679
0.000139201
0.000164618
0.000156156
0.000167067
0.000146407
0.000127697
0.000136807
0.000137043
0.000138929
0.000163279
0.000137029
0.000119924
0.00013863
0.000138197
0.000134957
0.000135788
0.00013104
0.000131002
0.000129171
0.000137419
0.000164295
0.000136462
0.000144788
0.000166075
0.000129331
0.000135474
0.000144088
0.000135109
0.000160777
0.000138499
0.000145108
0.000159897
0.000143048
0.0001591
0.000136551
0.00016164
0.000159572
0.000161501
0.000129631
0.000153762
0.000136668
0.00013873
0.00014911
0.000136705
0.000125782
0.000133936
0.000135729
0.000163379
0.000153516
0.000162976
0.00016075
0.000137813
0.000154631
0.000160195
0.000158434
0.000161409
0.000164682
0.000157426
0.000145569
0.000158619
0.000169718
0.000158622
0.000140325
0.000172209
0.000168021
0.000141109
0.000168058
0.000162147
0.000161793
0.000172132
0.000155109
0.000151653
0.000166405
0.000148492
0.000157555
0.00014557
0.000153588
0.000153859
0.000149327
0.000141901
0.000168359
0.000149635
0.000172317
0.000169622
0.000163355
0.000164509
0.000168127
0.000149813
0.000172054
0.000152221
0.000161621
0.000148122
0.000148636
0.000163249
0.000153162
0.000144087
0.000138651
0.000148869
0.000147268
0.000150961
0.000145838
0.000148388
0.000147141
0.000159273
0.000159014
0.000154246
0.00015359
0.000147099
0.000143475
0.000158058
0.000148049
0.000153867
0.000151832
0.00015498
0.000153843
0.000161974
0.000138623
0.000149896
0.000152989
0.000152543
0.000161841
0.000157454
0.000147515
0.000149681
0.000153749
0.0001529
0.000155819
0.000159301
0.000144636
0.000155421
0.000153416
0.000157739
0.000156742
0.000170613
0.000164202
0.000159972
0.000167434
0.000153394
0.000164882
0.000164706
0.000171497
0.000168317
0.000160223
0.000150145
0.000155644
0.000157311
0.000163475
0.000163297
0.000169853
0.000157627
0.000161843
0.000158253
0.000171775
0.000163768
0.00017125
0.000167346
0.000170508
0.000165826
0.000164987
0.000160563
0.00016817
0.000171723
0.00016613
0.000155445
0.000157278
0.000163299
0.000165797
0.000170363
0.000172328
0.000170346
0.000161757
0.000160078
0.000166066
0.000169687
0.000171944
0.00016613
0.000165298
0.000169857
0.000164505
0.000159734
0.000155083
0.000165415
0.000165712
0.000164439
0.000155542
0.00016353
0.000162581
0.000173372
0.000170049
0.000173542
0.000169114
0.000159857
0.000158438
0.000172923
0.000165732
0.000173179
0.000166001
0.000165407
0.000168532
0.000169888
0.000154864
0.000157609
0.000164816
0.000165449
0.000169487
0.000160679
0.00016239
0.000161572
0.000173194
0.000168882
0.000172315
0.000171235
0.000158336
0.000161272
0.000172962
0.000168347
0.000172264
0.000174405
0.000171015
0.000171545
0.000174628
0.000158951
0.000164715
0.000170839
0.000174593
0.000174882
0.000164651
0.000161672
0.000164715
0.000172185
0.000172425
0.000175295
0.000175868
0.000162002
0.000165229
0.000172409
0.000175656
0.000175653
0.000177385
0.000175677
0.000176235
0.000177151
0.000165207
0.000165967
0.000175991
0.000177762
0.000177455
0.00016566
0.000165343
0.00016731
0.000176635
0.000177189
0.000179184
0.000180175
0.000165781
0.000168183
0.000176843
0.000177592
0.000178999
0.00017848
0.000177197
0.00018003
0.000177725
0.000165905
0.000166416
0.000177398
0.000178333
0.000177528
0.000165706
0.000167369
0.000167928
0.000179575
0.000180552
0.000180754
0.000181275
0.000168266
0.000168626
0.000179372
0.000179004
0.000180703
0.000180734
0.000178329
0.000181249
0.000180714
0.000166623
0.00016826
0.000178125
0.000180711
0.000180664
0.000168102
0.000167979
0.000168579
0.00018111
0.000181634
0.000181691
0.000182222
0.000168627
0.00016889
0.000181069
0.000181193
0.000181642
0.000182422
0.000181288
0.000182275
0.000182457
0.00016842
0.000169345
0.000181246
0.000182468
0.000182419
0.000169601
0.00016869
0.000170784
0.000182053
0.000182269
0.000184287
0.000183656
0.000168833
0.000170223
0.000182066
0.000182903
0.000184462
0.00018444
0.000183062
0.000183831
0.000185145
0.000169488
0.000170743
0.000183088
0.000184624
0.00018529
0.000171214
0.000171164
0.000172707
0.000185072
0.000184617
0.000186971
0.00018747
0.000170758
0.000173372
0.000185207
0.000184945
0.000186897
0.000186902
0.000185456
0.000187375
0.000186017
0.000170944
0.000172754
0.000185592
0.000186812
0.000185915
0.000171763
0.000172942
0.000174852
0.000187653
0.000188123
0.00018966
0.000189211
0.000173549
0.000174206
0.000187567
0.000187676
0.000189666
0.000189363
0.000186705
0.000189252
0.000189658
0.000173099
0.000174429
0.000186611
0.000189394
0.000189658
0.000174902
0.000175
0.000175674
0.000190156
0.00018946
0.000191333
0.00019059
0.000174208
0.000174958
0.000190183
0.000189672
0.000191359
0.000190683
0.000190309
0.00019062
0.000190909
0.000174461
0.000175027
0.000190328
0.00019071
0.000190942
0.000175222
0.000175657
0.000176204
0.000191618
0.00019109
0.000192155
0.000192561
0.000175107
0.00017675
0.000191638
0.000191141
0.000192152
0.000192486
0.000190989
0.000192537
0.00019225
0.000175103
0.000176682
0.00019102
0.000192467
0.000192244
0.000176336
0.000176312
0.000177853
0.000192481
0.00019306
0.000194307
0.000194596
0.00017698
0.000178095
0.00019247
0.000192961
0.000194318
0.000194661
0.00019288
0.000194666
0.000194676
0.000176922
0.000178187
0.000192867
0.000194738
0.000194694
0.000178314
0.000177979
0.000178542
0.000194881
0.000195006
0.000195634
0.00019557
0.000178104
0.000178445
0.000194908
0.000195111
0.000195681
0.000195622
0.000195211
0.00019568
0.000196061
0.000178203
0.000178369
0.000195243
0.0001957
0.000196094
0.000178758
0.00017853
0.000180106
0.000195835
0.00019575
0.000197446
0.000197233
0.000178427
0.00017988
0.000195855
0.000195718
0.000197424
0.000197049
0.000196138
0.000197214
0.00019674
0.000178275
0.000179726
0.000196167
0.000197055
0.000196701
0.000179261
0.000180482
0.000182095
0.000198098
0.000197922
0.000199893
0.000199991
0.000180287
0.000182219
0.000198084
0.000197833
0.000199898
0.000200059
0.000197384
0.000199948
0.000199647
0.000180205
0.000182344
0.000197357
0.000200023
0.000199658
0.000182098
0.000182151
0.000182061
0.000200479
0.000200562
0.000201043
0.000201021
0.000182267
0.000182028
0.00020049
0.000200676
0.000201076
0.000201206
0.000200433
0.000201087
0.000201397
0.000182415
0.000182202
0.000200447
0.000201269
0.000201431
0.000182478
0.000181877
0.000200964
0.000200919
0.000181851
0.000201003
0.000201108
0.000201353
0.000182013
0.000201392
9.25272e-05
5.00244e-05
2.36538e-05
9.16946e-05
5.00203e-05
0.000136068
0.000122052
0.000114074
0.000132088
0.000124459
0.000132735
9.45166e-05
0.000129462
2.34589e-05
0.000121892
0.000130758
0.00013641
8.84816e-05
0.000146893
7.20573e-05
7.20097e-05
9.45709e-05
5.01025e-05
9.34097e-05
5.01248e-05
2.38911e-05
2.39029e-05
9.25511e-05
4.99978e-05
9.18086e-05
4.99915e-05
0.000134136
0.000113282
0.000128337
0.000124568
0.000147544
0.000113192
0.000124938
0.000122023
9.7413e-05
0.000145552
0.000161442
0.000122419
0.000100709
0.000147702
2.36062e-05
2.36652e-05
0.000118387
0.000133257
8.94275e-05
0.000127691
0.000118554
0.000132768
9.21735e-05
6.84973e-05
6.77335e-05
0.000126681
6.94872e-05
6.81926e-05
9.16994e-05
4.99344e-05
9.41542e-05
4.97655e-05
2.35225e-05
2.33312e-05
9.28229e-05
4.98899e-05
9.28777e-05
4.98684e-05
0.000147596
0.000117351
0.000123614
0.000118812
0.000138208
0.000140823
0.000135525
0.000127517
0.000100684
0.000149478
0.000161176
0.000126874
9.39635e-05
0.000149091
2.36919e-05
2.36995e-05
0.000127222
0.000132608
9.67897e-05
0.000149369
0.000123019
0.00013672
9.8958e-05
7.76873e-05
7.73209e-05
0.00015295
7.88284e-05
7.92274e-05
9.03045e-05
4.97926e-05
8.96752e-05
5.01513e-05
2.34059e-05
2.36567e-05
9.34253e-05
5.00042e-05
9.28107e-05
5.0245e-05
0.000131385
0.000147138
0.000141061
0.000125823
0.000125913
0.00015225
0.000143566
0.000121826
8.73121e-05
0.00014611
0.000137918
0.000123617
8.78448e-05
0.000144644
2.37275e-05
2.37342e-05
0.000128999
0.000154977
9.99522e-05
0.000165874
0.000129607
0.000158485
9.96206e-05
7.51963e-05
7.66176e-05
0.000156394
7.33291e-05
7.42351e-05
9.80927e-05
5.058e-05
9.63819e-05
5.06004e-05
2.39038e-05
2.38919e-05
9.63973e-05
5.04959e-05
9.58483e-05
5.04962e-05
0.000125208
0.000150956
0.000142362
0.000156509
0.000142183
0.000143655
0.000136088
0.000128702
9.88523e-05
0.000143559
0.000152476
0.000123853
0.000102371
0.000143641
2.37012e-05
2.36377e-05
0.000126957
0.000159096
9.78201e-05
0.000161024
0.000127259
0.00015788
9.68777e-05
7.384e-05
7.35025e-05
0.000141889
7.4786e-05
7.39737e-05
9.47991e-05
5.0247e-05
9.72412e-05
5.00526e-05
2.36496e-05
2.35623e-05
9.40132e-05
5.02011e-05
9.54991e-05
5.00595e-05
0.000148579
0.000139823
0.000134932
0.000155746
0.000152063
0.000132691
0.000133594
0.000131392
0.000101414
0.000158735
0.000167956
0.000132015
9.75941e-05
0.000160934
2.35336e-05
2.35275e-05
0.000127197
0.000151999
9.44267e-05
0.000148683
0.000127418
0.000150724
9.34802e-05
7.43801e-05
7.34947e-05
0.000143431
7.33408e-05
7.3016e-05
9.27373e-05
4.99957e-05
9.26619e-05
5.00837e-05
2.35596e-05
2.36217e-05
9.32813e-05
5.00273e-05
9.29334e-05
5.01059e-05
0.000151055
0.000132089
0.000135186
0.000142076
0.000143595
0.000131762
0.000144479
0.000126725
9.4037e-05
0.00016088
0.000155398
0.000127361
9.39533e-05
0.000159238
2.36164e-05
2.36996e-05
0.000126646
0.000149323
9.35072e-05
0.000147397
0.000126435
0.000149291
9.55773e-05
7.35231e-05
7.40948e-05
0.000150936
7.57001e-05
7.6191e-05
9.5315e-05
5.02027e-05
9.45358e-05
5.02234e-05
2.36956e-05
2.37192e-05
9.57594e-05
5.02059e-05
9.50828e-05
5.0224e-05
0.000142329
0.000135255
0.000147518
0.000137888
0.000140508
0.000152915
0.000153489
0.000130463
9.65849e-05
0.000156529
0.000153185
0.000128279
9.82903e-05
0.000155882
2.37681e-05
2.37712e-05
0.000132464
0.000155916
9.95239e-05
0.000164386
0.000130227
0.000159873
0.000100898
7.73981e-05
7.75811e-05
0.000160684
7.73744e-05
7.74901e-05
9.59324e-05
5.02305e-05
9.57936e-05
5.02689e-05
2.37295e-05
2.37327e-05
9.59946e-05
5.02311e-05
9.60192e-05
5.02632e-05
0.000143074
0.000157015
0.000154627
0.000146677
0.000155092
0.000160772
0.000155339
0.000132788
9.95239e-05
0.000162102
0.000167449
0.000132552
9.96726e-05
0.000165719
2.3733e-05
2.37084e-05
0.000133349
0.000170011
0.000100907
0.000172489
0.000133586
0.000171487
9.99843e-05
7.56786e-05
7.56908e-05
0.000157421
7.50666e-05
7.502e-05
9.65723e-05
5.03586e-05
9.6233e-05
5.03787e-05
2.37301e-05
2.37201e-05
9.61343e-05
5.03397e-05
9.59648e-05
5.0361e-05
0.000157199
0.000160127
0.000154741
0.000158493
0.000159341
0.000156296
0.000152625
0.0001324
9.94542e-05
0.000169991
0.000170535
0.000132447
9.93212e-05
0.000169877
2.36713e-05
2.36682e-05
0.000131516
0.000170836
9.81444e-05
0.000167838
0.000131894
0.000169891
9.75796e-05
7.49686e-05
7.48085e-05
0.000154798
7.53694e-05
7.51727e-05
9.64835e-05
5.0364e-05
9.66123e-05
5.03441e-05
2.36961e-05
2.36968e-05
9.63803e-05
5.03542e-05
9.63339e-05
5.03412e-05
0.000159276
0.000155178
0.000152196
0.000164012
0.000157811
0.000153006
0.000156145
0.000133252
9.88075e-05
0.000170118
0.000169059
0.000132871
9.86183e-05
0.000170442
2.36868e-05
2.37149e-05
0.000132447
0.00016737
9.74645e-05
0.000164922
0.000131658
0.000166845
9.82119e-05
7.56989e-05
7.55759e-05
0.000158243
7.58836e-05
7.59072e-05
9.63936e-05
5.03345e-05
9.6295e-05
5.03457e-05
2.37132e-05
2.37271e-05
9.67157e-05
5.03379e-05
9.64847e-05
5.0351e-05
0.000157444
0.00015313
0.000157907
0.000162936
0.000159695
0.000161453
0.00016322
0.000133988
9.86527e-05
0.000171178
0.000168862
0.000133491
9.92517e-05
0.00017184
2.37438e-05
2.37522e-05
0.000134853
0.000169767
9.95633e-05
0.000170535
0.000133805
0.000171929
0.000100297
7.64298e-05
7.65451e-05
0.000162699
7.67593e-05
7.68525e-05
9.7109e-05
5.03782e-05
9.68055e-05
5.04101e-05
2.37439e-05
2.37574e-05
9.71799e-05
5.03787e-05
9.70302e-05
5.04031e-05
0.000161059
0.000163938
0.000164934
0.000165019
0.00016541
0.000168698
0.00016854
0.000135821
9.98746e-05
0.000175488
0.000173979
0.000135182
0.000100243
0.000176768
2.37519e-05
2.37512e-05
0.000136214
0.000177632
0.000100632
0.000176932
0.000135933
0.000179034
0.000100594
7.68632e-05
7.69222e-05
0.000165584
7.66851e-05
7.66855e-05
9.76706e-05
5.04432e-05
9.74634e-05
5.04509e-05
2.37701e-05
2.37737e-05
9.74865e-05
5.04321e-05
9.73457e-05
5.04412e-05
0.000167104
0.000169453
0.000169066
0.000170417
0.000171921
0.000170782
0.00016977
0.00013657
0.000100661
0.000180093
0.000178514
0.000136257
0.000100975
0.000181102
2.37538e-05
2.37609e-05
0.000136231
0.000181132
0.00010038
0.000177871
0.000136207
0.000181283
0.000100419
7.64632e-05
7.64043e-05
0.000165417
7.64885e-05
7.64232e-05
9.77629e-05
5.0455e-05
9.77381e-05
5.04622e-05
2.3775e-05
2.3776e-05
9.77176e-05
5.04477e-05
9.76158e-05
5.04551e-05
0.000172902
0.000171322
0.000170229
0.000173543
0.00017455
0.000173524
0.000173155
0.000137408
0.000101088
0.000183308
0.000180644
0.000137064
0.000101104
0.000183822
2.37685e-05
2.37716e-05
0.00013719
0.000182076
0.000100716
0.00017948
0.000136622
0.000182784
0.000100962
7.67276e-05
7.66933e-05
0.000166856
7.68066e-05
7.67869e-05
9.77974e-05
5.04653e-05
9.77814e-05
5.04648e-05
2.37708e-05
2.37682e-05
9.78312e-05
5.04607e-05
9.78013e-05
5.04633e-05
0.000175132
0.000174275
0.000174218
0.000175755
0.000176691
0.000176324
0.000176311
0.000137973
0.000101117
0.00018565
0.000181977
0.000137766
0.000101075
0.000186249
2.37748e-05
2.37778e-05
0.000137977
0.000185303
0.000101068
0.00018161
0.000137754
0.00018591
0.000101145
7.68143e-05
7.68076e-05
0.000168894
7.69218e-05
7.69451e-05
9.79331e-05
5.04816e-05
9.78055e-05
5.05098e-05
2.37745e-05
2.37902e-05
9.8033e-05
5.04826e-05
9.78862e-05
5.05058e-05
0.000176979
0.000177061
0.000177015
0.000178978
0.00017848
0.000179541
0.000180156
0.000138378
0.000100943
0.000187329
0.000182576
0.000138148
0.000101055
0.000187716
2.37806e-05
2.37851e-05
0.00013867
0.000187476
0.000101281
0.00018355
0.000138305
0.000188215
0.000101368
7.70862e-05
7.71221e-05
0.000170539
7.70991e-05
7.7123e-05
9.85432e-05
5.05351e-05
9.83027e-05
5.05471e-05
2.38088e-05
2.3815e-05
9.84258e-05
5.05254e-05
9.82763e-05
5.05374e-05
0.000179492
0.000180348
0.000181089
0.000183043
0.000183201
0.000182938
0.000182525
0.000139383
0.000101608
0.000189954
0.000185733
0.000138915
0.000102013
0.000190843
2.37993e-05
2.3812e-05
0.000139215
0.000190533
0.000101451
0.000185591
0.000139024
0.000191074
0.000101726
7.68808e-05
7.68434e-05
0.000171412
7.68893e-05
7.68489e-05
9.88143e-05
5.05757e-05
9.87041e-05
5.0591e-05
2.38153e-05
2.38149e-05
9.88535e-05
5.05723e-05
9.86441e-05
5.05883e-05
0.000184318
0.000183945
0.00018311
0.000187182
0.000186884
0.00018685
0.00018663
0.000140464
0.000102255
0.000193125
0.000188478
0.000139972
0.000102293
0.000193866
2.38179e-05
2.38176e-05
0.00014046
0.000192733
0.000102218
0.000188255
0.000139737
0.000193564
0.000102404
7.74722e-05
7.74705e-05
0.000173403
7.76435e-05
7.76518e-05
9.88826e-05
5.05938e-05
9.8862e-05
5.05932e-05
2.38154e-05
2.38194e-05
9.88929e-05
5.05898e-05
9.89017e-05
5.05875e-05
0.000187543
0.000187606
0.000187895
0.000190319
0.000189487
0.000189591
0.000190007
0.000140908
0.0001022
0.000196051
0.000189909
0.000140834
0.000102201
0.000196621
2.38146e-05
2.3817e-05
0.000140965
0.00019612
0.00010227
0.000190094
0.00014091
0.000196716
0.000102212
7.74336e-05
7.7437e-05
0.000175298
7.72433e-05
7.72359e-05
9.89791e-05
5.05983e-05
9.89021e-05
5.06129e-05
2.3831e-05
2.38431e-05
9.89483e-05
5.05916e-05
9.8875e-05
5.06066e-05
0.000190219
0.000190323
0.000190391
0.00019247
0.000192512
0.000192528
0.000192298
0.000141127
0.000102277
0.000197892
0.000191498
0.000140961
0.00010253
0.000198334
2.3828e-05
2.38413e-05
0.000141089
0.000197956
0.000102231
0.000191512
0.000140949
0.000198383
0.000102488
7.72084e-05
7.71926e-05
0.000175309
7.74569e-05
7.74394e-05
9.94063e-05
5.065e-05
9.92107e-05
5.0662e-05
2.38524e-05
2.38528e-05
9.9424e-05
5.06458e-05
9.92113e-05
5.06585e-05
0.000193255
0.000193201
0.00019307
0.000195018
0.000195589
0.00019556
0.000195471
0.000142356
0.000102934
0.000200086
0.000193663
0.000141776
0.000103121
0.000200772
2.38533e-05
2.38539e-05
0.000142371
0.000200018
0.00010294
0.00019359
0.000141749
0.000200686
0.000103168
7.77694e-05
7.77699e-05
0.000177553
7.78487e-05
7.78546e-05
9.93166e-05
5.06506e-05
9.93955e-05
5.06408e-05
2.38427e-05
2.38425e-05
9.93134e-05
5.06465e-05
9.94143e-05
5.06353e-05
0.000196366
0.000196418
0.000196369
0.00019811
0.000198155
0.000198226
0.000198633
0.000142654
0.000103016
0.000202775
0.000195363
0.000142619
0.000102873
0.000203317
2.38407e-05
2.38388e-05
0.00014269
0.000202841
0.000103077
0.000195474
0.000142663
0.000203433
0.000102857
7.77744e-05
7.77801e-05
0.000178693
7.75555e-05
7.75468e-05
9.93276e-05
5.06535e-05
9.92067e-05
5.0695e-05
2.38549e-05
2.38737e-05
9.92911e-05
5.0647e-05
9.91757e-05
5.06888e-05
0.000198657
0.000198603
0.000199064
0.000200849
0.000200673
0.000200489
0.000200428
0.000142617
0.000102754
0.000204387
0.000196211
0.000142535
0.00010294
0.000204713
2.38516e-05
2.38721e-05
0.000142537
0.000204337
0.000102666
0.000195974
0.00014247
0.000204574
0.000102859
7.73772e-05
7.73575e-05
0.000178773
7.74821e-05
7.74652e-05
0.000100122
5.07409e-05
9.98746e-05
5.07507e-05
2.3891e-05
2.38934e-05
0.000100126
5.07357e-05
9.98639e-05
5.07459e-05
0.000201508
0.000201392
0.000201139
0.000204148
0.000204123
0.000204166
0.00020371
0.000143967
0.000103597
0.000206202
0.000198553
0.000143172
0.000103957
0.000206889
2.38905e-05
2.38934e-05
0.000143985
0.000206125
0.000103607
0.00019855
0.000143152
0.000206865
0.000103986
7.8041e-05
7.80375e-05
0.000180781
7.82413e-05
7.824e-05
0.000100008
5.0741e-05
0.000100105
5.07224e-05
2.38806e-05
2.38731e-05
0.000100025
5.07372e-05
0.000100121
5.07181e-05
0.000205025
0.000205104
0.000204733
0.000207212
0.000207225
0.000207431
0.000207501
0.000144566
0.000104017
0.000209132
0.00020093
0.000144484
0.000103782
0.000209934
2.3882e-05
2.38733e-05
0.000144612
0.000209187
0.000104066
0.000201078
0.000144527
0.000209983
0.000103864
7.82352e-05
7.82379e-05
0.000182677
7.79874e-05
7.79874e-05
9.96226e-05
5.07148e-05
9.96482e-05
5.0745e-05
2.38796e-05
2.38977e-05
9.9614e-05
5.07091e-05
9.96468e-05
5.07392e-05
0.000207597
0.000207839
0.000208031
0.000143942
0.000103255
0.000211199
0.000200834
0.000144155
0.000103239
0.000211138
2.38771e-05
2.38952e-05
0.000143948
0.000211333
0.000103271
0.000200979
0.000144194
0.000211296
0.000103229
7.76444e-05
7.76327e-05
0.000181971
7.76736e-05
7.76571e-05
2.36312e-05
2.3615e-05
0.000150747
7.49111e-05
7.45562e-05
2.36291e-05
2.36283e-05
2.35994e-05
2.36075e-05
0.000149716
7.40682e-05
7.35445e-05
7.45757e-05
7.4217e-05
9.25845e-05
5.01265e-05
0.000123664
0.000152097
9.59803e-05
0.000139111
0.000123433
0.000131355
9.41859e-05
0.000127735
9.25174e-05
5.00831e-05
5.00237e-05
9.28694e-05
9.2591e-05
5.0359e-05
5.01732e-05
9.31006e-05
0.000123569
0.000151206
9.47464e-05
0.000144236
9.54807e-05
0.000142302
0.000123375
0.000123479
0.000140994
9.74233e-05
0.000140423
9.43517e-05
0.000134645
0.000123512
0.000137676
7.28204e-05
7.26203e-05
2.3622e-05
2.38626e-05
2.36987e-05
0.000140836
7.74169e-05
7.60582e-05
7.28959e-05
7.26248e-05
2.38119e-05
2.36596e-05
0.000122143
0.000153203
9.5476e-05
0.000144222
9.14333e-05
4.97866e-05
0.000121038
0.000130378
0.000136102
8.84654e-05
9.16155e-05
4.99996e-05
5.00093e-05
9.16491e-05
0.000121696
0.000151975
9.39253e-05
0.000142885
9.49112e-05
0.000143827
0.000121209
9.13707e-05
4.99384e-05
4.98067e-05
9.14763e-05
0.000120672
0.000128658
0.000134628
8.99369e-05
0.000135394
8.84579e-05
0.000120366
9.23343e-05
5.0088e-05
0.000124525
0.000149429
0.000139835
9.42005e-05
9.22084e-05
4.9787e-05
0.000123781
0.000142271
9.59674e-05
0.000142111
9.454e-05
0.000136606
0.00012253
9.19823e-05
5.01901e-05
5.00907e-05
9.16882e-05
0.000123616
0.000147909
0.000141651
8.94631e-05
0.000141233
9.25519e-05
0.000121662
9.18174e-05
4.9794e-05
4.97603e-05
9.14573e-05
0.000120175
6.80428e-05
6.77839e-05
2.34312e-05
2.35832e-05
2.34827e-05
0.0001194
7.08916e-05
6.95708e-05
6.81713e-05
6.77889e-05
2.35363e-05
2.3447e-05
0.000122908
0.000151049
0.000142615
9.396e-05
9.12458e-05
4.97458e-05
9.15328e-05
4.98127e-05
0.000121012
0.000128667
0.00013416
8.87566e-05
0.000135529
8.83568e-05
0.000118969
0.000121949
0.00014887
0.000141266
8.89035e-05
0.000142361
9.23256e-05
0.000119472
9.07351e-05
4.97623e-05
4.9739e-05
8.99834e-05
9.10227e-05
4.97503e-05
4.97739e-05
9.02092e-05
2.34576e-05
2.34478e-05
0.000143276
6.86617e-05
6.80198e-05
7.07549e-05
7.0591e-05
2.34338e-05
2.34346e-05
2.3406e-05
2.34192e-05
2.36285e-05
2.36116e-05
2.35953e-05
2.35677e-05
7.39698e-05
7.34122e-05
0.00013708
7.38198e-05
7.31039e-05
2.34997e-05
2.35886e-05
2.34917e-05
2.35442e-05
0.000136026
7.21505e-05
7.11185e-05
7.37625e-05
7.27559e-05
9.47666e-05
5.04009e-05
9.3637e-05
5.04334e-05
0.000125008
9.45961e-05
0.000144703
0.000144045
0.00012317
9.44649e-05
0.000144011
0.000126028
9.90404e-05
0.000145357
0.000162291
0.000123608
0.000102193
0.000149198
9.46263e-05
5.00178e-05
5.01232e-05
9.45235e-05
9.48222e-05
5.01432e-05
5.04186e-05
9.47037e-05
0.000125647
0.000141529
9.4067e-05
0.000142183
9.44313e-05
0.000142964
0.00012657
0.000126746
0.000164309
0.000102204
0.000151527
0.000102428
0.000151225
0.000127679
7.90703e-05
7.781e-05
0.000165015
8.12814e-05
8.03973e-05
2.38448e-05
2.38691e-05
2.36285e-05
2.38762e-05
0.000166069
8.01105e-05
7.98118e-05
8.1382e-05
8.05564e-05
2.36553e-05
2.38551e-05
0.000121657
9.3676e-05
0.000141553
0.000142812
0.000121044
9.33678e-05
0.000139431
9.26302e-05
4.99812e-05
9.17066e-05
5.00982e-05
0.00012156
0.000133799
9.08707e-05
0.000127662
0.000120258
0.000132967
9.39096e-05
9.26559e-05
4.99117e-05
4.99825e-05
9.28629e-05
0.000121997
0.000139367
9.23274e-05
0.000136469
9.32305e-05
0.000137653
0.00012324
9.27702e-05
5.01768e-05
5.01238e-05
9.31398e-05
0.000122064
0.000130195
0.000132568
9.64214e-05
0.000132329
9.45518e-05
0.00012379
9.29853e-05
5.02347e-05
9.16877e-05
5.0305e-05
0.000120968
0.000141683
8.90841e-05
0.000137695
0.000121435
0.00014157
8.92148e-05
9.2884e-05
4.98636e-05
9.14672e-05
5.00906e-05
0.000122784
0.000163057
0.000101191
0.000149687
0.000101076
0.000149125
0.00012613
9.35975e-05
5.01985e-05
5.03049e-05
9.4664e-05
0.000121376
0.00013733
0.000140082
9.66056e-05
0.000141144
9.00282e-05
0.000125211
9.34957e-05
5.03139e-05
5.01707e-05
9.4617e-05
7.17933e-05
7.04424e-05
0.000126056
7.41741e-05
7.31221e-05
2.35614e-05
2.36492e-05
2.36908e-05
2.36728e-05
0.000129844
7.55728e-05
7.58073e-05
7.46333e-05
7.38508e-05
2.37223e-05
2.36683e-05
0.000118512
0.00013853
8.84076e-05
0.000136405
0.000118892
0.000136705
8.8325e-05
9.0272e-05
4.98033e-05
8.99246e-05
5.0002e-05
9.03879e-05
4.97689e-05
9.01328e-05
4.99438e-05
0.000118507
0.00012925
0.000132067
9.6012e-05
0.00013234
9.30307e-05
0.000121629
0.000118523
0.000136046
0.000135625
9.51233e-05
0.000136119
8.87916e-05
0.000121159
9.09391e-05
5.02422e-05
5.00697e-05
9.35043e-05
9.0936e-05
5.02371e-05
5.00195e-05
9.33132e-05
2.34603e-05
2.36252e-05
2.34218e-05
2.35778e-05
0.00012604
7.66784e-05
7.59802e-05
7.14473e-05
6.98194e-05
2.37893e-05
2.36828e-05
2.37809e-05
2.36401e-05
2.34715e-05
2.34422e-05
2.34816e-05
2.34815e-05
7.11898e-05
7.0676e-05
0.000129092
6.92145e-05
7.00736e-05
2.35206e-05
2.34432e-05
2.35869e-05
2.34909e-05
0.000129013
6.87633e-05
7.04823e-05
6.88839e-05
7.00239e-05
9.18551e-05
5.00133e-05
9.4304e-05
4.96996e-05
0.00012525
9.3361e-05
0.000141605
0.000136669
0.000126569
9.10443e-05
0.000141128
0.000125935
0.000101129
0.000151147
0.000162479
0.000127669
9.26203e-05
0.000150899
9.09098e-05
4.97512e-05
4.97438e-05
8.9742e-05
9.10456e-05
4.96207e-05
4.96459e-05
8.9803e-05
0.000123914
0.000136456
8.99828e-05
0.000140548
9.04609e-05
0.000140939
0.000120457
0.000124373
0.000154619
8.62058e-05
0.000146814
9.00949e-05
0.000149943
0.00012029
7.72744e-05
7.76864e-05
0.000153036
6.88497e-05
6.99461e-05
2.35596e-05
2.33704e-05
2.33492e-05
2.33119e-05
0.000146128
6.49076e-05
6.59195e-05
6.70274e-05
6.81858e-05
2.3364e-05
2.33467e-05
0.000123916
9.18938e-05
0.000135552
0.000135009
0.000123446
9.12319e-05
0.000135157
9.32143e-05
5.01824e-05
9.31606e-05
5.01841e-05
0.000124993
0.000135645
9.66792e-05
0.000150668
0.000124139
0.000140213
9.75972e-05
9.27674e-05
4.99466e-05
4.98694e-05
9.27959e-05
0.000124028
0.000134973
9.12832e-05
0.000137849
9.11561e-05
0.000136169
0.000124261
9.31752e-05
5.01821e-05
5.01809e-05
9.32137e-05
0.000125133
0.000156408
0.000148402
9.83327e-05
0.000144669
9.76825e-05
0.000125453
9.44659e-05
5.01087e-05
9.47075e-05
4.98351e-05
0.000127519
0.000139118
9.80928e-05
0.00014795
0.000126273
0.000141134
0.000100217
9.43354e-05
5.03163e-05
9.46695e-05
5.02028e-05
0.000127567
0.000153942
8.76808e-05
0.000148135
9.16343e-05
0.000148887
0.000124806
9.37658e-05
4.97167e-05
4.97742e-05
9.18814e-05
0.000127694
0.000155834
0.000149762
9.87234e-05
0.000146071
0.000100255
0.000126032
9.36318e-05
4.99962e-05
5.01441e-05
9.19731e-05
7.56921e-05
7.62569e-05
0.000150885
7.6e-05
7.73943e-05
2.37309e-05
2.37519e-05
2.37245e-05
2.37023e-05
0.000153862
7.68076e-05
7.78797e-05
7.60824e-05
7.75983e-05
2.375e-05
2.37525e-05
0.000126978
0.000134727
9.69696e-05
0.000145161
0.000122612
0.000134606
0.000100402
9.5317e-05
5.02783e-05
9.41091e-05
5.03279e-05
9.50173e-05
5.02757e-05
9.38826e-05
5.03027e-05
0.000128192
0.000156223
0.00014971
9.99552e-05
0.000143342
9.93415e-05
0.000129548
0.000127973
0.000154207
0.000147175
0.000100569
0.000139613
0.000100707
0.00012933
9.54149e-05
5.02786e-05
5.03277e-05
9.5386e-05
9.51136e-05
5.01806e-05
5.02894e-05
9.51316e-05
2.37955e-05
2.37595e-05
2.3798e-05
2.37972e-05
0.00015721
7.6286e-05
7.77566e-05
7.87971e-05
7.92837e-05
2.36215e-05
2.37222e-05
2.3674e-05
2.37707e-05
2.35675e-05
2.37543e-05
2.36301e-05
2.37773e-05
6.9083e-05
7.14034e-05
0.000134596
7.37493e-05
7.53706e-05
2.38943e-05
2.38041e-05
2.38716e-05
2.3813e-05
0.000139133
7.97326e-05
7.97997e-05
7.55172e-05
7.67062e-05
9.02399e-05
4.96506e-05
8.97192e-05
4.99891e-05
0.000119416
9.00118e-05
0.000140239
0.000137608
0.000119751
9.25833e-05
0.000140205
0.000118937
8.59472e-05
0.000142886
0.000136785
0.000119432
8.70564e-05
0.000140738
9.13872e-05
5.05394e-05
5.02737e-05
9.53889e-05
9.12282e-05
5.04714e-05
5.01286e-05
9.51159e-05
0.000119561
0.000140657
0.000100435
0.000140981
9.44642e-05
0.000140331
0.000124321
0.00011903
0.000136445
9.80413e-05
0.000140035
8.94401e-05
0.000140236
0.000123644
6.49011e-05
6.58611e-05
0.000123102
6.91619e-05
6.88364e-05
2.34102e-05
2.36297e-05
2.38878e-05
2.37341e-05
0.00012247
7.85004e-05
7.75039e-05
7.18463e-05
7.13146e-05
2.38512e-05
2.37018e-05
0.000124891
9.15754e-05
0.000139636
0.000137707
0.000124297
9.52853e-05
0.000141857
9.36354e-05
5.01845e-05
9.32249e-05
5.02306e-05
0.000125848
0.000151158
9.83836e-05
0.000164193
0.000125486
0.000153057
9.88149e-05
9.38531e-05
5.0476e-05
5.03197e-05
9.55147e-05
0.000125355
0.000143692
0.000101072
0.000148761
9.67396e-05
0.000144847
0.000128045
9.39858e-05
5.02713e-05
5.02471e-05
9.54098e-05
0.000126076
0.00016381
0.000155087
9.88061e-05
0.000154284
9.88103e-05
0.000128036
9.12256e-05
4.9722e-05
9.14875e-05
4.99163e-05
0.000122857
0.000151539
9.73004e-05
0.000160857
0.000124874
0.000151903
9.46509e-05
9.14129e-05
4.9969e-05
9.16208e-05
4.99784e-05
0.00012175
0.000137596
9.69415e-05
0.000143946
8.94055e-05
0.000144224
0.000122418
9.12889e-05
5.03563e-05
5.00303e-05
9.33639e-05
0.000122739
0.000159212
0.000150964
9.41141e-05
0.000151704
9.42737e-05
0.000122936
9.15099e-05
5.01535e-05
5.00231e-05
9.36271e-05
7.7012e-05
7.78811e-05
0.000160692
7.72691e-05
7.76194e-05
2.37448e-05
2.3727e-05
2.37184e-05
2.37334e-05
0.000160364
7.71311e-05
7.65053e-05
7.72379e-05
7.73154e-05
2.36866e-05
2.37146e-05
0.000128662
0.000153053
9.95523e-05
0.000161543
0.0001294
0.000156435
9.64887e-05
9.427e-05
5.0255e-05
9.50393e-05
5.02123e-05
9.4189e-05
5.01401e-05
9.48642e-05
5.00731e-05
0.000128429
0.000165502
0.000159968
9.82604e-05