/*--------------------------------*- C++ -*----------------------------------*\
| =========                 |                                                 |
| \\      /  F ield         | OpenFOAM: The Open Source CFD Toolbox           |
|  \\    /   O peration     | Version:  v2006                                 |
|   \\  /    A nd           | Website:  www.openfoam.com                      |
|    \\/     M anipulation  |                                                 |
\*---------------------------------------------------------------------------*/
FoamFile
{
    version     2.0;
    format      ascii;
    class       volScalarField;
    location    "1000";
    object      p;
}
// * * * * * * * * * * * * * * * * * * * * * * * * * * * * * * * * * * * * * //

dimensions      [0 2 -2 0 0 0 0];


internalField   nonuniform List<scalar> 
42840
(
0.0016401
0.00164112
0.0016407
0.00164265
0.00160343
0.00160178
0.0016053
0.00160818
0.00156961
0.00156899
0.00156851
0.00156942
0.00153467
0.00153555
0.00153273
0.00153552
0.00149583
0.00149546
0.00149642
0.00149895
0.00146055
0.00146033
0.00146138
0.00146314
0.0014258
0.0014263
0.00142612
0.00142775
0.00139061
0.00139024
0.00138967
0.00139187
0.00135489
0.00135437
0.00135419
0.00135651
0.00131884
0.0013188
0.00131915
0.00132107
0.00128343
0.00128352
0.0012837
0.00128559
0.00124831
0.00124816
0.00124797
0.00125004
0.00121292
0.00121272
0.00121263
0.00121465
0.0011773
0.00117721
0.00117729
0.0011793
0.00114178
0.00114167
0.00114175
0.00114379
0.00110643
0.00110632
0.00110628
0.00110827
0.00107114
0.00107107
0.00107101
0.00107297
0.00103581
0.00103565
0.00103571
0.00103778
0.0010003
0.00100019
0.00100017
0.00100214
0.000964921
0.000964876
0.00096487
0.000966856
0.000929592
0.000929507
0.000929528
0.00093157
0.000894001
0.000893888
0.000893869
0.000895891
0.000858695
0.000858586
0.000858584
0.000860542
0.000823425
0.000823368
0.000823382
0.000825399
0.000787749
0.000787651
0.000787651
0.000789695
0.000752221
0.000752164
0.000752153
0.00075415
0.00164712
0.00164933
0.00165078
0.00164861
0.00164907
0.00164949
0.00165044
0.00164853
0.00164747
0.00164922
0.00164824
0.00164673
0.00164228
0.00161022
0.00164024
0.00164125
0.00161225
0.00161108
0.00164335
0.00160849
0.00164006
0.00164084
0.0016126
0.00161391
0.00164066
0.00161154
0.00161534
0.00164283
0.00161185
0.00164049
0.00161438
0.00161572
0.00161356
0.00160536
0.00157594
0.00160304
0.0016012
0.00157754
0.00157659
0.00160342
0.00157519
0.00160357
0.00160477
0.00157791
0.00157766
0.00160571
0.00157647
0.00157634
0.00160704
0.0015756
0.00160629
0.00157763
0.0015767
0.0015742
0.0015716
0.00154145
0.00156959
0.0015693
0.0015441
0.00154542
0.00157113
0.00154307
0.00156976
0.00156875
0.00154352
0.0015421
0.00156737
0.00154496
0.00154222
0.00157071
0.00153975
0.00156749
0.00154171
0.00154171
0.00154014
0.00153631
0.00150256
0.00153452
0.00153587
0.00150494
0.00150505
0.00153779
0.00150268
0.00153393
0.001533
0.00150485
0.00150528
0.00153363
0.00150523
0.00150614
0.00153491
0.00150325
0.00153312
0.00150546
0.00150606
0.00150395
0.00149754
0.00146751
0.00149544
0.00149519
0.00146912
0.00146853
0.00149746
0.00146685
0.00149553
0.0014961
0.00146941
0.00146982
0.00149679
0.00146869
0.00146972
0.00149837
0.00146796
0.00149687
0.00146997
0.00147001
0.00146787
0.00146284
0.00143259
0.00146067
0.00146026
0.00143466
0.00143502
0.00146237
0.0014331
0.0014609
0.00146127
0.00143474
0.00143523
0.00146098
0.00143503
0.00143464
0.00146336
0.00143303
0.00146126
0.00143519
0.00143469
0.00143254
0.00142786
0.00139717
0.00142581
0.00142632
0.00139933
0.00139944
0.00142838
0.00139714
0.00142583
0.00142617
0.00139919
0.00139879
0.00142571
0.00139936
0.00139883
0.00142814
0.00139663
0.0014257
0.00139871
0.0013987
0.00139668
0.00139239
0.00136154
0.00139047
0.00139034
0.00136372
0.00136335
0.00139226
0.00136126
0.00139032
0.00138977
0.00136364
0.00136305
0.00138991
0.00136328
0.00136336
0.00139177
0.00136098
0.00138979
0.00136298
0.0013633
0.00136129
0.00135667
0.0013255
0.00135469
0.00135441
0.00132756
0.0013276
0.00135645
0.00132559
0.00135464
0.00135423
0.00132761
0.00132788
0.00135452
0.00132767
0.00132791
0.00135626
0.0013259
0.00135448
0.00132793
0.00132795
0.00132586
0.00132069
0.00129013
0.0013186
0.00131872
0.00129211
0.00129227
0.0013208
0.00129026
0.00131868
0.00131907
0.00129217
0.00129258
0.001319
0.00129232
0.00129238
0.00132114
0.00129049
0.00131908
0.00129265
0.00129245
0.00129037
0.00128539
0.00125503
0.00128335
0.00128347
0.00125707
0.00125704
0.0012855
0.00125496
0.00128339
0.00128365
0.00125705
0.00125688
0.00128354
0.00125702
0.00125695
0.00128566
0.00125479
0.00128359
0.00125686
0.00125693
0.00125485
0.00125026
0.00121957
0.00124827
0.00124821
0.00122168
0.00122165
0.00125019
0.00121955
0.00124823
0.001248
0.00122164
0.00122149
0.00124806
0.00122159
0.00122148
0.00125
0.00121943
0.00124802
0.00122144
0.00122144
0.00121941
0.00121476
0.00118401
0.00121278
0.00121276
0.00118607
0.00118607
0.00121474
0.00118403
0.00121275
0.00121266
0.00118608
0.00118613
0.00121265
0.00118609
0.00118614
0.00121465
0.00118409
0.00121262
0.00118615
0.00118616
0.00118409
0.00117921
0.0011485
0.00117718
0.00117719
0.00115055
0.00115054
0.00117923
0.00114847
0.0011772
0.00117726
0.00115056
0.00115062
0.00117728
0.00115055
0.00115063
0.00117929
0.00114856
0.0011773
0.00115063
0.00115065
0.00114859
0.00114371
0.00111312
0.00114168
0.00114165
0.00111515
0.00111513
0.00114367
0.0011131
0.0011417
0.00114173
0.00111516
0.00111513
0.00114176
0.00111513
0.00111514
0.00114375
0.00111308
0.00114177
0.00111513
0.00111515
0.00111308
0.00110833
0.00107779
0.00110633
0.00110632
0.00107985
0.00107993
0.00110833
0.00107786
0.00110633
0.00110629
0.00107983
0.00107984
0.00110627
0.0010799
0.00107976
0.00110829
0.00107779
0.00110626
0.00107981
0.00107974
0.00107772
0.00107302
0.0010425
0.00107102
0.00107109
0.00104454
0.00104449
0.00107307
0.00104244
0.00107101
0.00107103
0.00104455
0.00104455
0.00107098
0.00104451
0.00104463
0.00107302
0.0010425
0.00107096
0.00104457
0.00104464
0.00104259
0.0010377
0.00100701
0.0010357
0.00103563
0.00100907
0.00100905
0.00103765
0.001007
0.00103571
0.00103569
0.00100907
0.00100905
0.00103577
0.00100905
0.00100903
0.0010377
0.00100699
0.00103579
0.00100905
0.00100903
0.00100695
0.00100219
0.000971616
0.00100019
0.0010002
0.000973652
0.000973694
0.0010022
0.000971661
0.00100019
0.00100019
0.000973648
0.000973677
0.00100013
0.000973687
0.000973648
0.00100218
0.000971645
0.00100013
0.000973671
0.000973644
0.000971624
0.000966838
0.000936349
0.000964835
0.000964875
0.000938384
0.000938374
0.000966879
0.000936332
0.000964833
0.000964867
0.000938387
0.000938395
0.000964856
0.000938383
0.000938423
0.000966871
0.000936356
0.000964853
0.000938404
0.000938427
0.000936381
0.000931537
0.000900719
0.000929522
0.000929502
0.000902791
0.000902782
0.00093152
0.00090072
0.000929526
0.000929523
0.000902791
0.000902773
0.000929553
0.000902786
0.000902807
0.000931542
0.000900703
0.000929557
0.000902777
0.000902806
0.00090073
0.000895893
0.000865371
0.000893892
0.000893886
0.000867393
0.000867384
0.000895892
0.000865354
0.000893888
0.000893866
0.000867389
0.000867374
0.000893887
0.000867371
0.000867327
0.000895873
0.000865349
0.000893883
0.000867361
0.000867322
0.000865302
0.000860601
0.000830171
0.000858608
0.000858601
0.00083221
0.000832225
0.000860586
0.000830188
0.000858606
0.000858599
0.000832213
0.000832238
0.000858546
0.000832225
0.000832223
0.000860585
0.000830199
0.000858544
0.000832239
0.000832226
0.000830197
0.000825362
0.000794504
0.000823348
0.000823362
0.000796581
0.000796579
0.000825377
0.000794506
0.000823351
0.000823376
0.000796583
0.000796587
0.000823388
0.000796591
0.000796637
0.000825389
0.000794512
0.000823391
0.000796598
0.000796638
0.000794554
0.000789654
0.000758993
0.000787642
0.000787641
0.000761005
0.000761002
0.000789659
0.000758985
0.000787643
0.000787642
0.000761002
0.000760987
0.000787684
0.000760999
0.000760973
0.000789661
0.000758969
0.000787685
0.000760983
0.00076097
0.000758948
0.0007542
0.000752183
0.000752173
0.000754185
0.00075218
0.000752162
0.000752131
0.000754174
0.000752128
0.00166508
0.00166525
0.00166558
0.00166459
0.00166492
0.00164917
0.00165094
0.0016492
0.00164859
0.00166433
0.00166799
0.00166495
0.00166746
0.00166453
0.00166359
0.00166626
0.00166589
0.00166408
0.00166265
0.00166373
0.00166363
0.00162919
0.00164299
0.00164317
0.00162897
0.00164286
0.00162882
0.001629
0.00164272
0.00164255
0.00162895
0.00164149
0.00164055
0.00164051
0.00161248
0.0016118
0.00161437
0.00161467
0.00162988
0.00164326
0.00164083
0.00163141
0.00164288
0.00162951
0.00163169
0.00164207
0.00162873
0.00162978
0.00164037
0.00164218
0.00163206
0.00164217
0.00163192
0.00162923
0.00164276
0.00164255
0.00163097
0.00163022
0.00163011
0.00159135
0.00160518
0.00160498
0.00159164
0.00160501
0.00159184
0.00159268
0.0016058
0.00160611
0.00159236
0.00160223
0.00160544
0.00160552
0.00157778
0.00157651
0.00157806
0.00157721
0.00159188
0.00160484
0.00160334
0.00159256
0.00160593
0.00159141
0.00159402
0.00160631
0.00159297
0.00159363
0.00160571
0.0016069
0.00159611
0.00160755
0.00159649
0.00159335
0.00160677
0.00160704
0.00159335
0.00159248
0.00159286
0.00155877
0.00157092
0.00157066
0.00155858
0.00157116
0.00155863
0.0015581
0.00157101
0.00157096
0.00155815
0.00156886
0.00156895
0.00156811
0.00154412
0.00154435
0.00154201
0.00154202
0.00155808
0.00157066
0.00156839
0.00156136
0.00157012
0.00155885
0.00156035
0.00157083
0.00155778
0.00155716
0.00156847
0.00157064
0.00155955
0.00157033
0.00155943
0.00155744
0.00157015
0.00157023
0.0015568
0.00155744
0.00155732
0.00152242
0.00153649
0.00153677
0.00152208
0.00153644
0.0015222
0.00152185
0.00153579
0.00153574
0.00152174
0.00153538
0.00153295
0.00153328
0.00150527
0.00150579
0.00150532
0.00150596
0.00152272
0.00153663
0.0015348
0.00152554
0.00153667
0.00152247
0.00152544
0.0015356
0.00152193
0.00152194
0.00153283
0.00153531
0.00152367
0.0015352
0.00152385
0.00152185
0.00153591
0.00153561
0.00152245
0.00152229
0.00152212
0.00148449
0.0014983
0.00149814
0.0014848
0.00149847
0.00148471
0.00148493
0.00149847
0.00149843
0.00148508
0.00149595
0.00149622
0.00149676
0.00146911
0.00146875
0.00146984
0.00146997
0.00148463
0.00149828
0.00149622
0.00148612
0.00149845
0.00148465
0.00148685
0.00149885
0.00148517
0.00148533
0.00149663
0.00149884
0.0014875
0.00149884
0.00148761
0.00148529
0.00149898
0.00149903
0.00148557
0.00148516
0.00148528
0.00144987
0.00146298
0.00146271
0.00144991
0.00146271
0.00144977
0.00145009
0.00146322
0.00146306
0.00145005
0.00146026
0.00146124
0.00146127
0.00143459
0.00143481
0.00143535
0.00143492
0.00144993
0.00146263
0.00146043
0.00145199
0.00146261
0.00144988
0.00145195
0.00146299
0.0014499
0.00145027
0.00146124
0.00146315
0.0014528
0.00146312
0.0014526
0.00145012
0.00146279
0.00146288
0.00145032
0.00144961
0.00144967
0.00141467
0.00142781
0.00142794
0.00141455
0.00142795
0.00141467
0.00141453
0.00142781
0.00142792
0.00141445
0.00142606
0.00142647
0.00142597
0.00139941
0.00139963
0.00139912
0.00139897
0.00141481
0.00142802
0.00142607
0.00141742
0.00142806
0.00141474
0.00141725
0.00142775
0.0014144
0.00141457
0.00142616
0.00142781
0.00141696
0.00142793
0.0014171
0.00141446
0.00142774
0.00142773
0.00141461
0.00141452
0.00141449
0.00137904
0.0013924
0.00139234
0.00137908
0.00139224
0.00137893
0.00137889
0.00139228
0.00139218
0.00137898
0.00139066
0.00139004
0.00139002
0.00136388
0.00136356
0.00136315
0.00136336
0.00137891
0.00139217
0.00139033
0.00138118
0.00139214
0.0013789
0.00138127
0.00139214
0.00137884
0.00137872
0.00138982
0.001392
0.0013807
0.00139195
0.00138082
0.00137874
0.00139231
0.00139229
0.00137894
0.00137897
0.00137894
0.00134329
0.00135666
0.00135673
0.00134323
0.00135669
0.00134333
0.00134329
0.00135662
0.00135665
0.00134324
0.00135457
0.00135427
0.00135451
0.00132782
0.00132771
0.00132787
0.00132794
0.00134343
0.00135663
0.00135444
0.00134546
0.00135662
0.00134336
0.00134555
0.00135666
0.00134338
0.0013434
0.00135428
0.00135653
0.00134544
0.0013565
0.00134549
0.00134337
0.0013567
0.00135666
0.0013436
0.00134334
0.00134332
0.0013076
0.00132087
0.00132088
0.0013076
0.00132102
0.00130773
0.00130774
0.00132094
0.001321
0.00130769
0.00131882
0.00131907
0.00131911
0.00129222
0.00129235
0.00129268
0.00129257
0.00130779
0.00132099
0.00131889
0.00130996
0.00132097
0.00130778
0.00131003
0.00132116
0.00130785
0.00130801
0.00131913
0.0013212
0.00131037
0.00132116
0.00131031
0.00130799
0.00132101
0.00132104
0.00130808
0.00130771
0.00130776
0.00127238
0.00128555
0.00128555
0.00127238
0.00128557
0.00127232
0.00127237
0.00128559
0.00128561
0.00127238
0.00128356
0.00128385
0.00128373
0.00125709
0.00125718
0.00125713
0.00125712
0.00127248
0.00128559
0.00128355
0.00127471
0.0012856
0.00127238
0.00127475
0.00128558
0.0012723
0.00127247
0.00128375
0.00128563
0.00127473
0.00128567
0.00127482
0.00127237
0.00128561
0.00128562
0.00127264
0.00127236
0.00127236
0.00123707
0.00125032
0.00125029
0.00123707
0.00125023
0.00123701
0.001237
0.00125028
0.00125023
0.00123703
0.00124834
0.00124821
0.00124822
0.00122182
0.00122179
0.00122158
0.00122157
0.00123704
0.00125018
0.0012482
0.00123931
0.00125018
0.00123702
0.00123933
0.00125016
0.00123694
0.00123695
0.00124807
0.0012501
0.0012391
0.0012501
0.00123917
0.00123691
0.0012502
0.00125019
0.00123709
0.00123695
0.00123693
0.00120158
0.00121487
0.00121487
0.00120159
0.00121484
0.00120157
0.00120159
0.00121485
0.00121484
0.00120159
0.00121291
0.00121274
0.00121273
0.0011862
0.0011862
0.00118623
0.00118624
0.00120165
0.0012148
0.00121274
0.00120385
0.00121479
0.0012016
0.00120387
0.00121484
0.00120159
0.00120165
0.00121264
0.00121477
0.00120381
0.00121473
0.00120382
0.00120162
0.00121483
0.00121482
0.00120177
0.00120159
0.00120159
0.0011661
0.00117939
0.00117938
0.00116608
0.00117941
0.00116612
0.00116611
0.0011794
0.0011794
0.00116609
0.0011773
0.00117737
0.00117739
0.00115066
0.00115065
0.00115073
0.00115075
0.00116618
0.00117938
0.00117726
0.00116833
0.00117935
0.00116616
0.00116838
0.00117941
0.00116613
0.00116621
0.00117733
0.00117939
0.00116841
0.00117939
0.00116846
0.00116616
0.0011794
0.0011794
0.00116634
0.00116611
0.00116611
0.00113058
0.00114386
0.00114385
0.00113061
0.00114386
0.00113059
0.00113062
0.00114388
0.00114388
0.00113063
0.00114177
0.00114184
0.00114186
0.00111525
0.0011152
0.00111524
0.00111525
0.00113067
0.00114383
0.00114174
0.0011328
0.00114383
0.00113061
0.00113286
0.00114391
0.00113062
0.00113071
0.00114179
0.00114389
0.00113287
0.00114387
0.00113291
0.00113067
0.00114393
0.00114394
0.00113085
0.00113064
0.00113065
0.00109526
0.00110847
0.00110847
0.00109523
0.00110849
0.00109527
0.00109522
0.00110846
0.00110846
0.0010952
0.00110639
0.0011064
0.00110639
0.00107996
0.00108002
0.00107993
0.00107987
0.00109529
0.00110844
0.00110633
0.00109752
0.0011084
0.00109529
0.00109751
0.00110845
0.00109522
0.00109524
0.00110632
0.0011084
0.00109744
0.00110839
0.00109747
0.00109521
0.00110842
0.00110842
0.00109533
0.00109515
0.00109514
0.00105995
0.00107314
0.00107316
0.00105995
0.00107315
0.00105994
0.00105996
0.00107313
0.00107313
0.00105996
0.0010712
0.00107113
0.00107107
0.00104466
0.00104463
0.00104467
0.0010447
0.00106003
0.00107313
0.00107108
0.00106222
0.0010731
0.00105997
0.00106225
0.00107315
0.00105995
0.00106004
0.00107102
0.00107311
0.00106221
0.00107306
0.00106223
0.00106
0.00107313
0.00107313
0.00106019
0.00106
0.00106
0.00102457
0.00103784
0.00103783
0.00102457
0.00103783
0.00102458
0.00102458
0.00103785
0.00103785
0.00102458
0.00103576
0.00103581
0.00103587
0.00100918
0.00100915
0.00100916
0.00100917
0.00102464
0.0010378
0.00103573
0.00102679
0.00103782
0.0010246
0.00102686
0.00103784
0.00102459
0.00102466
0.00103577
0.00103783
0.00102683
0.00103785
0.00102689
0.00102461
0.00103788
0.00103789
0.0010248
0.00102457
0.00102458
0.000989129
0.00100239
0.00100238
0.000989127
0.0010024
0.000989138
0.000989119
0.00100239
0.00100238
0.000989121
0.00100029
0.00100028
0.00100026
0.000973748
0.000973784
0.000973771
0.00097373
0.000989147
0.00100233
0.00100021
0.00099134
0.00100229
0.000989136
0.000991353
0.00100239
0.000989126
0.000989133
0.0010002
0.00100232
0.000991319
0.00100228
0.000991337
0.000989122
0.00100234
0.00100234
0.000989228
0.000989088
0.000989085
0.000953817
0.000967022
0.000967008
0.000953831
0.000967019
0.00095381
0.000953819
0.000967019
0.000967004
0.000953833
0.000964966
0.000964959
0.000964936
0.000938444
0.000938461
0.000938472
0.000938496
0.000953902
0.000966993
0.000964892
0.000956063
0.000966969
0.000953859
0.000956084
0.000967014
0.000953817
0.000953907
0.000964886
0.000966988
0.000956068
0.000966963
0.000956084
0.000953866
0.000967024
0.000967023
0.000954045
0.000953816
0.000953817
0.000918392
0.000931698
0.000931696
0.00091838
0.000931687
0.000918389
0.0009184
0.000931704
0.000931707
0.000918384
0.000929589
0.000929604
0.000929628
0.000902904
0.000902885
0.000902882
0.000902912
0.000918453
0.000931654
0.000929558
0.000920609
0.000931651
0.00091841
0.000920662
0.000931705
0.000918397
0.000918463
0.000929572
0.000931672
0.000920624
0.000931665
0.000920675
0.00091842
0.000931701
0.000931705
0.000918595
0.000918413
0.000918416
0.000882813
0.000896101
0.000896093
0.000882831
0.000896125
0.000882836
0.000882801
0.000896097
0.000896086
0.000882824
0.000893989
0.000893976
0.000893997
0.000867477
0.000867463
0.000867448
0.000867413
0.000882848
0.000896062
0.000893928
0.000885017
0.000896039
0.000882836
0.000885045
0.000896115
0.000882826
0.000882831
0.000893917
0.000896045
0.000884993
0.000896029
0.000885029
0.000882821
0.000896113
0.000896111
0.000882934
0.0008828
0.000882796
0.000847606
0.000860774
0.000860755
0.000847586
0.000860756
0.000847579
0.00084761
0.000860774
0.000860754
0.00084759
0.00085868
0.000858671
0.000858626
0.000832285
0.000832294
0.000832309
0.000832288
0.000847645
0.000860709
0.000858597
0.000849815
0.000860666
0.000847618
0.000849823
0.000860758
0.000847581
0.000847651
0.00085859
0.000860709
0.00084982
0.000860665
0.000849824
0.000847625
0.000860719
0.000860719
0.000847773
0.000847567
0.000847568
0.000812212
0.000825502
0.000825497
0.000812218
0.000825499
0.000812214
0.000812215
0.000825504
0.0008255
0.00081222
0.00082344
0.000823455
0.000823456
0.000796687
0.000796693
0.000796703
0.000796743
0.00081229
0.000825479
0.000823398
0.000814471
0.000825483
0.000812245
0.000814516
0.000825498
0.000812221
0.000812295
0.00082341
0.000825478
0.000814483
0.000825489
0.000814527
0.000812251
0.000825497
0.000825497
0.000812447
0.000812222
0.000812223
0.000776542
0.000789878
0.000789883
0.000776556
0.000789908
0.000776594
0.000776538
0.000789878
0.000789886
0.000776554
0.000787752
0.000787756
0.000787799
0.000761072
0.000761068
0.000761058
0.000761051
0.000776587
0.000789843
0.00078771
0.000778735
0.000789835
0.000776576
0.000778784
0.000789903
0.000776587
0.000776584
0.000787711
0.000789846
0.000778729
0.000789837
0.000778781
0.000776567
0.000789916
0.000789917
0.000776686
0.000776573
0.000776572
0.000741179
0.000754445
0.000754402
0.000741198
0.000754429
0.000741148
0.00074118
0.000754442
0.000754396
0.0007412
0.00075221
0.000752202
0.00075218
0.000741186
0.000754374
0.000752152
0.000743317
0.000754302
0.000741185
0.000743298
0.000754429
0.000741158
0.000741186
0.000752146
0.000754369
0.000743316
0.000754294
0.000743295
0.000741191
0.000754398
0.000754397
0.00074127
0.00074113
0.000741131
0.00166523
0.00166505
0.0016649
0.0016652
0.00166508
0.0016475
0.0016608
0.0016473
0.00166061
0.00166013
0.00164754
0.00164735
0.00166079
0.00166064
0.00166515
0.00166531
0.00166519
0.00166712
0.00166523
0.00166761
0.00166531
0.00166831
0.00166544
0.00166821
0.00166071
0.00164755
0.00166084
0.00164769
0.00166078
0.00164794
0.00166107
0.0016477
0.0016607
0.00165822
0.0016476
0.00164973
0.00166076
0.0016587
0.00164778
0.00166083
0.00165964
0.00164806
0.0016503
0.00166115
0.00165934
0.00164788
0.00166611
0.00166545
0.00166518
0.00166525
0.00164739
0.00166116
0.00166144
0.00164741
0.00164725
0.00166106
0.00166079
0.00164722
0.00166086
0.00166463
0.00166677
0.00166494
0.00166675
0.00166453
0.00166449
0.00166459
0.00166659
0.00166665
0.00166452
0.00166018
0.00164726
0.00166051
0.00164703
0.00166012
0.00165793
0.0016473
0.00164911
0.00166046
0.00165793
0.00164712
0.00166012
0.00164681
0.00166008
0.00164699
0.00166008
0.00165805
0.00164921
0.00164693
0.00165796
0.00166005
0.00164711
0.00166421
0.00166479
0.001664
0.00166514
0.00166634
0.0016635
0.00166401
0.00166356
0.00165983
0.00165923
0.00164782
0.0016498
0.00166061
0.00165864
0.00164727
0.00165983
0.00164773
0.00166058
0.0016471
0.00165953
0.00165654
0.00164908
0.00164671
0.00165758
0.00165907
0.00164716
0.00165968
0.00164656
0.00165918
0.00164708
0.00166459
0.00166449
0.00166424
0.00166423
0.00164656
0.00166001
0.00165991
0.00164655
0.00164635
0.00166002
0.00165972
0.00164636
0.00165972
0.00166343
0.00166477
0.00166554
0.00166319
0.0016636
0.00166402
0.00166353
0.00166325
0.00165909
0.00165772
0.00164878
0.00164663
0.00165725
0.00165961
0.0016465
0.00165895
0.00165622
0.00164848
0.00164639
0.00165683
0.00165875
0.00164648
0.0016592
0.00164656
0.0016596
0.00164637
0.00165915
0.00164624
0.00165888
0.00164641
0.00166373
0.0016636
0.00165831
0.0016469
0.0016467
0.00165941
0.00165934
0.00164703
0.0016594
0.00164675
0.00165929
0.00164295
0.00162901
0.00164275
0.00162897
0.00164303
0.00164283
0.00162879
0.00162918
0.00162905
0.00161027
0.00162426
0.00161048
0.00162432
0.00162382
0.00161028
0.00161047
0.00162443
0.00162438
0.00162911
0.00164338
0.00164314
0.0016293
0.00162929
0.00164299
0.00164058
0.00163099
0.00164316
0.00162911
0.0016312
0.00162921
0.0016434
0.00164096
0.0016313
0.00164323
0.00162922
0.00163135
0.00162436
0.00160987
0.00162415
0.00160983
0.00162427
0.00160931
0.00162427
0.0016097
0.00162428
0.00162164
0.0016099
0.00161219
0.00162422
0.00162171
0.00160978
0.0016242
0.00162116
0.00160915
0.00161179
0.00162417
0.00162155
0.00160961
0.00164287
0.00164274
0.00162882
0.00162892
0.00162901
0.00164272
0.00162894
0.00160947
0.00162386
0.00162344
0.00160948
0.00160977
0.00162399
0.00162412
0.00160976
0.00162407
0.00162913
0.00164272
0.00164022
0.00163097
0.00164254
0.00162903
0.00163121
0.001629
0.00164232
0.00164251
0.00162884
0.00162918
0.00164043
0.00164234
0.00163198
0.00164254
0.00163157
0.00162895
0.00162439
0.00161041
0.00162428
0.00161069
0.0016244
0.00162179
0.00161041
0.0016131
0.00162425
0.00162215
0.00161077
0.00162441
0.00161075
0.00162429
0.00161075
0.00162446
0.001623
0.00161366
0.00161085
0.00162264
0.00162433
0.00161089
0.00162968
0.00164328
0.00164282
0.00162968
0.00163008
0.00164069
0.00164258
0.00163255
0.00164286
0.00163211
0.00163033
0.00162989
0.0016425
0.00164286
0.00163006
0.00162513
0.00162149
0.00160977
0.00161283
0.00162464
0.00162237
0.00161093
0.00162504
0.00160992
0.00162476
0.00161089
0.00162544
0.00162416
0.00161399
0.00161183
0.00162311
0.0016259
0.00161135
0.0016253
0.00161162
0.00162556
0.00161116
0.00164205
0.0016419
0.00162993
0.00162871
0.00162882
0.00164193
0.00162886
0.00161081
0.00162422
0.00162516
0.0016108
0.00161112
0.00162421
0.0016244
0.00161119
0.00162444
0.0016299
0.00164034
0.00164229
0.00163255
0.0016422
0.00163215
0.00163023
0.00162955
0.00164219
0.00164213
0.00162913
0.00162968
0.00164222
0.00164219
0.00163004
0.00162539
0.0016233
0.00161469
0.0016115
0.0016234
0.00162475
0.0016123
0.00162554
0.00162439
0.00161486
0.00161236
0.00162366
0.00162598
0.00161244
0.00162524
0.00161139
0.00162471
0.00161197
0.00162538
0.00161215
0.00162572
0.00161205
0.00164283
0.00163008
0.00164258
0.00163007
0.00162638
0.00161158
0.00161174
0.00162567
0.00162567
0.00161151
0.0016255
0.00161176
0.00162554
0.00160557
0.00159192
0.00160585
0.00159236
0.00160559
0.00160583
0.00159248
0.0015919
0.00159229
0.00157505
0.00158753
0.00157524
0.00158798
0.00158793
0.00157496
0.00157521
0.00158751
0.00158791
0.00159131
0.00160454
0.00160486
0.00159116
0.00159124
0.0016051
0.00160282
0.00159417
0.00160481
0.00159165
0.00159382
0.00159109
0.00160424
0.00160227
0.00159215
0.00160463
0.00159102
0.00159323
0.00158703
0.00157495
0.0015873
0.00157469
0.00158699
0.00157486
0.0015869
0.0015747
0.00158684
0.0015857
0.00157499
0.00157709
0.00158725
0.00158526
0.00157481
0.00158673
0.00158407
0.00157495
0.00157671
0.00158672
0.00158469
0.00157479
0.00160496
0.00160521
0.00159035
0.00159184
0.00159204
0.00160527
0.00159205
0.00157517
0.00158751
0.00158622
0.00157511
0.00157506
0.00158754
0.00158772
0.00157511
0.00158769
0.00159278
0.00160572
0.00160408
0.00159479
0.00160607
0.00159238
0.00159519
0.00159274
0.00160624
0.00160617
0.00159291
0.00159287
0.00160463
0.00160626
0.00159566
0.00160618
0.00159561
0.00159297
0.00158823
0.00157528
0.00158798
0.00157527
0.00158824
0.00158625
0.00157539
0.00157789
0.00158796
0.00158646
0.00157542
0.00158828
0.00157537
0.00158848
0.00157525
0.0015883
0.00158664
0.00157781
0.00157538
0.00158666
0.00158846
0.00157539
0.00159196
0.0016051
0.00160607
0.0015915
0.00159211
0.00160458
0.00160688
0.00159567
0.00160633
0.00159503
0.00159256
0.00159208
0.00160684
0.00160634
0.00159252
0.00158716
0.00158423
0.00157475
0.00157653
0.00158705
0.00158505
0.00157436
0.00158738
0.00157465
0.00158714
0.00157442
0.00158733
0.00158577
0.00157661
0.0015743
0.00158563
0.00158772
0.00157427
0.00158743
0.00157445
0.00158778
0.00157434
0.00160631
0.00160665
0.00159374
0.00159294
0.00159317
0.00160669
0.0015932
0.00157524
0.00158849
0.00158883
0.00157522
0.00157519
0.00158847
0.00158862
0.00157518
0.00158865
0.00159362
0.00160581
0.00160751
0.00159636
0.00160766
0.00159647
0.00159324
0.00159346
0.00160687
0.00160737
0.00159328
0.00159345
0.00160747
0.00160744
0.00159327
0.00158876
0.00158688
0.00157773
0.0015752
0.00158711
0.00158868
0.00157502
0.00158872
0.00158636
0.00157746
0.00157455
0.00158693
0.00158839
0.00157491
0.00158876
0.00157516
0.0015887
0.00157496
0.00158873
0.00157465
0.00158849
0.00157488
0.00160672
0.00159243
0.00160705
0.00159288
0.00158803
0.00157444
0.00157459
0.00158778
0.00158817
0.00157454
0.00158777
0.00157468
0.00158821
0.00157087
0.00155816
0.00157092
0.00155796
0.00157083
0.00157093
0.00155967
0.00155816
0.00155799
0.00154059
0.00155381
0.00154013
0.00155353
0.00155493
0.00154052
0.00154019
0.0015538
0.00155357
0.00155883
0.00157092
0.00157069
0.00155898
0.00155909
0.00157095
0.00156915
0.00156157
0.00157074
0.00155882
0.00156118
0.00155915
0.00157097
0.00156901
0.00156181
0.00157075
0.00155936
0.00156115
0.00155463
0.00154098
0.00155429
0.00154145
0.00155471
0.00154146
0.0015547
0.00154154
0.00155491
0.00155316
0.00154108
0.00154435
0.00155441
0.00155299
0.00154191
0.00155501
0.00155397
0.00154168
0.00154456
0.00155507
0.0015531
0.00154203
0.00157105
0.00157094
0.00156011
0.00155874
0.00155854
0.00157095
0.00155839
0.00154105
0.00155428
0.00155576
0.00154102
0.00154088
0.00155435
0.00155416
0.00154085
0.00155404
0.00155834
0.00157113
0.00156942
0.00156149
0.00157101
0.00155837
0.00156087
0.00155805
0.00157098
0.00157092
0.00155793
0.00155821
0.001569
0.00157093
0.00155992
0.00157094
0.00156032
0.00155794
0.0015537
0.00154039
0.00155374
0.00154033
0.00155385
0.00155278
0.00154045
0.00154319
0.00155386
0.00155219
0.00154056
0.00155365
0.00154017
0.00155352
0.00154031
0.00155372
0.00155108
0.00154259
0.00154023
0.00155155
0.00155347
0.00154047
0.00155789
0.0015706
0.0015702
0.00155851
0.00155784
0.00156794
0.00156995
0.00155884
0.00156996
0.00155958
0.00155748
0.00155772
0.00157013
0.00157009
0.00155746
0.00155386
0.00155337
0.00154136
0.00154364
0.00155462
0.00155214
0.00154133
0.00155375
0.00154111
0.00155426
0.00154096
0.0015536
0.00155057
0.00154288
0.00154052
0.00155131
0.00155321
0.00154108
0.00155357
0.00154044
0.00155324
0.00154081
0.00157081
0.00157073
0.00155771
0.00155775
0.00155752
0.00157069
0.00155752
0.00154012
0.00155339
0.00155292
0.00154015
0.00153997
0.00155338
0.00155314
0.00153992
0.00155311
0.00155708
0.00156819
0.00157003
0.00155868
0.00157022
0.00155922
0.00155714
0.00155716
0.00157066
0.00157039
0.00155744
0.0015571
0.00157018
0.00157031
0.00155711
0.00155265
0.00155065
0.0015417
0.00153985
0.00155054
0.00155297
0.00153975
0.0015526
0.00155017
0.0015417
0.00153989
0.00155043
0.00155276
0.00153975
0.00155276
0.00153981
0.00155302
0.0015397
0.00155272
0.00153981
0.00155276
0.0015397
0.00157021
0.00155746
0.00157027
0.00155728
0.00155238
0.00154034
0.00154003
0.00155319
0.001553
0.0015403
0.00155319
0.00153996
0.00155294
0.00153596
0.00152189
0.00153562
0.0015217
0.00153596
0.00153565
0.00152197
0.00152194
0.00152176
0.00150328
0.00151713
0.00150333
0.00151702
0.00151677
0.00150327
0.0015033
0.00151718
0.00151705
0.00152248
0.00153678
0.00153687
0.00152238
0.00152255
0.00153636
0.00153514
0.00152464
0.00153703
0.00152212
0.00152541
0.00152264
0.00153689
0.00153547
0.00152567
0.00153716
0.00152246
0.00152577
0.0015175
0.00150296
0.00151721
0.00150293
0.00151754
0.00150296
0.00151746
0.00150292
0.00151743
0.00151471
0.00150291
0.00150544
0.00151718
0.00151543
0.00150287
0.0015175
0.00151524
0.00150283
0.00150557
0.00151743
0.00151571
0.00150288
0.00153643
0.00153628
0.00152282
0.00152225
0.00152223
0.00153626
0.00152221
0.00150317
0.00151736
0.00151737
0.00150312
0.00150322
0.0015174
0.00151743
0.00150328
0.00151742
0.0015219
0.00153576
0.00153389
0.00152417
0.0015358
0.00152179
0.00152437
0.00152186
0.0015356
0.00153572
0.00152179
0.00152188
0.00153343
0.00153559
0.00152379
0.00153573
0.00152412
0.00152184
0.00151712
0.00150306
0.00151698
0.00150308
0.00151702
0.00151444
0.001503
0.00150528
0.00151693
0.00151476
0.00150303
0.00151713
0.00150326
0.00151712
0.0015031
0.00151702
0.00151452
0.00150537
0.00150326
0.00151472
0.00151708
0.00150306
0.00152253
0.00153651
0.00153642
0.00152242
0.00152267
0.00153411
0.00153604
0.00152475
0.00153649
0.00152501
0.00152239
0.00152251
0.00153597
0.00153631
0.0015223
0.00151774
0.00151528
0.00150309
0.00150589
0.00151754
0.00151572
0.00150339
0.00151774
0.00150321
0.00151757
0.00150339
0.00151774
0.00151553
0.0015061
0.00150357
0.00151562
0.00151761
0.00150349
0.00151775
0.0015035
0.0015176