/*--------------------------------*- C++ -*----------------------------------*\
| =========                 |                                                 |
| \\      /  F ield         | OpenFOAM: The Open Source CFD Toolbox           |
|  \\    /   O peration     | Version:  v2006                                 |
|   \\  /    A nd           | Website:  www.openfoam.com                      |
|    \\/     M anipulation  |                                                 |
\*---------------------------------------------------------------------------*/
FoamFile
{
    version     2.0;
    format      ascii;
    class       volVectorField;
    location    "1000";
    object      U;
}
// * * * * * * * * * * * * * * * * * * * * * * * * * * * * * * * * * * * * * //

dimensions      [0 1 -1 0 0 0 0];


internalField   nonuniform List<vector> 
42840
(
(-4.59019e-05 3.64116e-05 0.113062)
(-5.39144e-05 0.000185502 0.107903)
(9.3663e-05 8.33668e-06 0.108406)
(-7.0291e-06 1.94152e-05 0.104967)
(4.0281e-06 -5.20309e-05 0.113319)
(-3.59637e-05 -0.00022629 0.107943)
(-3.58797e-05 -5.44724e-05 0.108125)
(-8.42949e-05 -0.000143416 0.104598)
(8.18087e-05 -3.80001e-05 0.113332)
(6.54896e-05 -5.35324e-06 0.108425)
(3.92287e-05 -1.56796e-05 0.107933)
(1.25138e-05 -5.4484e-05 0.104319)
(5.28681e-05 0.000137376 0.113103)
(-3.09811e-05 0.000171926 0.108076)
(1.71198e-05 2.25685e-05 0.107958)
(-8.13222e-05 2.24496e-05 0.104621)
(-4.55406e-05 1.82005e-05 0.113016)
(-3.48154e-05 -6.31653e-05 0.107832)
(-4.72637e-05 -1.08267e-05 0.108162)
(-4.24058e-05 -3.13449e-05 0.104663)
(9.81454e-06 -3.40067e-05 0.113073)
(6.0362e-06 -4.95645e-05 0.10803)
(7.04722e-06 -1.17653e-05 0.108104)
(-3.52711e-05 -9.44664e-05 0.104432)
(2.62595e-05 -1.27377e-05 0.113196)
(-3.76741e-06 2.60449e-05 0.108031)
(3.19518e-05 -1.58582e-05 0.107865)
(-3.23731e-05 -3.32614e-05 0.104286)
(-8.25227e-06 5.34824e-06 0.113228)
(2.56284e-06 2.58071e-05 0.107842)
(3.72873e-06 4.9346e-06 0.107771)
(-3.38874e-05 -1.17427e-05 0.104389)
(1.68083e-05 4.09534e-05 0.113128)
(2.54047e-06 3.40835e-06 0.107802)
(-1.42748e-05 1.26741e-05 0.107859)
(-4.54082e-05 -3.49038e-05 0.104419)
(1.27164e-05 1.33578e-05 0.113003)
(7.30434e-07 -1.45723e-05 0.10783)
(-1.83841e-06 2.03978e-06 0.107895)
(-3.02824e-05 -4.12268e-05 0.104342)
(-6.64747e-07 -1.8303e-05 0.112982)
(9.69455e-07 -6.03838e-06 0.107809)
(4.44892e-06 -4.86732e-06 0.107783)
(-2.92348e-05 -3.96216e-05 0.104288)
(-3.53125e-06 -6.30026e-06 0.113011)
(6.74158e-06 1.83974e-06 0.107754)
(-2.34144e-06 4.51292e-06 0.107715)
(-3.32549e-05 -2.84861e-05 0.104267)
(-1.95301e-06 8.17179e-06 0.112979)
(6.91849e-06 6.55479e-06 0.107707)
(7.73186e-07 1.00079e-05 0.107712)
(-3.4008e-05 -2.71127e-05 0.104271)
(-2.21555e-06 -6.72878e-07 0.11293)
(3.96344e-06 -2.98228e-06 0.107679)
(-3.18164e-06 4.81264e-06 0.107697)
(-2.98033e-05 -3.23968e-05 0.104262)
(-2.76869e-06 -5.79893e-06 0.1129)
(5.17783e-06 -8.06691e-06 0.107667)
(-3.48988e-06 4.99477e-06 0.107668)
(-3.11312e-05 -3.35889e-05 0.104239)
(-1.00557e-06 -4.81001e-06 0.112868)
(9.5669e-06 -4.18565e-06 0.107657)
(-5.14719e-06 7.53647e-06 0.107645)
(-3.04144e-05 -3.15825e-05 0.104217)
(-7.35949e-06 -3.23124e-06 0.112822)
(9.57749e-06 3.90475e-06 0.107619)
(1.80683e-06 1.15243e-05 0.107619)
(-2.76364e-05 -2.38842e-05 0.104221)
(-5.82073e-06 -6.21764e-06 0.11278)
(7.92112e-06 -9.75516e-06 0.107592)
(-7.93006e-06 7.0986e-06 0.107594)
(-2.98638e-05 -3.17348e-05 0.104207)
(-6.28444e-06 -7.23461e-06 0.11274)
(1.1166e-05 -4.88564e-06 0.107589)
(-5.24712e-06 1.11485e-05 0.107585)
(-2.73146e-05 -2.75505e-05 0.104197)
(-9.82962e-06 -9.09309e-06 0.112701)
(1.03384e-05 -1.75809e-06 0.107568)
(-2.29976e-06 1.06667e-05 0.107568)
(-2.79033e-05 -2.71902e-05 0.104203)
(-7.94255e-06 -8.11478e-06 0.112672)
(7.74052e-06 -5.88982e-06 0.107544)
(-4.92055e-06 7.44655e-06 0.107544)
(-2.7935e-05 -2.85891e-05 0.104191)
(-9.58698e-06 -1.01048e-05 0.112639)
(1.12748e-05 -7.79539e-06 0.107539)
(-8.62353e-06 1.12908e-05 0.107537)
(-2.76318e-05 -2.75675e-05 0.104189)
(-1.0193e-05 -9.01994e-06 0.112592)
(1.38386e-05 -2.68315e-06 0.107527)
(-2.79051e-06 1.42616e-05 0.107528)
(-2.5997e-05 -2.53133e-05 0.104196)
(-8.48258e-06 -9.00214e-06 0.11255)
(9.80463e-06 -4.3279e-06 0.107505)
(-4.11994e-06 9.83382e-06 0.107505)
(-2.62789e-05 -2.69772e-05 0.10419)
(-1.1954e-05 -1.26064e-05 0.112519)
(1.1316e-05 -1.11678e-05 0.107498)
(-1.05769e-05 1.08314e-05 0.107495)
(-2.6677e-05 -2.69415e-05 0.104189)
(-1.24399e-05 -1.19862e-05 0.11248)
(1.22835e-05 -2.70686e-06 0.107499)
(-3.48139e-06 1.27013e-05 0.107497)
(-2.85702e-05 -2.78992e-05 0.104198)
(-6.06725e-05 -2.71637e-05 0.104785)
(-4.21708e-05 2.77353e-05 0.108148)
(-0.000135225 7.0979e-05 0.108028)
(-4.83161e-05 9.85618e-05 0.104496)
(-9.97257e-07 1.86937e-05 0.108143)
(2.4733e-05 -3.1147e-05 0.108479)
(-2.39402e-05 0.000201906 0.108015)
(4.17977e-05 0.000148986 0.108309)
(1.42873e-05 3.84976e-05 0.105087)
(9.66793e-05 1.93034e-05 0.108466)
(9.02301e-05 7.06135e-05 0.1083)
(0.000100318 0.00013256 0.105101)
(3.31992e-05 5.95844e-05 0.104641)
(-5.53205e-05 -9.76956e-05 0.10501)
(-4.52611e-05 3.13816e-05 0.108188)
(-0.0001374 9.4674e-05 0.107913)
(-1.65321e-05 2.46476e-06 0.108322)
(4.89892e-05 2.96946e-05 0.107825)
(-0.000136322 0.000177095 0.104272)
(7.73762e-05 -0.000146996 0.104465)
(4.22373e-06 -1.17892e-06 0.10819)
(3.13827e-05 -4.54604e-05 0.108418)
(1.19441e-05 -6.8314e-05 0.108341)
(5.05517e-06 -6.22889e-05 0.10816)
(3.4091e-05 8.58874e-05 0.108389)
(-7.08757e-05 -0.00013207 0.107849)
(-4.02019e-05 -0.000158246 0.108337)
(9.82213e-05 -5.29261e-05 0.104863)
(-8.70856e-05 1.61379e-05 0.104715)
(4.20783e-05 6.24033e-05 0.108386)
(-1.89733e-05 -4.39076e-05 0.108185)
(-0.000106285 -4.61211e-05 0.108359)
(-1.13879e-05 -5.33207e-05 0.104845)
(4.43969e-05 -1.44637e-05 0.104858)
(8.12565e-06 -8.71202e-05 0.104895)
(1.5448e-05 -2.20057e-05 0.108341)
(0.000117086 -2.65412e-05 0.107909)
(9.82239e-05 -6.68573e-05 0.10827)
(9.85514e-05 -9.01835e-05 0.10833)
(2.07152e-05 -9.89355e-05 0.104403)
(9.12034e-05 -0.000104091 0.105206)
(1.33949e-05 -8.10111e-05 0.10837)
(-6.80357e-06 -6.99736e-05 0.108092)
(1.33696e-05 -2.78526e-05 0.108308)
(6.03983e-06 -4.68724e-05 0.107961)
(-4.55705e-05 -0.000183115 0.108204)
(6.01237e-05 -0.000129192 0.108348)
(1.42375e-05 -6.83506e-05 0.107874)
(-6.16848e-06 -7.41483e-05 0.104542)
(-2.90734e-05 1.82538e-05 0.104566)
(-8.73279e-05 -8.01012e-05 0.108235)
(1.73322e-05 -3.53792e-05 0.107974)
(5.46425e-05 -6.31559e-05 0.107911)
(9.8907e-05 1.16444e-05 0.104454)
(9.44645e-05 1.94202e-05 0.104684)
(-6.03076e-05 3.81926e-05 0.104454)
(0.000105531 -4.59557e-05 0.108206)
(2.91957e-05 -6.14428e-05 0.108424)
(1.34016e-05 7.32044e-05 0.107965)
(-8.77713e-05 6.48665e-05 0.108256)
(-1.56288e-05 2.48291e-05 0.105055)
(2.05915e-05 6.47464e-05 0.104683)
(1.80312e-05 2.57819e-05 0.108228)
(1.83791e-05 -1.47582e-05 0.107937)
(1.85113e-05 0.000119699 0.107927)
(3.94598e-05 7.12464e-05 0.107951)
(2.18846e-05 -7.30869e-06 0.107859)
(-2.53158e-06 0.000200945 0.108228)
(-1.78686e-05 0.000109956 0.108056)
(6.4367e-05 -5.25892e-05 0.104401)
(-7.49761e-06 9.364e-05 0.104563)
(7.12473e-05 -3.50756e-05 0.107885)
(3.98556e-05 2.22526e-05 0.107918)
(3.98384e-06 3.60538e-05 0.108024)
(1.58114e-05 0.000110541 0.104745)
(1.25745e-05 0.000117843 0.104286)
(-8.73779e-05 -5.69657e-05 0.104522)
(-2.88117e-05 8.79835e-05 0.107906)
(-7.50765e-05 8.6615e-05 0.108098)
(-7.50754e-05 3.34416e-05 0.10787)
(-2.09437e-07 3.48537e-05 0.107811)
(-6.02652e-05 0.000135144 0.104436)
(3.95249e-05 -6.92826e-05 0.104402)
(1.23577e-05 0.000104348 0.107861)
(3.47405e-05 7.87166e-05 0.107986)
(-4.42305e-06 -1.66185e-05 0.107855)
(-5.0334e-06 2.66403e-05 0.108113)
(-3.33437e-05 0.000111689 0.108136)
(-4.41037e-05 -2.0277e-05 0.107826)
(-2.64785e-05 3.10884e-05 0.108209)
(7.08659e-05 5.42912e-06 0.104434)
(-7.87424e-05 4.93411e-05 0.104793)
(-2.38067e-05 4.01738e-05 0.108093)
(-4.56008e-05 -2.31528e-06 0.108126)
(-3.18666e-05 1.30268e-05 0.108195)
(3.44381e-05 6.77901e-05 0.104833)
(6.32993e-06 1.53141e-05 0.10441)
(5.00908e-06 -5.27894e-05 0.104683)
(-5.19373e-05 5.89608e-06 0.107895)
(1.15287e-05 8.57543e-06 0.107807)
(4.70304e-05 -2.43303e-05 0.107993)
(1.35336e-05 -3.22939e-05 0.107956)
(-4.22676e-05 6.46521e-07 0.104286)
(3.76591e-05 -7.70844e-05 0.104704)
(-6.47728e-06 -4.06315e-05 0.107897)
(-1.5585e-05 -3.39693e-06 0.108138)
(1.16921e-05 -2.12953e-05 0.108022)
(-1.79479e-05 -5.273e-05 0.108122)
(-1.30604e-05 -6.42779e-06 0.108178)
(2.04897e-06 -7.22771e-05 0.107981)
(1.07111e-05 -8.72028e-05 0.10801)
(5.86144e-06 -4.73575e-05 0.104653)
(-5.98705e-05 1.63902e-05 0.104755)
(-2.07422e-05 1.44858e-06 0.108182)
(-9.49719e-06 -1.27547e-05 0.108146)
(-1.73917e-05 -2.6913e-05 0.108041)
(5.01829e-05 -1.20002e-05 0.104613)
(9.05549e-05 3.54115e-05 0.104522)
(-5.11644e-05 -6.41545e-05 0.104598)
(5.98124e-05 -1.63269e-05 0.108007)
(6.55226e-06 -2.6245e-05 0.108013)
(9.0059e-06 3.6373e-06 0.107995)
(-1.70609e-05 9.25747e-07 0.108066)
(-4.55252e-05 1.47613e-05 0.104572)
(4.26794e-05 -3.64902e-05 0.10468)
(2.00292e-05 -9.98048e-06 0.108036)
(-9.2601e-06 -5.34695e-05 0.108088)
(1.6615e-05 -2.05945e-05 0.108005)
(1.95196e-05 -3.4386e-05 0.107926)
(6.15157e-06 -8.96874e-05 0.10795)
(-2.92375e-07 1.59714e-05 0.108063)
(-1.18097e-05 -2.17109e-05 0.107828)
(3.04809e-05 -6.50036e-05 0.104574)
(-2.81598e-05 3.69701e-05 0.104497)
(-1.7927e-05 -3.25874e-05 0.10798)
(3.42273e-05 -1.75571e-05 0.107923)
(5.649e-06 -2.42182e-05 0.107837)
(4.73305e-05 3.80823e-05 0.104426)
(2.27289e-05 1.80258e-05 0.104447)
(-7.07421e-05 -4.59822e-05 0.104612)
(-1.54629e-05 3.42964e-06 0.107986)
(-2.02531e-05 6.24023e-06 0.108037)
(-2.89112e-05 -8.80033e-06 0.107971)
(-9.50621e-06 8.42604e-06 0.107888)
(-3.91874e-05 4.73624e-05 0.104504)
(4.97877e-05 -3.42052e-05 0.104481)
(7.52361e-06 -2.57272e-05 0.107988)
(2.0289e-05 -2.40964e-05 0.107871)
(-2.07131e-05 -5.9857e-07 0.107959)
(6.14611e-06 8.50001e-06 0.107779)
(-1.21218e-05 6.81252e-06 0.107816)
(-1.8805e-06 2.91533e-05 0.107881)
(2.79482e-06 4.43028e-05 0.107854)
(5.24084e-05 -4.1645e-05 0.104331)
(-3.60368e-05 5.00505e-05 0.104405)
(1.40759e-05 -1.39792e-05 0.107818)
(1.08263e-05 -5.29029e-08 0.107772)
(1.61473e-05 1.46841e-05 0.107842)
(4.9259e-05 7.23631e-05 0.104517)
(1.75785e-05 4.18421e-05 0.104461)
(-3.70527e-05 -2.38608e-05 0.10449)
(-1.32811e-05 -7.86976e-06 0.10796)
(-8.49768e-07 6.11301e-06 0.107849)
(1.82951e-05 9.1296e-06 0.107875)
(1.56447e-05 8.84638e-06 0.107803)
(-2.99673e-05 4.663e-05 0.104327)
(5.15327e-05 -3.43052e-05 0.104447)
(-2.08411e-05 1.77979e-05 0.107948)
(3.36781e-06 1.92293e-05 0.107778)
(-1.42894e-06 4.00321e-05 0.10787)
(3.26957e-07 3.74695e-05 0.107835)
(6.49239e-06 3.84164e-05 0.107876)
(4.87877e-06 1.0908e-05 0.107798)
(2.13337e-06 7.22383e-06 0.107913)
(4.21268e-05 -2.73752e-05 0.104272)
(-4.6744e-05 6.34713e-05 0.104512)
(9.05579e-06 1.8621e-05 0.107865)
(-1.23012e-05 1.32874e-05 0.10783)
(-1.34332e-05 1.22655e-05 0.107909)
(3.54623e-05 4.8056e-05 0.104566)
(4.2737e-05 5.3141e-05 0.104333)
(-3.76677e-05 -4.541e-05 0.104413)
(1.73453e-05 1.26473e-05 0.107838)
(1.60319e-05 9.11726e-06 0.107804)
(6.2609e-06 6.97143e-06 0.10776)
(3.96759e-06 -3.07582e-06 0.107816)
(-2.90811e-05 4.29109e-05 0.104312)
(4.27996e-05 -5.41576e-05 0.104486)
(4.1317e-06 3.35096e-05 0.107836)
(-1.25912e-06 3.35487e-05 0.10786)
(8.47163e-06 -2.33364e-07 0.107766)
(-7.99604e-06 -2.46984e-06 0.107892)
(-1.61089e-06 -3.33414e-07 0.107909)
(-9.76148e-08 -1.39417e-05 0.107826)
(-3.71032e-06 -1.17875e-05 0.107852)
(3.27347e-05 -1.89142e-05 0.104385)
(-5.24206e-05 4.13418e-05 0.104557)
(-1.65214e-05 7.09756e-06 0.107907)
(-6.73803e-06 4.65839e-06 0.107903)
(-5.26643e-06 -4.38809e-06 0.107859)
(4.69457e-05 3.88827e-05 0.104491)
(4.01358e-05 2.99262e-05 0.104277)
(-4.30937e-05 -5.57835e-05 0.104443)
(3.25039e-06 1.90213e-06 0.107751)
(-1.63692e-06 -7.37603e-06 0.107818)
(-3.1575e-06 -8.67656e-06 0.107762)
(-9.72438e-06 -1.01603e-05 0.107809)
(-3.79703e-05 2.46219e-05 0.104348)
(3.90827e-05 -5.08813e-05 0.104473)
(7.03309e-06 -1.03117e-05 0.10776)
(-8.96651e-06 -1.44863e-05 0.107882)
(2.85561e-07 -2.15198e-05 0.107771)
(-3.52725e-06 -2.44738e-05 0.107804)
(-9.14862e-07 -1.35575e-05 0.107828)
(1.36251e-06 -7.99977e-06 0.107819)
(5.48481e-06 -1.21314e-05 0.107772)
(2.82093e-05 -4.18318e-05 0.104407)
(-4.61825e-05 3.3987e-05 0.104444)
(5.5477e-07 -6.16331e-06 0.107837)
(5.75796e-06 -4.93817e-06 0.107814)
(6.58992e-06 -4.14332e-06 0.10778)
(4.96907e-05 3.6932e-05 0.104427)
(3.38138e-05 2.32193e-05 0.104311)
(-4.85742e-05 -4.52853e-05 0.104443)
(-4.60821e-06 -1.02471e-05 0.107771)
(-8.8938e-06 -8.86145e-06 0.107801)
(-3.54706e-06 -9.78997e-06 0.107777)
(2.9682e-08 -6.47693e-06 0.107768)
(-3.87978e-05 2.86537e-05 0.10433)
(4.75641e-05 -4.56968e-05 0.104431)
(-2.68698e-06 -1.90353e-05 0.107777)
(-2.37986e-06 -1.97925e-05 0.107776)
(-8.86915e-06 -1.83962e-06 0.107776)
(-3.21997e-06 1.31575e-06 0.107722)
(5.37317e-06 -9.01265e-06 0.10776)
(4.90436e-06 -1.16369e-06 0.107768)
(4.81734e-06 3.35241e-06 0.107733)
(3.25419e-05 -4.27709e-05 0.104295)
(-4.42864e-05 4.61899e-05 0.104389)
(5.39928e-06 -2.30623e-06 0.107766)
(-1.94432e-06 1.60997e-06 0.107723)
(1.60287e-06 4.55531e-06 0.107732)
(4.4371e-05 4.77519e-05 0.1044)
(2.90871e-05 3.39393e-05 0.104303)
(-4.79042e-05 -3.99078e-05 0.104398)
(-2.47642e-06 -7.67781e-06 0.107769)
(2.70411e-06 -5.58328e-06 0.107756)
(-3.20688e-06 -2.12357e-06 0.10773)
(5.04944e-06 -1.31997e-06 0.10772)
(-2.89987e-05 3.2904e-05 0.104291)
(4.82535e-05 -3.89075e-05 0.104393)
(-9.1696e-06 3.56923e-06 0.107767)
(-3.59784e-06 7.19532e-06 0.107716)
(-7.83481e-06 7.93787e-06 0.107728)
(-3.832e-06 1.20389e-05 0.107714)
(4.9026e-06 6.78324e-06 0.107728)
(7.78133e-06 7.71219e-06 0.107718)
(5.31121e-06 1.11363e-05 0.107721)
(3.31285e-05 -2.91964e-05 0.104256)
(-4.13271e-05 5.05501e-05 0.104398)
(7.78282e-07 6.66763e-06 0.107725)
(4.10235e-07 1.02337e-05 0.107712)
(2.23817e-07 1.09091e-05 0.107719)
(4.24249e-05 5.03941e-05 0.104402)
(2.93258e-05 3.62573e-05 0.104261)
(-4.3263e-05 -4.50856e-05 0.104376)
(-3.47474e-06 -2.08659e-06 0.107717)
(4.21077e-06 -1.08382e-06 0.107708)
(-1.50121e-06 -4.76339e-06 0.107689)
(6.86588e-07 -4.16247e-06 0.10768)
(-2.89933e-05 3.70199e-05 0.104257)
(4.24303e-05 -4.41687e-05 0.104369)
(-7.3448e-06 5.91813e-06 0.107716)
(-4.05876e-06 9.67811e-06 0.107713)
(-5.09156e-06 -2.23902e-06 0.107693)
(-5.27934e-06 1.51707e-06 0.107699)
(5.46517e-06 9.64056e-06 0.10772)
(4.52971e-06 -1.30248e-06 0.107684)
(5.86924e-06 1.36204e-06 0.107707)
(3.50039e-05 -2.70569e-05 0.104266)
(-4.56683e-05 4.38594e-05 0.104388)
(4.79409e-07 1.07585e-05 0.107719)
(-2.14599e-06 5.58747e-06 0.107703)
(2.14204e-06 6.16119e-06 0.10771)
(4.60539e-05 4.41667e-05 0.104394)
(3.30081e-05 3.04884e-05 0.104245)
(-4.42813e-05 -4.67204e-05 0.104376)
(-1.65166e-06 -5.34745e-06 0.107684)
(-7.07344e-09 -4.86488e-06 0.107675)
(-2.71736e-06 -6.83993e-06 0.107675)
(2.10878e-06 -6.5148e-06 0.107666)
(-3.39501e-05 3.14049e-05 0.104237)
(4.37833e-05 -4.7239e-05 0.104367)
(-4.39519e-06 -4.38263e-06 0.107688)
(-5.80051e-06 1.83745e-07 0.107692)
(-5.44268e-06 -6.23993e-06 0.107678)
(-7.24727e-06 -1.33115e-06 0.107671)
(6.08914e-06 3.12036e-07 0.107699)
(4.26608e-06 -6.6538e-06 0.10767)
(6.73848e-06 -1.01188e-06 0.107674)
(3.01406e-05 -3.27619e-05 0.104255)
(-4.56971e-05 4.23196e-05 0.104368)
(3.10836e-06 5.10912e-06 0.107703)
(-3.30393e-06 5.10121e-06 0.107675)
(2.5617e-06 5.3578e-06 0.107677)
(4.49204e-05 4.24819e-05 0.104371)
(3.14983e-05 2.90639e-05 0.104247)
(-4.27948e-05 -4.48935e-05 0.104361)
(-1.75105e-06 -7.75227e-06 0.107672)
(3.66032e-06 -7.62027e-06 0.107664)
(8.25664e-07 -8.6076e-06 0.107655)
(5.3973e-06 -1.03934e-05 0.107658)
(-3.09794e-05 2.76234e-05 0.104239)
(4.63818e-05 -4.7239e-05 0.10437)
(-6.24292e-06 -5.52675e-06 0.107674)
(-7.36317e-06 -1.01991e-06 0.107664)
(-6.28578e-06 -2.47639e-06 0.107657)
(-7.59456e-06 3.79333e-06 0.107648)
(6.85236e-06 -2.51258e-06 0.107666)
(8.77761e-06 -7.38368e-06 0.10766)
(5.68692e-06 -2.21311e-06 0.107641)
(2.98469e-05 -3.31102e-05 0.104237)
(-4.64372e-05 4.55377e-05 0.104357)
(1.30944e-06 5.25241e-06 0.107669)
(-5.70286e-06 5.92903e-06 0.10765)
(1.01948e-06 3.43691e-06 0.107643)
(4.3569e-05 4.15727e-05 0.104344)
(3.13433e-05 3.00955e-05 0.10423)
(-4.84404e-05 -4.42569e-05 0.104341)
(-4.73338e-07 -7.87837e-06 0.107647)
(4.22763e-06 -1.00091e-05 0.107655)
(-7.19756e-06 -7.56638e-06 0.107624)
(1.32805e-06 -7.04223e-06 0.10763)
(-2.86101e-05 2.86168e-05 0.104241)
(4.52824e-05 -4.07934e-05 0.104342)
(-6.35976e-06 -1.85088e-06 0.107649)
(-8.04866e-06 5.33481e-06 0.107643)
(-1.02966e-05 -2.27365e-06 0.107624)
(-8.79104e-06 4.48942e-06 0.107626)
(5.79498e-06 1.78831e-06 0.107633)
(1.01639e-05 4.39258e-06 0.107631)
(1.00898e-05 1.22162e-05 0.107622)
(2.84594e-05 -2.8486e-05 0.10423)
(-4.19291e-05 4.64093e-05 0.104343)
(3.03339e-06 4.44093e-06 0.107635)
(1.11192e-06 1.18863e-05 0.107627)
(7.36514e-06 1.2667e-05 0.107622)
(4.68839e-05 5.09322e-05 0.104345)
(2.56372e-05 2.95734e-05 0.104214)
(-4.39307e-05 -4.54369e-05 0.104329)
(-7.72982e-06 -8.42105e-06 0.107617)
(1.52723e-06 -6.39244e-06 0.107618)
(-3.10218e-06 -9.88124e-06 0.107601)
(4.6023e-06 -8.4185e-06 0.10759)
(-2.89005e-05 3.29846e-05 0.104211)
(4.45152e-05 -4.70809e-05 0.104319)
(-1.14573e-05 -2.93291e-06 0.107617)
(-8.3978e-06 3.47372e-06 0.107618)
(-9.61323e-06 -4.12324e-06 0.107603)
(-8.05277e-06 3.12709e-06 0.107594)
(1.10592e-05 1.07958e-05 0.107621)
(7.77951e-06 -6.70419e-06 0.107594)
(9.27838e-06 1.08261e-07 0.107609)
(3.23003e-05 -2.82249e-05 0.104214)
(-4.62382e-05 4.378e-05 0.104322)
(6.12203e-06 1.38734e-05 0.107621)
(-5.11573e-06 7.47523e-06 0.107598)
(1.07727e-06 9.07321e-06 0.107611)
(4.37018e-05 4.23008e-05 0.104333)
(3.02027e-05 2.82001e-05 0.104204)
(-4.36977e-05 -4.43317e-05 0.104318)
(-1.60182e-06 -9.69315e-06 0.107595)
(5.62725e-06 -1.00057e-05 0.107587)
(-2.64176e-06 -9.04888e-06 0.107578)
(6.38215e-06 -1.15423e-05 0.107588)
(-2.90644e-05 2.57213e-05 0.104197)
(4.58665e-05 -4.60496e-05 0.104332)
(-8.46358e-06 -3.98857e-06 0.107598)
(-9.02656e-06 3.94767e-06 0.10759)
(-8.25383e-06 -3.87337e-06 0.107581)
(-1.11933e-05 6.22405e-06 0.107585)
(8.35726e-06 -1.01792e-06 0.107601)
(1.02947e-05 -7.45393e-06 0.107591)
(8.69847e-06 4.09661e-06 0.107578)
(2.66306e-05 -2.98404e-05 0.104199)
(-4.62099e-05 4.60457e-05 0.104328)
(1.23989e-06 7.24957e-06 0.107603)
(-7.2821e-06 9.99045e-06 0.107588)
(5.3049e-06 7.9362e-06 0.107581)
(4.55157e-05 4.48727e-05 0.104318)
(2.88397e-05 2.86468e-05 0.104195)
(-4.59248e-05 -4.50748e-05 0.104319)
(-4.16212e-06 -9.01406e-06 0.107574)
(6.21984e-06 -1.07816e-05 0.107587)
(-6.80072e-06 -1.02274e-05 0.107566)
(3.26335e-06 -9.38306e-06 0.107572)
(-2.71166e-05 2.7974e-05 0.10421)
(4.42269e-05 -4.28409e-05 0.104323)
(-8.84749e-06 -4.40187e-06 0.107576)
(-1.07772e-05 6.53957e-06 0.107583)
(-1.09047e-05 -5.79388e-06 0.107567)
(-9.77041e-06 4.04588e-06 0.107571)
(9.75236e-06 6.10719e-06 0.107575)
(1.13238e-05 -1.37708e-06 0.107574)
(1.1564e-05 6.83381e-06 0.10757)
(2.7711e-05 -2.68406e-05 0.104207)
(-4.3265e-05 4.45856e-05 0.104323)
(6.37494e-06 9.54672e-06 0.107576)
(-2.20315e-06 1.16903e-05 0.107573)
(5.86302e-06 1.22251e-05 0.107571)
(4.50072e-05 4.58497e-05 0.104323)
(2.69593e-05 2.76869e-05 0.104198)
(-4.39518e-05 -4.4402e-05 0.104314)
(-6.35682e-06 -1.06545e-05 0.107563)
(1.8386e-06 -9.57303e-06 0.107565)
(-4.19626e-06 -9.81551e-06 0.107554)
(2.67314e-06 -9.14399e-06 0.107546)
(-2.91524e-05 2.96083e-05 0.104199)
(4.30581e-05 -4.45936e-05 0.104305)
(-1.12482e-05 -5.47368e-06 0.107565)
(-9.94509e-06 2.35211e-06 0.107565)
(-9.71952e-06 -4.5959e-06 0.107556)
(-9.18069e-06 1.99355e-06 0.107546)
(1.10756e-05 5.67234e-06 0.107568)
(7.74515e-06 -4.76748e-06 0.107549)
(9.56484e-06 3.54941e-06 0.107553)
(2.92573e-05 -2.88738e-05 0.1042)
(-4.42148e-05 4.26567e-05 0.104304)
(4.83517e-06 1.16764e-05 0.107569)
(-4.10528e-06 7.73405e-06 0.107549)
(3.97934e-06 9.4244e-06 0.107555)
(4.44451e-05 4.39675e-05 0.104311)
(2.85737e-05 2.7944e-05 0.104193)
(-4.53772e-05 -4.56495e-05 0.104315)
(-4.16821e-06 -9.27769e-06 0.107551)
(4.46034e-06 -8.76662e-06 0.107542)
(-6.03739e-06 -1.06224e-05 0.107541)
(7.21823e-06 -1.08457e-05 0.107537)
(-2.87909e-05 2.76038e-05 0.104185)
(4.55253e-05 -4.62862e-05 0.104314)
(-8.90495e-06 -5.04332e-06 0.107553)
(-8.44985e-06 3.4753e-06 0.107541)
(-1.01441e-05 -6.54248e-06 0.107543)
(-1.04086e-05 7.51747e-06 0.107535)
(9.28552e-06 3.14037e-06 0.107547)
(1.02525e-05 -8.24559e-06 0.10754)
(9.19511e-06 4.09564e-06 0.107534)
(2.81385e-05 -2.93118e-05 0.104184)
(-4.6474e-05 4.58159e-05 0.104311)
(4.02879e-06 8.88424e-06 0.107549)
(-8.48027e-06 9.86114e-06 0.107537)
(4.55356e-06 8.76968e-06 0.107535)
(4.38786e-05 4.36639e-05 0.104306)
(2.62323e-05 2.62687e-05 0.104197)
(-4.43734e-05 -4.34222e-05 0.104311)
(-6.27204e-06 -1.17048e-05 0.107538)
(6.85111e-06 -1.21161e-05 0.107537)
(-4.81288e-06 -1.24011e-05 0.107527)
(6.74788e-06 -1.29344e-05 0.10753)
(-2.63506e-05 2.55574e-05 0.104197)
(4.60919e-05 -4.37999e-05 0.104316)
(-1.16121e-05 -6.06165e-06 0.10754)
(-1.20431e-05 7.69968e-06 0.107535)
(-1.33035e-05 -3.66593e-06 0.107529)
(-1.354e-05 7.17642e-06 0.107531)
(9.84008e-06 5.44312e-06 0.107531)
(1.40009e-05 -4.18593e-06 0.107532)
(1.29813e-05 8.04344e-06 0.107525)
(2.51517e-05 -2.58693e-05 0.104195)
(-4.40021e-05 4.62299e-05 0.104317)
(5.21024e-06 9.83026e-06 0.107532)
(-4.62684e-06 1.46036e-05 0.107532)
(6.87222e-06 1.3814e-05 0.107526)
(4.53049e-05 4.62495e-05 0.104312)
(2.72252e-05 2.79311e-05 0.104192)
(-4.42662e-05 -4.49321e-05 0.104298)
(-4.07708e-06 -1.15183e-05 0.107522)
(6.27644e-06 -1.16821e-05 0.107526)
(-5.17012e-06 -1.06081e-05 0.107506)
(4.14245e-06 -9.78314e-06 0.107507)
(-2.5289e-05 2.80036e-05 0.104197)
(4.35187e-05 -4.32113e-05 0.104299)
(-1.22407e-05 -3.37393e-06 0.107524)
(-1.22299e-05 6.40665e-06 0.107526)
(-1.02619e-05 -5.85046e-06 0.107508)
(-9.79097e-06 3.94699e-06 0.107508)
(1.33356e-05 7.47252e-06 0.107523)
(1.09597e-05 -3.05512e-06 0.10751)
(1.16404e-05 5.18885e-06 0.107514)
(2.79555e-05 -2.53101e-05 0.104199)
(-4.33104e-05 4.35589e-05 0.104299)
(6.7813e-06 1.40008e-05 0.107524)
(-2.9193e-06 1.09132e-05 0.107511)
(5.93562e-06 1.12695e-05 0.107516)
(4.4985e-05 4.4292e-05 0.104307)
(2.6899e-05 2.62324e-05 0.104182)
(-4.4959e-05 -4.53177e-05 0.104305)
(-5.46682e-06 -1.05252e-05 0.107501)
(3.674e-06 -9.72749e-06 0.107502)
(-7.2268e-06 -1.07489e-05 0.107497)
(6.877e-06 -1.1288e-05 0.107494)
(-2.80569e-05 2.75308e-05 0.104182)
(4.45959e-05 -4.6883e-05 0.104303)
(-1.0112e-05 -6.22398e-06 0.107503)
(-9.81003e-06 3.41857e-06 0.107501)
(-1.03967e-05 -7.85395e-06 0.107499)
(-1.07538e-05 5.9639e-06 0.107491)
(1.11234e-05 4.92834e-06 0.107509)
(9.67056e-06 -9.77445e-06 0.107497)
(1.03135e-05 4.87553e-06 0.107497)
(2.74153e-05 -2.79829e-05 0.104182)
(-4.61441e-05 4.39688e-05 0.104299)
(5.72513e-06 1.06575e-05 0.107511)
(-8.81674e-06 9.23966e-06 0.107495)
(5.43764e-06 9.98778e-06 0.107499)
(4.40672e-05 4.37612e-05 0.104302)
(2.53976e-05 2.50935e-05 0.104192)
(-4.32161e-05 -4.26137e-05 0.104318)
(-8.56196e-06 -1.22802e-05 0.107497)
(8.32312e-06 -1.30851e-05 0.107495)
(-5.45846e-06 -1.38155e-05 0.107497)
(5.03019e-06 -1.40456e-05 0.107497)
(-2.5686e-05 2.35281e-05 0.104191)
(4.28587e-05 -4.27724e-05 0.10432)
(-1.19539e-05 -9.01948e-06 0.107499)
(-1.24711e-05 7.77239e-06 0.107492)
(-1.41539e-05 -4.82439e-06 0.107498)
(-1.43232e-05 5.9984e-06 0.107495)
(1.11036e-05 5.67103e-06 0.107495)
(1.34414e-05 -5.51294e-06 0.107499)
(1.24737e-05 5.88147e-06 0.10749)
(2.4152e-05 -2.61891e-05 0.104188)
(-4.34839e-05 4.35211e-05 0.104318)
(6.06732e-06 1.08419e-05 0.107496)
(-6.465e-06 1.36612e-05 0.107497)
(5.25119e-06 1.27923e-05 0.107492)
(4.27911e-05 4.33984e-05 0.104311)
(2.87457e-05 2.94203e-05 0.104203)
(-3.24237e-06 -1.20071e-05 0.107496)
(3.73963e-06 -1.19753e-05 0.107497)
(-2.85873e-05 2.92226e-05 0.104205)
(-1.25235e-05 -2.35524e-06 0.107497)
(-1.24378e-05 4.54105e-06 0.107495)
(1.15378e-05 5.3043e-06 0.10749)
(2.86533e-05 -2.806e-05 0.104204)
(4.40809e-06 1.20391e-05 0.107491)
(4.14818e-06 -1.74316e-05 0.0910393)
(2.08473e-05 -1.28369e-05 0.0815941)
(0.000114867 4.24709e-05 0.071053)
(-9.23703e-06 -9.23582e-06 0.0910104)
(4.79895e-07 1.70686e-06 0.0815932)
(-4.6947e-05 4.65761e-05 0.11302)
(-0.000109265 0.000170171 0.11313)
(3.51244e-05 2.17462e-05 0.113334)
(5.38459e-05 0.000145164 0.113081)
(1.80573e-05 6.54253e-05 0.0985535)
(7.70857e-06 0.000105757 0.108276)
(6.37302e-05 -1.47831e-06 0.0927304)
(-1.49163e-05 0.000128347 0.110858)
(1.6558e-06 3.89711e-05 0.0706664)
(5.68036e-05 8.15222e-06 0.0985686)
(1.47011e-05 2.495e-05 0.108481)
(-1.06091e-05 2.09021e-06 0.110831)
(2.75265e-05 4.41093e-05 0.0926821)
(0.000101359 0.000156057 0.104864)
(2.03598e-05 -5.74208e-05 0.0870052)
(-4.60048e-05 1.3138e-05 0.0869795)
(4.21959e-05 8.15411e-06 0.0909553)
(4.38019e-05 -1.70705e-05 0.0815298)
(2.53397e-05 1.53404e-06 0.0909567)
(5.09907e-05 -2.0147e-05 0.0815665)
(2.88508e-05 6.55532e-06 0.0713738)
(-7.31361e-05 -2.94844e-05 0.0713244)
(-1.11919e-05 5.92034e-06 0.0909808)
(-1.13e-06 2.1137e-05 0.0815198)
(-9.92701e-07 1.82683e-08 0.0909565)
(-1.38429e-05 3.32886e-05 0.0815445)
(-0.000119045 0.000176997 0.113008)
(5.87103e-05 -5.18671e-06 0.11335)
(4.98432e-05 0.00013028 0.113133)
(-1.59955e-05 -2.59038e-05 0.11326)
(-5.33081e-05 9.08625e-06 0.112881)
(4.71456e-05 -8.70494e-05 0.113297)
(-7.50429e-05 -8.27701e-05 0.113292)
(4.37085e-06 -7.32593e-05 0.0985558)
(-4.79739e-05 -6.90076e-05 0.0925765)
(-9.0084e-06 0.000186505 0.110659)
(-8.03957e-05 0.000113895 0.107828)
(1.04319e-05 1.5688e-05 0.0985258)
(-8.32919e-05 -6.23959e-05 0.0925778)
(-3.61574e-05 0.000126434 0.11064)
(6.06584e-06 2.36604e-05 0.0708856)
(1.50475e-06 1.43377e-05 0.0710096)
(-4.21252e-05 5.34259e-05 0.0985942)
(0.000101985 2.23608e-05 0.110844)
(-4.86406e-05 2.94486e-06 0.0925741)
(6.25744e-05 -8.59903e-06 0.108331)
(1.87716e-05 2.40976e-05 0.0985348)
(8.07239e-05 1.20469e-05 0.110846)
(-8.13266e-05 1.16849e-05 0.0926307)
(6.94113e-05 6.17315e-06 0.0869445)
(2.34139e-05 5.67834e-05 0.0869155)
(1.51537e-05 2.81644e-05 0.105125)
(4.52279e-05 5.18345e-05 0.0869994)
(7.80064e-05 3.00259e-05 0.0869798)
(5.16639e-06 6.20083e-06 0.0909574)
(2.54633e-05 1.91494e-05 0.0814809)
(3.62811e-05 4.24483e-05 0.0908931)
(-2.52388e-05 1.06506e-05 0.0815038)
(-0.00013342 -2.20406e-05 0.0705732)
(-4.3389e-05 -1.07611e-05 0.0703506)
(-1.23241e-05 5.57455e-06 0.0909851)
(1.36217e-06 1.45904e-05 0.0814807)
(8.57998e-06 3.61748e-06 0.0909435)
(-1.4569e-05 -1.63406e-05 0.0815332)
(2.98217e-06 -8.13419e-05 0.112911)
(3.19189e-05 -0.00010635 0.113245)
(-9.23046e-05 -0.000146233 0.113298)
(6.20941e-05 -7.30615e-05 0.113363)
(0.000113548 -0.00017797 0.11313)
(2.72729e-05 -9.27749e-05 0.113054)
(-8.2614e-07 -0.000136643 0.113112)
(-3.53766e-05 -7.18257e-05 0.0984414)
(-9.14677e-05 3.99191e-05 0.0925615)
(-6.67231e-05 -0.000213734 0.110664)
(4.5641e-06 -0.000258774 0.108075)
(-6.94294e-05 -0.000133609 0.0984034)
(2.32729e-05 7.90191e-05 0.0927136)
(-4.70774e-05 -0.000269166 0.110672)
(1.62758e-05 1.71332e-05 0.071006)
(9.74955e-06 2.80845e-05 0.0710615)
(-4.45201e-06 3.15417e-06 0.0984792)
(-4.28048e-05 -4.95343e-05 0.110815)
(-4.20198e-05 -1.2603e-05 0.0926166)
(-2.97429e-05 -5.72337e-05 0.108071)
(-5.71215e-05 2.13692e-06 0.0984636)
(-4.59812e-05 -6.09946e-05 0.110775)
(-7.81739e-06 1.02472e-05 0.0926732)
(-3.26601e-05 9.77548e-06 0.0870348)
(4.0477e-05 -4.09605e-05 0.0870502)
(5.54242e-05 -4.41331e-05 0.104535)
(-3.72588e-05 -6.82348e-06 0.087071)
(5.50255e-06 -3.84423e-05 0.0871037)
(-5.54254e-05 -6.75335e-05 0.0910327)
(-9.38843e-05 7.41102e-06 0.0815635)
(-4.5955e-05 -4.04805e-05 0.0909877)
(-8.91359e-05 -1.70445e-05 0.081724)
(8.73111e-05 1.40964e-05 0.0706038)
(9.7931e-05 5.99414e-06 0.0710811)
(-3.20908e-05 6.42778e-06 0.0909863)
(-5.01001e-06 -5.35615e-05 0.0816035)
(-1.72804e-05 1.31646e-05 0.0909572)
(-1.33058e-05 -4.96834e-05 0.081738)
(9.88978e-05 -0.000123276 0.113207)
(3.47494e-05 -6.05904e-05 0.113001)
(3.56131e-05 -8.1974e-05 0.113045)
(8.13478e-05 0.000116766 0.113161)
(-4.4229e-05 0.000133632 0.113334)
(4.01931e-05 4.79262e-05 0.112964)
(2.79449e-05 6.47515e-05 0.113029)
(7.1548e-05 0.000130588 0.0985441)
(0.0001017 5.55974e-05 0.0927082)
(3.44911e-05 -8.47346e-05 0.110705)
(5.43849e-05 0.000110517 0.108433)
(1.34448e-05 8.68944e-05 0.0984413)
(0.00010546 -1.79247e-05 0.0927005)
(4.2214e-05 4.29543e-05 0.110728)
(2.04553e-06 6.99076e-06 0.0710615)
(-1.45239e-05 -1.48684e-05 0.0711022)
(3.61405e-05 -7.24181e-07 0.0984322)
(3.43917e-05 -3.53322e-05 0.110597)
(3.75727e-05 -1.49382e-05 0.0925752)
(5.18957e-05 2.86835e-06 0.107907)
(5.02431e-05 -3.49132e-05 0.0983696)
(5.26726e-05 -1.66613e-05 0.11055)
(2.69605e-05 4.76968e-06 0.0926108)
(-1.83743e-05 -1.10461e-05 0.0870027)
(-4.68592e-05 3.20111e-06 0.0870296)
(6.99136e-05 7.57469e-05 0.104574)
(4.12304e-06 1.34284e-05 0.0870244)
(-3.47885e-05 2.74889e-05 0.0870292)
(3.88912e-06 1.95971e-05 0.0909754)
(8.40076e-06 -1.56742e-06 0.0817956)
(-2.36926e-05 -5.44985e-06 0.0909629)
(5.42602e-05 -7.62546e-06 0.0817979)
(1.37143e-06 3.71821e-06 0.0713764)
(-4.1026e-05 -8.84356e-06 0.0713082)
(1.55671e-05 -2.20968e-05 0.0909668)
(1.23364e-05 7.78519e-06 0.0817654)
(9.30904e-06 -1.34106e-05 0.0909363)
(5.23921e-06 3.326e-05 0.0817715)
(-7.57307e-05 0.00017454 0.113318)
(3.11836e-05 6.63042e-05 0.113)
(9.4546e-07 8.41397e-05 0.113087)
(-3.52801e-05 6.06843e-05 0.11302)
(-5.93027e-05 8.93346e-05 0.113138)
(-1.73719e-05 4.8204e-05 0.113183)
(-4.69179e-05 4.91157e-05 0.113286)
(1.12251e-06 -1.98118e-05 0.09844)
(-2.10172e-05 -5.21168e-05 0.0925523)
(-1.02507e-05 0.000219851 0.110743)
(-4.61285e-05 0.000112643 0.107946)
(1.89929e-05 5.04044e-05 0.0984406)
(-4.60334e-05 -3.60687e-05 0.0926004)
(-3.80591e-05 0.000176546 0.110705)
(-1.51358e-05 -5.30365e-05 0.070976)
(-1.54903e-05 -4.86326e-05 0.0708967)
(-2.98326e-05 4.1842e-06 0.0984661)
(1.86425e-05 9.78414e-06 0.110548)
(1.63128e-05 -2.65952e-05 0.0925671)