/*--------------------------------*- C++ -*----------------------------------*\
| =========                 |                                                 |
| \\      /  F ield         | OpenFOAM: The Open Source CFD Toolbox           |
|  \\    /   O peration     | Version:  v2006                                 |
|   \\  /    A nd           | Website:  www.openfoam.com                      |
|    \\/     M anipulation  |                                                 |
\*---------------------------------------------------------------------------*/
FoamFile
{
    version     2.0;
    format      ascii;
    class       volScalarField;
    location    "250";
    object      epsilon;
}
// * * * * * * * * * * * * * * * * * * * * * * * * * * * * * * * * * * * * * //

dimensions      [0 2 -3 0 0 0 0];


internalField   nonuniform List<scalar> 
14404
(
1.09655e-06
1.09646e-06
1.39552e-06
5.40461e-07
1.94406e-05
3.75219e-06
9.77651e-06
4.35826e-06
8.0423e-07
3.75254e-06
2.33661e-06
5.8043e-06
5.80267e-06
1.94388e-05
9.7765e-06
7.41866e-06
2.31859e-05
1.14449e-05
5.0214e-06
1.28879e-05
3.05705e-06
1.01663e-05
4.84952e-06
4.84326e-06
3.05593e-06
1.01615e-05
5.80241e-06
3.05574e-06
4.84356e-06
1.01619e-05
2.28119e-05
2.28126e-05
1.0209e-05
1.94402e-05
9.77675e-06
7.41953e-06
2.90044e-06
1.98073e-06
1.98059e-06
1.39341e-06
1.97974e-06
2.90079e-06
1.97991e-06
3.41455e-07
1.84775e-06
2.25177e-06
3.75181e-06
2.25117e-06
3.10381e-06
2.25195e-06
3.104e-06
1.84921e-06
1.50636e-06
2.59583e-06
1.63579e-06
4.35803e-06
9.77577e-06
9.7772e-06
1.94383e-05
1.94416e-05
1.39329e-06
5.80199e-06
5.80386e-06
2.33635e-06
1.09651e-06
3.75163e-06
8.04215e-07
1.09635e-06
3.75215e-06
1.28875e-05
4.35815e-06
1.14451e-05
5.02129e-06
1.14448e-05
5.02143e-06
1.2888e-05
2.31852e-05
7.41947e-06
9.77554e-06
7.41985e-06
2.31878e-05
9.77698e-06
1.9442e-05
1.94369e-05
1.94402e-05
1.02085e-05
2.28139e-05
2.28133e-05
2.2812e-05
2.28113e-05
1.02079e-05
4.84332e-06
1.01614e-05
5.80228e-06
3.05556e-06
1.01611e-05
4.84302e-06
3.05575e-06
4.84935e-06
1.01666e-05
5.80414e-06
3.05678e-06
1.01663e-05
4.84903e-06
3.05696e-06
2.31886e-05
9.77673e-06
7.41827e-06
1.28884e-05
4.35808e-06
1.14452e-05
5.02119e-06
4.84922e-06
5.80393e-06
1.01665e-05
3.05683e-06
1.02085e-05
2.2814e-05
2.28146e-05
2.90063e-06
1.39542e-06
1.97959e-06
1.97985e-06
2.90031e-06
1.98043e-06
1.98068e-06
1.63582e-06
2.33663e-06
2.59559e-06
1.50505e-06
2.59594e-06
1.50632e-06
1.63398e-06
1.84926e-06
3.10377e-06
3.75201e-06
2.25108e-06
3.10426e-06
2.25166e-06
1.8477e-06
3.75253e-06
2.2514e-06
2.25198e-06
1.8476e-06
3.75214e-06
3.10349e-06
2.25136e-06
1.6339e-06
2.33631e-06
1.50506e-06
2.59543e-06
1.39283e-06
1.09606e-06
1.09609e-06
1.395e-06
1.0962e-06
5.40026e-07
9.77501e-06
1.94351e-05
1.94329e-05
1.94381e-05
1.94356e-05
1.39487e-06
5.80117e-06
5.80251e-06
5.80116e-06
5.80254e-06
4.35703e-06
9.7734e-06
9.77271e-06
4.35713e-06
4.35695e-06
9.7726e-06
4.35705e-06
2.33596e-06
1.09606e-06
3.75075e-06
8.03922e-07
3.75091e-06
8.03884e-07
2.3358e-06
2.33589e-06
1.09606e-06
8.03856e-07
3.75116e-06
8.03821e-07
2.33573e-06
1.94343e-05
1.39481e-06
5.80221e-06
5.80077e-06
1.94333e-05
4.35717e-06
9.77498e-06
9.77398e-06
4.35724e-06
2.33595e-06
1.09602e-06
3.7514e-06
8.03945e-07
3.75158e-06
8.03852e-07
2.33583e-06
4.3572e-06
9.77365e-06
4.3572e-06
2.3359e-06
1.09614e-06
8.03932e-07
8.03867e-07
3.75145e-06
2.33578e-06
2.33599e-06
1.09596e-06
3.75087e-06
8.03887e-07
4.35704e-06
9.77312e-06
2.33594e-06
1.09619e-06
8.03943e-07
3.751e-06
4.35693e-06
9.77334e-06
1.94363e-05
1.39492e-06
5.80281e-06
5.80119e-06
1.94346e-05
2.33601e-06
1.09607e-06
8.03939e-07
3.75108e-06
2.33598e-06
1.09602e-06
8.03921e-07
3.75155e-06
4.35722e-06
9.77365e-06
4.35708e-06
9.77428e-06
1.39505e-06
5.80118e-06
5.80283e-06
1.9435e-05
1.94374e-05
1.9434e-05
1.94371e-05
5.80155e-06
5.80289e-06
3.75184e-06
2.3179e-05
7.41777e-06
7.41802e-06
2.31821e-05
2.31848e-05
7.41892e-06
9.77539e-06
2.31818e-05
7.41867e-06
1.94335e-05
1.94345e-05
1.94366e-05
1.94375e-05
1.02061e-05
2.28064e-05
2.28086e-05
1.02066e-05
2.28085e-05
2.28106e-05
4.84335e-06
3.05474e-06
5.80138e-06
1.01599e-05
1.01595e-05
3.05488e-06
4.843e-06
4.8471e-06
3.05636e-06
5.80271e-06
1.01638e-05
1.01633e-05
3.05659e-06
4.84694e-06
4.84306e-06
1.01593e-05
3.05465e-06
5.80097e-06
4.84342e-06
1.01596e-05
3.05451e-06
4.84659e-06
1.01627e-05
3.05662e-06
5.80233e-06
4.84673e-06
1.01632e-05
3.05638e-06
1.02067e-05
2.28089e-05
2.28106e-05
2.28068e-05
2.28087e-05
1.02062e-05
1.2885e-05
1.1442e-05
5.02011e-06
4.35696e-06
1.28843e-05
1.14425e-05
5.02e-06
2.31804e-05
9.77305e-06
7.41805e-06
2.31833e-05
7.41834e-06
2.31825e-05
7.41813e-06
9.77311e-06
2.31795e-05
7.41783e-06
1.28848e-05
4.3572e-06
1.1443e-05
5.02022e-06
1.28855e-05
1.14425e-05
5.02031e-06
1.28853e-05
1.14419e-05
5.0199e-06
4.35688e-06
1.28846e-05
1.14424e-05
5.01984e-06
2.31838e-05
7.41695e-06
9.77301e-06
2.31808e-05
7.41671e-06
1.28852e-05
4.35712e-06
1.14428e-05
5.02006e-06
1.14424e-05
5.02013e-06
1.28859e-05
1.94361e-05
1.0205e-05
2.28052e-05
2.28053e-05
1.02054e-05
2.28074e-05
2.28075e-05
4.84711e-06
1.0162e-05
3.05599e-06
5.80193e-06
3.05577e-06
4.84736e-06
1.01625e-05
4.84205e-06
1.01584e-05
3.05481e-06
5.80064e-06
4.84228e-06
1.01589e-05
3.05469e-06
1.9435e-05
1.28853e-05
5.02019e-06
1.14422e-05
4.35709e-06
1.28846e-05
5.02012e-06
1.14428e-05
2.31809e-05
9.77454e-06
7.41839e-06
2.31839e-05
7.41864e-06
2.3183e-05
7.41835e-06
9.77449e-06
2.318e-05
7.41811e-06
1.28851e-05
4.35733e-06
5.02033e-06
1.14433e-05
1.28858e-05
5.02041e-06
1.14428e-05
1.28855e-05
1.14421e-05
5.02007e-06
4.35704e-06
1.28847e-05
1.14426e-05
5.01989e-06
2.31835e-05
7.41689e-06
9.77408e-06
2.31804e-05
7.41662e-06
1.28853e-05
4.35735e-06
1.14431e-05
5.02013e-06
1.14426e-05
5.02029e-06
1.2886e-05
1.2885e-05
5.02014e-06
1.14424e-05
4.357e-06
1.28842e-05
5.02e-06
1.1443e-05
2.31823e-05
7.41814e-06
9.77359e-06
2.31788e-05
7.41777e-06
1.28852e-05
1.14422e-05
5.01984e-06
4.3569e-06
1.28845e-05
1.14427e-05
5.01979e-06
2.31833e-05
7.41664e-06
9.77377e-06
2.31802e-05
7.41644e-06
1.9438e-05
1.02064e-05
2.28076e-05
2.28082e-05
1.02069e-05
2.28096e-05
2.28103e-05
4.84796e-06
1.01634e-05
3.05619e-06
5.80257e-06
3.05603e-06
4.84817e-06
1.01638e-05
4.842e-06
1.01586e-05
3.05508e-06
5.80101e-06
4.84225e-06
1.01591e-05
3.05489e-06
1.94363e-05
1.28849e-05
5.02034e-06
1.14422e-05
4.3571e-06
1.28841e-05
5.02011e-06
1.14428e-05
2.31824e-05
7.4183e-06
9.77413e-06
2.3179e-05
7.4179e-06
1.28858e-05
5.02008e-06
1.14424e-05
4.35702e-06
1.28851e-05
5.02002e-06
1.14429e-05
2.31846e-05
7.41726e-06
9.77469e-06
2.31816e-05
7.41702e-06
1.02073e-05
2.28092e-05
2.2809e-05
1.0208e-05
2.28115e-05
2.2811e-05
4.84257e-06
1.01592e-05
3.05517e-06
5.801e-06
4.84297e-06
3.05498e-06
1.01597e-05
4.8481e-06
1.01639e-05
3.05647e-06
5.80264e-06
4.84842e-06
3.05626e-06
1.01643e-05
1.94367e-05
1.9439e-05
1.94356e-05
1.94387e-05
4.84297e-06
3.05504e-06
1.01597e-05
5.80135e-06
4.8433e-06
1.01601e-05
3.05489e-06
4.84721e-06
3.05656e-06
1.01637e-05
5.80268e-06
4.84737e-06
1.01641e-05
3.05633e-06
1.02063e-05
2.28071e-05
2.28087e-05
1.02068e-05
2.28092e-05
2.28106e-05
2.89995e-06
1.39495e-06
1.97882e-06
1.97971e-06
1.97962e-06
1.98057e-06
2.8996e-06
2.89968e-06
1.97972e-06
1.98055e-06
1.39288e-06
2.9e-06
1.97893e-06
1.9797e-06
5.39983e-07
3.41079e-07
3.41083e-07
3.41054e-07
3.4102e-07
1.82518e-07
1.82567e-07
5.39962e-07
3.41081e-07
3.41056e-07
3.41011e-07
1.82501e-07
1.82539e-07
5.40043e-07
3.41159e-07
3.41109e-07
3.41057e-07
1.82546e-07
1.8258e-07
5.40061e-07
3.41131e-07
3.41061e-07
1.82555e-07
1.82589e-07
2.89955e-06
1.39277e-06
1.9795e-06
1.98055e-06
2.8999e-06
1.9787e-06
1.97972e-06
1.63349e-06
2.5952e-06
1.50584e-06
2.3357e-06
1.63533e-06
2.59484e-06
1.5046e-06
1.84872e-06
2.25041e-06
3.75105e-06
3.10299e-06
2.25096e-06
3.10347e-06
1.84716e-06
1.84709e-06
3.10339e-06
2.25086e-06
3.75063e-06
2.25032e-06
1.84866e-06
3.1029e-06
1.63537e-06
2.33606e-06
2.59495e-06
1.50468e-06
2.5953e-06
1.5059e-06
1.63356e-06
1.63337e-06
2.595e-06
1.50578e-06
2.33563e-06
1.6352e-06
2.59467e-06
1.50454e-06
1.84698e-06
3.10304e-06
2.25114e-06
3.75085e-06
1.84853e-06
3.10262e-06
2.2506e-06
1.63526e-06
2.33599e-06
2.59479e-06
1.50462e-06
2.59511e-06
1.50585e-06
1.63344e-06
2.89944e-06
1.3927e-06
1.98009e-06
1.97974e-06
1.97925e-06
2.89975e-06
1.97895e-06
1.84851e-06
3.10283e-06
3.10322e-06
1.84701e-06
1.63348e-06
2.59519e-06
1.50579e-06
2.33571e-06
1.63528e-06
2.59488e-06
1.50458e-06
1.84883e-06
2.25099e-06
3.75172e-06
3.10326e-06
2.25154e-06
3.10369e-06
1.84729e-06
1.84716e-06
3.10349e-06
2.25141e-06
3.75126e-06
2.25088e-06
1.84869e-06
3.10309e-06
1.6354e-06
2.33608e-06
2.59501e-06
1.5047e-06
2.59534e-06
1.5059e-06
1.6336e-06
1.63341e-06
1.50576e-06
2.59506e-06
2.33565e-06
1.63522e-06
1.50455e-06
2.59469e-06
1.84705e-06
3.10313e-06
2.25127e-06
3.75112e-06
1.84859e-06
3.10267e-06
2.25073e-06
1.63532e-06
2.33602e-06
1.50466e-06
2.59483e-06
1.50587e-06
2.59518e-06
1.63351e-06
1.63352e-06
2.59518e-06
1.50588e-06
2.33577e-06
1.63533e-06
2.59485e-06
1.50468e-06
1.84708e-06
3.1033e-06
2.25086e-06
3.75061e-06
1.84861e-06
2.25035e-06
3.10288e-06
1.63349e-06
1.50587e-06
2.59505e-06
2.33572e-06
1.6353e-06
1.50466e-06
2.59473e-06
1.84705e-06
3.10299e-06
2.25098e-06
3.75072e-06
1.8486e-06
3.10258e-06
2.25044e-06
2.89966e-06
1.39283e-06
1.98011e-06
1.97997e-06
1.97931e-06
2.89995e-06
1.97916e-06
1.63353e-06
1.50586e-06
2.59523e-06
2.33577e-06
1.63534e-06
1.50466e-06
2.59488e-06
1.84715e-06
3.10342e-06
2.25104e-06
3.7508e-06
1.84869e-06
2.2505e-06
3.10296e-06
1.63346e-06
1.50583e-06
2.59511e-06
2.33574e-06
1.63528e-06
1.50462e-06
2.59479e-06
1.8471e-06
3.10324e-06
2.25141e-06
3.75127e-06
1.84867e-06
3.10281e-06
2.25087e-06
2.89984e-06
1.39293e-06
1.97999e-06
1.98039e-06
2.9002e-06
1.97916e-06
1.97955e-06
1.8474e-06
2.25163e-06
3.10382e-06
3.75152e-06
3.10338e-06
1.84895e-06
2.25107e-06
4.35683e-06
1.94373e-05
1.09603e-06
3.75059e-06
2.33557e-06
8.0381e-07
4.35677e-06
9.77357e-06
2.3355e-06
1.0961e-06
8.03827e-07
3.75093e-06
1.39275e-06
5.80234e-06
5.80074e-06
1.94355e-05
9.77358e-06
1.2884e-05
4.35693e-06
5.01987e-06
1.14422e-05
5.01994e-06
1.14417e-05
1.28847e-05
1.94356e-05
1.28841e-05
4.35694e-06
1.14421e-05
5.01964e-06
1.14415e-05
5.0198e-06
1.28849e-05
2.31794e-05
9.77314e-06
7.41632e-06
7.41656e-06
2.31825e-05
1.02067e-05
2.28092e-05
2.28098e-05
2.2807e-05
2.28076e-05
1.02063e-05
4.848e-06
5.80257e-06
1.01634e-05
3.05592e-06
1.01629e-05
3.05606e-06
4.84781e-06
4.84206e-06
5.80088e-06
1.01587e-05
3.05476e-06
3.05494e-06
1.01581e-05
4.84184e-06
1.94338e-05
9.77313e-06
3.40994e-07
5.40013e-07
3.41081e-07
3.75085e-06
2.25037e-06
2.2509e-06
1.63515e-06
2.33581e-06
2.59471e-06
1.50448e-06
2.59502e-06
1.5057e-06
1.63336e-06
1.63512e-06
2.33575e-06
1.50444e-06
2.59455e-06
1.50567e-06
2.5949e-06
1.63331e-06
1.84847e-06
3.75123e-06
3.1025e-06
2.25061e-06
3.10294e-06
1.84694e-06
2.25114e-06
2.89984e-06
1.39486e-06
1.97924e-06
1.97909e-06
1.97991e-06
1.98006e-06
2.89955e-06
5.40073e-07
1.09607e-06
1.09618e-06
1.39515e-06
5.40187e-07
1.09624e-06
1.09634e-06
1.39536e-06
5.40248e-07
1.09632e-06
1.09642e-06
1.39553e-06
5.40259e-07
1.09634e-06
1.09643e-06
1.39559e-06
5.40242e-07
1.09629e-06
1.09637e-06
1.39535e-06
5.40234e-07
1.09622e-06
1.09633e-06
1.39527e-06
1.0961e-06
1.3928e-06
1.0962e-06
1.096e-06
1.09622e-06
1.39292e-06
1.09613e-06
1.09606e-06
1.39299e-06
1.3931e-06
1.09605e-06
1.09617e-06
1.09627e-06
1.0963e-06
1.39499e-06
1.39313e-06
1.09625e-06
1.09622e-06
1.09637e-06
1.09628e-06
1.09621e-06
1.09638e-06
1.39509e-06
1.39319e-06
1.09611e-06
1.09631e-06
1.0962e-06
1.39321e-06
1.39526e-06
1.39328e-06
1.09631e-06
1.09633e-06
1.09641e-06
1.0964e-06
1.3953e-06
1.39329e-06
1.09624e-06
1.0964e-06
1.0963e-06
1.09648e-06
1.09641e-06
1.09631e-06
1.09649e-06
1.39534e-06
1.39334e-06
1.09623e-06
1.0964e-06
1.09631e-06
1.39339e-06
1.39543e-06
1.39334e-06
1.09644e-06
1.09642e-06
1.09647e-06
1.09643e-06
1.39543e-06
1.39332e-06
1.09632e-06
1.0965e-06
1.09632e-06
1.09652e-06
1.09651e-06
1.09634e-06
1.09653e-06
1.39549e-06
1.39342e-06
1.09633e-06
1.09644e-06
1.09635e-06
1.39348e-06
1.39547e-06
1.39311e-06
1.09646e-06
1.09642e-06
1.09641e-06
1.09639e-06
1.39545e-06
1.39321e-06
1.09631e-06
1.09651e-06
1.09624e-06
1.09647e-06
1.09652e-06
1.09631e-06
1.09647e-06
1.39554e-06
1.39324e-06
1.09634e-06
1.09639e-06
1.09629e-06
1.39326e-06
1.39522e-06
1.39301e-06
1.09639e-06
1.09637e-06
1.09636e-06
1.09631e-06
1.39531e-06
1.39305e-06
1.09622e-06
1.09644e-06
1.09618e-06
1.0964e-06
1.09645e-06
1.09623e-06
1.09641e-06
1.39534e-06
1.39312e-06
1.09627e-06
1.09633e-06
1.09624e-06
1.39315e-06
1.39514e-06
1.39301e-06
1.09636e-06
1.0963e-06
1.0963e-06
1.0963e-06
1.39517e-06
1.39302e-06
1.09618e-06
1.0964e-06
1.09624e-06
1.0964e-06
1.09641e-06
1.09623e-06
1.09644e-06
1.39524e-06
1.39311e-06
1.09624e-06
1.09633e-06
1.09626e-06
1.39322e-06
1.39515e-06
1.39316e-06
1.09627e-06
1.09641e-06
1.09627e-06
1.09651e-06
1.39524e-06
5.39992e-07
5.40094e-07
5.4009e-07
4.35744e-06
9.7734e-06
4.35736e-06
9.7742e-06
1.94357e-05
1.94382e-05
4.35755e-06
4.35749e-06
9.77577e-06
5.40053e-07
5.40137e-07
5.40141e-07
5.40166e-07
5.40153e-07
5.4024e-07
5.40225e-07
2.33607e-06
3.75132e-06
8.03981e-07
1.09613e-06
2.33622e-06
3.75122e-06
8.04017e-07
1.94378e-05
1.94398e-05
2.33607e-06
8.04047e-07
3.75144e-06
1.09623e-06
2.33624e-06
8.04078e-07
3.75128e-06
5.80159e-06
5.8032e-06
1.3931e-06
5.80149e-06
5.80309e-06
4.35793e-06
9.77492e-06
4.35791e-06
9.77556e-06
1.94385e-05
1.94407e-05
4.35805e-06
9.77643e-06
4.35804e-06
9.77706e-06
5.4017e-07
5.40263e-07
5.40247e-07
5.40235e-07
5.40222e-07
5.40319e-07
5.40299e-07
2.33634e-06
3.75196e-06
8.04079e-07
1.09626e-06
2.33657e-06
3.75172e-06
8.04088e-07
1.94398e-05
1.94418e-05
2.33634e-06
8.04145e-07
3.752e-06
1.09636e-06
2.33656e-06
8.04156e-07
3.75177e-06
5.80216e-06
5.80376e-06
1.39331e-06
5.80213e-06
5.80377e-06
4.35817e-06
9.77595e-06
4.35826e-06
9.77632e-06
1.94401e-05
1.94417e-05
4.35828e-06
9.77741e-06
4.35838e-06
9.77774e-06
5.40231e-07
5.40331e-07
5.40311e-07
5.40259e-07
5.40253e-07
5.4035e-07
5.40333e-07
2.33645e-06
3.75226e-06
8.04118e-07
1.09633e-06
2.33672e-06
3.75192e-06
8.04118e-07
1.94415e-05
1.94431e-05
2.33645e-06
8.0419e-07
3.75236e-06
1.09643e-06
2.33674e-06
8.04194e-07
3.75201e-06
5.80294e-06
5.80462e-06
1.39345e-06
5.80284e-06
5.80449e-06
4.3581e-06
9.7761e-06
4.3583e-06
9.7761e-06
1.94402e-05
1.94414e-05
4.35819e-06
9.77748e-06
4.3584e-06
9.77746e-06
5.40251e-07
5.40347e-07
5.4033e-07
5.40248e-07
5.40249e-07
5.40343e-07
5.40325e-07
2.33639e-06
3.75231e-06
8.04123e-07
1.09633e-06
2.3367e-06
3.75189e-06
8.04117e-07
1.94417e-05
1.94425e-05
2.33639e-06
8.04197e-07
3.75237e-06
1.09642e-06
2.33672e-06
8.0419e-07
3.75189e-06
5.80309e-06
5.80471e-06
1.3934e-06
5.80249e-06
5.80414e-06
4.35776e-06
9.77536e-06
4.35805e-06
9.77516e-06
1.9439e-05
1.94396e-05
4.35786e-06
9.77674e-06
4.35814e-06
9.77656e-06
5.40243e-07
5.40337e-07
5.40316e-07
5.40233e-07
5.40228e-07
5.4033e-07
5.40311e-07
2.33615e-06
3.75208e-06
8.04111e-07
1.09627e-06
2.33656e-06
3.75151e-06
8.04095e-07
1.94402e-05
1.94409e-05
2.33621e-06
8.04182e-07
3.75208e-06
1.09635e-06
2.33657e-06
8.04171e-07
3.75154e-06
5.80227e-06
5.80396e-06
1.39318e-06
5.80173e-06
5.80345e-06
4.3575e-06
9.7745e-06
4.35772e-06
9.77454e-06
1.9437e-05
1.94382e-05
4.35764e-06
9.77592e-06
4.35784e-06
9.77598e-06
5.40224e-07
5.4033e-07
5.40315e-07
5.40262e-07
3.41343e-07
1.82882e-07
1.82883e-07
2.33603e-06
3.75164e-06
8.04072e-07
1.09622e-06
2.33636e-06
3.75118e-06
8.04072e-07
1.94389e-05
1.94401e-05
2.33612e-06
8.04162e-07
3.75178e-06
1.09632e-06
2.33643e-06
8.04165e-07
3.75133e-06
5.8018e-06
5.80358e-06
1.39317e-06
5.80143e-06
5.80324e-06
4.35774e-06
9.77592e-06
4.3578e-06
9.7763e-06
1.94391e-05
1.94409e-05
9.7735e-06
3.75104e-06
1.94368e-05
5.8022e-06
5.80096e-06
1.94358e-05
9.77457e-06
3.7513e-06
3.75084e-06
8.03925e-07
2.33589e-06
9.77423e-06
4.35724e-06
8.03976e-07
3.7509e-06
2.33583e-06
9.77429e-06
4.35713e-06
1.94388e-05
5.80278e-06
5.80125e-06
1.94369e-05
8.03999e-07
3.75098e-06
2.33589e-06
8.03977e-07
3.75142e-06
2.33585e-06
9.77462e-06
4.35729e-06
9.77512e-06
4.35722e-06
5.8012e-06
5.80282e-06
1.94372e-05
1.94395e-05
1.94361e-05
1.94392e-05
1.39297e-06
5.8015e-06
5.80285e-06
1.94371e-05
1.9435e-05
1.94402e-05
1.94382e-05
1.39514e-06
5.80182e-06
5.80321e-06
5.80188e-06
5.80325e-06
4.35737e-06
9.77354e-06
4.35729e-06
9.77437e-06
2.33598e-06
3.7512e-06
8.03955e-07
1.09617e-06
2.33615e-06
3.75106e-06
8.04005e-07
2.33592e-06
3.75155e-06
8.03906e-07
1.09622e-06
2.33609e-06
3.75138e-06
8.03943e-07
4.35765e-06
9.77494e-06
9.77424e-06
4.3577e-06
4.35759e-06
9.77514e-06
9.77437e-06
4.35764e-06
2.33633e-06
1.09623e-06
3.75133e-06
8.04042e-07
3.75152e-06
8.04031e-07
2.33614e-06
2.33627e-06
1.09627e-06
3.7517e-06
8.03994e-07
3.75189e-06
8.03972e-07
2.33608e-06
5.80275e-06
5.8014e-06
1.39296e-06
5.80276e-06
5.80153e-06
1.9435e-05
1.94374e-05
1.94396e-05
1.94371e-05
1.39514e-06
5.80331e-06
5.802e-06
5.80331e-06
5.80195e-06
1.94386e-05
1.94365e-05
2.33602e-06
8.03985e-07
1.09618e-06
2.3362e-06
3.75163e-06
8.04033e-07
4.35751e-06
9.77458e-06
4.3575e-06
9.77533e-06
2.33595e-06
8.03976e-07
3.75175e-06
1.0963e-06
2.33612e-06
8.0401e-07
3.75154e-06
4.35777e-06
9.77645e-06
9.77573e-06
4.35783e-06
2.33637e-06
1.0962e-06
3.75185e-06
8.04058e-07
3.75207e-06
8.04048e-07
2.33619e-06
4.35779e-06
9.77602e-06
9.77532e-06
4.35779e-06
2.33629e-06
1.09634e-06
8.04053e-07
3.75177e-06
8.04036e-07
3.75199e-06
2.33613e-06
4.35762e-06
9.77431e-06
4.35749e-06
9.77528e-06
2.33601e-06
8.04033e-07
3.75136e-06
1.09632e-06
2.33616e-06
8.04062e-07
3.75117e-06
4.35751e-06
9.77431e-06
4.35738e-06
9.77506e-06
2.33641e-06
1.09617e-06
3.75152e-06
8.04064e-07
3.75167e-06
8.04046e-07
2.33626e-06
4.35785e-06
9.77602e-06
9.77529e-06
4.35793e-06
2.33635e-06
1.09635e-06
8.04104e-07
3.75139e-06
8.04089e-07
3.75161e-06
2.33619e-06
4.35773e-06
9.7757e-06
9.77504e-06
4.35781e-06
5.80314e-06
5.80167e-06
1.39306e-06
5.80305e-06
5.80167e-06
1.94359e-05
1.94381e-05
1.94408e-05
1.94388e-05
1.39521e-06
5.80337e-06
5.80204e-06
5.80342e-06
5.80207e-06
1.94391e-05
1.94371e-05
2.33603e-06
8.04025e-07
3.75186e-06
1.09614e-06
2.33621e-06
8.04049e-07
3.75166e-06
4.35768e-06
9.77465e-06
4.3576e-06
9.77544e-06
4.35756e-06
9.77512e-06
4.35747e-06
9.77583e-06
2.33641e-06
1.09627e-06
8.04125e-07
3.75155e-06
8.04107e-07
3.75174e-06
2.33624e-06
2.33637e-06
1.09617e-06
8.04092e-07
3.75187e-06
8.04079e-07
3.75209e-06
2.3362e-06
4.35788e-06
9.77615e-06
9.77543e-06
4.35792e-06
4.35778e-06
9.77645e-06
9.7758e-06
4.35786e-06
1.94362e-05
1.94381e-05
1.94385e-05
1.94403e-05
1.39524e-06
5.80177e-06
5.80337e-06
5.80186e-06
5.80346e-06
1.94389e-05
1.9437e-05
1.94412e-05
1.94392e-05
1.9436e-05
1.94381e-05
1.94391e-05
1.94411e-05
5.80221e-06
5.8036e-06
1.3932e-06
5.80219e-06
5.8036e-06
1.9439e-05
1.9437e-05
1.9442e-05
1.94401e-05
1.39536e-06
5.80254e-06
5.80398e-06
5.80258e-06
5.80399e-06
4.35787e-06
9.77513e-06
4.35785e-06
9.77581e-06
2.33625e-06
3.75177e-06
8.04053e-07
1.09634e-06
2.33648e-06
3.75157e-06
8.04066e-07
2.33619e-06
3.75219e-06
8.04011e-07
1.09636e-06
2.33643e-06
3.75196e-06
8.04026e-07
4.35811e-06
9.77605e-06
9.7755e-06
4.35809e-06
4.35806e-06
9.77629e-06
9.77575e-06
4.35804e-06
2.33658e-06
1.09638e-06
3.75176e-06
8.04098e-07
3.75201e-06
8.04084e-07
2.33635e-06
2.33653e-06
1.09638e-06
3.75212e-06
8.04056e-07
3.75243e-06
8.04043e-07
2.3363e-06
5.80384e-06
5.80238e-06
1.39323e-06
5.80373e-06
5.80233e-06
1.94376e-05
1.94395e-05
1.94414e-05
1.94395e-05
1.39538e-06
5.80402e-06
5.80256e-06
5.80422e-06
5.80269e-06
1.94401e-05
1.94384e-05
2.3363e-06
3.75229e-06
8.04076e-07
1.09626e-06
2.33653e-06
3.75206e-06
8.04085e-07
4.35802e-06
9.77599e-06
4.35805e-06
9.77663e-06
2.33623e-06
8.04074e-07
3.75221e-06
1.09643e-06
2.33644e-06
8.04086e-07
3.75198e-06
4.35824e-06
9.77752e-06
9.777e-06
4.35821e-06
2.33662e-06
1.09628e-06
3.75222e-06
8.04108e-07
3.75249e-06
8.04102e-07
2.33639e-06
4.35826e-06
9.7771e-06
9.77657e-06
4.35819e-06
2.33654e-06
1.09646e-06
8.04118e-07
3.75216e-06
8.04108e-07
3.75242e-06
2.33633e-06
4.35814e-06
9.77598e-06
4.35813e-06
9.77655e-06
2.33627e-06
8.04118e-07
3.75183e-06
1.09643e-06
2.33651e-06
8.04129e-07
3.7516e-06
4.35802e-06
9.77566e-06
4.358e-06
9.77625e-06
2.33664e-06
1.09629e-06
3.75185e-06
8.04111e-07
3.75214e-06
8.04103e-07
2.33642e-06
4.35831e-06
9.77688e-06
9.77646e-06
4.35826e-06
2.33658e-06
1.09646e-06
8.04153e-07
3.75178e-06
8.04142e-07
3.75204e-06
2.33636e-06
4.35819e-06
9.7767e-06
9.77618e-06
4.35815e-06
5.80376e-06
5.80244e-06
1.39328e-06
5.80374e-06
5.80239e-06
1.94381e-05
1.944e-05
1.94426e-05
1.94407e-05
1.39542e-06
5.80411e-06
5.80271e-06
5.80414e-06
5.80278e-06
1.94408e-05
1.9439e-05
2.3363e-06
8.04109e-07
3.7523e-06
1.09626e-06
2.33652e-06
8.04119e-07
3.75208e-06
4.35813e-06
9.77612e-06
4.35811e-06
9.77675e-06
4.35808e-06
9.77641e-06
4.35805e-06
9.77702e-06
2.33665e-06
1.09639e-06
8.04181e-07
3.75193e-06
8.04172e-07
3.75221e-06
2.33644e-06
2.33662e-06
1.09628e-06
8.04145e-07
3.75228e-06
8.04134e-07
3.75252e-06
2.3364e-06
4.3583e-06
9.77718e-06
9.77668e-06
4.35828e-06
4.35825e-06
9.7775e-06
9.77696e-06
4.35823e-06
1.94379e-05
1.94399e-05
1.94401e-05
1.94422e-05
1.39545e-06
5.80254e-06
5.80422e-06
5.80254e-06
5.80419e-06
1.94408e-05
1.94388e-05
1.94432e-05
1.94412e-05
1.94378e-05
1.94395e-05
1.94409e-05
1.94424e-05
5.80291e-06
5.80436e-06
1.39333e-06
5.80275e-06
5.80422e-06
1.94393e-05
1.94382e-05
1.94423e-05
1.94412e-05
1.39548e-06
5.8027e-06
5.80421e-06
5.80307e-06
5.80455e-06
4.35812e-06
9.77618e-06
4.3582e-06
9.77655e-06
2.33636e-06
3.75218e-06
8.04106e-07
1.09645e-06
2.33667e-06
3.75186e-06
8.04113e-07
2.33631e-06
3.75257e-06
8.04063e-07
1.09642e-06
2.33662e-06
3.7522e-06
8.04069e-07
4.35831e-06
9.77633e-06
9.77615e-06
4.35817e-06
4.35826e-06
9.77661e-06
9.77639e-06
4.35813e-06
2.33666e-06
1.09646e-06
3.75184e-06
8.04115e-07
3.75225e-06
8.04116e-07
2.33637e-06
2.33662e-06
1.09643e-06
3.7522e-06
8.04071e-07
3.75263e-06
8.04072e-07
2.33632e-06
5.80448e-06
5.80289e-06
1.39333e-06
5.80418e-06
5.80268e-06
1.94389e-05
1.94404e-05
1.94417e-05
1.94403e-05
1.39547e-06
5.80421e-06
5.80271e-06
5.8046e-06
5.80299e-06
1.94404e-05
1.94391e-05
2.33641e-06
3.75263e-06
8.04119e-07
1.09633e-06
2.33671e-06
3.7523e-06
8.04121e-07
4.35825e-06
9.77699e-06
4.3584e-06
9.77734e-06
2.33635e-06
8.04132e-07
3.75258e-06
1.09651e-06
2.33662e-06
8.04137e-07
3.75225e-06
4.35842e-06
9.77771e-06
9.77757e-06
4.35827e-06
2.33671e-06
1.09633e-06
3.75228e-06
8.0412e-07
3.75269e-06
8.04126e-07
2.3364e-06
4.35845e-06
9.77735e-06
9.77717e-06
4.35824e-06
2.33663e-06
1.09652e-06
8.0414e-07
3.75224e-06
8.04143e-07
3.75265e-06
2.33634e-06
4.35832e-06
9.77675e-06
4.35842e-06
9.77707e-06
2.33639e-06
8.04159e-07
3.75222e-06
1.09652e-06
2.33666e-06
8.04165e-07
3.7519e-06
4.35821e-06
9.7766e-06
4.3583e-06
9.77699e-06
2.33673e-06
1.09634e-06
3.75193e-06
8.04123e-07
3.7523e-06
8.04122e-07
2.33642e-06
4.35846e-06
9.77713e-06
9.7769e-06
4.35832e-06
2.33667e-06
1.09653e-06
8.04171e-07
3.7519e-06
8.0417e-07
3.75231e-06
2.33636e-06
4.35835e-06
9.77705e-06
9.77684e-06
4.35821e-06
5.80449e-06
5.80308e-06
1.3934e-06
5.80434e-06
5.80288e-06
1.94396e-05
1.94411e-05
1.9443e-05
1.94418e-05
1.39554e-06
5.80434e-06
5.80286e-06
5.80467e-06
5.80321e-06
1.9441e-05
1.94399e-05
2.33641e-06
8.04152e-07
3.7527e-06
1.09634e-06
2.3367e-06
8.04159e-07
3.75239e-06
4.35835e-06
9.77706e-06
4.35843e-06
9.77739e-06
4.35831e-06
9.7774e-06
4.35839e-06
9.77778e-06
2.33673e-06
1.09644e-06
8.04199e-07
3.75199e-06
8.04198e-07
3.7524e-06
2.33644e-06
2.3367e-06
1.09635e-06
8.04164e-07
3.75238e-06
8.04163e-07
3.75278e-06
2.3364e-06
4.35848e-06
9.77736e-06
9.77721e-06
4.35833e-06
4.35844e-06
9.77779e-06
9.77761e-06
4.35829e-06
1.94398e-05
1.94415e-05
1.94421e-05
1.94438e-05
1.39558e-06
5.80282e-06
5.80446e-06
5.80317e-06
5.80482e-06
1.94414e-05
1.94402e-05
1.94436e-05
1.94425e-05
1.94379e-05
1.94386e-05
1.94409e-05
1.94416e-05
5.80295e-06
5.80447e-06
1.39326e-06
5.8024e-06
5.80396e-06
1.94376e-05
1.94371e-05
1.94407e-05
1.94401e-05
1.39536e-06
5.80196e-06
5.80358e-06
5.8026e-06
5.80416e-06
4.35806e-06
9.7764e-06
4.35825e-06
9.77648e-06
2.33631e-06
3.75222e-06
8.04106e-07
1.09645e-06
2.33666e-06
3.75173e-06
8.041e-07
2.33626e-06
3.75262e-06
8.04065e-07
1.09641e-06
2.33663e-06
3.75214e-06
8.04062e-07
4.35821e-06
9.77567e-06
9.77581e-06
4.35795e-06
4.35817e-06
9.77612e-06
9.77621e-06
4.35792e-06
2.33659e-06
1.09643e-06
3.75153e-06
8.04094e-07
3.75208e-06
8.04098e-07
2.33622e-06
2.33655e-06
1.09641e-06
3.75199e-06
8.04059e-07
3.75254e-06
8.04062e-07
2.33618e-06
5.8046e-06
5.80301e-06
1.3933e-06
5.80412e-06
5.80264e-06
1.94391e-05
1.94402e-05
1.94407e-05
1.94398e-05
1.39542e-06
5.80386e-06
5.8024e-06
5.80448e-06
5.8029e-06
1.94395e-05
1.94388e-05
2.33632e-06
3.75264e-06
8.04115e-07
1.09629e-06
2.33669e-06
3.75216e-06
8.04104e-07
4.35816e-06
9.77713e-06
4.35842e-06
9.77715e-06
2.33626e-06
8.04136e-07
3.75261e-06
1.0965e-06
2.33661e-06
8.04129e-07
3.75215e-06
4.3583e-06
9.77704e-06
9.77718e-06
4.35804e-06
2.33661e-06
1.09627e-06
3.75197e-06
8.04096e-07
3.7525e-06
8.04104e-07
2.33626e-06
4.35833e-06
9.77677e-06
9.77687e-06
4.35802e-06
2.33652e-06
1.09649e-06
8.04125e-07
3.75198e-06
8.0413e-07
3.75251e-06
2.3362e-06
4.35826e-06
9.77694e-06
4.35845e-06
9.77705e-06
2.33633e-06
8.04166e-07
3.75228e-06
1.09651e-06
2.33664e-06
8.04162e-07
3.75179e-06
4.35815e-06
9.77683e-06
4.35834e-06
9.77684e-06
2.33666e-06
1.09633e-06
3.75174e-06
8.04117e-07
3.75224e-06
8.04118e-07
2.3363e-06
4.35837e-06
9.77672e-06
9.7768e-06
4.35811e-06
2.33659e-06
1.09649e-06
8.04156e-07
3.75158e-06
8.04161e-07
3.75214e-06
2.33624e-06
4.35825e-06
9.7764e-06
9.77655e-06
4.35799e-06
5.80462e-06
5.80313e-06
1.39337e-06
5.80415e-06
5.80265e-06
1.94396e-05
1.94405e-05
1.94417e-05
1.9441e-05
1.39547e-06
5.80382e-06
5.80232e-06
5.80439e-06
5.80288e-06
1.94397e-05
1.9439e-05
2.33635e-06
8.04157e-07
3.75274e-06
1.09633e-06
2.33669e-06
8.04153e-07
3.75226e-06
4.35826e-06
9.77713e-06
4.35846e-06
9.77714e-06
4.35822e-06
9.77756e-06
4.35841e-06
9.77755e-06
2.33665e-06
1.09641e-06
8.04188e-07
3.75173e-06
8.0419e-07
3.75225e-06
2.33631e-06
2.33662e-06
1.09631e-06
8.04148e-07
3.75207e-06
8.04151e-07
3.7526e-06
2.33626e-06
4.35837e-06
9.77677e-06
9.77687e-06
4.35813e-06
4.35832e-06
9.77714e-06
9.77727e-06
4.35807e-06
1.944e-05
1.94406e-05
1.94422e-05
1.94428e-05
1.39549e-06
5.80205e-06
5.80373e-06
5.80268e-06
5.80433e-06
1.94396e-05
1.9439e-05
1.94419e-05
1.94413e-05
1.94361e-05
1.94367e-05
1.94392e-05
1.94399e-05
5.80216e-06
5.80379e-06
1.39303e-06
5.80158e-06
5.80326e-06
1.94362e-05
1.94353e-05
1.94394e-05
1.94384e-05
1.39515e-06
5.80133e-06
5.80306e-06
5.80181e-06
5.8035e-06
4.35772e-06
9.7758e-06
4.35801e-06
9.7756e-06
2.33611e-06
3.75186e-06
8.04084e-07
1.09637e-06
2.3365e-06
3.75131e-06
8.04073e-07
2.33607e-06
3.75237e-06
8.0405e-07
1.09634e-06
2.33647e-06
3.75176e-06
8.04038e-07
4.35786e-06
9.77476e-06
9.77485e-06
4.3576e-06
4.35782e-06
9.77509e-06
9.77526e-06
4.35756e-06
2.33639e-06
1.09636e-06
3.75117e-06
8.04058e-07
3.75166e-06
8.04062e-07
2.33602e-06
2.33635e-06
1.09633e-06
3.75155e-06
8.04019e-07
3.75213e-06
8.04026e-07
2.33597e-06
5.80417e-06
5.8026e-06
1.39311e-06
5.80341e-06
5.80195e-06
1.9438e-05
1.94385e-05
1.94386e-05
1.94379e-05
1.39523e-06
5.80298e-06
5.80152e-06
5.8037e-06
5.80213e-06
1.94375e-05
1.94369e-05
2.33613e-06
3.7523e-06
8.0409e-07
1.0962e-06
2.33654e-06
3.75178e-06
8.04074e-07
4.35783e-06
9.77645e-06
4.35817e-06
9.77629e-06
2.33607e-06
8.04121e-07
3.75232e-06
1.09643e-06
2.33646e-06
8.04106e-07
3.75178e-06
4.35796e-06
9.77618e-06
9.77626e-06
4.35772e-06
2.3364e-06
1.09618e-06
3.75165e-06
8.0406e-07
3.75212e-06
8.04067e-07
2.33605e-06
4.35799e-06
9.77588e-06
9.77598e-06
4.3577e-06
2.33632e-06
1.09641e-06
8.04092e-07
3.75164e-06
8.04099e-07
3.75213e-06
2.33599e-06
4.3579e-06
9.77641e-06
4.3582e-06
9.77617e-06
2.33609e-06
8.04146e-07
3.75192e-06
1.09643e-06
2.33649e-06
8.04133e-07
3.75137e-06
4.35778e-06
9.77607e-06
4.35807e-06
9.77586e-06
2.33641e-06
1.09625e-06
3.75129e-06
8.04075e-07
3.75183e-06
8.04085e-07
2.33609e-06
4.35798e-06
9.77562e-06
9.77582e-06
4.35772e-06
2.33635e-06
1.09642e-06
8.04117e-07
3.75123e-06
8.04123e-07
3.75172e-06
2.33603e-06
4.35786e-06
9.77544e-06
9.77555e-06
4.35761e-06
5.80405e-06
5.80255e-06
1.39315e-06
5.80348e-06
5.802e-06
1.94382e-05
1.94389e-05
1.94403e-05
1.94394e-05
1.39527e-06
5.8032e-06
5.80173e-06
5.80371e-06
5.80223e-06
1.94383e-05
1.94374e-05
2.33617e-06
8.04139e-07
3.75241e-06
1.09625e-06
2.33653e-06
8.0413e-07
3.7519e-06
4.35797e-06
9.77647e-06
4.35822e-06
9.77633e-06
4.35791e-06
9.77683e-06
4.35816e-06
9.7767e-06
2.33647e-06
1.09634e-06
8.0416e-07
3.7514e-06
8.04164e-07
3.7519e-06
2.33615e-06
2.33644e-06
1.09624e-06
8.04118e-07
3.75179e-06
8.04121e-07
3.75225e-06
2.3361e-06
4.35806e-06
9.77596e-06
9.77603e-06
4.35784e-06
4.358e-06
9.77636e-06
9.77641e-06
4.35778e-06
1.9438e-05
1.94388e-05
1.94404e-05
1.94412e-05
1.39528e-06
5.80152e-06
5.80329e-06
5.80197e-06
5.80371e-06
1.94383e-05
1.94373e-05
1.94408e-05
1.94398e-05
1.94348e-05
1.94361e-05
1.94381e-05
1.94393e-05
5.80159e-06
5.80333e-06
1.39301e-06
5.80124e-06
5.80301e-06
1.94364e-05
1.94348e-05
1.94397e-05
1.94381e-05
1.39516e-06
5.80137e-06
5.80315e-06
5.80157e-06
5.80333e-06
4.35746e-06
9.77479e-06
4.35767e-06
9.77477e-06
2.336e-06
3.75154e-06
8.04056e-07
1.09637e-06
2.33631e-06
3.75111e-06
8.04062e-07
2.33594e-06
3.75194e-06
8.04017e-07
1.09629e-06
2.33627e-06
3.75145e-06
8.04018e-07
4.35763e-06
9.77444e-06
9.77433e-06
4.35747e-06
4.35758e-06
9.77472e-06
9.77453e-06
4.35744e-06
2.3363e-06
1.09641e-06
2.25075e-06
8.04077e-07
3.7515e-06
8.04068e-07
1.63375e-06
2.33625e-06
1.09629e-06
1.84728e-06
8.04031e-07
3.75186e-06
8.0403e-07
1.63365e-06
5.80329e-06
5.80174e-06
1.39297e-06
5.80277e-06
5.8013e-06
1.94361e-05
1.94371e-05
1.94384e-05
1.94368e-05
1.39511e-06
5.80288e-06
5.80135e-06
5.80316e-06
5.8016e-06
1.94373e-05
1.94358e-05
2.33606e-06
3.75202e-06
8.04061e-07
1.09618e-06
2.33636e-06
3.7516e-06
8.04067e-07
4.35762e-06
9.77561e-06
4.35786e-06
9.77565e-06
2.33599e-06
8.04094e-07