/*--------------------------------*- C++ -*----------------------------------*\
| =========                 |                                                 |
| \\      /  F ield         | OpenFOAM: The Open Source CFD Toolbox           |
|  \\    /   O peration     | Version:  v2006                                 |
|   \\  /    A nd           | Website:  www.openfoam.com                      |
|    \\/     M anipulation  |                                                 |
\*---------------------------------------------------------------------------*/
FoamFile
{
    version     2.0;
    format      ascii;
    class       volScalarField;
    location    "250";
    object      p;
}
// * * * * * * * * * * * * * * * * * * * * * * * * * * * * * * * * * * * * * //

dimensions      [0 2 -2 0 0 0 0];


internalField   nonuniform List<scalar> 
14404
(
0.000765784
0.000765785
0.000767867
0.000765804
0.000768065
0.000768036
0.000768066
0.000768064
0.000765788
0.000768036
0.000768013
0.000768069
0.000768069
0.000768065
0.000768066
0.000768069
0.000768064
0.000768072
0.000768064
0.000768071
0.000768059
0.000768066
0.000768058
0.000763527
0.00076806
0.000768066
0.000763517
0.000763524
0.000768056
0.000763518
0.000768065
0.000768065
0.00076807
0.00076352
0.000763519
0.000763519
0.000763613
0.000767975
0.000767984
0.000763707
0.000763608
0.000767973
0.000763606
0.000765801
0.000763601
0.000768035
0.00076355
0.000763543
0.000763568
0.000768036
0.000768024
0.000767983
0.000767968
0.000768015
0.00076796
0.000754381
0.000754376
0.000754377
0.000754378
0.000754378
0.000754562
0.000754374
0.000754375
0.000754435
0.000756637
0.000754407
0.000756645
0.000756638
0.000754407
0.000758929
0.000758921
0.000754374
0.00075438
0.000758929
0.000758922
0.000754375
0.000758921
0.000754376
0.000758924
0.000758926
0.000754382
0.000758924
0.00076352
0.000758923
0.000758923
0.000758928
0.000754377
0.000754377
0.000758923
0.000758924
0.000754372
0.000758913
0.000754376
0.000758927
0.000754381
0.000758924
0.000754385
0.000758917
0.000758915
0.000754377
0.000758927
0.000754384
0.000758925
0.000754387
0.000758917
0.000763525
0.00076352
0.000763519
0.000763518
0.000763524
0.000763517
0.000763523
0.000763529
0.000763517
0.000763519
0.000763526
0.000763514
0.000763519
0.000763519
0.00075883
0.000758723
0.000754463
0.000754464
0.000754472
0.000758837
0.000758834
0.000758819
0.000758871
0.000754433
0.000754467
0.000758873
0.000758825
0.000754476
0.000758839
0.000754424
0.000758893
0.000754398
0.000758881
0.000758892
0.000754457
0.000758894
0.000754401
0.000758894
0.0007636
0.000763551
0.000763568
0.000763544
0.000763619
0.000763578
0.00076361
0.000763577
0.00106542
0.0010675
0.00106749
0.00106044
0.00105835
0.00106753
0.00106063
0.00106522
0.0010789
0.00106523
0.00107891
0.00107872
0.00106522
0.00106522
0.00107891
0.00107891
0.0010789
0.00106522
0.00107891
0.00106523
0.0010789
0.00107891
0.00106523
0.00107885
0.00107663
0.00106525
0.0010675
0.00107887
0.00107664
0.00106528
0.00107885
0.00107663
0.0010675
0.00107888
0.00107664
0.00106528
0.00107891
0.00107872
0.00107891
0.00107891
0.00107891
0.0010789
0.00106522
0.00107891
0.00106523
0.00107886
0.00107664
0.00106525
0.0010675
0.00107888
0.00107664
0.00106528
0.0010789
0.00107891
0.00106523
0.00107886
0.00107663
0.0010675
0.00107664
0.00107888
0.00106528
0.00107886
0.00107663
0.00107888
0.00107664
0.0010789
0.00107891
0.00107886
0.00107663
0.00107664
0.00107888
0.0010789
0.00107891
0.00107891
0.00107872
0.00107891
0.00107891
0.00107891
0.00107886
0.00107663
0.00107664
0.00107888
0.00107885
0.00107663
0.00107664
0.00107888
0.0010789
0.00107891
0.0010789
0.00107891
0.00107872
0.00107891
0.00107891
0.0010789
0.00107891
0.00106063
0.00106063
0.00106063
0.00106063
0.0010606
0.00108805
0.0010835
0.00108805
0.00108351
0.00105609
0.00106063
0.00105609
0.00106063
0.00105609
0.00106976
0.00107436
0.00106977
0.00107436
0.00107436
0.0010789
0.00107891
0.00107891
0.00107436
0.00107436
0.00106976
0.00106523
0.00106977
0.00106522
0.00106977
0.00106976
0.00106523
0.00106976
0.00106523
0.00106977
0.00106522
0.00106977
0.00106977
0.00106523
0.00107437
0.00107891
0.00107889
0.00107436
0.00107889
0.00107436
0.00107436
0.00107438
0.00107891
0.00107891
0.00107436
0.00107891
0.00107436
0.00107438
0.00106977
0.00106522
0.00106522
0.00106977
0.00106977
0.00106522
0.00107436
0.00107891
0.0010789
0.00107436
0.00107891
0.00107436
0.00107436
0.00106976
0.00106976
0.00106522
0.00106523
0.00106977
0.00107436
0.00107891
0.00107436
0.0010789
0.00107436
0.00106977
0.00106976
0.00106522
0.00106522
0.00106522
0.00106977
0.00106976
0.00107436
0.00107891
0.0010789
0.00107436
0.00107891
0.00107436
0.00107436
0.00107437
0.00107891
0.00107436
0.0010789
0.00107436
0.00106977
0.00106976
0.00106522
0.00106523
0.00106977
0.00106976
0.00106522
0.00107436
0.00107436
0.00107891
0.00107891
0.00107891
0.00107436
0.00107436
0.00107437
0.00107891
0.0010789
0.00107436
0.00107437
0.0010789
0.00107436
0.00107437
0.00107891
0.0010789
0.00107436
0.0010789
0.00107436
0.00107437
0.00107436
0.00107436
0.0010789
0.00107891
0.00107436
0.00107891
0.00107436
0.00107436
0.00106976
0.00106977
0.00106522
0.00106523
0.00106977
0.00107437
0.00107891
0.00107436
0.0010789
0.00107436
0.00106977
0.00106976
0.00106523
0.00106522
0.00106522
0.00106976
0.00106977
0.00107436
0.00107891
0.0010789
0.00107436
0.00107891
0.00107436
0.00107436
0.00107437
0.00107891
0.00107436
0.0010789
0.00107436
0.00106977
0.00106976
0.00106522
0.00106523
0.00106977
0.00106976
0.00106522
0.00107436
0.0010789
0.00107891
0.00107436
0.00107891
0.00107436
0.00107436
0.00107437
0.00107891
0.00107436
0.0010789
0.00107436
0.00107436
0.00107891
0.0010789
0.00107436
0.00107891
0.00107436
0.00107436
0.00107436
0.00107891
0.00107436
0.0010789
0.00107436
0.00107436
0.00107436
0.00107891
0.00107891
0.00107891
0.00107436
0.00107436
0.00107437
0.00107891
0.0010789
0.00107436
0.00107437
0.0010789
0.00107436
0.00107437
0.00107891
0.0010789
0.00107436
0.0010789
0.00107436
0.00107437
0.00107436
0.00107436
0.0010789
0.00107891
0.00107436
0.00107891
0.00107436
0.00107436
0.00107437
0.00107891
0.00107436
0.0010789
0.00107436
0.00107436
0.0010789
0.00107891
0.00107436
0.00107891
0.00107436
0.00107436
0.00107437
0.00107891
0.00107436
0.0010789
0.00107436
0.00107436
0.00107891
0.00107891
0.00107891
0.00107436
0.00107436
0.00107437
0.00107891
0.0010789
0.00107436
0.0010789
0.00107437
0.00107436
0.00107437
0.00107891
0.0010789
0.00107436
0.0010789
0.00107437
0.00107436
0.00107436
0.00107436
0.00105609
0.00105609
0.0010561
0.00106063
0.00106063
0.00105609
0.00106062
0.00105609
0.0010561
0.0010561
0.00106062
0.00106063
0.00105608
0.00106062
0.00105609
0.00105609
0.00105608
0.00106063
0.00106063
0.00106064
0.00105609
0.00105609
0.00106967
0.00106958
0.00106531
0.00106532
0.00106968
0.0010697
0.00106532
0.00105618
0.00106055
0.00106055
0.00105628
0.00106054
0.00105618
0.00105617
0.00107666
0.00106752
0.00106752
0.00107666
0.00107665
0.00107665
0.00106752
0.00107667
0.00106752
0.00107666
0.00107665
0.00107664
0.00106751
0.00107667
0.00106752
0.00107665
0.00107666
0.00107665
0.00106751
0.00107667
0.00107666
0.00107666
0.00107664
0.00106751
0.00107446
0.00107456
0.00107881
0.00107884
0.00107881
0.00107444
0.00107447
0.00107446
0.00107885
0.00107881
0.00107442
0.0010788
0.00107442
0.00107445
0.00106969
0.00106525
0.00106974
0.00106527
0.00106974
0.00106973
0.00106531
0.00107444
0.00107886
0.00107887
0.00107439
0.00107438
0.00107882
0.00107441
0.00106966
0.00106971
0.00106528
0.00106532
0.00106972
0.00106967
0.00106532
0.00107446
0.00107885
0.00107881
0.00107442
0.00107881
0.00107442
0.00107446
0.00107444
0.00107886
0.00107888
0.00107439
0.00107883
0.00107441
0.00107439
0.00106967
0.00106971
0.00106528
0.00106532
0.00106972
0.00106967
0.00106533
0.00107446
0.00107455
0.00107882
0.00107882
0.00107445
0.00107881
0.00107445
0.00108797
0.00108355
0.00108801
0.00108359
0.00107447
0.00107886
0.00107881
0.00107442
0.00107881
0.00107442
0.00107446
0.00106969
0.00106525
0.00106974
0.00106527
0.00106975
0.00106972
0.00106531
0.00107445
0.00107887
0.00107889
0.00107439
0.0010744
0.00107883
0.00107441
0.00106967
0.00106972
0.00106528
0.00106532
0.00106972
0.00106967
0.00106533
0.00107446
0.00107881
0.00107886
0.00107442
0.00107881
0.00107446
0.00107442
0.00107445
0.00107887
0.00107888
0.00107439
0.00107883
0.00107441
0.00107439
0.00106967
0.00106972
0.00106532
0.00106528
0.00106967
0.00106972
0.00106533
0.00107446
0.00107886
0.00107882
0.00107442
0.00107881
0.00107442
0.00107446
0.00107445
0.00107887
0.00107888
0.00107439
0.00107883
0.00107439
0.00107441
0.00107446
0.00107882
0.00107886
0.00107442
0.00107881
0.00107446
0.00107442
0.00107445
0.00107887
0.00107888
0.00107439
0.00107883
0.00107441
0.00107439
0.00107446
0.00107456
0.00107883
0.00107883
0.00107445
0.00107882
0.00107445
0.00107446
0.00107882
0.00107886
0.00107442
0.00107881
0.00107446
0.00107442
0.00107445
0.00107887
0.00107888
0.00107439
0.00107883
0.00107439
0.00107441
0.00107446
0.00107882
0.00107886
0.00107442
0.00107881
0.00107446
0.00107442
0.00107445
0.00107886
0.00107888
0.00107439
0.00107883
0.00107441
0.00107439
0.00107446
0.00107455
0.00107882
0.00107883
0.00107881
0.00107445
0.00107445
0.00105617
0.0010606
0.00106059
0.00105612
0.00105613
0.00106055
0.00105611
0.00108351
0.0010835
0.00108578
0.00108353
0.00108356
0.00108578
0.00108351
0.0010835
0.00108356
0.00108578
0.00108578
0.00108353
0.0010837
0.0010835
0.0010835
0.0010835
0.0010835
0.00108805
0.00108805
0.0010835
0.0010835
0.00108805
0.00108806
0.0010835
0.00108805
0.00108805
0.00108805
0.0010835
0.0010835
0.00108806
0.00108805
0.0010835
0.00108805
0.00108805
0.0010835
0.00108805
0.00108351
0.00108805
0.0010835
0.0010835
0.00108805
0.00108805
0.0010835
0.00108804
0.00108805
0.0010835
0.00108351
0.00108805
0.00108805
0.00108351
0.00108804
0.00108805
0.0010835
0.00108351
0.00108805
0.00108805
0.00108351
0.00108805
0.00108805
0.00108579
0.0010858
0.00108579
0.00108802
0.00108353
0.00108802
0.00108794
0.001088
0.00108356
0.0010836
0.001088
0.00108795
0.0010836
0.00108795
0.001088
0.0010836
0.00108356
0.00108796
0.001088
0.00108361
0.00108797
0.00108802
0.00108355
0.00108353
0.00108801
0.00108359
0.00108802
0.00108796
0.00108786
0.00108359
0.00108359
0.00108797
0.00108797
0.0010836
0.00105839
0.00105836
0.00105835
0.00106044
0.00102184
0.00102181
0.00102181
0.00102389
0.000985283
0.000985252
0.000985253
0.000987341
0.000948702
0.000948674
0.000948674
0.000950762
0.000912105
0.00091208
0.000912079
0.000914168
0.000875512
0.000875489
0.00087549
0.000877579
0.00106749
0.00106542
0.00106749
0.00106749
0.00106749
0.00106542
0.00106749
0.00106749
0.00106541
0.00102887
0.00105836
0.00105836
0.00103095
0.00103095
0.00106044
0.00102887
0.00105836
0.00103094
0.00103095
0.00105835
0.00103095
0.00103095
0.00106044
0.00102887
0.00105835
0.00103095
0.00103095
0.00102887
0.00102389
0.00099232
0.00102181
0.00102181
0.000994395
0.000994394
0.00102389
0.000992319
0.00102181
0.00102181
0.000994395
0.000994394
0.00102181
0.000994394
0.000994395
0.00102389
0.000992319
0.00102181
0.000994394
0.000994395
0.00099232
0.00098734
0.000955746
0.000985254
0.000985253
0.000957821
0.000957821
0.000987338
0.000955746
0.000985254
0.000985253
0.000957821
0.000957821
0.000985254
0.000957821
0.000957822
0.000987339
0.000955746
0.000985254
0.000957821
0.000957822
0.000955745
0.000950762
0.000919152
0.000948674
0.000948674
0.000921227
0.00092123
0.000950762
0.000919154
0.000948673
0.000948674
0.000921227
0.000921228
0.000948674
0.00092123
0.000921227
0.000950762
0.000919152
0.000948674
0.000921228
0.000921227
0.000919151
0.000914167
0.000882562
0.000912079
0.00091208
0.000884636
0.000884635
0.000914168
0.00088256
0.000912079
0.00091208
0.000884636
0.000884635
0.000912079
0.000884634
0.000884636
0.000914168
0.000882561
0.000912079
0.000884636
0.000884636
0.000882561
0.000877579
0.000845986
0.00087549
0.000875489
0.000848061
0.000848056
0.000877576
0.000845983
0.00087549
0.000875489
0.000848061
0.000848057
0.00087549
0.000848058
0.000848057
0.000877579
0.000845983
0.00087549
0.000848058
0.000848058
0.000845983
0.000841001
0.000809416
0.000838917
0.000838914
0.00081149
0.000811494
0.000841001
0.00106753
0.00106753
0.00106753
0.00104696
0.00106063
0.00106063
0.00104695
0.00106063
0.00104695
0.00104696
0.00106063
0.00104695
0.00105839
0.00105839
0.00105839
0.00103098
0.00103098
0.00103098
0.00103098
0.00104701
0.0010606
0.00105837
0.00104922
0.00106058
0.00104698
0.00104923
0.00106063
0.00104695
0.00104701
0.00105837
0.0010606
0.00104922
0.00106058
0.00104923
0.00104698
0.00106063
0.00106063
0.00104714
0.00104695
0.00104695
0.00101041
0.00102409
0.00102409
0.00101041
0.00102409
0.00101041
0.00101041
0.00102409
0.00102409
0.00101041
0.00102184
0.00102184
0.00102184
0.000994424
0.000994424
0.000994424
0.000994424
0.00101047
0.00102406
0.00102182
0.00101267
0.00102404
0.00101044
0.00101268
0.00102409
0.00101041
0.00101047
0.00102182
0.00102406
0.00101267
0.00102404
0.00101268
0.00101044
0.00102409
0.00102409
0.0010106
0.00101041
0.00101041
0.000973849
0.000987534
0.000987532
0.000973844
0.000987533
0.000973845
0.000973849
0.000987534
0.000987533
0.000973845
0.000985282
0.000985282
0.000985283
0.000957849
0.000957849
0.000957849
0.000957849
0.000973905
0.000987505
0.00098526
0.00097611
0.000987483
0.000973876
0.000976118
0.000987533
0.000973845
0.000973903
0.000985261
0.000987505
0.000976111
0.000987484
0.000976119
0.000973875
0.000987537
0.000987537
0.000974035
0.000973842
0.000973842
0.000937269
0.00095096
0.000950958
0.000937264
0.000950959
0.000937265
0.000937269
0.00095096
0.000950958
0.000937264
0.000948703
0.000948702
0.000948702
0.000921255
0.000921257
0.000921255
0.000921255
0.000937324
0.00095093
0.000948681
0.000939526
0.000950907
0.000937295
0.000939532
0.000950958
0.000937265
0.000937324
0.00094868
0.00095093
0.000939526
0.000950907
0.000939531
0.000937295
0.000950962
0.000950962
0.000937449
0.000937262
0.000937262
0.000900677
0.00091437
0.000914366
0.000900673
0.000914369
0.000900674
0.000900676
0.00091437
0.000914366
0.000900673
0.000912106
0.000912105
0.000912104
0.00088466
0.000884659
0.000884661
0.000884662
0.000900728
0.000914338
0.000912089
0.00090293
0.000914312
0.000900702
0.000902938
0.000914369
0.000900675
0.000900729
0.000912088
0.000914339
0.000902931
0.000914313
0.000902938
0.000900703
0.000914375
0.000914375
0.000900856
0.000900672
0.000900672
0.000864089
0.000877781
0.000877778
0.000864086
0.000877781
0.000864088
0.000864089
0.000877781
0.000877779
0.000864086
0.000875512
0.000875513
0.000875515
0.000848074
0.000848071
0.000848066
0.000848066
0.000864142
0.00087775
0.000875494
0.000866344
0.000877727
0.000864116
0.000866351
0.00087778
0.000864087
0.000864141
0.000875496
0.00087775
0.000866346
0.000877727
0.000866352
0.000864115
0.000877784
0.000877784
0.00086427
0.000864083
0.000864083
0.000827517
0.000841201
0.000841198
0.000827511
0.000841201
0.000827513
0.00106522
0.00106525
0.00106522
0.00106522
0.00106522
0.00106522
0.00106522
0.00106525
0.00106525
0.00106751
0.00106528
0.00106522
0.00106523
0.0010675
0.00106525
0.00106528
0.00106522
0.00106523
0.00106522
0.00106522
0.00106522
0.00106522
0.00106751
0.00106525
0.00106528
0.00106751
0.00106525
0.00106528
0.00106522
0.00106523
0.00106522
0.00106523
0.00106522
0.00106522
0.00106522
0.00106522
0.00104695
0.00104695
0.00104714
0.00104695
0.00104695
0.00102868
0.00104236
0.00102868
0.00104236
0.00104216
0.00102868
0.00102868
0.00104236
0.00104236
0.00104696
0.00106063
0.00106063
0.00104695
0.00104701
0.0010606
0.00105837
0.00104922
0.00106058
0.00104698
0.00104923
0.00104701
0.0010606
0.00105837
0.00104922
0.00106058
0.00104698
0.00104923
0.00104236
0.00102868
0.00104236
0.00102869
0.00104236
0.00102868
0.00104236
0.00102869
0.00104231
0.00104008
0.00102871
0.00103096
0.00104233
0.00104009
0.00102874
0.00104231
0.00104008
0.00102871
0.00103096
0.00104233
0.00104009
0.00102874
0.00106063
0.00106063
0.00104714
0.00104695
0.00104695
0.00106063
0.00104695
0.00102868
0.00104236
0.00104217
0.00102868
0.00102868
0.00104236
0.00104236
0.00102868
0.00104236
0.00104701
0.00105836
0.00104922
0.00106058
0.00104698
0.00104923
0.00104696
0.00106063
0.00106063
0.00104695
0.00104701
0.00105837
0.0010606
0.00104922
0.00106058
0.00104923
0.00104698
0.00104236
0.00102868
0.00104236
0.00102869
0.00104231
0.00104008
0.00102871
0.00103096
0.00104233
0.00104009
0.00102874
0.00104236
0.00102868
0.00104236
0.00102869
0.00104231
0.00104008
0.00103096
0.00102871
0.00104009
0.00104233
0.00102874
0.00104695
0.00106063
0.00106063
0.00104695
0.00104701
0.00105837
0.0010606
0.00104922
0.00106058
0.00104923
0.00104698
0.00104695
0.00106063
0.00106063
0.00104695
0.00104231
0.00104008
0.00102871
0.00103096
0.00104233
0.00104009
0.00102874
0.00104236
0.00102868
0.00104236
0.00102868
0.00104231
0.00104008
0.00103096
0.00102871
0.00104009
0.00104233
0.00102874
0.00104236
0.00102868
0.00104236
0.00102868
0.00106063
0.00106063
0.00104714
0.00104695
0.00104695
0.00106063
0.00104695
0.00102868
0.00104236
0.00104217
0.00102868
0.00102868
0.00104236
0.00104236
0.00102868
0.00104236
0.00104701
0.00105837
0.0010606
0.00104922
0.00106058
0.00104923
0.00104698
0.00104696
0.00106063
0.00106063
0.00104695
0.00104696
0.00106063
0.00106063
0.00104695
0.00104231
0.00104008
0.00103096
0.00102871
0.00104009
0.00104233
0.00102874
0.00104231
0.00104008
0.00103096
0.00102871
0.00104009
0.00104233
0.00102874
0.00104236
0.00102868
0.00104236
0.00102869
0.00104236
0.00102868
0.00104236
0.00102869
0.00106063
0.00104695
0.00106063
0.00104695
0.00104216
0.00102868
0.00102868
0.00104236
0.00104236
0.00102868
0.00104236
0.00102868
0.00104236
0.00102409
0.00101041
0.00102409
0.00101041
0.00102409
0.00102409
0.0010106
0.00101041
0.00101041
0.00099213
0.00100581
0.00099213
0.00100581
0.00100562
0.000992126
0.000992126
0.00100582
0.00100582
0.00101041
0.00102409
0.00102409
0.00101041
0.00101047
0.00102406
0.00102182
0.00101267
0.00102404
0.00101044
0.00101268
0.00101047
0.00102406
0.00102182
0.00101267
0.00102404
0.00101044
0.00101268
0.00100581
0.000992129
0.00100581
0.000992133
0.00100581
0.000992128
0.00100581
0.000992133
0.00100576
0.00100353
0.00099216
0.000994402
0.00100579
0.00100354
0.000992189
0.00100576
0.00100353
0.00099216
0.000994402
0.00100578
0.00100354
0.000992189
0.00102409
0.00102409
0.0010106
0.0010104
0.0010104
0.00102409
0.00101041
0.000992129
0.00100581
0.00100562
0.000992126
0.000992126
0.00100582
0.00100582
0.00099213
0.00100581
0.00101047
0.00102406
0.00102182
0.00101267
0.00102404
0.00101044
0.00101268
0.00101041
0.00102409
0.00102409
0.00101041
0.00101047
0.00102182
0.00102406
0.00101267
0.00102404
0.00101268
0.00101044
0.00100581
0.000992129
0.00100581
0.000992134
0.00100576
0.00100353
0.00099216
0.000994402
0.00100578
0.00100354
0.000992189
0.00100581
0.000992129
0.00100581
0.000992134
0.00100576
0.00100353
0.000994402
0.00099216
0.00100354
0.00100578
0.000992189
0.00101041
0.00102409
0.00102409
0.00101041
0.00101047
0.00102182
0.00102406
0.00101267
0.00102404
0.00101268
0.00101044
0.00101041
0.00102409
0.00102409
0.00101041
0.00100576
0.00100353
0.00099216
0.000994402
0.00100578
0.00100354
0.000992189
0.00100581
0.000992129
0.00100581
0.000992134
0.00100576
0.00100353
0.000994402
0.000992161
0.00100354
0.00100579
0.000992189
0.00100581
0.00099213
0.00100582
0.000992134
0.00102409
0.00102409
0.0010106
0.00101041
0.00101041
0.00102409
0.00101041
0.00099213
0.00100581
0.00100562
0.000992126
0.000992127
0.00100582
0.00100582
0.00099213
0.00100581
0.00101047
0.00102182
0.00102406
0.00101267
0.00102404
0.00101268
0.00101044
0.00101041
0.00102409
0.00102409
0.00101041
0.00101041
0.00102409
0.00102409
0.00101041
0.00100576
0.00100353
0.000994402
0.00099216
0.00100354
0.00100578
0.00099219
0.00100576
0.00100353
0.000994402
0.000992161
0.00100354
0.00100579
0.00099219
0.00100581
0.000992129
0.00100581
0.000992134
0.00100581
0.00099213
0.00100582
0.000992134
0.00102409
0.00101041
0.00102409
0.00101041
0.00100562
0.000992127
0.000992127
0.00100582
0.00100582
0.00099213
0.00100581
0.00099213
0.00100581
0.000987533
0.000973845
0.000987533
0.000973845
0.000987537
0.000987537
0.000974037
0.000973841
0.000973842
0.000955557
0.000969247
0.000955557
0.000969247
0.000969054
0.000955553
0.000955553
0.000969251
0.000969251
0.000973849
0.000987534
0.000987532
0.000973844
0.000973903
0.000987504
0.000985261
0.000976112
0.000987483
0.000973875
0.000976119
0.000973903
0.000987504
0.000985261
0.00097611
0.000987482
0.000973875
0.000976119
0.000969247
0.000955556
0.000969249
0.000955561
0.000969247
0.000955557
0.000969249
0.000955561
0.000969195
0.000966967
0.000955587
0.000957828
0.000969218
0.000966975
0.000955615
0.000969195
0.000966966
0.000955588
0.000957828
0.000969218
0.000966975
0.000955616
0.000987536
0.000987537
0.000974035
0.000973843
0.000973843
0.000987533
0.000973846
0.000955558
0.000969248
0.000969053
0.000955555
0.000955554
0.000969252
0.000969253
0.000955558
0.000969248
0.000973903
0.000987504
0.000985261
0.000976111
0.000987483
0.000973875
0.000976119
0.000973849
0.000987534
0.000987532
0.000973844
0.000973903
0.000985261
0.000987504
0.000976111
0.000987483
0.000976119
0.000973875
0.000969247
0.000955556
0.000969249
0.000955561
0.000969195
0.000966967
0.000955587
0.000957828
0.000969218
0.000966975
0.000955615
0.000969246
0.000955556
0.000969249
0.000955561
0.000969195
0.000966967
0.000957828
0.000955587
0.000966975
0.000969218
0.000955615
0.00097385
0.000987535
0.000987533
0.000973846
0.000973905
0.00098526
0.000987505
0.000976112
0.000987483
0.000976118
0.000973876
0.00097385
0.000987535
0.000987533
0.000973845
0.000969197
0.000966966
0.000955588
0.000957829
0.00096922
0.000966974
0.000955615
0.000969248
0.000955557
0.00096925
0.000955561
0.000969197
0.000966968
0.000957829
0.000955587
0.000966975
0.000969219
0.000955614
0.000969248
0.000955556
0.000969249
0.000955561
0.000987537
0.000987537
0.000974035
0.000973842
0.000973842
0.000987533
0.000973845
0.000955557
0.000969247
0.000969054
0.000955554
0.000955554
0.000969251
0.000969252
0.000955557
0.000969247
0.000973903
0.000985261
0.000987505
0.000976112
0.000987484
0.000976119
0.000973875
0.000973849
0.000987535
0.000987533
0.000973845
0.000973849
0.000987535
0.000987533
0.000973845
0.000969195
0.000966967
0.000957829
0.000955587
0.000966975
0.000969219
0.000955615
0.000969195
0.000966968
0.000957829
0.000955587
0.000966976
0.000969218
0.000955615
0.000969247
0.000955557
0.000969249
0.000955561
0.000969247
0.000955556
0.000969249
0.000955561
0.000987533
0.000973845
0.000987533
0.000973845
0.000969055
0.000955553
0.000955553
0.000969251
0.000969251
0.000955556
0.000969247
0.000955557
0.000969247
0.000950958
0.000937265
0.000950958
0.000937265
0.000950962
0.000950962
0.000937449
0.000937262
0.000937262
0.00091897
0.000932665
0.00091897
0.000932665
0.000932464
0.000918967
0.000918967
0.00093267
0.00093267
0.000937269
0.00095096
0.000950958
0.000937264
0.000937324
0.00095093
0.00094868
0.000939525
0.000950908
0.000937295
0.000939531
0.000937324
0.00095093
0.00094868
0.000939526
0.000950908
0.000937296
0.000939532
0.000932664
0.000918968
0.000932666
0.000918971
0.000932664
0.000918967
0.000932666
0.000918971
0.000932613
0.000930376
0.000918998
0.000921237
0.000932636
0.000930384
0.000919023
0.000932613
0.000930378
0.000918997
0.000921237
0.000932636
0.000930384
0.000919023
0.000950963
0.000950963
0.000937452
0.000937262
0.000937262
0.000950959
0.000937265
0.000918968
0.000932665
0.000932467
0.000918966
0.000918965
0.000932669
0.000932669
0.000918968
0.000932665
0.000937324
0.00095093
0.000948679
0.000939525
0.000950907
0.000937295
0.00093953
0.000937269
0.00095096
0.000950958
0.000937264
0.000937324
0.00094868
0.00095093
0.000939526
0.000950908
0.000939531
0.000937295
0.000932664
0.000918968
0.000932666
0.000918971
0.000932613
0.000930376
0.000918998
0.000921236
0.000932636
0.000930383
0.000919023
0.000932664
0.000918968
0.000932666
0.000918971
0.000932613
0.000930377
0.000921236
0.000918998
0.000930383
0.000932636
0.000919023
0.000937269
0.00095096
0.000950958
0.000937264
0.000937324
0.000948681
0.000950929
0.000939525
0.000950907
0.000939531
0.000937295
0.000937269
0.000950959
0.000950958
0.000937264
0.000932614
0.000930379
0.000918997
0.000921237
0.000932636
0.000930384
0.000919023
0.000932664
0.000918967
0.000932666
0.000918971
0.000932614
0.000930376
0.000921236
0.000918998
0.000930383
0.000932636
0.000919023
0.000932664
0.000918968
0.000932666
0.000918971
0.000950962
0.000950962
0.00093745
0.000937262
0.000937262
0.000950958
0.000937265
0.00091897
0.000932665
0.000932465
0.000918966
0.000918967
0.000932669
0.000932669
0.00091897
0.000932665
0.000937324
0.00094868
0.00095093
0.000939525
0.000950907
0.000939531
0.000937295
0.000937269
0.00095096
0.000950958
0.000937264
0.000937269
0.000950959
0.000950958
0.000937264
0.000932614
0.000930377
0.000921236
0.000918998
0.000930383
0.000932636
0.000919023
0.000932614
0.000930376
0.000921236
0.000918998
0.000930383
0.000932636
0.000919023
0.000932664
0.000918968
0.000932666
0.000918971
0.000932664
0.000918968
0.000932666
0.000918971
0.000950957
0.000937265
0.000950958
0.000937265
0.000932465
0.000918967
0.000918967
0.00093267
0.00093267
0.00091897
0.000932665
0.00091897
0.000932665
0.00091437
0.000900675
0.00091437
0.000900675
0.000914375
0.000914375
0.000900856
0.000900672
0.000900672
0.00088238
0.000896075
0.00088238
0.000896075
0.000895872
0.000882377
0.000882377
0.000896079
0.000896079
0.000900676
0.000914369
0.000914366
0.000900673
0.000900729
0.000914339
0.000912088
0.00090293
0.000914312
0.000900703
0.000902938
0.000900729
0.000914338
0.000912089
0.00090293
0.000914312
0.000900703
0.000902938
0.000896073
0.000882379
0.000896076
0.000882383
0.000896073
0.000882379
0.000896075
0.000882382
0.000896021
0.000893782
0.000882409
0.00088464
0.000896045
0.000893787
0.000882436
0.000896021
0.000893782
0.000882409
0.00088464
0.000896044
0.000893787
0.000882436
0.000914372
0.000914373
0.000900856
0.000900671
0.000900671
0.000914368
0.000900674
0.00088238
0.000896075
0.000895871
0.000882377
0.000882377
0.000896078
0.000896079
0.000882381
0.000896075
0.000900728
0.000914339
0.000912088
0.000902931
0.000914312
0.000900703
0.000902938
0.000900676
0.000914369
0.000914366
0.000900673
0.000900728
0.000912088
0.000914338
0.000902931
0.000914312
0.000902938
0.000900703
0.000896073
0.000882379
0.000896076
0.000882383
0.000896021
0.000893782
0.000882409
0.00088464
0.000896045
0.000893788
0.000882436
0.000896073
0.000882379
0.000896075
0.000882383
0.000896021
0.000893782
0.00088464
0.000882409
0.000893788
0.000896045
0.000882436
0.000900676
0.000914369
0.000914366
0.000900673
0.000900728
0.000912089
0.000914339
0.000902931
0.000914312
0.000902938
0.000900703
0.000900676
0.00091437
0.000914366
0.000900673
0.00089602
0.000893781
0.000882409
0.000884639
0.000896044
0.000893787
0.000882436
0.000896073
0.000882379
0.000896075
0.000882383
0.000896021
0.000893782
0.00088464
0.000882409
0.000893787
0.000896045
0.000882436
0.000896073
0.000882379
0.000896076
0.000882383
0.000914374
0.000914374
0.000900856
0.000900671
0.000900671
0.00091437
0.000900675
0.00088238
0.000896075
0.000895872
0.000882377
0.000882377
0.000896079
0.000896079
0.00088238
0.000896075
0.000900729
0.000912088
0.000914339
0.000902931
0.000914313
0.000902938
0.000900704
0.000900676
0.00091437
0.000914366
0.000900673
0.000900677
0.00091437
0.000914366
0.000900674
0.000896021
0.000893782
0.000884641
0.000882409
0.000893788
0.000896045
0.000882436
0.000896021
0.000893783
0.000884641
0.000882409
0.000893788
0.000896045
0.000882436
0.000896073
0.000882379
0.000896076
0.000882383
0.000896073
0.000882379
0.000896076
0.000882383
0.00091437
0.000900675
0.00091437
0.000900675
0.000895873
0.000882377
0.000882376
0.000896079
0.000896079
0.00088238
0.000896075
0.00088238
0.000896075
0.00087778
0.000864087
0.000877781
0.000864088
0.000877784
0.000877785
0.000864273
0.000864084
0.000864084
0.000845798
0.000859488
0.000845798
0.000859489
0.000859291
0.000845795
0.000845795
0.000859492
0.000859493
0.000864089
0.000877781
0.000877778
0.000864086
0.000864142
0.00087775
0.000875495
0.000866347
0.000877726
0.000864116
0.000866351
0.000864142
0.00087775
0.000875494
0.000866343
0.000877726
0.000864116
0.00086635
0.000859486
0.000845797
0.000859489
0.000845801
0.000859486
0.000845798
0.000859489
0.000845801
0.000859433
0.000857204
0.00084582
0.000848065
0.000859458
0.000857207
0.000845895
0.000859433
0.0008572
0.000845876
0.000848064
0.000859458
0.000857207
0.000845896
0.000877784
0.000877785
0.00086427
0.000864085
0.000864085
0.000877781
0.000864088
0.000845799
0.000859489
0.000859287
0.000845796
0.000845795
0.000859493
0.000859494
0.000845799
0.000859489
0.000864142
0.00087775
0.000875495
0.000866346
0.000877727
0.000864116
0.00086635
0.000864089
0.000877781
0.000877778
0.000864086
0.000864142
0.000875495
0.00087775
0.000866344
0.000877727
0.00086635
0.000864116
0.000859486
0.000845797
0.000859489
0.0008458
0.000859433
0.000857204
0.000845826
0.000848064
0.000859458
0.000857207
0.000845852
0.000859486
0.000845797
0.000859489
0.0008458
0.000859433
0.000857201
0.000848064
0.000845827
0.000857207
0.000859458
0.000845852
0.00086409
0.000877782
0.000877779
0.000864086
0.000864142
0.000875495
0.00087775
0.000866345
0.000877727
0.000866351
0.000864115
0.000864089
0.000877781
0.000877779
0.000864086
0.000859434
0.0008572
0.000845818
0.000848065
0.000859458
0.000857207
0.000845894
0.000859486
0.000845797
0.00085949
0.0008458
0.000859433
0.000857201
0.000848065
0.000845819
0.000857208
0.000859458
0.000845894
0.000859486
0.000845796
0.000859489
0.0008458
0.000877784
0.000877784
0.000864271
0.000864084
0.000864084
0.00087778
0.000864087
0.000845798
0.000859489
0.000859289
0.000845795
0.000845795
0.000859492
0.000859492
0.000845799
0.000859488
0.000864141
0.000875496
0.00087775
0.000866345
0.000877727
0.000866352
0.000864115
0.000864089
0.000877781
0.000877778
0.000864086
0.000864089
0.000877781
0.000877778
0.000864085
0.000859433
0.000857202