/*--------------------------------*- C++ -*----------------------------------*\
| =========                 |                                                 |
| \\      /  F ield         | OpenFOAM: The Open Source CFD Toolbox           |
|  \\    /   O peration     | Version:  v2006                                 |
|   \\  /    A nd           | Website:  www.openfoam.com                      |
|    \\/     M anipulation  |                                                 |
\*---------------------------------------------------------------------------*/
FoamFile
{
    version     2.0;
    format      ascii;
    class       surfaceScalarField;
    location    "250";
    object      phi;
}
// * * * * * * * * * * * * * * * * * * * * * * * * * * * * * * * * * * * * * //

dimensions      [0 3 -1 0 0 0 0];
oriented        oriented;


internalField   nonuniform List<scalar> 
41407
(
-1.17318e-06
1.88776e-07
-2.15512e-07
1.27587e-06
2.33897e-07
8.56297e-07
-2.09928e-07
2.05401e-07
-0.00113456
1.51679e-07
-8.55081e-07
-1.27901e-06
-1.62937e-07
-1.63992e-07
-2.40344e-07
1.16195e-06
2.14555e-07
-2.0725e-07
-8.57806e-07
8.58809e-07
2.08109e-07
-0.00113421
-2.04054e-07
-2.26967e-07
0.000269066
-0.000271087
8.89621e-09
-0.00117874
-2.58253e-08
3.3738e-09
1.11477e-08
9.85272e-05
-9.85417e-05
-1.09215e-08
-2.45426e-08
8.8256e-08
0.00024662
-0.000246677
3.86332e-09
2.68377e-08
-2.89072e-09
0.000194514
-0.000194535
3.51989e-08
-1.36009e-08
2.98349e-10
0.000230398
-1.51427e-10
-0.00023042
9.33648e-09
-7.65955e-07
-9.46403e-07
9.48929e-07
7.67878e-07
-0.00115236
-5.05355e-10
-1.08939e-08
8.34789e-08
3.89084e-09
0.000246527
-0.000246577
1.54436e-07
4.6174e-10
0.000251247
-0.000251365
-1.34536e-09
2.37415e-08
-5.85532e-09
0.000279445
-0.000279463
-8.79756e-09
2.82853e-08
-5.37322e-09
0.000279561
-0.000279586
3.39553e-09
9.85423e-05
-9.85545e-05
0.000194569
-0.000194587
-2.8135e-09
-1.25709e-08
5.33398e-11
3.55322e-08
0.000264392
-0.000264418
-7.28528e-10
7.96722e-05
-7.9684e-05
9.09172e-10
0.0001719
-1.67873e-12
-0.000171914
-1.38416e-08
3.81538e-08
0.00022435
-0.000224374
0.000144027
-0.00014404
-2.01274e-08
5.97836e-08
3.03861e-08
0.000251743
-0.000251789
1.33204e-08
-4.36953e-09
0.000183891
-0.000183905
-1.10073e-08
3.16745e-08
0.000222885
-0.000222912
-1.96639e-08
-0.000222962
1.3406e-08
-2.9949e-08
1.09663e-08
0.000251897
-1.74773e-08
6.42208e-08
2.79135e-08
-0.000251943
1.52765e-08
0.000183952
-4.41291e-09
-0.000183968
-2.33411e-08
6.35402e-09
8.25222e-09
-1.16478e-08
-6.03658e-08
-2.91144e-08
-1.09843e-08
3.38889e-08
-0.000222988
4.62148e-09
4.92013e-09
8.09441e-05
-8.09534e-05
4.86931e-09
8.09606e-05
-8.09699e-05
0.000214735
-0.000214747
-4.23438e-09
4.79842e-10
-2.3502e-08
-3.61842e-08
1.39973e-08
-0.000264525
-1.48075e-09
-9.96425e-08
-0.000243981
-8.25529e-08
3.45458e-08
-9.67058e-08
0.000262276
-0.000262564
0.000261912
-8.65858e-08
-0.000262204
2.01088e-07
2.26736e-07
-0.000244099
6.47894e-08
2.54368e-09
-0.00120304
-2.09187e-07
7.60984e-09
1.58632e-07
-0.000265135
-6.52127e-10
0.00026157
8.47433e-09
-0.000261672
-8.43051e-08
-5.29474e-09
-0.000251913
-1.89486e-09
8.59349e-09
0.000261479
-0.000261581
1.57247e-07
1.03617e-09
0.000251813
-0.000251931
1.22192e-09
0.000265062
-0.000265755
6.57712e-10
0.00026687
-0.000267479
-3.03233e-09
1.73832e-07
0.000250628
-0.000250762
0.000266694
-0.000267464
-3.69884e-08
-0.000230441
1.24264e-08
2.00943e-10
4.21813e-09
-2.34177e-08
4.75238e-10
-0.000194588
4.30305e-09
-2.33924e-08
-0.000194563
-8.22891e-09
-9.8552e-05
-8.14305e-09
-9.85385e-05
-1.25117e-06
-1.2034e-06
-0.000269083
2.11482e-07
2.19165e-07
-1.15155e-08
5.75323e-09
-0.000279558
-2.56584e-08
-9.26242e-09
5.85683e-09
-0.000279484
-2.54788e-08
-0.000251279
-1.07318e-09
-1.56511e-07
1.89965e-08
-1.24316e-06
2.3109e-07
-2.29259e-07
-8.60645e-07
2.02627e-07
-2.0998e-07
8.58944e-07
-0.00113412
-5.15988e-09
-0.000246627
-8.42292e-08
-9.4937e-07
7.65089e-07
-7.66014e-07
9.49155e-07
-0.00115248
-1.20615e-06
2.20373e-07
-2.26395e-07
2.02669e-07
-2.04656e-07
-0.00113502
-0.000246584
-8.4266e-08
-9.2605e-10
1.18488e-08
0.000144104
7.02189e-10
-0.000144116
-1.15885e-08
-1.56427e-10
3.53099e-08
-0.000230464
-0.000171942
-4.10498e-10
-0.000224453
1.25521e-08
1.45558e-09
-4.0132e-08
-0.000171955
-2.2589e-09
3.81846e-08
-0.000224477
2.51139e-10
1.2573e-08
7.97179e-05
-7.97298e-05
-0.000264515
1.17839e-08
-3.61815e-08
-2.80019e-09
-3.42451e-09
2.46086e-08
-0.000194606
3.54212e-08
-0.000264543
-3.32011e-09
2.46397e-08
-0.000194581
-4.33463e-09
-1.03593e-08
8.79009e-09
-9.85642e-05
8.88575e-09
-9.85507e-05
-4.82457e-09
-4.90494e-09
0.00021474
8.77958e-09
1.07831e-08
-0.00021475
-8.09623e-05
-4.92426e-09
-4.54316e-09
-8.09443e-05
-4.83351e-09
-4.62514e-09
4.49261e-09
-8.09717e-05
4.40135e-09
-8.09536e-05
-8.87468e-09
-1.11371e-08
-1.52282e-08
0.000222966
1.75835e-08
3.12036e-08
-0.000222991
-0.000183955
-1.54214e-08
-5.4933e-09
2.59477e-08
1.11167e-08
-0.000279581
1.71189e-08
-0.000251888
-6.0312e-08
-2.88925e-08
-0.000183971
-3.22325e-08
6.18078e-08
3.063e-08
-0.000251937
-1.55363e-08
0.000222895
2.2356e-08
2.92593e-08
-0.00022292
-0.00018389
-1.53659e-08
-7.97749e-09
2.60743e-08
8.5135e-09
-0.000279502
1.72624e-08
-0.000251781
-6.24468e-08
-2.40766e-08
-0.00018391
-3.23515e-08
5.96237e-08
2.7715e-08
-0.00025182
-1.17898e-08
-2.25407e-10
4.19404e-10
-2.56537e-08
-1.47394e-09
-3.62484e-08
4.02124e-10
-1.4571e-08
1.44847e-08
4.18696e-10
-3.69804e-08
1.67276e-10
3.1064e-11
-4.0102e-08
1.53978e-08
-1.70959e-08
8.90504e-09
5.88642e-09
-2.54068e-08
-9.179e-09
4.66646e-09
-2.39527e-08
4.83038e-09
4.88401e-09
0.000243992
8.65403e-08
9.39558e-08
-0.000244112
-2.16609e-07
-2.11624e-07
-0.000271104
8.97974e-08
-0.0002619
8.76165e-08
-0.000262321
-0.000262198
-0.000262606
-1.71335e-07
1.95438e-09
0.000266759
-3.89676e-09
-0.000267535
-1.01775e-09
1.54471e-07
-0.000251397
-0.000250719
-1.71452e-07
1.82095e-09
-0.000266891
-2.91286e-09
-3.54312e-09
-0.00025085
-0.0002675
5.59984e-10
-1.59853e-07
-8.65183e-09
0.000265134
-0.00026583
-0.000251915
-1.586e-07
4.01097e-09
8.59071e-08
-0.000246681
-0.000261564
-4.81637e-09
-0.000252039
-0.000261666
8.5929e-08
-0.000246643
-0.000261548
-0.00026165
1.58607e-07
1.01673e-08
-1.36001e-08
-5.26844e-09
-8.19123e-08
-4.28339e-09
-2.47107e-09
1.73894e-07
-1.53938e-07
8.48595e-10
3.37448e-10
8.87841e-10
-1.18997e-06
-1.28541e-06
0.000271126
-0.000269089
2.32968e-07
2.05044e-07
-1.82497e-07
-0.00113415
-1.20678e-07
-1.27247e-06
2.18308e-07
-2.39328e-07
-8.54119e-07
2.09319e-07
-2.00603e-07
8.60089e-07
0.00113454
0.00113453
1.18948e-07
-0.00113501
2.16528e-07
-1.16708e-06
2.40419e-07
-2.1185e-07
-8.61824e-07
2.04039e-07
-2.1141e-07
8.6317e-07
1.24237e-06
-2.12802e-07
-2.10607e-07
0.000269094
1.2131e-06
-2.25256e-07
1.24726e-06
2.26805e-07
8.63153e-07
-2.05868e-07
-8.59123e-07
2.0685e-07
-7.1126e-09
-4.9471e-09
0.00113453
-0.00117904
6.29719e-08
2.62637e-08
0.00117888
-0.000194573
-3.44126e-09
2.40976e-08
-2.70037e-09
0.000194555
-8.38162e-09
-4.27028e-09
9.85595e-05
-9.85469e-05
8.5664e-09
3.43734e-09
9.85463e-05
-8.49003e-09
-4.18646e-09
9.85464e-05
-9.85338e-05
1.09747e-08
3.53246e-09
9.85331e-05
1.24792e-06
1.20852e-06
0.000269081
-2.13488e-07
-2.21051e-07
-9.36746e-09
0.000279569
-2.38035e-08
-0.000279553
8.92998e-09
-1.18063e-08
0.000279489
-2.15804e-08
-0.00027947
6.25373e-09
8.62136e-09
-5.28532e-09
2.29296e-08
0.000279549
1.07263e-08
-5.54709e-09
3.03261e-08
0.000279472
-4.82268e-11
3.44836e-08
-1.11254e-08
3.16907e-10
0.000230431
-2.39047e-08
-0.000194581
5.02501e-10
0.0001946
2.40497e-08
-2.61853e-09
0.000194576
-3.0273e-10
-3.79684e-08
-0.000230432
1.29264e-08
7.49811e-10
0.000230457
3.44479e-08
-1.11028e-08
7.04556e-11
0.000230392
2.62071e-08
-3.41869e-09
-2.73304e-09
0.000194516
-3.80227e-08
-0.000230393
1.29495e-08
2.83911e-10
0.000230417
5.80501e-10
1.23312e-09
1.56075e-07
0.00025127
-2.46386e-08
-2.02893e-09
1.2463e-06
-2.26028e-07
2.2883e-07
8.59851e-07
-2.03464e-07
2.0642e-07
-8.54461e-07
-8.52258e-08
-0.000246616
-5.39416e-09
0.000246674
-0.00115251
-5.13496e-08
1.62732e-08
-9.45408e-07
7.69198e-07
-7.64774e-07
9.50353e-07
0.00115242
4.03144e-09
8.01652e-08
0.000246615
-1.04794e-08
4.36123e-09
9.4986e-07
-7.62789e-07
-9.43449e-07
7.68583e-07
-1.88242e-09
-0.000251273
3.61628e-10
-1.57886e-07
0.000251394
-5.04504e-10
1.56027e-07
0.000251246
7.35409e-09
-1.24011e-06
-4.23316e-09
8.62832e-07
-2.06008e-07
-8.56654e-07
2.06686e-07
1.24378e-06
-2.28605e-07
2.29117e-07
0.00113421
-0.00115247
-1.67381e-09
-9.47934e-07
7.69275e-07
-7.64686e-07
9.53121e-07
-1.21888e-08
0.00115242
-8.46617e-09
6.38988e-09
8.24856e-08
0.000246521
3.7129e-09
9.52527e-07
-7.65476e-07
-9.45939e-07
7.68633e-07
-0.000251246
-2.62534e-11
-1.6051e-07
0.000251366
1.07476e-08
9.85256e-05
1.2052e-06
0.000269078
-2.10567e-07
-2.15747e-07
-8.00894e-09
2.52534e-08
0.000279431
-8.33321e-09
8.60208e-09
-6.10523e-09
2.2888e-08
0.000279556
3.5571e-09
9.85389e-05
3.44411e-08
2.0155e-10
1.00918e-10
-1.32477e-08
0.000230427
-0.000230448
-2.39883e-08
-0.000194554
6.18048e-10
2.87146e-08
-3.2078e-09
0.000194555
-3.79645e-08
9.30221e-11
-0.000230428
2.74635e-10
1.29195e-08
0.000230453
1.59218e-09
4.39853e-10
1.56124e-07
0.000251264
-0.000251388
-3.37477e-09
2.07913e-08
1.20943e-06
-2.28721e-07
2.23762e-07
8.57458e-07
-2.14412e-07
2.01094e-07
-8.64776e-07
0.000246628
-8.28198e-08
-0.000246576
-5.44313e-09
-0.00115238
6.04682e-08
-1.85755e-08
-9.48095e-07
7.69135e-07
-7.64795e-07
9.53112e-07
0.00115254
3.85776e-09
9.24447e-08
0.000246582
8.08239e-09
2.19157e-08
9.46917e-07
-7.68268e-07
-9.51522e-07
7.65813e-07
-0.0011524
-4.00943e-10
-0.000251265
-1.45091e-09
-1.55274e-07
0.000251384
3.6868e-08
-1.53014e-08
8.75642e-11
0.000230389
-0.000230411
2.63576e-08
-3.46847e-09
-2.73952e-09
0.000194505
-0.000194525
-3.79029e-08
-0.00023039
1.49499e-08
7.49081e-10
0.000230413
1.5612e-07
-2.4264e-11
0.00025124
-0.000251358
-2.83735e-09
-1.24018e-06
-2.9174e-09
8.57275e-07
-2.03459e-07
-8.54112e-07
2.03836e-07
1.24367e-06
-2.28728e-07
2.28985e-07
-0.00113415
0.00113414
-0.00115236
5.37486e-09
-9.4529e-07
7.69144e-07
-7.64819e-07
9.5024e-07
9.72406e-09
0.0011524
1.04471e-08
9.46972e-07
-7.68306e-07
-9.46006e-07
7.65823e-07
-0.00115237
-1.09066e-08
3.95322e-09
8.49985e-08
0.000246516
-0.000246568
-0.000251241
-1.55265e-07
1.26567e-09
0.000251357
-3.18513e-08
1.68706e-09
4.73322e-10
1.53453e-07
0.000251266
7.74903e-10
-3.30311e-09
1.20955e-06
-2.20053e-07
2.21206e-07
8.54653e-07
-2.03366e-07
-8.51456e-07
2.03934e-07
0.00113471
-2.38573e-08
4.0096e-09
8.24432e-08
0.000246619
1.33108e-09
9.92465e-09
9.46953e-07
-7.62718e-07
-9.43233e-07
7.65778e-07
0.00115228
2.78758e-10
-4.49735e-13
-1.09657e-08
0.000230431
-2.49742e-09
0.000194563
-3.19072e-08
1.53523e-07
5.8279e-11
0.000251242
3.40347e-09
-1.23451e-06
-2.32588e-09
8.57068e-07
-2.06193e-07
-8.5417e-07
2.06358e-07
1.23806e-06
-2.23138e-07
2.23402e-07
0.00113378
1.02341e-08
9.46877e-07
-7.6282e-07
-9.43319e-07
7.65732e-07
0.00115223
-2.40533e-08
-1.09387e-08
3.86615e-09
8.50183e-08
0.000246553
-1.10124e-08
2.13818e-10
0.000230393
-3.48615e-09
-2.66658e-09
0.000194513
1.09343e-08
9.85216e-05
-9.8536e-05
1.20281e-06
0.000269067
-2.08256e-07
-2.15754e-07
-0.000271086
-5.9534e-09
2.3137e-08
0.000279433
-0.000279451
-8.52242e-09
1.09937e-08
-5.52445e-09
2.53736e-08
0.000279551
-0.000279574
3.45895e-09
9.85369e-05
-9.85489e-05
9.25686e-10
-3.44304e-08
1.53518e-07
7.07684e-10
0.000251262
-0.000251383
2.23447e-09
-2.48119e-09
1.20648e-06
-2.23143e-07
2.23617e-07
8.57275e-07
-2.0616e-07
-8.54085e-07
2.06553e-07
-0.00113463
0.00113462
4.78226e-09
4.98813e-09
9.46947e-07
-7.6278e-07
-9.43306e-07
7.65758e-07
0.00115217
-0.00115219
-2.40167e-08
4.00112e-09
8.25581e-08
0.000246616
-0.000246668
-3.44719e-08
1.5354e-07
-4.45888e-10
0.000251236
-0.000251354
2.71431e-09
-1.19488e-06
-2.17884e-09
8.5703e-07
-2.06223e-07
-8.53958e-07
2.06449e-07
1.19823e-06
-2.20525e-07
2.20804e-07
0.00113479
5.23703e-09
9.46652e-07
-7.62771e-07
-9.43091e-07
7.6569e-07
0.00115209
-0.0011521
-2.40928e-08
-8.53765e-09
3.89145e-09
8.50606e-08
0.000246521
1.29922e-10
2.9759e-10
-1.31915e-08
0.000230428
-0.00023045
-2.62979e-09
0.000194559
-0.000194577
1.42406e-10
-1.11103e-08
0.000230389
-0.000230413
-3.4287e-09
-2.69798e-09
0.000194507
0.000269051
-2.05625e-07
-2.15887e-07
-8.52184e-09
-5.5372e-09
2.54589e-08
0.000279516
-8.5783e-09
-5.47217e-09
2.54423e-08
0.000279435
9.85286e-05
9.85232e-05
8.62967e-09
9.85475e-05
3.36765e-09
8.56595e-09
9.85344e-05
2.08528e-08
-8.4784e-09
0.000279557
8.40815e-09
1.08091e-08
2.31187e-08
-5.93741e-09
0.000279469
8.49925e-08
3.69032e-09
0.000246574
1.22735e-08
7.97115e-05
-6.38159e-10
-0.000264506
1.20783e-08
0.000264531
-3.45402e-08
-1.35774e-09
3.72594e-08
1.54343e-10
7.97238e-05
-1.91388e-10
-7.97135e-05
-1.2067e-08
-2.32535e-10
7.97258e-05
-1.22802e-08
0.000264508
-0.000264531
3.25166e-08
7.14247e-13
6.03661e-10
4.21026e-09
-2.3982e-08
0.000194574
-7.97251e-05
-6.86493e-10
-3.44917e-08
-1.44455e-09
0.000264533
-9.85589e-05
8.66132e-09
3.37123e-09
-8.41271e-09
-4.23018e-09
-9.85458e-05
8.5363e-09
3.455e-09
-8.47481e-09
-4.2037e-09
-0.000214731
5.18361e-09
4.67757e-09
-9.18714e-09
-1.13064e-08
0.000214741
4.58469e-09
8.09556e-05
4.40434e-09
5.03501e-09
8.0943e-05
4.42227e-09
8.38007e-09
1.07167e-08
-4.55302e-09
8.09653e-05
-4.62472e-09
8.09523e-05
-1.32063e-08
2.19559e-08
0.000222958
-0.000222984
-1.05919e-08
2.86455e-08
-0.00025189
2.01288e-08
0.000251939
-6.57274e-08
-2.7111e-08
-8.46745e-09
2.31634e-08
-0.000279567
8.43553e-09
-0.000183943
-1.39551e-08
4.50886e-09
0.000183961
-0.00018396
-4.4781e-09
-0.000251931
5.66079e-08
2.98255e-08
1.12886e-08
0.000222985
-3.29205e-08
-1.49652e-08
1.48407e-08
0.00022289
-0.000222917
-8.46322e-09
3.52402e-08
-0.000251761
1.7524e-08
0.000251816
-6.14862e-08
-3.20842e-08
-5.49821e-09
2.54436e-08
-0.000279492
1.08384e-08
-0.000183888
-1.36723e-08
4.60615e-09
0.000183903
-0.000183904
-4.4185e-09
-0.000251814
6.55251e-08
2.75768e-08
9.27765e-09
0.00022292
-3.51545e-08
-0.000222954
1.59421e-08
-2.01496e-08
-3.49759e-08
1.48945e-08
0.00018394
-1.44383e-08
0.000251887
5.85765e-08
2.50791e-08
8.46121e-09
-2.61482e-08
-9.25756e-09
3.08119e-08
-6.32465e-08
-2.69565e-08
-0.000222894
1.37063e-08
-1.73029e-08
-3.06828e-08
1.49598e-08
0.000183889
-2.01185e-08
0.00025177
7.09943e-08
3.0318e-08
6.18888e-09
-2.37117e-08
-1.17669e-08
3.54806e-08
-5.86872e-08
-2.67653e-08
-4.59067e-09
-5.03965e-09
0.000214732
-8.09563e-05
-5.15502e-09
8.09659e-05
-8.09428e-05
-4.74361e-09
8.09522e-05
0.000214743
-0.000144096
3.90302e-10
-1.29332e-08
2.32656e-10
0.000144108
9.38008e-10
0.000171932
-2.23722e-11
-1.14794e-08
0.000224443
-1.47876e-10
3.75267e-08
1.2909e-08
6.92874e-10
0.000230456
-1.39006e-10
-3.78835e-08
6.65974e-10
0.000171946
-2.44504e-11
3.58293e-09
0.000224468
-4.0834e-08
7.97134e-05
1.23419e-08
-7.9725e-05
-7.13608e-10
-2.33303e-09
-0.000194597
2.18984e-08
1.20133e-08
-0.000264509
-1.53521e-09
-3.68306e-08
0.000264536
-2.69898e-10
7.97256e-05
-0.000264531
2.58912e-11
3.25424e-08
-7.97127e-05
-1.20415e-08
-1.22867e-08
0.000264505
3.49125e-08
-1.97474e-09
-2.38899e-08
-3.65309e-08
0.000144097
-9.63393e-10
1.1453e-08
-1.10901e-08
1.69248e-10
-2.63936e-10
3.43573e-08
-3.75682e-10
-0.000171934
-2.11697e-11
0.000171947
1.29536e-08
-0.000224442
-4.09439e-08
0.00022447
0.000144109
-2.72644e-11
3.7441e-08
-0.000144024
5.46478e-10
-1.29538e-08
2.42657e-10
0.000144036
9.37959e-10
0.000171898
-1.14565e-08
0.000224345
-9.09166e-11
3.50414e-08
1.29302e-08
2.29769e-10
0.000230416
-3.79362e-08
6.74205e-10
0.000171911
1.39617e-09
0.00022437
-3.8511e-08
-7.96668e-05
-1.20494e-08
7.96791e-05
-1.22688e-08
0.000264381
3.24248e-08
5.64563e-10
4.28033e-09
-2.62303e-08
0.000194537
-3.45736e-08
0.000264405
-9.85743e-10
1.14221e-08
0.000144025
7.40506e-10
-1.10626e-08
-8.57759e-11
3.43077e-08
-0.000171899
-3.48054e-10
0.000171913
-0.000224346
1.29705e-08
-3.85971e-08
1.50763e-09
0.000224371
3.49127e-08
3.37753e-11
3.03057e-10
0.000144037
-1.0618e-08
9.85405e-05
-0.000214728
4.89789e-09
5.25347e-09
-1.15004e-08
-9.24796e-09
0.000214739
4.86e-09
8.09417e-05
4.36737e-09
4.53532e-09
8.09529e-05
4.61518e-09
1.04748e-08
8.41481e-09
-4.58836e-09
8.09512e-05
-4.4442e-09
8.09626e-05
-2.00372e-08
-0.000222879
1.59203e-08
-3.30596e-08
0.000222904
1.51076e-08
0.00018388
0.000251726
-1.96006e-08
2.74998e-08
6.08386e-08
-2.61625e-08
8.36097e-09
-9.17616e-09
0.000279447
-2.69375e-08
-6.36659e-08
0.000251771
3.0699e-08
0.0001839
-0.000222952
1.39085e-08
-1.77571e-08
-3.29124e-08
0.00022298
1.28754e-08
0.000183937
-1.70096e-08
0.000251899
5.84197e-08
2.48319e-08
6.17344e-09
-2.40422e-08
8.65296e-09
-9.24553e-09
0.000279574
3.06343e-08
0.000183953
-6.10772e-08
-2.4525e-08
0.000251942
-4.11816e-09
9.85516e-05
-0.000144092
-1.29278e-08
4.05365e-10
2.17917e-10
0.000144104
-1.14961e-08
0.000224437
-8.76068e-11
3.75484e-08
-0.000224463
9.29564e-10
0.000171928
4.99117e-11
-0.000171942
4.91007e-10
1.29016e-08
0.000230451
1.10793e-10
-3.79038e-08
6.59707e-10
-0.000144103
1.42549e-09
0.000224461
-3.84277e-08
0.000171941
4.638e-11
7.97128e-05
1.22832e-08
-7.97244e-05
-6.81292e-10
-2.35129e-10
-0.000194574
2.40654e-08
1.20706e-08
-0.000264507
-1.44349e-09
-3.45023e-08
-2.29219e-10
-0.000264527
6.87354e-13
3.23441e-08
-7.97121e-05
-1.20676e-08
-1.22814e-08
0.000264503
3.72865e-08
5.90106e-10
-2.3929e-08
-3.45121e-08
0.000144093
1.14685e-08
-7.83941e-10
-5.17034e-10
-1.1086e-08
2.81548e-10
3.43414e-08
1.29513e-08
-0.000224437
-3.85026e-08
0.000224462
-4.05367e-10
-0.000171929
5.88212e-11
0.000171942
0.000144105
3.5012e-08
7.4143e-11
-0.000144019
3.3388e-10
-1.49221e-08
2.39844e-10
0.000144033
9.67547e-10
0.000171891
-0.000171907
-1.35074e-08
0.00022434
-9.30325e-11
3.99294e-08
-0.000224366
1.49319e-08
7.16557e-10
0.000230414
-4.03046e-08
7.20017e-10
-0.000144032
0.000171906
1.47476e-09
0.000224367
-4.32762e-08
-7.96673e-05
-1.20173e-08
7.96796e-05
-1.23201e-08
0.00026438
3.48879e-08
-0.000264405
5.05513e-10
4.35397e-09
-2.61992e-08
0.000194526
-7.96789e-05
-3.68888e-08
0.000264407
-1.00285e-09
1.34912e-08
0.00014402
7.70811e-10
-1.31364e-08
1.46965e-10
3.67658e-08
-0.000171892
-3.07474e-10
0.000171907
-0.000224341
1.49397e-08
-4.08746e-08
1.54825e-09
0.000224366
3.98502e-08
4.16536e-13
2.81767e-10
0.000144034
-0.000144093
-1.5063e-08
4.52215e-10
3.70296e-10
0.000144107
-1.33412e-08
0.000224443
-2.32832e-10
3.72992e-08
8.87975e-10
0.000171928
7.86559e-11
5.30823e-10
1.30045e-08
1.04449e-10
-3.55413e-08
0.000230453
4.51236e-10
1.34524e-09
-4.10068e-08
0.000224468
5.28212e-11
0.000171941
-7.97113e-05
-1.43451e-08
7.9726e-05
-1.42683e-08
0.000264512
3.46553e-08
7.45274e-10
-2.41913e-08
0.000194583
-3.70022e-08
0.000264537
-0.000144026
3.63183e-10
-1.29744e-08
2.4264e-10
0.000144038
9.94948e-10
0.000171896
-1.14111e-08
0.000224351
4.58403e-12
3.50263e-08
1.29731e-08
5.57264e-10
-3.54815e-08
0.000230415
7.02334e-10
0.00017191
1.46224e-09
-3.84822e-08
0.000224375
-7.96697e-05
-1.20831e-08
7.96821e-05
-1.22386e-08
0.000264391
3.2468e-08
6.41418e-10
4.14373e-09
-2.39893e-08
0.000194533
-3.44696e-08
0.000264416
-1.07171e-08
9.85367e-05
-0.000214728
4.947e-09
5.01444e-09
-9.14101e-09
-9.0722e-09
0.000214737
4.81352e-09
8.09401e-05
4.45245e-09
-8.09494e-05
4.73669e-09
8.09566e-05
4.51032e-09
-8.09658e-05
8.37939e-09
8.39061e-09
-0.000214736
-4.59624e-09
8.09496e-05
-4.51709e-09
8.09661e-05
-1.76317e-08
-0.000222877
1.36738e-08
-3.03946e-08
0.000222902
1.30423e-08
0.000183882
-0.000183896
0.000251728
-1.72103e-08
3.0159e-08
5.85668e-08
-0.000251776
-2.38002e-08
6.34472e-09
-1.16915e-08
0.000279452
-2.94451e-08
-6.10332e-08
0.000251777
2.84087e-08
-0.000222901
0.000183897
-0.000222956
1.56906e-08
-1.75881e-08
-3.27104e-08
0.000222981
1.49494e-08
0.000183943
-0.000183959
-1.71331e-08
0.000251893
6.10263e-08
3.00644e-08
-0.000251942
5.73057e-09
-2.61606e-08
8.48892e-09
-1.16875e-08
0.000279575
3.07268e-08
-0.00022298
0.00018396
-6.3489e-08
-2.9484e-08
0.000251943
-4.20402e-09
9.85496e-05
-0.000144091
-1.70112e-08
3.98176e-10
3.71612e-10
0.000144107
-1.55306e-08
0.000224443
-1.54961e-10
3.74223e-08
-0.000224465
9.0018e-10
0.000171927
2.99947e-11
-0.000171942
3.95494e-10
1.49837e-08
1.57197e-10
-3.78601e-08
0.000230451
4.97329e-10
-0.000144106
1.39873e-09
-4.08419e-08
0.000224466
2.46229e-11
0.000171943
-7.97111e-05
-1.42483e-08
7.97257e-05
-1.43957e-08
0.000264513
3.47693e-08
-0.000264536
6.17951e-10
-2.40133e-08
0.000194578
-7.9725e-05
-3.68711e-08
0.000264537
-0.000144023
-1.28931e-08
3.93608e-10
2.11473e-10
0.000144035
-1.14809e-08
0.000224346
-3.71393e-11
3.50871e-08
-0.000224369
9.57834e-10
0.000171894
-0.000171906
5.00289e-10
1.28819e-08
-3.78571e-08
0.000230414
6.76096e-10
-0.000144034
1.41858e-09
-3.83909e-08
0.000224371
0.000171907
-7.9668e-05
-1.20668e-08
7.96803e-05
-1.22759e-08
0.000264386
3.25062e-08
6.08326e-10
4.2111e-09
-2.3961e-08
0.000194526
-3.44726e-08
0.00026441
-0.000214726
6.83263e-09
4.84794e-09
-1.13569e-08
-1.13855e-08
0.000214737
6.54383e-09
8.0954e-05
4.51635e-09
4.95247e-09
8.09407e-05
4.4423e-09
1.08339e-08
1.06458e-08
-4.35181e-09
8.09652e-05
-4.51848e-09
8.095e-05
-0.000222944
-1.75494e-08
1.75251e-08
-3.50793e-08
0.000222968
1.69442e-08
0.000183935
-1.7114e-08
0.000251851
2.74989e-08
6.11123e-08
-2.6055e-08
5.58793e-09
8.51474e-09
-1.16793e-08
0.000279539
3.323e-08
-2.69951e-08
-6.32821e-08
0.000251898
0.000183954
-0.000222879
-1.75976e-08
1.55314e-08
-3.27963e-08
0.000222902
1.50616e-08
0.000183881
-1.71444e-08
0.000251737
2.50116e-08
5.84796e-08
-2.59468e-08
5.71034e-09
8.40681e-09
-9.28289e-09
0.000279456
3.09839e-08
-2.4455e-08
-6.08277e-08
0.000251779
0.000183898
9.85412e-05
9.85358e-05
-8.42647e-09
-4.26641e-09
9.85602e-05
-8.42148e-09
9.85471e-05
-0.000222961
1.39722e-08
-2.02684e-08
1.13468e-08
-3.0551e-08
0.000222987
-1.94193e-08
0.000251896
5.6084e-08
2.73239e-08
1.31896e-08
0.000183944
-4.4845e-09
8.96767e-09
-2.15829e-08
0.00027957
-9.45246e-09
-1.05444e-08
2.84215e-08
4.53864e-09
0.000183963
-5.87178e-08
0.00025194
-2.70844e-08
-0.000222891
1.36515e-08
-1.75158e-08
9.26814e-09
-3.27999e-08
0.000222918
-1.7227e-08
0.000251766
6.08621e-08
2.9792e-08
1.30029e-08
0.000183889
-4.42054e-09
6.26517e-09
-2.38073e-08
-1.18138e-08
0.00027949
-8.44163e-09
3.30743e-08
4.60639e-09
0.000183904
-6.09349e-08
-2.9837e-08
0.000251815
-0.000214733
5.153e-09
4.81394e-09
0.000214744
4.59867e-09
8.09568e-05
4.95286e-09
8.09428e-05
8.09665e-05
8.09522e-05
9.54664e-08
8.0951e-08
0.000243989
-0.000244102
-1.9507e-07
-2.2594e-07
-0.000271107
-0.000261909
8.83557e-08
0.000262206
-0.000262312
9.59615e-08
0.0002626
-0.000262191
-0.000262604
0.000244105
-0.000243991
-9.07782e-08
-9.08363e-08
0.000244109
-8.80901e-08
0.000261912
2.25545e-07
-8.81758e-08
0.000262314
2.17485e-07
2.15268e-07
-1.21753e-06
0.000271126
-2.26582e-07
0.000262206
0.000262604
-3.98342e-09
-3.46399e-08
-0.00120336
-1.86667e-07
-1.68226e-07
0.00120379
-0.00120368
2.10904e-07
1.83258e-07
0.0012033
-3.48099e-08
-3.14627e-08
2.59367e-08
1.58413e-08
-0.00120374
0.00122916
-2.55993e-08
1.50849e-08
-0.00122916
-1.48777e-07
1.51625e-07
0.00122918
1.13051e-08
-1.47417e-09
0.0011789
-0.00120321
-2.8208e-08
-3.26382e-08
0.00120311
-6.25441e-09
1.79424e-08
-2.74235e-09
0.0012037
0.0012291
2.78866e-10
-0.00122911
2.04073e-08
-3.21395e-08
0.00122893
-4.5902e-09
6.21075e-09
-0.00117876
0.00117875
-0.00120295
3.85764e-08
3.54928e-08
0.00120306
1.94215e-08
-0.00120295
1.76832e-09
1.97993e-09
0.00120345
-0.00120344
0.0012286
-4.15107e-09
-0.00122856
-2.21227e-08
2.55808e-08
0.00122878
2.34667e-09
8.339e-10
0.00117874
1.26589e-08
0.00120287
8.46017e-09
0.00120337
-0.00120337
0.00122852
-0.0012285
-8.90011e-09
1.92924e-09
0.00122852
-0.000243986
-9.07035e-08
-9.07428e-08
2.14954e-07
2.14957e-07
-8.81515e-08
0.000261901
-9.38592e-08
0.000262314
-0.00026676
1.7759e-07
-2.29842e-09
3.22728e-09
0.000267531
1.70476e-07
0.000250709
1.31747e-09
2.59419e-09
0.000266891
-2.67486e-11
1.48592e-09
-1.60206e-07
0.000251391
-2.17209e-10
3.63642e-09
4.32737e-09
0.000250843
0.000267497
6.67051e-10
-5.57328e-09
-1.58849e-07
0.000265136
-0.000265827
1.02664e-09
-0.000261569
-8.00267e-09
0.000261674
8.49872e-08
3.84821e-09
-0.000246675
-0.000251907
-1.62143e-07
-2.06613e-09
0.000252029
-0.00026166
-0.000252031
9.16432e-10
-8.7451e-09
0.000265835
7.73435e-09
-0.000265134
1.62074e-07
1.54023e-07
0.000251908
0.000261558
8.67695e-09
-8.5193e-08
-7.69609e-09
-1.70164e-07
-7.54066e-10
0.000266757
3.69935e-10
1.53174e-07
-1.05408e-09
-0.000250712
-1.75236e-07
0.000250844
-0.000266888
7.20559e-10
-4.58529e-09
0.000267503
-3.35804e-09
0.000267524
-0.000266696
1.75089e-07
-8.1441e-10
3.24697e-09
0.000267471
1.70369e-07
0.000250626
-1.15699e-09
-1.79733e-09
0.000266878
4.09434e-10
-1.60257e-07
0.000251367
-3.85475e-09
1.77815e-09
0.000250762
0.000267486
-0.000265054
1.57268e-07
1.04605e-08
0.000265752
1.53624e-07
0.000251808
1.09889e-08
0.000261466
-7.69163e-09
-8.29079e-08
0.000246576
0.000251924
0.000261573
-1.70037e-07
2.57059e-09
0.000266694
-3.71868e-09
-9.50246e-10
1.55664e-07
-0.000250627
-1.75327e-07
1.92804e-09
0.000250761
-0.000266876
-1.91834e-10
0.000267481
-9.9755e-10
3.37135e-09
0.000267469
-9.08397e-08
-0.00024398
-9.08815e-08
0.000244096
2.15301e-07
2.19962e-07
0.000271096
0.000262271
-8.8465e-08
-8.79656e-08
0.00026192
0.000262561
0.000262209
-1.66555e-07
0.000265136
1.20587e-09
-0.0002519
-1.52023e-07
0.000252016
-4.0088e-09
1.33063e-09
0.000265841
-1.62885e-08
-0.000266754
1.74915e-07
-2.18219e-09
1.38759e-08
0.000267515
1.73134e-07
0.000250701
-3.68167e-09
-0.000250832
-2.39113e-10
0.000266883
5.26659e-09
-0.0002675
6.70288e-10
-1.57605e-07
0.000251383
2.73151e-10
-1.67156e-08
-0.000267516
1.77871e-09
0.000250836
0.000267491
-1.82159e-09
-1.08048e-08
-1.58504e-07
0.000265126
-0.000265838
1.92399e-08
-0.000261533
-8.01496e-09
0.00026163
8.5014e-08
8.61674e-09
-0.000246634
-0.00025189
-1.6236e-07
-1.95624e-09
0.000252015
-0.000261642
-0.000252012
3.47874e-09
-8.49961e-10
0.00026582
7.95564e-09
-0.000265132
1.57327e-07
1.61258e-07
0.000251892
0.000261543
1.07336e-08
-8.27105e-08
-5.35743e-09
-1.72716e-07
6.3234e-09
0.000266752
-2.15142e-09
1.53199e-07
1.07832e-09
-0.0002507
-1.75193e-07
0.000250833
-0.000266881
-4.01461e-09
-6.20882e-10
0.0002675
4.74177e-09
0.000267525
-0.000266692
-9.49651e-10
1.77504e-07
3.16125e-09
0.00026746
-2.27981e-10
0.00026687
-0.000267477
1.73007e-07
0.000250618
-1.15353e-09
-0.00025075
-1.57589e-07
9.57226e-10
0.000251357
-1.34359e-09
-0.000267464
0.000267476
1.85097e-09
0.000250752
-0.000265055
1.62191e-07
7.7626e-09
0.000265745
1.58789e-07
0.000251802
-0.000251923
8.4969e-09
0.00026147
-0.000261567
-5.30906e-09
-8.51818e-08
0.000246568
-0.000265743
0.000251924
0.000261567
-1.694e-10
-1.72707e-07
0.000266691
-3.7605e-09
1.53203e-07
7.68172e-11
-0.000266869
1.84059e-09
0.00026748
-0.00025062
-1.75138e-07
2.03067e-09
0.000250753
-9.62011e-10
3.40156e-09
0.000267465
-0.000266752
1.75067e-07
-3.69458e-09
1.11988e-08
0.000267517
1.7039e-07
0.000250706
-1.12749e-09
-4.941e-10
0.000266884
6.28472e-09
1.36545e-09
-1.57682e-07
-2.2004e-10
0.000251387
-1.15602e-08
1.79923e-09
0.00025084
-3.74405e-09
0.000267492
-0.000265145
7.97008e-09
1.57304e-07
0.000265845
1.53761e-07
0.000251913
8.23398e-09
0.000261576
-8.3042e-08
-5.29151e-09
0.000246674
0.000261681
0.00025203
-0.000266693
-8.00084e-11
1.74956e-07
6.71048e-10
0.000267464
6.46443e-11
0.000266869
1.70471e-07
0.000250627
-1.04015e-09
-1.57612e-07
5.76248e-10
0.000251363
-1.2399e-09
0.000267473
1.94608e-09
0.000250762
-0.000265059
1.59579e-07
7.87999e-09
0.000265749
1.56354e-07
0.000251817
8.34551e-09
0.000261498
-5.35377e-09
-8.51226e-08
0.000246608
0.000251939
0.0002616
-9.06446e-08
-0.000243976
-8.81861e-08
0.000244092
2.12484e-07
2.1986e-07
0.000271085
0.000262266
-8.84233e-08
-0.000262556
-8.58438e-08
0.000261914
-0.000262206
0.000262556
-0.000244091
0.000262206
-0.000266749
-1.81594e-09
1.77477e-07
1.10976e-08
0.000267509
6.47718e-10
0.000266874
-4.78072e-10
-0.000267483
1.72955e-07
0.000250705
-3.59774e-09
-0.000250836
-1.57619e-07
8.98672e-10
6.47525e-10
0.000251381
-1.17745e-08
-0.000267507
3.56157e-09
0.000267477
4.23695e-09
0.000250838
-0.000265135
1.04616e-08
1.59652e-07
0.000265833
1.56183e-07
0.000251907
-0.000252028
1.10435e-08
0.000261569
-0.000261674
-8.28529e-08
-5.30066e-09
0.000246669
-0.000265834
0.000261674
0.000252029
-0.000266689
-3.60513e-09
1.74861e-07
1.88902e-08
0.000267446
-3.14483e-09
0.000266867
-0.000267474
1.704e-07
0.00025062
-3.51046e-09
-0.000250752
-1.57582e-07
9.90093e-10
0.000251355
-1.95033e-08
-0.000267445
0.000267475
4.31739e-09
0.000250753
-0.000265065
1.59584e-07
1.04844e-08
0.000265771
1.56256e-07
0.000251806
1.10158e-08
0.000261482
-5.33367e-09
-8.51262e-08
0.000246578
0.00025193
0.000261589
-0.000243966
-9.05621e-08
-8.8153e-08
0.000244076
2.09542e-07
2.20039e-07
0.000271058
-8.83361e-08
0.000261868
-8.59818e-08
0.000262278
0.000262147
0.00026257
1.62318e-07
-0.000265126
1.08135e-08
-3.62501e-09
0.00026582
1.06476e-08
0.000261528
0.000251891
1.58663e-07
9.25208e-10
-5.50103e-09
-8.52149e-08
0.000246629
-2.01413e-09
0.000252016
3.49938e-09
0.000261631
-3.7731e-08
-2.45155e-10
-0.000230426
4.49571e-10
1.49798e-08
-4.29834e-09
-1.07473e-08
-9.8521e-05
1.20334e-06
6.91673e-09
2.06213e-07
-2.06634e-07
-1.20336e-06
2.23281e-07
-2.23627e-07
9.1989e-09
-8.54645e-07
8.56867e-07
1.16374e-08
2.40596e-08
-0.000246615
-8.28158e-08
-5.18562e-09
-1.90636e-09
-0.000251269
1.27208e-10
-1.54595e-07
-5.61685e-08
8.54909e-08
-9.60727e-07
7.64998e-07
-7.71977e-07
9.43455e-07
-3.76539e-08
-0.00023039
1.70117e-08
2.11914e-10
-2.6224e-08
-0.000194503
5.93266e-10
-0.00025124
-1.57149e-07
-3.53917e-10
2.09083e-08
1.24322e-06
1.22101e-08
-8.57348e-07
2.03471e-07
8.56874e-07
-2.03948e-07
-1.24352e-06
2.28579e-07
-2.29272e-07
2.72808e-08
-9.49673e-07
7.67738e-07
-7.69242e-07
9.48917e-07
1.1595e-08
-0.000246515
-5.15862e-09
-8.51236e-08
-0.000269071
2.12228e-07
2.19569e-07
-0.000279432
6.29818e-09
-2.3843e-08
8.52643e-09
-0.00027955
5.72432e-09
-2.61817e-08
-4.17608e-09
-9.85362e-05
-0.000194558
6.96991e-10
1.15146e-08
-8.99342e-10
0.000144091