/*--------------------------------*- C++ -*----------------------------------*\
| =========                 |                                                 |
| \\      /  F ield         | OpenFOAM: The Open Source CFD Toolbox           |
|  \\    /   O peration     | Version:  v2006                                 |
|   \\  /    A nd           | Website:  www.openfoam.com                      |
|    \\/     M anipulation  |                                                 |
\*---------------------------------------------------------------------------*/
FoamFile
{
    version     2.0;
    format      ascii;
    class       volVectorField;
    location    "250";
    object      U;
}
// * * * * * * * * * * * * * * * * * * * * * * * * * * * * * * * * * * * * * //

dimensions      [0 1 -1 0 0 0 0];


internalField   nonuniform List<vector> 
14404
(
(6.25503e-07 -3.13371e-07 0.107734)
(3.13841e-07 -6.77785e-07 0.107733)
(3.26293e-05 -3.27803e-05 0.104591)
(-6.87346e-07 6.53659e-07 0.112003)
(2.88359e-06 -1.77793e-06 0.0719274)
(2.75581e-06 -9.94019e-06 0.0934484)
(6.41893e-06 -5.05415e-07 0.0826304)
(5.76832e-06 6.30004e-08 0.0918157)
(2.0487e-07 4.81992e-08 0.109919)
(9.93848e-06 -2.7503e-06 0.0934476)
(1.08336e-05 1.33544e-08 0.0989838)
(3.67192e-06 -3.46221e-06 0.0879656)
(3.4755e-06 -3.65561e-06 0.0879677)
(1.84129e-06 -2.91194e-06 0.0719286)
(5.43107e-07 -6.40197e-06 0.0826306)
(5.3141e-06 1.36755e-07 0.0862313)
(2.95604e-06 1.07398e-06 0.0687848)
(3.22535e-06 1.8821e-07 0.0790423)
(5.84801e-06 1.29264e-07 0.0903219)
(3.36772e-06 8.14912e-07 0.0772583)
(1.07261e-05 -6.28912e-06 0.0967233)
(3.29227e-06 -1.80044e-06 0.0819521)
(7.31266e-06 -3.53754e-06 0.0920974)
(-3.54618e-06 7.47446e-06 0.0921341)
(6.24507e-06 -1.06752e-05 0.0967262)
(1.79614e-06 -3.26339e-06 0.0819573)
(-3.53616e-06 3.424e-06 0.0879994)
(-5.92576e-06 1.06679e-05 0.0967619)
(3.47788e-06 -7.30523e-06 0.092104)
(-1.95468e-06 3.17996e-06 0.0819873)
(1.48476e-06 -1.77533e-06 0.0686654)
(1.79257e-06 -1.4631e-06 0.0686715)
(2.52678e-06 -2.50406e-06 0.0839983)
(-1.96396e-06 2.78584e-06 0.0719638)
(-1.22835e-06 6.12696e-06 0.0826668)
(-6.55958e-07 5.45018e-06 0.0862705)
(-1.01822e-05 1.00562e-05 0.098036)
(1.07991e-05 -3.43145e-05 0.101883)
(3.4212e-05 -1.08833e-05 0.101886)
(-3.42681e-05 3.4124e-05 0.104692)
(-3.44734e-05 1.10378e-05 0.101943)
(9.69979e-06 -9.81491e-06 0.0979935)
(-1.10889e-05 3.43527e-05 0.10194)
(-5.89633e-07 -1.07415e-07 0.113898)
(-1.30342e-06 4.21178e-05 0.101863)
(3.43711e-06 -4.06097e-05 0.0999897)
(-3.18201e-06 9.41813e-06 0.0934921)
(-2.95553e-06 3.99184e-05 0.100041)
(-1.13542e-06 1.1512e-05 0.0961121)
(4.06099e-05 -3.43854e-06 0.0999881)
(1.12019e-05 -6.00522e-07 0.0960569)
(4.14278e-05 -1.54562e-06 0.10177)
(3.78663e-05 9.75196e-08 0.103933)
(1.11417e-05 -4.99704e-08 0.098021)
(3.90235e-05 -2.22092e-07 0.103296)
(-2.13698e-08 -6.40503e-06 0.0918447)
(-1.21937e-06 -6.10246e-06 0.0826663)
(-6.10579e-06 -1.24273e-06 0.0826666)
(-1.96261e-06 -2.77545e-06 0.0719643)
(-2.76429e-06 -2.00366e-06 0.0719635)
(-3.42488e-05 -3.42504e-05 0.104693)
(-3.50437e-06 -3.41906e-06 0.0879997)
(-3.39423e-06 -3.55089e-06 0.0879977)
(3.3242e-08 -1.13983e-05 0.099029)
(6.56281e-07 3.12077e-07 0.107733)
(-3.12298e-06 -9.37848e-06 0.0934917)
(-1.14394e-07 2.324e-07 0.10992)
(3.18159e-07 5.64814e-07 0.107734)
(-9.39732e-06 -3.18761e-06 0.0934914)
(-8.03914e-07 3.41242e-06 0.0772603)
(-5.82654e-08 5.81881e-06 0.0918165)
(5.57204e-08 -3.37384e-06 0.0790675)
(-1.72889e-07 -6.46632e-06 0.0903556)
(-1.88527e-07 3.27322e-06 0.079044)
(-1.20637e-07 5.89351e-06 0.0903227)
(4.71582e-07 -3.46157e-06 0.0772887)
(-1.06564e-06 2.95553e-06 0.0687833)
(-6.68083e-07 -5.46058e-06 0.0862694)
(5.4584e-07 6.43319e-06 0.0826308)
(-1.22135e-07 5.32083e-06 0.0862309)
(3.8089e-07 -2.81359e-06 0.0688236)
(6.44251e-06 5.04704e-07 0.0826312)
(-2.6989e-06 1.96102e-06 0.0719646)
(1.85143e-06 2.91563e-06 0.0719296)
(2.92663e-06 1.8105e-06 0.0719286)
(2.51267e-06 2.46832e-06 0.0839989)
(-1.82449e-06 -1.43747e-06 0.0687025)
(-1.41363e-06 -1.85061e-06 0.0686963)
(1.81037e-06 1.45895e-06 0.0686719)
(1.48371e-06 1.79192e-06 0.0686656)
(-2.55435e-06 -2.60948e-06 0.0840247)
(3.49825e-06 7.25073e-06 0.0921046)
(-1.91737e-06 -3.15644e-06 0.0819876)
(3.52244e-06 3.65404e-06 0.0879683)
(-5.86628e-06 -1.06853e-05 0.096762)
(1.82964e-06 3.27278e-06 0.0819578)
(-3.52745e-06 -7.528e-06 0.0921344)
(6.29358e-06 1.0653e-05 0.0967265)
(7.29036e-06 3.47433e-06 0.0920978)
(-3.14345e-06 -1.93627e-06 0.081982)
(3.69516e-06 3.47277e-06 0.0879665)
(-1.05798e-05 -5.94323e-06 0.0967592)
(3.29997e-06 1.80582e-06 0.0819521)
(-7.47355e-06 -3.57006e-06 0.0921278)
(1.07285e-05 6.21779e-06 0.0967238)
(-2.81435e-06 -3.86236e-07 0.0688256)
(-6.0725e-06 1.23901e-06 0.0826672)
(-5.47341e-06 6.81745e-07 0.0862702)
(-3.41181e-06 -4.86382e-07 0.0772892)
(-6.40362e-06 9.26419e-09 0.0918452)
(-3.32379e-06 -6.13381e-08 0.079068)
(-6.46155e-06 1.74576e-07 0.0903563)
(-7.46438e-06 3.51648e-06 0.0921272)
(-3.35996e-06 3.52509e-06 0.0879978)
(-3.17482e-06 1.97063e-06 0.0819814)
(-1.0562e-05 5.88306e-06 0.0967587)
(-2.53081e-06 2.56427e-06 0.0840246)
(-1.42439e-06 1.86125e-06 0.0686962)
(-1.84587e-06 1.44045e-06 0.0687025)
(9.70969e-06 9.72363e-06 0.097994)
(3.26478e-05 3.26732e-05 0.104592)
(-3.44355e-05 -1.11245e-05 0.101943)
(-1.1088e-05 -3.44616e-05 0.10194)
(-1.01591e-05 -1.01576e-05 0.0980363)
(3.42412e-05 1.08257e-05 0.101886)
(1.08272e-05 3.41904e-05 0.101884)
(2.12447e-07 3.90544e-05 0.103296)
(-1.18721e-08 1.08463e-05 0.0989839)
(-1.60541e-07 -1.18398e-05 0.0980739)
(2.09094e-07 -3.88919e-05 0.104014)
(6.18729e-08 1.11428e-05 0.0980212)
(-7.36816e-08 3.78881e-05 0.103933)
(-7.0823e-09 -4.03292e-05 0.103397)
(1.54028e-06 4.14699e-05 0.101771)
(-1.09898e-06 -1.15056e-05 0.0961116)
(2.82078e-06 9.95531e-06 0.0934484)
(-2.88578e-06 -3.98988e-05 0.100041)
(6.40025e-07 1.12256e-05 0.0960567)
(3.51187e-06 4.06214e-05 0.0999897)
(-1.26853e-06 -4.209e-05 0.101863)
(9.96406e-06 2.74641e-06 0.0934485)
(-3.99e-05 -2.9804e-06 0.10004)
(4.06294e-05 3.39854e-06 0.0999891)
(-4.21618e-05 1.23665e-06 0.101863)
(-9.39218e-06 3.17334e-06 0.0934916)
(-1.15357e-05 1.12312e-06 0.0961121)
(-3.99281e-05 2.93996e-06 0.10004)
(-4.0369e-05 -1.58897e-08 0.103397)
(-1.1384e-05 -4.06794e-08 0.0990292)
(-3.89088e-05 -2.02018e-07 0.104014)
(-1.1822e-05 1.61705e-07 0.0980745)
(-3.45742e-05 -3.47203e-05 0.104692)
(5.213e-07 -7.62932e-08 0.107733)
(-1.58725e-07 3.79752e-07 0.107734)
(3.22938e-05 3.2178e-05 0.10459)
(-3.07809e-07 3.11622e-07 0.107733)
(-5.67486e-07 -7.63057e-07 0.112008)
(6.24362e-06 5.5691e-07 0.0826279)
(-2.00209e-06 -2.82089e-06 0.0719607)
(1.84514e-06 2.90284e-06 0.0719252)
(-2.84757e-06 -1.94021e-06 0.0719601)
(2.80877e-06 1.84123e-06 0.0719246)
(3.2309e-05 3.24876e-05 0.104591)
(-3.59193e-06 -3.48066e-06 0.0879962)
(-3.54488e-06 -3.55874e-06 0.0879943)
(3.41701e-06 3.50994e-06 0.0879645)
(3.6197e-06 3.46842e-06 0.0879625)
(-8.66983e-08 5.59862e-06 0.0918126)
(-1.21503e-06 -6.15689e-06 0.0826627)
(5.95323e-07 6.416e-06 0.0826265)
(-6.29729e-08 -6.66556e-06 0.0918414)
(7.97266e-08 5.58425e-06 0.0918128)
(-5.32729e-07 6.25313e-06 0.0826257)
(5.10972e-08 -6.68271e-06 0.0918416)
(-4.76288e-08 1.04428e-05 0.098981)
(7.11714e-07 1.45357e-07 0.107734)
(-3.21555e-06 -9.67313e-06 0.0934884)
(-1.15733e-07 -3.12177e-08 0.109921)
(2.8355e-06 9.59089e-06 0.093445)
(-2.90136e-08 3.82615e-07 0.109922)
(-4.04313e-08 -1.18516e-05 0.0990266)
(4.3181e-08 1.04281e-05 0.0989812)
(-5.25764e-07 -1.29544e-07 0.107734)
(1.56696e-07 -8.72477e-08 0.109921)
(-2.75661e-06 9.62396e-06 0.0934444)
(1.27696e-07 3.14953e-07 0.109922)
(-1.65456e-08 -1.18828e-05 0.0990269)
(-1.7756e-06 2.80077e-06 0.0719223)
(-3.24428e-05 3.22994e-05 0.104591)
(-3.43338e-06 3.45589e-06 0.0879614)
(-3.4492e-06 3.47973e-06 0.0879645)
(-2.80798e-06 1.8925e-06 0.0719246)
(5.56625e-06 -8.79688e-08 0.0918126)
(-6.31851e-06 -1.19889e-06 0.082663)
(6.16988e-06 5.2834e-07 0.0826269)
(-6.68478e-06 -5.63145e-08 0.0918416)
(1.04802e-05 -4.8524e-08 0.0989812)
(7.82654e-09 4.23676e-07 0.107735)
(-9.61997e-06 -3.26369e-06 0.0934884)
(-2.87329e-08 -6.41157e-08 0.109921)
(9.9099e-06 2.68878e-06 0.0934446)
(3.3846e-07 2.46697e-08 0.109922)
(-1.18295e-05 -6.58791e-09 0.0990268)
(5.5532e-06 9.6629e-08 0.0918122)
(6.31334e-06 -5.39979e-07 0.0826266)
(-6.65155e-06 5.71892e-08 0.0918418)
(1.04641e-05 5.20883e-08 0.0989812)
(-4.06466e-08 -6.10267e-07 0.107733)
(-3.35293e-08 1.24234e-07 0.109921)
(3.49897e-07 5.6296e-08 0.109921)
(9.68644e-06 -2.76055e-06 0.0934442)
(-1.18243e-05 2.71773e-08 0.0990266)
(-1.04075e-05 -3.79559e-08 0.0989817)
(4.31307e-08 4.10997e-07 0.107736)
(-9.56983e-06 2.79124e-06 0.0934458)
(-3.62566e-07 -2.46379e-07 0.109922)
(-5.52893e-06 -4.60987e-08 0.0918131)
(-6.26018e-06 6.28548e-07 0.0826267)
(-1.04318e-05 7.02178e-08 0.0989817)
(-7.99893e-09 -6.27009e-07 0.107733)
(-3.91943e-07 -4.91735e-08 0.109922)
(-9.68629e-06 -2.73895e-06 0.0934449)
(-5.54913e-06 1.29727e-07 0.0918132)
(-6.2875e-06 -5.78669e-07 0.0826272)
(2.85944e-06 -1.81963e-06 0.0719242)
(3.24001e-05 -3.24521e-05 0.104591)
(3.53894e-06 -3.45206e-06 0.0879622)
(3.47829e-06 -3.52064e-06 0.0879639)
(1.86087e-06 -2.85442e-06 0.0719246)
(-3.87843e-08 -1.04462e-05 0.0989814)
(5.52704e-07 2.60197e-08 0.107735)
(-9.94156e-08 -3.69425e-07 0.109921)
(2.77564e-06 -9.65452e-06 0.0934451)
(5.90073e-08 -1.04567e-05 0.0989816)
(-5.9145e-07 4.30847e-08 0.107734)
(4.28139e-08 -3.81598e-07 0.109921)
(-2.74517e-06 -9.70716e-06 0.0934454)
(-7.77298e-08 -5.5639e-06 0.0918126)
(5.82516e-07 -6.28573e-06 0.0826264)
(9.9676e-08 -5.58277e-06 0.0918132)
(-5.56641e-07 -6.28801e-06 0.0826279)
(-3.24683e-05 -3.24322e-05 0.104591)
(-3.55716e-06 -3.48109e-06 0.0879637)
(-3.48153e-06 -3.57674e-06 0.0879629)
(-2.83829e-06 -1.87857e-06 0.0719251)
(-1.85379e-06 -2.85087e-06 0.0719256)
(1.80501e-06 2.8707e-06 0.0719262)
(2.86187e-06 1.86842e-06 0.0719256)
(3.40543e-06 3.55654e-06 0.0879654)
(3.53567e-06 3.44573e-06 0.0879632)
(9.73519e-06 2.6729e-06 0.0934454)
(2.90671e-06 -1.01274e-06 0.0687785)
(-5.65351e-06 -6.5115e-07 0.086265)
(5.15374e-06 -1.03887e-07 0.0862269)
(-2.84782e-06 4.33975e-07 0.0688186)
(-2.855e-06 4.1202e-07 0.0688204)
(5.15494e-06 -1.31341e-07 0.0862283)
(-6.27973e-06 -1.19913e-06 0.0826635)
(2.91039e-06 -1.03689e-06 0.0687803)
(-5.62609e-06 -6.66476e-07 0.0862663)
(1.80837e-06 2.8898e-06 0.0719258)
(-1.98265e-06 -2.79575e-06 0.0719602)
(2.82794e-06 1.86819e-06 0.0719251)
(-2.87863e-06 -1.94968e-06 0.0719596)
(-2.52596e-06 -2.74228e-06 0.0840212)
(1.79902e-06 1.34866e-06 0.068666)
(1.55896e-06 1.79848e-06 0.0686645)
(2.51787e-06 2.38161e-06 0.083995)
(-1.81031e-06 -1.52934e-06 0.0686969)
(-1.33576e-06 -1.85867e-06 0.0686951)
(3.31043e-06 7.05499e-06 0.092101)
(-6.13569e-06 -1.09292e-05 0.0967599)
(3.40961e-06 3.58654e-06 0.087965)
(-1.90446e-06 -3.16335e-06 0.081983)
(1.81582e-06 3.26815e-06 0.081953)
(6.03586e-06 1.03455e-05 0.0967247)
(-3.71238e-06 -7.70225e-06 0.092131)
(7.14442e-06 3.44166e-06 0.0920954)
(-1.09422e-05 -6.06525e-06 0.0967554)
(3.53312e-06 3.46096e-06 0.0879629)
(-3.25457e-06 -1.90952e-06 0.0819797)
(3.18415e-06 1.84762e-06 0.0819498)
(1.04097e-05 6.15284e-06 0.0967197)
(-7.60658e-06 -3.63062e-06 0.0921254)
(-3.7638e-06 -7.7376e-06 0.0921306)
(1.7601e-06 3.21677e-06 0.0819524)
(6.02977e-06 1.02014e-05 0.0967246)
(-3.58223e-06 -3.48599e-06 0.0879958)
(3.20143e-06 7.02761e-06 0.0921004)
(-1.93485e-06 -3.15884e-06 0.0819825)
(-6.12571e-06 -1.10309e-05 0.0967599)
(-7.62277e-06 -3.54215e-06 0.0921251)
(3.2313e-06 1.86986e-06 0.0819495)
(1.06002e-05 6.28444e-06 0.0967193)
(-3.50709e-06 -3.54428e-06 0.0879939)
(7.11057e-06 3.59235e-06 0.0920952)
(-3.24461e-06 -1.88324e-06 0.0819794)
(-1.08013e-05 -5.95255e-06 0.0967548)
(2.53012e-06 2.32381e-06 0.0839955)
(-1.78666e-06 -1.49245e-06 0.0686974)
(-1.36019e-06 -1.88357e-06 0.068695)
(1.84007e-06 1.39575e-06 0.0686665)
(1.55331e-06 1.76046e-06 0.0686644)
(-2.55786e-06 -2.74905e-06 0.0840216)
(4.81432e-07 -3.56873e-06 0.0772844)
(-2.13576e-07 3.14124e-06 0.0790395)
(-1.08553e-07 5.72128e-06 0.0903187)
(-5.49459e-08 -6.64795e-06 0.091841)
(-7.85828e-07 3.30589e-06 0.0772558)
(3.18408e-08 -3.50419e-06 0.0790632)
(-1.80779e-07 -6.65346e-06 0.0903518)
(-1.04685e-06 2.90409e-06 0.0687793)
(5.59856e-07 6.40654e-06 0.0826271)
(-6.82624e-07 -5.57634e-06 0.0862659)
(3.93747e-07 -2.86415e-06 0.0688197)
(-1.26814e-07 5.21364e-06 0.0862273)
(4.18903e-07 -2.86709e-06 0.0688191)
(-8.34209e-08 5.20558e-06 0.0862268)
(-1.18606e-06 -6.13459e-06 0.0826621)
(-1.01817e-06 2.8961e-06 0.0687787)
(-6.4417e-07 -5.5738e-06 0.0862654)
(-8.07198e-07 3.29634e-06 0.0772564)
(-1.00318e-07 5.57059e-06 0.0918131)
(3.67175e-08 -3.50561e-06 0.0790638)
(-2.14892e-07 -6.67071e-06 0.0903523)
(4.6462e-07 -3.57478e-06 0.077285)
(-2.12154e-07 3.13554e-06 0.07904)
(-1.53073e-07 5.70031e-06 0.0903192)
(-4.77469e-07 -3.55613e-06 0.0772841)
(2.06517e-07 3.13978e-06 0.0790396)
(9.44716e-08 5.69483e-06 0.0903193)
(4.42978e-08 -6.66614e-06 0.0918411)
(7.85608e-07 3.31256e-06 0.0772558)
(-3.34756e-08 -3.50698e-06 0.0790633)
(1.62399e-07 -6.69132e-06 0.0903517)
(-4.03443e-07 -2.85346e-06 0.0688209)
(1.12423e-07 5.1704e-06 0.086228)
(1.21138e-06 -6.20482e-06 0.082663)
(1.02959e-06 2.90406e-06 0.0687808)
(6.60956e-07 -5.623e-06 0.0862659)
(8.17566e-07 3.30469e-06 0.0772564)
(8.70065e-08 5.55316e-06 0.0918133)
(-2.84231e-08 -3.50828e-06 0.0790638)
(2.03017e-07 -6.7076e-06 0.0903522)
(2.14992e-07 3.13303e-06 0.0790402)
(1.37287e-07 5.66884e-06 0.0903198)
(-4.47379e-07 -3.55878e-06 0.0772847)
(1.9441e-06 -2.73153e-06 0.0719613)
(2.77532e-06 -2.61831e-06 0.0840213)
(-1.75251e-06 1.48913e-06 0.0686618)
(-1.37763e-06 1.87409e-06 0.0686666)
(-2.31855e-06 2.45517e-06 0.0839948)
(1.87105e-06 -1.41398e-06 0.0686931)
(1.533e-06 -1.76375e-06 0.0686974)
(3.68187e-06 -7.65011e-06 0.0921252)
(-1.79411e-06 3.14658e-06 0.0819474)
(-6.10515e-06 1.03389e-05 0.0967202)
(3.53465e-06 -3.52038e-06 0.0879952)
(6.08714e-06 -1.09582e-05 0.0967566)
(-3.37737e-06 7.09256e-06 0.092094)
(1.91231e-06 -3.20801e-06 0.081979)
(7.7476e-06 -3.72591e-06 0.0921306)
(-3.18475e-06 1.87245e-06 0.081953)
(-1.03129e-05 6.03805e-06 0.0967246)
(3.6263e-06 -3.55105e-06 0.0879951)
(-7.06507e-06 3.30521e-06 0.0921011)
(3.30242e-06 -1.89812e-06 0.0819819)
(1.10055e-05 -6.13326e-06 0.0967593)
(2.8678e-06 -1.92839e-06 0.0719594)
(-3.54556e-06 4.8562e-07 0.0772845)
(5.68405e-06 -1.11e-07 0.090319)
(3.13943e-06 -2.00312e-07 0.0790392)
(-6.67442e-06 -5.77749e-08 0.0918412)
(3.32189e-06 -7.83129e-07 0.077256)
(-6.69843e-06 -1.74017e-07 0.0903519)
(-3.48991e-06 4.41374e-08 0.0790632)
(2.91806e-06 -1.03347e-06 0.0687797)
(6.19677e-06 5.40336e-07 0.0826273)
(-5.64341e-06 -6.67477e-07 0.0862658)
(-2.84815e-06 4.15507e-07 0.0688198)
(5.13694e-06 -1.3773e-07 0.0862278)
(-2.84284e-06 4.21894e-07 0.0688192)
(5.12778e-06 -1.29738e-07 0.0862274)
(-6.36221e-06 -1.21768e-06 0.0826625)
(2.91986e-06 -1.02388e-06 0.0687791)
(-5.65724e-06 -6.71421e-07 0.0862653)
(3.32878e-06 -7.97669e-07 0.0772565)
(5.54285e-06 -9.32034e-08 0.091813)
(-6.7079e-06 -1.86425e-07 0.0903524)
(-3.48551e-06 4.95141e-08 0.0790637)
(-3.54395e-06 4.79846e-07 0.0772851)
(5.66349e-06 -1.3091e-07 0.0903194)
(3.14653e-06 -2.02232e-07 0.0790397)
(-3.50386e-06 -4.69666e-07 0.077285)
(3.09406e-06 2.2856e-07 0.0790381)
(5.67957e-06 1.20141e-07 0.0903182)
(-6.63623e-06 4.55326e-08 0.0918415)
(3.27383e-06 8.2063e-07 0.077254)
(-3.44498e-06 -2.06265e-08 0.0790638)
(-6.64672e-06 1.77244e-07 0.0903525)
(-2.84968e-06 -4.0471e-07 0.0688215)
(5.18082e-06 1.11608e-07 0.0862274)
(-6.20746e-06 1.23005e-06 0.0826627)
(2.91632e-06 1.04021e-06 0.0687805)
(-5.6058e-06 6.78727e-07 0.0862663)
(3.27416e-06 8.45751e-07 0.0772546)
(5.53019e-06 1.07125e-07 0.0918127)
(-3.43943e-06 -1.58327e-08 0.0790644)
(-6.66087e-06 2.0811e-07 0.0903529)
(3.10025e-06 2.36092e-07 0.0790386)
(5.66296e-06 1.52701e-07 0.0903187)
(-3.5041e-06 -4.495e-07 0.0772856)
(3.5498e-06 5.05544e-07 0.0772857)
(-5.61906e-06 -8.18451e-08 0.0903185)
(-3.08139e-06 -1.77661e-07 0.0790395)
(6.70175e-06 1.33136e-08 0.091841)
(-3.20931e-06 -7.65578e-07 0.0772546)
(6.70048e-06 -1.16679e-07 0.0903526)
(3.53261e-06 6.70432e-08 0.0790634)
(2.81507e-06 4.76677e-07 0.0688211)
(-5.09777e-06 -7.54051e-08 0.0862263)
(6.27326e-06 -1.15901e-06 0.0826627)
(-2.79056e-06 -1.03174e-06 0.0687764)
(5.62011e-06 -6.043e-07 0.0862666)
(3.57479e-06 -4.67961e-07 0.0772843)
(-3.09944e-06 2.34239e-07 0.0790398)
(-5.68318e-06 1.51304e-07 0.0903195)
(6.68584e-06 9.27779e-08 0.0918408)
(-3.28362e-06 8.11371e-07 0.077256)
(3.5241e-06 -1.9375e-08 0.0790633)
(6.6938e-06 2.07936e-07 0.0903517)
(2.86899e-06 -4.19473e-07 0.0688214)
(-5.16852e-06 1.16954e-07 0.0862284)
(6.2508e-06 1.1734e-06 0.0826628)
(-2.88923e-06 1.0263e-06 0.0687814)
(5.6161e-06 6.60408e-07 0.0862661)
(-2.79694e-06 1.98303e-06 0.0719597)
(-2.62964e-06 2.65145e-06 0.0840209)
(1.46392e-06 -1.79259e-06 0.0686621)
(1.81896e-06 -1.43558e-06 0.0686682)
(2.45214e-06 -2.42075e-06 0.0839952)
(-1.43845e-06 1.8436e-06 0.0686927)
(-1.81652e-06 1.46436e-06 0.0686991)
(-7.6402e-06 3.68789e-06 0.0921234)
(3.24583e-06 -1.83594e-06 0.0819484)
(1.03886e-05 -6.1261e-06 0.0967204)
(-3.50946e-06 3.57046e-06 0.0879936)
(-1.09162e-05 6.08422e-06 0.0967555)
(7.13741e-06 -3.36924e-06 0.0920943)
(-3.21389e-06 1.94151e-06 0.0819773)
(-3.66349e-06 7.64895e-06 0.0921305)
(1.8437e-06 -3.20147e-06 0.0819532)
(6.09381e-06 -1.03607e-05 0.096723)
(-3.55853e-06 3.54955e-06 0.0879958)
(3.35727e-06 -7.11504e-06 0.0921005)
(-1.89979e-06 3.23614e-06 0.0819834)
(-6.09153e-06 1.09263e-05 0.0967589)
(-1.95809e-06 2.83619e-06 0.0719599)
(5.01682e-07 3.48926e-06 0.0772858)
(-1.10676e-07 -5.64876e-06 0.0903179)
(-1.97488e-07 -3.11166e-06 0.0790388)
(-1.68598e-08 6.64222e-06 0.0918414)
(-7.91494e-07 -3.23506e-06 0.0772536)
(-1.35924e-07 6.6403e-06 0.0903529)
(4.98421e-08 3.47026e-06 0.0790635)
(4.64988e-07 2.79356e-06 0.0688211)
(-1.06207e-07 -5.1277e-06 0.0862259)
(-1.20314e-06 6.23685e-06 0.0826628)
(-1.0641e-06 -2.82199e-06 0.068776)
(-6.30404e-07 5.58473e-06 0.0862667)
(-4.81131e-07 3.54374e-06 0.0772845)
(1.28693e-07 -5.70542e-06 0.0903198)
(2.15522e-07 -3.13935e-06 0.0790398)
(6.9762e-08 6.64949e-06 0.0918412)
(7.9686e-07 -3.31459e-06 0.0772563)
(1.85744e-07 6.6621e-06 0.0903521)
(-3.40341e-08 3.48986e-06 0.0790634)
(-4.3445e-07 2.85898e-06 0.0688218)
(1.13554e-07 -5.18128e-06 0.086229)
(1.19943e-06 6.24666e-06 0.0826635)
(1.02025e-06 -2.90237e-06 0.0687819)
(6.51145e-07 5.61066e-06 0.0862667)
(2.63408e-06 2.54771e-06 0.0840224)
(-1.38554e-06 -1.78539e-06 0.0686656)
(-1.76841e-06 -1.50563e-06 0.068662)
(-2.41003e-06 -2.51478e-06 0.0839936)
(1.42643e-06 1.72288e-06 0.0687003)
(1.8394e-06 1.42803e-06 0.0686938)
(7.60261e-06 3.64805e-06 0.0921313)
(-3.21561e-06 -1.85335e-06 0.0819521)
(-1.03991e-05 -6.09813e-06 0.0967229)
(3.50752e-06 3.53195e-06 0.0879958)
(-7.10779e-06 -3.33576e-06 0.0920995)
(1.08895e-05 6.09231e-06 0.0967589)
(3.15577e-06 1.82399e-06 0.081984)
(3.66409e-06 7.57444e-06 0.0921244)
(-1.83084e-06 -3.24616e-06 0.0819485)
(-6.10703e-06 -1.03906e-05 0.0967204)
(3.54411e-06 3.48209e-06 0.0879942)
(-3.34792e-06 -7.16614e-06 0.0920937)
(6.09537e-06 1.08582e-05 0.0967557)
(1.87852e-06 3.17708e-06 0.0819788)
(2.86147e-06 1.92803e-06 0.0719604)
(1.96038e-06 2.83159e-06 0.0719606)
(-1.9982e-06 -2.82808e-06 0.0719612)
(-2.81809e-06 -1.95459e-06 0.0719606)
(-3.73958e-06 -7.68244e-06 0.0921316)
(6.01296e-06 1.03925e-05 0.0967249)
(1.82369e-06 3.23791e-06 0.0819536)
(-3.60836e-06 -3.53392e-06 0.0879967)
(3.31134e-06 7.08327e-06 0.0921015)
(-1.92212e-06 -3.20417e-06 0.0819836)
(-6.15215e-06 -1.09295e-05 0.0967603)
(-7.60808e-06 -3.61461e-06 0.0921258)
(1.03637e-05 6.07848e-06 0.0967203)
(3.1863e-06 1.82317e-06 0.0819501)
(-3.52154e-06 -3.56844e-06 0.0879948)
(7.15186e-06 3.41796e-06 0.0920958)
(-3.23982e-06 -1.90963e-06 0.0819801)
(-1.09109e-05 -6.11699e-06 0.0967561)
(-2.5974e-06 -2.74003e-06 0.0840221)
(1.84403e-06 1.40758e-06 0.0686671)
(1.5245e-06 1.74807e-06 0.0686644)
(2.4838e-06 2.33137e-06 0.083996)
(-1.79823e-06 -1.49368e-06 0.068698)
(-1.37991e-06 -1.88315e-06 0.068695)
(9.36738e-06 9.50829e-06 0.0979908)
(3.23438e-05 3.22273e-05 0.10459)
(-3.47653e-05 -1.15146e-05 0.101941)
(-1.15085e-05 -3.48971e-05 0.101938)
(3.39579e-05 1.04482e-05 0.101885)
(1.04182e-05 3.3782e-05 0.101881)
(-1.04576e-05 -1.04374e-05 0.0980335)
(-1.04716e-05 -1.03923e-05 0.0980339)
(3.38849e-05 1.0421e-05 0.101885)
(1.03908e-05 3.37587e-05 0.101881)
(-3.46431e-05 -3.46831e-05 0.104692)
(9.40514e-06 9.45303e-06 0.0979914)
(-3.48115e-05 -1.14712e-05 0.101942)
(-1.1522e-05 -3.48589e-05 0.101938)
(-1.7989e-07 -4.57898e-07 0.112009)
(2.40401e-07 -1.15879e-07 0.113905)
(8.05631e-09 1.14131e-07 0.113905)
(4.63004e-07 4.58303e-07 0.113905)
(6.13077e-07 2.96566e-07 0.113906)
(7.95528e-07 5.99489e-07 0.115612)
(4.8947e-07 3.34514e-07 0.115613)
(4.89007e-07 -5.61421e-07 0.112009)
(-2.20538e-07 -1.62912e-07 0.113905)
(-3.27649e-07 4.22417e-07 0.113905)
(-4.69774e-07 2.40495e-07 0.113906)
(-5.57956e-07 5.34992e-07 0.115612)
(-3.69937e-07 2.83438e-07 0.115613)
(-4.23559e-07 3.60902e-07 0.112008)
(-8.28998e-09 -3.60528e-07 0.113904)
(5.71113e-07 -5.06015e-07 0.113904)
(4.24904e-07 -6.04705e-07 0.113905)
(7.3928e-07 -7.82572e-07 0.115612)
(4.53809e-07 -5.41206e-07 0.115613)
(3.64635e-07 2.8563e-07 0.112008)
(-5.09935e-07 -6.69049e-07 0.113905)
(-4.89023e-07 -6.37111e-07 0.113905)
(-6.43176e-07 -8.52825e-07 0.115612)
(-4.57177e-07 -6.07709e-07 0.115613)
(-1.05714e-05 -1.02468e-05 0.0980331)
(-3.45713e-05 -3.45894e-05 0.104692)
(3.40596e-05 1.06471e-05 0.101885)
(1.04066e-05 3.39303e-05 0.101881)
(9.17955e-06 9.80537e-06 0.0979905)
(-3.46763e-05 -1.13956e-05 0.101941)
(-1.14825e-05 -3.48276e-05 0.101937)
(-4.81567e-09 -4.0784e-05 0.103395)
(5.95511e-08 1.07509e-05 0.098018)
(-4.31483e-08 3.75685e-05 0.103931)
(-1.90585e-08 -1.18182e-05 0.0990263)
(2.69163e-07 3.8733e-05 0.103295)
(-1.91039e-07 -1.22268e-05 0.0980711)
(1.97687e-07 -3.93531e-05 0.104013)
(1.43847e-06 4.10248e-05 0.101769)
(-3.1432e-06 -4.03791e-05 0.100039)
(2.75741e-06 9.67777e-06 0.0934454)
(-1.20333e-06 -1.18377e-05 0.0961088)
(3.29674e-06 4.01467e-05 0.0999875)
(5.52951e-07 1.08905e-05 0.0960538)
(-1.40203e-06 -4.25815e-05 0.101861)
(-1.29047e-06 -4.25187e-05 0.101861)
(6.2078e-07 1.08756e-05 0.0960534)
(3.46494e-06 4.01554e-05 0.0999874)
(-3.14815e-06 -9.69182e-06 0.093488)
(-3.03434e-06 -4.0363e-05 0.100039)
(1.61683e-06 4.11077e-05 0.101769)
(-1.15149e-06 -1.1846e-05 0.0961084)
(1.61352e-07 3.85421e-05 0.103295)
(-7.42027e-08 1.0388e-05 0.0989813)
(-2.43631e-07 -1.22299e-05 0.0980714)
(1.25935e-07 -3.9499e-05 0.104013)
(-1.88491e-10 1.07387e-05 0.0980184)
(-1.22924e-07 3.73515e-05 0.103931)
(-9.39089e-08 -4.09056e-05 0.103395)
(6.32024e-09 -4.07965e-05 0.103396)
(-8.64674e-08 1.07681e-05 0.0980187)
(1.68349e-07 3.7563e-05 0.103932)
(-1.22905e-08 -1.1845e-05 0.0990266)
(-2.22626e-07 3.87321e-05 0.103295)
(1.43513e-07 -1.2245e-05 0.0980714)
(-1.48067e-07 -3.93572e-05 0.104013)
(1.3106e-06 -4.26283e-05 0.101861)
(-6.56941e-07 1.08231e-05 0.0960545)
(-3.31769e-06 4.01571e-05 0.0999861)
(3.17444e-06 -9.69656e-06 0.0934883)
(-1.50035e-06 4.10255e-05 0.101769)
(1.09429e-06 -1.19261e-05 0.0961087)
(3.0718e-06 -4.04073e-05 0.100038)
(-1.94089e-07 3.8528e-05 0.103295)
(3.25851e-08 1.03676e-05 0.0989814)
(1.8446e-07 -1.22842e-05 0.0980717)
(-1.73475e-07 -3.95055e-05 0.104013)
(-4.64019e-08 1.07158e-05 0.0980191)
(1.37985e-07 3.73482e-05 0.103931)
(3.66105e-08 -4.09348e-05 0.103395)
(1.04456e-05 -1.05067e-05 0.0980339)
(3.45523e-05 -3.46675e-05 0.104692)
(-3.39701e-05 1.03641e-05 0.101881)
(-1.04676e-05 3.38528e-05 0.101885)
(3.4751e-05 -1.15441e-05 0.101939)
(-9.47977e-06 9.33654e-06 0.0979912)
(1.14942e-05 -3.4862e-05 0.101942)
(4.11675e-05 1.44028e-06 0.10177)
(-1.18047e-05 -1.01706e-06 0.0961086)
(1.09568e-05 7.22416e-07 0.0960539)
(-4.25568e-05 -1.40331e-06 0.101862)
(-4.07489e-05 -2.27537e-08 0.103396)
(1.08746e-05 1.03479e-07 0.0980183)
(3.75706e-05 -2.02675e-07 0.103932)
(-1.17838e-05 4.65809e-10 0.0990265)
(3.87704e-05 1.94402e-07 0.103295)
(-1.2138e-05 -1.42561e-07 0.0980714)
(-3.93443e-05 1.0343e-07 0.104013)
(4.09073e-05 1.37843e-06 0.101769)
(-4.03905e-05 -3.11734e-06 0.100038)
(9.77407e-06 2.67688e-06 0.093445)
(-1.18666e-05 -1.15891e-06 0.096109)
(4.0147e-05 3.29887e-06 0.099986)
(1.08921e-05 6.07556e-07 0.0960541)
(-4.26789e-05 -1.43116e-06 0.101861)
(-4.26625e-05 -1.39738e-06 0.101862)
(1.09328e-05 6.91499e-07 0.0960539)
(4.02174e-05 3.2778e-06 0.0999861)
(-9.53528e-06 -3.26018e-06 0.0934881)
(-4.03709e-05 -3.09611e-06 0.100038)
(4.09902e-05 1.36665e-06 0.101769)
(-1.18445e-05 -1.08385e-06 0.0961087)
(3.8583e-05 1.53937e-07 0.103294)
(1.04135e-05 -4.98722e-08 0.0989814)
(-1.22032e-05 -1.96821e-07 0.0980718)
(-3.9453e-05 1.19496e-07 0.104013)
(1.08009e-05 4.75976e-08 0.0980185)
(3.73723e-05 -1.90658e-07 0.103931)
(-4.08532e-05 -6.7318e-08 0.103395)
(-4.07776e-05 -3.71509e-08 0.103395)
(3.75804e-05 8.25168e-08 0.103932)
(1.08045e-05 -7.74849e-08 0.0980181)
(-1.17837e-05 1.35305e-08 0.0990264)
(3.87516e-05 -2.74428e-07 0.103295)
(-3.93423e-05 -1.95989e-07 0.104013)
(-1.2181e-05 1.65907e-07 0.0980715)
(-4.25823e-05 1.2819e-06 0.101861)
(1.08689e-05 -6.56531e-07 0.0960537)
(4.01977e-05 -3.37196e-06 0.0999856)
(-9.6657e-06 3.20761e-06 0.093488)
(4.10617e-05 -1.55241e-06 0.101768)
(-1.18759e-05 1.12248e-06 0.096109)
(-4.03654e-05 3.06065e-06 0.100037)
(3.8558e-05 -1.99301e-07 0.103294)
(1.04036e-05 6.8318e-08 0.0989816)
(-3.94706e-05 -1.63311e-07 0.104012)
(-1.22088e-05 2.22978e-07 0.0980717)
(3.7368e-05 1.16617e-07 0.103931)
(1.0766e-05 -1.89169e-08 0.0980185)
(-4.08859e-05 3.76785e-08 0.103395)
(4.07766e-05 -4.4789e-08 0.103396)
(-1.07269e-05 6.93327e-08 0.0980187)
(-3.75612e-05 -1.66489e-07 0.103932)
(1.18433e-05 2.96007e-08 0.0990264)
(-3.87377e-05 1.68946e-07 0.103295)
(1.22443e-05 -1.46897e-07 0.0980717)
(3.93511e-05 1.40974e-07 0.104013)
(4.25835e-05 -1.36513e-06 0.101862)
(-1.07932e-05 6.47128e-07 0.0960545)
(-4.0147e-05 3.28713e-06 0.0999886)
(9.77798e-06 -3.18174e-06 0.0934885)
(-4.10595e-05 1.44474e-06 0.10177)
(4.04133e-05 -3.13107e-06 0.100039)
(1.19202e-05 -1.10658e-06 0.0961091)
(4.07465e-05 2.41798e-08 0.103395)
(-3.75871e-05 9.52e-08 0.103932)
(-1.07908e-05 -4.26398e-08 0.0980188)
(1.18184e-05 4.92155e-08 0.0990262)
(-3.87737e-05 -2.5313e-07 0.103295)
(3.93243e-05 -1.57229e-07 0.104013)
(1.2209e-05 2.13744e-07 0.0980711)
(4.25227e-05 1.35119e-06 0.101861)
(-1.08711e-05 -6.15267e-07 0.0960546)
(-4.02174e-05 -3.33141e-06 0.0999868)
(9.66122e-06 3.20862e-06 0.0934884)
(-4.11013e-05 -1.50603e-06 0.101769)
(1.18529e-05 1.15542e-06 0.0961088)
(4.03254e-05 3.10274e-06 0.100038)
(-1.04005e-05 1.04033e-05 0.0980327)
(-3.45563e-05 3.45467e-05 0.104691)
(1.04615e-05 -3.39967e-05 0.101881)
(3.39559e-05 -1.04889e-05 0.101884)
(-1.1457e-05 3.47243e-05 0.101938)
(9.45792e-06 -9.4919e-06 0.0979907)
(-3.47473e-05 1.14568e-05 0.101941)
(2.6867e-09 4.07589e-05 0.103396)
(-1.21434e-07 -3.75769e-05 0.103932)
(7.74647e-08 -1.07758e-05 0.0980182)
(1.60133e-08 1.18024e-05 0.0990265)
(2.37381e-07 -3.8751e-05 0.103295)
(1.66959e-07 3.93354e-05 0.104013)
(-1.47787e-07 1.219e-05 0.0980717)
(-1.309e-06 4.25729e-05 0.101862)
(6.55047e-07 -1.0831e-05 0.0960538)
(3.3468e-06 -4.01669e-05 0.0999874)
(-3.19426e-06 9.69256e-06 0.0934886)
(1.51805e-06 -4.10373e-05 0.10177)
(-3.08229e-06 4.036e-05 0.100039)
(-1.10805e-06 1.18754e-05 0.0961091)
(6.99295e-09 4.07439e-05 0.103395)
(1.19769e-07 -3.75858e-05 0.103932)
(-5.45076e-08 -1.07974e-05 0.098019)
(2.60866e-08 1.17949e-05 0.0990266)
(-2.31668e-07 -3.87677e-05 0.103295)
(-1.48472e-07 3.93245e-05 0.104013)
(1.87843e-07 1.21792e-05 0.0980716)
(1.31822e-06 4.25492e-05 0.101862)
(-6.25444e-07 -1.08791e-05 0.096055)
(-3.34572e-06 -4.02164e-05 0.0999864)
(3.2121e-06 9.65289e-06 0.0934886)
(-1.49687e-06 -4.10699e-05 0.101769)
(1.1369e-06 1.18681e-05 0.0961094)
(3.09008e-06 4.03145e-05 0.100038)
(1.03527e-05 1.039e-05 0.0980329)
(3.4499e-05 3.45703e-05 0.104691)
(-1.05175e-05 -3.40066e-05 0.101884)
(-3.39754e-05 -1.04716e-05 0.101881)
(-9.48896e-06 -9.47986e-06 0.0979902)
(1.1396e-05 3.475e-05 0.10194)
(3.47057e-05 1.14373e-05 0.101937)
(-4.26511e-05 -1.46776e-06 0.101862)
(4.01382e-05 3.23457e-06 0.0999863)
(1.08859e-05 5.5323e-07 0.0960544)
(-9.64597e-06 -3.27193e-06 0.0934889)
(-1.18685e-05 -1.19094e-06 0.0961093)
(4.09107e-05 1.33134e-06 0.101769)
(-4.0383e-05 -3.19587e-06 0.100038)
(-6.62691e-06 -4.57364e-08 0.0918409)
(-2.79419e-06 1.95742e-06 0.0719595)
(7.46745e-07 -2.83641e-07 0.107736)
(-3.1647e-06 9.70007e-06 0.0934883)
(-1.16932e-05 5.10858e-09 0.0990264)
(7.89907e-07 1.36793e-07 0.109923)
(-6.58825e-06 3.7508e-08 0.0918413)
(-6.22313e-06 1.2077e-06 0.0826623)
(-1.1696e-05 -5.26639e-09 0.0990264)
(2.78642e-07 -8.31713e-07 0.107733)
(8.15542e-07 -5.08918e-08 0.109922)
(-9.66408e-06 3.1618e-06 0.0934877)
(-3.44229e-05 3.43963e-05 0.104692)
(-3.53028e-06 3.54622e-06 0.0879934)
(-3.55088e-06 3.56659e-06 0.0879954)
(-1.94717e-06 2.84385e-06 0.0719594)
(-1.18595e-06 6.26054e-06 0.0826622)
(3.31096e-06 -7.65782e-07 0.0772554)
(5.60686e-06 -7.47576e-08 0.0918122)
(-6.66886e-06 -1.48156e-07 0.0903515)
(-3.4897e-06 5.51884e-08 0.0790628)
(5.71733e-06 -8.94821e-08 0.0903186)
(3.12168e-06 -1.92166e-07 0.0790385)
(-3.5545e-06 5.07923e-07 0.0772839)
(2.84336e-06 -1.82232e-06 0.0719235)
(3.27446e-06 8.05285e-07 0.0772534)
(5.59144e-06 9.51328e-08 0.0918117)
(-3.44387e-06 -2.90211e-08 0.0790634)
(-6.62137e-06 1.47124e-07 0.0903522)
(3.07933e-06 2.27258e-07 0.0790374)
(5.71069e-06 9.74819e-08 0.0903178)
(-3.50363e-06 -4.9605e-07 0.0772845)
(2.90515e-06 1.01429e-06 0.06878)
(6.29404e-06 -5.53576e-07 0.082626)
(-5.61319e-06 6.46025e-07 0.0862658)
(5.18336e-06 8.12142e-08 0.0862269)
(-2.85461e-06 -4.33117e-07 0.0688209)
(2.47111e-06 -2.45074e-06 0.0839948)
(-1.4401e-06 1.84565e-06 0.0686925)
(-1.82269e-06 1.46448e-06 0.0686988)
(1.4625e-06 -1.78536e-06 0.0686619)
(1.8042e-06 -1.43673e-06 0.068668)
(-2.61865e-06 2.6328e-06 0.0840204)