/*--------------------------------*- C++ -*----------------------------------*\
| =========                 |                                                 |
| \\      /  F ield         | OpenFOAM: The Open Source CFD Toolbox           |
|  \\    /   O peration     | Version:  v2012                                 |
|   \\  /    A nd           | Website:  www.openfoam.com                      |
|    \\/     M anipulation  |                                                 |
\*---------------------------------------------------------------------------*/
FoamFile
{
    version     2.0;
    format      ascii;
    class       volScalarField;
    location    "1475";
    object      epsilon;
}
// * * * * * * * * * * * * * * * * * * * * * * * * * * * * * * * * * * * * * //

dimensions      [0 2 -3 0 0 0 0];


internalField   nonuniform List<scalar> 
171728
(
1.42254e-09
3.88461e-09
4.81131e-09
5.15838e-09
1.38053e-09
3.59049e-09
4.3993e-09
4.66897e-09
1.29941e-09
3.27749e-09
3.98738e-09
4.23453e-09
1.22152e-09
2.99662e-09
3.63097e-09
3.85742e-09
1.14876e-09
2.74863e-09
3.32826e-09
3.51823e-09
1.08523e-09
2.53754e-09
3.07414e-09
3.24244e-09
1.0273e-09
2.36444e-09
2.86504e-09
2.99138e-09
9.75468e-10
2.22749e-09
2.70187e-09
2.78675e-09
9.31133e-10
2.12663e-09
2.58493e-09
2.61925e-09
8.9006e-10
2.05976e-09
2.50659e-09
2.48797e-09
8.47845e-10
2.03167e-09
2.453e-09
2.39359e-09
8.18784e-10
2.03244e-09
2.42989e-09
2.33989e-09
7.93954e-10
2.07689e-09
2.45515e-09
2.33316e-09
7.677e-10
2.18371e-09
2.54003e-09
2.37741e-09
7.44832e-10
2.37154e-09
2.69431e-09
2.49728e-09
7.23361e-10
2.66927e-09
2.9469e-09
2.72925e-09
7.02605e-10
3.13741e-09
3.4057e-09
3.14251e-09
6.83774e-10
3.92773e-09
4.09468e-09
3.88889e-09
6.66029e-10
5.01052e-09
5.17685e-09
5.13014e-09
6.53941e-10
6.60943e-09
6.74463e-09
7.44856e-09
6.52708e-10
9.19154e-09
9.20468e-09
1.14125e-08
6.60868e-10
1.2441e-08
1.27512e-08
1.76732e-08
6.83652e-10
1.75161e-08
1.75784e-08
2.9298e-08
7.27845e-10
2.42909e-08
2.43423e-08
4.8056e-08
7.96567e-10
3.26548e-08
3.27532e-08
7.08501e-08
9.19432e-10
4.46508e-08
4.477e-08
1.18095e-07
1.07728e-09
5.74054e-08
5.79768e-08
1.40295e-07
1.34353e-09
7.64731e-08
7.63248e-08
2.43808e-07
1.72118e-09
9.39978e-08
9.43643e-08
2.42912e-07
2.19251e-09
1.182e-07
1.1859e-07
4.7318e-07
2.9357e-09
1.45096e-07
1.44103e-07
4.75492e-07
3.86415e-09
1.68339e-07
1.71002e-07
3.95459e-07
5.04836e-09
2.10047e-07
2.05602e-07
6.31253e-07
7.15937e-09
2.37523e-07
2.43454e-07
6.56584e-07
8.96864e-09
2.80342e-07
2.76841e-07
7.19105e-07
1.22955e-08
3.24333e-07
3.25669e-07
7.60631e-07
1.54765e-08
3.54113e-07
3.59274e-07
7.88056e-07
2.0897e-08
4.14843e-07
4.06686e-07
8.44565e-07
2.60267e-08
4.50952e-07
4.63988e-07
8.83724e-07
3.21449e-08
5.06508e-07
4.96543e-07
9.13149e-07
4.4033e-08
5.51479e-07
5.57585e-07
9.43225e-07
5.14907e-08
5.96584e-07
6.04481e-07
9.8264e-07
5.94938e-08
6.51036e-07
6.36471e-07
1.00397e-06
8.42714e-08
6.92219e-07
7.06864e-07
1.02936e-06
9.73943e-08
7.42752e-07
7.38026e-07
1.06904e-06
1.04639e-07
7.81749e-07
7.76498e-07
1.09402e-06
1.32328e-07
8.33176e-07
8.4092e-07
1.11232e-06
1.53477e-07
8.64333e-07
8.66925e-07
1.13712e-06
1.66725e-07
9.04324e-07
8.9655e-07
1.17142e-06
2.0084e-07
9.40427e-07
9.46593e-07
1.20382e-06
2.28299e-07
9.64619e-07
9.68962e-07
1.21172e-06
2.498e-07
1.00568e-06
9.93167e-07
1.23448e-06
2.91731e-07
1.02592e-06
1.03514e-06
1.2632e-06
3.16907e-07
1.05451e-06
1.04956e-06
1.27301e-06
3.38988e-07
1.0716e-06
1.07377e-06
1.30154e-06
3.84266e-07
1.10558e-06
1.10156e-06
1.31419e-06
4.16573e-07
1.12182e-06
1.12784e-06
1.34331e-06
4.39061e-07
1.12085e-06
1.12737e-06
1.33899e-06
4.63374e-07
1.1599e-06
1.14116e-06
1.35091e-06
5.04724e-07
1.18814e-06
1.19284e-06
1.39997e-06
5.34189e-07
1.18644e-06
1.20459e-06
1.40364e-06
5.49867e-07
1.18613e-06
1.19262e-06
1.385e-06
5.66706e-07
1.20665e-06
1.19303e-06
1.39389e-06
5.94269e-07
1.24361e-06
1.23558e-06
1.44743e-06
6.32092e-07
1.25333e-06
1.26319e-06
1.45648e-06
6.4146e-07
1.25025e-06
1.2553e-06
1.45069e-06
6.47915e-07
1.24995e-06
1.25254e-06
1.45547e-06
6.68598e-07
1.27228e-06
1.27315e-06
1.45415e-06
6.96764e-07
1.28487e-06
1.28119e-06
1.46566e-06
7.13105e-07
1.29243e-06
1.28915e-06
1.50227e-06
7.24411e-07
1.30088e-06
1.30402e-06
1.50439e-06
7.35794e-07
1.29565e-06
1.30153e-06
1.48602e-06
7.44811e-07
1.29944e-06
1.3003e-06
1.49797e-06
7.5538e-07
1.31717e-06
1.30359e-06
1.51735e-06
7.67395e-07
1.31353e-06
1.3077e-06
1.50772e-06
7.77899e-07
1.30709e-06
1.32164e-06
1.50407e-06
7.89968e-07
1.32464e-06
1.33323e-06
1.54243e-06
7.97441e-07
1.33081e-06
1.32176e-06
1.53966e-06
7.94653e-07
1.31132e-06
1.30176e-06
1.49835e-06
7.9519e-07
1.30909e-06
1.31013e-06
1.50215e-06
8.11062e-07
1.3301e-06
1.33448e-06
1.54427e-06
8.19569e-07
1.33115e-06
1.33102e-06
1.55534e-06
8.13132e-07
1.31918e-06
1.31934e-06
1.53662e-06
8.09607e-07
1.31349e-06
1.31506e-06
1.50877e-06
8.09696e-07
1.31018e-06
1.30666e-06
1.50036e-06
8.09862e-07
1.30875e-06
1.30398e-06
1.52989e-06
8.14528e-07
1.31528e-06
1.3164e-06
1.55312e-06
8.1577e-07
1.30878e-06
1.31328e-06
1.53359e-06
8.05553e-07
1.29397e-06
1.29278e-06
1.49509e-06
7.95994e-07
1.28631e-06
1.28671e-06
1.49607e-06
7.97705e-07
1.28946e-06
1.29326e-06
1.52779e-06
8.02509e-07
1.29349e-06
1.28983e-06
1.53133e-06
7.9349e-07
1.2746e-06
1.26572e-06
1.48562e-06
7.75995e-07
1.25116e-06
1.25254e-06
1.45697e-06
7.55568e-07
1.20021e-06
1.20767e-06
1.45414e-06
5.10656e-09
4.29572e-09
4.48559e-09
4.93409e-09
3.69161e-09
4.12297e-09
1.39034e-09
1.46113e-09
1.69299e-09
1.46823e-09
3.7118e-09
3.96822e-09
5.22982e-09
4.16623e-09
4.16983e-09
5.18682e-09
5.08662e-09
4.66081e-09
6.33751e-09
4.77658e-09
5.96927e-09
4.56247e-09
4.91153e-09
4.46943e-09
3.27796e-09
5.76075e-09
3.11444e-09
5.46886e-09
4.84968e-09
3.67214e-09
4.6246e-09
5.19683e-09
4.72645e-09
4.94472e-09
4.51179e-09
4.42862e-09
4.70288e-09
4.62913e-09
4.23869e-09
5.82041e-09
4.48633e-09
5.3897e-09
4.27243e-09
4.43853e-09
4.0419e-09
3.05144e-09
5.36681e-09
2.875e-09
5.10637e-09
4.53975e-09
3.35295e-09
4.30772e-09
4.68758e-09
4.27479e-09
4.28591e-09
4.08515e-09
3.9238e-09
4.26435e-09
4.21087e-09
3.85583e-09
5.25748e-09
4.20933e-09
4.80518e-09
4.04159e-09
4.01521e-09
3.69236e-09
2.82036e-09
5.03225e-09
2.66678e-09
4.84107e-09
4.23868e-09
3.06416e-09
4.04078e-09
4.24235e-09
3.90631e-09
3.81036e-09
3.71484e-09
3.48624e-09
3.88331e-09
3.82913e-09
3.49325e-09
4.63262e-09
3.99171e-09
4.10907e-09
3.86913e-09
3.67094e-09
3.416e-09
2.6185e-09
4.78289e-09
2.48427e-09
4.61346e-09
3.97467e-09
2.80711e-09
3.75725e-09
3.87859e-09
3.59342e-09
3.3853e-09
3.39874e-09
3.11188e-09
3.54038e-09
3.47268e-09
3.19382e-09
3.94266e-09
3.83306e-09
3.50158e-09
3.74001e-09
3.40157e-09
3.18256e-09
2.44327e-09
4.56004e-09
2.32983e-09
4.42815e-09
3.67805e-09
2.58667e-09
3.42616e-09
3.57103e-09
3.35887e-09
3.0203e-09
3.13334e-09
2.77933e-09
3.25954e-09
3.17825e-09
2.92976e-09
3.37426e-09
3.71548e-09
3.03911e-09
3.65447e-09
3.16711e-09
2.99437e-09
2.29425e-09
4.3958e-09
2.19671e-09
4.33118e-09
3.34226e-09
2.4039e-09
3.10869e-09
3.3439e-09
3.19931e-09
2.71567e-09
2.91293e-09
2.56954e-09
3.00455e-09
2.91711e-09
2.69621e-09
2.93805e-09
3.64053e-09
2.66813e-09
3.63167e-09
2.98569e-09
2.84738e-09
2.1669e-09
4.32078e-09
2.08988e-09
4.31964e-09
3.03887e-09
2.25773e-09
2.86082e-09
3.19074e-09
3.10323e-09
2.5326e-09
2.73813e-09
2.44841e-09
2.79587e-09
2.68793e-09
2.50747e-09
2.58934e-09
3.63346e-09
2.38732e-09
3.66722e-09
2.84265e-09
2.73824e-09
2.06815e-09
4.33628e-09
2.01555e-09
4.45892e-09
2.8106e-09
2.14843e-09
2.67903e-09
3.10151e-09
3.06992e-09
2.42534e-09
2.61102e-09
2.36961e-09
2.62453e-09
2.50456e-09
2.36725e-09
2.33175e-09
3.68514e-09
2.21332e-09
3.7604e-09
2.7374e-09
2.66138e-09
2.00184e-09
4.51065e-09
1.97329e-09
4.71605e-09
2.6406e-09
2.07316e-09
2.54869e-09
3.07403e-09
3.06584e-09
2.35544e-09
2.52294e-09
2.31956e-09
2.48885e-09
2.36866e-09
2.26889e-09
2.18468e-09
3.79417e-09
2.13237e-09
3.90232e-09
2.66391e-09
2.61121e-09
1.96876e-09
4.82263e-09
1.96543e-09
5.11234e-09
2.52317e-09
2.03574e-09
2.4711e-09
3.07527e-09
3.0651e-09
2.30989e-09
2.46484e-09
2.29206e-09
2.39052e-09
2.27418e-09
2.21391e-09
2.13082e-09
3.92983e-09
2.14394e-09
3.9444e-09
2.61628e-09
2.5179e-09
1.96802e-09
5.15122e-09
1.99253e-09
5.15801e-09
2.46069e-09
2.02923e-09
2.45622e-09
3.06608e-09
2.82362e-09
2.29042e-09
2.42961e-09
2.29885e-09
2.33122e-09
2.22567e-09
2.20519e-09
2.15737e-09
3.90869e-09
2.20778e-09
3.76679e-09
2.51787e-09
2.4389e-09
2.00537e-09
5.09728e-09
2.05907e-09
4.89281e-09
2.46095e-09
2.06405e-09
2.49302e-09
2.82116e-09
2.79022e-09
2.3072e-09
2.44363e-09
2.34695e-09
2.31481e-09
2.22556e-09
2.24427e-09
2.2302e-09
3.7399e-09
2.32327e-09
3.70087e-09
2.45742e-09
2.47852e-09
2.08274e-09
4.82883e-09
2.17419e-09
4.6429e-09
2.50723e-09
2.15673e-09
2.57255e-09
2.80663e-09
2.78037e-09
2.36715e-09
2.51518e-09
2.44642e-09
2.34647e-09
2.27776e-09
2.34567e-09
2.36429e-09
3.70035e-09
2.51659e-09
3.71833e-09
2.51085e-09
2.56929e-09
2.21171e-09
4.59427e-09
2.35753e-09
4.43392e-09
2.60685e-09
2.32421e-09
2.74201e-09
2.80286e-09
2.76075e-09
2.48219e-09
2.65108e-09
2.61758e-09
2.44399e-09
2.40112e-09
2.54927e-09
2.5813e-09
3.73773e-09
2.82106e-09
3.82967e-09
2.62276e-09
2.71165e-09
2.41812e-09
4.39816e-09
2.64164e-09
4.27501e-09
2.79941e-09
2.5885e-09
3.0247e-09
2.79305e-09
2.74264e-09
2.6768e-09
2.87445e-09
2.89934e-09
2.6396e-09
2.64162e-09
2.91467e-09
2.91837e-09
3.84943e-09
3.27819e-09
3.99733e-09
2.78503e-09
2.97716e-09
2.73827e-09
4.14924e-09
3.09184e-09
4.02685e-09
3.11453e-09
3.02041e-09
3.47828e-09
2.78808e-09
2.99445e-09
2.98436e-09
3.26961e-09
3.32697e-09
2.9974e-09
3.07062e-09
3.54117e-09
3.41865e-09
4.03881e-09
3.9545e-09
4.2594e-09
3.09022e-09
3.57142e-09
3.23541e-09
4.0827e-09
3.74936e-09
4.50154e-09
3.61892e-09
3.68524e-09
4.1893e-09
3.15071e-09
3.55901e-09
3.45986e-09
3.89384e-09
3.97726e-09
3.64322e-09
3.79231e-09
4.68114e-09
4.17556e-09
4.43278e-09
5.00466e-09
5.1163e-09
3.86931e-09
4.66322e-09
3.96853e-09
4.61686e-09
4.76783e-09
5.06558e-09
4.41795e-09
4.66267e-09
5.25898e-09
3.77818e-09
4.49378e-09
4.19121e-09
4.85808e-09
4.96104e-09
4.73008e-09
5.06341e-09
6.67619e-09
5.30284e-09
5.43707e-09
6.56078e-09
6.46477e-09
5.09474e-09
6.59458e-09
5.0426e-09
5.31998e-09
6.32188e-09
6.32954e-09
5.58408e-09
6.2144e-09
6.93909e-09
4.91898e-09
6.39215e-09
5.25421e-09
6.30369e-09
6.50961e-09
6.76765e-09
7.36596e-09
1.00887e-08
7.02281e-09
6.82691e-09
8.92713e-09
8.73095e-09
7.18434e-09
1.01117e-08
6.74096e-09
6.74855e-09
8.57446e-09
8.63494e-09
7.40519e-09
8.491e-09
9.29613e-09
6.99984e-09
9.98973e-09
6.93174e-09
8.54023e-09
8.62726e-09
1.01058e-08
1.12234e-08
1.57654e-08
9.65099e-09
9.45692e-09
1.21227e-08
1.16924e-08
1.13334e-08
1.52294e-08
9.25877e-09
9.34758e-09
1.16613e-08
1.18786e-08
1.01803e-08
1.13978e-08
1.27366e-08
1.11599e-08
1.56429e-08
9.41612e-09
1.17808e-08
1.16655e-08
1.60849e-08
1.74935e-08
2.64358e-08
1.31505e-08
1.28268e-08
1.72503e-08
1.66519e-08
1.71031e-08
2.67673e-08
1.26366e-08
1.28078e-08
1.64032e-08
1.63712e-08
1.37716e-08
1.61586e-08
1.78868e-08
1.7455e-08
2.5117e-08
1.25952e-08
1.60905e-08
1.62639e-08
2.63057e-08
2.93476e-08
4.24313e-08
1.82734e-08
1.79799e-08
2.39228e-08
2.30724e-08
2.96588e-08
4.26811e-08
1.75918e-08
1.79086e-08
2.28345e-08
2.28111e-08
1.92754e-08
2.25274e-08
2.48416e-08
2.83078e-08
4.20389e-08
1.73599e-08
2.25217e-08
2.29675e-08
4.35274e-08
4.79107e-08
6.46577e-08
2.62807e-08
2.47861e-08
3.0686e-08
3.09313e-08
4.69978e-08
6.44591e-08
2.50593e-08
2.46009e-08
2.99481e-08
3.05066e-08
2.6942e-08
2.99857e-08
3.20697e-08
4.58497e-08
6.41468e-08
2.44679e-08
3.01255e-08
3.00291e-08
6.4369e-08
6.88341e-08
1.07017e-07
3.35663e-08
3.37488e-08
4.42086e-08
4.25492e-08
7.07775e-08
1.04373e-07
3.2441e-08
3.33602e-08
4.24001e-08
4.27021e-08
3.5268e-08
4.19266e-08
4.55648e-08
7.07913e-08
1.03866e-07
3.27975e-08
4.22427e-08
4.29827e-08
1.09612e-07
1.1662e-07
1.42439e-07
4.66179e-08
4.51798e-08
5.39752e-08
5.4334e-08
1.12265e-07
1.41389e-07
4.5441e-08
4.503e-08
5.37756e-08
5.4327e-08
4.78648e-08
5.34066e-08
5.38937e-08
1.11417e-07
1.40176e-07
4.56914e-08
5.35663e-08
5.12222e-08
1.33603e-07
1.51679e-07
2.07915e-07
5.80302e-08
5.85481e-08
7.36482e-08
7.29574e-08
1.52016e-07
2.11655e-07
5.73565e-08
5.90902e-08
7.24131e-08
7.29241e-08
5.74629e-08
7.1797e-08
7.60967e-08
1.5179e-07
2.12496e-07
5.61212e-08
7.21903e-08
7.60229e-08
2.32043e-07
2.22725e-07
2.76514e-07
7.78518e-08
7.75163e-08
9.08266e-08
9.0869e-08
2.26248e-07
2.74345e-07
7.65645e-08
7.65948e-08
8.94953e-08
9.0409e-08
8.06699e-08
8.98369e-08
8.69978e-08
2.25226e-07
2.68171e-07
7.87284e-08
8.934e-08
8.16689e-08
2.3954e-07
2.88451e-07
3.52289e-07
9.7049e-08
9.54657e-08
1.13566e-07
1.12602e-07
2.86527e-07
3.45109e-07
9.58388e-08
9.59918e-08
1.12236e-07
1.12434e-07
8.93272e-08
1.10814e-07
1.26035e-07
2.81868e-07
3.48784e-07
8.50051e-08
1.11408e-07
1.36499e-07
4.21455e-07
3.68995e-07
4.20644e-07
1.1834e-07
1.19273e-07
1.37153e-07
1.39046e-07
3.62773e-07
4.31776e-07
1.17172e-07
1.19019e-07
1.3713e-07
1.39875e-07
1.42764e-07
1.39214e-07
1.53e-07
3.65509e-07
4.28774e-07
1.49937e-07
1.39333e-07
1.51706e-07
4.82748e-07
4.36836e-07
5.06346e-07
1.45088e-07
1.45654e-07
1.66865e-07
1.64323e-07
4.46787e-07
4.94313e-07
1.44531e-07
1.45567e-07
1.66236e-07
1.64967e-07
1.49568e-07
1.61247e-07
1.45039e-07
4.43783e-07
4.96174e-07
1.43748e-07
1.61576e-07
1.41023e-07
3.83756e-07
5.21318e-07
5.6782e-07
1.73798e-07
1.7146e-07
1.9739e-07
2.00188e-07
5.08802e-07
5.76042e-07
1.73585e-07
1.73569e-07
1.95565e-07
1.99419e-07
1.51307e-07
1.99201e-07
2.10807e-07
5.11622e-07
5.70236e-07
1.5185e-07
1.9828e-07
2.18177e-07
6.1161e-07
5.82768e-07
6.39618e-07
2.05492e-07
2.10051e-07
2.35267e-07
2.3199e-07
5.93053e-07
6.35153e-07
2.03625e-07
2.06489e-07
2.35082e-07
2.33489e-07
2.23892e-07
2.31842e-07
2.41367e-07
5.86522e-07
6.37936e-07
2.29073e-07
2.33011e-07
2.43407e-07
6.48956e-07
6.54219e-07
6.9269e-07
2.45242e-07
2.38811e-07
2.6819e-07
2.68084e-07
6.46812e-07
6.89708e-07
2.44748e-07
2.45306e-07
2.68348e-07
2.71244e-07
2.45119e-07
2.66267e-07
2.68927e-07
6.51667e-07
6.93421e-07
2.47372e-07
2.68203e-07
2.84446e-07
7.01209e-07
7.05424e-07
7.47543e-07
2.78033e-07
2.80955e-07
3.14617e-07
3.16889e-07
7.05613e-07
7.50048e-07
2.78722e-07
2.78373e-07
3.11268e-07
3.1317e-07
2.84284e-07
3.16309e-07
3.21707e-07
7.05784e-07
7.45283e-07
3.04257e-07
3.14197e-07
3.35507e-07
7.53372e-07
7.59878e-07
7.90059e-07
3.26215e-07
3.25923e-07
3.51613e-07
3.45932e-07
7.59912e-07
7.84121e-07
3.21331e-07
3.25202e-07
3.54375e-07
3.54257e-07
3.28777e-07
3.44624e-07
3.44233e-07
7.58097e-07
7.88888e-07
3.39124e-07
3.50281e-07
3.47432e-07
7.78091e-07
8.00359e-07
8.35534e-07
3.59406e-07
3.55081e-07
4.01867e-07
4.01452e-07
7.95158e-07
8.33008e-07
3.63134e-07
3.64538e-07
3.9713e-07
3.94065e-07
3.5017e-07
3.99446e-07
3.96212e-07
7.98555e-07
8.28559e-07
3.51872e-07
3.92672e-07
3.9222e-07
8.29602e-07
8.47296e-07
8.66579e-07
4.17293e-07
4.16427e-07
4.46873e-07
4.44541e-07
8.44734e-07
8.69649e-07
4.12663e-07
4.06673e-07
4.48518e-07
4.52728e-07
4.15798e-07
4.43566e-07
4.50119e-07
8.40816e-07
8.74408e-07
4.14449e-07
4.51673e-07
4.60474e-07
8.75266e-07
8.734e-07
9.05518e-07
4.53335e-07
4.52629e-07
4.85545e-07
4.9041e-07
8.78071e-07
9.03051e-07
4.55733e-07
4.64567e-07
4.83902e-07
4.87934e-07
4.58006e-07
4.92468e-07
4.97212e-07
8.82729e-07
8.99196e-07
4.71708e-07
4.88964e-07
5.01747e-07
9.05093e-07
9.21956e-07
9.4881e-07
5.05641e-07
5.04338e-07
5.56552e-07
5.45953e-07
9.13112e-07
9.38592e-07
5.00669e-07
4.96298e-07
5.53275e-07
5.42512e-07
5.11159e-07
5.40181e-07
5.39492e-07
9.07748e-07
9.42283e-07
5.11023e-07
5.3913e-07
5.34445e-07
9.33892e-07
9.52348e-07
9.57464e-07
5.6513e-07
5.59025e-07
5.86168e-07
5.86207e-07
9.47073e-07
9.67173e-07
5.65201e-07
5.6111e-07
5.89163e-07
5.99794e-07
5.48135e-07
5.85481e-07
5.92858e-07
9.52775e-07
9.69491e-07
5.4423e-07
5.96747e-07
5.92495e-07
9.73645e-07
9.64807e-07
9.95436e-07
5.94143e-07
5.93435e-07
6.24794e-07
6.31777e-07
9.74193e-07
9.95123e-07
5.96754e-07
6.07411e-07
6.22562e-07
6.27777e-07
6.09491e-07
6.35831e-07
6.44169e-07
9.74551e-07
9.90221e-07
6.08443e-07
6.25534e-07
6.38356e-07
9.98473e-07
1.00621e-06
1.03819e-06
6.4457e-07
6.48728e-07
7.04284e-07
6.89989e-07
1.00476e-06
1.03127e-06
6.37901e-07
6.37415e-07
6.97366e-07
6.92511e-07
6.51551e-07
6.84083e-07
6.77666e-07
9.99991e-07
1.03731e-06
6.4525e-07
6.91836e-07
6.77371e-07
1.02079e-06
1.04529e-06
1.05751e-06
7.16934e-07
7.01113e-07
7.40865e-07
7.34794e-07
1.03817e-06
1.0554e-06
7.11258e-07
7.08097e-07
7.36668e-07
7.3261e-07
6.89224e-07
7.29316e-07
7.30327e-07
1.04485e-06
1.05126e-06
6.91948e-07
7.31842e-07
7.31721e-07
1.06041e-06
1.06238e-06
1.07664e-06
7.4679e-07
7.45211e-07
7.63682e-07
7.6911e-07
1.06231e-06
1.08035e-06
7.42875e-07
7.3862e-07
7.63562e-07
7.61792e-07
7.45082e-07
7.72446e-07
7.81874e-07
1.0551e-06
1.07583e-06
7.44242e-07
7.61958e-07
7.82174e-07
1.08839e-06
1.0845e-06
1.11877e-06
7.73459e-07
7.78203e-07
8.23581e-07
8.21951e-07
1.08751e-06
1.11451e-06
7.76242e-07
7.76653e-07
8.26171e-07
8.31154e-07
7.91373e-07
8.20291e-07
8.1367e-07
1.08755e-06
1.12441e-06
7.92793e-07
8.29211e-07
8.16474e-07
1.10681e-06
1.12591e-06
1.13556e-06
8.35996e-07
8.3664e-07
8.5792e-07
8.64017e-07
1.12301e-06
1.14001e-06
8.37933e-07
8.42193e-07
8.5877e-07
8.60366e-07
8.20518e-07
8.58351e-07
8.54653e-07
1.13041e-06
1.13666e-06
8.23167e-07
8.61203e-07
8.46668e-07
1.12973e-06
1.13932e-06
1.15586e-06
8.63483e-07
8.69526e-07
8.86395e-07
8.91057e-07
1.14473e-06
1.15934e-06
8.64056e-07
8.6589e-07
8.83857e-07
8.85745e-07
8.6903e-07
8.92299e-07
8.97286e-07
1.14031e-06
1.15549e-06
8.56931e-07
8.86265e-07
8.93363e-07
1.16309e-06
1.16466e-06
1.19131e-06
8.99589e-07
9.03084e-07
9.36655e-07
9.34987e-07
1.16659e-06
1.18986e-06
8.95402e-07
8.97264e-07
9.3561e-07
9.37811e-07
9.05967e-07
9.33604e-07
9.35862e-07
1.16381e-06
1.19369e-06
9.07246e-07
9.3704e-07
9.4531e-07
1.19806e-06
1.19687e-06
1.20467e-06
9.43899e-07
9.418e-07
9.57487e-07
9.57012e-07
1.19528e-06
1.20438e-06
9.44688e-07
9.45395e-07
9.60164e-07
9.60971e-07
9.43302e-07
9.57261e-07
9.57515e-07
1.19961e-06
1.20874e-06
9.53231e-07
9.6425e-07
9.65846e-07
1.20922e-06
1.2086e-06
1.23424e-06
9.61714e-07
9.62975e-07
9.89812e-07
9.93703e-07
1.20867e-06
1.23244e-06
9.64766e-07
9.66388e-07
9.93229e-07
9.89307e-07
9.61816e-07
9.96191e-07
9.90806e-07
1.21227e-06
1.22518e-06
9.69194e-07
9.84106e-07
9.82581e-07
1.22556e-06
1.24447e-06
1.26053e-06
1.00389e-06
1.00418e-06
1.02661e-06
1.02393e-06
1.24144e-06
1.25687e-06
1.00629e-06
1.00131e-06
1.02774e-06
1.03248e-06
1.00495e-06
1.02238e-06
1.02853e-06
1.23312e-06
1.26313e-06
9.91067e-07
1.02805e-06
1.02442e-06
1.25926e-06
1.26263e-06
1.2647e-06
1.02973e-06
1.02886e-06
1.04115e-06
1.05101e-06
1.26002e-06
1.27309e-06
1.03046e-06
1.03838e-06
1.04061e-06
1.04826e-06
1.03153e-06
1.04604e-06
1.04082e-06
1.26906e-06
1.2749e-06
1.03109e-06
1.04656e-06
1.04353e-06
1.26846e-06
1.26887e-06
1.28902e-06
1.04604e-06
1.05835e-06
1.0702e-06
1.0714e-06
1.28069e-06
1.29435e-06
1.04516e-06
1.05041e-06
1.06359e-06
1.0571e-06
1.04597e-06
1.06875e-06
1.07246e-06
1.27657e-06
1.27832e-06
1.04878e-06
1.06542e-06
1.07303e-06
1.29601e-06
1.29634e-06
1.316e-06
1.07911e-06
1.07392e-06
1.09569e-06
1.09524e-06
1.29761e-06
1.31384e-06
1.07176e-06
1.06182e-06
1.09359e-06
1.09844e-06
1.07917e-06
1.09407e-06
1.09138e-06
1.28397e-06
1.31728e-06
1.07952e-06
1.09487e-06
1.09207e-06
1.30982e-06
1.32229e-06
1.33813e-06
1.10044e-06
1.10506e-06
1.11979e-06
1.11527e-06
1.32313e-06
1.33365e-06
1.10167e-06
1.11317e-06
1.12707e-06
1.13593e-06
1.09614e-06
1.12194e-06
1.1227e-06
1.32711e-06
1.3509e-06
1.09656e-06
1.12366e-06
1.12131e-06
1.33765e-06
1.34105e-06
1.33167e-06
1.12293e-06
1.11436e-06
1.12318e-06
1.11107e-06
1.33394e-06
1.31181e-06
1.13116e-06
1.1362e-06
1.13058e-06
1.12623e-06
1.12908e-06
1.11948e-06
1.13131e-06
1.35376e-06
1.33122e-06
1.12806e-06
1.12822e-06
1.13173e-06
1.33827e-06
1.3326e-06
1.34264e-06
1.12335e-06
1.11415e-06
1.13903e-06
1.16017e-06
1.31398e-06
1.36679e-06
1.12901e-06
1.12131e-06
1.13405e-06
1.12357e-06
1.13116e-06
1.14588e-06
1.14035e-06
1.33005e-06
1.32071e-06
1.13166e-06
1.13436e-06
1.13953e-06
1.34309e-06
1.35278e-06
1.39328e-06
1.15277e-06
1.17888e-06
1.18833e-06
1.19615e-06
1.38422e-06
1.41245e-06
1.14142e-06
1.13207e-06
1.17882e-06
1.18193e-06
1.14773e-06
1.18611e-06
1.18208e-06
1.32814e-06
1.39188e-06
1.14587e-06
1.18014e-06
1.17938e-06
1.39231e-06
1.39865e-06
1.39773e-06
1.19116e-06
1.19521e-06
1.19076e-06
1.18325e-06
1.41397e-06
1.38768e-06
1.18863e-06
1.19734e-06
1.19693e-06
1.21051e-06
1.18987e-06
1.18759e-06
1.19533e-06
1.40598e-06
1.4245e-06
1.18904e-06
1.20511e-06
1.19733e-06
1.4029e-06
1.39899e-06
1.39125e-06
1.19072e-06
1.17982e-06
1.19208e-06
1.17668e-06
1.38667e-06
1.36254e-06
1.19683e-06
1.20954e-06
1.19739e-06
1.19796e-06
1.19482e-06
1.18474e-06
1.19177e-06
1.42564e-06
1.39663e-06
1.19672e-06
1.19654e-06
1.19213e-06
1.38465e-06
1.39217e-06
1.39029e-06
1.19227e-06
1.17797e-06
1.19515e-06
1.19149e-06
1.36373e-06
1.38755e-06
1.19764e-06
1.19238e-06
1.1992e-06
1.18633e-06
1.19106e-06
1.19796e-06
1.19622e-06
1.3949e-06
1.37158e-06
1.19117e-06
1.19003e-06
1.19584e-06
1.38628e-06
1.39459e-06
1.42557e-06
1.19843e-06
1.20264e-06
1.2275e-06
1.24006e-06
1.40056e-06
1.44838e-06
1.2004e-06
1.18806e-06
1.21753e-06
1.2134e-06
1.20176e-06
1.23704e-06
1.23469e-06
1.37399e-06
1.41469e-06
1.2005e-06
1.22034e-06
1.23129e-06
1.4384e-06
1.43687e-06
1.46628e-06
1.23928e-06
1.24777e-06
1.26109e-06
1.25688e-06
1.45589e-06
1.46232e-06
1.23015e-06
1.23063e-06
1.25949e-06
1.26574e-06
1.24372e-06
1.25256e-06
1.25376e-06
1.4308e-06
1.47232e-06
1.24138e-06
1.26192e-06
1.25424e-06
1.45541e-06
1.46964e-06
1.4526e-06
1.26264e-06
1.25695e-06
1.25906e-06
1.25244e-06
1.46338e-06
1.44388e-06
1.26255e-06
1.26838e-06
1.26105e-06
1.26522e-06
1.25414e-06
1.25233e-06
1.25516e-06
1.47607e-06
1.45984e-06
1.25491e-06
1.25885e-06
1.25569e-06
1.44921e-06
1.45153e-06
1.43055e-06
1.25401e-06
1.24854e-06
1.24596e-06
1.24449e-06
1.44353e-06
1.43036e-06
1.25755e-06
1.26152e-06
1.25009e-06
1.2545e-06
1.25592e-06
1.24854e-06
1.25944e-06
1.4591e-06
1.441e-06
1.2561e-06
1.25126e-06
1.25824e-06
1.45323e-06
1.43263e-06
1.45649e-06
1.24648e-06
1.24553e-06
1.26266e-06
1.26343e-06
1.43366e-06
1.46038e-06
1.25029e-06
1.25476e-06
1.26086e-06
1.26329e-06
1.2607e-06
1.26555e-06
1.26249e-06
1.443e-06
1.45875e-06
1.25912e-06
1.26713e-06
1.26175e-06
1.45292e-06
1.46587e-06
1.484e-06
1.27174e-06
1.27207e-06
1.28746e-06
1.28647e-06
1.46907e-06
1.48341e-06
1.26804e-06
1.26855e-06
1.28473e-06
1.28159e-06
1.26308e-06
1.28324e-06
1.27102e-06
1.46526e-06
1.47554e-06
1.26257e-06
1.28074e-06
1.26926e-06
1.45909e-06
1.48664e-06
1.48649e-06
1.28905e-06
1.28831e-06
1.29195e-06
1.29239e-06
1.4861e-06
1.48895e-06
1.28692e-06
1.28332e-06
1.29027e-06
1.28711e-06
1.27717e-06
1.28932e-06
1.29695e-06
1.47772e-06
1.48038e-06
1.27471e-06
1.28525e-06
1.29567e-06
1.49587e-06
1.48878e-06
1.49387e-06
1.29318e-06
1.294e-06
1.29725e-06
1.29926e-06
1.49222e-06
1.49743e-06
1.29145e-06
1.2889e-06
1.29587e-06
1.2974e-06
1.301e-06
1.30069e-06
1.30279e-06
1.48422e-06
1.49707e-06
1.30082e-06
1.30231e-06
1.30445e-06
1.50386e-06
1.49716e-06
1.49911e-06
1.29906e-06
1.29953e-06
1.30112e-06
1.29754e-06
1.49912e-06
1.48907e-06
1.29825e-06
1.30069e-06
1.30393e-06
1.3063e-06
1.30131e-06
1.29718e-06
1.29446e-06
1.501e-06
1.50227e-06
1.30345e-06
1.30292e-06
1.2958e-06
1.48523e-06
1.50029e-06
1.49459e-06
1.30075e-06
1.29652e-06
1.3e-06
1.29688e-06
1.48991e-06
1.48948e-06
1.30398e-06
1.3064e-06
1.30213e-06
1.30426e-06
1.29399e-06
1.29631e-06
1.29924e-06
1.50351e-06
1.49925e-06
1.29469e-06
1.30007e-06
1.29719e-06
1.49152e-06
1.49616e-06
1.50092e-06
1.30052e-06
1.29909e-06
1.30767e-06
1.31264e-06
1.494e-06
1.51236e-06
1.30168e-06
1.30318e-06
1.30258e-06
1.29767e-06
1.30468e-06
1.31469e-06
1.31644e-06
1.50053e-06
1.49211e-06
1.30049e-06
1.30293e-06
1.3122e-06
1.51481e-06
1.50435e-06
1.50849e-06
1.31047e-06
1.31572e-06
1.31283e-06
1.31634e-06
1.51707e-06
1.51559e-06
1.30368e-06
1.29688e-06
1.30927e-06
1.29988e-06
1.31661e-06
1.31631e-06
1.31116e-06
1.49299e-06
1.49208e-06
1.31355e-06
1.30582e-06
1.31198e-06
1.50737e-06
1.51055e-06
1.51241e-06
1.31251e-06
1.31439e-06
1.31239e-06
1.30886e-06
1.51617e-06
1.50147e-06
1.31103e-06
1.30426e-06
1.31625e-06
1.32286e-06
1.30828e-06
1.30706e-06
1.30607e-06
1.49663e-06
1.5223e-06
1.31034e-06
1.31721e-06
1.30926e-06
1.5002e-06
1.5158e-06
1.52538e-06
1.31342e-06
1.30885e-06
1.32175e-06
1.31761e-06
1.5028e-06
1.51707e-06
1.31877e-06
1.32842e-06
1.32634e-06
1.33679e-06
1.30756e-06
1.31781e-06
1.32753e-06
1.53034e-06
1.54775e-06
1.31069e-06
1.33247e-06
1.32889e-06
1.53493e-06
1.52888e-06
1.52918e-06
1.32461e-06
1.32369e-06
1.32752e-06
1.33092e-06
1.52534e-06
1.53721e-06
1.32774e-06
1.3368e-06
1.32759e-06
1.32765e-06
1.33314e-06
1.33185e-06
1.33443e-06
1.55008e-06
1.52899e-06
1.33323e-06
1.32783e-06
1.33283e-06
1.54046e-06
1.53023e-06
1.5131e-06
1.32696e-06
1.33018e-06
1.31803e-06
1.31726e-06
1.53814e-06
1.51304e-06
1.32567e-06
1.32073e-06
1.31249e-06
1.3009e-06
1.33015e-06
1.31621e-06
1.3089e-06
1.5271e-06
1.49006e-06
1.32785e-06
1.30404e-06
1.30676e-06
1.49871e-06
1.51291e-06
1.50178e-06
1.31362e-06
1.31255e-06
1.30816e-06
1.30867e-06
1.51266e-06
1.50425e-06
1.30777e-06
1.29802e-06
1.30388e-06
1.29974e-06
1.3043e-06
1.30766e-06
1.30275e-06
1.4903e-06
1.49586e-06
1.30301e-06
1.30413e-06
1.30333e-06
1.49564e-06
1.50545e-06
1.53188e-06
1.30875e-06
1.30986e-06
1.3244e-06
1.32566e-06
1.50876e-06
1.53394e-06
1.30542e-06
1.30582e-06
1.32595e-06
1.3307e-06
1.30592e-06
1.32542e-06
1.32745e-06
1.50484e-06
1.54086e-06
1.30793e-06
1.33127e-06
1.32945e-06
1.5366e-06
1.53937e-06
1.54458e-06
1.33018e-06
1.32999e-06
1.334e-06
1.33185e-06
1.53991e-06
1.54034e-06
1.3318e-06
1.335e-06
1.33515e-06
1.33557e-06
1.33382e-06
1.33284e-06
1.33977e-06
1.54663e-06
1.54457e-06
1.33445e-06
1.33404e-06
1.33816e-06
1.55406e-06
1.54536e-06
1.52825e-06
1.33229e-06
1.32976e-06
1.32165e-06
1.321e-06
1.54099e-06
1.52604e-06
1.33314e-06
1.33245e-06
1.32203e-06
1.3215e-06
1.33885e-06
1.32201e-06
1.32673e-06
1.545e-06
1.52821e-06
1.33689e-06
1.32139e-06
1.326e-06
1.53709e-06
1.52885e-06
1.52167e-06
1.31882e-06
1.31892e-06
1.31493e-06
1.316e-06
1.52693e-06
1.52247e-06
1.31897e-06
1.31919e-06
1.31468e-06
1.3159e-06
1.32113e-06
1.3142e-06
1.30629e-06
1.52917e-06
1.52534e-06
1.32135e-06
1.31584e-06
1.30856e-06
1.50884e-06
1.52314e-06
1.52009e-06
1.31464e-06
1.31561e-06
1.31249e-06
1.31296e-06
1.52439e-06
1.52091e-06
1.31423e-06
1.31526e-06
1.31178e-06
1.31051e-06
1.30334e-06
1.31126e-06
1.3011e-06
1.52689e-06
1.51682e-06
1.30537e-06
1.30923e-06
1.30115e-06
1.49759e-06
1.52111e-06
1.51239e-06
1.31101e-06
1.31128e-06
1.30629e-06
1.30733e-06
1.52189e-06
1.51482e-06
1.3102e-06
1.30791e-06
1.3055e-06
1.304e-06
1.30181e-06
1.30846e-06
1.31321e-06
1.51719e-06
1.50819e-06
1.30122e-06
1.30361e-06
1.30889e-06
1.52147e-06
1.5139e-06
1.52273e-06
1.30604e-06
1.30728e-06
1.30988e-06
1.3117e-06
1.517e-06
1.52731e-06
1.30526e-06
1.30415e-06
1.30935e-06
1.31203e-06
1.31821e-06
1.31463e-06
1.32515e-06
1.5112e-06
1.52757e-06
1.31403e-06
1.31376e-06
1.32398e-06
1.55022e-06
1.52767e-06
1.534e-06
1.31276e-06
1.3135e-06
1.31502e-06
1.3128e-06
1.53117e-06
1.52915e-06
1.31228e-06
1.31471e-06
1.31467e-06
1.31489e-06
1.32485e-06
1.31171e-06
1.31367e-06
1.53292e-06
1.53454e-06
1.32431e-06
1.3162e-06
1.31671e-06
1.53524e-06
1.53559e-06
1.5208e-06
1.3139e-06
1.31049e-06
1.30371e-06
1.30066e-06
1.53002e-06
1.51406e-06
1.31364e-06
1.31232e-06
1.30302e-06
1.29854e-06
1.30703e-06
1.29697e-06
1.28785e-06
1.5353e-06
1.51134e-06
1.31116e-06
1.29746e-06
1.28987e-06
1.49509e-06
1.52042e-06
1.49548e-06
1.29862e-06
1.29709e-06
1.28405e-06
1.28693e-06
1.5146e-06
1.50153e-06
1.29765e-06
1.29394e-06
1.28349e-06
1.28649e-06
1.28479e-06
1.28717e-06
1.28315e-06
1.5113e-06
1.50011e-06
1.28552e-06
1.28669e-06
1.28217e-06
1.49101e-06
1.49624e-06
1.49955e-06
1.28226e-06
1.28526e-06
1.28278e-06
1.28458e-06
1.50264e-06
1.50406e-06
1.28202e-06
1.28629e-06
1.28319e-06
1.28902e-06
1.28448e-06
1.28676e-06
1.29598e-06
1.50246e-06
1.51257e-06
1.28297e-06
1.2911e-06
1.29501e-06
1.52108e-06
1.50559e-06
1.52169e-06
1.28604e-06
1.28638e-06
1.29471e-06
1.29345e-06
1.50874e-06
1.52062e-06
1.28689e-06
1.29157e-06
1.29427e-06
1.29252e-06
1.29889e-06
1.29386e-06
1.29844e-06
1.51722e-06
1.51836e-06
1.29838e-06
1.29221e-06
1.2979e-06
1.53081e-06
1.5246e-06
1.51228e-06
1.29495e-06
1.29355e-06
1.2858e-06
1.28383e-06
1.52314e-06
1.50769e-06
1.29427e-06
1.29098e-06
1.28441e-06
1.27714e-06
1.29569e-06
1.28106e-06
1.27317e-06
1.51921e-06
1.49302e-06
1.29475e-06
1.27172e-06
1.27041e-06
1.48826e-06
1.51178e-06
1.47655e-06
1.28111e-06
1.27848e-06
1.25705e-06
1.25535e-06
1.5065e-06
1.47105e-06
1.27977e-06
1.27169e-06
1.25695e-06
1.255e-06
1.26489e-06
1.25331e-06
1.24818e-06
1.49213e-06
1.46923e-06
1.26224e-06
1.2531e-06
1.24798e-06
1.45557e-06
1.47633e-06
1.45079e-06
1.25341e-06
1.25249e-06
1.23006e-06
1.2317e-06
1.47131e-06
1.45376e-06
1.25377e-06
1.25371e-06
1.23054e-06
1.23525e-06
1.2473e-06
1.23263e-06
1.23547e-06
1.47038e-06
1.46373e-06
1.24767e-06
1.23881e-06
1.23837e-06
1.46459e-06
1.43444e-06
1.19648e-06
1.19881e-06
1.43913e-06
1.1968e-06
1.20314e-06
7.58222e-07
7.61808e-07
7.64521e-07
1.20656e-06
1.44983e-06
1.20968e-06
6.07692e-11
2.42853e-09
1.40303e-10
1.88529e-10
5.5631e-09
3.72884e-09
4.08748e-09
1.00641e-09
5.53013e-09
4.41568e-09
1.00489e-09
1.12664e-08
5.35595e-09
2.65987e-09
1.10384e-08
7.49337e-09
1.8319e-07
6.05557e-09
2.88568e-07
1.53771e-06
3.05887e-06
8.82169e-09
1.57324e-07
7.32718e-09
2.48975e-07
1.48942e-09
1.72881e-09
1.50607e-09
1.40083e-09
1.47424e-09
1.71539e-09
1.48773e-09
4.72392e-09
7.52792e-08
2.94909e-09
3.82912e-09
5.05438e-09
5.42744e-08
2.91583e-09
1.52505e-06
3.02052e-06
4.78994e-09
2.99806e-09
8.60385e-08
4.73578e-09
5.05407e-09
2.96142e-09
6.42937e-08
2.13112e-07
2.23933e-07
4.95e-09
1.81679e-07
1.90762e-07
1.69422e-08
5.11693e-07
1.22361e-08
7.36133e-07
6.94237e-06
9.93809e-06
1.80794e-08
4.45375e-07
1.32775e-08
6.5515e-07
1.45749e-09
1.69686e-09
1.46837e-09
1.31863e-09
1.40764e-09