/*--------------------------------*- C++ -*----------------------------------*\
| =========                 |                                                 |
| \\      /  F ield         | OpenFOAM: The Open Source CFD Toolbox           |
|  \\    /   O peration     | Version:  v2012                                 |
|   \\  /    A nd           | Website:  www.openfoam.com                      |
|    \\/     M anipulation  |                                                 |
\*---------------------------------------------------------------------------*/
FoamFile
{
    version     2.0;
    format      ascii;
    class       volScalarField;
    location    "1475";
    object      nut;
}
// * * * * * * * * * * * * * * * * * * * * * * * * * * * * * * * * * * * * * //

dimensions      [0 2 -1 0 0 0 0];


internalField   nonuniform List<scalar> 
171728
(
1.66726e-06
1.71786e-06
2.26416e-06
2.26394e-06
1.69167e-06
1.75026e-06
2.23739e-06
2.27997e-06
1.68754e-06
1.81104e-06
2.21761e-06
2.25677e-06
1.691e-06
1.87804e-06
2.18567e-06
2.24091e-06
1.70095e-06
1.94037e-06
2.16099e-06
2.23119e-06
1.70388e-06
1.99776e-06
2.14695e-06
2.17694e-06
1.6983e-06
2.03756e-06
2.11098e-06
2.1335e-06
1.66233e-06
2.04798e-06
2.05682e-06
2.1025e-06
1.59745e-06
2.00984e-06
1.98902e-06
2.06672e-06
1.57898e-06
1.89151e-06
1.90414e-06
1.96352e-06
1.60373e-06
1.70561e-06
1.84401e-06
1.84897e-06
1.59163e-06
1.52714e-06
1.79073e-06
1.74637e-06
1.61699e-06
1.36459e-06
1.7446e-06
1.63443e-06
1.52132e-06
1.22915e-06
1.69503e-06
1.51811e-06
1.49112e-06
1.12377e-06
1.53683e-06
1.40323e-06
1.52485e-06
1.01977e-06
1.36766e-06
1.29875e-06
1.52088e-06
9.51543e-07
1.21093e-06
1.21333e-06
1.49667e-06
9.37567e-07
1.09281e-06
1.16587e-06
1.48262e-06
9.55591e-07
1.03387e-06
1.18142e-06
1.44609e-06
1.04226e-06
1.06988e-06
1.34085e-06
1.39564e-06
1.26823e-06
1.24691e-06
1.66664e-06
1.33531e-06
1.52536e-06
1.60499e-06
2.37268e-06
1.29334e-06
2.05569e-06
2.07545e-06
3.62836e-06
1.2269e-06
2.88435e-06
2.88401e-06
5.85553e-06
1.11826e-06
3.72786e-06
3.71106e-06
7.879e-06
1.03592e-06
5.3525e-06
5.39472e-06
1.44947e-05
9.3835e-07
6.59952e-06
6.67183e-06
1.44779e-05
9.72136e-07
9.28174e-06
9.34642e-06
2.98803e-05
9.54557e-07
1.14604e-05
1.14363e-05
2.35154e-05
9.67175e-07
1.45068e-05
1.45795e-05
5.2053e-05
1.11567e-06
1.86389e-05
1.84343e-05
6.83706e-05
1.31075e-06
2.0375e-05
2.09854e-05
2.91683e-05
1.50091e-06
2.73922e-05
2.61217e-05
6.68907e-05
2.19048e-06
3.02043e-05
3.14728e-05
6.72393e-05
2.35641e-06
3.54064e-05
3.48649e-05
7.14042e-05
3.49186e-06
4.34751e-05
4.30838e-05
7.79571e-05
4.24435e-06
4.36743e-05
4.57877e-05
7.57351e-05
5.6622e-06
5.43893e-05
5.08768e-05
8.32459e-05
7.50385e-06
5.792e-05
6.18051e-05
8.93194e-05
7.31233e-06
6.5747e-05
6.29446e-05
9.23216e-05
1.33017e-05
7.09103e-05
7.1219e-05
9.40909e-05
1.45513e-05
7.57957e-05
8.02925e-05
0.000100979
1.31763e-05
8.38142e-05
7.82794e-05
0.000103763
2.47284e-05
8.79799e-05
9.26077e-05
0.000104441
3.00501e-05
9.50132e-05
9.58272e-05
0.000111415
2.73223e-05
9.89195e-05
9.34135e-05
0.00011679
3.44207e-05
0.000107619
0.000110989
0.000117276
4.42254e-05
0.000111427
0.000113566
0.0001194
4.14835e-05
0.000115854
0.000111261
0.000125216
5.10778e-05
0.000122869
0.000124905
0.000132362
6.08466e-05
0.000122783
0.000127402
0.000131909
5.87497e-05
0.000132237
0.000125766
0.000133461
7.71934e-05
0.000135634
0.000138275
0.000140248
8.17661e-05
0.000139024
0.000139786
0.000139417
7.75857e-05
0.000143205
0.000141008
0.000145898
9.40057e-05
0.00014889
0.000147707
0.000146438
0.00010463
0.000155622
0.000156605
0.00015312
0.000108849
0.000151095
0.000156232
0.00015254
0.000107962
0.000154526
0.000150984
0.000150087
0.00011516
0.000172587
0.000164661
0.000162924
0.000135377
0.000172851
0.000178624
0.000166671
0.00014119
0.00016431
0.000174369
0.000160374
0.000133569
0.000163029
0.000163938
0.000157364
0.000129927
0.000181586
0.000170898
0.000170673
0.000158095
0.0001891
0.000190346
0.00017557
0.000170892
0.00018632
0.000190718
0.000173546
0.000163849
0.000180559
0.000182548
0.000174055
0.000156339
0.000185487
0.000185772
0.000173614
0.000168182
0.000194661
0.00019272
0.000173685
0.000185291
0.00019655
0.000193778
0.000183898
0.0001886
0.000200869
0.000200994
0.000187052
0.000191018
0.000199582
0.000203103
0.000181462
0.000195945
0.000197928
0.000202035
0.000181914
0.000196105
0.000206846
0.00020128
0.00018966
0.000199292
0.000209805
0.000202098
0.000188363
0.000206057
0.000205925
0.000209359
0.000184941
0.000213574
0.000208501
0.000219524
0.000195434
0.000220957
0.000218103
0.000220054
0.000200023
0.000222133
0.000214796
0.000207214
0.000188574
0.000215638
0.000210115
0.000205196
0.000185057
0.000216919
0.000217646
0.000220812
0.000196741
0.0002352
0.000224414
0.000226142
0.000204365
0.000238905
0.000223165
0.000223565
0.000202673
0.000235669
0.000220463
0.000222289
0.000194365
0.000234255
0.000219831
0.000219659
0.00018959
0.000232901
0.000220077
0.000217661
0.000196662
0.000236846
0.000227563
0.000226444
0.000208169
0.00024841
0.000230271
0.000231759
0.000207219
0.000251739
0.000225361
0.000225958
0.000194899
0.000242044
0.000221938
0.000221456
0.000192418
0.000239005
0.00022443
0.000227468
0.000203792
0.000251638
0.00023303
0.000233017
0.000210284
0.000259268
0.00023346
0.000226842
0.000199926
0.000249562
0.000219546
0.000217673
0.000188528
0.000240999
0.000219681
0.000223139
0.000199502
2.28282e-06
2.70165e-06
2.08813e-06
2.26311e-06
2.1015e-06
1.97385e-06
1.64972e-06
1.50457e-06
1.47346e-06
1.56455e-06
2.09256e-06
2.07566e-06
2.26604e-06
2.58711e-06
2.48224e-06
2.28091e-06
2.27777e-06
2.26012e-06
2.39672e-06
1.88188e-06
2.48687e-06
1.80556e-06
2.26012e-06
2.23349e-06
1.788e-06
1.78282e-06
1.75532e-06
1.75057e-06
1.96147e-06
1.73725e-06
1.93245e-06
2.26572e-06
2.2623e-06
5.31039e-06
2.24382e-06
4.91759e-06
2.30295e-06
2.24611e-06
2.25089e-06
2.53208e-06
1.78119e-06
2.67391e-06
1.7097e-06
2.23284e-06
2.20912e-06
1.74643e-06
1.73232e-06
1.71464e-06
1.67315e-06
1.93069e-06
1.79483e-06
1.93253e-06
2.26294e-06
2.25658e-06
4.50843e-06
2.22328e-06
3.46077e-06
2.27939e-06
2.23103e-06
2.25552e-06
2.72652e-06
1.68456e-06
2.92029e-06
1.6119e-06
2.2083e-06
2.17734e-06
1.70314e-06
1.65792e-06
1.67136e-06
1.6131e-06
1.93856e-06
1.86112e-06
1.95831e-06
2.25657e-06
2.23698e-06
3.25602e-06
2.19468e-06
2.96961e-06
2.25148e-06
2.23932e-06
2.30027e-06
3.00965e-06
1.58817e-06
3.37548e-06
1.51492e-06
2.17542e-06
2.13116e-06
1.66141e-06
1.59555e-06
1.63066e-06
1.52476e-06
1.96515e-06
1.92552e-06
1.98773e-06
2.23623e-06
2.20743e-06
2.93205e-06
2.16527e-06
2.7194e-06
2.23762e-06
2.28417e-06
2.33973e-06
3.50078e-06
1.48792e-06
3.87128e-06
1.40099e-06
2.12557e-06
2.05889e-06
1.62185e-06
1.48964e-06
1.59226e-06
1.36477e-06
1.99611e-06
1.98386e-06
2.0441e-06
2.20464e-06
2.13277e-06
2.60155e-06
2.15123e-06
2.17273e-06
2.18284e-06
2.32056e-06
2.38577e-06
4.00987e-06
1.37117e-06
4.36e-06
1.29012e-06
2.05242e-06
1.96954e-06
1.58367e-06
1.32495e-06
1.55776e-06
1.21438e-06
2.06446e-06
2.03023e-06
2.12711e-06
2.12657e-06
2.0187e-06
2.02706e-06
2.12054e-06
1.68816e-06
2.13812e-06
2.36701e-06
2.31419e-06
4.37166e-06
1.26667e-06
4.00808e-06
1.20729e-06
1.96509e-06
1.8932e-06
1.54901e-06
1.17932e-06
1.51844e-06
1.08934e-06
2.14902e-06
2.04795e-06
2.22083e-06
2.00897e-06
1.85756e-06
1.6177e-06
2.07236e-06
1.50879e-06
2.1062e-06
2.29364e-06
2.13303e-06
3.79591e-06
1.1955e-06
3.09131e-06
1.1754e-06
1.88519e-06
1.7958e-06
1.50655e-06
1.05991e-06
1.46232e-06
9.64538e-07
2.22918e-06
2.02679e-06
2.15088e-06
1.84307e-06
1.66616e-06
1.49563e-06
2.00694e-06
1.47676e-06
2.07385e-06
2.11289e-06
1.9378e-06
2.86383e-06
1.16985e-06
2.24379e-06
1.15321e-06
1.78674e-06
1.70137e-06
1.44489e-06
9.39303e-07
1.38742e-06
8.90816e-07
2.09963e-06
1.9283e-06
1.91571e-06
1.64983e-06
1.5103e-06
1.4745e-06
1.92442e-06
1.46764e-06
1.97524e-06
1.92233e-06
1.78954e-06
2.06698e-06
1.1534e-06
1.65621e-06
1.22447e-06
1.6927e-06
1.63664e-06
1.36754e-06
8.8239e-07
1.31012e-06
1.02834e-06
1.85421e-06
1.75355e-06
1.68202e-06
1.50319e-06
1.50955e-06
1.46367e-06
1.85581e-06
1.44268e-06
1.85882e-06
1.77941e-06
1.67618e-06
1.56228e-06
1.26873e-06
1.40671e-06
1.42639e-06
1.63177e-06
1.6817e-06
1.29243e-06
1.058e-06
1.23496e-06
1.33015e-06
1.63266e-06
1.56969e-06
1.51647e-06
1.51548e-06
1.78317e-06
1.43225e-06
1.8064e-06
1.3948e-06
1.75645e-06
1.66615e-06
1.56975e-06
1.37724e-06
1.49752e-06
1.30646e-06
1.90442e-06
1.69031e-06
1.80712e-06
1.21766e-06
1.67239e-06
1.15976e-06
3.90432e-06
1.48858e-06
1.40143e-06
1.4036e-06
1.81803e-06
2.64533e-06
1.38013e-06
1.75281e-06
1.32769e-06
1.64833e-06
1.55727e-06
1.46338e-06
1.28195e-06
2.14442e-06
1.21216e-06
3.18337e-06
1.82974e-06
2.0831e-06
1.1405e-06
5.00404e-06
1.08344e-06
8.2424e-06
1.37242e-06
1.25755e-06
1.27608e-06
2.74418e-06
3.85386e-06
1.30945e-06
1.71185e-06
1.25189e-06
1.53533e-06
1.4469e-06
1.35706e-06
1.1896e-06
3.57133e-06
1.12285e-06
4.46924e-06
2.13416e-06
2.31771e-06
1.06583e-06
9.00344e-06
1.01129e-06
9.94947e-06
1.24964e-06
1.1466e-06
1.1595e-06
3.91521e-06
3.83236e-06
1.23482e-06
1.58005e-06
1.18913e-06
1.42472e-06
1.3368e-06
1.25589e-06
1.10041e-06
4.60448e-06
1.04601e-06
4.56005e-06
2.29956e-06
2.12959e-06
9.96552e-07
9.87114e-06
9.48133e-07
5.7797e-06
1.13084e-06
1.04399e-06
1.05653e-06
3.65347e-06
2.0853e-06
1.17711e-06
1.40881e-06
1.14571e-06
1.32221e-06
1.23378e-06
1.1651e-06
1.02991e-06
4.34642e-06
9.81014e-07
2.57278e-06
2.03767e-06
1.44232e-06
9.35953e-07
4.55838e-06
9.1093e-07
2.19362e-06
1.03728e-06
9.6758e-07
9.94339e-07
1.98541e-06
1.4686e-06
1.1375e-06
1.24627e-06
1.09841e-06
1.23337e-06
1.14745e-06
1.10753e-06
9.6829e-07
2.18344e-06
9.45867e-07
1.43525e-06
1.39438e-06
1.19471e-06
9.04613e-07
1.82182e-06
8.97739e-07
1.31215e-06
9.84585e-07
9.28252e-07
9.81889e-07
1.41407e-06
1.25669e-06
1.08466e-06
1.11806e-06
1.04522e-06
1.1749e-06
1.09925e-06
1.12141e-06
9.47449e-07
1.2995e-06
9.67345e-07
1.12322e-06
1.17528e-06
1.15536e-06
9.05078e-07
1.23916e-06
9.34623e-07
1.11136e-06
9.93286e-07
9.39855e-07
1.04423e-06
1.22304e-06
1.12721e-06
1.03654e-06
1.03298e-06
1.03748e-06
1.17341e-06
1.1319e-06
1.24177e-06
9.75856e-07
1.08513e-06
1.07172e-06
1.09486e-06
1.1553e-06
1.25537e-06
9.42107e-07
1.06874e-06
1.03792e-06
1.03712e-06
1.06586e-06
1.03623e-06
1.20388e-06
1.12058e-06
1.20473e-06
1.03892e-06
1.05187e-06
1.10505e-06
1.2866e-06
1.29506e-06
1.55433e-06
1.1071e-06
1.08246e-06
1.28043e-06
1.23702e-06
1.27817e-06
1.52416e-06
1.06813e-06
1.0549e-06
1.2138e-06
1.20042e-06
1.24522e-06
1.20053e-06
1.43552e-06
1.22746e-06
1.51086e-06
1.13744e-06
1.20489e-06
1.22157e-06
1.5385e-06
1.6547e-06
2.15477e-06
1.3861e-06
1.31267e-06
1.56088e-06
1.46309e-06
1.65797e-06
2.00473e-06
1.28948e-06
1.26112e-06
1.47245e-06
1.5244e-06
1.53995e-06
1.41796e-06
1.84253e-06
1.62678e-06
2.10357e-06
1.32396e-06
1.51394e-06
1.46922e-06
2.24605e-06
2.31184e-06
3.31588e-06
1.68538e-06
1.58915e-06
2.23149e-06
2.01163e-06
2.14053e-06
3.38153e-06
1.56147e-06
1.59597e-06
2.01476e-06
1.95533e-06
1.93053e-06
1.92541e-06
2.47245e-06
2.28227e-06
3.03874e-06
1.57326e-06
1.91633e-06
1.93972e-06
3.29752e-06
3.66817e-06
4.94153e-06
2.27078e-06
2.15228e-06
2.99043e-06
2.77754e-06
3.69348e-06
5.14856e-06
2.0798e-06
2.13201e-06
2.72604e-06
2.71246e-06
2.62457e-06
2.66649e-06
3.34906e-06
3.34191e-06
5.15479e-06
2.01537e-06
2.64502e-06
2.75631e-06
5.32847e-06
5.57454e-06
7.78411e-06
3.35405e-06
2.95538e-06
3.65451e-06
3.56495e-06
5.61908e-06
7.35816e-06
3.07224e-06
2.93992e-06
3.42687e-06
3.44173e-06
3.66796e-06
3.39279e-06
4.0285e-06
5.50405e-06
7.28298e-06
2.89238e-06
3.43221e-06
3.38854e-06
7.34692e-06
7.85268e-06
1.24455e-05
3.78089e-06
3.96293e-06
5.56532e-06
5.15071e-06
7.89048e-06
1.22803e-05
3.69599e-06
3.80236e-06
5.05252e-06
5.2185e-06
4.43664e-06
5.02517e-06
6.10761e-06
7.91046e-06
1.22607e-05
3.6929e-06
5.09759e-06
5.26741e-06
1.32521e-05
1.39287e-05
1.57825e-05
5.87903e-06
5.43663e-06
6.18158e-06
6.22002e-06
1.32456e-05
1.52941e-05
5.51491e-06
5.41488e-06
6.25075e-06
6.16257e-06
6.38845e-06
6.13172e-06
6.56929e-06
1.31822e-05
1.49753e-05
5.65649e-06
6.10558e-06
5.8961e-06
1.48222e-05
1.63381e-05
2.25432e-05
6.52604e-06
6.73379e-06
9.19513e-06
8.87612e-06
1.61158e-05
2.33214e-05
6.51188e-06
6.84673e-06
8.9866e-06
9.03125e-06
6.60279e-06
8.64231e-06
9.67325e-06
1.59185e-05
2.40127e-05
5.94363e-06
8.85348e-06
9.87679e-06
2.75607e-05
2.43024e-05
3.02808e-05
9.71738e-06
9.5102e-06
1.08929e-05
1.12412e-05
2.51622e-05
2.99714e-05
9.51605e-06
9.35885e-06
1.06099e-05
1.09277e-05
1.07194e-05
1.10817e-05
1.11714e-05
2.55474e-05
2.85946e-05
1.02773e-05
1.07689e-05
9.68728e-06
2.45656e-05
3.09861e-05
3.73175e-05
1.19595e-05
1.16782e-05
1.43736e-05
1.37125e-05
3.08129e-05
3.55813e-05
1.17002e-05
1.17559e-05
1.40586e-05
1.36417e-05
1.0975e-05
1.33405e-05
1.27231e-05
2.96018e-05
3.65436e-05
9.37953e-06
1.35296e-05
1.6528e-05
3.93405e-05
3.91942e-05
4.21085e-05
1.46953e-05
1.47108e-05
1.67264e-05
1.75688e-05
3.71804e-05
4.49052e-05
1.43776e-05
1.44994e-05
1.69331e-05
1.78813e-05
1.9102e-05
1.78356e-05
2.51954e-05
3.81146e-05
4.43057e-05
2.27661e-05
1.80054e-05
2.60725e-05
7.14182e-05
4.33198e-05
5.18418e-05
1.7989e-05
1.85432e-05
2.12515e-05
2.05052e-05
4.63747e-05
4.94634e-05
1.80617e-05
1.85401e-05
2.11571e-05
2.03983e-05
2.43706e-05
1.98518e-05
1.71139e-05
4.57399e-05
4.96416e-05
2.31468e-05
1.95424e-05
1.55858e-05
2.95822e-05
5.32506e-05
5.60371e-05
2.19666e-05
2.11612e-05
2.49577e-05
2.5514e-05
5.03124e-05
5.72392e-05
2.21202e-05
2.16446e-05
2.45499e-05
2.56332e-05
1.66302e-05
2.52171e-05
2.64946e-05
5.08112e-05
5.66201e-05
1.51075e-05
2.54631e-05
2.84686e-05
6.26593e-05
5.71297e-05
6.33274e-05
2.58431e-05
2.73923e-05
3.01508e-05
2.99648e-05
5.92934e-05
6.34739e-05
2.52807e-05
2.62683e-05
3.03025e-05
2.92953e-05
3.07947e-05
3.03371e-05
3.37925e-05
5.81285e-05
6.29984e-05
3.1864e-05
2.96115e-05
3.30674e-05
6.76281e-05
6.49106e-05
6.81753e-05
3.19596e-05
3.02831e-05
3.39146e-05
3.3338e-05
6.4029e-05
6.67074e-05
3.20597e-05
3.15616e-05
3.40967e-05
3.53798e-05
3.34376e-05
3.27704e-05
3.25479e-05
6.43046e-05
6.8752e-05
3.26583e-05
3.432e-05
3.34074e-05
6.87564e-05
6.90259e-05
7.36982e-05
3.48661e-05
3.55701e-05
4.07484e-05
4.23439e-05
6.84235e-05
7.54535e-05
3.53348e-05
3.54769e-05
4.01471e-05
4.01868e-05
3.50734e-05
4.25978e-05
4.47479e-05
6.96173e-05
7.33252e-05
4.00782e-05
4.09068e-05
4.99382e-05
7.8013e-05
7.49949e-05
7.793e-05
4.27564e-05
4.3619e-05
4.53014e-05
4.38682e-05
7.61507e-05
7.65674e-05
4.12664e-05
4.23665e-05
4.61182e-05
4.59368e-05
4.54476e-05
4.34242e-05
4.43747e-05
7.47185e-05
7.80122e-05
4.97351e-05
4.52183e-05
4.58415e-05
7.55344e-05
7.86295e-05
8.27353e-05
4.53109e-05
4.38632e-05
5.13603e-05
5.15821e-05
7.71727e-05
8.25876e-05
4.69223e-05
4.72302e-05
5.00625e-05
4.96296e-05
4.38838e-05
5.11772e-05
4.77434e-05
7.86731e-05
8.12602e-05
4.48866e-05
4.89274e-05
4.41125e-05
8.06664e-05
8.44808e-05
8.69627e-05
5.48717e-05
5.47999e-05
5.93074e-05
5.7818e-05
8.42734e-05
8.69286e-05
5.30399e-05
5.08753e-05
5.96779e-05
5.96147e-05
5.29738e-05
5.80821e-05
5.9146e-05
8.24595e-05
8.82805e-05
5.02843e-05
5.94955e-05
6.19673e-05
8.87223e-05
8.69079e-05
8.82594e-05
5.89552e-05
5.76647e-05
5.79244e-05
6.21973e-05
8.73971e-05
9.02936e-05
5.98237e-05
6.18377e-05
5.89045e-05
6.25845e-05
5.91117e-05
6.30073e-05
6.42493e-05
8.9157e-05
8.95968e-05
6.39537e-05
6.3292e-05
6.77775e-05
9.16309e-05
9.06672e-05
9.91017e-05
6.09202e-05
6.44536e-05
7.55022e-05
7.08909e-05
9.1569e-05
9.49718e-05
6.05669e-05
6.22368e-05
7.34492e-05
6.76508e-05
6.68524e-05
6.97577e-05
6.94079e-05
8.98238e-05
9.49656e-05
6.8547e-05
6.70704e-05
6.82536e-05
9.35759e-05
9.94241e-05
9.68715e-05
7.73475e-05
7.31333e-05
7.6183e-05
7.57244e-05
9.57401e-05
9.82971e-05
7.65508e-05
7.20135e-05
7.82399e-05
8.0872e-05
6.91685e-05
7.45639e-05
7.48054e-05
9.69003e-05
0.000100428
6.80666e-05
7.98922e-05
7.54354e-05
9.93737e-05
9.66447e-05
9.96305e-05
7.52159e-05
7.54312e-05
7.33648e-05
7.84776e-05
9.8894e-05
0.000101486
7.74599e-05
8.12562e-05
7.55217e-05
7.96432e-05
7.86287e-05
8.1152e-05
8.55837e-05
0.000100453
9.97579e-05
7.92037e-05
7.87597e-05
8.39043e-05
0.000103695
0.00010116
0.000110257
7.50026e-05
8.14398e-05
9.42034e-05
8.859e-05
0.00010267
0.000106883
7.55122e-05
7.90841e-05
9.08139e-05
8.80225e-05
8.57992e-05
8.8057e-05
8.54265e-05
0.000100336
0.000108507
8.36079e-05
8.82926e-05
8.42026e-05
0.000103801
0.000111234
0.000111605
9.79557e-05
9.02572e-05
9.98208e-05
9.52217e-05
0.000107416
0.000109885
9.49271e-05
9.2844e-05
9.80487e-05
9.65255e-05
8.6102e-05
9.24327e-05
9.12548e-05
0.000110158
0.000110355
8.61673e-05
9.64411e-05
9.19993e-05
0.000110011
0.000111448
0.000111271
9.90263e-05
9.66274e-05
9.64817e-05
9.71702e-05
0.000110766
0.000112744
9.74259e-05
9.5843e-05
9.5252e-05
9.34353e-05
9.41974e-05
9.85132e-05
0.000102459
0.0001101
0.000109809
9.39521e-05
9.34459e-05
0.00010212
0.000116179
0.000111841
0.000119872
9.56832e-05
9.70432e-05
0.000105815
0.000103822
0.000113124
0.000117755
9.49621e-05
9.33089e-05
0.00010692
0.000108189
0.000104185
0.000104753
0.000105327
0.000111097
0.000121151
0.000104629
0.000107223
0.000106979
0.000117271
0.000121256
0.000121951
0.000109794
0.000107573
0.000112758
0.000113366
0.000119177
0.000122367
0.000110413
0.000111857
0.000113227
0.000113906
0.000104889
0.00011159
0.000106222
0.000122399
0.000122376
0.000106452
0.00011415
0.00010506
0.000118439
0.000121726
0.000122221
0.00011223
0.000113386
0.0001109
0.000112832
0.000122497
0.000123614
0.000112683
0.0001132
0.000110964
0.000111023
0.000109816
0.000113255
0.000115523
0.000122105
0.00012175
0.000105779
0.000111538
0.000111429
0.000124147
0.000123306
0.000129822
0.000112536
0.000114733
0.000122922
0.000122617
0.00012459
0.000129378
0.000111357
0.000110768
0.000121286
0.000122406
0.000116629
0.00012213
0.000122973
0.000122587
0.00013053
0.000114529
0.000121693
0.000125734
0.000131412
0.000130671
0.000130756
0.000124696
0.000123542
0.000124817
0.000123031
0.000129741
0.000129905
0.00012378
0.000124949
0.000125264
0.000125701
0.000124581
0.000122549
0.000124899
0.00013154
0.000131824
0.000128225
0.000127833
0.000129258
0.000132111
0.000130523
0.000133572
0.000124309
0.000122733
0.000124371
0.000127631
0.00013003
0.000134401
0.000124934
0.00012511
0.000126652
0.000124332
0.00012446
0.000129501
0.000125248
0.00013161
0.000131851
0.000128644
0.000125901
0.000126442
0.000132206
0.000135619
0.000141159
0.000129039
0.000130577
0.000138152
0.000135121
0.000135844
0.000138774
0.000130876
0.000127008
0.000139085
0.000138097
0.000129772
0.000135732
0.000137863
0.000132872
0.000140582
0.00012593
0.000135658
0.000134535
0.000139966
0.000141102
0.000138824
0.000138673
0.000135389
0.00013747
0.000138631
0.00013875
0.000140356
0.000139573
0.000140373
0.000138216
0.000141356
0.000138264
0.000136465
0.000137292
0.000141604
0.000142003
0.00013686
0.000140138
0.000138143
0.000139478
0.00013859
0.000142024
0.000136895
0.000140595
0.000139076
0.000144376
0.000141611
0.00014493
0.000137584
0.000140848
0.000136976
0.000137464
0.000136768
0.000143054
0.000141609
0.000141828
0.000139936
0.000137965
0.000138991
0.000142495
0.000144731
0.00014351
0.000147976
0.000142471
0.000144692
0.00014866
0.000147193
0.000144919
0.000146803
0.000139426
0.00013687
0.000145793
0.00014275
0.000144435
0.000145175
0.000147154
0.000140289
0.000146741
0.000144792
0.000146269
0.000147515
0.000146548
0.000148471
0.000152624
0.000149357
0.000150301
0.000153922
0.000153637
0.000148551
0.000153291
0.000147724
0.000148874
0.000156034
0.0001614
0.000147089
0.000155475
0.000151886
0.000148576
0.000156545
0.000147473
0.00015479
0.000151487
0.000151607
0.000153162
0.000151451
0.0001546
0.000153398
0.000153766
0.000147566
0.000153004
0.000144882
0.00015764
0.00016248
0.000157893
0.000160926
0.000154703
0.000152096
0.000156858
0.000157102
0.000153209
0.00015422
0.000157419
0.000156948
0.000153027
0.000151015
0.000149174
0.000152639
0.000146866
0.000150818
0.000150888
0.000144549
0.000152809
0.000156396
0.000156001
0.000152712
0.000147938
0.000156333
0.000150129
0.000153911
0.000151683
0.000144742
0.000156719
0.000151761
0.000154446
0.000149706
0.000150077
0.000161898
0.000151476
0.000160787
0.000167927
0.000177042
0.000156778
0.000169031
0.000151969
0.000146903
0.000160252
0.000156088
0.000153349
0.000170159
0.00016264
0.000144456
0.000158186
0.000153858
0.000157945
0.000160955
0.000160711
0.000163542
0.000165276
0.000170971
0.000177914
0.000173417
0.000175838
0.000169316
0.000164693
0.000165759
0.000164763
0.000174004
0.000180003
0.000167301
0.000173659
0.000173982
0.000161734
0.000171708
0.000165972
0.000177538
0.000174372
0.000166809
0.000165146
0.000162055
0.000173387
0.000172151
0.000169936
0.000162504
0.000163625
0.000154622
0.00017447
0.000181228
0.000173554
0.000180761
0.000174249
0.000165899
0.000171695
0.000171997
0.000167075
0.000174796
0.000178014
0.000172681
0.00016133
0.00016157
0.000158801
0.000167955
0.000160561
0.000164431
0.000158456
0.000154078
0.000155472
0.000171924
0.00017645
0.000167572
0.000164032
0.000168978
0.000162438
0.000165055
0.000165305
0.000155018
0.000169832
0.00016508
0.000165413
0.000156966
0.000158733
0.000164932
0.000164028
0.000159439
0.000171249
0.000177919
0.000157455
0.000171974
0.000166995
0.000162341
0.000167069
0.000161105
0.000164491
0.00017732
0.000173446
0.0001546
0.000159918
0.000164862
0.000164342
0.00017184
0.000168344
0.000167207
0.000177784
0.000176657
0.000183141
0.000189038
0.000191444
0.000174089
0.00017837
0.000171369
0.000166185
0.000186617
0.000187659
0.000178471
0.000188579
0.000186548
0.000163365
0.000178857
0.000177212
0.000187723
0.000186618
0.000175648
0.000178568
0.000177456
0.000190896
0.000191999
0.000191592
0.000190486
0.000178337
0.000174517
0.000189438
0.000191386
0.000191288
0.00019408
0.000187199
0.000188334
0.000186797
0.000179919
0.000178923
0.000187508
0.000191883
0.000187464
0.000173704
0.000176303
0.000168223
0.000190158
0.000187101
0.00018071
0.000179589
0.00017338
0.000167714
0.000190954
0.000193704
0.000182999
0.000185303
0.00018618
0.000181115
0.00018534
0.000177794
0.000170569
0.000186765
0.000183357
0.000185496
0.000173896
0.000167821
0.000170902
0.000179579
0.000178874
0.000179
0.000179695
0.00016738
0.000172327
0.000181564
0.000183766
0.000180262
0.000182238
0.000185399
0.00018181
0.000185776
0.000170238
0.000172631
0.000185344
0.000182556
0.000185649
0.000173845
0.00017277
0.000180996
0.000182769
0.000184279
0.000193939
0.000194237
0.000174339
0.000180864
0.000181662
0.000182874
0.000192709
0.000191475
0.000185691
0.000193292
0.000185683
0.000173926
0.000179107
0.000185631
0.000191936
0.000185604
0.00017298
0.000181483
0.000181784
0.000195793
0.000195924
0.00019793
0.000198108
0.000181217
0.000181947
0.000194798
0.000193198
0.00019715
0.000195108
0.000187273
0.000196011
0.000195853
0.00017929
0.000179411
0.000186479
0.000193366
0.000194798
0.00018239
0.000181608
0.000182547
0.000198056
0.000198338
0.000198202
0.000199849
0.000182041
0.000184385
0.000197234
0.000195171
0.000197266
0.000196647
0.000198609
0.000200311
0.00020229
0.000179389
0.000183164
0.000197943
0.000199293
0.000203023
0.000187289
0.00018295
0.000185363
0.000198748
0.000200194
0.000201037
0.000200216
0.000184484
0.000183309
0.000197647
0.000198086
0.000202063
0.000203251
0.000202471
0.00020072
0.000199381
0.000183997
0.000186468
0.000203248
0.000202916
0.000201116
0.000182103
0.00018531
0.00018447
0.000201165
0.000199575
0.00020094
0.000198462
0.000182878
0.000181443
0.00020289
0.000204352
0.000203353
0.000205342
0.000198152
0.000198149
0.000197084
0.000186495
0.000186438
0.000199604
0.000202355
0.00019799
0.000181103
0.000184293
0.000184932
0.000200852
0.000198288
0.000201743
0.000203354
0.000181539
0.000187676
0.000202982
0.000205278
0.00020149
0.000200976
0.00019762
0.00020429
0.000206644
0.000186271
0.000183895
0.00019785
0.000201318
0.000204017
0.00018919
0.00018535
0.000187641
0.00020348
0.000205893
0.000206734
0.000209113
0.000188755
0.000191196
0.000201319
0.000199412
0.000202931
0.000197663
0.000208024
0.000209527
0.000208821
0.000183456
0.000181779
0.000205974
0.000201552
0.000207514
0.000189114
0.000187786
0.000188589
0.00020703
0.000209358
0.000207272
0.000207122
0.000190967
0.000187037
0.000204142
0.000197619
0.000207479
0.000207213
0.000207727
0.000206552
0.000204476
0.00018187
0.000189457
0.000207331
0.000206773
0.000205771
0.000185292
0.000188848
0.000192688
0.000207357
0.00020657
0.000210218
0.00020622
0.000186655
0.000188212
0.000208912
0.000211236
0.000213985
0.000220677
0.000204275
0.000205621
0.000209628
0.000191151
0.000199796
0.000205653
0.000217857
0.000211813
0.000193633
0.00019334
0.000195368
0.000211974
0.000208425
0.000215931
0.000216729
0.000189788
0.00019701
0.000215405
0.000221992
0.000217293
0.000222907
0.000214293
0.000217423
0.000220313
0.000200282
0.000199083
0.000215746
0.000220701
0.000220156
0.000200434
0.00019533
0.000193428
0.000216294
0.000217438
0.000216653
0.000217425
0.000197129
0.000194019
0.000217552
0.000221129
0.000214741
0.000209027
0.000220875
0.000217633
0.000214908
0.000197396
0.000186715
0.000220665
0.000209695
0.000213053
0.000190405
0.000192299
0.00018823
0.000215053
0.000214991
0.000210619
0.000210935
0.000192555
0.00018871
0.000212236
0.000206108
0.000208033
0.000203447
0.000211337
0.000210349
0.000206695
0.00018536
0.00018408
0.000209774
0.000205137
0.000206231
0.000184897
0.000187835
0.000194122
0.000210361
0.000210742
0.00021254
0.000214555
0.0001884
0.000195507
0.000207794
0.000203349
0.000213023
0.000215949
0.000206305
0.000214039
0.000212895
0.000185074
0.000197446
0.000205851
0.000217113
0.000214744
0.000194978
0.000195778
0.000201677
0.000216667
0.000217929
0.000223981
0.000223112
0.000196866
0.000200783
0.000217466
0.000220275
0.000225065
0.000226127
0.000217548
0.000223837
0.000227294
0.000198921
0.000202725
0.000218905
0.000225633
0.000226971
0.000204067
0.000201686
0.000199609
0.00022462
0.000223568
0.000224487
0.00022285
0.000200616
0.000198347
0.000225763
0.000226684
0.000225442
0.000224799
0.000228501
0.000224384
0.000229865
0.000202421
0.000199148
0.000227962
0.000224451
0.000228994
0.00020378
0.000198909
0.000197335
0.000223172
0.00022205
0.000221157
0.000221224
0.000197864
0.000197331
0.000223895
0.000223654
0.000221369
0.00022229
0.000228235
0.00022078
0.000219781
0.000198695
0.000198497
0.000227479
0.000222396
0.000220974
0.000195736
0.000197196
0.00019775
0.000221049
0.000221274
0.000221248
0.000221585
0.000197295
0.000197781
0.000221155
0.000222208
0.000221165
0.000221634
0.000217254
0.000220029
0.000213342
0.000198407
0.00019754
0.000218715
0.000220918
0.000214164
0.000189941
0.000197579
0.00019586
0.000221325
0.000221561
0.000220031
0.000220209
0.00019751
0.000196213
0.000221143
0.000220571
0.000219742
0.00021834
0.000213164
0.000219787
0.000217205
0.000196728
0.000194144
0.000213797
0.000217652
0.000215167
0.000194917
0.000195648
0.000198105
0.000219854
0.000220167
0.000220926
0.000222643
0.000196013
0.000200354
0.000219601
0.000218295
0.000220961
0.000222038
0.000221343
0.000225655
0.000231976
0.00019385
0.000199769
0.000218958
0.000223163
0.000230406
0.000207368
0.000199144
0.00020416
0.000223457
0.000225092
0.000229419
0.00022911
0.000201179
0.000203939
0.000223587
0.000225222
0.000229523
0.000230218
0.000233677
0.000229946
0.000235541
0.000200986
0.00020537
0.000232852
0.000231234
0.000235454
0.000208776
0.000204401
0.000204463
0.000230258
0.000229608
0.000231508
0.000229345
0.000203806
0.000201199
0.000230319
0.000230753
0.000231482
0.000229304
0.000234408
0.000226894
0.000222966
0.000205327
0.000201196
0.000235453
0.000228779
0.000225094
0.000196523
0.000203402
0.000196541
0.000230559
0.000227901
0.000222973
0.000223236
0.00020053
0.000197413
0.000230245
0.000226822
0.000222649
0.000222119
0.000220236
0.000222239
0.000217611
0.000199839
0.000196454
0.000221721
0.000221577
0.000217753
0.000192153
0.000195702
0.000195375
0.000221328
0.000222255
0.000220185
0.000221708
0.000197053
0.000197565
0.000221191
0.0002218
0.000220358
0.00022292
0.000217682
0.000222583
0.000225784
0.000196231
0.000200247
0.00021775
0.000224403
0.000225093
0.000202072
0.000196188
0.000204732
0.000220498
0.000222157
0.000229734
0.000230186
0.000198188
0.000205068
0.000220928
0.000225465
0.000230088
0.000231261
0.000229679
0.000231758
0.000236028
0.000201393
0.00020593
0.00022947
0.00023251
0.000236086
0.000210288
0.000205541
0.000207725
0.000232185
0.000232192
0.000235269
0.000234695
0.000205686
0.00020681
0.000232156
0.000231979
0.000234865
0.0002326
0.000236638
0.000234772
0.000233231
0.000205932
0.000202412
0.000236702
0.000230504
0.000231791
0.000202717
0.000206841
0.000198707
0.00023547
0.000234616
0.000226832
0.000224446
0.000205493
0.000195845
0.000234893
0.000230189
0.000226451
0.000221646
0.000228131
0.000222119
0.000216354
0.000200768
0.000193504
0.000226385
0.000218578
0.000215291
0.000189118
0.000196886
0.000194659
0.000223139
0.000221213
0.000220792
0.00022035
0.00019432
0.000194157
0.000223083
0.000219879
0.000221304
0.000221348
0.000214979
0.000219862
0.000217564
0.000192863
0.000196583
0.000214336
0.000220822
0.000218454
0.000195359
0.00019681
0.000219588
0.000219663
0.000196608
0.000220054
0.000221625
0.000240512
0.000242627
0.000239602
0.00022083
0.00019977
0.000222693
2.36197e-06
2.17138e-06
1.04739e-06
1.1602e-06
1.32661e-06
1.99283e-06
4.75377e-07
1.35159e-06
1.23261e-06
2.45649e-06
1.36764e-06
1.67493e-06
2.28984e-06
1.77027e-06
1.19365e-06
1.1674e-06
1.39992e-05
1.06566e-06
1.58157e-05
1.07411e-05
1.2987e-05
1.33576e-06
1.33056e-05
1.24883e-06
1.50573e-05
1.52021e-06
1.48022e-06
1.58791e-06
1.6916e-06
1.54566e-06
1.48662e-06
1.5968e-06
1.3455e-06
3.38286e-07
1.63688e-06
1.72036e-06
1.32176e-06
4.4942e-07
1.6463e-06
1.07347e-05
1.29408e-05
1.23582e-06
1.76599e-06
5.34019e-07
2.25918e-06
1.238e-06
1.77054e-06
6.57898e-07
1.47875e-06
1.58654e-06
2.28562e-06
1.68264e-06
1.7845e-06
1.35883e-06
1.91147e-05
1.27683e-06
2.15918e-05
1.7051e-05
1.92197e-05
1.53521e-06
1.82646e-05
1.46424e-06
2.07545e-05
1.54415e-06
1.48344e-06
1.58801e-06
1.68904e-06
1.53481e-06
1.47651e-06
1.56186e-06