/*--------------------------------*- C++ -*----------------------------------*\
| =========                 |                                                 |
| \\      /  F ield         | OpenFOAM: The Open Source CFD Toolbox           |
|  \\    /   O peration     | Version:  v2012                                 |
|   \\  /    A nd           | Website:  www.openfoam.com                      |
|    \\/     M anipulation  |                                                 |
\*---------------------------------------------------------------------------*/
FoamFile
{
    version     2.0;
    format      ascii;
    class       volScalarField;
    location    "1475";
    object      p;
}
// * * * * * * * * * * * * * * * * * * * * * * * * * * * * * * * * * * * * * //

dimensions      [0 2 -2 0 0 0 0];


internalField   nonuniform List<scalar> 
171728
(
0.00351855
0.00351748
0.00351752
0.00351837
0.00348305
0.00348166
0.00348163
0.00348451
0.00344455
0.00344275
0.00344268
0.00344498
0.00340044
0.0033988
0.00339876
0.00340101
0.0033524
0.00335097
0.00335089
0.00335315
0.00330353
0.00330226
0.00330223
0.00330465
0.00325527
0.00325411
0.00325411
0.00325647
0.00320793
0.00320691
0.0032069
0.00320927
0.00316162
0.00316072
0.00316072
0.00316307
0.00311627
0.00311548
0.00311548
0.00311785
0.00307183
0.00307115
0.00307117
0.00307353
0.00302815
0.0030276
0.00302763
0.00302995
0.00298504
0.00298465
0.00298462
0.00298691
0.00294232
0.00294205
0.0029421
0.00294429
0.0029
0.00289986
0.00289983
0.00290203
0.00285794
0.00285773
0.00285755
0.00286001
0.00281624
0.00281601
0.00281613
0.00281836
0.00277492
0.00277495
0.00277491
0.002777
0.00273388
0.00273397
0.00273394
0.00273593
0.00269321
0.00269319
0.0026932
0.00269516
0.00265288
0.002653
0.00265293
0.0026548
0.00261291
0.00261307
0.00261302
0.00261486
0.00257315
0.00257338
0.00257342
0.00257504
0.00253368
0.00253398
0.00253398
0.0025355
0.0024945
0.00249486
0.00249486
0.00249651
0.00245552
0.00245587
0.00245587
0.00245768
0.0024168
0.00241728
0.00241728
0.00241866
0.00237824
0.00237873
0.00237875
0.0023808
0.00233996
0.00234056
0.00234054
0.00234193
0.00230185
0.00230251
0.0023025
0.00230585
0.00226371
0.00226422
0.00226423
0.00226546
0.00222595
0.00222669
0.00222668
0.00222841
0.00218838
0.00218905
0.00218904
0.00219106
0.00215076
0.00215143
0.00215142
0.00215329
0.00211351
0.00211423
0.00211429
0.00211608
0.00207604
0.00207657
0.00207656
0.00207837
0.00203893
0.00203955
0.00203938
0.00204151
0.00200208
0.0020026
0.00200279
0.00200448
0.00196517
0.00196567
0.00196551
0.00196759
0.00192871
0.00192889
0.00192897
0.00193076
0.00189165
0.00189209
0.00189206
0.00189434
0.00185539
0.00185558
0.00185548
0.0018574
0.00181925
0.0018193
0.00181958
0.00182137
0.00178297
0.00178306
0.00178271
0.0017852
0.00174663
0.00174671
0.00174682
0.00174878
0.00171074
0.00171084
0.00171105
0.00171272
0.00167514
0.00167477
0.00167454
0.00167711
0.00163904
0.00163912
0.00163916
0.00164117
0.00160361
0.00160345
0.00160368
0.00160555
0.00156826
0.00156792
0.00156764
0.00156983
0.00153247
0.00153248
0.00153242
0.00153451
0.00149756
0.00149702
0.00149738
0.0014993
0.00146221
0.001462
0.00146175
0.0014638
0.00142681
0.00142668
0.00142664
0.00142891
0.00139203
0.00139166
0.00139175
0.00139347
0.00135748
0.00135719
0.00135719
0.00135912
0.00132173
0.00132114
0.00132151
0.00132356
0.00128669
0.00128704
0.00128628
0.00128836
0.0012531
0.00125295
0.00125311
0.001255
0.00121831
0.00121737
0.0012181
0.00121969
0.00118311
0.00118279
0.00118249
0.00118448
0.00114819
0.00114848
0.00114787
0.00115011
0.00111352
0.00111394
0.00111386
0.00111601
0.00108016
0.00107909
0.00107976
0.0010811
0.00104548
0.00104487
0.00104491
0.00104669
0.00101039
0.00101063
0.00101038
0.00101267
0.000975721
0.000975939
0.000975819
0.000977741
0.000941067
0.000940641
0.000940687
0.000942504
0.000906514
0.000906002
0.000906112
0.000908133
0.000872323
0.000872435
0.00087249
0.000874293
0.000838046
0.000837823
0.000837914
0.000839709
0.000803296
0.00080305
0.000803032
0.000805019
0.000768453
0.000768835
0.000768429
0.000770734
0.000733889
0.000733769
0.000733764
0.000735691
0.000699191
0.00069852
0.000699222
0.000700629
0.000665047
0.000664937
0.000664976
0.000666946
0.000630842
0.000631181
0.000630537
0.000632814
0.000595355
0.000595062
0.000594985
0.00059688
0.000559676
0.000559726
0.000560143
0.000561958
0.000526143
0.00052619
0.000526409
0.000528308
0.000492174
0.000491748
0.000491489
0.000493518
0.000456251
0.000456139
0.000456071
0.000458077
0.000421112
0.000421155
0.000421203
0.000423073
0.000386393
0.000386387
0.000386351
0.00038836
0.000350923
0.000351058
0.000351015
0.00035324
0.000315895
0.000315912
0.000316002
0.000317902
0.000281265
0.000280789
0.000280868
0.000282633
0.000245723
0.000245546
0.000245445
0.000247338
0.000209723
0.000210104
0.000210013
0.000212211
0.000174518
0.000174584
0.000174793
0.000176894
0.000139812
0.000139584
0.000139503
0.000141397
0.000103945
0.00010374
0.000103576
0.000105506
6.71734e-05
6.71022e-05
6.72657e-05
6.92552e-05
3.21077e-05
3.19101e-05
3.20184e-05
3.38855e-05
5.67492e-06
6.62177e-06
6.56671e-06
4.81923e-06
0.00352299
0.00352056
0.00352053
0.00352294
0.00352051
0.00352061
0.00352691
0.00352691
0.00352691
0.00352689
0.00352048
0.00352045
0.00352303
0.00352055
0.00352053
0.00352291
0.00351822
0.00348919
0.00351748
0.00351746
0.00349111
0.00349115
0.00351818
0.00348918
0.00351747
0.00351747
0.0034911
0.00349108
0.00351752
0.00349107
0.00349106
0.00351823
0.00348918
0.00351754
0.00349098
0.0034911
0.00348928
0.00348442
0.00345051
0.00348155
0.00348146
0.00345288
0.00345287
0.00348446
0.0034505
0.00348156
0.00348153
0.00345279
0.00345291
0.00348165
0.00345276
0.0034529
0.00348444
0.00345053
0.00348164
0.00345282
0.00345305
0.00345048
0.00344499
0.00340719
0.00344265
0.00344264
0.00341029
0.00341023
0.00344498
0.0034072
0.0034427
0.00344271
0.00341023
0.00341026
0.00344269
0.00341017
0.00341027
0.003445
0.00340718
0.00344268
0.00341027
0.00341062
0.00340723
0.00340102
0.00335973
0.00339876
0.00339873
0.00336312
0.00336303
0.00340104
0.00335976
0.00339879
0.00339878
0.00336307
0.00336309
0.00339876
0.00336302
0.00336303
0.00340101
0.00335972
0.00339868
0.00336308
0.00336325
0.00335952
0.00335327
0.00331104
0.00335094
0.00335098
0.00331441
0.0033144
0.00335329
0.00331112
0.00335097
0.00335096
0.00331441
0.00331439
0.00335091
0.00331443
0.00331448
0.00335326
0.00331104
0.00335092
0.00331438
0.00331432
0.00331111
0.0033046
0.00326278
0.00330226
0.00330229
0.00326607
0.00326605
0.00330466
0.00326275
0.00330222
0.00330226
0.00326608
0.00326609
0.00330225
0.00326604
0.00326603
0.0033046
0.0032628
0.00330221
0.00326604
0.00326606
0.0032628
0.00325645
0.00321543
0.0032541
0.00325409
0.00321863
0.00321861
0.00325643
0.00321545
0.0032541
0.00325411
0.00321859
0.00321862
0.00325412
0.0032186
0.00321858
0.00325648
0.00321546
0.00325412
0.0032186
0.00321862
0.00321545
0.00320924
0.00316912
0.00320689
0.00320691
0.00317219
0.00317216
0.00320927
0.00316912
0.00320689
0.00320692
0.00317217
0.0031722
0.00320696
0.00317217
0.00317217
0.00320928
0.00316913
0.0032069
0.00317216
0.00317217
0.00316912
0.00316307
0.00312374
0.00316073
0.00316073
0.00312671
0.00312671
0.00316308
0.00312375
0.00316071
0.00316072
0.0031267
0.00312671
0.00316075
0.0031267
0.00312668
0.0031631
0.00312376
0.00316072
0.00312669
0.00312669
0.00312376
0.00311783
0.00307929
0.0031155
0.00311548
0.00308214
0.00308217
0.00311785
0.0030793
0.00311548
0.00311549
0.00308214
0.00308216
0.0031155
0.00308217
0.00308215
0.00311786
0.00307932
0.0031155
0.00308215
0.00308213
0.0030793
0.0030735
0.00303563
0.00307114
0.00307114
0.00303842
0.00303842
0.00307351
0.00303562
0.00307116
0.00307121
0.00303841
0.00303844
0.00307114
0.00303842
0.00303838
0.00307357
0.00303566
0.00307116
0.00303842
0.00303839
0.00303562
0.00302994
0.00299249
0.00302758
0.0030276
0.0029953
0.00299533
0.00302993
0.00299253
0.00302759
0.00302766
0.00299532
0.00299532
0.00302763
0.00299532
0.00299533
0.00302998
0.00299257
0.0030276
0.00299536
0.00299535
0.00299252
0.00298689
0.00294985
0.0029846
0.00298463
0.00295258
0.00295263
0.00298691
0.00294981
0.00298459
0.00298469
0.00295257
0.00295261
0.00298458
0.00295265
0.00295257
0.00298696
0.00294988
0.00298459
0.00295266
0.00295259
0.00294982
0.00294431
0.00290751
0.00294193
0.00294203
0.0029102
0.00291028
0.00294426
0.00290759
0.00294198
0.0029421
0.00291022
0.00291021
0.00294196
0.00291028
0.00291032
0.00294435
0.00290753
0.00294196
0.00291026
0.00291031
0.00290753
0.00290206
0.00286545
0.00289985
0.00289983
0.00286828
0.00286811
0.0029021
0.00286542
0.0028998
0.00289977
0.00286826
0.00286805
0.00289967
0.00286809
0.00286809
0.00290209
0.00286519
0.00289967
0.00286806
0.0028681
0.00286544
0.00286001
0.00282371
0.00285776
0.00285774
0.00282651
0.00282645
0.00286
0.00282356
0.00285773
0.00285757
0.00282652
0.00282655
0.00285765
0.00282646
0.00282635
0.00285977
0.00282385
0.00285767
0.00282661
0.00282636
0.00282368
0.0028183
0.00278233
0.00281603
0.00281601
0.00278503
0.00278523
0.0028182
0.00278234
0.00281603
0.00281611
0.00278507
0.0027852
0.00281614
0.00278526
0.0027851
0.00281846
0.00278233
0.00281615
0.00278511
0.00278513
0.00278229
0.00277703
0.00274119
0.00277479
0.00277496
0.00274402
0.00274408
0.00277704
0.00274127
0.00277481
0.00277498
0.00274398
0.00274402
0.00277479
0.00274402
0.00274404
0.00277705
0.00274124
0.00277479
0.00274403
0.00274403
0.00274117
0.00273595
0.00270039
0.00273381
0.00273399
0.00270337
0.00270332
0.00273604
0.0027004
0.0027338
0.00273392
0.00270337
0.00270327
0.00273381
0.00270332
0.00270344
0.002736
0.00270043
0.00273378
0.00270328
0.0027034
0.00270032
0.00269524
0.0026599
0.00269321
0.00269317
0.00266304
0.00266307
0.00269519
0.00265984
0.00269323
0.00269319
0.00266302
0.00266303
0.00269325
0.00266308
0.00266313
0.00269521
0.0026599
0.00269329
0.00266304
0.00266312
0.00265989
0.00265475
0.00261981
0.00265294
0.00265297
0.00262297
0.00262298
0.00265473
0.00261978
0.00265294
0.00265294
0.00262295
0.00262301
0.00265303
0.00262296
0.00262301
0.00265475
0.00261975
0.00265309
0.00262302
0.00262301
0.0026199
0.00261471
0.00257998
0.00261302
0.00261309
0.00258328
0.00258327
0.00261469
0.00258005
0.00261297
0.00261303
0.00258334
0.00258329
0.00261297
0.00258328
0.00258335
0.0026147
0.00257998
0.00261305
0.00258331
0.00258329
0.00258004
0.00257495
0.0025406
0.00257335
0.00257338
0.00254386
0.00254384
0.00257501
0.00254061
0.00257332
0.00257341
0.00254387
0.00254382
0.00257331
0.00254385
0.00254397
0.00257497
0.00254058
0.0025734
0.00254381
0.00254387
0.00254055
0.00253568
0.00250129
0.00253402
0.00253399
0.00250451
0.00250459
0.00253563
0.00250139
0.00253403
0.00253399
0.00250451
0.0025046
0.00253397
0.00250461
0.00250469
0.00253557
0.00250145
0.00253399
0.0025046
0.00250463
0.00250139
0.00249629
0.00246274
0.0024948
0.00249484
0.00246567
0.00246566
0.00249645
0.00246261
0.00249481
0.00249486
0.00246568
0.00246564
0.00249495
0.00246565
0.00246556
0.0024965
0.00246258
0.00249491
0.00246565
0.00246561
0.00246265
0.0024577
0.00242371
0.00245586
0.00245587
0.00242689
0.00242691
0.00245759
0.00242378
0.00245589
0.00245588
0.0024269
0.00242691
0.00245591
0.00242692
0.00242687
0.00245757
0.00242385
0.0024559
0.00242691
0.00242686
0.00242351
0.00241885
0.00238562
0.00241724
0.00241725
0.00238844
0.00238839
0.00241893
0.00238562
0.00241724
0.00241727
0.00238842
0.00238836
0.00241728
0.00238838
0.00238816
0.00241902
0.00238557
0.00241726
0.00238837
0.00238809
0.0023857
0.00238071
0.00234709
0.00237881
0.00237875
0.00235004
0.00235007
0.00238064
0.00234715
0.00237881
0.00237874
0.00235006
0.00235005
0.00237858
0.00235007
0.00235014
0.00238055
0.00234716
0.00237847
0.00235005
0.00235027
0.0023471
0.00234219
0.00230935
0.00234052
0.00234054
0.00231195
0.00231197
0.00234228
0.00230931
0.00234054
0.00234052
0.00231195
0.00231198
0.00234086
0.00231204
0.00231204
0.00234234
0.00230935
0.00234089
0.00231204
0.00231199
0.00231084
0.00230438
0.00227107
0.00230243
0.00230245
0.00227388
0.00227382
0.00230442
0.00227111
0.00230243
0.00230246
0.00227388
0.00227383
0.00230225
0.00227376
0.00227342
0.0023044
0.0022711
0.00230206
0.00227377
0.00227328
0.00227056
0.00226621
0.00223339
0.00226437
0.00226431
0.002236
0.00223603
0.00226615
0.0022333
0.00226436
0.00226432
0.002236
0.00223603
0.00226401
0.002236
0.00223634
0.00226617
0.00223332
0.00226394
0.00223602
0.00223657
0.00223305
0.00222847
0.00219577
0.00222661
0.00222667
0.00219846
0.00219844
0.00222847
0.00219583
0.00222661
0.00222663
0.00219847
0.00219842
0.00222685
0.00219853
0.00219836
0.00222846
0.00219587
0.002227
0.00219848
0.00219815
0.00219607
0.0021909
0.00215819
0.00218907
0.00218899
0.00216083
0.00216078
0.00219089
0.00215817
0.00218909
0.00218902
0.00216084
0.00216085
0.00218882
0.00216074
0.00216067
0.00219096
0.00215814
0.00218865
0.00216079
0.00216079
0.00215813
0.00215329
0.00212087
0.00215142
0.00215146
0.00212348
0.00212355
0.0021533
0.00212091
0.00215144
0.00215147
0.00212347
0.00212343
0.00215144
0.00212358
0.00212365
0.00215326
0.00212096
0.0021516
0.00212357
0.00212378
0.00212108
0.00211598
0.00208344
0.00211419
0.0021142
0.00208605
0.00208597
0.00211601
0.0020834
0.00211415
0.00211413
0.00208606
0.00208606
0.00211425
0.00208595
0.00208581
0.00211608
0.00208342
0.00211423
0.00208603
0.00208559
0.00208324
0.00207854
0.00204628
0.00207663
0.00207658
0.00204877
0.00204879
0.0020785
0.0020463
0.0020767
0.00207666
0.00204873
0.00204868
0.00207643
0.00204875
0.00204875
0.00207848
0.00204616
0.00207625
0.00204857
0.00204872
0.00204634
0.00204144
0.00200924
0.00203959
0.0020396
0.00201179
0.00201183
0.00204144
0.00200927
0.00203949
0.00203944
0.00201186
0.00201192
0.00203957
0.00201187
0.00201197
0.00204132
0.00200948
0.0020396
0.002012
0.00201201
0.00200936
0.00200433
0.00197242
0.00200242
0.00200254
0.00197476
0.00197482
0.00200442
0.00197249
0.00200254
0.00200271
0.00197473
0.00197473
0.00200267
0.00197484
0.00197483
0.0020046
0.00197229
0.00200274
0.00197481
0.00197481
0.00197246
0.00196763
0.00193605
0.0019657
0.00196563
0.00193849
0.00193814
0.00196764
0.00193572
0.0019656
0.00196545
0.00193841
0.00193811
0.00196561
0.0019381
0.00193802
0.00196745
0.00193581
0.00196557
0.00193804
0.00193794
0.00193559
0.00193109
0.00189851
0.00192914
0.00192899
0.0019008
0.00190128
0.00193089
0.00189894
0.00192915
0.00192907
0.00190096
0.0019014
0.0019288
0.00190127
0.00190139
0.001931
0.00189891
0.00192877
0.00190139
0.00190147
0.00189918
0.00189367
0.00186258
0.00189161
0.00189199
0.00186487
0.00186456
0.00189405
0.00186239
0.00189169
0.00189203
0.0018647
0.00186444
0.00189229
0.00186468
0.0018647
0.00189397
0.00186226
0.00189237
0.00186449
0.00186465
0.00186227
0.00185784
0.00182646
0.00185596
0.00185555
0.00182863
0.00182856
0.00185759
0.00182618
0.00185581
0.00185545
0.00182866
0.00182867
0.00185548
0.0018284
0.00182818
0.00185752
0.00182652
0.00185541
0.00182861
0.00182824
0.00182611
0.00182154
0.00178946
0.00181938
0.00181948
0.00179168
0.00179204
0.00182139
0.0017899
0.00181947
0.00181964
0.00179176
0.00179193
0.00181921
0.00179209
0.00179224
0.00182171
0.00178957
0.0018193
0.00179196
0.00179227
0.00179005
0.00178467
0.00175375
0.00178265
0.00178294
0.00175584
0.0017557
0.00178505
0.00175355
0.00178267
0.00178266
0.0017558
0.0017557
0.00178319
0.00175579
0.00175587
0.00178472
0.00175366
0.00178316
0.00175571
0.00175584
0.00175362
0.00174898
0.00171793
0.00174688
0.00174667
0.00171998
0.00171988
0.00174877
0.00171776
0.00174686
0.00174683
0.00172001
0.00172013
0.00174674
0.00171978
0.00171954
0.00174893
0.001718
0.00174676
0.00172009
0.00171957
0.00171746
0.00171313
0.00168151
0.00171099
0.00171099
0.00168371
0.00168388
0.00171299
0.00168167
0.00171102
0.0017111
0.0016837
0.00168357
0.00171059
0.00168386
0.001684
0.00171313
0.00168142
0.0017106
0.00168362
0.00168393
0.00168188
0.00167671
0.00164595
0.00167464
0.00167475
0.00164801
0.00164787
0.00167685
0.00164594
0.00167464
0.00167449
0.00164793
0.00164794
0.00167514
0.001648
0.00164808
0.00167664
0.00164596
0.00167501
0.00164794
0.00164813
0.00164596
0.00164122
0.00161047
0.00163915
0.00163904
0.00161253
0.00161245
0.00164119
0.0016103
0.00163908
0.00163919
0.00161257
0.00161266
0.00163903
0.00161238
0.00161233
0.00164124
0.00161058
0.00163919
0.00161262
0.00161242
0.00161031
0.00160566
0.00157451
0.0016036
0.00160353
0.00157658
0.00157673
0.00160553
0.0015747
0.00160367
0.00160366
0.00157662
0.00157648
0.00160349
0.00157677
0.0015767
0.00160577
0.00157445
0.00160351
0.00157663
0.00157662
0.00157459
0.00156976
0.00153938
0.00156766
0.00156786
0.00154133
0.00154135
0.00156994
0.00153932
0.00156767
0.00156759
0.0015413
0.00154142
0.00156777
0.00154135
0.00154131
0.0015697
0.00153932
0.00156767
0.0015412
0.00154114
0.00153923
0.00153468
0.00150395
0.00153262
0.00153252
0.0015062
0.00150598
0.00153458
0.00150387
0.00153258
0.00153265
0.00150614
0.00150605
0.00153255
0.0015059
0.00150609
0.0015346
0.00150406
0.0015324
0.00150614
0.00150619
0.00150405
0.00149912
0.00146841
0.00149719
0.00149707
0.00147035
0.00147067
0.00149911
0.00146863
0.00149719
0.00149717
0.00147041
0.00147056
0.00149715
0.00147071
0.00147044
0.00149931
0.00146852
0.00149742
0.00147071
0.00147058
0.00146851
0.00146373
0.00143362
0.0014617
0.00146195
0.00143574
0.00143559
0.00146393
0.00143355
0.00146166
0.00146169
0.00143559
0.00143533
0.00146175
0.00143562
0.00143577
0.00146375
0.00143335
0.0014617
0.0014354
0.00143555
0.00143363
0.00142888
0.00139843
0.00142695
0.00142665
0.00140042
0.00140026
0.00142878
0.00139828
0.00142684
0.00142656
0.00140057
0.00140061
0.00142697
0.00140023
0.00140019
0.00142864
0.00139854
0.00142682
0.00140041
0.00140034
0.00139818
0.00139377
0.00136377
0.00139161
0.00139169
0.00136571
0.00136598
0.00139362
0.0013638
0.0013919
0.00139211
0.00136588
0.0013661
0.00139136
0.00136596
0.0013658
0.00139392
0.00136384
0.00139153
0.00136587
0.00136574
0.00136374
0.00135903
0.00132809
0.00135708
0.0013571
0.00133042
0.00133
0.00135907
0.00132799
0.00135713
0.00135712
0.00133027
0.00133007
0.00135732
0.00133013
0.00133057
0.00135909
0.0013282
0.00135722
0.00133059
0.00133067
0.00132844
0.00132325
0.00129314
0.00132137
0.00132104
0.00129519
0.00129566
0.00132314
0.00129354
0.00132127
0.00132108
0.00129482
0.00129475
0.00132142
0.00129538
0.00129492
0.00132336
0.00129278
0.00132157
0.0012948
0.00129481
0.00129294
0.00128864
0.00125984
0.00128682
0.00128737
0.00126185
0.00126184
0.00128903
0.00125969
0.00128641
0.00128641
0.00126171
0.00126174
0.00128652
0.00126177
0.00126161
0.00128821
0.00125968
0.00128637
0.0012614
0.00126141
0.00125954
0.00125519
0.0012242
0.00125311
0.00125275
0.00122607
0.00122572
0.0012549
0.00122383
0.00125336
0.00125345
0.0012269
0.00122715
0.00125311
0.00122617
0.00122655
0.00125526
0.00122488
0.00125305
0.00122714
0.00122685
0.0012245
0.00121936
0.00118916
0.0012172
0.00121696
0.00119135
0.00119138
0.00121902
0.0011892
0.00121783
0.001218
0.00119118
0.00119106
0.00121762
0.00119139
0.00119134
0.00122001
0.00118903
0.00121788
0.00119126
0.00119132
0.00118922
0.00118451
0.00115498
0.00118283
0.00118294
0.00115718
0.00115735
0.0011846
0.00115527
0.00118252
0.00118233
0.00115675
0.00115643
0.00118268
0.00115709
0.00115683
0.00118425
0.00115443
0.00118257
0.00115646
0.00115664
0.00115474
0.00115033
0.0011205
0.00114854
0.00114874
0.00112248
0.00112274
0.00115065
0.00112084
0.00114812
0.00114786
0.00112217
0.00112241
0.00114824
0.0011226
0.0011225
0.00114982
0.00112048
0.00114807
0.00112237
0.00112243
0.00112062
0.00111586
0.001086
0.00111379
0.00111402
0.00108787
0.00108763
0.00111609
0.00108553
0.00111365
0.0011139
0.00108836
0.00108854
0.00111392
0.00108773
0.0010879
0.00111589
0.00108638
0.0011139
0.00108837
0.00108812
0.00108581
0.0010813
0.00105133
0.00107927
0.00107897
0.00105349
0.00105327
0.00108081
0.00105119
0.0010798
0.00107993
0.00105369
0.00105361
0.00107918
0.00105339
0.00105347
0.00108166
0.00105142
0.00107938
0.0010536
0.00105347
0.00105133
0.00104662
0.00101685
0.0010449
0.00104475
0.00101904
0.00101914
0.00104656
0.0010172
0.00104495
0.00104487
0.00101885
0.00101882
0.00104498
0.00101923
0.00101942
0.00104667
0.00101682
0.00104491
0.00101898
0.00101929
0.00101734
0.00101222
0.000982705
0.00101042
0.00101058
0.000984652
0.000984768
0.00101257
0.000982779
0.00101023
0.0010102
0.000984509
0.00098445
0.00101078
0.000984688
0.000984468
0.00101219
0.000982576
0.00101068
0.000984527
0.000984503
0.000982518
0.00097801
0.000947687
0.000975985
0.000976078
0.000949696
0.000949694
0.000978059
0.000947474
0.000975861
0.000975792
0.000949735
0.000949677
0.00097563
0.000949509
0.000949235
0.000977855
0.000947541
0.000975695
0.000949476
0.00094929
0.000947245
0.000942843
0.000912394
0.000940809
0.000940748
0.000914448
0.000914377
0.000942634
0.000912387
0.000940927
0.000940911
0.000914558
0.000914595
0.000940546
0.000914495
0.00091481
0.000942744
0.000912548
0.000940567
0.000914616
0.00091478
0.000912755
0.000907728
0.000878683
0.000905902
0.000905815
0.000880687
0.000880703
0.00090775
0.000878831
0.000905994
0.000906018
0.000880636
0.000880715
0.00090633
0.000880864
0.000880932
0.000907905
0.00087883
0.000906297
0.000880918
0.000880922
0.000878899
0.000874136
0.00084481
0.000872309
0.000872361
0.00084674
0.000846766
0.000874265
0.000844639
0.000872232
0.000872333
0.000846744
0.000846855
0.000872426
0.000846561
0.000846529
0.000874262
0.000844707
0.000872427
0.000846634
0.000846567
0.00084448
0.000840081
0.000809768
0.000838044
0.000838039
0.000811797
0.000811728
0.000839892
0.000809721
0.000838095
0.000838184
0.000811824
0.000811835
0.000837792
0.000811658
0.000811702
0.000839975
0.00080974
0.000837822
0.000811705
0.00081163
0.000809712
0.000804991
0.000775007
0.000803074
0.000803022
0.000777099
0.000777202
0.000805009
0.000775347
0.000803048
0.000803027
0.000776921
0.000776758
0.000803096
0.000777407
0.000777376
0.00080498
0.000774978
0.00080301
0.000777074
0.000777292
0.000775432
0.000770325
0.000740572
0.000768485
0.000768653
0.000742532
0.000742684
0.000770688
0.000740553
0.000768307
0.000768096
0.000742536
0.000742374
0.000768736
0.000742611
0.00074245
0.000770275
0.000740467
0.000768694
0.000742428
0.000742576
0.000740467
0.000735847
0.00070569
0.000733784
0.000733901
0.000707569
0.0007074
0.000735751
0.000705286
0.000733898
0.000733845
0.00070783
0.000708117
0.000733668
0.000707245
0.000707341
0.000735777
0.000705907
0.000733811
0.000707826
0.000707479
0.000705348
0.000700951
0.000671338
0.000698917
0.000698622
0.000673415
0.000673089
0.000700522
0.000671295
0.000699128
0.000699487
0.000673292
0.000673404
0.000698699
0.000673193
0.000673424
0.000701193
0.00067143
0.00069877
0.000673616
0.000673287
0.000671458
0.000666719
0.000637346
0.000664942
0.00066479
0.000639456
0.000639808
0.000666784
0.000637824
0.000664787
0.000664811
0.000639262
0.000639075
0.000665132
0.000639906
0.000639705
0.000666774
0.000637205
0.000664962
0.000639234
0.000639564
0.00063759
0.000632654
0.000602207
0.000630807
0.000631147
0.000604273
0.000604252
0.00063305
0.000602076
0.000630664
0.000630436
0.00060424
0.000603952
0.000630888
0.000604139
0.000603939
0.000632483
0.000601905
0.000630812
0.000603926
0.000603992
0.000601841
0.000597283
0.000566521
0.000595263
0.000595182
0.000568349
0.000568331
0.000597125
0.000566403
0.000595266
0.000595041
0.000568493
0.000568717
0.00059486
0.000568322
0.000568422
0.000597038
0.000566813
0.000594945
0.000568707
0.000568568
0.000566614
0.000561811
0.000532671
0.000559664
0.000559693
0.00053446
0.000534451
0.000561722
0.000532674
0.000559828
0.000560134
0.000534574
0.000534852
0.000559902
0.000534519
0.000534684
0.000562132
0.000532982
0.000560042
0.000534854
0.000534742
0.000532873
0.000528142
0.000498477
0.000526169
0.000526134
0.000500719
0.000500566
0.000528144
0.000498458
0.000526265
0.000526443
0.000500594
0.000500387
0.000526324
0.00050057
0.000500576
0.00052838
0.000498206
0.000526318
0.000500337
0.000500389
0.000498335
0.00049362
0.000462807
0.000491852
0.000491745
0.000464961
0.000465022
0.000493642
0.000462897
0.000491705
0.000491507
0.000464862
0.00046485
0.000491737
0.000465018
0.000465016
0.00049337
0.000462756
0.000491566
0.000464899
0.000464982
0.000462906
0.000457964
0.000427895
0.000456055
0.000456147
0.000429796
0.000429892
0.000458041
0.000427904
0.000455995
0.000456012
0.000429813
0.000429857
0.000456141
0.000429832
0.000429682
0.000457938
0.000427962
0.000456159
0.000429862
0.000429772
0.000427803
0.000423201
0.000393302
0.000421174
0.000421222
0.00039523
0.00039516
0.000423182
0.000393224
0.000421206
0.000421224
0.000395261
0.000395172
0.000420974
0.000395131
0.00039503
0.000423247
0.000393223
0.000421066
0.000395121
0.000395036
0.000393114
0.00038851
0.000357812
0.000386468
0.000386385
0.000359825
0.000359823
0.000388447
0.000357861
0.000386488
0.000386386
0.000359833
0.00035979
0.000386351
0.000359916
0.000360081
0.000388429
0.000357821
0.000386325
0.000359834
0.000360036
0.00035805
0.000352941
0.000322522
0.000350902
0.000350948
0.000324507
0.000324628
0.000353015
0.000322615
0.000350914
0.000350948
0.00032452
0.000324678
0.000351282
0.000324657
0.000324771
0.000352997
0.000322678
0.000351233
0.000324717
0.000324838
0.000322729
0.000317771
0.000287683
0.000315811
0.000315928
0.000289778
0.000289701
0.000317842
0.000287553
0.00031582
0.000315986
0.000289766
0.000289757
0.000315931
0.00028958
0.00028946
0.000317922
0.000287605
0.000315976
0.000289682
0.000289508
0.000287428
0.000282896
0.000252511
0.000281019
0.000280899
0.000254559
0.000254449
0.000282758
0.000252375
0.000281008
0.000280936
0.000254552
0.000254406
0.00028066
0.000254375
0.000254183
0.000282804
0.00025233
0.0002807
0.000254349
0.000254196
0.000252147
0.000247662
0.000216761
0.000245677
0.000245598
0.000218758
0.000218882
0.000247552
0.000216983
0.00024566
0.000245506
0.000218732
0.000218766
0.000245375
0.000218985
0.00021903
0.000247473
0.00021686
0.000245338
0.000218814
0.000218943
0.000217032
0.000211889
0.000181359
0.0002098
0.000209967
0.000183286
0.000183324
0.000212118
0.000181397
0.000209794
0.00020993
0.000183329
0.000183495
0.000210209
0.000183411
0.000183652
0.000212034
0.000181571
0.000210146
0.000183577
0.000183676
0.000181695
0.000176577
0.000146468
0.00017456
0.000174548
0.000148478
0.000148421
0.000176581
0.000146342
0.000174602
0.000174722
0.000148479
0.000148444
0.000174837
0.000148342
0.000148317
0.000176776
0.000146334
0.000174895
0.000148396
0.000148359
0.000146255
0.000141663
0.000110722
0.000139745
0.000139695
0.00011286
0.000112863
0.00014154
0.000110727
0.000139715
0.000139592
0.000112819
0.000112703
0.000139442
0.000112798
0.000112611
0.000141475
0.000110559
0.000139447
0.000112625
0.000112559
0.000110494
0.000105748
7.42318e-05
0.000103774
0.000103774
7.62876e-05
7.621e-05
0.000105748
7.41665e-05
0.000103748
0.000103659
7.63113e-05
7.6266e-05
0.000103558
7.62022e-05
7.61644e-05
0.000105585
7.42823e-05
0.000103493
7.62514e-05
7.61687e-05
7.42119e-05
6.91711e-05
3.83753e-05
6.71109e-05
6.70572e-05
4.02673e-05
4.0331e-05
6.91422e-05
3.84756e-05
6.71567e-05
6.72151e-05
4.0294e-05
4.04542e-05
6.72054e-05
4.04396e-05
4.06148e-05
6.93011e-05
3.85901e-05
6.72393e-05
4.05825e-05
4.06583e-05
3.86923e-05
3.35669e-05
7.67806e-06
3.17302e-05
3.18254e-05
1.06648e-05
1.07897e-05
3.36738e-05
7.8231e-06
3.17412e-05
3.19038e-05
1.06523e-05
1.07862e-05
3.20778e-05
1.08647e-05
1.10297e-05
3.37701e-05
7.79006e-06
3.21182e-05
1.08654e-05
1.10343e-05
7.92978e-06
4.70251e-06
6.58541e-06
6.74003e-06
4.80669e-06
6.52105e-06
6.72787e-06
5.76951e-06
5.73677e-06
5.90741e-06
6.86493e-06
4.72469e-06
6.76234e-06
0.00353004
0.00353259
0.00353133
0.00353148
0.00355854
0.00353255
0.00356219
0.00353287
0.00355879
0.00353262
0.00353288
0.00356219
0.00354382
0.00356544
0.00356539
0.00350266
0.00351613
0.00352011
0.00349484
0.00349297
0.00349835
0.0035026
0.00351619
0.00352006
0.00349494
0.00351854
0.00351853
0.00351856
0.00349215
0.00349215
0.00349213
0.00349214
0.00350231
0.00351388
0.00351912
0.00350986
0.00352126
0.00349942
0.00351012
0.00349307
0.00349831
0.00350227
0.00351913
0.00351394
0.00350979
0.00352125
0.00351013
0.00349933
0.00351963
0.00352428
0.00350716
0.00349932
0.00349975
0.00347505
0.00348926
0.00348915
0.00347308
0.00348671
0.0034721
0.00347502
0.00348932
0.0034892
0.00347305
0.0034831
0.00348304
0.00348303
0.00345465
0.00345468
0.00345462
0.00345457
0.00347282
0.00348796
0.00348162
0.00347211
0.00348634
0.00347339
0.00347212
0.00348666
0.00347197
0.00347283
0.00348154
0.00348786
0.00347213
0.00348629
0.00347218
0.00347332
0.0034896
0.00348964
0.00347058
0.00347374
0.00347348
0.00343246
0.0034473
0.00344817
0.00343117
0.00344623
0.00343034
0.00343255
0.00344722
0.00344818
0.00343123
0.00344462
0.00344454
0.00344453
0.00341199
0.00341201
0.00341198
0.00341198
0.00343124
0.00344685
0.00344268
0.00343218
0.00344579
0.00343184
0.00343219
0.00344609
0.00343036
0.00343129
0.00344264
0.00344687
0.00343219
0.00344576
0.00343218
0.00343169
0.00344753
0.00344696
0.00342959
0.00343155
0.00343219
0.0033862
0.00340258
0.00340404
0.00338477
0.00340195
0.00338418
0.00338622
0.00340257
0.00340399
0.0033848
0.00340046
0.00340043
0.00340046
0.00336458
0.0033646
0.00336456
0.0033645
0.00338533
0.00340252
0.00339877
0.0033871
0.00340184
0.00338543
0.00338705
0.00340185
0.00338432
0.00338535
0.00339876
0.00340245
0.00338705
0.00340188
0.00338704
0.00338541
0.00340273
0.00340348
0.0033837
0.00338495
0.00338496
0.00333727
0.00335438
0.00335574
0.0033361
0.00335397
0.00333575
0.00333733
0.00335446
0.00335571
0.00333607
0.0033524
0.00335237
0.00335234
0.00331572
0.00331575
0.00331571
0.00331576
0.0033369
0.00335441
0.00335098
0.00333878
0.00335406
0.00333676
0.0033388
0.00335395
0.00333572
0.00333687
0.00335096
0.00335438
0.00333877
0.00335403
0.00333878
0.0033368
0.00335439
0.00335395
0.00333546
0.00333624
0.00333669
0.00328816
0.00330554
0.00330657
0.00328733
0.00330532
0.00328712
0.00328819
0.00330552
0.00330646
0.00328732
0.00330356
0.00330353
0.00330357
0.00326726
0.00326724
0.00326725
0.00326725
0.00328814
0.00330563
0.00330231
0.00329017