/*--------------------------------*- C++ -*----------------------------------*\
| =========                 |                                                 |
| \\      /  F ield         | OpenFOAM: The Open Source CFD Toolbox           |
|  \\    /   O peration     | Version:  v2012                                 |
|   \\  /    A nd           | Website:  www.openfoam.com                      |
|    \\/     M anipulation  |                                                 |
\*---------------------------------------------------------------------------*/
FoamFile
{
    version     2.0;
    format      ascii;
    class       volScalarField;
    location    "1225";
    object      epsilon;
}
// * * * * * * * * * * * * * * * * * * * * * * * * * * * * * * * * * * * * * //

dimensions      [0 2 -3 0 0 0 0];


internalField   nonuniform List<scalar> 
171728
(
1.22715e-09
3.29216e-09
4.72358e-09
5.08993e-09
1.19446e-09
3.03887e-09
4.33063e-09
4.61066e-09
1.13643e-09
2.78663e-09
3.94416e-09
4.18553e-09
1.08337e-09
2.56708e-09
3.61158e-09
3.84101e-09
1.03301e-09
2.3795e-09
3.32975e-09
3.55482e-09
9.86371e-10
2.22123e-09
3.08229e-09
3.31501e-09
9.42404e-10
2.09624e-09
2.87217e-09
3.10019e-09
9.01167e-10
2.00148e-09
2.71256e-09
2.84127e-09
8.63196e-10
1.93483e-09
2.60054e-09
2.62599e-09
8.28357e-10
1.90065e-09
2.52795e-09
2.48736e-09
7.96324e-10
1.89771e-09
2.49214e-09
2.3715e-09
7.66951e-10
1.92697e-09
2.48648e-09
2.26714e-09
7.396e-10
1.99786e-09
2.5232e-09
2.22443e-09
7.1443e-10
2.12665e-09
2.63195e-09
2.26377e-09
6.91838e-10
2.32703e-09
2.81507e-09
2.37698e-09
6.71106e-10
2.64186e-09
3.13919e-09
2.61246e-09
6.52878e-10
3.12934e-09
3.62432e-09
3.03264e-09
6.36597e-10
3.87031e-09
4.3901e-09
3.76648e-09
6.23747e-10
4.9572e-09
5.18746e-09
5.03245e-09
6.19886e-10
6.6989e-09
7.26027e-09
7.26097e-09
6.17714e-10
8.95269e-09
9.26168e-09
1.10341e-08
6.27173e-10
1.25418e-08
1.29829e-08
1.7605e-08
6.53794e-10
1.74847e-08
1.78454e-08
2.83785e-08
6.9857e-10
2.40947e-08
2.48354e-08
4.86977e-08
7.70162e-10
3.24687e-08
3.27499e-08
6.48066e-08
8.93057e-10
4.46349e-08
4.513e-08
1.29768e-07
1.06769e-09
5.73631e-08
5.8405e-08
1.4668e-07
1.31312e-09
7.52509e-08
7.4178e-08
2.31302e-07
1.69888e-09
9.56663e-08
9.65908e-08
2.7302e-07
2.18001e-09
1.15906e-07
1.16855e-07
3.55227e-07
2.88145e-09
1.44612e-07
1.45532e-07
4.66686e-07
3.93474e-09
1.73001e-07
1.75769e-07
5.19758e-07
4.97066e-09
2.04822e-07
2.07844e-07
5.66894e-07
7.19788e-09
2.41593e-07
2.41015e-07
6.5897e-07
8.70368e-09
2.80317e-07
2.92038e-07
7.07714e-07
1.2135e-08
3.16038e-07
3.29587e-07
7.60205e-07
1.62206e-08
3.68088e-07
3.60352e-07
8.03376e-07
1.94586e-08
4.05298e-07
4.23777e-07
8.40988e-07
2.65449e-08
4.56432e-07
4.53177e-07
8.79217e-07
3.26932e-08
5.01797e-07
5.07796e-07
9.19673e-07
4.05068e-08
5.59071e-07
5.5574e-07
9.4864e-07
5.1282e-08
5.92769e-07
5.99027e-07
9.72494e-07
6.28402e-08
6.49692e-07
6.4512e-07
1.00403e-06
7.3997e-08
6.95976e-07
7.02043e-07
1.03837e-06
9.35085e-08
7.47485e-07
7.44541e-07
1.07076e-06
1.07768e-07
7.80153e-07
7.74807e-07
1.08792e-06
1.29301e-07
8.31658e-07
8.35256e-07
1.1168e-06
1.55739e-07
8.62691e-07
8.60604e-07
1.14534e-06
1.64297e-07
9.08795e-07
9.06848e-07
1.16891e-06
2.00644e-07
9.3488e-07
9.40565e-07
1.19035e-06
2.36383e-07
9.74331e-07
9.6978e-07
1.22267e-06
2.57156e-07
1.00649e-06
9.91909e-07
1.23395e-06
2.77087e-07
1.01692e-06
1.03233e-06
1.24945e-06
3.18032e-07
1.05538e-06
1.06049e-06
1.29294e-06
3.5915e-07
1.08948e-06
1.06899e-06
1.30198e-06
3.75758e-07
1.09046e-06
1.0969e-06
1.30477e-06
4.12246e-07
1.11268e-06
1.12673e-06
1.33816e-06
4.4422e-07
1.14886e-06
1.13272e-06
1.34848e-06
4.70414e-07
1.15274e-06
1.15683e-06
1.35967e-06
4.99878e-07
1.17114e-06
1.175e-06
1.38489e-06
5.30634e-07
1.19619e-06
1.18481e-06
1.39185e-06
5.52991e-07
1.19757e-06
1.20524e-06
1.39247e-06
5.79659e-07
1.22267e-06
1.22556e-06
1.42982e-06
5.98637e-07
1.24133e-06
1.22816e-06
1.43544e-06
6.20695e-07
1.23458e-06
1.24062e-06
1.42368e-06
6.42845e-07
1.24163e-06
1.25441e-06
1.43989e-06
6.58617e-07
1.2825e-06
1.26535e-06
1.48951e-06
6.77861e-07
1.27721e-06
1.28339e-06
1.47365e-06
6.89696e-07
1.26815e-06
1.27268e-06
1.44569e-06
7.04501e-07
1.29089e-06
1.27687e-06
1.49122e-06
7.28112e-07
1.30025e-06
1.30836e-06
1.51249e-06
7.34483e-07
1.29688e-06
1.3019e-06
1.49391e-06
7.4183e-07
1.30287e-06
1.29778e-06
1.49316e-06
7.63633e-07
1.30859e-06
1.31158e-06
1.50602e-06
7.72924e-07
1.30722e-06
1.31791e-06
1.50415e-06
7.73156e-07
1.31433e-06
1.31204e-06
1.51425e-06
7.82387e-07
1.33349e-06
1.31726e-06
1.54728e-06
7.98844e-07
1.33291e-06
1.33117e-06
1.5407e-06
8.00851e-07
1.30557e-06
1.31895e-06
1.50523e-06
7.96298e-07
1.29465e-06
1.30552e-06
1.49158e-06
8.01771e-07
1.3198e-06
1.32164e-06
1.52036e-06
8.19257e-07
1.34553e-06
1.33818e-06
1.56515e-06
8.18603e-07
1.33532e-06
1.3164e-06
1.55104e-06
8.0409e-07
1.29482e-06
1.30446e-06
1.49412e-06
8.05337e-07
1.29321e-06
1.32413e-06
1.5036e-06
8.22805e-07
1.32971e-06
1.32504e-06
1.55789e-06
8.18429e-07
1.32766e-06
1.28843e-06
1.54033e-06
7.97652e-07
1.28377e-06
1.27895e-06
1.47935e-06
7.97654e-07
1.28185e-06
1.32592e-06
1.51797e-06
8.2165e-07
1.32634e-06
1.34096e-06
1.58185e-06
8.12635e-07
1.29882e-06
1.26122e-06
1.49187e-06
7.65259e-07
1.23293e-06
1.21921e-06
1.41397e-06
7.68126e-07
1.26347e-06
1.28943e-06
1.52391e-06
8.1207e-07
1.30979e-06
1.3303e-06
1.57779e-06
7.84573e-07
1.22074e-06
1.20783e-06
1.44539e-06
5.28107e-09
3.96038e-09
3.86123e-09
4.94193e-09
3.78948e-09
4.19656e-09
1.20953e-09
1.17966e-09
1.57607e-09
1.41307e-09
3.61475e-09
3.65512e-09
5.25043e-09
3.96758e-09
4.99516e-09
5.10947e-09
5.25774e-09
4.71547e-09
3.38891e-09
4.31478e-09
3.19977e-09
3.33314e-09
4.91787e-09
4.40124e-09
3.38279e-09
7.17974e-09
3.21271e-09
6.02935e-09
3.3803e-09
3.10811e-09
3.19154e-09
5.21494e-09
4.75981e-09
5.63971e-09
4.43645e-09
5.43244e-09
4.64196e-09
4.68613e-09
4.20658e-09
3.12509e-09
3.15603e-09
2.91643e-09
2.82672e-09
4.37413e-09
3.94975e-09
3.14694e-09
5.61197e-09
2.96114e-09
4.6634e-09
3.12144e-09
2.84594e-09
2.92529e-09
4.72025e-09
4.28656e-09
5.3501e-09
4.03539e-09
5.12156e-09
4.21149e-09
4.18383e-09
3.78887e-09
2.85088e-09
2.76109e-09
2.66651e-09
2.60132e-09
3.93107e-09
3.57119e-09
2.90275e-09
4.45924e-09
2.73731e-09
4.08427e-09
2.86447e-09
2.61833e-09
2.69272e-09
4.25296e-09
3.88585e-09
5.0548e-09
3.68942e-09
4.88095e-09
3.86277e-09
3.77161e-09
3.44115e-09
2.60965e-09
2.53348e-09
2.45027e-09
2.34587e-09
3.55421e-09
3.25931e-09
2.68529e-09
4.00476e-09
2.53897e-09
3.82607e-09
2.6383e-09
2.42344e-09
2.48528e-09
3.85901e-09
3.56203e-09
4.82646e-09
3.39666e-09
4.67387e-09
3.5733e-09
3.42826e-09
3.14493e-09
2.40145e-09
2.29732e-09
2.26844e-09
2.17699e-09
3.24768e-09
2.98723e-09
2.49392e-09
3.77645e-09
2.36927e-09
3.6446e-09
2.43881e-09
2.25791e-09
2.31323e-09
3.53942e-09
3.28827e-09
4.62382e-09
3.14087e-09
4.47317e-09
3.33012e-09
3.13485e-09
2.88124e-09
2.22841e-09
2.14329e-09
2.12239e-09
2.05546e-09
2.97785e-09
2.74166e-09
2.33143e-09
3.61042e-09
2.23008e-09
3.54005e-09
2.27593e-09
2.12404e-09
2.17525e-09
3.271e-09
3.08187e-09
4.42281e-09
2.91969e-09
4.23798e-09
3.11461e-09
2.87438e-09
2.66157e-09
2.09233e-09
2.02963e-09
2.01413e-09
1.96031e-09
2.73563e-09
2.53683e-09
2.2005e-09
3.5231e-09
2.12465e-09
3.49684e-09
2.14524e-09
2.02184e-09
2.06639e-09
3.06989e-09
2.92227e-09
4.15827e-09
2.74804e-09
3.86089e-09
2.85676e-09
2.65826e-09
2.48741e-09
1.99287e-09
1.94048e-09
1.94354e-09
1.89159e-09
2.53396e-09
2.37399e-09
2.10472e-09
3.49705e-09
2.05411e-09
3.50817e-09
2.04425e-09
1.94825e-09
1.99054e-09
2.91459e-09
2.80359e-09
3.74156e-09
2.62412e-09
3.38087e-09
2.63115e-09
2.48764e-09
2.35524e-09
1.93168e-09
1.87891e-09
1.90563e-09
1.85726e-09
2.37459e-09
2.25184e-09
2.04171e-09
3.52133e-09
2.016e-09
3.58737e-09
1.97624e-09
1.9064e-09
1.9493e-09
2.80049e-09
2.73158e-09
3.27427e-09
2.5435e-09
3.02032e-09
2.48734e-09
2.35825e-09
2.26182e-09
1.90175e-09
1.85286e-09
1.89833e-09
1.85554e-09
2.25519e-09
2.165e-09
2.01126e-09
3.61577e-09
2.00855e-09
3.70917e-09
1.94459e-09
1.89531e-09
1.94346e-09
2.73276e-09
2.69452e-09
2.95358e-09
2.49884e-09
2.77651e-09
2.37009e-09
2.26818e-09
2.20432e-09
1.9007e-09
1.86092e-09
1.92415e-09
1.88778e-09
2.1714e-09
2.11437e-09
2.01126e-09
3.75044e-09
2.03436e-09
3.9469e-09
1.94658e-09
1.91848e-09
1.97221e-09
2.70154e-09
2.69269e-09
2.72206e-09
2.48473e-09
2.56038e-09
2.26155e-09
2.21665e-09
2.18813e-09
1.93693e-09
1.90226e-09
1.99002e-09
1.96159e-09
2.12693e-09
2.10227e-09
2.04683e-09
4.02249e-09
2.09973e-09
4.17657e-09
1.98432e-09
1.97843e-09
2.0444e-09
2.70481e-09
2.67524e-09
2.51569e-09
2.50951e-09
2.41399e-09
2.20711e-09
2.20852e-09
2.22141e-09
2.01275e-09
1.98698e-09
2.10724e-09
2.07867e-09
2.12328e-09
2.14215e-09
2.12031e-09
4.20435e-09
2.21757e-09
4.25185e-09
2.06986e-09
2.09171e-09
2.16855e-09
2.68869e-09
2.71861e-09
2.39429e-09
2.59818e-09
2.3943e-09
2.23161e-09
2.25461e-09
2.31886e-09
2.14232e-09
2.12041e-09
2.29301e-09
2.26803e-09
2.17567e-09
2.24334e-09
2.25511e-09
4.27479e-09
2.40437e-09
4.43946e-09
2.21052e-09
2.27619e-09
2.36237e-09
2.75779e-09
2.8864e-09
2.40414e-09
2.76393e-09
2.49128e-09
2.32397e-09
2.37232e-09
2.51671e-09
2.34932e-09
2.32703e-09
2.57916e-09
2.5387e-09
2.29853e-09
2.43844e-09
2.46177e-09
4.47604e-09
2.69533e-09
4.76582e-09
2.42418e-09
2.55043e-09
2.65021e-09
2.95402e-09
3.16058e-09
2.5454e-09
3.06107e-09
2.75714e-09
2.52085e-09
2.60836e-09
2.87417e-09
2.67759e-09
2.64128e-09
3.0274e-09
2.98779e-09
2.5277e-09
2.7993e-09
2.79339e-09
4.83448e-09
3.1286e-09
5.14071e-09
2.73947e-09
2.99663e-09
3.09377e-09
3.25623e-09
3.46268e-09
2.85248e-09
3.47947e-09
3.18721e-09
2.88306e-09
3.02838e-09
3.50212e-09
3.17838e-09
3.12847e-09
3.67844e-09
3.64871e-09
2.95568e-09
3.4465e-09
3.275e-09
5.44882e-09
3.82387e-09
5.68206e-09
3.22427e-09
3.66437e-09
3.76047e-09
3.59162e-09
3.97867e-09
3.32311e-09
4.1184e-09
3.85346e-09
3.51547e-09
3.7625e-09
4.62822e-09
3.92005e-09
3.861e-09
4.70384e-09
4.6382e-09
3.70003e-09
4.50477e-09
4.06509e-09
5.67438e-09
4.77958e-09
5.87826e-09
3.98875e-09
4.64367e-09
4.75203e-09
4.19412e-09
4.58776e-09
4.05657e-09
4.95059e-09
4.87665e-09
4.61604e-09
5.0676e-09
6.52682e-09
5.05502e-09
4.96761e-09
6.14811e-09
6.20278e-09
4.93147e-09
6.60167e-09
5.14485e-09
6.2804e-09
6.35327e-09
7.66038e-09
5.08917e-09
6.21399e-09
6.25362e-09
4.93235e-09
6.93437e-09
5.16831e-09
6.71165e-09
6.3668e-09
6.52932e-09
7.12286e-09
1.01181e-08
6.5989e-09
6.68151e-09
8.559e-09
8.29212e-09
7.32006e-09
9.67139e-09
6.80961e-09
8.12069e-09
8.65719e-09
9.00378e-09
6.76032e-09
8.23798e-09
8.45339e-09
7.77475e-09
9.73551e-09
6.91196e-09
8.53089e-09
8.42985e-09
9.88743e-09
1.1337e-08
1.54554e-08
9.23435e-09
8.97789e-09
1.15354e-08
1.1653e-08
1.07327e-08
1.61366e-08
9.33203e-09
9.50842e-09
1.16969e-08
1.18445e-08
9.27513e-09
1.1643e-08
1.15575e-08
1.06668e-08
1.6167e-08
9.2537e-09
1.21e-08
1.17349e-08
1.59159e-08
1.72087e-08
2.56651e-08
1.24531e-08
1.26051e-08
1.61761e-08
1.62765e-08
1.80187e-08
2.59925e-08
1.26502e-08
1.26862e-08
1.63072e-08
1.58943e-08
1.26569e-08
1.61764e-08
1.62527e-08
1.79935e-08
2.45999e-08
1.25563e-08
1.61131e-08
1.65366e-08
2.60017e-08
2.88134e-08
4.21483e-08
1.76111e-08
1.75743e-08
2.24448e-08
2.22256e-08
2.90393e-08
4.11329e-08
1.77709e-08
1.74644e-08
2.25464e-08
2.24049e-08
1.70198e-08
2.20225e-08
2.31819e-08
2.76328e-08
4.21401e-08
1.76034e-08
2.31867e-08
2.29021e-08
4.23677e-08
4.63255e-08
6.52871e-08
2.43304e-08
2.43611e-08
3.03875e-08
3.04937e-08
4.54708e-08
6.68608e-08
2.44485e-08
2.42821e-08
3.05927e-08
3.07579e-08
2.55199e-08
3.01652e-08
2.90388e-08
4.6346e-08
6.52956e-08
2.56623e-08
3.05305e-08
2.98256e-08
6.13366e-08
7.11482e-08
1.01053e-07
3.27417e-08
3.28083e-08
4.15789e-08
4.21781e-08
7.25408e-08
1.02384e-07
3.2951e-08
3.29579e-08
4.17508e-08
4.20059e-08
3.08086e-08
4.17611e-08
4.57905e-08
7.14711e-08
1.0097e-07
3.1221e-08
4.19686e-08
4.67562e-08
1.17736e-07
1.09976e-07
1.48116e-07
4.49204e-08
4.51756e-08
5.45431e-08
5.43678e-08
1.11608e-07
1.4422e-07
4.50429e-08
4.52495e-08
5.47061e-08
5.46909e-08
4.90795e-08
5.36976e-08
5.29527e-08
1.10025e-07
1.46904e-07
4.99519e-08
5.42111e-08
5.33386e-08
1.42839e-07
1.57983e-07
2.05744e-07
5.838e-08
5.79828e-08
7.13151e-08
7.10952e-08
1.53396e-07
2.05208e-07
5.85068e-08
5.8943e-08
7.13429e-08
7.10416e-08
5.48604e-08
7.03798e-08
7.44983e-08
1.56758e-07
2.04503e-07
5.59611e-08
7.03503e-08
7.52053e-08
2.09562e-07
2.19003e-07
2.73015e-07
7.55742e-08
7.59735e-08
9.01032e-08
9.13144e-08
2.19326e-07
2.7831e-07
7.57179e-08
7.46659e-08
9.00548e-08
9.07513e-08
7.9426e-08
9.04822e-08
8.87452e-08
2.17403e-07
2.70821e-07
8.01672e-08
9.11649e-08
9.26297e-08
2.66751e-07
2.86854e-07
3.50381e-07
9.56944e-08
9.66177e-08
1.11343e-07
1.1179e-07
2.9315e-07
3.47568e-07
9.55885e-08
9.68135e-08
1.11548e-07
1.13183e-07
9.36874e-08
1.10695e-07
1.09971e-07
2.86583e-07
3.53432e-07
9.75264e-08
1.10932e-07
1.07154e-07
3.30511e-07
3.66741e-07
4.27647e-07
1.17536e-07
1.17041e-07
1.38382e-07
1.37834e-07
3.61576e-07
4.25437e-07
1.1763e-07
1.18788e-07
1.38503e-07
1.3676e-07
1.17049e-07
1.36649e-07
1.45234e-07
3.67407e-07
4.2419e-07
1.10951e-07
1.37709e-07
1.44813e-07
4.47854e-07
4.44048e-07
5.03552e-07
1.44525e-07
1.45879e-07
1.66714e-07
1.67077e-07
4.43144e-07
5.05577e-07
1.44445e-07
1.43988e-07
1.66432e-07
1.68323e-07
1.53958e-07
1.66238e-07
1.68183e-07
4.41815e-07
5.05326e-07
1.57399e-07
1.69532e-07
1.76988e-07
5.11272e-07
5.17908e-07
5.68769e-07
1.75034e-07
1.74013e-07
1.95067e-07
1.97709e-07
5.20326e-07
5.69402e-07
1.75378e-07
1.75055e-07
1.95412e-07
1.97727e-07
1.71744e-07
1.96319e-07
1.92912e-07
5.2011e-07
5.7285e-07
1.80519e-07
1.97723e-07
1.93897e-07
5.49992e-07
5.84796e-07
6.40503e-07
2.02649e-07
2.06233e-07
2.35364e-07
2.32571e-07
5.84129e-07
6.38268e-07
2.02436e-07
2.07719e-07
2.35196e-07
2.32461e-07
2.02093e-07
2.31105e-07
2.35239e-07
5.87703e-07
6.33776e-07
2.00764e-07
2.33131e-07
2.34591e-07
6.4309e-07
6.53744e-07
6.91098e-07
2.46977e-07
2.42986e-07
2.67539e-07
2.7335e-07
6.53682e-07
6.9579e-07
2.46983e-07
2.39582e-07
2.67667e-07
2.72145e-07
2.47574e-07
2.72219e-07
2.72707e-07
6.48794e-07
7.01874e-07
2.46945e-07
2.7794e-07
2.72668e-07
6.96133e-07
7.03237e-07
7.43912e-07
2.74184e-07
2.81544e-07
3.09906e-07
3.06946e-07
7.06892e-07
7.40842e-07
2.74288e-07
2.85209e-07
3.10621e-07
3.15108e-07
2.78197e-07
3.05292e-07
3.12387e-07
7.14316e-07
7.42591e-07
2.79588e-07
3.23746e-07
3.13369e-07
7.47386e-07
7.584e-07
7.9574e-07
3.22373e-07
3.17772e-07
3.57311e-07
3.5744e-07
7.54324e-07
7.94494e-07
3.22945e-07
3.20162e-07
3.57414e-07
3.45772e-07
3.25766e-07
3.5628e-07
3.55126e-07
7.52527e-07
7.87978e-07
3.27465e-07
3.46763e-07
3.56349e-07
7.92977e-07
8.05329e-07
8.28752e-07
3.68188e-07
3.69564e-07
3.94925e-07
3.96242e-07
8.05341e-07
8.2993e-07
3.6839e-07
3.62733e-07
3.94312e-07
4.09945e-07
3.63867e-07
3.95272e-07
3.97719e-07
8.02154e-07
8.36545e-07
3.62257e-07
4.11531e-07
3.96138e-07
8.30981e-07
8.38721e-07
8.71e-07
4.04644e-07
4.06046e-07
4.45138e-07
4.44304e-07
8.39644e-07
8.69272e-07
4.04507e-07
4.19675e-07
4.46984e-07
4.3652e-07
4.11252e-07
4.42811e-07
4.43533e-07
8.4488e-07
8.63839e-07
4.11599e-07
4.43773e-07
4.45046e-07
8.68964e-07
8.81576e-07
9.0439e-07
4.58449e-07
4.57817e-07
4.91797e-07
4.92386e-07
8.79791e-07
9.06443e-07
4.60574e-07
4.47162e-07
4.92556e-07
4.95218e-07
4.52694e-07
4.90275e-07
4.947e-07
8.7374e-07
9.08147e-07
4.54542e-07
4.93963e-07
4.99596e-07
9.09449e-07
9.12475e-07
9.36844e-07
5.03345e-07
5.03284e-07
5.37821e-07
5.47149e-07
9.1568e-07
9.40531e-07
5.0326e-07
5.09306e-07
5.39483e-07
5.46188e-07
5.11829e-07
5.46818e-07
5.47852e-07
9.1836e-07
9.39281e-07
5.16992e-07
5.47151e-07
5.5628e-07
9.42022e-07
9.46536e-07
9.70826e-07
5.50589e-07
5.59902e-07
5.91325e-07
5.82933e-07
9.48581e-07
9.64815e-07
5.52993e-07
5.54764e-07
5.89867e-07
5.85806e-07
5.53738e-07
5.81384e-07
5.85157e-07
9.46705e-07
9.66475e-07
5.63445e-07
5.83961e-07
5.80597e-07
9.64347e-07
9.78382e-07
9.97287e-07
6.03015e-07
5.94181e-07
6.36205e-07
6.39455e-07
9.72379e-07
9.99158e-07
6.00222e-07
6.01599e-07
6.38268e-07
6.36978e-07
6.01622e-07
6.38207e-07
6.34462e-07
9.74786e-07
9.98194e-07
5.92431e-07
6.36145e-07
6.31282e-07
9.96437e-07
1.00496e-06
1.02681e-06
6.47744e-07
6.51045e-07
6.80876e-07
6.83153e-07
1.008e-06
1.02802e-06
6.52042e-07
6.45112e-07
6.80881e-07
6.8651e-07
6.42145e-07
6.81359e-07
6.8039e-07
1.00608e-06
1.03091e-06
6.44344e-07
6.85813e-07
6.88971e-07
1.02861e-06
1.03491e-06
1.05918e-06
6.93852e-07
6.97341e-07
7.37574e-07
7.37935e-07
1.036e-06
1.06067e-06
6.90458e-07
7.03238e-07
7.34766e-07
7.4001e-07
6.96685e-07
7.37896e-07
7.44855e-07
1.03991e-06
1.05818e-06
7.01589e-07
7.38044e-07
7.37033e-07
1.06412e-06
1.0665e-06
1.08003e-06
7.49091e-07
7.47351e-07
7.67288e-07
7.70669e-07
1.06727e-06
1.08039e-06
7.49401e-07
7.46834e-07
7.72503e-07
7.63493e-07
7.5789e-07
7.70791e-07
7.79674e-07
1.06313e-06
1.07613e-06
7.48302e-07
7.61845e-07
7.6885e-07
1.0829e-06
1.08601e-06
1.11756e-06
7.74229e-07
7.80041e-07
8.19094e-07
8.19584e-07
1.0868e-06
1.11231e-06
7.8052e-07
7.75462e-07
8.26302e-07
8.24135e-07
7.83857e-07
8.19165e-07
8.13029e-07
1.08364e-06
1.11494e-06
7.76838e-07
8.22977e-07
8.16607e-07
1.10772e-06
1.12699e-06
1.13756e-06
8.34754e-07
8.32847e-07
8.63531e-07
8.56865e-07
1.1204e-06
1.13667e-06
8.40093e-07
8.3732e-07
8.62646e-07
8.61566e-07
8.25632e-07
8.54606e-07
8.58111e-07
1.12225e-06
1.13529e-06
8.29186e-07
8.56528e-07
8.5654e-07
1.13943e-06
1.1399e-06
1.14693e-06
8.6776e-07
8.63952e-07
8.80333e-07
8.96285e-07
1.14207e-06
1.1629e-06
8.66225e-07
8.65546e-07
8.75667e-07
8.90053e-07
8.68979e-07
8.9879e-07
9.00912e-07
1.13978e-06
1.15965e-06
8.65648e-07
8.91746e-07
8.96778e-07
1.16288e-06
1.15482e-06
1.19888e-06
8.92609e-07
9.06321e-07
9.40502e-07
9.28869e-07
1.17043e-06
1.18549e-06
8.8462e-07
9.05286e-07
9.3811e-07
9.44345e-07
9.08518e-07
9.27614e-07
9.24822e-07
1.1701e-06
1.19751e-06
9.04778e-07
9.36276e-07
9.22941e-07
1.18396e-06
1.20716e-06
1.21637e-06
9.5049e-07
9.36996e-07
9.62717e-07
9.63766e-07
1.19047e-06
1.21172e-06
9.52718e-07
9.51606e-07
9.74316e-07
9.67113e-07
9.34445e-07
9.63702e-07
9.70667e-07
1.20211e-06
1.20879e-06
9.326e-07
9.60021e-07
9.68811e-07
1.21667e-06
1.21918e-06
1.22947e-06
9.67087e-07
9.73077e-07
9.94017e-07
9.99224e-07
1.21985e-06
1.23826e-06
9.77589e-07
9.72342e-07
9.9204e-07
9.84439e-07
9.79501e-07
1.00099e-06
9.95287e-07
1.21295e-06
1.22339e-06
9.78015e-07
9.8779e-07
9.9471e-07
1.23098e-06
1.23461e-06
1.24551e-06
1.00096e-06
1.00554e-06
1.01367e-06
1.01524e-06
1.24214e-06
1.24531e-06
9.95847e-07
9.89227e-07
1.00853e-06
1.01957e-06
9.98662e-07
1.01497e-06
1.00946e-06
1.22784e-06
1.25405e-06
9.98253e-07
1.01985e-06
1.00874e-06
1.24284e-06
1.25166e-06
1.28434e-06
1.02195e-06
1.01714e-06
1.05412e-06
1.04042e-06
1.24822e-06
1.26898e-06
1.01921e-06
1.03245e-06
1.05728e-06
1.05774e-06
1.01778e-06
1.04055e-06
1.05521e-06
1.26444e-06
1.28612e-06
1.01705e-06
1.05701e-06
1.05565e-06
1.28526e-06
1.29072e-06
1.29525e-06
1.06202e-06
1.05511e-06
1.07428e-06
1.08647e-06
1.27984e-06
1.30854e-06
1.06512e-06
1.0611e-06
1.07515e-06
1.06729e-06
1.06483e-06
1.08663e-06
1.07954e-06
1.2887e-06
1.28361e-06
1.06501e-06
1.06717e-06
1.07753e-06
1.30049e-06
1.29684e-06
1.30309e-06
1.07601e-06
1.08964e-06
1.08725e-06
1.09091e-06
1.3118e-06
1.3059e-06
1.0766e-06
1.06907e-06
1.0848e-06
1.08433e-06
1.08145e-06
1.09014e-06
1.08582e-06
1.2851e-06
1.30287e-06
1.07908e-06
1.08533e-06
1.08396e-06
1.29969e-06
1.31059e-06
1.33529e-06
1.0955e-06
1.09142e-06
1.11748e-06
1.10249e-06
1.30717e-06
1.31709e-06
1.09292e-06
1.09569e-06
1.12176e-06
1.12396e-06
1.09033e-06
1.10109e-06
1.1139e-06
1.31373e-06
1.34016e-06
1.08928e-06
1.12316e-06
1.11913e-06
1.33282e-06
1.33933e-06
1.34157e-06
1.12156e-06
1.11431e-06
1.13139e-06
1.14503e-06
1.32657e-06
1.35648e-06
1.12701e-06
1.12823e-06
1.13233e-06
1.13291e-06
1.11996e-06
1.14446e-06
1.13601e-06
1.34313e-06
1.34018e-06
1.12506e-06
1.13086e-06
1.1336e-06
1.34515e-06
1.34436e-06
1.35761e-06
1.13645e-06
1.14902e-06
1.15443e-06
1.15204e-06
1.36037e-06
1.3578e-06
1.13434e-06
1.13446e-06
1.14948e-06
1.14943e-06
1.1409e-06
1.15219e-06
1.15003e-06
1.34221e-06
1.35834e-06
1.13682e-06
1.15034e-06
1.14672e-06
1.35569e-06
1.36296e-06
1.37452e-06
1.15845e-06
1.15252e-06
1.1677e-06
1.15956e-06
1.35914e-06
1.3664e-06
1.15487e-06
1.15589e-06
1.17116e-06
1.17179e-06
1.15305e-06
1.16161e-06
1.17121e-06
1.36486e-06
1.37654e-06
1.15135e-06
1.17098e-06
1.17343e-06
1.37838e-06
1.37924e-06
1.38882e-06
1.17261e-06
1.16822e-06
1.18713e-06
1.19282e-06
1.37431e-06
1.39567e-06
1.17682e-06
1.17611e-06
1.18767e-06
1.18383e-06
1.17831e-06
1.19392e-06
1.19079e-06
1.38002e-06
1.38358e-06
1.1801e-06
1.18305e-06
1.18866e-06
1.39075e-06
1.39164e-06
1.39946e-06
1.19001e-06
1.19616e-06
1.2002e-06
1.19846e-06
1.39826e-06
1.39307e-06
1.18889e-06
1.18516e-06
1.19839e-06
1.19935e-06
1.19198e-06
1.19715e-06
1.19363e-06
1.38602e-06
1.39969e-06
1.18909e-06
1.19788e-06
1.19125e-06
1.38825e-06
1.40547e-06
1.41783e-06
1.20502e-06
1.19907e-06
1.2175e-06
1.21166e-06
1.39473e-06
1.41506e-06
1.20577e-06
1.20733e-06
1.22044e-06
1.22296e-06
1.19513e-06
1.21042e-06
1.21637e-06
1.40763e-06
1.42296e-06
1.19414e-06
1.22305e-06
1.22181e-06
1.42227e-06
1.41998e-06
1.41806e-06
1.22016e-06
1.22291e-06
1.22514e-06
1.23981e-06
1.42542e-06
1.43989e-06
1.22174e-06
1.22428e-06
1.22325e-06
1.22509e-06
1.22549e-06
1.24117e-06
1.23861e-06
1.42497e-06
1.41898e-06
1.22913e-06
1.2277e-06
1.23535e-06
1.43457e-06
1.4212e-06
1.43823e-06
1.22837e-06
1.23995e-06
1.24241e-06
1.23571e-06
1.44084e-06
1.42493e-06
1.2245e-06
1.2257e-06
1.23988e-06
1.23708e-06
1.23885e-06
1.2358e-06
1.23525e-06
1.42051e-06
1.43307e-06
1.23515e-06
1.23507e-06
1.23144e-06
1.42269e-06
1.4437e-06
1.44842e-06
1.24588e-06
1.23512e-06
1.25e-06
1.23813e-06
1.42585e-06
1.43118e-06
1.24654e-06
1.24459e-06
1.256e-06
1.25607e-06
1.23394e-06
1.23641e-06
1.23542e-06
1.43995e-06
1.44955e-06
1.23117e-06
1.25283e-06
1.23665e-06
1.43046e-06
1.45031e-06
1.45821e-06
1.25061e-06
1.24481e-06
1.2606e-06
1.27466e-06
1.43918e-06
1.47808e-06
1.25663e-06
1.25675e-06
1.2622e-06
1.25941e-06
1.24101e-06
1.27704e-06
1.27996e-06
1.45134e-06
1.45441e-06
1.24679e-06
1.25923e-06
1.2787e-06
1.48382e-06
1.46405e-06
1.47126e-06
1.26845e-06
1.28003e-06
1.27986e-06
1.2813e-06
1.48386e-06
1.47456e-06
1.2663e-06
1.2631e-06
1.27319e-06
1.27969e-06
1.2857e-06
1.28226e-06
1.28486e-06
1.45987e-06
1.47912e-06
1.28343e-06
1.28292e-06
1.28287e-06
1.47605e-06
1.47211e-06
1.45868e-06
1.2797e-06
1.27817e-06
1.27403e-06
1.27115e-06
1.47355e-06
1.45509e-06
1.2731e-06
1.28069e-06
1.27032e-06
1.27531e-06
1.2782e-06
1.26797e-06
1.26353e-06
1.48136e-06
1.46338e-06
1.27742e-06
1.27572e-06
1.26325e-06
1.44402e-06
1.45994e-06
1.47611e-06
1.27345e-06
1.27122e-06
1.27711e-06
1.28075e-06
1.45748e-06
1.4808e-06
1.2703e-06
1.27316e-06
1.28014e-06
1.27422e-06
1.26354e-06
1.28211e-06
1.2793e-06
1.46368e-06
1.46539e-06
1.2631e-06
1.27291e-06
1.27595e-06
1.4782e-06
1.48604e-06
1.50641e-06
1.28432e-06
1.28795e-06
1.30362e-06
1.3e-06
1.4891e-06
1.49693e-06
1.2911e-06
1.27894e-06
1.307e-06
1.30677e-06
1.29188e-06
1.30054e-06
1.308e-06
1.47331e-06
1.50741e-06
1.28881e-06
1.30524e-06
1.30888e-06
1.51144e-06
1.50793e-06
1.48814e-06
1.30446e-06
1.30032e-06
1.29932e-06
1.29856e-06
1.49782e-06
1.48919e-06
1.30691e-06
1.30904e-06
1.29682e-06
1.30444e-06
1.30791e-06
1.29693e-06
1.30066e-06
1.51105e-06
1.4972e-06
1.30913e-06
1.30565e-06
1.30208e-06
1.49341e-06
1.48842e-06
1.48525e-06
1.29668e-06
1.29827e-06
1.29537e-06
1.29983e-06
1.49066e-06
1.49701e-06
1.29359e-06
1.29997e-06
1.29251e-06
1.29537e-06
1.29865e-06
1.30052e-06
1.29763e-06
1.49719e-06
1.48727e-06
1.29913e-06
1.29757e-06
1.29682e-06
1.4898e-06
1.49012e-06
1.51758e-06
1.29645e-06
1.30194e-06
1.31441e-06
1.30886e-06
1.50108e-06
1.50619e-06
1.29412e-06
1.29567e-06
1.31507e-06
1.30703e-06
1.29823e-06
1.30814e-06
1.30674e-06
1.49026e-06
1.50644e-06
1.29722e-06
1.30637e-06
1.30526e-06
1.50281e-06
1.52374e-06
1.52193e-06
1.31967e-06
1.31027e-06
1.32144e-06
1.31066e-06
1.50787e-06
1.50349e-06
1.32081e-06
1.31346e-06
1.32344e-06
1.32083e-06
1.30892e-06
1.3076e-06
1.30851e-06
1.51256e-06
1.51914e-06
1.30841e-06
1.31809e-06
1.31036e-06
1.50303e-06
1.52219e-06
1.50197e-06
1.31876e-06
1.31054e-06
1.30832e-06
1.31376e-06
1.505e-06
1.51432e-06
1.32156e-06
1.32059e-06
1.30838e-06
1.31322e-06
1.30674e-06
1.30963e-06
1.30648e-06
1.52034e-06
1.50946e-06
1.30964e-06
1.31293e-06
1.31018e-06
1.50759e-06
1.5029e-06
1.50841e-06
1.30782e-06
1.31781e-06
1.31278e-06
1.32983e-06
1.52043e-06
1.53673e-06
1.30636e-06
1.31089e-06
1.30703e-06
1.31012e-06
1.30968e-06
1.33048e-06
1.33481e-06
1.51044e-06
1.51092e-06
1.31367e-06
1.31331e-06
1.33135e-06
1.54271e-06
1.51517e-06
1.53323e-06
1.32011e-06
1.33161e-06
1.33069e-06
1.33094e-06
1.53991e-06
1.53272e-06
1.31031e-06
1.31166e-06
1.32784e-06
1.32874e-06
1.33915e-06
1.33445e-06
1.34017e-06
1.51588e-06
1.53417e-06
1.33422e-06
1.33066e-06
1.33434e-06
1.54108e-06
1.53572e-06
1.52112e-06
1.3306e-06
1.32812e-06
1.31978e-06
1.30811e-06
1.53298e-06
1.50201e-06
1.32947e-06
1.3313e-06
1.32622e-06
1.32942e-06
1.33761e-06
1.31295e-06
1.31409e-06
1.5375e-06
1.52662e-06
1.33167e-06
1.32522e-06
1.31323e-06
1.50579e-06
1.52066e-06
1.50437e-06
1.31353e-06
1.30222e-06
1.30427e-06
1.29529e-06
1.50122e-06
1.487e-06
1.32088e-06
1.32428e-06
1.30892e-06
1.30819e-06
1.30681e-06
1.29479e-06
1.29469e-06
1.52601e-06
1.50357e-06
1.30824e-06
1.30625e-06
1.30041e-06
1.49016e-06
1.50595e-06
1.52407e-06
1.30421e-06
1.29551e-06
1.31602e-06
1.31377e-06
1.48971e-06
1.51969e-06
1.30819e-06
1.3066e-06
1.31288e-06
1.30974e-06
1.29397e-06
1.30762e-06
1.30078e-06
1.50462e-06
1.51763e-06
1.30001e-06
1.31151e-06
1.30693e-06
1.50935e-06
1.53296e-06
1.54954e-06
1.32507e-06
1.32453e-06
1.33865e-06
1.34356e-06
1.53125e-06
1.55926e-06
1.32072e-06
1.31779e-06
1.33569e-06
1.33692e-06
1.3134e-06
1.34364e-06
1.34498e-06
1.52762e-06
1.55111e-06
1.31774e-06
1.33808e-06
1.34305e-06
1.56012e-06
1.55158e-06
1.5316e-06
1.33889e-06
1.34456e-06
1.33108e-06
1.33953e-06
1.56283e-06
1.54912e-06
1.33616e-06
1.33732e-06
1.32906e-06
1.32623e-06
1.34823e-06
1.34241e-06
1.34558e-06
1.55313e-06
1.52425e-06
1.34518e-06
1.32523e-06
1.34087e-06
1.55384e-06
1.52982e-06
1.49979e-06
1.32238e-06
1.33054e-06
1.30055e-06
1.29934e-06
1.54699e-06
1.4977e-06
1.32068e-06
1.31744e-06
1.30182e-06
1.30522e-06
1.33796e-06
1.30173e-06
1.29942e-06
1.52219e-06
1.50361e-06
1.33148e-06
1.30439e-06
1.29816e-06
1.49454e-06
1.50076e-06
1.51568e-06
1.29829e-06
1.29419e-06
1.30122e-06
1.2931e-06
1.4974e-06
1.49557e-06
1.30043e-06
1.30527e-06
1.30547e-06
1.31878e-06
1.29224e-06
1.2911e-06
1.28941e-06
1.50707e-06
1.53791e-06
1.29365e-06
1.31813e-06
1.29433e-06
1.49435e-06
1.526e-06
1.5493e-06
1.30962e-06
1.29702e-06
1.33043e-06
1.32703e-06
1.50301e-06
1.54338e-06
1.31458e-06
1.32436e-06
1.32853e-06
1.32644e-06
1.29268e-06
1.32331e-06
1.32832e-06
1.5454e-06
1.54357e-06
1.30054e-06
1.32708e-06
1.33154e-06
1.55188e-06
1.55153e-06
1.52696e-06
1.33116e-06
1.33123e-06
1.32288e-06
1.3302e-06
1.5498e-06
1.54648e-06
1.32853e-06
1.32398e-06
1.31546e-06
1.29694e-06
1.33397e-06
1.33115e-06
1.33256e-06
1.54274e-06
1.49332e-06
1.33399e-06
1.29758e-06
1.32741e-06
1.54425e-06
1.52454e-06
1.4881e-06
1.31279e-06
1.32492e-06
1.28476e-06
1.29024e-06
1.54586e-06
1.49735e-06
1.30536e-06
1.28903e-06
1.28323e-06
1.28109e-06
1.32496e-06
1.29267e-06
1.28334e-06
1.49181e-06
1.48059e-06
1.31413e-06
1.27838e-06
1.27707e-06
1.47924e-06
1.48876e-06
1.503e-06
1.28077e-06
1.28219e-06
1.28182e-06
1.27765e-06
1.49614e-06
1.48835e-06
1.28138e-06
1.28175e-06
1.28719e-06
1.31138e-06
1.27739e-06
1.2786e-06
1.27955e-06
1.48635e-06
1.545e-06
1.27399e-06
1.30984e-06
1.28265e-06
1.49905e-06
1.51636e-06
1.5643e-06
1.28942e-06
1.28083e-06
1.32722e-06
1.32131e-06
1.49591e-06
1.55308e-06
1.30074e-06
1.32567e-06
1.3306e-06
1.33983e-06
1.29157e-06
1.32138e-06
1.33365e-06
1.56132e-06
1.58396e-06
1.30229e-06
1.34204e-06
1.33903e-06
1.57859e-06
1.56856e-06
1.52537e-06
1.33026e-06
1.32707e-06
1.31948e-06
1.321e-06
1.56026e-06
1.5351e-06
1.33167e-06
1.3388e-06
1.31194e-06
1.28935e-06
1.33508e-06
1.31837e-06
1.30928e-06
1.58442e-06
1.48463e-06
1.33935e-06
1.28908e-06
1.30192e-06
1.50625e-06
1.51594e-06
1.42746e-06
1.29734e-06
1.30356e-06
1.23465e-06
1.23945e-06
1.52721e-06
1.43871e-06
1.28577e-06
1.26184e-06
1.22837e-06
1.21829e-06
1.27898e-06
1.23809e-06
1.22559e-06
1.47223e-06
1.40674e-06
1.27033e-06
1.21959e-06
1.22176e-06
1.41263e-06
1.42755e-06
1.46455e-06
1.22877e-06
1.23312e-06
1.23665e-06
1.23989e-06
1.43873e-06
1.46888e-06
1.22429e-06
1.21759e-06
1.23742e-06
1.25252e-06
1.22413e-06
1.24184e-06
1.25324e-06
1.40838e-06
1.49357e-06
1.22119e-06
1.25718e-06
1.25933e-06
1.4957e-06
1.4887e-06
1.56352e-06
1.25901e-06
1.26004e-06
1.31329e-06
1.30821e-06
1.48986e-06
1.55147e-06
1.26531e-06
1.28654e-06
1.319e-06
1.3318e-06
1.28244e-06
1.30777e-06
1.3193e-06
1.52365e-06
1.58809e-06
1.28977e-06
1.32993e-06
1.32472e-06
1.57653e-06
1.56759e-06
1.50833e-06
1.31612e-06
1.31056e-06
1.27897e-06
1.2744e-06
1.55481e-06
1.50008e-06
1.32132e-06
1.33246e-06
1.27923e-06
1.27167e-06
1.31967e-06
1.27325e-06
1.2653e-06
1.59017e-06
1.4928e-06
1.32466e-06
1.2676e-06
1.26144e-06
1.4836e-06
1.47022e-06
1.22421e-06
1.22153e-06
1.46547e-06
1.22265e-06
1.21112e-06
7.82412e-07
7.77093e-07
7.74505e-07
1.20937e-06
1.45008e-06
1.20446e-06
1.13219e-10
2.39758e-09
1.49133e-10
2.34422e-10
5.41508e-09
3.50696e-09
2.70927e-09
9.89815e-10
5.3596e-09
4.15654e-09
1.15664e-09
7.4537e-09
5.2958e-09
1.99602e-09
3.50081e-09
7.74702e-09
1.6026e-07
6.44857e-09
2.53417e-07
1.51004e-06
2.98834e-06
8.59332e-09
1.57082e-07
7.37873e-09
2.48527e-07
1.19669e-09
1.62069e-09
1.44083e-09
1.20921e-09
1.18616e-09
1.60862e-09
1.42539e-09
4.87759e-09
7.42207e-08
2.68921e-09
3.2439e-09
5.03104e-09
5.33628e-08
2.66192e-09
2.10237e-06
4.11224e-06
4.66034e-09
3.31599e-09
8.41847e-08
4.64593e-09
4.90274e-09
3.27537e-09
6.22485e-08
2.09924e-07
2.14846e-07
4.88739e-09
1.78165e-07
1.84996e-07
1.68305e-08
4.51996e-07
1.22743e-08
6.55585e-07
6.91727e-06
9.55874e-06
1.80168e-08
4.46127e-07
1.35366e-08
6.47656e-07
1.1752e-09
1.58871e-09
1.40835e-09
1.15042e-09
1.13488e-09