/*--------------------------------*- C++ -*----------------------------------*\
| =========                 |                                                 |
| \\      /  F ield         | OpenFOAM: The Open Source CFD Toolbox           |
|  \\    /   O peration     | Version:  v2012                                 |
|   \\  /    A nd           | Website:  www.openfoam.com                      |
|    \\/     M anipulation  |                                                 |
\*---------------------------------------------------------------------------*/
FoamFile
{
    version     2.0;
    format      ascii;
    class       volScalarField;
    location    "1225";
    object      k;
}
// * * * * * * * * * * * * * * * * * * * * * * * * * * * * * * * * * * * * * //

dimensions      [0 2 -2 0 0 0 0];


internalField   nonuniform List<scalar> 
171728
(
1.47103e-07
2.58528e-07
3.17774e-07
3.61758e-07
1.46955e-07
2.46678e-07
3.04676e-07
3.39841e-07
1.43732e-07
2.34984e-07
2.92106e-07
3.19021e-07
1.40753e-07
2.24363e-07
2.80798e-07
3.01689e-07
1.37529e-07
2.14363e-07
2.70311e-07
2.8733e-07
1.34416e-07
2.05154e-07
2.60029e-07
2.77038e-07
1.31212e-07
1.96826e-07
2.4948e-07
2.69505e-07
1.28093e-07
1.89863e-07
2.3905e-07
2.65817e-07
1.25199e-07
1.84151e-07
2.29158e-07
2.62838e-07
1.22566e-07
1.79581e-07
2.20967e-07
2.59375e-07
1.20124e-07
1.75219e-07
2.14108e-07
2.49596e-07
1.17792e-07
1.70773e-07
2.07289e-07
2.20258e-07
1.15528e-07
1.67212e-07
2.04295e-07
2.01072e-07
1.13382e-07
1.65479e-07
2.06181e-07
1.92353e-07
1.11348e-07
1.66212e-07
2.12551e-07
1.89053e-07
1.09289e-07
1.70319e-07
2.20765e-07
1.90284e-07
1.07351e-07
1.8033e-07
2.28258e-07
1.97376e-07
1.05354e-07
1.97728e-07
2.41697e-07
2.14222e-07
1.03526e-07
2.26721e-07
2.6e-07
2.48638e-07
1.0198e-07
2.79229e-07
3.12321e-07
3.15398e-07
1.00483e-07
3.47654e-07
3.63962e-07
4.37945e-07
9.93923e-08
4.63895e-07
4.85479e-07
6.6997e-07
9.88973e-08
6.33361e-07
6.48321e-07
1.05864e-06
9.89303e-08
8.66171e-07
9.0584e-07
1.73582e-06
1.00018e-07
1.16317e-06
1.17524e-06
2.33432e-06
1.03578e-07
1.61286e-06
1.63232e-06
4.6448e-06
1.08766e-07
2.07531e-06
2.12162e-06
5.25298e-06
1.17959e-07
2.74072e-06
2.69562e-06
8.08252e-06
1.34781e-07
3.52305e-06
3.54412e-06
9.4613e-06
1.52674e-07
4.28675e-06
4.32222e-06
1.1895e-05
1.89395e-07
5.3798e-06
5.38544e-06
1.57841e-05
2.40006e-07
6.48488e-06
6.60323e-06
1.75327e-05
2.89601e-07
7.70313e-06
7.79042e-06
1.86589e-05
4.09826e-07
9.08126e-06
9.04944e-06
2.18244e-05
4.95781e-07
1.06511e-05
1.10858e-05
2.34582e-05
6.67988e-07
1.18781e-05
1.27182e-05
2.51158e-05
8.99457e-07
1.3984e-05
1.34314e-05
2.66166e-05
1.06777e-06
1.53136e-05
1.62356e-05
2.78703e-05
1.46151e-06
1.72434e-05
1.71276e-05
2.92218e-05
1.79237e-06
1.8922e-05
1.91832e-05
3.07407e-05
2.20154e-06
2.12204e-05
2.1106e-05
3.18833e-05
2.82325e-06
2.22396e-05
2.25113e-05
3.25927e-05
3.41943e-06
2.45062e-05
2.42992e-05
3.38807e-05
4.03126e-06
2.61533e-05
2.64683e-05
3.51549e-05
5.06338e-06
2.82893e-05
2.82414e-05
3.65564e-05
5.95117e-06
2.93397e-05
2.88777e-05
3.71757e-05
6.87861e-06
3.13835e-05
3.16521e-05
3.82109e-05
8.55408e-06
3.25151e-05
3.2646e-05
3.94e-05
8.88528e-06
3.44159e-05
3.41193e-05
4.04506e-05
1.039e-05
3.5405e-05
3.59025e-05
4.10769e-05
1.2894e-05
3.69089e-05
3.67438e-05
4.25978e-05
1.36619e-05
3.84901e-05
3.7681e-05
4.30736e-05
1.4516e-05
3.8878e-05
3.92283e-05
4.34482e-05
1.65035e-05
4.01525e-05
4.09928e-05
4.54129e-05
1.90527e-05
4.22337e-05
4.1292e-05
4.59019e-05
1.96558e-05
4.2392e-05
4.19174e-05
4.59016e-05
2.11875e-05
4.26913e-05
4.39477e-05
4.73991e-05
2.3211e-05
4.49055e-05
4.43035e-05
4.7879e-05
2.42221e-05
4.53299e-05
4.51267e-05
4.83419e-05
2.56915e-05
4.57228e-05
4.62625e-05
4.94449e-05
2.74629e-05
4.73566e-05
4.67929e-05
4.99513e-05
2.85225e-05
4.75682e-05
4.76358e-05
4.99146e-05
2.99871e-05
4.83354e-05
4.89825e-05
5.14913e-05
3.12096e-05
4.98879e-05
4.92252e-05
5.20194e-05
3.20513e-05
4.97121e-05
4.95201e-05
5.16241e-05
3.35802e-05
4.97834e-05
5.07018e-05
5.20635e-05
3.45724e-05
5.19986e-05
5.1132e-05
5.4353e-05
3.56233e-05
5.23544e-05
5.23083e-05
5.4189e-05
3.65217e-05
5.18217e-05
5.21452e-05
5.29454e-05
3.70793e-05
5.24925e-05
5.2132e-05
5.43384e-05
3.85547e-05
5.36476e-05
5.38452e-05
5.58612e-05
3.94749e-05
5.37664e-05
5.41337e-05
5.53709e-05
4.00971e-05
5.40405e-05
5.39269e-05
5.51904e-05
4.10694e-05
5.45205e-05
5.43548e-05
5.57905e-05
4.1857e-05
5.46244e-05
5.52012e-05
5.59687e-05
4.237e-05
5.51719e-05
5.527e-05
5.63463e-05
4.28045e-05
5.64625e-05
5.54718e-05
5.79585e-05
4.37582e-05
5.66334e-05
5.63917e-05
5.79381e-05
4.43131e-05
5.55261e-05
5.62638e-05
5.65264e-05
4.42664e-05
5.48818e-05
5.56304e-05
5.59638e-05
4.44052e-05
5.5968e-05
5.61593e-05
5.70085e-05
4.58459e-05
5.80921e-05
5.75696e-05
5.92246e-05
4.6324e-05
5.81407e-05
5.71246e-05
5.90941e-05
4.56064e-05
5.61236e-05
5.63348e-05
5.67722e-05
4.54726e-05
5.57123e-05
5.72626e-05
5.67337e-05
4.69054e-05
5.76739e-05
5.78038e-05
5.9213e-05
4.72666e-05
5.82278e-05
5.64123e-05
5.90813e-05
4.61493e-05
5.65766e-05
5.57365e-05
5.66507e-05
4.59761e-05
5.61332e-05
5.80817e-05
5.76256e-05
4.80695e-05
5.84222e-05
5.96356e-05
6.07097e-05
4.82903e-05
5.82246e-05
5.65681e-05
5.80736e-05
4.50888e-05
5.4638e-05
5.34399e-05
5.42612e-05
4.46008e-05
5.51672e-05
5.62985e-05
5.78777e-05
4.84063e-05
5.87418e-05
6.00749e-05
6.12593e-05
4.89153e-05
5.71115e-05
5.70749e-05
5.81675e-05
3.6706e-07
3.06307e-07
3.19207e-07
3.53345e-07
2.94688e-07
3.10138e-07
1.45e-07
1.40407e-07
1.7411e-07
1.64457e-07
2.87282e-07
2.9461e-07
3.64309e-07
3.20361e-07
3.42494e-07
3.62766e-07
3.66041e-07
3.43496e-07
2.5934e-07
4.05883e-07
2.51731e-07
2.99952e-07
3.51964e-07
3.29972e-07
2.56629e-07
4.49371e-07
2.47788e-07
3.97962e-07
2.56423e-07
2.49744e-07
2.47673e-07
3.63005e-07
3.45857e-07
3.40864e-07
3.08123e-07
3.30228e-07
3.41166e-07
3.4221e-07
3.21307e-07
2.48651e-07
2.80087e-07
2.39711e-07
2.48561e-07
3.28714e-07
3.10337e-07
2.44689e-07
3.79718e-07
2.35674e-07
3.25913e-07
2.44589e-07
2.37798e-07
2.35661e-07
3.44353e-07
3.2611e-07
3.26693e-07
2.95067e-07
3.17571e-07
3.20186e-07
3.20241e-07
3.0207e-07
2.36693e-07
2.43559e-07
2.27761e-07
2.28729e-07
3.09295e-07
2.9247e-07
2.32828e-07
3.10847e-07
2.24821e-07
2.80292e-07
2.32816e-07
2.26954e-07
2.24697e-07
3.24512e-07
3.0682e-07
3.15911e-07
2.83532e-07
3.14889e-07
3.02683e-07
3.0118e-07
2.84742e-07
2.24798e-07
2.23411e-07
2.162e-07
2.09556e-07
2.91498e-07
2.76371e-07
2.22291e-07
2.73702e-07
2.14994e-07
2.59816e-07
2.22093e-07
2.16704e-07
2.14777e-07
3.05599e-07
2.90969e-07
3.14985e-07
2.72933e-07
3.17483e-07
2.88487e-07
2.83943e-07
2.68859e-07
2.13519e-07
2.05942e-07
2.05996e-07
1.97835e-07
2.75622e-07
2.62093e-07
2.12678e-07
2.5608e-07
2.05759e-07
2.45405e-07
2.12488e-07
2.07402e-07
2.05951e-07
2.8994e-07
2.7673e-07
3.19015e-07
2.62596e-07
3.25287e-07
2.78154e-07
2.68099e-07
2.54021e-07
2.03544e-07
1.95736e-07
1.96694e-07
1.90798e-07
2.61415e-07
2.48722e-07
2.03473e-07
2.42319e-07
1.96778e-07
2.34627e-07
2.03787e-07
1.98736e-07
1.97304e-07
2.75823e-07
2.63631e-07
3.27804e-07
2.52112e-07
3.36187e-07
2.70409e-07
2.53363e-07
2.41045e-07
1.94498e-07
1.89242e-07
1.88293e-07
1.83749e-07
2.48158e-07
2.36753e-07
1.94606e-07
2.32359e-07
1.88555e-07
2.26446e-07
1.95153e-07
1.91434e-07
1.88841e-07
2.62848e-07
2.51192e-07
3.40164e-07
2.41634e-07
3.55252e-07
2.66282e-07
2.40587e-07
2.29958e-07
1.86389e-07
1.81828e-07
1.81603e-07
1.75596e-07
2.36326e-07
2.26124e-07
1.86692e-07
2.25087e-07
1.81423e-07
2.22891e-07
1.86861e-07
1.85488e-07
1.81103e-07
2.50419e-07
2.39458e-07
3.60113e-07
2.31543e-07
3.72657e-07
2.63629e-07
2.29702e-07
2.19906e-07
1.80235e-07
1.73655e-07
1.76691e-07
1.68804e-07
2.25878e-07
2.1643e-07
1.79743e-07
2.22436e-07
1.75366e-07
2.21067e-07
1.79348e-07
1.80652e-07
1.74596e-07
2.38762e-07
2.28757e-07
3.76354e-07
2.22773e-07
3.83616e-07
2.59811e-07
2.19737e-07
2.10356e-07
1.75582e-07
1.67475e-07
1.72686e-07
1.64056e-07
2.16252e-07
2.06874e-07
1.74131e-07
2.20807e-07
1.70769e-07
2.20781e-07
1.73094e-07
1.76293e-07
1.69154e-07
2.28028e-07
2.18316e-07
3.84102e-07
2.15786e-07
3.75275e-07
2.51573e-07
2.10301e-07
2.02339e-07
1.71754e-07
1.63136e-07
1.69859e-07
1.61067e-07
2.06742e-07
1.98372e-07
1.6973e-07
2.20963e-07
1.67172e-07
2.2909e-07
1.67919e-07
1.71863e-07
1.64867e-07
2.17719e-07
2.14557e-07
3.57219e-07
2.08668e-07
2.94469e-07
2.22047e-07
2.02386e-07
1.95864e-07
1.69386e-07
1.60629e-07
1.68167e-07
1.59934e-07
1.98369e-07
1.91587e-07
1.66617e-07
2.38268e-07
1.65167e-07
2.68098e-07
1.64114e-07
1.67838e-07
1.62972e-07
2.14893e-07
2.21913e-07
2.74063e-07
2.04335e-07
2.23928e-07
2.01631e-07
1.96025e-07
1.90751e-07
1.67858e-07
1.59834e-07
1.67025e-07
1.59679e-07
1.91731e-07
1.86515e-07
1.64799e-07
2.80838e-07
1.64821e-07
3.44458e-07
1.62962e-07
1.65681e-07
1.63514e-07
2.24661e-07
2.41817e-07
2.11693e-07
2.05147e-07
1.88827e-07
1.92171e-07
1.91112e-07
1.87754e-07
1.66651e-07
1.59701e-07
1.66671e-07
1.60355e-07
1.86858e-07
1.83156e-07
1.6511e-07
3.7473e-07
1.66961e-07
4.8017e-07
1.64039e-07
1.65882e-07
1.66187e-07
2.47289e-07
2.82171e-07
1.84769e-07
2.10752e-07
1.78835e-07
1.88336e-07
1.88566e-07
1.88256e-07
1.67082e-07
1.6072e-07
1.6981e-07
1.62985e-07
1.83899e-07
1.82795e-07
1.67842e-07
5.12741e-07
1.72363e-07
5.90788e-07
1.67126e-07
1.68772e-07
1.71054e-07
2.90398e-07
3.17925e-07
1.78751e-07
2.18788e-07
1.80287e-07
1.88646e-07
1.89975e-07
1.93759e-07
1.71565e-07
1.64421e-07
1.78207e-07
1.70825e-07
1.84376e-07
1.87957e-07
1.74415e-07
6.03882e-07
1.82426e-07
6.12962e-07
1.72661e-07
1.77494e-07
1.79645e-07
3.20813e-07
3.16349e-07
1.81955e-07
2.26e-07
1.88114e-07
1.94087e-07
1.97291e-07
2.07981e-07
1.81427e-07
1.73636e-07
1.93354e-07
1.85e-07
1.9145e-07
2.02413e-07
1.85904e-07
6.08316e-07
2.00576e-07
4.75279e-07
1.82782e-07
1.93013e-07
1.94591e-07
3.139e-07
2.68358e-07
1.90547e-07
2.36761e-07
2.01752e-07
2.07891e-07
2.14736e-07
2.38957e-07
1.99106e-07
1.89818e-07
2.1932e-07
2.10861e-07
2.08907e-07
2.3094e-07
2.07435e-07
4.24178e-07
2.27741e-07
3.30951e-07
2.00687e-07
2.18713e-07
2.2047e-07
2.69755e-07
2.59582e-07
2.05955e-07
2.55555e-07
2.2533e-07
2.36956e-07
2.51053e-07
2.99038e-07
2.29488e-07
2.19582e-07
2.61001e-07
2.56115e-07
2.42716e-07
2.94693e-07
2.38718e-07
3.26352e-07
2.7486e-07
3.3629e-07
2.29201e-07
2.63864e-07
2.63958e-07
2.64742e-07
3.14605e-07
2.32832e-07
2.92843e-07
2.6537e-07
2.93952e-07
3.16389e-07
4.13999e-07
2.73401e-07
2.70586e-07
3.35151e-07
3.19395e-07
3.17031e-07
3.95691e-07
2.88154e-07
3.48096e-07
3.47219e-07
3.68717e-07
2.77654e-07
3.25166e-07
3.30912e-07
3.41078e-07
4.07663e-07
2.81777e-07
3.47512e-07
3.27199e-07
4.03724e-07
4.55306e-07
5.99757e-07
3.56836e-07
3.41277e-07
4.30671e-07
4.28191e-07
4.27131e-07
6.16923e-07
3.68788e-07
3.76313e-07
4.45267e-07
4.44375e-07
3.57156e-07
4.35165e-07
4.29457e-07
4.32075e-07
6.22356e-07
3.51584e-07
4.55812e-07
4.35838e-07
6.16253e-07
6.54927e-07
9.49695e-07
4.59399e-07
4.58999e-07
5.85657e-07
5.88405e-07
6.81909e-07
9.59098e-07
4.75466e-07
4.71186e-07
5.99792e-07
5.74064e-07
4.64575e-07
5.89131e-07
6.00115e-07
6.86389e-07
9.12965e-07
4.6205e-07
5.86689e-07
6.01356e-07
9.73151e-07
1.05488e-06
1.53932e-06
6.34718e-07
6.31908e-07
8.05814e-07
7.92497e-07
1.06151e-06
1.49582e-06
6.49607e-07
6.29641e-07
8.19056e-07
8.03666e-07
6.23439e-07
7.89889e-07
8.25033e-07
1.0076e-06
1.53659e-06
6.34702e-07
8.44758e-07
8.26016e-07
1.50746e-06
1.6788e-06
2.35211e-06
8.727e-07
8.72375e-07
1.09223e-06
1.09092e-06
1.63306e-06
2.4119e-06
8.85683e-07
8.70659e-07
1.10914e-06
1.10724e-06
9.19794e-07
1.08142e-06
1.0587e-06
1.67972e-06
2.34625e-06
9.29841e-07
1.10032e-06
1.08786e-06
2.25148e-06
2.54725e-06
3.58269e-06
1.17262e-06
1.17244e-06
1.49514e-06
1.5192e-06
2.60545e-06
3.62392e-06
1.19034e-06
1.18367e-06
1.51207e-06
1.51637e-06
1.10474e-06
1.50612e-06
1.65333e-06
2.55252e-06
3.58189e-06
1.13442e-06
1.5149e-06
1.69306e-06
4.1516e-06
3.88551e-06
5.23837e-06
1.62205e-06
1.63221e-06
1.96897e-06
1.96628e-06
3.94424e-06
5.10326e-06
1.6375e-06
1.64042e-06
1.98479e-06
1.97501e-06
1.80389e-06
1.9437e-06
1.96597e-06
3.88649e-06
5.20086e-06
1.82772e-06
1.95728e-06
1.96671e-06
5.175e-06
5.56215e-06
7.17159e-06
2.11101e-06
2.09548e-06
2.60284e-06
2.58378e-06
5.38375e-06
7.13128e-06
2.12568e-06
2.13811e-06
2.61062e-06
2.59974e-06
2.01322e-06
2.55602e-06
2.71107e-06
5.51919e-06
7.1455e-06
2.04207e-06
2.57469e-06
2.76643e-06
7.2447e-06
7.61281e-06
9.43778e-06
2.75833e-06
2.76805e-06
3.30039e-06
3.35163e-06
7.60331e-06
9.62088e-06
2.77349e-06
2.71984e-06
3.30598e-06
3.31874e-06
2.95206e-06
3.32153e-06
3.26167e-06
7.57579e-06
9.30064e-06
2.97435e-06
3.32966e-06
3.40903e-06
9.31701e-06
9.87452e-06
1.19394e-05
3.5222e-06
3.55996e-06
4.09482e-06
4.14041e-06
1.01098e-05
1.18809e-05
3.52367e-06
3.55606e-06
4.11512e-06
4.19731e-06
3.43552e-06
4.10036e-06
4.01701e-06
9.80094e-06
1.21066e-05
3.58581e-06
4.09822e-06
3.97704e-06
1.10803e-05
1.24649e-05
1.44283e-05
4.32557e-06
4.32652e-06
5.17159e-06
5.10399e-06
1.23075e-05
1.42962e-05
4.34121e-06
4.41562e-06
5.18816e-06
5.07055e-06
4.27314e-06
5.05962e-06
5.44274e-06
1.2555e-05
1.42595e-05
4.07667e-06
5.08981e-06
5.35544e-06
1.51253e-05
1.49425e-05
1.68583e-05
5.39489e-06
5.43031e-06
6.21939e-06
6.26314e-06
1.48625e-05
1.69447e-05
5.40453e-06
5.3359e-06
6.20412e-06
6.32503e-06
5.82711e-06
6.23417e-06
6.42667e-06
1.48104e-05
1.69151e-05
5.94302e-06
6.36836e-06
6.84039e-06
1.73264e-05
1.73127e-05
1.89051e-05
6.57559e-06
6.51762e-06
7.31907e-06
7.42037e-06
1.74063e-05
1.89288e-05
6.59246e-06
6.58193e-06
7.35244e-06
7.38703e-06
6.49492e-06
7.36922e-06
7.18715e-06
1.73818e-05
1.90342e-05
6.94045e-06
7.37169e-06
7.30436e-06
1.81891e-05
1.93775e-05
2.12242e-05
7.56003e-06
7.75644e-06
8.83877e-06
8.73724e-06
1.93842e-05
2.11319e-05
7.56578e-06
7.79835e-06
8.82903e-06
8.80274e-06
7.52847e-06
8.67997e-06
8.82057e-06
1.95012e-05
2.10261e-05
7.50632e-06
8.8067e-06
8.78522e-06
2.12682e-05
2.1683e-05
2.29177e-05
9.3445e-06
9.13593e-06
1.01966e-05
1.03731e-05
2.16166e-05
2.30961e-05
9.34704e-06
9.02127e-06
1.0209e-05
1.02211e-05
9.34429e-06
1.03352e-05
1.04285e-05
2.14681e-05
2.32099e-05
9.321e-06
1.04525e-05
1.03715e-05
2.31362e-05
2.32463e-05
2.45069e-05
1.0334e-05
1.06914e-05
1.16444e-05
1.15648e-05
2.34436e-05
2.44451e-05
1.03483e-05
1.07754e-05
1.1677e-05
1.20603e-05
1.05586e-05
1.15027e-05
1.17498e-05
2.36652e-05
2.47415e-05
1.05779e-05
1.24777e-05
1.17949e-05
2.46774e-05
2.49978e-05
2.64395e-05
1.21596e-05
1.19447e-05
1.35552e-05
1.35194e-05
2.48445e-05
2.63364e-05
1.21878e-05
1.2269e-05
1.35689e-05
1.28346e-05
1.23287e-05
1.34825e-05
1.34853e-05
2.50179e-05
2.59482e-05
1.23897e-05
1.31168e-05
1.35854e-05
2.63121e-05
2.67422e-05
2.7491e-05
1.39937e-05
1.40303e-05
1.49501e-05
1.501e-05
2.67214e-05
2.75482e-05
1.40139e-05
1.35023e-05
1.49077e-05
1.56297e-05
1.37772e-05
1.49759e-05
1.49931e-05
2.63862e-05
2.79541e-05
1.37383e-05
1.56712e-05
1.48594e-05
2.7533e-05
2.77786e-05
2.89653e-05
1.52638e-05
1.53275e-05
1.67979e-05
1.67536e-05
2.78314e-05
2.88773e-05
1.52337e-05
1.60526e-05
1.68925e-05
1.65785e-05
1.55367e-05
1.66976e-05
1.67891e-05
2.82345e-05
2.8739e-05
1.54997e-05
1.69261e-05
1.68656e-05
2.8913e-05
2.93455e-05
3.02058e-05
1.7343e-05
1.7291e-05
1.8593e-05
1.86149e-05
2.92435e-05
3.02511e-05
1.74541e-05
1.67693e-05
1.86406e-05
1.86464e-05
1.70734e-05
1.85258e-05
1.86122e-05
2.89885e-05
3.03033e-05
1.71643e-05
1.86386e-05
1.88471e-05
3.03511e-05
3.04578e-05
3.13186e-05
1.90189e-05
1.89866e-05
2.02599e-05
2.06809e-05
3.05413e-05
3.15495e-05
1.902e-05
1.92383e-05
2.03238e-05
2.07144e-05
1.93289e-05
2.06867e-05
2.08583e-05
3.0699e-05
3.15243e-05
1.96075e-05
2.07889e-05
2.1293e-05
3.16957e-05
3.16403e-05
3.26561e-05
2.07158e-05
2.12317e-05
2.23104e-05
2.19588e-05
3.18355e-05
3.24009e-05
2.0828e-05
2.1016e-05
2.22644e-05
2.19928e-05
2.10342e-05
2.18994e-05
2.19266e-05
3.1752e-05
3.24263e-05
2.15732e-05
2.19415e-05
2.19362e-05
3.23469e-05
3.29169e-05
3.36648e-05
2.27723e-05
2.22958e-05
2.39859e-05
2.40845e-05
3.26148e-05
3.37067e-05
2.26393e-05
2.26138e-05
2.40373e-05
2.40619e-05
2.25939e-05
2.4036e-05
2.39587e-05
3.27025e-05
3.37146e-05
2.21859e-05
2.40126e-05
2.37092e-05
3.36436e-05
3.39211e-05
3.47632e-05
2.44159e-05
2.45564e-05
2.55952e-05
2.56791e-05
3.40406e-05
3.47998e-05
2.46036e-05
2.42927e-05
2.5664e-05
2.5739e-05
2.41505e-05
2.55981e-05
2.54424e-05
3.39528e-05
3.48893e-05
2.41942e-05
2.57749e-05
2.60036e-05
3.48035e-05
3.50161e-05
3.6063e-05
2.60586e-05
2.6219e-05
2.78375e-05
2.78974e-05
3.50566e-05
3.61811e-05
2.59447e-05
2.64617e-05
2.76126e-05
2.80558e-05
2.60956e-05
2.79122e-05
2.81772e-05
3.52468e-05
3.61275e-05
2.65255e-05
2.79951e-05
2.78806e-05
3.63205e-05
3.63513e-05
3.6896e-05
2.83328e-05
2.8261e-05
2.89944e-05
2.90182e-05
3.64022e-05
3.68439e-05
2.8255e-05
2.83159e-05
2.92308e-05
2.86763e-05
2.87489e-05
2.90392e-05
2.96711e-05
3.62699e-05
3.66166e-05
2.83359e-05
2.86059e-05
2.90252e-05
3.70386e-05
3.70446e-05
3.82689e-05
2.9124e-05
2.93241e-05
3.07431e-05
3.08475e-05
3.70257e-05
3.81166e-05
2.93908e-05
2.88979e-05
3.11317e-05
3.10559e-05
2.97614e-05
3.08383e-05
3.05153e-05
3.68253e-05
3.83147e-05
2.92325e-05
3.10723e-05
3.07239e-05
3.78848e-05
3.86713e-05
3.92965e-05
3.14746e-05
3.14246e-05
3.2792e-05
3.23915e-05
3.84269e-05
3.91074e-05
3.18153e-05
3.16884e-05
3.28396e-05
3.2701e-05
3.1033e-05
3.22732e-05
3.23388e-05
3.86216e-05
3.91082e-05
3.12612e-05
3.25458e-05
3.23281e-05
3.92037e-05
3.93487e-05
3.94257e-05
3.29593e-05
3.25976e-05
3.32088e-05
3.383e-05
3.9254e-05
4.01289e-05
3.29349e-05
3.28231e-05
3.30962e-05
3.33019e-05
3.27821e-05
3.39423e-05
3.41837e-05
3.92172e-05
3.98668e-05
3.26642e-05
3.33791e-05
3.39797e-05
4.02342e-05
3.96246e-05
4.15037e-05
3.34022e-05
3.42872e-05
3.55265e-05
3.51947e-05
4.04226e-05
4.10806e-05
3.32096e-05
3.39434e-05
3.52379e-05
3.59835e-05
3.45286e-05
3.51762e-05
3.4991e-05
4.02622e-05
4.16642e-05
3.43305e-05
3.57065e-05
3.48753e-05
4.09057e-05
4.18978e-05
4.24264e-05
3.60991e-05
3.54781e-05
3.67938e-05
3.65026e-05
4.12119e-05
4.20251e-05
3.60872e-05
3.63627e-05
3.74165e-05
3.69172e-05
3.52324e-05
3.64556e-05
3.68016e-05
4.1809e-05
4.2017e-05
3.51621e-05
3.63427e-05
3.67078e-05
4.23151e-05
4.24852e-05
4.28254e-05
3.68664e-05
3.68941e-05
3.77696e-05
3.81092e-05
4.2314e-05
4.32674e-05
3.75189e-05
3.70768e-05
3.78435e-05
3.74178e-05
3.72957e-05
3.82079e-05
3.81021e-05
4.21369e-05
4.25851e-05
3.72161e-05
3.75671e-05
3.8078e-05
4.30172e-05
4.3015e-05
4.33979e-05
3.81141e-05
3.8417e-05
3.85557e-05
3.88442e-05
4.34079e-05
4.35633e-05
3.79561e-05
3.7525e-05
3.82488e-05
3.86177e-05
3.82011e-05
3.88357e-05
3.83797e-05
4.26936e-05
4.36752e-05
3.81883e-05
3.86501e-05
3.83792e-05
4.32611e-05
4.35785e-05
4.50735e-05
3.88072e-05
3.88935e-05
4.03471e-05
3.94769e-05
4.3618e-05
4.42874e-05
3.85839e-05
3.92339e-05
4.04703e-05
4.07946e-05
3.8529e-05
3.94634e-05
4.02883e-05
4.40741e-05
4.53257e-05
3.85244e-05
4.07401e-05
4.03005e-05
4.50695e-05
4.53722e-05
4.56787e-05
4.08126e-05
4.01375e-05
4.15405e-05
4.1931e-05
4.46796e-05
4.62001e-05
4.09744e-05
4.10424e-05
4.16344e-05
4.1275e-05
4.08855e-05
4.19673e-05
4.1812e-05
4.54128e-05
4.522e-05
4.08963e-05
4.12572e-05
4.17378e-05
4.58812e-05
4.57008e-05
4.58332e-05
4.16225e-05
4.22145e-05
4.18304e-05
4.24188e-05
4.63362e-05
4.6205e-05
4.16952e-05
4.13019e-05
4.18239e-05
4.15035e-05
4.19053e-05
4.23893e-05
4.19967e-05
4.52383e-05
4.57057e-05
4.18116e-05
4.15296e-05
4.19095e-05
4.58004e-05
4.60572e-05
4.73228e-05
4.21117e-05
4.24275e-05
4.33249e-05
4.25437e-05
4.62172e-05
4.63976e-05
4.19569e-05
4.18329e-05
4.34386e-05
4.36452e-05
4.2047e-05
4.24817e-05
4.30322e-05
4.60683e-05
4.75719e-05
4.19775e-05
4.36444e-05
4.32559e-05
4.71591e-05
4.74853e-05
4.76531e-05
4.35831e-05
4.27743e-05
4.4084e-05
4.45785e-05
4.66746e-05
4.8241e-05
4.38251e-05
4.39953e-05
4.42861e-05
4.4394e-05
4.34019e-05
4.45371e-05
4.42821e-05
4.76859e-05
4.76669e-05
4.36901e-05
4.42741e-05
4.42524e-05
4.77759e-05
4.77142e-05
4.82815e-05
4.42877e-05
4.49239e-05
4.51146e-05
4.52934e-05
4.84199e-05
4.84568e-05
4.43258e-05
4.44237e-05
4.48144e-05
4.47367e-05
4.45414e-05
4.53017e-05
4.50132e-05
4.76927e-05
4.82361e-05
4.4395e-05
4.47642e-05
4.48054e-05
4.82396e-05
4.84789e-05
4.90724e-05
4.53358e-05
4.53198e-05
4.58155e-05
4.54286e-05
4.84733e-05
4.86347e-05
4.50741e-05
4.50663e-05
4.59402e-05
4.60301e-05
4.51224e-05
4.5477e-05
4.58968e-05
4.84911e-05
4.92063e-05
4.4977e-05
4.60114e-05
4.60054e-05
4.91768e-05
4.92409e-05
4.9813e-05
4.60593e-05
4.56007e-05
4.6878e-05
4.7036e-05
4.88713e-05
5.00859e-05
4.62645e-05
4.63083e-05
4.69659e-05
4.67956e-05
4.62817e-05
4.71298e-05
4.71171e-05
4.93378e-05
4.95922e-05
4.6401e-05
4.67332e-05
4.7061e-05
4.99321e-05
4.98945e-05
5.0203e-05
4.70446e-05
4.73204e-05
4.74975e-05
4.76124e-05
5.01913e-05
5.01261e-05
4.70585e-05
4.68524e-05
4.73502e-05
4.73248e-05
4.72281e-05
4.75505e-05
4.7325e-05
4.96459e-05
5.0169e-05
4.7124e-05
4.72742e-05
4.71978e-05
4.98523e-05
5.04122e-05
5.12065e-05
4.7735e-05
4.76365e-05
4.85018e-05
4.7919e-05
5.01444e-05
5.07693e-05
4.76963e-05
4.77369e-05
4.86665e-05
4.87871e-05
4.73561e-05
4.78408e-05
4.80789e-05
5.04535e-05
5.14042e-05
4.72528e-05
4.87661e-05
4.8417e-05
5.11406e-05
5.12805e-05
5.12967e-05
4.87043e-05
4.83942e-05
4.90013e-05
4.96946e-05
5.11306e-05
5.22099e-05
4.88204e-05
4.89424e-05
4.89934e-05
4.90815e-05
4.86628e-05
4.97648e-05
4.96951e-05
5.14743e-05
5.13679e-05
4.89313e-05
4.92088e-05
4.96049e-05
5.20097e-05
5.13366e-05
5.20467e-05
4.90928e-05
4.98117e-05
4.97421e-05
4.97704e-05
5.22399e-05
5.17515e-05
4.90221e-05
4.90966e-05
4.94585e-05
4.93005e-05
4.97748e-05
4.98201e-05
4.96964e-05
5.13824e-05
5.1767e-05
4.96265e-05
4.93328e-05
4.94799e-05
5.16254e-05
5.22899e-05
5.27686e-05
4.99932e-05
4.97054e-05
5.04825e-05
4.97248e-05
5.17412e-05
5.18503e-05
4.98883e-05
4.96689e-05
5.0768e-05
5.07078e-05
4.96018e-05
4.96897e-05
4.95884e-05
5.20079e-05
5.28097e-05
4.94371e-05
5.05101e-05
4.9537e-05
5.1792e-05
5.28168e-05
5.3076e-05
5.05484e-05
4.98515e-05
5.0858e-05
5.14009e-05
5.20639e-05
5.3844e-05
5.08697e-05
5.08567e-05
5.11144e-05
5.10452e-05
4.97133e-05
5.14986e-05
5.16544e-05
5.28713e-05
5.29864e-05
4.98448e-05
5.09635e-05
5.16838e-05
5.40782e-05
5.32626e-05
5.38437e-05
5.12169e-05
5.1853e-05
5.20864e-05
5.23115e-05
5.41304e-05
5.42156e-05
5.12732e-05
5.11256e-05
5.17465e-05
5.19332e-05
5.21606e-05
5.2388e-05
5.25022e-05
5.30997e-05
5.40895e-05
5.21036e-05
5.21641e-05
5.24168e-05
5.43204e-05
5.38655e-05
5.35323e-05
5.21528e-05
5.23012e-05
5.21023e-05
5.19771e-05
5.41427e-05
5.33654e-05
5.18102e-05
5.21256e-05
5.18399e-05
5.21898e-05
5.24334e-05
5.18483e-05
5.16345e-05
5.41885e-05
5.38155e-05
5.23635e-05
5.22803e-05
5.16227e-05
5.29471e-05
5.35371e-05
5.39937e-05
5.20704e-05
5.19522e-05
5.2131e-05
5.20803e-05
5.33763e-05
5.41114e-05
5.18449e-05
5.21292e-05
5.20884e-05
5.21224e-05
5.15794e-05
5.20366e-05
5.1813e-05
5.3764e-05
5.36941e-05
5.15567e-05
5.20706e-05
5.17382e-05
5.38724e-05
5.42901e-05
5.5584e-05
5.22834e-05
5.23783e-05
5.35786e-05
5.34387e-05
5.44208e-05
5.52508e-05
5.25489e-05
5.22072e-05
5.38681e-05
5.35809e-05
5.23654e-05
5.35488e-05
5.38843e-05
5.38683e-05
5.548e-05
5.2202e-05
5.34466e-05
5.38868e-05
5.58094e-05
5.56504e-05
5.51972e-05
5.38071e-05
5.36049e-05
5.39107e-05
5.37892e-05
5.52777e-05
5.51321e-05
5.39823e-05
5.39222e-05
5.39144e-05
5.41152e-05
5.40303e-05
5.37433e-05
5.40636e-05
5.56778e-05
5.55792e-05
5.40886e-05
5.41445e-05
5.41548e-05
5.54129e-05
5.51386e-05
5.4938e-05
5.38664e-05
5.38144e-05
5.37855e-05
5.39071e-05
5.5144e-05
5.53697e-05
5.37559e-05
5.40785e-05
5.36301e-05
5.38112e-05
5.39948e-05
5.39179e-05
5.38956e-05
5.55298e-05
5.51063e-05
5.40814e-05
5.39328e-05
5.38717e-05
5.51471e-05
5.5023e-05
5.61876e-05
5.38005e-05
5.39972e-05
5.4409e-05
5.44149e-05
5.54925e-05
5.59196e-05
5.36513e-05
5.38092e-05
5.44367e-05
5.40363e-05
5.38989e-05
5.44325e-05
5.41349e-05
5.51223e-05
5.56979e-05
5.3871e-05
5.407e-05
5.40283e-05
5.56454e-05
5.64601e-05
5.68251e-05
5.48373e-05
5.45511e-05
5.53265e-05
5.47592e-05
5.59618e-05
5.59528e-05
5.48995e-05
5.44302e-05
5.54609e-05
5.52771e-05
5.43614e-05
5.46079e-05
5.46237e-05
5.59351e-05
5.65889e-05
5.4274e-05
5.51101e-05
5.47197e-05
5.59608e-05
5.68039e-05
5.61514e-05
5.53247e-05
5.48087e-05
5.51075e-05
5.51575e-05
5.59753e-05
5.64297e-05
5.54632e-05
5.53494e-05
5.51825e-05
5.53462e-05
5.46306e-05
5.49147e-05
5.47225e-05
5.66191e-05
5.6443e-05
5.47552e-05
5.5265e-05
5.49549e-05
5.61437e-05
5.61316e-05
5.62572e-05
5.5079e-05
5.53789e-05
5.51708e-05
5.61937e-05
5.6632e-05
5.76067e-05
5.50571e-05
5.52806e-05
5.50114e-05
5.52249e-05
5.49083e-05
5.62126e-05
5.63476e-05
5.64387e-05
5.64426e-05
5.5205e-05
5.53499e-05
5.62311e-05
5.77846e-05
5.64337e-05
5.74628e-05
5.54144e-05
5.63729e-05
5.62874e-05
5.64717e-05
5.7711e-05
5.7637e-05
5.50721e-05
5.52557e-05
5.60144e-05
5.60145e-05
5.66986e-05
5.66551e-05
5.69699e-05
5.65432e-05
5.74719e-05
5.64852e-05
5.62781e-05
5.66722e-05
5.8022e-05
5.75445e-05
5.73123e-05
5.63476e-05
5.64266e-05
5.62426e-05
5.56173e-05
5.75943e-05
5.65228e-05
5.6257e-05
5.62963e-05
5.639e-05
5.64877e-05
5.69381e-05
5.59075e-05
5.60117e-05
5.75888e-05
5.75136e-05
5.66366e-05
5.63864e-05
5.5868e-05
5.66744e-05
5.72264e-05
5.6657e-05
5.60032e-05
5.53151e-05
5.55449e-05
5.49218e-05
5.63749e-05
5.58337e-05
5.63482e-05
5.64553e-05
5.58852e-05
5.58812e-05
5.56027e-05
5.4904e-05
5.49001e-05
5.74366e-05
5.66586e-05
5.55887e-05
5.56812e-05
5.5169e-05
5.59586e-05
5.66594e-05
5.72904e-05
5.55317e-05
5.49233e-05
5.58906e-05
5.56413e-05
5.58487e-05
5.70186e-05
5.58322e-05
5.57747e-05
5.59327e-05
5.58068e-05
5.4853e-05
5.52837e-05
5.50685e-05
5.66416e-05
5.70216e-05
5.51525e-05
5.57737e-05
5.54363e-05
5.66442e-05
5.75885e-05
5.8645e-05
5.64116e-05
5.63083e-05
5.75527e-05
5.78347e-05
5.74373e-05
5.90916e-05
5.62074e-05
5.59998e-05
5.73382e-05
5.73121e-05
5.55985e-05
5.77907e-05
5.77285e-05
5.7312e-05
5.86501e-05
5.59709e-05
5.74447e-05
5.7672e-05
5.90221e-05
5.87009e-05
5.8301e-05
5.76761e-05
5.80481e-05
5.76358e-05
5.80913e-05
5.92231e-05
5.90788e-05
5.74818e-05
5.74747e-05
5.74614e-05
5.74112e-05
5.81294e-05
5.82289e-05
5.83496e-05
5.87149e-05
5.80861e-05
5.79711e-05
5.74591e-05
5.80866e-05
5.92835e-05
5.81338e-05
5.69343e-05
5.74283e-05
5.79494e-05
5.62278e-05
5.63779e-05
5.89132e-05
5.70415e-05
5.72788e-05
5.71275e-05
5.62857e-05
5.63955e-05
5.82638e-05
5.66041e-05
5.65694e-05
5.78773e-05
5.70672e-05
5.79654e-05
5.63596e-05
5.63839e-05
5.69781e-05
5.68946e-05
5.73448e-05
5.60481e-05
5.60011e-05
5.60526e-05
5.57459e-05
5.68564e-05
5.65949e-05
5.61651e-05
5.63721e-05
5.6254e-05
5.68498e-05
5.60423e-05
5.56824e-05
5.56044e-05
5.70811e-05
5.83125e-05
5.60215e-05
5.68027e-05
5.58308e-05
5.65253e-05
5.76672e-05
5.90864e-05
5.62859e-05
5.58206e-05
5.78394e-05
5.74032e-05
5.67608e-05
5.86371e-05
5.66009e-05
5.72937e-05
5.7832e-05
5.77774e-05
5.56518e-05
5.70741e-05
5.73074e-05
5.85939e-05
5.90216e-05
5.59518e-05
5.78138e-05
5.76861e-05
5.8951e-05
5.91601e-05
5.86515e-05
5.8056e-05
5.78712e-05
5.80593e-05
5.82245e-05
5.89154e-05
5.9299e-05
5.79427e-05
5.77624e-05
5.78093e-05
5.68513e-05
5.78942e-05
5.8247e-05
5.83018e-05
5.89399e-05
5.72555e-05
5.80423e-05
5.69287e-05
5.81454e-05
5.93263e-05
5.84304e-05
5.6954e-05
5.78569e-05
5.81852e-05
5.6375e-05
5.69037e-05
5.92437e-05
5.76002e-05
5.74262e-05
5.63923e-05
5.62009e-05
5.58432e-05
5.82265e-05
5.71151e-05
5.65684e-05
5.70084e-05
5.64452e-05
5.79368e-05
5.57296e-05
5.60902e-05
5.68101e-05
5.68871e-05
5.73192e-05
5.61082e-05
5.64185e-05
5.60354e-05
5.59907e-05
5.73744e-05
5.69054e-05
5.60631e-05
5.58566e-05
5.62158e-05
5.71966e-05
5.61358e-05
5.60795e-05
5.59756e-05
5.65439e-05
5.89671e-05
5.58245e-05
5.70362e-05
5.59486e-05
5.70561e-05
5.77332e-05
6.00779e-05
5.62544e-05
5.60494e-05
5.84543e-05
5.79038e-05
5.70161e-05
5.94153e-05
5.67538e-05
5.81369e-05
5.88045e-05
5.95062e-05
5.62459e-05
5.79195e-05
5.87493e-05
5.95409e-05
6.10491e-05
5.65885e-05
5.96159e-05
5.91832e-05
6.05853e-05
6.02247e-05
5.93067e-05
5.88142e-05
5.84474e-05
5.87652e-05
5.8636e-05
5.96955e-05
5.9556e-05
5.90042e-05
5.95216e-05
5.86893e-05
5.81282e-05
5.90435e-05
5.85471e-05
5.87089e-05
6.10525e-05
5.79486e-05
5.93664e-05
5.81795e-05
5.87059e-05
5.89095e-05
5.87199e-05
5.50259e-05
5.8291e-05
5.8365e-05
5.48628e-05
5.52516e-05
5.91203e-05
5.56096e-05
5.78066e-05
5.65599e-05
5.43862e-05
5.35357e-05
5.76994e-05
5.51333e-05
5.4244e-05
5.70909e-05
5.39015e-05
5.72786e-05
5.35923e-05
5.39257e-05
5.43191e-05
5.48444e-05
5.57884e-05
5.43323e-05
5.46812e-05
5.4287e-05
5.45575e-05
5.53994e-05
5.60454e-05
5.39756e-05
5.33566e-05
5.41448e-05
5.42453e-05
5.39619e-05
5.46129e-05
5.45422e-05
5.38786e-05
5.67869e-05
5.37223e-05
5.44671e-05
5.46415e-05
5.68999e-05
5.65605e-05
6.05139e-05
5.48452e-05
5.50085e-05
5.85471e-05
5.82687e-05
5.66886e-05
6.00017e-05
5.50403e-05
5.60342e-05
5.89695e-05
5.98558e-05
5.59591e-05
5.83406e-05
5.91929e-05
5.78485e-05
6.1692e-05
5.63671e-05
5.98386e-05
5.95732e-05
6.12042e-05
6.07245e-05
5.9833e-05
5.90612e-05
5.87211e-05
5.90974e-05
5.87364e-05
6.01717e-05
5.93352e-05
5.94334e-05
6.01432e-05
5.93073e-05
5.93919e-05
5.94208e-05
5.86968e-05
5.87417e-05
6.17839e-05
5.95364e-05
5.97532e-05
5.92063e-05
5.87655e-05
5.89707e-05
5.91977e-05
5.74777e-05
5.71664e-05
5.88181e-05
5.75518e-05
5.72611e-05
4.84665e-05
4.90315e-05
4.85873e-05
5.67958e-05
5.85884e-05
5.6682e-05
6.46291e-08
2.31166e-07
4.78731e-08
6.17396e-08
2.86314e-07
2.77967e-07
1.3669e-07
1.20002e-07
2.6614e-07
3.17743e-07
1.36902e-07
2.65275e-07
3.69658e-07
2.13973e-07
2.67186e-07
2.99168e-07
4.88347e-06
2.5745e-07
6.53067e-06
1.34058e-05
2.06768e-05
3.57663e-07
4.81824e-06
3.21315e-07
6.4462e-06
1.42618e-07
1.76346e-07
1.66668e-07
1.47731e-07
1.41825e-07
1.75699e-07
1.67571e-07
2.65722e-07
5.22547e-07
2.2051e-07
2.55791e-07
2.73535e-07
5.10615e-07
2.19792e-07
1.67131e-05
2.53929e-05
2.50032e-07
2.51371e-07
6.53419e-07
3.15066e-07
2.5512e-07
2.50064e-07
6.32919e-07
1.83869e-06
1.89348e-06
3.52532e-07
1.80859e-06
1.87104e-06
5.02775e-07
9.59733e-06
4.11826e-07
1.23023e-05
3.61822e-05
4.48698e-05
5.51937e-07
9.51577e-06
4.65737e-07
1.21974e-05
1.40757e-07
1.74609e-07
1.66767e-07
1.44514e-07