/*--------------------------------*- C++ -*----------------------------------*\
| =========                 |                                                 |
| \\      /  F ield         | OpenFOAM: The Open Source CFD Toolbox           |
|  \\    /   O peration     | Version:  v2012                                 |
|   \\  /    A nd           | Website:  www.openfoam.com                      |
|    \\/     M anipulation  |                                                 |
\*---------------------------------------------------------------------------*/
FoamFile
{
    version     2.0;
    format      ascii;
    class       volScalarField;
    location    "1225";
    object      nut;
}
// * * * * * * * * * * * * * * * * * * * * * * * * * * * * * * * * * * * * * //

dimensions      [0 2 -1 0 0 0 0];


internalField   nonuniform List<scalar> 
171728
(
1.58705e-06
1.82716e-06
1.92401e-06
2.31403e-06
1.62718e-06
1.80215e-06
1.92916e-06
2.2544e-06
1.63609e-06
1.78336e-06
1.94701e-06
2.18842e-06
1.64581e-06
1.76485e-06
1.96487e-06
2.13263e-06
1.64788e-06
1.73803e-06
1.97496e-06
2.0902e-06
1.64855e-06
1.70533e-06
1.9743e-06
2.0837e-06
1.64419e-06
1.66328e-06
1.95031e-06
2.10858e-06
1.63867e-06
1.62096e-06
1.89601e-06
2.23818e-06
1.63431e-06
1.57741e-06
1.81739e-06
2.3677e-06
1.63218e-06
1.52707e-06
1.73832e-06
2.43421e-06
1.63085e-06
1.45605e-06
1.65553e-06
2.36425e-06
1.6282e-06
1.3621e-06
1.55528e-06
1.92588e-06
1.62411e-06
1.25954e-06
1.4887e-06
1.63578e-06
1.61945e-06
1.15886e-06
1.45366e-06
1.47099e-06
1.61288e-06
1.06847e-06
1.44438e-06
1.35327e-06
1.6018e-06
9.88235e-07
1.39729e-06
1.24737e-06
1.58864e-06
9.3525e-07
1.2938e-06
1.15615e-06
1.56921e-06
9.09148e-07
1.1976e-06
1.09657e-06
1.54643e-06
9.33229e-07
1.17283e-06
1.1056e-06
1.50996e-06
1.04752e-06
1.20918e-06
1.23301e-06
1.47109e-06
1.21502e-06
1.28725e-06
1.56438e-06
1.41762e-06
1.54427e-06
1.63386e-06
2.29465e-06
1.34639e-06
2.06484e-06
2.11981e-06
3.55429e-06
1.26093e-06
2.80239e-06
2.97354e-06
5.56854e-06
1.16901e-06
3.75026e-06
3.79566e-06
7.56733e-06
1.08117e-06
5.24521e-06
5.31359e-06
1.49626e-05
9.972e-07
6.75734e-06
6.93628e-06
1.69311e-05
9.5368e-07
8.98379e-06
8.81627e-06
2.54189e-05
9.62361e-07
1.16767e-05
1.17037e-05
2.95087e-05
9.62307e-07
1.4269e-05
1.43882e-05
3.58478e-05
1.12039e-06
1.80124e-05
1.7936e-05
4.80458e-05
1.31755e-06
2.18776e-05
2.2326e-05
5.32275e-05
1.51855e-06
2.60736e-05
2.62801e-05
5.52732e-05
2.10008e-06
3.07221e-05
3.05803e-05
6.50519e-05
2.54167e-06
3.64234e-05
3.78739e-05
6.99801e-05
3.30933e-06
4.01787e-05
4.41699e-05
7.46801e-05
4.48886e-06
4.78137e-05
4.50569e-05
7.93652e-05
5.27336e-06
5.2074e-05
5.59811e-05
8.3126e-05
7.24205e-06
5.86291e-05
5.82593e-05
8.74098e-05
8.84384e-06
6.42171e-05
6.5222e-05
9.24778e-05
1.07688e-05
7.24909e-05
7.2141e-05
9.6442e-05
1.39887e-05
7.50953e-05
7.61375e-05
9.83098e-05
1.67461e-05
8.31931e-05
8.23729e-05
0.000102897
1.97656e-05
8.8451e-05
8.98115e-05
0.000107118
2.46759e-05
9.6357e-05
9.64111e-05
0.000112326
2.95773e-05
9.93055e-05
9.68665e-05
0.000114331
3.29339e-05
0.000106586
0.000107951
0.000117663
4.22855e-05
0.000110295
0.000111455
0.000121984
4.32469e-05
0.000117299
0.000115534
0.000125983
4.84227e-05
0.000120675
0.00012334
0.000127574
6.32997e-05
0.000125834
0.000125296
0.000133569
6.53233e-05
0.000132475
0.000128829
0.000135322
6.84418e-05
0.000133771
0.000134161
0.000135978
7.70766e-05
0.000137486
0.00014261
0.000143556
9.09665e-05
0.000147348
0.000143548
0.000145647
9.25367e-05
0.00014832
0.000144166
0.000145333
9.80041e-05
0.000147418
0.000154275
0.000151104
0.000109152
0.00015797
0.000155953
0.000152998
0.00011225
0.000160429
0.000158431
0.000154688
0.000118838
0.000160657
0.000163932
0.00015888
0.000127921
0.000168735
0.000166323
0.000161341
0.000132404
0.000170049
0.000169448
0.000161032
0.000139617
0.000171975
0.000176193
0.00016689
0.000146438
0.000180446
0.000177568
0.000169664
0.000148955
0.000180156
0.000177896
0.000168475
0.000157871
0.000179646
0.000184438
0.000169426
0.000163331
0.000189744
0.00018596
0.000178503
0.000168488
0.000193146
0.000191878
0.000179338
0.000174055
0.000190588
0.000192288
0.000174511
0.000175641
0.000192108
0.00019156
0.000178202
0.000183738
0.000199212
0.000199438
0.000185683
0.000190942
0.000200615
0.000202582
0.000184706
0.000195058
0.000201733
0.000201676
0.000183596
0.00019879
0.000204436
0.000202733
0.000186007
0.000204006
0.000205432
0.000208091
0.000187431
0.000208974
0.000208437
0.000209543
0.000188702
0.000210766
0.000215165
0.000210239
0.000195392
0.000215724
0.000216564
0.000215001
0.000196088
0.000220676
0.000212538
0.000216009
0.000191047
0.00022147
0.000209385
0.000213345
0.000188978
0.00022134
0.000213607
0.00021477
0.000192387
0.000230899
0.000225727
0.000222902
0.000201693
0.000235929
0.000227833
0.000223102
0.000202632
0.000232804
0.000218939
0.000218959
0.000194146
0.000231081
0.000216011
0.000222871
0.00019266
0.000240653
0.000225136
0.000226947
0.000202553
0.000245681
0.000229836
0.000222295
0.000203952
0.000240303
0.000224403
0.000218609
0.000195247
0.000238502
0.00022123
0.000228983
0.000196883
0.000253102
0.000231603
0.000238691
0.000209698
0.000258266
0.000234912
0.000228346
0.000203456
0.000239096
0.000217918
0.000210812
0.000187405
0.000233075
0.00021679
0.000221228
0.000197835
0.000259688
0.000237102
0.000244163
0.000214061
0.000274473
0.000240472
0.000242732
0.000210677
2.29612e-06
2.13216e-06
2.37499e-06
2.27375e-06
2.06247e-06
2.06281e-06
1.56446e-06
1.50404e-06
1.73108e-06
1.72259e-06
2.05486e-06
2.13716e-06
2.27503e-06
2.32807e-06
2.11348e-06
2.31803e-06
2.29353e-06
2.25196e-06
1.78616e-06
3.43626e-06
1.78237e-06
2.42936e-06
2.26706e-06
2.22649e-06
1.75217e-06
2.5313e-06
1.72002e-06
2.36404e-06
1.75066e-06
1.80608e-06
1.72982e-06
2.27415e-06
2.26176e-06
1.85417e-06
1.926e-06
1.80665e-06
2.25669e-06
2.24912e-06
2.20878e-06
1.78057e-06
2.23712e-06
1.77324e-06
1.9671e-06
2.22324e-06
2.19452e-06
1.71231e-06
2.31233e-06
1.68814e-06
2.04994e-06
1.7249e-06
1.78827e-06
1.70863e-06
2.26092e-06
2.23285e-06
1.7954e-06
1.94177e-06
1.77224e-06
2.19085e-06
2.20609e-06
2.16745e-06
1.76862e-06
1.93362e-06
1.75089e-06
1.81005e-06
2.19017e-06
2.15572e-06
1.68075e-06
1.95018e-06
1.66186e-06
1.73121e-06
1.70304e-06
1.77048e-06
1.6875e-06
2.2285e-06
2.18033e-06
1.77692e-06
1.96106e-06
1.82832e-06
2.13462e-06
2.16456e-06
2.12052e-06
1.74279e-06
1.77311e-06
1.71688e-06
1.68477e-06
2.15165e-06
2.10913e-06
1.65614e-06
1.68353e-06
1.63847e-06
1.58789e-06
1.68264e-06
1.74398e-06
1.67049e-06
2.17807e-06
2.13913e-06
1.85009e-06
1.9738e-06
1.94091e-06
2.09616e-06
2.11656e-06
2.06862e-06
1.7086e-06
1.66153e-06
1.68357e-06
1.61806e-06
2.10522e-06
2.06959e-06
1.63231e-06
1.56282e-06
1.60822e-06
1.48716e-06
1.66623e-06
1.71459e-06
1.65026e-06
2.1376e-06
2.09599e-06
1.98091e-06
1.97591e-06
2.12893e-06
2.09099e-06
2.06356e-06
2.01559e-06
1.67326e-06
1.60879e-06
1.64058e-06
1.59398e-06
2.06538e-06
2.03075e-06
1.59821e-06
1.46373e-06
1.56269e-06
1.39955e-06
1.64224e-06
1.67354e-06
1.61066e-06
2.09326e-06
2.02964e-06
2.18661e-06
1.95927e-06
2.40019e-06
2.11291e-06
2.00995e-06
1.96472e-06
1.62721e-06
1.58805e-06
1.58425e-06
1.55013e-06
2.02601e-06
1.98857e-06
1.54894e-06
1.37923e-06
1.50602e-06
1.31977e-06
1.59777e-06
1.6313e-06
1.55318e-06
2.02548e-06
1.94327e-06
2.50442e-06
1.91222e-06
2.94191e-06
2.23385e-06
1.9597e-06
1.91334e-06
1.56893e-06
1.5334e-06
1.52719e-06
1.46705e-06
1.98365e-06
1.93847e-06
1.49039e-06
1.30389e-06
1.44213e-06
1.27452e-06
1.53725e-06
1.58939e-06
1.48294e-06
1.93641e-06
1.84071e-06
3.11938e-06
1.83874e-06
3.69686e-06
2.3773e-06
1.90891e-06
1.84792e-06
1.5135e-06
1.44447e-06
1.47446e-06
1.38082e-06
1.93376e-06
1.87214e-06
1.42413e-06
1.26459e-06
1.37291e-06
1.22607e-06
1.46485e-06
1.54068e-06
1.40744e-06
1.83205e-06
1.72416e-06
3.89334e-06
1.75604e-06
4.38515e-06
2.44242e-06
1.84272e-06
1.76074e-06
1.45897e-06
1.36238e-06
1.41378e-06
1.30544e-06
1.86629e-06
1.77909e-06
1.35683e-06
1.21358e-06
1.30671e-06
1.18274e-06
1.38668e-06
1.47582e-06
1.32505e-06
1.71245e-06
1.59196e-06
4.49559e-06
1.67706e-06
4.56503e-06
2.40329e-06
1.75489e-06
1.67159e-06
1.39683e-06
1.28711e-06
1.34952e-06
1.2368e-06
1.77158e-06
1.67503e-06
1.28912e-06
1.17166e-06
1.23635e-06
1.19674e-06
1.30367e-06
1.38564e-06
1.24038e-06
1.57916e-06
1.53865e-06
4.21905e-06
1.57716e-06
3.04802e-06
1.96212e-06
1.66306e-06
1.5779e-06
1.33317e-06
1.22074e-06
1.27899e-06
1.17359e-06
1.66508e-06
1.5714e-06
1.22068e-06
1.27022e-06
1.1693e-06
1.54885e-06
1.22158e-06
1.28145e-06
1.16924e-06
1.53656e-06
1.6567e-06
2.68711e-06
1.4974e-06
1.8695e-06
1.6578e-06
1.5659e-06
1.47416e-06
1.2599e-06
1.15715e-06
1.19149e-06
1.10396e-06
1.55818e-06
1.46157e-06
1.1528e-06
1.68832e-06
1.10252e-06
2.51153e-06
1.15471e-06
1.18111e-06
1.10965e-06
1.6895e-06
1.93584e-06
1.68453e-06
1.45782e-06
1.34027e-06
1.48936e-06
1.45797e-06
1.36818e-06
1.16674e-06
1.08252e-06
1.09033e-06
1.02037e-06
1.44434e-06
1.34583e-06
1.08797e-06
2.95642e-06
1.04345e-06
4.67414e-06
1.09558e-06
1.08801e-06
1.05218e-06
1.99568e-06
2.48263e-06
1.27802e-06
1.44629e-06
1.15538e-06
1.37366e-06
1.34895e-06
1.26738e-06
1.06946e-06
9.99028e-07
1.00621e-06
9.41734e-07
1.32419e-06
1.23328e-06
1.0299e-06
5.28621e-06
9.9201e-07
6.59126e-06
1.03697e-06
1.00515e-06
9.93642e-07
2.56931e-06
2.87823e-06
1.12976e-06
1.40739e-06
1.06099e-06
1.27055e-06
1.24528e-06
1.17558e-06
9.89361e-07
9.21174e-07
9.44107e-07
8.79013e-07
1.21039e-06
1.13582e-06
9.80122e-07
6.78887e-06
9.57337e-07
6.57788e-06
9.79411e-07
9.46181e-07
9.38828e-07
2.84468e-06
2.60113e-06
1.04459e-06
1.32114e-06
9.99256e-07
1.17593e-06
1.15677e-06
1.11163e-06
9.32051e-07
8.6734e-07
9.14718e-07
8.44206e-07
1.11608e-06
1.0699e-06
9.49752e-07
6.11222e-06
9.46884e-07
3.57795e-06
9.3256e-07
9.14991e-07
9.06248e-07
2.46907e-06
1.62904e-06
9.83341e-07
1.22499e-06
9.50662e-07
1.10645e-06
1.103e-06
1.11037e-06
9.10159e-07
8.3988e-07
9.20338e-07
8.6275e-07
1.06156e-06
1.06554e-06
9.52651e-07
2.85378e-06
9.7664e-07
1.67696e-06
9.08752e-07
9.27111e-07
9.20581e-07
1.5615e-06
1.32188e-06
9.41081e-07
1.18729e-06
9.37045e-07
1.09473e-06
1.11936e-06
1.23309e-06
9.37646e-07
8.73553e-07
9.97207e-07
9.51758e-07
1.07513e-06
1.18394e-06
9.96871e-07
1.52626e-06
1.07021e-06
1.32868e-06
9.29026e-07
1.0084e-06
1.00272e-06
1.27889e-06
1.2846e-06
9.44015e-07
1.14996e-06
9.95465e-07
1.19104e-06
1.26482e-06
1.52455e-06
1.01946e-06
9.86228e-07
1.18114e-06
1.10722e-06
1.23575e-06
1.45702e-06
1.09741e-06
1.34291e-06
1.25335e-06
1.35895e-06
1.02632e-06
1.15514e-06
1.16583e-06
1.34668e-06
1.53634e-06
1.03384e-06
1.27405e-06
1.143e-06
1.48364e-06
1.6457e-06
2.09466e-06
1.24101e-06
1.16757e-06
1.44711e-06
1.41606e-06
1.52988e-06
2.12271e-06
1.31166e-06
1.34039e-06
1.5255e-06
1.50046e-06
1.23777e-06
1.46382e-06
1.43621e-06
1.57517e-06
2.15622e-06
1.20223e-06
1.54536e-06
1.45685e-06
2.14749e-06
2.24326e-06
3.16278e-06
1.52526e-06
1.50425e-06
1.90834e-06
1.91441e-06
2.32258e-06
3.18508e-06
1.60836e-06
1.57505e-06
1.98547e-06
1.86604e-06
1.53471e-06
1.93101e-06
1.99428e-06
2.3565e-06
3.04942e-06
1.53024e-06
1.92255e-06
1.96816e-06
3.27794e-06
3.47579e-06
5.05963e-06
2.05882e-06
2.0449e-06
2.60373e-06
2.54323e-06
3.49224e-06
4.89567e-06
2.13715e-06
2.04303e-06
2.67789e-06
2.59448e-06
2.0553e-06
2.54982e-06
2.64263e-06
3.30671e-06
5.04269e-06
2.05961e-06
2.76993e-06
2.68129e-06
4.82726e-06
5.47548e-06
7.62661e-06
2.81723e-06
2.81159e-06
3.53324e-06
3.51255e-06
5.27855e-06
7.83048e-06
2.88767e-06
2.80965e-06
3.61905e-06
3.58734e-06
2.98363e-06
3.48922e-06
3.47383e-06
5.47905e-06
7.58768e-06
3.03225e-06
3.56902e-06
3.5711e-06
7.43806e-06
8.20771e-06
1.14317e-05
3.77966e-06
3.77085e-06
4.83874e-06
4.92475e-06
8.42219e-06
1.15442e-05
3.87006e-06
3.82601e-06
4.92856e-06
4.92657e-06
3.56526e-06
4.88865e-06
5.37263e-06
8.20444e-06
1.14361e-05
3.70976e-06
4.92136e-06
5.5176e-06
1.31754e-05
1.23549e-05
1.66738e-05
5.27144e-06
5.30753e-06
6.39704e-06
6.40015e-06
1.25451e-05
1.62522e-05
5.35773e-06
5.35227e-06
6.48088e-06
6.41895e-06
5.96707e-06
6.33209e-06
6.56911e-06
1.23557e-05
1.65713e-05
6.01878e-06
6.36001e-06
6.52651e-06
1.68739e-05
1.76246e-05
2.24982e-05
6.87003e-06
6.81571e-06
8.54979e-06
8.45111e-06
1.70058e-05
2.2304e-05
6.95078e-06
6.9802e-06
8.59762e-06
8.5623e-06
6.64918e-06
8.35453e-06
8.87929e-06
1.74889e-05
2.24703e-05
6.70655e-06
8.4806e-06
9.15867e-06
2.25408e-05
2.38168e-05
2.93627e-05
9.0607e-06
9.07667e-06
1.08801e-05
1.10717e-05
2.37223e-05
2.99325e-05
9.14319e-06
8.91678e-06
1.09229e-05
1.09228e-05
9.87484e-06
1.09738e-05
1.07889e-05
2.37593e-05
2.87466e-05
9.93187e-06
1.0945e-05
1.12916e-05
2.9288e-05
3.05924e-05
3.66158e-05
1.16676e-05
1.18053e-05
1.35534e-05
1.38015e-05
3.1379e-05
3.6551e-05
1.16904e-05
1.17556e-05
1.3663e-05
1.40089e-05
1.13382e-05
1.36697e-05
1.3206e-05
3.01668e-05
3.73237e-05
1.18658e-05
1.36262e-05
1.32848e-05
3.34315e-05
3.81292e-05
4.38113e-05
1.4327e-05
1.4394e-05
1.73945e-05
1.701e-05
3.77035e-05
4.32364e-05
1.44194e-05
1.47725e-05
1.74908e-05
1.69197e-05
1.40401e-05
1.68605e-05
1.83574e-05
3.86126e-05
4.31412e-05
1.3481e-05
1.69311e-05
1.78248e-05
4.5974e-05
4.5254e-05
5.07953e-05
1.81245e-05
1.81928e-05
2.08817e-05
2.11305e-05
4.48626e-05
5.11123e-05
1.81993e-05
1.77964e-05
2.08145e-05
2.13907e-05
1.98493e-05
2.10411e-05
2.21021e-05
4.46824e-05
5.09586e-05
2.01955e-05
2.15301e-05
2.37936e-05
5.28457e-05
5.20861e-05
5.65542e-05
2.22326e-05
2.19705e-05
2.47156e-05
2.5065e-05
5.24061e-05
5.66332e-05
2.23029e-05
2.22729e-05
2.48974e-05
2.4838e-05
2.21059e-05
2.48956e-05
2.40989e-05
5.228e-05
5.69208e-05
2.40156e-05
2.47354e-05
2.47648e-05
5.41385e-05
5.77873e-05
6.3297e-05
2.53832e-05
2.62548e-05
2.98735e-05
2.95417e-05
5.78934e-05
6.29674e-05
2.54486e-05
2.63495e-05
2.9829e-05
3.00005e-05
2.52408e-05
2.93406e-05
2.97664e-05
5.82382e-05
6.27804e-05
2.52587e-05
2.99412e-05
2.96099e-05
6.3304e-05
6.47253e-05
6.83982e-05
3.18199e-05
3.09149e-05
3.49757e-05
3.54272e-05
6.43353e-05
6.89986e-05
3.18364e-05
3.05719e-05
3.50437e-05
3.4549e-05
3.17417e-05
3.53155e-05
3.58916e-05
6.39326e-05
6.90767e-05
3.16641e-05
3.53775e-05
3.55049e-05
6.92045e-05
6.91588e-05
7.26607e-05
3.50541e-05
3.65397e-05
3.93771e-05
3.92157e-05
6.99742e-05
7.25942e-05
3.51379e-05
3.6639e-05
3.95073e-05
4.15433e-05
3.60661e-05
3.90058e-05
3.97752e-05
7.05621e-05
7.41898e-05
3.60181e-05
4.32818e-05
3.99554e-05
7.33323e-05
7.41564e-05
7.90637e-05
4.12784e-05
4.04092e-05
4.62813e-05
4.60211e-05
7.36454e-05
7.85716e-05
4.13968e-05
4.23144e-05
4.6362e-05
4.28764e-05
4.19927e-05
4.59187e-05
4.60877e-05
7.48553e-05
7.69032e-05
4.21891e-05
4.46542e-05
4.66135e-05
7.85764e-05
7.99217e-05
8.20726e-05
4.78669e-05
4.79384e-05
5.0935e-05
5.11732e-05
7.97959e-05
8.22976e-05
4.7979e-05
4.52344e-05
5.07256e-05
5.3631e-05
4.69485e-05
5.10662e-05
5.08683e-05
7.81157e-05
8.40707e-05
4.68914e-05
5.37086e-05
5.01647e-05
8.21028e-05
8.28029e-05
8.66924e-05
5.18197e-05
5.20726e-05
5.70504e-05
5.68562e-05
8.30266e-05
8.63378e-05
5.16332e-05
5.52613e-05
5.74563e-05
5.66665e-05
5.28263e-05
5.66674e-05
5.7197e-05
8.49197e-05
8.60503e-05
5.25307e-05
5.81028e-05
5.75231e-05
8.6582e-05
8.79154e-05
9.0796e-05
5.90475e-05
5.87745e-05
6.32641e-05
6.33371e-05
8.74827e-05
9.08623e-05
5.95305e-05
5.65987e-05
6.34902e-05
6.31879e-05
5.79529e-05
6.30026e-05
6.30226e-05
8.65589e-05
9.10051e-05
5.83338e-05
6.32955e-05
6.399e-05
9.11616e-05
9.14995e-05
9.42279e-05
6.46765e-05
6.44648e-05
6.86877e-05
7.03517e-05
9.16798e-05
9.52475e-05
6.46947e-05
6.54032e-05
6.89087e-05
7.07041e-05
6.56953e-05
7.04343e-05
7.14722e-05
9.23588e-05
9.52219e-05
6.69273e-05
7.10884e-05
7.33541e-05
9.59805e-05
9.51889e-05
9.88624e-05
7.01484e-05
7.24606e-05
7.57583e-05
7.4446e-05
9.61596e-05
9.79294e-05
7.0602e-05
7.16531e-05
7.56327e-05
7.43105e-05
7.19101e-05
7.42407e-05
7.39454e-05
9.58449e-05
9.79143e-05
7.43393e-05
7.4198e-05
7.45914e-05
9.76503e-05
9.96715e-05
0.000102276
7.73978e-05
7.52955e-05
8.13872e-05
8.16412e-05
9.84546e-05
0.000102339
7.68521e-05
7.6504e-05
8.14724e-05
8.18045e-05
7.63665e-05
8.14714e-05
8.14262e-05
9.87404e-05
0.000102486
7.47755e-05
8.15767e-05
8.01406e-05
0.000102234
0.000103047
0.000105924
8.28291e-05
8.33609e-05
8.65945e-05
8.68726e-05
0.000103461
0.000106021
8.35533e-05
8.23299e-05
8.70603e-05
8.68517e-05
8.17448e-05
8.65532e-05
8.56249e-05
0.000103124
0.000106269
8.17615e-05
8.71824e-05
8.833e-05
0.000105983
0.000106629
0.000110509
8.80799e-05
8.87214e-05
9.45575e-05
9.49185e-05
0.000106764
0.000111077
8.77411e-05
8.96141e-05
9.33917e-05
9.57308e-05
8.79711e-05
9.50244e-05
9.59328e-05
0.00010752
0.00011101
9.0258e-05
9.55706e-05
9.49204e-05
0.000111573
0.000111511
0.00011344
9.64463e-05
9.61815e-05
9.8608e-05
9.83364e-05
0.000111743
0.000113081
9.58781e-05
9.6623e-05
9.95462e-05
9.69359e-05
9.81471e-05
9.84632e-05
0.000101624
0.000111365
0.000112133
9.65694e-05
9.66689e-05
9.86166e-05
0.000114015
0.000113725
0.000117941
9.85996e-05
9.92141e-05
0.00010385
0.000104493
0.000113527
0.000117556
9.96048e-05
9.69201e-05
0.000105562
0.000105325
0.000101698
0.000104484
0.000103079
0.000112628
0.000118501
9.90019e-05
0.000105585
0.000104036
0.000116612
0.000119426
0.000122173
0.000106808
0.000106713
0.000112073
0.000110203
0.000118615
0.000121095
0.000108439
0.000107932
0.000112514
0.000111706
0.000104979
0.000109689
0.000109685
0.000119623
0.000121248
0.000106072
0.000111299
0.000109813
0.000121397
0.000122247
0.000121973
0.000112668
0.000110694
0.000112746
0.000114921
0.000121428
0.000124628
0.0001127
0.000112024
0.00011258
0.000112141
0.000111303
0.000115363
0.000116734
0.000121443
0.00012335
0.000110929
0.000112447
0.000115877
0.000125285
0.000122365
0.000129312
0.000112495
0.000116741
0.000120778
0.000120017
0.000125645
0.00012812
0.000112206
0.000114543
0.000119127
0.000123401
0.000118104
0.000120053
0.000119151
0.000124685
0.000130464
0.000117236
0.000122555
0.000118605
0.000127196
0.000130876
0.000133184
0.000123392
0.0001209
0.000126559
0.000124428
0.000128401
0.000131177
0.000123023
0.000125054
0.000129321
0.00012683
0.000119557
0.000124116
0.000125576
0.000130869
0.000131444
0.000119316
0.000123821
0.000125175
0.000132453
0.000133245
0.000134254
0.000126485
0.000125895
0.000129162
0.000130809
0.000132101
0.000136066
0.000129594
0.000127241
0.000129926
0.000128
0.000127807
0.000131256
0.000131278
0.000131742
0.000133411
0.000127455
0.000128586
0.000131188
0.000135293
0.000134881
0.000136091
0.000130616
0.000132097
0.000131985
0.00013376
0.000136525
0.000137153
0.000130201
0.000128112
0.000130555
0.000131643
0.000131515
0.000133736
0.000131327
0.000133606
0.000136898
0.000131481
0.000131828
0.000131418
0.000135526
0.000136553
0.000142366
0.000132628
0.000133849
0.000138987
0.000134809
0.000137177
0.000139107
0.000131459
0.000134183
0.00013942
0.000141601
0.00013127
0.000134701
0.00013844
0.000138265
0.000143765
0.000131332
0.000141321
0.000138466
0.000142238
0.000143546
0.000144983
0.000141155
0.000137419
0.000144566
0.000145645
0.000140381
0.000146805
0.000141862
0.000142873
0.000145104
0.00014366
0.000141287
0.000145875
0.00014575
0.000144028
0.000143374
0.000141337
0.000143552
0.000145504
0.000145682
0.000144946
0.000145087
0.000144905
0.000147192
0.000144843
0.000148446
0.000147305
0.000147133
0.000145332
0.000143608
0.000145125
0.000142973
0.000146142
0.000148345
0.00014619
0.000143323
0.000144306
0.000145809
0.000143019
0.000145833
0.000145259
0.000145671
0.000150942
0.000145692
0.000148438
0.000151175
0.000147753
0.000147068
0.000147102
0.000144964
0.000143745
0.00015139
0.000152533
0.000145933
0.00014751
0.000149617
0.000145393
0.000151979
0.000145591
0.000152636
0.00015047
0.000150177
0.000151521
0.000152339
0.000152425
0.000147775
0.000154594
0.000156198
0.000147799
0.000154405
0.000153378
0.000154404
0.000155885
0.000156566
0.000151376
0.000155987
0.000155352
0.000152371
0.000152585
0.000152699
0.000156003
0.000155473
0.000152718
0.000152413
0.000154535
0.000155331
0.000158078
0.000158675
0.000160268
0.000155108
0.000155638
0.000155888
0.000156561
0.000157245
0.000156707
0.000156503
0.000160305
0.000158567
0.00015252
0.000154163
0.000156034
0.000156776
0.00015756
0.000154486
0.00015519
0.000157677
0.000159679
0.000160387
0.000161784
0.00016018
0.000155591
0.000155797
0.00015833
0.000158136
0.000162186
0.000162733
0.00015892
0.000160239
0.000161872
0.000155052
0.000158305
0.000158131
0.000162714
0.000162332
0.000157904
0.000158218
0.000160798
0.000162825
0.000160199
0.000166603
0.000166928
0.00015641
0.000161767
0.000163692
0.000164101
0.000167152
0.000166481
0.000163607
0.000167439
0.000167789
0.000158751
0.000159979
0.000164201
0.000166146
0.000167689
0.000161343
0.000160998
0.000162085
0.000167382
0.00016848
0.000169173
0.000170239
0.000162148
0.00016233
0.00016764
0.000166697
0.000168379
0.000168064
0.000168412
0.000169982
0.000168871
0.000160045
0.000161839
0.000168079
0.00016791
0.0001683
0.000161118
0.000162739
0.000166444
0.000170185
0.000170325
0.000173896
0.00017056
0.000162255
0.000163934
0.000169804
0.000169873
0.000174657
0.000175162
0.000168881
0.000170178
0.000171036
0.000162756
0.000167127
0.000168284
0.000174998
0.000172677
0.000165498
0.000166672
0.000167005
0.00017497
0.00017236
0.00017639
0.00017927
0.000165068
0.00017038
0.000175576
0.000176089
0.000176604
0.000176974
0.000173911
0.000179579
0.000179446
0.000167347
0.00016736
0.000175315
0.000177515
0.000179267
0.000169703
0.000166894
0.000169512
0.000176583
0.000180096
0.000179236
0.000180414
0.000170463
0.000169159
0.000176632
0.000176995
0.000177559
0.000176827
0.000179988
0.000180761
0.000179944
0.000167274
0.000168299
0.000179453
0.000177346
0.000178932
0.0001686
0.000170452
0.000173021
0.000180545
0.000180029
0.000183491
0.000179731
0.000168983
0.000169064
0.000179694
0.000178397
0.000184685
0.000184237
0.00017945
0.000179726
0.000179138
0.000169057
0.000173156
0.000178661
0.000183276
0.000178589
0.000168769
0.000173111
0.000173868
0.000183881
0.000179678
0.000184665
0.000186547
0.000169512
0.000176531
0.000185334
0.00018522
0.000186294
0.000186202
0.000179231
0.000186908
0.000187612
0.000173346
0.000173733
0.000179345
0.000185634
0.000188011
0.00017738
0.000174394
0.000177347
0.00018612
0.000189047
0.000190778
0.000192215
0.000177719
0.000179403
0.000186847
0.000186243
0.000189283
0.000189682
0.000190452
0.000192632
0.000193082
0.000173825
0.000178018
0.000190373
0.000190891
0.000192752
0.000179915
0.000177388
0.000176812
0.000191289
0.000192608
0.000191768
0.00019128
0.000179043
0.000176146
0.000189763
0.000190942
0.000190397
0.00019222
0.000193579
0.00019081
0.000189905
0.0001784
0.000178115
0.000193182
0.000192825
0.00018986
0.000174724
0.000176692
0.00017775
0.00019162
0.000191086
0.000191517
0.000190602
0.000175928
0.000177961
0.000190436
0.000192097
0.00019075
0.000191887
0.000189499
0.00019008
0.000188863
0.000177738
0.000177069
0.000189397
0.000191704
0.000188813
0.000176703
0.000178507
0.000184586
0.000191557
0.00019171
0.000198187
0.000197702
0.000178998
0.000183535
0.000192491
0.000191802
0.000199817
0.000197726
0.000191033
0.000198435
0.000199783
0.000177262
0.000183774
0.000190295
0.000196967
0.000199668
0.000185466
0.000184841
0.000184261
0.000199752
0.000198884
0.000201315
0.000200526
0.000183604
0.000183697
0.000200678
0.000199905
0.000201731
0.000202048
0.000200881
0.000200435
0.00020225
0.000184642
0.000185689
0.000201128
0.000202081
0.000202711
0.000185048
0.000183834
0.00018289
0.000201393
0.000200759
0.000200992
0.000201209
0.000183595
0.000184316
0.000201047
0.000202469
0.000200275
0.000201184
0.000202048
0.000201184
0.000201464
0.00018536
0.000183762
0.000202622
0.000201751
0.000201412
0.000183721
0.000182856
0.000187228
0.000200936
0.000201556
0.000202701
0.000203603
0.000184632
0.000186849
0.000200184
0.000201123
0.000202804
0.00020106
0.000201397
0.000203848
0.00020184
0.000183499
0.00018534
0.000201345
0.000201414
0.000201275
0.000185437
0.000188284
0.000190953
0.000205082
0.000204404
0.000208479
0.000205905
0.000186923
0.000187407
0.000205371
0.000203005
0.000209177
0.000208203
0.000203193
0.000205248
0.000205224
0.000186166
0.000189717
0.00020262
0.000207377
0.000205655
0.000187518
0.000190779
0.000188931
0.000208888
0.000206297
0.000208905
0.000208418
0.00018737
0.000189252
0.000209491
0.000208785
0.000209464
0.000209933
0.000205553
0.000207238
0.000206287
0.00018977
0.000189951
0.000206036
0.000209363
0.000207456
0.000188174
0.00018868
0.000188833
0.000208769
0.00020945
0.000208674
0.000213709
0.000189846
0.000194353
0.000208836
0.000209808
0.000208383
0.000209508
0.000207183
0.000213747
0.000214079
0.000189798
0.000189765
0.000208791
0.000209948
0.000213749
0.000194797
0.000189172
0.000193825
0.000209353
0.000214787
0.000214283
0.000215648
0.000194655
0.000195066
0.00020832
0.000209497
0.000212665
0.000212521
0.000216052
0.000216481
0.000217959
0.000189819
0.000193767
0.00021522
0.000214217
0.000216628
0.000196609
0.000194061
0.000194346
0.000214757
0.000215761
0.000215711
0.000212822
0.000194744
0.000191433
0.000214247
0.000214252
0.000215789
0.000216018
0.000218132
0.000214256
0.000214869
0.000194135
0.000195008
0.000216791
0.000215925
0.000213909
0.000191978
0.000193822
0.000192042
0.000214896
0.000211469
0.000212894
0.000209586
0.000190532
0.000188679
0.000216341
0.000216606
0.000214745
0.000214835
0.000212922
0.000209532
0.000209518
0.000194564
0.000192155
0.000212582
0.000213615
0.000210646
0.000189123
0.000191856
0.000193821
0.000212803
0.000209563
0.000213627
0.00021209
0.000188437
0.000192541
0.000214457
0.000214276
0.000214462
0.000214008
0.000209275
0.000210357
0.00020982
0.000191906
0.000192821
0.000210584
0.000213466
0.000211631
0.000191322
0.000194708
0.000199756
0.000216142
0.00021544
0.000222693
0.000224059
0.000193903
0.000201546
0.000215288
0.000214175
0.000221526
0.000221121
0.000211823
0.000223705
0.000223002
0.000193516
0.00019959
0.000213961
0.000221953
0.000222885
0.000200962
0.000199875
0.000199733
0.000223609
0.000225547
0.000224607
0.000226732
0.000201983
0.000202778
0.00022256
0.00022231
0.000223588
0.000223675
0.000225564
0.000227318
0.000227725
0.00019977
0.00019922
0.000224846
0.000224216
0.000226468
0.000203566
0.00019882
0.000194518
0.000224459
0.00022715
0.000218785
0.00022016
0.000201921
0.000195524
0.000223579
0.000222948
0.000219022
0.000219304
0.000228349
0.000221523
0.000221644
0.000198056
0.000194931
0.000227115
0.000219165
0.000220407
0.000195502
0.000194122
0.000195264
0.000217767
0.000218091
0.000217311
0.000216289
0.000194296
0.000192748
0.000218318
0.000219114
0.000218164
0.00022056
0.000218743
0.000216132
0.000215809
0.000194579
0.000198992
0.000218341
0.000220304
0.000216742
0.000192431
0.00019613
0.000202806
0.000217719
0.000216214
0.000226308
0.000223478
0.00019292
0.0002005
0.000219331
0.000223075
0.000226573
0.000226501
0.00021563
0.000221544
0.000222516
0.000199943
0.000203113
0.000216644
0.000226677
0.000224921
0.000201542
0.00020302
0.000202755
0.000227881
0.00022642
0.000229333
0.00022937
0.00020157
0.000204641
0.00022744
0.000226804
0.000228645
0.000224287
0.000226134
0.000229384
0.000229572
0.00020266
0.000197571
0.00022729
0.000224786
0.000229229
0.000205125
0.000201549
0.000196182
0.000229487
0.000229972
0.000222635
0.000225868
0.000204342
0.000199419
0.00022737
0.000222033
0.000221526
0.00021908
0.000230293
0.00022712
0.000224412
0.000196068
0.00019367
0.000229886
0.000218652
0.000221719
0.000196361
0.000195635
0.000196736
0.00022122
0.000223425
0.000220465
0.000220832
0.000198019
0.000195814
0.000220759
0.000219073
0.000220961
0.000224519
0.000222023
0.000221368
0.000220385
0.000193594
0.000202551
0.000220154
0.000223525
0.00021964
0.000195447
0.00019783
0.00020766
0.000220883
0.000220746
0.000231704
0.000228376
0.000195583
0.000204572
0.000222865
0.000229462
0.000233892
0.000237858
0.000220449
0.000228488
0.00023292
0.000204353
0.000211766
0.000221305
0.000238343
0.000235424
0.00020927
0.000208109
0.000207527
0.000234029
0.000231675
0.000235548
0.000234245
0.000205556
0.00020795
0.000235294
0.000238163
0.000236291
0.000235855
0.000235007
0.000234
0.000236929
0.000211728
0.000203569
0.000236826
0.00023632
0.000238244
0.000207355
0.000204707
0.000190903
0.000235717
0.000235189
0.000219408
0.000221668
0.000205976
0.00019345
0.000233903
0.000228168
0.000216716
0.000211728
0.000234273
0.000220963
0.000216073
0.000199251
0.000185879
0.000232439
0.00021195
0.000214214
0.000187983
0.000189634
0.000191261
0.000216215
0.00021823
0.00021448
0.000216056
0.000191988
0.000192459
0.000214167
0.000210435
0.000213225
0.000211438
0.000214087
0.000216155
0.000213635
0.000185505
0.000194318
0.0002127
0.00021238
0.000213377
0.000194814
0.000193402
0.00021079
0.000215026
0.000216131
0.000234905
0.00023358
0.000194129
0.000208846
0.000215481
0.000219646
0.000237274
0.000242112
0.00021976
0.000234235
0.000239022
0.00019767
0.000215688
0.000221708
0.000242312
0.000241112
0.000213847
0.000211709
0.000213613
0.000238535
0.000236795
0.000245764
0.000243641
0.000209581
0.000211228
0.000240599
0.000244322
0.000247463
0.000249644
0.000240799
0.000243533
0.000245438
0.000216048
0.000213701
0.000242583
0.000248884
0.000246388
0.000210959
0.000214521
0.000242876
0.00024078
0.000212465
0.000243813
0.000243655
0.000270204
0.000278432
0.000274324
0.000240058
0.000213045
0.000240071
3.32033e-06
2.00594e-06
1.38309e-06
1.46343e-06
1.36245e-06
1.98289e-06
6.20675e-07
1.30938e-06
1.1894e-06
2.18606e-06
1.45836e-06
8.49697e-07
2.32227e-06
2.06441e-06
1.83528e-06
1.03977e-06
1.33929e-05
9.25053e-07
1.51468e-05
1.07112e-05
1.28759e-05
1.33977e-06
1.33013e-05
1.25928e-06
1.50479e-05
1.5297e-06
1.72694e-06
1.73513e-06
1.62435e-06
1.52617e-06
1.72713e-06
1.77299e-06
1.30284e-06
3.31107e-07
1.62732e-06
1.81529e-06
1.33848e-06
4.39735e-07
1.63332e-06
1.19577e-05
1.4112e-05
1.2073e-06
1.71498e-06
4.5645e-07
1.92297e-06
1.1948e-06
1.71825e-06
5.79175e-07
1.44943e-06
1.50188e-06
2.28857e-06
1.65234e-06
1.70313e-06
1.35174e-06
1.83404e-05
1.24357e-06
2.0777e-05
1.70333e-05
1.89562e-05
1.52175e-06
1.82672e-05
1.44216e-06
2.06745e-05
1.5173e-06
1.72716e-06
1.77728e-06
1.63384e-06
1.53551e-06