/*--------------------------------*- C++ -*----------------------------------*\
| =========                 |                                                 |
| \\      /  F ield         | OpenFOAM: The Open Source CFD Toolbox           |
|  \\    /   O peration     | Version:  v2006                                 |
|   \\  /    A nd           | Website:  www.openfoam.com                      |
|    \\/     M anipulation  |                                                 |
\*---------------------------------------------------------------------------*/
FoamFile
{
    version     2.0;
    format      ascii;
    class       volScalarField;
    location    "1000";
    object      k;
}
// * * * * * * * * * * * * * * * * * * * * * * * * * * * * * * * * * * * * * //

dimensions      [0 2 -2 0 0 0 0];


internalField   nonuniform List<scalar> 
14310
(
3.3771e-05
2.70559e-05
2.72024e-05
7.07126e-05
6.08861e-05
7.08021e-05
6.13636e-05
6.93025e-05
6.93345e-05
6.40319e-05
6.43211e-05
6.09359e-05
5.56972e-05
2.00549e-05
4.65755e-05
1.98792e-05
4.65823e-05
5.60709e-05
2.02763e-05
4.69198e-05
6.13489e-05
2.02552e-05
4.69001e-05
7.00299e-05
7.51777e-05
7.08257e-05
6.99276e-05
7.56221e-05
6.98296e-05
6.10185e-05
6.95012e-05
6.46818e-05
6.97733e-05
6.95432e-05
6.49307e-05
7.00999e-05
7.5848e-05
7.08988e-05
7.00306e-05
7.61717e-05
6.9887e-05
6.16561e-05
6.53184e-05
6.95309e-05
6.98389e-05
6.56616e-05
6.95685e-05
6.94376e-05
6.94643e-05
6.73555e-05
5.39851e-05
7.05631e-05
6.47148e-05
6.59208e-05
7.08622e-05
5.49135e-05
6.75456e-05
5.42026e-05
7.06219e-05
6.49721e-05
6.61215e-05
7.09144e-05
5.51287e-05
9.13707e-05
7.22325e-05
7.22302e-05
8.88548e-05
7.27189e-05
7.27127e-05
7.00995e-05
7.54604e-05
7.00106e-05
7.59397e-05
6.98962e-05
6.4853e-05
6.10935e-05
6.95158e-05
6.95606e-05
6.98335e-05
6.52275e-05
7.00979e-05
7.00284e-05
7.61062e-05
6.98766e-05
6.16504e-05
6.9528e-05
6.52914e-05
6.95654e-05
6.9829e-05
6.56242e-05
5.53257e-05
4.37348e-05
4.38176e-05
3.42981e-05
5.41879e-05
4.45548e-05
4.46431e-05
3.99624e-05
5.26611e-05
3.97113e-05
5.31123e-05
4.03723e-05
4.56527e-05
5.28981e-05
5.62344e-05
5.33333e-05
4.01295e-05
4.61836e-05
3.7011e-05
4.6643e-05
4.91865e-05
3.4681e-05
4.93411e-05
3.68978e-05
3.4753e-05
3.68901e-05
4.91578e-05
4.66589e-05
3.46567e-05
3.67676e-05
4.93549e-05
3.47338e-05
4.07017e-05
4.59331e-05
5.34187e-05
5.65683e-05
5.38224e-05
4.04508e-05
4.6463e-05
3.73683e-05
4.71492e-05
4.96192e-05
3.49911e-05
4.99392e-05
3.72329e-05
3.50905e-05
4.06788e-05
5.38518e-05
3.7315e-05
4.71482e-05
3.49562e-05
4.96073e-05
3.71626e-05
3.5062e-05
4.99334e-05
7.0536e-05
7.05537e-05
7.03919e-05
7.00521e-05
6.99834e-05
7.04391e-05
6.98437e-05
7.03937e-05
7.04673e-05
7.01889e-05
7.00066e-05
6.99294e-05
7.02762e-05
7.03247e-05
6.99015e-05
7.05062e-05
4.0899e-05
4.79565e-05
4.05624e-05
3.48825e-05
3.45015e-05
4.22337e-05
2.32463e-05
1.92309e-05
7.19092e-05
7.20713e-05
4.00618e-05
5.73398e-05
6.3981e-05
7.00484e-05
7.05179e-05
4.73178e-05
7.21536e-05
7.11395e-05
7.23485e-05
7.11718e-05
7.00335e-05
7.02959e-05
5.198e-05
6.39816e-05
5.27642e-05
3.9778e-05
5.07929e-05
2.98091e-05
6.29217e-05
2.86676e-05
4.71642e-05
6.44282e-05
7.17335e-05
7.17043e-05
6.5737e-05
5.23051e-05
3.33404e-05
2.75256e-05
5.35241e-05
2.6973e-05
5.75899e-05
4.54452e-05
6.43764e-05
7.19921e-05
7.15173e-05
6.57124e-05
2.69843e-05
5.29178e-05
4.42046e-05
7.21259e-05
6.56519e-05
6.91421e-05
6.9063e-05
7.03381e-05
7.03866e-05
7.04811e-05
7.20086e-05
7.92301e-05
7.92489e-05
7.04401e-05
7.0525e-05
7.90968e-05
7.20646e-05
7.0528e-05
7.92223e-05
7.02242e-05
7.04321e-05
0.000104771
7.47331e-05
7.47623e-05
0.00010476
7.44146e-05
7.45159e-05
7.86575e-05
6.59169e-05
7.24498e-05
7.25864e-05
6.59978e-05
7.29784e-05
7.82231e-05
7.83062e-05
6.52251e-05
7.12839e-05
7.2491e-05
7.27769e-05
6.5286e-05
7.79507e-05
7.8722e-05
7.33865e-05
6.57055e-05
7.24788e-05
6.59612e-05
7.85736e-05
7.33003e-05
7.83475e-05
7.31207e-05
6.50253e-05
7.12896e-05
7.81685e-05
7.3044e-05
6.52502e-05
0.000104192
7.3333e-05
7.34956e-05
7.38469e-05
7.39763e-05
0.000102264
7.01233e-05
7.02478e-05
7.01024e-05
6.36581e-05
6.98054e-05
6.77826e-05
6.97513e-05
6.73706e-05
7.01701e-05
7.01912e-05
6.79647e-05
6.98271e-05
6.48949e-05
7.0107e-05
6.84677e-05
6.98881e-05
7.04868e-05
7.17333e-05
7.84181e-05
7.80673e-05
7.05833e-05
7.04256e-05
7.72954e-05
7.17282e-05
7.02893e-05
7.77025e-05
7.02475e-05
6.53162e-05
6.93544e-05
6.99777e-05
6.8911e-05
6.99302e-05
7.03151e-05
7.02689e-05
6.9848e-05
6.81784e-05
6.48526e-05
7.02146e-05
6.99037e-05
6.86498e-05
7.04397e-05
7.18625e-05
7.89721e-05
7.87601e-05
7.04579e-05
7.04277e-05
7.80787e-05
7.17071e-05
7.03715e-05
7.84787e-05
7.02978e-05
6.52858e-05
6.99804e-05
6.94222e-05
6.99409e-05
6.90454e-05
7.03253e-05
7.19697e-05
7.92837e-05
7.8949e-05
6.49929e-05
6.95341e-05
6.89847e-05
7.19568e-05
6.20105e-05
6.75358e-05
7.29448e-05
5.99017e-05
7.23728e-05
7.46914e-05
7.1678e-05
6.16715e-05
6.73036e-05
7.29435e-05
5.94062e-05
7.23411e-05
7.44956e-05
9.62511e-05
7.49561e-05
7.49292e-05
7.42989e-05
7.42759e-05
0.000100155
7.00918e-05
7.01253e-05
5.66943e-05
5.69763e-05
6.69295e-05
6.70298e-05
4.79599e-05
5.70048e-05
5.67206e-05
5.22528e-05
6.29429e-05
5.24735e-05
6.05011e-05
4.07442e-05
5.05502e-05
5.02902e-05
1.51394e-05
1.07383e-05
1.51433e-05
2.19871e-05
1.45238e-05
1.45053e-05
1.06773e-05
1.42738e-05
1.06445e-05
1.4191e-05
1.89189e-05
1.41918e-05
1.41786e-05
1.06452e-05
5.17533e-05
6.41905e-05
6.16099e-05
5.16879e-05
6.42287e-05
6.15947e-05
5.73482e-05
5.13785e-05
6.11958e-05
5.69246e-05
6.41867e-05
5.0965e-05
6.14812e-05
5.72258e-05
6.70038e-05
4.76737e-05
5.66193e-05
5.63652e-05
5.69037e-05
6.67705e-05
5.66254e-05
4.3604e-05
5.17757e-05
4.22623e-05
5.38654e-05
4.21612e-05
5.36901e-05
4.36551e-05
4.64879e-05
5.57189e-05
4.3295e-05
5.31837e-05
4.62645e-05
5.6124e-05
4.35216e-05
5.64931e-05
6.04676e-05
6.32138e-05
5.06965e-05
6.32081e-05
5.64952e-05
6.02867e-05
5.04005e-05
5.97648e-05
5.61542e-05
6.31296e-05
5.01162e-05
5.63848e-05
6.00688e-05
4.43335e-05
5.4071e-05
5.68406e-05
4.69946e-05
5.362e-05
5.64744e-05
4.40618e-05
4.41745e-05
4.25842e-05
5.42793e-05
5.27598e-05
4.39297e-05
4.27838e-05
5.48984e-05
4.81411e-05
6.15362e-05
5.96724e-05
4.71509e-05
6.02358e-05
5.87144e-05
5.20079e-05
4.59517e-05
5.68041e-05
4.92578e-05
5.87935e-05
4.54708e-05
5.77091e-05
5.02783e-05
4.36732e-05
5.3828e-05
5.63025e-05
4.48904e-05
5.32825e-05
4.33172e-05
5.55926e-05
4.72869e-05
6.13397e-05
5.94403e-05
4.60871e-05
5.9823e-05
5.82152e-05
5.12074e-05
4.18532e-05
5.28313e-05
5.572e-05
4.35421e-05
5.19213e-05
4.1424e-05
5.47e-05
3.95393e-05
3.11296e-05
3.12403e-05
3.1472e-05
3.99793e-05
3.15085e-05
6.95846e-05
6.54737e-05
3.51331e-05
6.18573e-05
7.10205e-05
6.23003e-05
7.10633e-05
1.71725e-05
1.7302e-05
6.96568e-05
6.96736e-05
3.61602e-05
6.62799e-05
6.64749e-05
6.98716e-05
6.97339e-05
6.98563e-05
6.9745e-05
3.74033e-05
6.88723e-05
6.88772e-05
6.70643e-05
6.72238e-05
7.11039e-05
6.19151e-05
4.73302e-05
2.83697e-05
5.74605e-05
2.04868e-05
5.69259e-05
2.76065e-05
4.73545e-05
2.03643e-05
6.2282e-05
7.13057e-05
7.10991e-05
6.37145e-05
6.23207e-05
6.3709e-05
4.77969e-05
2.97988e-05
5.98693e-05
2.18877e-05
5.81075e-05
2.11087e-05
4.94649e-05
4.78106e-05
4.94685e-05
4.78029e-05
2.85188e-05
5.77142e-05
2.07114e-05
6.26117e-05
7.12768e-05
7.11283e-05
6.36982e-05
4.81884e-05
2.99382e-05
5.98982e-05
2.19977e-05
5.83174e-05
2.12906e-05
4.95945e-05
6.25989e-05
7.12935e-05
7.11199e-05
6.37143e-05
4.8185e-05
3.01102e-05
2.20394e-05
6.00841e-05
2.13008e-05
5.8425e-05
4.96069e-05
6.98931e-05
6.97818e-05
3.77496e-05
6.9156e-05
6.91062e-05
6.7442e-05
6.75086e-05
6.98705e-05
6.97832e-05
4.82642e-05
3.01786e-05
6.00857e-05
2.13109e-05
5.85332e-05
6.27325e-05
7.12772e-05
7.1144e-05
6.9421e-05
6.62044e-05
6.46229e-05
5.5823e-05
7.12406e-05
7.08277e-05
6.81413e-05
5.45108e-05
8.79782e-05
7.30628e-05
7.30552e-05
7.23734e-05
7.23678e-05
9.1047e-05
6.61092e-05
7.07869e-05
6.98667e-05
6.13626e-05
6.96242e-05
6.58403e-05
6.95754e-05
6.53256e-05
6.99312e-05
7.00749e-05
7.63896e-05
7.09144e-05
7.59605e-05
7.01692e-05
6.99106e-05
6.19305e-05
6.63032e-05
6.96276e-05
6.59205e-05
6.95898e-05
6.99583e-05
7.01283e-05
7.67285e-05
7.09735e-05
7.64015e-05
7.01934e-05
6.95332e-05
6.95563e-05
9.37788e-05
7.34756e-05
7.34615e-05
7.31147e-05
7.31064e-05
9.59791e-05
6.88208e-05
7.14216e-05
6.54611e-05
5.69701e-05
7.11443e-05
7.03089e-05
5.59007e-05
6.89923e-05
7.14574e-05
6.56872e-05
5.71615e-05
7.1189e-05
7.04595e-05
5.61074e-05
6.98487e-05
6.98147e-05
6.98423e-05
6.98165e-05
9.92285e-05
7.37107e-05
7.3693e-05
9.78062e-05
7.38734e-05
7.38478e-05
7.3631e-05
6.0394e-05
6.84008e-05
7.19589e-05
7.19168e-05
5.97556e-05
7.42276e-05
7.36884e-05
6.04505e-05
6.84657e-05
7.195e-05
7.19181e-05
5.98584e-05
7.42538e-05
7.2776e-05
7.1643e-05
5.79919e-05
6.7799e-05
7.16284e-05
7.18178e-05
5.89591e-05
7.28684e-05
7.16685e-05
5.81618e-05
6.7916e-05
7.17497e-05
7.18313e-05
5.90993e-05
0.000100197
7.39201e-05
7.38871e-05
7.39214e-05
7.38922e-05
0.000100755
7.01332e-05
7.09767e-05
7.67802e-05
7.63235e-05
7.02051e-05
6.99303e-05
6.60627e-05
6.1443e-05
6.96381e-05
6.95919e-05
6.55929e-05
6.99842e-05
7.00223e-05
6.96546e-05
6.62565e-05
6.27916e-05
6.99655e-05
6.96956e-05
6.67745e-05
7.03287e-05
7.12459e-05
7.77646e-05
7.74116e-05
7.04044e-05
7.02943e-05
7.6716e-05
7.11856e-05
7.02087e-05
7.71103e-05
7.00526e-05
6.32289e-05
6.97466e-05
6.76786e-05
6.97189e-05
6.71944e-05
7.00973e-05
7.00512e-05
6.64421e-05
6.96661e-05
6.2813e-05
7.00111e-05
6.97031e-05
6.69135e-05
7.00684e-05
6.77227e-05
6.32361e-05
6.97456e-05
6.97228e-05
6.72902e-05
7.00917e-05
7.00205e-05
6.65974e-05
6.96481e-05
6.30043e-05
6.99799e-05
6.69866e-05
6.96809e-05
7.02962e-05
7.12392e-05
7.77434e-05
7.74905e-05
7.03409e-05
7.02769e-05
7.69671e-05
7.11967e-05
7.02189e-05
7.72727e-05
7.00381e-05
6.33309e-05
6.76244e-05
6.97206e-05
6.72784e-05
6.96981e-05
7.00657e-05
7.00244e-05
6.9646e-05
6.65611e-05
6.29953e-05
6.99762e-05
6.96811e-05
6.69666e-05
7.03144e-05
7.12468e-05
7.77421e-05
7.74497e-05
7.03611e-05
7.02928e-05
7.68728e-05
7.11958e-05
7.02265e-05
7.72006e-05
7.00491e-05
6.33348e-05
6.97255e-05
6.76756e-05
6.97002e-05
6.72949e-05
7.00845e-05
6.9879e-05
6.98531e-05
9.92849e-05
7.36332e-05
7.36307e-05
9.77691e-05
7.38226e-05
7.38154e-05
7.40218e-05
6.0841e-05
6.87084e-05
7.20202e-05
6.01771e-05
7.19737e-05
7.47196e-05
7.39097e-05
6.08139e-05
6.87112e-05
7.19811e-05
7.19441e-05
6.01809e-05
7.45937e-05
7.30984e-05
7.17056e-05
5.83965e-05
6.81414e-05
5.9368e-05
7.19238e-05
7.18745e-05
7.30045e-05
7.16936e-05
5.84294e-05
6.81828e-05
7.18378e-05
7.18546e-05
5.93907e-05
0.000100415
7.39287e-05
7.3916e-05
7.39038e-05
7.38939e-05
0.000101166
6.98638e-05
6.98456e-05
7.00332e-05
6.6708e-05
6.96681e-05
6.30994e-05
6.99964e-05
6.7069e-05
6.96967e-05
7.02983e-05
7.12477e-05
7.77258e-05
7.74954e-05
7.03311e-05
7.02837e-05
7.69938e-05
7.12091e-05
7.02276e-05
7.72859e-05
6.08575e-05
3.90767e-05
4.98913e-05
4.99404e-05
4.93102e-05
4.93739e-05
6.14656e-05
6.12514e-05
3.949e-05
5.03726e-05
5.03657e-05
4.97557e-05
4.97592e-05
6.19376e-05
5.4584e-05
3.42708e-05
4.54981e-05
4.54807e-05
4.42794e-05
5.62216e-05
4.4284e-05
1.58798e-05
1.2405e-05
1.24638e-05
1.07812e-05
1.65344e-05
1.28377e-05
1.28498e-05
1.26075e-05
1.26444e-05
1.08019e-05
1.08364e-05
1.66511e-05
1.28691e-05
1.28632e-05
1.26587e-05
1.26554e-05
1.08069e-05
1.08361e-05
5.65569e-05
3.55135e-05
4.65393e-05
4.66275e-05
5.77927e-05
4.56144e-05
4.57024e-05
6.00135e-05
3.80423e-05
4.7602e-05
4.76845e-05
5.89738e-05
4.84588e-05
4.85358e-05
3.74298e-05
4.68755e-05
5.02249e-05
3.52366e-05
4.97175e-05
3.50493e-05
3.76638e-05
4.09739e-05
5.4381e-05
5.68037e-05
4.76217e-05
5.38217e-05
4.69397e-05
4.13534e-05
4.05928e-05
5.62712e-05
4.69613e-05
5.42141e-05
4.6179e-05
5.36231e-05
4.10314e-05
3.73306e-05
5.0245e-05
4.69085e-05
3.52295e-05
4.97434e-05
3.50393e-05
3.75784e-05
3.86283e-05
5.07264e-05
3.57573e-05
4.83392e-05
3.83062e-05
5.1307e-05
3.60425e-05
4.34652e-05
5.05563e-05
5.93463e-05
5.66623e-05
4.9969e-05
5.61109e-05
4.39635e-05
4.26556e-05
5.49473e-05
4.84713e-05
5.87676e-05
4.91919e-05
4.21539e-05
5.55479e-05
3.94099e-05
4.88782e-05
5.2457e-05
3.70862e-05
5.18608e-05
3.67259e-05
3.97836e-05
3.85969e-05
5.07422e-05
3.5755e-05
4.8345e-05
3.82499e-05
5.1329e-05
3.6043e-05
3.94239e-05
5.25299e-05
4.88799e-05
3.71058e-05
5.18999e-05
3.67297e-05
3.98869e-05
3.78117e-05
4.74314e-05
5.06958e-05
3.56029e-05
5.02642e-05
3.54232e-05
3.80337e-05
4.13063e-05
5.47563e-05
5.70987e-05
4.78726e-05
5.42508e-05
4.72049e-05
4.16786e-05
3.89333e-05
5.11203e-05
3.60945e-05
4.86482e-05
3.86431e-05
5.16204e-05
3.63483e-05
4.36606e-05
5.06527e-05
5.94464e-05
5.67808e-05
5.01137e-05
5.6306e-05
4.41143e-05
4.29112e-05
5.52667e-05
4.86921e-05
5.89262e-05
4.93834e-05
4.24388e-05
5.58086e-05
3.96486e-05
4.91013e-05
5.25839e-05
3.72722e-05
5.20863e-05
3.69674e-05
3.99695e-05
3.89642e-05
3.60939e-05
5.11155e-05
4.86468e-05
3.86631e-05
3.63526e-05
5.16191e-05
4.37764e-05
5.09009e-05
5.95939e-05
5.68437e-05
5.63379e-05
5.03269e-05
4.425e-05
4.30113e-05
5.52783e-05
4.88608e-05
5.90466e-05
4.25312e-05
5.58201e-05
4.95674e-05
3.96946e-05
4.91049e-05
3.72909e-05
5.26241e-05
3.69781e-05
5.2102e-05
4.00383e-05
6.0351e-05
3.84143e-05
4.79871e-05
4.79993e-05
4.88692e-05
5.92783e-05
4.88793e-05
3.9026e-05
3.608e-05
5.12511e-05
4.87365e-05
3.87277e-05
3.63432e-05
5.1749e-05
4.38581e-05
5.0922e-05
5.96469e-05
5.69231e-05
5.03779e-05
5.64658e-05
4.43152e-05
4.31041e-05
5.54387e-05
4.89328e-05
5.91356e-05
4.26168e-05
4.9637e-05
5.59712e-05
1.08721e-05
3.34189e-05
3.2484e-05
3.90342e-05
1.82477e-05
3.45377e-05
3.29502e-05
4.03715e-05
1.67436e-05
2.80337e-05
2.93058e-05
3.69768e-05
1.60845e-05
2.81833e-05
2.72576e-05
3.394e-05
1.84024e-05
3.64991e-05
3.27683e-05
4.08049e-05
2.08052e-05
3.53313e-05
3.97803e-05
4.2589e-05
2.08351e-05
3.10396e-05
3.86294e-05
3.93588e-05
1.94893e-05
3.54873e-05
3.3147e-05
3.70747e-05
4.01904e-05
3.94495e-05
3.21528e-05
3.35143e-05
3.28783e-05
3.49628e-05
4.22651e-05
4.32244e-05
3.21997e-05
3.24952e-05
3.27497e-05
3.32169e-05
3.14804e-05
3.48279e-05
3.33098e-05
4.06803e-05
4.01916e-05
3.15423e-05
3.3129e-05
3.31437e-05
4.03838e-05
3.90639e-05
3.41921e-05
3.27237e-05
3.4667e-05
3.01806e-05
2.9368e-05
4.22112e-05
3.18015e-05
3.25381e-05
3.30501e-05
2.99402e-05
3.04165e-05
3.33576e-05
2.94165e-05
3.24792e-05
3.98328e-05
3.47248e-05
3.31748e-05
3.0372e-05
3.23471e-05
3.74166e-05
3.39233e-05
3.44054e-05
2.93504e-05
2.79257e-05
2.86796e-05
2.73555e-05
3.09782e-05
3.30357e-05
2.92383e-05
2.93364e-05
2.87603e-05
2.73442e-05
3.13607e-05
2.74865e-05
2.89583e-05
3.42714e-05
3.16205e-05
3.13843e-05
2.72999e-05
2.91684e-05
3.39025e-05
3.52903e-05
4.04515e-05
2.88383e-05
2.8077e-05
3.29222e-05
3.55043e-05
3.53469e-05
4.49453e-05
2.89657e-05
2.73021e-05
3.29513e-05
2.99995e-05
2.88849e-05
3.54138e-05
3.09522e-05
3.16724e-05
3.77576e-05
2.90773e-05
3.00274e-05
3.08029e-05
3.94277e-05
4.11685e-05
4.2587e-05
3.42343e-05
3.65688e-05
3.64266e-05
3.64149e-05
4.52799e-05
4.10069e-05
3.41091e-05
3.26967e-05
3.62735e-05
3.89042e-05
3.33125e-05
3.63796e-05
3.62369e-05
3.95467e-05
4.70337e-05
3.29619e-05
3.89639e-05
3.59458e-05
4.27667e-05
4.27172e-05
4.18536e-05
3.66536e-05
3.53614e-05
3.64816e-05
3.13223e-05
3.99236e-05
3.35226e-05
3.66257e-05
3.97573e-05
3.66461e-05
3.96708e-05
3.62411e-05
3.12799e-05
3.515e-05
4.75233e-05
4.49736e-05
3.60197e-05
3.96713e-05
3.55043e-05
3.95876e-05
4.15987e-05
3.91813e-05
3.59119e-05
3.10468e-05
3.4191e-05
3.24097e-05
3.34867e-05
4.02803e-05
3.63025e-05
3.86277e-05
3.43575e-05
3.37294e-05
3.44804e-05
3.25704e-05
3.28843e-05
4.3933e-05
3.75153e-05
3.49855e-05
3.38294e-05
3.31364e-05
3.70599e-05
3.91768e-05
3.96376e-05
3.40581e-05
3.5324e-05
3.44474e-05
4.23666e-05
3.41084e-05
3.31406e-05
3.41963e-05
3.28413e-05
3.73808e-05
3.30135e-05
6.50367e-05
7.13398e-05
7.13689e-05
6.41055e-05
7.01287e-05
7.01108e-05
6.45739e-05
7.12914e-05
7.12733e-05
6.39773e-05
1.82602e-05
1.08687e-05
1.73886e-05
1.82728e-05
1.93222e-05
1.84361e-05
1.85772e-05
5.11838e-05
4.49688e-05
2.28243e-05
3.4515e-05
4.05348e-05
6.19713e-05
2.37723e-05
6.98787e-05
6.96893e-05
5.09434e-05
2.28303e-05
4.49262e-05
3.30063e-05
2.35455e-05
6.07016e-05
5.00517e-05
6.84864e-05
6.83434e-05
4.0038e-05
6.86628e-05
6.82945e-05
6.45335e-05
7.10991e-05
6.52587e-05
7.07702e-05
6.92858e-05
6.85639e-05
6.41218e-05
7.09517e-05
6.46172e-05
7.06757e-05
1.92785e-05
1.84168e-05
1.86599e-05
1.72353e-05
1.7336e-05
1.7351e-05
1.84096e-05
5.19999e-05
6.12602e-05
2.51104e-05
3.35706e-05
5.21289e-05
5.88261e-05
2.50895e-05
6.91004e-05
6.88957e-05
5.12366e-05
2.44361e-05
5.96085e-05
3.23488e-05
5.12858e-05
2.44221e-05
5.88432e-05
6.75288e-05
6.72623e-05
3.94801e-05
6.70783e-05
6.69219e-05
6.0941e-05
7.02396e-05
6.20249e-05
7.02201e-05
6.81534e-05
6.85679e-05
6.16589e-05
7.03854e-05
6.2515e-05
7.03935e-05
1.64303e-05
1.67297e-05
1.78994e-05
1.60806e-05
1.55583e-05
1.53509e-05
1.64273e-05
4.84003e-05
5.45258e-05
2.3766e-05
2.74257e-05
5.00411e-05
5.38452e-05
2.30384e-05
6.86003e-05
6.85891e-05
4.90262e-05
2.36583e-05
5.67497e-05
2.83238e-05
5.03494e-05
2.31236e-05
5.50523e-05
6.46589e-05
6.52466e-05
3.48932e-05
6.20624e-05
6.25539e-05
6.29848e-05
7.07907e-05
6.12802e-05
7.11613e-05
6.9686e-05
7.01476e-05
6.24746e-05
7.07741e-05
6.1431e-05
7.10729e-05
1.56116e-05
1.52417e-05
1.62657e-05
1.74196e-05
1.83163e-05
1.57289e-05
1.64588e-05
4.86163e-05
5.68916e-05
2.22501e-05
3.04378e-05
4.74895e-05
5.99506e-05
2.23197e-05
6.89981e-05
6.93926e-05
4.82755e-05
2.20516e-05
5.43627e-05
2.73779e-05
4.77923e-05
2.2032e-05
5.64108e-05
6.14792e-05
6.14191e-05
3.4798e-05
6.54169e-05
6.48585e-05
6.52451e-05
7.14853e-05
6.47243e-05
7.15423e-05
7.00586e-05
6.96935e-05
6.48069e-05
7.13978e-05
6.39728e-05
7.15339e-05
1.95113e-05
1.69785e-05
1.71132e-05
2.04602e-05
2.04299e-05
2.17433e-05
1.99042e-05
5.36697e-05
6.25487e-05
2.51642e-05
3.67585e-05
5.24454e-05
6.24676e-05
2.65284e-05
6.97818e-05
7.00911e-05
5.28205e-05
2.36485e-05
6.00015e-05
3.52814e-05
5.14381e-05
2.54024e-05
6.15515e-05
7.00919e-05
6.91991e-05
4.2638e-05
7.03901e-05
6.95207e-05
6.51612e-05
7.14119e-05
6.54953e-05
7.11639e-05
6.88789e-05
6.85075e-05
6.61568e-05
7.15622e-05
6.60524e-05
7.13563e-05
2.03096e-05
2.26467e-05
2.02849e-05
2.09493e-05
1.84118e-05
2.31572e-05
2.03511e-05
5.25766e-05
5.9719e-05
2.7774e-05
3.35523e-05
5.35953e-05
5.72792e-05
2.7711e-05
7.03203e-05
7.00587e-05
5.41726e-05
2.91088e-05
6.35673e-05
4.00046e-05
5.38881e-05
2.96526e-05
6.37692e-05
6.64162e-05
6.73011e-05
4.12123e-05
6.50591e-05
6.65111e-05
6.26657e-05
7.07207e-05
6.30605e-05
7.07037e-05
6.85698e-05
6.91799e-05
6.26861e-05
7.07707e-05
6.4272e-05
7.05934e-05
1.80555e-05
2.29455e-05
2.01983e-05
1.97498e-05
1.81209e-05
2.00935e-05
1.89861e-05
5.13272e-05
5.54388e-05
2.65747e-05
3.10685e-05
5.14025e-05
5.62927e-05
2.63949e-05
6.88253e-05
6.84207e-05
5.27353e-05
2.97648e-05
6.1075e-05
3.66847e-05
5.38861e-05
2.94345e-05
5.82432e-05
6.49248e-05
6.59282e-05
3.80677e-05
6.48848e-05
6.53983e-05
6.55697e-05
7.11745e-05
6.4083e-05
7.1425e-05
7.03297e-05
7.05446e-05
6.45241e-05
7.09508e-05
6.24043e-05
7.13868e-05
1.86697e-05
1.93873e-05
1.88527e-05
1.91942e-05
5.24459e-05
6.07235e-05
2.6664e-05
3.80977e-05
5.18308e-05
6.2589e-05
2.74403e-05
6.89262e-05
6.9586e-05
5.0325e-05
2.71167e-05
5.62052e-05
3.28547e-05
5.04415e-05
2.67319e-05
5.72367e-05
6.31316e-05
6.23135e-05
3.73038e-05
6.31436e-05
6.23132e-05
6.98653e-05
6.9725e-05
6.98427e-05
6.96725e-05
6.91728e-05
6.91189e-05
4.05675e-05
6.93448e-05
6.91758e-05
6.9301e-05
6.96029e-05
6.92271e-05
6.95396e-05
4.05929e-05
6.76474e-05
6.72435e-05
6.91424e-05
6.88566e-05
6.50083e-05
7.15044e-05
7.14891e-05
6.40918e-05
5.14577e-05
6.02672e-05
2.2734e-05
3.27312e-05
6.08253e-05
2.35474e-05
3.78844e-05
5.15211e-05
5.23035e-05
2.29823e-05
3.4637e-05
6.22043e-05
2.39449e-05
4.07949e-05
6.51776e-05
7.11962e-05
7.1348e-05
6.5292e-05
6.51458e-05
7.11278e-05
7.14201e-05
6.52502e-05
5.17851e-05
3.28968e-05
6.03643e-05
2.46086e-05
6.08309e-05
2.42127e-05
5.22486e-05
5.1862e-05
3.49898e-05
6.20282e-05
2.51066e-05
6.23107e-05
2.47015e-05
5.23237e-05
7.01714e-05
6.99485e-05
4.3986e-05
7.1127e-05
7.0903e-05
7.00882e-05
7.00706e-05
6.95389e-05
7.00092e-05
4.41263e-05
6.98572e-05
6.97001e-05
7.1131e-05
7.09079e-05
6.95264e-05
6.99718e-05
5.11587e-05
6.02192e-05
2.27723e-05
3.26874e-05
6.05749e-05
2.34976e-05
5.00474e-05
6.46146e-05
7.13143e-05
7.13015e-05
6.40093e-05
5.12101e-05
2.28381e-05
6.04467e-05
3.3063e-05
2.35875e-05
6.08836e-05
5.00717e-05
6.46401e-05
7.10513e-05
7.12276e-05
6.46752e-05
5.1359e-05
3.27907e-05
5.99129e-05
2.42998e-05
6.05584e-05
2.40327e-05
5.15525e-05
6.46748e-05
7.10563e-05
7.12487e-05
6.46856e-05
5.14098e-05
3.32326e-05
2.44345e-05
6.01204e-05
2.41493e-05
6.08717e-05
5.15852e-05
6.46822e-05
7.14411e-05
6.37706e-05
7.14223e-05
5.11426e-05
2.24653e-05
5.0327e-05
3.24077e-05
4.03323e-05
2.33185e-05
6.03029e-05
6.47527e-05
7.12935e-05
6.38516e-05
7.13769e-05
5.15258e-05
3.48556e-05
6.18526e-05
2.49912e-05
6.20841e-05
2.45462e-05
5.21004e-05
6.48521e-05
7.1092e-05
7.13538e-05
6.50612e-05
5.14656e-05
3.30211e-05
2.46279e-05
6.03723e-05
2.40662e-05
6.03567e-05
5.20593e-05
6.49151e-05
7.13211e-05
7.13784e-05
6.51229e-05
6.94431e-05
6.93377e-05
4.11516e-05
6.96033e-05
6.93738e-05
6.98459e-05
6.96458e-05
6.92229e-05
6.95457e-05
4.12009e-05
6.76132e-05
6.75129e-05
6.93736e-05
6.90256e-05
6.92532e-05
6.95114e-05
5.0831e-05
2.25737e-05
5.03835e-05
3.23851e-05
2.3327e-05
5.99184e-05
4.05242e-05
6.42878e-05
7.12839e-05
7.12298e-05
6.38726e-05
6.42075e-05
7.12244e-05
7.12247e-05
6.38038e-05
5.10843e-05
3.31508e-05
2.43659e-05
5.99251e-05
2.40813e-05
6.06718e-05
5.12809e-05
5.09742e-05
3.2912e-05
2.43871e-05
5.9906e-05
2.39455e-05
5.99167e-05
5.12701e-05
6.43283e-05
7.1033e-05
7.11663e-05
6.44195e-05
6.42518e-05
7.11686e-05
7.12115e-05
6.44195e-05
6.9747e-05
6.96288e-05
6.96965e-05
6.95511e-05
4.03369e-05
6.77919e-05
6.74546e-05
6.85077e-05
6.80259e-05
6.94385e-05
6.95566e-05
6.93928e-05
6.9483e-05
6.91637e-05
6.88328e-05
6.90954e-05
6.88256e-05
6.70825e-05
6.66423e-05
3.67247e-05
6.51793e-05
6.48933e-05
6.85467e-05
6.87149e-05
6.86256e-05
6.8737e-05
3.61821e-05
6.24489e-05
6.28183e-05
6.44388e-05
6.43127e-05
6.44869e-05
7.09835e-05
6.52112e-05
7.05541e-05
5.19312e-05
6.00163e-05
2.47309e-05
3.22095e-05
5.22546e-05
5.87977e-05
2.4725e-05
5.19189e-05
6.13682e-05
2.51938e-05
3.36816e-05
5.2326e-05
5.87183e-05
2.51583e-05
6.41097e-05
7.03053e-05
7.06326e-05
6.25899e-05
6.40764e-05
7.01425e-05
7.04114e-05
6.26227e-05
5.15509e-05
3.11968e-05
5.64458e-05
2.44047e-05
5.82493e-05
2.46468e-05
5.01343e-05
5.15077e-05
3.14749e-05
5.48251e-05
2.44416e-05
5.76487e-05
2.49801e-05
5.00302e-05
6.89696e-05
6.88682e-05
3.76586e-05
6.50058e-05
6.51723e-05
6.92887e-05
6.86019e-05
6.81438e-05
6.836e-05
3.61562e-05
5.99874e-05
6.02707e-05
6.34518e-05
6.36942e-05
6.81695e-05
6.84018e-05
5.11733e-05
5.95554e-05
2.43559e-05
3.18787e-05
5.15427e-05
5.83996e-05
2.43365e-05
6.40558e-05
7.09619e-05
6.45922e-05
7.07173e-05
5.11449e-05
2.44954e-05
5.9715e-05
3.24693e-05
5.15688e-05
2.44746e-05
5.86581e-05
6.38305e-05
7.04142e-05
7.05854e-05
6.28868e-05
5.09144e-05
3.08686e-05
5.65311e-05
2.39667e-05
5.7925e-05
2.42419e-05
5.00599e-05
6.37718e-05
7.03681e-05
7.06199e-05
6.28509e-05
5.08859e-05
3.14681e-05
2.40755e-05
5.70506e-05
2.4372e-05
5.82785e-05
5.00553e-05
6.47682e-05
7.09653e-05
6.50567e-05
7.06115e-05
5.20431e-05
2.49323e-05
6.03209e-05
3.33094e-05
5.21053e-05
2.50057e-05
6.00232e-05
6.48056e-05
7.12482e-05
6.51183e-05
7.09551e-05
5.17437e-05
3.14371e-05
5.51467e-05
2.45289e-05
5.78341e-05
2.49527e-05
5.05806e-05
6.44595e-05
7.02292e-05
7.04918e-05
6.32058e-05
5.18686e-05
3.30983e-05
2.48824e-05
5.85599e-05
2.49876e-05
5.97983e-05
5.07696e-05
6.4481e-05
7.04069e-05
7.08193e-05
6.31691e-05
6.69779e-05
6.70218e-05
3.75351e-05
6.53797e-05
6.58159e-05
6.91529e-05
6.89771e-05
6.86506e-05
6.88147e-05
3.70475e-05
6.33708e-05
6.36896e-05
6.49005e-05
6.53908e-05
6.86545e-05
6.88856e-05
5.13552e-05
2.46171e-05
5.98983e-05
3.31259e-05
5.13169e-05
2.46732e-05
5.98057e-05
6.43994e-05
7.09809e-05
6.442e-05
7.08236e-05
6.44545e-05
7.11341e-05
6.44414e-05
7.0987e-05
5.11755e-05
3.1389e-05
2.41106e-05
5.73256e-05
2.43421e-05
5.85396e-05
5.07061e-05
5.1342e-05
3.29232e-05
2.45901e-05
5.89352e-05
2.46616e-05
5.97232e-05
5.09905e-05
6.43476e-05
7.03642e-05
7.07175e-05
6.35334e-05
6.44262e-05
7.05937e-05
7.08956e-05
6.37691e-05
6.93838e-05
6.92862e-05
6.93542e-05
6.92879e-05
3.92243e-05
6.55468e-05
6.60766e-05
6.69571e-05
6.68643e-05
6.88474e-05
6.92149e-05
6.89381e-05
6.92411e-05
6.85357e-05
6.87003e-05
6.86197e-05
6.87714e-05
6.19922e-05
6.24556e-05
3.34394e-05
6.15279e-05
6.20501e-05
6.92609e-05
6.87949e-05
6.92704e-05
6.88533e-05
3.34992e-05
6.3594e-05
6.37982e-05
6.1593e-05
6.20955e-05
6.10086e-05
7.01188e-05
6.20761e-05
7.02302e-05
4.79933e-05
5.58971e-05
2.38236e-05
2.88475e-05
4.9538e-05
5.50121e-05
2.31651e-05
4.79301e-05
5.42148e-05
2.35659e-05
2.72928e-05
4.94309e-05
5.36297e-05
2.27864e-05
6.08089e-05
7.06591e-05
7.02738e-05
6.09015e-05
6.08703e-05
7.08e-05
7.0328e-05
6.09315e-05
4.76818e-05
2.86744e-05
5.56496e-05
2.23527e-05
5.49646e-05
2.26401e-05
4.74736e-05
4.76403e-05
2.72081e-05
5.60737e-05
2.20624e-05
5.36937e-05
2.22684e-05
4.74628e-05
5.94531e-05
5.96957e-05
3.01117e-05
5.93543e-05
5.94557e-05
6.81724e-05
6.85327e-05
6.94889e-05
6.87592e-05
3.02049e-05
6.4331e-05
6.40241e-05
6.01112e-05
6.00067e-05
6.94186e-05
6.87105e-05
4.8726e-05
5.61249e-05
2.3508e-05
2.88497e-05
4.97008e-05
5.54755e-05
2.30456e-05
6.16319e-05
7.02976e-05
6.24857e-05
7.02242e-05
4.87257e-05
2.35679e-05
5.6551e-05
2.83574e-05
4.97041e-05
2.3013e-05
5.5191e-05
6.14816e-05
7.06808e-05
7.04259e-05
6.13644e-05
4.84736e-05
2.8738e-05
5.60973e-05
2.24778e-05
5.54422e-05
2.26774e-05
4.81981e-05
6.14559e-05
7.04977e-05
7.0236e-05
6.13447e-05
4.84581e-05
2.76634e-05
2.2165e-05
5.46299e-05
2.25082e-05
5.48861e-05
4.81366e-05
6.11433e-05
7.01881e-05
6.26184e-05
7.02135e-05
4.85225e-05
2.45694e-05
5.78454e-05
3.02272e-05
5.02336e-05
2.38949e-05
5.56035e-05
6.10844e-05
7.02799e-05
6.25684e-05
7.01033e-05
4.79648e-05
2.73441e-05
5.58701e-05
2.22774e-05
5.38774e-05
2.25144e-05
4.74792e-05
6.08588e-05
7.06828e-05
7.02831e-05
6.06762e-05
4.8036e-05
2.93735e-05
2.26855e-05
5.45673e-05
2.32025e-05
5.50766e-05
4.74311e-05
6.08046e-05
7.03849e-05
7.01037e-05
6.06371e-05
6.28087e-05
6.29864e-05
3.24071e-05
6.14865e-05
6.12466e-05
6.85785e-05
6.85257e-05
6.8899e-05
6.8619e-05
3.21453e-05
6.12727e-05
6.08604e-05
6.12637e-05
6.09377e-05
6.8857e-05
6.85495e-05
4.93115e-05
2.43794e-05
5.83498e-05
3.03783e-05
5.06475e-05
2.38923e-05
5.62642e-05
6.15066e-05
7.02539e-05
6.30157e-05
7.01158e-05
6.17825e-05
7.04833e-05
6.32773e-05
7.02818e-05
4.85764e-05
2.76229e-05
2.22251e-05
5.42889e-05
2.2604e-05
5.46546e-05
4.78307e-05
4.88274e-05
2.95838e-05
2.28593e-05
5.49209e-05
2.33293e-05
5.56771e-05
4.79454e-05
6.11436e-05
7.04352e-05
7.01226e-05
6.07945e-05
6.13864e-05
7.03787e-05
7.02661e-05
6.09249e-05
6.86925e-05
6.84708e-05
6.87782e-05
6.85096e-05
3.45478e-05
6.11646e-05
6.12873e-05
6.15254e-05
6.19069e-05
6.87762e-05
6.84655e-05
6.87219e-05
6.84904e-05
6.93875e-05
6.97184e-05
6.93771e-05
6.96514e-05
6.44648e-05
6.45495e-05
3.73521e-05
6.70407e-05
6.67082e-05
6.97525e-05
6.97578e-05
6.96918e-05
6.96809e-05
3.85902e-05
6.86936e-05
6.80749e-05
6.77114e-05
6.72433e-05
6.29105e-05
7.0947e-05
6.12632e-05
7.1338e-05
4.92188e-05
5.64438e-05
2.22828e-05
2.95055e-05
4.75497e-05
5.87759e-05
2.23143e-05
4.92813e-05
5.71689e-05
2.20523e-05
3.04171e-05
4.75522e-05
6.02396e-05
2.21531e-05
6.34163e-05
7.14525e-05
7.12494e-05
6.45148e-05
6.33262e-05
7.15439e-05
7.14163e-05
6.44049e-05
4.99268e-05
3.12319e-05
6.06046e-05
2.32416e-05
5.93996e-05
2.25175e-05
5.18528e-05
4.99905e-05
3.33935e-05
6.22875e-05
2.37837e-05
6.10087e-05
2.25615e-05
5.19088e-05
6.5782e-05
6.54325e-05
4.05925e-05
6.95558e-05
6.92872e-05
6.9619e-05
7.01272e-05
7.01698e-05
7.01978e-05
4.24055e-05
7.12777e-05
7.14045e-05
7.03705e-05
7.01953e-05
7.02226e-05
7.01999e-05
4.90876e-05
5.66998e-05
2.2434e-05
2.97813e-05
4.82114e-05
5.85215e-05
2.24674e-05
6.25058e-05
7.06107e-05
6.14213e-05
7.10358e-05
4.89408e-05
2.20257e-05
5.4713e-05
2.74191e-05
4.8143e-05
2.20205e-05
5.65262e-05
6.2772e-05
7.13486e-05
7.11408e-05
6.37296e-05
4.95376e-05
3.14701e-05
5.9976e-05
2.33575e-05
5.89908e-05
2.26642e-05
5.09763e-05
6.28149e-05
7.14707e-05
7.11491e-05
6.3778e-05
4.94002e-05
2.80279e-05
2.25489e-05
5.9151e-05
2.21157e-05
5.72248e-05
5.09066e-05
6.24623e-05
7.0836e-05
6.07657e-05
7.13059e-05
4.83769e-05
2.24349e-05
5.46168e-05
2.89644e-05
4.74313e-05
2.23946e-05
5.70867e-05
6.24892e-05
7.05422e-05
6.07435e-05
7.11249e-05
4.9395e-05
3.33242e-05
6.23725e-05
2.35693e-05
6.07874e-05
2.2621e-05
5.17951e-05
6.30697e-05
7.16403e-05
7.14232e-05
6.47236e-05
4.91855e-05
2.94021e-05
2.27494e-05
6.11104e-05
2.2452e-05
5.82554e-05
5.16969e-05
6.31095e-05
7.16171e-05
7.12918e-05
6.47969e-05
6.17187e-05
6.12964e-05
3.27468e-05
6.41344e-05
6.40835e-05
6.89748e-05
6.94277e-05
6.97283e-05
6.94673e-05
3.39853e-05
6.68372e-05
6.71966e-05
6.48956e-05
6.4968e-05
6.97948e-05
6.95204e-05
4.81385e-05
2.25902e-05
5.49195e-05
2.91348e-05
4.7872e-05
2.25183e-05
5.6571e-05
6.2175e-05
7.05866e-05
6.08279e-05
7.10986e-05
6.19701e-05
7.04784e-05
6.09288e-05
7.09436e-05
4.888e-05
2.80053e-05
2.24617e-05
5.94277e-05
2.21032e-05
5.7223e-05
5.08643e-05
4.86863e-05
2.94912e-05
2.27273e-05
6.0236e-05
2.25426e-05
5.76301e-05
5.0718e-05
6.26922e-05
7.15899e-05
7.12378e-05
6.4129e-05
6.24631e-05
7.13714e-05
7.10815e-05
6.39085e-05
6.89583e-05
6.96541e-05
6.88827e-05
6.95391e-05
3.59677e-05
6.95929e-05
6.87481e-05
6.67092e-05
6.60896e-05
7.00744e-05
6.98173e-05
6.99309e-05
6.96902e-05
6.9691e-05
6.95839e-05
6.96623e-05
6.96363e-05
6.87188e-05
6.81323e-05
4.19678e-05
6.8195e-05
6.80973e-05
6.9562e-05
6.95625e-05
6.96699e-05
6.96341e-05
4.22971e-05
6.78846e-05
6.82482e-05
6.80149e-05
6.80898e-05
6.52046e-05
7.15462e-05
6.46215e-05
7.14627e-05
5.31842e-05
6.07634e-05
2.46881e-05
3.52097e-05