/*--------------------------------*- C++ -*----------------------------------*\
| =========                 |                                                 |
| \\      /  F ield         | OpenFOAM: The Open Source CFD Toolbox           |
|  \\    /   O peration     | Version:  v2006                                 |
|   \\  /    A nd           | Website:  www.openfoam.com                      |
|    \\/     M anipulation  |                                                 |
\*---------------------------------------------------------------------------*/
FoamFile
{
    version     2.0;
    format      ascii;
    class       volScalarField;
    location    "1000";
    object      p;
}
// * * * * * * * * * * * * * * * * * * * * * * * * * * * * * * * * * * * * * //

dimensions      [0 2 -2 0 0 0 0];


internalField   nonuniform List<scalar> 
14310
(
0.00200612
0.00200424
0.00200423
0.0020049
0.0020052
0.00200486
0.00200518
0.00200456
0.00200457
0.00200445
0.00200446
0.00200522
0.00200498
0.0020041
0.00200538
0.00200416
0.0020054
0.00200494
0.00200409
0.00200543
0.00200515
0.00200408
0.00200543
0.00200037
0.0020049
0.0020004
0.00200493
0.00200034
0.00200061
0.00200072
0.00200513
0.00200519
0.00200516
0.00200057
0.00200071
0.00200045
0.00200491
0.00200039
0.00200494
0.0020004
0.00200057
0.00200072
0.00200512
0.0020051
0.00200506
0.00200066
0.00200059
0.002
0.00200004
0.00200054
0.00200533
0.0020044
0.0019999
0.00200502
0.00199989
0.00200091
0.00200052
0.00200533
0.00200436
0.00199995
0.00200501
0.00199987
0.00200088
0.00199957
0.00200383
0.00200382
0.00200417
0.00199929
0.00199929
0.00200037
0.00200495
0.00200491
0.00200038
0.00200044
0.00200508
0.00200074
0.00200514
0.00200059
0.00200499
0.00200056
0.00200039
0.00200489
0.00200033
0.00200055
0.0020007
0.00200508
0.00200508
0.00200057
0.00200505
0.00200063
0.00200118
0.00200562
0.00200562
0.00200202
0.0020054
0.00200138
0.00200138
0.00200128
0.00200529
0.00200554
0.00200094
0.00200122
0.00200551
0.00200526
0.00200061
0.00200093
0.00200551
0.00200119
0.00200137
0.00200116
0.00200537
0.00200555
0.00200113
0.00200557
0.00200132
0.00200132
0.00200529
0.00200118
0.00200556
0.00200552
0.00200102
0.00200135
0.00200126
0.00200548
0.00200525
0.00200058
0.00200091
0.00200556
0.00200111
0.00200135
0.00200118
0.00200538
0.00200561
0.0020011
0.00200559
0.00200137
0.00200122
0.00200084
0.00200135
0.00200116
0.0020056
0.00200535
0.0020056
0.00200136
0.00200106
0.00168542
0.00168086
0.00168566
0.00168125
0.00168577
0.00168119
0.00169029
0.00168573
0.00168132
0.00168598
0.00168129
0.00168579
0.00168144
0.00169013
0.00169028
0.00169004
0.00168237
0.00168038
0.00168255
0.00168564
0.00168601
0.00168324
0.00168335
0.0016859
0.00168058
0.00169361
0.00169177
0.00168007
0.00169364
0.00168091
0.00169332
0.0016939
0.00168091
0.00168085
0.00169333
0.00169324
0.00168073
0.00169329
0.00169916
0.00169872
0.00169442
0.00169178
0.00168066
0.00168389
0.00169375
0.001693
0.00168102
0.00169404
0.00168065
0.00169385
0.00168072
0.00169466
0.00169439
0.00168481
0.00168168
0.00169355
0.00169439
0.00168177
0.0016942
0.00168024
0.00169396
0.00168071
0.0016853
0.00168229
0.00168279
0.00168062
0.00168145
0.00167942
0.00167964
0.00167947
0.00167972
0.00168491
0.00168488
0.00168069
0.00168499
0.00168062
0.00168928
0.00169359
0.00168927
0.00169358
0.00168933
0.00168494
0.00168914
0.00168899
0.00169319
0.00169316
0.00169305
0.00168923
0.0016892
0.00168452
0.00168016
0.001685
0.00168097
0.00168467
0.00168494
0.00168019
0.00168462
0.00168026
0.00168495
0.0016811
0.00168514
0.00168472
0.00168029
0.00168896
0.00169326
0.00169348
0.00168918
0.00168913
0.00169323
0.00168909
0.00168905
0.00169349
0.00169346
0.00168912
0.00169333
0.00168931
0.00168915
0.00168495
0.00168153
0.00168147
0.00168531
0.00168528
0.00168106
0.00168488
0.00168913
0.00170287
0.00170312
0.00169861
0.00169865
0.001703
0.00170306
0.00169847
0.00168943
0.00169402
0.00169384
0.00168964
0.0016939
0.00168962
0.00168944
0.00168468
0.00168502
0.00168056
0.00168484
0.00168037
0.00168908
0.00169342
0.00168942
0.00169337
0.00168919
0.00168495
0.00168515
0.00168073
0.00168053
0.00168518
0.00168497
0.00168051
0.00168953
0.00169402
0.00169413
0.00168974
0.00169398
0.00168954
0.00168964
0.00168491
0.00168474
0.00168018
0.00168473
0.00168039
0.00168954
0.00169408
0.00168934
0.00169409
0.00168942
0.00168507
0.00168513
0.00168056
0.0016806
0.00168505
0.00168509
0.00168061
0.00168515
0.00168061
0.00168522
0.00168603
0.00168119
0.00168573
0.00168516
0.0016812
0.00168402
0.00167943
0.001686
0.00168394
0.00168044
0.00168531
0.00168146
0.00168424
0.00167956
0.00168627
0.00168407
0.00168056
0.00168348
0.00167858
0.00167864
0.00168298
0.00168303
0.00167892
0.00168403
0.00168428
0.00168015
0.00168007
0.00168013
0.00168443
0.00168479
0.00168446
0.00168461
0.00168217
0.00168158
0.00168218
0.00168624
0.0016876
0.00168681
0.00168692
0.00168421
0.00168398
0.00168371
0.00169305
0.00169304
0.00169329
0.001693
0.00168482
0.0016843
0.00168477
0.00169426
0.00169348
0.00169344
0.00169315
0.00168041
0.00168059
0.00168058
0.00168481
0.00168489
0.00168488
0.00168461
0.00168949
0.00169376
0.00169363
0.00168935
0.00169388
0.00168945
0.00168919
0.00168915
0.00168956
0.00169336
0.00169333
0.00168906
0.00169334
0.00168905
0.00170356
0.00170334
0.00169937
0.00169919
0.00170355
0.00170336
0.00169947
0.00169001
0.00169425
0.00169449
0.00169015
0.00169427
0.00168998
0.00169025
0.00168041
0.0016808
0.00168077
0.00168495
0.00168505
0.00168479
0.00168504
0.00168955
0.00169378
0.00169371
0.00168947
0.00169383
0.00168933
0.00168955
0.00168125
0.00168116
0.00168105
0.00168534
0.00168553
0.00168538
0.0016856
0.00169089
0.00169492
0.00169469
0.00169038
0.00169509
0.00169068
0.00169038
0.00168178
0.00168057
0.00168091
0.00168638
0.00168509
0.00168551
0.00168642
0.00169111
0.00169477
0.00169539
0.00168987
0.00169533
0.0016903
0.0016911
0.00168161
0.00168129
0.00168121
0.00168623
0.00168576
0.00168603
0.00168568
0.00168249
0.00168099
0.00168154
0.00168707
0.00168555
0.00168617
0.001687
0.00168281
0.0016822
0.00168194
0.00168721
0.00168678
0.00168722
0.00168651
0.00197436
0.00197694
0.00197685
0.00197684
0.00197428
0.00197681
0.00199071
0.00199061
0.00199351
0.00199164
0.00199136
0.00199171
0.0019914
0.0019773
0.00197726
0.00199089
0.00199096
0.00199306
0.00199085
0.0019909
0.00197299
0.00198636
0.00197306
0.00198642
0.00198819
0.00197307
0.00197311
0.00198636
0.00198641
0.00199102
0.00199165
0.0019923
0.00199544
0.00199163
0.00199544
0.00199135
0.00199579
0.00199231
0.00199559
0.00198706
0.00197317
0.0019868
0.00197337
0.00198705
0.00197334
0.00198764
0.00198636
0.00197347
0.00197735
0.00198702
0.00198655
0.00197398
0.00198767
0.00197399
0.00199225
0.00199539
0.00199161
0.00199533
0.00198712
0.00197329
0.00198684
0.00197341
0.00198758
0.00198628
0.0019735
0.00197709
0.00198702
0.00198636
0.00197391
0.00198712
0.00197312
0.00198674
0.0019734
0.00198756
0.00198628
0.0019771
0.00197335
0.00198637
0.00198692
0.0019739
0.00197286
0.00198631
0.00198811
0.0019729
0.00197291
0.00198628
0.00198631
0.00197289
0.00198634
0.00198755
0.00198626
0.00197337
0.00198633
0.00198693
0.00198712
0.00197317
0.00198676
0.00199529
0.00199583
0.00199519
0.00199191
0.00199039
0.00199492
0.00199131
0.00199635
0.00199491
0.00198973
0.00198975
0.0019944
0.00199443
0.00199022
0.00199581
0.00199499
0.00199602
0.00199612
0.00199143
0.00199164
0.00199596
0.00199613
0.00199149
0.00199578
0.00199121
0.00199585
0.00199575
0.00199131
0.00199605
0.00199618
0.00199166
0.00199155
0.00199612
0.00199605
0.00199156
0.00199588
0.00199135
0.00199586
0.00199585
0.00199139
0.00199541
0.00199546
0.001995
0.00199034
0.00199036
0.00199476
0.00199477
0.00199051
0.00199595
0.00199087
0.00199535
0.00199187
0.00199534
0.00199142
0.00199637
0.00199593
0.00199087
0.00199539
0.00199188
0.00199532
0.00199141
0.00199636
0.00197741
0.00198193
0.00197747
0.00198197
0.00198167
0.00198594
0.00198596
0.00198604
0.00198165
0.00198165
0.00197775
0.00197354
0.00197747
0.00197313
0.00197754
0.00197809
0.0019733
0.00197776
0.00197354
0.00197752
0.00197318
0.00197754
0.00197809
0.00197331
0.00198229
0.00198638
0.00198726
0.00198193
0.00198681
0.00198195
0.00198273
0.00198232
0.00198639
0.00198727
0.00198197
0.00198681
0.00198199
0.00198274
0.00197729
0.00197301
0.00197303
0.00197732
0.00197732
0.00197299
0.00199577
0.00199553
0.00199122
0.00199577
0.00199125
0.00199586
0.00199148
0.00199617
0.00199145
0.00199599
0.00199598
0.00199134
0.00198239
0.00198686
0.00198706
0.00198255
0.00198693
0.00198233
0.00198254
0.00197754
0.00197776
0.00197308
0.00197758
0.00197302
0.00198213
0.00198667
0.00198229
0.00198667
0.00198216
0.00197775
0.00197793
0.00197316
0.00197337
0.00197773
0.00197792
0.00197316
0.00198228
0.00198689
0.00198688
0.00198255
0.0019868
0.00198234
0.0019824
0.00197771
0.00197326
0.00197791
0.00197314
0.00197774
0.00197779
0.00197317
0.00198246
0.0019871
0.00198701
0.00198262
0.00198701
0.00198259
0.00198245
0.00197767
0.0019778
0.00197315
0.00197771
0.00197313
0.00198228
0.00198679
0.00198235
0.00198681
0.00198228
0.00197785
0.00197799
0.00197337
0.00197323
0.00197797
0.00197783
0.00197326
0.00198242
0.00198698
0.00198706
0.00198261
0.00198697
0.00198243
0.00198255
0.00197762
0.00197766
0.00197311
0.00197765
0.00197307
0.00198223
0.00198672
0.00198224
0.00198674
0.00198221
0.0019778
0.00197798
0.00197323
0.00197333
0.00197782
0.00197793
0.00197322
0.00197727
0.00198185
0.00198153
0.00198581
0.00198581
0.00198594
0.00198147
0.00198146
0.00197764
0.00197342
0.00197726
0.00197296
0.00197798
0.00197749
0.00197313
0.00197762
0.0019734
0.00197737
0.00197291
0.00197736
0.00197797
0.00197312
0.00198222
0.00198625
0.00198719
0.00198181
0.00198264
0.00198671
0.00198183
0.00198221
0.00198625
0.00198718
0.00198185
0.00198671
0.00198183
0.00198263
0.0019771
0.00197274
0.00197273
0.00197706
0.00197707
0.00197271
0.00197737
0.00198188
0.00198244
0.00198707
0.00198699
0.00198258
0.00198699
0.00198255
0.00198242
0.00197763
0.00197769
0.00197308
0.00197765
0.00197309
0.00198225
0.00198675
0.00198227
0.00198678
0.00198223
0.00197804
0.00197884
0.00197382
0.00197377
0.00197831
0.00197826
0.00197369
0.00197795
0.00197873
0.0019737
0.00197369
0.00197819
0.00197819
0.00197359
0.00199647
0.00199758
0.00199265
0.00199261
0.00199681
0.00199224
0.00199686
0.00199575
0.00199548
0.00199541
0.00199532
0.0019867
0.0019773
0.00197715
0.00198656
0.00198643
0.00198635
0.00197711
0.00198667
0.00197713
0.00197713
0.00198641
0.0019864
0.0019863
0.00197705
0.00199643
0.00199726
0.00199234
0.00199233
0.00199213
0.00199668
0.00199667
0.00198295
0.00198384
0.00198757
0.00198755
0.00198727
0.00198313
0.0019831
0.00199686
0.00199663
0.00199223
0.00199258
0.00199657
0.00199685
0.00199259
0.00199667
0.00199192
0.00199603
0.0019922
0.0019963
0.00199665
0.00199237
0.00199674
0.00199575
0.00199214
0.00199189
0.00199652
0.00199629
0.00199243
0.00199681
0.00199212
0.00199662
0.00199261
0.00199644
0.00199687
0.00199254
0.00198355
0.00198756
0.00198796
0.00198323
0.00198793
0.00198315
0.00198359
0.00197854
0.00197375
0.00197794
0.00197363
0.00197834
0.00197809
0.00197404
0.0019833
0.00198724
0.00198757
0.00198259
0.00198306
0.00198771
0.00198282
0.00197876
0.00197848
0.00197389
0.00197436
0.00197839
0.00197884
0.00197428
0.00198356
0.00198747
0.001988
0.00198325
0.00198792
0.00198306
0.00198363
0.0019788
0.00197385
0.00197849
0.0019744
0.00197833
0.00197888
0.00197432
0.0019968
0.00199659
0.00199216
0.00199253
0.0019965
0.00199683
0.0019925
0.00199669
0.00199192
0.00199601
0.00199216
0.0019963
0.0019966
0.00199235
0.00198345
0.00198749
0.00198789
0.00198317
0.00198784
0.00198308
0.0019835
0.0019785
0.00197372
0.00197797
0.00197365
0.00197832
0.0019781
0.001974
0.00198327
0.00198725
0.00198754
0.0019826
0.00198303
0.00198769
0.00198283
0.00197866
0.0019784
0.00197385
0.00197423
0.00197832
0.00197873
0.00197415
0.00198343
0.00198786
0.00198745
0.00198316
0.00198783
0.00198348
0.00198305
0.00197844
0.00197364
0.00197783
0.00197355
0.00197803
0.00197824
0.00197393
0.0019832
0.00198718
0.00198747
0.00198248
0.00198762
0.00198276
0.00198295
0.00197863
0.00197839
0.00197421
0.0019738
0.00197872
0.00197829
0.00197413
0.00198284
0.00198377
0.00198748
0.00198748
0.00198304
0.00198718
0.00198304
0.0019834
0.00198787
0.00198744
0.00198312
0.00198781
0.00198345
0.00198302
0.0019784
0.00197362
0.00197784
0.00197352
0.00197822
0.001978
0.00197388
0.00198319
0.00198719
0.00198747
0.00198249
0.00198763
0.00198294
0.00198275
0.00196757
0.00196775
0.00196709
0.00196937
0.00192739
0.00192667
0.0019278
0.00193032
0.0018896
0.00189011
0.00188965
0.00189176
0.00185597
0.00185716
0.00185572
0.00185789
0.00182115
0.00181966
0.0018214
0.00182275
0.00178316
0.00178163
0.00178275
0.00178456
0.00174462
0.00174662
0.00174394
0.00174749
0.00171025
0.00171096
0.00171058
0.00171241
0.00196928
0.00193516
0.00196726
0.00196776
0.00193747
0.00193686
0.00196969
0.00193428
0.00196717
0.00196714
0.00193745
0.00193751
0.0019674
0.0019369
0.00193799
0.00196916
0.0019353
0.00196727
0.00193756
0.001938
0.00193569
0.00192989
0.00189717
0.00192751
0.00192654
0.00189888
0.00189856
0.00192895
0.00189705
0.00192757
0.00192772
0.00189907
0.00189895
0.00192802
0.00189857
0.00189852
0.00193011
0.00189702
0.00192811
0.00189892
0.00189868
0.00189665
0.0018924
0.00186272
0.00189
0.00189018
0.00186463
0.00186579
0.00189247
0.00186401
0.00189012
0.00188973
0.00186448
0.00186393
0.00188925
0.00186567
0.0018641
0.00189209
0.00186203
0.00188934
0.00186388
0.0018639
0.00186223
0.00185813
0.00182704
0.00185624
0.00185724
0.0018295
0.00182903
0.00185915
0.00182656
0.00185602
0.00185573
0.00182944
0.00183045
0.00185607
0.00182918
0.0018306
0.00185768
0.00182785
0.00185583
0.00183055
0.00183056
0.00182788
0.00182225
0.00179031
0.00182027
0.00181958
0.00179249
0.00179113
0.00182169
0.00178896
0.00182037
0.00182131
0.00179271
0.00179274
0.00182092
0.00179103
0.00179168
0.00182298
0.00179017
0.001821
0.00179266
0.00179196
0.00178957
0.00178515
0.00175195
0.00178294
0.00178173
0.00175406
0.00175509
0.00178407
0.00175327
0.00178313
0.00178283
0.00175397
0.00175309
0.00178228
0.00175523
0.00175448
0.0017849
0.00175122
0.00178255
0.00175317
0.00175434
0.00175247
0.00174708
0.00171724
0.0017449
0.00174649
0.00171921
0.00172067
0.00174851
0.0017179
0.00174462
0.00174384
0.00171897
0.00171893
0.00174525
0.00172042
0.00171871
0.00174642
0.00171721
0.00174495
0.00171874
0.00171838
0.00171674
0.00171267
0.0016814
0.00171069
0.00171123
0.00168347
0.00171277
0.00171055
0.00171074
0.00168386
0.00171052
0.00171264
0.00171037
0.00195469
0.00196858
0.00195475
0.0019687
0.00196784
0.0019545
0.00195469
0.00196866
0.00195483
0.00196873
0.00196818
0.00196753
0.00196777
0.00193749
0.00193712
0.00193765
0.00193805
0.00195494
0.00196922
0.00196793
0.00195755
0.00196942
0.00195492
0.00195801
0.00196836
0.00195476
0.00195483
0.00196753
0.00196899
0.0019573
0.00195776
0.00195484
0.00196888
0.00196846
0.0019685
0.0019552
0.00195473
0.00195476
0.00191643
0.00193107
0.00193081
0.00191668
0.00193189
0.00191791
0.00191663
0.00193119
0.00193089
0.00191682
0.0019268
0.00192762
0.00192799
0.00189847
0.00189798
0.00189826
0.00189823
0.00191621
0.00193132
0.00192759
0.00191685
0.00193065
0.00191692
0.00191757
0.00193161
0.00191735
0.00191664
0.00192809
0.00193126
0.0019181
0.00193088
0.00191821
0.00191708
0.00193096
0.00193092
0.001916
0.00191672
0.00191671
0.00187954
0.00189315
0.00189299
0.00187956
0.00189352
0.00187922
0.00187942
0.00189304
0.00189309
0.00187935
0.00188951
0.00188914
0.00188894
0.00186425
0.00186487
0.00186371
0.00186385
0.00187921
0.00189286
0.00188948
0.00188183
0.00189236
0.00187924
0.00188095
0.00189364
0.00187975
0.00187899
0.00188945
0.0018931
0.00188072
0.00189242
0.0018805
0.00187942
0.00189355
0.00189357
0.00187878
0.00187977
0.00187985
0.00184409
0.00185713
0.00185753
0.00184369
0.0018559
0.00184277
0.00184406
0.00185704
0.00185729
0.00184375
0.00185682
0.00185555
0.00185577
0.00183025
0.00183028
0.00183104
0.00183077
0.00184507
0.00185689
0.0018562
0.00184814
0.00185777
0.00184381
0.0018479
0.00185702
0.00184344
0.00184491
0.00185553
0.00185727
0.0018477
0.00185742
0.0018474
0.00184399
0.00185712
0.0018571
0.0018462
0.00184351
0.00184355
0.00180818
0.00182133
0.0018216
0.00180799
0.00182182
0.0018091
0.00180808
0.00182149
0.00182157
0.0018081
0.00182058
0.00182238
0.00182167
0.00179289
0.00179125
0.00179359
0.00179242
0.00180832
0.00182199
0.00182089
0.00181002
0.00182204
0.00180882
0.00181116
0.00182083
0.00180715
0.00180844
0.00182174
0.00182127
0.00181204
0.00182216
0.00181236
0.00180781
0.00182145
0.00182144
0.00180862
0.00180833
0.00180827
0.00177133
0.0017854
0.00178534
0.00177145
0.00178643
0.00177247
0.00177125
0.00178528
0.00178518
0.00177129
0.00178156
0.00178343
0.00178272
0.00175395
0.00175464
0.00175327
0.00175412
0.0017713
0.00178568
0.00178208
0.00177256
0.00178488
0.00177173
0.00177275
0.00178458
0.00177119
0.00177126
0.0017831
0.00178501
0.00177287
0.00178509
0.00177334
0.00177123
0.00178589
0.00178574
0.00177101
0.00177179
0.0017717
0.0017346
0.00174826
0.00174817
0.00173467
0.00174841
0.00173373
0.00173438
0.00174796
0.00174785
0.00173455
0.00174594
0.00174358
0.00174466
0.00171874
0.00172047
0.00171804
0.00171843
0.0017347
0.00174826
0.00174591
0.00173809
0.00174831
0.00173432
0.00173705
0.00174913
0.0017356
0.00173389
0.00174439
0.00174808
0.00173523
0.00174755
0.00173526
0.00173452
0.00174817
0.00174817
0.00173395
0.00173466
0.00173468
0.00169874
0.00171256
0.00171224
0.00169906
0.00171037
0.00169748
0.00169949
0.00171272
0.00171267
0.0016995
0.0017119
0.00170995
0.00171032
0.00168352
0.00169894
0.00171127
0.00171082
0.00170131
0.00171191
0.00169818
0.00170192
0.00171256
0.00169905
0.00169996
0.00171008
0.0017127
0.00170227
0.00171227
0.00170189
0.00169994
0.00171226
0.00171239
0.00170055
0.00169856
0.00169879
0.00196849
0.0019549
0.00196857
0.00195497
0.00196861
0.00196866
0.00195501
0.00195506
0.00195509
0.00193624
0.00195029
0.00193628
0.00195036
0.00194971
0.00193639
0.00193637
0.00195044
0.00195047
0.00195463
0.00196841
0.00195488
0.00196866
0.00195501
0.00196878
0.00196782
0.00195743
0.001955
0.00195797
0.00196948
0.00195497
0.00196914
0.00196795
0.00195753
0.00195493
0.00195798
0.00196942
0.00194994
0.00193588
0.00195004
0.00193567
0.00194989
0.00193612
0.00195016
0.00193565
0.00195003
0.00194747
0.001936
0.00193772
0.00195018
0.0019479
0.00193567
0.00194998
0.00194724
0.00193615
0.00193756
0.00195017
0.00194784
0.00193562
0.00196778
0.00196779
0.00195491
0.00195455
0.0019545
0.00196786
0.00195445
0.0019365
0.00194996
0.00194954
0.0019368
0.00193677
0.00195006
0.00195001
0.00193645
0.00194991
0.00195493
0.00196882
0.00196755
0.00195735
0.00195503
0.00195777
0.00196903
0.00195468
0.00196851
0.00195463
0.00196872
0.00195492
0.00196755
0.00196866
0.00195732
0.00195777
0.00195485
0.00196901
0.00194994
0.00193599
0.00195013
0.00193571
0.00194997
0.00194742
0.00193605
0.00193778
0.0019502
0.00194779
0.00193572
0.00194993
0.00193598
0.00194994
0.00193573
0.00194996
0.00194742
0.00193784
0.00193603
0.00194782
0.00195003
0.00193573
0.00195457
0.00196846
0.00196863
0.00195487
0.00195499
0.00196788
0.00196878
0.00195767
0.00196929
0.00195812
0.00195468
0.00195463
0.00196835
0.00196868
0.00195442
0.00194997
0.00194729
0.00193617
0.00193774
0.00195017
0.00194793
0.00193566
0.00194982
0.00193613
0.00195015
0.00193563
0.00195001
0.00194785
0.00193806
0.00193575
0.00194815
0.00194987
0.0019357
0.00194987
0.00193568
0.00194973
0.00193562
0.00196843
0.00196841
0.00195495
0.00195488
0.00195485
0.00196838
0.00195477
0.00193638
0.0019502
0.00194972
0.00193644
0.00193642
0.0019503
0.00195028
0.00193631
0.0019502
0.00195485
0.00196759
0.00196867
0.00195754
0.00195787
0.00195472
0.00196905
0.0019546
0.00196855
0.00195467
0.00196864
0.00195461
0.0019684
0.00195448
0.00196866
0.00194991
0.00194744
0.00193799
0.00193611
0.00194789
0.00195004
0.00193583
0.00194993
0.00194779
0.00193812
0.00193587
0.00194803
0.00194992
0.00193581
0.00194986
0.001936
0.00194999
0.00193574
0.00194986
0.00193577
0.00194982
0.00193567
0.00196833
0.00195463
0.00196842
0.00195472
0.00195001
0.00193577
0.00193574
0.00195002
0.00195003
0.00193575
0.00194994
0.00193574
0.00194999
0.00193142
0.0019171
0.00193146
0.0019171
0.00193156
0.00193154
0.00191574
0.00191715
0.00191718
0.00189809
0.00191228
0.00189812
0.00191229
0.0019107
0.00189804
0.00189809
0.00191232
0.00191236
0.00191647
0.00193136
0.0019308
0.00191697
0.00191609
0.00193103
0.00192762
0.00191768
0.0019306
0.00191659
0.00191763
0.00191606
0.00193129
0.00192735
0.00191675
0.00193056
0.00191689
0.00191736
0.00191163
0.00189781
0.00191188
0.00189759
0.00191167
0.00189785
0.00191214
0.00189764
0.00191107
0.00190812
0.00189758
0.00189858
0.00191165
0.00190791
0.00189714
0.00191108
0.00190738
0.0018977
0.00189845
0.00191193
0.00190768
0.00189718
0.00193222
0.00193219
0.00191487
0.0019181
0.00191812
0.00193185
0.0019179
0.00189853
0.00191312
0.00191003
0.00189848
0.00189881
0.00191327
0.00191328
0.00189879
0.0019131
0.0019164
0.0019311
0.00192783
0.00191781
0.0019307
0.00191674
0.00191797
0.00191666
0.00193125
0.00193092
0.00191711
0.00191645
0.00192789
0.00193118
0.001918
0.00193072
0.00191804
0.00191705
0.00191184
0.00189776
0.001912
0.00189777
0.00191145
0.0019083
0.00189766
0.00189892
0.00191181
0.00190831
0.00189747
0.00191186
0.00189818
0.00191235
0.00189776
0.00191149
0.00190841
0.00189887
0.00189798
0.00190833
0.00191217
0.00189748
0.0019165
0.00193136
0.00193082
0.00191693
0.0019162
0.00192794
0.00193086
0.00191805
0.00193068
0.00191792
0.00191662
0.00191641
0.00193091
0.00193079
0.00191671
0.00191121
0.00190745
0.0018977
0.00189847
0.00191194
0.00190782
0.00189713
0.00191171
0.00189768
0.00191209
0.00189759
0.00191117
0.00190818
0.00189845
0.00189765
0.00190805
0.00191174
0.00189705
0.00191161
0.00189784
0.00191195
0.00189752
0.00193168
0.00193167
0.00191613
0.00191742
0.00191743
0.00193156
0.00191732
0.00189835
0.00191255
0.00191097
0.00189836
0.00189839
0.00191261
0.00191263
0.0018984
0.00191254
0.00191658
0.00192819
0.00193097
0.0019182
0.00193084
0.00191829
0.00191671
0.00191671
0.00193126
0.00193096
0.00191705
0.00191662
0.00193103
0.00193088
0.00191673
0.00191162
0.00190845
0.00189881
0.00189791
0.00190843
0.00191216
0.00189731
0.00191157
0.00190834
0.0018988
0.00189766
0.00190849
0.00191182
0.00189728
0.00191188
0.00189812
0.00191229
0.00189767
0.0019118
0.00189773
0.00191192
0.00189764
0.00193095
0.00191667
0.00193092
0.00191666
0.00191075
0.00189815
0.0018982
0.00191199
0.00191197
0.00189813
0.00191191
0.00189808
0.00191187
0.00189334
0.00187943
0.00189335
0.00187938
0.00189329
0.00189335
0.00187955
0.0018793
0.0018793
0.00186116
0.00187481
0.00186109
0.00187476
0.00187498
0.00186101
0.001861
0.00187468
0.00187466
0.00187956
0.0018931
0.00189303
0.00187939
0.00187944
0.00189283
0.00188963
0.00188137
0.00189246
0.00187941
0.00188105
0.00187948
0.00189291
0.0018896
0.00188192
0.0018925
0.00187935
0.00188115
0.00187508
0.00186171
0.00187509
0.00186198
0.0018751
0.00186128
0.00187487
0.00186197
0.00187498
0.00187294
0.00186183
0.00186442
0.00187491
0.00187269
0.0018623
0.00187501
0.00187384
0.00186144
0.00186463
0.00187484
0.00187289
0.00186233
0.00189348
0.00189357
0.00188015
0.00187911
0.0018791
0.0018936
0.00187924
0.00186045
0.00187439
0.00187587
0.00186024
0.00186023
0.00187426
0.00187424
0.00186046
0.00187439
0.00187928
0.00189288
0.00188981
0.00188139
0.00189268
0.00187927
0.00188097
0.00187941
0.00189345
0.00189308
0.00187959
0.00187926
0.00188966
0.00189318
0.00188081
0.00189267
0.00188079
0.00187949
0.00187491
0.00186152
0.00187486
0.00186169
0.0018747
0.00187286
0.00186159
0.00186396
0.00187473
0.00187239
0.00186185
0.0018749
0.00186166
0.00187501
0.00186171
0.0018747
0.00187227
0.00186382
0.00186171
0.00187221
0.00187487
0.00186184
0.00187942
0.00189299
0.00189293
0.00187932
0.00187916
0.00188931
0.00189282
0.0018805
0.00189227
0.00188056
0.00187935
0.00187944
0.00189317
0.00189288
0.00187953
0.00187477
0.00187373
0.00186141
0.00186442
0.00187472
0.00187265
0.00186213
0.00187496
0.00186131
0.00187481
0.00186187
0.00187473
0.0018722
0.00186412
0.00186188
0.00187224
0.00187482
0.00186213
0.00187498
0.00186184
0.00187504
0.00186192
0.00189365
0.00189367
0.00187894
0.00187976
0.00187976
0.00189369
0.00187982
0.0018616
0.00187513
0.00187438
0.0018616
0.00186157
0.00187515
0.00187513
0.00186157
0.00187513
0.00187899
0.0018894
0.0018928
0.00188048
0.0018924
0.00188044
0.00187921
0.00187931
0.00189341
0.00189297
0.00187956
0.00187935
0.00189305
0.00189295
0.00187938
0.00187447
0.00187219
0.00186366
0.00186169
0.00187194
0.00187483
0.00186178
0.00187447
0.00187208
0.00186362
0.00186168
0.00187188
0.00187469
0.00186178
0.00187482
0.00186164
0.00187501
0.00186169
0.00187487
0.00186171
0.00187486
0.00186172
0.00189356
0.00187987
0.00189352
0.00187995
0.00187432
0.00186162
0.0018616
0.00187513
0.00187516
0.00186172
0.00187522
0.00186173
0.00187525
0.00185664
0.00184339
0.00185661
0.00184346
0.00185656
0.00185653
0.0018451
0.00184346
0.00184344
0.001826
0.00183899
0.00182603
0.00183907
0.00184037
0.00182614
0.00182613
0.00183908
0.0018391
0.00184405
0.00185676
0.00185752
0.00184343
0.00184475
0.00185728
0.00185609
0.00184762
0.0018579
0.00184398
0.00184765
0.00184473
0.00185688
0.00185632
0.00184815
0.00185791
0.00184366
0.00184789
0.00183955
0.0018258
0.00183918
0.00182611
0.00183951
0.00182611
0.00183903
0.00182608
0.00184004
0.00183867
0.0018261
0.0018301
0.00183938
0.00183905
0.00182649
0.00184001
0.00183868
0.00182641
0.00183007
0.00183918
0.00183915
0.00182646
0.00185573
0.00185572
0.00184533
0.00184268
0.00184272
0.00185592
0.00184281
0.00182602
0.00183852
0.00184041
0.00182604
0.0018262
0.00183848
0.00183852
0.0018261
0.00183855
0.00184455
0.00185708
0.00185562
0.00184738
0.00185742
0.00184394
0.00184732
0.0018441
0.00185718
0.00185733
0.00184366
0.00184459
0.00185555
0.00185726
0.00184769
0.00185743
0.0018473
0.00184395
0.00183959
0.00182598
0.00183929
0.00182614
0.00183995
0.00183848
0.00182625
0.00183013
0.00183943
0.00183885
0.00182661
0.00183961
0.00182553
0.00183911
0.00182613
0.00184
0.00183927
0.00183041
0.00182583
0.00183896
0.00183934
0.00182663
0.00184427
0.00185682
0.00185751
0.00184355
0.00184516
0.001856
0.00185754
0.00184815
0.00185779
0.00184769
0.00184442
0.00184435
0.00185745
0.00185758
0.00184399
0.00184043
0.00183876
0.00182645
0.00183033
0.00183934
0.0018393
0.00182684
0.00183979
0.00182617
0.00183915
0.00182633
0.00184053
0.00183975
0.0018306
0.00182633
0.0018393
0.0018398
0.00182689
0.00183984
0.00182606
0.00183947
0.00182635
0.00185707
0.00185705
0.00184571
0.00184348
0.00184345
0.00185698
0.00184339
0.0018254
0.00183892
0.00184116
0.00182538
0.00182542
0.00183897
0.00183894
0.00182545
0.00183888
0.00184494
0.0018555
0.00185731
0.00184788
0.00185742
0.00184735
0.00184443
0.00184429
0.00185717
0.00185735
0.00184365
0.00184433
0.00185737
0.00185737
0.00184408
0.00184038
0.00183934
0.00183067
0.0018259
0.00183916
0.00183939
0.00182693
0.00184041
0.00183955
0.00183055
0.00182646
0.00183907
0.00183984
0.00182694
0.00183982
0.00182559
0.00183911
0.00182636
0.00183984
0.00182629
0.00183962
0.00182637
0.00185712
0.00184347
0.00185719
0.00184355
0.00184158
0.00182586
0.00182582
0.00183906
0.00183907
0.00182581
0.00183902
0.00182603
0.00183908
0.00182161
0.00180831
0.0018216
0.00180818
0.00182174
0.00182171
0.00180887
0.00180833
0.00180824
0.00178995
0.00180373
0.00178972
0.00180358
0.0018039
0.00178988
0.00178972
0.00180374
0.00180363
0.0018082
0.00182177
0.00182157
0.00180877
0.00180842
0.00182154
0.00182087
0.00181108
0.0018218
0.00180822
0.00181142
0.0018084
0.0018219
0.00182064
0.0018101
0.00182177
0.00180887
0.00181109
0.00180366
0.00179002
0.00180356
0.00179001
0.00180368
0.00179058
0.00180429
0.00179006
0.0018037
0.00180185
0.00179006
0.00179236
0.00180362
0.00180193
0.00179007
0.00180369
0.00180058
0.00179058
0.0017919
0.00180429
0.0018015
0.00179005
0.00182192
0.00182199
0.00180771
0.00180925
0.00180925
0.00182185
0.00180912
0.00179104
0.00180463
0.00180258
0.00179121
0.00179118
0.0018048
0.00180481
0.00179108
0.00180466
0.00180853
0.0018217
0.00182114
0.00181126
0.00182193
0.00180835
0.00181193
0.00180801
0.00182099
0.00182156
0.00180754
0.00180849
0.00182152
0.0018212
0.001812
0.00182194
0.00181227
0.00180779
0.00180351
0.00178992
0.00180357
0.00178981
0.00180383
0.00180206
0.00179003
0.001793
0.00180372
0.00180255
0.00179016
0.00180343
0.00178958
0.00180303
0.00178974
0.00180379
0.00180251
0.00179311
0.0017897
0.00180279
0.00180318
0.00179012
0.00180821
0.00182182
0.00182177
0.00180872
0.00180832
0.00182129
0.00182169
0.00181105
0.00182208
0.00181157
0.00180816
0.0018082
0.00182153
0.00182178
0.001808
0.00180353
0.00180052
0.00179048
0.00179168
0.00180421
0.00180139
0.00178968
0.00180362
0.00179059
0.00180425
0.00178987
0.00180353
0.0018013
0.00179198
0.00179001
0.00180173
0.00180346
0.00178974
0.00180361
0.00179
0.00180345
0.00178988
0.00182078
0.00182084
0.00180945
0.00180706
0.00180713
0.00182091
0.00180725
0.00178912
0.00180255
0.0018043
0.00178906
0.00178903
0.00180249
0.00180254
0.00178911
0.00180264
0.00180844
0.00182156
0.00182186
0.00181125
0.00182216
0.00181211
0.00180832
0.00180805
0.00182106
0.00182174
0.00180762
0.0018081
0.00182187
0.00182177
0.00180813
0.00180366
0.00180247
0.00179293
0.00178969
0.00180272
0.0018032
0.0017899
0.00180367
0.00180156
0.00179272
0.00179004
0.00180244
0.00180363
0.00179
0.00180341
0.00178959
0.00180309
0.00178965
0.00180349
0.00178987
0.00180354
0.00178976
0.0018214
0.00180827
0.00182149
0.00180817
0.00180355
0.00179058
0.00179038
0.00180392
0.0018038
0.00179057
0.0018039
0.00179023
0.00180371
0.00178527
0.00177129
0.00178508
0.0017712
0.00178522
0.00178509
0.00177123
0.00177127
0.00177127
0.00175314
0.0017666
0.00175312
0.00176652
0.00176605
0.00175311
0.00175312
0.00176662
0.00176663
0.00177143
0.00178589
0.00178539
0.00177177
0.00177114
0.00178534
0.00178273
0.00177331
0.00178522
0.00177137
0.00177312
0.00177116
0.00178576
0.00178231
0.00177259
0.0017852
0.00177167