/*--------------------------------*- C++ -*----------------------------------*\
| =========                 |                                                 |
| \\      /  F ield         | OpenFOAM: The Open Source CFD Toolbox           |
|  \\    /   O peration     | Version:  v2006                                 |
|   \\  /    A nd           | Website:  www.openfoam.com                      |
|    \\/     M anipulation  |                                                 |
\*---------------------------------------------------------------------------*/
FoamFile
{
    version     2.0;
    format      ascii;
    class       surfaceScalarField;
    location    "1000";
    object      phi;
}
// * * * * * * * * * * * * * * * * * * * * * * * * * * * * * * * * * * * * * //

dimensions      [0 3 -1 0 0 0 0];
oriented        oriented;


internalField   nonuniform List<scalar> 
41142
(
1.40278e-06
1.38748e-06
-3.09518e-07
-2.9768e-07
0.000270875
5.22127e-07
-3.64204e-07
1.17452e-06
1.45329e-07
8.81406e-07
-2.5574e-07
-9.01759e-07
1.9531e-07
0.00114402
6.41856e-07
-3.89761e-07
1.10037e-06
1.00062e-07
9.01795e-07
-2.3633e-07
-8.87452e-07
2.168e-07
0.00114495
1.32651e-07
5.0311e-08
-1.66876e-07
0.000192574
-4.66144e-08
-8.11721e-09
0.00022947
1.8598e-08
7.6468e-08
1.20181e-07
3.70615e-08
-1.41859e-07
0.000192557
-5.00525e-09
7.76931e-09
0.000229433
2.75099e-08
1.34824e-08
1.05874e-07
9.7245e-05
9.53212e-08
9.72411e-05
-1.61691e-07
5.44454e-08
2.06194e-07
0.00027724
-1.29217e-07
3.78492e-08
1.85306e-07
0.000277166
-1.62193e-08
-1.80255e-08
0.000229429
2.17689e-08
1.01548e-07
-1.21973e-07
0.000245488
-1.08548e-07
9.94313e-07
-8.08368e-07
-9.90402e-07
8.20991e-07
0.00116368
-3.87466e-08
0.000251925
4.41183e-08
1.44016e-07
1.01424e-06
-8.03364e-07
-9.75705e-07
8.25394e-07
0.00116368
-3.71869e-08
0.000251889
1.36059e-07
7.9566e-08
-8.05026e-08
0.000245445
3.39967e-08
9.98646e-07
-8.15569e-07
-9.90169e-07
8.14716e-07
0.00116343
5.65105e-09
0.00025188
2.47967e-09
1.45311e-07
5.17626e-11
0.000229391
1.0707e-08
4.12231e-08
9.92119e-07
-8.20575e-07
-1.002e-06
8.09547e-07
0.00116344
0.000251849
1.50995e-07
1.13664e-08
-7.86065e-05
2.40378e-08
-5.37808e-08
7.86362e-05
-6.28709e-08
0.000262151
-1.085e-07
3.6377e-08
-1.51614e-07
1.31668e-07
-5.44382e-09
0.0001926
-6.27332e-08
-1.10581e-07
-4.34116e-08
0.000262177
-0.000142455
-3.4198e-08
-2.89975e-08
0.000142464
4.98143e-08
7.85211e-08
-4.26868e-08
-9.9482e-08
0.000229484
4.60189e-08
0.000170109
-9.95543e-09
-2.22535e-09
0.000223125
1.59578e-08
2.65063e-09
0.000170122
-7.59312e-08
0.00022314
-7.86228e-05
2.62616e-08
-4.98648e-08
7.86464e-05
-5.61502e-08
0.00026213
-6.71282e-08
2.19892e-08
-1.3972e-07
1.27348e-07
-1.39767e-08
0.000192583
-4.98799e-08
-7.63826e-08
-5.11292e-08
0.000262144
-0.000142464
-2.86355e-08
-3.35301e-08
0.000142476
3.45491e-08
4.33138e-08
6.47835e-09
-9.18003e-08
0.000229441
6.14307e-10
0.000223097
4.07888e-09
3.36047e-08
0.000170089
-7.25127e-10
-7.9523e-08
0.000223106
-1.97835e-09
0.000170101
7.42604e-08
9.73024e-05
7.1418e-08
9.72971e-05
-0.000221617
1.51226e-08
-7.27153e-08
2.3199e-08
1.72871e-08
0.000221634
2.00946e-08
0.000251197
1.06637e-07
3.05943e-08
1.84565e-08
0.000182263
1.26709e-07
2.06435e-07
7.47134e-09
-1.97416e-07
0.000277298
-4.07685e-09
9.02139e-08
1.24888e-07
0.000182359
-2.66833e-08
-5.00217e-08
0.000251208
-0.000221546
3.34022e-08
-4.07317e-08
-1.90588e-10
-1.44e-08
0.000221568
-1.33516e-08
0.000251074
8.22749e-08
6.53957e-08
2.12106e-09
0.000182213
1.18756e-07
1.93848e-07
-1.18068e-08
-1.63802e-07
0.000277219
-2.49752e-08
6.25522e-08
1.23647e-07
0.000182316
-5.18502e-08
-5.16118e-09
0.000251078
-0.000212899
-2.4544e-08
-2.24321e-08
0.000212969
3.90654e-08
8.02189e-05
3.01959e-08
8.02025e-05
8.03193e-05
8.03037e-05
-7.85789e-05
3.26515e-08
-5.13329e-08
7.85976e-05
-4.52205e-08
0.000262077
-2.02285e-08
7.64049e-09
-3.5177e-08
-4.30955e-08
-6.58985e-08
0.000262073
-3.55371e-08
-0.000142438
-4.04011e-08
0.000142463
1.42876e-08
0.000223049
-1.69068e-08
5.23772e-08
-6.40068e-09
-1.04172e-07
0.000229444
0.000170091
2.1437e-08
0.000170111
-1.04207e-07
0.000223064
-7.85825e-05
1.99954e-08
-4.5394e-08
7.86079e-05
-4.81709e-08
-8.18717e-08
-5.11545e-08
0.000262022
-2.9182e-08
-0.000142376
-3.03488e-08
0.00014239
4.49015e-08
4.55567e-08
-9.19485e-08
0.000229399
0.000170047
3.20961e-08
-3.10533e-09
0.00022299
1.44379e-08
0.000170061
-7.87522e-08
0.000223002
-0.000243417
-5.96211e-08
-2.14413e-08
0.000243501
-1.70243e-07
0.000262371
-1.96026e-07
0.000262774
1.56715e-07
1.96683e-07
0.000272796
0.000262586
0.000262997
-0.000266238
2.5077e-07
8.03528e-08
0.0002669
1.20119e-07
0.000251436
1.94479e-08
9.68682e-08
-6.46662e-10
0.000251545
2.1304e-07
-0.000266287
-6.44835e-10
6.10694e-09
0.00026695
3.05575e-08
0.000261743
0.000251506
1.54535e-07
-6.94149e-08
-1.50531e-07
-9.86294e-08
0.000245535
-9.43675e-08
0.00025162
2.50279e-08
0.000261789
2.3882e-07
-0.000268398
-3.30642e-09
0.000269162
5.71695e-08
-2.35611e-07
-4.37095e-08
0.000252047
0.000250923
1.6657e-07
-5.07966e-09
0.000268923
-2.82121e-08
0.000251049
-3.11556e-08
0.000269537
-0.000268333
2.67451e-07
6.56131e-08
0.000269094
1.41018e-07
0.000250837
-3.17601e-08
-2.41557e-07
0.000252014
-6.01149e-08
0.000268903
0.000250968
0.000269521
2.27297e-07
-0.000266265
-3.64225e-08
3.59371e-08
0.00026694
6.96465e-08
0.00026171
0.000251466
1.38086e-07
-2.63289e-08
-1.08099e-07
-1.15698e-07
0.000245491
-4.35365e-08
0.000251578
6.83274e-08
0.000261769
2.44788e-07
-0.000268352
2.93851e-08
0.000269113
1.01695e-08
-2.27693e-07
6.89892e-09
0.000251999
0.000250876
1.60247e-07
-3.43923e-08
0.000268883
5.56638e-09
0.000251008
-2.70914e-09
0.000269502
2.18179e-07
3.87073e-08
0.000266821
-5.74269e-08
0.000251454
-0.000268287
2.85781e-08
2.37136e-07
0.000269052
-2.26901e-07
2.38169e-08
0.000251967
-3.49368e-08
0.000268869
1.67564e-07
0.000250783
0.000269478
0.000250908
7.85345e-05
-2.01067e-07
-7.8547e-05
2.13518e-07
-2.0276e-07
1.94758e-07
-2.18992e-07
0.000142272
-0.000142281
2.7377e-08
-0.000169726
2.34729e-07
-2.36087e-07
-2.34977e-08
-2.01412e-07
-0.000169723
-2.05747e-08
2.702e-08
0.000169655
1.59178e-07
-1.27924e-07
-0.000169615
-7.13936e-08
7.86369e-05
1.46972e-07
-1.6124e-07
-7.86226e-05
1.98628e-07
-2.31099e-07
1.83423e-07
0.000142046
-0.000142048
-3.42158e-08
-0.000169661
-2.32543e-07
-3.9252e-08
-2.34243e-08
-7.09667e-08
-1.91322e-07
1.88039e-07
-0.000142248
-3.02314e-08
-0.000169683
-7.21264e-08
-7.85242e-05
1.65289e-07
1.34749e-06
7.00988e-08
-0.00113505
1.45974e-07
3.45305e-07
-1.18876e-06
-1.48165e-07
7.71567e-07
-9.94383e-07
-3.09126e-07
-4.92545e-07
-1.46731e-06
2.61899e-07
3.80668e-07
-0.000268492
4.9145e-07
-0.00113578
7.06505e-07
-1.42505e-06
4.9966e-07
-1.01692e-06
1.48121e-08
7.67418e-08
-1.03634e-06
-3.69443e-07
8.92278e-07
1.05933e-06
-0.00113938
1.8829e-06
1.9395e-07
-9.68245e-08
-1.61161e-06
-5.84675e-07
9.06183e-07
-8.13412e-07
-2.03248e-07
1.03646e-06
1.174e-06
1.32465e-06
9.70334e-08
8.07658e-08
-1.41205e-06
-4.06963e-07
8.04785e-07
-9.1135e-07
-3.03621e-07
-0.00114061
-1.32063e-08
1.49197e-07
-0.000268944
8.44781e-08
8.16482e-07
-0.00118724
1.15289e-06
1.64377e-06
-0.00119142
-1.14338e-07
-0.000192141
9.47409e-08
1.69516e-08
8.74182e-08
-6.07369e-08
-3.44709e-09
0.000192163
-0.000192186
-1.25215e-06
7.36538e-07
7.15892e-07
-3.61608e-07
-1.0356e-06
7.58183e-08
1.27249e-06
-2.12355e-07
2.76163e-07
-0.0011354
1.32601e-07
8.49069e-08
-1.62452e-07
9.57612e-09
-0.000259843
2.70092e-08
-1.28568e-07
2.2426e-07
0.000244173
-0.000244209
-5.54874e-08
-9.72652e-05
-7.92747e-09
9.73892e-05
-9.7442e-05
1.16183e-06
0.00026829
-2.08358e-07
-2.43847e-07
-0.000270252
-2.23011e-08
-0.000276676
-1.28916e-07
1.0017e-07
1.96793e-07
-1.69914e-08
-0.000276899
-2.7392e-07
1.00194e-07
-6.77904e-08
8.8848e-08
0.000276683
-0.000276685
4.19892e-08
-1.1298e-07
-6.68821e-08
1.15146e-07
0.000276882
-0.000276859
2.28137e-07
-9.72835e-05
7.57915e-08
9.73567e-05
-9.73905e-05
1.33497e-07
0.000250335
-0.000250219
-2.775e-07
-2.99329e-07
3.2682e-07
0.000228389
-0.000228382
5.84027e-08
-1.9197e-07
2.59286e-07
-3.26467e-08
-3.44344e-07
3.61106e-07
1.73527e-07
0.000250131
-0.000250289
-4.31158e-07
8.36885e-07
1.31819e-06
-1.18838e-07
3.76224e-07
7.01959e-07
-3.82377e-07
-1.02685e-06
4.68774e-08
-0.00113594
-4.0267e-07
3.19071e-07
2.62622e-08
-0.000264182
-0.00116027
8.46765e-07
-1.62506e-06
8.07019e-07
7.00424e-07
-1.07981e-06
-8.64919e-07
-9.19071e-08
-2.57856e-07
2.62471e-07
0.000244363
-0.000244388
-5.70391e-07
8.52824e-07
8.73832e-07
-8.25636e-07
-1.05046e-06
7.44665e-07
-0.00116073
-4.18075e-07
7.77484e-08
-0.000266245
-2.00091e-07
2.1386e-07
7.68406e-09
0.000228344
-0.000228398
-0.000192074
2.72647e-07
-4.89436e-08
2.26241e-08
0.000192114
-0.000192153
2.48691e-08
-0.000228277
-2.40206e-08
1.83538e-08
-9.56752e-09
4.32707e-08
7.75522e-08
-3.00926e-07
0.000250171
1.20326e-06
8.15066e-07
9.9416e-07
-9.82362e-08
-7.39664e-07
2.98123e-07
-0.00114071
-1.50392e-06
9.63225e-07
-5.26682e-07
-7.22939e-08
-0.00116228
9.95389e-07
7.57936e-07
8.00831e-07
-9.21757e-07
-7.66362e-07
-5.65811e-08
2.14217e-07
7.17497e-08
-0.000260013
6.05997e-07
1.06234e-06
-7.30354e-07
-8.68734e-07
8.5042e-07
-0.00116257
1.63416e-08
3.85915e-08
-6.61556e-08
0.000244407
-0.000244545
1.49186e-07
-3.23853e-07
3.89375e-07
2.46693e-07
-0.000266428
2.43997e-08
-1.2628e-07
0.000228334
2.29256e-07
-0.000192139
-3.00033e-07
4.58714e-08
-2.44176e-07
0.000192108
-0.000192103
2.55421e-07
-0.000228258
1.24531e-08
8.35886e-08
-5.72946e-08
9.49569e-07
5.80527e-07
7.7534e-07
-9.66584e-07
-7.89564e-07
9.63556e-07
-0.00116299
1.58956e-07
-3.21987e-08
1.5121e-08
-0.000260071
-3.48106e-08
1.10902e-07
2.29977e-07
-0.000266609
3.11256e-07
-0.000192218
-4.23402e-07
7.66876e-08
-0.000228274
1.83002e-07
-8.55032e-08
-1.0372e-07
-1.35209e-07
2.87948e-08
-0.00027637
2.42455e-07
-2.42593e-07
-2.11991e-07
1.14447e-07
-0.000276265
3.79289e-07
-3.95595e-07
-9.73224e-05
-9.73323e-05
2.19469e-08
7.85204e-05
-7.85463e-05
3.90771e-09
7.1382e-08
-0.000192176
-1.14497e-07
7.87125e-08
-0.000261261
6.4406e-09
4.51818e-08
8.39788e-09
-0.000261279
1.26075e-07
-1.47951e-08
8.07846e-09
-7.85412e-05
-7.50901e-10
-4.309e-09
-3.35863e-08
0.000261244
1.26671e-07
-0.000261258
-8.31023e-08
4.23321e-08
-8.41386e-08
2.88419e-08
-7.85568e-05
-1.7988e-08
5.52048e-08
-4.79598e-08
-9.73502e-05
-2.94852e-08
-4.51339e-08
-0.000212833
-2.32082e-08
2.93629e-08
5.53277e-09
-2.92243e-08
0.000212851
2.39185e-08
8.03966e-05
4.27383e-08
-8.04633e-05
8.85193e-09
8.0386e-05
6.02965e-08
-8.04551e-05
4.01043e-08
-2.10391e-08
-0.000212819
4.81256e-08
8.03253e-05
1.02925e-07
8.03124e-05
2.05797e-08
-3.49998e-08
0.00022108
-0.000221031
-1.48615e-08
-1.9187e-08
-0.000249881
-1.20651e-09
-1.11361e-07
5.48636e-08
-1.34236e-07
-0.000276707
8.07384e-08
-0.000182189
1.13646e-08
-5.13863e-08
-0.000249811
5.5002e-08
-4.93686e-08
-0.000182293
-6.57913e-08
2.23148e-08
-1.00924e-07
-4.7391e-08
-5.60046e-08
0.000221125
-0.000221088
-4.80457e-09
7.08585e-08
-0.000250136
5.82797e-08
-3.25294e-08
-2.01373e-07
-2.27553e-07
6.71038e-08
-0.000276922
1.41085e-07
4.27198e-08
-0.000182049
-2.93041e-09
-1.80516e-07
-0.000182165
-1.59038e-07
-0.00025007
1.2116e-07
-1.75907e-07
-6.31921e-09
-2.87184e-08
-3.57774e-08
-0.000220929
1.13793e-08
-7.17973e-08
1.73058e-08
0.000182328
-0.00018237
0.000249666
1.52744e-08
-7.844e-08
1.17533e-07
-0.000249631
1.58116e-08
-9.45231e-08
9.93318e-09
-1.20562e-07
-4.4648e-08
2.0405e-08
-0.000220877
-0.000220985
-2.92231e-08
-1.22709e-07
2.04643e-08
7.2793e-08
0.00018223
-0.000182309
1.00762e-07
0.000249921
1.56883e-07
-1.8649e-07
-0.000249877
-1.38107e-07
4.08333e-08
1.13815e-07
-5.71234e-08
1.11881e-07
-0.000220945
9.52359e-09
-2.40617e-07
-4.65593e-08
4.66305e-08
0.000212831
-8.0213e-05
4.89219e-08
-8.02e-05
-8.16687e-08
-9.7338e-05
1.95572e-07
1.32474e-07
1.33075e-08
-5.08371e-08
0.000142163
-0.000142153
2.78703e-08
3.40755e-08
-2.43034e-07
-5.42008e-08
2.99235e-07
-0.000228418
-0.000169656
3.78774e-08
0.000169676
2.9428e-10
-0.000222167
5.99212e-08
0.000222166
-1.87023e-07
-6.40003e-08
5.34906e-08
-0.000169662
-1.12291e-07
-0.000222215
-1.33206e-07
0.000142191
6.983e-08
-0.000142043
-3.74851e-08
8.32965e-08
-7.19922e-08
0.000142069
-8.14417e-09
0.0002222
1.45269e-07
1.11973e-07
-0.000222235
-3.03507e-08
0.000169616
4.83255e-08
-0.000169626
1.40021e-07
3.08919e-08
0.000228337
-1.29324e-07
-3.46298e-08
-2.78571e-08
-0.000142054
6.64119e-08
0.000222207
2.8668e-08
0.000169636
9.3782e-08
-1.1565e-07
7.86167e-05
-7.86096e-05
1.08571e-07
2.01377e-07
-0.000192112
3.30122e-08
-0.000261569
1.69125e-07
8.96188e-08
-6.59813e-09
-0.000261582
1.51849e-08
8.31081e-08
1.36061e-07
-7.85667e-05
-1.1482e-07
4.28625e-08
0.000261535
1.10718e-07
-0.000261521
1.22758e-07
1.15009e-08
-7.85517e-05
2.77363e-08
-1.42033e-08
1.23652e-07
0.000142069
5.73536e-08
-2.60436e-09
-5.1324e-08
5.62805e-08
-0.000222165
5.29102e-08
1.08403e-08
-0.000169627
-1.5642e-07
1.55496e-07
1.00057e-07
1.29921e-07
-0.000142181
-1.2201e-07
-1.71921e-08
1.31992e-07
0.000142188
8.51215e-08
0.000169664
1.20953e-08
0.000222107
6.2527e-09
-8.58918e-08
4.07171e-08
-5.30041e-08
0.000228328
-1.10549e-07
1.06935e-07
0.000169676
7.52696e-08
0.000222101
-1.39131e-07
1.59773e-07
7.85081e-05
-7.8522e-05
-1.45927e-07
-3.1368e-07
-0.000192148
2.566e-07
6.62773e-08
-0.000261079
-1.34426e-07
-1.70047e-07
-1.43907e-08
-0.000261124
-1.28471e-07
1.90872e-08
-1.46596e-07
-7.85065e-05
1.16586e-07
-1.16008e-07
0.000261131
-4.9668e-08
-0.000261204
-2.90882e-07
-2.67771e-08
2.78145e-07
-7.85156e-05
-9.15067e-08
-1.508e-07
3.48762e-08
0.000142158
-8.57971e-10
1.80178e-08
1.0713e-09
-0.000169654
1.64078e-07
-0.000222036
-2.57098e-08
-5.43567e-08
-1.07786e-08
-4.42223e-07
3.41717e-07
9.48398e-08
-0.000192213
-0.000261061
-2.73183e-07
2.2629e-08
-2.46868e-07
5.53479e-08
-0.000261098
1.38153e-07
-3.95591e-08
-4.27546e-08
-0.00022835
-0.000222064
-5.91383e-08
-2.13091e-08
-0.000222124
2.62543e-08
7.5746e-09
0.000220626
-5.52714e-08
5.40166e-08
-0.000220658
-0.000249693
3.01664e-08
-3.07161e-08
4.82105e-08
2.89802e-07
-1.71292e-07
-2.17922e-07
-0.000276319
-0.000182204
-2.18576e-08
1.21882e-07
7.2179e-08
1.61181e-07
-0.000249852
1.60575e-07
-0.000182067
-2.76741e-08
-2.93368e-09
-1.47932e-07
-5.32767e-08
0.000220581
5.25622e-08
1.79469e-07
-0.000220612
-0.00024961
1.9216e-07
1.16632e-07
1.44817e-07
4.34788e-07
-2.46941e-07
-3.93093e-07
-0.000276205
-0.0001822
3.46994e-08
1.87884e-07
2.19419e-07
-6.36611e-08
-0.000249769
2.27739e-07
-0.000182046
7.23693e-08
1.11984e-07
-3.24466e-08
-9.73753e-08
0.000212462
-0.000212335
-8.05152e-05
1.8611e-08
-8.05116e-05
8.30765e-08
-8.0387e-05
-8.03812e-05
-9.72371e-05
-9.72375e-05
2.67012e-07
-0.000260746
1.43061e-07
-0.000261036
-0.000242392
7.42796e-08
-4.38946e-08
-0.00024237
-1.16169e-07
-2.10987e-07
-0.00027037
-0.000261171
-0.000260865
5.40888e-08
-0.000260991
1.17704e-07
-0.000241889
-0.000260543
3.23117e-07
1.64139e-07
-0.000242143
-3.0498e-07
-4.63333e-07
-0.000271199
-0.000261037
-0.000261478
1.17801e-06
-0.0012143
-3.3304e-07
-5.73166e-07
-0.00123629
1.45021e-07
9.24694e-07
-0.00121404
-5.84797e-07
8.02292e-07
1.40587e-06
1.06562e-06
-0.00118814
1.06581e-06
-9.45739e-07
-0.00121406
1.30478e-06
1.3116e-06
6.61495e-07
-0.00121435
6.95047e-07
-0.00123572
1.11137e-06
1.24688e-06
-0.00121466
-4.45633e-07
-0.00123554
9.32914e-07
-0.00121486
1.07204e-06
2.49956e-07
1.18184e-06
-5.36349e-07
-0.0011915
9.75985e-07
-0.00121411
-1.4018e-07
-9.32133e-08
-0.00121434
8.8785e-07
-0.00123494
9.29596e-07
3.944e-08
-0.000263918
-1.96563e-07
5.7739e-09
-0.000244255
-0.000249792
-9.32666e-08
-3.11204e-07
1.55517e-07
-0.000264567
-1.90308e-07
-2.80637e-08
2.02351e-07
-0.00024427
-0.000249883
-1.21875e-07
-0.000259843
-0.000263856
2.3014e-08
1.76855e-07
-1.95152e-07
3.12133e-07
0.000249734
-0.000249858
-1.8977e-07
-1.61716e-07
0.000259679
-0.000259733
-8.95638e-08
3.19295e-08
-0.000264562
-1.79048e-07
-1.60698e-07
-1.04648e-07
-0.000242113
-2.03816e-07
2.8583e-07
2.24625e-07
0.000260759
-1.10898e-07
-0.000260951
-3.35663e-08
0.000260458
-0.00026063
-0.000242125
1.2239e-07
-3.39308e-08
0.000266653
8.76506e-07
-0.000267447
-1.71338e-07
7.54784e-08
-2.69304e-07
2.83054e-07
-0.000250362
-0.000266996
-2.26174e-07
0.000267595
-8.6105e-07
2.1079e-07
-0.000249396
-3.62622e-07
0.00024951
-2.37429e-07
7.2985e-07
1.02666e-07
-0.000267631
-0.000249568
-2.43599e-07
0.000267402
-1.08067e-06
-2.56942e-07
-0.000266221
8.87732e-08
-3.62259e-07
3.68567e-07
0.000267
2.78657e-07
0.000249234
3.49589e-07
-0.000249389
2.90435e-07
0.000266828
-2.95235e-07
-0.000267475
3.52807e-07
-1.51956e-07
0.000250235
-3.39677e-07
2.94642e-07
-0.000266997
3.25907e-07
0.000249378
0.000267435
-3.76732e-07
-1.66821e-08
-0.000260071
7.17126e-08
-0.000250075
-2.10181e-07
-0.000244444
3.07174e-07
-3.30747e-07
-0.000264823
-3.71359e-07
2.36615e-07
-1.3659e-07
-0.000244468
-0.000260072
-0.000250188
-2.71495e-07
-0.000264088
3.14088e-07
2.13756e-08
3.19242e-07
0.000250029
-0.000250146
-2.66148e-07
0.000259887
-0.000259927
6.47034e-08
-2.1626e-07
-0.000264767
1.11711e-07
-0.000266799
-4.29615e-07
2.59792e-07
-0.000250066
-2.53508e-07
-0.00024922
-3.01709e-07
-3.95226e-07
3.14202e-07
2.17583e-07
-3.05729e-07
-4.06124e-07
-0.00026658
3.67356e-07
3.32353e-07
-3.54341e-07
0.000267297
-3.07201e-07
0.000266954
3.27812e-08
0.000249304
-2.14017e-07
-2.60666e-07
-2.78106e-07
0.000250259
-3.20932e-07
0.000267535
-1.65637e-07
0.000249385
2.32019e-07
-0.000264341
-1.13475e-07
-0.000244247
-0.000249912
5.39038e-08
-6.10338e-08
-2.73632e-07
-0.000265171
3.50689e-07
-6.53886e-08
5.24361e-08
-0.000244386
-0.000250134
1.14536e-07
-0.000260276
-0.00026458
3.34023e-07
-2.85003e-07
-1.43227e-08
0.000250085
-0.000250295
2.95625e-07
0.000260323
-2.27297e-07
-0.000260556
-2.77783e-08
-1.98332e-07
2.2069e-07
-0.000265359
-1.38251e-07
2.0435e-07
-0.000266871
-1.76389e-07
-0.000250071
-0.00024916
3.90189e-07
-9.29905e-08
1.19243e-07
-2.35179e-07
1.66834e-07
-0.000264449
-2.95757e-07
-0.000244259
-0.000249922
-1.49922e-07
-1.28524e-07
-2.76378e-08
1.03555e-07
-0.000265307
-2.70329e-07
1.22596e-07
-0.000244409
-1.05638e-07
-0.00025016
-0.000260343
2.18046e-07
-0.000267182
1.48549e-07
2.56038e-08
-0.000250176
7.75914e-08
-0.000249217
1.24819e-07
-1.1184e-07
-0.000267485
1.02011e-07
-1.0318e-08
1.04323e-07
-0.000250412
1.3634e-07
-0.000267881
-0.000249466
-1.28962e-06
-1.18471e-06
-0.000270366
1.93583e-07
2.41441e-07
0.000272405
8.09712e-07
-0.00114288
-6.57736e-08
-1.29883e-06
2.80718e-07
-2.42281e-07
-1.00867e-06
1.00552e-07
-3.50781e-07
7.64376e-07
0.00114261
5.46795e-07
-0.00114386
2.97425e-07
-1.31876e-06
2.18203e-07
-2.90515e-07
-9.83974e-07
1.24124e-07
-3.25803e-07
7.90856e-07
0.00114361
1.2261e-06
6.7153e-07
-0.00114268
2.82019e-07
-1.34265e-06
2.18863e-07
-2.92002e-07
-9.90433e-07
1.19423e-07
-3.32809e-07
7.8472e-07
0.00114233
-1.20055e-06
-0.000270281
2.08375e-07
2.00725e-07
0.000272298
7.0101e-07
-0.00114313
-1.29297e-06
2.3356e-07
-2.75229e-07
-9.95568e-07
1.0698e-07
-3.42624e-07
7.72585e-07
0.00114282
2.05537e-07
1.25461e-07
-1.92603e-07
-9.72522e-05
9.73193e-05
-2.03331e-07
-0.00027715
-1.51997e-08
3.03479e-07
0.000277191
-1.10809e-06
-0.000270653
1.34892e-07
1.49672e-07
-1.05376e-06
0.00027253
-2.51681e-08
-8.70644e-08
0.000229429
-0.000229429
4.4929e-08
6.63741e-08
8.72561e-08
-1.56303e-09
0.000192597
-1.04638e-07
-0.000192578
-7.75363e-08
0.000229384
-0.000229386
4.19811e-08
3.64887e-08
1.24939e-09
9.80617e-08
-4.38331e-10
0.000192583
-1.18188e-07
-0.000192562
-0.00118472
3.3709e-07
6.91757e-07
0.00118505
-0.00118419
5.69662e-07
5.16977e-07
0.00118448
3.79372e-08
9.73771e-05
-9.73278e-05
5.04152e-08
9.73687e-05
-9.73211e-05
0.000272578
-1.19467e-06
-1.10101e-06
-0.000270636
1.5148e-07
2.02425e-07
0.000277369
-1.75438e-07
1.39209e-07
-0.000277313
1.80115e-08
0.00027728
-1.57503e-07
1.46026e-07
-0.000277226
7.74764e-09
-5.45073e-08
4.44163e-08
-9.74105e-05
9.74205e-05
3.48228e-08
-4.62081e-08
9.73885e-05
-2.42361e-08
1.6688e-08
-9.73951e-05
9.74027e-05
5.36891e-08
-6.31982e-08
9.73783e-05
1.34928e-06
1.36593e-06
0.000270454
-3.1425e-07
-2.77238e-07
-2.80674e-08
5.72592e-09
-0.00027741
-5.06419e-08
0.000277429
-4.2185e-08
1.17367e-08
-0.000277311
-1.49838e-08
0.000277332
-1.25748e-07
7.79462e-08
7.38561e-08
0.000277378
-1.15881e-07
9.4649e-08
7.21613e-08
0.000277283
-2.46617e-08
-0.000192613
-2.02292e-07
0.000192648
-9.54468e-08
0.000229398
2.08312e-08
-0.000229395
4.66223e-08
-4.91897e-08
0.000251971
-0.000251869
7.3307e-08
-2.12701e-07
4.19433e-07
0.00114338
8.10397e-07
-1.38756e-06
1.76286e-07
-3.43089e-07
-9.35731e-07
1.53856e-07
-2.91908e-07
8.39622e-07
0.000245474
-1.55979e-07
-0.000245433
-6.18149e-08
-2.09306e-07
0.00116378
6.46438e-07
-1.02509e-06
7.84956e-07
-8.37622e-07
9.53772e-07
-0.000245416
-1.46134e-07
-1.14011e-07
0.000245448
8.68077e-07
-1.44239e-06
7.97864e-08
-4.20193e-07
-9.04824e-07
2.23319e-07
-2.6675e-07
8.96388e-07
0.00114335
8.42168e-07
0.00025194
-2.03726e-08
-0.000251836
-2.28779e-07
-9.97288e-07
8.01077e-07
-8.21679e-07
9.92316e-07
0.00116369
6.73932e-07
-1.17012e-08
1.58034e-08
9.51728e-09
5.31574e-08
0.000229363
-9.06173e-09
-0.000192551
4.86218e-08
0.000192556
5.52585e-08
-7.47232e-08
0.00019257
3.62904e-08
-2.44207e-08
-0.000229277
1.55966e-08
-5.84427e-09
0.000229255
2.64222e-09
3.54738e-08
1.05392e-08
0.000229338
-3.32227e-08
7.91566e-08
-0.000229257
1.2708e-08
0.000229235
-4.63951e-08
7.71025e-08
1.86226e-07
0.000251769
1.99507e-07
8.63083e-07
1.23752e-06
-2.96553e-07
2.27999e-07
7.97433e-07
-3.27762e-07
1.18537e-07
-9.74892e-07
-1.90838e-08
-0.00024532
-6.93609e-08
0.000245372
-0.00116382
9.1631e-07
-1.10693e-06
6.94432e-07
-9.17859e-07
8.63358e-07
0.0011638
-4.88387e-07
-1.32117e-07
1.6229e-07
0.000245373
7.91783e-07
9.09128e-07
-8.72147e-07
-1.06344e-06
7.42692e-07
-3.48747e-07
-2.58132e-08
-0.000251643
5.46183e-08
-1.29676e-07
0.00025172
-1.50776e-08
1.66939e-07
0.000251745
1.59202e-08
-0.000251626
-1.5026e-07
0.000251702
0.000251927
-0.000251824
2.0559e-08
-2.08414e-07
7.44934e-09
6.48043e-07
0.00114433
6.59772e-07
-1.39028e-06
1.15665e-07
-3.8298e-07
-9.12957e-07
1.81107e-07
-2.64813e-07
8.68998e-07
0.000245432
-1.20639e-07
-0.000245392
-7.77436e-08
0.00116356
5.50899e-07
-1.0109e-06
7.93476e-07
-8.28768e-07
9.72714e-07
4.23889e-08
2.19493e-08
-1.42634e-09
4.17443e-08
1.68707e-10
0.000229321
8.23781e-09
-0.00019254
3.0107e-09
0.000192545
6.15323e-08
-9.88467e-08
0.000192557
-1.48441e-08
-6.19832e-09
-0.000229244
2.53846e-08
5.73128e-09
0.000229234
9.1106e-09
2.57883e-08
1.84302e-07
0.00025173
5.22871e-07
6.37724e-07
1.13283e-06
-3.45725e-07
1.61587e-07
8.29513e-07
-2.98864e-07
1.46822e-07
-9.47733e-07
-2.03086e-08
-0.000245281
-6.47361e-08
0.000245332
-0.00116366
-3.45285e-10
6.54681e-07
-1.08899e-06
7.08883e-07
-9.01411e-07
8.83601e-07
0.0011637
-1.03553e-07
1.49361e-07
0.000245332
3.58046e-08
6.06648e-07
9.32619e-07
-8.59004e-07
-1.04524e-06
7.56166e-07
-4.50474e-09
-0.000251617
3.35729e-08
-1.27292e-07
0.0002517
2.52923e-08
-1.38846e-09
3.67544e-08
0.000229279
-0.000229341
2.18873e-09
-2.45147e-08
-0.000192481
1.45961e-08
0.000192489
5.48244e-08
4.94426e-08
-7.97133e-08
0.000192495
-0.00019252
-1.11607e-08
-0.000229204
7.576e-09
1.2868e-08
0.000229188
1.8666e-07
3.81729e-08
0.000251701
-0.000251891
4.44643e-07
-1.37748e-06
7.19062e-07
8.20898e-07
-3.02324e-07
-9.53454e-07
1.42907e-07
1.18866e-06
-3.29162e-07
1.7985e-07
-0.00114321
-0.00116359
7.06873e-07
-1.09096e-06
7.04223e-07
-9.05493e-07
8.77845e-07
0.00116358
3.67345e-08
-2.39873e-08
-0.000245198
-5.71745e-08
0.000245244
6.4972e-07
9.24443e-07
-8.65852e-07
-1.05359e-06
7.52176e-07
-0.00116351
9.92877e-08
-1.00932e-07
1.48179e-07
0.000245245
-0.000245336
-0.000251586
-1.22588e-07
2.79095e-08
0.000251665
-3.04358e-08
-9.73924e-05
9.73983e-05
4.35488e-08
9.73802e-05
-9.73743e-05
1.33227e-06
0.000270383
-2.90762e-07
-3.0038e-07
-0.000272501
1.37849e-08
-0.000277249
-2.13656e-08
0.000277263
6.82175e-09
-5.84459e-08
2.40813e-08
-0.000277357
7.63814e-09
0.000277377
7.30443e-08
6.54523e-08
0.000277229
-0.000277225
-6.16055e-08
-1.19804e-07
1.02807e-07
8.05984e-08
0.000277337
-0.000277339
5.57897e-09
-9.74007e-05
9.7402e-05
-6.78941e-08
9.73938e-05
-9.73875e-05
-2.5748e-08
1.91788e-07
5.41029e-08
0.000251708
-2.21581e-08
4.00766e-07
7.33504e-07
1.16327e-06
-3.13878e-07
1.91556e-07
8.12919e-07
-3.13795e-07
-9.58353e-07
1.36055e-07
-0.00114365
-1.91424e-08
-1.35048e-08
-0.000245299
-7.60348e-08
0.000245349
6.5024e-07
9.16452e-07
-8.64504e-07
-1.04551e-06
7.44108e-07
0.00116338
-6.83583e-08
-6.42324e-08
-1.18152e-07
1.54469e-07
0.000245347
-0.000245439
5.81116e-08
-4.30729e-09
0.000229314
-2.36561e-08
-0.000192546
-1.64682e-08
0.000192549
-1.08554e-07
0.000192566
-0.00019259
1.31714e-07
-1.61873e-07
-6.3532e-11
0.000221507
4.62923e-08
-3.07386e-09
8.04873e-08
2.6717e-07
5.69807e-08
-1.52178e-07
4.22281e-08
-0.000250974
-4.32464e-08
1.46247e-08
0.000250945
-0.00018232
-4.34928e-08
1.93446e-07
0.000182474
1.73314e-07
1.04985e-08
-9.73587e-09
0.000221505
2.41176e-07
9.54532e-08
-2.55577e-08
-5.31065e-08
0.000212801
-9.83252e-08
-8.02869e-05
3.09846e-08
8.04493e-05
-8.02928e-05
5.5054e-08
-2.17111e-07
8.04549e-05
-2.05331e-07
-2.62829e-08
0.000212924
1.28981e-08
2.31382e-08
-3.22031e-08
0.000221551
-3.06023e-07
0.000182367
-2.28975e-08
6.71295e-10
0.000142443
4.2832e-08
1.77479e-08
7.36956e-08
-3.56415e-08
-1.24988e-10
-0.000170101
7.77249e-09
2.91281e-08
0.000170109
-0.000223085
2.85679e-08
9.19017e-08
0.000223092
-6.10112e-08
1.57194e-08
1.01718e-07
2.74783e-08
2.86707e-08
0.000142451
4.34353e-08
7.86356e-05
-0.000262146
1.4909e-11
0.000262171
-3.75972e-08
-1.36079e-07
1.04231e-07
5.37427e-08
4.02222e-08
7.86643e-05
4.7532e-09
-3.42445e-08
0.000142457
4.84949e-08
3.77202e-08
1.05063e-08
1.91945e-09
4.42231e-09
-0.000223055
2.12875e-08
7.89431e-08
0.000223057
-6.0331e-08
-0.00017008
3.05095e-08
0.00017009
-3.46077e-09
7.76416e-08
1.59101e-08
-2.93289e-09
4.29607e-08
0.000142466
5.41881e-08
7.86407e-05
-0.000262106
-1.95282e-08
0.000262121
-3.50891e-08
-1.37448e-07
1.07905e-07
5.01962e-08
3.29659e-08
7.86642e-05
7.88529e-08
8.38854e-08
-3.15541e-08
-3.60221e-08
0.000213019
3.70558e-09
1.3647e-08
-8.03802e-05
1.23064e-08
-7.66052e-08
8.04445e-05
-8.03654e-05
2.31638e-08
-8.79582e-08
8.04302e-05
-9.2489e-08
-9.77738e-08
-2.23067e-08
-1.34245e-08
0.00021309
-2.03349e-08
0.000221602
-3.99591e-08
9.5783e-08
-0.00018241
-1.29168e-08
0.000182485
1.63365e-07
6.84603e-08
-1.68137e-07
8.62489e-08
-0.000251114
0.000251137
-1.00644e-08
-8.15346e-08
0.000221638
1.53365e-08
1.28749e-07
-5.47213e-09
-1.06869e-08
0.000221535
-1.21193e-08
6.95283e-08
-0.000182369
-2.19577e-08
0.000182449
1.61512e-07
5.80283e-08
-1.42788e-07
6.2677e-08
-0.00025099
0.00025101
-3.48576e-08
-3.94664e-08
0.000221575
-1.22098e-08
1.0138e-07
3.27252e-08
-9.74189e-05
-1.36382e-08
2.20726e-08
-1.03636e-08
-2.00166e-08
-9.74072e-05
1.37359e-08
-1.68794e-09
1.3316e-08
-4.22471e-08
-0.00021313
4.65852e-09
-1.62383e-08
-1.70927e-08
-2.20866e-08
0.00021318
1.59713e-08
8.04645e-05
-3.59864e-08
3.24272e-08
8.04508e-05
-5.29716e-08
5.75781e-09
3.58774e-09
-1.7523e-08
8.04867e-05
-3.91183e-08
8.04736e-05
-1.79539e-08
-2.75465e-08
0.000221667
-0.000221674
-1.30315e-08
6.50186e-08
-0.000251055
5.29298e-08
-1.89964e-08
-9.15812e-08
0.000251118
-2.09582e-08
6.72266e-08
-0.000277421
-4.90575e-08
-0.000182528
-1.74147e-08
-3.22769e-08
0.000182527
-0.000182547
-1.97312e-08
-0.000251107
1.31261e-07
-3.98328e-08
4.5939e-09
-2.19556e-08
0.00022172
-2.77105e-08
-2.20192e-08
0.000221605
-0.000221612
-3.35371e-10
5.76664e-08
-0.00025094
5.4136e-08
-3.10809e-08
-7.20022e-08
0.000251
1.15463e-08
7.39627e-08
-0.000277327
-5.56796e-08
-0.000182492
-8.2403e-09
-5.93981e-09
0.000182491
-0.000182512
3.90767e-09
-0.000250984
1.14379e-07
-1.84487e-08
1.9771e-08
-2.90235e-08
0.00022166
-0.000221624
1.44383e-08
-8.09103e-08
-6.6014e-10
2.11067e-08
0.000182506
4.44245e-08
0.000251062
1.38056e-07
-3.38058e-08
4.40525e-08
1.59745e-08
-1.13324e-07
8.51776e-08
-9.01495e-09
-1.00365e-07
-0.000221559
1.41369e-08
-6.91649e-08
-2.03181e-08
2.08306e-08
0.00018247
2.67969e-08
0.000250942
1.13835e-07
-1.12123e-09
6.70967e-08
1.4587e-08
-1.11953e-07
6.65506e-08
-2.88705e-08
-6.70714e-08
1.98878e-10
-2.42829e-08
0.000213191
-8.04672e-05
-1.66621e-08
8.04516e-05
-8.04533e-05
9.34786e-09
8.0438e-05
0.000213208
7.85303e-08
7.85864e-05
-6.73284e-08
-1.78966e-07
2.21212e-08
-0.000262014
-6.34283e-08
-8.15046e-08
-5.03005e-08
0.000262007
-5.99274e-08
1.89701e-08
-8.06701e-08
7.86037e-05
-5.18639e-08
-5.34526e-09
0.000142452
-0.000223016
2.84128e-08
0.00022302
-9.37021e-08
2.02576e-08
5.19336e-09
-1.25258e-08
-0.000170095
6.48711e-08
0.000170106
-1.21052e-08
0.000142465
-0.000142429
2.06635e-08
-2.55186e-08
-9.14923e-10
0.000142434
-5.11726e-09
0.000170082
4.17956e-08
-2.66834e-09
0.000223031
7.17316e-08
4.45346e-08
3.28013e-08
3.73042e-08
0.000229352
3.20395e-09
-6.24225e-08
1.46669e-08
0.000170082
5.26728e-08
5.1097e-08
0.000223032
-3.97483e-08
-1.06715e-08
7.86848e-05
-7.86884e-05
1.42488e-08
4.81695e-09
-0.000192584
5.02422e-08
-0.000262115
5.09463e-08
3.71454e-09
-1.61556e-08
0.000262125
-0.000262157
-2.23446e-08
5.85279e-08
2.74307e-08
7.87084e-05
-7.86625e-05
-2.68673e-08
-1.65227e-08
0.000262137
4.77854e-08
-3.21592e-08
-1.68412e-09
-2.78343e-08
3.15852e-08
7.15632e-09
0.00014241
-5.92098e-09
1.65663e-08
1.96331e-08
4.45412e-08
-0.000170048
-4.23487e-08
6.43656e-08
0.000170041
-0.000222966
1.91687e-08
-1.22677e-08
0.000222957
6.04063e-08
6.70543e-08
0.000142414
-0.000142441
-8.64634e-08
-1.06884e-08
0.000142439
9.87786e-08
-1.05939e-08
0.000222963
6.20998e-09
9.73327e-08
7.88121e-08
0.000170079
3.28784e-08
5.24591e-08
0.000229328
-7.22103e-08
9.24704e-08
0.000170078
0.000222955
-6.49842e-08
1.14505e-07
-9.25712e-08
3.13141e-08
0.0001424
1.00546e-07
-0.000222886
-1.05649e-08
-1.76132e-08
0.000222867
1.26657e-07
-7.31259e-09
6.62724e-08
3.14756e-08
-0.000170039
9.00952e-08
0.000170026
4.45844e-08
1.21862e-07
0.000142384
9.52108e-08
-0.000142443
-1.10402e-08
-1.97135e-08
2.4794e-08
0.000142449
-1.44169e-08
0.000223003
7.08218e-08
3.96362e-08
2.7503e-08