/*--------------------------------*- C++ -*----------------------------------*\
| =========                 |                                                 |
| \\      /  F ield         | OpenFOAM: The Open Source CFD Toolbox           |
|  \\    /   O peration     | Version:  v2006                                 |
|   \\  /    A nd           | Website:  www.openfoam.com                      |
|    \\/     M anipulation  |                                                 |
\*---------------------------------------------------------------------------*/
FoamFile
{
    version     2.0;
    format      ascii;
    class       volVectorField;
    location    "250";
    object      U;
}
// * * * * * * * * * * * * * * * * * * * * * * * * * * * * * * * * * * * * * //

dimensions      [0 1 -1 0 0 0 0];


internalField   nonuniform List<vector> 
14361
(
(5.17645e-07 -2.9072e-07 0.107735)
(-1.86716e-07 -1.83119e-07 0.10992)
(2.76436e-06 -9.97003e-06 0.0934485)
(-1.18741e-07 -1.08417e-05 0.0989843)
(3.46108e-06 -3.70345e-06 0.0879676)
(1.8064e-06 -2.91303e-06 0.0719278)
(5.03556e-07 -6.42114e-06 0.0826302)
(-1.15403e-07 -5.83243e-06 0.0918166)
(-7.48707e-06 3.48829e-06 0.0921273)
(3.28549e-06 -1.85172e-06 0.0819521)
(-3.12518e-06 1.9176e-06 0.0819817)
(7.2776e-06 -3.55755e-06 0.0920977)
(-3.55731e-06 7.44164e-06 0.0921343)
(6.23707e-06 -1.07367e-05 0.0967265)
(1.79539e-06 -3.30361e-06 0.0819566)
(-3.5631e-06 3.34103e-06 0.0879997)
(-5.92477e-06 1.05411e-05 0.0967623)
(3.46734e-06 -7.29938e-06 0.0921039)
(-1.94513e-06 3.0984e-06 0.0819873)
(-2.56815e-06 2.53982e-06 0.0840247)
(1.47539e-06 -1.78978e-06 0.0686652)
(1.79003e-06 -1.47015e-06 0.0686705)
(-1.40528e-06 1.84193e-06 0.0686966)
(2.50309e-06 -2.51154e-06 0.0839983)
(-1.84277e-06 1.41279e-06 0.0687021)
(-2.00449e-06 2.72837e-06 0.0719642)
(4.45634e-07 2.71218e-06 0.0688256)
(-1.82498e-07 -5.28367e-06 0.0862299)
(-1.25286e-06 6.06533e-06 0.0826672)
(-6.65791e-07 5.41055e-06 0.0862706)
(-1.13865e-06 -2.86074e-06 0.06878)
(4.86803e-07 3.37059e-06 0.0772898)
(-5.65983e-08 6.37639e-06 0.0918448)
(-1.82761e-07 -5.88578e-06 0.0903222)
(-2.08423e-07 -3.26136e-06 0.0790435)
(-1.91612e-07 6.40421e-06 0.0903563)
(-8.1837e-07 -3.34884e-06 0.0772585)
(5.83734e-08 3.33819e-06 0.0790677)
(-1.01404e-05 1.01141e-05 0.098036)
(3.41853e-05 -1.08435e-05 0.101886)
(-3.44731e-05 1.10555e-05 0.101943)
(9.7193e-06 -9.75123e-06 0.0979937)
(-1.29779e-06 4.20792e-05 0.101864)
(3.4151e-06 -4.05823e-05 0.0999901)
(6.08416e-07 -1.12265e-05 0.0960571)
(-3.19305e-06 9.34788e-06 0.0934924)
(1.48446e-06 -4.14699e-05 0.101771)
(-2.97203e-06 3.98937e-05 0.100042)
(-1.13087e-06 1.14593e-05 0.0961123)
(-7.12554e-08 4.03021e-05 0.103397)
(-6.16295e-08 1.13544e-05 0.0990292)
(-1.52981e-07 -3.79032e-05 0.103933)
(-1.11912e-08 -1.11318e-05 0.0980214)
(1.45554e-07 -3.90916e-05 0.103296)
(1.29681e-07 3.88597e-05 0.104014)
(-2.20525e-07 1.17897e-05 0.0980746)
(-4.48564e-07 -7.14441e-07 0.107733)
(-3.42787e-05 3.42392e-05 0.104692)
(5.3548e-07 -3.37748e-07 0.107734)
(-5.78495e-07 -2.39943e-07 0.107733)
(3.40832e-05 3.43439e-05 0.104692)
(-6.81184e-07 6.26512e-07 0.112003)
(6.01017e-07 6.34784e-07 0.112003)
(3.37172e-06 -3.54199e-06 0.0879993)
(2.7308e-06 -1.99828e-06 0.0719645)
(9.39921e-06 -3.16881e-06 0.0934922)
(1.13756e-05 1.63173e-08 0.099029)
(6.07623e-06 -1.23065e-06 0.0826674)
(6.39512e-06 -3.60249e-08 0.0918447)
(9.43439e-06 3.10861e-06 0.0934919)
(1.13711e-05 -1.02457e-08 0.0990288)
(6.05119e-06 1.18379e-06 0.0826673)
(6.38916e-06 1.24452e-08 0.0918446)
(-2.70958e-06 1.9228e-06 0.0719644)
(-3.36863e-06 3.48468e-06 0.0879976)
(-3.55262e-06 3.34459e-06 0.0879996)
(-2.00466e-06 2.7277e-06 0.071964)
(-1.51427e-07 -2.29844e-07 0.109919)
(-3.1476e-06 9.36975e-06 0.0934923)
(-8.4389e-08 1.13877e-05 0.0990291)
(1.85651e-08 -1.99774e-07 0.109919)
(3.17547e-06 9.30992e-06 0.0934922)
(-1.10902e-07 1.13886e-05 0.0990293)
(-1.24383e-06 6.05381e-06 0.0826671)
(-8.23645e-08 6.36829e-06 0.0918447)
(1.22438e-06 6.14759e-06 0.0826677)
(-2.88224e-08 6.37733e-06 0.0918451)
(3.41374e-06 3.50126e-06 0.0879995)
(3.54607e-06 3.28284e-06 0.0879983)
(2.75608e-06 1.95662e-06 0.0719646)
(1.9949e-06 2.74602e-06 0.0719648)
(1.06326e-05 -5.90651e-06 0.096762)
(3.15647e-06 -1.97318e-06 0.0819872)
(7.45952e-06 -3.53004e-06 0.0921344)
(1.82372e-06 -1.42565e-06 0.0686971)
(1.41361e-06 -1.86906e-06 0.0687028)
(2.53484e-06 -2.55827e-06 0.0840251)
(5.40536e-06 -6.46203e-07 0.0862706)
(2.7204e-06 4.36972e-07 0.0688258)
(6.42046e-06 -1.73329e-07 0.0903562)
(3.35055e-06 4.83582e-08 0.0790677)
(3.37887e-06 4.70447e-07 0.07729)
(5.43088e-06 6.23035e-07 0.0862703)
(2.80209e-06 -4.27699e-07 0.0688261)
(3.35367e-06 -6.8443e-08 0.0790677)
(6.43952e-06 1.5359e-07 0.0903555)
(3.43453e-06 -4.95441e-07 0.0772887)
(-1.0641e-05 5.84345e-06 0.0967584)
(-3.13716e-06 1.92301e-06 0.0819816)
(-7.46322e-06 3.48361e-06 0.0921273)
(-5.93272e-06 1.05735e-05 0.0967623)
(-1.94378e-06 3.08786e-06 0.0819871)
(-3.5469e-06 7.43493e-06 0.0921343)
(-1.40628e-06 1.84766e-06 0.0686966)
(-1.83576e-06 1.41835e-06 0.0687019)
(-2.5497e-06 2.54644e-06 0.0840246)
(-1.13734e-06 -2.8652e-06 0.06878)
(5.14974e-07 -6.43596e-06 0.0826302)
(-6.59319e-07 5.38998e-06 0.0862705)
(-1.71744e-07 -5.30448e-06 0.0862298)
(4.40053e-07 2.71315e-06 0.0688254)
(-8.26427e-07 -3.35e-06 0.0772585)
(-1.35032e-07 -5.83542e-06 0.0918164)
(-2.02959e-07 6.38106e-06 0.0903562)
(4.12233e-08 3.33826e-06 0.0790676)
(-1.88823e-07 -5.90218e-06 0.0903221)
(-2.22933e-07 -3.25314e-06 0.0790434)
(4.76067e-07 3.36927e-06 0.0772897)
(1.07487e-06 -2.94373e-06 0.0687852)
(-5.23078e-07 -6.36207e-06 0.0826314)
(6.35765e-07 5.49036e-06 0.0862707)
(1.15888e-07 -5.2817e-06 0.0862325)
(-4.27917e-07 2.78617e-06 0.0688262)
(7.79633e-07 -3.35672e-06 0.0772592)
(2.09797e-08 -5.80236e-06 0.0918164)
(1.2666e-07 6.45545e-06 0.0903563)
(-8.83109e-08 3.31418e-06 0.0790684)
(8.22807e-08 -5.85214e-06 0.0903231)
(1.68033e-07 -3.22682e-06 0.079043)
(-5.20734e-07 3.38744e-06 0.0772896)
(1.07956e-05 5.90075e-06 0.0967623)
(3.09148e-06 1.89106e-06 0.0819874)
(7.40858e-06 3.57537e-06 0.0921342)
(-3.46702e-06 -7.26451e-06 0.0920991)
(5.83238e-06 1.04683e-05 0.0967591)
(-3.48197e-06 -3.64857e-06 0.087967)
(1.95697e-06 3.12571e-06 0.0819835)
(3.38512e-06 7.38964e-06 0.0921289)
(-6.31925e-06 -1.06207e-05 0.0967246)
(-1.78529e-06 -3.26551e-06 0.081953)
(1.39551e-06 1.7821e-06 0.0687023)
(1.87319e-06 1.35336e-06 0.0686984)
(2.56759e-06 2.50081e-06 0.0840257)
(-1.81965e-06 -2.87438e-06 0.0719287)
(-1.11175e-05 3.44097e-05 0.10194)
(-3.45279e-05 1.1094e-05 0.101943)
(-1.01434e-05 1.0124e-05 0.0980361)
(-9.70141e-06 -9.7228e-06 0.0979936)
(-3.26584e-05 -3.2682e-05 0.104592)
(1.10203e-05 3.44956e-05 0.101943)
(3.44215e-05 1.11831e-05 0.10194)
(9.88839e-06 1.03586e-05 0.0980363)
(-1.07741e-05 -3.42437e-05 0.101885)
(-3.42172e-05 -1.07754e-05 0.101884)
(1.22086e-08 5.31832e-07 0.113898)
(-1.09972e-07 5.37766e-07 0.113898)
(3.99488e-05 -2.95331e-06 0.100042)
(1.15005e-05 -1.11991e-06 0.0961122)
(4.21354e-05 -1.28411e-06 0.101864)
(1.18138e-05 -1.75129e-07 0.0980743)
(3.88855e-05 1.9229e-07 0.104014)
(4.03258e-05 -1.61888e-08 0.103397)
(3.99127e-05 2.87236e-06 0.100041)
(1.14837e-05 1.10887e-06 0.096112)
(4.2071e-05 1.22517e-06 0.101863)
(3.8864e-05 -1.89384e-07 0.104014)
(1.18223e-05 1.70245e-07 0.098074)
(4.02975e-05 2.22984e-08 0.103396)
(1.50336e-06 -4.14432e-05 0.101771)
(-2.97722e-06 3.99739e-05 0.100042)
(2.80754e-06 -9.94967e-06 0.0934484)
(-1.09087e-06 1.14733e-05 0.0961122)
(-1.28282e-06 4.21235e-05 0.101863)
(3.42308e-06 -4.05282e-05 0.09999)
(6.43393e-07 -1.12144e-05 0.0960569)
(1.73982e-07 -3.90731e-05 0.103296)
(-1.21537e-07 -1.08054e-05 0.0989841)
(1.39295e-07 3.89086e-05 0.104014)
(-2.17699e-07 1.18121e-05 0.0980744)
(-4.75843e-08 4.03113e-05 0.103397)
(-1.40386e-07 -3.78549e-05 0.103933)
(-2.78322e-10 -1.11118e-05 0.0980211)
(-1.53676e-06 -4.13181e-05 0.101772)
(2.98605e-06 4.00064e-05 0.100041)
(-2.7863e-06 -9.9466e-06 0.0934491)
(1.02903e-06 1.15161e-05 0.0961127)
(-7.01679e-07 -1.11876e-05 0.0960584)
(-3.47207e-06 -4.04771e-05 0.0999899)
(1.27295e-06 4.2258e-05 0.101864)
(-2.30886e-07 -3.89791e-05 0.103297)
(-5.14527e-08 -1.079e-05 0.0989843)
(-2.06991e-07 3.89426e-05 0.104014)
(7.35139e-08 1.18179e-05 0.0980747)
(8.89698e-08 -3.78093e-05 0.103933)
(-1.34768e-07 -1.10932e-05 0.098022)
(-3.52796e-08 4.04007e-05 0.103397)
(-6.36623e-06 -3.87111e-08 0.091844)
(-1.13774e-05 1.59065e-08 0.0990286)
(-6.35741e-06 2.91188e-08 0.0918442)
(-1.13637e-05 -2.01548e-08 0.0990287)
(3.38677e-06 -8.13879e-07 0.0772582)
(5.82761e-06 -6.5065e-08 0.0918148)
(-6.43381e-06 -1.80312e-07 0.0903546)
(-3.34826e-06 4.84676e-08 0.0790665)
(5.90813e-06 -1.26464e-07 0.0903213)
(3.22777e-06 -1.98285e-07 0.0790412)
(-3.43859e-06 4.69984e-07 0.0772876)
(3.36898e-06 8.1389e-07 0.0772573)
(5.82316e-06 7.84946e-08 0.0918147)
(-3.33597e-06 -6.86857e-08 0.0790667)
(-6.43741e-06 1.95633e-07 0.0903547)
(3.20915e-06 2.01124e-07 0.0790406)
(5.91475e-06 1.42007e-07 0.0903214)
(-3.46324e-06 -4.87208e-07 0.0772871)
(-5.43956e-07 -6.06548e-07 0.112005)
(-1.79552e-07 -1.42051e-07 0.10992)
(6.77371e-07 -2.80216e-07 0.107734)
(-3.26345e-05 -3.26615e-05 0.104592)
(-3.39083e-06 -3.61828e-06 0.0879992)
(3.64446e-06 3.37748e-06 0.0879668)
(4.85479e-07 2.16222e-07 0.107734)
(6.93261e-08 3.33229e-07 0.10992)
(5.93718e-07 2.90761e-07 0.107733)
(1.20817e-07 2.67899e-07 0.10992)
(-3.26305e-05 3.26103e-05 0.104592)
(2.78996e-06 -1.81253e-06 0.0719261)
(3.6201e-06 -3.51381e-06 0.0879646)
(1.81857e-06 -2.96347e-06 0.0719275)
(3.67829e-06 3.45943e-06 0.0879671)
(-3.42459e-05 -3.41471e-05 0.104692)
(5.76627e-07 3.27293e-07 0.107733)
(-5.16716e-07 2.72455e-07 0.107734)
(6.49674e-07 4.07787e-07 0.107733)
(-7.46974e-07 3.75117e-07 0.107733)
(-3.26524e-05 3.24997e-05 0.104592)
(-2.88478e-06 1.82939e-06 0.0719283)
(3.41981e-05 -3.42271e-05 0.104693)
(1.08092e-05 -3.74416e-08 0.0989835)
(1.07999e-05 1.31778e-08 0.0989834)
(2.14668e-07 5.80646e-07 0.107734)
(3.26701e-07 -6.70619e-07 0.107732)
(-5.7585e-06 -6.81241e-08 0.0918162)
(-2.35716e-07 -4.52924e-07 0.107733)
(-5.75798e-06 9.29032e-08 0.0918163)
(-3.88189e-07 6.53075e-07 0.107735)
(3.25849e-05 -3.26328e-05 0.104591)
(1.82004e-06 -2.91074e-06 0.0719277)
(1.55005e-07 -2.3835e-07 0.10992)
(5.35475e-07 -6.45248e-06 0.0826299)
(6.08341e-08 -5.80483e-06 0.0918161)
(-1.80632e-06 -2.91741e-06 0.0719282)
(-6.18338e-07 -4.60678e-07 0.112006)
(-9.49306e-06 -3.16449e-06 0.093492)
(4.15452e-05 -1.49161e-06 0.101771)
(9.86152e-06 2.75519e-06 0.0934484)
(9.98541e-06 -2.72053e-06 0.0934467)
(-2.69622e-07 5.34015e-07 0.107735)
(-1.60991e-07 -5.19027e-07 0.107732)
(6.45101e-06 5.56529e-08 0.0918442)
(7.19215e-07 -3.43114e-07 0.107734)
(1.6e-07 -3.07228e-07 0.10992)
(5.40044e-07 -6.48458e-06 0.0826296)
(2.62283e-08 6.4119e-06 0.0918444)
(3.44708e-05 3.40447e-05 0.104692)
(1.9759e-06 2.7014e-06 0.071965)
(-5.5583e-08 -6.47244e-06 0.0918438)
(4.33946e-07 6.31e-06 0.0826286)
(-1.30923e-06 -6.20773e-06 0.082665)
(-7.71973e-08 5.7926e-06 0.0918148)
(2.91731e-06 -1.7628e-06 0.0719265)
(-2.73591e-06 1.94523e-06 0.071964)
(-9.24196e-08 -6.38934e-06 0.0918444)
(5.02554e-07 6.4242e-06 0.0826295)
(-1.20421e-07 5.81341e-06 0.0918155)
(-1.23053e-06 -5.98041e-06 0.0826661)
(-1.80393e-06 2.81671e-06 0.0719259)
(1.91135e-06 -2.68884e-06 0.0719657)
(5.8201e-06 -8.3751e-08 0.0918156)
(6.4477e-06 5.47705e-07 0.0826305)
(-6.40666e-06 -7.56527e-08 0.0918445)
(-6.18636e-06 -1.24829e-06 0.0826665)
(-3.65599e-07 -9.7217e-08 0.113899)
(-6.30452e-08 4.2979e-07 0.113899)
(5.04672e-07 5.11282e-08 0.1139)
(-6.38692e-07 -7.20565e-07 0.112004)
(5.80544e-07 -7.04092e-07 0.112004)
(-2.59457e-07 5.75255e-07 0.107734)
(-1.07647e-05 -3.96067e-08 0.0989839)
(-9.9205e-06 2.76081e-06 0.0934487)
(1.14212e-05 2.49703e-08 0.0990289)
(-3.24495e-07 6.20782e-07 0.107735)
(9.42037e-06 -3.21982e-06 0.0934919)
(-2.35807e-07 -9.84488e-08 0.10992)
(2.84993e-06 -1.83016e-06 0.0719264)
(-2.69909e-06 1.91941e-06 0.0719644)
(-1.4806e-07 -2.21509e-07 0.10992)
(2.76277e-06 -9.94385e-06 0.0934481)
(8.66152e-09 -1.08106e-05 0.0989836)
(2.19911e-08 1.13993e-05 0.0990288)
(5.94249e-07 -3.19946e-07 0.107734)
(-1.36581e-07 -2.30314e-07 0.109919)
(-3.13546e-06 9.39389e-06 0.0934919)
(-3.44e-06 -3.66417e-06 0.087967)
(-3.61081e-06 -3.4946e-06 0.0879662)
(3.40632e-05 3.44569e-05 0.104692)
(3.49869e-06 3.49596e-06 0.0879982)
(3.51055e-06 3.27974e-06 0.0879992)
(1.76068e-06 2.88074e-06 0.0719268)
(-1.9708e-06 -2.74215e-06 0.0719632)
(-2.68826e-06 -2.00107e-06 0.0719639)
(2.89343e-06 1.76134e-06 0.0719262)
(3.48014e-06 3.3854e-06 0.0879662)
(3.3023e-05 3.24371e-05 0.104592)
(-3.41911e-05 -3.42585e-05 0.104693)
(3.47148e-06 3.79762e-06 0.0879651)
(-3.51403e-06 -3.38756e-06 0.0879964)
(-1.97603e-06 -2.73404e-06 0.0719633)
(1.80922e-06 2.8895e-06 0.0719272)
(2.88835e-06 1.76176e-06 0.071927)
(-2.73463e-06 -1.98632e-06 0.071964)
(3.26981e-05 3.26468e-05 0.104592)
(-3.38668e-06 -3.56383e-06 0.0879995)
(-3.42915e-05 -3.43433e-05 0.104692)
(-3.51513e-06 -3.40189e-06 0.0879966)
(3.47228e-06 3.64248e-06 0.0879653)
(2.82208e-08 -6.46814e-06 0.091844)
(7.96777e-08 5.80075e-06 0.091815)
(6.74244e-07 2.65808e-07 0.107732)
(4.29267e-08 3.1661e-07 0.10992)
(1.39271e-08 3.12202e-07 0.109921)
(2.22153e-08 -1.14213e-05 0.0990281)
(2.68672e-06 1.02235e-05 0.0934463)
(-3.26564e-06 -9.35997e-06 0.0934894)
(-8.84468e-09 1.08791e-05 0.098983)
(7.16607e-08 3.48955e-07 0.109921)
(1.9893e-08 -1.14269e-05 0.0990285)
(5.92431e-08 1.08674e-05 0.0989833)
(-1.00255e-07 5.715e-06 0.091815)
(-1.25756e-06 -6.13544e-06 0.0826653)
(4.56044e-07 6.32041e-06 0.0826289)
(-6.97898e-08 -6.42262e-06 0.0918441)
(5.73862e-08 5.71871e-06 0.0918153)
(1.16056e-06 -6.08403e-06 0.0826667)
(-5.16042e-07 6.35459e-06 0.0826289)
(-1.65207e-09 -6.42982e-06 0.0918443)
(4.76234e-08 2.61746e-07 0.109921)
(6.71992e-07 3.00222e-07 0.107732)
(-1.32398e-09 3.0357e-07 0.109919)
(-2.55279e-08 1.07981e-05 0.0989831)
(-3.17675e-06 -9.42574e-06 0.0934896)
(2.6794e-06 9.94677e-06 0.0934463)
(9.91151e-09 -1.14593e-05 0.0990283)
(-6.3712e-07 3.1242e-07 0.107733)
(-5.74855e-07 3.21938e-07 0.107733)
(1.40135e-07 2.82571e-07 0.10992)
(5.37467e-08 1.07985e-05 0.0989833)
(3.09832e-06 -9.4247e-06 0.0934914)
(-2.70478e-06 9.89014e-06 0.0934472)
(-2.63294e-08 -1.14621e-05 0.0990286)
(1.89169e-06 -2.70083e-06 0.0719652)
(-1.79317e-06 2.81825e-06 0.0719256)
(3.42569e-05 -3.43984e-05 0.104693)
(3.43337e-06 -3.55831e-06 0.0879986)
(3.44694e-06 -3.37883e-06 0.0879986)
(-3.44537e-06 3.58424e-06 0.0879647)
(2.77209e-06 -1.9808e-06 0.0719634)
(3.74924e-06 -3.42389e-06 0.0879667)
(-3.30167e-06 3.49497e-06 0.0879972)
(-3.55786e-06 3.49456e-06 0.0879986)
(-3.43906e-05 3.41109e-05 0.104692)
(-1.97852e-06 2.7247e-06 0.0719629)
(-2.70871e-06 1.90319e-06 0.0719643)
(-3.43041e-05 3.42935e-05 0.104692)
(3.43883e-06 -3.63197e-06 0.0879669)
(3.25829e-05 -3.27202e-05 0.104591)
(-3.56479e-06 3.39123e-06 0.0879989)
(-3.38946e-06 3.46678e-06 0.0879973)
(-1.99504e-06 2.75132e-06 0.0719634)
(1.83047e-06 2.93049e-06 0.071928)
(-1.97716e-06 -2.70917e-06 0.071964)
(2.88228e-06 1.80133e-06 0.0719277)
(-2.76386e-06 -1.9852e-06 0.0719638)
(3.25686e-05 3.26059e-05 0.104591)
(3.4904e-06 3.63484e-06 0.0879661)
(-3.45175e-05 -3.40223e-05 0.104692)
(-3.55152e-06 -3.4639e-06 0.087999)
(-3.20882e-06 -3.51898e-06 0.0879976)
(-1.98977e-06 -2.7406e-06 0.0719646)
(1.81184e-06 2.93445e-06 0.0719282)
(-2.75334e-06 -1.95961e-06 0.0719638)
(2.86561e-06 1.82951e-06 0.0719278)
(3.24525e-05 3.28658e-05 0.104591)
(-3.57032e-06 -3.31479e-06 0.0879996)
(-3.36031e-06 -3.50895e-06 0.0879975)
(3.42655e-06 3.62654e-06 0.0879678)
(3.79096e-06 3.50867e-06 0.0879659)
(-1.20309e-08 -6.40892e-06 0.0918445)
(-5.50996e-07 6.3599e-06 0.0826293)
(3.62552e-08 5.80235e-06 0.0918158)
(1.18482e-06 -6.07055e-06 0.0826671)
(-6.83492e-08 2.33876e-07 0.10992)
(-4.49208e-08 -1.15111e-05 0.0990288)
(2.79834e-06 9.86211e-06 0.0934469)
(7.89087e-07 4.9883e-07 0.107733)
(-4.77138e-08 1.07565e-05 0.0989832)
(-3.12735e-06 -9.62933e-06 0.0934911)
(-1.39782e-07 2.65292e-07 0.109919)
(1.58169e-07 2.03801e-07 0.10992)
(-5.49622e-08 -1.15186e-05 0.099029)
(-2.82592e-06 9.85877e-06 0.0934475)
(-6.30188e-07 3.02025e-07 0.107733)
(4.66195e-09 1.07553e-05 0.0989835)
(3.07046e-06 -9.41406e-06 0.0934916)
(1.2523e-07 2.26543e-07 0.109919)
(-1.37609e-07 5.81198e-06 0.0918161)
(-1.22691e-06 -6.00292e-06 0.0826666)
(5.11959e-07 6.52944e-06 0.0826298)
(-8.50091e-08 -6.41376e-06 0.0918445)
(3.05841e-08 5.79324e-06 0.0918163)
(1.21263e-06 -6.05841e-06 0.0826676)
(-5.08317e-07 6.36474e-06 0.0826295)
(-2.12604e-08 -6.4319e-06 0.0918447)
(-1.00197e-07 1.07408e-05 0.0989837)
(6.91344e-07 4.23928e-07 0.107734)
(-3.20892e-06 -9.33408e-06 0.0934915)
(-2.30919e-07 2.43767e-07 0.109919)
(2.78682e-06 9.76977e-06 0.0934481)
(-2.06116e-07 1.99693e-07 0.10992)
(-6.78615e-08 -1.13871e-05 0.0990291)
(-1.49088e-08 1.07336e-05 0.0989839)
(-6.49127e-07 2.65071e-07 0.107733)
(3.1659e-06 -9.345e-06 0.0934919)
(5.69883e-08 2.15025e-07 0.109919)
(-2.79117e-06 9.89543e-06 0.0934478)
(8.20804e-08 1.54017e-07 0.10992)
(-8.16035e-08 -1.14125e-05 0.0990293)
(-3.63505e-06 3.46125e-06 0.0879679)
(-3.50479e-06 3.58344e-06 0.087965)
(3.43121e-05 -3.4233e-05 0.104693)
(3.46739e-06 -3.38343e-06 0.087999)
(3.36578e-06 -3.55992e-06 0.0879989)
(2.74974e-06 -1.99112e-06 0.071964)
(1.91517e-06 -2.67621e-06 0.0719662)
(-1.78247e-06 2.81986e-06 0.0719261)
(-3.26351e-05 3.26805e-05 0.104592)
(3.49977e-06 -3.30758e-06 0.0879993)
(-3.4494e-06 3.58751e-06 0.0879652)
(-3.67881e-06 3.45199e-06 0.0879683)
(-2.90016e-06 1.8108e-06 0.0719286)
(1.00002e-05 2.81102e-06 0.0934487)
(2.99511e-07 5.97859e-07 0.107735)
(2.53848e-07 -9.12831e-08 0.10992)
(-1.14022e-05 -1.31833e-08 0.0990289)
(2.14857e-07 4.68545e-07 0.107734)
(-9.11478e-06 -3.19767e-06 0.0934913)
(1.97979e-07 -2.38113e-08 0.10992)
(5.79593e-06 6.03055e-08 0.0918151)
(6.34991e-06 -5.68149e-07 0.0826294)
(-6.37799e-06 -7.70628e-09 0.091845)
(-6.10183e-06 1.18639e-06 0.0826669)
(2.66985e-07 1.31776e-07 0.10992)
(2.81754e-07 -4.99684e-07 0.107733)
(9.89966e-06 -2.81708e-06 0.0934472)
(-1.14092e-05 -3.33639e-08 0.099029)
(2.89249e-07 -6.16936e-07 0.107732)
(2.6028e-07 1.52335e-07 0.109919)
(-9.38236e-06 3.10457e-06 0.0934913)
(5.78444e-06 -1.12268e-07 0.091816)
(-6.17207e-06 -1.24316e-06 0.0826668)
(6.30389e-06 4.78738e-07 0.0826304)
(-6.43617e-06 -5.32329e-08 0.0918447)
(1.08312e-05 -6.5179e-08 0.0989838)
(1.67063e-07 4.88619e-07 0.107734)
(-9.33566e-06 -3.21738e-06 0.0934913)
(1.84602e-07 -2.56832e-08 0.109919)
(1.0171e-05 2.71335e-06 0.0934481)
(1.23247e-07 -6.18748e-09 0.10992)
(-1.13555e-05 1.69456e-09 0.099029)
(5.76432e-06 4.81651e-08 0.0918155)
(-6.08425e-06 1.19293e-06 0.0826672)
(6.37423e-06 -5.44901e-07 0.0826297)
(-6.40002e-06 -1.02906e-08 0.091845)
(1.08194e-05 1.77383e-08 0.0989837)
(2.83524e-07 -6.07262e-07 0.107733)
(2.45086e-07 1.03611e-07 0.109919)
(-9.33537e-06 3.14013e-06 0.0934916)
(1.83333e-07 1.27805e-07 0.10992)
(9.94548e-06 -2.81336e-06 0.0934474)
(-1.1341e-05 -3.80687e-08 0.0990291)
(-6.3786e-06 5.30876e-07 0.0826303)
(6.45411e-06 -2.61401e-08 0.0918444)
(6.11012e-06 -1.24995e-06 0.0826669)
(-1.76861e-07 5.65282e-08 0.10992)
(-1.07754e-05 3.60673e-08 0.0989839)
(-9.93283e-06 -2.69233e-06 0.0934473)
(1.14323e-05 -2.72507e-09 0.0990288)
(-4.33425e-07 -8.54756e-07 0.107733)
(-2.61066e-07 1.05185e-07 0.109919)
(9.58039e-06 3.13383e-06 0.0934914)
(-6.28435e-06 -4.82205e-07 0.08263)
(6.45071e-06 3.00925e-08 0.0918443)
(6.08356e-06 1.18156e-06 0.0826668)
(-1.08044e-05 -3.10001e-08 0.0989843)
(-3.28964e-07 5.70962e-07 0.107735)
(-3.27723e-07 -7.68317e-08 0.10992)
(-9.91159e-06 2.72333e-06 0.0934489)
(-2.23279e-07 -7.36657e-08 0.10992)
(-5.76198e-06 -9.53574e-08 0.0918166)
(-6.385e-06 5.04271e-07 0.0826306)
(-1.08007e-05 4.6314e-08 0.0989842)
(-3.47896e-07 -5.42147e-07 0.107733)
(-3.38031e-07 1.49496e-07 0.109919)
(-2.58155e-07 1.3303e-07 0.10992)
(-9.83201e-06 -2.79226e-06 0.0934485)
(-5.77325e-06 6.29971e-08 0.0918167)
(-6.45481e-06 -5.58033e-07 0.0826308)
(3.45451e-06 -3.65817e-06 0.0879672)
(3.62861e-06 -3.52747e-06 0.087965)
(-3.42651e-05 3.42968e-05 0.104692)
(-3.38602e-06 3.47548e-06 0.0879975)
(-3.54592e-06 3.35301e-06 0.0879993)
(-1.99545e-06 2.73611e-06 0.0719637)
(2.86015e-06 -1.83168e-06 0.0719267)
(3.2624e-05 -3.26634e-05 0.104591)
(3.63394e-06 -3.51659e-06 0.0879653)
(3.47969e-06 -3.69573e-06 0.0879674)
(1.81034e-06 -2.92259e-06 0.0719278)
(-7.158e-07 -2.77202e-07 0.107735)
(7.69228e-08 -1.08055e-05 0.0989838)
(-2.83268e-06 -9.87768e-06 0.0934492)
(-2.49662e-08 1.14057e-05 0.0990291)
(-4.4262e-07 -1.47974e-07 0.107734)
(9.19709e-08 -2.03209e-07 0.109919)
(3.10814e-06 9.24824e-06 0.0934925)
(-7.20653e-08 -5.80031e-06 0.0918159)
(-6.47569e-08 6.36441e-06 0.0918445)
(-1.22794e-06 6.05266e-06 0.0826667)
(-5.92562e-07 -6.51361e-06 0.0826312)
(-2.0246e-08 6.3651e-06 0.0918448)
(1.19461e-06 6.1131e-06 0.0826678)
(-6.71834e-08 -1.08036e-05 0.0989838)
(5.51476e-07 -2.82212e-07 0.107734)
(-1.45078e-07 -2.03031e-07 0.10992)
(2.81482e-06 -9.94436e-06 0.0934483)
(-7.77266e-09 -1.07893e-05 0.098984)
(-6.43319e-07 -2.22069e-07 0.107734)
(6.58537e-08 -1.62221e-07 0.10992)
(-2.81809e-06 -1.002e-05 0.0934487)
(-1.27297e-07 -5.83797e-06 0.0918163)
(5.23973e-07 -6.44247e-06 0.0826301)
(2.35867e-08 -5.81272e-06 0.0918164)
(-5.30928e-07 -6.34834e-06 0.0826312)
(-2.85113e-06 -1.83198e-06 0.0719275)
(2.75029e-06 1.92417e-06 0.0719641)
(1.98636e-06 2.74617e-06 0.0719653)
(-3.28015e-05 -3.25373e-05 0.104592)
(-3.64445e-06 -3.4768e-06 0.087968)
(-3.50132e-06 -3.6698e-06 0.0879657)
(-2.92978e-06 -1.86697e-06 0.0719283)
(-1.80482e-06 -2.84133e-06 0.0719283)
(-5.97657e-06 -1.21797e-06 0.0826662)
(6.52716e-06 5.23317e-07 0.0826294)
(-6.43318e-06 -3.17734e-08 0.0918441)
(5.80857e-06 -6.77117e-08 0.0918149)
(1.44166e-07 -3.72034e-07 0.1139)
(-3.41153e-07 -1.10729e-07 0.113898)
(-8.72485e-08 4.1045e-07 0.113899)
(-1.40609e-07 -3.72904e-07 0.113899)
(-5.43153e-07 4.80276e-07 0.112005)
(-3.1433e-06 9.60662e-06 0.0934913)
(7.39953e-07 -4.34631e-07 0.107735)
(-9.7845e-09 1.14789e-05 0.0990287)
(-1.32955e-07 -3.62301e-07 0.10992)
(1.11161e-05 5.971e-07 0.0960567)
(5.17502e-07 8.89567e-07 0.107736)
(4.98287e-07 7.67689e-07 0.107736)
(-1.14343e-05 3.88817e-09 0.0990286)
(4.53574e-07 -2.12522e-07 0.109921)
(1.08098e-05 -2.92512e-08 0.0989835)
(4.04852e-07 -1.51523e-07 0.109921)
(6.50351e-06 -5.28071e-07 0.0826293)
(-6.15456e-06 1.23498e-06 0.0826663)
(-6.42729e-06 3.28293e-08 0.0918444)
(5.79954e-06 8.02738e-08 0.0918148)
(-9.23277e-06 3.22003e-06 0.0934909)
(3.33671e-07 -6.33023e-07 0.107733)
(2.62828e-07 -5.51085e-07 0.107732)
(-1.14119e-05 -9.58686e-09 0.0990286)
(3.9857e-07 3.88741e-08 0.109921)
(1.08271e-05 3.48142e-08 0.0989834)
(3.56753e-07 2.97707e-08 0.10992)
(6.49572e-06 5.27471e-07 0.0826299)
(-6.39671e-06 -4.55626e-08 0.0918444)
(-6.05231e-06 -1.19899e-06 0.0826665)
(5.75476e-06 -5.95279e-08 0.0918152)
(4.07356e-07 7.34511e-07 0.107735)
(-1.14178e-05 1.31928e-08 0.0990287)
(-9.39846e-06 -3.14683e-06 0.0934921)
(4.24199e-07 6.3497e-07 0.107735)
(3.39769e-07 -9.63329e-08 0.10992)
(1.07919e-05 -3.55712e-08 0.0989835)
(3.40803e-07 -1.3847e-07 0.109921)
(6.29373e-06 -5.1812e-07 0.0826291)
(-6.37699e-06 3.25238e-09 0.0918448)
(-6.12843e-06 1.16938e-06 0.0826666)
(5.73583e-06 8.54725e-08 0.0918149)
(-1.1409e-05 -3.43754e-08 0.0990287)
(3.33271e-07 8.8073e-08 0.109919)
(3.09246e-07 -5.28839e-07 0.107732)
(2.77374e-07 -5.44951e-07 0.107733)
(-9.41366e-06 3.12839e-06 0.093491)
(1.07978e-05 4.02947e-08 0.0989834)
(3.09916e-07 4.33823e-08 0.10992)
(-2.48405e-07 -1.48987e-07 0.10992)
(-2.82973e-07 5.85826e-07 0.107735)
(1.14634e-05 1.53406e-08 0.0990289)
(9.42624e-06 -3.17339e-06 0.0934916)
(-2.51034e-07 -1.52533e-07 0.109921)
(6.44326e-06 -6.04662e-09 0.0918443)
(6.12404e-06 -1.22372e-06 0.0826664)
(-2.06806e-07 2.98738e-08 0.109919)
(1.14521e-05 -8.36301e-09 0.0990288)
(9.25963e-06 3.24813e-06 0.0934903)
(-1.48188e-07 -3.74052e-07 0.107733)
(-2.12874e-07 4.38207e-08 0.109921)
(-1.00291e-05 -2.71863e-06 0.0934478)
(6.23423e-06 1.25491e-06 0.0826663)
(-6.3647e-06 -4.71423e-07 0.0826299)
(-9.54257e-09 1.14726e-05 0.0990289)
(1.23727e-07 -3.37536e-07 0.10992)
(-1.22656e-06 6.04503e-06 0.0826659)
(-3.42931e-08 6.43019e-06 0.0918439)
(5.14042e-08 6.43707e-06 0.0918441)
(-1.41297e-07 -2.69749e-07 0.109919)
(2.78507e-06 -9.82287e-06 0.0934478)
(7.09859e-07 -3.22571e-07 0.107735)
(-3.18278e-06 9.40508e-06 0.0934916)
(4.26087e-08 1.14164e-05 0.0990287)
(-5.52159e-08 -1.07481e-05 0.0989835)
(-1.62281e-07 -2.74003e-07 0.10992)
(-7.54807e-07 -4.65687e-07 0.107735)
(2.17789e-08 1.14222e-05 0.099029)
(3.12781e-06 9.59012e-06 0.0934931)
(4.43293e-08 -1.07494e-05 0.0989837)
(-8.54428e-07 -4.65366e-07 0.107735)
(1.45133e-07 -3.03418e-07 0.10992)
(-2.70331e-06 -9.76322e-06 0.0934479)
(-1.22897e-06 6.0482e-06 0.0826663)
(-1.46501e-08 6.42027e-06 0.0918441)
(-7.69704e-08 -5.7675e-06 0.0918156)
(1.15948e-06 5.97828e-06 0.0826676)
(9.48104e-08 -5.76001e-06 0.0918157)
(-5.10007e-07 -6.43412e-06 0.0826306)
(3.59822e-06 3.50661e-06 0.0880005)
(3.33084e-06 3.50194e-06 0.0879961)
(-3.26028e-05 -3.28126e-05 0.104592)
(-3.75776e-06 -3.45351e-06 0.0879677)
(-3.39295e-06 -3.56225e-06 0.0879648)
(2.77183e-06 1.9696e-06 0.0719634)
(-2.88815e-06 -1.77433e-06 0.0719275)
(-1.80171e-06 -2.90245e-06 0.0719277)
(7.20152e-06 3.24437e-06 0.0921021)
(3.60678e-06 3.35457e-06 0.0879666)
(-1.07538e-05 -6.03276e-06 0.0967637)
(-3.09609e-06 -2.03088e-06 0.0819838)
(3.32051e-06 1.68098e-06 0.0819529)
(-7.56295e-06 -3.72342e-06 0.0921329)
(1.04768e-05 6.0538e-06 0.0967279)
(-7.57668e-06 -3.67647e-06 0.0921336)
(1.0565e-05 6.14704e-06 0.0967272)
(-3.4137e-06 -3.59388e-06 0.0879994)
(3.31536e-06 1.71958e-06 0.0819532)
(7.18061e-06 3.34614e-06 0.0921019)
(-3.10033e-06 -1.98281e-06 0.0819845)
(-1.07644e-05 -5.97191e-06 0.0967637)
(-2.74622e-06 1.90272e-06 0.0719641)
(-7.49439e-06 3.47273e-06 0.0921269)
(1.07893e-05 -6.34671e-06 0.0967221)
(-3.42171e-06 3.46792e-06 0.0879972)
(3.24144e-06 -1.90205e-06 0.0819514)
(7.24736e-06 -3.60914e-06 0.092097)
(-3.20852e-06 1.87628e-06 0.0819813)
(-1.0558e-05 5.86617e-06 0.0967576)
(-1.99875e-06 2.71603e-06 0.0719632)
(-7.52075e-06 -3.39225e-06 0.0921344)
(1.06023e-05 6.33106e-06 0.0967261)
(3.29027e-06 1.77365e-06 0.0819538)
(-3.27191e-06 -3.53312e-06 0.0879993)
(7.1663e-06 3.47582e-06 0.0921016)
(-3.06569e-06 -1.89125e-06 0.0819851)
(-1.06043e-05 -5.73e-06 0.0967637)
(2.76367e-06 -1.98111e-06 0.0719637)
(3.40986e-06 4.87342e-07 0.0772894)
(-5.81078e-06 -1.45808e-07 0.0903219)
(-3.22951e-06 -1.91414e-07 0.0790433)
(6.44977e-06 -1.11641e-08 0.0918443)
(6.48141e-06 -1.61201e-07 0.0903559)
(3.37805e-06 6.10221e-08 0.0790671)
(-3.32273e-06 -8.0493e-07 0.0772583)
(3.44767e-06 -4.82724e-07 0.0772881)
(-3.23762e-06 1.99595e-07 0.0790435)
(-5.83215e-06 1.59534e-07 0.0903227)
(6.45425e-06 4.74704e-08 0.0918442)
(3.37842e-06 -5.61705e-08 0.079067)
(6.51357e-06 1.8867e-07 0.0903551)
(-3.38642e-06 8.11147e-07 0.0772597)
(-1.98783e-06 2.75404e-06 0.0719635)
(4.25233e-07 2.73636e-06 0.068825)
(-1.698e-07 -5.29363e-06 0.0862293)
(-1.22387e-06 6.05535e-06 0.0826665)
(-6.58904e-07 5.40455e-06 0.08627)
(-1.13857e-06 -2.85712e-06 0.0687798)
(-5.25804e-07 3.45662e-06 0.0772888)
(1.1863e-07 -5.88604e-06 0.0903228)
(1.67898e-07 -3.22687e-06 0.0790429)
(1.79745e-09 6.37514e-06 0.0918446)
(1.52179e-07 6.42812e-06 0.0903558)
(-9.30314e-08 3.35989e-06 0.0790676)
(7.72802e-07 -3.34066e-06 0.0772592)
(1.98269e-06 2.6967e-06 0.0719653)
(-3.38355e-06 8.18643e-07 0.0772595)
(3.37817e-06 -4.96003e-08 0.0790668)
(6.5078e-06 2.05116e-07 0.0903551)
(-5.76883e-06 9.58808e-08 0.0918161)
(3.4524e-06 -4.72665e-07 0.0772878)
(-3.23901e-06 2.05288e-07 0.0790433)
(-5.84766e-06 1.68751e-07 0.0903225)
(4.24119e-07 2.74822e-06 0.0688245)
(-1.22968e-06 6.02612e-06 0.0826661)
(-1.45594e-07 -5.29474e-06 0.086229)
(-1.11955e-06 -2.84966e-06 0.0687794)
(-6.5715e-07 5.40933e-06 0.0862697)
(7.91154e-07 -3.35704e-06 0.0772591)
(1.82634e-07 6.45981e-06 0.0903556)
(-8.80737e-08 3.35546e-06 0.0790673)
(8.32102e-08 -5.76913e-06 0.0918159)
(-5.09119e-07 3.45232e-06 0.0772885)
(1.5232e-07 -5.85755e-06 0.0903226)
(1.75042e-07 -3.23249e-06 0.0790428)
(-1.81275e-06 -2.92078e-06 0.0719281)
(-8.44246e-07 3.38906e-06 0.0772582)
(1.50325e-08 -3.34754e-06 0.0790667)
(-1.99359e-07 -6.51605e-06 0.0903546)
(-9.38915e-08 5.74914e-06 0.0918149)
(-2.33045e-07 3.22464e-06 0.0790419)
(-1.57998e-07 5.83238e-06 0.0903209)
(4.38716e-07 -3.40382e-06 0.077288)
(3.89374e-07 -2.73158e-06 0.0688231)
(-1.32623e-06 -6.21449e-06 0.0826649)
(-2.01078e-07 5.26009e-06 0.0862287)
(-7.13459e-07 -5.49426e-06 0.0862683)
(-1.12663e-06 2.91336e-06 0.0687801)
(-1.13356e-06 2.91981e-06 0.0687804)
(-7.11461e-07 -5.50886e-06 0.0862683)
(4.24373e-07 6.28214e-06 0.0826286)
(-2.1096e-07 5.24e-06 0.0862287)
(3.82149e-07 -2.73667e-06 0.0688232)
(4.49544e-07 -3.40689e-06 0.0772879)
(-4.43326e-08 -6.41965e-06 0.0918438)
(-2.1787e-07 3.23163e-06 0.0790417)
(-1.48161e-07 5.86492e-06 0.0903209)
(2.59025e-08 -3.34275e-06 0.0790666)
(-1.91644e-07 -6.47233e-06 0.0903546)
(-8.30426e-07 3.38437e-06 0.0772579)
(-2.69442e-06 1.99505e-06 0.0719637)
(2.85337e-06 -1.76534e-06 0.0719261)
(-8.47986e-07 3.39707e-06 0.0772594)
(-1.32815e-07 5.83371e-06 0.0918159)
(1.4668e-08 -3.37451e-06 0.0790671)
(-2.40969e-07 -6.42483e-06 0.0903552)
(-2.44965e-07 3.23666e-06 0.079043)
(-1.89693e-07 5.93655e-06 0.0903221)
(4.40722e-07 -3.44596e-06 0.0772882)
(3.94842e-07 -2.78112e-06 0.0688232)
(-1.56637e-07 5.3241e-06 0.0862297)
(-1.2413e-06 -6.0754e-06 0.0826656)
(-1.10397e-06 2.92351e-06 0.0687814)
(-6.61673e-07 -5.41978e-06 0.0862687)
(4.43715e-07 -3.41828e-06 0.0772882)
(-8.34258e-08 -6.37431e-06 0.0918443)
(-2.46602e-07 3.2496e-06 0.0790428)
(-1.67793e-07 5.91055e-06 0.0903218)
(-8.47679e-07 3.41169e-06 0.0772591)
(8.95666e-09 -3.35197e-06 0.079067)
(-2.14444e-07 -6.41143e-06 0.090355)
(-1.10253e-06 2.92683e-06 0.0687818)
(-6.77656e-07 -5.41252e-06 0.0862689)
(5.10771e-07 6.48581e-06 0.0826296)
(-1.53424e-07 5.34659e-06 0.08623)