/*--------------------------------*- C++ -*----------------------------------*\
| =========                 |                                                 |
| \\      /  F ield         | OpenFOAM: The Open Source CFD Toolbox           |
|  \\    /   O peration     | Version:  v2012                                 |
|   \\  /    A nd           | Website:  www.openfoam.com                      |
|    \\/     M anipulation  |                                                 |
\*---------------------------------------------------------------------------*/
FoamFile
{
    version     2.0;
    format      ascii;
    class       volScalarField;
    location    "487.5";
    object      k;
}
// * * * * * * * * * * * * * * * * * * * * * * * * * * * * * * * * * * * * * //

dimensions      [0 2 -2 0 0 0 0];


internalField   nonuniform List<scalar> 
171728
(
2.62943e-07
2.94497e-07
3.34952e-07
3.41195e-07
2.60384e-07
2.80575e-07
3.40037e-07
3.20899e-07
2.56685e-07
2.66494e-07
3.5343e-07
3.03713e-07
2.53311e-07
2.53678e-07
3.6831e-07
2.90721e-07
2.50248e-07
2.40961e-07
3.79801e-07
2.80982e-07
2.47575e-07
2.26626e-07
3.58684e-07
2.71007e-07
2.44812e-07
2.12747e-07
2.89888e-07
2.56654e-07
2.41669e-07
1.98905e-07
2.17541e-07
2.39484e-07
2.38953e-07
1.86285e-07
1.76915e-07
2.23261e-07
2.37137e-07
1.75522e-07
1.66432e-07
2.11039e-07
2.37025e-07
1.68496e-07
1.65972e-07
1.98888e-07
2.37215e-07
1.66528e-07
1.6546e-07
1.91733e-07
2.35807e-07
1.67029e-07
1.66742e-07
2.15903e-07
2.32482e-07
1.71216e-07
1.69686e-07
3.25801e-07
2.29351e-07
2.11473e-07
1.73643e-07
4.95793e-07
2.27383e-07
3.11289e-07
1.80168e-07
6.04436e-07
2.26126e-07
4.62628e-07
1.91025e-07
5.64664e-07
2.25417e-07
6.20831e-07
2.11606e-07
3.59697e-07
2.24729e-07
7.59144e-07
2.47943e-07
3.21309e-07
2.24373e-07
8.08336e-07
2.93364e-07
3.53325e-07
2.24302e-07
6.56781e-07
3.76083e-07
4.43227e-07
2.24721e-07
7.29651e-07
4.84471e-07
6.86162e-07
2.25949e-07
8.59881e-07
6.54102e-07
1.07188e-06
2.27899e-07
9.95315e-07
9.28796e-07
1.71432e-06
2.31021e-07
1.17522e-06
1.20825e-06
2.43828e-06
2.34986e-07
1.58174e-06
1.61961e-06
4.06421e-06
2.45835e-07
2.15562e-06
2.26253e-06
6.03239e-06
2.56163e-07
2.82602e-06
2.82197e-06
7.86097e-06
2.7086e-07
3.33911e-06
3.32113e-06
8.6558e-06
3.02042e-07
4.69821e-06
4.8882e-06
1.3684e-05
3.30531e-07
5.22288e-06
5.60953e-06
1.57599e-05
3.91822e-07
6.46957e-06
6.27742e-06
1.69169e-05
4.28044e-07
7.69292e-06
7.52923e-06
1.79489e-05
5.90055e-07
1.006e-05
9.3995e-06
2.31428e-05
6.45633e-07
1.02428e-05
1.1009e-05
2.37982e-05
7.55741e-07
1.16898e-05
1.14823e-05
2.45286e-05
1.13391e-06
1.31259e-05
1.38997e-05
2.70986e-05
1.22547e-06
1.69296e-05
1.59993e-05
2.82737e-05
1.61137e-06
1.85846e-05
1.69003e-05
2.94731e-05
2.14304e-06
1.87076e-05
1.9182e-05
3.04046e-05
2.21709e-06
2.05172e-05
2.11361e-05
3.16691e-05
3.16299e-06
2.26427e-05
2.23471e-05
3.31138e-05
3.73976e-06
2.46519e-05
2.47364e-05
3.40427e-05
4.10468e-06
2.58808e-05
2.56351e-05
3.50506e-05
5.08657e-06
2.8312e-05
2.84905e-05
3.63494e-05
6.24441e-06
2.89616e-05
2.99189e-05
3.72786e-05
6.72349e-06
3.19497e-05
3.04764e-05
3.83142e-05
8.61241e-06
3.31907e-05
3.33783e-05
3.96293e-05
9.28059e-06
3.33726e-05
3.39647e-05
4.02229e-05
1.07151e-05
3.59411e-05
3.53664e-05
4.13659e-05
1.253e-05
3.73131e-05
3.71395e-05
4.25379e-05
1.32998e-05
3.75997e-05
3.80386e-05
4.30347e-05
1.5443e-05
3.95472e-05
3.9088e-05
4.41274e-05
1.66338e-05
4.01244e-05
4.095e-05
4.50874e-05
1.8488e-05
4.18159e-05
4.114e-05
4.5716e-05
1.98024e-05
4.22739e-05
4.23775e-05
4.60997e-05
2.1559e-05
4.34047e-05
4.38634e-05
4.77318e-05
2.30144e-05
4.43537e-05
4.41924e-05
4.78184e-05
2.43303e-05
4.56947e-05
4.53599e-05
4.86302e-05
2.62571e-05
4.6235e-05
4.63807e-05
4.91287e-05
2.7159e-05
4.64724e-05
4.6629e-05
5.01245e-05
2.85646e-05
4.77773e-05
4.81962e-05
5.08456e-05
3.02415e-05
4.90038e-05
4.8543e-05
5.06196e-05
3.09411e-05
4.97829e-05
4.8989e-05
5.19027e-05
3.24917e-05
4.93719e-05
5.02447e-05
5.24776e-05
3.35505e-05
4.98957e-05
5.09329e-05
5.27879e-05
3.44635e-05
5.17505e-05
5.08916e-05
5.29722e-05
3.57143e-05
5.238e-05
5.14686e-05
5.40339e-05
3.66901e-05
5.24281e-05
5.28501e-05
5.43998e-05
3.73187e-05
5.22407e-05
5.30879e-05
5.42588e-05
3.8575e-05
5.31819e-05
5.2789e-05
5.46687e-05
3.96998e-05
5.47472e-05
5.43325e-05
5.60171e-05
3.96484e-05
5.3116e-05
5.4488e-05
5.54776e-05
4.01643e-05
5.38025e-05
5.35746e-05
5.50409e-05
4.29298e-05
5.66001e-05
5.58166e-05
5.70936e-05
4.29258e-05
5.45308e-05
5.63492e-05
5.726e-05
4.15975e-05
5.36239e-05
5.42782e-05
5.55449e-05
4.23462e-05
5.76346e-05
5.50221e-05
5.66651e-05
4.57533e-05
5.83192e-05
5.75775e-05
5.8834e-05
4.54809e-05
5.4713e-05
5.72586e-05
5.75098e-05
4.38802e-05
5.49674e-05
5.52121e-05
5.6345e-05
4.40754e-05
5.70958e-05
5.48689e-05
5.71391e-05
4.58393e-05
5.72739e-05
5.79764e-05
5.84161e-05
4.65513e-05
5.74005e-05
5.85629e-05
5.85885e-05
4.65045e-05
5.70205e-05
5.61979e-05
5.84621e-05
4.54786e-05
5.58503e-05
5.53847e-05
5.66307e-05
4.534e-05
5.62563e-05
5.68488e-05
5.68809e-05
4.70754e-05
5.80811e-05
5.84122e-05
5.92679e-05
4.73692e-05
5.75725e-05
5.75523e-05
5.88722e-05
4.60504e-05
5.57577e-05
5.55759e-05
5.71737e-05
4.58349e-05
5.59528e-05
5.56148e-05
5.67888e-05
4.64486e-05
5.68488e-05
5.73172e-05
5.80397e-05
4.69917e-05
5.74699e-05
5.75416e-05
5.87901e-05
4.69118e-05
5.61742e-05
5.58729e-05
5.71375e-05
4.51815e-05
5.39803e-05
5.38385e-05
5.6411e-05
3.57043e-07
3.28457e-07
3.28739e-07
3.46704e-07
3.52761e-07
3.3016e-07
2.62423e-07
2.64612e-07
2.5823e-07
2.77914e-07
2.94161e-07
3.10203e-07
3.56312e-07
3.27164e-07
2.61087e-07
3.42391e-07
3.5421e-07
3.40683e-07
3.65196e-07
3.69375e-07
3.50971e-07
3.56571e-07
3.45576e-07
3.29833e-07
4.09145e-07
3.73953e-07
3.97463e-07
3.61086e-07
3.1874e-07
2.84257e-07
3.15844e-07
3.53784e-07
3.38325e-07
2.62178e-07
3.36925e-07
2.52259e-07
3.22955e-07
3.37792e-07
3.26139e-07
3.46701e-07
3.51697e-07
3.36395e-07
3.36312e-07
3.27766e-07
3.13216e-07
3.92401e-07
3.56765e-07
3.77177e-07
3.47073e-07
3.15562e-07
2.69921e-07
3.16799e-07
3.35371e-07
3.2429e-07
2.49833e-07
3.50523e-07
2.43483e-07
3.0619e-07
3.23487e-07
3.12663e-07
3.33303e-07
3.30867e-07
3.2719e-07
3.13312e-07
3.11428e-07
2.98215e-07
3.72117e-07
3.44715e-07
3.5706e-07
3.3869e-07
3.18417e-07
2.56744e-07
3.24509e-07
3.22168e-07
3.14681e-07
2.41562e-07
3.63852e-07
2.36301e-07
2.92625e-07
3.10295e-07
3.00642e-07
3.25523e-07
3.07063e-07
3.23607e-07
2.87498e-07
2.96993e-07
2.84214e-07
3.51661e-07
3.36987e-07
3.35445e-07
3.31351e-07
3.27406e-07
2.44273e-07
3.36231e-07
3.12992e-07
3.07803e-07
2.34233e-07
3.78775e-07
2.26373e-07
2.82684e-07
2.98505e-07
2.90213e-07
3.23749e-07
2.81181e-07
3.26165e-07
2.65643e-07
2.83138e-07
2.70642e-07
3.30229e-07
3.28472e-07
3.13448e-07
3.17816e-07
3.38165e-07
2.30269e-07
3.39247e-07
3.06126e-07
2.9795e-07
2.2324e-07
3.71219e-07
2.12903e-07
2.72494e-07
2.8832e-07
2.81285e-07
3.26573e-07
2.61807e-07
3.25059e-07
2.55613e-07
2.69761e-07
2.59632e-07
3.07398e-07
3.13318e-07
2.8892e-07
2.97914e-07
3.37434e-07
2.16138e-07
3.17367e-07
2.95132e-07
2.75579e-07
2.09354e-07
3.08436e-07
1.98812e-07
2.58009e-07
2.79316e-07
2.70161e-07
3.22625e-07
2.54832e-07
3.09185e-07
2.52995e-07
2.58923e-07
2.49346e-07
2.82586e-07
2.91462e-07
2.62319e-07
2.70953e-07
3.08996e-07
2.02354e-07
2.80933e-07
2.73235e-07
2.55666e-07
1.95371e-07
2.33617e-07
1.85344e-07
2.4083e-07
2.67721e-07
2.54381e-07
3.02512e-07
2.51733e-07
2.77605e-07
2.44032e-07
2.48679e-07
2.37817e-07
2.56261e-07
2.64705e-07
2.46901e-07
2.50426e-07
2.71772e-07
1.89377e-07
2.50309e-07
2.54527e-07
2.4247e-07
1.82129e-07
1.8373e-07
1.73803e-07
2.2419e-07
2.52358e-07
2.40754e-07
2.69074e-07
2.41132e-07
2.47744e-07
2.32397e-07
2.37101e-07
2.2604e-07
2.46408e-07
2.46933e-07
2.47191e-07
2.38613e-07
2.45029e-07
1.77938e-07
2.33258e-07
2.41968e-07
2.32415e-07
1.71369e-07
1.67188e-07
1.66673e-07
2.11686e-07
2.39414e-07
2.34744e-07
2.42286e-07
2.28093e-07
2.30163e-07
2.20302e-07
2.2553e-07
2.16187e-07
2.49054e-07
2.36329e-07
2.73654e-07
2.30888e-07
2.30353e-07
1.69719e-07
2.24036e-07
2.32067e-07
2.23176e-07
1.64811e-07
1.66107e-07
1.542e-07
1.99635e-07
2.34821e-07
2.35666e-07
2.27449e-07
2.2033e-07
2.22109e-07
2.21949e-07
2.1579e-07
2.071e-07
2.83923e-07
2.29405e-07
3.11377e-07
2.24933e-07
2.22755e-07
1.66629e-07
2.18118e-07
2.22988e-07
2.16323e-07
1.51064e-07
1.65435e-07
1.48685e-07
1.91382e-07
2.35802e-07
2.33118e-07
2.20717e-07
2.21615e-07
2.16893e-07
2.1457e-07
2.06831e-07
1.99638e-07
3.17885e-07
2.235e-07
3.27067e-07
2.19892e-07
2.16237e-07
1.66725e-07
2.14277e-07
2.16291e-07
2.10405e-07
1.49297e-07
1.66243e-07
1.84457e-07
2.10274e-07
2.32747e-07
2.2447e-07
2.15422e-07
2.12744e-07
2.12867e-07
2.08773e-07
1.99683e-07
1.97788e-07
3.27286e-07
2.18976e-07
3.12202e-07
2.16398e-07
2.14377e-07
1.69171e-07
2.17377e-07
2.10473e-07
2.05473e-07
2.46174e-07
1.6884e-07
5.37122e-07
3.13945e-07
2.23937e-07
2.14954e-07
2.12117e-07
2.08105e-07
2.10981e-07
2.07956e-07
1.98656e-07
2.03758e-07
2.98268e-07
2.15707e-07
2.6373e-07
2.14849e-07
2.20247e-07
1.9658e-07
2.31508e-07
2.05733e-07
2.02561e-07
6.51794e-07
1.72604e-07
9.72344e-07
4.76831e-07
2.14859e-07
2.11815e-07
2.11049e-07
2.08241e-07
2.12526e-07
2.10745e-07
2.07134e-07
2.272e-07
2.54726e-07
2.14889e-07
2.3648e-07
2.16121e-07
2.35671e-07
2.7941e-07
2.46974e-07
2.03204e-07
2.02746e-07
1.05535e-06
1.78096e-07
1.19977e-06
5.91155e-07
2.12947e-07
2.14368e-07
2.1375e-07
2.12592e-07
2.17501e-07
2.19554e-07
2.34404e-07
2.75063e-07
2.32733e-07
2.17139e-07
2.30019e-07
2.21874e-07
2.4908e-07
4.20724e-07
2.48941e-07
2.04352e-07
2.0773e-07
1.22027e-06
1.87479e-07
1.22186e-06
5.86488e-07
2.18328e-07
2.29619e-07
2.20999e-07
2.22551e-07
2.32844e-07
2.38079e-07
2.85526e-07
3.4282e-07
2.30855e-07
2.24147e-07
2.379e-07
2.34654e-07
2.43873e-07
5.88013e-07
2.4388e-07
2.10764e-07
2.21937e-07
1.17856e-06
2.05439e-07
8.54817e-07
3.55059e-07
2.34206e-07
2.55108e-07
2.36133e-07
2.41278e-07
2.57668e-07
2.69512e-07
3.5496e-07
4.26651e-07
2.40197e-07
2.39339e-07
2.59701e-07
2.58253e-07
2.51519e-07
7.23275e-07
2.60385e-07
2.28074e-07
2.51939e-07
7.8679e-07
2.39374e-07
6.34886e-07
3.23158e-07
2.68019e-07
3.13675e-07
2.66781e-07
2.912e-07
2.99537e-07
3.2447e-07
4.82634e-07
5.603e-07
2.68205e-07
2.6734e-07
3.00114e-07
3.00965e-07
2.62626e-07
8.05948e-07
2.97255e-07
2.64699e-07
3.14686e-07
5.80627e-07
2.82089e-07
4.46209e-07
3.29903e-07
3.35492e-07
4.22779e-07
3.17507e-07
3.3015e-07
3.5845e-07
3.42183e-07
5.59532e-07
4.06679e-07
3.1756e-07
3.14116e-07
3.61722e-07
3.69166e-07
3.17251e-07
7.22543e-07
3.63504e-07
3.3519e-07
4.25568e-07
4.18571e-07
3.51437e-07
3.94369e-07
4.17879e-07
4.52425e-07
6.60817e-07
3.80558e-07
3.49025e-07
4.73106e-07
4.9719e-07
4.07074e-07
7.72637e-07
3.83737e-07
3.88855e-07
4.71606e-07
4.62843e-07
3.76788e-07
6.6911e-07
4.72109e-07
4.62439e-07
6.18403e-07
3.96709e-07
4.50478e-07
4.44773e-07
6.06383e-07
7.21038e-07
9.93027e-07
4.96388e-07
5.38891e-07
6.38213e-07
5.82015e-07
8.89383e-07
9.65537e-07
4.96928e-07
4.97379e-07
6.32492e-07
6.17139e-07
5.10486e-07
8.16705e-07
6.23177e-07
6.78418e-07
9.94792e-07
4.71763e-07
6.07608e-07
5.79115e-07
9.79641e-07
1.11147e-06
1.55142e-06
6.88835e-07
6.21229e-07
8.43188e-07
9.22981e-07
1.02164e-06
1.93555e-06
6.79259e-07
6.62086e-07
8.36827e-07
8.56342e-07
6.74843e-07
9.85601e-07
8.43767e-07
1.0961e-06
1.59886e-06
6.30185e-07
8.52765e-07
8.11133e-07
1.58526e-06
1.67212e-06
2.47483e-06
9.12373e-07
9.57059e-07
1.12162e-06
1.08492e-06
2.01789e-06
2.17859e-06
9.12089e-07
9.21217e-07
1.12349e-06
1.12823e-06
8.95496e-07
1.0557e-06
1.11789e-06
1.7524e-06
2.42715e-06
8.57922e-07
1.10997e-06
1.06801e-06
2.24246e-06
2.66562e-06
3.50143e-06
1.22605e-06
1.2077e-06
1.50744e-06
1.48161e-06
2.37956e-06
3.74282e-06
1.22146e-06
1.22532e-06
1.48226e-06
1.50144e-06
1.20086e-06
1.46026e-06
1.5491e-06
2.6324e-06
3.63318e-06
1.14879e-06
1.56546e-06
1.50631e-06
3.73243e-06
3.8044e-06
5.40826e-06
1.59238e-06
1.62354e-06
2.10151e-06
2.11234e-06
4.01854e-06
5.49267e-06
1.57618e-06
1.58501e-06
2.10359e-06
2.08789e-06
1.66539e-06
2.07664e-06
2.03961e-06
3.9053e-06
5.24785e-06
1.68637e-06
2.07634e-06
1.99111e-06
5.6288e-06
5.88057e-06
7.34874e-06
2.24374e-06
2.19135e-06
2.56537e-06
2.57636e-06
5.87804e-06
6.91415e-06
2.25583e-06
2.22745e-06
2.54157e-06
2.60064e-06
2.24166e-06
2.58765e-06
2.75388e-06
5.63319e-06
7.5091e-06
2.13878e-06
2.63775e-06
2.7286e-06
7.56764e-06
7.56274e-06
9.63196e-06
2.7894e-06
2.82936e-06
3.39736e-06
3.28127e-06
7.29848e-06
9.60456e-06
2.76297e-06
2.79803e-06
3.38993e-06
3.30167e-06
2.82513e-06
3.25019e-06
3.05093e-06
7.88231e-06
9.05464e-06
2.83493e-06
3.24095e-06
3.02561e-06
8.3106e-06
1.01926e-05
1.15372e-05
3.47466e-06
3.37424e-06
4.09285e-06
4.40843e-06
9.92042e-06
1.24263e-05
3.48359e-06
3.37999e-06
4.07936e-06
4.22793e-06
3.36067e-06
4.35549e-06
4.37662e-06
9.38458e-06
1.19566e-05
3.25146e-06
4.38329e-06
4.33217e-06
1.30207e-05
1.20454e-05
1.4888e-05
4.44492e-06
4.74191e-06
5.19982e-06
5.1382e-06
1.33759e-05
1.46615e-05
4.44175e-06
4.74344e-06
5.1652e-06
5.54738e-06
4.56052e-06
5.12826e-06
5.22401e-06
1.31924e-05
1.59472e-05
4.48056e-06
5.55523e-06
5.36347e-06
1.51307e-05
1.53639e-05
1.68962e-05
5.41549e-06
5.21803e-06
6.38021e-06
6.17955e-06
1.48829e-05
1.6086e-05
5.36829e-06
5.60676e-06
6.31168e-06
5.82572e-06
5.59709e-06
6.18705e-06
6.4489e-06
1.60266e-05
1.58749e-05
5.83612e-06
6.06774e-06
6.4e-06
1.68598e-05
1.73901e-05
1.88385e-05
6.60582e-06
6.48705e-06
7.11937e-06
7.17101e-06
1.67619e-05
1.94078e-05
6.58669e-06
6.13845e-06
7.23294e-06
7.54206e-06
6.54515e-06
7.04636e-06
6.74597e-06
1.61748e-05
1.89948e-05
6.41227e-06
7.15464e-06
6.57477e-06
1.73127e-05
1.93817e-05
2.1707e-05
7.52282e-06
7.9558e-06
9.28303e-06
9.81941e-06
2.04154e-05
2.28117e-05
7.57769e-06
7.85433e-06
9.11508e-06
8.63299e-06
6.93569e-06
9.85563e-06
9.31577e-06
1.96163e-05
2.12924e-05
6.87694e-06
8.87278e-06
1.08309e-05
2.22851e-05
2.21921e-05
2.28306e-05
9.69949e-06
9.96816e-06
1.01676e-05
1.00946e-05
2.28325e-05
2.24495e-05
9.53429e-06
9.05921e-06
1.01909e-05
1.06554e-05
1.00547e-05
1.01931e-05
1.08806e-05
2.17828e-05
2.34517e-05
1.15392e-05
1.07719e-05
1.16951e-05
2.37298e-05
2.29984e-05
2.42408e-05
1.02376e-05
1.01633e-05
1.118e-05
1.12195e-05
2.27724e-05
2.3688e-05
1.03148e-05
1.10105e-05
1.11597e-05
1.1423e-05
1.09436e-05
1.09526e-05
1.17045e-05
2.37588e-05
2.43094e-05
1.12587e-05
1.12928e-05
1.07519e-05
2.40731e-05
2.49204e-05
2.67604e-05
1.19024e-05
1.18976e-05
1.40472e-05
1.30048e-05
2.40565e-05
2.5444e-05
1.18055e-05
1.16542e-05
1.39723e-05
1.32075e-05
1.20909e-05
1.28772e-05
1.34907e-05
2.45843e-05
2.61952e-05
1.08298e-05
1.31386e-05
1.37051e-05
2.66888e-05
2.69793e-05
2.72985e-05
1.44296e-05
1.3211e-05
1.48329e-05
1.56122e-05
2.60429e-05
2.90054e-05
1.44117e-05
1.38803e-05
1.48951e-05
1.56518e-05
1.40099e-05
1.58497e-05
1.511e-05
2.6783e-05
2.81038e-05
1.48465e-05
1.57391e-05
1.65283e-05
2.80048e-05
2.75661e-05
2.93671e-05
1.49612e-05
1.6754e-05
1.68157e-05
1.85965e-05
2.95273e-05
2.98601e-05
1.50147e-05
1.59044e-05
1.67472e-05
1.64957e-05
1.54467e-05
1.84809e-05
1.70416e-05
2.83007e-05
2.87064e-05
1.66761e-05
1.64826e-05
1.71942e-05
2.91533e-05
2.98796e-05
3.04901e-05
1.77292e-05
1.87497e-05
1.93341e-05
1.8868e-05
2.99131e-05
2.99882e-05
1.76724e-05
1.69235e-05
1.93187e-05
1.8718e-05
1.75646e-05
1.86661e-05
1.86514e-05
2.8995e-05
3.04396e-05
1.75151e-05
1.87098e-05
1.84736e-05
3.01757e-05
3.05653e-05
3.09096e-05
1.94856e-05
1.89057e-05
1.97431e-05
1.97709e-05
3.0221e-05
3.12516e-05
1.94731e-05
1.92349e-05
1.97271e-05
2.06934e-05
1.89677e-05
1.97639e-05
2.01623e-05
3.08239e-05
3.15964e-05
1.88185e-05
2.05935e-05
2.01145e-05
3.13133e-05
3.12901e-05
3.32195e-05
1.99917e-05
2.05351e-05
2.26979e-05
2.20316e-05
3.16574e-05
3.26787e-05
1.99627e-05
2.11891e-05
2.27228e-05
2.19505e-05
2.06515e-05
2.20575e-05
2.23578e-05
3.18154e-05
3.24893e-05
2.06691e-05
2.19809e-05
2.2314e-05
3.28286e-05
3.35281e-05
3.37993e-05
2.34573e-05
2.26172e-05
2.43729e-05
2.43475e-05
3.29796e-05
3.38216e-05
2.34829e-05
2.23205e-05
2.43614e-05
2.42733e-05
2.28991e-05
2.43323e-05
2.42889e-05
3.28109e-05
3.38574e-05
2.28531e-05
2.42361e-05
2.41777e-05
3.3842e-05
3.38962e-05
3.46749e-05
2.44505e-05
2.46759e-05
2.54582e-05
2.53765e-05
3.40148e-05
3.47727e-05
2.44329e-05
2.48e-05
2.53617e-05
2.54224e-05
2.45063e-05
2.53347e-05
2.56582e-05
3.40512e-05
3.44595e-05
2.4448e-05
2.53637e-05
2.5666e-05
3.47545e-05
3.50815e-05
3.61251e-05
2.6098e-05
2.59241e-05
2.75799e-05
2.79322e-05
3.51759e-05
3.61737e-05
2.60307e-05
2.56306e-05
2.74898e-05
2.76603e-05
2.61648e-05
2.78972e-05
2.75352e-05
3.47381e-05
3.65072e-05
2.60976e-05
2.76935e-05
2.74299e-05
3.6076e-05
3.63446e-05
3.7141e-05
2.80944e-05
2.83413e-05
2.93675e-05
2.88276e-05
3.62515e-05
3.63644e-05
2.80115e-05
2.84792e-05
2.95436e-05
2.98686e-05
2.81201e-05
2.88091e-05
2.93911e-05
3.68406e-05
3.72212e-05
2.80709e-05
2.97922e-05
2.93612e-05
3.71272e-05
3.73109e-05
3.78866e-05
2.95304e-05
2.89823e-05
3.04378e-05
3.10979e-05
3.66509e-05
3.91039e-05
2.9777e-05
3.001e-05
3.03372e-05
3.02671e-05
2.95227e-05
3.10511e-05
3.0644e-05
3.72922e-05
3.77196e-05
2.95402e-05
3.01903e-05
3.06208e-05
3.79787e-05
3.82121e-05
3.95775e-05
3.11328e-05
3.19849e-05
3.2971e-05
3.30678e-05
3.9487e-05
3.93014e-05
3.08847e-05
3.05034e-05
3.28123e-05
3.28444e-05
3.12128e-05
3.3131e-05
3.27051e-05
3.80075e-05
3.96962e-05
3.11228e-05
3.28838e-05
3.25258e-05
3.94374e-05
3.97226e-05
3.98426e-05
3.32191e-05
3.31094e-05
3.34429e-05
3.31849e-05
3.92866e-05
3.93373e-05
3.317e-05
3.33799e-05
3.35668e-05
3.38866e-05
3.30971e-05
3.32804e-05
3.371e-05
3.99382e-05
4.00993e-05
3.29484e-05
3.38377e-05
3.38331e-05
4.00593e-05
3.99736e-05
4.1397e-05
3.35762e-05
3.328e-05
3.53577e-05
3.5191e-05
3.9647e-05
4.16362e-05
3.38375e-05
3.40017e-05
3.53184e-05
3.51138e-05
3.39542e-05
3.50737e-05
3.50654e-05
4.01752e-05
4.11704e-05
3.40828e-05
3.51015e-05
3.50838e-05
4.11017e-05
4.17237e-05
4.2228e-05
3.59905e-05
3.61151e-05
3.69382e-05
3.74028e-05
4.20681e-05
4.25543e-05
3.57993e-05
3.54097e-05
3.66953e-05
3.66846e-05
3.55263e-05
3.72055e-05
3.69145e-05
4.14209e-05
4.21607e-05
3.54852e-05
3.66311e-05
3.67916e-05
4.23525e-05
4.22974e-05
4.27424e-05
3.70143e-05
3.74997e-05
3.73466e-05
3.76298e-05
4.25924e-05
4.2701e-05
3.6822e-05
3.715e-05
3.75979e-05
3.78547e-05
3.71903e-05
3.74738e-05
3.76359e-05
4.2422e-05
4.29919e-05
3.71333e-05
3.79631e-05
3.77469e-05
4.28919e-05
4.30365e-05
4.41733e-05
3.78244e-05
3.77192e-05
3.93188e-05
3.90759e-05
4.28603e-05
4.41304e-05
3.80667e-05
3.79226e-05
3.91872e-05
3.85914e-05
3.79085e-05
3.91366e-05
3.90739e-05
4.30612e-05
4.36916e-05
3.7982e-05
3.84716e-05
3.88855e-05
4.39035e-05
4.42997e-05
4.45839e-05
3.95325e-05
3.94916e-05
3.99424e-05
3.99542e-05
4.43561e-05
4.46194e-05
3.93634e-05
3.92758e-05
4.00547e-05
4.07722e-05
3.93661e-05
4.00001e-05
4.01606e-05
4.4084e-05
4.52943e-05
3.91688e-05
4.0731e-05
4.02933e-05
4.48806e-05
4.47769e-05
4.57094e-05
4.0288e-05
4.01896e-05
4.14249e-05
4.15047e-05
4.47336e-05
4.58349e-05
4.04275e-05
4.09378e-05
4.1334e-05
4.10427e-05
4.05217e-05
4.14226e-05
4.14493e-05
4.53604e-05
4.51826e-05
4.0715e-05
4.11072e-05
4.1435e-05
4.56454e-05
4.58472e-05
4.61837e-05
4.16438e-05
4.18382e-05
4.21134e-05
4.21783e-05
4.60685e-05
4.6227e-05
4.14925e-05
4.10773e-05
4.20733e-05
4.19875e-05
4.15954e-05
4.22398e-05
4.18249e-05
4.52179e-05
4.62756e-05
4.15017e-05
4.1926e-05
4.1711e-05
4.58896e-05
4.63715e-05
4.72601e-05
4.2389e-05
4.2245e-05
4.33861e-05
4.30555e-05
4.62522e-05
4.6843e-05
4.24108e-05
4.24686e-05
4.34086e-05
4.3616e-05
4.20511e-05
4.29498e-05
4.35671e-05
4.65982e-05
4.74295e-05
4.20207e-05
4.36006e-05
4.36512e-05
4.75418e-05
4.7396e-05
4.76149e-05
4.36511e-05
4.34051e-05
4.40364e-05
4.40911e-05
4.7129e-05
4.77849e-05
4.36294e-05
4.38341e-05
4.40873e-05
4.40755e-05
4.3935e-05
4.41676e-05
4.43577e-05
4.75456e-05
4.76314e-05
4.39626e-05
4.41558e-05
4.42712e-05
4.77946e-05
4.77153e-05
4.85896e-05
4.41607e-05
4.43208e-05
4.51456e-05
4.54038e-05
4.7913e-05
4.88464e-05
4.42295e-05
4.41302e-05
4.50325e-05
4.49611e-05
4.43891e-05
4.53449e-05
4.48398e-05
4.76747e-05
4.84509e-05
4.4301e-05
4.48517e-05
4.48522e-05
4.83684e-05
4.88353e-05
4.9265e-05
4.55469e-05
4.57438e-05
4.61994e-05
4.62079e-05
4.90653e-05
4.92345e-05
4.54266e-05
4.54232e-05
4.62649e-05
4.63017e-05
4.52807e-05
4.62035e-05
4.6054e-05
4.87645e-05
4.93395e-05
4.52783e-05
4.62878e-05
4.60402e-05
4.90744e-05
4.9303e-05
4.95018e-05
4.62576e-05
4.62355e-05
4.64601e-05
4.63416e-05
4.92471e-05
4.93025e-05
4.63607e-05
4.63914e-05
4.64909e-05
4.65042e-05
4.61339e-05
4.63194e-05
4.66045e-05
4.93629e-05
4.94221e-05
4.61183e-05
4.65112e-05
4.66035e-05
4.97935e-05
4.9713e-05
5.07295e-05
4.67607e-05
4.65534e-05
4.79112e-05
4.74656e-05
4.9476e-05
5.0276e-05
4.66107e-05
4.66007e-05
4.77837e-05
4.78195e-05
4.7026e-05
4.7506e-05
4.8002e-05
4.96041e-05
5.08471e-05
4.7021e-05
4.78933e-05
4.80284e-05
5.0838e-05
5.08217e-05
5.08113e-05
4.8085e-05
4.76752e-05
4.82595e-05
4.85319e-05
5.042e-05
5.1351e-05
4.8087e-05
4.81641e-05
4.84698e-05
4.8559e-05
4.81141e-05
4.86033e-05
4.82233e-05
5.09812e-05
5.09325e-05
4.81475e-05
4.85105e-05
4.82483e-05
5.05768e-05
5.08528e-05
5.17207e-05
4.83079e-05
4.89909e-05
4.9124e-05
4.98357e-05
5.16731e-05
5.24743e-05
4.85158e-05
4.85964e-05
4.89552e-05
4.87607e-05
4.82674e-05
4.97703e-05
4.89703e-05
5.09512e-05
5.1346e-05
4.82823e-05
4.87261e-05
4.87824e-05
5.16183e-05
5.1965e-05
5.22583e-05
4.95406e-05
4.98474e-05
5.00808e-05
4.94566e-05
5.24726e-05
5.12286e-05
4.92462e-05
4.89791e-05
4.9997e-05
4.99597e-05
4.94029e-05
4.94352e-05
5.01448e-05
5.15538e-05
5.23898e-05
4.9167e-05
4.99759e-05
5.0086e-05
5.2415e-05
5.22801e-05
5.2426e-05
5.01195e-05
4.93858e-05
5.01954e-05
4.95248e-05
5.11968e-05
5.18637e-05
5.01139e-05
5.02215e-05
5.03789e-05
5.08434e-05
5.02489e-05
4.9517e-05
5.04095e-05
5.25324e-05
5.30031e-05
5.02483e-05
5.08711e-05
5.06786e-05
5.2717e-05
5.25468e-05
5.32396e-05
5.02504e-05
4.98973e-05
5.10137e-05
5.14267e-05
5.23029e-05
5.37846e-05
5.05284e-05
5.09243e-05
5.10294e-05
5.09224e-05
5.04815e-05
5.14682e-05
5.08578e-05
5.30476e-05
5.28464e-05
5.07638e-05
5.08999e-05
5.08384e-05
5.29202e-05
5.34337e-05
5.39609e-05
5.1389e-05
5.17182e-05
5.20978e-05
5.22853e-05
5.3908e-05
5.41892e-05
5.12475e-05
5.09127e-05
5.18783e-05
5.11626e-05
5.10127e-05
5.22677e-05
5.18159e-05
5.28537e-05
5.32492e-05
5.08793e-05
5.12361e-05
5.16498e-05
5.37897e-05
5.39822e-05
5.37544e-05
5.21445e-05
5.23731e-05
5.21317e-05
5.2399e-05
5.42549e-05
5.41667e-05
5.19853e-05
5.14527e-05
5.20975e-05
5.25483e-05
5.21285e-05
5.2455e-05
5.25897e-05
5.34338e-05
5.44989e-05
5.1992e-05
5.2506e-05
5.2547e-05
5.43955e-05
5.37706e-05
5.43874e-05
5.21325e-05
5.23443e-05
5.23681e-05
5.22361e-05
5.41459e-05
5.38895e-05
5.21248e-05
5.28615e-05
5.26011e-05
5.31042e-05
5.25994e-05
5.22463e-05
5.25403e-05
5.47635e-05
5.49215e-05
5.25992e-05
5.31336e-05
5.26485e-05
5.42355e-05
5.4602e-05
5.52127e-05
5.26642e-05
5.22451e-05
5.33804e-05
5.2665e-05
5.39118e-05
5.44086e-05
5.28634e-05
5.30617e-05
5.3475e-05
5.28485e-05
5.25385e-05
5.25372e-05
5.27088e-05
5.48399e-05
5.41776e-05
5.26869e-05
5.27807e-05
5.29298e-05
5.45729e-05
5.53872e-05
5.57347e-05
5.36794e-05
5.33183e-05
5.41262e-05
5.46734e-05
5.48627e-05
5.66771e-05
5.36829e-05
5.28655e-05
5.39604e-05
5.38961e-05
5.29302e-05
5.47198e-05
5.42216e-05
5.42024e-05
5.58488e-05
5.29833e-05
5.37576e-05
5.38138e-05
5.58138e-05
5.5708e-05
5.42131e-05
5.41106e-05
5.46829e-05
5.33429e-05
5.34548e-05
5.66915e-05
5.4121e-05
5.39423e-05
5.43007e-05
5.33067e-05
5.44023e-05
5.44436e-05
5.35903e-05
5.43532e-05
5.614e-05
5.59325e-05
5.42295e-05
5.46606e-05
5.44929e-05
5.56715e-05
5.41679e-05
5.57241e-05
5.32059e-05
5.30491e-05
5.35703e-05
5.31966e-05
5.38541e-05
5.48953e-05
5.32151e-05
5.41223e-05
5.36162e-05
5.35274e-05
5.3999e-05
5.3138e-05
5.36244e-05
5.56787e-05
5.45446e-05
5.43766e-05
5.35743e-05
5.38297e-05
5.49013e-05
5.64317e-05
5.84278e-05
5.44886e-05
5.40402e-05
5.65564e-05
5.67332e-05
5.58094e-05
5.88022e-05
5.45316e-05
5.35653e-05
5.65203e-05
5.55058e-05
5.3689e-05
5.65132e-05
5.52476e-05
5.45723e-05
5.73241e-05
5.38379e-05
5.49312e-05
5.47507e-05
5.68227e-05
5.84364e-05
5.63964e-05
5.66301e-05
5.67894e-05
5.58998e-05
5.53731e-05
5.88029e-05
5.55912e-05
5.66057e-05
5.62188e-05
5.59646e-05
5.65439e-05
5.56873e-05
5.54508e-05
5.59666e-05
5.78004e-05
5.79742e-05
5.53496e-05
5.64716e-05
5.60273e-05
5.73354e-05
5.59176e-05
5.41562e-05
5.49836e-05
5.43367e-05
5.34618e-05
5.32835e-05
5.50345e-05
5.38961e-05
5.51091e-05
5.62995e-05
5.35728e-05
5.41944e-05
5.59045e-05
5.35723e-05
5.47252e-05
5.75956e-05
5.49018e-05
5.6006e-05
5.45527e-05
5.50212e-05
5.56643e-05
5.4166e-05
5.70528e-05
5.34319e-05
5.33439e-05
5.48549e-05
5.64604e-05
5.4102e-05
5.90865e-05
5.35242e-05
5.39702e-05
5.46033e-05
5.42821e-05
5.45077e-05
5.64255e-05
5.46754e-05
5.48158e-05
5.60863e-05
5.47144e-05
5.44271e-05
5.47037e-05
5.61213e-05
5.78612e-05
5.98106e-05
5.6329e-05
5.77568e-05
5.83242e-05
5.86742e-05
5.97913e-05
6.01925e-05
5.59739e-05
5.51568e-05
5.81315e-05
5.75766e-05
5.53196e-05
5.85163e-05
5.74844e-05
5.67162e-05
5.9003e-05
5.50407e-05
5.73356e-05
5.71315e-05
5.87946e-05
5.97868e-05
5.73837e-05
5.83319e-05
5.8463e-05
5.68673e-05
5.5265e-05
5.95991e-05
5.51761e-05
5.81765e-05
5.7772e-05
5.72026e-05
5.76127e-05
5.75918e-05
5.5288e-05
5.70555e-05
5.90686e-05
5.8349e-05
5.73297e-05
5.75333e-05
5.71807e-05
5.77526e-05
5.69962e-05
5.58427e-05
5.60123e-05
5.46559e-05
5.49216e-05
5.45041e-05
5.49351e-05
5.58544e-05
5.64223e-05
5.71848e-05
5.51248e-05
5.5544e-05
5.64025e-05
5.45844e-05
5.53314e-05
5.81474e-05
5.63342e-05
5.67892e-05
5.56715e-05
5.56558e-05
5.63659e-05
5.58539e-05
5.71164e-05
5.49136e-05
5.48761e-05
5.58225e-05
5.68969e-05
5.63851e-05
5.84344e-05
5.50485e-05
5.51179e-05
5.53302e-05
5.4779e-05
5.52825e-05
5.68459e-05
5.56547e-05
5.60977e-05
5.55432e-05
5.54843e-05
5.48066e-05
5.54571e-05
5.68361e-05
5.74768e-05
5.84169e-05
5.64215e-05
5.71767e-05
5.72424e-05
5.7327e-05
5.85111e-05
5.82415e-05
5.58937e-05
5.48604e-05
5.72701e-05
5.72291e-05
5.61767e-05
5.72633e-05
5.71363e-05
5.5651e-05
5.88844e-05
5.56151e-05
5.71391e-05
5.70384e-05
5.83171e-05
5.84477e-05
5.84108e-05
5.72922e-05
5.73027e-05
5.73298e-05
5.7297e-05
5.82401e-05
5.84444e-05
5.74642e-05
5.80089e-05
5.75924e-05
5.8581e-05
5.72462e-05
5.73876e-05
5.74482e-05
5.93736e-05
6.0055e-05
5.73442e-05
5.86279e-05
5.76756e-05
5.85526e-05
5.84368e-05
5.83973e-05
5.73589e-05
5.73e-05
5.73555e-05
5.72011e-05
5.84876e-05
5.81139e-05
5.75817e-05
5.85052e-05
5.73213e-05
5.67387e-05
5.74992e-05
5.72845e-05
5.74923e-05
5.98904e-05
5.71719e-05
5.76839e-05
5.68144e-05
5.75411e-05
5.85553e-05
5.8322e-05
5.68634e-05
5.72936e-05
5.69924e-05
5.6231e-05
5.60718e-05
5.79184e-05
5.67311e-05
5.70692e-05
5.61538e-05
5.59893e-05
5.5421e-05
5.74127e-05
5.59738e-05
5.6129e-05
5.68554e-05
5.60856e-05
5.72753e-05
5.53946e-05
5.59679e-05
5.67873e-05
5.67434e-05
5.68781e-05
5.59463e-05
5.59543e-05
5.58353e-05
5.6025e-05
5.67115e-05
5.73108e-05
5.57894e-05
5.54164e-05
5.57822e-05
5.62115e-05
5.57836e-05
5.5933e-05
5.56053e-05
5.61389e-05
5.77701e-05
5.56995e-05
5.61179e-05
5.56078e-05
5.65927e-05
5.72096e-05
5.91849e-05
5.60053e-05
5.63211e-05
5.77175e-05
5.78313e-05
5.76164e-05
5.92781e-05
5.60527e-05
5.69072e-05
5.78207e-05
5.82532e-05
5.5746e-05
5.78697e-05
5.76181e-05
5.82026e-05
5.96981e-05
5.58054e-05
5.83018e-05
5.77066e-05
5.90743e-05
5.93263e-05
5.88744e-05
5.79844e-05
5.80214e-05
5.79623e-05
5.7911e-05
5.93932e-05
5.87535e-05
5.80597e-05
5.83528e-05
5.80214e-05
5.80918e-05
5.79867e-05
5.79897e-05
5.80971e-05
5.97484e-05
5.87342e-05
5.80331e-05
5.8143e-05
5.81186e-05
5.90793e-05
5.85724e-05
5.67437e-05
5.76345e-05
5.74775e-05
5.60015e-05
5.58689e-05
5.84026e-05
5.65991e-05
5.76898e-05
5.75133e-05
5.60302e-05
5.57904e-05
5.79082e-05
5.59307e-05
5.64244e-05
5.83883e-05
5.6487e-05
5.7934e-05
5.58364e-05
5.64747e-05
5.728e-05
5.67004e-05
5.73201e-05
5.58331e-05
5.57138e-05
5.59405e-05
5.57861e-05
5.65733e-05
5.70893e-05
5.58344e-05
5.55526e-05
5.58824e-05
5.55241e-05
5.61238e-05
5.57715e-05
5.57821e-05
5.64049e-05
5.66928e-05
5.61208e-05
5.54748e-05
5.56602e-05
5.67794e-05
5.75387e-05
5.79077e-05
5.62337e-05
5.60289e-05
5.66295e-05
5.65707e-05
5.72629e-05
5.78261e-05
5.6165e-05
5.57663e-05
5.66851e-05
5.7006e-05
5.57827e-05
5.65306e-05
5.6305e-05
5.69678e-05
5.84686e-05
5.5661e-05
5.69864e-05
5.63851e-05
5.77314e-05
5.79218e-05
5.81714e-05
5.66974e-05
5.68407e-05
5.70047e-05
5.73986e-05
5.79822e-05
5.88396e-05
5.67687e-05
5.7242e-05
5.69907e-05
5.74236e-05
5.67538e-05
5.745e-05
5.73668e-05
5.86347e-05
5.88018e-05
5.68978e-05
5.75661e-05
5.74443e-05
5.87835e-05
5.82782e-05
5.82217e-05
5.70868e-05
5.74242e-05
5.70224e-05
5.69532e-05
5.88753e-05
5.76576e-05
5.70516e-05
5.74129e-05
5.69798e-05
5.66264e-05
5.73751e-05
5.68844e-05
5.66997e-05
5.87727e-05
5.74203e-05
5.74376e-05
5.64548e-05
5.65087e-05
5.73949e-05
5.8004e-05
5.6121e-05
5.67736e-05
5.62572e-05
5.5179e-05
5.4928e-05
5.72604e-05
5.58744e-05
5.67365e-05
5.60374e-05
5.51235e-05
5.47571e-05
5.61547e-05
5.49649e-05
5.53025e-05
5.70961e-05
5.56776e-05
5.60299e-05
5.48187e-05
5.52943e-05
5.64252e-05
5.59694e-05
5.4047e-05
5.39259e-05
5.58494e-05
5.39997e-05
5.37577e-05
4.50852e-05
4.49368e-05
4.53199e-05
5.43375e-05
5.56424e-05
5.43367e-05
6.02948e-07
2.3836e-07
3.37846e-07
3.44548e-07
1.10841e-07
2.94658e-07
2.51963e-07
2.07929e-07
9.83515e-08
3.29326e-07
1.89556e-07
7.57122e-07
3.49791e-07
4.34502e-07
3.44743e-07
3.05151e-07
5.28277e-06
2.64681e-07
7.03188e-06
1.36856e-05
2.08784e-05
3.58886e-07
5.37015e-06
3.18383e-07
7.12716e-06
2.64855e-07
2.58536e-07
2.77439e-07
2.61344e-07
2.63684e-07
2.57082e-07
2.7617e-07
1.15325e-07
6.7189e-07
1.93668e-07
2.91636e-07
1.15498e-07
6.49085e-07
1.91625e-07
1.40436e-05
2.1671e-05
9.91002e-08
2.13267e-07
9.06436e-07
3.34804e-07
9.91577e-08
2.1279e-07
8.74824e-07
1.93135e-06
1.9259e-06
3.32619e-07
1.90799e-06
1.89153e-06
5.0106e-07
1.02979e-05
4.11595e-07
1.30704e-05
3.61215e-05
4.60837e-05
5.5019e-07
1.03976e-05
4.63024e-07
1.31751e-05
2.63078e-07
2.56114e-07
2.75747e-07
2.57591e-07
2.61368e-07
2.52724e-07
2.74636e-07