/*--------------------------------*- C++ -*----------------------------------*\
| =========                 |                                                 |
| \\      /  F ield         | OpenFOAM: The Open Source CFD Toolbox           |
|  \\    /   O peration     | Version:  v2006                                 |
|   \\  /    A nd           | Website:  www.openfoam.com                      |
|    \\/     M anipulation  |                                                 |
\*---------------------------------------------------------------------------*/
FoamFile
{
    version     2.0;
    format      ascii;
    class       volScalarField;
    location    "375";
    object      epsilon;
}
// * * * * * * * * * * * * * * * * * * * * * * * * * * * * * * * * * * * * * //

dimensions      [0 2 -3 0 0 0 0];


internalField   nonuniform List<scalar> 
171728
(
4.95567e-07
4.97331e-07
4.97331e-07
4.99575e-07
4.45573e-07
4.53736e-07
4.53738e-07
4.63711e-07
4.03752e-07
4.18514e-07
4.18515e-07
4.39411e-07
3.68363e-07
3.88554e-07
3.88556e-07
4.1767e-07
3.38014e-07
3.62105e-07
3.62108e-07
3.96085e-07
3.11645e-07
3.38275e-07
3.38278e-07
3.74584e-07
2.88472e-07
3.1664e-07
3.16643e-07
3.53713e-07
2.67922e-07
2.97024e-07
2.97027e-07
3.34151e-07
2.49579e-07
2.79373e-07
2.79375e-07
3.16488e-07
2.33136e-07
2.63681e-07
2.63684e-07
3.01165e-07
2.18365e-07
2.49957e-07
2.4996e-07
2.88497e-07
2.05089e-07
2.38201e-07
2.38205e-07
2.787e-07
1.93171e-07
2.28413e-07
2.28418e-07
2.71882e-07
1.82497e-07
2.20601e-07
2.20608e-07
2.68169e-07
1.72978e-07
2.14773e-07
2.14782e-07
2.67647e-07
1.6454e-07
2.10941e-07
2.10948e-07
2.70497e-07
1.5712e-07
2.09115e-07
2.09118e-07
2.767e-07
1.50666e-07
2.09306e-07
2.0931e-07
2.86285e-07
1.45134e-07
2.11565e-07
2.11566e-07
2.99235e-07
1.40489e-07
2.15906e-07
2.15905e-07
3.15616e-07
1.367e-07
2.22348e-07
2.22348e-07
3.35376e-07
1.33745e-07
2.30908e-07
2.3091e-07
3.58405e-07
1.31602e-07
2.41574e-07
2.41578e-07
3.84542e-07
1.30255e-07
2.54327e-07
2.54335e-07
4.1354e-07
1.29693e-07
2.69125e-07
2.69133e-07
4.45055e-07
1.29919e-07
2.85897e-07
2.8591e-07
4.78697e-07
1.30907e-07
3.04557e-07
3.04573e-07
5.1405e-07
1.32663e-07
3.25004e-07
3.25026e-07
5.50631e-07
1.35186e-07
3.47119e-07
3.47139e-07
5.88033e-07
1.38475e-07
3.70759e-07
3.70782e-07
6.25819e-07
1.42537e-07
3.95794e-07
3.95824e-07
6.63595e-07
1.47374e-07
4.22034e-07
4.22073e-07
7.01045e-07
1.52988e-07
4.49349e-07
4.49389e-07
7.37916e-07
1.59417e-07
4.77588e-07
4.77596e-07
7.74002e-07
1.66566e-07
5.06438e-07
5.06526e-07
8.08975e-07
1.74619e-07
5.35926e-07
5.36015e-07
8.43003e-07
1.83342e-07
5.65795e-07
5.65703e-07
8.75728e-07
1.92972e-07
5.9563e-07
5.95978e-07
9.0757e-07
2.0332e-07
6.25906e-07
6.25596e-07
9.37547e-07
2.14296e-07
6.55502e-07
6.55898e-07
9.67339e-07
2.26477e-07
6.85452e-07
6.85385e-07
9.94862e-07
2.38752e-07
7.14071e-07
7.14207e-07
1.02196e-06
2.52056e-07
7.43135e-07
7.43133e-07
1.04724e-06
2.66248e-07
7.71205e-07
7.71436e-07
1.07224e-06
2.80382e-07
7.9789e-07
7.97851e-07
1.09554e-06
2.9549e-07
8.24536e-07
8.24695e-07
1.1177e-06
3.11015e-07
8.50025e-07
8.50101e-07
1.13944e-06
3.26888e-07
8.74489e-07
8.74578e-07
1.15953e-06
3.4307e-07
8.98019e-07
8.98127e-07
1.17903e-06
3.59465e-07
9.20534e-07
9.20626e-07
1.19751e-06
3.76003e-07
9.41983e-07
9.42082e-07
1.21501e-06
3.92637e-07
9.62437e-07
9.62542e-07
1.23168e-06
4.09277e-07
9.81909e-07
9.82005e-07
1.24751e-06
4.25808e-07
1.00034e-06
1.00045e-06
1.26248e-06
4.42192e-07
1.01781e-06
1.0179e-06
1.27668e-06
4.58327e-07
1.03427e-06
1.03438e-06
1.29008e-06
4.74173e-07
1.04981e-06
1.0499e-06
1.30277e-06
4.89651e-07
1.06437e-06
1.06449e-06
1.31468e-06
5.04721e-07
1.07808e-06
1.07814e-06
1.32596e-06
5.19328e-07
1.0908e-06
1.09094e-06
1.33645e-06
5.33448e-07
1.1028e-06
1.10285e-06
1.3464e-06
5.47e-07
1.11377e-06
1.11392e-06
1.35558e-06
5.60068e-07
1.12419e-06
1.12425e-06
1.3643e-06
5.72377e-07
1.13351e-06
1.13364e-06
1.37219e-06
5.84336e-07
1.14243e-06
1.1425e-06
1.37979e-06
5.95322e-07
1.15027e-06
1.1504e-06
1.38645e-06
6.06033e-07
1.15765e-06
1.15771e-06
1.39301e-06
6.15868e-07
1.16428e-06
1.16442e-06
1.39852e-06
6.24973e-07
1.16998e-06
1.17003e-06
1.40391e-06
6.34035e-07
1.17587e-06
1.17599e-06
1.40883e-06
6.4122e-07
1.17952e-06
1.17961e-06
1.41237e-06
6.49591e-07
1.18499e-06
1.1851e-06
1.4174e-06
6.5507e-07
1.18675e-06
1.18684e-06
1.41879e-06
6.62367e-07
1.19182e-06
1.19192e-06
1.4241e-06
6.67199e-07
1.19244e-06
1.19257e-06
1.42415e-06
6.71768e-07
1.19539e-06
1.19544e-06
1.42767e-06
6.77109e-07
1.19645e-06
1.19659e-06
1.42862e-06
6.80598e-07
1.198e-06
1.19807e-06
1.43104e-06
6.81981e-07
1.19448e-06
1.19461e-06
1.42681e-06
6.8755e-07
1.20108e-06
1.20114e-06
1.43416e-06
6.91933e-07
1.20331e-06
1.20341e-06
1.44374e-06
6.74123e-07
1.16069e-06
1.16085e-06
1.37614e-06
6.95447e-07
1.21432e-06
1.21441e-06
1.45167e-06
7.30418e-07
1.26036e-06
1.26042e-06
1.5334e-06
6.71049e-07
1.13474e-06
1.13485e-06
1.37274e-06
6.06534e-07
1.05123e-06
1.05135e-06
1.23916e-06
6.42937e-07
1.13552e-06
1.13562e-06
1.35375e-06
7.56479e-07
1.28233e-06
1.28242e-06
1.55146e-06
7.77314e-07
1.29637e-06
1.29646e-06
1.59047e-06
7.00592e-07
1.18367e-06
1.18377e-06
1.45923e-06
6.1874e-07
1.07849e-06
1.07859e-06
1.31312e-06
5.86249e-07
1.03732e-06
1.03742e-06
1.25762e-06
5.84431e-07
1.03568e-06
1.03577e-06
1.26538e-06
5.98185e-07
1.04782e-06
1.0479e-06
1.28777e-06
5.86657e-07
1.00136e-06
1.00141e-06
1.25604e-06
5.06417e-07
5.05584e-07
5.05582e-07
5.06417e-07
5.05583e-07
5.05583e-07
5.09649e-07
5.09649e-07
5.09649e-07
5.09649e-07
5.05584e-07
5.05584e-07
5.06417e-07
5.05584e-07
5.05583e-07
5.06418e-07
4.99575e-07
4.67236e-07
4.97331e-07
4.97335e-07
4.63713e-07
4.63721e-07
4.99575e-07
4.67237e-07
4.97334e-07
4.97335e-07
4.63718e-07
4.63723e-07
4.97332e-07
4.6371e-07
4.63715e-07
4.99575e-07
4.67239e-07
4.97334e-07
4.63711e-07
4.63719e-07
4.67243e-07
4.63708e-07
4.41422e-07
4.53739e-07
4.53748e-07
4.26738e-07
4.26747e-07
4.63709e-07
4.41422e-07
4.53743e-07
4.5375e-07
4.26738e-07
4.26749e-07
4.53743e-07
4.26732e-07
4.26742e-07
4.6371e-07
4.41428e-07
4.53745e-07
4.26734e-07
4.26742e-07
4.41434e-07
4.39404e-07
4.19278e-07
4.18521e-07
4.1853e-07
3.95675e-07
3.95684e-07
4.39408e-07
4.19279e-07
4.18521e-07
4.18533e-07
3.9567e-07
3.95686e-07
4.18526e-07
3.95665e-07
3.9568e-07
4.39409e-07
4.19285e-07
4.18525e-07
3.95668e-07
3.95675e-07
4.19293e-07
4.17658e-07
3.9764e-07
3.88564e-07
3.88573e-07
3.6846e-07
3.68468e-07
4.1766e-07
3.97641e-07
3.88558e-07
3.88576e-07
3.6845e-07
3.6847e-07
3.8857e-07
3.68447e-07
3.68466e-07
4.17664e-07
3.97647e-07
3.88564e-07
3.68449e-07
3.68456e-07
3.97656e-07
3.96071e-07
3.7608e-07
3.62118e-07
3.62126e-07
3.44031e-07
3.44038e-07
3.96074e-07
3.76081e-07
3.62108e-07
3.62129e-07
3.44017e-07
3.44041e-07
3.62124e-07
3.44016e-07
3.44037e-07
3.96078e-07
3.76087e-07
3.62113e-07
3.44018e-07
3.44023e-07
3.76096e-07
3.7457e-07
3.55105e-07
3.38291e-07
3.38298e-07
3.21873e-07
3.21879e-07
3.74573e-07
3.55106e-07
3.38277e-07
3.38301e-07
3.21856e-07
3.21881e-07
3.38297e-07
3.21856e-07
3.21879e-07
3.74577e-07
3.55112e-07
3.38283e-07
3.21858e-07
3.21862e-07
3.55122e-07
3.53699e-07
3.35389e-07
3.16658e-07
3.16664e-07
3.01762e-07
3.01767e-07
3.53701e-07
3.3539e-07
3.16641e-07
3.16666e-07
3.01742e-07
3.01769e-07
3.16664e-07
3.01743e-07
3.01767e-07
3.53705e-07
3.35396e-07
3.16647e-07
3.01745e-07
3.01748e-07
3.35406e-07
3.34137e-07
3.17527e-07
2.97043e-07
2.97048e-07
2.83622e-07
2.83626e-07
3.34139e-07
3.17529e-07
2.97024e-07
2.9705e-07
2.83601e-07
2.83628e-07
2.97048e-07
2.83602e-07
2.83627e-07
3.34143e-07
3.17534e-07
2.97029e-07
2.83604e-07
2.83606e-07
3.17545e-07
3.16473e-07
3.01969e-07
2.79393e-07
2.79397e-07
2.67441e-07
2.67445e-07
3.16476e-07
3.0197e-07
2.79372e-07
2.79399e-07
2.67418e-07
2.67446e-07
2.79398e-07
2.6742e-07
2.67445e-07
3.16479e-07
3.01976e-07
2.79377e-07
2.67422e-07
2.67423e-07
3.01987e-07
3.0115e-07
2.89034e-07
2.63703e-07
2.63707e-07
2.53225e-07
2.5323e-07
3.01153e-07
2.89037e-07
2.6368e-07
2.63708e-07
2.53201e-07
2.53231e-07
2.63707e-07
2.53203e-07
2.5323e-07
3.01156e-07
2.89041e-07
2.63685e-07
2.53206e-07
2.53207e-07
2.89053e-07
2.88481e-07
2.78944e-07
2.4998e-07
2.49985e-07
2.40979e-07
2.40983e-07
2.88484e-07
2.78946e-07
2.49956e-07
2.49986e-07
2.40953e-07
2.40984e-07
2.49985e-07
2.40956e-07
2.40983e-07
2.88486e-07
2.78953e-07
2.49961e-07
2.40958e-07
2.40958e-07
2.78965e-07
2.78683e-07
2.71824e-07
2.38226e-07
2.38231e-07
2.307e-07
2.30705e-07
2.78686e-07
2.71827e-07
2.382e-07
2.38232e-07
2.30673e-07
2.30706e-07
2.3823e-07
2.30675e-07
2.30704e-07
2.7869e-07
2.71832e-07
2.38205e-07
2.30677e-07
2.30678e-07
2.71844e-07
2.71864e-07
2.67855e-07
2.28441e-07
2.28446e-07
2.22396e-07
2.22403e-07
2.71868e-07
2.67859e-07
2.28413e-07
2.28448e-07
2.22368e-07
2.22404e-07
2.28445e-07
2.22371e-07
2.22401e-07
2.7187e-07
2.67864e-07
2.28419e-07
2.22372e-07
2.22373e-07
2.67879e-07
2.68148e-07
2.66971e-07
2.20633e-07
2.2064e-07
2.16074e-07
2.16082e-07
2.68154e-07
2.66976e-07
2.20603e-07
2.20641e-07
2.16043e-07
2.16084e-07
2.20638e-07
2.16046e-07
2.16079e-07
2.68156e-07
2.66982e-07
2.20609e-07
2.16046e-07
2.16049e-07
2.66997e-07
2.67623e-07
2.69141e-07
2.1481e-07
2.14818e-07
2.11742e-07
2.11754e-07
2.6763e-07
2.69149e-07
2.14778e-07
2.1482e-07
2.11709e-07
2.11756e-07
2.14815e-07
2.11711e-07
2.11749e-07
2.67632e-07
2.69152e-07
2.14784e-07
2.11711e-07
2.11716e-07
2.69172e-07
2.70472e-07
2.74649e-07
2.10978e-07
2.10991e-07
2.09409e-07
2.09425e-07
2.7048e-07
2.74657e-07
2.10945e-07
2.10993e-07
2.09374e-07
2.09428e-07
2.10985e-07
2.09374e-07
2.09418e-07
2.70478e-07
2.74661e-07
2.10952e-07
2.09375e-07
2.09383e-07
2.74681e-07
2.76671e-07
2.83529e-07
2.09153e-07
2.0917e-07
2.09121e-07
2.09142e-07
2.76679e-07
2.83538e-07
2.09118e-07
2.09172e-07
2.09086e-07
2.09145e-07
2.09162e-07
2.09083e-07
2.09132e-07
2.76683e-07
2.83547e-07
2.09127e-07
2.09085e-07
2.09096e-07
2.83569e-07
2.86255e-07
2.95797e-07
2.09348e-07
2.09371e-07
2.10842e-07
2.10867e-07
2.86264e-07
2.95808e-07
2.09312e-07
2.09373e-07
2.10805e-07
2.10871e-07
2.09359e-07
2.10799e-07
2.10855e-07
2.86266e-07
2.95809e-07
2.09322e-07
2.10801e-07
2.10816e-07
2.95839e-07
2.99206e-07
3.11485e-07
2.11609e-07
2.11636e-07
2.14663e-07
2.14695e-07
2.99219e-07
3.11499e-07
2.1157e-07
2.11639e-07
2.14625e-07
2.14699e-07
2.11622e-07
2.14619e-07
2.14679e-07
2.99206e-07
3.11494e-07
2.11583e-07
2.14618e-07
2.14637e-07
3.11528e-07
3.15576e-07
3.30543e-07
2.15953e-07
2.15987e-07
2.20588e-07
2.20625e-07
3.15595e-07
3.30562e-07
2.15912e-07
2.15988e-07
2.20545e-07
2.20628e-07
2.15967e-07
2.20538e-07
2.20605e-07
3.15586e-07
3.30559e-07
2.15925e-07
2.20537e-07
2.2056e-07
3.30599e-07
3.35318e-07
3.52886e-07
2.22401e-07
2.22438e-07
2.28631e-07
2.2867e-07
3.35342e-07
3.52908e-07
2.22354e-07
2.22441e-07
2.28579e-07
2.28674e-07
2.22417e-07
2.28571e-07
2.28646e-07
3.35339e-07
3.52919e-07
2.22371e-07
2.28572e-07
2.28598e-07
3.5296e-07
3.58336e-07
3.78369e-07
2.30972e-07
2.3101e-07
2.38783e-07
2.38822e-07
3.58363e-07
3.78385e-07
2.30916e-07
2.31014e-07
2.38722e-07
2.38829e-07
2.30986e-07
2.38711e-07
2.38798e-07
3.58367e-07
3.78404e-07
2.30937e-07
2.38716e-07
2.38745e-07
3.78453e-07
3.84465e-07
4.06747e-07
2.4165e-07
2.41688e-07
2.51027e-07
2.51068e-07
3.84489e-07
4.06767e-07
2.41585e-07
2.41693e-07
2.50958e-07
2.51078e-07
2.41663e-07
2.50946e-07
2.51044e-07
3.84492e-07
4.06793e-07
2.41609e-07
2.50954e-07
2.50986e-07
4.06847e-07
4.13445e-07
4.37709e-07
2.54413e-07
2.54453e-07
2.65327e-07
2.65371e-07
4.13476e-07
4.37738e-07
2.54339e-07
2.54461e-07
2.65249e-07
2.65382e-07
2.54428e-07
2.65237e-07
2.65345e-07
4.13489e-07
4.37759e-07
2.54368e-07
2.65246e-07
2.65281e-07
4.37823e-07
4.44949e-07
4.70874e-07
2.69218e-07
2.69263e-07
2.81621e-07
2.81669e-07
4.44989e-07
4.70913e-07
2.69135e-07
2.6927e-07
2.81535e-07
2.81682e-07
2.69235e-07
2.81524e-07
2.81641e-07
4.44997e-07
4.70935e-07
2.69168e-07
2.81536e-07
2.81569e-07
4.70995e-07
4.78587e-07
5.05826e-07
2.86001e-07
2.86046e-07
2.99833e-07
2.99878e-07
4.78628e-07
5.05847e-07
2.85909e-07
2.86057e-07
2.99738e-07
2.99893e-07
2.86017e-07
2.99721e-07
2.99854e-07
4.78647e-07
5.05876e-07
2.85943e-07
2.99737e-07
2.99774e-07
5.05954e-07
5.13933e-07
5.42086e-07
3.04674e-07
3.04716e-07
3.19852e-07
3.19901e-07
5.13955e-07
5.42133e-07
3.04573e-07
3.0473e-07
3.19747e-07
3.19914e-07
3.04692e-07
3.19735e-07
3.19873e-07
5.13987e-07
5.42132e-07
3.0461e-07
3.19748e-07
3.19784e-07
5.4222e-07
5.50508e-07
5.79248e-07
3.25132e-07
3.25174e-07
3.4157e-07
3.41618e-07
5.5055e-07
5.79296e-07
3.2502e-07
3.25192e-07
3.41456e-07
3.41636e-07
3.2515e-07
3.41443e-07
3.41595e-07
5.50558e-07
5.79318e-07
3.25059e-07
3.41461e-07
3.41496e-07
5.79398e-07
5.87893e-07
6.16871e-07
3.47256e-07
3.47297e-07
3.6485e-07
3.64899e-07
5.87949e-07
6.16914e-07
3.47135e-07
3.47314e-07
3.64726e-07
3.64924e-07
3.47277e-07
3.64716e-07
3.64881e-07
5.87952e-07
6.16953e-07
3.47176e-07
3.64741e-07
3.64773e-07
6.17039e-07
6.25651e-07
6.54575e-07
3.70901e-07
3.70944e-07
3.89551e-07
3.89599e-07
6.25715e-07
6.54617e-07
3.70768e-07
3.70963e-07
3.89417e-07
3.89631e-07
3.70928e-07
3.8941e-07
3.89588e-07
6.25745e-07
6.54637e-07
3.70817e-07
3.89443e-07
3.89469e-07
6.54736e-07
6.63425e-07
6.92047e-07
3.95937e-07
3.95985e-07
4.1552e-07
4.1557e-07
6.63502e-07
6.92067e-07
3.95794e-07
3.96011e-07
4.15375e-07
4.15586e-07
3.95969e-07
4.15376e-07
4.15558e-07
6.63526e-07
6.92063e-07
3.95848e-07
4.15394e-07
4.15427e-07
6.9219e-07
7.00903e-07
7.28954e-07
4.22194e-07
4.22229e-07
4.42606e-07
4.4262e-07
7.00946e-07
7.2892e-07
4.2204e-07
4.22264e-07
4.42451e-07
4.42672e-07
4.22237e-07
4.42423e-07
4.42632e-07
7.00933e-07
7.29027e-07
4.22103e-07
4.42477e-07
4.42492e-07
7.2912e-07
7.37792e-07
7.65059e-07
4.49512e-07
4.49547e-07
4.7063e-07
4.70663e-07
7.3779e-07
7.65103e-07
4.4935e-07
4.49581e-07
4.70465e-07
4.70671e-07
4.49542e-07
4.70463e-07
4.70654e-07
7.37833e-07
7.65127e-07
4.49398e-07
4.70472e-07
4.70502e-07
7.65247e-07
7.73812e-07
8.0022e-07
4.77782e-07
4.7779e-07
4.99288e-07
4.99339e-07
7.73848e-07
8.00262e-07
4.77608e-07
4.77792e-07
4.99117e-07
4.99428e-07
4.77786e-07
4.99143e-07
4.99395e-07
7.73875e-07
8.00303e-07
4.77631e-07
4.99233e-07
4.99234e-07
8.00393e-07
8.08784e-07
8.34462e-07
5.06564e-07
5.06635e-07
5.28816e-07
5.28769e-07
8.08852e-07
8.34434e-07
5.06385e-07
5.06717e-07
5.28635e-07
5.28798e-07
5.06671e-07
5.28569e-07
5.28761e-07
8.08922e-07
8.3448e-07
5.06507e-07
5.28598e-07
5.2859e-07
8.34592e-07
8.42925e-07
8.67297e-07
5.36218e-07
5.36123e-07
5.58295e-07
5.58402e-07
8.42876e-07
8.6733e-07
5.36032e-07
5.36207e-07
5.58107e-07
5.58426e-07
5.36211e-07
5.58212e-07
5.58439e-07
8.42875e-07
8.67462e-07
5.3604e-07
5.58238e-07
5.58257e-07
8.67562e-07
8.75446e-07
8.99468e-07
5.65822e-07
5.6599e-07
5.88587e-07
5.88464e-07
8.75585e-07
8.99373e-07
5.6562e-07
5.65892e-07
5.88396e-07
5.88651e-07
5.65835e-07
5.88275e-07
5.88622e-07
8.75649e-07
8.99435e-07
5.65645e-07
5.88465e-07
5.88438e-07
8.99506e-07
9.07511e-07
9.2982e-07
5.96037e-07
5.95805e-07
6.18414e-07
6.18392e-07
9.07282e-07
9.29769e-07
5.9585e-07
5.96149e-07
6.18213e-07
6.18306e-07
5.96272e-07
6.18201e-07
6.18266e-07
9.07479e-07
9.29796e-07
5.96098e-07
6.18118e-07
6.1807e-07
9.29986e-07
9.37534e-07
9.59264e-07
6.25977e-07
6.26111e-07
6.48242e-07
6.48465e-07
9.37666e-07
9.59642e-07
6.25757e-07
6.25798e-07
6.48039e-07
6.48582e-07
6.25533e-07
6.48298e-07
6.48682e-07
9.37479e-07
9.59511e-07
6.25322e-07
6.48417e-07
6.4848e-07
9.59501e-07
9.6673e-07
9.87688e-07
6.55552e-07
6.55635e-07
6.78225e-07
6.78001e-07
9.67028e-07
9.87344e-07
6.55356e-07
6.56028e-07
6.78027e-07
6.78127e-07
6.56439e-07
6.77824e-07
6.77973e-07
9.67154e-07
9.87767e-07
6.56254e-07
6.7796e-07
6.7778e-07
9.87973e-07
9.95198e-07
1.01489e-06
6.85885e-07
6.85661e-07
7.0741e-07
7.07318e-07
9.94825e-07
1.01486e-06
6.8567e-07
6.85586e-07
7.07202e-07
7.07406e-07
6.8503e-07
7.07145e-07
7.07515e-07
9.94972e-07
1.01472e-06
6.84825e-07
7.07229e-07
7.07312e-07
1.01461e-06
1.02159e-06
1.03993e-06
7.14215e-07
7.142e-07
7.35661e-07
7.35818e-07
1.02163e-06
1.04015e-06
7.14006e-07
7.14334e-07
7.35449e-07
7.35764e-07
7.14981e-07
7.35699e-07
7.35936e-07
1.02165e-06
1.04015e-06
7.14782e-07
7.35649e-07
7.35726e-07
1.04072e-06
1.04707e-06
1.06618e-06
7.43184e-07
7.43289e-07
7.64808e-07
7.64668e-07
1.04728e-06
1.06604e-06
7.4297e-07
7.43281e-07
7.64616e-07
7.64945e-07
7.42838e-07
7.6449e-07
7.64385e-07
1.04721e-06
1.06633e-06
7.42627e-07
7.64766e-07
7.64192e-07
1.06541e-06
1.07262e-06
1.0886e-06
7.71496e-07
7.71354e-07
7.91305e-07
7.91252e-07
1.07244e-06
1.08859e-06
7.71301e-07
7.71582e-07
7.91096e-07
7.91211e-07
7.71532e-07
7.91159e-07
7.91779e-07
1.07275e-06
1.08851e-06
7.71339e-07
7.91114e-07
7.91568e-07
1.08942e-06
1.09492e-06
1.11166e-06
7.98047e-07
7.97993e-07
8.1817e-07
8.18111e-07
1.09493e-06
1.11163e-06
7.97832e-07
7.97954e-07
8.1797e-07
8.18254e-07
7.9829e-07
8.17979e-07
8.18031e-07
1.09479e-06
1.11176e-06
7.98077e-07
8.18117e-07
8.1783e-07
1.11149e-06
1.11784e-06
1.1332e-06
8.247e-07
8.24663e-07
8.43861e-07
8.43845e-07
1.11782e-06
1.13327e-06
8.24499e-07
8.24823e-07
8.43662e-07
8.4395e-07
8.24657e-07
8.4375e-07
8.44068e-07
1.11798e-06
1.13336e-06
8.24459e-07
8.43847e-07
8.43867e-07
1.13356e-06
1.13911e-06
1.15386e-06
8.50152e-07
8.50116e-07
8.68645e-07
8.68562e-07
1.13917e-06
1.15383e-06
8.49947e-07
8.50198e-07
8.68443e-07
8.68648e-07
8.50323e-07
8.68466e-07
8.68621e-07
1.13922e-06
1.15388e-06
8.50121e-07
8.68542e-07
8.68418e-07
1.15388e-06
1.15956e-06
1.17346e-06
8.74671e-07
8.74585e-07
8.92409e-07
8.92309e-07
1.15952e-06
1.17342e-06
8.74466e-07
8.74681e-07
8.9221e-07
8.92435e-07
8.74624e-07
8.92226e-07
8.92418e-07
1.15957e-06
1.17353e-06
8.74423e-07
8.92338e-07
8.92219e-07
1.17351e-06
1.17896e-06
1.19212e-06
8.982e-07
8.98096e-07
9.15161e-07
9.15074e-07
1.17892e-06
1.19209e-06
8.97998e-07
8.98215e-07
9.14961e-07
9.15185e-07
8.98233e-07
9.15007e-07
9.1522e-07
1.17902e-06
1.19218e-06
8.98035e-07
9.15101e-07
9.15022e-07
1.19225e-06
1.1974e-06
1.20981e-06
9.20679e-07
9.20599e-07
9.36861e-07
9.36774e-07
1.19739e-06
1.2098e-06
9.20474e-07
9.20705e-07
9.36661e-07
9.36891e-07
9.20735e-07
9.36716e-07
9.36909e-07
1.19746e-06
1.20989e-06
9.20537e-07
9.36814e-07
9.36713e-07
1.20992e-06
1.21491e-06
1.22666e-06
9.42133e-07
9.42039e-07
9.57572e-07
9.57463e-07
1.21489e-06
1.22663e-06
9.4193e-07
9.42155e-07
9.57372e-07
9.57589e-07
9.4218e-07
9.57414e-07
9.57611e-07
1.21498e-06
1.22673e-06
9.41984e-07
9.57517e-07
9.57416e-07
1.22678e-06
1.23158e-06
1.24267e-06
9.62592e-07
9.62485e-07
9.77287e-07
9.77182e-07
1.23155e-06
1.24265e-06
9.62389e-07
9.62608e-07
9.77086e-07
9.77304e-07
9.62631e-07
9.77141e-07
9.77327e-07
1.23164e-06
1.24275e-06
9.62436e-07
9.77239e-07
9.77132e-07
1.24278e-06
1.24741e-06
1.25783e-06
9.82057e-07
9.8195e-07
9.95974e-07
9.95859e-07
1.24739e-06
1.2578e-06
9.81852e-07
9.82066e-07
9.95774e-07
9.9599e-07
9.82095e-07
9.95826e-07
9.96009e-07
1.24748e-06
1.2579e-06
9.819e-07
9.95932e-07
9.95816e-07
1.25793e-06
1.26239e-06
1.27218e-06
1.00049e-06
1.00037e-06
1.01368e-06
1.01357e-06
1.26237e-06
1.27216e-06
1.00029e-06
1.0005e-06
1.01348e-06
1.01368e-06
1.00053e-06
1.01354e-06
1.01372e-06
1.26246e-06
1.27225e-06
1.00033e-06
1.01363e-06
1.01352e-06
1.2723e-06
1.27659e-06
1.28576e-06
1.01795e-06
1.01783e-06
1.03039e-06
1.03026e-06
1.27657e-06
1.28573e-06
1.01775e-06
1.01795e-06
1.03019e-06
1.03041e-06
1.01799e-06
1.03024e-06
1.03041e-06
1.27665e-06
1.28583e-06
1.01779e-06
1.03036e-06
1.03022e-06
1.28586e-06
1.29e-06
1.29859e-06
1.03442e-06
1.03429e-06
1.04615e-06
1.04604e-06
1.28997e-06
1.29857e-06
1.03421e-06
1.03443e-06
1.04595e-06
1.04614e-06
1.03444e-06
1.04602e-06
1.0462e-06
1.29007e-06
1.29864e-06
1.03425e-06
1.04609e-06
1.046e-06
1.2987e-06
1.30268e-06
1.31067e-06
1.04995e-06
1.04982e-06
1.06096e-06
1.06082e-06
1.30266e-06
1.31063e-06
1.04974e-06
1.04993e-06
1.06076e-06
1.06099e-06
1.04999e-06
1.0608e-06
1.06097e-06
1.30272e-06
1.31076e-06
1.0498e-06
1.06094e-06
1.06078e-06
1.31076e-06
1.31461e-06
1.32206e-06
1.06452e-06
1.06438e-06
1.07487e-06
1.07476e-06
1.31457e-06
1.32206e-06
1.06432e-06
1.06453e-06
1.07466e-06
1.07483e-06
1.06452e-06
1.07475e-06
1.07491e-06
1.31469e-06
1.3221e-06
1.06433e-06
1.0748e-06
1.07471e-06
1.32216e-06
1.32585e-06
1.33274e-06
1.0782e-06
1.07808e-06
1.08785e-06
1.08769e-06
1.32585e-06
1.33268e-06
1.07799e-06
1.07817e-06
1.08766e-06
1.08788e-06
1.07825e-06
1.08768e-06
1.08785e-06
1.32588e-06
1.33283e-06
1.07806e-06
1.08784e-06
1.08767e-06
1.33283e-06
1.33639e-06
1.34279e-06
1.09097e-06
1.09081e-06
1.10001e-06
1.09991e-06
1.33633e-06
1.34279e-06
1.09077e-06
1.09098e-06
1.0998e-06
1.09997e-06
1.09095e-06
1.09991e-06
1.10004e-06
1.33649e-06
1.34282e-06
1.09077e-06
1.09994e-06
1.09985e-06
1.34287e-06
1.34631e-06
1.3521e-06
1.1029e-06
1.1028e-06
1.11124e-06
1.11108e-06
1.34632e-06
1.35207e-06
1.10269e-06
1.10287e-06
1.11105e-06
1.11127e-06
1.10295e-06
1.11108e-06
1.11126e-06
1.34633e-06
1.35221e-06
1.10276e-06
1.11124e-06
1.11108e-06
1.35221e-06
1.3555e-06
1.36095e-06
1.11394e-06
1.11377e-06
1.12181e-06
1.12169e-06
1.35545e-06
1.36092e-06
1.11375e-06
1.11395e-06
1.12161e-06
1.12177e-06
1.11394e-06
1.12169e-06
1.12183e-06
1.3556e-06
1.36096e-06
1.11376e-06
1.12174e-06
1.12163e-06
1.36102e-06
1.36422e-06
1.36897e-06
1.1243e-06
1.12419e-06
1.13135e-06
1.13121e-06
1.36422e-06
1.36896e-06
1.12409e-06
1.12427e-06
1.13116e-06
1.13137e-06
1.12433e-06
1.13121e-06
1.13137e-06
1.36424e-06
1.36908e-06
1.12414e-06
1.13134e-06
1.13119e-06
1.36907e-06
1.37211e-06
1.37668e-06
1.13366e-06
1.13351e-06
1.14048e-06
1.14036e-06
1.37208e-06
1.37665e-06
1.13347e-06
1.13367e-06
1.14028e-06
1.14045e-06
1.13367e-06
1.14036e-06
1.14049e-06
1.37221e-06
1.37672e-06
1.13349e-06
1.14043e-06
1.1403e-06
1.37676e-06
1.37972e-06
1.38342e-06
1.14255e-06
1.14242e-06
1.14835e-06
1.14821e-06
1.37971e-06
1.38338e-06
1.14235e-06
1.14252e-06
1.14817e-06
1.14837e-06
1.14255e-06
1.14821e-06
1.14839e-06
1.37975e-06
1.3835e-06
1.14237e-06
1.14835e-06
1.14821e-06
1.38352e-06
1.38636e-06
1.3902e-06
1.1504e-06
1.15026e-06
1.1562e-06
1.15609e-06
1.38631e-06
1.39021e-06
1.15021e-06
1.15041e-06
1.156e-06
1.15617e-06
1.15045e-06
1.15609e-06
1.15619e-06
1.38644e-06
1.39025e-06
1.15027e-06
1.15614e-06
1.156e-06
1.39027e-06
1.39297e-06
1.39561e-06
1.15777e-06
1.15766e-06
1.16259e-06
1.16245e-06
1.39297e-06
1.39557e-06
1.15757e-06
1.15773e-06
1.16241e-06
1.16261e-06
1.15775e-06
1.16246e-06
1.16264e-06
1.393e-06
1.39569e-06
1.15756e-06
1.1626e-06
1.16247e-06
1.39571e-06
1.39841e-06
1.4014e-06
1.16441e-06
1.16426e-06
1.1689e-06
1.16876e-06
1.39836e-06
1.40137e-06
1.16423e-06
1.16443e-06
1.1687e-06
1.16887e-06
1.16447e-06
1.16876e-06
1.16888e-06
1.39849e-06
1.40145e-06
1.1643e-06
1.16885e-06
1.1687e-06
1.40147e-06
1.40387e-06
1.40604e-06
1.17008e-06
1.16997e-06
1.17456e-06
1.17444e-06
1.40386e-06
1.40605e-06
1.16988e-06
1.17004e-06
1.17437e-06
1.17455e-06
1.17008e-06
1.17445e-06
1.17459e-06
1.4039e-06
1.4061e-06
1.16989e-06
1.17453e-06
1.17441e-06
1.40614e-06
1.40873e-06
1.4101e-06
1.17602e-06
1.17587e-06
1.17863e-06
1.17849e-06
1.40872e-06
1.41003e-06
1.17583e-06
1.17601e-06
1.17845e-06
1.17864e-06
1.17602e-06
1.1785e-06
1.17864e-06
1.4088e-06
1.41017e-06
1.17584e-06
1.17862e-06
1.17846e-06
1.41015e-06
1.4123e-06
1.41474e-06
1.1796e-06
1.1795e-06
1.18406e-06
1.18394e-06
1.41226e-06
1.41476e-06
1.17941e-06
1.1796e-06
1.18387e-06
1.18404e-06
1.17966e-06
1.18395e-06
1.18409e-06
1.41236e-06
1.4148e-06
1.17948e-06
1.18403e-06
1.18391e-06
1.41488e-06
1.41734e-06
1.41693e-06
1.18517e-06
1.18501e-06
1.18633e-06
1.18616e-06
1.41731e-06
1.41682e-06
1.18499e-06
1.18514e-06
1.18615e-06
1.1863e-06
1.18513e-06
1.18616e-06
1.18628e-06
1.41738e-06
1.41695e-06
1.18496e-06
1.18627e-06
1.18611e-06
1.4169e-06
1.41875e-06
1.42124e-06
1.18684e-06
1.18673e-06
1.19074e-06
1.19067e-06
1.41871e-06
1.42135e-06
1.18665e-06
1.18684e-06
1.19055e-06
1.19075e-06
1.18687e-06
1.19071e-06
1.19084e-06
1.4188e-06
1.42137e-06
1.1867e-06
1.19077e-06
1.19066e-06
1.42146e-06
1.42397e-06
1.42276e-06
1.19195e-06
1.19181e-06
1.19272e-06
1.19251e-06
1.42401e-06
1.42253e-06
1.19176e-06
1.19193e-06
1.19255e-06
1.19268e-06
1.19196e-06
1.19249e-06
1.19264e-06
1.42406e-06
1.42272e-06
1.19179e-06
1.19263e-06
1.19248e-06
1.42267e-06
1.42422e-06
1.42463e-06
1.19263e-06
1.19245e-06
1.19416e-06
1.19414e-06
1.42402e-06
1.42479e-06
1.19246e-06
1.1926e-06
1.19396e-06
1.19419e-06
1.19259e-06
1.1942e-06
1.1943e-06
1.42419e-06
1.42479e-06
1.19242e-06
1.19423e-06
1.19412e-06
1.42489e-06
1.42746e-06
1.42743e-06
1.19539e-06
1.19535e-06
1.19678e-06
1.19661e-06
1.42763e-06
1.42719e-06
1.1952e-06
1.19542e-06
1.1966e-06
1.19675e-06
1.19549e-06
1.1966e-06
1.1967e-06
1.42762e-06
1.42738e-06
1.19531e-06
1.19672e-06
1.19654e-06
1.42724e-06
1.42882e-06
1.42804e-06
1.19666e-06
1.19647e-06
1.19742e-06
1.19731e-06
1.42858e-06
1.42806e-06
1.19649e-06
1.19662e-06
1.19724e-06
1.19741e-06
1.19659e-06
1.19733e-06
1.19754e-06
1.42876e-06
1.42811e-06
1.19642e-06
1.19741e-06
1.19737e-06
1.42833e-06
1.43071e-06
1.42604e-06
1.19806e-06
1.19797e-06
1.19642e-06
1.19628e-06
1.43079e-06
1.42599e-06
1.19788e-06
1.19807e-06
1.19624e-06
1.19642e-06
1.19818e-06
1.19629e-06
1.19636e-06
1.43081e-06
1.42612e-06
1.19801e-06
1.19641e-06
1.1962e-06
1.42598e-06
1.42692e-06
1.42723e-06
1.19462e-06
1.19447e-06
1.19584e-06
1.19574e-06
1.42684e-06
1.42721e-06
1.19445e-06
1.19462e-06
1.19567e-06
1.19584e-06
1.19455e-06
1.19575e-06
1.19589e-06
1.42698e-06
1.42729e-06
1.19438e-06
1.19584e-06
1.19572e-06
1.42734e-06
1.43392e-06
1.44517e-06
1.20113e-06
1.20107e-06
1.20759e-06
1.2075e-06
1.43398e-06
1.44517e-06
1.20095e-06
1.20113e-06
1.20741e-06
1.20757e-06
1.20127e-06
1.20749e-06
1.20765e-06
1.434e-06
1.44522e-06
1.2011e-06
1.20756e-06
1.20749e-06
1.4453e-06
1.44369e-06
1.37711e-06
1.20346e-06
1.20333e-06
1.1656e-06
1.16544e-06
1.44365e-06
1.37698e-06
1.20329e-06
1.20344e-06
1.16544e-06
1.1656e-06
1.20344e-06
1.16542e-06
1.16549e-06
1.44371e-06
1.37715e-06
1.20328e-06
1.16558e-06
1.16535e-06
1.37699e-06
1.37625e-06
1.42355e-06
1.16085e-06
1.16071e-06
1.18713e-06
1.18706e-06
1.37614e-06
1.42359e-06
1.16069e-06
1.16086e-06
1.18693e-06
1.18716e-06
1.16076e-06
1.18704e-06
1.18717e-06
1.3763e-06
1.42369e-06
1.16063e-06
1.18716e-06
1.187e-06
1.42366e-06
1.45153e-06
1.53146e-06
1.21442e-06
1.21435e-06
1.26157e-06
1.26151e-06
1.45159e-06
1.53149e-06
1.21421e-06
1.21443e-06
1.26138e-06
1.26158e-06
1.21449e-06
1.2615e-06
1.26175e-06
1.45166e-06
1.53152e-06
1.2143e-06
1.26155e-06
1.26154e-06
1.5318e-06
1.53307e-06
1.39475e-06
1.26043e-06
1.26036e-06
1.17525e-06
1.17519e-06
1.5331e-06
1.39481e-06
1.26024e-06
1.26044e-06
1.17514e-06
1.17529e-06
1.26061e-06
1.17522e-06
1.17536e-06
1.53312e-06
1.39488e-06
1.26041e-06
1.17532e-06
1.17524e-06
1.395e-06
1.37254e-06
1.2405e-06
1.13476e-06
1.13469e-06
1.05599e-06
1.05586e-06
1.37261e-06
1.24043e-06
1.13465e-06
1.13479e-06
1.05585e-06
1.05597e-06
1.1348e-06
1.05586e-06
1.05588e-06
1.37265e-06
1.24055e-06
1.1347e-06
1.05599e-06
1.05577e-06
1.24035e-06
1.23934e-06
1.31673e-06
1.05137e-06
1.05124e-06
1.09626e-06
1.0961e-06
1.23926e-06
1.31658e-06
1.05122e-06
1.05134e-06
1.09604e-06
1.09621e-06
1.05125e-06
1.09603e-06
1.09621e-06
1.23937e-06
1.31669e-06
1.05113e-06
1.09614e-06
1.09599e-06
1.31668e-06
1.35376e-06
1.52515e-06
1.13576e-06
1.13561e-06
1.25765e-06
1.25755e-06
1.35363e-06
1.52512e-06
1.13553e-06
1.13571e-06
1.25743e-06
1.25765e-06
1.13575e-06
1.25748e-06
1.25772e-06
1.35373e-06
1.5252e-06
1.13552e-06
1.25757e-06
1.25749e-06
1.52534e-06
1.55129e-06
1.59126e-06
1.28249e-06
1.28241e-06
1.30276e-06
1.30271e-06
1.55128e-06
1.59133e-06
1.28228e-06
1.2825e-06
1.30257e-06
1.3028e-06
1.28256e-06
1.30266e-06
1.30284e-06
1.55135e-06
1.5914e-06
1.28236e-06
1.30275e-06
1.30267e-06
1.59149e-06
1.59027e-06
1.4724e-06
1.29644e-06
1.29641e-06
1.21654e-06
1.2165e-06
1.59034e-06
1.47244e-06
1.29627e-06
1.2965e-06
1.2164e-06
1.21659e-06
1.29653e-06
1.21649e-06
1.21661e-06
1.5904e-06
1.47251e-06
1.29637e-06
1.21658e-06
1.21648e-06
1.47255e-06
1.4591e-06
1.31989e-06
1.18371e-06
1.18366e-06
1.09804e-06
1.09795e-06
1.45914e-06
1.31986e-06
1.18357e-06
1.18375e-06
1.0979e-06
1.09804e-06
1.18376e-06
1.09796e-06
1.09807e-06
1.45918e-06
1.31994e-06
1.18364e-06
1.09805e-06
1.09793e-06
1.31998e-06
1.31304e-06
1.25728e-06
1.07857e-06
1.07849e-06
1.04244e-06
1.04234e-06
1.31302e-06
1.25723e-06
1.07843e-06
1.07857e-06
1.04228e-06
1.04243e-06
1.0786e-06
1.04232e-06
1.04245e-06
1.31308e-06
1.25731e-06
1.07846e-06
1.04241e-06
1.0423e-06
1.25734e-06
1.25756e-06
1.25931e-06
1.03745e-06
1.03735e-06
1.03359e-06
1.0335e-06
1.25751e-06
1.25927e-06
1.03729e-06
1.03745e-06
1.03342e-06
1.0336e-06
1.03746e-06
1.03346e-06
1.0336e-06
1.25759e-06
1.25936e-06
1.03731e-06
1.03355e-06
1.03345e-06
1.25938e-06
1.2653e-06
1.2832e-06
1.03581e-06
1.03573e-06
1.04586e-06
1.04578e-06
1.26528e-06
1.28318e-06
1.03565e-06
1.03582e-06
1.04569e-06
1.04587e-06
1.03582e-06
1.04574e-06
1.04588e-06
1.26536e-06
1.28326e-06
1.03566e-06
1.04582e-06
1.04571e-06
1.28329e-06
1.28769e-06
1.27642e-06
1.04794e-06
1.04786e-06
1.03149e-06
1.03137e-06
1.28768e-06
1.2764e-06
1.04777e-06
1.04794e-06
1.03137e-06
1.03142e-06
1.04795e-06
1.03143e-06
1.03144e-06
1.28775e-06
1.27644e-06
1.0478e-06
1.03147e-06
1.03134e-06
1.27644e-06
1.25606e-06
1.0014e-06
1.00128e-06
1.25603e-06
1.00132e-06
1.00133e-06
5.86615e-07
5.8665e-07
5.86606e-07
1.00134e-06
1.25608e-06
1.00127e-06
5.35663e-07
5.35601e-07
5.35655e-07
5.35655e-07
5.34573e-07
5.35516e-07
5.33634e-07
5.35654e-07
5.34573e-07
5.35517e-07
5.35654e-07
5.33634e-07
5.35256e-07
5.35987e-07
5.35987e-07
1.10717e-06
3.88067e-06
9.33917e-07
4.60585e-06
1.26086e-05
1.66015e-05
1.10712e-06
3.8812e-06
9.3393e-07
4.60638e-06
4.95567e-07
4.95567e-07
4.95567e-07
4.57231e-07
4.57231e-07
4.57232e-07
4.57232e-07
5.43136e-07
1.22024e-06
4.95565e-07
4.85523e-07
5.25345e-07
1.20948e-06
4.82301e-07
1.26098e-05
1.6603e-05
5.43156e-07
4.95565e-07
1.22026e-06
4.85523e-07
5.25333e-07
4.82301e-07
1.2095e-06
2.52183e-06
2.52237e-06
4.84192e-07
2.37257e-06
2.3728e-06
1.43088e-06
5.59293e-06
1.32969e-06
6.13611e-06
2.12849e-05
2.31113e-05
1.43097e-06
5.59371e-06
1.3298e-06
6.1369e-06
4.45573e-07
4.45573e-07
4.45573e-07
4.13542e-07