/*--------------------------------*- C++ -*----------------------------------*\
| =========                 |                                                 |
| \\      /  F ield         | OpenFOAM: The Open Source CFD Toolbox           |
|  \\    /   O peration     | Version:  v2012                                 |
|   \\  /    A nd           | Website:  www.openfoam.com                      |
|    \\/     M anipulation  |                                                 |
\*---------------------------------------------------------------------------*/
FoamFile
{
    version     2.0;
    format      ascii;
    class       volScalarField;
    location    "375";
    object      k;
}
// * * * * * * * * * * * * * * * * * * * * * * * * * * * * * * * * * * * * * //

dimensions      [0 2 -2 0 0 0 0];


internalField   nonuniform List<scalar> 
171728
(
3.58932e-05
3.58912e-05
3.58912e-05
3.59957e-05
3.39296e-05
3.3889e-05
3.3889e-05
3.39623e-05
3.21578e-05
3.20081e-05
3.20081e-05
3.19522e-05
3.05346e-05
3.02293e-05
3.02292e-05
2.99885e-05
2.90329e-05
2.8554e-05
2.85539e-05
2.81226e-05
2.76354e-05
2.69871e-05
2.69871e-05
2.63906e-05
2.63308e-05
2.5531e-05
2.55309e-05
2.48072e-05
2.51112e-05
2.41849e-05
2.41848e-05
2.3378e-05
2.3971e-05
2.29506e-05
2.29505e-05
2.21045e-05
2.29058e-05
2.18268e-05
2.18267e-05
2.09858e-05
2.1912e-05
2.08113e-05
2.08112e-05
2.00131e-05
2.09865e-05
1.99013e-05
1.99011e-05
1.91812e-05
2.01241e-05
1.90947e-05
1.90946e-05
1.84893e-05
1.93239e-05
1.83884e-05
1.83883e-05
1.79328e-05
1.85848e-05
1.77793e-05
1.77792e-05
1.75061e-05
1.79042e-05
1.72656e-05
1.72655e-05
1.71999e-05
1.72799e-05
1.68465e-05
1.68465e-05
1.70222e-05
1.67097e-05
1.65212e-05
1.65212e-05
1.69815e-05
1.61924e-05
1.62896e-05
1.62896e-05
1.70787e-05
1.57254e-05
1.61519e-05
1.61519e-05
1.73038e-05
1.53073e-05
1.61075e-05
1.61075e-05
1.76566e-05
1.49374e-05
1.61537e-05
1.61539e-05
1.81337e-05
1.46145e-05
1.6292e-05
1.62923e-05
1.87286e-05
1.43383e-05
1.65201e-05
1.65207e-05
1.94281e-05
1.41079e-05
1.68355e-05
1.68362e-05
2.02209e-05
1.39234e-05
1.72354e-05
1.72362e-05
2.10946e-05
1.37846e-05
1.77157e-05
1.7717e-05
2.20363e-05
1.36906e-05
1.82731e-05
1.82735e-05
2.303e-05
1.36421e-05
1.89019e-05
1.89025e-05
2.40648e-05
1.36392e-05
1.95985e-05
1.95995e-05
2.51263e-05
1.36815e-05
2.03552e-05
2.0358e-05
2.6201e-05
1.37692e-05
2.11703e-05
2.11699e-05
2.72827e-05
1.39051e-05
2.20314e-05
2.20346e-05
2.83636e-05
1.40869e-05
2.29428e-05
2.29411e-05
2.94298e-05
1.43093e-05
2.38774e-05
2.38853e-05
3.04826e-05
1.45946e-05
2.48643e-05
2.48615e-05
3.15209e-05
1.49e-05
2.5847e-05
2.58492e-05
3.25399e-05
1.52838e-05
2.68817e-05
2.6889e-05
3.35318e-05
1.56849e-05
2.7885e-05
2.78847e-05
3.45098e-05
1.6147e-05
2.89498e-05
2.89475e-05
3.54332e-05
1.66371e-05
2.9957e-05
2.99666e-05
3.64003e-05
1.72179e-05
3.10127e-05
3.10198e-05
3.72474e-05
1.77339e-05
3.19949e-05
3.19836e-05
3.81529e-05
1.84248e-05
3.30756e-05
3.30943e-05
3.89724e-05
1.90458e-05
3.40172e-05
3.40116e-05
3.98351e-05
1.97324e-05
3.50071e-05
3.50118e-05
4.05854e-05
2.04548e-05
3.59712e-05
3.59758e-05
4.1392e-05
2.12018e-05
3.69031e-05
3.69046e-05
4.2125e-05
2.19658e-05
3.78088e-05
3.7813e-05
4.2847e-05
2.27489e-05
3.86923e-05
3.86954e-05
4.35507e-05
2.35423e-05
3.95443e-05
3.95475e-05
4.42211e-05
2.43475e-05
4.03684e-05
4.03718e-05
4.48701e-05
2.51607e-05
4.11675e-05
4.11707e-05
4.5497e-05
2.59762e-05
4.19348e-05
4.19386e-05
4.60984e-05
2.67907e-05
4.26752e-05
4.26773e-05
4.66778e-05
2.75997e-05
4.3384e-05
4.33891e-05
4.72324e-05
2.84027e-05
4.40677e-05
4.4068e-05
4.77666e-05
2.91943e-05
4.47175e-05
4.47246e-05
4.82766e-05
2.99746e-05
4.53468e-05
4.53451e-05
4.87658e-05
3.07362e-05
4.59365e-05
4.59449e-05
4.9232e-05
3.1486e-05
4.6513e-05
4.65112e-05
4.96788e-05
3.22094e-05
4.70455e-05
4.70529e-05
5.01007e-05
3.29187e-05
4.75697e-05
4.75696e-05
5.05087e-05
3.35972e-05
4.80434e-05
4.8049e-05
5.0885e-05
3.42694e-05
4.85279e-05
4.85283e-05
5.12603e-05
3.48765e-05
4.89271e-05
4.89335e-05
5.15817e-05
3.55303e-05
4.93823e-05
4.9382e-05
5.19383e-05
3.60599e-05
4.97255e-05
4.97303e-05
5.22006e-05
3.66595e-05
5.01039e-05
5.01079e-05
5.252e-05
3.71678e-05
5.04647e-05
5.04647e-05
5.27753e-05
3.76621e-05
5.07039e-05
5.07102e-05
5.29995e-05
3.81458e-05
5.10951e-05
5.10955e-05
5.3292e-05
3.86009e-05
5.12707e-05
5.12771e-05
5.34292e-05
3.89471e-05
5.15774e-05
5.15754e-05
5.36922e-05
3.95103e-05
5.18181e-05
5.18248e-05
5.38614e-05
3.96107e-05
5.18519e-05
5.18543e-05
5.39167e-05
4.01709e-05
5.22353e-05
5.22391e-05
5.4205e-05
4.04009e-05
5.22854e-05
5.22899e-05
5.42276e-05
4.06851e-05
5.24529e-05
5.2455e-05
5.44498e-05
4.074e-05
5.23233e-05
5.23276e-05
5.40264e-05
4.16427e-05
5.34442e-05
5.34449e-05
5.5708e-05
4.11123e-05
5.16054e-05
5.16108e-05
5.30785e-05
4.01322e-05
5.08667e-05
5.08731e-05
5.23265e-05
4.4357e-05
5.72452e-05
5.72453e-05
5.97979e-05
4.58745e-05
5.69146e-05
5.69142e-05
5.79961e-05
3.81187e-05
4.62251e-05
4.623e-05
4.72177e-05
3.4425e-05
4.46411e-05
4.46459e-05
4.67885e-05
4.14341e-05
5.53488e-05
5.53508e-05
5.7644e-05
5.06733e-05
6.16391e-05
6.16413e-05
6.37028e-05
5.14485e-05
6.04861e-05
6.04893e-05
6.13172e-05
4.3149e-05
5.15525e-05
5.15558e-05
5.3057e-05
3.70586e-05
4.71096e-05
4.71125e-05
4.90257e-05
3.55484e-05
4.6499e-05
4.65018e-05
4.88135e-05
3.70407e-05
4.79656e-05
4.79684e-05
5.03065e-05
3.83622e-05
4.76811e-05
4.76833e-05
5.06145e-05
3.63068e-05
3.6291e-05
3.6291e-05
3.63068e-05
3.6291e-05
3.6291e-05
3.6423e-05
3.6423e-05
3.6423e-05
3.6423e-05
3.6291e-05
3.6291e-05
3.63068e-05
3.6291e-05
3.6291e-05
3.63068e-05
3.59957e-05
3.42687e-05
3.58912e-05
3.58912e-05
3.43767e-05
3.43766e-05
3.59957e-05
3.42687e-05
3.58911e-05
3.58912e-05
3.43767e-05
3.43766e-05
3.58912e-05
3.43767e-05
3.43767e-05
3.59957e-05
3.42687e-05
3.58912e-05
3.43767e-05
3.43767e-05
3.42687e-05
3.39623e-05
3.22635e-05
3.38889e-05
3.38889e-05
3.24684e-05
3.24683e-05
3.39622e-05
3.22635e-05
3.38889e-05
3.38889e-05
3.24684e-05
3.24683e-05
3.38889e-05
3.24685e-05
3.24683e-05
3.39623e-05
3.22635e-05
3.38889e-05
3.24685e-05
3.24684e-05
3.22634e-05
3.19522e-05
3.02994e-05
3.2008e-05
3.20078e-05
3.06643e-05
3.06642e-05
3.19522e-05
3.02994e-05
3.2008e-05
3.20078e-05
3.06644e-05
3.06641e-05
3.20079e-05
3.06645e-05
3.06642e-05
3.19522e-05
3.02993e-05
3.2008e-05
3.06645e-05
3.06644e-05
3.02991e-05
2.99886e-05
2.84254e-05
3.0229e-05
3.02288e-05
2.89624e-05
2.89622e-05
2.99885e-05
2.84254e-05
3.02292e-05
3.02288e-05
2.89626e-05
2.89621e-05
3.02289e-05
2.89628e-05
2.89623e-05
2.99885e-05
2.84253e-05
3.02291e-05
2.89627e-05
2.89626e-05
2.8425e-05
2.81228e-05
2.66741e-05
2.85536e-05
2.85534e-05
2.7368e-05
2.73678e-05
2.81227e-05
2.66741e-05
2.85539e-05
2.85533e-05
2.73684e-05
2.73677e-05
2.85535e-05
2.73685e-05
2.73678e-05
2.81227e-05
2.66739e-05
2.85538e-05
2.73684e-05
2.73682e-05
2.66737e-05
2.63909e-05
2.50664e-05
2.69866e-05
2.69864e-05
2.58841e-05
2.58838e-05
2.63909e-05
2.50664e-05
2.6987e-05
2.69863e-05
2.58846e-05
2.58837e-05
2.69865e-05
2.58847e-05
2.58839e-05
2.63908e-05
2.50662e-05
2.69869e-05
2.58846e-05
2.58844e-05
2.50659e-05
2.48076e-05
2.36126e-05
2.55303e-05
2.55301e-05
2.45102e-05
2.451e-05
2.48076e-05
2.36126e-05
2.55308e-05
2.55299e-05
2.45108e-05
2.45098e-05
2.55302e-05
2.4511e-05
2.45101e-05
2.48074e-05
2.36124e-05
2.55307e-05
2.45109e-05
2.45107e-05
2.36121e-05
2.33785e-05
2.23126e-05
2.41841e-05
2.41839e-05
2.32478e-05
2.32475e-05
2.33785e-05
2.23126e-05
2.41847e-05
2.41837e-05
2.32485e-05
2.32474e-05
2.4184e-05
2.32487e-05
2.32476e-05
2.33783e-05
2.23123e-05
2.41846e-05
2.32486e-05
2.32484e-05
2.2312e-05
2.21051e-05
2.11682e-05
2.29497e-05
2.29494e-05
2.20965e-05
2.20962e-05
2.2105e-05
2.11682e-05
2.29504e-05
2.29492e-05
2.20973e-05
2.20961e-05
2.29495e-05
2.20975e-05
2.20964e-05
2.21048e-05
2.11679e-05
2.29503e-05
2.20974e-05
2.20972e-05
2.11675e-05
2.09865e-05
2.01708e-05
2.18258e-05
2.18255e-05
2.10541e-05
2.10538e-05
2.09865e-05
2.01708e-05
2.18266e-05
2.18254e-05
2.1055e-05
2.10537e-05
2.18257e-05
2.10552e-05
2.1054e-05
2.09862e-05
2.01706e-05
2.18265e-05
2.10551e-05
2.10549e-05
2.01701e-05
2.00138e-05
1.93147e-05
2.08103e-05
2.081e-05
2.01179e-05
2.01177e-05
2.00138e-05
1.93148e-05
2.08112e-05
2.08098e-05
2.01189e-05
2.01175e-05
2.08101e-05
2.0119e-05
2.01178e-05
2.00135e-05
1.93145e-05
2.08111e-05
2.01189e-05
2.01188e-05
1.9314e-05
1.91817e-05
1.85906e-05
1.99002e-05
1.98999e-05
1.92855e-05
1.92852e-05
1.91818e-05
1.85905e-05
1.99011e-05
1.98997e-05
1.92864e-05
1.92851e-05
1.99e-05
1.92866e-05
1.92854e-05
1.91815e-05
1.85902e-05
1.9901e-05
1.92865e-05
1.92864e-05
1.85898e-05
1.84898e-05
1.79979e-05
1.90936e-05
1.90934e-05
1.85544e-05
1.85542e-05
1.84898e-05
1.7998e-05
1.90945e-05
1.90932e-05
1.85554e-05
1.85541e-05
1.90935e-05
1.85555e-05
1.85543e-05
1.84895e-05
1.79978e-05
1.90945e-05
1.85554e-05
1.85554e-05
1.79973e-05
1.79334e-05
1.75392e-05
1.83874e-05
1.83872e-05
1.79213e-05
1.79212e-05
1.79335e-05
1.75393e-05
1.83883e-05
1.8387e-05
1.79222e-05
1.7921e-05
1.83873e-05
1.79223e-05
1.79212e-05
1.79333e-05
1.7539e-05
1.83883e-05
1.79222e-05
1.79222e-05
1.75388e-05
1.75065e-05
1.72177e-05
1.77783e-05
1.77782e-05
1.73837e-05
1.73837e-05
1.75066e-05
1.72178e-05
1.77792e-05
1.7778e-05
1.73846e-05
1.73835e-05
1.77782e-05
1.73847e-05
1.73837e-05
1.75062e-05
1.72176e-05
1.77792e-05
1.73846e-05
1.73846e-05
1.72173e-05
1.72004e-05
1.70258e-05
1.72647e-05
1.72646e-05
1.6941e-05
1.6941e-05
1.72005e-05
1.7026e-05
1.72655e-05
1.72645e-05
1.69418e-05
1.69409e-05
1.72647e-05
1.69419e-05
1.6941e-05
1.72003e-05
1.7026e-05
1.72656e-05
1.69418e-05
1.69418e-05
1.70256e-05
1.70226e-05
1.69724e-05
1.68458e-05
1.68458e-05
1.6592e-05
1.65921e-05
1.70227e-05
1.69726e-05
1.68465e-05
1.68456e-05
1.65927e-05
1.6592e-05
1.68457e-05
1.65928e-05
1.6592e-05
1.70226e-05
1.69723e-05
1.68466e-05
1.65927e-05
1.65928e-05
1.69722e-05
1.69818e-05
1.70433e-05
1.65205e-05
1.65206e-05
1.63367e-05
1.63369e-05
1.69819e-05
1.70434e-05
1.65212e-05
1.65205e-05
1.63374e-05
1.63369e-05
1.65205e-05
1.63373e-05
1.63368e-05
1.69816e-05
1.70433e-05
1.65213e-05
1.63374e-05
1.63375e-05
1.70432e-05
1.70787e-05
1.72432e-05
1.62891e-05
1.62892e-05
1.61752e-05
1.61754e-05
1.70788e-05
1.72433e-05
1.62897e-05
1.62892e-05
1.61758e-05
1.61754e-05
1.62891e-05
1.61757e-05
1.61754e-05
1.70788e-05
1.72434e-05
1.62898e-05
1.61757e-05
1.6176e-05
1.72436e-05
1.73036e-05
1.75718e-05
1.61515e-05
1.61517e-05
1.61071e-05
1.61074e-05
1.73035e-05
1.75717e-05
1.6152e-05
1.61516e-05
1.61075e-05
1.61073e-05
1.61515e-05
1.61074e-05
1.61072e-05
1.73037e-05
1.7572e-05
1.61521e-05
1.61074e-05
1.61078e-05
1.75722e-05
1.76567e-05
1.80251e-05
1.61072e-05
1.61076e-05
1.61329e-05
1.61333e-05
1.76566e-05
1.8025e-05
1.61076e-05
1.61075e-05
1.61332e-05
1.61333e-05
1.61074e-05
1.6133e-05
1.61331e-05
1.76564e-05
1.80251e-05
1.61079e-05
1.61332e-05
1.61335e-05
1.80255e-05
1.81334e-05
1.85969e-05
1.61536e-05
1.6154e-05
1.6249e-05
1.62493e-05
1.81338e-05
1.85972e-05
1.61537e-05
1.6154e-05
1.62492e-05
1.62496e-05
1.61538e-05
1.62488e-05
1.62492e-05
1.81338e-05
1.85971e-05
1.61542e-05
1.62493e-05
1.62496e-05
1.85976e-05
1.87277e-05
1.92751e-05
1.62924e-05
1.62926e-05
1.6455e-05
1.64555e-05
1.87282e-05
1.9276e-05
1.62924e-05
1.62927e-05
1.6455e-05
1.64558e-05
1.62925e-05
1.64548e-05
1.64554e-05
1.87283e-05
1.92756e-05
1.62929e-05
1.64552e-05
1.64557e-05
1.92764e-05
1.94264e-05
2.00491e-05
1.65208e-05
1.6521e-05
1.67492e-05
1.67497e-05
1.94274e-05
2.00497e-05
1.65206e-05
1.65212e-05
1.67491e-05
1.67501e-05
1.6521e-05
1.67487e-05
1.67497e-05
1.94277e-05
2.00495e-05
1.65212e-05
1.67493e-05
1.67498e-05
2.00505e-05
2.02191e-05
2.09059e-05
1.68363e-05
1.68366e-05
1.71284e-05
1.71291e-05
2.02199e-05
2.09069e-05
1.6836e-05
1.6837e-05
1.71281e-05
1.71295e-05
1.68367e-05
1.71278e-05
1.7129e-05
2.02202e-05
2.09067e-05
1.68368e-05
1.71285e-05
1.7129e-05
2.09076e-05
2.10926e-05
2.18329e-05
1.72362e-05
1.72367e-05
1.75894e-05
1.759e-05
2.1094e-05
2.18335e-05
1.72357e-05
1.72372e-05
1.7589e-05
1.75905e-05
1.72367e-05
1.75885e-05
1.75902e-05
2.1094e-05
2.18335e-05
1.72366e-05
1.75893e-05
1.75899e-05
2.1835e-05
2.20341e-05
2.28155e-05
1.77174e-05
1.77172e-05
1.81277e-05
1.81288e-05
2.20348e-05
2.28167e-05
1.77167e-05
1.77182e-05
1.81271e-05
1.81284e-05
1.77178e-05
1.81271e-05
1.81283e-05
2.20348e-05
2.28161e-05
1.77175e-05
1.81269e-05
1.81278e-05
2.28178e-05
2.30276e-05
2.38413e-05
1.82744e-05
1.82748e-05
1.87394e-05
1.87401e-05
2.303e-05
2.38408e-05
1.82734e-05
1.8275e-05
1.87384e-05
1.87405e-05
1.82748e-05
1.87382e-05
1.87401e-05
2.30281e-05
2.38432e-05
1.82742e-05
1.87389e-05
1.87393e-05
2.38437e-05
2.40619e-05
2.48968e-05
1.89036e-05
1.89038e-05
1.94201e-05
1.94204e-05
2.40632e-05
2.48953e-05
1.89024e-05
1.8904e-05
1.9419e-05
1.94219e-05
1.8904e-05
1.94184e-05
1.9421e-05
2.40642e-05
2.4897e-05
1.89032e-05
1.94201e-05
1.942e-05
2.48986e-05
2.51234e-05
2.59678e-05
1.96002e-05
1.96006e-05
2.01623e-05
2.01622e-05
2.51237e-05
2.5966e-05
1.95987e-05
1.96013e-05
2.01609e-05
2.0164e-05
1.96007e-05
2.016e-05
2.01639e-05
2.51257e-05
2.59662e-05
1.95996e-05
2.01621e-05
2.01625e-05
2.59694e-05
2.6199e-05
2.70473e-05
2.03577e-05
2.03574e-05
2.09628e-05
2.09648e-05
2.61985e-05
2.70473e-05
2.0356e-05
2.03599e-05
2.09611e-05
2.09633e-05
2.03592e-05
2.09625e-05
2.09634e-05
2.61986e-05
2.70473e-05
2.03578e-05
2.09614e-05
2.09617e-05
2.70495e-05
2.72818e-05
2.81232e-05
2.11703e-05
2.11726e-05
2.18172e-05
2.18141e-05
2.72823e-05
2.81201e-05
2.11683e-05
2.11717e-05
2.18153e-05
2.1817e-05
2.11724e-05
2.18117e-05
2.1817e-05
2.72794e-05
2.81273e-05
2.11705e-05
2.18149e-05
2.1815e-05
2.81289e-05
2.83598e-05
2.91908e-05
2.20362e-05
2.20338e-05
2.27096e-05
2.2712e-05
2.83552e-05
2.9194e-05
2.20341e-05
2.20365e-05
2.27074e-05
2.27129e-05
2.20357e-05
2.27097e-05
2.27129e-05
2.83623e-05
2.91931e-05
2.20337e-05
2.2711e-05
2.27106e-05
2.9194e-05
2.94254e-05
3.02524e-05
2.29451e-05
2.29452e-05
2.36469e-05
2.3644e-05
2.9428e-05
3.02506e-05
2.29426e-05
2.29431e-05
2.36446e-05
2.36477e-05
2.29442e-05
2.36419e-05
2.3649e-05
2.94278e-05
3.02494e-05
2.29417e-05
2.36458e-05
2.36465e-05
3.02529e-05
3.04804e-05
3.12866e-05
2.38781e-05
2.38794e-05
2.46174e-05
2.46196e-05
3.04807e-05
3.12893e-05
2.38756e-05
2.38868e-05
2.46147e-05
2.46146e-05
2.38875e-05
2.46172e-05
2.46109e-05
3.04804e-05
3.12936e-05
2.38849e-05
2.46125e-05
2.46079e-05
3.12918e-05
3.15212e-05
3.23102e-05
2.4873e-05
2.48668e-05
2.55979e-05
2.55928e-05
3.15219e-05
3.23004e-05
2.487e-05
2.48637e-05
2.55956e-05
2.56068e-05
2.48606e-05
2.55914e-05
2.56164e-05
3.1521e-05
3.23127e-05
2.48576e-05
2.56057e-05
2.56139e-05
3.23178e-05
3.25257e-05
3.33134e-05
2.58421e-05
2.58486e-05
2.66307e-05
2.66379e-05
3.2523e-05
3.33258e-05
2.58393e-05
2.58502e-05
2.66269e-05
2.66247e-05
2.58578e-05
2.6635e-05
2.66085e-05
3.25362e-05
3.33092e-05
2.58548e-05
2.6622e-05
2.66042e-05
3.3303e-05
3.35441e-05
3.42826e-05
2.6889e-05
2.68839e-05
2.76361e-05
2.76153e-05
3.35456e-05
3.42592e-05
2.68858e-05
2.68909e-05
2.76342e-05
2.76407e-05
2.68842e-05
2.76152e-05
2.76663e-05
3.35384e-05
3.42857e-05
2.68808e-05
2.76409e-05
2.76643e-05
3.43069e-05
3.4494e-05
3.52422e-05
2.78985e-05
2.78865e-05
2.8689e-05
2.87102e-05
3.44794e-05
3.5268e-05
2.78955e-05
2.78858e-05
2.86844e-05
2.8681e-05
2.78913e-05
2.87063e-05
2.86495e-05
3.44923e-05
3.52309e-05
2.78881e-05
2.86771e-05
2.86442e-05
3.5202e-05
3.54501e-05
3.61398e-05
2.89311e-05
2.89512e-05
2.9684e-05
2.96763e-05
3.5478e-05
3.61284e-05
2.89273e-05
2.89489e-05
2.9682e-05
2.97052e-05
2.89488e-05
2.96788e-05
2.97483e-05
3.54519e-05
3.61738e-05
2.89446e-05
2.97083e-05
2.97463e-05
3.62168e-05
3.63584e-05
3.71178e-05
2.99699e-05
2.99572e-05
3.07981e-05
3.07828e-05
3.63391e-05
3.71058e-05
2.99671e-05
2.99661e-05
3.07943e-05
3.07797e-05
2.99683e-05
3.07771e-05
3.07213e-05
3.63738e-05
3.70853e-05
2.99653e-05
3.07738e-05
3.0717e-05
3.70261e-05
3.73055e-05
3.78788e-05
3.1029e-05
3.10159e-05
3.17117e-05
3.17204e-05
3.72974e-05
3.78897e-05
3.10254e-05
3.10231e-05
3.17079e-05
3.17146e-05
3.10099e-05
3.17244e-05
3.17918e-05
3.72863e-05
3.78923e-05
3.10062e-05
3.17189e-05
3.17879e-05
3.79764e-05
3.80787e-05
3.8848e-05
3.19799e-05
3.19922e-05
3.28312e-05
3.28278e-05
3.80932e-05
3.88454e-05
3.19755e-05
3.19804e-05
3.28279e-05
3.28405e-05
3.20206e-05
3.28236e-05
3.27667e-05
3.80866e-05
3.88552e-05
3.20162e-05
3.28364e-05
3.27632e-05
3.87678e-05
3.90453e-05
3.96104e-05
3.30874e-05
3.30794e-05
3.37822e-05
3.37772e-05
3.90373e-05
3.9607e-05
3.30845e-05
3.3098e-05
3.37787e-05
3.37777e-05
3.30403e-05
3.37792e-05
3.38189e-05
3.9055e-05
3.96067e-05
3.30374e-05
3.37797e-05
3.38153e-05
3.96595e-05
3.97831e-05
4.04221e-05
3.40186e-05
3.40146e-05
3.4765e-05
3.47591e-05
3.97823e-05
4.04185e-05
3.40145e-05
3.4009e-05
3.4761e-05
3.47599e-05
3.40541e-05
3.4759e-05
3.47549e-05
3.97749e-05
4.04183e-05
3.40499e-05
3.47596e-05
3.47508e-05
4.04064e-05
4.06068e-05
4.12047e-05
3.50126e-05
3.50078e-05
3.57323e-05
3.57328e-05
4.06029e-05
4.12081e-05
3.50087e-05
3.50124e-05
3.57288e-05
3.57393e-05
3.49993e-05
3.57336e-05
3.57409e-05
4.0607e-05
4.1214e-05
3.49956e-05
3.57399e-05
3.57375e-05
4.1217e-05
4.13756e-05
4.19609e-05
3.59695e-05
3.59699e-05
3.66756e-05
3.66719e-05
4.13797e-05
4.19594e-05
3.59658e-05
3.59747e-05
3.66717e-05
3.66735e-05
3.59814e-05
3.6673e-05
3.66766e-05
4.13835e-05
4.19597e-05
3.59779e-05
3.66743e-05
3.66727e-05
4.19614e-05
4.21289e-05
4.26874e-05
3.69063e-05
3.69022e-05
3.75881e-05
3.75835e-05
4.21265e-05
4.26855e-05
3.69022e-05
3.6904e-05
3.75843e-05
3.75879e-05
3.69036e-05
3.75843e-05
3.7584e-05
4.21269e-05
4.26893e-05
3.68997e-05
3.75884e-05
3.75804e-05
4.2684e-05
4.28494e-05
4.33936e-05
3.78131e-05
3.78077e-05
3.84779e-05
3.84724e-05
4.28473e-05
4.33906e-05
3.78092e-05
3.78123e-05
3.84741e-05
3.84763e-05
3.78102e-05
3.8474e-05
3.84781e-05
4.28513e-05
4.33933e-05
3.78066e-05
3.84774e-05
3.84745e-05
4.33948e-05
4.35495e-05
4.40691e-05
3.86953e-05
3.86906e-05
3.93356e-05
3.93323e-05
4.35471e-05
4.4069e-05
3.86914e-05
3.86942e-05
3.93318e-05
3.93359e-05
3.86961e-05
3.93342e-05
3.93372e-05
4.35494e-05
4.40717e-05
3.86925e-05
3.93373e-05
3.93337e-05
4.40713e-05
4.42194e-05
4.47236e-05
3.95458e-05
3.95423e-05
4.01673e-05
4.01626e-05
4.42191e-05
4.47219e-05
3.95418e-05
3.9546e-05
4.01635e-05
4.01665e-05
3.95475e-05
4.01647e-05
4.0168e-05
4.42217e-05
4.47249e-05
3.95439e-05
4.0168e-05
4.01645e-05
4.47251e-05
4.48691e-05
4.53558e-05
4.03712e-05
4.03662e-05
4.09726e-05
4.0968e-05
4.48673e-05
4.53544e-05
4.03673e-05
4.03702e-05
4.09688e-05
4.09723e-05
4.03716e-05
4.09704e-05
4.09733e-05
4.48701e-05
4.53575e-05
4.0368e-05
4.0974e-05
4.09699e-05
4.53569e-05
4.5496e-05
4.5963e-05
4.11695e-05
4.11651e-05
4.17483e-05
4.17433e-05
4.54948e-05
4.59614e-05
4.11656e-05
4.11689e-05
4.17445e-05
4.17473e-05
4.11703e-05
4.17459e-05
4.17484e-05
4.54977e-05
4.59642e-05
4.11668e-05
4.17491e-05
4.1745e-05
4.5964e-05
4.60979e-05
4.65466e-05
4.19372e-05
4.19322e-05
4.24948e-05
4.24901e-05
4.60962e-05
4.65453e-05
4.19334e-05
4.19366e-05
4.2491e-05
4.24938e-05
4.19375e-05
4.24928e-05
4.24952e-05
4.6099e-05
4.65482e-05
4.19342e-05
4.24957e-05
4.24918e-05
4.6548e-05
4.66767e-05
4.71075e-05
4.26771e-05
4.26725e-05
4.32118e-05
4.32065e-05
4.66755e-05
4.71057e-05
4.26731e-05
4.26752e-05
4.32083e-05
4.32113e-05
4.26775e-05
4.32095e-05
4.3212e-05
4.66778e-05
4.71089e-05
4.2674e-05
4.32135e-05
4.32088e-05
4.71081e-05
4.72322e-05
4.76457e-05
4.33865e-05
4.33811e-05
4.39011e-05
4.38965e-05
4.72303e-05
4.76447e-05
4.3383e-05
4.33868e-05
4.38971e-05
4.38989e-05
4.33863e-05
4.38994e-05
4.39006e-05
4.7234e-05
4.76467e-05
4.33833e-05
4.3901e-05
4.38971e-05
4.76464e-05
4.77659e-05
4.8161e-05
4.40689e-05
4.40645e-05
4.45604e-05
4.45546e-05
4.77651e-05
4.81587e-05
4.40647e-05
4.40656e-05
4.4557e-05
4.45608e-05
4.40695e-05
4.4558e-05
4.45613e-05
4.77661e-05
4.8163e-05
4.40658e-05
4.45635e-05
4.45584e-05
4.81625e-05
4.82761e-05
4.86552e-05
4.47207e-05
4.47144e-05
4.51932e-05
4.51887e-05
4.82734e-05
4.86546e-05
4.47175e-05
4.47221e-05
4.51894e-05
4.519e-05
4.47199e-05
4.51918e-05
4.51915e-05
4.8279e-05
4.86553e-05
4.47174e-05
4.51922e-05
4.51881e-05
4.86543e-05
4.87659e-05
4.91249e-05
4.53469e-05
4.53433e-05
4.5794e-05
4.57884e-05
4.87661e-05
4.91229e-05
4.53427e-05
4.53424e-05
4.57906e-05
4.5795e-05
4.53474e-05
4.57921e-05
4.57958e-05
4.87647e-05
4.91279e-05
4.53436e-05
4.5798e-05
4.57931e-05
4.91279e-05
4.92306e-05
4.95784e-05
4.59402e-05
4.59331e-05
4.63731e-05
4.63675e-05
4.92275e-05
4.95764e-05
4.59372e-05
4.59421e-05
4.63697e-05
4.63694e-05
4.59396e-05
4.63709e-05
4.63706e-05
4.92347e-05
4.95773e-05
4.59373e-05
4.63717e-05
4.63674e-05
4.95758e-05
4.96802e-05
5.00025e-05
4.6513e-05
4.65094e-05
4.69169e-05
4.69126e-05
4.96797e-05
5.00027e-05
4.65089e-05
4.65084e-05
4.69133e-05
4.69178e-05
4.65129e-05
4.69164e-05
4.69184e-05
4.96778e-05
5.00065e-05
4.65092e-05
4.6921e-05
4.69156e-05
5.00059e-05
5.00988e-05
5.04157e-05
4.70482e-05
4.70418e-05
4.74415e-05
4.74348e-05
5.00973e-05
5.04118e-05
4.70451e-05
4.70497e-05
4.74385e-05
4.74381e-05
4.7048e-05
4.74385e-05
4.74399e-05
5.01037e-05
5.04143e-05
4.70457e-05
4.74409e-05
4.7437e-05
5.04138e-05
5.051e-05
5.07985e-05
4.75709e-05
4.75659e-05
4.79313e-05
4.7927e-05
5.05076e-05
5.07991e-05
4.75671e-05
4.75665e-05
4.79278e-05
4.7931e-05
4.75701e-05
4.79308e-05
4.79313e-05
5.05075e-05
5.08016e-05
4.75668e-05
4.79343e-05
4.79286e-05
5.08e-05
5.08842e-05
5.11725e-05
4.80451e-05
4.80395e-05
4.84087e-05
4.84034e-05
5.08836e-05
5.11701e-05
4.80422e-05
4.80459e-05
4.84055e-05
4.84065e-05
4.8045e-05
4.84076e-05
4.84084e-05
5.0888e-05
5.11726e-05
4.80426e-05
4.84097e-05
4.84054e-05
5.11723e-05
5.12607e-05
5.15062e-05
4.85281e-05
4.85237e-05
4.88285e-05
4.88219e-05
5.12594e-05
5.1504e-05
4.85243e-05
4.85247e-05
4.88257e-05
4.88272e-05
4.85271e-05
4.88257e-05
4.88271e-05
5.12601e-05
5.15076e-05
4.8524e-05
4.88305e-05
4.8825e-05
5.15057e-05
5.15816e-05
5.18593e-05
4.89302e-05
4.8923e-05
4.92831e-05
4.92787e-05
5.15784e-05
5.1859e-05
4.89277e-05
4.89301e-05
4.92797e-05
4.92812e-05
4.89308e-05
4.9283e-05
4.92834e-05
5.15837e-05
5.18603e-05
4.89287e-05
4.92846e-05
4.92804e-05
5.18605e-05
5.1939e-05
5.21311e-05
4.93824e-05
4.93786e-05
4.96229e-05
4.96181e-05
5.19395e-05
5.213e-05
4.93786e-05
4.93788e-05
4.96201e-05
4.96212e-05
4.93798e-05
4.96223e-05
4.96219e-05
5.1939e-05
5.21315e-05
4.93767e-05
4.96249e-05
4.96195e-05
5.2129e-05
5.22007e-05
5.246e-05
4.9726e-05
4.97208e-05
5.00415e-05
5.00334e-05
5.21988e-05
5.24566e-05
4.97235e-05
4.97261e-05
5.00391e-05
5.00404e-05
4.97282e-05
5.00376e-05
5.00397e-05
5.22023e-05
5.24615e-05
4.9726e-05
5.00435e-05
5.00377e-05
5.24602e-05
5.25216e-05
5.26935e-05
5.01074e-05
5.01e-05
5.03445e-05
5.03433e-05
5.25186e-05
5.26959e-05
5.01046e-05
5.01048e-05
5.03406e-05
5.03417e-05
5.01037e-05
5.03483e-05
5.03472e-05
5.25219e-05
5.26938e-05
5.01015e-05
5.03467e-05
5.03441e-05
5.26948e-05
5.27725e-05
5.29657e-05
5.04623e-05
5.04598e-05
5.06799e-05
5.06697e-05
5.27752e-05
5.29598e-05
5.04587e-05
5.04601e-05
5.06784e-05
5.06786e-05
5.04646e-05
5.06728e-05
5.06731e-05
5.27737e-05
5.29665e-05
5.04617e-05
5.06803e-05
5.06717e-05
5.29615e-05
5.30034e-05
5.31927e-05
5.07082e-05
5.07002e-05
5.09679e-05
5.09681e-05
5.29981e-05
5.31983e-05
5.07065e-05
5.07075e-05
5.09643e-05
5.09675e-05
5.07042e-05
5.09748e-05
5.09758e-05
5.30043e-05
5.31964e-05
5.07026e-05
5.09742e-05
5.09727e-05
5.32011e-05
5.32863e-05
5.34198e-05
5.10916e-05
5.10893e-05
5.12735e-05
5.12605e-05
5.32897e-05
5.34105e-05
5.10881e-05
5.10899e-05
5.12715e-05
5.1268e-05
5.1096e-05
5.12621e-05
5.12621e-05
5.32887e-05
5.34162e-05
5.10932e-05
5.12685e-05
5.12609e-05
5.34107e-05
5.34387e-05
5.35723e-05
5.12819e-05
5.1269e-05
5.14155e-05
5.14243e-05
5.34293e-05
5.35855e-05
5.128e-05
5.12766e-05
5.14117e-05
5.14204e-05
5.12705e-05
5.1434e-05
5.14325e-05
5.34351e-05
5.35818e-05
5.12693e-05
5.14309e-05
5.14288e-05
5.35868e-05
5.36793e-05
5.3856e-05
5.1564e-05
5.1569e-05
5.18176e-05
5.18075e-05
5.36912e-05
5.38467e-05
5.15603e-05
5.15669e-05
5.18158e-05
5.18139e-05
5.15765e-05
5.18103e-05
5.1811e-05
5.36878e-05
5.38527e-05
5.15733e-05
5.18159e-05
5.18096e-05
5.38478e-05
5.38708e-05
5.3835e-05
5.18279e-05
5.1816e-05
5.1826e-05
5.18157e-05
5.38597e-05
5.38363e-05
5.18264e-05
5.18234e-05
5.18244e-05
5.18222e-05
5.18193e-05
5.18184e-05
5.182e-05
5.38665e-05
5.38372e-05
5.18182e-05
5.18242e-05
5.18188e-05
5.38417e-05
5.39039e-05
5.41916e-05
5.18511e-05
5.18467e-05
5.21926e-05
5.2191e-05
5.39131e-05
5.41916e-05
5.18488e-05
5.18498e-05
5.21896e-05
5.21925e-05
5.18529e-05
5.21971e-05
5.21935e-05
5.39105e-05
5.41939e-05
5.1851e-05
5.21984e-05
5.21913e-05
5.41852e-05
5.42151e-05
5.41645e-05
5.22375e-05
5.2231e-05
5.22635e-05
5.22533e-05
5.42112e-05
5.41552e-05
5.22351e-05
5.22352e-05
5.22616e-05
5.22592e-05
5.22319e-05
5.2256e-05
5.2255e-05
5.4215e-05
5.41603e-05
5.22301e-05
5.22615e-05
5.22536e-05
5.41601e-05
5.42221e-05
5.44524e-05
5.22915e-05
5.22826e-05
5.24599e-05
5.24571e-05
5.42183e-05
5.44585e-05
5.22897e-05
5.22876e-05
5.24577e-05
5.24595e-05
5.22882e-05
5.24634e-05
5.24649e-05
5.42204e-05
5.4458e-05
5.22868e-05
5.24651e-05
5.24632e-05
5.44617e-05
5.44459e-05
5.40085e-05
5.245e-05
5.24467e-05
5.23013e-05
5.22947e-05
5.44497e-05
5.40011e-05
5.24478e-05
5.24495e-05
5.22992e-05
5.22997e-05
5.24533e-05
5.22999e-05
5.22971e-05
5.44506e-05
5.40074e-05
5.24516e-05
5.23044e-05
5.22953e-05
5.39971e-05
5.40354e-05
5.55741e-05
5.23243e-05
5.23181e-05
5.3302e-05
5.33001e-05
5.40292e-05
5.55793e-05
5.23222e-05
5.23227e-05
5.32996e-05
5.33007e-05
5.23211e-05
5.33047e-05
5.33068e-05
5.40347e-05
5.55767e-05
5.23194e-05
5.33054e-05
5.33049e-05
5.55847e-05
5.57e-05
5.3657e-05
5.34427e-05
5.34398e-05
5.26246e-05
5.26149e-05
5.57039e-05
5.36465e-05
5.34403e-05
5.34406e-05
5.26233e-05
5.26197e-05
5.34455e-05
5.26183e-05
5.26146e-05
5.57016e-05
5.36528e-05
5.34437e-05
5.26222e-05
5.26132e-05
5.3643e-05
5.30911e-05
5.18258e-05
5.16111e-05
5.16015e-05
5.06571e-05
5.065e-05
5.30813e-05
5.18236e-05
5.16101e-05
5.16075e-05
5.06558e-05
5.06561e-05
5.16009e-05
5.06539e-05
5.06501e-05
5.30878e-05
5.18292e-05
5.16e-05
5.06605e-05
5.06498e-05
5.18197e-05
5.23293e-05
5.90901e-05
5.08693e-05
5.08631e-05
5.60045e-05
5.60019e-05
5.23313e-05
5.90908e-05
5.08674e-05
5.08687e-05
5.59999e-05
5.60031e-05
5.08636e-05
5.60059e-05
5.60105e-05
5.2335e-05
5.90909e-05
5.0863e-05
5.60072e-05
5.60067e-05
5.90979e-05
5.97899e-05
5.93139e-05
5.72433e-05
5.72407e-05
5.78013e-05
5.77993e-05
5.97906e-05
5.93177e-05
5.72394e-05
5.72414e-05
5.77992e-05
5.78e-05
5.72519e-05
5.78064e-05
5.78128e-05
5.97899e-05
5.93165e-05
5.72477e-05
5.78056e-05
5.78096e-05
5.93298e-05
5.79802e-05
4.81341e-05
5.69068e-05
5.69056e-05
4.81611e-05
4.81576e-05
5.79846e-05
4.8134e-05
5.69069e-05
5.69067e-05
4.81628e-05
4.8161e-05
5.69186e-05
4.81647e-05
4.81577e-05
5.79835e-05
4.81375e-05
5.69174e-05
4.81689e-05
4.81604e-05
4.81275e-05
4.72255e-05
4.5945e-05
4.62239e-05
4.6219e-05
4.44373e-05
4.44299e-05
4.72244e-05
4.59381e-05
4.62245e-05
4.62227e-05
4.44353e-05
4.44338e-05
4.62165e-05
4.44323e-05
4.4427e-05
4.72279e-05
4.59418e-05
4.62185e-05
4.44374e-05
4.44264e-05
4.59315e-05
4.67995e-05
5.61109e-05
4.46472e-05
4.46395e-05
5.24058e-05
5.2399e-05
4.67915e-05
5.6107e-05
4.46443e-05
4.46433e-05
5.23994e-05
5.24018e-05
4.46376e-05
5.23993e-05
5.24077e-05
4.6795e-05
5.61093e-05
4.4636e-05
5.24013e-05
5.24005e-05
5.61146e-05
5.76419e-05
6.33103e-05
5.53536e-05
5.53482e-05
6.08835e-05
6.08811e-05
5.76392e-05
6.33121e-05
5.53484e-05
5.53508e-05
6.08809e-05
6.08834e-05
5.53571e-05
6.08855e-05
6.08885e-05
5.76408e-05
6.33134e-05
5.53514e-05
6.08875e-05
6.08859e-05
6.33165e-05
6.36976e-05
6.23862e-05
6.16366e-05
6.16346e-05
6.16574e-05
6.16558e-05
6.36998e-05
6.23889e-05
6.16344e-05
6.16369e-05
6.16565e-05
6.16582e-05
6.16412e-05
6.16617e-05
6.16607e-05
6.37009e-05
6.23911e-05
6.16394e-05
6.16643e-05
6.16604e-05
6.23885e-05
6.13143e-05
5.39548e-05
6.04802e-05
6.04785e-05
5.34421e-05
5.3438e-05
6.13167e-05
5.39537e-05
6.04811e-05
6.04813e-05
5.34428e-05
5.3441e-05
6.04813e-05
5.34449e-05
5.3441e-05
6.13185e-05
5.39562e-05
6.04831e-05
5.34482e-05
5.34423e-05
5.39537e-05
5.30573e-05
4.92436e-05
5.15499e-05
5.15452e-05
4.77449e-05
4.77396e-05
5.30559e-05
4.92409e-05
5.15502e-05
5.15482e-05
4.77438e-05
4.77423e-05
5.15483e-05
4.77443e-05
4.77431e-05
5.3058e-05
4.9243e-05
5.15492e-05
4.77474e-05
4.77423e-05
4.92422e-05
4.90269e-05
4.86477e-05
4.71104e-05
4.71051e-05
4.6472e-05
4.64672e-05
4.90243e-05
4.86456e-05
4.71089e-05
4.71079e-05
4.64698e-05
4.647e-05
4.71087e-05
4.64704e-05
4.6471e-05
4.90261e-05
4.86477e-05
4.71075e-05
4.64733e-05
4.64691e-05
4.86472e-05
4.88138e-05
5.00829e-05
4.65005e-05
4.64959e-05
4.75949e-05
4.75914e-05
4.88119e-05
5.00823e-05
4.64982e-05
4.64986e-05
4.75926e-05
4.7594e-05
4.64996e-05
4.75945e-05
4.75951e-05
4.8814e-05
5.00843e-05
4.64976e-05
4.75972e-05
4.75931e-05
5.00838e-05
5.0306e-05
5.07279e-05
4.79662e-05
4.79629e-05
4.84379e-05
4.84337e-05
5.03056e-05
5.07272e-05
4.79638e-05
4.79653e-05
4.84369e-05
4.84358e-05
4.79665e-05
4.84388e-05
4.8437e-05
5.03074e-05
5.0729e-05
4.79645e-05
4.8441e-05
4.84364e-05
5.07281e-05
5.0615e-05
4.76801e-05
4.76759e-05
5.0614e-05
4.76798e-05
4.76781e-05
3.83605e-05
3.83623e-05
3.83606e-05
4.76788e-05
5.06159e-05
4.76789e-05
3.73773e-05
3.73765e-05
3.7377e-05
3.7377e-05
3.73701e-05
3.73777e-05
3.73043e-05
3.73768e-05
3.73701e-05
3.73777e-05
3.73768e-05
3.73043e-05
3.73741e-05
3.72959e-05
3.72959e-05
3.58805e-05
4.08712e-05
3.66032e-05
4.51454e-05
5.51149e-05
6.48951e-05
3.58803e-05
4.08723e-05
3.66033e-05
4.51456e-05
3.58932e-05
3.58932e-05
3.58932e-05
3.44005e-05
3.44005e-05
3.44005e-05
3.44005e-05
3.52758e-05
3.56379e-05
3.58929e-05
3.53771e-05
3.60475e-05
3.42378e-05
3.53822e-05
5.51167e-05
6.48973e-05
3.52759e-05
3.58929e-05
3.56377e-05
3.53771e-05
3.60475e-05
3.53822e-05
3.42375e-05
3.65967e-05
3.65975e-05
3.5279e-05
3.40645e-05
3.40634e-05
3.39676e-05
5.13523e-05
3.46791e-05
5.46243e-05
7.65453e-05
8.08615e-05
3.39674e-05
5.13534e-05
3.46792e-05
5.46252e-05
3.39296e-05
3.39296e-05
3.39297e-05
3.25854e-05
3.25854e-05
3.25855e-05
3.25855e-05
3.30542e-05
3.24736e-05