/*--------------------------------*- C++ -*----------------------------------*\
| =========                 |                                                 |
| \\      /  F ield         | OpenFOAM: The Open Source CFD Toolbox           |
|  \\    /   O peration     | Version:  v2012                                 |
|   \\  /    A nd           | Website:  www.openfoam.com                      |
|    \\/     M anipulation  |                                                 |
\*---------------------------------------------------------------------------*/
FoamFile
{
    version     2.0;
    format      ascii;
    class       volScalarField;
    location    "375";
    object      p;
}
// * * * * * * * * * * * * * * * * * * * * * * * * * * * * * * * * * * * * * //

dimensions      [0 2 -2 0 0 0 0];


internalField   nonuniform List<scalar> 
171728
(
0.00352707
0.00352596
0.00352603
0.00352674
0.0034915
0.00348994
0.00349002
0.00349291
0.0034532
0.00345116
0.00345114
0.00345353
0.00340902
0.00340738
0.00340733
0.00340958
0.00336078
0.00335932
0.00335935
0.00336164
0.00331192
0.00331053
0.00331049
0.00331291
0.00326381
0.00326246
0.00326252
0.00326486
0.0032166
0.00321548
0.00321551
0.00321788
0.00317023
0.00316923
0.00316926
0.00317166
0.00312489
0.00312401
0.00312404
0.00312645
0.00308052
0.00307975
0.00307976
0.00308213
0.00303684
0.00303621
0.00303621
0.00303857
0.00299374
0.00299319
0.00299326
0.00299554
0.00295105
0.00295071
0.00295071
0.00295293
0.00290868
0.00290829
0.0029084
0.00291066
0.00286663
0.00286623
0.00286645
0.0028686
0.00282493
0.00282464
0.00282479
0.00282695
0.00278356
0.00278337
0.00278341
0.0027856
0.00274257
0.00274245
0.00274234
0.00274457
0.00270195
0.00270189
0.00270191
0.00270385
0.00266165
0.00266157
0.00266164
0.00266342
0.00262165
0.00262168
0.00262175
0.00262337
0.00258192
0.00258181
0.00258202
0.00258364
0.00254248
0.00254254
0.00254264
0.00254428
0.00250328
0.00250349
0.00250346
0.00250518
0.0024643
0.00246455
0.00246446
0.00246625
0.00242557
0.00242584
0.00242592
0.00242766
0.00238705
0.00238742
0.00238745
0.00238929
0.00234872
0.00234912
0.00234905
0.00235104
0.00231058
0.00231098
0.00231097
0.00231296
0.00227262
0.00227309
0.00227307
0.00227498
0.0022348
0.00223529
0.00223528
0.00223724
0.00219712
0.00219763
0.00219763
0.00219949
0.0021596
0.0021601
0.0021601
0.00216194
0.0021222
0.0021227
0.00212269
0.00212457
0.00208494
0.00208543
0.00208543
0.00208732
0.00204784
0.00204822
0.00204825
0.00205012
0.00201083
0.00201126
0.00201122
0.00201319
0.00197402
0.00197427
0.00197432
0.00197619
0.0019372
0.00193754
0.0019375
0.00193952
0.00190077
0.00190089
0.00190086
0.00190285
0.00186413
0.00186428
0.00186438
0.00186635
0.00182799
0.00182803
0.00182796
0.00183
0.00179158
0.00179165
0.00179174
0.00179375
0.00175582
0.00175568
0.00175553
0.0017577
0.00171959
0.00171962
0.00171972
0.00172167
0.00168403
0.00168382
0.00168377
0.00168589
0.00164809
0.00164793
0.00164799
0.00165007
0.00161272
0.00161266
0.00161244
0.00161454
0.00157733
0.00157683
0.00157715
0.00157904
0.00154168
0.00154151
0.00154138
0.00154359
0.00150651
0.00150656
0.00150632
0.00150839
0.00147147
0.001471
0.00147124
0.00147315
0.00143666
0.00143614
0.00143602
0.00143808
0.00140126
0.00140105
0.00140119
0.00140317
0.00136637
0.00136646
0.0013661
0.00136814
0.0013316
0.00133107
0.00133135
0.00133324
0.00129699
0.0012965
0.00129667
0.00129852
0.00126194
0.00126203
0.00126178
0.00126375
0.00122746
0.00122696
0.00122695
0.00122905
0.00119264
0.00119252
0.00119262
0.00119428
0.00115808
0.00115809
0.00115804
0.00116009
0.00112394
0.0011233
0.00112335
0.00112527
0.00108913
0.00108912
0.00108905
0.00109093
0.00105461
0.00105452
0.0010546
0.00105646
0.00102015
0.0010199
0.00101981
0.00102176
0.000985609
0.000985352
0.000985471
0.000987341
0.000951166
0.000951129
0.000950948
0.000952948
0.000916728
0.000916422
0.000916547
0.000918372
0.000882102
0.000882118
0.000882122
0.000884113
0.000847762
0.000847631
0.000847579
0.000849439
0.000813211
0.000812872
0.000812893
0.000814833
0.000778609
0.00077869
0.000778638
0.000780683
0.000744226
0.000744162
0.000744288
0.000746088
0.000709784
0.000709468
0.000709444
0.000711415
0.00067495
0.00067494
0.000674812
0.000676813
0.00064033
0.000640315
0.000640392
0.000642326
0.000605633
0.000605491
0.000605615
0.000607477
0.000571172
0.000571144
0.000571012
0.00057305
0.000536155
0.00053602
0.000535988
0.00053795
0.000500713
0.000500663
0.000500693
0.000502671
0.00046629
0.000466397
0.000466448
0.000468424
0.000432719
0.000432738
0.000432746
0.000434661
0.000398271
0.000397697
0.000397664
0.000399479
0.000361982
0.000361651
0.000361641
0.00036356
0.000324115
0.000324731
0.000324735
0.00032705
0.000286919
0.000287495
0.0002875
0.000289849
0.000251449
0.000251668
0.000251672
0.000253785
0.000219308
0.000219249
0.00021925
0.000220969
0.0001891
0.000188365
0.000188367
0.000189825
0.000155596
0.000155077
0.000155075
0.000156808
0.000117452
0.000117175
0.000117174
0.000119236
7.6101e-05
7.66048e-05
7.66014e-05
7.90578e-05
3.65925e-05
3.65113e-05
3.65085e-05
3.88883e-05
6.13102e-06
7.1274e-06
7.12477e-06
5.34972e-06
0.00353153
0.00352907
0.00352901
0.00353144
0.00352908
0.00352911
0.00353548
0.00353544
0.00353551
0.00353547
0.00352898
0.00352907
0.00353155
0.00352911
0.00352919
0.00353155
0.00352675
0.00349768
0.00352599
0.00352597
0.0034996
0.00349962
0.00352669
0.00349769
0.00352599
0.00352602
0.00349961
0.00349961
0.00352599
0.00349966
0.00349963
0.00352676
0.00349769
0.00352601
0.0034996
0.00349965
0.00349771
0.00349289
0.00345905
0.00348998
0.00348992
0.00346139
0.00346145
0.00349287
0.00345906
0.00348999
0.00348998
0.00346142
0.00346137
0.00349
0.00346145
0.00346139
0.00349289
0.00345904
0.00349004
0.00346138
0.00346145
0.00345905
0.00345354
0.00341574
0.0034512
0.00345119
0.00341882
0.00341882
0.00345353
0.00341572
0.00345121
0.00345121
0.00341882
0.00341886
0.0034512
0.00341882
0.00341886
0.00345352
0.00341574
0.00345124
0.00341868
0.00341884
0.00341574
0.00340956
0.00336813
0.00340733
0.00340738
0.00337146
0.0033715
0.00340955
0.00336814
0.00340733
0.0034073
0.00337148
0.00337149
0.00340733
0.00337146
0.0033715
0.00340956
0.00336812
0.00340746
0.00337139
0.00337161
0.00336812
0.00336166
0.00331937
0.00335932
0.00335928
0.00332268
0.00332269
0.00336165
0.00331934
0.00335933
0.00335931
0.0033227
0.00332268
0.00335931
0.00332273
0.00332267
0.00336164
0.00331936
0.00335927
0.00332261
0.00332262
0.00331937
0.00331294
0.00327125
0.00331056
0.00331058
0.00327445
0.0032745
0.0033129
0.00327126
0.00331056
0.00331056
0.00327446
0.00327447
0.00331055
0.00327445
0.00327445
0.00331292
0.00327123
0.00331045
0.00327442
0.00327431
0.00327119
0.00326494
0.00322405
0.00326258
0.00326247
0.00322721
0.00322717
0.00326492
0.00322409
0.00326257
0.00326257
0.0032272
0.00322721
0.00326255
0.00322711
0.00322717
0.00326492
0.00322402
0.00326235
0.00322717
0.00322713
0.00322406
0.00321787
0.00317769
0.0032155
0.00321542
0.00318071
0.00318072
0.00321786
0.0031777
0.00321551
0.00321553
0.00318072
0.00318074
0.00321555
0.00318066
0.0031807
0.00321785
0.00317768
0.00321538
0.0031807
0.00318066
0.0031777
0.00317163
0.0031323
0.00316924
0.0031692
0.00313522
0.00313527
0.00317161
0.00313238
0.00316924
0.00316927
0.00313523
0.00313525
0.00316925
0.00313524
0.00313526
0.00317164
0.00313231
0.00316923
0.00313524
0.00313521
0.00313234
0.00312639
0.00308793
0.00312402
0.00312401
0.00309075
0.0030908
0.00312645
0.00308791
0.003124
0.00312404
0.00309076
0.00309079
0.00312406
0.00309077
0.00309079
0.00312641
0.00308792
0.00312403
0.00309079
0.00309078
0.00308792
0.00308214
0.00304427
0.00307976
0.00307978
0.00304706
0.00304704
0.00308213
0.00304425
0.00307976
0.00307976
0.00304704
0.00304703
0.00307975
0.00304706
0.00304702
0.00308213
0.00304426
0.00307976
0.00304704
0.00304703
0.00304425
0.00303857
0.00300119
0.00303617
0.0030362
0.00300391
0.00300388
0.00303857
0.00300117
0.00303618
0.00303621
0.00300391
0.00300387
0.00303623
0.00300391
0.00300394
0.00303859
0.00300115
0.00303621
0.00300386
0.00300394
0.00300116
0.00299558
0.00295853
0.00299324
0.00299321
0.00296124
0.00296124
0.00299557
0.00295849
0.00299324
0.00299325
0.00296124
0.00296122
0.0029932
0.00296122
0.00296127
0.00299558
0.00295851
0.0029932
0.00296122
0.00296126
0.00295848
0.00295299
0.00291614
0.00295062
0.00295068
0.00291876
0.00291896
0.00295297
0.00291614
0.00295064
0.00295072
0.00291879
0.0029189
0.00295054
0.00291897
0.00291883
0.00295301
0.00291617
0.00295056
0.0029189
0.00291882
0.00291613
0.00291069
0.00287406
0.00290839
0.0029083
0.00287677
0.00287689
0.00291062
0.00287406
0.00290837
0.00290842
0.00287677
0.00287684
0.00290834
0.00287688
0.00287683
0.00291071
0.0028741
0.00290834
0.00287681
0.00287686
0.00287406
0.00286868
0.00283235
0.00286639
0.00286624
0.00283515
0.00283509
0.00286859
0.00283231
0.0028664
0.00286647
0.00283517
0.00283509
0.00286626
0.00283508
0.00283505
0.00286871
0.00283234
0.00286624
0.0028351
0.00283502
0.0028323
0.00282696
0.00279089
0.00282471
0.0028246
0.00279374
0.00279373
0.0028269
0.00279086
0.00282467
0.0028248
0.00279373
0.00279363
0.0028247
0.00279375
0.00279375
0.002827
0.00279092
0.00282471
0.00279362
0.00279375
0.00279091
0.00278553
0.00274974
0.00278333
0.00278333
0.00275268
0.00275276
0.00278553
0.0027498
0.00278333
0.00278343
0.00275269
0.0027526
0.00278344
0.00275278
0.00275273
0.00278563
0.00274971
0.00278344
0.0027526
0.00275274
0.00274985
0.00274449
0.002709
0.00274244
0.00274244
0.00271202
0.00271204
0.00274453
0.00270907
0.00274242
0.00274233
0.00271202
0.00271203
0.00274245
0.00271202
0.00271198
0.00274446
0.00270895
0.00274246
0.00271203
0.002712
0.00270905
0.00270384
0.00266857
0.00270184
0.00270189
0.00267162
0.00267161
0.00270385
0.0026686
0.00270184
0.00270192
0.00267164
0.00267166
0.00270191
0.00267161
0.00267164
0.00270383
0.00266848
0.00270189
0.00267164
0.00267165
0.00266851
0.00266346
0.00262846
0.00266158
0.00266159
0.00263157
0.0026316
0.00266342
0.00262852
0.00266159
0.00266163
0.00263158
0.00263166
0.00266165
0.0026316
0.00263164
0.0026634
0.00262838
0.00266166
0.00263165
0.00263165
0.00262843
0.00262338
0.00258863
0.00262164
0.00262166
0.00259187
0.00259184
0.00262339
0.00258871
0.00262165
0.00262173
0.00259189
0.00259186
0.00262164
0.00259185
0.00259187
0.00262337
0.00258859
0.00262163
0.00259185
0.00259187
0.00258869
0.00258363
0.0025492
0.00258198
0.0025818
0.00255247
0.00255251
0.00258354
0.00254936
0.00258198
0.00258201
0.00255247
0.00255241
0.00258194
0.00255249
0.00255245
0.00258358
0.00254922
0.00258193
0.00255241
0.00255243
0.00254927
0.00254424
0.00251012
0.0025426
0.00254254
0.00251326
0.00251333
0.00254429
0.00251024
0.00254259
0.00254264
0.00251327
0.00251316
0.00254259
0.00251332
0.00251326
0.00254424
0.0025101
0.00254258
0.00251316
0.00251325
0.00251013
0.00250519
0.00247117
0.00250349
0.00250349
0.00247422
0.00247423
0.00250529
0.00247107
0.00250349
0.00250345
0.00247423
0.00247424
0.00250346
0.00247423
0.00247427
0.00250514
0.00247125
0.00250346
0.00247424
0.00247426
0.00247119
0.00246623
0.00243261
0.00246453
0.00246454
0.00243552
0.0024355
0.0024662
0.00243253
0.00246453
0.00246446
0.00243552
0.00243561
0.00246454
0.0024355
0.00243554
0.00246617
0.00243287
0.00246454
0.00243561
0.00243554
0.0024326
0.00242765
0.00239418
0.00242585
0.00242584
0.00239701
0.00239705
0.00242754
0.00239438
0.00242585
0.00242593
0.00239699
0.00239696
0.00242588
0.00239705
0.002397
0.00242794
0.00239385
0.00242588
0.00239696
0.00239699
0.00239419
0.00238928
0.00235591
0.0023874
0.00238741
0.00235863
0.00235864
0.00238947
0.0023557
0.0023874
0.00238745
0.00235864
0.00235859
0.00238743
0.00235864
0.00235864
0.00238909
0.00235607
0.00238741
0.0023586
0.00235865
0.00235597
0.00235099
0.00231785
0.00234909
0.00234912
0.00232051
0.00232051
0.00235081
0.00231801
0.00234909
0.00234905
0.0023205
0.00232049
0.00234909
0.00232051
0.00232051
0.00235107
0.00231775
0.00234909
0.00232049
0.00232051
0.00231785
0.00231294
0.00227987
0.00231098
0.00231098
0.00228254
0.00228254
0.00231305
0.00227982
0.00231098
0.00231097
0.00228254
0.00228256
0.00231101
0.00228254
0.00228253
0.00231288
0.00227989
0.002311
0.00228257
0.00228253
0.00227989
0.00227496
0.0022421
0.00227306
0.00227309
0.00224473
0.0022447
0.00227495
0.00224212
0.00227307
0.00227307
0.00224473
0.00224472
0.00227309
0.0022447
0.00224471
0.00227498
0.00224208
0.00227309
0.00224472
0.0022447
0.00224213
0.00223719
0.00220441
0.00223529
0.00223529
0.00220703
0.00220702
0.00223721
0.00220442
0.00223529
0.00223528
0.00220703
0.00220702
0.00223528
0.00220703
0.00220701
0.00223716
0.00220442
0.00223528
0.00220702
0.002207
0.00220437
0.00219952
0.00216686
0.00219763
0.00219763
0.00216948
0.00216948
0.00219955
0.00216683
0.00219763
0.00219762
0.00216947
0.00216948
0.00219761
0.00216948
0.00216949
0.00219952
0.00216688
0.00219761
0.00216948
0.00216948
0.00216685
0.00216198
0.00212944
0.00216011
0.00216009
0.00213202
0.00213204
0.00216193
0.00212946
0.00216011
0.00216011
0.00213203
0.00213203
0.00216011
0.00213204
0.00213202
0.00216198
0.00212944
0.0021601
0.00213203
0.00213204
0.00212947
0.00212455
0.00209218
0.00212268
0.00212271
0.00209474
0.00209473
0.00212456
0.00209216
0.00212268
0.00212269
0.00209473
0.00209472
0.00212269
0.00209473
0.00209473
0.00212456
0.00209218
0.00212269
0.00209472
0.00209474
0.00209219
0.0020873
0.00205501
0.00208543
0.00208541
0.00205753
0.0020575
0.00208726
0.00205504
0.00208543
0.00208542
0.00205754
0.00205755
0.00208545
0.0020575
0.00205752
0.0020873
0.00205503
0.00208545
0.00205755
0.00205752
0.002055
0.00205014
0.002018
0.00204824
0.00204824
0.00202046
0.00202052
0.0020502
0.00201797
0.00204825
0.00204826
0.00202044
0.00202044
0.0020482
0.00202053
0.00202047
0.00205015
0.00201799
0.00204822
0.00202045
0.00202044
0.00201803
0.00201314
0.00198112
0.00201123
0.00201125
0.00198355
0.00198347
0.00201306
0.0019811
0.00201122
0.00201121
0.00198356
0.00198355
0.00201125
0.00198347
0.00198355
0.00201314
0.00198109
0.00201122
0.00198354
0.00198358
0.00198107
0.00197624
0.00194431
0.00197431
0.00197426
0.00194666
0.00194674
0.00197629
0.00194437
0.00197433
0.00197432
0.00194666
0.00194668
0.00197432
0.00194674
0.00194665
0.00197622
0.00194436
0.00197432
0.00194668
0.00194665
0.00194434
0.00193949
0.0019077
0.00193748
0.00193756
0.00191005
0.00191003
0.00193952
0.0019077
0.00193748
0.00193751
0.00191005
0.00191002
0.00193748
0.00191004
0.00191008
0.00193953
0.00190763
0.00193748
0.00191002
0.00191009
0.00190772
0.00190284
0.00187122
0.00190091
0.00190087
0.00187346
0.00187341
0.00190284
0.00187109
0.00190091
0.00190086
0.00187346
0.00187348
0.00190091
0.00187341
0.00187342
0.00190279
0.00187128
0.00190094
0.00187349
0.00187337
0.00187115
0.00186641
0.00183475
0.00186434
0.00186429
0.00183704
0.0018371
0.00186629
0.00183493
0.00186433
0.00186438
0.00183705
0.00183705
0.00186432
0.00183709
0.00183708
0.00186644
0.00183474
0.00186426
0.00183704
0.00183715
0.00183485
0.00182993
0.00179865
0.00182795
0.00182803
0.00180078
0.0018007
0.00183009
0.00179845
0.00182795
0.00182795
0.00180077
0.00180078
0.00182799
0.0018007
0.00180074
0.00182994
0.00179863
0.00182805
0.0018008
0.00180068
0.00179853
0.00179385
0.00176241
0.00179175
0.00179166
0.00176466
0.00176468
0.00179367
0.00176256
0.00179175
0.00179173
0.00176467
0.00176459
0.00179168
0.00176468
0.00176463
0.0017938
0.00176236
0.00179167
0.00176456
0.00176466
0.00176249
0.0017576
0.00172652
0.0017556
0.00175567
0.00172858
0.00172861
0.00175774
0.0017265
0.0017556
0.00175558
0.00172856
0.00172863
0.00175565
0.0017286
0.00172865
0.00175759
0.00172658
0.00175564
0.00172866
0.00172863
0.00172648
0.00172176
0.00169062
0.00171964
0.00171964
0.0016928
0.00169275
0.00172172
0.00169061
0.00171964
0.00171969
0.00169281
0.00169281
0.00171962
0.00169277
0.00169272
0.0017218
0.00169059
0.00171962
0.0016928
0.00169272
0.00169065
0.00168582
0.00165491
0.00168378
0.0016838
0.00165695
0.0016569
0.00168584
0.00165482
0.00168378
0.0016838
0.00165695
0.00165688
0.00168381
0.00165688
0.00165694
0.0016858
0.00165487
0.00168384
0.00165689
0.00165701
0.00165484
0.00165015
0.00161929
0.00164806
0.00164796
0.00162141
0.00162144
0.00165006
0.0016194
0.00164808
0.001648
0.00162142
0.0016214
0.001648
0.00162144
0.00162138
0.00165011
0.00161925
0.00164801
0.00162133
0.00162125
0.00161929
0.00161454
0.00158369
0.00161252
0.00161264
0.00158578
0.00158584
0.00161467
0.0015837
0.0016125
0.00161249
0.00158572
0.00158584
0.00161253
0.00158587
0.00158583
0.0016145
0.00158384
0.00161244
0.00158598
0.00158601
0.0015838
0.00157893
0.00154835
0.00157688
0.00157682
0.00155034
0.00155018
0.0015789
0.00154821
0.00157685
0.00157704
0.00155043
0.00155038
0.00157692
0.0015502
0.00155036
0.0015791
0.00154828
0.00157708
0.00155033
0.00155031
0.00154832
0.00154364
0.00151318
0.00154156
0.00154149
0.00151526
0.00151544
0.00154352
0.00151341
0.00154165
0.00154145
0.00151519
0.00151504
0.00154157
0.0015154
0.00151522
0.00154353
0.00151306
0.00154152
0.00151502
0.00151517
0.00151313
0.00150843
0.00147785
0.00150644
0.00150664
0.00147993
0.00147983
0.00150869
0.00147775
0.0015063
0.00150631
0.00147991
0.00148009
0.00150634
0.00147982
0.00147989
0.00150835
0.00147797
0.0015063
0.0014801
0.00147991
0.00147787
0.00147313
0.00144274
0.00147111
0.00147096
0.00144476
0.00144479
0.00147304
0.00144273
0.00147117
0.00147129
0.00144487
0.00144478
0.00147114
0.00144488
0.0014449
0.00147324
0.00144273
0.00147119
0.00144479
0.00144491
0.0014428
0.00143801
0.00140788
0.00143601
0.00143607
0.00140988
0.00140982
0.001438
0.00140776
0.00143607
0.00143601
0.00140986
0.00140984
0.00143611
0.00140977
0.00140981
0.00143801
0.00140788
0.00143611
0.00140989
0.00140989
0.00140785
0.00140321
0.00137294
0.00140119
0.0014011
0.00137507
0.00137514
0.00140309
0.0013732
0.00140116
0.00140116
0.00137498
0.00137503
0.00140111
0.00137512
0.00137507
0.0014032
0.00137286
0.00140119
0.00137496
0.00137494
0.00137291
0.00136818
0.00133787
0.00136623
0.00136647
0.00133992
0.0013399
0.0013685
0.0013378
0.00136615
0.00136619
0.00133993
0.00133988
0.00136628
0.00133992
0.00133991
0.0013681
0.00133791
0.00136602
0.00133994
0.00133992
0.0013379
0.00133321
0.00130322
0.00133125
0.00133105
0.00130524
0.00130506
0.00133305
0.00130305
0.00133131
0.00133129
0.00130537
0.00130542
0.00133125
0.00130509
0.00130527
0.00133327
0.00130334
0.00133136
0.0013054
0.00130543
0.00130324
0.00129851
0.00126845
0.00129653
0.00129647
0.00127052
0.00127072
0.0012984
0.00126867
0.00129663
0.0012967
0.00127042
0.0012705
0.00129656
0.00127071
0.00127051
0.00129863
0.00126838
0.00129665
0.00127051
0.00127038
0.00126842
0.00126378
0.0012338
0.0012619
0.00126207
0.00123588
0.00123574
0.00126398
0.00123366
0.00126176
0.00126176
0.00123587
0.00123564
0.00126185
0.0012357
0.00123584
0.00126367
0.00123365
0.00126171
0.00123561
0.00123585
0.00123377
0.00122907
0.00119894
0.00122711
0.00122699
0.00120097
0.00120103
0.00122893
0.001199
0.00122716
0.00122697
0.00120102
0.00120117
0.0012271
0.00120105
0.00120098
0.00122897
0.0011991
0.00122718
0.00120118
0.00120102
0.00119894
0.00119427
0.00116472
0.00119236
0.00119249
0.00116672
0.00116676
0.00119438
0.00116473
0.00119239
0.00119261
0.00116667
0.00116673
0.00119236
0.0011668
0.00116671
0.00119445
0.00116469
0.00119237
0.00116674
0.00116664
0.00116471
0.00116008
0.00112997
0.00115815
0.00115808
0.00113208
0.00113195
0.00116004
0.00112987
0.0011581
0.00115803
0.0011321
0.00113197
0.00115815
0.00113191
0.0011321
0.00116001
0.00112991
0.0011581
0.00113197
0.00113214
0.00112998
0.00112526
0.00109557
0.00112337
0.00112331
0.00109759
0.00109767
0.00112518
0.00109564
0.0011234
0.00112335
0.00109759
0.00109765
0.00112341
0.00109768
0.00109764
0.00112522
0.00109561
0.00112343
0.00109763
0.00109763
0.00109558
0.00109094
0.00106118
0.00108903
0.00108912
0.00106317
0.0010632
0.00109101
0.00106118
0.00108903
0.00108909
0.00106319
0.00106323
0.00108905
0.00106318
0.00106312
0.00109097
0.0010612
0.00108904
0.00106324
0.00106316
0.00106114
0.00105648
0.00102652
0.00105452
0.00105453
0.00102858
0.00102858
0.00105648
0.00102653
0.00105451
0.00105456
0.00102854
0.00102852
0.00105448
0.0010286
0.00102857
0.0010565
0.00102648
0.0010545
0.0010285
0.00102849
0.00102647
0.00102183
0.000991927
0.00101994
0.0010199
0.000993943
0.000993929
0.00102181
0.000991887
0.00101992
0.00101987
0.000994009
0.000994011
0.00101987
0.000993909
0.00099395
0.00102177
0.00099199
0.00101983
0.000994023
0.000994061
0.000991981
0.000987247
0.000957674
0.000985336
0.000985346
0.000959696
0.000959718
0.000987229
0.000957747
0.000985373
0.000985396
0.000959626
0.000959594
0.000985413
0.000959744
0.000959772
0.000987326
0.000957578
0.000985519
0.000959602
0.000959644
0.000957659
0.000953026
0.000923103
0.000951144
0.000951132
0.000925125
0.000925104
0.000953067
0.000923032
0.00095107
0.000951016
0.000925198
0.000925182
0.000951109
0.000925081
0.000925032
0.000952895
0.000923144
0.000950956
0.000925126
0.000925071
0.000923043
0.000918376
0.000888627
0.000916422
0.000916425
0.000890598
0.000890633
0.000918313
0.0008887
0.000916505
0.000916526
0.000890602
0.00089066
0.00091641
0.00089066
0.000890728
0.000918463
0.000888707
0.000916516
0.000890756
0.0008908
0.000888797
0.000883982
0.000854324
0.000882068
0.000882095
0.000856338
0.000856363
0.000884064
0.000854305
0.000882027
0.000882079
0.00085629
0.00085631
0.000882157
0.000856336
0.000856235
0.000884026
0.00085425
0.00088214
0.000856228
0.000856133
0.000854157
0.00084959
0.000819557
0.000847645
0.000847662
0.000821581
0.000821528
0.000849552
0.000819484
0.000847647
0.000847653
0.000821644
0.000821557
0.00084754
0.000821512
0.000821517
0.000849535
0.000819533
0.000847494
0.000821548
0.000821579
0.000819523
0.00081485
0.000785163
0.000812959
0.000812886
0.000787165
0.000787176
0.000814787
0.000785259
0.000812983
0.000812885
0.000787096
0.000787088
0.000812916
0.000787215
0.000787288
0.000814825
0.000785162
0.000812973
0.000787163
0.000787259
0.000785333
0.000780498
0.000750859
0.000778571
0.000778632
0.000752792
0.00075284
0.000780612
0.00075084
0.000778511
0.000778557
0.00075283
0.000752952
0.000778735
0.000752852
0.000752803
0.000780515
0.000750984
0.000778682
0.000752934
0.000752811
0.000750808
0.000746174
0.000716213
0.000744187
0.000744191
0.00071827
0.000718196
0.000746111
0.000716139
0.000744252
0.000744355
0.000718285
0.000718209
0.000744137
0.000718133
0.00071818
0.00074628
0.000716129
0.000744166
0.000718145
0.000718193
0.000716143
0.000711462
0.000681455
0.000709568
0.000709507
0.000683492
0.000683513
0.000711414
0.000681538
0.000709554
0.000709474
0.000683444
0.000683396
0.000709512
0.000683552
0.000683513
0.000711386
0.000681411
0.000709508
0.000683432
0.000683464
0.000681506
0.000676742
0.000647017
0.000674835
0.000674888
0.000648967
0.000649018
0.00067684
0.000647032
0.000674791
0.000674763
0.000648964
0.000648984
0.000674889
0.000649023
0.000648999
0.000676709
0.000647061
0.00067484
0.00064902
0.000649027
0.00064705
0.000642312
0.000612286
0.000640323
0.000640334
0.000614243
0.000614183
0.000642294
0.000612176
0.000640342
0.000640373
0.000614306
0.000614361
0.000640317
0.000614154
0.000614189
0.000642361
0.000612343
0.000640374
0.000614322
0.000614245
0.000612214
0.000607537
0.000577678
0.000605552
0.000605507
0.000579676
0.000579701
0.000607446
0.000577763
0.000605604
0.000605655
0.000579654
0.000579655
0.000605523
0.000579724
0.000579731
0.000607589
0.000577636
0.000605551
0.000579655
0.000579681
0.000577739
0.000572979
0.000542777
0.000571082
0.000571119
0.00054485
0.000544867
0.000573083
0.000542792
0.000571034
0.000570998
0.000544822
0.000544792
0.000571139
0.000544863
0.000544846
0.000572921
0.000542743
0.000571076
0.000544803
0.000544832
0.00054277
0.000537959
0.000507439
0.000536019
0.000536029
0.000509432
0.000509436
0.000537966
0.000507416
0.000536005
0.000535981
0.000509446
0.000509435
0.000536003
0.000509426
0.000509411
0.000537928
0.000507448
0.000536005
0.000509434
0.000509434
0.000507421
0.000502683
0.000473044
0.000500668
0.00050067
0.000474885
0.000474879
0.000502659
0.000473028
0.000500688
0.000500694
0.000474905
0.000474933
0.000500653
0.000474882
0.000474891
0.000502702
0.000473079
0.000500679
0.000474935
0.000474912
0.000473052
0.000468413
0.000439302
0.000466402
0.000466394
0.000441191
0.000441182
0.000468398
0.0004393
0.000466418
0.000466445
0.000441191
0.000441211
0.000466411
0.000441184
0.000441197
0.000468449
0.000439312
0.000466428
0.00044121
0.000441196
0.000439304
0.000434662
0.000404318
0.00043275
0.000432739
0.000406569
0.000406562
0.000434661
0.000404322
0.000432744
0.00043275
0.000406555
0.000406527
0.000432752
0.00040656
0.000406556
0.00043466
0.000404287
0.000432741
0.00040652
0.000406534
0.000404302
0.000399493
0.000368568
0.000397701
0.0003977
0.000370808
0.00037081
0.000399497
0.000368567
0.000397691
0.000397669
0.000370808
0.000370796
0.000397689
0.000370809
0.000370801
0.000399467
0.000368555
0.000397674
0.000370794
0.0003708
0.00036856
0.000363566
0.000332078
0.00036165
0.000361651
0.000333942
0.000333949
0.000363563
0.00033208
0.000361652
0.000361642
0.000333949
0.000333949
0.000361644
0.000333952
0.000333939
0.000363554
0.000332084
0.000361645
0.000333954
0.000333952
0.00033208
0.000327046
0.00029491
0.000324721
0.000324725
0.00029677
0.000296772
0.000327046
0.000294909
0.000324732
0.000324726
0.000296771
0.000296776
0.000324718
0.000296772
0.000296774
0.000327051
0.000294913
0.000324742
0.000296777
0.000296776
0.000294912
0.000289845
0.000258529
0.000287494
0.000287495
0.000260371
0.000260372
0.000289845
0.000258529
0.000287495
0.000287498
0.000260373
0.000260378
0.000287497
0.000260371
0.000260373
0.00028985
0.000258534
0.000287499
0.000260376
0.000260373
0.000258529
0.000253784
0.000225245
0.00025167
0.000251669
0.00022703
0.000227024
0.000253783
0.000225242
0.000251672
0.000251675
0.000227029
0.000227025
0.000251671
0.000227024
0.000227024
0.000253789
0.000225243
0.000251671
0.000227028
0.000227024
0.000225241
0.000220971
0.000194038
0.000219252
0.000219249
0.000196119
0.000196119
0.000220968
0.000194041
0.000219252
0.00021925
0.000196118
0.000196117
0.000219249
0.000196119
0.000196118
0.000220969
0.000194038
0.000219249
0.000196117
0.000196117
0.00019404
0.000189823
0.000161589
0.000188368
0.000188365
0.000163818
0.000163818
0.000189825
0.00016159
0.000188367
0.000188364
0.000163818
0.000163817
0.000188364
0.000163817
0.000163817
0.000189823
0.000161588
0.000188364
0.000163818
0.000163817
0.000161589
0.000156805
0.000124665
0.000155074
0.000155077
0.000127025
0.000127027
0.000156807
0.000124665
0.000155076
0.000155075
0.000127025
0.000127025
0.000155076
0.000127026
0.000127025
0.000156806
0.000124664
0.000155077
0.000127025
0.000127025
0.000124664
0.000119235
8.46299e-05
0.000117174
0.000117175
8.66919e-05
8.67003e-05
0.000119234
8.4631e-05
0.000117175
0.000117174
8.66916e-05
8.66989e-05
0.000117174
8.66928e-05
8.66991e-05
0.000119234
8.46287e-05
0.000117175
8.66907e-05
8.66908e-05
8.46287e-05
7.90598e-05
4.43575e-05
7.66058e-05
7.66051e-05
4.63716e-05
4.63691e-05
7.90597e-05
4.43564e-05
7.66049e-05
7.66031e-05
4.63683e-05
4.63657e-05
7.66046e-05
4.63678e-05
4.63665e-05
7.90573e-05
4.43532e-05
7.66015e-05
4.63636e-05
4.63642e-05
4.43524e-05
3.88913e-05
8.96251e-06
3.65159e-05
3.65133e-05
1.2163e-05
1.21642e-05
3.88895e-05
8.96326e-06
3.65114e-05
3.65111e-05
1.21677e-05
1.21608e-05
3.65105e-05
1.21662e-05
1.21607e-05
3.8887e-05
8.95912e-06
3.65086e-05
1.21637e-05
1.2166e-05
8.96105e-06
5.35163e-06
7.12587e-06
7.12518e-06
5.35137e-06
7.12832e-06
7.12272e-06
6.13143e-06
6.13084e-06
6.13165e-06
7.12404e-06
5.34735e-06
7.12639e-06
0.00353858
0.00354115
0.00353986
0.00354002
0.00356743
0.00354096
0.00357054
0.00354126
0.00356758
0.00354112
0.00354135
0.00357068
0.00355217
0.00357392
0.00357405
0.00351132
0.00352472
0.00352866
0.00350346
0.0035015
0.00350689
0.00351123
0.00352472
0.00352861
0.00350346
0.00352706
0.0035271
0.00352707
0.00350058
0.00350061
0.00350057
0.00350055
0.00351092
0.00352236
0.00352765
0.00351842
0.0035297
0.00350792
0.00351863
0.00350158
0.00350689
0.00351084
0.00352769
0.0035225
0.0035184
0.00352982
0.00351868
0.00350802
0.00352854
0.00352853
0.00351558
0.00350783
0.00350782
0.00348358
0.00349776
0.00349774
0.00348161
0.00349505
0.00348062
0.00348353
0.00349776
0.00349776
0.00348158
0.00349152
0.00349148
0.00349147
0.00346326
0.0034633
0.00346324
0.00346322
0.00348142
0.00349628
0.00348997
0.00348076
0.00349476
0.00348187
0.00348061
0.00349489
0.00348061
0.0034814
0.00348996
0.00349633
0.00348066
0.00349471
0.00348058
0.00348178
0.00349802
0.00349804
0.00347908
0.00348229
0.00348226
0.00344103
0.00345582
0.00345685
0.00343975
0.00345471
0.00343894
0.00344105
0.00345581
0.00345687
0.00343975
0.00345326
0.00345319
0.00345316
0.00342059
0.00342062
0.0034206
0.00342058
0.00343989
0.00345535
0.00345125
0.00344086
0.00345436
0.0034403
0.00344074
0.00345464
0.00343887
0.00343987
0.00345125
0.00345528
0.00344087
0.00345437
0.00344075
0.00344033
0.00345612
0.00345611
0.00343808
0.00344012
0.00344003
0.00339466
0.00341107
0.00341258
0.00339327
0.00341045
0.0033927
0.0033946
0.00341106
0.0034126
0.00339325
0.00340906
0.00340901
0.00340899
0.00337299
0.00337302
0.00337298
0.00337296
0.00339389
0.00341095
0.00340733
0.00339549
0.00341043
0.00339404
0.00339553
0.00341042
0.00339271
0.00339387
0.00340732
0.00341111
0.0033957
0.00341042
0.00339559
0.00339377
0.00341126
0.0034112
0.00339224
0.00339341
0.00339338
0.00334564
0.00336281
0.0033642
0.00334448
0.00336239
0.00334417
0.00334566
0.0033628
0.00336407
0.00334446
0.0033608
0.00336076
0.00336075
0.00332408
0.0033241
0.00332407
0.00332406
0.00334528
0.00336286
0.00335931
0.0033471
0.00336245
0.00334518
0.00334708
0.00336235
0.00334413
0.00334527
0.00335928
0.00336315
0.00334715
0.00336246
0.00334712
0.00334527
0.00336285
0.00336285
0.0033437
0.00334456
0.00334456
0.00329655
0.00331388
0.00331488
0.00329571
0.00331357
0.00329551
0.00329657
0.00331386
0.00331482
0.00329571
0.00331195
0.0033119
0.00331189
0.00327575
0.00327577
0.00327575
0.00327573
0.00329654
0.00331389
0.00331057
0.0032984