/*--------------------------------*- C++ -*----------------------------------*\
| =========                 |                                                 |
| \\      /  F ield         | OpenFOAM: The Open Source CFD Toolbox           |
|  \\    /   O peration     | Version:  v2006                                 |
|   \\  /    A nd           | Website:  www.openfoam.com                      |
|    \\/     M anipulation  |                                                 |
\*---------------------------------------------------------------------------*/
FoamFile
{
    version     2.0;
    format      ascii;
    class       volScalarField;
    location    "375";
    object      p;
}
// * * * * * * * * * * * * * * * * * * * * * * * * * * * * * * * * * * * * * //

dimensions      [0 2 -2 0 0 0 0];


internalField   nonuniform List<scalar> 
171728
(
0.00359987
0.0036002
0.0036002
0.00360325
0.00354452
0.00354493
0.00354493
0.00354792
0.00349376
0.00349374
0.00349374
0.00349649
0.00344138
0.00344139
0.00344139
0.00344417
0.00339003
0.00339004
0.00339004
0.00339279
0.00334006
0.00334006
0.00334007
0.00334278
0.00329153
0.00329154
0.00329154
0.00329423
0.0032443
0.00324432
0.00324433
0.00324698
0.00319818
0.0031982
0.0031982
0.00320082
0.00315294
0.00315296
0.00315297
0.00315556
0.00310843
0.00310845
0.00310845
0.00311103
0.00306453
0.00306454
0.00306455
0.00306708
0.00302113
0.00302115
0.00302115
0.00302367
0.00297821
0.00297823
0.00297822
0.00298072
0.0029357
0.00293572
0.00293572
0.00293821
0.00289362
0.00289363
0.00289361
0.00289611
0.00285191
0.0028519
0.00285191
0.00285438
0.00281056
0.00281055
0.00281055
0.00281303
0.00276955
0.00276954
0.00276953
0.00277199
0.00272884
0.00272882
0.00272883
0.00273128
0.00268844
0.0026884
0.0026884
0.00269085
0.00264829
0.00264825
0.00264825
0.0026507
0.0026084
0.00260835
0.00260835
0.00261079
0.00256875
0.00256869
0.00256869
0.00257112
0.00252932
0.00252926
0.00252926
0.00253168
0.00249011
0.00249005
0.00249005
0.00249245
0.00245111
0.00245105
0.00245105
0.00245344
0.0024123
0.00241225
0.00241226
0.00241462
0.00237369
0.00237365
0.00237365
0.002376
0.00233527
0.00233524
0.00233524
0.00233756
0.00229704
0.002297
0.002297
0.00229931
0.00225898
0.00225894
0.00225894
0.00226122
0.00222108
0.00222106
0.00222105
0.00222332
0.00218335
0.00218333
0.00218333
0.00218557
0.00214577
0.00214576
0.00214576
0.00214798
0.00210835
0.00210834
0.00210834
0.00211054
0.00207107
0.00207106
0.00207106
0.00207325
0.00203394
0.00203392
0.00203393
0.00203609
0.00199694
0.00199692
0.00199692
0.00199908
0.00196007
0.00196005
0.00196005
0.00196219
0.00192334
0.0019233
0.00192329
0.00192543
0.00188668
0.00188665
0.00188666
0.00188878
0.0018502
0.00185014
0.00185014
0.00185225
0.00181377
0.00181371
0.00181371
0.00181583
0.00177745
0.00177739
0.00177739
0.00177948
0.00174124
0.00174117
0.00174117
0.00174326
0.00170511
0.00170503
0.00170503
0.00170711
0.00166906
0.00166898
0.00166898
0.00167105
0.00163309
0.001633
0.001633
0.00163506
0.00159718
0.00159708
0.00159708
0.00159914
0.00156134
0.00156124
0.00156124
0.00156329
0.00152557
0.00152545
0.00152545
0.0015275
0.00148984
0.00148973
0.00148973
0.00149177
0.00145417
0.00145405
0.00145405
0.00145609
0.00141854
0.00141842
0.00141842
0.00142045
0.00138296
0.00138283
0.00138283
0.00138486
0.00134741
0.00134728
0.00134728
0.00134931
0.0013119
0.00131177
0.00131177
0.00131379
0.00127641
0.00127629
0.00127629
0.0012783
0.00124095
0.00124083
0.00124083
0.00124284
0.00120551
0.00120539
0.00120539
0.00120741
0.00117009
0.00116998
0.00116998
0.00117198
0.00113468
0.00113457
0.00113457
0.00113658
0.00109928
0.00109918
0.00109918
0.00110119
0.0010639
0.00106379
0.00106379
0.00106579
0.00102851
0.00102841
0.00102841
0.00103041
0.00099311
0.000993013
0.000993014
0.000995021
0.000957739
0.000957634
0.000957635
0.000959637
0.000922307
0.000922231
0.00092223
0.00092424
0.000886935
0.000886825
0.000886827
0.000888828
0.000851466
0.000851408
0.000851406
0.000853419
0.000816077
0.000815958
0.00081596
0.000817962
0.000780552
0.000780514
0.000780513
0.000782529
0.000745155
0.000745032
0.000745035
0.000747036
0.000709579
0.000709524
0.000709522
0.000711531
0.000674095
0.000674051
0.000674054
0.000676081
0.000638524
0.000638427
0.000638427
0.000640424
0.000603029
0.000602994
0.000602993
0.000605031
0.000567191
0.000567104
0.000567105
0.00056911
0.000532216
0.000532216
0.000532214
0.000534223
0.000495712
0.000495614
0.000495616
0.000497673
0.000459869
0.000459998
0.000459999
0.000461994
0.000427179
0.000427587
0.000427588
0.000429589
0.000390689
0.000389991
0.000389999
0.000391904
0.000350333
0.000349996
0.00035
0.000352236
0.00031427
0.000315409
0.000315408
0.000317801
0.000283045
0.000283674
0.000283673
0.000285753
0.000253598
0.00025184
0.00025184
0.000253032
0.000218027
0.000217257
0.000217252
0.000218941
0.000176454
0.00017668
0.000176677
0.0001792
0.000134909
0.000136105
0.000136107
0.000138853
9.73403e-05
9.78718e-05
9.78688e-05
0.000100188
6.34255e-05
6.34598e-05
6.34561e-05
6.53e-05
3.1801e-05
3.09555e-05
3.09518e-05
3.2446e-05
5.62493e-06
6.38618e-06
6.38318e-06
4.79999e-06
0.00361328
0.0036135
0.0036135
0.00361328
0.0036135
0.0036135
0.00361426
0.00361426
0.00361427
0.00361427
0.0036135
0.0036135
0.00361328
0.0036135
0.0036135
0.00361328
0.00360325
0.0035545
0.00360019
0.0036002
0.00355678
0.00355678
0.00360325
0.0035545
0.0036002
0.0036002
0.00355677
0.00355677
0.0036002
0.00355677
0.00355678
0.00360325
0.00355449
0.0036002
0.00355677
0.00355677
0.0035545
0.00354793
0.00350342
0.00354494
0.00354494
0.00350686
0.00350686
0.00354793
0.00350342
0.00354493
0.00354493
0.00350686
0.00350686
0.00354493
0.00350686
0.00350686
0.00354792
0.00350342
0.00354493
0.00350686
0.00350686
0.00350342
0.00349649
0.00345105
0.00349374
0.00349374
0.00345441
0.00345441
0.00349649
0.00345105
0.00349374
0.00349374
0.00345441
0.00345441
0.00349374
0.00345441
0.00345441
0.00349649
0.00345105
0.00349373
0.00345441
0.00345441
0.00345105
0.00344417
0.0033995
0.00344139
0.00344139
0.00340276
0.00340276
0.00344417
0.0033995
0.00344139
0.00344139
0.00340276
0.00340276
0.00344139
0.00340276
0.00340276
0.00344417
0.0033995
0.00344139
0.00340276
0.00340276
0.0033995
0.00339279
0.00334929
0.00339004
0.00339004
0.00335242
0.00335242
0.00339279
0.00334928
0.00339004
0.00339004
0.00335242
0.00335242
0.00339004
0.00335242
0.00335242
0.00339279
0.00334929
0.00339004
0.00335242
0.00335242
0.00334929
0.00334279
0.00330053
0.00334007
0.00334007
0.00330355
0.00330355
0.00334278
0.00330053
0.00334007
0.00334007
0.00330355
0.00330355
0.00334007
0.00330355
0.00330355
0.00334278
0.00330053
0.00334006
0.00330355
0.00330355
0.00330053
0.00329423
0.0032531
0.00329155
0.00329155
0.00325602
0.00325602
0.00329423
0.0032531
0.00329155
0.00329155
0.00325602
0.00325602
0.00329155
0.00325602
0.00325601
0.00329423
0.0032531
0.00329154
0.00325602
0.00325603
0.00325312
0.00324698
0.00320681
0.00324432
0.00324432
0.00320963
0.00320963
0.00324697
0.00320681
0.00324433
0.00324432
0.00320964
0.00320963
0.00324432
0.00320964
0.00320964
0.00324698
0.00320681
0.00324433
0.00320963
0.00320964
0.00320681
0.00320082
0.00316143
0.0031982
0.0031982
0.0031642
0.0031642
0.00320082
0.00316143
0.0031982
0.0031982
0.0031642
0.0031642
0.0031982
0.0031642
0.0031642
0.00320082
0.00316143
0.0031982
0.0031642
0.0031642
0.00316143
0.00315556
0.0031168
0.00315297
0.00315296
0.00311953
0.00311953
0.00315556
0.0031168
0.00315297
0.00315297
0.00311953
0.00311953
0.00315297
0.00311953
0.00311953
0.00315556
0.0031168
0.00315297
0.00311953
0.00311953
0.0031168
0.00311102
0.00307279
0.00310845
0.00310845
0.00307548
0.00307548
0.00311102
0.00307279
0.00310845
0.00310845
0.00307548
0.00307548
0.00310846
0.00307548
0.00307548
0.00311102
0.00307279
0.00310846
0.00307548
0.00307548
0.00307279
0.00306708
0.0030293
0.00306454
0.00306454
0.00303196
0.00303196
0.00306709
0.0030293
0.00306454
0.00306455
0.00303196
0.00303196
0.00306454
0.00303196
0.00303195
0.00306709
0.0030293
0.00306454
0.00303196
0.00303195
0.0030293
0.00302366
0.00298629
0.00302115
0.00302115
0.0029889
0.0029889
0.00302366
0.00298629
0.00302115
0.00302115
0.0029889
0.0029889
0.00302115
0.0029889
0.00298891
0.00302366
0.00298628
0.00302115
0.0029889
0.00298891
0.00298629
0.00298072
0.00294373
0.00297823
0.00297823
0.00294631
0.00294631
0.00298073
0.00294373
0.00297823
0.00297822
0.00294631
0.00294632
0.00297822
0.00294631
0.0029463
0.00298072
0.00294373
0.00297822
0.00294632
0.0029463
0.00294373
0.00293821
0.00290158
0.00293571
0.00293572
0.0029041
0.0029041
0.00293822
0.00290157
0.00293571
0.00293573
0.0029041
0.0029041
0.00293571
0.0029041
0.0029041
0.00293821
0.00290157
0.00293571
0.0029041
0.00290411
0.00290157
0.00289611
0.0028598
0.00289363
0.00289363
0.00286231
0.00286231
0.00289611
0.0028598
0.00289363
0.00289361
0.00286231
0.00286229
0.00289362
0.00286231
0.0028623
0.00289611
0.0028598
0.00289362
0.00286229
0.0028623
0.0028598
0.00285438
0.00281839
0.0028519
0.0028519
0.00282085
0.00282085
0.00285438
0.00281839
0.0028519
0.00285191
0.00282085
0.00282087
0.0028519
0.00282085
0.00282086
0.00285439
0.00281839
0.0028519
0.00282087
0.00282086
0.0028184
0.00281302
0.00277733
0.00281055
0.00281055
0.00277976
0.00277976
0.00281303
0.00277733
0.00281055
0.00281055
0.00277976
0.00277976
0.00281056
0.00277976
0.00277976
0.00281302
0.00277732
0.00281056
0.00277976
0.00277976
0.00277732
0.002772
0.00273657
0.00276954
0.00276954
0.00273897
0.00273897
0.002772
0.00273657
0.00276954
0.00276953
0.00273898
0.00273897
0.00276953
0.00273898
0.00273897
0.00277199
0.00273657
0.00276953
0.00273897
0.00273897
0.00273657
0.00273127
0.00269611
0.00272882
0.00272882
0.00269848
0.00269848
0.00273128
0.00269611
0.00272882
0.00272883
0.00269848
0.00269848
0.00272882
0.00269848
0.00269848
0.00273128
0.00269611
0.00272882
0.00269848
0.00269848
0.00269611
0.00269085
0.00265592
0.0026884
0.0026884
0.00265826
0.00265826
0.00269085
0.00265592
0.0026884
0.0026884
0.00265826
0.00265827
0.0026884
0.00265826
0.00265827
0.00269085
0.00265592
0.0026884
0.00265827
0.00265827
0.00265592
0.0026507
0.00261599
0.00264825
0.00264825
0.0026183
0.0026183
0.0026507
0.00261599
0.00264825
0.00264825
0.0026183
0.00261831
0.00264825
0.0026183
0.0026183
0.00265069
0.00261599
0.00264825
0.00261831
0.0026183
0.00261599
0.00261079
0.0025763
0.00260835
0.00260835
0.00257858
0.00257858
0.00261079
0.0025763
0.00260835
0.00260835
0.00257859
0.00257858
0.00260835
0.00257858
0.00257858
0.00261079
0.00257629
0.00260835
0.00257858
0.00257858
0.00257629
0.00257112
0.00253683
0.00256869
0.00256869
0.0025391
0.0025391
0.00257112
0.00253683
0.00256869
0.00256869
0.0025391
0.0025391
0.00256869
0.0025391
0.0025391
0.00257112
0.00253683
0.00256869
0.0025391
0.0025391
0.00253683
0.00253168
0.00249758
0.00252926
0.00252926
0.00249983
0.00249983
0.00253168
0.00249758
0.00252926
0.00252926
0.00249983
0.00249984
0.00252926
0.00249983
0.00249983
0.00253168
0.00249758
0.00252926
0.00249984
0.00249983
0.00249758
0.00249246
0.00245854
0.00249005
0.00249005
0.00246078
0.00246078
0.00249245
0.00245854
0.00249005
0.00249005
0.00246078
0.00246078
0.00249005
0.00246078
0.00246078
0.00249245
0.00245854
0.00249005
0.00246078
0.00246078
0.00245854
0.00245344
0.0024197
0.00245105
0.00245105
0.00242194
0.00242194
0.00245344
0.0024197
0.00245105
0.00245105
0.00242194
0.00242194
0.00245105
0.00242194
0.00242194
0.00245344
0.0024197
0.00245105
0.00242194
0.00242194
0.0024197
0.00241462
0.00238106
0.00241226
0.00241225
0.00238328
0.00238329
0.00241462
0.00238106
0.00241226
0.00241226
0.00238328
0.00238328
0.00241226
0.00238329
0.00238329
0.00241462
0.00238106
0.00241226
0.00238328
0.00238329
0.00238106
0.002376
0.0023426
0.00237365
0.00237365
0.00234482
0.00234482
0.002376
0.00234261
0.00237365
0.00237365
0.00234482
0.00234482
0.00237365
0.00234482
0.00234482
0.002376
0.00234261
0.00237365
0.00234482
0.00234482
0.0023426
0.00233756
0.00230433
0.00233524
0.00233524
0.00230654
0.00230655
0.00233756
0.00230433
0.00233524
0.00233524
0.00230654
0.00230654
0.00233524
0.00230655
0.00230654
0.00233756
0.00230433
0.00233524
0.00230654
0.00230654
0.00230433
0.00229931
0.00226623
0.002297
0.002297
0.00226844
0.00226844
0.00229931
0.00226623
0.002297
0.002297
0.00226844
0.00226844
0.002297
0.00226844
0.00226844
0.00229931
0.00226623
0.002297
0.00226844
0.00226844
0.00226623
0.00226122
0.00222831
0.00225894
0.00225894
0.00223051
0.00223051
0.00226123
0.00222831
0.00225894
0.00225894
0.00223051
0.00223051
0.00225894
0.00223051
0.00223051
0.00226123
0.00222831
0.00225894
0.00223051
0.00223051
0.00222831
0.00222332
0.00219054
0.00222105
0.00222106
0.00219274
0.00219274
0.00222332
0.00219054
0.00222105
0.00222105
0.00219274
0.00219274
0.00222105
0.00219274
0.00219275
0.00222331
0.00219055
0.00222105
0.00219275
0.00219275
0.00219055
0.00218557
0.00215294
0.00218333
0.00218333
0.00215513
0.00215513
0.00218557
0.00215294
0.00218333
0.00218333
0.00215513
0.00215513
0.00218333
0.00215513
0.00215513
0.00218557
0.00215294
0.00218333
0.00215513
0.00215513
0.00215294
0.00214798
0.00211549
0.00214576
0.00214576
0.00211768
0.00211768
0.00214798
0.00211549
0.00214576
0.00214576
0.00211768
0.00211768
0.00214576
0.00211768
0.00211768
0.00214798
0.00211549
0.00214576
0.00211768
0.00211768
0.00211549
0.00211054
0.00207818
0.00210834
0.00210834
0.00208036
0.00208037
0.00211054
0.00207818
0.00210834
0.00210834
0.00208036
0.00208037
0.00210834
0.00208037
0.00208037
0.00211054
0.00207818
0.00210834
0.00208037
0.00208036
0.00207818
0.00207325
0.00204102
0.00207106
0.00207106
0.0020432
0.00204319
0.00207325
0.00204102
0.00207106
0.00207106
0.0020432
0.0020432
0.00207106
0.0020432
0.0020432
0.00207325
0.00204102
0.00207106
0.0020432
0.0020432
0.00204102
0.0020361
0.00200398
0.00203393
0.00203392
0.00200616
0.00200616
0.0020361
0.00200399
0.00203393
0.00203393
0.00200616
0.00200616
0.00203392
0.00200616
0.00200616
0.0020361
0.00200399
0.00203393
0.00200616
0.00200616
0.00200399
0.00199907
0.00196709
0.00199692
0.00199692
0.00196925
0.00196925
0.00199908
0.00196709
0.00199692
0.00199692
0.00196925
0.00196926
0.00199692
0.00196925
0.00196926
0.00199908
0.00196709
0.00199692
0.00196926
0.00196926
0.00196709
0.0019622
0.00193032
0.00196005
0.00196005
0.00193248
0.00193248
0.00196219
0.00193032
0.00196005
0.00196005
0.00193248
0.00193247
0.00196005
0.00193248
0.00193246
0.00196219
0.00193031
0.00196005
0.00193247
0.00193246
0.00193031
0.00192543
0.00189365
0.0019233
0.0019233
0.0018958
0.0018958
0.00192543
0.00189366
0.0019233
0.00192329
0.0018958
0.0018958
0.00192329
0.0018958
0.00189582
0.00192542
0.00189366
0.00192329
0.0018958
0.00189582
0.00189366
0.00188878
0.00185712
0.00188665
0.00188665
0.00185926
0.00185926
0.00188878
0.00185712
0.00188665
0.00188665
0.00185926
0.00185926
0.00188666
0.00185926
0.00185924
0.00188878
0.00185712
0.00188666
0.00185926
0.00185924
0.00185711
0.00185226
0.00182068
0.00185015
0.00185014
0.00182281
0.00182281
0.00185225
0.00182068
0.00185015
0.00185014
0.00182281
0.00182281
0.00185013
0.00182281
0.00182283
0.00185225
0.00182068
0.00185013
0.00182281
0.00182283
0.00182069
0.00181582
0.00178434
0.00181371
0.00181371
0.00178646
0.00178646
0.00181582
0.00178434
0.00181371
0.00181371
0.00178646
0.00178646
0.00181373
0.00178646
0.00178646
0.00181582
0.00178434
0.00181373
0.00178646
0.00178646
0.00178433
0.00177949
0.0017481
0.00177739
0.00177739
0.00175022
0.00175022
0.00177949
0.0017481
0.00177739
0.0017774
0.00175022
0.00175022
0.00177738
0.00175022
0.00175022
0.00177949
0.0017481
0.00177738
0.00175022
0.00175022
0.0017481
0.00174326
0.00171195
0.00174117
0.00174117
0.00171406
0.00171406
0.00174326
0.00171195
0.00174117
0.00174117
0.00171406
0.00171406
0.00174117
0.00171406
0.00171406
0.00174326
0.00171195
0.00174117
0.00171406
0.00171406
0.00171195
0.00170711
0.00167588
0.00170503
0.00170503
0.00167798
0.00167798
0.00170711
0.00167588
0.00170503
0.00170503
0.00167798
0.00167798
0.00170503
0.00167798
0.00167798
0.00170711
0.00167588
0.00170503
0.00167798
0.00167798
0.00167588
0.00167105
0.00163988
0.00166898
0.00166898
0.00164198
0.00164198
0.00167105
0.00163989
0.00166898
0.00166898
0.00164198
0.00164198
0.00166898
0.00164198
0.00164199
0.00167105
0.00163988
0.00166898
0.00164198
0.00164199
0.00163989
0.00163506
0.00160396
0.001633
0.001633
0.00160606
0.00160606
0.00163506
0.00160396
0.001633
0.001633
0.00160606
0.00160606
0.001633
0.00160606
0.00160606
0.00163506
0.00160396
0.001633
0.00160606
0.00160606
0.00160396
0.00159914
0.00156811
0.00159708
0.00159708
0.00157019
0.00157019
0.00159914
0.00156811
0.00159708
0.00159708
0.00157019
0.00157019
0.00159708
0.00157019
0.00157019
0.00159914
0.00156811
0.00159708
0.00157019
0.00157019
0.0015681
0.00156329
0.00153231
0.00156124
0.00156124
0.0015344
0.0015344
0.00156329
0.00153231
0.00156124
0.00156124
0.0015344
0.0015344
0.00156124
0.0015344
0.0015344
0.00156329
0.00153231
0.00156124
0.0015344
0.0015344
0.00153231
0.0015275
0.00149657
0.00152545
0.00152545
0.00149865
0.00149865
0.0015275
0.00149657
0.00152545
0.00152545
0.00149865
0.00149865
0.00152545
0.00149865
0.00149865
0.0015275
0.00149657
0.00152545
0.00149865
0.00149865
0.00149657
0.00149177
0.00146089
0.00148973
0.00148973
0.00146296
0.00146296
0.00149177
0.00146089
0.00148973
0.00148973
0.00146296
0.00146296
0.00148973
0.00146296
0.00146296
0.00149177
0.00146089
0.00148973
0.00146296
0.00146296
0.00146089
0.00145609
0.00142525
0.00145405
0.00145405
0.00142732
0.00142732
0.00145609
0.00142525
0.00145405
0.00145405
0.00142732
0.00142732
0.00145405
0.00142732
0.00142732
0.00145609
0.00142525
0.00145405
0.00142732
0.00142732
0.00142525
0.00142045
0.00138966
0.00141842
0.00141842
0.00139173
0.00139173
0.00142045
0.00138966
0.00141842
0.00141842
0.00139173
0.00139173
0.00141842
0.00139173
0.00139173
0.00142045
0.00138966
0.00141842
0.00139173
0.00139173
0.00138966
0.00138486
0.0013541
0.00138283
0.00138283
0.00135617
0.00135617
0.00138486
0.0013541
0.00138283
0.00138283
0.00135617
0.00135617
0.00138283
0.00135617
0.00135617
0.00138486
0.0013541
0.00138283
0.00135617
0.00135617
0.0013541
0.00134931
0.00131858
0.00134728
0.00134728
0.00132064
0.00132064
0.00134931
0.00131858
0.00134728
0.00134728
0.00132064
0.00132064
0.00134728
0.00132064
0.00132064
0.00134931
0.00131858
0.00134728
0.00132064
0.00132064
0.00131858
0.00131379
0.00128309
0.00131177
0.00131177
0.00128515
0.00128515
0.00131379
0.00128309
0.00131177
0.00131177
0.00128515
0.00128515
0.00131177
0.00128515
0.00128515
0.00131379
0.0012831
0.00131177
0.00128515
0.00128516
0.00128309
0.0012783
0.00124763
0.00127629
0.00127629
0.00124969
0.00124969
0.0012783
0.00124763
0.00127629
0.00127629
0.00124969
0.00124969
0.00127629
0.00124969
0.00124969
0.0012783
0.00124763
0.00127629
0.00124969
0.00124969
0.00124763
0.00124284
0.00121219
0.00124083
0.00124083
0.00121425
0.00121425
0.00124284
0.00121219
0.00124083
0.00124083
0.00121425
0.00121425
0.00124083
0.00121425
0.00121425
0.00124284
0.00121219
0.00124083
0.00121425
0.00121425
0.00121219
0.0012074
0.00117677
0.00120539
0.00120539
0.00117883
0.00117883
0.0012074
0.00117677
0.00120539
0.00120539
0.00117883
0.00117883
0.00120539
0.00117883
0.00117883
0.0012074
0.00117677
0.00120539
0.00117883
0.00117883
0.00117677
0.00117198
0.00114137
0.00116998
0.00116998
0.00114342
0.00114342
0.00117198
0.00114137
0.00116998
0.00116998
0.00114342
0.00114342
0.00116998
0.00114342
0.00114342
0.00117198
0.00114137
0.00116998
0.00114342
0.00114342
0.00114137
0.00113658
0.00110598
0.00113457
0.00113457
0.00110802
0.00110802
0.00113658
0.00110598
0.00113457
0.00113457
0.00110802
0.00110802
0.00113457
0.00110802
0.00110802
0.00113658
0.00110598
0.00113457
0.00110802
0.00110802
0.00110597
0.00110119
0.00107059
0.00109918
0.00109918
0.00107264
0.00107264
0.00110118
0.00107059
0.00109918
0.00109918
0.00107264
0.00107264
0.00109918
0.00107264
0.00107264
0.00110119
0.00107059
0.00109918
0.00107264
0.00107264
0.00107059
0.00106579
0.00103521
0.00106379
0.00106379
0.00103725
0.00103725
0.00106579
0.00103521
0.00106379
0.00106379
0.00103725
0.00103725
0.00106379
0.00103725
0.00103725
0.00106579
0.00103521
0.00106379
0.00103725
0.00103725
0.00103521
0.00103041
0.000999817
0.00102841
0.00102841
0.00100186
0.00100186
0.00103041
0.000999817
0.00102841
0.00102841
0.00100186
0.00100186
0.00102841
0.00100186
0.00100186
0.00103041
0.000999816
0.00102841
0.00100186
0.00100186
0.000999815
0.00099502
0.000964435
0.000993014
0.000993013
0.000966481
0.000966481
0.00099502
0.000964435
0.000993014
0.000993014
0.000966481
0.000966482
0.000993014
0.000966481
0.000966482
0.000995021
0.000964435
0.000993014
0.000966482
0.000966482
0.000964435
0.000959636
0.000929039
0.000957635
0.000957635
0.000931079
0.00093108
0.000959636
0.000929039
0.000957635
0.000957635
0.000931078
0.000931078
0.000957635
0.00093108
0.000931079
0.000959636
0.000929038
0.000957635
0.000931078
0.000931078
0.000929037
0.00092424
0.000893635
0.000922231
0.000922231
0.000895684
0.000895683
0.00092424
0.000893634
0.00092223
0.00092223
0.000895685
0.000895685
0.000922231
0.000895683
0.000895684
0.000924239
0.000893635
0.000922231
0.000895684
0.000895684
0.000893634
0.000888828
0.000858219
0.000886827
0.000886825
0.000860253
0.000860254
0.000888827
0.000858221
0.000886827
0.000886827
0.000860252
0.000860253
0.000886826
0.000860255
0.000860255
0.000888829
0.000858219
0.000886826
0.000860254
0.000860255
0.00085822
0.000853417
0.000822786
0.000851406
0.000851407
0.000824843
0.00082484
0.000853418
0.000822783
0.000851405
0.000851406
0.000824843
0.000824842
0.000851408
0.000824839
0.000824839
0.000853417
0.000822784
0.000851407
0.00082484
0.000824839
0.000822781
0.000817964
0.00078733
0.000815962
0.00081596
0.000789361
0.000789364
0.000817962
0.000787333
0.000815962
0.000815962
0.000789361
0.000789362
0.000815958
0.000789365
0.000789366
0.000817964
0.000787331
0.000815958
0.000789364
0.000789365
0.000787333
0.000782525
0.000751879
0.000780511
0.000780512
0.000753937
0.000753934
0.000782528
0.000751873
0.00078051
0.000780511
0.000753938
0.000753936
0.000780515
0.000753931
0.000753932
0.000782527
0.000751875
0.000780514
0.000753933
0.000753933
0.000751871
0.000747042
0.000716334
0.000745039
0.000745035
0.000718375
0.000718378
0.000747037
0.000716338
0.00074504
0.000745038
0.000718375
0.000718376
0.000745033
0.00071838
0.00071838
0.00074704
0.000716336
0.000745033
0.000718378
0.000718379
0.000716339
0.000711523
0.000680928
0.000709518
0.000709522
0.000682952
0.000682953
0.000711528
0.000680926
0.000709517
0.000709519
0.000682952
0.000682952
0.000709525
0.000682952
0.000682951
0.000711526
0.000680926
0.000709524
0.000682951
0.000682951
0.000680922
0.00067609
0.000645237
0.000674059
0.000674054
0.000647292
0.000647291
0.000676084
0.000645236
0.000674059
0.000674057
0.000647292
0.000647292
0.00067405
0.000647291
0.000647292
0.000676087
0.000645236
0.000674051
0.000647292
0.000647292
0.000645237
0.000640419
0.000609869
0.000638424
0.000638425
0.000611897
0.000611901
0.00064042
0.000609875
0.000638424
0.000638425
0.000611897
0.000611899
0.000638429
0.000611902
0.000611904
0.00064042
0.000609872
0.000638429
0.0006119
0.000611903
0.000609875
0.000605027
0.000573972
0.000602992
0.000602994
0.000576033
0.00057603
0.000605031
0.000573966
0.000602992
0.000602993
0.000576033
0.000576032
0.000602992
0.000576028
0.000576026
0.00060503
0.000573968
0.000602992
0.00057603
0.000576026
0.000573961
0.000569117
0.000538937
0.000567108
0.000567106
0.000540916
0.000540918
0.000569113
0.000538942
0.000567108
0.000567107
0.000540915
0.000540916
0.000567103
0.000540919
0.000540921
0.000569115
0.000538939
0.000567103
0.000540917
0.00054092
0.000538945
0.000534212
0.000502751
0.000532212
0.000532215
0.000504924
0.000504923
0.000534217
0.000502748
0.000532212
0.000532213
0.000504925
0.000504925
0.000532219
0.000504922
0.000504921
0.000534215
0.00050275
0.000532218
0.000504924
0.000504921
0.000502745
0.000497676
0.000466503
0.000495616
0.000495615
0.000468309
0.00046831
0.000497674
0.000466506
0.000495617
0.000495617
0.000468308
0.000468311
0.000495613
0.000468312
0.000468312
0.000497676
0.000466505
0.000495614
0.000468312
0.000468312
0.000466505
0.00046199
0.000434068
0.000459996
0.000459998
0.000435759
0.000435761
0.000461993
0.000434069
0.000459996
0.000459998
0.000435759
0.00043576
0.00046
0.00043576
0.00043576
0.000461992
0.000434068
0.000459999
0.000435759
0.000435761
0.000434068
0.000429588
0.000397205
0.000427589
0.000427588
0.000399753
0.000399752
0.000429587
0.000397202
0.000427588
0.000427589
0.000399755
0.000399755
0.000427588
0.00039975
0.00039975
0.000429588
0.000397205
0.000427588
0.000399755
0.000399753
0.000397201
0.000391907
0.000357382
0.000389993
0.000389992
0.000359758
0.000359754
0.000391903
0.00035738
0.000389998
0.000389998
0.000359757
0.000359756
0.000389993
0.000359755
0.000359751
0.000391909
0.00035738
0.000389993
0.000359758
0.000359749
0.000357371
0.000352246
0.000322399
0.000350001
0.000349989
0.000323758
0.000323757
0.000352244
0.000322401
0.000349996
0.000349993
0.000323755
0.000323756
0.000349989
0.000323756
0.000323757
0.000352245
0.000322399
0.000349979
0.000323755
0.000323754
0.0003224
0.000317798
0.000289882
0.000315409
0.00031541
0.000291313
0.000291314
0.0003178
0.000289885
0.000315408
0.000315409
0.000291312
0.000291312
0.000315412
0.000291319
0.000291323
0.000317798
0.000289884
0.000315407
0.000291316
0.000291325
0.000289902
0.000285666
0.000257384
0.000283673
0.000283673
0.000259922
0.000259922
0.000285669
0.000257384
0.000283669
0.000283673
0.000259923
0.000259922
0.000283679
0.000259923
0.000259923
0.000285666
0.000257384
0.000283681
0.000259924
0.000259924
0.000257384
0.000253031
0.000223956
0.000251839
0.00025184
0.000226446
0.000226449
0.000253032
0.000223957
0.00025184
0.000251838
0.000226449
0.000226444
0.000251839
0.000226449
0.000226445
0.000253031
0.000223953
0.00025184
0.000226444
0.000226447
0.000223954
0.000218943
0.000184757
0.000217255
0.000217257
0.000187067
0.000187072
0.000218943
0.000184758
0.000217257
0.000217251
0.000187067
0.00018707
0.000217253
0.000187072
0.000187071
0.00021894
0.000184755
0.000217254
0.000187066
0.000187071
0.000184756
0.000179199
0.000144363
0.000176678
0.00017668
0.000146143
0.000146142
0.0001792
0.000144363
0.000176678
0.000176678
0.000146142
0.000146143
0.00017668
0.000146142
0.000146143
0.000179198
0.000144362
0.000176679
0.000146142
0.000146141
0.000144361
0.000138853
0.000105227
0.000136107
0.000136106
0.000107063
0.000107062
0.000138852
0.000105226
0.000136107
0.000136107
0.000107062
0.000107061
0.000136107
0.000107062
0.000107063
0.000138853
0.000105224
0.000136105
0.000107061
0.000107062
0.000105228
0.000100186
6.98598e-05
9.78741e-05
9.78717e-05
7.17309e-05
7.17299e-05
0.000100185
6.98603e-05
9.78717e-05
9.78699e-05
7.17294e-05
7.17269e-05
9.78747e-05
7.17292e-05
7.17275e-05
0.000100183
6.98612e-05
9.78741e-05
7.17304e-05
7.17293e-05
6.98607e-05
6.53003e-05
3.69307e-05
6.34602e-05
6.346e-05
3.89571e-05
3.8957e-05
6.53014e-05
3.69295e-05
6.34589e-05
6.34572e-05
3.89546e-05
3.8951e-05
6.34569e-05
3.89535e-05
3.89521e-05
6.52997e-05
3.69255e-05
6.34566e-05
3.89501e-05
3.89507e-05
3.69262e-05
3.24482e-05
7.61584e-06
3.09581e-05
3.09579e-05
1.03761e-05
1.03773e-05
3.24455e-05
7.61726e-06
3.09549e-05
3.0952e-05
1.03785e-05
1.03729e-05
3.09519e-05
1.0378e-05
1.0373e-05
3.24425e-05
7.61232e-06
3.09519e-05
1.03749e-05
1.03763e-05
7.61389e-06
4.80198e-06
6.38464e-06
6.38434e-06
4.80255e-06
6.38618e-06
6.38078e-06
5.6253e-06
5.62375e-06
5.6244e-06
6.38238e-06
4.79782e-06
6.3842e-06
0.00362165
0.00363141
0.00362621
0.00362622
0.0036486
0.00363538
0.00366399
0.00362943
0.0036486
0.00363538
0.00362943
0.00366399
0.00363995
0.00366772
0.00366773
0.003577
0.00359614
0.00360535
0.00356909
0.00356983
0.00357258
0.00357699
0.00359614
0.00360534
0.00356907
0.00359987
0.00359987
0.00359987
0.00355647
0.00355647
0.00355647
0.00355647
0.00357452
0.00360034
0.00360027
0.00358334
0.00360336
0.00357342
0.00358422
0.00356995
0.00357258
0.00357452
0.00360027
0.00360033
0.00358334
0.00360336
0.00358422
0.00357342
0.00360621
0.00360621
0.00357774
0.00357306
0.00357306
0.00353038
0.00354966
0.00355102
0.00352892
0.00354858
0.00352848
0.00353038
0.00354966
0.00355102
0.00352892
0.00354452
0.00354451
0.00354451
0.00350693
0.00350693
0.00350693
0.00350692
0.00352896
0.00354973
0.00354451
0.00353264
0.00354852
0.00352951
0.00353237
0.00354856
0.00352847
0.00352896
0.00354451
0.00354973
0.00353264
0.00354852
0.00353237
0.0035295
0.00355075
0.00355075
0.00352919
0.00352984
0.00352984
0.00347812
0.00349692
0.003498
0.0034771
0.00349656
0.00347682
0.00347812
0.00349692
0.00349799
0.00347709
0.00349376
0.00349376
0.00349376
0.00345438
0.00345438
0.00345438
0.00345438
0.00347722
0.00349732
0.00349364
0.00348059
0.00349676
0.00347758
0.0034805
0.00349656
0.00347681
0.00347722
0.00349364
0.00349732
0.0034806
0.00349676
0.0034805
0.00347758
0.00349756
0.00349756
0.00347721
0.00347765
0.00347765
0.00342559
0.00344425
0.00344511
0.00342482
0.00344404
0.00342465
0.00342559
0.00344425
0.00344511
0.00342482
0.00344138
0.00344138
0.00344138
0.00340275
0.00340275
0.00340275
0.00340275
0.00342508
0.00344465
0.00344134
0.00342844
0.00344437
0.00342527
0.0034284
0.00344404
0.00342465
0.00342508
0.00344134
0.00344465
0.00342844
0.00344437
0.0034284
0.00342527
0.00344469
0.00344469
0.00342513
0.00342521
0.00342521
0.0033744
0.00339275
0.00339338
0.00337384
0.00339261
0.00337371
0.0033744
0.00339275
0.00339338
0.00337384
0.00339003
0.00339003
0.00339003
0.00335241
0.00335241
0.00335241
0.00335241
0.00337413
0.0033931
0.00339001
0.00337741
0.00339293
0.00337424
0.00337738
0.00339261
0.00337371
0.00337413
0.00339001
0.0033931
0.00337741
0.00339293
0.00337738
0.00337424
0.00339309
0.00339309
0.00337421
0.00337414
0.00337415
0.00332476
0.00334271
0.00334316
0.00332436
0.00334259
0.00332425
0.00332476
0.0033427
0.00334316
0.00332436
0.00334006
0.00334006
0.00334006
0.00330353
0.00330354
0.00330354
0.00330354
0.00332464
0.003343
0.00334004
0.00332781
0.00334289
0.00332471
0.00332778
0.00334259