/*--------------------------------*- C++ -*----------------------------------*\
| =========                 |                                                 |
| \\      /  F ield         | OpenFOAM: The Open Source CFD Toolbox           |
|  \\    /   O peration     | Version:  v2006                                 |
|   \\  /    A nd           | Website:  www.openfoam.com                      |
|    \\/     M anipulation  |                                                 |
\*---------------------------------------------------------------------------*/
FoamFile
{
    version     2.0;
    format      ascii;
    class       volScalarField;
    location    "500";
    object      k;
}
// * * * * * * * * * * * * * * * * * * * * * * * * * * * * * * * * * * * * * //

dimensions      [0 2 -2 0 0 0 0];


internalField   nonuniform List<scalar> 
43024
(
3.58932e-05
3.58912e-05
3.58912e-05
3.59957e-05
3.39296e-05
3.3889e-05
3.3889e-05
3.39623e-05
3.21578e-05
3.20081e-05
3.20081e-05
3.19522e-05
3.05346e-05
3.02293e-05
3.02292e-05
2.99885e-05
2.90329e-05
2.8554e-05
2.85539e-05
2.81226e-05
2.76354e-05
2.69872e-05
2.69871e-05
2.63906e-05
2.63308e-05
2.5531e-05
2.55309e-05
2.48072e-05
2.51112e-05
2.41849e-05
2.41848e-05
2.3378e-05
2.3971e-05
2.29506e-05
2.29505e-05
2.21045e-05
2.29058e-05
2.18268e-05
2.18267e-05
2.09857e-05
2.1912e-05
2.08113e-05
2.08112e-05
2.00134e-05
2.09865e-05
1.99013e-05
1.99011e-05
1.9181e-05
2.01241e-05
1.9095e-05
1.90946e-05
1.84893e-05
1.93239e-05
1.83886e-05
1.83884e-05
1.79322e-05
1.8585e-05
1.77798e-05
1.77796e-05
1.75054e-05
1.79045e-05
1.72671e-05
1.72665e-05
1.72019e-05
1.72801e-05
1.68476e-05
1.68465e-05
1.70306e-05
1.671e-05
1.65222e-05
1.65145e-05
1.69754e-05
1.61996e-05
1.63238e-05
1.63492e-05
1.71899e-05
1.57457e-05
1.62781e-05
1.61705e-05
1.7497e-05
1.53315e-05
1.62325e-05
1.62776e-05
1.83865e-05
3.63068e-05
3.6291e-05
3.6291e-05
3.63068e-05
3.6291e-05
3.6291e-05
3.6423e-05
3.6423e-05
3.6423e-05
3.6423e-05
3.6291e-05
3.6291e-05
3.63068e-05
3.6291e-05
3.6291e-05
3.63068e-05
3.59957e-05
3.42687e-05
3.58912e-05
3.58912e-05
3.43767e-05
3.43766e-05
3.59957e-05
3.42687e-05
3.58911e-05
3.58912e-05
3.43767e-05
3.43766e-05
3.58912e-05
3.43767e-05
3.43767e-05
3.59957e-05
3.42687e-05
3.58912e-05
3.43767e-05
3.43767e-05
3.42687e-05
3.39623e-05
3.22635e-05
3.38889e-05
3.38889e-05
3.24684e-05
3.24683e-05
3.39622e-05
3.22635e-05
3.38889e-05
3.38889e-05
3.24684e-05
3.24683e-05
3.38889e-05
3.24685e-05
3.24683e-05
3.39623e-05
3.22634e-05
3.38889e-05
3.24685e-05
3.24684e-05
3.22634e-05
3.19522e-05
3.02993e-05
3.20079e-05
3.20078e-05
3.06643e-05
3.06642e-05
3.19522e-05
3.02993e-05
3.2008e-05
3.20078e-05
3.06644e-05
3.06641e-05
3.20079e-05
3.06645e-05
3.06642e-05
3.19522e-05
3.02992e-05
3.2008e-05
3.06645e-05
3.06644e-05
3.0299e-05
2.99886e-05
2.84253e-05
3.0229e-05
3.02288e-05
2.89624e-05
2.89622e-05
2.99885e-05
2.84254e-05
3.02292e-05
3.02288e-05
2.89626e-05
2.89621e-05
3.02289e-05
2.89628e-05
2.89623e-05
2.99885e-05
2.84252e-05
3.02291e-05
2.89627e-05
2.89626e-05
2.8425e-05
2.81228e-05
2.66741e-05
2.85536e-05
2.85534e-05
2.7368e-05
2.73678e-05
2.81227e-05
2.66741e-05
2.85539e-05
2.85533e-05
2.73684e-05
2.73677e-05
2.85535e-05
2.73685e-05
2.73678e-05
2.81227e-05
2.6674e-05
2.85538e-05
2.73684e-05
2.73682e-05
2.66737e-05
2.63909e-05
2.50664e-05
2.69866e-05
2.69864e-05
2.58841e-05
2.58838e-05
2.63909e-05
2.50664e-05
2.6987e-05
2.69863e-05
2.58846e-05
2.58837e-05
2.69865e-05
2.58847e-05
2.58839e-05
2.63908e-05
2.50663e-05
2.69869e-05
2.58846e-05
2.58844e-05
2.50659e-05
2.48077e-05
2.36126e-05
2.55303e-05
2.55301e-05
2.45102e-05
2.451e-05
2.48076e-05
2.36126e-05
2.55308e-05
2.55299e-05
2.45108e-05
2.45098e-05
2.55302e-05
2.4511e-05
2.45101e-05
2.48074e-05
2.36124e-05
2.55307e-05
2.45109e-05
2.45107e-05
2.36121e-05
2.33785e-05
2.23127e-05
2.41841e-05
2.41839e-05
2.32478e-05
2.32475e-05
2.33785e-05
2.23125e-05
2.41848e-05
2.41837e-05
2.32485e-05
2.32474e-05
2.4184e-05
2.32487e-05
2.32477e-05
2.33784e-05
2.23124e-05
2.41846e-05
2.32486e-05
2.32484e-05
2.23119e-05
2.2105e-05
2.11681e-05
2.29496e-05
2.29494e-05
2.20965e-05
2.20962e-05
2.21049e-05
2.11682e-05
2.29504e-05
2.29492e-05
2.20973e-05
2.20961e-05
2.29495e-05
2.20975e-05
2.20964e-05
2.21047e-05
2.11679e-05
2.29502e-05
2.20974e-05
2.20972e-05
2.11676e-05
2.09864e-05
2.01709e-05
2.18258e-05
2.18255e-05
2.10541e-05
2.10539e-05
2.09864e-05
2.01708e-05
2.18266e-05
2.18253e-05
2.10551e-05
2.10538e-05
2.18256e-05
2.10552e-05
2.10541e-05
2.09862e-05
2.01704e-05
2.18265e-05
2.10551e-05
2.1055e-05
2.01702e-05
2.00137e-05
1.93146e-05
2.08102e-05
2.08099e-05
2.0118e-05
2.01178e-05
2.0014e-05
1.93148e-05
2.08111e-05
2.08098e-05
2.01189e-05
2.01176e-05
2.08101e-05
2.01191e-05
2.01179e-05
2.00136e-05
1.93144e-05
2.0811e-05
2.01189e-05
2.01188e-05
1.9314e-05
1.91818e-05
1.85912e-05
1.99001e-05
1.98999e-05
1.92858e-05
1.92853e-05
1.91817e-05
1.85904e-05
1.99011e-05
1.98998e-05
1.92867e-05
1.92853e-05
1.99001e-05
1.92867e-05
1.92854e-05
1.91814e-05
1.85908e-05
1.9901e-05
1.92866e-05
1.92865e-05
1.85891e-05
1.84908e-05
1.79986e-05
1.90936e-05
1.90936e-05
1.85546e-05
1.85543e-05
1.84902e-05
1.79974e-05
1.90945e-05
1.90933e-05
1.85556e-05
1.85544e-05
1.90935e-05
1.85555e-05
1.85546e-05
1.84902e-05
1.79978e-05
1.90946e-05
1.85558e-05
1.85557e-05
1.79961e-05
1.79331e-05
1.754e-05
1.83871e-05
1.83872e-05
1.79219e-05
1.79219e-05
1.7933e-05
1.75391e-05
1.83882e-05
1.83871e-05
1.79229e-05
1.79216e-05
1.83874e-05
1.79227e-05
1.79219e-05
1.79331e-05
1.75399e-05
1.83886e-05
1.79228e-05
1.79225e-05
1.75383e-05
1.75082e-05
1.72178e-05
1.77792e-05
1.77787e-05
1.73842e-05
1.73851e-05
1.75063e-05
1.72179e-05
1.77798e-05
1.77787e-05
1.73855e-05
1.7384e-05
1.77789e-05
1.73862e-05
1.73843e-05
1.7507e-05
1.72177e-05
1.77796e-05
1.7385e-05
1.73856e-05
1.72182e-05
1.72001e-05
1.70228e-05
1.72647e-05
1.72659e-05
1.6943e-05
1.69436e-05
1.72019e-05
1.70287e-05
1.72667e-05
1.72652e-05
1.69417e-05
1.69399e-05
1.72649e-05
1.6946e-05
1.69448e-05
1.71996e-05
1.70231e-05
1.72655e-05
1.69404e-05
1.69452e-05
1.7034e-05
1.7021e-05
1.69613e-05
1.68475e-05
1.68464e-05
1.65979e-05
1.66003e-05
1.70279e-05
1.6969e-05
1.68465e-05
1.68456e-05
1.65986e-05
1.65931e-05
1.68468e-05
1.65996e-05
1.65981e-05
1.70159e-05
1.69783e-05
1.68482e-05
1.65946e-05
1.65978e-05
1.69684e-05
1.69681e-05
1.70147e-05
1.65208e-05
1.65217e-05
1.63449e-05
1.63453e-05
1.69762e-05
1.70506e-05
1.65208e-05
1.65132e-05
1.6347e-05
1.63802e-05
1.65192e-05
1.63468e-05
1.63602e-05
1.69819e-05
1.71734e-05
1.65193e-05
1.63828e-05
1.63579e-05
1.70929e-05
1.70924e-05
1.75322e-05
1.6318e-05
1.63238e-05
1.62442e-05
1.62858e-05
1.7136e-05
1.76849e-05
1.63183e-05
1.63445e-05
1.62462e-05
1.6184e-05
1.6342e-05
1.62824e-05
1.62193e-05
1.72613e-05
1.72578e-05
1.63381e-05
1.61785e-05
1.62173e-05
1.74508e-05
1.76474e-05
1.81967e-05
1.6248e-05
1.62819e-05
1.62712e-05
1.62314e-05
1.77878e-05
1.80523e-05
1.62512e-05
1.61758e-05
1.6277e-05
1.62497e-05
1.62032e-05
1.62333e-05
1.62639e-05
1.72754e-05
1.81528e-05
1.6208e-05
1.62559e-05
1.62835e-05
1.81994e-05
1.82406e-05
1.6243e-05
1.62231e-05
1.81066e-05
1.62457e-05
1.62667e-05
1.62889e-05
1.83121e-05
1.63049e-05
3.73773e-05
3.73765e-05
3.7377e-05
3.7377e-05
3.73701e-05
3.73777e-05
3.73043e-05
3.73768e-05
3.73701e-05
3.73777e-05
3.73768e-05
3.73043e-05
3.73741e-05
3.72959e-05
3.72959e-05
3.58805e-05
4.08717e-05
3.66032e-05
4.51448e-05
5.51149e-05
6.48949e-05
3.58803e-05
4.08726e-05
3.66033e-05
4.51451e-05
3.58932e-05
3.58932e-05
3.58932e-05
3.44005e-05
3.44005e-05
3.44005e-05
3.44005e-05
3.52758e-05
3.56381e-05
3.58929e-05
3.53771e-05
3.60475e-05
3.42376e-05
3.53822e-05
5.51167e-05
6.4897e-05
3.52759e-05
3.58929e-05
3.56378e-05
3.53771e-05
3.60475e-05
3.53822e-05
3.42373e-05
3.65964e-05
3.65972e-05
3.5279e-05
3.40648e-05
3.40637e-05
3.39675e-05
5.13532e-05
3.46791e-05
5.46234e-05
7.65455e-05
8.08613e-05
3.39673e-05
5.13542e-05
3.46792e-05
5.46244e-05
3.39296e-05
3.39296e-05
3.39297e-05
3.25854e-05
3.25854e-05
3.25855e-05
3.25855e-05
3.30542e-05
3.24738e-05
3.39295e-05
3.34087e-05
3.3896e-05
3.15773e-05
3.34678e-05
7.65479e-05
8.08627e-05
3.30542e-05
3.39295e-05
3.24739e-05
3.34087e-05
3.38959e-05
3.34678e-05
3.15768e-05
3.1716e-05
3.1716e-05
3.32637e-05
3.09259e-05
3.0925e-05
3.22526e-05
5.9169e-05
3.29221e-05
6.1441e-05
8.43927e-05
8.50681e-05
3.22523e-05
5.91713e-05
3.29221e-05
6.14423e-05
3.21578e-05
3.21578e-05
3.21578e-05
3.09282e-05
3.09282e-05
3.09281e-05
3.09282e-05
3.07896e-05
3.05132e-05
3.21376e-05
3.1554e-05
3.16366e-05
2.98869e-05
3.17101e-05
8.43948e-05
8.50694e-05
3.07895e-05
3.21376e-05
3.05128e-05
3.1554e-05
3.16366e-05
3.17101e-05
2.98867e-05
3.0217e-05
3.02167e-05
3.12729e-05
3.00045e-05
3.00041e-05
3.07543e-05
6.43493e-05
3.13504e-05
6.57272e-05
8.46132e-05
8.39097e-05
3.07541e-05
6.43513e-05
3.13503e-05
6.57289e-05
3.05346e-05
3.05346e-05
3.05346e-05
2.9398e-05
2.9398e-05
2.93979e-05
2.9398e-05
2.86008e-05
2.91417e-05
3.04694e-05
2.98005e-05
2.94127e-05
2.86751e-05
3.00687e-05
8.46142e-05
8.39101e-05
2.86007e-05
3.04694e-05
2.91414e-05
2.98004e-05
2.94128e-05
3.00687e-05
2.86749e-05
2.99411e-05
2.99411e-05
2.93481e-05
3.00358e-05
3.00359e-05
2.95191e-05
6.73178e-05
3.0001e-05
6.80316e-05
8.22154e-05
8.12195e-05
2.95188e-05
6.73205e-05
3.00009e-05
6.80347e-05
2.90329e-05
2.90328e-05
2.90328e-05
2.79756e-05
2.79756e-05
2.79756e-05
2.79756e-05
2.65678e-05
2.81232e-05
2.89027e-05
2.8152e-05
2.73168e-05
2.77814e-05
2.85257e-05
8.22159e-05
8.1219e-05
2.65677e-05
2.89026e-05
2.81228e-05
2.81519e-05
2.73169e-05
2.85256e-05
2.77813e-05
3.04493e-05
3.04498e-05
2.75328e-05
3.07656e-05
3.07663e-05
2.8605e-05
6.87408e-05
2.89477e-05
6.9033e-05
7.94364e-05
7.85322e-05
2.86049e-05
6.87448e-05
2.89476e-05
6.90393e-05
2.76353e-05
2.76353e-05
2.76353e-05
2.66487e-05
2.66486e-05
2.66486e-05
2.66486e-05
2.47438e-05
2.74062e-05
2.74287e-05
2.66127e-05
2.54136e-05
2.71913e-05
2.70742e-05
7.94363e-05
7.85319e-05
2.47437e-05
2.74286e-05
2.74056e-05
2.66126e-05
2.54137e-05
2.70742e-05
2.71912e-05
3.15921e-05
3.16e-05
2.58509e-05
3.21408e-05
3.21474e-05
2.80589e-05
6.92513e-05
2.82447e-05
6.93128e-05
7.70073e-05
7.62874e-05
2.80591e-05
6.92542e-05
2.82449e-05
6.93217e-05
2.63307e-05
2.63307e-05
2.63307e-05
2.54085e-05
2.54084e-05
2.54083e-05
2.54084e-05
2.31639e-05
2.70008e-05
2.60444e-05
2.51841e-05
2.37457e-05
2.69212e-05
2.57123e-05
7.70062e-05
7.6287e-05
2.31636e-05
2.60443e-05
2.70006e-05
2.5184e-05
2.37462e-05
2.57122e-05
2.69213e-05
3.31819e-05
3.31814e-05
2.43198e-05
3.38816e-05
3.38827e-05
2.79142e-05
6.93017e-05
2.79272e-05
6.92714e-05
7.50756e-05
7.45347e-05
2.79138e-05
6.93097e-05
2.79274e-05
6.92721e-05
2.51112e-05
2.51111e-05
2.51111e-05
2.42488e-05
2.42488e-05
2.42487e-05
2.42487e-05
2.18472e-05
2.69335e-05
2.47489e-05
2.38658e-05
2.23361e-05
2.69833e-05
2.44388e-05
7.50747e-05
7.45335e-05
2.18465e-05
2.47488e-05
2.69332e-05
2.38657e-05
2.23367e-05
2.44386e-05
2.69824e-05
3.52109e-05
3.52086e-05
2.29421e-05
3.59974e-05
3.5999e-05
2.81592e-05
6.91971e-05
2.80307e-05
6.91636e-05
7.36077e-05
7.32137e-05
2.8158e-05
6.92005e-05
2.80315e-05
6.91682e-05
2.39709e-05
2.39708e-05
2.39708e-05
2.31652e-05
2.31652e-05
2.31651e-05
2.31651e-05
2.08008e-05
2.72013e-05
2.3541e-05
2.26593e-05
2.11948e-05
2.73548e-05
2.32522e-05
7.3608e-05
7.32123e-05
2.08e-05
2.35409e-05
2.72e-05
2.26592e-05
2.11954e-05
2.32521e-05
2.73544e-05
3.74446e-05
3.74482e-05
2.17207e-05
3.83754e-05
3.83825e-05
2.88227e-05
6.91111e-05
2.85539e-05
6.91159e-05
7.25294e-05
7.22432e-05
2.88239e-05
6.91202e-05
2.85521e-05
6.9102e-05
2.29057e-05
2.29056e-05
2.29056e-05
2.21539e-05
2.21538e-05
2.21537e-05
2.21537e-05
2.00273e-05
2.77815e-05
2.24171e-05
2.15629e-05
2.03184e-05
2.80343e-05
2.21492e-05
7.25277e-05
7.22437e-05
2.00275e-05
2.2417e-05
2.77787e-05
2.15628e-05
2.03177e-05
2.21491e-05
2.80358e-05
3.9858e-05
3.98663e-05
2.06509e-05
4.07793e-05
4.07931e-05
2.99235e-05
6.91101e-05
2.94967e-05
6.91141e-05
7.17526e-05
7.15494e-05
2.99232e-05
6.911e-05
2.94975e-05
6.91204e-05
2.1912e-05
2.19118e-05
2.19118e-05
2.12115e-05
2.12115e-05
2.12113e-05
2.12114e-05
1.9521e-05
2.86512e-05
2.13769e-05
2.05741e-05
1.97027e-05
2.89923e-05
2.113e-05
7.17526e-05
7.15491e-05
1.9521e-05
2.13768e-05
2.86524e-05
2.05739e-05
1.97027e-05
2.11298e-05
2.89921e-05
4.22983e-05
4.22998e-05
1.97247e-05
4.31339e-05
4.31451e-05
3.14089e-05
6.91488e-05
3.08248e-05
6.91938e-05
7.1204e-05
7.10615e-05
3.14532e-05
6.91454e-05
3.07978e-05
6.92053e-05
2.09864e-05
2.09863e-05
2.09863e-05
2.03341e-05
2.0334e-05
2.03338e-05
2.03339e-05
1.92812e-05
2.97722e-05
2.04199e-05
1.96899e-05
1.93506e-05
3.01963e-05
2.01934e-05
7.12041e-05
7.10617e-05
1.92821e-05
2.04198e-05
2.97715e-05
1.96898e-05
1.93506e-05
2.01932e-05
3.01965e-05
4.46063e-05
4.46077e-05
1.89363e-05
4.54762e-05
4.54801e-05
3.32831e-05
6.92634e-05
3.25312e-05
6.92846e-05
7.08157e-05
7.07282e-05
3.33297e-05
6.92304e-05
3.25323e-05
6.93248e-05
2.01241e-05
2.01239e-05
2.01239e-05
1.95181e-05
1.9518e-05
1.95179e-05
1.9518e-05
1.92967e-05
3.11171e-05
1.95434e-05
1.89089e-05
1.92679e-05
3.15961e-05
1.93364e-05
7.08165e-05
7.0727e-05
1.92964e-05
1.95432e-05
3.11123e-05
1.89088e-05
1.92683e-05
1.93362e-05
3.15979e-05
4.68772e-05
4.68753e-05
1.82782e-05
4.77684e-05
4.77952e-05
3.55769e-05
6.93502e-05
3.45585e-05
6.94265e-05
7.05562e-05
7.04802e-05
3.55963e-05
6.93607e-05
3.45528e-05
6.94141e-05
1.93239e-05
1.93237e-05
1.93238e-05
1.8764e-05
1.8764e-05
1.87638e-05
1.87639e-05
1.95704e-05
3.26128e-05
1.87441e-05
1.82273e-05
1.94442e-05
3.3152e-05
1.85561e-05
7.05553e-05
7.04795e-05
1.95637e-05
1.8744e-05
3.2625e-05
1.82272e-05
1.94532e-05
1.8556e-05
3.31436e-05
4.90118e-05
4.9051e-05
1.77527e-05
4.96861e-05
4.96718e-05
3.79373e-05
6.94699e-05
3.70281e-05
6.95296e-05
7.03587e-05
7.03014e-05
3.78088e-05
6.94986e-05
3.7155e-05
6.94923e-05
1.85848e-05
1.85847e-05
1.85848e-05
1.8069e-05
1.80691e-05
1.8069e-05
1.80689e-05
2.00943e-05
3.42495e-05
1.80198e-05
1.76424e-05
1.98885e-05
3.4789e-05
1.78503e-05
7.03521e-05
7.03109e-05
2.00913e-05
1.80197e-05
3.42388e-05
1.76422e-05
1.98865e-05
1.785e-05
3.47981e-05
5.09609e-05
5.09106e-05
1.73614e-05
5.14906e-05
5.15656e-05
4.05869e-05
6.956e-05
3.94347e-05
6.96183e-05
7.01979e-05
7.01763e-05
4.05665e-05
6.96197e-05
3.95585e-05
6.95947e-05
1.79046e-05
1.79044e-05
1.79042e-05
1.74308e-05
1.74313e-05
1.74305e-05
1.74312e-05
2.08643e-05
3.59322e-05
1.73685e-05
1.71541e-05
2.05968e-05
3.65022e-05
1.72174e-05
7.02113e-05
7.01696e-05
2.08787e-05
1.73682e-05
3.59065e-05
1.71541e-05
2.05726e-05
1.72163e-05
3.65209e-05
5.24024e-05
5.24155e-05
1.71065e-05
5.33091e-05
5.32897e-05
4.31816e-05
6.9693e-05
4.21839e-05
6.96969e-05
7.00795e-05
7.00646e-05
4.3148e-05
6.97051e-05
4.22509e-05
6.97257e-05
1.72802e-05
1.72805e-05
1.72803e-05
1.68487e-05
1.68495e-05
1.68473e-05
1.68488e-05
2.18395e-05
3.76284e-05
1.67886e-05
1.67568e-05
2.1532e-05
3.81612e-05
1.66543e-05
7.01006e-05
7.005e-05
2.19124e-05
1.67892e-05
3.76119e-05
1.67636e-05
2.15361e-05
1.6656e-05
3.82411e-05
5.39825e-05
5.41052e-05
1.6978e-05
5.45572e-05
5.45262e-05
4.56891e-05
6.9767e-05
4.46682e-05
6.97865e-05
6.999e-05
6.99696e-05
4.56623e-05
6.97098e-05
4.453e-05
6.98366e-05
1.67108e-05
1.6709e-05
1.67102e-05
1.63219e-05
1.63217e-05
1.63256e-05
1.63229e-05
2.30897e-05
3.93254e-05
1.62783e-05
1.64501e-05
2.26806e-05
3.98456e-05
1.61619e-05
6.99888e-05
6.99481e-05
2.31247e-05
1.62779e-05
3.92541e-05
1.64516e-05
2.26461e-05
1.61625e-05
3.97799e-05
5.53118e-05
5.53779e-05
1.69729e-05
5.57261e-05
5.57302e-05
4.80851e-05
6.98623e-05
4.71909e-05
6.98698e-05
6.99145e-05
6.98831e-05
4.7814e-05
6.9802e-05
4.69644e-05
6.98512e-05
1.62016e-05
1.62029e-05
1.62038e-05
1.5851e-05
1.58582e-05
1.58437e-05
1.58476e-05
2.45919e-05
4.08272e-05
1.58426e-05
1.63095e-05
2.40435e-05
4.15186e-05
1.57459e-05
6.99056e-05
6.98599e-05
2.45806e-05
1.58437e-05
4.10386e-05
1.6298e-05
2.40288e-05
1.57435e-05
4.15524e-05
5.64875e-05
5.65409e-05
1.73408e-05
5.70374e-05
5.70061e-05
5.01271e-05
6.99254e-05
4.9337e-05
6.99735e-05
6.98049e-05
6.98071e-05
5.01657e-05
6.99598e-05
4.93958e-05
6.99667e-05
1.57524e-05
1.57329e-05
1.57389e-05
1.54368e-05
1.5434e-05
1.54365e-05
1.54373e-05
2.59583e-05
4.23039e-05
1.54788e-05
1.62714e-05
2.55603e-05
4.29907e-05
1.53936e-05
6.98307e-05
6.9778e-05
2.60892e-05
1.54675e-05
4.2296e-05
1.61788e-05
2.54552e-05
1.53884e-05
4.29684e-05
5.71415e-05
5.70901e-05
1.76552e-05
5.78796e-05
5.79209e-05
5.17244e-05
6.99736e-05
5.13438e-05
6.99966e-05
6.97297e-05
6.97171e-05
5.16213e-05
6.99696e-05
5.13494e-05
6.9984e-05
1.53323e-05
1.5342e-05
1.53426e-05
2.80098e-05
4.37304e-05
1.51723e-05
1.62387e-05
2.71616e-05
4.42933e-05
1.51165e-05
6.97409e-05
6.97199e-05
2.78393e-05
1.51831e-05
4.39421e-05
1.62826e-05
2.73682e-05
1.51167e-05
4.46122e-05
5.80965e-05
5.82568e-05
1.85059e-05
5.85218e-05
5.85445e-05
3.73741e-05
3.72958e-05
3.72959e-05
5.31118e-05
3.71933e-05
5.3114e-05
3.71933e-05
3.7093e-05
3.72396e-05
3.7241e-05
3.71762e-05
3.71762e-05
3.73701e-05
3.73777e-05
3.73043e-05
3.73768e-05
3.73701e-05
3.73777e-05
3.73043e-05
3.73768e-05
3.71732e-05
3.94123e-05
3.7168e-05
3.67257e-05
3.71732e-05
3.94126e-05
3.7168e-05
3.67256e-05
3.70958e-05
3.71022e-05
3.60248e-05
3.64211e-05
3.71636e-05
3.71109e-05
3.63055e-05
3.70958e-05
3.71022e-05
3.60251e-05
3.64211e-05
3.71636e-05
3.71109e-05
3.63055e-05
3.73741e-05
3.72958e-05
3.72959e-05
5.31124e-05
3.71933e-05
3.7093e-05
3.72402e-05
3.72404e-05
3.71762e-05
3.71762e-05
5.31136e-05
3.71933e-05
3.73701e-05
3.73777e-05
3.73043e-05
3.73768e-05
3.73701e-05
3.73777e-05
3.73768e-05
3.73043e-05
3.71732e-05
3.94126e-05
3.7168e-05
3.67258e-05
3.70958e-05
3.71022e-05
3.60251e-05
3.64211e-05
3.71636e-05
3.71109e-05
3.63055e-05
3.71732e-05
3.94126e-05
3.7168e-05
3.67255e-05
3.70959e-05
3.71022e-05
3.64211e-05
3.6025e-05
3.71109e-05
3.71636e-05
3.63055e-05
3.73773e-05
3.73765e-05
3.7377e-05
3.7377e-05
3.73773e-05
3.73765e-05
3.7377e-05
3.7377e-05
3.73773e-05
3.73765e-05
3.7377e-05
3.7377e-05
3.71133e-05
3.71099e-05
3.64241e-05
3.64241e-05
3.71125e-05
3.71125e-05
3.64261e-05
3.71133e-05
3.71099e-05
3.64241e-05
3.64241e-05
3.71125e-05
3.71125e-05
3.64261e-05
3.71133e-05
3.71099e-05
3.64241e-05
3.64241e-05
3.71125e-05
3.71125e-05
3.64261e-05
3.71133e-05
3.71099e-05
3.64241e-05
3.64241e-05
3.71125e-05
3.71125e-05
3.64261e-05
3.73701e-05
3.73777e-05
3.73768e-05
3.73042e-05
3.70958e-05
3.71022e-05
3.60251e-05
3.64211e-05
3.71636e-05
3.71109e-05
3.63055e-05
3.71732e-05
3.94122e-05
3.7168e-05
3.67258e-05
3.70958e-05
3.71022e-05
3.64211e-05
3.60252e-05
3.71109e-05
3.71636e-05
3.63055e-05
3.71732e-05
3.94124e-05
3.7168e-05
3.67255e-05
3.73741e-05
3.72959e-05
3.72959e-05
5.31144e-05
3.71933e-05
3.7093e-05
3.72402e-05
3.7241e-05
3.71762e-05
3.71762e-05
5.3114e-05
3.71933e-05
3.73701e-05
3.73777e-05
3.73768e-05
3.73043e-05
3.70958e-05
3.71022e-05
3.64211e-05
3.60251e-05
3.71109e-05
3.71636e-05
3.63056e-05
3.70958e-05
3.71022e-05
3.64211e-05
3.60251e-05
3.71109e-05
3.71636e-05
3.63056e-05
3.71732e-05
3.9412e-05
3.7168e-05
3.67258e-05
3.71732e-05
3.94128e-05
3.7168e-05
3.67257e-05
3.7093e-05
3.72413e-05
3.7241e-05
3.71762e-05
3.71762e-05
5.31142e-05
3.71933e-05
5.31143e-05
3.71933e-05
5.5114e-05
6.48943e-05
5.51166e-05
6.48967e-05
3.65985e-05
3.6598e-05
3.5279e-05
3.40623e-05
3.40637e-05
7.47282e-05
6.76712e-05
7.47315e-05
6.76754e-05
3.49729e-05
3.20397e-05
3.20408e-05
3.34707e-05
3.34696e-05
3.58803e-05
4.08731e-05
3.66029e-05
4.51465e-05
3.52758e-05
3.56386e-05
3.58929e-05
3.5377e-05
3.60475e-05
3.42373e-05
3.53822e-05
3.52758e-05
3.56383e-05
3.58929e-05
3.5377e-05
3.60474e-05
3.42378e-05
3.53822e-05
3.56328e-05
5.02132e-05
4.6454e-05
3.48938e-05
3.56326e-05
5.0215e-05
4.64567e-05
3.48937e-05
3.49992e-05
3.48726e-05
3.27312e-05
3.44018e-05
3.3864e-05
3.48857e-05
3.41799e-05
3.49991e-05
3.48725e-05
3.2732e-05
3.44018e-05
3.38634e-05
3.48857e-05
3.41798e-05
3.6598e-05
3.65976e-05
3.52791e-05
3.4063e-05
3.40637e-05
5.51163e-05
6.48961e-05
7.47301e-05
6.76734e-05
3.49729e-05
3.2041e-05
3.20408e-05
3.34696e-05
3.34685e-05
7.47302e-05
6.7674e-05
3.52758e-05
3.56379e-05
3.58929e-05
3.5377e-05
3.60475e-05
3.42375e-05
3.53822e-05
3.58802e-05
4.08737e-05
3.66031e-05
4.51459e-05
3.52757e-05
3.58929e-05
3.56383e-05
3.5377e-05
3.60475e-05
3.53822e-05
3.42371e-05
3.56333e-05
5.02142e-05
4.64552e-05
3.48937e-05
3.49993e-05
3.48726e-05
3.27313e-05
3.44018e-05
3.38632e-05
3.48857e-05
3.41799e-05
3.5633e-05
5.02155e-05
4.64574e-05
3.48928e-05
3.49993e-05
3.48725e-05
3.44018e-05
3.27309e-05
3.48857e-05
3.38636e-05
3.41796e-05
3.58802e-05
4.08723e-05
3.66034e-05
4.51442e-05
3.52758e-05
3.58929e-05
3.5638e-05
3.53771e-05
3.60475e-05
3.53822e-05
3.42376e-05
3.58803e-05
4.0872e-05
3.66029e-05
4.5147e-05
3.49993e-05
3.48726e-05
3.27317e-05
3.44018e-05
3.3863e-05
3.48857e-05
3.41799e-05
3.56334e-05
5.02129e-05
4.6455e-05
3.48936e-05
3.49992e-05
3.48726e-05
3.44018e-05
3.27315e-05
3.48857e-05
3.38629e-05
3.41798e-05
3.56329e-05
5.02154e-05
4.64553e-05
3.48935e-05
3.65982e-05
3.65971e-05
3.5279e-05
3.40623e-05
3.40637e-05
5.51164e-05
6.48961e-05
7.47323e-05
6.76756e-05
3.49729e-05
3.20398e-05
3.20413e-05
3.3471e-05
3.34696e-05
7.47306e-05
6.76746e-05
3.52758e-05
3.58929e-05
3.56382e-05
3.5377e-05
3.60475e-05
3.53822e-05
3.42374e-05
3.58806e-05
4.08721e-05
3.66032e-05
4.51439e-05
3.58806e-05
4.08728e-05
3.6603e-05
4.51472e-05
3.49993e-05
3.48726e-05
3.44018e-05
3.27313e-05
3.48857e-05
3.38632e-05
3.41799e-05
3.49992e-05
3.48726e-05
3.44018e-05
3.27314e-05
3.48857e-05
3.38632e-05
3.41798e-05
3.56331e-05
5.02133e-05
4.64546e-05
3.48942e-05
3.56326e-05
5.02162e-05
4.64566e-05
3.48936e-05
5.51164e-05
6.48962e-05
5.51168e-05
6.48968e-05
3.49729e-05
3.20425e-05
3.20412e-05
3.34682e-05
3.34688e-05
7.47308e-05
6.76743e-05
7.47322e-05
6.76758e-05
7.65429e-05
8.08593e-05
7.65475e-05
8.08625e-05
3.17184e-05
3.17167e-05
3.32638e-05
3.09226e-05
3.09238e-05
8.40048e-05
8.18481e-05
8.40073e-05
8.18522e-05
3.29546e-05
3.0309e-05
3.03098e-05
3.07473e-05
3.07447e-05
3.39678e-05
5.13555e-05
3.46785e-05
5.46251e-05
3.30542e-05
3.24748e-05
3.39295e-05
3.34086e-05
3.38959e-05
3.15769e-05
3.34678e-05
3.30541e-05
3.2474e-05
3.39295e-05
3.34086e-05
3.38958e-05
3.15778e-05
3.34678e-05
3.37787e-05
5.83684e-05
5.55971e-05
3.30853e-05
3.37777e-05
5.83696e-05
5.55994e-05
3.30846e-05
3.27692e-05
3.29353e-05
3.06519e-05
3.25726e-05
3.13922e-05
3.30158e-05
3.19186e-05
3.27689e-05
3.29352e-05
3.0652e-05
3.25726e-05
3.1392e-05
3.30158e-05
3.19184e-05
3.17168e-05
3.17163e-05
3.32638e-05
3.09248e-05
3.09241e-05
7.65457e-05
8.08611e-05
8.40061e-05
8.18507e-05
3.29546e-05
3.03106e-05
3.03091e-05
3.07457e-05
3.07447e-05
8.40059e-05
8.18507e-05
3.30542e-05
3.24737e-05
3.39295e-05
3.34087e-05
3.3896e-05
3.15767e-05
3.34678e-05
3.39652e-05
5.13562e-05
3.46794e-05
5.46257e-05
3.30538e-05
3.39294e-05
3.24744e-05
3.34086e-05
3.3896e-05
3.34678e-05
3.15758e-05
3.37788e-05
5.83694e-05
5.55987e-05
3.3085e-05
3.27691e-05
3.29353e-05
3.06512e-05
3.25726e-05
3.13914e-05
3.30158e-05
3.19185e-05
3.37805e-05
5.83705e-05
5.56004e-05
3.30824e-05
3.27692e-05
3.29352e-05
3.25726e-05
3.06505e-05
3.30157e-05
3.13927e-05
3.1918e-05
3.39674e-05
5.1354e-05
3.46793e-05
5.4624e-05
3.30541e-05
3.39295e-05
3.24739e-05
3.34086e-05
3.38958e-05
3.34678e-05
3.15774e-05
3.39673e-05
5.13547e-05
3.46789e-05
5.46252e-05
3.27692e-05
3.29353e-05
3.06511e-05
3.25726e-05
3.13916e-05
3.30158e-05
3.19186e-05
3.37788e-05
5.83686e-05
5.55977e-05
3.30851e-05
3.27689e-05
3.29352e-05
3.25726e-05
3.06514e-05
3.30158e-05
3.13914e-05
3.19185e-05
3.37784e-05
5.83704e-05
5.55995e-05
3.3085e-05
3.17183e-05
3.17171e-05
3.32638e-05
3.09226e-05
3.09244e-05
7.65464e-05
8.08619e-05
8.40074e-05
8.18535e-05
3.29546e-05
3.0309e-05
3.03101e-05
3.07473e-05
3.07448e-05
8.4007e-05
8.18514e-05
3.30541e-05
3.39294e-05
3.24739e-05
3.34087e-05
3.38958e-05
3.34678e-05
3.15773e-05
3.39676e-05
5.13535e-05
3.46787e-05
5.46233e-05
3.39669e-05
5.13561e-05
3.46785e-05
5.46265e-05
3.27691e-05
3.29353e-05
3.25726e-05
3.06513e-05
3.30158e-05
3.13915e-05
3.19185e-05
3.27689e-05
3.29353e-05
3.25726e-05
3.06514e-05
3.30157e-05
3.13915e-05
3.19183e-05
3.37788e-05
5.83694e-05
5.55985e-05
3.30852e-05
3.37785e-05
5.83711e-05
5.56006e-05
3.30848e-05
7.65463e-05
8.0862e-05
7.65479e-05
8.08634e-05
3.29546e-05
3.03108e-05
3.03101e-05
3.07448e-05
3.07446e-05
8.40068e-05
8.18514e-05
8.40079e-05
8.18529e-05
8.43908e-05
8.50669e-05
8.43939e-05
8.50688e-05
3.02189e-05
3.02167e-05
3.12732e-05
3.00038e-05
3.00039e-05
8.48431e-05
8.50714e-05
8.48443e-05
8.50732e-05
3.09612e-05
2.993e-05
2.99295e-05
2.99705e-05
2.99691e-05
3.22521e-05
5.91721e-05
3.29216e-05
6.14427e-05
3.07897e-05
3.05136e-05
3.21376e-05
3.15539e-05
3.16367e-05
2.98874e-05
3.17101e-05
3.07894e-05
3.05135e-05
3.21375e-05
3.15537e-05
3.16364e-05
2.98875e-05
3.17101e-05
3.21126e-05
6.38724e-05
6.20719e-05
3.14736e-05
3.21124e-05
6.38753e-05
6.2076e-05
3.14733e-05
3.05138e-05
3.1106e-05
2.92374e-05
3.08764e-05
2.97756e-05
3.12899e-05
2.96802e-05
3.05136e-05
3.11059e-05
2.92376e-05
3.08763e-05
2.97757e-05
3.12898e-05
2.968e-05
3.02173e-05
3.02167e-05
3.12732e-05
3.00048e-05
3.00033e-05
8.43927e-05
8.50678e-05
8.48437e-05
8.50722e-05
3.09611e-05
2.99305e-05
2.99292e-05
2.99699e-05
2.9969e-05
8.48437e-05
8.50724e-05
3.07895e-05
3.05129e-05
3.21375e-05
3.15539e-05
3.16366e-05
2.98869e-05
3.17101e-05
3.22501e-05
5.91731e-05
3.29239e-05
6.14437e-05
3.07891e-05
3.21375e-05
3.05134e-05
3.15537e-05
3.16366e-05
3.17101e-05
2.9887e-05
3.21127e-05
6.3875e-05
6.20753e-05
3.14735e-05
3.05137e-05
3.11061e-05
2.92369e-05
3.08764e-05
2.97751e-05
3.12898e-05
2.96801e-05
3.21138e-05
6.38769e-05
6.2077e-05
3.14722e-05
3.05137e-05
3.11058e-05
3.08763e-05
2.92369e-05
3.12898e-05
2.97751e-05
2.96797e-05
3.22521e-05
5.91692e-05
3.29218e-05
6.14392e-05
3.07894e-05
3.21375e-05
3.05128e-05
3.15538e-05
3.16363e-05
3.17101e-05
2.98869e-05
3.2252e-05
5.91709e-05
3.29215e-05
6.14424e-05
3.05137e-05
3.11062e-05
2.92369e-05
3.08764e-05
2.97752e-05
3.12899e-05
2.96801e-05
3.21124e-05
6.38695e-05
6.20736e-05
3.1473e-05
3.05134e-05
3.11059e-05
3.08764e-05
2.92369e-05
3.12898e-05
2.97751e-05
2.968e-05
3.21121e-05
6.38736e-05
6.20738e-05
3.14729e-05
3.02179e-05
3.02165e-05
3.12731e-05
3.00043e-05
3.00038e-05
8.43935e-05
8.50688e-05
8.48448e-05
8.50737e-05
3.09612e-05
2.99301e-05
2.99295e-05
2.99696e-05
2.9969e-05
8.48445e-05
8.50732e-05
3.07893e-05
3.21375e-05
3.0513e-05
3.15539e-05
3.16364e-05
3.17101e-05
2.98871e-05
3.22524e-05
5.91708e-05
3.2922e-05
6.14422e-05
3.2252e-05
5.91731e-05
3.29217e-05
6.14438e-05
3.05138e-05
3.11062e-05
3.08764e-05
2.92367e-05
3.12899e-05
2.97749e-05
2.968e-05
3.05135e-05
3.11061e-05
3.08763e-05
2.92371e-05
3.12898e-05
2.97752e-05
2.96799e-05
3.21126e-05
6.38743e-05
6.20742e-05
3.14735e-05
3.21123e-05
6.38764e-05
6.20771e-05
3.14731e-05
8.43933e-05
8.50685e-05
8.43944e-05
8.50693e-05
3.09611e-05
2.99302e-05
2.99301e-05
2.99697e-05
2.99694e-05
8.48443e-05
8.5073e-05
8.48446e-05
8.50735e-05
8.46115e-05
8.39112e-05
8.46137e-05
8.391e-05
2.99415e-05
2.99405e-05
2.93485e-05
3.00357e-05
3.00353e-05
8.26233e-05
8.35492e-05
8.26217e-05
8.35507e-05
2.90408e-05
3.03195e-05
3.03195e-05
3.01087e-05
3.0108e-05
3.07539e-05
6.43518e-05
3.13502e-05
6.57291e-05
2.8601e-05
2.91422e-05
3.04694e-05
2.98002e-05
2.94129e-05
2.86756e-05
3.00687e-05
2.86008e-05
2.91423e-05
3.04694e-05
2.98e-05
2.94126e-05
2.86758e-05
3.00686e-05
3.0643e-05
6.70842e-05
6.60705e-05
3.00999e-05
3.06427e-05
6.70861e-05
6.60721e-05
3.00996e-05
2.83443e-05
2.9378e-05
2.81915e-05
2.92854e-05
2.85945e-05
2.96741e-05
2.75614e-05
2.8344e-05
2.93778e-05
2.81918e-05
2.92854e-05
2.85946e-05
2.96741e-05
2.75611e-05
2.99416e-05
2.99403e-05
2.93485e-05
3.00364e-05
3.00349e-05
8.46133e-05
8.39097e-05
8.26215e-05
8.35509e-05
2.90407e-05
3.03203e-05
3.03189e-05
3.01094e-05
3.01077e-05
8.26215e-05
8.35513e-05
2.86008e-05
2.91416e-05
3.04694e-05
2.98004e-05
2.94127e-05
2.86752e-05
3.00687e-05
3.07529e-05
6.43526e-05
3.13503e-05
6.57302e-05
2.86004e-05
3.04693e-05
2.91416e-05
2.98e-05
2.94126e-05
3.00686e-05
2.86751e-05
3.06428e-05
6.70865e-05
6.60722e-05
3.00997e-05
2.83441e-05
2.93782e-05
2.81912e-05
2.92854e-05
2.8594e-05
2.96741e-05
2.75611e-05
3.06423e-05
6.7088e-05
6.6074e-05
3.00988e-05
2.8344e-05
2.93777e-05
2.92854e-05
2.81911e-05
2.9674e-05
2.8594e-05
2.75607e-05
3.0754e-05
6.43524e-05
3.13502e-05
6.57233e-05
2.86008e-05
3.04694e-05
2.91416e-05
2.98001e-05
2.94124e-05
3.00687e-05
2.86751e-05
3.07538e-05
6.43506e-05
3.13499e-05
6.57277e-05
2.83441e-05
2.93783e-05
2.8191e-05
2.92855e-05
2.85941e-05
2.96741e-05
2.75611e-05
3.06426e-05
6.70818e-05
6.60751e-05
3.00997e-05
2.83438e-05
2.93779e-05
2.92854e-05
2.8191e-05
2.96741e-05
2.85939e-05
2.75611e-05
3.06425e-05
6.7085e-05
6.60718e-05
3.00995e-05
2.99411e-05
2.99404e-05
2.93483e-05
3.00358e-05
3.0035e-05
8.46138e-05
8.39105e-05
8.26213e-05
8.35515e-05
2.90407e-05
3.032e-05
3.0319e-05
3.01086e-05
3.01077e-05
8.26218e-05
8.35514e-05
2.86006e-05
3.04693e-05
2.91418e-05
2.98003e-05
2.94125e-05
3.00687e-05
2.86754e-05
3.07541e-05
6.43504e-05
3.13502e-05
6.57278e-05
3.07536e-05
6.43536e-05
3.13499e-05
6.57311e-05
2.83442e-05
2.93782e-05
2.92855e-05
2.81908e-05
2.96741e-05
2.85937e-05
2.7561e-05
2.83439e-05
2.93781e-05
2.92854e-05
2.81913e-05
2.9674e-05
2.85941e-05
2.75609e-05
3.06428e-05
6.7086e-05
6.6073e-05
3.00997e-05
3.06424e-05
6.70883e-05
6.60733e-05
3.00993e-05
8.46133e-05
8.39106e-05
8.46137e-05
8.39104e-05
2.90406e-05
3.03198e-05
3.03202e-05
3.01085e-05
3.01087e-05
8.26223e-05
8.3551e-05
8.26219e-05
8.3551e-05
8.22138e-05
8.12214e-05
8.22148e-05
8.12192e-05
3.04498e-05
3.04494e-05
2.75332e-05
3.07684e-05
3.07687e-05
7.98351e-05
8.08051e-05
7.98331e-05
8.08061e-05
2.72389e-05
3.13693e-05
3.13789e-05
3.09503e-05
3.0946e-05
2.95187e-05
6.73201e-05
3.00007e-05
6.8034e-05
2.65681e-05
2.81235e-05
2.89027e-05
2.81515e-05
2.73169e-05
2.7782e-05
2.85256e-05
2.65679e-05
2.81238e-05
2.89026e-05
2.81513e-05
2.73167e-05
2.77823e-05
2.85256e-05
2.94336e-05
6.86552e-05
6.818e-05
2.90185e-05
2.94334e-05
6.86605e-05
6.81827e-05
2.90181e-05
2.6338e-05
2.77563e-05
2.7448e-05
2.77886e-05