/*--------------------------------*- C++ -*----------------------------------*\
| =========                 |                                                 |
| \\      /  F ield         | OpenFOAM: The Open Source CFD Toolbox           |
|  \\    /   O peration     | Version:  v2012                                 |
|   \\  /    A nd           | Website:  www.openfoam.com                      |
|    \\/     M anipulation  |                                                 |
\*---------------------------------------------------------------------------*/
FoamFile
{
    version     2.0;
    format      ascii;
    class       volScalarField;
    location    "87.5";
    object      epsilon;
}
// * * * * * * * * * * * * * * * * * * * * * * * * * * * * * * * * * * * * * //

dimensions      [0 2 -3 0 0 0 0];


internalField   nonuniform List<scalar> 
171728
(
9.28538e-08
1.97666e-08
2.08084e-08
7.90023e-09
9.42986e-08
1.90519e-08
2.24651e-08
7.48572e-09
9.78438e-08
1.77888e-08
2.45953e-08
7.273e-09
1.01324e-07
1.73943e-08
2.67747e-08
7.22973e-09
1.04738e-07
1.84772e-08
2.86293e-08
7.29709e-09
1.08141e-07
2.0758e-08
2.99247e-08
7.67676e-09
1.11503e-07
2.38292e-08
3.00755e-08
8.53263e-09
1.14865e-07
2.76159e-08
3.03582e-08
1.02086e-08
1.18217e-07
3.24303e-08
3.36247e-08
1.32178e-08
1.2182e-07
3.86403e-08
3.96255e-08
1.75408e-08
1.25557e-07
4.60862e-08
4.68639e-08
2.30334e-08
1.29197e-07
5.4539e-08
5.50427e-08
2.97426e-08
1.33351e-07
6.4937e-08
6.56564e-08
3.87296e-08
1.37847e-07
7.68338e-08
7.71967e-08
5.12551e-08
1.43901e-07
9.16756e-08
9.21409e-08
6.88826e-08
1.51377e-07
1.10062e-07
1.10352e-07
9.45415e-08
1.60861e-07
1.35625e-07
1.35811e-07
1.35894e-07
1.73839e-07
1.74869e-07
1.74884e-07
2.06239e-07
1.92145e-07
2.32328e-07
2.32313e-07
3.07974e-07
2.1155e-07
2.94537e-07
2.94539e-07
4.09605e-07
2.30553e-07
3.48737e-07
3.48745e-07
4.85053e-07
2.43347e-07
3.78356e-07
3.7837e-07
5.2044e-07
2.48351e-07
3.8737e-07
3.8738e-07
5.2895e-07
2.49593e-07
3.89152e-07
3.89161e-07
5.30406e-07
2.49825e-07
3.89446e-07
3.89456e-07
5.30689e-07
2.49866e-07
3.89493e-07
3.89503e-07
5.30685e-07
2.49877e-07
3.89506e-07
3.89515e-07
5.30689e-07
2.49883e-07
3.89513e-07
3.89522e-07
5.30701e-07
2.49888e-07
3.89518e-07
3.89527e-07
5.30702e-07
2.49892e-07
3.89521e-07
3.8953e-07
5.30705e-07
2.49896e-07
3.89523e-07
3.89533e-07
5.30709e-07
2.49899e-07
3.89524e-07
3.89533e-07
5.30702e-07
2.49901e-07
3.89523e-07
3.89533e-07
5.307e-07
2.49903e-07
3.89523e-07
3.89533e-07
5.30706e-07
2.49903e-07
3.89524e-07
3.89533e-07
5.30701e-07
2.49903e-07
3.89524e-07
3.89533e-07
5.30702e-07
2.49903e-07
3.89524e-07
3.89533e-07
5.30718e-07
2.49902e-07
3.89524e-07
3.89532e-07
5.30735e-07
2.49902e-07
3.89524e-07
3.89532e-07
5.30747e-07
2.49902e-07
3.89524e-07
3.89532e-07
5.30757e-07
2.49902e-07
3.89524e-07
3.89532e-07
5.30767e-07
2.49902e-07
3.89524e-07
3.89532e-07
5.3078e-07
2.49902e-07
3.89524e-07
3.89532e-07
5.30784e-07
2.49903e-07
3.89523e-07
3.89532e-07
5.30782e-07
2.49903e-07
3.89523e-07
3.89531e-07
5.3078e-07
2.49903e-07
3.89523e-07
3.89532e-07
5.30779e-07
2.49902e-07
3.89522e-07
3.89532e-07
5.30783e-07
2.49902e-07
3.89522e-07
3.89531e-07
5.30784e-07
2.49902e-07
3.89522e-07
3.89531e-07
5.30783e-07
2.49902e-07
3.89522e-07
3.89531e-07
5.30782e-07
2.49903e-07
3.89522e-07
3.8953e-07
5.30783e-07
2.49903e-07
3.89522e-07
3.8953e-07
5.30784e-07
2.49903e-07
3.89522e-07
3.89531e-07
5.30783e-07
2.49902e-07
3.89521e-07
3.89531e-07
5.30781e-07
2.49902e-07
3.89521e-07
3.89531e-07
5.30782e-07
2.49902e-07
3.89523e-07
3.89531e-07
5.30784e-07
2.49902e-07
3.89524e-07
3.8953e-07
5.30785e-07
2.49902e-07
3.89524e-07
3.8953e-07
5.30784e-07
2.49902e-07
3.89524e-07
3.8953e-07
5.30783e-07
2.49902e-07
3.89524e-07
3.8953e-07
5.30784e-07
2.49901e-07
3.89524e-07
3.8953e-07
5.30787e-07
2.49901e-07
3.89524e-07
3.8953e-07
5.30784e-07
2.49901e-07
3.89524e-07
3.8953e-07
5.30782e-07
2.49901e-07
3.89523e-07
3.8953e-07
5.30781e-07
2.49901e-07
3.89523e-07
3.8953e-07
5.30779e-07
2.49902e-07
3.89524e-07
3.8953e-07
5.3078e-07
2.49902e-07
3.89524e-07
3.8953e-07
5.30783e-07
2.49901e-07
3.89523e-07
3.8953e-07
5.30786e-07
2.49901e-07
3.89523e-07
3.8953e-07
5.30786e-07
2.49901e-07
3.89523e-07
3.8953e-07
5.30784e-07
2.499e-07
3.89524e-07
3.8953e-07
5.30783e-07
2.499e-07
3.89524e-07
3.8953e-07
5.30784e-07
2.499e-07
3.89524e-07
3.89531e-07
5.30783e-07
2.49901e-07
3.89524e-07
3.89532e-07
5.30785e-07
2.49901e-07
3.89524e-07
3.89533e-07
5.30783e-07
2.49901e-07
3.89525e-07
3.89533e-07
5.30779e-07
2.49902e-07
3.89526e-07
3.89533e-07
5.3078e-07
2.49902e-07
3.89526e-07
3.89534e-07
5.30781e-07
2.49903e-07
3.89527e-07
3.89534e-07
5.30783e-07
2.49903e-07
3.89527e-07
3.89535e-07
5.30785e-07
2.49905e-07
3.89527e-07
3.89535e-07
5.30785e-07
2.49905e-07
3.89527e-07
3.89536e-07
5.30784e-07
2.49906e-07
3.89528e-07
3.89537e-07
5.30782e-07
2.49907e-07
3.89529e-07
3.89538e-07
5.30787e-07
2.49908e-07
3.8953e-07
3.89539e-07
5.30784e-07
2.49909e-07
3.89531e-07
3.8954e-07
5.30778e-07
2.4991e-07
3.89532e-07
3.89541e-07
5.30784e-07
2.49911e-07
3.89532e-07
3.89541e-07
5.30786e-07
2.49913e-07
3.89532e-07
3.8954e-07
5.30778e-07
2.49914e-07
3.89529e-07
3.89538e-07
5.30771e-07
2.49915e-07
3.89523e-07
3.89532e-07
5.30768e-07
2.49917e-07
3.89511e-07
3.89519e-07
5.30759e-07
2.49916e-07
3.89481e-07
3.8949e-07
5.30738e-07
2.49848e-07
3.89425e-07
3.89435e-07
5.30547e-07
2.46262e-07
3.71847e-07
3.71845e-07
5.07337e-07
7.24631e-09
1.00616e-08
1.09776e-08
7.74998e-09
9.8838e-09
1.13094e-08
9.45069e-08
9.39648e-08
9.45926e-08
9.41118e-08
1.06827e-08
1.03764e-08
8.05181e-09
1.41197e-08
1.16289e-08
7.98522e-09
7.14778e-09
6.79922e-09
1.32611e-08
1.43088e-08
1.39446e-08
1.4977e-08
7.66294e-09
7.45629e-09
1.33687e-08
1.55307e-08
1.40655e-08
1.56827e-08
1.3693e-08
1.92497e-08
1.42871e-08
7.96891e-09
7.85885e-09
1.71653e-08
2.19616e-08
1.6992e-08
7.58401e-09
6.71936e-09
6.64073e-09
1.42879e-08
1.52992e-08
1.54413e-08
1.6387e-08
7.38947e-09
7.33398e-09
1.44181e-08
1.58002e-08
1.55923e-08
1.62228e-08
1.46017e-08
1.81352e-08
1.56748e-08
7.7997e-09
7.89228e-09
1.69971e-08
2.40585e-08
1.72896e-08
7.3305e-09
6.59227e-09
6.77969e-09
1.58523e-08
1.67804e-08
1.72558e-08
1.80856e-08
7.27922e-09
7.38148e-09
1.60175e-08
1.64003e-08
1.74745e-08
1.71558e-08
1.60656e-08
1.73896e-08
1.74095e-08
7.83747e-09
8.04587e-09
1.74547e-08
2.62449e-08
1.81833e-08
7.28518e-09
6.74346e-09
7.14959e-09
1.77499e-08
1.85412e-08
1.93943e-08
2.00757e-08
7.3448e-09
7.66568e-09
1.79686e-08
1.74386e-08
1.96249e-08
1.86237e-08
1.78882e-08
1.80534e-08
1.94754e-08
7.98762e-09
8.28644e-09
1.84739e-08
2.82045e-08
1.95729e-08
7.34337e-09
7.11849e-09
7.80392e-09
1.99938e-08
2.05945e-08
2.19856e-08
2.23589e-08
7.63769e-09
8.2939e-09
2.02113e-08
1.91115e-08
2.22016e-08
2.09444e-08
2.00497e-08
2.01355e-08
2.20103e-08
8.22958e-09
8.72084e-09
1.99858e-08
2.97191e-08
2.12847e-08
7.70971e-09
7.78398e-09
8.8866e-09
2.26898e-08
2.29898e-08
2.50509e-08
2.50314e-08
8.28223e-09
9.28267e-09
2.29233e-08
2.16305e-08
2.5255e-08
2.39512e-08
2.27149e-08
2.29704e-08
2.51193e-08
8.66844e-09
9.22611e-09
2.17519e-08
3.0067e-08
2.34391e-08
8.53718e-09
8.88959e-09
1.05611e-08
2.59531e-08
2.57959e-08
2.89276e-08
2.82045e-08
9.28292e-09
1.07992e-08
2.61605e-08
2.47468e-08
2.9086e-08
2.75091e-08
2.60374e-08
2.65929e-08
2.90088e-08
9.18453e-09
1.02849e-08
2.41447e-08
3.02062e-08
2.65866e-08
1.0135e-08
1.06156e-08
1.33019e-08
3.00846e-08
2.91442e-08
3.38296e-08
3.23269e-08
1.08587e-08
1.33001e-08
3.01903e-08
2.85849e-08
3.38327e-08
3.19389e-08
3.01621e-08
3.11507e-08
3.39073e-08
1.03133e-08
1.2754e-08
2.76199e-08
3.25109e-08
3.11427e-08
1.30435e-08
1.34604e-08
1.75525e-08
3.51875e-08
3.35181e-08
3.98935e-08
3.77303e-08
1.34384e-08
1.71779e-08
3.51568e-08
3.33271e-08
3.96607e-08
3.8126e-08
3.52548e-08
3.69917e-08
3.98165e-08
1.29187e-08
1.70625e-08
3.24354e-08
3.80605e-08
3.69783e-08
1.72692e-08
1.78226e-08
2.29338e-08
4.15333e-08
3.92918e-08
4.68401e-08
4.45306e-08
1.74426e-08
2.25618e-08
4.12569e-08
3.97513e-08
4.63512e-08
4.48885e-08
4.14144e-08
4.40742e-08
4.65019e-08
1.73568e-08
2.26102e-08
3.86329e-08
4.48239e-08
4.4039e-08
2.26783e-08
2.32738e-08
2.94266e-08
4.8841e-08
4.65196e-08
5.47606e-08
5.261e-08
2.2925e-08
2.91969e-08
4.82602e-08
4.68556e-08
5.42649e-08
5.2845e-08
4.84046e-08
5.23173e-08
5.42495e-08
2.2968e-08
2.92421e-08
4.60696e-08
5.29405e-08
5.22334e-08
2.92621e-08
2.99007e-08
3.80658e-08
5.68827e-08
5.48254e-08
6.41624e-08
6.24319e-08
2.96794e-08
3.79942e-08
5.64414e-08
5.50365e-08
6.39397e-08
6.26584e-08
5.63833e-08
6.22876e-08
6.37641e-08
2.97304e-08
3.81297e-08
5.44517e-08
6.2993e-08
6.21804e-08
3.80005e-08
3.88715e-08
4.94223e-08
6.66172e-08
6.50838e-08
7.4649e-08
7.36899e-08
3.87348e-08
4.95347e-08
6.65546e-08
6.5283e-08
7.49024e-08
7.37815e-08
6.62946e-08
7.35786e-08
7.44695e-08
3.88791e-08
4.96684e-08
6.48473e-08
7.39384e-08
7.3401e-08
4.93716e-08
5.13992e-08
6.57963e-08
7.78343e-08
7.69638e-08
8.84552e-08
8.78322e-08
5.13691e-08
6.58e-08
7.80744e-08
7.70582e-08
8.87104e-08
8.7917e-08
7.76664e-08
8.77776e-08
8.83704e-08
5.15447e-08
6.59396e-08
7.66851e-08
8.82533e-08
8.76291e-08
6.56518e-08
6.90524e-08
8.96461e-08
9.22449e-08
9.1747e-08
1.0526e-07
1.05012e-07
6.89994e-08
8.96397e-08
9.25383e-08
9.18021e-08
1.0547e-07
1.04981e-07
9.2191e-08
1.04963e-07
1.05165e-07
6.91907e-08
8.98681e-08
9.15692e-08
1.05271e-07
1.04883e-07
8.94966e-08
9.47077e-08
1.27598e-07
1.10392e-07
1.10149e-07
1.28631e-07
1.28366e-07
9.47136e-08
1.27293e-07
1.10528e-07
1.10105e-07
1.2867e-07
1.28287e-07
1.10261e-07
1.28285e-07
1.28428e-07
9.49088e-08
1.27476e-07
1.10039e-07
1.28502e-07
1.28284e-07
1.2727e-07
1.36261e-07
1.92155e-07
1.35962e-07
1.35748e-07
1.63411e-07
1.63434e-07
1.35861e-07
1.91887e-07
1.36011e-07
1.3564e-07
1.63492e-07
1.6325e-07
1.35763e-07
1.63314e-07
1.63275e-07
1.36064e-07
1.91921e-07
1.35643e-07
1.63353e-07
1.63225e-07
1.91817e-07
2.06553e-07
2.88972e-07
1.7493e-07
1.75012e-07
2.16868e-07
2.16978e-07
2.06382e-07
2.89055e-07
1.75004e-07
1.74823e-07
2.16898e-07
2.16861e-07
1.7482e-07
2.16886e-07
2.1682e-07
2.06353e-07
2.88945e-07
1.74785e-07
2.16869e-07
2.16802e-07
2.88864e-07
3.08064e-07
3.92861e-07
2.32331e-07
2.32426e-07
2.79186e-07
2.79228e-07
3.08147e-07
3.9289e-07
2.32341e-07
2.32337e-07
2.79148e-07
2.79204e-07
2.32299e-07
2.79154e-07
2.7918e-07
3.08045e-07
3.92878e-07
2.32278e-07
2.79152e-07
2.79132e-07
3.92893e-07
4.09578e-07
4.73416e-07
2.94592e-07
2.94626e-07
3.37118e-07
3.37146e-07
4.09603e-07
4.73429e-07
2.94542e-07
2.94613e-07
3.37051e-07
3.37156e-07
2.94592e-07
3.37058e-07
3.37137e-07
4.09592e-07
4.73448e-07
2.94536e-07
3.37064e-07
3.37067e-07
4.73482e-07
4.84998e-07
5.15656e-07
3.4881e-07
3.48836e-07
3.73506e-07
3.73527e-07
4.85017e-07
5.15669e-07
3.48737e-07
3.48849e-07
3.73424e-07
3.73545e-07
3.48829e-07
3.73428e-07
3.73524e-07
4.85032e-07
5.15698e-07
3.48756e-07
3.73442e-07
3.73445e-07
5.15728e-07
5.20373e-07
5.27093e-07
3.78439e-07
3.78459e-07
3.86293e-07
3.86311e-07
5.2039e-07
5.27111e-07
3.78355e-07
3.78477e-07
3.86209e-07
3.8633e-07
3.78456e-07
3.86214e-07
3.86309e-07
5.20416e-07
5.27135e-07
3.78378e-07
3.86224e-07
3.86232e-07
5.27161e-07
5.28886e-07
5.29121e-07
3.87453e-07
3.87469e-07
3.89032e-07
3.89047e-07
5.28912e-07
5.29141e-07
3.87368e-07
3.87488e-07
3.88947e-07
3.89066e-07
3.87468e-07
3.88949e-07
3.89044e-07
5.28929e-07
5.29161e-07
3.87391e-07
3.88959e-07
3.88968e-07
5.29185e-07
5.30345e-07
5.29496e-07
3.89237e-07
3.89251e-07
3.895e-07
3.89513e-07
5.30373e-07
5.29514e-07
3.8915e-07
3.89269e-07
3.89413e-07
3.89532e-07
3.89247e-07
3.89414e-07
3.89506e-07
5.30386e-07
5.29534e-07
3.89171e-07
3.89424e-07
3.8943e-07
5.29554e-07
5.30634e-07
5.295e-07
3.89533e-07
3.89546e-07
3.89575e-07
3.89588e-07
5.3066e-07
5.29519e-07
3.89446e-07
3.89565e-07
3.89487e-07
3.89606e-07
3.89538e-07
3.89488e-07
3.89576e-07
5.30673e-07
5.29539e-07
3.89462e-07
3.89497e-07
3.895e-07
5.29553e-07
5.30636e-07
5.29507e-07
3.89581e-07
3.89593e-07
3.89591e-07
3.89605e-07
5.30663e-07
5.29526e-07
3.89492e-07
3.89612e-07
3.89502e-07
3.89622e-07
3.89582e-07
3.89504e-07
3.8959e-07
5.30676e-07
5.29544e-07
3.89505e-07
3.89513e-07
3.89514e-07
5.29555e-07
5.30644e-07
5.29522e-07
3.89594e-07
3.89608e-07
3.896e-07
3.89614e-07
5.30671e-07
5.2954e-07
3.89505e-07
3.89625e-07
3.89511e-07
3.89631e-07
3.89593e-07
3.89512e-07
3.89598e-07
5.30683e-07
5.29557e-07
3.89517e-07
3.89521e-07
3.89522e-07
5.29569e-07
5.30656e-07
5.29524e-07
3.89602e-07
3.89616e-07
3.89606e-07
3.89621e-07
5.30683e-07
5.29542e-07
3.89513e-07
3.89633e-07
3.89516e-07
3.89637e-07
3.896e-07
3.89517e-07
3.89603e-07
5.30694e-07
5.29558e-07
3.89524e-07
3.89526e-07
3.89527e-07
5.29568e-07
5.30659e-07
5.2953e-07
3.89608e-07
3.89623e-07
3.8961e-07
3.89626e-07
5.30687e-07
5.29548e-07
3.89518e-07
3.89638e-07
3.8952e-07
3.89641e-07
3.89605e-07
3.89521e-07
3.89606e-07
5.30696e-07
5.29563e-07
3.89529e-07
3.8953e-07
3.8953e-07
5.29573e-07
5.30665e-07
5.29532e-07
3.89612e-07
3.89627e-07
3.89613e-07
3.89629e-07
5.30691e-07
5.2955e-07
3.89522e-07
3.89642e-07
3.89522e-07
3.89642e-07
3.89607e-07
3.89523e-07
3.89607e-07
5.307e-07
5.29565e-07
3.89531e-07
3.89532e-07
3.89531e-07
5.29575e-07
5.30667e-07
5.29534e-07
3.89614e-07
3.8963e-07
3.89615e-07
3.89631e-07
5.30694e-07
5.29552e-07
3.89523e-07
3.89643e-07
3.89523e-07
3.89643e-07
3.89607e-07
3.89524e-07
3.89607e-07
5.30702e-07
5.29566e-07
3.89532e-07
3.89533e-07
3.89531e-07
5.29568e-07
5.30669e-07
5.29531e-07
3.89616e-07
3.89632e-07
3.89615e-07
3.89632e-07
5.30696e-07
5.29548e-07
3.89524e-07
3.89643e-07
3.89524e-07
3.89643e-07
3.89608e-07
3.89523e-07
3.89607e-07
5.30703e-07
5.29561e-07
3.89532e-07
3.89533e-07
3.89532e-07
5.29571e-07
5.30667e-07
5.29531e-07
3.89616e-07
3.89632e-07
3.89616e-07
3.89632e-07
5.30693e-07
5.29552e-07
3.89525e-07
3.89643e-07
3.89524e-07
3.89643e-07
3.89608e-07
3.89524e-07
3.89608e-07
5.30699e-07
5.29564e-07
3.89532e-07
3.89533e-07
3.89532e-07
5.29576e-07
5.30661e-07
5.29546e-07
3.89616e-07
3.89632e-07
3.89616e-07
3.89633e-07
5.3069e-07
5.29565e-07
3.89525e-07
3.89643e-07
3.89525e-07
3.89643e-07
3.89608e-07
3.89524e-07
3.89607e-07
5.30696e-07
5.29577e-07
3.89532e-07
3.89533e-07
3.89532e-07
5.29573e-07
5.30675e-07
5.29549e-07
3.89616e-07
3.89633e-07
3.89615e-07
3.89633e-07
5.30704e-07
5.29564e-07
3.89525e-07
3.89643e-07
3.89524e-07
3.89643e-07
3.89608e-07
3.89524e-07
3.89607e-07
5.3071e-07
5.29574e-07
3.89533e-07
3.89532e-07
3.89532e-07
5.29581e-07
5.30686e-07
5.29536e-07
3.89616e-07
3.89634e-07
3.89616e-07
3.89633e-07
5.30712e-07
5.29551e-07
3.89525e-07
3.89644e-07
3.89524e-07
3.89643e-07
3.89607e-07
3.89524e-07
3.89607e-07
5.30716e-07
5.2956e-07
3.89532e-07
3.89533e-07
3.89532e-07
5.29599e-07
5.30681e-07
5.29527e-07
3.89616e-07
3.89634e-07
3.89616e-07
3.89633e-07
5.30705e-07
5.29546e-07
3.89525e-07
3.89643e-07
3.89524e-07
3.89643e-07
3.89607e-07
3.89524e-07
3.89607e-07
5.30706e-07
5.29555e-07
3.89532e-07
3.89532e-07
3.89532e-07
5.2961e-07
5.3067e-07
5.29528e-07
3.89616e-07
3.89633e-07
3.89615e-07
3.89633e-07
5.30697e-07
5.29546e-07
3.89524e-07
3.89643e-07
3.89524e-07
3.89643e-07
3.89607e-07
3.89524e-07
3.89607e-07
5.30698e-07
5.29557e-07
3.89532e-07
3.89532e-07
3.89532e-07
5.29616e-07
5.30666e-07
5.29533e-07
3.89616e-07
3.89633e-07
3.89615e-07
3.89633e-07
5.30694e-07
5.29549e-07
3.89524e-07
3.89643e-07
3.89523e-07
3.89642e-07
3.89607e-07
3.89524e-07
3.89607e-07
5.30698e-07
5.29558e-07
3.89532e-07
3.89532e-07
3.89531e-07
5.2962e-07
5.3067e-07
5.2953e-07
3.89616e-07
3.89634e-07
3.89615e-07
3.89635e-07
5.30695e-07
5.29553e-07
3.89523e-07
3.89643e-07
3.89523e-07
3.89642e-07
3.89608e-07
3.89524e-07
3.89607e-07
5.30699e-07
5.29558e-07
3.89532e-07
3.89532e-07
3.89532e-07
5.29628e-07
5.30676e-07
5.29532e-07
3.89616e-07
3.89634e-07
3.89612e-07
3.89634e-07
5.30696e-07
5.2955e-07
3.89523e-07
3.89643e-07
3.89523e-07
3.89642e-07
3.89607e-07
3.89524e-07
3.89607e-07
5.30698e-07
5.29559e-07
3.89533e-07
3.89531e-07
3.89533e-07
5.29637e-07
5.30677e-07
5.29533e-07
3.89612e-07
3.89635e-07
3.89609e-07
3.89634e-07
5.30694e-07
5.29548e-07
3.89525e-07
3.89643e-07
3.89526e-07
3.89642e-07
3.89608e-07
3.89523e-07
3.89607e-07
5.30699e-07
5.29558e-07
3.89533e-07
3.89532e-07
3.89533e-07
5.29636e-07
5.30678e-07
5.29531e-07
3.89608e-07
3.89635e-07
3.89607e-07
3.89633e-07
5.30692e-07
5.29548e-07
3.89527e-07
3.89643e-07
3.89527e-07
3.89642e-07
3.89608e-07
3.89523e-07
3.89607e-07
5.307e-07
5.29557e-07
3.89533e-07
3.89531e-07
3.89533e-07
5.29633e-07
5.30676e-07
5.29532e-07
3.89607e-07
3.89634e-07
3.89606e-07
3.89633e-07
5.30693e-07
5.29545e-07
3.89528e-07
3.89643e-07
3.89528e-07
3.89642e-07
3.89608e-07
3.89523e-07
3.89607e-07
5.30698e-07
5.29558e-07
3.89533e-07
3.89531e-07
3.89533e-07
5.29632e-07
5.30678e-07
5.29531e-07
3.89606e-07
3.89633e-07
3.89605e-07
3.89632e-07
5.3069e-07
5.29544e-07
3.89529e-07
3.89643e-07
3.89529e-07
3.89642e-07
3.89607e-07
3.89523e-07
3.89607e-07
5.30698e-07
5.29559e-07
3.89533e-07
3.89532e-07
3.89532e-07
5.29635e-07
5.30678e-07
5.29528e-07
3.89606e-07
3.89632e-07
3.89604e-07
3.89631e-07
5.30689e-07
5.29544e-07
3.89529e-07
3.89643e-07
3.89528e-07
3.89642e-07
3.89607e-07
3.89522e-07
3.89607e-07
5.307e-07
5.29558e-07
3.89533e-07
3.89531e-07
3.89532e-07
5.29639e-07
5.30676e-07
5.29526e-07
3.89605e-07
3.8963e-07
3.89604e-07
3.89629e-07
5.30689e-07
5.29541e-07
3.89528e-07
3.89643e-07
3.89527e-07
3.89643e-07
3.89607e-07
3.89522e-07
3.89607e-07
5.30701e-07
5.29557e-07
3.89533e-07
3.89531e-07
3.89532e-07
5.29639e-07
5.30674e-07
5.29526e-07
3.89604e-07
3.89629e-07
3.89603e-07
3.89628e-07
5.30688e-07
5.29537e-07
3.89528e-07
3.89643e-07
3.89527e-07
3.89643e-07
3.89607e-07
3.89522e-07
3.89607e-07
5.307e-07
5.29558e-07
3.89532e-07
3.89531e-07
3.89532e-07
5.29637e-07
5.30673e-07
5.29525e-07
3.89604e-07
3.89627e-07
3.89603e-07
3.89626e-07
5.30684e-07
5.29536e-07
3.89528e-07
3.89644e-07
3.89527e-07
3.89643e-07
3.89607e-07
3.89522e-07
3.89607e-07
5.30699e-07
5.29558e-07
3.89532e-07
3.89531e-07
3.89532e-07
5.29637e-07
5.30672e-07
5.29525e-07
3.89604e-07
3.89626e-07
3.89603e-07
3.89624e-07
5.30681e-07
5.29535e-07
3.89528e-07
3.89644e-07
3.89527e-07
3.89643e-07
3.89607e-07
3.89522e-07
3.89607e-07
5.307e-07
5.29557e-07
3.89532e-07
3.8953e-07
3.89532e-07
5.29639e-07
5.30672e-07
5.29525e-07
3.89604e-07
3.89624e-07
3.89604e-07
3.89623e-07
5.30681e-07
5.29533e-07
3.89528e-07
3.89644e-07
3.89527e-07
3.89643e-07
3.89607e-07
3.89522e-07
3.89607e-07
5.30699e-07
5.29558e-07
3.89532e-07
3.8953e-07
3.89532e-07
5.29638e-07
5.30672e-07
5.29525e-07
3.89604e-07
3.89623e-07
3.89604e-07
3.89622e-07
5.30679e-07
5.29531e-07
3.89528e-07
3.89644e-07
3.89527e-07
3.89643e-07
3.89608e-07
3.89521e-07
3.89607e-07
5.30699e-07
5.29559e-07
3.89532e-07
3.89531e-07
3.89532e-07
5.29636e-07
5.30672e-07
5.29524e-07
3.89604e-07
3.89622e-07
3.89603e-07
3.89621e-07
5.30677e-07
5.2953e-07
3.89528e-07
3.89644e-07
3.89527e-07
3.89643e-07
3.89608e-07
3.89521e-07
3.89607e-07
5.307e-07
5.29559e-07
3.89532e-07
3.89531e-07
3.89532e-07
5.29636e-07
5.30671e-07
5.29522e-07
3.89604e-07
3.89621e-07
3.89603e-07
3.8962e-07
5.30675e-07
5.29531e-07
3.89527e-07
3.89644e-07
3.89526e-07
3.89643e-07
3.89608e-07
3.89522e-07
3.89607e-07
5.30701e-07
5.29558e-07
3.89532e-07
3.89531e-07
3.89532e-07
5.29637e-07
5.30669e-07
5.29523e-07
3.89604e-07
3.8962e-07
3.89603e-07
3.89619e-07
5.30675e-07
5.2953e-07
3.89527e-07
3.89644e-07
3.89526e-07
3.89643e-07
3.89608e-07
3.89522e-07
3.89607e-07
5.307e-07
5.29558e-07
3.89532e-07
3.8953e-07
3.89532e-07
5.29639e-07
5.3067e-07
5.29522e-07
3.89604e-07
3.8962e-07
3.89603e-07
3.89619e-07
5.30676e-07
5.29528e-07
3.89527e-07
3.89643e-07
3.89526e-07
3.89643e-07
3.89608e-07
3.89524e-07
3.89607e-07
5.307e-07
5.29558e-07
3.89532e-07
3.8953e-07
3.89532e-07
5.29639e-07
5.30669e-07
5.29521e-07
3.89603e-07
3.89619e-07
3.89603e-07
3.89618e-07
5.30674e-07
5.29527e-07
3.89527e-07
3.89644e-07
3.89526e-07
3.89643e-07
3.89608e-07
3.89524e-07
3.89607e-07
5.30699e-07
5.29558e-07
3.89533e-07
3.8953e-07
3.89532e-07
5.29638e-07
5.30668e-07
5.29523e-07
3.89604e-07
3.89618e-07
3.89603e-07
3.89617e-07
5.30673e-07
5.29527e-07
3.89527e-07
3.89644e-07
3.89526e-07
3.89643e-07
3.89607e-07
3.89524e-07
3.89607e-07
5.307e-07
5.29557e-07
3.89532e-07
3.8953e-07
3.89532e-07
5.29637e-07
5.30669e-07
5.29523e-07
3.89604e-07
3.89618e-07
3.89603e-07
3.89617e-07
5.30672e-07
5.29527e-07
3.89527e-07
3.89644e-07
3.89526e-07
3.89643e-07
3.89607e-07
3.89524e-07
3.89607e-07
5.30699e-07
5.29557e-07
3.89533e-07
3.8953e-07
3.89532e-07
5.29639e-07
5.3067e-07
5.29522e-07
3.89604e-07
3.89618e-07
3.89603e-07
3.89617e-07
5.30672e-07
5.29526e-07
3.89527e-07
3.89644e-07
3.89526e-07
3.89643e-07
3.89607e-07
3.89524e-07
3.89607e-07
5.30699e-07
5.29558e-07
3.89532e-07
3.89529e-07
3.89532e-07
5.2964e-07
5.30669e-07
5.29523e-07
3.89604e-07
3.89618e-07
3.89603e-07
3.89617e-07
5.30673e-07
5.29524e-07
3.89527e-07
3.89643e-07
3.89526e-07
3.89643e-07
3.89607e-07
3.89524e-07
3.89607e-07
5.30699e-07
5.29558e-07
3.89532e-07
3.89529e-07
3.89532e-07
5.29635e-07
5.3067e-07
5.29523e-07
3.89604e-07
3.89618e-07
3.89603e-07
3.89617e-07
5.30671e-07
5.29524e-07
3.89527e-07
3.89643e-07
3.89526e-07
3.89643e-07
3.89607e-07
3.89523e-07
3.89607e-07
5.307e-07
5.29558e-07
3.89532e-07
3.8953e-07
3.89532e-07
5.29635e-07
5.30671e-07
5.29521e-07
3.89604e-07
3.89618e-07
3.89603e-07
3.89617e-07
5.3067e-07
5.29526e-07
3.89526e-07
3.89643e-07
3.89526e-07
3.89643e-07
3.89607e-07
3.89523e-07
3.89607e-07
5.307e-07
5.29557e-07
3.89532e-07
3.8953e-07
3.89532e-07
5.29634e-07
5.30669e-07
5.2952e-07
3.89604e-07
3.89617e-07
3.89603e-07
3.89617e-07
5.30671e-07
5.29525e-07
3.89526e-07
3.89644e-07
3.89526e-07
3.89643e-07
3.89607e-07
3.89523e-07
3.89607e-07
5.307e-07
5.29557e-07
3.89532e-07
3.8953e-07
3.89532e-07
5.29634e-07
5.30667e-07
5.29522e-07
3.89604e-07
3.89617e-07
3.89603e-07
3.89616e-07
5.3067e-07
5.29525e-07
3.89527e-07
3.89643e-07
3.89526e-07
3.89643e-07
3.89607e-07
3.89524e-07
3.89607e-07
5.30699e-07
5.29557e-07
3.89533e-07
3.8953e-07
3.89532e-07
5.29636e-07
5.30668e-07
5.29523e-07
3.89604e-07
3.89617e-07
3.89603e-07
3.89616e-07
5.30671e-07
5.29525e-07
3.89527e-07
3.89644e-07
3.89526e-07
3.89643e-07
3.89607e-07
3.89524e-07
3.89607e-07
5.30699e-07
5.29558e-07
3.89533e-07
3.8953e-07
3.89532e-07
5.2964e-07
5.3067e-07
5.29522e-07
3.89604e-07
3.89617e-07
3.89603e-07
3.89616e-07
5.30671e-07
5.29525e-07
3.89527e-07
3.89644e-07
3.89526e-07
3.89643e-07
3.89607e-07
3.89523e-07
3.89607e-07
5.30699e-07
5.29558e-07
3.89533e-07
3.8953e-07
3.89532e-07
5.29641e-07
5.30669e-07
5.29522e-07
3.89604e-07
3.89617e-07
3.89603e-07
3.89616e-07
5.30671e-07
5.29524e-07
3.89527e-07
3.89644e-07
3.89526e-07
3.89643e-07
3.89607e-07
3.89523e-07
3.89607e-07
5.307e-07
5.29558e-07
3.89533e-07
3.8953e-07
3.89532e-07
5.2964e-07
5.30669e-07
5.29523e-07
3.89603e-07
3.89617e-07
3.89603e-07
3.89616e-07
5.3067e-07
5.29524e-07
3.89526e-07
3.89644e-07
3.89526e-07
3.89643e-07
3.89608e-07
3.89523e-07
3.89607e-07
5.30699e-07
5.29558e-07
3.89532e-07
3.8953e-07
3.89532e-07
5.29637e-07
5.30669e-07
5.29522e-07
3.89603e-07
3.89617e-07
3.89602e-07
3.89616e-07
5.3067e-07
5.29525e-07
3.89526e-07
3.89643e-07
3.89526e-07
3.89642e-07
3.89607e-07
3.89523e-07
3.89607e-07
5.30699e-07
5.29558e-07
3.89532e-07
3.8953e-07
3.89532e-07
5.29638e-07
5.30669e-07
5.29521e-07
3.89603e-07
3.89617e-07
3.89602e-07
3.89616e-07
5.30671e-07
5.29525e-07
3.89526e-07
3.89643e-07
3.89525e-07
3.89642e-07
3.89607e-07
3.89524e-07
3.89607e-07
5.30699e-07
5.29558e-07
3.89532e-07
3.8953e-07
3.89532e-07
5.29638e-07
5.30667e-07
5.29521e-07
3.89603e-07
3.89617e-07
3.89602e-07
3.89617e-07
5.30671e-07
5.29525e-07
3.89526e-07
3.89643e-07
3.89525e-07
3.89642e-07
3.89607e-07
3.89523e-07
3.89606e-07
5.307e-07
5.29558e-07
3.89532e-07
3.89531e-07
3.89532e-07
5.29637e-07
5.30667e-07
5.29524e-07
3.89603e-07
3.89617e-07
3.89602e-07
3.89617e-07
5.30671e-07
5.29524e-07
3.89526e-07
3.89643e-07
3.89525e-07
3.89642e-07
3.89607e-07
3.89524e-07
3.89607e-07
5.307e-07
5.29557e-07
3.89532e-07
3.89531e-07
3.89531e-07
5.29638e-07
5.30669e-07
5.29523e-07
3.89603e-07
3.89618e-07
3.89602e-07
3.89616e-07
5.3067e-07
5.29524e-07
3.89526e-07
3.89643e-07
3.89525e-07
3.89642e-07
3.89607e-07
3.89524e-07
3.89606e-07
5.30699e-07
5.29557e-07
3.89532e-07
3.89532e-07
3.89531e-07
5.29635e-07
5.3067e-07
5.29522e-07
3.89604e-07
3.89618e-07
3.89602e-07
3.89616e-07
5.3067e-07
5.29526e-07
3.89527e-07
3.89644e-07
3.89525e-07
3.89642e-07
3.89608e-07
3.89524e-07
3.89606e-07
5.30699e-07
5.29558e-07
3.89532e-07
3.89532e-07
3.89531e-07
5.29633e-07
5.3067e-07
5.29521e-07
3.89604e-07
3.89618e-07
3.89602e-07
3.89616e-07
5.30671e-07
5.29526e-07
3.89527e-07
3.89644e-07
3.89525e-07
3.89642e-07
3.89608e-07
3.89525e-07
3.89606e-07
5.307e-07
5.29558e-07
3.89532e-07
3.89532e-07
3.89531e-07
5.29635e-07
5.30669e-07
5.29522e-07
3.89604e-07
3.89618e-07
3.89602e-07
3.89616e-07
5.30672e-07
5.29525e-07
3.89527e-07
3.89644e-07
3.89524e-07
3.89642e-07
3.89608e-07
3.89525e-07
3.89606e-07
5.307e-07
5.29557e-07
3.89533e-07
3.89533e-07
3.89531e-07
5.29637e-07
5.3067e-07
5.29519e-07
3.89604e-07
3.89618e-07
3.89601e-07
3.89616e-07
5.30671e-07
5.29525e-07
3.89527e-07
3.89644e-07
3.89524e-07
3.89642e-07
3.89608e-07
3.89525e-07
3.89606e-07
5.30699e-07
5.29558e-07
3.89533e-07
3.89533e-07
3.89531e-07
5.29639e-07
5.30667e-07
5.2952e-07
3.89604e-07
3.89618e-07
3.89601e-07
3.89615e-07
5.30671e-07
5.29525e-07
3.89527e-07
3.89644e-07
3.89524e-07
3.89641e-07
3.89608e-07
3.89525e-07
3.89606e-07
5.30699e-07
5.29558e-07
3.89533e-07
3.89533e-07
3.89531e-07
5.29639e-07
5.30666e-07
5.29522e-07
3.89604e-07
3.89618e-07
3.89601e-07
3.89615e-07
5.30672e-07
5.29524e-07
3.89527e-07
3.89644e-07
3.89525e-07
3.89641e-07
3.89609e-07
3.89524e-07
3.89606e-07
5.307e-07
5.29559e-07
3.89534e-07
3.89532e-07
3.89532e-07
5.29639e-07
5.30668e-07
5.29522e-07
3.89604e-07
3.89618e-07
3.89602e-07
3.89616e-07
5.30671e-07
5.29523e-07
3.89527e-07
3.89644e-07
3.89525e-07
3.89642e-07
3.89609e-07
3.89524e-07
3.89606e-07
5.307e-07
5.29558e-07
3.89534e-07
3.89533e-07
3.89532e-07
5.29638e-07
5.30669e-07
5.29522e-07
3.89605e-07
3.89619e-07
3.89603e-07
3.89616e-07
5.30669e-07
5.29524e-07
3.89529e-07
3.89645e-07
3.89526e-07
3.89643e-07
3.89609e-07
3.89524e-07
3.89607e-07
5.307e-07
5.29558e-07
3.89535e-07
3.89533e-07
3.89533e-07
5.29636e-07
5.30668e-07
5.29524e-07
3.89607e-07
3.89621e-07
3.89604e-07
3.89617e-07
5.30669e-07
5.29525e-07
3.89531e-07
3.89647e-07
3.89527e-07
3.89643e-07
3.89611e-07
3.89525e-07
3.89608e-07
5.307e-07
5.29559e-07
3.89537e-07
3.89533e-07
3.89534e-07
5.2964e-07
5.3067e-07
5.29525e-07
3.89609e-07
3.89622e-07
3.89604e-07
3.89617e-07
5.30671e-07
5.29525e-07
3.89532e-07
3.89648e-07
3.89527e-07
3.89643e-07
3.89613e-07
3.89525e-07
3.89608e-07
5.30701e-07
5.29559e-07
3.89539e-07
3.89533e-07
3.89535e-07
5.29634e-07
5.30672e-07
5.29523e-07
3.8961e-07
3.89624e-07
3.89604e-07
3.89617e-07
5.30672e-07
5.29525e-07
3.89533e-07
3.8965e-07
3.89527e-07
3.89643e-07
3.89615e-07
3.89524e-07
3.89608e-07
5.30701e-07
5.29559e-07
3.89541e-07
3.89532e-07
3.89535e-07
5.29631e-07
5.30671e-07
5.29523e-07
3.89612e-07
3.89625e-07
3.89602e-07
3.89616e-07
5.30671e-07
5.29524e-07
3.89535e-07
3.89651e-07
3.89525e-07
3.89642e-07
3.89616e-07
3.89522e-07
3.89607e-07
5.30701e-07
5.29559e-07
3.89543e-07
3.89531e-07
3.89534e-07
5.29638e-07
5.30671e-07
5.29521e-07
3.89613e-07
3.89626e-07
3.896e-07
3.89613e-07
5.3067e-07
5.29523e-07
3.89536e-07
3.89652e-07
3.89523e-07
3.89639e-07
3.89618e-07
3.8952e-07
3.89605e-07
5.30701e-07
5.29557e-07
3.89544e-07
3.89528e-07
3.89532e-07
5.29636e-07
5.3067e-07
5.29517e-07
3.89614e-07
3.89627e-07
3.89596e-07
3.89609e-07
5.30669e-07
5.29522e-07
3.89536e-07
3.89652e-07
3.89519e-07
3.89635e-07
3.89618e-07
3.89515e-07
3.89601e-07
5.307e-07
5.29555e-07
3.89545e-07
3.89524e-07
3.89527e-07
5.29629e-07
5.30665e-07
5.29517e-07
3.89613e-07
3.89626e-07
3.89588e-07
3.89601e-07
5.30668e-07
5.29521e-07
3.89536e-07
3.89652e-07
3.89511e-07
3.89627e-07
3.89618e-07
3.89508e-07
3.89594e-07
5.30698e-07
5.29552e-07
3.89544e-07
3.89516e-07
3.8952e-07
5.29626e-07
5.30662e-07
5.29514e-07
3.8961e-07
3.89623e-07
3.89576e-07
3.89589e-07
5.30666e-07
5.29515e-07
3.89533e-07
3.89649e-07
3.89499e-07
3.89615e-07
3.89615e-07
3.89496e-07
3.89581e-07
5.30693e-07
5.29547e-07
3.89542e-07
3.89504e-07
3.89508e-07
5.29627e-07
5.30658e-07
5.29506e-07
3.89604e-07
3.89617e-07
3.89556e-07
3.89569e-07
5.30659e-07
5.29508e-07
3.89527e-07
3.89643e-07
3.89479e-07
3.89595e-07
3.89609e-07
3.89476e-07
3.89561e-07
5.30686e-07
5.29542e-07
3.89535e-07
3.89484e-07
3.89487e-07
5.29624e-07
5.30645e-07
5.29496e-07
3.89592e-07
3.89605e-07
3.89519e-07
3.89532e-07
5.30646e-07
5.295e-07
3.89515e-07
3.89631e-07
3.89441e-07
3.89557e-07
3.89596e-07
3.8944e-07
3.89522e-07
5.30675e-07
5.29533e-07
3.89523e-07
3.89449e-07
3.8945e-07
5.29608e-07
5.30619e-07
5.29388e-07
3.8956e-07
3.89572e-07
3.89299e-07
3.8931e-07
5.30622e-07
5.29387e-07
3.89485e-07
3.89598e-07
3.89223e-07
3.89334e-07
3.89562e-07
3.89219e-07
3.89296e-07
5.30652e-07
5.29423e-07
3.89489e-07
3.89227e-07
3.89226e-07
5.29497e-07
5.30445e-07
5.19386e-07
3.89505e-07
3.89518e-07
3.80473e-07
3.8047e-07
5.30449e-07
5.19386e-07
3.89427e-07
3.89538e-07
3.80421e-07
3.80476e-07
3.89504e-07
3.80417e-07
3.80444e-07
5.30481e-07
5.19402e-07
3.89435e-07
3.80414e-07
3.804e-07
5.19395e-07
5.07356e-07
3.71891e-07
3.71886e-07
5.07354e-07
3.71853e-07
3.71892e-07
2.46256e-07
2.46255e-07
2.46247e-07
3.71858e-07
5.07367e-07
3.71829e-07
1.91624e-07
4.95526e-08
1.43127e-07
1.43103e-07
9.9414e-10
1.10815e-08
1.52088e-08
9.45251e-08
9.26375e-10
1.45406e-08
9.53699e-08
3.43264e-08
8.22146e-09
1.31786e-08
1.55866e-08
5.88174e-09
1.73691e-07
4.63103e-09
2.61768e-07
1.69462e-06
3.27406e-06
6.06472e-09
1.74059e-07
4.46092e-09
2.64553e-07
9.22501e-08
9.29291e-08
9.24025e-08
9.34478e-08
9.28494e-08
9.34248e-08
9.29718e-08
1.10015e-09
1.23575e-07
4.65611e-08
1.95691e-08
1.08586e-09
1.04602e-07
4.62334e-08
1.72809e-06
3.2972e-06
9.3824e-10
4.71943e-08
1.11182e-07
2.10029e-08
9.37781e-10
4.71345e-08
9.06653e-08
2.24368e-07
2.16878e-07
7.76462e-09
1.92928e-07
1.90949e-07
1.53499e-08
5.03621e-07
9.74165e-09
6.74688e-07
7.34843e-06
1.03408e-05
1.59589e-08
4.89555e-07
9.71171e-09
6.91087e-07
9.37111e-08
9.4246e-08