/*--------------------------------*- C++ -*----------------------------------*\
| =========                 |                                                 |
| \\      /  F ield         | OpenFOAM: The Open Source CFD Toolbox           |
|  \\    /   O peration     | Version:  v2012                                 |
|   \\  /    A nd           | Website:  www.openfoam.com                      |
|    \\/     M anipulation  |                                                 |
\*---------------------------------------------------------------------------*/
FoamFile
{
    version     2.0;
    format      ascii;
    class       volScalarField;
    location    "87.5";
    object      k;
}
// * * * * * * * * * * * * * * * * * * * * * * * * * * * * * * * * * * * * * //

dimensions      [0 2 -2 0 0 0 0];


internalField   nonuniform List<scalar> 
171728
(
7.39868e-06
1.30615e-06
1.27671e-06
4.65354e-07
7.52648e-06
1.36714e-06
1.40717e-06
4.70063e-07
7.80497e-06
1.4139e-06
1.58704e-06
4.84684e-07
8.07298e-06
1.46809e-06
1.78658e-06
5.11203e-07
8.33353e-06
1.61227e-06
2.00365e-06
5.42374e-07
8.59379e-06
1.81711e-06
2.24782e-06
5.88581e-07
8.85101e-06
2.08729e-06
2.41907e-06
6.70722e-07
9.10976e-06
2.4117e-06
2.58181e-06
8.23896e-07
9.36875e-06
2.81467e-06
2.91181e-06
1.09886e-06
9.64945e-06
3.32995e-06
3.41331e-06
1.47493e-06
9.92939e-06
3.92451e-06
3.99649e-06
1.91578e-06
1.02074e-05
4.57314e-06
4.62151e-06
2.42645e-06
1.05416e-05
5.36236e-06
5.42185e-06
3.10925e-06
1.09102e-05
6.23373e-06
6.24661e-06
3.98704e-06
1.13991e-05
7.26579e-06
7.29158e-06
5.17776e-06
1.19925e-05
8.46156e-06
8.48046e-06
6.74322e-06
1.27123e-05
9.97397e-06
9.98655e-06
8.87172e-06
1.36178e-05
1.19892e-05
1.19912e-05
1.18164e-05
1.48125e-05
1.46394e-05
1.46384e-05
1.57229e-05
1.59899e-05
1.73519e-05
1.73516e-05
1.95071e-05
1.71678e-05
1.98656e-05
1.98658e-05
2.25278e-05
1.80063e-05
2.13603e-05
2.13608e-05
2.41178e-05
1.83506e-05
2.18557e-05
2.18561e-05
2.45473e-05
1.84388e-05
2.19606e-05
2.1961e-05
2.46254e-05
1.84554e-05
2.19787e-05
2.19791e-05
2.46414e-05
1.84582e-05
2.19815e-05
2.19819e-05
2.46425e-05
1.84587e-05
2.19819e-05
2.19823e-05
2.46422e-05
1.8459e-05
2.19821e-05
2.19825e-05
2.46428e-05
1.84593e-05
2.19824e-05
2.19828e-05
2.46428e-05
1.84595e-05
2.19826e-05
2.1983e-05
2.46431e-05
1.84597e-05
2.19829e-05
2.19833e-05
2.46433e-05
1.84599e-05
2.1983e-05
2.19835e-05
2.4643e-05
1.846e-05
2.1983e-05
2.19835e-05
2.4643e-05
1.84602e-05
2.1983e-05
2.19835e-05
2.46432e-05
1.84603e-05
2.1983e-05
2.19835e-05
2.4643e-05
1.84603e-05
2.1983e-05
2.19835e-05
2.4643e-05
1.84604e-05
2.1983e-05
2.19835e-05
2.46435e-05
1.84603e-05
2.1983e-05
2.19834e-05
2.4644e-05
1.84603e-05
2.1983e-05
2.19834e-05
2.46443e-05
1.84602e-05
2.19831e-05
2.19834e-05
2.46445e-05
1.84602e-05
2.19831e-05
2.19834e-05
2.46448e-05
1.84602e-05
2.1983e-05
2.19834e-05
2.46452e-05
1.84602e-05
2.1983e-05
2.19834e-05
2.46453e-05
1.84603e-05
2.1983e-05
2.19834e-05
2.46453e-05
1.84603e-05
2.1983e-05
2.19834e-05
2.46452e-05
1.84603e-05
2.19831e-05
2.19834e-05
2.46452e-05
1.84602e-05
2.1983e-05
2.19834e-05
2.46453e-05
1.84603e-05
2.1983e-05
2.19834e-05
2.46454e-05
1.84603e-05
2.1983e-05
2.19834e-05
2.46453e-05
1.84603e-05
2.1983e-05
2.19834e-05
2.46453e-05
1.84603e-05
2.1983e-05
2.19834e-05
2.46453e-05
1.84603e-05
2.1983e-05
2.19833e-05
2.46453e-05
1.84603e-05
2.1983e-05
2.19834e-05
2.46453e-05
1.84603e-05
2.1983e-05
2.19834e-05
2.46452e-05
1.84603e-05
2.1983e-05
2.19834e-05
2.46453e-05
1.84603e-05
2.1983e-05
2.19834e-05
2.46453e-05
1.84603e-05
2.1983e-05
2.19833e-05
2.46454e-05
1.84603e-05
2.1983e-05
2.19833e-05
2.46453e-05
1.84603e-05
2.1983e-05
2.19833e-05
2.46453e-05
1.84603e-05
2.1983e-05
2.19834e-05
2.46453e-05
1.84603e-05
2.19829e-05
2.19833e-05
2.46454e-05
1.84603e-05
2.19829e-05
2.19833e-05
2.46453e-05
1.84602e-05
2.19829e-05
2.19833e-05
2.46453e-05
1.84602e-05
2.19829e-05
2.19833e-05
2.46453e-05
1.84602e-05
2.19829e-05
2.19834e-05
2.46452e-05
1.84603e-05
2.19829e-05
2.19834e-05
2.46452e-05
1.84602e-05
2.19829e-05
2.19834e-05
2.46453e-05
1.84602e-05
2.19829e-05
2.19834e-05
2.46454e-05
1.84602e-05
2.19829e-05
2.19833e-05
2.46454e-05
1.84602e-05
2.19829e-05
2.19834e-05
2.46453e-05
1.84602e-05
2.19829e-05
2.19834e-05
2.46453e-05
1.84601e-05
2.1983e-05
2.19834e-05
2.46453e-05
1.84602e-05
2.19829e-05
2.19834e-05
2.46453e-05
1.84602e-05
2.19829e-05
2.19834e-05
2.46454e-05
1.84602e-05
2.1983e-05
2.19834e-05
2.46453e-05
1.84602e-05
2.1983e-05
2.19835e-05
2.46452e-05
1.84602e-05
2.1983e-05
2.19835e-05
2.46452e-05
1.84602e-05
2.19831e-05
2.19835e-05
2.46453e-05
1.84603e-05
2.19831e-05
2.19835e-05
2.46453e-05
1.84603e-05
2.19831e-05
2.19835e-05
2.46454e-05
1.84603e-05
2.19831e-05
2.19836e-05
2.46454e-05
1.84604e-05
2.19831e-05
2.19836e-05
2.46454e-05
1.84604e-05
2.19831e-05
2.19837e-05
2.46453e-05
1.84604e-05
2.19832e-05
2.19837e-05
2.46455e-05
1.84605e-05
2.19832e-05
2.19838e-05
2.46455e-05
1.84605e-05
2.19833e-05
2.19838e-05
2.46453e-05
1.84606e-05
2.19833e-05
2.19839e-05
2.46455e-05
1.84606e-05
2.19834e-05
2.1984e-05
2.46456e-05
1.84607e-05
2.19835e-05
2.19841e-05
2.46455e-05
1.84608e-05
2.19837e-05
2.19843e-05
2.46454e-05
1.84609e-05
2.1984e-05
2.19845e-05
2.46456e-05
1.8461e-05
2.19844e-05
2.1985e-05
2.46459e-05
1.8461e-05
2.1985e-05
2.19856e-05
2.4646e-05
1.84584e-05
2.19827e-05
2.19833e-05
2.46428e-05
1.8359e-05
2.15502e-05
2.15504e-05
2.42093e-05
4.37711e-07
7.5535e-07
7.88231e-07
4.49001e-07
7.35931e-07
8.51425e-07
7.50736e-06
7.48957e-06
7.52094e-06
7.48935e-06
8.0736e-07
7.60629e-07
4.92626e-07
8.73333e-07
8.00498e-07
4.65974e-07
4.32144e-07
4.21917e-07
1.02866e-06
1.07059e-06
1.10013e-06
1.14785e-06
4.46961e-07
4.58958e-07
1.02194e-06
1.17109e-06
1.08947e-06
1.23029e-06
1.03308e-06
1.35317e-06
1.09443e-06
4.91598e-07
5.0546e-07
1.16278e-06
1.36575e-06
1.20877e-06
4.7255e-07
4.18223e-07
4.34408e-07
1.13704e-06
1.18423e-06
1.25524e-06
1.30768e-06
4.56373e-07
4.77455e-07
1.1254e-06
1.26124e-06
1.24377e-06
1.35943e-06
1.12816e-06
1.40692e-06
1.24231e-06
5.02509e-07
5.27582e-07
1.22759e-06
1.5412e-06
1.31285e-06
4.86966e-07
4.32174e-07
4.74272e-07
1.2963e-06
1.35208e-06
1.43209e-06
1.49766e-06
4.74623e-07
5.11947e-07
1.2858e-06
1.39559e-06
1.43076e-06
1.51206e-06
1.28216e-06
1.44938e-06
1.41783e-06
5.24496e-07
5.58563e-07
1.34689e-06
1.73453e-06
1.46615e-06
5.1421e-07
4.722e-07
5.25901e-07
1.47822e-06
1.54796e-06
1.62924e-06
1.70931e-06
5.10139e-07
5.67983e-07
1.47819e-06
1.54753e-06
1.63085e-06
1.6653e-06
1.4648e-06
1.57279e-06
1.61269e-06
5.55012e-07
5.96831e-07
1.50902e-06
1.95118e-06
1.65209e-06
5.45671e-07
5.23729e-07
5.94426e-07
1.68378e-06
1.76218e-06
1.85539e-06
1.93534e-06
5.6643e-07
6.44137e-07
1.68613e-06
1.70954e-06
1.86618e-06
1.87021e-06
1.66665e-06
1.76033e-06
1.84412e-06
5.93442e-07
6.61121e-07
1.70142e-06
2.18884e-06
1.84415e-06
5.91423e-07
5.92983e-07
6.9779e-07
1.91526e-06
1.99785e-06
2.11694e-06
2.19231e-06
6.43336e-07
7.43953e-07
1.93017e-06
1.93083e-06
2.13429e-06
2.12975e-06
1.90679e-06
2.01163e-06
2.11785e-06
6.58561e-07
7.39754e-07
1.89212e-06
2.38428e-06
2.0474e-06
6.71378e-07
6.97787e-07
8.45066e-07
2.19439e-06
2.26277e-06
2.44768e-06
2.47583e-06
7.43669e-07
8.8668e-07
2.21308e-06
2.19801e-06
2.46773e-06
2.428e-06
2.19818e-06
2.32488e-06
2.45768e-06
7.37414e-07
8.55601e-07
2.10956e-06
2.525e-06
2.32129e-06
8.17606e-07
8.49242e-07
1.09217e-06
2.54493e-06
2.55589e-06
2.85692e-06
2.8212e-06
8.91274e-07
1.11387e-06
2.56193e-06
2.52129e-06
2.86774e-06
2.79619e-06
2.55645e-06
2.70664e-06
2.87426e-06
8.58979e-07
1.08407e-06
2.40955e-06
2.81693e-06
2.7085e-06
1.08437e-06
1.10595e-06
1.46309e-06
2.96986e-06
2.91996e-06
3.35483e-06
3.26665e-06
1.12506e-06
1.45647e-06
2.97907e-06
2.9037e-06
3.34927e-06
3.29564e-06
2.98836e-06
3.19284e-06
3.36532e-06
1.09764e-06
1.46568e-06
2.81736e-06
3.28127e-06
3.19371e-06
1.45405e-06
1.48325e-06
1.89329e-06
3.48777e-06
3.3942e-06
3.90829e-06
3.81258e-06
1.47692e-06
1.89739e-06
3.47811e-06
3.43239e-06
3.88169e-06
3.84172e-06
3.49505e-06
3.76693e-06
3.89855e-06
1.48707e-06
1.90489e-06
3.32997e-06
3.83683e-06
3.76505e-06
1.89214e-06
1.91586e-06
2.39474e-06
4.06375e-06
3.96752e-06
4.52499e-06
4.43328e-06
1.9212e-06
2.39623e-06
4.03116e-06
3.99226e-06
4.50318e-06
4.45057e-06
4.04728e-06
4.40357e-06
4.50645e-06
1.92803e-06
2.40645e-06
3.92369e-06
4.46525e-06
4.40017e-06
2.39488e-06
2.42672e-06
3.06829e-06
4.68823e-06
4.60027e-06
5.25202e-06
5.17526e-06
2.42715e-06
3.05592e-06
4.67223e-06
4.61522e-06
5.25233e-06
5.18773e-06
4.6716e-06
5.16262e-06
5.24214e-06
2.43792e-06
3.07942e-06
4.56826e-06
5.21853e-06
5.15601e-06
3.06044e-06
3.11754e-06
3.93405e-06
5.43783e-06
5.37278e-06
6.02662e-06
6.00461e-06
3.10473e-06
3.92148e-06
5.45005e-06
5.38364e-06
6.06097e-06
6.00738e-06
5.43273e-06
5.99613e-06
6.03032e-06
3.12953e-06
3.94158e-06
5.35664e-06
6.01788e-06
5.98393e-06
3.91853e-06
4.00302e-06
5.04392e-06
6.25909e-06
6.24256e-06
7.02338e-06
7.00581e-06
3.99032e-06
5.03407e-06
6.29049e-06
6.24608e-06
7.04461e-06
7.01447e-06
6.26222e-06
7.0021e-06
7.02613e-06
4.00951e-06
5.05203e-06
6.22199e-06
7.02455e-06
6.99326e-06
5.02734e-06
5.19296e-06
6.48563e-06
7.28596e-06
7.26916e-06
8.14766e-06
8.13417e-06
5.18418e-06
6.47883e-06
7.30829e-06
7.27701e-06
8.16792e-06
8.13555e-06
7.28979e-06
8.13261e-06
8.14752e-06
5.20343e-06
6.49149e-06
7.25964e-06
8.15389e-06
8.12951e-06
6.47416e-06
6.75522e-06
8.49653e-06
8.47907e-06
8.46397e-06
9.5881e-06
9.56784e-06
6.74869e-06
8.47226e-06
8.49514e-06
8.46465e-06
9.59429e-06
9.5689e-06
8.47546e-06
9.56643e-06
9.57628e-06
6.75936e-06
8.48059e-06
8.46083e-06
9.58097e-06
9.56789e-06
8.47479e-06
8.89485e-06
1.12748e-05
9.99473e-06
9.97675e-06
1.1419e-05
1.14155e-05
8.86724e-06
1.12623e-05
1.00001e-05
9.97677e-06
1.14243e-05
1.14095e-05
9.9825e-06
1.14121e-05
1.141e-05
8.87628e-06
1.12607e-05
9.97592e-06
1.14163e-05
1.14079e-05
1.12564e-05
1.18329e-05
1.50325e-05
1.19931e-05
1.19936e-05
1.39573e-05
1.39615e-05
1.18256e-05
1.50368e-05
1.19978e-05
1.19864e-05
1.39596e-05
1.39554e-05
1.19857e-05
1.3959e-05
1.39537e-05
1.18212e-05
1.50299e-05
1.19845e-05
1.39581e-05
1.39535e-05
1.50262e-05
1.57282e-05
1.88996e-05
1.46383e-05
1.46421e-05
1.66688e-05
1.66704e-05
1.57324e-05
1.89011e-05
1.46398e-05
1.46372e-05
1.66686e-05
1.66686e-05
1.46357e-05
1.66695e-05
1.6668e-05
1.57263e-05
1.88995e-05
1.46354e-05
1.66689e-05
1.66673e-05
1.88989e-05
1.95078e-05
2.20781e-05
1.73522e-05
1.73532e-05
1.93078e-05
1.93082e-05
1.95089e-05
2.20784e-05
1.73516e-05
1.73521e-05
1.93068e-05
1.93082e-05
1.73517e-05
1.93074e-05
1.93081e-05
1.95078e-05
2.20787e-05
1.73509e-05
1.93075e-05
1.93071e-05
2.20789e-05
2.25273e-05
2.39206e-05
1.98665e-05
1.98668e-05
2.11007e-05
2.11007e-05
2.25277e-05
2.39208e-05
1.98654e-05
1.9867e-05
2.10995e-05
2.11012e-05
1.98668e-05
2.10998e-05
2.1101e-05
2.2528e-05
2.39214e-05
1.98658e-05
2.11003e-05
2.10999e-05
2.39212e-05
2.41175e-05
2.44943e-05
2.13614e-05
2.13614e-05
2.17906e-05
2.17906e-05
2.41178e-05
2.44944e-05
2.13601e-05
2.13619e-05
2.17895e-05
2.17911e-05
2.13617e-05
2.17898e-05
2.17909e-05
2.41182e-05
2.44951e-05
2.13606e-05
2.17902e-05
2.17899e-05
2.4495e-05
2.45467e-05
2.45996e-05
2.18568e-05
2.18566e-05
2.19494e-05
2.19492e-05
2.4547e-05
2.45997e-05
2.18556e-05
2.18571e-05
2.19483e-05
2.19498e-05
2.1857e-05
2.19484e-05
2.19496e-05
2.45476e-05
2.46003e-05
2.1856e-05
2.19488e-05
2.19486e-05
2.46e-05
2.46252e-05
2.46203e-05
2.19617e-05
2.19615e-05
2.19778e-05
2.19776e-05
2.46254e-05
2.46204e-05
2.19606e-05
2.1962e-05
2.19767e-05
2.19781e-05
2.19618e-05
2.19767e-05
2.19777e-05
2.46258e-05
2.46209e-05
2.19608e-05
2.19771e-05
2.19768e-05
2.46205e-05
2.46412e-05
2.46233e-05
2.19799e-05
2.19797e-05
2.19824e-05
2.19822e-05
2.46415e-05
2.46233e-05
2.19788e-05
2.19802e-05
2.19813e-05
2.19827e-05
2.19798e-05
2.19812e-05
2.19821e-05
2.46419e-05
2.46239e-05
2.19788e-05
2.19817e-05
2.19812e-05
2.46232e-05
2.46428e-05
2.46226e-05
2.19827e-05
2.19824e-05
2.1983e-05
2.19827e-05
2.46429e-05
2.46227e-05
2.19815e-05
2.19829e-05
2.19818e-05
2.19832e-05
2.19823e-05
2.19818e-05
2.19825e-05
2.46434e-05
2.46232e-05
2.19814e-05
2.19822e-05
2.19816e-05
2.46223e-05
2.46425e-05
2.46233e-05
2.19831e-05
2.19828e-05
2.19833e-05
2.19831e-05
2.46427e-05
2.46234e-05
2.19819e-05
2.19833e-05
2.19822e-05
2.19836e-05
2.19826e-05
2.19821e-05
2.19828e-05
2.46431e-05
2.46239e-05
2.19817e-05
2.19825e-05
2.19819e-05
2.46231e-05
2.46431e-05
2.46234e-05
2.19834e-05
2.19831e-05
2.19835e-05
2.19833e-05
2.46433e-05
2.46234e-05
2.19822e-05
2.19836e-05
2.19824e-05
2.19838e-05
2.19829e-05
2.19823e-05
2.19831e-05
2.46437e-05
2.46239e-05
2.1982e-05
2.19827e-05
2.19821e-05
2.46231e-05
2.46432e-05
2.46237e-05
2.19836e-05
2.19834e-05
2.19838e-05
2.19836e-05
2.46434e-05
2.46238e-05
2.19825e-05
2.19839e-05
2.19827e-05
2.19841e-05
2.19831e-05
2.19826e-05
2.19833e-05
2.46437e-05
2.46242e-05
2.19822e-05
2.19829e-05
2.19824e-05
2.46234e-05
2.46435e-05
2.46239e-05
2.19839e-05
2.19837e-05
2.19841e-05
2.19839e-05
2.46437e-05
2.46239e-05
2.19828e-05
2.19842e-05
2.1983e-05
2.19844e-05
2.19834e-05
2.19828e-05
2.19836e-05
2.4644e-05
2.46244e-05
2.19825e-05
2.19832e-05
2.19827e-05
2.46235e-05
2.46437e-05
2.4624e-05
2.19842e-05
2.1984e-05
2.19843e-05
2.19841e-05
2.46438e-05
2.4624e-05
2.19831e-05
2.19844e-05
2.19832e-05
2.19845e-05
2.19836e-05
2.1983e-05
2.19836e-05
2.46442e-05
2.46245e-05
2.19827e-05
2.19834e-05
2.19827e-05
2.46233e-05
2.46437e-05
2.46239e-05
2.19844e-05
2.19842e-05
2.19844e-05
2.19842e-05
2.46439e-05
2.46239e-05
2.19832e-05
2.19845e-05
2.19832e-05
2.19845e-05
2.19837e-05
2.1983e-05
2.19836e-05
2.46443e-05
2.46243e-05
2.19828e-05
2.19835e-05
2.19827e-05
2.46234e-05
2.46437e-05
2.46239e-05
2.19844e-05
2.19843e-05
2.19844e-05
2.19843e-05
2.46438e-05
2.4624e-05
2.19833e-05
2.19846e-05
2.19833e-05
2.19845e-05
2.19837e-05
2.1983e-05
2.19836e-05
2.46441e-05
2.46244e-05
2.19828e-05
2.19835e-05
2.19827e-05
2.46236e-05
2.46435e-05
2.46244e-05
2.19844e-05
2.19843e-05
2.19844e-05
2.19843e-05
2.46438e-05
2.46244e-05
2.19833e-05
2.19845e-05
2.19833e-05
2.19845e-05
2.19837e-05
2.1983e-05
2.19836e-05
2.4644e-05
2.46248e-05
2.19828e-05
2.19835e-05
2.19827e-05
2.46234e-05
2.4644e-05
2.46245e-05
2.19844e-05
2.19843e-05
2.19844e-05
2.19843e-05
2.46442e-05
2.46244e-05
2.19833e-05
2.19846e-05
2.19833e-05
2.19845e-05
2.19837e-05
2.1983e-05
2.19836e-05
2.46445e-05
2.46246e-05
2.19828e-05
2.19835e-05
2.19827e-05
2.46237e-05
2.46443e-05
2.46241e-05
2.19845e-05
2.19843e-05
2.19844e-05
2.19843e-05
2.46444e-05
2.4624e-05
2.19833e-05
2.19846e-05
2.19833e-05
2.19845e-05
2.19836e-05
2.1983e-05
2.19836e-05
2.46446e-05
2.46242e-05
2.19828e-05
2.19835e-05
2.19827e-05
2.46243e-05
2.46441e-05
2.46238e-05
2.19845e-05
2.19843e-05
2.19844e-05
2.19843e-05
2.46442e-05
2.46239e-05
2.19833e-05
2.19846e-05
2.19833e-05
2.19845e-05
2.19836e-05
2.1983e-05
2.19836e-05
2.46443e-05
2.46242e-05
2.19827e-05
2.19834e-05
2.19827e-05
2.46245e-05
2.46438e-05
2.46238e-05
2.19844e-05
2.19843e-05
2.19844e-05
2.19843e-05
2.4644e-05
2.4624e-05
2.19833e-05
2.19845e-05
2.19832e-05
2.19845e-05
2.19836e-05
2.1983e-05
2.19836e-05
2.46441e-05
2.46243e-05
2.19828e-05
2.19834e-05
2.19827e-05
2.46246e-05
2.46437e-05
2.4624e-05
2.19844e-05
2.19843e-05
2.19844e-05
2.19843e-05
2.4644e-05
2.46241e-05
2.19833e-05
2.19845e-05
2.19832e-05
2.19845e-05
2.19836e-05
2.19831e-05
2.19836e-05
2.46441e-05
2.46243e-05
2.19828e-05
2.19834e-05
2.19827e-05
2.46247e-05
2.46438e-05
2.46239e-05
2.19844e-05
2.19843e-05
2.19844e-05
2.19843e-05
2.4644e-05
2.46241e-05
2.19832e-05
2.19845e-05
2.19832e-05
2.19845e-05
2.19837e-05
2.19831e-05
2.19836e-05
2.46442e-05
2.46243e-05
2.19827e-05
2.19834e-05
2.19827e-05
2.4625e-05
2.46439e-05
2.46239e-05
2.19844e-05
2.19844e-05
2.19843e-05
2.19843e-05
2.46441e-05
2.4624e-05
2.19832e-05
2.19845e-05
2.19832e-05
2.19845e-05
2.19837e-05
2.1983e-05
2.19836e-05
2.46442e-05
2.46242e-05
2.19828e-05
2.19834e-05
2.19827e-05
2.46253e-05
2.46439e-05
2.46239e-05
2.19844e-05
2.19843e-05
2.19843e-05
2.19843e-05
2.4644e-05
2.4624e-05
2.19832e-05
2.19845e-05
2.19832e-05
2.19845e-05
2.19836e-05
2.1983e-05
2.19836e-05
2.46442e-05
2.46243e-05
2.19828e-05
2.19834e-05
2.19828e-05
2.46252e-05
2.46439e-05
2.46238e-05
2.19844e-05
2.19843e-05
2.19843e-05
2.19843e-05
2.4644e-05
2.4624e-05
2.19833e-05
2.19845e-05
2.19832e-05
2.19845e-05
2.19836e-05
2.1983e-05
2.19836e-05
2.46442e-05
2.46242e-05
2.19828e-05
2.19834e-05
2.19828e-05
2.46252e-05
2.46438e-05
2.46239e-05
2.19844e-05
2.19843e-05
2.19843e-05
2.19843e-05
2.4644e-05
2.46239e-05
2.19833e-05
2.19845e-05
2.19832e-05
2.19845e-05
2.19836e-05
2.1983e-05
2.19836e-05
2.46442e-05
2.46242e-05
2.19828e-05
2.19834e-05
2.19828e-05
2.46252e-05
2.46439e-05
2.46239e-05
2.19844e-05
2.19843e-05
2.19843e-05
2.19842e-05
2.4644e-05
2.46239e-05
2.19833e-05
2.19845e-05
2.19832e-05
2.19845e-05
2.19837e-05
2.19831e-05
2.19836e-05
2.46441e-05
2.46242e-05
2.19828e-05
2.19834e-05
2.19827e-05
2.46253e-05
2.46439e-05
2.46238e-05
2.19844e-05
2.19842e-05
2.19843e-05
2.19842e-05
2.46439e-05
2.46239e-05
2.19832e-05
2.19845e-05
2.19832e-05
2.19845e-05
2.19836e-05
2.19831e-05
2.19836e-05
2.46442e-05
2.46242e-05
2.19828e-05
2.19834e-05
2.19827e-05
2.46254e-05
2.46439e-05
2.46238e-05
2.19844e-05
2.19842e-05
2.19843e-05
2.19841e-05
2.46439e-05
2.46238e-05
2.19832e-05
2.19845e-05
2.19832e-05
2.19845e-05
2.19836e-05
2.1983e-05
2.19836e-05
2.46442e-05
2.46242e-05
2.19828e-05
2.19834e-05
2.19827e-05
2.46254e-05
2.46438e-05
2.46238e-05
2.19844e-05
2.19841e-05
2.19844e-05
2.1984e-05
2.46438e-05
2.46237e-05
2.19832e-05
2.19845e-05
2.19832e-05
2.19845e-05
2.19836e-05
2.1983e-05
2.19836e-05
2.46442e-05
2.46242e-05
2.19827e-05
2.19834e-05
2.19827e-05
2.46253e-05
2.46438e-05
2.46237e-05
2.19844e-05
2.19841e-05
2.19844e-05
2.1984e-05
2.46437e-05
2.46236e-05
2.19832e-05
2.19845e-05
2.19832e-05
2.19845e-05
2.19836e-05
2.1983e-05
2.19836e-05
2.46442e-05
2.46242e-05
2.19827e-05
2.19834e-05
2.19827e-05
2.46253e-05
2.46438e-05
2.46237e-05
2.19844e-05
2.1984e-05
2.19844e-05
2.19839e-05
2.46436e-05
2.46236e-05
2.19832e-05
2.19846e-05
2.19832e-05
2.19845e-05
2.19836e-05
2.1983e-05
2.19836e-05
2.46442e-05
2.46242e-05
2.19827e-05
2.19833e-05
2.19827e-05
2.46253e-05
2.46438e-05
2.46237e-05
2.19844e-05
2.19839e-05
2.19844e-05
2.19839e-05
2.46436e-05
2.46235e-05
2.19832e-05
2.19846e-05
2.19832e-05
2.19845e-05
2.19836e-05
2.1983e-05
2.19836e-05
2.46442e-05
2.46242e-05
2.19827e-05
2.19833e-05
2.19827e-05
2.46253e-05
2.46438e-05
2.46238e-05
2.19844e-05
2.19839e-05
2.19844e-05
2.19839e-05
2.46436e-05
2.46235e-05
2.19832e-05
2.19846e-05
2.19832e-05
2.19845e-05
2.19837e-05
2.19831e-05
2.19836e-05
2.46441e-05
2.46242e-05
2.19827e-05
2.19833e-05
2.19827e-05
2.46253e-05
2.46438e-05
2.46237e-05
2.19844e-05
2.19839e-05
2.19843e-05
2.19838e-05
2.46435e-05
2.46234e-05
2.19832e-05
2.19846e-05
2.19831e-05
2.19845e-05
2.19837e-05
2.1983e-05
2.19836e-05
2.46442e-05
2.46243e-05
2.19828e-05
2.19834e-05
2.19827e-05
2.46253e-05
2.46438e-05
2.46237e-05
2.19844e-05
2.19838e-05
2.19843e-05
2.19838e-05
2.46434e-05
2.46234e-05
2.19832e-05
2.19846e-05
2.19831e-05
2.19845e-05
2.19837e-05
2.1983e-05
2.19836e-05
2.46442e-05
2.46242e-05
2.19827e-05
2.19834e-05
2.19827e-05
2.46253e-05
2.46437e-05
2.46237e-05
2.19844e-05
2.19838e-05
2.19844e-05
2.19838e-05
2.46434e-05
2.46234e-05
2.19832e-05
2.19846e-05
2.19831e-05
2.19845e-05
2.19837e-05
2.1983e-05
2.19837e-05
2.46442e-05
2.46242e-05
2.19827e-05
2.19834e-05
2.19827e-05
2.46254e-05
2.46437e-05
2.46236e-05
2.19844e-05
2.19838e-05
2.19843e-05
2.19837e-05
2.46434e-05
2.46234e-05
2.19831e-05
2.19845e-05
2.19831e-05
2.19845e-05
2.19837e-05
2.1983e-05
2.19837e-05
2.46442e-05
2.46242e-05
2.19827e-05
2.19834e-05
2.19827e-05
2.46254e-05
2.46437e-05
2.46236e-05
2.19844e-05
2.19838e-05
2.19843e-05
2.19837e-05
2.46434e-05
2.46233e-05
2.19831e-05
2.19846e-05
2.19831e-05
2.19845e-05
2.19837e-05
2.1983e-05
2.19836e-05
2.46442e-05
2.46242e-05
2.19827e-05
2.19833e-05
2.19827e-05
2.46253e-05
2.46437e-05
2.46236e-05
2.19844e-05
2.19837e-05
2.19844e-05
2.19837e-05
2.46433e-05
2.46233e-05
2.19831e-05
2.19846e-05
2.19831e-05
2.19845e-05
2.19836e-05
2.19829e-05
2.19836e-05
2.46442e-05
2.46242e-05
2.19827e-05
2.19833e-05
2.19827e-05
2.46253e-05
2.46437e-05
2.46237e-05
2.19844e-05
2.19837e-05
2.19844e-05
2.19837e-05
2.46433e-05
2.46233e-05
2.19832e-05
2.19846e-05
2.19831e-05
2.19845e-05
2.19837e-05
2.1983e-05
2.19836e-05
2.46442e-05
2.46242e-05
2.19828e-05
2.19834e-05
2.19827e-05
2.46254e-05
2.46437e-05
2.46236e-05
2.19844e-05
2.19837e-05
2.19843e-05
2.19837e-05
2.46433e-05
2.46233e-05
2.19831e-05
2.19846e-05
2.19831e-05
2.19845e-05
2.19837e-05
2.19829e-05
2.19836e-05
2.46441e-05
2.46242e-05
2.19827e-05
2.19833e-05
2.19827e-05
2.46254e-05
2.46437e-05
2.46237e-05
2.19844e-05
2.19837e-05
2.19843e-05
2.19837e-05
2.46434e-05
2.46232e-05
2.19831e-05
2.19845e-05
2.19831e-05
2.19845e-05
2.19837e-05
2.19829e-05
2.19836e-05
2.46442e-05
2.46242e-05
2.19827e-05
2.19833e-05
2.19827e-05
2.46252e-05
2.46437e-05
2.46237e-05
2.19844e-05
2.19837e-05
2.19843e-05
2.19837e-05
2.46433e-05
2.46232e-05
2.19831e-05
2.19845e-05
2.19831e-05
2.19845e-05
2.19837e-05
2.19829e-05
2.19836e-05
2.46442e-05
2.46242e-05
2.19827e-05
2.19833e-05
2.19827e-05
2.46252e-05
2.46437e-05
2.46236e-05
2.19843e-05
2.19837e-05
2.19843e-05
2.19836e-05
2.46432e-05
2.46233e-05
2.19831e-05
2.19845e-05
2.19831e-05
2.19845e-05
2.19836e-05
2.19829e-05
2.19836e-05
2.46442e-05
2.46242e-05
2.19827e-05
2.19833e-05
2.19827e-05
2.46252e-05
2.46437e-05
2.46236e-05
2.19844e-05
2.19837e-05
2.19843e-05
2.19836e-05
2.46433e-05
2.46233e-05
2.19831e-05
2.19845e-05
2.19831e-05
2.19845e-05
2.19836e-05
2.19829e-05
2.19836e-05
2.46442e-05
2.46242e-05
2.19827e-05
2.19834e-05
2.19827e-05
2.46252e-05
2.46436e-05
2.46236e-05
2.19844e-05
2.19837e-05
2.19843e-05
2.19836e-05
2.46433e-05
2.46233e-05
2.19831e-05
2.19845e-05
2.19831e-05
2.19845e-05
2.19836e-05
2.19829e-05
2.19836e-05
2.46442e-05
2.46242e-05
2.19828e-05
2.19834e-05
2.19827e-05
2.46253e-05
2.46436e-05
2.46237e-05
2.19844e-05
2.19837e-05
2.19844e-05
2.19836e-05
2.46433e-05
2.46233e-05
2.19831e-05
2.19846e-05
2.19831e-05
2.19845e-05
2.19836e-05
2.1983e-05
2.19836e-05
2.46442e-05
2.46242e-05
2.19828e-05
2.19834e-05
2.19828e-05
2.46254e-05
2.46437e-05
2.46236e-05
2.19844e-05
2.19837e-05
2.19843e-05
2.19836e-05
2.46433e-05
2.46233e-05
2.19831e-05
2.19846e-05
2.19831e-05
2.19845e-05
2.19836e-05
2.19829e-05
2.19836e-05
2.46442e-05
2.46242e-05
2.19828e-05
2.19834e-05
2.19828e-05
2.46254e-05
2.46437e-05
2.46236e-05
2.19844e-05
2.19837e-05
2.19843e-05
2.19836e-05
2.46433e-05
2.46232e-05
2.19831e-05
2.19846e-05
2.19831e-05
2.19845e-05
2.19836e-05
2.19829e-05
2.19836e-05
2.46442e-05
2.46242e-05
2.19828e-05
2.19833e-05
2.19827e-05
2.46254e-05
2.46437e-05
2.46236e-05
2.19843e-05
2.19836e-05
2.19843e-05
2.19836e-05
2.46432e-05
2.46232e-05
2.19831e-05
2.19846e-05
2.19831e-05
2.19845e-05
2.19837e-05
2.19829e-05
2.19836e-05
2.46442e-05
2.46242e-05
2.19828e-05
2.19834e-05
2.19827e-05
2.46253e-05
2.46437e-05
2.46236e-05
2.19844e-05
2.19837e-05
2.19843e-05
2.19836e-05
2.46432e-05
2.46233e-05
2.19831e-05
2.19846e-05
2.19831e-05
2.19845e-05
2.19837e-05
2.19829e-05
2.19836e-05
2.46441e-05
2.46242e-05
2.19827e-05
2.19834e-05
2.19827e-05
2.46253e-05
2.46437e-05
2.46236e-05
2.19843e-05
2.19837e-05
2.19843e-05
2.19836e-05
2.46432e-05
2.46233e-05
2.19831e-05
2.19845e-05
2.19831e-05
2.19845e-05
2.19836e-05
2.19829e-05
2.19836e-05
2.46441e-05
2.46242e-05
2.19828e-05
2.19834e-05
2.19827e-05
2.46253e-05
2.46436e-05
2.46236e-05
2.19843e-05
2.19837e-05
2.19843e-05
2.19836e-05
2.46433e-05
2.46233e-05
2.19831e-05
2.19845e-05
2.1983e-05
2.19845e-05
2.19836e-05
2.19829e-05
2.19836e-05
2.46442e-05
2.46242e-05
2.19827e-05
2.19834e-05
2.19827e-05
2.46253e-05
2.46436e-05
2.46237e-05
2.19843e-05
2.19837e-05
2.19843e-05
2.19836e-05
2.46433e-05
2.46232e-05
2.19831e-05
2.19845e-05
2.19831e-05
2.19845e-05
2.19836e-05
2.19829e-05
2.19836e-05
2.46442e-05
2.46242e-05
2.19827e-05
2.19834e-05
2.19827e-05
2.46253e-05
2.46436e-05
2.46236e-05
2.19843e-05
2.19837e-05
2.19843e-05
2.19836e-05
2.46433e-05
2.46232e-05
2.19831e-05
2.19845e-05
2.1983e-05
2.19845e-05
2.19836e-05
2.19829e-05
2.19836e-05
2.46442e-05
2.46242e-05
2.19828e-05
2.19834e-05
2.19827e-05
2.46252e-05
2.46437e-05
2.46236e-05
2.19843e-05
2.19837e-05
2.19843e-05
2.19836e-05
2.46432e-05
2.46233e-05
2.19831e-05
2.19845e-05
2.1983e-05
2.19845e-05
2.19836e-05
2.1983e-05
2.19836e-05
2.46442e-05
2.46242e-05
2.19828e-05
2.19835e-05
2.19827e-05
2.46252e-05
2.46437e-05
2.46236e-05
2.19843e-05
2.19837e-05
2.19843e-05
2.19836e-05
2.46433e-05
2.46233e-05
2.19831e-05
2.19846e-05
2.1983e-05
2.19845e-05
2.19836e-05
2.1983e-05
2.19836e-05
2.46442e-05
2.46242e-05
2.19828e-05
2.19835e-05
2.19828e-05
2.46252e-05
2.46437e-05
2.46236e-05
2.19843e-05
2.19837e-05
2.19843e-05
2.19836e-05
2.46433e-05
2.46233e-05
2.19831e-05
2.19846e-05
2.1983e-05
2.19845e-05
2.19837e-05
2.1983e-05
2.19836e-05
2.46442e-05
2.46242e-05
2.19828e-05
2.19835e-05
2.19828e-05
2.46253e-05
2.46437e-05
2.46235e-05
2.19844e-05
2.19837e-05
2.19843e-05
2.19836e-05
2.46433e-05
2.46233e-05
2.19831e-05
2.19846e-05
2.19831e-05
2.19845e-05
2.19837e-05
2.1983e-05
2.19837e-05
2.46442e-05
2.46242e-05
2.19829e-05
2.19835e-05
2.19828e-05
2.46254e-05
2.46436e-05
2.46235e-05
2.19844e-05
2.19837e-05
2.19843e-05
2.19837e-05
2.46433e-05
2.46233e-05
2.19831e-05
2.19846e-05
2.19831e-05
2.19845e-05
2.19838e-05
2.1983e-05
2.19837e-05
2.46442e-05
2.46242e-05
2.19829e-05
2.19835e-05
2.19828e-05
2.46254e-05
2.46436e-05
2.46237e-05
2.19844e-05
2.19838e-05
2.19844e-05
2.19837e-05
2.46433e-05
2.46233e-05
2.19832e-05
2.19846e-05
2.19831e-05
2.19846e-05
2.19838e-05
2.1983e-05
2.19837e-05
2.46442e-05
2.46243e-05
2.19829e-05
2.19835e-05
2.19829e-05
2.46254e-05
2.46436e-05
2.46237e-05
2.19845e-05
2.19838e-05
2.19844e-05
2.19837e-05
2.46433e-05
2.46232e-05
2.19832e-05
2.19847e-05
2.19832e-05
2.19846e-05
2.19838e-05
2.1983e-05
2.19837e-05
2.46442e-05
2.46243e-05
2.1983e-05
2.19835e-05
2.19829e-05
2.46254e-05
2.46437e-05
2.46237e-05
2.19846e-05
2.19839e-05
2.19844e-05
2.19837e-05
2.46433e-05
2.46232e-05
2.19833e-05
2.19847e-05
2.19832e-05
2.19846e-05
2.19839e-05
2.1983e-05
2.19838e-05
2.46442e-05
2.46243e-05
2.19831e-05
2.19835e-05
2.1983e-05
2.46253e-05
2.46437e-05
2.46238e-05
2.19846e-05
2.19839e-05
2.19845e-05
2.19838e-05
2.46432e-05
2.46233e-05
2.19834e-05
2.19848e-05
2.19832e-05
2.19847e-05
2.19839e-05
2.1983e-05
2.19838e-05
2.46442e-05
2.46243e-05
2.19831e-05
2.19835e-05
2.1983e-05
2.46255e-05
2.46438e-05
2.46238e-05
2.19847e-05
2.1984e-05
2.19845e-05
2.19838e-05
2.46433e-05
2.46233e-05
2.19835e-05
2.19849e-05
2.19833e-05
2.19847e-05
2.1984e-05
2.1983e-05
2.19838e-05
2.46443e-05
2.46243e-05
2.19832e-05
2.19835e-05
2.1983e-05
2.46253e-05
2.46438e-05
2.46238e-05
2.19848e-05
2.1984e-05
2.19845e-05
2.19838e-05
2.46434e-05
2.46233e-05
2.19835e-05
2.19849e-05
2.19833e-05
2.19847e-05
2.1984e-05
2.1983e-05
2.19838e-05
2.46443e-05
2.46243e-05
2.19832e-05
2.19835e-05
2.1983e-05
2.46253e-05
2.46439e-05
2.46238e-05
2.19848e-05
2.19841e-05
2.19845e-05
2.19838e-05
2.46434e-05
2.46233e-05
2.19836e-05
2.1985e-05
2.19832e-05
2.19846e-05
2.19841e-05
2.1983e-05
2.19838e-05
2.46443e-05
2.46244e-05
2.19833e-05
2.19835e-05
2.1983e-05
2.46255e-05
2.46439e-05
2.46238e-05
2.19849e-05
2.19842e-05
2.19845e-05
2.19837e-05
2.46434e-05
2.46233e-05
2.19837e-05
2.19851e-05
2.19832e-05
2.19846e-05
2.19842e-05
2.19829e-05
2.19838e-05
2.46443e-05
2.46243e-05
2.19834e-05
2.19835e-05
2.19829e-05
2.46255e-05
2.46439e-05
2.46237e-05
2.1985e-05
2.19843e-05
2.19844e-05
2.19837e-05
2.46434e-05
2.46234e-05
2.19837e-05
2.19851e-05
2.19832e-05
2.19846e-05
2.19843e-05
2.19829e-05
2.19837e-05
2.46443e-05
2.46243e-05
2.19835e-05
2.19834e-05
2.19829e-05
2.46254e-05
2.46438e-05
2.46238e-05
2.19851e-05
2.19844e-05
2.19844e-05
2.19836e-05
2.46434e-05
2.46235e-05
2.19839e-05
2.19853e-05
2.19831e-05
2.19845e-05
2.19844e-05
2.19829e-05
2.19837e-05
2.46443e-05
2.46244e-05
2.19836e-05
2.19834e-05
2.19828e-05
2.46254e-05
2.46439e-05
2.4624e-05
2.19853e-05
2.19845e-05
2.19843e-05
2.19836e-05
2.46435e-05
2.46236e-05
2.1984e-05
2.19854e-05
2.19831e-05
2.19845e-05
2.19846e-05
2.19829e-05
2.19836e-05
2.46444e-05
2.46245e-05
2.19837e-05
2.19834e-05
2.19828e-05
2.46257e-05
2.4644e-05
2.46242e-05
2.19855e-05
2.19848e-05
2.19844e-05
2.19837e-05
2.46436e-05
2.46238e-05
2.19843e-05
2.19857e-05
2.19831e-05
2.19845e-05
2.19848e-05
2.19829e-05
2.19837e-05
2.46444e-05
2.46247e-05
2.1984e-05
2.19834e-05
2.19828e-05
2.4626e-05
2.46441e-05
2.46246e-05
2.19859e-05
2.19853e-05
2.19845e-05
2.19838e-05
2.46437e-05
2.46242e-05
2.19847e-05
2.19861e-05
2.19832e-05
2.19847e-05
2.19852e-05
2.1983e-05
2.19838e-05
2.46446e-05
2.46252e-05
2.19844e-05
2.19836e-05
2.19829e-05
2.46263e-05
2.46442e-05
2.46233e-05
2.19865e-05
2.19858e-05
2.19811e-05
2.19804e-05
2.46438e-05
2.46229e-05
2.19853e-05
2.19867e-05
2.19798e-05
2.19812e-05
2.19858e-05
2.19796e-05
2.19803e-05
2.46447e-05
2.46239e-05
2.19849e-05
2.19801e-05
2.19795e-05
2.4625e-05
2.46413e-05
2.44394e-05
2.19842e-05
2.19836e-05
2.17887e-05
2.17878e-05
2.46409e-05
2.4439e-05
2.19829e-05
2.19843e-05
2.1788e-05
2.17882e-05
2.19834e-05
2.17878e-05
2.17874e-05
2.46418e-05
2.44396e-05
2.19826e-05
2.1788e-05
2.1787e-05
2.44386e-05
2.42107e-05
2.15509e-05
2.15499e-05
2.42102e-05
2.15504e-05
2.15503e-05
1.83585e-05
1.83586e-05
1.83581e-05
2.15494e-05
2.42108e-05
2.15493e-05
1.50774e-05
4.17965e-06
1.11221e-05
1.11221e-05
7.33897e-08
8.43255e-07
5.96916e-07
7.49317e-06
7.46384e-08
9.09974e-07
7.52541e-06
9.48536e-07
4.65283e-07
5.28504e-07
4.78675e-07
2.52648e-07
5.15108e-06
2.18948e-07
6.66582e-06
1.4439e-05
2.1984e-05
2.54493e-07
5.15867e-06
2.13703e-07
6.72068e-06
7.37465e-06
7.41077e-06
7.37469e-06
7.45814e-06
7.42568e-06
7.46455e-06
7.43001e-06
7.95972e-08
1.34421e-06
3.75115e-06
1.31543e-06
7.72632e-08
1.40019e-06
3.74518e-06
1.46209e-05
2.20686e-05
7.40828e-08
3.77689e-06
1.17947e-06
1.28961e-06
7.4632e-08
3.77628e-06
1.1637e-06
1.97269e-06
1.81104e-06
4.67272e-07
1.95216e-06
1.86074e-06
4.55811e-07
1.03111e-05
3.4592e-07
1.2526e-05
3.76666e-05
4.73039e-05
4.64112e-07
1.01166e-05
3.43055e-07