/*--------------------------------*- C++ -*----------------------------------*\
| =========                 |                                                 |
| \\      /  F ield         | OpenFOAM: The Open Source CFD Toolbox           |
|  \\    /   O peration     | Version:  v2012                                 |
|   \\  /    A nd           | Website:  www.openfoam.com                      |
|    \\/     M anipulation  |                                                 |
\*---------------------------------------------------------------------------*/
FoamFile
{
    version     2.0;
    format      ascii;
    class       volScalarField;
    location    "1950";
    object      epsilon;
}
// * * * * * * * * * * * * * * * * * * * * * * * * * * * * * * * * * * * * * //

dimensions      [0 2 -3 0 0 0 0];


internalField   nonuniform List<scalar> 
171728
(
1.32731e-09
3.74132e-09
3.35196e-09
5.1925e-09
1.3024e-09
3.46188e-09
3.10392e-09
4.69961e-09
1.24519e-09
3.12946e-09
2.85086e-09
4.24232e-09
1.19083e-09
2.83388e-09
2.62829e-09
3.84487e-09
1.13924e-09
2.57441e-09
2.43756e-09
3.52795e-09
1.09276e-09
2.37955e-09
2.28122e-09
3.25473e-09
1.05068e-09
2.23793e-09
2.15721e-09
3.03108e-09
1.01141e-09
2.14868e-09
2.06053e-09
2.83944e-09
9.75315e-10
2.1157e-09
1.99108e-09
2.68194e-09
9.41312e-10
2.12495e-09
1.94409e-09
2.56041e-09
9.09842e-10
2.16497e-09
1.92904e-09
2.4758e-09
8.78538e-10
2.23095e-09
1.94924e-09
2.42788e-09
8.52285e-10
2.33702e-09
2.01e-09
2.41989e-09
8.28924e-10
2.49856e-09
2.12889e-09
2.46011e-09
8.09161e-10
2.73683e-09
2.32962e-09
2.57511e-09
7.93143e-10
3.08168e-09
2.64097e-09
2.80817e-09
7.76698e-10
3.64043e-09
3.11601e-09
3.22265e-09
7.6294e-10
4.58098e-09
3.84666e-09
3.92415e-09
7.4796e-10
6.01272e-09
4.96007e-09
5.03104e-09
7.37778e-10
8.10755e-09
6.56385e-09
7.51928e-09
7.31596e-10
1.1713e-08
9.04136e-09
1.0449e-08
7.35409e-10
1.61353e-08
1.26788e-08
1.74651e-08
7.47007e-10
2.2024e-08
1.72476e-08
2.86375e-08
7.8014e-10
2.90264e-08
2.45251e-08
4.72424e-08
8.59897e-10
3.64468e-08
3.23236e-08
6.9485e-08
9.89073e-10
5.05141e-08
4.45879e-08
1.08637e-07
1.21548e-09
6.50491e-08
5.81228e-08
1.61575e-07
1.56356e-09
7.85831e-08
7.53951e-08
2.26472e-07
2.09009e-09
9.87469e-08
9.59953e-08
2.89465e-07
2.56597e-09
1.25317e-07
1.17531e-07
3.59935e-07
3.33771e-09
1.73731e-07
1.44698e-07
4.53945e-07
4.25187e-09
1.84368e-07
1.74442e-07
5.12691e-07
5.45681e-09
1.99347e-07
2.06474e-07
5.88297e-07
6.75518e-09
2.57758e-07
2.41059e-07
6.49474e-07
9.38461e-09
3.07569e-07
2.81205e-07
7.05472e-07
1.21758e-08
3.29684e-07
3.21237e-07
7.61597e-07
1.5609e-08
3.59769e-07
3.6551e-07
7.98322e-07
1.98259e-08
4.08101e-07
4.10336e-07
8.4124e-07
2.61808e-08
4.61875e-07
4.57129e-07
8.79999e-07
3.28668e-08
4.99652e-07
5.06122e-07
9.12824e-07
4.05391e-08
5.4896e-07
5.4906e-07
9.46779e-07
5.10476e-08
6.01488e-07
6.0319e-07
9.74568e-07
6.14667e-08
6.46237e-07
6.48996e-07
1.00637e-06
7.5848e-08
6.93439e-07
6.95894e-07
1.03767e-06
9.11479e-08
7.48217e-07
7.4186e-07
1.0618e-06
1.06666e-07
7.78968e-07
7.83317e-07
1.08817e-06
1.2718e-07
8.23475e-07
8.25758e-07
1.11484e-06
1.55894e-07
8.74371e-07
8.70193e-07
1.14282e-06
1.77294e-07
9.00526e-07
9.05353e-07
1.17087e-06
1.96259e-07
9.35696e-07
9.37141e-07
1.19162e-06
2.21736e-07
9.74122e-07
9.72692e-07
1.22023e-06
2.51473e-07
1.00594e-06
9.98364e-07
1.23779e-06
2.88022e-07
1.02084e-06
1.02743e-06
1.25798e-06
3.30406e-07
1.04706e-06
1.05539e-06
1.27804e-06
3.55404e-07
1.08032e-06
1.07957e-06
1.29937e-06
3.72968e-07
1.10224e-06
1.09035e-06
1.30019e-06
3.97201e-07
1.11038e-06
1.11388e-06
1.32168e-06
4.37477e-07
1.13468e-06
1.14439e-06
1.36064e-06
4.85391e-07
1.16301e-06
1.16455e-06
1.3857e-06
5.10601e-07
1.18047e-06
1.17311e-06
1.37705e-06
5.21888e-07
1.18751e-06
1.18707e-06
1.37399e-06
5.46408e-07
1.19729e-06
1.19978e-06
1.39953e-06
5.73558e-07
1.21386e-06
1.21678e-06
1.42752e-06
6.04572e-07
1.23186e-06
1.23264e-06
1.43301e-06
6.31534e-07
1.24701e-06
1.2452e-06
1.43491e-06
6.40013e-07
1.25777e-06
1.25276e-06
1.44229e-06
6.41621e-07
1.26379e-06
1.26554e-06
1.4616e-06
6.7574e-07
1.26398e-06
1.27641e-06
1.47162e-06
7.08078e-07
1.28062e-06
1.27875e-06
1.47624e-06
7.1689e-07
1.29718e-06
1.28819e-06
1.48607e-06
7.09991e-07
1.29681e-06
1.29572e-06
1.49333e-06
7.23349e-07
1.29499e-06
1.30004e-06
1.49727e-06
7.47245e-07
1.30226e-06
1.30238e-06
1.50058e-06
7.65493e-07
1.31219e-06
1.30826e-06
1.50651e-06
7.72611e-07
1.31857e-06
1.31486e-06
1.51093e-06
7.73481e-07
1.31274e-06
1.31658e-06
1.51119e-06
7.79868e-07
1.31411e-06
1.31686e-06
1.51747e-06
7.93505e-07
1.32054e-06
1.32154e-06
1.5306e-06
8.03165e-07
1.32368e-06
1.32459e-06
1.53298e-06
8.06985e-07
1.32477e-06
1.32522e-06
1.5335e-06
8.07732e-07
1.32299e-06
1.3192e-06
1.52136e-06
8.06021e-07
1.31676e-06
1.3113e-06
1.50183e-06
8.07413e-07
1.31278e-06
1.31542e-06
1.51406e-06
8.16791e-07
1.31894e-06
1.32851e-06
1.55073e-06
8.22171e-07
1.32509e-06
1.33008e-06
1.55881e-06
8.14754e-07
1.3122e-06
1.30664e-06
1.52246e-06
8.0536e-07
1.29711e-06
1.2902e-06
1.49168e-06
8.03733e-07
1.2966e-06
1.29698e-06
1.50805e-06
8.04854e-07
1.30151e-06
1.30627e-06
1.52928e-06
8.08537e-07
1.30258e-06
1.30518e-06
1.52799e-06
8.07803e-07
1.29726e-06
1.29229e-06
1.52095e-06
7.91362e-07
1.27854e-06
1.27744e-06
1.50472e-06
7.79772e-07
1.26272e-06
1.26881e-06
1.48875e-06
7.82592e-07
1.26255e-06
1.26489e-06
1.48139e-06
7.69673e-07
1.21039e-06
1.2035e-06
1.44511e-06
3.52988e-09
3.68507e-09
3.38917e-09
3.1611e-09
2.65608e-09
3.76327e-09
1.29408e-09
1.49115e-09
1.27199e-09
1.54402e-09
2.43337e-09
4.02505e-09
5.23306e-09
3.70996e-09
3.90247e-09
5.22278e-09
3.48917e-09
3.3006e-09
4.51692e-09
4.94373e-09
4.30806e-09
4.69499e-09
3.12133e-09
2.98874e-09
3.36053e-09
3.34306e-09
3.2977e-09
3.16639e-09
4.65842e-09
3.54613e-09
4.40832e-09
5.21017e-09
4.64194e-09
5.91599e-09
3.17212e-09
5.02582e-09
4.73561e-09
3.26267e-09
3.11254e-09
4.2188e-09
4.59296e-09
3.96301e-09
4.30972e-09
2.95441e-09
2.84491e-09
3.26164e-09
3.09896e-09
3.14387e-09
2.91169e-09
4.31471e-09
3.20912e-09
4.05336e-09
4.61322e-09
4.1056e-09
4.78478e-09
2.91136e-09
4.1845e-09
4.27403e-09
3.07838e-09
2.93484e-09
3.88079e-09
4.22142e-09
3.64e-09
3.97614e-09
2.81153e-09
2.70058e-09
3.10211e-09
2.8542e-09
2.96662e-09
2.69577e-09
3.97154e-09
2.90482e-09
3.73819e-09
4.0841e-09
3.6748e-09
4.02633e-09
2.68079e-09
3.665e-09
3.86984e-09
2.90198e-09
2.75137e-09
3.56026e-09
3.90287e-09
3.32325e-09
3.71384e-09
2.66879e-09
2.55533e-09
2.91974e-09
2.64716e-09
2.78471e-09
2.5127e-09
3.66453e-09
2.63295e-09
3.4599e-09
3.65847e-09
3.31883e-09
3.57345e-09
2.48213e-09
3.36602e-09
3.54957e-09
2.71791e-09
2.55296e-09
3.24647e-09
3.66293e-09
3.02891e-09
3.54417e-09
2.52677e-09
2.43045e-09
2.74207e-09
2.47196e-09
2.61905e-09
2.36072e-09
3.39761e-09
2.42332e-09
3.23009e-09
3.30573e-09
3.02014e-09
3.31502e-09
2.31758e-09
3.19316e-09
3.27238e-09
2.53086e-09
2.36434e-09
2.96265e-09
3.51548e-09
2.79197e-09
3.45206e-09
2.40906e-09
2.34328e-09
2.57951e-09
2.32681e-09
2.46937e-09
2.23401e-09
3.17982e-09
2.26856e-09
3.04094e-09
3.01037e-09
2.77522e-09
3.15712e-09
2.18548e-09
3.0472e-09
3.04533e-09
2.35186e-09
2.20145e-09
2.7454e-09
3.43701e-09
2.63174e-09
3.40887e-09
2.33731e-09
2.28327e-09
2.43457e-09
2.20592e-09
2.33436e-09
2.13464e-09
2.99859e-09
2.1657e-09
2.88511e-09
2.76865e-09
2.57595e-09
3.00963e-09
2.08203e-09
2.8989e-09
2.85005e-09
2.19121e-09
2.04925e-09
2.60067e-09
3.40392e-09
2.52414e-09
3.39959e-09
2.28125e-09
2.24549e-09
2.30446e-09
2.11415e-09
2.22928e-09
2.06489e-09
2.85332e-09
2.11786e-09
2.77731e-09
2.57253e-09
2.41387e-09
2.86245e-09
2.007e-09
2.75582e-09
2.6883e-09
2.04143e-09
1.92216e-09
2.50412e-09
3.40073e-09
2.46278e-09
3.41582e-09
2.24604e-09
2.21856e-09
2.20882e-09
2.05218e-09
2.15799e-09
2.02489e-09
2.75906e-09
2.11892e-09
2.71972e-09
2.41319e-09
2.28302e-09
2.72303e-09
1.95279e-09
2.63332e-09
2.56208e-09
1.91887e-09
1.84055e-09
2.45373e-09
3.42688e-09
2.44226e-09
3.46538e-09
2.22227e-09
2.20385e-09
2.14304e-09
2.02037e-09
2.10798e-09
2.01759e-09
2.7141e-09
2.15418e-09
2.718e-09
2.28498e-09
2.18822e-09
2.60556e-09
1.92864e-09
2.53569e-09
2.47325e-09
1.8426e-09
1.80687e-09
2.4435e-09
3.4784e-09
2.46212e-09
3.51979e-09
2.21055e-09
2.20786e-09
2.09897e-09
2.02032e-09
2.08049e-09
2.04344e-09
2.72303e-09
2.21213e-09
2.74127e-09
2.19356e-09
2.13251e-09
2.51704e-09
1.94024e-09
2.47719e-09
2.41928e-09
1.81667e-09
1.81659e-09
2.47294e-09
3.54248e-09
2.52206e-09
3.62833e-09
2.22142e-09
2.24831e-09
2.0807e-09
2.05666e-09
2.09583e-09
2.11096e-09
2.75072e-09
2.30957e-09
2.79107e-09
2.14382e-09
2.11721e-09
2.47283e-09
1.99027e-09
2.48103e-09
2.40251e-09
1.83622e-09
1.87525e-09
2.54527e-09
3.6509e-09
2.62739e-09
3.66157e-09
2.26902e-09
2.30505e-09
2.10769e-09
2.13586e-09
2.17384e-09
2.23337e-09
2.80836e-09
2.4535e-09
2.88441e-09
2.13662e-09
2.15062e-09
2.49032e-09
2.09108e-09
2.55791e-09
2.42975e-09
1.90838e-09
1.99589e-09
2.66326e-09
3.65379e-09
2.80272e-09
3.63096e-09
2.33274e-09
2.3916e-09
2.20413e-09
2.27509e-09
2.33289e-09
2.42783e-09
2.9214e-09
2.67505e-09
3.08008e-09
2.18227e-09
2.25067e-09
2.59045e-09
2.27135e-09
2.72441e-09
2.5239e-09
2.0518e-09
2.21471e-09
2.86428e-09
3.6381e-09
3.0845e-09
3.72052e-09
2.43713e-09
2.56212e-09
2.38869e-09
2.49424e-09
2.59555e-09
2.72449e-09
3.14161e-09
2.993e-09
3.40129e-09
2.30483e-09
2.44728e-09
2.77626e-09
2.54946e-09
2.98971e-09
2.72143e-09
2.30678e-09
2.58985e-09
3.18674e-09
3.76881e-09
3.53632e-09
4.11297e-09
2.65066e-09
2.92878e-09
2.69058e-09
2.82166e-09
3.01247e-09
3.18779e-09
3.50431e-09
3.49829e-09
3.88595e-09
2.5402e-09
2.80474e-09
3.07625e-09
2.98701e-09
3.3725e-09
3.07629e-09
2.73753e-09
3.22476e-09
3.69133e-09
4.24473e-09
4.23473e-09
4.87085e-09
3.08087e-09
3.62193e-09
3.15328e-09
3.3257e-09
3.66086e-09
3.88049e-09
4.03099e-09
4.29935e-09
4.49359e-09
2.95568e-09
3.41277e-09
3.51496e-09
3.64182e-09
3.97295e-09
3.66084e-09
3.46418e-09
4.34012e-09
4.45136e-09
5.15394e-09
5.30883e-09
5.99765e-09
3.87821e-09
4.77742e-09
3.85783e-09
4.0876e-09
4.63881e-09
4.92226e-09
4.72342e-09
5.55188e-09
5.37431e-09
3.6553e-09
4.53949e-09
4.18551e-09
4.62968e-09
4.95388e-09
4.68453e-09
4.74136e-09
6.22291e-09
5.62074e-09
6.44192e-09
6.84749e-09
7.59438e-09
5.23114e-09
6.77831e-09
4.94229e-09
5.26146e-09
6.05337e-09
6.41289e-09
5.59318e-09
7.55373e-09
6.73065e-09
4.9539e-09
6.35799e-09
5.22284e-09
6.0991e-09
6.44185e-09
6.72604e-09
6.96297e-09
9.47984e-09
7.34671e-09
8.02036e-09
9.09056e-09
9.82441e-09
7.47093e-09
1.09431e-08
6.54167e-09
6.89193e-09
8.26487e-09
8.75222e-09
7.23036e-09
1.07769e-08
8.43752e-09
7.03803e-09
9.94522e-09
6.95639e-09
8.39927e-09
8.50964e-09
9.46392e-09
1.04358e-08
1.56639e-08
9.70882e-09
1.05435e-08
1.23359e-08
1.26741e-08
1.21723e-08
1.60018e-08
8.86515e-09
9.41021e-09
1.14595e-08
1.19884e-08
9.04754e-09
1.46065e-08
1.17664e-08
1.10528e-08
1.56875e-08
9.19283e-09
1.16148e-08
1.18582e-08
1.55533e-08
1.77794e-08
2.44666e-08
1.35328e-08
1.36534e-08
1.66971e-08
1.72359e-08
1.80157e-08
2.85863e-08
1.25626e-08
1.30333e-08
1.58703e-08
1.63486e-08
1.29406e-08
2.07208e-08
1.6582e-08
1.75815e-08
2.47512e-08
1.28771e-08
1.58212e-08
1.6431e-08
2.55075e-08
2.67715e-08
4.25936e-08
1.7815e-08
1.83115e-08
2.35728e-08
2.28611e-08
3.14924e-08
4.4271e-08
1.71625e-08
1.78026e-08
2.24397e-08
2.32308e-08
1.80946e-08
2.70217e-08
2.31142e-08
2.77433e-08
4.37467e-08
1.79735e-08
2.271e-08
2.29438e-08
4.29158e-08
4.82337e-08
6.44215e-08
2.56941e-08
2.46551e-08
3.1142e-08
3.01514e-08
4.88272e-08
6.13536e-08
2.45789e-08
2.5004e-08
3.06143e-08
3.04415e-08
2.51055e-08
3.44645e-08
3.14404e-08
4.80206e-08
6.25505e-08
2.47454e-08
2.99588e-08
3.1198e-08
6.38213e-08
6.8736e-08
9.75445e-08
3.35167e-08
3.263e-08
4.22842e-08
4.33701e-08
6.60114e-08
1.02408e-07
3.28619e-08
3.29754e-08
4.17684e-08
4.22227e-08
3.40496e-08
4.59634e-08
4.35961e-08
6.83472e-08
1.01726e-07
3.35736e-08
4.1512e-08
4.21871e-08
9.97253e-08
1.07026e-07
1.4882e-07
4.54827e-08
4.70175e-08
5.78635e-08
5.70531e-08
1.13989e-07
1.62742e-07
4.50282e-08
4.51012e-08
5.67857e-08
5.46276e-08
4.76525e-08
6.19869e-08
5.99511e-08
1.10237e-07
1.43202e-07
4.58099e-08
5.39151e-08
5.75156e-08
1.50518e-07
1.59494e-07
2.06738e-07
6.13355e-08
6.01411e-08
7.3324e-08
7.10106e-08
1.72956e-07
2.07184e-07
6.08797e-08
5.88483e-08
7.33396e-08
7.21614e-08
6.40171e-08
7.50163e-08
7.77265e-08
1.53819e-07
2.07222e-07
6.11607e-08
7.13636e-08
7.47477e-08
2.12213e-07
2.18934e-07
2.73913e-07
7.85079e-08
7.46857e-08
9.33745e-08
8.88881e-08
2.18684e-07
2.77273e-07
7.83293e-08
7.60863e-08
9.51619e-08
9.08063e-08
8.2289e-08
9.28741e-08
9.49229e-08
2.20081e-07
2.72792e-07
8.04578e-08
9.01743e-08
9.62445e-08
2.78818e-07
2.90498e-07
3.61579e-07
9.93199e-08
9.40245e-08
1.16702e-07
1.09489e-07
2.88877e-07
3.38925e-07
1.01143e-07
9.67526e-08
1.20508e-07
1.12898e-07
9.90203e-08
1.17584e-07
1.14279e-07
2.87961e-07
3.50963e-07
1.01289e-07
1.12312e-07
1.20976e-07
3.40882e-07
3.75893e-07
4.29863e-07
1.22763e-07
1.1565e-07
1.41886e-07
1.43651e-07
3.55045e-07
4.51494e-07
1.2717e-07
1.17926e-07
1.45026e-07
1.3753e-07
1.21479e-07
1.61249e-07
1.45362e-07
3.64778e-07
4.21511e-07
1.29333e-07
1.36833e-07
1.48011e-07
4.40891e-07
4.44387e-07
4.96778e-07
1.48148e-07
1.52473e-07
1.69505e-07
1.68358e-07
4.75527e-07
5.07602e-07
1.50415e-07
1.45858e-07
1.68271e-07
1.68665e-07
1.52304e-07
1.84629e-07
1.72809e-07
4.38902e-07
5.07234e-07
1.52834e-07
1.67472e-07
1.69795e-07
4.98393e-07
5.13605e-07
5.78885e-07
1.79195e-07
1.72358e-07
2.04415e-07
1.88849e-07
5.14236e-07
5.3677e-07
1.75903e-07
1.75437e-07
2.05797e-07
1.98164e-07
1.79357e-07
1.90451e-07
1.98656e-07
5.22772e-07
5.71104e-07
1.76942e-07
1.97319e-07
2.05476e-07
5.71711e-07
5.91115e-07
6.28136e-07
2.10601e-07
1.97257e-07
2.29773e-07
2.30563e-07
5.50754e-07
6.35966e-07
2.13859e-07
2.07345e-07
2.33466e-07
2.33164e-07
2.06177e-07
2.38982e-07
2.30125e-07
5.85566e-07
6.36195e-07
2.16961e-07
2.32841e-07
2.41382e-07
6.36445e-07
6.41068e-07
6.92286e-07
2.37274e-07
2.42079e-07
2.70206e-07
2.76591e-07
6.58309e-07
7.06407e-07
2.40683e-07
2.41182e-07
2.70805e-07
2.70549e-07
2.39154e-07
3.00179e-07
2.73876e-07
6.50264e-07
6.92971e-07
2.47528e-07
2.70552e-07
2.71193e-07
6.91584e-07
7.08563e-07
7.50467e-07
2.85e-07
2.87778e-07
3.17312e-07
3.14767e-07
7.16793e-07
7.43174e-07
2.82158e-07
2.81439e-07
3.11463e-07
3.11914e-07
2.85885e-07
3.24189e-07
3.13427e-07
7.05874e-07
7.45418e-07
2.81773e-07
3.11835e-07
3.11285e-07
7.50482e-07
7.61304e-07
7.88082e-07
3.26064e-07
3.21925e-07
3.55228e-07
3.46113e-07
7.53257e-07
7.82717e-07
3.20913e-07
3.20974e-07
3.5327e-07
3.54165e-07
3.2227e-07
3.50355e-07
3.53363e-07
7.57896e-07
7.91431e-07
3.20934e-07
3.53103e-07
3.52567e-07
7.8769e-07
7.98381e-07
8.28978e-07
3.6499e-07
3.56979e-07
3.9525e-07
3.96903e-07
7.94511e-07
8.34102e-07
3.6375e-07
3.66369e-07
3.94631e-07
4.0066e-07
3.63618e-07
3.94643e-07
3.94253e-07
8.02107e-07
8.31152e-07
3.62676e-07
3.99903e-07
3.9327e-07
8.30456e-07
8.40299e-07
8.72329e-07
4.06261e-07
4.09993e-07
4.46067e-07
4.49619e-07
8.46329e-07
8.73824e-07
4.05654e-07
4.11628e-07
4.44017e-07
4.45084e-07
4.06001e-07
4.49501e-07
4.46338e-07
8.4169e-07
8.70885e-07
4.05311e-07
4.43928e-07
4.45081e-07
8.70317e-07
8.81935e-07
9.03272e-07
4.60376e-07
4.61779e-07
4.94269e-07
4.90949e-07
8.82499e-07
9.01986e-07
4.58003e-07
4.5754e-07
4.93229e-07
4.94193e-07
4.58561e-07
4.89921e-07
4.90541e-07
8.80398e-07
9.03387e-07
4.57288e-07
4.95522e-07
4.89673e-07
9.03851e-07
9.11351e-07
9.35062e-07
5.03606e-07
5.00231e-07
5.37136e-07
5.34759e-07
9.09962e-07
9.34154e-07
5.03014e-07
5.05671e-07
5.35995e-07
5.38809e-07
5.01404e-07
5.36816e-07
5.40129e-07
9.11739e-07
9.34606e-07
5.01035e-07
5.36207e-07
5.399e-07
9.37976e-07
9.44983e-07
9.71119e-07
5.50797e-07
5.48404e-07
5.90804e-07
5.9008e-07
9.43934e-07
9.70156e-07
5.49564e-07
5.51719e-07
5.89881e-07
5.96944e-07
5.53613e-07
5.88679e-07
5.88293e-07
9.44139e-07
9.72997e-07
5.5285e-07
5.92671e-07
5.86932e-07
9.66945e-07
9.78537e-07
9.96644e-07
6.03516e-07
6.02422e-07
6.36845e-07
6.35917e-07
9.78137e-07
9.95902e-07
6.01695e-07
6.08922e-07
6.33478e-07
6.3656e-07
5.98982e-07
6.34762e-07
6.34605e-07
9.81145e-07
9.98135e-07
5.97284e-07
6.36288e-07
6.33028e-07
9.97347e-07
1.00421e-06
1.02852e-06
6.47716e-07
6.46688e-07
6.86016e-07
6.81384e-07
1.00308e-06
1.02559e-06
6.44536e-07
6.4661e-07
6.83216e-07
6.82153e-07
6.47865e-07
6.81072e-07
6.87331e-07
1.00527e-06
1.02643e-06
6.47407e-07
6.84115e-07
6.85864e-07
1.03066e-06
1.03695e-06
1.05578e-06
6.98695e-07
6.9381e-07
7.29089e-07
7.36693e-07
1.03405e-06
1.06339e-06
6.96521e-07
6.95153e-07
7.30727e-07
7.31424e-07
6.98976e-07
7.36574e-07
7.30548e-07
1.03435e-06
1.05681e-06
6.97337e-07
7.30694e-07
7.29337e-07
1.05504e-06
1.06229e-06
1.08075e-06
7.38827e-07
7.50432e-07
7.69968e-07
7.70113e-07
1.07116e-06
1.07902e-06
7.41224e-07
7.42708e-07
7.71544e-07
7.74073e-07
7.40612e-07
7.7117e-07
7.70946e-07
1.06401e-06
1.08188e-06
7.39e-07
7.73426e-07
7.70131e-07
1.0809e-06
1.08756e-06
1.10794e-06
7.81112e-07
7.77727e-07
8.16225e-07
8.10677e-07
1.08329e-06
1.10229e-06
7.81805e-07
7.83858e-07
8.14356e-07
8.15488e-07
7.82947e-07
8.11202e-07
8.1606e-07
1.08838e-06
1.10774e-06
7.82148e-07
8.14818e-07
8.14587e-07
1.1084e-06
1.11611e-06
1.14517e-06
8.29299e-07
8.23292e-07
8.69662e-07
8.62713e-07
1.11076e-06
1.14528e-06
8.26669e-07
8.26546e-07
8.62256e-07
8.60744e-07
8.25734e-07
8.62197e-07
8.55463e-07
1.11523e-06
1.14007e-06
8.24284e-07
8.60223e-07
8.55167e-07
1.13498e-06
1.15267e-06
1.16613e-06
8.79666e-07
8.75682e-07
8.99624e-07
8.95649e-07
1.15325e-06
1.16263e-06
8.71391e-07
8.70292e-07
8.93104e-07
8.9648e-07
8.66719e-07
8.94358e-07
8.9937e-07
1.14708e-06
1.16482e-06
8.66753e-07
8.96935e-07
8.96627e-07
1.16519e-06
1.16998e-06
1.1792e-06
9.04832e-07
9.01281e-07
9.24035e-07
9.25578e-07
1.16688e-06
1.18425e-06
9.00587e-07
9.05038e-07
9.25874e-07
9.29353e-07
9.07638e-07
9.25918e-07
9.30011e-07
1.17061e-06
1.18474e-06
9.04877e-07
9.29177e-07
9.29524e-07
1.18549e-06
1.18461e-06
1.20583e-06
9.31218e-07
9.35123e-07
9.54778e-07
9.62612e-07
1.19129e-06
1.20998e-06
9.34618e-07
9.3754e-07
9.60453e-07
9.65436e-07
9.37829e-07
9.64394e-07
9.64438e-07
1.19038e-06
1.21322e-06
9.38372e-07
9.64886e-07
9.66368e-07
1.21386e-06
1.21237e-06
1.22781e-06
9.64577e-07
9.71938e-07
9.90808e-07
9.99512e-07
1.2166e-06
1.23953e-06
9.67972e-07
9.72708e-07
9.88712e-07
9.91584e-07
9.73289e-07
9.99838e-07
9.92828e-07
1.21956e-06
1.23188e-06
9.744e-07
9.92077e-07
9.92641e-07
1.23355e-06
1.23336e-06
1.25604e-06
9.99311e-07
1.00613e-06
1.0259e-06
1.01759e-06
1.2459e-06
1.25435e-06
9.96803e-07
9.98011e-07
1.02403e-06
1.01903e-06
9.97971e-07
1.01666e-06
1.02094e-06
1.23655e-06
1.25148e-06
9.97606e-07
1.01935e-06
1.01932e-06
1.25147e-06
1.26511e-06
1.28955e-06
1.03564e-06
1.02129e-06
1.06033e-06
1.04009e-06
1.25712e-06
1.26614e-06
1.03426e-06
1.02701e-06
1.05985e-06
1.0523e-06
1.0288e-06
1.03936e-06
1.04826e-06
1.25754e-06
1.27662e-06
1.02719e-06
1.04928e-06
1.04704e-06
1.27322e-06
1.294e-06
1.29921e-06
1.06406e-06
1.04748e-06
1.07197e-06
1.06982e-06
1.27151e-06
1.28846e-06
1.06415e-06
1.0592e-06
1.07288e-06
1.0743e-06
1.05462e-06
1.07165e-06
1.07388e-06
1.2825e-06
1.29651e-06
1.05362e-06
1.07412e-06
1.07299e-06
1.29613e-06
1.3021e-06
1.30352e-06
1.07558e-06
1.0779e-06
1.08661e-06
1.09834e-06
1.29547e-06
1.31609e-06
1.07592e-06
1.07774e-06
1.08414e-06
1.08589e-06
1.07619e-06
1.10055e-06
1.07925e-06
1.30069e-06
1.30533e-06
1.0751e-06
1.0879e-06
1.07798e-06
1.29733e-06
1.30527e-06
1.31093e-06
1.08992e-06
1.1009e-06
1.1036e-06
1.10676e-06
1.31988e-06
1.32464e-06
1.0871e-06
1.08952e-06
1.10147e-06
1.10594e-06
1.08449e-06
1.10589e-06
1.10685e-06
1.30824e-06
1.31653e-06
1.08341e-06
1.10667e-06
1.10694e-06
1.31469e-06
1.31671e-06
1.33968e-06
1.11042e-06
1.11032e-06
1.13315e-06
1.12674e-06
1.32828e-06
1.33723e-06
1.10846e-06
1.11292e-06
1.13273e-06
1.13626e-06
1.11561e-06
1.12823e-06
1.14192e-06
1.32165e-06
1.34455e-06
1.11591e-06
1.13639e-06
1.14277e-06
1.35189e-06
1.34732e-06
1.37268e-06
1.14098e-06
1.13311e-06
1.16253e-06
1.15349e-06
1.34153e-06
1.35942e-06
1.14177e-06
1.14514e-06
1.16454e-06
1.16281e-06
1.15024e-06
1.15513e-06
1.16623e-06
1.3531e-06
1.37317e-06
1.15131e-06
1.16204e-06
1.16607e-06
1.38219e-06
1.37823e-06
1.38248e-06
1.16752e-06
1.16147e-06
1.17451e-06
1.17824e-06
1.36708e-06
1.38459e-06
1.16856e-06
1.16531e-06
1.1725e-06
1.17101e-06
1.16819e-06
1.1781e-06
1.16733e-06
1.37662e-06
1.37822e-06
1.16717e-06
1.17037e-06
1.16523e-06
1.37654e-06
1.38407e-06
1.38451e-06
1.17539e-06
1.18102e-06
1.18204e-06
1.18604e-06
1.3883e-06
1.39117e-06
1.17302e-06
1.17365e-06
1.18041e-06
1.18365e-06
1.16697e-06
1.18573e-06
1.17378e-06
1.38049e-06
1.38431e-06
1.16504e-06
1.18358e-06
1.17327e-06
1.37039e-06
1.38683e-06
1.39127e-06
1.18524e-06
1.18757e-06
1.19551e-06
1.19358e-06
1.39337e-06
1.39544e-06
1.18378e-06
1.18723e-06
1.19517e-06
1.19647e-06
1.17943e-06
1.19428e-06
1.19832e-06
1.38761e-06
1.39669e-06
1.1791e-06
1.19599e-06
1.19845e-06
1.39187e-06
1.3954e-06
1.41081e-06
1.1986e-06
1.19606e-06
1.21311e-06
1.20661e-06
1.39822e-06
1.40398e-06
1.19876e-06
1.1998e-06
1.21358e-06
1.21147e-06
1.20437e-06
1.20898e-06
1.2223e-06
1.40107e-06
1.41067e-06
1.20484e-06
1.21258e-06
1.22235e-06
1.42281e-06
1.41593e-06
1.42719e-06
1.21857e-06
1.21141e-06
1.23268e-06
1.22718e-06
1.40787e-06
1.42062e-06
1.21847e-06
1.21572e-06
1.23142e-06
1.22867e-06
1.22563e-06
1.22781e-06
1.22917e-06
1.41435e-06
1.42192e-06
1.2251e-06
1.22877e-06
1.22812e-06
1.43124e-06
1.43187e-06
1.44811e-06
1.23716e-06
1.23257e-06
1.25011e-06
1.24674e-06
1.42611e-06
1.44088e-06
1.23569e-06
1.23277e-06
1.24877e-06
1.24537e-06
1.2297e-06
1.24364e-06
1.23485e-06
1.4264e-06
1.44119e-06
1.22876e-06
1.24343e-06
1.23405e-06
1.43276e-06
1.45253e-06
1.44873e-06
1.25267e-06
1.25007e-06
1.25001e-06
1.25634e-06
1.4453e-06
1.45206e-06
1.25198e-06
1.24795e-06
1.25185e-06
1.25149e-06
1.23799e-06
1.25516e-06
1.24876e-06
1.44487e-06
1.44731e-06
1.23695e-06
1.24968e-06
1.24754e-06
1.43846e-06
1.44949e-06
1.43899e-06
1.24752e-06
1.25753e-06
1.24537e-06
1.25794e-06
1.45514e-06
1.4579e-06
1.24982e-06
1.25341e-06
1.24805e-06
1.26119e-06
1.25262e-06
1.26353e-06
1.2646e-06
1.44983e-06
1.4544e-06
1.25142e-06
1.26258e-06
1.26342e-06
1.45658e-06
1.44097e-06
1.45311e-06
1.24767e-06
1.25747e-06
1.26957e-06
1.26076e-06
1.45926e-06
1.4558e-06
1.24978e-06
1.26384e-06
1.26742e-06
1.27128e-06
1.26796e-06
1.26302e-06
1.27211e-06
1.4578e-06
1.46798e-06
1.26708e-06
1.27426e-06
1.27338e-06
1.46901e-06
1.46013e-06
1.49264e-06
1.27722e-06
1.26527e-06
1.29863e-06
1.28108e-06
1.45833e-06
1.468e-06
1.27367e-06
1.27372e-06
1.29148e-06
1.2792e-06
1.27286e-06
1.27613e-06
1.27848e-06
1.47199e-06
1.47522e-06
1.27501e-06
1.2782e-06
1.27975e-06
1.47381e-06
1.49979e-06
1.50042e-06
1.30339e-06
1.28658e-06
1.29891e-06
1.30012e-06
1.4734e-06
1.49261e-06
1.29584e-06
1.2809e-06
1.29443e-06
1.28603e-06
1.28072e-06
1.2937e-06
1.28831e-06
1.47725e-06
1.47898e-06
1.28128e-06
1.28564e-06
1.28733e-06
1.48216e-06
1.50091e-06
1.47765e-06
1.29343e-06
1.30077e-06
1.28047e-06
1.29401e-06
1.49701e-06
1.49359e-06
1.29087e-06
1.28759e-06
1.28432e-06
1.29201e-06
1.29126e-06
1.29825e-06
1.29677e-06
1.4814e-06
1.4851e-06
1.28995e-06
1.29408e-06
1.29529e-06
1.49128e-06
1.4779e-06
1.47534e-06
1.27792e-06
1.29161e-06
1.28255e-06
1.28798e-06
1.49444e-06
1.48711e-06
1.28384e-06
1.29361e-06
1.29185e-06
1.2983e-06
1.29727e-06
1.29496e-06
1.29841e-06
1.48828e-06
1.49427e-06
1.29635e-06
1.29945e-06
1.29928e-06
1.4949e-06
1.47948e-06
1.49608e-06
1.28722e-06
1.28851e-06
1.30106e-06
1.29801e-06
1.489e-06
1.49387e-06
1.29555e-06
1.29983e-06
1.3061e-06
1.30399e-06
1.29909e-06
1.29959e-06
1.30284e-06
1.49707e-06
1.49999e-06
1.30047e-06
1.30133e-06
1.3037e-06
1.49858e-06
1.50175e-06
1.51176e-06
1.30578e-06
1.30187e-06
1.31544e-06
1.31288e-06
1.49744e-06
1.50515e-06
1.30896e-06
1.30529e-06
1.31202e-06
1.30861e-06
1.30405e-06
1.30984e-06
1.30738e-06
1.5024e-06
1.50432e-06
1.30457e-06
1.30676e-06
1.30699e-06
1.50348e-06
1.51484e-06
1.5183e-06
1.31701e-06
1.31635e-06
1.31901e-06
1.32131e-06
1.50934e-06
1.52019e-06
1.3124e-06
1.30959e-06
1.3145e-06
1.31301e-06
1.30865e-06
1.31845e-06
1.31175e-06
1.50642e-06
1.50955e-06
1.30799e-06
1.31311e-06
1.31004e-06
1.50919e-06
1.52026e-06
1.51343e-06
1.31846e-06
1.32068e-06
1.3127e-06
1.31416e-06
1.52252e-06
1.51448e-06
1.31502e-06
1.31446e-06
1.31311e-06
1.31654e-06
1.3121e-06
1.31397e-06
1.31249e-06
1.51283e-06
1.51586e-06
1.31044e-06
1.31685e-06
1.3129e-06
1.50958e-06
1.51423e-06
1.50665e-06
1.31101e-06
1.31253e-06
1.30941e-06
1.3114e-06
1.51518e-06
1.50912e-06
1.31201e-06
1.31628e-06
1.31125e-06
1.31594e-06
1.31355e-06
1.31248e-06
1.31752e-06
1.51735e-06
1.5152e-06
1.31403e-06
1.31616e-06
1.31751e-06
1.51384e-06
1.5089e-06
1.51657e-06
1.31127e-06
1.31301e-06
1.31839e-06
1.3182e-06
1.51168e-06
1.51802e-06
1.31279e-06
1.31679e-06
1.3187e-06
1.32003e-06
1.31905e-06
1.3188e-06
1.3245e-06
1.51722e-06
1.52062e-06
1.31908e-06
1.32e-06
1.32451e-06
1.5276e-06
1.52097e-06
1.52742e-06
1.32068e-06
1.32001e-06
1.32497e-06
1.32334e-06
1.52141e-06
1.52469e-06
1.32065e-06
1.32125e-06
1.32435e-06
1.32317e-06
1.32554e-06
1.3234e-06
1.32687e-06
1.52351e-06
1.5251e-06
1.32595e-06
1.32428e-06
1.32828e-06
1.53127e-06
1.52953e-06
1.5293e-06
1.32519e-06
1.32362e-06
1.32507e-06
1.32444e-06
1.52666e-06
1.52777e-06
1.32446e-06
1.32329e-06
1.32429e-06
1.32363e-06
1.32709e-06
1.32455e-06
1.32727e-06
1.52677e-06
1.52661e-06
1.32864e-06
1.32524e-06
1.3289e-06
1.5322e-06
1.53092e-06
1.52704e-06
1.32487e-06
1.3247e-06
1.32289e-06
1.32478e-06
1.52998e-06
1.52917e-06
1.32425e-06
1.32386e-06
1.3225e-06
1.3234e-06
1.32669e-06
1.3241e-06
1.31715e-06
1.52872e-06
1.5268e-06
1.32767e-06
1.32134e-06
1.31555e-06
1.52114e-06
1.5282e-06
1.52019e-06
1.32163e-06
1.32445e-06
1.3168e-06
1.32012e-06
1.53047e-06
1.52481e-06
1.32108e-06
1.32182e-06
1.3159e-06
1.3162e-06
1.31324e-06
1.31838e-06
1.30374e-06
1.52797e-06
1.51901e-06
1.31095e-06
1.31275e-06
1.29974e-06
1.50104e-06
1.52126e-06
1.51665e-06
1.31537e-06
1.31822e-06
1.31297e-06
1.31332e-06
1.52595e-06
1.51891e-06
1.31447e-06
1.31475e-06
1.31246e-06
1.31332e-06
1.30279e-06
1.31321e-06
1.31225e-06
1.51999e-06
1.51725e-06
1.29866e-06
1.31222e-06
1.31034e-06
1.5081e-06
1.51864e-06
1.52434e-06
1.31322e-06
1.31235e-06
1.31848e-06
1.31452e-06
1.52007e-06
1.52032e-06
1.31316e-06
1.3147e-06
1.31936e-06
1.32182e-06
1.3176e-06
1.31667e-06
1.3324e-06
1.51999e-06
1.5294e-06
1.31694e-06
1.32523e-06
1.33537e-06
1.54206e-06
1.52874e-06
1.53865e-06
1.32057e-06
1.31686e-06
1.32567e-06
1.32331e-06
1.52382e-06
1.53384e-06
1.3216e-06
1.32434e-06
1.32636e-06
1.32895e-06
1.33657e-06
1.32479e-06
1.33631e-06
1.53463e-06
1.54412e-06
1.34056e-06
1.33288e-06
1.34074e-06
1.55825e-06
1.54074e-06
1.53051e-06
1.32565e-06
1.32443e-06
1.31746e-06
1.31875e-06
1.53702e-06
1.53071e-06
1.32593e-06
1.32787e-06
1.31618e-06
1.31426e-06
1.32931e-06
1.31635e-06
1.30758e-06
1.54554e-06
1.52885e-06
1.33244e-06
1.31252e-06
1.30659e-06
1.5248e-06
1.53097e-06
1.51277e-06
1.31405e-06
1.31489e-06
1.30331e-06
1.30281e-06
1.5313e-06
1.51313e-06
1.3125e-06
1.30938e-06
1.30153e-06
1.29601e-06
1.30097e-06
1.29983e-06
1.28886e-06
1.52859e-06
1.50325e-06
1.29875e-06
1.29176e-06
1.28441e-06
1.49055e-06
1.5135e-06
1.51026e-06
1.30074e-06
1.29946e-06
1.29779e-06
1.29541e-06
1.51368e-06
1.50813e-06
1.29929e-06
1.29396e-06
1.29754e-06
1.29489e-06
1.28906e-06
1.29555e-06
1.29749e-06
1.5039e-06
1.50387e-06
1.28472e-06
1.29413e-06
1.29592e-06
1.50166e-06
1.5128e-06
1.51493e-06
1.29778e-06
1.2955e-06
1.29799e-06
1.29797e-06
1.51053e-06
1.51441e-06
1.29777e-06
1.29667e-06
1.29867e-06
1.30181e-06
1.30055e-06
1.30017e-06
1.30748e-06
1.50763e-06
1.51758e-06
1.29994e-06
1.30459e-06
1.30989e-06
1.52591e-06
1.51664e-06
1.51519e-06
1.29798e-06
1.29959e-06
1.29971e-06
1.30198e-06
1.51704e-06
1.51857e-06
1.29863e-06
1.30305e-06
1.29939e-06
1.30318e-06
1.30789e-06
1.30242e-06
1.30437e-06
1.52085e-06
1.52296e-06
1.31085e-06
1.30651e-06
1.30627e-06
1.52674e-06
1.51749e-06
1.52092e-06
1.30062e-06
1.30255e-06
1.30104e-06
1.30192e-06
1.52125e-06
1.52347e-06
1.29999e-06
1.30289e-06
1.29977e-06
1.29622e-06
1.30311e-06
1.30052e-06
1.29566e-06
1.52501e-06
1.52054e-06
1.30408e-06
1.2952e-06
1.29442e-06
1.51993e-06
1.52287e-06
1.50885e-06
1.29947e-06
1.2987e-06
1.28312e-06
1.28268e-06
1.52467e-06
1.50825e-06
1.29786e-06
1.29344e-06
1.28287e-06
1.28199e-06
1.29397e-06
1.28289e-06
1.28351e-06
1.52166e-06
1.50509e-06
1.29223e-06
1.2807e-06
1.28085e-06
1.50447e-06
1.50896e-06
1.48422e-06
1.27793e-06
1.27791e-06
1.26269e-06
1.26358e-06
1.5083e-06
1.48433e-06
1.27826e-06
1.27885e-06
1.26446e-06
1.26969e-06
1.28012e-06
1.26448e-06
1.26688e-06
1.50515e-06
1.48948e-06
1.27804e-06
1.26936e-06
1.2673e-06
1.48789e-06
1.48485e-06
1.48255e-06
1.26079e-06
1.262e-06
1.26269e-06
1.26285e-06
1.48508e-06
1.48213e-06
1.26288e-06
1.26902e-06
1.26379e-06
1.26657e-06
1.26451e-06
1.2618e-06
1.25764e-06
1.49077e-06
1.48916e-06
1.26551e-06
1.26545e-06
1.25883e-06
1.48006e-06
1.48544e-06
1.47687e-06
1.26534e-06
1.26433e-06
1.25116e-06
1.24864e-06
1.4845e-06
1.47341e-06
1.26513e-06
1.26612e-06
1.24879e-06
1.24154e-06
1.25751e-06
1.2459e-06
1.24006e-06
1.49062e-06
1.468e-06
1.25865e-06
1.24075e-06
1.23954e-06
1.46315e-06
1.45885e-06
1.21527e-06
1.21262e-06
1.45522e-06
1.21243e-06
1.20376e-06
7.68441e-07
7.61594e-07
7.63188e-07
1.2059e-06
1.44732e-06
1.205e-06
2.45426e-11
1.98662e-09
1.58358e-10
1.92679e-10
5.5257e-09
2.56478e-09
8.32345e-09
1.52048e-09
5.50857e-09
3.59381e-09
9.82295e-10
2.29071e-09
5.39193e-09
2.66827e-09
6.37497e-09
7.45206e-09
1.88163e-07
5.96015e-09
2.77384e-07
1.51568e-06
3.05655e-06
8.77973e-09
1.85134e-07
7.41617e-09
2.61971e-07
1.52268e-09
1.28818e-09
1.58812e-09
1.31697e-09
1.52196e-09
1.26203e-09
1.56786e-09
4.84698e-09
9.03371e-08
3.59962e-09
3.69633e-09
5.11465e-09
6.70362e-08
3.54069e-09
1.45784e-06
2.91993e-06
4.77933e-09
2.68174e-09
7.67969e-08
3.3054e-09
5.0354e-09
2.6567e-09
5.34144e-08
2.11096e-07
2.18246e-07
4.98658e-09
1.80363e-07
1.85955e-07
1.66792e-08
4.60648e-07
1.20021e-08
6.53304e-07
6.96564e-06
9.926e-06
1.80066e-08
4.75345e-07
1.33394e-08
6.81494e-07
1.50876e-09
1.24437e-09
1.54777e-09
1.25917e-09