/*--------------------------------*- C++ -*----------------------------------*\
| =========                 |                                                 |
| \\      /  F ield         | OpenFOAM: The Open Source CFD Toolbox           |
|  \\    /   O peration     | Version:  v2012                                 |
|   \\  /    A nd           | Website:  www.openfoam.com                      |
|    \\/     M anipulation  |                                                 |
\*---------------------------------------------------------------------------*/
FoamFile
{
    version     2.0;
    format      ascii;
    class       volScalarField;
    location    "1950";
    object      p;
}
// * * * * * * * * * * * * * * * * * * * * * * * * * * * * * * * * * * * * * //

dimensions      [0 2 -2 0 0 0 0];


internalField   nonuniform List<scalar> 
171728
(
0.00351934
0.00351832
0.0035183
0.00351905
0.00348383
0.00348238
0.00348243
0.00348528
0.00344543
0.0034436
0.0034435
0.00344588
0.0034014
0.00339972
0.00339971
0.00340193
0.00335337
0.00335194
0.00335192
0.00335423
0.00330455
0.00330326
0.00330323
0.00330558
0.00325629
0.00325513
0.00325507
0.00325747
0.00320895
0.00320791
0.00320789
0.00321028
0.00316263
0.00316171
0.00316169
0.00316409
0.00311727
0.00311647
0.00311648
0.00311884
0.00307283
0.00307216
0.00307212
0.00307449
0.00302914
0.0030286
0.00302858
0.00303092
0.00298604
0.0029856
0.00298561
0.00298795
0.00294335
0.00294302
0.00294293
0.00294541
0.00290095
0.00290085
0.00290068
0.00290306
0.00285892
0.00285886
0.00285881
0.00286095
0.00281722
0.00281711
0.00281717
0.00281933
0.00277584
0.00277595
0.00277576
0.00277822
0.00273484
0.00273503
0.00273489
0.00273683
0.0026942
0.00269408
0.00269419
0.00269617
0.00265386
0.00265403
0.00265387
0.00265572
0.00261384
0.00261387
0.002614
0.00261567
0.0025741
0.00257419
0.00257434
0.00257587
0.00253468
0.00253507
0.00253498
0.00253663
0.0024954
0.00249576
0.00249575
0.00249732
0.00245654
0.00245705
0.00245689
0.00245861
0.00241769
0.00241802
0.00241819
0.00241983
0.00237914
0.00237987
0.00237964
0.00238177
0.00234087
0.0023408
0.00234146
0.00234294
0.00230287
0.00230375
0.00230336
0.00230544
0.00226502
0.00226639
0.00226569
0.00226779
0.00222724
0.00222685
0.00222771
0.00222937
0.00218913
0.00218962
0.00219011
0.00219187
0.00215193
0.00215333
0.00215257
0.00215456
0.00211479
0.00211531
0.00211533
0.00211726
0.00207716
0.00207744
0.00207786
0.00207959
0.00203988
0.0020405
0.00204045
0.00204229
0.00200298
0.00200374
0.00200354
0.0020056
0.00196645
0.00196663
0.00196676
0.00196849
0.00192913
0.00192962
0.00192955
0.00193183
0.00189297
0.00189327
0.00189335
0.00189502
0.00185648
0.00185666
0.00185656
0.00185866
0.0018197
0.00181992
0.00182002
0.00182236
0.001784
0.00178409
0.00178402
0.00178572
0.00174781
0.00174795
0.00174775
0.00174998
0.00171138
0.00171089
0.00171141
0.00171361
0.00167576
0.00167639
0.001676
0.00167781
0.00164086
0.00164029
0.00164016
0.00164249
0.00160459
0.0016041
0.00160449
0.00160643
0.00156881
0.00156914
0.00156896
0.00157112
0.00153375
0.00153348
0.00153336
0.00153537
0.00149816
0.00149805
0.00149804
0.00150022
0.00146333
0.00146262
0.0014629
0.00146472
0.00142818
0.00142769
0.0014278
0.00142996
0.00139298
0.00139342
0.00139293
0.00139464
0.0013574
0.00135682
0.00135686
0.00135897
0.0013224
0.00132216
0.00132249
0.00132458
0.00128825
0.00128804
0.00128841
0.00129013
0.00125404
0.00125367
0.00125305
0.00125511
0.00121925
0.00121876
0.00121869
0.00122027
0.00118402
0.00118401
0.00118427
0.00118616
0.00114903
0.00114892
0.00114911
0.00115149
0.00111433
0.00111418
0.00111384
0.00111591
0.00108003
0.00107991
0.00108001
0.00108142
0.00104636
0.00104537
0.00104545
0.00104721
0.00101086
0.00101116
0.00101079
0.00101309
0.000975659
0.000976192
0.000976541
0.000978505
0.000942145
0.000941308
0.000941734
0.000943409
0.000908867
0.00090785
0.000907271
0.00090914
0.000872853
0.000873465
0.000873231
0.000875272
0.000837659
0.000838011
0.000838571
0.000840418
0.000804134
0.000803768
0.000803845
0.000805772
0.000770019
0.000769404
0.000769412
0.000771294
0.000735149
0.000735303
0.000734796
0.000736866
0.000700512
0.00070023
0.000700338
0.000702117
0.000665266
0.000665182
0.000665633
0.000667529
0.000631084
0.000631324
0.000631229
0.00063344
0.000596999
0.000596776
0.000596608
0.00059846
0.000561933
0.000561658
0.00056165
0.000563494
0.000527087
0.000527058
0.00052717
0.000529142
0.000492211
0.000492087
0.000492011
0.000493924
0.000456788
0.00045681
0.000456652
0.000458685
0.000421531
0.000421673
0.000421878
0.000424054
0.000387441
0.000387436
0.000387701
0.000389716
0.000353297
0.000352884
0.000352652
0.000354323
0.00031728
0.000317029
0.000316643
0.000318364
0.000281026
0.000281286
0.000281484
0.000283778
0.000246203
0.000246394
0.000246661
0.000248893
0.000210914
0.000210906
0.000210929
0.000212746
0.000176109
0.000175864
0.000175717
0.000177547
0.000141385
0.000140962
0.000140741
0.000142733
0.000104568
0.000104573
0.000104645
0.0001068
6.80225e-05
6.84129e-05
6.87243e-05
7.06821e-05
3.35431e-05
3.29407e-05
3.2762e-05
3.4497e-05
5.8771e-06
6.77243e-06
6.39943e-06
4.69884e-06
0.00352353
0.00352112
0.00352136
0.00352379
0.00352116
0.00352131
0.00352777
0.00352772
0.00352778
0.00352772
0.00352136
0.00352137
0.00352382
0.00352132
0.00352143
0.00352382
0.00351865
0.00349004
0.0035182
0.00351834
0.00349187
0.00349182
0.00351905
0.00349003
0.00351815
0.00351835
0.00349181
0.00349179
0.00351829
0.00349188
0.00349189
0.003519
0.00349009
0.00351837
0.00349203
0.00349189
0.00349003
0.00348525
0.00345138
0.00348248
0.0034824
0.00345362
0.00345369
0.00348526
0.00345144
0.0034824
0.00348244
0.00345368
0.00345364
0.00348239
0.00345377
0.00345369
0.00348529
0.00345137
0.00348251
0.00345373
0.00345367
0.00345139
0.00344585
0.00340811
0.00344357
0.00344357
0.00341114
0.00341124
0.00344589
0.00340811
0.00344354
0.00344354
0.00341118
0.00341116
0.00344359
0.00341125
0.00341119
0.00344584
0.00340812
0.00344365
0.00341116
0.00341108
0.0034081
0.00340193
0.00336067
0.00339972
0.00339968
0.00336402
0.00336405
0.00340193
0.00336068
0.00339968
0.00339969
0.00336405
0.00336406
0.00339972
0.00336402
0.00336407
0.00340194
0.00336065
0.00339973
0.003364
0.00336399
0.00336068
0.0033542
0.00331202
0.00335189
0.00335188
0.0033154
0.00331536
0.00335422
0.00331203
0.00335188
0.00335187
0.00331539
0.00331538
0.00335192
0.00331534
0.00331537
0.00335419
0.00331202
0.00335191
0.00331536
0.00331539
0.00331201
0.00330556
0.00326377
0.00330321
0.00330324
0.00326704
0.00326703
0.00330558
0.0032638
0.00330323
0.00330322
0.00326703
0.00326702
0.00330326
0.00326705
0.00326706
0.00330557
0.00326377
0.0033032
0.00326705
0.00326701
0.00326379
0.00325744
0.00321643
0.00325512
0.00325511
0.00321958
0.00321962
0.00325746
0.00321643
0.0032551
0.0032551
0.00321959
0.00321957
0.00325511
0.00321961
0.00321963
0.00325744
0.00321644
0.00325511
0.00321959
0.00321961
0.00321647
0.00321024
0.00317011
0.0032079
0.0032079
0.00317316
0.00317315
0.00321024
0.00317011
0.00320789
0.00320789
0.00317317
0.00317317
0.00320792
0.00317315
0.00317318
0.00321026
0.00317012
0.00320791
0.00317317
0.00317317
0.00317013
0.00316405
0.00312474
0.0031617
0.00316171
0.00312769
0.00312769
0.00316406
0.00312475
0.00316169
0.00316169
0.0031277
0.00312768
0.00316172
0.00312768
0.0031277
0.00316406
0.00312474
0.00316172
0.00312767
0.00312769
0.00312474
0.00311882
0.00308029
0.00311647
0.00311648
0.00308314
0.00308315
0.00311884
0.00308028
0.00311646
0.00311647
0.00308314
0.00308317
0.00311649
0.00308315
0.00308318
0.00311883
0.00308026
0.00311649
0.00308316
0.00308316
0.00308029
0.0030745
0.00303658
0.00307218
0.00307216
0.00303946
0.0030394
0.00307451
0.00303662
0.00307217
0.00307213
0.00303944
0.00303937
0.00307217
0.00303938
0.0030394
0.00307448
0.0030366
0.00307216
0.00303937
0.00303941
0.00303661
0.00303087
0.00299347
0.00302853
0.0030286
0.00299628
0.00299637
0.00303094
0.00299354
0.00302853
0.00302859
0.00299628
0.00299633
0.00302854
0.00299638
0.00299626
0.00303091
0.00299347
0.00302854
0.00299631
0.00299624
0.00299353
0.00298789
0.00295082
0.00298555
0.00298558
0.00295357
0.00295363
0.00298791
0.00295087
0.00298553
0.0029856
0.00295356
0.00295377
0.00298566
0.00295365
0.00295366
0.00298786
0.00295084
0.00298563
0.00295376
0.00295364
0.00295092
0.00294528
0.00290841
0.00294288
0.00294301
0.00291117
0.00291128
0.00294527
0.00290861
0.0029429
0.00294295
0.00291118
0.00291127
0.0029431
0.00291132
0.00291135
0.00294527
0.00290854
0.0029431
0.00291127
0.00291132
0.00290855
0.00290292
0.00286641
0.00290058
0.00290085
0.0028691
0.00286908
0.0029031
0.00286652
0.00290057
0.00290069
0.00286908
0.00286906
0.00290077
0.00286911
0.00286933
0.00290304
0.0028665
0.00290078
0.00286904
0.00286931
0.00286643
0.00286099
0.00282469
0.0028587
0.00285878
0.00282745
0.00282725
0.00286117
0.00282453
0.00285871
0.00285883
0.00282744
0.00282733
0.00285879
0.00282726
0.0028275
0.00286112
0.0028247
0.00285877
0.00282733
0.00282754
0.00282473
0.00281933
0.0027832
0.00281707
0.00281702
0.00278609
0.00278602
0.00281924
0.00278317
0.00281712
0.00281718
0.0027861
0.00278588
0.00281723
0.00278611
0.00278593
0.00281939
0.00278315
0.00281718
0.00278591
0.00278592
0.00278348
0.00277792
0.00274209
0.00277573
0.00277581
0.00274512
0.00274488
0.00277791
0.00274218
0.00277571
0.0027758
0.00274513
0.00274504
0.00277595
0.00274491
0.00274489
0.00277788
0.00274205
0.0027759
0.00274501
0.00274494
0.00274208
0.00273689
0.00270134
0.00273492
0.00273489
0.00270439
0.00270406
0.002737
0.00270152
0.00273488
0.00273493
0.00270438
0.0027042
0.00273455
0.00270413
0.0027046
0.00273684
0.00270139
0.00273459
0.00270418
0.00270461
0.00270132
0.0026962
0.00266095
0.00269436
0.0026939
0.00266404
0.00266429
0.00269615
0.00266092
0.00269433
0.0026942
0.00266397
0.00266403
0.00269426
0.00266426
0.00266398
0.00269618
0.00266088
0.0026943
0.00266405
0.0026639
0.00266094
0.00265573
0.00262073
0.00265389
0.00265394
0.00262404
0.00262406
0.00265585
0.00262082
0.00265384
0.00265384
0.00262397
0.00262399
0.00265391
0.00262394
0.00262396
0.00265572
0.0026207
0.0026539
0.00262401
0.00262391
0.00262078
0.00261568
0.00258094
0.00261409
0.00261414
0.002584
0.00258404
0.00261573
0.00258076
0.002614
0.00261402
0.00258404
0.00258409
0.00261393
0.00258418
0.00258419
0.00261567
0.00258095
0.00261402
0.00258413
0.0025841
0.00258092
0.00257585
0.00254172
0.00257422
0.00257427
0.0025449
0.00254484
0.00257576
0.00254179
0.00257418
0.00257437
0.00254484
0.00254482
0.00257428
0.0025449
0.00254483
0.00257589
0.00254167
0.00257435
0.00254483
0.00254474
0.00254164
0.00253681
0.00250218
0.00253509
0.00253505
0.00250544
0.00250554
0.0025368
0.0025021
0.00253504
0.00253501
0.00250537
0.00250546
0.00253498
0.00250547
0.0025055
0.00253667
0.00250217
0.00253499
0.00250549
0.00250541
0.00250229
0.00249715
0.00246354
0.00249574
0.0024958
0.00246654
0.00246663
0.00249711
0.00246374
0.00249561
0.00249576
0.00246661
0.0024666
0.00249577
0.00246679
0.00246661
0.00249725
0.00246369
0.00249569
0.00246663
0.00246655
0.00246354
0.0024586
0.00242489
0.00245687
0.00245691
0.00242784
0.0024278
0.00245885
0.00242505
0.00245687
0.0024569
0.00242786
0.00242784
0.00245687
0.00242773
0.00242768
0.00245867
0.00242466
0.00245681
0.00242785
0.00242777
0.00242479
0.00241989
0.00238632
0.00241812
0.00241806
0.00238925
0.0023893
0.00241995
0.00238613
0.00241817
0.00241819
0.00238924
0.00238925
0.00241804
0.00238926
0.00238931
0.00241983
0.0023865
0.00241809
0.00238926
0.00238931
0.00238665
0.00238141
0.00234807
0.00237956
0.00237977
0.00235092
0.00235076
0.00238135
0.00234798
0.00237959
0.00237962
0.00235089
0.00235104
0.00237967
0.00235056
0.00235065
0.00238148
0.00234821
0.00237955
0.00235101
0.00235072
0.00234796
0.00234325
0.00231037
0.00234147
0.00234112
0.00231298
0.00231277
0.00234293
0.00230964
0.00234143
0.00234146
0.00231307
0.00231279
0.00234104
0.00231272
0.00231298
0.00234335
0.00231014
0.0023413
0.00231282
0.00231327
0.00231017
0.00230538
0.00227228
0.00230335
0.00230357
0.00227493
0.00227565
0.00230487
0.0022741
0.00230345
0.00230332
0.00227479
0.00227521
0.00230364
0.00227612
0.00227535
0.00230518
0.00227236
0.00230374
0.00227519
0.00227481
0.00227279
0.00226735
0.00223483
0.00226555
0.00226597
0.0022377
0.00223686
0.00226915
0.00223409
0.00226535
0.00226572
0.00223751
0.0022372
0.00226587
0.00223663
0.00223735
0.0022675
0.00223465
0.00226528
0.00223715
0.00223711
0.00223426
0.00222993
0.00219672
0.00222822
0.00222738
0.00219921
0.00219936
0.00222898
0.00219582
0.00222807
0.00222777
0.00219944
0.00219949
0.0022278
0.00219861
0.0021989
0.00222974
0.00219679
0.0022278
0.00219952
0.00219969
0.00219677
0.00219171
0.00215901
0.00218954
0.00219001
0.00216162
0.0021619
0.0021912
0.00216001
0.00218986
0.00219004
0.00216173
0.00216181
0.00218952
0.00216247
0.00216198
0.00219189
0.00215926
0.00219018
0.0021619
0.00216177
0.00215937
0.00215423
0.00212229
0.00215255
0.0021527
0.00212504
0.00212496
0.0021552
0.00212217
0.00215254
0.0021525
0.00212479
0.00212468
0.00215291
0.0021249
0.00212507
0.00215437
0.00212197
0.00215247
0.00212468
0.00212476
0.00212219
0.00211741
0.00208469
0.00211565
0.00211554
0.00208723
0.00208699
0.00211719
0.00208435
0.00211543
0.00211537
0.00208728
0.00208719
0.00211557
0.00208682
0.00208706
0.00211711
0.00208475
0.00211544
0.00208717
0.00208719
0.00208456
0.0020797
0.002047
0.00207778
0.00207756
0.00204957
0.00204966
0.00207944
0.00204727
0.00207788
0.00207785
0.00204964
0.00204979
0.00207763
0.00204968
0.0020496
0.00207985
0.00204715
0.00207776
0.00204983
0.00204969
0.00204709
0.00204218
0.0020105
0.00204029
0.00204047
0.00201281
0.00201294
0.00204245
0.00201049
0.00204032
0.00204044
0.00201279
0.00201272
0.00204034
0.00201297
0.00201288
0.00204222
0.00201032
0.00204041
0.00201265
0.00201288
0.00201049
0.00200571
0.00197341
0.00200372
0.00200372
0.00197607
0.00197596
0.0020056
0.00197334
0.00200372
0.00200363
0.00197608
0.00197596
0.00200371
0.00197594
0.0019759
0.00200554
0.00197352
0.00200368
0.00197608
0.00197588
0.00197334
0.00196847
0.00193638
0.00196671
0.00196665
0.0019387
0.00193873
0.00196845
0.0019365
0.00196668
0.00196661
0.00193864
0.00193875
0.00196658
0.00193879
0.00193889
0.00196857
0.00193637
0.00196658
0.00193873
0.00193894
0.00193667
0.00193158
0.00190026
0.00192955
0.00192954
0.00190244
0.00190237
0.00193167
0.00190012
0.00192951
0.00192959
0.00190252
0.00190247
0.00192978
0.00190232
0.00190236
0.00193155
0.00190024
0.00192981
0.00190243
0.00190231
0.00189987
0.00189542
0.00186335
0.00189336
0.00189335
0.00186579
0.00186592
0.00189532
0.00186351
0.00189346
0.0018934
0.00186575
0.00186576
0.00189314
0.00186587
0.00186562
0.00189542
0.0018634
0.00189311
0.00186574
0.00186564
0.00186345
0.00185846
0.00182695
0.00185654
0.00185668
0.00182902
0.00182894
0.00185862
0.00182676
0.00185648
0.00185653
0.00182904
0.00182905
0.00185654
0.00182906
0.00182942
0.00185855
0.00182687
0.00185656
0.00182917
0.00182943
0.00182722
0.00182217
0.00179087
0.00182007
0.00181979
0.00179317
0.00179302
0.00182194
0.00179095
0.00182005
0.00181995
0.00179318
0.00179302
0.00182036
0.00179292
0.00179283
0.00182205
0.00179088
0.00182032
0.00179294
0.00179284
0.00179053
0.00178602
0.00175443
0.00178403
0.00178424
0.00175659
0.00175727
0.00178624
0.00175475
0.00178408
0.0017841
0.00175659
0.00175693
0.00178367
0.00175725
0.00175677
0.00178611
0.00175462
0.00178374
0.00175694
0.00175676
0.00175472
0.00174964
0.00171854
0.00174754
0.00174789
0.00172066
0.00171976
0.00174974
0.00171787
0.00174753
0.00174773
0.00172067
0.00172031
0.00174787
0.00171994
0.00172082
0.00174975
0.00171831
0.00174785
0.00172034
0.00172075
0.00171851
0.00171374
0.00168273
0.00171169
0.00171077
0.00168478
0.00168506
0.00171314
0.00168303
0.00171171
0.00171139
0.00168472
0.00168494
0.00171165
0.001685
0.00168437
0.00171356
0.00168286
0.00171161
0.00168488
0.00168449
0.00168249
0.00167801
0.0016471
0.00167588
0.00167655
0.00164926
0.00164969
0.00167837
0.00164722
0.00167583
0.00167606
0.00164916
0.00164909
0.00167556
0.00164959
0.00164949
0.0016781
0.0016469
0.00167567
0.00164915
0.00164936
0.00164727
0.00164232
0.00161117
0.00164031
0.00164029
0.00161322
0.00161274
0.00164224
0.0016109
0.00164025
0.00164008
0.00161334
0.00161342
0.00164063
0.00161285
0.00161328
0.00164217
0.00161138
0.00164044
0.0016134
0.00161327
0.0016112
0.00160636
0.0015758
0.00160421
0.00160402
0.0015777
0.00157795
0.00160625
0.00157596
0.00160437
0.00160453
0.00157782
0.0015778
0.00160425
0.00157798
0.00157778
0.00160659
0.0015758
0.00160436
0.00157779
0.00157796
0.00157586
0.00157112
0.00154031
0.00156898
0.00156912
0.00154258
0.00154242
0.00157118
0.00154029
0.00156907
0.00156895
0.00154233
0.00154235
0.00156899
0.00154235
0.00154227
0.00157107
0.00154017
0.00156911
0.00154238
0.00154212
0.00154011
0.00153544
0.00150467
0.00153354
0.00153358
0.00150665
0.00150695
0.00153555
0.00150486
0.00153318
0.00153335
0.00150665
0.00150677
0.00153335
0.00150692
0.00150702
0.00153538
0.00150479
0.00153317
0.00150677
0.00150697
0.00150496
0.00150003
0.00147005
0.00149795
0.001498
0.00147205
0.00147144
0.00150009
0.00146949
0.00149805
0.00149802
0.00147214
0.00147178
0.00149826
0.00147148
0.00147142
0.0015001
0.00146972
0.00149827
0.00147176
0.00147153
0.00146942
0.00146528
0.00143422
0.00146326
0.00146265
0.00143633
0.00143637
0.00146474
0.00143436
0.00146331
0.001463
0.00143635
0.00143657
0.00146249
0.00143626
0.00143672
0.00146496
0.00143447
0.00146261
0.00143645
0.00143669
0.00143464
0.00142949
0.00139936
0.00142742
0.0014277
0.00140134
0.0014019
0.00142972
0.00139987
0.00142745
0.0014278
0.0014013
0.00140153
0.0014282
0.00140217
0.0014017
0.00142979
0.00139955
0.00142814
0.00140183
0.00140163
0.00139947
0.00139467
0.00136413
0.00139269
0.00139319
0.00136636
0.00136608
0.00139513
0.00136388
0.00139262
0.00139271
0.0013662
0.00136593
0.0013925
0.00136593
0.0013656
0.00139477
0.00136384
0.00139241
0.00136583
0.00136557
0.00136366
0.00135931
0.00132902
0.00135742
0.00135706
0.00133095
0.0013308
0.00135908
0.00132888
0.00135731
0.00135704
0.00133096
0.00133105
0.00135694
0.00133068
0.00133137
0.00135904
0.00132906
0.00135693
0.00133093
0.00133142
0.00132924
0.0013244
0.00129476
0.00132227
0.0013222
0.00129665
0.00129645
0.00132423
0.0012945
0.00132242
0.00132256
0.00129695
0.00129701
0.00132271
0.00129662
0.0012968
0.00132448
0.00129501
0.00132288
0.00129706
0.00129694
0.00129477
0.00129011
0.00125992
0.0012881
0.00128788
0.00126218
0.00126233
0.00128987
0.00126022
0.00128833
0.00128835
0.00126195
0.00126183
0.00128804
0.00126231
0.00126194
0.00129031
0.00125969
0.00128819
0.00126182
0.00126174
0.00125986
0.00125521
0.00122523
0.00125349
0.00125377
0.00122743
0.00122761
0.00125555
0.00122538
0.00125317
0.00125308
0.00122723
0.00122728
0.00125326
0.00122748
0.00122724
0.00125494
0.00122514
0.00125304
0.00122723
0.00122713
0.00122497
0.00122057
0.00119071
0.00121875
0.00121888
0.00119268
0.00119269
0.00122066
0.00119063
0.00121868
0.00121874
0.00119284
0.00119295
0.00121857
0.00119269
0.00119268
0.00122052
0.00119094
0.00121855
0.00119294
0.00119282
0.0011908
0.00118601
0.00115587
0.00118396
0.00118394
0.00115778
0.00115753
0.00118592
0.00115566
0.00118415
0.00118425
0.00115798
0.00115783
0.0011841
0.00115769
0.00115814
0.00118626
0.00115589
0.00118426
0.00115797
0.00115824
0.00115623
0.00115112
0.00112058
0.00114905
0.00114874
0.00112276
0.00112274
0.00115092
0.00112074
0.00114916
0.00114899
0.00112265
0.0011225
0.00114939
0.00112278
0.00112291
0.0011511
0.00112045
0.00114945
0.00112252
0.00112279
0.00112068
0.00111586
0.00108643
0.00111399
0.00111422
0.00108843
0.00108869
0.00111607
0.00108649
0.00111385
0.00111385
0.00108834
0.00108853
0.00111405
0.0010885
0.00108806
0.00111573
0.00108642
0.0011139
0.00108841
0.00108801
0.00108604
0.00108189
0.0010523
0.00108005
0.00108012
0.00105445
0.00105416
0.00108185
0.00105201
0.00108001
0.00108015
0.00105451
0.00105432
0.0010795
0.00105401
0.00105383
0.00108189
0.00105214
0.00107953
0.00105418
0.00105397
0.00105187
0.00104752
0.0010172
0.00104569
0.00104546
0.00101929
0.00101948
0.00104732
0.00101755
0.00104572
0.00104549
0.00101929
0.00101925
0.00104529
0.00101971
0.00101979
0.0010474
0.0010173
0.00104538
0.0010194
0.00101969
0.00101772
0.00101247
0.000982525
0.00101055
0.00101085
0.000984384
0.000984759
0.00101288
0.00098283
0.00101057
0.00101061
0.000984506
0.00098492
0.00101129
0.000985029
0.000985384
0.00101261
0.000983033
0.00101116
0.000985109
0.000985405
0.000983271
0.000977894
0.000948778
0.000975807
0.000976051
0.000950699
0.000950196
0.00097808
0.000948154
0.00097593
0.000976392
0.000950655
0.000950679
0.000976539
0.000949906
0.000950138
0.000978385
0.00094856
0.000976658
0.000950536
0.000950303
0.000948151
0.000944203
0.000914593
0.000942338
0.000941746
0.000916967
0.000916553
0.000943537
0.000914387
0.000942233
0.000941986
0.000916728
0.00091598
0.000941439
0.000916148
0.000915724
0.000943811
0.00091383
0.000941534
0.000915748
0.000915609
0.000913726
0.000909803
0.000879171
0.000908135
0.000908073
0.000881281
0.000881834
0.000909799
0.00087983
0.000907931
0.000907342
0.000881341
0.000881493
0.000907308
0.000882345
0.000881989
0.000909178
0.00087962
0.000907135
0.000881764
0.000881824
0.000879949
0.000874381
0.000844441
0.000872375
0.000872891
0.000846128
0.000846503
0.000874985
0.000844547
0.000872553
0.000872937
0.000846466
0.000847127
0.000873359
0.000846761
0.000847142
0.000874949
0.000845208
0.000873283
0.000847289
0.000847339
0.000845163
0.000839855
0.000810983
0.000837674
0.000837892
0.000812816
0.000812561
0.000839845
0.000810626
0.00083797
0.000838518
0.00081283
0.000812729
0.000838447
0.000812302
0.000812514
0.000840505
0.000810628
0.000838669
0.000812471
0.000812561
0.000810475
0.000806377
0.00077657
0.000804446
0.000804091
0.000778769
0.000778288
0.000806003
0.000776291
0.000804352
0.000804142
0.00077851
0.000778184
0.000803875
0.000778011
0.00077797
0.000805951
0.000776095
0.000803823
0.000778014
0.000777844
0.000775968
0.000771768
0.00074134
0.000769989
0.000769606
0.000743548
0.000743725
0.000771572
0.000741692
0.000769707
0.000769441
0.000743372
0.000743184
0.00076937
0.000743823
0.000743568
0.000771372
0.000741312
0.000769267
0.000743436
0.0007435
0.000741585
0.000736618
0.000706763
0.000734837
0.000735161
0.000708754
0.000708911
0.000737
0.000706786
0.000734724
0.000734525
0.000708962
0.000708862
0.000734922
0.000709118
0.000708823
0.000736593
0.000706924
0.000734846
0.000708962
0.000708905
0.000706838
0.000702032
0.000672023
0.000700025
0.000700059
0.000673836
0.000673771
0.000701977
0.000671828
0.000700303
0.000700307
0.000674099
0.000674359
0.00070013
0.00067383
0.000674155
0.000702241
0.00067235
0.000700264
0.000674294
0.000674305
0.000672214
0.000667283
0.000637873
0.000665166
0.000665156
0.000639744
0.000639833
0.000667151
0.000638013
0.000665368
0.000665684
0.000639626
0.000639826
0.000665575
0.000639784
0.000640091
0.000667635
0.000637876
0.00066569
0.000639802
0.000639988
0.00063809
0.000633269
0.000603724
0.000631354
0.0006314
0.000605766
0.000605643
0.000633387
0.000603587
0.000631185
0.000631283
0.000605639
0.000605462
0.00063156
0.000605524
0.000605371
0.000633203
0.000603397
0.0006314
0.000605346
0.000605219
0.000603258
0.000598946
0.000568288
0.000597036
0.000596897
0.000570384
0.0005704
0.000598793
0.000568291
0.000596953
0.000596715
0.000570446
0.000570279
0.00059651
0.000570386
0.000570153
0.000598623
0.000568281
0.00059645
0.000570348
0.000570255
0.000568205
0.0005635
0.00053361
0.000561572
0.000561616
0.000535578
0.0005356
0.000563512
0.000533652
0.000561627
0.000561542
0.000535627
0.000535673
0.00056151
0.000535713
0.000535834
0.000563525
0.000533746
0.00056162
0.000535799
0.000535899
0.000533866
0.000528913
0.000498909
0.000526965
0.00052696
0.000500918
0.000500908
0.000528954
0.000498888
0.000527013
0.000527092
0.000500937
0.000500972
0.000527233
0.000500896
0.000500835
0.000529057
0.000498874
0.000527256
0.000500871
0.000500785
0.000498766
0.000494115
0.000463653
0.000492147
0.00049214
0.000465676
0.000465678
0.00049408
0.000463667
0.000492145
0.000492129
0.000465628
0.000465521
0.000491957
0.000465626
0.000465362
0.00049404
0.000463519
0.000491893
0.000465474
0.000465319
0.000463443
0.000458824
0.000428419
0.000456832
0.000456831
0.000430329
0.000430322
0.000458856
0.000428441
0.00045678
0.000456681
0.000430342
0.000430405
0.000456613
0.000430401
0.000430616
0.000458716
0.000428583
0.000456585
0.000430495
0.000430638
0.000428748
0.000423674
0.000394023
0.000421617
0.000421571
0.000395906
0.000395881
0.00042368
0.000393982
0.000421666
0.000421765
0.000395951
0.000396105
0.000422042
0.000395945
0.000396466
0.00042387
0.000394209
0.000422093
0.000396222
0.000396563
0.000394462
0.000389396
0.000359479
0.000387427
0.00038741
0.000361661
0.000361807
0.00038934
0.000359553
0.00038746
0.000387625
0.0003616
0.000361643
0.000387849
0.000361721
0.000361389
0.000389556
0.000359348
0.000387925
0.000361517
0.000361378
0.000359171
0.000354705
0.00032408
0.000352899
0.000353015
0.000326225
0.000326162
0.000354734
0.000323987
0.000352842
0.000352796
0.000326179
0.000325904
0.000352455
0.000326059
0.000325475
0.000354519
0.000323685
0.000352411
0.00032571
0.000325354
0.000323285
0.000319135
0.00028819
0.00031719
0.000317139
0.000290071
0.000289993
0.000319075
0.000288182
0.000317136
0.000316836
0.000290098
0.000290049
0.000316449
0.000290079
0.000290291
0.000318739
0.000288322
0.000316296
0.000290126
0.000290272
0.000288521
0.000283357
0.000253117
0.000281216
0.000281141
0.000254976
0.000254975
0.000283381
0.000253152
0.000281272
0.000281335
0.000255064
0.000255245
0.000281658
0.000255132
0.000255531
0.000283569
0.000253429
0.000281698
0.000255427
0.000255648
0.000253669
0.000248367
0.000217693
0.000246264
0.000246264
0.000219732
0.000219835
0.000248379
0.000217743
0.000246346
0.000246508
0.000219724
0.000219913
0.000246754
0.000219821
0.000219818
0.000248648
0.000217749
0.000246869
0.000219938
0.000219862
0.000217652
0.00021284
0.000182569
0.00021085
0.000210969
0.000184601
0.000184639
0.000212875
0.000182552
0.00021082
0.000210967
0.000184542
0.000184502
0.000210797
0.000184517
0.000184327
0.000212841
0.0001824
0.000210812
0.000184388
0.000184267
0.000182272
0.000177875
0.000147942
0.000176025
0.000175991
0.000150082
0.000149914
0.000177829
0.000147768
0.000175968
0.000175841
0.000150035
0.000149729
0.000175669
0.000149825
0.000149656
0.000177678
0.000147617
0.000175608
0.000149607
0.000149565
0.000147571
0.000143031
0.000111547
0.000141141
0.000141004
0.000113637
0.000113674
0.000142908
0.000111608
0.000141112
0.000140836
0.000113674
0.00011363
0.000140828
0.000113757
0.000113805
0.000142766
0.000111584
0.000140738
0.00011367
0.000113796
0.000111753
0.000106507
7.53232e-05
0.000104441
0.000104467
7.71114e-05
7.72353e-05
0.000106547
7.54083e-05
0.000104476
0.000104513
7.72128e-05
7.75876e-05
0.000104751
7.7351e-05
7.76075e-05
0.000106612
7.57057e-05
0.000104813
7.77342e-05
7.77224e-05
7.56879e-05
7.04309e-05
3.98388e-05
6.82823e-05
6.83569e-05
4.18195e-05
4.17615e-05
7.04722e-05
3.97401e-05
6.83707e-05
6.86538e-05
4.17849e-05
4.16887e-05
6.85686e-05
4.16444e-05
4.14456e-05
7.07322e-05
3.96337e-05
6.86614e-05
4.15829e-05
4.14257e-05
3.94428e-05
3.49521e-05
8.10599e-06
3.3155e-05
3.3078e-05
1.13143e-05
1.12117e-05
3.48502e-05
8.06294e-06
3.30862e-05
3.29039e-05
1.11832e-05
1.07434e-05
3.2632e-05
1.10934e-05
1.08244e-05
3.46799e-05
7.6526e-06
3.25874e-05
1.06536e-05
1.07158e-05
7.78932e-06
4.84353e-06
6.83129e-06
6.7539e-06
4.86237e-06
6.72817e-06
6.3722e-06
5.8605e-06
5.47155e-06
5.64552e-06
6.52705e-06
4.52951e-06
6.43414e-06
0.00353089
0.00353364
0.0035322
0.00353238
0.00355929
0.0035334
0.00356277
0.00353368
0.0035597
0.00353341
0.00353368
0.00356308
0.0035444
0.00356614
0.00356606
0.00350341
0.00351688
0.0035209
0.00349539
0.0034939
0.00349905
0.00350334
0.00351883
0.00352103
0.00349527
0.00351936
0.0035194
0.00351936
0.00349293
0.00349296
0.00349297
0.00349292
0.00350302
0.00351476
0.00351989
0.0035106
0.00352205
0.00350023
0.0035109
0.00349399
0.00349915
0.00350309
0.00351996
0.00351499
0.00351077
0.00352216
0.00351097
0.00350023
0.00352077
0.00352084
0.00350789
0.00350006
0.00350009
0.00347592
0.00349014
0.00348998
0.00347394
0.00348733
0.00347291
0.00347581
0.00349005
0.00348999
0.00347384
0.00348387
0.00348387
0.00348381
0.00345553
0.00345552
0.00345553
0.00345543
0.00347364
0.00348865
0.00348235
0.00347307
0.00348708
0.00347416
0.00347301
0.00348743
0.0034729
0.00347368
0.00348242
0.00348864
0.00347305
0.00348711
0.003473
0.00347419
0.00349033
0.00349044
0.00347141
0.00347459
0.00347453
0.00343344
0.00344816
0.00344902
0.00343217
0.00344687
0.00343134
0.00343342
0.00344815
0.00344903
0.00343213
0.00344542
0.00344544
0.00344537
0.00341294
0.00341292
0.00341294
0.00341287
0.00343213
0.00344771
0.00344358
0.00343317
0.00344669
0.00343259
0.00343312
0.00344691
0.00343125
0.00343215
0.00344358
0.00344763
0.00343312
0.00344668
0.0034331
0.00343258
0.00344847
0.00344844
0.00343041
0.00343246
0.00343238
0.00338711
0.00340355
0.00340495
0.00338572
0.00340287
0.00338514
0.00338711
0.00340358
0.00340498
0.0033857
0.00340138
0.00340141
0.00340135
0.00336556
0.00336554
0.00336556
0.00336552
0.00338628
0.00340337
0.00339971
0.00338799
0.00340279
0.00338641
0.003388
0.00340284
0.00338521
0.0033863
0.00339971
0.00340334
0.00338798
0.00340278
0.003388
0.00338646
0.0034036
0.00340353
0.0033847
0.00338585
0.00338584
0.00333828
0.00335539
0.0033567
0.00333706
0.00335496
0.00333675
0.00333825
0.00335534
0.0033567
0.00333708
0.00335336
0.00335338
0.00335334
0.00331672
0.0033167
0.00331672
0.00331669
0.00333785
0.00335539
0.00335196
0.00333977
0.00335504
0.00333777
0.0033398
0.00335498
0.00333671
0.00333784
0.00335194
0.00335537
0.00333968
0.00335503
0.00333975
0.00333778
0.00335542
0.0033554
0.00333636
0.00333717
0.00333712
0.0032892
0.0033065
0.00330754
0.00328834
0.00330622
0.00328811
0.00328918
0.0033065
0.00330752
0.00328833
0.00330452
0.00330455
0.00330451
0.00326827
0.00326826
0.00326827
0.00326824
0.00328913
0.00330655
0.00330329
0.00329116