/*--------------------------------*- C++ -*----------------------------------*\
| =========                 |                                                 |
| \\      /  F ield         | OpenFOAM: The Open Source CFD Toolbox           |
|  \\    /   O peration     | Version:  v2012                                 |
|   \\  /    A nd           | Website:  www.openfoam.com                      |
|    \\/     M anipulation  |                                                 |
\*---------------------------------------------------------------------------*/
FoamFile
{
    version     2.0;
    format      ascii;
    class       volScalarField;
    location    "1612.5";
    object      p;
}
// * * * * * * * * * * * * * * * * * * * * * * * * * * * * * * * * * * * * * //

dimensions      [0 2 -2 0 0 0 0];


internalField   nonuniform List<scalar> 
171728
(
0.00351902
0.00351794
0.00351803
0.0035188
0.00348358
0.00348212
0.00348214
0.00348503
0.00344509
0.00344325
0.0034432
0.0034455
0.00340098
0.00339936
0.00339931
0.00340154
0.00335294
0.00335148
0.00335144
0.00335376
0.00330406
0.00330274
0.00330275
0.0033051
0.00325577
0.00325458
0.00325461
0.00325696
0.00320843
0.00320738
0.00320738
0.00320976
0.00316209
0.00316116
0.00316117
0.00316353
0.00311671
0.00311592
0.00311591
0.00311828
0.00307227
0.00307161
0.00307161
0.00307396
0.00302857
0.003028
0.00302806
0.00303035
0.00298544
0.002985
0.00298506
0.00298731
0.00294273
0.00294251
0.00294247
0.00294464
0.00290038
0.00290017
0.00290025
0.00290231
0.0028583
0.00285803
0.0028583
0.00286043
0.00281662
0.00281637
0.00281653
0.00281893
0.00277522
0.002775
0.00277511
0.00277722
0.0027342
0.00273416
0.00273427
0.00273626
0.00269354
0.00269364
0.00269344
0.00269547
0.00265322
0.00265329
0.00265344
0.00265512
0.0026132
0.00261328
0.00261334
0.002615
0.00257345
0.00257371
0.00257363
0.00257528
0.00253398
0.00253423
0.00253433
0.00253589
0.00249476
0.00249512
0.00249519
0.00249677
0.00245579
0.00245622
0.00245617
0.00245791
0.00241705
0.00241752
0.00241754
0.0024193
0.00237851
0.00237913
0.00237901
0.00238089
0.00234018
0.00234073
0.00234072
0.00234261
0.00230205
0.00230262
0.00230267
0.00230456
0.00226405
0.00226471
0.0022647
0.00226665
0.00222625
0.00222692
0.00222688
0.00222855
0.00218862
0.00218934
0.00218934
0.00219133
0.00215103
0.00215166
0.00215169
0.00215347
0.00211368
0.00211435
0.00211431
0.00211622
0.00207643
0.00207702
0.00207706
0.00207894
0.00203931
0.00203999
0.0020399
0.00204171
0.00200231
0.00200267
0.00200277
0.00200476
0.00196545
0.00196599
0.00196589
0.00196783
0.00192875
0.0019291
0.00192917
0.00193113
0.00189221
0.00189238
0.00189245
0.00189435
0.00185559
0.00185604
0.00185583
0.00185804
0.00181945
0.00181941
0.00181962
0.00182151
0.00178315
0.00178341
0.00178316
0.0017853
0.00174713
0.00174696
0.0017472
0.00174922
0.00171099
0.00171119
0.00171107
0.00171317
0.00167551
0.00167525
0.00167517
0.00167732
0.00163936
0.00163926
0.00163955
0.0016415
0.001604
0.00160403
0.00160386
0.00160592
0.00156884
0.00156839
0.0015683
0.0015705
0.00153309
0.00153293
0.00153295
0.00153502
0.0014977
0.00149738
0.00149765
0.00149956
0.00146229
0.00146232
0.00146205
0.00146414
0.00142745
0.00142722
0.00142726
0.00142936
0.00139269
0.00139199
0.00139211
0.00139401
0.00135725
0.00135733
0.00135735
0.00135921
0.00132256
0.00132213
0.00132204
0.00132428
0.00128742
0.00128741
0.00128756
0.00128921
0.00125292
0.00125221
0.0012521
0.0012539
0.00121797
0.00121808
0.00121812
0.00122072
0.0011836
0.00118348
0.00118355
0.00118514
0.00114916
0.00114841
0.00114846
0.0011501
0.00111411
0.00111404
0.00111398
0.00111584
0.00107937
0.00107939
0.00107933
0.00108157
0.00104506
0.00104479
0.00104491
0.00104701
0.00101078
0.00101072
0.00101067
0.00101231
0.000976821
0.00097632
0.000976309
0.000977902
0.000941964
0.00094143
0.000941405
0.000943275
0.000906393
0.000906712
0.000906772
0.000909071
0.000872128
0.000872402
0.000872363
0.000874587
0.000838463
0.000837783
0.000837782
0.000839401
0.000803751
0.00080329
0.00080344
0.000805137
0.000769061
0.000769221
0.000769108
0.000771238
0.000734549
0.000734713
0.000734484
0.000736494
0.000700082
0.000699762
0.000699806
0.000701734
0.000665074
0.000664818
0.000665026
0.000667018
0.000630349
0.000630406
0.000630493
0.000632294
0.000595984
0.000595938
0.000595785
0.000597665
0.000561489
0.00056128
0.000561172
0.000563283
0.000526362
0.000526532
0.000526537
0.000528699
0.000491477
0.000491308
0.000491481
0.000493253
0.000456637
0.000456475
0.000456442
0.00045836
0.000421833
0.000421756
0.000421652
0.000423659
0.000387156
0.000387154
0.000387172
0.000389164
0.000351228
0.000351316
0.000351378
0.000353481
0.000316005
0.000316008
0.000315833
0.000317805
0.000282441
0.00028213
0.000282452
0.000284071
0.000246252
0.000246021
0.000246131
0.00024817
0.000209223
0.000209757
0.000209095
0.000211562
0.000174719
0.000175023
0.000174993
0.00017697
0.000141125
0.000140494
0.00014109
0.000142647
0.000105449
0.000104867
0.000104974
0.000106793
6.71867e-05
6.76674e-05
6.70373e-05
6.95114e-05
3.14085e-05
3.16009e-05
3.13868e-05
3.35502e-05
5.46769e-06
6.28077e-06
6.40809e-06
4.55749e-06
0.00352342
0.00352097
0.00352087
0.00352332
0.00352093
0.00352109
0.00352735
0.00352735
0.00352739
0.00352737
0.00352088
0.00352101
0.0035235
0.00352106
0.00352112
0.00352346
0.00351869
0.00348973
0.00351795
0.0035179
0.0034916
0.00349164
0.00351861
0.00348972
0.00351792
0.00351798
0.00349163
0.00349158
0.00351798
0.00349157
0.00349147
0.00351874
0.00348968
0.00351823
0.00349149
0.0034919
0.00348977
0.00348493
0.00345104
0.00348204
0.00348199
0.00345339
0.0034533
0.00348493
0.00345101
0.00348203
0.00348201
0.00345335
0.0034534
0.00348206
0.00345324
0.00345325
0.00348493
0.00345104
0.00348245
0.00345329
0.0034534
0.00345102
0.00344549
0.00340771
0.00344311
0.00344315
0.0034108
0.00341076
0.0034455
0.00340771
0.00344315
0.00344315
0.00341076
0.00341076
0.00344321
0.00341071
0.00341072
0.00344552
0.00340772
0.00344321
0.00341075
0.00341092
0.00340771
0.00340153
0.00336024
0.00339927
0.00339929
0.00336365
0.00336363
0.00340154
0.00336025
0.00339931
0.00339929
0.0033636
0.00336361
0.00339934
0.00336361
0.00336361
0.00340155
0.00336027
0.00339934
0.00336364
0.00336365
0.00336022
0.00335378
0.00331156
0.00335146
0.00335149
0.00331492
0.0033149
0.00335378
0.00331155
0.00335151
0.00335151
0.00331491
0.0033149
0.00335146
0.00331493
0.00331491
0.0033538
0.00331156
0.00335149
0.00331491
0.00331508
0.00331154
0.00330511
0.00326328
0.00330278
0.00330276
0.00326656
0.00326656
0.0033051
0.00326328
0.00330277
0.00330278
0.00326657
0.00326658
0.00330275
0.00326656
0.00326656
0.00330512
0.0032633
0.00330267
0.00326652
0.00326646
0.00326331
0.00325695
0.00321594
0.0032546
0.00325459
0.00321911
0.0032191
0.00325694
0.00321592
0.0032546
0.0032546
0.00321909
0.0032191
0.0032546
0.00321909
0.00321911
0.00325697
0.00321593
0.00325445
0.00321909
0.00321892
0.00321596
0.00320976
0.00316959
0.0032074
0.00320738
0.00317263
0.00317263
0.00320973
0.00316958
0.00320739
0.0032074
0.00317263
0.00317264
0.00320741
0.00317264
0.00317265
0.00320976
0.00316959
0.00320732
0.00317263
0.00317254
0.0031696
0.00316356
0.0031242
0.00316118
0.00316116
0.00312715
0.00312718
0.00316352
0.00312421
0.00316119
0.00316119
0.00312715
0.00312718
0.00316115
0.00312717
0.00312717
0.00316355
0.00312421
0.00316113
0.00312716
0.00312715
0.00312419
0.0031183
0.00307974
0.00311595
0.00311592
0.00308263
0.00308261
0.00311828
0.00307974
0.00311594
0.00311592
0.00308261
0.0030826
0.00311593
0.00308261
0.00308257
0.00311829
0.00307976
0.00311588
0.00308259
0.00308259
0.00307974
0.00307396
0.00303604
0.00307161
0.00307162
0.00303884
0.00303887
0.00307394
0.00303603
0.00307159
0.00307159
0.00303883
0.00303882
0.00307161
0.00303887
0.0030389
0.00307398
0.00303607
0.00307162
0.00303881
0.00303886
0.00303607
0.00303038
0.00299292
0.00302803
0.00302799
0.00299569
0.00299569
0.00303033
0.00299291
0.00302803
0.00302806
0.00299568
0.00299567
0.00302804
0.0029957
0.00299577
0.00303041
0.00299296
0.003028
0.00299569
0.00299577
0.00299294
0.00298734
0.00295026
0.00298504
0.002985
0.00295301
0.00295302
0.00298731
0.00295029
0.00298502
0.00298509
0.00295304
0.00295306
0.00298499
0.00295303
0.00295313
0.00298739
0.00295027
0.00298498
0.00295306
0.00295311
0.00295023
0.00294472
0.00290794
0.00294243
0.00294252
0.00291064
0.00291079
0.00294476
0.00290796
0.00294242
0.00294245
0.00291069
0.00291075
0.00294231
0.00291078
0.0029107
0.00294471
0.002908
0.00294233
0.00291074
0.00291071
0.00290783
0.00290246
0.00286573
0.00290014
0.00290017
0.00286856
0.00286871
0.00290244
0.00286585
0.00290015
0.00290022
0.0028685
0.00286851
0.0029
0.00286873
0.00286869
0.00290248
0.00286593
0.0029
0.00286855
0.00286869
0.00286588
0.00286032
0.00282409
0.00285807
0.00285802
0.00282688
0.00282684
0.00286034
0.00282399
0.0028581
0.00285827
0.00282688
0.00282664
0.00285818
0.00282682
0.00282684
0.00286056
0.00282402
0.00285821
0.00282666
0.00282685
0.00282426
0.00281872
0.00278261
0.00281649
0.00281637
0.00278542
0.00278541
0.0028186
0.00278249
0.00281649
0.00281652
0.00278545
0.00278534
0.00281667
0.00278541
0.00278523
0.00281874
0.00278248
0.00281666
0.00278533
0.00278521
0.00278252
0.0027773
0.00274152
0.00277518
0.00277498
0.00274441
0.00274442
0.00277718
0.00274147
0.00277514
0.00277508
0.00274441
0.00274432
0.00277509
0.00274444
0.00274434
0.0027772
0.00274165
0.00277509
0.00274433
0.00274433
0.00274149
0.00273628
0.00270075
0.00273424
0.00273416
0.00270373
0.00270373
0.00273623
0.00270073
0.00273418
0.00273421
0.0027037
0.00270368
0.00273411
0.00270375
0.00270367
0.00273641
0.00270061
0.00273417
0.00270366
0.00270374
0.00270068
0.00269554
0.00266024
0.00269359
0.00269365
0.00266336
0.00266333
0.00269557
0.00266033
0.00269359
0.00269345
0.00266335
0.00266343
0.00269343
0.00266333
0.00266337
0.00269542
0.00266021
0.00269344
0.00266348
0.00266346
0.00266023
0.0026551
0.0026201
0.00265334
0.00265331
0.00262332
0.00262342
0.00265515
0.00262007
0.00265332
0.0026534
0.00262331
0.00262326
0.00265339
0.00262341
0.00262321
0.00265514
0.00262011
0.00265337
0.00262327
0.00262324
0.0026201
0.00261501
0.00258032
0.00261336
0.00261327
0.00258359
0.00258375
0.002615
0.00258039
0.00261334
0.00261335
0.00258358
0.00258364
0.00261343
0.00258374
0.00258359
0.00261502
0.00258029
0.00261342
0.00258366
0.00258358
0.00258031
0.00257527
0.00254085
0.00257368
0.0025737
0.00254412
0.00254414
0.00257539
0.0025408
0.00257366
0.00257362
0.00254412
0.00254423
0.00257373
0.00254415
0.00254411
0.00257524
0.00254091
0.00257375
0.00254423
0.0025441
0.00254082
0.00253587
0.0025017
0.00253432
0.00253422
0.00250492
0.00250503
0.00253581
0.0025018
0.00253432
0.00253431
0.00250493
0.00250494
0.00253436
0.00250503
0.00250491
0.00253594
0.0025017
0.00253439
0.00250494
0.00250488
0.00250171
0.00249674
0.00246282
0.00249515
0.00249512
0.00246594
0.00246597
0.00249678
0.00246271
0.00249517
0.00249518
0.00246594
0.00246589
0.00249519
0.00246597
0.00246592
0.00249682
0.00246277
0.0024952
0.00246589
0.0024659
0.00246287
0.00245789
0.00242417
0.00245623
0.00245623
0.00242717
0.00242718
0.00245785
0.00242423
0.00245624
0.00245618
0.00242718
0.00242718
0.00245623
0.0024272
0.00242718
0.00245778
0.00242428
0.00245619
0.00242718
0.00242719
0.00242419
0.00241925
0.00238573
0.00241754
0.00241751
0.00238864
0.00238865
0.00241918
0.00238571
0.00241756
0.00241755
0.00238864
0.00238856
0.00241756
0.00238866
0.00238862
0.00241939
0.00238561
0.00241756
0.00238857
0.0023886
0.00238583
0.00238084
0.00234754
0.00237907
0.00237913
0.0023503
0.00235025
0.00238093
0.00234751
0.00237907
0.00237901
0.0023503
0.00235031
0.00237906
0.00235026
0.00235029
0.0023807
0.00234761
0.00237904
0.00235033
0.00235025
0.00234749
0.00234263
0.00230936
0.00234075
0.00234074
0.00231214
0.00231213
0.00234249
0.00230958
0.00234075
0.00234072
0.00231216
0.00231215
0.00234072
0.00231215
0.00231216
0.0023427
0.00230934
0.00234066
0.00231217
0.00231217
0.00230946
0.00230446
0.00227152
0.00230265
0.00230261
0.0022742
0.00227421
0.00230465
0.00227145
0.00230266
0.00230266
0.0022742
0.00227417
0.00230271
0.00227423
0.00227418
0.00230447
0.00227154
0.00230273
0.00227419
0.00227415
0.00227154
0.00226659
0.00223365
0.0022647
0.0022647
0.00223633
0.00223631
0.00226663
0.00223352
0.0022647
0.00226467
0.00223635
0.00223632
0.00226463
0.00223629
0.00223628
0.00226658
0.00223362
0.0022646
0.00223629
0.00223622
0.00223341
0.00222876
0.00219605
0.00222693
0.00222692
0.0021987
0.00219871
0.00222859
0.00219624
0.00222695
0.0022269
0.0021987
0.00219873
0.00222698
0.00219874
0.00219876
0.00222874
0.0021961
0.00222698
0.00219877
0.00219875
0.00219621
0.00219115
0.00215843
0.00218928
0.00218933
0.00216109
0.00216108
0.00219132
0.00215837
0.00218928
0.00218932
0.0021611
0.00216105
0.00218931
0.00216106
0.002161
0.00219119
0.00215843
0.00218925
0.00216105
0.00216099
0.00215839
0.00215352
0.00212106
0.00215171
0.00215167
0.00212366
0.00212363
0.00215351
0.00212108
0.00215172
0.00215167
0.00212368
0.00212368
0.0021517
0.00212366
0.00212363
0.00215353
0.00212106
0.00215173
0.00212368
0.00212364
0.00212105
0.00211618
0.00208378
0.00211432
0.00211433
0.00208635
0.00208636
0.00211618
0.00208371
0.00211434
0.00211434
0.00208634
0.00208632
0.00211425
0.00208634
0.00208643
0.00211617
0.00208378
0.00211424
0.00208631
0.0020864
0.00208385
0.00207889
0.00204664
0.00207705
0.00207703
0.00204916
0.00204921
0.00207885
0.00204679
0.00207705
0.00207703
0.00204918
0.00204919
0.00207717
0.00204924
0.00204913
0.00207891
0.00204665
0.00207718
0.00204924
0.00204916
0.00204657
0.00204177
0.0020096
0.00203988
0.00203997
0.00201209
0.002012
0.00204187
0.00200943
0.00203989
0.00203987
0.00201208
0.00201204
0.00203979
0.00201199
0.00201204
0.00204177
0.00200958
0.00203977
0.00201201
0.00201194
0.00200963
0.00200471
0.00197264
0.00200282
0.00200267
0.00197506
0.00197509
0.00200457
0.0019728
0.00200284
0.0020028
0.00197507
0.0019751
0.00200284
0.00197508
0.00197509
0.0020047
0.00197265
0.00200276
0.00197509
0.00197518
0.00197266
0.00196779
0.001936
0.00196585
0.00196599
0.00193834
0.00193839
0.00196799
0.00193583
0.00196584
0.00196588
0.00193834
0.00193832
0.00196586
0.00193838
0.00193841
0.00196782
0.00193597
0.00196595
0.00193835
0.00193837
0.00193601
0.00193116
0.00189924
0.00192919
0.00192909
0.0019016
0.00190148
0.00193094
0.00189927
0.0019292
0.00192914
0.00190162
0.00190163
0.00192924
0.00190148
0.00190152
0.00193112
0.0018993
0.00192919
0.00190162
0.00190153
0.00189918
0.00189439
0.00186275
0.0018924
0.0018924
0.00186498
0.0018652
0.00189448
0.00186291
0.00189241
0.00189246
0.00186495
0.00186498
0.00189233
0.00186521
0.00186501
0.00189446
0.00186267
0.00189234
0.00186498
0.001865
0.00186283
0.00185795
0.00182645
0.0018559
0.00185601
0.00182869
0.00182847
0.00185799
0.00182627
0.0018559
0.00185584
0.00182871
0.00182864
0.001856
0.00182846
0.00182869
0.00185783
0.00182649
0.00185598
0.00182865
0.00182867
0.00182636
0.00182159
0.00179003
0.00181959
0.00181943
0.00179223
0.00179241
0.00182149
0.00179025
0.00181959
0.0018196
0.00179221
0.00179231
0.0018195
0.00179242
0.00179227
0.00182168
0.00179001
0.00181949
0.00179229
0.00179229
0.0017901
0.00178526
0.00175405
0.00178317
0.00178339
0.00175622
0.0017561
0.00178545
0.00175387
0.00178315
0.00178318
0.00175624
0.00175612
0.00178327
0.00175608
0.00175612
0.0017852
0.00175406
0.00178328
0.00175613
0.00175612
0.001754
0.00174922
0.00171798
0.00174718
0.001747
0.00172003
0.00172003
0.00174906
0.00171802
0.00174721
0.00174717
0.00172007
0.00172017
0.0017471
0.00172007
0.00172015
0.00174929
0.00171796
0.0017471
0.00172016
0.00172016
0.00171798
0.00171322
0.00168203
0.00171109
0.00171114
0.00168428
0.00168437
0.00171327
0.00168213
0.00171112
0.0017111
0.00168419
0.001684
0.00171114
0.00168433
0.00168415
0.00171313
0.00168194
0.00171116
0.00168404
0.0016841
0.00168206
0.00167725
0.00164627
0.00167527
0.00167532
0.00164825
0.00164809
0.00167731
0.0016461
0.00167517
0.00167508
0.00164827
0.00164847
0.00167524
0.00164815
0.00164839
0.0016772
0.00164645
0.00167517
0.00164852
0.00164846
0.00164629
0.00164151
0.00161074
0.00163934
0.00163917
0.00161274
0.00161281
0.00164135
0.00161081
0.00163942
0.00163962
0.00161289
0.00161296
0.00163938
0.00161282
0.00161263
0.00164169
0.00161071
0.00163949
0.00161274
0.00161262
0.00161064
0.00160601
0.00157521
0.00160388
0.00160405
0.00157743
0.00157754
0.0016061
0.00157525
0.00160396
0.00160393
0.00157726
0.001577
0.00160385
0.00157739
0.00157744
0.00160593
0.00157505
0.00160377
0.00157722
0.00157739
0.00157525
0.00157045
0.00153971
0.00156859
0.0015685
0.00154176
0.00154162
0.00157047
0.0015397
0.00156838
0.00156812
0.00154172
0.00154169
0.0015685
0.00154173
0.00154175
0.00157031
0.0015397
0.00156849
0.00154176
0.00154174
0.00153977
0.00153494
0.00150433
0.00153279
0.00153276
0.0015063
0.00150622
0.00153492
0.00150421
0.00153284
0.00153289
0.00150646
0.00150657
0.00153293
0.00150629
0.00150643
0.00153495
0.00150452
0.00153293
0.00150651
0.00150649
0.00150432
0.00149961
0.0014689
0.00149752
0.0014974
0.00147091
0.00147117
0.00149949
0.00146907
0.0014977
0.00149781
0.00147084
0.00147093
0.0014975
0.00147104
0.00147086
0.00149979
0.00146888
0.00149756
0.00147084
0.00147081
0.00146886
0.00146415
0.00143401
0.00146212
0.00146242
0.00143606
0.00143603
0.00146435
0.00143394
0.00146198
0.00146205
0.00143598
0.00143595
0.00146212
0.00143606
0.00143607
0.00146413
0.00143393
0.00146206
0.00143603
0.00143605
0.00143404
0.00142936
0.00139873
0.00142742
0.00142718
0.00140084
0.00140073
0.00142922
0.00139868
0.00142737
0.0014272
0.00140088
0.00140083
0.00142737
0.00140072
0.00140085
0.00142922
0.00139877
0.00142738
0.00140082
0.00140088
0.00139876
0.00139397
0.00136393
0.00139196
0.00139199
0.00136587
0.001366
0.00139396
0.00136401
0.00139202
0.00139212
0.0013659
0.0013661
0.00139204
0.00136601
0.0013658
0.00139406
0.00136407
0.00139207
0.00136611
0.00136582
0.00136386
0.00135927
0.00132882
0.00135725
0.00135733
0.00133098
0.00133089
0.00135934
0.0013288
0.00135726
0.00135735
0.00133095
0.00133075
0.0013571
0.00133095
0.0013312
0.00135936
0.00132872
0.00135711
0.00133075
0.00133112
0.001329
0.00132404
0.001294
0.00132208
0.00132206
0.00129599
0.00129609
0.00132407
0.00129405
0.00132205
0.00132201
0.00129599
0.00129617
0.00132254
0.0012961
0.001296
0.00132401
0.00129416
0.00132248
0.00129631
0.00129605
0.00129399
0.00128938
0.00125924
0.00128743
0.00128751
0.00126138
0.00126126
0.00128936
0.00125901
0.00128741
0.00128757
0.00126138
0.00126118
0.00128701
0.001261
0.00126055
0.00128948
0.00125894
0.00128707
0.00126092
0.00126054
0.00125851
0.00125443
0.00122416
0.00125253
0.00125234
0.00122623
0.00122618
0.00125426
0.00122439
0.00125251
0.00125228
0.0012262
0.00122622
0.00125212
0.00122651
0.00122726
0.00125419
0.00122439
0.00125207
0.0012265
0.0012272
0.00122524
0.00121954
0.00119023
0.00121763
0.00121768
0.00119217
0.00119234
0.0012198
0.00119022
0.00121761
0.00121774
0.00119221
0.00119238
0.00121881
0.00119229
0.00119199
0.00121982
0.0011903
0.00121878
0.00119238
0.00119203
0.00118993
0.00118562
0.00115522
0.00118363
0.00118372
0.00115742
0.00115727
0.00118549
0.00115505
0.00118369
0.00118376
0.00115744
0.00115731
0.00118302
0.00115708
0.00115691
0.00118556
0.00115512
0.00118308
0.00115712
0.00115696
0.00115482
0.00115044
0.00112039
0.00114859
0.00114849
0.00112247
0.00112254
0.00115033
0.00112054
0.00114861
0.00114853
0.00112244
0.00112249
0.00114833
0.00112263
0.00112259
0.0011504
0.00112047
0.00114838
0.00112261
0.00112257
0.00112048
0.00111575
0.00108623
0.00111389
0.00111397
0.0010882
0.00108814
0.00111588
0.00108618
0.00111386
0.0011139
0.00108815
0.00108806
0.00111397
0.00108808
0.00108815
0.00111579
0.00108609
0.00111391
0.00108799
0.00108807
0.00108622
0.00108156
0.0010512
0.00107954
0.00107943
0.00105331
0.00105323
0.00108148
0.00105128
0.0010795
0.0010794
0.00105335
0.00105332
0.00107954
0.00105342
0.00105374
0.00108142
0.00105138
0.0010795
0.00105352
0.00105385
0.00105173
0.00104647
0.00101696
0.00104458
0.00104459
0.00101894
0.00101919
0.00104659
0.00101711
0.00104462
0.00104467
0.00101896
0.00101914
0.00104511
0.00101922
0.00101912
0.00104668
0.00101706
0.00104521
0.00101917
0.0010191
0.00101699
0.0010124
0.000983199
0.00101055
0.00101079
0.000985276
0.000985209
0.0010125
0.000982988
0.00101056
0.00101074
0.000985251
0.000985236
0.00101053
0.000984976
0.000984683
0.00101245
0.000982979
0.0010105
0.000984972
0.000984628
0.000982607
0.000978517
0.000948255
0.00097668
0.000976527
0.000950381
0.000950173
0.000978302
0.000948135
0.000976637
0.000976527
0.000950361
0.000950107
0.00097601
0.000950164
0.000949888
0.000978283
0.000948086
0.000975964
0.000950134
0.000949883
0.00094796
0.000943463
0.000913207
0.000941558
0.000941327
0.000915157
0.000915142
0.00094336
0.000913327
0.000941551
0.000941334
0.000915202
0.000915236
0.000941282
0.000915342
0.000915663
0.000943329
0.000913411
0.000941285
0.000915405
0.000915669
0.000913724
0.000908482
0.00087879
0.000906431
0.000906513
0.00088069
0.00088087
0.000908644
0.000878985
0.000906489
0.000906611
0.000880687
0.000880886
0.000907113
0.00088097
0.000881355
0.00090873
0.000879019
0.000907116
0.000880968
0.000881381
0.00087933
0.000874173
0.000844613
0.000872219
0.000872399
0.000846725
0.000846681
0.000874339
0.000844441
0.000872199
0.000872344
0.000846682
0.000846548
0.000872647
0.000846486
0.00084628
0.000874344
0.000844355
0.000872696
0.000846423
0.000846291
0.000844151
0.000839879
0.000809992
0.000838057
0.00083799
0.000812039
0.000811942
0.000839699
0.00080986
0.000838027
0.000837924
0.00081205
0.000812126
0.000837571
0.000811852
0.000811781
0.000839644
0.000809983
0.000837573
0.000811982
0.000811756
0.000809745
0.000805325
0.000775641
0.000803429
0.000803338
0.000777607
0.0007776
0.000805212
0.000775763
0.000803454
0.000803537
0.00077769
0.000777663
0.000803286
0.000777757
0.000777774
0.000805339
0.000775764
0.000803273
0.000777745
0.000777784
0.00077591
0.00077096
0.000741309
0.000769007
0.000769005
0.000743281
0.000743237
0.000771103
0.0007414
0.000769075
0.000769004
0.000743196
0.000743054
0.000769201
0.000743382
0.000743243
0.000771057
0.00074117
0.000769178
0.000743144
0.000743111
0.000741244
0.00073661
0.000706635
0.000734685
0.000734643
0.000708697
0.00070878
0.000736697
0.000706563
0.00073456
0.000734428
0.000708619
0.000708544
0.000734541
0.000708554
0.000708464
0.000736451
0.000706568
0.000734398
0.000708496
0.000708492
0.000706447
0.000701849
0.000671487
0.000699883
0.000700003
0.000673468
0.000673535
0.000701764
0.00067145
0.000699876
0.000699864
0.000673615
0.00067369
0.000699834
0.000673502
0.000673759
0.000701835
0.000671646
0.000699901
0.000673687
0.000673949
0.000671763
0.00066673
0.000636866
0.000664765
0.00066477
0.00063885
0.000638799
0.000666708
0.00063693
0.000664899
0.000664997
0.00063888
0.000639074
0.00066508
0.000638983
0.000639052
0.000666912
0.000637041
0.000665202
0.000639128
0.00063897
0.000637012
0.000632194
0.000602713
0.000630286
0.000630251
0.000604647
0.000604668
0.000632265
0.000602692
0.00063027
0.000630464
0.000604585
0.000604576
0.000630381
0.000604596
0.000604422
0.000632336
0.000602539
0.000630272
0.000604471
0.00060433
0.000602391
0.000598047
0.000568137
0.000596083
0.000596078
0.000570169
0.0005701
0.000597991
0.000568055
0.00059603
0.000595915
0.000570111
0.000569905
0.000595763
0.000569923
0.000569895
0.000597834
0.000567936
0.000595683
0.000569816
0.000569893
0.000567975
0.000563363
0.000533016
0.000561422
0.000561373
0.000535041
0.00053514
0.000563318
0.000533188
0.000561378
0.000561205
0.00053503
0.000535057
0.000561311
0.00053526
0.000535407
0.000563202
0.00053318
0.000561327
0.000535231
0.000535445
0.000533463
0.000528219
0.00049806
0.000526251
0.000526375
0.000500033
0.000500064
0.000528403
0.000498
0.000526245
0.00052634
0.000500093
0.00050026
0.000526683
0.000500095
0.00050011
0.000528412
0.000498212
0.000526737
0.000500297
0.000500179
0.000498052
0.000493334
0.00046336
0.000491351
0.000491332
0.000465305
0.000465232
0.000493233
0.000463226
0.000491429
0.000491555
0.000465383
0.000465333
0.000491292
0.000465162
0.000465126
0.000493431
0.000463249
0.000491341
0.000465183
0.000465111
0.000463111
0.000458599
0.000428449
0.000456593
0.000456526
0.000430459
0.000430419
0.000458486
0.000428474
0.000456651
0.000456577
0.00043041
0.000430347
0.00045644
0.000430411
0.000430369
0.000458483
0.000428351
0.000456392
0.000430301
0.000430276
0.000428394
0.000423702
0.000393698
0.000421777
0.000421759
0.00039578
0.000395863
0.000423743
0.000393842
0.000421704
0.000421653
0.000395714
0.000395735
0.000421706
0.000395887
0.000395848
0.000423612
0.000393788
0.000421626
0.000395822
0.000395837
0.000393864
0.00038893
0.000358151
0.000387014
0.000387098
0.000360252
0.000360316
0.000389057
0.000358253
0.000386987
0.00038704
0.000360261
0.000360351
0.000387212
0.000360365
0.000360499
0.000389053
0.000358327
0.000387246
0.000360464
0.000360573
0.000358435
0.000353175
0.000322796
0.00035117
0.000351281
0.000324672
0.000324684
0.000353312
0.000322721
0.000351149
0.000351247
0.000324628
0.00032448
0.000351429
0.000324588
0.000324438
0.000353357
0.000322578
0.000351479
0.00032439
0.000324392
0.000322509
0.00031814
0.000288999
0.000316147
0.000316121
0.000290896
0.000290802
0.000318029
0.000288796
0.000316136
0.000315983
0.000291037
0.000291006
0.000315794
0.000290724
0.000290555
0.000317912
0.000289003
0.000315743
0.000290802
0.000290554
0.00028866
0.000284272
0.000252943
0.000282285
0.000282116
0.000255161
0.000255095
0.00028406
0.000252943
0.000282465
0.000282581
0.000255216
0.00025538
0.00028217
0.000255206
0.000255432
0.000284407
0.000253151
0.000282189
0.000255481
0.000255467
0.000253216
0.000247896
0.000216455
0.000245943
0.000245882
0.000218457
0.000218668
0.000247903
0.000216745
0.000245918
0.000246001
0.000218211
0.000217993
0.000246208
0.000218607
0.00021841
0.000248059
0.000216082
0.000246194
0.00021807
0.000218306
0.000216412
0.000211652
0.00018173
0.000209603
0.000209853
0.000183552
0.000183673
0.000211911
0.00018182
0.00020935
0.000209061
0.000183523
0.00018344
0.000209456
0.000183599
0.000183424
0.000211254
0.000181672
0.000209319
0.000183406
0.00018342
0.000181624
0.000177049
0.000147277
0.000174976
0.000175072
0.000149307
0.00014913
0.000177151
0.000147027
0.000175007
0.000175021
0.000149506
0.000149712
0.000174893
0.000149207
0.000149447
0.000177047
0.000147651
0.00017495
0.00014971
0.000149585
0.000147423
0.000142496
0.000111793
0.000140643
0.000140422
0.000114065
0.000113908
0.000142265
0.000111683
0.000140835
0.00014109
0.000114068
0.000114191
0.00014081
0.000113923
0.00011407
0.000142878
0.000111871
0.00014094
0.000114187
0.000114073
0.0001118
0.000106798
7.46117e-05
0.000104964
0.000104861
7.67099e-05
7.68656e-05
0.000106694
7.49528e-05
0.000104944
0.000104985
7.66868e-05
7.65916e-05
0.000104944
7.68899e-05
7.67846e-05
0.000106839
7.4397e-05
0.0001049
7.65969e-05
7.66717e-05
7.46365e-05
6.94615e-05
3.83219e-05
6.73737e-05
6.76542e-05
4.00954e-05
4.03149e-05
6.98647e-05
3.85322e-05
6.71968e-05
6.69892e-05
3.9977e-05
3.98594e-05
6.74423e-05
4.02775e-05
4.01808e-05
6.9119e-05
3.82151e-05
6.72785e-05
3.98867e-05
4.01073e-05
3.84091e-05
3.34936e-05
7.78617e-06
3.14955e-05
3.1649e-05
1.06529e-05
1.05785e-05
3.36602e-05
7.59588e-06
3.14137e-05
3.13674e-05
1.06856e-05
1.07042e-05
3.15245e-05
1.04887e-05
1.03689e-05
3.34119e-05
7.81509e-06
3.15061e-05
1.06427e-05
1.04437e-05
7.55006e-06
4.79671e-06
6.31991e-06
6.31477e-06
4.55809e-06
6.58138e-06
6.50226e-06
5.31323e-06
5.46257e-06
5.20169e-06
6.12312e-06
4.83649e-06
6.33786e-06
0.00353047
0.00353297
0.00353172
0.0035319
0.003559
0.00353287
0.00356247
0.00353326
0.00355921
0.00353312
0.00353334
0.0035627
0.00354407
0.00356583
0.00356584
0.00350314
0.00351671
0.00352052
0.00349534
0.00349351
0.00349887
0.00350312
0.00351663
0.00352051
0.00349526
0.00351902
0.00351903
0.0035191
0.00349267
0.0034927
0.0034926
0.00349246
0.00350277
0.00351433
0.00351958
0.00351033
0.00352172
0.00349992
0.00351056
0.00349351
0.00349885
0.00350276
0.00351964
0.00351442
0.00351027
0.00352182
0.00351059
0.00349989
0.00352049
0.00352067
0.00350751
0.00349986
0.00349968
0.00347557
0.00348983
0.00348962
0.00347363
0.0034871
0.00347263
0.0034755
0.00348985
0.00348968
0.00347359
0.00348364
0.00348351
0.00348339
0.00345519
0.00345523
0.00345514
0.00345507
0.00347333
0.00348834
0.00348209
0.0034726
0.00348681
0.00347389
0.0034726
0.00348695
0.00347262
0.00347333
0.00348211
0.00348828
0.00347262
0.00348681
0.00347269
0.00347385
0.0034901
0.00349021
0.00347111
0.00347424
0.0034743
0.00343305
0.00344787
0.00344867
0.00343171
0.00344669
0.00343083
0.00343304
0.00344779
0.00344863
0.0034317
0.00344513
0.00344503
0.00344498
0.00341252
0.00341255
0.00341248
0.00341247
0.00343176
0.00344736
0.00344318
0.00343266
0.00344631
0.0034323
0.00343269
0.0034467
0.00343075
0.00343173
0.00344319
0.00344737
0.00343274
0.0034463
0.00343275
0.00343218
0.00344807
0.00344802
0.00343006
0.00343204
0.00343195
0.00338671
0.00340314
0.00340449
0.00338528
0.00340244
0.00338473
0.00338668
0.0034031
0.00340455
0.00338531
0.00340101
0.00340095
0.00340095
0.00336512
0.00336515
0.00336509
0.00336506
0.0033859
0.00340298
0.0033993
0.00338754
0.00340237
0.00338602
0.00338758
0.00340237
0.00338469
0.00338589
0.00339932
0.00340298
0.00338759
0.00340237
0.0033876
0.00338594
0.00340322
0.00340319
0.00338429
0.0033855
0.00338548
0.00333783
0.00335493
0.00335634
0.00333666
0.00335453
0.00333632
0.00333782
0.00335495
0.00335625
0.00333664
0.00335296
0.00335291
0.00335289
0.00331626
0.00331627
0.00331623
0.00331622
0.00333741
0.00335497
0.00335151
0.0033393
0.00335461
0.00333733
0.00333933
0.00335454
0.0033363
0.00333739
0.0033515
0.00335492
0.00333931
0.00335458
0.00333931
0.00333732
0.00335497
0.00335499
0.00333589
0.00333674
0.0033367
0.00328866
0.00330605
0.00330709
0.00328784
0.00330578
0.00328764
0.00328868
0.00330602
0.00330699
0.00328784
0.00330408
0.00330404
0.00330405
0.00326776
0.00326778
0.00326775
0.00326776
0.00328867
0.00330606
0.0033028
0.00329067
0.00330583
0.00328851
0.0032907
0.00330573