/*--------------------------------*- C++ -*----------------------------------*\
| =========                 |                                                 |
| \\      /  F ield         | OpenFOAM: The Open Source CFD Toolbox           |
|  \\    /   O peration     | Version:  v2006                                 |
|   \\  /    A nd           | Website:  www.openfoam.com                      |
|    \\/     M anipulation  |                                                 |
\*---------------------------------------------------------------------------*/
FoamFile
{
    version     2.0;
    format      ascii;
    class       volScalarField;
    location    "375";
    object      nut;
}
// * * * * * * * * * * * * * * * * * * * * * * * * * * * * * * * * * * * * * //

dimensions      [0 2 -1 0 0 0 0];


internalField   nonuniform List<scalar> 
43248
(
0.000150146
0.000101706
0.000101707
8.25739e-05
0.000146066
9.88874e-05
9.88906e-05
8.20933e-05
0.00014205
9.65777e-05
9.65809e-05
8.21456e-05
0.000138119
9.47858e-05
9.47901e-05
8.26857e-05
0.000134295
9.35133e-05
9.35187e-05
8.36612e-05
0.000130637
9.27456e-05
9.27537e-05
8.50182e-05
0.000127157
9.24647e-05
9.24635e-05
8.66901e-05
0.000123901
9.26348e-05
9.26363e-05
8.86342e-05
0.000120906
9.32377e-05
9.32419e-05
9.07928e-05
0.000118191
9.42163e-05
9.42352e-05
9.31063e-05
0.000115781
9.5576e-05
9.55642e-05
9.55592e-05
0.000113746
9.72174e-05
9.72359e-05
9.81218e-05
0.000112031
9.91938e-05
9.91766e-05
0.000100707
0.000110636
0.000101318
0.000101368
0.000103376
0.00010978
0.000103822
0.000103784
0.000106073
0.000108986
0.000106269
0.000106299
0.000108822
0.00010894
0.000109188
0.000109191
0.000111496
0.000108909
0.000111813
0.000111855
0.000114327
0.000109487
0.000115061
0.000114985
0.00011681
0.000110008
0.000117842
0.00011792
0.000119863
0.000111739
0.00012121
0.000121247
0.000122184
0.000112304
0.000123987
0.000123899
0.000125094
0.000114748
0.000127662
0.000127768
0.000127493
0.000116434
0.000130528
0.000130491
0.000130355
0.000118594
0.000133766
0.000133777
0.000132638
0.000121079
0.000137001
0.000137024
0.000135324
0.000123758
0.000140154
0.000140151
0.000137736
8.28633e-05
0.000102455
0.000102442
8.28581e-05
0.000102483
0.000102441
0.000102484
0.00010245
8.2856e-05
0.000102485
0.000102478
8.28497e-05
8.25869e-05
8.22633e-05
0.000101677
0.000101665
9.95156e-05
9.95033e-05
8.25841e-05
8.22633e-05
0.000101703
0.000101663
9.95434e-05
9.95048e-05
0.000101672
9.95436e-05
9.95125e-05
8.25827e-05
8.2258e-05
0.0001017
9.95474e-05
9.95393e-05
8.22514e-05
8.21027e-05
8.2207e-05
9.88617e-05
9.88476e-05
9.7077e-05
9.70677e-05
8.21019e-05
8.22114e-05
9.88883e-05
9.88478e-05
9.71045e-05
9.7067e-05
9.8857e-05
9.71063e-05
9.70761e-05
8.21035e-05
8.22019e-05
9.88836e-05
9.7108e-05
9.71019e-05
8.21987e-05
8.21502e-05
8.26506e-05
9.65523e-05
9.65395e-05
9.51593e-05
9.51488e-05
8.21528e-05
8.26501e-05
9.65786e-05
9.65398e-05
9.51861e-05
9.51492e-05
9.6549e-05
9.51857e-05
9.5158e-05
8.21521e-05
8.26451e-05
9.65746e-05
9.51885e-05
9.51826e-05
8.26411e-05
8.26905e-05
8.35353e-05
9.47616e-05
9.47496e-05
9.37575e-05
9.37491e-05
8.26898e-05
8.35374e-05
9.47872e-05
9.47508e-05
9.37835e-05
9.37505e-05
9.47606e-05
9.37842e-05
9.37589e-05
8.26899e-05
8.35316e-05
9.47849e-05
9.37879e-05
9.37823e-05
8.35289e-05
8.36637e-05
8.48145e-05
9.34888e-05
9.34788e-05
9.28678e-05
9.28607e-05
8.36677e-05
8.4815e-05
9.35135e-05
9.34814e-05
9.28926e-05
9.28613e-05
9.34883e-05
9.28937e-05
9.28695e-05
8.36651e-05
8.48102e-05
9.35113e-05
9.28966e-05
9.28915e-05
8.4808e-05
8.50214e-05
8.64246e-05
9.2726e-05
9.27133e-05
9.24661e-05
9.24614e-05
8.50239e-05
8.64245e-05
9.27495e-05
9.27184e-05
9.24896e-05
9.24538e-05
9.2726e-05
9.24924e-05
9.24654e-05
8.50183e-05
8.64199e-05
9.27477e-05
9.2487e-05
9.24858e-05
8.642e-05
8.66925e-05
8.83156e-05
9.24419e-05
9.24342e-05
9.25279e-05
9.25215e-05
8.67015e-05
8.8306e-05
9.24641e-05
9.24305e-05
9.255e-05
9.25223e-05
9.24413e-05
9.25505e-05
9.25278e-05
8.66862e-05
8.83201e-05
9.24612e-05
9.25538e-05
9.25467e-05
8.83104e-05
8.86349e-05
9.04345e-05
9.26153e-05
9.26062e-05
9.3031e-05
9.30229e-05
8.86362e-05
9.0419e-05
9.26361e-05
9.26048e-05
9.30519e-05
9.3029e-05
9.26135e-05
9.30499e-05
9.30325e-05
8.86435e-05
9.04229e-05
9.26321e-05
9.30584e-05
9.30501e-05
9.04241e-05
9.07962e-05
9.27164e-05
9.32182e-05
9.32111e-05
9.39204e-05
9.39075e-05
9.0791e-05
9.26971e-05
9.32379e-05
9.32126e-05
9.39398e-05
9.39166e-05
9.32175e-05
9.39332e-05
9.39255e-05
9.07967e-05
9.26953e-05
9.32346e-05
9.39444e-05
9.39414e-05
9.27052e-05
9.31165e-05
9.51371e-05
9.42048e-05
9.41912e-05
9.51816e-05
9.51874e-05
9.3102e-05
9.5135e-05
9.42232e-05
9.42075e-05
9.51998e-05
9.51704e-05
9.42113e-05
9.52116e-05
9.51773e-05
9.30975e-05
9.51359e-05
9.42271e-05
9.51969e-05
9.51917e-05
9.5134e-05
9.55723e-05
9.76479e-05
9.55407e-05
9.55519e-05
9.67875e-05
9.67567e-05
9.55696e-05
9.76311e-05
9.55577e-05
9.55377e-05
9.6804e-05
9.67715e-05
9.55476e-05
9.67789e-05
9.67819e-05
9.5551e-05
9.76702e-05
9.55612e-05
9.6796e-05
9.67955e-05
9.76675e-05
9.81084e-05
0.000100241
9.72247e-05
9.71954e-05
9.86244e-05
9.8639e-05
9.80784e-05
0.000100257
9.72407e-05
9.7211e-05
9.86401e-05
9.86448e-05
9.72152e-05
9.86612e-05
9.86461e-05
9.81225e-05
0.000100247
9.72285e-05
9.86693e-05
9.86575e-05
0.000100235
0.000100705
0.000102932
9.91719e-05
9.91728e-05
0.000100795
0.000100759
0.000100719
0.000102913
9.9186e-05
9.91532e-05
0.000100809
0.000100774
9.9163e-05
0.00010078
0.000100793
0.000100715
0.000102901
9.9174e-05
0.000100797
0.000100804
0.000102917
0.000103384
0.000105574
0.000101301
0.000101296
0.000103138
0.000103167
0.000103375
0.000105596
0.000101316
0.000101343
0.000103151
0.000103121
0.000101359
0.000103186
0.000103093
0.000103366
0.000105617
0.00010137
0.000103141
0.000103101
0.00010559
0.000106086
0.000108332
0.000103835
0.000103805
0.000105632
0.000105568
0.000106098
0.000108262
0.000103847
0.000103765
0.00010565
0.000105674
0.000103734
0.000105592
0.000105759
0.000106091
0.000108326
0.000103742
0.000105701
0.000105773
0.000108352
0.000108761
0.000111041
0.000106227
0.000106245
0.000108436
0.000108522
0.000108724
0.000111138
0.000106241
0.000106272
0.00010844
0.000108388
0.000106352
0.000108534
0.000108251
0.000108802
0.000111025
0.000106363
0.0001084
0.00010825
0.000110966
0.000111585
0.000113766
0.000109169
0.000109173
0.000111162
0.000110992
0.000111627
0.000113614
0.000109177
0.000109175
0.000111183
0.000111203
0.000109089
0.000111025
0.000111425
0.000111561
0.000113779
0.000109094
0.000111238
0.000111443
0.000113905
0.000114227
0.000116518
0.000111912
0.000111789
0.000114257
0.000114395
0.00011411
0.00011665
0.000111926
0.000111828
0.000114257
0.000114149
0.000111928
0.000114394
0.00011388
0.000114209
0.000116427
0.00011194
0.000114148
0.000113873
0.000116232
0.000116986
0.000119026
0.000114902
0.000115048
0.000116942
0.000116912
0.00011714
0.000118983
0.000114906
0.000114973
0.000116961
0.000117113
0.000114896
0.000116961
0.000117475
0.000116962
0.000119228
0.000114895
0.000117166
0.000117492
0.000119485
0.000119563
0.000122162
0.000117871
0.000117808
0.000120661
0.000120563
0.000119473
0.000122096
0.000117885
0.000117882
0.000120667
0.000120526
0.000117993
0.000120548
0.000120062
0.000119676
0.000121979
0.000118005
0.000120511
0.000120063
0.000121611
0.00012259
0.000124185
0.000121311
0.000121213
0.000123037
0.000123077
0.000122539
0.000124225
0.000121318
0.000121251
0.000123043
0.000123039
0.000121048
0.000123127
0.000123597
0.000122468
0.000124242
0.000121052
0.000123092
0.000123602
0.000124714
0.000124646
0.000127392
0.000123864
0.000123941
0.000126841
0.000126837
0.000124713
0.000127391
0.000123866
0.000123851
0.000126848
0.000126891
0.000124221
0.000126834
0.000126422
0.000124676
0.000127422
0.000124222
0.000126889
0.000126427
0.000126966
0.000127913
0.000129711
0.000127706
0.000127666
0.000129795
0.000129767
0.000127881
0.000129692
0.000127716
0.000127772
0.000129802
0.000129775
0.000127348
0.000129797
0.000129998
0.000127961
0.000129697
0.000127357
0.000129806
0.000130004
0.000129934
0.000130093
0.000132289
0.000130512
0.000130492
0.000132951
0.000132916
0.000130088
0.000132269
0.000130515
0.000130454
0.000132953
0.000132901
0.00013074
0.000132937
0.000132898
0.000130054
0.000132254
0.000130743
0.000132921
0.0001329
0.000132206
0.00013276
0.000134842
0.000133782
0.00013375
0.000136175
0.000136181
0.000132737
0.000134856
0.000133785
0.000133762
0.00013618
0.000136213
0.000133689
0.000136202
0.000136203
0.000132746
0.000134883
0.000133692
0.000136234
0.000136209
0.000134877
0.00013526
0.000137332
0.000136969
0.000136977
0.000139362
0.000139349
0.000135279
0.000137328
0.000136974
0.000137
0.000139365
0.000139347
0.000137029
0.000139373
0.00013938
0.000135297
0.000137323
0.000137035
0.00013937
0.000139383
0.000137338
0.000137753
0.000140148
0.000140132
0.000137743
0.00014015
0.000140129
0.000140138
0.000137739
0.000140141
0.000151167
0.000151163
0.000151158
0.000151159
7.00624e-05
4.95545e-05
6.9073e-05
4.95639e-05
2.3628e-05
2.36244e-05
7.00562e-05
4.95501e-05
6.90771e-05
4.95594e-05
0.000150143
0.000150139
0.000150139
0.000147073
0.000147068
0.000147066
0.000147065
6.71033e-05
6.57738e-05
0.000126168
0.000100954
6.6143e-05
6.64899e-05
0.00012515
2.36267e-05
2.3623e-05
6.71035e-05
0.000126167
6.57824e-05
0.000100954
6.61421e-05
0.00012515
6.64802e-05
6.10776e-05
6.10771e-05
8.24798e-05
6.15148e-05
6.15116e-05
7.2061e-05
4.95755e-05
7.11966e-05
4.95837e-05
2.36157e-05
2.36125e-05
7.20551e-05
4.95711e-05
7.12002e-05
4.95793e-05
0.000146062
0.000146058
0.000146059
0.000143031
0.000143028
0.000143024
0.000143025
7.00596e-05
6.76659e-05
0.000122223
9.82629e-05
6.90276e-05
6.83758e-05
0.000121257
2.36143e-05
2.3611e-05
7.0048e-05
0.000122223
6.76745e-05
9.82615e-05
6.90374e-05
0.000121257
6.83667e-05
6.20313e-05
6.203e-05
8.21625e-05
6.24315e-05
6.24285e-05
7.3809e-05
4.95939e-05
7.30517e-05
4.96011e-05
2.36043e-05
2.36015e-05
7.38031e-05
4.95895e-05
7.30549e-05
4.95967e-05
0.000142045
0.000142041
0.000142041
0.000139075
0.00013907
0.000139065
0.000139065
7.30749e-05
6.94595e-05
0.000118524
9.60813e-05
7.19845e-05
7.0149e-05
0.000117622
2.3603e-05
2.36e-05
7.30635e-05
0.000118524
6.94686e-05
9.60827e-05
7.19953e-05
0.000117622
7.0141e-05
6.29053e-05
6.29034e-05
8.23624e-05
6.3275e-05
6.32723e-05
7.53466e-05
4.961e-05
7.46776e-05
4.96163e-05
2.3594e-05
2.35914e-05
7.53402e-05
4.96056e-05
7.46808e-05
4.96119e-05
0.000138114
0.000138112
0.000138114
0.000135234
0.000135229
0.000135228
0.000135229
7.60781e-05
7.11512e-05
0.000115123
9.4421e-05
7.49526e-05
7.18208e-05
0.000114319
2.35927e-05
2.359e-05
7.60677e-05
0.000115123
7.11608e-05
9.44223e-05
7.49624e-05
0.000114319
7.18141e-05
6.37117e-05
6.37093e-05
8.30361e-05
6.40513e-05
6.40486e-05
7.67119e-05
4.96241e-05
7.61141e-05
4.96297e-05
2.35846e-05
2.35823e-05
7.67049e-05
4.96197e-05
7.61172e-05
4.96253e-05
0.000134293
0.000134289
0.00013429
0.000131528
0.000131526
0.000131524
0.000131525
7.90206e-05
7.27461e-05
0.00011203
9.32754e-05
7.78777e-05
7.33955e-05
0.000111317
2.35833e-05
2.35809e-05
7.90114e-05
0.00011203
7.27554e-05
9.32783e-05
7.78864e-05
0.000111317
7.33923e-05
6.44574e-05
6.44548e-05
8.41273e-05
6.47703e-05
6.47676e-05
7.79369e-05
4.96365e-05
7.73973e-05
4.96416e-05
2.35761e-05
2.35741e-05
7.79296e-05
4.96322e-05
7.74003e-05
4.96373e-05
0.000130629
0.000130628
0.000130628
0.000128003
0.000127998
0.000127992
0.000127994
8.18709e-05
7.42517e-05
0.000109322
9.26286e-05
8.07226e-05
7.48809e-05
0.000108707
2.35749e-05
2.35727e-05
8.18624e-05
0.000109324
7.42575e-05
9.26358e-05
8.073e-05
0.000108708
7.48812e-05
6.51498e-05
6.51469e-05
8.55865e-05
6.54405e-05
6.54377e-05
7.90472e-05
4.96479e-05
7.8557e-05
4.96527e-05
2.35687e-05
2.35669e-05
7.90414e-05
4.96435e-05
7.85593e-05
4.96483e-05
0.000127154
0.00012715
0.000127151
0.000124685
0.000124681
0.000124674
0.000124674
8.46092e-05
7.56723e-05
0.000107018
9.24637e-05
8.34657e-05
7.6284e-05
0.000106509
2.35674e-05
2.35656e-05
8.46016e-05
0.000107019
7.5672e-05
9.24696e-05
8.34724e-05
0.00010651
7.6286e-05
6.57914e-05
6.57881e-05
8.73368e-05
6.60672e-05
6.60642e-05
8.00645e-05
4.96586e-05
7.96166e-05
4.96633e-05
2.35622e-05
2.35608e-05
8.00611e-05
4.96542e-05
7.96174e-05
4.96589e-05
0.000123896
0.000123895
0.000123896
0.00012164
0.000121634
0.000121633
0.000121633
8.72284e-05
7.70142e-05
0.000105141
9.27453e-05
8.60992e-05
7.7611e-05
0.000104741
2.35608e-05
2.35594e-05
8.72241e-05
0.000105143
7.70141e-05
9.27496e-05
8.61055e-05
0.000104744
7.76076e-05
6.63936e-05
6.63903e-05
8.93417e-05
6.66523e-05
6.66489e-05
8.10058e-05
4.9669e-05
8.05935e-05
4.96738e-05
2.35567e-05
2.35556e-05
8.10038e-05
4.96647e-05
8.05925e-05
4.96694e-05
0.000120901
0.000120898
0.000120898
0.000118835
0.000118827
0.000118832
0.000118834
8.97229e-05
7.82868e-05
0.000103707
9.34468e-05
8.86274e-05
7.88622e-05
0.000103418
2.35553e-05
2.35542e-05
8.97274e-05
0.000103709
7.82926e-05
9.34462e-05
8.86261e-05
0.00010342
7.88591e-05
6.69621e-05
6.69587e-05
9.15479e-05
6.72032e-05
6.71996e-05
8.18843e-05
4.96796e-05
8.15008e-05
4.96845e-05
2.35522e-05
2.35515e-05
8.18821e-05
4.96752e-05
8.14985e-05
4.96802e-05
0.000118179
0.000118188
0.000118188
0.000116359
0.000116365
0.000116352
0.000116349
9.21064e-05
7.95001e-05
0.000102716
9.45262e-05
9.10491e-05
8.00475e-05
0.000102538
2.35508e-05
2.35501e-05
9.21112e-05
0.000102722
7.95035e-05
9.45403e-05
9.1045e-05
0.000102544
8.00526e-05
6.74956e-05
6.74919e-05
9.39028e-05
6.77285e-05
6.7725e-05
8.27089e-05
4.96906e-05
8.23491e-05
4.96957e-05
2.35487e-05
2.35483e-05
8.27053e-05
4.96862e-05
8.23471e-05
4.96914e-05
0.000115792
0.000115786
0.000115788
0.000114233
0.000114212
0.00011421
0.000114214
9.43886e-05
8.06598e-05
0.000102171
9.59564e-05
9.33712e-05
8.11743e-05
0.000102102
2.35473e-05
2.35471e-05
9.43897e-05
0.000102172
8.06501e-05
9.59582e-05
9.33669e-05
0.000102101
8.11796e-05
6.79993e-05
6.79956e-05
9.63737e-05
6.82238e-05
6.82198e-05
8.34848e-05
4.97024e-05
8.31452e-05
4.97077e-05
2.35462e-05
2.35463e-05
8.34835e-05
4.96981e-05
8.31453e-05
4.97034e-05
0.00011372
0.000113727
0.000113724
0.000112389
0.000112411
0.000112414
0.000112413
9.65755e-05
8.17554e-05
0.000102041
9.76729e-05
9.55935e-05
8.22574e-05
0.000102072
2.35448e-05
2.35449e-05
9.65793e-05
0.000102052
8.17595e-05
9.76954e-05
9.55934e-05
0.000102089
8.22509e-05
6.84884e-05
6.84853e-05
9.89487e-05
6.86869e-05
6.86819e-05
8.42198e-05
4.9715e-05
8.38984e-05
4.97208e-05
2.35447e-05
2.35451e-05
8.42209e-05
4.97108e-05
8.38987e-05
4.97166e-05
0.000112043
0.000112015
0.00011202
0.000111007
0.000110968
0.000110985
0.000110991
9.86778e-05
8.28075e-05
0.000102344
9.97317e-05
9.77322e-05
8.32877e-05
0.000102485
2.35434e-05
2.35437e-05
9.86834e-05
0.000102338
8.2812e-05
9.96983e-05
9.77279e-05
0.000102472
8.32856e-05
6.8955e-05
6.89514e-05
0.000101594
6.91477e-05
6.91438e-05
8.49189e-05
4.97285e-05
8.46128e-05
4.9735e-05
2.35442e-05
2.35451e-05
8.49203e-05
4.97242e-05
8.46142e-05
4.97307e-05
0.000110634
0.000110678
0.000110695
0.000109909
0.000109944
0.00010989
0.000109859
0.000100693
8.38118e-05
0.000103
0.0001019
9.97959e-05
8.42629e-05
0.000103222
2.35429e-05
2.35437e-05
0.000100702
0.000103023
8.38113e-05
0.000101945
9.97887e-05
0.000103243
8.42787e-05
6.93829e-05
6.9378e-05
0.000104235
6.95811e-05
6.95772e-05
8.55946e-05
4.9744e-05
8.52979e-05
4.97504e-05
2.35448e-05
2.35458e-05
8.55951e-05
4.97396e-05
8.53006e-05
4.97461e-05
0.000109759
0.000109713
0.000109652
0.000109177
0.000109113
0.000109229
0.000109325
0.000102655
8.47903e-05
0.000104076
0.000104417
0.000101791
8.52192e-05
0.000104387
2.35433e-05
2.35445e-05
0.000102656
0.00010406
8.47754e-05
0.000104443
0.000101786
0.000104397
8.52192e-05
6.98076e-05
6.98034e-05
0.000106968
7.00007e-05
6.99961e-05
8.62367e-05
4.97595e-05
8.59494e-05
4.97678e-05
2.35464e-05
2.35479e-05
8.62374e-05
4.97553e-05
8.59539e-05
4.97634e-05
0.000108984
0.00010904
0.000109158
0.000108924
0.000109032
0.000108844
0.000108664
0.000104535
8.56867e-05
0.000105394
0.000107021
0.000103714
8.61434e-05
0.000105803
2.35447e-05
2.35464e-05
0.000104536
0.00010543
8.57043e-05
0.00010693
0.000103716
0.000105781
8.61106e-05
7.02062e-05
7.02028e-05
0.000109626
7.03796e-05
7.03748e-05
8.68661e-05
4.97779e-05
8.6594e-05
4.97853e-05
2.35483e-05
2.35502e-05
8.68719e-05
4.97737e-05
8.65976e-05
4.9781e-05
0.000108998
0.000108928
0.000108772
0.000108833
0.000108661
0.000108934
0.000109215
0.000106381
8.66097e-05
0.00010718
0.000109775
0.000105596
8.69787e-05
0.000107622
2.35473e-05
2.35488e-05
0.000106398
0.00010715
8.66193e-05
0.000109942
0.000105581
0.000107684
8.70191e-05
7.06162e-05
7.06124e-05
0.000112502
7.0798e-05
7.07944e-05
8.74794e-05
4.97966e-05
8.72022e-05
4.98054e-05
2.35521e-05
2.35543e-05
8.74746e-05
4.97922e-05
8.72056e-05
4.98012e-05
0.000108753
0.000108861
0.000109052
0.000109427
0.000109546
0.000109251
0.000108883
0.00010815
8.74405e-05
0.000109019
0.000112697
0.000107391
8.78686e-05
0.000109586
2.35503e-05
2.35526e-05
0.000108137
0.000109085
8.74357e-05
0.000112536
0.000107395
0.000109536
8.78256e-05
7.09608e-05
7.09557e-05
0.000114976
7.10911e-05
7.10855e-05
8.80633e-05
4.98167e-05
8.78093e-05
4.98262e-05
2.35556e-05
2.35579e-05
8.80697e-05
4.98125e-05
8.78144e-05
4.98219e-05
0.000109637
0.000109503
0.00010929
0.000109665
0.000109704
0.000109903
0.000110374
0.000109904
8.83169e-05
0.000111394
0.000115637
0.000109166
8.86335e-05
0.000111947
2.35549e-05
2.35571e-05
0.000109921
0.000111321
8.82974e-05
0.000115761
0.000109139
0.000111982
8.86911e-05
7.13829e-05
7.13794e-05
0.000117992
7.15591e-05
7.15555e-05
8.8668e-05
4.98411e-05
8.83989e-05
4.98504e-05
2.35609e-05
2.35635e-05
8.86655e-05
4.98363e-05
8.8402e-05
4.98457e-05
0.00011001
0.000110105
0.000110373
0.000111475
0.000111343
0.000111325
0.000110738
0.000111576
8.90591e-05
0.00011371
0.000118808
0.00011087
8.95013e-05
0.00011441
2.35594e-05
2.35623e-05
0.00011157
0.000113784
8.90757e-05
0.000118765
0.000110885
0.000114418
8.9453e-05
7.16584e-05
7.16541e-05
0.000120397
7.17939e-05
7.17878e-05
8.92074e-05
4.98614e-05
8.89865e-05
4.98715e-05
2.35656e-05
2.3569e-05
8.92099e-05
4.98565e-05
8.89844e-05
4.98666e-05
0.000111585
0.000111633
0.000111227
0.000112002
0.000112036
0.000111999
0.000112605
0.000113235
8.98821e-05
0.000116528
0.000121794
0.000112552
9.01558e-05
0.000117156
2.35646e-05
2.35674e-05
0.000113246
0.000116543
8.98891e-05
0.000121864
0.000112528
0.000117195
9.01851e-05
7.2064e-05
7.20597e-05
0.000123314
7.22207e-05
7.22167e-05
8.97971e-05
4.9889e-05
8.95275e-05
4.99011e-05
2.35737e-05
2.35769e-05
8.97932e-05
4.98841e-05
8.95226e-05
4.98962e-05
0.000112405
0.000112303
0.00011284
0.000114134
0.000114169
0.00011419
0.000113761
0.000114815
9.05749e-05
0.000119107
0.000124942
0.000114135
9.09949e-05
0.00011988
2.35724e-05
2.35759e-05
0.000114802
0.000119066
9.05488e-05
0.000124859
0.000114127
0.000119829
9.09833e-05
7.23309e-05
7.23261e-05
0.000125717
7.24712e-05
7.2466e-05
9.03395e-05
4.99139e-05
9.01241e-05
4.99236e-05
2.35796e-05
2.35828e-05
9.03386e-05
4.9909e-05
9.01243e-05
4.99186e-05
0.000114731
0.000114824
0.000114311
0.000116036
0.000116007
0.000116058
0.000116141
0.000116432
9.13865e-05
0.000122395
0.000128404
0.000115774
9.16647e-05
0.000123197
2.35784e-05
2.35813e-05
0.000116446
0.000122454
9.1415e-05
0.000128513
0.000115775
0.000123273
9.16773e-05
7.26932e-05
7.26891e-05
0.000128529
7.28505e-05
7.28458e-05
9.08635e-05
4.99398e-05
9.06271e-05
4.99524e-05
2.35873e-05
2.35914e-05
9.08584e-05
4.99349e-05
9.062e-05
4.99475e-05
0.000116419
0.000116414
0.000116653
0.000117996
0.000117965
0.000117921
0.000118032
0.000117886
9.20011e-05
0.000125453
0.000131301
0.000117272
9.23404e-05
0.000126214
2.3586e-05
2.35903e-05
0.00011787
0.00012545
9.19813e-05
0.000131247
0.000117259
0.000126189
9.233e-05
7.29834e-05
7.29781e-05
0.000131065
7.3102e-05
7.30971e-05
9.13998e-05
4.99686e-05
9.11752e-05
4.99804e-05
2.35958e-05
2.35997e-05
9.13976e-05
4.99637e-05
9.11724e-05
4.99754e-05
0.000118563
0.000118543
0.000118555
0.000120436
0.000120454
0.000120488
0.000120439
0.000119378
9.27149e-05
0.000128653
0.000134587
0.000118748
9.30275e-05
0.000129508
2.35948e-05
2.35986e-05
0.000119382
0.000128652
9.27241e-05
0.000134616
0.000118743
0.000129523
9.30347e-05
7.32722e-05
7.32679e-05
0.00013352
7.34215e-05
7.34168e-05
9.19055e-05
4.99971e-05
9.16871e-05
5.00095e-05
2.36044e-05
2.36087e-05
9.19016e-05
4.99921e-05
9.1682e-05
5.00046e-05
0.000121104
0.000121138
0.000121123
0.000123079
0.000123087
0.000123091
0.000123132
0.000120803
9.33642e-05
0.000132122
0.000137797
0.000120212
9.36662e-05
0.000132995
2.36033e-05
2.36075e-05
0.000120797
0.000132147
9.33627e-05
0.000137809
0.000120208
0.000133014
9.36645e-05
7.35739e-05
7.35688e-05
0.000136145
7.36974e-05
7.36922e-05
5.00264e-05
9.21894e-05
2.36136e-05
5.00214e-05
9.21843e-05
0.000123763
0.000123761
0.000123786
9.39949e-05
0.000135592
0.000121592
2.36126e-05
0.000135594
9.3993e-05
0.000121585
7.3835e-05
7.383e-05
2.36323e-05
2.36303e-05
6.10288e-05
6.10273e-05
4.9553e-05
6.89592e-05
4.95492e-05
6.89573e-05
6.55096e-05
0.000127156
6.56828e-05
6.55095e-05
0.000127152
6.56813e-05
2.36308e-05
6.10353e-05
6.10389e-05
2.36317e-05
4.95485e-05
6.89514e-05
6.55046e-05
0.000127159
6.56818e-05
4.95451e-05
6.8956e-05
0.00012715
6.55095e-05
6.56803e-05
6.55087e-05
0.000127163
6.56817e-05
4.95504e-05
6.89522e-05
0.000127158
6.55027e-05
6.56807e-05
4.95471e-05
6.89501e-05
2.36295e-05
6.10371e-05
6.10426e-05
2.36313e-05
0.000127162
6.5511e-05
6.56816e-05
0.000127164
6.55072e-05
6.56801e-05
4.95496e-05
6.89504e-05
4.95453e-05
6.89474e-05
6.10276e-05
6.10268e-05
2.36308e-05
2.36297e-05
2.36295e-05
2.3626e-05
2.36276e-05
2.36241e-05
6.10734e-05
6.1071e-05
8.24893e-05
6.15237e-05
6.15214e-05
2.36198e-05
2.36233e-05
2.36179e-05
2.36214e-05
8.22742e-05
6.19868e-05
6.19842e-05
6.1568e-05
6.15649e-05
7.00604e-05
4.95507e-05
6.90707e-05
4.956e-05
6.71037e-05
6.57741e-05
0.000126167
0.000100924
6.61438e-05
6.64933e-05
0.000125139
6.71023e-05
6.57728e-05
0.000126158
0.000100913
6.61423e-05
6.64898e-05
0.000125139
7.01692e-05
4.95741e-05
4.95653e-05
7.10967e-05
7.01665e-05
4.95702e-05
4.95615e-05
7.10948e-05
6.75775e-05
0.000100206
6.74477e-05
0.000123164
6.67353e-05
0.000124167
6.85587e-05
6.75759e-05
0.000100195
6.74375e-05
0.000123163
6.67387e-05
0.000124158
6.85571e-05
6.10794e-05
6.10829e-05
8.24878e-05
6.15083e-05
6.15106e-05
2.36288e-05
2.36253e-05
2.36183e-05
2.36218e-05
8.22694e-05
6.19875e-05
6.199e-05
6.15554e-05
6.15591e-05
2.36191e-05
2.36227e-05
6.71027e-05
6.57735e-05
0.000126161
0.000100952
6.61425e-05
6.64882e-05
0.000125149
7.00609e-05
4.95466e-05
6.90686e-05
4.95558e-05
6.71015e-05
0.000126153
6.57771e-05
0.000100911
6.61412e-05
0.000125141
6.64782e-05
7.01746e-05
4.95697e-05
4.95609e-05
7.10884e-05
6.75769e-05
0.000100233
6.74425e-05
0.000123174
6.67346e-05
0.000124162
6.85578e-05
7.01659e-05
4.95662e-05
4.95574e-05
7.1093e-05
6.75749e-05
0.000100193
0.000123165
6.74406e-05
0.000124153
6.67322e-05
6.8563e-05
7.00565e-05
4.95519e-05
6.90788e-05
4.95612e-05
6.71037e-05
0.000126163
6.5779e-05
0.000100921
6.61418e-05
0.000125146
6.64791e-05
7.00548e-05
4.95486e-05
6.90771e-05
4.95578e-05
6.75736e-05
0.000100236
6.74372e-05
0.000123174
6.67407e-05
0.000124168
6.85688e-05
7.01741e-05
4.95714e-05
4.95627e-05
7.10907e-05
6.75688e-05
0.000100202
0.00012317
6.74359e-05
0.000124164
6.67364e-05
6.85719e-05
7.01727e-05
4.95682e-05
4.95593e-05
7.10887e-05
6.10845e-05
6.10903e-05
8.24897e-05
6.15001e-05
6.15075e-05
2.36285e-05
2.36248e-05
2.3617e-05
2.36204e-05
8.22689e-05
6.19985e-05
6.20049e-05
6.15441e-05
6.1551e-05
2.36188e-05
2.36222e-05
6.71018e-05
0.000126169
6.57752e-05
0.000100948
6.61405e-05
0.000125152
6.64827e-05
7.00574e-05
4.95511e-05
6.90772e-05
4.95603e-05
7.00545e-05
4.95468e-05
6.90755e-05
4.95561e-05
6.75775e-05
0.000100236
0.000123174
6.74433e-05
0.000124167
6.67372e-05
6.85571e-05
6.75758e-05
0.000100229
0.000123176
6.74392e-05
0.00012417
6.67325e-05
6.85559e-05
7.01749e-05
4.95705e-05
4.95618e-05
7.10887e-05
7.01734e-05
4.95664e-05
4.95575e-05
7.10857e-05
2.3628e-05
2.36243e-05
2.36269e-05
2.36232e-05
8.22631e-05
6.19887e-05
6.19874e-05
6.15555e-05
6.15521e-05
2.36183e-05
2.36216e-05
2.36172e-05
2.36206e-05
2.36173e-05
2.3614e-05
2.36154e-05
2.36121e-05
6.20289e-05
6.20259e-05
8.21756e-05
6.24423e-05
6.24386e-05
2.36083e-05
2.36115e-05
2.36064e-05
2.36096e-05
8.20708e-05
6.28646e-05
6.28612e-05
6.24812e-05
6.24776e-05
7.20588e-05
4.95716e-05
7.11939e-05
4.958e-05
7.00441e-05
6.76723e-05
0.000122222
9.82343e-05
6.9042e-05
6.83754e-05
0.000121246
7.00478e-05
6.76646e-05
0.000122212
9.82233e-05
6.90361e-05
6.83748e-05
0.000121246
7.21542e-05
4.95928e-05
4.95849e-05
7.29653e-05
7.21514e-05
4.95888e-05
4.95812e-05
7.29633e-05
7.05146e-05
9.7641e-05
6.92733e-05
0.000119393
6.8581e-05
0.000120339
7.15507e-05
7.05076e-05
9.76321e-05
6.92651e-05
0.000119393
6.85836e-05
0.000120329
7.15546e-05
6.20243e-05
6.20265e-05
8.21645e-05
6.24352e-05
6.24401e-05
2.36165e-05
2.36134e-05
2.36067e-05
2.361e-05
8.20603e-05
6.28561e-05
6.28582e-05
6.24809e-05
6.24864e-05
2.36076e-05
2.36109e-05
7.00507e-05
6.76716e-05
0.000122216
9.82621e-05
6.90345e-05
6.83702e-05
0.000121256
7.20595e-05
4.95675e-05
7.11916e-05
4.95758e-05
7.00553e-05
0.000122208
6.76685e-05
9.82196e-05
6.90277e-05
0.000121248
6.83642e-05
7.21595e-05
4.95884e-05
4.95805e-05
7.29565e-05
7.05086e-05
9.76675e-05
6.92681e-05
0.000119403
6.85799e-05
0.000120333
7.15553e-05
7.21507e-05
4.95848e-05
4.95771e-05
7.29611e-05
7.05017e-05
9.76276e-05
0.000119395
6.92669e-05
0.000120325
6.85773e-05
7.15592e-05
7.20543e-05
4.95727e-05
7.12026e-05
4.95811e-05
7.00629e-05
0.000122219
6.76728e-05
9.82299e-05
6.90224e-05
0.000121253
6.83632e-05
7.20526e-05
4.95695e-05
7.12008e-05
4.95778e-05
7.04993e-05
9.76712e-05
6.92656e-05
0.000119404
6.8586e-05
0.00012034
7.15663e-05
7.21586e-05
4.95899e-05
4.95823e-05
7.29595e-05
7.04939e-05
9.76385e-05
0.0001194
6.92645e-05
0.000120336
6.85805e-05
7.15693e-05
7.2157e-05
4.95868e-05
4.9579e-05
7.29576e-05
6.20365e-05
6.20433e-05
8.21705e-05
6.24179e-05
6.24249e-05
2.36161e-05
2.36128e-05
2.36055e-05
2.36087e-05
8.20584e-05
6.28715e-05
6.28786e-05
6.24621e-05
6.24687e-05
2.36073e-05
2.36104e-05
7.00493e-05
0.000122225
6.7669e-05
9.82563e-05
6.90333e-05
0.000121259
6.83662e-05
7.20551e-05
4.95718e-05
7.12013e-05
4.95801e-05
7.20522e-05
4.95677e-05
7.11995e-05
4.9576e-05
7.05111e-05
9.76695e-05
0.000119404
6.92701e-05
0.000120339
6.85832e-05
7.15525e-05
7.0506e-05
9.76646e-05
0.000119407
6.92677e-05
0.000120342
6.85761e-05
7.15544e-05
7.21591e-05
4.95891e-05
4.95814e-05
7.29575e-05
7.21574e-05
4.95851e-05
4.95773e-05
7.29546e-05
2.36157e-05
2.36123e-05
2.36146e-05
2.36113e-05
8.20562e-05
6.28651e-05
6.28632e-05
6.24711e-05
6.24682e-05
2.36068e-05
2.36099e-05
2.36057e-05
2.36088e-05
2.3606e-05
2.3603e-05
2.36041e-05
2.36011e-05
6.29054e-05
6.2902e-05
8.23713e-05
6.32859e-05
6.32817e-05
2.35978e-05
2.36006e-05
2.35959e-05
2.35987e-05
8.2371e-05
6.3673e-05
6.36688e-05
6.33235e-05
6.33195e-05
7.38068e-05
4.959e-05
7.3049e-05
4.95974e-05
7.30604e-05
6.94638e-05
0.000118523
9.60549e-05
7.19985e-05
7.01517e-05
0.00011761
7.30637e-05
6.94572e-05
0.000118513
9.60434e-05
7.19917e-05
7.01473e-05
0.00011761
7.38898e-05
4.9609e-05
4.96022e-05
7.4603e-05
7.38869e-05
4.96052e-05
4.95984e-05
7.46009e-05
7.3484e-05
9.55919e-05
7.09977e-05
0.000115904
7.03222e-05
0.000116781
7.45683e-05
7.34769e-05
9.55818e-05
7.09906e-05
0.000115904
7.03224e-05
0.000116771
7.45716e-05
6.28925e-05
6.28943e-05
8.236e-05
6.32825e-05
6.32883e-05
2.36052e-05
2.36024e-05
2.35962e-05
2.35992e-05
8.23592e-05
6.36644e-05
6.36669e-05
6.33234e-05
6.33289e-05
2.3597e-05
2.36e-05
7.30665e-05
6.94627e-05
0.000118518
9.60822e-05
7.1991e-05
7.01465e-05
0.000117621
7.38074e-05
4.95859e-05
7.30463e-05
4.95933e-05
7.30699e-05
0.00011851
6.94621e-05
9.60424e-05
7.19849e-05
0.000117613
7.01376e-05
7.38951e-05
4.96047e-05
4.95978e-05
7.45944e-05
7.3478e-05
9.56179e-05
7.09925e-05
0.000115915
7.03208e-05
0.000116776
7.45728e-05
7.38863e-05
4.96011e-05
4.95943e-05
7.45988e-05
7.34717e-05
9.55794e-05
0.000115907
7.09916e-05
0.000116768
7.03155e-05
7.45756e-05
7.38023e-05
4.95911e-05
7.30575e-05
4.95985e-05
7.30778e-05
0.00011852
6.94657e-05
9.60525e-05
7.19791e-05
0.000117618
7.01376e-05
7.38005e-05
4.9588e-05
7.3056e-05
4.95952e-05
7.34699e-05
9.56192e-05
7.09919e-05
0.000115916
7.03256e-05
0.000116783
7.45823e-05
7.38944e-05
4.96062e-05
4.95995e-05
7.45968e-05
7.34646e-05
9.55893e-05
0.000115913
7.09891e-05
0.000116779
7.03206e-05
7.45849e-05
7.38929e-05
4.96032e-05
4.95963e-05
7.45949e-05
6.29086e-05
6.29158e-05
8.23688e-05
6.32666e-05
6.32738e-05
2.36048e-05
2.36018e-05
2.3595e-05
2.35978e-05
8.23628e-05
6.36745e-05
6.36816e-05
6.33061e-05
6.33132e-05
2.35967e-05
2.35995e-05
7.30652e-05
0.000118527
6.94618e-05
9.60777e-05
7.19896e-05
0.000117625
7.01402e-05
7.38029e-05
4.95902e-05
7.30563e-05
4.95975e-05
7.38e-05
4.95862e-05
7.30545e-05
4.95935e-05
7.34813e-05
9.56196e-05
0.000115916
7.09952e-05
0.000116782
7.03222e-05
7.45698e-05
7.34757e-05
9.56142e-05
0.000115919
7.09918e-05
0.000116785
7.03163e-05
7.45715e-05
7.38948e-05
4.96053e-05
4.95986e-05
7.4595e-05
7.3893e-05
4.96014e-05
4.95945e-05
7.45921e-05
2.36043e-05
2.36013e-05
2.36033e-05
2.36003e-05
8.23588e-05
6.36727e-05
6.36703e-05
6.3313e-05
6.33103e-05
2.35962e-05
2.3599e-05
2.35952e-05
2.3598e-05
2.35956e-05
2.35929e-05
2.35937e-05
2.3591e-05
6.37122e-05
6.3708e-05
8.3041e-05
6.40622e-05
6.40577e-05
2.35882e-05
2.35907e-05
2.35863e-05
2.35888e-05
8.31321e-05
6.44213e-05
6.44166e-05
6.40982e-05
6.40938e-05
7.53444e-05
4.96062e-05
7.46749e-05
4.96126e-05
7.60649e-05
7.11554e-05
0.000115121
9.43949e-05
7.49658e-05
7.18235e-05
0.000114307
7.60675e-05
7.1148e-05
0.000115112
9.43852e-05
7.49591e-05
7.18188e-05
0.000114307
7.54163e-05
4.96233e-05
4.96172e-05
7.60493e-05
7.54134e-05
4.96194e-05
4.96135e-05
7.60472e-05
7.64354e-05
9.40615e-05
7.26226e-05
0.000112754
7.19635e-05
0.000113522
7.75473e-05
7.64283e-05
9.40529e-05
7.26161e-05
0.000112754
7.1963e-05
0.000113513