/*--------------------------------*- C++ -*----------------------------------*\
| =========                 |                                                 |
| \\      /  F ield         | OpenFOAM: The Open Source CFD Toolbox           |
|  \\    /   O peration     | Version:  v2006                                 |
|   \\  /    A nd           | Website:  www.openfoam.com                      |
|    \\/     M anipulation  |                                                 |
\*---------------------------------------------------------------------------*/
FoamFile
{
    version     2.0;
    format      ascii;
    class       surfaceScalarField;
    location    "375";
    object      phi;
}
// * * * * * * * * * * * * * * * * * * * * * * * * * * * * * * * * * * * * * //

dimensions      [0 3 -1 0 0 0 0];
oriented        oriented;


internalField   nonuniform List<scalar> 
124860
(
-8.4505e-07
-8.45385e-07
-0.00114629
4.47117e-07
4.47836e-07
0.00114709
-0.00113698
-1.51023e-06
8.45298e-07
4.1579e-07
0.00113747
-4.93735e-07
1.12574e-06
1.23006e-07
7.264e-07
-5.38376e-07
-1.24202e-06
5.60003e-08
-0.00113689
-1.50748e-06
8.44815e-07
4.15664e-07
0.00113738
-4.95575e-07
1.12338e-06
1.27536e-07
7.20686e-07
-5.35765e-07
-1.23611e-06
5.26567e-08
-0.000276403
1.53991e-06
1.4969e-06
-4.86718e-07
-4.97626e-07
0.00027435
-8.23783e-07
-8.24128e-07
-0.00114944
4.37801e-07
4.38499e-07
0.00115021
-0.00113887
-1.50267e-06
8.24514e-07
4.07763e-07
0.00113932
-4.82393e-07
1.13117e-06
1.27326e-07
7.33245e-07
-5.2144e-07
-1.22465e-06
6.2553e-08
-0.00113878
-1.49918e-06
8.2398e-07
4.0719e-07
0.00113922
-4.82985e-07
1.12921e-06
1.31598e-07
7.27005e-07
-5.19346e-07
-1.21932e-06
5.92012e-08
-0.000276483
1.53169e-06
1.48878e-06
-4.73292e-07
-4.84024e-07
0.000274419
-8.02307e-07
-8.02565e-07
-0.00115249
4.2837e-07
4.29053e-07
0.00115324
-0.00114057
-1.49413e-06
8.03058e-07
4.00223e-07
0.00114096
-4.6968e-07
1.13616e-06
1.3241e-07
7.39791e-07
-5.04983e-07
-1.20655e-06
6.87298e-08
-0.00114048
-1.49059e-06
8.02505e-07
3.99687e-07
0.00114087
-4.70702e-07
1.13418e-06
1.36413e-07
7.33695e-07
-5.02747e-07
-1.20129e-06
6.56121e-08
-0.000276497
1.52293e-06
1.47999e-06
-4.6012e-07
-4.70865e-07
0.000274425
-7.80228e-07
-7.80368e-07
-0.00115544
4.18532e-07
4.1926e-07
0.00115617
-0.00114207
-1.48402e-06
7.80709e-07
3.92648e-07
0.00114241
-4.56175e-07
1.14136e-06
1.37601e-07
7.45869e-07
-4.89168e-07
-1.18842e-06
7.48527e-08
-0.00114198
-1.48073e-06
7.80139e-07
3.92095e-07
0.00114232
-4.57817e-07
1.13925e-06
1.41498e-07
7.40072e-07
-4.86723e-07
-1.18294e-06
7.18576e-08
-0.000276451
1.51287e-06
1.4699e-06
-4.46263e-07
-4.57004e-07
0.000274371
-7.57697e-07
-7.57809e-07
-0.0011583
4.08761e-07
4.09469e-07
0.00115899
-0.00114337
-1.47267e-06
7.57942e-07
3.84696e-07
0.00114367
-4.42916e-07
1.14639e-06
1.42336e-07
7.51935e-07
-4.73695e-07
-1.17045e-06
8.12496e-08
-0.00114328
-1.46969e-06
7.57421e-07
3.84142e-07
0.00114357
-4.45008e-07
1.14421e-06
1.46278e-07
7.46353e-07
-4.71088e-07
-1.16474e-06
7.83121e-08
-0.000276351
1.50177e-06
1.45877e-06
-4.32103e-07
-4.42814e-07
0.000274265
-7.34929e-07
-7.35016e-07
-0.00116105
3.99143e-07
3.99836e-07
0.00116172
-0.00114448
-1.46054e-06
7.35081e-07
3.76179e-07
0.00114472
-4.30126e-07
1.15127e-06
1.46877e-07
7.58149e-07
-4.58533e-07
-1.15255e-06
8.78133e-08
-0.00114438
-1.45798e-06
7.34615e-07
3.75738e-07
0.00114463
-4.32825e-07
1.14879e-06
1.50572e-07
7.52768e-07
-4.55764e-07
-1.14669e-06
8.49243e-08
-0.000276204
1.48994e-06
1.44691e-06
-4.1805e-07
-4.28759e-07
0.000274114
-7.12277e-07
-7.12416e-07
-0.00116369
3.9005e-07
3.90577e-07
0.00116433
-0.00114539
-1.44794e-06
7.12174e-07
3.66379e-07
0.00114559
-4.17711e-07
1.1562e-06
1.51701e-07
7.64424e-07
-4.43803e-07
-1.13484e-06
9.43317e-08
-0.0011453
-1.44582e-06
7.1247e-07
3.67268e-07
0.0011455
-4.2125e-07
1.15304e-06
1.54368e-07
7.59086e-07
-4.40945e-07
-1.12906e-06
9.15403e-08
-0.000276019
1.47774e-06
1.43469e-06
-4.04389e-07
-4.15073e-07
0.000273926
-6.89644e-07
-6.89691e-07
-0.00116622
3.81247e-07
3.81847e-07
0.00116684
-0.00114612
-1.43523e-06
6.89516e-07
3.56107e-07
0.00114627
-4.0595e-07
1.16085e-06
1.56314e-07
7.70711e-07
-4.29495e-07
-1.11749e-06
1.00842e-07
-0.00114603
-1.43267e-06
6.89583e-07
3.5667e-07
0.00114618
-4.09192e-07
1.15785e-06
1.58769e-07
7.65211e-07
-4.26652e-07
-1.11194e-06
9.81592e-08
-0.000275803
1.46488e-06
1.42186e-06
-3.90739e-07
-4.01364e-07
0.000273709
-6.66677e-07
-6.66645e-07
-0.00116865
3.72557e-07
3.73255e-07
0.00116923
-0.00114667
-1.42218e-06
6.66513e-07
3.44415e-07
0.00114678
-3.94458e-07
1.16552e-06
1.60884e-07
7.76877e-07
-4.15597e-07
-1.10074e-06
1.07438e-07
-0.00114658
-1.41933e-06
6.6617e-07
3.44264e-07
0.00114669
-3.97096e-07
1.16293e-06
1.63888e-07
7.71367e-07
-4.12849e-07
-1.09519e-06
1.04738e-07
-0.000275564
1.45167e-06
1.40865e-06
-3.77346e-07
-3.87964e-07
0.000273469
-6.43794e-07
-6.43823e-07
-0.00117095
3.64488e-07
3.65186e-07
0.00117151
-0.00114706
-1.4093e-06
6.43813e-07
3.32489e-07
0.00114713
-3.83491e-07
1.16992e-06
1.65231e-07
7.82943e-07
-4.02225e-07
-1.08457e-06
1.13943e-07
-0.00114696
-1.40665e-06
6.43326e-07
3.31896e-07
0.00114704
-3.86092e-07
1.16728e-06
1.68523e-07
7.77571e-07
-3.99512e-07
-1.07889e-06
1.11204e-07
-0.000275309
1.43867e-06
1.39564e-06
-3.64682e-07
-3.75298e-07
0.000273215
-6.20281e-07
-6.20441e-07
-0.00117314
3.5638e-07
3.56671e-07
0.00117367
-0.00114729
-1.39601e-06
6.19714e-07
3.17769e-07
0.00114732
-3.72217e-07
1.17474e-06
1.70067e-07
7.88903e-07
-3.89303e-07
-1.069e-06
1.20484e-07
-0.00114719
-1.39399e-06
6.20524e-07
3.19563e-07
0.00114723
-3.75832e-07
1.17123e-06
1.72313e-07
7.83518e-07
-3.86579e-07
-1.06341e-06
1.17678e-07
-0.000275044
1.42588e-06
1.38286e-06
-3.5265e-07
-3.63207e-07
0.000272951
-5.95467e-07
-5.95352e-07
-0.0011752
3.46603e-07
3.4731e-07
0.0011757
-0.00114738
-1.38375e-06
5.96479e-07
3.04563e-07
0.00114738
-3.61934e-07
1.1788e-06
1.74597e-07
7.94824e-07
-3.76969e-07
-1.05397e-06
1.26762e-07
-0.00114728
-1.38076e-06
5.96168e-07
3.04333e-07
0.00114728
-3.64918e-07
1.17601e-06
1.76985e-07
7.89228e-07
-3.74184e-07
-1.0486e-06
1.24146e-07
-0.000274774
1.41264e-06
1.36974e-06
-3.40642e-07
-3.51089e-07
0.000272684
-5.73291e-07
-5.7323e-07
-0.00117714
3.40674e-07
3.4134e-07
0.00117761
-0.00114733
-1.37123e-06
5.72435e-07
2.88054e-07
0.00114731
-3.51817e-07
1.18307e-06
1.79178e-07
8.00402e-07
-3.65036e-07
-1.03979e-06
1.33054e-07
-0.00114724
-1.36829e-06
5.72136e-07
2.88362e-07
0.00114721
-3.54292e-07
1.18045e-06
1.82049e-07
7.94888e-07
-3.62373e-07
-1.03428e-06
1.3036e-07
-0.000274503
1.40038e-06
1.35742e-06
-3.29631e-07
-3.40164e-07
0.000272415
-5.48074e-07
-5.48145e-07
-0.00117896
3.30706e-07
3.31359e-07
0.00117939
-0.00114718
-1.35951e-06
5.49441e-07
2.72919e-07
0.00114713
-3.4231e-07
1.18671e-06
1.83212e-07
8.05604e-07
-3.53716e-07
-1.02638e-06
1.39004e-07
-0.00114708
-1.35653e-06
5.48506e-07
2.71987e-07
0.00114703
-3.44483e-07
1.18434e-06
1.86807e-07
8.00326e-07
-3.50994e-07
-1.02071e-06
1.36389e-07
-0.000274235
1.38859e-06
1.34561e-06
-3.19465e-07
-3.30026e-07
0.00027215
-5.24014e-07
-5.24522e-07
-0.00118064
3.24912e-07
3.24375e-07
0.00118104
-0.00114693
-1.347e-06
5.22708e-07
2.51427e-07
0.00114685
-3.31419e-07
1.19164e-06
1.8902e-07
8.11096e-07
-3.42535e-07
-1.01323e-06
1.45381e-07
-0.00114683
-1.34505e-06
5.24962e-07
2.54361e-07
0.00114675
-3.35278e-07
1.18796e-06
1.90937e-07
8.05282e-07
-3.40183e-07
-1.00808e-06
1.42187e-07
-0.000273971
1.37695e-06
1.33403e-06
-3.0955e-07
-3.19999e-07
0.000271889
-5.01512e-07
-5.00586e-07
-0.00118219
3.15281e-07
3.18215e-07
0.00118256
-0.00114658
-1.3374e-06
5.0314e-07
2.40944e-07
0.00114648
-3.23704e-07
1.19391e-06
1.92355e-07
8.15329e-07
-3.33e-07
-1.00161e-06
1.49959e-07
-0.00114649
-1.33389e-06
4.99191e-07
2.38833e-07
0.00114639
-3.26204e-07
1.19154e-06
1.94937e-07
8.10217e-07
-3.29644e-07
-9.95834e-07
1.48067e-07
-0.000273715
1.3656e-06
1.32285e-06
-3.00096e-07
-3.10465e-07
0.000271637
-4.73697e-07
-4.75256e-07
-0.00118361
3.08833e-07
3.0519e-07
0.00118395
-0.00114617
-1.32514e-06
4.71257e-07
2.13457e-07
0.00114606
-3.13793e-07
1.19859e-06
1.97159e-07
8.20952e-07
-3.21725e-07
-9.89293e-07
1.57011e-07
-0.00114607
-1.32242e-06
4.7623e-07
2.15746e-07
0.00114596
-3.16198e-07
1.19615e-06
2.00576e-07
8.14819e-07
-3.19992e-07
-9.84352e-07
1.5347e-07
-0.000273464
1.3554e-06
1.31231e-06
-2.91378e-07
-3.02025e-07
0.000271389
-4.53297e-07
-4.50565e-07
-0.0011849
2.97904e-07
3.0489e-07
0.0011852
-0.0011457
-1.3169e-06
4.56185e-07
2.09164e-07
0.00114556
-3.06818e-07
1.20048e-06
2.00447e-07
8.23899e-07
-3.14227e-07
-9.79652e-07
1.6021e-07
-0.0011456
-1.31382e-06
4.48764e-07
2.04991e-07
0.00114548
-3.09598e-07
1.19782e-06
2.02916e-07
8.19147e-07
-3.1064e-07
-9.73528e-07
1.58458e-07
-0.000273226
1.3444e-06
1.30194e-06
-2.82761e-07
-2.93057e-07
0.000271155
-4.19909e-07
-4.22938e-07
-0.00118607
2.86611e-07
2.80103e-07
0.00118635
-0.00114517
-1.3046e-06
4.19801e-07
1.72911e-07
0.00114504
-2.96886e-07
1.20566e-06
2.05547e-07
8.30038e-07
-3.02965e-07
-9.6757e-07
1.67706e-07
-0.00114508
-1.30262e-06
4.28068e-07
1.79523e-07
0.00114494
-2.99877e-07
1.20242e-06
2.08406e-07
8.23938e-07
-3.01278e-07
-9.62695e-07
1.64099e-07
-0.000272991
1.33623e-06
1.29283e-06
-2.75368e-07
-2.86208e-07
0.000270924
-4.07677e-07
-4.05318e-07
-0.00118711
2.89285e-07
2.9427e-07
0.00118734
-0.00114462
-1.29879e-06
4.03735e-07
1.77588e-07
0.00114447
-2.91752e-07
1.20596e-06
2.07756e-07
8.32169e-07
-2.96816e-07
-9.59431e-07
1.70016e-07
-0.00114451
-1.29536e-06
3.97945e-07
1.72793e-07
0.00114437
-2.94361e-07
1.20347e-06
2.10367e-07
8.26971e-07
-2.93552e-07
-9.53692e-07
1.67745e-07
-0.000272771
1.32558e-06
1.28326e-06
-2.68121e-07
-2.78283e-07
0.000270708
-3.66025e-07
-3.66338e-07
-0.001188
2.57518e-07
2.57397e-07
0.00118821
-0.00114403
-1.28723e-06
3.70955e-07
1.39647e-07
0.00114389
-2.82884e-07
1.21064e-06
2.12013e-07
8.37477e-07
-2.86695e-07
-9.48896e-07
1.76663e-07
-0.00114394
-1.28434e-06
3.72078e-07
1.3991e-07
0.0011438
-2.85154e-07
1.20832e-06
2.15453e-07
8.32083e-07
-2.8416e-07
-9.43506e-07
1.7407e-07
-0.000272559
1.3185e-06
1.27557e-06
-2.61372e-07
-2.71967e-07
0.000270499
-3.53662e-07
-3.53968e-07
-0.00118882
2.65897e-07
2.66113e-07
0.001189
-0.00114343
-1.28207e-06
3.51249e-07
1.46912e-07
0.00114327
-2.78165e-07
1.21082e-06
2.14029e-07
8.40437e-07
-2.80277e-07
-9.40696e-07
1.7974e-07
-0.00114334
-1.27996e-06
3.52068e-07
1.49566e-07
0.00114318
-2.81685e-07
1.20734e-06
2.16047e-07
8.3496e-07
-2.77728e-07
-9.35231e-07
1.768e-07
-0.000272356
1.30894e-06
1.26605e-06
-2.54649e-07
-2.65177e-07
0.000270301
-3.1842e-07
-3.18387e-07
-0.00118946
2.44565e-07
2.44175e-07
0.00118961
-0.00114281
-1.27147e-06
3.18548e-07
1.09935e-07
0.00114266
-2.69818e-07
1.21545e-06
2.18542e-07
8.44427e-07
-2.72085e-07
-9.31919e-07
1.84755e-07
-0.0011427
-1.26829e-06
3.18176e-07
1.08196e-07
0.00114256
-2.72075e-07
1.21313e-06
2.21737e-07
8.39012e-07
-2.6937e-07
-9.26507e-07
1.82213e-07
-0.000272166
1.30274e-06
1.2601e-06
-2.49373e-07
-2.59745e-07
0.000270112
-2.97801e-07
-2.9708e-07
-0.00119004
2.32066e-07
2.34399e-07
0.00119017
-0.00114221
-1.26712e-06
2.97405e-07
1.12499e-07
0.00114206
-2.66399e-07
1.2149e-06
2.19162e-07
8.47282e-07
-2.65955e-07
-9.24649e-07
1.87971e-07
-0.00114212
-1.26461e-06
2.96704e-07
1.13166e-07
0.00114196
-2.6939e-07
1.21192e-06
2.21722e-07
8.41901e-07
-2.63333e-07
-9.1918e-07
1.85249e-07
-0.000271981
1.29485e-06
1.25217e-06
-2.43882e-07
-2.5431e-07
0.000269932
-2.69442e-07
-2.69964e-07
-0.0011905
2.21548e-07
2.20506e-07
0.0011906
-0.00114159
-1.25901e-06
2.70209e-07
9.30551e-08
0.00114144
-2.59668e-07
1.21805e-06
2.22841e-07
8.51006e-07
-2.58823e-07
-9.16618e-07
1.92269e-07
-0.00114149
-1.25623e-06
2.71079e-07
9.36844e-08
0.00114133
-2.62338e-07
1.21535e-06
2.25676e-07
8.45563e-07
-2.56215e-07
-9.11206e-07
1.89549e-07
-0.000271811
1.28866e-06
1.24586e-06
-2.38736e-07
-2.49204e-07
0.000269765
-2.44324e-07
-2.4382e-07
-0.00119085
2.06471e-07
2.0736e-07
0.00119093
-0.00114098
-1.2531e-06
2.43705e-07
8.17414e-08
0.00114084
-2.55116e-07
1.21917e-06
2.24534e-07
8.54019e-07
-2.52606e-07
-9.09591e-07
1.95813e-07
-0.00114089
-1.25035e-06
2.4312e-07
8.12866e-08
0.00114074
-2.57849e-07
1.21645e-06
2.27315e-07
8.48625e-07
-2.49967e-07
-9.0415e-07
1.93143e-07
-0.000271646
1.28211e-06
1.23956e-06
-2.34151e-07
-2.4448e-07
0.000269603
-2.19022e-07
-2.18877e-07
-0.00119112
1.92474e-07
1.92899e-07
-0.00114039
-1.24748e-06
2.18721e-07
7.18662e-08
-2.50623e-07
1.22044e-06
2.26423e-07
8.56812e-07
-2.46827e-07
-9.03059e-07
1.99094e-07
-0.0011403
-1.2448e-06
2.18822e-07
7.23588e-08
-2.53398e-07
1.21765e-06
2.29159e-07
8.51389e-07
-2.44176e-07
-8.9763e-07
1.96423e-07
-0.000271494
1.27655e-06
1.23388e-06
-2.29977e-07
-2.40387e-07
0.000269454
-1.16448e-06
-1.1212e-06
0.000276452
-0.000274347
8.64223e-08
9.42036e-08
0.00113638
8.50205e-07
4.1942e-07
-1.55277e-06
1.30331e-07
-5.05449e-07
-1.24924e-06
5.44398e-08
-5.42538e-07
7.27571e-07
1.1596e-06
0.00113651
8.49651e-07
4.1856e-07
-1.54751e-06
1.31701e-07
-5.05247e-07
-1.24838e-06
5.40775e-08
-5.42365e-07
7.27732e-07
-1.12427e-06
0.000276442
-0.000274348
9.22005e-08
9.73543e-08
0.00113739
8.50553e-07
4.18242e-07
-1.50975e-06
1.21917e-07
-4.97121e-07
-1.24346e-06
5.18153e-08
-5.39701e-07
7.22173e-07
1.1591e-06
0.00113641
8.49873e-07
4.19082e-07
-1.54799e-06
1.28485e-07
-5.03451e-07
-1.24546e-06
5.43895e-08
-5.41901e-07
7.25514e-07
8.50088e-07
4.177e-07
-1.5124e-06
1.23321e-07
-4.9673e-07
-1.24561e-06
5.40507e-08
7.2504e-07
-5.42341e-07
1.15308e-06
0.00113607
8.50041e-07
4.19498e-07
-1.5423e-06
1.27746e-07
-5.03561e-07
-1.24284e-06
5.44106e-08
-5.4196e-07
7.22628e-07
-1.12113e-06
0.000276428
-0.000274331
8.88902e-08
9.38104e-08
8.50145e-07
4.18095e-07
-1.51019e-06
1.25887e-07
-5.00537e-07
-1.23987e-06
5.16278e-08
7.20025e-07
-5.39172e-07
1.10986e-06
0.00113707
8.50272e-07
4.18017e-07
-1.49935e-06
1.19422e-07
-4.95236e-07
-1.24243e-06
5.47581e-08
-5.41785e-07
7.22686e-07
-0.000274322
8.58242e-08
9.62032e-08
1.55136e-06
1.50834e-06
-4.87173e-07
-4.9549e-07
0.000274375
-1.17075e-06
-1.12735e-06
0.000276532
-0.000274433
9.54341e-08
1.03382e-07
4.17072e-07
0.00113687
-5.03074e-07
1.16605e-06
1.31703e-07
7.29651e-07
-5.37974e-07
-1.24458e-06
5.60315e-08
-1.5453e-06
8.4482e-07
4.16691e-07
0.001137
-5.02226e-07
1.16101e-06
1.3133e-07
7.29075e-07
-5.38383e-07
-1.24476e-06
5.59996e-08
0.00113828
8.29405e-07
-0.00113782
4.10532e-07
-1.54523e-06
1.35157e-07
-4.93697e-07
-1.23176e-06
6.06652e-08
-5.25588e-07
7.34362e-07
1.1657e-06
0.0011384
8.2903e-07
-0.00113794
4.10332e-07
-1.53944e-06
1.3564e-07
-4.92204e-07
-1.23176e-06
6.03627e-08
-5.26031e-07
7.33717e-07
-4.9179e-07
-4.96569e-07
0.000274375
-1.13035e-06
0.000276521
-0.000274433
1.01594e-07
1.06741e-07
4.16001e-07
0.00113788
-4.9476e-07
1.12278e-06
1.23302e-07
7.24244e-07
-5.35151e-07
-1.23882e-06
5.34205e-08
-1.54534e-06
8.44557e-07
4.1662e-07
0.0011369
-4.98543e-07
1.16139e-06
1.30105e-07
7.26183e-07
-5.38489e-07
-1.24168e-06
5.5421e-08
0.00113928
8.29743e-07
-0.00113883
4.09545e-07
-1.50229e-06
1.26745e-07
-4.85383e-07
-1.22597e-06
5.80627e-08
-5.2276e-07
7.28986e-07
1.166e-06
0.0011383
8.28692e-07
-0.00113785
4.09972e-07
-1.53974e-06
1.34344e-07
-4.89654e-07
-1.22836e-06
6.00825e-08
-5.25789e-07
7.3141e-07
8.44634e-07
4.16739e-07
0.00113657
-4.99149e-07
1.1554e-06
1.29798e-07
7.23711e-07
-5.3823e-07
5.5582e-08
-1.23878e-06
8.29515e-07
-0.00113842
4.09363e-07
-1.5044e-06
1.27289e-07
-4.83753e-07
-1.229e-06
6.0377e-08
7.31073e-07
-5.26078e-07
1.15985e-06
0.00113797
8.29105e-07
-0.00113751
4.10513e-07
-1.53405e-06
1.33023e-07
-4.90263e-07
-1.22585e-06
6.03088e-08
-5.25712e-07
7.28667e-07
-4.89323e-07
-4.9419e-07
0.000274359
-1.12793e-06
0.000276508
-0.000274418
9.91327e-08
1.04188e-07
8.44856e-07
4.15331e-07
0.00113757
-4.90793e-07
1.11211e-06
1.21462e-07
7.23738e-07
-5.38073e-07
5.59474e-08
-1.2384e-06
8.29008e-07
-0.00113832
4.08828e-07
-1.50192e-06
1.31753e-07
-4.86705e-07
-1.22278e-06
5.73538e-08
7.25944e-07
-5.23053e-07
1.11647e-06
0.00113897
8.29316e-07
-0.00113851
4.09109e-07
-1.49112e-06
1.24684e-07
-4.81925e-07
-1.22544e-06
6.06776e-08
-5.25556e-07
7.28717e-07
-0.000274408
9.58091e-08
1.06398e-07
1.54304e-06
1.50009e-06
-4.73758e-07
-4.81913e-07
0.000274445
-1.17609e-06
-1.13272e-06
0.000276547
-0.000274454
1.04126e-07
1.12054e-07
4.08058e-07
0.00113872
-4.89763e-07
1.17257e-06
1.37467e-07
7.3583e-07
-5.21626e-07
-1.22719e-06
6.19026e-08
-1.5377e-06
8.24066e-07
4.0877e-07
0.00113884
-4.90849e-07
1.16652e-06
1.35663e-07
7.35847e-07
-5.21419e-07
-1.22742e-06
6.24513e-08
0.00113997
8.0805e-07
-0.00113957
4.02943e-07
-1.53664e-06
1.39929e-07
-4.80675e-07
-1.21411e-06
6.68e-08
-5.09448e-07
7.40581e-07
1.17091e-06
0.0011401
8.07794e-07
-0.00113969
4.02795e-07
-1.5306e-06
1.39827e-07
-4.79656e-07
-1.21442e-06
6.68559e-08
-5.09721e-07
7.4007e-07
-4.79185e-07
-4.83942e-07
0.000274444
-1.13551e-06
0.000276535
-0.000274454
1.09922e-07
1.15095e-07
4.06941e-07
0.00113973
-4.81456e-07
1.12919e-06
1.29081e-07
7.3047e-07
-5.18788e-07
-1.22141e-06
5.93346e-08
-1.53701e-06
8.23652e-07
4.0837e-07
0.00113874
-4.8595e-07
1.16729e-06
1.34174e-07
7.32447e-07
-5.22087e-07
-1.22492e-06
6.19132e-08
0.00114098
8.08353e-07
-0.00114058
4.01787e-07
-1.49363e-06
1.31578e-07
-4.72337e-07
-1.2083e-06
6.42392e-08
-5.06595e-07
7.3522e-07
1.17126e-06
0.00114
8.07576e-07
-0.00113959
4.02325e-07
-1.53085e-06
1.38446e-07
-4.76697e-07
-1.21117e-06
6.65611e-08
-5.09664e-07
7.37507e-07
8.23715e-07
4.0843e-07
0.00113841
-4.86758e-07
1.16128e-06
1.34114e-07
7.30157e-07
-5.21726e-07
6.19637e-08
-1.22175e-06
8.08305e-07
-0.00114016
4.01697e-07
-1.49558e-06
1.31471e-07
-4.71226e-07
-1.21163e-06
6.69982e-08
7.37445e-07
-5.09625e-07
1.16515e-06
0.00113966
8.07755e-07
-0.00113926
4.02604e-07
-1.52525e-06
1.37622e-07
-4.77273e-07
-1.20842e-06
6.67261e-08
-5.0944e-07
7.34958e-07
-4.75558e-07
-4.80299e-07
0.000274428
-1.13317e-06
0.000276522
-0.000274438
1.0773e-07
1.12779e-07
8.23972e-07
4.06928e-07
0.00113941
-4.78435e-07
1.1179e-06
1.25796e-07
7.30232e-07
-5.21543e-07
6.23905e-08
-1.22136e-06
8.07846e-07
-0.00114007
4.01288e-07
-1.49301e-06
1.35842e-07
-4.7376e-07
-1.20555e-06
6.38554e-08
7.32072e-07
-5.06911e-07
1.12177e-06
0.00114067
8.07961e-07
-0.00114026
4.01216e-07
-1.4823e-06
1.29309e-07
-4.68942e-07
-1.20799e-06
6.71294e-08
-5.09238e-07
7.3503e-07
-0.000274429
1.04349e-07
1.14929e-07
1.5342e-06
1.49119e-06
-4.60319e-07
-4.68474e-07
0.00027445
-1.18101e-06
-1.13765e-06
0.000276501
-0.000274415
1.12338e-07
1.20278e-07
4.00619e-07
0.00114037
-4.76961e-07
1.17771e-06
1.42114e-07
7.42165e-07
-5.05447e-07
-1.20945e-06
6.81849e-08
-1.52917e-06
8.02557e-07
4.01345e-07
0.00114049
-4.78117e-07
1.17151e-06
1.40758e-07
7.42412e-07
-5.0509e-07
-1.20934e-06
6.85887e-08
0.00114147
7.86066e-07
-0.00114111
3.9558e-07
-1.52682e-06
1.4442e-07
-4.67775e-07
-1.19618e-06
7.32193e-08
-4.93333e-07
7.46834e-07
1.17576e-06
0.00114159
7.85701e-07
-0.00114124
3.95319e-07
-1.52106e-06
1.44764e-07
-4.6699e-07
-1.19616e-06
7.31982e-08
-4.9345e-07
7.46631e-07
-4.66335e-07
-4.71127e-07
0.00027445
-1.14036e-06
0.00027649
-0.000274415
1.17924e-07
1.23075e-07
3.99411e-07
0.00114138
-4.6862e-07
1.13435e-06
1.33774e-07
7.36826e-07
-5.02584e-07
-1.20366e-06
6.5658e-08
-1.52842e-06
8.02241e-07
4.0073e-07
0.00114039
-4.7363e-07
1.17228e-06
1.39019e-07
7.39122e-07
-5.05498e-07
-1.20691e-06
6.83035e-08
0.00114248
7.8625e-07
-0.00114212
3.94448e-07
-1.48379e-06
1.36094e-07
-4.59431e-07
-1.19036e-06
7.069e-08
-4.90466e-07
7.415e-07
1.17594e-06
0.00114149
7.8559e-07
-0.00114114
3.9498e-07
-1.52125e-06
1.42635e-07
-4.64353e-07
-1.19311e-06
7.30915e-08
-4.93334e-07
7.44048e-07
8.02211e-07
4.00671e-07
0.00114005
-4.7387e-07
1.16647e-06
1.39156e-07
7.36567e-07
-5.05367e-07
6.81838e-08
-1.20381e-06
7.86146e-07
-0.00114171
3.94281e-07
-1.48604e-06
1.36412e-07
-4.58582e-07
-1.19337e-06
7.33457e-08
7.44001e-07
-4.9332e-07
1.17006e-06
0.00114116
7.85687e-07
-0.0011408
3.95167e-07
-1.51563e-06
1.42417e-07
-4.64473e-07
-1.19028e-06
7.30298e-08
-4.93272e-07
7.41346e-07
-4.62654e-07
-4.67403e-07
0.000274433
-1.13783e-06
0.000276476
-0.000274399
1.15485e-07
1.20536e-07
8.02396e-07
3.99243e-07
0.00114106
-4.65547e-07
1.12308e-06
1.30844e-07
7.36659e-07
-5.05148e-07
6.86137e-08
-1.20339e-06
7.85801e-07
-0.00114162
3.94025e-07
-1.48342e-06
1.40009e-07
-4.61449e-07
-1.18749e-06
7.04138e-08
7.38622e-07
-4.90575e-07
1.12668e-06
0.00114217
7.85827e-07
-0.00114181
3.93818e-07
-1.47266e-06
1.34114e-07
-4.56154e-07
-1.18984e-06
7.34416e-08
-4.93042e-07
7.41435e-07
-0.00027439
1.12484e-07
1.23053e-07
1.52434e-06
1.4813e-06
-4.46723e-07
-4.54869e-07
0.000274397
-1.18292e-06
-1.14238e-06
0.000276401
-0.000274324
1.20254e-07
1.28173e-07
3.93291e-07
0.00114181
-4.64228e-07
1.18251e-06
1.46649e-07
7.48487e-07
-4.89391e-07
-1.19133e-06
7.4534e-08
-1.51909e-06
7.80259e-07
3.93728e-07
0.00114194
-4.64596e-07
1.17669e-06
1.45946e-07
7.48496e-07
-4.89291e-07
-1.1912e-06
7.47169e-08
0.00114277
7.63571e-07
-0.00114246
3.8802e-07
-1.51338e-06
1.49156e-07
-4.55014e-07
-1.17794e-06
7.96029e-08
-4.7754e-07
7.53202e-07
1.1807e-06
0.00114289
7.63105e-07
-0.00114259
3.87452e-07
-1.51045e-06
1.49916e-07
-4.54093e-07
-1.17777e-06
7.94815e-08
-4.77706e-07
7.52981e-07
-4.52422e-07
-4.57245e-07
0.000274396
-1.14534e-06
0.00027639
-0.000274322
1.26104e-07
1.3121e-07
3.92143e-07
0.00114283
-4.55886e-07
1.13915e-06
1.38327e-07
7.43162e-07
-4.86515e-07
-1.18552e-06
7.20182e-08
-1.51858e-06
7.79938e-07
3.931e-07
0.00114184
-4.60722e-07
1.17733e-06
1.44118e-07
7.45487e-07
-4.8949e-07
-1.18856e-06
7.45228e-08
0.00114378
7.63737e-07
-0.00114348
3.86813e-07
-1.47311e-06
1.40874e-07
-4.4665e-07
-1.17212e-06
7.70855e-08
-4.74665e-07
7.47882e-07
1.1805e-06
0.00114279
7.6324e-07
-0.00114249
3.87524e-07
-1.51083e-06
1.47032e-07
-4.51988e-07
-1.1748e-06
7.95473e-08
-4.77481e-07
7.50495e-07
7.79949e-07
3.9312e-07
0.0011415
-4.60701e-07
1.17154e-06
1.44028e-07
7.4272e-07
-4.89484e-07
7.4442e-08
-1.18575e-06
7.63478e-07
-0.00114306
3.86458e-07
-1.47538e-06
1.41573e-07
-4.45681e-07
-1.17499e-06
7.95955e-08
7.5035e-07
-4.77588e-07
1.17488e-06
0.00114246
7.63135e-07
-0.00114215
3.87479e-07
-1.50495e-06
1.4713e-07
-4.51684e-07
-1.17205e-06
7.94365e-08
-4.77514e-07
7.47654e-07
-4.49193e-07
-4.53986e-07
0.00027438
-1.1424e-06
0.000276377
-0.000274305
1.23198e-07
1.2823e-07
7.80081e-07
3.9176e-07
0.00114251
-4.52389e-07
1.12815e-06
1.3572e-07
7.42809e-07
-4.89256e-07
7.48625e-08
-1.18532e-06
7.63375e-07
-0.00114297
3.86634e-07
-1.47299e-06
1.44396e-07
-4.49097e-07
-1.16917e-06
7.68914e-08
7.45084e-07
-4.74708e-07
1.13153e-06
0.00114347
7.63274e-07
-0.00114316
3.86093e-07
-1.46194e-06
1.38861e-07
-4.43349e-07
-1.17159e-06
7.98158e-08
-4.77297e-07
7.47754e-07
-0.000274296
1.20541e-07
1.311e-07
1.51056e-06
1.47027e-06
-4.32657e-07
-4.40819e-07
0.000274294
-1.18766e-06
-1.14715e-06
0.000276255
-0.000274184
1.28065e-07
1.35967e-07
3.85554e-07
0.00114307
-4.51293e-07
1.18456e-06
1.51291e-07
7.54721e-07
-4.73829e-07
-1.17319e-06
8.0938e-08
-1.50776e-06
7.57584e-07
3.85724e-07
0.00114319
-4.5133e-07
1.18175e-06
1.50678e-07
7.54549e-07
-4.73808e-07
-1.17323e-06
8.11313e-08
0.00114388
7.40903e-07
-0.00114362
3.79791e-07
-1.50184e-06
1.53853e-07
-4.42402e-07
-1.1598e-06
8.60359e-08
-4.62241e-07
7.59505e-07
1.1857e-06
0.001144
7.40213e-07
-0.00114374
3.78766e-07
-1.49873e-06
1.54929e-07
-4.41252e-07
-1.15961e-06
8.58933e-08
-4.62425e-07
7.59282e-07
-4.37954e-07
-4.42742e-07
0.000274291
-1.15037e-06
0.000276244
-0.000274182
1.34176e-07
1.39242e-07
3.84391e-07
0.00114408
-4.42932e-07
1.14403e-06
1.43003e-07
7.4939e-07
-4.70966e-07
-1.16738e-06
7.84071e-08
-1.50754e-06
7.57325e-07
3.85072e-07
0.00114309
-4.47899e-07
1.18231e-06
1.4892e-07
7.51743e-07
-4.73867e-07
-1.17038e-06
8.09546e-08
0.00114489
7.41059e-07
-0.00114463
3.78476e-07
-1.46155e-06
1.45608e-07
-4.34023e-07
-1.15398e-06
8.3529e-08
-4.59359e-07
7.54203e-07
1.18508e-06
0.0011439
7.40659e-07
-0.00114364
3.7951e-07
-1.49928e-06
1.51253e-07
-4.39652e-07
-1.15677e-06
8.60825e-08
-4.62119e-07
7.56766e-07
7.57352e-07
3.85302e-07
0.00114275
-4.47865e-07
1.17639e-06
1.48589e-07
7.48963e-07
-4.73854e-07
8.09308e-08
-1.16768e-06
7.4054e-07
-0.00114422
3.77776e-07
-1.46362e-06
1.46597e-07
-4.32838e-07
-1.1568e-06
8.5994e-08
7.56673e-07
-4.62322e-07
1.17951e-06
0.00114356
7.40456e-07
-0.00114331
3.79404e-07
-1.49339e-06
1.51536e-07
-4.39238e-07
-1.15395e-06
8.59871e-08
-4.62134e-07
7.54008e-07
-4.3516e-07
-4.3996e-07
0.000274274
-1.14697e-06
0.00027623
-0.000274165
1.30843e-07
1.35883e-07
7.57452e-07
3.83979e-07
0.00114376
-4.39544e-07
1.13302e-06
1.40308e-07
7.4906e-07
-4.73648e-07
8.13188e-08
-1.16724e-06
7.40703e-07
-0.00114413
3.78654e-07
-1.46146e-06
1.48604e-07
-4.36778e-07
-1.15109e-06
8.34694e-08
7.51409e-07
-4.59311e-07
1.1362e-06
0.00114457
7.40596e-07
-0.00114431
3.77964e-07
-1.45036e-06
1.43304e-07
-4.30894e-07
-1.15349e-06
8.63416e-08
-4.61933e-07
7.54101e-07
-0.000274156
1.28271e-07
1.38815e-07
1.49861e-06
1.45829e-06
-4.18416e-07
-4.26569e-07
0.000274143
-1.19236e-06
-1.15187e-06
0.00027607
-0.000274005
1.35599e-07
1.43522e-07
3.76958e-07
0.00114412
-4.38669e-07
1.18938e-06
1.55815e-07
7.60958e-07
-4.58637e-07
-1.15525e-06
8.7475e-08
-1.49563e-06
7.34768e-07
3.77149e-07
0.00114424
-4.38526e-07
1.18664e-06
1.55216e-07
7.60745e-07
-4.58638e-07
-1.15535e-06
8.76916e-08
0.00114479
7.18116e-07
-0.00114458
3.70713e-07
-1.48946e-06
1.58247e-07
-4.30107e-07
-1.14204e-06
9.26009e-08
-4.47362e-07
7.65738e-07
1.19036e-06
0.00114491
7.17527e-07
-0.0011447
3.69718e-07
-1.48658e-06
1.59489e-07
-4.29113e-07
-1.14175e-06
9.23989e-08
-4.47551e-07
7.65625e-07
-4.23491e-07
-4.28279e-07
0.00027414
-1.15507e-06
0.000276059
-0.000274002
1.41634e-07
1.46658e-07
3.75822e-07
0.00114514
-4.303e-07
1.14887e-06
1.47552e-07
7.55629e-07
-4.55783e-07
-1.14945e-06
8.49429e-08
-1.49583e-06
7.34604e-07
3.76602e-07
0.00114414
-4.35695e-07
1.18688e-06
1.53227e-07
7.58125e-07
-4.58565e-07
-1.15236e-06
8.75415e-08
0.00114581
7.18247e-07
-0.00114559
3.69323e-07
-1.44916e-06
1.50017e-07
-4.21737e-07
-1.13621e-06
9.01144e-08
-4.44477e-07
7.60456e-07
1.18967e-06
0.00114481
7.18116e-07
-0.0011446
3.70904e-07
-1.48687e-06
1.55401e-07
-4.2738e-07
-1.13913e-06
9.2644e-08
-4.47285e-07
7.62949e-07
7.34493e-07
3.76686e-07
0.00114381
-4.35454e-07
1.18111e-06
1.53099e-07
7.55385e-07
-4.58543e-07
8.75284e-08
-1.14959e-06
7.17871e-07
-0.00114518
3.68658e-07
-1.45145e-06
1.51176e-07
-4.20698e-07
-1.13896e-06
9.24909e-08
7.63007e-07
-4.47453e-07
1.18404e-06
0.00114448
7.179e-07
-0.00114427
3.70641e-07
-1.48111e-06
1.55649e-07
-4.27167e-07
-1.13629e-06
9.2533e-08
-4.47288e-07
7.60212e-07
-4.21243e-07
-4.26036e-07
0.000274123
-1.1516e-06
0.000276045
-0.000273985
1.3831e-07
1.4333e-07
7.34632e-07
3.75404e-07
0.00114482
-4.27118e-07
1.13779e-06
1.44857e-07
7.55418e-07
-4.58385e-07
8.78519e-08
-1.1492e-06
7.1828e-07
-0.00114509
3.6995e-07
-1.44903e-06
1.52775e-07
-4.24497e-07
-1.13351e-06
9.00067e-08
7.57547e-07
-4.44512e-07
1.14076e-06
0.00114549
7.18032e-07
-0.00114528
3.69054e-07
-1.43808e-06
1.47444e-07
-4.18818e-07
-1.13582e-06
9.29229e-08
-4.4706e-07
7.60336e-07
-0.000273976
1.35597e-07
1.46148e-07
1.48625e-06
1.44593e-06
-4.04569e-07
-4.12675e-07
0.000273955
-1.19712e-06
-1.15663e-06
0.000275854
-0.000273794
1.42921e-07
1.50873e-07
3.67945e-07
0.00114499
-4.2674e-07
1.19383e-06
1.5997e-07
7.67281e-07
-4.43804e-07
-1.13758e-06
9.41019e-08
-1.48306e-06
7.11809e-07
3.67455e-07
0.00114511
-4.26115e-07
1.19152e-06
1.60016e-07
7.67038e-07
-4.43897e-07
-1.13762e-06
9.4219e-08
0.00114552
6.95332e-07
-0.00114535
3.60528e-07
-1.47647e-06
1.62768e-07
-4.17946e-07
-1.12476e-06
9.91512e-08
-4.32992e-07
7.71866e-07
1.19479e-06
0.00114564
6.94913e-07
-0.00114547
3.59966e-07
-1.47401e-06
1.6368e-07
-4.17514e-07
-1.12433e-06
9.901e-08
-4.33061e-07
7.71935e-07
-4.09423e-07
-4.14245e-07
0.000273952
-1.15954e-06
0.000275843
-0.000273791
1.48592e-07
1.53585e-07
3.66593e-07
0.001146
-4.18362e-07
1.15336e-06
1.51749e-07
7.61975e-07
-4.40938e-07
-1.13176e-06
9.15893e-08
-1.4837e-06
7.12269e-07
3.68238e-07
0.00114501
-4.24144e-07
1.19107e-06
1.56989e-07
7.6449e-07
-4.43706e-07
-1.13467e-06
9.41858e-08
0.00114653
6.95357e-07
-0.00114637
3.5933e-07
-1.43619e-06
1.54528e-07
-4.096e-07
-1.11895e-06
9.66758e-08
-4.30118e-07
7.6659e-07
1.19479e-06
0.00114554
6.94934e-07
-0.00114537
3.60002e-07
-1.47369e-06
1.60448e-07
-4.14796e-07
-1.12179e-06
9.91807e-08
-4.32938e-07
7.69111e-07
7.12031e-07
3.67878e-07
0.00114467
-4.23729e-07
1.18552e-06
1.57196e-07
7.61695e-07
-4.43735e-07
9.41068e-08
-1.13193e-06
6.95277e-07
-0.00114596
3.58894e-07
-1.43888e-06
1.55386e-07
-4.09094e-07
-1.12155e-06
9.90959e-08
7.6931e-07
-4.32966e-07
1.18885e-06
0.0011452
6.95098e-07
-0.00114504
3.60359e-07
-1.46814e-06
1.60214e-07
-4.14969e-07
-1.11897e-06
9.91043e-08
-4.32903e-07
7.66387e-07
-4.0757e-07
-4.12387e-07
0.000273935
-1.15676e-06
0.000275829
-0.000273774
1.45942e-07
1.50957e-07
7.12199e-07
3.66332e-07
0.00114569
-4.15377e-07
1.14225e-06
1.48997e-07
7.61782e-07
-4.43542e-07
9.44615e-08
-1.13149e-06
6.95083e-07
-0.00114586
3.59008e-07
-1.43583e-06
1.57828e-07
-4.11905e-07
-1.11619e-06
9.65443e-08
7.63702e-07
-4.30176e-07
1.14558e-06
0.00114621
6.95149e-07
-0.00114605
3.58963e-07
-1.42511e-06
1.52001e-07
-4.06641e-07
-1.11853e-06
9.9497e-08
-4.32693e-07
7.66497e-07
-0.000273765
1.42934e-07
1.53512e-07
1.47346e-06
1.43318e-06
-3.91012e-07
-3.99053e-07
0.000273737
-1.20199e-06
-1.16153e-06
0.000275615
-0.000273559
1.50043e-07
1.57992e-07
3.57693e-07
0.00114567
-4.15034e-07
1.19828e-06
1.64197e-07
7.73534e-07
-4.29457e-07
-1.12035e-06
1.0073e-07
-1.47037e-06
6.89151e-07
3.57224e-07
0.00114579
-4.14354e-07
1.19613e-06
1.64619e-07
7.73322e-07
-4.29591e-07
-1.12027e-06
1.00727e-07
0.00114607
6.72256e-07
-0.00114594
3.48915e-07
-1.46317e-06
1.67462e-07
-4.06018e-07
-1.10799e-06
1.05732e-07
-4.19063e-07
7.77937e-07
1.19944e-06
0.00114619
6.71981e-07
-0.00114607
3.48593e-07
-1.46091e-06
1.68082e-07
-4.05946e-07
-1.10748e-06
1.05664e-07
-4.19053e-07
7.78104e-07
-3.95938e-07
-4.00793e-07
0.000273734
-1.16422e-06
0.000275604
-0.000273557