/*--------------------------------*- C++ -*----------------------------------*\
| =========                 |                                                 |
| \\      /  F ield         | OpenFOAM: The Open Source CFD Toolbox           |
|  \\    /   O peration     | Version:  v2006                                 |
|   \\  /    A nd           | Website:  www.openfoam.com                      |
|    \\/     M anipulation  |                                                 |
\*---------------------------------------------------------------------------*/
FoamFile
{
    version     2.0;
    format      ascii;
    class       volScalarField;
    location    "125";
    object      nut;
}
// * * * * * * * * * * * * * * * * * * * * * * * * * * * * * * * * * * * * * //

dimensions      [0 2 -1 0 0 0 0];


internalField   nonuniform List<scalar> 
42840
(
0.000124772
9.58679e-05
9.58719e-05
9.08986e-05
0.000124772
9.58701e-05
9.58735e-05
9.08506e-05
0.000124777
9.58735e-05
9.58768e-05
9.07718e-05
0.000124773
9.58702e-05
9.58735e-05
9.07211e-05
0.000124765
9.58644e-05
9.58678e-05
9.07297e-05
0.000124764
9.58633e-05
9.58663e-05
9.07886e-05
0.000124763
9.58649e-05
9.58672e-05
9.08672e-05
0.000124763
9.58664e-05
9.58693e-05
9.08882e-05
0.000124763
9.58673e-05
9.58719e-05
9.08178e-05
0.000124763
9.58681e-05
9.58721e-05
9.07666e-05
0.000124764
9.58693e-05
9.58737e-05
9.0856e-05
0.000124764
9.5868e-05
9.58732e-05
9.0847e-05
0.000124764
9.58672e-05
9.58721e-05
9.07621e-05
0.000124763
9.58672e-05
9.58714e-05
9.07281e-05
0.000124762
9.58676e-05
9.5872e-05
9.07763e-05
0.000124762
9.58683e-05
9.58739e-05
9.08532e-05
0.000124762
9.58688e-05
9.58743e-05
9.08822e-05
0.000124762
9.58681e-05
9.5874e-05
9.08529e-05
0.000124762
9.5867e-05
9.58729e-05
9.07946e-05
0.000124762
9.58662e-05
9.5872e-05
9.07779e-05
0.000124762
9.58663e-05
9.58722e-05
9.08252e-05
0.000124762
9.58683e-05
9.58737e-05
9.08098e-05
0.000124762
9.58683e-05
9.58742e-05
9.07505e-05
0.000124762
9.58675e-05
9.5874e-05
9.07477e-05
0.000124761
9.5867e-05
9.58734e-05
9.0815e-05
0.000124759
9.58654e-05
9.58715e-05
9.08412e-05
9.08974e-05
9.58504e-05
9.58361e-05
9.08958e-05
9.58679e-05
9.58383e-05
9.58683e-05
9.58464e-05
9.08938e-05
9.58722e-05
9.58663e-05
9.08904e-05
9.09067e-05
9.07999e-05
9.58505e-05
9.58361e-05
9.58508e-05
9.58354e-05
9.09037e-05
9.07964e-05
9.58678e-05
9.58383e-05
9.58672e-05
9.58378e-05
9.58463e-05
9.58679e-05
9.58465e-05
9.0905e-05
9.07953e-05
9.58661e-05
9.5871e-05
9.58663e-05
9.08005e-05
9.08519e-05
9.07432e-05
9.58528e-05
9.58377e-05
9.58542e-05
9.58388e-05
9.08483e-05
9.07395e-05
9.58693e-05
9.584e-05
9.58704e-05
9.5841e-05
9.58483e-05
9.58714e-05
9.58501e-05
9.08477e-05
9.07427e-05
9.58681e-05
9.58746e-05
9.58693e-05
9.07422e-05
9.07671e-05
9.07536e-05
9.5857e-05
9.58415e-05
9.58522e-05
9.58376e-05
9.07624e-05
9.07508e-05
9.58733e-05
9.58439e-05
9.58684e-05
9.58397e-05
9.58529e-05
9.58705e-05
9.58479e-05
9.07634e-05
9.07552e-05
9.58723e-05
9.58739e-05
9.58675e-05
9.07451e-05
9.07234e-05
9.07975e-05
9.5852e-05
9.58375e-05
9.58471e-05
9.58318e-05
9.07205e-05
9.07935e-05
9.5868e-05
9.58394e-05
9.58629e-05
9.58346e-05
9.58478e-05
9.58649e-05
9.58427e-05
9.07241e-05
9.07994e-05
9.58673e-05
9.58683e-05
9.5862e-05
9.07849e-05
9.07384e-05
9.08648e-05
9.5847e-05
9.58316e-05
9.58465e-05
9.58311e-05
9.07346e-05
9.08607e-05
9.58628e-05
9.58344e-05
9.58622e-05
9.58339e-05
9.58425e-05
9.58643e-05
9.58421e-05
9.07402e-05
9.08648e-05
9.5862e-05
9.58674e-05
9.58618e-05
9.08596e-05
9.0792e-05
9.09078e-05
9.58457e-05
9.58301e-05
9.5848e-05
9.5832e-05
9.0788e-05
9.09044e-05
9.58611e-05
9.5833e-05
9.58633e-05
9.58355e-05
9.58413e-05
9.58658e-05
9.58436e-05
9.07928e-05
9.09062e-05
9.58609e-05
9.58684e-05
9.58634e-05
9.09055e-05
9.08623e-05
9.0894e-05
9.58473e-05
9.58314e-05
9.58505e-05
9.5835e-05
9.08585e-05
9.08908e-05
9.58625e-05
9.58349e-05
9.58655e-05
9.58377e-05
9.58425e-05
9.58675e-05
9.58453e-05
9.08595e-05
9.08968e-05
9.58625e-05
9.58703e-05
9.58648e-05
9.08772e-05
9.08889e-05
9.0851e-05
9.58498e-05
9.58346e-05
9.58503e-05
9.58354e-05
9.08868e-05
9.08429e-05
9.5865e-05
9.58369e-05
9.58653e-05
9.5837e-05
9.58451e-05
9.58661e-05
9.58436e-05
9.0891e-05
9.08472e-05
9.58645e-05
9.58709e-05
9.58623e-05
9.07777e-05
9.0873e-05
9.08353e-05
9.58514e-05
9.5836e-05
9.58514e-05
9.58352e-05
9.0868e-05
9.08217e-05
9.58664e-05
9.58383e-05
9.58663e-05
9.58377e-05
9.58466e-05
9.58673e-05
9.58454e-05
9.08724e-05
9.08206e-05
9.58653e-05
9.58713e-05
9.58647e-05
9.07963e-05
9.08726e-05
9.07932e-05
9.5852e-05
9.58355e-05
9.5852e-05
9.58359e-05
9.08615e-05
9.07847e-05
9.58667e-05
9.58384e-05
9.58669e-05
9.58383e-05
9.58453e-05
9.58678e-05
9.5848e-05
9.08603e-05
9.07902e-05
9.58646e-05
9.58721e-05
9.58675e-05
9.08663e-05
9.0847e-05
9.07445e-05
9.58534e-05
9.58372e-05
9.58513e-05
9.5835e-05
9.08387e-05
9.07385e-05
9.58681e-05
9.58396e-05
9.58661e-05
9.5838e-05
9.58477e-05
9.58669e-05
9.58475e-05
9.08431e-05
9.07429e-05
9.58671e-05
9.58719e-05
9.5867e-05
9.07973e-05
9.0747e-05
9.08049e-05
9.5852e-05
9.58357e-05
9.58518e-05
9.58356e-05
9.07406e-05
9.07969e-05
9.58668e-05
9.58388e-05
9.58666e-05
9.58385e-05
9.58488e-05
9.58676e-05
9.58469e-05
9.07566e-05
9.0778e-05
9.5868e-05
9.58721e-05
9.58664e-05
9.07417e-05
9.07515e-05
9.09038e-05
9.58514e-05
9.58352e-05
9.58529e-05
9.58368e-05
9.07432e-05
9.08945e-05
9.58662e-05
9.58382e-05
9.58675e-05
9.58391e-05
9.58475e-05
9.58688e-05
9.58465e-05
9.07339e-05
9.08615e-05
9.58672e-05
9.58724e-05
9.58662e-05
9.07656e-05
9.08412e-05
9.09121e-05
9.58511e-05
9.58351e-05
9.58526e-05
9.58367e-05
9.08279e-05
9.09125e-05
9.58658e-05
9.58379e-05
9.58672e-05
9.58394e-05
9.58464e-05
9.58685e-05
9.58473e-05
9.07918e-05
9.09137e-05
9.58661e-05
9.58727e-05
9.58667e-05
9.08412e-05
9.08989e-05
9.08585e-05
9.58519e-05
9.58357e-05
9.58529e-05
9.58363e-05
9.08916e-05
9.08699e-05
9.58665e-05
9.58383e-05
9.58675e-05
9.58398e-05
9.58465e-05
9.58679e-05
9.58482e-05
9.08666e-05
9.09055e-05
9.58659e-05
9.58743e-05
9.58673e-05
9.09025e-05
9.0886e-05
9.07905e-05
9.58533e-05
9.58362e-05
9.58527e-05
9.5836e-05
9.08905e-05
9.07984e-05
9.58679e-05
9.58392e-05
9.58673e-05
9.58397e-05
9.58468e-05
9.58676e-05
9.58477e-05
9.09006e-05
9.08496e-05
9.58661e-05
9.58737e-05
9.58671e-05
9.08885e-05
9.08369e-05
9.07611e-05
9.58536e-05
9.58367e-05
9.58525e-05
9.58356e-05
9.08477e-05
9.07526e-05
9.58681e-05
9.58397e-05
9.58671e-05
9.58392e-05
9.5847e-05
9.58672e-05
9.58471e-05
9.08823e-05
9.0781e-05
9.58664e-05
9.5873e-05
9.58666e-05
9.08315e-05
9.07784e-05
9.07642e-05
9.58527e-05
9.5836e-05
9.5852e-05
9.58351e-05
9.0778e-05
9.07573e-05
9.58674e-05
9.58398e-05
9.58666e-05
9.58386e-05
9.58471e-05
9.58665e-05
9.58465e-05
9.08254e-05
9.07612e-05
9.58667e-05
9.58723e-05
9.5866e-05
9.07789e-05
9.07398e-05
9.08093e-05
9.58525e-05
9.58355e-05
9.5852e-05
9.58353e-05
9.07318e-05
9.08154e-05
9.58671e-05
9.58391e-05
9.58666e-05
9.58391e-05
9.58468e-05
9.58666e-05
9.5847e-05
9.0751e-05
9.0828e-05
9.58663e-05
9.58726e-05
9.58664e-05
9.08015e-05
9.07537e-05
9.08989e-05
9.5852e-05
9.58352e-05
9.5853e-05
9.58367e-05
9.07576e-05
9.09027e-05
9.58666e-05
9.58388e-05
9.58678e-05
9.58401e-05
9.58473e-05
9.58678e-05
9.58482e-05
9.0777e-05
9.09099e-05
9.58667e-05
9.58736e-05
9.58677e-05
9.08271e-05
9.08382e-05
9.08932e-05
9.58519e-05
9.58353e-05
9.58539e-05
9.58371e-05
9.08488e-05
9.08845e-05
9.58665e-05
9.58389e-05
9.58686e-05
9.58402e-05
9.58481e-05
9.58685e-05
9.58475e-05
9.08675e-05
9.08921e-05
9.58676e-05
9.5874e-05
9.58668e-05
9.07803e-05
9.08911e-05
9.08018e-05
9.58536e-05
9.58371e-05
9.58526e-05
9.58359e-05
9.08878e-05
9.07938e-05
9.58684e-05
9.58401e-05
9.5867e-05
9.58395e-05
9.5848e-05
9.58672e-05
9.58469e-05
9.08977e-05
9.08163e-05
9.58674e-05
9.58733e-05
9.58663e-05
9.07582e-05
9.08301e-05
9.07843e-05
9.58537e-05
9.58371e-05
9.58528e-05
9.58359e-05
9.08254e-05
9.07757e-05
9.58684e-05
9.58403e-05
9.58673e-05
9.58396e-05
9.58476e-05
9.58673e-05
9.5847e-05
9.085e-05
9.07771e-05
9.58669e-05
9.58735e-05
9.58665e-05
9.07893e-05
9.07654e-05
9.08205e-05
9.58533e-05
9.58365e-05
9.58533e-05
9.58358e-05
9.07625e-05
9.08002e-05
9.58679e-05
9.58402e-05
9.5868e-05
9.58396e-05
9.58474e-05
9.5867e-05
9.58481e-05
9.07884e-05
9.07852e-05
9.58669e-05
9.58731e-05
9.58676e-05
9.08628e-05
9.07809e-05
9.08365e-05
9.58533e-05
9.58361e-05
9.58523e-05
9.58349e-05
9.07646e-05
9.08126e-05
9.58679e-05
9.584e-05
9.5867e-05
9.58385e-05
9.58471e-05
9.5866e-05
9.58473e-05
9.07611e-05
9.08038e-05
9.58666e-05
9.58719e-05
9.58669e-05
9.08518e-05
9.07851e-05
9.58518e-05
9.58345e-05
9.07636e-05
9.58665e-05
9.58381e-05
9.58466e-05
9.07591e-05
9.58662e-05
7.80485e-05
4.95281e-05
2.35454e-05
7.80449e-05
4.95231e-05
0.000124773
0.000124767
0.000124766
0.000124768
8.51825e-05
9.58658e-05
7.57892e-05
0.000108114
2.35444e-05
8.51761e-05
9.58698e-05
0.000108116
7.57912e-05
9.07212e-05
6.54991e-05
6.5496e-05
7.80517e-05
4.95276e-05
7.80394e-05
4.9528e-05
2.35444e-05
2.35453e-05
7.80476e-05
4.95226e-05
7.80355e-05
4.95229e-05
0.000124766
0.000124765
0.000124767
0.000124772
0.000124766
0.000124765
0.000124766
8.51844e-05
7.57795e-05
0.000108113
9.58663e-05
8.51784e-05
7.57928e-05
0.000108113
2.35434e-05
2.35443e-05
8.51774e-05
0.000108115
7.57809e-05
9.58702e-05
8.51724e-05
0.000108115
7.57942e-05
6.54939e-05
6.54911e-05
9.07888e-05
6.54995e-05
6.54967e-05
7.80542e-05
4.95275e-05
7.80422e-05
4.95279e-05
2.35443e-05
2.35452e-05
7.80499e-05
4.95224e-05
7.8038e-05
4.95228e-05
0.000124766
0.000124765
0.000124767
0.000124774
0.000124768
0.000124767
0.000124769
8.51911e-05
7.57823e-05
0.000108114
9.58703e-05
8.5186e-05
7.57944e-05
0.000108116
2.35433e-05
2.35442e-05
8.51826e-05
0.000108115
7.5784e-05
9.58737e-05
8.51772e-05
0.000108117
7.57956e-05
6.54946e-05
6.54916e-05
9.08839e-05
6.55001e-05
6.54969e-05
7.80542e-05
4.95274e-05
7.80433e-05
4.95279e-05
2.35443e-05
2.35452e-05
7.80494e-05
4.95224e-05
7.80388e-05
4.95228e-05
0.000124771
0.000124769
0.000124772
0.000124776
0.000124771
0.00012477
0.000124771
8.51805e-05
7.57831e-05
0.00010812
9.58745e-05
8.51854e-05
7.57937e-05
0.000108121
2.35433e-05
2.35441e-05
8.51718e-05
0.000108121
7.57847e-05
9.58778e-05
8.51773e-05
0.000108122
7.57948e-05
6.54949e-05
6.54918e-05
9.09094e-05
6.55004e-05
6.54972e-05
7.80519e-05
4.95275e-05
7.80417e-05
4.9528e-05
2.35442e-05
2.35452e-05
7.80476e-05
4.95224e-05
7.80369e-05
4.95229e-05
0.000124768
0.000124766
0.000124767
0.000124766
0.000124761
0.000124759
0.00012476
8.51634e-05
7.57813e-05
0.000108113
9.58693e-05
8.51628e-05
7.57948e-05
0.000108112
2.35433e-05
2.35442e-05
8.51575e-05
0.000108115
7.57832e-05
9.58727e-05
8.51562e-05
0.000108113
7.57972e-05
6.54956e-05
6.54923e-05
9.08767e-05
6.55014e-05
6.54981e-05
7.80528e-05
4.95275e-05
7.80411e-05
4.95279e-05
2.35442e-05
2.35452e-05
7.80489e-05
4.95225e-05
7.80373e-05
4.95229e-05
0.00012476
0.000124758
0.00012476
0.000124765
0.000124759
0.000124758
0.000124759
8.51707e-05
7.57853e-05
0.000108109
9.58647e-05
8.5179e-05
7.57963e-05
0.000108109
2.35433e-05
2.35442e-05
8.51618e-05
0.00010811
7.57875e-05
9.58682e-05
8.51652e-05
0.00010811
7.57955e-05
6.54963e-05
6.54933e-05
9.08098e-05
6.55017e-05
6.54987e-05
7.80527e-05
4.95275e-05
7.80419e-05
4.95279e-05
2.35442e-05
2.35452e-05
7.80491e-05
4.95224e-05
7.80379e-05
4.95229e-05
0.000124759
0.000124757
0.000124759
0.000124763
0.000124758
0.000124756
0.000124758
8.51728e-05
7.57844e-05
0.000108108
9.58636e-05
8.51716e-05
7.57966e-05
0.000108108
2.35433e-05
2.35442e-05
8.51568e-05
0.000108109
7.57875e-05
9.58666e-05
8.51635e-05
0.000108109
7.57979e-05
6.5497e-05
6.54939e-05
9.07441e-05
6.55025e-05
6.54995e-05
7.80539e-05
4.95275e-05
7.80422e-05
4.9528e-05
2.35443e-05
2.35452e-05
7.805e-05
4.95224e-05
7.80384e-05
4.95229e-05
0.000124758
0.000124757
0.000124758
0.000124763
0.000124758
0.000124756
0.000124757
8.51744e-05
7.57844e-05
0.000108108
9.58642e-05
8.51583e-05
7.57976e-05
0.000108108
2.35433e-05
2.35442e-05
8.51596e-05
0.000108109
7.57864e-05
9.58669e-05
8.51574e-05
0.000108109
7.57999e-05
6.54976e-05
6.54945e-05
9.07373e-05
6.55033e-05
6.55001e-05
7.80549e-05
4.95276e-05
7.8044e-05
4.9528e-05
2.35443e-05
2.35453e-05
7.80516e-05
4.95225e-05
7.80403e-05
4.9523e-05
0.000124758
0.000124756
0.000124757
0.000124763
0.000124758
0.000124756
0.000124757
8.51643e-05
7.5784e-05
0.00010811
9.58645e-05
8.51695e-05
7.57969e-05
0.000108111
2.35433e-05
2.35442e-05
8.51551e-05
0.00010811
7.5785e-05
9.58678e-05
8.51657e-05
0.00010811
7.5798e-05
6.54981e-05
6.5495e-05
9.08072e-05
6.55038e-05
6.55005e-05
7.80562e-05
4.95276e-05
7.80444e-05
4.95281e-05
2.35443e-05
2.35453e-05
7.80525e-05
4.95226e-05
7.80407e-05
4.9523e-05
0.000124758
0.000124756
0.000124758
0.000124764
0.000124758
0.000124756
0.000124758
8.51744e-05
7.57861e-05
0.00010811
9.58669e-05
8.51714e-05
7.57981e-05
0.00010811
2.35434e-05
2.35443e-05
8.51646e-05
0.00010811
7.57887e-05
9.58712e-05
8.51657e-05
0.000108112
7.57996e-05
6.54989e-05
6.54957e-05
9.08878e-05
6.55044e-05
6.55013e-05
7.80566e-05
4.95277e-05
7.80453e-05
4.95282e-05
2.35444e-05
2.35453e-05
7.80529e-05
4.95226e-05
7.8042e-05
4.95231e-05
0.000124758
0.000124757
0.000124758
0.000124764
0.000124758
0.000124757
0.000124758
8.51734e-05
7.57866e-05
0.000108109
9.58676e-05
8.51681e-05
7.57985e-05
0.000108109
2.35434e-05
2.35443e-05
8.51658e-05
0.00010811
7.57879e-05
9.58718e-05
8.51653e-05
0.00010811
7.58007e-05
6.54992e-05
6.54961e-05
9.07997e-05
6.55047e-05
6.55015e-05
7.80571e-05
4.95278e-05
7.80462e-05
4.95282e-05
2.35444e-05
2.35453e-05
7.80537e-05
4.95227e-05
7.8043e-05
4.95232e-05
0.000124758
0.000124757
0.000124758
0.000124763
0.000124758
0.000124756
0.000124758
8.51728e-05
7.57874e-05
0.000108109
9.58688e-05
8.51727e-05
7.5799e-05
0.000108109
2.35434e-05
2.35443e-05
8.51684e-05
0.00010811
7.57883e-05
9.58733e-05
8.51686e-05
0.000108111
7.58008e-05
6.54994e-05
6.54964e-05
9.08186e-05
6.55048e-05
6.55017e-05
7.80574e-05
4.95278e-05
7.80466e-05
4.95283e-05
2.35444e-05
2.35453e-05
7.80541e-05
4.95228e-05
7.80432e-05
4.95232e-05
0.000124758
0.000124757
0.000124758
0.000124764
0.000124758
0.000124757
0.000124758
8.51742e-05
7.57876e-05
0.000108109
9.58694e-05
8.51753e-05
7.57995e-05
0.000108109
2.35434e-05
2.35443e-05
8.5171e-05
0.00010811
7.57889e-05
9.5874e-05
8.51695e-05
0.00010811
7.58013e-05
6.54996e-05
6.54966e-05
9.08915e-05
6.5505e-05
6.55019e-05
7.80577e-05
4.95279e-05
7.80467e-05
4.95283e-05
2.35444e-05
2.35454e-05
7.80543e-05
4.95228e-05
7.80434e-05
4.95232e-05
0.000124758
0.000124757
0.000124758
0.000124763
0.000124758
0.000124756
0.000124757
8.51762e-05
7.57878e-05
0.000108109
9.58678e-05
8.51773e-05
7.57995e-05
0.000108109
2.35435e-05
2.35444e-05
8.51732e-05
0.00010811
7.57891e-05
9.58726e-05
8.51708e-05
0.00010811
7.58014e-05
6.54997e-05
6.54965e-05
9.091e-05
6.55049e-05
6.55017e-05
7.80575e-05
4.95279e-05
7.80466e-05
4.95283e-05
2.35444e-05
2.35454e-05
7.80543e-05
4.95228e-05
7.80433e-05
4.95233e-05
0.000124758
0.000124756
0.000124757
0.000124763
0.000124757
0.000124756
0.000124757
8.51775e-05
7.57879e-05
0.000108109
9.58669e-05
8.51772e-05
7.57995e-05
0.000108109
2.35435e-05
2.35444e-05
8.51728e-05
0.000108109
7.57886e-05
9.58714e-05
8.51692e-05
0.000108109
7.58011e-05
6.54995e-05
6.54962e-05
9.0853e-05
6.55048e-05
6.55015e-05
7.80573e-05
4.95279e-05
7.80461e-05
4.95283e-05
2.35444e-05
2.35454e-05
7.8054e-05
4.95228e-05
7.8043e-05
4.95233e-05
0.000124757
0.000124755
0.000124757
0.000124762
0.000124757
0.000124756
0.000124757
8.51779e-05
7.57878e-05
0.000108108
9.58664e-05
8.51768e-05
7.57993e-05
0.000108108
2.35435e-05
2.35444e-05
8.51735e-05
0.000108109
7.57886e-05
9.58717e-05
8.5169e-05
0.00010811
7.58014e-05
6.54992e-05
6.54961e-05
9.07735e-05
6.55046e-05
6.55014e-05
7.80573e-05
4.95279e-05
7.8046e-05
4.95283e-05
2.35444e-05
2.35454e-05
7.8054e-05
4.95228e-05
7.80428e-05
4.95233e-05
0.000124757
0.000124756
0.000124757
0.000124762
0.000124757
0.000124755
0.000124756
8.51783e-05
7.57878e-05
0.000108108
9.58672e-05
8.51767e-05
7.57993e-05
0.000108109
2.35435e-05
2.35444e-05
8.51733e-05
0.000108111
7.57888e-05
9.58728e-05
8.51707e-05
0.000108112
7.58013e-05
6.54991e-05
6.54961e-05
9.07531e-05
6.55044e-05
6.55014e-05
7.8057e-05
4.95279e-05
7.80459e-05
4.95283e-05
2.35444e-05
2.35454e-05
7.80538e-05
4.95228e-05
7.80427e-05
4.95233e-05
0.000124757
0.000124755
0.000124757
0.000124762
0.000124757
0.000124755
0.000124756
8.51786e-05
7.57879e-05
0.000108108
9.58681e-05
8.51774e-05
7.57994e-05
0.000108108
2.35435e-05
2.35444e-05
8.5173e-05
0.000108111
7.5789e-05
9.58732e-05
8.51723e-05
0.000108111
7.58015e-05
6.5499e-05
6.5496e-05
9.07918e-05
6.55044e-05
6.55013e-05
7.80569e-05
4.95279e-05
7.80457e-05
4.95283e-05
2.35444e-05
2.35454e-05
7.80536e-05
4.95228e-05
7.80425e-05
4.95233e-05
0.000124757
0.000124755
0.000124757
0.000124762
0.000124757
0.000124755
0.000124756
8.51789e-05
7.57876e-05
0.000108108
9.58679e-05
8.5178e-05
7.57992e-05
0.000108108
2.35435e-05
2.35444e-05
8.51742e-05
0.00010811
7.57887e-05
9.58735e-05
8.51731e-05
0.00010811
7.58014e-05
6.5499e-05
6.54959e-05
9.08547e-05
6.55043e-05
6.55012e-05
7.80566e-05
4.95279e-05
7.80454e-05
4.95283e-05
2.35444e-05
2.35454e-05
7.80533e-05
4.95228e-05
7.80422e-05
4.95232e-05
0.000124757
0.000124755
0.000124757
0.000124762
0.000124757
0.000124755
0.000124757
8.51783e-05
7.57874e-05
0.000108108
9.58677e-05
8.51775e-05
7.57989e-05
0.000108108
2.35435e-05
2.35444e-05
8.51749e-05
0.00010811
7.57885e-05
9.58737e-05
8.51729e-05
0.00010811
7.58007e-05
6.54989e-05
6.54958e-05
9.08748e-05
6.55042e-05
6.5501e-05
7.80561e-05
4.95279e-05
7.80451e-05
4.95283e-05
2.35444e-05
2.35454e-05
7.80528e-05
4.95228e-05
7.80419e-05
4.95232e-05
0.000124757
0.000124755
0.000124757
0.000124762
0.000124757
0.000124755
0.000124757
8.51759e-05
7.57872e-05
0.000108109
9.58668e-05
8.5178e-05
7.57986e-05
0.000108109
2.35435e-05
2.35444e-05
8.51735e-05
0.000108111
7.57887e-05
9.58726e-05
8.51731e-05
0.000108111
7.58008e-05
6.54987e-05
6.54956e-05
9.08337e-05
6.5504e-05
6.55008e-05
7.80557e-05
4.95278e-05
7.80448e-05
4.95283e-05
2.35444e-05
2.35454e-05
7.80523e-05
4.95228e-05
7.80416e-05
4.95232e-05
0.000124757
0.000124756
0.000124757
0.000124762
0.000124757
0.000124756
0.000124757
8.51752e-05
7.57868e-05
0.000108109
9.58663e-05
8.51787e-05
7.57984e-05
0.000108109
2.35435e-05
2.35444e-05
8.51731e-05
0.000108111
7.57886e-05
9.58721e-05
8.51746e-05
0.000108111
7.58011e-05
6.54985e-05
6.54954e-05
9.08528e-05
6.55038e-05
6.55006e-05
7.80554e-05
4.95278e-05
7.80442e-05
4.95282e-05
2.35444e-05
2.35454e-05
7.80521e-05
4.95227e-05
7.8041e-05
4.95232e-05
0.000124757
0.000124756
0.000124757
0.000124762
0.000124757
0.000124756
0.000124757
8.5175e-05
7.57865e-05
0.000108109
9.58668e-05
8.51772e-05
7.5798e-05
0.000108109
2.35435e-05
2.35444e-05
8.51742e-05
0.000108111
7.57884e-05
9.58725e-05
8.51743e-05
0.000108112
7.58008e-05
6.54983e-05
6.54952e-05
9.08934e-05
6.55036e-05
6.55005e-05
7.80549e-05
4.95278e-05
7.80437e-05
4.95282e-05
2.35444e-05
2.35454e-05
7.80516e-05
4.95227e-05
7.80405e-05
4.95232e-05
0.000124757
0.000124756
0.000124758
0.000124762
0.000124756
0.000124756
0.000124757
8.51726e-05
7.57864e-05
0.000108109
9.58686e-05
8.51765e-05
7.57978e-05
0.000108109
2.35435e-05
2.35444e-05
8.5173e-05
0.000108112
7.57884e-05
9.58741e-05
8.51727e-05
0.000108112
7.58004e-05
6.54982e-05
6.54951e-05
9.08896e-05
6.55035e-05
6.55003e-05
7.80545e-05
4.95278e-05
7.80437e-05
4.95282e-05
2.35444e-05
2.35454e-05
7.80513e-05
4.95227e-05
7.80404e-05
4.95232e-05
0.000124755
0.000124756
0.000124757
0.000124761
0.000124754
0.000124753
0.000124754
8.51713e-05
7.57861e-05
0.000108109
9.58679e-05
8.51777e-05
7.57974e-05
0.000108108
2.35435e-05
2.35444e-05
8.51696e-05
0.000108111
7.57882e-05
9.5874e-05
8.51739e-05
0.000108111
7.57998e-05
6.5498e-05
6.54949e-05
9.08302e-05
6.55032e-05
6.55e-05
7.80539e-05
4.95278e-05
7.80432e-05
4.95282e-05
2.35444e-05
2.35454e-05
7.80506e-05
4.95227e-05
7.80399e-05
4.95232e-05
0.000124754
0.000124753
0.000124753
0.000124759
0.000124753
0.000124751
0.000124751
8.51696e-05
7.57852e-05
0.000108107
9.58671e-05
8.51768e-05
7.57968e-05
0.000108107
2.35435e-05
2.35444e-05
8.5166e-05
0.00010811
7.57874e-05
9.58734e-05
8.51756e-05
0.000108109
7.57993e-05
6.54976e-05
6.54945e-05
9.07815e-05
6.55029e-05
6.54998e-05
7.80534e-05
4.95278e-05
7.80433e-05
4.95283e-05
2.35444e-05
2.35454e-05
7.805e-05
4.95227e-05
7.80401e-05
4.95232e-05
0.000124753
0.00012475
0.000124751
8.51861e-05
7.57844e-05
0.000108105
9.58652e-05
8.51737e-05
7.57958e-05
0.000108105
2.35435e-05
2.35444e-05
8.51817e-05
0.000108108
7.57863e-05
9.58712e-05
8.5175e-05
0.000108107
7.57982e-05
6.54975e-05
6.54944e-05
9.08319e-05
6.55028e-05
6.54997e-05
2.3548e-05
2.35454e-05
9.07229e-05
6.55048e-05
6.54998e-05
2.3548e-05
2.35471e-05
2.35453e-05
2.35445e-05
9.07131e-05
6.55052e-05
6.55001e-05
6.54994e-05
6.54943e-05
7.80459e-05
4.95227e-05
8.51813e-05
9.58481e-05
7.57927e-05
0.000108109
8.51789e-05
9.5834e-05
7.5776e-05
0.000108102
7.80373e-05
4.95281e-05
4.95277e-05
7.805e-05
7.80346e-05
4.95226e-05
4.95223e-05
7.80474e-05
8.51774e-05
9.5848e-05
7.57949e-05
0.000108107
7.57816e-05
0.000108108
8.51758e-05
8.5175e-05
9.58339e-05
7.57766e-05
0.000108101
7.57672e-05
0.000108101
8.51731e-05
9.07189e-05
6.54864e-05
6.55018e-05
2.35465e-05
2.35454e-05
2.35445e-05
9.07108e-05
6.54863e-05
6.55021e-05
6.54805e-05
6.54964e-05
2.35465e-05
2.35457e-05
8.51785e-05
9.58659e-05
7.57874e-05
0.000108111
7.80326e-05
4.95195e-05
8.51739e-05
9.58362e-05
0.000108104
7.57829e-05
7.80337e-05
4.9523e-05
4.95226e-05
7.80461e-05
8.51749e-05
9.58657e-05
7.5789e-05
0.000108109
7.57758e-05
0.00010811
8.51743e-05
7.80215e-05
4.95194e-05
4.9519e-05
7.80351e-05
8.51709e-05
9.5836e-05
0.000108103
7.57846e-05
0.000108103
7.57715e-05
8.51708e-05
7.80462e-05
4.95246e-05
8.5181e-05
9.58445e-05
0.000108114
7.57852e-05
7.80453e-05
4.95215e-05
8.51808e-05
9.58659e-05
7.57908e-05
0.000108113
7.57775e-05
0.000108114
8.51794e-05
7.80354e-05
4.95245e-05
4.95241e-05
7.80476e-05
8.51785e-05
9.58443e-05
0.000108112
7.57871e-05
0.000108113
7.57742e-05
8.51777e-05
7.80345e-05
4.95215e-05
4.95211e-05
7.80468e-05
9.07241e-05
6.54958e-05
6.55046e-05
2.35461e-05
2.35443e-05
2.35435e-05
9.07124e-05
6.54961e-05
6.55048e-05
6.54903e-05
6.54991e-05
2.35461e-05
2.35452e-05
8.51769e-05
9.58641e-05
0.00010812
7.57837e-05
7.80347e-05
4.95236e-05
7.80429e-05
4.95199e-05
8.51732e-05
9.58697e-05
0.000108115
7.57921e-05
0.000108116
7.57796e-05
8.51731e-05
8.51736e-05
9.5864e-05
0.000108119
7.57853e-05
0.000108119
7.57723e-05
8.51729e-05
7.80233e-05
4.95235e-05
4.95231e-05
7.80371e-05
7.80317e-05
4.95198e-05
4.95194e-05
7.80442e-05
2.35456e-05
2.35446e-05
9.07113e-05
6.54993e-05
6.54963e-05
6.54936e-05
6.54905e-05
2.35456e-05
2.35447e-05
2.35445e-05
2.35437e-05
2.35471e-05
2.35479e-05
2.35444e-05
2.35453e-05
6.54998e-05
6.54946e-05
9.07964e-05
6.55056e-05
6.55004e-05
2.35479e-05
2.3547e-05
2.35452e-05
2.35444e-05
9.07371e-05
6.55058e-05
6.55006e-05
6.55001e-05
6.54949e-05
7.80491e-05
4.95222e-05
7.80362e-05
4.95226e-05
8.51839e-05
7.57835e-05
0.000108107
9.58486e-05
8.51764e-05
7.57969e-05
0.000108107
8.51816e-05
7.57679e-05
0.0001081
9.58343e-05
8.51738e-05
7.57789e-05
0.0001081
7.80405e-05
4.9528e-05
4.95276e-05
7.80529e-05
7.80378e-05
4.95225e-05
4.95221e-05
7.80502e-05
8.51834e-05
9.58477e-05
7.57982e-05
0.000108107
7.57852e-05
0.000108107
8.51816e-05
8.51813e-05
9.58328e-05
7.57802e-05
0.0001081
7.57703e-05
0.0001081
8.51792e-05
6.54804e-05
6.54968e-05
9.07912e-05
6.54866e-05
6.55026e-05
2.35456e-05
2.35464e-05
2.35452e-05
2.35443e-05
9.07325e-05
6.5487e-05
6.55029e-05
6.54808e-05
6.54972e-05
2.35464e-05
2.35456e-05
8.51807e-05
7.57777e-05
0.000108109
9.58657e-05
8.51749e-05
7.57912e-05
0.000108108
7.80375e-05
4.9519e-05
7.8024e-05
4.95194e-05
8.51757e-05
0.000108102
7.57733e-05
9.58364e-05
8.51713e-05
0.000108102
7.57868e-05
7.80364e-05
4.95229e-05
4.95225e-05
7.80487e-05
8.51798e-05
9.58645e-05
7.57922e-05
0.000108108
7.57792e-05
0.000108108
8.51795e-05
7.80262e-05
4.95193e-05
4.95189e-05
7.80395e-05
8.51752e-05
9.58351e-05
0.000108102
7.57881e-05
0.000108102
7.5775e-05
8.51765e-05
7.80493e-05
4.95241e-05
7.80369e-05
4.95245e-05
8.51833e-05
0.000108112
7.57764e-05
9.58444e-05
8.51775e-05
0.000108112
7.57893e-05
7.80484e-05
4.9521e-05
7.80361e-05
4.95214e-05
8.51862e-05
9.58648e-05
7.5794e-05
0.000108113
7.57809e-05
0.000108113
8.51876e-05
7.80386e-05
4.95244e-05
4.9524e-05
7.80507e-05
8.51837e-05
9.58435e-05
0.000108112
7.57904e-05
0.000108112
7.57781e-05
8.5185e-05
7.80376e-05
4.95213e-05
4.95209e-05
7.80498e-05
6.54907e-05
6.54993e-05
9.07994e-05
6.54965e-05
6.5505e-05
2.35452e-05
2.3546e-05
2.35442e-05
2.35434e-05
9.07395e-05
6.54969e-05
6.55053e-05
6.54912e-05
6.54995e-05
2.3546e-05
2.35451e-05
8.5179e-05
0.000108118
7.5774e-05
9.58641e-05
8.51729e-05
0.000108118
7.57875e-05
7.80395e-05
4.9523e-05
7.80257e-05
4.95235e-05
7.80456e-05
4.95193e-05
7.8033e-05
4.95197e-05
8.5178e-05
9.58683e-05
0.000108115
7.5796e-05
0.000108115
7.57831e-05
8.51789e-05
8.51789e-05
9.58633e-05
0.000108118
7.57886e-05
0.000108118
7.57756e-05
8.5179e-05
7.8028e-05
4.95234e-05
4.9523e-05
7.80414e-05
7.80345e-05
4.95197e-05
4.95193e-05
7.80468e-05
2.35447e-05
2.35455e-05
2.35437e-05
2.35445e-05
9.07315e-05
6.54999e-05
6.54969e-05
6.54941e-05
6.54913e-05
2.35455e-05
2.35446e-05
2.35445e-05
2.35436e-05
2.3547e-05
2.35478e-05
2.35443e-05
2.35452e-05
6.55003e-05
6.5495e-05
9.08966e-05
6.55058e-05
6.55007e-05
2.35478e-05
2.3547e-05
2.35452e-05
2.35443e-05
9.0828e-05
6.5506e-05
6.55009e-05
6.55003e-05
6.54952e-05
7.80515e-05
4.9522e-05
7.8039e-05
4.95224e-05
8.5188e-05
7.5786e-05
0.000108108
9.58531e-05
8.51804e-05
7.57984e-05
0.00010811
8.5185e-05
7.57713e-05
0.0001081
9.58381e-05
8.51776e-05
7.57799e-05
0.000108103
7.80429e-05
4.95279e-05
4.95274e-05
7.80544e-05
7.80401e-05
4.95224e-05
4.9522e-05
7.80518e-05
8.51891e-05
9.58534e-05
7.57991e-05
0.000108113
7.57863e-05
0.000108112
8.51877e-05
8.51867e-05
9.58383e-05
7.57806e-05
0.000108106
7.57708e-05
0.000108105
8.51859e-05
6.54812e-05
6.54975e-05
9.08933e-05
6.54873e-05
6.55029e-05
2.35455e-05
2.35464e-05
2.35452e-05
2.35443e-05
9.08252e-05
6.54876e-05
6.55029e-05
6.54815e-05
6.54975e-05
2.35464e-05
2.35455e-05
8.51858e-05
7.57801e-05
0.000108109
9.58696e-05
8.5179e-05
7.57927e-05
0.00010811
7.8041e-05
4.95188e-05
7.80281e-05
4.95193e-05
8.51831e-05
0.000108102
7.57758e-05
9.58403e-05
8.51768e-05
0.000108104
7.57881e-05
7.80385e-05
4.95228e-05
4.95224e-05
7.80499e-05
8.51861e-05
9.58698e-05
7.57932e-05
0.000108114
7.57805e-05
0.000108112
8.51842e-05
7.80293e-05
4.95192e-05
4.95188e-05
7.80411e-05
8.51828e-05
9.58404e-05
0.000108108
7.5789e-05
0.000108106
7.57759e-05
8.51793e-05
7.80516e-05
4.9524e-05
7.80399e-05
4.95244e-05
8.51906e-05
0.000108113
7.57793e-05
9.58485e-05
8.51844e-05
0.000108115
7.5791e-05
7.80508e-05
4.95209e-05
7.8039e-05
4.95213e-05
8.51926e-05
9.58702e-05
7.5795e-05
0.000108119
7.57824e-05
0.000108118
8.51896e-05
7.80405e-05
4.95244e-05
4.95239e-05
7.8051e-05
8.51912e-05
9.58489e-05
0.000108118
7.57916e-05
0.000108117
7.57794e-05
8.51885e-05
7.80397e-05
4.95213e-05
4.95208e-05
7.80504e-05
6.54914e-05
6.54998e-05
9.0898e-05
6.54969e-05
6.55055e-05
2.35451e-05
2.35459e-05
2.35442e-05
2.35433e-05
9.08317e-05
6.54969e-05
6.55057e-05
6.54914e-05
6.55e-05
2.35459e-05
2.3545e-05
8.51838e-05
0.000108119
7.57765e-05
9.58682e-05
8.51777e-05
0.000108121
7.5789e-05
7.80429e-05
4.95229e-05
7.80298e-05
4.95233e-05
7.80479e-05
4.95192e-05
7.80356e-05
4.95196e-05
8.51839e-05
9.58736e-05
0.000108121
7.57967e-05
0.000108119
7.57839e-05
8.51818e-05
8.51847e-05
9.58684e-05
0.000108124
7.57896e-05
0.000108123
7.57769e-05
8.51837e-05
7.8031e-05
4.95233e-05
4.95229e-05
7.80428e-05
7.80365e-05
4.95196e-05
4.95192e-05
7.80478e-05
2.35446e-05
2.35454e-05
2.35436e-05
2.35444e-05
9.08145e-05
6.55003e-05
6.54971e-05
6.54946e-05
6.54915e-05
2.35454e-05
2.35446e-05
2.35444e-05
2.35435e-05
2.35469e-05
2.35478e-05
2.35443e-05
2.35452e-05
6.55005e-05
6.54954e-05
9.09166e-05
6.5506e-05
6.55009e-05
2.35478e-05
2.35469e-05
2.35452e-05
2.35443e-05
9.08922e-05
6.55063e-05
6.55012e-05
6.55005e-05
6.54954e-05
7.80517e-05
4.9522e-05
7.80401e-05
4.95224e-05
8.51842e-05
7.57867e-05
0.000108114
9.5857e-05
8.51841e-05
7.57974e-05
0.000108114
8.51805e-05
7.57712e-05
0.000108107
9.5842e-05
8.51818e-05
7.57782e-05
0.000108107
7.80425e-05
4.95279e-05
4.95274e-05
7.80531e-05
7.80399e-05
4.95225e-05
4.9522e-05
7.80506e-05
8.5185e-05
9.58542e-05
7.57965e-05
0.00010811
7.57848e-05
0.000108113
8.5185e-05
8.51817e-05
9.58396e-05
7.57828e-05
0.000108103
7.57695e-05
0.000108105
8.5184e-05
6.54817e-05
6.54975e-05
9.09124e-05
6.54878e-05
6.5503e-05
2.35455e-05
2.35463e-05
2.35452e-05
2.35443e-05
9.08886e-05
6.54885e-05
6.55033e-05
6.54821e-05
6.54976e-05
2.35463e-05
2.35455e-05
8.51814e-05
7.57808e-05
0.000108115
9.58734e-05
8.51812e-05
7.5792e-05
0.000108116
7.80406e-05
4.95188e-05
7.80292e-05
4.95192e-05
8.51771e-05
0.000108109
7.57766e-05
9.58443e-05
8.51769e-05
0.00010811
7.57873e-05
7.80377e-05
4.95228e-05
4.95223e-05
7.80482e-05
8.51808e-05
9.58706e-05
7.57908e-05
0.000108111
7.57792e-05
0.000108113
8.5174e-05
7.80285e-05
4.95192e-05
4.95188e-05
7.80396e-05
8.51747e-05
9.58418e-05
0.000108104
7.5786e-05
0.000108107
7.57746e-05
8.51629e-05
7.80498e-05
4.95239e-05
7.80396e-05
4.95243e-05
8.51826e-05
0.000108119
7.57799e-05
9.58527e-05
8.51853e-05
0.00010812
7.57896e-05
7.80493e-05
4.95208e-05
7.8039e-05
4.95213e-05
8.51777e-05
9.58723e-05
7.57926e-05
0.000108116
7.57809e-05
0.000108119
8.51667e-05
7.80384e-05
4.95244e-05
4.95239e-05
7.80489e-05
8.51794e-05
9.58498e-05
0.000108115
7.57892e-05
0.000108117
7.5777e-05
8.51678e-05
7.80379e-05
4.95213e-05
4.95208e-05
7.80482e-05
6.54914e-05
6.55002e-05
9.09141e-05
6.54969e-05
6.55058e-05
2.3545e-05
2.35459e-05
2.35442e-05
2.35433e-05
9.08919e-05
6.54973e-05
6.55061e-05
6.54915e-05
6.55003e-05
2.35459e-05
2.3545e-05
8.51777e-05
0.000108125
7.57773e-05
9.58722e-05
8.51798e-05
0.000108125
7.57883e-05
7.8042e-05
4.95229e-05
7.80305e-05
4.95233e-05
7.80471e-05
4.95192e-05
7.80361e-05
4.95196e-05
8.5169e-05
9.58757e-05
0.000108118