/*--------------------------------*- C++ -*----------------------------------*\
| =========                 |                                                 |
| \\      /  F ield         | OpenFOAM: The Open Source CFD Toolbox           |
|  \\    /   O peration     | Version:  v2006                                 |
|   \\  /    A nd           | Website:  www.openfoam.com                      |
|    \\/     M anipulation  |                                                 |
\*---------------------------------------------------------------------------*/
FoamFile
{
    version     2.0;
    format      ascii;
    class       volScalarField;
    location    "125";
    object      p;
}
// * * * * * * * * * * * * * * * * * * * * * * * * * * * * * * * * * * * * * //

dimensions      [0 2 -2 0 0 0 0];


internalField   nonuniform List<scalar> 
42840
(
0.00164371
0.00164366
0.00164366
0.00164578
0.00160792
0.00160787
0.00160787
0.00160999
0.00157214
0.00157208
0.00157208
0.0015742
0.00153635
0.00153629
0.00153629
0.00153842
0.00150056
0.00150051
0.00150051
0.00150263
0.00146478
0.00146473
0.00146473
0.00146685
0.001429
0.00142895
0.00142895
0.00143107
0.00139322
0.00139317
0.00139317
0.00139529
0.00135744
0.00135739
0.00135739
0.00135951
0.00132166
0.00132161
0.00132161
0.00132373
0.00128588
0.00128583
0.00128583
0.00128795
0.0012501
0.00125004
0.00125004
0.00125217
0.00121432
0.00121426
0.00121426
0.00121638
0.00117853
0.00117848
0.00117848
0.0011806
0.00114275
0.00114269
0.00114269
0.00114482
0.00110696
0.00110691
0.00110691
0.00110903
0.00107118
0.00107112
0.00107112
0.00107324
0.00103539
0.00103534
0.00103534
0.00103746
0.000999604
0.000999549
0.000999549
0.00100167
0.000963817
0.000963762
0.000963762
0.000965884
0.000928029
0.000927973
0.000927973
0.000930095
0.00089224
0.000892185
0.000892185
0.000894307
0.000856451
0.000856396
0.000856396
0.000858518
0.000820661
0.000820607
0.000820607
0.000822728
0.00078487
0.000784816
0.000784816
0.000786937
0.000749078
0.000749023
0.000749023
0.000751145
0.00165049
0.00165261
0.00165261
0.00165049
0.00165261
0.00165261
0.00165261
0.00165261
0.00165049
0.00165261
0.00165261
0.00165049
0.00164578
0.0016147
0.00164366
0.00164366
0.00161682
0.00161682
0.00164578
0.0016147
0.00164366
0.00164366
0.00161682
0.00161682
0.00164366
0.00161682
0.00161682
0.00164578
0.0016147
0.00164366
0.00161682
0.00161682
0.0016147
0.00160999
0.00157891
0.00160787
0.00160787
0.00158103
0.00158103
0.00160999
0.00157891
0.00160787
0.00160787
0.00158103
0.00158103
0.00160787
0.00158103
0.00158103
0.00160999
0.00157891
0.00160787
0.00158103
0.00158103
0.00157891
0.0015742
0.00154312
0.00157208
0.00157208
0.00154524
0.00154524
0.0015742
0.00154312
0.00157208
0.00157208
0.00154524
0.00154524
0.00157208
0.00154524
0.00154524
0.0015742
0.00154312
0.00157208
0.00154524
0.00154524
0.00154312
0.00153842
0.00150734
0.00153629
0.00153629
0.00150945
0.00150945
0.00153842
0.00150734
0.00153629
0.00153629
0.00150945
0.00150945
0.00153629
0.00150945
0.00150945
0.00153842
0.00150734
0.00153629
0.00150945
0.00150945
0.00150734
0.00150263
0.00147155
0.00150051
0.00150051
0.00147367
0.00147367
0.00150263
0.00147155
0.00150051
0.00150051
0.00147367
0.00147367
0.00150051
0.00147367
0.00147367
0.00150263
0.00147155
0.00150051
0.00147367
0.00147367
0.00147155
0.00146685
0.00143577
0.00146473
0.00146473
0.00143789
0.00143789
0.00146685
0.00143577
0.00146473
0.00146473
0.00143789
0.00143789
0.00146473
0.00143789
0.00143789
0.00146685
0.00143577
0.00146473
0.00143789
0.00143789
0.00143577
0.00143107
0.00139999
0.00142895
0.00142895
0.00140211
0.00140211
0.00143107
0.00139999
0.00142895
0.00142895
0.00140211
0.00140211
0.00142895
0.00140211
0.00140211
0.00143107
0.00139999
0.00142895
0.00140211
0.00140211
0.00139999
0.00139529
0.00136421
0.00139317
0.00139317
0.00136633
0.00136633
0.00139529
0.00136421
0.00139317
0.00139317
0.00136633
0.00136633
0.00139317
0.00136633
0.00136633
0.00139529
0.00136421
0.00139317
0.00136633
0.00136633
0.00136421
0.00135951
0.00132843
0.00135739
0.00135739
0.00133055
0.00133055
0.00135951
0.00132843
0.00135739
0.00135739
0.00133055
0.00133055
0.00135739
0.00133055
0.00133055
0.00135951
0.00132843
0.00135739
0.00133055
0.00133055
0.00132843
0.00132373
0.00129265
0.00132161
0.00132161
0.00129477
0.00129477
0.00132373
0.00129265
0.00132161
0.00132161
0.00129477
0.00129477
0.00132161
0.00129477
0.00129477
0.00132373
0.00129265
0.00132161
0.00129477
0.00129477
0.00129265
0.00128795
0.00125687
0.00128583
0.00128583
0.00125899
0.00125899
0.00128795
0.00125687
0.00128583
0.00128583
0.00125899
0.00125899
0.00128583
0.00125899
0.00125899
0.00128795
0.00125687
0.00128583
0.00125899
0.00125899
0.00125687
0.00125217
0.00122109
0.00125004
0.00125004
0.00122321
0.00122321
0.00125217
0.00122109
0.00125004
0.00125004
0.00122321
0.00122321
0.00125004
0.00122321
0.00122321
0.00125217
0.00122109
0.00125004
0.00122321
0.00122321
0.00122109
0.00121638
0.0011853
0.00121426
0.00121426
0.00118742
0.00118742
0.00121638
0.0011853
0.00121426
0.00121426
0.00118742
0.00118742
0.00121426
0.00118742
0.00118742
0.00121638
0.0011853
0.00121426
0.00118742
0.00118742
0.0011853
0.0011806
0.00114952
0.00117848
0.00117848
0.00115164
0.00115164
0.0011806
0.00114952
0.00117848
0.00117848
0.00115164
0.00115164
0.00117848
0.00115164
0.00115164
0.0011806
0.00114952
0.00117848
0.00115164
0.00115164
0.00114952
0.00114481
0.00111374
0.00114269
0.00114269
0.00111586
0.00111586
0.00114481
0.00111374
0.00114269
0.00114269
0.00111586
0.00111586
0.00114269
0.00111586
0.00111586
0.00114481
0.00111373
0.00114269
0.00111586
0.00111585
0.00111373
0.00110903
0.00107795
0.00110691
0.00110691
0.00108007
0.00108007
0.00110903
0.00107795
0.00110691
0.00110691
0.00108007
0.00108007
0.00110691
0.00108007
0.00108007
0.00110903
0.00107795
0.00110691
0.00108007
0.00108007
0.00107795
0.00107324
0.00104216
0.00107112
0.00107112
0.00104428
0.00104428
0.00107324
0.00104216
0.00107112
0.00107112
0.00104428
0.00104428
0.00107112
0.00104428
0.00104428
0.00107324
0.00104216
0.00107112
0.00104428
0.00104428
0.00104216
0.00103746
0.00100638
0.00103534
0.00103534
0.00100849
0.00100849
0.00103746
0.00100638
0.00103534
0.00103534
0.00100849
0.0010085
0.00103534
0.00100849
0.0010085
0.00103746
0.00100638
0.00103534
0.0010085
0.0010085
0.00100638
0.00100167
0.000970589
0.000999549
0.000999549
0.000972708
0.000972708
0.00100167
0.000970589
0.000999549
0.000999549
0.000972708
0.000972708
0.00099955
0.000972708
0.000972709
0.00100167
0.000970589
0.000999549
0.000972708
0.000972709
0.000970589
0.000965883
0.000934801
0.000963762
0.000963762
0.000936921
0.000936921
0.000965883
0.000934801
0.000963762
0.000963762
0.000936921
0.000936921
0.000963763
0.000936921
0.000936922
0.000965883
0.000934801
0.000963762
0.000936921
0.000936921
0.000934801
0.000930095
0.000899012
0.000927974
0.000927973
0.000901133
0.000901133
0.000930094
0.000899012
0.000927973
0.000927973
0.000901133
0.000901133
0.000927974
0.000901133
0.000901133
0.000930095
0.000899012
0.000927974
0.000901133
0.000901133
0.000899012
0.000894306
0.000863223
0.000892185
0.000892185
0.000865344
0.000865343
0.000894306
0.000863223
0.000892185
0.000892185
0.000865343
0.000865344
0.000892186
0.000865344
0.000865343
0.000894306
0.000863223
0.000892186
0.000865344
0.000865343
0.000863223
0.000858517
0.000827434
0.000856396
0.000856396
0.000829553
0.000829553
0.000858517
0.000827434
0.000856396
0.000856396
0.000829553
0.000829554
0.000856397
0.000829553
0.000829553
0.000858517
0.000827434
0.000856396
0.000829554
0.000829553
0.000827433
0.000822728
0.000791643
0.000820607
0.000820606
0.000793763
0.000793763
0.000822728
0.000791643
0.000820606
0.000820607
0.000793763
0.000793763
0.000820607
0.000793763
0.000793763
0.000822728
0.000791643
0.000820606
0.000793763
0.000793763
0.000791642
0.000786937
0.000755851
0.000784816
0.000784816
0.000757971
0.000757971
0.000786937
0.000755851
0.000784816
0.000784816
0.000757971
0.000757971
0.000784815
0.000757971
0.000757972
0.000786937
0.000755851
0.000784815
0.000757971
0.000757971
0.000755851
0.000751144
0.000749023
0.000749023
0.000751145
0.000749023
0.000749023
0.000749023
0.000751145
0.000749023
0.00166831
0.0016683
0.0016683
0.00166831
0.0016683
0.00165266
0.00165266
0.00165266
0.00165266
0.00166838
0.0016705
0.00166834
0.00167052
0.0016683
0.00166838
0.0016705
0.00167052
0.00166834
0.00166838
0.0016683
0.0016683
0.00163252
0.0016459
0.0016459
0.00163251
0.0016459
0.00163251
0.00163252
0.0016459
0.0016459
0.00163251
0.00164371
0.00164371
0.00164371
0.00161687
0.00161687
0.00161687
0.00161687
0.00163259
0.00164586
0.00164367
0.00163471
0.00164584
0.00163255
0.00163473
0.0016459
0.00163251
0.00163259
0.00164367
0.00164586
0.00163471
0.00164584
0.00163473
0.00163255
0.00164591
0.00164591
0.00163259
0.00163251
0.00163251
0.00159673
0.00161011
0.00161011
0.00159672
0.00161011
0.00159672
0.00159673
0.00161011
0.00161011
0.00159672
0.00160792
0.00160792
0.00160792
0.00158108
0.00158108
0.00158108
0.00158108
0.0015968
0.00161007
0.00160788
0.00159892
0.00161005
0.00159676
0.00159894
0.00161011
0.00159672
0.0015968
0.00160788
0.00161007
0.00159892
0.00161005
0.00159894
0.00159677
0.00161012
0.00161012
0.0015968
0.00159672
0.00159672
0.00156094
0.00157432
0.00157432
0.00156093
0.00157432
0.00156094
0.00156094
0.00157432
0.00157432
0.00156093
0.00157214
0.00157214
0.00157213
0.0015453
0.0015453
0.00154529
0.00154529
0.00156101
0.00157428
0.00157209
0.00156313
0.00157426
0.00156098
0.00156315
0.00157432
0.00156094
0.00156101
0.00157209
0.00157428
0.00156313
0.00157426
0.00156315
0.00156098
0.00157433
0.00157433
0.00156101
0.00156093
0.00156093
0.00152516
0.00153854
0.00153854
0.00152515
0.00153854
0.00152515
0.00152516
0.00153854
0.00153854
0.00152515
0.00153635
0.00153635
0.00153635
0.00150951
0.00150951
0.00150951
0.00150951
0.00152523
0.0015385
0.00153631
0.00152735
0.00153847
0.00152519
0.00152736
0.00153854
0.00152515
0.00152523
0.00153631
0.0015385
0.00152735
0.00153847
0.00152736
0.00152519
0.00153854
0.00153854
0.00152523
0.00152515
0.00152515
0.00148937
0.00150275
0.00150275
0.00148937
0.00150275
0.00148937
0.00148937
0.00150275
0.00150275
0.00148937
0.00150056
0.00150056
0.00150056
0.00147373
0.00147373
0.00147373
0.00147373
0.00148945
0.00150271
0.00150052
0.00149156
0.00150269
0.00148941
0.00149158
0.00150275
0.00148937
0.00148945
0.00150052
0.00150271
0.00149157
0.00150269
0.00149158
0.00148941
0.00150276
0.00150276
0.00148944
0.00148936
0.00148936
0.00145359
0.00146697
0.00146697
0.00145358
0.00146697
0.00145359
0.00145359
0.00146697
0.00146697
0.00145358
0.00146478
0.00146478
0.00146478
0.00143795
0.00143795
0.00143795
0.00143795
0.00145366
0.00146693
0.00146474
0.00145578
0.00146691
0.00145363
0.0014558
0.00146697
0.00145359
0.00145366
0.00146474
0.00146693
0.00145578
0.00146691
0.0014558
0.00145363
0.00146698
0.00146698
0.00145366
0.00145358
0.00145358
0.00141781
0.00143119
0.00143119
0.00141781
0.00143119
0.00141781
0.00141781
0.00143119
0.00143119
0.00141781
0.001429
0.001429
0.001429
0.00140217
0.00140217
0.00140217
0.00140217
0.00141788
0.00143115
0.00142896
0.00142
0.00143113
0.00141785
0.00142002
0.00143119
0.00141781
0.00141788
0.00142896
0.00143115
0.00142
0.00143113
0.00142002
0.00141785
0.0014312
0.0014312
0.00141788
0.0014178
0.0014178
0.00138203
0.00139541
0.00139541
0.00138203
0.00139541
0.00138203
0.00138203
0.00139541
0.00139541
0.00138203
0.00139322
0.00139322
0.00139322
0.00136639
0.00136639
0.00136639
0.00136639
0.0013821
0.00139537
0.00139318
0.00138422
0.00139535
0.00138207
0.00138424
0.00139541
0.00138203
0.0013821
0.00139318
0.00139537
0.00138422
0.00139535
0.00138424
0.00138207
0.00139542
0.00139542
0.0013821
0.00138203
0.00138203
0.00134625
0.00135963
0.00135963
0.00134624
0.00135963
0.00134625
0.00134625
0.00135963
0.00135963
0.00134624
0.00135744
0.00135744
0.00135744
0.00133061
0.00133061
0.00133061
0.00133061
0.00134632
0.00135959
0.0013574
0.00134844
0.00135957
0.00134629
0.00134846
0.00135963
0.00134625
0.00134632
0.0013574
0.00135959
0.00134844
0.00135957
0.00134846
0.00134629
0.00135964
0.00135964
0.00134632
0.00134624
0.00134624
0.00131047
0.00132385
0.00132385
0.00131046
0.00132385
0.00131047
0.00131047
0.00132385
0.00132385
0.00131046
0.00132166
0.00132166
0.00132166
0.00129483
0.00129483
0.00129483
0.00129483
0.00131054
0.00132381
0.00132162
0.00131266
0.00132379
0.00131051
0.00131268
0.00132385
0.00131047
0.00131054
0.00132162
0.00132381
0.00131266
0.00132378
0.00131268
0.00131051
0.00132386
0.00132386
0.00131054
0.00131046
0.00131046
0.00127469
0.00128807
0.00128807
0.00127468
0.00128807
0.00127468
0.00127469
0.00128807
0.00128807
0.00127468
0.00128588
0.00128588
0.00128588
0.00125904
0.00125904
0.00125904
0.00125904
0.00127476
0.00128803
0.00128584
0.00127688
0.001288
0.00127472
0.00127689
0.00128807
0.00127468
0.00127476
0.00128584
0.00128803
0.00127688
0.001288
0.00127689
0.00127472
0.00128807
0.00128807
0.00127476
0.00127468
0.00127468
0.00123891
0.00125229
0.00125228
0.0012389
0.00125229
0.0012389
0.00123891
0.00125229
0.00125228
0.0012389
0.0012501
0.0012501
0.0012501
0.00122326
0.00122326
0.00122326
0.00122326
0.00123898
0.00125225
0.00125006
0.0012411
0.00125222
0.00123894
0.00124111
0.00125229
0.0012389
0.00123898
0.00125006
0.00125224
0.0012411
0.00125222
0.00124111
0.00123894
0.00125229
0.00125229
0.00123898
0.0012389
0.0012389
0.00120312
0.0012165
0.0012165
0.00120312
0.0012165
0.00120312
0.00120312
0.0012165
0.0012165
0.00120312
0.00121432
0.00121432
0.00121432
0.00118748
0.00118748
0.00118748
0.00118748
0.0012032
0.00121646
0.00121428
0.00120532
0.00121644
0.00120316
0.00120533
0.0012165
0.00120312
0.0012032
0.00121428
0.00121646
0.00120532
0.00121644
0.00120533
0.00120316
0.00121651
0.00121651
0.0012032
0.00120312
0.00120312
0.00116734
0.00118072
0.00118072
0.00116733
0.00118072
0.00116734
0.00116734
0.00118072
0.00118072
0.00116733
0.00117853
0.00117853
0.00117853
0.0011517
0.0011517
0.0011517
0.0011517
0.00116741
0.00118068
0.00117849
0.00116953
0.00118066
0.00116738
0.00116955
0.00118072
0.00116734
0.00116741
0.00117849
0.00118068
0.00116953
0.00118066
0.00116955
0.00116738
0.00118073
0.00118073
0.00116741
0.00116733
0.00116733
0.00113156
0.00114494
0.00114494
0.00113155
0.00114494
0.00113155
0.00113156
0.00114494
0.00114494
0.00113155
0.00114275
0.00114275
0.00114275
0.00111591
0.00111591
0.00111591
0.00111591
0.00113163
0.0011449
0.00114271
0.00113375
0.00114487
0.00113159
0.00113376
0.00114494
0.00113155
0.00113163
0.00114271
0.0011449
0.00113375
0.00114487
0.00113376
0.00113159
0.00114494
0.00114494
0.00113163
0.00113155
0.00113155
0.00109577
0.00110915
0.00110915
0.00109576
0.00110915
0.00109577
0.00109577
0.00110915
0.00110915
0.00109576
0.00110696
0.00110696
0.00110696
0.00108012
0.00108012
0.00108012
0.00108012
0.00109584
0.00110911
0.00110692
0.00109796
0.00110909
0.00109581
0.00109798
0.00110915
0.00109577
0.00109584
0.00110692
0.00110911
0.00109796
0.00110909
0.00109798
0.00109581
0.00110916
0.00110916
0.00109584
0.00109576
0.00109576
0.00105998
0.00107336
0.00107336
0.00105998
0.00107336
0.00105998
0.00105998
0.00107336
0.00107336
0.00105998
0.00107118
0.00107118
0.00107118
0.00104434
0.00104434
0.00104434
0.00104434
0.00106006
0.00107332
0.00107114
0.00106217
0.0010733
0.00106002
0.00106219
0.00107336
0.00105998
0.00106006
0.00107114
0.00107332
0.00106217
0.0010733
0.00106219
0.00106002
0.00107337
0.00107337
0.00106005
0.00105998
0.00105998
0.0010242
0.00103758
0.00103758
0.00102419
0.00103758
0.00102419
0.0010242
0.00103758
0.00103758
0.00102419
0.00103539
0.00103539
0.00103539
0.00100855
0.00100855
0.00100855
0.00100855
0.00102427
0.00103754
0.00103535
0.00102639
0.00103751
0.00102423
0.0010264
0.00103758
0.00102419
0.00102427
0.00103535
0.00103754
0.00102639
0.00103751
0.0010264
0.00102423
0.00103758
0.00103758
0.00102427
0.00102419
0.00102419
0.000988409
0.00100179
0.00100179
0.000988403
0.00100179
0.000988405
0.000988409
0.00100179
0.00100179
0.000988404
0.000999604
0.000999604
0.000999604
0.000972764
0.000972764
0.000972764
0.000972764
0.000988483
0.00100175
0.000999563
0.000990603
0.00100173
0.000988446
0.000990617
0.00100179
0.000988406
0.000988483
0.000999563
0.00100175
0.000990603
0.00100173
0.000990617
0.000988446
0.0010018
0.0010018
0.000988482
0.000988403
0.000988403
0.000952622
0.000966005
0.000966003
0.000952617
0.000966004
0.000952618
0.000952623
0.000966005
0.000966003
0.000952617
0.000963817
0.000963817
0.000963817
0.000936976
0.000936976
0.000936976
0.000936976
0.000952696
0.000965964
0.000963777
0.000954816
0.000965941
0.000952659
0.00095483
0.000966004
0.000952619
0.000952696
0.000963777
0.000965964
0.000954816
0.000965941
0.00095483
0.000952659
0.000966011
0.000966011
0.000952695
0.000952616
0.000952616
0.000916834
0.000930217
0.000930215
0.000916828
0.000930217
0.00091683
0.000916834
0.000930217
0.000930215
0.000916829
0.000928029
0.000928029
0.000928029
0.000901187
0.000901187
0.000901187
0.000901187
0.000916908
0.000930176
0.000927989
0.000919027
0.000930153
0.000916871
0.000919041
0.000930216
0.00091683
0.000916908
0.000927989
0.000930176
0.000919027
0.000930152
0.000919041
0.000916871
0.000930223
0.000930223
0.000916906
0.000916828
0.000916828
0.000881045
0.000894428
0.000894426
0.000881039
0.000894427
0.000881041
0.000881045
0.000894428
0.000894426
0.000881039
0.00089224
0.00089224
0.00089224
0.000865398
0.000865398
0.000865398
0.000865398
0.000881118
0.000894387
0.0008922
0.000883237
0.000894364
0.000881082
0.000883252
0.000894427
0.000881041
0.000881118
0.0008922
0.000894387
0.000883237
0.000894363
0.000883252
0.000881082
0.000894434
0.000894434
0.000881117
0.000881039
0.000881039
0.000845255
0.000858638
0.000858637
0.000845249
0.000858638
0.000845252
0.000845255
0.000858639
0.000858637
0.00084525
0.000856451
0.000856451
0.000856451
0.000829608
0.000829608
0.000829609
0.000829608
0.000845329
0.000858598
0.00085641
0.000847448
0.000858574
0.000845292
0.000847463
0.000858638
0.000845252
0.000845329
0.00085641
0.000858598
0.000847448
0.000858574
0.000847463
0.000845292
0.000858645
0.000858645
0.000845328
0.000845249
0.000845249
0.000809466
0.000822849
0.000822848
0.00080946
0.000822848
0.000809462
0.000809466
0.000822849
0.000822848
0.00080946
0.000820661
0.000820661
0.000820661
0.000793818
0.000793818
0.000793818
0.000793818
0.000809539
0.000822808
0.000820621
0.000811659
0.000822785
0.000809502
0.000811673
0.000822848
0.000809462
0.000809539
0.000820621
0.000822808
0.000811659
0.000822785
0.000811673
0.000809503
0.000822855
0.000822856
0.000809538
0.000809459
0.000809459
0.000773675
0.000787059
0.000787057
0.000773669
0.000787058
0.000773671
0.000773675
0.000787059
0.000787057
0.000773669
0.00078487
0.00078487
0.00078487
0.000758026
0.000758026
0.000758026
0.000758026
0.000773748
0.000787018
0.00078483
0.000775868
0.000786994
0.000773711
0.000775882
0.000787058
0.000773671
0.000773748
0.00078483
0.000787018
0.000775868
0.000786994
0.000775882
0.000773711
0.000787065
0.000787065
0.000773747
0.000773668
0.000773668
0.000737882
0.000751267
0.000751265
0.000737876
0.000751266
0.000737878
0.000737882
0.000751267
0.000751265
0.000737876
0.000749078
0.000749078
0.000749078
0.000737955
0.000751225
0.000749037
0.000740075
0.000751202
0.000737918
0.000740089
0.000751266
0.000737878
0.000737955
0.000749037
0.000751225
0.000740075
0.000751202
0.000740089
0.000737918
0.000751272
0.000751272
0.000737953
0.000737876
0.000737875
0.0016683
0.00166831
0.00166838
0.0016683
0.0016683
0.00165041
0.0016638
0.00165041
0.0016638
0.00166367
0.00165041
0.00165041
0.0016638
0.0016638
0.00166831
0.0016683
0.00166838
0.0016705
0.00166835
0.00167052
0.00166838
0.0016705
0.00166835
0.00167052
0.00166379
0.00165041
0.0016638
0.00165041
0.00166379
0.00165041
0.0016638
0.00165041
0.00166373
0.00166155
0.00165045
0.00165262
0.00166376
0.00166157
0.00165049
0.00166373
0.00166155
0.00165045
0.00165262
0.00166376
0.00166157
0.00165049
0.00166838
0.0016683
0.0016683
0.0016683
0.00165041
0.0016638
0.00166367
0.00165041
0.00165041
0.0016638
0.0016638
0.00165041
0.0016638
0.00166838
0.0016705
0.00166835
0.00167052
0.00166831
0.0016683
0.00166838
0.0016705
0.00167052
0.00166834
0.00166379
0.00165041
0.0016638
0.00165041
0.00166373
0.00166155
0.00165045
0.00165262
0.00166376
0.00166157
0.00165049
0.00166379
0.00165041
0.0016638
0.00165041
0.00166373
0.00166155
0.00165262
0.00165045
0.00166157
0.00166376
0.00165049
0.00166831
0.0016683
0.00166838
0.0016705
0.00167052
0.00166834
0.00166831
0.0016683
0.00166373
0.00166155
0.00165045
0.00165262
0.00166376
0.00166157
0.00165049
0.00166379
0.00165041
0.0016638
0.00165041
0.00166373
0.00166155
0.00165262
0.00165045
0.00166157
0.00166376
0.00165049
0.00166379
0.00165041
0.0016638
0.00165041
0.00166838
0.0016683
0.0016683
0.0016683
0.00165041
0.0016638
0.00166367
0.00165041
0.00165041
0.0016638
0.0016638
0.00165041
0.0016638
0.00166838
0.0016705
0.00167052
0.00166834
0.00166831
0.0016683
0.00166831
0.0016683
0.00166373
0.00166155
0.00165262
0.00165045
0.00166157
0.00166376
0.00165049
0.00166373
0.00166155
0.00165262
0.00165045
0.00166157
0.00166376
0.00165049
0.00166379
0.00165041
0.0016638
0.00165041
0.00166379
0.00165041
0.0016638
0.00165041
0.0016683
0.0016683
0.00166368
0.00165041
0.00165041
0.0016638
0.0016638
0.00165041
0.0016638
0.00165041
0.0016638
0.0016459
0.00163251
0.0016459
0.00163251
0.00164591
0.00164591
0.00163259
0.00163251
0.00163251
0.00161462
0.001628
0.00161462
0.001628
0.00162788
0.00161462
0.00161462
0.00162801
0.00162801
0.00163252
0.0016459
0.0016459
0.00163251
0.00163259
0.00164586
0.00164367
0.00163471
0.00164584
0.00163255
0.00163473
0.00163259
0.00164586
0.00164367
0.00163471
0.00164584
0.00163255
0.00163473
0.001628
0.00161462
0.00162801
0.00161462
0.001628
0.00161462
0.00162801
0.00161462
0.00162794
0.00162576
0.00161466
0.00161683
0.00162796
0.00162578
0.0016147
0.00162794
0.00162576
0.00161466
0.00161683
0.00162796
0.00162578
0.0016147
0.00164591
0.00164591
0.00163259
0.00163251
0.00163251
0.0016459
0.00163251
0.00161462
0.001628
0.00162788
0.00161462
0.00161462
0.00162801
0.00162801
0.00161462
0.001628
0.00163259
0.00164586
0.00164367
0.00163471
0.00164584
0.00163255
0.00163472
0.00163252
0.0016459
0.0016459
0.00163251
0.00163259
0.00164367
0.00164586
0.00163471
0.00164584
0.00163473
0.00163255
0.001628
0.00161462
0.00162801
0.00161462
0.00162794
0.00162576
0.00161466
0.00161683
0.00162796
0.00162578
0.0016147
0.001628
0.00161462
0.00162801
0.00161462
0.00162794
0.00162576
0.00161683
0.00161466
0.00162578
0.00162796
0.0016147
0.00163252
0.0016459
0.0016459
0.00163251
0.00163259
0.00164367
0.00164586
0.00163471
0.00164584
0.00163473
0.00163255
0.00163252
0.0016459
0.0016459
0.00163251
0.00162794
0.00162576
0.00161466
0.00161683
0.00162796
0.00162578
0.0016147
0.001628
0.00161462
0.00162801
0.00161462
0.00162794
0.00162576
0.00161683
0.00161466
0.00162578
0.00162796
0.0016147
0.001628
0.00161462
0.00162801
0.00161462
0.00164591
0.00164591
0.00163259
0.00163251
0.00163251
0.0016459
0.00163251
0.00161462
0.001628
0.00162788
0.00161462
0.00161462
0.00162801
0.00162801
0.00161462
0.001628
0.00163259
0.00164367
0.00164586
0.00163471
0.00164584
0.00163473
0.00163255
0.00163252
0.0016459
0.0016459
0.00163251
0.00163252
0.0016459
0.0016459
0.00163251
0.00162794
0.00162576
0.00161683
0.00161466
0.00162578
0.00162796
0.0016147
0.00162794
0.00162576
0.00161683
0.00161466
0.00162578
0.00162796
0.0016147
0.001628
0.00161462
0.00162801
0.00161462
0.001628
0.00161462
0.00162801
0.00161462
0.0016459
0.00163251
0.0016459
0.00163251
0.00162788
0.00161462
0.00161462
0.00162801
0.00162801
0.00161462
0.001628
0.00161462
0.00162801
0.00161011
0.00159672
0.00161011
0.00159672
0.00161012
0.00161012
0.0015968
0.00159672
0.00159672
0.00157883
0.00159222
0.00157883
0.00159222
0.00159209
0.00157883
0.00157883
0.00159222
0.00159222
0.00159673
0.00161011
0.00161011
0.00159672
0.0015968
0.00161007
0.00160788
0.00159892
0.00161005
0.00159676
0.00159894
0.0015968
0.00161007
0.00160788
0.00159892
0.00161005
0.00159676
0.00159894
0.00159221
0.00157883
0.00159222
0.00157883
0.00159221
0.00157883
0.00159222
0.00157883
0.00159215
0.00158997
0.00157887
0.00158104
0.00159218
0.00158999
0.00157891
0.00159215
0.00158997
0.00157887
0.00158104
0.00159218
0.00158999
0.00157891
0.00161012
0.00161012
0.0015968
0.00159672
0.00159672
0.00161011
0.00159672
0.00157883
0.00159222
0.00159209
0.00157883
0.00157883
0.00159222
0.00159222
0.00157883
0.00159222
0.0015968
0.00161007
0.00160788
0.00159892
0.00161005
0.00159676
0.00159894
0.00159673
0.00161011
0.00161011
0.00159672
0.0015968
0.00160788
0.00161007
0.00159892
0.00161005
0.00159894
0.00159677
0.00159221
0.00157883
0.00159222
0.00157883
0.00159215
0.00158997
0.00157887
0.00158104
0.00159218
0.00158999
0.00157891
0.00159221
0.00157883
0.00159222
0.00157883
0.00159215
0.00158997
0.00158104
0.00157887
0.00158999
0.00159218
0.00157891
0.00159673
0.00161011
0.00161011
0.00159672
0.0015968
0.00160788
0.00161007
0.00159892
0.00161005
0.00159894
0.00159677
0.00159673
0.00161011
0.00161011
0.00159672
0.00159215
0.00158997
0.00157887
0.00158104
0.00159218
0.00158999
0.00157891
0.00159222
0.00157883
0.00159222
0.00157883
0.00159215
0.00158997
0.00158104
0.00157887
0.00158999
0.00159218
0.00157891
0.00159222
0.00157883
0.00159222
0.00157883
0.00161012
0.00161012
0.0015968
0.00159672
0.00159672
0.00161011
0.00159672
0.00157883
0.00159222
0.00159209
0.00157883
0.00157883
0.00159222
0.00159222
0.00157883
0.00159222
0.0015968
0.00160788
0.00161007
0.00159892
0.00161005
0.00159894
0.00159677
0.00159673
0.00161011
0.00161011
0.00159672
0.00159673
0.00161011
0.00161011
0.00159672
0.00159215
0.00158997
0.00158104
0.00157887
0.00158999
0.00159218
0.00157891
0.00159215
0.00158997
0.00158104
0.00157887
0.00158999
0.00159218
0.00157891
0.00159221
0.00157883
0.00159222
0.00157884
0.00159222
0.00157883
0.00159222
0.00157883
0.00161011
0.00159672
0.00161011
0.00159673
0.0015921
0.00157883
0.00157883
0.00159222
0.00159222
0.00157883
0.00159222
0.00157883
0.00159222
0.00157432
0.00156094
0.00157432
0.00156094
0.00157433
0.00157433
0.00156101
0.00156093
0.00156093
0.00154304
0.00155643
0.00154304
0.00155643
0.00155631
0.00154304
0.00154304
0.00155644
0.00155644
0.00156094
0.00157432
0.00157432
0.00156093
0.00156101
0.00157428
0.00157209
0.00156313
0.00157426
0.00156098
0.00156315
0.00156101
0.00157428
0.00157209
0.00156313
0.00157426
0.00156098
0.00156315
0.00155643
0.00154304
0.00155643
0.00154305
0.00155643
0.00154304
0.00155643
0.00154305
0.00155636
0.00155419
0.00154308
0.00154525
0.00155639
0.0015542
0.00154312
0.00155636
0.00155419
0.00154308
0.00154525
0.00155639
0.0015542
0.00154312
0.00157433
0.00157433
0.00156101
0.00156093
0.00156093
0.00157432
0.00156094
0.00154304
0.00155643
0.00155631
0.00154304
0.00154304
0.00155644
0.00155644
0.00154304
0.00155643
0.00156101
0.00157428
0.00157209
0.00156313
0.00157426
0.00156098
0.00156315
0.00156094
0.00157432
0.00157432
0.00156093
0.00156101
0.00157209
0.00157428
0.00156313
0.00157426
0.00156315
0.00156098
0.00155643
0.00154304
0.00155643
0.00154305
0.00155636
0.00155419
0.00154308
0.00154525
0.00155639
0.0015542
0.00154312
0.00155643
0.00154304
0.00155643
0.00154305
0.00155636
0.00155419
0.00154525
0.00154308
0.0015542
0.00155639
0.00154312
0.00156094
0.00157432
0.00157432
0.00156093
0.00156101
0.00157209
0.00157428
0.00156313
0.00157426
0.00156315
0.00156098
0.00156094
0.00157432
0.00157432
0.00156093
0.00155636
0.00155419
0.00154308
0.00154525
0.00155639
0.0015542
0.00154312
0.00155643
0.00154304
0.00155643
0.00154305
0.00155636
0.00155419
0.00154525
0.00154308
0.0015542
0.00155639
0.00154312
0.00155643
0.00154304
0.00155643
0.00154305
0.00157433
0.00157433
0.00156101
0.00156093
0.00156093
0.00157432
0.00156094
0.00154304
0.00155643
0.00155631
0.00154304
0.00154304
0.00155644
0.00155644
0.00154304
0.00155643
0.00156101
0.00157209
0.00157428
0.00156313
0.00157426
0.00156315
0.00156098
0.00156094
0.00157432
0.00157432
0.00156093
0.00156094
0.00157432
0.00157432
0.00156093
0.00155636
0.00155419
0.00154525
0.00154308
0.0015542
0.00155639
0.00154312
0.00155636
0.00155419
0.00154525
0.00154308
0.0015542
0.00155639
0.00154312
0.00155643
0.00154304
0.00155643
0.00154305
0.00155643
0.00154304
0.00155643
0.00154305
0.00157432
0.00156094
0.00157432
0.00156094
0.00155631
0.00154304
0.00154304
0.00155644
0.00155644
0.00154304
0.00155643
0.00154304
0.00155643
0.00153854
0.00152515
0.00153854
0.00152515
0.00153854
0.00153854
0.00152523
0.00152515
0.00152515
0.00150726
0.00152064
0.00150726
0.00152064
0.00152052
0.00150726
0.00150726
0.00152065
0.00152065
0.00152516
0.00153854
0.00153854
0.00152515
0.00152523
0.0015385
0.00153631
0.00152735
0.00153847
0.00152519
0.00152736
0.00152523
0.0015385
0.00153631
0.00152735
0.00153847
0.00152519
0.00152736
0.00152064
0.00150726
0.00152064
0.00150726
0.00152064
0.00150726
0.00152064
0.00150726
0.00152058
0.0015184
0.0015073
0.00150947
0.0015206
0.00151842
0.00150734
0.00152058
0.0015184
0.0015073
0.00150947
0.0015206
0.00151842
0.00150734
0.00153854
0.00153854
0.00152523
0.00152515
0.00152515
0.00153854
0.00152515
0.00150726
0.00152064
0.00152052
0.00150726
0.00150726
0.00152065
0.00152065
0.00150726
0.00152064
0.00152523
0.0015385
0.00153631
0.00152735
0.00153847
0.00152519
0.00152736
0.00152516
0.00153854
0.00153853
0.00152515
0.00152523
0.00153631
0.0015385
0.00152735
0.00153847
0.00152736
0.00152519
0.00152064
0.00150726
0.00152064
0.00150726
0.00152058
0.0015184
0.0015073
0.00150947
0.0015206
0.00151842
0.00150734
0.00152064
0.00150726
0.00152064
0.00150726
0.00152058
0.0015184
0.00150947
0.0015073
0.00151842
0.0015206
0.00150734
0.00152515
0.00153854
0.00153854
0.00152515
0.00152523
0.00153631
0.0015385
0.00152735
0.00153847
0.00152736
0.00152519
0.00152515
0.00153854
0.00153853
0.00152515
0.00152058
0.0015184
0.0015073
0.00150947
0.0015206
0.00151842
0.00150734
0.00152064
0.00150726
0.00152064
0.00150726
0.00152058
0.0015184
0.00150947
0.0015073
0.00151842
0.0015206
0.00150734
0.00152064
0.00150726
0.00152064