/*--------------------------------*- C++ -*----------------------------------*\
| =========                 |                                                 |
| \\      /  F ield         | OpenFOAM: The Open Source CFD Toolbox           |
|  \\    /   O peration     | Version:  v2006                                 |
|   \\  /    A nd           | Website:  www.openfoam.com                      |
|    \\/     M anipulation  |                                                 |
\*---------------------------------------------------------------------------*/
FoamFile
{
    version     2.0;
    format      ascii;
    class       surfaceScalarField;
    location    "125";
    object      phi;
}
// * * * * * * * * * * * * * * * * * * * * * * * * * * * * * * * * * * * * * //

dimensions      [0 3 -1 0 0 0 0];
oriented        oriented;


internalField   nonuniform List<scalar> 
123680
(
4.86704e-09
5.60871e-09
-0.00116448
-5.56355e-09
-5.4905e-09
0.00116448
-0.00114467
-1.28952e-06
-5.50385e-09
1.17012e-08
0.00114467
-2.83101e-07
1.29698e-06
2.78399e-07
9.45925e-07
-2.72274e-07
-9.45534e-07
2.62506e-07
-0.00114458
-1.28677e-06
-5.60139e-09
1.17732e-08
0.00114458
-2.85838e-07
1.2942e-06
2.8124e-07
9.4041e-07
-2.69599e-07
-9.40049e-07
2.59795e-07
-0.000275658
1.31901e-06
1.27589e-06
-2.63529e-07
-2.74106e-07
0.0002736
5.15809e-09
5.86801e-09
-0.00116448
-5.69934e-09
-5.6417e-09
0.00116449
-0.00114467
-1.28955e-06
-5.71822e-09
1.15276e-08
0.00114468
-2.82985e-07
1.29697e-06
2.78516e-07
9.46026e-07
-2.72161e-07
-9.45427e-07
2.62607e-07
-0.00114458
-1.2868e-06
-5.82034e-09
1.16422e-08
0.00114458
-2.85734e-07
1.2942e-06
2.81346e-07
9.40516e-07
-2.69481e-07
-9.3994e-07
2.59896e-07
-0.000275658
1.31902e-06
1.27593e-06
-2.63507e-07
-2.74027e-07
0.0002736
5.50413e-09
6.23546e-09
-0.00116449
-5.9161e-09
-5.8294e-09
0.00116449
-0.00114468
-1.28955e-06
-6.11469e-09
1.1423e-08
0.00114468
-2.82927e-07
1.29695e-06
2.78588e-07
9.46123e-07
-2.72072e-07
-9.45342e-07
2.62692e-07
-0.00114458
-1.28679e-06
-6.19551e-09
1.14996e-08
0.00114458
-2.8567e-07
1.29418e-06
2.81424e-07
9.40605e-07
-2.69392e-07
-9.3986e-07
2.59981e-07
-0.000275658
1.31902e-06
1.27592e-06
-2.63468e-07
-2.74015e-07
0.000273601
5.56908e-09
6.29482e-09
-0.00116449
-5.93001e-09
-5.86257e-09
0.00116449
-0.00114468
-1.28954e-06
-6.15455e-09
1.1384e-08
0.00114468
-2.8293e-07
1.2969e-06
2.78595e-07
9.46142e-07
-2.72042e-07
-9.45319e-07
2.62719e-07
-0.00114458
-1.28677e-06
-6.26404e-09
1.14816e-08
0.00114458
-2.85665e-07
1.29414e-06
2.81434e-07
9.40622e-07
-2.69365e-07
-9.39841e-07
2.60007e-07
-0.000275659
1.31903e-06
1.27592e-06
-2.63463e-07
-2.74009e-07
0.000273601
5.54606e-09
6.25228e-09
-0.00116449
-5.90582e-09
-5.83054e-09
0.00116449
-0.00114468
-1.28949e-06
-6.13973e-09
1.14246e-08
0.00114468
-2.8295e-07
1.29692e-06
2.78573e-07
9.46129e-07
-2.72057e-07
-9.45337e-07
2.62713e-07
-0.00114458
-1.28673e-06
-6.25216e-09
1.15245e-08
0.00114458
-2.85697e-07
1.29415e-06
2.81401e-07
9.40623e-07
-2.69366e-07
-9.39841e-07
2.60011e-07
-0.000275659
1.31897e-06
1.27587e-06
-2.63441e-07
-2.73988e-07
0.000273602
5.47666e-09
6.19421e-09
-0.00116449
-5.83382e-09
-5.77129e-09
0.00116448
-0.00114468
-1.28942e-06
-6.12464e-09
1.14798e-08
0.00114468
-2.82965e-07
1.29697e-06
2.78543e-07
9.46138e-07
-2.72043e-07
-9.45317e-07
2.62718e-07
-0.00114458
-1.28666e-06
-6.2171e-09
1.15666e-08
0.00114458
-2.85705e-07
1.2942e-06
2.81373e-07
9.4061e-07
-2.69368e-07
-9.39846e-07
2.60012e-07
-0.000275659
1.31891e-06
1.2758e-06
-2.63413e-07
-2.73958e-07
0.000273602
5.54846e-09
6.32273e-09
-0.00116448
-5.92605e-09
-5.81484e-09
0.00116448
-0.00114468
-1.28936e-06
-6.16143e-09
1.14114e-08
0.00114467
-2.8296e-07
1.29705e-06
2.81316e-07
9.46132e-07
-2.72029e-07
-9.45303e-07
2.62744e-07
-0.00114458
-1.28658e-06
-6.26293e-09
1.15095e-08
0.00114458
-2.8569e-07
1.2943e-06
2.81373e-07
9.40633e-07
-2.69352e-07
-9.39802e-07
2.60015e-07
-0.000275659
1.31881e-06
1.27572e-06
-2.63365e-07
-2.73887e-07
0.000273602
5.49613e-09
6.222e-09
-0.00116448
-5.85742e-09
-5.77802e-09
0.00116448
-0.00114467
-1.28939e-06
-6.09172e-09
1.15272e-08
0.00114467
-2.85753e-07
1.29706e-06
2.81297e-07
9.46135e-07
-2.72089e-07
-9.45238e-07
2.62711e-07
-0.00114458
-1.28661e-06
-6.20548e-09
1.15959e-08
0.00114458
-2.85701e-07
1.2943e-06
2.81338e-07
9.40634e-07
-2.6938e-07
-9.39794e-07
2.5997e-07
-0.000275659
1.31888e-06
1.27579e-06
-2.63388e-07
-2.73931e-07
0.000273601
5.50182e-09
6.21141e-09
-0.00116448
-5.86259e-09
-5.80708e-09
0.00116448
-0.00114467
-1.28941e-06
-6.12114e-09
1.14867e-08
0.00114467
-2.85716e-07
1.29705e-06
2.81327e-07
9.46133e-07
-2.7207e-07
-9.45245e-07
2.62721e-07
-0.00114458
-1.28664e-06
-6.21298e-09
1.15645e-08
0.00114458
-2.85665e-07
1.2943e-06
2.81375e-07
9.4063e-07
-2.69349e-07
-9.39804e-07
2.59983e-07
-0.000275658
1.31896e-06
1.27586e-06
-2.63398e-07
-2.73937e-07
0.000273601
5.57042e-09
6.2597e-09
-0.00116448
-5.88482e-09
-5.84959e-09
0.00116448
-0.00114467
-1.28942e-06
-6.16841e-09
1.14407e-08
0.00114467
-2.85699e-07
1.29706e-06
2.81341e-07
9.46126e-07
-2.72054e-07
-9.45251e-07
2.62733e-07
-0.00114458
-1.28666e-06
-6.21599e-09
1.15494e-08
0.00114458
-2.85662e-07
1.2943e-06
2.8138e-07
9.40615e-07
-2.69338e-07
-9.3982e-07
2.59995e-07
-0.000275659
1.31892e-06
1.2758e-06
-2.63381e-07
-2.73943e-07
0.000273601
5.56356e-09
6.25668e-09
-0.00116448
-5.88985e-09
-5.84965e-09
0.00116448
-0.00114467
-1.28946e-06
-6.1457e-09
1.13931e-08
0.00114467
-2.85666e-07
1.29702e-06
2.81378e-07
9.46126e-07
-2.72036e-07
-9.45235e-07
2.62744e-07
-0.00114458
-1.28671e-06
-6.17286e-09
1.15313e-08
0.00114458
-2.85637e-07
1.29425e-06
2.81405e-07
9.40605e-07
-2.69334e-07
-9.39812e-07
2.59995e-07
-0.000275658
1.3189e-06
1.27579e-06
-2.63398e-07
-2.7394e-07
0.000273601
5.5021e-09
6.21942e-09
-0.00116448
-5.87048e-09
-5.79343e-09
0.00116448
-0.00114467
-1.28954e-06
-6.04619e-09
1.14586e-08
0.00114467
-2.85681e-07
1.2969e-06
2.81388e-07
9.4615e-07
-2.72031e-07
-9.45214e-07
2.62758e-07
-0.00114458
-1.28677e-06
-6.21403e-09
1.14812e-08
0.00114458
-2.85629e-07
1.29415e-06
2.81432e-07
9.40657e-07
-2.69304e-07
-9.39763e-07
2.60035e-07
-0.000275658
1.31894e-06
1.27584e-06
-2.63396e-07
-2.73948e-07
0.0002736
5.60002e-09
6.29133e-09
-0.00116448
-5.92963e-09
-5.86578e-09
0.00116448
-0.00114467
-1.28946e-06
-6.08517e-09
1.13918e-08
0.00114467
-2.85702e-07
1.29692e-06
2.81376e-07
9.46158e-07
-2.72045e-07
-9.45222e-07
2.62758e-07
-0.00114458
-1.28673e-06
-6.25377e-09
1.14672e-08
0.00114458
-2.85657e-07
1.29413e-06
2.81415e-07
9.40683e-07
-2.69294e-07
-9.39755e-07
2.60051e-07
-0.000275658
1.31902e-06
1.27593e-06
-2.63436e-07
-2.73969e-07
0.0002736
5.63746e-09
6.26574e-09
-0.00116448
-5.90549e-09
-5.91502e-09
0.00116448
-0.00114467
-1.28935e-06
-6.16025e-09
1.1338e-08
0.00114467
-2.85715e-07
1.29702e-06
2.81344e-07
9.46139e-07
-2.72063e-07
-9.45246e-07
2.62741e-07
-0.00114458
-1.28664e-06
-6.11999e-09
1.15314e-08
0.00114458
-2.85683e-07
1.2942e-06
2.81384e-07
9.40625e-07
-2.69358e-07
-9.39817e-07
2.59989e-07
-0.000275658
1.31901e-06
1.27588e-06
-2.63418e-07
-2.73984e-07
0.0002736
5.51535e-09
6.21273e-09
-0.00116448
-5.86172e-09
-5.83566e-09
0.00116448
-0.00114467
-1.28934e-06
-6.14924e-09
1.14301e-08
0.00114467
-2.85738e-07
1.29707e-06
2.81303e-07
9.46108e-07
-2.7208e-07
-9.4527e-07
2.62718e-07
-0.00114458
-1.28656e-06
-6.06335e-09
1.14984e-08
0.00114458
-2.85677e-07
1.29429e-06
2.81371e-07
9.40566e-07
-2.69402e-07
-9.39876e-07
2.59949e-07
-0.000275658
1.31893e-06
1.27578e-06
-2.63384e-07
-2.73972e-07
0.000273601
5.43844e-09
6.18222e-09
-0.00116448
-5.84298e-09
-5.7706e-09
0.00116448
-0.00114467
-1.2894e-06
-6.10653e-09
1.15021e-08
0.00114467
-2.85723e-07
1.29707e-06
2.81317e-07
9.46089e-07
-2.72083e-07
-9.45278e-07
2.62705e-07
-0.00114458
-1.28658e-06
-6.14902e-09
1.15399e-08
0.00114458
-2.85688e-07
1.29432e-06
2.81346e-07
9.40571e-07
-2.69383e-07
-9.39862e-07
2.59961e-07
-0.000275658
1.31884e-06
1.27572e-06
-2.63367e-07
-2.73925e-07
0.0002736
5.46209e-09
6.15324e-09
-0.00116448
-5.82842e-09
-5.77161e-09
0.00116448
-0.00114467
-1.28947e-06
-6.07374e-09
1.14764e-08
0.00114467
-2.85688e-07
1.29702e-06
2.8136e-07
9.46095e-07
-2.72074e-07
-9.45264e-07
2.62712e-07
-0.00114458
-1.28666e-06
-6.20096e-09
1.15884e-08
0.00114458
-2.85679e-07
1.29428e-06
2.81359e-07
9.40596e-07
-2.69356e-07
-9.39821e-07
2.59982e-07
-0.000275658
1.31884e-06
1.27574e-06
-2.63377e-07
-2.73911e-07
0.0002736
5.49687e-09
6.18551e-09
-0.00116448
-5.84465e-09
-5.79266e-09
0.00116448
-0.00114467
-1.28952e-06
-6.0855e-09
1.14291e-08
0.00114467
-2.85673e-07
1.29695e-06
2.81389e-07
9.46131e-07
-2.72054e-07
-9.45228e-07
2.62736e-07
-0.00114458
-1.28673e-06
-6.23067e-09
1.15585e-08
0.00114458
-2.85656e-07
1.29421e-06
2.81393e-07
9.40634e-07
-2.69329e-07
-9.39777e-07
2.60008e-07
-0.000275658
1.3189e-06
1.27581e-06
-2.63397e-07
-2.73929e-07
0.0002736
5.50293e-09
6.20604e-09
-0.00116448
-5.85158e-09
-5.78938e-09
0.00116448
-0.00114467
-1.28953e-06
-6.11979e-09
1.14215e-08
0.00114467
-2.85693e-07
1.29689e-06
2.81383e-07
9.46167e-07
-2.72035e-07
-9.45205e-07
2.62765e-07
-0.00114458
-1.28676e-06
-6.26471e-09
1.15116e-08
0.00114458
-2.85652e-07
1.29414e-06
2.81415e-07
9.40681e-07
-2.6931e-07
-9.39743e-07
2.60035e-07
-0.000275658
1.31895e-06
1.27585e-06
-2.63409e-07
-2.73948e-07
0.0002736
5.51966e-09
6.23012e-09
-0.00116448
-5.8629e-09
-5.79151e-09
0.00116448
-0.00114467
-1.28946e-06
-6.15217e-09
1.14394e-08
0.00114467
-2.85725e-07
1.29692e-06
2.81352e-07
9.46163e-07
-2.72042e-07
-9.45224e-07
2.62767e-07
-0.00114458
-1.28667e-06
-6.25365e-09
1.14998e-08
0.00114458
-2.85679e-07
1.29418e-06
2.81389e-07
9.40663e-07
-2.69332e-07
-9.39781e-07
2.60024e-07
-0.000275658
1.31893e-06
1.27582e-06
-2.63398e-07
-2.7395e-07
0.0002736
5.57268e-09
6.26682e-09
-0.00116448
-5.89117e-09
-5.83827e-09
0.00116448
-0.00114467
-1.28936e-06
-6.16558e-09
1.14342e-08
0.00114467
-2.85733e-07
1.29704e-06
2.81329e-07
9.46122e-07
-2.72079e-07
-9.45261e-07
2.62729e-07
-0.00114458
-1.28658e-06
-6.22742e-09
1.1519e-08
0.00114458
-2.85693e-07
1.29429e-06
2.81359e-07
9.40613e-07
-2.69369e-07
-9.39827e-07
2.59988e-07
-0.000275658
1.31892e-06
1.2758e-06
-2.63397e-07
-2.73954e-07
0.0002736
5.56389e-09
6.25144e-09
-0.00116448
-5.88568e-09
-5.85182e-09
0.00116448
-0.00114467
-1.28938e-06
-6.13468e-09
1.14098e-08
0.00114467
-2.85709e-07
1.29708e-06
2.81342e-07
9.46112e-07
-2.72091e-07
-9.45265e-07
2.6271e-07
-0.00114458
-1.28661e-06
-6.19028e-09
1.15342e-08
0.00114458
-2.85682e-07
1.29431e-06
2.81362e-07
9.40605e-07
-2.6938e-07
-9.39829e-07
2.59972e-07
-0.000275658
1.31898e-06
1.27586e-06
-2.63415e-07
-2.7397e-07
0.0002736
5.52599e-09
6.20044e-09
-0.00116448
-5.8477e-09
-5.81646e-09
0.00116448
-0.00114467
-1.28947e-06
-6.09237e-09
1.14287e-08
0.00114467
-2.85688e-07
1.297e-06
2.81376e-07
9.46126e-07
-2.72068e-07
-9.45254e-07
2.62733e-07
-0.00114458
-1.28669e-06
-6.17758e-09
1.15231e-08
0.00114458
-2.85661e-07
1.29425e-06
2.81395e-07
9.40627e-07
-2.6936e-07
-9.39808e-07
2.59992e-07
-0.000275658
1.31901e-06
1.2759e-06
-2.63434e-07
-2.73984e-07
0.0002736
5.51917e-09
6.1982e-09
-0.00116448
-5.84066e-09
-5.79803e-09
0.00116448
-0.00114467
-1.2895e-06
-6.0934e-09
1.14455e-08
0.00114467
-2.85705e-07
1.29695e-06
2.81378e-07
9.46138e-07
-2.72061e-07
-9.45247e-07
2.62754e-07
-0.00114458
-1.28674e-06
-6.19448e-09
1.15234e-08
0.00114458
-2.85662e-07
1.2942e-06
2.8141e-07
9.40647e-07
-2.69347e-07
-9.39794e-07
2.60015e-07
-0.000275658
1.31897e-06
1.27587e-06
-2.63427e-07
-2.73975e-07
0.0002736
5.42268e-09
6.11007e-09
-0.00116448
-5.78339e-09
-5.73609e-09
0.00116448
-0.00114467
-1.28952e-06
-6.00403e-09
1.14961e-08
0.00114467
-2.85746e-07
1.29691e-06
2.81351e-07
9.46125e-07
-2.72104e-07
-9.45268e-07
2.62721e-07
-0.00114458
-1.28677e-06
-6.09569e-09
1.15751e-08
0.00114458
-2.85696e-07
1.29414e-06
2.81393e-07
9.40637e-07
-2.69388e-07
-9.39811e-07
2.59987e-07
-0.000275658
1.31893e-06
1.27583e-06
-2.6344e-07
-2.73988e-07
0.0002736
5.24237e-09
5.94018e-09
-0.00116448
-5.68795e-09
-5.63159e-09
0.00116448
-0.00114467
-1.28957e-06
-5.84255e-09
1.15435e-08
0.00114467
-2.858e-07
1.29686e-06
2.81302e-07
9.46089e-07
-2.72157e-07
-9.45318e-07
2.62678e-07
-0.00114458
-1.28681e-06
-5.92198e-09
1.16309e-08
0.00114458
-2.8576e-07
1.29408e-06
2.81337e-07
9.406e-07
-2.69444e-07
-9.39868e-07
2.5994e-07
-0.000275657
1.319e-06
1.27589e-06
-2.63481e-07
-2.74032e-07
0.0002736
-1.33731e-06
-1.29429e-06
0.000275708
-0.000273631
2.73289e-07
2.81304e-07
0.00114407
-4.86073e-09
-0.00114407
1.23478e-08
-1.33023e-06
2.86593e-07
-2.91509e-07
-9.43061e-07
2.59539e-07
-2.69728e-07
9.43208e-07
1.33466e-06
0.0011442
-4.95486e-09
-0.00114419
1.2224e-08
-1.32764e-06
2.86625e-07
-2.91528e-07
-9.48263e-07
2.62317e-07
-2.72399e-07
9.48518e-07
-1.29687e-06
0.000275697
-0.00027362
2.76135e-07
2.78461e-07
0.00114508
-5.60091e-09
-0.00114508
1.17906e-08
-1.28713e-06
2.81326e-07
-2.85864e-07
-9.42765e-07
2.5988e-07
-2.69592e-07
9.43272e-07
1.33189e-06
0.00114409
-4.90263e-09
-0.00114409
1.23809e-08
-1.32486e-06
2.83825e-07
-2.88745e-07
-9.45671e-07
2.62297e-07
-2.72416e-07
9.45775e-07
-5.54122e-09
-0.00114467
1.17055e-08
-1.28966e-06
2.78446e-07
-2.83061e-07
-9.45435e-07
2.62516e-07
9.46026e-07
-2.72247e-07
1.3261e-06
0.00114376
-4.90292e-09
-0.00114376
1.23779e-08
-1.31915e-06
2.83744e-07
-2.88691e-07
-9.42847e-07
2.62267e-07
-2.72366e-07
9.43058e-07
-1.29408e-06
0.000275682
-0.000273608
2.73528e-07
2.78451e-07
-5.58801e-09
-0.00114458
1.17934e-08
-1.28691e-06
2.81289e-07
-2.85797e-07
-9.40013e-07
2.59819e-07
9.4045e-07
-2.69557e-07
1.28308e-06
0.00114476
-5.64589e-09
-0.00114476
1.16693e-08
-1.27604e-06
2.75717e-07
-2.80265e-07
-9.42459e-07
2.62607e-07
-2.72185e-07
9.43119e-07
-0.0002736
2.70566e-07
2.81189e-07
1.33009e-06
1.28699e-06
-2.66139e-07
-2.74072e-07
0.000273631
-1.3373e-06
-1.29427e-06
0.000275708
-0.000273631
2.73334e-07
2.81349e-07
1.23499e-08
0.00114407
-2.91551e-07
1.33743e-06
2.86544e-07
9.43163e-07
-2.69766e-07
-9.43107e-07
2.59513e-07
-1.3275e-06
-4.97558e-09
1.22298e-08
0.0011442
-2.91569e-07
1.33477e-06
2.86577e-07
9.48478e-07
-2.72435e-07
-9.48303e-07
2.62296e-07
0.00114407
-5.00619e-09
-0.00114407
1.22039e-08
-1.33021e-06
2.86668e-07
-2.91458e-07
-9.42999e-07
2.59623e-07
-2.69655e-07
9.43285e-07
1.33461e-06
0.0011442
-5.0706e-09
-0.0011442
1.21264e-08
-1.32764e-06
2.86699e-07
-2.91472e-07
-9.48201e-07
2.62405e-07
-2.72321e-07
9.48596e-07
-2.68912e-07
-2.71335e-07
0.00027362
-1.29682e-06
0.000275697
-0.00027362
2.76156e-07
2.78491e-07
1.17859e-08
0.00114508
-2.85907e-07
1.2944e-06
2.81276e-07
9.43232e-07
-2.69635e-07
-9.42801e-07
2.59851e-07
-1.3247e-06
-4.92404e-09
1.23804e-08
0.00114409
-2.8879e-07
1.33202e-06
2.83771e-07
9.45734e-07
-2.72458e-07
-9.45708e-07
2.62267e-07
0.00114508
-5.72475e-09
-0.00114508
1.16344e-08
-1.28711e-06
2.81402e-07
-2.85812e-07
-9.42711e-07
2.5997e-07
-2.69514e-07
9.43338e-07
1.33185e-06
0.00114409
-5.01973e-09
-0.00114409
1.22779e-08
-1.32484e-06
2.83903e-07
-2.8869e-07
-9.45612e-07
2.62384e-07
-2.72342e-07
9.45847e-07
-4.91346e-09
1.237e-08
0.00114376
-2.88728e-07
1.32621e-06
2.83701e-07
9.43016e-07
-2.72404e-07
2.62244e-07
-9.4289e-07
-5.6177e-09
-0.00114467
1.15879e-08
-1.28966e-06
2.78535e-07
-2.82996e-07
-9.45381e-07
2.62599e-07
9.46094e-07
-2.72175e-07
1.32608e-06
0.00114376
-5.01445e-09
-0.00114376
1.2249e-08
-1.31913e-06
2.83822e-07
-2.88631e-07
-9.42791e-07
2.62347e-07
-2.72296e-07
9.43128e-07
-2.66369e-07
-2.71248e-07
0.000273609
-1.29405e-06
0.000275683
-0.000273609
2.73565e-07
2.78475e-07
-5.64825e-09
1.16723e-08
0.00114476
-2.80307e-07
1.28319e-06
2.75669e-07
9.4308e-07
-2.7223e-07
2.62579e-07
-9.42496e-07
-5.68702e-09
-0.00114458
1.16831e-08
-1.2869e-06
2.81365e-07
-2.85743e-07
-9.39961e-07
2.59908e-07
9.40518e-07
-2.69481e-07
1.28304e-06
0.00114476
-5.78547e-09
-0.00114476
1.15209e-08
-1.27603e-06
2.75805e-07
-2.80198e-07
-9.42403e-07
2.62698e-07
-2.72109e-07
9.43188e-07
-0.0002736
2.70575e-07
2.8125e-07
1.3301e-06
1.287e-06
-2.66072e-07
-2.74013e-07
0.000273631
-1.33734e-06
-1.29432e-06
0.000275708
-0.000273632
2.7337e-07
2.81385e-07
1.21584e-08
0.00114407
-2.91446e-07
1.33744e-06
2.86654e-07
9.43275e-07
-2.69649e-07
-9.4299e-07
2.59618e-07
-1.32753e-06
-5.23302e-09
1.2096e-08
0.0011442
-2.91467e-07
1.33477e-06
2.86676e-07
9.48589e-07
-2.72319e-07
-9.48186e-07
2.62396e-07
0.00114407
-5.41139e-09
-0.00114407
1.20762e-08
-1.3301e-06
2.86705e-07
-2.91424e-07
-9.42921e-07
2.59694e-07
-2.69581e-07
9.43359e-07
1.33469e-06
0.0011442
-5.47276e-09
-0.0011442
1.19842e-08
-1.3275e-06
2.86723e-07
-2.91453e-07
-9.48116e-07
2.62485e-07
-2.72237e-07
9.48673e-07
-2.68874e-07
-2.71284e-07
0.00027362
-1.29689e-06
0.000275698
-0.000273621
2.76205e-07
2.78551e-07
1.1595e-08
0.00114509
-2.85802e-07
1.29442e-06
2.81386e-07
9.43334e-07
-2.69516e-07
-9.42696e-07
2.59957e-07
-1.32474e-06
-5.17822e-09
1.22291e-08
0.00114409
-2.88679e-07
1.332e-06
2.83886e-07
9.45844e-07
-2.72338e-07
-9.45594e-07
2.62377e-07
0.00114509
-6.11255e-09
-0.00114509
1.1505e-08
-1.28699e-06
2.81444e-07
-2.85774e-07
-9.42639e-07
2.60029e-07
-2.69455e-07
9.43399e-07
1.33193e-06
0.00114409
-5.39944e-09
-0.00114409
1.21274e-08
-1.32471e-06
2.83933e-07
-2.88665e-07
-9.45549e-07
2.62448e-07
-2.72278e-07
9.459e-07
-5.14875e-09
1.22122e-08
0.00114376
-2.88625e-07
1.32622e-06
2.83802e-07
9.43117e-07
-2.72294e-07
2.62337e-07
-9.42782e-07
-6.04123e-09
-0.00114468
1.14446e-08
-1.28953e-06
2.78569e-07
-2.82967e-07
-9.45316e-07
2.62667e-07
9.46153e-07
-2.72109e-07
1.32613e-06
0.00114376
-5.41219e-09
-0.00114376
1.21055e-08
-1.31902e-06
2.83863e-07
-2.88593e-07
-9.42723e-07
2.62413e-07
-2.72228e-07
9.43192e-07
-2.6631e-07
-2.71218e-07
0.000273609
-1.29413e-06
0.000275683
-0.000273609
2.73619e-07
2.78534e-07
-5.9234e-09
1.14853e-08
0.00114476
-2.80195e-07
1.28318e-06
2.75783e-07
9.43185e-07
-2.72109e-07
2.62689e-07
-9.42388e-07
-6.09788e-09
-0.00114458
1.15462e-08
-1.28675e-06
2.81394e-07
-2.85717e-07
-9.39893e-07
2.59973e-07
9.40576e-07
-2.69419e-07
1.2831e-06
0.00114476
-6.145e-09
-0.00114476
1.139e-08
-1.27591e-06
2.7584e-07
-2.80168e-07
-9.42331e-07
2.62757e-07
-2.72049e-07
9.43249e-07
-0.000273601
2.70633e-07
2.81282e-07
1.33011e-06
1.287e-06
-2.66062e-07
-2.73995e-07
0.000273631
-1.33744e-06
-1.29441e-06
0.000275709
-0.000273632
2.73421e-07
2.81441e-07
1.20189e-08
0.00114407
-2.91378e-07
1.33741e-06
2.86734e-07
9.43371e-07
-2.69565e-07
-9.42895e-07
2.59693e-07
-1.32753e-06
-5.52606e-09
1.19464e-08
0.0011442
-2.91405e-07
1.33474e-06
2.86755e-07
9.48675e-07
-2.72232e-07
-9.48097e-07
2.62468e-07
0.00114408
-5.5848e-09
-0.00114407
1.20128e-08
-1.32997e-06
2.86705e-07
-2.91411e-07
-9.42919e-07
2.59696e-07
-2.69578e-07
9.43354e-07
1.33478e-06
0.0011442
-5.61961e-09
-0.0011442
1.19455e-08
-1.32738e-06
2.86722e-07
-2.9144e-07
-9.48136e-07
2.62468e-07
-2.72259e-07
9.4865e-07
-2.68847e-07
-2.71257e-07
0.000273621
-1.29698e-06
0.000275698
-0.000273621
2.76247e-07
2.78598e-07
1.14625e-08
0.00114509
-2.85728e-07
1.29439e-06
2.81472e-07
9.43421e-07
-2.69434e-07
-9.42613e-07
2.60033e-07
-1.32473e-06
-5.50618e-09
1.20958e-08
0.00114409
-2.88619e-07
1.33199e-06
2.83961e-07
9.45925e-07
-2.72257e-07
-9.45521e-07
2.62453e-07
0.00114509
-6.33676e-09
-0.00114509
1.14613e-08
-1.28687e-06
2.81432e-07
-2.85773e-07
-9.42607e-07
2.60047e-07
-2.69435e-07
9.43423e-07
1.33202e-06
0.00114409
-5.61499e-09
-0.00114409
1.20771e-08
-1.32459e-06
2.83928e-07
-2.88656e-07
-9.45517e-07
2.62463e-07
-2.72261e-07
9.45923e-07
-5.52166e-09
1.20664e-08
0.00114376
-2.88556e-07
1.3262e-06
2.83883e-07
9.43213e-07
-2.72207e-07
2.62418e-07
-9.42692e-07
-6.25717e-09
-0.00114468
1.13847e-08
-1.28941e-06
2.78549e-07
-2.82975e-07
-9.45273e-07
2.62692e-07
9.46186e-07
-2.72081e-07
1.3262e-06
0.00114376
-5.57999e-09
-0.00114376
1.20574e-08
-1.31891e-06
2.83857e-07
-2.88588e-07
-9.42696e-07
2.62431e-07
-2.72207e-07
9.43209e-07
-2.66291e-07
-2.71176e-07
0.000273609
-1.29422e-06
0.000275684
-0.00027361
2.73668e-07
2.78585e-07
-6.26171e-09
1.13538e-08
0.00114476
-2.80129e-07
1.28317e-06
2.7586e-07
9.4327e-07
-2.72028e-07
2.62763e-07
-9.42307e-07
-6.3047e-09
-0.00114458
1.14794e-08
-1.28664e-06
2.81389e-07
-2.85708e-07
-9.39855e-07
2.59991e-07
9.40604e-07
-2.69395e-07
1.28317e-06
0.00114477
-6.36844e-09
-0.00114477
1.13505e-08
-1.2758e-06
2.7583e-07
-2.80166e-07
-9.42291e-07
2.62783e-07
-2.7202e-07
9.43282e-07
-0.000273601
2.70672e-07
2.81325e-07
1.33009e-06
1.28699e-06
-2.66048e-07
-2.73979e-07
0.000273632
-1.33749e-06
-1.29447e-06
0.000275709
-0.000273632
2.73436e-07
2.81451e-07
1.20356e-08
0.00114408
-2.91371e-07
1.33736e-06
2.86746e-07
9.43381e-07
-2.69545e-07
-9.42895e-07
2.59716e-07
-1.32751e-06
-5.66315e-09
1.19611e-08
0.0011442
-2.91403e-07
1.3347e-06
2.8676e-07
9.48695e-07
-2.72213e-07
-9.48098e-07
2.62503e-07
0.00114408
-5.57241e-09
-0.00114408
1.2083e-08
-1.32994e-06
2.86659e-07
-2.91437e-07
-9.42912e-07
2.59683e-07
-2.69584e-07
9.43352e-07
1.33483e-06
0.0011442
-5.679e-09
-0.0011442
1.19664e-08
-1.32736e-06
2.86679e-07
-2.91468e-07
-9.48092e-07
2.62472e-07
-2.72242e-07
9.48683e-07
-2.68838e-07
-2.71241e-07
0.000273621
-1.29704e-06
0.000275698
-0.000273621
2.76274e-07
2.78601e-07
1.14611e-08
0.00114509
-2.85729e-07
1.29434e-06
2.81478e-07
9.43437e-07
-2.69406e-07
-9.42597e-07
2.60062e-07
-1.32471e-06
-5.57828e-09
1.20963e-08
0.00114409
-2.88614e-07
1.33194e-06
2.83971e-07
9.45939e-07
-2.7223e-07
-9.45506e-07
2.6248e-07
0.00114509
-6.25792e-09
-0.00114509
1.15104e-08
-1.28683e-06
2.81391e-07
-2.85793e-07
-9.42619e-07
2.60019e-07
-2.69458e-07
9.43407e-07
1.33208e-06
0.00114409
-5.55239e-09
-0.00114409
1.20948e-08
-1.32455e-06
2.83892e-07
-2.88672e-07
-9.45526e-07
2.62433e-07
-2.72285e-07
9.45909e-07
-5.54147e-09
1.20714e-08
0.00114376
-2.88548e-07
1.32614e-06
2.83897e-07
9.43225e-07
-2.72183e-07
2.62439e-07
-9.42681e-07
-6.18035e-09
-0.00114468
1.14253e-08
-1.28937e-06
2.78522e-07
-2.82984e-07
-9.45298e-07
2.62649e-07
9.46155e-07
-2.72117e-07
1.32628e-06
0.00114376
-5.59687e-09
-0.00114376
1.20666e-08
-1.31885e-06
2.8382e-07
-2.88607e-07
-9.42699e-07
2.62412e-07
-2.7222e-07
9.43203e-07
-2.66272e-07
-2.71163e-07
0.00027361
-1.29427e-06
0.000275684
-0.00027361
2.73677e-07
2.78601e-07
-6.33189e-09
1.13699e-08
0.00114477
-2.80125e-07
1.28311e-06
2.75871e-07
9.43292e-07
-2.71994e-07
2.62794e-07
-9.42283e-07
-6.29996e-09
-0.00114458
1.15339e-08
-1.28662e-06
2.81348e-07
-2.85731e-07
-9.39857e-07
2.59974e-07
9.40598e-07
-2.69407e-07
1.28324e-06
0.00114477
-6.33351e-09
-0.00114477
1.13553e-08
-1.27575e-06
2.75794e-07
-2.80184e-07
-9.42302e-07
2.6276e-07
-2.72039e-07
9.43269e-07
-0.000273602
2.70693e-07
2.8135e-07
1.33005e-06
1.28695e-06
-2.66037e-07
-2.73971e-07
0.000273632
-1.33755e-06
-1.29452e-06
0.00027571
-0.000273632
2.73467e-07
2.81493e-07
1.20593e-08
0.00114408
-2.91404e-07
1.33737e-06
2.86712e-07
9.43382e-07
-2.69543e-07
-9.42892e-07
2.5972e-07
-1.32747e-06
-5.59828e-09
1.196e-08
0.0011442
-2.91429e-07
1.33471e-06
2.86737e-07
9.48696e-07
-2.72218e-07
-9.48086e-07
2.62494e-07
0.00114408
-5.51555e-09
-0.00114408
1.21138e-08
-1.32991e-06
2.86666e-07
-2.91412e-07
-9.42899e-07
2.59669e-07
-2.69586e-07
9.4335e-07
1.33489e-06
0.0011442
-5.5907e-09
-0.0011442
1.19736e-08
-1.32732e-06
2.86691e-07
-2.91431e-07
-9.48112e-07
2.62457e-07
-2.72249e-07
9.48656e-07
-2.68816e-07
-2.71233e-07
0.000273622
-1.29709e-06
0.000275699
-0.000273622
2.76299e-07
2.78646e-07
1.15061e-08
0.00114509
-2.85761e-07
1.29435e-06
2.81444e-07
9.43431e-07
-2.69411e-07
-9.42603e-07
2.60063e-07
-1.32466e-06
-5.55104e-09
1.20885e-08
0.00114409
-2.8864e-07
1.33196e-06
2.83943e-07
9.45936e-07
-2.72236e-07
-9.45508e-07
2.6248e-07
0.00114509
-6.26552e-09
-0.00114509
1.15387e-08
-1.28681e-06
2.81394e-07
-2.85771e-07
-9.42589e-07
2.6001e-07
-2.69453e-07
9.43425e-07
1.33213e-06
0.00114409
-5.52854e-09
-0.00114409
1.21602e-08
-1.32454e-06
2.83889e-07
-2.88656e-07
-9.45495e-07
2.62427e-07
-2.72276e-07
9.45928e-07
-5.58503e-09
1.20733e-08
0.00114376
-2.88571e-07
1.32615e-06
2.83875e-07
9.4324e-07
-2.72177e-07
2.62451e-07
-9.4267e-07
-6.21467e-09
-0.00114468
1.14662e-08
-1.28936e-06
2.78516e-07
-2.8297e-07
-9.45262e-07
2.62671e-07
9.4618e-07
-2.72079e-07
1.32632e-06
0.00114376
-5.49793e-09
-0.00114376
1.2188e-08
-1.31885e-06
2.83802e-07
-2.88598e-07
-9.42688e-07
2.62396e-07
-2.72224e-07
9.43194e-07
-2.66262e-07
-2.71149e-07
0.00027361
-1.29432e-06
0.000275684
-0.00027361
2.7371e-07
2.78636e-07
-6.31814e-09
1.1353e-08
0.00114477
-2.80147e-07
1.28313e-06
2.75852e-07
9.43299e-07
-2.71991e-07
2.62803e-07
-9.42279e-07
-6.26529e-09
-0.00114458
1.1548e-08
-1.2866e-06
2.81354e-07
-2.85704e-07
-9.39844e-07
2.59965e-07
9.406e-07
-2.69403e-07
1.28329e-06
0.00114477
-6.25653e-09
-0.00114477
1.14731e-08
-1.27574e-06
2.75777e-07
-2.80173e-07
-9.42282e-07
2.62739e-07
-2.72045e-07
9.43272e-07
-0.000273602
2.70719e-07
2.81373e-07
1.32997e-06
1.28688e-06
-2.66e-07
-2.7392e-07
0.000273633
-1.33755e-06
-1.29453e-06
0.000275709
-0.000273632
2.73492e-07
2.81504e-07
1.21491e-08
0.00114408
-2.91411e-07
1.33743e-06
2.86686e-07
9.43359e-07
-2.69551e-07
-9.42905e-07
2.59713e-07
-1.32739e-06
-5.59157e-09
1.20018e-08
0.0011442
-2.91433e-07
1.33476e-06
2.86711e-07
9.4868e-07
-2.72212e-07
-9.48102e-07
2.62503e-07
0.00114408
-5.56834e-09
-0.00114408
1.20686e-08
-1.32995e-06
2.8669e-07
-2.91379e-07
-9.4285e-07
2.59689e-07
-2.6955e-07
9.43398e-07
1.33489e-06
0.0011442
-5.67121e-09
-0.0011442
1.19979e-08
-1.32736e-06
2.86708e-07
-2.91407e-07
-9.48031e-07
2.62486e-07
-2.72205e-07
9.48728e-07
-2.6878e-07
-2.71182e-07
0.000273622
-1.29709e-06
0.000275698
-0.000273621
2.7631e-07
2.7866e-07
1.15643e-08
0.00114509
-2.85772e-07
1.2944e-06
2.81414e-07
9.43418e-07
-2.69421e-07
-9.42603e-07
2.60055e-07
-1.32459e-06
-5.47815e-09
1.21835e-08
0.00114409
-2.88653e-07
1.33201e-06
2.83913e-07
9.45922e-07
-2.72246e-07
-9.45507e-07
2.62469e-07
0.00114509
-6.32675e-09
-0.00114509
1.1536e-08
-1.28685e-06
2.81415e-07
-2.85741e-07
-9.42552e-07
2.60035e-07
-2.69407e-07
9.4347e-07
1.33214e-06
0.00114409
-5.61466e-09
-0.00114409
1.21145e-08
-1.32456e-06
2.83919e-07
-2.88615e-07
-9.45462e-07
2.62451e-07
-2.72237e-07
9.45969e-07
-5.47845e-09
1.22051e-08
0.00114376
-2.88603e-07
1.3262e-06
2.8382e-07
9.43205e-07
-2.72186e-07
2.62442e-07
-9.42695e-07
-6.19724e-09
-0.00114468
1.14269e-08
-1.2894e-06
2.78539e-07
-2.82933e-07
-9.45229e-07
2.62682e-07
9.46201e-07
-2.72058e-07
1.32634e-06
0.00114376
-5.57264e-09
-0.00114376
1.20764e-08
-1.31888e-06
2.83853e-07
-2.88544e-07
-9.42631e-07
2.62422e-07
-2.7218e-07
9.43248e-07
-2.66223e-07
-2.71105e-07
0.00027361
-1.29433e-06
0.000275684
-0.00027361
2.73736e-07
2.7865e-07
-6.20105e-09
1.14874e-08
0.00114477
-2.80179e-07
1.28317e-06
2.75796e-07
9.43269e-07
-2.72012e-07
2.62784e-07
-9.42296e-07
-6.31711e-09
-0.00114458
1.15148e-08
-1.28663e-06
2.81377e-07
-2.85674e-07
-9.39782e-07
2.59995e-07
9.4066e-07
-2.69354e-07
1.2833e-06
0.00114477
-6.39988e-09
-0.00114477
1.13881e-08
-1.27578e-06
2.75821e-07
-2.80124e-07
-9.42234e-07
2.62776e-07
-2.71991e-07
9.43327e-07
-0.000273601
2.70739e-07
2.81409e-07
1.3299e-06
1.2868e-06
-2.65944e-07
-2.73878e-07
0.000273632
-1.33747e-06
-1.29444e-06
0.000275709
-0.000273632
2.7345e-07
2.8147e-07
1.20283e-08
0.00114408
-2.91394e-07
1.33753e-06
2.86687e-07
9.43383e-07
-2.69541e-07
-9.42866e-07
2.59717e-07
-1.32731e-06
-5.59549e-09
1.20175e-08
0.0011442
-2.91428e-07
1.33485e-06
2.86698e-07
9.48693e-07
-2.72207e-07
-9.48065e-07
2.62499e-07
0.00114408
-5.49462e-09
-0.00114408
1.21451e-08
-1.33004e-06
2.867e-07
-2.91362e-07
-9.4284e-07
2.59702e-07
-2.69514e-07
9.43405e-07
1.33481e-06
0.0011442
-5.54457e-09
-0.0011442
1.20203e-08
-1.32744e-06
2.86725e-07
-2.91384e-07
-9.48044e-07
2.62476e-07
-2.72195e-07
9.48715e-07
-2.68749e-07
-2.71133e-07
0.000273622
-1.297e-06
0.000275698
-0.000273621
2.76268e-07
2.78632e-07
1.15197e-08
0.00114509
-2.8576e-07
1.2945e-06
2.81408e-07
9.43465e-07
-2.69409e-07
-9.4255e-07
2.60055e-07
-1.32452e-06
-5.62215e-09
1.20827e-08
0.00114409
-2.88636e-07
1.3321e-06
2.8391e-07
9.45966e-07
-2.72226e-07
-9.45457e-07
2.62483e-07
0.00114509
-6.20177e-09
-0.00114509
1.16188e-08
-1.28694e-06
2.81419e-07
-2.8573e-07
-9.42552e-07
2.6006e-07
-2.69367e-07
9.43458e-07
1.33205e-06
0.00114409
-5.55144e-09
-0.00114409
1.21622e-08
-1.32466e-06
2.83922e-07
-2.88607e-07
-9.45449e-07
2.62481e-07
-2.72187e-07
9.45975e-07
-5.52731e-09
1.20944e-08
0.00114376
-2.8857e-07
1.32633e-06
2.83833e-07
9.43215e-07
-2.72181e-07
2.62437e-07
-9.42663e-07
-6.18695e-09
-0.00114467
1.15255e-08
-1.2895e-06
2.81336e-07
-2.85714e-07
-9.452e-07
2.62737e-07
9.46179e-07
-2.72049e-07
1.32622e-06
0.00114376
-5.51478e-09
-0.00114376
1.21559e-08
-1.31899e-06
2.83863e-07
-2.88533e-07
-9.42614e-07
2.62431e-07
-2.72153e-07
9.43268e-07
-2.66163e-07
-2.71069e-07
0.00027361
-1.29426e-06
0.000275683
-0.000273609
2.73708e-07
2.78612e-07
-6.38629e-09
1.13892e-08
0.00114477
-2.80153e-07
1.28328e-06
2.75799e-07
9.43311e-07
-2.71989e-07
2.62798e-07
-9.42243e-07
-6.27083e-09
-0.00114458
1.15961e-08
-1.2867e-06
2.81389e-07
-2.85653e-07
-9.39773e-07
2.59993e-07
9.40669e-07
-2.69336e-07
1.28317e-06
0.00114477
-6.2743e-09
-0.00114477
1.14777e-08
-1.2759e-06
2.75826e-07
-2.80123e-07
-9.4222e-07
2.628e-07
-2.71948e-07
9.43333e-07
-0.000273601
2.70685e-07
2.8135e-07
1.32994e-06
1.28685e-06
-2.65969e-07
-2.73897e-07
0.000273632
-1.33744e-06
-1.29441e-06
0.000275709
-0.000273632
2.73439e-07
2.81463e-07
1.21661e-08
0.00114408
-2.9141e-07
1.33752e-06
2.86649e-07
9.43387e-07
-2.69556e-07
-9.42855e-07
2.59675e-07
-1.32734e-06
-5.58976e-09
1.20352e-08
0.0011442
-2.91431e-07
1.33486e-06
2.86675e-07
9.48698e-07
-2.72225e-07
-9.48057e-07
2.62463e-07
0.00114408
-5.46144e-09
-0.00114408
1.21274e-08
-1.33006e-06
2.86723e-07
-2.91353e-07
-9.42861e-07
2.59722e-07
-2.69506e-07
9.43385e-07
1.33476e-06
0.0011442
-5.54818e-09
-0.0011442
1.2022e-08
-1.32749e-06
2.8674e-07
-2.91382e-07
-9.48052e-07
2.62513e-07
-2.72165e-07
9.48712e-07
-2.68759e-07
-2.71145e-07
0.000273621
-1.29696e-06
0.000275698
-0.000273621
2.7626e-07
2.78605e-07
1.16262e-08
0.00114509
-2.8578e-07
1.29448e-06
2.81366e-07
9.43452e-07
-2.69406e-07
-9.42559e-07
2.6003e-07
-1.32456e-06
-5.56628e-09
1.22052e-08
0.00114409