/*--------------------------------*- C++ -*----------------------------------*\
| =========                 |                                                 |
| \\      /  F ield         | OpenFOAM: The Open Source CFD Toolbox           |
|  \\    /   O peration     | Version:  v2006                                 |
|   \\  /    A nd           | Website:  www.openfoam.com                      |
|    \\/     M anipulation  |                                                 |
\*---------------------------------------------------------------------------*/
FoamFile
{
    version     2.0;
    format      ascii;
    class       volScalarField;
    location    "375";
    object      epsilon;
}
// * * * * * * * * * * * * * * * * * * * * * * * * * * * * * * * * * * * * * //

dimensions      [0 2 -3 0 0 0 0];


internalField   nonuniform List<scalar> 
43024
(
4.95567e-07
4.97331e-07
4.97331e-07
4.99575e-07
4.45573e-07
4.53736e-07
4.53738e-07
4.63711e-07
4.03752e-07
4.18514e-07
4.18515e-07
4.39411e-07
3.68363e-07
3.88554e-07
3.88556e-07
4.1767e-07
3.38014e-07
3.62105e-07
3.62108e-07
3.96085e-07
3.11645e-07
3.38275e-07
3.38278e-07
3.74584e-07
2.88472e-07
3.1664e-07
3.16643e-07
3.53713e-07
2.67922e-07
2.97024e-07
2.97027e-07
3.34151e-07
2.49579e-07
2.79373e-07
2.79375e-07
3.16488e-07
2.33136e-07
2.63681e-07
2.63684e-07
3.01165e-07
2.18365e-07
2.49957e-07
2.4996e-07
2.88497e-07
2.05089e-07
2.38201e-07
2.38205e-07
2.787e-07
1.93171e-07
2.28413e-07
2.28418e-07
2.71882e-07
1.82497e-07
2.20601e-07
2.20608e-07
2.68169e-07
1.72978e-07
2.14773e-07
2.14782e-07
2.67647e-07
1.6454e-07
2.10941e-07
2.10948e-07
2.70497e-07
1.5712e-07
2.09115e-07
2.09118e-07
2.767e-07
1.50666e-07
2.09306e-07
2.0931e-07
2.86285e-07
1.45134e-07
2.11565e-07
2.11566e-07
2.99235e-07
1.40489e-07
2.15906e-07
2.15905e-07
3.15616e-07
1.367e-07
2.22348e-07
2.22348e-07
3.35376e-07
5.06417e-07
5.05584e-07
5.05582e-07
5.06417e-07
5.05583e-07
5.05583e-07
5.09649e-07
5.09649e-07
5.09649e-07
5.09649e-07
5.05584e-07
5.05584e-07
5.06417e-07
5.05584e-07
5.05583e-07
5.06418e-07
4.99575e-07
4.67236e-07
4.97331e-07
4.97335e-07
4.63713e-07
4.63721e-07
4.99575e-07
4.67237e-07
4.97334e-07
4.97335e-07
4.63718e-07
4.63723e-07
4.97332e-07
4.6371e-07
4.63715e-07
4.99575e-07
4.67239e-07
4.97334e-07
4.63711e-07
4.63719e-07
4.67243e-07
4.63708e-07
4.41422e-07
4.53739e-07
4.53748e-07
4.26738e-07
4.26747e-07
4.63709e-07
4.41422e-07
4.53743e-07
4.5375e-07
4.26738e-07
4.26749e-07
4.53743e-07
4.26732e-07
4.26742e-07
4.6371e-07
4.41428e-07
4.53745e-07
4.26734e-07
4.26742e-07
4.41434e-07
4.39404e-07
4.19278e-07
4.18521e-07
4.1853e-07
3.95675e-07
3.95684e-07
4.39408e-07
4.19279e-07
4.18521e-07
4.18533e-07
3.9567e-07
3.95686e-07
4.18526e-07
3.95665e-07
3.9568e-07
4.39409e-07
4.19285e-07
4.18525e-07
3.95668e-07
3.95675e-07
4.19293e-07
4.17658e-07
3.9764e-07
3.88564e-07
3.88573e-07
3.6846e-07
3.68468e-07
4.1766e-07
3.97641e-07
3.88558e-07
3.88576e-07
3.6845e-07
3.6847e-07
3.8857e-07
3.68447e-07
3.68466e-07
4.17664e-07
3.97647e-07
3.88564e-07
3.68449e-07
3.68456e-07
3.97656e-07
3.96071e-07
3.7608e-07
3.62118e-07
3.62126e-07
3.44031e-07
3.44038e-07
3.96074e-07
3.76081e-07
3.62108e-07
3.62129e-07
3.44017e-07
3.44041e-07
3.62124e-07
3.44016e-07
3.44037e-07
3.96078e-07
3.76087e-07
3.62113e-07
3.44018e-07
3.44023e-07
3.76096e-07
3.7457e-07
3.55105e-07
3.38291e-07
3.38298e-07
3.21873e-07
3.21879e-07
3.74573e-07
3.55106e-07
3.38277e-07
3.38301e-07
3.21856e-07
3.21881e-07
3.38297e-07
3.21856e-07
3.21879e-07
3.74577e-07
3.55112e-07
3.38283e-07
3.21858e-07
3.21862e-07
3.55122e-07
3.53699e-07
3.35389e-07
3.16658e-07
3.16664e-07
3.01762e-07
3.01767e-07
3.53701e-07
3.3539e-07
3.16641e-07
3.16666e-07
3.01742e-07
3.01769e-07
3.16664e-07
3.01743e-07
3.01767e-07
3.53705e-07
3.35396e-07
3.16647e-07
3.01745e-07
3.01748e-07
3.35406e-07
3.34137e-07
3.17527e-07
2.97043e-07
2.97048e-07
2.83622e-07
2.83626e-07
3.34139e-07
3.17529e-07
2.97024e-07
2.9705e-07
2.83601e-07
2.83628e-07
2.97048e-07
2.83602e-07
2.83627e-07
3.34143e-07
3.17534e-07
2.97029e-07
2.83604e-07
2.83606e-07
3.17545e-07
3.16473e-07
3.01969e-07
2.79393e-07
2.79397e-07
2.67441e-07
2.67445e-07
3.16476e-07
3.0197e-07
2.79372e-07
2.79399e-07
2.67418e-07
2.67446e-07
2.79398e-07
2.6742e-07
2.67445e-07
3.16479e-07
3.01976e-07
2.79377e-07
2.67422e-07
2.67423e-07
3.01987e-07
3.0115e-07
2.89034e-07
2.63703e-07
2.63707e-07
2.53225e-07
2.5323e-07
3.01153e-07
2.89037e-07
2.6368e-07
2.63708e-07
2.53201e-07
2.53231e-07
2.63707e-07
2.53203e-07
2.5323e-07
3.01156e-07
2.89041e-07
2.63685e-07
2.53206e-07
2.53207e-07
2.89053e-07
2.88481e-07
2.78944e-07
2.4998e-07
2.49985e-07
2.40979e-07
2.40983e-07
2.88484e-07
2.78946e-07
2.49956e-07
2.49986e-07
2.40953e-07
2.40984e-07
2.49985e-07
2.40956e-07
2.40983e-07
2.88486e-07
2.78953e-07
2.49961e-07
2.40958e-07
2.40958e-07
2.78965e-07
2.78683e-07
2.71824e-07
2.38226e-07
2.38231e-07
2.307e-07
2.30705e-07
2.78686e-07
2.71827e-07
2.382e-07
2.38232e-07
2.30673e-07
2.30706e-07
2.3823e-07
2.30675e-07
2.30704e-07
2.7869e-07
2.71832e-07
2.38205e-07
2.30677e-07
2.30678e-07
2.71844e-07
2.71864e-07
2.67855e-07
2.28441e-07
2.28446e-07
2.22396e-07
2.22403e-07
2.71868e-07
2.67859e-07
2.28413e-07
2.28448e-07
2.22368e-07
2.22404e-07
2.28445e-07
2.22371e-07
2.22401e-07
2.7187e-07
2.67864e-07
2.28419e-07
2.22372e-07
2.22373e-07
2.67879e-07
2.68148e-07
2.66971e-07
2.20633e-07
2.2064e-07
2.16074e-07
2.16082e-07
2.68154e-07
2.66976e-07
2.20603e-07
2.20641e-07
2.16043e-07
2.16084e-07
2.20638e-07
2.16046e-07
2.16079e-07
2.68156e-07
2.66982e-07
2.20609e-07
2.16046e-07
2.16049e-07
2.66997e-07
2.67623e-07
2.69141e-07
2.1481e-07
2.14818e-07
2.11742e-07
2.11754e-07
2.6763e-07
2.69149e-07
2.14778e-07
2.1482e-07
2.11709e-07
2.11756e-07
2.14815e-07
2.11711e-07
2.11749e-07
2.67632e-07
2.69152e-07
2.14784e-07
2.11711e-07
2.11716e-07
2.69172e-07
2.70472e-07
2.74649e-07
2.10978e-07
2.10991e-07
2.09409e-07
2.09425e-07
2.7048e-07
2.74657e-07
2.10945e-07
2.10993e-07
2.09374e-07
2.09428e-07
2.10985e-07
2.09374e-07
2.09418e-07
2.70478e-07
2.74661e-07
2.10952e-07
2.09375e-07
2.09383e-07
2.74681e-07
2.76671e-07
2.83529e-07
2.09153e-07
2.0917e-07
2.09121e-07
2.09142e-07
2.76679e-07
2.83538e-07
2.09118e-07
2.09172e-07
2.09086e-07
2.09145e-07
2.09162e-07
2.09083e-07
2.09132e-07
2.76683e-07
2.83547e-07
2.09127e-07
2.09085e-07
2.09096e-07
2.83569e-07
2.86255e-07
2.95797e-07
2.09348e-07
2.09371e-07
2.10842e-07
2.10867e-07
2.86264e-07
2.95808e-07
2.09312e-07
2.09373e-07
2.10805e-07
2.10871e-07
2.09359e-07
2.10799e-07
2.10855e-07
2.86266e-07
2.95809e-07
2.09322e-07
2.10801e-07
2.10816e-07
2.95839e-07
2.99206e-07
3.11485e-07
2.11609e-07
2.11636e-07
2.14663e-07
2.14695e-07
2.99219e-07
3.11499e-07
2.1157e-07
2.11639e-07
2.14625e-07
2.14699e-07
2.11622e-07
2.14619e-07
2.14679e-07
2.99206e-07
3.11494e-07
2.11583e-07
2.14618e-07
2.14637e-07
3.11528e-07
3.15576e-07
3.30543e-07
2.15953e-07
2.15987e-07
2.20588e-07
2.20625e-07
3.15595e-07
3.30562e-07
2.15912e-07
2.15988e-07
2.20545e-07
2.20628e-07
2.15967e-07
2.20538e-07
2.20605e-07
3.15586e-07
3.30559e-07
2.15925e-07
2.20537e-07
2.2056e-07
3.30599e-07
3.35318e-07
2.22401e-07
2.22438e-07
3.35342e-07
2.22354e-07
2.22441e-07
2.22417e-07
3.35339e-07
2.22371e-07
5.35663e-07
5.35601e-07
5.35655e-07
5.35655e-07
5.34573e-07
5.35516e-07
5.33634e-07
5.35654e-07
5.34573e-07
5.35517e-07
5.35654e-07
5.33634e-07
5.35256e-07
5.35987e-07
5.35987e-07
1.10717e-06
3.88067e-06
9.33917e-07
4.60585e-06
1.26086e-05
1.66015e-05
1.10712e-06
3.8812e-06
9.3393e-07
4.60638e-06
4.95567e-07
4.95567e-07
4.95567e-07
4.57231e-07
4.57231e-07
4.57232e-07
4.57232e-07
5.43136e-07
1.22024e-06
4.95565e-07
4.85523e-07
5.25345e-07
1.20948e-06
4.82301e-07
1.26098e-05
1.6603e-05
5.43156e-07
4.95565e-07
1.22026e-06
4.85523e-07
5.25333e-07
4.82301e-07
1.2095e-06
2.52183e-06
2.52237e-06
4.84192e-07
2.37257e-06
2.3728e-06
1.43088e-06
5.59293e-06
1.32969e-06
6.13611e-06
2.12849e-05
2.31113e-05
1.43097e-06
5.59371e-06
1.3298e-06
6.1369e-06
4.45573e-07
4.45573e-07
4.45573e-07
4.13542e-07
4.13542e-07
4.13543e-07
4.13543e-07
5.87084e-07
1.1948e-06
4.46434e-07
4.44293e-07
5.73801e-07
1.20438e-06
4.3569e-07
2.1287e-05
2.31128e-05
5.87096e-07
4.46435e-07
1.19482e-06
4.44294e-07
5.73811e-07
4.35691e-07
1.20436e-06
2.31179e-06
2.31223e-06
4.53491e-07
2.35337e-06
2.3538e-06
1.66329e-06
6.91747e-06
1.59568e-06
7.31995e-06
2.46415e-05
2.49381e-05
1.6634e-06
6.91855e-06
1.59579e-06
7.32094e-06
4.03752e-07
4.03753e-07
4.03753e-07
3.76689e-07
3.76689e-07
3.7669e-07
3.76691e-07
6.15578e-07
1.24281e-06
4.06547e-07
4.10619e-07
6.08376e-07
1.26565e-06
3.97729e-07
2.46435e-05
2.49401e-05
6.15587e-07
4.06548e-07
1.24282e-06
4.10622e-07
6.08396e-07
3.9773e-07
1.26564e-06
2.47404e-06
2.47447e-06
4.30186e-07
2.53276e-06
2.53321e-06
1.81238e-06
7.8458e-06
1.77225e-06
8.09937e-06
2.47379e-05
2.44314e-05
1.81248e-06
7.84706e-06
1.77235e-06
8.10042e-06
3.68363e-07
3.68364e-07
3.68365e-07
3.45192e-07
3.45192e-07
3.45194e-07
3.45194e-07
6.26306e-07
1.31313e-06
3.73479e-07
3.81658e-07
6.2488e-07
1.33377e-06
3.66029e-07
2.47394e-05
2.44329e-05
6.26311e-07
3.7348e-07
1.31314e-06
3.81661e-07
6.24898e-07
3.66031e-07
1.33376e-06
2.63528e-06
2.63577e-06
4.08477e-07
2.67937e-06
2.67988e-06
1.8929e-06
8.39512e-06
1.87311e-06
8.52949e-06
2.36936e-05
2.32661e-05
1.893e-06
8.39638e-06
1.87321e-06
8.53056e-06
3.38015e-07
3.38016e-07
3.38017e-07
3.17911e-07
3.17912e-07
3.17914e-07
3.17914e-07
6.22126e-07
1.37212e-06
3.4524e-07
3.55924e-07
6.25449e-07
1.38718e-06
3.38765e-07
2.36948e-05
2.32671e-05
6.22128e-07
3.45242e-07
1.37212e-06
3.55927e-07
6.25462e-07
3.38767e-07
1.38717e-06
2.76353e-06
2.76408e-06
3.86843e-07
2.80534e-06
2.80593e-06
1.92995e-06
8.66291e-06
1.92173e-06
8.71882e-06
2.25026e-05
2.2121e-05
1.93005e-06
8.66408e-06
1.92182e-06
8.71992e-06
3.11646e-07
3.11648e-07
3.11649e-07
2.94e-07
2.94001e-07
2.94003e-07
2.94003e-07
6.08904e-07
1.41604e-06
3.20492e-07
3.32671e-07
6.15381e-07
1.42761e-06
3.14746e-07
2.25036e-05
2.21219e-05
6.08906e-07
3.20494e-07
1.41604e-06
3.32673e-07
6.15396e-07
3.14747e-07
1.42759e-06
2.89514e-06
2.89577e-06
3.65494e-07
2.94367e-06
2.94434e-06
1.94797e-06
8.75954e-06
1.94358e-06
8.77088e-06
2.14781e-05
2.11791e-05
1.94806e-06
8.7606e-06
1.94367e-06
8.77201e-06
2.88473e-07
2.88475e-07
2.88475e-07
2.72838e-07
2.72839e-07
2.72841e-07
2.72842e-07
5.9188e-07
1.45273e-06
2.9841e-07
3.1155e-07
5.99371e-07
1.46411e-06
2.93243e-07
2.1479e-05
2.11799e-05
5.91882e-07
2.98412e-07
1.45274e-06
3.11553e-07
5.99387e-07
2.93245e-07
1.46409e-06
3.04867e-06
3.04941e-06
3.45067e-07
3.10662e-06
3.1074e-06
1.96567e-06
8.76874e-06
1.95954e-06
8.76343e-06
2.06748e-05
2.04536e-05
1.96575e-06
8.76981e-06
1.95962e-06
8.76457e-06
2.67923e-07
2.67925e-07
2.67926e-07
2.53976e-07
2.53977e-07
2.53978e-07
2.53979e-07
5.75465e-07
1.49165e-06
2.78501e-07
2.92428e-07
5.82274e-07
1.50557e-06
2.73826e-07
2.06757e-05
2.04543e-05
5.75467e-07
2.78502e-07
1.49165e-06
2.9243e-07
5.8229e-07
2.73827e-07
1.50556e-06
3.22544e-06
3.22629e-06
3.26212e-07
3.29195e-06
3.29285e-06
1.9956e-06
8.74941e-06
1.9843e-06
8.74322e-06
2.00726e-05
1.99113e-05
1.99569e-06
8.75047e-06
1.98438e-06
8.74431e-06
2.4958e-07
2.49582e-07
2.49582e-07
2.37081e-07
2.37083e-07
2.37084e-07
2.37085e-07
5.62916e-07
1.53979e-06
2.60474e-07
2.75266e-07
5.67829e-07
1.55779e-06
2.5624e-07
2.00734e-05
1.99121e-05
5.62918e-07
2.60476e-07
1.53979e-06
2.75268e-07
5.67845e-07
2.56242e-07
1.55778e-06
3.42088e-06
3.42188e-06
3.09455e-07
3.49271e-06
3.49377e-06
2.04526e-06
8.73378e-06
2.02671e-06
8.73163e-06
1.96327e-05
1.95171e-05
2.04536e-06
8.73482e-06
2.02679e-06
8.73271e-06
2.33137e-07
2.33139e-07
2.33139e-07
2.2191e-07
2.21912e-07
2.21913e-07
2.21914e-07
5.56508e-07
1.60095e-06
2.44158e-07
2.60066e-07
5.58641e-07
1.62372e-06
2.40331e-07
1.96335e-05
1.95179e-05
5.56516e-07
2.44159e-07
1.60095e-06
2.60068e-07
5.58658e-07
2.40333e-07
1.62374e-06
3.62688e-06
3.62804e-06
2.95175e-07
3.70122e-06
3.70243e-06
2.11902e-06
8.73133e-06
2.09188e-06
8.73409e-06
1.93179e-05
1.92368e-05
2.11913e-06
8.73239e-06
2.09196e-06
8.73516e-06
2.18366e-07
2.18368e-07
2.18368e-07
2.08275e-07
2.08276e-07
2.08278e-07
2.08278e-07
5.57614e-07
1.67644e-06
2.29438e-07
2.46834e-07
5.56734e-07
1.70383e-06
2.25998e-07
1.93187e-05
1.92377e-05
5.5762e-07
2.2944e-07
1.67648e-06
2.46836e-07
5.5675e-07
2.25999e-07
1.70383e-06
3.83515e-06
3.83641e-06
2.83645e-07
3.90943e-06
3.9108e-06
2.21875e-06
8.74087e-06
2.18273e-06
8.74786e-06
1.90967e-05
1.90409e-05
2.21888e-06
8.74189e-06
2.1828e-06
8.74894e-06
2.0509e-07
2.05092e-07
2.05093e-07
1.96029e-07
1.9603e-07
1.96031e-07
1.96032e-07
5.6696e-07
1.76536e-06
2.16238e-07
2.35569e-07
5.63096e-07
1.79687e-06
2.13167e-07
1.90977e-05
1.90417e-05
5.66966e-07
2.16239e-07
1.76539e-06
2.35571e-07
5.63116e-07
2.13168e-07
1.79691e-06
4.03842e-06
4.03981e-06
2.75019e-07
4.10962e-06
4.11107e-06
2.34424e-06
8.75881e-06
2.29909e-06
8.76775e-06
1.89431e-05
1.89043e-05
2.34438e-06
8.75993e-06
2.29918e-06
8.76889e-06
1.93172e-07
1.93174e-07
1.93174e-07
1.85052e-07
1.85054e-07
1.85055e-07
1.85056e-07
5.85888e-07
1.86574e-06
2.04495e-07
2.26276e-07
5.78751e-07
1.90036e-06
2.0178e-07
1.89439e-05
1.89052e-05
5.85894e-07
2.04496e-07
1.86582e-06
2.26277e-07
5.78773e-07
2.01781e-07
1.90038e-06
4.2296e-06
4.23111e-06
2.69478e-07
4.29549e-06
4.29699e-06
2.49245e-06
8.77997e-06
2.43828e-06
8.78898e-06
1.88351e-05
1.8808e-05
2.49257e-06
8.78111e-06
2.43843e-06
8.79013e-06
1.82498e-07
1.825e-07
1.825e-07
1.75252e-07
1.75253e-07
1.75255e-07
1.75255e-07
6.14924e-07
1.97455e-06
1.94158e-07
2.1896e-07
6.04379e-07
2.01149e-06
1.91787e-07
1.88361e-05
1.88091e-05
6.1493e-07
1.94159e-07
1.97459e-06
2.18961e-07
6.04405e-07
1.91787e-07
2.01156e-06
4.40383e-06
4.40541e-06
2.67062e-07
4.46281e-06
4.46439e-06
2.65714e-06
8.80074e-06
2.59661e-06
8.80909e-06
1.87571e-05
1.87376e-05
2.65725e-06
8.80191e-06
2.59673e-06
8.81026e-06
1.72979e-07
1.72981e-07
1.72981e-07
1.6655e-07
1.66551e-07
1.66553e-07
1.66553e-07
6.54341e-07
2.08877e-06
1.85184e-07
2.13629e-07
6.40339e-07
2.1266e-06
1.83146e-07
1.87582e-05
1.87384e-05
6.54351e-07
1.85185e-07
2.08891e-06
2.1363e-07
6.40366e-07
1.83147e-07
2.12659e-06
4.5578e-06
4.55942e-06
2.67675e-07
4.60955e-06
4.61125e-06
2.83175e-06
8.81978e-06
2.76723e-06
8.82737e-06
1.86978e-05
1.86819e-05
2.83195e-06
8.82096e-06
2.76734e-06
8.82856e-06
1.64541e-07
1.64543e-07
1.64543e-07
1.5888e-07
1.58882e-07
1.58884e-07
1.58884e-07
7.04115e-07
2.20468e-06
1.77536e-07
2.10291e-07
6.8669e-07
2.24248e-06
1.75824e-07
1.86986e-05
1.86831e-05
7.04122e-07
1.77538e-07
2.20474e-06
2.10292e-07
6.86725e-07
1.75825e-07
2.24252e-06
4.69108e-06
4.69281e-06
2.71507e-07
4.73496e-06
4.73658e-06
3.00772e-06
8.83709e-06
2.9429e-06
8.84404e-06
1.86486e-05
1.86359e-05
3.00787e-06
8.83828e-06
2.94307e-06
8.84525e-06
1.57122e-07
1.57124e-07
1.57124e-07
1.52191e-07
1.52193e-07
1.52194e-07
1.52195e-07
7.63708e-07
2.31929e-06
1.71188e-07
2.08962e-07
7.43143e-07
2.35583e-06
1.69796e-07
1.86499e-05
1.86365e-05
7.6373e-07
1.71189e-07
2.31931e-06
2.08963e-07
7.43172e-07
1.69797e-07
2.35599e-06
4.8035e-06
4.80513e-06
2.787e-07
4.84001e-06
4.84172e-06
3.17711e-06
8.85302e-06
3.11488e-06
8.85948e-06
1.86064e-05
1.85945e-05
3.17723e-06
8.85426e-06
3.11505e-06
8.8608e-06
1.50668e-07
1.5067e-07
1.50671e-07
1.46432e-07
1.46434e-07
1.46436e-07
1.46437e-07
8.32173e-07
2.42951e-06
1.66122e-07
2.09673e-07
8.08796e-07
2.46444e-06
1.65047e-07
1.86071e-05
1.85954e-05
8.32192e-07
1.66123e-07
2.42977e-06
2.09673e-07
8.0884e-07
1.65048e-07
2.4644e-06
4.89716e-06
4.89889e-06
2.89274e-07
4.9271e-06
4.92874e-06
3.33294e-06
8.86807e-06
3.27598e-06
8.87431e-06
1.85677e-05
1.85567e-05
3.33309e-06
8.86934e-06
3.27617e-06
8.87554e-06
1.45137e-07
1.45139e-07
1.45139e-07
1.41569e-07
1.41572e-07
1.41574e-07
1.41575e-07
9.07966e-07
2.53368e-06
1.6233e-07
2.12448e-07
8.82368e-07
2.56602e-06
1.61569e-07
1.85683e-05
1.85579e-05
9.07981e-07
1.62331e-07
2.53376e-06
2.12448e-07
8.8242e-07
1.6157e-07
2.56605e-06
4.9741e-06
4.97575e-06
3.0326e-07
4.9987e-06
5.0004e-06
3.4703e-06
8.88241e-06
3.42052e-06
8.88832e-06
1.85316e-05
1.8522e-05
3.47061e-06
8.88368e-06
3.4206e-06
8.88958e-06
1.40492e-07
1.40494e-07
1.40494e-07
1.3757e-07
1.37573e-07
1.37576e-07
1.37576e-07
9.89148e-07
2.62999e-06
1.59812e-07
2.17315e-07
9.62015e-07
2.65941e-06
1.59365e-07
1.85327e-05
1.85227e-05
9.89174e-07
1.59813e-07
2.62998e-06
2.17314e-07
9.62058e-07
1.59366e-07
2.65959e-06
5.0375e-06
5.03919e-06
3.20648e-07
5.05691e-06
5.05855e-06
3.58677e-06
8.89598e-06
3.54535e-06
8.90157e-06
1.84982e-05
1.84888e-05
3.58724e-06
8.8972e-06
3.54513e-06
8.90274e-06
1.36704e-07
1.36706e-07
1.36707e-07
1.07347e-06
2.7176e-06
1.58576e-07
2.2429e-07
1.04557e-06
2.74402e-06
1.58443e-07
1.84995e-05
1.84899e-05
1.07351e-06
1.58578e-07
2.71769e-06
2.24292e-07
1.04562e-06
1.58446e-07
2.74418e-06
5.08928e-06
5.09098e-06
3.41373e-07
5.10455e-06
5.10618e-06
5.35257e-07
5.35989e-07
5.35987e-07
1.09158e-05
5.81316e-07
1.09173e-05
5.81318e-07
5.28206e-07
2.43163e-06
2.43198e-06
5.40832e-07
5.40828e-07
5.34573e-07
5.35517e-07
5.33634e-07
5.35654e-07
5.34573e-07
5.35517e-07
5.33634e-07
5.35654e-07
5.30398e-07
3.47218e-06
5.68205e-07
8.21169e-07
5.30398e-07
3.47235e-06
5.68203e-07
8.21202e-07
5.29522e-07
5.2838e-07
1.16695e-06
5.09601e-07
5.32663e-07
5.28352e-07
5.19213e-07
5.29522e-07
5.2838e-07
1.16695e-06
5.09601e-07
5.32663e-07
5.28352e-07
5.19213e-07
5.35256e-07
5.35988e-07
5.35987e-07
1.09166e-05
5.81317e-07
5.28206e-07
2.43181e-06
2.43194e-06
5.40829e-07
5.4083e-07
1.09169e-05
5.81323e-07
5.34573e-07
5.35517e-07
5.33634e-07
5.35654e-07
5.34573e-07
5.35517e-07
5.35654e-07
5.33634e-07
5.30398e-07
3.47254e-06
5.68202e-07
8.21177e-07
5.29522e-07
5.2838e-07
1.16721e-06
5.09601e-07
5.32663e-07
5.28352e-07
5.19218e-07
5.30398e-07
3.47256e-06
5.68202e-07
8.21101e-07
5.29522e-07
5.2838e-07
5.09601e-07
1.16708e-06
5.28352e-07
5.32663e-07
5.19212e-07
5.35663e-07
5.35601e-07
5.35655e-07
5.35655e-07
5.35663e-07
5.35601e-07
5.35655e-07
5.35655e-07
5.35663e-07
5.35601e-07
5.35655e-07
5.35655e-07
5.28434e-07
5.28376e-07
5.09725e-07
5.09725e-07
5.28408e-07
5.28408e-07
5.09782e-07
5.28434e-07
5.28375e-07
5.09725e-07
5.09725e-07
5.28408e-07
5.28408e-07
5.09782e-07
5.28434e-07
5.28375e-07
5.09725e-07
5.09725e-07
5.28408e-07
5.28408e-07
5.09782e-07
5.28434e-07
5.28375e-07
5.09725e-07
5.09725e-07
5.28408e-07
5.28408e-07
5.09782e-07
5.34573e-07
5.35517e-07
5.35654e-07
5.33634e-07
5.29522e-07
5.2838e-07
1.16707e-06
5.09601e-07
5.32663e-07
5.28352e-07
5.19215e-07
5.30398e-07
3.47243e-06
5.68202e-07
8.21094e-07
5.29522e-07
5.2838e-07
5.09601e-07
1.16704e-06
5.28352e-07
5.32663e-07
5.1921e-07
5.30398e-07
3.4725e-06
5.68201e-07
8.21097e-07
5.35256e-07
5.35987e-07
5.35987e-07
1.09175e-05
5.81323e-07
5.28206e-07
2.43199e-06
2.43188e-06
5.40828e-07
5.40829e-07
1.0917e-05
5.81319e-07
5.34573e-07
5.35517e-07
5.35655e-07
5.33633e-07
5.29522e-07
5.2838e-07
5.09601e-07
1.16715e-06
5.28352e-07
5.32663e-07
5.19219e-07
5.29522e-07
5.2838e-07
5.09601e-07
1.1671e-06
5.28352e-07
5.32663e-07
5.19218e-07
5.30398e-07
3.4724e-06
5.68201e-07
8.21225e-07
5.30398e-07
3.47263e-06
5.68202e-07
8.21178e-07
5.28206e-07
2.4318e-06
2.43216e-06
5.40828e-07
5.40828e-07
1.09172e-05
5.81321e-07
1.09176e-05
5.81324e-07
1.26074e-05
1.65997e-05
1.26095e-05
1.66023e-05
2.52169e-06
2.52236e-06
4.84188e-07
2.37225e-06
2.37293e-06
2.05291e-05
1.76841e-05
2.05327e-05
1.76878e-05
4.793e-07
2.30596e-06
2.30667e-06
2.33909e-06
2.33979e-06
1.10722e-06
3.88109e-06
9.33766e-07
4.60647e-06
5.43132e-07
1.22015e-06
4.95565e-07
4.85525e-07
5.2535e-07
1.20941e-06
4.82301e-07
5.43135e-07
1.22028e-06
4.95565e-07
4.85531e-07
5.25345e-07
1.20959e-06
4.82302e-07
1.16096e-06
5.40782e-06
4.80983e-06
1.28044e-06
1.16095e-06
5.4085e-06
4.81068e-06
1.28059e-06
5.50995e-07
4.74299e-07
1.1932e-06
4.57763e-07
1.20471e-06
4.6971e-07
5.66389e-07
5.50998e-07
4.74307e-07
1.19339e-06
4.57764e-07
1.20489e-06
4.69711e-07
5.664e-07
2.52216e-06
2.52212e-06
4.84189e-07
2.37256e-06
2.37267e-06
1.2609e-05
1.66012e-05
2.05317e-05
1.7687e-05
4.793e-07
2.30646e-06
2.30626e-06
2.33962e-06
2.33916e-06
2.05306e-05
1.76861e-05
5.43148e-07
1.22042e-06
4.95565e-07
4.8553e-07
5.25352e-07
1.20967e-06
4.82302e-07
1.10722e-06
3.88144e-06
9.33825e-07
4.60667e-06
5.43143e-07
4.95565e-07
1.22036e-06
4.85533e-07
5.25343e-07
4.82302e-07
1.20965e-06
1.16122e-06
5.40852e-06
4.81057e-06
1.28052e-06
5.51005e-07
4.74304e-07
1.19342e-06
4.57763e-07
1.20496e-06
4.6971e-07
5.66407e-07
1.1611e-06
5.40896e-06
4.8111e-06
1.28047e-06
5.51008e-07
4.74307e-07
4.57764e-07
1.19343e-06
4.69711e-07
1.20497e-06
5.66407e-07
1.1071e-06
3.88107e-06
9.33967e-07
4.6061e-06
5.4313e-07
4.95565e-07
1.22027e-06
4.85526e-07
5.25338e-07
4.82302e-07
1.20954e-06
1.10712e-06
3.88109e-06
9.3378e-07
4.60666e-06
5.51002e-07
4.74297e-07
1.19323e-06
4.57762e-07
1.20469e-06
4.6971e-07
5.66401e-07
1.16121e-06
5.40811e-06
4.81031e-06
1.28051e-06
5.51001e-07
4.74301e-07
4.57763e-07
1.19328e-06
4.69711e-07
1.20473e-06
5.664e-07
1.16109e-06
5.40873e-06
4.81055e-06
1.2805e-06
2.52222e-06
2.52185e-06
4.8419e-07
2.37276e-06
2.37242e-06
1.26089e-05
1.6601e-05
2.05338e-05
1.76884e-05
4.79301e-07
2.30677e-06
2.30633e-06
2.33996e-06
2.33945e-06
2.05315e-05
1.76862e-05
5.43151e-07
4.95565e-07
1.22039e-06
4.8553e-07
5.25336e-07
4.82302e-07
1.20962e-06
1.10725e-06
3.88103e-06
9.33828e-07
4.606e-06
1.10731e-06
3.88134e-06
9.33823e-07
4.60688e-06
5.50997e-07
4.74298e-07
4.57763e-07
1.19326e-06
4.69711e-07
1.20478e-06
5.66412e-07
5.51013e-07
4.74305e-07
4.57763e-07
1.19342e-06
4.69711e-07
1.20493e-06
5.66419e-07
1.16109e-06
5.40825e-06
4.81028e-06
1.28067e-06
1.16108e-06
5.4091e-06
4.81099e-06
1.2806e-06
1.26091e-05
1.66019e-05
1.26098e-05
1.6603e-05
4.79301e-07
2.30629e-06
2.30668e-06
2.33925e-06
2.33992e-06
2.05318e-05
1.76867e-05
2.05335e-05
1.76886e-05
2.12817e-05
2.31081e-05
2.12859e-05
2.3112e-05
2.31147e-06
2.31223e-06
4.53481e-07
2.35293e-06
2.35357e-06
2.44698e-05
2.35329e-05
2.44736e-05
2.35372e-05
4.50881e-07
2.44242e-06
2.44311e-06
2.38112e-06
2.38175e-06
1.43112e-06
5.59381e-06
1.32963e-06
6.1369e-06
5.87075e-07
1.1948e-06
4.46434e-07
4.44297e-07
5.73791e-07
1.20432e-06
4.35691e-07
5.87085e-07
1.19496e-06
4.46435e-07
4.44306e-07
5.73802e-07
1.20455e-06
4.35692e-07
1.47473e-06
6.77786e-06
6.30057e-06
1.55784e-06
1.47459e-06
6.77865e-06
6.30154e-06
1.55783e-06
5.93316e-07
4.35314e-07
1.23129e-06
4.15788e-07
1.21238e-06
4.25488e-07
6.0361e-07
5.93327e-07
4.35324e-07
1.23149e-06
4.15789e-07
1.21256e-06
4.25491e-07
6.0362e-07
2.312e-06
2.31176e-06
4.53483e-07
2.35361e-06
2.35329e-06
2.12837e-05
2.31101e-05
2.44726e-05
2.35365e-05
4.50883e-07
2.44307e-06
2.44258e-06
2.38167e-06
2.38123e-06
2.44713e-05
2.35353e-05
5.87094e-07
1.19497e-06
4.46435e-07
4.443e-07
5.73814e-07
1.20452e-06
4.35691e-07
1.43067e-06
5.59429e-06
1.32983e-06
6.1374e-06
5.87104e-07
4.46436e-07
1.195e-06
4.44308e-07
5.73819e-07
4.35693e-07
1.20454e-06
1.47483e-06
6.77877e-06
6.30155e-06
1.55793e-06
5.93341e-07
4.35317e-07
1.23146e-06
4.15789e-07
1.21254e-06
4.2549e-07
6.03631e-07
1.47518e-06
6.77926e-06
6.30209e-06
1.55774e-06
5.9335e-07
4.35326e-07
4.1579e-07
1.23147e-06
4.25492e-07
1.21261e-06
6.03635e-07
1.43095e-06
5.59339e-06
1.32978e-06
6.13654e-06
5.87091e-07
4.46435e-07
1.19485e-06
4.44301e-07
5.73806e-07
4.35692e-07
1.20443e-06
1.43097e-06
5.59379e-06
1.32976e-06
6.13709e-06
5.9333e-07
4.35309e-07
1.2313e-06
4.15787e-07
1.21237e-06
4.25489e-07
6.03621e-07
1.4748e-06
6.77832e-06
6.30115e-06
1.55791e-06
5.93334e-07
4.35318e-07
4.15789e-07
1.23135e-06
4.2549e-07
1.21242e-06
6.03628e-07
1.47481e-06
6.77883e-06
6.30169e-06
1.55793e-06
2.31231e-06
2.31185e-06
4.53486e-07
2.35372e-06
2.35318e-06
2.12845e-05
2.31107e-05
2.44743e-05
2.35388e-05
4.50885e-07
2.44316e-06
2.44265e-06
2.38207e-06
2.38132e-06
2.44724e-05
2.35359e-05
5.87107e-07
4.46436e-07
1.19498e-06
4.44303e-07
5.7382e-07
4.35692e-07
1.20457e-06
1.43101e-06
5.59345e-06
1.32967e-06
6.13658e-06
1.43092e-06
5.59425e-06
1.32972e-06
6.13756e-06
5.93341e-07
4.35311e-07
4.15788e-07
1.23131e-06
4.2549e-07
1.2124e-06
6.03633e-07
5.9335e-07
4.35319e-07
4.1579e-07
1.2315e-06
4.25491e-07
1.21256e-06
6.03645e-07
1.47485e-06
6.77858e-06
6.30129e-06
1.55795e-06
1.47491e-06
6.77936e-06
6.30218e-06
1.558e-06
2.12848e-05
2.31115e-05
2.12867e-05
2.31134e-05
4.50886e-07
2.44278e-06
2.4432e-06
2.3814e-06
2.38181e-06
2.44727e-05
2.35365e-05
2.44746e-05
2.35386e-05
2.46383e-05
2.49352e-05
2.46424e-05
2.49388e-05
2.47375e-06
2.47437e-06
4.30171e-07
2.5324e-06
2.53309e-06
2.48368e-05
2.49371e-05
2.48401e-05
2.49406e-05
4.28472e-07
2.61081e-06
2.61148e-06
2.56058e-06
2.56119e-06
1.66331e-06
6.91843e-06
1.59569e-06
7.32076e-06
6.1556e-07
1.24282e-06
4.06546e-07
4.10627e-07
6.0837e-07
1.26564e-06
3.9773e-07
6.15567e-07
1.24301e-06
4.06549e-07
4.10636e-07
6.0838e-07
1.26586e-06
3.97732e-07
1.69453e-06
7.75895e-06
7.43299e-06
1.74777e-06
1.69455e-06
7.75975e-06
7.43397e-06
1.74779e-06
6.18835e-07
4.03021e-07
1.30099e-06
3.81228e-07
1.27825e-06
3.89299e-07
6.23017e-07
6.18842e-07
4.0303e-07
1.30122e-06
3.81229e-07
1.27846e-06
3.89302e-07
6.23022e-07
2.47436e-06
2.47383e-06
4.30172e-07
2.53315e-06
2.53253e-06
2.46402e-05
2.49367e-05
2.48396e-05
2.49399e-05
4.28475e-07
2.6115e-06
2.6109e-06
2.56111e-06
2.56062e-06
2.48381e-05
2.49386e-05
6.15588e-07
1.24297e-06
4.06548e-07
4.10625e-07
6.08393e-07
1.26581e-06
3.97731e-07
1.66339e-06
6.91905e-06
1.59596e-06
7.32144e-06
6.15597e-07
4.0655e-07
1.24305e-06
4.10639e-07
6.084e-07
3.97733e-07
1.26585e-06
1.69464e-06
7.76e-06
7.43417e-06
1.74788e-06
6.18862e-07
4.03018e-07
1.30116e-06
3.81229e-07
1.27841e-06
3.89302e-07
6.23045e-07
1.69474e-06
7.76046e-06
7.43466e-06
1.74784e-06
6.1886e-07
4.03033e-07
3.8123e-07
1.3012e-06
3.89304e-07
1.27846e-06
6.23053e-07
1.66337e-06
6.91808e-06
1.59574e-06
7.32045e-06
6.15583e-07
4.06548e-07
1.24286e-06
4.10632e-07
6.08382e-07
3.97731e-07
1.2657e-06
1.66338e-06
6.9186e-06
1.59576e-06
7.32094e-06
6.18841e-07
4.03012e-07
1.30101e-06
3.81227e-07
1.27825e-06
3.893e-07
6.23035e-07
1.6946e-06
7.75948e-06
7.43367e-06
1.74785e-06
6.18844e-07
4.03026e-07
3.81229e-07
1.30105e-06
3.89302e-07
1.27831e-06
6.23039e-07
1.69461e-06
7.75993e-06
7.43414e-06
1.74786e-06
2.47471e-06
2.47393e-06
4.30178e-07
2.53331e-06
2.53263e-06
2.46411e-05
2.49377e-05
2.48413e-05
2.49419e-05
4.28478e-07
2.6117e-06
2.611e-06
2.56141e-06
2.56072e-06
2.48391e-05
2.49396e-05
6.15594e-07
4.0655e-07
1.24301e-06
4.10629e-07
6.08404e-07
3.97732e-07
1.26586e-06
1.66341e-06
6.91829e-06
1.5958e-06
7.32075e-06
1.66344e-06
6.91915e-06
1.59584e-06
7.32151e-06
6.1886e-07
4.03013e-07
3.81228e-07
1.301e-06
3.89301e-07
1.27826e-06
6.23043e-07
6.18869e-07
4.03022e-07
3.81229e-07
1.30122e-06
3.89304e-07
1.27846e-06
6.2305e-07
1.69464e-06
7.75981e-06
7.43389e-06
1.74788e-06
1.69467e-06
7.76053e-06
7.43473e-06
1.7479e-06
2.46415e-05
2.4938e-05
2.46434e-05
2.49398e-05
4.28482e-07
2.61114e-06
2.61162e-06
2.56086e-06
2.56132e-06
2.48394e-05
2.49399e-05
2.4841e-05
2.49416e-05
2.47344e-05
2.44298e-05
2.47381e-05
2.44318e-05
2.63501e-06
2.63562e-06
4.08461e-07
2.67908e-06
2.67973e-06
2.38697e-05
2.427e-05
2.38712e-05
2.42734e-05
4.06871e-07
2.74213e-06
2.74279e-06
2.70094e-06
2.70152e-06
1.8124e-06
7.8468e-06
1.77227e-06
8.10008e-06
6.26284e-07
1.31313e-06
3.73478e-07
3.81669e-07
6.24874e-07
1.33376e-06
3.6603e-07
6.26289e-07
1.31334e-06
3.73481e-07
3.81678e-07
6.24879e-07
1.33399e-06
3.66032e-07
1.83083e-06
8.35166e-06
8.16273e-06
1.85972e-06
1.83085e-06
8.35229e-06
8.16363e-06
1.85974e-06
6.26728e-07
3.74973e-07
1.3625e-06
3.51931e-07
1.34472e-06
3.58853e-07
6.25634e-07
6.26732e-07
3.74981e-07
1.36273e-06
3.51933e-07
1.34494e-06
3.58856e-07
6.25637e-07
2.63565e-06
2.63504e-06
4.08462e-07
2.67979e-06
2.67913e-06
2.47364e-05
2.443e-05
2.3871e-05
2.42733e-05
4.06873e-07
2.74284e-06
2.74218e-06
2.70162e-06
2.70092e-06
2.38696e-05
2.42718e-05
6.26312e-07
1.31329e-06
3.73481e-07
3.81662e-07
6.24901e-07
1.33393e-06
3.66031e-07
1.81243e-06
7.8475e-06
1.77243e-06
8.10083e-06
6.2632e-07
3.73483e-07
1.31334e-06
3.81681e-07
6.24897e-07
3.66033e-07
1.33397e-06
1.83093e-06
8.35272e-06
8.164e-06
1.85982e-06
6.26755e-07
3.74964e-07
1.36268e-06
3.51932e-07
1.34489e-06
3.58855e-07
6.25661e-07
1.831e-06
8.35307e-06
8.16437e-06
1.85975e-06
6.26753e-07
3.74984e-07
3.51934e-07
1.36272e-06
3.58858e-07
1.34493e-06
6.25668e-07
1.81245e-06
7.84654e-06
1.77231e-06
8.09988e-06
6.26308e-07
3.73481e-07
1.31319e-06
3.81675e-07
6.24881e-07
3.66031e-07
1.33381e-06
1.81246e-06
7.84695e-06
1.77232e-06
8.10028e-06
6.26739e-07
3.74961e-07
1.36252e-06
3.5193e-07
1.34472e-06
3.58854e-07
6.25659e-07
1.83089e-06
8.35214e-06
8.16347e-06
1.85979e-06
6.26739e-07
3.74979e-07
3.51932e-07
1.36256e-06
3.58856e-07
1.34478e-06
6.2566e-07
1.8309e-06
8.35251e-06
8.16382e-06
1.85979e-06
2.63584e-06
2.63513e-06
4.08469e-07
2.67994e-06
2.67922e-06
2.47371e-05
2.4431e-05
2.38723e-05
2.42746e-05
4.06877e-07
2.74301e-06
2.74225e-06
2.70174e-06
2.70101e-06
2.38705e-05
2.42725e-05
6.26316e-07
3.73483e-07
1.31335e-06
3.81667e-07
6.24905e-07
3.66032e-07
1.33399e-06
1.81248e-06
7.84676e-06
1.77235e-06
8.10023e-06
1.81249e-06
7.84755e-06
1.77237e-06
8.10088e-06
6.26753e-07
3.74963e-07
3.51932e-07
1.36251e-06
3.58855e-07
1.34472e-06
6.2566e-07
6.26758e-07
3.7497e-07
3.51933e-07
1.36274e-06
3.58858e-07
1.34495e-06
6.25664e-07
1.83093e-06
8.35252e-06
8.16369e-06
1.85982e-06
1.83094e-06
8.3531e-06
8.16442e-06
1.85982e-06
2.47375e-05
2.44313e-05
2.47391e-05
2.44327e-05
4.06884e-07
2.7424e-06
2.74295e-06
2.70117e-06
2.70168e-06
2.38709e-05
2.42729e-05
2.38721e-05
2.42743e-05
2.36904e-05
2.32649e-05
2.36937e-05
2.32661e-05
2.76338e-06
2.7639e-06
3.86827e-07
2.80499e-06
2.8057e-06
2.26719e-05
2.30842e-05
2.2673e-05
2.30873e-05
3.85283e-07
2.87136e-06
2.87216e-06
2.82702e-06
2.82759e-06
1.89291e-06
8.39592e-06
1.87313e-06
8.53005e-06
6.22103e-07
1.37211e-06
3.45239e-07
3.55939e-07
6.25438e-07
1.38716e-06
3.38766e-07
6.22105e-07
1.37234e-06
3.45242e-07
3.55946e-07
6.25442e-07
1.38739e-06
3.38768e-07
1.9023e-06
8.64732e-06
8.55701e-06
1.91522e-06
1.90232e-06
8.6478e-06
8.55771e-06
1.91524e-06
6.21488e-07
3.49912e-07
1.40847e-06