/*--------------------------------*- C++ -*----------------------------------*\
| =========                 |                                                 |
| \\      /  F ield         | OpenFOAM: The Open Source CFD Toolbox           |
|  \\    /   O peration     | Version:  v2006                                 |
|   \\  /    A nd           | Website:  www.openfoam.com                      |
|    \\/     M anipulation  |                                                 |
\*---------------------------------------------------------------------------*/
FoamFile
{
    version     2.0;
    format      ascii;
    class       surfaceScalarField;
    location    "375";
    object      phi;
}
// * * * * * * * * * * * * * * * * * * * * * * * * * * * * * * * * * * * * * //

dimensions      [0 3 -1 0 0 0 0];
oriented        oriented;


internalField   nonuniform List<scalar> 
124908
(
-0.00104223
-1.45853e-05
-1.44545e-05
9.30208e-06
9.17292e-06
0.00105279
-0.00026145
-5.64161e-06
1.44815e-05
6.83424e-06
0.00105937
-4.53257e-06
-1.62224e-06
-2.21533e-06
-2.5781e-06
-6.5915e-06
-7.04684e-06
-3.1663e-06
-0.000263298
-0.000259722
-0.000262822
-0.00026145
-5.64168e-06
1.44963e-05
6.86599e-06
0.00105933
-4.53279e-06
-1.62737e-06
-2.21807e-06
-2.58064e-06
-6.59142e-06
-7.04688e-06
-3.16625e-06
-0.00025972
-0.000263298
-0.000262822
-0.000260559
5.61725e-06
5.65981e-06
-4.88072e-06
-4.8719e-06
0.000259035
-1.62176e-06
-1.62825e-06
-0.00106082
8.98315e-07
8.9409e-07
0.00106228
-0.0010626
-1.60653e-06
1.63333e-06
8.17944e-07
0.00106389
-6.53793e-07
7.84507e-07
-1.4812e-07
3.75338e-07
-8.03455e-07
-1.39759e-06
-2.90637e-07
-0.00106252
-1.60413e-06
1.63376e-06
8.28708e-07
0.0010638
-6.53989e-07
7.81636e-07
-1.48294e-07
3.72749e-07
-8.03391e-07
-1.39491e-06
-2.90564e-07
-0.000261521
1.63672e-06
1.59916e-06
-7.08221e-07
-7.16444e-07
0.000259709
-1.36145e-06
-1.36753e-06
-0.00106647
6.87333e-07
6.83182e-07
0.00106783
-0.00106783
-1.55708e-06
1.3674e-06
6.90441e-07
0.00106918
-6.24517e-07
8.38543e-07
-1.06566e-07
4.2707e-07
-7.80516e-07
-1.35735e-06
-2.42694e-07
-0.00106774
-1.55711e-06
1.36761e-06
6.90471e-07
0.00106909
-6.24491e-07
8.35814e-07
-1.04157e-07
4.24469e-07
-7.80453e-07
-1.35469e-06
-2.42618e-07
-0.00026275
1.58727e-06
1.54949e-06
-6.74939e-07
-6.80552e-07
0.000260969
-1.34139e-06
-1.34214e-06
-0.00107194
6.64332e-07
6.65456e-07
0.00107329
-0.00107319
-1.55551e-06
1.34199e-06
6.67295e-07
0.00107451
-6.17297e-07
8.63695e-07
-8.40728e-08
4.38256e-07
-7.79469e-07
-1.36942e-06
-2.20298e-07
-0.0010731
-1.55288e-06
1.34212e-06
6.67413e-07
0.00107441
-6.19995e-07
8.61015e-07
-8.16426e-08
4.38279e-07
-7.79434e-07
-1.36667e-06
-2.17721e-07
-0.000264031
1.58319e-06
1.54257e-06
-6.59469e-07
-6.70211e-07
0.000262235
-1.29632e-06
-1.29702e-06
-0.00107729
6.42214e-07
6.43343e-07
0.00107859
-0.00107837
-1.54729e-06
1.29684e-06
6.34024e-07
0.00107963
-6.04581e-07
8.91632e-07
-5.85182e-08
4.60188e-07
-7.68294e-07
-1.37202e-06
-1.89019e-07
-0.00107828
-1.54465e-06
1.29692e-06
6.34175e-07
0.00107954
-6.07317e-07
8.88977e-07
-5.6046e-08
4.57445e-07
-7.68255e-07
-1.36922e-06
-1.88969e-07
-0.00026525
1.5751e-06
1.53427e-06
-6.4232e-07
-6.53083e-07
0.000263436
-1.2488e-06
-1.24933e-06
-0.00108244
6.2032e-07
6.21487e-07
0.0010837
-0.00108331
-1.5388e-06
1.24922e-06
6.04348e-07
0.0010845
-5.9201e-07
9.17086e-07
-3.65064e-08
4.84483e-07
-7.54084e-07
-1.36958e-06
-1.58438e-07
-0.00108321
-1.53612e-06
1.24927e-06
6.04492e-07
0.00108441
-5.94703e-07
9.14488e-07
-3.39649e-08
4.81677e-07
-7.54066e-07
-1.36678e-06
-1.58418e-07
-0.000266395
1.56676e-06
1.52574e-06
-6.25183e-07
-6.35974e-07
0.000264564
-1.20473e-06
-1.20506e-06
-0.00108739
6.00758e-07
6.0196e-07
0.0010886
-0.00108799
-1.53227e-06
1.205e-06
5.80581e-07
0.00108913
-5.82506e-07
9.39743e-07
-1.82376e-08
5.09191e-07
-7.40298e-07
-1.36537e-06
-1.30466e-07
-0.0010879
-1.52954e-06
1.20506e-06
5.8075e-07
0.00108903
-5.8514e-07
9.37108e-07
-1.5868e-08
5.06463e-07
-7.40283e-07
-1.3626e-06
-1.30408e-07
-0.000267467
1.5603e-06
1.5191e-06
-6.10541e-07
-6.21389e-07
0.000265619
-1.16595e-06
-1.16681e-06
-0.00109215
5.84315e-07
5.85507e-07
0.00109331
-0.00109244
-1.52784e-06
1.16672e-06
5.62621e-07
0.00109352
-5.75955e-07
9.59771e-07
-3.69402e-09
5.33229e-07
-7.28146e-07
-1.36134e-06
-1.0561e-07
-0.00109235
-1.52525e-06
1.16665e-06
5.62693e-07
0.00109343
-5.79014e-07
9.57278e-07
-1.6225e-09
5.3058e-07
-7.28021e-07
-1.35848e-06
-1.05548e-07
-0.00026847
1.55612e-06
1.51462e-06
-5.98637e-07
-6.09603e-07
0.000266607
-1.13224e-06
-1.13337e-06
-0.00109674
5.70387e-07
5.7115e-07
0.00109787
-0.00109669
-1.52669e-06
1.1333e-06
5.48946e-07
0.00109772
-5.73054e-07
9.7656e-07
1.28591e-08
5.55971e-07
-7.17598e-07
-1.35801e-06
-8.38867e-08
-0.0010966
-1.52411e-06
1.13306e-06
5.48972e-07
0.00109763
-5.76315e-07
9.74061e-07
1.63799e-08
5.53239e-07
-7.17523e-07
-1.35521e-06
-8.39057e-08
-0.000269409
1.55487e-06
1.51329e-06
-5.90708e-07
-6.01418e-07
0.000267533
-1.10372e-06
-1.10459e-06
-0.00110118
5.58681e-07
5.59421e-07
0.00110227
-0.00110074
-1.52698e-06
1.10463e-06
5.383e-07
0.00110173
-5.70953e-07
9.91473e-07
2.67489e-08
5.77258e-07
-7.08303e-07
-1.35549e-06
-6.49756e-08
-0.00110065
-1.52445e-06
1.10451e-06
5.38469e-07
0.00110164
-5.74431e-07
9.88956e-07
2.98837e-08
5.74646e-07
-7.08189e-07
-1.3527e-06
-6.49302e-08
-0.000270291
1.55533e-06
1.51357e-06
-5.84185e-07
-5.95025e-07
0.000268401
-1.07871e-06
-1.07951e-06
-0.0011055
5.48723e-07
5.49479e-07
0.00110656
-0.00110463
-1.52799e-06
1.07941e-06
5.28824e-07
0.00110558
-5.69729e-07
1.00595e-06
4.03059e-08
5.97132e-07
-6.99069e-07
-1.35265e-06
-4.89412e-08
-0.00110454
-1.52515e-06
1.07936e-06
5.29051e-07
0.00110548
-5.71912e-07
1.00307e-06
4.29769e-08
5.94126e-07
-6.99334e-07
-1.35022e-06
-4.90591e-08
-0.000271118
1.55668e-06
1.51476e-06
-5.78862e-07
-5.89669e-07
0.000269215
-1.05582e-06
-1.0565e-06
-0.0011097
5.39575e-07
5.40386e-07
0.00111073
-0.00110836
-1.52963e-06
1.05672e-06
5.20044e-07
0.00110927
-5.69393e-07
1.01947e-06
5.12667e-08
6.15835e-07
-6.89126e-07
-1.34912e-06
-3.48502e-08
-0.00110827
-1.52704e-06
1.05652e-06
5.20099e-07
0.00110917
-5.73198e-07
1.01706e-06
5.45576e-08
6.13253e-07
-6.88791e-07
-1.34604e-06
-3.47493e-08
-0.000271895
1.55801e-06
1.51594e-06
-5.73403e-07
-5.84312e-07
0.000269978
-1.03431e-06
-1.03484e-06
-0.00111379
5.30841e-07
5.31682e-07
0.00111479
-0.00111194
-1.53097e-06
1.0347e-06
5.10239e-07
0.00111281
-5.68632e-07
1.03343e-06
6.369e-08
6.32928e-07
-6.77651e-07
-1.34409e-06
-2.279e-08
-0.00111184
-1.52811e-06
1.03447e-06
5.10246e-07
0.00111271
-5.7126e-07
1.03083e-06
6.67848e-08
6.30121e-07
-6.77752e-07
-1.3414e-06
-2.28104e-08
-0.000272617
1.55996e-06
1.51772e-06
-5.69453e-07
-5.80598e-07
0.000270689
-1.01368e-06
-1.0142e-06
-0.00111778
5.22291e-07
5.23178e-07
0.00111876
-0.00111537
-1.53325e-06
1.01442e-06
5.00914e-07
0.0011162
-5.68058e-07
1.04582e-06
7.02218e-08
6.49338e-07
-6.65054e-07
-1.3381e-06
-1.14301e-08
-0.00111527
-1.53026e-06
1.01444e-06
5.01336e-07
0.00111611
-5.70422e-07
1.04284e-06
7.21157e-08
6.46365e-07
-6.65417e-07
-1.33568e-06
-1.15227e-08
-0.000273286
1.56137e-06
1.51903e-06
-5.64456e-07
-5.75239e-07
0.000271346
-9.92494e-07
-9.9303e-07
-0.00112167
5.13327e-07
5.14211e-07
0.00112263
-0.00111864
-1.53286e-06
9.9322e-07
4.90093e-07
0.00111943
-5.61203e-07
1.05859e-06
8.3144e-08
6.64921e-07
-6.51425e-07
-1.33062e-06
-1.52065e-09
-0.00111855
-1.52997e-06
9.92418e-07
4.89303e-07
0.00111934
-5.6452e-07
1.05676e-06
8.54872e-08
6.595e-07
-6.50761e-07
-1.32718e-06
-3.48028e-09
-0.000273901
1.56196e-06
1.51971e-06
-5.57259e-07
-5.67909e-07
0.000271944
-9.71739e-07
-9.72177e-07
-0.00112547
5.04317e-07
5.05113e-07
0.0011264
-0.00112177
-1.53357e-06
9.72028e-07
4.7792e-07
0.00112252
-5.61625e-07
1.07108e-06
9.00001e-08
6.78227e-07
-6.35528e-07
-1.32097e-06
1.14003e-08
-0.00112167
-1.53022e-06
9.72229e-07
4.78479e-07
0.00112243
-5.58955e-07
1.06768e-06
8.93226e-08
6.7177e-07
-6.36625e-07
-1.31917e-06
7.44585e-09
-0.000274457
1.5622e-06
1.51973e-06
-5.50194e-07
-5.61216e-07
0.000272487
-9.49724e-07
-9.50152e-07
-0.00112917
4.94381e-07
4.95201e-07
0.00113008
-0.00112473
-1.53138e-06
9.50332e-07
4.65625e-07
0.00112544
-5.50366e-07
1.08267e-06
9.94236e-08
6.87123e-07
-6.2057e-07
-1.31111e-06
1.94899e-08
-0.00112464
-1.52971e-06
9.50719e-07
4.66371e-07
0.00112536
-5.53923e-07
1.07962e-06
9.70178e-08
6.82962e-07
-6.19629e-07
-1.30795e-06
1.79708e-08
-0.000274952
1.56095e-06
1.51842e-06
-5.41072e-07
-5.51831e-07
0.000272965
-9.29021e-07
-9.29373e-07
-0.00113278
4.84656e-07
4.80014e-07
0.00113367
-0.00112753
-1.53052e-06
9.29451e-07
4.56029e-07
0.0011282
-5.44224e-07
1.09218e-06
1.02335e-07
6.97397e-07
-6.03522e-07
-1.29966e-06
2.95451e-08
-0.00112744
-1.52724e-06
9.2825e-07
4.54797e-07
0.00112811
-5.42896e-07
1.09066e-06
1.06329e-07
6.91455e-07
-6.03065e-07
-1.29612e-06
2.56115e-08
-0.000275381
1.55949e-06
1.51682e-06
-5.32708e-07
-5.43694e-07
0.000273381
-9.06853e-07
-9.07279e-07
-0.0011363
4.74474e-07
4.75253e-07
0.00113716
-0.00113016
-1.52757e-06
9.07333e-07
4.44661e-07
0.00113079
-5.34071e-07
1.10252e-06
1.10829e-07
7.05908e-07
-5.88515e-07
-1.2882e-06
3.68157e-08
-0.00113007
-1.52399e-06
9.07388e-07
4.44767e-07
0.0011307
-5.317e-07
1.09968e-06
1.10607e-07
6.99409e-07
-5.86787e-07
-1.28367e-06
3.32895e-08
-0.000275742
1.55604e-06
1.51329e-06
-5.21704e-07
-5.32548e-07
0.000273727
-8.85808e-07
-8.86259e-07
-0.00113972
4.64978e-07
4.65661e-07
0.00114056
-0.00113262
-1.52292e-06
8.86088e-07
4.3394e-07
0.0011332
-5.18254e-07
1.11145e-06
1.14887e-07
7.12996e-07
-5.71739e-07
-1.27377e-06
4.30985e-08
-0.00113253
-1.52046e-06
8.86563e-07
4.34805e-07
0.00113311
-5.22373e-07
1.10797e-06
1.15585e-07
7.07896e-07
-5.68958e-07
-1.2686e-06
4.09357e-08
-0.000276032
1.55244e-06
1.50964e-06
-5.11607e-07
-5.22475e-07
0.000274004
-8.65736e-07
-8.66072e-07
-0.00114305
4.56119e-07
4.56774e-07
0.00114387
-0.00113489
-1.51714e-06
8.65517e-07
4.24449e-07
0.00113543
-5.05226e-07
1.11915e-06
1.19855e-07
7.19652e-07
-5.55232e-07
-1.25836e-06
4.92699e-08
-0.0011348
-1.51506e-06
8.65471e-07
4.24926e-07
0.00113534
-5.0948e-07
1.11603e-06
1.22659e-07
7.14786e-07
-5.51913e-07
-1.25228e-06
4.67613e-08
-0.000276253
1.54723e-06
1.50432e-06
-5.00244e-07
-5.11214e-07
0.000274213
5.2165e-06
5.22982e-06
0.000260577
-0.000259171
-5.93213e-06
-5.92035e-06
5.0792e-06
0.000261425
-0.000258697
-5.96238e-06
3.37175e-06
-5.22657e-06
5.07642e-06
0.000261427
-0.000258689
-5.96967e-06
3.38174e-06
5.22193e-06
0.000260567
-0.000259166
-5.90053e-06
-5.94896e-06
5.06716e-06
0.000261481
-0.000258714
-5.96768e-06
3.36396e-06
5.07643e-06
-5.23168e-06
0.000261427
-0.000258686
3.38431e-06
-5.9697e-06
1.06709e-05
1.06176e-05
-0.000252649
-0.000256081
-0.000255118
-0.000255118
-6.415e-06
-4.12538e-06
-6.6599e-06
-6.41778e-06
-4.12093e-06
-6.66524e-06
-5.07456e-06
0.00104219
1.07162e-05
1.06223e-05
-0.000252649
-0.000256074
-0.000255118
-0.000255116
-6.41719e-06
-4.12519e-06
-6.66491e-06
-6.42017e-06
-4.12596e-06
-6.66277e-06
-5.07462e-06
0.00104215
1.07287e-05
1.06429e-05
-0.000252646
-0.000256079
-0.000255113
-0.000255118
-6.4199e-06
-4.12775e-06
-6.66486e-06
-6.41776e-06
-4.12333e-06
-6.66519e-06
-5.08391e-06
-5.07435e-06
0.00104213
1.07311e-05
1.06754e-05
-0.000252646
-0.000256074
-0.000255113
-0.000255118
-6.41974e-06
-4.13031e-06
-6.66751e-06
-6.41742e-06
-4.12575e-06
-6.66766e-06
-0.000258704
-5.95991e-06
3.36138e-06
-5.22384e-06
0.000261404
-0.000258679
3.37909e-06
-5.96448e-06
5.22202e-06
0.000260564
-0.000259168
-5.90055e-06
-5.94905e-06
-0.000258707
3.36654e-06
-5.9625e-06
-5.23465e-06
0.000261458
-0.000258707
3.37654e-06
-5.96724e-06
-0.000259166
-5.9318e-06
-5.92003e-06
5.61239e-06
5.65507e-06
-4.87347e-06
-4.86966e-06
0.000259053
-7.85854e-07
-7.42108e-07
0.000261556
-0.000259472
-2.821e-07
-2.747e-07
7.02672e-06
0.00105893
-4.52754e-06
-1.57318e-06
-2.20763e-06
-2.57741e-06
-6.60923e-06
-7.05157e-06
-3.17125e-06
-0.000263277
-0.000259697
-0.000262814
-5.6305e-06
1.45484e-05
7.09957e-06
0.00105906
-4.55432e-06
-1.57833e-06
-2.221e-06
-2.58666e-06
-6.63155e-06
-7.06034e-06
-3.18853e-06
-0.00026332
-0.000259694
-0.000262811
0.00106206
2.03431e-06
-0.00106101
9.68545e-07
-1.72569e-06
-1.66537e-07
-6.92106e-07
-1.4684e-06
-3.07753e-07
-8.28277e-07
3.45976e-07
7.83249e-07
0.00106218
2.02913e-06
-0.00106113
9.73823e-07
-1.72078e-06
-1.64158e-07
-6.95052e-07
-1.47071e-06
-3.0758e-07
-8.28246e-07
3.48609e-07
-4.87875e-06
-4.87165e-06
0.000259045
-7.47303e-07
0.000261557
-0.000259469
-2.82138e-07
-2.74656e-07
6.80835e-06
0.00105969
-4.55199e-06
-1.63779e-06
-2.22902e-06
-2.58571e-06
-6.61977e-06
-7.0624e-06
-3.17903e-06
-0.000263364
-0.00025974
-0.00026285
-5.62802e-06
1.45638e-05
7.12315e-06
0.00105901
-4.54922e-06
-1.58093e-06
-2.22103e-06
-2.58693e-06
-6.63415e-06
-7.06064e-06
-3.18593e-06
-0.000259692
-0.000263323
-0.000262809
0.00106299
2.03642e-06
-0.00106192
9.67029e-07
-1.68818e-06
-1.71579e-07
-6.92461e-07
-1.46837e-06
-3.1005e-07
-8.25641e-07
3.4306e-07
7.7789e-07
0.0010621
2.03439e-06
-0.00106104
9.79234e-07
-1.72092e-06
-1.69337e-07
-6.95263e-07
-1.46827e-06
-3.09933e-07
-8.28053e-07
3.43137e-07
1.46119e-05
7.11499e-06
0.00105874
-4.52978e-06
-1.58068e-06
-2.21255e-06
-2.58191e-06
-6.60588e-06
-3.17326e-06
-7.04766e-06
-0.000259676
-0.000263259
-0.00026278
2.02605e-06
-0.00106154
9.67285e-07
-1.68792e-06
-1.71384e-07
-6.86888e-07
-1.46586e-06
-3.05195e-07
3.42921e-07
-8.28286e-07
7.75091e-07
0.00106178
2.0293e-06
-0.00106073
9.84193e-07
-1.71814e-06
-1.69162e-07
-6.92282e-07
-1.46293e-06
-3.07524e-07
-8.28027e-07
3.37814e-07
-4.87872e-06
-4.86923e-06
0.000259043
-7.41795e-07
0.000261536
-0.000259462
-2.79936e-07
-2.74795e-07
1.4486e-05
6.90001e-06
0.00105949
-4.55691e-06
-1.64276e-06
-2.23138e-06
-2.58751e-06
-6.61887e-06
-3.17853e-06
-7.05833e-06
-0.000259722
-0.000263341
-0.000262821
2.03666e-06
-0.00106147
9.67721e-07
-1.68807e-06
-1.69099e-07
-6.92339e-07
-1.46327e-06
-3.07657e-07
3.40352e-07
-8.25757e-07
7.39171e-07
0.0010627
2.03679e-06
-0.00106164
9.72597e-07
-1.68065e-06
-1.71678e-07
-6.89964e-07
-1.46552e-06
-3.07479e-07
-8.28177e-07
3.40248e-07
-0.000259444
-2.85151e-07
-2.77597e-07
1.64439e-06
1.60422e-06
-7.1048e-07
-7.16379e-07
0.000259735
-8.69025e-07
-8.30347e-07
0.000262791
-0.000260674
-2.12617e-07
-2.05007e-07
8.24373e-07
0.00106334
-6.58997e-07
8.25725e-07
-1.4078e-07
3.80961e-07
-8.00828e-07
-1.40012e-06
-2.9066e-07
-1.64206e-06
1.63195e-06
8.24496e-07
0.00106346
-6.59303e-07
8.205e-07
-1.4339e-07
3.83645e-07
-8.03319e-07
-1.40245e-06
-2.88028e-07
0.00106729
1.3833e-06
-0.00106595
7.0214e-07
-1.59694e-06
-1.05943e-07
-6.2863e-07
-1.35494e-06
-2.49178e-07
-7.77026e-07
4.22481e-07
8.69077e-07
0.00106741
1.37797e-06
-0.00106607
7.02307e-07
-1.59456e-06
-1.06076e-07
-6.26231e-07
-1.36e-06
-2.46619e-07
-7.79583e-07
4.27751e-07
-7.08399e-07
-7.18488e-07
0.000259735
-8.32827e-07
0.000262784
-0.000260664
-2.10066e-07
-2.0753e-07
8.2293e-07
0.00106427
-6.54098e-07
7.84594e-07
-1.48264e-07
3.78041e-07
-8.00881e-07
-1.39492e-06
-2.90561e-07
-1.63698e-06
1.6321e-06
8.30016e-07
0.00106337
-6.56807e-07
8.15177e-07
-1.43505e-07
3.80767e-07
-8.00613e-07
-1.4e-06
-2.90378e-07
0.00106822
1.379e-06
-0.00106689
7.06332e-07
-1.55919e-06
-1.08475e-07
-6.26374e-07
-1.35498e-06
-2.49064e-07
-7.77099e-07
4.2507e-07
8.61158e-07
0.00106731
1.37768e-06
-0.00106597
7.02369e-07
-1.58936e-06
-1.06067e-07
-6.28925e-07
-1.35475e-06
-2.48902e-07
-7.76793e-07
4.22473e-07
1.64255e-06
8.24639e-07
0.00106305
-6.56443e-07
8.15018e-07
-1.4584e-07
3.72793e-07
-8.00549e-07
-2.9291e-07
-1.39212e-06
1.37895e-06
-0.0010665
7.01289e-07
-1.56157e-06
-1.08387e-07
-6.26081e-07
-1.35229e-06
-2.46603e-07
4.22272e-07
-7.77026e-07
8.6359e-07
0.00106699
1.37776e-06
-0.00106566
7.0739e-07
-1.58914e-06
-1.06006e-07
-6.28623e-07
-1.35204e-06
-2.51437e-07
-7.76686e-07
4.2238e-07
-7.13788e-07
-7.16008e-07
0.000259725
-8.30108e-07
0.000262771
-0.000260662
-2.10207e-07
-2.07541e-07
1.63368e-06
8.28539e-07
0.00106398
-6.54142e-07
7.71147e-07
-1.50845e-07
3.75322e-07
-8.00706e-07
-2.90425e-07
-1.39463e-06
1.37909e-06
-0.00106641
7.0658e-07
-1.5564e-06
-1.08407e-07
-6.26158e-07
-1.35226e-06
-2.46567e-07
4.22316e-07
-7.76975e-07
8.24852e-07
0.00106792
1.38422e-06
-0.00106659
7.012e-07
-1.55138e-06
-1.11023e-07
-6.23663e-07
-1.35207e-06
-2.51472e-07
-7.769e-07
4.22249e-07
-0.000260644
-2.10151e-07
-2.077e-07
1.59508e-06
1.55469e-06
-6.72218e-07
-6.80492e-07
0.000260994
-8.95837e-07
-8.54347e-07
0.000264078
-0.00026195
-1.94157e-07
-1.8386e-07
6.96452e-07
0.00106863
-6.29672e-07
8.7739e-07
-9.92267e-08
4.24605e-07
-7.77881e-07
-1.35476e-06
-2.45231e-07
-1.59269e-06
1.36662e-06
6.91405e-07
0.00106875
-6.29915e-07
8.74833e-07
-9.93235e-08
4.29895e-07
-7.80489e-07
-1.35979e-06
-2.42674e-07
0.00107264
1.3499e-06
-0.00107131
6.75897e-07
-1.59507e-06
-8.30148e-08
-6.27571e-07
-1.37259e-06
-2.25089e-07
-7.8356e-07
4.39303e-07
8.93263e-07
0.00107276
1.34981e-06
-0.00107143
6.76008e-07
-1.59265e-06
-8.30886e-08
-6.27784e-07
-1.37236e-06
-2.24956e-07
-7.83557e-07
4.39231e-07
-6.75279e-07
-6.80082e-07
0.000260989
-8.5683e-07
0.000264068
-0.000261945
-1.89034e-07
-1.83815e-07
6.90226e-07
0.00106957
-6.24759e-07
8.36037e-07
-1.06667e-07
4.24491e-07
-7.77979e-07
-1.3574e-06
-2.45133e-07
-1.59013e-06
1.3663e-06
6.91444e-07
0.00106866
-6.29924e-07
8.72152e-07
-1.01809e-07
4.24611e-07
-7.77653e-07
-1.35459e-06
-2.44996e-07
0.00107358
1.35067e-06
-0.00107225
6.74941e-07
-1.55449e-06
-9.04253e-08
-6.19966e-07
-1.36997e-06
-2.25015e-07
-7.83693e-07
4.36479e-07
8.90624e-07
0.00107266
1.34944e-06
-0.00107133
6.76058e-07
-1.59e-06
-8.55283e-08
-6.25064e-07
-1.36978e-06
-2.24884e-07
-7.83385e-07
4.36622e-07
1.36639e-06
6.91261e-07
0.00106834
-6.27e-07
8.66678e-07
-1.04212e-07
4.21857e-07
-7.7755e-07
-2.45028e-07
-1.35448e-06
1.35055e-06
-0.00107187
6.75001e-07
-1.55691e-06
-9.03494e-08
-6.19716e-07
-1.36731e-06
-2.27557e-07
4.33775e-07
-7.80945e-07
8.85071e-07
0.00107234
1.34958e-06
-0.00107102
6.75902e-07
-1.58454e-06
-8.55257e-08
-6.24773e-07
-1.36704e-06
-2.24898e-07
-7.83272e-07
4.33956e-07
-6.75376e-07
-6.77501e-07
0.000260976
-8.54165e-07
0.000264055
-0.000261932
-1.91663e-07
-1.86401e-07
1.36233e-06
6.95531e-07
0.00106927
-6.2207e-07
8.279e-07
-1.09191e-07
4.21685e-07
-7.77768e-07
-2.4503e-07
-1.35445e-06
1.35066e-06
-0.00107177
6.75082e-07
-1.55425e-06
-8.78809e-08
-6.22304e-07
-1.36722e-06
-2.27468e-07
4.31106e-07
-7.83552e-07
8.43554e-07
0.00107328
1.35057e-06
-0.00107196
6.7495e-07
-1.54397e-06
-9.29524e-08
-6.17182e-07
-1.36698e-06
-2.24892e-07
-7.83499e-07
4.33706e-07
-0.000261924
-1.94412e-07
-1.84056e-07
1.59371e-06
1.55308e-06
-6.59365e-07
-6.70152e-07
0.000262261
-9.23826e-07
-8.82193e-07
0.000265297
-0.000263168
-1.66495e-07
-1.56107e-07
6.68268e-07
0.00107395
-6.2511e-07
9.02681e-07
-7.68546e-08
4.43794e-07
-7.82104e-07
-1.37472e-06
-2.17826e-07
-1.5913e-06
1.34123e-06
6.68269e-07
0.00107407
-6.25365e-07
9.00158e-07
-7.68215e-08
4.4374e-07
-7.82038e-07
-1.37446e-06
-2.17662e-07
0.00107781
1.3083e-06
-0.00107654
6.4328e-07
-1.58788e-06
-5.76048e-08
-6.1576e-07
-1.37732e-06
-1.94438e-07
-7.74238e-07
4.59892e-07
9.21199e-07
0.00107793
1.30816e-06
-0.00107666
6.43285e-07
-1.58548e-06
-5.783e-08
-6.16064e-07
-1.3771e-06
-1.94259e-07
-7.74179e-07
4.59928e-07
-6.65027e-07
-6.69819e-07
0.000262256
-8.84622e-07
0.000265287
-0.000263163
-1.61486e-07
-1.56257e-07
6.67281e-07
0.00107489
-6.17485e-07
8.61151e-07
-8.42444e-08
4.4097e-07
-7.82239e-07
-1.3721e-06
-2.17744e-07
-1.58868e-06
1.34093e-06
6.68364e-07
0.00107397
-6.22754e-07
8.97513e-07
-7.92908e-08
4.41126e-07
-7.81899e-07
-1.37187e-06
-2.17625e-07
0.00107876
1.30901e-06
-0.00107748
6.4228e-07
-1.54709e-06
-6.49173e-08
-6.08079e-07
-1.37472e-06
-1.94393e-07
-7.74417e-07
4.57044e-07
9.18537e-07
0.00107784
1.30791e-06
-0.00107656
6.43408e-07
-1.58282e-06
-6.03189e-08
-6.13356e-07
-1.37451e-06
-1.94224e-07
-7.74108e-07
4.57262e-07
1.34103e-06
6.68216e-07
0.00107366
-6.22428e-07
8.91991e-07
-7.91778e-08
4.38428e-07
-7.818e-07
-2.17674e-07
-1.36913e-06
1.30893e-06
-0.0010771
6.4229e-07
-1.54956e-06
-6.50446e-08
-6.07974e-07
-1.37199e-06
-1.96912e-07
4.54369e-07
-7.7163e-07
9.12987e-07
0.00107752
1.30801e-06
-0.00107625
6.43317e-07
-1.57738e-06
-6.02426e-08
-6.13199e-07
-1.37172e-06
-1.94269e-07
-7.73974e-07
4.54589e-07
-6.62521e-07
-6.6717e-07
0.000262243
-8.81927e-07
0.000265274
-0.00026315
-1.64171e-07
-1.58877e-07
1.342e-06
6.67234e-07
0.0010746
-6.14823e-07
8.50436e-07
-8.65879e-08
4.38177e-07
-7.8202e-07
-2.1766e-07
-1.36908e-06
1.309e-06
-0.00107701
6.42456e-07
-1.54689e-06
-6.26647e-08
-6.10597e-07
-1.36928e-06
-1.96809e-07
4.5171e-07
-7.71621e-07
8.71317e-07
0.00107846
1.30892e-06
-0.00107719
6.42309e-07
-1.5366e-06
-6.75937e-08
-6.0555e-07
-1.37169e-06
-1.94247e-07
-7.7419e-07
4.54327e-07
-0.000263142
-1.66872e-07
-1.56429e-07
1.58581e-06
1.54496e-06
-6.42554e-07
-6.53365e-07
0.000263462
-9.50175e-07
-9.08382e-07
0.000266442
-0.000264315
-1.39791e-07
-1.29275e-07
6.35103e-07
0.00107907
-6.12787e-07
9.30751e-07
-5.14877e-08
4.65789e-07
-7.70814e-07
-1.37723e-06
-1.86468e-07
-1.58326e-06
1.29611e-06
6.2973e-07
0.00107919
-6.1269e-07
9.28238e-07
-5.13272e-08
4.65662e-07
-7.70834e-07
-1.37705e-06
-1.86402e-07
0.00108274
1.2605e-06
-0.00108153
6.12309e-07
-1.57937e-06
-3.47564e-08
-6.0298e-07
-1.37563e-06
-1.63368e-07
-7.60194e-07
4.83941e-07
9.47812e-07
0.00108286
1.26032e-06
-0.00108166
6.17566e-07
-1.57713e-06
-3.44132e-08
-6.0375e-07
-1.37527e-06
-1.6324e-07
-7.60039e-07
4.83993e-07
-6.47959e-07
-6.52768e-07
0.000263457
-9.11101e-07
0.000266432
-0.00026431
-1.34176e-07
-1.28922e-07
6.34088e-07
0.00108002
-6.05088e-07
8.8909e-07
-5.87665e-08
4.62911e-07
-7.71009e-07
-1.37463e-06
-1.86433e-07
-1.58063e-06
1.29585e-06
6.35108e-07
0.00107909
-6.10081e-07
9.25617e-07
-5.371e-08
4.63003e-07
-7.70743e-07
-1.37442e-06
-1.86394e-07
0.00108369
1.26108e-06
-0.00108248
6.11302e-07
-1.53837e-06
-4.19517e-08
-5.95233e-07
-1.37302e-06
-1.63315e-07
-7.60398e-07
4.81107e-07
9.45094e-07
0.00108277
1.26008e-06
-0.00108156
6.12414e-07
-1.57444e-06
-3.69845e-08
-6.01039e-07
-1.37272e-06
-1.63192e-07
-7.60001e-07
4.81316e-07
1.29595e-06
6.35026e-07
0.00107877
-6.09685e-07
9.19981e-07
-5.3782e-08
4.60328e-07
-7.70667e-07
-1.86409e-07
-1.37169e-06
1.26101e-06
-0.0010821
6.11288e-07
-1.54104e-06
-4.15269e-08
-5.95646e-07
-1.37015e-06
-1.65921e-07
4.78337e-07
-7.57518e-07
9.39531e-07
0.00108245
1.26018e-06
-0.00108124
6.12324e-07
-1.56897e-06
-3.68533e-08
-6.0084e-07
-1.36988e-06
-1.63262e-07
-7.59878e-07
4.78629e-07
-6.45452e-07
-6.50114e-07
0.000263444
-9.08345e-07
0.000266419
-0.000264297
-1.36986e-07
-1.31664e-07
1.29682e-06
6.34002e-07
0.00107972
-6.02022e-07
8.78276e-07
-6.11044e-08
4.60054e-07
-7.70881e-07
-1.86388e-07
-1.37166e-06
1.26106e-06
-0.001082
6.11478e-07
-1.53833e-06
-3.9303e-08
-5.98276e-07
-1.36744e-06
-1.65772e-07
4.75734e-07
-7.57491e-07
8.97718e-07
0.0010834
1.26094e-06
-0.00108219
6.11297e-07
-1.52799e-06
-4.40859e-08
-5.93136e-07
-1.36987e-06
-1.63232e-07
-7.60093e-07
4.78372e-07
-0.000264289
-1.39658e-07
-1.29126e-07
1.57759e-06
1.53656e-06
-6.25635e-07
-6.36442e-07
0.00026459
-9.74054e-07
-9.32096e-07
0.000267514
-0.000265389
-1.15056e-07
-1.04433e-07
6.05406e-07
0.00108394
-6.00546e-07
9.56649e-07
-2.89704e-08
4.90014e-07
-7.56567e-07
-1.37472e-06
-1.55978e-07
-1.57493e-06
1.24861e-06
6.00025e-07
0.00108406
-6.00137e-07
9.53845e-07
-2.94118e-08
4.8992e-07
-7.5665e-07
-1.37463e-06
-1.55803e-07
0.00108743
1.21527e-06
-0.00108628
5.87014e-07
-1.57256e-06
-1.50186e-08
-5.93008e-07
-1.37172e-06
-1.34703e-07
-7.46118e-07
5.08683e-07
9.71681e-07
0.00108754
1.21495e-06
-0.0010864
5.92132e-07
-1.57016e-06
-1.4639e-08
-5.93401e-07
-1.36863e-06
-1.34558e-07
-7.45954e-07
5.08756e-07
-6.30803e-07
-6.35623e-07
0.000264585
-9.34833e-07
0.000267504
-0.000265384
-1.09349e-07
-1.0408e-07
6.04388e-07
0.00108489
-5.92798e-07
9.14843e-07
-3.60998e-08
4.87097e-07
-7.56763e-07
-1.37213e-06
-1.55944e-07
-1.57227e-06
1.24831e-06
6.05407e-07
0.00108396
-5.97473e-07
9.51259e-07
-3.16653e-08
4.87247e-07
-7.56579e-07
-1.37199e-06
-1.55848e-07
0.00108838
1.21559e-06
-0.00108723
5.85982e-07
-1.53141e-06
-2.19809e-08
-5.85233e-07
-1.36905e-06
-1.34691e-07
-7.46302e-07
5.05829e-07
9.68989e-07
0.00108745
1.21467e-06
-0.0010863
5.8697e-07
-1.5675e-06
-1.70506e-08
-5.90778e-07
-1.36875e-06
-1.34552e-07
-7.45919e-07
5.0604e-07
1.24844e-06
6.05359e-07
0.00108364
-5.97187e-07
9.45592e-07
-3.17331e-08
4.84573e-07
-7.5648e-07
-1.55861e-07
-1.36926e-06
1.21547e-06
-0.00108684
5.8584e-07
-1.53392e-06
-2.15305e-08
-5.85279e-07
-1.36625e-06
-1.37271e-07
5.03084e-07
-7.4346e-07
9.63291e-07
0.00108713
1.21483e-06
-0.00108598
5.86953e-07
-1.56204e-06
-1.71425e-08
-5.90632e-07
-1.36591e-06
-1.34583e-07
-7.458e-07
5.0338e-07
-6.28244e-07
-6.32929e-07
0.000264572
-9.32115e-07
0.000267491
-0.000265371
-1.12097e-07
-1.0676e-07
1.24916e-06
6.0432e-07
0.00108459
-5.89477e-07
9.03749e-07
-3.89221e-08
4.84262e-07
-7.56699e-07
-1.55844e-07
-1.36923e-06
1.21553e-06
-0.00108675
5.86054e-07
-1.53123e-06
-1.92935e-08
-5.88008e-07
-1.36348e-06
-1.37129e-07
5.00422e-07
-7.43401e-07
9.21329e-07
0.00108808
1.2154e-06
-0.00108693
5.85884e-07
-1.52088e-06
-2.41624e-08
-5.82888e-07
-1.36588e-06
-1.34577e-07
-7.46016e-07
5.03112e-07
-0.000265363
-1.15026e-07
-1.04405e-07
1.57111e-06
1.52991e-06
-6.10887e-07
-6.21726e-07
0.000265646
-9.95166e-07
-9.53137e-07
0.000268517
-0.000266393
-9.30538e-08
-8.24011e-08
5.81671e-07
0.00108856
-5.90794e-07
9.79353e-07
-1.11959e-08
5.14886e-07
-7.42778e-07
-1.37055e-06
-1.27884e-07
-1.56854e-06
1.20456e-06
5.76268e-07
0.00108869
-5.90637e-07
9.76655e-07
-1.14001e-08
5.12033e-07
-7.42844e-07
-1.37049e-06
-1.27773e-07
0.00109188
1.17504e-06
-0.00109078
5.67282e-07
-1.56768e-06
7.79527e-10
-5.85371e-07
-1.36743e-06
-1.09219e-07
-7.33579e-07
5.3277e-07
9.92627e-07
0.001092
1.17489e-06
-0.00109091
5.7261e-07
-1.56542e-06
8.67685e-10
-5.86095e-07
-1.367e-06
-1.09041e-07
-7.33406e-07
5.32928e-07
-6.163e-07
-6.21136e-07
0.00026564
-9.55699e-07
0.000268507
-0.000266388
-8.76842e-08
-8.23987e-08
5.8062e-07
0.00108952
-5.8301e-07
9.37392e-07
-1.80403e-08
5.11922e-07
-7.43006e-07
-1.36803e-06
-1.27879e-07
-1.56585e-06
1.20423e-06
5.81664e-07
0.00108858
-5.87915e-07
9.74015e-07
-1.36498e-08
5.1206e-07
-7.42818e-07
-1.36785e-06
-1.27833e-07
0.00109284
1.17557e-06
-0.00109174
5.66434e-07
-1.52623e-06
-5.72787e-09
-5.77483e-07
-1.36479e-06
-1.0925e-07
-7.33801e-07
5.29882e-07
9.89965e-07
0.0010919
1.17473e-06
-0.00109081
5.67584e-07
-1.5626e-06
-1.7647e-09
-5.83125e-07
-1.36449e-06
-1.09032e-07
-7.33416e-07
5.30182e-07
1.20434e-06
5.81599e-07
0.00108826
-5.87552e-07
9.68377e-07
-1.35325e-08
5.09348e-07
-7.42719e-07
-1.27895e-07
-1.36508e-06
1.17557e-06
-0.00109135
5.6643e-07
-1.52891e-06
-5.62539e-09
-5.77872e-07
-1.36201e-06
-1.11735e-07
5.27324e-07
-7.30898e-07
9.84238e-07
0.00109158
1.17493e-06
-0.00109049
5.67595e-07
-1.5573e-06
-1.72377e-09
-5.83402e-07
-1.36162e-06
-1.0903e-07
-7.33222e-07
5.27583e-07
-6.13667e-07
-6.18372e-07
0.000265627
-9.52988e-07
0.000268493
-0.000266375
-9.03872e-08
-8.50558e-08
1.20487e-06
5.80513e-07
0.00108922
-5.79795e-07
9.26396e-07
-2.04637e-08
5.0899e-07
-7.42958e-07
-1.27887e-07
-1.36512e-06
1.17556e-06
-0.00109126
5.66667e-07
-1.52615e-06
-3.63458e-09
-5.8033e-07
-1.35925e-06
-1.11604e-07
5.2457e-07
-7.30888e-07
9.42152e-07
0.00109254
1.17539e-06
-0.00109144
5.66513e-07
-1.51592e-06
-8.05877e-09
-5.75609e-07
-1.36159e-06
-1.09047e-07
-7.33448e-07
5.27293e-07
-0.000266367
-9.33831e-08
-8.269e-08
1.56714e-06
1.52556e-06
-5.99302e-07
-6.10162e-07
0.000266634
-1.01278e-06
-9.70593e-07
0.000269454
-0.000267334
-7.25218e-08
-6.42507e-08
5.63302e-07
0.00109296
-5.84745e-07
9.99351e-07
4.38398e-09
5.39031e-07
-7.30583e-07
-1.36659e-06
-1.03023e-07
-1.56444e-06
1.16576e-06
5.57849e-07
0.00109308
-5.84263e-07
9.96734e-07
4.37533e-09
5.38841e-07
-7.30699e-07
-1.36652e-06
-1.02952e-07
0.00109612
1.1397e-06
-0.00109508
5.52324e-07
-1.56557e-06
1.99072e-08
-5.81392e-07
-1.36141e-06
-8.95268e-08
-7.20267e-07
5.52746e-07
1.01014e-06
0.00109624
1.13964e-06
-0.0010952
5.52397e-07
-1.56324e-06
1.96762e-08
-5.8183e-07
-1.36379e-06
-8.68399e-08
-7.22839e-07
5.55545e-07
-6.04507e-07
-6.09347e-07
0.000266628
-9.73028e-07
0.000269446
-0.000267329
-7.00176e-08
-6.4421e-08
5.62716e-07
0.00109392
-5.76746e-07
9.57307e-07
-3.71219e-09
5.36113e-07
-7.30801e-07
-1.36402e-06
-1.02967e-07
-1.56176e-06
1.16572e-06
5.63479e-07
0.00109298
-5.81837e-07
9.94286e-07
9.20554e-10
5.36203e-07
-7.30565e-07
-1.36378e-06
-1.02985e-07
0.00109708
1.14096e-06
-0.00109604
5.5164e-07
-1.52404e-06
1.07382e-08
-5.73238e-07
-1.36127e-06
-8.68194e-08
-7.22946e-07
5.52797e-07
1.00732e-06
0.00109614
1.13964e-06
-0.0010951
5.52574e-07
-1.56032e-06
1.61977e-08
-5.78513e-07
-1.36126e-06
-8.67643e-08
-7.22858e-07
5.52891e-07
1.16577e-06
5.63377e-07
0.00109266
-5.81016e-07
9.8849e-07
8.52438e-10
5.33458e-07
-7.30573e-07
-1.03045e-07
-1.36104e-06
1.14099e-06
-0.00109565
5.51703e-07
-1.52666e-06
1.05197e-08
-5.73396e-07
-1.35854e-06
-8.92896e-08
5.50268e-07
-7.20086e-07
1.00201e-06
0.00109582
1.1396e-06
-0.00109478
5.52365e-07
-1.55485e-06
1.66549e-08
-5.78862e-07
-1.35834e-06
-8.68349e-08
-7.22623e-07
5.50229e-07
-6.02098e-07
-6.06824e-07
0.000266615
-9.70215e-07
0.000269433
-0.000267315
-7.28484e-08
-6.73832e-08
1.16646e-06
5.6254e-07
0.00109362
-5.73155e-07
9.46422e-07
-5.68143e-09
5.33092e-07
-7.30801e-07
-1.03041e-07
-1.36109e-06
1.14071e-06
-0.00109555
5.51708e-07
-1.52375e-06
1.32391e-08
-5.75634e-07
-1.35593e-06
-8.92413e-08
5.47354e-07
-7.20241e-07
9.59745e-07
0.00109678
1.14097e-06
-0.00109574
5.51735e-07
-1.51332e-06
7.19479e-09
-5.70787e-07
-1.35811e-06
-8.66145e-08
-7.22648e-07
5.5017e-07
-0.000267308
-7.53887e-08
-6.42827e-08
1.56585e-06
1.52423e-06
-5.9359e-07
-6.0179e-07
0.000267559
-1.02839e-06
-9.86083e-07
0.000270336
-0.000268216
-5.67643e-08
-4.85041e-08
5.49815e-07
0.00109715
-5.81534e-07
1.01621e-06
2.16773e-08
5.58774e-07
-7.17655e-07
-1.36093e-06
-8.39671e-08
-1.56332e-06
1.13206e-06
5.4971e-07
0.00109727
-5.81471e-07