/*--------------------------------*- C++ -*----------------------------------*\
| =========                 |                                                 |
| \\      /  F ield         | OpenFOAM: The Open Source CFD Toolbox           |
|  \\    /   O peration     | Version:  v2006                                 |
|   \\  /    A nd           | Website:  www.openfoam.com                      |
|    \\/     M anipulation  |                                                 |
\*---------------------------------------------------------------------------*/
FoamFile
{
    version     2.0;
    format      ascii;
    class       volScalarField;
    location    "625";
    object      epsilon;
}
// * * * * * * * * * * * * * * * * * * * * * * * * * * * * * * * * * * * * * //

dimensions      [0 2 -3 0 0 0 0];


internalField   nonuniform List<scalar> 
14314
(
6.87944e-07
1.15202e-06
1.15299e-06
1.38494e-06
6.7281e-07
1.12649e-06
1.11558e-06
1.37379e-06
1.40299e-06
1.16496e-06
1.15185e-06
1.38409e-06
1.16818e-06
1.15981e-06
1.14959e-06
1.15131e-06
1.39244e-06
1.1562e-06
1.15266e-06
1.38435e-06
1.40748e-06
1.40241e-06
1.16925e-06
1.15809e-06
1.15741e-06
1.16009e-06
1.38961e-06
1.3992e-06
1.16874e-06
1.15794e-06
1.15358e-06
1.14463e-06
1.14939e-06
1.15672e-06
1.14262e-06
1.39316e-06
1.38589e-06
1.14905e-06
1.13997e-06
1.13897e-06
1.38578e-06
1.38227e-06
1.12241e-06
1.12758e-06
1.38325e-06
1.1196e-06
1.11693e-06
6.76592e-07
6.68003e-07
6.67275e-07
1.1203e-06
1.37084e-06
1.11761e-06
4.23339e-06
9.65679e-06
1.93773e-05
4.24737e-06
9.68362e-06
6.86662e-07
6.73248e-07
6.81394e-07
6.77559e-07
2.25805e-06
1.15102e-06
3.63022e-06
9.15858e-07
1.94468e-05
2.27088e-06
1.17114e-06
9.31556e-07
3.65287e-06
1.3994e-06
5.69463e-06
5.71663e-06
4.22255e-06
9.63316e-06
4.21886e-06
9.65542e-06
1.92538e-05
1.92781e-05
4.22377e-06
9.6565e-06
4.23055e-06
9.66546e-06
6.74803e-07
6.79518e-07
6.75177e-07
6.81502e-07
6.80248e-07
6.71588e-07
6.68835e-07
2.24915e-06
3.61763e-06
9.11772e-07
1.15779e-06
2.24785e-06
3.6071e-06
9.13078e-07
1.93633e-05
1.93168e-05
2.24065e-06
9.1323e-07
3.63765e-06
1.15105e-06
2.24794e-06
9.10343e-07
3.60952e-06
5.65893e-06
5.66831e-06
1.38133e-06
5.634e-06
5.62772e-06
3.48893e-06
8.93248e-06
4.20178e-06
5.91796e-06
1.71499e-05
8.58783e-06
3.4858e-06
8.91492e-06
4.19031e-06
5.90349e-06
3.2333e-07
4.93525e-07
4.90413e-07
7.1679e-07
3.29482e-07
5.13589e-07
5.11529e-07
2.20632e-06
3.55282e-06
9.12164e-07
1.07634e-06
2.24511e-06
3.67748e-06
8.56506e-07
1.70544e-05
8.56973e-06
2.20319e-06
9.01736e-07
3.54014e-06
1.07237e-06
2.23694e-06
8.50758e-07
3.66403e-06
5.58817e-06
5.57282e-06
1.33838e-06
5.26959e-06
5.26094e-06
1.93118e-05
1.93672e-05
1.3997e-06
5.6429e-06
5.66636e-06
1.93043e-05
1.92913e-05
1.93416e-05
1.93444e-05
1.40156e-06
5.6452e-06
5.66131e-06
5.64506e-06
5.66912e-06
4.23638e-06
9.68502e-06
2.25628e-06
1.16319e-06
3.62089e-06
9.19016e-07
2.25701e-06
1.15105e-06
3.63107e-06
9.14874e-07
4.22951e-06
9.64338e-06
9.64663e-06
4.22228e-06
4.2307e-06
9.63527e-06
9.66158e-06
4.21967e-06
2.25711e-06
1.16372e-06
3.62523e-06
9.20357e-07
3.62854e-06
9.19315e-07
2.25928e-06
2.25749e-06
1.15089e-06
3.61556e-06
9.15413e-07
3.63444e-06
9.14786e-07
2.25826e-06
1.38502e-06
5.66797e-06
5.67066e-06
1.93756e-05
1.92879e-05
1.93313e-05
1.38599e-06
5.62845e-06
5.61933e-06
5.66229e-06
5.66349e-06
1.92625e-05
1.93228e-05
2.26952e-06
1.16817e-06
3.63271e-06
9.28411e-07
4.25105e-06
9.72506e-06
2.27126e-06
1.16972e-06
9.28687e-07
3.65296e-06
4.24492e-06
9.66945e-06
9.67434e-06
4.2363e-06
2.26907e-06
1.16847e-06
3.63024e-06
9.26251e-07
3.63936e-06
9.28102e-07
2.26238e-06
4.24769e-06
9.7072e-06
9.71918e-06
4.2365e-06
2.27062e-06
1.16471e-06
9.2364e-07
3.63843e-06
9.26839e-07
3.65864e-06
2.26229e-06
4.24661e-06
9.70642e-06
2.25932e-06
1.16371e-06
9.20439e-07
3.64057e-06
4.2482e-06
9.70562e-06
2.2566e-06
1.14975e-06
3.60826e-06
9.11584e-07
3.63236e-06
9.13335e-07
2.24703e-06
4.23975e-06
9.63119e-06
9.67861e-06
4.22322e-06
2.25785e-06
1.15691e-06
9.13239e-07
3.62469e-06
9.16573e-07
3.64484e-06
2.2478e-06
4.24159e-06
9.67473e-06
9.69657e-06
4.22515e-06
1.40458e-06
5.71693e-06
5.722e-06
1.94516e-05
1.94096e-05
1.94293e-05
1.4043e-06
5.6827e-06
5.67661e-06
5.717e-06
5.72114e-06
1.94001e-05
1.94334e-05
2.27078e-06
1.17001e-06
9.31748e-07
3.65081e-06
4.25927e-06
9.74713e-06
4.25974e-06
9.73848e-06
2.26829e-06
1.16341e-06
9.17257e-07
3.63229e-06
9.25086e-07
3.65738e-06
2.24902e-06
2.26799e-06
1.16074e-06
9.16501e-07
3.62748e-06
9.24694e-07
3.65412e-06
2.24802e-06
4.25619e-06
9.71651e-06
9.74096e-06
4.23935e-06
4.25568e-06
9.70507e-06
9.73124e-06
4.23738e-06
1.93789e-05
1.94393e-05
1.39837e-06
5.66238e-06
5.67426e-06
5.69318e-06
5.71616e-06
1.93543e-05
1.9361e-05
1.93963e-05
1.94209e-05
1.92833e-05
1.93328e-05
1.93134e-05
1.93378e-05
5.65518e-06
5.6684e-06
1.41064e-06
5.6866e-06
5.68825e-06
1.8831e-05
1.93154e-05
1.87993e-05
1.93112e-05
1.4136e-06
5.65559e-06
5.64178e-06
5.70513e-06
5.70134e-06
4.21516e-06
9.62033e-06
4.2145e-06
9.6312e-06
2.26978e-06
3.63929e-06
9.24421e-07
1.17046e-06
2.26406e-06
3.63836e-06
9.27738e-07
2.2669e-06
3.62619e-06
9.19722e-07
1.165e-06
2.26232e-06
3.61696e-06
9.24806e-07
4.22332e-06
9.49054e-06
9.64928e-06
4.20862e-06
4.21515e-06
9.45891e-06
9.62236e-06
4.20032e-06
2.27366e-06
1.17323e-06
3.58235e-06
9.26594e-07
3.657e-06
9.29008e-07
2.25508e-06
2.27064e-06
1.17155e-06
3.55827e-06
9.26662e-07
3.63438e-06
9.28102e-07
2.25174e-06
5.63102e-06
5.61987e-06
1.39886e-06
5.64259e-06
5.62389e-06
1.92255e-05
1.92415e-05
1.87569e-05
1.92559e-05
1.40456e-06
5.60663e-06
5.59182e-06
5.65771e-06
5.63878e-06
1.87174e-05
1.92187e-05
2.26155e-06
3.64267e-06
9.25757e-07
1.16773e-06
2.26322e-06
3.63631e-06
9.24029e-07
4.21994e-06
9.68448e-06
4.22945e-06
9.66277e-06
2.25934e-06
9.22402e-07
3.64506e-06
1.15661e-06
2.26273e-06
9.20776e-07
3.61984e-06
4.21904e-06
9.48005e-06
9.65388e-06
4.19787e-06
2.26478e-06
1.17003e-06
3.57469e-06
9.18306e-07
3.65372e-06
9.22401e-07
2.24558e-06
4.21392e-06
9.44117e-06
9.63988e-06
4.19156e-06
2.2623e-06
1.15921e-06
9.15569e-07
3.54666e-06
9.19539e-07
3.63262e-06
2.24235e-06
4.2037e-06
9.60765e-06
4.21356e-06
9.60441e-06
2.24881e-06
9.12377e-07
3.63164e-06
1.1489e-06
2.24843e-06
9.1219e-07
3.61017e-06
4.20472e-06
9.64983e-06
4.21544e-06
9.62902e-06
2.25496e-06
1.1652e-06
3.55212e-06
9.17549e-07
3.62522e-06
9.16671e-07
2.24332e-06
4.19965e-06
9.42568e-06
9.59149e-06
4.18252e-06
2.25441e-06
1.15199e-06
9.13532e-07
3.54466e-06
9.13573e-07
3.62469e-06
2.24251e-06
4.19996e-06
9.41577e-06
9.60754e-06
4.18135e-06
5.67856e-06
5.66988e-06
1.38873e-06
5.64932e-06
5.63021e-06
1.93415e-05
1.92789e-05
1.87038e-05
1.92699e-05
1.39159e-06
5.58082e-06
5.56479e-06
5.65609e-06
5.63601e-06
1.86562e-05
1.92296e-05
2.23951e-06
9.1223e-07
3.63267e-06
1.14734e-06
2.24687e-06
9.09246e-07
3.60459e-06
4.20811e-06
9.68085e-06
4.22814e-06
9.63368e-06
4.20508e-06
9.67112e-06
4.2257e-06
9.63054e-06
2.24476e-06
1.15309e-06
9.07063e-07
3.54006e-06
9.09729e-07
3.62254e-06
2.23472e-06
2.24367e-06
1.14975e-06
9.06331e-07
3.53663e-06
9.08728e-07
3.61795e-06
2.23406e-06
4.19891e-06
9.40445e-06
9.60711e-06
4.17437e-06
4.19582e-06
9.40431e-06
9.60501e-06
4.17149e-06
1.93166e-05
1.9292e-05
1.93456e-05
1.92873e-05
1.38552e-06
5.57275e-06
5.55684e-06
5.64148e-06
5.63298e-06
1.86931e-05
1.92507e-05
1.86548e-05
1.92371e-05
1.72327e-05
8.59818e-06
1.71959e-05
8.5961e-06
5.67188e-06
5.65734e-06
1.32337e-06
5.31805e-06
5.30961e-06
1.27009e-06
5.29174e-06
5.28581e-06
3.48811e-06
8.89504e-06
4.19405e-06
5.88762e-06
2.19798e-06
3.58075e-06
9.13974e-07
1.06399e-06
2.25542e-06
3.69205e-06
8.47165e-07
2.19695e-06
3.55766e-06
9.15783e-07
1.07428e-06
2.25219e-06
3.67261e-06
8.50604e-07
2.08548e-06
1.03342e-06
3.71989e-06
8.16745e-07
2.08552e-06
1.046e-06
3.70259e-06
8.20608e-07
5.62334e-06
5.61069e-06
1.3349e-06
5.2866e-06
5.29222e-06
1.70842e-05
8.6012e-06
1.28564e-06
5.26578e-06
5.27367e-06
2.19697e-06
3.57289e-06
9.07452e-07
1.06332e-06
2.24621e-06
3.68666e-06
8.44665e-07
3.48393e-06
8.86489e-06
4.18397e-06
5.85774e-06
2.19531e-06
9.06044e-07
3.54493e-06
1.07003e-06
2.24296e-06
8.46135e-07
3.65921e-06
2.08846e-06
1.03382e-06
3.71555e-06
8.16532e-07
2.08803e-06
1.04529e-06
8.19227e-07
3.69e-06
3.23453e-07
4.93525e-07
4.90281e-07
7.24561e-07
3.28489e-07
5.15181e-07
5.1504e-07
3.23077e-07
4.88809e-07
4.85974e-07
7.19281e-07
3.28373e-07
5.11536e-07
5.11518e-07
3.22846e-07
4.8786e-07
4.85343e-07
7.2136e-07
3.27115e-07
5.13354e-07
5.11315e-07
3.20523e-07
7.32369e-07
5.21281e-07
5.20119e-07
3.21111e-07
7.42748e-07
5.2355e-07
5.26386e-07
3.2066e-07
7.39574e-07
5.21112e-07
5.23648e-07
3.209e-07
7.44471e-07
5.25492e-07
5.23886e-07
3.49187e-06
8.86128e-06
4.17705e-06
5.88533e-06
2.20559e-06
9.08533e-07
3.54456e-06
1.07908e-06
2.24426e-06
8.55441e-07
3.66417e-06
3.49009e-06
8.84293e-06
4.17535e-06
5.8598e-06
2.10287e-06
1.0499e-06
3.70899e-06
8.31312e-07
2.10272e-06
1.05683e-06
8.31596e-07
3.69588e-06
5.59459e-06
5.58129e-06
1.32986e-06
5.26652e-06
5.27247e-06
1.69831e-05
8.58489e-06
1.2851e-06
5.24815e-06
5.25718e-06
2.20306e-06
9.01568e-07
3.53691e-06
1.0782e-06
2.23634e-06
8.51678e-07
3.65968e-06
3.48729e-06
8.82722e-06
4.16763e-06
5.85718e-06
3.48654e-06
8.82638e-06
4.16491e-06
5.84989e-06
2.10339e-06
1.04902e-06
8.2847e-07
3.69669e-06
2.10366e-06
1.05687e-06
8.29893e-07
3.69256e-06
1.70353e-05
8.57902e-06
1.69765e-05
8.57865e-06
1.29621e-06
5.25246e-06
5.24647e-06
8.40775e-06
8.40619e-06
3.50167e-06
5.78238e-06
3.50114e-06
5.76704e-06
8.39924e-06
8.41319e-06
3.4991e-06
5.77764e-06
3.49744e-06
5.7488e-06
3.50591e-06
5.77419e-06
3.50416e-06
5.75673e-06
8.38317e-06
8.39915e-06
3.50184e-06
5.75939e-06
3.50118e-06
5.75492e-06
8.39301e-06
8.39324e-06
1.28135e-05
4.23479e-06
1.13899e-05
4.87674e-06
1.13903e-05
4.8804e-06
1.28162e-05
2.30002e-05
7.24685e-06
9.65441e-06
7.28758e-06
2.30922e-05
1.93806e-05
1.28363e-05
4.24713e-06
4.89425e-06
1.1414e-05
4.8958e-06
1.14118e-05
1.28422e-05
2.30478e-05
7.26183e-06
9.67912e-06
7.30233e-06
2.31468e-05
1.94222e-05
1.01143e-05
2.28149e-05
2.28424e-05
2.27967e-05
2.28245e-05
1.01166e-05
4.7261e-06
1.00802e-05
5.70074e-06
2.94971e-06
2.95834e-06
1.0069e-05
4.71703e-06
4.73549e-06
1.01266e-05
5.72367e-06
2.95684e-06
2.96572e-06
1.0111e-05
4.72687e-06
1.2807e-05
4.21917e-06
1.13961e-05
4.87967e-06
1.13967e-05
4.8741e-06
1.28133e-05
2.31225e-05
7.31151e-06
9.64403e-06
2.2941e-05
7.24753e-06
1.28097e-05
4.2195e-06
1.13928e-05
4.86975e-06
1.28071e-05
1.13917e-05
4.87012e-06
2.29309e-05
7.26581e-06
9.6371e-06
7.34339e-06
2.31641e-05
1.92711e-05
1.92458e-05
1.28241e-05
4.22332e-06
4.87818e-06
1.14031e-05
4.87924e-06
1.14096e-05
1.28235e-05
2.31564e-05
7.32398e-06
9.66392e-06
2.29867e-05
7.25671e-06
1.28321e-05
4.22914e-06
4.88429e-06
1.14159e-05
1.28331e-05
4.87983e-06
1.14108e-05
2.29525e-05
7.26992e-06
9.65232e-06
7.35062e-06
2.31704e-05
1.936e-05
1.93117e-05
9.92051e-06
2.25152e-05
2.24969e-05
2.25703e-05
2.25634e-05
9.92439e-06
4.66402e-06
2.92872e-06
1.00222e-05
5.64369e-06
4.68024e-06
2.92138e-06
1.00124e-05
4.6686e-06
2.9302e-06
1.00496e-05
5.64601e-06
4.68711e-06
2.92146e-06
1.00336e-05
9.96769e-06
2.26751e-05
2.26854e-05
9.9767e-06
2.26039e-05
2.26031e-05
4.66546e-06
9.97113e-06
5.64379e-06
2.91906e-06
2.92522e-06
9.97396e-06
4.65126e-06
4.66934e-06
9.97258e-06
5.64375e-06
2.91656e-06
2.92414e-06
9.98197e-06
4.65302e-06
5.49719e-05
3.89998e-06
4.98597e-05
4.16508e-06
2.34762e-05
4.6294e-06
7.39052e-06
5.63613e-06
2.3237e-05
7.17278e-06
5.06776e-05
4.09095e-06
1.10322e-05
4.83261e-06
1.31029e-05
1.08338e-05
4.82561e-06
5.12441e-06
5.72081e-06
6.39302e-06
1.16884e-05
1.07941e-05
5.49045e-05
3.89101e-06
4.16115e-06
4.9871e-05
4.61813e-06
2.34338e-05
7.38269e-06
5.60347e-06
2.31869e-05
7.16263e-06
5.05846e-05
4.07914e-06
4.81532e-06
1.10111e-05
1.30772e-05
4.81035e-06
1.08085e-05
5.12222e-06
5.69179e-06
6.38528e-06
3.43733e-07
3.24777e-07
3.3451e-07
3.33707e-07
3.3296e-07
3.32075e-07
3.47705e-07
6.35959e-07
7.03995e-07
6.68185e-07
6.68172e-07
6.69568e-07
6.69532e-07
6.2478e-07
4.85263e-07
4.69496e-07
5.08583e-07
5.26445e-07
5.18564e-07
4.75195e-07
4.82351e-07
4.83113e-07
4.67378e-07
5.06351e-07
5.24623e-07
5.1645e-07
4.72752e-07
4.80556e-07
1.56739e-06
2.20158e-06
2.3686e-06
1.47037e-06
2.42623e-06
1.46673e-06
1.55881e-06
1.14691e-06
1.08561e-06
1.28355e-06
1.01226e-06
1.26575e-06
1.02916e-06
1.14942e-06
1.70937e-06
2.91243e-06
3.44705e-06
2.0075e-06
2.04309e-06
2.78715e-06
1.71449e-06
9.36522e-07
9.36186e-07
8.69292e-07
8.68161e-07
8.7778e-07
9.22615e-07
9.58386e-07
1.16275e-05
1.07454e-05
1.55985e-06
2.19719e-06
1.46588e-06
2.3651e-06
1.46102e-06
2.41957e-06
1.55329e-06
1.14085e-06
1.0802e-06
1.00803e-06
1.27996e-06
1.02317e-06
1.25811e-06
1.14443e-06
9.29718e-07
9.30305e-07
8.62271e-07
8.62455e-07
8.70808e-07
9.15571e-07
9.52372e-07
1.70334e-06
2.90693e-06
3.43394e-06
2.00453e-06
2.03392e-06
2.7798e-06
1.71004e-06
8.93056e-06
8.91675e-05
8.9216e-05
4.59207e-05
4.58899e-05
7.4351e-06
4.30494e-06
2.887e-06
9.63754e-06
4.97693e-06
4.56545e-06
2.75229e-06
9.04155e-06
4.30028e-06
2.88322e-06
9.61941e-06
4.96299e-06
4.56281e-06
2.74825e-06
9.01873e-06
2.64428e-06
1.33529e-06
1.81317e-06
1.81233e-06
1.80938e-06
1.80834e-06
2.60438e-06
9.84902e-06
2.2072e-05
2.20418e-05
9.45678e-06
4.23891e-05
4.2345e-05
4.42111e-06
1.88435e-05
5.11492e-06
2.49525e-06
2.71195e-06
2.03596e-05
4.42006e-06
4.41721e-06
1.8825e-05
5.10019e-06
2.49502e-06
2.70882e-06
2.03327e-05
4.41795e-06
1.92968e-05
1.93521e-05
9.98446e-06
2.26268e-05
2.26525e-05
2.26539e-05
2.26822e-05
9.97901e-06
4.67846e-06
1.0001e-05
5.64803e-06
2.93142e-06
1.00002e-05
4.67146e-06
2.93488e-06
4.68837e-06
1.00411e-05
5.67258e-06
2.94003e-06
1.00384e-05
4.68197e-06
2.94359e-06
1.92848e-05
1.93072e-05
1.93287e-05
1.93567e-05
9.95448e-06
2.25841e-05
2.26123e-05
9.95545e-06
2.25474e-05
2.25709e-05
4.67417e-06
2.93516e-06
5.64609e-06
9.97885e-06
9.97457e-06
2.93607e-06
4.67098e-06
4.68534e-06
2.94081e-06
5.66633e-06
1.00127e-05
1.00117e-05
2.94286e-06
4.68092e-06
4.66776e-06
9.9881e-06
2.9336e-06
5.64126e-06
4.67402e-06
9.98878e-06
2.93101e-06
4.67886e-06
1.00286e-05
2.94188e-06
5.66241e-06
4.68526e-06
1.00285e-05
2.9388e-06
9.93712e-06
2.24935e-05
2.25083e-05
2.25159e-05
2.25383e-05
9.94864e-06
1.28328e-05
4.23858e-06
1.13943e-05
4.88939e-06
1.1395e-05
4.89735e-06
1.28344e-05
2.30658e-05
7.27052e-06
9.68988e-06
7.31571e-06
2.31474e-05
1.28149e-05
1.13911e-05
4.87623e-06
4.22792e-06
1.28129e-05
1.13902e-05
4.87227e-06
2.29606e-05
9.63819e-06
7.23883e-06
2.31014e-05
7.29387e-06
2.30943e-05
7.28728e-06
9.64943e-06
2.29826e-05
7.23969e-06
1.28106e-05
4.2233e-06
1.13904e-05
4.86898e-06
1.28118e-05
1.13917e-05
4.87201e-06
1.28288e-05
1.13951e-05
4.88628e-06
4.22809e-06
1.28297e-05
1.13934e-05
4.87682e-06
2.29789e-05
9.63505e-06
7.24397e-06
7.30522e-06
2.31064e-05
2.31251e-05
7.30828e-06
9.65682e-06
2.3027e-05
7.25496e-06
1.28212e-05
4.22152e-06
1.1392e-05
4.86514e-06
1.13941e-05
4.87356e-06
1.28197e-05
1.00656e-05
2.27596e-05
2.27399e-05
2.28224e-05
2.28043e-05
1.00404e-05
4.71376e-06
1.0078e-05
5.68821e-06
2.93513e-06
1.00923e-05
2.94438e-06
4.69308e-06
4.70595e-06
1.00821e-05
5.6932e-06
2.93384e-06
2.94333e-06
1.00987e-05
4.68713e-06
1.93821e-05
1.92838e-05
1.93261e-05
9.95909e-06
2.2675e-05
2.26573e-05
9.97853e-06
2.26043e-05
2.2585e-05
4.66642e-06
2.92354e-06
5.64045e-06
9.96466e-06
2.92851e-06
9.97288e-06
4.65298e-06
4.66388e-06
2.92047e-06
5.63555e-06
9.94941e-06
9.96124e-06
2.92603e-06
4.65111e-06
4.66805e-06
1.0034e-05
2.93424e-06
5.64288e-06
2.92705e-06
4.68784e-06
1.00171e-05
4.66479e-06
1.00328e-05
2.93275e-06
5.63983e-06
4.68285e-06
1.00125e-05
2.92502e-06
9.90851e-06
2.24818e-05
2.2464e-05
2.25368e-05
2.25212e-05
9.90254e-06
1.92619e-05
1.93126e-05
1.28508e-05
4.25117e-06
1.14185e-05
4.90672e-06
1.14154e-05
4.90933e-06
1.28615e-05
2.30913e-05
7.29877e-06
9.71527e-06
7.33774e-06
2.31894e-05
1.28432e-05
4.89456e-06
1.1418e-05
4.24315e-06
1.28405e-05
4.89085e-06
1.14173e-05
2.30197e-05
9.66547e-06
7.25211e-06
2.31541e-05
7.3095e-06
2.31546e-05
7.30365e-06
9.67751e-06
2.30428e-05
7.25485e-06
1.28388e-05
4.23816e-06
4.88544e-06
1.14159e-05
1.28396e-05
4.88995e-06
1.14185e-05
1.28647e-05
1.14237e-05
4.90551e-06
4.24538e-06
1.28612e-05
1.14233e-05
4.89857e-06
2.30502e-05
9.70875e-06
7.2747e-06
7.33779e-06
2.31792e-05
2.31907e-05
7.33929e-06
9.72289e-06
2.30819e-05
7.28833e-06
1.28609e-05
4.23912e-06
1.14216e-05
4.88745e-06
1.14246e-05
4.89563e-06
1.28607e-05
1.28438e-05
4.24924e-06
4.90002e-06
1.14054e-05
4.90769e-06
1.14079e-05
1.2844e-05
2.30918e-05
7.27977e-06
9.71239e-06
7.32906e-06
2.3176e-05
1.28381e-05
4.25061e-06
1.14049e-05
4.90035e-06
1.14061e-05
4.90654e-06
1.28416e-05
2.30657e-05
7.28772e-06
9.69972e-06
7.32968e-06
2.31566e-05
1.28325e-05
4.89632e-06
1.14036e-05
4.23604e-06
1.28361e-05
4.88535e-06
1.13969e-05
2.29986e-05
9.63701e-06
7.23425e-06
7.30056e-06
2.31178e-05
2.315e-05
7.31321e-06
9.66945e-06
2.30558e-05
7.25447e-06
1.28186e-05
4.22709e-06
4.86855e-06
1.13852e-05
4.88065e-06
1.13942e-05
1.28135e-05
1.28381e-05
1.14043e-05
4.89724e-06
4.2379e-06
1.28382e-05
1.13993e-05
4.88769e-06
2.30024e-05
9.67869e-06
7.25336e-06
7.31827e-06
2.31307e-05
2.31469e-05
7.32514e-06
9.69695e-06
2.30426e-05
7.27144e-06
1.28296e-05
4.22909e-06
1.13891e-05
4.87315e-06
1.13971e-05
4.8838e-06
1.28259e-05
1.01412e-05
2.28988e-05
2.28891e-05
2.28846e-05
2.28779e-05
1.01433e-05
4.74433e-06
1.01345e-05
5.72222e-06
2.96238e-06
1.01151e-05
2.96866e-06
4.73628e-06
4.73639e-06
1.01404e-05
5.72843e-06
2.96126e-06
2.96777e-06
1.01226e-05
4.72983e-06
1.94278e-05
1.94082e-05
1.94415e-05
1.01082e-05
2.28953e-05
2.28843e-05
1.01201e-05
2.28699e-05
2.28511e-05
4.71683e-06
2.94069e-06
5.70028e-06
1.01034e-05
2.95015e-06
1.01127e-05
4.69798e-06
4.71422e-06
2.93728e-06
5.69896e-06
1.00944e-05
1.01081e-05
2.94785e-06
4.69622e-06
4.72006e-06
1.01291e-05
2.96124e-06
5.70429e-06
2.95134e-06
4.73571e-06
1.01321e-05
4.71668e-06
1.0134e-05
2.95994e-06
5.70484e-06
4.73059e-06
1.01341e-05
2.94942e-06
1.00615e-05
2.27444e-05
2.27235e-05
2.28178e-05
2.28026e-05
1.00449e-05
1.94052e-05
1.94424e-05
1.28575e-05
4.25837e-06
4.91621e-06
1.14282e-05
4.91767e-06
1.14248e-05
1.287e-05
2.31203e-05
7.30982e-06
9.73615e-06
7.35157e-06
2.3226e-05
1.28598e-05
4.25942e-06
4.91626e-06
1.14279e-05
4.91886e-06
1.14249e-05
1.28701e-05
2.31274e-05
7.3035e-06
9.73044e-06
7.34595e-06
2.32256e-05
1.28725e-05
4.91568e-06
1.14317e-05
4.25287e-06
1.287e-05
4.90786e-06
1.14299e-05
2.30859e-05
9.72417e-06
7.26834e-06
7.33721e-06
2.32054e-05
2.32307e-05
7.34743e-06
9.74297e-06
2.31226e-05
7.29171e-06
1.28661e-05
4.24397e-06
4.8915e-06
1.14186e-05
4.90333e-06
1.1428e-05
1.28621e-05
1.28712e-05
4.91436e-06
1.14311e-05
4.25196e-06
1.28694e-05
4.90496e-06
1.14291e-05
2.30698e-05
9.71235e-06
7.26351e-06
7.33175e-06
2.31866e-05
2.32188e-05
7.34137e-06
9.73221e-06
2.31162e-05
7.28558e-06
1.28639e-05
4.24233e-06
4.88685e-06
1.14175e-05
4.8996e-06
1.14272e-05
1.28592e-05
1.93576e-05
1.94165e-05
1.0087e-05
2.28168e-05
2.28448e-05
1.00967e-05
2.28087e-05
2.28335e-05
4.69859e-06
2.92779e-06
5.67759e-06
1.00571e-05
4.68167e-06
2.93669e-06
1.00621e-05
4.70784e-06
2.93014e-06
5.6954e-06
1.00944e-05
4.68909e-06
2.94115e-06
1.01043e-05
4.70114e-06
1.00745e-05
2.94801e-06
5.68117e-06
4.71604e-06
2.93779e-06
1.00785e-05
4.71067e-06
1.01213e-05
2.95474e-06
5.70044e-06
4.72641e-06
2.9431e-06
1.01241e-05
1.00459e-05
2.27227e-05
2.27358e-05
1.00315e-05
2.27806e-05
2.28025e-05
1.93463e-05
1.93752e-05
1.93969e-05
1.94316e-05
1.93116e-05
1.92949e-05
1.93335e-05
1.93084e-05
9.98132e-06
2.25472e-05
2.25355e-05
2.25236e-05
2.25185e-05
1.00328e-05
4.68462e-06
2.94405e-06
9.96732e-06
5.65943e-06
4.68337e-06
9.98062e-06
2.94477e-06
4.69196e-06
2.94804e-06
9.99704e-06
5.66867e-06
4.69259e-06
1.00054e-05
2.94739e-06
9.97386e-06
2.24899e-05
2.25015e-05
9.94267e-06
2.24907e-05
2.24966e-05
4.70362e-06
1.00002e-05
5.67552e-06
2.95576e-06
9.97523e-06
4.70515e-06
2.95662e-06
4.70918e-06
1.00131e-05
5.67971e-06
2.95518e-06
9.99448e-06
4.70833e-06
2.95719e-06
1.92388e-05
1.93443e-05
1.92154e-05
1.93313e-05
1.00849e-05
2.26209e-05
2.26001e-05
1.00398e-05
2.26472e-05
2.2621e-05
4.73155e-06
2.91618e-06
5.74624e-06
9.94775e-06
1.00111e-05
2.96547e-06
4.67416e-06
4.73135e-06
2.91239e-06
5.73599e-06
9.92762e-06
9.9993e-06
2.96265e-06
4.67143e-06
4.71162e-06
9.99947e-06
2.96456e-06
5.70273e-06
4.72029e-06
1.00337e-05
2.95593e-06
4.7124e-06
1.00054e-05
2.96313e-06
5.69677e-06
4.72241e-06
1.00277e-05
2.95365e-06
1.00699e-05
2.25471e-05
2.25109e-05
2.273e-05
2.26967e-05
1.02726e-05
1.28082e-05
4.21263e-06
1.13954e-05
4.85925e-06
1.13965e-05
4.85828e-06
1.28112e-05
2.31045e-05
7.31161e-06
9.62697e-06
2.29347e-05
7.24129e-06
1.28131e-05
4.21445e-06
1.13938e-05
4.86251e-06
1.13923e-05
1.28127e-05
4.85832e-06
2.29022e-05
7.2482e-06
9.61604e-06
7.33122e-06
2.31243e-05
1.2821e-05
1.14039e-05
4.88499e-06
4.22521e-06
1.28123e-05
1.13993e-05
4.88989e-06
2.29071e-05
9.62412e-06
7.2768e-06
2.31241e-05
7.42359e-06
2.32236e-05
7.38781e-06
9.66684e-06
2.29291e-05
7.28572e-06
1.28062e-05
4.22757e-06
1.1319e-05
4.8883e-06
1.27484e-05
1.13916e-05
4.87893e-06
1.28115e-05
1.1402e-05
4.86115e-06
4.21685e-06
1.28074e-05
1.13968e-05
4.86466e-06
2.28438e-05
9.5931e-06
7.24565e-06
7.39221e-06
2.30581e-05
2.3167e-05
7.36436e-06
9.63729e-06
2.28802e-05
7.25913e-06
1.27947e-05
4.21891e-06
1.13153e-05
4.86269e-06
1.13883e-05
4.8536e-06
1.27324e-05
9.87343e-06
2.24322e-05
2.24149e-05
2.243e-05
2.24135e-05
9.90642e-06
4.6485e-06
2.92872e-06
9.93846e-06
5.62686e-06
9.94239e-06
4.65667e-06
2.92611e-06
4.64706e-06
2.92496e-06
9.91646e-06
5.61306e-06
2.92169e-06
4.65522e-06
9.91751e-06
9.88492e-06
2.24502e-05
2.24347e-05
2.24275e-05
9.87359e-06
2.241e-05
4.65908e-06
9.94382e-06
5.63492e-06
2.93248e-06
9.92787e-06
2.93493e-06
4.65519e-06
4.65752e-06
9.91264e-06
5.61853e-06
2.92775e-06
2.93007e-06
9.90012e-06
4.65347e-06
1.92391e-05
1.92112e-05
1.91704e-05
1.92821e-05
9.94377e-06
2.24715e-05
2.24549e-05
9.90553e-06
2.24808e-05
2.24649e-05
4.67624e-06
2.89283e-06
5.69272e-06
9.86185e-06
2.94085e-06
9.93458e-06
4.6178e-06
4.673e-06
2.89053e-06
5.67415e-06
9.82471e-06
9.89733e-06
2.93713e-06
4.61403e-06
4.65769e-06
9.93573e-06
2.94061e-06
5.65496e-06
2.93161e-06
4.66794e-06
9.96004e-06
4.65528e-06
9.90157e-06
2.93636e-06
5.63848e-06
4.66593e-06
9.92307e-06
2.92784e-06
9.92598e-06
2.23452e-05
2.23382e-05
2.25345e-05
2.25237e-05
1.01269e-05
1.91355e-05
1.92472e-05
1.2833e-05
4.22002e-06
1.14044e-05
4.8674e-06
1.14124e-05
4.87197e-06
1.28287e-05
2.31663e-05
7.3385e-06
9.68268e-06
2.30041e-05
7.26296e-06
1.28474e-05
4.22736e-06
1.14211e-05
4.88364e-06
1.14146e-05
1.28517e-05
4.87557e-06
2.29543e-05
7.25785e-06
9.66101e-06
7.34754e-06
2.31634e-05
1.28145e-05
4.87823e-06
1.14024e-05
4.21863e-06
1.28157e-05
4.88063e-06
1.13926e-05
2.28748e-05
9.61645e-06
7.2714e-06
2.30832e-05
7.41945e-06
2.32029e-05
7.38924e-06
9.66451e-06
2.29219e-05
7.28459e-06
1.27942e-05
4.21927e-06
4.87448e-06
1.13026e-05
1.2727e-05
4.86663e-06
1.13783e-05
1.28106e-05
1.14026e-05
4.8642e-06
4.21295e-06
1.28162e-05
1.13913e-05
4.86483e-06
2.28438e-05
9.58195e-06
7.235e-06
7.38596e-06
2.30447e-05
2.31787e-05
7.36864e-06
9.63951e-06
2.29072e-05
7.25701e-06
1.27857e-05
4.21308e-06
1.12989e-05
4.8569e-06
1.13755e-05
4.84937e-06
1.27136e-05
1.27854e-05
4.20383e-06
4.84759e-06
1.13683e-05
4.85121e-06
1.13735e-05
1.27845e-05
2.30976e-05
7.29876e-06
9.61011e-06
7.22458e-06
2.29375e-05
1.27953e-05
4.21114e-06
4.86372e-06
1.13821e-05
4.85463e-06
1.27986e-05
1.1374e-05
2.28863e-05
7.22791e-06
9.5944e-06
7.31273e-06
2.31003e-05
1.27967e-05
4.20499e-06
1.13714e-05
4.85288e-06
1.13769e-05
4.85704e-06
1.27949e-05
2.31213e-05
7.3158e-06
9.64795e-06
2.29562e-05
7.23975e-06
1.28083e-05
4.21277e-06
1.13862e-05
4.86901e-06
1.28122e-05
1.13778e-05
4.85998e-06
2.29125e-05
7.23514e-06
9.62659e-06
7.32435e-06
2.31269e-05
1.27769e-05
4.84654e-06
1.13696e-05
4.20012e-06
1.2777e-05
4.84692e-06
1.13626e-05
2.28017e-05
9.55923e-06
7.22849e-06
7.37224e-06
2.30165e-05
2.31293e-05
7.34345e-06
9.60319e-06
2.28481e-05
7.23864e-06
1.27597e-05
4.20092e-06
4.84732e-06
1.12818e-05
4.83795e-06
1.13529e-05
1.27009e-05
1.2784e-05
1.1372e-05
4.85125e-06
4.20001e-06
1.27859e-05
1.13643e-05
4.85169e-06
2.28241e-05
9.55461e-06
7.21976e-06
7.36788e-06
2.30318e-05
2.31537e-05
7.34702e-06
9.60934e-06
2.28756e-05
7.23699e-06
1.2764e-05
4.20033e-06
1.12818e-05
4.84838e-06
1.13534e-05
4.8398e-06
1.27004e-05
9.93344e-06
2.25e-05
2.24832e-05
2.25581e-05
2.25423e-05
9.93924e-06
4.67728e-06
2.94114e-06
1.00604e-05
5.66096e-06
1.00466e-05
4.69571e-06
2.93293e-06
4.676e-06
2.93735e-06
1.00438e-05
5.64715e-06
2.92838e-06
4.69429e-06
1.00262e-05
9.97854e-06
2.26807e-05
2.2665e-05
2.25998e-05
9.98703e-06
2.25806e-05
4.6781e-06
9.99568e-06
5.66061e-06
2.92775e-06
1.00009e-05
2.93567e-06
4.66239e-06
4.67668e-06
9.96447e-06
5.64484e-06
2.92237e-06
2.93065e-06
9.97311e-06
4.66054e-06
1.93324e-05
1.92767e-05
1.91397e-05
1.9271e-05
9.92568e-06
2.24862e-05
2.24705e-05
9.90642e-06
2.24563e-05
2.24413e-05
4.66316e-06
2.87873e-06
5.67381e-06
9.819e-06
2.92886e-06
9.91493e-06
4.59641e-06
4.65957e-06
2.8764e-06
5.65283e-06
9.78289e-06
9.87838e-06
2.92455e-06
4.59225e-06
4.64781e-06
9.96471e-06
2.93253e-06
5.64149e-06
2.92068e-06
4.66717e-06
9.96339e-06
4.645e-06
9.92935e-06
2.9274e-06
5.62188e-06
4.66502e-06
9.9269e-06
2.9162e-06
9.88224e-06
2.22323e-05
2.22237e-05
2.24483e-05
2.24366e-05
1.00663e-05
1.90972e-05
1.92301e-05
1.28118e-05
4.21101e-06
4.85555e-06
1.13757e-05
4.86473e-06
1.13922e-05
1.2803e-05
2.31673e-05
7.32822e-06
9.67203e-06
7.24778e-06
2.30187e-05
1.28358e-05
4.22352e-06
4.8851e-06
1.14136e-05
4.87217e-06
1.28447e-05
1.13989e-05
2.29422e-05
7.23782e-06
9.63679e-06
7.32994e-06
2.31402e-05
1.28095e-05
4.20799e-06
4.84999e-06
1.13756e-05
4.85876e-06
1.13915e-05
1.28016e-05
2.31486e-05
7.32431e-06
9.66377e-06
2.29996e-05
7.24465e-06
1.28327e-05
4.22082e-06
4.8796e-06
1.14127e-05
1.28415e-05
4.86653e-06
1.13981e-05
2.29252e-05
7.23585e-06
9.632e-06
7.32752e-06
2.31248e-05
1.27761e-05
4.84964e-06
1.13709e-05
4.19662e-06
1.27833e-05
4.84647e-06
1.13577e-05
2.27985e-05
9.54532e-06
7.219e-06
7.36681e-06
2.30001e-05
2.31383e-05
7.34799e-06
9.60392e-06
2.28734e-05
7.23684e-06
1.27507e-05
4.19483e-06
4.84146e-06
1.12644e-05
4.83342e-06
1.13411e-05
1.26811e-05
1.27782e-05
4.84382e-06
1.13711e-05
4.1936e-06
1.27844e-05
4.8409e-06
1.13583e-05
2.27918e-05
9.54484e-06
7.21606e-06
7.36422e-06
2.29954e-05
2.31291e-05
7.34612e-06
9.60271e-06
2.28611e-05
7.2351e-06
1.27536e-05
4.19179e-06
4.83539e-06
1.12657e-05
4.82736e-06
1.1342e-05
1.26846e-05
1.93217e-05
1.92811e-05
1.9339e-05
1.92857e-05
9.90524e-06
2.25021e-05
2.24787e-05
9.8877e-06
2.24715e-05
2.24414e-05
4.65435e-06
2.87948e-06
5.66016e-06
9.79964e-06
4.58897e-06
2.92603e-06
9.89465e-06
4.65331e-06
2.87526e-06
5.64659e-06
9.78247e-06
4.58607e-06
2.92187e-06
9.88004e-06
4.63898e-06
9.94208e-06
2.92607e-06
5.62856e-06
4.65666e-06
2.91678e-06
9.94162e-06
4.6384e-06
9.93545e-06
2.9227e-06
5.61632e-06
4.65777e-06
2.9128e-06
9.93111e-06
9.85667e-06
2.22437e-05
2.2208e-05
1.00383e-05
2.24622e-05
2.24294e-05
1.91284e-05
1.92568e-05
1.90999e-05
1.92352e-05
1.17385e-05
1.08369e-05
1.17129e-05
1.0817e-05
9.07479e-06
8.94312e-05
8.94563e-05
4.64605e-05
4.6455e-05
7.47194e-06
4.37298e-06
2.92207e-06
9.77491e-06
5.04573e-06
4.64897e-06
9.23008e-06
2.77995e-06
4.36903e-06
2.91838e-06
9.75349e-06
5.03262e-06
4.64645e-06
9.20476e-06
2.7762e-06
2.65378e-06
1.32549e-06
1.79632e-06
1.79607e-06
2.59965e-06
1.79872e-06
1.79811e-06
1.00798e-05
2.25393e-05
2.25072e-05
9.68336e-06
4.30971e-05
4.30613e-05
4.49168e-06
1.89933e-05
5.18391e-06
2.47736e-06
2.05899e-05
4.45225e-06
2.72364e-06
4.48847e-06
1.89624e-05
5.16901e-06
2.4785e-06
2.05623e-05
4.45079e-06
2.72177e-06
9.71202e-05
9.71566e-05
7.31104e-06
1.73024e-06
1.73059e-06
2.83336e-06
4.39568e-05
2.46031e-06
4.46956e-06
4.39156e-05
2.46202e-06
4.46861e-06
5.49494e-05
3.89592e-06
4.98857e-05
4.1559e-06
2.34877e-05
4.6109e-06
7.35646e-06
5.56852e-06
2.31592e-05
7.13557e-06
5.0618e-05
4.08452e-06
1.10275e-05
4.80618e-06
1.0828e-05
1.30821e-05
4.8022e-06
5.10834e-06
5.66271e-06
6.36323e-06
1.55938e-06
2.19691e-06
2.36005e-06
1.45866e-06
2.42996e-06
1.45833e-06
1.54576e-06
1.14008e-06
1.07553e-06
1.27321e-06
9.98423e-07
1.01773e-06
1.26128e-06
1.14077e-06
1.70101e-06
2.91281e-06
3.46741e-06
1.99397e-06
2.79184e-06
2.0402e-06
1.70298e-06
9.32089e-07
9.28205e-07
8.62654e-07
8.58808e-07
8.71098e-07
9.18009e-07
9.51537e-07
1.56174e-06
2.19546e-06
2.35813e-06
1.45981e-06
2.42452e-06
1.45922e-06
1.54916e-06
1.14625e-06
1.08444e-06
1.28076e-06
1.00915e-06
1.14783e-06
1.26608e-06
1.02732e-06
1.70345e-06
2.9044e-06
3.4466e-06
1.99847e-06
2.78285e-06
1.70647e-06
2.03949e-06
9.34848e-07
9.31208e-07
8.65762e-07
8.63185e-07
9.20797e-07
9.54751e-07
8.74862e-07
2.48906e-06
1.4089e-06
1.48852e-06
1.25984e-06
9.57002e-07
1.11225e-06
2.93096e-06
1.99927e-06
1.63035e-06
9.29203e-07
8.33676e-07
9.58113e-07
2.48542e-06
1.41048e-06
1.49325e-06
1.26869e-06
9.69292e-07
1.12136e-06
2.92326e-06
2.0044e-06
1.63624e-06
9.32237e-07
8.39195e-07
9.62369e-07
8.99417e-06
8.92381e-05
8.9392e-05
4.6187e-05
4.62374e-05
7.45316e-06
4.33075e-06
2.89928e-06
9.7069e-06
5.00582e-06
9.13285e-06
4.59505e-06
2.76312e-06
4.33039e-06
2.89862e-06
9.68346e-06
4.99943e-06
2.76323e-06
4.59449e-06
9.11315e-06
2.64615e-06
1.33452e-06
1.80453e-06
1.80663e-06
1.8063e-06
1.80475e-06
2.60043e-06
9.95146e-06
2.22682e-05
2.22738e-05
4.27115e-05
9.55472e-06
4.27361e-05
4.44796e-06
1.89153e-05
5.14165e-06
2.48036e-06
2.04953e-05
2.71342e-06
4.43182e-06
4.44811e-06
1.89296e-05
5.13772e-06
2.48676e-06
2.7156e-06
2.05145e-05
4.43294e-06
1.16697e-05
1.07876e-05
9.69655e-05
9.71316e-05
7.30016e-06
1.74235e-06
1.74533e-06
2.82629e-06
4.38624e-05
2.46516e-06
4.45261e-06
4.39364e-05
2.47242e-06
4.45409e-06
1.5564e-06
2.19428e-06
2.36045e-06
1.45704e-06
2.42526e-06
1.45527e-06
1.54498e-06
1.13786e-06
1.07432e-06
1.27255e-06
9.97824e-07
1.01646e-06
1.25918e-06
1.13911e-06
1.6996e-06
2.91204e-06
3.4609e-06
1.995e-06
2.78995e-06
2.03784e-06
1.7027e-06