/*--------------------------------*- C++ -*----------------------------------*\
| =========                 |                                                 |
| \\      /  F ield         | OpenFOAM: The Open Source CFD Toolbox           |
|  \\    /   O peration     | Version:  v2006                                 |
|   \\  /    A nd           | Website:  www.openfoam.com                      |
|    \\/     M anipulation  |                                                 |
\*---------------------------------------------------------------------------*/
FoamFile
{
    version     2.0;
    format      ascii;
    class       volScalarField;
    location    "625";
    object      nut;
}
// * * * * * * * * * * * * * * * * * * * * * * * * * * * * * * * * * * * * * //

dimensions      [0 2 -1 0 0 0 0];


internalField   nonuniform List<scalar> 
14314
(
0.000228544
0.000216537
0.000220287
0.00019883
0.000233565
0.000200407
0.000208542
0.000181807
0.000188145
0.000211075
0.000218655
0.000195406
0.000210897
0.000216058
0.000220568
0.0002196
0.00019745
0.000218359
0.000220059
0.00019861
0.00018729
0.000183575
0.00020938
0.000212599
0.0002086
0.000202337
0.000191636
0.000176045
0.000211105
0.000217508
0.000211994
0.000213704
0.000220024
0.000202613
0.000210056
0.000198057
0.00018585
0.000221401
0.000214527
0.000213051
0.000183403
0.000186279
0.000208949
0.000201074
0.000177643
0.000211281
0.00020916
0.000221956
0.000233091
0.000229646
0.000204353
0.000184964
0.000206193
0.000101175
5.09081e-05
2.40122e-05
0.000100421
5.09461e-05
0.000228898
0.000241548
0.000233999
0.000238321
0.000150441
0.000221381
0.000108448
0.000234376
2.40371e-05
0.000146186
0.000206305
0.00022099
0.000105259
0.00019041
7.90549e-05
7.97958e-05
9.67586e-05
5.08688e-05
9.92833e-05
5.09316e-05
2.39612e-05
2.3981e-05
9.96742e-05
5.09034e-05
0.000101752
5.0944e-05
0.000237025
0.000236728
0.000239767
0.000229881
0.000222374
0.00023518
0.00023402
0.000144493
0.000104777
0.000234276
0.000209563
0.000150986
0.000100056
0.000229678
2.40068e-05
2.3998e-05
0.000152097
0.00023553
0.000108868
0.000220493
0.000155012
0.000236384
0.000105234
7.96367e-05
8.11995e-05
0.000197087
7.66059e-05
7.74358e-05
0.000108558
5.51579e-05
9.67466e-05
8.56229e-05
2.70291e-05
4.62931e-05
0.000106279
5.51155e-05
9.7084e-05
8.54729e-05
0.000246605
0.000235448
0.000241658
0.000236348
0.000245715
0.000239223
0.000243852
0.000140317
9.99749e-05
0.000217351
0.000201203
0.000137216
0.000105085
0.000215495
2.69797e-05
4.56942e-05
0.00013855
0.000226245
0.000100888
0.000203965
0.00013881
0.00022005
0.000103007
7.38936e-05
7.33027e-05
0.000181368
8.22135e-05
8.0911e-05
2.39867e-05
2.40059e-05
0.000188068
7.76628e-05
7.83353e-05
2.39833e-05
2.39781e-05
2.39965e-05
2.39967e-05
0.00018839
7.57991e-05
7.71274e-05
7.74866e-05
7.833e-05
0.000101662
5.09548e-05
0.000148233
0.000211852
0.000104161
0.000230004
0.000148955
0.000221176
0.000107578
0.000234348
0.000101231
5.08853e-05
5.08902e-05
0.000100341
0.000101757
5.08682e-05
5.09149e-05
0.000100748
0.000148181
0.000211652
0.000102299
0.000227479
0.000104023
0.000229275
0.000146069
0.000148938
0.000220846
0.000104132
0.000231083
0.000107448
0.000233665
0.000146621
0.000199773
8.12043e-05
8.19442e-05
2.40137e-05
2.39749e-05
2.39938e-05
0.000199729
7.73301e-05
7.81092e-05
8.08085e-05
8.16399e-05
2.39671e-05
2.39923e-05
0.000145441
0.000208896
0.000104494
0.000222148
0.000100473
5.10145e-05
0.000145184
0.000206501
0.00022143
0.000104668
0.000100979
5.09242e-05
5.09306e-05
0.000101787
0.000147163
0.000209727
0.000103908
0.000225599
0.000104668
0.000222978
0.000149209
0.000101147
5.09902e-05
5.10058e-05
0.000102176
0.000147147
0.000211748
0.00022742
0.000107039
0.00022348
0.000106255
0.000149773
0.000102415
5.09939e-05
0.000149831
0.000213761
0.000231115
0.000105628
0.00010216
5.09845e-05
0.000151264
0.000221558
0.000105796
0.000235444
0.000108517
0.000235239
0.000151726
0.000102815
5.0865e-05
5.09473e-05
0.000103027
0.000150815
0.00021758
0.000234231
0.000106691
0.000233215
0.000106416
0.000151674
0.000102615
5.09378e-05
5.09698e-05
0.00010303
0.000185593
7.93902e-05
8.0004e-05
2.4042e-05
2.40247e-05
2.40308e-05
0.000189482
8.06643e-05
8.17428e-05
8.03215e-05
8.11327e-05
2.40245e-05
2.40352e-05
0.000146612
0.000210088
0.000222281
0.000105864
0.000100758
5.10578e-05
0.000100966
5.10381e-05
0.000149195
0.000212949
0.000232387
0.000108831
0.000225911
0.000107368
0.000154596
0.000149538
0.000215871
0.000233228
0.000108694
0.000227162
0.000107548
0.000154732
0.000102014
5.10145e-05
5.10488e-05
0.000104379
0.000102198
5.09898e-05
5.10269e-05
0.000104452
2.40111e-05
2.40341e-05
0.000193034
7.98627e-05
8.14511e-05
7.96466e-05
8.0831e-05
2.40037e-05
2.40041e-05
2.402e-05
2.40272e-05
2.39752e-05
2.40061e-05
2.39853e-05
2.40058e-05
7.54143e-05
7.67486e-05
0.00018398
7.40294e-05
7.50275e-05
2.47901e-05
2.40135e-05
2.47733e-05
2.40093e-05
0.000182826
7.63867e-05
7.60253e-05
7.40301e-05
7.49642e-05
9.6952e-05
5.08428e-05
9.96249e-05
5.08851e-05
0.000140318
0.000101756
0.000224943
0.000207754
0.000145028
9.98997e-05
0.000222133
0.000140553
0.000103231
0.000226692
0.000206405
0.000145533
9.96926e-05
0.000221941
9.60522e-05
5.21887e-05
5.09541e-05
9.62988e-05
9.61393e-05
5.21267e-05
5.09025e-05
9.61539e-05
0.000139696
0.000206225
0.000102142
0.000219412
9.994e-05
0.000220709
0.000139549
0.000139851
0.000202198
0.000100579
0.000216917
9.94709e-05
0.000219147
0.000139316
7.66548e-05
7.73666e-05
0.000181899
7.37525e-05
7.37918e-05
2.39521e-05
2.39678e-05
2.47547e-05
2.39861e-05
0.000178807
7.46449e-05
7.35572e-05
7.35917e-05
7.34182e-05
2.47372e-05
2.39722e-05
0.000146548
0.000103558
0.000227524
0.000211119
0.000149211
0.000101564
0.000228015
0.000100139
5.09535e-05
0.000102199
5.09411e-05
0.000147434
0.000229595
0.000107044
0.000217634
0.000149871
0.000230144
0.000104253
9.84493e-05
5.21638e-05
5.09569e-05
9.727e-05
0.000145473
0.00020941
0.000102481
0.000226617
0.000101402
0.000228384
0.00014194
9.88343e-05
5.20939e-05
5.09337e-05
9.7341e-05
0.000146298
0.000215149
0.000227392
0.000102258
0.000230153
0.00010349
0.000142138
9.89974e-05
5.08232e-05
0.000102258
5.08405e-05
0.000145163
0.000234309
0.00010657
0.000219196
0.000151167
0.000232789
0.000103179
9.92778e-05
5.08959e-05
0.000102441
5.08844e-05
0.000142926
0.000204095
9.94571e-05
0.000218677
9.95046e-05
0.000224509
0.000137558
9.7476e-05
5.20628e-05
5.08496e-05
9.53267e-05
0.000143586
0.00021452
0.000222062
0.000100788
0.000228748
0.000102357
0.000138029
9.7773e-05
5.20477e-05
5.08788e-05
9.55885e-05
8.03794e-05
8.13985e-05
0.000197343
7.70144e-05
7.72614e-05
2.40015e-05
2.39858e-05
2.47318e-05
2.39929e-05
0.000194267
7.54701e-05
7.41139e-05
7.64328e-05
7.64313e-05
2.47118e-05
2.39795e-05
0.000151955
0.000236081
0.000108709
0.000221303
0.0001551
0.000236856
0.000104995
0.000102212
5.09557e-05
0.00010461
5.08974e-05
0.000102108
5.09332e-05
0.000104676
5.08855e-05
0.000149976
0.000218056
0.000230412
0.000100759
0.000235634
0.000104032
0.000140078
0.000149813
0.000218036
0.000230193
0.000100385
0.000235879
0.00010379
0.000139934
0.000100217
5.20287e-05
5.08827e-05
9.6306e-05
0.000100122
5.20246e-05
5.08734e-05
9.62482e-05
2.39891e-05
2.39894e-05
2.40005e-05
2.3986e-05
0.000193309
7.47521e-05
7.40567e-05
7.60228e-05
7.6606e-05
2.47281e-05
2.39862e-05
2.47093e-05
2.39794e-05
2.70759e-05
4.71122e-05
2.70535e-05
4.67798e-05
7.67962e-05
7.59951e-05
0.000197141
8.83343e-05
8.70478e-05
0.0002043
8.88343e-05
8.75335e-05
0.000108083
5.50778e-05
9.64713e-05
8.5206e-05
0.00014832
0.000103443
0.000222674
0.000214062
0.000140243
0.000109983
0.000225356
0.000147465
0.000101464
0.000219257
0.000203686
0.000139895
0.000107283
0.000221628
0.000159088
0.000218884
0.000109921
0.000229329
0.000158167
0.00020877
0.00010717
0.000225869
7.4637e-05
7.34191e-05
0.000186218
8.54555e-05
8.39678e-05
2.69927e-05
4.59005e-05
0.000193313
8.58892e-05
8.44955e-05
0.000145869
0.000103266
0.000229254
0.00021437
0.000141837
0.000108558
0.000228691
0.000105856
5.50145e-05
9.69962e-05
8.50848e-05
0.00014531
0.00022845
0.00010258
0.000206456
0.000141898
0.000226707
0.000105324
0.000154589
0.000218122
0.000108462
0.000229744
0.000153661
0.000207387
0.00022729
0.000105048
0.000243235
0.000231729
0.000232223
0.000222318
0.000244242
0.000234413
0.000230819
0.00024761
0.000242286
0.000242152
0.000228641
0.000248536
0.000242171
0.000237889
0.000245703
0.000236375
0.000241441
0.000223098
0.000247911
0.000232939
0.000236649
0.000247359
0.000238681
0.000242181
0.000245076
0.000243181
0.000224506
0.00023717
0.000230607
0.000247348
0.000227388
0.000242471
0.000235756
0.000244684
0.000220825
0.000231523
0.000234246
0.0001037
5.50022e-05
9.4941e-05
8.47496e-05
0.000140333
0.000219652
0.000101021
0.000199537
0.000137608
0.000216205
0.00010368
0.000103637
5.49679e-05
9.51254e-05
8.47135e-05
0.000148955
0.00020555
0.000105063
0.000216454
0.00014863
0.000199992
0.000216188
0.000103458
7.4519e-05
7.33912e-05
0.000186066
8.32936e-05
8.16101e-05
2.69419e-05
4.52226e-05
0.000189731
8.37045e-05
8.20891e-05
0.000138383
0.000225463
0.000100475
0.000199919
0.00013867
0.000218977
0.000102341
0.000101677
5.49361e-05
9.49992e-05
8.45951e-05
0.000101596
5.49312e-05
9.49373e-05
8.4578e-05
0.00014547
0.000204447
0.000218485
0.000102778
0.000145266
0.000199766
0.000217282
0.000102081
2.69699e-05
4.53744e-05
2.69371e-05
4.50058e-05
0.00018435
8.26467e-05
8.1349e-05
4.83141e-05
4.79597e-05
0.00010848
8.68674e-05
0.000108004
8.61809e-05
4.74359e-05
4.70367e-05
0.000106153
8.65594e-05
0.00010571
8.58247e-05
0.000103659
8.56044e-05
0.000103575
8.53679e-05
4.68025e-05
4.63242e-05
0.000101507
8.51581e-05
0.000101423
8.50555e-05
4.64675e-05
4.60903e-05
3.68654e-05
0.000101035
4.123e-05
9.5231e-05
4.12305e-05
9.52297e-05
3.6868e-05
2.03875e-05
7.90705e-05
5.09038e-05
7.94649e-05
2.04146e-05
2.40132e-05
3.68849e-05
9.94539e-05
9.49651e-05
4.12565e-05
9.46332e-05
4.12535e-05
3.68912e-05
2.04006e-05
7.92816e-05
5.09373e-05
7.9421e-05
2.043e-05
2.40264e-05
8.29229e-05
2.18451e-05
2.18506e-05
2.18383e-05
2.18438e-05
8.39138e-05
0.000106942
4.88986e-05
7.87471e-05
0.000132588
0.000131348
4.88787e-05
0.000107771
0.000106884
4.89542e-05
7.92196e-05
0.000132488
0.000130756
4.89259e-05
0.000107889
3.6867e-05
9.73679e-05
4.12561e-05
9.09723e-05
4.12479e-05
9.18082e-05
3.688e-05
2.04253e-05
7.77427e-05
5.08909e-05
2.03706e-05
7.68852e-05
3.68662e-05
9.85439e-05
4.12366e-05
9.35117e-05
3.68619e-05
4.12377e-05
9.24023e-05
2.03704e-05
7.62479e-05
5.08852e-05
7.70752e-05
2.04429e-05
2.39694e-05
2.39617e-05
3.6884e-05
0.00010046
9.31629e-05
4.12651e-05
9.42803e-05
4.12644e-05
3.68907e-05
2.04356e-05
7.87349e-05
5.09202e-05
2.03848e-05
7.7887e-05
3.68875e-05
0.000101419
9.54079e-05
4.12636e-05
3.68861e-05
9.47702e-05
4.12606e-05
2.03774e-05
7.70675e-05
5.09066e-05
7.80275e-05
2.04456e-05
2.40071e-05
2.39901e-05
8.18125e-05
2.17618e-05
2.17535e-05
2.17753e-05
2.17704e-05
8.09368e-05
0.000108632
0.000135734
4.88185e-05
7.86512e-05
0.000109883
0.000134607
4.88062e-05
0.000109479
0.000137533
4.88467e-05
8.00788e-05
0.000110681
0.000136661
4.88245e-05
8.35273e-05
2.1806e-05
2.18065e-05
8.43209e-05
2.1784e-05
2.1781e-05
0.000107609
4.87578e-05
7.80471e-05
0.00013051
0.00013339
4.87488e-05
0.000105241
0.000108388
4.87446e-05
7.92814e-05
0.000132384
0.000135451
4.87463e-05
0.000105857
9.67077e-06
0.000102712
1.07936e-05
0.000102439
2.05997e-05
9.8072e-05
7.81458e-05
9.11315e-05
2.03724e-05
8.14305e-05
1.03204e-05
0.000100808
4.27085e-05
9.23424e-05
3.62089e-05
4.34634e-05
9.5338e-05
9.27127e-05
8.97182e-05
8.47744e-05
3.4011e-05
3.68738e-05
9.6669e-06
0.000101478
0.00010056
1.07937e-05
9.67912e-05
2.05867e-05
7.79636e-05
9.1391e-05
2.03582e-05
8.10306e-05
1.03142e-05
0.000100311
9.23929e-05
4.26811e-05
3.61851e-05
9.43163e-05
4.34297e-05
9.12864e-05
8.98568e-05
8.3889e-05
0.000247674
0.000246641
0.000245445
0.000248698
0.000244985
0.000248287
0.000248417
0.000235486
0.000236036
0.00023623
0.000236891
0.000235158
0.000235972
0.000236003
0.000238143
0.000237285
0.000238611
0.000240343
0.000239457
0.000237241
0.000239106
0.000242813
0.000242161
0.00024371
0.000244418
0.000244045
0.000242238
0.000242933
0.000169097
0.000139376
0.000137418
0.000174319
0.00013309
0.000173557
0.000170841
0.000199292
0.000200602
0.000194444
0.000203299
0.000195236
0.000202915
0.000199354
0.00016181
0.000121906
0.000105332
0.000156845
0.000150344
0.000122703
0.000163338
0.000216302
0.000214158
0.000216778
0.000215027
0.000216581
0.00021631
0.000213444
3.37976e-05
3.65949e-05
0.000169711
0.000138379
0.000173848
0.000135279
0.000173845
0.000132457
0.000170125
0.000203933
0.000204673
0.000207082
0.000195879
0.00020756
0.000198939
0.0002026
0.0002211
0.000218156
0.00022186
0.000219742
0.000221662
0.000221866
0.000217601
0.000162711
0.000119737
0.00010478
0.000154896
0.000150722
0.000122216
0.000162939
8.34811e-05
6.04507e-06
6.04596e-06
1.13561e-05
1.13534e-05
8.56418e-05
0.000104669
0.000123263
5.05149e-05
8.18204e-05
0.000100858
0.000126126
5.31535e-05
0.000104366
0.000123009
5.04692e-05
8.07322e-05
0.000100684
0.000125438
5.31023e-05
0.000134493
0.000181617
0.000160921
0.000160513
0.000160873
0.000160578
0.000136825
7.90252e-05
2.31756e-05
2.31625e-05
7.91107e-05
1.21125e-05
1.21081e-05
0.000103981
2.64723e-05
8.05856e-05
0.000133445
0.000129078
2.43434e-05
0.000104744
0.000103586
2.64624e-05
7.94713e-05
0.000132147
0.000128204
2.43323e-05
0.000104227
2.39805e-05
2.39992e-05
8.25891e-05
2.17873e-05
2.17924e-05
2.17956e-05
2.18014e-05
8.23902e-05
0.000106648
4.87746e-05
7.80099e-05
0.000131137
4.87731e-05
0.000106482
0.000131216
0.000106514
4.88182e-05
7.83724e-05
0.000130999
4.88132e-05
0.000106448
0.000130862
2.39751e-05
2.39846e-05
2.39908e-05
2.40018e-05
8.11195e-05
2.17736e-05
2.17796e-05
8.17055e-05
2.17615e-05
2.1766e-05
0.000104599
0.000128004
7.66159e-05
4.87393e-05
4.87321e-05
0.000129534
0.000103074
0.000105107
0.000129484
7.78459e-05
4.87745e-05
4.87721e-05
0.000130475
0.000103764
0.000105295
4.87538e-05
0.000130925
7.69324e-05
0.000106197
4.87553e-05
0.000130244
0.000105699
4.87987e-05
0.000131043
7.80922e-05
0.0001063
4.87991e-05
0.000130848
7.98394e-05
2.17433e-05
2.17452e-05
2.17509e-05
2.17552e-05
7.91769e-05
3.68812e-05
0.000101492
4.12352e-05
9.64854e-05
4.1236e-05
9.63611e-05
3.68828e-05
2.04053e-05
8.01154e-05
5.09627e-05
8.04262e-05
2.04295e-05
3.68672e-05
4.12318e-05
9.52172e-05
0.000101168
3.68653e-05
4.1231e-05
9.49834e-05
2.03756e-05
5.08756e-05
7.77412e-05
2.04174e-05
7.85043e-05
2.04152e-05
7.91108e-05
5.08953e-05
2.03823e-05
7.85258e-05
3.6863e-05
0.000100795
4.12322e-05
9.39944e-05
3.6865e-05
4.12331e-05
9.47216e-05
3.68785e-05
4.12363e-05
9.64953e-05
0.000101688
3.68785e-05
4.12349e-05
9.62365e-05
2.03806e-05
5.08673e-05
7.85982e-05
7.94575e-05
2.04185e-05
2.04234e-05
8.01666e-05
5.09065e-05
2.03941e-05
7.95495e-05
3.68718e-05
0.000101253
4.12342e-05
9.49774e-05
4.12362e-05
9.58852e-05
3.68709e-05
8.69247e-05
2.18298e-05
2.18266e-05
2.18496e-05
2.18469e-05
8.65925e-05
0.000112026
4.8888e-05
8.13586e-05
0.000137587
4.89098e-05
0.000137322
0.000112115
0.000111947
4.89123e-05
8.19184e-05
0.000137967
0.000137611
4.89375e-05
0.000112023
2.40158e-05
2.39731e-05
2.39913e-05
8.43264e-05
2.18026e-05
2.18e-05
8.52838e-05
2.178e-05
2.17762e-05
0.000108723
0.000131402
7.89083e-05
4.87032e-05
0.000134467
4.87175e-05
0.000106096
0.000108743
0.00013256
7.97843e-05
4.86959e-05
4.87161e-05
0.000135491
0.000106186
0.000109945
4.88183e-05
0.000137274
7.96105e-05
0.000135863
0.00011162
4.87909e-05
0.000109934
4.88342e-05
0.000137818
8.05317e-05
0.000111551
4.88011e-05
0.000136759
8.24107e-05
2.17391e-05
2.17357e-05
2.17579e-05
2.17547e-05
8.14295e-05
2.3967e-05
2.39884e-05
3.68955e-05
9.93927e-05
4.12615e-05
9.51389e-05
4.12573e-05
9.45419e-05
3.69067e-05
2.0412e-05
7.95159e-05
5.09954e-05
7.94357e-05
2.04412e-05
3.68931e-05
9.54655e-05
4.12624e-05
0.000101498
3.68897e-05
9.55618e-05
4.12621e-05
2.03938e-05
5.09162e-05
7.86601e-05
2.04338e-05
7.92912e-05
2.0433e-05
7.95351e-05
5.09367e-05
2.03995e-05
7.91556e-05
3.68898e-05
0.000101696
9.55831e-05
4.12619e-05
3.68913e-05
9.56523e-05
4.1264e-05
3.69109e-05
4.12691e-05
9.5973e-05
0.000101766
3.69072e-05
4.1269e-05
9.62879e-05
2.0401e-05
5.09908e-05
7.96313e-05
8.0148e-05
2.04395e-05
2.04422e-05
8.00079e-05
5.10139e-05
2.04099e-05
7.98189e-05
3.69079e-05
0.00010204
4.1269e-05
9.66444e-05
4.1271e-05
9.657e-05
3.69091e-05
3.68943e-05
0.000101701
9.71402e-05
4.1248e-05
9.67847e-05
4.12505e-05
3.6895e-05
2.04153e-05
8.09881e-05
5.10029e-05
8.11244e-05
2.04404e-05
3.68866e-05
0.000101383
4.12478e-05
9.63843e-05
4.12488e-05
9.59702e-05
3.68903e-05
2.04056e-05
7.99754e-05
5.09732e-05
8.0023e-05
2.04326e-05
3.68853e-05
9.7445e-05
4.12466e-05
0.00010305
3.68882e-05
9.75792e-05
4.12392e-05
2.03886e-05
5.08751e-05
7.95884e-05
8.05208e-05
2.0424e-05
2.04332e-05
8.11719e-05
5.09319e-05
2.04053e-05
8.06178e-05
3.68727e-05
0.00010319
9.68763e-05
4.12265e-05
9.74821e-05
4.12363e-05
3.68684e-05
3.68883e-05
4.12477e-05
9.68712e-05
0.000102917
3.68874e-05
4.12425e-05
9.70632e-05
2.03885e-05
5.09432e-05
7.95455e-05
8.02098e-05
2.04264e-05
2.04306e-05
8.03458e-05
5.09722e-05
2.03993e-05
8.00163e-05
3.68815e-05
0.000103094
4.12318e-05
9.69499e-05
4.12404e-05
9.71375e-05
3.68784e-05
8.34933e-05
2.18694e-05
2.18695e-05
2.18633e-05
2.18647e-05
8.46684e-05
0.000106709
4.89671e-05
7.88376e-05
0.000131303
4.89309e-05
0.000129303
0.000107969
0.000106586
4.89968e-05
7.92567e-05
0.00013162
0.000129371
4.89634e-05
0.000107883
2.40311e-05
2.40232e-05
2.40364e-05
8.57237e-05
2.18694e-05
2.18688e-05
8.53321e-05
2.18632e-05
2.18606e-05
0.000110949
0.000136536
8.07523e-05
4.89281e-05
0.000136255
4.89395e-05
0.000111026
0.000111045
0.000137772
8.1784e-05
4.89355e-05
4.89548e-05
0.000137368
0.00011114
0.000110405
4.89605e-05
0.000133974
8.05443e-05
0.000135188
0.000109783
4.89672e-05
0.000110435
4.89882e-05
0.0001346
8.14849e-05
0.000109793
4.89914e-05
0.000136065
8.59443e-05
2.18249e-05
2.18216e-05
2.18477e-05
2.18463e-05
8.56374e-05
2.40255e-05
2.40396e-05
3.69045e-05
9.91253e-05
9.54277e-05
4.12733e-05
9.44155e-05
4.12685e-05
3.69177e-05
2.04218e-05
8.0269e-05
5.10353e-05
8.00302e-05
2.04535e-05
3.69046e-05
9.93617e-05
9.58432e-05
4.12735e-05
9.49017e-05
4.12688e-05
3.69158e-05
2.04226e-05
8.03243e-05
5.10228e-05
8.01412e-05
2.04519e-05
3.6922e-05
9.68187e-05
4.12786e-05
0.000103247
3.69186e-05
9.75419e-05
4.12777e-05
2.04141e-05
5.10252e-05
8.07933e-05
8.13123e-05
2.045e-05
2.04563e-05
8.09369e-05
5.10544e-05
2.0424e-05
8.08917e-05
3.69171e-05
0.000103964
9.84549e-05
4.1267e-05
9.82007e-05
4.12768e-05
3.69146e-05
3.69183e-05
9.71042e-05
4.12786e-05
0.000103382
3.6916e-05
9.77527e-05
4.12773e-05
2.04078e-05
5.10004e-05
8.05779e-05
8.11507e-05
2.04428e-05
2.04509e-05
8.09195e-05
5.10311e-05
2.04203e-05
8.08043e-05
3.69129e-05
0.00010407
9.85272e-05
4.12665e-05
9.82933e-05
4.12763e-05
3.691e-05
2.4002e-05
2.40242e-05
8.49193e-05
2.18463e-05
2.1852e-05
8.44866e-05
2.18446e-05
2.18498e-05
0.000110093
0.000135946
7.99579e-05
4.887e-05
0.000110144
0.000135811
4.8875e-05
0.000110776
0.000137588
8.1443e-05
4.89137e-05
0.000110909
0.000137224
4.89263e-05
0.000109679
4.88908e-05
0.000134419
7.97875e-05
0.000109185
0.000135182
4.8899e-05
0.000110211
4.89473e-05
0.000134965
8.11534e-05
0.000109601
0.000136142
4.89544e-05
8.51933e-05
2.18199e-05
2.18213e-05
8.50899e-05
2.18375e-05
2.18418e-05
2.39998e-05
2.40109e-05
2.40192e-05
2.40325e-05
2.39883e-05
2.39842e-05
2.39952e-05
2.39877e-05
7.70592e-05
2.1768e-05
2.17614e-05
2.1755e-05
2.1751e-05
7.68947e-05
0.000100762
0.000126946
4.87211e-05
7.46483e-05
0.000102247
4.87451e-05
0.000125047
0.000101546
0.000128635
4.87502e-05
7.58983e-05
0.000102981
4.87663e-05
0.00012697
7.75591e-05
2.17421e-05
2.17432e-05
7.80198e-05
2.17431e-05
2.17423e-05
0.000100188
4.87968e-05
7.442e-05
0.000122981
4.87427e-05
9.96043e-05
0.000124116
0.000100968
4.87994e-05
7.56178e-05
0.000124791
4.87551e-05
0.000100325
0.000126089
2.41872e-05
2.40673e-05
2.41745e-05
2.40589e-05
7.74769e-05
2.18023e-05
2.17925e-05
7.69157e-05
2.18349e-05
2.18235e-05
0.000100348
0.000125593
7.43112e-05
4.9694e-05
4.91114e-05
0.00012316
0.000102452
0.000100634
0.000126272
7.44966e-05
4.96418e-05
4.90737e-05
0.000124392
0.000102558
9.98316e-05
4.88257e-05
0.000122813
7.41847e-05
9.95919e-05
4.89542e-05
0.000122861
0.000100391
4.88172e-05
0.0001245
7.4835e-05
0.000100286
4.89268e-05
0.000124329
7.85252e-05
2.21597e-05
2.21447e-05
2.19278e-05
2.19137e-05
7.76962e-05
3.6865e-05
9.76238e-05
4.12549e-05
9.14595e-05
4.12474e-05
9.24988e-05
3.68755e-05
2.04184e-05
7.8496e-05
5.08573e-05
2.03679e-05
7.75062e-05
3.68663e-05
9.88613e-05
4.12375e-05
9.44295e-05
4.1238e-05
3.68646e-05
9.31923e-05
2.03603e-05
7.65529e-05
5.08446e-05
7.75595e-05
2.043e-05
3.69278e-05
4.12816e-05
9.06762e-05
9.58656e-05
3.6893e-05
4.13089e-05
9.04017e-05
2.0426e-05
5.12834e-05
7.63575e-05
2.06505e-05
7.71358e-05
2.04769e-05
7.68075e-05
5.1068e-05
2.03808e-05
7.60685e-05
3.69887e-05
9.56814e-05
4.16733e-05
9.08054e-05
3.72197e-05
4.13954e-05
9.06596e-05
3.69166e-05
4.12793e-05
9.09993e-05
9.58757e-05
3.68861e-05
4.13062e-05
9.04584e-05
2.04065e-05
5.12236e-05
7.5833e-05
7.68362e-05
2.06305e-05
2.04588e-05
7.69328e-05
5.10116e-05
2.0365e-05
7.59761e-05
3.6976e-05
9.56039e-05
4.16685e-05
9.03683e-05
4.13913e-05
9.05735e-05
3.7203e-05
7.74091e-05
2.17293e-05
2.17264e-05
2.17236e-05
2.17216e-05
7.69625e-05
0.000102408
0.00012975
4.86583e-05
7.52058e-05
4.86668e-05
0.000104856
0.000126647
0.000102565
0.0001309
4.86403e-05
7.57464e-05
0.000127718
0.000104969
4.86447e-05
7.87255e-05
2.1728e-05
2.1726e-05
2.17207e-05
7.95068e-05
2.17183e-05
0.000101389
4.86884e-05
7.47216e-05
0.000122772
4.86491e-05
0.000125212
9.96236e-05
0.000101539
4.86556e-05
7.51377e-05
0.000123461
0.000126191
4.86221e-05
9.97121e-05
2.39586e-05
2.39494e-05
2.41556e-05
2.40383e-05
7.64131e-05
2.1752e-05
2.17492e-05
7.65177e-05
2.17792e-05
2.17765e-05
9.85886e-05
0.000122628
7.31334e-05
4.95319e-05
0.000121081
4.89675e-05
9.98302e-05
9.84817e-05
0.000121881
7.25315e-05
4.94817e-05
4.89234e-05
0.0001208
9.95955e-05
9.87398e-05
4.87047e-05
0.000122034
7.34271e-05
0.000121215
9.91749e-05
4.88167e-05
9.86557e-05
4.86673e-05
0.000122471
7.29193e-05
9.92067e-05
4.87747e-05
0.000121106
7.66241e-05
2.20907e-05
2.209e-05
2.18619e-05
2.18609e-05
7.52689e-05
2.41415e-05
2.40249e-05
3.68911e-05
0.000100957
4.12666e-05
9.4276e-05
4.12679e-05
9.55159e-05
3.68943e-05
2.04378e-05
7.98103e-05
5.09543e-05
2.03888e-05
7.89712e-05
3.69007e-05
0.000101897
4.12702e-05
9.65658e-05
4.12654e-05
3.69024e-05
9.60197e-05
2.03774e-05
7.80127e-05
5.09233e-05
7.90916e-05
2.0443e-05
3.69223e-05
9.26076e-05
4.12807e-05
9.78901e-05
3.6897e-05
9.17816e-05
4.13015e-05
2.04175e-05
5.12639e-05
7.63275e-05
2.06394e-05
7.73531e-05
2.04711e-05
7.7466e-05
5.10585e-05
2.03793e-05
7.65038e-05
3.69782e-05
9.69854e-05
9.13228e-05
4.16533e-05
3.72e-05
9.1771e-05
4.13794e-05
3.69172e-05
4.12807e-05
9.35861e-05
9.82038e-05
3.68955e-05
4.13e-05
9.24508e-05
2.04075e-05
5.12036e-05
7.63669e-05
7.76717e-05
2.06271e-05
2.04634e-05
7.82583e-05
5.10159e-05
2.03744e-05
7.70687e-05
3.69691e-05
9.71511e-05
4.16493e-05
9.14123e-05
4.13764e-05
9.21965e-05
3.71861e-05
3.68479e-05
0.000100009
9.27645e-05
4.12229e-05
9.42609e-05
4.12208e-05
3.68544e-05
2.04196e-05
7.93682e-05
5.08304e-05
7.82108e-05
2.03714e-05
3.68543e-05
0.000101494
9.63246e-05
4.12245e-05
9.50511e-05
3.68553e-05
4.1217e-05
2.03589e-05
7.68129e-05
5.0809e-05
7.8065e-05
2.04258e-05
3.68559e-05
0.000100253
4.12268e-05
9.33856e-05
4.12252e-05
9.48137e-05
3.6862e-05
2.04244e-05
7.95892e-05
5.08962e-05
2.03749e-05
7.86277e-05
3.68637e-05
0.000101716
4.12298e-05
9.65628e-05
3.68658e-05
4.12218e-05
9.54923e-05
2.03649e-05
7.74957e-05
5.08655e-05
7.86453e-05
2.04322e-05
3.68874e-05
9.1831e-05
4.12407e-05
9.65486e-05
3.68611e-05
9.06528e-05
4.12648e-05
2.03959e-05
5.1162e-05
7.50694e-05
7.62949e-05
2.06192e-05
2.04505e-05
7.69297e-05
5.09517e-05
2.03583e-05
7.56997e-05
3.69452e-05
9.53443e-05
8.94299e-05
4.16264e-05
9.01679e-05
4.13473e-05
3.7174e-05
3.68922e-05
4.12442e-05
9.25531e-05
9.68695e-05
3.68678e-05
4.12675e-05
9.13509e-05
2.04018e-05
5.11564e-05
7.56935e-05
7.70051e-05
2.06237e-05
2.04562e-05
7.76721e-05
5.09643e-05
2.03651e-05
7.64503e-05
3.69484e-05
9.56249e-05
4.16268e-05
9.00609e-05
4.13488e-05
9.09033e-05
3.71731e-05
8.16187e-05
2.17545e-05
2.17519e-05
2.17692e-05
2.1767e-05
8.0729e-05
0.000109313
0.000136453
4.88632e-05
7.92504e-05
4.88448e-05
0.000110707
0.000135551
0.000109525
0.000137753
4.88582e-05
8.00751e-05
0.000136927
0.000110855
4.88338e-05
8.35089e-05
2.18054e-05
2.18038e-05
2.17803e-05
8.44371e-05
2.17774e-05
0.000108191
4.87813e-05
7.85698e-05
0.000131641
4.87764e-05
0.00013443
0.000105642
0.000108398
4.87513e-05
7.92147e-05
0.000132665
0.000135731
4.87526e-05
0.000105808
2.39992e-05
2.39789e-05
2.41432e-05
2.40345e-05
7.84183e-05
2.17604e-05
2.17585e-05
7.90908e-05
2.17742e-05
2.17725e-05
0.000101498
0.000125385
7.48213e-05
4.94696e-05
0.000126042
4.89438e-05
0.000101113
0.000101395
0.000124394
7.40397e-05
4.94238e-05
4.89022e-05
0.000125828
0.000100838
0.000102314
4.876e-05
0.000130124
7.54193e-05
0.000127168
0.000104494
4.88313e-05
0.000102291
4.8722e-05
0.000130865
7.48504e-05
0.000104604
4.87911e-05
0.000127297
7.78944e-05
2.20551e-05
2.20547e-05
2.18368e-05
2.18361e-05
7.5364e-05
2.41272e-05
2.40204e-05
3.6876e-05
0.000103574
9.56668e-05
4.12343e-05
9.74505e-05
4.12459e-05
3.68742e-05
2.0441e-05
8.08862e-05
5.09441e-05
7.98605e-05
2.0396e-05
3.68948e-05
0.000104478
9.85475e-05
4.12631e-05
9.81957e-05
3.69004e-05
4.12489e-05
2.03765e-05
7.83537e-05
5.08887e-05
7.97351e-05
2.04382e-05
3.68701e-05
0.000103486
9.53777e-05
4.12334e-05
9.71672e-05
4.12444e-05
3.687e-05
2.04333e-05
8.06301e-05
5.09242e-05
2.03882e-05
7.95952e-05
3.68884e-05
0.000104501
9.85615e-05
4.12621e-05
3.68946e-05
9.80198e-05
4.12473e-05
2.03695e-05
7.81341e-05
5.08739e-05
7.94775e-05
2.04324e-05
3.68884e-05
9.44308e-05
4.12446e-05
9.88339e-05
3.68684e-05
9.26987e-05
4.12609e-05
2.03953e-05
5.11426e-05
7.55362e-05
7.70826e-05
2.06149e-05
2.04537e-05
7.8284e-05
5.09587e-05
2.03664e-05
7.67784e-05
3.69384e-05
9.68866e-05
9.02958e-05
4.1607e-05
9.16987e-05
4.13355e-05
3.71566e-05
3.68874e-05
9.41916e-05
4.12445e-05
9.87519e-05
3.68669e-05
9.2518e-05
4.12614e-05
2.03917e-05
5.11374e-05
7.54896e-05
7.70071e-05
2.06122e-05
2.04491e-05
7.81094e-05
5.09517e-05
2.03615e-05
7.66558e-05
3.69383e-05
9.6817e-05
9.02153e-05
4.16081e-05
9.15811e-05
4.13361e-05
3.71576e-05
2.39926e-05
2.39787e-05
2.39991e-05
2.39792e-05
7.85121e-05
2.17685e-05
2.17584e-05
7.92672e-05
2.17824e-05
2.17695e-05
0.000101069
0.000123645
7.43188e-05
4.94523e-05
0.00010048
0.000124652
4.89281e-05
0.000101226
0.000123666
7.41333e-05
4.94066e-05
0.000100406
0.000125371
4.88865e-05
0.000101949
4.87408e-05
0.000128913
7.49478e-05
0.00010413
0.000125872
4.88137e-05
0.00010223
4.87124e-05
0.000130547
7.50114e-05
0.00010463
0.000126927
4.87789e-05
7.78333e-05
2.20618e-05
2.20472e-05
7.52006e-05
2.18447e-05
2.18309e-05
2.41398e-05
2.40298e-05
2.41263e-05
2.40195e-05
3.43525e-05
3.72774e-05
3.42252e-05
3.71256e-05
8.95578e-05
6.05168e-06
6.05174e-06
1.14019e-05
1.14015e-05
9.29574e-05
0.000111025
0.000127151
5.07526e-05
8.6895e-05
0.000104901
5.35195e-05
0.000133153
0.000110624
0.00012703
5.07003e-05
8.57925e-05
0.000104594
5.34628e-05
0.000132696
0.000145448
0.000194725
0.000176193
0.000175516
0.000150439
0.000173331
0.000172926
8.4113e-05
2.33384e-05
2.33248e-05
8.37018e-05
1.21806e-05
1.21772e-05
0.000111882
2.65472e-05
8.58757e-05
0.000146891
2.44406e-05
0.000114604
0.000138804
0.000111417
2.65322e-05
8.47663e-05
0.000145231
2.44274e-05
0.0001141
0.000137614
5.68434e-06
5.68429e-06
9.3261e-05
0.000185236
0.000184363
0.000146672
1.20346e-05
0.000148031
0.000114761
1.20299e-05
0.000146287
0.000114261
9.66921e-06
0.000102229
1.07954e-05
0.000100761
2.06036e-05
9.67288e-05
7.74542e-05
9.16837e-05
2.03495e-05
8.06252e-05
1.0316e-05
0.000100289
4.2702e-05
9.16005e-05
4.34564e-05
3.61889e-05
9.41403e-05
9.09474e-05
8.98997e-05
8.33938e-05
0.00017802
0.00014621
0.000146368
0.000185039
0.000140174
0.000181299
0.000181519
0.000210055
0.00021216
0.000206524
0.000216262
0.000214257
0.000206055
0.000210894
0.00017125
0.000129318
0.000110178
0.000167885
0.000129353
0.000159179
0.000174886
0.0002247
0.000224132
0.00022488
0.000225656
0.000224967
0.000224703
0.000223861
0.000174953
0.000145438
0.000144155
0.000183507
0.000138166
0.000180112
0.000178222
0.000201897
0.000202423
0.000197521
0.000206485
0.000202719
0.000197418
0.000205067
0.00016639
0.00012665
0.000107583
0.0001619
0.000126674
0.000169591
0.000153581
0.000220706
0.000220815
0.000221442
0.000220602
0.00022137
0.000219168
0.000220785
0.000143638
0.000193767
0.000192687
0.00021216
0.000221174
0.000215306
0.000129773
0.000168735
0.000186231
0.000227767
0.000229645
0.000227321
0.000141484
0.000192463
0.000189322
0.000203382
0.000211861
0.000207096
0.000127268
0.000162877
0.000181125
0.000224671
0.000224488
0.000222697
8.6162e-05
6.04718e-06
6.05029e-06
1.13786e-05
1.13822e-05
8.90166e-05
0.000106651
0.00012327
5.06238e-05
8.40848e-05
5.33257e-05
0.000101238
0.000128549
0.000106105
0.000122191
5.05823e-05
8.24166e-05
0.000127015
0.000100826
5.32826e-05
0.000138531
0.000183762
0.000167386
0.000165865
0.000163467
0.000164594
0.000143444
8.11942e-05
2.32421e-05
2.32439e-05
1.21434e-05
8.07955e-05
1.21456e-05
0.000107405
2.65094e-05
8.3135e-05
0.000140966
2.44013e-05
0.000133338
0.00010968
0.000106866
2.65143e-05
8.14438e-05
0.000138424
0.000131297
2.44062e-05
0.000109286
3.38247e-05
3.66363e-05
5.68089e-06
5.68392e-06
8.92319e-05
0.000176981
0.000175347
0.000140213
1.20257e-05
0.000142066
0.000109803
1.20313e-05
0.000139484
0.00010944
0.000177832
0.000144926
0.000143257
0.000183219
0.0001385
0.000182118
0.000179873
0.00021114
0.000213021
0.000206394
0.000216896
0.000215528
0.000206777
0.000211347
0.000170527
0.000126832
0.000109179
0.000165397
0.000127751
0.000157951
0.000172311
0.000228274
0.000227054
0.000228893