/*--------------------------------*- C++ -*----------------------------------*\
| =========                 |                                                 |
| \\      /  F ield         | OpenFOAM: The Open Source CFD Toolbox           |
|  \\    /   O peration     | Version:  v2006                                 |
|   \\  /    A nd           | Website:  www.openfoam.com                      |
|    \\/     M anipulation  |                                                 |
\*---------------------------------------------------------------------------*/
FoamFile
{
    version     2.0;
    format      ascii;
    class       surfaceScalarField;
    location    "875";
    object      phi;
}
// * * * * * * * * * * * * * * * * * * * * * * * * * * * * * * * * * * * * * //

dimensions      [0 3 -1 0 0 0 0];
oriented        oriented;


internalField   nonuniform List<scalar> 
40902
(
1.06768e-06
1.03248e-06
5.15272e-07
-1.56943e-06
5.98634e-08
-5.8176e-07
-1.34856e-06
-2.29367e-08
-6.80335e-07
6.33983e-07
-0.0011106
-1.03244e-06
-0.000270538
-1.44092e-08
-7.69913e-09
1.04319e-06
-1.53271e-06
5.67782e-08
-5.79426e-07
-2.25376e-08
-6.83085e-07
-0.00111105
5.3488e-07
-0.0011126
1.67116e-07
1.97494e-08
-0.000205424
-4.05848e-08
2.98365e-07
-0.000246317
-1.70065e-07
-2.24538e-08
-1.86845e-09
-6.21756e-08
1.32791e-07
-0.000261747
1.0482e-07
1.05457e-06
-1.43197e-06
4.79831e-07
-1.24349e-06
6.78411e-07
-3.92565e-09
-0.00110757
-0.000263202
-6.09976e-08
1.64032e-07
-2.97925e-09
6.69905e-08
-0.000102099
1.98609e-07
-0.000296568
1.56037e-08
-6.98693e-08
6.27331e-08
1.99851e-07
-0.000296702
1.68725e-08
-1.82076e-08
-0.000102111
-1.69797e-07
1.32481e-07
-0.000261848
-0.000205472
-1.42277e-06
4.7759e-07
6.74392e-07
-1.23875e-06
1.06975e-06
-0.00110741
-3.62045e-07
-2.94824e-07
-0.000263223
1.64144e-07
-5.96346e-08
-0.000246355
-2.40881e-08
-1.67759e-07
7.36169e-08
8.23802e-05
-1.43482e-08
-8.24394e-05
-4.91891e-08
1.15345e-08
2.53325e-07
-0.000205639
-0.000281339
-3.59777e-08
2.71799e-08
2.05511e-07
2.94227e-08
3.30465e-07
-0.000281675
-1.0196e-08
-1.09636e-08
1.58698e-07
0.000150352
-0.000150514
-2.14907e-07
-2.43328e-08
4.34919e-07
2.33472e-11
-0.000246513
-0.000180279
6.10264e-09
1.75724e-09
-0.000239714
-1.16303e-07
2.67925e-07
7.66348e-10
-0.000180506
4.0544e-07
-0.000239955
1.00245e-07
-0.000102188
2.72406e-07
-1.94826e-07
0.000237013
-1.90653e-07
3.39642e-07
-0.00023724
-0.00026557
-2.03139e-07
2.16914e-07
1.93963e-07
2.98863e-07
1.75654e-09
1.0778e-07
-0.000296876
-0.000193342
1.40085e-07
-4.52471e-09
4.17784e-07
2.80057e-07
-0.000265696
-9.08822e-09
-0.000193526
-1.47261e-07
2.11941e-07
-1.9281e-07
2.73307e-07
0.000237093
-1.88567e-07
3.39137e-07
-0.000237324
-0.000265748
-2.03034e-07
2.18346e-07
1.93439e-07
4.18529e-10
2.95851e-07
-1.00351e-07
1.04727e-07
-0.000297002
-0.000193408
1.41951e-07
-4.63622e-09
-9.56082e-09
-0.000193591
4.15247e-07
2.80479e-07
-0.000265874
-1.49316e-07
2.11292e-07
-5.4735e-08
-5.45058e-08
0.000228197
-0.000228467
-8.43905e-05
3.4237e-08
-8.44064e-05
3.40054e-08
-8.44544e-05
-8.44705e-05
-1.13275e-08
-0.0001022
2.55318e-07
-0.000205689
1.57721e-07
-7.31511e-09
0.000150423
-0.000150587
1.29557e-08
-2.04435e-08
-2.15293e-07
4.31184e-07
-0.000246547
-0.000239828
-1.10702e-07
2.60131e-07
-2.77637e-08
-0.000180312
8.94271e-09
3.94235e-07
-0.000240056
-2.86567e-08
-0.000180536
1.66201e-08
4.63706e-07
4.63131e-07
0.000256056
-0.000256305
-5.80595e-07
-5.85193e-07
-0.000272475
-0.000268988
-1.23664e-07
-0.000268617
-1.23822e-07
-0.000269268
-0.000268903
5.3848e-10
-0.00111699
-6.16766e-07
-1.89311e-07
0.000272216
1.282e-07
-0.000272886
-0.000271381
1.67258e-07
1.20847e-07
4.94947e-07
-0.000262002
-0.000266651
9.39738e-08
1.00513e-07
1.05782e-07
-0.000266922
-0.000271475
1.12057e-07
-6.61532e-07
6.25784e-08
0.000270878
-0.000271583
-5.85676e-08
6.52267e-07
1.34226e-09
-0.000263362
-0.000263756
1.28912e-07
-0.000269806
-6.22379e-08
-5.99473e-09
-0.000263965
4.47759e-09
-0.000270339
-0.000271487
4.9568e-07
-0.000262104
-0.000271586
0.000270926
5.82627e-08
-6.56392e-07
-0.000271629
-1.21568e-07
6.45864e-07
-5.29931e-08
-0.000263382
-6.06502e-08
-0.000269808
1.21763e-07
-0.000263838
-1.01493e-07
-1.08997e-07
-0.000270335
-0.000264049
-1.0423e-07
-1.07016e-06
-1.02649e-06
0.000272657
-0.000270537
-1.79846e-08
-4.82484e-09
0.00111134
1.03793e-06
5.14927e-07
-1.56875e-06
7.24658e-08
-5.70789e-07
-1.35226e-06
-2.60278e-08
-6.85652e-07
6.29178e-07
-0.00111046
0.00111231
1.04071e-06
-1.52658e-06
6.27977e-08
-5.62517e-07
-2.71525e-08
-6.81642e-07
6.28541e-07
-0.00111143
5.08935e-07
-1.34692e-06
1.57381e-06
1.53013e-06
-5.73388e-07
-5.8326e-07
0.000270709
-5.81437e-07
1.06832e-06
5.93801e-08
-6.79959e-07
-2.19381e-08
5.04863e-07
-5.74613e-07
1.02506e-06
5.00865e-08
6.35023e-07
-6.79656e-07
-1.34345e-06
-2.20646e-08
5.38674e-07
-0.00111274
5.08426e-07
-0.000205342
1.12628e-08
2.46471e-07
0.000205131
-0.000205315
1.22694e-08
2.4806e-07
-4.85986e-08
0.000205103
4.2713e-07
0.000246055
-2.03489e-08
-2.06746e-07
-0.000246252
6.91825e-08
-2.01585e-08
0.00010207
-0.000102119
7.07236e-08
-2.19404e-08
0.000102053
-0.000102102
7.01018e-08
0.000296497
2.05641e-07
-0.000296713
9.74546e-09
7.41695e-08
0.000296414
1.9966e-07
-0.000296626
8.2906e-09
1.67079e-07
-0.000205489
-3.99076e-08
2.99402e-07
-0.000246363
-1.70263e-07
-2.45928e-08
0.000261847
1.36689e-07
-0.000261851
1.04642e-07
1.05605e-06
-1.42995e-06
4.79087e-07
-1.2442e-06
6.76099e-07
-0.00110763
-0.000263238
-6.16773e-08
1.65064e-07
1.67521e-07
-0.000205461
-4.29536e-08
0.000261805
1.33395e-07
-0.000261803
1.06048e-07
9.73257e-08
0.000101984
9.81398e-08
0.000101967
1.11393e-07
2.83799e-07
-5.729e-09
0.000296205
1.09547e-07
2.88332e-07
-5.36529e-09
0.00029612
4.90342e-07
0.00026159
4.9335e-07
1.25742e-07
0.000261544
6.81165e-07
-1.24079e-06
-1.42538e-06
4.81587e-07
-0.00110844
0.000263255
-5.14737e-08
6.43016e-07
-0.000263417
2.14312e-08
1.64659e-07
-8.2332e-05
3.42468e-08
-1.17314e-08
-7.24291e-08
0.000280929
2.74539e-08
3.12288e-07
-0.000281245
-4.25958e-08
2.08471e-08
1.65292e-07
-1.08054e-08
-8.23936e-05
2.73779e-08
1.9782e-07
-0.000150146
1.08748e-07
-7.07341e-09
-2.28349e-08
-1.61315e-07
2.90946e-07
-1.51782e-07
0.00023944
3.90483e-07
-0.000239672
7.60529e-09
0.000179917
-0.000180133
-0.000150301
2.54337e-07
9.37571e-08
-5.83576e-09
-0.000102207
9.42933e-08
-6.30475e-09
-0.00010219
-1.84509e-07
2.52279e-07
0.000237108
-1.75469e-07
3.14518e-07
-0.000237315
-0.000265724
-2.01306e-07
0.000265731
2.16662e-07
1.82414e-07
-1.73915e-08
2.88704e-07
1.08729e-07
-0.000296999
-0.000193409
1.30723e-07
-5.61455e-09
0.000193294
-2.76843e-08
-0.000193583
4.12916e-07
2.60062e-07
-0.000265856
-1.53531e-07
0.000236998
1.92708e-07
-1.86114e-07
2.52812e-07
0.000237042
-1.76565e-07
3.14763e-07
-0.000237247
-0.000265611
-2.01438e-07
0.000265611
2.15221e-07
1.86071e-07
-1.78678e-08
2.92425e-07
1.12774e-07
-0.000296919
-0.000193345
1.27961e-07
-5.98644e-09
0.000193232
-2.81292e-08
-0.000193521
4.12135e-07
2.57942e-07
-0.000265736
-1.51837e-07
0.000236925
1.94766e-07
-4.17868e-08
-4.13546e-08
0.000228214
-0.000228483
-8.43924e-05
3.129e-08
8.43555e-05
-8.43748e-05
3.09939e-08
8.43378e-05
-8.44619e-05
-8.44443e-05
0.000227971
8.24285e-05
7.39658e-08
-1.65222e-08
-8.24859e-05
-4.7834e-08
2.55103e-07
-0.000205702
-3.59061e-08
-0.000281476
2.74597e-08
2.08645e-07
-1.28178e-08
2.82e-08
3.37902e-07
-0.000281816
0.000150429
-1.30629e-08
1.58247e-07
-0.000150591
-2.14536e-07
-2.43886e-08
4.35088e-07
-0.000246559
9.84543e-09
-0.000180316
-1.17043e-07
-0.000239822
2.70598e-07
-0.000180543
4.09175e-07
-0.000240069
2.53061e-07
-4.23301e-08
-0.000205678
6.96565e-08
6.90213e-08
-0.000236765
-1.26046e-07
2.19259e-07
-1.63931e-07
2.08207e-07
-2.72894e-07
0.000265596
4.15348e-07
2.77277e-07
1.76938e-07
0.000193121
-9.85245e-09
2.15549e-08
1.89153e-07
6.29551e-08
-1.92052e-07
3.29571e-07
1.04033e-08
2.14639e-07
1.98253e-07
-0.000236698
-1.26115e-07
2.18961e-07
-1.61678e-07
2.11198e-07
-2.72476e-07
0.000265485
4.13766e-07
2.72645e-07
1.78592e-07
0.000193058
-9.90933e-09
2.21446e-08
1.86853e-07
6.3195e-08
-1.94366e-07
3.27489e-07
1.07159e-08
2.14373e-07
2.03892e-07
-0.000227687
-4.17533e-08
-4.19979e-08
5.10719e-08
8.42946e-05
5.10226e-08
8.42769e-05
4.37953e-07
4.35719e-07
0.000256069
-0.000256313
-5.6625e-07
-5.77339e-07
-0.000272489
-0.000268597
-1.06748e-07
0.000268975
-0.00026903
-1.10439e-07
0.000269413
-0.000268883
-0.000269322
0.000256239
-0.000255989
1.2772e-07
1.30868e-07
-4.53909e-07
0.000268689
-4.52915e-07
0.000269122
-1.88837e-08
-9.68311e-09
5.11293e-07
-0.00111701
-1.1303e-07
-0.00112408
-5.70198e-07
3.91036e-07
-0.0011168
-5.35802e-07
-0.00112368
-7.00406e-07
-1.76506e-07
-6.24859e-07
0.000272283
1.14765e-07
-0.000272949
-0.000271463
1.61172e-07
0.000271595
4.99038e-07
1.16514e-07
-0.000262103
-0.000266757
9.83615e-08
1.01688e-07
-0.000271566
9.99804e-08
-0.000267027
1.16024e-07
-6.62679e-07
5.82281e-08
0.00027093
-0.000271641
-5.68937e-08
6.52901e-07
-0.000263398
-0.000263844
1.32578e-07
-0.000269834
-5.97317e-08
-0.000264054
-0.000270362
-0.000271452
1.57932e-07
0.000271586
4.99787e-07
1.28355e-07
-0.000262065
1.82981e-07
-0.000271559
0.000273071
-0.000272297
-8.88568e-08
1.00898e-07
0.000271496
1.27145e-07
-8.03141e-08
-0.000272403
-1.69181e-07
1.08479e-07
1.90612e-07
0.000271482
0.000266583
6.13695e-07
1.00535e-07
-0.000266859
1.02631e-07
1.24875e-07
1.00078e-07
1.29442e-07
-1.16763e-07
-0.000271075
5.60112e-08
-5.51892e-08
1.59806e-07
0.000263796
6.54781e-07
-0.000264011
-5.82487e-08
0.000269987
-0.00027053
-0.000271775
-1.0614e-06
-1.05665e-06
-0.0011097
5.3956e-07
5.50984e-07
0.00111072
-0.00110835
-1.53087e-06
1.05788e-06
5.20928e-07
0.00110926
-5.72739e-07
1.02028e-06
4.92461e-08
6.17797e-07
-6.90518e-07
-1.34999e-06
-3.20523e-08
-0.00110826
-1.52835e-06
1.05707e-06
5.26171e-07
0.00110917
-5.7722e-07
1.01649e-06
5.13429e-08
6.13881e-07
-6.88041e-07
-1.34409e-06
-3.46031e-08
-0.000271894
1.55863e-06
1.51942e-06
-5.75413e-07
-5.86158e-07
0.000269977
-1.0557e-06
-1.0139e-06
0.000271941
-0.000269819
-3.15829e-08
-2.09647e-08
0.00110778
1.06141e-06
5.25055e-07
-1.56925e-06
5.78632e-08
-5.80183e-07
-1.35077e-06
-3.87736e-08
-6.90732e-07
6.16425e-07
-0.00110686
1.05245e-06
0.0011079
1.06082e-06
-0.00110699
5.23301e-07
-1.56587e-06
5.55749e-08
-5.72857e-07
-1.35323e-06
-3.71365e-08
-6.93841e-07
6.16541e-07
-1.01551e-06
0.000271928
-0.000269813
-2.62558e-08
-2.10401e-08
0.00110875
1.06322e-06
5.23131e-07
-1.5274e-06
5.00456e-08
-5.72326e-07
-1.34831e-06
-3.87596e-08
-6.90988e-07
6.11315e-07
-0.00110784
1.05002e-06
0.0011078
1.06226e-06
5.24381e-07
-1.5644e-06
5.27573e-08
-5.75986e-07
-1.3513e-06
-3.57509e-08
-6.95153e-07
6.12184e-07
-0.00110688
1.06146e-06
-0.00110744
5.21118e-07
-1.52835e-06
5.05341e-08
-5.66641e-07
-1.35115e-06
-3.94971e-08
6.11692e-07
-6.93673e-07
1.04535e-06
0.00110748
1.05646e-06
5.23824e-07
-1.55807e-06
5.55317e-08
-5.74682e-07
-1.35175e-06
-3.59758e-08
-6.94613e-07
6.08272e-07
-0.00110656
-1.01307e-06
0.000271916
-0.000269799
-2.9692e-08
-2.48421e-08
1.06147e-06
5.22498e-07
-1.52627e-06
5.04658e-08
-5.71779e-07
-1.34787e-06
-3.74248e-08
6.10388e-07
-6.91738e-07
-0.00110735
1.00524e-06
0.00110845
1.06204e-06
5.17297e-07
-1.51614e-06
4.6667e-08
-5.66697e-07
-1.35045e-06
-3.58698e-08
-6.94285e-07
6.08702e-07
-0.00110753
-0.00026979
-3.23971e-08
-2.0814e-08
1.56944e-06
1.5267e-06
-5.72668e-07
-5.844e-07
0.000270002
5.20834e-07
0.00110868
-5.76338e-07
1.05958e-06
6.15735e-08
6.15728e-07
-6.90055e-07
-1.35242e-06
-3.51202e-08
-1.56769e-06
1.05724e-06
5.20452e-07
0.00110882
-5.78073e-07
1.05832e-06
5.55487e-08
6.20261e-07
-6.93019e-07
-1.35618e-06
-3.20072e-08
-5.82195e-07
-5.87074e-07
0.000269999
5.25031e-07
0.00110966
-5.67491e-07
1.01428e-06
5.29179e-08
6.15401e-07
-6.89917e-07
-1.35035e-06
-3.4655e-08
-1.56432e-06
1.05139e-06
5.09951e-07
0.00110873
-5.79009e-07
1.05539e-06
5.56749e-08
6.19123e-07
-6.9066e-07
-1.35393e-06
-3.14185e-08
1.05546e-06
5.20494e-07
0.00110839
-5.77735e-07
1.04842e-06
5.29493e-08
6.19601e-07
-6.90375e-07
-3.07037e-08
-1.3493e-06
-5.79421e-07
-5.83399e-07
0.000269986
1.05607e-06
5.19534e-07
0.00110936
-5.69858e-07
1.01124e-06
4.72377e-08
6.19144e-07
-6.90537e-07
-3.03707e-08
-1.3489e-06
5.42267e-07
5.42555e-07
-0.00110866
0.00110952
5.41752e-07
5.42481e-07
-0.00110848
0.00110933
5.4193e-07
5.43151e-07
-0.00110829
0.00110935
5.41877e-07
5.31928e-07
-0.00110831
8.798e-10
3.09597e-07
0.000246853
-0.000246953
-1.89843e-07
-2.07466e-08
-0.000206852
8.13822e-09
2.80372e-07
-5.60437e-08
0.000206619
-0.000247439
-2.10061e-09
4.5463e-07
0.000247249
-2.42029e-07
-2.03706e-08
2.60925e-08
1.77552e-07
0.000206079
-4.60003e-08
-0.000206237
-0.000102636
-1.30245e-08
1.09964e-07
0.000102539
-1.88343e-08
7.42463e-08
0.000102328
-0.000102383
3.07462e-07
5.9153e-10
0.000246849
-0.000246947
-2.25139e-08
-1.87779e-07
-0.000206827
7.83386e-09
2.75598e-07
-5.34931e-08
0.000206597
-0.000247431
4.57287e-07
-1.07405e-09
0.000247239
-2.01743e-08
-2.44183e-07
2.56668e-08
1.82146e-07
0.000206054
-4.85849e-08
-0.000206213
5.39811e-07
5.40737e-07
0.00111056
5.34815e-07
5.46537e-07
0.00111036
5.39682e-07
5.40231e-07
0.00111039
-3.13816e-07
-1.8569e-09
0.000263353
-0.000263155
-5.87702e-08
1.757e-07
-0.000262862
-1.18422e-07
-2.76298e-07
5.12519e-07
1.3172e-07
0.000262613
0.00110547
-0.00110449
4.12997e-09
1.08137e-06
6.60196e-07
-1.24299e-06
-1.42962e-06
4.63155e-07
5.14662e-07
1.02524e-06
0.00111015
1.04822e-06
-1.3507e-06
-2.76038e-08
-6.86812e-07
6.2418e-07
-1.52814e-06
6.02861e-08
-5.68254e-07
-0.000263257
-4.51603e-07
-1.06852e-09
0.000263107
-5.5054e-08
6.57643e-07
-7.47253e-08
-1.79982e-07
0.000262361
1.12396e-07
-0.000262362
1.4323e-07
-3.15196e-09
0.00110645
1.07396e-06
-1.42994e-06
4.69138e-07
-1.2413e-06
6.68085e-07
-0.000102628
-9.41356e-09
1.06054e-07
0.000102531
-1.83167e-08
7.11323e-08
0.000102325
-0.000102378
1.29392e-09
-3.12229e-07
0.000263347
-0.00026315
1.77492e-07
-6.39284e-08
0.00110533
-0.00110435
1.06249e-08
1.08594e-06
6.59569e-07
-1.24259e-06
-1.42602e-06
4.63915e-07
-0.000262857
-1.21348e-07
-2.72365e-07
5.10871e-07
1.333e-07
0.000262606
5.43969e-07
1.02848e-06
0.00111001
1.06715e-06
-1.34702e-06
-3.16194e-08
-6.89279e-07
6.15629e-07
-1.52079e-06
6.67947e-08
-5.68429e-07
-0.000263251
-1.16544e-09
-4.56306e-07
0.000263103
6.57629e-07
-5.24124e-08
1.70987e-08
0.00110631
1.08094e-06
-1.42703e-06
4.67736e-07
-1.24163e-06
6.62684e-07
-7.01206e-08
-1.8248e-07
0.000262357
1.08164e-07
-0.000262356
1.43962e-07
-0.00029856
1.21651e-07
-1.04814e-07
3.10407e-07
-3.31717e-09
0.000298236
-0.000298467
1.18747e-07
-1.05364e-07
3.1048e-07
-3.46308e-09
0.000298147
-1.05373e-06
-1.01716e-06
0.000272263
-0.000270164
-1.6881e-08
-1.14901e-08
6.87449e-08
-7.72182e-08
0.000297486
7.06781e-10
-0.00029769
2.11602e-07
7.25994e-08
-7.70749e-08
0.000297394
1.06949e-09
-0.000297602
2.11857e-07
8.37526e-08
-2.45935e-08
0.000102656
-0.000102715
8.48418e-08
-2.31407e-08
0.000102639
-0.000102701
8.09482e-08
0.000298577
2.31626e-07
-0.000298809
3.19047e-09
8.14466e-08
0.000298496
2.27389e-07
-0.000298723
2.54928e-09
1.96266e-07
-0.00020702
-5.2694e-08
-2.03958e-09
3.2256e-07
-0.000247535
-2.07093e-07
-1.79861e-08
1.95315e-07
2.22835e-08
0.000206789
-0.000206956
-5.06574e-08
2.8566e-07
9.50141e-09
-5.44096e-08
0.000207362
-0.000207603
3.23299e-07
0.000247396
-0.000247493
-2.06942e-07
-2.11266e-08
0.00026286
1.58022e-07
-0.000262864
1.2294e-07
-3.35539e-09
0.0011047
1.08663e-06
-1.43122e-06
4.60112e-07
-1.24507e-06
6.59988e-07
-0.0011037
-1.25224e-09
0.00026326
-0.000263059
-5.90477e-08
1.81984e-07
-1.56649e-06
6.14587e-07
-6.9511e-07
-1.35643e-06
-3.72901e-08
1.05174e-06
-5.80819e-07
5.2675e-08
-0.00110606
5.25196e-07
1.06707e-06
-8.16332e-08
0.00026276
1.56733e-07
-0.000262759
1.19184e-07
0.00110465
1.08631e-06
-1.43022e-06
4.62304e-07
-1.245e-06
6.61395e-07
-0.00110367
-1.24727e-07
1.36144e-07
5.17347e-07
0.000263005
-0.000263248
0.000263231
-0.000263034
-5.82829e-08
1.82559e-07
8.26719e-08
-0.000102696
1.1435e-07
0.000102861
-0.000102966
1.52994e-06
0.000269627
-5.85065e-07
-5.8951e-07
-0.000271549
0.000298462
2.25096e-07
-0.000298697
1.12902e-08
-8.3537e-08
8.58217e-08
0.000298591
2.25483e-07
-0.00029883
1.17995e-08
-1.12416e-08
3.2589e-07
0.000299229
-0.000299554
-1.14754e-07
1.20173e-07
-1.1203e-08
3.25949e-07
0.000299364
-0.000299684
-2.36225e-08
0.000102648
-0.000102708
-9.42561e-09
0.000102873
-0.000102979
1.97105e-07
-0.000206996
-5.12747e-08
3.25686e-07
-2.41983e-09
-0.000247528
-1.92407e-08
-2.06747e-07
0.000262823
1.55115e-07
-0.000262818
1.18541e-07
-2.35412e-09
0.00110456
1.08766e-06
-1.429e-06
4.64025e-07
-1.24572e-06
6.57266e-07
-0.00110356
-2.95928e-09
0.000263252
-0.000263049
-5.99006e-08
1.84866e-07
1.95052e-07
1.77783e-08
0.000206774
-0.000206938
-4.83957e-08
3.29252e-07
0.000247386
-0.00024749
-2.04351e-07
-2.3331e-08
0.00110452
1.08743e-06
-1.4288e-06
4.63703e-07
-1.2458e-06
6.56316e-07
-0.00110353
-7.42264e-08
0.000262754
1.51896e-07
-0.000262748
1.11859e-07
0.000263222
-0.000263023
1.88191e-07
-6.15583e-08
-4.68767e-07
4.41119e-09
-5.9789e-08
6.65297e-07
0.000262996
-0.000263137
5.24973e-07
1.01434e-06
-5.75748e-07
4.70172e-08
6.1074e-07
-6.92772e-07
-1.35145e-06
-3.71508e-08
-0.00110651
1.06841e-06
-1.94134e-07
1.56101e-07
-0.00026286
1.21525e-07
-0.00110349
-4.86414e-09
1.08132e-06
-1.42952e-06
4.59153e-07
6.58971e-07
-1.24339e-06
-2.88912e-07
1.34977e-07
5.18566e-07
0.000263106
-0.00026335
4.10179e-09
6.51722e-07
-1.24533e-06
-1.43223e-06
4.54144e-07
-0.00110249
1.09402e-06
-3.27065e-07
-7.32218e-09
-0.000263054
-5.51717e-08
1.86821e-07
6.10024e-09
-2.32639e-08
-2.65004e-07
0.000247821
-0.000248008
0.000206839
-0.000207006
-5.10711e-08
-5.66532e-08
0.000207412
-0.000207653
-8.5358e-09
0.000247436
-0.000247533
-1.44139e-08
-2.06843e-07
-4.68439e-07
6.61734e-07
-5.29197e-08
0.000262972
-0.000263108
-0.00110344
0.00110444
1.0824e-06
-1.42779e-06
4.58015e-07
-1.24406e-06
6.52358e-07
-1.93253e-07
-7.62097e-08
0.000262795
1.54973e-07
-0.000262793
1.12771e-07
6.51642e-07
-1.24457e-06
-1.4273e-06
4.547e-07
-0.00110244
-5.25922e-07
1.09329e-06
-3.31288e-07
0.000263228
-0.000263031
1.91963e-07
-6.50225e-08
-2.66061e-07
-1.34224e-08
0.000247779
-0.000247962
1.78656e-08
0.000206784
-0.00020695
-4.54795e-08
0.00024739
-0.000247495
-2.08588e-07
-2.64614e-08
7.93634e-08
-0.000102689
0.000298464
2.16921e-07
-0.000298691
1.57118e-08
-8.08864e-08
8.05557e-08
0.000298591
2.15411e-07
-0.00029882
1.40807e-08
-1.984e-08
0.000102644
-0.000102705
-1.61405e-09
1.08116e-06
-1.42741e-06
4.59254e-07
6.55766e-07
-1.24329e-06
-0.00110335
-1.92431e-07
1.50824e-07
-0.000262855
1.2051e-07
-3.57165e-09
-3.26529e-07
-0.000263051
1.87396e-07
-5.73914e-08
0.00110429
1.08166e-06
-1.42435e-06
4.58251e-07
-1.24094e-06
6.52798e-07
-0.0011033
-1.93525e-07
-7.92422e-08
0.00026276
1.52301e-07
-0.000262753
1.13922e-07
-3.28079e-07
0.00026322
-0.000263022
1.88856e-07
-6.21802e-08
0.000206834
-0.000207
-4.57719e-08
-4.73602e-09
0.000247431
-0.000247529
-1.58047e-08
-2.08342e-07
1.88214e-08
0.000206774
-0.00020694
-4.67328e-08
0.00024739
-0.000247491
-2.37215e-08
-2.08119e-07
-7.90793e-08
2.17306e-07
-0.000298785
1.05075e-08
-7.97838e-08
2.17574e-07
-0.000298695
1.07562e-08
0.000102635
-0.000102696
0.000102628
-0.000102689
1.08201e-07
0.000102556
7.91555e-08
0.000102352
-0.000102405
1.05493e-07
0.000102541
8.11927e-08
0.000102336
-0.000102391
1.16543e-07
3.05479e-07
-1.85388e-08
0.000298282
1.15012e-07
3.10081e-07
-1.79985e-08
0.000298195
0.000272309
-1.06199e-06
-1.01616e-06
-0.000270185
-2.8876e-08
-1.70436e-08
0.000297504
7.6313e-08
2.1063e-08
-0.00029774
2.18426e-07
0.000297423
7.56937e-08
2.09285e-08
-0.000297656
2.16802e-07
1.08108e-07
-1.32905e-08
0.000102257
1.03821e-07
-1.11339e-08
0.000102243
1.57014e-06
1.5274e-06
0.000270371
-5.75168e-07
-5.84181e-07
1.12582e-07
-9.64271e-09
3.03385e-07
0.000297206
1.09514e-07
-9.15132e-09
3.06669e-07
0.00029712
3.0921e-07
0.00024681
-0.00024691
-1.89394e-07
-1.88318e-08
2.74268e-07
-5.65363e-08
0.000206558
4.56001e-07
0.000247204
-2.42645e-07
-2.37638e-08
1.82004e-07
0.000206014
-4.42509e-08
-0.00020617
4.87345e-10
0.000263359
-0.00026316
-6.08499e-08
1.71374e-07
5.12563e-07
1.27991e-07
0.000262617
0.00110568
3.6582e-09
1.0821e-06
6.62349e-07
-1.24628e-06
-1.43011e-06
4.67333e-07
5.19662e-07
0.00110958
1.05569e-06
-1.57045e-06
5.70043e-08
-5.81072e-07
-1.35206e-06
-3.02086e-08
-6.85376e-07
6.26058e-07
-9.50898e-10
0.00026311
-5.46336e-08
6.60345e-07
0.00026236
1.19043e-07
-0.000262365
1.40208e-07
-1.42326e-09
0.00110666
1.08442e-06
-1.43278e-06
4.73387e-07
-1.24707e-06
6.69483e-07
0.00026333
-0.000263135
-5.67836e-08
1.71309e-07
-1.20361e-07
5.11955e-07
1.29419e-07
0.000262513
0.00110565
1.08235e-06
6.61976e-07
-1.2494e-06
-1.43424e-06
4.67568e-07
5.15616e-07
0.00110971
1.06244e-06
1.04667e-06
-1.35253e-06
-2.77383e-08
6.2773e-07
-6.86756e-07
-1.56503e-06
6.55385e-08
-5.73621e-07
0.000263084
-5.88495e-08
6.61223e-07
0.000262257
-7.22966e-08
1.13358e-07
-0.00026226
1.44083e-07
0.00110661
1.07882e-06
-1.43142e-06
4.7596e-07
-1.24672e-06
6.72618e-07
-1.02245e-09
4.36964e-07
-2.24676e-07
-2.00544e-08
0.000246661
2.67281e-07
-5.48868e-08
0.000205854
4.37856e-07
-2.25065e-07
-2.12893e-08
0.000246617
2.61061e-07
1.17747e-08
-5.27584e-08
0.000205794
6.67814e-10
-5.38553e-08
6.50393e-07
0.000263199
5.1423e-07
1.04386e-06
1.06858e-06
-5.81084e-07
6.93027e-08
6.29322e-07
-6.84873e-07
-2.56784e-08
-1.34813e-06
1.30405e-07
5.04315e-07
0.000262105
-6.96387e-09
1.06839e-06
6.718e-07
-1.24458e-06
-1.4282e-06
4.77642e-07
-5.33272e-08
6.50971e-07
0.000263171
5.17352e-07
-1.56821e-06
1.04514e-06
6.29033e-07
-6.87243e-07
-1.35181e-06
-2.77748e-08
1.06174e-06
-5.72762e-07
5.92352e-08
-1.16542e-07
1.28342e-07
5.01315e-07
0.000262005
1.06832e-06
6.75901e-07
-1.24498e-06
-1.42878e-06
4.80279e-07
3.19979e-07
-6.18375e-09
0.000298138
-1.11575e-07
3.2031e-07
-6.2194e-09
0.00029827
0.000272297
-0.000270184
-1.54543e-08
-9.63172e-09
0.000297405
6.87193e-09
-0.000297615
2.0456e-07
-7.31759e-08
0.000297536
7.58754e-09
-0.00029775
2.04497e-07
-1.4338e-08
0.000102551
0.00010234
-1.8269e-08
-0.000102395
1.00989e-07
0.000102239
1.53077e-06
0.000270356
-5.76315e-07
-5.81679e-07
-8.53729e-09
2.96527e-07
0.000297102
-1.01826e-07
1.15601e-07
-8.59921e-09
2.9752e-07
0.000297233
-1.26919e-08
0.000102251
-6.46468e-10
0.000263346
-0.000263152
-6.11073e-08
1.75213e-07
5.14104e-07
1.29014e-07
0.00026257
0.00110554
1.01834e-08
1.08164e-06
6.61835e-07
-1.24915e-06
-1.43077e-06
4.66338e-07
5.29486e-07
0.00111055
1.05173e-06
-1.52647e-06
4.77019e-08
-5.7394e-07
-1.34713e-06
-3.08202e-08
-6.85645e-07
6.2173e-07
7.90632e-10
0.000263106
-5.60274e-08
6.59258e-07
0.000262321
1.14157e-07
-0.000262319
1.41612e-07
1.9093e-08
0.00110651
1.07372e-06
-1.42786e-06
4.71694e-07
-1.24073e-06
6.67654e-07
3.1138e-07
0.000246804
-0.000246908
-1.86758e-07
-2.04719e-08
2.70408e-07
-5.21613e-08
0.000206546
4.5466e-07
0.000247199
-2.46079e-07
-2.25565e-08
1.81427e-07
0.000205999
-4.42952e-08
-0.000206155
0.000263317
-0.000263126
1.783e-07
-5.7823e-08
0.00110552
1.07628e-06
6.61889e-07
-1.24934e-06
-1.43159e-06
4.66507e-07
-1.18059e-07
5.10327e-07
1.2788e-07
0.000262504
4.85554e-07
0.00110968
1.05132e-06
1.03799e-06
-1.34621e-06
-2.90395e-08
6.21486e-07
-6.85767e-07
-1.56586e-06
6.26655e-08
-5.76674e-07
0.00026308
6.57016e-07
-5.86841e-08
0.00110648
1.07458e-06
-1.42766e-06
4.71586e-07
-1.24078e-06
6.67742e-07
0.000262249
-7.46792e-08
1.11491e-07
-0.000262249
1.44145e-07
4.4306e-07
2.18437e-09
-2.43217e-08
-2.24273e-07
0.000246652
2.63991e-07
-5.05194e-08
0.000205829
4.02577e-09
-5.85834e-08
6.51193e-07
0.000263192
5.17504e-07
1.04432e-06
1.02729e-06
-5.72301e-07
6.21587e-08
-6.82497e-07
-1.34616e-06
6.2498e-07
-2.73126e-08
1.2943e-07
5.04608e-07
0.000262061
4.99666e-08
1.06852e-06
-1.24354e-06
-1.42855e-06
0.00110743
6.70333e-07
4.72288e-07
4.41439e-07
-2.27433e-07
-2.02998e-08
0.000246612
2.6167e-07
8.11589e-09
-4.89233e-08
0.000205778
6.4861e-07
-5.27568e-08
0.000263166
3.41303e-07
-1.60072e-06
8.99569e-07
-6.84982e-07
-1.34777e-06
9.80074e-07
-5.85988e-07
5.0794e-08
0.00111102
6.26372e-07
-2.5109e-08
1.09153e-06
-1.24365e-06
-1.42811e-06
0.00110731
6.71322e-07
4.7256e-07
-1.13497e-07
1.25631e-07
5.03618e-07
0.000261995
-3.68956e-09
0.000246848
-0.000246951
-1.79449e-08
-1.8933e-07
-5.91358e-08
0.000206608
-5.46078e-10
0.000247249
-2.11222e-08
-2.425e-07
0.000206064
-4.24171e-08
-0.00020622
-3.14141e-07
0.000263324
-0.000263131
1.78881e-07
-5.94017e-08
0.00110542
1.08032e-06
6.61687e-07
-1.24278e-06
4.64941e-07
-1.42787e-06
-2.68297e-07
5.06669e-07
1.32134e-07
0.000262546
5.17638e-07
0.00110929
1.04339e-06
-1.55881e-06
6.39883e-08
-5.77398e-07
-1.34096e-06
-3.21693e-08
-6.85391e-07
6.18927e-07
-4.54824e-07
0.000263084
6.5602e-07
-5.80428e-08
0.0011064
1.06844e-06
-1.42037e-06
4.6528e-07
-1.23784e-06
6.61869e-07
-1.88528e-07
0.000262288
1.0898e-07
-0.000262289
1.49498e-07
0.00024681
-0.000246915
-1.88023e-07
-2.44657e-08
8.34867e-09
-4.84014e-08
0.000206556
0.000247201
-2.45853e-07
-2.04612e-08
0.000206004
2.08094e-08
-4.95848e-08
-0.000206164
-4.35899e-07
-3.184e-09
-5.04698e-08
6.49929e-07
0.000263193
5.14913e-07
1.04586e-06
1.02431e-06
-5.66783e-07
5.66179e-08
6.27357e-07
-6.87214e-07
-1.34917e-06
-2.78066e-08
-2.60091e-07
1.30421e-07
5.00975e-07
0.000262105
4.13384e-09
1.06835e-06
6.71433e-07
-1.24029e-06
-1.42637e-06
4.72207e-07
-6.65428e-09
-1.6523e-08
-2.2412e-07
0.000246659
-5.2786e-08
0.000205844
-4.3937e-07
6.49644e-07
-5.97198e-08
0.00026317
5.17593e-07
-1.55777e-06
1.04624e-06
6.17013e-07
-6.85076e-07
-1.34752e-06
-2.9589e-08
1.05562e-06
-5.69153e-07
6.55737e-08
1.07076e-06
6.6316e-07
-1.23889e-06
-1.4248e-06
4.69201e-07
-2.62751e-07
-1.08924e-07
1.17796e-07
5.03139e-07
0.000262039
-2.2457e-07
-2.75421e-08
0.000246616
3.56952e-09
-4.85871e-08
0.000205786
3.12234e-07
-3.20175e-09
0.000298143
-1.08581e-07
3.13585e-07
-2.75053e-09
0.000298268
0.000272287
-0.000270176
-1.24405e-08
-1.9113e-08
0.000297396
1.92908e-09
-0.00029761
2.08133e-07
-7.18109e-08
0.000297535
1.29834e-09
-0.000297741
2.06723e-07
-1.19102e-08
0.000102548
0.000102338
-1.63823e-08
-0.000102394
1.00517e-07
0.000102232
1.50008e-06
0.000270345
-5.64923e-07
-5.9383e-07
-1.25632e-08
2.93812e-07
0.000297102
-9.73682e-08
1.18333e-07
-1.25395e-08
2.99463e-07
0.000297227
-7.46714e-09
0.000102248
-3.1251e-07
0.000263316
-0.000263122
1.77029e-07
-5.72883e-08
0.00110529
1.08545e-06
6.58319e-07
-1.24268e-06
4.6202e-07
-1.42723e-06
-2.69655e-07
5.09761e-07
1.32051e-07
0.000262506
5.09956e-07
0.00111025
1.04991e-06
-1.52184e-06
5.89638e-08
-5.71734e-07
-1.34441e-06
-2.91766e-08
-6.87677e-07
6.22049e-07
-4.57311e-07
0.000263076
6.58442e-07
-5.79073e-08
0.00110627
1.07446e-06
-1.42139e-06
4.65006e-07
-1.23806e-06
6.60958e-07
-1.85795e-07
0.000262254
1.10263e-07
-0.000262251
1.45623e-07
1.58987e-09
0.000246847
-0.000246949
-2.34099e-08
-1.88365e-07
-5.48887e-08
0.000206604
-1.75966e-09
0.00024724
-1.83344e-08
-2.4497e-07
0.000206057
-4.17617e-08
-0.000206214
0.000246807
-0.000246909
-2.08086e-08
-1.88079e-07
8.91138e-09
-5.01961e-08
0.000206546
0.000247197
-2.08893e-08
-2.45901e-07
0.000205995
2.08963e-08
-4.71769e-08
-0.000206154
1.14848e-09
-4.42479e-07
6.52164e-07
-5.43716e-08
0.000263191
6.74486e-07
1.22235e-06
1.09128e-06
-5.60221e-07
6.54461e-08
6.25609e-07
-6.90019e-07
-1.34803e-06
-2.98214e-08
0.00111045
4.66252e-08
1.05364e-06
6.69546e-07
-1.24113e-06
-1.42615e-06
4.73056e-07
-2.56287e-07
1.28084e-07
5.05218e-07
0.000262098
-4.42429e-07
6.52395e-07
-5.59426e-08
0.000263163
5.00072e-07
-1.52101e-06
1.04764e-06
6.20934e-07
-6.87955e-07
-1.34826e-06
-2.78049e-08
1.01771e-06
-5.63732e-07
5.91458e-08
1.07074e-06
6.64965e-07
-1.23878e-06
-1.42354e-06
4.69603e-07
-2.62533e-07
-1.08928e-07
1.21822e-07
5.05531e-07
0.000261998
-3.66957e-10
-1.94766e-08
-2.26803e-07
0.000246651
-4.50318e-08
0.000205838
-2.22116e-08
-2.25437e-07
0.000246612
5.86474e-09
-5.00855e-08
0.000205777
0.000102539
0.00010233
-0.000102386
0.000102532
0.000102323
-0.000102379
0.000270337
-5.73323e-07
-5.79295e-07
-9.52956e-08
-1.73113e-08
2.94279e-07
0.000297196
-9.7063e-08
-1.71035e-08
2.94345e-07
0.000297105
0.000102238
0.000102232
-7.84506e-09
1.71893e-07
0.000151019
-0.000151196
1.21866e-08
-2.35952e-07
-2.26632e-08
-0.000247146
2.07489e-09
4.50292e-07
-0.000181154
2.988e-09
-2.07885e-10
0.000180961
-0.000240582
-1.26917e-07
-2.67571e-08
0.000240445
2.6985e-07
-0.000181397
-8.44363e-10
-0.000240825
-2.91408e-08
4.20895e-07
9.44457e-09
0.000150886
-8.26878e-05
3.77031e-08
-1.43013e-08
8.26644e-05
-7.71187e-08
0.000283249
2.60163e-08
-0.000283609
3.55286e-07
-4.36746e-08
0.000206462
1.66353e-08
1.84167e-07
-1.60145e-08
-8.27489e-05
2.63215e-08
0.000282985
2.31793e-07
-0.000151337
-7.80605e-09
1.3465e-07
-1.97797e-07
-2.30247e-08
5.5341e-10
3.23121e-07
7.90373e-09
0.000181602
-0.000181853
1.25124e-09
-1.74646e-07
0.00024098
-0.000241222
4.23012e-07
-0.00015152
-6.78646e-11
2.9292e-07
7.4662e-08
8.26019e-05
-0.00028264
-3.82036e-08
0.000282398
2.07807e-07
-4.82325e-08
9.58067e-09
2.63583e-07
3.4241e-07
8.25732e-05
0.000102479
-2.17625e-08
8.17358e-08
-7.05713e-09
1.02479e-07
1.69404e-07
-6.11752e-09
0.000151014
-0.00015119
1.22479e-08
-2.12334e-08
-2.35107e-07
-0.000247138
5.05042e-10
4.47039e-07
-0.000240582
-1.25362e-07
-2.70453e-08
0.00024044
2.72511e-07
-0.00018115
5.6941e-09
3.58518e-10
0.000180956
-0.000240819
-2.77905e-08
4.12185e-07
-0.000181391
1.06982e-10
1.34858e-08
0.000150881
-8.26848e-05
3.79563e-08
-1.03621e-08
8.26573e-05
-7.671e-08
0.000283241
2.64958e-08
-0.000283595
3.51037e-07
-4.40064e-08
0.000206436
1.81362e-08
1.86422e-07
-1.3445e-08
-8.27481e-05
2.56139e-08
0.000282985
2.2396e-07
-0.000151331
1.34567e-07
-4.06032e-09
-2.05546e-08
-1.99485e-07
8.13776e-11
3.21126e-07
-1.77231e-07
0.000240964
-0.000241207
4.26955e-07
6.99833e-09
0.000181595
-0.000181846
5.22602e-10
-0.000151514
2.8508e-07
-1.40326e-10
7.50044e-08
8.25945e-05
-0.000282645
-3.81384e-08
0.000282389
2.18449e-07
-5.18461e-08
1.13797e-08
2.64029e-07
3.35446e-07
8.25698e-05
0.000102475
-2.38588e-08
8.01782e-08
-1.03641e-08