/*--------------------------------*- C++ -*----------------------------------*\
| =========                 |                                                 |
| \\      /  F ield         | OpenFOAM: The Open Source CFD Toolbox           |
|  \\    /   O peration     | Version:  v2006                                 |
|   \\  /    A nd           | Website:  www.openfoam.com                      |
|    \\/     M anipulation  |                                                 |
\*---------------------------------------------------------------------------*/
FoamFile
{
    version     2.0;
    format      ascii;
    class       volScalarField;
    location    "750";
    object      k;
}
// * * * * * * * * * * * * * * * * * * * * * * * * * * * * * * * * * * * * * //

dimensions      [0 2 -2 0 0 0 0];


internalField   nonuniform List<scalar> 
43248
(
1.49374e-05
1.61536e-05
1.61537e-05
1.81342e-05
1.46145e-05
1.62921e-05
1.62924e-05
1.87283e-05
1.43383e-05
1.65205e-05
1.65208e-05
1.9428e-05
1.4108e-05
1.68356e-05
1.68362e-05
2.02214e-05
1.39234e-05
1.72352e-05
1.72357e-05
2.10937e-05
1.37845e-05
1.77163e-05
1.77171e-05
2.20368e-05
1.36907e-05
1.82729e-05
1.82738e-05
2.30302e-05
1.36421e-05
1.89015e-05
1.89023e-05
2.40652e-05
1.36391e-05
1.95984e-05
1.95996e-05
2.51259e-05
1.36813e-05
2.03551e-05
2.03565e-05
2.62012e-05
1.37704e-05
2.1171e-05
2.11725e-05
2.72832e-05
1.39035e-05
2.20299e-05
2.20314e-05
2.83601e-05
1.40872e-05
2.29434e-05
2.29452e-05
2.94334e-05
1.43123e-05
2.38798e-05
2.3882e-05
3.04826e-05
1.45869e-05
2.48564e-05
2.48584e-05
3.15198e-05
1.49095e-05
2.58572e-05
2.58593e-05
3.25386e-05
1.52761e-05
2.68708e-05
2.68739e-05
3.35341e-05
1.56893e-05
2.79017e-05
2.79039e-05
3.45031e-05
1.61465e-05
2.89333e-05
2.89364e-05
3.5453e-05
1.66461e-05
2.99669e-05
2.99697e-05
3.637e-05
1.71903e-05
3.1002e-05
3.10048e-05
3.7272e-05
1.77716e-05
3.20212e-05
3.20248e-05
3.81369e-05
1.8396e-05
3.30422e-05
3.3045e-05
3.89935e-05
1.90529e-05
3.40345e-05
3.40375e-05
3.98111e-05
1.97358e-05
3.50075e-05
3.5011e-05
4.06026e-05
2.04553e-05
3.59681e-05
3.59711e-05
4.13809e-05
2.11995e-05
3.6902e-05
3.69059e-05
4.21271e-05
1.80247e-05
1.61328e-05
1.61332e-05
1.80249e-05
1.61332e-05
1.61333e-05
1.6133e-05
1.61332e-05
1.80251e-05
1.61331e-05
1.61337e-05
1.80257e-05
1.81331e-05
1.85969e-05
1.61536e-05
1.61539e-05
1.6249e-05
1.62495e-05
1.81337e-05
1.85972e-05
1.61538e-05
1.61539e-05
1.62492e-05
1.62496e-05
1.61538e-05
1.6249e-05
1.62492e-05
1.81334e-05
1.85976e-05
1.61543e-05
1.62492e-05
1.62496e-05
1.85973e-05
1.87277e-05
1.92755e-05
1.62923e-05
1.62927e-05
1.64552e-05
1.64557e-05
1.87284e-05
1.92757e-05
1.62923e-05
1.62927e-05
1.64552e-05
1.64558e-05
1.62926e-05
1.64549e-05
1.64554e-05
1.87284e-05
1.9276e-05
1.6293e-05
1.64553e-05
1.64557e-05
1.92767e-05
1.94272e-05
2.00497e-05
1.65208e-05
1.65213e-05
1.67495e-05
1.67499e-05
1.94276e-05
2.00498e-05
1.65207e-05
1.65214e-05
1.67494e-05
1.67502e-05
1.6521e-05
1.67489e-05
1.67499e-05
1.94278e-05
2.00502e-05
1.65212e-05
1.67494e-05
1.67501e-05
2.00511e-05
2.022e-05
2.09051e-05
1.68365e-05
1.68367e-05
1.71281e-05
1.71288e-05
2.02201e-05
2.09058e-05
1.68361e-05
1.6837e-05
1.71278e-05
1.71291e-05
1.68368e-05
1.71276e-05
1.71286e-05
2.02204e-05
2.09062e-05
1.68369e-05
1.7128e-05
1.71286e-05
2.09067e-05
2.10921e-05
2.18339e-05
1.72358e-05
1.72365e-05
1.75898e-05
1.75903e-05
2.10932e-05
2.18339e-05
1.72354e-05
1.72367e-05
1.75894e-05
1.75908e-05
1.72364e-05
1.75889e-05
1.75903e-05
2.10932e-05
2.18347e-05
1.72362e-05
1.75895e-05
1.759e-05
2.18356e-05
2.20353e-05
2.28158e-05
1.77174e-05
1.77178e-05
1.81278e-05
1.81282e-05
2.20354e-05
2.28157e-05
1.77167e-05
1.77183e-05
1.81271e-05
1.81288e-05
1.77181e-05
1.81265e-05
1.81283e-05
2.2036e-05
2.28166e-05
1.77178e-05
1.81273e-05
1.81278e-05
2.28186e-05
2.30281e-05
2.3841e-05
1.82744e-05
1.82747e-05
1.87392e-05
1.87398e-05
2.30283e-05
2.38414e-05
1.82734e-05
1.82752e-05
1.87383e-05
1.87403e-05
1.82745e-05
1.87379e-05
1.87404e-05
2.30288e-05
2.38424e-05
1.8274e-05
1.87387e-05
1.87396e-05
2.38439e-05
2.4062e-05
2.48965e-05
1.89031e-05
1.89035e-05
1.94201e-05
1.94203e-05
2.40625e-05
2.48962e-05
1.89019e-05
1.89038e-05
1.94189e-05
1.94214e-05
1.89039e-05
1.94182e-05
1.94206e-05
2.40632e-05
2.48977e-05
1.89031e-05
1.94196e-05
1.94195e-05
2.48978e-05
2.51245e-05
2.59669e-05
1.96002e-05
1.96005e-05
2.01628e-05
2.01629e-05
2.51245e-05
2.5967e-05
1.95988e-05
1.96013e-05
2.01614e-05
2.01637e-05
1.9601e-05
2.01607e-05
2.01639e-05
2.5126e-05
2.59675e-05
1.95998e-05
2.01619e-05
2.01625e-05
2.597e-05
2.6199e-05
2.70461e-05
2.03576e-05
2.03574e-05
2.09638e-05
2.09644e-05
2.61992e-05
2.70461e-05
2.03559e-05
2.03583e-05
2.09621e-05
2.09655e-05
2.03585e-05
2.09621e-05
2.09645e-05
2.61997e-05
2.70476e-05
2.03571e-05
2.09636e-05
2.09628e-05
2.70494e-05
2.72806e-05
2.81228e-05
2.11731e-05
2.11733e-05
2.18134e-05
2.18125e-05
2.72811e-05
2.81216e-05
2.11711e-05
2.11744e-05
2.18115e-05
2.18138e-05
2.11738e-05
2.18102e-05
2.18149e-05
2.72821e-05
2.81232e-05
2.11721e-05
2.18118e-05
2.18129e-05
2.81269e-05
2.83563e-05
2.91956e-05
2.20327e-05
2.20322e-05
2.2714e-05
2.27145e-05
2.83553e-05
2.91968e-05
2.20304e-05
2.20333e-05
2.27119e-05
2.2716e-05
2.20337e-05
2.27122e-05
2.27146e-05
2.83565e-05
2.91983e-05
2.20316e-05
2.27139e-05
2.27123e-05
2.91975e-05
2.94314e-05
3.0249e-05
2.2946e-05
2.29457e-05
2.36458e-05
2.36448e-05
2.94327e-05
3.02471e-05
2.29435e-05
2.29472e-05
2.36434e-05
2.36465e-05
2.29465e-05
2.36426e-05
2.36478e-05
2.9434e-05
3.02489e-05
2.29441e-05
2.36446e-05
2.36452e-05
3.02529e-05
3.04784e-05
3.12872e-05
2.38831e-05
2.3882e-05
2.46118e-05
2.46107e-05
3.04772e-05
3.12863e-05
2.38805e-05
2.38838e-05
2.46093e-05
2.4613e-05
2.38855e-05
2.46086e-05
2.46137e-05
3.04788e-05
3.12886e-05
2.38829e-05
2.46112e-05
2.46109e-05
3.12907e-05
3.15172e-05
3.23115e-05
2.4859e-05
2.48586e-05
2.56079e-05
2.56079e-05
3.15168e-05
3.23122e-05
2.48562e-05
2.48601e-05
2.56051e-05
2.56092e-05
2.48602e-05
2.56059e-05
2.56082e-05
3.15185e-05
3.23132e-05
2.48573e-05
2.56074e-05
2.56051e-05
3.23131e-05
3.2537e-05
3.33098e-05
2.58601e-05
2.58592e-05
2.66204e-05
2.6618e-05
3.25373e-05
3.33072e-05
2.58571e-05
2.5861e-05
2.66175e-05
2.66209e-05
2.58606e-05
2.66161e-05
2.66229e-05
3.25385e-05
3.33103e-05
2.58574e-05
2.66194e-05
2.66197e-05
3.33136e-05
3.35304e-05
3.42848e-05
2.68748e-05
2.68726e-05
2.76449e-05
2.76444e-05
3.35286e-05
3.42853e-05
2.68717e-05
2.68752e-05
2.76419e-05
2.76461e-05
2.68776e-05
2.76427e-05
2.76453e-05
3.35311e-05
3.42863e-05
2.68743e-05
2.76446e-05
2.76418e-05
3.42867e-05
3.45021e-05
3.52392e-05
2.79042e-05
2.79034e-05
2.86794e-05
2.86774e-05
3.45028e-05
3.52376e-05
2.79009e-05
2.79053e-05
2.86763e-05
2.86804e-05
2.79039e-05
2.8676e-05
2.86819e-05
3.45037e-05
3.52405e-05
2.79004e-05
2.86792e-05
2.86784e-05
3.52421e-05
3.54494e-05
3.61625e-05
2.89364e-05
2.89345e-05
2.97111e-05
2.97085e-05
3.5448e-05
3.61612e-05
2.89332e-05
2.89373e-05
2.97078e-05
2.97112e-05
2.89398e-05
2.97071e-05
2.97114e-05
3.54506e-05
3.6163e-05
2.89362e-05
2.97101e-05
2.97078e-05
3.61642e-05
3.63697e-05
3.70679e-05
2.99709e-05
2.99682e-05
3.07472e-05
3.07459e-05
3.63684e-05
3.70676e-05
2.99673e-05
2.99706e-05
3.07439e-05
3.07486e-05
2.99706e-05
3.07455e-05
3.07505e-05
3.637e-05
3.70697e-05
2.9967e-05
3.07479e-05
3.07466e-05
3.70715e-05
3.7268e-05
3.79418e-05
3.10034e-05
3.10024e-05
3.17702e-05
3.17671e-05
3.7268e-05
3.79401e-05
3.1e-05
3.10053e-05
3.17666e-05
3.17701e-05
3.10075e-05
3.17658e-05
3.17703e-05
3.727e-05
3.79426e-05
3.10037e-05
3.17695e-05
3.17667e-05
3.79426e-05
3.81376e-05
3.88005e-05
3.20262e-05
3.20226e-05
3.27911e-05
3.2789e-05
3.81355e-05
3.88e-05
3.20223e-05
3.20252e-05
3.27876e-05
3.27921e-05
3.20248e-05
3.2789e-05
3.27925e-05
3.81378e-05
3.88022e-05
3.20212e-05
3.27919e-05
3.27887e-05
3.88023e-05
3.89909e-05
3.96267e-05
3.30436e-05
3.30418e-05
3.37924e-05
3.3789e-05
3.8991e-05
3.96254e-05
3.30401e-05
3.30451e-05
3.37886e-05
3.37922e-05
3.30466e-05
3.37891e-05
3.37943e-05
3.89931e-05
3.96278e-05
3.30427e-05
3.3792e-05
3.37905e-05
3.96295e-05
3.98098e-05
4.04238e-05
3.40386e-05
3.40347e-05
3.47684e-05
3.47649e-05
3.98079e-05
4.04224e-05
3.40345e-05
3.40375e-05
3.47648e-05
3.47684e-05
3.40391e-05
3.47649e-05
3.47683e-05
3.98101e-05
4.04249e-05
3.40352e-05
3.47686e-05
3.47647e-05
4.04241e-05
4.0602e-05
4.12047e-05
3.50104e-05
3.50073e-05
3.57329e-05
3.57297e-05
4.0601e-05
4.1204e-05
3.50069e-05
3.50107e-05
3.57291e-05
3.57328e-05
3.50112e-05
3.57305e-05
3.57351e-05
4.06034e-05
4.12064e-05
3.50075e-05
3.57334e-05
3.57313e-05
4.12079e-05
4.13783e-05
4.19594e-05
3.59707e-05
3.59673e-05
3.66734e-05
3.66694e-05
4.13774e-05
4.19577e-05
3.59666e-05
3.59705e-05
3.66694e-05
3.66735e-05
3.59727e-05
3.66704e-05
3.66742e-05
4.13797e-05
4.19612e-05
3.59688e-05
3.66744e-05
3.66706e-05
4.19605e-05
4.21268e-05
3.69049e-05
3.69009e-05
4.2125e-05
3.69009e-05
3.6905e-05
3.69053e-05
4.21283e-05
3.69017e-05
1.50253e-05
1.50253e-05
1.50253e-05
1.50253e-05
5.35415e-05
7.00365e-05
5.29189e-05
7.00626e-05
6.9629e-05
6.96078e-05
5.35422e-05
7.0038e-05
5.29194e-05
7.00642e-05
1.49374e-05
1.49373e-05
1.49374e-05
1.46907e-05
1.46907e-05
1.46907e-05
1.46908e-05
2.93918e-05
4.52064e-05
1.49119e-05
1.61797e-05
2.88272e-05
4.56422e-05
1.48617e-05
6.96294e-05
6.96081e-05
2.93922e-05
1.49119e-05
4.52082e-05
1.61799e-05
2.88277e-05
1.48618e-05
4.56426e-05
5.90102e-05
5.90187e-05
1.82977e-05
5.92944e-05
5.93028e-05
5.48588e-05
7.00955e-05
5.43374e-05
7.01188e-05
6.95567e-05
6.95374e-05
5.48593e-05
7.0097e-05
5.43378e-05
7.01204e-05
1.46146e-05
1.46146e-05
1.46146e-05
1.44028e-05
1.44028e-05
1.44028e-05
1.44029e-05
3.11002e-05
4.64239e-05
1.47402e-05
1.63407e-05
3.05297e-05
4.68331e-05
1.47069e-05
6.9557e-05
6.95377e-05
3.10978e-05
1.47403e-05
4.64259e-05
1.6341e-05
3.05329e-05
1.47071e-05
4.68332e-05
5.96704e-05
5.96789e-05
1.8925e-05
5.99228e-05
5.99312e-05
5.59568e-05
7.01476e-05
5.55224e-05
7.01682e-05
6.94901e-05
6.94725e-05
5.59572e-05
7.01492e-05
5.55227e-05
7.01699e-05
1.43383e-05
1.43383e-05
1.43384e-05
1.41612e-05
1.41612e-05
1.41612e-05
1.41613e-05
3.27773e-05
4.75402e-05
1.46376e-05
1.65913e-05
3.22104e-05
4.79239e-05
1.46214e-05
6.94903e-05
6.94727e-05
3.27749e-05
1.46378e-05
4.75423e-05
1.65916e-05
3.22136e-05
1.46216e-05
4.79237e-05
6.0256e-05
6.02644e-05
1.96523e-05
6.04824e-05
6.04909e-05
5.68723e-05
7.0193e-05
5.65093e-05
7.02112e-05
6.94289e-05
6.94134e-05
5.68726e-05
7.01947e-05
5.65096e-05
7.02129e-05
1.4108e-05
1.41081e-05
1.41082e-05
1.3965e-05
1.3965e-05
1.39651e-05
1.39652e-05
3.43917e-05
4.85613e-05
1.46049e-05
1.69277e-05
3.38381e-05
4.89205e-05
1.46073e-05
6.94291e-05
6.94135e-05
3.43896e-05
1.46052e-05
4.85638e-05
1.69282e-05
3.38413e-05
1.46076e-05
4.89204e-05
6.07801e-05
6.07885e-05
2.04695e-05
6.09823e-05
6.09907e-05
5.76415e-05
7.02329e-05
5.73352e-05
7.0249e-05
6.93737e-05
6.93599e-05
5.76417e-05
7.02346e-05
5.73353e-05
7.02507e-05
1.39235e-05
1.39236e-05
1.39236e-05
1.38149e-05
1.38149e-05
1.38151e-05
1.38151e-05
3.5923e-05
4.94966e-05
1.464e-05
1.73481e-05
3.53889e-05
4.98334e-05
1.466e-05
6.93739e-05
6.936e-05
3.59211e-05
1.46404e-05
4.94989e-05
1.73486e-05
3.53917e-05
1.46603e-05
4.98334e-05
6.12522e-05
6.12606e-05
2.13633e-05
6.1436e-05
6.14444e-05
5.82956e-05
7.02682e-05
5.80337e-05
7.02828e-05
6.9324e-05
6.93119e-05
5.82957e-05
7.02699e-05
5.80338e-05
7.02845e-05
1.37845e-05
1.37847e-05
1.37849e-05
1.37095e-05
1.37094e-05
1.37097e-05
1.37098e-05
3.73584e-05
5.03544e-05
1.47455e-05
1.78481e-05
3.6848e-05
5.0671e-05
1.47825e-05
6.93241e-05
6.9312e-05
3.73568e-05
1.47459e-05
5.03569e-05
1.7849e-05
3.68505e-05
1.4783e-05
5.0671e-05
6.1681e-05
6.16894e-05
2.2322e-05
6.18486e-05
6.18569e-05
5.88605e-05
7.03004e-05
5.86326e-05
7.03141e-05
6.928e-05
6.92697e-05
5.88605e-05
7.03021e-05
5.86326e-05
7.03158e-05
1.36908e-05
1.36911e-05
1.3691e-05
1.36495e-05
1.36496e-05
1.36498e-05
1.36499e-05
3.86928e-05
5.11422e-05
1.49192e-05
1.84237e-05
3.8208e-05
5.14426e-05
1.49734e-05
6.92802e-05
6.92699e-05
3.86915e-05
1.49198e-05
5.11445e-05
1.84246e-05
3.82102e-05
1.4974e-05
5.14428e-05
6.20706e-05
6.20788e-05
2.33259e-05
6.22262e-05
6.22344e-05
5.93558e-05
7.03307e-05
5.9155e-05
7.0344e-05
6.92418e-05
6.92337e-05
5.93559e-05
7.03324e-05
5.91551e-05
7.03458e-05
1.36421e-05
1.36424e-05
1.36426e-05
1.36361e-05
1.36361e-05
1.36366e-05
1.36366e-05
3.99279e-05
5.18695e-05
1.51609e-05
1.90696e-05
3.94699e-05
5.21543e-05
1.52319e-05
6.92419e-05
6.92339e-05
3.99272e-05
1.51616e-05
5.18713e-05
1.90706e-05
3.94717e-05
1.52326e-05
5.21547e-05
6.24313e-05
6.24395e-05
2.4368e-05
6.25736e-05
6.25818e-05
5.97977e-05
7.03603e-05
5.96179e-05
7.03736e-05
6.92094e-05
6.92033e-05
5.97979e-05
7.03621e-05
5.96181e-05
7.03754e-05
1.36391e-05
1.36396e-05
1.36396e-05
1.36665e-05
1.36664e-05
1.36669e-05
1.36672e-05
4.107e-05
5.25462e-05
1.54695e-05
1.97824e-05
4.0638e-05
5.28136e-05
1.5557e-05
6.92094e-05
6.92033e-05
4.10696e-05
1.54704e-05
5.25479e-05
1.97833e-05
4.06392e-05
1.55578e-05
5.28139e-05
6.27673e-05
6.27755e-05
2.54338e-05
6.28995e-05
6.29077e-05
6.01976e-05
7.03903e-05
6.00338e-05
7.0404e-05
6.91829e-05
6.91789e-05
6.01978e-05
7.03921e-05
6.00337e-05
7.04059e-05
1.36812e-05
1.36817e-05
1.3682e-05
1.37437e-05
1.37439e-05
1.37445e-05
1.37443e-05
4.21262e-05
5.31774e-05
1.58428e-05
2.05534e-05
4.17185e-05
5.34277e-05
1.5946e-05
6.9183e-05
6.9179e-05
4.21262e-05
1.58438e-05
5.3179e-05
2.05549e-05
4.17197e-05
1.59471e-05
5.3429e-05
6.30789e-05
6.3087e-05
2.65089e-05
6.32059e-05
6.32142e-05
6.05636e-05
7.04215e-05
6.04128e-05
7.04358e-05
6.91623e-05
6.91603e-05
6.05636e-05
7.04234e-05
6.04126e-05
7.04377e-05
1.37705e-05
1.37712e-05
1.37711e-05
1.3866e-05
1.38657e-05
1.38664e-05
1.38669e-05
4.31065e-05
5.37696e-05
1.628e-05
2.13819e-05
4.27218e-05
5.4004e-05
1.63988e-05
6.91624e-05
6.91604e-05
4.31064e-05
1.62812e-05
5.37709e-05
2.13835e-05
4.27229e-05
1.64e-05
5.40053e-05
6.33747e-05
6.33826e-05
2.75892e-05
6.34954e-05
6.35036e-05
6.09026e-05
7.04547e-05
6.07622e-05
7.04705e-05
6.91478e-05
6.91486e-05
6.09026e-05
7.04566e-05
6.0762e-05
7.04725e-05
1.39034e-05
1.3904e-05
1.39043e-05
1.40369e-05
1.40371e-05
1.40379e-05
1.40374e-05
4.40188e-05
5.43227e-05
1.67763e-05
2.22541e-05
4.36549e-05
5.45473e-05
1.69101e-05
6.91478e-05
6.91486e-05
4.40188e-05
1.67775e-05
5.4324e-05
2.22557e-05
4.3656e-05
1.69114e-05
5.45485e-05
6.36523e-05
6.36603e-05
2.86598e-05
6.37692e-05
6.37771e-05
6.12199e-05
7.04907e-05
6.10889e-05
7.05068e-05
6.9139e-05
6.91411e-05
6.12204e-05
7.04927e-05
6.10891e-05
7.05088e-05
1.40873e-05
1.40881e-05
1.40878e-05
1.42519e-05
1.42517e-05
1.42526e-05
1.42532e-05
4.48755e-05
5.48527e-05
1.73344e-05
2.31751e-05
4.45309e-05
5.50601e-05
1.74821e-05
6.91391e-05
6.91412e-05
4.48759e-05
1.73359e-05
5.4854e-05
2.31769e-05
4.45318e-05
1.74836e-05
5.50614e-05
6.39274e-05
6.39355e-05
2.97315e-05
6.40329e-05
6.40409e-05
6.15187e-05
7.05291e-05
6.13935e-05
7.05474e-05
6.91361e-05
6.9141e-05
6.15197e-05
7.05311e-05
6.13941e-05
7.05494e-05
1.43119e-05
1.43131e-05
1.43138e-05
1.45136e-05
1.45132e-05
1.45147e-05
1.4515e-05
4.56784e-05
5.53454e-05
1.79434e-05
2.412e-05
4.5352e-05
5.55468e-05
1.8104e-05
6.91361e-05
6.91411e-05
4.56789e-05
1.79451e-05
5.53469e-05
2.41225e-05
4.53526e-05
1.81058e-05
5.55484e-05
6.418e-05
6.41879e-05
3.07719e-05
6.42871e-05
6.42951e-05
6.18055e-05
7.0572e-05
6.16857e-05
7.05916e-05
6.91396e-05
6.91463e-05
6.18065e-05
7.0574e-05
6.16866e-05
7.05935e-05
1.4587e-05
1.45881e-05
1.45881e-05
1.48244e-05
1.48248e-05
1.48258e-05
1.4825e-05
4.6443e-05
5.58226e-05
1.86072e-05
2.51055e-05
4.61323e-05
5.6015e-05
1.87817e-05
6.91396e-05
6.91463e-05
4.64432e-05
1.86091e-05
5.58238e-05
2.5107e-05
4.61329e-05
1.87833e-05
5.60156e-05
6.44301e-05
6.4438e-05
3.18045e-05
6.45325e-05
6.45404e-05
6.20811e-05
7.06182e-05
6.19655e-05
7.06393e-05
6.91478e-05
6.91566e-05
6.20824e-05
7.06202e-05
6.19667e-05
7.06413e-05
1.49097e-05
1.49108e-05
1.49102e-05
1.51806e-05
1.51799e-05
1.51817e-05
1.51825e-05
4.71695e-05
5.62757e-05
1.93216e-05
2.61092e-05
4.6874e-05
5.64581e-05
1.95069e-05
6.9148e-05
6.91567e-05
4.717e-05
1.93233e-05
5.62771e-05
2.61122e-05
4.68744e-05
1.9509e-05
5.64599e-05
6.46722e-05
6.46801e-05
3.28166e-05
6.47715e-05
6.47795e-05
6.23495e-05
7.06683e-05
6.22366e-05
7.06912e-05
6.91619e-05
6.91726e-05
6.23508e-05
7.06703e-05
6.22379e-05
7.06932e-05
1.52755e-05
1.52773e-05
1.52784e-05
1.55812e-05
1.55815e-05
1.55827e-05
1.55821e-05
4.78648e-05
5.67092e-05
2.00787e-05
2.71268e-05
4.75814e-05
5.68852e-05
2.02745e-05
6.91619e-05
6.91726e-05
4.7865e-05
2.00812e-05
5.67105e-05
2.71293e-05
4.75819e-05
2.02769e-05
5.68859e-05
6.49053e-05
6.49132e-05
3.38029e-05
6.50009e-05
6.50088e-05
6.26135e-05
7.07229e-05
6.25022e-05
7.07472e-05
6.91811e-05
6.91933e-05
6.26148e-05
7.07249e-05
6.25035e-05
7.07492e-05
1.56895e-05
1.5691e-05
1.56898e-05
1.60288e-05
1.60285e-05
1.60305e-05
1.60308e-05
4.85342e-05
5.71277e-05
2.08786e-05
2.81604e-05
4.82609e-05
5.72969e-05
2.10851e-05
6.91812e-05
6.91934e-05
4.85341e-05
2.08808e-05
5.71286e-05
2.81631e-05
4.82607e-05
2.10874e-05
5.72984e-05
6.51336e-05
6.51415e-05
3.47675e-05
6.52286e-05
6.52366e-05
6.28718e-05
7.07807e-05
6.27626e-05
7.0807e-05
6.92047e-05
6.92193e-05
6.28731e-05
7.07827e-05
6.27639e-05
7.0809e-05
1.61463e-05
1.61483e-05
1.61491e-05
1.65164e-05
1.65155e-05
1.65178e-05
1.65178e-05
4.91769e-05
5.75263e-05
2.17158e-05
2.91904e-05
4.89142e-05
5.76891e-05
2.19293e-05
6.92048e-05
6.92192e-05
4.91765e-05
2.17184e-05
5.75277e-05
2.91934e-05
4.89145e-05
2.1932e-05
5.76899e-05
6.5355e-05
6.5363e-05
3.57065e-05
6.54452e-05
6.54532e-05
6.313e-05
7.08435e-05
6.30209e-05
7.0871e-05
6.92339e-05
6.92502e-05
6.31311e-05
7.08456e-05
6.30222e-05
7.08732e-05
1.66452e-05
1.66473e-05
1.6647e-05
1.70513e-05
1.70515e-05
1.70534e-05
1.70537e-05
4.98002e-05
5.79146e-05
2.25832e-05
3.0227e-05
4.95444e-05
5.80733e-05
2.28062e-05
6.92341e-05
6.92499e-05
4.97995e-05
2.25859e-05
5.79157e-05
3.02297e-05
4.95441e-05
2.28087e-05
5.80741e-05
6.55722e-05
6.55801e-05
3.66203e-05
6.56638e-05
6.56717e-05
6.33842e-05
7.09092e-05
6.32768e-05
7.09387e-05
6.9267e-05
6.92848e-05
6.33851e-05
7.09115e-05
6.32778e-05
7.09409e-05
1.71911e-05
1.71931e-05
1.71938e-05
1.7622e-05
1.76212e-05
1.76239e-05
1.76239e-05
5.0401e-05
5.82884e-05
2.34856e-05
3.12569e-05
5.01564e-05
5.84388e-05
2.37128e-05
6.9267e-05
6.92847e-05
5.04008e-05
2.34879e-05
5.82893e-05
3.12602e-05
5.01555e-05
2.37156e-05
5.84402e-05
6.57845e-05
6.57925e-05
3.75112e-05
6.58699e-05
6.58779e-05
6.36393e-05
7.098e-05
6.35309e-05
7.10111e-05
6.9305e-05
6.93247e-05
6.3639e-05
7.09822e-05
6.35309e-05
7.10133e-05
1.77705e-05
1.7773e-05
1.77724e-05
1.82367e-05
1.82367e-05
1.82393e-05
1.82383e-05
5.09843e-05
5.86474e-05
2.44036e-05
3.22775e-05
5.07433e-05
5.8798e-05
2.46385e-05
6.93052e-05
6.93249e-05
5.09834e-05
2.44072e-05
5.86489e-05
3.22808e-05
5.07434e-05
2.4642e-05
5.87987e-05
6.59905e-05
6.59985e-05
3.8373e-05
6.60797e-05
6.60875e-05
6.38908e-05
7.10535e-05
6.3785e-05
7.10853e-05
6.93461e-05
6.93666e-05
6.38907e-05
7.10557e-05
6.37854e-05
7.10874e-05
1.83964e-05
1.83991e-05
1.83988e-05
1.88863e-05
1.8886e-05
1.88886e-05
1.88896e-05
5.15515e-05
5.9002e-05
2.53547e-05
3.32935e-05
5.13207e-05
5.91422e-05
2.55951e-05
6.93466e-05
6.9367e-05
5.15498e-05
2.53572e-05
5.90024e-05
3.32961e-05
5.13192e-05
2.55973e-05
5.91427e-05
6.61986e-05
6.62065e-05
3.92225e-05
6.62801e-05
6.6288e-05
6.41378e-05
7.11293e-05
6.40337e-05
7.11624e-05
6.93903e-05
6.94127e-05
6.41371e-05
7.11315e-05
6.40326e-05
7.11647e-05
1.9052e-05
1.90547e-05
1.90553e-05
1.95618e-05
1.95608e-05
1.9564e-05
1.95633e-05
5.20918e-05
5.93332e-05
2.63161e-05
3.42787e-05
5.18699e-05
5.94699e-05
2.65572e-05
6.93912e-05
6.94136e-05
5.20911e-05
2.63189e-05
5.93344e-05
3.4282e-05
5.18691e-05
2.65603e-05
5.9471e-05
6.63904e-05
6.63983e-05
4.0028e-05
6.64713e-05
6.64792e-05
6.43827e-05
7.12088e-05
6.42787e-05
7.12435e-05
6.9439e-05
6.94629e-05
6.43823e-05
7.1211e-05
6.42787e-05
7.12456e-05
1.97349e-05
1.97382e-05
1.97374e-05
2.02727e-05
2.02724e-05
2.02755e-05
2.02759e-05
5.26179e-05
5.96579e-05
2.72857e-05
3.52498e-05
5.24018e-05
5.97917e-05
2.75314e-05
6.94402e-05
6.9464e-05
5.26166e-05
2.72892e-05
5.9659e-05
3.52532e-05
5.2401e-05
2.75348e-05
5.97923e-05
6.65845e-05
6.65923e-05
4.08187e-05
6.66656e-05
6.66734e-05
6.46243e-05
7.12909e-05
6.45232e-05
7.13259e-05
6.94906e-05
6.95153e-05
6.46234e-05
7.1293e-05
6.4522e-05
7.1328e-05
2.04551e-05
2.0458e-05
2.04587e-05
2.10111e-05
2.10104e-05
2.10145e-05
2.1014e-05
5.31249e-05
5.99736e-05
2.82723e-05
3.62036e-05
5.29178e-05
6.0101e-05
2.85188e-05
6.94921e-05
6.95167e-05
5.31237e-05
2.82749e-05
5.99745e-05
3.62072e-05
5.29165e-05
2.85217e-05
6.01023e-05
6.67741e-05
6.67819e-05
4.1588e-05
6.68508e-05
6.68587e-05
7.13742e-05
6.47598e-05
6.95447e-05
7.13764e-05
6.47593e-05
2.11991e-05
2.12028e-05
2.12022e-05
6.0275e-05
2.92586e-05
5.34108e-05
6.95462e-05
2.92619e-05
6.02764e-05
5.34101e-05
6.69558e-05
6.69637e-05
6.96439e-05
6.96457e-05
5.8954e-05
5.8963e-05
7.00321e-05
5.27902e-05
7.0029e-05
5.2789e-05
4.50102e-05
1.49645e-05
2.85395e-05
4.50127e-05
1.49645e-05
2.85391e-05
6.96453e-05
5.89614e-05
5.89536e-05
6.96437e-05
7.00336e-05
5.27908e-05
4.50125e-05
1.49647e-05
2.85401e-05
7.00295e-05
5.27898e-05
1.49645e-05
4.50115e-05
2.85399e-05
4.50085e-05
1.49648e-05
2.85399e-05
7.00327e-05
5.2791e-05
1.49646e-05
4.50067e-05
2.85395e-05
7.00291e-05
5.27898e-05
6.96456e-05
5.89613e-05
5.89553e-05
6.96446e-05
1.49648e-05
4.50079e-05
2.85403e-05
1.49648e-05
4.50118e-05
2.85398e-05
7.00332e-05
5.27912e-05
7.00301e-05
5.279e-05
5.89524e-05
5.8961e-05
6.9644e-05
6.96457e-05
6.96276e-05
6.96063e-05
6.96294e-05
6.96081e-05
5.90117e-05
5.90208e-05
1.82969e-05
5.92963e-05
5.93051e-05
6.95704e-05
6.95906e-05
6.95723e-05
6.95924e-05
1.84169e-05
5.96207e-05
5.96293e-05
5.935e-05
5.93589e-05
5.35403e-05
7.00334e-05
5.29177e-05
7.00596e-05
2.93913e-05
4.52066e-05
1.49117e-05
1.61797e-05
2.8827e-05
4.56441e-05
1.48614e-05
2.93909e-05
4.521e-05
1.49116e-05
1.61801e-05
2.88266e-05
4.56463e-05
1.48614e-05
5.36591e-05
7.00917e-05
7.00668e-05
5.42298e-05
5.36579e-05
7.00886e-05
7.00638e-05
5.42285e-05
2.96801e-05
1.62117e-05
4.62531e-05
1.47754e-05
4.58275e-05
1.48172e-05
3.02446e-05
2.96796e-05
1.62121e-05
4.62551e-05
1.47754e-05
4.58315e-05
1.48172e-05
3.02441e-05
5.90185e-05
5.90107e-05
1.82972e-05
5.93026e-05
5.9295e-05
6.96275e-05
6.96062e-05
6.9572e-05
6.95922e-05
1.84171e-05
5.96273e-05
5.96198e-05
5.93568e-05
5.93491e-05
6.95703e-05
6.95906e-05
2.9392e-05
4.52105e-05
1.49118e-05
1.61799e-05
2.88276e-05
4.56464e-05
1.48616e-05
5.35411e-05
7.00339e-05
5.29183e-05
7.00602e-05
2.93917e-05
1.49116e-05
4.52106e-05
1.61802e-05
2.8827e-05
1.48614e-05
4.56459e-05
5.36597e-05
7.00932e-05
7.00683e-05
5.42303e-05
2.96807e-05
1.62117e-05
4.62555e-05
1.47756e-05
4.58314e-05
1.48174e-05
3.02454e-05
5.36586e-05
7.00892e-05
7.00643e-05
5.42291e-05
2.96799e-05
1.62121e-05
1.47754e-05
4.62543e-05
1.48172e-05
4.58321e-05
3.02466e-05
5.35423e-05
7.00371e-05
5.29194e-05
7.00633e-05
2.93917e-05
1.49117e-05
4.52082e-05
1.61798e-05
2.88267e-05
1.48615e-05
4.56407e-05
5.3541e-05
7.00336e-05
5.29181e-05
7.00598e-05
2.96794e-05
1.62116e-05
4.62512e-05
1.47757e-05
4.5828e-05
1.48174e-05
3.02474e-05
5.36597e-05
7.00922e-05
7.00674e-05
5.42304e-05
2.9678e-05
1.62117e-05
1.47755e-05
4.62499e-05
1.48172e-05
4.58288e-05
3.02479e-05
5.36584e-05
7.00889e-05
7.0064e-05
5.42291e-05
5.90192e-05
5.90134e-05
1.82971e-05
5.93047e-05
5.92988e-05
6.96283e-05
6.96071e-05
6.95722e-05
6.95924e-05
1.84173e-05
5.96277e-05
5.96219e-05
5.93584e-05
5.93526e-05
6.95711e-05
6.95913e-05
2.93917e-05
1.49119e-05
4.52104e-05
1.61803e-05
2.88273e-05
1.48618e-05
4.56457e-05
5.35424e-05
7.00376e-05
5.29197e-05
7.00637e-05
5.35412e-05
7.00345e-05
5.29186e-05
7.00607e-05
2.96809e-05
1.62119e-05
1.47758e-05
4.62511e-05
1.48175e-05
4.58299e-05
3.02455e-05
2.96804e-05
1.62121e-05
1.47758e-05
4.62548e-05
1.48175e-05
4.58309e-05
3.0245e-05
5.366e-05
7.00926e-05
7.00678e-05
5.42305e-05
5.36588e-05
7.00899e-05
7.00649e-05
5.42293e-05
6.96277e-05
6.96065e-05
6.96295e-05
6.96082e-05
1.84173e-05
5.96191e-05
5.96277e-05
5.93483e-05
5.93566e-05
6.95707e-05
6.95908e-05
6.95725e-05
6.95926e-05
6.95552e-05
6.95357e-05
6.95571e-05
6.95377e-05
5.96715e-05
5.96802e-05
1.89236e-05
5.99245e-05
5.99329e-05
6.95027e-05
6.95211e-05
6.95046e-05
6.9523e-05
1.90651e-05
6.02134e-05
6.02215e-05
5.99723e-05
5.99807e-05
5.48574e-05
7.00924e-05
5.43361e-05
7.01159e-05
3.10959e-05
4.64242e-05
1.47399e-05
1.63409e-05
3.05329e-05
4.68345e-05
1.47067e-05
3.10967e-05
4.64272e-05
1.47399e-05
1.63413e-05
3.05313e-05
4.68368e-05
1.47066e-05
5.49567e-05
7.01444e-05
7.01224e-05
5.54332e-05
5.49554e-05
7.01414e-05
7.01195e-05
5.54318e-05
3.13778e-05
1.63954e-05
4.73924e-05
1.46552e-05
4.69944e-05
1.468e-05
3.19407e-05
3.1376e-05
1.63958e-05
4.73938e-05
1.46552e-05
4.69979e-05
1.46799e-05
3.19414e-05
5.96778e-05
5.96702e-05
1.89238e-05
5.99305e-05
5.9923e-05
6.95551e-05
6.95357e-05
6.95043e-05
6.95228e-05
1.90654e-05
6.02191e-05
6.02119e-05
5.99786e-05
5.9971e-05
6.95026e-05
6.95211e-05
3.10982e-05
4.64282e-05
1.47401e-05
1.6341e-05
3.05321e-05
4.68369e-05
1.47069e-05
5.48581e-05
7.0093e-05
5.43366e-05
7.01165e-05
3.10992e-05
1.47399e-05
4.64278e-05
1.63414e-05
3.05302e-05
1.47067e-05
4.68362e-05
5.49571e-05
7.0146e-05
7.0124e-05
5.54335e-05
3.13771e-05
1.63954e-05
4.73947e-05
1.46554e-05
4.69982e-05
1.46801e-05
3.1943e-05
5.49559e-05
7.0142e-05
7.012e-05
5.54323e-05
3.13753e-05
1.63959e-05
1.46553e-05
4.73935e-05
1.46799e-05
4.69984e-05
3.19439e-05
5.48595e-05
7.0096e-05
5.43377e-05
7.01193e-05
3.11008e-05
1.474e-05
4.64262e-05
1.63414e-05
3.05282e-05
1.47068e-05
4.68316e-05
5.48582e-05
7.00928e-05
5.43364e-05
7.01161e-05
3.13747e-05
1.63951e-05
4.73904e-05
1.46555e-05
4.69948e-05
1.46802e-05
3.19449e-05
5.49572e-05
7.01448e-05
7.01229e-05
5.54337e-05
3.13732e-05
1.63957e-05
1.46553e-05
4.73891e-05
1.468e-05
4.69954e-05
3.19454e-05
5.49559e-05
7.01418e-05
7.01196e-05
5.54323e-05
5.96785e-05
5.96728e-05
1.89239e-05
5.99319e-05
5.99262e-05
6.95559e-05
6.95365e-05
6.95045e-05
6.9523e-05
1.90654e-05
6.02201e-05
6.02144e-05
5.99798e-05
5.99742e-05
6.95034e-05
6.95218e-05
3.1098e-05
1.47403e-05
4.64284e-05
1.63417e-05
3.05318e-05
1.47071e-05
4.68364e-05
5.48597e-05
7.00964e-05
5.4338e-05
7.01198e-05
5.48585e-05
7.00937e-05
5.43368e-05
7.01171e-05
3.13781e-05
1.63954e-05
1.46557e-05
4.73907e-05
1.46803e-05
4.69966e-05
3.19424e-05
3.13767e-05
1.6396e-05
1.46556e-05
4.73939e-05
1.46803e-05
4.69975e-05
3.19426e-05
5.49575e-05
7.01452e-05
7.01233e-05
5.54336e-05
5.49563e-05
7.01428e-05
7.01206e-05
5.54324e-05
6.95555e-05
6.95359e-05
6.95573e-05
6.95378e-05
1.90667e-05
6.02104e-05
6.02189e-05
5.99703e-05
5.99787e-05
6.95029e-05
6.95212e-05
6.95048e-05
6.95231e-05
6.94885e-05
6.94708e-05
6.94904e-05
6.94728e-05
6.02584e-05
6.02666e-05
1.96515e-05
6.04843e-05
6.04922e-05
6.94405e-05
6.94572e-05
6.94425e-05
6.94592e-05
1.98128e-05
6.07427e-05
6.07504e-05
6.0527e-05
6.0535e-05
5.59555e-05
7.01447e-05
5.5521e-05
7.01654e-05
3.27731e-05
4.75404e-05
1.46374e-05
1.65915e-05
3.22134e-05
4.79249e-05
1.46212e-05
3.27738e-05
4.75431e-05
1.46374e-05
1.65921e-05
3.22115e-05
4.79271e-05
1.46212e-05
5.6038e-05
7.01904e-05
7.01712e-05
5.64353e-05
5.60367e-05
7.01875e-05
7.01683e-05
5.64339e-05
3.30353e-05
1.66681e-05
4.84348e-05
1.46046e-05
4.8063e-05
1.46123e-05
3.35901e-05
3.30335e-05
1.66685e-05
4.84357e-05
1.46045e-05
4.80659e-05
1.46123e-05
3.35906e-05
6.0264e-05
6.02566e-05
1.96518e-05
6.04903e-05
6.0483e-05
6.94884e-05
6.94708e-05
6.94421e-05
6.94589e-05
1.98133e-05
6.07473e-05
6.07402e-05
6.05331e-05
6.05258e-05
6.94403e-05
6.94571e-05
3.27754e-05
4.75442e-05
1.46376e-05
1.65915e-05
3.22128e-05
4.79272e-05
1.46214e-05
5.59561e-05
7.01453e-05
5.55215e-05
7.01659e-05
3.27762e-05
1.46374e-05
4.7544e-05
1.65923e-05
3.2211e-05
1.46212e-05
4.79263e-05
5.60383e-05
7.0192e-05
7.01728e-05
5.64355e-05
3.30347e-05
1.66679e-05
4.84371e-05
1.46048e-05
4.80666e-05
1.46125e-05
3.35923e-05
5.60371e-05
7.01881e-05
7.01689e-05
5.64344e-05
3.3033e-05
1.66686e-05
1.46046e-05
4.84355e-05
1.46123e-05
4.80664e-05
3.3593e-05
5.59575e-05
7.0148e-05
5.55227e-05
7.01686e-05
3.27778e-05
1.46375e-05
4.75419e-05
1.65919e-05
3.22089e-05
1.46213e-05
4.79219e-05
5.59563e-05
7.0145e-05
5.55214e-05
7.01656e-05
3.30325e-05
1.66676e-05
4.84327e-05
1.46048e-05
4.80633e-05
1.46125e-05
3.3594e-05
5.60385e-05
7.01906e-05
7.01715e-05
5.64358e-05
3.3031e-05
1.66684e-05
1.46047e-05
4.8432e-05
1.46124e-05
4.80638e-05
3.35945e-05
5.60372e-05
7.01879e-05
7.01686e-05
5.64345e-05
6.02651e-05
6.02595e-05
1.96521e-05
6.04912e-05
6.04856e-05
6.94891e-05
6.94716e-05
6.94424e-05
6.94591e-05
1.98134e-05
6.07486e-05
6.07431e-05
6.05339e-05
6.05285e-05
6.94412e-05
6.94579e-05
3.27751e-05
1.46378e-05
4.7544e-05
1.65921e-05
3.22121e-05
1.46216e-05
4.79265e-05
5.59575e-05
7.01484e-05
5.55228e-05
7.0169e-05
5.59563e-05
7.0146e-05
5.55216e-05
7.01666e-05
3.30357e-05
1.66679e-05
1.46051e-05
4.84331e-05
1.46127e-05
4.8065e-05
3.35917e-05
3.30342e-05
1.66685e-05
1.4605e-05
4.84366e-05
1.46127e-05
4.80658e-05
3.35919e-05
5.60387e-05
7.01911e-05
7.01719e-05
5.64357e-05
5.60375e-05
7.01889e-05
7.01696e-05
5.64345e-05
6.94887e-05
6.94711e-05
6.94906e-05
6.9473e-05
1.98138e-05
6.07396e-05
6.07481e-05
6.0525e-05
6.05334e-05
6.94407e-05
6.94573e-05
6.94426e-05
6.94593e-05
6.94273e-05
6.94115e-05
6.94292e-05
6.94135e-05
6.07826e-05
6.07904e-05
2.04678e-05
6.0985e-05
6.09925e-05
6.93842e-05
6.9399e-05
6.93862e-05
6.94009e-05
2.06462e-05
6.12187e-05
6.12261e-05
6.10235e-05
6.10311e-05
5.68709e-05
7.01902e-05
5.6508e-05
7.02084e-05
3.43878e-05
4.85618e-05
1.46047e-05
1.69283e-05
3.38409e-05
4.89215e-05
1.46071e-05
3.43883e-05
4.85638e-05
1.46047e-05
1.69288e-05
3.3839e-05
4.89234e-05
1.46071e-05
5.69399e-05
7.02306e-05
7.02137e-05
5.72733e-05
5.69385e-05
7.02279e-05
7.02109e-05
5.72719e-05
3.46266e-05
1.70257e-05
4.93882e-05
1.46243e-05
4.90397e-05
1.4613e-05
3.51651e-05
3.46248e-05
1.70263e-05
4.93895e-05
1.46243e-05
4.90423e-05
1.4613e-05
3.51655e-05
6.07872e-05
6.078e-05
2.04676e-05