/*--------------------------------*- C++ -*----------------------------------*\
| =========                 |                                                 |
| \\      /  F ield         | OpenFOAM: The Open Source CFD Toolbox           |
|  \\    /   O peration     | Version:  v2006                                 |
|   \\  /    A nd           | Website:  www.openfoam.com                      |
|    \\/     M anipulation  |                                                 |
\*---------------------------------------------------------------------------*/
FoamFile
{
    version     2.0;
    format      ascii;
    class       volScalarField;
    location    "750";
    object      nut;
}
// * * * * * * * * * * * * * * * * * * * * * * * * * * * * * * * * * * * * * //

dimensions      [0 2 -1 0 0 0 0];


internalField   nonuniform List<scalar> 
43248
(
0.000150146
0.000101705
0.000101705
8.25773e-05
0.000146067
9.88889e-05
9.88897e-05
8.20892e-05
0.00014205
9.65801e-05
9.65815e-05
8.21451e-05
0.000138121
9.47879e-05
9.47908e-05
8.26913e-05
0.000134295
9.35115e-05
9.35135e-05
8.36553e-05
0.000130636
9.27503e-05
9.27539e-05
8.50209e-05
0.000127159
9.24631e-05
9.24669e-05
8.66939e-05
0.000123902
9.26322e-05
9.26342e-05
8.86383e-05
0.000120904
9.32365e-05
9.32422e-05
9.07878e-05
0.000118187
9.42179e-05
9.42234e-05
9.31068e-05
0.0001158
9.558e-05
9.55858e-05
9.55603e-05
0.000113718
9.72041e-05
9.72092e-05
9.81004e-05
0.000112043
9.91997e-05
9.92064e-05
0.000100731
0.00011067
0.000101342
0.00010135
0.000103376
0.000109687
0.000103752
0.00010376
0.000106071
0.000109096
0.00010636
0.000106364
0.0001088
0.000108852
0.00010908
0.000109093
0.000111534
0.000108965
0.000111961
0.000111966
0.000114244
0.000109434
0.000114918
0.000114929
0.000116978
0.000110207
0.000117946
0.000117955
0.000119647
0.000111345
0.000121086
0.000121093
0.000122355
0.000112739
0.000124202
0.000124215
0.000124966
0.000114479
0.000127442
0.000127449
0.000127636
0.000116473
0.000130621
0.00013063
0.000130215
0.000118633
0.000133779
0.00013379
0.000132731
0.000121088
0.000136984
0.00013699
0.000135274
0.000123741
0.000140147
0.00014016
0.000137738
8.28592e-05
0.000102454
0.000102442
8.28565e-05
0.000102481
0.00010244
0.000102483
0.000102451
8.28566e-05
0.000102484
0.000102479
8.28505e-05
8.25838e-05
8.22636e-05
0.000101677
0.000101664
9.95156e-05
9.9505e-05
8.25826e-05
8.22609e-05
0.000101703
0.000101661
9.95434e-05
9.95036e-05
0.000101673
9.95453e-05
9.95114e-05
8.25792e-05
8.22624e-05
0.000101701
9.95462e-05
9.95382e-05
8.22482e-05
8.21032e-05
8.22092e-05
9.88604e-05
9.88491e-05
9.70781e-05
9.70674e-05
8.21012e-05
8.22047e-05
9.88871e-05
9.88471e-05
9.71057e-05
9.70668e-05
9.88578e-05
9.71061e-05
9.70757e-05
8.21017e-05
8.22051e-05
9.88844e-05
9.71079e-05
9.71015e-05
8.22012e-05
8.21562e-05
8.26549e-05
9.65523e-05
9.65419e-05
9.51623e-05
9.51511e-05
8.21512e-05
8.26515e-05
9.65786e-05
9.65404e-05
9.51892e-05
9.51509e-05
9.65488e-05
9.51881e-05
9.51607e-05
8.21525e-05
8.26509e-05
9.65743e-05
9.51903e-05
9.51854e-05
8.26462e-05
8.26995e-05
8.35322e-05
9.47642e-05
9.47516e-05
9.37557e-05
9.37478e-05
8.26929e-05
8.35309e-05
9.47898e-05
9.47516e-05
9.37817e-05
9.37472e-05
9.4762e-05
9.37828e-05
9.37555e-05
8.2694e-05
8.35313e-05
9.47864e-05
9.37845e-05
9.37788e-05
8.35239e-05
8.36631e-05
8.48198e-05
9.34851e-05
9.3477e-05
9.28717e-05
9.28628e-05
8.36625e-05
8.48155e-05
9.35099e-05
9.34761e-05
9.28965e-05
9.2863e-05
9.3485e-05
9.28956e-05
9.28693e-05
8.36623e-05
8.48174e-05
9.3508e-05
9.28983e-05
9.28912e-05
8.48114e-05
8.50306e-05
8.64265e-05
9.27278e-05
9.27181e-05
9.24668e-05
9.24571e-05
8.5025e-05
8.6421e-05
9.27513e-05
9.27188e-05
9.24903e-05
9.24583e-05
9.27281e-05
9.24881e-05
9.24666e-05
8.5027e-05
8.64246e-05
9.27497e-05
9.24917e-05
9.24871e-05
8.64268e-05
8.66968e-05
8.83144e-05
9.24427e-05
9.24329e-05
9.25274e-05
9.25206e-05
8.66908e-05
8.83126e-05
9.24649e-05
9.24338e-05
9.25496e-05
9.25208e-05
9.2439e-05
9.25496e-05
9.2532e-05
8.66934e-05
8.83162e-05
9.2459e-05
9.25522e-05
9.2551e-05
8.83116e-05
8.86368e-05
9.04282e-05
9.26114e-05
9.26037e-05
9.30297e-05
9.30201e-05
8.8634e-05
9.04228e-05
9.26322e-05
9.26028e-05
9.30505e-05
9.30247e-05
9.26147e-05
9.30473e-05
9.30273e-05
8.86374e-05
9.04278e-05
9.26332e-05
9.30542e-05
9.30448e-05
9.04166e-05
9.07998e-05
9.27074e-05
9.32183e-05
9.32097e-05
9.3924e-05
9.39152e-05
9.07936e-05
9.27048e-05
9.3238e-05
9.3213e-05
9.39434e-05
9.39165e-05
9.32181e-05
9.39407e-05
9.39266e-05
9.08013e-05
9.27033e-05
9.32353e-05
9.39444e-05
9.39425e-05
9.27084e-05
9.31111e-05
9.51307e-05
9.42039e-05
9.41928e-05
9.51861e-05
9.5182e-05
9.31073e-05
9.51272e-05
9.42221e-05
9.41954e-05
9.52041e-05
9.51851e-05
9.42062e-05
9.52056e-05
9.51848e-05
9.31072e-05
9.51321e-05
9.42216e-05
9.52115e-05
9.51993e-05
9.51319e-05
9.55621e-05
9.76537e-05
9.55617e-05
9.55568e-05
9.67613e-05
9.67458e-05
9.55601e-05
9.7644e-05
9.55788e-05
9.55598e-05
9.67781e-05
9.67499e-05
9.5561e-05
9.6769e-05
9.67672e-05
9.55633e-05
9.76495e-05
9.55751e-05
9.67751e-05
9.67805e-05
9.76591e-05
9.80946e-05
0.000100262
9.71936e-05
9.71813e-05
9.86591e-05
9.86573e-05
9.80831e-05
0.000100267
9.72093e-05
9.71841e-05
9.86748e-05
9.86614e-05
9.71968e-05
9.86789e-05
9.86563e-05
9.8088e-05
0.00010027
9.72094e-05
9.86849e-05
9.8668e-05
0.000100253
0.000100738
0.000102914
9.91839e-05
9.91783e-05
0.000100779
0.000100768
0.000100743
0.0001029
9.91988e-05
9.91825e-05
0.000100794
0.000100772
9.91806e-05
0.000100789
0.000100785
0.000100747
0.000102905
9.91921e-05
0.000100795
0.000100795
0.000102915
0.000103372
0.000105585
0.000101333
0.000101321
0.000103115
0.000103101
0.00010336
0.000105577
0.000101347
0.000101327
0.000103129
0.000103111
0.000101343
0.000103122
0.000103123
0.000103365
0.000105586
0.000101353
0.000103134
0.000103133
0.000105589
0.000106072
0.000108321
0.000103741
0.000103732
0.000105678
0.000105677
0.000106065
0.000108325
0.000103753
0.000103737
0.00010569
0.000105677
0.000103744
0.000105697
0.000105674
0.000106072
0.000108324
0.000103754
0.000105699
0.000105681
0.000108312
0.000108808
0.000111044
0.000106346
0.00010634
0.000108388
0.000108369
0.00010881
0.000111028
0.000106357
0.000106343
0.0001084
0.000108381
0.000106341
0.000108388
0.000108397
0.000108811
0.00011104
0.000106349
0.000108403
0.000108404
0.000111048
0.00011153
0.00011376
0.000109078
0.00010906
0.00011121
0.000111206
0.000111516
0.000113761
0.00010909
0.000109071
0.000111221
0.000111208
0.00010909
0.000111225
0.000111207
0.000111526
0.000113762
0.000109099
0.000111229
0.000111214
0.000113756
0.000114252
0.000116495
0.000111947
0.000111942
0.00011417
0.000114157
0.000114254
0.000116486
0.000111958
0.000111946
0.000114181
0.000114168
0.000111938
0.000114177
0.000114178
0.000114255
0.000116496
0.000111945
0.000114189
0.000114184
0.000116494
0.000116975
0.000119173
0.000114909
0.000114897
0.000117169
0.000117153
0.000116965
0.000119164
0.000114919
0.000114907
0.000117179
0.000117162
0.000114924
0.000117172
0.000117166
0.000116975
0.00011917
0.00011493
0.000117182
0.000117172
0.000119168
0.000119659
0.000121875
0.000117945
0.000117928
0.000120291
0.000120283
0.000119649
0.000121872
0.000117953
0.000117935
0.000120299
0.00012029
0.000117935
0.000120306
0.000120303
0.000119654
0.000121878
0.000117941
0.000120312
0.000120307
0.000121878
0.000122346
0.000124511
0.000121067
0.000121062
0.000123412
0.000123395
0.000122345
0.000124502
0.000121075
0.000121071
0.000123419
0.000123405
0.000121087
0.000123411
0.000123409
0.000122351
0.000124511
0.000121091
0.000123425
0.000123415
0.000124504
0.00012498
0.000127172
0.000124208
0.000124187
0.000126621
0.00012661
0.000124968
0.000127168
0.000124212
0.000124194
0.000126628
0.000126619
0.000124193
0.000126631
0.000126619
0.000124976
0.000127174
0.000124199
0.000126641
0.000126624
0.000127166
0.000127636
0.000129771
0.000127425
0.000127418
0.000129829
0.000129812
0.000127636
0.000129766
0.000127432
0.000127428
0.000129833
0.000129822
0.000127435
0.000129834
0.000129837
0.000127641
0.000129773
0.000127439
0.000129842
0.000129841
0.000129776
0.000130217
0.000132305
0.000130622
0.000130602
0.000132983
0.000132964
0.000130208
0.000132296
0.000130624
0.000130609
0.000132987
0.000132975
0.000130621
0.000132983
0.000132973
0.000130214
0.000132303
0.000130624
0.000132996
0.000132978
0.000132292
0.000132741
0.000134839
0.000133774
0.000133759
0.000136177
0.000136163
0.000132735
0.000134835
0.00013378
0.000133769
0.000136181
0.000136171
0.00013377
0.000136186
0.000136184
0.000132742
0.000134841
0.000133774
0.000136192
0.000136188
0.000134843
0.000135271
0.000137328
0.000136976
0.000136961
0.000139351
0.000139333
0.000135267
0.000137319
0.000136978
0.000136969
0.000139353
0.000139347
0.000136983
0.000139356
0.000139351
0.000135272
0.000137331
0.000136985
0.00013937
0.000139356
0.000137323
0.000137745
0.000140142
0.000140124
0.000137736
0.000140144
0.000140137
0.00014014
0.000137748
0.000140144
0.000151166
0.000151163
0.000151159
0.000151159
7.00633e-05
4.95546e-05
6.90721e-05
4.95638e-05
2.3628e-05
2.36244e-05
7.00562e-05
4.95501e-05
6.90769e-05
4.95594e-05
0.000150142
0.000150138
0.000150139
0.000147072
0.000147068
0.000147064
0.000147065
6.7103e-05
6.57759e-05
0.000126168
0.000100954
6.61431e-05
6.64871e-05
0.00012515
2.36267e-05
2.36231e-05
6.71029e-05
0.000126167
6.57779e-05
0.000100955
6.61426e-05
0.00012515
6.64858e-05
6.10745e-05
6.10726e-05
8.24818e-05
6.15159e-05
6.15136e-05
7.20616e-05
4.95754e-05
7.11961e-05
4.95837e-05
2.36157e-05
2.36124e-05
7.20545e-05
4.9571e-05
7.12005e-05
4.95793e-05
0.000146063
0.000146059
0.00014606
0.000143032
0.000143028
0.000143025
0.000143025
7.00602e-05
6.76716e-05
0.000122223
9.82606e-05
6.90268e-05
6.83694e-05
0.000121257
2.36144e-05
2.36111e-05
7.00476e-05
0.000122222
6.76743e-05
9.82619e-05
6.90375e-05
0.000121257
6.83675e-05
6.20285e-05
6.20264e-05
8.2165e-05
6.2434e-05
6.24315e-05
7.38096e-05
4.95939e-05
7.30515e-05
4.96012e-05
2.36044e-05
2.36014e-05
7.38024e-05
4.95895e-05
7.30557e-05
4.95968e-05
0.000142046
0.000142042
0.000142042
0.000139075
0.00013907
0.000139067
0.000139067
7.30756e-05
6.94636e-05
0.000118525
9.60836e-05
7.19841e-05
7.01461e-05
0.000117622
2.36031e-05
2.36001e-05
7.30633e-05
0.000118524
6.94669e-05
9.60845e-05
7.19952e-05
0.000117622
7.01437e-05
6.29035e-05
6.29011e-05
8.23604e-05
6.32764e-05
6.32739e-05
7.53469e-05
4.96099e-05
7.46776e-05
4.96164e-05
2.3594e-05
2.35914e-05
7.53396e-05
4.96056e-05
7.46815e-05
4.9612e-05
0.000138116
0.000138112
0.000138114
0.000135233
0.000135229
0.000135225
0.000135226
7.60782e-05
7.11538e-05
0.000115124
9.44203e-05
7.49526e-05
7.18183e-05
0.000114319
2.35927e-05
2.359e-05
7.60673e-05
0.000115124
7.11577e-05
9.44234e-05
7.4963e-05
0.00011432
7.18161e-05
6.37106e-05
6.37082e-05
8.30358e-05
6.40508e-05
6.40482e-05
7.67121e-05
4.9624e-05
7.6114e-05
4.96297e-05
2.35846e-05
2.35823e-05
7.67046e-05
4.96196e-05
7.61179e-05
4.96254e-05
0.000134292
0.000134288
0.000134288
0.000131533
0.000131528
0.000131525
0.000131525
7.90211e-05
7.27484e-05
0.000112028
9.3274e-05
7.78771e-05
7.33954e-05
0.000111317
2.35833e-05
2.35809e-05
7.9011e-05
0.000112029
7.27519e-05
9.32758e-05
7.78864e-05
0.000111317
7.33931e-05
6.44561e-05
6.44534e-05
8.41226e-05
6.47714e-05
6.47687e-05
7.79374e-05
4.96365e-05
7.73971e-05
4.96417e-05
2.35762e-05
2.35741e-05
7.793e-05
4.96321e-05
7.74007e-05
4.96373e-05
0.00013063
0.000130628
0.00013063
0.000128001
0.000127996
0.000127993
0.000127994
8.18714e-05
7.42526e-05
0.000109323
9.26319e-05
8.07223e-05
7.48831e-05
0.000108708
2.35748e-05
2.35727e-05
8.1863e-05
0.000109325
7.42567e-05
9.2636e-05
8.07308e-05
0.000108709
7.48805e-05
6.51487e-05
6.51458e-05
8.5588e-05
6.5442e-05
6.5439e-05
7.90472e-05
4.96479e-05
7.85563e-05
4.96527e-05
2.35687e-05
2.3567e-05
7.90419e-05
4.96435e-05
7.85587e-05
4.96483e-05
0.000127154
0.000127152
0.000127151
0.000124684
0.000124681
0.000124677
0.000124679
8.46085e-05
7.56693e-05
0.000107018
9.24661e-05
8.34652e-05
7.62877e-05
0.000106509
2.35673e-05
2.35656e-05
8.46019e-05
0.00010702
7.56729e-05
9.24702e-05
8.34722e-05
0.000106511
7.62856e-05
6.57904e-05
6.57872e-05
8.73315e-05
6.60663e-05
6.60631e-05
8.0064e-05
4.96586e-05
7.96167e-05
4.96633e-05
2.35622e-05
2.35608e-05
8.00608e-05
4.96542e-05
7.96171e-05
4.96589e-05
0.000123898
0.000123895
0.000123897
0.000121637
0.000121632
0.00012163
0.00012163
8.72276e-05
7.70101e-05
0.000105141
9.27435e-05
8.60996e-05
7.76116e-05
0.00010474
2.35608e-05
2.35595e-05
8.72235e-05
0.000105142
7.70126e-05
9.27472e-05
8.61048e-05
0.000104743
7.76098e-05
6.63948e-05
6.63915e-05
8.93416e-05
6.66498e-05
6.66464e-05
8.10062e-05
4.9669e-05
8.05938e-05
4.96737e-05
2.35567e-05
2.35556e-05
8.10037e-05
4.96647e-05
8.0593e-05
4.96694e-05
0.0001209
0.000120898
0.000120897
0.000118839
0.000118834
0.000118832
0.000118835
8.97242e-05
7.82865e-05
0.000103707
9.34504e-05
8.86276e-05
7.88626e-05
0.00010342
2.35553e-05
2.35543e-05
8.97268e-05
0.00010371
7.82889e-05
9.34535e-05
8.86264e-05
0.000103423
7.88613e-05
6.69636e-05
6.69603e-05
9.1552e-05
6.72037e-05
6.72003e-05
8.18849e-05
4.96796e-05
8.15002e-05
4.96844e-05
2.35522e-05
2.35515e-05
8.18823e-05
4.96753e-05
8.14986e-05
4.96801e-05
0.000118181
0.000118179
0.000118184
0.000116362
0.000116361
0.00011636
0.000116356
9.21076e-05
7.95001e-05
0.000102715
9.45193e-05
9.10479e-05
8.00473e-05
0.000102535
2.35508e-05
2.35501e-05
9.2111e-05
0.000102719
7.95013e-05
9.45254e-05
9.10462e-05
0.000102539
8.00484e-05
6.74956e-05
6.74919e-05
9.39012e-05
6.77276e-05
6.77241e-05
8.27088e-05
4.96906e-05
8.23483e-05
4.96957e-05
2.35487e-05
2.35483e-05
8.27059e-05
4.96863e-05
8.23466e-05
4.96914e-05
0.000115798
0.000115798
0.000115794
0.000114211
0.000114201
0.000114201
0.000114209
9.43899e-05
8.06576e-05
0.000102172
9.59655e-05
9.33688e-05
8.11778e-05
0.000102104
2.35473e-05
2.3547e-05
9.43927e-05
0.000102177
8.0658e-05
9.59719e-05
9.33668e-05
0.000102108
8.11788e-05
6.80031e-05
6.79993e-05
9.63855e-05
6.82248e-05
6.8221e-05
8.34842e-05
4.97023e-05
8.31449e-05
4.97079e-05
2.35462e-05
2.35463e-05
8.34829e-05
4.9698e-05
8.31441e-05
4.97036e-05
0.00011371
0.000113709
0.000113714
0.000112424
0.000112423
0.000112423
0.000112416
9.65721e-05
8.17516e-05
0.000102037
9.76709e-05
9.55915e-05
8.22537e-05
0.000102072
2.35448e-05
2.35449e-05
9.65752e-05
0.000102041
8.17522e-05
9.76765e-05
9.55895e-05
0.000102077
8.22544e-05
6.84814e-05
6.84777e-05
9.89272e-05
6.86934e-05
6.86893e-05
8.42205e-05
4.9715e-05
8.38999e-05
4.97207e-05
2.35447e-05
2.35451e-05
8.42208e-05
4.97107e-05
8.39008e-05
4.97164e-05
0.000112041
0.000112041
0.000112035
0.000110985
0.000110981
0.00011098
0.000110985
9.868e-05
8.28163e-05
0.000102348
9.97223e-05
9.77358e-05
8.32848e-05
0.000102483
2.35433e-05
2.35437e-05
9.86847e-05
0.000102353
8.28169e-05
9.97282e-05
9.77329e-05
0.000102489
8.32858e-05
6.89534e-05
6.89496e-05
0.000101605
6.9147e-05
6.91431e-05
8.49189e-05
4.97286e-05
8.46112e-05
4.9735e-05
2.35442e-05
2.3545e-05
8.49203e-05
4.97243e-05
8.46134e-05
4.97307e-05
0.000110663
0.000110665
0.000110672
0.000109894
0.000109884
0.000109891
0.000109897
0.000100693
8.38095e-05
0.000103007
0.000101916
9.97938e-05
8.42667e-05
0.000103228
2.35428e-05
2.35437e-05
0.000100698
0.000103014
8.38102e-05
0.000101926
9.97891e-05
0.000103235
8.42684e-05
6.93839e-05
6.93798e-05
0.000104235
6.95786e-05
6.95745e-05
8.55921e-05
4.97437e-05
8.52967e-05
4.97506e-05
2.35448e-05
2.35459e-05
8.55936e-05
4.97394e-05
8.52994e-05
4.97463e-05
0.000109682
0.000109685
0.000109688
0.000109207
0.000109211
0.000109208
0.000109199
0.000102651
8.47793e-05
0.000104044
0.000104394
0.000101789
8.52198e-05
0.000104364
2.35434e-05
2.35446e-05
0.000102656
0.000104052
8.47799e-05
0.000104397
0.000101785
0.00010437
8.52192e-05
6.98078e-05
6.98037e-05
0.000106948
6.99927e-05
6.99883e-05
8.62391e-05
4.976e-05
8.59542e-05
4.97674e-05
2.35462e-05
2.35477e-05
8.62413e-05
4.97557e-05
8.59574e-05
4.97631e-05
0.000109099
0.000109096
0.000109086
0.000108886
0.000108874
0.000108881
0.000108889
0.000104542
8.57072e-05
0.00010544
0.000107028
0.000103721
8.61256e-05
0.000105834
2.35448e-05
2.35463e-05
0.000104547
0.000105443
8.57076e-05
0.000107038
0.000103715
0.000105841
8.61277e-05
7.02142e-05
7.02099e-05
0.000109681
7.03929e-05
7.03886e-05
8.68662e-05
4.97776e-05
8.65891e-05
4.97857e-05
2.35486e-05
2.35504e-05
8.68674e-05
4.97733e-05
8.6593e-05
4.97814e-05
0.000108839
0.000108847
0.000108861
0.000108894
0.000108895
0.000108894
0.000108891
0.000106375
8.65969e-05
0.000107122
0.000109783
0.000105587
8.70021e-05
0.000107586
2.35472e-05
2.3549e-05
0.00010638
0.000107134
8.6598e-05
0.000109792
0.000105582
0.000107597
8.70021e-05
7.06034e-05
7.05992e-05
0.000112403
7.07739e-05
7.07695e-05
8.74782e-05
4.97968e-05
8.72064e-05
4.98054e-05
2.35519e-05
2.3554e-05
8.74788e-05
4.97925e-05
8.72111e-05
4.98011e-05
0.000108965
0.000108965
0.000108952
0.000109293
0.000109288
0.000109293
0.000109295
0.000108161
8.74591e-05
0.000109095
0.0001127
0.0001074
8.78516e-05
0.000109635
2.35505e-05
2.35526e-05
0.000108165
0.000109102
8.74586e-05
0.000112708
0.000107392
0.000109643
8.78531e-05
7.0979e-05
7.09746e-05
0.000115125
7.11478e-05
7.11435e-05
8.80689e-05
4.98172e-05
8.7808e-05
4.98264e-05
2.35559e-05
2.35584e-05
8.80711e-05
4.98129e-05
8.78127e-05
4.98221e-05
0.000109429
0.000109436
0.000109443
0.000109975
0.000109963
0.000109972
0.000109973
0.000109892
8.82835e-05
0.000111331
0.00011566
0.000109161
8.86603e-05
0.000111917
2.35545e-05
2.3557e-05
0.000109895
0.000111341
8.8285e-05
0.00011567
0.000109155
0.000111927
8.86607e-05
7.13421e-05
7.13378e-05
0.000117837
7.15006e-05
7.14961e-05
8.86545e-05
4.98397e-05
8.84006e-05
4.98494e-05
2.35604e-05
2.35633e-05
8.86554e-05
4.9835e-05
8.84015e-05
4.98447e-05
0.000110195
0.000110202
0.000110199
0.00011104
0.000111039
0.000111041
0.000111043
0.000111584
8.90859e-05
0.000113759
0.000118729
0.00011087
8.94554e-05
0.00011441
2.35595e-05
2.35622e-05
0.000111586
0.00011377
8.90865e-05
0.000118737
0.000110862
0.00011442
8.94558e-05
7.16913e-05
7.16869e-05
0.00012052
7.18514e-05
7.18468e-05
8.92247e-05
4.98631e-05
8.89792e-05
4.98735e-05
2.35664e-05
2.35694e-05
8.92247e-05
4.98582e-05
8.89784e-05
4.98685e-05
0.000111352
0.000111355
0.000111363
0.000112358
0.00011235
0.000112361
0.000112364
0.00011323
8.9863e-05
0.000116451
0.000121859
0.000112547
9.02127e-05
0.000117135
2.35651e-05
2.35681e-05
0.000113233
0.000116456
8.98627e-05
0.00012187
0.000112536
0.000117143
9.02143e-05
7.20326e-05
7.20281e-05
0.000123204
7.21803e-05
7.21758e-05
8.97876e-05
4.9888e-05
8.9544e-05
4.98989e-05
2.35729e-05
2.35762e-05
8.97847e-05
4.9883e-05
8.95408e-05
4.9894e-05
0.000112727
0.000112735
0.000112733
0.00011402
0.000114016
0.000114024
0.000114011
0.00011483
9.06044e-05
0.00011924
0.000125005
0.000114154
9.09549e-05
0.000119977
2.35716e-05
2.35749e-05
0.000114831
0.000119257
9.0606e-05
0.000125016
0.000114149
0.000119993
9.09556e-05
7.2356e-05
7.23514e-05
0.000125823
7.25087e-05
7.25038e-05
9.03374e-05
4.99138e-05
9.01025e-05
4.9925e-05
2.35799e-05
2.35833e-05
9.03355e-05
4.99089e-05
9.01e-05
4.992e-05
0.000114481
0.00011449
0.000114484
0.000115958
0.000115957
0.000115963
0.000115975
0.000116407
9.13437e-05
0.000122292
0.000128247
0.000115753
9.16723e-05
0.000123081
2.35786e-05
2.35821e-05
0.000116403
0.0001223
9.13427e-05
0.000128254
0.000115744
0.000123086
9.16721e-05
7.2683e-05
7.26782e-05
0.000128493
7.2823e-05
7.28182e-05
9.08717e-05
4.99404e-05
9.06432e-05
4.9952e-05
2.35874e-05
2.35912e-05
9.08679e-05
4.99355e-05
9.06378e-05
4.99471e-05
0.000116465
0.000116472
0.000116481
0.000118069
0.000118059
0.00011807
0.000118065
0.000117906
9.20324e-05
0.000125457
0.000131407
0.000117278
9.23518e-05
0.000126255
2.35862e-05
2.359e-05
0.000117905
0.000125465
9.2033e-05
0.000131417
0.000117272
0.000126265
9.23531e-05
7.29812e-05
7.29765e-05
0.000131031
7.31178e-05
7.31129e-05
9.13941e-05
4.99683e-05
9.11692e-05
4.99805e-05
2.35957e-05
2.35997e-05
9.13915e-05
4.99634e-05
9.11661e-05
4.99755e-05
0.000118622
0.000118635
0.000118628
0.000120451
0.000120448
0.000120457
0.000120462
0.000119373
9.27068e-05
0.000128694
0.00013458
0.000118757
9.30201e-05
0.000129534
2.35945e-05
2.35986e-05
0.00011937
0.000128709
9.27073e-05
0.000134591
0.000118752
0.000129547
9.30205e-05
7.32775e-05
7.32726e-05
0.000133569
7.34141e-05
7.34091e-05
9.19062e-05
4.99971e-05
9.16887e-05
5.00094e-05
2.36044e-05
2.36086e-05
9.1902e-05
4.99921e-05
9.16832e-05
5.00044e-05
0.000121086
0.000121092
0.000121102
0.000123059
0.000123051
0.00012307
0.000123069
0.000120798
9.33651e-05
0.000132106
0.000137775
0.000120203
9.36648e-05
0.000132967
2.36034e-05
2.36075e-05
0.000120793
0.000132112
9.33648e-05
0.000137786
0.000120197
0.000132975
9.36662e-05
7.35666e-05
7.35617e-05
0.000136093
7.36951e-05
7.36901e-05
5.00263e-05
9.2188e-05
2.36136e-05
5.00213e-05
9.21839e-05
0.000123737
0.000123751
0.000123749
9.39936e-05
0.000135574
0.000121591
2.36125e-05
0.000135586
9.39953e-05
0.000121587
7.38404e-05
7.38356e-05
2.36323e-05
2.36304e-05
6.10318e-05
6.10302e-05
4.9553e-05
6.89581e-05
4.95492e-05
6.89563e-05
6.55123e-05
0.000127156
6.56826e-05
6.55081e-05
0.000127152
6.56814e-05
2.36308e-05
6.10287e-05
6.10315e-05
2.36316e-05
4.95486e-05
6.8951e-05
6.55072e-05
0.000127159
6.56816e-05
4.9545e-05
6.89556e-05
0.00012715
6.55026e-05
6.56803e-05
6.55076e-05
0.000127162
6.5682e-05
4.95504e-05
6.8952e-05
0.000127158
6.55001e-05
6.56809e-05
4.9547e-05
6.89502e-05
2.36294e-05
6.10257e-05
6.10321e-05
2.36312e-05
0.000127162
6.55044e-05
6.56819e-05
0.000127164
6.55041e-05
6.56803e-05
4.95495e-05
6.89518e-05
4.95452e-05
6.89489e-05
6.10285e-05
6.10266e-05
2.36307e-05
2.36296e-05
2.36296e-05
2.36259e-05
2.36276e-05
2.3624e-05
6.10789e-05
6.10764e-05
8.24915e-05
6.15199e-05
6.15179e-05
2.36199e-05
2.36233e-05
2.36179e-05
2.36214e-05
8.22756e-05
6.19906e-05
6.19879e-05
6.15632e-05
6.15603e-05
7.00612e-05
4.95507e-05
6.90698e-05
4.956e-05
6.71038e-05
6.57757e-05
0.000126167
0.000100925
6.61434e-05
6.64924e-05
0.000125139
6.71024e-05
6.57745e-05
0.000126158
0.000100913
6.6142e-05
6.64874e-05
0.000125139
7.01698e-05
4.95741e-05
4.95653e-05
7.1096e-05
7.01672e-05
4.95703e-05
4.95615e-05
7.10941e-05
6.75778e-05
0.000100207
6.74477e-05
0.000123164
6.67355e-05
0.000124167
6.85584e-05
6.75762e-05
0.000100195
6.74425e-05
0.000123163
6.67344e-05
0.000124158
6.85569e-05
6.10741e-05
6.10774e-05
8.24885e-05
6.1514e-05
6.15169e-05
2.36289e-05
2.36253e-05
2.36183e-05
2.36217e-05
8.22702e-05
6.19859e-05
6.1989e-05
6.15577e-05
6.1561e-05
2.36192e-05
2.36226e-05
6.71026e-05
6.57752e-05
0.000126161
0.000100953
6.61423e-05
6.64873e-05
0.000125149
7.00609e-05
4.95466e-05
6.90683e-05
4.95559e-05
6.71012e-05
0.000126153
6.57729e-05
0.000100912
6.61411e-05
0.000125141
6.64836e-05
7.01746e-05
4.95697e-05
4.95609e-05
7.10888e-05
6.75768e-05
0.000100233
6.74426e-05
0.000123174
6.67348e-05
0.000124162
6.85581e-05
7.0166e-05
4.95662e-05
4.95573e-05
7.10933e-05
6.75747e-05
0.000100194
0.000123165
6.7438e-05
0.000124153
6.67338e-05
6.85634e-05
7.00571e-05
4.95519e-05
6.90778e-05
4.95612e-05
6.71035e-05
0.000126163
6.57773e-05
0.000100921
6.6142e-05
0.000125145
6.64804e-05
7.00552e-05
4.95486e-05
6.90763e-05
4.95579e-05
6.75738e-05
0.000100236
6.74426e-05
0.000123175
6.6736e-05
0.000124168
6.85685e-05
7.01753e-05
4.95714e-05
4.95627e-05
7.10898e-05
6.75691e-05
0.000100201
0.00012317
6.74358e-05
0.000124164
6.67361e-05
6.85714e-05
7.01737e-05
4.95682e-05
4.95593e-05
7.10879e-05
6.10722e-05
6.10786e-05
8.24856e-05
6.15158e-05
6.15222e-05
2.36285e-05
2.36249e-05
2.3617e-05
2.36204e-05
8.22711e-05
6.1984e-05
6.19906e-05
6.15583e-05
6.15648e-05
2.36188e-05
2.36222e-05
6.71013e-05
0.000126169
6.57735e-05
0.000100948
6.61411e-05
0.000125151
6.64838e-05
7.00565e-05
4.95511e-05
6.90776e-05
4.95603e-05
7.00536e-05
4.95468e-05
6.90759e-05
4.95561e-05
6.75771e-05
0.000100237
0.000123174
6.74404e-05
0.000124168
6.67391e-05
6.85577e-05
6.75754e-05
0.000100228
0.000123176
6.74392e-05
0.00012417
6.67321e-05
6.85563e-05
7.0175e-05
4.95705e-05
4.95618e-05
7.10892e-05
7.01734e-05
4.95664e-05
4.95576e-05
7.10863e-05
2.3628e-05
2.36243e-05
2.36269e-05
2.36232e-05
8.22639e-05
6.19865e-05
6.19845e-05
6.15581e-05
6.15557e-05
2.36183e-05
2.36217e-05
2.36172e-05
2.36206e-05
2.36173e-05
2.3614e-05
2.36154e-05
2.36121e-05
6.20323e-05
6.20292e-05
8.21719e-05
6.24378e-05
6.24344e-05
2.36084e-05
2.36115e-05
2.36065e-05
2.36096e-05
8.20656e-05
6.287e-05
6.28661e-05
6.24779e-05
6.24746e-05
7.20595e-05
4.95716e-05
7.11935e-05
4.95799e-05
7.00444e-05
6.76722e-05
0.000122222
9.82325e-05
6.90417e-05
6.83737e-05
0.000121246
7.00482e-05
6.76699e-05
0.000122212
9.82211e-05
6.90357e-05
6.83689e-05
0.000121245
7.21545e-05
4.95927e-05
4.9585e-05
7.29647e-05
7.21517e-05
4.95889e-05
4.95812e-05
7.29627e-05
7.05146e-05
9.76414e-05
6.92758e-05
0.000119393
6.85805e-05
0.000120338
7.15504e-05
7.05078e-05
9.76295e-05
6.92697e-05
0.000119393
6.85787e-05
0.000120328
7.15541e-05
6.20266e-05
6.203e-05
8.21686e-05
6.24315e-05
6.24348e-05
2.36166e-05
2.36133e-05
2.36068e-05
2.361e-05
8.20604e-05
6.28634e-05
6.2867e-05
6.24722e-05
6.24755e-05
2.36077e-05
2.36108e-05
7.00501e-05
6.76714e-05
0.000122216
9.82602e-05
6.90349e-05
6.83686e-05
0.000121256
7.2059e-05
4.95675e-05
7.11918e-05
4.95758e-05
7.00547e-05
0.000122208
6.76686e-05
9.82199e-05
6.9028e-05
0.000121248
6.83646e-05
7.21589e-05
4.95883e-05
4.95806e-05
7.29573e-05
7.05078e-05
9.76679e-05
6.92705e-05
0.000119403
6.85795e-05
0.000120333
7.15558e-05
7.21503e-05
4.95848e-05
4.95771e-05
7.29618e-05
7.05011e-05
9.76281e-05
0.000119395
6.92659e-05
0.000120325
6.85774e-05
7.15598e-05
7.20555e-05
4.95728e-05
7.12012e-05
4.9581e-05
7.00636e-05
0.000122219
6.76736e-05
9.82318e-05
6.90216e-05
0.000121253
6.83629e-05
7.20538e-05
4.95695e-05
7.11996e-05
4.95778e-05
7.05e-05
9.76685e-05
6.92705e-05
0.000119404
6.85808e-05
0.000120339
7.15656e-05
7.21599e-05
4.959e-05
4.95823e-05
7.29583e-05
7.04947e-05
9.76393e-05
0.0001194
6.92639e-05
0.000120335
6.85809e-05
7.15687e-05
7.21584e-05
4.95869e-05
4.9579e-05
7.29564e-05
6.2025e-05
6.20316e-05
8.21671e-05
6.24315e-05
6.24383e-05
2.36162e-05
2.36129e-05
2.36055e-05
2.36086e-05
8.206e-05
6.28625e-05
6.28693e-05
6.24719e-05
6.24787e-05
2.36073e-05
2.36104e-05
7.00491e-05
0.000122225
6.76697e-05
9.82582e-05
6.90332e-05
0.00012126
6.8366e-05
7.20551e-05
4.95719e-05
7.12009e-05
4.95801e-05
7.20522e-05
4.95678e-05
7.11992e-05
4.9576e-05
7.05113e-05
9.767e-05
0.000119404
6.92689e-05
0.000120339
6.85835e-05
7.15528e-05
7.05063e-05
9.76653e-05
0.000119407
6.92669e-05
0.000120342
6.85768e-05
7.15546e-05
7.21598e-05
4.95891e-05
4.95814e-05
7.29575e-05
7.2158e-05
4.95851e-05
4.95773e-05
7.29546e-05
2.36157e-05
2.36124e-05
2.36146e-05
2.36113e-05
8.20619e-05
6.28634e-05
6.28611e-05
6.24734e-05
6.2471e-05
2.36068e-05
2.36099e-05
2.36057e-05
2.36088e-05
2.36059e-05
2.36029e-05
2.3604e-05
2.3601e-05
6.29094e-05
6.29056e-05
8.23722e-05
6.32805e-05
6.32765e-05
2.35978e-05
2.36006e-05
2.35959e-05
2.35987e-05
8.23684e-05
6.36788e-05
6.36745e-05
6.33196e-05
6.33157e-05
7.38074e-05
4.95901e-05
7.30488e-05
4.95974e-05
7.30608e-05
6.94644e-05
0.000118523
9.60546e-05
7.19985e-05
7.01496e-05
0.00011761
7.30643e-05
6.94611e-05
0.000118513
9.60457e-05
7.19916e-05
7.01448e-05
0.000117611
7.389e-05
4.9609e-05
4.96022e-05
7.46026e-05
7.38872e-05
4.96052e-05
4.95984e-05
7.46004e-05
7.34841e-05
9.55947e-05
7.09996e-05
0.000115905
7.03224e-05
0.000116782
7.45685e-05
7.34772e-05
9.55843e-05
7.09926e-05
0.000115905
7.03201e-05
0.000116772
7.45716e-05
6.29025e-05
6.29061e-05
8.23687e-05
6.32747e-05
6.32782e-05
2.36053e-05
2.36023e-05
2.35963e-05
2.35991e-05
8.23656e-05
6.36704e-05
6.36744e-05
6.3314e-05
6.33176e-05
2.35971e-05
2.36e-05
7.30662e-05
6.94633e-05
0.000118518
9.60818e-05
7.19918e-05
7.01444e-05
0.000117621
7.38068e-05
4.9586e-05
7.30471e-05
4.95933e-05
7.30696e-05
0.00011851
6.94605e-05
9.60443e-05
7.19855e-05
0.000117613
7.01403e-05
7.38943e-05
4.96046e-05
4.95978e-05
7.4595e-05
7.34774e-05
9.56207e-05
7.09944e-05
0.000115916
7.0321e-05
0.000116777
7.45736e-05
7.38856e-05
4.96011e-05
4.95943e-05
7.45994e-05
7.34713e-05
9.55825e-05
0.000115908
7.09889e-05
0.000116769
7.03187e-05
7.45764e-05
7.38035e-05
4.95912e-05
7.30565e-05
4.95984e-05
7.30784e-05
0.000118521
6.94646e-05
9.60525e-05
7.19786e-05
0.000117618
7.01386e-05
7.38017e-05
4.9588e-05
7.30548e-05
4.95953e-05
7.34705e-05
9.56217e-05
7.09942e-05
0.000115916
7.03231e-05
0.000116783
7.45823e-05
7.38954e-05
4.96062e-05
4.95995e-05
7.45959e-05
7.34651e-05
9.55919e-05
0.000115913
7.09888e-05
0.00011678
7.0322e-05
7.4585e-05
7.38939e-05
4.96031e-05
4.95963e-05
7.45942e-05
6.29018e-05
6.29087e-05
8.23694e-05
6.32736e-05
6.32807e-05
2.36048e-05
2.36019e-05
2.35949e-05
2.35977e-05
8.23659e-05
6.367e-05
6.36772e-05
6.33127e-05
6.33198e-05
2.35967e-05
2.35995e-05
7.3065e-05
0.000118527
6.94605e-05
9.60777e-05
7.19895e-05
0.000117625
7.01414e-05
7.38028e-05
4.95902e-05
7.30559e-05
4.95975e-05
7.38e-05
4.95862e-05
7.30541e-05
4.95935e-05
7.34813e-05
9.56227e-05
0.000115917
7.09926e-05
0.000116783
7.03254e-05
7.45705e-05
7.34757e-05
9.56169e-05
0.000115919
7.09915e-05
0.000116786
7.03178e-05
7.45721e-05
7.3895e-05
4.96053e-05
4.95986e-05
7.45952e-05
7.38932e-05
4.96014e-05
4.95946e-05
7.45923e-05
2.36044e-05
2.36014e-05
2.36033e-05
2.36003e-05
8.23585e-05
6.36725e-05
6.367e-05
6.3315e-05
6.33125e-05
2.35962e-05
2.3599e-05
2.35951e-05
2.3598e-05
2.35955e-05
2.35929e-05
2.35936e-05
2.3591e-05
6.37164e-05
6.37122e-05
8.30425e-05
6.40561e-05
6.40517e-05
2.35882e-05
2.35907e-05
2.35863e-05
2.35888e-05
8.31273e-05
6.44256e-05
6.44209e-05
6.40937e-05
6.40894e-05
7.53447e-05
4.96062e-05
7.46747e-05
4.96126e-05
7.60649e-05
7.11553e-05
0.000115122
9.43952e-05
7.49662e-05
7.1822e-05
0.000114308
7.60676e-05
7.11505e-05
0.000115112
9.43844e-05
7.49592e-05
7.18165e-05
0.000114307
7.54163e-05
4.96232e-05
4.96172e-05
7.60491e-05
7.54135e-05
4.96195e-05
4.96135e-05
7.60469e-05
7.6435e-05
9.40597e-05
7.26229e-05
0.000112754
7.19633e-05
0.000113522
7.7547e-05
7.64281e-05
9.40503e-05
7.2617e-05
0.000112754
7.196e-05
0.000113512
7.75495e-05
6.37078e-05
6.37117e-05