/*--------------------------------*- C++ -*----------------------------------*\
| =========                 |                                                 |
| \\      /  F ield         | OpenFOAM: The Open Source CFD Toolbox           |
|  \\    /   O peration     | Version:  v2012                                 |
|   \\  /    A nd           | Website:  www.openfoam.com                      |
|    \\/     M anipulation  |                                                 |
\*---------------------------------------------------------------------------*/
FoamFile
{
    version     2.0;
    format      ascii;
    class       volScalarField;
    location    "1037.5";
    object      nut;
}
// * * * * * * * * * * * * * * * * * * * * * * * * * * * * * * * * * * * * * //

dimensions      [0 2 -1 0 0 0 0];


internalField   nonuniform List<scalar> 
171728
(
1.7707e-06
1.90411e-06
1.74449e-06
2.22261e-06
1.77381e-06
1.86253e-06
1.70516e-06
2.17806e-06
1.76986e-06
1.82711e-06
1.67246e-06
2.12635e-06
1.74784e-06
1.81263e-06
1.6399e-06
2.08727e-06
1.70713e-06
1.8347e-06
1.60832e-06
2.06442e-06
1.68579e-06
1.87593e-06
1.57169e-06
2.05714e-06
1.67775e-06
1.90406e-06
1.53328e-06
2.04095e-06
1.66699e-06
1.97649e-06
1.48785e-06
2.01227e-06
1.66104e-06
2.14206e-06
1.4326e-06
1.9878e-06
1.65808e-06
2.26953e-06
1.36034e-06
1.93594e-06
1.66529e-06
2.16577e-06
1.30679e-06
1.85422e-06
1.67774e-06
1.82088e-06
1.2683e-06
1.75119e-06
1.69671e-06
1.5113e-06
1.23043e-06
1.64885e-06
1.72543e-06
1.32334e-06
1.19435e-06
1.5488e-06
1.741e-06
1.19373e-06
1.1545e-06
1.46819e-06
1.75912e-06
1.0895e-06
1.10404e-06
1.43355e-06
1.7849e-06
1.00732e-06
1.04958e-06
1.42093e-06
1.83203e-06
9.9354e-07
1.0215e-06
1.40763e-06
1.88245e-06
1.01864e-06
1.0367e-06
1.40514e-06
1.95981e-06
1.16941e-06
1.12872e-06
1.48526e-06
2.03136e-06
1.43102e-06
1.30228e-06
1.70603e-06
1.99529e-06
1.78297e-06
1.62279e-06
2.3473e-06
1.61548e-06
2.76448e-06
2.16617e-06
3.64985e-06
1.40355e-06
3.48485e-06
2.85331e-06
5.35e-06
1.29802e-06
5.0377e-06
3.96318e-06
8.10732e-06
1.15738e-06
6.15154e-06
5.30722e-06
1.25493e-05
1.12202e-06
8.71575e-06
6.81432e-06
1.97822e-05
1.11059e-06
9.74528e-06
9.93378e-06
2.57655e-05
9.86255e-07
1.14523e-05
1.06972e-05
2.4655e-05
1.23511e-06
1.64367e-05
1.51098e-05
4.17542e-05
1.29621e-06
1.88543e-05
1.84982e-05
4.82353e-05
1.16659e-06
2.06325e-05
2.17299e-05
5.00622e-05
1.56861e-06
2.8984e-05
2.56501e-05
6.10477e-05
2.24909e-06
2.99476e-05
3.17321e-05
6.58174e-05
2.52972e-06
3.31804e-05
3.57105e-05
6.47666e-05
3.30723e-06
4.36986e-05
4.13879e-05
7.64029e-05
4.07439e-06
4.55213e-05
4.65969e-05
7.9808e-05
5.83887e-06
5.33236e-05
5.30794e-05
8.35846e-05
6.91623e-06
5.98595e-05
5.86463e-05
8.67894e-05
8.3491e-06
6.2614e-05
6.51251e-05
9.23241e-05
1.13053e-05
7.30733e-05
6.95993e-05
9.42643e-05
1.39061e-05
7.45572e-05
7.86909e-05
0.000100742
1.68213e-05
8.62888e-05
8.34596e-05
0.000105527
2.01011e-05
8.76343e-05
8.18624e-05
0.000105406
2.25705e-05
9.27909e-05
0.000101601
0.000108017
3.06181e-05
0.000102069
0.000105603
0.000118418
3.41586e-05
0.000104644
0.000103389
0.000119601
3.77585e-05
0.000112228
0.00010755
0.000118679
4.28571e-05
0.000113847
0.000120987
0.000123754
5.15729e-05
0.000122609
0.000123423
0.000134
6.34003e-05
0.00013031
0.000127293
0.000134354
6.49553e-05
0.000129727
0.000127735
0.000127728
6.46165e-05
0.000127419
0.000129204
0.000138263
7.9204e-05
0.000144919
0.000147037
0.000149774
8.8035e-05
0.000145424
0.000147313
0.000143879
9.17297e-05
0.000142246
0.000143373
0.00014715
0.00010304
0.000155103
0.000152427
0.000153631
0.000110617
0.000157681
0.000160154
0.000152108
0.000112281
0.000155825
0.000158497
0.000149255
0.000107856
0.000160536
0.000155033
0.000157518
0.000130512
0.00017309
0.000171929
0.000167457
0.000142199
0.000173353
0.000176027
0.000166162
0.000141331
0.000170193
0.000173288
0.000161648
0.000137422
0.00017455
0.000173114
0.000167235
0.000151007
0.000185083
0.000181928
0.000173481
0.000155902
0.000185042
0.000183019
0.000170733
0.000164237
0.000182829
0.00018579
0.000171609
0.000170891
0.00019052
0.000192248
0.000180922
0.000174799
0.000193121
0.000194635
0.000179882
0.000174117
0.000192607
0.000192303
0.000175135
0.000183032
0.000198123
0.000189968
0.000180194
0.000192151
0.000201585
0.000202078
0.000187859
0.000194382
0.000201795
0.000208867
0.000187226
0.00019235
0.000204326
0.000208644
0.000186351
0.000206798
0.000207843
0.000203085
0.000187409
0.000214741
0.00020843
0.000201658
0.00018659
0.00021278
0.000210262
0.000211347
0.000192066
0.000209664
0.000214331
0.000217309
0.000195577
0.000216108
0.000215827
0.000216267
0.000192957
0.000220846
0.000213772
0.000212625
0.000190871
0.000228061
0.000214142
0.000216964
0.000194809
0.000234992
0.000222777
0.000223386
0.000199948
0.000234598
0.000225846
0.000223036
0.00020069
0.000227082
0.000218772
0.000217179
0.000194264
0.000224451
0.00021724
0.000215659
0.000192231
0.000245831
0.000226824
0.000228793
0.000202468
0.000254012
0.000229025
0.000233769
0.000205659
0.000240631
0.000221652
0.000222136
0.000198294
0.000234681
0.000221581
0.000219074
0.000196469
0.000246942
0.000231173
0.000228267
0.000202446
0.000255193
0.000233459
0.000231079
0.000202407
0.00024936
0.000222846
0.00022572
0.000197303
0.000245173
0.000221345
0.000226564
0.000200547
0.000248858
0.000227919
0.000228568
0.000204001
0.000254885
0.00023077
0.000227391
0.000203034
2.22873e-06
2.3025e-06
2.55484e-06
2.21008e-06
1.99869e-06
1.93703e-06
1.76615e-06
1.7633e-06
1.67583e-06
1.88509e-06
2.17447e-06
2.05954e-06
2.29963e-06
2.09058e-06
2.13073e-06
2.22763e-06
2.22121e-06
2.23296e-06
1.82011e-06
2.39815e-06
1.80506e-06
2.53078e-06
2.2073e-06
2.1974e-06
3.30511e-06
2.924e-06
3.3276e-06
2.40333e-06
1.774e-06
1.87284e-06
1.72283e-06
2.29523e-06
2.23443e-06
1.68358e-06
1.71319e-06
1.71662e-06
2.18008e-06
2.21435e-06
2.24765e-06
1.80359e-06
2.59197e-06
1.7969e-06
2.79547e-06
2.19531e-06
2.19518e-06
3.41602e-06
2.25489e-06
3.69429e-06
1.92085e-06
1.7212e-06
1.83438e-06
1.72817e-06
2.22976e-06
2.15402e-06
1.72689e-06
1.67988e-06
1.74679e-06
2.12757e-06
2.22988e-06
2.2409e-06
1.79535e-06
2.8689e-06
1.78348e-06
3.17452e-06
2.19323e-06
2.22071e-06
3.74481e-06
1.86127e-06
3.5772e-06
1.80722e-06
1.73256e-06
1.81348e-06
1.74378e-06
2.14856e-06
2.0673e-06
1.75067e-06
1.64759e-06
1.75859e-06
2.08764e-06
2.23287e-06
2.18449e-06
1.77656e-06
3.32032e-06
1.75566e-06
3.81812e-06
2.22368e-06
2.31242e-06
3.38901e-06
1.8212e-06
2.626e-06
1.87012e-06
1.74855e-06
1.82573e-06
1.77385e-06
2.05839e-06
2.05618e-06
1.75993e-06
1.61566e-06
1.76024e-06
2.06406e-06
2.17734e-06
2.09582e-06
1.74981e-06
3.99529e-06
1.73574e-06
4.4648e-06
2.30212e-06
2.38578e-06
2.38783e-06
1.89682e-06
1.93681e-06
2.07553e-06
1.78426e-06
1.86405e-06
1.81341e-06
2.04255e-06
2.07334e-06
1.75854e-06
1.5808e-06
1.73916e-06
2.05693e-06
2.09096e-06
2.05041e-06
1.73448e-06
4.53817e-06
1.73018e-06
4.33687e-06
2.3693e-06
2.40755e-06
1.86196e-06
2.14412e-06
1.74317e-06
2.41268e-06
1.82095e-06
1.90033e-06
1.82813e-06
2.06624e-06
2.16857e-06
1.72956e-06
1.54429e-06
1.70165e-06
2.04266e-06
2.04825e-06
2.00908e-06
1.7271e-06
4.14966e-06
1.70091e-06
3.37294e-06
2.37223e-06
2.30994e-06
1.71845e-06
2.55988e-06
1.6517e-06
3.20243e-06
1.82651e-06
1.94854e-06
1.81088e-06
2.18154e-06
2.36214e-06
1.69141e-06
1.49874e-06
1.66236e-06
2.0141e-06
2.0061e-06
1.95136e-06
1.68595e-06
3.11363e-06
1.63602e-06
2.47525e-06
2.26382e-06
2.13133e-06
1.62734e-06
3.45292e-06
1.5531e-06
4.14845e-06
1.80206e-06
2.09981e-06
1.76913e-06
2.36764e-06
2.51008e-06
1.65249e-06
1.44801e-06
1.62277e-06
1.99084e-06
1.94668e-06
1.87028e-06
1.61581e-06
2.31261e-06
1.5504e-06
1.90568e-06
2.11966e-06
2.07006e-06
1.52746e-06
4.3247e-06
1.44863e-06
4.55521e-06
1.75546e-06
2.24755e-06
1.71796e-06
2.50593e-06
2.23421e-06
1.615e-06
1.37745e-06
1.58294e-06
1.94311e-06
1.86333e-06
1.77092e-06
1.52866e-06
1.78807e-06
1.4664e-06
1.46673e-06
2.0581e-06
1.94282e-06
1.41952e-06
4.21193e-06
1.33693e-06
3.15523e-06
1.70477e-06
2.22603e-06
1.66316e-06
2.1919e-06
1.96911e-06
1.56799e-06
1.31779e-06
1.51882e-06
1.86396e-06
1.76261e-06
1.66562e-06
1.45254e-06
1.37918e-06
1.40814e-06
1.16068e-06
1.92521e-06
1.76616e-06
1.31141e-06
2.84944e-06
1.23402e-06
2.18044e-06
1.64695e-06
1.91284e-06
1.59139e-06
1.94881e-06
1.78736e-06
1.50241e-06
1.27754e-06
1.46223e-06
1.76312e-06
1.65523e-06
1.55656e-06
1.39477e-06
1.10488e-06
1.36291e-06
9.85105e-07
1.75134e-06
1.6129e-06
1.20845e-06
2.02848e-06
1.15493e-06
1.71313e-06
1.56974e-06
1.5755e-06
1.49199e-06
1.77281e-06
1.65788e-06
1.44429e-06
1.23987e-06
1.38169e-06
1.66349e-06
1.54404e-06
1.46701e-06
1.35381e-06
9.60903e-07
1.33406e-06
9.23752e-07
1.59701e-06
1.46902e-06
1.14155e-06
1.63142e-06
1.11024e-06
1.43738e-06
1.46482e-06
1.36097e-06
1.3814e-06
1.64317e-06
1.53913e-06
1.36534e-06
1.20401e-06
1.32043e-06
1.56657e-06
1.45206e-06
1.40123e-06
1.32902e-06
9.12683e-07
1.33044e-06
8.66025e-07
1.45125e-06
1.34893e-06
1.09964e-06
1.38552e-06
1.07463e-06
1.25739e-06
1.35573e-06
1.21791e-06
1.27782e-06
1.52137e-06
1.42931e-06
1.31256e-06
1.1661e-06
1.28218e-06
1.48653e-06
1.38628e-06
1.35865e-06
1.33327e-06
8.53896e-07
1.35753e-06
8.08569e-07
1.32758e-06
1.23945e-06
1.0751e-06
1.22795e-06
1.08806e-06
1.15183e-06
1.25427e-06
1.11252e-06
1.18358e-06
1.40805e-06
1.32669e-06
1.29462e-06
1.11545e-06
1.46273e-06
1.44396e-06
1.34715e-06
1.33924e-06
1.36758e-06
8.04478e-07
1.39761e-06
7.74763e-07
1.21606e-06
1.14254e-06
1.09626e-06
1.12703e-06
1.14149e-06
1.05809e-06
1.16522e-06
1.02709e-06
1.10999e-06
1.30156e-06
1.22898e-06
1.54198e-06
1.06314e-06
1.79651e-06
1.42937e-06
1.3324e-06
1.35473e-06
1.41671e-06
7.67776e-07
1.43361e-06
7.69286e-07
1.124e-06
1.07165e-06
1.16977e-06
1.03147e-06
1.29362e-06
9.82883e-07
1.09541e-06
1.00452e-06
1.0655e-06
1.20689e-06
1.1538e-06
1.88963e-06
1.02579e-06
2.08233e-06
1.42168e-06
1.35627e-06
1.43066e-06
1.45757e-06
7.57707e-07
1.49971e-06
8.09487e-07
1.06479e-06
1.0746e-06
1.32954e-06
9.7228e-07
1.5117e-06
9.75655e-07
1.06262e-06
1.01404e-06
1.05194e-06
1.1441e-06
1.14358e-06
2.11928e-06
1.02864e-06
2.16731e-06
1.40936e-06
1.4465e-06
1.65079e-06
1.50971e-06
8.06427e-07
1.66831e-06
8.86927e-07
1.08051e-06
1.18631e-06
1.5868e-06
9.8426e-07
1.89814e-06
1.05511e-06
1.05527e-06
1.12483e-06
1.09822e-06
1.15238e-06
1.24249e-06
2.13053e-06
1.0965e-06
2.00876e-06
1.44684e-06
1.69689e-06
2.062e-06
1.64837e-06
9.46038e-07
1.90245e-06
1.06583e-06
1.26751e-06
1.46694e-06
2.02462e-06
1.08605e-06
2.41397e-06
1.21042e-06
1.1126e-06
1.30715e-06
1.23411e-06
1.28628e-06
1.50845e-06
1.96481e-06
1.23662e-06
1.805e-06
1.63864e-06
2.20352e-06
2.57982e-06
1.93364e-06
1.13595e-06
2.08257e-06
1.27898e-06
1.52784e-06
2.11489e-06
2.55694e-06
1.29277e-06
2.7308e-06
1.5584e-06
1.2659e-06
1.69182e-06
1.45752e-06
1.58671e-06
2.19386e-06
1.76652e-06
1.52949e-06
1.8384e-06
2.17051e-06
2.75828e-06
3.83474e-06
2.19391e-06
1.37508e-06
2.503e-06
2.04412e-06
2.18742e-06
3.74296e-06
2.86281e-06
1.66958e-06
3.09083e-06
2.15684e-06
1.56398e-06
2.53062e-06
1.95127e-06
2.35812e-06
3.3112e-06
1.93062e-06
2.03112e-06
2.25861e-06
3.36632e-06
3.94405e-06
4.95895e-06
2.54062e-06
2.18397e-06
3.00427e-06
2.41767e-06
4.28025e-06
4.75463e-06
3.01761e-06
2.322e-06
3.14533e-06
2.88191e-06
2.04898e-06
3.26141e-06
2.61826e-06
3.61811e-06
4.90038e-06
2.30038e-06
2.62363e-06
2.82327e-06
4.85352e-06
5.53696e-06
8.35316e-06
3.38801e-06
2.67656e-06
4.02929e-06
3.58357e-06
4.99274e-06
8.29229e-06
3.357e-06
3.17807e-06
3.90653e-06
4.13907e-06
2.95174e-06
4.73021e-06
3.33683e-06
5.27368e-06
8.19992e-06
3.13139e-06
3.70345e-06
3.47583e-06
7.87581e-06
8.73831e-06
1.10902e-05
4.14022e-06
3.86357e-06
5.06735e-06
4.63096e-06
8.97318e-06
1.10715e-05
4.18473e-06
4.42786e-06
5.08193e-06
5.59408e-06
3.68732e-06
5.71122e-06
4.96981e-06
8.88268e-06
1.13557e-05
3.76847e-06
4.93481e-06
5.01332e-06
1.16078e-05
1.21777e-05
1.67247e-05
5.53733e-06
5.07228e-06
6.92304e-06
6.70009e-06
1.1675e-05
1.76707e-05
5.39907e-06
5.97789e-06
6.76813e-06
7.11784e-06
4.91971e-06
8.12869e-06
6.71789e-06
1.22114e-05
1.63221e-05
4.94331e-06
6.37446e-06
6.69066e-06
1.65837e-05
1.75857e-05
2.33108e-05
7.54827e-06
7.20404e-06
9.70874e-06
8.28151e-06
1.90817e-05
2.28228e-05
7.00822e-06
7.61616e-06
8.58432e-06
9.84219e-06
7.75378e-06
9.02303e-06
9.49864e-06
1.7178e-05
2.39939e-05
7.69943e-06
9.03572e-06
9.33876e-06
2.58251e-05
2.47097e-05
2.89634e-05
1.02662e-05
9.05221e-06
1.02495e-05
1.15787e-05
2.37879e-05
2.91697e-05
9.6723e-06
1.06058e-05
1.08899e-05
1.11049e-05
9.50277e-06
1.10935e-05
9.73268e-06
2.58137e-05
2.96053e-05
9.34754e-06
1.05701e-05
9.43133e-06
2.27965e-05
2.93437e-05
3.68795e-05
1.01698e-05
1.13591e-05
1.45465e-05
1.47099e-05
3.02918e-05
3.75179e-05
1.0881e-05
1.13029e-05
1.51217e-05
1.40377e-05
1.10121e-05
1.49915e-05
1.42045e-05
2.96955e-05
3.47984e-05
1.06932e-05
1.36736e-05
1.39097e-05
3.93684e-05
4.06566e-05
4.69577e-05
1.63096e-05
1.68485e-05
1.92548e-05
2.05687e-05
4.02902e-05
4.67885e-05
1.6856e-05
1.52459e-05
1.88118e-05
1.80366e-05
1.54763e-05
1.88532e-05
1.94243e-05
3.74102e-05
4.63049e-05
1.49871e-05
1.80462e-05
1.86879e-05
4.71346e-05
4.71579e-05
4.59206e-05
1.9424e-05
2.07783e-05
1.86833e-05
1.93427e-05
4.70489e-05
4.57156e-05
1.88718e-05
1.86042e-05
2.08597e-05
2.09126e-05
2.04316e-05
1.82317e-05
2.12473e-05
4.73413e-05
4.97119e-05
1.97621e-05
2.06364e-05
2.03658e-05
4.99895e-05
4.69291e-05
5.71207e-05
1.94445e-05
2.13049e-05
2.54242e-05
3.01412e-05
4.77425e-05
6.23048e-05
2.15007e-05
2.19131e-05
2.36445e-05
2.43316e-05
2.05207e-05
2.79608e-05
2.65865e-05
5.08806e-05
5.60653e-05
1.97959e-05
2.46598e-05
2.54534e-05
5.72449e-05
5.92103e-05
6.443e-05
2.74856e-05
3.13257e-05
3.13627e-05
3.19117e-05
6.30903e-05
6.25696e-05
2.52165e-05
2.53011e-05
3.17191e-05
3.02865e-05
3.03878e-05
3.00188e-05
3.45973e-05
5.74245e-05
6.3307e-05
2.80513e-05
3.01561e-05
3.22353e-05
6.57969e-05
6.53308e-05
6.82721e-05
3.18795e-05
3.15749e-05
3.40532e-05
3.00464e-05
6.25169e-05
6.52559e-05
3.33301e-05
3.19878e-05
3.57238e-05
3.52205e-05
3.45387e-05
3.12235e-05
3.33123e-05
6.48534e-05
6.89905e-05
3.24682e-05
3.49457e-05
3.09009e-05
6.41832e-05
6.93549e-05
7.29846e-05
3.54924e-05
3.38793e-05
4.02075e-05
4.37076e-05
6.77007e-05
7.56718e-05
3.65799e-05
3.595e-05
4.01524e-05
3.9457e-05
3.17888e-05
4.11762e-05
3.96515e-05
6.98137e-05
7.28992e-05
3.21488e-05
3.9545e-05
3.9722e-05
7.44874e-05
7.39452e-05
7.76882e-05
4.13881e-05
4.57315e-05
4.46629e-05
4.76961e-05
7.65872e-05
7.78156e-05
4.08519e-05
4.13074e-05
4.45447e-05
4.51886e-05
4.34247e-05
4.60779e-05
4.90158e-05
7.40859e-05
7.78264e-05
4.17539e-05
4.53753e-05
4.67199e-05
7.91855e-05
7.8962e-05
8.32579e-05
4.65531e-05
4.70157e-05
5.22405e-05
5.04435e-05
7.82636e-05
8.27373e-05
4.65169e-05
4.62884e-05
5.25307e-05
5.10643e-05
4.92393e-05
5.04622e-05
5.1737e-05
7.87286e-05
8.25181e-05
4.73276e-05
5.10594e-05
5.14716e-05
8.24574e-05
8.40986e-05
8.64429e-05
5.34009e-05
5.3315e-05
5.71625e-05
5.9694e-05
8.4329e-05
8.7188e-05
5.38451e-05
5.31048e-05
5.70547e-05
5.81823e-05
5.38385e-05
5.96863e-05
5.71652e-05
8.3718e-05
8.70902e-05
5.36113e-05
5.80672e-05
5.62551e-05
8.61323e-05
8.7245e-05
8.98473e-05
5.87145e-05
5.98685e-05
6.21757e-05
6.00503e-05
8.75704e-05
8.93295e-05
5.83444e-05
5.90261e-05
6.22234e-05
6.32743e-05
5.77492e-05
6.00871e-05
6.27438e-05
8.78312e-05
9.04726e-05
5.7011e-05
6.29643e-05
6.30758e-05
9.12344e-05
9.07131e-05
9.52388e-05
6.31233e-05
6.25669e-05
6.9683e-05
7.18142e-05
9.06172e-05
9.54577e-05
6.3577e-05
6.51466e-05
6.93738e-05
6.81436e-05
6.52788e-05
7.1591e-05
7.07386e-05
9.1377e-05
9.38612e-05
6.58088e-05
6.84292e-05
7.05997e-05
9.41297e-05
9.64558e-05
9.89151e-05
7.25358e-05
7.27498e-05
7.62032e-05
7.354e-05
9.60814e-05
9.75589e-05
7.19761e-05
6.92737e-05
7.60908e-05
7.63604e-05
7.02535e-05
7.23941e-05
7.22251e-05
9.47413e-05
9.98141e-05
6.9976e-05
7.64391e-05
7.29173e-05
9.85143e-05
9.93788e-05
0.000102292
7.66503e-05
7.56945e-05
8.10099e-05
8.40449e-05
9.85724e-05
0.00010408
7.65476e-05
7.88194e-05
8.18869e-05
8.36436e-05
7.63877e-05
8.39242e-05
8.68447e-05
0.000100763
0.000102393
7.69099e-05
8.30174e-05
8.57469e-05
0.000105324
0.000103381
0.000105814
8.3219e-05
8.5847e-05
8.78098e-05
8.62784e-05
0.000104776
0.000105403
8.37972e-05
8.45214e-05
8.64045e-05
8.25005e-05
8.8141e-05
8.8317e-05
8.97462e-05
0.000102535
0.000102832
8.66863e-05
8.09652e-05
8.83128e-05
0.000105161
0.000106228
0.000109225
8.81791e-05
8.65955e-05
9.0865e-05
9.148e-05
0.000105578
0.00010907
8.73037e-05
8.21772e-05
9.22258e-05
9.66019e-05
9.01508e-05
9.00281e-05
8.74045e-05
0.000103763
0.000114215
8.80647e-05
9.77279e-05
8.57647e-05
0.000106796
0.000110449
0.000115356
9.31474e-05
9.40485e-05
0.000101492
0.00010086
0.000110462
0.000114583
9.47103e-05
0.000100512
0.000101364
0.000104578
8.80214e-05
0.000100793
0.000102082
0.00011585
0.000116841
8.97316e-05
0.000105714
0.000103624
0.000117381
0.000115967
0.000117011
0.000103603
0.000101822
0.000104468
0.000103238
0.000115052
0.000116842
0.00010259
0.000104492
0.000103888
0.000103242
0.000105196
0.000103485
0.00010925
0.000116722
0.000114174
0.000106071
0.0001045
0.000108628
0.000119622
0.000117251
0.000120465
0.000104207
0.000104568
0.000109711
0.000110357
0.000117582
0.000121421
0.000104299
0.000102008
0.000109015
0.000100415
0.000109365
0.000110231
0.000107601
0.000113944
0.000118016
0.000108528
0.000101822
0.000106868
0.000118575
0.000121366
0.000123523
0.000111445
0.000112357
0.000112716
0.00011472
0.000122133
0.000123588
0.000110721
0.000106758
0.000112897
0.000119078
0.00010771
0.000114516
0.0001107
0.000120636
0.000127893
0.000105928
0.000118618
0.000110439
0.000122293
0.000124125
0.000130433
0.000113781
0.000114012
0.000121609
0.000118791
0.000123748
0.00012842
0.000114411
0.000121343
0.000123175
0.000125614
0.000112745
0.000118865
0.000123389
0.000128449
0.000131019
0.000114832
0.000123174
0.00012733
0.000132862
0.000131598
0.000133072
0.000124122
0.000122528
0.000128288
0.000129431
0.000130301
0.000134683
0.000125589
0.00012623
0.000128398
0.000127241
0.000126673
0.000129776
0.000130165
0.000131377
0.000132562
0.000129088
0.00012649
0.000130479
0.000134954
0.000133033
0.000132402
0.000128679
0.000129993
0.000127464
0.00012989
0.000134802
0.000133571
0.00012861
0.000127301
0.000127254
0.000126848
0.000130175
0.000130107
0.000127714
0.000132597
0.000131768
0.000128262
0.00012796
0.000123697
0.000128796
0.000132601
0.000137057
0.00012725
0.000129456
0.000131322
0.000125963
0.000133199
0.000132867
0.000126672
0.00012616
0.000130783
0.000126458
0.000126779
0.00012552
0.000123803
0.000131483
0.00013383
0.000122123
0.000125154
0.0001225
0.000134112
0.000137871
0.000141474
0.000132596
0.000129055
0.000139067
0.000142356
0.000134809
0.000145408
0.000132471
0.000131516
0.000139138
0.000144366
0.00013087
0.000142928
0.00014536
0.000136236
0.00014663
0.000132295
0.000144782
0.000149049
0.000149834
0.000142585
0.000144667
0.000141251
0.000144141
0.000143748
0.000145086
0.000145864
0.00014432
0.000141513
0.00014635
0.000144585
0.000147459
0.000146594
0.000145677
0.000146314
0.000147192
0.00014594
0.000150465
0.000148334
0.000149141
0.00014458
0.000144713
0.000146519
0.00014409
0.000144903
0.000146784
0.000141961
0.000143956
0.000143352
0.00014486
0.000146601
0.00014592
0.000144685
0.000145348
0.000142458
0.000142677
0.000145635
0.000142959
0.000148089
0.000144971
0.000145033
0.00014544
0.000147338
0.000151601
0.000147812
0.000142475
0.000151713
0.000152928
0.000144366
0.000152577
0.000146629
0.000142989
0.000151956
0.000147968
0.000145761
0.000152462
0.000154428
0.00014265
0.000150286
0.000146129
0.000147844
0.000152559
0.000153363
0.000152251
0.000153396
0.000153282
0.000155185
0.000156387
0.000157259
0.000153249
0.00015348
0.000154197
0.000153005
0.000157628
0.000160166
0.00015592
0.000157698
0.000156971
0.000152533
0.000156647
0.000154187
0.00015959
0.00015614
0.00015235
0.000153327
0.000151981
0.000156692
0.000157196
0.000156448
0.000156166
0.000153334
0.000151499
0.000157741
0.000160853
0.00015726
0.000158694
0.000156454
0.000156712
0.000154649
0.000156538
0.000153349
0.000156132
0.000158905
0.000154926
0.000149758
0.000151616
0.000154828
0.000155876
0.000155149
0.000156704
0.00015708
0.000151122
0.000155822
0.000156906
0.000158108
0.000155292
0.000154787
0.000153548
0.000156273
0.00015523
0.000153016
0.000151969
0.000154024
0.000155093
0.00015677
0.000154923
0.000156927
0.000164672
0.000160913
0.000161569
0.000170904
0.000171593
0.000158152
0.000165411
0.000158877
0.000154426
0.000170245
0.00016812
0.000160107
0.000171476
0.000172757
0.000152933
0.000163952
0.000160866
0.000168534
0.000172774
0.000166867
0.000165133
0.000164757
0.00017248
0.000172866
0.000173495
0.000173744
0.000165734
0.000164462
0.000172389
0.000171661
0.000174073
0.000175601
0.000174775
0.00017444
0.000176747
0.000165296
0.000167049
0.000174822
0.000175732
0.000176827
0.000166939
0.000164518
0.000162984
0.000173067
0.000172467
0.000171765
0.000170446
0.000163966
0.000161219
0.000173842
0.00017589
0.000172522
0.000173702
0.000175654
0.000170751
0.000171935
0.000166794
0.000164234
0.000175852
0.000173685
0.00017229
0.000162162
0.000162907
0.000167007
0.000170994
0.000169626
0.000174178
0.000171937
0.000160926
0.000165396
0.000171969
0.000173332
0.000173259
0.000171495
0.0001713
0.000170195
0.000170334
0.000163896
0.000164834
0.000171696
0.000171281
0.000170536
0.000165075
0.00016804
0.000170339
0.000176359
0.000175563
0.000180556
0.000183375
0.000167389
0.000173664
0.000175648
0.000173407
0.000180722
0.000180409
0.000174602
0.00018398
0.000183021
0.000166061
0.000170979
0.000174464
0.000180646
0.000182525
0.000173446
0.000170322
0.00017097
0.00018078
0.000184386
0.000181463
0.000184957
0.000173872
0.000172974
0.000181259
0.000181685
0.000181477
0.000182625
0.000183978
0.000185719
0.000183857
0.000171227
0.000171275
0.00018345
0.000183146
0.000183493
0.000171165
0.000171688
0.000175999
0.000182857
0.000184798
0.000187664
0.000183504
0.000172767
0.000171948
0.000182658
0.000182341
0.000187686
0.000186168
0.000183534
0.000183608
0.000180942
0.000171127
0.000174334
0.000183269
0.000184224
0.000180684
0.000170384
0.00017636
0.000177413
0.000188592
0.000183997
0.000190378
0.000188992
0.000172281
0.000177048
0.000188827
0.000187684
0.00019028
0.000190178
0.000181643
0.000188604
0.000191962
0.000175171
0.000177826
0.000182275
0.000190848
0.000192427
0.000180434
0.000177509
0.000177972
0.000190922
0.000190228
0.000191693
0.000191947
0.00017757
0.00017836
0.000190771
0.000191128
0.000191828
0.00019317
0.00019354
0.000192961
0.000196063
0.00017819
0.000179858
0.000193819
0.000194078
0.000196326
0.000180799
0.000177842
0.000176499
0.000191714
0.000192069
0.000190803
0.000191445
0.00017819
0.000177873
0.000191903
0.000193519
0.000191395
0.000193098
0.000195075
0.000192974
0.000191683
0.00017981
0.000178248
0.000195215
0.000192978
0.00019127
0.00017579
0.000176529
0.00018368
0.000190266
0.000191628
0.000198276
0.000198403
0.000178137
0.000183348
0.000190762
0.000192844
0.000197147
0.00019162
0.000191189
0.000196244
0.00019025
0.000178043
0.000177058
0.000190789
0.000190782
0.000189241
0.000178143
0.00018455
0.00018642
0.000200173
0.00019981
0.000202931
0.000201466
0.00018398
0.000184773
0.000199262
0.000191896
0.000202101
0.00019887
0.000194257
0.000201197
0.000202856
0.000177272
0.000183978
0.000193072
0.000198637
0.000202814
0.000187563
0.000186009
0.000182873
0.000203141
0.000201465
0.000200079
0.000201031
0.000184596
0.000183827
0.000202398
0.000201508
0.00020112
0.000206569
0.000204074
0.000201962
0.000205535
0.000185453
0.000190161
0.000204384
0.000208104
0.000206384
0.000187513
0.000182399
0.000182425
0.000199744
0.000200756
0.000197147
0.000201106
0.000183704
0.000186117
0.000200909
0.000207225
0.000199284
0.000208247
0.000204988
0.000203051
0.000203959
0.000190343
0.000189854
0.000206421
0.000210591
0.000205445
0.00018637
0.000183715
0.000192303
0.000199482
0.00020312
0.000210675
0.000208336
0.000186898
0.000189515
0.000201425
0.00020689
0.00020945
0.000204455
0.000203661
0.000207306
0.000205706
0.000189013
0.00018543
0.00020527
0.000203734
0.000205164
0.000187476
0.000192883
0.000194477
0.000212303
0.000209199
0.000215845
0.000210623
0.000189544
0.000189808
0.000210713
0.000204158
0.000213232
0.00020471
0.000206266
0.000208409
0.000206641
0.000185142
0.000185504
0.000205044
0.000201872
0.000204588
0.000186821
0.000193606
0.000188955
0.000215809
0.000210805
0.00020954
0.00021017
0.000189669
0.000190147
0.000212685
0.000205605
0.000209512
0.000208479
0.000206595
0.000209006
0.000209258
0.000185848
0.000190018
0.000204145
0.000208476
0.000209099
0.00019103
0.000188486
0.000189307
0.000208726
0.000210116
0.000206944
0.000210131
0.00019038
0.000192378
0.000209099
0.000210281
0.000209311
0.000215214
0.00021141
0.000213747
0.000215265
0.000191071
0.00019568
0.000211836
0.000216571
0.000216127
0.000195592
0.000190022
0.00019309
0.000207437
0.000211419
0.000213054
0.000214289
0.000192691
0.000194259
0.000211049
0.000215869
0.000214041
0.00021719
0.000215858
0.000215652
0.000216019
0.000195846
0.000194979
0.000216885
0.000218356
0.000216851
0.00019364
0.000193101
0.000192783
0.00021408
0.00021483
0.000215021
0.000215222
0.000194063
0.00019299
0.000214448
0.000215737
0.00021447
0.00021353
0.000214821
0.000214046
0.000212966
0.000194009
0.000191092
0.000215208
0.000213141
0.000212907
0.000191121
0.000192595
0.000197455
0.000215219
0.000215099
0.000218764
0.00021437
0.000192705
0.000192743
0.000214121
0.000212962
0.000218666
0.000215224
0.000212781
0.000212557
0.000212998
0.000190516
0.00019475
0.000212587
0.000213672
0.000213433
0.000193739
0.000198274
0.000201659
0.000220548
0.000215487
0.000223166
0.000221527
0.000193405
0.000198987
0.000220996
0.000218255
0.000223972
0.000222905
0.000215618
0.000221701
0.000222447
0.000196007
0.000200485
0.000216211
0.000222634
0.00022251
0.000199717
0.000201532
0.000197472
0.000223949
0.000222418
0.000223034
0.000225023
0.000199303
0.000201219
0.000225292
0.000223806
0.000222204
0.000223985
0.000223355
0.000225752
0.000226346
0.000200533
0.000199026
0.000223288
0.000225003
0.000226115
0.000201614
0.000195926
0.000191468
0.000220596
0.000225194
0.000215671
0.000219458
0.000200429
0.000195463
0.000219261
0.000221583
0.000214368
0.000216556
0.000226319
0.000219785
0.000219251
0.00019784
0.000193826
0.000225876
0.000217937
0.000219079
0.000194906
0.000190739
0.000193955
0.00021523
0.000218413
0.000213686
0.000216077
0.00019491
0.00019391
0.000213902
0.000216018
0.000213587
0.00021394
0.000217825
0.00021648
0.00021551
0.000193358
0.000193268
0.000217638
0.000215207
0.000215424
0.0001921
0.000195745
0.000205529
0.000217805
0.00021656
0.000228851
0.000225862
0.000194752
0.000202337
0.000218847
0.000216892
0.000230489
0.000228568
0.000214739
0.000225682
0.000224723
0.000194317
0.000203659
0.000214316
0.00022685
0.000224629
0.000201578
0.000205945
0.000207195
0.000230175
0.000227173
0.000234411
0.000230866
0.000202683
0.0002037
0.000231794
0.000230163
0.000236546
0.000234974
0.000227069
0.000230358
0.000231042
0.000204255
0.00020715
0.000227431
0.000233136
0.000231621
0.000206354
0.000205142
0.000195812
0.000232808
0.000229905
0.000222473
0.000222731
0.00020232
0.000196591
0.000233785
0.000234099
0.000221512
0.000222571
0.000232176
0.000222475
0.000225486
0.000205646
0.000196793
0.000233161
0.000224179
0.000226468
0.000199153
0.000195028
0.000194141
0.000220808
0.000221722
0.00021814
0.000219567
0.000195951
0.000196337
0.000219706
0.000220709
0.000216653
0.000217669
0.000223648
0.000219522
0.000221187
0.000195947
0.000194792
0.000224124
0.00021924
0.000221303
0.000196274
0.000195067
0.000203523
0.000218547
0.000220931
0.000228266
0.000229605
0.000197433
0.000204853
0.000217515
0.000218337
0.000228172
0.000227604
0.000220855
0.00023012
0.000227354
0.000195567
0.000202928
0.000220563
0.000226955
0.000226162
0.000202135
0.000204016
0.000205883
0.000229789
0.000230741
0.000233556
0.000234498
0.000205192
0.000206503
0.000229786
0.000228974
0.000233552
0.000232357
0.000228363
0.000235062
0.000231737
0.000203294
0.000204332
0.000227286
0.000231566
0.00023043
0.000203526
0.000204848
0.000199141
0.000233417
0.000233552
0.000226163
0.000224967
0.000205021
0.00019768
0.000233384
0.000231772
0.000226558
0.000226485
0.000230443
0.000224363
0.00022427
0.000203365
0.000199455
0.000229722
0.000226323
0.000225079
0.000197931
0.000198643
0.000198304
0.000224789
0.000223401
0.000223294
0.000221565
0.000197069
0.00019624
0.000225295
0.000225733
0.000224027
0.000225415
0.000223627
0.000220967
0.000223331
0.00019902
0.00020017
0.00022462
0.000225651
0.000225091
0.000199747
0.000198612
0.000201391
0.000223396
0.000221508
0.000226944
0.00022692
0.000196659
0.000201509
0.000224337
0.000226155
0.000226894
0.000227743
0.000225624
0.000227109
0.000229095
0.00020048
0.000202316
0.000226857
0.000228283
0.000229709
0.000204246
0.0002014
0.000203171
0.000227496
0.000227765
0.000232169
0.000233061
0.000201663
0.000204185
0.000227345
0.000228029
0.000231288
0.0002295
0.000229875
0.000232773
0.000230688
0.000201858
0.000201043
0.000230376
0.000229465
0.000229937
0.000201318
0.000205148
0.000230303
0.000231237
0.000206097
0.000229381
0.000227426
0.000256537
0.000252664
0.000253858
0.000228079
0.000203044
0.000227504
4.3552e-06
2.11874e-06
1.7905e-06
1.95343e-06
1.13796e-06
2.0821e-06
1.22612e-06
1.8781e-06
1.21544e-06
1.94447e-06
1.39128e-06
6.0757e-07
2.23486e-06
2.60864e-06
1.98372e-06
1.1057e-06
1.35931e-05
1.04135e-06
1.53808e-05
1.08303e-05
1.3047e-05
1.35435e-06
1.53132e-05
1.26083e-06
1.71584e-05
1.76219e-06
1.67812e-06
1.8839e-06
1.77626e-06
1.75937e-06
1.68544e-06
1.91221e-06
1.14729e-06
4.92707e-07
1.76493e-06
1.89175e-06
1.13346e-06
6.11879e-07
1.76901e-06
1.1032e-05
1.32168e-05
1.21471e-06
1.60151e-06
3.22749e-07
1.72989e-06
1.20966e-06
1.60302e-06
4.27494e-07
1.78172e-06
1.48325e-06
2.19888e-06
1.97292e-06
1.70045e-06
1.33572e-06
1.86232e-05
1.21094e-06
2.10956e-05
1.70948e-05
1.92647e-05
1.52738e-06
2.08407e-05
1.45338e-06
2.31921e-05
1.75612e-06
1.68758e-06
1.91246e-06
1.77156e-06
1.74852e-06
1.69339e-06
1.90594e-06