/*--------------------------------*- C++ -*----------------------------------*\
| =========                 |                                                 |
| \\      /  F ield         | OpenFOAM: The Open Source CFD Toolbox           |
|  \\    /   O peration     | Version:  v2012                                 |
|   \\  /    A nd           | Website:  www.openfoam.com                      |
|    \\/     M anipulation  |                                                 |
\*---------------------------------------------------------------------------*/
FoamFile
{
    version     2.0;
    format      ascii;
    class       volScalarField;
    location    "1037.5";
    object      p;
}
// * * * * * * * * * * * * * * * * * * * * * * * * * * * * * * * * * * * * * //

dimensions      [0 2 -2 0 0 0 0];


internalField   nonuniform List<scalar> 
171728
(
0.00351925
0.00351821
0.00351815
0.00351895
0.00348358
0.00348223
0.00348216
0.00348493
0.00344499
0.00344327
0.0034431
0.00344548
0.00340092
0.00339929
0.00339928
0.00340152
0.00335284
0.00335142
0.00335133
0.00335372
0.00330395
0.00330267
0.00330269
0.00330503
0.0032557
0.00325455
0.00325453
0.00325689
0.0032084
0.00320735
0.00320734
0.00320971
0.00316208
0.00316119
0.00316118
0.00316354
0.00311675
0.00311597
0.00311594
0.00311833
0.00307231
0.00307165
0.00307163
0.00307399
0.00302864
0.0030281
0.00302807
0.00303045
0.00298551
0.00298506
0.00298508
0.0029874
0.00294282
0.00294243
0.00294249
0.00294481
0.00290045
0.00290023
0.00290019
0.0029025
0.00285839
0.00285828
0.00285815
0.00286042
0.00281669
0.00281667
0.00281652
0.00281876
0.00277532
0.00277534
0.0027752
0.00277741
0.00273431
0.00273418
0.0027343
0.00273634
0.00269368
0.00269362
0.00269376
0.00269563
0.00265339
0.00265357
0.00265352
0.00265532
0.00261333
0.00261348
0.00261348
0.00261513
0.00257362
0.00257385
0.00257382
0.00257534
0.00253418
0.00253447
0.00253444
0.00253602
0.00249499
0.00249532
0.00249526
0.00249691
0.00245605
0.00245646
0.00245644
0.00245804
0.00241724
0.00241765
0.00241773
0.00241997
0.00237872
0.00237915
0.00237914
0.00238037
0.00234048
0.0023411
0.00234105
0.00234344
0.00230243
0.00230285
0.002303
0.00230483
0.00226428
0.00226485
0.00226488
0.00226677
0.00222653
0.00222726
0.00222717
0.00222891
0.00218895
0.00218968
0.00218966
0.00219169
0.00215117
0.00215164
0.00215185
0.0021535
0.00211392
0.00211465
0.00211453
0.00211648
0.00207673
0.00207741
0.00207737
0.00207925
0.0020396
0.00204013
0.00204014
0.00204198
0.00200248
0.00200294
0.00200299
0.00200491
0.00196563
0.00196606
0.00196604
0.00196803
0.00192897
0.0019293
0.00192932
0.00193111
0.00189242
0.00189272
0.00189277
0.00189491
0.00185587
0.00185624
0.00185587
0.00185798
0.00181955
0.00181952
0.00181987
0.00182159
0.00178336
0.00178357
0.00178371
0.00178582
0.00174749
0.00174743
0.00174703
0.00174949
0.00171127
0.00171128
0.00171128
0.0017131
0.00167523
0.00167517
0.00167553
0.00167732
0.00163982
0.00163962
0.00163955
0.001642
0.00160452
0.0016045
0.00160424
0.00160639
0.00156878
0.00156834
0.00156851
0.00157014
0.00153293
0.00153251
0.00153248
0.00153463
0.00149751
0.00149771
0.0014979
0.00150031
0.00146292
0.001463
0.00146299
0.00146454
0.00142831
0.00142713
0.00142692
0.00142884
0.00139283
0.0013929
0.00139275
0.00139508
0.00135764
0.00135772
0.00135811
0.00135971
0.00132236
0.0013217
0.00132187
0.00132372
0.00128768
0.00128737
0.00128697
0.00128916
0.001253
0.00125315
0.00125309
0.00125527
0.00121841
0.00121817
0.00121837
0.00122014
0.00118376
0.00118305
0.00118322
0.00118485
0.00114941
0.00114912
0.00114897
0.00115086
0.00111434
0.00111467
0.00111442
0.00111674
0.00107945
0.00107935
0.00107935
0.00108125
0.00104498
0.00104427
0.0010446
0.00104614
0.001011
0.00101072
0.0010108
0.00101274
0.000976258
0.000976468
0.000976307
0.000978443
0.000941208
0.000941097
0.000941034
0.000942847
0.00090693
0.000906628
0.000906362
0.000908335
0.00087292
0.000872727
0.000872697
0.000874812
0.000838029
0.000837952
0.000838633
0.000840234
0.000803187
0.000803156
0.000803223
0.00080502
0.000769363
0.000769176
0.000768605
0.000770805
0.00073539
0.000734962
0.0007346
0.000736689
0.000699864
0.000699956
0.000700212
0.000702013
0.00066477
0.000664978
0.000665528
0.000667395
0.000630694
0.000630503
0.00063054
0.000632445
0.000596165
0.000595877
0.000595417
0.000597468
0.000561264
0.000561092
0.00056103
0.000562998
0.000526861
0.000526742
0.000527108
0.000528887
0.000492006
0.000492263
0.000492076
0.000494177
0.00045643
0.000456463
0.000456331
0.000458467
0.000421185
0.000420924
0.000421084
0.000422923
0.000387089
0.000386897
0.000386896
0.000388776
0.00035277
0.000352632
0.000352753
0.000354713
0.000316509
0.000316527
0.000316503
0.000318595
0.000280591
0.000280713
0.000280448
0.000282527
0.000246335
0.000246345
0.000246357
0.000248287
0.000211609
0.000211505
0.000211592
0.000213548
0.000175336
0.000175128
0.000175209
0.000177167
0.00013923
0.000139133
0.00013928
0.00014126
0.000104052
0.000104291
0.00010419
0.000106333
6.86506e-05
6.87307e-05
6.84063e-05
7.04294e-05
3.34208e-05
3.25766e-05
3.26106e-05
3.4198e-05
5.35655e-06
6.35454e-06
6.57363e-06
4.67959e-06
0.00352377
0.00352126
0.00352128
0.0035237
0.00352139
0.00352134
0.00352765
0.00352759
0.00352763
0.00352764
0.00352127
0.00352127
0.00352371
0.0035212
0.00352123
0.00352369
0.00351894
0.00348983
0.00351817
0.00351817
0.00349168
0.00349167
0.00351892
0.00348979
0.00351828
0.00351825
0.0034915
0.00349157
0.00351827
0.00349155
0.00349179
0.00351891
0.00348983
0.00351821
0.00349165
0.00349166
0.00348979
0.00348509
0.00345097
0.00348211
0.00348213
0.00345339
0.00345338
0.00348502
0.00345107
0.00348254
0.00348237
0.00345345
0.00345346
0.00348208
0.00345328
0.00345332
0.00348505
0.00345105
0.00348206
0.00345333
0.00345337
0.00345101
0.00344545
0.00340771
0.00344316
0.0034432
0.00341079
0.00341082
0.00344554
0.00340771
0.00344336
0.00344299
0.00341077
0.00341033
0.00344317
0.00341076
0.00341078
0.00344549
0.00340774
0.00344315
0.00341072
0.00341081
0.0034077
0.00340152
0.00336018
0.00339925
0.00339925
0.00336358
0.00336356
0.00340152
0.00336021
0.00339926
0.00339933
0.00336358
0.00336335
0.00339927
0.00336357
0.00336357
0.00340155
0.00336024
0.00339923
0.00336354
0.00336356
0.00336019
0.00335371
0.00331144
0.0033514
0.00335144
0.00331479
0.00331481
0.00335374
0.00331149
0.00335138
0.00335131
0.00331478
0.00331481
0.0033514
0.00331486
0.00331485
0.00335369
0.00331148
0.00335139
0.00331473
0.00331483
0.00331147
0.00330499
0.00326319
0.00330268
0.0033027
0.00326647
0.00326649
0.00330504
0.00326321
0.00330262
0.00330245
0.00326639
0.0032665
0.00330269
0.00326649
0.00326651
0.00330505
0.00326321
0.00330267
0.0032665
0.0032665
0.00326322
0.00325687
0.0032159
0.00325452
0.00325453
0.00321905
0.00321904
0.00325689
0.00321589
0.00325445
0.00325459
0.00321903
0.003219
0.00325455
0.00321905
0.00321906
0.00325689
0.00321591
0.00325455
0.00321906
0.00321909
0.00321588
0.00320972
0.00316959
0.00320736
0.00320733
0.00317264
0.00317257
0.0032097
0.00316958
0.00320737
0.00320728
0.00317266
0.00317258
0.00320735
0.00317261
0.00317264
0.00320972
0.00316959
0.00320736
0.00317264
0.00317267
0.00316958
0.00316355
0.00312423
0.00316118
0.00316118
0.00312719
0.00312713
0.00316354
0.00312423
0.00316118
0.00316122
0.00312721
0.00312714
0.0031612
0.00312718
0.00312717
0.00316356
0.00312421
0.0031612
0.00312716
0.00312717
0.00312423
0.00311833
0.00307977
0.00311597
0.00311595
0.00308265
0.00308263
0.00311831
0.00307979
0.00311596
0.00311601
0.00308267
0.00308263
0.00311598
0.00308265
0.00308265
0.00311832
0.00307977
0.00311597
0.00308264
0.00308264
0.00307976
0.00307398
0.00303608
0.00307163
0.00307161
0.00303894
0.00303893
0.00307398
0.00303611
0.00307164
0.00307165
0.00303893
0.00303891
0.00307165
0.00303888
0.00303893
0.00307399
0.00303611
0.00307165
0.00303892
0.00303891
0.00303614
0.00303041
0.00299302
0.00302808
0.00302812
0.00299579
0.00299577
0.00303042
0.00299302
0.00302809
0.00302805
0.00299579
0.00299577
0.00302808
0.00299579
0.00299578
0.00303043
0.002993
0.00302809
0.00299578
0.00299579
0.00299299
0.00298741
0.00295034
0.0029851
0.00298507
0.00295309
0.0029531
0.00298743
0.00295037
0.00298509
0.00298507
0.0029531
0.00295309
0.00298509
0.00295309
0.0029531
0.0029874
0.00295032
0.00298508
0.00295306
0.00295312
0.00295035
0.0029448
0.00290799
0.00294251
0.00294241
0.00291076
0.00291061
0.00294483
0.00290798
0.00294249
0.00294249
0.00291077
0.00291077
0.00294247
0.00291064
0.00291072
0.00294478
0.00290797
0.00294248
0.0029108
0.00291071
0.002908
0.00290251
0.00286593
0.00290021
0.00290023
0.00286865
0.00286864
0.00290249
0.00286581
0.0029002
0.00290018
0.00286864
0.00286862
0.00290021
0.00286862
0.00286864
0.0029025
0.00286594
0.00290023
0.00286861
0.00286864
0.00286586
0.00286049
0.00282413
0.00285818
0.00285826
0.00282689
0.00282693
0.00286038
0.00282401
0.00285818
0.00285814
0.00282684
0.00282689
0.00285825
0.00282694
0.0028269
0.00286049
0.00282414
0.00285825
0.00282691
0.00282689
0.00282414
0.00281875
0.00278269
0.00281657
0.00281664
0.00278555
0.00278545
0.00281864
0.00278274
0.00281661
0.00281653
0.00278549
0.00278552
0.00281662
0.00278545
0.00278545
0.00281878
0.00278269
0.00281661
0.00278552
0.00278542
0.00278272
0.00277738
0.00274165
0.00277527
0.00277533
0.00274452
0.00274438
0.00277743
0.00274176
0.00277533
0.00277523
0.00274441
0.0027445
0.00277526
0.00274435
0.00274441
0.00277739
0.0027416
0.0027753
0.00274448
0.00274442
0.00274159
0.00273643
0.0027009
0.00273434
0.0027342
0.00270382
0.00270391
0.00273646
0.00270073
0.00273437
0.0027343
0.00270373
0.00270383
0.00273423
0.00270385
0.00270375
0.00273639
0.00270089
0.00273423
0.00270383
0.00270381
0.00270079
0.00269571
0.00266038
0.0026937
0.00269363
0.00266357
0.00266347
0.00269555
0.00266037
0.00269365
0.00269374
0.00266355
0.00266347
0.00269367
0.00266351
0.00266347
0.00269572
0.00266045
0.00269359
0.00266348
0.00266349
0.0026604
0.00265528
0.00262022
0.00265351
0.00265356
0.00262338
0.00262325
0.00265527
0.00262036
0.00265339
0.00265346
0.00262355
0.00262344
0.00265344
0.00262335
0.00262349
0.00265529
0.00262026
0.00265343
0.00262344
0.00262345
0.0026202
0.00261516
0.00258047
0.00261358
0.00261342
0.00258357
0.00258367
0.00261519
0.00258046
0.00261347
0.00261344
0.00258379
0.00258369
0.00261345
0.00258377
0.00258379
0.00261513
0.00258048
0.00261348
0.0025837
0.00258375
0.00258039
0.00257537
0.00254115
0.00257376
0.00257377
0.00254421
0.00254418
0.00257548
0.00254095
0.00257384
0.0025738
0.00254433
0.00254424
0.00257375
0.00254424
0.00254436
0.00257544
0.0025411
0.00257379
0.00254424
0.00254433
0.00254099
0.00253615
0.00250188
0.0025344
0.00253442
0.00250496
0.00250498
0.00253602
0.00250189
0.00253451
0.00253444
0.00250511
0.00250509
0.00253447
0.00250504
0.00250501
0.00253611
0.00250193
0.00253452
0.00250508
0.002505
0.00250185
0.00249688
0.00246313
0.00249518
0.00249528
0.00246622
0.0024661
0.00249692
0.00246304
0.00249527
0.00249529
0.00246617
0.00246609
0.00249525
0.00246611
0.00246618
0.00249693
0.00246306
0.0024953
0.00246614
0.00246616
0.00246308
0.00245817
0.00242426
0.00245638
0.0024564
0.00242744
0.00242735
0.00245814
0.00242444
0.00245646
0.00245641
0.00242735
0.00242738
0.00245639
0.00242737
0.00242746
0.00245815
0.00242437
0.00245645
0.00242741
0.00242743
0.00242497
0.00241936
0.00238601
0.00241774
0.00241762
0.00238874
0.00238871
0.00241942
0.00238582
0.00241774
0.00241773
0.00238879
0.00238878
0.00241769
0.00238864
0.00238864
0.00241947
0.00238604
0.0024177
0.00238875
0.00238865
0.00238537
0.00238108
0.00234748
0.00237915
0.00237915
0.00235056
0.0023506
0.002381
0.00234784
0.00237917
0.00237914
0.00235052
0.00235047
0.00237901
0.0023506
0.00235068
0.00238105
0.00234743
0.00237901
0.00235048
0.00235065
0.00234815
0.00234261
0.00231022
0.00234116
0.00234107
0.00231248
0.00231241
0.00234288
0.00230996
0.0023411
0.00234104
0.00231251
0.00231256
0.00234123
0.00231242
0.00231243
0.00234262
0.00231009
0.00234118
0.00231258
0.00231252
0.0023099
0.00230529
0.00227149
0.00230295
0.00230292
0.00227434
0.00227431
0.00230509
0.00227156
0.00230291
0.002303
0.00227437
0.0022744
0.00230278
0.00227429
0.00227434
0.00230516
0.00227163
0.00230291
0.00227437
0.00227433
0.00227164
0.00226651
0.00223384
0.00226483
0.00226482
0.00223656
0.00223655
0.00226655
0.00223416
0.00226494
0.00226492
0.00223651
0.00223651
0.00226495
0.00223663
0.00223666
0.00226666
0.00223381
0.00226489
0.00223656
0.00223664
0.00223378
0.00222906
0.00219655
0.00222725
0.00222729
0.00219918
0.00219908
0.0022294
0.00219651
0.00222712
0.00222709
0.00219906
0.00219904
0.00222725
0.00219914
0.00219917
0.00222897
0.00219645
0.00222732
0.00219907
0.00219909
0.00219661
0.0021916
0.00215858
0.00218964
0.00218954
0.0021611
0.00216108
0.00219152
0.00215832
0.0021897
0.00218968
0.00216134
0.00216139
0.00218968
0.00216109
0.00216104
0.00219154
0.00215868
0.00218964
0.00216129
0.00216116
0.00215847
0.00215367
0.00212125
0.00215173
0.00215171
0.00212392
0.00212401
0.00215347
0.0021214
0.00215187
0.00215193
0.00212378
0.00212379
0.0021516
0.00212387
0.00212382
0.00215375
0.0021212
0.00215174
0.0021238
0.00212386
0.00212129
0.0021164
0.00208413
0.00211467
0.00211471
0.00208673
0.0020866
0.00211651
0.00208409
0.0021145
0.00211449
0.00208669
0.00208663
0.00211465
0.00208675
0.0020868
0.00211633
0.00208407
0.00211462
0.00208668
0.00208672
0.00208416
0.00207924
0.00204685
0.00207739
0.00207729
0.00204939
0.00204943
0.00207924
0.00204694
0.0020774
0.00207733
0.00204944
0.00204944
0.00207738
0.00204943
0.00204934
0.00207921
0.00204692
0.00207736
0.00204944
0.00204938
0.00204686
0.00204197
0.00200977
0.00204009
0.00204015
0.00201225
0.00201225
0.00204202
0.00200968
0.00204014
0.00204014
0.00201224
0.00201227
0.00204006
0.00201221
0.00201222
0.00204202
0.00200975
0.0020401
0.00201225
0.00201221
0.00200973
0.0020049
0.00197285
0.00200299
0.00200297
0.00197526
0.00197525
0.00200484
0.0019729
0.00200297
0.002003
0.00197527
0.00197524
0.00200298
0.00197526
0.00197538
0.00200489
0.00197285
0.00200297
0.00197526
0.00197537
0.00197296
0.00196801
0.00193617
0.00196605
0.00196606
0.00193855
0.00193853
0.00196805
0.00193609
0.00196607
0.00196603
0.00193853
0.00193846
0.00196613
0.00193851
0.00193828
0.00196799
0.00193611
0.00196612
0.00193847
0.00193831
0.00193589
0.00193132
0.00189943
0.00192941
0.00192931
0.0019018
0.00190181
0.00193123
0.0018995
0.00192937
0.00192932
0.00190182
0.00190196
0.0019291
0.0019018
0.00190199
0.0019313
0.00189962
0.00192914
0.00190196
0.00190197
0.00189972
0.0018946
0.00186303
0.00189259
0.00189271
0.00186529
0.00186538
0.00189472
0.00186309
0.00189261
0.00189277
0.00186526
0.00186503
0.00189296
0.00186545
0.00186538
0.00189473
0.00186273
0.00189292
0.00186501
0.00186531
0.0018629
0.00185819
0.00182649
0.00185621
0.00185619
0.00182877
0.00182862
0.0018582
0.00182639
0.00185619
0.00185589
0.00182873
0.0018288
0.00185602
0.00182859
0.00182841
0.00185792
0.00182661
0.00185597
0.00182884
0.00182845
0.00182632
0.00182168
0.00179037
0.00181963
0.00181955
0.00179247
0.00179257
0.00182161
0.00179043
0.00181962
0.0018198
0.00179257
0.00179281
0.00181946
0.00179256
0.00179272
0.00182183
0.00179066
0.00181953
0.00179283
0.00179279
0.0017906
0.00178559
0.00175428
0.0017835
0.00178355
0.00175655
0.00175643
0.00178562
0.00175424
0.00178357
0.00178373
0.00175648
0.00175618
0.00178373
0.00175648
0.00175664
0.00178578
0.00175394
0.00178382
0.00175613
0.00175663
0.00175437
0.00174947
0.00171809
0.0017475
0.0017474
0.00172022
0.00172035
0.00174947
0.00171821
0.00174743
0.00174705
0.00172024
0.00172011
0.00174757
0.0017203
0.00172002
0.00174914
0.00171809
0.00174748
0.00172015
0.00171995
0.00171787
0.00171327
0.00168212
0.00171115
0.00171133
0.00168419
0.0016842
0.00171339
0.00168203
0.00171116
0.00171124
0.00168417
0.00168455
0.00171096
0.00168419
0.0016841
0.00171334
0.00168241
0.00171094
0.00168451
0.00168413
0.00168209
0.00167734
0.00164649
0.00167525
0.00167517
0.00164852
0.00164838
0.00167722
0.00164637
0.00167526
0.00167559
0.0016486
0.00164862
0.00167518
0.00164839
0.00164867
0.00167763
0.00164638
0.00167521
0.00164859
0.00164876
0.00164669
0.00164178
0.00161113
0.00163967
0.00163959
0.00161328
0.00161331
0.0016417
0.00161131
0.00163974
0.00163952
0.00161328
0.00161286
0.0016399
0.00161335
0.00161343
0.00164161
0.00161099
0.00164005
0.00161296
0.00161346
0.00161122
0.00160635
0.0015752
0.0016044
0.00160447
0.00157734
0.00157749
0.00160654
0.00157524
0.00160437
0.00160415
0.0015772
0.00157751
0.00160446
0.00157748
0.00157716
0.0016063
0.00157533
0.00160434
0.00157758
0.00157684
0.00157495
0.00157042
0.00153962
0.00156833
0.00156837
0.00154166
0.00154143
0.0015704
0.00153941
0.00156821
0.00156849
0.00154167
0.0015415
0.00156805
0.00154135
0.00154123
0.00157044
0.00153935
0.00156785
0.00154134
0.00154131
0.00153928
0.00153485
0.00150434
0.00153281
0.00153259
0.00150627
0.00150636
0.00153466
0.00150438
0.00153285
0.00153267
0.00150638
0.00150644
0.0015325
0.00150635
0.00150678
0.00153465
0.00150462
0.00153271
0.00150645
0.00150705
0.00150491
0.00149964
0.00146936
0.00149747
0.00149766
0.00147134
0.00147164
0.00149973
0.00146961
0.00149759
0.00149779
0.00147138
0.00147164
0.00149816
0.00147182
0.0014718
0.00150001
0.00146958
0.00149844
0.00147195
0.00147173
0.00146946
0.0014647
0.00143433
0.0014627
0.00146287
0.0014366
0.00143611
0.00146483
0.00143398
0.00146267
0.00146275
0.00143646
0.00143601
0.00146264
0.00143589
0.00143557
0.00146475
0.00143375
0.00146239
0.00143574
0.00143531
0.00143347
0.00142956
0.00139927
0.00142779
0.0014274
0.00140134
0.00140156
0.00142928
0.00139951
0.00142763
0.00142725
0.00140126
0.00140133
0.00142702
0.00140151
0.00140191
0.00142902
0.0013993
0.00142681
0.00140122
0.00140184
0.00139972
0.00139461
0.00136444
0.0013926
0.00139287
0.00136634
0.00136651
0.00139485
0.00136453
0.00139256
0.00139277
0.00136645
0.00136674
0.00139331
0.00136663
0.00136657
0.00139472
0.00136488
0.00139328
0.00136688
0.00136664
0.00136455
0.00135968
0.00132868
0.00135746
0.00135758
0.00133079
0.00133058
0.00135969
0.0013285
0.00135763
0.00135792
0.00133088
0.00133096
0.00135745
0.00133061
0.00133034
0.00136014
0.0013287
0.00135756
0.00133101
0.00133057
0.0013285
0.00132388
0.0012938
0.00132197
0.00132174
0.00129597
0.00129597
0.00132372
0.00129386
0.00132201
0.00132184
0.00129583
0.00129547
0.00132156
0.00129584
0.00129598
0.00132383
0.00129344
0.00132172
0.00129544
0.00129589
0.00129378
0.00128919
0.00125969
0.0012874
0.00128747
0.00126169
0.00126172
0.00128926
0.00125983
0.00128727
0.00128699
0.0012616
0.00126166
0.00128756
0.00126177
0.00126191
0.00128885
0.00125965
0.00128739
0.00126167
0.00126178
0.00125986
0.00125508
0.00122484
0.00125309
0.00125309
0.00122689
0.00122695
0.00125521
0.00122481
0.00125301
0.00125307
0.00122699
0.00122708
0.00125327
0.00122704
0.00122699
0.00125502
0.00122513
0.00125318
0.00122707
0.00122702
0.00122492
0.00122006
0.00118968
0.00121798
0.00121808
0.00119174
0.00119167
0.00122001
0.00118955
0.00121818
0.0012184
0.0011919
0.00119198
0.00121809
0.00119168
0.00119161
0.00122038
0.0011898
0.00121818
0.00119196
0.00119176
0.00118956
0.00118501
0.00115565
0.0011832
0.00118311
0.0011578
0.00115772
0.00118487
0.00115561
0.00118327
0.00118324
0.00115766
0.00115751
0.00118301
0.00115759
0.00115754
0.00118507
0.00115539
0.00118312
0.00115749
0.0011575
0.00115542
0.00115105
0.00112123
0.00114928
0.00114923
0.00112324
0.00112333
0.00115104
0.00112143
0.00114913
0.00114898
0.00112316
0.00112311
0.00114908
0.00112336
0.00112339
0.00115079
0.00112116
0.00114902
0.00112316
0.00112331
0.00112141
0.00111649
0.00108589
0.00111445
0.00111459
0.00108796
0.00108814
0.00111673
0.00108604
0.00111439
0.00111436
0.00108801
0.00108806
0.0011147
0.00108829
0.00108825
0.00111644
0.00108605
0.00111462
0.00108813
0.00108825
0.0010861
0.00108113
0.00105119
0.00107915
0.00107924
0.0010532
0.00105294
0.00108121
0.00105085
0.00107921
0.00107931
0.00105328
0.00105324
0.00107931
0.00105286
0.00105283
0.00108126
0.00105114
0.00107933
0.00105317
0.00105291
0.00105081
0.00104655
0.0010173
0.00104471
0.00104441
0.00101935
0.0010192
0.0010462
0.00101717
0.00104476
0.0010447
0.00101935
0.00101932
0.00104428
0.0010191
0.00101925
0.00104649
0.00101728
0.00104436
0.00101924
0.00101928
0.00101727
0.00101267
0.000982719
0.00101078
0.00101075
0.000984807
0.00098497
0.00101261
0.00098306
0.0010108
0.00101083
0.000984754
0.000984822
0.00101087
0.000985165
0.000985293
0.0010127
0.00098288
0.00101091
0.000985053
0.00098526
0.000983247
0.000977974
0.000947776
0.00097608
0.000976255
0.000949792
0.000949939
0.000978315
0.000947809
0.000976017
0.00097609
0.000949816
0.00094993
0.000976514
0.000949919
0.000949757
0.000978138
0.000947802
0.000976461
0.000949852
0.00094971
0.000947637
0.000943046
0.000913311
0.000941061
0.000941188
0.000915285
0.000915307
0.00094304
0.000913223
0.000941111
0.000941191
0.000915272
0.000915094
0.000940924
0.000915125
0.000914914
0.000943025
0.000912998
0.000940894
0.000914915
0.00091491
0.000912918
0.000908695
0.000879483
0.000906839
0.000906784
0.000881481
0.000881306
0.000908598
0.00087936
0.000906787
0.000906496
0.000881399
0.000881078
0.000906453
0.00088126
0.000881264
0.000908338
0.000879185
0.000906432
0.0008811
0.000881249
0.000879376
0.000874817
0.000844472
0.000872887
0.000872706
0.000846498
0.000846479
0.000874706
0.000844544
0.000872852
0.000872636
0.000846629
0.000847066
0.000872842
0.000846719
0.000847095
0.000874615
0.000845171
0.000872842
0.000847279
0.000847192
0.000845033
0.000839695
0.000809576
0.000837689
0.000837741
0.000811536
0.00081175
0.000839782
0.000809729
0.000837818
0.000838404
0.000811635
0.000812082
0.000838273
0.00081178
0.00081184
0.000840425
0.000809939
0.000838403
0.000812093
0.000811892
0.00080977
0.00080493
0.000775858
0.000802997
0.000803208
0.000777829
0.000777794
0.000805045
0.000775788
0.000803056
0.000803326
0.000777711
0.000777345
0.000803152
0.000777627
0.000777452
0.000805143
0.000775278
0.000803157
0.000777148
0.0007773
0.000775419
0.000771282
0.000741914
0.00076947
0.000769348
0.000744064
0.000743735
0.000771206
0.000741678
0.000769312
0.000768799
0.000743853
0.000743186
0.000768967
0.000743604
0.000743386
0.000770644
0.000741271
0.00076879
0.000743089
0.000743226
0.000741375
0.000737129
0.000706439
0.00073529
0.00073504
0.000708419
0.000708613
0.000736955
0.000706594
0.000735152
0.000734651
0.000708562
0.000708775
0.000734769
0.000708746
0.000708661
0.000736638
0.000706853
0.000734659
0.000708882
0.000708772
0.000706742
0.000701615
0.000671331
0.000699498
0.000699776
0.00067318
0.000673446
0.000701771
0.000671553
0.000699715
0.000700072
0.000673417
0.000673967
0.000699939
0.000673674
0.000673948
0.000702094
0.00067206
0.000700118
0.000674206
0.000674172
0.0006721
0.00066667
0.000637366
0.00066461
0.000664797
0.000639303
0.000639171
0.000666846
0.000637236
0.000664793
0.00066532
0.000639235
0.000639421
0.000665341
0.000639105
0.00063938
0.00066734
0.000637286
0.000665524
0.000639299
0.00063928
0.000637215
0.000632708
0.000602805
0.000630804
0.000630644
0.000604991
0.000604851
0.000632575
0.000602716
0.000630688
0.000630739
0.000604742
0.000604373
0.000630641
0.000604573
0.000604367
0.00063254
0.000602255
0.000630481
0.000604165
0.000604189
0.000602236
0.000598006
0.00056772
0.000596211
0.00059612
0.000569753
0.000569764
0.000597949
0.00056772
0.000595967
0.000595591
0.000569726
0.000569483
0.000595625
0.000569747
0.000569562
0.000597477
0.000567609
0.000595472
0.00056949
0.00056956
0.000567667
0.000563003
0.000533464
0.000561043
0.00056102
0.000535284
0.00053514
0.000562972
0.000533262
0.000561115
0.000560973
0.0005355
0.000535546
0.000560968
0.000535297
0.000535314
0.000562979
0.000533703
0.000561032
0.00053562
0.000535467
0.000533525
0.000528808
0.000498657
0.000526728
0.000526596
0.000500704
0.000500908
0.000528606
0.000498943
0.000526955
0.000527042
0.00050071
0.000500929
0.000526804
0.00050103
0.000501101
0.000529065
0.00049883
0.000526948
0.000501023
0.000501083
0.000498989
0.00049383
0.000463104
0.000491887
0.000492188
0.000465283
0.000465487
0.000494156
0.00046339
0.000491808
0.000491989
0.000465117
0.000465212
0.00049232
0.000465425
0.000465507
0.00049396
0.000463128
0.000492252
0.000465234
0.000465432
0.000463357
0.000458232
0.000427997
0.000456364
0.00045654
0.000429905
0.000429779
0.000458502
0.000427738
0.000456215
0.000456316
0.000429923
0.00042986
0.000456542
0.000429683
0.000429677
0.000458261
0.000427897
0.000456486
0.000429748
0.000429714
0.000427687
0.000423278
0.000393766
0.000421261
0.000421011
0.000395604
0.000395396
0.000422983
0.000393515
0.000421329
0.000421195
0.000395696
0.000395519
0.000420876
0.000395367
0.000395244
0.000423167
0.000393587
0.000420921
0.000395398
0.000395242
0.000393395
0.000389145
0.000359304
0.000387099
0.000386912
0.000361401
0.000361331
0.000388882
0.00035934
0.000387205
0.000387012
0.000361419
0.000361427
0.000386792
0.000361347
0.000361362
0.000388952
0.000359401
0.000386781
0.000361435
0.000361373
0.000359442
0.000354437
0.000323198
0.000352529
0.000352599
0.000325372
0.000325528
0.000354538
0.000323405
0.000352483
0.000352635
0.000325296
0.000325465
0.000352749
0.000325586
0.000325757
0.000354592
0.000323367
0.000352784
0.000325607
0.000325781
0.000323577
0.000318264
0.000287335
0.000316344
0.000316485
0.000289351
0.000289507
0.000318465
0.000287497
0.000316273
0.000316397
0.000289281
0.000289271
0.000316626
0.000289513
0.000289461
0.00031841
0.000287248
0.000316624
0.000289294
0.000289412
0.000287352
0.000282603
0.000253184
0.000280609
0.000280715
0.000255021
0.000254946
0.000282721
0.000253055
0.000280565
0.000280487
0.000255081
0.000254987
0.000280575
0.000254913
0.000254792
0.00028248
0.00025308
0.000280506
0.000254857
0.00025475
0.000252931
0.000248508
0.000218487
0.000246463
0.000246373
0.000220466
0.000220399
0.00024838
0.000218377
0.000246532
0.000246466
0.00022054
0.000220485
0.000246283
0.000220385
0.000220363
0.000248424
0.000218463
0.000246271
0.000220434
0.000220378
0.000218397
0.000213597
0.00018208
0.0002116
0.000211522
0.00018423
0.000184214
0.000213497
0.000182083
0.000211633
0.000211591
0.000184205
0.000184239
0.000211523
0.000184213
0.000184266
0.000213585
0.00018213
0.000211556
0.00018431
0.000184312
0.000182144
0.000177113
0.000145984
0.000175133
0.000175129
0.000148003
0.000147968
0.00017711
0.00014595
0.000175109
0.000175152
0.00014802
0.000148115
0.000175165
0.000147973
0.000148059
0.000177162
0.000146105
0.000175198
0.000148139
0.000148095
0.000146064
0.000141156
0.000111007
0.000139124
0.000139108
0.000112932
0.000112978
0.000141134
0.00011108
0.000139149
0.000139258
0.000112929
0.000112962
0.000139233
0.000113026
0.000113092
0.000141279
0.000111034
0.000139259
0.00011298
0.000113054
0.000111143
0.00010619
7.55831e-05
0.000104183
0.000104246
7.76335e-05
7.77306e-05
0.000106281
7.57048e-05
0.000104165
0.000104173
7.75705e-05
7.74555e-05
0.000104336
7.77253e-05
7.75823e-05
0.000106208
7.53937e-05
0.000104294
7.74262e-05
7.74906e-05
7.54574e-05
7.06173e-05
3.95057e-05
6.86947e-05
6.87818e-05
4.15902e-05
4.15143e-05
7.07129e-05
3.93875e-05
6.86257e-05
6.84659e-05
4.15807e-05
4.14717e-05
6.84925e-05
4.14224e-05
4.12833e-05
7.04072e-05
3.9339e-05
6.8408e-05
4.14025e-05
4.1288e-05
3.91558e-05
3.45422e-05
7.56533e-06
3.27582e-05
3.2665e-05
1.05755e-05
1.04975e-05
3.4416e-05
7.49198e-06
3.27626e-05
3.26746e-05
1.06324e-05
1.0738e-05
3.24365e-05
1.05139e-05
1.07327e-05
3.43959e-05
7.73208e-06
3.24618e-05
1.07777e-05
1.08169e-05
7.76755e-06
4.45037e-06
6.28367e-06
6.24057e-06
4.42285e-06
6.38006e-06
6.46579e-06
5.34217e-06
5.54203e-06
5.61492e-06
6.52707e-06
4.62227e-06
6.61987e-06
0.00353077
0.00353345
0.00353207
0.00353232
0.00355932
0.00353331
0.00356281
0.0035336
0.00355941
0.00353333
0.00353352
0.00356286
0.00354433
0.00356613
0.00356609
0.00350327
0.00351685
0.00352075
0.00349544
0.00349373
0.00349898
0.0035032
0.00351661
0.00352075
0.00349563
0.00351921
0.00351924
0.00351925
0.00349274
0.00349272
0.00349273
0.00349273
0.00350295
0.00351466
0.00351982
0.00351043
0.00352197
0.00350003
0.00351072
0.00349349
0.00349891
0.00350288
0.00351978
0.00351455
0.00351051
0.00352189
0.00351079
0.00350002
0.00352095
0.00352075
0.00350774
0.00349972
0.00349984
0.00347563
0.00348984
0.00348971
0.00347364
0.00348698
0.00347274
0.00347553
0.00349008
0.00348964
0.00347344
0.00348358
0.00348362
0.00348356
0.00345511
0.00345516
0.00345514
0.00345514
0.00347329
0.00348843
0.00348213
0.00347261
0.00348683
0.0034739
0.00347266
0.00348699
0.00347278
0.00347337
0.00348208
0.00348839
0.00347268
0.00348684
0.0034727
0.0034739
0.00348954
0.00349006
0.00347107
0.00347367
0.00347428
0.00343303
0.00344781
0.00344868
0.00343178
0.00344667
0.00343083
0.00343302
0.00344758
0.0034487
0.00343144
0.00344505
0.00344501
0.00344506
0.00341248
0.0034125
0.00341253
0.00341249
0.00343173
0.00344739
0.00344319
0.00343273
0.0034463
0.00343223
0.00343274
0.00344684
0.00343031
0.00343177
0.00344319
0.00344737
0.00343278
0.00344631
0.00343273
0.00343219
0.00344804
0.00344805
0.00343004
0.00343211
0.00343208
0.00338671
0.00340312
0.00340456
0.00338526
0.00340241
0.00338472
0.00338659
0.00340308
0.00340453
0.00338522
0.00340094
0.00340091
0.00340096
0.00336503
0.00336504
0.00336508
0.00336505
0.00338584
0.00340296
0.00339928
0.00338756
0.00340236
0.00338594
0.00338756
0.00340192
0.00338483
0.00338586
0.00339929
0.00340291
0.00338755
0.00340235
0.00338757
0.00338597
0.00340325
0.00340323
0.00338425
0.00338543
0.00338544
0.00333774
0.00335484
0.00335621
0.00333656
0.00335445
0.00333625
0.00333767
0.00335487
0.00335616
0.00333652
0.00335284
0.00335283
0.00335286
0.00331613
0.00331615
0.00331614
0.00331615
0.00333733
0.00335491
0.00335143
0.00333924
0.00335455
0.00333726
0.00333926
0.00335371
0.00333503
0.00333733
0.0033514
0.00335481
0.00333917
0.00335451
0.0033392
0.00333714
0.00335495
0.00335495
0.00333584
0.00333667
0.00333664
0.00328859
0.00330594
0.00330699
0.00328773
0.00330567
0.00328755
0.00328853
0.00330594
0.00330686
0.00328766
0.00330395
0.00330398
0.00330396
0.00326768
0.00326767
0.0032677
0.00326769
0.00328856
0.00330597
0.00330272