/*--------------------------------*- C++ -*----------------------------------*\
| =========                 |                                                 |
| \\      /  F ield         | OpenFOAM: The Open Source CFD Toolbox           |
|  \\    /   O peration     | Version:  v2006                                 |
|   \\  /    A nd           | Website:  www.openfoam.com                      |
|    \\/     M anipulation  |                                                 |
\*---------------------------------------------------------------------------*/
FoamFile
{
    version     2.0;
    format      ascii;
    class       volScalarField;
    location    "125";
    object      k;
}
// * * * * * * * * * * * * * * * * * * * * * * * * * * * * * * * * * * * * * //

dimensions      [0 2 -2 0 0 0 0];


internalField   nonuniform List<scalar> 
14404
(
1.82665e-05
1.82662e-05
2.30738e-05
1.30836e-05
6.914e-05
5.06337e-05
6.99549e-05
5.77326e-05
1.46533e-05
5.06337e-05
3.77717e-05
6.16078e-05
6.16054e-05
6.91392e-05
6.9958e-05
7.47329e-05
7.03023e-05
6.92854e-05
6.24642e-05
6.97206e-05
4.62167e-05
6.91917e-05
6.14403e-05
6.13808e-05
4.62038e-05
6.91809e-05
6.16068e-05
4.62054e-05
6.13784e-05
6.91825e-05
7.19388e-05
7.19448e-05
8.86358e-05
6.91444e-05
6.99593e-05
7.47546e-05
4.536e-05
3.26569e-05
3.26527e-05
2.30413e-05
3.26369e-05
4.53602e-05
3.26415e-05
1.22185e-05
2.95297e-05
3.57267e-05
5.06338e-05
3.57142e-05
4.64434e-05
3.57302e-05
4.6437e-05
2.95549e-05
2.35497e-05
4.12739e-05
2.57426e-05
5.77383e-05
6.99591e-05
6.99605e-05
6.91441e-05
6.91456e-05
2.30498e-05
6.16039e-05
6.16117e-05
3.77732e-05
1.8266e-05
5.06329e-05
1.46535e-05
1.82648e-05
5.06345e-05
6.97228e-05
5.77348e-05
6.92884e-05
6.24753e-05
6.92868e-05
6.24703e-05
6.97252e-05
7.03041e-05
7.47581e-05
6.99578e-05
7.47519e-05
7.03124e-05
6.99592e-05
6.91453e-05
6.91389e-05
6.91404e-05
8.86327e-05
7.1951e-05
7.19449e-05
7.19446e-05
7.19386e-05
8.86357e-05
6.13763e-05
6.91819e-05
6.16024e-05
4.62034e-05
6.91803e-05
6.13785e-05
4.62015e-05
6.14375e-05
6.91931e-05
6.16102e-05
4.62168e-05
6.91915e-05
6.14395e-05
4.62148e-05
7.03107e-05
6.99561e-05
7.47391e-05
6.97232e-05
5.77356e-05
6.92871e-05
6.24689e-05
6.14425e-05
6.16088e-05
6.91932e-05
4.62182e-05
8.86387e-05
7.19452e-05
7.19512e-05
4.53579e-05
2.3081e-05
3.26348e-05
3.26406e-05
4.53575e-05
3.26502e-05
3.26557e-05
2.57445e-05
3.77728e-05
4.12788e-05
2.35304e-05
4.12781e-05
2.35508e-05
2.57135e-05
2.95558e-05
4.64419e-05
5.06325e-05
3.57138e-05
4.64439e-05
3.57258e-05
2.95291e-05
5.06343e-05
3.57169e-05
3.5729e-05
2.95283e-05
5.06337e-05
4.64365e-05
3.57177e-05
2.57114e-05
3.77713e-05
2.35292e-05
4.12742e-05
2.30493e-05
1.82612e-05
1.82633e-05
2.30827e-05
1.82642e-05
1.30835e-05
6.99582e-05
6.91439e-05
6.91391e-05
6.91448e-05
6.91398e-05
2.30744e-05
6.16008e-05
6.16063e-05
6.15992e-05
6.16049e-05
5.77307e-05
6.99582e-05
6.9957e-05
5.77346e-05
5.77294e-05
6.99536e-05
5.77335e-05
3.77786e-05
1.82617e-05
5.06279e-05
1.46518e-05
5.06273e-05
1.46517e-05
3.77718e-05
3.7777e-05
1.82625e-05
1.46514e-05
5.06267e-05
1.46513e-05
3.77714e-05
6.91386e-05
2.30713e-05
6.16015e-05
6.15985e-05
6.91386e-05
5.77301e-05
6.99594e-05
6.99582e-05
5.77337e-05
3.77755e-05
1.8263e-05
5.06298e-05
1.46525e-05
5.06289e-05
1.46519e-05
3.7769e-05
5.77268e-05
6.99541e-05
5.77299e-05
3.77736e-05
1.82633e-05
1.46517e-05
1.46516e-05
5.06273e-05
3.77674e-05
3.77774e-05
1.82611e-05
5.06263e-05
1.46519e-05
5.77316e-05
6.99574e-05
3.77771e-05
1.82629e-05
1.46522e-05
5.06263e-05
5.77305e-05
6.99547e-05
6.91395e-05
2.30713e-05
6.1603e-05
6.16015e-05
6.91386e-05
3.77742e-05
1.82614e-05
1.46517e-05
5.06279e-05
3.77752e-05
1.82624e-05
1.46523e-05
5.0629e-05
5.77284e-05
6.99571e-05
5.773e-05
6.99559e-05
2.30756e-05
6.1598e-05
6.16058e-05
6.91389e-05
6.91408e-05
6.91386e-05
6.91396e-05
6.15992e-05
6.16047e-05
5.06299e-05
7.03044e-05
7.47558e-05
7.47497e-05
7.03125e-05
7.03121e-05
7.47499e-05
6.99594e-05
7.03039e-05
7.47562e-05
6.91388e-05
6.91441e-05
6.91397e-05
6.91449e-05
8.86297e-05
7.19414e-05
7.19406e-05
8.86267e-05
7.19477e-05
7.19466e-05
6.13874e-05
4.61961e-05
6.15993e-05
6.91842e-05
6.91828e-05
4.61934e-05
6.13885e-05
6.14182e-05
4.62141e-05
6.16047e-05
6.91888e-05
6.9187e-05
4.62125e-05
6.14214e-05
6.13907e-05
6.91833e-05
4.61916e-05
6.16007e-05
6.13895e-05
6.91846e-05
4.61945e-05
6.14196e-05
6.91867e-05
4.62134e-05
6.16063e-05
6.1416e-05
6.91884e-05
4.62149e-05
8.86267e-05
7.19477e-05
7.19461e-05
7.19413e-05
7.194e-05
8.86298e-05
6.9725e-05
6.92864e-05
6.24668e-05
5.77343e-05
6.97226e-05
6.9288e-05
6.24717e-05
7.03038e-05
6.99569e-05
7.4755e-05
7.0312e-05
7.47489e-05
7.03122e-05
7.47491e-05
6.99583e-05
7.03041e-05
7.47551e-05
6.97225e-05
5.77309e-05
6.9288e-05
6.24719e-05
6.97249e-05
6.92864e-05
6.2467e-05
6.97241e-05
6.9286e-05
6.2463e-05
5.77332e-05
6.97218e-05
6.92877e-05
6.24681e-05
7.03117e-05
7.47342e-05
6.99548e-05
7.03036e-05
7.47403e-05
6.97217e-05
5.77298e-05
6.92877e-05
6.24683e-05
6.9286e-05
6.24633e-05
6.97241e-05
6.9144e-05
8.86314e-05
7.19385e-05
7.19427e-05
8.86281e-05
7.19448e-05
7.1949e-05
6.14318e-05
6.91881e-05
4.62091e-05
6.16025e-05
4.62108e-05
6.14294e-05
6.91898e-05
6.13814e-05
6.91813e-05
4.61948e-05
6.16e-05
6.13792e-05
6.91827e-05
4.61975e-05
6.91437e-05
6.97249e-05
6.24666e-05
6.92858e-05
5.77335e-05
6.97225e-05
6.24716e-05
6.92875e-05
7.0304e-05
6.99582e-05
7.4756e-05
7.03122e-05
7.47496e-05
7.03123e-05
7.47495e-05
6.99595e-05
7.03042e-05
7.47557e-05
6.97224e-05
5.77301e-05
6.24719e-05
6.92875e-05
6.97248e-05
6.24667e-05
6.92858e-05
6.97227e-05
6.92845e-05
6.24607e-05
5.77297e-05
6.97202e-05
6.92862e-05
6.24652e-05
7.03105e-05
7.47311e-05
6.99553e-05
7.03023e-05
7.47371e-05
6.97202e-05
5.77267e-05
6.92862e-05
6.24656e-05
6.92845e-05
6.24608e-05
6.97227e-05
6.97244e-05
6.24655e-05
6.92868e-05
5.77353e-05
6.97218e-05
6.24701e-05
6.92884e-05
7.03117e-05
7.47476e-05
6.99586e-05
7.0303e-05
7.47529e-05
6.9724e-05
6.92864e-05
6.2463e-05
5.77344e-05
6.97216e-05
6.9288e-05
6.24681e-05
7.03113e-05
7.47327e-05
6.99559e-05
7.03032e-05
7.47388e-05
6.91446e-05
8.86364e-05
7.19386e-05
7.19444e-05
8.86336e-05
7.19449e-05
7.19507e-05
6.14367e-05
6.91904e-05
4.62092e-05
6.16041e-05
4.62112e-05
6.14341e-05
6.91918e-05
6.13756e-05
6.91795e-05
4.61959e-05
6.16029e-05
6.13729e-05
6.9181e-05
4.61977e-05
6.91437e-05
6.97229e-05
6.24627e-05
6.92852e-05
5.77317e-05
6.97204e-05
6.24672e-05
6.92868e-05
7.03106e-05
7.47465e-05
6.99584e-05
7.03018e-05
7.47519e-05
6.97239e-05
6.24632e-05
6.92859e-05
5.77336e-05
6.97216e-05
6.24683e-05
6.92875e-05
7.03121e-05
7.47347e-05
6.99572e-05
7.0304e-05
7.47408e-05
8.86316e-05
7.19421e-05
7.19375e-05
8.86287e-05
7.19492e-05
7.19439e-05
6.13791e-05
6.91797e-05
4.61961e-05
6.15995e-05
6.13772e-05
4.61983e-05
6.91812e-05
6.14347e-05
6.919e-05
4.62111e-05
6.16073e-05
6.14325e-05
4.62132e-05
6.91915e-05
6.9144e-05
6.91459e-05
6.91437e-05
6.91447e-05
6.1387e-05
4.61943e-05
6.91825e-05
6.16008e-05
6.13854e-05
6.91838e-05
4.61969e-05
6.14234e-05
4.62114e-05
6.91874e-05
6.16063e-05
6.14199e-05
6.91891e-05
4.62132e-05
8.86302e-05
7.19413e-05
7.19396e-05
8.8627e-05
7.19477e-05
7.19457e-05
4.53585e-05
2.30835e-05
3.26256e-05
3.26376e-05
3.26406e-05
3.26532e-05
4.5354e-05
4.53537e-05
3.26412e-05
3.26528e-05
2.3041e-05
4.53577e-05
3.26263e-05
3.26375e-05
1.30834e-05
1.22195e-05
1.22196e-05
1.22195e-05
1.22195e-05
1.19947e-05
1.19947e-05
1.30827e-05
1.22194e-05
1.22194e-05
1.22195e-05
1.19947e-05
1.19947e-05
1.30828e-05
1.22194e-05
1.22194e-05
1.22193e-05
1.19946e-05
1.19946e-05
1.30835e-05
1.22197e-05
1.22196e-05
1.19947e-05
1.19947e-05
4.53549e-05
2.30437e-05
3.26422e-05
3.26559e-05
4.53599e-05
3.26244e-05
3.26377e-05
2.57062e-05
4.12855e-05
2.35468e-05
3.77725e-05
2.57397e-05
4.12785e-05
2.35237e-05
2.95487e-05
3.57057e-05
5.06275e-05
4.64391e-05
3.57175e-05
4.64458e-05
2.95219e-05
2.95223e-05
4.64486e-05
3.57185e-05
5.06276e-05
3.57053e-05
2.95527e-05
4.64413e-05
2.57372e-05
3.77772e-05
4.12767e-05
2.35247e-05
4.12834e-05
2.35446e-05
2.57068e-05
2.57051e-05
4.12816e-05
2.35461e-05
3.77713e-05
2.57383e-05
4.12758e-05
2.35231e-05
2.95217e-05
4.64429e-05
3.57225e-05
5.06257e-05
2.95512e-05
4.64366e-05
3.57094e-05
2.57362e-05
3.77766e-05
4.12755e-05
2.35242e-05
4.12814e-05
2.35441e-05
2.57059e-05
4.53566e-05
2.30388e-05
3.26523e-05
3.26459e-05
3.26339e-05
4.53614e-05
3.26281e-05
2.9553e-05
4.64409e-05
4.64494e-05
2.95244e-05
2.57072e-05
4.12805e-05
2.3544e-05
3.77695e-05
2.57377e-05
4.12753e-05
2.35238e-05
2.95503e-05
3.57123e-05
5.06294e-05
4.64379e-05
3.57238e-05
4.64431e-05
2.95236e-05
2.95238e-05
4.64449e-05
3.57239e-05
5.06292e-05
3.57112e-05
2.95508e-05
4.6438e-05
2.57384e-05
3.77742e-05
4.12752e-05
2.35249e-05
4.12812e-05
2.35447e-05
2.57079e-05
2.57058e-05
2.35433e-05
4.12782e-05
3.77675e-05
2.57363e-05
2.35231e-05
4.12714e-05
2.95225e-05
4.64398e-05
3.57226e-05
5.06274e-05
2.95495e-05
4.64325e-05
3.57106e-05
2.57368e-05
3.77724e-05
2.35242e-05
4.12708e-05
2.35439e-05
4.12769e-05
2.57064e-05
2.5706e-05
4.12813e-05
2.35472e-05
3.7772e-05
2.57391e-05
4.12755e-05
2.35242e-05
2.95221e-05
4.64455e-05
3.57181e-05
5.06266e-05
2.95506e-05
3.57053e-05
4.64398e-05
2.57064e-05
2.35474e-05
4.12801e-05
3.77717e-05
2.57393e-05
2.35245e-05
4.12748e-05
2.95219e-05
4.64414e-05
3.57191e-05
5.06264e-05
2.95507e-05
4.64352e-05
3.5706e-05
4.53558e-05
2.30409e-05
3.26493e-05
3.26446e-05
3.26341e-05
4.53598e-05
3.26294e-05
2.57059e-05
2.35437e-05
4.12796e-05
3.77697e-05
2.57362e-05
2.35237e-05
4.12745e-05
2.95212e-05
4.6444e-05
3.57173e-05
5.06282e-05
2.95474e-05
3.57053e-05
4.64389e-05
2.57074e-05
2.35444e-05
4.12802e-05
3.77708e-05
2.57377e-05
2.35243e-05
4.12754e-05
2.95226e-05
4.64427e-05
3.57247e-05
5.06293e-05
2.9552e-05
4.64367e-05
3.57116e-05
4.53565e-05
2.30357e-05
3.26462e-05
3.26543e-05
4.53613e-05
3.26282e-05
3.26361e-05
2.95251e-05
3.57245e-05
4.64448e-05
5.06303e-05
4.64407e-05
2.95509e-05
3.57128e-05
5.77335e-05
6.91449e-05
1.82611e-05
5.06276e-05
3.77714e-05
1.46517e-05
5.77299e-05
6.99554e-05
3.77692e-05
1.82631e-05
1.46514e-05
5.06266e-05
2.30335e-05
6.16046e-05
6.16029e-05
6.91438e-05
6.99584e-05
6.97225e-05
5.773e-05
6.24715e-05
6.92875e-05
6.24664e-05
6.92859e-05
6.97249e-05
6.91398e-05
6.97203e-05
5.77269e-05
6.92862e-05
6.24651e-05
6.92846e-05
6.24604e-05
6.97228e-05
7.03025e-05
6.99542e-05
7.47372e-05
7.47312e-05
7.03107e-05
8.86338e-05
7.19451e-05
7.19508e-05
7.19388e-05
7.19446e-05
8.86366e-05
6.14341e-05
6.16034e-05
6.9192e-05
4.62111e-05
6.91905e-05
4.62088e-05
6.14367e-05
6.13724e-05
6.16014e-05
6.91811e-05
4.61974e-05
4.61952e-05
6.91795e-05
6.13751e-05
6.91387e-05
6.99571e-05
1.22195e-05
1.30828e-05
1.22194e-05
5.06272e-05
3.57048e-05
3.5718e-05
2.57393e-05
3.77788e-05
4.1274e-05
2.35232e-05
4.12795e-05
2.35463e-05
2.57062e-05
2.57386e-05
3.77768e-05
2.35225e-05
4.12719e-05
2.35457e-05
4.12776e-05
2.5705e-05
2.95529e-05
5.06273e-05
4.64356e-05
3.57102e-05
4.64443e-05
2.95234e-05
3.57235e-05
4.53605e-05
2.30713e-05
3.26332e-05
3.26285e-05
3.26467e-05
3.26514e-05
4.53563e-05
1.30835e-05
1.82618e-05
1.8262e-05
2.30784e-05
1.30837e-05
1.82633e-05
1.82639e-05
2.30736e-05
1.30837e-05
1.82645e-05
1.82651e-05
2.30737e-05
1.30833e-05
1.82645e-05
1.82649e-05
2.30825e-05
1.30826e-05
1.82643e-05
1.82647e-05
2.30879e-05
1.30825e-05
1.82643e-05
1.82648e-05
2.30827e-05
1.82629e-05
2.30485e-05
1.82637e-05
1.82615e-05
1.82632e-05
2.30491e-05
1.82618e-05
1.82626e-05
2.30368e-05
2.30441e-05
1.82607e-05
1.82632e-05
1.82633e-05
1.82642e-05
2.30848e-05
2.30415e-05
1.82639e-05
1.82642e-05
1.82653e-05
1.82637e-05
1.82629e-05
1.82646e-05
2.30839e-05
2.30452e-05
1.82631e-05
1.82636e-05
1.82642e-05
2.30361e-05
2.30834e-05
2.30353e-05
1.82637e-05
1.82647e-05
1.82647e-05
1.82651e-05
2.30824e-05
2.30349e-05
1.82644e-05
1.82655e-05
1.82645e-05
1.8266e-05
1.82652e-05
1.8264e-05
1.8266e-05
2.30844e-05
2.3036e-05
1.82647e-05
1.82647e-05
1.82655e-05
2.30415e-05
2.30725e-05
2.30426e-05
1.82651e-05
1.82655e-05
1.82654e-05
1.82655e-05
2.30728e-05
2.30391e-05
1.82646e-05
1.82665e-05
1.82647e-05
1.82665e-05
1.82663e-05
1.82645e-05
1.82667e-05
2.30757e-05
2.30398e-05
1.82657e-05
1.82649e-05
1.82661e-05
2.30516e-05
2.30759e-05
2.3042e-05
1.82653e-05
1.82655e-05
1.82653e-05
1.82655e-05
2.30715e-05
2.30484e-05
1.82645e-05
1.82664e-05
1.82643e-05
1.82664e-05
1.82665e-05
1.82644e-05
1.82666e-05
2.30722e-05
2.30503e-05
1.82659e-05
1.82649e-05
1.82659e-05
2.30516e-05
2.30801e-05
2.30386e-05
1.82652e-05
1.82653e-05
1.82653e-05
1.82653e-05
2.30791e-05
2.30497e-05
1.82641e-05
1.82661e-05
1.82639e-05
1.82662e-05
1.82664e-05
1.82644e-05
1.82662e-05
2.30815e-05
2.30497e-05
1.82657e-05
1.82648e-05
1.82655e-05
2.30423e-05
2.30801e-05
2.30355e-05
1.82654e-05
1.82653e-05
1.82645e-05
1.82656e-05
2.30851e-05
2.30465e-05
1.82639e-05
1.82661e-05
1.8264e-05
1.82662e-05
1.82662e-05
1.82645e-05
1.82663e-05
2.3086e-05
2.30459e-05
1.82655e-05
1.82649e-05
1.82656e-05
2.3039e-05
2.3073e-05
2.30372e-05
1.82644e-05
1.82662e-05
1.82638e-05
1.82671e-05
2.30852e-05
1.30828e-05
1.30829e-05
1.30835e-05
5.77352e-05
6.99569e-05
5.77311e-05
6.99581e-05
6.91384e-05
6.91437e-05
5.77338e-05
5.77302e-05
6.99594e-05
1.30829e-05
1.30829e-05
1.30835e-05
1.30837e-05
1.30831e-05
1.30832e-05
1.30837e-05
3.77734e-05
5.06274e-05
1.46521e-05
1.8262e-05
3.77774e-05
5.06283e-05
1.46523e-05
6.91391e-05
6.91441e-05
3.77694e-05
1.4652e-05
5.06289e-05
1.82622e-05
3.77761e-05
1.46522e-05
5.06298e-05
6.15983e-05
6.16061e-05
2.30501e-05
6.15999e-05
6.16077e-05
5.77364e-05
6.99568e-05
5.77325e-05
6.9958e-05
6.9138e-05
6.91434e-05
5.77346e-05
6.99581e-05
5.77307e-05
6.99593e-05
1.30831e-05
1.30833e-05
1.30837e-05
1.30837e-05
1.30833e-05
1.30835e-05
1.30839e-05
3.77759e-05
5.06293e-05
1.46529e-05
1.82635e-05
3.77775e-05
5.06301e-05
1.46531e-05
6.91386e-05
6.91437e-05
3.77731e-05
1.4653e-05
5.06313e-05
1.8264e-05
3.77774e-05
1.46532e-05
5.06316e-05
6.15986e-05
6.16066e-05
2.30515e-05
6.16002e-05
6.16081e-05
5.77372e-05
6.99567e-05
5.77335e-05
6.99579e-05
6.91378e-05
6.91433e-05
5.77357e-05
6.99581e-05
5.7732e-05
6.99594e-05
1.30834e-05
1.30836e-05
1.3084e-05
1.30835e-05
1.30833e-05
1.30836e-05
1.3084e-05
3.77761e-05
5.06303e-05
1.46538e-05
1.82646e-05
3.77794e-05
5.06306e-05
1.46539e-05
6.91385e-05
6.91438e-05
3.7774e-05
1.46539e-05
5.06321e-05
1.82652e-05
3.77788e-05
1.4654e-05
5.06319e-05
6.15989e-05
6.16068e-05
2.30441e-05
6.16004e-05
6.16082e-05
5.7737e-05
6.99567e-05
5.77338e-05
6.99581e-05
6.91378e-05
6.91434e-05
5.77357e-05
6.99584e-05
5.77324e-05
6.99598e-05
1.30832e-05
1.30835e-05
1.30839e-05
1.30827e-05
1.30827e-05
1.30829e-05
1.30833e-05
3.77734e-05
5.06301e-05
1.46538e-05
1.82645e-05
3.7779e-05
5.06305e-05
1.46536e-05
6.91388e-05
6.91442e-05
3.77679e-05
1.46538e-05
5.06318e-05
1.82649e-05
3.77761e-05
1.46536e-05
5.06328e-05
6.15991e-05
6.16069e-05
2.30378e-05
6.16008e-05
6.16085e-05
5.77364e-05
6.99571e-05
5.7733e-05
6.99584e-05
6.91379e-05
6.91434e-05
5.7736e-05
6.99585e-05
5.77323e-05
6.99597e-05
1.30826e-05
1.30828e-05
1.30832e-05
1.30825e-05
1.30825e-05
1.30827e-05
1.3083e-05
3.77685e-05
5.06319e-05
1.46532e-05
1.82642e-05
3.77736e-05
5.06326e-05
1.46532e-05
6.91391e-05
6.91445e-05
3.7769e-05
1.46533e-05
5.06344e-05
1.82646e-05
3.77722e-05
1.46532e-05
5.06326e-05
6.15997e-05
6.16075e-05
2.30423e-05
6.16012e-05
6.16091e-05
5.77369e-05
6.99571e-05
5.77333e-05
6.99584e-05
6.91379e-05
6.91434e-05
5.77367e-05
6.99585e-05
5.7733e-05
6.99597e-05
1.30825e-05
1.30827e-05
1.3083e-05
1.30826e-05
1.22185e-05
1.19933e-05
1.19934e-05
3.77719e-05
5.06309e-05
1.46531e-05
1.82642e-05
3.77763e-05
5.06318e-05
1.46531e-05
6.91394e-05
6.91448e-05
3.77676e-05
1.46532e-05
5.06335e-05
1.82647e-05
3.77759e-05
1.46532e-05
5.06338e-05
6.15998e-05
6.16079e-05
2.30514e-05
6.16014e-05
6.16096e-05
5.77372e-05
6.99585e-05
5.77335e-05
6.99597e-05
6.91397e-05
6.91452e-05
6.99548e-05
5.06261e-05
6.91439e-05
6.16025e-05
6.16002e-05
6.91435e-05
6.99554e-05
5.06287e-05
5.06274e-05
1.4652e-05
3.77721e-05
6.99585e-05
5.77358e-05
1.46523e-05
5.0627e-05
3.77721e-05
6.99559e-05
5.77349e-05
6.91444e-05
6.1604e-05
6.1603e-05
6.91436e-05
1.46518e-05
5.06289e-05
3.7771e-05
1.46525e-05
5.06298e-05
3.77719e-05
6.99583e-05
5.7732e-05
6.99571e-05
5.7734e-05
6.15997e-05
6.16075e-05
6.91438e-05
6.91458e-05
6.91435e-05
6.91446e-05
2.30338e-05
6.16009e-05
6.16063e-05
6.91433e-05
6.91383e-05
6.91444e-05
6.91394e-05
2.30675e-05
6.16014e-05
6.16066e-05
6.15995e-05
6.16048e-05
5.7734e-05
6.99535e-05
5.77299e-05
6.99547e-05
3.77712e-05
5.06276e-05
1.46519e-05
1.82617e-05
3.77765e-05
5.06289e-05
1.46523e-05
3.77699e-05
5.06274e-05
1.46516e-05
1.82634e-05
3.77765e-05
5.06272e-05
1.46518e-05
5.77317e-05
6.9958e-05
6.99568e-05
5.77358e-05
5.77305e-05
6.99546e-05
6.99534e-05
5.77347e-05
3.77767e-05
1.82626e-05
5.06299e-05
1.46526e-05
5.06291e-05
1.46525e-05
3.77734e-05
3.7775e-05
1.82637e-05
5.06281e-05
1.46523e-05
5.06285e-05
1.4652e-05
3.77723e-05
6.16012e-05
6.15987e-05
2.30363e-05
6.16023e-05
6.16006e-05
6.91383e-05
6.91433e-05
6.91435e-05
6.91382e-05
2.30691e-05
6.16022e-05
6.16011e-05
6.16011e-05
6.15991e-05
6.91431e-05
6.91381e-05
3.77715e-05
1.46526e-05
1.82636e-05
3.77745e-05
5.06308e-05
1.46527e-05
5.77305e-05
6.99541e-05
5.77267e-05
6.99553e-05
3.77702e-05
1.46519e-05
5.06288e-05
1.82641e-05
3.77728e-05
1.46521e-05
5.06296e-05
5.77302e-05
6.99594e-05
6.99582e-05
5.7734e-05
3.77772e-05
1.82638e-05
5.06313e-05
1.4653e-05
5.06305e-05
1.46529e-05
3.77724e-05
5.77272e-05
6.99553e-05
6.9954e-05
5.7731e-05
3.77757e-05
1.82647e-05
1.46526e-05
5.06299e-05
1.46524e-05
5.06293e-05
3.77709e-05
5.77365e-05
6.99573e-05
5.77324e-05
6.99584e-05
3.77729e-05
1.46525e-05
5.06272e-05
1.8264e-05
3.77774e-05
1.46526e-05
5.06279e-05
5.77355e-05
6.99546e-05
5.77314e-05
6.99558e-05
3.7778e-05
1.82622e-05
5.06293e-05
1.46527e-05
5.06282e-05
1.46525e-05
3.7772e-05
5.7733e-05
6.99583e-05
6.99571e-05
5.77371e-05
3.77772e-05
1.82643e-05
1.46531e-05
5.06292e-05
1.46529e-05
5.06283e-05
3.77717e-05
5.7732e-05
6.99557e-05
6.99545e-05
5.77362e-05
6.16024e-05
6.16015e-05
2.3035e-05
6.1604e-05
6.16033e-05
6.91384e-05
6.91435e-05
6.91438e-05
6.91388e-05
2.30685e-05
6.16044e-05
6.16036e-05
6.16026e-05
6.16018e-05
6.91434e-05
6.91383e-05
3.77696e-05
1.46527e-05
5.06298e-05
1.82635e-05
3.77766e-05
1.46529e-05
5.0631e-05
5.77326e-05
6.99571e-05
5.77286e-05
6.99583e-05
5.77347e-05
6.99559e-05
5.77306e-05
6.9957e-05
3.77745e-05
1.82628e-05
1.46527e-05
5.0631e-05
1.46525e-05
5.06299e-05
3.77717e-05
3.77748e-05
1.82637e-05
1.46534e-05
5.06322e-05
1.46532e-05
5.06311e-05
3.7773e-05
5.77292e-05
6.99583e-05
6.9957e-05
5.77335e-05
5.77313e-05
6.99569e-05
6.99558e-05
5.77355e-05
6.91386e-05
6.91436e-05
6.91405e-05
6.91456e-05
2.30818e-05
6.16001e-05
6.1608e-05
6.15983e-05
6.16063e-05
6.91434e-05
6.91383e-05
6.91454e-05
6.91403e-05
6.91381e-05
6.91431e-05
6.91392e-05
6.91443e-05
6.15999e-05
6.1605e-05
2.30473e-05
6.16018e-05
6.1607e-05
6.91431e-05
6.91379e-05
6.91442e-05
6.91391e-05
2.30782e-05
6.16022e-05
6.16074e-05
6.16003e-05
6.16055e-05
5.77353e-05
6.99533e-05
5.77312e-05
6.99546e-05
3.77736e-05
5.06298e-05
1.46528e-05
1.8264e-05
3.77786e-05
5.06306e-05
1.4653e-05
3.77729e-05
5.06293e-05
1.46524e-05
1.82649e-05
3.77784e-05
5.06284e-05
1.46526e-05
5.77329e-05
6.99579e-05
6.99567e-05
5.77369e-05
5.77317e-05
6.99546e-05
6.99533e-05
5.77358e-05
3.77789e-05
1.82643e-05
5.06311e-05
1.46534e-05
5.06304e-05
1.46532e-05
3.77746e-05
3.77776e-05
1.82649e-05
5.06288e-05
1.46531e-05
5.06295e-05
1.46529e-05
3.77733e-05
6.1601e-05
6.15996e-05
2.30487e-05
6.16022e-05
6.16014e-05
6.9138e-05
6.9143e-05
6.91433e-05
6.91378e-05
2.30794e-05
6.16022e-05
6.16016e-05
6.1601e-05
6.15999e-05
6.91429e-05
6.91378e-05
3.77718e-05
5.0631e-05
1.46532e-05
1.82644e-05
3.77775e-05
5.06319e-05
1.46533e-05
5.77317e-05
6.9954e-05
5.77278e-05
6.99552e-05
3.77699e-05
1.46528e-05
5.06297e-05
1.82657e-05
3.77753e-05
1.4653e-05
5.06306e-05
5.77312e-05
6.99593e-05
6.99581e-05
5.77353e-05
3.77765e-05
1.82644e-05
5.06324e-05
1.46537e-05
5.06316e-05
1.46536e-05
3.77731e-05
5.77285e-05
6.99552e-05
6.99539e-05
5.77323e-05
3.77752e-05
1.82657e-05
1.46534e-05
5.0631e-05
1.46533e-05
5.06304e-05
3.7773e-05
5.77377e-05
6.9957e-05
5.77337e-05
6.99582e-05
3.77761e-05
1.46533e-05
5.06294e-05
1.82656e-05
3.77776e-05
1.46535e-05
5.06297e-05
5.77367e-05
6.99544e-05
5.77327e-05
6.99555e-05
3.77814e-05
1.82637e-05
5.06304e-05
1.46536e-05
5.06297e-05
1.46534e-05
3.7775e-05
5.77342e-05
6.99581e-05
6.99569e-05
5.77379e-05
3.77811e-05
1.82659e-05
1.46539e-05
5.06301e-05
1.46537e-05
5.06297e-05
3.77742e-05
5.77332e-05
6.99555e-05
6.99543e-05
5.7737e-05
6.1603e-05
6.16021e-05
2.30468e-05
6.1605e-05
6.16039e-05
6.91382e-05
6.91434e-05
6.91437e-05
6.91385e-05
2.30774e-05
6.16058e-05
6.16041e-05
6.16037e-05
6.16023e-05
6.91433e-05
6.91381e-05
3.77736e-05
1.46536e-05
5.06319e-05
1.82651e-05
3.77788e-05
1.46538e-05
5.06327e-05
5.77343e-05
6.9957e-05
5.77301e-05
6.99582e-05
5.77359e-05
6.99556e-05
5.7732e-05
6.99568e-05
3.77778e-05
1.82642e-05
1.46538e-05
5.06321e-05
1.46535e-05
5.06316e-05
3.77734e-05
3.77781e-05
1.82653e-05
1.46542e-05
5.06331e-05
1.4654e-05
5.06324e-05
3.77746e-05
5.77309e-05
6.99582e-05
6.9957e-05
5.7735e-05
5.77323e-05
6.99567e-05
6.99555e-05
5.77362e-05
6.91381e-05
6.91432e-05
6.91402e-05
6.91452e-05
2.30877e-05
6.16003e-05
6.16082e-05
6.15986e-05
6.16066e-05
6.91431e-05
6.9138e-05
6.91451e-05
6.914e-05
6.91379e-05
6.9143e-05
6.9139e-05
6.91442e-05
6.16007e-05
6.16059e-05
2.30473e-05
6.16024e-05
6.16079e-05
6.91431e-05
6.91379e-05
6.91443e-05
6.91391e-05
2.30835e-05
6.16025e-05
6.16085e-05
6.16009e-05
6.16064e-05
5.77361e-05
6.99533e-05
5.77322e-05
6.99547e-05
3.77744e-05
5.06308e-05
1.46535e-05
1.82654e-05
3.77795e-05
5.06314e-05
1.46536e-05
3.77737e-05
5.063e-05
1.46533e-05
1.82657e-05
3.7779e-05
5.06289e-05
1.46534e-05
5.77336e-05
6.9958e-05
6.99567e-05
5.77373e-05
5.77324e-05
6.99549e-05
6.99535e-05
5.77361e-05
3.77797e-05
1.82654e-05
5.06314e-05
1.46535e-05
5.0631e-05
1.46536e-05
3.77748e-05
3.77785e-05
1.82657e-05
5.06292e-05
1.46533e-05
5.06295e-05
1.46534e-05
3.77735e-05
6.16011e-05
6.16e-05
2.30501e-05
6.16023e-05
6.16016e-05
6.91377e-05
6.91428e-05
6.91433e-05
6.91378e-05
2.30864e-05
6.16025e-05
6.16017e-05
6.16012e-05
6.16e-05
6.91428e-05
6.91377e-05
3.77737e-05
5.0632e-05
1.46538e-05
1.82648e-05
3.77792e-05
5.06323e-05
1.46538e-05
5.77326e-05
6.9954e-05
5.7729e-05
6.99554e-05
3.77711e-05
1.46536e-05
5.06306e-05
1.82666e-05
3.77781e-05
1.46536e-05
5.06309e-05
5.77321e-05
6.99596e-05
6.99582e-05
5.77359e-05
3.77776e-05
1.82648e-05
5.06329e-05
1.46538e-05
5.06319e-05
1.46539e-05
3.77724e-05
5.77292e-05
6.99556e-05
6.99541e-05
5.77326e-05
3.77754e-05
1.82666e-05
1.46535e-05
5.06321e-05
1.46537e-05
5.0631e-05
3.77717e-05
5.7738e-05
6.99569e-05
5.77343e-05
6.99581e-05
3.77766e-05
1.46542e-05
5.06302e-05
1.82667e-05
3.77789e-05
1.46543e-05
5.06301e-05
5.7737e-05
6.99542e-05
5.77334e-05
6.99555e-05
3.77815e-05
1.82646e-05
5.06303e-05
1.4654e-05
5.06302e-05
1.4654e-05
3.77749e-05
5.77343e-05
6.99582e-05
6.99569e-05
5.77376e-05
3.77815e-05
1.82668e-05
1.46543e-05
5.06294e-05
1.46543e-05
5.06299e-05
3.77741e-05
5.77333e-05
6.99556e-05
6.99542e-05
5.77367e-05
6.16044e-05
6.16025e-05
2.30516e-05
6.16065e-05
6.16041e-05
6.91381e-05
6.91434e-05
6.9144e-05
6.91387e-05
2.30872e-05
6.16074e-05
6.16044e-05
6.16052e-05
6.16026e-05
6.91435e-05
6.91382e-05
3.77747e-05
1.46544e-05
5.06327e-05
1.82661e-05
3.77803e-05
1.46545e-05
5.0633e-05
5.77353e-05
6.9957e-05
5.77314e-05
6.99583e-05
5.7736e-05
6.99555e-05
5.77325e-05
6.99567e-05
3.77785e-05
1.82651e-05
1.4654e-05
5.06315e-05
1.46541e-05
5.06315e-05
3.77721e-05
3.77788e-05
1.82662e-05
1.46544e-05
5.06327e-05
1.46545e-05
5.06325e-05
3.7773e-05
5.77316e-05
6.99584e-05
6.9957e-05
5.77351e-05
5.77322e-05
6.99567e-05
6.99554e-05
5.77355e-05
6.91379e-05
6.91431e-05
6.914e-05
6.91451e-05
2.30845e-05
6.16005e-05
6.16083e-05
6.15988e-05
6.16067e-05
6.91431e-05
6.91379e-05
6.91451e-05
6.91399e-05
6.91379e-05
6.91432e-05
6.91392e-05
6.91444e-05
6.1601e-05
6.16071e-05
2.30419e-05
6.16027e-05
6.16092e-05
6.91433e-05
6.9138e-05
6.91445e-05
6.91393e-05
2.30773e-05
6.1603e-05
6.16096e-05
6.16011e-05
6.16078e-05
5.77359e-05
6.99537e-05
5.77324e-05
6.9955e-05
3.77739e-05
5.0631e-05
1.46534e-05
1.82652e-05
3.77795e-05
5.06311e-05
1.46532e-05
3.77733e-05
5.06306e-05
1.46532e-05
1.82656e-05
3.77789e-05
5.06313e-05
1.4653e-05
5.77332e-05
6.99583e-05
6.99569e-05
5.77365e-05
5.7732e-05
6.99549e-05
6.99538e-05
5.77353e-05
3.77787e-05
1.82652e-05
5.06319e-05
1.46529e-05
5.06309e-05
1.4653e-05
3.77705e-05
3.77779e-05
1.82656e-05
5.06309e-05
1.46528e-05
5.06326e-05
1.46529e-05
3.77699e-05
6.16014e-05
6.16001e-05
2.30418e-05
6.16028e-05
6.16019e-05
6.91377e-05
6.91429e-05
6.91434e-05
6.91378e-05
2.30825e-05
6.16028e-05
6.16022e-05
6.16016e-05
6.16004e-05
6.9143e-05
6.91378e-05
3.77717e-05
5.06332e-05
1.46536e-05
1.82644e-05
3.77783e-05
5.0635e-05
1.46533e-05
5.77324e-05
6.99544e-05
5.77292e-05
6.99557e-05
3.77677e-05
1.46534e-05
5.06327e-05
1.82665e-05
3.77764e-05
1.46531e-05
5.06343e-05
5.7732e-05
6.99598e-05
6.99586e-05
5.77357e-05
3.77752e-05
1.82644e-05
5.06352e-05
1.4653e-05
5.06349e-05
1.46532e-05
3.77677e-05
5.7729e-05
6.99557e-05
6.99544e-05
5.77325e-05
3.77715e-05
1.82665e-05
1.46529e-05
5.06331e-05
1.46531e-05
5.06341e-05
3.77663e-05
5.77371e-05
6.99569e-05
5.77339e-05
6.99583e-05
3.77736e-05
1.46541e-05
5.06294e-05
1.82665e-05
3.77784e-05
1.46539e-05
5.06303e-05
5.77361e-05
6.99543e-05
5.77329e-05
6.99558e-05
3.77778e-05
1.82646e-05
5.06316e-05
1.46533e-05
5.06305e-05
1.46535e-05
3.77694e-05
5.77333e-05
6.99585e-05
6.99571e-05
5.77366e-05
3.77776e-05
1.82665e-05
1.46536e-05
5.06322e-05
1.46538e-05
5.06308e-05
3.77691e-05
5.77323e-05
6.99559e-05
6.99546e-05
5.77357e-05
6.16061e-05
6.16029e-05
2.30425e-05
6.16081e-05
6.16048e-05
6.91383e-05
6.91436e-05
6.91443e-05
6.9139e-05
2.30829e-05
6.16084e-05
6.16051e-05
6.16068e-05
6.16033e-05
6.91437e-05
6.91384e-05
3.77686e-05
1.46542e-05
5.06322e-05
1.82659e-05
3.77773e-05
1.4654e-05
5.06327e-05
5.7735e-05
6.99572e-05
5.77314e-05
6.99586e-05
5.77351e-05
6.99555e-05
5.77317e-05
6.99569e-05
3.77721e-05
1.8265e-05
1.46534e-05
5.06343e-05
1.46535e-05
5.06332e-05
3.7767e-05
3.77727e-05
1.82659e-05
1.46537e-05
5.06339e-05
1.46539e-05
5.06327e-05
3.77676e-05
5.77314e-05
6.99587e-05
6.99573e-05
5.77353e-05
5.77314e-05
6.9957e-05
6.99557e-05
5.77352e-05
6.9138e-05
6.91432e-05
6.914e-05
6.91452e-05
2.30744e-05
6.16012e-05
6.16089e-05
6.15993e-05
6.1607e-05
6.91433e-05
6.91381e-05
6.91454e-05
6.91401e-05
6.91382e-05
6.91434e-05
6.91393e-05
6.91445e-05
6.16014e-05
6.1608e-05
2.30439e-05
6.16032e-05
6.16097e-05
6.91434e-05
6.91382e-05
6.91446e-05
6.91394e-05
2.30747e-05
6.16034e-05
6.161e-05
6.16017e-05
6.16082e-05
5.77352e-05
6.99536e-05
5.77316e-05
6.99548e-05
3.77678e-05
5.0632e-05
1.46528e-05
1.82651e-05
3.77743e-05
5.06333e-05
1.46528e-05
3.77669e-05
5.06309e-05
1.46527e-05
1.82652e-05
3.77739e-05
5.06287e-05
1.46527e-05
5.77328e-05
6.99584e-05
6.99572e-05
5.77366e-05
5.77315e-05
6.99548e-05
6.99535e-05
5.77354e-05
3.7773e-05
1.82651e-05
5.06328e-05
1.46528e-05
5.0633e-05
1.46528e-05
3.77688e-05
3.77721e-05
1.82653e-05
5.06293e-05
1.46526e-05
5.06293e-05
1.46526e-05
3.77677e-05
6.16015e-05
6.16008e-05
2.30353e-05
6.16027e-05
6.16024e-05
6.91379e-05
6.91431e-05
6.91434e-05
6.91379e-05
2.30736e-05
6.1603e-05
6.16024e-05
6.16015e-05
6.1601e-05
6.91431e-05
6.91379e-05
3.77685e-05
5.06345e-05
1.4653e-05
1.82639e-05
3.7773e-05
5.06338e-05
1.46529e-05
5.77329e-05
6.99544e-05
5.77292e-05
6.99557e-05
3.77669e-05
1.46528e-05
5.06325e-05
1.82661e-05
3.77713e-05
1.46528e-05
5.06323e-05
5.77324e-05
6.99597e-05
6.99584e-05
5.77364e-05
3.77733e-05
1.82638e-05
5.06341e-05
1.46528e-05
5.06333e-05
1.46529e-05
3.77686e-05
5.77296e-05
6.99558e-05
6.99544e-05
5.77333e-05
3.7772e-05
1.82661e-05
1.46527e-05
5.06333e-05
1.46528e-05
5.06324e-05
3.77686e-05
5.77366e-05
6.99573e-05
5.77329e-05
6.99585e-05
3.77684e-05
1.46535e-05
5.06324e-05
1.82662e-05
3.77732e-05
1.46534e-05
5.06314e-05
5.77357e-05
6.99547e-05
5.77319e-05
6.99558e-05
3.77738e-05
1.82643e-05
5.06313e-05
1.46531e-05
5.06321e-05
1.46532e-05
3.77706e-05
5.77329e-05
6.99585e-05
6.99573e-05
5.77367e-05
3.77737e-05
1.82661e-05
1.46534e-05
5.06299e-05
1.46534e-05
5.06308e-05
3.77706e-05
5.7732e-05
6.99558e-05
6.99545e-05
5.77358e-05
6.1607e-05
6.16035e-05
2.30365e-05
6.16087e-05
6.16051e-05
6.91385e-05
6.91437e-05
6.91447e-05
6.91392e-05
2.30729e-05
6.16091e-05
6.16053e-05
6.16073e-05
6.16036e-05
6.91438e-05
6.91385e-05
3.77694e-05
1.46536e-05
5.0634e-05
1.82655e-05
3.77727e-05
1.46536e-05
5.06347e-05
5.7736e-05
6.99574e-05
5.77318e-05
6.99586e-05
5.77356e-05
6.99558e-05
5.77316e-05
6.99571e-05
3.77748e-05
1.82647e-05
1.46532e-05
5.06328e-05
1.46532e-05
5.06321e-05
3.77716e-05
3.77752e-05
1.82654e-05
1.46535e-05
5.06333e-05
1.46536e-05
5.06342e-05
3.7772e-05
5.77324e-05
6.99587e-05
6.99573e-05
5.77363e-05
5.7732e-05
6.9957e-05
6.99558e-05
5.77357e-05
6.91381e-05
6.91433e-05
6.91402e-05
6.91454e-05
2.30743e-05
6.16012e-05
6.16093e-05
6.15996e-05
6.16076e-05
6.91434e-05
6.91381e-05
6.91455e-05
6.91403e-05
6.91383e-05
6.91435e-05
6.91394e-05
6.91446e-05
6.16018e-05
6.16085e-05
2.30487e-05
6.16034e-05
6.16103e-05
6.91436e-05
6.91383e-05
6.91447e-05
6.91395e-05
2.30802e-05
6.16035e-05
6.16105e-05
6.16019e-05
6.16088e-05
5.77357e-05
6.99536e-05
5.77318e-05
6.99548e-05
3.77723e-05
5.06323e-05
1.46528e-05
1.82655e-05
3.77744e-05
5.06325e-05
1.46528e-05
3.7771e-05
5.06306e-05
1.46526e-05
1.82652e-05
3.77734e-05
5.06304e-05
1.46526e-05
5.77333e-05
6.99583e-05
6.99571e-05
5.77367e-05
5.7732e-05
6.99547e-05
6.99535e-05
5.77356e-05
3.77779e-05
1.8266e-05
3.57124e-05
1.46528e-05
5.06328e-05
1.46528e-05
2.57126e-05
3.7777e-05
1.82653e-05
2.95279e-05
1.46526e-05
5.06311e-05
1.46526e-05
2.57113e-05
6.16017e-05
6.16011e-05
2.30376e-05
6.16032e-05
6.16026e-05
6.9138e-05
6.91432e-05
6.91435e-05
6.9138e-05
2.30711e-05
6.16033e-05
6.16026e-05
6.16018e-05
6.16013e-05
6.91433e-05
6.9138e-05
3.7771e-05
5.06338e-05
1.46528e-05
1.82638e-05
3.77744e-05
5.06344e-05
1.46528e-05