/*--------------------------------*- C++ -*----------------------------------*\
| =========                 |                                                 |
| \\      /  F ield         | OpenFOAM: The Open Source CFD Toolbox           |
|  \\    /   O peration     | Version:  v2006                                 |
|   \\  /    A nd           | Website:  www.openfoam.com                      |
|    \\/     M anipulation  |                                                 |
\*---------------------------------------------------------------------------*/
FoamFile
{
    version     2.0;
    format      ascii;
    class       surfaceScalarField;
    location    "125";
    object      phi;
}
// * * * * * * * * * * * * * * * * * * * * * * * * * * * * * * * * * * * * * //

dimensions      [0 3 -1 0 0 0 0];
oriented        oriented;


internalField   nonuniform List<scalar> 
41407
(
-1.25612e-06
1.8503e-07
-2.77437e-07
1.36534e-06
2.92467e-07
9.43431e-07
-2.74843e-07
2.62637e-07
-0.00114453
1.6148e-07
-9.42625e-07
-1.36342e-06
-1.65423e-07
-1.56193e-07
-3.02387e-07
1.24981e-06
2.7302e-07
-2.72331e-07
-9.4558e-07
9.45764e-07
2.6519e-07
-0.00114418
-2.61088e-07
-2.84115e-07
0.000273612
-0.000275686
5.34199e-09
-0.00116416
-2.80517e-08
4.37358e-09
1.56004e-08
9.78789e-05
-9.78989e-05
-1.60298e-08
-3.68722e-08
1.39493e-07
0.000248772
-0.000248865
6.19677e-09
3.91967e-08
-5.61561e-09
0.000194301
-0.000194331
5.17765e-08
-2.02651e-08
5.71287e-10
0.000232494
-2.37372e-10
-0.000232526
1.71971e-08
-8.5775e-07
-1.03719e-06
1.04124e-06
8.59089e-07
-0.0011525
-7.24645e-10
-1.59766e-08
1.34728e-07
6.14486e-09
0.000248677
-0.000248763
2.22846e-07
2.37396e-10
0.000255961
-0.000256131
-1.44224e-09
3.64646e-08
-8.88004e-09
0.000280262
-0.00028029
-1.33098e-08
4.10479e-08
-8.34486e-09
0.00028038
-0.000280415
4.39319e-09
9.7894e-05
-9.79117e-05
0.000194356
-0.000194383
-5.48325e-09
-1.89468e-08
-6.5937e-10
4.9116e-08
0.000264782
-0.000264818
-1.46568e-09
7.91629e-05
-7.91804e-05
1.46444e-09
0.000171525
-2.8977e-11
-0.000171547
-2.00261e-08
5.33715e-08
0.000225756
-0.000225789
0.000143576
-0.000143596
-2.89106e-08
8.15671e-08
3.94385e-08
0.000254787
-0.000254842
2.10228e-08
-6.28356e-09
0.000183913
-0.000183937
-1.58097e-08
4.68477e-08
0.000224507
-0.000224546
-2.52634e-08
-0.000224588
2.09666e-08
-4.73452e-08
1.50784e-08
0.000254945
-2.62401e-08
8.60319e-08
3.6948e-08
-0.000255001
2.2996e-08
0.000183974
-6.25285e-09
-0.000183999
-3.36639e-08
9.43481e-09
1.12996e-08
-1.73311e-08
-8.16231e-08
-3.28974e-08
-1.57383e-08
4.90487e-08
-0.000224625
6.83711e-09
7.34226e-09
8.07757e-05
-8.07893e-05
7.35768e-09
8.07922e-05
-8.08058e-05
0.000215317
-0.000215334
-6.40892e-09
-1.04331e-09
-3.23284e-08
-4.96473e-08
1.88413e-08
-0.000264916
-3.18206e-09
-1.50003e-07
-0.000247074
-1.32729e-07
5.19929e-08
-1.44823e-07
0.000266323
-0.00026666
0.000265953
-1.34541e-07
-0.000266294
2.63246e-07
2.89124e-07
-0.000247257
8.61871e-08
2.17269e-09
-0.00117371
-1.99554e-07
6.30919e-09
2.21684e-07
-0.000269976
1.68851e-09
0.000265527
1.12692e-08
-0.000265637
-1.29127e-07
-1.08329e-08
-0.000255134
-4.75491e-09
1.12963e-08
0.000265433
-0.000265542
2.19619e-07
1.54658e-09
0.000255032
-0.000255198
1.66584e-09
0.000269901
-0.000270617
6.9493e-10
0.000272027
-0.000272659
-3.16867e-09
2.39612e-07
0.000254686
-0.00025487
0.000271604
-0.000272399
-5.43195e-08
-0.000232537
1.92651e-08
9.47647e-10
6.44139e-09
-3.2192e-08
-1.20208e-09
-0.000194376
6.48568e-09
-3.22307e-08
-0.00019435
-1.12578e-08
-9.7904e-05
-1.11871e-08
-9.789e-05
-1.3403e-06
-1.2916e-06
-0.000273629
2.73425e-07
2.81541e-07
-1.73326e-08
8.88263e-09
-0.000280377
-3.59067e-08
-1.49589e-08
8.93578e-09
-0.000280301
-3.58211e-08
-0.000255994
-8.60633e-11
-2.26064e-07
2.86943e-08
-1.32716e-06
2.89631e-07
-2.91316e-07
-9.48412e-07
2.59564e-07
-2.7513e-07
9.45929e-07
-0.0011441
-1.09221e-08
-0.000248779
-1.28879e-07
-1.04007e-06
8.56367e-07
-8.57694e-07
1.0416e-06
-0.00115262
-1.28977e-06
2.78614e-07
-2.88505e-07
2.59809e-07
-2.69591e-07
-0.00114499
-0.000248734
-1.29054e-07
-1.49116e-09
1.80517e-08
0.000143654
1.45704e-09
-0.000143672
-1.82303e-08
8.0151e-11
5.17965e-08
-0.000232571
-0.000171568
-3.60222e-10
-0.00022586
1.92176e-08
3.31728e-09
-5.70494e-08
-0.000171588
-1.47451e-09
5.33431e-08
-0.000225894
8.96832e-10
1.89697e-08
7.92087e-05
-7.92263e-05
-0.000264907
1.66092e-08
-4.96158e-08
-5.64822e-09
-4.34074e-09
3.70031e-08
-0.000194403
4.89608e-08
-0.000264944
-4.29365e-09
3.69782e-08
-0.000194377
-6.50103e-09
-1.34054e-08
1.33565e-08
-9.79217e-05
1.33889e-08
-9.79077e-05
-7.32742e-09
-7.35189e-09
0.000215322
1.35356e-08
1.56556e-08
-0.000215337
-8.07942e-05
-6.81179e-09
-6.79186e-09
-8.07761e-05
-6.74099e-09
-6.86269e-09
6.26552e-09
-8.08078e-05
6.23314e-09
-8.07897e-05
-1.29389e-08
-1.51606e-08
-2.29932e-08
0.000224592
2.63052e-08
4.64907e-08
-0.000224628
-0.000183977
-2.29683e-08
-8.34822e-09
3.88258e-08
1.60308e-08
-0.000280411
2.27026e-08
-0.000254936
-8.14636e-08
-3.27932e-08
-0.000184002
-4.95211e-08
8.37821e-08
3.95863e-08
-0.000254994
-2.32062e-08
0.000224518
3.12526e-08
4.44077e-08
-0.000224554
-0.000183913
-2.29795e-08
-1.09326e-08
3.87866e-08
1.35636e-08
-0.000280329
2.27395e-08
-0.000254826
-8.37864e-08
-2.7744e-08
-0.000183941
-4.97761e-08
8.14406e-08
3.6766e-08
-0.000254874
-1.66279e-08
-8.51288e-10
-1.16753e-09
-3.44659e-08
-3.3017e-09
-4.96471e-08
3.69473e-10
-2.12205e-08
2.1277e-08
1.1735e-09
-5.4203e-08
8.55892e-11
-9.93617e-13
-5.69549e-08
2.29919e-08
-2.26798e-08
1.29717e-08
8.89976e-09
-3.57003e-08
-1.48548e-08
6.82198e-09
-2.77005e-08
6.78585e-09
6.76741e-09
0.000247085
1.34467e-07
1.42209e-07
-0.00024727
-2.73863e-07
-2.68692e-07
-0.000275703
1.40029e-07
-0.000265941
1.37688e-07
-0.000266368
-0.000266288
-0.000266702
-2.37023e-07
2.02769e-09
0.00027167
-4.45226e-09
-0.000272471
-1.22213e-09
2.22802e-07
-0.000256163
-0.000254779
-2.40462e-07
4.90192e-09
-0.000272048
-4.17607e-09
-3.98743e-09
-0.00025496
-0.00027268
-1.67378e-09
-2.22216e-07
-1.13247e-08
0.000269974
-0.000270694
-0.000255136
-2.21525e-07
6.09829e-09
1.37261e-07
-0.000248869
-0.000265521
-3.5798e-09
-0.000255307
-0.000265631
1.37152e-07
-0.000248829
-0.000265502
-0.000265612
2.21488e-07
8.98574e-09
-1.14761e-08
-1.08858e-08
-1.26583e-07
-7.26962e-09
-1.23947e-09
2.42903e-07
-2.23384e-07
1.79021e-09
2.63137e-10
8.39256e-10
-1.27729e-06
-1.37435e-06
0.000275728
-0.000273637
2.94416e-07
2.66101e-07
-1.82147e-07
-0.00114412
-1.1127e-07
-1.35772e-06
2.75728e-07
-3.02449e-07
-9.43235e-07
2.64947e-07
-2.67098e-07
9.45668e-07
0.00114452
0.00114451
1.1838e-07
-0.00114498
2.27672e-07
-1.25071e-06
2.9812e-07
-2.74589e-07
-9.50939e-07
2.5982e-07
-2.77807e-07
9.48919e-07
1.3272e-06
-2.70839e-07
-2.6884e-07
0.000273643
1.29764e-06
-2.88297e-07
1.33546e-06
2.84227e-07
9.48771e-07
-2.72376e-07
-9.48396e-07
2.62512e-07
-3.94706e-09
6.83397e-09
0.00114451
-0.00116441
5.77665e-08
2.25297e-08
0.00116427
-0.000194376
-4.43659e-09
3.6978e-08
-5.48795e-09
0.000194349
-1.12826e-08
-6.41414e-09
9.79212e-05
-9.79035e-05
1.33934e-08
4.34257e-09
9.79036e-05
-1.13011e-08
-6.38693e-09
9.79076e-05
-9.78899e-05
1.57935e-08
4.41552e-09
9.78899e-05
1.33251e-06
1.29251e-06
0.000273629
-2.71448e-07
-2.79182e-07
-1.48923e-08
0.000280408
-3.35721e-08
-0.000280383
1.19844e-08
-1.73766e-08
0.000280326
-3.13781e-08
-0.000280298
9.43073e-09
1.36573e-08
-8.22874e-09
3.6418e-08
0.00028038
1.57431e-08
-8.36395e-09
4.3743e-08
0.000280301
-6.64281e-11
5.18202e-08
-1.82345e-08
5.6332e-10
0.000232537
-3.2134e-08
-0.000194377
-1.2003e-09
0.000194404
3.70153e-08
-5.58692e-09
0.000194373
-3.62514e-10
-5.4282e-08
-0.000232537
1.92678e-08
1.43903e-09
0.000232571
5.18006e-08
-1.82154e-08
2.65252e-10
0.000232497
3.91179e-08
-4.35151e-09
-5.59354e-09
0.000194313
-5.4311e-08
-0.000232497
1.92824e-08
8.51262e-10
0.000232531
5.46547e-10
1.05596e-09
2.25433e-07
0.000255991
-1.56894e-08
-3.41131e-09
1.33467e-06
-2.88638e-07
2.86689e-07
9.45716e-07
-2.69725e-07
2.62238e-07
-9.432e-07
-1.28863e-07
-0.000248776
-1.08868e-08
0.000248869
-0.00115263
-5.14412e-08
2.29214e-08
-1.0373e-06
8.59139e-07
-8.57725e-07
1.0415e-06
0.00115254
6.15026e-09
1.32397e-07
0.000248776
-1.11063e-08
6.0959e-09
1.0416e-06
-8.54946e-07
-1.03459e-06
8.59151e-07
-1.90865e-09
-0.000255993
1.1839e-09
-2.26043e-07
0.000256166
-7.77947e-10
2.25403e-07
0.000255966
1.73893e-08
-1.32484e-06
-4.95907e-09
9.48606e-07
-2.72307e-07
-9.4549e-07
2.62395e-07
1.33183e-06
-2.91452e-07
2.8669e-07
0.00114417
-0.00115258
6.16981e-09
-1.03994e-06
8.59117e-07
-8.57719e-07
1.04418e-06
-2.29074e-08
0.00115254
-1.34878e-08
8.54072e-09
1.34726e-07
0.00024868
6.26093e-09
1.04421e-06
-8.5772e-07
-1.03715e-06
8.59124e-07
-0.000255965
7.83357e-10
-2.28673e-07
0.000256137
1.54926e-08
9.78833e-05
1.28965e-06
0.000273623
-2.68924e-07
-2.73885e-07
-1.09451e-08
3.87387e-08
0.000280261
-1.34441e-08
1.35122e-08
-8.68813e-09
3.65125e-08
0.000280387
4.26098e-09
9.78964e-05
5.18473e-08
1.32611e-10
3.611e-10
-2.03909e-08
0.000232532
-0.000232564
-3.22931e-08
-0.000194349
-1.07336e-09
4.165e-08
-6.16506e-09
0.000194352
-5.42889e-08
-5.66053e-12
-0.000232533
9.9494e-10
1.92545e-08
0.000232567
1.63245e-09
1.62081e-10
2.25508e-07
0.000255984
-0.00025616
6.34257e-09
1.79702e-08
1.29725e-06
-2.9133e-07
2.81528e-07
9.43459e-07
-2.80499e-07
2.57124e-07
-9.53497e-07
0.000248822
-1.26592e-07
-0.000248734
-1.09154e-08
-0.00115249
6.07408e-08
-1.19456e-08
-1.03998e-06
8.59155e-07
-8.57697e-07
1.04432e-06
0.00115266
5.99669e-09
1.44737e-07
0.000248741
8.38665e-09
2.23704e-08
1.03864e-06
-8.60418e-07
-1.0427e-06
8.56396e-07
-0.00115251
-4.78726e-10
-0.000255985
-6.15846e-10
-2.23412e-07
0.000256155
5.43015e-08
-2.24277e-08
1.93262e-10
0.000232494
-0.000232526
3.92595e-08
-4.48354e-09
-5.53911e-09
0.000194301
-0.00019433
-5.42281e-08
-0.000232494
2.12747e-08
1.27259e-09
0.000232526
2.25504e-07
-2.8744e-10
0.000255961
-0.00025613
6.3735e-09
-1.3248e-06
-4.9658e-09
9.43126e-07
-2.69605e-07
-9.42785e-07
2.59721e-07
1.33189e-06
-2.9142e-07
2.86718e-07
-0.00114411
0.00114412
-0.00115248
1.21303e-08
-1.03717e-06
8.59119e-07
-8.57772e-07
1.04141e-06
-1.22398e-09
0.00115252
1.18366e-08
1.03867e-06
-8.60501e-07
-1.03714e-06
8.56372e-07
-0.00115247
-1.60794e-08
6.18404e-09
1.37262e-07
0.000248674
-0.000248762
-0.000255961
-2.23403e-07
2.00618e-09
0.000256128
-4.92548e-08
1.6666e-09
2.7915e-10
2.22775e-07
0.000255987
1.14967e-08
-5.39816e-09
1.29682e-06
-2.82961e-07
2.78641e-07
9.406e-07
-2.69474e-07
-9.39992e-07
2.59855e-07
0.00114467
-3.69667e-08
6.09861e-09
1.34759e-07
0.00024878
2.51769e-09
1.15092e-08
1.03863e-06
-8.54804e-07
-1.03436e-06
8.5636e-07
0.00115239
1.07165e-10
4.32967e-10
-1.82082e-08
0.000232537
-5.66632e-09
0.000194361
-4.93068e-08
2.22884e-07
-2.68555e-10
0.000255962
1.21126e-08
-1.31892e-06
-5.28011e-09
9.43077e-07
-2.72236e-07
-9.42754e-07
2.6242e-07
1.32615e-06
-2.859e-07
2.80973e-07
0.00114375
1.15014e-08
1.03862e-06
-8.54934e-07
-1.03439e-06
8.5629e-07
0.00115234
-3.6959e-08
-1.60611e-08
6.12901e-09
1.37194e-07
0.000248713
-1.8233e-08
2.80061e-10
0.000232498
-4.38162e-09
-5.52659e-09
0.00019431
1.56717e-08
9.78785e-05
-9.78987e-05
1.28693e-06
0.000273614
-2.66343e-07
-2.73854e-07
-0.000275686
-8.98366e-09
3.65157e-08
0.000280262
-0.00028029
-1.34494e-08
1.59916e-08
-8.23519e-09
3.88623e-08
0.000280381
-0.000280414
4.26981e-09
9.78935e-05
-9.79113e-05
8.64581e-10
-5.18193e-08
2.22884e-07
5.18487e-10
0.000255984
-0.000256156
1.16118e-08
-5.53771e-09
1.29406e-06
-2.85771e-07
2.81383e-07
9.43263e-07
-2.72205e-07
-9.42668e-07
2.62609e-07
-0.00114459
0.00114459
5.08297e-09
6.04652e-09
1.03856e-06
-8.5495e-07
-1.03451e-06
8.56273e-07
0.00115229
-0.00115229
-3.69724e-08
6.13677e-09
1.34745e-07
0.000248777
-0.000248865
-5.18501e-08
2.22885e-07
-7.82147e-10
0.000255956
-0.000256125
1.1366e-08
-1.27859e-06
-5.99941e-09
9.43154e-07
-2.72124e-07
-9.42412e-07
2.62657e-07
1.28585e-06
-2.82953e-07
2.78584e-07
0.00114476
5.85889e-09
1.03833e-06
-8.549e-07
-1.03419e-06
8.56252e-07
0.00115221
-0.00115221
-3.68965e-08
-1.35984e-08
6.13189e-09
1.37084e-07
0.000248679
-2.6543e-11
6.71079e-10
-2.03505e-08
0.000232534
-0.000232566
-5.65498e-09
0.000194356
-0.000194383
1.99662e-10
-1.82476e-08
0.000232494
-0.000232528
-4.36139e-09
-5.48965e-09
0.000194303
0.000273598
-2.63435e-07
-2.74009e-07
-1.3353e-08
-8.32407e-09
3.87933e-08
0.000280346
-1.33482e-08
-8.2915e-09
3.87209e-08
0.000280263
9.78855e-05
9.78795e-05
1.33314e-08
9.79034e-05
4.41449e-09
1.32669e-08
9.78899e-05
3.41264e-08
-1.149e-08
0.000280385
1.36627e-08
1.60324e-08
3.63052e-08
-8.82175e-09
0.000280296
1.37239e-07
6.09801e-09
0.000248731
1.89852e-08
7.92077e-05
-1.43703e-09
-0.000264911
1.6611e-08
0.000264943
-4.72635e-08
-3.30588e-09
5.15061e-08
-6.89835e-10
7.92252e-05
-8.79805e-10
-7.92076e-05
-1.67036e-08
-8.17527e-10
7.92251e-05
-1.89071e-08
0.000264908
-0.000264941
4.67316e-08
-6.50436e-10
-1.0353e-09
6.38094e-09
-3.22896e-08
0.000194376
-7.92251e-05
-1.38513e-09
-4.72577e-08
-3.21933e-09
0.000264941
-9.79213e-05
1.34401e-08
4.3642e-09
-1.12579e-08
-6.42935e-09
-9.79076e-05
1.32834e-08
4.40855e-09
-1.1189e-08
-6.44976e-09
-0.000215322
6.97925e-09
6.49634e-09
-1.29202e-08
-1.50805e-08
0.000215336
7.16104e-09
8.07911e-05
6.20532e-09
7.55577e-09
8.07784e-05
6.23509e-09
1.3437e-08
1.58122e-08
-6.80761e-09
8.08049e-05
-6.85542e-09
8.07917e-05
-2.11996e-08
3.12697e-08
0.000224591
-0.000224629
-1.57247e-08
4.43747e-08
-0.000254945
2.51589e-08
0.000255003
-8.6425e-08
-3.02003e-08
-1.14288e-08
3.65025e-08
-0.000280408
1.36057e-08
-0.000183973
-2.12815e-08
6.77394e-09
0.000184
-0.000184
-6.2749e-09
-0.000254996
7.92663e-08
3.94582e-08
1.50117e-08
0.000224629
-4.98049e-08
-2.30187e-08
2.39752e-08
0.00022452
-0.000224559
-1.35429e-08
5.11278e-08
-0.000254813
2.26522e-08
0.000254876
-8.16575e-08
-3.53996e-08
-8.34919e-09
3.87278e-08
-0.000280331
1.59801e-08
-0.000183918
-2.09369e-08
6.89649e-09
0.000183941
-0.000183943
-6.18299e-09
-0.000254876
8.82364e-08
3.70347e-08
1.30669e-08
0.000224561
-5.19865e-08
-0.000224588
2.32354e-08
-2.52855e-08
-5.17965e-08
2.29304e-08
0.000183972
-2.35745e-08
0.000254943
8.13574e-08
3.44098e-08
1.15552e-08
-3.58689e-08
-1.49014e-08
4.66365e-08
-8.38079e-08
-3.02508e-08
-0.000224525
2.09142e-08
-2.24801e-08
-4.74171e-08
2.30739e-08
0.00018392
-2.91899e-08
0.000254823
9.37395e-08
3.9647e-08
9.39468e-09
-3.34219e-08
-1.74545e-08
5.14172e-08
-7.87827e-08
-3.01982e-08
-7.16428e-09
-7.61532e-09
0.000215322
-8.07915e-05
-6.95127e-09
8.08052e-05
-8.07779e-05
-6.52584e-09
8.07914e-05
0.000215336
-0.000143654
3.67294e-10
-1.92342e-08
8.88205e-10
0.000143672
1.49126e-09
0.000171568
-4.9956e-11
-1.80557e-08
0.000225861
6.49174e-10
5.34352e-08
1.927e-08
1.40488e-09
0.000232571
-1.74338e-10
-5.42985e-08
1.43628e-09
0.000171588
-5.90431e-11
5.46908e-09
0.000225894
-5.69806e-08
7.92084e-05
1.89854e-08
-7.9226e-05
-1.44725e-09
-5.18543e-09
-0.000194403
3.48392e-08
1.66219e-08
-0.000264911
-3.34465e-09
-4.95931e-08
0.000264946
-8.94091e-10
7.92259e-05
-0.000264944
-6.70495e-10
4.67666e-08
-7.92085e-05
-1.66212e-08
-1.89548e-08
0.000264909
4.91402e-08
-3.7881e-09
-3.21147e-08
-4.92931e-08
0.000143654
-1.49529e-09
1.80731e-08
-1.82469e-08
3.74122e-10
-3.13781e-10
5.185e-08
-3.6488e-10
-0.000171568
-6.06714e-11
0.000171588
1.92335e-08
-0.000225859
-5.70125e-08
0.000225895
0.000143672
-6.25066e-11
5.34744e-08
-0.000143581
5.94259e-10
-1.92731e-08
8.51444e-10
0.000143599
1.43093e-09
0.000171533
-1.80222e-08
0.000225761
6.16745e-10
5.09137e-08
1.92847e-08
8.51938e-10
0.000232531
-5.43238e-08
1.39976e-09
0.000171553
3.18298e-09
0.000225794
-5.4621e-08
-7.91626e-05
-1.66438e-08
7.91801e-05
-1.89281e-08
0.000264783
4.66878e-08
-1.12204e-09
6.45265e-09
-3.44416e-08
0.000194342
-4.72444e-08
0.000264816
-1.44046e-09
1.80348e-08
0.000143581
1.41544e-09
-1.82296e-08
2.3026e-12
5.18281e-08
-0.000171533
-4.21091e-10
0.000171553
-0.000225761
1.92567e-08
-5.45977e-08
3.18697e-09
0.000225794
5.09266e-08
6.26824e-10
8.60187e-10
0.000143599
-1.3359e-08
9.79031e-05
-0.00021532
6.77038e-09
6.80364e-09
-1.50148e-08
-1.30435e-08
0.000215334
7.35768e-09
8.07782e-05
6.24562e-09
7.33951e-09
8.07893e-05
6.22199e-09
1.5778e-08
1.34573e-08
-6.71434e-09
8.07917e-05
-6.89586e-09
8.0803e-05
-2.50639e-08
-0.000224509
2.31249e-08
-4.96279e-08
0.000224546
2.31533e-08
0.000183912
0.000254777
-2.88337e-08
3.67795e-08
8.38904e-08
-3.56798e-08
1.13448e-08
-1.47304e-08
0.000280287
-3.02666e-08
-8.36738e-08
0.00025483
4.67167e-08
0.00018394
-0.000224586
2.09091e-08
-2.29557e-08
-4.93333e-08
0.000224624
2.11692e-08
0.000183969
-2.61278e-08
0.000254954
8.14343e-08
3.4147e-08
9.60278e-09
-3.34909e-08
1.1134e-08
-1.50331e-08
0.000280414
4.67799e-08
0.000183993
-8.12882e-08
-2.79078e-08
0.000255007
-6.52871e-09
9.79141e-05
-0.000143649
-1.92204e-08
3.7532e-10
8.73706e-10
0.000143667
-1.81018e-08
0.000225853
6.82241e-10
5.35179e-08
-0.000225889
1.49373e-09
0.000171562
-1.18665e-11
-0.000171584
1.22284e-09
1.92499e-08
0.000232566
2.70637e-11
-5.42731e-08
1.43142e-09
-0.000143667
3.29717e-09
0.000225886
-5.45042e-08
0.000171582
-5.99678e-12
7.92076e-05
1.89453e-08
-7.92252e-05
-1.41802e-09
-3.06212e-09
-0.000194379
3.69709e-08
1.66681e-08
-0.000264908
-3.26828e-09
-4.72285e-08
-8.50652e-10
-0.000264938
-6.9434e-10
4.66004e-08
-7.92076e-05
-1.66327e-08
-1.89752e-08
0.000264905
5.15965e-08
-1.18834e-09
-3.22021e-08
-4.72148e-08
0.000143649
1.80943e-08
-1.32161e-09
-3.04619e-10
-1.82423e-08
2.03255e-10
5.18472e-08
1.92267e-08
-0.000225852
-5.45263e-08
0.000225886
-3.96811e-10
-0.000171562
2.93717e-11
0.000171582
0.000143667
5.10246e-08
3.17016e-11
-0.000143575
4.04477e-10
-2.12346e-08
8.17482e-10
0.000143595
1.42308e-09
0.000171525
-0.000171549
-2.00345e-08
0.000225755
5.41965e-10
5.58607e-08
-0.000225791
2.12659e-08
1.2764e-09
0.000232528
-5.67229e-08
1.41711e-09
-0.000143595
0.000171547
3.18122e-09
0.000225791
-5.94722e-08
-7.91628e-05
-1.66526e-08
7.91803e-05
-1.89265e-08
0.000264782
4.91291e-08
-0.000264817
-1.10133e-09
6.48048e-09
-3.45307e-08
0.00019433
-7.91803e-05
-4.96515e-08
0.000264817
-1.45273e-09
2.00421e-08
0.000143575
1.44434e-09
-2.02791e-08
1.9795e-10
5.43021e-08
-0.000171525
-3.71417e-10
0.000171547
-0.000225755
2.12331e-08
-5.6997e-08
3.19154e-09
0.000225789
5.58579e-08
5.36724e-10
8.45197e-10
0.000143595
-0.00014365
-2.1201e-08
3.51262e-10
1.05992e-09
0.00014367
-2.00511e-08
0.00022586
7.03175e-10
5.33489e-08
1.5366e-09
0.000171563
-4.10817e-11
1.41707e-09
1.92602e-08
-8.3984e-11
-5.18264e-08
0.000232568
1.2948e-09
3.33418e-09
-5.69862e-08
0.000225894
-5.06669e-11
0.000171583
-7.92069e-05
-1.87331e-08
7.92267e-05
-2.10908e-08
0.000264916
4.90344e-08
-1.23998e-09
-3.22489e-08
0.000194388
-4.9619e-08
0.000264949
-0.000143583
4.515e-10
-1.92458e-08
8.17295e-10
0.000143601
1.41994e-09
0.000171531
-1.80507e-08
0.000225767
6.00347e-10
5.09493e-08
1.92596e-08
1.08179e-09
-5.17937e-08
0.00023253
1.37521e-09
0.000171551
3.15372e-09
-5.45717e-08
0.0002258
-7.91652e-05
-1.66731e-08
7.91827e-05
-1.89144e-08
0.000264794
4.66964e-08
-1.09278e-09
6.4431e-09
-3.22894e-08
0.000194337
-4.72534e-08
0.000264826
-1.35743e-08
9.78986e-05
-0.000215319
6.83399e-09
6.71199e-09
-1.27784e-08
-1.29406e-08
0.000215331
7.29555e-09
8.07755e-05
6.35565e-09
-8.07892e-05
7.4232e-09
8.07919e-05
6.20321e-09
-8.08056e-05
1.36236e-08
1.33663e-08
-0.000215331
-6.78037e-09
8.07891e-05
-6.87671e-09
8.08055e-05
-2.2667e-08
-0.000224508
2.10164e-08
-4.71666e-08
0.000224544
2.10501e-08
0.000183913
-0.000183936
0.000254779
-2.64675e-08
3.94995e-08
8.1401e-08
-0.000254837
-3.35299e-08
9.34214e-09
-1.72195e-08
0.00028029
-3.28573e-08
-8.12303e-08
0.000254837
4.42618e-08
-0.000224544
0.000183936
-0.00022459
2.28731e-08
-2.28484e-08
-4.93234e-08
0.000224626
2.31065e-08
0.000183973
-0.000183998
-2.61621e-08
0.00025495
8.40221e-08
3.92708e-08
-0.000255008
9.03254e-09
-3.58219e-08
1.11552e-08
-1.74193e-08
0.000280414
4.67304e-08
-0.000224626
0.000183998
-8.38381e-08
-3.30174e-08
0.000255008
-6.52838e-09
9.79112e-05
-0.000143648
-2.32443e-08
3.03455e-10
1.06995e-09
0.00014367
-2.21388e-08
0.00022586
7.02004e-10
5.33854e-08
-0.000225891
1.53566e-09
0.000171562
-7.62224e-11
-0.000171584
1.22385e-09
2.13174e-08
-1.82011e-11
-5.42398e-08
0.000232565
1.33205e-09
-0.00014367
3.33943e-09
-5.69123e-08
0.000225891
-8.03946e-11
0.000171584
-7.92065e-05
-1.87124e-08
7.92262e-05
-2.11197e-08
0.000264915
4.90629e-08
-0.000264948
-1.25164e-09
-3.22465e-08
0.000194383
-7.92262e-05
-4.95734e-08
0.000264948
-0.000143579
-1.92334e-08
4.97004e-10
7.69443e-10
0.000143597
-1.80539e-08
0.000225761
5.51671e-10
5.09651e-08
-0.000225794
1.37732e-09
0.000171528
-0.000171548
1.01319e-09
1.92462e-08
-5.42721e-08
0.000232528
1.33183e-09
-0.000143597
3.10994e-09
-5.45521e-08
0.000225794
0.000171548
-7.91631e-05
-1.67265e-08
7.91806e-05
-1.88684e-08
0.000264787
4.66481e-08
-1.06368e-09
6.46469e-09
-3.23639e-08
0.000194329
-4.73206e-08
0.000264819
-0.000215317
8.62787e-09
6.69291e-09
-1.51075e-08
-1.51716e-08
0.000215332
9.04999e-09
8.07889e-05
6.23623e-09
7.42118e-09
8.07755e-05
6.21293e-09
1.58426e-08
1.56588e-08
-6.72109e-09
8.08043e-05
-6.86338e-09
8.0789e-05
-0.000224579
-2.26323e-08
2.48511e-08
-5.18475e-08
0.000224613
2.49104e-08
0.000183965
-2.62469e-08
0.000254907
3.67888e-08
8.39433e-08
-3.58198e-08
8.87702e-09
1.12186e-08
-1.73227e-08
0.000280379
4.90071e-08
-3.03228e-08
-8.36959e-08
0.000254963
0.000183992
-0.00022451
-2.27795e-08
2.28764e-08
-4.95178e-08
0.000224544
2.30252e-08
0.000183911
-2.61974e-08
0.000254789
3.41526e-08
8.11761e-08
-3.57873e-08
8.98136e-09
1.11975e-08
-1.49466e-08
0.000280294
4.67974e-08
-2.7861e-08
-8.11676e-08
0.00025484
0.000183936
9.79031e-05
9.78972e-05
-1.13145e-08
-6.38552e-09
9.79211e-05
-1.12758e-08
9.79075e-05
-0.000224593
2.12934e-08
-2.52162e-08
1.50531e-08
-4.74098e-08
0.000224629
-2.88053e-08
0.00025495
7.87849e-08
3.70811e-08
2.11554e-08
0.000183974
-6.28188e-09
1.19797e-08
-3.13185e-08
0.000280408
-1.49201e-08
-1.56785e-08
4.40741e-08
6.78146e-09
0.000184
-7.9018e-08
0.000255003
-3.01532e-08
-0.00022452
2.09196e-08
-2.2628e-08
1.30429e-08
-4.9587e-08
0.000224559
-2.64261e-08
0.000254816
8.3613e-08
3.93134e-08
2.10142e-08
0.000183918
-6.19433e-09
9.40686e-09
-3.3644e-08
-1.73448e-08
0.000280326
-1.35189e-08
4.89184e-08
6.87128e-09
0.000183941
-8.13763e-08
-3.29459e-08
0.000254874
-0.000215322
6.93531e-09
6.5868e-09
0.000215337
7.18031e-09
8.07917e-05
7.54605e-09
8.07776e-05
8.08055e-05
8.07911e-05
1.44559e-07
1.29634e-07
0.000247089
-0.000247267
-2.5286e-07
-2.8432e-07
-0.000275708
-0.000265955
1.3758e-07
0.000266301
-0.000266365
1.45572e-07
0.000266702
-0.000266286
-0.000266706
0.00024727
-0.000247089
-1.40074e-07
-1.40326e-07
0.000247272
-1.37046e-07
0.000265957
2.88775e-07
-1.36945e-07
0.000266365
2.78674e-07
2.76477e-07
-1.30519e-06
0.000275728
-2.83917e-07
0.000266301
0.000266704
-1.14238e-08
-3.99491e-08
-0.00117395
-1.82037e-07
-1.6493e-07
0.00117438
-0.00117427
2.02026e-07
1.78721e-07
0.0011739
-3.96419e-08
-3.23546e-08
1.74103e-08
1.54711e-08
-0.00117432
0.00118474
-2.56826e-08
1.57819e-08
-0.00118475
-1.43628e-07
1.47586e-07
0.00118476
5.72782e-09
-5.58221e-09
0.00116427
-0.00117381
-2.82389e-08
-2.92735e-08
0.00117371
-1.12627e-08
1.14436e-08
-5.97089e-10
0.00117428
0.00118468
2.01378e-09
-0.0011847
2.15318e-08
-2.89203e-08
0.00118451
-1.08623e-08
-2.11514e-10
-0.00116413
0.00116413
-0.00117356
3.49738e-08
3.84772e-08
0.00117368
1.16702e-08
-0.00117355
-5.96697e-09
2.10499e-09
0.00117404
-0.00117403
0.0011842
-4.45485e-09
-0.00118417
-2.12011e-08
2.84655e-08
0.00118438
-5.48405e-09
-5.37518e-09
0.00116412
5.82517e-09
0.00117348
-2.34497e-10
0.00117397
-0.00117396
0.00118412
-0.00118412
-5.87265e-09
5.59079e-09
0.00118413
-0.000247086
-1.40012e-07
-1.40222e-07
2.76148e-07
2.7625e-07
-1.36969e-07
0.000265947
-1.42734e-07
0.000266367
-0.000271675
2.45701e-07
-1.05946e-09
9.15362e-10
0.000272471
2.37064e-07
0.000254776
1.01957e-09
2.65259e-09
0.000272051
-9.66497e-11
2.41769e-09
-2.28677e-07
0.000256163
-2.51327e-10
3.38339e-09
7.39565e-09
0.000254959
0.00027268
6.44367e-10
-8.65283e-09
-2.22395e-07
0.000269982
-0.000270696
1.66974e-09
-0.000265531
-6.26517e-09
0.000265644
1.37395e-07
6.14593e-09
-0.000248871
-0.000255136
-2.23963e-07
-4.95851e-09
0.000255305
-0.00026563
-0.000255307
1.4437e-09
-6.27482e-09
0.000270704
6.20474e-09
-0.000269979
2.23993e-07
2.17315e-07
0.000255138
0.000265521
1.15176e-08
-1.28893e-07
-1.33623e-08
-2.37071e-07
-6.32123e-10
0.000271673
4.81627e-11
2.2286e-07
-1.07206e-09
-0.000254777
-2.43064e-07
0.00025496
-0.000272048
-7.82861e-10
-4.58847e-09
0.000272686
-3.38423e-09
0.000272464
-0.000271609
2.43107e-07
5.45676e-10
8.76564e-10
0.000272409
2.36966e-07
0.000254691
-1.52614e-09
-1.90244e-09
0.000272037
1.28369e-09
-2.28687e-07
0.000256139
-4.30139e-09
4.79553e-09
0.000254876
0.000272669
-0.000269896
2.18953e-07
8.96891e-09
0.000270618
2.17013e-07
0.000255035
1.38609e-08
0.000265426
-1.32956e-08
-1.26469e-07
0.000248771
0.000255199
0.00026554
-2.3698e-07
2.73355e-09
0.000271608
-4.36897e-09
-1.28648e-09
2.25427e-07
-0.00025469
-2.43075e-07
4.78378e-09
0.000254875
-0.000272036
-1.61782e-09
0.000272663
-1.54734e-09
8.18618e-10
0.000272406
-1.39987e-07
-0.000247079
-1.39967e-07
0.00024726
2.76142e-07
2.81104e-07
0.000275695
0.000266321
-1.3754e-07
-1.37036e-07
0.000265965
0.00026666
0.000266303
-2.29764e-07
0.000269979
1.40751e-09
-0.000255129
-2.13975e-07
0.000255292
-7.18228e-09
1.61679e-09
0.000270709
-1.4367e-08
-0.000271669
2.42945e-07
-8.71566e-10
1.17079e-08
0.000272453
2.39781e-07
0.000254766
-4.12306e-09
-0.000254948
-2.21338e-10
0.000272042
5.42287e-09
-0.000272682
1.55332e-09
-2.26016e-07
0.000256154
2.50188e-10
-1.74281e-08
-0.000272454
4.7697e-09
0.000254951
0.000272674
-1.8432e-09
-1.3891e-08
-2.22015e-07
0.00026997
-0.000270705
2.02103e-08
-0.000265494
-6.31315e-09
0.000265598
1.37244e-07
1.09624e-08
-0.000248829
-0.000255118
-2.24224e-07
-4.83087e-09
0.000255289
-0.000265611
-0.000255286
4.07566e-09
1.65255e-09
0.000270687
6.4415e-09
-0.000269976
2.19157e-07
2.24671e-07
0.000255121
0.000265504
1.36604e-08
-1.26502e-07
-1.09765e-08
-2.39706e-07
6.65418e-09
0.000271667
-2.50212e-09
2.22882e-07
1.06139e-09
-0.000254764
-2.43004e-07
0.000254947
-0.000272041
-5.44033e-09
-6.80751e-10
0.000272683
4.85677e-09
0.000272464
-0.000271606
4.32254e-10
2.45602e-07
7.72684e-10
0.000272398
-1.62303e-10
0.000272029
-0.000272659
2.39613e-07
0.000254683
-1.57849e-09
-0.000254865
-2.25999e-07
1.78637e-09
0.000256128
-1.74222e-09
-0.000272402
0.000272658
4.79526e-09
0.000254866
-0.000269898
2.24026e-07
6.23543e-09
0.000270612
2.22223e-07
0.00025503
-0.000255198
1.13365e-08
0.00026543
-0.000265534
-1.08207e-08
-1.28927e-07
0.000248762
-0.000270609
0.000255198
0.000265534
-6.83384e-11
-2.39621e-07
0.000271605
-4.47741e-09
2.22895e-07
-3.10154e-10
-0.000272028
3.31035e-10
0.000272663
-0.000254683
-2.43004e-07
4.81353e-09
0.000254867
-1.59478e-09
7.62112e-10
0.000272403
-0.000271666
2.43049e-07
-2.36048e-09
8.90353e-09
0.000272455
2.37041e-07
0.000254773
-1.4635e-09
-6.68329e-10
0.000272042
6.51455e-09
2.37223e-09
-2.26115e-07
-3.393e-10
0.000256159
-1.23402e-08
4.91498e-09
0.000254956
-3.79791e-09
0.000272674
-0.000269989
6.4377e-09
2.19095e-07
0.000270713
2.17117e-07
0.000255143
1.12084e-08
0.000265539
-1.26638e-07
-1.09895e-08
0.00024887
0.00026565
0.000255306
-0.000271606
1.34793e-09
2.43017e-07
-1.70377e-09
0.000272402
1.65814e-10
0.000272027
2.37062e-07
0.000254691
-1.51504e-09
-2.26026e-07
1.32477e-09
0.000256134
-1.63598e-09
0.000272655
4.83345e-09
0.000254876
-0.000269903
2.21559e-07
6.32654e-09
0.000270617
2.1968e-07
0.000255046
1.11727e-08
0.000265461
-1.08611e-08
-1.28993e-07
0.000248803
0.000255215
0.00026557
-1.39941e-07
-0.000247076
-1.37497e-07
0.000247257
2.73579e-07
2.81065e-07
0.000275686
0.000266318
-1.37391e-07
-0.000266657
-1.34636e-07
0.000265961
-0.000266302
0.000266657
-0.000247257
0.000266302
-0.000271664
-4.73214e-10
2.45499e-07
8.87141e-09
0.000272449
6.29269e-10
0.000272033
-4.83628e-10
-0.000272665
2.39668e-07
0.000254771
-3.97727e-09
-0.000254953
-2.26024e-07
1.86593e-09
5.62772e-10
0.000256153
-1.23943e-08
-0.000272446
3.6142e-09
0.000272659
7.318e-09
0.000254955
-0.000269981
9.05944e-09
2.21497e-07
0.000270703
2.19566e-07
0.000255137
-0.000255305
1.38685e-08
0.000265533
-0.000265645
-1.26597e-07
-1.09439e-08
0.000248864
-0.000270703
0.000265645
0.000255305
-0.000271602
-2.32945e-09
2.42931e-07
1.67685e-08
0.000272383
-3.25429e-09
0.000272026
-0.000272655
2.37005e-07
0.000254683
-4.03009e-09
-0.000254866
-2.2601e-07
1.77694e-09
0.000256126
-2.02266e-08
-0.000272382
0.000272657
7.22141e-09
0.000254866
-0.000269908
2.21613e-07
9.02839e-09
0.000270637
2.19475e-07
0.000255033
1.38346e-08
0.000265442
-1.08677e-08
-1.29118e-07
0.000248771
0.000255204
0.000265557
-0.000247066
-1.39756e-07
-1.37561e-07
0.000247242
2.70623e-07
2.81323e-07
0.000275658
-1.37203e-07
0.000265914
-1.34618e-07
0.00026633
0.000266242
0.000266671
2.24202e-07
-0.00026997
9.08364e-09
-9.72656e-10
0.000270687
1.38565e-08
0.000265488
0.000255118
2.2218e-07
1.56856e-09
-1.09363e-08
-1.28995e-07
0.000248822
-4.83983e-09
0.000255289
4.30442e-09
0.000265598
-5.42678e-08
-3.22341e-10
-0.000232532
1.20871e-09
2.13777e-08
-6.49781e-09
-1.35217e-08
-9.78786e-05
1.29126e-06
5.41362e-10
2.62647e-07
-2.72194e-07
-1.28682e-06
2.81378e-07
-2.85791e-07
1.69734e-08
-9.42646e-07
9.43312e-07
1.74239e-08
3.22727e-08
-0.000248777
-1.26647e-07
-1.09412e-08
-1.92365e-09
-0.00025599
1.05602e-09
-2.23426e-07
-5.60411e-08
7.91506e-08
-1.05111e-06
8.56499e-07
-8.63188e-07
1.03599e-06
-5.41926e-08
-0.000232496
2.33965e-08
8.25775e-10
-3.45052e-08
-0.000194301
-1.15238e-09
-0.000255961
-2.26039e-07
6.0263e-10
2.82843e-08
1.33191e-06
6.18593e-09
-9.45494e-07
2.59744e-07
9.43214e-07
-2.69608e-07
-1.32748e-06
2.86729e-07
-2.91442e-07
2.27385e-08
-1.03986e-06
8.59278e-07
-8.60427e-07
1.04156e-06
1.72421e-08
-0.000248674
-1.08557e-08
-1.28929e-07
-0.000273618
2.73579e-07
2.8109e-07
-0.000280262
9.33682e-09
-3.34848e-08
1.11518e-08
-0.000280381
9.04459e-09
-3.58134e-08
-6.5296e-09
-9.78936e-05