/*--------------------------------*- C++ -*----------------------------------*\
| =========                 |                                                 |
| \\      /  F ield         | OpenFOAM: The Open Source CFD Toolbox           |
|  \\    /   O peration     | Version:  v2012                                 |
|   \\  /    A nd           | Website:  www.openfoam.com                      |
|    \\/     M anipulation  |                                                 |
\*---------------------------------------------------------------------------*/
FoamFile
{
    version     2.0;
    format      ascii;
    class       volScalarField;
    location    "575";
    object      epsilon;
}
// * * * * * * * * * * * * * * * * * * * * * * * * * * * * * * * * * * * * * //

dimensions      [0 2 -3 0 0 0 0];


internalField   nonuniform List<scalar> 
171728
(
1.61706e-09
3.28552e-09
5.32788e-09
4.887e-09
1.56908e-09
3.05828e-09
4.97662e-09
4.78972e-09
1.48411e-09
2.82158e-09
4.57224e-09
4.56962e-09
1.42656e-09
2.61041e-09
4.22759e-09
4.04784e-09
1.37765e-09
2.42644e-09
4.01227e-09
3.61665e-09
1.33084e-09
2.2732e-09
3.89351e-09
3.2914e-09
1.28846e-09
2.15009e-09
3.8498e-09
3.11475e-09
1.24987e-09
2.0573e-09
3.85516e-09
2.92349e-09
1.21338e-09
1.99664e-09
3.86821e-09
2.74156e-09
1.17837e-09
1.96788e-09
3.80267e-09
2.58206e-09
1.14466e-09
1.9754e-09
3.69108e-09
2.51465e-09
1.11232e-09
2.01747e-09
3.59297e-09
2.48854e-09
1.08142e-09
2.10453e-09
3.52157e-09
2.49204e-09
1.05236e-09
2.24305e-09
3.40033e-09
2.55287e-09
1.02551e-09
2.46373e-09
3.4875e-09
2.7291e-09
1.00195e-09
2.78292e-09
3.74668e-09
3.00971e-09
9.81428e-10
3.27079e-09
3.99854e-09
3.40165e-09
9.63097e-10
4.022e-09
4.74109e-09
4.07734e-09
9.51814e-10
5.0541e-09
5.75863e-09
5.12909e-09
9.44519e-10
6.85938e-09
7.32378e-09
8.30581e-09
9.4569e-10
9.14414e-09
9.86641e-09
9.93945e-09
9.60152e-10
1.26131e-08
1.31794e-08
1.85039e-08
9.92515e-10
1.77214e-08
1.78414e-08
2.76171e-08
1.04349e-09
2.33958e-08
2.46309e-08
4.7788e-08
1.12993e-09
3.55247e-08
3.41795e-08
7.16994e-08
1.26493e-09
4.27546e-08
4.48946e-08
1.10866e-07
1.46256e-09
5.6798e-08
5.95775e-08
1.62697e-07
1.75415e-09
8.0062e-08
8.04096e-08
2.09827e-07
2.20589e-09
9.34842e-08
9.83593e-08
3.07355e-07
2.6821e-09
1.203e-07
1.11609e-07
3.58958e-07
3.42464e-09
1.44104e-07
1.50655e-07
4.49634e-07
4.48516e-09
1.69621e-07
1.7304e-07
5.06876e-07
5.79783e-09
2.0722e-07
2.06926e-07
6.1895e-07
7.93063e-09
2.42603e-07
2.40107e-07
6.6939e-07
9.8697e-09
2.84988e-07
2.80957e-07
6.65002e-07
1.33644e-08
3.06196e-07
3.07952e-07
7.55471e-07
1.5638e-08
3.75886e-07
3.696e-07
8.3361e-07
2.23372e-08
4.33563e-07
4.24216e-07
8.54044e-07
2.73222e-08
4.28627e-07
4.42603e-07
8.68426e-07
3.19101e-08
4.82318e-07
4.9771e-07
9.04154e-07
4.29919e-08
6.10033e-07
5.56245e-07
9.61887e-07
5.39004e-08
6.34635e-07
6.09671e-07
9.8439e-07
6.29369e-08
6.31519e-07
6.48636e-07
9.99316e-07
7.23278e-08
6.75914e-07
6.84872e-07
1.04077e-06
9.61024e-08
7.63807e-07
7.51315e-07
1.08025e-06
1.12841e-07
7.89787e-07
7.90003e-07
1.08585e-06
1.26977e-07
8.19349e-07
8.12206e-07
1.10577e-06
1.45061e-07
8.70384e-07
8.77877e-07
1.15873e-06
1.81262e-07
9.12286e-07
9.18604e-07
1.19024e-06
2.06681e-07
9.23947e-07
9.26751e-07
1.17444e-06
2.1595e-07
9.78603e-07
9.49928e-07
1.20768e-06
2.56642e-07
1.01381e-06
1.02806e-06
1.26812e-06
3.00456e-07
1.02251e-06
1.03361e-06
1.26476e-06
3.13926e-07
1.02247e-06
1.02975e-06
1.25614e-06
3.34047e-07
1.085e-06
1.07362e-06
1.29202e-06
3.93623e-07
1.13548e-06
1.11937e-06
1.34535e-06
4.22853e-07
1.12592e-06
1.12599e-06
1.34284e-06
4.40253e-07
1.10988e-06
1.13469e-06
1.33114e-06
4.6499e-07
1.13412e-06
1.14713e-06
1.355e-06
4.89461e-07
1.19015e-06
1.16971e-06
1.39179e-06
5.35596e-07
1.20466e-06
1.19596e-06
1.4e-06
5.5952e-07
1.20523e-06
1.20611e-06
1.40206e-06
5.75747e-07
1.20898e-06
1.22445e-06
1.42166e-06
6.01191e-07
1.23408e-06
1.23485e-06
1.4327e-06
6.20751e-07
1.25225e-06
1.23726e-06
1.44096e-06
6.40942e-07
1.25188e-06
1.25527e-06
1.45535e-06
6.58591e-07
1.25371e-06
1.26897e-06
1.45818e-06
6.74801e-07
1.27519e-06
1.27215e-06
1.46854e-06
6.93963e-07
1.29044e-06
1.28408e-06
1.48424e-06
7.06808e-07
1.28801e-06
1.28887e-06
1.48472e-06
7.21535e-07
1.28978e-06
1.29258e-06
1.48962e-06
7.33524e-07
1.30295e-06
1.3043e-06
1.50291e-06
7.47848e-07
1.3096e-06
1.30451e-06
1.5034e-06
7.56871e-07
1.30705e-06
1.30682e-06
1.50384e-06
7.67354e-07
1.30808e-06
1.3182e-06
1.51741e-06
7.75796e-07
1.32126e-06
1.31687e-06
1.52026e-06
7.8589e-07
1.3223e-06
1.31594e-06
1.51571e-06
7.93294e-07
1.31644e-06
1.31974e-06
1.52128e-06
7.94772e-07
1.31381e-06
1.3225e-06
1.53103e-06
8.01674e-07
1.32269e-06
1.32168e-06
1.52551e-06
8.06156e-07
1.33085e-06
1.31789e-06
1.52189e-06
8.11108e-07
1.31964e-06
1.32128e-06
1.53184e-06
8.09156e-07
1.30514e-06
1.32157e-06
1.52853e-06
8.07286e-07
1.31486e-06
1.31472e-06
1.52416e-06
8.11882e-07
1.32373e-06
1.30661e-06
1.52169e-06
8.11129e-07
1.31623e-06
1.31069e-06
1.52943e-06
8.06701e-07
1.29683e-06
1.31557e-06
1.52604e-06
8.03268e-07
1.28775e-06
1.29578e-06
1.50828e-06
8.02032e-07
1.30271e-06
1.28742e-06
1.51108e-06
8.01438e-07
1.30551e-06
1.30073e-06
1.53122e-06
7.89242e-07
1.26658e-06
1.2753e-06
1.49463e-06
7.88824e-07
1.27883e-06
1.26384e-06
1.48678e-06
7.98041e-07
1.29651e-06
1.29749e-06
1.52922e-06
7.76568e-07
1.24692e-06
1.26884e-06
1.49671e-06
7.36929e-07
1.17212e-06
1.16488e-06
1.40343e-06
5.08203e-09
4.14119e-09
3.98533e-09
4.95533e-09
3.896e-09
5.48013e-09
1.57541e-09
1.48837e-09
1.78953e-09
1.96648e-09
3.79249e-09
4.01887e-09
5.08996e-09
4.03121e-09
5.90599e-09
4.94843e-09
5.04936e-09
4.66231e-09
9.36997e-09
4.39675e-09
7.43086e-09
4.20145e-09
4.93503e-09
4.49726e-09
3.8382e-09
1.56238e-08
3.70605e-09
1.45156e-08
4.73579e-09
3.12196e-09
4.49098e-09
5.02102e-09
4.85986e-09
1.66843e-08
5.07688e-09
1.61519e-08
4.84423e-09
4.62599e-09
4.20443e-09
6.67708e-09
4.11664e-09
4.78337e-09
3.87613e-09
4.4689e-09
4.07478e-09
3.64213e-09
1.37771e-08
3.47679e-09
1.0335e-08
4.39893e-09
2.87822e-09
4.13857e-09
4.79187e-09
4.46053e-09
1.58632e-08
4.67348e-09
1.42714e-08
4.67185e-09
4.17193e-09
3.74365e-09
4.31365e-09
3.7997e-09
3.35506e-09
3.58116e-09
4.0507e-09
3.71782e-09
3.42334e-09
9.02019e-09
3.26615e-09
5.76068e-09
4.05868e-09
2.6604e-09
3.83914e-09
4.38137e-09
3.98273e-09
1.34389e-08
4.29957e-09
1.07142e-08
4.13641e-09
3.7189e-09
3.4244e-09
3.15345e-09
3.51155e-09
2.75873e-09
3.30979e-09
3.69751e-09
3.40616e-09
3.21703e-09
4.99422e-09
3.08088e-09
3.52436e-09
3.77069e-09
2.4692e-09
3.57774e-09
3.92716e-09
3.55942e-09
9.84632e-09
4.05779e-09
7.69661e-09
3.70083e-09
3.41435e-09
3.17101e-09
2.67351e-09
3.24458e-09
2.50255e-09
3.0609e-09
3.38843e-09
3.12975e-09
3.03826e-09
3.23764e-09
2.91574e-09
2.71111e-09
3.51729e-09
2.30835e-09
3.34362e-09
3.52957e-09
3.25667e-09
7.1643e-09
3.91339e-09
6.03612e-09
3.33409e-09
3.15828e-09
2.93683e-09
2.4645e-09
3.00476e-09
2.38196e-09
2.85116e-09
3.11534e-09
2.88123e-09
2.87684e-09
2.60703e-09
2.76741e-09
2.42441e-09
3.2888e-09
2.1781e-09
3.13757e-09
3.24108e-09
3.05683e-09
5.75321e-09
3.85765e-09
5.04412e-09
3.13306e-09
2.92725e-09
2.74369e-09
2.36223e-09
2.80614e-09
2.31708e-09
2.68628e-09
2.87082e-09
2.67799e-09
2.73412e-09
2.39087e-09
2.64437e-09
2.32185e-09
3.09086e-09
2.07789e-09
2.96675e-09
3.04758e-09
2.9011e-09
4.87978e-09
3.84947e-09
4.39944e-09
2.93923e-09
2.73744e-09
2.59143e-09
2.30523e-09
2.65179e-09
2.2785e-09
2.56446e-09
2.67144e-09
2.51358e-09
2.61845e-09
2.30541e-09
2.55317e-09
2.27113e-09
2.93231e-09
2.00974e-09
2.83725e-09
2.89545e-09
2.77334e-09
4.20991e-09
3.8694e-09
3.71585e-09
2.75428e-09
2.58879e-09
2.47704e-09
2.27291e-09
2.54007e-09
2.26531e-09
2.4792e-09
2.51087e-09
2.3876e-09
2.53553e-09
2.26309e-09
2.49601e-09
2.25089e-09
2.80988e-09
1.97211e-09
2.7425e-09
2.76739e-09
2.64194e-09
3.58361e-09
3.82476e-09
3.24631e-09
2.58469e-09
2.47788e-09
2.39929e-09
2.26613e-09
2.46321e-09
2.27864e-09
2.42915e-09
2.38866e-09
2.29929e-09
2.48776e-09
2.24996e-09
2.47754e-09
2.2564e-09
2.72252e-09
1.97125e-09
2.68411e-09
2.6401e-09
2.57125e-09
3.16837e-09
3.71577e-09
3.04393e-09
2.51256e-09
2.40368e-09
2.35755e-09
2.28706e-09
2.42304e-09
2.32297e-09
2.41813e-09
2.30403e-09
2.24807e-09
2.47842e-09
2.26164e-09
2.49448e-09
2.29098e-09
2.67713e-09
2.00581e-09
2.67094e-09
2.57633e-09
2.53677e-09
3.02941e-09
3.61877e-09
3.03388e-09
2.47857e-09
2.36804e-09
2.34988e-09
2.33903e-09
2.42171e-09
2.39835e-09
2.45578e-09
2.25921e-09
2.23538e-09
2.50547e-09
2.30646e-09
2.54995e-09
2.35515e-09
2.67322e-09
2.08244e-09
2.6942e-09
2.54684e-09
2.51229e-09
3.05716e-09
3.53939e-09
3.11216e-09
2.47526e-09
2.3688e-09
2.38606e-09
2.42514e-09
2.47432e-09
2.52131e-09
2.54736e-09
2.25542e-09
2.27248e-09
2.57216e-09
2.38105e-09
2.6534e-09
2.47052e-09
2.70607e-09
2.20495e-09
2.76802e-09
2.52607e-09
2.507e-09
3.1255e-09
3.42033e-09
3.21498e-09
2.51868e-09
2.41785e-09
2.48672e-09
2.56209e-09
2.5855e-09
2.70894e-09
2.72245e-09
2.30562e-09
2.37572e-09
2.68872e-09
2.50278e-09
2.82773e-09
2.65263e-09
2.79994e-09
2.40415e-09
2.91362e-09
2.53452e-09
2.56846e-09
3.28587e-09
3.42064e-09
3.56393e-09
2.6675e-09
2.54141e-09
2.68592e-09
2.76534e-09
2.78362e-09
2.9984e-09
3.00678e-09
2.43452e-09
2.58317e-09
2.88006e-09
2.71518e-09
3.11541e-09
2.94804e-09
2.97338e-09
2.68681e-09
3.17605e-09
2.61601e-09
2.75476e-09
3.66965e-09
3.7069e-09
3.99608e-09
2.9108e-09
2.77787e-09
3.05216e-09
3.0889e-09
3.10333e-09
3.43375e-09
3.43129e-09
2.67754e-09
2.96175e-09
3.2007e-09
3.03895e-09
3.54476e-09
3.37392e-09
3.25771e-09
3.13941e-09
3.58633e-09
2.84533e-09
3.10137e-09
4.08904e-09
3.90991e-09
4.46912e-09
3.25255e-09
3.19926e-09
3.71775e-09
3.57906e-09
3.57588e-09
4.12165e-09
4.10324e-09
3.11448e-09
3.61324e-09
3.69357e-09
3.51819e-09
4.21281e-09
4.0732e-09
3.72553e-09
3.80209e-09
4.26111e-09
3.24178e-09
3.71333e-09
4.66487e-09
4.45773e-09
5.03281e-09
3.89249e-09
3.97536e-09
4.77611e-09
4.33513e-09
4.33361e-09
5.09992e-09
5.09308e-09
3.87429e-09
4.71693e-09
4.42739e-09
4.3005e-09
5.2396e-09
5.11112e-09
4.42248e-09
4.7822e-09
5.06776e-09
3.98932e-09
4.92796e-09
5.07358e-09
5.49539e-09
5.60025e-09
4.61447e-09
5.2022e-09
6.87035e-09
5.44296e-09
5.38599e-09
6.6836e-09
6.63493e-09
5.10156e-09
6.63517e-09
5.58827e-09
5.42375e-09
6.8041e-09
6.50562e-09
5.47252e-09
6.30274e-09
7.00506e-09
5.31552e-09
6.57084e-09
6.09438e-09
6.81012e-09
7.39212e-09
7.68419e-09
7.57861e-09
1.02067e-08
7.16274e-09
7.17068e-09
8.92828e-09
9.10529e-09
7.4845e-09
1.04509e-08
7.26134e-09
7.02904e-09
9.04607e-09
8.9812e-09
7.39998e-09
8.54884e-09
8.36631e-09
7.24987e-09
1.05417e-08
7.68446e-09
9.17937e-09
8.61232e-09
9.17962e-09
1.13532e-08
1.61193e-08
9.59933e-09
9.69413e-09
1.21917e-08
1.22563e-08
1.15595e-08
1.57027e-08
9.72826e-09
9.68093e-09
1.23562e-08
1.2092e-08
8.9987e-09
1.16816e-08
1.20676e-08
1.17972e-08
1.58589e-08
9.19447e-09
1.22416e-08
1.18471e-08
1.61989e-08
1.79773e-08
2.63509e-08
1.31817e-08
1.32542e-08
1.67898e-08
1.67218e-08
1.75757e-08
2.6115e-08
1.33675e-08
1.30608e-08
1.68904e-08
1.66318e-08
1.31616e-08
1.60703e-08
1.60717e-08
1.75113e-08
2.58302e-08
1.28167e-08
1.64812e-08
1.56418e-08
2.53293e-08
2.91407e-08
4.24632e-08
1.81989e-08
1.84692e-08
2.29267e-08
2.30762e-08
2.90221e-08
4.36526e-08
1.83205e-08
1.81369e-08
2.31296e-08
2.29413e-08
1.73793e-08
2.24164e-08
2.27206e-08
2.90126e-08
4.19057e-08
1.69309e-08
2.29038e-08
2.23813e-08
4.2575e-08
4.67738e-08
6.68717e-08
2.48056e-08
2.40759e-08
3.14515e-08
3.23722e-08
4.72541e-08
6.8608e-08
2.50116e-08
2.46418e-08
3.16097e-08
3.18528e-08
2.45796e-08
3.15974e-08
3.09595e-08
4.62229e-08
6.68874e-08
2.42958e-08
3.1529e-08
3.0386e-08
6.61211e-08
7.29725e-08
1.01363e-07
3.39257e-08
3.63673e-08
4.21483e-08
4.28133e-08
7.97693e-08
1.05055e-07
3.39465e-08
3.43392e-08
4.22215e-08
4.15258e-08
3.33806e-08
4.1907e-08
4.18175e-08
7.31237e-08
1.00648e-07
3.26091e-08
4.12454e-08
4.06382e-08
1.01364e-07
1.0957e-07
1.48408e-07
4.53832e-08
4.36009e-08
5.54726e-08
5.21825e-08
1.06596e-07
1.27236e-07
4.54148e-08
4.50672e-08
5.53938e-08
5.63904e-08
4.56122e-08
5.14532e-08
5.68647e-08
1.08509e-07
1.49405e-07
4.44643e-08
5.67205e-08
5.55763e-08
1.53598e-07
1.5905e-07
2.06586e-07
5.92096e-08
5.74753e-08
7.2572e-08
7.61471e-08
1.44224e-07
2.30818e-07
5.9057e-08
5.91901e-08
7.20879e-08
7.20209e-08
5.91502e-08
7.45926e-08
6.98769e-08
1.61066e-07
2.0695e-07
5.77447e-08
7.36404e-08
6.85727e-08
1.96043e-07
2.19434e-07
2.77227e-07
7.68709e-08
8.12213e-08
9.176e-08
9.07308e-08
2.45051e-07
2.84034e-07
7.64108e-08
7.84813e-08
9.06645e-08
9.4347e-08
7.68115e-08
9.04755e-08
9.6505e-08
2.2157e-07
2.90691e-07
7.48852e-08
9.58964e-08
9.25901e-08
2.91753e-07
2.92775e-07
3.56304e-07
9.85377e-08
9.45948e-08
1.15321e-07
1.11485e-07
2.94046e-07
3.44604e-07
9.67065e-08
9.7333e-08
1.13775e-07
1.0789e-07
1.00153e-07
1.11923e-07
1.10507e-07
3.00855e-07
3.27732e-07
9.70257e-08
1.05681e-07
1.10121e-07
3.45944e-07
3.71709e-07
4.25116e-07
1.19309e-07
1.19126e-07
1.38072e-07
1.44644e-07
3.65366e-07
4.41376e-07
1.1865e-07
1.14357e-07
1.37242e-07
1.41792e-07
1.16638e-07
1.39893e-07
1.41446e-07
3.41341e-07
4.36459e-07
1.16243e-07
1.41032e-07
1.39954e-07
4.33678e-07
4.39729e-07
5.01432e-07
1.45753e-07
1.51029e-07
1.66145e-07
1.62856e-07
4.52865e-07
4.8706e-07
1.44006e-07
1.49906e-07
1.65285e-07
1.65734e-07
1.48805e-07
1.61228e-07
1.61526e-07
4.58284e-07
5.09422e-07
1.47152e-07
1.68071e-07
1.59927e-07
4.92163e-07
5.17954e-07
5.74797e-07
1.73638e-07
1.67544e-07
1.98682e-07
1.94069e-07
5.02035e-07
5.74999e-07
1.73815e-07
1.71868e-07
1.98754e-07
1.98618e-07
1.67466e-07
1.97441e-07
2.06391e-07
5.2048e-07
5.67798e-07
1.66051e-07
1.97759e-07
2.03251e-07
5.95079e-07
5.90398e-07
6.41976e-07
2.07039e-07
2.07018e-07
2.37218e-07
2.40599e-07
5.93385e-07
6.45622e-07
2.06267e-07
2.07824e-07
2.34298e-07
2.33413e-07
2.21528e-07
2.33767e-07
2.48214e-07
5.8432e-07
6.39993e-07
2.18611e-07
2.31653e-07
2.51492e-07
6.63971e-07
6.5506e-07
6.92718e-07
2.46878e-07
2.48873e-07
2.68232e-07
2.76431e-07
6.59066e-07
7.01971e-07
2.4424e-07
2.42164e-07
2.70973e-07
2.7219e-07
2.51913e-07
2.74793e-07
2.5737e-07
6.5416e-07
6.95964e-07
2.5604e-07
2.7063e-07
2.58466e-07
6.60125e-07
7.06776e-07
7.51323e-07
2.76742e-07
2.85985e-07
3.14227e-07
3.04033e-07
7.13022e-07
7.2947e-07
2.81006e-07
2.82254e-07
3.1632e-07
3.08229e-07
2.59451e-07
3.02873e-07
2.88526e-07
7.08521e-07
7.40256e-07
2.58627e-07
3.01481e-07
2.70356e-07
7.29135e-07
7.62502e-07
7.88085e-07
3.27012e-07
3.07478e-07
3.51418e-07
3.47922e-07
7.37504e-07
8.02525e-07
3.26498e-07
3.16814e-07
3.46916e-07
3.50036e-07
3.09781e-07
3.47365e-07
3.77902e-07
7.51109e-07
7.92261e-07
2.89125e-07
3.49867e-07
3.94569e-07
8.2358e-07
7.9831e-07
8.35175e-07
3.58526e-07
3.74436e-07
3.99945e-07
4.27755e-07
8.29652e-07
8.61765e-07
3.55277e-07
3.65182e-07
3.99442e-07
4.10083e-07
3.93392e-07
4.30936e-07
4.18188e-07
8.07422e-07
8.44215e-07
4.23632e-07
4.15859e-07
4.55999e-07
8.4769e-07
8.48173e-07
8.74158e-07
4.17299e-07
4.31555e-07
4.50338e-07
4.32417e-07
8.62478e-07
8.35684e-07
4.16716e-07
4.21423e-07
4.51049e-07
4.43484e-07
4.22415e-07
4.28762e-07
4.36548e-07
8.52614e-07
8.65808e-07
4.56599e-07
4.36324e-07
4.46599e-07
8.62622e-07
8.81048e-07
8.99713e-07
4.56389e-07
4.3314e-07
4.81344e-07
4.5778e-07
8.41582e-07
8.91099e-07
4.58362e-07
4.50347e-07
4.85308e-07
4.83494e-07
4.43759e-07
4.51062e-07
4.75988e-07
8.72716e-07
8.98425e-07
4.45164e-07
4.82395e-07
4.62981e-07
8.91387e-07
9.09631e-07
9.44077e-07
4.9346e-07
4.82999e-07
5.4423e-07
5.73003e-07
9.11523e-07
9.74775e-07
4.96421e-07
4.96643e-07
5.41283e-07
5.41176e-07
4.91845e-07
5.87704e-07
5.52757e-07
9.10191e-07
9.43695e-07
4.86814e-07
5.40745e-07
5.63991e-07
9.50752e-07
9.55008e-07
9.78338e-07
5.6284e-07
5.94036e-07
6.0082e-07
6.21281e-07
9.84665e-07
9.92759e-07
5.58079e-07
5.57466e-07
5.96702e-07
5.99165e-07
5.71413e-07
6.33905e-07
6.057e-07
9.53732e-07
9.78331e-07
5.83723e-07
5.97933e-07
6.18499e-07
9.79762e-07
9.84441e-07
9.95798e-07
6.08482e-07
6.23862e-07
6.33692e-07
6.28011e-07
9.95196e-07
9.89452e-07
6.06421e-07
6.10875e-07
6.36455e-07
6.40046e-07
6.1122e-07
6.31574e-07
6.26943e-07
9.85669e-07
9.99809e-07
6.24569e-07
6.4003e-07
6.37234e-07
9.92669e-07
1.00199e-06
1.02289e-06
6.42306e-07
6.30623e-07
6.73792e-07
6.61602e-07
9.93718e-07
1.01632e-06
6.45039e-07
6.47704e-07
6.72464e-07
6.75454e-07
6.35551e-07
6.52673e-07
6.7659e-07
1.00575e-06
1.02271e-06
6.43436e-07
6.74021e-07
6.79872e-07
1.02896e-06
1.03259e-06
1.0671e-06
6.90373e-07
6.81599e-07
7.40773e-07
7.44547e-07
1.02915e-06
1.07093e-06
6.87861e-07
6.87573e-07
7.38975e-07
7.34511e-07
6.94607e-07
7.48187e-07
7.47047e-07
1.03079e-06
1.06444e-06
6.97718e-07
7.33801e-07
7.48008e-07
1.07384e-06
1.07508e-06
1.08952e-06
7.52104e-07
7.58015e-07
7.81804e-07
7.76433e-07
1.07841e-06
1.08723e-06
7.51157e-07
7.5111e-07
7.81941e-07
7.85182e-07
7.60058e-07
7.8578e-07
7.81038e-07
1.07443e-06
1.08935e-06
7.59853e-07
7.84944e-07
7.77952e-07
1.08374e-06
1.0946e-06
1.10661e-06
7.90957e-07
7.81433e-07
8.11755e-07
8.11282e-07
1.09122e-06
1.10738e-06
7.91746e-07
7.90681e-07
8.11097e-07
8.04686e-07
7.83737e-07
8.09996e-07
8.00873e-07
1.0922e-06
1.09944e-06
7.80503e-07
8.03184e-07
7.99613e-07
1.09682e-06
1.1121e-06
1.13453e-06
8.19167e-07
8.2327e-07
8.51182e-07
8.58763e-07
1.11574e-06
1.14204e-06
8.17426e-07
8.13954e-07
8.50958e-07
8.62191e-07
8.12003e-07
8.55682e-07
8.5932e-07
1.10705e-06
1.14986e-06
8.10884e-07
8.60205e-07
8.60053e-07
1.14736e-06
1.14482e-06
1.17735e-06
8.65721e-07
8.72026e-07
9.09579e-07
9.04745e-07
1.15005e-06
1.17033e-06
8.662e-07
8.79022e-07
9.09024e-07
9.10576e-07
8.77565e-07
9.06091e-07
9.19503e-07
1.15999e-06
1.17691e-06
8.7991e-07
9.12821e-07
9.21168e-07
1.18684e-06
1.18314e-06
1.18673e-06
9.19702e-07
9.1076e-07
9.33405e-07
9.19624e-07
1.17425e-06
1.17527e-06
9.18574e-07
9.16042e-07
9.31725e-07
9.25897e-07
9.24736e-07
9.20326e-07
9.25627e-07
1.18004e-06
1.17952e-06
9.24514e-07
9.25851e-07
9.23078e-07
1.17381e-06
1.18873e-06
1.20121e-06
9.34798e-07
9.24363e-07
9.47941e-07
9.65879e-07
1.17931e-06
1.22049e-06
9.33262e-07
9.28099e-07
9.4846e-07
9.43837e-07
9.25398e-07
9.62185e-07
9.38215e-07
1.18101e-06
1.19056e-06
9.2305e-07
9.36382e-07
9.4462e-07
1.1924e-06
1.21053e-06
1.24865e-06
9.60552e-07
9.81901e-07
1.00716e-06
1.00881e-06
1.23364e-06
1.25323e-06
9.60999e-07
9.56604e-07
1.00698e-06
1.01186e-06
9.56527e-07
1.00897e-06
1.01243e-06
1.20075e-06
1.25882e-06
9.67077e-07
1.01352e-06
1.02084e-06
1.26257e-06
1.25533e-06
1.2593e-06
1.01733e-06
1.01303e-06
1.02887e-06
1.02136e-06
1.25536e-06
1.2501e-06
1.01731e-06
1.0252e-06
1.02919e-06
1.03531e-06
1.02308e-06
1.02216e-06
1.0325e-06
1.26917e-06
1.26828e-06
1.02618e-06
1.03653e-06
1.02324e-06
1.2638e-06
1.26053e-06
1.26152e-06
1.03054e-06
1.02188e-06
1.0359e-06
1.02159e-06
1.25104e-06
1.23771e-06
1.03013e-06
1.03408e-06
1.03406e-06
1.03074e-06
1.03356e-06
1.02169e-06
1.03699e-06
1.26827e-06
1.25251e-06
1.02169e-06
1.02874e-06
1.02237e-06
1.25467e-06
1.26611e-06
1.29518e-06
1.03979e-06
1.02282e-06
1.0658e-06
1.06544e-06
1.23931e-06
1.29364e-06
1.03831e-06
1.0317e-06
1.06585e-06
1.06041e-06
1.03839e-06
1.06124e-06
1.05643e-06
1.25551e-06
1.28826e-06
1.02586e-06
1.05797e-06
1.05629e-06
1.27881e-06
1.30519e-06
1.32876e-06
1.0782e-06
1.08863e-06
1.10738e-06
1.13028e-06
1.31545e-06
1.36479e-06
1.07831e-06
1.07594e-06
1.10698e-06
1.11192e-06
1.069e-06
1.13164e-06
1.10929e-06
1.30088e-06
1.33357e-06
1.07334e-06
1.11368e-06
1.12035e-06
1.33919e-06
1.33276e-06
1.33347e-06
1.11237e-06
1.13314e-06
1.12061e-06
1.12924e-06
1.36812e-06
1.34761e-06
1.11195e-06
1.11629e-06
1.11921e-06
1.1199e-06
1.1167e-06
1.13218e-06
1.12188e-06
1.33753e-06
1.33558e-06
1.12751e-06
1.12493e-06
1.13144e-06
1.34227e-06
1.33553e-06
1.3428e-06
1.12363e-06
1.12411e-06
1.13406e-06
1.1127e-06
1.3463e-06
1.31166e-06
1.12177e-06
1.12091e-06
1.13368e-06
1.13077e-06
1.12153e-06
1.11108e-06
1.12134e-06
1.33705e-06
1.34078e-06
1.13013e-06
1.13172e-06
1.12457e-06
1.32952e-06
1.34623e-06
1.34881e-06
1.13622e-06
1.11196e-06
1.13918e-06
1.12255e-06
1.31193e-06
1.32011e-06
1.13718e-06
1.1362e-06
1.14193e-06
1.14922e-06
1.12308e-06
1.12084e-06
1.13898e-06
1.34501e-06
1.35562e-06
1.12435e-06
1.1441e-06
1.13444e-06
1.34669e-06
1.35192e-06
1.37409e-06
1.14126e-06
1.13398e-06
1.16596e-06
1.17607e-06
1.33146e-06
1.38682e-06
1.14369e-06
1.15089e-06
1.16482e-06
1.15981e-06
1.14719e-06
1.17917e-06
1.17577e-06
1.35914e-06
1.36868e-06
1.14306e-06
1.16203e-06
1.17362e-06
1.38529e-06
1.38344e-06
1.40167e-06
1.17748e-06
1.18754e-06
1.19892e-06
1.20415e-06
1.39748e-06
1.414e-06
1.1754e-06
1.16736e-06
1.19672e-06
1.19214e-06
1.18324e-06
1.20376e-06
1.19407e-06
1.37452e-06
1.39354e-06
1.18128e-06
1.19137e-06
1.19239e-06
1.39861e-06
1.40418e-06
1.40187e-06
1.201e-06
1.20573e-06
1.20306e-06
1.20711e-06
1.4162e-06
1.41028e-06
1.19919e-06
1.19742e-06
1.20169e-06
1.20442e-06
1.19509e-06
1.2052e-06
1.19836e-06
1.39817e-06
1.4044e-06
1.19375e-06
1.20355e-06
1.19816e-06
1.39856e-06
1.40456e-06
1.41504e-06
1.20452e-06
1.20714e-06
1.21454e-06
1.20786e-06
1.41143e-06
1.40715e-06
1.20315e-06
1.20637e-06
1.21503e-06
1.2188e-06
1.20116e-06
1.20647e-06
1.21546e-06
1.408e-06
1.42134e-06
1.20134e-06
1.21936e-06
1.2172e-06
1.41626e-06
1.42016e-06
1.42953e-06
1.21908e-06
1.20961e-06
1.2296e-06
1.22604e-06
1.40984e-06
1.42384e-06
1.22043e-06
1.22406e-06
1.23245e-06
1.23424e-06
1.22083e-06
1.22669e-06
1.23122e-06
1.42658e-06
1.43285e-06
1.2228e-06
1.23379e-06
1.23286e-06
1.43021e-06
1.43225e-06
1.43647e-06
1.23145e-06
1.23343e-06
1.23973e-06
1.25e-06
1.43134e-06
1.4492e-06
1.23444e-06
1.23545e-06
1.2388e-06
1.23688e-06
1.23286e-06
1.25011e-06
1.2405e-06
1.43427e-06
1.42974e-06
1.23431e-06
1.23624e-06
1.23896e-06
1.43694e-06
1.44024e-06
1.4502e-06
1.24426e-06
1.25217e-06
1.25604e-06
1.25245e-06
1.45262e-06
1.4466e-06
1.24107e-06
1.23777e-06
1.25186e-06
1.2488e-06
1.24503e-06
1.25262e-06
1.257e-06
1.43222e-06
1.44563e-06
1.242e-06
1.24936e-06
1.25421e-06
1.45202e-06
1.45365e-06
1.45639e-06
1.25803e-06
1.25174e-06
1.26025e-06
1.25209e-06
1.44738e-06
1.44251e-06
1.25554e-06
1.25451e-06
1.2622e-06
1.26733e-06
1.25883e-06
1.25201e-06
1.26033e-06
1.45187e-06
1.46321e-06
1.25754e-06
1.26749e-06
1.26237e-06
1.4563e-06
1.45888e-06
1.46651e-06
1.2611e-06
1.25411e-06
1.26953e-06
1.26986e-06
1.44627e-06
1.46726e-06
1.26365e-06
1.26909e-06
1.27163e-06
1.27156e-06
1.26076e-06
1.26847e-06
1.26742e-06
1.46564e-06
1.46679e-06
1.26315e-06
1.27087e-06
1.26906e-06
1.46382e-06
1.471e-06
1.47865e-06
1.27404e-06
1.27657e-06
1.28461e-06
1.28915e-06
1.47457e-06
1.48771e-06
1.27513e-06
1.27302e-06
1.28214e-06
1.28136e-06
1.27207e-06
1.28917e-06
1.28598e-06
1.46953e-06
1.47699e-06
1.27274e-06
1.28086e-06
1.28373e-06
1.481e-06
1.48085e-06
1.48115e-06
1.2861e-06
1.29001e-06
1.2875e-06
1.28783e-06
1.48975e-06
1.48166e-06
1.28289e-06
1.284e-06
1.2847e-06
1.28707e-06
1.28836e-06
1.28908e-06
1.28979e-06
1.4806e-06
1.48286e-06
1.28593e-06
1.2886e-06
1.28804e-06
1.48339e-06
1.48373e-06
1.4895e-06
1.28816e-06
1.28668e-06
1.29235e-06
1.28638e-06
1.48269e-06
1.48177e-06
1.28711e-06
1.28735e-06
1.29471e-06
1.29121e-06
1.28966e-06
1.28789e-06
1.29056e-06
1.48446e-06
1.48698e-06
1.28814e-06
1.29037e-06
1.29001e-06
1.48597e-06
1.49239e-06
1.49538e-06
1.29374e-06
1.2881e-06
1.29848e-06
1.29924e-06
1.48537e-06
1.49674e-06
1.29578e-06
1.29452e-06
1.29896e-06
1.30339e-06
1.29279e-06
1.30008e-06
1.30174e-06
1.49086e-06
1.50039e-06
1.29251e-06
1.30243e-06
1.3027e-06
1.4997e-06
1.49832e-06
1.50406e-06
1.30107e-06
1.30296e-06
1.30839e-06
1.31041e-06
1.5009e-06
1.50788e-06
1.30095e-06
1.30437e-06
1.30582e-06
1.30387e-06
1.30378e-06
1.30902e-06
1.30584e-06
1.50304e-06
1.49909e-06
1.3049e-06
1.30494e-06
1.30609e-06
1.50215e-06
1.50632e-06
1.50451e-06
1.30929e-06
1.31096e-06
1.30898e-06
1.30869e-06
1.51033e-06
1.50516e-06
1.3063e-06
1.30347e-06
1.30652e-06
1.30454e-06
1.30584e-06
1.3081e-06
1.30576e-06
1.50033e-06
1.5022e-06
1.30558e-06
1.30492e-06
1.30502e-06
1.50105e-06
1.50628e-06
1.51049e-06
1.30866e-06
1.3074e-06
1.30973e-06
1.30677e-06
1.50617e-06
1.50389e-06
1.30714e-06
1.30757e-06
1.31391e-06
1.31736e-06
1.30609e-06
1.30671e-06
1.31277e-06
1.50637e-06
1.51725e-06
1.30551e-06
1.31663e-06
1.31429e-06
1.51345e-06
1.51328e-06
1.51389e-06
1.31165e-06
1.30791e-06
1.3147e-06
1.31802e-06
1.50739e-06
1.51919e-06
1.31504e-06
1.31839e-06
1.31521e-06
1.31699e-06
1.31552e-06
1.31892e-06
1.31905e-06
1.52003e-06
1.51575e-06
1.31691e-06
1.31795e-06
1.31883e-06
1.51911e-06
1.5156e-06
1.5196e-06
1.31537e-06
1.32056e-06
1.32018e-06
1.32294e-06
1.52316e-06
1.52549e-06
1.31508e-06
1.31612e-06
1.31779e-06
1.31581e-06
1.319e-06
1.32276e-06
1.3167e-06
1.51693e-06
1.51548e-06
1.31825e-06
1.31577e-06
1.31527e-06
1.51438e-06
1.52278e-06
1.52251e-06
1.32148e-06
1.32284e-06
1.32178e-06
1.31874e-06
1.52676e-06
1.51783e-06
1.31976e-06
1.31673e-06
1.32132e-06
1.3202e-06
1.31627e-06
1.31799e-06
1.317e-06
1.51796e-06
1.5209e-06
1.31492e-06
1.31911e-06
1.31627e-06
1.51774e-06
1.52363e-06
1.51894e-06
1.32049e-06
1.31675e-06
1.31744e-06
1.31311e-06
1.51866e-06
1.51198e-06
1.32077e-06
1.32037e-06
1.31834e-06
1.32009e-06
1.31891e-06
1.31381e-06
1.32339e-06
1.52292e-06
1.52312e-06
1.31894e-06
1.32177e-06
1.32487e-06
1.5286e-06
1.52097e-06
1.52432e-06
1.31735e-06
1.31304e-06
1.32026e-06
1.31864e-06
1.514e-06
1.52233e-06
1.31827e-06
1.32032e-06
1.32041e-06
1.32195e-06
1.32365e-06
1.31915e-06
1.32124e-06
1.52541e-06
1.52631e-06
1.32517e-06
1.32267e-06
1.32137e-06
1.52472e-06
1.52663e-06
1.52585e-06
1.32134e-06
1.32253e-06
1.32217e-06
1.33082e-06
1.52733e-06
1.54016e-06
1.32094e-06
1.32183e-06
1.3209e-06
1.31925e-06
1.31971e-06
1.33037e-06
1.31825e-06
1.5276e-06
1.52248e-06
1.31904e-06
1.31818e-06
1.31604e-06
1.51914e-06
1.52798e-06
1.53085e-06
1.32269e-06
1.33135e-06
1.32413e-06
1.32659e-06
1.54337e-06
1.53303e-06
1.32102e-06
1.31892e-06
1.32284e-06
1.3204e-06
1.31867e-06
1.32584e-06
1.32262e-06
1.52397e-06
1.52668e-06
1.31623e-06
1.31998e-06
1.32153e-06
1.52921e-06
1.53256e-06
1.52292e-06
1.32375e-06
1.32043e-06
1.31611e-06
1.30634e-06
1.53207e-06
1.50513e-06
1.32274e-06
1.32133e-06
1.31744e-06
1.32157e-06
1.32272e-06
1.30619e-06
1.31829e-06
1.52938e-06
1.52988e-06
1.32242e-06
1.32213e-06
1.32099e-06
1.52739e-06
1.52381e-06
1.51981e-06
1.31374e-06
1.30504e-06
1.31135e-06
1.3091e-06
1.50615e-06
1.51758e-06
1.31544e-06
1.32073e-06
1.31263e-06
1.31636e-06
1.31659e-06
1.31008e-06
1.31339e-06
1.53132e-06
1.52565e-06
1.31941e-06
1.317e-06
1.31488e-06
1.5229e-06
1.52251e-06
1.52773e-06
1.31171e-06
1.31414e-06
1.31695e-06
1.32349e-06
1.52485e-06
1.53968e-06
1.31265e-06
1.31443e-06
1.31466e-06
1.30848e-06
1.31284e-06
1.32329e-06
1.31226e-06
1.52666e-06
1.51607e-06
1.3132e-06
1.30768e-06
1.30949e-06
1.51985e-06
1.53022e-06
1.52501e-06
1.31757e-06
1.32402e-06
1.31447e-06
1.3196e-06
1.54247e-06
1.53428e-06
1.31482e-06
1.30745e-06
1.3116e-06
1.30779e-06
1.31264e-06
1.31991e-06
1.31474e-06
1.51721e-06
1.51907e-06
1.30927e-06
1.30749e-06
1.31173e-06
1.5266e-06
1.52593e-06
1.51651e-06
1.31147e-06
1.3155e-06
1.30351e-06
1.30086e-06
1.53464e-06
1.51081e-06
1.30988e-06
1.31031e-06
1.30574e-06
1.31507e-06
1.31471e-06
1.30154e-06
1.30988e-06
1.52363e-06
1.53335e-06
1.3129e-06
1.31578e-06
1.31262e-06
1.52531e-06
1.51773e-06
1.51285e-06
1.30172e-06
1.29658e-06
1.29714e-06
1.28907e-06
1.5109e-06
1.49745e-06
1.30488e-06
1.31488e-06
1.29976e-06
1.30241e-06
1.30653e-06
1.28822e-06
1.29392e-06
1.53531e-06
1.51686e-06
1.31064e-06
1.30226e-06
1.29721e-06
1.50779e-06
1.51424e-06
1.51707e-06
1.29639e-06
1.28871e-06
1.29786e-06
1.29714e-06
1.49898e-06
1.51637e-06
1.29797e-06
1.29634e-06
1.29607e-06
1.28802e-06
1.29119e-06
1.29606e-06
1.29026e-06
1.5161e-06
1.50058e-06
1.29298e-06
1.2869e-06
1.28891e-06
1.50567e-06
1.52081e-06
1.51948e-06
1.30004e-06
1.30307e-06
1.3004e-06
1.30707e-06
1.52531e-06
1.5337e-06
1.29665e-06
1.28848e-06
1.29733e-06
1.29793e-06
1.29398e-06
1.30805e-06
1.30474e-06
1.50405e-06
1.52175e-06
1.29034e-06
1.2995e-06
1.30265e-06
1.52897e-06
1.51962e-06
1.48342e-06
1.29724e-06
1.30388e-06
1.27238e-06
1.27177e-06
1.53346e-06
1.48168e-06
1.29555e-06
1.29863e-06
1.274e-06
1.28353e-06
1.30461e-06
1.27278e-06
1.28131e-06
1.52528e-06
1.49973e-06
1.30321e-06
1.2863e-06
1.28489e-06
1.49685e-06
1.48376e-06
1.49891e-06
1.26864e-06
1.26658e-06
1.27268e-06
1.27041e-06
1.48126e-06
1.49354e-06
1.26986e-06
1.27438e-06
1.27161e-06
1.26493e-06
1.27189e-06
1.26797e-06
1.26331e-06
1.49746e-06
1.47957e-06
1.27424e-06
1.26225e-06
1.26193e-06
1.48013e-06
1.51151e-06
1.53875e-06
1.28353e-06
1.28203e-06
1.29891e-06
1.29742e-06
1.50689e-06
1.5361e-06
1.28127e-06
1.2673e-06
1.29909e-06
1.29435e-06
1.26628e-06
1.29665e-06
1.29094e-06
1.48571e-06
1.52929e-06
1.26355e-06
1.29262e-06
1.28994e-06
1.52398e-06
1.54005e-06
1.47363e-06
1.2985e-06
1.29679e-06
1.2602e-06
1.25753e-06
1.53728e-06
1.47102e-06
1.29911e-06
1.29769e-06
1.26373e-06
1.28079e-06
1.29379e-06
1.26152e-06
1.27884e-06
1.53542e-06
1.50399e-06
1.29438e-06
1.28557e-06
1.28374e-06
1.50169e-06
1.46685e-06
1.40825e-06
1.24445e-06
1.24301e-06
1.19988e-06
1.20408e-06
1.46519e-06
1.41613e-06
1.2471e-06
1.26333e-06
1.19839e-06
1.2012e-06
1.2645e-06
1.20534e-06
1.20718e-06
1.49747e-06
1.41469e-06
1.2692e-06
1.20335e-06
1.20689e-06
1.42382e-06
1.39354e-06
1.16631e-06
1.1719e-06
1.40332e-06
1.16422e-06
1.16386e-06
7.41413e-07
7.35281e-07
7.37586e-07
1.16975e-06
1.39472e-06
1.16856e-06
1.42089e-09
2.49432e-09
8.4496e-10
9.7812e-10
1.54746e-09
3.68362e-09
2.37718e-09
7.95456e-10
1.58703e-09
4.46254e-09
1.14182e-09
1.06832e-08
5.08476e-09
6.75602e-09
8.8827e-09
7.5602e-09
1.96981e-07
5.95626e-09
3.10064e-07
1.48358e-06
2.94551e-06
8.74535e-09
2.97249e-07
7.25897e-09
4.22301e-07
1.50595e-09
1.86734e-09
2.04434e-09
1.59321e-09
1.49007e-09
1.85706e-09
2.03232e-09
1.52954e-09
7.27147e-08
1.22993e-09
3.2461e-09
1.54725e-09
5.24081e-08
1.21944e-09
1.66747e-06
3.32846e-06
1.53553e-09
2.58364e-09
8.93192e-08
5.27742e-09
1.56366e-09
2.56105e-09
6.65712e-08
2.14921e-07
2.13421e-07
4.82308e-09
1.83753e-07
1.9718e-07
1.68758e-08
5.65617e-07
1.21213e-08
7.95896e-07
6.74098e-06
9.75915e-06
1.75809e-08
1.05704e-06
1.31643e-08
9.67962e-07
1.47635e-09
1.82462e-09
2.00121e-09
1.50253e-09
1.43513e-09
1.71057e-09