/*--------------------------------*- C++ -*----------------------------------*\
| =========                 |                                                 |
| \\      /  F ield         | OpenFOAM: The Open Source CFD Toolbox           |
|  \\    /   O peration     | Version:  v2012                                 |
|   \\  /    A nd           | Website:  www.openfoam.com                      |
|    \\/     M anipulation  |                                                 |
\*---------------------------------------------------------------------------*/
FoamFile
{
    version     2.0;
    format      ascii;
    class       volScalarField;
    location    "575";
    object      nut;
}
// * * * * * * * * * * * * * * * * * * * * * * * * * * * * * * * * * * * * * //

dimensions      [0 2 -1 0 0 0 0];


internalField   nonuniform List<scalar> 
171728
(
2.76363e-06
1.641e-06
1.93395e-06
2.25594e-06
2.76401e-06
1.58867e-06
1.87415e-06
2.32542e-06
2.7851e-06
1.57612e-06
1.8284e-06
2.58775e-06
2.73018e-06
1.56542e-06
1.80726e-06
3.03515e-06
2.70857e-06
1.53771e-06
1.76815e-06
3.06539e-06
2.72426e-06
1.50758e-06
1.72669e-06
2.31284e-06
2.73595e-06
1.46976e-06
1.7204e-06
2.44303e-06
2.74649e-06
1.42169e-06
1.73654e-06
2.60304e-06
2.75644e-06
1.37196e-06
1.92548e-06
2.60019e-06
2.76882e-06
1.32388e-06
2.42708e-06
2.19831e-06
2.78436e-06
1.2807e-06
3.30832e-06
1.95963e-06
2.80049e-06
1.23512e-06
4.11666e-06
1.80177e-06
2.81391e-06
1.17818e-06
4.32884e-06
1.71377e-06
2.82686e-06
1.12102e-06
3.39668e-06
1.6951e-06
2.83597e-06
1.07147e-06
2.47054e-06
1.79923e-06
2.84144e-06
1.0313e-06
2.14915e-06
1.95308e-06
2.84615e-06
9.97345e-07
1.78893e-06
1.90707e-06
2.85333e-06
9.71036e-07
1.52853e-06
1.63746e-06
2.84742e-06
1.0136e-06
1.52496e-06
1.3465e-06
2.84103e-06
1.02344e-06
1.38576e-06
1.62209e-06
2.82421e-06
1.30883e-06
1.49008e-06
1.8213e-06
2.7731e-06
1.5635e-06
1.73406e-06
2.02044e-06
2.69113e-06
1.95916e-06
2.16442e-06
3.79475e-06
2.59744e-06
3.23768e-06
2.94766e-06
4.95106e-06
2.48183e-06
3.31327e-06
3.89643e-06
8.77601e-06
2.32567e-06
6.30517e-06
5.18697e-06
1.1803e-05
2.18611e-06
5.63928e-06
7.88377e-06
1.89623e-05
2.07797e-06
9.1479e-06
8.54636e-06
2.24258e-05
1.88497e-06
1.31039e-05
1.39811e-05
3.16341e-05
2.02867e-06
1.32953e-05
1.43234e-05
3.98129e-05
1.96237e-06
1.98098e-05
1.69318e-05
4.47735e-05
1.93971e-06
2.07065e-05
2.39693e-05
5.22977e-05
2.45e-06
2.54637e-05
2.58275e-05
5.50336e-05
2.62758e-06
3.13658e-05
3.12822e-05
7.18229e-05
3.41002e-06
3.6305e-05
3.56286e-05
7.11202e-05
3.98642e-06
4.35003e-05
4.19951e-05
6.39543e-05
5.51475e-06
3.84136e-05
4.20478e-05
8.31107e-05
5.02259e-06
6.1809e-05
5.72518e-05
8.99903e-05
9.19461e-06
6.33668e-05
6.18341e-05
8.85448e-05
9.40421e-06
5.4269e-05
5.97384e-05
8.79224e-05
1.01286e-05
7.25528e-05
6.93345e-05
9.60028e-05
1.62694e-05
9.27588e-05
7.84384e-05
0.000103495
1.78073e-05
8.93715e-05
8.52159e-05
0.000103445
1.97412e-05
8.05959e-05
8.78682e-05
0.000104239
2.35098e-05
9.46645e-05
9.19e-05
0.000113294
3.12515e-05
0.000107396
0.000104799
0.000117483
3.6836e-05
0.00010532
0.000105533
0.00011477
3.63547e-05
0.000108374
0.000106481
0.000119221
4.28338e-05
0.000119366
0.000121731
0.000130262
5.74842e-05
0.000123497
0.000125047
0.000132756
6.11543e-05
0.000118393
0.000121312
0.000124646
5.46352e-05
0.000135078
0.000126877
0.000137695
7.69401e-05
0.000139535
0.000143585
0.000144617
8.60952e-05
0.000137668
0.000141211
0.000141347
8.13767e-05
0.000129905
0.000134819
0.000136633
8.79643e-05
0.000154412
0.000149582
0.000149834
0.000108837
0.000163801
0.000158382
0.000156325
0.000109718
0.000157021
0.000157461
0.000153484
0.00011465
0.000149416
0.000157593
0.000150439
0.000114814
0.000157085
0.000159623
0.000157505
0.000121843
0.000173236
0.000167353
0.000164069
0.000139485
0.000175886
0.000171719
0.000163604
0.000141596
0.000174304
0.000173302
0.00016392
0.000143765
0.000173607
0.000179967
0.000169461
0.000153103
0.000181683
0.000181783
0.000169817
0.000156572
0.000186401
0.000179718
0.000172667
0.000163332
0.000185904
0.000187628
0.000175545
0.000168356
0.000184633
0.000191061
0.000174794
0.000173021
0.000193966
0.000191002
0.000178897
0.000179835
0.000197836
0.0001963
0.000181805
0.000185092
0.00019728
0.000197219
0.000181052
0.000188894
0.000198079
0.000199332
0.000183481
0.000193393
0.000203315
0.000203788
0.000186579
0.000200338
0.000206457
0.000203956
0.000186367
0.000202832
0.000205998
0.000206061
0.000186956
0.000207463
0.000207251
0.000210754
0.000191201
0.000210574
0.000212999
0.000211078
0.000191596
0.00021682
0.000214405
0.000211979
0.000190665
0.000220262
0.000213235
0.000214304
0.000193566
0.000220254
0.000212757
0.000217241
0.000196259
0.000225226
0.000219098
0.000217823
0.000194593
0.000228969
0.00022332
0.000217422
0.000195568
0.000233969
0.000219957
0.000221357
0.000198254
0.000233957
0.000216206
0.000222962
0.000197993
0.000233007
0.000223072
0.000222125
0.000197572
0.000240153
0.000227897
0.000220542
0.000198452
0.000242345
0.000227549
0.000225427
0.000201138
0.00024207
0.000221649
0.000229707
0.000200592
0.000242132
0.000218887
0.000223872
0.000196647
0.000246181
0.000229268
0.00022379
0.000200759
0.000249363
0.000231833
0.000231392
0.000206559
0.000243861
0.000219746
0.000223242
0.000195767
0.000249737
0.000229113
0.000223128
0.000198593
0.000261727
0.000239401
0.000237068
0.000209411
0.000248762
0.000221725
0.000228105
0.000202133
2.22973e-06
3.12974e-06
2.1691e-06
2.24612e-06
2.10077e-06
2.96717e-06
2.80017e-06
2.61711e-06
2.94122e-06
2.97505e-06
2.1027e-06
2.39493e-06
2.27113e-06
2.46302e-06
4.6429e-06
2.26156e-06
2.22259e-06
2.31575e-06
3.5706e-06
1.70341e-06
4.24882e-06
1.71793e-06
2.24203e-06
2.19645e-06
1.65552e-06
3.52521e-06
1.63218e-06
3.98806e-06
1.91463e-06
1.59638e-06
1.92064e-06
2.26744e-06
2.35769e-06
3.45925e-06
1.88997e-06
3.96372e-06
2.31672e-06
2.31145e-06
2.47201e-06
4.63164e-06
1.7278e-06
5.67294e-06
1.75935e-06
2.1938e-06
2.15806e-06
1.63349e-06
4.22842e-06
1.62952e-06
5.68453e-06
1.92193e-06
1.57758e-06
1.92826e-06
2.37095e-06
2.66061e-06
4.18599e-06
1.83503e-06
5.03637e-06
2.55443e-06
2.46306e-06
2.33759e-06
5.51659e-06
1.77279e-06
4.00583e-06
1.81856e-06
2.15587e-06
2.12211e-06
1.63014e-06
6.52241e-06
1.64374e-06
9.41382e-06
1.93002e-06
1.56959e-06
1.95106e-06
2.67835e-06
2.91435e-06
5.43911e-06
1.81633e-06
6.99436e-06
3.01543e-06
2.31589e-06
2.13722e-06
3.40816e-06
1.83341e-06
2.07438e-06
1.86851e-06
2.11945e-06
2.08901e-06
1.6501e-06
9.22073e-06
1.66333e-06
6.11259e-06
1.96137e-06
1.54594e-06
1.9831e-06
2.86245e-06
2.41421e-06
7.59577e-06
1.7766e-06
7.7443e-06
3.16772e-06
2.13125e-06
2.09421e-06
1.82624e-06
1.87599e-06
1.47442e-06
1.8786e-06
2.08659e-06
2.06227e-06
1.66736e-06
4.84919e-06
1.67587e-06
2.43594e-06
1.98722e-06
1.51442e-06
2.00474e-06
2.37842e-06
2.14009e-06
6.97874e-06
1.73756e-06
4.46045e-06
2.36551e-06
2.09169e-06
2.06915e-06
1.4337e-06
1.8729e-06
1.38749e-06
1.84857e-06
2.05937e-06
2.03995e-06
1.67819e-06
2.06782e-06
1.68488e-06
1.58066e-06
2.00917e-06
1.48001e-06
2.00899e-06
2.12133e-06
2.00728e-06
3.94131e-06
1.71712e-06
3.59313e-06
2.43504e-06
2.06725e-06
2.03673e-06
1.38252e-06
1.83717e-06
1.38089e-06
1.80425e-06
2.03615e-06
2.00982e-06
1.6863e-06
1.52563e-06
1.68487e-06
1.46708e-06
2.00718e-06
1.43356e-06
1.99855e-06
2.00582e-06
1.9822e-06
3.68932e-06
1.72731e-06
4.3071e-06
2.61179e-06
2.03404e-06
1.99329e-06
1.38166e-06
1.79305e-06
1.38203e-06
1.75906e-06
2.00554e-06
1.97439e-06
1.68178e-06
1.46017e-06
1.66616e-06
1.44342e-06
1.99407e-06
1.38374e-06
1.98678e-06
1.97966e-06
1.98682e-06
4.55997e-06
1.85658e-06
5.00482e-06
2.65482e-06
1.99032e-06
1.94059e-06
1.38009e-06
1.7498e-06
1.37264e-06
1.72184e-06
1.96971e-06
1.9197e-06
1.65801e-06
1.43877e-06
1.62737e-06
1.42581e-06
1.98157e-06
1.33494e-06
1.95702e-06
1.99169e-06
2.11428e-06
4.70029e-06
2.26591e-06
3.28365e-06
2.25111e-06
1.93592e-06
1.87047e-06
1.36932e-06
1.71173e-06
1.36449e-06
1.67501e-06
1.91361e-06
1.83951e-06
1.61627e-06
1.42198e-06
1.58353e-06
1.4102e-06
1.95016e-06
1.29066e-06
1.9253e-06
2.13005e-06
2.29356e-06
2.8574e-06
3.0678e-06
1.89274e-06
1.97701e-06
1.86518e-06
1.80691e-06
1.36356e-06
1.66019e-06
1.36892e-06
1.60123e-06
1.83187e-06
1.74964e-06
1.57454e-06
1.40589e-06
1.55159e-06
1.39017e-06
1.91703e-06
1.24554e-06
1.89728e-06
2.31101e-06
2.42016e-06
1.6834e-06
3.95846e-06
1.3165e-06
1.81695e-06
1.79938e-06
1.73866e-06
1.37052e-06
1.57833e-06
1.36946e-06
1.50591e-06
1.73928e-06
1.65283e-06
1.54491e-06
1.38328e-06
1.52345e-06
1.36514e-06
1.89398e-06
1.19008e-06
1.87307e-06
2.4172e-06
2.41638e-06
1.25533e-06
4.32077e-06
1.19026e-06
1.72381e-06
1.72625e-06
1.65497e-06
1.36504e-06
1.48631e-06
1.35111e-06
1.41999e-06
1.63895e-06
1.5502e-06
1.51253e-06
1.35273e-06
1.47571e-06
1.30745e-06
1.86429e-06
1.13499e-06
1.82728e-06
2.39759e-06
2.08315e-06
1.18559e-06
3.70405e-06
1.17997e-06
1.70186e-06
1.63717e-06
1.56108e-06
1.34329e-06
1.39866e-06
1.30916e-06
1.34145e-06
1.53228e-06
1.44958e-06
1.46108e-06
1.29261e-06
1.40701e-06
1.2334e-06
1.81248e-06
1.08479e-06
1.76258e-06
2.03823e-06
1.8057e-06
1.20333e-06
2.64783e-06
1.68272e-06
1.77975e-06
1.53763e-06
1.45949e-06
1.29473e-06
1.32509e-06
1.23943e-06
1.28707e-06
1.42641e-06
1.35546e-06
1.39352e-06
1.21842e-06
1.32817e-06
1.17313e-06
1.73215e-06
1.04706e-06
1.66215e-06
1.77463e-06
1.63197e-06
1.92281e-06
2.20501e-06
2.71911e-06
1.95468e-06
1.43173e-06
1.35265e-06
1.22631e-06
1.27069e-06
1.17028e-06
1.22661e-06
1.33167e-06
1.25891e-06
1.31713e-06
1.16206e-06
1.25968e-06
1.12245e-06
1.6353e-06
1.00494e-06
1.53939e-06
1.59381e-06
1.46651e-06
2.95756e-06
1.87654e-06
3.2794e-06
1.95482e-06
1.33183e-06
1.25995e-06
1.16278e-06
1.20674e-06
1.12101e-06
1.15719e-06
1.2414e-06
1.18381e-06
1.25179e-06
1.11203e-06
1.22249e-06
1.09529e-06
1.50846e-06
9.72868e-07
1.40028e-06
1.43385e-06
1.33994e-06
3.23595e-06
1.60888e-06
3.03236e-06
1.66975e-06
1.24774e-06
1.26899e-06
1.12044e-06
1.14265e-06
1.12298e-06
1.14273e-06
1.17335e-06
1.17825e-06
1.21613e-06
1.0884e-06
1.2241e-06
1.10935e-06
1.39852e-06
9.80166e-07
1.36074e-06
1.30525e-06
1.30875e-06
2.88426e-06
1.5104e-06
1.91248e-06
1.46243e-06
1.25901e-06
1.3359e-06
1.11673e-06
1.16658e-06
1.18649e-06
1.15929e-06
1.20303e-06
1.20725e-06
1.21515e-06
1.12057e-06
1.30309e-06
1.19433e-06
1.28407e-06
9.94786e-07
1.23454e-06
1.33746e-06
1.40807e-06
1.69487e-06
1.44508e-06
1.52027e-06
1.38268e-06
1.3983e-06
1.64224e-06
1.21431e-06
1.18876e-06
1.35792e-06
1.38133e-06
1.19674e-06
1.66994e-06
1.3338e-06
1.18885e-06
1.43992e-06
1.31473e-06
1.33374e-06
1.24966e-06
1.45697e-06
1.40697e-06
1.51981e-06
1.58714e-06
1.41981e-06
1.55698e-06
1.91844e-06
1.72028e-06
2.24074e-06
1.41005e-06
1.48547e-06
1.61398e-06
1.62438e-06
1.77111e-06
2.25458e-06
1.49991e-06
1.41838e-06
1.70645e-06
1.63793e-06
1.3861e-06
1.45684e-06
1.40966e-06
1.67454e-06
2.37512e-06
1.47749e-06
1.63941e-06
1.46984e-06
1.70296e-06
2.40388e-06
3.35502e-06
1.71877e-06
1.74282e-06
2.05579e-06
2.09955e-06
2.32506e-06
3.31914e-06
1.80303e-06
1.73186e-06
2.1921e-06
2.0367e-06
1.58878e-06
1.91728e-06
2.08188e-06
2.4659e-06
3.0779e-06
1.61176e-06
2.01814e-06
1.98274e-06
3.61433e-06
3.67916e-06
5.07223e-06
2.20658e-06
2.13391e-06
2.77431e-06
3.07677e-06
3.64319e-06
5.14696e-06
2.30763e-06
2.16923e-06
2.88011e-06
2.83328e-06
2.1192e-06
2.84156e-06
2.5591e-06
3.3453e-06
5.17501e-06
2.0327e-06
2.64143e-06
2.44666e-06
4.39745e-06
5.53029e-06
7.85102e-06
2.95994e-06
3.45305e-06
3.70236e-06
3.18805e-06
6.04859e-06
6.27688e-06
3.06876e-06
3.03218e-06
3.83359e-06
3.61597e-06
2.88443e-06
3.00349e-06
3.5841e-06
5.52938e-06
7.74048e-06
2.78165e-06
3.52022e-06
3.56976e-06
8.34245e-06
8.46876e-06
1.16811e-05
4.02071e-06
3.46847e-06
4.96214e-06
6.12394e-06
6.21531e-06
1.63276e-05
4.16578e-06
4.03875e-06
5.05387e-06
5.14322e-06
3.89123e-06
5.88566e-06
4.81566e-06
8.43475e-06
1.1741e-05
3.88098e-06
5.17783e-06
4.62428e-06
1.10115e-05
1.2502e-05
1.65326e-05
5.30362e-06
6.54446e-06
6.78126e-06
5.89228e-06
1.72722e-05
1.33379e-05
5.40934e-06
5.21365e-06
6.81785e-06
6.87854e-06
5.07325e-06
5.699e-06
6.95292e-06
1.25848e-05
1.58813e-05
4.84526e-06
6.89179e-06
6.78146e-06
1.71973e-05
1.76508e-05
2.27085e-05
7.12557e-06
5.78413e-06
8.6659e-06
8.31611e-06
1.19947e-05
2.268e-05
7.19887e-06
7.75683e-06
8.66438e-06
8.11863e-06
7.91119e-06
8.15686e-06
8.26105e-06
1.70352e-05
2.31367e-05
7.66068e-06
8.06789e-06
7.86245e-06
2.27209e-05
2.39507e-05
2.9278e-05
9.49034e-06
9.47846e-06
1.07852e-05
1.25007e-05
2.60911e-05
3.39095e-05
9.38978e-06
8.47773e-06
1.09496e-05
1.22461e-05
8.00113e-06
1.26097e-05
1.16683e-05
2.35037e-05
3.1603e-05
7.85325e-06
1.26735e-05
1.11937e-05
2.8335e-05
3.06642e-05
3.72551e-05
1.11857e-05
1.26315e-05
1.52922e-05
1.31137e-05
3.48635e-05
3.521e-05
1.13956e-05
1.34829e-05
1.45734e-05
1.40078e-05
1.33868e-05
1.24203e-05
1.48382e-05
3.50017e-05
3.83448e-05
1.23973e-05
1.49219e-05
1.40753e-05
3.98708e-05
3.88905e-05
4.49512e-05
1.62953e-05
1.35934e-05
1.68203e-05
1.75964e-05
3.51512e-05
4.62194e-05
1.5494e-05
1.38041e-05
1.70363e-05
1.59603e-05
1.44763e-05
1.85409e-05
1.65319e-05
3.77524e-05
3.91281e-05
1.4228e-05
1.46746e-05
1.64894e-05
4.20694e-05
4.59039e-05
4.9619e-05
1.77843e-05
1.96012e-05
2.13015e-05
2.27674e-05
4.91429e-05
5.13218e-05
1.80198e-05
1.80211e-05
2.06538e-05
2.27552e-05
1.81672e-05
2.02638e-05
2.30239e-05
4.22872e-05
5.45227e-05
1.79819e-05
2.35563e-05
2.26436e-05
5.20716e-05
5.11239e-05
5.7092e-05
2.1937e-05
2.26736e-05
2.52953e-05
2.25492e-05
5.1219e-05
5.42267e-05
2.1359e-05
2.28156e-05
2.56061e-05
2.43186e-05
2.29771e-05
2.40937e-05
2.14063e-05
5.56538e-05
5.60614e-05
2.25827e-05
2.43832e-05
2.11347e-05
5.2609e-05
5.84229e-05
6.33012e-05
2.6528e-05
2.35002e-05
2.93543e-05
3.08199e-05
5.63818e-05
6.42358e-05
2.68906e-05
2.59041e-05
2.92232e-05
3.02388e-05
2.40851e-05
3.0347e-05
3.48099e-05
5.68498e-05
6.3004e-05
2.34477e-05
3.02964e-05
3.38012e-05
7.01767e-05
6.4773e-05
6.87717e-05
3.1305e-05
3.28574e-05
3.63483e-05
3.58745e-05
6.55503e-05
6.91786e-05
3.07545e-05
3.13109e-05
3.53365e-05
3.44113e-05
3.68048e-05
3.44137e-05
3.80871e-05
6.44919e-05
6.8545e-05
3.64115e-05
3.3948e-05
3.87598e-05
7.14876e-05
6.937e-05
7.32351e-05
3.64336e-05
3.72088e-05
3.82948e-05
4.25068e-05
7.0674e-05
7.48111e-05
3.61071e-05
3.60422e-05
3.99247e-05
4.07959e-05
3.78805e-05
4.23345e-05
3.43113e-05
6.96699e-05
7.38133e-05
3.85605e-05
4.15925e-05
3.6151e-05
6.33768e-05
7.4936e-05
7.91933e-05
4.0499e-05
4.37153e-05
4.85213e-05
4.03809e-05
7.5188e-05
7.11048e-05
4.23504e-05
4.18197e-05
4.77769e-05
4.36716e-05
3.26497e-05
3.99675e-05
4.33647e-05
7.45903e-05
7.57284e-05
3.38588e-05
4.01396e-05
3.32823e-05
7.92426e-05
7.97307e-05
8.06604e-05
4.9311e-05
3.90799e-05
4.76611e-05
5.58871e-05
7.14287e-05
9.07965e-05
4.75768e-05
4.45529e-05
4.77347e-05
5.17127e-05
4.90058e-05
5.64594e-05
5.9425e-05
7.66838e-05
8.44081e-05
4.38109e-05
5.39417e-05
6.78014e-05
8.98722e-05
8.17331e-05
8.85954e-05
4.98251e-05
6.08136e-05
6.0634e-05
6.38245e-05
9.32175e-05
8.86409e-05
5.0078e-05
5.46217e-05
6.04188e-05
6.08326e-05
6.0909e-05
6.49884e-05
6.08475e-05
8.59744e-05
8.83656e-05
7.07495e-05
6.22288e-05
7.18274e-05
8.87491e-05
8.95445e-05
9.02762e-05
6.25139e-05
6.32595e-05
6.29817e-05
5.92118e-05
8.77866e-05
8.20475e-05
6.22097e-05
6.11711e-05
6.38279e-05
6.1499e-05
5.99873e-05
5.79926e-05
5.9625e-05
8.85704e-05
8.83101e-05
6.77737e-05
5.81489e-05
6.02869e-05
8.75714e-05
9.05863e-05
9.32872e-05
6.30848e-05
5.61956e-05
6.55506e-05
6.19506e-05
8.27688e-05
9.53212e-05
6.44108e-05
6.27928e-05
6.66568e-05
6.6927e-05
6.01572e-05
6.14848e-05
6.56408e-05
8.89413e-05
9.40981e-05
5.73398e-05
6.77062e-05
6.47194e-05
9.38095e-05
9.45974e-05
0.000100534
6.82058e-05
7.09536e-05
7.89024e-05
8.66119e-05
9.94537e-05
0.000106959
6.8739e-05
6.87943e-05
7.73773e-05
7.66311e-05
6.96608e-05
9.10055e-05
8.10333e-05
9.51337e-05
9.97363e-05
7.10412e-05
7.63073e-05
8.39773e-05
0.000102789
0.000101481
0.000103154
8.10311e-05
8.83091e-05
8.29534e-05
8.8596e-05
0.000107366
0.000105279
7.92645e-05
7.86777e-05
8.27695e-05
8.42257e-05
8.33336e-05
9.22289e-05
8.45437e-05
0.000100893
0.000103795
8.60741e-05
8.38127e-05
8.80545e-05
0.000103651
0.000103544
0.00010457
8.39086e-05
8.77723e-05
8.48177e-05
8.28526e-05
0.000104906
0.00010175
8.44289e-05
8.55578e-05
8.59235e-05
8.68846e-05
8.35958e-05
8.35027e-05
8.25457e-05
0.000104334
0.000105485
8.74817e-05
8.78127e-05
8.43643e-05
0.000103355
0.00010489
0.000109583
8.48346e-05
8.06532e-05
9.25436e-05
8.99647e-05
0.000101647
0.000109885
8.54344e-05
8.72665e-05
9.16846e-05
9.01673e-05
8.41635e-05
8.7751e-05
9.26432e-05
0.000105813
0.000108101
8.49036e-05
8.92892e-05
9.38149e-05
0.000111497
0.000111373
0.000115686
9.60747e-05
9.52991e-05
0.00010092
0.000104456
0.000112437
0.000117282
9.52747e-05
9.2544e-05
0.000100764
0.000102003
9.64665e-05
0.000106061
0.000104486
0.000109471
0.000116656
9.74347e-05
0.00010234
0.000104437
0.000117308
0.000116194
0.000118049
0.000102348
0.000105023
0.000106413
0.000102576
0.000117505
0.000116297
0.000102166
0.000104472
0.000107069
0.000106639
0.000105737
0.000106168
0.000104843
0.00011749
0.000117376
0.000105426
0.000106533
0.000103756
0.000115266
0.000118385
0.000118576
0.00010674
0.000103007
0.000106975
0.000108242
0.000116279
0.000120448
0.000107277
0.00010566
0.000106471
0.000103658
0.000103547
0.000106864
0.000102963
0.0001168
0.000117543
0.000102439
0.000103211
0.000102963
0.000117547
0.000118895
0.000125318
0.000107561
0.000109646
0.000114205
0.000116864
0.000121391
0.000126451
0.000107266
0.000107074
0.000114551
0.000118965
0.000106029
0.000116647
0.00011822
0.000119524
0.000128798
0.000105835
0.000118766
0.000118963
0.000128455
0.000127088
0.000131185
0.000117621
0.000119235
0.000124881
0.000123139
0.000127711
0.000129432
0.000117846
0.000121508
0.000124628
0.000124401
0.000122067
0.00012356
0.000126465
0.000129787
0.000130571
0.000122934
0.000125051
0.00012662
0.000133213
0.000131362
0.00012952
0.000125794
0.000122931
0.000124703
0.00011831
0.000129113
0.000125291
0.000125442
0.000124522
0.000123975
0.000122426
0.000126383
0.000118946
0.000123174
0.000130502
0.000127938
0.000126291
0.000123269
0.000121906
0.000126011
0.000128996
0.000133156
0.000123117
0.000118546
0.000123793
0.000132822
0.000126585
0.000139556
0.00012248
0.000120767
0.00012522
0.000122717
0.00012069
0.000131777
0.000121309
0.00012715
0.000130837
0.00011906
0.000119106
0.000125178
0.000134215
0.000135595
0.000141901
0.000129165
0.000135795
0.00013918
0.00013906
0.000140728
0.00014133
0.000129792
0.000128554
0.000139154
0.000141386
0.000128531
0.000139215
0.000141315
0.000134085
0.000145104
0.00013312
0.000142181
0.000143031
0.000144573
0.000142109
0.000140638
0.000140147
0.000139221
0.000140231
0.000138011
0.000141288
0.000139397
0.000140208
0.000142807
0.000140278
0.000142536
0.000142527
0.000138574
0.000142327
0.000145521
0.000142136
0.000143354
0.000142533
0.000139932
0.000141625
0.00014024
0.000139566
0.000139685
0.000137186
0.000136548
0.000131057
0.000139101
0.000132031
0.000139601
0.000141388
0.000136283
0.000136566
0.000141617
0.00013178
0.00013843
0.000141568
0.000137323
0.000138559
0.0001366
0.000133792
0.000137101
0.000140562
0.000149228
0.000136648
0.000129828
0.00014758
0.000149644
0.000132446
0.000152158
0.000136645
0.00013487
0.000147719
0.000145154
0.000136843
0.000148088
0.000142292
0.00013738
0.000148488
0.000132056
0.000144104
0.000144354
0.00014706
0.000150369
0.000152301
0.000150674
0.000155236
0.000154909
0.000162121
0.000154855
0.000160339
0.000150663
0.000150071
0.000154964
0.000156748
0.000147768
0.000162729
0.000157376
0.000150669
0.000154068
0.000150516
0.000157758
0.000160598
0.000156182
0.000152249
0.000152664
0.000154834
0.00016293
0.000155914
0.000159135
0.000160269
0.000154143
0.000154969
0.000157203
0.000154808
0.000156007
0.000158217
0.000160147
0.000157907
0.000154034
0.000152574
0.00016149
0.000157939
0.000160785
0.000153878
0.000153339
0.000154805
0.000156995
0.000156693
0.000158875
0.000151906
0.000153267
0.00014696
0.000155992
0.00015526
0.000159212
0.000157528
0.000157034
0.000151377
0.000154303
0.000152311
0.000154307
0.000158884
0.000156754
0.000155025
0.000150481
0.000154659
0.000153256
0.000158749
0.000150203
0.000155985
0.000151286
0.000145867
0.000151212
0.000159404
0.000159414
0.000157192
0.000160337
0.000153568
0.000151261
0.000158182
0.000155025
0.000155986
0.000153809
0.000158874
0.000156723
0.000155804
0.000153785
0.000162339
0.000156048
0.000156423
0.000166992
0.000169789
0.000154015
0.000164804
0.000157086
0.000159827
0.000166576
0.00016417
0.000161231
0.000170683
0.000169639
0.000155982
0.000159862
0.000160708
0.00016513
0.000169472
0.000163633
0.000163545
0.000165092
0.000169889
0.000172639
0.000173695
0.000175994
0.000165876
0.000167226
0.000169353
0.000166776
0.000173256
0.000171838
0.000171226
0.000175861
0.000172512
0.000161004
0.000163824
0.00017096
0.000171426
0.000172149
0.000163933
0.000164875
0.00016391
0.00017382
0.000176108
0.000172724
0.000175423
0.000167133
0.000166134
0.0001734
0.000172172
0.000172074
0.000172165
0.000172149
0.000174887
0.000170584
0.000163822
0.000164498
0.00017176
0.00017224
0.000170401
0.000163229
0.000164102
0.000168572
0.000172459
0.000174914
0.000176657
0.000172815
0.000165881
0.000164649
0.000171799
0.000173044
0.000176909
0.000178382
0.000171156
0.000172469
0.000177144
0.000165156
0.000169917
0.000171544
0.000178566
0.000177632
0.000168899
0.000169211
0.000170102
0.00017825
0.000173313
0.000179446
0.000179346
0.000164902
0.000170266
0.000178658
0.000179895
0.000181323
0.00018188
0.000178734
0.000179565
0.000179889
0.000170473
0.000170908
0.000179173
0.000181772
0.000180972
0.000170041
0.000169974
0.000171608
0.000179535
0.000181558
0.000182657
0.000185918
0.000171435
0.000175241
0.000181359
0.000181927
0.000181255
0.000180448
0.000179651
0.000185933
0.00018274
0.000170656
0.000169177
0.000180755
0.000180164
0.000181436
0.000171802
0.000172329
0.000175195
0.000184204
0.000186372
0.000187478
0.000186242
0.000175236
0.000173462
0.000182163
0.000179936
0.000186679
0.000185227
0.000184434
0.000186301
0.000187679
0.000169331
0.000174988
0.000182767
0.000185594
0.000187176
0.000175459
0.000175292
0.000175092
0.000187899
0.000185812
0.000187361
0.000184031
0.000173012
0.00017221
0.000187683
0.000187335
0.000188336
0.000190817
0.000188072
0.000184134
0.000187549
0.000175861
0.000177366
0.00018809
0.000190849
0.000188341
0.000175036
0.000175146
0.000178831
0.000187236
0.000184817
0.000191309
0.000192192
0.000172907
0.000179706
0.000188728
0.000191038
0.000191914
0.000190725
0.000187121
0.000191672
0.000190261
0.000177268
0.000177404
0.000188173
0.000190495
0.000190689
0.00017797
0.000179466
0.000180744
0.000192988
0.00019435
0.000196064
0.000197482
0.000180719
0.000182718
0.000193185
0.000191566
0.000195004
0.000195298
0.000192374
0.000197535
0.000196625
0.000177806
0.000181108
0.000192246
0.000195293
0.000196064
0.00018175
0.000180602
0.000181296
0.000196327
0.000197724
0.000196604
0.000197327
0.000182554
0.00018118
0.000194851
0.000196095
0.000196458
0.000196501
0.000197214
0.000197634
0.000197574
0.000181328
0.000181341
0.00019672
0.000197428
0.000197082
0.000181368
0.000181735
0.000183456
0.000197098
0.000196959
0.000198481
0.000196064
0.000180805
0.000181708
0.000197584
0.000196293
0.000199261
0.000198773
0.000197277
0.0001967
0.000197624
0.00018105
0.00018313
0.000196782
0.000197735
0.000197559
0.000182703
0.000183446
0.000185348
0.000198876
0.000197311
0.000201716
0.000201949
0.000182349
0.000185594
0.000199597
0.000200269
0.000202101
0.000203237
0.000199095
0.000201936
0.000202736
0.000183945
0.000186578
0.000199225
0.000203183
0.000203318
0.000186449
0.000185872
0.000187358
0.000203053
0.000203562
0.000205629
0.000206517
0.000186188
0.000188664
0.000203093
0.000203637
0.000204548
0.000203764
0.000203543
0.000206136
0.000204703
0.000186505
0.00018567
0.000204025
0.000204201
0.000204666
0.000186672
0.000187253
0.00018752
0.000205892
0.00020681
0.000205942
0.000206442
0.0001886
0.000187479
0.00020456
0.000203351
0.000205222
0.000204615
0.000204731
0.000206289
0.000204251
0.000185264
0.00018743
0.000204608
0.000204205
0.000203777
0.000186416
0.000187834
0.000189881
0.00020587
0.000206138
0.000208065
0.000205295
0.000187062
0.000187736
0.000206513
0.000206642
0.000209264
0.000210243
0.000204891
0.000205363
0.00020904
0.000188402
0.000191301
0.000204728
0.000210145
0.00020967
0.000190928
0.000189913
0.000190072
0.000208637
0.00020686
0.000209645
0.000211805
0.000188524
0.000192477
0.000209566
0.000210649
0.000209585
0.000210776
0.000210144
0.000212166
0.000211868
0.000191215
0.000190767
0.000210602
0.000211118
0.000211745
0.00019175
0.000190322
0.000193305
0.000210588
0.000212764
0.000213648
0.000214383
0.000192764
0.000194005
0.00020987
0.00021063
0.000213126
0.000211507
0.000211971
0.000214243
0.000211762
0.000190529
0.000191699
0.000211778
0.000211085
0.00021133
0.000190892
0.000193424
0.000193454
0.000214259
0.000214675
0.000214716
0.000213723
0.000193822
0.000192358
0.000213906
0.000212656
0.000214732
0.000214178
0.000211489
0.000213487
0.000213336
0.000192075
0.000193223
0.000210941
0.00021373
0.000213392
0.000192957
0.000193205
0.00019342
0.00021448
0.000213309
0.000214008
0.000212253
0.000192075
0.00019152
0.000214674
0.000214301
0.000214496
0.000215866
0.000214525
0.000212485
0.000217075
0.000193143
0.000194833
0.000214917
0.000216636
0.000217729
0.000196273
0.000193759
0.00019553
0.000214498
0.000212166
0.00021715
0.000217239
0.000191662
0.000195561
0.000215217
0.000216615
0.000217324
0.000217863
0.000217486
0.00021741
0.000217442
0.000195068
0.000195743
0.000218166
0.00021797
0.000217517
0.000194999
0.000195406
0.000196557
0.000217479
0.000219059
0.000219561
0.000222274
0.000196367
0.000200361
0.000217473
0.0002179
0.000218944
0.000217688
0.000217288
0.000222212
0.000217498
0.000195561
0.000195231
0.00021711
0.000217315
0.000216384
0.000194867
0.000196956
0.000198694
0.000220277
0.000223395
0.000222037
0.000222296
0.000200633
0.000197647
0.00021978
0.000217966
0.000221589
0.000220641
0.000218858
0.00022193
0.000221366
0.000195379
0.000197615
0.00021737
0.000220613
0.000221219
0.000198317
0.000198475
0.000196959
0.000222208
0.000220203
0.000220428
0.000217019
0.000196498
0.000192435
0.000221877
0.000221284
0.0002211
0.000222328
0.000221649
0.000216925
0.00022128
0.00019775
0.000198855
0.000221794
0.000222594
0.000222499
0.000198154
0.000196615
0.000197202
0.000220111
0.000216222
0.000219798
0.000220332
0.000192071
0.000198257
0.000220849
0.000222621
0.000220672
0.000222444
0.000221094
0.000220669
0.00022098
0.000198809
0.000198517
0.000222467
0.000222708
0.000221775
0.00019778
0.000197712
0.000200533
0.000221329
0.000222921
0.000225019
0.000227191
0.000199293
0.000203123
0.000221482
0.000222083
0.000224152
0.000221316
0.00022105
0.000227079
0.000223295
0.000198198
0.000196703
0.000221559
0.00022103
0.000221234
0.000198057
0.000200543
0.000200032
0.000225731
0.00022806
0.000226146
0.000228806
0.000203175
0.000202448
0.000224596
0.000220932
0.000224945
0.000224006
0.000224186
0.000229101
0.000226018
0.000196211
0.000199722
0.000221916
0.000224037
0.000225169
0.000201083
0.000199708
0.000199108
0.000225248
0.000227077
0.00022375
0.000222523
0.000201539
0.000197361
0.000224719
0.000225284
0.00022492
0.000228422
0.000226586
0.000222724
0.000226136
0.000200348
0.000204078
0.000225794
0.000228779
0.000227813
0.000201183
0.000198952
0.000198637
0.000223507
0.000221589
0.000223029
0.00021948
0.000196879
0.000194138
0.000225054
0.000229305
0.000224666
0.00022529
0.000225024
0.00021934
0.000222455
0.000204085
0.00019903
0.000227412
0.000225197
0.000223564
0.000197379
0.000198603
0.000201954
0.000223285
0.000219316
0.000227051
0.000227509
0.000194186
0.000203
0.000224585
0.000224082
0.000226153
0.00022253
0.000221751
0.000227372
0.000224679
0.000198141
0.000197454
0.000222903
0.000221873
0.000222827
0.000199678
0.000202309
0.000202681
0.000228016
0.000229268
0.000230631
0.000233963
0.000203869
0.00020673
0.000226847
0.000224173
0.000229645
0.000229078
0.000226967
0.000234618
0.000232583
0.000198563
0.000205203
0.00022552
0.000229595
0.000231268
0.000207215
0.000201042
0.000193769
0.00022764
0.00023054
0.00022157
0.000221494
0.000204199
0.000193274
0.000227627
0.000230431
0.000222203
0.000224601
0.000233301
0.000221866
0.000224093
0.000205354
0.000197758
0.000232793
0.000225217
0.000225007
0.000197092
0.000192432
0.000202826
0.000219763
0.000219416
0.000227096
0.000226281
0.00019164
0.000202054
0.00022052
0.000223095
0.000226449
0.000220641
0.000222427
0.00022518
0.000220555
0.000196393
0.000196025
0.000223051
0.000219163
0.000219373
0.000196629
0.000204427
0.000214088
0.000230476
0.000229872
0.000239299
0.000238914
0.000203817
0.000213519
0.000230104
0.000225327
0.000238965
0.000234829
0.000225016
0.000238057
0.000233502
0.000198273
0.00021037
0.000223086
0.000233814
0.000232835
0.000208726
0.000212127
0.000195495
0.000240446
0.000239594
0.000224839
0.000224358
0.000211272
0.000195107
0.000240778
0.000238037
0.000225975
0.000231962
0.000236132
0.000225823
0.000232155
0.000211313
0.00020211
0.000235668
0.000234404
0.000234348
0.000202355
0.000195679
0.000220668
0.000220571
0.000195475
0.000221345
0.000226269
0.000248292
0.000257997
0.000258707
0.000227079
0.000201382
0.000228553
1.06802e-05
2.22572e-06
4.9525e-06
4.5719e-06
6.16755e-07
1.91368e-06
4.41092e-07
2.1719e-06
5.90874e-07
2.278e-06
1.64733e-06
1.23176e-06
2.28429e-06
1.8944e-06
1.04463e-06
1.08866e-06
1.43379e-05
1.05012e-06
1.61945e-05
1.06464e-05
1.28309e-05
1.34963e-06
1.64495e-05
1.30549e-06
1.79827e-05
2.59897e-06
2.86818e-06
2.93237e-06
2.75648e-06
2.59082e-06
2.84059e-06
2.90426e-06
6.58355e-07
3.19366e-07
1.27515e-06
1.62048e-06
6.46397e-07
4.27999e-07
1.26591e-06
1.10647e-05
1.33653e-05
6.47282e-07
1.30725e-06
5.20806e-07
1.91352e-06
6.16159e-07
1.30415e-06
6.50157e-07
1.50459e-06
1.46128e-06
2.26534e-06
1.71351e-06
1.65034e-06
1.28864e-06
1.97549e-05
1.21945e-06
2.21407e-05
1.68837e-05
1.91045e-05
1.54318e-06
2.44221e-05
1.44808e-06
2.38851e-05
2.59299e-06
2.85115e-06
2.88552e-06
2.7882e-06