/*--------------------------------*- C++ -*----------------------------------*\
| =========                 |                                                 |
| \\      /  F ield         | OpenFOAM: The Open Source CFD Toolbox           |
|  \\    /   O peration     | Version:  v2012                                 |
|   \\  /    A nd           | Website:  www.openfoam.com                      |
|    \\/     M anipulation  |                                                 |
\*---------------------------------------------------------------------------*/
FoamFile
{
    version     2.0;
    format      ascii;
    class       volScalarField;
    location    "575";
    object      p;
}
// * * * * * * * * * * * * * * * * * * * * * * * * * * * * * * * * * * * * * //

dimensions      [0 2 -2 0 0 0 0];


internalField   nonuniform List<scalar> 
171728
(
0.00351895
0.00351781
0.00351791
0.00351857
0.00348313
0.00348183
0.00348181
0.00348481
0.00344476
0.00344288
0.00344289
0.00344526
0.00340069
0.00339899
0.00339893
0.00340125
0.00335249
0.00335103
0.00335101
0.0033533
0.00330358
0.00330226
0.00330225
0.00330465
0.00325537
0.00325415
0.00325409
0.00325652
0.00320812
0.00320703
0.00320708
0.00320939
0.0031618
0.00316086
0.00316082
0.0031633
0.00311642
0.00311559
0.00311558
0.00311801
0.00307199
0.00307128
0.00307129
0.00307361
0.00302833
0.00302775
0.00302774
0.00303004
0.00298523
0.00298475
0.00298477
0.00298703
0.0029425
0.00294206
0.00294218
0.00294444
0.00290013
0.00289977
0.00289975
0.00290232
0.00285809
0.00285773
0.00285791
0.00286025
0.00281637
0.00281612
0.00281623
0.00281834
0.00277502
0.00277483
0.00277484
0.00277704
0.00273405
0.00273406
0.00273391
0.0027361
0.00269337
0.00269348
0.00269335
0.00269527
0.00265305
0.00265311
0.00265312
0.00265486
0.00261305
0.00261311
0.00261313
0.00261486
0.00257333
0.0025734
0.00257348
0.00257498
0.00253388
0.0025342
0.00253406
0.0025358
0.00249467
0.0024951
0.0024949
0.00249661
0.00245566
0.00245595
0.00245602
0.0024577
0.00241693
0.00241741
0.00241737
0.00241924
0.00237848
0.00237893
0.00237892
0.00238046
0.00234007
0.00234051
0.00234056
0.00234282
0.00230192
0.00230249
0.00230241
0.00230408
0.00226408
0.0022646
0.00226462
0.0022666
0.00222611
0.00222667
0.00222669
0.00222853
0.00218848
0.00218913
0.00218911
0.00219113
0.00215103
0.00215163
0.00215162
0.00215332
0.00211345
0.00211394
0.00211397
0.00211562
0.00207637
0.00207682
0.00207687
0.00207935
0.00203955
0.00204071
0.00204044
0.00204186
0.00200251
0.00200224
0.00200283
0.00200463
0.00196511
0.0019655
0.00196546
0.00196751
0.00192878
0.0019298
0.00192904
0.0019313
0.00189258
0.00189243
0.00189283
0.00189465
0.00185567
0.00185549
0.00185592
0.00185774
0.00181911
0.00181944
0.00181914
0.00182139
0.00178291
0.00178334
0.00178312
0.00178528
0.0017473
0.00174687
0.00174725
0.001749
0.00171097
0.00171076
0.00171071
0.00171293
0.00167493
0.00167509
0.00167508
0.00167725
0.00163948
0.00163946
0.0016395
0.00164147
0.00160419
0.00160355
0.00160349
0.00160551
0.00156818
0.00156812
0.00156798
0.00156994
0.00153258
0.00153299
0.00153298
0.00153534
0.00149814
0.00149717
0.00149768
0.00149926
0.00146255
0.00146215
0.00146141
0.00146373
0.00142693
0.00142682
0.00142707
0.00142908
0.00139207
0.0013928
0.00139253
0.00139459
0.00135816
0.0013571
0.00135724
0.00135918
0.00132296
0.0013221
0.00132224
0.001324
0.0012874
0.00128719
0.00128736
0.00128931
0.00125208
0.00125263
0.00125234
0.00125458
0.00121779
0.00121783
0.00121747
0.00121949
0.00118389
0.00118283
0.00118318
0.00118477
0.00114907
0.00114876
0.00114904
0.00115085
0.00111428
0.00111419
0.00111423
0.00111628
0.00107956
0.00107965
0.00107909
0.00108113
0.001045
0.00104472
0.00104481
0.00104674
0.00101047
0.00101006
0.00101052
0.00101222
0.000975859
0.000975789
0.000975595
0.000977526
0.000941567
0.000941527
0.000941332
0.000943399
0.000907141
0.000906928
0.000906995
0.000908885
0.000872469
0.000872179
0.000872229
0.000874095
0.000838048
0.000837965
0.000838048
0.000839969
0.000803691
0.000803713
0.000803554
0.000805542
0.000769029
0.000768786
0.000768699
0.000770631
0.000734277
0.000734075
0.000734377
0.000736213
0.000699977
0.000699959
0.000699939
0.000701937
0.000665333
0.000665328
0.000665078
0.000667061
0.000630633
0.00063036
0.00063048
0.000632352
0.000595802
0.000595751
0.000595897
0.000597918
0.00056115
0.00056114
0.00056113
0.000563056
0.000526423
0.000526407
0.000526133
0.00052809
0.00049162
0.000491544
0.000491517
0.000493546
0.000456573
0.000456278
0.000456712
0.000458547
0.000421452
0.000421504
0.000421479
0.000423403
0.000386735
0.000387001
0.000386488
0.00038864
0.000351694
0.000351463
0.000351483
0.000353508
0.000316288
0.000316115
0.000316596
0.000318359
0.00028114
0.000280975
0.000281088
0.000283017
0.000245721
0.000245821
0.000245307
0.000247541
0.000210577
0.000210848
0.000210571
0.000212666
0.000174942
0.000174687
0.000175295
0.000177057
0.000138989
0.000138767
0.000138568
0.000140529
0.000104464
0.000104716
0.000104217
0.000106312
6.85732e-05
6.8412e-05
6.9103e-05
7.0893e-05
3.20075e-05
3.12345e-05
3.13434e-05
3.32125e-05
4.93368e-06
6.00092e-06
5.33357e-06
3.70731e-06
0.00352339
0.00352097
0.00352075
0.00352318
0.00352099
0.0035211
0.00352732
0.00352721
0.00352731
0.00352724
0.00352072
0.00352093
0.00352348
0.00352105
0.00352112
0.00352338
0.0035186
0.00348949
0.0035179
0.00351781
0.00349129
0.00349131
0.00351848
0.00348952
0.00351797
0.00351795
0.00349169
0.00349129
0.00351786
0.00349134
0.00349124
0.0035187
0.00348948
0.00351789
0.00349129
0.00349134
0.00348951
0.00348476
0.00345074
0.00348181
0.00348184
0.00345303
0.00345309
0.00348472
0.00345078
0.00348206
0.00348192
0.00345298
0.00345304
0.00348175
0.00345307
0.0034531
0.00348472
0.00345077
0.00348223
0.00345313
0.00345331
0.00345081
0.00344521
0.00340743
0.00344284
0.00344287
0.00341052
0.00341052
0.00344523
0.00340743
0.00344282
0.00344299
0.00341048
0.00341053
0.00344289
0.00341053
0.00341057
0.00344524
0.00340743
0.00344288
0.00341052
0.00341059
0.00340741
0.00340124
0.00335983
0.00339896
0.00339899
0.00336324
0.00336323
0.00340123
0.00335984
0.00339896
0.00339898
0.00336325
0.00336321
0.00339896
0.00336324
0.00336324
0.00340124
0.00335985
0.00339915
0.00336324
0.00336344
0.00335982
0.00335334
0.00331105
0.00335095
0.00335102
0.00331438
0.00331442
0.00335335
0.00331105
0.003351
0.0033511
0.00331441
0.00331432
0.00335103
0.00331443
0.00331441
0.00335338
0.00331103
0.00335083
0.00331435
0.00331432
0.00331113
0.00330461
0.00326283
0.00330221
0.00330225
0.00326603
0.00326607
0.0033046
0.00326282
0.00330225
0.00330222
0.00326606
0.00326595
0.00330231
0.00326606
0.00326605
0.0033046
0.00326285
0.00330184
0.00326608
0.00326611
0.00326287
0.00325651
0.00321558
0.00325413
0.00325415
0.00321874
0.00321873
0.0032565
0.00321556
0.00325415
0.00325404
0.00321876
0.00321869
0.00325415
0.00321873
0.00321867
0.00325653
0.00321559
0.00325381
0.00321871
0.00321894
0.00321552
0.0032094
0.00316927
0.00320704
0.00320703
0.00317231
0.00317234
0.00320938
0.00316927
0.00320704
0.00320702
0.00317234
0.00317235
0.00320705
0.00317235
0.00317236
0.00320942
0.00316929
0.00320683
0.0031724
0.00317227
0.00316937
0.00316323
0.00312389
0.00316089
0.00316086
0.00312682
0.00312686
0.00316322
0.00312388
0.00316086
0.00316086
0.00312683
0.00312685
0.00316093
0.00312686
0.00312681
0.00316325
0.00312391
0.00316069
0.00312682
0.00312695
0.00312392
0.00311798
0.00307943
0.00311562
0.00311559
0.00308228
0.00308227
0.00311797
0.00307941
0.0031156
0.0031156
0.00308228
0.00308229
0.00311559
0.00308228
0.0030823
0.00311799
0.00307941
0.00311563
0.00308223
0.00308229
0.00307939
0.00307365
0.00303579
0.00307129
0.0030713
0.00303857
0.00303856
0.00307364
0.00303576
0.00307128
0.00307129
0.00303855
0.00303857
0.00307126
0.00303856
0.00303861
0.00307363
0.00303575
0.00307133
0.00303855
0.00303857
0.00303572
0.00303011
0.00299269
0.00302773
0.00302775
0.00299545
0.00299547
0.00303008
0.00299265
0.00302774
0.00302778
0.00299544
0.00299545
0.00302774
0.00299546
0.00299552
0.00303006
0.00299267
0.00302772
0.0029955
0.00299555
0.00299265
0.00298707
0.00294996
0.00298475
0.00298473
0.00295278
0.00295277
0.00298705
0.00295001
0.00298474
0.00298476
0.00295277
0.0029527
0.00298481
0.00295277
0.00295287
0.00298707
0.00295004
0.00298479
0.00295272
0.0029529
0.00294998
0.00294442
0.00290757
0.00294208
0.00294208
0.0029104
0.00291035
0.00294448
0.00290765
0.00294209
0.00294207
0.00291039
0.00291035
0.00294217
0.00291037
0.0029105
0.00294449
0.00290763
0.00294213
0.00291033
0.00291052
0.00290781
0.00290211
0.00286551
0.0028998
0.00289976
0.00286842
0.00286838
0.00290219
0.00286563
0.00289981
0.00289976
0.00286841
0.0028683
0.00289981
0.00286837
0.00286827
0.00290217
0.00286556
0.00289983
0.00286829
0.00286828
0.00286566
0.00286008
0.00282378
0.00285779
0.00285775
0.00282669
0.00282665
0.00286017
0.00282386
0.00285779
0.00285781
0.00282668
0.00282653
0.00285775
0.00282662
0.00282661
0.00286012
0.00282379
0.00285782
0.00282645
0.00282658
0.00282371
0.00281842
0.00278245
0.00281626
0.00281609
0.00278524
0.00278524
0.00281845
0.00278236
0.00281627
0.00281623
0.00278523
0.00278506
0.00281608
0.00278526
0.00278522
0.00281843
0.00278232
0.00281611
0.00278501
0.00278514
0.00278236
0.00277713
0.00274127
0.00277496
0.00277484
0.00274411
0.00274427
0.00277703
0.00274129
0.00277494
0.00277488
0.00274412
0.00274409
0.00277492
0.0027443
0.00274415
0.00277705
0.00274129
0.00277484
0.00274417
0.00274422
0.00274145
0.00273603
0.0027005
0.00273392
0.00273409
0.00270351
0.00270348
0.0027361
0.0027007
0.00273391
0.00273399
0.00270349
0.00270346
0.00273377
0.00270347
0.00270376
0.00273606
0.00270058
0.00273377
0.00270351
0.00270376
0.00270037
0.00269532
0.00266001
0.00269332
0.00269353
0.00266307
0.00266311
0.00269548
0.00266004
0.00269331
0.00269335
0.00266306
0.00266322
0.00269341
0.00266305
0.00266307
0.0026954
0.00265997
0.0026934
0.00266315
0.00266303
0.00266008
0.00265488
0.00261985
0.00265305
0.00265317
0.00262308
0.00262304
0.0026549
0.00261997
0.00265305
0.00265317
0.00262307
0.0026231
0.00265293
0.00262299
0.00262319
0.00265485
0.00261989
0.00265295
0.00262309
0.00262317
0.00261989
0.00261479
0.00258009
0.00261314
0.00261315
0.00258342
0.0025834
0.00261484
0.00258018
0.00261313
0.00261315
0.0025834
0.00258335
0.0026132
0.00258332
0.00258337
0.00261476
0.00258017
0.00261324
0.00258334
0.00258334
0.00258004
0.00257511
0.00254068
0.00257352
0.00257345
0.00254398
0.00254408
0.00257511
0.00254079
0.00257349
0.00257352
0.00254397
0.00254387
0.00257343
0.00254403
0.00254398
0.00257511
0.00254077
0.0025734
0.00254391
0.00254398
0.00254077
0.00253574
0.00250155
0.00253415
0.00253426
0.00250476
0.0025047
0.00253585
0.00250142
0.0025341
0.00253406
0.00250475
0.00250472
0.00253421
0.00250469
0.00250467
0.00253575
0.00250161
0.00253416
0.00250472
0.00250466
0.00250158
0.00249661
0.00246263
0.002495
0.00249516
0.00246567
0.0024657
0.0024968
0.00246261
0.00249495
0.00249492
0.00246574
0.00246574
0.00249495
0.00246573
0.00246568
0.00249664
0.00246261
0.0024949
0.00246575
0.00246572
0.00246264
0.00245767
0.00242399
0.00245598
0.00245596
0.00242694
0.00242679
0.00245751
0.00242327
0.002456
0.00245602
0.00242697
0.00242701
0.00245596
0.00242685
0.00242701
0.00245766
0.0024241
0.00245602
0.00242702
0.00242699
0.00242419
0.00241908
0.00238569
0.00241732
0.00241739
0.00238856
0.00238865
0.00241881
0.00238622
0.00241734
0.0024174
0.00238851
0.00238846
0.00241737
0.00238858
0.00238844
0.00241922
0.00238541
0.00241733
0.00238844
0.00238843
0.00238532
0.00238078
0.00234735
0.00237892
0.00237889
0.00235009
0.00235011
0.00238116
0.00234722
0.00237891
0.00237889
0.00235012
0.00235019
0.00237891
0.00235012
0.00235022
0.0023805
0.00234772
0.00237891
0.00235018
0.00235019
0.00234777
0.00234242
0.0023093
0.00234056
0.00234056
0.00231196
0.00231198
0.00234227
0.00230897
0.00234056
0.00234061
0.00231195
0.00231191
0.00234059
0.00231194
0.00231188
0.00234273
0.00230887
0.00234059
0.00231186
0.0023119
0.00230903
0.00230441
0.00227133
0.00230243
0.00230241
0.00227403
0.00227411
0.00230419
0.00227164
0.00230243
0.00230246
0.00227405
0.00227405
0.00230243
0.0022741
0.002274
0.00230398
0.00227161
0.00230244
0.0022741
0.00227396
0.00227145
0.00226643
0.00223354
0.00226466
0.00226473
0.0022362
0.00223616
0.00226667
0.00223325
0.00226462
0.00226457
0.00223622
0.00223618
0.00226454
0.00223613
0.00223615
0.00226674
0.00223354
0.00226449
0.00223618
0.00223617
0.00223351
0.00222861
0.0021958
0.00222666
0.00222663
0.0021984
0.0021984
0.00222835
0.00219592
0.00222672
0.00222671
0.00219843
0.0021985
0.00222666
0.00219848
0.00219861
0.00222858
0.00219574
0.0022267
0.00219846
0.00219854
0.002196
0.00219095
0.00215841
0.00218909
0.00218912
0.00216108
0.00216109
0.00219104
0.00215843
0.00218908
0.00218913
0.00216102
0.002161
0.00218922
0.00216102
0.00216091
0.00219089
0.00215845
0.00218915
0.00216102
0.00216102
0.0021583
0.00215349
0.00212084
0.00215166
0.00215166
0.00212339
0.00212338
0.00215354
0.00212072
0.00215162
0.00215161
0.00212346
0.00212341
0.00215138
0.00212336
0.00212309
0.00215354
0.00212071
0.00215149
0.00212337
0.00212286
0.00212041
0.00211596
0.00208352
0.00211405
0.00211396
0.00208613
0.00208594
0.00211574
0.0020835
0.00211411
0.00211403
0.00208611
0.00208614
0.00211385
0.00208595
0.00208644
0.00211579
0.0020836
0.00211359
0.00208608
0.00208647
0.00208414
0.00207863
0.00204675
0.00207685
0.00207681
0.0020492
0.00204972
0.00207881
0.00204737
0.00207681
0.00207691
0.0020492
0.00204936
0.00207737
0.00204977
0.0020494
0.00207879
0.00204696
0.00207742
0.00204957
0.00204977
0.00204672
0.00204198
0.00200986
0.00204004
0.00204063
0.00201239
0.00201194
0.00204252
0.00200921
0.00204005
0.00204018
0.00201242
0.00201227
0.00204005
0.00201195
0.00201204
0.00204212
0.00200971
0.00204032
0.00201233
0.00201175
0.00200955
0.00200489
0.00197229
0.00200301
0.0020023
0.00197471
0.00197453
0.00200426
0.00197225
0.00200304
0.00200287
0.00197475
0.00197477
0.00200267
0.00197435
0.00197467
0.00200475
0.00197238
0.00200245
0.00197469
0.00197463
0.0019724
0.00196742
0.00193585
0.00196544
0.00196555
0.00193815
0.00193869
0.0019675
0.00193663
0.00196546
0.00196552
0.00193812
0.00193814
0.00196544
0.00193883
0.00193821
0.00196751
0.00193581
0.0019655
0.00193807
0.00193824
0.00193603
0.0019311
0.00189962
0.00192915
0.0019296
0.00190202
0.00190192
0.00193182
0.00189921
0.0019291
0.00192907
0.00190198
0.00190191
0.00192924
0.00190195
0.00190208
0.00193102
0.00189957
0.00192923
0.00190194
0.00190191
0.00189953
0.00189477
0.00186276
0.00189286
0.00189255
0.00186504
0.00186476
0.00189429
0.00186246
0.00189285
0.00189279
0.00186512
0.00186516
0.00189282
0.00186458
0.00186488
0.00189473
0.00186281
0.00189266
0.00186516
0.00186489
0.0018626
0.00185787
0.00182607
0.00185579
0.00185561
0.00182832
0.0018284
0.00185765
0.00182631
0.00185587
0.00185592
0.00182831
0.00182827
0.00185569
0.00182846
0.00182837
0.00185793
0.00182606
0.0018557
0.00182827
0.00182836
0.00182621
0.00182124
0.00179001
0.00181921
0.00181934
0.00179212
0.00179229
0.00182147
0.00179027
0.00181917
0.00181915
0.00179208
0.00179209
0.00181926
0.0017923
0.00179223
0.00182123
0.00178994
0.0018193
0.00179206
0.00179225
0.00179006
0.00178522
0.00175391
0.00178316
0.00178331
0.00175616
0.00175608
0.0017855
0.00175372
0.00178314
0.00178312
0.00175618
0.00175627
0.00178327
0.0017561
0.00175613
0.00178518
0.00175405
0.00178326
0.00175633
0.00175609
0.00175383
0.00174912
0.0017178
0.00174711
0.00174694
0.00171995
0.00171979
0.00174889
0.00171769
0.00174713
0.00174724
0.00171996
0.0017198
0.001747
0.00171971
0.00171979
0.00174922
0.00171762
0.00174698
0.00171978
0.00171983
0.00171771
0.00171295
0.0016818
0.00171087
0.00171086
0.00168386
0.00168407
0.00171293
0.00168198
0.00171089
0.00171073
0.0016838
0.00168391
0.00171081
0.00168406
0.00168402
0.00171282
0.00168192
0.00171086
0.00168392
0.00168404
0.001682
0.00167706
0.00164628
0.00167494
0.00167506
0.00164834
0.00164821
0.00167716
0.00164618
0.0016749
0.00167506
0.00164839
0.00164847
0.00167513
0.00164833
0.00164842
0.00167718
0.00164627
0.00167514
0.0016485
0.00164842
0.00164624
0.00164154
0.00161052
0.0016395
0.00163938
0.00161273
0.00161261
0.00164145
0.00161047
0.00163953
0.00163947
0.00161269
0.00161241
0.00163947
0.00161257
0.00161251
0.00164144
0.00161034
0.0016395
0.00161242
0.00161246
0.00161031
0.00160571
0.00157476
0.00160369
0.00160361
0.00157676
0.00157697
0.00160568
0.00157488
0.00160368
0.0016035
0.00157677
0.00157695
0.00160347
0.00157691
0.00157662
0.00160561
0.00157483
0.00160337
0.00157685
0.00157656
0.00157462
0.00157002
0.00153964
0.00156789
0.00156817
0.00154157
0.0015418
0.00157014
0.00153982
0.00156789
0.00156808
0.00154155
0.00154154
0.00156787
0.00154183
0.00154182
0.00157004
0.00153968
0.00156788
0.0015416
0.00154197
0.00153997
0.00153495
0.00150423
0.00153287
0.00153291
0.00150649
0.00150589
0.00153503
0.00150394
0.00153286
0.00153283
0.00150653
0.00150667
0.00153317
0.00150602
0.00150657
0.00153508
0.00150442
0.00153337
0.00150684
0.00150646
0.00150413
0.00149945
0.00146876
0.00149749
0.00149713
0.00147079
0.00147105
0.00149925
0.00146889
0.00149756
0.00149767
0.00147078
0.0014705
0.00149738
0.00147095
0.00147048
0.00149953
0.00146837
0.00149719
0.00147024
0.00147025
0.00146841
0.00146403
0.00143368
0.00146203
0.00146224
0.00143571
0.00143562
0.00146412
0.00143359
0.00146198
0.00146167
0.00143566
0.00143566
0.00146178
0.00143557
0.00143572
0.00146363
0.00143369
0.00146167
0.00143563
0.00143593
0.00143378
0.00142896
0.00139889
0.00142691
0.00142687
0.00140083
0.0014012
0.00142891
0.00139936
0.00142688
0.00142703
0.00140081
0.00140103
0.00142701
0.00140123
0.00140096
0.00142906
0.00139924
0.00142725
0.00140121
0.00140109
0.00139921
0.00139424
0.00136394
0.00139223
0.00139269
0.00136607
0.00136589
0.00139474
0.00136379
0.0013922
0.00139235
0.00136615
0.00136608
0.00139238
0.00136606
0.0013664
0.00139455
0.00136385
0.00139242
0.0013662
0.00136621
0.00136398
0.00135921
0.00132914
0.00135734
0.001357
0.00133127
0.00133094
0.00135902
0.00132879
0.00135742
0.00135724
0.00133126
0.00133115
0.00135745
0.00133081
0.00133094
0.00135912
0.00132892
0.00135726
0.00133091
0.00133081
0.00132871
0.00132443
0.00129409
0.00132249
0.00132226
0.00129609
0.00129596
0.00132409
0.00129394
0.00132246
0.0013225
0.00129616
0.00129627
0.0013222
0.00129585
0.00129595
0.00132422
0.00129416
0.00132213
0.00129611
0.00129607
0.001294
0.00128934
0.00125881
0.00128726
0.00128724
0.00126085
0.00126109
0.0012892
0.00125923
0.00128734
0.00128745
0.0012608
0.00126086
0.00128721
0.00126123
0.00126112
0.00128944
0.00125897
0.00128735
0.00126112
0.00126114
0.00125927
0.00125408
0.00122431
0.00125214
0.00125246
0.0012264
0.00122666
0.00125461
0.00122447
0.00125203
0.00125201
0.0012262
0.00122601
0.00125247
0.0012267
0.00122642
0.00125423
0.0012241
0.00125244
0.00122612
0.00122629
0.00122422
0.00121967
0.00118969
0.00121781
0.00121791
0.00119176
0.00119156
0.00121974
0.00118939
0.00121768
0.0012175
0.00119189
0.00119191
0.00121764
0.00119143
0.00119149
0.00121943
0.00118966
0.00121752
0.00119171
0.00119156
0.00118941
0.001185
0.00115533
0.0011831
0.00118291
0.00115736
0.00115724
0.0011847
0.00115519
0.00118326
0.00118332
0.00115748
0.00115756
0.00118292
0.00115731
0.00115745
0.00118503
0.00115552
0.00118304
0.00115762
0.00115757
0.00115545
0.00115069
0.00112096
0.00114879
0.00114869
0.00112296
0.00112281
0.00115056
0.00112088
0.00114888
0.00114896
0.001123
0.00112299
0.00114894
0.00112287
0.0011231
0.00115088
0.00112096
0.00114904
0.00112302
0.00112311
0.00112104
0.00111624
0.0010859
0.00111426
0.00111415
0.00108799
0.00108829
0.00111619
0.00108621
0.00111428
0.00111422
0.00108788
0.00108783
0.00111433
0.00108827
0.00108793
0.00111621
0.00108574
0.00111431
0.00108781
0.00108782
0.00108585
0.00108118
0.00105137
0.0010793
0.00107969
0.00105348
0.00105348
0.00108151
0.00105138
0.00107916
0.0010791
0.00105335
0.0010533
0.00107924
0.00105346
0.00105346
0.00108101
0.00105128
0.00107912
0.00105333
0.00105339
0.00105139
0.00104672
0.00101691
0.00104493
0.00104472
0.00101889
0.00101868
0.00104666
0.00101667
0.00104481
0.00104478
0.00101905
0.00101916
0.0010449
0.00101869
0.00101891
0.00104666
0.00101719
0.00104487
0.00101917
0.00101908
0.00101693
0.00101221
0.000982257
0.00101019
0.00101007
0.000984237
0.000984364
0.00101197
0.000982318
0.00101038
0.00101052
0.000984281
0.000984323
0.00101019
0.000984355
0.000984212
0.0010125
0.000982229
0.00101038
0.000984291
0.000984223
0.00098221
0.000977578
0.00094801
0.000975672
0.000975795
0.000950086
0.000950105
0.000977662
0.00094815
0.000975648
0.000975624
0.000949949
0.000949844
0.00097563
0.000950112
0.00095008
0.000977507
0.000947837
0.000975581
0.000949844
0.00094994
0.000948019
0.000943358
0.000913542
0.000941527
0.000941507
0.000915592
0.000915606
0.000943481
0.000913532
0.000941408
0.000941324
0.000915585
0.000915631
0.000941566
0.000915621
0.000915667
0.000943216
0.000913638
0.000941445
0.000915667
0.000915689
0.000913615
0.000908835
0.0008789
0.00090689
0.000906927
0.000880861
0.000880852
0.000908807
0.00087877
0.000906923
0.00090696
0.000880984
0.000880889
0.00090693
0.00088083
0.000880789
0.000908917
0.000878866
0.000906992
0.000880864
0.00088089
0.000878801
0.000874199
0.000844556
0.000872252
0.000872201
0.000846544
0.000846462
0.000874068
0.000844548
0.000872365
0.000872269
0.000846533
0.000846608
0.000872159
0.000846457
0.000846548
0.000874175
0.000844613
0.000872242
0.000846571
0.00084653
0.000844584
0.000839902
0.000810234
0.000837984
0.000837955
0.00081227
0.000812369
0.000839934
0.000810364
0.000837922
0.000838061
0.000812168
0.000812192
0.000838049
0.000812367
0.000812325
0.000839968
0.000810191
0.000838008
0.00081226
0.000812271
0.00081028
0.00080553
0.000775462
0.000803643
0.000803728
0.000777539
0.00077756
0.000805644
0.000775465
0.000803555
0.000803498
0.000777521
0.000777388
0.000803625
0.000777544
0.00077742
0.000805461
0.000775359
0.000803581
0.000777381
0.000777414
0.00077537
0.000770702
0.000740815
0.00076878
0.00076879
0.000742725
0.000742653
0.000770688
0.000740679
0.000768802
0.00076872
0.000742852
0.000742949
0.000768709
0.000742686
0.000742816
0.000770633
0.000740987
0.00076872
0.00074291
0.000742874
0.000740867
0.000736148
0.000706557
0.000734137
0.000734041
0.00070851
0.000708468
0.000736001
0.000706561
0.000734276
0.000734416
0.000708535
0.000708584
0.000734252
0.000708482
0.000708585
0.000736347
0.000706582
0.000734324
0.000708628
0.000708631
0.00070665
0.00070186
0.000671894
0.000699943
0.000699949
0.000673973
0.000674118
0.000701914
0.000672059
0.000699872
0.000699878
0.000673836
0.000673767
0.000699983
0.0006741
0.000673914
0.000701839
0.000671746
0.000699959
0.00067378
0.000673801
0.000671818
0.000667157
0.000637201
0.000665272
0.000665368
0.000639178
0.000639094
0.000667267
0.000637048
0.000665175
0.000665099
0.00063923
0.000639172
0.000665178
0.000639048
0.000639032
0.000667011
0.000637171
0.000665095
0.000639113
0.000639065
0.000637059
0.000632462
0.000602403
0.000630478
0.000630384
0.000604369
0.000604335
0.000632314
0.000602383
0.000630561
0.000630531
0.000604428
0.000604487
0.000630378
0.000604392
0.000604528
0.000632468
0.000602542
0.000630429
0.00060456
0.000604595
0.000602617
0.000597672
0.000567796
0.000595693
0.000595679
0.000569765
0.000569786
0.000597667
0.000567832
0.000595734
0.000595803
0.000569763
0.000569823
0.000595917
0.000569813
0.000569869
0.000597814
0.000567829
0.000595973
0.000569847
0.000569867
0.000567835
0.000563077
0.000533063
0.000561127
0.000561148
0.000535104
0.000535176
0.000563106
0.000533142
0.000561108
0.000561146
0.000535028
0.000534948
0.00056112
0.000535101
0.000534872
0.000563076
0.000532887
0.00056109
0.000534865
0.000534795
0.000532836
0.000528294
0.000498229
0.000526373
0.000526473
0.000500237
0.00050028
0.000528388
0.000498257
0.000526292
0.000526196
0.000500227
0.000500135
0.000526164
0.00050027
0.000500247
0.000528124
0.00049818
0.000526085
0.000500144
0.000500222
0.00049826
0.000493488
0.000463256
0.000491536
0.000491518
0.000465258
0.000465101
0.000493486
0.000463072
0.000491556
0.00049149
0.000465347
0.000465439
0.000491596
0.000465126
0.000465382
0.000493472
0.000463448
0.000491611
0.000465492
0.000465505
0.000463385
0.000458438
0.000428112
0.000456426
0.000456263
0.000430077
0.000430064
0.000458247
0.000428146
0.000456519
0.000456671
0.000430117
0.000430261
0.000456525
0.000430076
0.000430126
0.000458646
0.000428237
0.000456649
0.000430256
0.000430146
0.000428148
0.000423376
0.000393486
0.0004214
0.000421499
0.000395491
0.000395687
0.000423454
0.000393752
0.000421393
0.000421488
0.000395381
0.000395261
0.000421431
0.000395684
0.00039543
0.000423453
0.000393263
0.000421407
0.000395236
0.000395302
0.000393399
0.000388741
0.000358384
0.000386814
0.000387018
0.000360469
0.000360421
0.000389014
0.000358321
0.000386697
0.00038652
0.000360433
0.000360235
0.000386718
0.000360393
0.000360356
0.000388494
0.000358235
0.000386585
0.00036021
0.000360336
0.000358316
0.000353523
0.000322958
0.000351559
0.00035147
0.000324931
0.000324877
0.000353455
0.000322862
0.000351578
0.000351483
0.000325036
0.000325266
0.000351538
0.000324922
0.000325123
0.000353461
0.000323291
0.000351569
0.000325321
0.00032525
0.000323162
0.000318171
0.000287921
0.000316135
0.000316069
0.00028988
0.000289752
0.000318051
0.000287775
0.000316252
0.000316537
0.000289949
0.000290044
0.000316312
0.000289739
0.000289861
0.000318525
0.000287971
0.000316457
0.000290025
0.000289916
0.000287853
0.000283123
0.000252557
0.000281125
0.000281011
0.000254627
0.000254658
0.000282997
0.000252655
0.000281144
0.000281118
0.000254515
0.000254287
0.000281013
0.000254616
0.000254417
0.000283104
0.000252205
0.000281034
0.000254237
0.000254294
0.000252362
0.000247712
0.000217333
0.000245767
0.000245849
0.000219361
0.000219578
0.000247844
0.000217614
0.000245631
0.000245351
0.000219249
0.000219186
0.000245603
0.000219593
0.000219384
0.000247335
0.000217257
0.000245442
0.000219196
0.000219282
0.000217388
0.000212555
0.000181798
0.000210574
0.000210799
0.000183807
0.000183725
0.000212815
0.000181646
0.000210525
0.000210536
0.000183948
0.000184282
0.000210706
0.000183778
0.000184086
0.000212533
0.000182223
0.000210636
0.000184381
0.000184282
0.00018204
0.000176863
0.000145761
0.000174795
0.000174652
0.000147719
0.000147507
0.00017669
0.000145523
0.000174956
0.000175226
0.000147762
0.000147753
0.000174972
0.000147437
0.000147526
0.000177245
0.000145602
0.000175165
0.000147708
0.000147611
0.000145441
0.000140971
0.000111323
0.000139018
0.000138884
0.00011322
0.000113317
0.000140808
0.000111445
0.000138957
0.000138682
0.000113066
0.000112765
0.000138571
0.000113237
0.000112878
0.000140634
0.000110857
0.000138503
0.000112666
0.000112705
0.00011095
0.000106663
7.54908e-05
0.000104686
0.000104788
7.76045e-05
7.75864e-05
0.000106762
7.54657e-05
0.000104536
0.000104276
7.77433e-05
7.81728e-05
0.000104392
7.77134e-05
7.81339e-05
0.000106217
7.60922e-05
0.00010425
7.83774e-05
7.83071e-05
7.6036e-05
7.03758e-05
3.80148e-05
6.83248e-05
6.82789e-05
4.02603e-05
4.0236e-05
7.03459e-05
3.80358e-05
6.84737e-05
6.89008e-05
4.03205e-05
4.06016e-05
6.887e-05
4.03193e-05
4.06856e-05
7.09326e-05
3.83565e-05
6.90894e-05
4.06694e-05
4.07218e-05
3.84388e-05
3.29339e-05
7.04615e-06
3.11691e-05
3.12147e-05
1.00021e-05
1.01982e-05
3.29948e-05
7.18856e-06
3.1149e-05
3.12755e-05
9.83768e-06
9.33058e-06
3.13962e-05
1.00773e-05
9.40256e-06
3.31136e-05
6.50422e-06
3.14179e-05
9.17437e-06
9.20608e-06
6.53882e-06
4.11441e-06
6.05478e-06
6.16822e-06
4.20034e-06
5.90516e-06
5.5509e-06
5.05218e-06
4.32843e-06
4.36544e-06
5.59387e-06
3.66986e-06
5.39406e-06
0.00353039
0.003533
0.00353165
0.00353189
0.00355923
0.00353266
0.00356248
0.00353303
0.00355948
0.00353308
0.0035332
0.00356254
0.00354402
0.00356577
0.00356574
0.00350299
0.00351648
0.00352046
0.00349518
0.00349346
0.00349862
0.0035029
0.00351609
0.00352049
0.00349567
0.00351889
0.00351893
0.00351887
0.00349227
0.00349249
0.0034923
0.0034922
0.00350263
0.00351423
0.00351944
0.00351019
0.00352156
0.00349976
0.00351047
0.00349344
0.00349862
0.00350251
0.00351951
0.00351434
0.00351015
0.00352166
0.00351049
0.00349973
0.00352041
0.0035206
0.00350734
0.00349956
0.00350023
0.00347528
0.00348942
0.00348937
0.00347329
0.00348681
0.00347239
0.00347506
0.00348897
0.00348932
0.0034733
0.00348338
0.00348315
0.00348305
0.00345485
0.00345498
0.0034548
0.00345484
0.00347311
0.00348809
0.00348171
0.0034724
0.00348651
0.0034736
0.00347233
0.00348677
0.00347216
0.0034731
0.00348177
0.00348806
0.00347242
0.00348648
0.00347239
0.00347348
0.00348977
0.0034897
0.00347088
0.00347397
0.00347422
0.00343277
0.00344744
0.00344837
0.00343139
0.00344635
0.00343058
0.00343262
0.00344735
0.00344835
0.00343139
0.00344487
0.0034447
0.00344471
0.00341224
0.00341231
0.00341218
0.00341221
0.00343155
0.00344712
0.00344285
0.0034325
0.00344601
0.00343195
0.00343241
0.00344614
0.00343055
0.00343152
0.00344289
0.00344707
0.00343253
0.00344601
0.00343247
0.00343185
0.00344781
0.00344785
0.0034298
0.00343183
0.00343179
0.00338643
0.00340287
0.00340428
0.00338491
0.00340216
0.00338446
0.00338631
0.00340288
0.00340418
0.0033849
0.00340073
0.00340061
0.00340067
0.00336471
0.00336476
0.00336466
0.00336469
0.00338561
0.00340268
0.00339898
0.00338728
0.00340209
0.00338566
0.00338725
0.00340218
0.00338435
0.00338558
0.00339898
0.00340262
0.00338734
0.00340209
0.00338728
0.0033856
0.00340294
0.00340297
0.00338404
0.00338517
0.00338513
0.00333739
0.00335448
0.00335584
0.00333607
0.00335413
0.00333584
0.0033373
0.00335447
0.00335572
0.00333614
0.00335252
0.00335244
0.00335245
0.00331576
0.00331578
0.00331571
0.00331574
0.00333701
0.00335452
0.00335104
0.00333885
0.00335418
0.00333692
0.00333884
0.003354
0.00333589
0.00333701
0.00335102
0.00335447
0.00333889
0.00335414
0.00333888
0.00333692
0.00335462
0.00335445
0.00333544
0.00333625
0.00333642
0.00328826
0.00330551
0.00330652
0.00328743
0.00330527
0.00328712
0.00328816
0.00330552
0.0033065
0.00328735
0.00330359
0.00330352
0.00330353
0.00326733
0.00326734
0.0032673
0.00326727
0.00328822
0.00330558