/*--------------------------------*- C++ -*----------------------------------*\
| =========                 |                                                 |
| \\      /  F ield         | OpenFOAM: The Open Source CFD Toolbox           |
|  \\    /   O peration     | Version:  v2006                                 |
|   \\  /    A nd           | Website:  www.openfoam.com                      |
|    \\/     M anipulation  |                                                 |
\*---------------------------------------------------------------------------*/
FoamFile
{
    version     2.0;
    format      ascii;
    class       volScalarField;
    location    "500";
    object      epsilon;
}
// * * * * * * * * * * * * * * * * * * * * * * * * * * * * * * * * * * * * * //

dimensions      [0 2 -3 0 0 0 0];


internalField   nonuniform List<scalar> 
42616
(
6.66687e-07
1.19317e-06
1.19289e-06
1.42867e-06
6.70896e-07
1.19325e-06
1.19312e-06
1.42396e-06
6.75752e-07
1.1951e-06
1.19541e-06
1.427e-06
6.80511e-07
1.19823e-06
1.19837e-06
1.4308e-06
6.83872e-07
1.19848e-06
1.19823e-06
1.43133e-06
6.8643e-07
1.19795e-06
1.19832e-06
1.43089e-06
6.88482e-07
1.19757e-06
1.19726e-06
1.4307e-06
6.90281e-07
1.19657e-06
1.19715e-06
1.43172e-06
6.91732e-07
1.196e-06
1.19585e-06
1.42888e-06
6.92356e-07
1.19397e-06
1.19408e-06
1.43045e-06
6.93303e-07
1.19234e-06
1.19314e-06
1.42661e-06
6.9306e-07
1.19106e-06
1.19026e-06
1.42672e-06
6.93065e-07
1.18743e-06
1.18848e-06
1.42409e-06
6.92617e-07
1.18608e-06
1.18544e-06
1.42246e-06
6.92111e-07
1.1837e-06
1.18376e-06
1.42134e-06
6.90413e-07
1.17798e-06
1.1785e-06
1.41478e-06
6.89865e-07
1.17802e-06
1.17792e-06
1.41913e-06
6.88525e-07
1.17441e-06
1.1735e-06
1.4104e-06
6.85711e-07
1.16743e-06
1.16875e-06
1.4072e-06
6.84894e-07
1.16838e-06
1.16794e-06
1.4118e-06
6.65773e-07
1.10951e-06
1.10982e-06
1.35751e-06
1.42012e-06
1.1914e-06
1.1923e-06
1.42305e-06
1.19127e-06
1.19229e-06
1.19252e-06
1.19497e-06
1.42253e-06
1.1925e-06
1.19483e-06
1.42737e-06
1.42164e-06
1.42012e-06
1.19147e-06
1.19289e-06
1.19195e-06
1.19315e-06
1.42509e-06
1.42169e-06
1.19129e-06
1.1926e-06
1.19169e-06
1.19282e-06
1.19521e-06
1.19341e-06
1.19408e-06
1.4243e-06
1.42127e-06
1.19505e-06
1.19309e-06
1.19386e-06
1.4225e-06
1.42239e-06
1.42506e-06
1.19236e-06
1.19306e-06
1.19464e-06
1.19401e-06
1.42322e-06
1.42432e-06
1.19214e-06
1.19292e-06
1.19449e-06
1.19453e-06
1.19374e-06
1.19398e-06
1.19413e-06
1.42306e-06
1.42483e-06
1.19353e-06
1.19452e-06
1.19399e-06
1.42436e-06
1.42787e-06
1.42969e-06
1.19566e-06
1.19514e-06
1.1981e-06
1.19781e-06
1.42717e-06
1.42942e-06
1.19551e-06
1.19544e-06
1.19792e-06
1.198e-06
1.19511e-06
1.19778e-06
1.19753e-06
1.42751e-06
1.42959e-06
1.19497e-06
1.19796e-06
1.19735e-06
1.42881e-06
1.43165e-06
1.42935e-06
1.19847e-06
1.19826e-06
1.19856e-06
1.19853e-06
1.43142e-06
1.42966e-06
1.19829e-06
1.19842e-06
1.1984e-06
1.19846e-06
1.19795e-06
1.19851e-06
1.19848e-06
1.43165e-06
1.42914e-06
1.19777e-06
1.19843e-06
1.19832e-06
1.42943e-06
1.43103e-06
1.42978e-06
1.19849e-06
1.1985e-06
1.19836e-06
1.1981e-06
1.43141e-06
1.42919e-06
1.1983e-06
1.19825e-06
1.19814e-06
1.19822e-06
1.19857e-06
1.19814e-06
1.19844e-06
1.43068e-06
1.42977e-06
1.19839e-06
1.19823e-06
1.19822e-06
1.42946e-06
1.4315e-06
1.42888e-06
1.19829e-06
1.19792e-06
1.19767e-06
1.19765e-06
1.43073e-06
1.42944e-06
1.19808e-06
1.19832e-06
1.19758e-06
1.19783e-06
1.19808e-06
1.19761e-06
1.19731e-06
1.43175e-06
1.42876e-06
1.19788e-06
1.19776e-06
1.1972e-06
1.42831e-06
1.4306e-06
1.42916e-06
1.19752e-06
1.19762e-06
1.19718e-06
1.19697e-06
1.4314e-06
1.42838e-06
1.19738e-06
1.19732e-06
1.19688e-06
1.19689e-06
1.19736e-06
1.19703e-06
1.19774e-06
1.43021e-06
1.42915e-06
1.19725e-06
1.19691e-06
1.19751e-06
1.43041e-06
1.43094e-06
1.42889e-06
1.19709e-06
1.19649e-06
1.19635e-06
1.19602e-06
1.42985e-06
1.42886e-06
1.19679e-06
1.19708e-06
1.19639e-06
1.19684e-06
1.19752e-06
1.19599e-06
1.19556e-06
1.43147e-06
1.42874e-06
1.19729e-06
1.19679e-06
1.19549e-06
1.42685e-06
1.4305e-06
1.42641e-06
1.19605e-06
1.19607e-06
1.19445e-06
1.19516e-06
1.43115e-06
1.42693e-06
1.19602e-06
1.19599e-06
1.19411e-06
1.19418e-06
1.19541e-06
1.1952e-06
1.19539e-06
1.43004e-06
1.4262e-06
1.19532e-06
1.19419e-06
1.19514e-06
1.42911e-06
1.42793e-06
1.42736e-06
1.19397e-06
1.19387e-06
1.19327e-06
1.19227e-06
1.4281e-06
1.42511e-06
1.19367e-06
1.19402e-06
1.19322e-06
1.19364e-06
1.19514e-06
1.19228e-06
1.19252e-06
1.42846e-06
1.42746e-06
1.19486e-06
1.19367e-06
1.19248e-06
1.42489e-06
1.4294e-06
1.42327e-06
1.19317e-06
1.19238e-06
1.19105e-06
1.19226e-06
1.42805e-06
1.42589e-06
1.19315e-06
1.19323e-06
1.19077e-06
1.19098e-06
1.19217e-06
1.1922e-06
1.19159e-06
1.42885e-06
1.42405e-06
1.19216e-06
1.1909e-06
1.19139e-06
1.42546e-06
1.42445e-06
1.4226e-06
1.18986e-06
1.19104e-06
1.18827e-06
1.18757e-06
1.42688e-06
1.42034e-06
1.18956e-06
1.19028e-06
1.18813e-06
1.18865e-06
1.19096e-06
1.18762e-06
1.18839e-06
1.42552e-06
1.4228e-06
1.19059e-06
1.18871e-06
1.18828e-06
1.42197e-06
1.42534e-06
1.42102e-06
1.18825e-06
1.18741e-06
1.18721e-06
1.18701e-06
1.42303e-06
1.42188e-06
1.18815e-06
1.18843e-06
1.18704e-06
1.18633e-06
1.18812e-06
1.18697e-06
1.18677e-06
1.42481e-06
1.42047e-06
1.18804e-06
1.18626e-06
1.18661e-06
1.4212e-06
1.4221e-06
1.41906e-06
1.18575e-06
1.18614e-06
1.18351e-06
1.18395e-06
1.42311e-06
1.41977e-06
1.18553e-06
1.18549e-06
1.18333e-06
1.184e-06
1.18579e-06
1.18396e-06
1.18381e-06
1.42182e-06
1.4201e-06
1.1856e-06
1.18398e-06
1.18362e-06
1.41926e-06
1.42154e-06
1.4135e-06
1.18337e-06
1.18369e-06
1.18012e-06
1.17944e-06
1.42198e-06
1.41241e-06
1.18319e-06
1.18377e-06
1.17994e-06
1.17971e-06
1.18353e-06
1.17943e-06
1.17977e-06
1.42216e-06
1.4131e-06
1.18335e-06
1.17969e-06
1.17961e-06
1.41352e-06
1.41455e-06
1.41559e-06
1.17862e-06
1.17799e-06
1.17749e-06
1.17719e-06
1.41342e-06
1.41554e-06
1.17845e-06
1.1785e-06
1.17736e-06
1.17766e-06
1.17875e-06
1.17721e-06
1.17797e-06
1.41425e-06
1.41606e-06
1.17861e-06
1.17769e-06
1.17785e-06
1.41666e-06
1.41861e-06
1.41053e-06
1.17788e-06
1.17799e-06
1.17565e-06
1.17643e-06
1.41904e-06
1.41173e-06
1.17774e-06
1.17791e-06
1.17536e-06
1.17501e-06
1.1781e-06
1.17638e-06
1.17486e-06
1.41878e-06
1.40983e-06
1.17797e-06
1.1749e-06
1.17457e-06
1.40939e-06
1.41146e-06
1.40445e-06
1.17406e-06
1.17448e-06
1.16876e-06
1.16801e-06
1.41249e-06
1.40269e-06
1.17376e-06
1.17359e-06
1.16868e-06
1.16938e-06
1.17343e-06
1.16801e-06
1.1691e-06
1.41086e-06
1.40589e-06
1.17315e-06
1.16937e-06
1.16901e-06
1.4055e-06
1.40594e-06
1.4072e-06
1.16814e-06
1.16741e-06
1.16733e-06
1.16732e-06
1.40413e-06
1.4083e-06
1.1681e-06
1.16875e-06
1.16721e-06
1.1673e-06
1.16865e-06
1.16736e-06
1.16777e-06
1.40738e-06
1.40663e-06
1.1686e-06
1.16736e-06
1.16765e-06
1.40801e-06
1.41163e-06
1.38813e-06
1.16809e-06
1.16833e-06
1.14889e-06
1.14858e-06
1.41294e-06
1.38652e-06
1.16792e-06
1.16788e-06
1.14866e-06
1.14817e-06
1.16837e-06
1.14858e-06
1.14769e-06
1.41069e-06
1.38748e-06
1.16823e-06
1.14821e-06
1.14751e-06
1.38519e-06
1.35936e-06
1.11002e-06
1.10954e-06
1.35797e-06
1.10991e-06
1.10986e-06
6.65642e-07
6.65714e-07
6.65463e-07
1.10913e-06
1.35947e-06
1.10903e-06
6.6565e-07
6.6568e-07
6.65893e-07
6.66779e-07
4.2415e-06
9.57662e-06
4.24121e-06
9.58052e-06
1.9097e-05
1.91142e-05
4.24091e-06
9.57968e-06
4.24103e-06
9.58362e-06
6.6707e-07
6.67152e-07
6.68203e-07
6.69796e-07
6.70474e-07
6.70432e-07
6.71171e-07
2.30128e-06
3.65413e-06
9.42415e-07
1.19345e-06
2.30206e-06
3.65314e-06
9.43303e-07
1.91103e-05
1.91235e-05
2.30063e-06
9.42503e-07
3.65298e-06
1.19305e-06
2.30179e-06
9.4325e-07
3.65163e-06
5.66352e-06
5.66513e-06
1.42465e-06
5.65884e-06
5.6603e-06
4.23999e-06
9.58749e-06
4.24055e-06
9.58967e-06
1.91372e-05
1.91459e-05
4.24007e-06
9.58884e-06
4.24025e-06
9.59048e-06
6.71422e-07
6.71444e-07
6.71969e-07
6.74458e-07
6.74461e-07
6.74641e-07
6.74667e-07
2.29706e-06
3.64991e-06
9.44522e-07
1.19322e-06
2.29855e-06
3.64834e-06
9.447e-07
1.91359e-05
1.91421e-05
2.29716e-06
9.44428e-07
3.64967e-06
1.19326e-06
2.29829e-06
9.44704e-07
3.64899e-06
5.65365e-06
5.65517e-06
1.42213e-06
5.65286e-06
5.65451e-06
4.24431e-06
9.5911e-06
4.24177e-06
9.59285e-06
1.91469e-05
1.91483e-05
4.24451e-06
9.59195e-06
4.24225e-06
9.59414e-06
6.75667e-07
6.75848e-07
6.75786e-07
6.7942e-07
6.79286e-07
6.79476e-07
6.79223e-07
2.29934e-06
3.6517e-06
9.46144e-07
1.19615e-06
2.29772e-06
3.65459e-06
9.46922e-07
1.91456e-05
1.91503e-05
2.29943e-06
9.46334e-07
3.65237e-06
1.19635e-06
2.29812e-06
9.47093e-07
3.65456e-06
5.65832e-06
5.66012e-06
1.42703e-06
5.66241e-06
5.66416e-06
4.24862e-06
9.59879e-06
4.24808e-06
9.60769e-06
1.916e-05
1.91811e-05
4.24879e-06
9.60101e-06
4.24808e-06
9.60982e-06
6.80401e-07
6.80578e-07
6.803e-07
6.83119e-07
6.83118e-07
6.83133e-07
6.83067e-07
2.3018e-06
3.65855e-06
9.49348e-07
1.19844e-06
2.30192e-06
3.65833e-06
9.49872e-07
1.91653e-05
1.91829e-05
2.30193e-06
9.4943e-07
3.65856e-06
1.19853e-06
2.30182e-06
9.49958e-07
3.65869e-06
5.66806e-06
5.66965e-06
1.42937e-06
5.66853e-06
5.6702e-06
4.24868e-06
9.62213e-06
4.2485e-06
9.62681e-06
1.92026e-05
1.92103e-05
4.24828e-06
9.62315e-06
4.24857e-06
9.62817e-06
6.83886e-07
6.8385e-07
6.83896e-07
6.85816e-07
6.85746e-07
6.85889e-07
6.85862e-07
2.30066e-06
3.65824e-06
9.5073e-07
1.19841e-06
2.30104e-06
3.65824e-06
9.50893e-07
1.92023e-05
1.92124e-05
2.30026e-06
9.50745e-07
3.65791e-06
1.19813e-06
2.30106e-06
9.50844e-07
3.65709e-06
5.6697e-06
5.67145e-06
1.43016e-06
5.67091e-06
5.67253e-06
4.2488e-06
9.62795e-06
4.24924e-06
9.62981e-06
1.92143e-05
1.9221e-05
4.24958e-06
9.62991e-06
4.24925e-06
9.63127e-06
6.86328e-07
6.86569e-07
6.86388e-07
6.87981e-07
6.87985e-07
6.88067e-07
6.87872e-07
2.29926e-06
3.65849e-06
9.51196e-07
1.19777e-06
2.30065e-06
3.65746e-06
9.51182e-07
1.92176e-05
1.92203e-05
2.30003e-06
9.51282e-07
3.6589e-06
1.19831e-06
2.30045e-06
9.51355e-07
3.65927e-06
5.67216e-06
5.67364e-06
1.42818e-06
5.6705e-06
5.67237e-06
4.24923e-06
9.63562e-06
4.24868e-06
9.63851e-06
1.92309e-05
1.92362e-05
4.24844e-06
9.63596e-06
4.24917e-06
9.64027e-06
6.88539e-07
6.88479e-07
6.88491e-07
6.89805e-07
6.89753e-07
6.89868e-07
6.90068e-07
2.29837e-06
3.65804e-06
9.51086e-07
1.19751e-06
2.29809e-06
3.65882e-06
9.51131e-07
1.92276e-05
1.92409e-05
2.29754e-06
9.51223e-07
3.65795e-06
1.19695e-06
2.29852e-06
9.51103e-07
3.65624e-06
5.67169e-06
5.67378e-06
1.43016e-06
5.67496e-06
5.67664e-06
4.24926e-06
9.63964e-06
4.2499e-06
9.64197e-06
1.92409e-05
1.92519e-05
4.25033e-06
9.64285e-06
4.24938e-06
9.64398e-06
6.90113e-07
6.90461e-07
6.90446e-07
6.91407e-07
6.91308e-07
6.91545e-07
6.91193e-07
2.29722e-06
3.65914e-06
9.51126e-07
1.19621e-06
2.29914e-06
3.65709e-06
9.5096e-07
1.925e-05
1.92506e-05
2.29851e-06
9.51087e-07
3.65925e-06
1.19722e-06
2.29839e-06
9.51092e-07
3.66074e-06
5.67894e-06
5.68011e-06
1.42792e-06
5.67597e-06
5.67775e-06
4.2503e-06
9.64853e-06
4.24947e-06
9.6512e-06
1.92634e-05
1.92657e-05
4.24951e-06
9.64717e-06
4.25083e-06
9.65192e-06
6.91778e-07
6.9177e-07
6.91586e-07
6.922e-07
6.92411e-07
6.92268e-07
6.92558e-07
2.29578e-06
3.65818e-06
9.50325e-07
1.19598e-06
2.29535e-06
3.66007e-06
9.50208e-07
1.92532e-05
1.927e-05
2.2949e-06
9.50697e-07
3.65937e-06
1.19501e-06
2.29649e-06
9.50257e-07
3.65615e-06
5.67423e-06
5.67686e-06
1.42852e-06
5.6775e-06
5.6795e-06
4.24828e-06
9.65333e-06
4.25045e-06
9.65648e-06
1.92665e-05
1.92812e-05
4.24885e-06
9.65806e-06
4.2486e-06
9.65966e-06
6.92412e-07
6.92524e-07
6.92722e-07
6.93094e-07
6.92678e-07
6.93156e-07
6.92904e-07
2.29398e-06
3.65985e-06
9.49754e-07
1.19297e-06
2.29684e-06
3.65485e-06
9.49172e-07
1.92846e-05
1.92837e-05
2.2947e-06
9.49396e-07
3.65726e-06
1.194e-06
2.29492e-06
9.49116e-07
3.6585e-06
5.68289e-06
5.68369e-06
1.42638e-06
5.67985e-06
5.68109e-06
4.24983e-06
9.66055e-06
4.24744e-06
9.66071e-06
1.92973e-05
1.92952e-05
4.25038e-06
9.65862e-06
4.25012e-06
9.65866e-06
6.93069e-07
6.93314e-07
6.93079e-07
6.93235e-07
6.93435e-07
6.93341e-07
6.93318e-07
2.29165e-06
3.6548e-06
9.4773e-07
1.19248e-06
2.29079e-06
3.65887e-06
9.47507e-07
1.92789e-05
1.92917e-05
2.29192e-06
9.48364e-07
3.65873e-06
1.19235e-06
2.29301e-06
9.47858e-07
3.65708e-06
5.67699e-06
5.6797e-06
1.42584e-06
5.67975e-06
5.68217e-06
4.24734e-06
9.65958e-06
4.25167e-06
9.6661e-06
1.92817e-05
1.92975e-05
4.24668e-06
9.66494e-06
4.24924e-06
9.67258e-06
6.93351e-07
6.93292e-07
6.93294e-07
6.92955e-07
6.92876e-07
6.93176e-07
6.93127e-07
2.29005e-06
3.66096e-06
9.46962e-07
1.18932e-06
2.29369e-06
3.65379e-06
9.46173e-07
1.93062e-05
1.93103e-05
2.28954e-06
9.46578e-07
3.65647e-06
1.18954e-06
2.29148e-06
9.45893e-07
3.65526e-06
5.6843e-06
5.68513e-06
1.4228e-06
5.681e-06
5.68174e-06
4.24751e-06
9.67684e-06
4.24393e-06
9.67364e-06
1.93305e-05
1.93288e-05
4.24873e-06
9.67606e-06
4.24617e-06
9.67016e-06
6.92876e-07
6.93168e-07
6.93122e-07
6.92893e-07
6.92771e-07
6.92807e-07
6.92843e-07
2.2868e-06
3.65117e-06
9.44044e-07
1.18732e-06
2.28576e-06
3.65512e-06
9.43608e-07
1.93125e-05
1.93169e-05
2.28769e-06
9.44469e-07
3.65519e-06
1.18803e-06
2.28766e-06
9.43968e-07
3.65578e-06
5.67965e-06
5.68175e-06
1.42319e-06
5.6826e-06
5.68482e-06
4.24535e-06
9.65946e-06
4.25024e-06
9.66898e-06
1.92984e-05
1.93117e-05
4.24473e-06
9.6621e-06
4.24916e-06
9.67448e-06
6.92618e-07
6.92641e-07
6.92652e-07
6.92174e-07
6.92317e-07
6.92354e-07
6.92279e-07
2.28447e-06
3.65732e-06
9.42551e-07
1.18493e-06
2.28839e-06
3.65203e-06
9.41649e-07
1.93166e-05
1.93258e-05
2.2839e-06
9.42457e-07
3.65521e-06
1.18463e-06
2.28728e-06
9.41559e-07
3.65159e-06
5.6847e-06
5.68619e-06
1.41899e-06
5.68152e-06
5.68278e-06
4.24836e-06
9.68865e-06
4.24435e-06
9.68306e-06
1.93469e-05
1.93462e-05
4.24861e-06
9.6897e-06
4.24502e-06
9.68211e-06
6.92246e-07
6.92277e-07
6.92179e-07
6.90827e-07
6.907e-07
6.9088e-07
6.9084e-07
2.28416e-06
3.65387e-06
9.40066e-07
1.18313e-06
2.28266e-06
3.65575e-06
9.39501e-07
1.93396e-05
1.9339e-05
2.28414e-06
9.40067e-07
3.65446e-06
1.18317e-06
2.28296e-06
9.3951e-07
3.65545e-06
5.68447e-06
5.68617e-06
1.41823e-06
5.68538e-06
5.68713e-06
4.23749e-06
9.66694e-06
4.2446e-06
9.6826e-06
1.93245e-05
1.93442e-05
4.23787e-06
9.66856e-06
4.24432e-06
9.68565e-06
6.90234e-07
6.90515e-07
6.90537e-07
6.8988e-07
6.89787e-07
6.90022e-07
6.90086e-07
2.27457e-06
3.6486e-06
9.36647e-07
1.17706e-06
2.28004e-06
3.6417e-06
9.35371e-07
1.9329e-05
1.93498e-05
2.27512e-06
9.36831e-07
3.64873e-06
1.17771e-06
2.27996e-06
9.35627e-07
3.6435e-06
5.68021e-06
5.68175e-06
1.41278e-06
5.67604e-06
5.6777e-06
4.24892e-06
9.69331e-06
4.24196e-06
9.67567e-06
1.93576e-05
1.93419e-05
4.24895e-06
9.69423e-06
4.2429e-06
9.67616e-06
6.89825e-07
6.89978e-07
6.90027e-07
6.88943e-07
6.89255e-07
6.88855e-07
6.88798e-07
2.28121e-06
3.65272e-06
9.34194e-07
1.17808e-06
2.27753e-06
3.65572e-06
9.34044e-07
1.9356e-05
1.93421e-05
2.28077e-06
9.34369e-07
3.65336e-06
1.17776e-06
2.27809e-06
9.3406e-07
3.6542e-06
5.68856e-06
5.69037e-06
1.41558e-06
5.69005e-06
5.69176e-06
4.23919e-06
9.66639e-06
4.24498e-06
9.69633e-06
1.93296e-05
1.93769e-05
4.23833e-06
9.66926e-06
4.24356e-06
9.69867e-06
6.88753e-07
6.88474e-07
6.88393e-07
6.86149e-07
6.8592e-07
6.86442e-07
6.86279e-07
2.27071e-06
3.65061e-06
9.32348e-07
1.17147e-06
2.27707e-06
3.64159e-06
9.30362e-07
1.93371e-05
1.93787e-05
2.27031e-06
9.31959e-07
3.64821e-06
1.17153e-06
2.2756e-06
9.30182e-07
3.64134e-06
5.68492e-06
5.68611e-06
1.40609e-06
5.67706e-06
5.67839e-06
4.23483e-06
9.69591e-06
4.23601e-06
9.69082e-06
1.93759e-05
1.93708e-05
4.23674e-06
9.69627e-06
4.23768e-06
9.69142e-06
6.85486e-07
6.85992e-07
6.85922e-07
6.84691e-07
6.84703e-07
6.84758e-07
6.84856e-07
2.26597e-06
3.64256e-06
9.26984e-07
1.16669e-06
2.26804e-06
3.63621e-06
9.25488e-07
1.93679e-05
1.93655e-05
2.26732e-06
9.27406e-07
3.64537e-06
1.16752e-06
2.26939e-06
9.26019e-07
3.63835e-06
5.68002e-06
5.68193e-06
1.40442e-06
5.67659e-06
5.67871e-06
4.24398e-06
9.67278e-06
4.23338e-06
9.67572e-06
1.9337e-05
1.93574e-05
4.24239e-06
9.67475e-06
4.23324e-06
9.67826e-06
6.84929e-07
6.84935e-07
6.85027e-07
6.75611e-07
6.75431e-07
6.75387e-07
6.75124e-07
2.2681e-06
3.65333e-06
9.24292e-07
1.16683e-06
2.26658e-06
3.64583e-06
9.23638e-07
1.93419e-05
1.93644e-05
2.26692e-06
9.2438e-07
3.65204e-06
1.16583e-06
2.26631e-06
9.23494e-07
3.64355e-06
5.69583e-06
5.69754e-06
1.41049e-06
5.70608e-06
5.70733e-06
3.44344e-06
8.87924e-06
4.20101e-06
5.82884e-06
1.71094e-05
8.49784e-06
3.44494e-06
8.88119e-06
4.20063e-06
5.82977e-06
3.20855e-07
4.8681e-07
4.86785e-07
7.11235e-07
3.27421e-07
5.0781e-07
5.07812e-07
2.17287e-06
3.55531e-06
8.99965e-07
1.05129e-06
2.24461e-06
3.6316e-06
8.3537e-07
1.71179e-05
8.50238e-06
2.17359e-06
8.99934e-07
3.5553e-06
1.05198e-06
2.244e-06
8.35483e-07
3.63339e-06
5.6055e-06
5.60694e-06
1.29801e-06
5.21821e-06
5.21897e-06
1.91086e-05
1.91072e-05
1.91129e-05
1.91103e-05
1.42279e-06
5.6518e-06
5.65369e-06
5.65192e-06
5.6541e-06
4.23934e-06
9.57658e-06
9.57861e-06
4.24079e-06
4.23929e-06
9.56718e-06
9.57075e-06
4.24108e-06
2.29777e-06
1.19131e-06
3.64941e-06
9.40723e-07
3.64973e-06
9.39992e-07
2.29849e-06
2.2977e-06
1.19136e-06
3.65215e-06
9.40675e-07
3.6504e-06
9.39687e-07
2.29873e-06
1.90959e-05
1.90941e-05
1.42347e-06
5.65797e-06
5.65763e-06
5.65485e-06
5.65392e-06
1.90888e-05
1.90856e-05
4.24018e-06
9.57942e-06
9.58007e-06
4.24081e-06
2.29834e-06
1.19124e-06
3.64993e-06
9.40803e-07
3.65056e-06
9.40156e-07
2.29849e-06
4.24027e-06
9.57405e-06
9.5727e-06
4.24094e-06
2.29832e-06
1.19179e-06
9.40913e-07
3.65141e-06
9.4011e-07
3.65099e-06
2.29863e-06
2.29959e-06
1.19145e-06
3.65338e-06
9.41238e-07
3.65118e-06
9.3989e-07
2.30165e-06
4.24167e-06
9.56073e-06
9.56277e-06
4.24474e-06
2.30029e-06
1.19422e-06
9.41965e-07
3.65737e-06
9.40538e-07
3.6568e-06
2.30218e-06
4.24232e-06
9.55448e-06
9.54455e-06
4.24514e-06
1.91086e-05
1.9098e-05
1.42375e-06
5.65659e-06
5.65622e-06
5.65559e-06
5.65484e-06
1.91007e-05
1.90891e-05
2.30018e-06
1.19184e-06
9.4149e-07
3.65263e-06
9.40308e-07
3.65181e-06
2.30155e-06
2.30085e-06
1.19412e-06
9.42049e-07
3.65785e-06
9.40681e-07
3.65755e-06
2.30219e-06
4.24239e-06
9.56726e-06
9.56395e-06
4.24456e-06
4.24308e-06
9.5568e-06
9.5448e-06
4.24514e-06
1.42898e-06
5.66379e-06
5.66549e-06
5.66336e-06
5.66527e-06
1.90868e-05
1.90551e-05
1.90903e-05
1.90568e-05
1.91086e-05
1.91171e-05
1.91131e-05
1.91219e-05
5.65192e-06
5.65372e-06
1.41937e-06
5.65098e-06
5.65256e-06
1.91269e-05
1.91182e-05
1.91305e-05
1.91229e-05
1.42106e-06
5.65068e-06
5.65227e-06
5.65101e-06
5.65257e-06
4.24187e-06
9.56726e-06
4.24155e-06
9.57455e-06
2.29864e-06
3.64962e-06
9.41467e-07
1.19155e-06
2.29886e-06
3.64868e-06
9.42125e-07
2.29902e-06
3.653e-06
9.41635e-07
1.19316e-06
2.29917e-06
3.65241e-06
9.42446e-07
4.24149e-06
9.58693e-06
9.58159e-06
4.24069e-06
4.24182e-06
9.58925e-06
9.57707e-06
4.2408e-06
2.2987e-06
1.1917e-06
3.64808e-06
9.43221e-07
3.64881e-06
9.42725e-07
2.29766e-06
2.29906e-06
1.19321e-06
3.64993e-06
9.43575e-07
3.65245e-06
9.43109e-07
2.29782e-06
5.65907e-06
5.6585e-06
1.42305e-06
5.65809e-06
5.65739e-06
1.90912e-05
1.91139e-05
1.91356e-05
1.91175e-05
1.42446e-06
5.65472e-06
5.65357e-06
5.65802e-06
5.657e-06
1.91378e-05
1.91182e-05
2.29811e-06
3.65006e-06
9.41466e-07
1.19133e-06
2.29872e-06
3.64893e-06
9.42035e-07
4.24112e-06
9.57496e-06
4.24129e-06
9.58146e-06
2.29833e-06
9.41703e-07
3.65174e-06
1.19273e-06
2.29886e-06
9.42356e-07
3.65087e-06
4.2409e-06
9.58848e-06
9.58448e-06
4.24029e-06
2.29814e-06
1.19145e-06
3.64842e-06
9.4307e-07
3.64906e-06
9.42593e-07
2.29725e-06
4.24117e-06
9.59018e-06
9.58298e-06
4.24037e-06
2.29832e-06
1.19278e-06
9.43398e-07
3.64949e-06
9.42944e-07
3.65095e-06
2.29734e-06
4.2446e-06
9.5622e-06
4.24517e-06
9.57648e-06
2.3014e-06
9.43108e-07
3.6574e-06
1.19514e-06
2.30249e-06
9.43878e-07
3.654e-06
4.24466e-06
9.56085e-06
4.24547e-06
9.58617e-06
2.30094e-06
1.19351e-06
3.65006e-06
9.44284e-07
3.65298e-06
9.4393e-07
2.29893e-06
4.24426e-06
9.59385e-06
9.58039e-06
4.24224e-06
2.30101e-06
1.19465e-06
9.4458e-07
3.65044e-06
9.44355e-07
3.65369e-06
2.29898e-06
4.24431e-06
9.60341e-06
9.59153e-06
4.24229e-06
5.65693e-06
5.65656e-06
1.42195e-06
5.65592e-06
5.65518e-06
1.91032e-05
1.9122e-05
1.91353e-05
1.9125e-05
1.42346e-06
5.65428e-06
5.65302e-06
5.65583e-06
5.65498e-06
1.91366e-05
1.91242e-05
2.30093e-06
9.43118e-07
3.65776e-06
1.19495e-06
2.30236e-06
9.43818e-07
3.65424e-06
4.24382e-06
9.56935e-06
4.24477e-06
9.58241e-06
4.24412e-06
9.56341e-06
4.24528e-06
9.58843e-06
2.30032e-06
1.19309e-06
9.44134e-07
3.64962e-06
9.43791e-07
3.6516e-06
2.29855e-06
2.30057e-06
1.19442e-06
9.44458e-07
3.65076e-06
9.44249e-07
3.6539e-06
2.29867e-06
4.24351e-06
9.59407e-06
9.58509e-06
4.24179e-06
4.24376e-06
9.60437e-06
9.59352e-06
4.24195e-06
1.90958e-05
1.91373e-05
1.90996e-05
1.91408e-05
1.42594e-06
5.65394e-06
5.65543e-06
5.65806e-06
5.6595e-06
1.91566e-05
1.91416e-05
1.91591e-05
1.9145e-05
1.91271e-05
1.91321e-05
1.91306e-05
1.91349e-05
5.65109e-06
5.65276e-06
1.4221e-06
5.65257e-06
5.6544e-06
1.91367e-05
1.91318e-05
1.91394e-05
1.91346e-05
1.42477e-06
5.65739e-06
5.65938e-06
5.65397e-06
5.65589e-06
4.23988e-06
9.59112e-06
4.2406e-06
9.59648e-06
2.29674e-06
3.64834e-06
9.43718e-07
1.19294e-06
2.29759e-06
3.64849e-06
9.44201e-07
2.29666e-06
3.64994e-06
9.43966e-07
1.19307e-06
2.2977e-06
3.64853e-06
9.44309e-07
4.24004e-06
9.591e-06
9.58982e-06
4.24103e-06
4.2399e-06
9.59673e-06
9.59665e-06
4.24089e-06
2.29689e-06
1.19373e-06
3.65097e-06
9.45452e-07
3.64935e-06
9.44796e-07
2.29732e-06
2.29674e-06
1.19326e-06
3.65033e-06
9.45346e-07
3.64896e-06
9.44774e-07
2.29713e-06
5.65462e-06
5.65315e-06
1.42172e-06
5.65337e-06
5.65203e-06
1.91394e-05
1.91473e-05
1.91484e-05
1.91456e-05
1.42422e-06
5.65735e-06
5.65587e-06
5.6543e-06
5.6527e-06
1.91484e-05
1.91469e-05
2.29676e-06
3.64873e-06
9.43603e-07
1.19274e-06
2.29726e-06
3.64907e-06
9.44127e-07
4.24002e-06
9.59102e-06
4.24039e-06
9.59392e-06
2.29669e-06
9.43864e-07
3.64962e-06
1.19319e-06
2.29728e-06
9.44304e-07
3.6492e-06
4.24034e-06
9.59177e-06
9.5906e-06
4.2415e-06
2.29711e-06
1.19356e-06
3.6517e-06
9.45465e-07
3.65002e-06
9.44782e-07
2.29767e-06
4.24033e-06
9.59459e-06
9.59403e-06
4.24132e-06
2.29699e-06
1.19377e-06
9.45508e-07
3.65127e-06
9.44882e-07
3.64984e-06
2.29757e-06
4.24035e-06
9.5958e-06
4.24175e-06
9.59997e-06
2.29711e-06
9.44724e-07
3.65033e-06
1.19362e-06
2.29859e-06
9.44852e-07
3.64893e-06
4.24039e-06
9.60435e-06
4.24179e-06
9.60435e-06
2.29698e-06
1.19335e-06
3.65e-06
9.45463e-07
3.64865e-06
9.45011e-07
2.29704e-06
4.2402e-06
9.59862e-06
9.59988e-06
4.24084e-06
2.29701e-06
1.19368e-06
9.45529e-07
3.65023e-06
9.45109e-07
3.64927e-06
2.29702e-06
4.24023e-06
9.59889e-06
9.60273e-06
4.24077e-06
5.65432e-06
5.65299e-06
1.42249e-06
5.6546e-06
5.65313e-06
1.91372e-05
1.91427e-05
1.9146e-05
1.9142e-05
1.42491e-06
5.65861e-06
5.65708e-06
5.65569e-06
5.65418e-06
1.9145e-05
1.91423e-05
2.29716e-06
9.4462e-07
3.65065e-06
1.19342e-06
2.29838e-06
9.4478e-07
3.64946e-06
4.24052e-06
9.59498e-06
4.24144e-06
9.59696e-06
4.24053e-06
9.60509e-06
4.24154e-06
9.60461e-06
2.2972e-06
1.19375e-06
9.45636e-07
3.65092e-06
9.45119e-07
3.64956e-06
2.2975e-06
2.29716e-06
1.1935e-06
9.4555e-07
3.6509e-06
9.45097e-07
3.64983e-06
2.29739e-06
4.24051e-06
9.59596e-06
9.59676e-06
4.24135e-06
4.2405e-06
9.59897e-06
9.60281e-06
4.24126e-06
1.9156e-05
1.91549e-05
1.91583e-05
1.91568e-05
1.4245e-06
5.6562e-06
5.65801e-06
5.65355e-06
5.65527e-06
1.91485e-05
1.91514e-05
1.91502e-05
1.9153e-05
1.9137e-05
1.91455e-05
1.91398e-05
1.91489e-05
5.65958e-06
5.66156e-06
1.42797e-06
5.66358e-06
5.66547e-06
1.91602e-05
1.91468e-05
1.91642e-05
1.91503e-05
1.43044e-06
5.66806e-06
5.66981e-06
5.66557e-06
5.66739e-06
4.24425e-06
9.59608e-06
4.24162e-06
9.59437e-06
2.29956e-06
3.6525e-06
9.46255e-07
1.19663e-06
2.29805e-06
3.65486e-06
9.47085e-07
2.29947e-06
3.65213e-06
9.46108e-07
1.19619e-06
2.29789e-06
3.65493e-06
9.46931e-07
4.2453e-06
9.59746e-06
9.59325e-06
4.24751e-06
4.24524e-06
9.59527e-06
9.59364e-06
4.24748e-06
2.30041e-06
1.19749e-06
3.65778e-06
9.48763e-07
3.65638e-06
9.47978e-07
2.3016e-06
2.30034e-06
1.19712e-06
3.65815e-06
9.48647e-07
3.65667e-06
9.47837e-07
2.30154e-06
5.66002e-06
5.65828e-06
1.42744e-06
5.66458e-06
5.66309e-06
1.91467e-05
1.91473e-05
1.91575e-05
1.91477e-05
1.43003e-06
5.66963e-06
5.6682e-06
5.6671e-06
5.66543e-06
1.91561e-05
1.91467e-05
2.29969e-06
3.6532e-06
9.46292e-07
1.19647e-06
2.29838e-06
3.65546e-06
9.4711e-07
4.24435e-06
9.59441e-06
4.24229e-06
9.59482e-06
2.29959e-06
9.46297e-07
3.65272e-06
1.1964e-06
2.29824e-06
9.47097e-07
3.65491e-06
4.24545e-06
9.59963e-06
9.59471e-06
4.24747e-06
2.30047e-06
1.19731e-06
3.65825e-06
9.48755e-07
3.6569e-06
9.47995e-07
2.30152e-06
4.24552e-06
9.59853e-06
9.59497e-06
4.24737e-06
2.30034e-06
1.19731e-06
9.48743e-07
3.65797e-06
9.47976e-07
3.65642e-06
2.30144e-06
4.24417e-06
9.59715e-06
4.24155e-06
9.59482e-06
2.29921e-06
9.46171e-07
3.65168e-06
1.19603e-06
2.29764e-06
9.4691e-07
3.65406e-06
4.24397e-06
9.59718e-06
4.24144e-06
9.59573e-06
2.30018e-06
1.19709e-06
3.65787e-06
9.48612e-07
3.6563e-06
9.47806e-07
2.30148e-06
4.24516e-06
9.59549e-06
9.59395e-06
4.24748e-06
2.30001e-06
1.19689e-06
9.48538e-07
3.6571e-06
9.47757e-07
3.65564e-06
2.30131e-06
4.24493e-06
9.59698e-06
9.59536e-06
4.24724e-06
5.66069e-06
5.65916e-06
1.42758e-06
5.66469e-06
5.66316e-06
1.91441e-05
1.91481e-05
1.91631e-05
1.9151e-05
1.43012e-06
5.66967e-06
5.66816e-06
5.66676e-06
5.66525e-06
1.91606e-05
1.91487e-05
2.29932e-06
9.46209e-07
3.6523e-06
1.19588e-06
2.298e-06
9.46942e-07
3.65461e-06
4.24424e-06
9.59522e-06
4.242e-06
9.59476e-06
4.24413e-06
9.5974e-06
4.24188e-06
9.59634e-06
2.30019e-06
1.19726e-06
9.48711e-07
3.65766e-06
9.47941e-07
3.65608e-06
2.30135e-06
2.30008e-06
1.19672e-06
9.48538e-07
3.65754e-06
9.47777e-07
3.65611e-06
2.30122e-06
4.24516e-06
9.59827e-06
9.59475e-06
4.24729e-06
4.24503e-06
9.5983e-06
9.59611e-06
4.24716e-06
1.91467e-05
1.91487e-05
1.91485e-05
1.91508e-05
1.42949e-06
5.6671e-06
5.66871e-06
5.66453e-06
5.6662e-06
1.91586e-05
1.91487e-05
1.91613e-05
1.9151e-05
1.91625e-05
1.91802e-05
1.91665e-05
1.9184e-05
5.66899e-06
5.67074e-06
1.42996e-06
5.66932e-06
5.67116e-06
1.91982e-05
1.91828e-05
1.92014e-05
1.91864e-05
1.43155e-06
5.66914e-06
5.67106e-06
5.66953e-06
5.6714e-06
4.24856e-06
9.59662e-06
4.24804e-06
9.60667e-06
2.30197e-06
3.65851e-06
9.49479e-07
1.1986e-06
2.30206e-06
3.65836e-06
9.49977e-07
2.3019e-06
3.65889e-06
9.4938e-07
1.19847e-06
2.30202e-06
3.65861e-06
9.49892e-07
4.2487e-06
9.62062e-06
9.6099e-06
4.24843e-06
4.24864e-06
9.62098e-06
9.60958e-06
4.24839e-06
2.30203e-06
1.19862e-06
3.65774e-06
9.50566e-07
3.65856e-06
9.5036e-07
2.30111e-06
2.30196e-06
1.19853e-06
3.65823e-06
9.50503e-07
3.65884e-06
9.50283e-07
2.30107e-06
5.67071e-06
5.6691e-06
1.42991e-06
5.67089e-06
5.66945e-06
1.91586e-05
1.91794e-05
1.92013e-05
1.91843e-05
1.43159e-06
5.67103e-06
5.66958e-06
5.67122e-06
5.66968e-06
1.91999e-05
1.91828e-05
2.30203e-06
3.65898e-06
9.49467e-07
1.19842e-06
2.302e-06
3.6589e-06
9.49957e-07
4.24878e-06
9.59981e-06
4.24814e-06
9.60848e-06
2.30199e-06
9.49461e-07
3.65885e-06
1.19857e-06
2.3019e-06
9.49968e-07
3.65899e-06
4.24893e-06
9.62171e-06
9.6118e-06
4.24855e-06
2.30214e-06
1.19845e-06
3.65829e-06
9.50535e-07
3.65911e-06
9.50346e-07
2.30112e-06
4.24899e-06
9.62054e-06
9.61048e-06
4.24852e-06
2.30208e-06
1.19858e-06
9.50551e-07
3.65808e-06
9.5036e-07
3.65923e-06
2.30104e-06
4.24851e-06
9.59683e-06
4.24802e-06
9.60706e-06
2.30168e-06
9.49258e-07
3.65786e-06
1.19816e-06
2.30175e-06
9.49789e-07
3.65776e-06
4.24834e-06
9.59802e-06
4.24779e-06
9.60633e-06
2.30184e-06
1.19851e-06
3.65794e-06
9.50515e-07
3.65851e-06
9.50275e-07
2.30102e-06
4.24856e-06
9.62169e-06
9.61007e-06
4.24836e-06
2.30173e-06
1.19833e-06
9.50478e-07
3.65759e-06
9.50208e-07
3.658e-06
2.30094e-06
4.24841e-06
9.62005e-06
9.60879e-06
4.24824e-06
5.67086e-06
5.66937e-06
1.43017e-06
5.6715e-06
5.67e-06
1.91629e-05
1.91805e-05
1.92007e-05
1.91854e-05
1.43174e-06
5.67064e-06
5.66913e-06
5.67173e-06
5.67024e-06
1.91984e-05
1.9183e-05
2.30177e-06
9.49254e-07
3.65827e-06
1.198e-06
2.30169e-06
9.49781e-07
3.65828e-06
4.24866e-06
9.59954e-06
4.2479e-06
9.60815e-06
4.24851e-06
9.5994e-06
4.24775e-06
9.60763e-06
2.30202e-06
1.19854e-06
9.50583e-07
3.65779e-06
9.50363e-07
3.65894e-06
2.30108e-06
2.30187e-06
1.19819e-06
9.50465e-07
3.65816e-06
9.50207e-07
3.65852e-06
2.30105e-06
4.24879e-06
9.62056e-06
9.61019e-06
4.24848e-06
4.24865e-06
9.62051e-06
9.60984e-06
4.24847e-06
1.91606e-05
1.91787e-05
1.91634e-05
1.91814e-05
1.43108e-06
5.66903e-06
5.67081e-06
5.66883e-06
5.67053e-06
1.91983e-05
1.91817e-05
1.92005e-05
1.91843e-05
1.91996e-05
1.92083e-05
1.92028e-05
1.92116e-05
5.66938e-06
5.67128e-06
1.42941e-06
5.66981e-06
5.67155e-06
1.92127e-05
1.92083e-05
1.92164e-05
1.92117e-05
1.43126e-06
5.67143e-06
5.67303e-06
5.67056e-06
5.6722e-06
4.24868e-06
9.62249e-06
4.24847e-06
9.62677e-06
2.30048e-06
3.65797e-06
9.50749e-07
1.19844e-06
2.30113e-06
3.65776e-06
9.50858e-07
2.30048e-06
3.65857e-06
9.50696e-07
1.19842e-06
2.3011e-06
3.65846e-06
9.50819e-07
4.24898e-06
9.62791e-06
9.62703e-06
4.24915e-06
4.24895e-06
9.62791e-06
9.62695e-06
4.24907e-06
2.30068e-06
1.19841e-06
3.65825e-06
9.5111e-07
3.6582e-06
9.51006e-07
2.30034e-06
2.30068e-06
1.19829e-06
3.65842e-06
9.51051e-07
3.65887e-06
9.50964e-07
2.30027e-06
5.67157e-06
5.66995e-06
1.4297e-06
5.67193e-06
5.67048e-06
1.92013e-05
1.92093e-05
1.92145e-05
1.92101e-05
1.43139e-06
5.67271e-06
5.67136e-06
5.67264e-06
5.67105e-06
1.92133e-05
1.92092e-05
2.30022e-06
3.65848e-06
9.50698e-07
1.19823e-06
2.30112e-06
3.65816e-06
9.50776e-07
4.24815e-06
9.62213e-06
4.24858e-06
9.62811e-06
2.30006e-06
9.50694e-07
3.65819e-06
1.19814e-06
2.301e-06
9.50759e-07
3.6573e-06
4.24842e-06
9.62985e-06
9.62849e-06
4.24885e-06
2.30028e-06
1.19819e-06
3.65865e-06
9.51015e-07
3.65854e-06
9.50904e-07
2.29995e-06
4.24834e-06
9.62993e-06
9.62857e-06
4.24874e-06
2.30009e-06
1.19813e-06
9.50991e-07
3.65816e-06
9.50863e-07
3.65767e-06
2.29984e-06
4.249e-06
9.62327e-06
4.24848e-06
9.62748e-06
2.30061e-06
9.50713e-07
3.658e-06
1.19857e-06
2.30096e-06
9.50903e-07
3.6583e-06
4.24889e-06
9.6216e-06
4.24837e-06
9.62602e-06