/*--------------------------------*- C++ -*----------------------------------*\
| =========                 |                                                 |
| \\      /  F ield         | OpenFOAM: The Open Source CFD Toolbox           |
|  \\    /   O peration     | Version:  v2006                                 |
|   \\  /    A nd           | Website:  www.openfoam.com                      |
|    \\/     M anipulation  |                                                 |
\*---------------------------------------------------------------------------*/
FoamFile
{
    version     2.0;
    format      ascii;
    class       volScalarField;
    location    "500";
    object      nut;
}
// * * * * * * * * * * * * * * * * * * * * * * * * * * * * * * * * * * * * * //

dimensions      [0 2 -1 0 0 0 0];


internalField   nonuniform List<scalar> 
42616
(
0.000211725
0.000202871
0.000202818
0.000179587
0.000212823
0.000202925
0.000203477
0.000185559
0.000213578
0.000205071
0.000204793
0.000185743
0.000214466
0.000204453
0.000204387
0.000183982
0.000216907
0.000206064
0.000206176
0.000185559
0.000219753
0.000207953
0.000207992
0.00018676
0.000221686
0.00020878
0.000208554
0.000187568
0.000223189
0.000209245
0.00020952
0.000187125
0.000224478
0.000210037
0.000209637
0.000188509
0.000226036
0.000210409
0.000211039
0.000188114
0.000227325
0.000211595
0.000210919
0.000188981
0.000228373
0.00021114
0.000211651
0.00018898
0.00022985
0.000212545
0.000212226
0.000189362
0.000230413
0.000212188
0.000212325
0.000189145
0.000231484
0.000212505
0.000212679
0.00018963
0.00023247
0.000213385
0.000213198
0.000189793
0.00023321
0.000213496
0.000213453
0.000189763
0.000233278
0.000212075
0.000212614
0.000188532
0.000235008
0.000215141
0.000214577
0.000191899
0.000234938
0.000212964
0.000212868
0.000187921
0.000235997
0.000213114
0.000213633
0.000192283
0.000185315
0.000204413
0.000203547
0.000183275
0.000204348
0.000203117
0.000203474
0.000200929
0.00018333
0.000203048
0.000200878
0.000179572
0.000185193
0.000185096
0.000204396
0.000203077
0.000204241
0.00020286
0.000183006
0.000183662
0.000204347
0.000203003
0.000204289
0.000203297
0.000200793
0.000202616
0.000202448
0.000183184
0.000184333
0.000200753
0.000202943
0.000202515
0.000184785
0.000184885
0.000184057
0.000204206
0.00020312
0.000204138
0.000204799
0.000184016
0.000185221
0.000204322
0.00020378
0.000204161
0.000204572
0.000203851
0.000204977
0.000205806
0.000184504
0.000184814
0.000203937
0.000204757
0.000205818
0.00018611
0.000183746
0.000183417
0.000204028
0.000204862
0.000203867
0.00020437
0.000184966
0.00018378
0.000204019
0.000204569
0.000203846
0.000204217
0.000205664
0.000204544
0.000204899
0.000184555
0.00018378
0.000205664
0.000204405
0.000204891
0.000184169
0.000183467
0.000185548
0.000204063
0.000204296
0.00020555
0.000205363
0.000183599
0.00018531
0.00020406
0.000204245
0.00020558
0.00020549
0.000204774
0.000205387
0.000205348
0.000183679
0.000185404
0.000204771
0.000205533
0.000205384
0.000185281
0.000185868
0.000186971
0.000206197
0.000206038
0.000207648
0.00020759
0.000185662
0.000186983
0.000206225
0.000206145
0.000207673
0.000207696
0.000205973
0.000207604
0.000207372
0.00018575
0.000187061
0.000206003
0.000207708
0.000207396
0.000186721
0.000186933
0.000187453
0.000207952
0.000207941
0.000208541
0.000208591
0.000187009
0.000187472
0.000207977
0.00020798
0.000208537
0.000208337
0.000207731
0.000208615
0.000208628
0.00018698
0.000187193
0.00020776
0.000208369
0.000208633
0.00018767
0.000187391
0.000187737
0.000208731
0.00020874
0.000209192
0.000209045
0.000187342
0.000187616
0.000208716
0.000208512
0.000209215
0.000209374
0.000208887
0.000209096
0.000209
0.000187125
0.00018802
0.000208871
0.000209421
0.000209009
0.000187258
0.000187624
0.000187932
0.000209306
0.000209208
0.000209641
0.000209883
0.00018755
0.000188248
0.000209363
0.000209505
0.000209646
0.000209465
0.000208992
0.00020987
0.000209562
0.000187879
0.000187567
0.000209022
0.000209477
0.000209611
0.000188276
0.00018786
0.000188663
0.000209815
0.000210006
0.00021047
0.000210119
0.000188095
0.000188074
0.000209786
0.000209602
0.000210457
0.000210598
0.000210091
0.000210185
0.000210531
0.000187464
0.000189145
0.000210107
0.000210696
0.000210524
0.000188324
0.000188659
0.000188895
0.000210694
0.000210355
0.00021111
0.000211427
0.000188001
0.000189713
0.000210747
0.000210983
0.000211157
0.000211038
0.000210466
0.000211416
0.00021081
0.000189164
0.000188391
0.000210493
0.00021102
0.000210852
0.000188724
0.000188678
0.000188781
0.000211124
0.000211585
0.000211315
0.000211139
0.00018956
0.000188049
0.000211149
0.000210915
0.000211284
0.000211242
0.000211095
0.000211234
0.000211669
0.000188214
0.000189056
0.000211127
0.000211312
0.000211628
0.000189196
0.000188765
0.000190215
0.000211537
0.000211061
0.000212378
0.000211997
0.000187884
0.000190192
0.00021152
0.000211523
0.000212466
0.000212192
0.00021167
0.000212007
0.000211855
0.000189185
0.000189674
0.000211672
0.000212207
0.000211924
0.000189295
0.00018998
0.000188436
0.000212435
0.000212555
0.000211938
0.000212539
0.000190449
0.000189028
0.000212501
0.000212223
0.000211886
0.000212223
0.000212023
0.000212571
0.000212369
0.00018944
0.000189292
0.000212094
0.000212239
0.000212348
0.000189339
0.000188309
0.000190271
0.000211947
0.000212114
0.000212649
0.00021215
0.000188588
0.000189247
0.000211924
0.000212275
0.000212705
0.000212552
0.000212351
0.000212214
0.000212507
0.00018918
0.000189655
0.000212315
0.000212619
0.000212557
0.000189627
0.000190257
0.000189477
0.000212914
0.000212462
0.000213023
0.000213212
0.000189487
0.000190142
0.000212973
0.000212625
0.000213035
0.000213006
0.000212656
0.000213232
0.000213113
0.000189512
0.000189841
0.000212719
0.000213031
0.000213137
0.00018992
0.000189344
0.000190506
0.000213051
0.000213354
0.000213463
0.000213616
0.000190044
0.000190627
0.000213052
0.00021317
0.000213466
0.000213486
0.000213158
0.000213659
0.000213304
0.000189766
0.000190444
0.000213165
0.000213518
0.0002133
0.00019001
0.000190238
0.000188041
0.00021341
0.000213455
0.000212314
0.000211898
0.000190257
0.000187381
0.000213415
0.000213419
0.000212351
0.000212394
0.000213258
0.000211944
0.000212517
0.000190154
0.00018824
0.000213256
0.000212461
0.000212569
0.000188557
0.000187961
0.00019214
0.000212395
0.00021202
0.00021433
0.00021447
0.000187313
0.000192683
0.000212452
0.000212542
0.000214358
0.000214238
0.000212707
0.000214531
0.0002144
0.000188192
0.000191871
0.00021277
0.000214297
0.00021443
0.000192016
0.00019218
0.000189002
0.000214766
0.000215095
0.00021406
0.000214364
0.000192866
0.000189126
0.000214759
0.000214534
0.000213987
0.000213746
0.000214624
0.000214366
0.000213606
0.000191815
0.000188922
0.000214627
0.000213738
0.000213541
0.000188536
0.000188188
0.000188394
0.000212936
0.000212966
0.000213724
0.000213401
0.000188057
0.000188009
0.000212896
0.000212874
0.000213818
0.000214146
0.000212662
0.000213454
0.000214141
0.000188307
0.000188975
0.000212626
0.000214189
0.000214217
0.000189235
0.000191511
0.00021326
0.00021304
0.000191275
0.00021334
0.00021356
0.000235879
0.000236175
0.000236253
0.000213708
0.000191889
0.000213779
0.000211119
0.000210987
0.000210541
0.000209004
9.99503e-05
5.0765e-05
0.000100117
5.07714e-05
2.38935e-05
2.39004e-05
0.0001001
5.07625e-05
0.000100147
5.07692e-05
0.000211083
0.00021073
0.000208985
0.000212601
0.000211133
0.000211452
0.000210322
0.00014344
0.000103064
0.000213493
0.000202582
0.000143645
0.000103031
0.000213056
2.38973e-05
2.39028e-05
0.00014363
0.000213208
0.000103293
0.000202754
0.000143619
0.00021293
0.00010346
7.64529e-05
7.6468e-05
0.000181483
7.77146e-05
7.77593e-05
0.000100396
5.0784e-05
0.000100129
5.07881e-05
2.39103e-05
2.39142e-05
0.000100384
5.07787e-05
0.000100251
5.07817e-05
0.000211547
0.000211955
0.000211431
0.000213415
0.000213531
0.000213547
0.00021432
0.000145872
0.000104138
0.000212938
0.000203714
0.000144856
0.000104645
0.000213626
2.39081e-05
2.39108e-05
0.000145907
0.000213189
0.000104301
0.000204099
0.000145126
0.000214097
0.000104541
7.89005e-05
7.89216e-05
0.000186513
7.89609e-05
7.89611e-05
0.000100242
5.07905e-05
0.000100381
5.07934e-05
2.39146e-05
2.39151e-05
0.000100168
5.07842e-05
0.000100307
5.07878e-05
0.000214046
0.000213943
0.000214837
0.000214133
0.000214755
0.000214618
0.000215339
0.000145802
0.000104541
0.00021603
0.00020493
0.000146074
0.000104127
0.000216305
2.39122e-05
2.3914e-05
0.000145666
0.000215948
0.000104313
0.000204678
0.000145925
0.000216146
0.000104002
7.83535e-05
7.83228e-05
0.000184911
7.79833e-05
7.79548e-05
9.97927e-05
5.08032e-05
9.98339e-05
5.08185e-05
2.39195e-05
2.39282e-05
9.98333e-05
5.07994e-05
9.98472e-05
5.08146e-05
0.000214911
0.000214846
0.000215404
0.000216165
0.000216167
0.000216254
0.000216342
0.000144885
0.00010344
0.000216172
0.000204472
0.000144998
0.000103472
0.000216171
2.392e-05
2.39273e-05
0.000144949
0.000216112
0.00010355
0.000204552
0.000145018
0.000216175
0.000103605
7.75978e-05
7.76007e-05
0.000184237
7.77122e-05
7.77307e-05
0.000100436
5.08444e-05
0.000100164
5.08532e-05
2.39375e-05
2.39408e-05
0.000100429
5.08384e-05
0.000100157
5.08478e-05
0.000216848
0.000216958
0.000216926
0.000219105
0.000219037
0.000219115
0.000218898
0.000145987
0.000104195
0.000217286
0.000206661
0.000145376
0.000104451
0.000217888
2.39355e-05
2.39399e-05
0.000145977
0.000217358
0.000104136
0.000206775
0.000145405
0.000217955
0.000104483
7.81959e-05
7.81828e-05
0.000186157
7.82854e-05
7.82718e-05
0.000100466
5.08553e-05
0.000100455
5.08584e-05
2.39425e-05
2.39452e-05
0.000100448
5.0851e-05
0.000100475
5.08533e-05
0.000219711
0.000219733
0.000219554
0.000221257
0.000221265
0.000221147
0.000221239
0.000146329
0.000104432
0.000219591
0.000208207
0.000146205
0.000104447
0.000219994
2.39421e-05
2.39432e-05
0.000146291
0.000219627
0.000104526
0.000208152
0.000146256
0.000220007
0.000104416
7.81809e-05
7.81944e-05
0.000187257
7.81969e-05
7.82072e-05
0.000100473
5.08685e-05
0.000100481
5.08738e-05
2.39494e-05
2.39516e-05
0.000100452
5.08613e-05
0.000100402
5.0869e-05
0.000221682
0.000221584
0.000221708
0.000222834
0.000222774
0.000222877
0.000222702
0.000146512
0.000104511
0.000220986
0.000208888
0.000146484
0.000104494
0.000221221
2.39461e-05
2.39516e-05
0.000146486
0.000220866
0.000104276
0.000208817
0.00014636
0.000221115
0.000104479
7.84429e-05
7.83931e-05
0.000187628
7.84087e-05
7.83593e-05
0.000100402
5.08758e-05
0.000100398
5.08797e-05
2.39534e-05
2.39579e-05
0.000100449
5.08737e-05
0.000100501
5.08757e-05
0.000223149
0.000223242
0.000222987
0.000224137
0.000224224
0.000224062
0.000224098
0.000146315
0.000104272
0.000221829
0.000209419
0.00014631
0.00010432
0.000221983
2.39556e-05
2.39559e-05
0.000146401
0.000221953
0.000104647
0.000209517
0.000146478
0.000222144
0.000104463
7.78762e-05
7.79296e-05
0.000187419
7.78554e-05
7.79102e-05
0.000100427
5.08912e-05
0.000100435
5.08961e-05
2.39629e-05
2.39639e-05
0.000100304
5.0881e-05
0.000100262
5.08891e-05
0.000224567
0.000224352
0.00022458
0.000225588
0.000225404
0.000225634
0.000225658
0.0001468
0.000104613
0.00022274
0.000210083
0.000146556
0.00010457
0.000223003
2.39566e-05
2.39634e-05
0.000146526
0.000222529
0.000104017
0.000209829
0.000146335
0.000222754
0.000104258
7.85547e-05
7.84578e-05
0.000188824
7.86497e-05
7.85408e-05
0.000100402
5.08997e-05
0.000100335
5.09052e-05
2.3964e-05
2.39699e-05
0.000100577
5.09003e-05
0.000100546
5.09033e-05
0.00022581
0.000226125
0.000225982
0.000227033
0.000227152
0.000227073
0.000226835
0.000146418
0.000104096
0.000223605
0.00021064
0.000146523
0.000104231
0.000223798
2.39699e-05
2.39697e-05
0.000146809
0.000223843
0.000104925
0.000211121
0.000146845
0.00022415
0.000104822
7.78927e-05
7.79766e-05
0.000188154
7.77291e-05
7.78473e-05
0.000100556
5.09126e-05
0.000100591
5.0913e-05
2.3977e-05
2.39764e-05
0.000100257
5.09015e-05
0.000100368
5.09013e-05
0.000227514
0.000227311
0.000227252
0.000227998
0.000228082
0.000227952
0.000228258
0.000147183
0.000104995
0.000224651
0.000211574
0.000146786
0.00010493
0.000224968
2.39674e-05
2.39724e-05
0.00014663
0.000224517
0.000104061
0.000210984
0.000146535
0.000224633
0.000104121
7.85047e-05
7.84063e-05
0.000189458
7.8714e-05
7.85496e-05
0.000100075
5.09105e-05
0.000100068
5.09214e-05
2.39702e-05
2.39763e-05
0.000100418
5.09118e-05
0.00010026
5.09253e-05
0.000228267
0.000228368
0.000228572
0.000229527
0.000229251
0.000229452
0.000229259
0.000146221
0.000103739
0.000225213
0.000211388
0.000146655
0.000103763
0.000225293
2.39787e-05
2.39805e-05
0.000146797
0.00022516
0.000104608
0.000211979
0.000146726
0.000225483
0.00010464
7.79075e-05
7.7963e-05
0.00018893
7.77069e-05
7.78591e-05
0.000100853
5.09413e-05
0.000100751
5.09367e-05
2.39907e-05
2.39904e-05
0.000100557
5.09324e-05
0.000100632
5.09229e-05
0.000229743
0.000229789
0.000229595
0.000230254
0.0002305
0.00023033
0.00023031
0.000147441
0.000105114
0.000225896
0.000212725
0.000146751
0.00010529
0.00022629
2.39814e-05
2.39832e-05
0.00014689
0.000226119
0.00010449
0.000212221
0.000146871
0.000226241
0.000104446
7.84969e-05
7.84722e-05
0.000189628
7.86319e-05
7.85189e-05
9.97313e-05
5.09104e-05
9.98902e-05
5.09254e-05
2.39772e-05
2.39822e-05
9.99531e-05
5.09069e-05
9.99094e-05
5.09273e-05
0.000230613
0.000230551
0.000230594
0.000231145
0.000230963
0.000231181
0.000231178
0.000146144
0.000103806
0.00022667
0.000212036
0.000146772
0.000103567
0.000226665
2.3983e-05
2.39866e-05
0.000146542
0.000226497
0.000104156
0.000212441
0.000146605
0.000226639
0.000104214
7.77331e-05
7.77307e-05
0.000189204
7.76453e-05
7.77123e-05
0.000100684
5.09619e-05
0.000100598
5.09537e-05
2.39974e-05
2.39975e-05
0.000100603
5.09561e-05
0.000100641
5.09445e-05
0.000231234
0.000231427
0.000231435
0.000232246
0.000232189
0.000232191
0.000232222
0.000147047
0.000104686
0.000226842
0.000212701
0.000146604
0.000104788
0.000227033
2.39926e-05
2.39926e-05
0.000146927
0.00022703
0.000104602
0.000212753
0.000146823
0.000227171
0.000104526
7.84729e-05
7.8495e-05
0.000189997
7.84334e-05
7.84125e-05
9.98946e-05
5.09232e-05
9.97469e-05
5.0949e-05
2.3988e-05
2.39957e-05
9.99181e-05
5.09181e-05
9.97286e-05
5.09465e-05
0.00023256
0.000232465
0.000232475
0.000233143
0.000233282
0.000233154
0.000233041
0.000146548
0.00010389
0.000227702
0.000213533
0.000146468
0.000104152
0.000227925
2.3988e-05
2.39963e-05
0.00014653
0.000227637
0.000103909
0.000213347
0.000146368
0.000227829
0.000104229
7.77089e-05
7.76884e-05
0.000190047
7.79986e-05
7.80046e-05
0.000100651
5.09712e-05
0.000100962
5.09418e-05
2.40022e-05
2.3996e-05
0.000100563
5.09652e-05
0.000100897
5.09347e-05
0.00023329
0.00023321
0.000233109
0.000233184
0.000232963
0.000233252
0.000233278
0.000147114
0.000105147
0.000228246
0.000213278
0.000147384
0.000104381
0.000228231
2.39997e-05
2.39941e-05
0.000147029
0.000228164
0.00010497
0.000213264
0.00014728
0.000228189
0.000104199
7.85998e-05
7.85847e-05
0.000189073
7.76259e-05
7.75891e-05
9.91475e-05
5.09207e-05
9.88065e-05
5.09727e-05
2.39895e-05
2.4009e-05
9.93605e-05
5.09179e-05
9.89461e-05
5.09693e-05
0.000233056
0.000233358
0.000233412
0.000234461
0.000234453
0.000234426
0.000234565
0.000145291
0.000102609
0.000227454
0.000212643
0.000144952
0.000103401
0.000227718
2.39909e-05
2.40081e-05
0.00014559
0.000227687
0.000103037
0.000213026
0.000145224
0.000227951
0.00010385
7.69699e-05
7.70146e-05
0.000190188
7.80716e-05
7.81399e-05
0.000101035
5.09756e-05
0.000101092
5.09676e-05
2.401e-05
2.40079e-05
0.000100796
5.09685e-05
0.000100996
5.09604e-05
0.000235146
0.000234896
0.00023497
0.000235213
0.000235391
0.00023509
0.00023501
0.000148067
0.000105551
0.000229243
0.000215271
0.000147903
0.000105054
0.00022971
2.40052e-05
2.4004e-05
0.00014766
0.000229112
0.000105163
0.000214701
0.000147711
0.00022945
0.00010454
7.89652e-05
7.89591e-05
0.000190874
7.80598e-05
7.79795e-05
9.94877e-05
5.09393e-05
9.98898e-05
5.09715e-05
2.39951e-05
2.40151e-05
9.95837e-05
5.0935e-05
9.98503e-05
5.09685e-05
0.00023506
0.000234856
0.000234748
0.000232967
0.000232839
0.000233194
0.000233205
0.000145372
0.00010383
0.000229436
0.000212636
0.000146286
0.000102933
0.000228359
2.39957e-05
2.40166e-05
0.000145573
0.000229169
0.000103834
0.000212933
0.000146107
0.000228293
0.000103224
7.74097e-05
7.73777e-05
0.000187381
7.67208e-05
7.6739e-05
0.00010778
5.5055e-05
9.88224e-05
8.56259e-05
2.70122e-05
4.63458e-05
0.000107794
5.50517e-05
9.90339e-05
8.56252e-05
0.0002518
0.000243642
0.000243679
0.000236076
0.000251669
0.000244635
0.000244686
0.000149334
0.000104467
0.000231394
0.00021497
0.000145131
0.000108059
0.000230951
2.70156e-05
4.62741e-05
0.000149516
0.000231718
0.000104766
0.0002151
0.000145487
0.00023118
0.000108056
7.65965e-05
7.66383e-05
0.000199153
8.55275e-05
8.55496e-05
2.39022e-05
2.39017e-05
2.38999e-05
2.38989e-05
0.000185173
7.8227e-05
7.82124e-05
7.84211e-05
7.83382e-05
0.000100757
5.0765e-05
5.07692e-05
0.000100281
0.000100737
5.07426e-05
5.07499e-05
0.000100226
0.000146254
0.00020435
0.000104241
0.000214545
0.000104578
0.000214306
0.000145519
0.000146222
0.000203978
0.000103666
0.000214375
0.000104326
0.000214418
0.000145401
2.38931e-05
2.38927e-05
0.000184423
7.75995e-05
7.73402e-05
7.80985e-05
7.79549e-05
2.38917e-05
2.38908e-05
0.000100506
5.07622e-05
5.07638e-05
0.000100238
0.000145818
0.000204272
0.000104203
0.00021432
0.000104435
0.000214122
0.000145324
0.000100454
5.07494e-05
5.07476e-05
0.000100196
0.000145688
0.000203332
0.000213968
0.00010376
0.000213969
0.000103944
0.000145208
0.000145744
0.000204078
0.000103251
0.000213904
0.000104147
0.000214223
0.000144047
0.000100229
5.07316e-05
5.07366e-05
9.93236e-05
0.000145416
0.000201581
0.000213076
0.000101991
0.000213446
0.000102598
0.000143714
0.000100044
5.07152e-05
5.07006e-05
9.91726e-05
2.38966e-05
2.38923e-05
0.000183593
7.78276e-05
7.75696e-05
7.78834e-05
7.7739e-05
2.38958e-05
2.38913e-05
0.000145219
0.000203428
0.00021356
0.000103342
0.000213847
0.000103756
0.000143885
0.000144978
0.000201522
0.000212919
0.000101943
0.000213302
0.000102466
0.000143544
9.9974e-05
5.07411e-05
5.07364e-05
9.93042e-05
9.98107e-05
5.07164e-05
5.0698e-05
9.91337e-05
0.000180255
7.62465e-05
7.62143e-05
7.6366e-05
7.62904e-05
2.38886e-05
2.38763e-05
2.38882e-05
2.3875e-05
2.39021e-05
2.39055e-05
2.39e-05
2.39035e-05
7.82013e-05
7.82043e-05
0.000185285
7.82259e-05
7.82699e-05
2.39098e-05
2.3906e-05
2.39073e-05
2.3904e-05
0.00018515
7.83918e-05
7.84236e-05
7.82661e-05
7.83179e-05
9.98685e-05
5.07425e-05
0.000100052
5.07544e-05
0.000144831
0.000104143
0.000214491
0.000204347
0.000145189
0.000104114
0.000214347
0.00014466
0.000103482
0.000214152
0.00020284
0.00014505
0.000103367
0.000213902
9.99364e-05
5.07829e-05
5.07733e-05
0.000100071
9.98571e-05
5.07806e-05
5.07587e-05
0.000100024
0.000144758
0.000204286
0.000104238
0.000214132
0.000104114
0.000214211
0.000144876
0.000144589
0.000202802
0.000103888
0.000213607
0.000103381
0.0002137
0.00014475
7.7521e-05
7.72716e-05
0.00018288
7.75611e-05
7.7412e-05
2.38926e-05
2.39018e-05
2.39096e-05
2.39018e-05
0.000182857
7.81938e-05
7.82408e-05
7.76908e-05
7.76206e-05
2.39122e-05
2.39037e-05
0.000145017
0.000104145
0.000214302
0.000204327
0.000145128
0.000104171
0.000214224
0.000100051
5.07509e-05
0.000100102
5.07621e-05
0.000144915
0.000213833
0.000103725
0.000202981
0.00014502
0.000213725
0.000103803
0.000100098
5.0778e-05
5.07707e-05
0.000100217
0.000144993
0.000204306
0.000104297
0.000214252
0.000104178
0.000214183
0.000145124
0.00010005
5.07779e-05
5.07648e-05
0.000100192
0.000144897
0.000203037
0.000213841
0.000104167
0.000213692
0.000103844
0.000145067
9.91845e-05
5.07336e-05
9.91702e-05
5.0758e-05
0.000143291
0.000212628
0.000101997
0.000200878
0.000143363
0.000212346
0.000102972
9.91528e-05
5.07264e-05
9.90525e-05
5.07716e-05
0.000143508
0.00020254
0.000103945
0.000212788
0.00010311
0.000212841
0.000144547
9.9312e-05
5.07896e-05
5.0765e-05
0.000100104
0.000143411
0.000201306
0.000212356
0.000104507
0.000212252
0.000103379
0.000144669
9.93363e-05
5.0804e-05
5.07815e-05
0.000100157
7.78371e-05
7.75709e-05
0.000183547
7.80364e-05
7.7889e-05
2.38969e-05
2.39048e-05
2.39079e-05
2.39034e-05
0.000183673
7.83324e-05
7.83726e-05
7.81017e-05
7.80113e-05
2.39111e-05
2.39057e-05
0.000143409
0.000212472
0.000101963
0.00020085
0.000143303
0.000212245
0.000103055
9.93776e-05
5.07446e-05
9.92251e-05
5.07675e-05
9.93246e-05
5.07279e-05
9.9074e-05
5.07728e-05
0.000143753
0.000202777
0.000212824
0.000104198
0.000212805
0.000103603
0.000144872
0.000143594
0.000201313
0.000212351
0.000104566
0.000212181
0.000103466
0.000144926
9.95506e-05
5.0789e-05
5.07724e-05
0.000100245
9.9537e-05
5.08029e-05
5.07823e-05
0.000100277
2.38923e-05
2.39102e-05
2.3892e-05
2.39098e-05
0.000182476
7.87906e-05
7.88207e-05
7.80424e-05
7.80889e-05
2.39189e-05
2.39121e-05
2.39181e-05
2.39117e-05
2.39099e-05
2.3912e-05
2.39073e-05
2.39091e-05
7.83985e-05
7.84215e-05
0.000184722
7.83634e-05
7.83579e-05
2.39138e-05
2.39119e-05
2.39109e-05
2.3909e-05
0.000184443
7.80954e-05
7.80561e-05
7.83e-05
7.8276e-05
0.000100411
5.07841e-05
0.000100095
5.07942e-05
0.000145399
0.000104254
0.000214176
0.000204229
0.000144936
0.000104292
0.000214452
0.000145414
0.000104039
0.000213653
0.000203788
0.000144835
0.000104486
0.00021406
0.000100412
5.07904e-05
5.07883e-05
0.000100413
0.000100435
5.0795e-05
5.07947e-05
0.000100446
0.000145454
0.000204222
0.000104137
0.000215057
0.000104257
0.000214775
0.00014558
0.00014549
0.000204431
0.000104503
0.000215155
0.000104523
0.000214663
0.000145658
7.83238e-05
7.83925e-05
0.000184968
7.85841e-05
7.86777e-05
2.39129e-05
2.39164e-05
2.39153e-05
2.39141e-05
0.00018508
7.848e-05
7.85595e-05
7.8588e-05
7.8684e-05
2.3917e-05
2.39163e-05
0.000145462
0.000104298
0.000214427
0.000204331
0.00014517
0.000104292
0.000214655
0.000100388
5.07794e-05
0.00010023
5.07849e-05
0.000145475
0.000214144
0.00010422
0.000204177
0.000145129
0.000214502
0.000104377
0.000100377
5.07839e-05
5.0782e-05
0.000100344
0.000145463
0.000204281
0.00010409
0.000215099
0.000104244
0.000214895
0.000145469
0.000100382
5.07862e-05
5.07851e-05
0.000100356
0.000145485
0.000204444
0.00021518
0.000104281
0.000214867
0.000104359
0.000145504
0.000100667
5.07933e-05
0.000100253
5.08014e-05
0.000145975
0.000212901
0.0001047
0.000204929
0.000144989
0.000214072
0.000104998
0.000100699
5.0806e-05
0.000100306
5.08066e-05
0.000145984
0.000204498
0.000104657
0.000215481
0.000104686
0.000214669
0.00014614
0.000100701
5.07994e-05
5.08014e-05
0.000100711
0.000146073
0.000205601
0.000215881
0.000104755
0.00021512
0.000104983
0.000146196
0.000100728
5.07972e-05
5.0804e-05
0.000100727
7.83812e-05
7.84473e-05
0.000184888
7.84391e-05
7.85369e-05
2.39114e-05
2.39138e-05
2.39124e-05
2.39108e-05
0.000184818
7.82719e-05
7.83447e-05
7.84209e-05
7.85194e-05
2.39147e-05
2.39136e-05
0.000146014
0.000213081
0.000104746
0.000205008
0.000145208
0.000214267
0.000104997
0.000100649
5.07908e-05
0.000100359
5.07947e-05
0.000100691
5.08045e-05
0.000100399
5.08043e-05
0.000145959
0.000204533
0.000215534
0.000104438
0.000214918
0.00010453
0.000145997
0.000146066
0.000205653
0.000215928
0.000104708
0.000215244
0.000104976
0.000146095
0.000100658
5.07931e-05
5.07944e-05
0.000100625
0.0001007
5.07944e-05
5.08013e-05
0.00010066
2.39188e-05
2.39185e-05
2.39179e-05
2.39174e-05
0.000186447
7.8502e-05
7.84714e-05
7.88775e-05
7.88592e-05
2.39157e-05
2.39171e-05
2.39145e-05
2.39159e-05
2.39139e-05
2.39173e-05
2.3911e-05
2.39146e-05
7.79924e-05
7.79508e-05
0.000183455
7.77662e-05
7.7733e-05
2.39232e-05
2.39178e-05
2.39208e-05
2.39152e-05
0.000183228
7.76016e-05
7.7597e-05
7.7689e-05
7.76642e-05
0.000100266
5.07939e-05
0.000100414
5.07908e-05
0.000145367
0.000104028
0.000215286
0.000203904
0.000145518
0.000103806
0.000215432
0.000145431
0.000104403
0.00021552
0.000204721
0.000145594
0.000104048
0.00021573
0.000100145
5.0801e-05
5.0794e-05
9.99219e-05
0.000100161
5.07914e-05
5.07893e-05
9.9919e-05
0.00014525
0.00020384
0.000103547
0.000215586
0.000103687
0.000215525
0.000145
0.000145302
0.000204538
0.000103486
0.000215811
0.00010384
0.000215815
0.000145019
7.83399e-05
7.84075e-05
0.00018448
7.79155e-05
7.79641e-05
2.39162e-05
2.39164e-05
2.39186e-05
2.39148e-05
0.000184158
7.74815e-05
7.75053e-05
7.77478e-05
7.77891e-05
2.39196e-05
2.3916e-05
0.00014525
0.000103973
0.000215257
0.000203885
0.000145402
0.000103755
0.000215355
0.000100181
5.07858e-05
0.000100315
5.07864e-05
0.000145288
0.000215418
0.000104182
0.000204451
0.000145441
0.000215557
0.000103932
0.000100079
5.0797e-05
5.07887e-05
9.99073e-05
0.000145139
0.000203808
0.000103536
0.000215496
0.000103644
0.000215426
0.00014495
0.000100085
5.07923e-05
5.07865e-05
9.99073e-05
0.000145176
0.000204306
0.000215665
0.000103578
0.000215628
0.000103783
0.000144967
0.000100399
5.07969e-05
0.000100654
5.07925e-05
0.00014583
0.00021636
0.000104543
0.000205465
0.000146127
0.000216568
0.000104137
0.000100407
5.0794e-05
0.000100664
5.07911e-05
0.000145597
0.000204741
0.000103524
0.000216275
0.000103902
0.000216363
0.000145177
0.000100256
5.07927e-05
5.07908e-05
9.9971e-05
0.00014562
0.000205168
0.000216445
0.000103644
0.000216565
0.000103946
0.000145206
0.000100268
5.07926e-05
5.07903e-05
9.99929e-05
7.81622e-05
7.82221e-05
0.000184207
7.78611e-05
7.78947e-05
2.39143e-05
2.39158e-05
2.39191e-05
2.39143e-05
0.000183931
7.76005e-05
7.76159e-05
7.7751e-05
7.77778e-05
2.39208e-05
2.3916e-05
0.00014572
0.000216341
0.000104492
0.00020546
0.000146017
0.000216502
0.000104097
0.000100329
5.07917e-05
0.000100555
5.07907e-05
0.000100347
5.07914e-05
0.000100582
5.07892e-05
0.000145489
0.00020452
0.000216142
0.000103607
0.000216192
0.000103837
0.000145159
0.000145528
0.000205153
0.000216366
0.000103637
0.000216482
0.000103915
0.000145179
0.00010021
5.07961e-05
5.07905e-05
9.99822e-05
0.000100227
5.0792e-05
5.07887e-05
9.99935e-05
2.39149e-05
2.39156e-05
2.39138e-05
2.39146e-05
0.000184588
7.76235e-05
7.76219e-05
7.78461e-05
7.78236e-05
2.39194e-05
2.39155e-05
2.39186e-05
2.39146e-05
2.39242e-05
2.39315e-05
2.39218e-05
2.39291e-05
7.75935e-05
7.75946e-05
0.000184177
7.77731e-05
7.77847e-05
2.39392e-05
2.39326e-05
2.39365e-05
2.39301e-05
0.000184496
7.81577e-05
7.81449e-05
7.78561e-05
7.78617e-05
9.97769e-05
5.07936e-05
9.98239e-05
5.08107e-05
0.000144864
0.000103516
0.00021569
0.000204416
0.000144887
0.000103625
0.000215886
0.000144845
0.00010341
0.00021582
0.000204347
0.000144887
0.000103455
0.000215927
9.98097e-05
5.08416e-05
5.08224e-05
0.000100093
9.97942e-05
5.08365e-05
5.08158e-05
0.000100089
0.000144879
0.000204943
0.000104113
0.000216717
0.000103682
0.000216234
0.000145306
0.000144859
0.000204699
0.000104078
0.000216675
0.000103552
0.000216218
0.000145286
7.74578e-05
7.74802e-05
0.000183954
7.76521e-05
7.76586e-05
2.39206e-05
2.39292e-05
2.39369e-05
2.39296e-05
0.000184207
7.81424e-05
7.81514e-05
7.77859e-05
7.77871e-05
2.3938e-05
2.39306e-05
0.000144892
0.000103514
0.000215631
0.000204433
0.000144878
0.000103651
0.000215866
9.98222e-05
5.07944e-05
9.98391e-05
5.08093e-05
0.000144887
0.00021575
0.000103527
0.000204478
0.000144886
0.000215932
0.000103596
9.98518e-05
5.08358e-05
5.08181e-05
0.000100101
0.00014492
0.000204969
0.000104106
0.000216754
0.000103705
0.000216248
0.000145354
9.98392e-05
5.08308e-05
5.08128e-05
0.000100089
0.000144911
0.000204923
0.00021675
0.000104039
0.000216273
0.000103644
0.00014534
9.97822e-05
5.07949e-05
9.98587e-05
5.08122e-05
0.00014491
0.00021632
0.000103562
0.000204755
0.000145029
0.000216288
0.00010357
9.97954e-05
5.07943e-05
9.98792e-05
5.08083e-05
0.000144886
0.00020474
0.000104089
0.000216736
0.000103553
0.00021635
0.000145251
9.97915e-05
5.08386e-05
5.08175e-05
0.000100076
0.000144906
0.000204877
0.000216773
0.000104056
0.000216419
0.000103617
0.000145246
9.98016e-05
5.08328e-05
5.08126e-05
0.000100066
7.75834e-05
7.75972e-05
0.000184161
7.77282e-05
7.77364e-05
2.39217e-05
2.3929e-05
2.39349e-05
2.39284e-05
0.000184382
7.80937e-05
7.81037e-05
7.77996e-05
7.78072e-05
2.39366e-05
2.39301e-05
0.000144952
0.000216261
0.000103566
0.000204754
0.000145031
0.000216261
0.000103589
9.98349e-05
5.07983e-05
9.98909e-05
5.08131e-05
9.98341e-05
5.07938e-05
9.98977e-05
5.08078e-05
0.00014495
0.000204981
0.00021681
0.000104048
0.000216414
0.000103652
0.000145299
0.000144951
0.000204889
0.000216807
0.000104054
0.000216441
0.000103638
0.000145287
9.98439e-05
5.08351e-05
5.08166e-05
0.000100079
9.98414e-05
5.08308e-05
5.08116e-05
0.000100074
2.39202e-05
2.39276e-05
2.39195e-05
2.39269e-05
0.000184396
7.81284e-05
7.81197e-05
7.78129e-05
7.7824e-05
2.3936e-05
2.39289e-05
2.3935e-05
2.39281e-05
2.39398e-05
2.39435e-05
2.39371e-05
2.39409e-05
7.82327e-05
7.82145e-05
0.000186552
7.83703e-05
7.83545e-05
2.39454e-05
2.39436e-05
2.39429e-05
2.39409e-05
0.000186623
7.83313e-05
7.83357e-05
7.83682e-05
7.8357e-05
0.000100433
5.08393e-05
0.000100165
5.08474e-05
0.000146026
0.000104205
0.000217325
0.000206771
0.000145424
0.000104478
0.000217966
0.00014602
0.000104184
0.000217278
0.000206638
0.000145409
0.000104433
0.000217919
0.000100445
5.08553e-05
5.08537e-05
0.000100466
0.00010044
5.08495e-05
5.08478e-05
0.000100461
0.000146084
0.000207274
0.000104493
0.00021917
0.000104484
0.000218611
0.000146278
0.000146076
0.000207167
0.000104446
0.000219137
0.000104434
0.000218569
0.000146269
7.82192e-05
7.82289e-05
0.000186392
7.83258e-05
7.8344e-05
2.39386e-05
2.39421e-05
2.39426e-05
2.39408e-05
0.000186497
7.82692e-05
7.82903e-05
7.83195e-05
7.83397e-05
2.39437e-05
2.3942e-05
0.000146015
0.000104189
0.000217369
0.000206794
0.000145456
0.000104462
0.000218005
0.000100421
5.08337e-05
0.000100144
5.08447e-05
0.000146011
0.000217354
0.000104125
0.000206754
0.000145445
0.000217988
0.000104471
0.000100451
5.08509e-05
5.08484e-05
0.000100494
0.000146084
0.000207295
0.00010449
0.000219196
0.000104473
0.000218647
0.000146319
0.000100446
5.08482e-05
5.08456e-05
0.000100495
0.000146084
0.00020729
0.000219198
0.000104556
0.000218639
0.000104506
0.000146326
0.000100421
5.08416e-05
0.000100161
5.08495e-05
0.000145966
0.000217288
0.00010415
0.000206518
0.000145366
0.00021786
0.000104388
0.000100412
5.08357e-05
0.000100148
5.0844e-05
0.000146039
0.000207185