/*--------------------------------*- C++ -*----------------------------------*\
| =========                 |                                                 |
| \\      /  F ield         | OpenFOAM: The Open Source CFD Toolbox           |
|  \\    /   O peration     | Version:  v2012                                 |
|   \\  /    A nd           | Website:  www.openfoam.com                      |
|    \\/     M anipulation  |                                                 |
\*---------------------------------------------------------------------------*/
FoamFile
{
    version     2.0;
    format      ascii;
    class       volScalarField;
    location    "1187.5";
    object      epsilon;
}
// * * * * * * * * * * * * * * * * * * * * * * * * * * * * * * * * * * * * * //

dimensions      [0 2 -3 0 0 0 0];


internalField   nonuniform List<scalar> 
171728
(
1.27512e-09
3.30508e-09
4.95897e-09
5.09072e-09
1.2414e-09
3.05036e-09
4.58088e-09
4.59582e-09
1.18218e-09
2.79187e-09
4.20412e-09
4.09143e-09
1.12836e-09
2.57417e-09
3.86779e-09
3.69136e-09
1.07884e-09
2.39264e-09
3.552e-09
3.38371e-09
1.0325e-09
2.23898e-09
3.25478e-09
3.10451e-09
9.88982e-10
2.1176e-09
2.98966e-09
2.86872e-09
9.48083e-10
2.02713e-09
2.7627e-09
2.68173e-09
9.0943e-10
1.96712e-09
2.59205e-09
2.53971e-09
8.73359e-10
1.93476e-09
2.47612e-09
2.43595e-09
8.396e-10
1.93205e-09
2.42178e-09
2.37398e-09
8.08231e-10
1.95516e-09
2.40289e-09
2.35389e-09
7.7889e-10
2.0123e-09
2.47337e-09
2.37286e-09
7.52156e-10
2.12777e-09
2.6115e-09
2.44351e-09
7.27547e-10
2.32142e-09
2.7508e-09
2.59506e-09
7.05162e-10
2.62395e-09
3.04166e-09
2.84575e-09
6.86188e-10
3.10056e-09
3.52912e-09
3.25458e-09
6.7081e-10
3.81838e-09
4.23821e-09
4.00445e-09
6.5879e-10
4.92338e-09
5.39686e-09
5.32354e-09
6.52892e-10
6.55548e-09
7.01149e-09
7.09136e-09
6.52178e-10
8.99499e-09
9.71242e-09
1.21963e-08
6.64761e-10
1.25945e-08
1.3534e-08
1.91526e-08
6.88567e-10
1.7306e-08
1.95118e-08
2.60951e-08
7.26279e-10
2.42043e-08
2.75179e-08
4.92212e-08
8.19172e-10
3.2904e-08
3.74511e-08
7.45063e-08
9.08237e-10
4.43138e-08
5.21944e-08
1.10471e-07
1.12972e-09
5.78939e-08
6.18989e-08
1.59455e-07
1.35357e-09
7.63591e-08
8.2008e-08
2.20008e-07
1.71664e-09
9.39325e-08
1.00097e-07
2.87912e-07
2.30937e-09
1.18976e-07
1.17306e-07
3.70691e-07
2.88315e-09
1.43512e-07
1.47696e-07
4.48505e-07
4.00303e-09
1.74148e-07
1.72325e-07
5.13281e-07
5.30402e-09
2.03407e-07
2.05947e-07
5.8498e-07
6.97617e-09
2.44504e-07
2.42826e-07
6.53674e-07
9.34803e-09
2.78619e-07
2.8053e-07
7.09625e-07
1.252e-08
3.22235e-07
3.17955e-07
7.5862e-07
1.55209e-08
3.61145e-07
3.62525e-07
7.99114e-07
2.12608e-08
4.11704e-07
4.15807e-07
8.43438e-07
2.52975e-08
4.54376e-07
4.45205e-07
8.80428e-07
3.26637e-08
5.06717e-07
5.13066e-07
9.12741e-07
4.44805e-08
5.49234e-07
5.43908e-07
9.46578e-07
4.92841e-08
6.05219e-07
6.02014e-07
9.78864e-07
6.33062e-08
6.48114e-07
6.43368e-07
1.0004e-06
7.43029e-08
6.91286e-07
7.02525e-07
1.04208e-06
9.53955e-08
7.47542e-07
7.43286e-07
1.06724e-06
1.06157e-07
7.91613e-07
7.71131e-07
1.0846e-06
1.27186e-07
8.12847e-07
8.39307e-07
1.12122e-06
1.53635e-07
8.75511e-07
8.65654e-07
1.14718e-06
1.69434e-07
9.07877e-07
8.97538e-07
1.16571e-06
1.99125e-07
9.30982e-07
9.42801e-07
1.19375e-06
2.27022e-07
9.76147e-07
9.68946e-07
1.21847e-06
2.57346e-07
1.00093e-06
9.97833e-07
1.2345e-06
2.82914e-07
1.02081e-06
1.0322e-06
1.25697e-06
3.21356e-07
1.0657e-06
1.05397e-06
1.28719e-06
3.43764e-07
1.07505e-06
1.0702e-06
1.29067e-06
3.82712e-07
1.09073e-06
1.10519e-06
1.31325e-06
4.15712e-07
1.12748e-06
1.11884e-06
1.33918e-06
4.37748e-07
1.14623e-06
1.13952e-06
1.35897e-06
4.74598e-07
1.14735e-06
1.16113e-06
1.34997e-06
4.98337e-07
1.16441e-06
1.16315e-06
1.36419e-06
5.26866e-07
1.20223e-06
1.19341e-06
1.41693e-06
5.61514e-07
1.20363e-06
1.21567e-06
1.41006e-06
5.78593e-07
1.21102e-06
1.21273e-06
1.39934e-06
5.95017e-07
1.23411e-06
1.22492e-06
1.42688e-06
6.25242e-07
1.24234e-06
1.25238e-06
1.44896e-06
6.43145e-07
1.25309e-06
1.25646e-06
1.45191e-06
6.54158e-07
1.26905e-06
1.26026e-06
1.46694e-06
6.74725e-07
1.27504e-06
1.27679e-06
1.47817e-06
6.98875e-07
1.27356e-06
1.28433e-06
1.4627e-06
7.06503e-07
1.27492e-06
1.28115e-06
1.46273e-06
7.15669e-07
1.29303e-06
1.28993e-06
1.49514e-06
7.36384e-07
1.31659e-06
1.31196e-06
1.51613e-06
7.5204e-07
1.31583e-06
1.31028e-06
1.51942e-06
7.55295e-07
1.29874e-06
1.29958e-06
1.49258e-06
7.61e-07
1.29606e-06
1.31261e-06
1.48686e-06
7.83957e-07
1.32383e-06
1.32609e-06
1.53356e-06
7.93519e-07
1.33398e-06
1.31087e-06
1.54276e-06
7.8844e-07
1.31669e-06
1.30564e-06
1.50781e-06
7.91529e-07
1.30833e-06
1.33342e-06
1.50493e-06
8.13197e-07
1.32969e-06
1.34593e-06
1.55576e-06
8.17345e-07
1.33729e-06
1.31258e-06
1.54526e-06
7.97735e-07
1.29861e-06
1.28114e-06
1.47508e-06
7.94195e-07
1.29676e-06
1.31696e-06
1.51506e-06
8.32277e-07
1.34986e-06
1.36501e-06
1.59364e-06
8.38396e-07
1.33563e-06
1.32521e-06
1.53693e-06
7.9702e-07
1.28644e-06
1.26795e-06
1.46855e-06
7.87351e-07
1.2877e-06
1.28666e-06
1.50637e-06
8.10692e-07
1.30963e-06
1.32583e-06
1.5424e-06
8.15873e-07
1.30228e-06
1.30839e-06
1.52845e-06
8.06149e-07
1.29628e-06
1.28894e-06
1.52468e-06
8.05078e-07
1.30402e-06
1.29813e-06
1.53799e-06
7.95459e-07
1.28019e-06
1.28733e-06
1.49551e-06
7.69414e-07
1.23985e-06
1.23915e-06
1.43562e-06
7.67455e-07
1.25336e-06
1.24186e-06
1.47464e-06
7.74129e-07
1.23354e-06
1.22986e-06
1.49917e-06
5.27351e-09
3.9747e-09
3.80184e-09
4.93194e-09
3.89784e-09
5.9073e-09
1.25677e-09
1.27521e-09
1.77513e-09
1.35354e-09
3.6143e-09
3.61653e-09
5.15271e-09
3.96817e-09
3.9093e-09
5.11276e-09
5.25076e-09
4.72844e-09
3.32252e-09
3.24532e-09
3.15146e-09
3.09572e-09
4.90923e-09
4.41968e-09
3.7484e-09
9.91704e-09
3.58344e-09
1.00144e-08
3.50528e-09
3.12075e-09
3.33847e-09
5.0875e-09
4.80644e-09
6.25516e-09
4.68235e-09
4.80053e-09
4.6283e-09
4.69924e-09
4.23719e-09
3.08194e-09
3.03385e-09
2.88419e-09
2.8625e-09
4.39266e-09
3.96064e-09
3.51879e-09
1.00512e-08
3.33236e-09
1.02679e-08
3.27595e-09
2.85243e-09
3.10055e-09
4.74875e-09
4.65321e-09
4.42948e-09
4.29387e-09
3.6571e-09
4.11683e-09
4.21434e-09
3.83398e-09
2.82118e-09
2.80823e-09
2.64085e-09
2.65426e-09
3.93953e-09
3.58093e-09
3.27342e-09
1.03465e-08
3.10752e-09
1.05212e-08
3.04621e-09
2.62525e-09
2.89663e-09
4.61774e-09
4.57842e-09
3.48678e-09
3.94975e-09
3.13364e-09
3.70753e-09
3.81617e-09
3.49799e-09
2.58428e-09
2.60468e-09
2.4264e-09
2.46416e-09
3.56455e-09
3.26376e-09
3.05617e-09
1.05443e-08
2.91295e-09
1.04005e-08
2.85012e-09
2.43483e-09
2.71907e-09
4.54075e-09
4.44481e-09
3.05136e-09
3.62945e-09
2.87566e-09
3.39922e-09
3.48362e-09
3.2076e-09
2.37803e-09
2.41995e-09
2.2477e-09
2.29633e-09
3.25134e-09
2.98963e-09
2.86784e-09
1.00415e-08
2.74125e-09
8.07484e-09
2.67864e-09
2.27403e-09
2.56745e-09
4.38001e-09
3.79015e-09
2.83399e-09
3.32599e-09
2.72989e-09
3.11757e-09
3.19589e-09
2.94699e-09
2.20903e-09
2.26004e-09
2.10875e-09
2.16541e-09
2.97965e-09
2.75031e-09
2.702e-09
7.31363e-09
2.59812e-09
5.31974e-09
2.53352e-09
2.14465e-09
2.43975e-09
3.73067e-09
3.36206e-09
2.70114e-09
3.05279e-09
2.62896e-09
2.87833e-09
2.93846e-09
2.72764e-09
2.08063e-09
2.13829e-09
2.00504e-09
2.06896e-09
2.74355e-09
2.54997e-09
2.56855e-09
4.81918e-09
2.49108e-09
3.68185e-09
2.41251e-09
2.04735e-09
2.33888e-09
3.32876e-09
2.92306e-09
2.60757e-09
2.81668e-09
2.5496e-09
2.68784e-09
2.72267e-09
2.55379e-09
1.98389e-09
2.04925e-09
1.93093e-09
2.00254e-09
2.54683e-09
2.39395e-09
2.46961e-09
3.42114e-09
2.41538e-09
2.80871e-09
2.31734e-09
1.97903e-09
2.2676e-09
2.89723e-09
2.63508e-09
2.5339e-09
2.63003e-09
2.498e-09
2.54193e-09
2.55254e-09
2.42169e-09
1.91725e-09
1.99201e-09
1.88646e-09
1.97025e-09
2.3944e-09
2.27705e-09
2.40069e-09
2.62715e-09
2.36649e-09
2.36443e-09
2.25568e-09
1.93951e-09
2.23014e-09
2.62138e-09
2.44455e-09
2.49464e-09
2.50319e-09
2.49864e-09
2.43457e-09
2.42368e-09
2.32721e-09
1.88219e-09
1.96765e-09
1.87852e-09
1.96624e-09
2.28013e-09
2.19359e-09
2.3577e-09
2.33602e-09
2.34287e-09
2.22283e-09
2.2256e-09
1.93028e-09
2.22992e-09
2.44006e-09
2.32348e-09
2.50484e-09
2.42742e-09
2.54821e-09
2.36848e-09
2.33232e-09
2.26902e-09
1.88091e-09
1.96906e-09
1.90295e-09
1.99147e-09
2.19966e-09
2.142e-09
2.34237e-09
2.18718e-09
2.35127e-09
2.15102e-09
2.23535e-09
1.94843e-09
2.27053e-09
2.32717e-09
2.27315e-09
2.57163e-09
2.4018e-09
2.6512e-09
2.34164e-09
2.28002e-09
2.24828e-09
1.91379e-09
2.00369e-09
1.96335e-09
2.05754e-09
2.15382e-09
2.12633e-09
2.35838e-09
2.15264e-09
2.39573e-09
2.19506e-09
2.28816e-09
1.99799e-09
2.35646e-09
2.28439e-09
2.26089e-09
2.68295e-09
2.4386e-09
2.79278e-09
2.35216e-09
2.2683e-09
2.27609e-09
1.98653e-09
2.08359e-09
2.07887e-09
2.18041e-09
2.14654e-09
2.15856e-09
2.41419e-09
2.22189e-09
2.49372e-09
2.31961e-09
2.38796e-09
2.0992e-09
2.49741e-09
2.27875e-09
2.30116e-09
2.83639e-09
2.58494e-09
2.98473e-09
2.41108e-09
2.30861e-09
2.3678e-09
2.11679e-09
2.21861e-09
2.26101e-09
2.37566e-09
2.19133e-09
2.2563e-09
2.52738e-09
2.36019e-09
2.65722e-09
2.51347e-09
2.54495e-09
2.27279e-09
2.72472e-09
2.3343e-09
2.40389e-09
3.04005e-09
2.70204e-09
3.24452e-09
2.53901e-09
2.42104e-09
2.55978e-09
2.31923e-09
2.43756e-09
2.53971e-09
2.66578e-09
2.31222e-09
2.4539e-09
2.71265e-09
2.57669e-09
2.91922e-09
2.80296e-09
2.77983e-09
2.54257e-09
3.07349e-09
2.45669e-09
2.59835e-09
3.33054e-09
2.95058e-09
3.52202e-09
2.74506e-09
2.65046e-09
2.91722e-09
2.63492e-09
2.76416e-09
2.98122e-09
3.1133e-09
2.5443e-09
2.81494e-09
3.00897e-09
2.9022e-09
3.34719e-09
3.24092e-09
3.16237e-09
2.96539e-09
3.57581e-09
2.68802e-09
2.95884e-09
3.62498e-09
3.37804e-09
4.13863e-09
3.14411e-09
3.06699e-09
3.5351e-09
3.12075e-09
3.26236e-09
3.64932e-09
3.79252e-09
2.96624e-09
3.43105e-09
3.47631e-09
3.38816e-09
3.98611e-09
3.90721e-09
3.73912e-09
3.60294e-09
4.26662e-09
3.1093e-09
3.57746e-09
4.16259e-09
4.0268e-09
4.73653e-09
3.70217e-09
3.7866e-09
4.64062e-09
3.86003e-09
4.01768e-09
4.66956e-09
4.85436e-09
3.68968e-09
4.57086e-09
4.19591e-09
4.12165e-09
4.98017e-09
4.90255e-09
4.54529e-09
4.61174e-09
5.44346e-09
3.8219e-09
4.66941e-09
5.13711e-09
5.1052e-09
5.56884e-09
4.99855e-09
5.06343e-09
6.53782e-09
4.99249e-09
5.16931e-09
6.14074e-09
6.38504e-09
4.99251e-09
6.53039e-09
5.30029e-09
5.21157e-09
6.44626e-09
6.4712e-09
5.72014e-09
6.11111e-09
6.89891e-09
5.06411e-09
6.6061e-09
5.84705e-09
6.52272e-09
7.41335e-09
6.32639e-09
7.25188e-09
1.00061e-08
6.66156e-09
6.85596e-09
8.34061e-09
8.60176e-09
7.21259e-09
9.87949e-09
6.95079e-09
6.96923e-09
8.65752e-09
8.67184e-09
7.51707e-09
8.28983e-09
9.34421e-09
7.36692e-09
9.95721e-09
8.06657e-09
8.9427e-09
1.03541e-08
1.10884e-08
1.10721e-08
1.60759e-08
9.02689e-09
9.31438e-09
1.16829e-08
1.19541e-08
1.10621e-08
1.58996e-08
9.34471e-09
9.32445e-09
1.19732e-08
1.19822e-08
9.96866e-09
1.15488e-08
1.2774e-08
1.10268e-08
1.6087e-08
1.12793e-08
1.25224e-08
1.45519e-08
1.7039e-08
1.78828e-08
2.55959e-08
1.26669e-08
1.30179e-08
1.58622e-08
1.64575e-08
1.78672e-08
2.59031e-08
1.30112e-08
1.29435e-08
1.6257e-08
1.66303e-08
1.36956e-08
1.60053e-08
1.60927e-08
1.80506e-08
2.59586e-08
1.55235e-08
1.77678e-08
1.73817e-08
2.39737e-08
2.84355e-08
4.25131e-08
1.73471e-08
1.77637e-08
2.24671e-08
2.28141e-08
2.86233e-08
4.20791e-08
1.77819e-08
1.81545e-08
2.2776e-08
2.23645e-08
1.73682e-08
2.22617e-08
2.33422e-08
2.91704e-08
4.22907e-08
1.84159e-08
2.49476e-08
2.40462e-08
4.36931e-08
4.68886e-08
6.56761e-08
2.3797e-08
2.48063e-08
3.12048e-08
3.10921e-08
4.6762e-08
6.69554e-08
2.41671e-08
2.45842e-08
3.15177e-08
3.13203e-08
2.52545e-08
3.0483e-08
3.13321e-08
4.61068e-08
7.07238e-08
2.58402e-08
3.52242e-08
3.18026e-08
6.84242e-08
7.34883e-08
9.90345e-08
3.43479e-08
3.35122e-08
3.97033e-08
4.2059e-08
7.28889e-08
1.01334e-07
3.47164e-08
3.31929e-08
4.02733e-08
4.21845e-08
3.40648e-08
4.13935e-08
4.17225e-08
7.64975e-08
1.02438e-07
3.51025e-08
4.78961e-08
4.25569e-08
1.03528e-07
1.03767e-07
1.54083e-07
4.23463e-08
4.50217e-08
5.71645e-08
5.46359e-08
1.09666e-07
1.45064e-07
4.26313e-08
4.613e-08
5.78794e-08
5.52312e-08
4.4095e-08
5.38869e-08
5.52922e-08
1.13576e-07
1.51164e-07
4.4816e-08
6.03901e-08
5.73875e-08
1.46074e-07
1.69923e-07
2.03893e-07
6.08481e-08
5.8626e-08
7.00961e-08
7.26828e-08
1.55722e-07
2.10052e-07
6.12945e-08
5.73811e-08
7.09585e-08
7.13724e-08
6.03323e-08
7.19822e-08
7.08268e-08
1.576e-07
2.00326e-07
6.17251e-08
7.49062e-08
7.29132e-08
2.11023e-07
2.11741e-07
2.74543e-07
7.47299e-08
7.70684e-08
8.99305e-08
8.96229e-08
2.23679e-07
2.71951e-07
7.59844e-08
7.83419e-08
8.99678e-08
9.28059e-08
7.36351e-08
8.87301e-08
9.15905e-08
2.18185e-07
2.90741e-07
7.66191e-08
9.73628e-08
9.37433e-08
2.68731e-07
2.90838e-07
3.47846e-07
9.4643e-08
9.47657e-08
1.12274e-07
1.13628e-07
2.84755e-07
3.50609e-07
9.4966e-08
9.53147e-08
1.13956e-07
1.09537e-07
9.7976e-08
1.126e-07
1.11542e-07
3.00412e-07
3.30902e-07
1.00806e-07
1.11016e-07
1.1779e-07
3.58789e-07
3.64122e-07
4.29434e-07
1.19311e-07
1.20089e-07
1.36917e-07
1.38188e-07
3.68618e-07
4.30474e-07
1.20754e-07
1.17835e-07
1.37079e-07
1.42001e-07
1.17527e-07
1.37239e-07
1.39846e-07
3.47258e-07
4.39708e-07
1.23022e-07
1.40864e-07
1.44676e-07
4.28651e-07
4.43621e-07
4.97578e-07
1.4259e-07
1.44384e-07
1.66197e-07
1.67548e-07
4.44887e-07
5.01385e-07
1.42402e-07
1.47586e-07
1.67338e-07
1.64912e-07
1.47049e-07
1.66573e-07
1.66471e-07
4.56613e-07
4.97956e-07
1.52858e-07
1.65393e-07
1.69061e-07
5.02398e-07
5.14555e-07
5.75482e-07
1.74427e-07
1.75355e-07
1.97562e-07
1.965e-07
5.17298e-07
5.69848e-07
1.75802e-07
1.72371e-07
1.9759e-07
1.98342e-07
1.7249e-07
1.95161e-07
1.97447e-07
5.11327e-07
5.68919e-07
1.72746e-07
1.97228e-07
1.95906e-07
5.66505e-07
5.90219e-07
6.34919e-07
2.06312e-07
2.04649e-07
2.32257e-07
2.35018e-07
5.84601e-07
6.38488e-07
2.06539e-07
2.07377e-07
2.34773e-07
2.34385e-07
2.08683e-07
2.33991e-07
2.35704e-07
5.85491e-07
6.38525e-07
2.07883e-07
2.33894e-07
2.37919e-07
6.40651e-07
6.48498e-07
6.95033e-07
2.40606e-07
2.45371e-07
2.70522e-07
2.70817e-07
6.53619e-07
6.96714e-07
2.43611e-07
2.43237e-07
2.71572e-07
2.70938e-07
2.42711e-07
2.6939e-07
2.74742e-07
6.52308e-07
6.94934e-07
2.45099e-07
2.6915e-07
2.72042e-07
6.9626e-07
7.08598e-07
7.4464e-07
2.81396e-07
2.79661e-07
3.11089e-07
3.13912e-07
7.09142e-07
7.45101e-07
2.80732e-07
2.82644e-07
3.13493e-07
3.14149e-07
2.88417e-07
3.13279e-07
3.20533e-07
7.0833e-07
7.43604e-07
2.82631e-07
3.11506e-07
3.10078e-07
7.47302e-07
7.56174e-07
7.89295e-07
3.21122e-07
3.23494e-07
3.50265e-07
3.49782e-07
7.56698e-07
7.88922e-07
3.26341e-07
3.20284e-07
3.56301e-07
3.49671e-07
3.27718e-07
3.48741e-07
3.52767e-07
7.5419e-07
7.89207e-07
3.18531e-07
3.47088e-07
3.50451e-07
7.88376e-07
8.00498e-07
8.33519e-07
3.60059e-07
3.62579e-07
4.01369e-07
4.01666e-07
8.00522e-07
8.3389e-07
3.64248e-07
3.65948e-07
4.01327e-07
4.11347e-07
3.63226e-07
4.0049e-07
3.98504e-07
8.0273e-07
8.33264e-07
3.62393e-07
4.06511e-07
3.9665e-07
8.32169e-07
8.44542e-07
8.67704e-07
4.15315e-07
4.12804e-07
4.44077e-07
4.44203e-07
8.44259e-07
8.69391e-07
4.15413e-07
4.20776e-07
4.42422e-07
4.38873e-07
4.12835e-07
4.42867e-07
4.5028e-07
8.41561e-07
8.63247e-07
4.09605e-07
4.33976e-07
4.44436e-07
8.71451e-07
8.75613e-07
9.02354e-07
4.52005e-07
4.5542e-07
4.86934e-07
4.93352e-07
8.78923e-07
9.05929e-07
4.49045e-07
4.49848e-07
4.87853e-07
5.03876e-07
4.59468e-07
4.93084e-07
4.96074e-07
8.73665e-07
9.08787e-07
4.53767e-07
4.98056e-07
4.92584e-07
9.03788e-07
9.14196e-07
9.44944e-07
5.02615e-07
5.07429e-07
5.49967e-07
5.41805e-07
9.15267e-07
9.37358e-07
5.06876e-07
5.20097e-07
5.57283e-07
5.49454e-07
5.08245e-07
5.39765e-07
5.35573e-07
9.18662e-07
9.36097e-07
5.05643e-07
5.37887e-07
5.34259e-07
9.3731e-07
9.52461e-07
9.65828e-07
5.61303e-07
5.5131e-07
5.83682e-07
5.90379e-07
9.45608e-07
9.70069e-07
5.68355e-07
5.53986e-07
5.85552e-07
5.80834e-07
5.47879e-07
5.90084e-07
5.95558e-07
9.42699e-07
9.64319e-07
5.46521e-07
5.84086e-07
5.94387e-07
9.71471e-07
9.7285e-07
9.98475e-07
5.94079e-07
6.05361e-07
6.39648e-07
6.38928e-07
9.79144e-07
9.99542e-07
5.92255e-07
5.97759e-07
6.35823e-07
6.37176e-07
6.09116e-07
6.38196e-07
6.32904e-07
9.74201e-07
9.99303e-07
6.08275e-07
6.3526e-07
6.3286e-07
9.93303e-07
1.00775e-06
1.02855e-06
6.52497e-07
6.49059e-07
6.81125e-07
6.82488e-07
1.00603e-06
1.02426e-06
6.49696e-07
6.46904e-07
6.82008e-07
6.8968e-07
6.39317e-07
6.8081e-07
6.80929e-07
1.00657e-06
1.03111e-06
6.38923e-07
6.85932e-07
6.78873e-07
1.03176e-06
1.03623e-06
1.06103e-06
6.93943e-07
6.92949e-07
7.39155e-07
7.32726e-07
1.03245e-06
1.06023e-06
6.95997e-07
7.05486e-07
7.40791e-07
7.38846e-07
6.99814e-07
7.31495e-07
7.43133e-07
1.04018e-06
1.05701e-06
6.98042e-07
7.37414e-07
7.42571e-07
1.06207e-06
1.06798e-06
1.07905e-06
7.50601e-07
7.4854e-07
7.68463e-07
7.8506e-07
1.06921e-06
1.08807e-06
7.51748e-07
7.44653e-07
7.68407e-07
7.60358e-07
7.52696e-07
7.84415e-07
7.70331e-07
1.06146e-06
1.07298e-06
7.52136e-07
7.5881e-07
7.69567e-07
1.07869e-06
1.08453e-06
1.11374e-06
7.76069e-07
7.92191e-07
8.19766e-07
8.06193e-07
1.09259e-06
1.10132e-06
7.74473e-07
7.72592e-07
8.18141e-07
8.2706e-07
7.75541e-07
8.05466e-07
8.13755e-07
1.0809e-06
1.12013e-06
7.74588e-07
8.2538e-07
8.12973e-07
1.11069e-06
1.1237e-06
1.14066e-06
8.33242e-07
8.14536e-07
8.60642e-07
8.63685e-07
1.1074e-06
1.1428e-06
8.34706e-07
8.4128e-07
8.6332e-07
8.64759e-07
8.31339e-07
8.59614e-07
8.65051e-07
1.12842e-06
1.13987e-06
8.3116e-07
8.61861e-07
8.66432e-07
1.14286e-06
1.14497e-06
1.15786e-06
8.6823e-07
8.7838e-07
8.91488e-07
9.0102e-07
1.15287e-06
1.16774e-06
8.68857e-07
8.68788e-07
8.8875e-07
8.8682e-07
8.70327e-07
9.0227e-07
8.927e-07
1.14327e-06
1.15479e-06
8.71395e-07
8.84893e-07
8.89729e-07
1.15883e-06
1.16459e-06
1.18889e-06
9.01374e-07
9.06269e-07
9.33122e-07
9.22377e-07
1.17128e-06
1.1805e-06
8.9882e-07
8.98517e-07
9.33153e-07
9.36274e-07
9.03737e-07
9.23686e-07
9.30066e-07
1.16276e-06
1.19218e-06
9.00422e-07
9.35397e-07
9.29388e-07
1.188e-06
1.19565e-06
1.21181e-06
9.41047e-07
9.29639e-07
9.62935e-07
9.63656e-07
1.18624e-06
1.21141e-06
9.42162e-07
9.44403e-07
9.64928e-07
9.63861e-07
9.37916e-07
9.64686e-07
9.6545e-07
1.19822e-06
1.20964e-06
9.3779e-07
9.61051e-07
9.65625e-07
1.21185e-06
1.21725e-06
1.23293e-06
9.71625e-07
9.75614e-07
9.94972e-07
9.99272e-07
1.21975e-06
1.23619e-06
9.73061e-07
9.71239e-07
9.93232e-07
9.90943e-07
9.7458e-07
9.97758e-07
9.93717e-07
1.21443e-06
1.23034e-06
9.74477e-07
9.91121e-07
9.91006e-07
1.23101e-06
1.23823e-06
1.25365e-06
1.00077e-06
1.00303e-06
1.02095e-06
1.01259e-06
1.23952e-06
1.24634e-06
9.98637e-07
9.97491e-07
1.02203e-06
1.02422e-06
9.9755e-07
1.01165e-06
1.01625e-06
1.23626e-06
1.25627e-06
9.94484e-07
1.02338e-06
1.01756e-06
1.24858e-06
1.26012e-06
1.27612e-06
1.02946e-06
1.02045e-06
1.05022e-06
1.05561e-06
1.25222e-06
1.2843e-06
1.03141e-06
1.03315e-06
1.05039e-06
1.0499e-06
1.02646e-06
1.05762e-06
1.0556e-06
1.26334e-06
1.27635e-06
1.02917e-06
1.05067e-06
1.05573e-06
1.28278e-06
1.27955e-06
1.28623e-06
1.05381e-06
1.06406e-06
1.06633e-06
1.07409e-06
1.29082e-06
1.29495e-06
1.05281e-06
1.05261e-06
1.06386e-06
1.06361e-06
1.06163e-06
1.07441e-06
1.06942e-06
1.27917e-06
1.28487e-06
1.06011e-06
1.06373e-06
1.06538e-06
1.2886e-06
1.29209e-06
1.31826e-06
1.07411e-06
1.0749e-06
1.09734e-06
1.08226e-06
1.29609e-06
1.2978e-06
1.07277e-06
1.07139e-06
1.1017e-06
1.10068e-06
1.07214e-06
1.08232e-06
1.0892e-06
1.29054e-06
1.3175e-06
1.0679e-06
1.0974e-06
1.08874e-06
1.30604e-06
1.32332e-06
1.32668e-06
1.10275e-06
1.09109e-06
1.11165e-06
1.12096e-06
1.30468e-06
1.33731e-06
1.10729e-06
1.10782e-06
1.11404e-06
1.11693e-06
1.09547e-06
1.11986e-06
1.11594e-06
1.32361e-06
1.33017e-06
1.09666e-06
1.11739e-06
1.11774e-06
1.3324e-06
1.32897e-06
1.34217e-06
1.1143e-06
1.12751e-06
1.13482e-06
1.14191e-06
1.34357e-06
1.35533e-06
1.11592e-06
1.11797e-06
1.12996e-06
1.12927e-06
1.12459e-06
1.1439e-06
1.14564e-06
1.33225e-06
1.34014e-06
1.12549e-06
1.13097e-06
1.1428e-06
1.35617e-06
1.34896e-06
1.3593e-06
1.14338e-06
1.14502e-06
1.1568e-06
1.14909e-06
1.35816e-06
1.35116e-06
1.13597e-06
1.13749e-06
1.15081e-06
1.15828e-06
1.1481e-06
1.14718e-06
1.14809e-06
1.34711e-06
1.36569e-06
1.14504e-06
1.15919e-06
1.14628e-06
1.34914e-06
1.36164e-06
1.36508e-06
1.15796e-06
1.14976e-06
1.16058e-06
1.1578e-06
1.35213e-06
1.35758e-06
1.15454e-06
1.16121e-06
1.16419e-06
1.16383e-06
1.14798e-06
1.15513e-06
1.15337e-06
1.36847e-06
1.36451e-06
1.1466e-06
1.16228e-06
1.1535e-06
1.35469e-06
1.36978e-06
1.39719e-06
1.16343e-06
1.16529e-06
1.18744e-06
1.19386e-06
1.36657e-06
1.4027e-06
1.16927e-06
1.16483e-06
1.19306e-06
1.18205e-06
1.16281e-06
1.19715e-06
1.20122e-06
1.36621e-06
1.38659e-06
1.16243e-06
1.18128e-06
1.19906e-06
1.41064e-06
1.40464e-06
1.4091e-06
1.1967e-06
1.19969e-06
1.20904e-06
1.20526e-06
1.40756e-06
1.40248e-06
1.2003e-06
1.19381e-06
1.20789e-06
1.21461e-06
1.20766e-06
1.20391e-06
1.20915e-06
1.39734e-06
1.41737e-06
1.20639e-06
1.21501e-06
1.21037e-06
1.40995e-06
1.40994e-06
1.40096e-06
1.20948e-06
1.20593e-06
1.21054e-06
1.21066e-06
1.40344e-06
1.4033e-06
1.20766e-06
1.21513e-06
1.20652e-06
1.21147e-06
1.20705e-06
1.20687e-06
1.20606e-06
1.41885e-06
1.405e-06
1.20884e-06
1.21294e-06
1.20653e-06
1.39696e-06
1.4031e-06
1.42289e-06
1.2119e-06
1.21375e-06
1.22269e-06
1.2281e-06
1.40807e-06
1.42885e-06
1.20715e-06
1.21112e-06
1.22293e-06
1.21668e-06
1.20751e-06
1.22896e-06
1.22221e-06
1.40601e-06
1.41442e-06
1.20705e-06
1.21808e-06
1.21853e-06
1.41862e-06
1.43218e-06
1.45229e-06
1.22995e-06
1.23306e-06
1.2498e-06
1.24337e-06
1.43433e-06
1.43943e-06
1.23277e-06
1.22472e-06
1.25323e-06
1.25033e-06
1.22931e-06
1.24099e-06
1.24537e-06
1.4227e-06
1.4494e-06
1.22584e-06
1.24824e-06
1.24723e-06
1.44565e-06
1.45457e-06
1.44342e-06
1.25215e-06
1.24538e-06
1.25242e-06
1.2521e-06
1.4414e-06
1.44498e-06
1.25448e-06
1.25439e-06
1.25214e-06
1.25669e-06
1.24828e-06
1.24949e-06
1.25423e-06
1.45345e-06
1.45027e-06
1.25095e-06
1.2559e-06
1.25593e-06
1.44975e-06
1.44414e-06
1.44088e-06
1.25209e-06
1.25508e-06
1.25303e-06
1.26373e-06
1.44898e-06
1.46145e-06
1.25088e-06
1.25662e-06
1.25048e-06
1.25711e-06
1.25555e-06
1.26516e-06
1.26433e-06
1.45146e-06
1.44994e-06
1.25712e-06
1.25882e-06
1.26237e-06
1.46125e-06
1.4452e-06
1.47091e-06
1.25526e-06
1.26644e-06
1.27516e-06
1.27113e-06
1.46558e-06
1.46763e-06
1.25187e-06
1.25785e-06
1.2701e-06
1.26737e-06
1.27009e-06
1.275e-06
1.28067e-06
1.45316e-06
1.46672e-06
1.2659e-06
1.27161e-06
1.27607e-06
1.47686e-06
1.47817e-06
1.48358e-06
1.28095e-06
1.27116e-06
1.2844e-06
1.26976e-06
1.4687e-06
1.46056e-06
1.27784e-06
1.27375e-06
1.28734e-06
1.28719e-06
1.28073e-06
1.2737e-06
1.27417e-06
1.47265e-06
1.48238e-06
1.27663e-06
1.28426e-06
1.27352e-06
1.46221e-06
1.4845e-06
1.47392e-06
1.28303e-06
1.2697e-06
1.27866e-06
1.27231e-06
1.46181e-06
1.46413e-06
1.28732e-06
1.28803e-06
1.28384e-06
1.28568e-06
1.27152e-06
1.27416e-06
1.26963e-06
1.48418e-06
1.47514e-06
1.27241e-06
1.28165e-06
1.27271e-06
1.45853e-06
1.47516e-06
1.48219e-06
1.27865e-06
1.27492e-06
1.28671e-06
1.29073e-06
1.46823e-06
1.48723e-06
1.28325e-06
1.28417e-06
1.28488e-06
1.2838e-06
1.27053e-06
1.28581e-06
1.28636e-06
1.47608e-06
1.47786e-06
1.27484e-06
1.284e-06
1.29277e-06
1.48738e-06
1.48856e-06
1.50768e-06
1.29387e-06
1.29766e-06
1.31068e-06
1.31397e-06
1.495e-06
1.51666e-06
1.28867e-06
1.28567e-06
1.30599e-06
1.30592e-06
1.29368e-06
1.31319e-06
1.31155e-06
1.48336e-06
1.50645e-06
1.29886e-06
1.30895e-06
1.31025e-06
1.51196e-06
1.51129e-06
1.50457e-06
1.31245e-06
1.3161e-06
1.31144e-06
1.31552e-06
1.52066e-06
1.51388e-06
1.30924e-06
1.31108e-06
1.3103e-06
1.3143e-06
1.31561e-06
1.31775e-06
1.31956e-06
1.51146e-06
1.50974e-06
1.31249e-06
1.31263e-06
1.31445e-06
1.5185e-06
1.50499e-06
1.49085e-06
1.30855e-06
1.3123e-06
1.30018e-06
1.29934e-06
1.51407e-06
1.49108e-06
1.30861e-06
1.31292e-06
1.30142e-06
1.30218e-06
1.31904e-06
1.30228e-06
1.30407e-06
1.51012e-06
1.49044e-06
1.31392e-06
1.30042e-06
1.302e-06
1.49321e-06
1.49201e-06
1.49866e-06
1.29904e-06
1.29677e-06
1.30039e-06
1.29564e-06
1.49149e-06
1.48779e-06
1.30041e-06
1.30091e-06
1.30166e-06
1.30431e-06
1.298e-06
1.29545e-06
1.29209e-06
1.49139e-06
1.50415e-06
1.29775e-06
1.3046e-06
1.29481e-06
1.48247e-06
1.50512e-06
1.52995e-06
1.30506e-06
1.29762e-06
1.32624e-06
1.32119e-06
1.49223e-06
1.5214e-06
1.30609e-06
1.31169e-06
1.32616e-06
1.32605e-06
1.29279e-06
1.31556e-06
1.31655e-06
1.51356e-06
1.53199e-06
1.29643e-06
1.326e-06
1.32254e-06
1.52405e-06
1.53454e-06
1.52843e-06
1.32992e-06
1.32788e-06
1.33048e-06
1.33365e-06
1.52963e-06
1.53868e-06
1.32883e-06
1.32623e-06
1.32731e-06
1.31629e-06
1.32638e-06
1.33413e-06
1.33666e-06
1.53344e-06
1.5068e-06
1.32969e-06
1.31588e-06
1.33409e-06
1.54219e-06
1.52824e-06
1.50474e-06
1.32713e-06
1.33277e-06
1.31145e-06
1.31759e-06
1.53959e-06
1.51649e-06
1.32233e-06
1.31132e-06
1.30931e-06
1.30635e-06
1.33615e-06
1.32248e-06
1.31871e-06
1.50613e-06
1.49661e-06
1.33206e-06
1.30519e-06
1.31074e-06
1.50859e-06
1.50559e-06
1.51159e-06
1.30896e-06
1.31267e-06
1.30917e-06
1.30779e-06
1.51635e-06
1.50507e-06
1.30817e-06
1.30701e-06
1.31195e-06
1.32665e-06
1.31186e-06
1.30831e-06
1.30573e-06
1.5013e-06
1.53699e-06
1.30584e-06
1.32417e-06
1.30441e-06
1.49936e-06
1.5185e-06
1.54307e-06
1.31277e-06
1.30818e-06
1.3335e-06
1.3243e-06
1.50773e-06
1.52737e-06
1.31905e-06
1.33472e-06
1.33698e-06
1.34378e-06
1.30684e-06
1.32109e-06
1.33258e-06
1.54694e-06
1.5599e-06
1.30864e-06
1.34601e-06
1.34135e-06
1.54793e-06
1.54774e-06
1.54154e-06
1.33737e-06
1.33192e-06
1.33793e-06
1.33917e-06
1.53597e-06
1.5471e-06
1.33878e-06
1.34343e-06
1.3352e-06
1.32324e-06
1.33959e-06
1.33848e-06
1.34108e-06
1.56087e-06
1.51818e-06
1.34591e-06
1.32691e-06
1.34226e-06
1.54881e-06
1.5403e-06
1.49309e-06
1.3341e-06
1.33802e-06
1.30348e-06
1.31007e-06
1.54785e-06
1.50513e-06
1.32682e-06
1.3103e-06
1.29587e-06
1.28412e-06
1.33483e-06
1.30829e-06
1.29304e-06
1.51374e-06
1.46936e-06
1.3301e-06
1.28303e-06
1.28643e-06
1.47568e-06
1.49258e-06
1.49371e-06
1.29615e-06
1.29997e-06
1.29249e-06
1.29243e-06
1.50308e-06
1.49272e-06
1.29082e-06
1.28245e-06
1.29167e-06
1.2956e-06
1.2864e-06
1.29265e-06
1.28924e-06
1.47023e-06
1.50848e-06
1.28158e-06
1.29504e-06
1.28981e-06
1.49501e-06
1.50456e-06
1.56854e-06
1.29679e-06
1.29546e-06
1.34368e-06
1.34013e-06
1.50069e-06
1.56174e-06
1.3008e-06
1.31689e-06
1.3506e-06
1.36412e-06
1.30393e-06
1.34205e-06
1.35542e-06
1.52864e-06
1.59309e-06
1.31055e-06
1.36239e-06
1.36016e-06
1.58862e-06
1.57756e-06
1.5659e-06
1.35262e-06
1.34943e-06
1.35274e-06
1.34952e-06
1.5708e-06
1.55819e-06
1.35766e-06
1.36752e-06
1.35451e-06
1.35284e-06
1.35929e-06
1.34771e-06
1.34393e-06
1.59801e-06
1.55551e-06
1.36269e-06
1.34721e-06
1.34071e-06
1.54519e-06
1.56148e-06
1.48864e-06
1.34228e-06
1.33895e-06
1.29234e-06
1.2943e-06
1.55426e-06
1.49416e-06
1.34059e-06
1.33059e-06
1.28683e-06
1.27453e-06
1.32389e-06
1.29332e-06
1.27985e-06
1.54741e-06
1.4651e-06
1.31835e-06
1.27345e-06
1.27247e-06
1.46798e-06
1.48758e-06
1.48614e-06
1.28322e-06
1.28662e-06
1.27921e-06
1.28361e-06
1.49399e-06
1.49557e-06
1.27799e-06
1.26801e-06
1.27548e-06
1.27168e-06
1.27565e-06
1.2839e-06
1.28027e-06
1.46482e-06
1.48221e-06
1.26882e-06
1.27262e-06
1.27708e-06
1.49331e-06
1.49427e-06
1.52446e-06
1.28342e-06
1.2876e-06
1.30787e-06
1.30776e-06
1.50268e-06
1.52442e-06
1.28179e-06
1.28522e-06
1.30956e-06
1.32058e-06
1.29076e-06
1.30721e-06
1.31436e-06
1.49733e-06
1.54589e-06
1.29094e-06
1.32296e-06
1.32011e-06
1.53911e-06
1.52848e-06
1.51974e-06
1.31088e-06
1.31007e-06
1.30743e-06
1.30622e-06
1.52772e-06
1.51763e-06
1.31247e-06
1.32301e-06
1.30787e-06
1.31337e-06
1.31622e-06
1.3067e-06
1.31089e-06
1.55023e-06
1.53045e-06
1.32236e-06
1.31805e-06
1.31648e-06
1.52838e-06
1.52021e-06
1.51532e-06
1.30271e-06
1.30174e-06
1.29665e-06
1.29591e-06
1.5181e-06
1.51353e-06
1.30244e-06
1.30403e-06
1.29505e-06
1.28828e-06
1.30594e-06
1.29596e-06
1.29946e-06
1.52851e-06
1.50461e-06
1.31e-06
1.28961e-06
1.29896e-06
1.52034e-06
1.52005e-06
1.53638e-06
1.29708e-06
1.29634e-06
1.30472e-06
1.30379e-06
1.51839e-06
1.53507e-06
1.2954e-06
1.28813e-06
1.30381e-06
1.29778e-06
1.29986e-06
1.3035e-06
1.30499e-06
1.50667e-06
1.52384e-06
1.2989e-06
1.29563e-06
1.30153e-06
1.53593e-06
1.53965e-06
1.51566e-06
1.30528e-06
1.30424e-06
1.29485e-06
1.29311e-06
1.53822e-06
1.51247e-06
1.30475e-06
1.30087e-06
1.29664e-06
1.29861e-06
1.30501e-06
1.29344e-06
1.2883e-06
1.52927e-06
1.52145e-06
1.30149e-06
1.2954e-06
1.28578e-06
1.50089e-06
1.51145e-06
1.45149e-06
1.28196e-06
1.28011e-06
1.24458e-06
1.24492e-06
1.50807e-06
1.4515e-06
1.28432e-06
1.29077e-06
1.24497e-06
1.24816e-06
1.27306e-06
1.24382e-06
1.23507e-06
1.519e-06
1.45498e-06
1.27151e-06
1.2462e-06
1.23467e-06
1.43524e-06
1.4514e-06
1.45744e-06
1.23986e-06
1.24114e-06
1.2403e-06
1.24354e-06
1.45176e-06
1.46466e-06
1.23934e-06
1.24048e-06
1.23837e-06
1.23676e-06
1.23155e-06
1.24229e-06
1.23686e-06
1.45381e-06
1.45101e-06
1.23111e-06
1.23648e-06
1.23598e-06
1.45828e-06
1.46818e-06
1.49781e-06
1.24828e-06
1.2541e-06
1.26268e-06
1.26656e-06
1.47754e-06
1.50665e-06
1.24471e-06
1.24112e-06
1.26046e-06
1.2584e-06
1.25228e-06
1.26777e-06
1.2723e-06
1.46026e-06
1.49615e-06
1.25075e-06
1.26096e-06
1.27168e-06
1.51552e-06
1.48241e-06
1.22956e-06
1.23236e-06
1.48955e-06
1.22844e-06
1.22776e-06
7.76906e-07
7.73911e-07
7.80983e-07
1.23875e-06
1.48218e-06
1.2387e-06
1.25811e-10
2.41828e-09
1.61393e-10
2.54517e-10
5.47504e-09
3.51429e-09
2.11263e-09
1.02308e-09
5.34867e-09
4.21473e-09
1.28109e-09
8.92659e-09
5.28497e-09
2.00361e-09
9.15144e-09
7.40357e-09
1.59892e-07
5.99589e-09
2.51761e-07
1.43249e-06
2.87142e-06
8.77092e-09
1.57549e-07
7.26554e-09
2.49526e-07
1.29031e-09
1.82746e-09
1.38476e-09
1.25665e-09
1.26813e-09
1.81376e-09
1.36558e-09
4.83961e-09
7.23249e-08
2.70872e-09
3.25721e-09
5.15168e-09
5.18158e-08
2.68098e-09
1.57046e-06
3.08503e-06
4.6583e-09
3.58004e-09
9.08085e-08
4.88453e-09
4.90188e-09
3.53674e-09
6.73838e-08
2.09926e-07
2.21268e-07
4.89053e-09
1.79023e-07
1.90686e-07
1.66014e-08
4.49547e-07
1.19802e-08
6.5705e-07
6.62846e-06
9.65549e-06
1.81224e-08
4.44389e-07
1.31997e-08
6.46447e-07
1.25164e-09
1.78985e-09
1.34776e-09
1.1964e-09
1.20334e-09