/*--------------------------------*- C++ -*----------------------------------*\
| =========                 |                                                 |
| \\      /  F ield         | OpenFOAM: The Open Source CFD Toolbox           |
|  \\    /   O peration     | Version:  v2012                                 |
|   \\  /    A nd           | Website:  www.openfoam.com                      |
|    \\/     M anipulation  |                                                 |
\*---------------------------------------------------------------------------*/
FoamFile
{
    version     2.0;
    format      ascii;
    class       volScalarField;
    location    "1187.5";
    object      nut;
}
// * * * * * * * * * * * * * * * * * * * * * * * * * * * * * * * * * * * * * //

dimensions      [0 2 -1 0 0 0 0];


internalField   nonuniform List<scalar> 
171728
(
1.65437e-06
1.81362e-06
2.06172e-06
2.23821e-06
1.6903e-06
1.78669e-06
2.02128e-06
2.2831e-06
1.69787e-06
1.75399e-06
1.96277e-06
2.24586e-06
1.70444e-06
1.72241e-06
1.92801e-06
2.16457e-06
1.7105e-06
1.69035e-06
1.96433e-06
2.10015e-06
1.71259e-06
1.66609e-06
2.01331e-06
2.05338e-06
1.7072e-06
1.63928e-06
2.03054e-06
2.0123e-06
1.69937e-06
1.60708e-06
2.01285e-06
1.97122e-06
1.69012e-06
1.56284e-06
1.95176e-06
1.91766e-06
1.6783e-06
1.51052e-06
1.82238e-06
1.83924e-06
1.66748e-06
1.44552e-06
1.63358e-06
1.73987e-06
1.65672e-06
1.3591e-06
1.46701e-06
1.64114e-06
1.64323e-06
1.24566e-06
1.30042e-06
1.56763e-06
1.62754e-06
1.12729e-06
1.21305e-06
1.52634e-06
1.60704e-06
1.0254e-06
1.09609e-06
1.4874e-06
1.58155e-06
9.37777e-07
9.90938e-07
1.4366e-06
1.56174e-06
8.79524e-07
9.20954e-07
1.38567e-06
1.53481e-06
8.54839e-07
9.05866e-07
1.27083e-06
1.50254e-06
8.87094e-07
9.57764e-07
1.35798e-06
1.46729e-06
9.95198e-07
1.02701e-06
1.33651e-06
1.4281e-06
1.19151e-06
1.26248e-06
1.96553e-06
1.38781e-06
1.52857e-06
1.69955e-06
2.50343e-06
1.3241e-06
2.04635e-06
2.49886e-06
3.43012e-06
1.27248e-06
2.79101e-06
3.62069e-06
5.43404e-06
1.17093e-06
3.81531e-06
5.37285e-06
8.72032e-06
1.11417e-06
5.25448e-06
7.01318e-06
1.31067e-05
1.07297e-06
6.7199e-06
9.11759e-06
1.65516e-05
1.00664e-06
9.3171e-06
9.54884e-06
2.56818e-05
1.00697e-06
1.13206e-05
1.37189e-05
2.89232e-05
1.0507e-06
1.46426e-05
1.42179e-05
4.0082e-05
1.17558e-06
1.80348e-05
1.8789e-05
4.47179e-05
1.4312e-06
2.21493e-05
2.18682e-05
5.31427e-05
1.61846e-06
2.56901e-05
2.61056e-05
5.66864e-05
2.12955e-06
3.11164e-05
3.13254e-05
6.52169e-05
2.69789e-06
3.57475e-05
3.54602e-05
6.96408e-05
3.41734e-06
4.22788e-05
4.23245e-05
7.52933e-05
4.56148e-06
4.56937e-05
4.48659e-05
7.8754e-05
5.52937e-06
5.3345e-05
5.51781e-05
8.32602e-05
7.51563e-06
5.83634e-05
5.69918e-05
8.8075e-05
7.93033e-06
6.47826e-05
6.58179e-05
9.1543e-05
1.23969e-05
7.10213e-05
7.1713e-05
9.4901e-05
1.48335e-05
7.66831e-05
7.50033e-05
0.000100325
1.57699e-05
8.36228e-05
8.30443e-05
0.000102629
1.99697e-05
8.82581e-05
8.84769e-05
0.000105998
2.50402e-05
9.37539e-05
9.75082e-05
0.000113011
3.08952e-05
0.000103732
9.70302e-05
0.000113822
2.95156e-05
0.000105018
0.000106974
0.000116467
4.15913e-05
0.000109638
0.000114251
0.000123768
4.50749e-05
0.000119265
0.000112687
0.000124178
4.89378e-05
0.000120176
0.000122382
0.000128923
5.85919e-05
0.000125108
0.00012591
0.000132155
6.5416e-05
0.000132701
0.000129888
0.000135608
6.98191e-05
0.000132407
0.000134803
0.000136582
7.97644e-05
0.000140766
0.000141139
0.000143445
8.62208e-05
0.00014632
0.00014136
0.00014461
9.00186e-05
0.000144778
0.000147675
0.000145811
0.00010436
0.000151285
0.000153929
0.000149872
0.000105164
0.000158959
0.000153398
0.000155543
0.000112329
0.000160933
0.000161654
0.000155923
0.000122146
0.000158734
0.000163567
0.000153339
0.000122116
0.000167914
0.000161775
0.000162973
0.000135052
0.000173929
0.000174528
0.000167572
0.000145066
0.000173263
0.000176077
0.000164272
0.000143607
0.000175358
0.000173858
0.00016455
0.000146981
0.000182319
0.00018117
0.000171972
0.000162342
0.000184041
0.00018669
0.000173881
0.000166093
0.000186386
0.000186613
0.000174077
0.000162691
0.000191397
0.000187637
0.000178892
0.000172663
0.000192482
0.000194476
0.000178997
0.000184465
0.000192101
0.000195297
0.000176236
0.000184251
0.000192878
0.000193858
0.000179248
0.000185588
0.000203152
0.000201043
0.000186297
0.000197609
0.000207931
0.000205552
0.000189187
0.000201743
0.000205628
0.000203763
0.000187897
0.000199758
0.00020217
0.000201878
0.000183295
0.000201892
0.000204958
0.000211508
0.000187651
0.000217002
0.000215373
0.000214114
0.000195692
0.000219387
0.000217729
0.000209651
0.000194019
0.000216125
0.000212415
0.000211231
0.00018882
0.000219483
0.000211256
0.000222984
0.000195051
0.000231532
0.000221252
0.0002263
0.000202291
0.000232514
0.00022224
0.000211171
0.000192719
0.000224055
0.000214508
0.000206383
0.000185439
0.000226412
0.000222212
0.000231176
0.000205299
0.000249347
0.000232951
0.00024053
0.000211199
0.000251491
0.00022442
0.000218322
0.00019259
0.000231816
0.000217373
0.00021008
0.000189412
0.000229413
0.000222847
0.000226932
0.000201993
0.000246434
0.000227938
0.000234813
0.000204566
0.000250411
0.000227652
0.000227689
0.000201394
0.000251988
0.000230703
0.000226867
0.000204288
0.000256157
0.000234439
0.000230853
0.000205803
0.000247785
0.000220511
0.000223132
0.00019214
0.000237106
0.000215142
0.000216226
0.000188217
0.000243923
0.000231856
0.000228288
0.000209515
2.29867e-06
2.14272e-06
2.10823e-06
2.27595e-06
1.99794e-06
1.83568e-06
1.63309e-06
1.48034e-06
1.85421e-06
1.72639e-06
2.07448e-06
2.0899e-06
2.24405e-06
2.25518e-06
2.73041e-06
2.24306e-06
2.29667e-06
2.24949e-06
1.77773e-06
1.68427e-06
1.76884e-06
1.66244e-06
2.27471e-06
2.23301e-06
1.63626e-06
1.88345e-06
1.61e-06
1.90562e-06
1.66311e-06
1.79196e-06
1.62682e-06
2.23786e-06
2.17395e-06
3.91507e-06
2.0326e-06
4.42163e-06
2.28864e-06
2.24846e-06
2.19995e-06
1.76465e-06
1.65584e-06
1.76051e-06
1.64114e-06
2.2311e-06
2.18536e-06
1.6045e-06
1.92485e-06
1.59005e-06
2.06098e-06
1.61884e-06
1.76272e-06
1.60356e-06
2.1626e-06
2.10402e-06
4.23028e-06
1.97843e-06
3.15034e-06
2.25543e-06
2.19842e-06
2.15102e-06
1.76075e-06
1.63767e-06
1.75878e-06
1.63027e-06
2.18319e-06
2.14262e-06
1.58558e-06
2.13651e-06
1.57609e-06
2.47388e-06
1.60104e-06
1.73025e-06
1.59942e-06
2.10034e-06
2.10768e-06
2.81712e-06
1.9296e-06
2.1137e-06
2.17105e-06
2.14771e-06
2.0977e-06
1.75567e-06
1.62707e-06
1.73449e-06
1.60909e-06
2.1399e-06
2.09607e-06
1.57301e-06
2.60324e-06
1.56349e-06
3.07882e-06
1.59935e-06
1.69784e-06
1.60097e-06
2.11229e-06
2.22675e-06
1.98436e-06
1.95185e-06
1.81086e-06
2.10401e-06
2.0932e-06
2.04448e-06
1.72561e-06
1.60097e-06
1.6946e-06
1.56989e-06
2.09199e-06
2.04543e-06
1.56138e-06
3.41138e-06
1.5609e-06
5.44159e-06
1.60143e-06
1.67207e-06
1.59433e-06
2.25212e-06
2.85078e-06
1.79207e-06
2.00265e-06
1.75969e-06
2.05663e-06
2.04017e-06
2.00198e-06
1.68359e-06
1.55798e-06
1.6558e-06
1.51662e-06
2.0412e-06
1.99657e-06
1.56285e-06
6.45577e-06
1.56879e-06
9.74485e-06
1.59139e-06
1.64557e-06
1.57415e-06
2.88912e-06
3.37303e-06
1.74755e-06
2.03083e-06
1.71009e-06
2.01515e-06
1.99823e-06
1.96187e-06
1.64607e-06
1.50226e-06
1.62046e-06
1.45328e-06
1.9929e-06
1.96572e-06
1.57019e-06
1.07419e-05
1.57447e-06
9.80731e-06
1.56548e-06
1.61527e-06
1.53955e-06
3.35942e-06
2.84212e-06
1.69726e-06
2.01726e-06
1.6457e-06
1.97377e-06
1.95823e-06
1.92173e-06
1.60995e-06
1.43544e-06
1.57214e-06
1.38006e-06
1.96158e-06
1.91313e-06
1.57511e-06
8.00549e-06
1.57931e-06
4.02337e-06
1.52897e-06
1.57461e-06
1.49247e-06
2.65038e-06
2.20615e-06
1.62363e-06
1.97269e-06
1.54746e-06
1.92189e-06
1.91778e-06
1.87792e-06
1.55805e-06
1.36129e-06
1.51352e-06
1.3131e-06
1.90852e-06
1.84561e-06
1.58095e-06
3.22194e-06
1.57936e-06
1.80375e-06
1.47938e-06
1.52429e-06
1.43103e-06
2.16843e-06
1.89993e-06
1.51486e-06
1.85931e-06
1.41515e-06
1.84523e-06
1.87276e-06
1.81185e-06
1.49637e-06
1.29722e-06
1.44231e-06
1.24714e-06
1.84061e-06
1.76179e-06
1.57737e-06
1.60268e-06
1.55896e-06
1.40221e-06
1.41407e-06
1.46259e-06
1.36227e-06
1.88129e-06
1.76479e-06
1.38484e-06
1.68038e-06
1.30067e-06
1.747e-06
1.80529e-06
1.7341e-06
1.42176e-06
1.22978e-06
1.35773e-06
1.17526e-06
1.75551e-06
1.66243e-06
1.54977e-06
1.38171e-06
1.51646e-06
1.31122e-06
1.34057e-06
1.38263e-06
1.28195e-06
1.75315e-06
1.65547e-06
1.27939e-06
1.51277e-06
1.23767e-06
1.64948e-06
1.72531e-06
1.64882e-06
1.3348e-06
1.15654e-06
1.26288e-06
1.10525e-06
1.65244e-06
1.54402e-06
1.50375e-06
1.28949e-06
1.45699e-06
1.24324e-06
1.26694e-06
1.27194e-06
1.22597e-06
1.6455e-06
1.57459e-06
1.22451e-06
1.33534e-06
1.19772e-06
1.57737e-06
1.63598e-06
1.55115e-06
1.23954e-06
1.089e-06
1.16592e-06
1.04575e-06
1.53055e-06
1.42254e-06
1.44107e-06
1.22909e-06
1.38073e-06
1.19518e-06
1.21127e-06
1.15199e-06
1.17447e-06
1.56365e-06
1.48684e-06
1.1984e-06
1.23099e-06
1.24406e-06
1.53529e-06
1.53377e-06
1.44262e-06
1.14146e-06
1.03282e-06
1.0686e-06
9.9209e-07
1.40579e-06
1.30955e-06
1.36184e-06
1.18248e-06
1.29957e-06
1.14454e-06
1.16163e-06
1.04589e-06
1.12826e-06
1.47037e-06
1.38533e-06
1.26847e-06
1.12848e-06
1.36837e-06
1.49873e-06
1.42062e-06
1.32869e-06
1.04422e-06
9.81838e-07
9.74835e-07
9.49536e-07
1.28894e-06
1.20732e-06
1.27746e-06
1.13423e-06
1.21302e-06
1.09196e-06
1.11822e-06
9.5772e-07
1.0947e-06
1.36459e-06
1.28042e-06
1.40248e-06
1.01608e-06
1.5088e-06
1.45873e-06
1.30351e-06
1.22029e-06
9.52132e-07
9.37246e-07
9.01562e-07
9.15629e-07
1.18573e-06
1.11648e-06
1.18873e-06
1.07931e-06
1.12822e-06
1.03784e-06
1.10545e-06
8.90108e-07
1.13613e-06
1.25722e-06
1.18283e-06
1.51365e-06
9.3589e-07
1.47409e-06
1.39436e-06
1.19874e-06
1.1444e-06
8.89428e-07
9.08972e-07
8.72704e-07
9.1067e-07
1.0989e-06
1.06016e-06
1.11302e-06
1.02619e-06
1.06872e-06
1.00016e-06
1.1646e-06
8.59196e-07
1.23677e-06
1.16248e-06
1.11512e-06
1.47029e-06
9.12116e-07
1.31182e-06
1.3082e-06
1.13174e-06
1.12975e-06
8.69138e-07
9.14123e-07
8.88307e-07
9.49574e-07
1.04935e-06
1.06711e-06
1.05886e-06
9.96697e-07
1.05582e-06
1.00722e-06
1.25309e-06
8.7685e-07
1.36867e-06
1.10538e-06
1.10363e-06
1.25469e-06
9.37411e-07
1.28326e-06
1.31225e-06
1.13851e-06
1.23056e-06
8.99907e-07
9.61797e-07
9.64344e-07
1.03995e-06
1.08156e-06
1.18629e-06
1.06233e-06
1.01656e-06
1.1063e-06
1.06023e-06
1.40518e-06
9.64983e-07
1.4253e-06
1.11901e-06
1.17668e-06
1.26439e-06
9.89661e-07
1.13115e-06
1.37436e-06
1.26156e-06
1.55841e-06
9.88797e-07
1.07227e-06
1.1536e-06
1.20929e-06
1.23726e-06
1.46093e-06
1.12665e-06
1.10842e-06
1.27545e-06
1.23788e-06
1.42797e-06
1.12539e-06
1.62105e-06
1.21788e-06
1.51642e-06
1.15993e-06
1.19018e-06
1.60712e-06
1.78382e-06
1.65172e-06
2.13813e-06
1.1875e-06
1.27071e-06
1.44344e-06
1.50251e-06
1.55956e-06
2.09304e-06
1.31724e-06
1.29869e-06
1.55691e-06
1.52581e-06
1.63319e-06
1.42261e-06
1.75062e-06
1.58623e-06
2.10353e-06
1.7407e-06
1.58067e-06
2.23601e-06
2.28021e-06
2.36596e-06
3.17719e-06
1.55102e-06
1.61546e-06
1.86465e-06
2.00946e-06
2.25792e-06
3.2838e-06
1.66882e-06
1.63255e-06
1.99513e-06
1.96728e-06
1.88875e-06
1.91915e-06
2.08554e-06
2.29763e-06
3.22904e-06
2.43263e-06
2.205e-06
2.66381e-06
3.40755e-06
3.47492e-06
4.95312e-06
1.95235e-06
2.13544e-06
2.6985e-06
2.64825e-06
3.54872e-06
4.90983e-06
2.09984e-06
2.16705e-06
2.83052e-06
2.62762e-06
2.10932e-06
2.559e-06
2.70236e-06
3.45704e-06
5.40533e-06
2.58746e-06
3.29362e-06
2.93114e-06
4.71346e-06
5.50895e-06
7.34683e-06
2.87327e-06
2.89409e-06
3.37644e-06
3.67366e-06
5.37152e-06
7.89837e-06
2.99657e-06
2.79357e-06
3.50486e-06
3.83433e-06
3.01052e-06
3.57297e-06
3.65004e-06
5.75049e-06
8.26448e-06
3.24195e-06
5.08835e-06
3.68655e-06
8.25677e-06
7.8241e-06
1.25667e-05
3.85465e-06
3.91441e-06
5.03696e-06
4.97168e-06
8.50927e-06
1.15098e-05
3.97537e-06
4.06122e-06
5.25155e-06
4.77512e-06
3.92895e-06
4.86234e-06
5.09736e-06
9.30804e-06
1.13074e-05
3.95629e-06
6.36562e-06
5.43195e-06
1.21419e-05
1.3034e-05
1.51143e-05
4.98404e-06
5.36615e-06
6.5116e-06
6.45629e-06
1.23892e-05
1.63288e-05
5.21836e-06
5.27218e-06
6.61799e-06
7.07411e-06
5.34239e-06
6.34431e-06
6.19257e-06
1.2023e-05
1.86447e-05
5.49439e-06
8.88776e-06
6.55072e-06
1.56012e-05
1.72633e-05
2.46775e-05
7.43002e-06
6.83074e-06
8.44771e-06
8.67936e-06
1.7162e-05
2.25897e-05
7.6785e-06
7.29406e-06
8.53496e-06
7.88212e-06
6.86506e-06
8.58377e-06
9.09238e-06
1.9466e-05
2.07253e-05
7.28542e-06
8.757e-06
9.21176e-06
2.43665e-05
2.48452e-05
2.84004e-05
8.8322e-06
9.39483e-06
1.09635e-05
1.09964e-05
2.41921e-05
2.99961e-05
9.06853e-06
8.80715e-06
1.10193e-05
1.21898e-05
9.21423e-06
1.08634e-05
1.05348e-05
2.17848e-05
3.26787e-05
9.52615e-06
1.31328e-05
1.10617e-05
2.76185e-05
3.04882e-05
3.64562e-05
1.16118e-05
1.14604e-05
1.34216e-05
1.37764e-05
3.09342e-05
3.58344e-05
1.15459e-05
1.26706e-05
1.37748e-05
1.28142e-05
1.18216e-05
1.36852e-05
1.39333e-05
3.46281e-05
3.53795e-05
1.22245e-05
1.392e-05
1.52148e-05
3.8571e-05
3.76011e-05
4.45017e-05
1.44587e-05
1.47803e-05
1.74916e-05
1.7489e-05
3.75701e-05
4.46371e-05
1.48676e-05
1.3582e-05
1.77709e-05
1.79812e-05
1.43463e-05
1.73606e-05
1.72772e-05
3.53875e-05
4.40903e-05
1.57811e-05
1.74555e-05
1.82152e-05
4.30149e-05
4.59954e-05
4.96834e-05
1.80152e-05
1.81758e-05
2.05402e-05
2.09055e-05
4.59192e-05
5.03155e-05
1.80867e-05
1.91419e-05
2.05854e-05
2.09888e-05
1.84249e-05
2.08579e-05
2.14556e-05
4.67078e-05
5.14218e-05
1.96466e-05
2.12565e-05
2.30991e-05
5.23519e-05
5.09489e-05
5.73427e-05
2.18793e-05
2.22292e-05
2.50432e-05
2.51523e-05
5.17427e-05
5.69649e-05
2.21335e-05
2.16626e-05
2.51143e-05
2.48618e-05
2.21712e-05
2.49506e-05
2.41092e-05
5.20197e-05
5.59507e-05
2.33035e-05
2.49122e-05
2.39545e-05
5.51715e-05
5.87937e-05
6.30142e-05
2.60766e-05
2.58966e-05
2.99067e-05
2.9486e-05
5.8055e-05
6.25635e-05
2.59739e-05
2.61742e-05
3.01219e-05
2.9979e-05
2.56084e-05
2.93323e-05
3.09405e-05
5.74656e-05
6.32019e-05
2.54386e-05
2.98929e-05
3.13491e-05
6.39542e-05
6.41186e-05
6.82316e-05
3.09435e-05
3.12498e-05
3.4263e-05
3.53298e-05
6.40669e-05
6.90981e-05
3.13826e-05
3.12687e-05
3.50789e-05
3.43982e-05
3.16787e-05
3.51224e-05
3.41168e-05
6.4485e-05
6.83714e-05
3.24496e-05
3.43061e-05
3.49513e-05
6.84129e-05
6.95088e-05
7.37129e-05
3.58753e-05
3.60279e-05
4.03014e-05
4.03088e-05
7.00921e-05
7.34978e-05
3.62321e-05
3.56357e-05
3.9746e-05
4.15668e-05
3.61224e-05
4.04458e-05
4.28605e-05
6.9499e-05
7.39342e-05
3.6423e-05
4.12131e-05
4.07037e-05
7.42615e-05
7.47388e-05
7.80916e-05
4.15442e-05
4.22434e-05
4.55004e-05
4.47482e-05
7.46534e-05
7.76295e-05
4.15928e-05
4.27004e-05
4.72756e-05
4.33131e-05
4.40646e-05
4.46737e-05
4.60103e-05
7.48297e-05
7.67817e-05
4.15896e-05
4.32683e-05
4.46733e-05
7.79053e-05
7.90002e-05
8.22052e-05
4.63152e-05
4.57665e-05
5.06013e-05
5.17208e-05
7.84576e-05
8.26896e-05
4.798e-05
4.49446e-05
5.08012e-05
5.33882e-05
4.70516e-05
5.15131e-05
5.06692e-05
7.78878e-05
8.38811e-05
4.63535e-05
5.28331e-05
5.07853e-05
8.21584e-05
8.34716e-05
8.71175e-05
5.30896e-05
5.34927e-05
5.86203e-05
5.73839e-05
8.38761e-05
8.6628e-05
5.31128e-05
5.58217e-05
5.87648e-05
5.85618e-05
5.23111e-05
5.72208e-05
5.90219e-05
8.48348e-05
8.61031e-05
5.22317e-05
5.76116e-05
5.79313e-05
8.7219e-05
8.76697e-05
8.93056e-05
5.92393e-05
5.85907e-05
6.13069e-05
6.27201e-05
8.73909e-05
9.06811e-05
5.90487e-05
5.78965e-05
6.01885e-05
6.26808e-05
6.02601e-05
6.28839e-05
6.37526e-05
8.64923e-05
9.08378e-05
5.89943e-05
6.23355e-05
6.26849e-05
9.06622e-05
9.03669e-05
9.62587e-05
6.29008e-05
6.46247e-05
7.05049e-05
7.03882e-05
9.17372e-05
9.48623e-05
6.24413e-05
6.64367e-05
7.2345e-05
7.34819e-05
6.59176e-05
7.02054e-05
6.90815e-05
9.26181e-05
9.56941e-05
6.50497e-05
7.16243e-05
6.87911e-05
9.42436e-05
9.72854e-05
9.88787e-05
7.30741e-05
7.13512e-05
7.59375e-05
7.44812e-05
9.55503e-05
9.81427e-05
7.49253e-05
7.44518e-05
7.84602e-05
7.31842e-05
6.94418e-05
7.42897e-05
7.54514e-05
9.59895e-05
9.6841e-05
6.92115e-05
7.20234e-05
7.52166e-05
9.9099e-05
9.91538e-05
0.000101458
7.59384e-05
7.67173e-05
8.06965e-05
8.2621e-05
9.91936e-05
0.000103133
7.81074e-05
7.33377e-05
7.89897e-05
8.19084e-05
7.82818e-05
8.26539e-05
8.33945e-05
9.76865e-05
0.000102911
7.80748e-05
8.26433e-05
8.34816e-05
0.000102463
0.000102801
0.000106281
8.33651e-05
8.35891e-05
8.701e-05
8.73645e-05
0.000103741
0.00010556
8.21636e-05
8.29674e-05
8.67257e-05
8.66903e-05
8.34307e-05
8.71747e-05
8.31998e-05
0.000103487
0.000105845
8.36651e-05
8.57357e-05
8.28661e-05
0.000104459
0.000106773
0.000110905
8.77365e-05
8.85781e-05
9.40236e-05
9.18519e-05
0.000106171
0.000109525
8.77977e-05
8.94022e-05
9.48721e-05
9.6559e-05
8.61216e-05
9.14801e-05
9.6374e-05
0.000107131
0.000111611
8.5637e-05
9.61125e-05
9.61882e-05
0.000112355
0.000112081
0.00011398
9.65338e-05
9.40659e-05
0.000100645
0.000102064
0.000110624
0.000115816
9.72992e-05
9.78185e-05
0.000100991
9.80845e-05
9.8486e-05
0.000101979
0.000101266
0.000112014
0.000111974
9.84075e-05
9.79406e-05
0.000101272
0.000113721
0.000114055
0.000115884
0.000100257
0.000103809
0.000102249
0.000105432
0.000116442
0.000116947
0.000100719
9.71772e-05
0.000100623
0.000103
0.000101172
0.000105549
9.95125e-05
0.000112025
0.000117545
0.000101235
0.000102972
9.93854e-05
0.00011511
0.000117535
0.000122733
0.000105498
0.000104781
0.000111494
0.000106539
0.000116882
0.00011931
0.000104396
0.000107037
0.000112754
0.00011404
0.000102557
0.000105553
0.000112879
0.000119552
0.000123276
0.000102198
0.000113648
0.00011293
0.000123291
0.000123067
0.000123723
0.000112489
0.000110702
0.000114508
0.0001182
0.000121227
0.000126967
0.000113659
0.000114749
0.0001142
0.000113834
0.000114371
0.000118093
0.000114213
0.000123418
0.000122946
0.000114724
0.000113076
0.000114698
0.000123992
0.000124116
0.000127869
0.000115206
0.000119084
0.000119856
0.00012002
0.000127294
0.000127565
0.000114617
0.000113432
0.00011926
0.00011987
0.000115246
0.000120306
0.000120022
0.000123101
0.000128613
0.000114485
0.000120055
0.000119472
0.000128226
0.000128848
0.000131929
0.000121632
0.000119902
0.000124778
0.000122361
0.000127667
0.000130174
0.000121291
0.000122233
0.000125339
0.000125795
0.000121018
0.00012281
0.000124499
0.000129808
0.000132022
0.000120753
0.000125224
0.000124678
0.000131346
0.000132395
0.000134898
0.000125775
0.000124677
0.000129936
0.000131504
0.000131305
0.000136404
0.000126493
0.000126678
0.000130124
0.000129523
0.000126121
0.000131519
0.000130656
0.000132278
0.000134246
0.000126416
0.000129114
0.000130614
0.000135372
0.000135428
0.000137417
0.000131025
0.000132884
0.000133252
0.000133711
0.000136813
0.000136836
0.00013076
0.000130026
0.00013281
0.000132993
0.000131339
0.000132992
0.000131756
0.000134759
0.000137474
0.000130937
0.000132987
0.000131135
0.000136033
0.000138038
0.000142071
0.000134461
0.00013314
0.00013949
0.000137142
0.000136721
0.000141101
0.00013444
0.000134966
0.000139962
0.000140287
0.000132687
0.000137679
0.00013902
0.000138373
0.00014233
0.000132704
0.000140109
0.000140019
0.000142423
0.000142543
0.000142735
0.000140806
0.000140202
0.000141391
0.000145544
0.000142731
0.000145979
0.000141113
0.000141111
0.000141193
0.000141027
0.000141219
0.000145875
0.000144484
0.000142619
0.000142561
0.000141888
0.000141503
0.000144177
0.000144695
0.000142699
0.000147553
0.000141708
0.000146081
0.000146669
0.000145601
0.000146016
0.00014483
0.000140799
0.000140906
0.000146877
0.000146012
0.000144409
0.000145683
0.000144982
0.00014254
0.000146712
0.000143992
0.000145346
0.000143193
0.000144935
0.000148789
0.000150823
0.000148579
0.000144687
0.000152386
0.000149192
0.000144479
0.000149413
0.000149432
0.000148526
0.0001534
0.000153461
0.000146188
0.000148883
0.000149367
0.000148009
0.000151238
0.000145279
0.000153099
0.000150219
0.000149291
0.000150773
0.000150786
0.000152597
0.000151707
0.000152257
0.000156769
0.000150706
0.000154643
0.000153531
0.000154037
0.000153054
0.000153386
0.000150748
0.000157327
0.000157001
0.000151389
0.000150941
0.000151738
0.000153492
0.000157199
0.00015475
0.000151595
0.000155882
0.000154176
0.000158207
0.000160484
0.000160772
0.000155305
0.000156289
0.00015405
0.000153127
0.000157894
0.000159062
0.000158914
0.000160939
0.000161007
0.000151038
0.000156471
0.00015868
0.000159869
0.000160493
0.000156145
0.000156262
0.000156756
0.000161689
0.000160998
0.000162773
0.000160189
0.000156148
0.000154235
0.000159205
0.000161001
0.000161682
0.000163756
0.000160976
0.000159818
0.000159965
0.000157285
0.000157977
0.000160527
0.000163577
0.000159632
0.000153764
0.00015663
0.000159181
0.000162524
0.000159414
0.000161667
0.000163617
0.000153908
0.000160712
0.000161946
0.000163861
0.000165011
0.000162411
0.000158799
0.00016409
0.000163465
0.000157867
0.000156972
0.000158595
0.000161818
0.000163425
0.000160703
0.00016063
0.000166063
0.000164412
0.000166861
0.000172891
0.000173021
0.000162542
0.00016563
0.000167276
0.000162466
0.00017349
0.000172363
0.000168009
0.000173535
0.000174831
0.000157646
0.000166018
0.000167569
0.00017228
0.000174879
0.000167715
0.000166228
0.000165134
0.000174266
0.000173776
0.000175177
0.000173978
0.000165534
0.000164274
0.000174293
0.000174468
0.000174456
0.000176128
0.000175353
0.000173764
0.000174501
0.000166791
0.000166619
0.000175535
0.00017633
0.000174933
0.000164543
0.000164909
0.000164301
0.000175007
0.000173686
0.000173701
0.000173915
0.000163965
0.000166177
0.000174194
0.000175745
0.000172236
0.00017434
0.00017409
0.000173095
0.000172303
0.000166307
0.000164359
0.000174418
0.000174717
0.000172746
0.000163986
0.000164838
0.00017253
0.000173265
0.000175349
0.000180165
0.000180773
0.000167356
0.000171605
0.000171991
0.000173361
0.000181361
0.000178331
0.000172536
0.000181145
0.00017954
0.000164318
0.000170724
0.000172258
0.00017807
0.000178807
0.000171056
0.000173536
0.000174735
0.000182758
0.000182275
0.000186308
0.000184588
0.000171914
0.000172429
0.00018396
0.000181592
0.000186923
0.000186611
0.000181419
0.000183801
0.000185107
0.000172219
0.000174774
0.000181397
0.000186214
0.000185928
0.00017387
0.000174454
0.000172168
0.00018645
0.000184965
0.000185724
0.000186101
0.000172316
0.000174065
0.000187079
0.000187032
0.000185369
0.000186819
0.000185774
0.000185418
0.000185847
0.000174666
0.000173645
0.00018654
0.000186794
0.000187017
0.000173845
0.00017175
0.000173561
0.000185342
0.000186633
0.000184315
0.000189533
0.000174659
0.000177718
0.000184993
0.000186528
0.000183336
0.000185413
0.000186095
0.000190425
0.000191257
0.000173379
0.000174516
0.000186841
0.000186026
0.000189554
0.000178341
0.000174977
0.000181073
0.000187303
0.000190479
0.000194228
0.000191591
0.00017793
0.00017786
0.000185195
0.000185704
0.000194142
0.000192999
0.000192449
0.000192449
0.000193883
0.000175243
0.000180058
0.000191028
0.000193422
0.000192798
0.000179339
0.000181299
0.000180651
0.000195068
0.000191654
0.000195471
0.00019137
0.000177704
0.000176969
0.000195613
0.000194735
0.00019703
0.000196624
0.000193876
0.000192226
0.000191644
0.000180471
0.000180925
0.000192875
0.000195495
0.000192155
0.000176653
0.000180408
0.000179373
0.00019503
0.000191096
0.000193795
0.000192782
0.000176878
0.000179092
0.00019685
0.000196731
0.00019586
0.000195547
0.000191361
0.000191538
0.000190004
0.000180683
0.000179302
0.000191842
0.000194478
0.000191415
0.000178046
0.000179447
0.000184435
0.000193431
0.000194753
0.000200015
0.00020178
0.000179893
0.000185998
0.000195347
0.000195273
0.000197772
0.000196237
0.000191709
0.000200554
0.000200048
0.000179117
0.000183258
0.00019405
0.000198667
0.000201045
0.000185562
0.000185472
0.000187948
0.000202173
0.000203941
0.000205231
0.000207044
0.000187035
0.000189894
0.000200278
0.000199194
0.000204507
0.000204898
0.000202432
0.00020749
0.000207525
0.000184509
0.000188249
0.000202772
0.000205039
0.000206241
0.00018904
0.000187796
0.000185532
0.000205723
0.000207565
0.000204338
0.000205813
0.000189769
0.000186944
0.00020495
0.000205474
0.000204561
0.000205552
0.000208097
0.000207446
0.000209361
0.000188293
0.000186125
0.00020662
0.000204804
0.000207343
0.000188902
0.000185221
0.000184555
0.00020335
0.000204271
0.000202306
0.000202041
0.000186258
0.000184048
0.00020378
0.000204357
0.000202929
0.000202959
0.000207448
0.000202423
0.000202252
0.000185601
0.000184136
0.000205751
0.000202425
0.000202523
0.00018382
0.00018459
0.000190095
0.000201837
0.000201739
0.00020686
0.000203813
0.000183639
0.000186679
0.000202486
0.000202279
0.000207528
0.000209297
0.000201792
0.000201786
0.000200474
0.000184409
0.000192054
0.000202191
0.000209582
0.000203014
0.000185939
0.000191253
0.000194983
0.000209734
0.00020705
0.000214615
0.000214494
0.000188135
0.000194687
0.000210267
0.000211357
0.000214249
0.000214031
0.00020402
0.000213916
0.00021452
0.000192757
0.000193772
0.000206881
0.000214089
0.000214607
0.000195367
0.000194966
0.000191898
0.000215292
0.000215434
0.000214789
0.000217383
0.000195029
0.000195444
0.000215061
0.000214084
0.0002132
0.000210171
0.000215919
0.000217679
0.000218512
0.00019284
0.000188568
0.000215465
0.000210062
0.000216786
0.000195329
0.000191206
0.000189637
0.000213081
0.000216105
0.000211005
0.000212116
0.000194648
0.000191146
0.000211931
0.000209809
0.000210494
0.000208994
0.000217378
0.000213083
0.000211765
0.00018801
0.000190668
0.000214297
0.000208503
0.000210575
0.00018948
0.000189628
0.000195361
0.000210516
0.000211765
0.000213949
0.000210486
0.000190777
0.000190997
0.000209868
0.000212255
0.000216625
0.000221409
0.000211289
0.00021073
0.000210445
0.000192202
0.000200342
0.000209941
0.000221427
0.000213882
0.000193289
0.000196397
0.000200086
0.000216993
0.00021263
0.000221761
0.000220659
0.00019173
0.00019854
0.000219109
0.000222591
0.000222261
0.000225469
0.000214688
0.000220145
0.000222193
0.000200709
0.00020176
0.000218189
0.000226084
0.000223853
0.000201868
0.000200198
0.000195992
0.000222444
0.000221627
0.000222456
0.000225013
0.000198875
0.000199867
0.000223497
0.000224966
0.000219172
0.000213444
0.000223306
0.000224725
0.000221818
0.000200111
0.000189638
0.000225717
0.000213912
0.000219345
0.000195107
0.000194307
0.000189778
0.000219123
0.00022275
0.000213816
0.000215266
0.000198121
0.000191687
0.000216089
0.000211042
0.000212256
0.000208013
0.000217351
0.000215292
0.000211816
0.000188504
0.000185975
0.000214854
0.000207817
0.000209772
0.000186097
0.000188901
0.000198182
0.000213123
0.000214542
0.000216028
0.000214491
0.000190714
0.000196404
0.000211057
0.000206612
0.000219471
0.000225336
0.000209883
0.000216119
0.000221708
0.000186704
0.000204594
0.00020746
0.000225744
0.000224318
0.000202971
0.000200505
0.000209044
0.000222402
0.000220763
0.000231913
0.00023053
0.000198724
0.00020752
0.000225585
0.000230987
0.000233833
0.000237865
0.000227905
0.00023091
0.000235466
0.000206609
0.000213862
0.0002302
0.000237915
0.000237758
0.00021315
0.000209432
0.000201376
0.000233748
0.000232397
0.000231348
0.000230065
0.000207809
0.000200565
0.000236132
0.000240843
0.000230299
0.000225847
0.000238036
0.000228906
0.00022427
0.000212285
0.00019622
0.000240108
0.00022417
0.000222369
0.000194718
0.00019863
0.000191766
0.000225746
0.000225275
0.000217038
0.00021818
0.000198384
0.000193373
0.000224214
0.000219438
0.000215568
0.00021216
0.000219357
0.000218074
0.000214218
0.000193454
0.000187215
0.000217208
0.000211922
0.000211879
0.000188817
0.000191022
0.000197405
0.000216144
0.000217412
0.000218114
0.000219706
0.000192999
0.000198284
0.00021444
0.000210285
0.000218423
0.000221004
0.000212934
0.000219981
0.0002219
0.00018711
0.000200524
0.000210417
0.000221812
0.000222689
0.000200775
0.000198718
0.000202708
0.000221828
0.000222641
0.000227447
0.00022699
0.000199221
0.000202041
0.000222523
0.000226031
0.000228379
0.000232304
0.000225378
0.000227128
0.000229797
0.000202319
0.000207689
0.000226846
0.000233301
0.000231994
0.000205072
0.000202509
0.00020116
0.000228361
0.000227793
0.000228229
0.000227598
0.000201781
0.000200651
0.00022936
0.000233687
0.000228324
0.000228499
0.000230574
0.000227752
0.000228941
0.000207013
0.00020091
0.000233024
0.000229569
0.000229953
0.000201909
0.000200647
0.000203729
0.000228118
0.000227515
0.000229663
0.00022953
0.000200161
0.000203731
0.000228051
0.000227102
0.000228902
0.000225657
0.000228721
0.000229401
0.000229982
0.000200209
0.000200294
0.000229156
0.000225892
0.000229239
0.000203957
0.000204302
0.000207686
0.000230932
0.000230815
0.000233222
0.000233159
0.000204277
0.000207567
0.00023044
0.000227305
0.000232714
0.000230499
0.000230788
0.000233009
0.000233476
0.000201099
0.000205126
0.000229781
0.000229562
0.000232187
0.000207099
0.000206899
0.000197378
0.000234674
0.000234498
0.000225112
0.000224243
0.000206604
0.000196364
0.000234319
0.000231777
0.000226178
0.000228474
0.000234529
0.000224196
0.000221774
0.000205402
0.000199631
0.000233222
0.000227395
0.000221742
0.000193963
0.000195342
0.000190766
0.00022127
0.000220673
0.000216745
0.000216793
0.000194563
0.000190619
0.000222037
0.000223919
0.00021678
0.000217139
0.000218077
0.000216498
0.000214151
0.000197275
0.000191247
0.000218195
0.000217054
0.000214356
0.00018804
0.000190323
0.000202268
0.000215658
0.000215493
0.000226618
0.000228887
0.000190501
0.000204693
0.000215864
0.000216419
0.000225155
0.000223419
0.000212434
0.000229124
0.000229514
0.000190328
0.000200967
0.00021266
0.000224686
0.000229086
0.000205421
0.000206224
0.000229352
0.000231508
0.000208464
0.000228389
0.000227286
0.000248774
0.000242532
0.000250219
0.000232826
0.00020523
0.000232524
3.5032e-06
2.05925e-06
1.45979e-06
1.55408e-06
1.35144e-06
2.00246e-06
5.64214e-07
1.33794e-06
1.23043e-06
2.22385e-06
1.59099e-06
1.4377e-06
2.25823e-06
2.09893e-06
1.05512e-06
1.0579e-06
1.33791e-05
9.65877e-07
1.51149e-05
1.05218e-05
1.27191e-05
1.32489e-06
1.33144e-05
1.24832e-06
1.5067e-05
1.49877e-06
1.87299e-06
1.74152e-06
1.6879e-06
1.53185e-06
1.88105e-06
1.75897e-06
1.32393e-06
3.10992e-07
1.6212e-06
1.80319e-06
1.30618e-06
4.17393e-07
1.62556e-06
1.08353e-05
1.30304e-05
1.22516e-06
1.77737e-06
5.49062e-07
2.05083e-06
1.22561e-06
1.78294e-06
6.75936e-07
1.46267e-06
1.51046e-06
2.26123e-06
1.66551e-06
1.72711e-06
1.33216e-06
1.83181e-05
1.25172e-06
2.07736e-05
1.67935e-05
1.90343e-05
1.50828e-06
1.82324e-05
1.45588e-06
2.06826e-05
1.53497e-06
1.87773e-06
1.75349e-06