/*--------------------------------*- C++ -*----------------------------------*\
| =========                 |                                                 |
| \\      /  F ield         | OpenFOAM: The Open Source CFD Toolbox           |
|  \\    /   O peration     | Version:  v2012                                 |
|   \\  /    A nd           | Website:  www.openfoam.com                      |
|    \\/     M anipulation  |                                                 |
\*---------------------------------------------------------------------------*/
FoamFile
{
    version     2.0;
    format      ascii;
    class       volScalarField;
    location    "275";
    object      nut;
}
// * * * * * * * * * * * * * * * * * * * * * * * * * * * * * * * * * * * * * //

dimensions      [0 2 -1 0 0 0 0];


internalField   nonuniform List<scalar> 
171728
(
8.95329e-06
2.2027e-06
2.26728e-06
2.27956e-06
8.79186e-06
2.18027e-06
2.24882e-06
2.26669e-06
8.98251e-06
2.18413e-06
2.23799e-06
2.26692e-06
9.17519e-06
2.20722e-06
2.21939e-06
2.27226e-06
9.36682e-06
2.21066e-06
2.20397e-06
2.27234e-06
9.55818e-06
2.21306e-06
2.19997e-06
2.28713e-06
9.75168e-06
2.26644e-06
2.18689e-06
2.3241e-06
9.95051e-06
2.24015e-06
2.16788e-06
2.3622e-06
1.01584e-05
2.20762e-06
2.14218e-06
2.3678e-06
1.03697e-05
2.15922e-06
2.11329e-06
2.35324e-06
1.05828e-05
2.00715e-06
2.07725e-06
2.29197e-06
1.07945e-05
1.8218e-06
2.02869e-06
2.13524e-06
1.10069e-05
1.66375e-06
1.97015e-06
1.96576e-06
1.12043e-05
1.55136e-06
1.89846e-06
1.79094e-06
1.1403e-05
1.45731e-06
1.81544e-06
1.61878e-06
1.15962e-05
1.39881e-06
1.71864e-06
1.47713e-06
1.17849e-05
1.29926e-06
1.62869e-06
1.37623e-06
1.19465e-05
1.2873e-06
1.5728e-06
1.23587e-06
1.21334e-05
1.33625e-06
1.57234e-06
1.31539e-06
1.22604e-05
1.38623e-06
1.54901e-06
1.54937e-06
1.23589e-05
1.57784e-06
1.79419e-06
1.57304e-06
1.24418e-05
1.8676e-06
1.92723e-06
2.53563e-06
1.25892e-05
2.6415e-06
2.79669e-06
4.38051e-06
1.24654e-05
3.27958e-06
2.80962e-06
5.57585e-06
1.26187e-05
4.02363e-06
4.79915e-06
8.2731e-06
1.24773e-05
5.67047e-06
6.1273e-06
1.27585e-05
1.22903e-05
8.25161e-06
6.63683e-06
1.68958e-05
1.23348e-05
8.55446e-06
1.03305e-05
2.51057e-05
1.21033e-05
1.41403e-05
1.2749e-05
3.42786e-05
1.18415e-05
1.12633e-05
1.45524e-05
3.58953e-05
1.18605e-05
2.46411e-05
1.85851e-05
4.71379e-05
1.18722e-05
2.49254e-05
2.26284e-05
5.36447e-05
1.17403e-05
2.24669e-05
2.62549e-05
5.75849e-05
1.23974e-05
3.37102e-05
3.25191e-05
6.72023e-05
1.16199e-05
3.66692e-05
3.4804e-05
6.80198e-05
1.44696e-05
4.15158e-05
4.34381e-05
7.74514e-05
1.25546e-05
4.87498e-05
4.75423e-05
7.66246e-05
1.73798e-05
5.57854e-05
5.6594e-05
8.82769e-05
1.71218e-05
5.38031e-05
5.33274e-05
8.63096e-05
1.75357e-05
7.07623e-05
7.11324e-05
9.25713e-05
2.26299e-05
7.0868e-05
7.23799e-05
9.81304e-05
2.37864e-05
7.97222e-05
7.84986e-05
9.94561e-05
2.63696e-05
8.33038e-05
8.35722e-05
0.000104637
3.06444e-05
9.12676e-05
8.88793e-05
0.000108012
3.53723e-05
9.36929e-05
9.62479e-05
0.000111619
3.89829e-05
0.000104173
0.000102894
0.000116164
4.52664e-05
0.000108906
0.00010737
0.00011929
5.03119e-05
0.000107312
0.00011311
0.000122791
5.55274e-05
0.000123004
0.000117665
0.000128179
6.20488e-05
0.000122575
0.000126056
0.000129368
6.85632e-05
0.000126847
0.000125278
0.000133385
7.53902e-05
0.000132787
0.000133188
0.000137894
8.06046e-05
0.000138414
0.000140052
0.000139042
9.23609e-05
0.000142105
0.000142084
0.000144379
9.38046e-05
0.000148006
0.000145628
0.000147191
0.000106458
0.000151501
0.000150505
0.000149685
0.000106851
0.000153484
0.000155149
0.000150955
0.000123131
0.000166686
0.000167179
0.000161707
0.000133072
0.000167558
0.000167918
0.000160475
0.000123774
0.000156676
0.000156852
0.000150697
0.000113249
0.000156131
0.000155973
0.000152189
0.00014553
0.000179161
0.00017908
0.000168427
0.000181003
0.000197483
0.000197445
0.000182827
0.000199766
0.00020537
0.000205396
0.000188228
0.000204382
0.000200521
0.000200606
0.000183647
0.000164911
0.00017689
0.000176911
0.000165848
0.000127841
0.000157204
0.000157211
0.00015009
0.000111213
0.000152472
0.00015248
0.000147699
0.000131126
0.00016997
0.000169976
0.000159664
0.000169082
0.000186527
0.000186529
0.000171161
0.000197965
0.000197909
0.000197915
0.000179011
0.000214006
0.000203719
0.000203729
0.000182986
0.000221399
0.000206292
0.000206301
0.000184756
0.000224619
0.000207348
0.000207355
0.000185458
0.00022562
0.000207594
0.000207602
0.00018567
0.000225709
0.000207561
0.000207569
0.000185668
0.000225838
0.000207625
0.000207632
0.000185673
0.000225876
0.000207645
0.000207653
0.000185752
0.000225824
0.000207587
0.000207595
0.000185615
0.00022585
0.000207634
0.000207641
0.000185728
0.000225835
0.000207603
0.000207611
0.000185671
0.000225842
0.000207619
0.000207628
0.000185676
0.000225841
0.000207617
0.000207624
0.000185716
0.000225839
0.000207613
0.000207621
0.000185659
0.000225838
0.000207616
0.000207623
0.000185707
0.000225837
0.000207614
0.000207622
0.000185687
0.000225836
0.000207612
0.000207619
0.000185673
0.000225836
0.000207615
0.000207622
0.000185718
0.000225836
0.000207612
0.000207621
0.000185639
0.000225836
0.000207615
0.000207623
0.000185738
0.000225837
0.000207616
0.000207624
0.000185678
0.000225838
0.000207619
0.000207626
0.000185652
0.00022584
0.000207624
0.000207632
0.000185705
0.000225806
0.00020754
0.000207548
0.000185737
0.000227598
0.000208659
0.00020867
0.000188948
2.32483e-06
2.50018e-06
2.08816e-06
2.28831e-06
2.56531e-06
2.55769e-06
9.35718e-06
9.16485e-06
9.26192e-06
9.38808e-06
2.16702e-06
2.54375e-06
2.31932e-06
2.40282e-06
2.60736e-06
2.29526e-06
2.3172e-06
2.32106e-06
2.34552e-06
1.68507e-06
2.33902e-06
1.69798e-06
2.28148e-06
2.2322e-06
2.40263e-06
2.38699e-06
2.39142e-06
2.36924e-06
2.38681e-06
2.18294e-06
2.3692e-06
2.3163e-06
2.30459e-06
2.39806e-06
2.24937e-06
2.43715e-06
2.27175e-06
2.30193e-06
2.31299e-06
2.33909e-06
1.7059e-06
2.33735e-06
1.72691e-06
2.23012e-06
2.19823e-06
2.39115e-06
2.36763e-06
2.39332e-06
2.36603e-06
2.36655e-06
2.18003e-06
2.36403e-06
2.2977e-06
2.29879e-06
2.45657e-06
2.24189e-06
2.53427e-06
2.26914e-06
2.29034e-06
2.29881e-06
2.33709e-06
1.73315e-06
2.33334e-06
1.75457e-06
2.19605e-06
2.17577e-06
2.39334e-06
2.36575e-06
2.39333e-06
2.36512e-06
2.36286e-06
2.20469e-06
2.35925e-06
2.28135e-06
2.28639e-06
2.56519e-06
2.22565e-06
2.66158e-06
2.27455e-06
2.27728e-06
2.28559e-06
2.33227e-06
1.76358e-06
2.33459e-06
1.79604e-06
2.16513e-06
2.14934e-06
2.39126e-06
2.36347e-06
2.38968e-06
2.36207e-06
2.35634e-06
2.20949e-06
2.35444e-06
2.26519e-06
2.27282e-06
2.69368e-06
2.20549e-06
2.79806e-06
2.28531e-06
2.26615e-06
2.27506e-06
2.33558e-06
1.81103e-06
2.33505e-06
1.86846e-06
2.13334e-06
2.12591e-06
2.38853e-06
2.36126e-06
2.38418e-06
2.35909e-06
2.35385e-06
2.20827e-06
2.34865e-06
2.25231e-06
2.25716e-06
2.83521e-06
2.2016e-06
2.97502e-06
2.30579e-06
2.25608e-06
2.25927e-06
2.33239e-06
1.88826e-06
2.31801e-06
1.94538e-06
2.10972e-06
2.11639e-06
2.38199e-06
2.35678e-06
2.36877e-06
2.33954e-06
2.34492e-06
2.25531e-06
2.3387e-06
2.237e-06
2.23233e-06
3.03498e-06
2.19023e-06
3.23416e-06
2.3422e-06
2.23833e-06
2.22976e-06
2.31083e-06
1.96264e-06
2.28606e-06
1.99794e-06
2.10143e-06
2.1061e-06
2.36351e-06
2.33222e-06
2.34121e-06
2.30469e-06
2.33705e-06
2.25347e-06
2.32439e-06
2.21096e-06
2.1931e-06
3.30397e-06
2.17372e-06
3.51152e-06
2.37842e-06
2.2076e-06
2.19154e-06
2.27562e-06
2.00604e-06
2.24397e-06
2.0177e-06
2.09218e-06
2.07847e-06
2.33128e-06
2.29271e-06
2.30001e-06
2.25617e-06
2.31622e-06
2.21237e-06
2.28212e-06
2.17066e-06
2.14853e-06
3.55837e-06
2.14807e-06
3.62951e-06
2.39023e-06
2.16933e-06
2.14357e-06
2.23131e-06
2.01649e-06
2.19321e-06
2.01714e-06
2.06629e-06
2.05402e-06
2.28554e-06
2.24174e-06
2.24388e-06
2.19903e-06
2.26718e-06
2.18091e-06
2.22447e-06
2.12661e-06
2.10092e-06
3.64561e-06
2.12079e-06
3.68547e-06
2.37608e-06
2.12855e-06
2.07827e-06
2.17618e-06
2.0151e-06
2.1299e-06
2.00291e-06
2.04468e-06
2.00608e-06
2.2291e-06
2.18477e-06
2.17942e-06
2.13861e-06
2.2106e-06
2.05167e-06
2.16723e-06
2.08721e-06
2.04087e-06
3.67764e-06
2.08779e-06
3.52719e-06
2.31711e-06
2.06576e-06
2.00211e-06
2.11297e-06
1.99747e-06
2.06222e-06
1.97242e-06
1.99358e-06
1.9059e-06
2.16024e-06
2.12109e-06
2.10607e-06
2.07167e-06
2.15058e-06
1.8648e-06
2.09817e-06
2.02879e-06
1.96623e-06
3.43407e-06
2.04217e-06
3.09085e-06
2.15976e-06
1.98725e-06
1.91538e-06
2.04439e-06
1.96347e-06
1.99569e-06
1.92894e-06
1.88824e-06
1.76945e-06
2.08706e-06
2.05298e-06
2.02594e-06
1.99718e-06
2.07596e-06
1.69814e-06
2.01116e-06
1.95153e-06
1.87804e-06
2.96993e-06
1.98528e-06
2.6209e-06
1.99288e-06
1.89654e-06
1.81091e-06
1.97696e-06
1.91447e-06
1.91886e-06
1.87211e-06
1.74725e-06
1.65268e-06
2.00488e-06
1.97706e-06
1.9345e-06
1.91598e-06
1.98772e-06
1.57304e-06
1.92075e-06
1.85986e-06
1.77627e-06
2.49504e-06
1.9174e-06
2.1169e-06
1.81836e-06
1.787e-06
1.68869e-06
1.89718e-06
1.857e-06
1.8289e-06
1.81157e-06
1.6316e-06
1.55332e-06
1.9096e-06
1.89301e-06
1.83313e-06
1.82541e-06
1.89871e-06
1.4763e-06
1.82391e-06
1.75346e-06
1.66823e-06
1.99577e-06
1.83907e-06
1.6916e-06
1.65279e-06
1.6583e-06
1.56435e-06
1.80426e-06
1.79244e-06
1.73584e-06
1.70582e-06
1.53058e-06
1.46778e-06
1.80767e-06
1.80032e-06
1.72825e-06
1.72828e-06
1.7964e-06
1.40272e-06
1.73581e-06
1.63894e-06
1.55376e-06
1.6051e-06
1.74663e-06
1.44753e-06
1.51147e-06
1.5306e-06
1.44904e-06
1.71023e-06
1.68935e-06
1.65107e-06
1.59244e-06
1.44788e-06
1.33473e-06
1.70244e-06
1.70218e-06
1.63708e-06
1.6338e-06
1.70165e-06
1.30764e-06
1.64721e-06
1.52298e-06
1.43662e-06
1.40683e-06
1.65949e-06
1.32708e-06
1.39383e-06
1.42511e-06
1.35491e-06
1.62962e-06
1.5628e-06
1.57661e-06
1.58065e-06
1.30132e-06
1.33791e-06
1.61474e-06
1.60722e-06
1.55478e-06
1.57802e-06
1.6383e-06
1.31995e-06
1.51819e-06
1.41787e-06
1.33739e-06
1.32604e-06
1.58699e-06
1.22101e-06
1.26909e-06
1.34309e-06
1.34232e-06
1.56237e-06
1.54649e-06
1.5568e-06
1.5694e-06
1.29934e-06
1.27173e-06
1.53801e-06
1.5622e-06
1.52908e-06
1.50609e-06
1.52849e-06
1.2912e-06
1.54095e-06
1.3452e-06
1.25663e-06
1.21487e-06
1.52816e-06
1.26533e-06
1.35025e-06
1.36141e-06
1.42685e-06
1.54179e-06
1.60621e-06
1.61459e-06
1.59979e-06
1.3644e-06
1.37908e-06
1.5109e-06
1.56669e-06
1.57748e-06
1.51395e-06
1.48999e-06
1.38977e-06
1.61597e-06
1.30398e-06
1.38797e-06
1.23382e-06
1.52906e-06
1.36297e-06
1.44458e-06
1.55739e-06
1.65787e-06
1.63632e-06
1.57812e-06
1.72396e-06
1.78531e-06
1.3688e-06
1.6691e-06
1.60854e-06
1.50957e-06
1.65248e-06
1.7401e-06
1.6267e-06
1.46655e-06
1.58537e-06
1.3206e-06
1.93749e-06
1.37517e-06
1.71941e-06
1.36622e-06
1.45899e-06
1.78615e-06
2.37396e-06
1.76682e-06
1.91038e-06
2.10682e-06
2.06183e-06
1.85298e-06
2.47396e-06
1.70719e-06
1.81044e-06
2.02311e-06
1.82817e-06
1.75281e-06
1.92595e-06
2.00615e-06
1.97976e-06
2.30208e-06
1.52253e-06
1.88296e-06
1.75482e-06
2.60231e-06
2.61674e-06
3.13342e-06
2.12118e-06
2.01766e-06
2.44079e-06
2.63718e-06
2.40207e-06
3.48234e-06
2.01641e-06
1.90432e-06
2.42398e-06
2.63139e-06
1.9427e-06
2.32537e-06
2.51968e-06
2.30766e-06
4.17538e-06
1.72667e-06
2.62234e-06
2.27549e-06
3.63231e-06
3.84188e-06
5.31963e-06
2.91069e-06
3.086e-06
3.02044e-06
3.17719e-06
4.65455e-06
5.0834e-06
2.82294e-06
2.77937e-06
2.94481e-06
2.66015e-06
2.58263e-06
2.86715e-06
3.09001e-06
4.64688e-06
4.34162e-06
2.37209e-06
2.66528e-06
2.887e-06
4.68311e-06
4.91715e-06
1.1714e-05
2.88383e-06
3.00135e-06
4.94686e-06
4.94387e-06
4.69425e-06
9.59239e-06
2.82867e-06
2.87467e-06
4.884e-06
4.69117e-06
3.36821e-06
3.57466e-06
3.989e-06
4.40691e-06
1.05592e-05
3.16791e-06
4.72839e-06
3.79739e-06
7.94606e-06
1.25154e-05
8.82068e-06
5.2111e-06
5.17459e-06
4.56328e-06
4.75727e-06
1.01843e-05
1.28965e-05
5.2021e-06
4.659e-06
4.53041e-06
5.02562e-06
4.31308e-06
5.84563e-06
5.29887e-06
1.12077e-05
9.38237e-06
3.98163e-06
4.88801e-06
5.49563e-06
1.18152e-05
8.35175e-06
2.02019e-05
5.10768e-06
4.8062e-06
7.02367e-06
7.91529e-06
1.27956e-05
1.72388e-05
4.91376e-06
6.24275e-06
6.92128e-06
6.76677e-06
5.52747e-06
6.53776e-06
7.00871e-06
1.13801e-05
1.83222e-05
5.84341e-06
6.84384e-06
6.27104e-06
1.61703e-05
2.03375e-05
2.64044e-05
6.96701e-06
9.12193e-06
1.02579e-05
9.32017e-06
2.15416e-05
2.46651e-05
6.9409e-06
6.70357e-06
1.02867e-05
9.74585e-06
7.83489e-06
8.90394e-06
8.53375e-06
1.75038e-05
2.69394e-05
7.39548e-06
1.00634e-05
8.82878e-06
2.5266e-05
2.91171e-05
2.76941e-05
1.08487e-05
8.88537e-06
1.03561e-05
1.35159e-05
2.32588e-05
3.82474e-05
1.083e-05
9.8319e-06
1.02891e-05
1.14146e-05
9.20405e-06
1.33404e-05
1.19415e-05
2.91777e-05
2.77898e-05
8.85131e-06
1.12355e-05
1.23428e-05
3.11649e-05
2.71043e-05
4.22617e-05
1.13742e-05
1.45482e-05
1.56574e-05
1.26304e-05
4.12545e-05
2.77922e-05
1.12638e-05
1.2506e-05
1.59589e-05
1.46032e-05
1.19437e-05
1.20911e-05
1.44252e-05
2.96347e-05
4.00801e-05
1.26762e-05
1.42394e-05
1.31576e-05
3.46325e-05
4.2519e-05
3.93384e-05
1.53694e-05
1.16161e-05
1.58581e-05
2.19196e-05
2.54102e-05
5.79937e-05
1.57493e-05
1.47486e-05
1.54907e-05
1.66405e-05
1.61836e-05
2.17496e-05
1.71723e-05
3.97759e-05
4.17655e-05
1.53009e-05
1.68245e-05
1.77772e-05
4.709e-05
4.27565e-05
5.57919e-05
1.91458e-05
2.55012e-05
2.3519e-05
2.68628e-05
6.36643e-05
6.10525e-05
1.87938e-05
1.86416e-05
2.37132e-05
2.29118e-05
1.70178e-05
2.56343e-05
2.32647e-05
4.45329e-05
5.36103e-05
1.75176e-05
2.18465e-05
2.24353e-05
5.07212e-05
5.54657e-05
5.41519e-05
2.309e-05
2.55723e-05
2.30614e-05
2.22751e-05
5.97476e-05
5.1363e-05
2.32362e-05
2.28136e-05
2.36938e-05
2.40174e-05
2.46503e-05
2.21289e-05
2.39171e-05
5.42403e-05
5.72822e-05
2.42525e-05
2.50657e-05
2.41906e-05
5.74843e-05
5.76524e-05
6.64451e-05
2.62041e-05
2.30179e-05
3.33057e-05
3.25284e-05
5.25161e-05
6.65987e-05
2.73415e-05
2.61182e-05
3.20066e-05
3.29778e-05
2.45499e-05
3.29382e-05
3.25471e-05
5.90852e-05
6.45617e-05
2.47573e-05
3.19731e-05
3.17546e-05
6.53605e-05
6.61456e-05
6.78333e-05
3.33627e-05
3.26883e-05
3.18909e-05
3.44874e-05
6.75505e-05
7.00647e-05
3.14295e-05
3.35369e-05
3.19211e-05
3.21013e-05
3.33274e-05
3.37759e-05
3.29911e-05
6.5941e-05
6.70867e-05
3.28125e-05
3.23315e-05
3.37215e-05
6.7319e-05
7.08448e-05
7.62197e-05
3.42908e-05
3.7902e-05
4.46313e-05
4.23696e-05
7.09469e-05
7.36756e-05
3.63943e-05
3.30113e-05
4.52636e-05
4.35929e-05
3.41208e-05
4.19733e-05
4.2921e-05
6.77785e-05
7.60572e-05
3.47357e-05
4.29385e-05
4.27175e-05
7.66197e-05
7.60057e-05
7.59327e-05
4.52088e-05
4.17696e-05
4.29236e-05
4.39646e-05
7.40877e-05
7.97493e-05
4.53255e-05
4.50556e-05
4.23756e-05
4.44167e-05
4.52725e-05
4.44937e-05
4.50138e-05
7.70632e-05
7.89647e-05
4.50341e-05
4.49061e-05
4.48268e-05
7.62409e-05
7.79714e-05
8.70802e-05
4.30461e-05
4.85164e-05
5.62703e-05
5.6313e-05
8.17091e-05
8.44375e-05
4.22251e-05
4.61712e-05
5.63286e-05
5.58952e-05
4.42601e-05
5.58953e-05
5.37625e-05
8.04375e-05
8.47384e-05
4.40652e-05
5.59501e-05
5.36411e-05
8.68985e-05
8.74825e-05
8.51377e-05
5.87985e-05
5.62948e-05
5.85015e-05
5.36508e-05
8.42665e-05
8.41765e-05
5.91077e-05
5.70317e-05
5.89636e-05
5.48378e-05
5.79887e-05
5.32257e-05
6.11088e-05
8.49962e-05
8.40082e-05
5.793e-05
5.39015e-05
6.12605e-05
8.68045e-05
8.52432e-05
9.18508e-05
5.73708e-05
5.37947e-05
6.10789e-05
6.70747e-05
8.55855e-05
9.47634e-05
5.77989e-05
5.41046e-05
6.06836e-05
6.65806e-05
6.00781e-05
6.74051e-05
5.87263e-05
8.4941e-05
9.49729e-05
6.0257e-05
6.70844e-05
5.85428e-05
9.004e-05
9.42925e-05
9.73474e-05
6.66735e-05
7.06749e-05
7.31879e-05
7.25054e-05
9.572e-05
9.5283e-05
6.6503e-05
7.07744e-05
7.35803e-05
7.34793e-05
6.38363e-05
7.19546e-05
7.39848e-05
9.62144e-05
9.55947e-05
6.37379e-05
7.34461e-05
7.37974e-05
9.79928e-05
9.73346e-05
9.87092e-05
7.2751e-05
7.14667e-05
7.62497e-05
7.44324e-05
9.51245e-05
9.97768e-05
7.30463e-05
7.24292e-05
7.54198e-05
7.28965e-05
7.42985e-05
7.48585e-05
7.53914e-05
9.52762e-05
9.92967e-05
7.41625e-05
7.32357e-05
7.55838e-05
9.8578e-05
0.000100021
0.000103295
7.82637e-05
7.88937e-05
8.18045e-05
8.38807e-05
0.000101753
0.000103829
7.80053e-05
7.8325e-05
8.23394e-05
8.48489e-05
7.71289e-05
8.41682e-05
8.29552e-05
0.000101468
0.000104296
7.67639e-05
8.41214e-05
8.25885e-05
0.000103768
0.000103837
0.000107296
8.32688e-05
8.38394e-05
8.88021e-05
8.69687e-05
0.000103752
0.000106408
8.34179e-05
8.42513e-05
8.82462e-05
8.72347e-05
8.4172e-05
8.73483e-05
8.8457e-05
0.000104151
0.000105716
8.47888e-05
8.63675e-05
8.90107e-05
0.000107288
0.0001083
0.00011117
9.01769e-05
8.92082e-05
9.45885e-05
9.56056e-05
0.000108065
0.000111399
8.99073e-05
8.92725e-05
9.50505e-05
9.3807e-05
9.0587e-05
9.3885e-05
9.51982e-05
0.000107195
0.000111542
8.9786e-05
9.50697e-05
9.35385e-05
0.000110972
0.000111869
0.000114828
9.62167e-05
9.67344e-05
0.000100093
9.96185e-05
0.000111712
0.00011523
9.66558e-05
9.5778e-05
0.000100178
0.000101251
9.56403e-05
0.000100532
9.94459e-05
0.000112106
0.000115406
9.53355e-05
0.000100939
0.000101592
0.000115121
0.000115455
0.000119034
0.000101339
0.000101866
0.000106718
0.000109082
0.000116643
0.000120085
0.000101246
0.000102385
0.000106498
0.000106987
0.000101972
0.00010939
0.000107646
0.000116353
0.000119241
0.000103358
0.000106676
0.000105895
0.000119005
0.00012001
0.000122519
0.000108401
0.000109603
0.000111549
0.000107983
0.000120085
0.000119168
0.000108387
0.000108749
0.000111945
0.00011191
0.000108073
0.000105982
0.000110145
0.000119751
0.000122315
0.000106287
0.000111506
0.000110684
0.000121645
0.0001229
0.000126002
0.000112495
0.000109112
0.000116833
0.000119224
0.000120016
0.00012875
0.00011279
0.000112548
0.000116637
0.00011612
0.000112081
0.000120585
0.000118844
0.000122997
0.000126007
0.00011313
0.000116213
0.000118679
0.000127649
0.000126861
0.000129684
0.000118521
0.000121268
0.00012207
0.00012177
0.000129709
0.000129632
0.000118223
0.000117983
0.000121944
0.000123889
0.000120422
0.000123314
0.000121991
0.000126809
0.000131191
0.000119629
0.000124482
0.000121741
0.000129077
0.000130215
0.000133149
0.000123065
0.000122312
0.00012689
0.000126796
0.000129468
0.000132578
0.000123175
0.000125527
0.000127383
0.000126727
0.000122289
0.000125126
0.000125458
0.000131874
0.000132093
0.000122707
0.000125864
0.000126071
0.000132473
0.000133811
0.000136132
0.000128315
0.000128026
0.000131671
0.000131313
0.000133534
0.00013603
0.000128605
0.000126375
0.000131195
0.000128983
0.00012744
0.000131278
0.000133311
0.000131938
0.000134928
0.000127489
0.000130247
0.000132872
0.000137461
0.000136532
0.000139784
0.000132312
0.000132636
0.000136029
0.000136794
0.000136645
0.000140326
0.000131799
0.00013109
0.000136013
0.000138042
0.000133957
0.000137038
0.000134736
0.000136382
0.000141742
0.000134018
0.000138968
0.000135554
0.000138548
0.000140852
0.000143863
0.000138286
0.000138164
0.000142383
0.000141217
0.00014098
0.000142898
0.000138451
0.000140209
0.000142945
0.000143736
0.000136299
0.000141592
0.000142245
0.000142368
0.000143716
0.000136769
0.000142076
0.000141816
0.000143725
0.000143918
0.000145428
0.00014229
0.000141711
0.000144454
0.00014553
0.00014323
0.000146487
0.000142891
0.000143658
0.000144226
0.000144092
0.000142999
0.000145837
0.000145515
0.000143818
0.000144902
0.000142666
0.000143626
0.000145535
0.000146343
0.000146662
0.000150403
0.000146972
0.000147738
0.000152414
0.000151419
0.000147554
0.000149718
0.000146642
0.000145995
0.000151932
0.000150276
0.000147552
0.000151674
0.000151844
0.000145743
0.000148992
0.0001475
0.000150416
0.000151334
0.000149802
0.000150343
0.000149543
0.000152544
0.000151236
0.000151397
0.000150689
0.000149527
0.000149524
0.000152057
0.00015029
0.000151246
0.000151753
0.000151813
0.000150789
0.000150857
0.000148988
0.000150483
0.000151234
0.000152096
0.000150939
0.000149511
0.000150718
0.000160584
0.00015267
0.000153599
0.000164373
0.00016491
0.000151145
0.000161082
0.000153168
0.000154878
0.000164508
0.000165248
0.000152899
0.000164815
0.000164556
0.00015213
0.000161387
0.000153846
0.000165432
0.000164851
0.000160804
0.000161498
0.000161171
0.000166409
0.000166784
0.000168815
0.000169042
0.000161932
0.000161318
0.000166468
0.000167001
0.000168829
0.000169174
0.000166573
0.00016893
0.000169003
0.000162172
0.000161482
0.000166723
0.00016939
0.00016902
0.000161385
0.000160299
0.000151501
0.000167733
0.000167646
0.000158927
0.000158518
0.000160343
0.00015113
0.000167756
0.000167723
0.00015894
0.000158582
0.000167907
0.00015847
0.000158853
0.000160492
0.000151208
0.000167776
0.000158683
0.00015872
0.000151374
0.00015084
0.000150707
0.000157142
0.000156726
0.000153801
0.000153509
0.000150455
0.000150599
0.000157143
0.000156769
0.000153751
0.000153449
0.000157013
0.000153436
0.000153572
0.000150524
0.00015049
0.000156903
0.000153477
0.000153554
0.000150571
0.000152282
0.000165397
0.000156216
0.000156213
0.000173082
0.000173246
0.000152271
0.000165576
0.000156074
0.000156011
0.000172983
0.000173101
0.000155919
0.000173235
0.000173045
0.000152131
0.000165478
0.000156043
0.000173142
0.000173098
0.000165448
0.000168367
0.000181121
0.000178972
0.00017916
0.000193836
0.000194027
0.000168561
0.000181308
0.000178886
0.000179039
0.000193782
0.00019397
0.000178982
0.000194051
0.000193925
0.000168475
0.00018128
0.000179014
0.000193998
0.000193909
0.000181209
0.000182735
0.000187964
0.000197282
0.000197456
0.000203795
0.000203895
0.000182911
0.000188058
0.000197238
0.000197421
0.000203775
0.000203923
0.000197385
0.000203938
0.000203901
0.000182894
0.000188099
0.000197358
0.000203946
0.000203862
0.000188044
0.000188162
0.000185612
0.000205257
0.000205325
0.000204953
0.000204731
0.000188228
0.000185474
0.000205245
0.000205373
0.000205008
0.000204902
0.000205351
0.0002048
0.000204889
0.000188281
0.000185572
0.000205312
0.000204917
0.000204855
0.000185528
0.000183728
0.000168663
0.000200651
0.000200463
0.000183466
0.000183334
0.000183597
0.000168558
0.000200693
0.000200595
0.000183492
0.00018339
0.000200588
0.000183364
0.000183411
0.000183677
0.000168592
0.000200557
0.000183394
0.00018339
0.0001686
0.000165902
0.000151156
0.000176975
0.000176863
0.000160691
0.000160632
0.00016581
0.000151115
0.000176997
0.000176901
0.0001607
0.00016064
0.000176926
0.000160647
0.000160662
0.000165833
0.00015112
0.000176909
0.000160655
0.000160653
0.00015113
0.000150112
0.000146859
0.000157237
0.00015719
0.000152766
0.000152736
0.000150079
0.000146851
0.00015724
0.000157194
0.000152761
0.000152735
0.000157212
0.000152745
0.000152747
0.00015008
0.000146853
0.000157204
0.000152752
0.000152739
0.000146847
0.000147708
0.000157667
0.000152486
0.000152464
0.000165374
0.000165362
0.000147703
0.000157662
0.000152475
0.000152463
0.000165361
0.000165363
0.000152469
0.000165371
0.000165357
0.000147708
0.000157666
0.000152461
0.000165378
0.000165351
0.000157654
0.000159677
0.000169534
0.000169975
0.000169962
0.000182758
0.000182742
0.000159672
0.000169528
0.000169965
0.000169962
0.000182757
0.000182743
0.000169958
0.00018276
0.000182748
0.000159675
0.000169529
0.000169954
0.000182763
0.000182748
0.000169525
0.00017117
0.000178133
0.000186524
0.000186506
0.000195639
0.000195617
0.000171164
0.000178123
0.000186525
0.000186508
0.000195647
0.000195624
0.000186515
0.000195647
0.000195629
0.000171165
0.000178128
0.000186517
0.000195651
0.000195637
0.000178117
0.000179027
0.000182635
0.000197901
0.000197878
0.000202655
0.000202632
0.000179017
0.000182625
0.000197911
0.000197886
0.000202668
0.000202642
0.00019789
0.000202668
0.000202645
0.000179022
0.000182632
0.000197899
0.000202677
0.000202658
0.000182618
0.000183001
0.000184673
0.000203705
0.000203682
0.000205815
0.000205794
0.000182992
0.000184667
0.000203718
0.000203693
0.00020583
0.000205804
0.000203696
0.000205832
0.000205808
0.000183
0.000184674
0.00020371
0.000205842
0.000205824
0.000184662
0.000184766
0.000185521
0.000206274
0.000206254
0.00020716
0.000207141
0.00018476
0.000185515
0.000206289
0.000206263
0.000207176
0.000207148
0.000206266
0.00020718
0.000207153
0.000184768
0.000185521
0.000206283
0.000207188
0.000207171
0.000185509
0.000185469
0.000185799
0.000207328
0.000207309
0.000207559
0.000207539
0.000185463
0.000185793
0.000207343
0.000207315
0.000207575
0.000207546
0.000207321
0.000207578
0.000207551
0.000185469
0.000185798
0.000207339
0.000207585
0.00020757
0.000185787
0.000185681
0.00018583
0.000207576
0.000207555
0.000207557
0.000207535
0.000185674
0.000185821
0.000207592
0.000207563
0.000207573
0.000207544
0.000207568
0.000207574
0.000207548
0.00018568
0.000185828
0.000207586
0.000207583
0.000207566
0.000185814
0.000185684
0.000185775
0.000207543
0.000207522
0.000207565
0.000207546
0.000185674
0.000185772
0.000207559
0.00020753
0.000207581
0.000207553
0.000207535
0.000207585
0.00020756
0.000185683
0.000185775
0.000207553
0.000207592
0.000207578
0.000185768
0.00018568
0.000185908
0.000207605
0.000207586
0.000207641
0.00020762
0.000185677
0.0001859
0.000207622
0.000207593
0.000207658
0.000207629
0.000207599
0.00020766
0.000207632
0.000185681
0.000185906
0.000207617
0.000207667
0.00020765
0.000185892
0.000185769
0.000185769
0.000207627
0.000207605
0.000207571
0.000207551
0.00018576
0.000185759
0.000207644
0.000207614
0.000207587
0.000207558
0.000207616
0.00020759
0.000207563
0.000185767
0.000185767
0.000207635
0.000207598
0.000207582
0.000185752
0.000185629
0.00018585
0.000207568
0.000207548
0.000207609
0.00020759
0.00018562
0.000185846
0.000207585
0.000207556
0.000207626
0.000207597
0.000207561
0.000207629
0.000207602
0.000185628
0.000185851
0.000207579
0.000207636
0.000207621
0.000185843
0.000185734
0.000185842
0.000207614
0.000207594
0.00020759
0.000207569
0.00018573
0.000185832
0.00020763
0.000207602
0.000207606
0.000207577
0.000207607
0.000207609
0.00020758
0.000185735
0.000185838
0.000207625
0.000207616
0.000207598
0.000185818
0.000185694
0.000185789
0.000207584
0.000207564
0.000207589
0.00020757
0.000185684
0.000185784
0.000207601
0.000207572
0.000207606
0.000207578
0.000207575
0.000207608
0.000207583
0.000185691
0.000185791
0.000207593
0.000207618
0.000207603
0.000185785
0.000185676
0.000185882
0.0002076
0.00020758
0.000207602
0.000207581
0.000185672
0.000185874
0.000207616
0.000207588
0.000207618
0.000207589
0.000207593
0.000207622
0.000207593
0.000185679
0.000185879
0.000207612
0.000207629
0.00020761
0.000185861
0.000185741
0.000185767
0.000207597
0.000207576
0.000207585
0.000207565
0.000185732
0.000185762
0.000207614
0.000207585
0.000207601
0.000207573
0.000207588
0.000207604
0.000207577
0.000185738
0.000185769
0.000207606
0.000207613
0.000207597
0.000185764
0.000185653
0.000185884
0.000207593
0.000207574
0.0002076
0.00020758
0.000185651
0.000185875
0.000207609
0.000207581
0.000207617
0.000207588
0.000207587
0.000207621
0.000207591
0.000185657
0.000185881
0.000207606
0.000207628
0.000207609
0.000185857
0.000185739
0.000185779
0.000207597
0.000207576
0.000207589
0.00020757
0.000185728
0.000185776
0.000207613
0.000207584
0.000207606
0.000207578
0.000207587
0.000207608
0.000207583
0.000185734
0.000185783
0.000207605
0.000207617
0.000207603
0.000185789
0.000185669
0.000185867
0.000207594
0.000207574
0.000207592
0.000207572
0.00018567
0.000185855
0.00020761
0.000207583
0.000207609
0.00020758
0.000207589
0.000207613
0.000207585
0.000185677
0.000185859
0.000207608
0.00020762
0.000207603
0.000185823
0.000185715
0.000185813
0.000207592
0.000207572
0.000207591
0.000207571
0.000185703
0.000185808
0.000207609
0.00020758
0.000207608
0.00020758
0.000207584
0.000207611
0.000207585
0.000185707
0.000185818
0.000207603
0.000207619
0.000207604
0.000185827
0.000185708
0.000185811
0.000207594
0.000207574
0.00020759
0.00020757
0.000185702
0.000185806
0.000207611
0.000207583
0.000207607
0.000207578
0.000207588
0.000207609
0.000207581
0.000185713
0.000185807
0.000207606
0.000207617
0.000207601
0.000185783
0.000185662
0.000185876
0.000207593
0.000207573
0.000207591
0.000207571
0.000185657
0.000185866
0.00020761
0.000207581
0.000207607
0.000207579
0.000207585
0.00020761
0.000207584
0.000185659
0.000185875
0.000207604
0.000207618
0.000207602
0.000185866
0.000185751
0.000185789
0.000207595
0.000207575
0.00020759
0.00020757
0.000185745
0.000185775
0.000207612
0.000207583
0.000207606
0.000207578
0.000207588
0.000207609
0.000207582
0.000185751
0.000185785
0.000207607
0.000207617
0.000207601
0.000185778
0.000185689
0.000185807
0.000207597
0.000207577
0.000207589
0.00020757
0.000185669
0.000185815
0.000207614
0.000207585
0.000207606
0.000207578
0.000207589
0.00020761
0.000207583
0.000185684
0.000185813
0.000207608
0.000207617
0.000207601
0.000185795
0.000185662
0.00018587
0.000207599
0.000207579
0.000207592
0.000207573
0.000185666
0.000185867
0.000207615
0.000207587
0.000207608
0.00020758
0.000207592
0.000207612
0.000207585
0.000185667
0.000185872
0.000207611
0.00020762
0.000207603
0.000185853
0.000185725
0.000185859
0.000207604
0.000207585
0.000207644
0.000207624
0.000185734
0.000185823
0.000207621
0.000207592
0.000207659
0.000207632
0.000207597
0.000207662
0.000207637
0.000185736
0.000185838
0.000207616
0.000207671
0.000207656
0.000185852
0.000185746
0.000187135
0.000207521
0.000207501
0.000210108
0.000210092
0.000185715
0.000187122
0.000207537
0.000207508
0.000210124
0.000210102
0.000207512
0.000210123
0.000210104
0.00018573
0.000187134
0.000207531
0.000210134
0.000210121
0.00018713
0.000188953
0.000208648
0.000208632
0.000188938
0.000208662
0.000208642
0.000227591
0.000227605
0.000227601
0.000208642
0.00018895
0.000208658
3.00584e-05
3.54518e-06
1.86306e-05
1.86178e-05
6.35955e-07
2.16662e-06
1.57818e-06
9.68724e-06
4.94332e-07
2.39699e-06
9.71366e-06
1.58322e-06
2.31702e-06
1.85649e-06
1.61747e-06
1.02341e-06
1.34998e-05
9.70487e-07
1.52747e-05
1.16511e-05
1.29446e-05
1.0894e-06
1.35233e-05
1.0169e-06
1.53081e-05
8.82769e-06
8.86015e-06
8.99869e-06
8.75402e-06
8.65902e-06
8.6617e-06
8.80262e-06
6.82381e-07
3.78681e-07
4.02751e-06
2.19077e-06
6.73196e-07
4.86692e-07
3.97815e-06
1.09942e-05
1.32315e-05
5.03143e-07
3.77927e-06
4.8306e-07
2.25647e-06
4.99719e-07
3.7415e-06
6.00796e-07
1.52269e-06
1.51378e-06
2.27655e-06
1.73801e-06
1.7219e-06
1.32111e-06
1.85335e-05
1.1862e-06
2.09257e-05
1.69334e-05
1.9109e-05
1.35225e-06
1.85787e-05
1.18744e-06
2.09246e-05
8.69691e-06
8.7009e-06
8.84567e-06
8.93805e-06
8.82944e-06