/*--------------------------------*- C++ -*----------------------------------*\
| =========                 |                                                 |
| \\      /  F ield         | OpenFOAM: The Open Source CFD Toolbox           |
|  \\    /   O peration     | Version:  v2012                                 |
|   \\  /    A nd           | Website:  www.openfoam.com                      |
|    \\/     M anipulation  |                                                 |
\*---------------------------------------------------------------------------*/
FoamFile
{
    version     2.0;
    format      ascii;
    class       volScalarField;
    location    "275";
    object      p;
}
// * * * * * * * * * * * * * * * * * * * * * * * * * * * * * * * * * * * * * //

dimensions      [0 2 -2 0 0 0 0];


internalField   nonuniform List<scalar> 
171728
(
0.00352876
0.00352773
0.00352773
0.00352844
0.00349318
0.00349177
0.00349176
0.00349462
0.00345512
0.00345313
0.00345312
0.00345545
0.00341094
0.00340927
0.00340925
0.0034115
0.00336258
0.00336106
0.00336107
0.00336346
0.00331385
0.00331242
0.00331244
0.00331482
0.00326589
0.00326463
0.00326462
0.00326698
0.00321856
0.00321742
0.00321742
0.00321981
0.00317217
0.00317112
0.00317116
0.00317355
0.00312689
0.00312598
0.00312596
0.00312838
0.00308247
0.00308165
0.00308168
0.00308407
0.00303879
0.00303806
0.00303812
0.00304046
0.00299569
0.002995
0.00299512
0.00299738
0.00295295
0.00295238
0.00295237
0.00295479
0.00291056
0.00291018
0.00291006
0.00291252
0.00286851
0.0028682
0.00286799
0.00287043
0.00282679
0.0028266
0.00282635
0.00282877
0.00278541
0.00278501
0.00278511
0.00278762
0.00274443
0.00274433
0.00274428
0.0027463
0.00270375
0.00270356
0.00270347
0.00270559
0.00266342
0.00266341
0.00266316
0.00266529
0.00262337
0.00262321
0.00262318
0.00262503
0.00258371
0.00258378
0.00258349
0.00258539
0.0025442
0.0025442
0.0025442
0.00254611
0.0025049
0.00250503
0.00250484
0.00250671
0.00246601
0.00246591
0.00246624
0.00246791
0.00242726
0.00242746
0.0024273
0.0024295
0.00238866
0.00238887
0.00238876
0.00239044
0.0023503
0.00235031
0.00235052
0.00235266
0.00231219
0.0023128
0.00231242
0.00231466
0.00227429
0.00227435
0.00227454
0.00227634
0.00223626
0.0022365
0.0022366
0.00223878
0.00219874
0.00219912
0.00219906
0.00220092
0.00216111
0.00216147
0.00216145
0.00216353
0.0021239
0.00212413
0.00212427
0.00212622
0.00208655
0.00208703
0.00208685
0.00208871
0.00204961
0.00204981
0.0020499
0.00205213
0.00201255
0.00201281
0.00201274
0.0020145
0.00197576
0.00197619
0.00197626
0.00197816
0.00193944
0.00193929
0.00193927
0.00194135
0.00190255
0.00190291
0.0019029
0.00190473
0.00186641
0.00186629
0.00186634
0.00186851
0.00183014
0.00183023
0.00183015
0.00183216
0.00179414
0.00179401
0.00179413
0.00179613
0.00175825
0.00175823
0.00175813
0.00176022
0.00172248
0.00172225
0.00172233
0.00172437
0.00168681
0.00168661
0.00168665
0.00168871
0.00165126
0.00165134
0.00165111
0.00165317
0.00161599
0.00161544
0.00161576
0.00161769
0.00158059
0.00158045
0.0015802
0.00158243
0.00154544
0.00154525
0.00154533
0.00154724
0.00151051
0.00151021
0.00151022
0.00151221
0.00147586
0.0014754
0.00147532
0.00147744
0.00144083
0.00144072
0.00144072
0.00144265
0.00140653
0.00140605
0.00140616
0.00140804
0.00137192
0.00137177
0.00137179
0.00137368
0.00133831
0.00133801
0.00133794
0.00133986
0.00130367
0.0013032
0.00130318
0.0013051
0.00126853
0.00126847
0.00126847
0.00127043
0.00123457
0.00123486
0.00123486
0.00123686
0.00120289
0.00120247
0.00120247
0.00120417
0.00117079
0.00116985
0.00116985
0.00117144
0.00113591
0.00113534
0.00113534
0.00113715
0.00109869
0.00109844
0.00109845
0.0011005
0.00105862
0.00105922
0.00105922
0.00106167
0.00101932
0.00102014
0.00102014
0.00102269
0.000983721
0.000984271
0.00098427
0.000986511
0.000952704
0.00095268
0.000952681
0.000954348
0.000923936
0.000923158
0.000923158
0.000924458
0.000894755
0.000894201
0.000894201
0.000895613
0.00086414
0.000863837
0.000863835
0.000865489
0.000831289
0.000831136
0.000831136
0.00083299
0.000796642
0.000796561
0.000796561
0.000798538
0.000760996
0.000760952
0.000760952
0.000762992
0.000724888
0.000724863
0.000724863
0.000726934
0.000688607
0.000688581
0.000688581
0.000690661
0.000652275
0.000652249
0.000652249
0.000654331
0.000615913
0.000615886
0.000615886
0.00061797
0.000579552
0.000579526
0.000579526
0.000581609
0.000543187
0.00054316
0.00054316
0.000545245
0.00050682
0.000506792
0.000506792
0.000508876
0.000470452
0.000470424
0.000470424
0.000472509
0.000434079
0.000434052
0.000434053
0.000436136
0.000397709
0.000397682
0.000397682
0.000399766
0.000361336
0.000361307
0.000361307
0.00036339
0.000324964
0.000324938
0.000324938
0.000327021
0.000288591
0.000288562
0.000288563
0.000290645
0.000252217
0.00025219
0.00025219
0.000254272
0.000215842
0.000215816
0.000215816
0.000217895
0.000179466
0.00017944
0.00017944
0.000181515
0.000143088
0.000143064
0.000143063
0.000145132
0.000106704
0.000106683
0.000106682
0.000108735
7.03212e-05
7.02944e-05
7.02923e-05
7.23108e-05
3.47004e-05
3.41275e-05
3.41238e-05
3.5992e-05
6.11844e-06
6.99363e-06
6.99066e-06
5.25274e-06
0.00353319
0.00353076
0.00353065
0.00353306
0.00353076
0.00353077
0.00353714
0.00353715
0.00353716
0.00353714
0.00353068
0.00353074
0.00353321
0.00353077
0.00353078
0.00353319
0.00352843
0.00349935
0.00352771
0.00352763
0.00350118
0.00350122
0.00352845
0.00349931
0.00352773
0.00352774
0.00350117
0.00350116
0.00352772
0.00350114
0.00350114
0.00352846
0.00349936
0.00352772
0.00350118
0.00350117
0.00349934
0.00349461
0.00346093
0.00349176
0.00349178
0.00346318
0.00346315
0.00349459
0.00346095
0.00349176
0.00349178
0.00346317
0.00346311
0.00349178
0.00346315
0.00346316
0.00349462
0.00346094
0.00349181
0.00346315
0.00346317
0.00346093
0.00345544
0.0034177
0.00345312
0.00345314
0.00342081
0.00342078
0.00345546
0.00341772
0.00345312
0.00345314
0.0034208
0.00342078
0.00345314
0.00342079
0.00342079
0.00345546
0.00341771
0.00345316
0.00342078
0.00342079
0.0034177
0.0034115
0.00336994
0.00340926
0.00340927
0.0033733
0.00337329
0.00341151
0.00336994
0.00340926
0.00340925
0.00337329
0.0033733
0.00340925
0.00337328
0.00337329
0.0034115
0.00336994
0.00340927
0.0033733
0.0033733
0.00336994
0.00336345
0.00332123
0.00336105
0.00336106
0.00332453
0.00332454
0.00336344
0.00332122
0.00336105
0.00336107
0.00332453
0.00332452
0.00336106
0.00332453
0.00332451
0.00336345
0.00332123
0.00336108
0.00332451
0.00332453
0.00332124
0.00331481
0.00327327
0.00331243
0.00331242
0.0032765
0.00327649
0.0033148
0.00327326
0.00331241
0.00331243
0.00327649
0.00327649
0.00331242
0.00327647
0.00327649
0.00331481
0.00327327
0.00331242
0.00327649
0.00327649
0.00327328
0.00326697
0.003226
0.00326461
0.00326462
0.00322916
0.00322913
0.00326697
0.003226
0.00326461
0.00326461
0.00322915
0.00322914
0.00326462
0.00322914
0.00322916
0.00326697
0.00322601
0.00326463
0.00322914
0.00322914
0.00322601
0.0032198
0.00317959
0.0032174
0.00321742
0.0031826
0.0031826
0.00321981
0.00317958
0.0032174
0.00321742
0.0031826
0.00318261
0.00321742
0.00318261
0.00318261
0.00321982
0.00317959
0.00321742
0.0031826
0.0031826
0.00317959
0.00317355
0.00313429
0.00317114
0.00317113
0.00313719
0.00313717
0.00317354
0.00313428
0.00317113
0.00317114
0.00313719
0.00313718
0.00317115
0.00313717
0.00313717
0.00317355
0.00313428
0.00317115
0.0031372
0.00313717
0.00313426
0.00312837
0.00308985
0.00312597
0.00312598
0.00309264
0.00309265
0.00312838
0.00308983
0.00312597
0.00312596
0.00309264
0.00309265
0.003126
0.00309266
0.00309264
0.00312836
0.00308986
0.00312598
0.00309265
0.00309264
0.00308984
0.00308408
0.00304618
0.00308167
0.00308166
0.0030489
0.00304891
0.00308407
0.00304618
0.00308167
0.00308168
0.00304889
0.00304892
0.00308167
0.00304891
0.00304896
0.00308408
0.00304617
0.00308165
0.00304891
0.00304891
0.00304614
0.00304049
0.00300307
0.0030381
0.00303807
0.00300582
0.00300578
0.00304049
0.00300305
0.0030381
0.00303812
0.00300581
0.00300586
0.00303804
0.00300575
0.0030058
0.00304049
0.00300312
0.00303806
0.00300587
0.00300583
0.00300304
0.00299747
0.00296037
0.00299511
0.00299498
0.00296309
0.00296314
0.00299743
0.00296032
0.00299509
0.00299513
0.0029631
0.00296316
0.00299496
0.00296311
0.00296301
0.00299748
0.00296037
0.00299498
0.00296314
0.00296306
0.00296034
0.0029548
0.00291797
0.00295241
0.00295238
0.00292066
0.00292085
0.00295478
0.00291804
0.00295243
0.00295236
0.00292064
0.00292064
0.00295245
0.00292084
0.00292055
0.00295478
0.00291795
0.00295244
0.00292065
0.00292059
0.00291796
0.00291248
0.00287588
0.00291015
0.00291018
0.00287863
0.0028788
0.00291255
0.00287593
0.00291015
0.00291004
0.00287862
0.00287864
0.00291022
0.00287878
0.00287854
0.00291244
0.00287591
0.00291017
0.00287866
0.00287862
0.00287584
0.00287045
0.00283411
0.00286811
0.00286826
0.00283689
0.00283688
0.00287049
0.00283415
0.00286812
0.00286804
0.0028369
0.00283699
0.00286805
0.00283683
0.00283698
0.00287039
0.00283416
0.00286808
0.00283696
0.00283699
0.00283417
0.00282873
0.00279263
0.00282641
0.00282664
0.00279547
0.00279536
0.00282886
0.00279255
0.00282645
0.00282639
0.00279549
0.00279563
0.00282646
0.00279536
0.00279558
0.00282869
0.00279273
0.00282658
0.00279558
0.00279548
0.00279287
0.00278733
0.00275155
0.00278511
0.00278489
0.00275446
0.00275448
0.00278723
0.00275152
0.00278512
0.00278512
0.00275448
0.00275458
0.00278548
0.00275452
0.00275432
0.00278736
0.00275167
0.0027854
0.0027545
0.00275429
0.00275155
0.00274634
0.00271075
0.00274421
0.00274425
0.00271374
0.00271354
0.00274635
0.00271073
0.00274419
0.00274428
0.00271379
0.00271358
0.00274418
0.00271368
0.00271378
0.00274644
0.00271088
0.00274413
0.00271356
0.00271384
0.0027108
0.00270567
0.00267025
0.00270366
0.00270352
0.00267331
0.00267329
0.00270557
0.00267036
0.00270367
0.00270353
0.00267335
0.00267325
0.00270351
0.00267342
0.00267333
0.00270555
0.00267035
0.0027036
0.00267325
0.00267343
0.00267041
0.00266523
0.00263007
0.00266332
0.00266326
0.00263326
0.00263317
0.00266529
0.00263013
0.00266337
0.00266317
0.00263331
0.00263312
0.0026634
0.00263315
0.00263311
0.00266513
0.00263021
0.00266339
0.00263311
0.00263324
0.00263026
0.00262504
0.00259049
0.00262322
0.00262305
0.00259361
0.00259381
0.00262496
0.00259049
0.00262329
0.00262319
0.0025936
0.00259355
0.00262311
0.00259364
0.0025936
0.00262499
0.00259041
0.00262309
0.00259353
0.00259373
0.00259047
0.00258561
0.00255065
0.00258376
0.00258376
0.0025538
0.00255392
0.00258554
0.00255066
0.00258379
0.00258354
0.00255378
0.00255401
0.00258356
0.00255384
0.00255411
0.0025853
0.00255088
0.00258355
0.00255401
0.00255417
0.00255108
0.0025456
0.00251189
0.00254415
0.00254428
0.00251479
0.00251469
0.00254576
0.00251167
0.00254415
0.00254428
0.00251484
0.00251484
0.00254418
0.00251472
0.00251477
0.00254596
0.00251181
0.00254422
0.00251486
0.00251479
0.00251166
0.0025067
0.0024726
0.00250491
0.00250498
0.00247575
0.00247556
0.00250675
0.00247263
0.00250493
0.00250493
0.00247572
0.00247585
0.0025049
0.00247557
0.00247582
0.00250666
0.00247328
0.00250492
0.00247593
0.00247584
0.00247288
0.00246816
0.00243404
0.00246624
0.002466
0.00243696
0.00243708
0.00246746
0.00243501
0.00246624
0.00246625
0.00243692
0.00243681
0.00246605
0.00243715
0.002437
0.00246846
0.00243361
0.00246604
0.00243685
0.00243705
0.00243423
0.00242902
0.00239607
0.00242728
0.00242735
0.00239853
0.00239844
0.00242995
0.00239485
0.00242729
0.00242731
0.0023985
0.00239845
0.00242744
0.00239841
0.00239835
0.00242882
0.0023961
0.00242749
0.00239845
0.00239836
0.00239539
0.00239092
0.00235733
0.0023888
0.00238893
0.00236004
0.00236003
0.00239021
0.00235787
0.00238873
0.00238873
0.00236008
0.0023601
0.0023888
0.00236002
0.00236003
0.00239087
0.00235765
0.00238878
0.00236007
0.00236006
0.00235775
0.00235261
0.00231934
0.00235051
0.00235031
0.00232183
0.00232202
0.00235262
0.00231813
0.00235055
0.00235053
0.00232182
0.00232185
0.0023504
0.00232211
0.00232198
0.00235287
0.00231907
0.00235045
0.00232186
0.00232196
0.00231942
0.00231422
0.00228178
0.0023124
0.00231274
0.00228416
0.00228403
0.00231389
0.00228209
0.00231237
0.0023124
0.00228411
0.00228406
0.00231246
0.00228398
0.00228399
0.00231416
0.00228168
0.00231249
0.00228404
0.00228393
0.00228132
0.00227696
0.00224338
0.00227463
0.00227436
0.00224591
0.00224584
0.00227705
0.00224313
0.00227463
0.00227458
0.00224596
0.00224602
0.00227458
0.00224588
0.00224604
0.00227677
0.00224346
0.00227451
0.00224607
0.00224611
0.00224368
0.00223836
0.00220609
0.00223653
0.00223643
0.00220846
0.00220848
0.00223816
0.00220596
0.00223657
0.00223655
0.00220846
0.00220848
0.00223653
0.00220846
0.00220844
0.00223852
0.00220592
0.0022366
0.00220841
0.00220843
0.00220577
0.00220121
0.00216824
0.00219907
0.00219911
0.0021708
0.00217086
0.00220113
0.00216847
0.00219904
0.00219913
0.00217079
0.00217079
0.00219916
0.00217088
0.00217084
0.002201
0.00216838
0.00219912
0.00217084
0.00217085
0.00216844
0.00216333
0.00213107
0.00216144
0.00216148
0.00213362
0.00213347
0.00216348
0.00213079
0.00216145
0.0021614
0.00213362
0.00213359
0.00216142
0.00213345
0.00213358
0.00216349
0.00213103
0.00216144
0.00213358
0.00213358
0.00213108
0.00212611
0.00209365
0.00212424
0.00212412
0.00209607
0.00209622
0.00212596
0.00209383
0.0021242
0.0021243
0.00209606
0.00209618
0.00212431
0.00209623
0.00209612
0.00212617
0.00209368
0.00212429
0.00209618
0.00209612
0.00209356
0.0020888
0.00205699
0.00208682
0.00208702
0.00205937
0.00205917
0.00208901
0.00205652
0.00208683
0.00208683
0.00205938
0.00205917
0.00208677
0.00205916
0.00205923
0.00208879
0.0020567
0.00208678
0.00205917
0.00205922
0.00205692
0.00205203
0.00201937
0.00205006
0.00204983
0.00202188
0.00202198
0.00205163
0.00201963
0.00205007
0.00204994
0.00202187
0.00202198
0.00205014
0.00202199
0.00202199
0.00205179
0.00201959
0.00205012
0.00202197
0.002022
0.00201938
0.00201455
0.00198311
0.00201261
0.00201279
0.0019853
0.00198537
0.0020148
0.00198307
0.00201261
0.00201273
0.0019853
0.00198537
0.0020126
0.00198537
0.00198515
0.00201477
0.00198314
0.00201261
0.00198539
0.00198514
0.00198291
0.00197833
0.00194611
0.00197624
0.0019762
0.00194869
0.0019485
0.00197816
0.00194604
0.00197625
0.00197625
0.00194868
0.00194851
0.00197616
0.00194848
0.0019488
0.00197826
0.00194601
0.00197615
0.00194849
0.0019488
0.00194631
0.00194122
0.00190962
0.00193939
0.00193929
0.00191181
0.00191192
0.00194124
0.00190977
0.00193938
0.00193927
0.0019118
0.00191192
0.00193949
0.00191195
0.00191175
0.00194121
0.00190976
0.00193949
0.00191193
0.00191176
0.00190953
0.0019048
0.00187328
0.00190272
0.00190288
0.00187555
0.00187553
0.00190497
0.0018731
0.00190272
0.00190289
0.00187557
0.00187555
0.00190266
0.00187548
0.00187558
0.00190496
0.00187314
0.00190266
0.00187555
0.00187557
0.00187333
0.00186847
0.00183698
0.00186647
0.00186635
0.0018392
0.00183915
0.00186827
0.00183704
0.00186648
0.00186634
0.00183918
0.00183914
0.0018665
0.0018392
0.00183918
0.00186827
0.00183701
0.00186651
0.00183912
0.00183919
0.00183697
0.00183216
0.00180091
0.00183014
0.00183017
0.00180308
0.00180316
0.00183226
0.00180088
0.00183013
0.00183016
0.00180311
0.00180315
0.00183013
0.0018031
0.0018031
0.00183222
0.00180095
0.00183011
0.00180318
0.00180307
0.00180091
0.00179613
0.00176495
0.00179409
0.0017941
0.0017671
0.00176706
0.00179607
0.00176498
0.00179411
0.00179413
0.00176708
0.0017671
0.00179408
0.00176712
0.00176708
0.00179615
0.00176493
0.0017941
0.00176708
0.00176716
0.00176499
0.00176019
0.00172919
0.00175814
0.00175813
0.00173132
0.00173134
0.00176022
0.00172913
0.00175812
0.00175812
0.00173131
0.00173129
0.00175815
0.0017313
0.00173135
0.00176016
0.00172917
0.00175818
0.0017313
0.00173125
0.00172914
0.00172442
0.00169343
0.00172238
0.00172235
0.00169554
0.00169543
0.00172433
0.0016934
0.00172238
0.00172236
0.00169556
0.00169553
0.00172236
0.00169542
0.00169547
0.0017244
0.00169344
0.00172229
0.00169553
0.00169556
0.00169345
0.00168867
0.00165789
0.00168661
0.00168655
0.00165996
0.00166015
0.00168869
0.00165809
0.00168661
0.0016866
0.00165992
0.00165996
0.00168659
0.00166024
0.00166006
0.00168868
0.0016579
0.00168668
0.00165998
0.00166
0.00165792
0.00165316
0.00162251
0.00165113
0.0016513
0.0016246
0.00162442
0.00165331
0.00162231
0.00165109
0.00165112
0.00162462
0.00162463
0.00165119
0.00162431
0.00162449
0.00165316
0.00162252
0.00165108
0.00162462
0.00162451
0.00162242
0.00161777
0.00158714
0.00161572
0.00161555
0.00158918
0.00158919
0.00161758
0.00158717
0.00161576
0.00161576
0.0015892
0.00158911
0.0016156
0.0015892
0.00158917
0.00161778
0.00158704
0.00161568
0.00158906
0.00158919
0.00158714
0.0015824
0.00155189
0.00158038
0.00158043
0.00155396
0.00155398
0.00158246
0.00155196
0.00158036
0.00158024
0.0015539
0.00155394
0.00158041
0.00155405
0.00155405
0.00158231
0.00155196
0.00158037
0.00155401
0.00155398
0.00155195
0.00154718
0.00151697
0.00154517
0.0015452
0.00151896
0.00151897
0.00154725
0.00151692
0.00154513
0.00154524
0.00151901
0.0015191
0.00154523
0.00151894
0.00151886
0.00154728
0.00151699
0.00154521
0.00151904
0.00151893
0.00151689
0.0015123
0.00148211
0.00151028
0.00151026
0.00148418
0.00148411
0.00151223
0.00148207
0.00151034
0.00151035
0.00148419
0.00148408
0.00151018
0.0014841
0.00148424
0.00151229
0.00148201
0.00151021
0.001484
0.00148416
0.00148213
0.0014774
0.00144728
0.00147542
0.0014754
0.00144929
0.00144935
0.0014774
0.00144735
0.0014754
0.00147533
0.00144924
0.00144925
0.00147553
0.00144937
0.00144931
0.00147732
0.0014473
0.00147546
0.00144935
0.00144933
0.00144731
0.00144263
0.00141274
0.00144068
0.00144072
0.00141481
0.00141475
0.00144269
0.00141268
0.00144063
0.00144064
0.00141482
0.00141483
0.00144065
0.00141474
0.00141474
0.00144265
0.00141277
0.00144066
0.00141483
0.00141475
0.0014127
0.00140807
0.00137823
0.00140611
0.00140605
0.00138019
0.00138024
0.00140801
0.00137825
0.00140613
0.00140617
0.00138023
0.00138031
0.00140607
0.00138024
0.00138023
0.00140811
0.00137831
0.00140609
0.00138029
0.00138027
0.00137826
0.00137365
0.00134449
0.00137171
0.00137177
0.00134651
0.00134653
0.00137367
0.00134449
0.00137174
0.0013718
0.00134649
0.00134647
0.00137176
0.00134653
0.00134653
0.00137371
0.0013444
0.00137178
0.00134647
0.00134651
0.00134448
0.00133988
0.00130983
0.00133803
0.001338
0.00131194
0.00131193
0.00133987
0.00130983
0.00133799
0.00133794
0.00131193
0.0013119
0.00133802
0.00131193
0.00131193
0.00133979
0.00130981
0.00133798
0.00131191
0.00131191
0.00130982
0.0013051
0.00127505
0.00130319
0.0013032
0.00127707
0.00127707
0.0013051
0.00127505
0.00130319
0.00130318
0.00127708
0.00127707
0.00130319
0.00127707
0.00127706
0.00130509
0.00127506
0.00130318
0.00127707
0.00127707
0.00127505
0.00127043
0.00124134
0.00126846
0.00126847
0.00124316
0.00124317
0.00127043
0.00124135
0.00126847
0.00126847
0.00124316
0.00124317
0.00126845
0.00124317
0.00124316
0.00127044
0.00124135
0.00126847
0.00124317
0.00124317
0.00124135
0.00123686
0.00120855
0.00123485
0.00123486
0.0012105
0.00121052
0.00123687
0.00120856
0.00123485
0.00123486
0.00121051
0.00121051
0.00123485
0.00121052
0.00121052
0.00123687
0.00120856
0.00123486
0.00121052
0.00121052
0.00120856
0.00120416
0.00117592
0.00120246
0.00120246
0.00117811
0.00117811
0.00120416
0.00117591
0.00120247
0.00120247
0.00117812
0.00117812
0.00120248
0.00117811
0.00117812
0.00120417
0.00117591
0.00120247
0.00117811
0.00117812
0.00117592
0.00117144
0.00114194
0.00116986
0.00116985
0.00114419
0.00114419
0.00117144
0.00114193
0.00116986
0.00116986
0.00114419
0.00114419
0.00116986
0.00114418
0.00114419
0.00117144
0.00114194
0.00116986
0.00114419
0.00114419
0.00114193
0.00113715
0.00110566
0.00113535
0.00113534
0.00110794
0.00110794
0.00113714
0.00110565
0.00113535
0.00113535
0.00110794
0.00110794
0.00113534
0.00110793
0.00110794
0.00113715
0.00110565
0.00113534
0.00110794
0.00110794
0.00110565
0.00110051
0.00106702
0.00109845
0.00109844
0.00106909
0.00106909
0.0011005
0.00106702
0.00109845
0.00109845
0.00106908
0.00106909
0.00109844
0.00106909
0.00106909
0.0011005
0.00106702
0.00109844
0.00106909
0.00106909
0.00106702
0.00106167
0.00102786
0.00105921
0.00105922
0.00102972
0.00102972
0.00106168
0.00102786
0.00105921
0.00105922
0.00102972
0.00102973
0.00105922
0.00102972
0.00102972
0.00106167
0.00102787
0.00105922
0.00102973
0.00102973
0.00102786
0.00102268
0.000991159
0.00102014
0.00102014
0.000992833
0.000992831
0.00102268
0.000991158
0.00102014
0.00102014
0.000992833
0.000992834
0.00102014
0.000992831
0.00099283
0.00102269
0.000991159
0.00102014
0.000992831
0.000992832
0.000991157
0.000986512
0.000958503
0.000984273
0.00098427
0.000960251
0.000960249
0.000986512
0.000958501
0.00098427
0.000984272
0.000960251
0.00096025
0.000984269
0.000960248
0.00096025
0.000986513
0.000958503
0.000984269
0.000960251
0.000960249
0.000958501
0.000954349
0.0009284
0.000952682
0.00095268
0.000930414
0.000930413
0.000954347
0.000928399
0.000952683
0.000952682
0.000930414
0.000930413
0.000952681
0.000930413
0.000930413
0.000954349
0.0009284
0.000952681
0.000930413
0.000930413
0.000928399
0.000924458
0.00089956
0.000923158
0.000923157
0.000901505
0.000901505
0.000924457
0.00089956
0.000923159
0.000923158
0.000901505
0.000901505
0.000923157
0.000901505
0.000901504
0.000924458
0.00089956
0.000923158
0.000901505
0.000901505
0.000899559
0.000895612
0.000869722
0.000894201
0.000894201
0.000871638
0.000871638
0.000895612
0.000869723
0.0008942
0.0008942
0.000871635
0.000871637
0.0008942
0.000871638
0.000871638
0.000895613
0.000869721
0.0008942
0.000871635
0.000871634
0.00086972
0.000865488
0.000837548
0.000863837
0.000863837
0.000839521
0.000839521
0.000865489
0.000837549
0.000863836
0.000863836
0.00083952
0.000839521
0.000863837
0.000839521
0.000839521
0.000865488
0.000837548
0.000863835
0.000839521
0.000839521
0.000837548
0.000832989
0.000803306
0.000831136
0.000831136
0.000805332
0.000805332
0.000832989
0.000803306
0.000831136
0.000831136
0.000805331
0.000805331
0.000831136
0.000805331
0.000805332
0.00083299
0.000803305
0.000831136
0.000805331
0.000805331
0.000803304
0.000798538
0.000767861
0.000796561
0.000796561
0.000769915
0.000769915
0.000798538
0.000767861
0.000796561
0.000796561
0.000769915
0.000769915
0.000796561
0.000769915
0.000769915
0.000798538
0.000767861
0.000796561
0.000769915
0.000769914
0.00076786
0.000762992
0.000731848
0.000760952
0.000760952
0.000733912
0.000733912
0.000762992
0.000731848
0.000760952
0.000760952
0.000733912
0.000733912
0.000760952
0.000733912
0.000733912
0.000762992
0.000731847
0.000760952
0.000733912
0.000733912
0.000731847
0.000726933
0.000695591
0.000724863
0.000724863
0.000697659
0.000697659
0.000726933
0.000695591
0.000724863
0.000724863
0.000697659
0.000697659
0.000724863
0.000697659
0.000697659
0.000726934
0.000695591
0.000724863
0.000697659
0.000697659
0.00069559
0.000690661
0.000659264
0.000688581
0.000688581
0.000661335
0.000661335
0.000690661
0.000659264
0.000688581
0.000688581
0.000661335
0.000661335
0.000688581
0.000661335
0.000661335
0.000690661
0.000659264
0.000688581
0.000661335
0.000661335
0.000659263
0.00065433
0.000622907
0.000652249
0.000652248
0.000624978
0.000624977
0.00065433
0.000622907
0.000652249
0.000652249
0.000624978
0.000624978
0.000652249
0.000624978
0.000624978
0.00065433
0.000622906
0.000652249
0.000624978
0.000624978
0.000622906
0.00061797
0.000586543
0.000615886
0.000615886
0.000588614
0.000588614
0.00061797
0.000586544
0.000615886
0.000615886
0.000588614
0.000588614
0.000615886
0.000588614
0.000588615
0.00061797
0.000586543
0.000615886
0.000588614
0.000588614
0.000586543
0.000581608
0.000550182
0.000579526
0.000579525
0.000552253
0.000552253
0.000581608
0.000550182
0.000579525
0.000579526
0.000552253
0.000552253
0.000579526
0.000552253
0.000552253
0.000581608
0.000550181
0.000579526
0.000552253
0.000552253
0.000550181
0.000545244
0.000513811
0.000543161
0.00054316
0.000515882
0.000515882
0.000545244
0.000513812
0.000543161
0.00054316
0.000515882
0.000515882
0.00054316
0.000515883
0.000515883
0.000545245
0.000513811
0.00054316
0.000515882
0.000515882
0.000513811
0.000508875
0.000477446
0.000506792
0.000506792
0.000479517
0.000479517
0.000508875
0.000477446
0.000506792
0.000506792
0.000479517
0.000479517
0.000506792
0.000479517
0.000479517
0.000508875
0.000477446
0.000506792
0.000479517
0.000479517
0.000477445
0.000472508
0.000441073
0.000470425
0.000470424
0.000443145
0.000443145
0.000472508
0.000441073
0.000470424
0.000470424
0.000443145
0.000443145
0.000470424
0.000443145
0.000443145
0.000472509
0.000441073
0.000470424
0.000443145
0.000443145
0.000441072
0.000436135
0.000404703
0.000434053
0.000434053
0.000406773
0.000406773
0.000436135
0.000404703
0.000434053
0.000434053
0.000406773
0.000406773
0.000434053
0.000406773
0.000406774
0.000436135
0.000404703
0.000434053
0.000406773
0.000406773
0.000404702
0.000399766
0.000368329
0.000397682
0.000397682
0.0003704
0.0003704
0.000399766
0.000368329
0.000397682
0.000397682
0.0003704
0.0003704
0.000397682
0.0003704
0.0003704
0.000399766
0.000368328
0.000397682
0.0003704
0.0003704
0.000368328
0.00036339
0.000331959
0.000361307
0.000361307
0.00033403
0.00033403
0.00036339
0.000331959
0.000361307
0.000361307
0.00033403
0.00033403
0.000361307
0.000334029
0.00033403
0.00036339
0.000331959
0.000361307
0.00033403
0.00033403
0.000331958
0.000327021
0.000295583
0.000324938
0.000324938
0.000297654
0.000297654
0.000327021
0.000295583
0.000324938
0.000324938
0.000297654
0.000297654
0.000324938
0.000297654
0.000297654
0.000327021
0.000295582
0.000324938
0.000297654
0.000297654
0.000295582
0.000290644
0.000259212
0.000288563
0.000288563
0.000261282
0.000261282
0.000290644
0.000259212
0.000288563
0.000288563
0.000261281
0.000261282
0.000288562
0.000261282
0.000261282
0.000290644
0.000259212
0.000288563
0.000261281
0.000261281
0.000259211
0.000254271
0.000222836
0.00025219
0.00025219
0.000224906
0.000224906
0.000254271
0.000222836
0.00025219
0.00025219
0.000224906
0.000224906
0.00025219
0.000224906
0.000224906
0.000254271
0.000222836
0.000252189
0.000224906
0.000224906
0.000222836
0.000217894
0.000186461
0.000215816
0.000215815
0.00018853
0.00018853
0.000217894
0.000186462
0.000215816
0.000215816
0.00018853
0.00018853
0.000215816
0.00018853
0.00018853
0.000217895
0.000186461
0.000215816
0.00018853
0.00018853
0.00018646
0.000181514
0.000150088
0.00017944
0.00017944
0.000152153
0.000152153
0.000181514
0.000150088
0.00017944
0.00017944
0.000152153
0.000152152
0.00017944
0.000152152
0.000152153
0.000181515
0.000150087
0.00017944
0.000152152
0.000152152
0.000150087
0.000145132
0.000113709
0.000143064
0.000143064
0.00011577
0.00011577
0.000145132
0.00011371
0.000143064
0.000143063
0.00011577
0.000115769
0.000143064
0.00011577
0.00011577
0.000145132
0.000113708
0.000143063
0.000115769
0.00011577
0.000113709
0.000108735
7.73239e-05
0.000106683
0.000106684
7.93799e-05
7.938e-05
0.000108735
7.7324e-05
0.000106683
0.000106682
7.93796e-05
7.93783e-05
0.000106683
7.93801e-05
7.93785e-05
0.000108734
7.73221e-05
0.000106682
7.93782e-05
7.93782e-05
7.73221e-05
7.23122e-05
4.09802e-05
7.0295e-05
7.02947e-05
4.30329e-05
4.30326e-05
7.23119e-05
4.09794e-05
7.02944e-05
7.02928e-05
4.30311e-05
4.30279e-05
7.0293e-05
4.30306e-05
4.30279e-05
7.23102e-05
4.09751e-05
7.02925e-05
4.30272e-05
4.3027e-05
4.09745e-05
3.59966e-05
8.48606e-06
3.41288e-05
3.41291e-05
1.15163e-05
1.15172e-05
3.59951e-05
8.48707e-06
3.41274e-05
3.41237e-05
1.15194e-05
1.1513e-05
3.41234e-05
1.15183e-05
1.1513e-05
3.59916e-05
8.48224e-06
3.41234e-05
1.15152e-05
1.1517e-05
8.48404e-06
5.25481e-06
6.99212e-06
6.9918e-06
5.25511e-06
6.99409e-06
6.9882e-06
6.11872e-06
6.11712e-06
6.11786e-06
6.98968e-06
5.25036e-06
6.99193e-06
0.00354028
0.00354283
0.00354162
0.00354164
0.00356894
0.00354275
0.0035723
0.00354304
0.00356895
0.00354281
0.00354307
0.00357235
0.00355381
0.00357555
0.00357562
0.00351272
0.00352658
0.00353034
0.00350494
0.00350256
0.00350835
0.00351274
0.00352642
0.00353038
0.00350506
0.00352878
0.00352877
0.00352875
0.00350223
0.0035022
0.00350224
0.00350221
0.00351248
0.00352405
0.00352933
0.00351993
0.00353148
0.00350953
0.00352027
0.0035033
0.00350849
0.0035125
0.00352934
0.00352412
0.00352002
0.00353149
0.0035203
0.00350958
0.00353026
0.00353008
0.00351726
0.00350947
0.00350946
0.00348523
0.00349952
0.00349924
0.00348331
0.00349675
0.00348237
0.00348517
0.00349949
0.00349935
0.00348332
0.0034932
0.00349319
0.00349318
0.00346515
0.00346518
0.00346516
0.00346513
0.0034831
0.00349801
0.00349166
0.00348231
0.00349647
0.00348364
0.00348232
0.00349673
0.00348239
0.00348309
0.00349166
0.00349803
0.00348233
0.00349648
0.00348231
0.00348358
0.00349971
0.00349974
0.00348081
0.00348394
0.00348397
0.0034429
0.00345772
0.00345862
0.00344172
0.00345652
0.0034409
0.00344293
0.00345771
0.00345857
0.00344169
0.00345515
0.00345511
0.0034551
0.00342255
0.00342258
0.00342255
0.00342253
0.00344177
0.00345729
0.00345316
0.00344275
0.00345624
0.00344221
0.00344275
0.00345651
0.00344083
0.00344173
0.00345315
0.00345731
0.00344278
0.00345622
0.00344273
0.00344212
0.00345791
0.00345795
0.00344006
0.00344204
0.00344203
0.00339649
0.00341311
0.00341457
0.00339511
0.00341244
0.00339462
0.00339644
0.00341311
0.00341456
0.00339507
0.00341096
0.00341092
0.00341092
0.00337481
0.00337483
0.00337482
0.0033748
0.00339575
0.00341296
0.00340925
0.00339747
0.00341234
0.00339582
0.00339742
0.00341237
0.0033946
0.00339571
0.00340924
0.00341291
0.00339747
0.00341232
0.00339742
0.00339576
0.00341312
0.00341312
0.00339414
0.00339533
0.00339531
0.00334741
0.0033646
0.00336598
0.00334627
0.00336424
0.00334598
0.00334747
0.00336461
0.00336593
0.00334628
0.00336259
0.00336258
0.00336257
0.00332596
0.00332597
0.00332596
0.00332595
0.00334709
0.00336462
0.00336104
0.00334888
0.00336427
0.00334702
0.0033489
0.00336426
0.00334594
0.00334706
0.00336107
0.00336462
0.00334889
0.00336428
0.00334889
0.003347
0.00336469
0.00336469
0.00334554
0.00334641
0.00334639
0.00329857
0.00331576
0.00331669
0.00329768
0.00331546
0.00329746
0.0032985
0.00331575
0.00331678
0.00329766
0.00331386
0.00331385
0.00331384
0.00327781
0.00327782
0.00327781
0.0032778
0.00329851
0.00331579
0.00331245
0.00330039
0.00331555