/*--------------------------------*- C++ -*----------------------------------*\
| =========                 |                                                 |
| \\      /  F ield         | OpenFOAM: The Open Source CFD Toolbox           |
|  \\    /   O peration     | Version:  v2012                                 |
|   \\  /    A nd           | Website:  www.openfoam.com                      |
|    \\/     M anipulation  |                                                 |
\*---------------------------------------------------------------------------*/
FoamFile
{
    version     2.0;
    format      ascii;
    class       volScalarField;
    location    "62.5";
    object      epsilon;
}
// * * * * * * * * * * * * * * * * * * * * * * * * * * * * * * * * * * * * * //

dimensions      [0 2 -3 0 0 0 0];


internalField   nonuniform List<scalar> 
171728
(
2.42453e-07
3.43945e-08
4.67029e-08
1.18562e-08
2.47491e-07
4.07029e-08
4.47267e-08
1.35213e-08
2.57065e-07
5.05977e-08
5.21795e-08
1.78121e-08
2.66454e-07
6.36728e-08
6.48929e-08
2.53475e-08
2.75844e-07
8.01344e-08
8.13185e-08
3.57034e-08
2.852e-07
9.96445e-08
1.00925e-07
4.9069e-08
2.93933e-07
1.23231e-07
1.23788e-07
6.66384e-08
3.03375e-07
1.51435e-07
1.51986e-07
9.01415e-08
3.15187e-07
1.84356e-07
1.84629e-07
1.21805e-07
3.29013e-07
2.20587e-07
2.20871e-07
1.64145e-07
3.46733e-07
2.62981e-07
2.63176e-07
2.17712e-07
3.66451e-07
3.12657e-07
3.12701e-07
2.86477e-07
3.90446e-07
3.7371e-07
3.73706e-07
3.79395e-07
4.10419e-07
4.3282e-07
4.3282e-07
4.80837e-07
4.26972e-07
4.85535e-07
4.85549e-07
5.63294e-07
4.37166e-07
5.14373e-07
5.14387e-07
6.04953e-07
4.40334e-07
5.21486e-07
5.21498e-07
6.12456e-07
4.40909e-07
5.22517e-07
5.22526e-07
6.13395e-07
4.40998e-07
5.22661e-07
5.22666e-07
6.13542e-07
4.41021e-07
5.22695e-07
5.22698e-07
6.13546e-07
4.41035e-07
5.22711e-07
5.22714e-07
6.13561e-07
4.41046e-07
5.22725e-07
5.22729e-07
6.13569e-07
4.41054e-07
5.22727e-07
5.22731e-07
6.13565e-07
4.41059e-07
5.22726e-07
5.22732e-07
6.13568e-07
4.41059e-07
5.22728e-07
5.22732e-07
6.13572e-07
4.41059e-07
5.22728e-07
5.22732e-07
6.13573e-07
4.41059e-07
5.22728e-07
5.22731e-07
6.13572e-07
4.41061e-07
5.22728e-07
5.22732e-07
6.13572e-07
4.4106e-07
5.22729e-07
5.22733e-07
6.13575e-07
4.41062e-07
5.22728e-07
5.22733e-07
6.13577e-07
4.41061e-07
5.22729e-07
5.22732e-07
6.13576e-07
4.4106e-07
5.22729e-07
5.22731e-07
6.13574e-07
4.4106e-07
5.22728e-07
5.22731e-07
6.13575e-07
4.41059e-07
5.22728e-07
5.22732e-07
6.13576e-07
4.41058e-07
5.22728e-07
5.22732e-07
6.13576e-07
4.41057e-07
5.22728e-07
5.22732e-07
6.13576e-07
4.41056e-07
5.22729e-07
5.22732e-07
6.13576e-07
4.41059e-07
5.22728e-07
5.22731e-07
6.13576e-07
4.41059e-07
5.22728e-07
5.22731e-07
6.13576e-07
4.41059e-07
5.22729e-07
5.22731e-07
6.13576e-07
4.41059e-07
5.2273e-07
5.22731e-07
6.13576e-07
4.41061e-07
5.22729e-07
5.22731e-07
6.13576e-07
4.4106e-07
5.22728e-07
5.22731e-07
6.13576e-07
4.4106e-07
5.22728e-07
5.22732e-07
6.13576e-07
4.41059e-07
5.22728e-07
5.22733e-07
6.13576e-07
4.41059e-07
5.22727e-07
5.22732e-07
6.13575e-07
4.41059e-07
5.22727e-07
5.22731e-07
6.13574e-07
4.41059e-07
5.22728e-07
5.22731e-07
6.13574e-07
4.41061e-07
5.22728e-07
5.2273e-07
6.13575e-07
4.41061e-07
5.22727e-07
5.2273e-07
6.13574e-07
4.4106e-07
5.22727e-07
5.22732e-07
6.13575e-07
4.41059e-07
5.22728e-07
5.22732e-07
6.13576e-07
4.41059e-07
5.22727e-07
5.22731e-07
6.13575e-07
4.41059e-07
5.22726e-07
5.2273e-07
6.13576e-07
4.41059e-07
5.22725e-07
5.2273e-07
6.13577e-07
4.41059e-07
5.22729e-07
5.22729e-07
6.13577e-07
4.41059e-07
5.22731e-07
5.22729e-07
6.13576e-07
4.41058e-07
5.2273e-07
5.22729e-07
6.13575e-07
4.41058e-07
5.22729e-07
5.2273e-07
6.13575e-07
4.41058e-07
5.22728e-07
5.2273e-07
6.13575e-07
4.41058e-07
5.22728e-07
5.2273e-07
6.13575e-07
4.41058e-07
5.22727e-07
5.2273e-07
6.13576e-07
4.41058e-07
5.22729e-07
5.2273e-07
6.13575e-07
4.4106e-07
5.22729e-07
5.2273e-07
6.13576e-07
4.41059e-07
5.22728e-07
5.22729e-07
6.13576e-07
4.41058e-07
5.22728e-07
5.22729e-07
6.13576e-07
4.41058e-07
5.22728e-07
5.22729e-07
6.13576e-07
4.41057e-07
5.22728e-07
5.2273e-07
6.13576e-07
4.41057e-07
5.22728e-07
5.2273e-07
6.13575e-07
4.41056e-07
5.22728e-07
5.22731e-07
6.13574e-07
4.41056e-07
5.22728e-07
5.2273e-07
6.13574e-07
4.41058e-07
5.22728e-07
5.22732e-07
6.13574e-07
4.41058e-07
5.22728e-07
5.22732e-07
6.13573e-07
4.41058e-07
5.22729e-07
5.22731e-07
6.13573e-07
4.41058e-07
5.22728e-07
5.22731e-07
6.13577e-07
4.41058e-07
5.22727e-07
5.2273e-07
6.13576e-07
4.41058e-07
5.22728e-07
5.22731e-07
6.13574e-07
4.41058e-07
5.22727e-07
5.2273e-07
6.13575e-07
4.41058e-07
5.22728e-07
5.22731e-07
6.13577e-07
4.41058e-07
5.22728e-07
5.22732e-07
6.13577e-07
4.41059e-07
5.22729e-07
5.22733e-07
6.13576e-07
4.41062e-07
5.22733e-07
5.22736e-07
6.13576e-07
4.41064e-07
5.22735e-07
5.22738e-07
6.13576e-07
4.41064e-07
5.22736e-07
5.22739e-07
6.13576e-07
4.41065e-07
5.22738e-07
5.22741e-07
6.13576e-07
4.41066e-07
5.2274e-07
5.22743e-07
6.13576e-07
4.4107e-07
5.22742e-07
5.22745e-07
6.13576e-07
4.41073e-07
5.22743e-07
5.22747e-07
6.13576e-07
4.41075e-07
5.22745e-07
5.22748e-07
6.13575e-07
4.41076e-07
5.22745e-07
5.22747e-07
6.13571e-07
4.41078e-07
5.22743e-07
5.22744e-07
6.13567e-07
4.4108e-07
5.22735e-07
5.22736e-07
6.13558e-07
4.41081e-07
5.22714e-07
5.22715e-07
6.13541e-07
4.41071e-07
5.22688e-07
5.2269e-07
6.13405e-07
4.39243e-07
5.10798e-07
5.10795e-07
5.97841e-07
1.18019e-08
3.1352e-08
3.21718e-08
1.3731e-08
3.1845e-08
2.9163e-08
2.44788e-07
2.43851e-07
2.43485e-07
2.44167e-07
2.83939e-08
3.19058e-08
1.23444e-08
3.35435e-08
2.83738e-08
1.19021e-08
1.17672e-08
1.34654e-08
4.10071e-08
3.81708e-08
4.54689e-08
4.15896e-08
1.36468e-08
1.50652e-08
4.13274e-08
3.58702e-08
4.55319e-08
3.99755e-08
4.13415e-08
3.86309e-08
4.56771e-08
1.23093e-08
1.35698e-08
3.46307e-08
4.43493e-08
3.85136e-08
1.34741e-08
1.34892e-08
1.75902e-08
4.77315e-08
4.34356e-08
5.54673e-08
4.99367e-08
1.5104e-08
1.85381e-08
4.76862e-08
4.20711e-08
5.50721e-08
4.94144e-08
4.78895e-08
4.79263e-08
5.53619e-08
1.35892e-08
1.70533e-08
4.05692e-08
4.97267e-08
4.78091e-08
1.75803e-08
1.7806e-08
2.49574e-08
5.83245e-08
5.24642e-08
6.79746e-08
6.1468e-08
1.87167e-08
2.49123e-08
5.77674e-08
5.21757e-08
6.70917e-08
6.15654e-08
5.81003e-08
6.02175e-08
6.74313e-08
1.72572e-08
2.41947e-08
5.05789e-08
6.147e-08
6.01178e-08
2.4867e-08
2.54156e-08
3.51847e-08
7.14684e-08
6.48173e-08
8.31777e-08
7.64912e-08
2.53428e-08
3.46591e-08
7.0459e-08
6.50556e-08
8.171e-08
7.69222e-08
7.07521e-08
7.57139e-08
8.19053e-08
2.47172e-08
3.46454e-08
6.36192e-08
7.68912e-08
7.56073e-08
3.50634e-08
3.58038e-08
4.84027e-08
8.73876e-08
8.08829e-08
1.00722e-07
9.50325e-08
3.53161e-08
4.78941e-08
8.58542e-08
8.12624e-08
9.90966e-08
9.50967e-08
8.59544e-08
9.44047e-08
9.88995e-08
3.53097e-08
4.80379e-08
8.00717e-08
9.56852e-08
9.42898e-08
4.8175e-08
4.93013e-08
6.57464e-08
1.05591e-07
1.00273e-07
1.20632e-07
1.17249e-07
4.88009e-08
6.52587e-08
1.04079e-07
1.00345e-07
1.20266e-07
1.17205e-07
1.03779e-07
1.16863e-07
1.19453e-07
4.89529e-08
6.55976e-08
9.95624e-08
1.17639e-07
1.16655e-07
6.53712e-08
6.69985e-08
8.86581e-08
1.26224e-07
1.2359e-07
1.45213e-07
1.44405e-07
6.6547e-08
8.85219e-08
1.26214e-07
1.23541e-07
1.45916e-07
1.44238e-07
1.25298e-07
1.44208e-07
1.44886e-07
6.68941e-08
8.89455e-08
1.22998e-07
1.45074e-07
1.4401e-07
8.82943e-08
9.04985e-08
1.19418e-07
1.51826e-07
1.51684e-07
1.75479e-07
1.75833e-07
9.03882e-08
1.1959e-07
1.52853e-07
1.51426e-07
1.76029e-07
1.75573e-07
1.51763e-07
1.75583e-07
1.75471e-07
9.077e-08
1.19813e-07
1.51244e-07
1.75685e-07
1.75321e-07
1.19186e-07
1.2201e-07
1.58734e-07
1.84401e-07
1.84587e-07
2.11203e-07
2.11253e-07
1.22194e-07
1.58799e-07
1.84737e-07
1.84422e-07
2.11669e-07
2.11102e-07
1.84405e-07
2.1118e-07
2.11338e-07
1.22421e-07
1.58907e-07
1.84179e-07
2.11531e-07
2.11058e-07
1.58634e-07
1.64265e-07
2.08986e-07
2.2073e-07
2.20683e-07
2.52222e-07
2.51887e-07
1.64322e-07
2.08564e-07
2.21136e-07
2.20513e-07
2.52411e-07
2.51847e-07
2.20785e-07
2.51895e-07
2.52053e-07
1.64411e-07
2.08548e-07
2.20541e-07
2.5211e-07
2.51924e-07
2.08562e-07
2.18157e-07
2.74105e-07
2.63296e-07
2.6301e-07
2.99276e-07
2.99279e-07
2.17702e-07
2.7387e-07
2.63474e-07
2.62971e-07
2.9943e-07
2.99164e-07
2.63116e-07
2.99252e-07
2.99148e-07
2.17714e-07
2.73831e-07
2.63026e-07
2.9933e-07
2.99139e-07
2.73724e-07
2.86826e-07
3.62181e-07
3.12654e-07
3.12716e-07
3.57786e-07
3.57863e-07
2.86698e-07
3.6228e-07
3.12785e-07
3.12591e-07
3.5784e-07
3.57777e-07
3.12549e-07
3.57854e-07
3.5773e-07
2.86608e-07
3.62142e-07
3.12551e-07
3.5785e-07
3.57732e-07
3.62021e-07
3.79534e-07
4.64698e-07
3.73683e-07
3.73743e-07
4.18656e-07
4.18675e-07
3.79624e-07
4.64718e-07
3.73715e-07
3.73679e-07
4.18651e-07
4.18656e-07
3.73642e-07
4.18675e-07
4.18645e-07
3.79505e-07
4.64694e-07
3.7364e-07
4.18669e-07
4.18633e-07
4.64678e-07
4.80856e-07
5.50437e-07
4.32836e-07
4.32851e-07
4.73737e-07
4.73749e-07
4.80872e-07
5.50449e-07
4.32821e-07
4.32839e-07
4.737e-07
4.73751e-07
4.32833e-07
4.73719e-07
4.73747e-07
4.80851e-07
5.50456e-07
4.32817e-07
4.73721e-07
4.7371e-07
5.50477e-07
5.63266e-07
6.00287e-07
4.85587e-07
4.85603e-07
5.09985e-07
5.10006e-07
5.63282e-07
6.00305e-07
4.85545e-07
4.85607e-07
5.09937e-07
5.10013e-07
4.85601e-07
5.09949e-07
5.10003e-07
5.63284e-07
6.00314e-07
4.85559e-07
5.09956e-07
5.09953e-07
6.00329e-07
6.04924e-07
6.11155e-07
5.14432e-07
5.14453e-07
5.2076e-07
5.20778e-07
6.04941e-07
6.11166e-07
5.14382e-07
5.1446e-07
5.20711e-07
5.20786e-07
5.1445e-07
5.20717e-07
5.20777e-07
6.04946e-07
6.11175e-07
5.14399e-07
5.20722e-07
5.20726e-07
6.11197e-07
6.12432e-07
6.12553e-07
5.21548e-07
5.21565e-07
5.22475e-07
5.2249e-07
6.12442e-07
6.1256e-07
5.21498e-07
5.21572e-07
5.22426e-07
5.22498e-07
5.21564e-07
5.22425e-07
5.22487e-07
6.12446e-07
6.12568e-07
5.21512e-07
5.2243e-07
5.22436e-07
6.12587e-07
6.13376e-07
6.12761e-07
5.22579e-07
5.22594e-07
5.22701e-07
5.22714e-07
6.13383e-07
6.12766e-07
5.2253e-07
5.22602e-07
5.22651e-07
5.22724e-07
5.2259e-07
5.22647e-07
5.22705e-07
6.13385e-07
6.12775e-07
5.22539e-07
5.22652e-07
5.22654e-07
6.12784e-07
6.13534e-07
6.12778e-07
5.22718e-07
5.22732e-07
5.22741e-07
5.22757e-07
6.13539e-07
6.12785e-07
5.22669e-07
5.22742e-07
5.22693e-07
5.22766e-07
5.22721e-07
5.2269e-07
5.22742e-07
6.13544e-07
6.12794e-07
5.2267e-07
5.22693e-07
5.22691e-07
6.12786e-07
6.1355e-07
6.12795e-07
5.2275e-07
5.22765e-07
5.22761e-07
5.22776e-07
6.13557e-07
6.12799e-07
5.227e-07
5.22774e-07
5.22711e-07
5.22786e-07
5.22749e-07
5.22708e-07
5.22761e-07
6.13564e-07
6.12811e-07
5.22698e-07
5.22711e-07
5.2271e-07
6.12802e-07
6.13563e-07
6.128e-07
5.2277e-07
5.22784e-07
5.22781e-07
5.22793e-07
6.13569e-07
6.12806e-07
5.22719e-07
5.22794e-07
5.22727e-07
5.22803e-07
5.22769e-07
5.22724e-07
5.22775e-07
6.13578e-07
6.12819e-07
5.22717e-07
5.22727e-07
5.22724e-07
6.12811e-07
6.13565e-07
6.12802e-07
5.22789e-07
5.228e-07
5.22791e-07
5.22796e-07
6.13578e-07
6.12811e-07
5.22734e-07
5.22811e-07
5.22729e-07
5.22808e-07
5.22781e-07
5.22727e-07
5.22776e-07
6.13586e-07
6.12823e-07
5.22731e-07
5.22732e-07
5.22726e-07
6.12807e-07
6.13567e-07
6.12802e-07
5.22796e-07
5.228e-07
5.2279e-07
5.22796e-07
6.13581e-07
6.12809e-07
5.22734e-07
5.22814e-07
5.2273e-07
5.22809e-07
5.22782e-07
5.22726e-07
5.22777e-07
6.13589e-07
6.12823e-07
5.22731e-07
5.22732e-07
5.22726e-07
6.1281e-07
6.13569e-07
6.12796e-07
5.22794e-07
5.228e-07
5.22789e-07
5.22796e-07
6.13582e-07
6.12806e-07
5.22733e-07
5.22812e-07
5.22728e-07
5.22808e-07
5.2278e-07
5.22728e-07
5.22776e-07
6.13591e-07
6.12819e-07
5.2273e-07
5.22732e-07
5.22726e-07
6.12811e-07
6.13562e-07
6.12797e-07
5.22793e-07
5.22803e-07
5.22788e-07
5.22797e-07
6.13577e-07
6.12808e-07
5.22733e-07
5.22813e-07
5.22728e-07
5.22807e-07
5.22781e-07
5.22729e-07
5.22775e-07
6.13586e-07
6.1282e-07
5.22731e-07
5.22732e-07
5.22725e-07
6.12808e-07
6.13561e-07
6.128e-07
5.22793e-07
5.22801e-07
5.22789e-07
5.22798e-07
6.13577e-07
6.1281e-07
5.22733e-07
5.22811e-07
5.22729e-07
5.22807e-07
5.2278e-07
5.22728e-07
5.22775e-07
6.13585e-07
6.12822e-07
5.22729e-07
5.22731e-07
5.22725e-07
6.12804e-07
6.13563e-07
6.12802e-07
5.22795e-07
5.22805e-07
5.2279e-07
5.228e-07
6.1358e-07
6.12812e-07
5.22734e-07
5.22812e-07
5.22729e-07
5.22807e-07
5.2278e-07
5.22728e-07
5.22776e-07
6.13587e-07
6.1282e-07
5.22731e-07
5.22732e-07
5.22725e-07
6.12803e-07
6.13566e-07
6.12802e-07
5.22794e-07
5.22804e-07
5.22791e-07
5.22801e-07
6.13581e-07
6.12814e-07
5.22734e-07
5.22812e-07
5.2273e-07
5.22808e-07
5.22782e-07
5.22729e-07
5.22776e-07
6.13585e-07
6.12821e-07
5.2273e-07
5.22733e-07
5.22726e-07
6.12804e-07
6.13567e-07
6.12804e-07
5.22798e-07
5.22808e-07
5.22793e-07
5.22804e-07
6.13584e-07
6.12815e-07
5.22735e-07
5.22812e-07
5.22731e-07
5.22808e-07
5.2278e-07
5.22728e-07
5.22776e-07
6.13586e-07
6.12822e-07
5.22731e-07
5.22734e-07
5.22726e-07
6.12805e-07
6.13568e-07
6.12807e-07
5.22797e-07
5.22808e-07
5.22792e-07
5.22803e-07
6.13585e-07
6.12818e-07
5.22737e-07
5.22813e-07
5.22731e-07
5.22807e-07
5.22781e-07
5.22729e-07
5.22776e-07
6.13587e-07
6.12822e-07
5.2273e-07
5.22733e-07
5.22726e-07
6.12803e-07
6.13571e-07
6.12806e-07
5.22796e-07
5.22808e-07
5.22792e-07
5.22804e-07
6.13588e-07
6.12819e-07
5.22735e-07
5.22812e-07
5.2273e-07
5.22808e-07
5.22779e-07
5.22729e-07
5.22775e-07
6.13587e-07
6.12821e-07
5.22731e-07
5.22732e-07
5.22726e-07
6.12803e-07
6.13571e-07
6.12806e-07
5.22797e-07
5.22808e-07
5.22792e-07
5.22803e-07
6.1359e-07
6.12819e-07
5.22735e-07
5.22812e-07
5.2273e-07
5.22807e-07
5.22781e-07
5.22728e-07
5.22775e-07
6.13586e-07
6.12821e-07
5.2273e-07
5.22731e-07
5.22726e-07
6.12804e-07
6.1357e-07
6.12806e-07
5.22796e-07
5.22807e-07
5.22792e-07
5.22803e-07
6.13589e-07
6.12818e-07
5.22733e-07
5.22812e-07
5.22729e-07
5.22807e-07
5.22779e-07
5.22728e-07
5.22775e-07
6.13586e-07
6.12821e-07
5.22731e-07
5.22732e-07
5.22725e-07
6.12804e-07
6.13571e-07
6.12805e-07
5.22796e-07
5.22808e-07
5.22792e-07
5.22803e-07
6.13588e-07
6.12819e-07
5.22735e-07
5.22811e-07
5.22729e-07
5.22807e-07
5.22781e-07
5.22728e-07
5.22776e-07
6.13587e-07
6.1282e-07
5.22729e-07
5.22732e-07
5.22725e-07
6.12805e-07
6.13569e-07
6.12806e-07
5.22797e-07
5.22807e-07
5.22792e-07
5.22803e-07
6.13589e-07
6.12818e-07
5.22733e-07
5.22812e-07
5.22728e-07
5.22807e-07
5.22781e-07
5.22728e-07
5.22776e-07
6.13586e-07
6.12821e-07
5.22731e-07
5.22732e-07
5.22725e-07
6.12804e-07
6.1357e-07
6.12806e-07
5.22796e-07
5.22808e-07
5.22791e-07
5.22803e-07
6.13588e-07
6.12818e-07
5.22734e-07
5.22811e-07
5.22728e-07
5.22807e-07
5.22779e-07
5.22729e-07
5.22776e-07
6.13586e-07
6.12821e-07
5.22729e-07
5.22732e-07
5.22725e-07
6.12804e-07
6.1357e-07
6.12806e-07
5.22797e-07
5.22807e-07
5.22792e-07
5.22802e-07
6.13588e-07
6.12819e-07
5.22732e-07
5.22813e-07
5.22729e-07
5.22807e-07
5.22781e-07
5.22729e-07
5.22776e-07
6.13586e-07
6.12821e-07
5.22731e-07
5.22732e-07
5.22726e-07
6.12804e-07
6.1357e-07
6.12806e-07
5.22796e-07
5.22806e-07
5.22792e-07
5.22802e-07
6.13588e-07
6.12818e-07
5.22735e-07
5.22811e-07
5.2273e-07
5.22807e-07
5.2278e-07
5.22728e-07
5.22776e-07
6.13587e-07
6.1282e-07
5.2273e-07
5.22731e-07
5.22726e-07
6.12805e-07
6.1357e-07
6.12806e-07
5.22798e-07
5.22808e-07
5.22792e-07
5.22803e-07
6.13588e-07
6.12817e-07
5.22733e-07
5.22812e-07
5.22729e-07
5.22807e-07
5.2278e-07
5.22729e-07
5.22776e-07
6.13586e-07
6.12821e-07
5.22732e-07
5.22731e-07
5.22726e-07
6.12804e-07
6.1357e-07
6.12805e-07
5.22796e-07
5.22807e-07
5.22793e-07
5.22804e-07
6.13587e-07
6.1282e-07
5.22735e-07
5.22811e-07
5.22729e-07
5.22807e-07
5.22782e-07
5.2273e-07
5.22776e-07
6.13586e-07
6.12821e-07
5.2273e-07
5.22731e-07
5.22727e-07
6.12804e-07
6.13574e-07
6.12807e-07
5.22797e-07
5.22811e-07
5.2279e-07
5.22805e-07
6.13588e-07
6.12819e-07
5.22733e-07
5.22813e-07
5.2273e-07
5.22808e-07
5.2278e-07
5.2273e-07
5.22776e-07
6.13586e-07
6.1282e-07
5.22731e-07
5.22731e-07
5.22726e-07
6.12804e-07
6.13576e-07
6.12807e-07
5.22794e-07
5.22809e-07
5.22788e-07
5.22804e-07
6.13587e-07
6.12817e-07
5.22738e-07
5.22812e-07
5.22734e-07
5.22807e-07
5.22781e-07
5.22729e-07
5.22775e-07
6.13586e-07
6.1282e-07
5.22731e-07
5.22731e-07
5.22726e-07
6.12804e-07
6.13576e-07
6.12808e-07
5.22792e-07
5.22808e-07
5.22786e-07
5.22803e-07
6.13585e-07
6.12816e-07
5.22739e-07
5.22812e-07
5.22733e-07
5.22807e-07
5.2278e-07
5.22728e-07
5.22776e-07
6.13586e-07
6.1282e-07
5.22731e-07
5.22732e-07
5.22726e-07
6.12804e-07
6.13576e-07
6.12806e-07
5.2279e-07
5.22807e-07
5.22785e-07
5.22803e-07
6.13585e-07
6.12815e-07
5.22737e-07
5.22811e-07
5.22733e-07
5.22807e-07
5.22779e-07
5.22728e-07
5.22775e-07
6.13586e-07
6.12821e-07
5.2273e-07
5.22733e-07
5.22725e-07
6.12804e-07
6.13575e-07
6.12805e-07
5.2279e-07
5.22807e-07
5.22785e-07
5.22801e-07
6.13584e-07
6.12815e-07
5.22739e-07
5.22814e-07
5.22734e-07
5.22809e-07
5.2278e-07
5.22727e-07
5.22775e-07
6.13586e-07
6.12822e-07
5.22731e-07
5.22732e-07
5.22725e-07
6.12803e-07
6.13573e-07
6.12805e-07
5.22789e-07
5.22805e-07
5.22784e-07
5.228e-07
6.13583e-07
6.12814e-07
5.22738e-07
5.22812e-07
5.22733e-07
5.22808e-07
5.22779e-07
5.22727e-07
5.22775e-07
6.13587e-07
6.12821e-07
5.22729e-07
5.22731e-07
5.22725e-07
6.12802e-07
6.13574e-07
6.12804e-07
5.22789e-07
5.22805e-07
5.22784e-07
5.228e-07
6.13582e-07
6.12812e-07
5.22738e-07
5.22815e-07
5.22733e-07
5.22809e-07
5.22781e-07
5.22728e-07
5.22775e-07
6.13587e-07
6.12822e-07
5.22731e-07
5.22731e-07
5.22725e-07
6.12802e-07
6.13573e-07
6.12804e-07
5.22789e-07
5.22804e-07
5.22784e-07
5.22799e-07
6.1358e-07
6.12811e-07
5.22737e-07
5.22813e-07
5.22733e-07
5.22808e-07
5.2278e-07
5.22728e-07
5.22776e-07
6.13587e-07
6.12822e-07
5.2273e-07
5.2273e-07
5.22726e-07
6.12803e-07
6.13572e-07
6.12802e-07
5.2279e-07
5.22803e-07
5.22785e-07
5.22798e-07
6.1358e-07
6.12809e-07
5.22738e-07
5.22813e-07
5.22732e-07
5.22808e-07
5.2278e-07
5.22727e-07
5.22777e-07
6.13587e-07
6.12821e-07
5.22731e-07
5.2273e-07
5.22727e-07
6.12802e-07
6.13571e-07
6.12801e-07
5.22788e-07
5.22802e-07
5.22784e-07
5.22797e-07
6.13577e-07
6.12808e-07
5.22736e-07
5.22812e-07
5.22732e-07
5.22808e-07
5.22783e-07
5.22727e-07
5.22776e-07
6.13587e-07
6.12822e-07
5.22732e-07
5.22732e-07
5.22726e-07
6.12804e-07
6.1357e-07
6.128e-07
5.22788e-07
5.22801e-07
5.22783e-07
5.22795e-07
6.13576e-07
6.12808e-07
5.22737e-07
5.22813e-07
5.22731e-07
5.22808e-07
5.2278e-07
5.22728e-07
5.22776e-07
6.13587e-07
6.12821e-07
5.2273e-07
5.22732e-07
5.22726e-07
6.12804e-07
6.13568e-07
6.128e-07
5.22787e-07
5.22799e-07
5.22783e-07
5.22794e-07
6.13576e-07
6.12806e-07
5.22735e-07
5.22812e-07
5.22731e-07
5.22808e-07
5.22781e-07
5.22728e-07
5.22775e-07
6.13587e-07
6.12821e-07
5.22731e-07
5.22731e-07
5.22726e-07
6.12803e-07
6.13568e-07
6.128e-07
5.22788e-07
5.22798e-07
5.22783e-07
5.22794e-07
6.13574e-07
6.12804e-07
5.22737e-07
5.22814e-07
5.22732e-07
5.22808e-07
5.2278e-07
5.22727e-07
5.22776e-07
6.13586e-07
6.12821e-07
5.22731e-07
5.2273e-07
5.22726e-07
6.12804e-07
6.13569e-07
6.12799e-07
5.22788e-07
5.228e-07
5.22784e-07
5.22795e-07
6.13572e-07
6.12804e-07
5.22736e-07
5.22812e-07
5.22732e-07
5.22808e-07
5.2278e-07
5.22726e-07
5.22776e-07
6.13586e-07
6.12821e-07
5.2273e-07
5.2273e-07
5.22726e-07
6.12805e-07
6.13568e-07
6.12799e-07
5.22789e-07
5.22799e-07
5.22784e-07
5.22794e-07
6.13573e-07
6.12804e-07
5.22738e-07
5.22814e-07
5.22733e-07
5.22808e-07
5.22781e-07
5.22729e-07
5.22776e-07
6.13587e-07
6.12821e-07
5.22732e-07
5.22729e-07
5.22726e-07
6.12805e-07
6.13568e-07
6.128e-07
5.22788e-07
5.22799e-07
5.22783e-07
5.22794e-07
6.13572e-07
6.12804e-07
5.22737e-07
5.22812e-07
5.22732e-07
5.22808e-07
5.22781e-07
5.22732e-07
5.22775e-07
6.13586e-07
6.12821e-07
5.2273e-07
5.22729e-07
5.22726e-07
6.12804e-07
6.13569e-07
6.128e-07
5.22789e-07
5.22798e-07
5.22784e-07
5.22794e-07
6.13572e-07
6.12804e-07
5.22736e-07
5.22813e-07
5.22732e-07
5.22807e-07
5.2278e-07
5.22731e-07
5.22775e-07
6.13586e-07
6.1282e-07
5.22732e-07
5.22729e-07
5.22726e-07
6.12803e-07
6.13569e-07
6.12799e-07
5.22787e-07
5.22798e-07
5.22784e-07
5.22794e-07
6.13572e-07
6.12803e-07
5.22737e-07
5.22811e-07
5.22732e-07
5.22808e-07
5.2278e-07
5.2273e-07
5.22775e-07
6.13585e-07
6.12821e-07
5.22729e-07
5.2273e-07
5.22725e-07
6.12803e-07
6.13568e-07
6.128e-07
5.22789e-07
5.22798e-07
5.22784e-07
5.22794e-07
6.13572e-07
6.12803e-07
5.22735e-07
5.22812e-07
5.22732e-07
5.22808e-07
5.2278e-07
5.22729e-07
5.22775e-07
6.13586e-07
6.1282e-07
5.22731e-07
5.2273e-07
5.22726e-07
6.12803e-07
6.13568e-07
6.12801e-07
5.22789e-07
5.22798e-07
5.22784e-07
5.22794e-07
6.13572e-07
6.12803e-07
5.22738e-07
5.22814e-07
5.22732e-07
5.22808e-07
5.22781e-07
5.22728e-07
5.22776e-07
6.13586e-07
6.12821e-07
5.22731e-07
5.2273e-07
5.22726e-07
6.12803e-07
6.1357e-07
6.12801e-07
5.22788e-07
5.22798e-07
5.22783e-07
5.22793e-07
6.13571e-07
6.12803e-07
5.22736e-07
5.22812e-07
5.22732e-07
5.22808e-07
5.22779e-07
5.22728e-07
5.22776e-07
6.13587e-07
6.12821e-07
5.2273e-07
5.2273e-07
5.22726e-07
6.12804e-07
6.1357e-07
6.128e-07
5.22789e-07
5.22798e-07
5.22783e-07
5.22794e-07
6.13572e-07
6.12802e-07
5.22737e-07
5.22814e-07
5.22732e-07
5.22809e-07
5.22782e-07
5.22729e-07
5.22776e-07
6.13586e-07
6.12821e-07
5.22732e-07
5.2273e-07
5.22726e-07
6.12803e-07
6.1357e-07
6.12799e-07
5.22787e-07
5.22799e-07
5.22783e-07
5.22794e-07
6.13571e-07
6.12803e-07
5.22737e-07
5.22813e-07
5.22732e-07
5.22808e-07
5.2278e-07
5.22729e-07
5.22776e-07
6.13587e-07
6.12822e-07
5.2273e-07
5.22731e-07
5.22726e-07
6.12804e-07
6.13568e-07
6.12799e-07
5.22789e-07
5.22797e-07
5.22784e-07
5.22793e-07
6.13572e-07
6.12803e-07
5.22736e-07
5.22812e-07
5.22732e-07
5.22808e-07
5.22781e-07
5.22728e-07
5.22776e-07
6.13587e-07
6.12821e-07
5.22732e-07
5.2273e-07
5.22726e-07
6.12805e-07
6.13568e-07
6.128e-07
5.22787e-07
5.22799e-07
5.22783e-07
5.22793e-07
6.13572e-07
6.12803e-07
5.22737e-07
5.22812e-07
5.22732e-07
5.22807e-07
5.22781e-07
5.22728e-07
5.22776e-07
6.13587e-07
6.1282e-07
5.2273e-07
5.22729e-07
5.22726e-07
6.12805e-07
6.13568e-07
6.128e-07
5.22789e-07
5.22798e-07
5.22784e-07
5.22794e-07
6.13571e-07
6.12802e-07
5.22736e-07
5.22812e-07
5.22732e-07
5.22807e-07
5.2278e-07
5.22728e-07
5.22775e-07
6.13585e-07
6.1282e-07
5.2273e-07
5.22729e-07
5.22726e-07
6.12804e-07
6.13569e-07
6.12799e-07
5.22787e-07
5.22798e-07
5.22783e-07
5.22794e-07
6.13571e-07
6.12804e-07
5.22737e-07
5.22811e-07
5.22732e-07
5.22807e-07
5.22781e-07
5.22728e-07
5.22775e-07
6.13586e-07
6.1282e-07
5.22731e-07
5.2273e-07
5.22726e-07
6.12804e-07
6.13568e-07
6.128e-07
5.22788e-07
5.22799e-07
5.22783e-07
5.22794e-07
6.13572e-07
6.12804e-07
5.22736e-07
5.22813e-07
5.22731e-07
5.22807e-07
5.22779e-07
5.22728e-07
5.22775e-07
6.13586e-07
6.1282e-07
5.2273e-07
5.2273e-07
5.22725e-07
6.12803e-07
6.13569e-07
6.12799e-07
5.22787e-07
5.22798e-07
5.22783e-07
5.22793e-07
6.13572e-07
6.12803e-07
5.22737e-07
5.22811e-07
5.22731e-07
5.22807e-07
5.22781e-07
5.22728e-07
5.22775e-07
6.13585e-07
6.12821e-07
5.2273e-07
5.22731e-07
5.22725e-07
6.12802e-07
6.13568e-07
6.12799e-07
5.22787e-07
5.22799e-07
5.22783e-07
5.22794e-07
6.13571e-07
6.12803e-07
5.22735e-07
5.22813e-07
5.22731e-07
5.22807e-07
5.22779e-07
5.22728e-07
5.22774e-07
6.13586e-07
6.12821e-07
5.22729e-07
5.2273e-07
5.22724e-07
6.12802e-07
6.13568e-07
6.12799e-07
5.22787e-07
5.22798e-07
5.22783e-07
5.22794e-07
6.13571e-07
6.12803e-07
5.22737e-07
5.22812e-07
5.22732e-07
5.22808e-07
5.22779e-07
5.22729e-07
5.22774e-07
6.13586e-07
6.12821e-07
5.2273e-07
5.22732e-07
5.22724e-07
6.12803e-07
6.13568e-07
6.12799e-07
5.22788e-07
5.228e-07
5.22784e-07
5.22794e-07
6.13571e-07
6.12802e-07
5.22735e-07
5.22812e-07
5.22732e-07
5.22808e-07
5.2278e-07
5.22728e-07
5.22776e-07
6.13586e-07
6.12821e-07
5.22729e-07
5.22732e-07
5.22725e-07
6.12801e-07
6.13569e-07
6.12798e-07
5.22787e-07
5.22798e-07
5.22783e-07
5.22794e-07
6.13571e-07
6.12803e-07
5.22737e-07
5.22813e-07
5.22732e-07
5.22808e-07
5.22781e-07
5.22729e-07
5.22775e-07
6.13586e-07
6.12821e-07
5.2273e-07
5.22732e-07
5.22725e-07
6.12801e-07
6.13568e-07
6.12799e-07
5.22788e-07
5.22799e-07
5.22783e-07
5.22793e-07
6.13571e-07
6.12803e-07
5.22737e-07
5.22812e-07
5.22732e-07
5.22808e-07
5.22779e-07
5.22729e-07
5.22775e-07
6.13587e-07
6.12821e-07
5.2273e-07
5.22731e-07
5.22726e-07
6.12806e-07
6.13568e-07
6.128e-07
5.22787e-07
5.22798e-07
5.22783e-07
5.22794e-07
6.13571e-07
6.12803e-07
5.22736e-07
5.22814e-07
5.22732e-07
5.22808e-07
5.22781e-07
5.22728e-07
5.22775e-07
6.13586e-07
6.12821e-07
5.2273e-07
5.2273e-07
5.22725e-07
6.12804e-07
6.13569e-07
6.12799e-07
5.22789e-07
5.22797e-07
5.22783e-07
5.22793e-07
6.13571e-07
6.12803e-07
5.22738e-07
5.22812e-07
5.22732e-07
5.22808e-07
5.2278e-07
5.22728e-07
5.22775e-07
6.13586e-07
6.12821e-07
5.22731e-07
5.22731e-07
5.22725e-07
6.12803e-07
6.13568e-07
6.12801e-07
5.22787e-07
5.22799e-07
5.22783e-07
5.22794e-07
6.13571e-07
6.12802e-07
5.22736e-07
5.22813e-07
5.22732e-07
5.22808e-07
5.2278e-07
5.22728e-07
5.22775e-07
6.13586e-07
6.12821e-07
5.22729e-07
5.2273e-07
5.22725e-07
6.12804e-07
6.13569e-07
6.128e-07
5.22788e-07
5.22798e-07
5.22783e-07
5.22794e-07
6.13571e-07
6.12803e-07
5.22737e-07
5.22812e-07
5.22731e-07
5.22808e-07
5.22779e-07
5.22728e-07
5.22775e-07
6.13586e-07
6.12821e-07
5.22731e-07
5.22731e-07
5.22725e-07
6.12805e-07
6.13569e-07
6.12799e-07
5.22787e-07
5.22798e-07
5.22782e-07
5.22793e-07
6.13571e-07
6.12803e-07
5.22736e-07
5.22812e-07
5.22731e-07
5.22807e-07
5.22781e-07
5.22728e-07
5.22775e-07
6.13586e-07
6.12821e-07
5.22729e-07
5.22732e-07
5.22724e-07
6.12804e-07
6.13568e-07
6.12799e-07
5.22786e-07
5.22797e-07
5.22782e-07
5.22792e-07
6.13571e-07
6.12803e-07
5.22735e-07
5.22811e-07
5.2273e-07
5.22806e-07
5.2278e-07
5.22729e-07
5.22775e-07
6.13586e-07
6.12821e-07
5.2273e-07
5.22733e-07
5.22725e-07
6.12804e-07
6.13568e-07
6.12799e-07
5.22787e-07
5.22797e-07
5.22781e-07
5.22791e-07
6.13571e-07
6.12802e-07
5.22735e-07
5.22811e-07
5.22729e-07
5.22805e-07
5.2278e-07
5.22732e-07
5.22774e-07
6.13586e-07
6.12821e-07
5.22729e-07
5.22735e-07
5.22724e-07
6.12804e-07
6.13568e-07
6.12799e-07
5.22787e-07
5.22797e-07
5.22782e-07
5.22792e-07
6.13571e-07
6.12802e-07
5.22735e-07
5.22811e-07
5.2273e-07
5.22806e-07
5.22779e-07
5.22733e-07
5.22775e-07
6.13586e-07
6.12821e-07
5.22729e-07
5.22736e-07
5.22724e-07
6.12803e-07
6.13568e-07
6.128e-07
5.22788e-07
5.22798e-07
5.22785e-07
5.22795e-07
6.13571e-07
6.12803e-07
5.22736e-07
5.22812e-07
5.22734e-07
5.22809e-07
5.22781e-07
5.22735e-07
5.22779e-07
6.13586e-07
6.12822e-07
5.2273e-07
5.22738e-07
5.22729e-07
6.12803e-07
6.13569e-07
6.128e-07
5.22794e-07
5.22804e-07
5.22786e-07
5.22796e-07
6.13571e-07
6.12803e-07
5.22742e-07
5.22817e-07
5.22735e-07
5.2281e-07
5.22787e-07
5.22736e-07
5.2278e-07
6.13587e-07
6.12822e-07
5.22738e-07
5.22739e-07
5.2273e-07
6.12804e-07
6.13569e-07
6.128e-07
5.22793e-07
5.22803e-07
5.22788e-07
5.22797e-07
6.13571e-07
6.12805e-07
5.22741e-07
5.22817e-07
5.22736e-07
5.22811e-07
5.22786e-07
5.22737e-07
5.22779e-07
6.13587e-07
6.12823e-07
5.22737e-07
5.2274e-07
5.2273e-07
6.12803e-07
6.13569e-07
6.12799e-07
5.22796e-07
5.22806e-07
5.22786e-07
5.22796e-07
6.13573e-07
6.12804e-07
5.22744e-07
5.2282e-07
5.22734e-07
5.2281e-07
5.22788e-07
5.22737e-07
5.22779e-07
6.13588e-07
6.12823e-07
5.2274e-07
5.22741e-07
5.22731e-07
6.12803e-07
6.13568e-07
6.12799e-07
5.22797e-07
5.22807e-07
5.22788e-07
5.22798e-07
6.13573e-07
6.12804e-07
5.22745e-07
5.22821e-07
5.22736e-07
5.22812e-07
5.2279e-07
5.22738e-07
5.22781e-07
6.13589e-07
6.12822e-07
5.22741e-07
5.22742e-07
5.22732e-07
6.12803e-07
6.13569e-07
6.12798e-07
5.22801e-07
5.2281e-07
5.22787e-07
5.22797e-07
6.13572e-07
6.12803e-07
5.22749e-07
5.22824e-07
5.22736e-07
5.22811e-07
5.22793e-07
5.22738e-07
5.2278e-07
6.13588e-07
6.12822e-07
5.22744e-07
5.22741e-07
5.22731e-07
6.12802e-07
6.13567e-07
6.12796e-07
5.22802e-07
5.22812e-07
5.22785e-07
5.22795e-07
6.13572e-07
6.12801e-07
5.2275e-07
5.22826e-07
5.22733e-07
5.22808e-07
5.22794e-07
5.22735e-07
5.22777e-07
6.13587e-07
6.1282e-07
5.22745e-07
5.22738e-07
5.22727e-07
6.12799e-07
6.13565e-07
6.12794e-07
5.22802e-07
5.22812e-07
5.22778e-07
5.22788e-07
6.1357e-07
6.12799e-07
5.2275e-07
5.22825e-07
5.22727e-07
5.22802e-07
5.22794e-07
5.22729e-07
5.2277e-07
6.13585e-07
6.12816e-07
5.22744e-07
5.22731e-07
5.2272e-07
6.12796e-07
6.13562e-07
6.12788e-07
5.22799e-07
5.22809e-07
5.22766e-07
5.22776e-07
6.13567e-07
6.12794e-07
5.22748e-07
5.22822e-07
5.22714e-07
5.22789e-07
5.22791e-07
5.22717e-07
5.22758e-07
6.1358e-07
6.12811e-07
5.22741e-07
5.22718e-07
5.22707e-07
6.12791e-07
6.13553e-07
6.12777e-07
5.22791e-07
5.22801e-07
5.22741e-07
5.22751e-07
6.13558e-07
6.12785e-07
5.22739e-07
5.22814e-07
5.22689e-07
5.22763e-07
5.22783e-07
5.22693e-07
5.22731e-07
6.13572e-07
6.128e-07
5.22732e-07
5.22693e-07
5.22682e-07
6.12777e-07
6.13533e-07
6.12686e-07
5.22769e-07
5.22778e-07
5.22588e-07
5.22597e-07
6.1354e-07
6.12691e-07
5.22718e-07
5.2279e-07
5.22538e-07
5.22608e-07
5.22758e-07
5.2254e-07
5.22574e-07
6.13555e-07
6.12707e-07
5.22708e-07
5.2254e-07
5.22528e-07
6.12691e-07
6.13404e-07
6.05897e-07
5.22739e-07
5.22749e-07
5.16714e-07
5.16713e-07
6.13413e-07
6.05899e-07
5.22687e-07
5.22758e-07
5.16679e-07
5.16714e-07
5.22726e-07
5.16676e-07
5.16684e-07
6.13425e-07
6.05904e-07
5.2268e-07
5.16671e-07
5.16654e-07
6.05871e-07
5.97879e-07
5.10828e-07
5.10826e-07
5.97879e-07
5.10803e-07
5.10828e-07
4.39236e-07
4.39235e-07
4.39227e-07
5.10797e-07
5.97883e-07
5.10777e-07
4.10074e-07
1.57509e-07
3.33666e-07
3.33619e-07
9.59757e-10
2.99225e-08
1.59327e-08
2.39512e-07
9.0961e-10
3.5624e-08
2.39394e-07
2.01277e-07
1.17703e-08
2.23106e-08
2.76836e-08
6.48603e-09
1.88757e-07
4.66066e-09
2.92157e-07
1.6724e-06
3.22761e-06
6.48973e-09
1.92269e-07
4.58703e-09
2.89329e-07
2.41453e-07
2.40939e-07
2.41789e-07
2.45166e-07
2.44225e-07
2.43463e-07
2.44502e-07
1.01526e-09
9.5162e-08
1.25838e-07
3.49906e-08
9.95479e-10
7.19774e-08
1.26017e-07
1.81592e-06
3.50126e-06
1.12137e-09
1.24515e-07
2.49677e-07
4.49915e-08
1.02636e-09
1.2525e-07
2.20998e-07
2.21055e-07
2.21917e-07
1.23404e-08
1.85254e-07
1.97634e-07
1.62231e-08
5.3025e-07
1.05734e-08
7.70256e-07
7.2993e-06
1.03499e-05
1.52494e-08
5.50152e-07
1.08552e-08
7.4972e-07
2.46628e-07
2.46015e-07
2.46895e-07
2.54771e-07
2.54037e-07
2.53688e-07