/*--------------------------------*- C++ -*----------------------------------*\
| =========                 |                                                 |
| \\      /  F ield         | OpenFOAM: The Open Source CFD Toolbox           |
|  \\    /   O peration     | Version:  v2012                                 |
|   \\  /    A nd           | Website:  www.openfoam.com                      |
|    \\/     M anipulation  |                                                 |
\*---------------------------------------------------------------------------*/
FoamFile
{
    version     2.0;
    format      ascii;
    class       volScalarField;
    location    "62.5";
    object      nut;
}
// * * * * * * * * * * * * * * * * * * * * * * * * * * * * * * * * * * * * * //

dimensions      [0 2 -1 0 0 0 0];


internalField   nonuniform List<scalar> 
171728
(
6.96893e-05
1.13705e-05
1.30548e-05
2.27276e-06
7.13954e-05
1.35304e-05
1.47381e-05
2.98952e-06
7.41277e-05
1.6931e-05
1.78118e-05
4.94798e-06
7.67658e-05
2.14378e-05
2.21585e-05
7.78007e-06
7.93544e-05
2.65714e-05
2.71948e-05
1.06937e-05
8.18556e-05
3.218e-05
3.28073e-05
1.43146e-05
8.43773e-05
3.89879e-05
3.93294e-05
1.9774e-05
8.72628e-05
4.68659e-05
4.71643e-05
2.68717e-05
9.09625e-05
5.58547e-05
5.59628e-05
3.59936e-05
9.53729e-05
6.54791e-05
6.55995e-05
4.68346e-05
0.000101073
7.62736e-05
7.63311e-05
5.93557e-05
0.000107601
8.67457e-05
8.67627e-05
7.2681e-05
0.000114423
9.75812e-05
9.75767e-05
8.56832e-05
0.000118918
0.00010533
0.000105326
9.49872e-05
0.000123368
0.000113425
0.000113423
0.000104814
0.000126342
0.000118676
0.000118674
0.000111154
0.00012731
0.000120189
0.000120187
0.000112771
0.000127483
0.000120419
0.000120418
0.000112937
0.000127507
0.000120451
0.000120451
0.000112971
0.00012751
0.000120456
0.000120456
0.00011297
0.000127511
0.000120456
0.000120456
0.000112971
0.000127512
0.000120456
0.000120456
0.000112974
0.000127514
0.000120459
0.000120458
0.000112974
0.000127515
0.00012046
0.000120461
0.000112974
0.000127517
0.000120461
0.000120462
0.000112975
0.000127518
0.000120461
0.000120462
0.000112975
0.000127518
0.000120461
0.000120461
0.000112975
0.000127518
0.000120461
0.000120461
0.000112975
0.000127518
0.000120461
0.000120462
0.000112976
0.000127519
0.000120461
0.000120462
0.000112976
0.000127518
0.000120461
0.000120461
0.000112976
0.000127517
0.000120461
0.000120461
0.000112976
0.000127518
0.000120461
0.000120461
0.000112976
0.000127517
0.000120461
0.000120462
0.000112976
0.000127517
0.000120461
0.000120461
0.000112976
0.000127516
0.000120461
0.000120461
0.000112976
0.000127516
0.000120461
0.000120461
0.000112976
0.000127517
0.000120461
0.000120461
0.000112976
0.000127517
0.00012046
0.000120461
0.000112976
0.000127517
0.00012046
0.000120461
0.000112976
0.000127517
0.000120461
0.000120461
0.000112976
0.000127518
0.000120461
0.000120461
0.000112976
0.000127518
0.000120461
0.000120462
0.000112976
0.000127517
0.000120461
0.000120461
0.000112976
0.000127517
0.000120461
0.000120461
0.000112976
0.000127518
0.000120461
0.000120461
0.000112976
0.000127517
0.000120461
0.000120461
0.000112976
0.000127517
0.000120461
0.000120461
0.000112976
0.000127518
0.000120461
0.000120461
0.000112976
0.000127517
0.000120461
0.000120461
0.000112976
0.000127517
0.000120461
0.000120461
0.000112976
0.000127517
0.000120462
0.000120461
0.000112976
0.000127518
0.000120461
0.000120461
0.000112976
0.000127518
0.000120461
0.000120461
0.000112976
0.000127518
0.000120461
0.00012046
0.000112976
0.000127517
0.000120461
0.000120461
0.000112976
0.000127517
0.000120461
0.000120461
0.000112976
0.000127517
0.00012046
0.000120461
0.000112976
0.000127517
0.00012046
0.000120461
0.000112976
0.000127516
0.00012046
0.000120461
0.000112976
0.000127516
0.00012046
0.000120461
0.000112976
0.000127516
0.00012046
0.000120461
0.000112976
0.000127517
0.00012046
0.000120461
0.000112976
0.000127517
0.000120461
0.000120461
0.000112976
0.000127517
0.00012046
0.000120461
0.000112976
0.000127516
0.00012046
0.000120461
0.000112976
0.000127516
0.00012046
0.000120461
0.000112976
0.000127516
0.00012046
0.000120461
0.000112976
0.000127516
0.000120461
0.000120461
0.000112976
0.000127516
0.000120461
0.000120461
0.000112976
0.000127516
0.00012046
0.000120461
0.000112976
0.000127517
0.000120461
0.000120462
0.000112976
0.000127517
0.000120461
0.000120462
0.000112975
0.000127517
0.000120461
0.000120461
0.000112976
0.000127516
0.000120461
0.000120461
0.000112976
0.000127516
0.00012046
0.000120461
0.000112976
0.000127517
0.00012046
0.000120461
0.000112976
0.000127517
0.00012046
0.000120461
0.000112976
0.000127516
0.00012046
0.000120461
0.000112976
0.000127517
0.00012046
0.000120462
0.000112976
0.000127517
0.00012046
0.000120461
0.000112976
0.000127517
0.00012046
0.000120461
0.000112976
0.000127517
0.000120461
0.000120461
0.000112976
0.000127517
0.000120461
0.000120461
0.000112976
0.000127517
0.00012046
0.000120461
0.000112976
0.000127516
0.00012046
0.000120461
0.000112976
0.000127516
0.00012046
0.000120461
0.000112977
0.000127516
0.000120461
0.000120462
0.000112977
0.000127516
0.000120461
0.000120462
0.000112977
0.000127516
0.000120463
0.000120463
0.000112978
0.000127517
0.000120465
0.000120466
0.000112979
0.000127517
0.000120469
0.00012047
0.000112982
0.000127518
0.000120477
0.000120477
0.000112986
0.000127519
0.000120472
0.000120473
0.000112996
0.000127714
0.000121152
0.000121152
0.000114115
2.30091e-06
9.49875e-06
1.1123e-05
2.85005e-06
9.61232e-06
1.01235e-05
7.0271e-05
7.02249e-05
7.02333e-05
7.02462e-05
9.4187e-06
9.58119e-06
2.52344e-06
1.03743e-05
9.45499e-06
2.28985e-06
2.287e-06
2.8396e-06
1.19367e-05
1.31504e-05
1.34617e-05
1.44146e-05
2.8447e-06
3.62331e-06
1.21224e-05
1.2717e-05
1.36879e-05
1.40634e-05
1.20027e-05
1.28032e-05
1.36408e-05
2.51205e-06
3.11755e-06
1.14876e-05
1.41104e-05
1.27907e-05
2.9471e-06
2.85979e-06
4.54541e-06
1.42467e-05
1.50544e-05
1.68994e-05
1.72746e-05
3.6594e-06
5.20796e-06
1.44659e-05
1.478e-05
1.70952e-05
1.72917e-05
1.44576e-05
1.60054e-05
1.71636e-05
3.13874e-06
4.66718e-06
1.35035e-05
1.6917e-05
1.60719e-05
4.81579e-06
4.66372e-06
7.35652e-06
1.78719e-05
1.81155e-05
2.11188e-05
2.10404e-05
5.30949e-06
7.81578e-06
1.80281e-05
1.82053e-05
2.11524e-05
2.12402e-05
1.81318e-05
2.02336e-05
2.13372e-05
4.77881e-06
7.5983e-06
1.70309e-05
2.09938e-05
2.02395e-05
7.63043e-06
7.50718e-06
1.02931e-05
2.22631e-05
2.21377e-05
2.59395e-05
2.56899e-05
7.96194e-06
1.07006e-05
2.22626e-05
2.2381e-05
2.5762e-05
2.60122e-05
2.24495e-05
2.52498e-05
2.59669e-05
7.78042e-06
1.07183e-05
2.14205e-05
2.58742e-05
2.51969e-05
1.05517e-05
1.0429e-05
1.38839e-05
2.71941e-05
2.69609e-05
3.12205e-05
3.09657e-05
1.08317e-05
1.40777e-05
2.69838e-05
2.72486e-05
3.10919e-05
3.1097e-05
2.71687e-05
3.066e-05
3.11739e-05
1.08478e-05
1.41809e-05
2.65313e-05
3.13024e-05
3.06446e-05
1.40683e-05
1.41484e-05
1.94298e-05
3.27438e-05
3.24617e-05
3.75071e-05
3.7301e-05
1.43117e-05
1.92863e-05
3.26819e-05
3.25801e-05
3.77565e-05
3.73961e-05
3.27244e-05
3.71458e-05
3.76257e-05
1.44195e-05
1.94622e-05
3.2164e-05
3.75806e-05
3.70878e-05
1.93933e-05
1.98181e-05
2.64754e-05
3.92495e-05
3.91108e-05
4.48671e-05
4.48984e-05
1.96665e-05
2.63742e-05
3.9569e-05
3.92033e-05
4.52331e-05
4.49587e-05
3.93904e-05
4.48427e-05
4.49818e-05
1.98427e-05
2.65885e-05
3.89087e-05
4.52326e-05
4.47783e-05
2.63486e-05
2.69934e-05
3.53429e-05
4.67821e-05
4.69252e-05
5.33186e-05
5.35135e-05
2.69132e-05
3.54175e-05
4.71958e-05
4.69606e-05
5.35431e-05
5.35178e-05
4.69188e-05
5.34456e-05
5.33809e-05
2.71107e-05
3.55439e-05
4.68022e-05
5.3517e-05
5.33698e-05
3.52899e-05
3.60365e-05
4.65732e-05
5.58018e-05
5.59117e-05
6.30024e-05
6.30219e-05
3.6116e-05
4.66414e-05
5.59291e-05
5.59342e-05
6.31486e-05
6.30427e-05
5.5834e-05
6.30072e-05
6.30551e-05
3.62429e-05
4.66871e-05
5.58e-05
6.31572e-05
6.29905e-05
4.65756e-05
4.68357e-05
5.88508e-05
6.54801e-05
6.54946e-05
7.35889e-05
7.35206e-05
4.68864e-05
5.86868e-05
6.56273e-05
6.54925e-05
7.36511e-05
7.35306e-05
6.55212e-05
7.35259e-05
7.35589e-05
4.69208e-05
5.8675e-05
6.5468e-05
7.35883e-05
7.35336e-05
5.87416e-05
5.94798e-05
7.15443e-05
7.63485e-05
7.62596e-05
8.40762e-05
8.40317e-05
5.92875e-05
7.15067e-05
7.63925e-05
7.62908e-05
8.41073e-05
8.40461e-05
7.6308e-05
8.40469e-05
8.40368e-05
5.92886e-05
7.14353e-05
7.62892e-05
8.40765e-05
8.40332e-05
7.14567e-05
7.27727e-05
8.44397e-05
8.67552e-05
8.67367e-05
9.50428e-05
9.50551e-05
7.27565e-05
8.44731e-05
8.67845e-05
8.67344e-05
9.50613e-05
9.50356e-05
8.6722e-05
9.50632e-05
9.50254e-05
7.26774e-05
8.44235e-05
8.67223e-05
9.50605e-05
9.50323e-05
8.44108e-05
8.57224e-05
9.39882e-05
9.75623e-05
9.75728e-05
0.000103487
0.000103489
8.57517e-05
9.39937e-05
9.75773e-05
9.75563e-05
0.000103495
0.000103482
9.75487e-05
0.000103501
0.000103481
8.57072e-05
9.39866e-05
9.75561e-05
0.000103498
0.000103488
9.39831e-05
9.50015e-05
0.000103587
0.000105318
0.000105318
0.000111439
0.000111436
9.50055e-05
0.000103588
0.000105325
0.000105313
0.000111445
0.000111434
0.000105314
0.000111448
0.000111437
9.49975e-05
0.000103587
0.00010532
0.000111448
0.000111444
0.000103585
0.000104824
0.000110603
0.000113416
0.000113413
0.000117781
0.000117778
0.000104823
0.000110604
0.000113422
0.000113411
0.000117788
0.000117777
0.000113414
0.000117791
0.000117779
0.000104821
0.000110603
0.00011342
0.00011779
0.000117787
0.000110597
0.000111162
0.000112765
0.000118667
0.000118664
0.000120008
0.000120005
0.000111163
0.000112764
0.000118673
0.000118662
0.000120015
0.000120003
0.000118664
0.000120016
0.000120006
0.000111161
0.000112764
0.000118672
0.000120016
0.000120013
0.000112759
0.000112777
0.000112991
0.000120181
0.000120177
0.000120389
0.000120385
0.000112777
0.00011299
0.000120187
0.000120176
0.000120396
0.000120384
0.000120178
0.000120396
0.000120386
0.000112776
0.000112989
0.000120186
0.000120396
0.000120394
0.000112983
0.000112945
0.000113035
0.000120412
0.000120408
0.000120441
0.000120437
0.000112944
0.000113034
0.000120419
0.000120407
0.000120448
0.000120435
0.000120409
0.000120448
0.000120436
0.000112943
0.000113033
0.000120416
0.000120447
0.000120444
0.000113026
0.00011298
0.00011304
0.000120445
0.00012044
0.000120449
0.000120444
0.000112979
0.00011304
0.000120451
0.000120439
0.000120456
0.000120444
0.00012044
0.000120456
0.000120443
0.000112978
0.000113039
0.000120447
0.000120455
0.00012045
0.000113029
0.000112982
0.000113041
0.000120449
0.000120445
0.000120449
0.000120445
0.000112981
0.00011304
0.000120456
0.000120444
0.000120456
0.000120444
0.000120443
0.000120456
0.000120443
0.00011298
0.000113039
0.00012045
0.000120456
0.00012045
0.000113029
0.000112983
0.000113042
0.000120449
0.000120444
0.000120449
0.000120445
0.000112982
0.000113041
0.000120455
0.000120443
0.000120456
0.000120444
0.000120442
0.000120456
0.000120444
0.000112981
0.00011304
0.00012045
0.000120455
0.000120451
0.000113031
0.000112984
0.000113045
0.000120449
0.000120445
0.000120451
0.000120449
0.000112983
0.000113043
0.000120456
0.000120444
0.00012046
0.000120447
0.000120444
0.000120458
0.000120447
0.000112982
0.000113042
0.000120452
0.000120458
0.000120455
0.000113032
0.000112987
0.000113045
0.000120452
0.00012045
0.000120454
0.000120451
0.000112985
0.000113042
0.000120461
0.000120448
0.000120462
0.00012045
0.000120447
0.000120461
0.000120447
0.000112984
0.000113042
0.000120455
0.000120461
0.000120455
0.000113032
0.000112987
0.000113044
0.000120454
0.000120451
0.000120454
0.00012045
0.000112984
0.000113042
0.000120463
0.00012045
0.000120463
0.00012045
0.000120448
0.000120461
0.000120448
0.000112985
0.000113042
0.000120456
0.000120462
0.000120456
0.000113033
0.000112986
0.000113044
0.000120454
0.00012045
0.000120454
0.00012045
0.000112983
0.000113042
0.000120462
0.00012045
0.000120462
0.00012045
0.000120448
0.000120461
0.000120448
0.000112984
0.000113043
0.000120455
0.000120462
0.000120456
0.000113032
0.000112986
0.000113044
0.000120454
0.00012045
0.000120454
0.00012045
0.000112984
0.000113042
0.000120462
0.00012045
0.000120462
0.00012045
0.000120448
0.000120461
0.000120448
0.000112984
0.000113042
0.000120456
0.000120461
0.000120456
0.000113031
0.000112986
0.000113044
0.000120454
0.00012045
0.000120454
0.00012045
0.000112984
0.000113042
0.000120462
0.00012045
0.000120462
0.00012045
0.000120448
0.000120461
0.000120447
0.000112984
0.000113042
0.000120455
0.000120462
0.000120455
0.000113031
0.000112986
0.000113044
0.000120454
0.00012045
0.000120454
0.000120451
0.000112984
0.000113043
0.000120463
0.00012045
0.000120463
0.00012045
0.000120447
0.000120462
0.000120448
0.000112984
0.000113042
0.000120455
0.000120462
0.000120455
0.000113031
0.000112986
0.000113044
0.000120455
0.000120451
0.000120455
0.000120451
0.000112984
0.000113043
0.000120463
0.00012045
0.000120463
0.00012045
0.000120448
0.000120461
0.000120448
0.000112984
0.000113042
0.000120455
0.000120462
0.000120455
0.000113032
0.000112986
0.000113045
0.000120455
0.000120451
0.000120455
0.000120451
0.000112984
0.000113043
0.000120463
0.00012045
0.000120463
0.00012045
0.000120447
0.000120461
0.000120448
0.000112984
0.000113042
0.000120455
0.000120461
0.000120456
0.000113031
0.000112987
0.000113045
0.000120455
0.000120451
0.000120455
0.000120451
0.000112984
0.000113043
0.000120463
0.00012045
0.000120463
0.00012045
0.000120448
0.000120461
0.000120448
0.000112984
0.000113042
0.000120456
0.000120461
0.000120456
0.000113031
0.000112987
0.000113045
0.000120454
0.000120451
0.000120455
0.000120451
0.000112985
0.000113043
0.000120463
0.00012045
0.000120463
0.00012045
0.000120447
0.000120461
0.000120448
0.000112984
0.000113042
0.000120456
0.000120461
0.000120455
0.000113032
0.000112987
0.000113045
0.000120455
0.000120451
0.000120455
0.000120451
0.000112985
0.000113043
0.000120463
0.00012045
0.000120463
0.00012045
0.000120448
0.000120461
0.000120448
0.000112984
0.000113042
0.000120455
0.000120462
0.000120456
0.000113032
0.000112987
0.000113044
0.000120455
0.000120451
0.000120455
0.000120451
0.000112984
0.000113043
0.000120463
0.00012045
0.000120463
0.00012045
0.000120448
0.000120461
0.000120448
0.000112984
0.000113042
0.000120456
0.000120462
0.000120456
0.000113032
0.000112987
0.000113044
0.000120454
0.000120451
0.000120455
0.000120451
0.000112985
0.000113043
0.000120463
0.00012045
0.000120463
0.00012045
0.000120447
0.000120461
0.000120448
0.000112984
0.000113042
0.000120455
0.000120461
0.000120455
0.000113031
0.000112987
0.000113044
0.000120455
0.000120451
0.000120454
0.000120451
0.000112984
0.000113043
0.000120462
0.00012045
0.000120462
0.00012045
0.000120448
0.000120462
0.000120448
0.000112984
0.000113042
0.000120455
0.000120461
0.000120455
0.000113031
0.000112986
0.000113044
0.000120454
0.000120451
0.000120454
0.000120451
0.000112985
0.000113043
0.000120462
0.000120449
0.000120462
0.000120449
0.000120447
0.000120461
0.000120448
0.000112984
0.000113042
0.000120455
0.000120461
0.000120455
0.000113032
0.000112986
0.000113044
0.000120454
0.000120451
0.000120454
0.000120451
0.000112985
0.000113043
0.000120462
0.00012045
0.000120462
0.00012045
0.000120448
0.000120461
0.000120448
0.000112984
0.000113042
0.000120455
0.000120461
0.000120455
0.000113032
0.000112986
0.000113044
0.000120454
0.000120451
0.000120454
0.000120451
0.000112984
0.000113043
0.000120463
0.000120449
0.000120463
0.00012045
0.000120448
0.00012046
0.000120448
0.000112984
0.000113042
0.000120455
0.000120461
0.000120455
0.000113032
0.000112987
0.000113045
0.000120455
0.000120451
0.000120454
0.000120451
0.000112984
0.000113043
0.000120462
0.00012045
0.000120463
0.00012045
0.000120447
0.000120461
0.000120448
0.000112984
0.000113042
0.000120456
0.000120461
0.000120456
0.000113032
0.000112986
0.000113044
0.000120454
0.00012045
0.000120455
0.00012045
0.000112984
0.000113043
0.000120463
0.000120449
0.000120463
0.000120449
0.000120448
0.000120461
0.000120448
0.000112984
0.000113042
0.000120455
0.000120461
0.000120456
0.000113032
0.000112986
0.000113044
0.000120455
0.00012045
0.000120455
0.000120451
0.000112985
0.000113043
0.000120462
0.00012045
0.000120462
0.00012045
0.000120447
0.000120461
0.000120448
0.000112984
0.000113042
0.000120455
0.000120462
0.000120456
0.000113032
0.000112986
0.000113045
0.000120456
0.000120451
0.000120456
0.000120451
0.000112985
0.000113043
0.000120462
0.00012045
0.000120462
0.00012045
0.000120448
0.000120461
0.000120448
0.000112984
0.000113042
0.000120455
0.000120461
0.000120455
0.000113032
0.000112986
0.000113045
0.000120456
0.000120451
0.000120456
0.000120451
0.000112985
0.000113043
0.000120462
0.00012045
0.000120462
0.00012045
0.000120448
0.000120461
0.000120448
0.000112984
0.000113042
0.000120456
0.000120461
0.000120455
0.000113031
0.000112986
0.000113045
0.000120456
0.000120451
0.000120456
0.000120451
0.000112985
0.000113043
0.000120462
0.000120449
0.000120462
0.000120449
0.000120448
0.000120461
0.000120448
0.000112984
0.000113042
0.000120455
0.000120461
0.000120455
0.000113031
0.000112986
0.000113045
0.000120456
0.000120451
0.000120456
0.000120451
0.000112985
0.000113043
0.000120462
0.000120449
0.000120462
0.00012045
0.000120448
0.000120461
0.000120448
0.000112984
0.000113042
0.000120455
0.000120461
0.000120455
0.000113031
0.000112986
0.000113045
0.000120456
0.000120451
0.000120456
0.000120451
0.000112985
0.000113043
0.000120462
0.00012045
0.000120462
0.00012045
0.000120447
0.000120461
0.000120447
0.000112984
0.000113042
0.000120455
0.000120461
0.000120455
0.000113031
0.000112986
0.000113045
0.000120456
0.000120451
0.000120456
0.000120451
0.000112984
0.000113043
0.000120462
0.00012045
0.000120462
0.00012045
0.000120447
0.000120462
0.000120447
0.000112984
0.000113042
0.000120455
0.000120461
0.000120455
0.000113031
0.000112986
0.000113045
0.000120456
0.000120451
0.000120456
0.000120451
0.000112984
0.000113042
0.000120462
0.00012045
0.000120462
0.00012045
0.000120448
0.000120461
0.000120448
0.000112984
0.000113042
0.000120455
0.000120461
0.000120455
0.000113031
0.000112986
0.000113045
0.000120456
0.000120451
0.000120456
0.000120451
0.000112984
0.000113042
0.000120462
0.00012045
0.000120462
0.00012045
0.000120447
0.000120461
0.000120448
0.000112984
0.000113042
0.000120455
0.000120462
0.000120455
0.000113032
0.000112986
0.000113044
0.000120456
0.000120451
0.000120456
0.00012045
0.000112984
0.000113042
0.000120462
0.00012045
0.000120462
0.00012045
0.000120448
0.000120462
0.000120448
0.000112984
0.000113042
0.000120455
0.000120462
0.000120455
0.000113032
0.000112986
0.000113044
0.000120456
0.00012045
0.000120456
0.00012045
0.000112984
0.000113042
0.000120462
0.00012045
0.000120462
0.00012045
0.000120448
0.000120462
0.000120448
0.000112984
0.000113042
0.000120455
0.000120461
0.000120455
0.000113031
0.000112986
0.000113044
0.000120456
0.00012045
0.000120456
0.00012045
0.000112984
0.000113042
0.000120461
0.000120449
0.000120462
0.00012045
0.000120448
0.000120461
0.000120448
0.000112984
0.000113042
0.000120455
0.000120461
0.000120455
0.000113032
0.000112986
0.000113044
0.000120456
0.000120449
0.000120456
0.000120449
0.000112983
0.000113042
0.000120462
0.00012045
0.000120462
0.00012045
0.000120448
0.000120461
0.000120448
0.000112984
0.000113042
0.000120455
0.00012046
0.000120455
0.000113032
0.000112986
0.000113044
0.000120455
0.000120449
0.000120456
0.000120449
0.000112983
0.000113042
0.000120461
0.00012045
0.000120461
0.00012045
0.000120448
0.000120461
0.000120448
0.000112984
0.000113042
0.000120455
0.000120461
0.000120455
0.000113032
0.000112986
0.000113044
0.000120456
0.00012045
0.000120456
0.00012045
0.000112983
0.000113042
0.000120462
0.00012045
0.000120462
0.00012045
0.000120448
0.000120461
0.000120448
0.000112984
0.000113042
0.000120456
0.000120461
0.000120455
0.000113032
0.000112986
0.000113044
0.000120456
0.00012045
0.000120456
0.00012045
0.000112984
0.000113042
0.000120462
0.00012045
0.000120462
0.00012045
0.000120448
0.000120461
0.000120448
0.000112984
0.000113042
0.000120455
0.000120461
0.000120455
0.000113031
0.000112986
0.000113044
0.000120456
0.00012045
0.000120456
0.00012045
0.000112984
0.000113042
0.000120462
0.00012045
0.000120462
0.00012045
0.000120448
0.00012046
0.000120448
0.000112984
0.000113042
0.000120456
0.000120461
0.000120455
0.000113032
0.000112986
0.000113044
0.000120456
0.00012045
0.000120456
0.00012045
0.000112984
0.000113042
0.000120462
0.00012045
0.000120462
0.00012045
0.000120448
0.00012046
0.000120448
0.000112984
0.000113042
0.000120455
0.000120461
0.000120455
0.000113031
0.000112986
0.000113044
0.000120456
0.00012045
0.000120456
0.00012045
0.000112984
0.000113042
0.000120461
0.000120449
0.000120461
0.00012045
0.000120447
0.00012046
0.000120448
0.000112984
0.000113042
0.000120455
0.000120461
0.000120455
0.000113031
0.000112986
0.000113044
0.000120456
0.00012045
0.000120456
0.00012045
0.000112984
0.000113042
0.000120462
0.00012045
0.000120462
0.00012045
0.000120448
0.00012046
0.000120448
0.000112984
0.000113042
0.000120456
0.000120461
0.000120455
0.000113032
0.000112986
0.000113045
0.000120456
0.00012045
0.000120456
0.00012045
0.000112983
0.000113042
0.000120461
0.000120449
0.000120462
0.00012045
0.000120447
0.00012046
0.000120448
0.000112984
0.000113042
0.000120455
0.000120461
0.000120455
0.000113031
0.000112986
0.000113044
0.000120456
0.000120449
0.000120456
0.000120449
0.000112983
0.000113042
0.000120462
0.00012045
0.000120462
0.00012045
0.000120448
0.000120461
0.000120448
0.000112984
0.000113042
0.000120456
0.000120461
0.000120455
0.000113032
0.000112986
0.000113044
0.000120455
0.00012045
0.000120456
0.00012045
0.000112984
0.000113042
0.000120462
0.00012045
0.000120462
0.00012045
0.000120448
0.00012046
0.000120448
0.000112984
0.000113042
0.000120455
0.000120461
0.000120456
0.000113032
0.000112986
0.000113044
0.000120456
0.000120449
0.000120456
0.00012045
0.000112984
0.000113042
0.000120461
0.00012045
0.000120462
0.00012045
0.000120448
0.00012046
0.000120448
0.000112984
0.000113042
0.000120455
0.000120461
0.000120455
0.000113032
0.000112986
0.000113044
0.000120455
0.000120449
0.000120456
0.000120449
0.000112983
0.000113042
0.000120462
0.00012045
0.000120462
0.00012045
0.000120448
0.00012046
0.000120448
0.000112984
0.000113042
0.000120455
0.000120461
0.000120455
0.000113032
0.000112986
0.000113044
0.000120456
0.000120449
0.000120456
0.000120449
0.000112983
0.000113042
0.000120461
0.00012045
0.000120461
0.00012045
0.000120448
0.00012046
0.000120448
0.000112984
0.000113042
0.000120455
0.000120462
0.000120455
0.000113032
0.000112986
0.000113044
0.000120456
0.000120449
0.000120456
0.00012045
0.000112984
0.000113042
0.000120462
0.000120449
0.000120462
0.00012045
0.000120448
0.000120461
0.000120448
0.000112984
0.000113042
0.000120455
0.000120461
0.000120455
0.000113031
0.000112986
0.000113044
0.000120456
0.00012045
0.000120456
0.00012045
0.000112984
0.000113042
0.000120461
0.00012045
0.000120462
0.00012045
0.000120447
0.000120461
0.000120447
0.000112984
0.000113042
0.000120455
0.000120461
0.000120455
0.000113031
0.000112986
0.000113044
0.000120456
0.000120449
0.000120456
0.000120449
0.000112984
0.000113042
0.000120462
0.000120449
0.000120461
0.00012045
0.000120448
0.00012046
0.000120448
0.000112984
0.000113042
0.000120455
0.000120461
0.000120455
0.000113031
0.000112986
0.000113044
0.000120456
0.00012045
0.000120456
0.000120449
0.000112983
0.000113042
0.000120461
0.00012045
0.000120461
0.00012045
0.000120448
0.000120461
0.000120448
0.000112984
0.000113042
0.000120455
0.000120462
0.000120455
0.000113031
0.000112986
0.000113044
0.000120455
0.000120449
0.000120455
0.000120449
0.000112984
0.000113042
0.000120462
0.00012045
0.000120461
0.00012045
0.000120447
0.000120461
0.000120447
0.000112984
0.000113042
0.000120455
0.000120462
0.000120455
0.000113031
0.000112986
0.000113044
0.000120456
0.00012045
0.000120456
0.00012045
0.000112984
0.000113042
0.000120461
0.000120449
0.000120462
0.00012045
0.000120447
0.000120461
0.000120448
0.000112984
0.000113042
0.000120455
0.000120462
0.000120456
0.000113031
0.000112986
0.000113044
0.000120455
0.000120449
0.000120456
0.00012045
0.000112984
0.000113042
0.000120461
0.00012045
0.000120461
0.00012045
0.000120448
0.000120461
0.000120448
0.000112984
0.000113042
0.000120456
0.000120461
0.000120455
0.000113032
0.000112986
0.000113044
0.000120456
0.00012045
0.000120456
0.00012045
0.000112984
0.000113042
0.000120462
0.000120449
0.000120461
0.00012045
0.000120447
0.00012046
0.000120448
0.000112984
0.000113042
0.000120456
0.000120461
0.000120456
0.000113031
0.000112986
0.000113044
0.000120455
0.00012045
0.000120456
0.00012045
0.000112984
0.000113042
0.000120461
0.00012045
0.000120462
0.00012045
0.000120448
0.00012046
0.000120448
0.000112984
0.000113042
0.000120456
0.000120461
0.000120456
0.000113031
0.000112986
0.000113044
0.000120456
0.000120449
0.000120456
0.000120449
0.000112983
0.000113042
0.000120462
0.000120449
0.000120462
0.00012045
0.000120448
0.00012046
0.000120448
0.000112984
0.000113042
0.000120456
0.000120461
0.000120456
0.000113032
0.000112986
0.000113044
0.000120455
0.00012045
0.000120456
0.000120449
0.000112983
0.000113042
0.000120462
0.00012045
0.000120462
0.00012045
0.000120448
0.00012046
0.000120448
0.000112984
0.000113042
0.000120455
0.000120461
0.000120456
0.000113032
0.000112986
0.000113044
0.000120456
0.00012045
0.000120456
0.00012045
0.000112984
0.000113042
0.000120462
0.00012045
0.000120462
0.00012045
0.000120447
0.00012046
0.000120448
0.000112984
0.000113042
0.000120456
0.000120462
0.000120456
0.000113032
0.000112986
0.000113044
0.000120456
0.00012045
0.000120456
0.00012045
0.000112983
0.000113042
0.000120462
0.00012045
0.000120462
0.00012045
0.000120448
0.00012046
0.000120448
0.000112984
0.000113042
0.000120456
0.000120461
0.000120456
0.000113031
0.000112986
0.000113044
0.000120456
0.00012045
0.000120456
0.00012045
0.000112983
0.000113042
0.000120462
0.00012045
0.000120462
0.00012045
0.000120448
0.00012046
0.000120448
0.000112984
0.000113042
0.000120456
0.000120461
0.000120456
0.000113032
0.000112986
0.000113044
0.000120456
0.00012045
0.000120456
0.00012045
0.000112983
0.000113042
0.000120462
0.00012045
0.000120462
0.00012045
0.000120448
0.00012046
0.000120448
0.000112984
0.000113042
0.000120456
0.000120461
0.000120456
0.000113032
0.000112986
0.000113044
0.000120457
0.00012045
0.000120456
0.000120449
0.000112984
0.000113042
0.000120462
0.00012045
0.000120462
0.00012045
0.000120449
0.000120461
0.000120448
0.000112984
0.000113042
0.000120457
0.000120461
0.000120456
0.000113032
0.000112986
0.000113044
0.000120456
0.00012045
0.000120455
0.000120449
0.000112984
0.000113042
0.000120462
0.00012045
0.000120461
0.000120449
0.000120448
0.00012046
0.000120447
0.000112984
0.000113042
0.000120456
0.000120461
0.000120455
0.000113032
0.000112986
0.000113044
0.000120455
0.000120449
0.000120455
0.000120449
0.000112983
0.000113042
0.000120461
0.000120449
0.000120461
0.000120449
0.000120447
0.00012046
0.000120447
0.000112984
0.000113042
0.000120455
0.000120461
0.000120455
0.000113032
0.000112986
0.000113045
0.000120456
0.00012045
0.000120456
0.00012045
0.000112983
0.000113042
0.000120462
0.00012045
0.000120462
0.00012045
0.000120448
0.00012046
0.000120448
0.000112984
0.000113042
0.000120456
0.000120461
0.000120456
0.000113032
0.000112986
0.000113045
0.000120457
0.00012045
0.000120456
0.00012045
0.000112984
0.000113042
0.000120463
0.000120451
0.000120462
0.00012045
0.000120449
0.00012046
0.000120448
0.000112984
0.000113042
0.000120456
0.000120461
0.000120456
0.000113032
0.000112986
0.000113045
0.000120457
0.00012045
0.000120456
0.00012045
0.000112984
0.000113043
0.000120463
0.000120451
0.000120462
0.00012045
0.000120448
0.000120461
0.000120448
0.000112984
0.000113043
0.000120457
0.000120461
0.000120456
0.000113033
0.000112987
0.000113045
0.000120457
0.000120451
0.000120457
0.000120451
0.000112984
0.000113043
0.000120463
0.000120451
0.000120463
0.000120451
0.000120449
0.000120461
0.000120449
0.000112985
0.000113043
0.000120457
0.000120462
0.000120457
0.000113033
0.000112988
0.000113047
0.000120459
0.000120452
0.000120459
0.000120453
0.000112985
0.000113045
0.000120465
0.000120453
0.000120465
0.000120453
0.00012045
0.000120463
0.000120451
0.000112986
0.000113045
0.000120458
0.000120464
0.000120458
0.000113035
0.000112989
0.000113049
0.000120461
0.000120455
0.000120462
0.000120456
0.000112987
0.000113047
0.000120467
0.000120455
0.000120468
0.000120456
0.000120453
0.000120466
0.000120454
0.000112987
0.000113047
0.00012046
0.000120467
0.000120462
0.000113037
0.000112992
0.000113053
0.000120465
0.000120459
0.000120468
0.000120463
0.00011299
0.000113051
0.000120471
0.000120459
0.000120474
0.000120463
0.000120457
0.000120473
0.00012046
0.00011299
0.000113051
0.000120464
0.000120474
0.000120468
0.000113041
0.000112996
0.000113063
0.000120473
0.000120467
0.000120486
0.000120481
0.000112994
0.000113061
0.000120478
0.000120467
0.000120492
0.00012048
0.000120465
0.000120491
0.000120478
0.000112994
0.000113061
0.000120472
0.000120491
0.000120486
0.00011305
0.000113005
0.000113556
0.000120468
0.000120462
0.000120974
0.00012097
0.000113003
0.000113554
0.000120474
0.000120463
0.000120978
0.00012097
0.00012046
0.000120977
0.000120968
0.000113003
0.000113555
0.000120467
0.000120978
0.000120973
0.000113547
0.000114123
0.000121149
0.000121145
0.000114121
0.000121153
0.000121146
0.000127713
0.000127713
0.000127711
0.000121144
0.000114122
0.000121148
0.000121099
4.74705e-05
9.43507e-05
9.43532e-05
5.77675e-07
9.89292e-06
4.18544e-06
6.68927e-05
3.97921e-07
1.08907e-05
6.69106e-05
6.21903e-06
2.23075e-06
1.72778e-06
2.00741e-06
1.00117e-06
1.41419e-05
8.71414e-07
1.58922e-05
1.10562e-05
1.32248e-05
1.00242e-06
1.42185e-05
8.78143e-07
1.58054e-05
6.96561e-05
6.95968e-05
6.96494e-05
7.0699e-05
7.0655e-05
7.05528e-05
7.0644e-05
5.78021e-07
7.6067e-07
3.84744e-05
1.15418e-05
5.70625e-07
8.07443e-07
3.88424e-05
1.13622e-05
1.36305e-05
4.47608e-07
3.82591e-05
5.26251e-06
1.33482e-05
4.35953e-07
3.91769e-05
6.18446e-06
1.45845e-06
1.54236e-06
2.48461e-06
1.68421e-06
1.79263e-06
1.20614e-06
1.93646e-05
1.10476e-06
2.19056e-05
1.73357e-05
1.94811e-05
1.19302e-06
1.95605e-05
1.10895e-06
2.16967e-05
7.13496e-05
7.12697e-05
7.13472e-05
7.34787e-05
7.34268e-05
7.33921e-05
7.34314e-05