/*--------------------------------*- C++ -*----------------------------------*\
| =========                 |                                                 |
| \\      /  F ield         | OpenFOAM: The Open Source CFD Toolbox           |
|  \\    /   O peration     | Version:  v2012                                 |
|   \\  /    A nd           | Website:  www.openfoam.com                      |
|    \\/     M anipulation  |                                                 |
\*---------------------------------------------------------------------------*/
FoamFile
{
    version     2.0;
    format      ascii;
    class       volScalarField;
    location    "937.5";
    object      epsilon;
}
// * * * * * * * * * * * * * * * * * * * * * * * * * * * * * * * * * * * * * //

dimensions      [0 2 -3 0 0 0 0];


internalField   nonuniform List<scalar> 
171728
(
1.3865e-09
4.39337e-09
5.10734e-09
4.82852e-09
1.36717e-09
3.59575e-09
4.66405e-09
4.53355e-09
1.27808e-09
3.11321e-09
4.24638e-09
4.30213e-09
1.19282e-09
2.77307e-09
3.87901e-09
3.95541e-09
1.12622e-09
2.51589e-09
3.55921e-09
3.58352e-09
1.07643e-09
2.31003e-09
3.31254e-09
3.26292e-09
1.03215e-09
2.1501e-09
3.14232e-09
2.98842e-09
9.91767e-10
2.03445e-09
3.03955e-09
2.76897e-09
9.53145e-10
1.9608e-09
2.99451e-09
2.62225e-09
9.16651e-10
1.92285e-09
3.00551e-09
2.52639e-09
8.82442e-10
1.91941e-09
3.06867e-09
2.4753e-09
8.50931e-10
1.94665e-09
3.20164e-09
2.45334e-09
8.215e-10
2.01554e-09
3.39814e-09
2.46028e-09
7.94066e-10
2.14127e-09
3.5848e-09
2.5185e-09
7.6859e-10
2.33288e-09
3.89158e-09
2.64264e-09
7.45289e-10
2.64624e-09
4.40394e-09
2.86641e-09
7.23843e-10
3.12476e-09
5.13454e-09
3.26109e-09
7.04696e-10
3.85001e-09
6.1136e-09
3.95437e-09
6.91071e-10
4.94773e-09
7.28972e-09
5.34708e-09
6.79186e-10
6.63382e-09
9.08238e-09
6.87436e-09
6.75611e-10
9.02232e-09
1.10285e-08
1.40266e-08
6.81721e-10
1.24702e-08
1.40413e-08
1.47269e-08
7.08147e-10
1.72009e-08
1.92512e-08
3.16157e-08
7.53903e-10
2.4942e-08
2.4897e-08
4.58439e-08
8.46288e-10
3.12172e-08
3.23185e-08
7.81793e-08
9.57265e-10
4.6411e-08
4.44147e-08
1.10122e-07
1.16722e-09
5.60806e-08
6.09646e-08
1.60928e-07
1.45795e-09
7.61438e-08
7.27841e-08
2.29012e-07
1.80449e-09
9.66688e-08
9.86733e-08
3.11113e-07
2.29584e-09
1.15363e-07
1.16916e-07
3.50096e-07
3.04976e-09
1.43984e-07
1.43818e-07
4.26816e-07
4.01638e-09
1.72803e-07
1.76281e-07
5.45536e-07
5.08957e-09
2.07695e-07
2.07426e-07
5.81424e-07
7.46341e-09
2.35813e-07
2.40882e-07
6.33106e-07
9.00193e-09
2.84933e-07
2.77919e-07
7.31666e-07
1.22413e-08
3.23039e-07
3.27651e-07
7.54735e-07
1.53062e-08
3.55354e-07
3.60835e-07
7.82359e-07
1.99927e-08
4.14621e-07
4.03287e-07
8.50585e-07
2.60662e-08
4.56167e-07
4.61864e-07
8.85325e-07
3.30015e-08
5.04592e-07
5.05499e-07
9.10043e-07
4.02832e-08
5.45529e-07
5.5049e-07
9.44733e-07
5.09119e-08
5.99819e-07
5.99298e-07
9.76559e-07
6.28889e-08
6.49675e-07
6.51987e-07
1.01035e-06
7.36909e-08
6.97807e-07
6.92366e-07
1.03259e-06
9.33501e-08
7.36838e-07
7.43777e-07
1.05592e-06
1.07589e-07
7.87613e-07
7.87282e-07
1.10242e-06
1.29058e-07
8.26966e-07
8.26945e-07
1.11953e-06
1.48296e-07
8.63601e-07
8.65958e-07
1.13417e-06
1.73406e-07
9.06555e-07
8.99536e-07
1.16905e-06
1.98634e-07
9.40263e-07
9.3867e-07
1.20029e-06
2.26279e-07
9.66741e-07
9.76762e-07
1.21603e-06
2.53273e-07
1.00293e-06
1.00263e-06
1.23602e-06
2.85371e-07
1.02797e-06
1.02663e-06
1.26154e-06
3.26097e-07
1.04965e-06
1.04975e-06
1.2749e-06
3.52304e-07
1.08072e-06
1.07725e-06
1.2982e-06
3.77356e-07
1.09837e-06
1.10004e-06
1.31998e-06
4.12439e-07
1.12115e-06
1.12242e-06
1.33216e-06
4.4346e-07
1.1388e-06
1.13539e-06
1.34315e-06
4.76214e-07
1.15347e-06
1.15722e-06
1.36617e-06
5.02788e-07
1.17695e-06
1.17888e-06
1.38175e-06
5.24964e-07
1.19222e-06
1.18899e-06
1.39427e-06
5.50712e-07
1.20492e-06
1.20213e-06
1.40526e-06
5.75629e-07
1.21446e-06
1.21885e-06
1.40853e-06
6.0589e-07
1.23327e-06
1.22952e-06
1.42661e-06
6.21503e-07
1.24379e-06
1.24784e-06
1.45147e-06
6.37345e-07
1.25037e-06
1.25433e-06
1.45262e-06
6.56882e-07
1.26126e-06
1.26065e-06
1.45584e-06
6.7743e-07
1.27799e-06
1.27507e-06
1.47412e-06
6.94766e-07
1.2863e-06
1.28406e-06
1.48146e-06
7.08036e-07
1.28761e-06
1.28718e-06
1.4768e-06
7.20772e-07
1.29243e-06
1.29356e-06
1.48718e-06
7.3598e-07
1.30007e-06
1.30223e-06
1.50675e-06
7.47175e-07
1.30698e-06
1.30445e-06
1.50158e-06
7.5883e-07
1.30884e-06
1.30805e-06
1.49671e-06
7.69045e-07
1.3123e-06
1.31398e-06
1.51962e-06
7.7862e-07
1.32009e-06
1.31945e-06
1.52643e-06
7.86884e-07
1.32051e-06
1.31904e-06
1.51408e-06
7.92103e-07
1.31692e-06
1.3157e-06
1.51832e-06
7.97542e-07
1.32296e-06
1.32285e-06
1.53757e-06
8.05344e-07
1.324e-06
1.32303e-06
1.52252e-06
8.08631e-07
1.31622e-06
1.31725e-06
1.50785e-06
8.09847e-07
1.32101e-06
1.32217e-06
1.53881e-06
8.1208e-07
1.32426e-06
1.32385e-06
1.54478e-06
8.12289e-07
1.31444e-06
1.31631e-06
1.51368e-06
8.13941e-07
1.31143e-06
1.30886e-06
1.51537e-06
8.13834e-07
1.31322e-06
1.31011e-06
1.53877e-06
8.11468e-07
1.31276e-06
1.3148e-06
1.52685e-06
8.05616e-07
1.30319e-06
1.30401e-06
1.50828e-06
8.02533e-07
1.29011e-06
1.28926e-06
1.51655e-06
8.03786e-07
1.29354e-06
1.28751e-06
1.52303e-06
8.03216e-07
1.2934e-06
1.29419e-06
1.51094e-06
7.94421e-07
1.27844e-06
1.28489e-06
1.49839e-06
7.85083e-07
1.27102e-06
1.26934e-06
1.49631e-06
7.80955e-07
1.26736e-06
1.26467e-06
1.5009e-06
7.62202e-07
1.20668e-06
1.20871e-06
1.45877e-06
5.12017e-09
3.98866e-09
7.37406e-09
4.90649e-09
3.95887e-09
3.6082e-09
1.33377e-09
1.57169e-09
1.50875e-09
1.70639e-09
3.69881e-09
5.42096e-09
5.31163e-09
4.11828e-09
3.95458e-09
4.87494e-09
5.08264e-09
4.68266e-09
4.2431e-09
1.75557e-08
3.78098e-09
1.77298e-08
4.84598e-09
4.88238e-09
9.08143e-09
5.63627e-09
9.02972e-09
4.44228e-09
1.02922e-08
3.74667e-09
9.98081e-09
5.27444e-09
4.78265e-09
3.88619e-09
4.78116e-09
3.68856e-09
4.59091e-09
4.64402e-09
4.27828e-09
3.63696e-09
1.76783e-08
3.24572e-09
1.72815e-08
4.84319e-09
4.96049e-09
8.75259e-09
4.15906e-09
7.46442e-09
3.5855e-09
9.81507e-09
3.2201e-09
9.29476e-09
4.74619e-09
4.28912e-09
3.61647e-09
4.34544e-09
3.41965e-09
4.35991e-09
4.24581e-09
3.87519e-09
3.12838e-09
1.68793e-08
2.8224e-09
1.39035e-08
4.89094e-09
4.52005e-09
6.91075e-09
3.4525e-09
5.16952e-09
3.13755e-09
9.08203e-09
2.84729e-09
8.1041e-09
4.25833e-09
3.86269e-09
3.36057e-09
3.96654e-09
3.19867e-09
4.03908e-09
3.84715e-09
3.49848e-09
2.73513e-09
1.24203e-08
2.52294e-09
7.68592e-09
4.30446e-09
3.64529e-09
4.67297e-09
3.05576e-09
3.6496e-09
2.87279e-09
7.65313e-09
2.57435e-09
6.14552e-09
3.83692e-09
3.50619e-09
3.14856e-09
3.63368e-09
3.01013e-09
3.61352e-09
3.47727e-09
3.16908e-09
2.46785e-09
6.40229e-09
2.33094e-09
3.94468e-09
3.6021e-09
3.15754e-09
3.43619e-09
2.82594e-09
3.02965e-09
2.70376e-09
5.65559e-09
2.35771e-09
4.42982e-09
3.48578e-09
3.21423e-09
2.96722e-09
3.36704e-09
2.84381e-09
3.28651e-09
3.15388e-09
2.89708e-09
2.29273e-09
3.48919e-09
2.17464e-09
2.71657e-09
3.12847e-09
2.78536e-09
2.9441e-09
2.66777e-09
2.75163e-09
2.57463e-09
4.12775e-09
2.18569e-09
3.48861e-09
3.1981e-09
2.97942e-09
2.80432e-09
3.17873e-09
2.6973e-09
3.00551e-09
2.88684e-09
2.69219e-09
2.14239e-09
2.58638e-09
2.07611e-09
2.34303e-09
2.77132e-09
2.547e-09
2.68955e-09
2.54958e-09
2.54784e-09
2.48407e-09
3.34063e-09
2.05982e-09
3.06784e-09
2.96764e-09
2.79817e-09
2.66661e-09
3.06026e-09
2.59028e-09
2.77856e-09
2.68629e-09
2.53323e-09
2.05403e-09
2.27317e-09
2.00106e-09
2.0786e-09
2.54088e-09
2.37577e-09
2.52616e-09
2.46513e-09
2.4696e-09
2.42024e-09
3.02475e-09
1.97612e-09
2.96141e-09
2.79153e-09
2.66794e-09
2.56918e-09
2.99755e-09
2.52025e-09
2.62769e-09
2.53242e-09
2.41344e-09
1.98801e-09
2.03502e-09
1.96252e-09
1.99137e-09
2.37615e-09
2.25528e-09
2.44928e-09
2.40977e-09
2.40833e-09
2.39319e-09
2.91293e-09
1.92977e-09
2.86624e-09
2.66552e-09
2.58014e-09
2.50769e-09
2.9981e-09
2.47687e-09
2.52721e-09
2.41498e-09
2.32189e-09
1.95844e-09
1.97148e-09
1.95702e-09
1.911e-09
2.25729e-09
2.17393e-09
2.40212e-09
2.39318e-09
2.39892e-09
2.40056e-09
2.87925e-09
1.91733e-09
2.92567e-09
2.58172e-09
2.53237e-09
2.47258e-09
3.04856e-09
2.46411e-09
2.46971e-09
2.32674e-09
2.26731e-09
1.96019e-09
1.90445e-09
1.98357e-09
1.9121e-09
2.1805e-09
2.12291e-09
2.40153e-09
2.40621e-09
2.42309e-09
2.43598e-09
2.93624e-09
1.93911e-09
2.97405e-09
2.53879e-09
2.52095e-09
2.46415e-09
3.16066e-09
2.47215e-09
2.44329e-09
2.27816e-09
2.25262e-09
1.99572e-09
1.92477e-09
2.04981e-09
1.97547e-09
2.13539e-09
2.10915e-09
2.43427e-09
2.44796e-09
2.48331e-09
2.49881e-09
2.98879e-09
1.99677e-09
3.04246e-09
2.53441e-09
2.54266e-09
2.47875e-09
3.34827e-09
2.5127e-09
2.44148e-09
2.27244e-09
2.28681e-09
2.07507e-09
1.99937e-09
2.17134e-09
2.09135e-09
2.12954e-09
2.14863e-09
2.50412e-09
2.5197e-09
2.58763e-09
2.59887e-09
3.07028e-09
2.10864e-09
3.1742e-09
2.56389e-09
2.60346e-09
2.52934e-09
3.53517e-09
2.59398e-09
2.48661e-09
2.3191e-09
2.38564e-09
2.21226e-09
2.13082e-09
2.36061e-09
2.26834e-09
2.18236e-09
2.24313e-09
2.62438e-09
2.6363e-09
2.76529e-09
2.77564e-09
3.21973e-09
2.28222e-09
3.40013e-09
2.63947e-09
2.75461e-09
2.62455e-09
3.79345e-09
2.74313e-09
2.59023e-09
2.44113e-09
2.5913e-09
2.42073e-09
2.32606e-09
2.65691e-09
2.56439e-09
2.29895e-09
2.45077e-09
2.82202e-09
2.83137e-09
3.04288e-09
3.06853e-09
3.47368e-09
2.56522e-09
3.71531e-09
2.81943e-09
3.04127e-09
2.79514e-09
4.25611e-09
2.9947e-09
2.78216e-09
2.68137e-09
2.95139e-09
2.74869e-09
2.65302e-09
3.10594e-09
3.00418e-09
2.54492e-09
2.81556e-09
3.13153e-09
3.17319e-09
3.46502e-09
3.53328e-09
3.80235e-09
2.99462e-09
4.09166e-09
3.14777e-09
3.49703e-09
3.07711e-09
4.9305e-09
3.37708e-09
3.12626e-09
3.10559e-09
3.59594e-09
3.24903e-09
3.14324e-09
3.78908e-09
3.63344e-09
2.9583e-09
3.41326e-09
3.60359e-09
3.67686e-09
4.13168e-09
4.19068e-09
4.20034e-09
3.61842e-09
4.70759e-09
3.66002e-09
4.19115e-09
3.50529e-09
5.84691e-09
4.00372e-09
3.7159e-09
3.82521e-09
4.72118e-09
3.99668e-09
3.87322e-09
4.80842e-09
4.71365e-09
3.71093e-09
4.62005e-09
4.32163e-09
4.43573e-09
5.14469e-09
5.43118e-09
4.90258e-09
4.69489e-09
5.70327e-09
4.45376e-09
5.4918e-09
4.20185e-09
7.0167e-09
5.02355e-09
4.98449e-09
5.1764e-09
6.71342e-09
5.16418e-09
4.97423e-09
6.36662e-09
6.14327e-09
4.93309e-09
6.45323e-09
5.48137e-09
5.78295e-09
6.6218e-09
7.19898e-09
5.9654e-09
6.0948e-09
6.61598e-09
5.87366e-09
7.42953e-09
5.34594e-09
8.44769e-09
6.11957e-09
6.14708e-09
7.41126e-09
9.94011e-09
6.85187e-09
6.68657e-09
8.55219e-09
8.4756e-09
7.33149e-09
1.02005e-08
7.12431e-09
7.99231e-09
8.8498e-09
1.02374e-08
7.12796e-09
8.42958e-09
9.90238e-09
8.42625e-09
1.14114e-08
6.61688e-09
1.07107e-08
9.3279e-09
1.32637e-08
1.11214e-08
1.64226e-08
9.27939e-09
9.09711e-09
1.20363e-08
1.16016e-08
1.11199e-08
1.58382e-08
9.57114e-09
1.09966e-08
1.21566e-08
1.38762e-08
1.04866e-08
1.15105e-08
1.15521e-08
1.20822e-08
1.55656e-08
9.92014e-09
1.27915e-08
1.12428e-08
1.34909e-08
1.82282e-08
2.51407e-08
1.30188e-08
1.25433e-08
1.60023e-08
1.61177e-08
1.78792e-08
2.59355e-08
1.31974e-08
1.53263e-08
1.64331e-08
1.96946e-08
1.23474e-08
1.60313e-08
1.69847e-08
1.78835e-08
3.03463e-08
1.2165e-08
1.80699e-08
1.72878e-08
2.85414e-08
2.80857e-08
4.42158e-08
1.7653e-08
1.73626e-08
2.30465e-08
2.31298e-08
2.85216e-08
4.40112e-08
1.79603e-08
2.08623e-08
2.34755e-08
2.65661e-08
1.82906e-08
2.29067e-08
2.24864e-08
3.32959e-08
4.57387e-08
1.8579e-08
2.33125e-08
2.35832e-08
4.07945e-08
4.83913e-08
6.57093e-08
2.47065e-08
2.50735e-08
3.10381e-08
2.93183e-08
4.96948e-08
6.16461e-08
2.50501e-08
2.86815e-08
3.15037e-08
3.39994e-08
2.47963e-08
2.92678e-08
3.1789e-08
5.02697e-08
6.45572e-08
2.62446e-08
3.06941e-08
3.45119e-08
7.24626e-08
7.14991e-08
1.03386e-07
3.31774e-08
3.14459e-08
4.24797e-08
4.3613e-08
6.55428e-08
1.13951e-07
3.39217e-08
3.52585e-08
4.35252e-08
4.10878e-08
3.38009e-08
4.31258e-08
4.17876e-08
6.7858e-08
8.94323e-08
3.7004e-08
3.96098e-08
4.62167e-08
1.01383e-07
1.13411e-07
1.46295e-07
4.61909e-08
4.67554e-08
5.41898e-08
5.36313e-08
1.26457e-07
1.42431e-07
4.67829e-08
4.54148e-08
5.62439e-08
6.07419e-08
4.5309e-08
5.34984e-08
5.50291e-08
1.02097e-07
1.69576e-07
5.08096e-08
5.76626e-08
6.27299e-08
1.50925e-07
1.53615e-07
2.08202e-07
5.70858e-08
5.63123e-08
7.30721e-08
7.19073e-08
1.47149e-07
2.0859e-07
5.98586e-08
6.44988e-08
7.40568e-08
7.23011e-08
5.83639e-08
7.1249e-08
7.23429e-08
1.79009e-07
1.98751e-07
6.57683e-08
6.92131e-08
7.92462e-08
2.12509e-07
2.27129e-07
2.79811e-07
7.85203e-08
7.68117e-08
9.02559e-08
9.09724e-08
2.29577e-07
2.83581e-07
7.95594e-08
7.50815e-08
9.35537e-08
9.04841e-08
7.72729e-08
9.09534e-08
9.25175e-08
2.06567e-07
2.70887e-07
8.65192e-08
9.20568e-08
1.05092e-07
2.98727e-07
2.88999e-07
3.38471e-07
9.45667e-08
9.66119e-08
1.12948e-07
1.11453e-07
2.94376e-07
3.4967e-07
9.75985e-08
9.68775e-08
1.15133e-07
1.12693e-07
9.80753e-08
1.10865e-07
1.12547e-07
2.91115e-07
3.55669e-07
1.08913e-07
1.12595e-07
1.14432e-07
3.41236e-07
3.55926e-07
4.31537e-07
1.18331e-07
1.16294e-07
1.36109e-07
1.36226e-07
3.63719e-07
4.18755e-07
1.21413e-07
1.17319e-07
1.38483e-07
1.35194e-07
1.16397e-07
1.3574e-07
1.33631e-07
3.67121e-07
4.17691e-07
1.1694e-07
1.35905e-07
1.37369e-07
4.04844e-07
4.4876e-07
5.0073e-07
1.44933e-07
1.44416e-07
1.69987e-07
1.66842e-07
4.37337e-07
5.07776e-07
1.45853e-07
1.43162e-07
1.7205e-07
1.68518e-07
1.42312e-07
1.66002e-07
1.69518e-07
4.35759e-07
5.07755e-07
1.49664e-07
1.68374e-07
1.82325e-07
5.25765e-07
5.14043e-07
5.60796e-07
1.75736e-07
1.73296e-07
1.92866e-07
1.9845e-07
5.23463e-07
5.71926e-07
1.78223e-07
1.75918e-07
1.94371e-07
1.95952e-07
1.79425e-07
1.98464e-07
2.04093e-07
5.23488e-07
5.73372e-07
1.90338e-07
1.99448e-07
2.07534e-07
5.75013e-07
5.77392e-07
6.47492e-07
2.024e-07
2.07849e-07
2.4041e-07
2.29817e-07
5.8468e-07
6.29616e-07
2.02206e-07
2.04543e-07
2.40608e-07
2.34197e-07
2.09499e-07
2.28625e-07
2.25924e-07
5.88148e-07
6.36222e-07
2.11046e-07
2.32745e-07
2.25328e-07
6.14524e-07
6.6264e-07
6.93858e-07
2.49746e-07
2.37591e-07
2.69986e-07
2.7226e-07
6.45535e-07
7.01291e-07
2.51316e-07
2.43007e-07
2.72618e-07
2.66442e-07
2.33431e-07
2.71358e-07
2.80554e-07
6.48925e-07
6.89727e-07
2.32679e-07
2.66562e-07
2.79545e-07
7.16614e-07
7.05119e-07
7.45416e-07
2.77635e-07
2.85322e-07
3.12689e-07
3.15332e-07
7.13367e-07
7.42779e-07
2.79658e-07
2.76319e-07
3.1195e-07
3.14953e-07
2.9586e-07
3.15509e-07
3.21563e-07
7.05067e-07
7.52374e-07
2.94756e-07
3.16147e-07
3.20194e-07
7.48316e-07
7.58718e-07
7.89159e-07
3.24129e-07
3.22932e-07
3.51817e-07
3.45941e-07
7.53083e-07
7.84309e-07
3.2343e-07
3.27331e-07
3.51606e-07
3.54223e-07
3.27241e-07
3.45615e-07
3.44224e-07
7.63609e-07
7.88028e-07
3.25733e-07
3.53413e-07
3.42784e-07
7.70985e-07
7.99142e-07
8.30665e-07
3.61299e-07
3.56303e-07
3.95695e-07
4.01934e-07
7.96535e-07
8.36893e-07
3.60844e-07
3.61726e-07
3.94745e-07
3.89494e-07
3.52275e-07
3.99996e-07
3.93136e-07
7.96927e-07
8.25953e-07
3.50863e-07
3.89137e-07
3.92566e-07
8.35613e-07
8.42277e-07
8.72998e-07
4.09118e-07
4.16e-07
4.47016e-07
4.46276e-07
8.47806e-07
8.71507e-07
4.07795e-07
4.0306e-07
4.45755e-07
4.47884e-07
4.11456e-07
4.45593e-07
4.55177e-07
8.38264e-07
8.75072e-07
4.10631e-07
4.48669e-07
4.54335e-07
8.77865e-07
8.82611e-07
9.0501e-07
4.58436e-07
4.56216e-07
4.94398e-07
4.93178e-07
8.80772e-07
9.04317e-07
4.57844e-07
4.6129e-07
4.9416e-07
4.94903e-07
4.67214e-07
4.94007e-07
4.95731e-07
8.85071e-07
9.06059e-07
4.66346e-07
4.95197e-07
4.93784e-07
9.02139e-07
9.13163e-07
9.35369e-07
5.05736e-07
5.03822e-07
5.38493e-07
5.35618e-07
9.12625e-07
9.33067e-07
5.04995e-07
5.05436e-07
5.36664e-07
5.38579e-07
5.03789e-07
5.33746e-07
5.34221e-07
9.14013e-07
9.35638e-07
5.01726e-07
5.37928e-07
5.33699e-07
9.34977e-07
9.44476e-07
9.71022e-07
5.49828e-07
5.47615e-07
5.89657e-07
5.86776e-07
9.41656e-07
9.67679e-07
5.48019e-07
5.50909e-07
5.89309e-07
5.86699e-07
5.49346e-07
5.8637e-07
5.90736e-07
9.44358e-07
9.69119e-07
5.49416e-07
5.86733e-07
5.89652e-07
9.69011e-07
9.79556e-07
9.97809e-07
6.04029e-07
5.99772e-07
6.39708e-07
6.36846e-07
9.76564e-07
9.99838e-07
6.04085e-07
5.99229e-07
6.38349e-07
6.39713e-07
6.01145e-07
6.36929e-07
6.36235e-07
9.77806e-07
1.00015e-06
5.99763e-07
6.40687e-07
6.35046e-07
1.00092e-06
1.00454e-06
1.02613e-06
6.48623e-07
6.49735e-07
6.80216e-07
6.87182e-07
1.00832e-06
1.02879e-06
6.46991e-07
6.51223e-07
6.79776e-07
6.81917e-07
6.51295e-07
6.8704e-07
6.89106e-07
1.00745e-06
1.02494e-06
6.50099e-07
6.8077e-07
6.87521e-07
1.02806e-06
1.03529e-06
1.06104e-06
6.9541e-07
6.97728e-07
7.36929e-07
7.26915e-07
1.03508e-06
1.05267e-06
6.95117e-07
6.93355e-07
7.3568e-07
7.31021e-07
6.97984e-07
7.2693e-07
7.23527e-07
1.03231e-06
1.05855e-06
6.96457e-07
7.31474e-07
7.22462e-07
1.04643e-06
1.06745e-06
1.08299e-06
7.46148e-07
7.37268e-07
7.7361e-07
7.75541e-07
1.06084e-06
1.08666e-06
7.44995e-07
7.43668e-07
7.73555e-07
7.78004e-07
7.34489e-07
7.74414e-07
7.79041e-07
1.06701e-06
1.0853e-06
7.33872e-07
7.7723e-07
7.7835e-07
1.09472e-06
1.09033e-06
1.11571e-06
7.8518e-07
7.88147e-07
8.22116e-07
8.17683e-07
1.09382e-06
1.10903e-06
7.84988e-07
7.88223e-07
8.20202e-07
8.16781e-07
7.92049e-07
8.19006e-07
8.22542e-07
1.09132e-06
1.11191e-06
7.91122e-07
8.17072e-07
8.21052e-07
1.1153e-06
1.12207e-06
1.1325e-06
8.32774e-07
8.25555e-07
8.5603e-07
8.52827e-07
1.11463e-06
1.1338e-06
8.30911e-07
8.26092e-07
8.5616e-07
8.5804e-07
8.30837e-07
8.52569e-07
8.54503e-07
1.11955e-06
1.13749e-06
8.29399e-07
8.56671e-07
8.53411e-07
1.12892e-06
1.13743e-06
1.16486e-06
8.6321e-07
8.64645e-07
8.95835e-07
8.97167e-07
1.14144e-06
1.16558e-06
8.63878e-07
8.68474e-07
8.94571e-07
8.94074e-07
8.62265e-07
8.97132e-07
8.88946e-07
1.14306e-06
1.15777e-06
8.60959e-07
8.91386e-07
8.88028e-07
1.1591e-06
1.17437e-06
1.19254e-06
9.07413e-07
9.05898e-07
9.33751e-07
9.31892e-07
1.17249e-06
1.18905e-06
9.05311e-07
9.01462e-07
9.32804e-07
9.2761e-07
9.02933e-07
9.32418e-07
9.37206e-07
1.16359e-06
1.18374e-06
9.02434e-07
9.2713e-07
9.3675e-07
1.19476e-06
1.19666e-06
1.20537e-06
9.39861e-07
9.39693e-07
9.5934e-07
9.59128e-07
1.19427e-06
1.20617e-06
9.40522e-07
9.39351e-07
9.62122e-07
9.70655e-07
9.45219e-07
9.59393e-07
9.63707e-07
1.19121e-06
1.2157e-06
9.4445e-07
9.70314e-07
9.62282e-07
1.21186e-06
1.21009e-06
1.22441e-06
9.66505e-07
9.66692e-07
9.88166e-07
9.93016e-07
1.21115e-06
1.23289e-06
9.69186e-07
9.76707e-07
9.88935e-07
9.91118e-07
9.69044e-07
9.94581e-07
9.88292e-07
1.22219e-06
1.23688e-06
9.6753e-07
9.94786e-07
9.89595e-07
1.22898e-06
1.23057e-06
1.2587e-06
9.95705e-07
1.00053e-06
1.02664e-06
1.02133e-06
1.24053e-06
1.25598e-06
9.97391e-07
9.98089e-07
1.02838e-06
1.0214e-06
9.98179e-07
1.02276e-06
1.02476e-06
1.24225e-06
1.25685e-06
1.00048e-06
1.02211e-06
1.02438e-06
1.25711e-06
1.26654e-06
1.28525e-06
1.03532e-06
1.02817e-06
1.05485e-06
1.04564e-06
1.26013e-06
1.27056e-06
1.03601e-06
1.02686e-06
1.05074e-06
1.04403e-06
1.03011e-06
1.04308e-06
1.04546e-06
1.2606e-06
1.26789e-06
1.02909e-06
1.04196e-06
1.04365e-06
1.26994e-06
1.28942e-06
1.29291e-06
1.05939e-06
1.05135e-06
1.07077e-06
1.07221e-06
1.27559e-06
1.29198e-06
1.05498e-06
1.05248e-06
1.06778e-06
1.07305e-06
1.05221e-06
1.07371e-06
1.07135e-06
1.27339e-06
1.29383e-06
1.05025e-06
1.07267e-06
1.07065e-06
1.29298e-06
1.2955e-06
1.30648e-06
1.07455e-06
1.079e-06
1.08827e-06
1.09284e-06
1.29809e-06
1.31233e-06
1.07207e-06
1.07711e-06
1.09073e-06
1.09163e-06
1.07653e-06
1.09449e-06
1.09491e-06
1.29826e-06
1.31118e-06
1.07577e-06
1.0931e-06
1.09427e-06
1.31422e-06
1.31321e-06
1.33168e-06
1.0948e-06
1.09662e-06
1.1155e-06
1.11372e-06
1.31656e-06
1.32954e-06
1.09916e-06
1.09867e-06
1.11944e-06
1.11862e-06
1.1012e-06
1.11498e-06
1.11506e-06
1.31794e-06
1.33484e-06
1.10085e-06
1.11833e-06
1.11526e-06
1.32937e-06
1.33574e-06
1.34093e-06
1.12102e-06
1.12024e-06
1.13495e-06
1.1348e-06
1.33501e-06
1.34457e-06
1.12333e-06
1.12294e-06
1.13328e-06
1.13262e-06
1.11866e-06
1.13518e-06
1.13125e-06
1.33822e-06
1.33898e-06
1.11881e-06
1.13215e-06
1.13031e-06
1.33834e-06
1.34433e-06
1.35777e-06
1.13892e-06
1.13843e-06
1.15152e-06
1.14914e-06
1.34758e-06
1.35428e-06
1.1367e-06
1.13604e-06
1.15132e-06
1.15078e-06
1.13696e-06
1.14918e-06
1.15449e-06
1.34177e-06
1.35684e-06
1.13511e-06
1.14993e-06
1.15363e-06
1.36071e-06
1.36406e-06
1.38298e-06
1.15611e-06
1.15381e-06
1.17193e-06
1.17196e-06
1.35927e-06
1.37719e-06
1.15774e-06
1.15794e-06
1.17264e-06
1.17487e-06
1.15885e-06
1.17145e-06
1.17085e-06
1.36442e-06
1.38342e-06
1.15898e-06
1.17485e-06
1.17171e-06
1.3777e-06
1.38799e-06
1.39287e-06
1.17721e-06
1.1772e-06
1.18827e-06
1.18821e-06
1.38259e-06
1.39228e-06
1.17603e-06
1.17895e-06
1.18567e-06
1.1882e-06
1.17539e-06
1.18888e-06
1.18767e-06
1.38746e-06
1.39038e-06
1.17543e-06
1.18693e-06
1.18528e-06
1.39053e-06
1.39444e-06
1.38944e-06
1.19099e-06
1.19126e-06
1.19777e-06
1.20209e-06
1.39564e-06
1.40176e-06
1.18908e-06
1.19096e-06
1.19534e-06
1.19871e-06
1.19083e-06
1.20233e-06
1.20099e-06
1.39237e-06
1.3952e-06
1.18825e-06
1.19727e-06
1.20007e-06
1.40201e-06
1.39148e-06
1.40283e-06
1.20052e-06
1.20518e-06
1.2118e-06
1.21169e-06
1.40473e-06
1.40751e-06
1.19764e-06
1.20169e-06
1.20671e-06
1.21181e-06
1.20432e-06
1.21117e-06
1.21258e-06
1.39888e-06
1.41084e-06
1.20401e-06
1.21645e-06
1.21274e-06
1.40643e-06
1.40977e-06
1.43309e-06
1.21709e-06
1.21416e-06
1.23022e-06
1.22759e-06
1.41074e-06
1.42846e-06
1.21231e-06
1.21606e-06
1.23387e-06
1.22972e-06
1.21516e-06
1.22873e-06
1.22596e-06
1.41509e-06
1.42531e-06
1.21515e-06
1.22553e-06
1.22433e-06
1.41922e-06
1.43885e-06
1.44635e-06
1.23347e-06
1.23283e-06
1.24258e-06
1.24363e-06
1.43496e-06
1.44319e-06
1.23826e-06
1.23441e-06
1.244e-06
1.24543e-06
1.23156e-06
1.24188e-06
1.2463e-06
1.43089e-06
1.44568e-06
1.22988e-06
1.24446e-06
1.24701e-06
1.44769e-06
1.44824e-06
1.44226e-06
1.24488e-06
1.24561e-06
1.25049e-06
1.24997e-06
1.44476e-06
1.43815e-06
1.24588e-06
1.24806e-06
1.24983e-06
1.25264e-06
1.24935e-06
1.2483e-06
1.255e-06
1.44874e-06
1.44476e-06
1.25032e-06
1.25337e-06
1.25545e-06
1.45126e-06
1.44343e-06
1.44634e-06
1.25189e-06
1.25169e-06
1.25803e-06
1.25893e-06
1.43978e-06
1.4485e-06
1.25059e-06
1.25301e-06
1.25577e-06
1.25714e-06
1.25627e-06
1.2579e-06
1.26039e-06
1.44584e-06
1.44677e-06
1.25659e-06
1.2586e-06
1.25994e-06
1.45273e-06
1.45105e-06
1.46873e-06
1.26054e-06
1.26222e-06
1.27249e-06
1.27364e-06
1.45433e-06
1.47237e-06
1.25819e-06
1.25937e-06
1.27153e-06
1.27241e-06
1.26199e-06
1.27484e-06
1.27283e-06
1.45114e-06
1.4697e-06
1.26148e-06
1.27115e-06
1.26939e-06
1.46905e-06
1.47383e-06
1.48084e-06
1.27572e-06
1.27625e-06
1.28336e-06
1.28342e-06
1.47693e-06
1.48333e-06
1.27579e-06
1.27687e-06
1.28382e-06
1.28363e-06
1.27653e-06
1.28487e-06
1.28375e-06
1.47516e-06
1.47997e-06
1.2731e-06
1.28271e-06
1.28196e-06
1.47983e-06
1.48308e-06
1.48024e-06
1.28504e-06
1.28504e-06
1.28751e-06
1.28693e-06
1.48553e-06
1.48109e-06
1.28525e-06
1.28457e-06
1.28728e-06
1.2866e-06
1.28545e-06
1.28759e-06
1.28687e-06
1.48141e-06
1.47748e-06
1.28391e-06
1.28643e-06
1.28626e-06
1.47557e-06
1.48161e-06
1.48554e-06
1.28783e-06
1.28727e-06
1.29096e-06
1.29117e-06
1.48227e-06
1.48384e-06
1.2879e-06
1.2876e-06
1.29144e-06
1.29288e-06
1.28688e-06
1.29074e-06
1.28925e-06
1.47961e-06
1.48813e-06
1.28659e-06
1.29103e-06
1.28915e-06
1.48164e-06
1.4899e-06
1.49829e-06
1.29355e-06
1.29339e-06
1.3018e-06
1.29966e-06
1.4874e-06
1.49406e-06
1.29389e-06
1.29563e-06
1.30146e-06
1.30117e-06
1.29196e-06
1.29862e-06
1.30154e-06
1.49296e-06
1.49968e-06
1.29232e-06
1.30107e-06
1.3027e-06
1.50372e-06
1.50058e-06
1.50006e-06
1.30308e-06
1.30082e-06
1.30417e-06
1.3046e-06
1.49683e-06
1.50243e-06
1.30278e-06
1.30193e-06
1.30454e-06
1.3031e-06
1.30308e-06
1.30546e-06
1.30565e-06
1.5014e-06
1.49746e-06
1.30434e-06
1.30395e-06
1.3061e-06
1.50106e-06
1.50208e-06
1.50502e-06
1.30491e-06
1.30627e-06
1.30991e-06
1.30932e-06
1.50533e-06
1.5051e-06
1.30534e-06
1.30358e-06
1.30817e-06
1.30665e-06
1.30535e-06
1.30869e-06
1.30471e-06
1.49894e-06
1.50106e-06
1.30519e-06
1.30707e-06
1.30427e-06
1.49387e-06
1.50737e-06
1.50762e-06
1.31084e-06
1.30971e-06
1.31137e-06
1.31096e-06
1.50637e-06
1.50609e-06
1.3089e-06
1.30773e-06
1.3107e-06
1.31152e-06
1.30531e-06
1.31072e-06
1.31266e-06
1.50398e-06
1.50921e-06
1.305e-06
1.31252e-06
1.31376e-06
1.51377e-06
1.50995e-06
1.51838e-06
1.31176e-06
1.31173e-06
1.31716e-06
1.31758e-06
1.50938e-06
1.51949e-06
1.31194e-06
1.31282e-06
1.31778e-06
1.31836e-06
1.31611e-06
1.31918e-06
1.32103e-06
1.51205e-06
1.51891e-06
1.31674e-06
1.31853e-06
1.32091e-06
1.52509e-06
1.52191e-06
1.51925e-06
1.31937e-06
1.31916e-06
1.32054e-06
1.3209e-06
1.52268e-06
1.52214e-06
1.31947e-06
1.31957e-06
1.31981e-06
1.32005e-06
1.32155e-06
1.32075e-06
1.31911e-06
1.52223e-06
1.52095e-06
1.32115e-06
1.31999e-06
1.31819e-06
1.51333e-06
1.52001e-06
1.51301e-06
1.31973e-06
1.32077e-06
1.31681e-06
1.31769e-06
1.52326e-06
1.51465e-06
1.31874e-06
1.31932e-06
1.31589e-06
1.31537e-06
1.31815e-06
1.31718e-06
1.31607e-06
1.5218e-06
1.5128e-06
1.31743e-06
1.31563e-06
1.31596e-06
1.51301e-06
1.51546e-06
1.52701e-06
1.31686e-06
1.31725e-06
1.32122e-06
1.31942e-06
1.51598e-06
1.52241e-06
1.316e-06
1.31536e-06
1.32059e-06
1.31964e-06
1.3167e-06
1.32002e-06
1.32389e-06
1.51444e-06
1.52416e-06
1.31699e-06
1.32105e-06
1.32458e-06
1.53489e-06
1.53061e-06
1.52594e-06
1.32286e-06
1.32233e-06
1.32446e-06
1.32477e-06
1.52729e-06
1.5292e-06
1.32233e-06
1.32186e-06
1.32417e-06
1.32382e-06
1.32488e-06
1.32484e-06
1.32422e-06
1.52832e-06
1.52644e-06
1.32507e-06
1.32385e-06
1.32417e-06
1.5233e-06
1.52636e-06
1.51499e-06
1.32363e-06
1.32415e-06
1.31859e-06
1.31825e-06
1.52996e-06
1.51687e-06
1.32343e-06
1.32326e-06
1.31879e-06
1.3187e-06
1.32105e-06
1.31716e-06
1.31374e-06
1.52704e-06
1.51589e-06
1.32101e-06
1.31756e-06
1.31388e-06
1.50581e-06
1.51649e-06
1.52677e-06
1.31784e-06
1.31724e-06
1.31834e-06
1.31815e-06
1.51815e-06
1.52493e-06
1.31774e-06
1.31828e-06
1.31822e-06
1.31953e-06
1.31337e-06
1.31784e-06
1.31977e-06
1.51747e-06
1.52655e-06
1.3136e-06
1.31945e-06
1.31967e-06
1.53104e-06
1.53247e-06
1.54061e-06
1.32095e-06
1.32054e-06
1.32457e-06
1.32445e-06
1.53008e-06
1.53594e-06
1.32096e-06
1.32168e-06
1.3241e-06
1.32399e-06
1.32439e-06
1.3248e-06
1.32757e-06
1.53158e-06
1.53727e-06
1.32446e-06
1.325e-06
1.32785e-06
1.54427e-06
1.54211e-06
1.52333e-06
1.32428e-06
1.32392e-06
1.31974e-06
1.31839e-06
1.53707e-06
1.52179e-06
1.32365e-06
1.32296e-06
1.31854e-06
1.31882e-06
1.32681e-06
1.31724e-06
1.31492e-06
1.53853e-06
1.52731e-06
1.32698e-06
1.31872e-06
1.31505e-06
1.51383e-06
1.52267e-06
1.50532e-06
1.31612e-06
1.31572e-06
1.30907e-06
1.31159e-06
1.52221e-06
1.51619e-06
1.31495e-06
1.31678e-06
1.30871e-06
1.31036e-06
1.31172e-06
1.31137e-06
1.30722e-06
1.52772e-06
1.51181e-06
1.31143e-06
1.30968e-06
1.30663e-06
1.50931e-06
1.50696e-06
1.5222e-06
1.30877e-06
1.31143e-06
1.30958e-06
1.31143e-06
1.51884e-06
1.52493e-06
1.30852e-06
1.30949e-06
1.31004e-06
1.3095e-06
1.30801e-06
1.31271e-06
1.31599e-06
1.51278e-06
1.5153e-06
1.3071e-06
1.309e-06
1.31425e-06
1.53562e-06
1.52969e-06
1.54626e-06
1.31256e-06
1.31208e-06
1.3173e-06
1.31455e-06
1.52826e-06
1.53398e-06
1.31295e-06
1.31032e-06
1.31728e-06
1.31613e-06
1.31632e-06
1.31332e-06
1.31383e-06
1.52086e-06
1.53854e-06
1.31507e-06
1.31533e-06
1.31351e-06
1.5272e-06
1.54817e-06
1.52275e-06
1.31658e-06
1.31429e-06
1.30825e-06
1.30963e-06
1.53604e-06
1.5231e-06
1.31624e-06
1.31564e-06
1.30753e-06
1.30798e-06
1.31069e-06
1.30773e-06
1.30253e-06
1.54171e-06
1.52987e-06
1.31095e-06
1.30756e-06
1.30267e-06
1.50727e-06
1.5205e-06
1.48859e-06
1.3021e-06
1.30482e-06
1.28845e-06
1.29128e-06
1.52229e-06
1.49722e-06
1.30179e-06
1.30432e-06
1.28752e-06
1.28919e-06
1.30034e-06
1.29256e-06
1.29567e-06
1.52914e-06
1.49727e-06
1.30057e-06
1.29139e-06
1.2956e-06
1.51218e-06
1.4897e-06
1.50394e-06
1.28783e-06
1.28947e-06
1.29005e-06
1.28948e-06
1.49823e-06
1.50908e-06
1.28655e-06
1.28646e-06
1.28845e-06
1.28544e-06
1.29576e-06
1.29038e-06
1.29475e-06
1.49735e-06
1.49327e-06
1.29551e-06
1.28701e-06
1.29398e-06
1.52145e-06
1.51216e-06
1.52924e-06
1.29411e-06
1.29337e-06
1.29899e-06
1.2967e-06
1.51654e-06
1.52474e-06
1.2915e-06
1.28629e-06
1.29844e-06
1.29559e-06
1.2943e-06
1.29478e-06
1.29055e-06
1.4983e-06
1.52033e-06
1.29355e-06
1.29394e-06
1.29054e-06
1.51047e-06
1.53098e-06
1.51003e-06
1.29763e-06
1.29539e-06
1.28564e-06
1.28286e-06
1.5257e-06
1.49957e-06
1.29787e-06
1.29647e-06
1.28775e-06
1.29059e-06
1.28889e-06
1.28141e-06
1.28219e-06
1.52469e-06
1.51653e-06
1.28932e-06
1.28849e-06
1.28241e-06
1.49733e-06
1.50915e-06
1.48579e-06
1.28042e-06
1.27863e-06
1.26809e-06
1.2706e-06
1.4993e-06
1.48698e-06
1.28312e-06
1.28706e-06
1.26797e-06
1.26964e-06
1.28106e-06
1.27181e-06
1.27469e-06
1.51614e-06
1.48743e-06
1.28101e-06
1.271e-06
1.27469e-06
1.49449e-06
1.48693e-06
1.48826e-06
1.26719e-06
1.2699e-06
1.26387e-06
1.26634e-06
1.48864e-06
1.49499e-06
1.26667e-06
1.26768e-06
1.26313e-06
1.2627e-06
1.27345e-06
1.26742e-06
1.26811e-06
1.48806e-06
1.48722e-06
1.27325e-06
1.26371e-06
1.26782e-06
1.49831e-06
1.49197e-06
1.47694e-06
1.26451e-06
1.26658e-06
1.24509e-06
1.24409e-06
1.49789e-06
1.4788e-06
1.26385e-06
1.26356e-06
1.24559e-06
1.2458e-06
1.26801e-06
1.24418e-06
1.24543e-06
1.49216e-06
1.48047e-06
1.26812e-06
1.24655e-06
1.24639e-06
1.48095e-06
1.456e-06
1.20764e-06
1.20662e-06
1.45743e-06
1.20803e-06
1.20823e-06
7.60245e-07
7.61721e-07
7.60906e-07
1.20752e-06
1.45914e-06
1.2082e-06
2.89307e-10
2.40439e-09
2.45379e-10
3.58986e-10
5.4555e-09
3.97276e-09
5.32747e-08
1.02923e-09
5.4206e-09
4.40179e-09
1.37966e-09
8.45071e-09
5.02357e-09
5.6391e-09
6.38129e-09
7.45472e-09
2.19694e-07
6.07744e-09
3.21177e-07
1.57595e-06
3.2299e-06
8.75845e-09
2.61935e-07
7.42418e-09
3.51371e-07
1.65756e-09
1.54573e-09
1.75929e-09
1.38719e-09
1.64366e-09
1.53268e-09
1.74501e-09
4.75302e-09
1.26469e-07
2.80842e-09
4.13404e-09
5.10579e-09
1.04129e-07
2.76369e-09
1.63457e-06
3.27565e-06
4.71988e-09
3.66178e-09
8.99153e-08
5.0183e-09
4.96855e-09
3.6111e-09
6.66927e-08
2.16614e-07
2.19904e-07
4.71385e-09
1.83882e-07
1.87973e-07
1.65901e-08
5.65316e-07
1.20714e-08
9.7693e-07
7.15069e-06
1.02616e-05
1.80329e-08
5.66591e-07
1.33501e-08
7.08658e-07
1.60551e-09