/*--------------------------------*- C++ -*----------------------------------*\
| =========                 |                                                 |
| \\      /  F ield         | OpenFOAM: The Open Source CFD Toolbox           |
|  \\    /   O peration     | Version:  v2012                                 |
|   \\  /    A nd           | Website:  www.openfoam.com                      |
|    \\/     M anipulation  |                                                 |
\*---------------------------------------------------------------------------*/
FoamFile
{
    version     2.0;
    format      ascii;
    class       volScalarField;
    location    "937.5";
    object      k;
}
// * * * * * * * * * * * * * * * * * * * * * * * * * * * * * * * * * * * * * //

dimensions      [0 2 -2 0 0 0 0];


internalField   nonuniform List<scalar> 
171728
(
1.61265e-07
6.78364e-07
3.32849e-07
3.40599e-07
1.59426e-07
5.43558e-07
3.18015e-07
3.28188e-07
1.53433e-07
3.5334e-07
3.02729e-07
3.2041e-07
1.49627e-07
2.73401e-07
2.89218e-07
3.16202e-07
1.43513e-07
2.44343e-07
2.77131e-07
3.14972e-07
1.38101e-07
2.26736e-07
2.62312e-07
3.14142e-07
1.34215e-07
2.10709e-07
2.44728e-07
3.08674e-07
1.32741e-07
1.96499e-07
2.28116e-07
2.6713e-07
1.30623e-07
1.86182e-07
2.13676e-07
2.45461e-07
1.28316e-07
1.79737e-07
2.03959e-07
2.31444e-07
1.25786e-07
1.75578e-07
1.9885e-07
2.2396e-07
1.2315e-07
1.72272e-07
1.98405e-07
2.18018e-07
1.20707e-07
1.69636e-07
1.99731e-07
2.1326e-07
1.18443e-07
1.68107e-07
2.02528e-07
2.12765e-07
1.1623e-07
1.68174e-07
2.26318e-07
2.14833e-07
1.1415e-07
1.7218e-07
2.88821e-07
2.20621e-07
1.12269e-07
1.816e-07
3.85421e-07
2.30372e-07
1.10508e-07
1.95124e-07
4.97921e-07
2.4223e-07
1.08895e-07
2.26694e-07
6.0504e-07
2.77429e-07
1.07589e-07
2.75899e-07
6.67112e-07
2.77597e-07
1.068e-07
3.51457e-07
6.52605e-07
6.8169e-07
1.05807e-07
4.53586e-07
6.08848e-07
4.83637e-07
1.05464e-07
6.19613e-07
8.19342e-07
1.23265e-06
1.06311e-07
9.35673e-07
9.46597e-07
1.51381e-06
1.08435e-07
1.07764e-06
1.15451e-06
2.93748e-06
1.13723e-07
1.81198e-06
1.5154e-06
3.70379e-06
1.21793e-07
1.97159e-06
2.33645e-06
5.4956e-06
1.38105e-07
2.83353e-06
2.55183e-06
8.04721e-06
1.54112e-07
3.6623e-06
3.76308e-06
1.20096e-05
1.81263e-07
4.20479e-06
4.27363e-06
1.16773e-05
2.03606e-07
5.29292e-06
5.23518e-06
1.31632e-05
2.55016e-07
6.53521e-06
6.70901e-06
1.95602e-05
2.7183e-07
7.87367e-06
7.94173e-06
1.94628e-05
4.71752e-07
8.57164e-06
8.97548e-06
1.93674e-05
5.29076e-07
1.10667e-05
1.02311e-05
2.61709e-05
7.09071e-07
1.25852e-05
1.30238e-05
2.58163e-05
8.28712e-07
1.27621e-05
1.36792e-05
2.44939e-05
1.03773e-06
1.58778e-05
1.45164e-05
2.8231e-05
1.46552e-06
1.75088e-05
1.78019e-05
3.01485e-05
1.86538e-06
1.94694e-05
1.93561e-05
3.03386e-05
2.15375e-06
2.0162e-05
2.05663e-05
3.1321e-05
2.81312e-06
2.2387e-05
2.25478e-05
3.29377e-05
3.50285e-06
2.45786e-05
2.48653e-05
3.4322e-05
3.72197e-06
2.65576e-05
2.55991e-05
3.49414e-05
5.2732e-06
2.75276e-05
2.79993e-05
3.50576e-05
5.82729e-06
2.99073e-05
2.98034e-05
3.85023e-05
7.14972e-06
3.12261e-05
3.14183e-05
3.88991e-05
7.82066e-06
3.2038e-05
3.31611e-05
3.83027e-05
8.99199e-06
3.47047e-05
3.35112e-05
3.99513e-05
1.12332e-05
3.57777e-05
3.45739e-05
4.21275e-05
1.26005e-05
3.6279e-05
3.75225e-05
4.23032e-05
1.25182e-05
3.84856e-05
3.88502e-05
4.28771e-05
1.35528e-05
3.94875e-05
3.95515e-05
4.42863e-05
1.81063e-05
3.97968e-05
3.96245e-05
4.43421e-05
1.93464e-05
4.15401e-05
4.12363e-05
4.56468e-05
1.94018e-05
4.2468e-05
4.26861e-05
4.68438e-05
2.13208e-05
4.38265e-05
4.40064e-05
4.72398e-05
2.27571e-05
4.44466e-05
4.38515e-05
4.71328e-05
2.41763e-05
4.45278e-05
4.48679e-05
4.85928e-05
2.62073e-05
4.64317e-05
4.69803e-05
4.95402e-05
2.84622e-05
4.74301e-05
4.7236e-05
5.03047e-05
2.86471e-05
4.77051e-05
4.7307e-05
5.06915e-05
2.84315e-05
4.79828e-05
4.83554e-05
5.02304e-05
3.08573e-05
4.98873e-05
4.88101e-05
5.09254e-05
3.35462e-05
5.05456e-05
5.07915e-05
5.3206e-05
3.40328e-05
4.98503e-05
5.07664e-05
5.29784e-05
3.38398e-05
4.98969e-05
5.04474e-05
5.26709e-05
3.47085e-05
5.2287e-05
5.19147e-05
5.41876e-05
3.70764e-05
5.34056e-05
5.28796e-05
5.47456e-05
3.80021e-05
5.30138e-05
5.26588e-05
5.38189e-05
3.81455e-05
5.27413e-05
5.29368e-05
5.43211e-05
3.92495e-05
5.36194e-05
5.42485e-05
5.63607e-05
4.0275e-05
5.4482e-05
5.41862e-05
5.56229e-05
4.09167e-05
5.43537e-05
5.40169e-05
5.4684e-05
4.14361e-05
5.43953e-05
5.47781e-05
5.67625e-05
4.24086e-05
5.59232e-05
5.58925e-05
5.74948e-05
4.33253e-05
5.60462e-05
5.58866e-05
5.61145e-05
4.35078e-05
5.54608e-05
5.546e-05
5.65985e-05
4.41127e-05
5.62771e-05
5.65442e-05
5.88462e-05
4.4696e-05
5.67886e-05
5.66367e-05
5.7172e-05
4.4498e-05
5.58209e-05
5.55054e-05
5.54745e-05
4.49663e-05
5.65631e-05
5.64646e-05
5.86853e-05
4.69008e-05
5.7785e-05
5.82914e-05
5.98325e-05
4.64814e-05
5.6646e-05
5.75261e-05
5.66035e-05
4.48105e-05
5.60095e-05
5.55068e-05
5.67821e-05
4.53439e-05
5.73392e-05
5.59826e-05
5.96556e-05
4.85229e-05
5.84007e-05
5.89377e-05
5.85318e-05
4.83319e-05
5.73081e-05
5.86375e-05
5.6672e-05
4.51328e-05
5.56925e-05
5.55705e-05
5.8073e-05
4.49516e-05
5.71225e-05
5.54267e-05
5.93241e-05
4.79575e-05
5.82194e-05
5.80282e-05
5.82123e-05
4.83556e-05
5.64083e-05
5.78635e-05
5.68816e-05
4.63607e-05
5.56856e-05
5.57943e-05
5.71384e-05
4.60032e-05
5.70383e-05
5.65293e-05
5.8642e-05
4.64572e-05
5.65287e-05
5.65653e-05
5.89232e-05
3.60149e-07
3.33141e-07
3.7498e-07
3.47363e-07
3.2621e-07
3.56094e-07
1.58096e-07
1.80707e-07
1.71553e-07
1.93642e-07
3.46454e-07
3.61082e-07
3.59294e-07
3.10827e-07
3.12896e-07
3.42207e-07
3.57058e-07
3.43775e-07
4.02499e-07
5.45976e-07
3.76559e-07
5.80619e-07
3.44134e-07
3.39394e-07
4.37907e-07
6.01303e-07
4.64626e-07
5.75794e-07
4.56771e-07
5.98126e-07
4.66037e-07
3.57026e-07
3.49949e-07
2.80913e-07
3.2186e-07
2.6919e-07
3.30445e-07
3.41127e-07
3.33952e-07
3.66954e-07
5.94383e-07
3.34754e-07
6.36947e-07
3.36452e-07
3.35551e-07
4.73398e-07
5.57824e-07
4.99012e-07
4.51635e-07
4.69578e-07
3.9136e-07
4.81583e-07
3.48084e-07
3.31118e-07
2.65238e-07
3.06512e-07
2.55066e-07
3.22194e-07
3.31769e-07
3.24958e-07
3.22856e-07
6.53652e-07
2.9206e-07
7.17495e-07
3.33605e-07
3.40191e-07
5.07964e-07
4.10363e-07
5.27713e-07
3.03433e-07
4.86266e-07
2.85308e-07
5.00172e-07
3.29181e-07
3.09186e-07
2.521e-07
2.92494e-07
2.44026e-07
3.17456e-07
3.22297e-07
3.06897e-07
2.83678e-07
7.40852e-07
2.58688e-07
8.21557e-07
3.39365e-07
3.55537e-07
5.28815e-07
2.78025e-07
4.98966e-07
2.32649e-07
5.06338e-07
2.4999e-07
5.25382e-07
3.07045e-07
2.86678e-07
2.41445e-07
2.80099e-07
2.33881e-07
3.16285e-07
3.04319e-07
2.84016e-07
2.49393e-07
8.43961e-07
2.19991e-07
8.65206e-07
3.5472e-07
3.64922e-07
4.72929e-07
2.24444e-07
3.75195e-07
2.09828e-07
5.3103e-07
2.30646e-07
5.48798e-07
2.85595e-07
2.70762e-07
2.31365e-07
2.66525e-07
2.24073e-07
3.15721e-07
2.81868e-07
2.598e-07
2.11794e-07
8.59894e-07
1.9299e-07
6.69905e-07
3.61873e-07
3.0497e-07
3.4101e-07
2.06536e-07
2.60833e-07
1.98244e-07
5.52661e-07
2.14546e-07
5.52602e-07
2.69876e-07
2.55926e-07
2.21851e-07
2.49018e-07
2.15666e-07
3.11148e-07
2.5804e-07
2.40408e-07
1.88492e-07
5.82203e-07
1.81101e-07
3.58768e-07
2.9308e-07
2.50806e-07
2.42526e-07
1.96009e-07
2.06707e-07
1.90081e-07
5.43526e-07
1.99759e-07
4.31663e-07
2.55176e-07
2.42256e-07
2.13699e-07
2.32206e-07
2.08413e-07
2.70323e-07
2.39683e-07
2.28043e-07
1.79547e-07
3.07074e-07
1.739e-07
2.15199e-07
2.48554e-07
2.27472e-07
2.01812e-07
1.88177e-07
1.97688e-07
1.82995e-07
3.91026e-07
1.88251e-07
2.95316e-07
2.41628e-07
2.30033e-07
2.06887e-07
2.16912e-07
2.03003e-07
2.46755e-07
2.27867e-07
2.19477e-07
1.71896e-07
2.00802e-07
1.66777e-07
1.88537e-07
2.26957e-07
2.15605e-07
1.96248e-07
1.81269e-07
1.91202e-07
1.764e-07
2.71604e-07
1.81098e-07
2.29921e-07
2.29583e-07
2.19722e-07
2.01864e-07
2.05942e-07
1.98207e-07
2.31997e-07
2.19405e-07
2.11278e-07
1.65564e-07
1.87341e-07
1.63054e-07
1.78212e-07
2.15083e-07
2.06466e-07
1.89912e-07
1.75022e-07
1.88037e-07
1.70853e-07
2.27205e-07
1.7641e-07
2.2735e-07
2.19441e-07
2.11228e-07
1.9707e-07
1.99598e-07
1.93819e-07
2.24144e-07
2.11234e-07
2.03603e-07
1.62227e-07
1.74928e-07
1.59393e-07
1.68946e-07
2.06499e-07
2.00267e-07
1.87792e-07
1.69464e-07
1.87333e-07
1.6642e-07
2.26911e-07
1.7314e-07
2.22557e-07
2.11078e-07
2.04099e-07
1.92726e-07
1.98359e-07
1.8968e-07
2.18194e-07
2.03569e-07
1.96372e-07
1.58328e-07
1.67873e-07
1.5547e-07
1.66228e-07
2.00306e-07
1.93751e-07
1.87125e-07
1.65835e-07
1.86706e-07
1.64628e-07
2.22272e-07
1.7013e-07
2.23468e-07
2.04046e-07
1.98071e-07
1.88766e-07
1.99325e-07
1.86237e-07
2.13112e-07
1.96471e-07
1.9131e-07
1.54963e-07
1.65907e-07
1.54037e-07
1.64856e-07
1.93854e-07
1.8853e-07
1.86747e-07
1.64437e-07
1.87328e-07
1.64057e-07
2.26562e-07
1.68366e-07
2.42561e-07
1.9815e-07
1.93972e-07
1.85263e-07
2.01334e-07
1.82459e-07
2.12121e-07
1.91656e-07
1.88936e-07
1.54096e-07
1.64505e-07
1.55203e-07
1.64564e-07
1.88868e-07
1.84834e-07
1.87748e-07
1.63451e-07
1.8942e-07
1.62295e-07
2.48603e-07
1.67939e-07
2.72147e-07
1.94395e-07
1.94788e-07
1.8144e-07
2.17158e-07
1.801e-07
2.13671e-07
1.89751e-07
1.90029e-07
1.56162e-07
1.64928e-07
1.6058e-07
1.68115e-07
1.85522e-07
1.85284e-07
1.90072e-07
1.61125e-07
1.93302e-07
1.60596e-07
2.81969e-07
1.70719e-07
3.14261e-07
1.96234e-07
2.03733e-07
1.79642e-07
2.69449e-07
1.79672e-07
2.18673e-07
1.91602e-07
1.95403e-07
1.62851e-07
1.69879e-07
1.71337e-07
1.75899e-07
1.86912e-07
1.90477e-07
1.9482e-07
1.61172e-07
2.02167e-07
1.6744e-07
3.25018e-07
1.78002e-07
3.52702e-07
2.08331e-07
2.31398e-07
1.8001e-07
3.59019e-07
1.83035e-07
2.27494e-07
1.98738e-07
2.11631e-07
1.74766e-07
1.79665e-07
1.89847e-07
1.8785e-07
1.93469e-07
1.99922e-07
2.05079e-07
1.69719e-07
2.19449e-07
1.81026e-07
3.60059e-07
1.89647e-07
3.75293e-07
2.39201e-07
2.72706e-07
1.84275e-07
4.71335e-07
1.95531e-07
2.38121e-07
2.17289e-07
2.42125e-07
1.95142e-07
1.93454e-07
2.18869e-07
2.20732e-07
2.07249e-07
2.40793e-07
2.23821e-07
1.87087e-07
2.44912e-07
2.26183e-07
3.75743e-07
2.21438e-07
3.65979e-07
2.82708e-07
3.40576e-07
1.98475e-07
5.82601e-07
2.20583e-07
2.66416e-07
2.56506e-07
3.07428e-07
2.2915e-07
2.25565e-07
2.69389e-07
2.5403e-07
2.47009e-07
2.81422e-07
2.56485e-07
2.38415e-07
2.85876e-07
2.73536e-07
3.59587e-07
2.5505e-07
3.40277e-07
3.55483e-07
3.92516e-07
2.32175e-07
6.48649e-07
2.44517e-07
2.69144e-07
3.28023e-07
4.06002e-07
2.85029e-07
2.75568e-07
3.35807e-07
3.32812e-07
3.11198e-07
4.31702e-07
3.02144e-07
3.07503e-07
3.54782e-07
4.18063e-07
3.42139e-07
3.3364e-07
4.53326e-07
4.24827e-07
5.48894e-07
2.51981e-07
6.82709e-07
3.74857e-07
6.46349e-07
4.39627e-07
6.47817e-07
3.58217e-07
3.51057e-07
4.57239e-07
4.2399e-07
4.52929e-07
5.99575e-07
3.77408e-07
4.52194e-07
4.70519e-07
5.57189e-07
4.72233e-07
4.21474e-07
4.59509e-07
5.54697e-07
5.77835e-07
3.9695e-07
5.95678e-07
3.97041e-07
4.77497e-07
7.08311e-07
9.07718e-07
4.92718e-07
4.56111e-07
5.62667e-07
5.90839e-07
6.71164e-07
9.79441e-07
5.05969e-07
6.37278e-07
5.92924e-07
8.73703e-07
4.60786e-07
5.9548e-07
6.40823e-07
6.46482e-07
1.28232e-06
4.01462e-07
7.761e-07
6.02779e-07
1.08227e-06
9.88837e-07
1.67222e-06
6.24695e-07
6.17219e-07
8.36282e-07
8.41599e-07
1.05779e-06
1.5901e-06
6.60891e-07
9.26435e-07
8.42942e-07
1.18855e-06
6.91005e-07
8.28648e-07
7.84781e-07
1.41169e-06
1.84126e-06
6.41949e-07
9.08255e-07
7.55575e-07
1.37803e-06
1.8266e-06
2.35297e-06
8.89442e-07
9.38735e-07
1.1366e-06
1.04356e-06
1.83467e-06
2.19245e-06
9.02708e-07
1.27511e-06
1.12807e-06
1.40215e-06
8.83385e-07
1.05533e-06
1.20263e-06
2.00473e-06
2.40323e-06
8.60472e-07
1.12889e-06
1.24318e-06
2.73339e-06
2.53802e-06
3.62517e-06
1.18388e-06
1.07016e-06
1.5379e-06
1.64394e-06
2.20827e-06
4.3331e-06
1.1759e-06
1.40172e-06
1.60364e-06
1.41885e-06
1.25371e-06
1.61262e-06
1.47913e-06
2.42915e-06
2.62604e-06
1.34271e-06
1.28795e-06
1.59901e-06
3.45878e-06
4.02242e-06
5.27972e-06
1.71952e-06
1.83178e-06
1.96197e-06
1.95777e-06
4.96814e-06
5.09611e-06
1.73945e-06
1.50756e-06
2.02215e-06
2.45694e-06
1.63918e-06
1.95583e-06
1.96306e-06
3.03957e-06
6.8771e-06
1.79314e-06
2.2016e-06
2.33451e-06
5.18611e-06
5.37929e-06
7.05022e-06
2.00513e-06
1.97297e-06
2.68724e-06
2.63653e-06
5.03144e-06
6.91039e-06
2.13795e-06
2.66632e-06
2.68208e-06
2.83733e-06
2.02343e-06
2.60766e-06
2.68667e-06
7.2239e-06
7.04775e-06
2.41151e-06
2.4973e-06
3.06865e-06
7.30909e-06
7.93491e-06
1.02002e-05
3.00505e-06
2.8715e-06
3.40633e-06
3.37212e-06
8.08595e-06
1.03328e-05
2.96476e-06
2.8506e-06
3.57734e-06
3.26115e-06
2.94518e-06
3.38907e-06
3.55947e-06
7.07083e-06
8.94058e-06
3.62683e-06
3.38829e-06
4.70286e-06
1.16282e-05
1.02849e-05
1.11082e-05
3.45698e-06
3.63013e-06
4.16805e-06
4.14373e-06
1.04968e-05
1.20712e-05
3.64694e-06
3.60411e-06
4.25201e-06
4.24062e-06
3.80922e-06
4.14137e-06
4.26758e-06
9.82117e-06
1.25753e-05
4.7221e-06
4.22428e-06
4.20708e-06
1.16817e-05
1.17318e-05
1.49051e-05
4.43223e-06
4.25655e-06
4.96481e-06
4.92538e-06
1.24954e-05
1.36025e-05
4.63081e-06
4.33938e-06
5.27985e-06
4.89384e-06
4.29304e-06
4.87979e-06
4.51046e-06
1.27818e-05
1.36222e-05
4.06063e-06
4.886e-06
4.29989e-06
1.22728e-05
1.55358e-05
1.67796e-05
5.3394e-06
5.31064e-06
6.5236e-06
6.40074e-06
1.42528e-05
1.73311e-05
5.43922e-06
5.23051e-06
6.62687e-06
6.40217e-06
4.92432e-06
6.36378e-06
6.56758e-06
1.42049e-05
1.71122e-05
5.05022e-06
6.35411e-06
7.95148e-06
1.85601e-05
1.70479e-05
1.78097e-05
6.69485e-06
6.54032e-06
6.91016e-06
7.42374e-06
1.78031e-05
1.90101e-05
6.84231e-06
6.73577e-06
7.03269e-06
7.33346e-06
7.05998e-06
7.47552e-06
7.92936e-06
1.76778e-05
1.92104e-05
8.39772e-06
7.66632e-06
8.51339e-06
1.95572e-05
1.82723e-05
2.19369e-05
7.10867e-06
7.83721e-06
9.3821e-06
8.48393e-06
1.93469e-05
2.04631e-05
7.15318e-06
7.62664e-06
9.27176e-06
8.85261e-06
7.93711e-06
8.42925e-06
7.91213e-06
1.96295e-05
2.10409e-05
8.31766e-06
8.73016e-06
7.96039e-06
1.88083e-05
2.26576e-05
2.32604e-05
9.91678e-06
8.70228e-06
1.03876e-05
1.03138e-05
2.09669e-05
2.37358e-05
9.99331e-06
9.18737e-06
1.07048e-05
9.78511e-06
7.99379e-06
1.02354e-05
1.09853e-05
2.13804e-05
2.24438e-05
8.02261e-06
9.72341e-06
1.09724e-05
2.512e-05
2.34534e-05
2.46296e-05
1.0476e-05
1.10792e-05
1.19228e-05
1.24105e-05
2.423e-05
2.4727e-05
1.07772e-05
1.01246e-05
1.19222e-05
1.22422e-05
1.23909e-05
1.25032e-05
1.34624e-05
2.29998e-05
2.54528e-05
1.23698e-05
1.24299e-05
1.33782e-05
2.58873e-05
2.51505e-05
2.60884e-05
1.24987e-05
1.24891e-05
1.32782e-05
1.25991e-05
2.48416e-05
2.53256e-05
1.24765e-05
1.29496e-05
1.33238e-05
1.376e-05
1.34056e-05
1.26511e-05
1.25369e-05
2.58623e-05
2.61904e-05
1.33104e-05
1.36669e-05
1.24354e-05
2.43289e-05
2.63111e-05
2.73457e-05
1.35091e-05
1.27608e-05
1.46563e-05
1.51516e-05
2.56943e-05
2.79533e-05
1.35214e-05
1.37767e-05
1.46163e-05
1.40191e-05
1.25064e-05
1.4933e-05
1.36634e-05
2.6285e-05
2.68173e-05
1.24125e-05
1.39481e-05
1.37146e-05
2.73006e-05
2.77943e-05
2.92275e-05
1.52616e-05
1.60488e-05
1.70765e-05
1.73073e-05
2.84785e-05
2.93456e-05
1.52058e-05
1.45418e-05
1.70079e-05
1.69918e-05
1.50762e-05
1.72549e-05
1.79772e-05
2.72555e-05
2.93257e-05
1.51182e-05
1.70977e-05
1.79617e-05
2.99581e-05
2.95528e-05
3.02838e-05
1.74812e-05
1.74706e-05
1.88238e-05
1.89565e-05
2.95939e-05
3.03627e-05
1.74842e-05
1.77173e-05
1.89035e-05
1.90152e-05
1.85539e-05
1.91244e-05
1.92774e-05
2.97493e-05
3.04278e-05
1.85207e-05
1.90603e-05
1.91374e-05
3.02292e-05
3.05046e-05
3.11709e-05
1.92006e-05
1.92915e-05
2.01901e-05
2.00247e-05
3.05902e-05
3.1004e-05
1.9221e-05
1.93392e-05
2.00581e-05
2.0215e-05
1.9312e-05
1.98681e-05
1.95996e-05
3.06177e-05
3.12231e-05
1.91639e-05
2.01141e-05
1.95409e-05
3.09522e-05
3.14748e-05
3.27775e-05
2.05896e-05
2.03829e-05
2.22939e-05
2.18228e-05
3.12292e-05
3.23442e-05
2.04545e-05
2.06623e-05
2.22723e-05
2.20641e-05
2.01543e-05
2.17555e-05
2.2325e-05
3.14952e-05
3.25974e-05
2.02477e-05
2.20976e-05
2.23352e-05
3.26798e-05
3.31137e-05
3.36605e-05
2.29709e-05
2.23875e-05
2.42671e-05
2.39647e-05
3.27075e-05
3.38023e-05
2.30164e-05
2.25169e-05
2.42274e-05
2.43069e-05
2.27448e-05
2.40165e-05
2.40672e-05
3.29113e-05
3.38604e-05
2.27057e-05
2.4411e-05
2.39876e-05
3.39384e-05
3.37846e-05
3.44069e-05
2.44041e-05
2.453e-05
2.5007e-05
2.61597e-05
3.41151e-05
3.50382e-05
2.432e-05
2.47483e-05
2.5015e-05
2.5419e-05
2.48205e-05
2.62057e-05
2.63681e-05
3.40812e-05
3.4488e-05
2.47353e-05
2.53367e-05
2.62713e-05
3.49194e-05
3.47827e-05
3.63441e-05
2.57158e-05
2.65052e-05
2.8079e-05
2.72682e-05
3.52083e-05
3.56399e-05
2.57735e-05
2.57547e-05
2.80425e-05
2.73495e-05
2.64334e-05
2.72884e-05
2.644e-05
3.46724e-05
3.59415e-05
2.63478e-05
2.74122e-05
2.63837e-05
3.47405e-05
3.65548e-05
3.69481e-05
2.84265e-05
2.75625e-05
2.91307e-05
2.93846e-05
3.58963e-05
3.7275e-05
2.83717e-05
2.79816e-05
2.91309e-05
2.95161e-05
2.65625e-05
2.91955e-05
2.94764e-05
3.63254e-05
3.72042e-05
2.65452e-05
2.94283e-05
2.95306e-05
3.80075e-05
3.71711e-05
3.84001e-05
2.95863e-05
3.00444e-05
3.1205e-05
3.09864e-05
3.75815e-05
3.79862e-05
2.95885e-05
2.98809e-05
3.11121e-05
3.08764e-05
3.05237e-05
3.11207e-05
3.22056e-05
3.73728e-05
3.82127e-05
3.05248e-05
3.0989e-05
3.20961e-05
3.89059e-05
3.86056e-05
3.87021e-05
3.16116e-05
3.10577e-05
3.19795e-05
3.14985e-05
3.80579e-05
3.86303e-05
3.15455e-05
3.11913e-05
3.2131e-05
3.26486e-05
3.22594e-05
3.15788e-05
3.20191e-05
3.85281e-05
3.94063e-05
3.2146e-05
3.27986e-05
3.19473e-05
3.82753e-05
3.8763e-05
4.02153e-05
3.20533e-05
3.20601e-05
3.36305e-05
3.42134e-05
3.89607e-05
4.05029e-05
3.22284e-05
3.31349e-05
3.359e-05
3.37162e-05
3.19547e-05
3.41488e-05
3.22798e-05
3.95547e-05
3.9686e-05
3.19027e-05
3.34839e-05
3.22883e-05
3.93622e-05
4.07856e-05
4.20281e-05
3.45411e-05
3.46905e-05
3.64973e-05
3.562e-05
4.07968e-05
4.13177e-05
3.42898e-05
3.37629e-05
3.59792e-05
3.43231e-05
3.31861e-05
3.55715e-05
3.61357e-05
3.97509e-05
4.04071e-05
3.32744e-05
3.4027e-05
3.60566e-05
4.19485e-05
4.20802e-05
4.16397e-05
3.66642e-05
3.58686e-05
3.6577e-05
3.61883e-05
4.14311e-05
4.17016e-05
3.63045e-05
3.49501e-05
3.65864e-05
3.71657e-05
3.66026e-05
3.61001e-05
3.70261e-05
4.07468e-05
4.24524e-05
3.64522e-05
3.69361e-05
3.68102e-05
4.22659e-05
4.16476e-05
4.17668e-05
3.64216e-05
3.63427e-05
3.63208e-05
3.76969e-05
4.18181e-05
4.30102e-05
3.65888e-05
3.76374e-05
3.66752e-05
3.80559e-05
3.70386e-05
3.79186e-05
3.71732e-05
4.27884e-05
4.34549e-05
3.68423e-05
3.85106e-05
3.72839e-05
4.25848e-05
4.19868e-05
4.40455e-05
3.64097e-05
3.81437e-05
3.8692e-05
3.90897e-05
4.3392e-05
4.41287e-05
3.68964e-05
3.81607e-05
3.93303e-05
3.92257e-05
3.74838e-05
3.94007e-05
3.94124e-05
4.35888e-05
4.41918e-05
3.79709e-05
3.95295e-05
3.95298e-05
4.41835e-05
4.45025e-05
4.57343e-05
3.95821e-05
3.93747e-05
4.14825e-05
4.00256e-05
4.41888e-05
4.43255e-05
4.00528e-05
3.94167e-05
4.09754e-05
3.96827e-05
3.9667e-05
3.96299e-05
3.98542e-05
4.42496e-05
4.40836e-05
3.96702e-05
3.95337e-05
3.97262e-05
4.42516e-05
4.58287e-05
4.55772e-05
4.17312e-05
4.02098e-05
4.17738e-05
4.11471e-05
4.44588e-05
4.52947e-05
4.10039e-05
4.00174e-05
4.10065e-05
4.11511e-05
3.99904e-05
4.10987e-05
4.10536e-05
4.41903e-05
4.54384e-05
3.97979e-05
4.09944e-05
4.09771e-05
4.5436e-05
4.558e-05
4.58064e-05
4.16726e-05
4.1522e-05
4.16371e-05
4.22265e-05
4.55618e-05
4.63888e-05
4.10453e-05
4.12982e-05
4.1807e-05
4.20183e-05
4.13332e-05
4.23054e-05
4.24129e-05
4.55962e-05
4.62398e-05
4.129e-05
4.21716e-05
4.24183e-05
4.65742e-05
4.60955e-05
4.72951e-05
4.17863e-05
4.23575e-05
4.32033e-05
4.32565e-05
4.65184e-05
4.71868e-05
4.23467e-05
4.25171e-05
4.37473e-05
4.3909e-05
4.28397e-05
4.34229e-05
4.356e-05
4.65731e-05
4.76635e-05
4.287e-05
4.3919e-05
4.36102e-05
4.72336e-05
4.73995e-05
4.72629e-05
4.35469e-05
4.36776e-05
4.40971e-05
4.43638e-05
4.74281e-05
4.77873e-05
4.38599e-05
4.40212e-05
4.37967e-05
4.38766e-05
4.36096e-05
4.44301e-05
4.36807e-05
4.77074e-05
4.71538e-05
4.36384e-05
4.38871e-05
4.36312e-05
4.70346e-05
4.7286e-05
4.80136e-05
4.41611e-05
4.43942e-05
4.46017e-05
4.44333e-05
4.78022e-05
4.77502e-05
4.37899e-05
4.38169e-05
4.4368e-05
4.40797e-05
4.37859e-05
4.44548e-05
4.48483e-05
4.71561e-05
4.78047e-05
4.36682e-05
4.41957e-05
4.47802e-05
4.83119e-05
4.83831e-05
5.01932e-05
4.49494e-05
4.45419e-05
4.64684e-05
4.59846e-05
4.79e-05
4.92672e-05
4.50309e-05
4.4717e-05
4.70477e-05
4.67434e-05
4.51907e-05
4.59118e-05
4.60759e-05
4.82574e-05
5.00078e-05
4.5245e-05
4.66579e-05
4.62787e-05
4.93874e-05
5.04922e-05
5.0599e-05
4.69747e-05
4.6467e-05
4.76112e-05
4.73393e-05
4.95506e-05
5.01684e-05
4.75264e-05
4.71836e-05
4.78558e-05
4.75837e-05
4.6405e-05
4.73296e-05
4.73305e-05
5.01977e-05
5.01374e-05
4.6526e-05
4.72397e-05
4.71651e-05
5.01581e-05
5.05424e-05
4.92818e-05
4.76079e-05
4.74303e-05
4.72272e-05
4.7708e-05
5.02331e-05
5.0361e-05
4.78038e-05
4.75745e-05
4.68399e-05
4.72681e-05
4.75093e-05
4.76491e-05
4.78518e-05
5.01248e-05
4.98197e-05
4.73214e-05
4.72213e-05
4.78703e-05
5.06547e-05
4.9235e-05
4.95518e-05
4.71332e-05
4.78075e-05
4.72871e-05
4.79244e-05
5.04181e-05
5.04181e-05
4.65774e-05
4.71947e-05
4.64853e-05
4.7296e-05
4.7917e-05
4.78456e-05
4.79176e-05
4.98571e-05
5.05252e-05
4.79846e-05
4.82347e-05
4.79551e-05
5.02503e-05
4.99292e-05
5.21544e-05
4.77339e-05
4.79723e-05
4.91912e-05
4.89269e-05
5.04662e-05
5.18392e-05
4.67094e-05
4.76222e-05
4.94827e-05
4.89652e-05
4.7912e-05
4.93345e-05
4.81402e-05
5.07135e-05
5.13894e-05
4.78853e-05
4.85707e-05
4.79446e-05
5.0523e-05
5.2558e-05
5.33597e-05
4.9649e-05
4.95036e-05
5.07047e-05
5.05569e-05
5.2279e-05
5.30152e-05
5.02622e-05
4.95057e-05
5.12469e-05
5.08847e-05
4.86479e-05
5.05583e-05
5.04793e-05
5.16694e-05
5.31044e-05
4.82132e-05
5.04712e-05
5.04439e-05
5.30103e-05
5.33689e-05
5.24237e-05
5.07886e-05
5.05858e-05
5.06546e-05
5.03127e-05
5.29881e-05
5.18451e-05
5.12536e-05
5.10001e-05
5.0753e-05
5.08511e-05
5.07788e-05
5.00229e-05
5.08881e-05
5.32043e-05
5.26221e-05
5.09028e-05
5.0887e-05
5.11869e-05
5.30175e-05
5.23168e-05
5.19152e-05
5.0449e-05
5.01582e-05
5.0211e-05
5.00873e-05
5.17772e-05
5.18737e-05
5.03959e-05
5.05618e-05
4.9972e-05
5.01884e-05
5.08119e-05
4.97814e-05
5.05854e-05
5.25283e-05
5.20592e-05
5.11501e-05
5.04383e-05
5.08347e-05
5.26246e-05
5.20507e-05
5.36465e-05
5.02354e-05
5.0186e-05
5.13949e-05
5.16649e-05
5.21478e-05
5.39906e-05
4.99889e-05
5.02072e-05
5.12369e-05
5.14454e-05
5.05972e-05
5.16932e-05
5.1577e-05
5.21648e-05
5.37908e-05
5.08303e-05
5.13345e-05
5.13035e-05
5.38258e-05
5.4002e-05
5.47399e-05
5.19151e-05
5.21308e-05
5.28996e-05
5.30282e-05
5.43023e-05
5.50198e-05
5.1891e-05
5.20772e-05
5.2945e-05
5.28224e-05
5.22196e-05
5.33289e-05
5.30702e-05
5.41602e-05
5.46613e-05
5.18693e-05
5.28447e-05
5.27815e-05
5.4767e-05
5.47756e-05
5.44064e-05
5.29979e-05
5.31182e-05
5.29438e-05
5.30532e-05
5.506e-05
5.46136e-05
5.30092e-05
5.28259e-05
5.28807e-05
5.26382e-05
5.30766e-05
5.32604e-05
5.26863e-05
5.46396e-05
5.4091e-05
5.28004e-05
5.27285e-05
5.25117e-05
5.38744e-05
5.43754e-05
5.44086e-05
5.28228e-05
5.29051e-05
5.27569e-05
5.27732e-05
5.45443e-05
5.43137e-05
5.27698e-05
5.26169e-05
5.27559e-05
5.28457e-05
5.24917e-05
5.27267e-05
5.24246e-05
5.40926e-05
5.46749e-05
5.23722e-05
5.27176e-05
5.23766e-05
5.40218e-05
5.46012e-05
5.55206e-05
5.28398e-05
5.28206e-05
5.37731e-05
5.34873e-05
5.4425e-05
5.50938e-05
5.28991e-05
5.32746e-05
5.39136e-05
5.42414e-05
5.25711e-05
5.33605e-05
5.42024e-05
5.49697e-05
5.58642e-05
5.25864e-05
5.40965e-05
5.4386e-05
5.62322e-05
5.56097e-05
5.56056e-05
5.39686e-05
5.36706e-05
5.41742e-05
5.42314e-05
5.52096e-05
5.58056e-05
5.4117e-05
5.4318e-05
5.4288e-05
5.42675e-05
5.44719e-05
5.43762e-05
5.45002e-05
5.5888e-05
5.54649e-05
5.46166e-05
5.42647e-05
5.45542e-05
5.5803e-05
5.56141e-05
5.57568e-05
5.41958e-05
5.44105e-05
5.44956e-05
5.45699e-05
5.59179e-05
5.5829e-05
5.42836e-05
5.41576e-05
5.42573e-05
5.39635e-05
5.43118e-05
5.4453e-05
5.37285e-05
5.54378e-05
5.52907e-05
5.42579e-05
5.40123e-05
5.36728e-05
5.46682e-05
5.58287e-05
5.59393e-05
5.45956e-05
5.45507e-05
5.46715e-05
5.44542e-05
5.57957e-05
5.56002e-05
5.42738e-05
5.39635e-05
5.45001e-05
5.43388e-05
5.37201e-05
5.4308e-05
5.43848e-05
5.5354e-05
5.5917e-05
5.36763e-05
5.44918e-05
5.46332e-05
5.63448e-05
5.59811e-05
5.68231e-05
5.46951e-05
5.44742e-05
5.52688e-05
5.52851e-05
5.57026e-05
5.69592e-05
5.46482e-05
5.45844e-05
5.54958e-05
5.55833e-05
5.50606e-05
5.56263e-05
5.60314e-05
5.60614e-05
5.69572e-05
5.52844e-05
5.56922e-05
5.59983e-05
5.75272e-05
5.70084e-05
5.70335e-05
5.55732e-05
5.56645e-05
5.58469e-05
5.60644e-05
5.71623e-05
5.73009e-05
5.57445e-05
5.58879e-05
5.59001e-05
5.61153e-05
5.60396e-05
5.60956e-05
5.55564e-05
5.71469e-05
5.7285e-05
5.59862e-05
5.59733e-05
5.53448e-05
5.62318e-05
5.6959e-05
5.6503e-05
5.58212e-05
5.60505e-05
5.56159e-05
5.56121e-05
5.72633e-05
5.65105e-05
5.58468e-05
5.60679e-05
5.55562e-05
5.55239e-05
5.53425e-05
5.55027e-05
5.52725e-05
5.72244e-05
5.64813e-05
5.51627e-05
5.54609e-05
5.51697e-05
5.62559e-05
5.65338e-05
5.77258e-05
5.56222e-05
5.55404e-05
5.6254e-05
5.56999e-05
5.64948e-05
5.70832e-05
5.55597e-05
5.5487e-05
5.61586e-05
5.57954e-05
5.54208e-05
5.57711e-05
5.69777e-05
5.64839e-05
5.73984e-05
5.54119e-05
5.61528e-05
5.71342e-05
5.87503e-05
5.78996e-05
5.7588e-05
5.65395e-05
5.61038e-05
5.66392e-05
5.67629e-05
5.73972e-05
5.79816e-05
5.64458e-05
5.62144e-05
5.65505e-05
5.65805e-05
5.71731e-05
5.68259e-05
5.69312e-05
5.76468e-05
5.77412e-05
5.73e-05
5.67512e-05
5.69883e-05
5.7606e-05
5.73977e-05
5.62874e-05
5.64917e-05
5.67425e-05
5.56558e-05
5.60335e-05
5.79248e-05
5.67569e-05
5.64115e-05
5.65257e-05
5.56726e-05
5.57928e-05
5.6336e-05
5.59467e-05
5.51239e-05
5.75971e-05
5.6418e-05
5.63246e-05
5.56066e-05
5.50177e-05
5.54608e-05
5.62902e-05
5.77411e-05
5.56105e-05
5.58919e-05
5.61064e-05
5.60173e-05
5.67175e-05
5.73967e-05
5.56439e-05
5.57119e-05
5.62449e-05
5.59821e-05
5.51104e-05
5.6028e-05
5.6335e-05
5.63989e-05
5.73636e-05
5.49952e-05
5.58032e-05
5.61607e-05
5.80811e-05
5.82195e-05
5.98064e-05
5.68637e-05
5.64363e-05
5.83262e-05
5.7773e-05
5.77684e-05
5.89514e-05
5.70332e-05
5.65741e-05
5.84275e-05
5.8133e-05
5.72859e-05
5.77576e-05
5.83239e-05
5.779e-05
5.93556e-05
5.71848e-05
5.81502e-05
5.84444e-05
5.99165e-05
5.98304e-05
5.80447e-05
5.83829e-05
5.78446e-05
5.76921e-05
5.74485e-05
5.89648e-05
5.77861e-05
5.84647e-05
5.82672e-05
5.76017e-05
5.80315e-05
5.82826e-05
5.71469e-05
5.65739e-05
5.94223e-05
5.86722e-05
5.84242e-05
5.80594e-05
5.69057e-05
5.6952e-05
5.75532e-05
5.53934e-05
5.6822e-05
5.69114e-05
5.51241e-05
5.58736e-05
5.7541e-05
5.6736e-05
5.66917e-05
5.74825e-05
5.49706e-05
5.55064e-05
5.60013e-05
5.60032e-05
5.57062e-05
5.83808e-05
5.6265e-05
5.62659e-05
5.57634e-05
5.57932e-05
5.63611e-05
5.53757e-05
5.74193e-05
5.50408e-05
5.58251e-05
5.57953e-05
5.62364e-05
5.6764e-05
5.7924e-05
5.48875e-05
5.52049e-05
5.56657e-05
5.52558e-05
5.59108e-05
5.68401e-05
5.79247e-05
5.61114e-05
5.6401e-05
5.59016e-05
5.55584e-05
5.75887e-05
5.948e-05
5.81384e-05
6.12908e-05
5.69558e-05
5.69166e-05
5.95279e-05
5.86857e-05
5.82626e-05
5.97361e-05
5.68488e-05
5.5736e-05
5.96282e-05
5.8993e-05
5.81919e-05
5.83422e-05
5.8082e-05
5.69113e-05
6.02274e-05
5.79067e-05
5.85297e-05
5.79353e-05
5.88831e-05
6.14253e-05
5.96591e-05
5.97257e-05
5.88632e-05
5.91395e-05
5.85844e-05
5.98283e-05
5.89574e-05
5.98969e-05
5.95788e-05
5.94889e-05
5.97366e-05
5.76192e-05
5.79917e-05
5.6327e-05
6.05606e-05
6.05122e-05
5.76398e-05
5.89873e-05
5.64782e-05
5.67033e-05
5.89258e-05
5.50657e-05
5.79336e-05
5.78374e-05
5.4837e-05
5.53821e-05
5.85294e-05
5.6068e-05
5.84452e-05
5.93609e-05
5.49482e-05
5.58028e-05
5.62318e-05
5.5777e-05
5.64915e-05
6.00778e-05
5.64356e-05
5.63672e-05
5.61052e-05
5.65304e-05
5.77108e-05
5.49126e-05
5.62323e-05
5.45449e-05
5.51794e-05
5.49195e-05
5.5643e-05
5.60062e-05
5.7498e-05
5.44749e-05
5.49663e-05
5.4516e-05
5.43868e-05
5.69487e-05
5.63042e-05
5.77652e-05
5.60545e-05
5.54592e-05
5.69013e-05
5.52591e-05
5.76457e-05
5.92821e-05
5.6927e-05
6.01441e-05
5.59331e-05
5.66574e-05
5.86542e-05
5.85598e-05
5.81016e-05
5.99354e-05
5.51257e-05
5.45468e-05
5.83319e-05
5.75345e-05
5.78126e-05
5.8223e-05
5.75212e-05
5.57529e-05
5.90779e-05
5.77165e-05
5.75914e-05
5.75688e-05
5.8425e-05
6.03182e-05
5.9419e-05
5.8907e-05
5.86126e-05
5.86061e-05
5.76493e-05
5.99462e-05
5.78554e-05
5.8808e-05
5.83163e-05
5.88465e-05
5.87596e-05
5.71648e-05
5.70151e-05
5.62576e-05
5.94573e-05
5.97149e-05
5.72895e-05
5.81324e-05
5.63598e-05
5.69484e-05
5.90143e-05
5.67034e-05
5.78668e-05
5.68152e-05
5.58832e-05
5.55737e-05
5.74604e-05
5.63301e-05
5.84642e-05
5.85928e-05
5.61175e-05
5.62891e-05
5.61081e-05
5.56714e-05
5.60241e-05
5.94158e-05
5.68047e-05
5.61357e-05
5.6e-05
5.58981e-05
5.69744e-05
5.66334e-05
5.72238e-05
5.57048e-05
5.5561e-05
5.58498e-05
5.62964e-05
5.63712e-05
5.79622e-05
5.57885e-05
5.58684e-05
5.57684e-05
5.57965e-05
5.61108e-05
5.65882e-05
5.69617e-05
5.66594e-05
5.71748e-05
5.59335e-05
5.59666e-05
5.68793e-05
5.83969e-05
5.75255e-05
5.83629e-05
5.6283e-05
5.68284e-05
5.69888e-05
5.74617e-05
5.82729e-05
5.89577e-05
5.60864e-05
5.61429e-05
5.69141e-05
5.71633e-05
5.72739e-05
5.75398e-05
5.75776e-05
5.75775e-05
5.88673e-05
5.73287e-05
5.75863e-05
5.7824e-05
5.90797e-05
5.82772e-05
5.60057e-05
5.64793e-05
5.88623e-05
5.59419e-05
5.62078e-05
4.70463e-05
4.68279e-05
4.72173e-05
5.65013e-05
5.87925e-05
5.67352e-05
1.27256e-07
2.44355e-07
6.92135e-08
9.82435e-08
2.76296e-07
4.56044e-07
1.37585e-06
1.31861e-07
2.70918e-07
3.18244e-07
1.72017e-07
3.24858e-07
3.48409e-07
2.67666e-07
4.19016e-07
3.22219e-07
6.02531e-06
2.8426e-07
7.64149e-06
1.37844e-05
2.17866e-05
3.61802e-07
6.77667e-06
3.21706e-07
8.12126e-06
1.85006e-07
1.74189e-07
1.97013e-07
1.61501e-07
1.82222e-07
1.73292e-07
1.96773e-07
2.6015e-07
1.66288e-06
2.93686e-07
6.67473e-07
2.64258e-07
1.67687e-06
2.84643e-07
1.4131e-05
2.19931e-05
2.53316e-07
2.7975e-07
7.27049e-07
3.29726e-07
2.58743e-07
2.7883e-07
6.98482e-07
1.90088e-06
1.93832e-06
3.35925e-07
1.86878e-06
1.90733e-06
5.08492e-07
1.11239e-05
4.2081e-07
1.60336e-05
3.70018e-05
4.70544e-05
5.52863e-07
1.11831e-05
4.63164e-07
1.29592e-05
1.79151e-07
1.71976e-07
1.95512e-07
1.54618e-07
1.70245e-07
1.67235e-07