/*--------------------------------*- C++ -*----------------------------------*\
| =========                 |                                                 |
| \\      /  F ield         | OpenFOAM: The Open Source CFD Toolbox           |
|  \\    /   O peration     | Version:  v2012                                 |
|   \\  /    A nd           | Website:  www.openfoam.com                      |
|    \\/     M anipulation  |                                                 |
\*---------------------------------------------------------------------------*/
FoamFile
{
    version     2.0;
    format      ascii;
    class       volScalarField;
    location    "937.5";
    object      nut;
}
// * * * * * * * * * * * * * * * * * * * * * * * * * * * * * * * * * * * * * //

dimensions      [0 2 -1 0 0 0 0];


internalField   nonuniform List<scalar> 
171728
(
1.68813e-06
9.42694e-06
1.95229e-06
2.1623e-06
1.67315e-06
7.39511e-06
1.95153e-06
2.1382e-06
1.65776e-06
3.60927e-06
1.94236e-06
2.14769e-06
1.68922e-06
2.42595e-06
1.94076e-06
2.275e-06
1.64588e-06
2.13576e-06
1.94205e-06
2.49159e-06
1.59461e-06
2.00293e-06
1.86947e-06
2.722e-06
1.57074e-06
1.85844e-06
1.71537e-06
2.86947e-06
1.59898e-06
1.70811e-06
1.5408e-06
2.31937e-06
1.61111e-06
1.59105e-06
1.37223e-06
2.06792e-06
1.6166e-06
1.51207e-06
1.24569e-06
1.90825e-06
1.61368e-06
1.44549e-06
1.15969e-06
1.8237e-06
1.60405e-06
1.3721e-06
1.10656e-06
1.74369e-06
1.59624e-06
1.28495e-06
1.05655e-06
1.66371e-06
1.59002e-06
1.1878e-06
1.02979e-06
1.61772e-06
1.58193e-06
1.09111e-06
1.18455e-06
1.57182e-06
1.57351e-06
1.00827e-06
1.70474e-06
1.52827e-06
1.56717e-06
9.4986e-07
2.60382e-06
1.46467e-06
1.55965e-06
8.90026e-07
3.64978e-06
1.33543e-06
1.5443e-06
9.34799e-07
4.51959e-06
1.29548e-06
1.53388e-06
1.03271e-06
4.41002e-06
1.00888e-06
1.51944e-06
1.23216e-06
3.47557e-06
2.9817e-06
1.47798e-06
1.48488e-06
2.37604e-06
1.42945e-06
1.41359e-06
2.00878e-06
3.13845e-06
4.32531e-06
1.34922e-06
3.15907e-06
3.23911e-06
4.4989e-06
1.25044e-06
3.34811e-06
3.71183e-06
9.93348e-06
1.21593e-06
6.36688e-06
4.65341e-06
1.12115e-05
1.14375e-06
6.23823e-06
8.05893e-06
1.68904e-05
1.17739e-06
9.48995e-06
8.05212e-06
2.54493e-05
1.18457e-06
1.24872e-05
1.2916e-05
4.17239e-05
1.28801e-06
1.37932e-05
1.40593e-05
3.50539e-05
1.22338e-06
1.75113e-05
1.71512e-05
3.65364e-05
1.45727e-06
2.22438e-05
2.29802e-05
6.31199e-05
1.30664e-06
2.6864e-05
2.73659e-05
5.86352e-05
2.68369e-06
2.80415e-05
3.00991e-05
5.33222e-05
2.79861e-06
3.86846e-05
3.38976e-05
8.42497e-05
3.69654e-06
4.41271e-05
4.65912e-05
7.94762e-05
4.03816e-06
4.12504e-05
4.66721e-05
6.90164e-05
4.84776e-06
5.47235e-05
4.70266e-05
8.43288e-05
7.41564e-06
6.04825e-05
6.17536e-05
9.23996e-05
9.48951e-06
6.76094e-05
6.67051e-05
9.10271e-05
1.03636e-05
6.70645e-05
6.91519e-05
9.34557e-05
1.39894e-05
7.51993e-05
7.63498e-05
9.99839e-05
1.75595e-05
8.36873e-05
8.53479e-05
0.000104934
1.6919e-05
9.09672e-05
8.51836e-05
0.000106413
2.68087e-05
9.25568e-05
9.48626e-05
0.000104755
2.84058e-05
0.000102208
0.000101542
0.000121023
3.56481e-05
0.000106119
0.000107431
0.000121643
3.71192e-05
0.00010697
0.000114289
0.000116419
4.19652e-05
0.000119571
0.000112358
0.000122878
5.71739e-05
0.000122523
0.000114611
0.000133073
6.31498e-05
0.00012253
0.000129729
0.000132448
5.56851e-05
0.000132914
0.000135484
0.000133865
5.79281e-05
0.000136515
0.000137138
0.00013992
9.04809e-05
0.000135798
0.000134612
0.000138804
9.56144e-05
0.000143703
0.000142065
0.000144452
8.97794e-05
0.000147781
0.000149075
0.000149616
9.91954e-05
0.000154188
0.000155281
0.000150766
0.000105105
0.000156124
0.000152429
0.000148855
0.000110464
0.000154703
0.000156566
0.000155554
0.000122942
0.00016486
0.000168502
0.000159856
0.000138883
0.000169822
0.000168893
0.000163347
0.000134115
0.000169986
0.000167549
0.000164572
0.000126386
0.000170621
0.000172657
0.000161216
0.000141437
0.00018162
0.000174391
0.000163609
0.000162962
0.000184867
0.000186065
0.000175532
0.000163555
0.000178871
0.00018492
0.000173895
0.000156895
0.000177659
0.000181689
0.000171503
0.000160048
0.000192531
0.000190235
0.000179271
0.000178074
0.000199561
0.00019599
0.000182075
0.00018357
0.000196443
0.000193886
0.000176518
0.00018169
0.000193704
0.000194971
0.000178573
0.000188384
0.000199031
0.00020339
0.000189737
0.000195385
0.0002044
0.000202579
0.000185439
0.000198564
0.000203148
0.00020076
0.000179815
0.000200932
0.000202923
0.000205526
0.000190823
0.000207886
0.000213217
0.000213086
0.000194905
0.000214692
0.000214089
0.000213108
0.000187174
0.000215078
0.000210211
0.0002104
0.000189884
0.000219592
0.000215456
0.000217524
0.000202696
0.000223253
0.000219218
0.000218206
0.000193217
0.000220381
0.000213063
0.000210497
0.000183684
0.000224706
0.000217972
0.000217024
0.000201427
0.000243784
0.000226934
0.000231001
0.000208569
0.000239381
0.000219705
0.000226263
0.0001905
0.000222029
0.000215289
0.000211857
0.00019149
0.000227376
0.000225325
0.000215299
0.000208147
0.000261134
0.000233827
0.000237778
0.000201944
0.000260965
0.000226812
0.000237309
0.000191646
0.000228435
0.000216376
0.000215571
0.000200141
0.000226252
0.000227026
0.000214749
0.000207967
0.000257706
0.000235856
0.000234165
0.000201848
0.000264902
0.000224001
0.000234523
0.000194339
0.000246392
0.000219572
0.000220721
0.000196371
0.000243889
0.000231035
0.000227412
0.000206209
0.000254846
0.000238335
0.000238243
0.000214204
2.27994e-06
2.50422e-06
1.71614e-06
2.21329e-06
2.41916e-06
3.16287e-06
1.68656e-06
1.86993e-06
1.75557e-06
1.97771e-06
2.92061e-06
2.1646e-06
2.18733e-06
2.11137e-06
2.22814e-06
2.16198e-06
2.25752e-06
2.27143e-06
3.43628e-06
1.52818e-06
3.37524e-06
1.71128e-06
2.19946e-06
2.12333e-06
1.90043e-06
5.77348e-06
2.15167e-06
6.71692e-06
1.82445e-06
8.59375e-06
1.95847e-06
2.17504e-06
2.30453e-06
1.82752e-06
1.95004e-06
1.76808e-06
2.14063e-06
2.25518e-06
2.34607e-06
3.33217e-06
1.7986e-06
3.10729e-06
2.11284e-06
2.10357e-06
2.04284e-06
2.30441e-06
6.7335e-06
3.0024e-06
5.11997e-06
2.02192e-06
4.28082e-06
2.24568e-06
2.29756e-06
2.3006e-06
1.75077e-06
1.94582e-06
1.71224e-06
2.14288e-06
2.33321e-06
2.45247e-06
2.99876e-06
2.27814e-06
2.72e-06
3.33241e-06
2.04794e-06
2.30433e-06
3.36033e-06
4.38979e-06
4.84828e-06
2.64105e-06
2.34319e-06
2.573e-06
2.77828e-06
2.2902e-06
2.22737e-06
1.70206e-06
1.94117e-06
1.67551e-06
2.24557e-06
2.43006e-06
2.42298e-06
2.64798e-06
3.97717e-06
2.3872e-06
7.90354e-06
2.40801e-06
3.12089e-06
5.38589e-06
2.27661e-06
6.13959e-06
1.69567e-06
3.01498e-06
2.18484e-06
4.04236e-06
2.21138e-06
2.10958e-06
1.66635e-06
1.94321e-06
1.63548e-06
2.49155e-06
2.39696e-06
2.29084e-06
2.26826e-06
1.00127e-05
1.86861e-06
1.70793e-05
3.14383e-06
3.79572e-06
5.8581e-06
1.60434e-06
4.18179e-06
1.46555e-06
4.48749e-06
2.03069e-06
6.11901e-06
2.10592e-06
2.05278e-06
1.62364e-06
1.89877e-06
1.58899e-06
2.72969e-06
2.2672e-06
2.09682e-06
1.76083e-06
1.90725e-05
1.54144e-06
1.48678e-05
3.76725e-06
3.00522e-06
3.55488e-06
1.43908e-06
2.22525e-06
1.37382e-06
6.65957e-06
1.89537e-06
7.87797e-06
2.04965e-06
1.97852e-06
1.57956e-06
1.75571e-06
1.55194e-06
2.89906e-06
2.07584e-06
1.93212e-06
1.49256e-06
1.17951e-05
1.42179e-06
4.94417e-06
2.78951e-06
2.22275e-06
1.96825e-06
1.3562e-06
1.50931e-06
1.30905e-06
7.95891e-06
1.74351e-06
5.46637e-06
1.97475e-06
1.88763e-06
1.5413e-06
1.58574e-06
1.5092e-06
2.36695e-06
1.9247e-06
1.84758e-06
1.41252e-06
3.73332e-06
1.36013e-06
2.00517e-06
2.18827e-06
1.96016e-06
1.45103e-06
1.29281e-06
1.42422e-06
1.24526e-06
4.54951e-06
1.614e-06
2.65044e-06
1.88233e-06
1.78503e-06
1.49938e-06
1.41267e-06
1.47165e-06
2.08545e-06
1.84531e-06
1.79632e-06
1.33768e-06
1.78324e-06
1.27556e-06
1.60652e-06
1.95099e-06
1.85508e-06
1.41519e-06
1.2272e-06
1.3662e-06
1.17021e-06
2.2792e-06
1.52955e-06
1.65993e-06
1.77967e-06
1.68402e-06
1.46247e-06
1.27316e-06
1.4275e-06
1.91675e-06
1.79399e-06
1.73025e-06
1.25968e-06
1.60219e-06
1.22267e-06
1.49575e-06
1.84445e-06
1.76479e-06
1.3513e-06
1.152e-06
1.32651e-06
1.0944e-06
1.61361e-06
1.46081e-06
1.59004e-06
1.67868e-06
1.58569e-06
1.41362e-06
1.17615e-06
1.37207e-06
1.83085e-06
1.72593e-06
1.6455e-06
1.20835e-06
1.44608e-06
1.15274e-06
1.34346e-06
1.76003e-06
1.70031e-06
1.32162e-06
1.07415e-06
1.30348e-06
1.02324e-06
1.5782e-06
1.39134e-06
1.49891e-06
1.57944e-06
1.48716e-06
1.35661e-06
1.12039e-06
1.30981e-06
1.75369e-06
1.63712e-06
1.54068e-06
1.13047e-06
1.31772e-06
1.06126e-06
1.25886e-06
1.69104e-06
1.60186e-06
1.2946e-06
1.01109e-06
1.26335e-06
9.76147e-07
1.4877e-06
1.30459e-06
1.47723e-06
1.4785e-06
1.38865e-06
1.29377e-06
1.06794e-06
1.24232e-06
1.67419e-06
1.52878e-06
1.44041e-06
1.04152e-06
1.23902e-06
9.83482e-07
1.16957e-06
1.5882e-06
1.48882e-06
1.25342e-06
9.65808e-07
1.22052e-06
9.32068e-07
1.50467e-06
1.2099e-06
1.66821e-06
1.37827e-06
1.30068e-06
1.22128e-06
1.03197e-06
1.15507e-06
1.62855e-06
1.4255e-06
1.34669e-06
9.66023e-07
1.14302e-06
9.18369e-07
1.0745e-06
1.47108e-06
1.37073e-06
1.20884e-06
9.1206e-07
1.16776e-06
8.54068e-07
1.72757e-06
1.11221e-06
1.96044e-06
1.28854e-06
1.23968e-06
1.12889e-06
1.11882e-06
1.06421e-06
1.58633e-06
1.32746e-06
1.2542e-06
9.0666e-07
1.05247e-06
8.73469e-07
9.91901e-07
1.34742e-06
1.26071e-06
1.15218e-06
8.2522e-07
1.10518e-06
7.56456e-07
2.05994e-06
1.02254e-06
2.39237e-06
1.22922e-06
1.22832e-06
1.0391e-06
1.53526e-06
9.70179e-07
1.54686e-06
1.23221e-06
1.16434e-06
8.68356e-07
9.79002e-07
8.50653e-07
9.26921e-07
1.2355e-06
1.15974e-06
1.09082e-06
7.36755e-07
1.06159e-06
7.14136e-07
2.50038e-06
9.52253e-07
2.73627e-06
1.24093e-06
1.37804e-06
9.47751e-07
2.35281e-06
8.92827e-07
1.4899e-06
1.14462e-06
1.12095e-06
8.46059e-07
9.24251e-07
8.56089e-07
8.74073e-07
1.13873e-06
1.05389e-06
1.05038e-06
7.0506e-07
1.04902e-06
7.03785e-07
2.77783e-06
8.94572e-07
2.69268e-06
1.40697e-06
1.59698e-06
8.71873e-07
3.4196e-06
8.59424e-07
1.37333e-06
1.11086e-06
1.11756e-06
8.57519e-07
8.6961e-07
8.96622e-07
9.30283e-07
1.04171e-06
1.1295e-06
1.04327e-06
7.10173e-07
1.04931e-06
8.47749e-07
2.59179e-06
9.39983e-07
2.11364e-06
1.61508e-06
1.90089e-06
8.43746e-07
4.35363e-06
8.71716e-07
1.28157e-06
1.14396e-06
1.26703e-06
9.15124e-07
9.20577e-07
1.02587e-06
9.45397e-07
1.11314e-06
1.10454e-06
1.08013e-06
8.84626e-07
1.11077e-06
9.35407e-07
1.95079e-06
9.60578e-07
1.57512e-06
1.9363e-06
1.86636e-06
9.07507e-07
4.48253e-06
8.79305e-07
1.06058e-06
1.30665e-06
1.49247e-06
1.06712e-06
1.0221e-06
1.18671e-06
1.17617e-06
1.18884e-06
1.64433e-06
1.15326e-06
1.0648e-06
1.28007e-06
1.53652e-06
1.47803e-06
1.18848e-06
1.86777e-06
1.92767e-06
2.37619e-06
8.63625e-07
3.91648e-06
1.35578e-06
2.83473e-06
1.56405e-06
2.29988e-06
1.24456e-06
1.21925e-06
1.56328e-06
1.39456e-06
1.66036e-06
2.04279e-06
1.33937e-06
1.67354e-06
1.63903e-06
2.01362e-06
1.91391e-06
1.38896e-06
1.64501e-06
2.29197e-06
1.93057e-06
1.42954e-06
2.49657e-06
1.26194e-06
1.52104e-06
2.47712e-06
2.94963e-06
1.6783e-06
1.4927e-06
1.78059e-06
1.94929e-06
2.26753e-06
3.32893e-06
1.74583e-06
2.38486e-06
1.9254e-06
3.48837e-06
1.54763e-06
1.99071e-06
2.176e-06
2.10331e-06
4.87673e-06
1.1924e-06
3.00001e-06
1.89155e-06
3.69348e-06
3.13333e-06
5.6918e-06
1.98957e-06
1.97472e-06
2.73113e-06
2.75601e-06
3.53072e-06
5.17047e-06
2.1887e-06
3.70263e-06
2.7241e-06
4.78577e-06
2.3495e-06
2.69786e-06
2.46501e-06
5.38679e-06
6.67098e-06
1.99628e-06
3.18471e-06
2.17869e-06
4.18944e-06
6.20531e-06
7.58316e-06
2.88182e-06
3.1631e-06
3.74596e-06
3.34302e-06
6.09601e-06
7.01774e-06
2.92771e-06
5.10192e-06
3.63542e-06
5.20428e-06
2.8324e-06
3.42476e-06
4.09478e-06
7.19527e-06
8.05175e-06
2.53908e-06
3.73673e-06
4.03031e-06
9.27966e-06
8.10835e-06
1.14403e-05
3.80204e-06
3.27775e-06
5.01094e-06
5.57696e-06
6.69611e-06
1.48294e-05
3.66861e-06
5.01534e-06
5.3176e-06
4.40963e-06
4.1851e-06
5.42712e-06
4.71204e-06
7.82621e-06
6.93988e-06
4.38491e-06
3.7691e-06
4.97906e-06
1.062e-05
1.28399e-05
1.71488e-05
5.76102e-06
6.45892e-06
6.39307e-06
6.432e-06
1.75666e-05
1.64103e-05
5.82077e-06
4.50395e-06
6.54328e-06
8.94423e-06
5.33717e-06
6.43523e-06
6.30256e-06
8.14434e-06
2.51008e-05
5.6954e-06
7.56525e-06
7.81913e-06
1.60385e-05
1.69535e-05
2.14863e-05
6.33871e-06
6.22126e-06
8.89415e-06
8.70028e-06
1.54836e-05
2.06041e-05
6.87242e-06
9.92013e-06
8.7422e-06
1.00211e-05
6.31359e-06
8.58944e-06
8.97999e-06
2.62368e-05
2.24923e-05
7.95799e-06
8.10955e-06
1.06945e-05
2.26251e-05
2.49491e-05
3.34653e-05
1.03506e-05
9.66123e-06
1.15702e-05
1.12496e-05
2.56317e-05
3.38842e-05
9.94331e-06
9.74054e-06
1.23112e-05
1.05782e-05
1.01027e-05
1.13654e-05
1.23251e-05
2.17832e-05
2.65574e-05
1.36831e-05
1.1224e-05
1.89407e-05
4.07371e-05
3.29419e-05
3.28104e-05
1.13736e-05
1.2276e-05
1.3843e-05
1.38654e-05
3.36866e-05
3.75044e-05
1.22647e-05
1.20675e-05
1.41329e-05
1.43616e-05
1.33154e-05
1.39231e-05
1.45637e-05
2.98198e-05
4.00158e-05
1.84261e-05
1.42636e-05
1.39205e-05
3.59912e-05
3.48029e-05
4.63332e-05
1.49413e-05
1.40218e-05
1.6299e-05
1.60273e-05
3.86349e-05
3.97666e-05
1.58961e-05
1.44454e-05
1.81171e-05
1.59436e-05
1.42505e-05
1.57883e-05
1.37018e-05
4.00511e-05
3.99834e-05
1.26901e-05
1.58093e-05
1.21135e-05
3.34842e-05
4.84053e-05
5.06059e-05
1.77035e-05
1.7576e-05
2.25321e-05
2.21003e-05
4.18046e-05
5.32378e-05
1.82558e-05
1.7199e-05
2.29723e-05
2.18903e-05
1.53353e-05
2.19563e-05
2.29e-05
4.16745e-05
5.19041e-05
1.53372e-05
2.15813e-05
3.12099e-05
5.89674e-05
5.08846e-05
5.09039e-05
2.29543e-05
2.22153e-05
2.22825e-05
2.4994e-05
5.44941e-05
5.68686e-05
2.3642e-05
2.32117e-05
2.2901e-05
2.47008e-05
2.50016e-05
2.53422e-05
2.77263e-05
5.37267e-05
5.7927e-05
3.33458e-05
2.65208e-05
3.14311e-05
5.98657e-05
5.20423e-05
6.68898e-05
2.24703e-05
2.6596e-05
3.29527e-05
2.81873e-05
5.76166e-05
5.98564e-05
2.27744e-05
2.55932e-05
3.21556e-05
3.01165e-05
2.70636e-05
2.79702e-05
2.49383e-05
5.89624e-05
6.26272e-05
2.95031e-05
2.94718e-05
2.53102e-05
5.18089e-05
6.97257e-05
7.0179e-05
3.54393e-05
2.86865e-05
3.59695e-05
3.51639e-05
6.12901e-05
7.23022e-05
3.57636e-05
3.12612e-05
3.78307e-05
3.23423e-05
2.46372e-05
3.47464e-05
3.87127e-05
6.33988e-05
6.57293e-05
2.48952e-05
3.19214e-05
3.87611e-05
7.92494e-05
7.02091e-05
7.32416e-05
3.55758e-05
3.8719e-05
4.09152e-05
4.39595e-05
7.4069e-05
7.40841e-05
3.73789e-05
3.33875e-05
4.10079e-05
4.28272e-05
4.67045e-05
4.45939e-05
5.07252e-05
6.75244e-05
7.74962e-05
4.67206e-05
4.39835e-05
5.03066e-05
8.05991e-05
7.50332e-05
7.76201e-05
4.33766e-05
4.34705e-05
4.51031e-05
4.12973e-05
7.37496e-05
7.35995e-05
4.3316e-05
4.61068e-05
4.54406e-05
4.81065e-05
4.94251e-05
4.1678e-05
4.10946e-05
7.88327e-05
7.83401e-05
4.8951e-05
4.7566e-05
4.06012e-05
6.9094e-05
7.79643e-05
8.10206e-05
4.54599e-05
4.1132e-05
4.88577e-05
5.14051e-05
7.45952e-05
8.40311e-05
4.56001e-05
4.72233e-05
4.87077e-05
4.54129e-05
3.99599e-05
5.01741e-05
4.27382e-05
7.80263e-05
7.83644e-05
3.95204e-05
4.49957e-05
4.31214e-05
8.02752e-05
8.25465e-05
8.80671e-05
5.12384e-05
5.57228e-05
5.87105e-05
6.04086e-05
8.60954e-05
8.89317e-05
5.10295e-05
4.72184e-05
5.8405e-05
5.80173e-05
4.97167e-05
6.0135e-05
6.39009e-05
7.97569e-05
8.84497e-05
5.00945e-05
5.86397e-05
6.39088e-05
9.20117e-05
8.90576e-05
9.12034e-05
5.99938e-05
6.02128e-05
6.45029e-05
6.55778e-05
8.94921e-05
9.17495e-05
6.0092e-05
6.12442e-05
6.50819e-05
6.57541e-05
6.63128e-05
6.66323e-05
6.74674e-05
8.99948e-05
9.19661e-05
6.61989e-05
6.60274e-05
6.6753e-05
9.11637e-05
9.17118e-05
9.34883e-05
6.56067e-05
6.64813e-05
6.81299e-05
6.73783e-05
9.22816e-05
9.27184e-05
6.58429e-05
6.65967e-05
6.74714e-05
6.82871e-05
6.66267e-05
6.65611e-05
6.47169e-05
9.23069e-05
9.37749e-05
6.58786e-05
6.76889e-05
6.43926e-05
9.222e-05
9.44011e-05
9.95782e-05
6.93921e-05
6.82809e-05
7.58602e-05
7.3045e-05
9.32118e-05
9.72978e-05
6.87106e-05
6.97458e-05
7.57584e-05
7.46794e-05
6.65475e-05
7.26452e-05
7.59334e-05
9.45353e-05
9.86808e-05
6.71572e-05
7.49015e-05
7.61427e-05
9.9191e-05
0.000100746
0.000102196
7.86212e-05
7.52086e-05
8.2851e-05
8.11621e-05
9.85909e-05
0.00010285
7.89255e-05
7.61496e-05
8.27557e-05
8.31223e-05
7.74512e-05
8.15022e-05
8.19359e-05
9.96965e-05
0.000103172
7.73628e-05
8.37083e-05
8.15472e-05
0.000103568
0.000102262
0.000103833
8.26369e-05
8.33494e-05
8.27404e-05
8.96263e-05
0.000103882
0.000107399
8.22759e-05
8.46455e-05
8.28473e-05
8.52764e-05
8.51305e-05
8.99605e-05
9.0806e-05
0.000103764
0.000104443
8.47024e-05
8.48675e-05
9.0348e-05
0.000106748
0.000105174
0.000112041
8.55855e-05
9.0619e-05
9.62894e-05
9.206e-05
0.000107784
0.000108598
8.60064e-05
8.6099e-05
9.62024e-05
9.20899e-05
9.00956e-05
9.21946e-05
8.6958e-05
0.00010481
0.000109831
8.97092e-05
9.24555e-05
8.67158e-05
0.000103802
0.000112664
0.000113449
9.74684e-05
9.2737e-05
9.87237e-05
0.000100202
0.000109318
0.000115076
9.72432e-05
9.47566e-05
9.87326e-05
0.000100781
8.64559e-05
9.90606e-05
0.000100377
0.000111301
0.000114783
8.64159e-05
0.000100282
0.000100835
0.000118763
0.00011405
0.000118947
0.000100335
0.000103077
0.0001066
0.000105682
0.000116211
0.000117098
0.000100375
0.000101949
0.000106214
0.000105049
0.000105868
0.000106427
0.000113487
0.000115186
0.000118192
0.000105999
0.000105779
0.000112922
0.000122147
0.000119542
0.000119035
0.000107996
0.000105157
0.000107522
0.000104703
0.00011695
0.000118458
0.000107786
0.000105994
0.000108527
0.000111805
0.00011273
0.00010527
0.000107981
0.000119332
0.000122865
0.000112133
0.000113016
0.000107635
0.000116793
0.000118892
0.000124954
0.000107121
0.000106988
0.000113627
0.000117425
0.000119686
0.000126669
0.00010821
0.000113778
0.000113514
0.000114432
0.000106579
0.000116987
0.000105494
0.000123189
0.000122432
0.000106394
0.0001132
0.000105659
0.000120304
0.000127483
0.000133306
0.000118334
0.00011956
0.000128391
0.000122536
0.000127757
0.000129216
0.000116889
0.000113809
0.000124898
0.000114301
0.000109774
0.000122134
0.000125395
0.000122219
0.000124138
0.00011042
0.000112395
0.000124908
0.000132555
0.000133177
0.00012946
0.000128725
0.000123221
0.000125512
0.000122886
0.000129358
0.000129759
0.000126123
0.000117034
0.000125214
0.000128075
0.000127566
0.000122254
0.000128031
0.000125442
0.000133421
0.000126623
0.000126541
0.000126729
0.00013267
0.000129005
0.000128227
0.000123526
0.000122967
0.00012015
0.000128794
0.000129949
0.000135039
0.000124317
0.000130532
0.000122411
0.000131511
0.000127412
0.000130109
0.00012584
0.000134821
0.000137401
0.000126262
0.000134176
0.000126424
0.000132803
0.000128933
0.000138714
0.000119825
0.000130875
0.00013124
0.000134649
0.000136601
0.000139542
0.000122841
0.000131312
0.000135376
0.000135577
0.000126684
0.000136608
0.000136422
0.000137653
0.000139843
0.000129698
0.00013759
0.000137288
0.000139762
0.000140732
0.000146467
0.000136196
0.000135711
0.000146818
0.000137891
0.000139461
0.000139173
0.000139362
0.000136173
0.000143812
0.000135747
0.000137473
0.00013551
0.000136736
0.000139793
0.000137948
0.000137632
0.000134997
0.000136094
0.000138777
0.000146596
0.0001446
0.000147947
0.000138407
0.000146674
0.000142115
0.000139459
0.000142916
0.000143433
0.000136939
0.000141731
0.000142032
0.00013679
0.000141583
0.000141584
0.000138018
0.000143618
0.000135728
0.000141002
0.000141149
0.000143698
0.000144329
0.000144541
0.000145451
0.000143806
0.000143373
0.000146843
0.000143926
0.00014758
0.000141431
0.000142511
0.00014422
0.000145561
0.000142829
0.000147171
0.000147864
0.000144125
0.000146762
0.000142631
0.000146427
0.000147987
0.000148547
0.000145622
0.000151173
0.000143541
0.000147247
0.000150594
0.000151206
0.000147929
0.000150725
0.000146832
0.000148082
0.000153866
0.00015512
0.000149993
0.0001522
0.000153151
0.000148121
0.000153175
0.000150253
0.00015523
0.000153477
0.000151042
0.00015138
0.000149926
0.000152245
0.000153267
0.0001542
0.000156092
0.000151646
0.000152857
0.000154124
0.000155314
0.00015233
0.000152976
0.000153006
0.000156507
0.000151797
0.000153069
0.000149452
0.000153187
0.000153112
0.000151579
0.000148768
0.000149692
0.000152808
0.00015411
0.000155808
0.00015548
0.000154628
0.00015261
0.000151525
0.000151826
0.000152101
0.000153882
0.000151959
0.000151763
0.000154772
0.000156799
0.000149156
0.000151585
0.000151194
0.000152873
0.00015644
0.000154378
0.000154453
0.000163952
0.000157286
0.000154755
0.000165827
0.000162388
0.000151917
0.000158623
0.000157635
0.000155418
0.000169885
0.000167375
0.000158603
0.000161945
0.000163188
0.000153611
0.000162692
0.000158968
0.000166767
0.000164507
0.000159338
0.000165312
0.00016543
0.000168701
0.000165075
0.000171691
0.000169743
0.000159826
0.000162695
0.00017286
0.000169953
0.000173839
0.000171502
0.000164888
0.000169578
0.000169758
0.000163452
0.000162716
0.000165743
0.000169212
0.000168913
0.000162834
0.000164875
0.000157317
0.000171274
0.00016996
0.000167591
0.000170407
0.000162723
0.000162839
0.000172964
0.000171038
0.00016519
0.000167751
0.000170588
0.000169952
0.000171593
0.000162402
0.000160106
0.00016961
0.00016762
0.000171857
0.000164715
0.000156788
0.000157528
0.000166544
0.000170681
0.000166073
0.000170595
0.000162863
0.000162541
0.00016303
0.000166816
0.000161165
0.000166133
0.000171585
0.000170106
0.000170421
0.000159925
0.000162848
0.000172114
0.000172135
0.000170665
0.000161585
0.000159149
0.000170825
0.000168489
0.000170587
0.000177025
0.000175504
0.000162479
0.000169313
0.00016197
0.000167844
0.0001786
0.000175474
0.000170019
0.000178275
0.00017013
0.000163571
0.000166756
0.000169831
0.000173248
0.000168975
0.000161872
0.000172784
0.000177173
0.000179859
0.000178901
0.000186214
0.000184974
0.000171419
0.000175275
0.000183617
0.000178687
0.000190001
0.000187111
0.000172948
0.000185246
0.000184011
0.00016792
0.000175563
0.000170103
0.000184225
0.000183649
0.000174698
0.000177002
0.000171497
0.000186487
0.000184892
0.000184671
0.000182263
0.000174906
0.000168211
0.000189765
0.000187564
0.000185487
0.000185788
0.000185748
0.00018041
0.000185708
0.00017585
0.000172498
0.000186511
0.000185941
0.000187829
0.000174315
0.00017066
0.000167711
0.00018297
0.000180896
0.000180364
0.000179348
0.000167581
0.000167193
0.000182776
0.000183625
0.000178972
0.00018033
0.000184965
0.000177308
0.000182721
0.000171755
0.000168593
0.000187387
0.000181918
0.000184592
0.000171568
0.00016804
0.000176353
0.000180179
0.000179586
0.000186822
0.00018862
0.000168287
0.000178181
0.000178749
0.000180144
0.000185816
0.0001872
0.000182573
0.000188648
0.000188098
0.000168768
0.000177186
0.000184335
0.00018658
0.000186612
0.000177495
0.00017808
0.000182113
0.000190141
0.000191645
0.000196245
0.000197191
0.000179688
0.000183672
0.000189954
0.000191157
0.000196511
0.000195631
0.000192255
0.00019921
0.000197453
0.000178964
0.000181697
0.000190196
0.000195938
0.000195583
0.000182418
0.000182075
0.000179974
0.000196717
0.000197612
0.000195939
0.000196838
0.000183668
0.000181243
0.00019677
0.000195515
0.000195507
0.000193822
0.000197239
0.000198277
0.000194135
0.000181377
0.000178226
0.000195426
0.000194512
0.000192942
0.00017703
0.000179603
0.000179347
0.000194997
0.000195689
0.000194038
0.000194128
0.000180639
0.000178926
0.000194594
0.000193515
0.00019396
0.000194403
0.000192701
0.00019385
0.000191856
0.000177979
0.000180791
0.000191869
0.000193739
0.00019152
0.000177271
0.00018009
0.000185164
0.00019426
0.000194142
0.000199907
0.000198113
0.000179231
0.000182844
0.000194645
0.000197152
0.000201007
0.000203503
0.000192526
0.000197334
0.000203152
0.000182155
0.000187288
0.000192584
0.000202432
0.000204348
0.000189255
0.000185475
0.000185512
0.000201166
0.000199296
0.000202532
0.000202893
0.000183273
0.000186554
0.000202321
0.000203958
0.000203326
0.000203398
0.000204935
0.000203844
0.000204745
0.000187233
0.000184894
0.000205826
0.000203244
0.000205079
0.000186706
0.000185319
0.000185907
0.000202578
0.000203974
0.000204044
0.000204693
0.000186944
0.000186379
0.000203167
0.000202499
0.000202533
0.000200578
0.000203379
0.000203916
0.00019913
0.000184531
0.000183294
0.000202999
0.000200877
0.000198785
0.000180052
0.000186097
0.000186803
0.000204648
0.000204488
0.000205134
0.00020357
0.000185999
0.000184732
0.000202542
0.000200413
0.000203956
0.000202623
0.000198976
0.000202516
0.000202789
0.000183358
0.000186458
0.000198699
0.00020361
0.000204474
0.000188751
0.000186795
0.000191387
0.00020525
0.0002036
0.000208719
0.000208777
0.000185009
0.000192164
0.000204871
0.000204256
0.000210339
0.00021091
0.000207316
0.000211105
0.00021389
0.00018707
0.000192224
0.000208905
0.00021171
0.000213658
0.000195296
0.000192191
0.000192696
0.000210671
0.000211397
0.000212564
0.000214165
0.000193131
0.000194137
0.000211957
0.000213033
0.000213086
0.000214692
0.000213869
0.000214427
0.000210586
0.000193085
0.000194182
0.000213527
0.000213616
0.00020913
0.00018805
0.000192097
0.000189908
0.000212499
0.00021408
0.000211406
0.000211235
0.000193741
0.000189753
0.000212853
0.000214447
0.0002111
0.000210938
0.00020912
0.000210487
0.00020892
0.000193663
0.000189789
0.000207878
0.000210418
0.000208162
0.000188251
0.000189808
0.0001964
0.000211446
0.000210762
0.000215562
0.000211626
0.000189481
0.000192632
0.000211109
0.000210659
0.000214936
0.000212316
0.000209942
0.000212071
0.000220698
0.0001896
0.000194541
0.000209829
0.000214816
0.000221798
0.000202388
0.000197119
0.0001956
0.000217487
0.000214234
0.000217991
0.000218892
0.000194135
0.00019786
0.000216853
0.000215156
0.000217356
0.000217645
0.00022205
0.000219368
0.000220284
0.000195695
0.000196578
0.000223004
0.000218955
0.000220735
0.000196061
0.000194256
0.000188215
0.000216992
0.000218838
0.000211424
0.000214359
0.000197374
0.000191131
0.000216411
0.000217315
0.000211518
0.000212449
0.00021622
0.000213872
0.000208168
0.000195521
0.000188977
0.000216139
0.000211215
0.000207344
0.000183842
0.000188048
0.000196535
0.0002112
0.00021344
0.000214901
0.000214251
0.000190705
0.000194432
0.00021147
0.0002119
0.000215984
0.000213758
0.000208123
0.000214382
0.000216422
0.000188653
0.000194001
0.000207218
0.000212406
0.000215102
0.000198302
0.000199061
0.000208952
0.000220305
0.000217075
0.000231149
0.000226807
0.000196295
0.000203638
0.00022162
0.000217947
0.000232037
0.000229723
0.000223009
0.000226626
0.000230609
0.00019625
0.000206261
0.000222212
0.000229682
0.000231516
0.000209224
0.000208916
0.000199055
0.000231651
0.00022746
0.000226979
0.000225297
0.00020358
0.000197485
0.000232411
0.000230964
0.000226474
0.000229818
0.000230415
0.000223132
0.000219067
0.000206555
0.000202853
0.000231507
0.000230058
0.000221621
0.000192834
0.000195783
0.000183455
0.00022079
0.000221552
0.000208911
0.000214219
0.000195759
0.000191075
0.000219974
0.000225839
0.000207807
0.000211612
0.000215178
0.00021525
0.00021365
0.000200789
0.00018846
0.000217264
0.000213687
0.000214413
0.000189419
0.000183139
0.000194933
0.000208329
0.000213873
0.000213946
0.000217036
0.000190931
0.00019802
0.00020721
0.000209458
0.000212879
0.000209843
0.000215092
0.000221504
0.000229466
0.000187313
0.000188937
0.00021517
0.000212228
0.000227112
0.000207349
0.000198868
0.00021865
0.000222434
0.000222209
0.000242102
0.000235792
0.000199905
0.000209361
0.000221533
0.000213372
0.000242923
0.000237981
0.000231529
0.000233259
0.000231092
0.000191669
0.000212188
0.000229483
0.000234402
0.000229983
0.000204328
0.00021934
0.000210362
0.000243846
0.000237268
0.000240606
0.000235862
0.000209727
0.000205396
0.00024531
0.000242823
0.000243592
0.00024554
0.00022797
0.00023145
0.000219224
0.000214101
0.000215414
0.000228086
0.000239496
0.000220379
0.000191986
0.000205526
0.000183329
0.000231985
0.000230732
0.00021005
0.000213777
0.000202531
0.000188968
0.000236155
0.000243141
0.000211055
0.000217389
0.000218852
0.000216623
0.000221674
0.000212433
0.000191447
0.000219868
0.000219377
0.00022199
0.000198223
0.000182174
0.000189227
0.000207918
0.000212514
0.000210421
0.000216096
0.000188424
0.000197168
0.000207591
0.000211368
0.000207597
0.000207099
0.000225261
0.000221108
0.000231946
0.000188861
0.000185375
0.00022493
0.000213535
0.000231126
0.000207889
0.000192877
0.000212888
0.000217575
0.000223373
0.00023836
0.000238014
0.000200339
0.000212037
0.000211766
0.000208182
0.000235849
0.000229949
0.000232408
0.000235633
0.00023074
0.000186715
0.000206612
0.000231772
0.000230698
0.000231124
0.000203389
0.000213879
0.00021043
0.000240672
0.000238684
0.000240442
0.000233158
0.000211981
0.000200893
0.000239819
0.00023608
0.00024202
0.000240774
0.000228183
0.000228314
0.000222153
0.000208676
0.000211621
0.000229103
0.000236047
0.000222923
0.000194935
0.000207694
0.000194761
0.000235368
0.000227209
0.000221644
0.000218762
0.000198193
0.000192052
0.000239749
0.000240067
0.000223527
0.0002246
0.000221168
0.000219324
0.000221609
0.00020956
0.000195242
0.000221396
0.000222061
0.000220613
0.000195483
0.000194133
0.000198024
0.000220386
0.000218782
0.000222117
0.000225244
0.000192117
0.000202253
0.00022114
0.000221597
0.000221601
0.000221899
0.000222513
0.000227391
0.000230278
0.000194162
0.000197823
0.000221143
0.000223076
0.000229663
0.000204842
0.000199619
0.000207565
0.000225463
0.000229478
0.000234759
0.000238863
0.000204031
0.000211551
0.000224007
0.00022451
0.000234049
0.000236063
0.000232827
0.000239495
0.000239568
0.000199955
0.000210665
0.000233252
0.000239427
0.000241438
0.000212119
0.000209932
0.000233761
0.00023793
0.000213958
0.000233152
0.000235335
0.000262023
0.000259094
0.000263702
0.000237938
0.000213201
0.000239778
5.03775e-06
2.23501e-06
1.75706e-06
2.41977e-06
1.25938e-06
4.71155e-06
3.19789e-06
1.52041e-06
1.21863e-06
2.07078e-06
1.93025e-06
1.12392e-06
2.17474e-06
1.14345e-06
2.47625e-06
1.25347e-06
1.48725e-05
1.19661e-06
1.63627e-05
1.08511e-05
1.3226e-05
1.34511e-06
1.57791e-05
1.25462e-06
1.68936e-05
1.85843e-06
1.76664e-06
1.98562e-06
1.69222e-06
1.81816e-06
1.76339e-06
1.997e-06
1.2815e-06
1.9678e-06
2.76405e-06
9.6992e-06
1.23094e-06
2.43035e-06
2.63849e-06
1.09948e-05
1.32897e-05
1.22359e-06
1.92348e-06
5.29099e-07
1.94981e-06
1.21269e-06
1.93768e-06
6.58377e-07
1.50129e-06
1.53765e-06
2.15452e-06
1.7093e-06
1.74181e-06
1.40269e-06
1.97e-05
1.32025e-06
2.36832e-05
1.72322e-05
1.94191e-05
1.5255e-06
1.98653e-05
1.44619e-06
2.13287e-05
1.79915e-06
1.75541e-06
1.99921e-06
1.65412e-06
1.74854e-06
1.71245e-06
2.00716e-06