/*--------------------------------*- C++ -*----------------------------------*\
| =========                 |                                                 |
| \\      /  F ield         | OpenFOAM: The Open Source CFD Toolbox           |
|  \\    /   O peration     | Version:  v2012                                 |
|   \\  /    A nd           | Website:  www.openfoam.com                      |
|    \\/     M anipulation  |                                                 |
\*---------------------------------------------------------------------------*/
FoamFile
{
    version     2.0;
    format      ascii;
    class       volScalarField;
    location    "937.5";
    object      p;
}
// * * * * * * * * * * * * * * * * * * * * * * * * * * * * * * * * * * * * * //

dimensions      [0 2 -2 0 0 0 0];


internalField   nonuniform List<scalar> 
171728
(
0.00352058
0.00351954
0.00351947
0.00352022
0.00348467
0.0034835
0.00348343
0.00348626
0.00344615
0.00344442
0.00344446
0.00344675
0.00340207
0.00340035
0.00340039
0.00340267
0.00335391
0.00335247
0.00335246
0.00335485
0.00330505
0.0033037
0.00330375
0.00330607
0.00325676
0.00325559
0.00325557
0.00325791
0.00320944
0.00320842
0.00320837
0.0032108
0.00316318
0.00316213
0.00316222
0.00316453
0.00311781
0.003117
0.00311699
0.00311913
0.00307343
0.00307288
0.00307273
0.00307541
0.00302966
0.00302909
0.00302905
0.00303137
0.00298653
0.00298602
0.00298599
0.00298836
0.00294382
0.0029434
0.00294353
0.00294578
0.00290143
0.00290103
0.0029011
0.00290345
0.00285938
0.00285921
0.00285902
0.00286141
0.00281767
0.00281754
0.00281739
0.00281975
0.00277631
0.00277649
0.002776
0.0027783
0.00273531
0.00273513
0.00273513
0.00273714
0.00269473
0.00269497
0.002695
0.00269685
0.00265437
0.00265448
0.00265421
0.00265614
0.00261435
0.00261452
0.00261454
0.00261599
0.00257472
0.00257483
0.00257497
0.0025765
0.00253523
0.00253552
0.00253552
0.00253717
0.00249598
0.00249624
0.00249621
0.00249794
0.00245696
0.00245741
0.00245757
0.0024591
0.00241838
0.00241872
0.00241868
0.00242051
0.00237983
0.00238039
0.0023804
0.0023827
0.00234136
0.00234188
0.00234192
0.00234371
0.00230326
0.00230379
0.00230372
0.00230504
0.00226546
0.00226607
0.00226617
0.00226848
0.00222745
0.00222834
0.00222824
0.00223036
0.00218987
0.00219013
0.00219022
0.00219135
0.00215236
0.00215342
0.00215302
0.00215591
0.00211504
0.00211576
0.00211607
0.00211741
0.0020775
0.00207782
0.00207791
0.00207963
0.00204035
0.00204114
0.00204076
0.00204316
0.00200374
0.00200414
0.00200442
0.00200603
0.00196673
0.00196717
0.0019671
0.00196886
0.00192973
0.00193007
0.00193008
0.00193227
0.00189329
0.00189361
0.00189362
0.00189553
0.00185692
0.0018571
0.00185712
0.00185914
0.0018203
0.00182067
0.0018205
0.0018226
0.00178441
0.0017841
0.00178439
0.00178615
0.00174818
0.00174852
0.00174824
0.00175085
0.00171238
0.00171215
0.00171228
0.00171408
0.0016762
0.0016762
0.00167634
0.0016781
0.00164038
0.00164052
0.0016401
0.00164278
0.00160549
0.00160482
0.0016051
0.00160699
0.00156935
0.00156935
0.00156959
0.00157119
0.00153384
0.00153401
0.00153365
0.00153605
0.00149887
0.00149845
0.00149851
0.00150071
0.00146413
0.00146331
0.00146331
0.00146521
0.00142825
0.00142842
0.0014285
0.00143038
0.00139318
0.00139309
0.00139308
0.0013952
0.00135869
0.00135812
0.00135818
0.00136004
0.00132315
0.00132297
0.00132277
0.00132492
0.00128848
0.00128822
0.00128839
0.00129038
0.0012541
0.00125377
0.0012539
0.00125558
0.00121938
0.00121906
0.00121876
0.00122086
0.00118429
0.00118429
0.00118437
0.00118628
0.00114935
0.00114921
0.00114946
0.00115124
0.00111543
0.00111502
0.00111461
0.0011167
0.00108133
0.00108071
0.00108106
0.00108285
0.00104565
0.00104566
0.00104581
0.00104771
0.00101123
0.00101145
0.00101106
0.00101308
0.000977552
0.000977384
0.00097741
0.00097925
0.000943262
0.000942547
0.000942595
0.000944482
0.00090781
0.000907621
0.000907594
0.000909484
0.000873571
0.000873514
0.000873739
0.000875548
0.00083958
0.000839571
0.000839579
0.000841724
0.000804581
0.000804545
0.000804203
0.000806237
0.000769671
0.000769372
0.000769406
0.000771093
0.000735297
0.000735267
0.000735533
0.000737583
0.000701413
0.000701484
0.000701324
0.000703302
0.000666623
0.000666254
0.000666238
0.000667915
0.000631177
0.000631148
0.000631099
0.000633228
0.000597379
0.000597387
0.000597529
0.000599674
0.000562656
0.000562697
0.000562511
0.000564355
0.000526598
0.000526392
0.000526405
0.000528325
0.000492495
0.000492463
0.000492533
0.000494648
0.000458888
0.000458656
0.000458639
0.000460513
0.000422852
0.000422645
0.000422756
0.000424355
0.000386382
0.000386949
0.00038672
0.00038904
0.00035263
0.000352746
0.00035253
0.000355031
0.000319508
0.000318405
0.000318904
0.000320078
0.000282877
0.000282789
0.000282811
0.000284544
0.000245147
0.000246087
0.000245914
0.000248717
0.000211301
0.000211402
0.00021109
0.000213286
0.000177839
0.000176898
0.000177221
0.000178427
0.000140962
0.000140567
0.000141017
0.000142916
0.00010397
0.000104759
0.000104206
0.000106882
6.95387e-05
6.96659e-05
6.94589e-05
7.14032e-05
3.54831e-05
3.43487e-05
3.48673e-05
3.6234e-05
6.21585e-06
7.26657e-06
7.12586e-06
5.25321e-06
0.0035249
0.00352258
0.00352268
0.00352505
0.00352251
0.00352263
0.00352894
0.00352889
0.0035289
0.00352888
0.00352259
0.00352264
0.00352502
0.00352261
0.00352258
0.003525
0.00352023
0.00349106
0.00351956
0.00351957
0.00349285
0.00349287
0.0035203
0.00349105
0.00351955
0.00351947
0.0034931
0.00349295
0.00351947
0.00349302
0.0034929
0.00352023
0.00349106
0.00351948
0.0034928
0.00349281
0.00349101
0.00348626
0.00345222
0.00348345
0.00348358
0.00345443
0.00345447
0.00348633
0.00345222
0.00348348
0.00348338
0.00345449
0.00345457
0.0034834
0.00345456
0.00345466
0.00348627
0.00345225
0.00348341
0.00345449
0.00345451
0.00345228
0.00344669
0.00340885
0.00344437
0.00344455
0.00341202
0.00341194
0.00344672
0.00340882
0.00344444
0.00344443
0.00341199
0.00341186
0.00344442
0.00341182
0.00341191
0.00344673
0.00340887
0.00344445
0.00341187
0.00341189
0.00340884
0.00340264
0.00336131
0.00340039
0.00340039
0.00336484
0.00336473
0.00340265
0.00336131
0.00340035
0.00340041
0.00336454
0.00336454
0.00340048
0.0033646
0.00336468
0.00340268
0.00336129
0.00340039
0.00336465
0.00336467
0.00336131
0.00335482
0.00331256
0.00335216
0.00335261
0.00331576
0.00331614
0.00335487
0.00331257
0.00335279
0.00335254
0.00331612
0.00331586
0.00335251
0.0033159
0.00331591
0.00335482
0.00331259
0.0033525
0.00331593
0.00331595
0.00331251
0.00330611
0.00326423
0.00330342
0.00330357
0.00326739
0.00326761
0.0033061
0.00326429
0.00330413
0.00330378
0.00326771
0.00326751
0.00330394
0.00326756
0.00326788
0.00330614
0.00326429
0.00330376
0.00326754
0.00326756
0.00326424
0.00325791
0.00321684
0.00325529
0.00325529
0.00322014
0.00322001
0.00325793
0.00321696
0.00325584
0.00325556
0.00321995
0.00322003
0.00325558
0.00322009
0.00322057
0.00325794
0.00321693
0.00325559
0.00322008
0.00322009
0.00321698
0.00321066
0.00317071
0.00320829
0.00320819
0.00317363
0.00317361
0.00321076
0.00317055
0.00320838
0.00320833
0.00317372
0.00317366
0.00320822
0.0031736
0.00317402
0.00321076
0.00317064
0.0032084
0.00317367
0.00317365
0.00317054
0.00316466
0.00312526
0.00316218
0.003162
0.00312819
0.00312819
0.00316447
0.00312522
0.00316225
0.00316224
0.00312809
0.00312822
0.00316238
0.00312815
0.00312801
0.00316461
0.00312526
0.00316218
0.0031282
0.00312813
0.00312503
0.00311936
0.00308088
0.00311701
0.003117
0.00308378
0.00308375
0.0031194
0.00308106
0.00311696
0.00311699
0.00308375
0.00308371
0.00311691
0.0030839
0.00308402
0.00311936
0.00308087
0.00311687
0.00308373
0.00308388
0.00308118
0.0030751
0.00303714
0.00307274
0.00307274
0.00303989
0.00303978
0.00307524
0.00303709
0.00307272
0.00307271
0.00303994
0.00303996
0.00307306
0.0030399
0.00303978
0.00307507
0.00303713
0.00307291
0.00303994
0.00303991
0.00303708
0.00303145
0.00299403
0.00302912
0.00302908
0.00299679
0.00299683
0.0030314
0.00299388
0.0030291
0.00302905
0.00299684
0.00299673
0.00302886
0.00299681
0.00299679
0.00303147
0.00299401
0.00302907
0.00299669
0.00299678
0.00299395
0.00298842
0.00295131
0.00298613
0.00298601
0.00295418
0.00295419
0.00298831
0.0029514
0.00298617
0.00298601
0.00295417
0.00295398
0.00298608
0.00295419
0.00295414
0.00298841
0.00295134
0.00298607
0.00295399
0.00295414
0.00295131
0.00294574
0.00290893
0.00294339
0.00294341
0.00291163
0.00291157
0.00294579
0.00290888
0.00294338
0.00294353
0.00291166
0.00291179
0.00294333
0.00291158
0.00291165
0.00294585
0.0029089
0.00294334
0.00291181
0.00291171
0.00290892
0.00290345
0.00286687
0.00290104
0.00290103
0.00286957
0.00286956
0.00290341
0.00286686
0.00290104
0.00290109
0.00286959
0.00286966
0.00290098
0.00286956
0.00286961
0.00290337
0.00286686
0.00290097
0.00286971
0.00286964
0.00286686
0.00286143
0.00282509
0.00285913
0.00285919
0.00282778
0.00282782
0.00286146
0.00282503
0.00285917
0.00285908
0.00282777
0.00282777
0.00285899
0.00282784
0.00282787
0.00286142
0.00282511
0.00285894
0.00282778
0.00282794
0.00282512
0.00281975
0.00278357
0.00281745
0.00281753
0.00278645
0.00278644
0.00281966
0.00278392
0.00281743
0.00281746
0.0027864
0.00278644
0.00281732
0.00278643
0.00278656
0.00281973
0.00278368
0.00281728
0.00278637
0.0027866
0.00278362
0.0027783
0.00274263
0.00277618
0.0027765
0.00274561
0.00274542
0.00277868
0.00274245
0.00277617
0.00277603
0.00274557
0.00274555
0.00277602
0.00274541
0.0027458
0.00277832
0.00274248
0.00277602
0.00274547
0.00274572
0.00274245
0.00273739
0.00270191
0.00273532
0.00273513
0.00270488
0.00270494
0.00273723
0.00270189
0.00273539
0.00273506
0.00270491
0.002705
0.00273512
0.00270489
0.00270459
0.00273719
0.00270215
0.00273518
0.00270496
0.00270454
0.00270223
0.00269671
0.00266143
0.00269475
0.00269491
0.00266447
0.00266449
0.00269677
0.00266146
0.0026948
0.0026949
0.0026645
0.00266451
0.00269483
0.00266455
0.00266485
0.00269695
0.00266127
0.00269489
0.00266437
0.00266478
0.00266118
0.00265621
0.00262125
0.00265445
0.00265445
0.00262447
0.00262446
0.00265629
0.00262123
0.00265441
0.0026542
0.00262458
0.00262446
0.00265442
0.00262443
0.00262421
0.00265613
0.00262128
0.00265446
0.00262438
0.00262407
0.00262131
0.00261617
0.00258164
0.00261447
0.00261452
0.00258473
0.00258476
0.0026162
0.00258144
0.00261454
0.0026146
0.00258477
0.00258485
0.00261437
0.00258474
0.00258483
0.00261619
0.00258167
0.00261442
0.00258486
0.00258481
0.0025815
0.00257658
0.00254214
0.00257488
0.00257483
0.00254528
0.00254536
0.00257632
0.00254215
0.00257498
0.002575
0.00254528
0.00254527
0.00257488
0.00254536
0.00254527
0.00257667
0.00254204
0.00257492
0.00254528
0.00254523
0.00254203
0.00253713
0.00250286
0.00253535
0.00253551
0.00250613
0.00250593
0.00253724
0.00250263
0.00253543
0.00253545
0.00250609
0.002506
0.00253557
0.00250591
0.00250601
0.0025371
0.00250276
0.0025356
0.00250605
0.00250596
0.00250298
0.0024978
0.00246418
0.00249626
0.00249625
0.00246713
0.00246717
0.00249751
0.00246459
0.00249629
0.00249618
0.0024671
0.00246733
0.00249626
0.00246717
0.00246703
0.00249772
0.00246415
0.00249621
0.00246722
0.00246706
0.00246398
0.00245932
0.00242511
0.00245741
0.00245741
0.00242835
0.00242827
0.00245942
0.00242472
0.00245743
0.0024577
0.0024283
0.00242835
0.00245736
0.00242828
0.00242833
0.00245955
0.00242565
0.00245738
0.00242832
0.00242822
0.00242541
0.00242021
0.00238756
0.0024188
0.0024187
0.00238998
0.00238999
0.00241984
0.00238784
0.00241866
0.00241864
0.00238996
0.00238983
0.0024187
0.00239
0.00238997
0.00242045
0.00238647
0.00241862
0.00238992
0.00239017
0.00238755
0.00238264
0.00234836
0.00238035
0.00238037
0.00235148
0.00235152
0.00238291
0.00234833
0.00238034
0.00238031
0.00235147
0.00235161
0.00238038
0.00235153
0.00235149
0.00238174
0.00234921
0.00238053
0.0023516
0.00235114
0.00234881
0.00234341
0.00231059
0.0023419
0.00234187
0.00231324
0.00231326
0.0023434
0.00231052
0.00234193
0.00234196
0.00231336
0.0023132
0.00234188
0.00231323
0.00231314
0.00234426
0.00231036
0.0023415
0.00231317
0.00231315
0.00230993
0.00230583
0.00227309
0.00230378
0.00230382
0.00227565
0.00227549
0.00230553
0.00227286
0.0023039
0.00230373
0.00227554
0.00227552
0.00230362
0.00227549
0.00227552
0.00230541
0.00227285
0.00230379
0.00227551
0.00227586
0.00227321
0.00226801
0.00223465
0.0022661
0.00226605
0.00223748
0.00223772
0.00226809
0.00223517
0.00226601
0.00226614
0.00223743
0.00223772
0.00226623
0.0022378
0.00223812
0.00226805
0.00223515
0.00226648
0.00223781
0.00223794
0.00223562
0.00222983
0.00219747
0.00222804
0.00222829
0.00220009
0.00219968
0.00223017
0.00219685
0.00222796
0.00222816
0.00220007
0.00219976
0.00222833
0.0021996
0.00219911
0.00223016
0.00219704
0.0022281
0.00219965
0.00219902
0.00219607
0.00219256
0.00215965
0.00219069
0.00219023
0.00216229
0.00216248
0.00219198
0.00216004
0.0021907
0.00219039
0.00216239
0.00216232
0.00218975
0.00216247
0.00216274
0.00219212
0.00215964
0.00218972
0.00216223
0.00216277
0.00216051
0.00215478
0.00212249
0.00215289
0.00215337
0.00212507
0.00212519
0.00215529
0.00212243
0.00215293
0.002153
0.00212501
0.00212524
0.00215388
0.00212532
0.0021255
0.00215483
0.00212279
0.0021539
0.00212543
0.00212549
0.0021225
0.00211763
0.00208492
0.00211582
0.00211566
0.00208753
0.00208722
0.00211744
0.0020847
0.00211576
0.00211594
0.00208758
0.00208754
0.00211573
0.00208715
0.00208686
0.00211788
0.00208475
0.00211571
0.00208743
0.00208689
0.00208442
0.00207998
0.00204761
0.00207806
0.00207791
0.00205009
0.00205036
0.00207986
0.00204793
0.00207813
0.00207802
0.00205007
0.00204992
0.00207756
0.00205031
0.00205024
0.00207978
0.00204752
0.00207759
0.00204988
0.00205024
0.00204793
0.00204278
0.00201092
0.00204092
0.00204116
0.00201345
0.00201338
0.00204306
0.00201075
0.00204087
0.00204075
0.00201342
0.00201352
0.00204118
0.00201345
0.00201371
0.00204274
0.0020111
0.00204116
0.0020136
0.00201368
0.00201099
0.00200607
0.00197398
0.00200423
0.00200408
0.00197641
0.0019764
0.00200589
0.00197403
0.00200423
0.00200436
0.00197647
0.00197648
0.00200437
0.00197641
0.00197624
0.00200623
0.00197392
0.00200435
0.00197646
0.00197626
0.00197371
0.00196908
0.00193697
0.00196714
0.00196717
0.00193934
0.00193934
0.00196914
0.00193698
0.00196717
0.00196713
0.0019393
0.0019393
0.00196693
0.00193929
0.00193927
0.00196902
0.00193695
0.00196695
0.00193928
0.00193928
0.00193709
0.00193214
0.00190048
0.00193014
0.00193012
0.00190274
0.00190269
0.00193215
0.00190043
0.00193011
0.00193009
0.00190276
0.0019027
0.00193014
0.0019027
0.0019028
0.0019321
0.00190041
0.00193016
0.00190272
0.0019028
0.00190044
0.00189564
0.00186378
0.00189363
0.00189358
0.00186617
0.00186623
0.0018956
0.0018639
0.00189365
0.00189359
0.00186616
0.00186626
0.00189361
0.00186624
0.00186616
0.00189558
0.00186396
0.0018936
0.00186625
0.00186615
0.0018639
0.00185893
0.00182752
0.00185697
0.0018571
0.00182966
0.0018298
0.00185908
0.00182753
0.00185695
0.00185712
0.00182966
0.00182963
0.00185712
0.00182982
0.00182987
0.00185911
0.00182739
0.00185712
0.00182963
0.00182988
0.00182754
0.00182274
0.00179126
0.00182063
0.00182065
0.00179355
0.00179316
0.00182267
0.00179099
0.00182064
0.0018205
0.00179355
0.0017934
0.00182061
0.00179313
0.00179295
0.00182259
0.00179125
0.0018206
0.0017934
0.00179296
0.00179086
0.00178638
0.00175497
0.00178443
0.00178415
0.00175708
0.00175743
0.00178623
0.00175535
0.00178442
0.00178441
0.00175706
0.00175729
0.001784
0.00175742
0.00175766
0.00178643
0.00175507
0.00178404
0.00175728
0.00175765
0.0017556
0.00175023
0.00171924
0.0017481
0.0017485
0.00172142
0.00172121
0.00175057
0.001719
0.00174811
0.00174821
0.00172139
0.00172114
0.00174882
0.00172129
0.0017213
0.00175026
0.00171908
0.0017488
0.00172122
0.00172127
0.00171894
0.00171445
0.00168302
0.00171245
0.00171209
0.00168514
0.00168518
0.00171418
0.00168313
0.00171243
0.00171223
0.00168519
0.00168547
0.00171206
0.00168511
0.0016848
0.00171434
0.0016833
0.00171205
0.00168543
0.00168484
0.00168283
0.00167818
0.00164726
0.00167603
0.00167628
0.00164929
0.00164948
0.00167834
0.00164733
0.00167608
0.00167641
0.00164925
0.00164909
0.0016759
0.00164947
0.00164953
0.00167842
0.00164699
0.00167596
0.00164905
0.00164955
0.00164752
0.00164256
0.00161186
0.00164055
0.0016405
0.00161414
0.00161366
0.00164253
0.00161166
0.00164046
0.0016401
0.00161405
0.00161376
0.00164076
0.0016137
0.00161417
0.00164225
0.00161184
0.00164073
0.00161382
0.00161408
0.00161184
0.00160703
0.0015759
0.00160506
0.00160482
0.00157779
0.00157826
0.00160695
0.00157617
0.00160505
0.00160507
0.00157797
0.00157853
0.00160511
0.00157825
0.00157778
0.00160714
0.0015763
0.00160503
0.00157855
0.00157785
0.00157589
0.00157116
0.00154074
0.00156886
0.00156935
0.00154272
0.00154277
0.00157138
0.00154071
0.00156904
0.00156954
0.00154273
0.0015425
0.00156891
0.00154281
0.00154275
0.00157148
0.00154053
0.00156904
0.00154256
0.00154285
0.00154079
0.00153601
0.00150558
0.00153409
0.00153396
0.00150775
0.00150742
0.00153599
0.0015054
0.00153401
0.0015336
0.00150761
0.0015074
0.00153403
0.00150738
0.00150772
0.0015358
0.00150538
0.00153405
0.00150729
0.00150753
0.00150547
0.00150086
0.00147014
0.00149892
0.00149855
0.00147229
0.0014722
0.00150066
0.00147008
0.00149881
0.00149869
0.0014722
0.00147217
0.00149885
0.00147202
0.00147196
0.00150066
0.00147005
0.00149867
0.00147207
0.00147196
0.00146994
0.00146538
0.00143475
0.00146333
0.00146342
0.0014366
0.00143696
0.00146536
0.00143498
0.00146325
0.00146332
0.00143682
0.00143701
0.00146313
0.0014372
0.00143697
0.00146531
0.00143506
0.00146317
0.00143723
0.00143708
0.00143506
0.00142998
0.00139973
0.00142777
0.00142814
0.0014017
0.00140183
0.00143023
0.00139979
0.00142804
0.00142825
0.0014018
0.00140177
0.00142826
0.00140191
0.00140196
0.00143036
0.0013998
0.00142838
0.00140184
0.00140196
0.00139992
0.00139509
0.0013652
0.00139312
0.00139309
0.00136731
0.00136696
0.0013951
0.00136491
0.00139316
0.00139308
0.00136727
0.00136715
0.00139323
0.00136685
0.0013669
0.00139509
0.00136498
0.00139321
0.001367
0.0013669
0.00136479
0.00136046
0.0013296
0.00135856
0.00135825
0.00133179
0.00133191
0.00136021
0.00132975
0.00135845
0.00135835
0.00133153
0.00133158
0.00135805
0.00133179
0.00133168
0.00136024
0.0013295
0.00135803
0.00133158
0.00133159
0.00132961
0.00132483
0.00129481
0.00132291
0.00132304
0.00129675
0.00129677
0.00132499
0.00129477
0.00132271
0.00132271
0.00129691
0.00129684
0.00132299
0.00129682
0.00129707
0.00132473
0.00129489
0.00132294
0.0012969
0.00129712
0.00129504
0.00129019
0.00126049
0.00128817
0.00128816
0.00126249
0.0012624
0.00129011
0.00126039
0.00128838
0.00128836
0.00126263
0.00126275
0.00128842
0.00126242
0.00126221
0.00129031
0.0012606
0.00128851
0.00126269
0.00126233
0.00126025
0.0012558
0.00122551
0.00125385
0.00125376
0.00122767
0.00122771
0.00125572
0.00122563
0.0012539
0.00125397
0.0012275
0.00122749
0.00125354
0.00122771
0.00122774
0.00125585
0.00122536
0.00125358
0.00122745
0.0012276
0.00122556
0.00122077
0.00119066
0.00121894
0.00121906
0.00119284
0.00119303
0.00122094
0.00119092
0.00121876
0.00121874
0.00119273
0.00119278
0.00121912
0.00119302
0.00119303
0.00122065
0.0011908
0.00121899
0.00119296
0.0011931
0.00119098
0.00118596
0.00115612
0.00118418
0.00118431
0.00115811
0.00115797
0.00118619
0.00115593
0.00118408
0.00118416
0.00115812
0.00115818
0.00118428
0.00115796
0.00115798
0.00118613
0.0011562
0.0011844
0.00115825
0.00115804
0.00115598
0.00115144
0.00112175
0.00114942
0.00114922
0.00112357
0.00112349
0.00115122
0.00112149
0.00114949
0.00114952
0.00112388
0.00112358
0.00114922
0.00112347
0.00112336
0.00115148
0.00112142
0.00114925
0.00112318
0.00112329
0.0011213
0.00111712
0.00108727
0.00111506
0.00111503
0.00108942
0.00108944
0.00111689
0.00108732
0.00111536
0.00111499
0.00108933
0.00108941
0.00111489
0.00108941
0.0010895
0.00111678
0.00108739
0.00111481
0.00108952
0.00108958
0.00108751
0.00108254
0.00105221
0.00108077
0.00108071
0.00105443
0.0010544
0.00108261
0.00105232
0.00108059
0.00108078
0.00105423
0.00105445
0.00108088
0.00105442
0.00105461
0.00108273
0.00105238
0.00108103
0.00105471
0.00105465
0.00105249
0.00104743
0.00101777
0.00104563
0.00104566
0.00101973
0.00101992
0.00104756
0.00101793
0.00104545
0.00104564
0.00101969
0.00101964
0.00104583
0.00101992
0.00101978
0.00104759
0.00101762
0.0010458
0.00101957
0.00101967
0.00101771
0.0010132
0.000984099
0.00101127
0.00101145
0.000985964
0.000985959
0.00101333
0.000984019
0.00101128
0.00101119
0.000986058
0.000986021
0.00101123
0.000985988
0.000985791
0.00101304
0.00098405
0.00101111
0.000985849
0.000985689
0.000983844
0.000979488
0.000949238
0.000977447
0.000977347
0.000951363
0.000951205
0.000979351
0.000949128
0.000977574
0.000977554
0.000951449
0.000951382
0.000977297
0.000951263
0.000951357
0.000979471
0.000949282
0.000977235
0.000951442
0.000951439
0.000949262
0.000944448
0.000914252
0.000942579
0.000942497
0.000916365
0.000916416
0.00094439
0.000914292
0.000942602
0.00094251
0.000916271
0.000916153
0.000942573
0.000916328
0.000916286
0.000944471
0.000914118
0.000942656
0.000916243
0.000916359
0.000914208
0.00090955
0.000880151
0.000907695
0.000907743
0.000882051
0.000881993
0.000909568
0.000880073
0.000907593
0.000907546
0.00088207
0.000882222
0.000907604
0.000881937
0.000882033
0.000909427
0.000880251
0.000907674
0.000882147
0.00088205
0.000880114
0.000875579
0.000846199
0.000873623
0.000873528
0.00084817
0.000848077
0.000875491
0.000846174
0.000873669
0.000873815
0.00084818
0.000848205
0.000873623
0.000848142
0.000848344
0.000875682
0.000846244
0.000873618
0.000848254
0.000848339
0.000846413
0.00084146
0.000810996
0.000839511
0.000839489
0.00081309
0.000813306
0.000841496
0.000811215
0.000839488
0.000839468
0.000813088
0.000813068
0.000839767
0.00081336
0.000813209
0.000841493
0.000810954
0.000839755
0.000813061
0.000813147
0.000811086
0.000806213
0.000776212
0.00080429
0.000804524
0.000778232
0.000778215
0.000806413
0.000776125
0.000804291
0.000804251
0.00077818
0.000778073
0.000804296
0.000778111
0.000777796
0.000806135
0.000776052
0.000804224
0.000777985
0.000777752
0.000775756
0.000771524
0.000741888
0.000769618
0.00076948
0.000743782
0.000743631
0.000771388
0.000741728
0.00076958
0.000769481
0.000743889
0.000743938
0.00076917
0.000743663
0.000743932
0.000771388
0.000742094
0.000769182
0.000743989
0.000744064
0.000742113
0.000737226
0.000707805
0.000735191
0.000735162
0.000709746
0.000709893
0.000737136
0.000708025
0.000735335
0.000735438
0.000709781
0.000709883
0.000735602
0.000710041
0.000710144
0.000737483
0.000707863
0.000735747
0.000709954
0.00071011
0.000708075
0.000703178
0.000673199
0.000701287
0.000701413
0.000675349
0.000675258
0.000703378
0.000673089
0.000701272
0.00070132
0.000675244
0.000675241
0.000701396
0.000675131
0.000674898
0.000703166
0.00067305
0.000701298
0.000675122
0.00067479
0.000672759
0.000668357
0.000637777
0.000666455
0.00066638
0.000639796
0.000639847
0.00066825
0.000637824
0.000666372
0.000666351
0.000639789
0.00063973
0.000666029
0.000639799
0.000639818
0.000668212
0.000637765
0.000665941
0.000639738
0.000639863
0.000637871
0.000633055
0.000603895
0.000631107
0.000631137
0.000605744
0.000605664
0.000633097
0.000603836
0.000631119
0.000631029
0.000605786
0.000605764
0.000631297
0.000605766
0.000606119
0.000633065
0.000603963
0.000631373
0.000605894
0.000606208
0.000604301
0.000599339
0.000569423
0.000597373
0.000597286
0.000571496
0.000571693
0.000599272
0.000569579
0.000597402
0.000597407
0.00057147
0.000571615
0.000597683
0.000571684
0.000571318
0.000599394
0.000569449
0.000597722
0.000571547
0.000571237
0.000569259
0.000564551
0.000533372
0.000562547
0.000562741
0.000535427
0.00053542
0.000564659
0.000533303
0.000562521
0.000562602
0.000535452
0.000535381
0.000562316
0.000535333
0.000535124
0.000564523
0.000533278
0.000562244
0.000535273
0.000535117
0.000533097
0.000528531
0.000498903
0.000526544
0.000526455
0.000500818
0.000500728
0.000528431
0.000498899
0.000526576
0.000526475
0.000500832
0.00050081
0.00052635
0.000500781
0.000501031
0.000528453
0.000498964
0.000526364
0.000500869
0.000501054
0.000499146
0.000494327
0.000465163
0.000492425
0.000492382
0.000467244
0.000467306
0.000494351
0.000465267
0.000492436
0.000492441
0.000467221
0.000467276
0.00049277
0.000467349
0.000467449
0.000494404
0.000465201
0.000492779
0.00046735
0.00046744
0.00046533
0.000460443
0.000429855
0.000458594
0.000458674
0.000431914
0.000431848
0.00046051
0.000429678
0.000458557
0.000458614
0.000431894
0.000431883
0.000458569
0.000431742
0.000431478
0.000460444
0.000429746
0.000458574
0.000431793
0.000431497
0.000429356
0.000424896
0.000393561
0.00042285
0.000422776
0.000395476
0.00039562
0.000424712
0.00039375
0.000422832
0.000422852
0.000395488
0.000395567
0.000422333
0.000395681
0.000395712
0.000424813
0.00039368
0.000422366
0.000395584
0.000395677
0.000393768
0.000388738
0.000359058
0.000386636
0.000386821
0.00036098
0.000361082
0.000388969
0.000359275
0.000386652
0.000386633
0.00036097
0.000360843
0.000387121
0.00036123
0.000361616
0.00038885
0.000359017
0.000387065
0.000360929
0.000361515
0.000359698
0.00035448
0.000325462
0.000352599
0.000352636
0.000327588
0.000327292
0.000354662
0.000325053
0.000352589
0.000352476
0.000327606
0.000327587
0.000353077
0.000327078
0.00032677
0.000354437
0.000325427
0.000353018
0.00032746
0.00032688
0.000324838
0.000320752
0.000289897
0.000318953
0.000318659
0.000292001
0.000291943
0.000320321
0.000289806
0.000318984
0.000319071
0.000292025
0.000292095
0.000317994
0.000291865
0.000291493
0.000320718
0.000289886
0.00031811
0.000292011
0.000291535
0.000289395
0.000284846
0.000252597
0.000282765
0.000282761
0.000254547
0.000254825
0.000284823
0.000253013
0.000282769
0.000282813
0.000254539
0.00025477
0.00028263
0.000255142
0.000255792
0.000284868
0.000252918
0.000282619
0.000255039
0.000255735
0.000253663
0.000247689
0.000217939
0.000245525
0.000245784
0.000219835
0.000219935
0.000248108
0.000218008
0.000245482
0.000245612
0.000219721
0.000219549
0.000246763
0.000219913
0.000220019
0.000247975
0.000217726
0.000246709
0.000219605
0.000219958
0.000218059
0.000213365
0.000184184
0.000211464
0.000211516
0.000186258
0.000186097
0.000213372
0.000183823
0.000211377
0.000211154
0.000186298
0.000186031
0.000211205
0.000185772
0.000185062
0.000213082
0.000183891
0.000211171
0.000185747
0.000185125
0.000183162
0.00017937
0.00014778
0.000177451
0.00017717
0.000149891
0.000149613
0.000178955
0.000147563
0.000177598
0.000177521
0.000150073
0.000150279
0.000176379
0.000149708
0.000149948
0.000179223
0.000148077
0.000176471
0.000150255
0.000149978
0.000147843
0.000142702
0.000111017
0.000140634
0.00014045
0.000113036
0.000113303
0.000142558
0.000111508
0.00014074
0.000140933
0.000112929
0.00011304
0.000140986
0.000113562
0.000113947
0.000143019
0.000111099
0.000141013
0.00011328
0.000113833
0.000111834
0.000106151
7.63293e-05
0.000104169
0.000104558
7.82701e-05
7.8453e-05
0.000106672
7.64697e-05
0.000103978
0.000103951
7.81377e-05
7.80176e-05
0.000104938
7.84035e-05
7.81894e-05
0.000106154
7.61189e-05
0.000104806
7.80291e-05
7.81284e-05
7.62167e-05
7.15851e-05
4.15447e-05
6.96735e-05
6.97542e-05
4.35223e-05
4.32806e-05
7.16467e-05
4.11073e-05
6.96203e-05
6.95316e-05
4.36945e-05
4.37442e-05
6.94182e-05
4.31387e-05
4.31173e-05
7.13773e-05
4.16317e-05
6.94165e-05
4.36114e-05
4.32716e-05
4.11339e-05
3.66007e-05
8.69688e-06
3.4738e-05
3.44674e-05
1.18314e-05
1.18322e-05
3.6181e-05
8.70619e-06
3.49172e-05
3.49917e-05
1.18605e-05
1.18337e-05
3.43787e-05
1.18337e-05
1.1798e-05
3.67051e-05
8.65716e-06
3.45434e-05
1.1798e-05
1.17932e-05
8.64928e-06
5.2839e-06
7.19849e-06
7.20817e-06
5.34257e-06
7.21158e-06
7.17532e-06
6.23054e-06
6.12281e-06
6.16517e-06
7.22244e-06
5.22546e-06
7.12819e-06
0.00353206
0.00353469
0.00353337
0.00353356
0.00356052
0.00353448
0.00356416
0.0035349
0.00356064
0.00353469
0.00353484
0.00356416
0.00354559
0.00356729
0.00356727
0.00350452
0.00351805
0.00352222
0.00349708
0.00349512
0.00350015
0.0035046
0.00351758
0.00352208
0.00349644
0.00352052
0.00352049
0.0035205
0.00349382
0.00349391
0.0034939
0.00349394
0.00350415
0.00351613
0.00352107
0.00351174
0.00352323
0.00350137
0.00351199
0.00349509
0.00350024
0.00350419
0.00352105
0.00351593
0.00351167
0.00352321
0.00351199
0.00350129
0.003522
0.00352206
0.00350896
0.00350118
0.00350119
0.00347676
0.00349149
0.00349096
0.00347443
0.00348836
0.00347376
0.00347675
0.00349093
0.00349096
0.00347478
0.0034848
0.0034848
0.00348481
0.00345626
0.00345627
0.00345633
0.00345633
0.00347457
0.00348967
0.00348339
0.00347402
0.0034881
0.00347506
0.00347389
0.00348852
0.00347365
0.00347456
0.00348337
0.00348965
0.00347389
0.00348809
0.00347391
0.00347512
0.00349148
0.00349136
0.00347235
0.0034755
0.00347548
0.00343417
0.00344892
0.0034499
0.0034328
0.00344766
0.00343202
0.00343414
0.00344902
0.00344996
0.00343276
0.00344616
0.00344622
0.00344621
0.00341363
0.00341359
0.00341364
0.0034136
0.00343293
0.00344852
0.0034444
0.0034339
0.0034475
0.00343342
0.00343387
0.00344779
0.00343186
0.00343292
0.00344438
0.00344859
0.00343388
0.00344751
0.00343392
0.00343335
0.00344927
0.00344925
0.00343124
0.0034332
0.00343322
0.00338773
0.00340406
0.00340569
0.00338662
0.00340338
0.00338585
0.00338785
0.00340414
0.00340563
0.00338639
0.00340204
0.00340206
0.00340205
0.00336613
0.00336609
0.00336612
0.00336611
0.00338694
0.003404
0.00340038
0.00338869
0.00340347
0.00338702
0.00338866
0.00340353
0.00338587
0.00338696
0.0034004
0.00340411
0.00338871
0.0034035
0.0033887
0.00338702
0.00340431
0.00340431
0.00338542
0.00338657
0.00338657
0.00333882
0.00335589
0.00335732
0.00333799
0.00335553
0.00333741
0.00333885
0.00335606
0.0033572
0.00333748
0.00335392
0.00335392
0.00335392
0.00331724
0.00331722
0.00331724
0.0033172
0.00333841
0.00335593
0.00335253
0.00334024
0.00335562
0.00333833
0.00334031
0.00335541
0.00333714
0.00333843
0.00335252
0.00335596
0.00334036
0.00335564
0.00334038
0.00333834
0.00335607
0.00335607
0.00333698
0.00333768
0.00333779
0.00328975
0.00330728
0.00330799
0.00328865
0.00330675
0.00328855
0.00328964
0.00330684
0.00330809
0.00328889
0.00330503
0.00330506
0.00330501
0.00326874
0.00326874
0.00326875
0.00326871
0.00328964
0.00330694
0.0033038
0.00329158