/*--------------------------------*- C++ -*----------------------------------*\
| =========                 |                                                 |
| \\      /  F ield         | OpenFOAM: The Open Source CFD Toolbox           |
|  \\    /   O peration     | Version:  v2012                                 |
|   \\  /    A nd           | Website:  www.openfoam.com                      |
|    \\/     M anipulation  |                                                 |
\*---------------------------------------------------------------------------*/
FoamFile
{
    version     2.0;
    format      ascii;
    class       volScalarField;
    location    "2025";
    object      nut;
}
// * * * * * * * * * * * * * * * * * * * * * * * * * * * * * * * * * * * * * //

dimensions      [0 2 -1 0 0 0 0];


internalField   nonuniform List<scalar> 
171728
(
1.95109e-06
2.04556e-06
1.89091e-06
2.26735e-06
1.98897e-06
1.99273e-06
1.86729e-06
2.22859e-06
2.02976e-06
1.97465e-06
1.83863e-06
2.18803e-06
2.04638e-06
1.98905e-06
1.81962e-06
2.14287e-06
2.06972e-06
2.02057e-06
1.83059e-06
2.09826e-06
2.1304e-06
2.03897e-06
1.82514e-06
2.05693e-06
2.20953e-06
2.03974e-06
1.79674e-06
2.01615e-06
2.21063e-06
2.02331e-06
1.81005e-06
1.9825e-06
2.29028e-06
1.98415e-06
1.86621e-06
1.94169e-06
2.4081e-06
1.92179e-06
2.08355e-06
1.88859e-06
2.08804e-06
1.84114e-06
2.45987e-06
1.80168e-06
1.78307e-06
1.73873e-06
3.00184e-06
1.68797e-06
1.65373e-06
1.62001e-06
3.5155e-06
1.58151e-06
1.65475e-06
1.49303e-06
3.67904e-06
1.49383e-06
1.61306e-06
1.37447e-06
3.05252e-06
1.42433e-06
1.48041e-06
1.25672e-06
2.0726e-06
1.38777e-06
1.39993e-06
1.13573e-06
1.39572e-06
1.31612e-06
1.37443e-06
1.03008e-06
1.08353e-06
1.19008e-06
1.35213e-06
9.85914e-07
9.90416e-07
1.69455e-06
1.32547e-06
1.0735e-06
1.05023e-06
1.56935e-06
1.2752e-06
1.35256e-06
1.22885e-06
1.79376e-06
1.21185e-06
1.67675e-06
1.55802e-06
2.48887e-06
1.13292e-06
1.92276e-06
2.10774e-06
3.7246e-06
1.04848e-06
3.05943e-06
2.70277e-06
4.92971e-06
9.55191e-07
3.71904e-06
3.88404e-06
9.026e-06
8.90951e-07
5.65182e-06
5.09621e-06
1.2371e-05
8.29911e-07
6.51309e-06
7.14531e-06
1.77418e-05
8.04619e-07
9.26716e-06
8.77679e-06
2.34019e-05
8.14701e-07
1.10749e-05
1.14863e-05
3.10176e-05
8.76422e-07
1.51261e-05
1.46972e-05
3.74161e-05
1.03676e-06
1.70019e-05
1.79679e-05
4.58575e-05
1.1531e-06
2.31107e-05
2.11015e-05
5.20558e-05
1.60388e-06
2.44692e-05
2.76086e-05
5.7955e-05
1.78173e-06
3.22491e-05
2.94608e-05
6.4418e-05
2.63333e-06
3.66105e-05
3.65694e-05
6.92065e-05
3.1927e-06
3.80475e-05
4.06877e-05
7.46294e-05
4.126e-06
5.01878e-05
4.70635e-05
7.94125e-05
5.56426e-06
5.07978e-05
5.35125e-05
8.19723e-05
6.85432e-06
5.82729e-05
5.53295e-05
8.92331e-05
9.14063e-06
7.1219e-05
6.89864e-05
9.29499e-05
1.24208e-05
6.60035e-05
6.89099e-05
9.27634e-05
1.08582e-05
7.14999e-05
7.47873e-05
9.85077e-05
1.8444e-05
9.27727e-05
8.53386e-05
0.000105857
2.30663e-05
9.56079e-05
8.81408e-05
0.000109495
2.02876e-05
8.85355e-05
9.54612e-05
0.000106475
2.95976e-05
8.58847e-05
9.67491e-05
0.000113026
3.76427e-05
0.000124355
0.000108301
0.000121984
3.57723e-05
0.000123356
0.000113374
0.000124543
4.48961e-05
0.000103409
0.000115404
0.000121841
5.3085e-05
0.000109061
0.000117691
0.000125812
5.08095e-05
0.00014334
0.000128983
0.000136962
7.20545e-05
0.00014608
0.000133432
0.000137678
8.24498e-05
0.000128513
0.000131878
0.00013475
7.63026e-05
0.000128492
0.00013652
0.000138139
7.41023e-05
0.000151937
0.00014558
0.000148466
0.000102004
0.000154051
0.000150785
0.000149192
0.000104878
0.000149799
0.000148697
0.000148845
9.9675e-05
0.000157753
0.000158239
0.000153604
0.000118642
0.000161706
0.000161067
0.000152811
0.000121209
0.000158024
0.000159545
0.000160432
0.000122974
0.000171679
0.000169135
0.000162106
0.000137295
0.000171368
0.000171841
0.000160006
0.000134294
0.000167021
0.000169566
0.000164509
0.000145127
0.000180747
0.000178797
0.000169384
0.000159105
0.00018517
0.000185298
0.000172933
0.000158795
0.000182384
0.000183298
0.000172317
0.000154692
0.000179714
0.000182318
0.000171801
0.000160051
0.000193834
0.000190678
0.000178043
0.000180112
0.000195607
0.000191495
0.000176726
0.000190381
0.000189128
0.000194988
0.000178564
0.000188741
0.000199824
0.00020285
0.000188845
0.00018382
0.000206137
0.000198169
0.000179951
0.000176399
0.000199482
0.000192185
0.000175763
0.000193489
0.000196227
0.00020785
0.000193222
0.000220923
0.000212182
0.000218399
0.00020189
0.000225769
0.000217462
0.000210694
0.000187147
0.000209502
0.000209197
0.000202851
0.000177439
0.000201171
0.000204131
0.000208396
0.000189655
0.000209092
0.0002107
0.000215637
0.000200651
0.000225376
0.000220817
0.000219422
0.000199873
0.000238498
0.000223274
0.000222065
0.000193077
0.000240793
0.000222295
0.000219131
0.000192299
0.000221771
0.000219972
0.000216815
0.000198912
0.000214487
0.000214688
0.00022172
0.00019978
0.00024612
0.000220623
0.000224492
0.000197786
0.000261359
0.000232084
0.00022421
0.000199683
0.000237767
0.000228029
0.000223329
0.000200589
0.000223575
0.000219354
0.000224596
0.0001989
0.000239758
0.000218912
0.000226546
0.000197608
0.000258102
0.000229476
0.000226403
0.000201409
0.000263326
0.000236303
0.000228499
0.000204623
0.000247172
0.000225814
0.000228681
0.00019896
0.000236341
0.000219273
0.000224268
0.000197817
0.000244867
0.000227109
0.000226687
0.000202941
0.000260743
0.000233598
0.000230786
0.00020631
2.36919e-06
2.23066e-06
2.09418e-06
2.47591e-06
2.07316e-06
2.09193e-06
1.93141e-06
1.52028e-06
1.59517e-06
1.56634e-06
2.64871e-06
2.10935e-06
2.26819e-06
2.24581e-06
2.36624e-06
2.27275e-06
2.37497e-06
2.375e-06
1.98616e-06
1.67159e-06
1.91979e-06
1.64622e-06
2.47659e-06
2.43718e-06
2.09122e-06
1.79705e-06
2.06842e-06
1.79426e-06
1.75097e-06
2.00346e-06
1.72982e-06
2.26336e-06
2.21716e-06
1.93649e-06
1.87328e-06
1.9399e-06
2.23161e-06
2.373e-06
2.30854e-06
1.90101e-06
1.63407e-06
1.84493e-06
1.60293e-06
2.44625e-06
2.38329e-06
2.05437e-06
1.79661e-06
2.01395e-06
1.79673e-06
1.7248e-06
1.97564e-06
1.70274e-06
2.21567e-06
2.17804e-06
1.93797e-06
1.84544e-06
1.91688e-06
2.19105e-06
2.29568e-06
2.19768e-06
1.83104e-06
1.59154e-06
1.78678e-06
1.55885e-06
2.38294e-06
2.32669e-06
2.0095e-06
1.79437e-06
2.03504e-06
1.78318e-06
1.6933e-06
1.98289e-06
1.66095e-06
2.17671e-06
2.15023e-06
1.90836e-06
1.82253e-06
1.88794e-06
2.14553e-06
2.17901e-06
2.13764e-06
1.76936e-06
1.54744e-06
1.72693e-06
1.5169e-06
2.3256e-06
2.28141e-06
2.04938e-06
1.77855e-06
2.10641e-06
1.7626e-06
1.64929e-06
2.01324e-06
1.6157e-06
2.14908e-06
2.13359e-06
1.88305e-06
1.82765e-06
1.88058e-06
2.10026e-06
2.14124e-06
2.2423e-06
1.72071e-06
1.50666e-06
1.68411e-06
1.47319e-06
2.28057e-06
2.24435e-06
2.15584e-06
1.75631e-06
2.39277e-06
1.73279e-06
1.60524e-06
2.03651e-06
1.57577e-06
2.13124e-06
2.09925e-06
1.87854e-06
1.82763e-06
1.86288e-06
2.05905e-06
2.26061e-06
2.54071e-06
1.66818e-06
1.4616e-06
1.6287e-06
1.42851e-06
2.24156e-06
2.19693e-06
2.4941e-06
1.72393e-06
3.09723e-06
1.69171e-06
1.56631e-06
2.04092e-06
1.54013e-06
2.09558e-06
2.04932e-06
1.85543e-06
1.8051e-06
1.82153e-06
2.01854e-06
2.57673e-06
2.99929e-06
1.62039e-06
1.41742e-06
1.63418e-06
1.3907e-06
2.1927e-06
2.14503e-06
3.47815e-06
1.68036e-06
5.34146e-06
1.6456e-06
1.53274e-06
2.02901e-06
1.51316e-06
2.04535e-06
2.00281e-06
1.81273e-06
1.80118e-06
1.79685e-06
1.98503e-06
3.02041e-06
3.49276e-06
1.64302e-06
1.38171e-06
1.68426e-06
1.35562e-06
2.13871e-06
2.08237e-06
6.17785e-06
1.63195e-06
8.94348e-06
1.59345e-06
1.50597e-06
1.9961e-06
1.47387e-06
2.00061e-06
1.98017e-06
1.78747e-06
1.84348e-06
1.76238e-06
1.9462e-06
3.50023e-06
3.83402e-06
1.7048e-06
1.34749e-06
1.7896e-06
1.32154e-06
2.07387e-06
1.99579e-06
9.75732e-06
1.57977e-06
1.13466e-05
1.53936e-06
1.45923e-06
1.93689e-06
1.40458e-06
1.97844e-06
1.98075e-06
1.76508e-06
2.01321e-06
1.77327e-06
1.89512e-06
3.80916e-06
3.47833e-06
1.81874e-06
1.31322e-06
1.92351e-06
1.28467e-06
1.98729e-06
1.90295e-06
1.1664e-05
1.52388e-06
1.06331e-05
1.47848e-06
1.38334e-06
1.86288e-06
1.32037e-06
1.97917e-06
1.99776e-06
1.76604e-06
2.35067e-06
1.70448e-06
1.81104e-06
3.20639e-06
2.49596e-06
1.97736e-06
1.27591e-06
2.19546e-06
1.24826e-06
1.89225e-06
1.80467e-06
8.92249e-06
1.46056e-06
4.89865e-06
1.40108e-06
1.29767e-06
1.76284e-06
1.23761e-06
1.99693e-06
2.02853e-06
1.67749e-06
2.85642e-06
1.55941e-06
1.69981e-06
2.42441e-06
2.12547e-06
2.27355e-06
1.23955e-06
2.52307e-06
1.21281e-06
1.79081e-06
1.70174e-06
3.96638e-06
1.38265e-06
2.27548e-06
1.32303e-06
1.21916e-06
1.64766e-06
1.1544e-06
2.02745e-06
2.05673e-06
1.52507e-06
3.41016e-06
1.46043e-06
1.59461e-06
2.09124e-06
1.95976e-06
2.61213e-06
1.20481e-06
2.87262e-06
1.18104e-06
1.68451e-06
1.60001e-06
1.98148e-06
1.30192e-06
1.51224e-06
1.23202e-06
1.13759e-06
1.51841e-06
1.08687e-06
2.04993e-06
2.00907e-06
1.44184e-06
3.67849e-06
1.4068e-06
1.50846e-06
1.93605e-06
1.8398e-06
2.93269e-06
1.17401e-06
2.96714e-06
1.14848e-06
1.57885e-06
1.50193e-06
1.41106e-06
1.20781e-06
1.21445e-06
1.13377e-06
1.07367e-06
1.4009e-06
1.01021e-06
1.9809e-06
1.75984e-06
1.40052e-06
3.32809e-06
1.41483e-06
1.44284e-06
1.80621e-06
1.52476e-06
2.94068e-06
1.13704e-06
2.32194e-06
1.10608e-06
1.47639e-06
1.39617e-06
1.1719e-06
1.11065e-06
1.04325e-06
1.04344e-06
1.00318e-06
1.28592e-06
9.85215e-07
1.72036e-06
1.51345e-06
1.41364e-06
2.29221e-06
1.47447e-06
1.39982e-06
1.47574e-06
1.24244e-06
2.05289e-06
1.0885e-06
1.46217e-06
1.06904e-06
1.36818e-06
1.2738e-06
9.90073e-07
1.01931e-06
8.24487e-07
9.63175e-07
9.57095e-07
1.15826e-06
9.34543e-07
1.4743e-06
1.30021e-06
1.53946e-06
1.52314e-06
1.63909e-06
1.31856e-06
1.19605e-06
1.08161e-06
1.31501e-06
1.05938e-06
1.05659e-06
1.0279e-06
1.25481e-06
1.16318e-06
7.93822e-07
9.46812e-07
9.04634e-07
9.16553e-07
9.63713e-07
1.03294e-06
9.47435e-07
1.26208e-06
1.1414e-06
1.63125e-06
1.1323e-06
1.66743e-06
1.23275e-06
1.06518e-06
1.062e-06
1.01009e-06
1.04183e-06
9.48217e-07
9.96668e-07
1.15365e-06
1.1115e-06
9.38054e-07
9.07534e-07
1.0157e-06
9.19445e-07
9.06733e-07
9.67391e-07
9.98753e-07
1.12218e-06
1.10446e-06
1.75251e-06
9.90858e-07
2.15411e-06
1.60946e-06
1.07067e-06
1.16035e-06
9.49401e-07
1.02026e-06
1.02368e-06
1.12351e-06
1.10939e-06
1.29173e-06
1.00421e-06
9.38726e-07
1.0199e-06
9.96503e-07
1.03578e-06
1.09268e-06
1.07621e-06
1.12181e-06
1.1963e-06
2.20222e-06
1.01297e-06
2.18464e-06
1.58733e-06
1.20761e-06
1.40246e-06
1.05566e-06
1.10432e-06
1.18039e-06
1.29351e-06
1.28512e-06
1.47579e-06
1.04538e-06
1.03606e-06
1.17871e-06
1.1331e-06
1.11131e-06
1.26931e-06
1.23121e-06
1.23261e-06
1.45436e-06
2.18937e-06
1.17358e-06
2.20281e-06
1.75689e-06
1.50024e-06
2.07003e-06
1.2433e-06
1.36687e-06
1.49988e-06
1.53304e-06
1.7301e-06
2.10154e-06
1.24097e-06
1.18952e-06
1.47141e-06
1.48065e-06
1.27721e-06
1.51943e-06
1.51253e-06
1.5307e-06
2.16674e-06
2.19303e-06
1.50661e-06
2.14127e-06
2.28198e-06
2.24233e-06
3.08358e-06
1.60932e-06
1.69573e-06
1.95629e-06
1.84915e-06
2.21186e-06
3.05942e-06
1.57353e-06
1.53273e-06
1.90349e-06
1.8842e-06
1.63893e-06
1.84575e-06
2.09259e-06
2.32853e-06
2.97241e-06
2.13362e-06
1.8915e-06
2.40425e-06
3.59311e-06
3.32551e-06
4.92589e-06
2.10922e-06
1.90764e-06
2.67083e-06
2.98174e-06
3.08474e-06
6.01065e-06
2.05593e-06
2.09623e-06
2.5952e-06
2.52531e-06
2.10996e-06
2.93063e-06
2.52124e-06
3.34737e-06
5.07471e-06
2.41461e-06
2.52429e-06
2.60257e-06
4.20941e-06
5.3472e-06
7.71378e-06
2.92555e-06
3.1252e-06
3.59619e-06
3.13342e-06
6.65944e-06
5.89839e-06
2.86617e-06
2.69778e-06
3.53793e-06
3.61037e-06
2.99322e-06
3.25073e-06
3.6892e-06
5.26132e-06
7.79292e-06
3.07073e-06
3.628e-06
3.77985e-06
8.95991e-06
8.15706e-06
1.12167e-05
3.8064e-06
3.6477e-06
5.00878e-06
5.22641e-06
6.1428e-06
1.37873e-05
3.7404e-06
3.86868e-06
4.92884e-06
4.68748e-06
3.73179e-06
5.07406e-06
4.984e-06
8.61129e-06
1.09502e-05
3.80039e-06
4.7014e-06
5.12046e-06
1.08165e-05
1.23675e-05
1.64798e-05
5.45019e-06
5.70345e-06
6.41223e-06
6.31188e-06
1.47864e-05
1.63526e-05
5.39552e-06
5.0773e-06
6.33771e-06
6.6395e-06
5.48183e-06
6.50866e-06
6.59829e-06
1.16844e-05
1.70159e-05
5.56004e-06
6.62378e-06
6.63107e-06
1.72821e-05
1.7168e-05
2.25999e-05
6.89995e-06
6.47075e-06
8.71013e-06
8.7322e-06
1.67686e-05
2.09482e-05
6.78945e-06
7.16512e-06
8.65666e-06
8.23965e-06
7.08587e-06
8.3388e-06
8.34489e-06
1.82203e-05
2.22611e-05
7.18384e-06
8.20832e-06
8.22097e-06
2.21424e-05
2.41047e-05
2.87072e-05
9.17102e-06
9.57081e-06
1.08349e-05
1.07034e-05
2.29788e-05
3.01718e-05
9.13398e-06
8.77433e-06
1.08047e-05
1.07176e-05
8.84793e-06
1.06078e-05
1.11069e-05
2.2979e-05
2.87848e-05
8.79937e-06
1.08009e-05
1.15956e-05
2.93238e-05
2.97666e-05
3.64333e-05
1.15502e-05
1.1132e-05
1.3882e-05
1.45142e-05
3.07409e-05
3.61792e-05
1.15357e-05
1.14626e-05
1.37131e-05
1.40479e-05
1.18286e-05
1.4182e-05
1.36382e-05
3.05552e-05
3.69375e-05
1.20645e-05
1.39855e-05
1.32649e-05
3.64284e-05
3.79817e-05
4.34938e-05
1.45993e-05
1.55506e-05
1.73432e-05
1.64006e-05
3.84559e-05
4.3437e-05
1.44803e-05
1.47766e-05
1.73158e-05
1.69757e-05
1.4332e-05
1.61942e-05
1.72648e-05
3.82902e-05
4.37458e-05
1.42628e-05
1.69263e-05
1.81223e-05
4.39068e-05
4.48799e-05
5.03953e-05
1.83289e-05
1.70075e-05
2.05255e-05
2.2252e-05
4.41705e-05
5.0953e-05
1.81681e-05
1.79747e-05
2.04609e-05
2.02108e-05
1.86149e-05
2.20457e-05
2.07899e-05
4.50873e-05
4.9072e-05
1.92328e-05
2.037e-05
2.03912e-05
5.11726e-05
5.17034e-05
5.70421e-05
2.14963e-05
2.37849e-05
2.59604e-05
2.41718e-05
5.31394e-05
5.61541e-05
2.1507e-05
2.08933e-05
2.5809e-05
2.61974e-05
2.12583e-05
2.37318e-05
2.57274e-05
5.05909e-05
5.81807e-05
2.10936e-05
2.58022e-05
2.54008e-05
5.62981e-05
5.85246e-05
6.22065e-05
2.69498e-05
2.41576e-05
2.86096e-05
2.99819e-05
5.65607e-05
6.30097e-05
2.68808e-05
2.80872e-05
2.85691e-05
2.91555e-05
2.68784e-05
3.01079e-05
2.87806e-05
5.97698e-05
6.27624e-05
2.65279e-05
2.91228e-05
2.94709e-05
6.32184e-05
6.32311e-05
6.87937e-05
3.0168e-05
3.31594e-05
3.58787e-05
3.87247e-05
6.52784e-05
7.04471e-05
3.01206e-05
2.90559e-05
3.56973e-05
3.45439e-05
3.03516e-05
3.60973e-05
3.61034e-05
6.33317e-05
6.76385e-05
3.11063e-05
3.45799e-05
3.55818e-05
6.83207e-05
7.01453e-05
7.33736e-05
3.69503e-05
3.86571e-05
3.92305e-05
3.71104e-05
7.07548e-05
7.06279e-05
3.65288e-05
3.68296e-05
3.89513e-05
4.0395e-05
3.65359e-05
3.68878e-05
3.82662e-05
6.93331e-05
7.38351e-05
3.55914e-05
4.00818e-05
3.86583e-05
7.33111e-05
7.43861e-05
7.75672e-05
4.1433e-05
3.7361e-05
4.52729e-05
4.63315e-05
7.15272e-05
7.96449e-05
4.13484e-05
4.08662e-05
4.58984e-05
4.47759e-05
4.08752e-05
4.73841e-05
4.77407e-05
7.45387e-05
7.75902e-05
4.15876e-05
4.45984e-05
4.76089e-05
7.87205e-05
7.8367e-05
8.23571e-05
4.52606e-05
5.00597e-05
5.15012e-05
5.39916e-05
8.11674e-05
8.21964e-05
4.57068e-05
4.71579e-05
5.03737e-05
5.2766e-05
4.79942e-05
5.1515e-05
4.84339e-05
7.90034e-05
8.27115e-05
4.7518e-05
5.2953e-05
4.90017e-05
8.09794e-05
8.36688e-05
8.61053e-05
5.44219e-05
5.33517e-05
5.6789e-05
5.30387e-05
8.22692e-05
8.61957e-05
5.36416e-05
5.3173e-05
5.72831e-05
5.3667e-05
5.18683e-05
5.40639e-05
5.88302e-05
8.31809e-05
8.49775e-05
5.14345e-05
5.34831e-05
5.77311e-05
8.80576e-05
8.67002e-05
9.17644e-05
5.65502e-05
5.73878e-05
6.33155e-05
7.05073e-05
8.85908e-05
9.44271e-05
5.69769e-05
5.60479e-05
6.30153e-05
6.70272e-05
6.00594e-05
7.03783e-05
6.70124e-05
8.63021e-05
9.27421e-05
5.91277e-05
6.64113e-05
6.645e-05
9.23726e-05
9.33631e-05
9.52528e-05
6.74151e-05
7.17889e-05
7.30085e-05
6.92416e-05
9.45386e-05
9.0975e-05
6.70459e-05
6.90421e-05
7.25443e-05
6.8771e-05
6.8635e-05
6.78231e-05
6.79025e-05
9.35343e-05
9.37238e-05
6.83353e-05
6.95372e-05
6.80563e-05
9.27014e-05
9.50771e-05
9.51168e-05
7.24893e-05
6.77373e-05
6.96363e-05
6.58809e-05
9.05683e-05
9.60897e-05
7.20386e-05
6.82707e-05
6.95681e-05
7.33506e-05
6.6918e-05
6.394e-05
7.03282e-05
9.39132e-05
9.74994e-05
6.72072e-05
7.29038e-05
7.19192e-05
9.64838e-05
9.66256e-05
0.000105169
7.06137e-05
7.27394e-05
8.46371e-05
9.01048e-05
9.95481e-05
0.000108391
7.18889e-05
7.5131e-05
8.29956e-05
8.25279e-05
7.44083e-05
9.04016e-05
8.43319e-05
9.87833e-05
0.000102962
7.6213e-05
8.23094e-05
8.25116e-05
0.000104725
0.000106111
0.000107066
8.81074e-05
9.22382e-05
9.12516e-05
9.28446e-05
0.000108807
0.000108944
8.61512e-05
8.55133e-05
9.11501e-05
8.8017e-05
8.76345e-05
9.58776e-05
9.42752e-05
0.000104069
0.00010661
8.46112e-05
8.80127e-05
9.29736e-05
0.000109314
0.000106843
0.000106112
9.04513e-05
9.21769e-05
8.72191e-05
8.99242e-05
0.000109013
0.000106695
9.07251e-05
8.79886e-05
8.77373e-05
9.34574e-05
9.43634e-05
9.17232e-05
9.15239e-05
0.00010698
0.000109843
9.40479e-05
9.34795e-05
9.19304e-05
0.000106875
0.000107279
0.000116768
8.75747e-05
8.89505e-05
0.000101493
8.70315e-05
0.000106217
0.000104512
8.7902e-05
9.57494e-05
0.000100919
9.76701e-05
9.0238e-05
8.27299e-05
8.88629e-05
0.000110856
0.000112411
9.06418e-05
9.66976e-05
9.34437e-05
0.000110852
0.000117817
0.000117988
0.000104627
9.31487e-05
0.000106021
0.000114178
0.000108243
0.000129758
0.000104482
9.74089e-05
0.000108716
0.00010342
9.21868e-05
0.000119747
0.000107408
0.000112665
0.000117652
9.87687e-05
0.000104419
0.000109704
0.000120894
0.000117865
0.000120699
0.000105303
0.000117284
0.000109068
0.000118493
0.000130752
0.000125933
0.000108401
0.000107273
0.000107044
0.000113608
0.00011271
0.000126274
0.000120993
0.000119376
0.000123195
0.000111381
0.000113624
0.000111531
0.000124446
0.000121941
0.000124842
0.000112795
0.000117747
0.000118804
0.000110744
0.000125041
0.00011578
0.000107874
0.00011353
0.00011315
0.000115474
0.000121049
0.000106407
0.000117348
0.00012323
0.000123848
0.000110804
0.000113571
0.000108763
0.000122262
0.000125044
0.00012654
0.000118713
0.000108269
0.000116168
0.000104557
0.000115187
0.000117999
0.000116025
0.000116951
0.000121053
0.00011708
0.000114431
0.000100671
0.000109596
0.000124774
0.000126389
0.000109919
0.000117228
0.000120357
0.000124032
0.000126867
0.000130548
0.000115297
0.000109023
0.000120793
0.000132824
0.00012239
0.00014296
0.000120995
0.000116862
0.000123873
0.00012416
0.00010885
0.000138437
0.00012618
0.000126393
0.00013142
0.000124092
0.000125505
0.000130484
0.000135863
0.000132281
0.000139781
0.000125272
0.00013681
0.000136807
0.00013942
0.000144572
0.00014357
0.000126697
0.000127999
0.000135375
0.000134253
0.000131805
0.000146737
0.000139061
0.000133387
0.000137658
0.000131313
0.000133639
0.000132472
0.00013785
0.000140259
0.000138248
0.00013866
0.000138733
0.000138595
0.000129956
0.000142623
0.000130747
0.000136342
0.000134257
0.000134935
0.000132489
0.000139079
0.000132005
0.000135788
0.000137628
0.000135651
0.000132338
0.000131724
0.000130541
0.000135101
0.00013783
0.000135977
0.000137492
0.000128113
0.000133816
0.000126653
0.000130067
0.000133523
0.000133516
0.000131851
0.000130603
0.00013489
0.00013367
0.000124671
0.000130085
0.000135658
0.000139462
0.000129974
0.000135463
0.000133305
0.00013674
0.000136825
0.000146013
0.000132927
0.000132321
0.000140972
0.00014882
0.000136943
0.000150952
0.000131937
0.000137153
0.000144779
0.00014543
0.000130222
0.00014825
0.000144488
0.000140442
0.000145983
0.00013596
0.000142739
0.000145728
0.000147317
0.000147544
0.000149493
0.000145426
0.000151646
0.000151915
0.000152893
0.000151944
0.00015065
0.000147903
0.00014736
0.000151398
0.000148432
0.000148138
0.000154565
0.000152162
0.000146897
0.000147826
0.000148433
0.000150749
0.000151349
0.00014937
0.000149336
0.000147745
0.000151992
0.000151939
0.000150361
0.000147019
0.000150124
0.0001457
0.000151123
0.00014797
0.000149197
0.000146215
0.000151961
0.00015052
0.000150552
0.00014763
0.000146568
0.00015107
0.000149282
0.000149673
0.000148334
0.00014764
0.000153294
0.000149756
0.00014614
0.000152532
0.000152628
0.000145493
0.000153855
0.000148556
0.000146832
0.000154191
0.000157312
0.000150248
0.000153597
0.000155316
0.000147068
0.000154911
0.000149624
0.00015493
0.000155768
0.000153462
0.000154754
0.000156444
0.000156209
0.000157414
0.000161829
0.000163273
0.000155857
0.000157629
0.000157438
0.000160102
0.000161828
0.000162872
0.00015674
0.000162064
0.000157203
0.00015622
0.000156985
0.000156695
0.00016138
0.00015629
0.00015271
0.000156279
0.000155783
0.000161997
0.000163068
0.000161089
0.000160099
0.000157225
0.000153309
0.000161834
0.000162576
0.000160658
0.000160196
0.000157291
0.000158686
0.00016217
0.000156767
0.000154681
0.00015621
0.000159503
0.000163265
0.000159158
0.000156256
0.000162455
0.000160917
0.000159382
0.000167124
0.000166274
0.000153278
0.000164249
0.000160344
0.000159594
0.000166111
0.0001636
0.000164647
0.000168664
0.000169169
0.000154801
0.000161299
0.000165858
0.0001669
0.000168745
0.000162274
0.000163221
0.000161924
0.000169173
0.000169956
0.000169767
0.000172479
0.000165592
0.000163923
0.000168837
0.000167411
0.000171517
0.000173397
0.000169225
0.000172915
0.000167934
0.000162656
0.000164456
0.00016857
0.000172032
0.000167469
0.000160063
0.000161466
0.000160154
0.000168843
0.000171707
0.000166452
0.000168105
0.00016292
0.000158802
0.000171137
0.000173539
0.000169234
0.000172133
0.000167413
0.000167406
0.0001704
0.000164277
0.000162378
0.000167835
0.000170169
0.000170914
0.000163946
0.00016142
0.000173567
0.000167296
0.000167595
0.000182196
0.000178049
0.000159519
0.000171111
0.000169061
0.00017156
0.000179172
0.000174232
0.000172165
0.000177669
0.000177002
0.000162179
0.000168366
0.000171345
0.00017522
0.000175645
0.000168441
0.00017462
0.000173466
0.000184708
0.000181486
0.000186308
0.00018535
0.00017257
0.000174283
0.000182186
0.00017817
0.000184569
0.000184441
0.000178586
0.000184963
0.000183071
0.000170206
0.000173885
0.000177979
0.000184907
0.000183897
0.000172746
0.000172706
0.000168124
0.000185107
0.000185496
0.000180343
0.000183474
0.000174048
0.000170399
0.000184223
0.000184746
0.000180853
0.000183254
0.000184189
0.000183925
0.000184917
0.000173703
0.000170901
0.000184823
0.000184245
0.000184931
0.000172528
0.000167835
0.000171096
0.000179575
0.000181716
0.000178846
0.000178906
0.000169843
0.00016828
0.000180318
0.000182435
0.000181812
0.000181563
0.000184656
0.000179881
0.00018294
0.000170548
0.000171841
0.000184396
0.000181978
0.000182806
0.000171528
0.000172049
0.000174649
0.000180148
0.000178666
0.000185838
0.000189917
0.00016909
0.000180212
0.000183984
0.000183161
0.000187079
0.000189365
0.000182577
0.000190795
0.000188154
0.0001727
0.000177078
0.000182646
0.000189151
0.000189265
0.000177288
0.000175113
0.00018139
0.0001884
0.000193425
0.000197021
0.000197047
0.000181549
0.000182074
0.000187981
0.000190358
0.000193416
0.000190862
0.00019063
0.000196291
0.000192352
0.000177326
0.000177249
0.000191032
0.000191706
0.000191501
0.000177205
0.000182672
0.000186204
0.000199122
0.000196993
0.000201427
0.000192115
0.000181166
0.00017463
0.000195684
0.000190831
0.000200142
0.000194684
0.000191976
0.000190017
0.000190847
0.000177044
0.000180174
0.000190886
0.00019201
0.000189949
0.000176767
0.000186125
0.000183845
0.000201427
0.000191111
0.000198856
0.000193245
0.00017408
0.000181754
0.000200686
0.00019705
0.000200953
0.000201902
0.000191936
0.000195449
0.000202147
0.000181537
0.00018694
0.000192342
0.000202098
0.000202735
0.000188675
0.000183367
0.000177203
0.000198201
0.000197773
0.000194228
0.000204471
0.000183868
0.000189514
0.000200359
0.000202488
0.000194857
0.000200494
0.000203174
0.000205658
0.000201517
0.000187016
0.000182172
0.000203639
0.000201269
0.000200933
0.000181709
0.000176244
0.000173737
0.000192661
0.000205052
0.000189819
0.000200908
0.000189374
0.000183369
0.000192537
0.000197065
0.000188603
0.000191289
0.000198407
0.000201542
0.000193639
0.000180613
0.000175089
0.000197638
0.000192951
0.000192856
0.000175144
0.000174738
0.000188981
0.000189869
0.000199016
0.000203126
0.000195958
0.000182381
0.000179633
0.000188275
0.000190419
0.000203446
0.000202635
0.000193019
0.000196139
0.000203397
0.000175095
0.000189022
0.000192296
0.000202233
0.000204741
0.0001906
0.000191392
0.000200603
0.000208094
0.000196611
0.000218306
0.00020924
0.00018046
0.000191565
0.000209323
0.000208856
0.000220363
0.000218935
0.000208948
0.000208725
0.000218551
0.0001916
0.000199428
0.000210441
0.000217313
0.000219607
0.000201944
0.000200822
0.000196438
0.000219777
0.000212464
0.000220226
0.000217077
0.000192966
0.000196862
0.000221859
0.000220059
0.000220174
0.000215135
0.0002197
0.000216909
0.000214312
0.000199355
0.000191195
0.000220704
0.000214566
0.000213165
0.000189966
0.000194346
0.000184473
0.00021685
0.000217676
0.000206764
0.000212842
0.000196504
0.000190868
0.000215503
0.000211043
0.000204373
0.000203736
0.000209227
0.000211624
0.000199578
0.000189386
0.000184064
0.00020768
0.000203661
0.00019824
0.000178112
0.000183594
0.000183665
0.000204549
0.000210392
0.000201805
0.000205056
0.000189927
0.000185642
0.000202624
0.000202928
0.000201085
0.000204885
0.000198405
0.000204775
0.000201764
0.000183676
0.000188672
0.00019716
0.000205132
0.000203386
0.000187275
0.000184749
0.000191654
0.000201818
0.000204112
0.000209326
0.0002046
0.000185166
0.000187924
0.000203394
0.000207931
0.000211484
0.000213181
0.000207084
0.000207551
0.000219431
0.000189901
0.000193278
0.000208976
0.000214546
0.000220564
0.000199978
0.000192448
0.000196443
0.00021181
0.000208068
0.000217806
0.00021768
0.000189338
0.000197027
0.000213322
0.000214081
0.000217806
0.000217356
0.000221566
0.000219027
0.000223797
0.000193337
0.000195682
0.000222319
0.000218349
0.000223785
0.000200776
0.000197184
0.000203457
0.000219956
0.000220287
0.000226399
0.000225183
0.00019798
0.000201059
0.000219587
0.000218996
0.000225234
0.000223063
0.00022342
0.000223098
0.00021765
0.000196392
0.000200252
0.000222632
0.000221728
0.000217237
0.000193875
0.000203922
0.000202624
0.000227819
0.000225892
0.00022902
0.00022624
0.000200981
0.000199993
0.000226467
0.000223702
0.00022776
0.000223286
0.000216235
0.000222413
0.000214808
0.000200289
0.000197523
0.000216006
0.000220689
0.000214648
0.000191793
0.000200444
0.000187062
0.00022535
0.000224569
0.000210969
0.000217968
0.000199605
0.000196411
0.000224757
0.000220918
0.000212084
0.000215623
0.000215083
0.000221221
0.000221008
0.00019643
0.000192951
0.000214781
0.00021687
0.000220356
0.00019833
0.000185512
0.000185763
0.000208084
0.000215408
0.000204801
0.00021105
0.000195401
0.000190294
0.000209539
0.000215072
0.000206685
0.000215772
0.000222215
0.000215407
0.000223371
0.000192643
0.000196898
0.000221916
0.000220182
0.00022394
0.000200117
0.000188435
0.000209463
0.000207836
0.000210445
0.000231927
0.000220985
0.00018974
0.000196764
0.000209352
0.000218581
0.000230461
0.000225389
0.000222794
0.000215938
0.000221287
0.000197854
0.000201134
0.00022402
0.000224232
0.000222558
0.000198031
0.000211792
0.000216916
0.00023732
0.000226445
0.000244904
0.00023561
0.000198786
0.000208242
0.000235121
0.000226567
0.000241501
0.000228079
0.000221118
0.00023058
0.000223958
0.000201071
0.000200251
0.000222341
0.000224574
0.000222765
0.000199377
0.000213802
0.000192227
0.00024431
0.000236868
0.000220431
0.00022899
0.000208411
0.000202249
0.000240924
0.000227694
0.000220788
0.000222738
0.000225083
0.000231651
0.00022711
0.000199772
0.000197684
0.000223635
0.000223408
0.000225444
0.000200817
0.000189476
0.00018441
0.000214204
0.000223876
0.000206938
0.000215507
0.000200171
0.000193606
0.000215748
0.00022173
0.000210272
0.000221123
0.000227118
0.000220423
0.000224353
0.000197442
0.000198831
0.000225686
0.000223782
0.000224643
0.000199188
0.000185879
0.000201463
0.000206545
0.000214583
0.000222214
0.000217186
0.000193148
0.000195015
0.000210335
0.000221867
0.00022471
0.000226846
0.000223486
0.000218255
0.000222033
0.000199352
0.000202065
0.000224206
0.000226313
0.000223449
0.000197824
0.000203221
0.000208907
0.000227285
0.000220545
0.000236656
0.000230296
0.000195841
0.000202601
0.000228557
0.00022759
0.000234295
0.000228004
0.000221859
0.00022649
0.000225127
0.000201945
0.000200665
0.000223358
0.000226395
0.000225463
0.000200649
0.00020914
0.000209814
0.000238418
0.000233447
0.000241261
0.000239127
0.000203913
0.000210438
0.000235018
0.000227602
0.000236134
0.000228149
0.00022726
0.000235407
0.000231265
0.000200449
0.00020175
0.000226922
0.000227869
0.000229963
0.000204695
0.000208564
0.000198627
0.000239857
0.000239965
0.000225907
0.00022859
0.000210491
0.000200621
0.000234813
0.000228497
0.000226605
0.000229174
0.000231874
0.000230128
0.000228254
0.000201993
0.000202337
0.00023046
0.000229843
0.000228232
0.000200015
0.000196599
0.000190881
0.000221602
0.000223753
0.000215481
0.000217165
0.000198354
0.000192651
0.000223361
0.000227522
0.000218118
0.000223516
0.000225887
0.000219742
0.000223265
0.000201429
0.00019799
0.000226421
0.000224533
0.000224212
0.0001974
0.000190564
0.00020039
0.000214762
0.000216556
0.000223519
0.000223611
0.000192404
0.000200235
0.00021753
0.000223284
0.00022419
0.000225241
0.000223214
0.000224522
0.000227747
0.000197671
0.000200401
0.000224218
0.000225462
0.000227743
0.000202771
0.000201732
0.000208104
0.000227529
0.000226911
0.00023679
0.000235069
0.000201184
0.000206111
0.000227674
0.000226923
0.000236141
0.000232629
0.000228747
0.000234151
0.000233106
0.000200791
0.000203941
0.000228539
0.000231689
0.000232574
0.000204156
0.000210717
0.000236335
0.000234538
0.000208791
0.000235593
0.00023159
0.000258587
0.000255046
0.000255323
0.000231504
0.000206386
0.000231077
1.37054e-06
2.4805e-06
8.8249e-07
1.03527e-06
1.31218e-06
2.57241e-06
7.0131e-07
1.30607e-06
1.22229e-06
2.10621e-06
1.63535e-06
1.03984e-06
2.28357e-06
3.35916e-06
1.65368e-06
1.12934e-06
1.34765e-05
1.04848e-06
1.52431e-05
1.05326e-05
1.28082e-05
1.32426e-06
1.45379e-05
1.15707e-06
1.63496e-05
1.54952e-06
1.60124e-06
1.59469e-06
1.97625e-06
1.57241e-06
1.62137e-06
1.61194e-06
1.36614e-06
3.5242e-07
1.64301e-06
2.03403e-06
1.35386e-06
4.58647e-07
1.6525e-06
1.05964e-05
1.28151e-05
1.22852e-06
1.78821e-06
5.26953e-07
1.88367e-06
1.23082e-06
1.79507e-06
6.53549e-07
1.45715e-06
1.4791e-06
2.24848e-06
1.68376e-06
1.69039e-06
1.35591e-06
1.85109e-05
1.28334e-06
2.08493e-05
1.68367e-05
1.90519e-05
1.51437e-06
1.96955e-05
1.43628e-06
2.22549e-05
1.57137e-06
1.62034e-06
1.61118e-06
2.01809e-06
1.56476e-06
1.61643e-06