/*--------------------------------*- C++ -*----------------------------------*\
| =========                 |                                                 |
| \\      /  F ield         | OpenFOAM: The Open Source CFD Toolbox           |
|  \\    /   O peration     | Version:  v2012                                 |
|   \\  /    A nd           | Website:  www.openfoam.com                      |
|    \\/     M anipulation  |                                                 |
\*---------------------------------------------------------------------------*/
FoamFile
{
    version     2.0;
    format      ascii;
    class       volScalarField;
    location    "2025";
    object      p;
}
// * * * * * * * * * * * * * * * * * * * * * * * * * * * * * * * * * * * * * //

dimensions      [0 2 -2 0 0 0 0];


internalField   nonuniform List<scalar> 
171728
(
0.00351918
0.00351816
0.00351813
0.00351842
0.00348371
0.00348223
0.00348231
0.0034851
0.00344518
0.00344339
0.00344341
0.00344571
0.00340113
0.00339954
0.00339952
0.00340175
0.00335313
0.00335175
0.0033517
0.00335402
0.00330425
0.00330301
0.00330299
0.00330537
0.00325602
0.00325487
0.00325487
0.00325725
0.00320876
0.00320771
0.00320769
0.00321006
0.0031624
0.00316151
0.00316149
0.00316386
0.00311704
0.00311628
0.00311627
0.00311865
0.0030726
0.00307195
0.00307192
0.0030743
0.00302895
0.00302839
0.00302837
0.00303077
0.00298586
0.0029854
0.00298536
0.00298788
0.00294315
0.00294274
0.0029428
0.0029453
0.00290076
0.0029004
0.00290045
0.00290272
0.00285877
0.00285842
0.0028586
0.00286069
0.00281701
0.00281683
0.0028169
0.00281906
0.00277569
0.00277566
0.00277556
0.00277771
0.00273468
0.00273484
0.00273473
0.00273674
0.00269398
0.00269389
0.00269405
0.00269603
0.00265369
0.00265387
0.00265377
0.00265558
0.00261367
0.00261393
0.00261381
0.00261554
0.00257394
0.00257415
0.00257426
0.0025757
0.00253448
0.00253479
0.0025348
0.00253657
0.00249529
0.00249575
0.00249564
0.00249704
0.00245631
0.00245672
0.00245674
0.00245856
0.00241756
0.00241797
0.00241802
0.00241963
0.00237902
0.00237957
0.00237955
0.00238135
0.0023407
0.00234129
0.00234127
0.00234319
0.00230256
0.00230315
0.00230316
0.00230499
0.00226458
0.00226529
0.00226523
0.00226716
0.00222678
0.00222738
0.0022275
0.00222923
0.00218911
0.00218986
0.00218979
0.0021917
0.00215163
0.0021523
0.00215229
0.00215413
0.00211413
0.00211473
0.00211486
0.00211671
0.00207701
0.00207765
0.00207757
0.00207935
0.00203975
0.00204032
0.0020404
0.00204234
0.00200291
0.00200338
0.00200334
0.00200525
0.00196601
0.00196655
0.00196657
0.00196843
0.00192923
0.00192922
0.00192946
0.00193143
0.00189252
0.00189318
0.00189289
0.00189499
0.00185647
0.00185657
0.00185668
0.00185863
0.00182005
0.00182002
0.0018201
0.00182207
0.0017833
0.00178343
0.00178361
0.0017855
0.00174752
0.00174746
0.00174739
0.00174976
0.00171188
0.0017126
0.00171203
0.00171389
0.0016761
0.00167502
0.00167579
0.00167787
0.00163984
0.00163964
0.00163984
0.0016417
0.00160448
0.00160512
0.00160432
0.0016066
0.00156943
0.00156957
0.0015694
0.00157173
0.00153465
0.00153316
0.00153393
0.00153565
0.00149845
0.00149799
0.00149812
0.0015001
0.00146263
0.00146336
0.00146284
0.00146508
0.00142786
0.00142802
0.0014277
0.00142984
0.00139351
0.00139222
0.00139278
0.00139445
0.00135796
0.00135769
0.0013577
0.00135966
0.00132265
0.00132303
0.00132287
0.00132495
0.00128822
0.0012877
0.00128756
0.00128954
0.00125324
0.0012528
0.00125304
0.00125508
0.00121837
0.00121867
0.00121842
0.00122023
0.00118374
0.001183
0.00118323
0.00118502
0.00114897
0.00114886
0.00114885
0.00115093
0.00111495
0.00111494
0.00111465
0.00111659
0.00108
0.00107953
0.00107983
0.00108157
0.00104519
0.00104513
0.00104498
0.00104698
0.00101111
0.00101086
0.00101093
0.0010128
0.000976341
0.000976453
0.000976373
0.00097836
0.000942161
0.000941469
0.000941438
0.000943317
0.00090745
0.000907133
0.000907473
0.00090922
0.000873105
0.000873719
0.000873576
0.00087571
0.000838379
0.000838228
0.000837855
0.000839852
0.000803432
0.000802989
0.000803242
0.00080514
0.000769841
0.000769387
0.000770041
0.00077184
0.000735825
0.000735765
0.000735257
0.000737086
0.00070014
0.000700227
0.00069979
0.000701762
0.000664752
0.000664957
0.000665192
0.000667321
0.000630766
0.000630711
0.000631164
0.000633257
0.00059666
0.000596546
0.000596465
0.000598287
0.000561811
0.000561591
0.000561214
0.000562997
0.000527109
0.000526647
0.000526705
0.000528452
0.000492198
0.000492375
0.00049238
0.000494531
0.000456895
0.000457534
0.000457571
0.000459812
0.00042228
0.000421882
0.000422176
0.000423934
0.000387907
0.000387229
0.000386858
0.000388697
0.000352024
0.000352268
0.000352023
0.000354188
0.000315897
0.000316271
0.000316711
0.000318745
0.000281319
0.00028116
0.000281266
0.000283153
0.000246858
0.000246522
0.000246267
0.000248193
0.000211271
0.000211349
0.00021109
0.000213253
0.000175852
0.000175884
0.000175979
0.000177941
0.000139843
0.00013973
0.000140131
0.000141946
0.000103932
0.000104168
0.000103927
0.000106124
6.89806e-05
6.90062e-05
6.87233e-05
7.08019e-05
3.40897e-05
3.32272e-05
3.33562e-05
3.50038e-05
5.69163e-06
6.76719e-06
6.87512e-06
4.96076e-06
0.0035237
0.00352127
0.00352115
0.00352359
0.00352135
0.00352112
0.00352756
0.00352758
0.00352756
0.00352753
0.0035212
0.00352103
0.00352361
0.00352117
0.00352099
0.0035233
0.00351891
0.00348986
0.00351816
0.00351809
0.00349174
0.00349182
0.00351881
0.00348992
0.00351814
0.00351812
0.00349179
0.00349173
0.0035181
0.00349183
0.00349177
0.00351885
0.00348987
0.00351797
0.00349169
0.00349164
0.00348984
0.00348511
0.00345123
0.00348226
0.00348219
0.00345353
0.00345354
0.00348513
0.00345122
0.00348217
0.00348223
0.00345372
0.00345347
0.00348221
0.00345355
0.0034535
0.00348511
0.00345122
0.00348229
0.00345343
0.00345345
0.00345122
0.00344569
0.00340793
0.00344336
0.00344335
0.00341098
0.00341099
0.0034457
0.00340792
0.00344337
0.00344332
0.00341078
0.00341095
0.00344338
0.00341096
0.00341099
0.00344571
0.00340791
0.00344343
0.0034109
0.00341096
0.00340793
0.00340179
0.00336046
0.00339945
0.00339949
0.00336383
0.00336385
0.00340175
0.00336047
0.00339968
0.00339946
0.00336404
0.00336387
0.00339952
0.00336384
0.00336383
0.00340174
0.00336047
0.00339952
0.00336382
0.00336387
0.00336049
0.00335407
0.00331175
0.00335167
0.00335172
0.00331511
0.00331515
0.00335403
0.00331183
0.00335207
0.00335168
0.00331535
0.00331516
0.0033517
0.00331518
0.00331516
0.00335401
0.0033118
0.00335168
0.00331518
0.0033152
0.00331181
0.00330536
0.00326353
0.003303
0.00330304
0.00326685
0.00326685
0.00330538
0.00326358
0.0033033
0.00330302
0.0032669
0.00326683
0.00330303
0.00326687
0.00326685
0.00330535
0.00326358
0.00330302
0.00326683
0.00326682
0.00326358
0.00325723
0.00321627
0.00325486
0.0032549
0.00321946
0.00321939
0.00325725
0.00321623
0.00325503
0.00325488
0.00321931
0.00321938
0.00325489
0.0032194
0.00321942
0.00325725
0.00321623
0.00325491
0.00321938
0.00321943
0.00321624
0.00321011
0.00316993
0.00320776
0.0032077
0.00317301
0.00317294
0.00321005
0.0031699
0.0032076
0.00320766
0.00317298
0.00317294
0.0032077
0.00317295
0.00317296
0.00321005
0.00316992
0.0032077
0.00317296
0.00317298
0.00316991
0.00316389
0.00312454
0.00316153
0.00316151
0.0031275
0.00312749
0.00316387
0.00312455
0.00316147
0.00316149
0.00312748
0.00312749
0.00316148
0.00312749
0.00312746
0.00316388
0.00312455
0.00316148
0.0031275
0.00312747
0.00312453
0.00311864
0.00308003
0.0031163
0.00311628
0.00308294
0.00308295
0.00311864
0.0030801
0.00311628
0.00311627
0.00308294
0.00308294
0.0031163
0.00308295
0.00308298
0.00311864
0.0030801
0.00311634
0.00308296
0.00308306
0.00308008
0.00307429
0.00303641
0.00307198
0.00307196
0.00303922
0.00303926
0.00307431
0.00303639
0.00307205
0.00307194
0.00303936
0.00303924
0.00307199
0.00303926
0.00303928
0.00307431
0.00303642
0.00307194
0.00303922
0.00303931
0.00303647
0.00303074
0.00299336
0.00302837
0.00302839
0.00299612
0.00299619
0.0030307
0.00299331
0.00302839
0.00302837
0.00299621
0.00299611
0.0030284
0.00299619
0.00299614
0.00303073
0.00299332
0.00302825
0.0029961
0.00299611
0.00299352
0.00298778
0.00295066
0.00298531
0.0029854
0.00295349
0.00295349
0.0029877
0.00295064
0.00298536
0.00298537
0.00295356
0.00295342
0.00298542
0.00295351
0.00295338
0.00298772
0.00295065
0.00298526
0.00295339
0.00295339
0.00295087
0.00294509
0.00290825
0.00294272
0.00294274
0.00291126
0.00291108
0.00294507
0.00290829
0.00294283
0.00294283
0.00291115
0.00291101
0.00294287
0.00291108
0.00291094
0.00294513
0.00290828
0.00294274
0.002911
0.00291105
0.00290818
0.00290281
0.00286624
0.0029006
0.0029004
0.00286897
0.00286907
0.00290277
0.00286626
0.00290056
0.00290045
0.00286898
0.00286896
0.00290044
0.00286908
0.00286906
0.00290279
0.00286625
0.00290043
0.00286897
0.00286911
0.00286611
0.00286086
0.00282447
0.00285871
0.00285842
0.00282717
0.00282741
0.0028608
0.00282452
0.00285875
0.00285858
0.00282727
0.00282737
0.0028585
0.00282744
0.0028276
0.00286085
0.00282447
0.00285859
0.00282734
0.00282751
0.0028246
0.00281904
0.002783
0.00281677
0.00281685
0.00278578
0.00278596
0.00281911
0.00278301
0.00281673
0.0028169
0.00278572
0.00278592
0.00281688
0.00278593
0.00278551
0.00281907
0.00278302
0.00281683
0.00278591
0.00278559
0.00278302
0.0027778
0.00274205
0.00277565
0.00277569
0.00274493
0.00274486
0.00277772
0.00274206
0.00277571
0.00277559
0.00274492
0.00274501
0.00277556
0.00274488
0.00274508
0.00277772
0.00274201
0.00277556
0.00274501
0.0027451
0.00274197
0.00273676
0.00270109
0.00273467
0.00273486
0.00270419
0.00270404
0.00273685
0.00270114
0.00273462
0.00273472
0.00270418
0.00270418
0.0027347
0.00270406
0.00270411
0.00273676
0.00270119
0.00273473
0.00270418
0.00270411
0.0027012
0.00269592
0.00266068
0.00269402
0.0026939
0.00266389
0.00266395
0.00269591
0.00266062
0.00269404
0.00269407
0.00266387
0.00266379
0.00269408
0.00266396
0.0026638
0.002696
0.00266072
0.00269408
0.00266376
0.00266377
0.00266074
0.00265555
0.00262058
0.00265379
0.00265387
0.00262381
0.00262382
0.00265558
0.00262054
0.00265379
0.0026538
0.00262381
0.00262378
0.00265376
0.00262383
0.00262378
0.00265555
0.00262052
0.00265374
0.00262377
0.00262379
0.00262062
0.00261548
0.00258081
0.00261382
0.00261392
0.00258403
0.00258395
0.00261553
0.00258075
0.00261382
0.00261382
0.00258404
0.00258411
0.00261383
0.00258395
0.00258406
0.00261544
0.00258073
0.00261386
0.00258412
0.00258404
0.00258079
0.00257577
0.00254139
0.00257419
0.00257413
0.00254459
0.00254472
0.00257566
0.00254146
0.00257419
0.00257427
0.00254459
0.00254457
0.00257409
0.00254473
0.0025447
0.00257577
0.0025413
0.00257409
0.00254459
0.00254469
0.00254143
0.00253638
0.00250219
0.00253482
0.00253477
0.00250536
0.00250538
0.00253641
0.00250206
0.00253483
0.00253478
0.00250536
0.00250543
0.00253491
0.00250539
0.00250535
0.0025363
0.00250228
0.00253493
0.00250543
0.00250534
0.00250211
0.00249719
0.00246342
0.00249565
0.00249575
0.00246646
0.0024664
0.00249739
0.00246344
0.00249564
0.00249564
0.00246646
0.00246644
0.00249554
0.00246642
0.0024665
0.0024973
0.00246331
0.00249555
0.00246643
0.00246648
0.00246352
0.00245848
0.00242455
0.00245675
0.0024567
0.00242767
0.00242761
0.00245841
0.00242448
0.00245675
0.00245674
0.00242767
0.00242767
0.00245675
0.00242763
0.00242763
0.00245841
0.00242472
0.00245675
0.00242767
0.00242765
0.00242453
0.00241965
0.00238629
0.00241804
0.00241797
0.00238918
0.0023892
0.00241957
0.00238646
0.00241803
0.00241802
0.00238918
0.00238912
0.00241802
0.00238921
0.00238915
0.00241977
0.00238614
0.00241802
0.00238912
0.00238914
0.00238627
0.00238135
0.00234797
0.00237957
0.00237954
0.00235084
0.00235082
0.00238155
0.00234788
0.00237957
0.00237955
0.00235085
0.00235085
0.00237955
0.00235083
0.00235084
0.00238126
0.00234812
0.00237956
0.00235086
0.00235082
0.0023481
0.00234311
0.00230999
0.00234131
0.0023413
0.00231268
0.00231268
0.00234296
0.00231007
0.00234132
0.00234127
0.00231268
0.00231269
0.00234127
0.00231267
0.00231268
0.00234318
0.00230993
0.00234125
0.00231269
0.0023127
0.00230988
0.00230507
0.00227197
0.00230318
0.00230314
0.00227471
0.00227474
0.00230518
0.00227195
0.00230318
0.00230317
0.0022747
0.00227469
0.00230318
0.00227475
0.00227471
0.00230502
0.00227198
0.00230321
0.0022747
0.00227468
0.00227208
0.00226708
0.0022342
0.00226523
0.0022653
0.00223691
0.00223683
0.00226704
0.00223424
0.00226522
0.00226522
0.00223692
0.00223693
0.00226522
0.00223683
0.00223688
0.00226706
0.00223428
0.00226518
0.00223692
0.00223688
0.00223415
0.00222927
0.00219655
0.00222748
0.00222737
0.00219919
0.00219919
0.00222936
0.00219652
0.00222749
0.00222751
0.00219921
0.0021992
0.00222745
0.00219922
0.00219921
0.00222939
0.00219653
0.00222746
0.00219922
0.00219924
0.00219659
0.00219167
0.00215901
0.00218979
0.00218984
0.0021617
0.00216178
0.00219164
0.00215908
0.00218981
0.00218977
0.00216166
0.0021616
0.00218981
0.00216172
0.00216165
0.00219164
0.00215899
0.00218984
0.00216162
0.00216162
0.00215902
0.00215412
0.00212158
0.00215233
0.00215235
0.00212419
0.00212398
0.00215416
0.00212148
0.0021523
0.00215229
0.0021242
0.00212426
0.00215229
0.00212405
0.00212418
0.0021541
0.00212158
0.00215226
0.00212424
0.00212417
0.00212159
0.00211668
0.00208423
0.0021148
0.00211464
0.00208683
0.00208695
0.00211661
0.00208441
0.00211484
0.00211487
0.00208687
0.00208681
0.00211481
0.00208694
0.00208688
0.00211669
0.0020843
0.00211483
0.00208683
0.00208691
0.00208425
0.00207937
0.00204724
0.00207757
0.0020777
0.00204973
0.00204969
0.00207952
0.00204705
0.00207756
0.00207755
0.00204968
0.00204972
0.00207758
0.00204968
0.00204966
0.00207944
0.00204714
0.00207759
0.00204973
0.0020496
0.00204719
0.00204236
0.00201001
0.00204046
0.00204032
0.00201255
0.00201253
0.00204216
0.00201016
0.00204042
0.0020404
0.0020126
0.00201255
0.00204038
0.00201253
0.00201264
0.00204224
0.00201012
0.00204034
0.00201255
0.00201267
0.00201013
0.00200516
0.00197341
0.00200327
0.00200335
0.00197577
0.00197587
0.00200532
0.00197334
0.00200332
0.00200334
0.00197571
0.00197579
0.00200339
0.00197589
0.00197573
0.00200529
0.00197334
0.00200341
0.00197581
0.0019757
0.0019733
0.00196857
0.00193624
0.00196666
0.00196656
0.00193876
0.00193851
0.0019684
0.00193612
0.00196657
0.00196655
0.00193881
0.0019387
0.00196651
0.00193845
0.00193866
0.00196844
0.00193628
0.00196649
0.0019387
0.00193868
0.00193628
0.00193132
0.00189966
0.00192938
0.00192927
0.00190187
0.00190211
0.00193127
0.00189994
0.00192945
0.00192946
0.00190185
0.00190197
0.00192941
0.00190212
0.00190197
0.00193143
0.00189977
0.00192943
0.00190197
0.00190202
0.0018998
0.00189491
0.00186363
0.00189287
0.00189315
0.00186592
0.00186585
0.00189519
0.00186345
0.00189285
0.00189289
0.00186588
0.00186572
0.00189291
0.00186592
0.00186586
0.00189495
0.00186343
0.00189296
0.00186574
0.00186574
0.00186341
0.00185877
0.00182681
0.00185682
0.00185656
0.00182913
0.00182901
0.00185849
0.00182677
0.00185676
0.00185666
0.00182918
0.00182927
0.00185678
0.00182899
0.00182925
0.00185864
0.00182697
0.00185662
0.00182928
0.00182933
0.00182698
0.00182193
0.00179051
0.00181991
0.00182
0.00179261
0.00179273
0.00182199
0.00179056
0.00181997
0.00182009
0.00179256
0.00179271
0.00182001
0.00179272
0.00179246
0.00182212
0.00179054
0.00182014
0.00179271
0.00179238
0.0017903
0.00178573
0.0017546
0.00178363
0.00178351
0.00175674
0.00175626
0.00178567
0.00175422
0.00178359
0.00178362
0.00175677
0.00175637
0.00178336
0.00175612
0.00175646
0.00178567
0.00175424
0.00178329
0.00175635
0.00175669
0.0017545
0.00174974
0.00171826
0.00174766
0.00174748
0.00172037
0.00172128
0.00174955
0.00171915
0.00174773
0.0017474
0.00172039
0.00172081
0.00174759
0.00172161
0.00172098
0.00174951
0.00171876
0.00174783
0.00172088
0.00172071
0.00171865
0.00171356
0.00168303
0.0017115
0.00171223
0.00168527
0.00168442
0.00171427
0.00168236
0.00171147
0.00171196
0.00168509
0.00168497
0.00171208
0.00168416
0.00168496
0.001714
0.00168269
0.00171162
0.00168493
0.00168486
0.00168271
0.00167826
0.00164675
0.00167639
0.00167539
0.00164881
0.00164871
0.00167758
0.00164641
0.00167623
0.00167586
0.00164898
0.0016488
0.0016758
0.0016483
0.00164836
0.00167787
0.00164678
0.00167595
0.00164874
0.00164885
0.00164654
0.00164188
0.0016109
0.00163954
0.00163986
0.00161277
0.00161343
0.00164166
0.00161157
0.00163982
0.00163987
0.00161292
0.00161307
0.00163928
0.00161384
0.00161304
0.00164201
0.0016111
0.00163979
0.00161318
0.00161313
0.00161119
0.00160622
0.00157618
0.00160413
0.00160467
0.00157842
0.00157852
0.00160693
0.00157655
0.00160414
0.00160416
0.00157802
0.00157805
0.0016046
0.00157861
0.00157894
0.00160637
0.00157599
0.0016044
0.00157807
0.00157816
0.00157649
0.0015715
0.00154091
0.00156972
0.00156961
0.00154308
0.00154247
0.00157173
0.00154023
0.00156935
0.00156943
0.00154317
0.00154308
0.00157004
0.00154204
0.00154255
0.00157132
0.00154085
0.00156934
0.00154294
0.00154285
0.00154048
0.00153612
0.00150487
0.00153402
0.00153358
0.00150674
0.0015069
0.00153542
0.00150461
0.00153421
0.00153406
0.00150698
0.00150696
0.00153343
0.00150678
0.00150657
0.00153606
0.001505
0.00153395
0.00150702
0.00150707
0.00150482
0.00150006
0.00146953
0.00149775
0.00149801
0.00147145
0.00147179
0.00149986
0.00146993
0.00149798
0.00149802
0.0014715
0.00147161
0.00149782
0.001472
0.00147175
0.00150019
0.00146963
0.00149814
0.00147163
0.00147166
0.00146979
0.00146485
0.00143468
0.0014628
0.0014631
0.00143684
0.00143678
0.00146528
0.00143484
0.0014628
0.00146289
0.00143663
0.00143646
0.00146311
0.00143692
0.0014369
0.00146494
0.00143441
0.00146287
0.00143644
0.00143648
0.00143461
0.00142994
0.00139928
0.00142809
0.00142793
0.00140149
0.0014011
0.00143004
0.00139898
0.00142785
0.00142765
0.00140144
0.00140141
0.00142805
0.00140097
0.00140117
0.00142967
0.00139932
0.0014276
0.00140154
0.00140137
0.00139917
0.00139455
0.00136435
0.00139255
0.00139235
0.00136626
0.00136633
0.00139423
0.00136419
0.00139262
0.00139274
0.00136646
0.00136659
0.00139237
0.00136631
0.00136632
0.00139464
0.0013645
0.00139266
0.00136644
0.00136652
0.00136434
0.00135965
0.00132961
0.00135759
0.0013577
0.00133153
0.00133176
0.00135955
0.00132978
0.00135777
0.00135786
0.00133158
0.00133161
0.00135769
0.00133172
0.00133164
0.00135979
0.00132962
0.00135778
0.00133157
0.00133161
0.00132966
0.00132492
0.00129433
0.00132283
0.00132307
0.00129666
0.00129663
0.00132513
0.00129442
0.00132282
0.00132283
0.00129642
0.00129631
0.00132289
0.00129659
0.00129643
0.00132489
0.0012942
0.00132282
0.00129639
0.00129629
0.00129429
0.00128957
0.00125937
0.00128782
0.00128766
0.00126145
0.00126118
0.00128962
0.00125925
0.00128762
0.00128749
0.00126149
0.00126143
0.00128761
0.00126133
0.00126166
0.00128944
0.00125948
0.00128753
0.00126159
0.00126177
0.00125969
0.00125471
0.00122517
0.00125281
0.00125262
0.00122707
0.00122721
0.00125462
0.00122527
0.00125291
0.00125287
0.00122715
0.00122722
0.0012531
0.00122727
0.00122711
0.00125485
0.00122518
0.0012532
0.00122716
0.00122699
0.00122498
0.00122052
0.00119
0.00121843
0.00121868
0.00119208
0.00119216
0.00122064
0.00118988
0.00121849
0.00121859
0.00119214
0.00119222
0.00121832
0.00119191
0.00119181
0.00122049
0.00119
0.00121818
0.001192
0.00119188
0.00118975
0.00118521
0.00115516
0.00118325
0.00118319
0.00115728
0.00115708
0.00118509
0.00115516
0.00118329
0.00118334
0.00115721
0.00115717
0.00118308
0.00115718
0.00115747
0.00118525
0.00115521
0.00118322
0.00115738
0.0011575
0.0011555
0.00115057
0.00112151
0.00114881
0.00114868
0.00112359
0.00112357
0.00115062
0.0011216
0.0011487
0.00114861
0.00112339
0.00112316
0.00114905
0.00112362
0.00112339
0.00115057
0.00112119
0.00114899
0.0011232
0.00112322
0.00112129
0.00111686
0.00108624
0.00111497
0.001115
0.00108821
0.00108835
0.00111692
0.0010862
0.00111486
0.00111468
0.00108845
0.00108872
0.00111467
0.00108831
0.00108834
0.00111661
0.00108655
0.00111462
0.00108866
0.00108853
0.00108632
0.00108145
0.00105143
0.00107938
0.00107949
0.00105346
0.00105354
0.00108143
0.00105153
0.00107959
0.00107986
0.00105351
0.00105358
0.00107961
0.00105367
0.00105375
0.00108176
0.00105151
0.00107977
0.00105358
0.00105368
0.00105162
0.00104684
0.00101776
0.00104504
0.00104503
0.00101976
0.00101956
0.0010469
0.00101755
0.00104504
0.00104499
0.00101971
0.00101955
0.00104521
0.00101945
0.00101945
0.00104684
0.00101755
0.0010451
0.00101945
0.00101944
0.00101745
0.00101313
0.000982963
0.00101118
0.00101101
0.000985011
0.000985121
0.00101292
0.000983176
0.00101115
0.00101103
0.000984943
0.000985038
0.00101083
0.000985069
0.000984969
0.00101293
0.000983021
0.00101087
0.000985069
0.000985002
0.000983054
0.000978216
0.000948156
0.000976277
0.000976462
0.000950288
0.00095022
0.000978462
0.000948094
0.00097614
0.000976255
0.000950186
0.000950069
0.000976364
0.000950241
0.00095019
0.000978254
0.000948037
0.00097634
0.000950119
0.000950114
0.000948062
0.000943473
0.000913796
0.000941681
0.000941492
0.000915742
0.000915562
0.000943351
0.000913522
0.000941668
0.000941457
0.000915965
0.000915964
0.000941415
0.000915557
0.000915674
0.000943345
0.000913945
0.000941403
0.000915851
0.000915812
0.000913746
0.000909143
0.000879718
0.000907139
0.000907064
0.000881617
0.000881957
0.00090894
0.000880133
0.000907375
0.000907533
0.000881662
0.000882064
0.000907347
0.000882155
0.000882399
0.000909377
0.000880092
0.000907498
0.000882254
0.000882403
0.000880424
0.00087508
0.000845086
0.000873122
0.000873539
0.000847251
0.000847499
0.000875545
0.000845232
0.000873073
0.000873429
0.000847021
0.000846952
0.000873827
0.000847311
0.000846938
0.000875378
0.000844784
0.000873676
0.000846801
0.000846768
0.000844754
0.000840274
0.000810057
0.000838453
0.000838485
0.000812011
0.00081172
0.000840332
0.000809694
0.000838234
0.000838009
0.000812076
0.00081168
0.000837923
0.000811671
0.000811574
0.00083991
0.000809847
0.000837822
0.00081165
0.000811726
0.000809733
0.000805382
0.000776327
0.000803373
0.000802989
0.000778117
0.000777628
0.000804972
0.000775855
0.000803518
0.000803224
0.000778306
0.000778341
0.000803135
0.000777681
0.000778128
0.000805269
0.000776523
0.000803316
0.000778365
0.000778265
0.000776388
0.000771771
0.000741808
0.000769766
0.000769355
0.000744041
0.000744244
0.000771324
0.000742215
0.000769923
0.000770062
0.000743952
0.00074411
0.000769786
0.000744324
0.000744044
0.000771986
0.000741837
0.000769872
0.000744157
0.000743892
0.000741871
0.000737015
0.000706641
0.000735308
0.000735663
0.000708821
0.000709138
0.000737496
0.000706974
0.000735125
0.000735167
0.000708611
0.000708554
0.00073527
0.00070917
0.000708847
0.000736989
0.00070644
0.000735071
0.000708624
0.000708683
0.000706601
0.000701846
0.00067183
0.000699974
0.000700244
0.000673588
0.000673777
0.000702144
0.000671753
0.000699815
0.000699752
0.000673673
0.00067376
0.000699988
0.000673689
0.000673776
0.000701644
0.000672003
0.000699879
0.000673709
0.000673925
0.000671983
0.000667144
0.000637681
0.000664963
0.000665024
0.000639412
0.000639176
0.000667011
0.000637432
0.000665122
0.000665235
0.000639662
0.000639699
0.000665246
0.000639225
0.000639666
0.000667351
0.000637899
0.000665422
0.000639687
0.000639838
0.000637885
0.000633028
0.000603281
0.000630919
0.000630663
0.00060529
0.00060512
0.000632783
0.000603196
0.000631121
0.000631165
0.000605264
0.000605244
0.000631133
0.000605131
0.00060522
0.00063325
0.000603097
0.000631289
0.000605225
0.000605131
0.000603081
0.000598523
0.000568052
0.000596657
0.000596562
0.00057031
0.000570537
0.000598499
0.000568275
0.000596492
0.000596464
0.000570071
0.000570019
0.000596407
0.000570441
0.000569949
0.000598294
0.000567821
0.000596253
0.000569961
0.00056973
0.00056778
0.000563254
0.000533294
0.000561502
0.000561664
0.000535336
0.000535208
0.000563432
0.00053315
0.000561318
0.000561248
0.000535423
0.000535268
0.000561162
0.000535233
0.000535053
0.000563043
0.000533293
0.000561007
0.000535288
0.00053513
0.000533104
0.00052862
0.000498954
0.000526738
0.000526563
0.000500854
0.000500829
0.000528472
0.000498949
0.000526848
0.000526684
0.000500964
0.000500917
0.000526477
0.000500913
0.000501072
0.000528638
0.000499055
0.000526607
0.000500989
0.000501159
0.000499185
0.000494219
0.000463966
0.000492175
0.000492244
0.000465831
0.000466151
0.000494282
0.000464334
0.000492261
0.000492289
0.000465867
0.000466163
0.000492578
0.000466361
0.000466653
0.000494349
0.000464303
0.000492628
0.000466315
0.000466596
0.000464641
0.000459209
0.000429168
0.000457096
0.000457361
0.000431081
0.000430904
0.000459511
0.000428882
0.000457124
0.00045744
0.000431068
0.000431148
0.000457792
0.000430739
0.000430814
0.000459521
0.000429113
0.000457762
0.000431057
0.000430861
0.000428817
0.00042443
0.000394368
0.000422451
0.000422147
0.000396519
0.000396112
0.000424072
0.000393943
0.00042241
0.000422348
0.000396396
0.000395909
0.000421858
0.000395807
0.000395423
0.000424292
0.00039369
0.00042189
0.000395636
0.000395369
0.000393418
0.000389505
0.000358459
0.000387682
0.000387463
0.000360628
0.000360925
0.000389232
0.000358863
0.000387549
0.000387043
0.000360608
0.000360579
0.000386786
0.000361187
0.000361014
0.000388886
0.000358593
0.00038669
0.000360736
0.000360923
0.000358934
0.000353575
0.00032266
0.000351589
0.000351938
0.000324631
0.000324977
0.000353994
0.000323066
0.000351638
0.0003518
0.000324789
0.000325352
0.000352325
0.000325252
0.000325688
0.000353814
0.000323449
0.000352276
0.000325607
0.0003258
0.000323643
0.00031788
0.000288374
0.000315807
0.000316027
0.000290193
0.000289921
0.000318198
0.000288041
0.000315968
0.000316511
0.000290225
0.000290177
0.000316702
0.000289771
0.000289901
0.000318621
0.000288204
0.000316828
0.000290069
0.000289967
0.000287955
0.000283689
0.000253813
0.000281699
0.000281419
0.000255819
0.000255527
0.000283353
0.000253431
0.000281664
0.000281463
0.000255694
0.000255258
0.000281084
0.00025524
0.000254917
0.000283428
0.000253147
0.000281111
0.000255011
0.000254847
0.000252944
0.00024897
0.000217647
0.000246988
0.000246757
0.000219824
0.000220072
0.000248642
0.000217994
0.000246849
0.00024645
0.000219739
0.000219774
0.000246222
0.000220183
0.000220079
0.000248344
0.000217759
0.000246145
0.000219892
0.000220009
0.000218031
0.000212777
0.000182409
0.000210836
0.000211153
0.000184424
0.000184624
0.000213145
0.000182619
0.000210811
0.000210924
0.000184478
0.000184648
0.000211348
0.00018478
0.000184879
0.000212929
0.000182678
0.000211281
0.000184777
0.000184893
0.000182796
0.000177617
0.000146928
0.000175649
0.000175764
0.000148866
0.000148781
0.000177777
0.000146736
0.000175741
0.000175904
0.000149055
0.000149229
0.000175965
0.000148815
0.000148959
0.000177886
0.00014715
0.000176012
0.000149198
0.000149067
0.000146918
0.000142
0.000111069
0.000139869
0.000139699
0.000113033
0.000113003
0.000141767
0.000111082
0.000140037
0.000140177
0.000112969
0.000112899
0.000139882
0.000112917
0.000112928
0.000142191
0.000110902
0.000139989
0.000112822
0.000112907
0.000110985
0.000106202
7.58809e-05
0.000104206
0.000104251
7.78812e-05
7.79251e-05
0.000106255
7.59273e-05
0.000104088
0.000103966
7.774e-05
7.75528e-05
0.000104114
7.78321e-05
7.7668e-05
0.000106018
7.55777e-05
0.000104043
7.75052e-05
7.75678e-05
7.56853e-05
7.10395e-05
3.99589e-05
6.91004e-05
6.90956e-05
4.20856e-05
4.2055e-05
7.1044e-05
3.99157e-05
6.89854e-05
6.87781e-05
4.21298e-05
4.21409e-05
6.88401e-05
4.20694e-05
4.2012e-05
7.07156e-05
4.00308e-05
6.87605e-05
4.21411e-05
4.20425e-05
3.99351e-05
3.49823e-05
7.86111e-06
3.31959e-05
3.31856e-05
1.09142e-05
1.09675e-05
3.49547e-05
7.93632e-06
3.32539e-05
3.33233e-05
1.09616e-05
1.11201e-05
3.32351e-05
1.10447e-05
1.11967e-05
3.50846e-05
8.0704e-06
3.32841e-05
1.11994e-05
1.12455e-05
8.13971e-06
4.71126e-06
6.5826e-06
6.62419e-06
4.78632e-06
6.67934e-06
6.76348e-06
5.75953e-06
5.88101e-06
5.94171e-06
6.84096e-06
4.89598e-06
6.90713e-06
0.00353069
0.00353334
0.00353197
0.00353225
0.0035595
0.00353323
0.00356265
0.00353363
0.00355927
0.00353323
0.00353344
0.00356277
0.00354434
0.00357534
0.00356574
0.00350332
0.00351686
0.00352079
0.00349546
0.00349368
0.0034991
0.00350326
0.00351664
0.00352074
0.0034954
0.00351922
0.00351919
0.00351915
0.00349278
0.00349287
0.00349281
0.0034928
0.00350305
0.0035144
0.00351983
0.00351059
0.00352222
0.00350016
0.00351081
0.00349386
0.00349893
0.00350295
0.00351971
0.00351459
0.00351041
0.00352182
0.00351069
0.00350005
0.00351591
0.00352031
0.00350766
0.0034999
0.00349978
0.00347578
0.00348995
0.0034898
0.0034738
0.00348732
0.00347282
0.00347569
0.00348988
0.00348983
0.00347357
0.0034838
0.00348373
0.00348372
0.00345529
0.00345539
0.00345534
0.00345533
0.00347352
0.00348855
0.00348227
0.0034729
0.00348699
0.00347406
0.00347282
0.00348709
0.00347282
0.00347349
0.00348228
0.00348852
0.00347279
0.00348695
0.00347278
0.00347404
0.00349016
0.00349016
0.00347124
0.00347443
0.00347438
0.00343327
0.00344794
0.00344886
0.00343194
0.00344681
0.00343105
0.00343314
0.00344779
0.00344889
0.00343188
0.00344529
0.00344525
0.00344525
0.00341266
0.00341276
0.00341269
0.00341272
0.00343196
0.00344752
0.00344339
0.00343293
0.00344652
0.00343247
0.0034329
0.00344672
0.003431
0.00343193
0.00344338
0.00344751
0.00343285
0.00344649
0.00343289
0.00343244
0.0034483
0.00344826
0.00343025
0.00343227
0.00343225
0.00338695
0.00340333
0.00340477
0.00338545
0.00340264
0.00338499
0.00338682
0.00340351
0.00340479
0.00338535
0.0034012
0.00340117
0.00340118
0.00336527
0.00336537
0.00336532
0.00336535
0.00338611
0.00340319
0.00339951
0.00338779
0.0034026
0.00338627
0.00338781
0.00340263
0.00338489
0.0033861
0.0033995
0.00340321
0.00338777
0.00340258
0.00338778
0.0033862
0.00340345
0.00340341
0.00338451
0.00338567
0.0033857
0.0033381
0.00335515
0.00335654
0.00333687
0.00335476
0.00333657
0.00333802
0.00335486
0.00335648
0.00333704
0.00335319
0.00335315
0.00335315
0.00331642
0.00331653
0.00331648
0.0033165
0.00333765
0.00335521
0.00335175
0.00333948
0.00335485
0.0033376
0.00333956
0.0033547
0.00333652
0.00333766
0.00335173
0.00335519
0.00333953
0.00335482
0.00333958
0.00333754
0.00335522
0.00335525
0.00333615
0.00333702
0.003337
0.00328896
0.00330631
0.00330733
0.0032881
0.00330604
0.00328787
0.00328897
0.00330563
0.00330719
0.00328836
0.00330433
0.0033043
0.0033043
0.00326801
0.00326806
0.00326805
0.00326804
0.00328893
0.00330632
0.00330306