/*--------------------------------*- C++ -*----------------------------------*\
| =========                 |                                                 |
| \\      /  F ield         | OpenFOAM: The Open Source CFD Toolbox           |
|  \\    /   O peration     | Version:  v2006                                 |
|   \\  /    A nd           | Website:  www.openfoam.com                      |
|    \\/     M anipulation  |                                                 |
\*---------------------------------------------------------------------------*/
FoamFile
{
    version     2.0;
    format      ascii;
    class       volScalarField;
    location    "750";
    object      k;
}
// * * * * * * * * * * * * * * * * * * * * * * * * * * * * * * * * * * * * * //

dimensions      [0 2 -2 0 0 0 0];


internalField   nonuniform List<scalar> 
14212
(
6.7802e-05
7.28521e-05
7.06728e-05
7.28543e-05
4.85955e-05
6.39551e-05
7.06726e-05
7.06742e-05
5.12569e-05
6.9291e-05
6.92969e-05
6.78041e-05
7.28513e-05
5.92782e-05
4.85487e-05
6.39169e-05
4.3114e-05
5.9281e-05
4.85777e-05
6.39358e-05
4.31218e-05
5.12981e-05
6.93093e-05
6.9315e-05
7.06719e-05
4.85397e-05
6.39176e-05
7.28578e-05
7.12925e-05
6.77726e-05
7.10597e-05
7.08944e-05
7.10449e-05
7.08685e-05
7.13073e-05
7.11744e-05
7.9199e-05
7.28358e-05
7.91815e-05
7.11904e-05
7.06591e-05
7.28378e-05
7.06575e-05
7.06591e-05
9.43171e-05
7.30191e-05
7.30208e-05
7.30042e-05
7.30062e-05
9.43212e-05
7.33461e-05
7.26965e-05
6.92734e-05
6.41471e-05
7.26805e-05
7.33664e-05
6.41117e-05
7.33525e-05
6.9279e-05
7.27005e-05
6.41615e-05
7.26839e-05
7.33787e-05
6.41264e-05
7.12923e-05
6.77746e-05
7.10595e-05
7.08993e-05
7.10448e-05
7.08732e-05
7.13067e-05
7.11753e-05
7.91962e-05
7.28366e-05
7.91796e-05
7.11903e-05
7.30163e-05
7.30196e-05
9.4342e-05
7.33978e-05
7.27026e-05
6.9297e-05
6.41876e-05
7.26891e-05
6.41522e-05
7.34193e-05
7.2698e-05
6.41954e-05
7.33889e-05
3.43538e-05
2.65987e-05
3.43769e-05
2.66018e-05
5.89965e-05
6.47181e-05
5.12501e-05
5.78026e-05
5.78099e-05
6.47526e-05
5.77856e-05
5.77923e-05
5.43278e-05
5.92318e-05
6.10813e-05
5.29199e-05
6.1039e-05
5.29066e-05
5.43314e-05
5.56544e-05
6.31363e-05
6.38879e-05
5.89489e-05
6.31014e-05
5.89315e-05
5.56648e-05
5.43344e-05
5.92339e-05
6.1089e-05
5.29228e-05
6.1045e-05
5.29089e-05
5.43394e-05
5.56702e-05
6.3149e-05
6.39068e-05
5.89763e-05
6.31124e-05
5.56822e-05
5.89577e-05
6.47606e-05
5.12877e-05
5.78442e-05
5.78506e-05
5.78313e-05
5.78259e-05
6.47941e-05
6.38893e-05
5.89502e-05
5.89322e-05
9.43399e-05
7.30038e-05
7.30075e-05
7.3368e-05
6.93028e-05
6.41573e-05
7.26856e-05
7.06592e-05
7.28443e-05
6.39245e-05
5.8976e-05
5.68736e-05
3.71393e-05
6.65075e-05
5.6873e-05
4.37359e-05
3.71415e-05
6.2418e-05
6.65066e-05
7.21118e-05
4.37322e-05
6.24204e-05
7.21136e-05
4.75064e-05
6.83013e-05
6.83088e-05
7.00749e-05
7.00776e-05
7.06917e-05
6.97533e-05
7.04107e-05
6.65379e-05
7.06791e-05
6.97802e-05
7.04232e-05
7.06912e-05
7.04104e-05
6.97511e-05
6.65369e-05
7.06788e-05
7.04229e-05
6.9778e-05
7.06498e-05
7.8371e-05
7.21266e-05
7.06363e-05
7.8389e-05
7.21284e-05
9.34971e-05
7.24967e-05
7.24915e-05
9.34857e-05
7.25094e-05
7.25041e-05
7.20771e-05
7.19564e-05
6.22545e-05
6.83233e-05
7.20475e-05
6.22989e-05
7.19719e-05
7.21208e-05
7.19651e-05
6.22648e-05
6.83311e-05
7.20902e-05
6.23087e-05
7.19807e-05
7.00881e-05
7.00908e-05
2.80121e-05
5.09293e-05
5.88818e-05
4.92709e-05
5.69289e-05
5.09213e-05
5.89324e-05
4.92904e-05
5.09289e-05
4.92708e-05
5.88801e-05
5.69283e-05
5.09208e-05
4.92903e-05
5.89309e-05
5.26976e-05
6.12771e-05
5.64464e-05
6.24527e-05
5.26821e-05
6.1319e-05
5.64706e-05
5.64488e-05
6.24552e-05
5.6473e-05
6.27669e-05
4.7517e-05
5.49523e-05
5.49559e-05
6.27218e-05
5.49765e-05
5.498e-05
7.06499e-05
7.83842e-05
7.06357e-05
7.8402e-05
5.26988e-05
6.12814e-05
5.26833e-05
6.13232e-05
7.92246e-05
7.1191e-05
6.31814e-05
5.57107e-05
6.77122e-05
5.91447e-05
5.10823e-05
4.28234e-05
4.83293e-05
6.77245e-05
6.77334e-05
5.10978e-05
7.06527e-05
3.42055e-05
4.84597e-05
4.29648e-05
5.12227e-05
4.27216e-05
4.27127e-05
5.10855e-05
4.83257e-05
4.28187e-05
7.28292e-05
6.92489e-05
4.84382e-05
4.29748e-05
5.11767e-05
6.38472e-05
6.77227e-05
5.91625e-05
4.29918e-05
7.28365e-05
5.11601e-05
4.84882e-05
6.77403e-05
6.7751e-05
7.06555e-05
2.61393e-05
2.61322e-05
2.62454e-05
2.62737e-05
7.28057e-05
6.77169e-05
4.82403e-05
6.38344e-05
5.91475e-05
4.83326e-05
4.28421e-05
4.27283e-05
7.28014e-05
4.8323e-05
4.28374e-05
6.38292e-05
4.82342e-05
4.27272e-05
7.06354e-05
6.92356e-05
6.9239e-05
7.06351e-05
4.83215e-05
5.91479e-05
6.38352e-05
4.8227e-05
4.27028e-05
4.28215e-05
5.91523e-05
6.38915e-05
4.81864e-05
4.26843e-05
6.37606e-05
7.28067e-05
7.28283e-05
7.27767e-05
6.93166e-05
6.93209e-05
5.09654e-05
6.92035e-05
6.92104e-05
7.06152e-05
7.06549e-05
7.06174e-05
6.76685e-05
7.28114e-05
6.773e-05
7.06413e-05
7.28134e-05
6.77273e-05
2.64316e-05
2.64186e-05
2.64241e-05
4.29803e-05
5.93328e-05
6.38694e-05
5.91843e-05
4.31517e-05
7.06399e-05
4.84337e-05
5.91728e-05
6.38499e-05
6.93405e-05
6.93445e-05
5.13868e-05
6.93756e-05
6.93807e-05
7.06332e-05
7.05987e-05
7.0635e-05
5.10256e-05
6.92395e-05
5.1087e-05
6.92344e-05
6.91929e-05
6.76663e-05
5.90743e-05
5.90712e-05
6.76719e-05
7.28036e-05
7.27652e-05
6.77179e-05
6.76701e-05
7.28059e-05
7.2765e-05
6.77185e-05
4.82394e-05
4.83344e-05
4.28407e-05
5.90829e-05
6.38317e-05
6.37827e-05
5.91478e-05
4.28348e-05
4.83284e-05
4.82209e-05
5.90801e-05
6.38414e-05
6.37757e-05
5.91473e-05
7.06374e-05
7.0602e-05
5.10103e-05
6.92529e-05
6.92606e-05
6.91938e-05
6.91913e-05
7.06387e-05
7.06034e-05
4.28196e-05
4.82114e-05
4.2684e-05
5.90625e-05
6.38507e-05
6.37738e-05
5.9156e-05
6.76612e-05
7.28139e-05
7.27699e-05
6.77375e-05
4.83322e-05
6.38935e-05
4.26708e-05
4.81835e-05
6.37556e-05
5.90564e-05
5.91583e-05
7.27761e-05
6.76574e-05
6.77415e-05
7.06378e-05
7.06394e-05
5.11626e-05
6.92447e-05
7.28136e-05
6.7731e-05
4.29733e-05
6.3845e-05
5.91671e-05
4.84528e-05
6.38578e-05
5.91674e-05
6.92676e-05
6.92745e-05
7.06425e-05
5.91653e-05
4.84323e-05
4.29627e-05
7.28092e-05
4.84264e-05
4.29591e-05
6.38421e-05
6.78491e-05
7.28217e-05
6.77563e-05
4.84971e-05
6.39258e-05
5.93444e-05
4.86569e-05
5.91888e-05
4.3173e-05
6.40167e-05
6.78579e-05
6.77616e-05
7.2864e-05
6.92452e-05
6.92493e-05
7.06395e-05
4.29814e-05
5.91798e-05
6.39215e-05
4.86434e-05
6.40122e-05
7.28145e-05
7.28358e-05
7.28652e-05
7.06763e-05
7.06578e-05
7.06792e-05
7.12477e-05
7.10143e-05
7.0811e-05
6.76913e-05
7.09996e-05
7.07914e-05
7.12624e-05
7.12505e-05
7.08224e-05
7.10192e-05
6.76926e-05
7.07956e-05
7.10034e-05
7.1266e-05
7.1257e-05
7.0847e-05
7.10219e-05
6.76972e-05
7.08075e-05
7.10056e-05
7.12735e-05
7.06383e-05
7.115e-05
7.28092e-05
7.91837e-05
7.91427e-05
7.11674e-05
7.33435e-05
6.40711e-05
7.266e-05
6.92697e-05
7.33067e-05
7.26767e-05
6.41054e-05
7.12833e-05
7.10209e-05
7.082e-05
6.77484e-05
7.12683e-05
7.10359e-05
7.08436e-05
7.11828e-05
7.91995e-05
7.28505e-05
7.11693e-05
7.92263e-05
7.1287e-05
7.0835e-05
7.1026e-05
6.77762e-05
7.1272e-05
7.08645e-05
7.10412e-05
7.12943e-05
7.08644e-05
7.10287e-05
6.779e-05
7.12797e-05
7.09029e-05
7.10439e-05
7.06661e-05
7.11376e-05
7.27896e-05
7.91502e-05
7.9133e-05
7.11538e-05
7.12501e-05
7.08227e-05
7.10154e-05
6.76956e-05
7.08022e-05
7.10007e-05
7.12649e-05
7.11347e-05
7.91257e-05
7.27853e-05
7.91099e-05
7.11508e-05
7.06201e-05
7.3303e-05
6.40551e-05
7.26556e-05
6.9217e-05
6.40271e-05
7.26392e-05
7.33255e-05
9.42764e-05
7.2983e-05
7.29896e-05
7.29687e-05
7.29754e-05
9.42845e-05
7.32556e-05
6.40527e-05
7.26485e-05
6.92178e-05
7.26318e-05
6.40219e-05
7.32795e-05
7.06199e-05
7.11359e-05
7.91471e-05
7.27897e-05
7.91277e-05
7.11527e-05
7.11494e-05
7.91786e-05
7.28083e-05
7.91419e-05
7.11666e-05
7.1146e-05
7.27985e-05
7.90933e-05
7.11273e-05
7.91254e-05
7.333e-05
6.41243e-05
7.26873e-05
6.92805e-05
7.26687e-05
7.33799e-05
6.4056e-05
9.43726e-05
7.30108e-05
7.30074e-05
7.29982e-05
7.29948e-05
9.43989e-05
7.33665e-05
6.41309e-05
7.26949e-05
6.92852e-05
6.40625e-05
7.26759e-05
7.34186e-05
7.32928e-05
6.92475e-05
6.39533e-05
7.26338e-05
7.26593e-05
6.40132e-05
7.32357e-05
9.43326e-05
7.29784e-05
7.29748e-05
7.29957e-05
7.29921e-05
9.42942e-05
7.33281e-05
6.92531e-05
6.39661e-05
7.26407e-05
6.40218e-05
7.26662e-05
7.32689e-05
7.06335e-05
7.06403e-05
7.06355e-05
7.12123e-05
7.09747e-05
7.07762e-05
6.76625e-05
7.09626e-05
7.07706e-05
7.12245e-05
7.11719e-05
7.91545e-05
7.28281e-05
7.11554e-05
7.91738e-05
7.12864e-05
6.77596e-05
7.10229e-05
7.0831e-05
7.12711e-05
7.10382e-05
7.08577e-05
7.06556e-05
7.11719e-05
7.91577e-05
7.283e-05
7.11561e-05
7.91762e-05
7.12862e-05
7.08317e-05
7.10221e-05
6.77531e-05
7.12711e-05
7.08556e-05
7.10372e-05
7.06552e-05
7.34442e-05
6.41652e-05
7.26928e-05
6.93611e-05
7.34109e-05
6.42214e-05
7.2704e-05
9.44314e-05
7.3011e-05
7.30077e-05
9.44221e-05
7.302e-05
7.30164e-05
7.34852e-05
6.41703e-05
7.27008e-05
6.93653e-05
7.34503e-05
6.42265e-05
7.27126e-05
9.44363e-05
7.30272e-05
7.30231e-05
7.30188e-05
7.30155e-05
9.44351e-05
7.34596e-05
6.93705e-05
7.2712e-05
6.42837e-05
6.42488e-05
7.27062e-05
7.34717e-05
7.3501e-05
6.93751e-05
7.27217e-05
6.42882e-05
6.42529e-05
7.27153e-05
7.3514e-05
7.06179e-05
7.06134e-05
7.06198e-05
7.32771e-05
6.92204e-05
6.40559e-05
7.26529e-05
6.40285e-05
7.26367e-05
7.32976e-05
7.32791e-05
6.40487e-05
6.92148e-05
7.26489e-05
7.2632e-05
6.40225e-05
7.33021e-05
7.32693e-05
6.39956e-05
7.26093e-05
6.92062e-05
7.32536e-05
7.26247e-05
6.40114e-05
9.4269e-05
7.2985e-05
7.29848e-05
7.29711e-05
7.29701e-05
9.42793e-05
7.12119e-05
7.09746e-05
7.07693e-05
6.766e-05
7.09624e-05
7.07631e-05
7.12244e-05
7.12437e-05
7.09805e-05
7.07784e-05
6.76859e-05
7.12298e-05
7.09944e-05
7.07912e-05
7.11364e-05
7.27872e-05
7.91465e-05
7.1153e-05
7.91284e-05
7.1134e-05
7.91099e-05
7.27799e-05
7.11181e-05
7.91218e-05
7.12497e-05
6.76943e-05
7.1016e-05
7.08207e-05
7.12648e-05
7.1001e-05
7.07985e-05
7.1244e-05
7.09805e-05
7.07728e-05
6.76849e-05
7.12298e-05
7.09945e-05
7.07884e-05
7.11387e-05
7.2789e-05
7.91416e-05
7.912e-05
7.11549e-05
7.1136e-05
7.90952e-05
7.27811e-05
7.112e-05
7.91114e-05
7.12501e-05
6.76938e-05
7.10161e-05
7.08221e-05
7.1001e-05
7.07971e-05
7.12652e-05
7.0622e-05
7.06176e-05
9.42735e-05
7.29568e-05
7.29607e-05
7.29711e-05
7.29756e-05
9.42587e-05
7.33076e-05
6.4071e-05
6.92298e-05
7.26609e-05
6.40344e-05
7.26435e-05
7.33402e-05
7.32795e-05
6.40691e-05
6.92343e-05
7.26589e-05
7.26417e-05
6.40271e-05
7.33116e-05
7.32927e-05
6.39954e-05
7.26185e-05
6.92143e-05
6.40179e-05
7.26357e-05
7.32692e-05
7.32655e-05
6.3981e-05
7.26159e-05
6.92183e-05
7.26339e-05
6.40083e-05
7.32433e-05
9.42945e-05
7.29874e-05
7.29917e-05
7.29738e-05
7.29783e-05
9.43088e-05
7.06239e-05
7.06193e-05
7.12483e-05
7.07697e-05
7.0984e-05
6.76848e-05
7.0792e-05
7.09998e-05
7.12327e-05
7.11413e-05
7.27959e-05
7.91668e-05
7.91403e-05
7.11584e-05
7.11389e-05
7.91075e-05
7.27875e-05
7.91285e-05
7.11215e-05
7.12548e-05
6.76999e-05
7.08395e-05
7.10233e-05
7.08054e-05
7.1007e-05
7.12709e-05
7.11463e-05
7.27988e-05
7.90891e-05
7.91239e-05
7.11269e-05
7.12517e-05
7.07601e-05
7.09844e-05
6.76838e-05
7.10006e-05
7.0791e-05
7.12346e-05
7.12588e-05
7.0853e-05
6.77006e-05
7.10246e-05
7.1008e-05
7.08092e-05
7.12755e-05
7.0653e-05
7.06546e-05
7.33433e-05
6.40647e-05
7.26565e-05
6.92646e-05
7.33159e-05
7.26735e-05
6.40958e-05
9.43083e-05
7.29879e-05
7.29878e-05
9.4293e-05
7.30008e-05
7.30024e-05
7.11731e-05
7.91509e-05
7.28296e-05
7.11574e-05
7.9172e-05
7.12864e-05
6.77614e-05
7.10229e-05
7.08335e-05
7.10382e-05
7.12714e-05
7.08622e-05
7.33863e-05
6.40917e-05
7.26678e-05
6.92869e-05
7.26832e-05
7.33558e-05
6.41333e-05
7.33571e-05
6.40916e-05
7.26656e-05
6.92942e-05
6.41375e-05
7.33265e-05
7.26802e-05
9.43323e-05
7.29895e-05
7.29937e-05
7.3002e-05
9.4325e-05
7.30059e-05
7.06558e-05
7.11699e-05
7.9133e-05
7.28257e-05
7.11534e-05
7.91507e-05
7.1297e-05
6.78148e-05
7.09322e-05
7.10644e-05
7.09045e-05
7.10513e-05
7.131e-05
7.11757e-05
7.91787e-05
7.28378e-05
7.92025e-05
7.11602e-05
7.12918e-05
6.77982e-05
7.08554e-05
7.10302e-05
7.08914e-05
7.1277e-05
7.10454e-05
7.11768e-05
7.92104e-05
7.13007e-05
6.7823e-05
7.10651e-05
7.09572e-05
7.10524e-05
7.09287e-05
7.13123e-05
7.1296e-05
7.08724e-05
6.7806e-05
7.10315e-05
7.12816e-05
7.10466e-05
7.09148e-05
7.11832e-05
7.28549e-05
7.92431e-05
7.92328e-05
7.11945e-05
7.33631e-05
6.40712e-05
7.2663e-05
6.92651e-05
7.33372e-05
7.26796e-05
6.41054e-05
9.43099e-05
7.29862e-05
7.29925e-05
9.43019e-05
7.30008e-05
7.30068e-05
7.33183e-05
6.40701e-05
7.26557e-05
6.92703e-05
7.32916e-05
6.41068e-05
7.26721e-05
7.06544e-05
7.11712e-05
7.91562e-05
7.28312e-05
7.11547e-05
7.91755e-05
7.11826e-05
7.91938e-05
7.28505e-05
7.11686e-05
7.92224e-05
7.11831e-05
7.28553e-05
7.92422e-05
7.92297e-05
7.11947e-05
7.06675e-05
7.06687e-05
7.06702e-05
5.41747e-05
5.27449e-05
6.09571e-05
5.91152e-05
5.27417e-05
6.09291e-05
5.41701e-05
6.4621e-05
5.76665e-05
5.76685e-05
5.10829e-05
5.76544e-05
5.76556e-05
6.46493e-05
6.4663e-05
5.77035e-05
5.77062e-05
5.10746e-05
5.76706e-05
6.47234e-05
5.76674e-05
2.6436e-05
2.64376e-05
1.73037e-05
6.4826e-05
5.78002e-05
5.7802e-05
5.12486e-05
6.47744e-05
5.78379e-05
5.78388e-05
6.46275e-05
5.10801e-05
5.76762e-05
5.76756e-05
5.76586e-05
5.76565e-05
6.46672e-05
6.47362e-05
5.77388e-05
5.77405e-05
5.11887e-05
5.77632e-05
6.46949e-05
5.776e-05
5.55857e-05
6.30499e-05
5.88671e-05
6.38756e-05
5.55778e-05
6.30815e-05
5.88839e-05
5.42394e-05
5.28115e-05
6.09734e-05
5.92003e-05
5.42408e-05
5.28198e-05
6.10088e-05
6.47035e-05
5.77174e-05
5.77213e-05
5.1166e-05
6.46682e-05
5.77385e-05
5.7734e-05
3.39292e-05
3.40643e-05
2.62827e-05
2.62897e-05
2.61445e-05
1.70556e-05
1.71812e-05
2.62757e-05
3.4044e-05
2.62547e-05
3.39038e-05
2.61108e-05
1.70466e-05
1.7168e-05
3.40284e-05
2.62537e-05
2.60945e-05
3.38644e-05
2.6104e-05
1.70394e-05
1.71603e-05
3.40549e-05
2.62921e-05
3.39283e-05
2.6151e-05
2.61334e-05
1.70573e-05
1.71813e-05
5.55164e-05
6.38105e-05
6.30343e-05
5.8825e-05
6.30087e-05
5.88118e-05
5.55199e-05
5.41783e-05
6.09631e-05
5.27469e-05
5.91178e-05
6.09347e-05
5.27436e-05
5.41739e-05
5.55108e-05
6.30262e-05
5.88217e-05
6.38053e-05
6.30009e-05
5.88082e-05
5.55143e-05
5.4169e-05
5.2738e-05
6.09618e-05
5.91075e-05
5.27293e-05
6.09263e-05
5.41666e-05
5.551e-05
5.88243e-05
6.30348e-05
6.38072e-05
5.88085e-05
6.30042e-05
5.55163e-05
5.41611e-05
5.27372e-05
6.0976e-05
5.91068e-05
5.27255e-05
6.09261e-05
5.41659e-05
5.55084e-05
5.88582e-05
6.30647e-05
6.38359e-05
6.30098e-05
5.88242e-05
5.5529e-05
5.54355e-05
6.38051e-05
5.87322e-05
6.29467e-05
5.54268e-05
6.29837e-05
5.87566e-05
6.46128e-05
5.09733e-05
5.75598e-05
5.75653e-05
5.75903e-05
5.75858e-05
6.45573e-05
3.42041e-05
2.64173e-05
2.65993e-05
1.72903e-05
3.42153e-05
2.64202e-05
3.44118e-05
2.66106e-05
1.7285e-05
3.41935e-05
2.64364e-05
1.73018e-05
5.43649e-05
5.92741e-05
6.113e-05
5.29671e-05
6.1078e-05
5.29461e-05
5.43751e-05
5.56142e-05
5.88915e-05
6.30718e-05
6.39084e-05
5.55971e-05
5.89159e-05
6.31181e-05
5.42646e-05
5.28267e-05
5.92439e-05
6.09975e-05
5.42549e-05
6.10513e-05
5.28471e-05
5.56956e-05
6.31408e-05
5.42486e-05
5.28172e-05
6.09832e-05
5.92245e-05
5.42443e-05
5.28332e-05
6.10282e-05
5.55927e-05
5.88718e-05
6.3054e-05
6.38818e-05
5.55808e-05
5.88912e-05
6.30916e-05
6.48617e-05
5.13705e-05
5.79452e-05
5.79449e-05
5.79208e-05
5.79211e-05
6.48945e-05
6.4609e-05
5.7612e-05
5.10212e-05
5.7615e-05
5.76181e-05
6.45932e-05
5.76205e-05
6.4622e-05
5.10882e-05
5.76684e-05
5.76698e-05
5.76573e-05
5.76585e-05
6.46485e-05
5.40757e-05
5.26338e-05
6.08952e-05
5.90598e-05
6.08823e-05
5.2636e-05
5.4067e-05
5.40668e-05
5.26301e-05
6.08866e-05
5.90565e-05
6.08729e-05
5.26323e-05
5.40583e-05
5.41167e-05
5.26866e-05
6.09027e-05
5.91031e-05
5.4124e-05
6.09217e-05
5.26855e-05
5.5518e-05
5.88261e-05
6.38077e-05
6.30338e-05
5.8813e-05
6.30084e-05
5.55213e-05
5.54711e-05
5.87736e-05
6.29806e-05
6.37979e-05
5.87813e-05
5.54727e-05
6.29965e-05
5.41797e-05
5.2747e-05
5.91167e-05
6.0963e-05
6.0934e-05
5.27429e-05
5.41755e-05
5.41092e-05
5.2683e-05
6.0895e-05
5.9101e-05
5.4116e-05
6.09164e-05
5.2682e-05
5.55108e-05
5.88295e-05
6.38103e-05
6.30354e-05
6.30037e-05
5.88112e-05
5.55183e-05
5.54587e-05
5.87604e-05
6.29685e-05
6.37966e-05
5.54589e-05
6.29889e-05
5.87715e-05
5.41745e-05
5.27449e-05
5.91151e-05
6.09627e-05
6.09302e-05
5.27401e-05
5.41713e-05
6.46071e-05
5.10072e-05
5.7602e-05
5.7597e-05
5.76112e-05
5.76072e-05
6.45845e-05
5.40987e-05
5.26616e-05
6.08853e-05
5.90897e-05
6.09111e-05
5.26628e-05
5.41045e-05
5.55112e-05
5.88336e-05
6.38143e-05
6.30482e-05
5.55226e-05
5.88123e-05
6.30092e-05
5.54551e-05
5.87562e-05
6.29669e-05
6.37985e-05
5.87689e-05
6.29908e-05
5.54539e-05
5.41679e-05
5.27403e-05
5.91099e-05
6.0972e-05
5.41686e-05
6.09297e-05
5.27281e-05
5.55094e-05
5.88581e-05
6.38365e-05
6.30698e-05
5.88226e-05
6.3011e-05
5.55322e-05
5.54341e-05
6.38029e-05
5.8727e-05
6.29441e-05
5.87526e-05
6.2983e-05
5.54243e-05
5.40841e-05
5.26537e-05
6.08699e-05
5.9086e-05
5.26562e-05
6.09035e-05
5.40879e-05
5.41605e-05
5.27393e-05
6.09816e-05
5.91082e-05
5.27248e-05
6.09274e-05
5.4168e-05
6.46981e-05
5.77184e-05
5.77185e-05
5.11651e-05
6.46645e-05
5.77312e-05
5.77323e-05
5.55881e-05
5.88684e-05
6.30503e-05
6.3874e-05
6.30831e-05
5.55797e-05
5.88843e-05
5.42468e-05
5.28163e-05
5.92088e-05
6.09803e-05
6.10186e-05
5.42475e-05
5.28267e-05
5.55972e-05
5.88817e-05
6.30545e-05
6.38919e-05
5.55848e-05
6.30929e-05
5.89029e-05
5.42485e-05
5.28158e-05
5.92105e-05
6.09818e-05
5.42465e-05
6.10236e-05
5.28271e-05
5.4243e-05
6.09794e-05
5.28138e-05
5.92031e-05
5.42446e-05
6.1015e-05
5.28219e-05
5.55809e-05
6.30421e-05
5.88643e-05
6.38703e-05
5.55726e-05
6.30735e-05
5.88815e-05
5.56542e-05
5.89427e-05
6.31024e-05
6.39705e-05
5.89785e-05
5.56283e-05
6.31641e-05
5.43947e-05
5.92837e-05
5.29788e-05
6.1163e-05
5.29567e-05
6.11069e-05
5.44071e-05
5.42845e-05
5.28308e-05
6.10128e-05
5.92522e-05
5.28536e-05
5.42685e-05
6.10773e-05
5.575e-05
6.39913e-05
6.3233e-05
5.90726e-05
5.90497e-05
6.31897e-05
5.57678e-05
5.42736e-05
5.28228e-05
6.10046e-05
5.92366e-05
5.42609e-05
5.28419e-05
6.10634e-05
5.56448e-05
5.89396e-05
6.30948e-05
6.39658e-05
5.56211e-05
5.89737e-05
6.31525e-05
5.57375e-05
6.39856e-05
6.32204e-05
5.90662e-05
5.90439e-05
6.31776e-05
5.57545e-05
2.84114e-05
4.40603e-05
4.4071e-05
4.77633e-05
2.91796e-05
4.47287e-05
4.47185e-05
4.82829e-05
2.99788e-05
4.53333e-05
4.5343e-05
4.87515e-05
3.07433e-05
4.59506e-05
4.59567e-05
4.92586e-05
3.14886e-05
4.65129e-05
4.65144e-05
4.96549e-05
3.21838e-05
4.70104e-05
4.70021e-05
5.00835e-05
3.35163e-05
4.76181e-05
4.76284e-05
5.05704e-05
5.08578e-05
4.38976e-05
4.7643e-05
4.38993e-05
4.39e-05
4.38969e-05
4.76461e-05
6.83755e-05
4.81488e-05
4.4072e-05
4.40609e-05
4.45467e-05
4.45528e-05
4.77611e-05
4.81583e-05
6.25263e-05
6.65901e-05
5.7037e-05
4.45423e-05
4.45492e-05
4.40609e-05
4.45591e-05
4.45654e-05
6.83717e-05
4.81555e-05
4.40593e-05
4.45559e-05
4.45613e-05
4.81639e-05
4.82631e-05
4.86608e-05
4.47096e-05
4.47205e-05
4.51965e-05
4.51874e-05
4.82776e-05
4.86548e-05
4.47039e-05
4.47114e-05
4.51961e-05
4.51919e-05
4.47344e-05
4.51884e-05
4.51792e-05
4.82704e-05
4.8656e-05
4.47276e-05
4.51887e-05
4.51755e-05
4.8647e-05
4.87735e-05
4.91308e-05
4.53487e-05
4.5334e-05
4.5798e-05
4.57908e-05
4.87602e-05
4.91253e-05
4.53489e-05
4.53461e-05
4.5797e-05
4.58014e-05
4.53247e-05
4.57965e-05
4.5814e-05
4.87676e-05
4.9137e-05
4.53231e-05
4.5808e-05
4.58145e-05
4.91443e-05
4.9238e-05
4.95805e-05
4.59515e-05
4.59463e-05
4.63783e-05
4.63767e-05
4.92374e-05
4.95822e-05
4.59483e-05
4.59504e-05
4.63738e-05
4.63783e-05
4.59692e-05
4.6378e-05
4.63624e-05
4.92447e-05
4.95807e-05
4.59675e-05
4.63807e-05
4.63595e-05
4.95656e-05
4.9676e-05
4.99709e-05
4.65113e-05
4.65104e-05
4.68895e-05
4.6887e-05
4.96778e-05
4.99754e-05
4.65061e-05
4.65109e-05
4.68828e-05
4.68782e-05
4.64966e-05
4.6891e-05
4.68939e-05
4.96762e-05
4.99671e-05
4.6492e-05
4.68775e-05
4.68872e-05
4.99826e-05
5.00672e-05
5.04418e-05
4.7012e-05
4.70088e-05
4.74507e-05
4.744e-05
5.00694e-05
5.04336e-05
4.70101e-05
4.70052e-05
4.74512e-05
4.74552e-05
4.70168e-05
4.7449e-05
4.74715e-05
5.00611e-05
5.04463e-05
4.701e-05
4.74613e-05
4.74724e-05
5.04573e-05
5.05552e-05
5.08531e-05
4.7613e-05
4.76065e-05
4.80067e-05
5.53433e-05
5.05495e-05
4.76152e-05
4.76177e-05
4.79942e-05
4.80065e-05
4.76439e-05
4.79974e-05
5.90087e-05
6.76389e-05
5.05635e-05
5.08568e-05
4.7641e-05
4.80092e-05
4.796e-05
5.08084e-05
7.0561e-05
7.05656e-05
4.80664e-05
5.90138e-05
6.7637e-05
7.21519e-05
6.25107e-05
4.39061e-05
7.01059e-05
6.83617e-05
4.7649e-05
6.83629e-05
7.01053e-05
2.82079e-05
2.82104e-05
6.66647e-05
7.21571e-05
6.65943e-05
7.21929e-05
7.01085e-05
7.01394e-05
7.21585e-05
6.65931e-05
6.66627e-05
7.21946e-05
2.8411e-05
2.84033e-05
2.84035e-05
2.89875e-05
2.8989e-05
2.89933e-05
2.89978e-05
5.71729e-05
6.25211e-05
3.75393e-05
4.42224e-05
5.70381e-05
6.26079e-05
3.77349e-05
7.01091e-05
7.01392e-05
6.25259e-05
5.71725e-05
3.75471e-05
4.42317e-05
5.70384e-05
3.77445e-05
6.26087e-05
6.83663e-05
6.83743e-05
4.79011e-05
6.84244e-05
6.84321e-05
6.68375e-05
7.22447e-05
6.67626e-05
7.22828e-05
7.01766e-05
7.02064e-05
6.68365e-05
7.22469e-05
6.67593e-05
7.22856e-05
2.91931e-05
2.91906e-05
2.92042e-05
2.97847e-05
2.97851e-05
2.97821e-05
2.97793e-05
5.75029e-05
6.27319e-05
3.83512e-05
4.48915e-05
5.7367e-05
6.28165e-05
3.85533e-05
7.01771e-05
7.0208e-05
5.74936e-05
3.83455e-05
6.27242e-05
4.4878e-05
5.73604e-05
3.8542e-05
6.28092e-05
6.85063e-05
6.85125e-05
4.84193e-05
6.85552e-05
6.85621e-05
6.6999e-05
7.23324e-05
6.69326e-05
7.23679e-05
7.0243e-05
7.02746e-05
6.70042e-05
7.23355e-05
6.69379e-05
7.23701e-05
2.9969e-05
2.99746e-05
2.99587e-05
3.05465e-05
3.05433e-05
3.05563e-05
3.05591e-05
5.77916e-05
6.29177e-05
3.90979e-05
4.54837e-05
5.76728e-05
6.29948e-05
3.92819e-05
7.02454e-05
7.02754e-05
5.78008e-05
3.9104e-05
6.29247e-05
4.54982e-05
5.76736e-05
3.92937e-05
6.30069e-05
6.86199e-05
6.86298e-05
4.88816e-05
6.86841e-05
6.86939e-05
6.71621e-05
7.24174e-05
6.70934e-05
7.24517e-05
7.03123e-05
7.03407e-05
6.71561e-05
7.24184e-05
6.70905e-05
7.2453e-05
3.07422e-05
3.0749e-05
3.07641e-05
3.13108e-05
3.13073e-05
3.13137e-05
3.12992e-05
5.81038e-05
6.31159e-05
3.98579e-05
4.60968e-05
5.79774e-05
6.31938e-05
4.0036e-05
7.03118e-05
7.03406e-05
5.81003e-05
3.98652e-05
6.31181e-05
4.61021e-05
5.79822e-05
4.00439e-05
6.319e-05
6.87706e-05
6.87772e-05
4.93789e-05
6.88021e-05
6.8808e-05
6.72888e-05
7.24962e-05
6.7237e-05
7.25316e-05
7.03753e-05
7.04069e-05
6.72873e-05
7.24981e-05
6.7234e-05
7.25339e-05
3.14902e-05
3.14978e-05
3.14773e-05
3.20171e-05
3.20225e-05
3.20123e-05
3.20253e-05
5.83471e-05
6.32773e-05
4.05538e-05
4.66457e-05
5.82469e-05
6.33395e-05
4.07245e-05
7.03761e-05
7.04076e-05
5.83409e-05
4.05561e-05
6.32746e-05
4.66402e-05
5.82404e-05
4.07198e-05
6.33346e-05
6.8841e-05
6.88477e-05
4.97619e-05
6.88984e-05
6.89055e-05
6.74544e-05
7.25878e-05
6.73761e-05
7.26301e-05
7.04495e-05
7.04842e-05
6.74596e-05
7.2591e-05
6.73769e-05
7.26333e-05
3.21859e-05
3.21769e-05
3.2186e-05
3.27188e-05
3.27119e-05
3.27254e-05
3.27306e-05
5.86301e-05
6.34399e-05
4.11854e-05
4.71403e-05
5.85078e-05
6.35254e-05
4.13387e-05
7.04514e-05
7.04871e-05
5.86263e-05
4.11761e-05
6.34325e-05
4.71384e-05
5.84999e-05
4.13349e-05
6.35269e-05
6.89897e-05
6.89966e-05
5.02064e-05
6.90536e-05
6.90617e-05
6.76289e-05
7.26798e-05
6.75652e-05
7.2705e-05
7.05197e-05
7.05412e-05
6.76261e-05
7.26807e-05
6.75697e-05
7.27051e-05
3.35059e-05
3.29224e-05
3.29195e-05
3.29316e-05
3.29526e-05
3.35134e-05
1.65957e-05
5.89376e-05
6.36612e-05
4.18998e-05
4.77758e-05
5.88159e-05
6.3732e-05
4.20946e-05
7.0522e-05
7.05431e-05
5.89459e-05
4.1909e-05
6.3674e-05
4.77837e-05
5.88239e-05
4.21024e-05
6.37399e-05
6.91392e-05
6.91488e-05
5.0688e-05
6.9149e-05
6.91574e-05
6.91237e-05
6.91692e-05
5.09016e-05
6.91314e-05
6.91783e-05
7.01045e-05
7.01059e-05
6.83662e-05
4.76517e-05
6.83623e-05
7.21505e-05
6.65818e-05
7.21475e-05
6.65796e-05
4.39092e-05
6.25102e-05
3.73465e-05
5.70133e-05
6.25011e-05
3.73413e-05
5.70104e-05
7.01052e-05
6.83581e-05
6.83572e-05
7.0105e-05
6.25048e-05
3.73428e-05
5.70108e-05
7.21512e-05
6.65805e-05
3.73441e-05
6.25028e-05
5.70101e-05
7.21484e-05
6.65794e-05
4.39056e-05
6.25094e-05
3.73469e-05
5.70108e-05
3.73425e-05
6.25056e-05
5.70097e-05
7.21513e-05
6.65793e-05
7.21501e-05
6.65794e-05
6.83556e-05
6.83637e-05
7.01049e-05
7.01076e-05
7.01078e-05
7.01376e-05
7.01091e-05
7.0139e-05
4.77712e-05
6.83724e-05
4.79053e-05
6.84221e-05
6.84264e-05
7.01722e-05
7.01411e-05
7.01741e-05
7.01426e-05
4.80184e-05
6.84879e-05
6.8491e-05
6.84321e-05
6.84362e-05
6.66636e-05
7.21544e-05
6.65921e-05
7.21917e-05
5.71737e-05
6.2526e-05
3.75487e-05
4.42323e-05
5.70408e-05
6.26054e-05
3.77459e-05
5.71717e-05
6.25176e-05
3.75431e-05
4.42224e-05
5.7038e-05
6.26035e-05
3.77402e-05
6.66771e-05
7.22376e-05
7.21998e-05
6.67495e-05
6.66762e-05
7.2236e-05
7.21987e-05
6.67493e-05
5.72002e-05
4.43887e-05
6.27037e-05
3.81351e-05
6.26207e-05
3.79397e-05
5.73319e-05
5.71985e-05
4.4386e-05
6.27083e-05
3.81356e-05
6.26204e-05
3.79366e-05
5.73315e-05
6.83692e-05
6.8368e-05
4.78985e-05
6.84263e-05
6.84262e-05
7.01085e-05
7.01393e-05
7.01734e-05
7.01427e-05
4.80161e-05
6.84964e-05
6.84973e-05
6.84378e-05
6.84376e-05
7.01732e-05
7.01429e-05
5.70393e-05
4.40749e-05
3.75506e-05
5.71715e-05
4.42312e-05
6.26071e-05
3.77482e-05
7.21546e-05
6.66603e-05
7.21912e-05
6.25202e-05
4.40677e-05
3.75495e-05
5.71697e-05
4.42298e-05
3.77475e-05
6.26044e-05
6.66748e-05
7.22396e-05
7.22015e-05
6.67461e-05
5.71978e-05
4.43862e-05
6.27041e-05
3.81315e-05
6.26222e-05
3.79409e-05
5.73277e-05
6.66726e-05
7.22356e-05
7.21981e-05
6.67441e-05
5.71962e-05
4.43897e-05
3.81342e-05
6.27035e-05
3.79417e-05
6.26202e-05
5.73266e-05
6.66669e-05
7.21581e-05
6.65932e-05
7.21958e-05
5.71719e-05
3.75402e-05
6.25189e-05
4.42245e-05
5.70372e-05
3.77365e-05
6.26053e-05
6.66657e-05
7.21553e-05
6.6592e-05
7.2193e-05
5.72004e-05
4.43881e-05
6.2715e-05
3.81422e-05
6.26249e-05
3.79346e-05
5.73389e-05
6.66803e-05
7.22403e-05
7.22028e-05
6.67574e-05
5.71995e-05
4.43931e-05
3.81457e-05
6.27133e-05
3.79375e-05
6.26226e-05
5.73382e-05
6.66791e-05
7.22372e-05
7.22e-05
6.67564e-05
4.77682e-05
6.83739e-05
4.79053e-05
6.84265e-05
6.84265e-05
7.01086e-05
7.01387e-05
7.01734e-05
7.01427e-05
4.80206e-05
6.84917e-05
6.84913e-05
6.84369e-05
6.84367e-05
7.01728e-05
7.01421e-05
5.71716e-05
3.75417e-05
6.25218e-05
4.42236e-05
5.70372e-05
3.77398e-05
6.26082e-05
7.2158e-05
6.66643e-05
6.65921e-05
7.21943e-05
6.66647e-05
7.2157e-05
6.65921e-05
7.21944e-05
5.71995e-05
4.43936e-05
3.81441e-05
6.2708e-05
3.79433e-05
6.26245e-05
5.73333e-05
5.71988e-05
4.43913e-05
3.8145e-05
6.27141e-05
3.79411e-05
6.26251e-05
5.73338e-05
6.66771e-05
7.22384e-05
7.22012e-05
6.67503e-05
6.66775e-05
7.22384e-05
7.22014e-05
6.67515e-05
7.01083e-05
7.01391e-05
7.01111e-05
7.01418e-05
4.80192e-05
6.84959e-05
6.85022e-05
6.84361e-05
6.84435e-05
7.01726e-05
7.01426e-05
7.01754e-05
7.01453e-05
7.01759e-05
7.02071e-05
7.01778e-05
7.02093e-05
6.84993e-05
6.85025e-05
4.84033e-05
6.85601e-05
6.85645e-05
7.02407e-05
7.02106e-05
7.02428e-05
7.02129e-05
4.85211e-05
6.86273e-05
6.86334e-05
6.85714e-05
6.85762e-05
6.68366e-05
7.22428e-05
6.67624e-05
7.22788e-05
5.74941e-05
6.27204e-05
3.8334e-05
4.48749e-05
5.73591e-05
6.28098e-05
3.85353e-05
5.74936e-05
6.27252e-05
3.83371e-05
4.48837e-05
5.73589e-05
6.28099e-05
3.8538e-05
6.68503e-05
7.23259e-05
7.22897e-05
6.6921e-05
6.68492e-05
7.23209e-05
7.22854e-05
6.69185e-05
5.75213e-05
4.50389e-05
6.2912e-05
3.89253e-05
6.28268e-05
3.87333e-05
5.7652e-05
5.75205e-05
4.50392e-05
6.29005e-05
3.89215e-05
6.28251e-05
3.87333e-05
5.76494e-05
6.85075e-05
6.85082e-05
4.84176e-05
6.85613e-05
6.85612e-05
7.01766e-05
7.0206e-05
7.02397e-05
7.02095e-05
4.85308e-05
6.8618e-05
6.86164e-05
6.85708e-05
6.85702e-05
7.02392e-05
7.02093e-05
5.74905e-05
6.27208e-05
3.83271e-05
4.487e-05
5.73546e-05
6.28112e-05
3.85268e-05
6.68339e-05
7.22427e-05
6.67574e-05
7.22806e-05
5.7489e-05
3.83304e-05
6.272e-05
4.48736e-05
5.73536e-05
3.85289e-05
6.28069e-05
6.68503e-05
7.2329e-05
7.22926e-05
6.69257e-05
5.75186e-05
4.50356e-05
6.29163e-05
3.89258e-05
6.28287e-05
3.87285e-05
5.76551e-05
6.68476e-05
7.23242e-05
7.22875e-05
6.69224e-05
5.75168e-05
4.50348e-05
3.89243e-05
6.29084e-05
3.87288e-05
6.28235e-05
5.76527e-05
6.68435e-05
7.2247e-05
6.67709e-05
7.22825e-05
5.75017e-05
3.83545e-05
6.27301e-05
4.48926e-05
5.73663e-05
3.85549e-05
6.28112e-05
6.68419e-05
7.22438e-05
6.67698e-05
7.22786e-05
5.75285e-05
4.50432e-05
6.29041e-05
3.89204e-05
6.2831e-05
3.87419e-05
5.76496e-05
6.68549e-05
7.23238e-05
7.22888e-05
6.69177e-05
5.75271e-05
4.50388e-05
3.89177e-05
6.28952e-05
3.87413e-05
6.28248e-05
5.76474e-05
6.68531e-05
7.23208e-05
7.2285e-05
6.69157e-05
6.85026e-05
6.8502e-05
4.84072e-05
6.85603e-05
6.85585e-05
7.01763e-05
7.02073e-05
7.02419e-05
7.02116e-05
4.85217e-05
6.86271e-05
6.86253e-05
6.85713e-05
6.85693e-05
7.02417e-05
7.02109e-05
5.74941e-05
3.83483e-05
6.27305e-05
4.48851e-05
5.7361e-05
3.85443e-05
6.28114e-05
6.68359e-05
7.22454e-05
6.67632e-05
7.2283e-05
6.68366e-05
7.22451e-05
6.67644e-05
7.22806e-05
5.75201e-05
4.5035e-05
3.8918e-05
6.2909e-05
3.8733e-05
6.28254e-05
5.76482e-05
5.75201e-05
4.50325e-05
3.8913e-05
6.28991e-05
3.87322e-05
6.28254e-05
5.76462e-05
6.68485e-05
7.2327e-05
7.229e-05
6.69186e-05
6.68487e-05
7.2324e-05
7.22872e-05
6.69175e-05
7.01759e-05
7.0205e-05
7.01787e-05
7.02082e-05
4.85287e-05
6.86094e-05
6.86189e-05
6.85635e-05
6.85707e-05
7.02393e-05
7.02084e-05
7.02427e-05
7.02117e-05
7.02441e-05
7.02739e-05
7.02461e-05
7.02755e-05
6.86371e-05
6.86432e-05
4.89001e-05
6.86871e-05
6.8692e-05
7.03075e-05
7.02774e-05
7.03089e-05
7.02789e-05
4.90067e-05
6.87495e-05
6.87522e-05
6.86968e-05
6.87013e-05
6.69965e-05
7.23277e-05
6.693e-05
7.23649e-05
5.77992e-05
6.29271e-05
3.91113e-05
4.5497e-05
5.76772e-05
6.30036e-05
3.92941e-05
5.77959e-05
6.29147e-05
3.91052e-05
4.54823e-05
5.76744e-05
6.29917e-05
3.92878e-05
6.70108e-05
7.24108e-05
7.23746e-05
6.70809e-05
6.70086e-05
7.24093e-05
7.2372e-05
6.70798e-05
5.78237e-05
4.56476e-05
6.30965e-05