/*--------------------------------*- C++ -*----------------------------------*\
| =========                 |                                                 |
| \\      /  F ield         | OpenFOAM: The Open Source CFD Toolbox           |
|  \\    /   O peration     | Version:  v2006                                 |
|   \\  /    A nd           | Website:  www.openfoam.com                      |
|    \\/     M anipulation  |                                                 |
\*---------------------------------------------------------------------------*/
FoamFile
{
    version     2.0;
    format      ascii;
    class       surfaceScalarField;
    location    "750";
    object      phi;
}
// * * * * * * * * * * * * * * * * * * * * * * * * * * * * * * * * * * * * * //

dimensions      [0 3 -1 0 0 0 0];
oriented        oriented;


internalField   nonuniform List<scalar> 
40846
(
3.80376e-10
-5.77518e-08
-0.000228701
2.47198e-08
1.29641e-09
6.18495e-09
-3.82129e-08
1.76894e-09
-0.000192965
-4.31274e-09
-1.61016e-08
-9.76508e-05
4.18079e-09
-3.5936e-08
-0.000192949
1.22782e-06
-7.17374e-08
2.30696e-07
-1.19395e-06
2.38728e-07
-2.10183e-07
-1.83448e-07
8.81194e-07
-0.00113348
-2.83749e-08
-8.30044e-07
1.24264e-08
3.50354e-08
-1.04606e-07
-0.000244828
-8.4198e-09
-1.63144e-08
-9.76671e-05
-1.43234e-08
-9.76605e-05
-1.27256e-06
-1.18518e-06
-0.000268152
2.18465e-07
2.36055e-07
-2.06005e-08
8.66061e-09
-0.000277381
-4.38871e-08
-1.16708e-08
-0.000277336
5.70135e-09
-2.4658e-08
-5.74882e-08
-0.000228661
2.4633e-08
2.05146e-09
-3.74507e-08
1.84915e-09
-0.000192906
-1.11615e-10
-0.000249698
1.65157e-09
-1.8978e-07
-1.73595e-08
1.51598e-07
-1.21872e-06
2.56825e-07
-1.92237e-07
-8.26823e-07
2.36879e-07
-1.66501e-07
8.90089e-07
-0.00113324
-1.2152e-08
-0.000244825
-1.07974e-07
6.72885e-09
-2.27316e-08
-9.25398e-07
8.02614e-07
-7.45758e-07
9.82768e-07
-0.00115477
-0.000249674
3.86564e-09
-1.89433e-07
-3.69012e-08
1.26575e-06
-7.85187e-08
-8.38206e-07
2.32784e-07
8.88829e-07
-1.86629e-07
-1.22582e-06
2.50777e-07
-2.15143e-07
-0.00113299
1.43721e-08
-1.34823e-08
-0.000244731
-1.04107e-07
-5.32395e-08
-9.2849e-07
8.02244e-07
-7.45958e-07
9.81885e-07
-0.00115467
-0.000268133
2.36806e-07
2.44706e-07
9.07952e-09
-0.000277274
-3.98091e-08
1.39553e-08
6.27724e-09
-3.86176e-08
-0.000277397
-4.1303e-09
-9.76636e-05
-2.21022e-08
-1.27756e-06
2.20287e-07
-2.45604e-07
2.07273e-07
-2.3909e-07
-0.00113332
-0.000244802
-9.5573e-08
-0.000192954
1.89641e-09
-1.15875e-09
3.7265e-09
0.000142869
7.88702e-10
-0.000142872
-4.40107e-09
8.42671e-10
5.45628e-10
1.69568e-08
-0.000228715
-0.000170475
-2.03546e-10
-2.62284e-10
-0.000222722
2.14056e-08
2.73327e-09
-5.96329e-08
-1.47766e-10
-0.00017048
9.77723e-10
1.8414e-08
-0.000222737
5.18671e-10
7.83845e-09
7.89894e-05
-7.89965e-05
-0.000262393
1.68391e-08
-5.26622e-08
-1.4542e-09
-3.45345e-09
1.28055e-08
-0.000192973
1.81323e-08
-0.000262404
3.31041e-09
5.72033e-09
-9.76599e-05
-5.39236e-09
1.73866e-08
-0.000192959
2.85316e-09
-9.76734e-05
4.74559e-09
-9.76707e-05
8.62597e-11
2.42317e-09
0.000213094
-9.74536e-08
-1.38729e-08
-0.000212985
-8.02832e-05
-8.38583e-09
-9.06242e-09
-8.02757e-05
-8.4819e-09
-5.46169e-09
-3.28826e-09
-8.02798e-05
5.48103e-09
-8.02788e-05
-3.76004e-08
-1.97831e-08
5.66267e-09
0.000221366
-3.23114e-08
-2.93279e-08
-0.000221407
-0.000182462
-2.81098e-08
6.55485e-10
-4.84705e-09
2.57989e-09
-0.000277377
4.07149e-08
-0.000250234
-8.77403e-08
-4.77703e-08
-0.000182459
-5.19971e-08
4.88779e-09
2.39411e-09
-0.000250279
-2.86011e-08
0.000221324
5.0662e-08
4.58117e-08
-0.000221405
-6.64198e-09
5.56502e-08
1.12816e-08
-0.000277392
-0.000182424
-1.77848e-08
1.55786e-08
-0.000250147
-4.12738e-08
-2.53993e-08
-0.000182454
-3.94444e-08
2.13173e-07
3.42671e-08
-0.000250288
-7.14821e-10
3.8777e-09
0.000142796
5.47094e-10
-0.0001428
-4.4931e-09
1.7527e-09
1.71903e-08
-0.000228675
-0.00017044
-6.98968e-10
-0.000222625
2.13123e-08
3.16106e-09
-5.65555e-08
-0.000170446
1.66179e-09
1.909e-08
-0.00022264
1.20994e-10
7.92833e-09
7.89438e-05
-7.89512e-05
-0.00026227
1.6882e-08
-4.93663e-08
-1.74295e-09
1.5821e-08
-0.000192917
1.9044e-08
-0.000262282
-8.30486e-09
-5.38918e-09
-8.02743e-05
-8.48267e-09
-5.35591e-09
-8.02847e-05
-1.99122e-08
-1.65988e-08
-0.000213112
-7.2708e-09
9.01399e-09
0.000221287
1.89994e-08
-2.41459e-09
-0.000221306
-0.000182406
-2.48592e-08
-7.36768e-09
1.31468e-08
3.69774e-09
-0.000277278
-0.000250071
3.14122e-08
-3.95595e-08
-8.21771e-08
-3.57701e-09
-0.000182417
1.58196e-08
4.52172e-08
-0.00025011
-4.6845e-08
-2.33692e-08
-0.000182463
2.64756e-08
-3.31168e-08
-8.19627e-08
-0.000250243
-4.87866e-08
-0.00022136
-1.10414e-07
-0.00118694
3.24235e-09
-0.00121935
-2.37429e-08
-0.00118742
-4.11069e-08
-0.00121922
-0.000260031
-1.39461e-08
0.000242458
2.69434e-08
1.4697e-07
-0.000242616
-2.44657e-07
-1.94032e-07
-0.00027021
1.20815e-07
-0.000260599
9.06796e-08
-0.000260944
-0.000261004
-0.000261024
-1.48913e-07
-1.96541e-09
0.000265549
4.19123e-09
-0.000266327
1.02517e-09
1.32122e-07
4.8012e-10
-0.000249815
-0.000249075
-2.06268e-07
5.33288e-09
-0.000265782
1.0325e-09
3.76346e-10
2.19526e-09
-0.000249206
-7.31223e-10
-0.000266397
5.90694e-09
-1.33458e-07
6.97058e-09
0.000263764
-0.00026446
-0.000250177
-1.88066e-07
-2.38649e-09
5.67453e-08
-0.000244864
-0.000260023
-2.08378e-08
-0.000250292
-0.000260123
-1.52252e-07
-2.53755e-09
0.000265485
3.2577e-09
-0.000266262
2.5834e-09
1.32361e-07
-0.000249791
-0.000248991
-2.05316e-07
6.98259e-09
-0.000265771
5.49071e-09
3.58208e-09
-0.000249126
-0.000266388
1.08591e-08
-1.394e-07
0.000263683
-1.07504e-09
-0.000264378
-0.000250079
-1.84253e-07
1.06359e-09
6.75905e-08
-0.00024478
-2.05716e-08
-0.000259923
-0.000250195
-0.000260027
7.73609e-08
7.50135e-08
0.000242446
-1.6895e-08
-0.000242562
-2.00864e-07
-1.98071e-07
-0.000270154
-0.000260935
1.12064e-07
-0.000260585
1.08632e-07
-4.08504e-08
-0.000260878
-0.000261228
8.80129e-08
-0.000244863
-0.000260004
-0.000260125
-1.87936e-09
-1.38907e-09
1.75058e-09
-0.000213113
-8.02798e-05
4.06684e-09
-8.02902e-05
9.13379e-09
-4.35967e-09
-0.00022138
9.70489e-09
-6.58257e-09
-3.16551e-09
6.11453e-09
-0.000277403
1.67209e-08
-0.000250281
-0.00018247
3.84129e-09
-9.76706e-05
1.36853e-08
-0.000192963
-1.09377e-09
6.71479e-08
-0.000244877
1.49366e-09
-0.000260133
1.98396e-09
-2.47688e-08
1.68189e-09
1.73135e-09
1.55604e-07
0.000249613
1.69783e-08
9.61952e-07
-7.7202e-07
-9.50702e-07
7.81289e-07
0.00115767
1.04539e-07
3.53345e-09
1.07723e-10
1.33698e-09
-6.32457e-09
0.000228277
-2.47953e-08
1.55685e-07
1.28749e-09
0.00024959
1.56037e-09
-1.24639e-06
4.02968e-08
8.70347e-07
-2.05377e-07
-8.54244e-07
2.18493e-07
1.26133e-06
-2.2876e-07
2.4166e-07
0.00113517
9.61926e-07
-7.74881e-07
-9.53494e-07
7.81261e-07
0.00115769
1.10414e-07
-1.96707e-08
-9.76301e-09
1.71961e-09
8.16645e-08
0.000244333
-6.33783e-09
1.17276e-09
0.00022824
-4.52427e-09
-2.39427e-09
0.000192309
-1.20377e-06
3.51758e-08
-2.08045e-07
2.18757e-07
1.21909e-06
-2.25859e-07
2.39319e-07
0.00113618
-1.95424e-08
-9.73358e-09
8.38709e-08
0.000244299
-4.51699e-09
0.000192302
0.000268527
-2.09985e-07
-2.12808e-07
-4.0771e-09
-6.96876e-09
1.81416e-08
0.000276655
-4.02143e-09
-6.99258e-09
1.80747e-08
0.000276575
9.73059e-05
9.73006e-05
-0.000142393
-2.04491e-08
1.14084e-10
4.94498e-10
0.000142413
-9.64008e-09
0.000222239
3.08004e-08
1.35887e-09
1.26119e-09
0.000169931
-3.95727e-11
1.79832e-09
1.95577e-08
-8.1796e-11
-4.74655e-08
0.000228303
5.41909e-10
-5.18834e-08
3.23232e-09
0.000222269
-4.55704e-11
0.000169951
-0.000142326
2.03373e-10
-1.84473e-08
2.15918e-10
0.000142344
1.14398e-09
0.0001699
-7.67457e-09
0.000222148
1.2207e-09
2.84829e-08
1.95638e-08
1.87199e-09
-4.74572e-08
0.000228266
5.76394e-10
0.00016992
2.98447e-09
-4.94564e-08
0.000222177
-7.86605e-05
-1.58639e-08
7.86766e-05
-9.70213e-09
0.000261554
2.56328e-08
9.97947e-10
3.46454e-09
-3.08883e-08
0.000192335
-4.46442e-08
0.000261587
3.46774e-09
-3.10142e-08
0.000192329
-0.000212565
7.78241e-09
7.71897e-09
-1.71835e-08
-1.7249e-08
0.000212584
2.36509e-09
8.0041e-05
4.3902e-09
2.59804e-09
8.0026e-05
4.36847e-09
6.01522e-09
5.9049e-09
-4.9899e-09
8.00538e-05
-5.10207e-09
8.00388e-05
-0.000220947
-2.34422e-08
2.36511e-08
-4.79654e-08
0.000220978
9.03833e-09
0.000181943
-1.31852e-08
0.000249941
2.50562e-08
5.32142e-08
-3.64276e-08
4.9863e-09
1.37384e-08
-1.43206e-08
0.000276687
2.49894e-08
-3.10381e-08
-7.76878e-08
0.00024999
0.000181967
-0.000220884
-2.34321e-08
2.37029e-08
-4.57515e-08
0.000220912
9.05704e-09
0.000181888
-1.31722e-08
0.000249828
2.75693e-08
5.55812e-08
-3.63848e-08
5.01556e-09
1.37699e-08
-1.19463e-08
0.000276604
2.50813e-08
-3.10606e-08
-7.52508e-08
0.000249874
0.000181911
9.73231e-05
9.73178e-05
0.0011903
4.34589e-08
-0.000265757
1.93346e-07
-4.1685e-09
1.1552e-08
0.000266518
1.71782e-07
0.000248909
9.21435e-10
-1.79202e-11
0.000266072
6.04837e-09
2.82955e-09
-1.76675e-07
-1.38464e-10
0.00024974
-1.07349e-08
4.67493e-09
0.000249049
-2.31519e-09
0.000266674
-0.0002657
-1.09153e-09
1.95797e-07
3.85619e-09
0.000266463
6.98746e-10
0.000266058
1.71867e-07
0.000248831
9.10837e-10
-1.76638e-07
2.31894e-09
0.000249716
-2.80342e-09
0.000266659
4.56551e-09
0.000248975
-0.0002638
1.77858e-07
1.04085e-08
0.000264486
1.52618e-07
0.000249807
5.9567e-09
0.00025989
-8.84768e-09
-9.73875e-08
0.000244394
0.000249935
0.000259991
0.000259879
-9.99155e-08
0.000244367
0.000259982
-0.000242264
-1.08512e-07
-1.087e-07
0.000242387
2.348e-07
2.37403e-07
0.000270535
-8.59671e-08
0.000260645
-8.58739e-08
0.000261058
0.000260935
0.00026135
-7.87016e-05
-1.79033e-08
7.872e-05
-1.19253e-08
0.000261674
2.80088e-08
2.56829e-09
-4.68979e-08
0.000261707
-8.07055e-10
-0.000263884
1.75363e-07
0.000264578
-8.70525e-07
1.30702e-08
1.52642e-07
0.000249898
-1.64479e-09
8.54286e-07
-6.03259e-09
0.000250022
9.01585e-09
1.84561e-08
-5.15615e-08
-2.44683e-09
-0.000262401
-6.00218e-10
-7.89879e-05
-1.8218e-07
-3.9807e-09
-0.000250186
-1.43463e-08
-0.000263772
-5.70366e-08
0.000228655
-5.74069e-10
2.6537e-08
2.31393e-09
-0.000228626
0.000249785
-9.07485e-10
-1.88849e-07
1.57429e-09
-0.000249654
0.00027016
-1.26286e-06
-1.22829e-06
2.36041e-07
2.39709e-07
-0.000268145
0.00115447
-3.95901e-08
2.86618e-08
-0.00115458
1.70173e-08
-9.24533e-07
7.95302e-07
-7.4512e-07
9.75608e-07
1.21625e-06
0.0011336
-3.42262e-08
-0.00113362
2.39109e-07
-1.19626e-06
-2.19291e-07
-5.98067e-08
-8.38958e-07
2.2926e-07
-1.90466e-07
8.8007e-07
1.69558e-09
0.000228694
-5.67152e-08
3.04295e-10
2.42329e-08
-0.000228664
0.000228656
-5.61423e-08
3.62417e-09
2.20696e-08
-0.000228624
0.000270119
-1.26132e-06
2.33343e-07
2.41067e-07
-0.000268115
-3.94963e-09
9.76518e-05
-1.35168e-08
-9.76343e-05
1.05421e-07
2.80736e-07
1.82143e-08
1.35295e-07
-0.00118748
-0.00113354
-1.19318e-06
-3.02726e-08
-2.09416e-07
1.22891e-06
2.39635e-07
-6.71385e-08
8.79706e-07
-1.85157e-07
-8.31721e-07
2.29218e-07
-2.78775e-08
1.96548e-08
1.46525e-08
9.73294e-07
-7.44456e-07
-9.2366e-07
7.92914e-07
1.18561e-06
1.22345e-06
-1.97914e-07
-2.0379e-07
0.000268111
-4.59059e-08
-2.16973e-08
1.53441e-07
0.0011548
9.80205e-07
-7.4861e-07
-9.31402e-07
7.97819e-07
-0.00115498
-4.78595e-08
0.00115477
-4.88024e-10
9.78175e-07
-7.47999e-07
-9.30455e-07
7.98497e-07
-0.00115487
-1.23022e-06
0.000270165
-1.26504e-06
-0.000268147
2.37809e-07
2.39183e-07
-4.35348e-08
-0.00113359
-1.1922e-06
2.40796e-07
-2.08443e-07
-6.3211e-08
-8.32712e-07
2.30817e-07
8.78758e-07
-1.86338e-07
0.00115449
-7.86554e-09
3.07711e-08
4.42811e-09
-0.00115461
-9.29138e-07
7.93618e-07
-7.46279e-07
9.7296e-07
0.000192896
-3.389e-08
-0.000192867
1.37032e-09
8.90275e-09
-0.000277377
-5.1918e-09
1.48942e-08
-1.04207e-08
0.000277368
-0.00113369
-1.16033e-06
1.22139e-07
-1.92306e-07
1.30803e-06
2.76354e-07
9.09911e-07
-1.60582e-07
-8.23288e-07
2.83331e-07
-5.4692e-08
-0.0011547
-5.54811e-08
3.31515e-08
9.81105e-07
-7.46975e-07
-9.29427e-07
7.98655e-07
1.23085e-06
-1.97813e-07
-2.00089e-07
0.000268139
-0.000244855
-1.55956e-08
1.52174e-09
7.23581e-08
0.000244805
1.69483e-08
-7.26096e-10
-6.38839e-09
2.22071e-09
0.000228643
1.23562e-09
1.37314e-07
2.21209e-09
0.000249662
-2.19553e-08
5.7037e-09
1.24857e-08
0.0011544
9.72706e-07
-7.46783e-07
7.93025e-07
-9.26757e-07
-4.33019e-09
1.47289e-08
-9.54052e-10
0.000192886
1.19245e-06
1.2277e-06
-1.97092e-07
-2.02226e-07
0.000268139
-3.74075e-08
0.00113354
-2.08585e-07
1.21586e-06
2.38514e-07
-5.30916e-08
8.80404e-07
-1.89654e-07
-8.35849e-07
2.30111e-07
1.3548e-09
1.76677e-08
3.65775e-10
-4.79047e-09
0.000228679
1.8402e-08
2.22716e-09
-2.89104e-09
0.00022864
3.51516e-09
9.76439e-05
-1.6748e-07
-3.56625e-08
0.00121991
-1.61309e-07
-0.00121956
0.00121921
-2.23078e-08
-3.11059e-08
-0.00121937
0.00121896
5.50849e-08
1.09111e-08
-0.00121921
1.66467e-07
0.00121959
1.30815e-07
5.02938e-09
-0.00121978
8.50991e-09
-3.73999e-08
0.00019294
4.22506e-09
-0.000192909
1.8431e-09
-5.69647e-08
0.000228695
1.4923e-09
2.45672e-08
-0.000228665
0.00113314
1.47395e-07
-1.16795e-06
7.05531e-08
-2.05503e-07
1.29832e-06
2.58217e-07
-0.00113363
8.8692e-07
-1.89666e-07
-8.38697e-07
2.27877e-07
1.42264e-08
-0.000244794
-1.08998e-08
-1.01148e-07
0.000249817
3.05577e-09
-1.88615e-07
-0.000249689
-2.38113e-10
1.27214e-06
0.00113307
-8.25015e-08
-8.4008e-07
2.29087e-07
-1.883e-07
8.82736e-07
-1.22847e-06
2.45982e-07
-2.14921e-07
-0.00115489
5.95182e-09
0.00115484
-5.45423e-08
-9.30235e-07
7.98794e-07
-7.47629e-07
9.78656e-07
4.35727e-08
-6.21294e-08
-0.00115483
9.80148e-07
-7.49077e-07
-9.28915e-07
7.9758e-07
-3.70126e-08
5.19196e-09
0.000192886
1.73893e-10
-0.000192854
-2.53622e-08
-0.00113309
0.00113303
2.47707e-07
-1.22927e-06
-2.18626e-07
-7.05029e-08
-8.35875e-07
2.32933e-07
-1.86992e-07
8.86617e-07
-0.00115478
0.0011547
-9.26794e-07
7.99132e-07
-7.47142e-07
9.79022e-07
-4.68591e-08
1.68642e-08
0.000244757
-1.06862e-08
-1.04007e-07
-0.000244696
-3.14358e-08
-7.053e-08
-0.00113314
-1.23045e-06
8.8556e-07
-1.8832e-07
-8.37316e-07
2.31948e-07
1.26193e-06
-2.19831e-07
2.46693e-07
-4.09685e-08
-0.00115483
9.77767e-07
-7.48772e-07
-9.28364e-07
7.97898e-07
-1.56495e-08
9.76445e-05
-9.76236e-05
0.000277255
-3.75174e-08
1.02233e-08
-0.000277226
1.4114e-08
-1.56564e-08
0.000277379
-3.82037e-08
6.52727e-09
-0.000277346
-4.29907e-09
9.76571e-05
-9.76387e-05
-0.00113356
0.00113349
2.44214e-07
-1.19172e-06
-2.10627e-07
-6.39792e-08
-8.37083e-07
2.32024e-07
-1.88061e-07
8.85506e-07
1.86338e-09
0.000249806
-1.85707e-07
-8.00675e-11
-0.000249679
3.5126e-08
0.000244856
-1.04082e-07
-9.52084e-09
-0.000244793
-3.82541e-08
-6.79388e-08
-0.00113362
-1.19188e-06
1.23152e-06
-2.07721e-07
2.42158e-07
8.84454e-07
-1.89481e-07
-8.35819e-07
2.3082e-07
1.62536e-08
-4.96175e-08
-0.00115469
9.75236e-07
-7.45508e-07
-9.22637e-07
7.95283e-07
-0.00115444
0.00115436
-3.37223e-08
-9.28488e-07
7.97194e-07
-7.48431e-07
9.73538e-07
0.000249775
-1.84982e-07
6.53552e-09
-0.000249651
3.41854e-08
1.534e-08
0.000244765
-1.03893e-07
-1.32233e-08
-0.000244697
-1.9915e-07
-1.26219e-06
-1.66e-07
8.80733e-07
-1.90218e-07
-8.41187e-07
2.26848e-07
1.18495e-06
-2.29258e-07
2.29206e-07
-0.00113325
-1.70168e-08
-0.0011547
9.7719e-07
-7.48016e-07
-9.30755e-07
7.98036e-07
-1.48659e-08
-4.60203e-09
0.000244682
7.23757e-08
-2.81677e-09
-0.000244732
0.000192938
1.35134e-09
-0.000192909
3.9022e-09
0.000192889
1.69142e-09
-0.00019286
-2.11411e-09
0.00019284
-4.22132e-09
-0.000192848
0.000277347
-1.71345e-08
-3.84735e-08
8.7331e-09
-0.000277314
1.36193e-08
0.000277265
-3.82444e-08
6.20336e-09
-0.000277231
1.17666e-06
0.000268134
-2.11037e-07
-1.97456e-07
-0.000270164
-4.48205e-09
2.01062e-09
0.000277291
1.2252e-08
-3.1412e-09
-0.000277297
-4.21926e-09
0.000277206
1.45021e-08
-3.64408e-09
-0.000277217
1.88508e-09
9.76232e-05
-9.76295e-05
9.76465e-05
-9.7629e-05
9.76177e-05
-9.7624e-05
-5.93117e-10
-5.56505e-08
0.000228664
2.38338e-08
2.35669e-09
-0.000228634
-0.000192948
-3.45706e-09
1.34442e-08
-1.67873e-09
0.000192939
-0.000228694
6.31477e-10
1.27294e-08
0.000228684
-4.56668e-09
1.00454e-09
-9.76486e-05
3.03089e-09
5.99591e-09
9.76396e-05
-3.6798e-09
-1.30728e-09
0.00019293
1.70613e-08
4.49971e-10
-4.28696e-09
0.000228681
-1.80216e-07
-0.00121915
3.87632e-08
2.53633e-08
3.20116e-08
-1.89936e-09
0.00121886
5.17205e-08
8.83862e-09
2.81502e-08
4.97639e-08
0.00115447
-0.00115456
-3.44633e-08
9.74363e-07
-7.43058e-07
-9.22346e-07
7.94017e-07
5.34987e-08
1.47762e-10
-0.000249691
4.45309e-11
-1.853e-07
-0.000244861
-5.74057e-09
-1.38253e-08
6.80488e-08
7.82893e-10
0.000244812
-0.000249811
-1.60423e-08
3.6431e-09
1.36787e-07
0.000249685
9.45839e-10
-4.57637e-10
-3.56799e-08
-9.23999e-07
7.9502e-07
-7.44794e-07
9.75391e-07
2.60355e-09
6.21447e-09
9.76357e-05
-2.14278e-07
1.22694e-06
2.43005e-07
-6.28001e-08
8.83766e-07
-1.86637e-07
-8.35605e-07
2.33109e-07
3.95952e-09
1.35717e-07
2.2347e-10
0.000249684
-7.72014e-09
-1.36459e-08
6.72087e-08
7.59052e-10
0.000244809
7.07615e-09
1.40718e-08
-5.9969e-09
0.000277335
3.93873e-09
-3.37609e-09
1.41744e-08
-5.95702e-09
0.000277256
-1.25797e-06
-1.2181e-06
-0.000268104
2.34061e-07
2.42686e-07
-1.39633e-08
1.42579e-08
-0.000277358
4.44474e-09
-3.95967e-08
-1.2091e-08
1.44154e-08
-0.00027728
4.51821e-09
-3.95813e-08
-1.40564e-08
-4.29976e-09
9.76589e-05
-9.76406e-05
6.17389e-09
3.0124e-09
9.76265e-05
-9.76357e-05
-1.65637e-08
9.76612e-05
-9.76404e-05
1.26136e-06
-2.1139e-07
0.000268172
-1.91984e-07
-0.000270198
-0.00027735
-3.54344e-08
6.84124e-09
-1.24011e-06
0.000270187
-0.000268166
2.42966e-07
2.47732e-07
-1.63417e-08
0.000277292
-4.23268e-08
-0.000277257
8.99623e-09
4.17603e-09
1.18372e-08
-5.23543e-09
0.00027723
-0.000277235
-5.5847e-08
0.000228627
2.39081e-08
1.33196e-09
-0.000228597
-2.03658e-09
0.000249804
-1.87147e-07
1.98394e-09
-0.000249672
0.000249775
-1.84886e-07
1.0112e-09
-0.000249649
-3.40327e-10
1.85987e-08
-4.97695e-09
2.15659e-09
0.000228649
-3.47604e-08
-0.000192918
1.40381e-09
1.72148e-08
-2.81189e-09
0.000192894
-0.000192906
9.02068e-11
-5.64703e-08
-0.000228663
2.43772e-08
1.71345e-09
1.8407e-08
-4.91149e-09
1.50159e-09
0.000228611
-3.66866e-08
4.79527e-09
0.000192897
-0.000192866
8.26825e-10
1.69384e-08
-2.79208e-09
-2.9548e-09
0.000192846
-0.000192857
-5.65284e-08
0.000228656
-0.000228626
2.43539e-08
2.02941e-09
0.00113378
-2.06758e-07
1.20718e-06
-2.2348e-07
2.34815e-07
8.86537e-07
-1.87409e-07
2.32698e-07
-8.38957e-07
-0.00113347
-2.17586e-08
-8.84384e-08
-1.19613e-06
2.51484e-07
-2.11938e-07
-8.35324e-07
2.41664e-07
-1.83732e-07
8.89831e-07
-6.9744e-09
0.00115473
-5.6285e-08
-9.27814e-07
8.03535e-07
-7.47971e-07
9.83353e-07
9.5019e-12
1.39728e-07
3.90394e-09
0.000249679
0.000244826
-1.10413e-07
-0.000244753
-1.33075e-08
7.00076e-08
-8.6667e-10
0.00024474
-0.000244787
-1.50186e-09
0.000249814
-1.88006e-07
-0.000249684
2.52698e-09
1.67809e-08
-5.37713e-08
-9.32665e-07
8.0404e-07
-7.50217e-07
9.83721e-07
-0.0011331
0.00113304
-1.22988e-06
2.47398e-07
-2.19041e-07
-8.30417e-08
-8.39259e-07
2.31838e-07
-1.87931e-07
8.88307e-07
-1.23644e-06
-8.11455e-08
8.82833e-07
-1.96557e-07
-8.42392e-07
2.26216e-07
1.2615e-06
-2.25775e-07
2.46363e-07
-0.00113313
1.39386e-07
9.48484e-10
0.000249653
1.46759e-08
0.000244764
-1.0301e-07
-0.000244699
-1.37675e-08
-6.56749e-09
7.6423e-08
-5.30585e-10
0.000244686
-0.000244738
0.000249786
-1.88231e-07
-0.000249659
2.73955e-09
-1.55652e-08
-9.76283e-05
6.13907e-09
9.76166e-05
-9.76255e-05
1.18617e-06
0.000268154
-1.96963e-07
-2.02782e-07
-0.000270177
0.000277253
-3.89769e-08
-0.000277225
9.61476e-09
1.41354e-08
-1.30981e-08
0.000277379
-3.76914e-08
-0.000277348
6.12985e-09
1.83702e-08
-4.09083e-09
0.000277198
-0.000277213
-3.29857e-09
4.4605e-09
6.59571e-09
-5.47057e-09
0.000277322
-0.000277324
-3.82591e-09
9.76597e-05
-9.76418e-05
3.28041e-09
9.76304e-05
-9.7637e-05
-0.00115464
-3.18956e-08
-9.22413e-07
7.91596e-07
9.71801e-07
-7.42917e-07
-4.8017e-08
-5.29954e-08
1.23404e-06
-2.05015e-07
2.47283e-07
8.83792e-07
-1.78959e-07
2.30292e-07
-8.30647e-07
-0.00113369
-4.40112e-08
-4.13407e-08
9.77933e-07
-7.42531e-07
7.9806e-07
-9.22421e-07
-0.00115471
-1.77786e-08
1.15571e-09
1.33722e-07
3.75845e-09
0.000249681
-0.000249802
3.48745e-08
-1.03192e-07
-0.000244796
-9.76728e-09
-1.4127e-08
6.43532e-08
-3.44506e-09
0.000244778
-0.000244821
5.61434e-08
-6.17247e-11
-1.84923e-07
-0.000249683
1.36659e-09
1.5159e-09
9.99664e-10
-2.39643e-09
0.000228646
-0.000228664
0.000192943
-0.000192914
2.09988e-09
-4.56454e-09
0.000192894
-0.0001929
1.50149e-09
0.000228695
-0.000228663
5.8809e-10
2.19467e-08
-0.00113273
0.00113261
2.46657e-07
-1.2246e-06
-2.16514e-07
-1.65973e-08
-8.37239e-07
2.22979e-07
-1.88489e-07
8.76309e-07
0.000244794
-1.01017e-07
-0.000244731
-1.27376e-08
-8.79508e-08
-6.82503e-08
9.77227e-07
-7.42485e-07
7.97905e-07
-9.19788e-07
-0.00115461
1.03846e-07
1.28298e-06
-2.09098e-07
2.54205e-07
8.79849e-07
-1.85278e-07
2.23384e-07
-8.31075e-07
-0.00113316
-1.49413e-08
0.000244718
6.76456e-08
-3.02178e-09
-0.000244766
-1.78306e-08
1.36139e-07
2.2482e-09
0.000249654
-0.000249774
5.56318e-08
0.000249782
-1.84313e-07
4.73822e-09
-0.000249658
0.000192847
-4.73504e-09
-0.000192855
3.63395e-09
-2.41206e-09
0.000228611
-0.000228629
0.000228657
3.54853e-09
-0.000228625
2.18037e-08
2.99664e-09
9.76525e-05
9.76523e-05
1.23785e-06
-1.78966e-07
-1.97129e-07
0.000268165
4.73435e-09
-3.74085e-09
-4.53158e-09
0.000277299
1.62331e-08
-2.2886e-09
0.000192886
1.52613e-08
0.000228644
-4.61687e-09
2.07172e-09
-9.94425e-08
9.92429e-07
-7.44401e-07
-9.21338e-07
8.01362e-07
5.81649e-08
-5.39126e-10
0.000244786
1.80363e-09
1.33256e-07
0.00024969
2.50149e-09
-2.17267e-07
1.26651e-06
2.48966e-07
-7.79245e-08
8.88414e-07
-1.87389e-07
-8.38836e-07
2.32167e-07
-3.51342e-09
6.83216e-08
9.12785e-10
0.000244715
1.35753e-07
0.000249665
2.81607e-09
1.36263e-08
-7.0414e-09
0.000277249
-3.05376e-09
1.01906e-08
-6.63225e-09
0.000277373
4.0037e-09
9.76527e-05
2.40556e-09
1.37581e-07
0.000249695
-5.45974e-08
8.81407e-07
-1.89518e-07
-8.38509e-07
2.14232e-07
-2.26938e-07
1.25471e-06
2.25344e-07
-3.67145e-08
-8.91143e-08
9.79933e-07
-7.4605e-07
-9.28561e-07
7.97219e-07
1.61415e-08
-3.17634e-09
0.000192876
-5.06879e-09
-2.17152e-07
1.26409e-06
2.48974e-07
-8.31158e-08
8.86967e-07
-1.86239e-07
-8.37602e-07
2.30623e-07
9.7998e-07
-7.45624e-07
-9.28033e-07
7.97449e-07
-5.77988e-08
-5.98005e-09
-1.07393e-09
6.74332e-08
0.000244712
-4.14214e-10
-0.000228698
1.23239e-09
2.13815e-08
-1.0104e-09
0.000192934
1.50626e-09
0.000228681
-3.35475e-12
-3.06766e-09
0.00113253
-2.15359e-07
1.2568e-06
2.44858e-07
-4.74393e-08
8.79932e-07
-1.90119e-07
2.29625e-07
-8.3658e-07
7.01356e-08
-1.93161e-09
0.000244747
5.30363e-08
-0.000249666
-1.84557e-07
3.7263e-09
-3.20333e-08
-6.27397e-08
-1.22191e-06
2.42996e-07
-2.1138e-07
-8.34557e-07
2.31604e-07
-1.87921e-07
8.81982e-07
-1.66106e-08
1.37528e-07
4.68376e-09
0.00024966
-2.48745e-08
-9.2541e-07
7.94097e-07
-7.45781e-07
9.74184e-07
3.46855e-08
-0.000244762
-8.93888e-09
-1.05384e-07
-0.00022866
2.12496e-08
3.95024e-10
2.42447e-09
0.000228643
-3.25346e-09
2.7879e-09
-0.000192904
4.22904e-09
1.0767e-08
-7.35667e-09
0.000277252
-3.28259e-09
9.87951e-09
-5.98955e-09
0.000277371
3.35286e-09
9.76505e-05
-2.09333e-08
9.73574e-07
-7.48374e-07
-9.25633e-07
7.94313e-07
1.36663e-07
4.67621e-09
0.000249656
-1.43921e-08
7.21141e-08
-2.66939e-09
0.000244714
-6.81811e-08
-1.17738e-06
2.40129e-07
-2.03638e-07
-8.34442e-07
2.31549e-07
-1.8804e-07
8.81708e-07
3.4981e-08
-0.000244731
-9.59572e-09
-1.05591e-07
-2.0459e-09
0.00019293
-4.3636e-09
-6.87447e-10
0.000192879
2.59015e-09
-0.000192898
4.57631e-09
-9.76529e-05
9.76387e-05
-9.76477e-05
-1.83755e-09
6.18064e-09
0.000142759
1.60725e-09
-0.000142765
-0.000170397
6.1755e-10
0.000170424
-8.86155e-10
-0.000222587
2.29627e-08
0.000222621
4.14525e-09
-5.86245e-08
-6.63863e-09
1.61889e-09
-1.89112e-10
1.76521e-08
-0.000228639
-8.31709e-10
-0.000170405
2.1051e-09
2.18412e-08
-0.000222603
0.000142781
1.18261e-09
8.01493e-09
-1.24818e-09
0.000142832
9.76449e-10
-0.00014284
-0.000222685
2.49746e-08
0.000222717
2.76119e-09
-5.87832e-08
-0.000170435
1.49924e-10
-5.60863e-10
0.00017046
-1.03322e-10
-4.56587e-09
1.86904e-09
1.76686e-08
-0.000228678
1.05445e-09
2.14019e-08
-0.0002227
-2.55024e-10
-0.00017044
0.000142856
9.49591e-10
4.11064e-09
-6.60709e-10
0.000142763
4.96773e-10
-0.000142767
-0.000222589
2.08892e-08
0.000222623
4.30045e-09
-5.48564e-08
-0.000170401
-1.13736e-09
0.000170424
3.45765e-09
-2.59016e-09
1.81559e-08
-0.000228641
3.47736e-09
2.04243e-08
-0.000222606
-0.000170404
0.000142783
-4.15132e-10
3.07241e-09
4.07039e-09
-9.76414e-05
8.49644e-09
7.89301e-05
-7.89375e-05
-1.12898e-09
-3.14855e-09
-0.000192876
1.50202e-08
-0.000262232
1.64957e-08
0.000262269
-4.59542e-09
-4.73789e-08
-0.000262244
-3.82579e-09
2.08588e-08
7.89468e-05
-1.83233e-10
-0.000221348
1.56856e-08
1.089e-08
-8.07045e-08
-2.97652e-09
-2.20886e-08
0.000250234
-0.000250274
2.69538e-08
5.02374e-08
8.9333e-09
0.000182436
-0.00018245
-5.67518e-09
5.51781e-10
-2.64447e-08
1.43294e-08
-1.18907e-08
-0.000221368
-1.65928e-08
2.35918e-08
-1.53918e-09
-2.2897e-08
-4.68542e-08
-0.000142775
-6.22858e-10
-2.30504e-08
1.22895e-09
1.92963e-09
0.000170416
-8.9525e-10
-6.03683e-09
0.000222605
2.5932e-09
2.1328e-08
2.67228e-08
2.72238e-09
-1.28605e-09
-5.75721e-08
1.72894e-09
-8.45167e-10
4.61139e-09
-5.8953e-08
-7.89388e-05
-1.69631e-08
7.38047e-10
7.89551e-05
-7.98657e-09
0.000262257
-1.9252e-09
2.0625e-08
3.37148e-09
2.98003e-09
0.000192914
-3.42708e-08
-5.77534e-11
-2.46966e-09
0.000262294
-4.78459e-08
-0.000142848
-2.46124e-08
-7.30688e-10
1.27733e-09
-8.31264e-09
0.000222705
-9.48773e-10
2.12812e-08
1.71378e-09
0.000170454
-8.99994e-10
1.21587e-09
2.39798e-08
6.66026e-10
-5.66266e-08
1.23503e-09
5.2746e-09
-5.85346e-08
-1.23763e-09
-0.000142779
-2.08403e-08
2.03994e-09
-1.30252e-09
-4.19218e-09
0.000222607
1.66115e-09
2.04683e-08
-3.08697e-10
0.00017042
1.91589e-09
2.17639e-08
-5.5933e-08
-4.70632e-10
2.1806e-09
-5.49991e-08
-1.40153e-08
9.76609e-05
9.84695e-09
7.89688e-05
2.93193e-11
-7.89787e-05
-1.69513e-09
-3.54266e-09
1.6222e-08
-0.00019292
-0.00026235
1.95362e-08
-2.9723e-09
0.000262384
-4.92421e-08
5.9452e-10
1.9247e-08
-0.000262362
2.53115e-11
7.89883e-05
5.84939e-09
-2.03396e-10
0.00014283
-0.000142836
-0.000222688
2.35831e-08
0.000222719
-5.63101e-08
-0.000170433
-1.20743e-09
0.000170458
1.10673e-09
-4.57052e-09
1.78554e-08
-0.000228679
1.94922e-08
-0.000222699
-0.000170439
0.000142853
8.74104e-09
7.89246e-05
-7.89317e-05
-0.000262218
1.60287e-08
0.000262257
-5.15295e-08
-2.98886e-09
-2.74391e-09
1.63324e-08
-0.000192865
2.16699e-08
-0.000262231
7.89418e-05
6.08867e-09
-9.76325e-05
1.0431e-08
-5.10594e-09
0.000221256
-6.52338e-10
1.80753e-08
-0.000221279
-0.000250052
3.03912e-08
0.000250107
-8.28139e-08
-3.9786e-08
-0.000182372
-2.30237e-08
5.78381e-09
0.000182399
1.0773e-08
-7.63334e-09
6.59804e-09
-0.00027723
4.4662e-08
2.07873e-08
-0.000250097
-3.41407e-09
-0.000182381
1.74881e-08
0.000221294
-4.74637e-08
-1.89461e-09
-1.41458e-09
0.000213074
1.3236e-09
-0.000213073
-8.02555e-05
-7.98971e-09
8.02692e-05
-8.02717e-05
-8.47353e-09
-5.26236e-09
8.02854e-05
-8.02608e-05
3.94059e-09
-8.02771e-05
-1.6521e-08
0.000213092
-4.42606e-09
8.30556e-09
0.000221332
1.79686e-08
-0.000221353
-0.000250215
2.70336e-08
0.000250272
-8.31288e-08
-3.90914e-08
-0.000182434
-2.33791e-08
0.000182458
-5.96237e-09
1.03589e-08
-3.17635e-09
7.41883e-09
-0.000277355
-0.00018244
4.49466e-08
2.04817e-08
-0.000250262
0.000221368
-4.7959e-08
3.43659e-09
-9.76453e-05
1.04555e-08
7.89684e-05
-7.89779e-05
-0.000262351
1.84689e-08
0.000262389
-5.17374e-08
-1.92766e-09
1.37799e-08
-0.000192917
2.13231e-08
-0.000262363
7.89878e-05
7.96062e-09
7.89276e-05
-7.89351e-05
-0.000262227
1.70474e-08
0.000262264
-4.7749e-08
-2.77387e-09
-0.000192869
-3.18233e-09
1.47176e-08
-0.000262239
2.04797e-08
7.89442e-05
-7.8918e-05
-1.65568e-08
-5.36634e-10
-3.33469e-10
5.15986e-09
-3.39918e-08
-8.42813e-09
0.000262202
2.02447e-08
-0.000262214
-4.07749e-09
-7.89251e-05
-1.30202e-09
-4.79337e-08
-5.61174e-09
-7.46493e-09
0.000221321
7.42853e-09
-1.55317e-09
-0.000221338
1.88565e-08
3.02443e-08
-0.000250176
0.000250224
-7.60474e-08
-4.03092e-08
-0.000182429
-2.43933e-08
5.35542e-09
0.000182457
-7.16002e-09
1.45772e-08
-0.000277322
5.23731e-09
-3.39867e-09
-0.000182441
1.85549e-08
0.000221355
-4.67139e-08
-0.000250218
4.4272e-08
1.97482e-08
-2.47766e-09
-2.23448e-09
0.000213073
3.63005e-09
-0.000213073
-8.02731e-05
-7.34233e-09
8.02858e-05
-8.02589e-05
-7.74275e-09
-5.11925e-09
8.02718e-05
-8.0279e-05
3.7668e-09
-8.02649e-05
-1.86374e-08
0.000213095
7.27443e-09
-7.18453e-09
0.000221257
-0.000221271
1.70179e-08
-0.000250057
2.83119e-08
0.000250105
-7.80341e-08
-3.62988e-08
-0.000182377
-2.431e-08
0.000182402
1.45714e-08
-4.67013e-09
-0.00027724
-3.8654e-09
2.48143e-09
-0.000250097
4.45419e-08
1.67966e-08
-0.000182385
0.000221289
-4.65021e-08
2.45552e-08
-3.06041e-08
-0.000221304
1.65265e-08
-4.38869e-08
1.02245e-08
-3.58976e-08
1.29644e-08
-1.8635e-08
0.000250167
-4.91351e-09
4.46774e-08
1.54887e-08
-0.00025021
0.000182412
7.02442e-09
-2.83402e-09
-0.000182419
5.89359e-09
-7.55111e-08
-4.23159e-08
-1.0974e-09
1.93379e-08
-0.000221321
7.41121e-09
7.70938e-09
-0.000213055
-1.65139e-08
8.02657e-05
2.40285e-09
-8.02709e-05
8.02516e-05
2.17506e-09
4.98396e-09
-8.02588e-05
-5.6361e-09
3.62227e-09
-0.000213056
-2.55091e-08
2.44514e-08
-0.00022124
-4.61839e-08
-3.82503e-08
7.4387e-09
1.31918e-08
-1.63011e-08
0.000250045
-8.00016e-09
2.33579e-08
4.70138e-08
-0.000250093
0.000182358
7.29016e-09
-0.000182364
-3.50522e-08
-8.00688e-08
1.91667e-08
-0.000221256
-5.32059e-09
-9.7636e-05
-1.33625e-09
6.81909e-09
0.000142801
9.83631e-10
-0.000142808
-0.000170399
-4.37331e-11
-1.58048e-10
0.000170423
-0.00022265
2.26202e-08
0.000222681
-5.47321e-08
3.99776e-09
-5.43919e-09
1.58338e-09
-5.05647e-10
2.42015e-08
-0.000228654
-1.85895e-10
-0.000170406
2.35394e-08
2.07973e-09
-0.000222667
0.000142823
9.43935e-10
-7.89768e-05
-1.9213e-08
-5.26213e-10
-1.01373e-08
0.000262363
-1.32054e-09
-0.000262372
1.88812e-08
2.3112e-09
4.24309e-09
-3.98965e-08
-4.80565e-10
-7.89864e-05
-2.83981e-09
-5.441e-08
-0.00014285