/*--------------------------------*- C++ -*----------------------------------*\
| =========                 |                                                 |
| \\      /  F ield         | OpenFOAM: The Open Source CFD Toolbox           |
|  \\    /   O peration     | Version:  v2006                                 |
|   \\  /    A nd           | Website:  www.openfoam.com                      |
|    \\/     M anipulation  |                                                 |
\*---------------------------------------------------------------------------*/
FoamFile
{
    version     2.0;
    format      ascii;
    class       volVectorField;
    location    "750";
    object      U;
}
// * * * * * * * * * * * * * * * * * * * * * * * * * * * * * * * * * * * * * //

dimensions      [0 1 -1 0 0 0 0];


internalField   nonuniform List<vector> 
14212
(
(-8.28442e-08 -1.23147e-05 0.0911533)
(-1.05664e-06 -8.56701e-06 0.0819809)
(1.96024e-06 -3.54973e-06 0.071325)
(-8.81248e-06 -1.03358e-06 0.0819815)
(8.65924e-06 -2.99308e-06 0.107616)
(1.59428e-05 -4.42904e-06 0.0928132)
(-2.04181e-06 -3.62681e-06 0.0713238)
(-3.69684e-06 -1.95938e-06 0.0713237)
(-4.54108e-05 -4.55426e-05 0.104338)
(-5.03088e-06 -7.66735e-06 0.0873187)
(-7.53923e-06 -5.09049e-06 0.0873179)
(5.09147e-07 -1.22545e-05 0.0911534)
(1.00254e-06 -8.63184e-06 0.0819818)
(-1.08813e-07 -2.08534e-05 0.0984116)
(-3.51082e-06 -8.87089e-06 0.107616)
(-4.90007e-06 -1.64776e-05 0.0928125)
(-1.64279e-06 -7.91255e-06 0.110127)
(9.02962e-07 -2.07291e-05 0.0984118)
(4.22254e-06 -8.59009e-06 0.107614)
(5.37246e-06 -1.58589e-05 0.0928132)
(1.44496e-06 -7.85739e-06 0.110127)
(4.58022e-05 -4.44954e-05 0.104337)
(5.14356e-06 -7.34185e-06 0.0873188)
(7.52083e-06 -4.72751e-06 0.0873185)
(3.51466e-06 -2.01162e-06 0.0713226)
(-8.90451e-06 -4.59114e-06 0.107617)
(-1.6056e-05 -5.10892e-06 0.0928134)
(8.37791e-06 -9.61204e-07 0.0819817)
(-6.51688e-07 1.71124e-06 0.0765951)
(-9.57543e-08 5.57759e-07 0.0911194)
(-1.13698e-07 -5.48284e-06 0.0783966)
(-5.20156e-07 -1.18369e-05 0.0896621)
(-3.08318e-07 1.2242e-06 0.0783676)
(-4.11712e-07 1.08278e-06 0.0896233)
(5.28444e-07 -5.22191e-06 0.0766289)
(-9.24042e-07 2.38534e-06 0.0681519)
(-1.17561e-06 -9.17515e-06 0.0855796)
(7.77066e-07 4.1572e-06 0.0819396)
(-5.51108e-07 1.91077e-06 0.0855352)
(4.29976e-07 -3.42808e-06 0.0681978)
(-1.72931e-06 2.05146e-06 0.0712814)
(3.93737e-06 7.86233e-07 0.0819402)
(1.82556e-06 2.10008e-06 0.0712833)
(1.99366e-06 1.88133e-06 0.0712832)
(-2.02515e-08 4.45808e-07 0.0833594)
(-2.32732e-06 -2.17598e-06 0.0681316)
(-2.01316e-06 -2.12219e-06 0.0681312)
(1.34501e-06 8.20067e-07 0.0680961)
(8.4183e-07 1.66985e-06 0.0680963)
(-5.23617e-06 -4.87197e-06 0.0833911)
(-2.10941e-07 2.82766e-06 0.091439)
(-2.33835e-06 -5.80821e-06 0.0813271)
(2.21167e-06 -5.20254e-07 0.0872817)
(-1.05387e-05 -1.8456e-05 0.0961271)
(1.47974e-06 6.22583e-07 0.0812916)
(-7.45395e-06 -1.26519e-05 0.0914753)
(2.03539e-06 3.74508e-06 0.0960861)
(2.61887e-06 2.46362e-07 0.0914361)
(-3.43507e-07 2.11108e-06 0.0872812)
(-6.05541e-06 -2.21671e-06 0.0813253)
(-1.78486e-05 -1.0404e-05 0.0961223)
(4.92466e-07 1.61367e-06 0.0812905)
(-1.28741e-05 -6.85717e-06 0.0914706)
(4.33405e-06 2.08368e-06 0.0960829)
(5.22162e-07 1.68293e-06 0.0765947)
(5.63127e-07 6.19734e-07 0.0911196)
(-9.77672e-08 -5.4779e-06 0.0783964)
(8.46266e-07 -1.1727e-05 0.0896621)
(1.86188e-07 1.23481e-06 0.0783676)
(8.19357e-07 1.23319e-06 0.089624)
(-7.7994e-07 -5.26453e-06 0.076628)
(7.83055e-07 2.37718e-06 0.068154)
(1.20324e-06 -9.09827e-06 0.0855804)
(-7.06842e-07 4.0549e-06 0.0819395)
(6.80893e-07 2.03444e-06 0.0855368)
(-6.5414e-07 -3.43857e-06 0.0681992)
(2.16557e-06 -2.13469e-06 0.0681288)
(2.06249e-06 -2.23466e-06 0.0681325)
(5.15955e-06 -4.87408e-06 0.0833913)
(9.6767e-08 3.44186e-06 0.091434)
(2.19483e-06 -5.798e-06 0.0813245)
(-1.98142e-06 -1.20499e-07 0.0872797)
(1.09894e-05 -1.73993e-05 0.0961235)
(-1.52459e-06 7.27385e-07 0.0812882)
(-1.66299e-06 4.80995e-06 0.0960818)
(7.33601e-06 -1.20301e-05 0.0914702)
(5.79005e-06 -2.12557e-06 0.0813273)
(1.8089e-05 -9.72666e-06 0.0961261)
(1.27268e-05 -6.68844e-06 0.0914755)
(-5.35906e-06 -5.47306e-06 0.112815)
(-1.17802e-06 -1.40062e-06 0.115416)
(4.18606e-06 -5.51819e-06 0.112814)
(-1.8146e-06 -1.60787e-06 0.115416)
(5.099e-05 -5.82171e-06 0.0994525)
(3.44873e-06 4.22725e-06 0.0973728)
(2.86098e-05 2.86718e-05 0.104215)
(-4.35156e-05 -1.93403e-05 0.101429)
(-1.93833e-05 -4.39948e-05 0.101425)
(-1.73344e-05 -1.65054e-05 0.0974216)
(3.0177e-05 3.69194e-06 0.101362)
(3.58109e-06 2.97429e-05 0.10136)
(-1.38286e-06 3.25222e-05 0.102815)
(-2.20252e-07 2.56025e-06 0.0983587)
(-1.09949e-06 -2.08866e-05 0.0974374)
(-1.55274e-07 -5.30286e-05 0.103592)
(-8.62222e-07 3.12329e-06 0.0973762)
(-6.70013e-07 3.15962e-05 0.103492)
(-1.40667e-06 -5.41877e-05 0.102937)
(-1.02502e-06 3.48301e-05 0.101235)
(-2.79619e-06 -1.97002e-05 0.0954542)
(1.2815e-06 3.30637e-06 0.0927632)
(-6.45458e-06 -5.12825e-05 0.0994525)
(-9.44643e-07 3.76116e-06 0.0953919)
(5.03295e-08 3.37781e-05 0.0993931)
(-3.79849e-06 -5.48636e-05 0.101343)
(1.88345e-06 3.27889e-05 0.102815)
(8.15843e-07 2.67072e-06 0.0983589)
(1.83127e-06 -2.05604e-05 0.0974376)
(1.01261e-06 -5.2892e-05 0.103593)
(1.44929e-06 3.46237e-06 0.0973768)
(1.14891e-06 3.16714e-05 0.103492)
(2.24886e-06 -5.38622e-05 0.102938)
(1.73389e-06 3.51745e-05 0.101235)
(3.32709e-06 -1.92039e-05 0.0954547)
(-7.33205e-07 3.97577e-06 0.0927632)
(7.26593e-06 -5.07127e-05 0.0994514)
(1.43522e-06 4.26612e-06 0.095393)
(4.71707e-06 -5.44105e-05 0.101343)
(6.3728e-07 3.42759e-05 0.099392)
(-3.76962e-06 4.62496e-06 0.0973728)
(-2.85479e-05 2.93636e-05 0.104214)
(4.42658e-05 -1.8547e-05 0.101425)
(1.96449e-05 -4.2793e-05 0.101428)
(-3.57483e-06 3.07517e-05 0.101362)
(-2.96234e-05 4.37538e-06 0.101358)
(1.71639e-05 -1.60973e-05 0.0974218)
(3.75236e-06 1.02451e-06 0.0927639)
(-5.12552e-05 -6.91583e-06 0.0994523)
(3.37921e-05 -4.52798e-07 0.0993936)
(-2.1862e-08 4.55463e-07 0.0833603)
(-1.44864e-06 8.65171e-07 0.0680936)
(-8.41971e-07 1.53596e-06 0.0680979)
(-2.74046e-06 6.06641e-07 0.0914411)
(3.16402e-07 2.57044e-06 0.0872828)
(-4.11904e-06 2.83917e-06 0.0960861)
(-7.35013e-07 1.7915e-06 0.0812939)
(-2.16678e-06 1.91177e-06 0.0712835)
(-4.3158e-06 9.3474e-07 0.0819409)
(-3.84464e-06 1.79022e-06 0.0927645)
(-3.40443e-05 6.46027e-07 0.0993939)
(-7.98566e-06 -3.67758e-07 0.0983268)
(-4.56998e-06 2.27085e-07 0.110446)
(-2.73597e-06 -4.42387e-07 0.0909524)
(-7.99565e-06 3.98582e-07 0.0983268)
(-1.67689e-07 -1.24795e-06 0.107866)
(-4.55694e-06 -1.27469e-07 0.110445)
(-7.67875e-06 -1.98521e-06 0.0925997)
(-2.74629e-06 3.91826e-07 0.0909525)
(-5.00356e-06 -6.49939e-07 0.0816878)
(-1.14706e-06 -1.14737e-07 0.107868)
(-1.96706e-06 -7.65686e-06 0.0926)
(-6.58878e-07 -4.9022e-06 0.0816885)
(-3.56034e-05 -3.5676e-05 0.104369)
(-1.15272e-06 -3.38659e-06 0.0870606)
(-3.37634e-06 -1.09765e-06 0.0870598)
(-2.08346e-06 -2.72854e-06 0.0710299)
(-2.71155e-06 -2.02833e-06 0.0710304)
(4.45824e-06 4.91224e-07 0.0763768)
(-3.16192e-06 -6.41859e-07 0.0894287)
(-2.18735e-06 -4.42434e-07 0.0781195)
(1.07173e-05 -4.17834e-07 0.0909858)
(-2.61655e-06 -8.01597e-07 0.0763407)
(1.02601e-05 -7.50083e-07 0.0894689)
(4.74429e-06 -1.96664e-07 0.0781478)
(4.49979e-06 -5.39977e-07 0.0763752)
(-2.18834e-06 3.98995e-07 0.0781198)
(-3.20546e-06 5.67513e-07 0.0894296)
(1.07177e-05 3.67411e-07 0.0909856)
(-2.67353e-06 7.39167e-07 0.0763422)
(4.7517e-06 1.60573e-07 0.0781477)
(1.0284e-05 6.85701e-07 0.0894679)
(3.31529e-06 -6.12558e-07 0.0679529)
(-3.08713e-06 6.53029e-07 0.0853)
(8.21519e-06 1.18479e-06 0.0817291)
(-2.67551e-06 8.36179e-07 0.0679075)
(8.43076e-06 1.28428e-06 0.0853439)
(1.16175e-06 8.29781e-06 0.0817297)
(4.46371e-06 4.41054e-06 0.08318)
(-9.03777e-07 -1.61689e-06 0.0678882)
(-1.59336e-06 -9.94939e-07 0.0678841)
(-8.92563e-07 -9.9056e-07 0.0831471)
(2.06078e-06 2.14492e-06 0.0679259)
(2.22533e-06 2.05456e-06 0.0679199)
(1.19241e-05 6.00363e-06 0.0913102)
(-1.39933e-06 -1.99623e-06 0.0810617)
(-7.24452e-06 -5.05373e-06 0.0959862)
(6.27744e-06 4.12937e-06 0.0870985)
(-4.21417e-06 -1.5002e-06 0.0912728)
(1.5953e-05 8.10922e-06 0.0960291)
(5.32356e-06 1.8773e-06 0.0810983)
(5.99216e-06 1.1911e-05 0.0913034)
(-2.00991e-06 -1.37406e-06 0.0810579)
(-5.05721e-06 -7.27284e-06 0.0959834)
(4.14595e-06 6.31125e-06 0.0870968)
(-1.50236e-06 -4.26232e-06 0.0912668)
(8.11361e-06 1.59198e-05 0.0960257)
(1.89401e-06 5.3828e-06 0.0810932)
(3.86459e-06 1.22884e-06 0.0710706)
(1.24645e-06 3.87879e-06 0.0710707)
(-6.63532e-06 -6.75087e-06 0.1131)
(5.09601e-05 -9.66254e-08 0.103029)
(-8.45528e-06 -5.28334e-07 0.0973116)
(-4.20462e-05 -4.10734e-07 0.103602)
(1.64538e-05 -3.88319e-07 0.0983824)
(-4.25354e-05 1.98978e-08 0.102893)
(1.6525e-05 -9.76305e-07 0.0973766)
(4.96447e-05 1.92838e-09 0.103713)
(5.09409e-05 1.09378e-07 0.103029)
(-4.20919e-05 4.6909e-07 0.103602)
(-8.49961e-06 5.28706e-07 0.0973117)
(1.64548e-05 3.99365e-07 0.0983823)
(-4.25889e-05 6.09473e-09 0.102893)
(4.96151e-05 4.46114e-08 0.103713)
(1.65156e-05 9.52928e-07 0.0973762)
(5.23547e-05 1.90264e-06 0.101391)
(-7.94436e-06 2.98347e-07 0.0952823)
(-4.14969e-05 -2.32756e-06 0.0993658)
(1.28144e-05 4.53165e-06 0.0926512)
(-4.35408e-05 -9.11539e-07 0.101273)
(1.63737e-05 2.3998e-06 0.0953474)
(4.86763e-05 4.38232e-06 0.0994298)
(-2.35477e-06 -4.14396e-05 0.0993653)
(4.53643e-06 1.28549e-05 0.0926514)
(4.34216e-06 4.87432e-05 0.0994294)
(1.54486e-05 1.54868e-05 0.0973563)
(4.48669e-05 4.48087e-05 0.104506)
(-7.38373e-06 -3.55337e-05 0.101401)
(-3.53743e-05 -7.39288e-06 0.101398)
(-6.38343e-06 -6.37572e-06 0.0973039)
(1.6737e-05 4.34801e-05 0.101474)
(4.35565e-05 1.67372e-05 0.101471)
(3.23635e-06 5.72672e-07 0.0679527)
(-3.05238e-06 -7.49743e-07 0.0852978)
(-2.60746e-06 -9.65499e-07 0.0679025)
(8.38738e-06 -1.35459e-06 0.0853445)
(5.23572e-05 -1.92228e-06 0.101392)
(-7.95796e-06 -3.15512e-07 0.095282)
(-4.35105e-05 9.0983e-07 0.101274)
(1.63251e-05 -2.45313e-06 0.0953475)
(8.87205e-06 -1.04109e-06 0.0855811)
(3.23393e-06 5.03646e-07 0.0681992)
(1.9218e-05 -2.27183e-06 0.0954547)
(5.45283e-05 -3.16492e-06 0.101343)
(-1.21636e-05 4.85272e-07 0.0911414)
(-2.04361e-05 2.43284e-07 0.0984073)
(-4.55318e-05 4.48201e-05 0.104344)
(-2.99809e-06 6.82371e-06 0.110144)
(2.35551e-06 6.86445e-06 0.107625)
(2.57799e-07 1.20745e-05 0.0911409)
(9.90581e-07 1.19384e-05 0.0911403)
(4.43676e-05 4.43537e-05 0.10434)
(3.70612e-06 1.76686e-06 0.0713096)
(-5.28873e-06 -4.65898e-06 0.112824)
(7.74474e-06 -3.47756e-06 0.107622)
(-1.92627e-06 7.10656e-06 0.110135)
(-2.93737e-05 -2.96595e-05 0.104214)
(-1.91926e-06 -6.93595e-06 0.11015)
(5.64153e-07 -7.19651e-06 0.11015)
(4.46184e-05 -4.52318e-05 0.104344)
(7.18624e-06 -4.03387e-06 0.107629)
(5.86214e-06 3.27226e-07 0.110141)
(8.6404e-06 9.35499e-07 0.081966)
(-2.50045e-07 2.08915e-06 0.0872739)
(-3.57181e-06 -8.08947e-06 0.107622)
(6.6719e-07 -7.35131e-06 0.110135)
(-2.93076e-05 2.91516e-05 0.104217)
(3.93612e-06 9.37542e-07 0.0927579)
(5.16112e-07 6.47527e-07 0.0911128)
(2.62387e-06 3.46876e-07 0.0983568)
(5.91455e-06 1.23498e-06 0.110132)
(-4.1251e-06 -1.13743e-06 0.0819337)
(2.88502e-05 -2.91421e-05 0.104217)
(3.53707e-06 7.28477e-06 0.107618)
(8.1362e-08 -7.54674e-07 0.091113)
(7.98654e-07 -9.42962e-07 0.0911132)
(-2.03824e-06 -2.2108e-06 0.0712774)
(1.71899e-07 -1.22672e-06 0.115436)
(-9.72444e-07 -1.37112e-06 0.115436)
(-1.32971e-06 -2.72064e-06 0.115431)
(-2.48035e-06 2.27864e-07 0.115431)
(-8.65108e-06 -1.0001e-06 0.081964)
(-1.21781e-05 -2.14263e-07 0.0911408)
(-7.34557e-06 -2.9462e-06 0.107635)
(-1.56587e-05 -5.2755e-06 0.0928019)
(-2.03558e-05 -7.51673e-07 0.0984073)
(-7.84341e-06 -3.43865e-06 0.107628)
(-7.23717e-06 -1.76646e-06 0.110143)
(-6.79318e-06 -1.41537e-06 0.110151)
(-8.41396e-06 1.45464e-06 0.0819647)
(-8.60817e-06 2.81507e-06 0.107626)
(-7.51364e-06 7.49602e-07 0.110143)
(-1.57121e-05 5.33113e-06 0.0928008)
(-8.1272e-06 2.59397e-06 0.107632)
(-7.06623e-06 1.05206e-06 0.11015)
(-3.49315e-06 2.25772e-06 0.0713073)
(-7.13159e-06 5.26874e-06 0.087302)
(-4.88827e-06 7.40965e-06 0.0873036)
(-1.96653e-06 3.64215e-06 0.0713067)
(-4.26525e-06 7.69479e-06 0.107629)
(2.74186e-07 2.02435e-05 0.098407)
(-4.84103e-06 1.58351e-05 0.0928012)
(-4.52495e-06 7.23497e-06 0.107635)
(-3.47574e-06 6.8766e-06 0.110151)
(-2.74516e-07 6.40247e-06 0.110142)
(1.43339e-06 1.99672e-05 0.0984067)
(6.00251e-06 1.49152e-05 0.0928008)
(1.67978e-06 6.96236e-06 0.107632)
(-9.52249e-07 6.71531e-06 0.110151)
(-7.93283e-08 -4.83974e-06 0.0927459)
(-1.12238e-06 8.50821e-06 0.0819645)
(9.13064e-07 8.81072e-06 0.0819662)
(-1.84166e-08 -4.15222e-06 0.081917)
(6.73854e-06 4.95457e-06 0.0873047)
(5.10624e-06 6.78824e-06 0.0873032)
(-3.06392e-05 -3.00596e-05 0.104221)
(-6.1332e-07 -1.47894e-06 0.0872593)
(-1.60456e-06 -6.21502e-07 0.0872586)
(-2.12696e-06 -1.38579e-06 0.0712617)
(1.70586e-06 3.75127e-06 0.0713098)
(-1.48279e-06 -1.99486e-06 0.0712621)
(-5.11248e-07 -1.18286e-05 0.0911286)
(7.33302e-07 4.09887e-06 0.0819303)
(-2.05707e-07 6.7986e-07 0.0911127)
(-1.65095e-06 2.03746e-06 0.0712732)
(4.01948e-06 7.96632e-07 0.0819312)
(5.26346e-07 -9.7018e-08 0.091113)
(-2.34257e-06 -1.33533e-06 0.115423)
(-2.12356e-06 -2.3871e-06 0.115423)
(-2.49382e-06 -5.4745e-08 0.115425)
(6.39394e-06 -2.0187e-06 0.110134)
(2.01289e-05 2.8933e-07 0.0984106)
(-4.05833e-06 1.57066e-06 0.0927583)
(-3.30905e-06 2.59685e-07 0.0983561)
(7.1683e-06 -1.11364e-06 0.110125)
(2.17401e-06 -1.48174e-06 0.0712743)
(-3.68233e-06 8.3013e-06 0.107623)
(4.46842e-07 -2.92266e-06 0.0983564)
(1.45649e-06 -3.83225e-06 0.0927578)
(-3.07414e-07 -2.56004e-06 0.0872751)
(-2.38309e-06 -2.50585e-07 0.0872745)
(4.57793e-05 4.4948e-05 0.104334)
(7.25097e-06 4.16939e-06 0.0873194)
(4.32417e-06 7.35898e-06 0.0873184)
(-1.94117e-06 -3.6823e-06 0.0713061)
(1.72277e-06 2.09862e-06 0.0712569)
(-3.73156e-06 -1.90542e-06 0.0713068)
(2.96687e-05 2.99693e-05 0.104222)
(-7.34213e-06 -5.09722e-06 0.087304)
(-4.50439e-05 -4.50056e-05 0.104345)
(-5.01366e-06 -7.34259e-06 0.0873015)
(2.14381e-06 2.32122e-07 0.0872567)
(2.5297e-07 -1.1872e-05 0.0911287)
(-6.74076e-07 -1.97697e-05 0.0984025)
(2.6798e-07 -1.98495e-05 0.0984028)
(-5.15512e-07 8.98567e-07 0.0911005)
(-1.11402e-06 -8.64031e-06 0.0819628)
(4.28588e-07 4.32156e-06 0.081913)
(-2.75641e-07 -1.20819e-05 0.0911401)
(3.10532e-07 8.57982e-07 0.0911007)
(1.28103e-06 -8.5936e-06 0.0819647)
(-3.54876e-07 4.25657e-06 0.0819138)
(4.57598e-07 -1.2076e-05 0.0911403)
(-3.50728e-06 -7.19361e-06 0.107632)
(-3.69948e-06 -7.53792e-06 0.107626)
(-2.22089e-06 -6.9505e-06 0.110143)
(-7.1254e-07 3.42408e-06 0.0983517)
(-5.24706e-06 -1.56112e-05 0.0927995)
(9.13329e-07 4.73132e-06 0.092744)
(-6.17891e-07 -2.01145e-05 0.0984067)
(3.82612e-07 -7.18059e-06 0.110143)
(2.62323e-06 -8.24697e-06 0.107626)
(2.43166e-06 -8.14495e-06 0.107631)
(2.80098e-07 3.33616e-06 0.0983519)
(5.51525e-06 -1.5332e-05 0.092801)
(-9.77441e-07 4.6348e-06 0.0927451)
(4.61531e-07 -2.01493e-05 0.098407)
(2.09089e-06 -3.55334e-06 0.0713085)
(-1.58395e-06 2.02262e-06 0.0712563)
(-3.04652e-05 2.87206e-05 0.104222)
(5.2105e-06 -6.90998e-06 0.0873033)
(7.26308e-06 -4.75492e-06 0.0873031)
(-2.09438e-06 2.83094e-07 0.0872568)
(-8.42055e-08 2.20097e-06 0.0872598)
(3.68631e-06 -1.78913e-06 0.0713068)
(-2.00818e-06 1.88377e-06 0.071259)
(6.30763e-06 -2.85876e-06 0.110143)
(6.95993e-06 -4.4121e-06 0.107635)
(6.70143e-06 -3.26588e-06 0.110151)
(-3.0821e-06 -6.69895e-07 0.0983522)
(1.55609e-05 -4.82761e-06 0.092801)
(-4.2011e-06 9.77716e-07 0.0927464)
(1.99511e-05 1.12707e-07 0.0984063)
(-6.39341e-07 2.67008e-08 0.0911013)
(8.54899e-06 -8.68157e-07 0.0819647)
(-4.24978e-06 6.22751e-07 0.081915)
(1.19174e-05 3.02192e-07 0.09114)
(6.35973e-06 2.482e-06 0.107623)
(1.47914e-05 5.73196e-06 0.0928005)
(6.46725e-06 -2.4341e-07 0.110151)
(6.37807e-06 2.20434e-06 0.107631)
(-4.72054e-06 -5.0303e-08 0.0927455)
(-3.08963e-06 4.91425e-07 0.0983521)
(1.97193e-05 1.28957e-06 0.0984058)
(-4.35269e-06 9.26421e-08 0.0819165)
(-6.81123e-07 1.02257e-06 0.0911015)
(1.17791e-05 1.03582e-06 0.0911397)
(1.86656e-06 2.03963e-06 0.0712743)
(1.95248e-06 1.89772e-06 0.0712744)
(2.9029e-05 2.90817e-05 0.104217)
(2.23239e-06 -3.1467e-07 0.087272)
(-5.47801e-07 4.07864e-06 0.0819309)
(5.2914e-07 7.0841e-07 0.0911128)
(-2.15349e-06 -7.24357e-06 0.110135)
(1.08278e-06 3.80474e-06 0.0927561)
(-4.95944e-07 2.97043e-06 0.0983563)
(3.27112e-06 -8.37797e-06 0.10762)
(-6.49277e-07 4.25701e-06 0.092757)
(5.70247e-07 2.99343e-06 0.0983564)
(-1.94312e-06 1.14453e-07 0.0872719)
(1.93622e-07 2.54907e-06 0.087275)
(-2.07253e-06 2.02664e-06 0.0712756)
(2.6975e-06 -6.7414e-07 0.0983568)
(-8.35369e-06 -3.99551e-06 0.107624)
(-7.79643e-06 -2.10374e-06 0.110136)
(4.30272e-06 -3.17143e-07 0.0819316)
(-8.80416e-06 3.29932e-06 0.107621)
(-7.97887e-06 6.90268e-07 0.110136)
(3.96577e-06 -7.63926e-07 0.0927569)
(1.16825e-05 -2.57388e-07 0.091153)
(-4.22802e-06 9.82548e-07 0.0819323)
(-1.00091e-06 1.8185e-07 0.0911132)
(7.06498e-06 3.03419e-06 0.107616)
(-4.80766e-06 -8.59866e-07 0.0927571)
(1.98923e-05 1.12885e-06 0.0984102)
(8.19768e-06 3.66002e-06 0.10761)
(-3.57148e-06 1.40417e-06 0.0983557)
(6.77879e-06 2.11748e-06 0.110123)
(1.54831e-05 4.33448e-06 0.0928134)
(1.15923e-05 7.92219e-08 0.0911527)
(-1.15358e-06 8.73919e-07 0.0911131)
(8.56101e-06 2.88624e-07 0.0819815)
(1.34092e-09 -1.84433e-06 0.0872724)
(2.34321e-06 2.46361e-07 0.0872743)
(1.80122e-06 -2.15414e-06 0.071275)
(1.15284e-06 6.54808e-06 0.110133)
(1.59702e-06 -3.2663e-06 0.0983562)
(-5.31043e-07 -4.69431e-06 0.0927577)
(4.71482e-06 7.99849e-06 0.107612)
(4.56028e-06 1.55891e-05 0.0928137)
(6.5412e-07 -4.29923e-06 0.0819319)
(-1.15717e-06 -3.96333e-06 0.081934)
(2.20739e-07 8.68014e-06 0.0819819)
(3.66986e-06 1.47167e-06 0.0713229)
(-2.27484e-06 -1.99066e-06 0.071278)
(1.36268e-06 3.68088e-06 0.0713232)
(1.78538e-06 1.12133e-06 0.0765756)
(-5.38584e-06 4.09821e-07 0.0783801)
(-1.1598e-05 1.08867e-06 0.0896488)
(6.73448e-07 4.14992e-07 0.0911063)
(1.22213e-06 6.38683e-07 0.0783484)
(1.29379e-06 8.76259e-07 0.0896088)
(-5.07116e-06 -1.28277e-07 0.0766119)
(-8.3737e-07 -1.761e-06 0.0765756)
(-4.11841e-07 1.16422e-05 0.0896492)
(-2.56899e-07 5.34504e-06 0.0783801)
(2.2882e-07 -6.54393e-07 0.0911067)
(-3.71242e-07 -1.11522e-06 0.0896085)
(-3.8318e-07 -1.25909e-06 0.0783499)
(3.78434e-07 4.96067e-06 0.0766135)
(5.41056e-07 -1.57253e-06 0.0765779)
(1.46081e-06 1.12939e-05 0.0896478)
(-2.49483e-07 5.42922e-06 0.0783793)
(1.09612e-06 -8.01178e-07 0.0911071)
(1.6501e-06 -1.56062e-06 0.0896101)
(1.32053e-07 -1.23382e-06 0.0783507)
(-1.01661e-06 5.3315e-06 0.0766111)
(-2.06215e-06 -1.82438e-06 0.0712702)
(-2.29478e-06 9.75508e-07 0.0681405)
(-4.18721e-06 -4.99839e-07 0.0819254)
(8.66211e-06 1.56368e-06 0.0855646)
(-2.46865e-06 1.34986e-06 0.0855213)
(3.50199e-06 -7.19098e-07 0.0681852)
(-1.26056e-05 -7.02722e-06 0.0914661)
(4.42313e-06 2.11753e-06 0.0960815)
(5.31517e-07 1.59422e-06 0.081283)
(-7.42997e-06 -5.10459e-06 0.0873115)
(2.91724e-06 1.03745e-07 0.0914351)
(-5.97136e-06 -2.12783e-06 0.081318)
(-1.76873e-05 -1.04746e-05 0.0961239)
(-5.10493e-06 -1.05754e-07 0.0766208)
(1.17712e-06 6.64554e-07 0.0783573)
(1.20016e-06 1.12287e-06 0.0896161)
(-1.22764e-05 7.42546e-07 0.0911479)
(1.75116e-06 1.18681e-06 0.0765845)
(-5.42596e-06 3.95251e-07 0.0783889)
(-1.16462e-05 1.33656e-06 0.0896562)
(3.45572e-06 -1.10885e-06 0.0681925)
(-2.3528e-06 5.60864e-07 0.0855296)
(8.63926e-06 4.19176e-07 0.0819739)
(-2.33217e-06 4.93779e-07 0.0681483)
(8.79746e-06 7.6937e-07 0.0855728)
(1.45454e-07 4.86768e-06 0.0766221)
(-4.0647e-07 -1.2174e-06 0.0896156)
(-6.35504e-07 -1.32714e-06 0.0783588)
(-8.90592e-08 1.19541e-05 0.0911473)
(-1.01827e-06 -1.86262e-06 0.0765845)
(-6.12377e-07 1.14758e-05 0.0896564)
(-5.30382e-07 5.2771e-06 0.0783887)
(-1.55764e-06 5.25847e-06 0.0766197)
(9.7652e-07 -1.57853e-06 0.089617)
(-1.54504e-07 -1.31033e-06 0.0783596)
(4.8634e-07 1.18143e-05 0.0911466)
(-4.62333e-08 -1.6208e-06 0.0765866)
(6.05916e-07 1.13339e-05 0.0896549)
(-5.39757e-07 5.34515e-06 0.078388)
(3.70765e-06 1.48807e-06 0.0713164)
(2.24841e-06 -6.01798e-07 0.0681346)
(4.15256e-06 7.35594e-07 0.0819224)
(-9.1117e-06 -1.16759e-06 0.0855634)
(2.04675e-06 -6.52932e-07 0.0855193)
(-3.52585e-06 8.80196e-07 0.0681807)
(1.57481e-06 -3.05582e-07 0.0765767)
(-1.17194e-05 -7.06664e-07 0.089648)
(-5.49428e-06 3.32618e-07 0.078379)
(7.1843e-07 -3.35079e-07 0.0911066)
(1.28557e-06 -7.3123e-07 0.0896094)
(1.20157e-06 6.44357e-08 0.0783492)
(-5.37502e-06 1.01984e-06 0.0766107)
(2.49517e-06 1.35946e-06 0.0681365)
(-8.96627e-06 1.7238e-06 0.0855639)
(4.34894e-06 -3.4913e-07 0.0819225)
(2.162e-06 1.04834e-06 0.0855191)
(-3.3317e-06 -3.79636e-08 0.068183)
(2.15704e-06 -1.54819e-06 0.0712654)
(3.16843e-06 -1.56721e-07 0.0914221)
(-1.75427e-05 1.03319e-05 0.0961146)
(-5.67131e-06 2.38377e-06 0.081307)
(-2.11779e-08 -2.0139e-06 0.0872643)
(4.62199e-06 -2.46489e-06 0.0960741)
(8.38176e-07 -1.43333e-06 0.0812727)
(-1.2245e-05 7.21307e-06 0.0914563)
(4.43714e-07 -1.33161e-07 0.0833457)
(-2.02037e-06 2.30261e-06 0.0681139)
(-2.15612e-06 2.10026e-06 0.0681201)
(8.93345e-07 -1.38923e-06 0.0680793)
(1.56008e-06 -7.91975e-07 0.0680853)
(-4.74503e-06 5.08854e-06 0.0833761)
(3.69532e-07 -2.9174e-06 0.0914286)
(-1.00195e-05 1.78394e-05 0.0961179)
(-2.13782e-06 5.86728e-06 0.0813128)
(2.31529e-06 1.83547e-07 0.0872666)
(1.65388e-06 -6.67612e-07 0.0812779)
(2.46216e-06 -4.47264e-06 0.096077)
(-6.81965e-06 1.26288e-05 0.0914633)
(1.87523e-06 -2.08575e-06 0.0712664)
(-1.1898e-06 -2.38636e-06 0.0681323)
(-1.29601e-06 9.01475e-06 0.0855644)
(6.69471e-07 -4.24122e-06 0.0819228)
(-7.24919e-07 -1.99969e-06 0.0855178)
(2.68992e-07 3.2553e-06 0.0681829)
(6.55635e-07 -2.22053e-06 0.0681402)
(1.42961e-06 8.77827e-06 0.0855653)
(-5.42349e-07 -4.00694e-06 0.0819257)
(1.19535e-06 -2.33389e-06 0.085522)
(-1.02508e-06 3.59868e-06 0.068185)
(-5.45472e-07 3.57666e-06 0.0681769)
(1.52649e-06 8.71871e-06 0.0819577)
(1.57677e-06 -2.32097e-06 0.0855139)
(1.08334e-06 -2.27972e-06 0.0681316)
(2.03925e-06 8.76925e-06 0.0855572)
(-3.48177e-06 -1.02759e-07 0.0914271)
(1.69141e-05 1.04173e-05 0.0961163)
(5.64915e-06 2.03259e-06 0.0813158)
(-5.50106e-07 -1.95864e-06 0.0872672)
(-8.18128e-07 -1.54335e-06 0.0812797)
(1.18902e-05 6.96727e-06 0.091464)
(-5.271e-06 -2.11362e-06 0.0960751)
(-7.87161e-07 -7.63371e-07 0.0833456)
(1.86794e-06 2.28362e-06 0.0681225)
(2.11825e-06 2.05693e-06 0.0681171)
(-9.76952e-07 -1.27394e-06 0.0680852)
(-1.50583e-06 -8.85755e-07 0.068082)
(4.38596e-06 4.46681e-06 0.0833787)
(-7.60735e-08 -3.62804e-06 0.0914212)
(1.07138e-05 1.67076e-05 0.0961129)
(2.00293e-06 5.89761e-06 0.0813107)
(-1.89091e-06 -5.03515e-07 0.0872666)
(-2.00117e-06 -5.40604e-06 0.0960723)
(-1.61806e-06 -6.60983e-07 0.0812758)
(7.0667e-06 1.17608e-05 0.0914573)
(1.19419e-05 7.19654e-06 0.0914573)
(6.55182e-06 5.53841e-06 0.0872969)
(-5.21962e-06 -2.21345e-06 0.0960719)
(-7.8385e-07 -1.154e-06 0.0812715)
(5.66573e-06 2.37577e-06 0.0813082)
(1.68547e-05 1.04297e-05 0.0961126)
(-3.42952e-06 7.6937e-08 0.091421)
(4.39402e-06 4.43731e-06 0.0833708)
(-9.43077e-07 -1.15233e-06 0.0680789)
(-1.42893e-06 -9.11503e-07 0.0680756)
(1.91018e-06 2.41515e-06 0.0681162)
(2.22973e-06 2.04267e-06 0.0681111)
(-7.53065e-07 -6.83717e-07 0.0833381)
(7.12891e-06 1.18484e-05 0.0914506)
(5.53355e-06 6.59798e-06 0.0872953)
(-2.46628e-06 -5.26876e-06 0.0960686)
(-1.32621e-06 -7.74985e-07 0.0812675)
(1.03803e-05 1.67456e-05 0.0961089)
(2.30399e-06 5.81369e-06 0.0813028)
(-1.62708e-07 -3.47364e-06 0.091415)
(3.65018e-06 2.21442e-06 0.0713018)
(-1.89773e-06 -1.97791e-06 0.0712706)
(2.1364e-06 3.75136e-06 0.0713019)
(-8.90401e-07 1.88865e-06 0.0765596)
(-1.27295e-07 -5.26968e-06 0.078362)
(-1.09713e-06 -1.12994e-05 0.0896344)
(-5.12528e-07 1.13126e-06 0.0910947)
(-3.87825e-07 1.46214e-06 0.0783327)
(-9.35231e-07 1.70584e-06 0.0895957)
(3.84172e-07 -5.06499e-06 0.0765939)
(5.53782e-07 -3.43535e-06 0.068189)
(-6.68158e-07 1.9626e-06 0.0855263)
(-1.00577e-06 -8.6407e-06 0.0819717)
(-8.80161e-07 2.35514e-06 0.0681428)
(-1.17881e-06 -9.15142e-06 0.0855708)
(6.54778e-07 -5.21384e-06 0.0766197)
(-1.11285e-07 -1.21664e-05 0.0911465)
(-2.57234e-07 1.24111e-06 0.0783585)
(-5.89675e-07 1.19864e-06 0.0896158)
(-6.07224e-07 1.70608e-06 0.0765858)
(-3.67561e-08 -5.45579e-06 0.0783876)
(-5.66623e-07 -1.17285e-05 0.0896545)
(2.0059e-06 -3.53704e-06 0.0713168)
(-3.50075e-06 8.54036e-07 0.0681887)
(1.9074e-06 -4.91227e-07 0.0855276)
(-8.75416e-06 -9.59347e-07 0.0819728)
(2.28425e-06 -5.44118e-07 0.0681433)
(-9.2279e-06 -1.02031e-06 0.0855715)
(-5.37733e-06 1.05231e-06 0.0766198)
(1.05715e-06 -4.57698e-07 0.0896166)
(1.15888e-06 9.23017e-08 0.0783583)
(-1.23399e-05 5.20797e-08 0.0911474)
(1.54712e-06 -2.07594e-07 0.0765859)
(-1.1923e-05 -4.05805e-07 0.0896551)
(-5.52195e-06 3.09318e-07 0.078388)
(-3.50437e-06 2.28905e-06 0.0713159)
(1.19209e-05 6.76704e-06 0.0914709)
(-5.1089e-06 -2.21775e-06 0.0960793)
(-8.50921e-07 -1.84101e-06 0.0812868)
(7.02296e-06 4.41991e-06 0.0873122)
(-3.48133e-06 -3.37923e-07 0.0914339)
(1.7127e-05 1.02336e-05 0.096121)
(5.60295e-06 1.81208e-06 0.0813226)
(4.47228e-06 4.66319e-06 0.083386)
(-9.71233e-07 -1.38012e-06 0.0680906)
(-1.61804e-06 -8.83655e-07 0.0680876)
(-7.39754e-07 -6.25974e-07 0.083353)
(1.89987e-06 2.17038e-06 0.0681281)
(2.03623e-06 2.05937e-06 0.0681226)
(6.88176e-06 1.19049e-05 0.0914641)
(-1.801e-06 -5.27388e-06 0.0960768)
(-1.89595e-06 -6.05251e-07 0.0812834)
(4.61575e-06 7.08377e-06 0.087311)
(-2.21415e-07 -3.59113e-06 0.0914281)
(1.07225e-05 1.6936e-05 0.0961177)
(1.79017e-06 5.93557e-06 0.0813179)
(-6.04179e-07 -3.77336e-07 0.0833599)
(1.99303e-06 2.06103e-06 0.0681334)
(2.03694e-06 2.01473e-06 0.068128)
(-8.87167e-07 -1.47439e-06 0.0680956)
(-1.66729e-06 -9.04876e-07 0.068093)
(4.6357e-06 4.92204e-06 0.0833929)
(-3.41251e-06 -4.79035e-07 0.0914405)
(-4.19651e-08 -2.9689e-06 0.0872824)
(5.5637e-06 1.74891e-06 0.0813287)
(1.73984e-05 1.00625e-05 0.0961262)
(-4.83281e-06 -2.41161e-06 0.0960844)
(-8.89223e-07 -1.98183e-06 0.081293)
(1.19707e-05 6.68438e-06 0.0914775)
(-4.38936e-07 -3.36688e-06 0.0914349)
(-2.79607e-06 4.53007e-08 0.0872822)
(1.74746e-06 5.91674e-06 0.0813247)
(1.04698e-05 1.73122e-05 0.096123)
(-1.94064e-06 -4.94371e-06 0.0960819)
(-2.03111e-06 -5.88201e-07 0.0812903)
(6.64857e-06 1.21573e-05 0.0914708)
(1.8235e-06 2.04931e-06 0.0712656)
(-2.01871e-06 -3.65756e-06 0.0712975)
(1.95236e-06 1.86363e-06 0.0712655)
(3.06852e-06 1.5986e-07 0.0914286)
(-1.05316e-07 2.13313e-06 0.0872662)
(-1.76067e-05 -1.03777e-05 0.0961202)
(-5.91016e-06 -2.1737e-06 0.0813098)
(4.65169e-06 2.35314e-06 0.096078)
(6.25198e-07 1.55366e-06 0.0812749)
(-1.24609e-05 -7.15048e-06 0.0914614)
(3.01882e-07 3.29402e-06 0.0914232)
(-1.02962e-05 -1.74984e-05 0.0961142)
(2.17206e-06 1.78091e-08 0.0872642)
(-2.21223e-06 -5.83845e-06 0.0813093)
(1.51162e-06 7.20504e-07 0.0812746)
(2.41325e-06 4.88776e-06 0.0960716)
(-7.06256e-06 -1.22823e-05 0.0914561)
(-6.90049e-06 -1.20356e-05 0.0914507)
(2.57094e-06 5.22622e-06 0.0960677)
(1.4909e-06 8.86912e-07 0.081267)
(-5.06904e-06 -7.04754e-06 0.0872938)
(4.51902e-07 3.53875e-06 0.0914172)
(-2.24037e-06 -5.68053e-06 0.0813017)
(-1.01368e-05 -1.70688e-05 0.0961097)
(5.97946e-08 5.79971e-07 0.0833478)
(-2.26157e-06 -2.01575e-06 0.0681162)
(-2.44123e-06 -1.95224e-06 0.0681158)
(1.23646e-06 1.02709e-06 0.0680828)
(6.29134e-07 1.65791e-06 0.0680826)
(-5.22543e-06 -4.70982e-06 0.083373)
(7.79815e-07 1.86827e-06 0.0765602)
(1.89612e-08 -5.29841e-06 0.0783621)
(9.03469e-07 -1.13696e-05 0.0896345)
(2.45269e-07 1.09724e-06 0.0910949)
(2.47951e-07 1.43215e-06 0.0783329)
(7.11916e-07 1.65999e-06 0.0895966)
(-4.4448e-07 -5.11733e-06 0.0765932)
(4.90325e-07 -5.16408e-06 0.0766023)
(-3.34109e-07 1.34698e-06 0.0783409)
(-1.02088e-06 1.4918e-06 0.0896022)
(-4.48974e-07 -1.19985e-05 0.0911343)
(-8.37093e-07 1.77946e-06 0.076568)
(-6.22354e-08 -5.37216e-06 0.0783703)
(-1.0684e-06 -1.14746e-05 0.0896408)
(-9.61879e-07 2.34664e-06 0.0681339)
(5.84367e-07 4.17502e-06 0.0819216)
(-1.36687e-06 -9.0591e-06 0.0855625)
(5.39748e-07 -3.43163e-06 0.0681807)
(-8.92516e-07 2.08284e-06 0.0855179)
(4.21541e-07 -3.40035e-06 0.0681724)
(-1.03234e-06 2.23711e-06 0.0855098)
(-1.28502e-06 -8.53653e-06 0.0819541)
(-1.10672e-06 2.38868e-06 0.0681253)
(-1.5589e-06 -8.9286e-06 0.0855545)
(-6.99369e-07 1.71178e-06 0.0765767)
(-3.90561e-07 7.66684e-07 0.0911064)
(-1.65426e-08 -5.42728e-06 0.0783788)
(-8.24555e-07 -1.16123e-05 0.0896474)
(6.26e-07 -5.2087e-06 0.0766109)
(-2.71626e-07 1.27159e-06 0.0783495)
(-8.70039e-07 1.32885e-06 0.0896089)
(-4.30136e-07 -5.17517e-06 0.0766016)
(2.83895e-07 1.32817e-06 0.0783411)
(8.82146e-07 1.47931e-06 0.0896032)
(3.42344e-07 -1.20307e-05 0.0911345)
(8.44667e-07 1.78203e-06 0.0765685)
(5.11349e-08 -5.38261e-06 0.0783703)
(1.03673e-06 -1.14804e-05 0.0896408)
(1.01762e-06 2.4004e-06 0.0681374)
(-3.81265e-07 4.13516e-06 0.0819223)
(1.53732e-06 -8.94863e-06 0.0855636)
(1.03247e-06 2.17265e-06 0.0855201)
(-4.79935e-07 -3.42425e-06 0.0681827)
(-3.60349e-07 -3.41311e-06 0.0681743)
(1.02836e-06 2.22672e-06 0.0855122)
(1.3984e-06 -8.51804e-06 0.0819562)
(1.09691e-06 2.4214e-06 0.068129)
(1.63132e-06 -8.91138e-06 0.0855556)
(7.9856e-07 1.73964e-06 0.076577)
(4.20702e-07 7.52652e-07 0.0911066)
(4.4282e-08 -5.42262e-06 0.0783789)
(1.05754e-06 -1.1518e-05 0.0896475)
(2.97658e-07 1.27127e-06 0.0783496)
(9.68359e-07 1.39405e-06 0.0896097)
(-5.31713e-07 -5.19821e-06 0.0766103)
(-1.57334e-06 2.00997e-06 0.0712648)
(2.14428e-06 -3.58758e-06 0.0713001)
(5.00267e-06 -4.54984e-06 0.0833692)
(-1.33689e-06 1.04412e-06 0.0680739)
(-7.87478e-07 1.47622e-06 0.0680771)
(2.38393e-06 -1.85509e-06 0.0681089)
(2.14844e-06 -2.14979e-06 0.0681119)
(-2.96335e-07 5.30514e-07 0.083338)
(-1.88422e-07 3.38947e-06 0.0914216)
(1.034e-05 -1.71415e-05 0.0961149)
(-1.95736e-06 2.0263e-07 0.0872642)
(2.3171e-06 -5.58095e-06 0.0813093)
(-2.46986e-06 4.96064e-06 0.0960731)
(-1.38859e-06 8.44434e-07 0.0812729)
(7.1781e-06 -1.19328e-05 0.0914578)
(-2.99674e-06 4.00069e-07 0.0914285)
(1.76304e-05 -9.9529e-06 0.0961179)