/*--------------------------------*- C++ -*----------------------------------*\
| =========                 |                                                 |
| \\      /  F ield         | OpenFOAM: The Open Source CFD Toolbox           |
|  \\    /   O peration     | Version:  v2012                                 |
|   \\  /    A nd           | Website:  www.openfoam.com                      |
|    \\/     M anipulation  |                                                 |
\*---------------------------------------------------------------------------*/
FoamFile
{
    version     2.0;
    format      ascii;
    class       volScalarField;
    location    "50";
    object      k;
}
// * * * * * * * * * * * * * * * * * * * * * * * * * * * * * * * * * * * * * //

dimensions      [0 2 -2 0 0 0 0];


internalField   nonuniform List<scalar> 
171728
(
2.0336e-05
4.30114e-06
4.42854e-06
1.50902e-06
2.08433e-05
5.35155e-06
5.46632e-06
2.12178e-06
2.16164e-05
6.86598e-06
6.98905e-06
3.0274e-06
2.23431e-05
8.7207e-06
8.80043e-06
4.35199e-06
2.30654e-05
1.09731e-05
1.10369e-05
6.13814e-06
2.38767e-05
1.35719e-05
1.35827e-05
8.5764e-06
2.48978e-05
1.64877e-05
1.65109e-05
1.17042e-05
2.61536e-05
1.96348e-05
1.96441e-05
1.53546e-05
2.75902e-05
2.28915e-05
2.28953e-05
1.95653e-05
2.90985e-05
2.61235e-05
2.61233e-05
2.38951e-05
3.00954e-05
2.85058e-05
2.85054e-05
2.76077e-05
3.08361e-05
3.05652e-05
3.05652e-05
3.0573e-05
3.12997e-05
3.17926e-05
3.17926e-05
3.24002e-05
3.14238e-05
3.20705e-05
3.20705e-05
3.27341e-05
3.14418e-05
3.21036e-05
3.21037e-05
3.27622e-05
3.14444e-05
3.21084e-05
3.21084e-05
3.27678e-05
3.14452e-05
3.21096e-05
3.21095e-05
3.27682e-05
3.14457e-05
3.21101e-05
3.21101e-05
3.27687e-05
3.14462e-05
3.21106e-05
3.21106e-05
3.27686e-05
3.14465e-05
3.21108e-05
3.21109e-05
3.27688e-05
3.14467e-05
3.21108e-05
3.21109e-05
3.27689e-05
3.14466e-05
3.21107e-05
3.21109e-05
3.27688e-05
3.14464e-05
3.21107e-05
3.21109e-05
3.27688e-05
3.14466e-05
3.21108e-05
3.21109e-05
3.27687e-05
3.14465e-05
3.21108e-05
3.21108e-05
3.27686e-05
3.14466e-05
3.21107e-05
3.21109e-05
3.27689e-05
3.14466e-05
3.21109e-05
3.21109e-05
3.27687e-05
3.14467e-05
3.21108e-05
3.2111e-05
3.27688e-05
3.14467e-05
3.21108e-05
3.21109e-05
3.27688e-05
3.14466e-05
3.21108e-05
3.21108e-05
3.27688e-05
3.14466e-05
3.21107e-05
3.21108e-05
3.27688e-05
3.14465e-05
3.21108e-05
3.21109e-05
3.27688e-05
3.14464e-05
3.21108e-05
3.21109e-05
3.27688e-05
3.14462e-05
3.21108e-05
3.21109e-05
3.27688e-05
3.14462e-05
3.21108e-05
3.21109e-05
3.27688e-05
3.14463e-05
3.21108e-05
3.21108e-05
3.27688e-05
3.14465e-05
3.21108e-05
3.21108e-05
3.27688e-05
3.14465e-05
3.21108e-05
3.21108e-05
3.27688e-05
3.14465e-05
3.21108e-05
3.21108e-05
3.27688e-05
3.14466e-05
3.21108e-05
3.21108e-05
3.27688e-05
3.14467e-05
3.21108e-05
3.21109e-05
3.27688e-05
3.14465e-05
3.21108e-05
3.21108e-05
3.27688e-05
3.14464e-05
3.21108e-05
3.21109e-05
3.27687e-05
3.14465e-05
3.21108e-05
3.21109e-05
3.27687e-05
3.14465e-05
3.21108e-05
3.21108e-05
3.27688e-05
3.14464e-05
3.21108e-05
3.21109e-05
3.27686e-05
3.14465e-05
3.21108e-05
3.21108e-05
3.27688e-05
3.14467e-05
3.21108e-05
3.21108e-05
3.27688e-05
3.14466e-05
3.21108e-05
3.21108e-05
3.27688e-05
3.14465e-05
3.21108e-05
3.21109e-05
3.27688e-05
3.14466e-05
3.21109e-05
3.21109e-05
3.27688e-05
3.14465e-05
3.21108e-05
3.21108e-05
3.27688e-05
3.14466e-05
3.21107e-05
3.21107e-05
3.27688e-05
3.14466e-05
3.21107e-05
3.21108e-05
3.27688e-05
3.14465e-05
3.21108e-05
3.21108e-05
3.27688e-05
3.14464e-05
3.21109e-05
3.21108e-05
3.27688e-05
3.14465e-05
3.21108e-05
3.21108e-05
3.27687e-05
3.14464e-05
3.21108e-05
3.21108e-05
3.27688e-05
3.14463e-05
3.21107e-05
3.21108e-05
3.27687e-05
3.14463e-05
3.21107e-05
3.21108e-05
3.27688e-05
3.14463e-05
3.21107e-05
3.21108e-05
3.27688e-05
3.14465e-05
3.21108e-05
3.21108e-05
3.27688e-05
3.14465e-05
3.21108e-05
3.21108e-05
3.27688e-05
3.14465e-05
3.21108e-05
3.21107e-05
3.27688e-05
3.14464e-05
3.21108e-05
3.21107e-05
3.27687e-05
3.14463e-05
3.21107e-05
3.21108e-05
3.27687e-05
3.14462e-05
3.21108e-05
3.21108e-05
3.27686e-05
3.14462e-05
3.21108e-05
3.21109e-05
3.27688e-05
3.14462e-05
3.21108e-05
3.21108e-05
3.27686e-05
3.14463e-05
3.21108e-05
3.21108e-05
3.27686e-05
3.14465e-05
3.21107e-05
3.21109e-05
3.27688e-05
3.14465e-05
3.21108e-05
3.21109e-05
3.27688e-05
3.14464e-05
3.21108e-05
3.21108e-05
3.27688e-05
3.14464e-05
3.21107e-05
3.21108e-05
3.27688e-05
3.14465e-05
3.21107e-05
3.21108e-05
3.27688e-05
3.14464e-05
3.21107e-05
3.21108e-05
3.27688e-05
3.14464e-05
3.21107e-05
3.21108e-05
3.27688e-05
3.14464e-05
3.21107e-05
3.21108e-05
3.27688e-05
3.14464e-05
3.21107e-05
3.21108e-05
3.27688e-05
3.14464e-05
3.21107e-05
3.21108e-05
3.27688e-05
3.14466e-05
3.21108e-05
3.21108e-05
3.27688e-05
3.14466e-05
3.21108e-05
3.21109e-05
3.27688e-05
3.14466e-05
3.21108e-05
3.2111e-05
3.27688e-05
3.14465e-05
3.21108e-05
3.2111e-05
3.27688e-05
3.14464e-05
3.21111e-05
3.2111e-05
3.27689e-05
3.14464e-05
3.21112e-05
3.21112e-05
3.27688e-05
3.14466e-05
3.21112e-05
3.21112e-05
3.27687e-05
3.14467e-05
3.21112e-05
3.21113e-05
3.27688e-05
3.14467e-05
3.21114e-05
3.21113e-05
3.27688e-05
3.14469e-05
3.21115e-05
3.21114e-05
3.27687e-05
3.14471e-05
3.21117e-05
3.21116e-05
3.27688e-05
3.14472e-05
3.21118e-05
3.21118e-05
3.2769e-05
3.14472e-05
3.21121e-05
3.21121e-05
3.27691e-05
3.14472e-05
3.21114e-05
3.21114e-05
3.27677e-05
3.14358e-05
3.19702e-05
3.19701e-05
3.26535e-05
1.43773e-06
4.43958e-06
4.5326e-06
1.5405e-06
4.40573e-06
4.35508e-06
2.04529e-05
2.04519e-05
2.04489e-05
2.04448e-05
4.2896e-06
4.474e-06
1.46394e-06
4.37733e-06
4.36416e-06
1.49226e-06
1.4519e-06
2.02417e-06
4.77068e-06
4.42264e-06
5.45686e-06
5.09913e-06
1.55391e-06
2.09244e-06
4.70625e-06
4.45214e-06
5.36736e-06
5.13518e-06
4.74433e-06
5.0096e-06
5.3949e-06
1.48117e-06
2.06929e-06
4.29955e-06
5.12648e-06
5.00199e-06
2.08267e-06
2.06074e-06
2.92287e-06
5.78581e-06
5.43506e-06
6.84194e-06
6.52907e-06
2.13055e-06
2.95432e-06
5.68481e-06
5.46961e-06
6.74444e-06
6.54936e-06
5.70655e-06
6.46959e-06
6.73711e-06
2.10921e-06
2.96627e-06
5.34738e-06
6.5916e-06
6.4645e-06
2.96092e-06
2.99349e-06
4.26427e-06
7.21485e-06
6.92325e-06
8.45074e-06
8.25513e-06
3.01914e-06
4.23869e-06
7.1334e-06
6.93608e-06
8.44718e-06
8.26372e-06
7.11251e-06
8.21756e-06
8.3934e-06
3.03296e-06
4.26157e-06
6.86339e-06
8.31027e-06
8.20362e-06
4.25571e-06
4.36158e-06
6.01628e-06
8.89738e-06
8.75388e-06
1.04038e-05
1.03955e-05
4.33621e-06
6.00902e-06
8.92922e-06
8.75922e-06
1.0488e-05
1.03944e-05
8.86087e-06
1.03772e-05
1.04036e-05
4.36041e-06
6.04126e-06
8.7051e-06
1.04305e-05
1.03547e-05
5.9952e-06
6.15933e-06
8.39664e-06
1.0976e-05
1.09923e-05
1.28243e-05
1.29011e-05
6.15382e-06
8.41192e-06
1.10584e-05
1.09864e-05
1.29037e-05
1.288e-05
1.09788e-05
1.28799e-05
1.28433e-05
6.18689e-06
8.42616e-06
1.09578e-05
1.28976e-05
1.2862e-05
8.38019e-06
8.59164e-06
1.14494e-05
1.35289e-05
1.35954e-05
1.57503e-05
1.57625e-05
8.60741e-06
1.14653e-05
1.358e-05
1.35757e-05
1.57684e-05
1.57592e-05
1.35399e-05
1.57568e-05
1.57603e-05
8.62254e-06
1.14758e-05
1.35557e-05
1.57838e-05
1.57488e-05
1.1451e-05
1.17028e-05
1.50604e-05
1.64824e-05
1.6492e-05
1.88157e-05
1.88087e-05
1.17181e-05
1.50339e-05
1.65106e-05
1.64877e-05
1.88335e-05
1.88039e-05
1.6495e-05
1.88093e-05
1.88127e-05
1.17259e-05
1.50222e-05
1.64838e-05
1.88189e-05
1.88088e-05
1.50354e-05
1.53821e-05
1.91339e-05
1.96458e-05
1.96338e-05
2.20825e-05
2.20768e-05
1.53453e-05
1.91225e-05
1.96587e-05
1.96338e-05
2.20903e-05
2.20783e-05
1.96395e-05
2.20803e-05
2.20754e-05
1.53394e-05
1.91091e-05
1.96369e-05
2.20862e-05
2.20755e-05
1.91121e-05
1.95858e-05
2.33463e-05
2.28917e-05
2.28902e-05
2.53422e-05
2.53444e-05
1.95808e-05
2.33539e-05
2.28984e-05
2.28894e-05
2.53455e-05
2.53414e-05
2.28856e-05
2.53465e-05
2.53386e-05
1.95653e-05
2.33426e-05
2.2886e-05
2.53467e-05
2.53394e-05
2.33376e-05
2.39039e-05
2.71858e-05
2.61208e-05
2.61225e-05
2.79885e-05
2.79885e-05
2.39104e-05
2.71866e-05
2.61233e-05
2.61201e-05
2.79895e-05
2.79876e-05
2.61181e-05
2.7991e-05
2.79875e-05
2.39011e-05
2.71849e-05
2.61189e-05
2.79906e-05
2.79882e-05
2.71838e-05
2.76105e-05
3.01614e-05
2.85045e-05
2.85044e-05
3.00711e-05
3.00709e-05
2.76112e-05
3.01617e-05
2.85053e-05
2.85037e-05
3.00713e-05
3.00707e-05
2.85039e-05
3.00724e-05
3.0071e-05
2.76097e-05
3.01615e-05
2.85045e-05
3.00723e-05
3.00713e-05
3.01616e-05
3.05739e-05
3.22516e-05
3.05651e-05
3.0565e-05
3.16071e-05
3.16071e-05
3.05742e-05
3.2252e-05
3.0565e-05
3.05649e-05
3.16067e-05
3.16071e-05
3.05651e-05
3.16075e-05
3.16072e-05
3.0574e-05
3.2252e-05
3.05652e-05
3.16076e-05
3.1607e-05
3.22517e-05
3.2401e-05
3.27129e-05
3.17929e-05
3.1793e-05
3.20434e-05
3.20433e-05
3.24014e-05
3.27131e-05
3.17925e-05
3.17929e-05
3.2043e-05
3.20433e-05
3.1793e-05
3.20433e-05
3.20435e-05
3.24012e-05
3.2713e-05
3.17928e-05
3.20433e-05
3.20432e-05
3.27129e-05
3.27343e-05
3.27555e-05
3.20712e-05
3.20711e-05
3.21013e-05
3.21011e-05
3.27344e-05
3.27553e-05
3.20708e-05
3.2071e-05
3.2101e-05
3.21011e-05
3.20712e-05
3.21008e-05
3.21011e-05
3.27343e-05
3.27553e-05
3.20709e-05
3.21008e-05
3.21008e-05
3.27552e-05
3.27631e-05
3.27631e-05
3.21045e-05
3.21043e-05
3.21083e-05
3.21082e-05
3.27629e-05
3.2763e-05
3.21042e-05
3.21043e-05
3.2108e-05
3.21081e-05
3.21042e-05
3.21079e-05
3.21078e-05
3.27628e-05
3.27629e-05
3.2104e-05
3.21079e-05
3.21075e-05
3.27622e-05
3.27692e-05
3.27648e-05
3.2109e-05
3.21089e-05
3.21098e-05
3.21097e-05
3.27691e-05
3.27648e-05
3.21087e-05
3.21088e-05
3.21095e-05
3.21097e-05
3.21083e-05
3.21095e-05
3.2109e-05
3.2769e-05
3.27647e-05
3.21081e-05
3.21094e-05
3.21087e-05
3.27628e-05
3.27706e-05
3.27653e-05
3.21101e-05
3.211e-05
3.21106e-05
3.21105e-05
3.27706e-05
3.27652e-05
3.21098e-05
3.211e-05
3.21102e-05
3.21104e-05
3.21093e-05
3.211e-05
3.21097e-05
3.27704e-05
3.27651e-05
3.2109e-05
3.211e-05
3.21094e-05
3.27633e-05
3.2771e-05
3.27657e-05
3.21109e-05
3.21108e-05
3.21112e-05
3.21111e-05
3.27709e-05
3.27656e-05
3.21106e-05
3.21108e-05
3.21109e-05
3.21111e-05
3.21101e-05
3.21105e-05
3.21102e-05
3.27708e-05
3.27656e-05
3.21098e-05
3.21105e-05
3.21099e-05
3.27634e-05
3.27714e-05
3.27656e-05
3.21116e-05
3.21115e-05
3.21115e-05
3.21113e-05
3.27713e-05
3.27655e-05
3.21113e-05
3.21115e-05
3.21112e-05
3.21113e-05
3.21104e-05
3.21108e-05
3.21101e-05
3.27713e-05
3.27655e-05
3.21102e-05
3.21109e-05
3.21099e-05
3.27636e-05
3.27713e-05
3.27656e-05
3.21117e-05
3.21115e-05
3.21115e-05
3.21113e-05
3.27712e-05
3.27654e-05
3.21113e-05
3.21115e-05
3.21112e-05
3.21114e-05
3.21103e-05
3.21108e-05
3.21102e-05
3.27712e-05
3.27656e-05
3.21101e-05
3.21109e-05
3.211e-05
3.27637e-05
3.27713e-05
3.27655e-05
3.21117e-05
3.21114e-05
3.21115e-05
3.21112e-05
3.27711e-05
3.27654e-05
3.21113e-05
3.21116e-05
3.21111e-05
3.21114e-05
3.21104e-05
3.21108e-05
3.21102e-05
3.27712e-05
3.27656e-05
3.21102e-05
3.21109e-05
3.211e-05
3.27638e-05
3.27711e-05
3.27655e-05
3.21117e-05
3.21114e-05
3.21115e-05
3.21112e-05
3.27711e-05
3.27653e-05
3.21113e-05
3.21116e-05
3.21111e-05
3.21114e-05
3.21104e-05
3.21108e-05
3.21102e-05
3.27713e-05
3.27656e-05
3.21102e-05
3.21109e-05
3.211e-05
3.27638e-05
3.27711e-05
3.27655e-05
3.21116e-05
3.21114e-05
3.21115e-05
3.21112e-05
3.2771e-05
3.27653e-05
3.21113e-05
3.21116e-05
3.21111e-05
3.21113e-05
3.21104e-05
3.21108e-05
3.21101e-05
3.27712e-05
3.27656e-05
3.21102e-05
3.2111e-05
3.21099e-05
3.27637e-05
3.27711e-05
3.27655e-05
3.21116e-05
3.21114e-05
3.21114e-05
3.21112e-05
3.2771e-05
3.27654e-05
3.21113e-05
3.21115e-05
3.21111e-05
3.21113e-05
3.21103e-05
3.21108e-05
3.21101e-05
3.27712e-05
3.27655e-05
3.21101e-05
3.21108e-05
3.21099e-05
3.27636e-05
3.27711e-05
3.27655e-05
3.21116e-05
3.21114e-05
3.21114e-05
3.21113e-05
3.27711e-05
3.27654e-05
3.21113e-05
3.21115e-05
3.21111e-05
3.21113e-05
3.21103e-05
3.21107e-05
3.21102e-05
3.27712e-05
3.27655e-05
3.21101e-05
3.21109e-05
3.211e-05
3.27638e-05
3.27711e-05
3.27657e-05
3.21116e-05
3.21115e-05
3.21115e-05
3.21113e-05
3.27711e-05
3.27655e-05
3.21113e-05
3.21115e-05
3.21112e-05
3.21114e-05
3.21104e-05
3.21109e-05
3.21102e-05
3.27712e-05
3.27655e-05
3.21102e-05
3.21109e-05
3.211e-05
3.27637e-05
3.27713e-05
3.27656e-05
3.21117e-05
3.21115e-05
3.21116e-05
3.21114e-05
3.27712e-05
3.27656e-05
3.21114e-05
3.21116e-05
3.21112e-05
3.21114e-05
3.21104e-05
3.21108e-05
3.21102e-05
3.27712e-05
3.27656e-05
3.21102e-05
3.2111e-05
3.211e-05
3.27638e-05
3.27713e-05
3.27658e-05
3.21118e-05
3.21117e-05
3.21116e-05
3.21115e-05
3.27713e-05
3.27657e-05
3.21114e-05
3.21116e-05
3.21112e-05
3.21113e-05
3.21104e-05
3.21108e-05
3.21102e-05
3.27712e-05
3.27655e-05
3.21102e-05
3.21109e-05
3.211e-05
3.27637e-05
3.27714e-05
3.27656e-05
3.21118e-05
3.21117e-05
3.21116e-05
3.21115e-05
3.27714e-05
3.27657e-05
3.21114e-05
3.21115e-05
3.21112e-05
3.21114e-05
3.21103e-05
3.21109e-05
3.21102e-05
3.27712e-05
3.27655e-05
3.21102e-05
3.21109e-05
3.211e-05
3.27637e-05
3.27713e-05
3.27657e-05
3.21118e-05
3.21116e-05
3.21116e-05
3.21114e-05
3.27714e-05
3.27656e-05
3.21113e-05
3.21116e-05
3.21111e-05
3.21114e-05
3.21104e-05
3.21108e-05
3.21102e-05
3.27712e-05
3.27655e-05
3.21102e-05
3.21108e-05
3.211e-05
3.27638e-05
3.27713e-05
3.27656e-05
3.21118e-05
3.21116e-05
3.21116e-05
3.21114e-05
3.27713e-05
3.27656e-05
3.21113e-05
3.21116e-05
3.21111e-05
3.21113e-05
3.21104e-05
3.21108e-05
3.21102e-05
3.27712e-05
3.27655e-05
3.21102e-05
3.21109e-05
3.211e-05
3.27637e-05
3.27713e-05
3.27657e-05
3.21118e-05
3.21116e-05
3.21116e-05
3.21115e-05
3.27713e-05
3.27656e-05
3.21113e-05
3.21115e-05
3.21111e-05
3.21113e-05
3.21104e-05
3.21108e-05
3.21102e-05
3.27712e-05
3.27655e-05
3.21102e-05
3.2111e-05
3.211e-05
3.27637e-05
3.27713e-05
3.27657e-05
3.21118e-05
3.21117e-05
3.21116e-05
3.21115e-05
3.27714e-05
3.27657e-05
3.21113e-05
3.21115e-05
3.2111e-05
3.21113e-05
3.21104e-05
3.21108e-05
3.21102e-05
3.27712e-05
3.27655e-05
3.21101e-05
3.21109e-05
3.211e-05
3.27637e-05
3.27713e-05
3.27657e-05
3.21118e-05
3.21116e-05
3.21116e-05
3.21114e-05
3.27714e-05
3.27656e-05
3.21112e-05
3.21115e-05
3.2111e-05
3.21113e-05
3.21104e-05
3.21108e-05
3.21102e-05
3.27712e-05
3.27655e-05
3.21102e-05
3.21109e-05
3.211e-05
3.27638e-05
3.27713e-05
3.27656e-05
3.21117e-05
3.21116e-05
3.21115e-05
3.21114e-05
3.27713e-05
3.27656e-05
3.21112e-05
3.21115e-05
3.21111e-05
3.21113e-05
3.21104e-05
3.21109e-05
3.21102e-05
3.27712e-05
3.27655e-05
3.21102e-05
3.21108e-05
3.211e-05
3.27637e-05
3.27713e-05
3.27657e-05
3.21117e-05
3.21116e-05
3.21116e-05
3.21114e-05
3.27713e-05
3.27656e-05
3.21112e-05
3.21115e-05
3.21111e-05
3.21113e-05
3.21104e-05
3.21108e-05
3.21102e-05
3.27712e-05
3.27655e-05
3.21102e-05
3.21109e-05
3.211e-05
3.27638e-05
3.27713e-05
3.27657e-05
3.21118e-05
3.21116e-05
3.21116e-05
3.21114e-05
3.27713e-05
3.27656e-05
3.21113e-05
3.21115e-05
3.21111e-05
3.21113e-05
3.21104e-05
3.21108e-05
3.21102e-05
3.27712e-05
3.27655e-05
3.21102e-05
3.21108e-05
3.211e-05
3.27638e-05
3.27714e-05
3.27656e-05
3.21118e-05
3.21116e-05
3.21116e-05
3.21114e-05
3.27714e-05
3.27656e-05
3.21113e-05
3.21115e-05
3.21111e-05
3.21113e-05
3.21104e-05
3.21108e-05
3.21102e-05
3.27712e-05
3.27655e-05
3.21102e-05
3.21108e-05
3.211e-05
3.27638e-05
3.27713e-05
3.27657e-05
3.21118e-05
3.21116e-05
3.21116e-05
3.21114e-05
3.27713e-05
3.27656e-05
3.21113e-05
3.21115e-05
3.21111e-05
3.21113e-05
3.21104e-05
3.21109e-05
3.21102e-05
3.27712e-05
3.27655e-05
3.21102e-05
3.21108e-05
3.211e-05
3.27638e-05
3.27713e-05
3.27657e-05
3.21118e-05
3.21116e-05
3.21117e-05
3.21114e-05
3.27713e-05
3.27657e-05
3.21113e-05
3.21115e-05
3.21112e-05
3.21113e-05
3.21104e-05
3.21108e-05
3.21102e-05
3.27712e-05
3.27655e-05
3.21102e-05
3.21109e-05
3.211e-05
3.27638e-05
3.27714e-05
3.27658e-05
3.21118e-05
3.21116e-05
3.21116e-05
3.21114e-05
3.27713e-05
3.27657e-05
3.21114e-05
3.21115e-05
3.21112e-05
3.21113e-05
3.21104e-05
3.21108e-05
3.21102e-05
3.27711e-05
3.27655e-05
3.21102e-05
3.21109e-05
3.211e-05
3.27638e-05
3.27714e-05
3.27657e-05
3.21118e-05
3.21116e-05
3.21116e-05
3.21114e-05
3.27713e-05
3.27657e-05
3.21114e-05
3.21115e-05
3.21112e-05
3.21113e-05
3.21103e-05
3.21108e-05
3.21101e-05
3.27712e-05
3.27655e-05
3.21101e-05
3.2111e-05
3.21099e-05
3.27637e-05
3.27714e-05
3.27657e-05
3.21118e-05
3.21116e-05
3.21116e-05
3.21114e-05
3.27714e-05
3.27656e-05
3.21114e-05
3.21115e-05
3.21112e-05
3.21114e-05
3.21103e-05
3.21108e-05
3.21101e-05
3.27712e-05
3.27656e-05
3.21101e-05
3.21109e-05
3.21099e-05
3.27636e-05
3.27714e-05
3.27657e-05
3.21118e-05
3.21116e-05
3.21116e-05
3.21114e-05
3.27713e-05
3.27656e-05
3.21114e-05
3.21116e-05
3.21112e-05
3.21114e-05
3.21103e-05
3.21108e-05
3.21101e-05
3.27712e-05
3.27656e-05
3.21101e-05
3.21109e-05
3.21099e-05
3.27637e-05
3.27714e-05
3.27658e-05
3.21118e-05
3.21116e-05
3.21116e-05
3.21114e-05
3.27713e-05
3.27656e-05
3.21114e-05
3.21116e-05
3.21112e-05
3.21114e-05
3.21103e-05
3.21108e-05
3.21101e-05
3.27713e-05
3.27656e-05
3.21101e-05
3.21109e-05
3.21099e-05
3.27636e-05
3.27714e-05
3.27656e-05
3.21118e-05
3.21116e-05
3.21116e-05
3.21114e-05
3.27713e-05
3.27656e-05
3.21114e-05
3.21116e-05
3.21111e-05
3.21114e-05
3.21103e-05
3.21109e-05
3.21102e-05
3.27712e-05
3.27656e-05
3.21101e-05
3.21108e-05
3.211e-05
3.27638e-05
3.27713e-05
3.27656e-05
3.21118e-05
3.21116e-05
3.21116e-05
3.21113e-05
3.27712e-05
3.27655e-05
3.21113e-05
3.21116e-05
3.21111e-05
3.21114e-05
3.21104e-05
3.21108e-05
3.21102e-05
3.27712e-05
3.27655e-05
3.21102e-05
3.21108e-05
3.211e-05
3.27638e-05
3.27713e-05
3.27656e-05
3.21118e-05
3.21115e-05
3.21116e-05
3.21112e-05
3.27712e-05
3.27654e-05
3.21113e-05
3.21116e-05
3.21111e-05
3.21114e-05
3.21104e-05
3.21108e-05
3.21102e-05
3.27712e-05
3.27655e-05
3.21102e-05
3.21108e-05
3.211e-05
3.27638e-05
3.27713e-05
3.27656e-05
3.21118e-05
3.21114e-05
3.21116e-05
3.21112e-05
3.27711e-05
3.27654e-05
3.21113e-05
3.21116e-05
3.21111e-05
3.21114e-05
3.21104e-05
3.21108e-05
3.21102e-05
3.27712e-05
3.27655e-05
3.21102e-05
3.2111e-05
3.211e-05
3.27638e-05
3.27712e-05
3.27656e-05
3.21117e-05
3.21113e-05
3.21115e-05
3.21111e-05
3.2771e-05
3.27653e-05
3.21113e-05
3.21116e-05
3.21111e-05
3.21114e-05
3.21104e-05
3.2111e-05
3.21102e-05
3.27712e-05
3.27655e-05
3.21102e-05
3.21109e-05
3.211e-05
3.27637e-05
3.27712e-05
3.27655e-05
3.21117e-05
3.21113e-05
3.21115e-05
3.21111e-05
3.2771e-05
3.27653e-05
3.21113e-05
3.21116e-05
3.21111e-05
3.21114e-05
3.21104e-05
3.21108e-05
3.21102e-05
3.27712e-05
3.27656e-05
3.21102e-05
3.21108e-05
3.211e-05
3.27638e-05
3.27711e-05
3.27656e-05
3.21117e-05
3.21113e-05
3.21116e-05
3.21112e-05
3.2771e-05
3.27653e-05
3.21113e-05
3.21116e-05
3.21111e-05
3.21114e-05
3.21104e-05
3.21108e-05
3.21102e-05
3.27712e-05
3.27655e-05
3.21102e-05
3.21108e-05
3.211e-05
3.27638e-05
3.27713e-05
3.27656e-05
3.21118e-05
3.21114e-05
3.21116e-05
3.21112e-05
3.2771e-05
3.27653e-05
3.21113e-05
3.21116e-05
3.21112e-05
3.21114e-05
3.21104e-05
3.21107e-05
3.21102e-05
3.27712e-05
3.27655e-05
3.21102e-05
3.21108e-05
3.211e-05
3.27638e-05
3.27713e-05
3.27656e-05
3.21118e-05
3.21114e-05
3.21116e-05
3.21112e-05
3.2771e-05
3.27653e-05
3.21113e-05
3.21116e-05
3.21111e-05
3.21114e-05
3.21104e-05
3.21108e-05
3.21102e-05
3.27712e-05
3.27655e-05
3.21102e-05
3.21108e-05
3.211e-05
3.27637e-05
3.27712e-05
3.27655e-05
3.21118e-05
3.21114e-05
3.21115e-05
3.21112e-05
3.2771e-05
3.27653e-05
3.21113e-05
3.21115e-05
3.21111e-05
3.21113e-05
3.21104e-05
3.21109e-05
3.21102e-05
3.27712e-05
3.27655e-05
3.21102e-05
3.21108e-05
3.211e-05
3.27638e-05
3.27712e-05
3.27656e-05
3.21117e-05
3.21113e-05
3.21116e-05
3.21112e-05
3.2771e-05
3.27653e-05
3.21113e-05
3.21115e-05
3.21111e-05
3.21114e-05
3.21103e-05
3.21108e-05
3.21102e-05
3.27711e-05
3.27655e-05
3.21101e-05
3.21108e-05
3.21099e-05
3.27636e-05
3.27713e-05
3.27656e-05
3.21118e-05
3.21114e-05
3.21116e-05
3.21112e-05
3.2771e-05
3.27653e-05
3.21113e-05
3.21115e-05
3.21111e-05
3.21114e-05
3.21104e-05
3.21108e-05
3.21102e-05
3.27712e-05
3.27655e-05
3.21101e-05
3.21108e-05
3.211e-05
3.27637e-05
3.27713e-05
3.27656e-05
3.21118e-05
3.21114e-05
3.21116e-05
3.21112e-05
3.2771e-05
3.27653e-05
3.21113e-05
3.21116e-05
3.21111e-05
3.21114e-05
3.21104e-05
3.21107e-05
3.21102e-05
3.27712e-05
3.27655e-05
3.21102e-05
3.21108e-05
3.211e-05
3.27637e-05
3.27713e-05
3.27657e-05
3.21118e-05
3.21113e-05
3.21116e-05
3.21111e-05
3.2771e-05
3.27653e-05
3.21113e-05
3.21116e-05
3.21111e-05
3.21114e-05
3.21104e-05
3.21107e-05
3.21102e-05
3.27712e-05
3.27655e-05
3.21102e-05
3.21109e-05
3.211e-05
3.27638e-05
3.27714e-05
3.27655e-05
3.21117e-05
3.21113e-05
3.21115e-05
3.21112e-05
3.2771e-05
3.27653e-05
3.21113e-05
3.21116e-05
3.21111e-05
3.21114e-05
3.21104e-05
3.21107e-05
3.21102e-05
3.27712e-05
3.27656e-05
3.21102e-05
3.21108e-05
3.211e-05
3.27638e-05
3.27712e-05
3.27656e-05
3.21117e-05
3.21114e-05
3.21115e-05
3.21112e-05
3.2771e-05
3.27653e-05
3.21113e-05
3.21116e-05
3.21111e-05
3.21114e-05
3.21104e-05
3.21108e-05
3.21102e-05
3.27712e-05
3.27655e-05
3.21102e-05
3.21108e-05
3.211e-05
3.27638e-05
3.27713e-05
3.27655e-05
3.21117e-05
3.21113e-05
3.21115e-05
3.21111e-05
3.2771e-05
3.27653e-05
3.21113e-05
3.21116e-05
3.21111e-05
3.21114e-05
3.21104e-05
3.21108e-05
3.21102e-05
3.27712e-05
3.27655e-05
3.21102e-05
3.21108e-05
3.211e-05
3.27638e-05
3.27712e-05
3.27656e-05
3.21117e-05
3.21113e-05
3.21116e-05
3.21111e-05
3.2771e-05
3.27653e-05
3.21113e-05
3.21115e-05
3.21111e-05
3.21113e-05
3.21104e-05
3.21108e-05
3.21102e-05
3.27712e-05
3.27655e-05
3.21102e-05
3.21108e-05
3.211e-05
3.27638e-05
3.27713e-05
3.27656e-05
3.21118e-05
3.21113e-05
3.21116e-05
3.21112e-05
3.2771e-05
3.27653e-05
3.21113e-05
3.21115e-05
3.21111e-05
3.21113e-05
3.21104e-05
3.21108e-05
3.21102e-05
3.27712e-05
3.27655e-05
3.21102e-05
3.21107e-05
3.211e-05
3.27637e-05
3.27713e-05
3.27655e-05
3.21118e-05
3.21114e-05
3.21116e-05
3.21112e-05
3.2771e-05
3.27654e-05
3.21113e-05
3.21115e-05
3.21111e-05
3.21113e-05
3.21104e-05
3.21108e-05
3.21102e-05
3.27711e-05
3.27655e-05
3.21102e-05
3.21108e-05
3.21099e-05
3.27637e-05
3.27712e-05
3.27656e-05
3.21117e-05
3.21114e-05
3.21115e-05
3.21111e-05
3.27711e-05
3.27653e-05
3.21113e-05
3.21115e-05
3.21111e-05
3.21113e-05
3.21103e-05
3.21108e-05
3.21101e-05
3.27711e-05
3.27655e-05
3.21101e-05
3.21108e-05
3.21099e-05
3.27636e-05
3.27712e-05
3.27656e-05
3.21117e-05
3.21113e-05
3.21115e-05
3.21111e-05
3.2771e-05
3.27653e-05
3.21113e-05
3.21115e-05
3.21111e-05
3.21114e-05
3.21103e-05
3.21108e-05
3.21102e-05
3.27711e-05
3.27655e-05
3.21101e-05
3.21109e-05
3.21099e-05
3.27638e-05
3.27712e-05
3.27655e-05
3.21117e-05
3.21113e-05
3.21115e-05
3.21112e-05
3.2771e-05
3.27653e-05
3.21113e-05
3.21115e-05
3.21111e-05
3.21114e-05
3.21103e-05
3.21108e-05
3.21101e-05
3.27712e-05
3.27655e-05
3.21101e-05
3.21108e-05
3.21099e-05
3.27636e-05
3.27712e-05
3.27655e-05
3.21117e-05
3.21114e-05
3.21115e-05
3.21112e-05
3.2771e-05
3.27653e-05
3.21113e-05
3.21115e-05
3.21111e-05
3.21114e-05
3.21103e-05
3.21108e-05
3.21101e-05
3.27712e-05
3.27655e-05
3.211e-05
3.21108e-05
3.21099e-05
3.27635e-05
3.27712e-05
3.27656e-05
3.21117e-05
3.21114e-05
3.21115e-05
3.21112e-05
3.2771e-05
3.27653e-05
3.21113e-05
3.21115e-05
3.21111e-05
3.21114e-05
3.21103e-05
3.21108e-05
3.21101e-05
3.27712e-05
3.27655e-05
3.21101e-05
3.21109e-05
3.21099e-05
3.27638e-05
3.27712e-05
3.27656e-05
3.21117e-05
3.21114e-05
3.21115e-05
3.21112e-05
3.2771e-05
3.27653e-05
3.21113e-05
3.21116e-05
3.21111e-05
3.21114e-05
3.21104e-05
3.21108e-05
3.21102e-05
3.27712e-05
3.27655e-05
3.21101e-05
3.21109e-05
3.211e-05
3.27637e-05
3.27713e-05
3.27655e-05
3.21117e-05
3.21114e-05
3.21115e-05
3.21112e-05
3.2771e-05
3.27653e-05
3.21113e-05
3.21116e-05
3.21111e-05
3.21114e-05
3.21104e-05
3.21108e-05
3.21102e-05
3.27712e-05
3.27655e-05
3.21102e-05
3.21109e-05
3.211e-05
3.27638e-05
3.27712e-05
3.27656e-05
3.21117e-05
3.21113e-05
3.21115e-05
3.21112e-05
3.2771e-05
3.27653e-05
3.21113e-05
3.21116e-05
3.21112e-05
3.21114e-05
3.21104e-05
3.21107e-05
3.21102e-05
3.27712e-05
3.27656e-05
3.21102e-05
3.21108e-05
3.211e-05
3.27638e-05
3.27713e-05
3.27656e-05
3.21117e-05
3.21113e-05
3.21115e-05
3.21112e-05
3.2771e-05
3.27653e-05
3.21113e-05
3.21116e-05
3.21111e-05
3.21114e-05
3.21104e-05
3.21108e-05
3.21102e-05
3.27712e-05
3.27655e-05
3.21102e-05
3.21108e-05
3.211e-05
3.27638e-05
3.27713e-05
3.27656e-05
3.21117e-05
3.21113e-05
3.21115e-05
3.21112e-05
3.2771e-05
3.27653e-05
3.21113e-05
3.21116e-05
3.21111e-05
3.21114e-05
3.21104e-05
3.21108e-05
3.21102e-05
3.27712e-05
3.27656e-05
3.21102e-05
3.21109e-05
3.211e-05
3.27638e-05
3.27712e-05
3.27656e-05
3.21117e-05
3.21113e-05
3.21115e-05
3.21111e-05
3.2771e-05
3.27653e-05
3.21113e-05
3.21116e-05
3.21111e-05
3.21114e-05
3.21104e-05
3.21107e-05
3.21102e-05
3.27712e-05
3.27655e-05
3.21102e-05
3.21108e-05
3.211e-05
3.27637e-05
3.27712e-05
3.27656e-05
3.21117e-05
3.21113e-05
3.21115e-05
3.21111e-05
3.2771e-05
3.27653e-05
3.21113e-05
3.21115e-05
3.21111e-05
3.21114e-05
3.21104e-05
3.21107e-05
3.21102e-05
3.27712e-05
3.27655e-05
3.21102e-05
3.21108e-05
3.211e-05
3.27638e-05
3.27712e-05
3.27655e-05
3.21117e-05
3.21113e-05
3.21115e-05
3.21112e-05
3.2771e-05
3.27653e-05
3.21113e-05
3.21115e-05
3.21111e-05
3.21113e-05
3.21104e-05
3.21107e-05
3.21102e-05
3.27712e-05
3.27655e-05
3.21102e-05
3.21108e-05
3.211e-05
3.27638e-05
3.27712e-05
3.27656e-05
3.21117e-05
3.21113e-05
3.21115e-05
3.21111e-05
3.2771e-05
3.27652e-05
3.21113e-05
3.21115e-05
3.21111e-05
3.21113e-05
3.21104e-05
3.21107e-05
3.21102e-05
3.27711e-05
3.27655e-05
3.21102e-05
3.21108e-05
3.211e-05
3.27638e-05
3.27712e-05
3.27655e-05
3.21117e-05
3.21113e-05
3.21115e-05
3.21111e-05
3.27709e-05
3.27652e-05
3.21113e-05
3.21115e-05
3.21111e-05
3.21113e-05
3.21104e-05
3.21108e-05
3.21102e-05
3.27712e-05
3.27655e-05
3.21102e-05
3.21109e-05
3.211e-05
3.27638e-05
3.27712e-05
3.27655e-05
3.21117e-05
3.21113e-05
3.21116e-05
3.21111e-05
3.27709e-05
3.27653e-05
3.21113e-05
3.21115e-05
3.21111e-05
3.21113e-05
3.21104e-05
3.21108e-05
3.21102e-05
3.27712e-05
3.27655e-05
3.21102e-05
3.21109e-05
3.211e-05
3.27638e-05
3.27712e-05
3.27656e-05
3.21118e-05
3.21113e-05
3.21116e-05
3.21112e-05
3.2771e-05
3.27653e-05
3.21113e-05
3.21115e-05
3.21112e-05
3.21113e-05
3.21104e-05
3.21108e-05
3.21102e-05
3.27711e-05
3.27655e-05
3.21102e-05
3.2111e-05
3.211e-05
3.27638e-05
3.27713e-05
3.27655e-05
3.21118e-05
3.21114e-05
3.21115e-05
3.21111e-05
3.2771e-05
3.27653e-05
3.21114e-05
3.21116e-05
3.21111e-05
3.21113e-05
3.21104e-05
3.21108e-05
3.21102e-05
3.27712e-05
3.27656e-05
3.21102e-05
3.2111e-05
3.211e-05
3.27638e-05
3.27712e-05
3.27656e-05
3.21118e-05
3.21113e-05
3.21114e-05
3.21111e-05
3.2771e-05
3.27653e-05
3.21113e-05
3.21115e-05
3.2111e-05
3.21113e-05
3.21104e-05
3.2111e-05
3.21101e-05
3.27712e-05
3.27655e-05
3.21102e-05
3.2111e-05
3.211e-05
3.27638e-05
3.27712e-05
3.27655e-05
3.21117e-05
3.21113e-05
3.21114e-05
3.2111e-05
3.2771e-05
3.27653e-05
3.21113e-05
3.21115e-05
3.21109e-05
3.21112e-05
3.21104e-05
3.21111e-05
3.211e-05
3.27712e-05
3.27656e-05
3.21102e-05
3.21111e-05
3.21099e-05
3.27638e-05
3.27712e-05
3.27655e-05
3.21117e-05
3.21113e-05
3.21114e-05
3.2111e-05
3.2771e-05
3.27653e-05
3.21113e-05
3.21115e-05
3.21109e-05
3.21112e-05
3.21103e-05
3.21112e-05
3.211e-05
3.27712e-05
3.27655e-05
3.21102e-05
3.21112e-05
3.21098e-05
3.27637e-05
3.27712e-05
3.27656e-05
3.21118e-05
3.21114e-05
3.21114e-05
3.2111e-05
3.2771e-05
3.27654e-05
3.21113e-05
3.21116e-05
3.21109e-05
3.21112e-05
3.21104e-05
3.21111e-05
3.211e-05
3.27712e-05
3.27655e-05
3.21102e-05
3.21112e-05
3.21098e-05
3.27637e-05
3.27713e-05
3.27655e-05
3.21117e-05
3.21114e-05
3.21115e-05
3.21111e-05
3.27711e-05
3.27654e-05
3.21113e-05
3.21115e-05
3.21111e-05
3.21113e-05
3.21104e-05
3.21112e-05
3.21101e-05
3.27712e-05
3.27655e-05
3.21102e-05
3.21112e-05
3.21099e-05
3.27637e-05
3.27713e-05
3.27655e-05
3.2112e-05
3.21117e-05
3.21116e-05
3.21112e-05
3.27711e-05
3.27655e-05
3.21116e-05
3.21118e-05
3.21111e-05
3.21113e-05
3.21106e-05
3.21113e-05
3.21101e-05
3.27712e-05
3.27656e-05
3.21104e-05
3.21112e-05
3.21099e-05
3.27637e-05
3.27712e-05
3.27656e-05
3.21121e-05
3.21118e-05
3.21117e-05
3.21113e-05
3.27712e-05
3.27655e-05
3.21117e-05
3.21119e-05
3.21113e-05
3.21114e-05
3.21107e-05
3.21114e-05
3.21103e-05
3.27713e-05
3.27656e-05
3.21105e-05
3.21113e-05
3.211e-05
3.27638e-05
3.27713e-05
3.27657e-05
3.21124e-05
3.2112e-05
3.21118e-05
3.21114e-05
3.27712e-05
3.27656e-05
3.21119e-05
3.21121e-05
3.21114e-05
3.21116e-05
3.21109e-05
3.21114e-05
3.21104e-05
3.27713e-05
3.27657e-05
3.21107e-05
3.21114e-05
3.21102e-05
3.27639e-05
3.27714e-05
3.27659e-05
3.21126e-05
3.21122e-05
3.2112e-05
3.21115e-05
3.27713e-05
3.27657e-05
3.21122e-05
3.21124e-05
3.21115e-05
3.21117e-05
3.21112e-05
3.21115e-05
3.21105e-05
3.27714e-05
3.27658e-05
3.2111e-05
3.21115e-05
3.21103e-05
3.2764e-05
3.27715e-05
3.27652e-05
3.21129e-05
3.21125e-05
3.21109e-05
3.21104e-05
3.27713e-05
3.2765e-05
3.21125e-05
3.21127e-05
3.21104e-05
3.21106e-05
3.21115e-05
3.21103e-05
3.21094e-05
3.27715e-05
3.27652e-05
3.21113e-05
3.21103e-05
3.21092e-05
3.27634e-05
3.27702e-05
3.2715e-05
3.21121e-05
3.21116e-05
3.20569e-05
3.20564e-05
3.277e-05
3.27148e-05
3.21117e-05
3.21118e-05
3.20566e-05
3.20565e-05
3.21106e-05
3.20563e-05
3.20553e-05
3.27702e-05
3.27149e-05
3.21104e-05
3.20562e-05
3.20552e-05
3.27126e-05
3.2656e-05
3.19707e-05
3.19702e-05
3.26558e-05
3.19706e-05
3.19703e-05
3.14353e-05
3.14353e-05
3.14349e-05
3.19691e-05
3.26559e-05
3.19691e-05
3.07135e-05
1.49502e-05
2.59596e-05
2.59605e-05
8.53649e-08
4.23666e-06
4.05415e-07
1.96982e-05
9.15415e-08
4.32919e-06
1.97015e-05
3.34499e-06
1.30892e-06
8.80999e-07
6.82656e-07
2.59264e-07
6.05562e-06
2.12883e-07
7.94683e-06
1.48695e-05
2.26421e-05
2.51523e-07
5.94975e-06
2.15282e-07
7.78971e-06
2.03384e-05
2.03333e-05
2.03297e-05
2.06494e-05
2.0655e-05
2.06505e-05
2.06424e-05
8.93983e-08
7.35693e-07
1.15543e-05
4.40563e-06
8.74702e-08
6.99881e-07
1.17085e-05
1.42516e-05
2.19456e-05
1.0659e-07
1.15788e-05
1.22721e-06
4.52818e-06
9.95668e-08
1.17288e-05
1.18813e-06
1.98097e-06
1.95659e-06
1.74732e-06
2.00061e-06
1.88111e-06
4.61279e-07
1.21373e-05
3.80581e-07
1.50147e-05
3.83321e-05
4.80556e-05
4.27927e-07
1.15914e-05
3.43373e-07
1.49865e-05
2.08481e-05
2.08445e-05
2.0836e-05
2.14283e-05