/*--------------------------------*- C++ -*----------------------------------*\
| =========                 |                                                 |
| \\      /  F ield         | OpenFOAM: The Open Source CFD Toolbox           |
|  \\    /   O peration     | Version:  v2012                                 |
|   \\  /    A nd           | Website:  www.openfoam.com                      |
|    \\/     M anipulation  |                                                 |
\*---------------------------------------------------------------------------*/
FoamFile
{
    version     2.0;
    format      ascii;
    class       volScalarField;
    location    "12500";
    object      p;
}
// * * * * * * * * * * * * * * * * * * * * * * * * * * * * * * * * * * * * * //

dimensions      [0 2 -2 0 0 0 0];


internalField   nonuniform List<scalar> 
171728
(
1.45286e-07
1.4522e-07
1.4522e-07
1.45368e-07
1.42376e-07
1.42299e-07
1.42299e-07
1.4243e-07
1.4022e-07
1.40193e-07
1.40193e-07
1.403e-07
1.38461e-07
1.38458e-07
1.38458e-07
1.38548e-07
1.36918e-07
1.36918e-07
1.36918e-07
1.37004e-07
1.35406e-07
1.35406e-07
1.35406e-07
1.35492e-07
1.33894e-07
1.33893e-07
1.33893e-07
1.3398e-07
1.32381e-07
1.32381e-07
1.32381e-07
1.32467e-07
1.30869e-07
1.30869e-07
1.30869e-07
1.30955e-07
1.29357e-07
1.29357e-07
1.29357e-07
1.29443e-07
1.27845e-07
1.27844e-07
1.27844e-07
1.27931e-07
1.26333e-07
1.26332e-07
1.26332e-07
1.26418e-07
1.2482e-07
1.2482e-07
1.2482e-07
1.24906e-07
1.23308e-07
1.23308e-07
1.23308e-07
1.23394e-07
1.21796e-07
1.21796e-07
1.21796e-07
1.21882e-07
1.20284e-07
1.20283e-07
1.20283e-07
1.2037e-07
1.18771e-07
1.18771e-07
1.18771e-07
1.18857e-07
1.17259e-07
1.17259e-07
1.17259e-07
1.17345e-07
1.15747e-07
1.15747e-07
1.15747e-07
1.15833e-07
1.14235e-07
1.14234e-07
1.14234e-07
1.1432e-07
1.12722e-07
1.12722e-07
1.12722e-07
1.12808e-07
1.1121e-07
1.1121e-07
1.1121e-07
1.11296e-07
1.09698e-07
1.09698e-07
1.09698e-07
1.09784e-07
1.08185e-07
1.08185e-07
1.08185e-07
1.08271e-07
1.06673e-07
1.06673e-07
1.06673e-07
1.06759e-07
1.05161e-07
1.05161e-07
1.05161e-07
1.05247e-07
1.03648e-07
1.03648e-07
1.03648e-07
1.03734e-07
1.02136e-07
1.02136e-07
1.02136e-07
1.02222e-07
1.00624e-07
1.00624e-07
1.00624e-07
1.0071e-07
9.91116e-08
9.91113e-08
9.91113e-08
9.91974e-08
9.75993e-08
9.7599e-08
9.7599e-08
9.76852e-08
9.6087e-08
9.60867e-08
9.60867e-08
9.61729e-08
9.45746e-08
9.45743e-08
9.45743e-08
9.46604e-08
9.30621e-08
9.30618e-08
9.30618e-08
9.31479e-08
9.15495e-08
9.15492e-08
9.15492e-08
9.16353e-08
9.00369e-08
9.00366e-08
9.00366e-08
9.01227e-08
8.85243e-08
8.8524e-08
8.8524e-08
8.86102e-08
8.70117e-08
8.70114e-08
8.70114e-08
8.70976e-08
8.54992e-08
8.54989e-08
8.54989e-08
8.5585e-08
8.39866e-08
8.39863e-08
8.39863e-08
8.40724e-08
8.2474e-08
8.24737e-08
8.24737e-08
8.25598e-08
8.09613e-08
8.09611e-08
8.09611e-08
8.10472e-08
7.94487e-08
7.94484e-08
7.94484e-08
7.95345e-08
7.7936e-08
7.79357e-08
7.79357e-08
7.80219e-08
7.64233e-08
7.6423e-08
7.6423e-08
7.65092e-08
7.49106e-08
7.49103e-08
7.49103e-08
7.49964e-08
7.33979e-08
7.33976e-08
7.33976e-08
7.34837e-08
7.18851e-08
7.18849e-08
7.18849e-08
7.1971e-08
7.03724e-08
7.03721e-08
7.03721e-08
7.04583e-08
6.88597e-08
6.88594e-08
6.88594e-08
6.89455e-08
6.73469e-08
6.73466e-08
6.73466e-08
6.74328e-08
6.58342e-08
6.58339e-08
6.58339e-08
6.592e-08
6.43214e-08
6.43212e-08
6.43212e-08
6.44073e-08
6.28087e-08
6.28084e-08
6.28084e-08
6.28946e-08
6.1296e-08
6.12957e-08
6.12957e-08
6.13818e-08
5.97833e-08
5.9783e-08
5.9783e-08
5.98691e-08
5.82706e-08
5.82703e-08
5.82703e-08
5.83565e-08
5.67579e-08
5.67577e-08
5.67577e-08
5.68438e-08
5.52453e-08
5.5245e-08
5.5245e-08
5.53311e-08
5.37326e-08
5.37323e-08
5.37323e-08
5.38185e-08
5.22199e-08
5.22197e-08
5.22197e-08
5.23058e-08
5.07073e-08
5.0707e-08
5.0707e-08
5.07932e-08
4.91946e-08
4.91943e-08
4.91943e-08
4.92805e-08
4.7682e-08
4.76817e-08
4.76817e-08
4.77678e-08
4.61693e-08
4.6169e-08
4.6169e-08
4.62552e-08
4.46567e-08
4.46564e-08
4.46564e-08
4.47425e-08
4.3144e-08
4.31437e-08
4.31437e-08
4.32299e-08
4.16313e-08
4.1631e-08
4.1631e-08
4.17172e-08
4.01186e-08
4.01183e-08
4.01183e-08
4.02045e-08
3.86059e-08
3.86056e-08
3.86056e-08
3.86917e-08
3.70931e-08
3.70929e-08
3.70929e-08
3.7179e-08
3.55804e-08
3.55801e-08
3.55801e-08
3.56663e-08
3.40677e-08
3.40674e-08
3.40674e-08
3.41535e-08
3.25549e-08
3.25547e-08
3.25547e-08
3.26408e-08
3.10422e-08
3.10419e-08
3.10419e-08
3.11281e-08
2.95295e-08
2.95292e-08
2.95292e-08
2.96153e-08
2.80167e-08
2.80165e-08
2.80165e-08
2.81026e-08
2.6504e-08
2.65037e-08
2.65037e-08
2.65899e-08
2.49912e-08
2.4991e-08
2.4991e-08
2.50771e-08
2.34785e-08
2.34782e-08
2.34782e-08
2.35643e-08
2.19657e-08
2.19654e-08
2.19654e-08
2.20516e-08
2.0453e-08
2.04527e-08
2.04527e-08
2.05388e-08
1.89403e-08
1.894e-08
1.894e-08
1.90262e-08
1.74277e-08
1.74274e-08
1.74274e-08
1.75135e-08
1.5915e-08
1.59148e-08
1.59148e-08
1.60009e-08
1.44024e-08
1.44022e-08
1.44022e-08
1.44883e-08
1.28898e-08
1.28896e-08
1.28896e-08
1.29757e-08
1.13772e-08
1.1377e-08
1.1377e-08
1.14631e-08
9.86469e-09
9.86441e-09
9.86442e-09
9.95054e-09
8.35217e-09
8.35189e-09
8.3519e-09
8.43802e-09
6.83967e-09
6.83939e-09
6.8394e-09
6.92552e-09
5.32719e-09
5.32691e-09
5.32691e-09
5.41306e-09
3.81482e-09
3.81441e-09
3.81441e-09
3.90071e-09
2.30553e-09
2.30135e-09
2.30138e-09
2.38972e-09
7.78775e-10
8.8329e-10
8.83318e-10
8.39953e-10
1.45878e-07
1.45952e-07
1.45952e-07
1.45878e-07
1.45952e-07
1.45952e-07
1.4612e-07
1.4612e-07
1.4612e-07
1.4612e-07
1.45952e-07
1.45952e-07
1.45878e-07
1.45952e-07
1.45952e-07
1.45878e-07
1.45368e-07
1.4277e-07
1.4522e-07
1.4522e-07
1.42913e-07
1.42913e-07
1.45368e-07
1.4277e-07
1.4522e-07
1.4522e-07
1.42913e-07
1.42913e-07
1.4522e-07
1.42913e-07
1.42913e-07
1.45368e-07
1.4277e-07
1.4522e-07
1.42913e-07
1.42913e-07
1.4277e-07
1.4243e-07
1.4057e-07
1.42299e-07
1.42299e-07
1.40682e-07
1.40682e-07
1.4243e-07
1.4057e-07
1.42299e-07
1.42299e-07
1.40682e-07
1.40682e-07
1.42299e-07
1.40682e-07
1.40682e-07
1.4243e-07
1.4057e-07
1.42299e-07
1.40682e-07
1.40682e-07
1.4057e-07
1.403e-07
1.38767e-07
1.40194e-07
1.40194e-07
1.38864e-07
1.38864e-07
1.403e-07
1.38767e-07
1.40193e-07
1.40194e-07
1.38864e-07
1.38864e-07
1.40193e-07
1.38864e-07
1.38864e-07
1.403e-07
1.38767e-07
1.40193e-07
1.38864e-07
1.38864e-07
1.38767e-07
1.38548e-07
1.3721e-07
1.38458e-07
1.38458e-07
1.37297e-07
1.37297e-07
1.38548e-07
1.3721e-07
1.38458e-07
1.38458e-07
1.37297e-07
1.37297e-07
1.38458e-07
1.37297e-07
1.37297e-07
1.38548e-07
1.3721e-07
1.38458e-07
1.37297e-07
1.37297e-07
1.3721e-07
1.37004e-07
1.35698e-07
1.36918e-07
1.36918e-07
1.35784e-07
1.35784e-07
1.37004e-07
1.35698e-07
1.36918e-07
1.36918e-07
1.35784e-07
1.35784e-07
1.36918e-07
1.35784e-07
1.35784e-07
1.37004e-07
1.35698e-07
1.36918e-07
1.35784e-07
1.35784e-07
1.35698e-07
1.35492e-07
1.34185e-07
1.35406e-07
1.35406e-07
1.34272e-07
1.34272e-07
1.35492e-07
1.34185e-07
1.35406e-07
1.35406e-07
1.34272e-07
1.34272e-07
1.35406e-07
1.34272e-07
1.34272e-07
1.35492e-07
1.34185e-07
1.35406e-07
1.34272e-07
1.34272e-07
1.34185e-07
1.3398e-07
1.32673e-07
1.33893e-07
1.33893e-07
1.32759e-07
1.32759e-07
1.3398e-07
1.32673e-07
1.33893e-07
1.33893e-07
1.32759e-07
1.32759e-07
1.33893e-07
1.32759e-07
1.32759e-07
1.3398e-07
1.32673e-07
1.33893e-07
1.32759e-07
1.32759e-07
1.32673e-07
1.32467e-07
1.31161e-07
1.32381e-07
1.32381e-07
1.31247e-07
1.31247e-07
1.32467e-07
1.31161e-07
1.32381e-07
1.32381e-07
1.31247e-07
1.31247e-07
1.32381e-07
1.31247e-07
1.31247e-07
1.32467e-07
1.31161e-07
1.32381e-07
1.31247e-07
1.31247e-07
1.31161e-07
1.30955e-07
1.29649e-07
1.30869e-07
1.30869e-07
1.29735e-07
1.29735e-07
1.30955e-07
1.29649e-07
1.30869e-07
1.30869e-07
1.29735e-07
1.29735e-07
1.30869e-07
1.29735e-07
1.29735e-07
1.30955e-07
1.29649e-07
1.30869e-07
1.29735e-07
1.29735e-07
1.29649e-07
1.29443e-07
1.28136e-07
1.29357e-07
1.29357e-07
1.28223e-07
1.28223e-07
1.29443e-07
1.28136e-07
1.29357e-07
1.29357e-07
1.28223e-07
1.28223e-07
1.29357e-07
1.28223e-07
1.28223e-07
1.29443e-07
1.28136e-07
1.29357e-07
1.28223e-07
1.28223e-07
1.28136e-07
1.27931e-07
1.26624e-07
1.27844e-07
1.27844e-07
1.2671e-07
1.2671e-07
1.27931e-07
1.26624e-07
1.27844e-07
1.27844e-07
1.2671e-07
1.2671e-07
1.27844e-07
1.2671e-07
1.2671e-07
1.27931e-07
1.26624e-07
1.27844e-07
1.2671e-07
1.2671e-07
1.26624e-07
1.26418e-07
1.25112e-07
1.26332e-07
1.26332e-07
1.25198e-07
1.25198e-07
1.26418e-07
1.25112e-07
1.26332e-07
1.26332e-07
1.25198e-07
1.25198e-07
1.26332e-07
1.25198e-07
1.25198e-07
1.26418e-07
1.25112e-07
1.26332e-07
1.25198e-07
1.25198e-07
1.25112e-07
1.24906e-07
1.236e-07
1.2482e-07
1.2482e-07
1.23686e-07
1.23686e-07
1.24906e-07
1.236e-07
1.2482e-07
1.2482e-07
1.23686e-07
1.23686e-07
1.2482e-07
1.23686e-07
1.23686e-07
1.24906e-07
1.236e-07
1.2482e-07
1.23686e-07
1.23686e-07
1.236e-07
1.23394e-07
1.22088e-07
1.23308e-07
1.23308e-07
1.22174e-07
1.22174e-07
1.23394e-07
1.22088e-07
1.23308e-07
1.23308e-07
1.22174e-07
1.22174e-07
1.23308e-07
1.22174e-07
1.22174e-07
1.23394e-07
1.22088e-07
1.23308e-07
1.22174e-07
1.22174e-07
1.22088e-07
1.21882e-07
1.20575e-07
1.21796e-07
1.21796e-07
1.20661e-07
1.20661e-07
1.21882e-07
1.20575e-07
1.21796e-07
1.21796e-07
1.20661e-07
1.20661e-07
1.21796e-07
1.20661e-07
1.20661e-07
1.21882e-07
1.20575e-07
1.21796e-07
1.20661e-07
1.20661e-07
1.20575e-07
1.20369e-07
1.19063e-07
1.20283e-07
1.20283e-07
1.19149e-07
1.19149e-07
1.20369e-07
1.19063e-07
1.20283e-07
1.20283e-07
1.19149e-07
1.19149e-07
1.20283e-07
1.19149e-07
1.19149e-07
1.2037e-07
1.19063e-07
1.20283e-07
1.19149e-07
1.19149e-07
1.19063e-07
1.18857e-07
1.17551e-07
1.18771e-07
1.18771e-07
1.17637e-07
1.17637e-07
1.18857e-07
1.17551e-07
1.18771e-07
1.18771e-07
1.17637e-07
1.17637e-07
1.18771e-07
1.17637e-07
1.17637e-07
1.18857e-07
1.17551e-07
1.18771e-07
1.17637e-07
1.17637e-07
1.17551e-07
1.17345e-07
1.16039e-07
1.17259e-07
1.17259e-07
1.16125e-07
1.16125e-07
1.17345e-07
1.16039e-07
1.17259e-07
1.17259e-07
1.16125e-07
1.16125e-07
1.17259e-07
1.16125e-07
1.16125e-07
1.17345e-07
1.16039e-07
1.17259e-07
1.16125e-07
1.16125e-07
1.16039e-07
1.15833e-07
1.14526e-07
1.15747e-07
1.15747e-07
1.14612e-07
1.14612e-07
1.15833e-07
1.14526e-07
1.15747e-07
1.15747e-07
1.14612e-07
1.14612e-07
1.15747e-07
1.14612e-07
1.14612e-07
1.15833e-07
1.14526e-07
1.15747e-07
1.14612e-07
1.14612e-07
1.14526e-07
1.1432e-07
1.13014e-07
1.14234e-07
1.14234e-07
1.131e-07
1.131e-07
1.1432e-07
1.13014e-07
1.14234e-07
1.14234e-07
1.131e-07
1.131e-07
1.14234e-07
1.131e-07
1.131e-07
1.1432e-07
1.13014e-07
1.14234e-07
1.131e-07
1.131e-07
1.13014e-07
1.12808e-07
1.11502e-07
1.12722e-07
1.12722e-07
1.11588e-07
1.11588e-07
1.12808e-07
1.11502e-07
1.12722e-07
1.12722e-07
1.11588e-07
1.11588e-07
1.12722e-07
1.11588e-07
1.11588e-07
1.12808e-07
1.11502e-07
1.12722e-07
1.11588e-07
1.11588e-07
1.11502e-07
1.11296e-07
1.0999e-07
1.1121e-07
1.1121e-07
1.10076e-07
1.10076e-07
1.11296e-07
1.0999e-07
1.1121e-07
1.1121e-07
1.10076e-07
1.10076e-07
1.1121e-07
1.10076e-07
1.10076e-07
1.11296e-07
1.0999e-07
1.1121e-07
1.10076e-07
1.10076e-07
1.0999e-07
1.09784e-07
1.08477e-07
1.09698e-07
1.09698e-07
1.08563e-07
1.08563e-07
1.09784e-07
1.08477e-07
1.09698e-07
1.09698e-07
1.08563e-07
1.08563e-07
1.09698e-07
1.08563e-07
1.08563e-07
1.09784e-07
1.08477e-07
1.09698e-07
1.08563e-07
1.08563e-07
1.08477e-07
1.08271e-07
1.06965e-07
1.08185e-07
1.08185e-07
1.07051e-07
1.07051e-07
1.08271e-07
1.06965e-07
1.08185e-07
1.08185e-07
1.07051e-07
1.07051e-07
1.08185e-07
1.07051e-07
1.07051e-07
1.08271e-07
1.06965e-07
1.08185e-07
1.07051e-07
1.07051e-07
1.06965e-07
1.06759e-07
1.05453e-07
1.06673e-07
1.06673e-07
1.05539e-07
1.05539e-07
1.06759e-07
1.05453e-07
1.06673e-07
1.06673e-07
1.05539e-07
1.05539e-07
1.06673e-07
1.05539e-07
1.05539e-07
1.06759e-07
1.05453e-07
1.06673e-07
1.05539e-07
1.05539e-07
1.05453e-07
1.05247e-07
1.0394e-07
1.05161e-07
1.05161e-07
1.04026e-07
1.04026e-07
1.05247e-07
1.0394e-07
1.05161e-07
1.05161e-07
1.04026e-07
1.04026e-07
1.05161e-07
1.04026e-07
1.04026e-07
1.05247e-07
1.0394e-07
1.05161e-07
1.04026e-07
1.04026e-07
1.0394e-07
1.03734e-07
1.02428e-07
1.03648e-07
1.03648e-07
1.02514e-07
1.02514e-07
1.03734e-07
1.02428e-07
1.03648e-07
1.03648e-07
1.02514e-07
1.02514e-07
1.03648e-07
1.02514e-07
1.02514e-07
1.03734e-07
1.02428e-07
1.03648e-07
1.02514e-07
1.02514e-07
1.02428e-07
1.02222e-07
1.00916e-07
1.02136e-07
1.02136e-07
1.01002e-07
1.01002e-07
1.02222e-07
1.00916e-07
1.02136e-07
1.02136e-07
1.01002e-07
1.01002e-07
1.02136e-07
1.01002e-07
1.01002e-07
1.02222e-07
1.00916e-07
1.02136e-07
1.01002e-07
1.01002e-07
1.00916e-07
1.0071e-07
9.94033e-08
1.00624e-07
1.00624e-07
9.94894e-08
9.94894e-08
1.0071e-07
9.94033e-08
1.00624e-07
1.00624e-07
9.94894e-08
9.94894e-08
1.00624e-07
9.94894e-08
9.94894e-08
1.0071e-07
9.94033e-08
1.00624e-07
9.94894e-08
9.94894e-08
9.94033e-08
9.91974e-08
9.78911e-08
9.91113e-08
9.91113e-08
9.79771e-08
9.79771e-08
9.91974e-08
9.78911e-08
9.91113e-08
9.91113e-08
9.79771e-08
9.79771e-08
9.91113e-08
9.79771e-08
9.79771e-08
9.91974e-08
9.78911e-08
9.91113e-08
9.79771e-08
9.79771e-08
9.78911e-08
9.76852e-08
9.63788e-08
9.7599e-08
9.7599e-08
9.64648e-08
9.64648e-08
9.76851e-08
9.63788e-08
9.7599e-08
9.7599e-08
9.64648e-08
9.64648e-08
9.75991e-08
9.64648e-08
9.64648e-08
9.76852e-08
9.63788e-08
9.75991e-08
9.64648e-08
9.64648e-08
9.63788e-08
9.61729e-08
9.48664e-08
9.60867e-08
9.60867e-08
9.49524e-08
9.49524e-08
9.61728e-08
9.48664e-08
9.60867e-08
9.60867e-08
9.49524e-08
9.49524e-08
9.60867e-08
9.49524e-08
9.49524e-08
9.61729e-08
9.48664e-08
9.60867e-08
9.49524e-08
9.49524e-08
9.48664e-08
9.46604e-08
9.33539e-08
9.45743e-08
9.45743e-08
9.34399e-08
9.34399e-08
9.46604e-08
9.33539e-08
9.45743e-08
9.45743e-08
9.34399e-08
9.34399e-08
9.45743e-08
9.34399e-08
9.34399e-08
9.46604e-08
9.33539e-08
9.45743e-08
9.34399e-08
9.34399e-08
9.33539e-08
9.31479e-08
9.18413e-08
9.30618e-08
9.30618e-08
9.19273e-08
9.19273e-08
9.31479e-08
9.18413e-08
9.30618e-08
9.30618e-08
9.19273e-08
9.19273e-08
9.30618e-08
9.19273e-08
9.19274e-08
9.31479e-08
9.18413e-08
9.30618e-08
9.19273e-08
9.19273e-08
9.18413e-08
9.16353e-08
9.03287e-08
9.15492e-08
9.15492e-08
9.04148e-08
9.04148e-08
9.16353e-08
9.03287e-08
9.15492e-08
9.15492e-08
9.04148e-08
9.04148e-08
9.15492e-08
9.04148e-08
9.04148e-08
9.16353e-08
9.03287e-08
9.15492e-08
9.04148e-08
9.04148e-08
9.03287e-08
9.01227e-08
8.88161e-08
9.00366e-08
9.00366e-08
8.89022e-08
8.89022e-08
9.01227e-08
8.88161e-08
9.00366e-08
9.00366e-08
8.89022e-08
8.89022e-08
9.00366e-08
8.89022e-08
8.89022e-08
9.01227e-08
8.88161e-08
9.00366e-08
8.89022e-08
8.89022e-08
8.88161e-08
8.86101e-08
8.73035e-08
8.8524e-08
8.8524e-08
8.73896e-08
8.73896e-08
8.86101e-08
8.73035e-08
8.8524e-08
8.8524e-08
8.73896e-08
8.73896e-08
8.8524e-08
8.73896e-08
8.73896e-08
8.86101e-08
8.73035e-08
8.8524e-08
8.73896e-08
8.73896e-08
8.73035e-08
8.70976e-08
8.5791e-08
8.70114e-08
8.70114e-08
8.5877e-08
8.5877e-08
8.70976e-08
8.5791e-08
8.70114e-08
8.70114e-08
8.5877e-08
8.5877e-08
8.70115e-08
8.5877e-08
8.5877e-08
8.70976e-08
8.5791e-08
8.70115e-08
8.5877e-08
8.5877e-08
8.5791e-08
8.5585e-08
8.42784e-08
8.54989e-08
8.54989e-08
8.43645e-08
8.43645e-08
8.5585e-08
8.42784e-08
8.54989e-08
8.54989e-08
8.43645e-08
8.43645e-08
8.54989e-08
8.43645e-08
8.43645e-08
8.5585e-08
8.42784e-08
8.54989e-08
8.43645e-08
8.43645e-08
8.42784e-08
8.40724e-08
8.27658e-08
8.39863e-08
8.39863e-08
8.28519e-08
8.28519e-08
8.40724e-08
8.27658e-08
8.39863e-08
8.39863e-08
8.28519e-08
8.28519e-08
8.39863e-08
8.28519e-08
8.28519e-08
8.40724e-08
8.27658e-08
8.39863e-08
8.28519e-08
8.28519e-08
8.27658e-08
8.25598e-08
8.12532e-08
8.24737e-08
8.24737e-08
8.13392e-08
8.13392e-08
8.25598e-08
8.12532e-08
8.24737e-08
8.24737e-08
8.13392e-08
8.13392e-08
8.24737e-08
8.13392e-08
8.13392e-08
8.25598e-08
8.12532e-08
8.24737e-08
8.13392e-08
8.13392e-08
8.12532e-08
8.10472e-08
7.97405e-08
8.09611e-08
8.09611e-08
7.98266e-08
7.98266e-08
8.10472e-08
7.97405e-08
8.09611e-08
8.09611e-08
7.98266e-08
7.98266e-08
8.09611e-08
7.98266e-08
7.98266e-08
8.10472e-08
7.97405e-08
8.09611e-08
7.98266e-08
7.98266e-08
7.97405e-08
7.95345e-08
7.82278e-08
7.94484e-08
7.94484e-08
7.83139e-08
7.83139e-08
7.95345e-08
7.82278e-08
7.94484e-08
7.94484e-08
7.83139e-08
7.83139e-08
7.94484e-08
7.83139e-08
7.83139e-08
7.95345e-08
7.82278e-08
7.94484e-08
7.83139e-08
7.83139e-08
7.82278e-08
7.80218e-08
7.67151e-08
7.79357e-08
7.79357e-08
7.68012e-08
7.68012e-08
7.80218e-08
7.67151e-08
7.79357e-08
7.79357e-08
7.68012e-08
7.68012e-08
7.79357e-08
7.68012e-08
7.68012e-08
7.80218e-08
7.67151e-08
7.79357e-08
7.68012e-08
7.68012e-08
7.67151e-08
7.65091e-08
7.52024e-08
7.6423e-08
7.6423e-08
7.52885e-08
7.52885e-08
7.65091e-08
7.52024e-08
7.6423e-08
7.6423e-08
7.52885e-08
7.52885e-08
7.6423e-08
7.52885e-08
7.52885e-08
7.65091e-08
7.52024e-08
7.6423e-08
7.52885e-08
7.52885e-08
7.52024e-08
7.49964e-08
7.36897e-08
7.49103e-08
7.49103e-08
7.37758e-08
7.37758e-08
7.49964e-08
7.36897e-08
7.49103e-08
7.49103e-08
7.37758e-08
7.37758e-08
7.49103e-08
7.37758e-08
7.37758e-08
7.49964e-08
7.36897e-08
7.49103e-08
7.37758e-08
7.37758e-08
7.36897e-08
7.34837e-08
7.2177e-08
7.33976e-08
7.33976e-08
7.2263e-08
7.2263e-08
7.34837e-08
7.2177e-08
7.33976e-08
7.33976e-08
7.2263e-08
7.2263e-08
7.33976e-08
7.2263e-08
7.2263e-08
7.34837e-08
7.2177e-08
7.33976e-08
7.2263e-08
7.2263e-08
7.2177e-08
7.1971e-08
7.06643e-08
7.18849e-08
7.18849e-08
7.07503e-08
7.07503e-08
7.1971e-08
7.06643e-08
7.18849e-08
7.18849e-08
7.07503e-08
7.07503e-08
7.18849e-08
7.07503e-08
7.07503e-08
7.1971e-08
7.06642e-08
7.18849e-08
7.07503e-08
7.07503e-08
7.06642e-08
7.04583e-08
6.91515e-08
7.03721e-08
7.03721e-08
6.92376e-08
6.92376e-08
7.04582e-08
6.91515e-08
7.03721e-08
7.03721e-08
6.92376e-08
6.92376e-08
7.03721e-08
6.92376e-08
6.92376e-08
7.04583e-08
6.91515e-08
7.03721e-08
6.92376e-08
6.92376e-08
6.91515e-08
6.89455e-08
6.76388e-08
6.88594e-08
6.88594e-08
6.77248e-08
6.77248e-08
6.89455e-08
6.76388e-08
6.88594e-08
6.88594e-08
6.77248e-08
6.77248e-08
6.88594e-08
6.77248e-08
6.77248e-08
6.89455e-08
6.76388e-08
6.88594e-08
6.77248e-08
6.77248e-08
6.76388e-08
6.74328e-08
6.6126e-08
6.73466e-08
6.73466e-08
6.62121e-08
6.62121e-08
6.74328e-08
6.6126e-08
6.73466e-08
6.73466e-08
6.62121e-08
6.62121e-08
6.73466e-08
6.62121e-08
6.62121e-08
6.74328e-08
6.6126e-08
6.73466e-08
6.62121e-08
6.62121e-08
6.6126e-08
6.592e-08
6.46133e-08
6.58339e-08
6.58339e-08
6.46993e-08
6.46993e-08
6.592e-08
6.46133e-08
6.58339e-08
6.58339e-08
6.46993e-08
6.46993e-08
6.58339e-08
6.46993e-08
6.46993e-08
6.592e-08
6.46133e-08
6.58339e-08
6.46993e-08
6.46993e-08
6.46133e-08
6.44073e-08
6.31005e-08
6.43212e-08
6.43212e-08
6.31866e-08
6.31866e-08
6.44073e-08
6.31005e-08
6.43212e-08
6.43212e-08
6.31866e-08
6.31866e-08
6.43212e-08
6.31866e-08
6.31866e-08
6.44073e-08
6.31005e-08
6.43212e-08
6.31866e-08
6.31866e-08
6.31005e-08
6.28945e-08
6.15878e-08
6.28084e-08
6.28084e-08
6.16739e-08
6.16739e-08
6.28945e-08
6.15878e-08
6.28084e-08
6.28084e-08
6.16739e-08
6.16739e-08
6.28084e-08
6.16739e-08
6.16739e-08
6.28946e-08
6.15878e-08
6.28084e-08
6.16739e-08
6.16739e-08
6.15878e-08
6.13818e-08
6.00751e-08
6.12957e-08
6.12957e-08
6.01612e-08
6.01612e-08
6.13818e-08
6.00751e-08
6.12957e-08
6.12957e-08
6.01612e-08
6.01612e-08
6.12957e-08
6.01612e-08
6.01612e-08
6.13818e-08
6.00751e-08
6.12957e-08
6.01612e-08
6.01612e-08
6.00751e-08
5.98691e-08
5.85624e-08
5.9783e-08
5.9783e-08
5.86485e-08
5.86485e-08
5.98691e-08
5.85624e-08
5.9783e-08
5.9783e-08
5.86485e-08
5.86485e-08
5.9783e-08
5.86485e-08
5.86485e-08
5.98691e-08
5.85624e-08
5.9783e-08
5.86485e-08
5.86485e-08
5.85624e-08
5.83564e-08
5.70498e-08
5.82703e-08
5.82703e-08
5.71358e-08
5.71358e-08
5.83564e-08
5.70498e-08
5.82703e-08
5.82703e-08
5.71358e-08
5.71358e-08
5.82703e-08
5.71358e-08
5.71358e-08
5.83564e-08
5.70498e-08
5.82703e-08
5.71358e-08
5.71358e-08
5.70497e-08
5.68438e-08
5.55371e-08
5.67577e-08
5.67577e-08
5.56232e-08
5.56232e-08
5.68438e-08
5.55371e-08
5.67577e-08
5.67577e-08
5.56232e-08
5.56232e-08
5.67577e-08
5.56232e-08
5.56232e-08
5.68438e-08
5.55371e-08
5.67577e-08
5.56232e-08
5.56232e-08
5.55371e-08
5.53311e-08
5.40244e-08
5.5245e-08
5.5245e-08
5.41105e-08
5.41105e-08
5.53311e-08
5.40244e-08
5.5245e-08
5.5245e-08
5.41105e-08
5.41105e-08
5.5245e-08
5.41105e-08
5.41105e-08
5.53311e-08
5.40244e-08
5.5245e-08
5.41105e-08
5.41105e-08
5.40244e-08
5.38185e-08
5.25118e-08
5.37323e-08
5.37323e-08
5.25978e-08
5.25978e-08
5.38185e-08
5.25118e-08
5.37323e-08
5.37323e-08
5.25978e-08
5.25978e-08
5.37323e-08
5.25978e-08
5.25978e-08
5.38185e-08
5.25118e-08
5.37323e-08
5.25978e-08
5.25978e-08
5.25118e-08
5.23058e-08
5.09991e-08
5.22197e-08
5.22197e-08
5.10852e-08
5.10852e-08
5.23058e-08
5.09991e-08
5.22197e-08
5.22197e-08
5.10852e-08
5.10852e-08
5.22197e-08
5.10852e-08
5.10852e-08
5.23058e-08
5.09991e-08
5.22197e-08
5.10852e-08
5.10852e-08
5.09991e-08
5.07931e-08
4.94865e-08
5.0707e-08
5.0707e-08
4.95725e-08
4.95725e-08
5.07931e-08
4.94865e-08
5.0707e-08
5.0707e-08
4.95725e-08
4.95725e-08
5.0707e-08
4.95725e-08
4.95725e-08
5.07931e-08
4.94864e-08
5.0707e-08
4.95725e-08
4.95725e-08
4.94864e-08
4.92805e-08
4.79738e-08
4.91943e-08
4.91943e-08
4.80599e-08
4.80599e-08
4.92805e-08
4.79738e-08
4.91943e-08
4.91943e-08
4.80599e-08
4.80599e-08
4.91943e-08
4.80599e-08
4.80599e-08
4.92805e-08
4.79738e-08
4.91943e-08
4.80599e-08
4.80599e-08
4.79738e-08
4.77678e-08
4.64611e-08
4.76817e-08
4.76817e-08
4.65472e-08
4.65472e-08
4.77678e-08
4.64612e-08
4.76817e-08
4.76817e-08
4.65472e-08
4.65472e-08
4.76817e-08
4.65472e-08
4.65472e-08
4.77678e-08
4.64611e-08
4.76817e-08
4.65472e-08
4.65472e-08
4.64611e-08
4.62552e-08
4.49485e-08
4.6169e-08
4.6169e-08
4.50345e-08
4.50345e-08
4.62552e-08
4.49485e-08
4.6169e-08
4.6169e-08
4.50345e-08
4.50345e-08
4.6169e-08
4.50346e-08
4.50346e-08
4.62552e-08
4.49485e-08
4.6169e-08
4.50345e-08
4.50345e-08
4.49485e-08
4.47425e-08
4.34358e-08
4.46564e-08
4.46564e-08
4.35219e-08
4.35219e-08
4.47425e-08
4.34358e-08
4.46564e-08
4.46564e-08
4.35219e-08
4.35219e-08
4.46564e-08
4.35219e-08
4.35219e-08
4.47425e-08
4.34358e-08
4.46564e-08
4.35219e-08
4.35219e-08
4.34358e-08
4.32298e-08
4.19232e-08
4.31437e-08
4.31437e-08
4.20092e-08
4.20092e-08
4.32298e-08
4.19232e-08
4.31437e-08
4.31437e-08
4.20092e-08
4.20092e-08
4.31437e-08
4.20092e-08
4.20092e-08
4.32298e-08
4.19231e-08
4.31437e-08
4.20092e-08
4.20092e-08
4.19231e-08
4.17172e-08
4.04105e-08
4.1631e-08
4.1631e-08
4.04965e-08
4.04965e-08
4.17172e-08
4.04105e-08
4.1631e-08
4.1631e-08
4.04965e-08
4.04965e-08
4.1631e-08
4.04965e-08
4.04965e-08
4.17172e-08
4.04104e-08
4.1631e-08
4.04965e-08
4.04965e-08
4.04104e-08
4.02045e-08
3.88977e-08
4.01183e-08
4.01183e-08
3.89838e-08
3.89838e-08
4.02044e-08
3.88977e-08
4.01183e-08
4.01183e-08
3.89838e-08
3.89838e-08
4.01183e-08
3.89838e-08
3.89838e-08
4.02045e-08
3.88977e-08
4.01183e-08
3.89838e-08
3.89838e-08
3.88977e-08
3.86917e-08
3.7385e-08
3.86056e-08
3.86056e-08
3.74711e-08
3.74711e-08
3.86917e-08
3.7385e-08
3.86056e-08
3.86056e-08
3.74711e-08
3.74711e-08
3.86056e-08
3.74711e-08
3.74711e-08
3.86917e-08
3.7385e-08
3.86056e-08
3.74711e-08
3.74711e-08
3.7385e-08
3.7179e-08
3.58723e-08
3.70929e-08
3.70929e-08
3.59583e-08
3.59583e-08
3.7179e-08
3.58723e-08
3.70929e-08
3.70929e-08
3.59583e-08
3.59583e-08
3.70929e-08
3.59583e-08
3.59583e-08
3.7179e-08
3.58723e-08
3.70929e-08
3.59583e-08
3.59583e-08
3.58722e-08
3.56663e-08
3.43595e-08
3.55801e-08
3.55801e-08
3.44456e-08
3.44456e-08
3.56663e-08
3.43595e-08
3.55801e-08
3.55801e-08
3.44456e-08
3.44456e-08
3.55801e-08
3.44456e-08
3.44456e-08
3.56663e-08
3.43595e-08
3.55801e-08
3.44456e-08
3.44456e-08
3.43595e-08
3.41535e-08
3.28468e-08
3.40674e-08
3.40674e-08
3.29328e-08
3.29328e-08
3.41535e-08
3.28468e-08
3.40674e-08
3.40674e-08
3.29328e-08
3.29328e-08
3.40674e-08
3.29328e-08
3.29328e-08
3.41535e-08
3.28468e-08
3.40674e-08
3.29328e-08
3.29328e-08
3.28468e-08
3.26408e-08
3.1334e-08
3.25547e-08
3.25547e-08
3.14201e-08
3.14201e-08
3.26408e-08
3.13341e-08
3.25547e-08
3.25547e-08
3.14201e-08
3.14201e-08
3.25547e-08
3.14201e-08
3.14201e-08
3.26408e-08
3.1334e-08
3.25547e-08
3.14201e-08
3.14201e-08
3.1334e-08
3.1128e-08
2.98213e-08
3.10419e-08
3.10419e-08
2.99074e-08
2.99074e-08
3.1128e-08
2.98213e-08
3.10419e-08
3.10419e-08
2.99074e-08
2.99074e-08
3.10419e-08
2.99074e-08
2.99074e-08
3.11281e-08
2.98213e-08
3.10419e-08
2.99074e-08
2.99074e-08
2.98213e-08
2.96153e-08
2.83086e-08
2.95292e-08
2.95292e-08
2.83946e-08
2.83946e-08
2.96153e-08
2.83086e-08
2.95292e-08
2.95292e-08
2.83946e-08
2.83946e-08
2.95292e-08
2.83946e-08
2.83946e-08
2.96153e-08
2.83086e-08
2.95292e-08
2.83946e-08
2.83946e-08
2.83086e-08
2.81026e-08
2.67958e-08
2.80165e-08
2.80165e-08
2.68819e-08
2.68819e-08
2.81026e-08
2.67958e-08
2.80165e-08
2.80165e-08
2.68819e-08
2.68819e-08
2.80165e-08
2.68819e-08
2.68819e-08
2.81026e-08
2.67958e-08
2.80165e-08
2.68819e-08
2.68819e-08
2.67958e-08
2.65898e-08
2.52831e-08
2.65037e-08
2.65037e-08
2.53692e-08
2.53692e-08
2.65898e-08
2.52831e-08
2.65037e-08
2.65037e-08
2.53692e-08
2.53692e-08
2.65037e-08
2.53692e-08
2.53692e-08
2.65898e-08
2.52831e-08
2.65037e-08
2.53692e-08
2.53692e-08
2.52831e-08
2.50771e-08
2.37703e-08
2.4991e-08
2.4991e-08
2.38564e-08
2.38564e-08
2.50771e-08
2.37703e-08
2.4991e-08
2.4991e-08
2.38564e-08
2.38564e-08
2.4991e-08
2.38564e-08
2.38564e-08
2.50771e-08
2.37703e-08
2.4991e-08
2.38564e-08
2.38564e-08
2.37703e-08
2.35643e-08
2.22576e-08
2.34782e-08
2.34782e-08
2.23436e-08
2.23436e-08
2.35643e-08
2.22576e-08
2.34782e-08
2.34782e-08
2.23436e-08
2.23436e-08
2.34782e-08
2.23436e-08
2.23436e-08
2.35643e-08
2.22575e-08
2.34782e-08
2.23436e-08
2.23436e-08
2.22575e-08
2.20515e-08
2.07448e-08
2.19654e-08
2.19654e-08
2.08309e-08
2.08309e-08
2.20515e-08
2.07448e-08
2.19654e-08
2.19654e-08
2.08309e-08
2.08309e-08
2.19654e-08
2.08309e-08
2.08309e-08
2.20516e-08
2.07448e-08
2.19654e-08
2.08309e-08
2.08309e-08
2.07448e-08
2.05388e-08
1.92321e-08
2.04527e-08
2.04527e-08
1.93182e-08
1.93182e-08
2.05388e-08
1.92321e-08
2.04527e-08
2.04527e-08
1.93182e-08
1.93182e-08
2.04527e-08
1.93182e-08
1.93182e-08
2.05388e-08
1.92321e-08
2.04527e-08
1.93182e-08
1.93182e-08
1.92321e-08
1.90261e-08
1.77195e-08
1.894e-08
1.894e-08
1.78055e-08
1.78055e-08
1.90261e-08
1.77195e-08
1.894e-08
1.894e-08
1.78055e-08
1.78055e-08
1.894e-08
1.78055e-08
1.78055e-08
1.90262e-08
1.77195e-08
1.894e-08
1.78055e-08
1.78055e-08
1.77195e-08
1.75135e-08
1.62069e-08
1.74274e-08
1.74274e-08
1.62929e-08
1.62929e-08
1.75135e-08
1.62069e-08
1.74274e-08
1.74274e-08
1.62929e-08
1.62929e-08
1.74274e-08
1.62929e-08
1.62929e-08
1.75135e-08
1.62069e-08
1.74274e-08
1.62929e-08
1.62929e-08
1.62069e-08
1.60009e-08
1.46943e-08
1.59148e-08
1.59148e-08
1.47803e-08
1.47803e-08
1.60009e-08
1.46943e-08
1.59148e-08
1.59148e-08
1.47803e-08
1.47803e-08
1.59148e-08
1.47803e-08
1.47803e-08
1.60009e-08
1.46942e-08
1.59148e-08
1.47803e-08
1.47803e-08
1.46942e-08
1.44883e-08
1.31817e-08
1.44022e-08
1.44022e-08
1.32677e-08
1.32677e-08
1.44883e-08
1.31817e-08
1.44022e-08
1.44022e-08
1.32677e-08
1.32677e-08
1.44022e-08
1.32677e-08
1.32677e-08
1.44883e-08
1.31816e-08
1.44022e-08
1.32677e-08
1.32677e-08
1.31816e-08
1.29757e-08
1.16691e-08
1.28896e-08
1.28896e-08
1.17551e-08
1.17551e-08
1.29757e-08
1.16691e-08
1.28896e-08
1.28896e-08
1.17551e-08
1.17551e-08
1.28896e-08
1.17551e-08
1.17551e-08
1.29757e-08
1.1669e-08
1.28896e-08
1.17551e-08
1.17551e-08
1.1669e-08
1.14631e-08
1.01565e-08
1.1377e-08
1.1377e-08
1.02425e-08
1.02425e-08
1.14631e-08
1.01565e-08
1.1377e-08
1.1377e-08
1.02426e-08
1.02426e-08
1.1377e-08
1.02425e-08
1.02425e-08
1.14631e-08
1.01565e-08
1.1377e-08
1.02426e-08
1.02425e-08
1.01565e-08
9.95053e-09
8.64398e-09
9.86442e-09
9.86441e-09
8.73003e-09
8.73002e-09
9.95052e-09
8.64397e-09
9.86442e-09
9.86442e-09
8.73003e-09
8.73003e-09
9.86441e-09
8.73002e-09
8.73002e-09
9.95054e-09
8.64398e-09
9.86441e-09
8.73003e-09
8.73002e-09
8.64395e-09
8.43801e-09
7.13147e-09
8.3519e-09
8.35189e-09
7.21752e-09
7.21751e-09
8.438e-09
7.13147e-09
8.3519e-09
8.35191e-09
7.21752e-09
7.21752e-09
8.35189e-09
7.21751e-09
7.21752e-09
8.43802e-09
7.13147e-09
8.3519e-09
7.21752e-09
7.21752e-09
7.13145e-09
6.9255e-09
5.619e-09
6.8394e-09
6.83939e-09
5.70505e-09
5.70505e-09
6.9255e-09
5.619e-09
6.8394e-09
6.8394e-09
5.70505e-09
5.70505e-09
6.83939e-09
5.70505e-09
5.70505e-09
6.92551e-09
5.61899e-09
6.83939e-09
5.70505e-09
5.70505e-09
5.61898e-09
5.41304e-09
4.10664e-09
5.32691e-09
5.32691e-09
4.19264e-09
4.19264e-09
5.41304e-09
4.10663e-09
5.32691e-09
5.32691e-09
4.19265e-09
4.19264e-09
5.3269e-09
4.19264e-09
4.19263e-09
5.41305e-09
4.10663e-09
5.3269e-09
4.19264e-09
4.19263e-09
4.10661e-09
3.90072e-09
2.59551e-09
3.81442e-09
3.81441e-09
2.68021e-09
2.6802e-09
3.90071e-09
2.59549e-09
3.81442e-09
3.81442e-09
2.68022e-09
2.68021e-09
3.8144e-09
2.68018e-09
2.68016e-09
3.90072e-09
2.59551e-09
3.8144e-09
2.6802e-09
2.68017e-09
2.59544e-09
2.38976e-09
1.06844e-09
2.3014e-09
2.30139e-09
1.21423e-09
1.21436e-09
2.38973e-09
1.06841e-09
2.30143e-09
2.30141e-09
1.21456e-09
1.21439e-09
2.30132e-09
1.21429e-09
1.21416e-09
2.38977e-09
1.06845e-09
2.30136e-09
1.21433e-09
1.21451e-09
1.06841e-09
8.3996e-10
8.83241e-10
8.83213e-10
8.39951e-10
8.83343e-10
8.8323e-10
7.78746e-10
7.78779e-10
7.78751e-10
8.83187e-10
8.39975e-10
8.83297e-10
1.46619e-07
1.47229e-07
1.46902e-07
1.46902e-07
1.4863e-07
1.47487e-07
1.50015e-07
1.47123e-07
1.4863e-07
1.47487e-07
1.47123e-07
1.50015e-07
1.47783e-07
1.5045e-07
1.5045e-07
1.43984e-07
1.45235e-07
1.45251e-07
1.43946e-07
1.45174e-07
1.4393e-07
1.43984e-07
1.45235e-07
1.45251e-07
1.43946e-07
1.45286e-07
1.45286e-07
1.45286e-07
1.43007e-07
1.43007e-07
1.43007e-07
1.43007e-07
1.44044e-07
1.45291e-07
1.45263e-07
1.4436e-07
1.45326e-07
1.43994e-07
1.44411e-07
1.45174e-07
1.4393e-07
1.44044e-07
1.45263e-07
1.45291e-07
1.4436e-07
1.45326e-07
1.44411e-07
1.43994e-07
1.45307e-07
1.45307e-07
1.44165e-07
1.43979e-07
1.43979e-07
1.4155e-07
1.42356e-07
1.42375e-07
1.41535e-07
1.4235e-07
1.41531e-07
1.4155e-07
1.42356e-07
1.42375e-07
1.41535e-07
1.42376e-07
1.42376e-07
1.42376e-07
1.40718e-07
1.40718e-07
1.40718e-07
1.40718e-07
1.41566e-07
1.42373e-07