/*--------------------------------*- C++ -*----------------------------------*\
| =========                 |                                                 |
| \\      /  F ield         | OpenFOAM: The Open Source CFD Toolbox           |
|  \\    /   O peration     | Version:  v2006                                 |
|   \\  /    A nd           | Website:  www.openfoam.com                      |
|    \\/     M anipulation  |                                                 |
\*---------------------------------------------------------------------------*/
FoamFile
{
    version     2.0;
    format      ascii;
    class       volScalarField;
    location    "250";
    object      k;
}
// * * * * * * * * * * * * * * * * * * * * * * * * * * * * * * * * * * * * * //

dimensions      [0 2 -2 0 0 0 0];


internalField   nonuniform List<scalar> 
14310
(
3.45019e-05
2.79021e-05
2.7899e-05
7.07222e-05
6.25038e-05
7.07245e-05
6.25086e-05
6.91793e-05
6.91814e-05
6.51384e-05
6.51463e-05
6.25023e-05
5.7128e-05
2.08762e-05
4.82601e-05
2.08749e-05
4.82584e-05
5.71319e-05
2.08773e-05
4.82623e-05
6.25057e-05
2.08778e-05
4.82604e-05
7.00292e-05
7.64148e-05
7.07321e-05
7.00238e-05
7.64312e-05
6.9849e-05
6.25483e-05
6.95331e-05
6.63392e-05
6.98458e-05
6.95361e-05
6.6376e-05
7.0029e-05
7.64223e-05
7.07331e-05
7.00243e-05
7.64315e-05
6.98493e-05
6.25534e-05
6.63442e-05
6.9534e-05
6.98464e-05
6.63792e-05
6.95369e-05
6.9186e-05
6.91879e-05
6.74221e-05
5.51927e-05
7.03364e-05
6.51758e-05
6.73609e-05
7.03514e-05
5.52872e-05
6.74762e-05
5.52034e-05
7.03465e-05
6.51832e-05
6.7415e-05
7.03614e-05
5.5298e-05
9.10949e-05
7.17667e-05
7.17603e-05
9.10675e-05
7.17733e-05
7.17669e-05
7.00286e-05
7.64001e-05
7.00234e-05
7.64151e-05
6.98481e-05
6.63343e-05
6.25469e-05
6.95327e-05
6.95357e-05
6.98449e-05
6.6371e-05
7.00273e-05
7.00226e-05
7.64136e-05
6.98475e-05
6.25504e-05
6.95329e-05
6.6338e-05
6.95359e-05
6.98444e-05
6.6373e-05
5.52156e-05
4.45044e-05
4.45094e-05
3.45254e-05
5.51294e-05
4.45592e-05
4.45644e-05
4.1668e-05
5.46488e-05
4.16251e-05
5.47306e-05
4.16736e-05
4.70167e-05
5.46564e-05
5.71957e-05
5.4738e-05
4.16305e-05
4.70725e-05
3.84673e-05
4.83679e-05
5.09728e-05
3.61504e-05
5.10715e-05
3.84296e-05
3.62026e-05
3.84635e-05
5.09678e-05
4.83664e-05
3.61487e-05
3.84259e-05
5.10669e-05
3.62011e-05
4.16738e-05
4.70198e-05
5.46595e-05
5.71996e-05
5.47402e-05
4.16308e-05
4.70759e-05
3.84684e-05
4.83717e-05
5.09751e-05
3.61514e-05
5.10744e-05
3.84306e-05
3.62043e-05
4.1672e-05
5.47351e-05
3.84663e-05
4.83697e-05
3.61506e-05
5.09711e-05
3.84283e-05
3.62034e-05
5.10707e-05
7.01889e-05
7.02053e-05
7.01292e-05
6.98501e-05
6.9837e-05
7.01434e-05
6.98319e-05
7.01915e-05
7.02034e-05
7.01306e-05
6.98499e-05
6.98371e-05
7.01431e-05
7.01238e-05
6.98316e-05
7.01861e-05
3.66398e-05
4.19173e-05
3.66437e-05
3.66432e-05
3.664e-05
4.19194e-05
2.1001e-05
2.10019e-05
7.13662e-05
7.1314e-05
3.64066e-05
5.25884e-05
6.0057e-05
6.95583e-05
6.95117e-05
4.17044e-05
6.69596e-05
6.69817e-05
6.67616e-05
6.67604e-05
6.95604e-05
6.95131e-05
5.31115e-05
6.45905e-05
5.31472e-05
3.64069e-05
4.81527e-05
2.90021e-05
6.00609e-05
2.87576e-05
4.57928e-05
6.46071e-05
7.13761e-05
7.1325e-05
6.47169e-05
5.31455e-05
3.64083e-05
2.90016e-05
5.25891e-05
2.87589e-05
6.00558e-05
4.57843e-05
6.46028e-05
7.13696e-05
7.13152e-05
6.47084e-05
2.90024e-05
5.25909e-05
4.57837e-05
7.1371e-05
6.47072e-05
6.69623e-05
6.69674e-05
6.95606e-05
6.95629e-05
7.01861e-05
7.13436e-05
7.73638e-05
7.73217e-05
7.0203e-05
7.01833e-05
7.72897e-05
7.1333e-05
7.01693e-05
7.73059e-05
6.95407e-05
6.95341e-05
9.21457e-05
7.20035e-05
7.20102e-05
9.20052e-05
7.20531e-05
7.20597e-05
7.00761e-05
5.94149e-05
6.68981e-05
7.12046e-05
5.93015e-05
7.11689e-05
7.02249e-05
7.00258e-05
5.94168e-05
6.69051e-05
7.11997e-05
7.11635e-05
5.92978e-05
7.01771e-05
6.99528e-05
7.11011e-05
5.91493e-05
6.68323e-05
5.92209e-05
6.98655e-05
7.11435e-05
6.99025e-05
7.10941e-05
5.91435e-05
6.68363e-05
6.98145e-05
7.11368e-05
5.92165e-05
9.23441e-05
7.21225e-05
7.21291e-05
7.20762e-05
7.20831e-05
9.25442e-05
6.95427e-05
6.95357e-05
7.00975e-05
6.45701e-05
6.9816e-05
6.80777e-05
6.98072e-05
6.80647e-05
7.01066e-05
7.01273e-05
6.81019e-05
6.98216e-05
6.46449e-05
7.01144e-05
6.81452e-05
6.98332e-05
7.01927e-05
7.13569e-05
7.74274e-05
7.7397e-05
7.02044e-05
7.01927e-05
7.73254e-05
7.13472e-05
7.01769e-05
7.73762e-05
7.0132e-05
6.46664e-05
6.82163e-05
6.98512e-05
6.81669e-05
6.98385e-05
7.01445e-05
7.01235e-05
6.98204e-05
6.80873e-05
6.46373e-05
7.01108e-05
6.98319e-05
6.81199e-05
7.01878e-05
7.13463e-05
7.73771e-05
7.73306e-05
7.02042e-05
7.01851e-05
7.72879e-05
7.13353e-05
7.017e-05
7.73116e-05
7.01289e-05
6.46582e-05
6.98505e-05
6.81909e-05
6.98374e-05
6.81402e-05
7.01431e-05
7.13477e-05
7.7379e-05
7.73322e-05
6.46571e-05
6.81906e-05
6.81398e-05
7.00369e-05
5.94129e-05
6.68833e-05
7.12001e-05
5.92937e-05
7.11626e-05
7.01958e-05
7.00884e-05
5.9421e-05
6.68883e-05
7.121e-05
5.93016e-05
7.11726e-05
7.02477e-05
9.23794e-05
7.21339e-05
7.21275e-05
7.20892e-05
7.20833e-05
9.25931e-05
6.95406e-05
6.95428e-05
5.06141e-05
5.06126e-05
5.96623e-05
5.95457e-05
4.18897e-05
5.05524e-05
5.05532e-05
5.06164e-05
5.96724e-05
5.06132e-05
5.95507e-05
4.18912e-05
5.05513e-05
5.05546e-05
1.50231e-05
1.08788e-05
1.50238e-05
2.08148e-05
1.49117e-05
1.49106e-05
1.0851e-05
1.50253e-05
1.08793e-05
1.50243e-05
2.08166e-05
1.49137e-05
1.49125e-05
1.0852e-05
4.81378e-05
6.02127e-05
5.85212e-05
4.81089e-05
6.0139e-05
5.8451e-05
5.25382e-05
4.79896e-05
5.83695e-05
5.24031e-05
6.01043e-05
4.79695e-05
5.84169e-05
5.24389e-05
5.94413e-05
4.17194e-05
5.03829e-05
5.03823e-05
5.04244e-05
5.93589e-05
5.04245e-05
4.5458e-05
5.30489e-05
4.35217e-05
5.54192e-05
4.34944e-05
5.53679e-05
4.54692e-05
4.56258e-05
5.54546e-05
4.36617e-05
5.32163e-05
4.56117e-05
5.55219e-05
4.36891e-05
5.25981e-05
5.85562e-05
6.0235e-05
4.8122e-05
6.01539e-05
5.25456e-05
5.84807e-05
4.79967e-05
5.83806e-05
5.24042e-05
6.01161e-05
4.79737e-05
5.24421e-05
5.84418e-05
4.38617e-05
5.3337e-05
5.56407e-05
4.5774e-05
5.32567e-05
5.55614e-05
4.38309e-05
4.56219e-05
4.36613e-05
5.54485e-05
5.3212e-05
4.56097e-05
4.3688e-05
5.55083e-05
4.81412e-05
6.02145e-05
5.85277e-05
4.81114e-05
6.0137e-05
5.84542e-05
5.25372e-05
4.7991e-05
5.83689e-05
5.24015e-05
6.0102e-05
4.79705e-05
5.84183e-05
5.24373e-05
4.38587e-05
5.33308e-05
5.56225e-05
4.57667e-05
5.32518e-05
4.38286e-05
5.55459e-05
4.81401e-05
6.02155e-05
5.85276e-05
4.81105e-05
6.0139e-05
5.84543e-05
5.25394e-05
4.38583e-05
5.33299e-05
5.56216e-05
4.57661e-05
5.3251e-05
4.38281e-05
5.5545e-05
3.52374e-05
2.86778e-05
2.86741e-05
2.86777e-05
3.52381e-05
2.86765e-05
6.91929e-05
6.52329e-05
3.47635e-05
6.26114e-05
7.0747e-05
6.26126e-05
7.0747e-05
1.60264e-05
1.60281e-05
6.91916e-05
6.91934e-05
3.47642e-05
6.52302e-05
6.52356e-05
6.9204e-05
6.91906e-05
6.92061e-05
6.91925e-05
3.49782e-05
6.53422e-05
6.53471e-05
6.52478e-05
6.52527e-05
7.0744e-05
6.26097e-05
4.85314e-05
2.81612e-05
5.72957e-05
2.1084e-05
5.72947e-05
2.81592e-05
4.85298e-05
2.10825e-05
6.26311e-05
7.0777e-05
7.07515e-05
6.27439e-05
6.26291e-05
6.2742e-05
4.85882e-05
2.84193e-05
5.74958e-05
2.15012e-05
5.73287e-05
2.12912e-05
4.88558e-05
4.85864e-05
4.88537e-05
4.85343e-05
2.8158e-05
5.72972e-05
2.10846e-05
6.26305e-05
7.07801e-05
7.07517e-05
6.27397e-05
4.85899e-05
2.84155e-05
5.74953e-05
2.1501e-05
5.73294e-05
2.12919e-05
4.88528e-05
6.26279e-05
7.07754e-05
7.07474e-05
6.27365e-05
4.85883e-05
2.84197e-05
2.15018e-05
5.74909e-05
2.12927e-05
5.73274e-05
4.8851e-05
6.92055e-05
6.91918e-05
3.498e-05
6.53411e-05
6.53389e-05
6.52491e-05
6.5248e-05
6.92044e-05
6.91908e-05
4.85933e-05
2.84186e-05
5.74919e-05
2.12948e-05
5.73301e-05
6.26333e-05
7.07774e-05
7.07494e-05
6.91861e-05
6.74984e-05
6.5197e-05
5.54412e-05
7.03806e-05
7.03658e-05
6.75588e-05
5.53449e-05
9.10928e-05
7.177e-05
7.1774e-05
7.17632e-05
7.17671e-05
9.11215e-05
6.74677e-05
7.03592e-05
6.98483e-05
6.25675e-05
6.95395e-05
6.64288e-05
6.95362e-05
6.63909e-05
6.98518e-05
7.00225e-05
7.6458e-05
7.07364e-05
7.64371e-05
7.00284e-05
6.98484e-05
6.25715e-05
6.64255e-05
6.95398e-05
6.63917e-05
6.95369e-05
6.98517e-05
7.00219e-05
7.64483e-05
7.07369e-05
7.64335e-05
7.00277e-05
6.91847e-05
6.91866e-05
9.11082e-05
7.17774e-05
7.1771e-05
7.17705e-05
7.17641e-05
9.11405e-05
6.74516e-05
7.03732e-05
6.51931e-05
5.54284e-05
7.03578e-05
6.75143e-05
5.53347e-05
6.75056e-05
7.03828e-05
6.51998e-05
5.54387e-05
7.03676e-05
6.75681e-05
5.53454e-05
6.91968e-05
6.91977e-05
6.91988e-05
6.91995e-05
9.11868e-05
7.17747e-05
7.17683e-05
9.11547e-05
7.17814e-05
7.17751e-05
6.76367e-05
5.57084e-05
6.53038e-05
7.04169e-05
7.04017e-05
5.5616e-05
6.76975e-05
6.76897e-05
5.57171e-05
6.53081e-05
7.04267e-05
7.04113e-05
5.5625e-05
6.77505e-05
6.76074e-05
7.03797e-05
5.54757e-05
6.52859e-05
6.75444e-05
7.03952e-05
5.55691e-05
6.76607e-05
7.03893e-05
5.54856e-05
6.529e-05
6.75979e-05
7.04048e-05
5.55783e-05
9.11987e-05
7.17847e-05
7.17783e-05
7.17784e-05
7.1772e-05
9.12246e-05
7.00218e-05
7.07335e-05
7.64393e-05
7.642e-05
7.00276e-05
6.98474e-05
6.64226e-05
6.25659e-05
6.95391e-05
6.95359e-05
6.63853e-05
6.98508e-05
6.98551e-05
6.95398e-05
6.64447e-05
6.26764e-05
6.98514e-05
6.95435e-05
6.64845e-05
7.00213e-05
7.07666e-05
7.65139e-05
7.64947e-05
7.0027e-05
7.00278e-05
7.64655e-05
7.07623e-05
7.00219e-05
7.64881e-05
6.98549e-05
6.2697e-05
6.9548e-05
6.6541e-05
6.95441e-05
6.65009e-05
6.98587e-05
6.98541e-05
6.6438e-05
6.95394e-05
6.26745e-05
6.98504e-05
6.95431e-05
6.64779e-05
6.9854e-05
6.65355e-05
6.26949e-05
6.95477e-05
6.95437e-05
6.64945e-05
6.98579e-05
6.9855e-05
6.64396e-05
6.954e-05
6.26728e-05
6.98512e-05
6.6478e-05
6.95434e-05
7.00224e-05
7.07684e-05
7.65192e-05
7.64915e-05
7.00288e-05
7.00282e-05
7.64557e-05
7.07634e-05
7.00216e-05
7.64813e-05
6.9855e-05
6.26929e-05
6.65382e-05
6.95483e-05
6.6495e-05
6.95441e-05
6.98591e-05
6.9853e-05
6.9539e-05
6.64332e-05
6.26699e-05
6.98491e-05
6.95424e-05
6.64707e-05
7.00202e-05
7.07638e-05
7.64983e-05
7.64713e-05
7.00267e-05
7.00262e-05
7.64368e-05
7.07588e-05
7.00195e-05
7.64612e-05
6.98528e-05
6.26899e-05
6.95472e-05
6.65304e-05
6.9543e-05
6.64878e-05
6.9857e-05
6.91982e-05
6.91989e-05
9.11784e-05
7.17675e-05
7.17738e-05
9.11462e-05
7.17746e-05
7.17809e-05
6.76877e-05
5.57148e-05
6.53022e-05
7.04263e-05
5.56229e-05
7.04104e-05
6.77499e-05
6.76318e-05
5.57063e-05
6.53009e-05
7.04166e-05
7.04008e-05
5.56149e-05
6.76939e-05
6.76582e-05
7.03883e-05
5.54854e-05
6.52845e-05
5.55767e-05
6.75969e-05
7.04037e-05
6.76024e-05
7.03789e-05
5.54773e-05
6.52835e-05
6.7541e-05
7.03942e-05
5.55685e-05
9.11925e-05
7.17791e-05
7.17854e-05
7.17721e-05
7.17784e-05
9.1224e-05
6.91971e-05
6.91978e-05
6.98533e-05
6.64392e-05
6.95399e-05
6.26729e-05
6.98495e-05
6.64728e-05
6.9543e-05
7.0019e-05
7.07653e-05
7.6505e-05
7.64782e-05
7.00265e-05
7.00254e-05
7.64495e-05
7.07604e-05
7.00183e-05
7.64685e-05
5.55874e-05
3.52144e-05
4.51706e-05
4.5175e-05
4.51171e-05
4.51215e-05
5.56733e-05
5.55849e-05
3.52153e-05
4.51732e-05
4.51709e-05
4.51198e-05
4.51177e-05
5.56712e-05
5.52829e-05
3.47401e-05
4.47698e-05
4.47638e-05
4.47123e-05
5.53682e-05
4.47124e-05
1.57987e-05
1.25077e-05
1.25071e-05
1.07799e-05
1.59124e-05
1.25809e-05
1.25802e-05
1.25441e-05
1.25436e-05
1.076e-05
1.07403e-05
1.59137e-05
1.25817e-05
1.25815e-05
1.25449e-05
1.25448e-05
1.07604e-05
1.07407e-05
5.52825e-05
3.47408e-05
4.47647e-05
4.47698e-05
5.53693e-05
4.47103e-05
4.47153e-05
5.55224e-05
3.50015e-05
4.49145e-05
4.49192e-05
5.54355e-05
4.49686e-05
4.49733e-05
3.86782e-05
4.84254e-05
5.12222e-05
3.64579e-05
5.11247e-05
3.64064e-05
3.87152e-05
4.18527e-05
5.48644e-05
5.72288e-05
4.72624e-05
5.4783e-05
4.72074e-05
4.18954e-05
4.18478e-05
5.72281e-05
4.72621e-05
5.48565e-05
4.72065e-05
5.47754e-05
4.18904e-05
3.86748e-05
5.12172e-05
4.84238e-05
3.64564e-05
5.11197e-05
3.64049e-05
3.87116e-05
3.89605e-05
5.12751e-05
3.66597e-05
4.86935e-05
3.89241e-05
5.13724e-05
3.67105e-05
4.22907e-05
4.76364e-05
5.74288e-05
5.51175e-05
4.75824e-05
5.50362e-05
4.23327e-05
4.21149e-05
5.49095e-05
4.73957e-05
5.73957e-05
4.74502e-05
4.20727e-05
5.49913e-05
3.91677e-05
4.87501e-05
5.15228e-05
3.69611e-05
5.14251e-05
3.69106e-05
3.9204e-05
3.89567e-05
5.12695e-05
3.66581e-05
4.86917e-05
3.89205e-05
5.13667e-05
3.67089e-05
3.9164e-05
5.15171e-05
4.87482e-05
3.69595e-05
5.14192e-05
3.69089e-05
3.92001e-05
3.86796e-05
4.84288e-05
5.12225e-05
3.64602e-05
5.11265e-05
3.64085e-05
3.87162e-05
4.18529e-05
5.48622e-05
5.7232e-05
4.72655e-05
5.47836e-05
4.72107e-05
4.18949e-05
3.89604e-05
5.12738e-05
3.66617e-05
4.86931e-05
3.89248e-05
5.13692e-05
3.67121e-05
4.2288e-05
4.76373e-05
5.74279e-05
5.51145e-05
4.75833e-05
5.50315e-05
4.23298e-05
4.21129e-05
5.4906e-05
4.7398e-05
5.73949e-05
4.74521e-05
4.20714e-05
5.49864e-05
3.91669e-05
4.87488e-05
5.15187e-05
3.6961e-05
5.14213e-05
3.69111e-05
3.92024e-05
3.8959e-05
3.6661e-05
5.12706e-05
4.86915e-05
3.8923e-05
3.67115e-05
5.13656e-05
4.22862e-05
4.76352e-05
5.74244e-05
5.51073e-05
5.50252e-05
4.75818e-05
4.23277e-05
4.21116e-05
5.49009e-05
4.73975e-05
5.73916e-05
4.20701e-05
5.49802e-05
4.7451e-05
3.9165e-05
4.8747e-05
3.69603e-05
5.15144e-05
3.69103e-05
5.14175e-05
3.92007e-05
5.55205e-05
3.5003e-05
4.4919e-05
4.49168e-05
4.49725e-05
5.54346e-05
4.49702e-05
3.89627e-05
3.66646e-05
5.12766e-05
4.86955e-05
3.8927e-05
3.6715e-05
5.13697e-05
4.22891e-05
4.76352e-05
5.74263e-05
5.51098e-05
4.7582e-05
5.50294e-05
4.23303e-05
4.2115e-05
5.49078e-05
4.73979e-05
5.73941e-05
4.20738e-05
4.74513e-05
5.49852e-05
1.07234e-05
2.89328e-05
2.89362e-05
3.5448e-05
1.66471e-05
2.99696e-05
2.99723e-05
3.63757e-05
1.71904e-05
3.09988e-05
3.10021e-05
3.72675e-05
1.77751e-05
3.20282e-05
3.20316e-05
3.81438e-05
1.83897e-05
3.30293e-05
3.30322e-05
3.89833e-05
1.90585e-05
3.40455e-05
3.40491e-05
3.98202e-05
1.97344e-05
3.50048e-05
3.50083e-05
4.05961e-05
2.04672e-05
3.59777e-05
3.59807e-05
4.1396e-05
3.54491e-05
3.6163e-05
2.89379e-05
2.89354e-05
2.97106e-05
2.971e-05
3.54475e-05
3.61645e-05
2.89339e-05
2.89376e-05
2.97073e-05
2.97125e-05
2.89365e-05
2.97086e-05
2.97138e-05
3.54494e-05
3.6166e-05
2.8934e-05
2.97116e-05
2.9711e-05
3.61687e-05
3.63693e-05
3.70695e-05
2.99717e-05
2.99709e-05
3.07492e-05
3.07461e-05
3.63706e-05
3.7067e-05
2.99678e-05
2.9973e-05
3.07456e-05
3.07483e-05
2.99757e-05
3.07444e-05
3.07489e-05
3.63719e-05
3.70685e-05
2.99727e-05
3.07474e-05
3.07459e-05
3.70689e-05
3.72697e-05
3.79425e-05
3.10034e-05
3.10006e-05
3.17702e-05
3.1768e-05
3.72674e-05
3.79423e-05
3.09995e-05
3.10029e-05
3.17666e-05
3.17709e-05
3.10022e-05
3.17669e-05
3.17717e-05
3.7269e-05
3.7945e-05
3.09992e-05
3.17706e-05
3.17685e-05
3.79465e-05
3.81399e-05
3.87954e-05
3.20317e-05
3.20292e-05
3.27877e-05
3.27849e-05
3.81393e-05
3.87939e-05
3.20275e-05
3.2032e-05
3.27838e-05
3.27873e-05
3.20335e-05
3.27834e-05
3.27883e-05
3.81416e-05
3.8796e-05
3.20302e-05
3.27867e-05
3.27849e-05
3.87964e-05
3.89821e-05
3.96345e-05
3.30327e-05
3.30305e-05
3.37976e-05
3.37955e-05
3.89814e-05
3.96344e-05
3.3028e-05
3.30323e-05
3.37945e-05
3.37981e-05
3.3034e-05
3.37956e-05
3.37989e-05
3.89829e-05
3.9636e-05
3.30306e-05
3.37985e-05
3.37953e-05
3.96362e-05
3.98199e-05
4.041e-05
3.40494e-05
3.40458e-05
3.47548e-05
3.47519e-05
3.98186e-05
4.04084e-05
3.40453e-05
3.40494e-05
3.47513e-05
3.47554e-05
3.40496e-05
3.47518e-05
3.4756e-05
3.98211e-05
4.04118e-05
3.40461e-05
3.47556e-05
3.47523e-05
4.04126e-05
4.05938e-05
4.12352e-05
3.50075e-05
3.50039e-05
3.57592e-05
3.57572e-05
4.05932e-05
4.12336e-05
3.50025e-05
3.50067e-05
3.57563e-05
3.57594e-05
3.50076e-05
3.57557e-05
3.57619e-05
4.05955e-05
4.12353e-05
3.5004e-05
3.57584e-05
3.57583e-05
4.12363e-05
4.13949e-05
4.19174e-05
3.59854e-05
3.59806e-05
3.66423e-05
4.13926e-05
3.59799e-05
3.59831e-05
3.66396e-05
3.59848e-05
4.13946e-05
3.59813e-05
6.28754e-05
7.07811e-05
7.08065e-05
6.27645e-05
6.92048e-05
6.92194e-05
6.28792e-05
7.07845e-05
7.08088e-05
6.27616e-05
1.61468e-05
1.07238e-05
1.61484e-05
1.65159e-05
1.65164e-05
1.65183e-05
1.65186e-05
4.91762e-05
4.25015e-05
2.17144e-05
2.91904e-05
3.94059e-05
5.7691e-05
2.19272e-05
6.9205e-05
6.92192e-05
4.91769e-05
2.17171e-05
4.25038e-05
2.91939e-05
2.193e-05
5.76933e-05
4.8908e-05
6.53509e-05
6.53591e-05
3.57042e-05
6.54491e-05
6.54573e-05
6.3133e-05
7.08444e-05
6.30225e-05
7.08709e-05
6.92338e-05
6.92501e-05
6.31306e-05
7.08457e-05
6.3021e-05
7.08738e-05
1.66472e-05
1.66491e-05
1.66498e-05
1.70525e-05
1.70521e-05
1.70541e-05
1.70546e-05
4.98008e-05
5.7917e-05
2.25866e-05
3.02271e-05
4.95509e-05
5.80722e-05
2.28083e-05
6.92335e-05
6.92492e-05
4.98001e-05
2.25889e-05
5.79171e-05
3.02297e-05
4.955e-05
2.28105e-05
5.80732e-05
6.55758e-05
6.55825e-05
3.66246e-05
6.56649e-05
6.56718e-05
6.33833e-05
7.0909e-05
6.32756e-05
7.09387e-05
6.92668e-05
6.92846e-05
6.33831e-05
7.09111e-05
6.32774e-05
7.09406e-05
1.71896e-05
1.71918e-05
1.71918e-05
1.76208e-05
1.76207e-05
1.76232e-05
1.76231e-05
5.03988e-05
5.82859e-05
2.34831e-05
3.1255e-05
5.01524e-05
5.84379e-05
2.37096e-05
6.92664e-05
6.92842e-05
5.03992e-05
2.34859e-05
5.82883e-05
3.12587e-05
5.01533e-05
2.37126e-05
5.84401e-05
6.5779e-05
6.5787e-05
3.75067e-05
6.5868e-05
6.58753e-05
6.36433e-05
7.09807e-05
6.35337e-05
7.10117e-05
6.93055e-05
6.93242e-05
6.36426e-05
7.0983e-05
6.35328e-05
7.10134e-05
1.77745e-05
1.77771e-05
1.77772e-05
1.82364e-05
1.82361e-05
1.82385e-05
1.82388e-05
5.09876e-05
5.865e-05
2.44079e-05
3.22813e-05
5.07459e-05
5.88009e-05
2.46433e-05
6.93051e-05
6.93237e-05
5.09867e-05
2.4411e-05
5.86512e-05
3.22847e-05
5.07452e-05
2.46462e-05
5.88018e-05
6.59988e-05
6.60059e-05
3.83802e-05
6.60833e-05
6.60907e-05
6.38853e-05
7.10507e-05
6.37817e-05
7.10867e-05
6.93449e-05
6.93689e-05
6.38847e-05
7.10528e-05
6.37795e-05
7.10896e-05
1.83891e-05
1.83914e-05
1.8392e-05
1.88851e-05
1.88856e-05
1.88881e-05
1.88878e-05
5.1545e-05
5.89917e-05
2.5348e-05
3.32851e-05
5.13162e-05
5.91371e-05
2.55872e-05
6.93449e-05
6.93692e-05
5.15448e-05
2.5351e-05
5.8993e-05
3.32879e-05
5.13161e-05
2.55903e-05
5.91378e-05
6.61839e-05
6.61911e-05
3.92133e-05
6.62798e-05
6.62871e-05
6.41385e-05
7.11324e-05
6.40454e-05
7.11557e-05
6.93901e-05
6.94063e-05
6.41378e-05
7.11345e-05
6.40472e-05
7.11573e-05
1.90575e-05
1.90604e-05
1.906e-05
1.95543e-05
1.95544e-05
1.95576e-05
1.95571e-05
5.20966e-05
5.93511e-05
2.63228e-05
3.42798e-05
5.18788e-05
5.94628e-05
2.65624e-05
6.93914e-05
6.94073e-05
5.20951e-05
2.63259e-05
5.93521e-05
3.42838e-05
5.18781e-05
2.65655e-05
5.94642e-05
6.64114e-05
6.64183e-05
4.00291e-05
6.64492e-05
6.64566e-05
6.44023e-05
7.12112e-05
6.42607e-05
7.12584e-05
6.94466e-05
6.94716e-05
6.44016e-05
7.12135e-05
6.4258e-05
7.12606e-05
1.97333e-05
1.97365e-05
1.97358e-05
2.02847e-05
2.02851e-05
2.02877e-05
2.02886e-05
5.26253e-05
5.96389e-05
2.72818e-05
3.52633e-05
5.2387e-05
5.98311e-05
2.7534e-05
6.9447e-05
6.94728e-05
5.26247e-05
2.72848e-05
5.96397e-05
3.52668e-05
5.23858e-05
2.75372e-05
5.98322e-05
6.65844e-05
6.65914e-05
4.08367e-05
6.67326e-05
6.67396e-05
6.45948e-05
7.1285e-05
6.45508e-05
7.13091e-05
6.94793e-05
6.95046e-05
6.45928e-05
7.12866e-05
6.45504e-05
7.13107e-05
2.04649e-05
2.04677e-05
2.04687e-05
2.09995e-05
5.31121e-05
5.99837e-05
2.82851e-05
3.61879e-05
5.29425e-05
6.00392e-05
2.85216e-05
6.94809e-05
6.95056e-05
5.31118e-05
2.82886e-05
5.9984e-05
3.61917e-05
5.29428e-05
2.85251e-05
6.00406e-05
6.67574e-05
6.67663e-05
4.15569e-05
6.67404e-05
6.67491e-05
6.92032e-05
6.92173e-05
6.92055e-05
6.92195e-05
6.53597e-05
6.53653e-05
3.57041e-05
6.54494e-05
6.54571e-05
6.92323e-05
6.92169e-05
6.92344e-05
6.92192e-05
3.59124e-05
6.55569e-05
6.55633e-05
6.54661e-05
6.54737e-05
6.28742e-05
7.07792e-05
7.08046e-05
6.27628e-05
4.91776e-05
5.75285e-05
2.17151e-05
2.91948e-05
5.76909e-05
2.19281e-05
3.71602e-05
4.91763e-05
4.7767e-05
2.17139e-05
2.9193e-05
5.76917e-05
2.19268e-05
3.94063e-05
6.28946e-05
7.08395e-05
7.08113e-05
6.30025e-05
6.28933e-05
7.08371e-05
7.08092e-05
6.30008e-05
4.92327e-05
2.94548e-05
5.7882e-05
2.23627e-05
5.77223e-05
2.21469e-05
4.94905e-05
4.92313e-05
2.94538e-05
5.78834e-05
2.23617e-05
5.77236e-05
2.2146e-05
4.94891e-05
6.53609e-05
6.53518e-05
3.57032e-05
6.54557e-05
6.54494e-05
6.92032e-05
6.92178e-05
6.92341e-05
6.92188e-05
3.59127e-05
6.55622e-05
6.55589e-05
6.54729e-05
6.54673e-05
6.92322e-05
6.92175e-05
4.91786e-05
5.75287e-05
2.17152e-05
2.91914e-05
5.76945e-05
2.1928e-05
4.89095e-05
6.28761e-05
7.07799e-05
7.08048e-05
6.27583e-05
4.91767e-05
2.17159e-05
5.75246e-05
2.91955e-05
2.19288e-05
5.76923e-05
4.89075e-05
6.28986e-05
7.08407e-05
7.08131e-05
6.30021e-05
4.92345e-05
2.94511e-05
5.78839e-05
2.23631e-05
5.7726e-05
2.21476e-05
4.94924e-05
6.28956e-05
7.08365e-05
7.08091e-05
6.29995e-05
4.92325e-05
2.94562e-05
2.23642e-05
5.78822e-05
2.21485e-05
5.77242e-05
4.94908e-05
6.28791e-05
7.07818e-05
6.27562e-05
7.08091e-05
4.91756e-05
2.17155e-05
4.77606e-05
2.91942e-05
3.94049e-05
2.19283e-05
5.76902e-05
6.2878e-05
7.07796e-05
6.27555e-05
7.08061e-05
4.92331e-05
2.94518e-05
5.78861e-05
2.23639e-05
5.7724e-05
2.21472e-05
4.94976e-05
6.29003e-05
7.08393e-05
7.08134e-05
6.30093e-05
4.92325e-05
2.9456e-05
2.23652e-05
5.78845e-05
2.21484e-05
5.77231e-05
4.94967e-05
6.28991e-05
7.08369e-05
7.08104e-05
6.30079e-05
6.53599e-05
6.53572e-05
3.57052e-05
6.5456e-05
6.54529e-05
6.92039e-05
6.92183e-05
6.92335e-05
6.92188e-05
3.59143e-05
6.55605e-05
6.55601e-05
6.54729e-05
6.54703e-05
6.92328e-05
6.92179e-05
4.9176e-05
2.17162e-05
4.77659e-05
2.91917e-05
2.1929e-05
5.76938e-05
3.94056e-05
6.2878e-05
7.07823e-05
7.08089e-05
6.27568e-05
6.28778e-05
7.07814e-05
7.08076e-05
6.27565e-05
4.92337e-05
2.9455e-05
2.23664e-05
5.78861e-05
2.21499e-05
5.77259e-05
4.94966e-05
4.92328e-05
2.94534e-05
2.23656e-05
5.78871e-05
2.21489e-05
5.77264e-05
4.94956e-05
6.28991e-05
7.08392e-05
7.08132e-05
6.30068e-05
6.28986e-05
7.08385e-05
7.08119e-05
6.30064e-05
6.92034e-05
6.9218e-05
6.92058e-05
6.92204e-05
3.59138e-05
6.55585e-05
6.55654e-05
6.54669e-05
6.54749e-05
6.92326e-05
6.92177e-05
6.9235e-05
6.92201e-05
6.92324e-05
6.92483e-05
6.92345e-05
6.92506e-05
6.55749e-05
6.55811e-05
3.6619e-05
6.56687e-05
6.56758e-05
6.92645e-05
6.92485e-05
6.92667e-05
6.92508e-05
3.68239e-05
6.57717e-05
6.57788e-05
6.56857e-05
6.56929e-05
6.31314e-05
7.08419e-05
6.30207e-05
7.08687e-05
4.97997e-05
5.79141e-05
2.25848e-05
3.02302e-05
4.95445e-05
5.80746e-05
2.28068e-05
4.97981e-05
5.79148e-05
2.25839e-05
3.02284e-05
4.95431e-05
5.80727e-05
2.28057e-05
6.31522e-05
7.09038e-05
7.08755e-05
6.32568e-05
6.31506e-05
7.09013e-05
7.08733e-05
6.32552e-05
4.98529e-05
3.04901e-05
5.82589e-05
2.32579e-05
5.81055e-05
2.30305e-05
5.01019e-05
4.98513e-05
3.04878e-05
5.82569e-05
2.32566e-05
5.81036e-05
2.30292e-05
5.01002e-05
6.55794e-05
6.55755e-05
3.66188e-05
6.567e-05
6.56633e-05
6.92321e-05
6.92475e-05
6.92666e-05
6.925e-05
3.68226e-05
6.57747e-05
6.57678e-05
6.56872e-05
6.56798e-05
6.92643e-05
6.92476e-05
4.9798e-05
5.79153e-05
2.25853e-05
3.02267e-05
4.95455e-05
5.80761e-05
2.28068e-05
6.31276e-05
7.08414e-05
6.30183e-05
7.08689e-05
4.97962e-05
2.25865e-05
5.79133e-05
3.02305e-05
4.95438e-05
2.28079e-05
5.80709e-05
6.31506e-05
7.0906e-05
7.08784e-05
6.32586e-05
4.98512e-05
3.04863e-05
5.82616e-05
2.32581e-05
5.81074e-05
2.30308e-05
5.01025e-05
6.31475e-05
7.09016e-05
7.08736e-05
6.32554e-05
4.98492e-05
3.04897e-05
2.32588e-05
5.82564e-05
2.30316e-05
5.81019e-05
5.01004e-05
6.31306e-05
7.08439e-05
6.30274e-05
7.08708e-05
4.98003e-05
2.25881e-05
5.79158e-05
3.02335e-05
4.955e-05
2.281e-05
5.80724e-05
6.31299e-05
7.08416e-05
6.30261e-05
7.08685e-05
4.98529e-05
3.04863e-05
5.82559e-05
2.32585e-05
5.81025e-05
2.30315e-05
5.01006e-05
6.31495e-05
7.09043e-05
7.08756e-05
6.32565e-05
4.98523e-05
3.0492e-05
2.32602e-05
5.8253e-05
2.30333e-05
5.81027e-05
5.00999e-05
6.31488e-05
7.09011e-05
7.08731e-05
6.32552e-05
6.55774e-05
6.5577e-05
3.662e-05
6.56681e-05
6.56661e-05
6.92327e-05
6.92484e-05
6.9266e-05
6.92494e-05
3.68236e-05
6.57739e-05
6.5771e-05
6.56852e-05
6.56828e-05
6.92653e-05
6.92486e-05
4.97996e-05
2.25884e-05
5.79183e-05
3.02303e-05
4.95491e-05
2.28101e-05
5.80751e-05
6.31291e-05
7.08439e-05
6.30251e-05
7.08713e-05
6.31297e-05
7.08433e-05
6.30247e-05
7.08707e-05
4.98525e-05
3.04889e-05
2.32612e-05
5.8258e-05
2.30338e-05
5.81039e-05
5.01013e-05
4.98521e-05
3.04888e-05
2.32606e-05
5.82567e-05
2.30335e-05
5.81055e-05
5.01006e-05
6.31485e-05
7.09049e-05
7.08762e-05
6.32562e-05
6.3149e-05
7.0903e-05
7.08753e-05
6.32562e-05
6.92325e-05
6.92478e-05
6.92349e-05
6.92503e-05
3.68271e-05
6.5763e-05
6.57711e-05
6.56808e-05
6.56879e-05
6.92638e-05
6.92478e-05
6.92665e-05
6.92504e-05
6.92648e-05
6.92823e-05
6.9267e-05
6.92847e-05
6.57872e-05
6.57941e-05
3.75073e-05
6.58701e-05
6.58769e-05
6.93028e-05
6.92831e-05
6.93053e-05
6.92855e-05
3.77041e-05
6.59796e-05
6.59873e-05
6.58866e-05
6.58936e-05
6.33816e-05
7.09066e-05
6.3274e-05
7.09364e-05
5.0398e-05
5.82884e-05
2.3483e-05
3.12594e-05
5.01534e-05
5.84374e-05
2.37095e-05
5.03963e-05
5.82867e-05
2.34815e-05
3.12567e-05
5.01518e-05
5.84367e-05
2.37081e-05
6.34032e-05
7.09751e-05
7.0944e-05
6.35138e-05
6.34015e-05
7.09728e-05
7.09418e-05
6.35122e-05
5.04493e-05
3.15148e-05
5.86197e-05
2.41697e-05
5.8467e-05
2.39415e-05
5.06941e-05
5.04477e-05
3.15127e-05
5.86187e-05
2.41684e-05
5.84665e-05
2.394e-05
5.06925e-05
6.57909e-05
6.57843e-05
3.75063e-05
6.58751e-05
6.58714e-05
6.92648e-05
6.92826e-05
6.93048e-05
6.92852e-05
3.77037e-05
6.5983e-05
6.59787e-05
6.58919e-05
6.58879e-05
6.93026e-05
6.92833e-05
5.03989e-05
5.8291e-05
2.34836e-05
3.12557e-05
5.01544e-05
5.84392e-05
2.37098e-05
6.33801e-05
7.09067e-05
6.32742e-05
7.09364e-05
5.0397e-05
2.34842e-05
5.82863e-05
3.12595e-05
5.01522e-05
2.37107e-05
5.84371e-05
6.34027e-05
7.09774e-05
7.0946e-05
6.35127e-05
5.04499e-05
3.15107e-05
5.86217e-05
2.417e-05
5.84687e-05
2.3942e-05
5.06936e-05
6.33996e-05
7.0973e-05
7.09417e-05
6.35097e-05
5.04479e-05
3.15155e-05
2.41711e-05
5.86188e-05
2.39429e-05
5.84668e-05
5.06918e-05
6.33844e-05
7.09095e-05
6.32757e-05
7.09391e-05
5.03977e-05
2.34846e-05
5.82825e-05
3.12583e-05
5.01516e-05
2.37109e-05
5.84338e-05
6.33829e-05
7.09063e-05
6.32744e-05
7.09365e-05
5.04501e-05
3.15113e-05
5.86199e-05
2.41703e-05
5.84676e-05
2.39415e-05
5.0695e-05
6.34041e-05
7.09755e-05
7.09444e-05
6.3514e-05
5.0449e-05
3.15154e-05
2.41718e-05
5.86199e-05
2.39429e-05
5.84644e-05
5.06942e-05
6.34027e-05
7.0973e-05
7.09419e-05
6.35129e-05
6.57903e-05
6.57877e-05
3.75088e-05
6.58765e-05
6.58749e-05
6.92657e-05
6.92835e-05
6.93042e-05
6.92849e-05
3.77063e-05
6.59839e-05
6.59809e-05
6.58931e-05
6.58914e-05
6.93032e-05
6.92842e-05
5.0398e-05
2.34851e-05
5.82861e-05
3.12553e-05
5.01525e-05
2.37115e-05
5.84369e-05
6.33828e-05
7.091e-05
6.32755e-05
7.09394e-05
6.33827e-05
7.09081e-05
6.32753e-05
7.09382e-05
5.04505e-05
3.15151e-05
2.41734e-05
5.86212e-05
2.39446e-05
5.84698e-05
5.06943e-05
5.04494e-05
3.15123e-05
2.41723e-05
5.86225e-05
2.39435e-05
5.84672e-05
5.06936e-05
6.34024e-05
7.09757e-05
7.09446e-05
6.35115e-05
6.34023e-05
7.09749e-05
7.09436e-05
6.3512e-05
6.92643e-05
6.9283e-05
6.9267e-05
6.92856e-05
3.77047e-05
6.59814e-05
6.59885e-05
6.5886e-05
6.58931e-05
6.93033e-05
6.92839e-05
6.93059e-05
6.92865e-05
6.93037e-05
6.93223e-05
6.93062e-05
6.93246e-05
6.59978e-05
6.60056e-05
3.83776e-05
6.60879e-05
6.60953e-05
6.93417e-05
6.93229e-05
6.9344e-05
6.93252e-05
3.857e-05
6.61717e-05
6.6178e-05
6.61021e-05
6.61092e-05
6.36418e-05
7.09785e-05
6.35321e-05
7.10094e-05
5.09872e-05
5.86502e-05
2.44074e-05
3.22855e-05
5.07452e-05
5.88026e-05
2.46428e-05
5.09856e-05
5.86492e-05
2.44059e-05
3.22825e-05
5.07437e-05
5.88004e-05
2.46414e-05
6.36624e-05
7.1045e-05
7.10167e-05
6.37641e-05
6.36608e-05
7.10429e-05
7.10145e-05
6.37627e-05
5.10368e-05
3.25392e-05
5.89662e-05
2.51148e-05
5.88306e-05
2.48783e-05
5.1269e-05
5.10353e-05
3.25361e-05
5.89644e-05
2.51134e-05
5.88285e-05
2.48767e-05
5.12675e-05
6.60011e-05
6.59963e-05
3.83758e-05
6.60894e-05
6.6085e-05
6.93035e-05
6.93221e-05
6.93436e-05
6.93246e-05
3.85678e-05
6.61744e-05
6.61712e-05
6.61039e-05
6.60994e-05
6.93421e-05
6.93228e-05
5.09867e-05
5.86523e-05
2.44076e-05
3.2282e-05
5.07446e-05
5.88046e-05
2.4643e-05
6.36398e-05
7.09787e-05
6.35298e-05
7.10091e-05
5.09849e-05
2.44087e-05
5.86491e-05
3.22854e-05
5.07427e-05
2.46441e-05
5.88004e-05
6.36615e-05
7.10469e-05
7.10184e-05
6.37619e-05
5.10362e-05
3.25348e-05
5.89671e-05
2.51145e-05
5.88324e-05
2.48784e-05
5.12677e-05
6.36586e-05
7.10425e-05
7.1014e-05
6.37589e-05
5.10343e-05
3.25387e-05
2.51157e-05
5.8964e-05
2.48794e-05
5.88284e-05
5.12659e-05
6.36431e-05
7.09811e-05
6.35338e-05
7.10117e-05
5.09869e-05
2.44096e-05
5.86503e-05
3.22865e-05
5.07451e-05
2.46451e-05
5.87999e-05
6.3642e-05
7.09787e-05
6.35327e-05
7.10092e-05
5.10369e-05
3.25347e-05
5.89651e-05
2.51149e-05
5.88288e-05
2.48784e-05
5.12689e-05
6.3662e-05
7.10457e-05
7.10167e-05
6.37634e-05
5.10362e-05
3.25396e-05
2.5117e-05
5.89626e-05
2.48803e-05
5.88274e-05
5.12682e-05
6.36609e-05
7.10429e-05
7.10142e-05
6.37624e-05
6.60018e-05
6.59984e-05
3.8378e-05
6.60909e-05
6.60868e-05
6.93041e-05
6.93228e-05
6.93434e-05
6.93244e-05
3.85699e-05
6.61762e-05
6.61733e-05
6.61053e-05
6.61013e-05
6.93427e-05
6.93234e-05
5.09863e-05
2.44101e-05
5.86529e-05
3.22832e-05
5.07446e-05
2.46455e-05
5.88026e-05
6.36408e-05
7.09813e-05
6.35314e-05
7.10119e-05
6.36415e-05
7.09806e-05
6.35319e-05
7.1011e-05
5.10363e-05
3.2538e-05
2.51179e-05
5.89663e-05
2.48812e-05
5.88298e-05
5.12685e-05
5.10359e-05
3.25363e-05
2.51173e-05
5.89653e-05
2.48806e-05
5.88301e-05
5.1268e-05
6.36599e-05
7.1046e-05
7.10169e-05
6.37616e-05
6.36605e-05
7.10448e-05
7.1016e-05
6.37622e-05
6.93041e-05
6.93221e-05
6.93067e-05
6.93246e-05
3.8571e-05
6.61685e-05
6.61757e-05
6.6097e-05
6.61043e-05
6.93421e-05
6.93227e-05
6.93446e-05
6.93253e-05
6.93432e-05
6.93672e-05
6.93455e-05
6.93698e-05
6.61861e-05
6.61925e-05
3.92102e-05
6.62788e-05
6.62865e-05
6.93895e-05
6.93691e-05
6.93919e-05
6.93718e-05
3.94013e-05
6.64026e-05
6.64116e-05
6.63012e-05
6.63096e-05
6.38839e-05
7.10487e-05
6.37802e-05
7.10843e-05
5.15434e-05
5.89924e-05
2.53478e-05
3.32873e-05
5.13164e-05
5.9135e-05