/*--------------------------------*- C++ -*----------------------------------*\
| =========                 |                                                 |
| \\      /  F ield         | OpenFOAM: The Open Source CFD Toolbox           |
|  \\    /   O peration     | Version:  v2006                                 |
|   \\  /    A nd           | Website:  www.openfoam.com                      |
|    \\/     M anipulation  |                                                 |
\*---------------------------------------------------------------------------*/
FoamFile
{
    version     2.0;
    format      ascii;
    class       volScalarField;
    location    "250";
    object      nut;
}
// * * * * * * * * * * * * * * * * * * * * * * * * * * * * * * * * * * * * * //

dimensions      [0 2 -1 0 0 0 0];


internalField   nonuniform List<scalar> 
14310
(
0.000114254
0.000111936
0.000111948
4.97966e-05
8.72159e-05
4.97925e-05
8.72259e-05
2.35534e-05
2.35515e-05
7.09899e-05
7.0986e-05
8.72141e-05
8.74626e-05
0.000109074
0.000107396
0.00010907
0.000107395
8.74618e-05
0.000109082
0.000107403
8.72154e-05
0.00010908
0.000107396
2.00811e-05
7.4262e-05
4.98001e-05
2.00803e-05
7.43009e-05
3.61977e-05
8.73284e-05
4.04511e-05
8.4327e-05
3.61969e-05
4.0452e-05
8.44119e-05
2.00807e-05
7.42733e-05
4.97955e-05
2.008e-05
7.43001e-05
3.61971e-05
8.73398e-05
8.4338e-05
4.04503e-05
3.61963e-05
8.44189e-05
4.04512e-05
2.35545e-05
2.35526e-05
9.2263e-05
0.000102761
4.76721e-05
7.10633e-05
9.21173e-05
4.76772e-05
0.000102985
9.228e-05
0.000102751
4.76605e-05
7.10587e-05
9.21336e-05
4.76655e-05
0.000102979
7.71439e-05
2.14528e-05
2.14496e-05
7.7098e-05
2.14537e-05
2.14506e-05
2.00794e-05
7.42459e-05
2.00788e-05
7.42824e-05
3.61956e-05
8.43182e-05
8.73251e-05
4.04511e-05
4.04519e-05
3.61947e-05
8.44021e-05
2.00795e-05
2.00788e-05
7.42817e-05
3.61948e-05
8.73344e-05
4.04498e-05
8.43226e-05
4.04507e-05
3.6194e-05
8.44084e-05
0.000108755
0.00011272
0.000112723
0.000114445
0.000108481
0.000112911
0.000112915
0.000110722
9.82259e-05
0.000110517
9.84758e-05
0.000110734
0.000107644
9.82349e-05
8.76449e-05
9.84907e-05
0.00011053
0.000107811
0.000112334
0.000107725
0.000105274
0.000112691
0.000105544
0.00011213
0.000112907
0.000112325
0.000105264
0.00010772
0.000112688
0.000112122
0.000105534
0.000112903
0.000110733
0.000107637
9.82473e-05
8.76436e-05
9.84917e-05
0.000110528
0.000107805
0.000112336
0.000107735
0.000105281
0.000112692
0.000105553
0.000112132
0.00011291
0.000110726
9.84902e-05
0.00011233
0.000107732
0.000112688
0.00010527
0.000112124
0.000112907
0.000105545
2.01024e-05
2.01047e-05
3.62679e-05
4.05421e-05
4.05383e-05
3.62715e-05
4.05371e-05
2.01041e-05
2.01058e-05
3.62703e-05
4.05423e-05
4.05386e-05
3.62735e-05
3.62665e-05
4.05367e-05
2.0102e-05
0.000139105
0.000137024
0.000139148
0.000139114
0.000139119
0.000137022
0.000122956
0.000122952
5.0019e-05
5.00009e-05
0.000138333
0.00012218
9.34853e-05
2.36159e-05
2.36078e-05
0.000136199
7.38193e-05
7.38778e-05
7.3461e-05
7.34756e-05
2.36174e-05
2.36093e-05
0.000120771
9.18336e-05
0.000120839
0.00013835
0.000128736
0.000134631
9.34982e-05
0.000133787
0.000132932
9.18562e-05
5.00233e-05
5.00052e-05
9.20817e-05
0.000120837
0.000138329
0.000134616
0.000122192
0.000133788
9.34905e-05
0.000132889
9.18494e-05
5.00187e-05
4.99998e-05
9.20605e-05
0.000134625
0.00012218
0.000132883
5.0017e-05
9.20561e-05
7.38339e-05
7.38234e-05
2.36165e-05
2.36155e-05
2.01018e-05
5.00111e-05
7.60106e-05
7.5936e-05
2.01042e-05
2.01014e-05
7.59005e-05
5.00074e-05
2.00995e-05
7.59254e-05
2.36128e-05
2.36116e-05
7.8452e-05
2.14854e-05
2.14886e-05
7.8279e-05
2.14927e-05
2.14958e-05
9.71131e-05
0.000112749
7.36968e-05
4.7951e-05
0.000112406
4.79388e-05
9.74706e-05
9.71039e-05
0.00011279
7.37264e-05
4.79613e-05
4.79489e-05
0.000112434
9.7465e-05
9.68619e-05
4.79159e-05
0.000112023
7.35935e-05
0.000112196
9.6688e-05
4.79301e-05
9.6849e-05
4.79255e-05
0.000112046
7.36128e-05
9.66777e-05
4.79397e-05
0.000112213
7.87108e-05
2.15033e-05
2.15065e-05
2.14962e-05
2.14994e-05
7.90016e-05
2.36143e-05
2.36131e-05
3.62607e-05
9.18016e-05
4.05328e-05
8.79902e-05
4.05303e-05
8.79758e-05
3.6263e-05
3.62694e-05
8.8021e-05
4.05338e-05
9.19318e-05
3.6266e-05
8.81117e-05
4.05372e-05
2.01043e-05
5.00164e-05
7.61198e-05
7.60587e-05
2.0106e-05
2.01043e-05
7.59364e-05
5.0013e-05
2.0102e-05
7.60326e-05
3.62706e-05
9.19698e-05
8.82565e-05
4.05424e-05
8.81469e-05
4.05387e-05
3.62738e-05
3.62673e-05
4.0534e-05
8.80004e-05
9.19153e-05
3.62641e-05
4.05373e-05
8.8057e-05
2.01027e-05
5.00105e-05
7.60364e-05
7.59522e-05
2.01051e-05
2.01023e-05
7.58968e-05
5.00067e-05
2.01002e-05
7.59353e-05
3.62687e-05
9.19508e-05
4.05427e-05
8.81929e-05
4.05389e-05
8.80921e-05
3.62724e-05
5.00089e-05
7.60353e-05
7.59506e-05
9.19473e-05
8.81894e-05
8.80888e-05
9.71217e-05
0.000112774
7.36806e-05
4.79621e-05
0.000112412
4.79492e-05
9.75105e-05
9.71348e-05
0.000112756
7.36706e-05
4.79514e-05
0.000112396
4.79385e-05
9.7524e-05
7.87553e-05
2.15071e-05
2.15037e-05
2.15001e-05
2.14968e-05
7.90733e-05
2.3613e-05
2.3612e-05
0.000129966
0.000129954
0.00011976
0.000119359
0.000136771
0.000129683
0.000129693
0.000129958
0.000119793
0.00012996
0.000119369
0.000136767
0.000129682
0.00012968
0.000120848
0.000132444
0.000120836
0.000122305
0.000120571
0.000120574
0.00013265
0.000120844
0.000132448
0.000120851
0.000122306
0.000120576
0.000120583
0.00013265
0.000128666
9.38387e-05
0.000107693
0.000128494
9.36363e-05
0.000107479
0.000121995
0.000128263
0.000107313
0.000121647
9.36061e-05
0.000128135
0.000107445
0.000121764
0.000119101
0.000136369
0.000129178
0.000129182
0.000129346
0.000118847
0.000129352
0.000131932
0.00012061
0.000134012
0.000117074
0.000133857
0.000116954
0.00013205
0.000132458
0.000117135
0.000134314
0.000121021
0.000132326
0.000117313
0.000134468
0.000122231
0.000107812
9.39078e-05
0.000128552
9.36823e-05
0.000122036
0.000107567
0.000128288
0.000107327
0.00012166
9.36412e-05
0.000128144
0.000121786
0.000107517
0.000134956
0.000121344
0.000117631
0.000132774
0.000121115
0.000117404
0.000134784
0.000132444
0.000134315
0.000117123
0.000121008
0.000132324
0.000134464
0.000117269
0.00012868
9.38464e-05
0.000107717
0.000128503
9.36347e-05
0.000107489
0.000122001
0.000128267
0.00010731
0.000121652
9.36047e-05
0.000128138
0.000107452
0.000121768
0.00013494
0.000121319
0.000117561
0.000132739
0.000121096
0.000134771
0.000117348
0.000128671
9.38374e-05
0.00010771
0.000128495
9.36289e-05
0.000107483
0.000121989
0.000134936
0.000121314
0.000117554
0.000132733
0.000121092
0.000134767
0.000117343
0.000116483
0.000114156
0.000114161
0.000114146
0.000116481
0.000114166
2.35547e-05
7.11423e-05
0.000115122
8.7473e-05
4.98053e-05
8.74753e-05
4.98003e-05
0.000109262
0.000109263
2.35555e-05
2.35535e-05
0.000115124
7.11518e-05
7.11434e-05
2.35576e-05
2.35553e-05
2.35557e-05
2.35534e-05
0.000115611
7.13348e-05
7.13246e-05
7.11681e-05
7.11585e-05
4.98023e-05
8.7469e-05
0.000108159
0.000112676
8.78498e-05
0.000109624
8.78419e-05
0.000112664
0.000108155
0.00010962
8.75091e-05
4.98159e-05
4.98069e-05
8.77766e-05
8.75057e-05
8.77727e-05
0.000108277
0.000113414
8.82632e-05
0.000110725
8.78759e-05
0.000110167
0.000109027
0.000108274
0.000109022
0.000108169
0.000112686
8.78427e-05
0.000109635
8.75062e-05
4.98119e-05
4.98019e-05
8.7763e-05
0.000108282
0.000113419
8.82485e-05
0.000110727
8.78663e-05
0.000110171
0.000109012
8.7497e-05
4.98084e-05
4.97985e-05
8.77575e-05
0.000108279
0.000113408
0.000110725
8.82355e-05
0.000110169
8.78588e-05
0.000109006
2.35549e-05
2.35526e-05
0.000115616
7.13109e-05
7.13261e-05
7.11488e-05
7.11675e-05
2.35564e-05
2.35541e-05
0.000108295
0.00011343
8.82487e-05
0.00011019
8.78779e-05
8.75138e-05
4.9812e-05
4.98022e-05
2.35538e-05
9.23213e-05
7.10762e-05
0.000103306
4.76765e-05
4.76739e-05
9.24422e-05
0.000103087
7.71325e-05
2.14514e-05
2.14528e-05
2.14498e-05
2.14504e-05
7.71828e-05
9.2297e-05
4.76745e-05
3.61975e-05
8.73633e-05
4.0453e-05
8.45291e-05
4.0452e-05
8.44425e-05
3.61984e-05
2.00801e-05
7.43583e-05
4.98016e-05
7.4312e-05
2.00809e-05
3.61969e-05
8.73725e-05
8.45206e-05
4.0452e-05
8.4445e-05
4.04512e-05
3.61977e-05
2.00796e-05
7.4338e-05
4.97968e-05
7.43042e-05
2.00805e-05
2.35543e-05
2.35524e-05
7.7158e-05
2.14544e-05
2.14512e-05
2.14533e-05
2.14502e-05
7.72119e-05
9.22909e-05
4.76846e-05
7.10792e-05
0.00010331
4.76794e-05
9.24411e-05
0.000103088
9.23071e-05
4.76728e-05
7.10736e-05
0.000103303
4.76676e-05
9.24574e-05
0.000103078
2.35564e-05
2.35565e-05
2.35545e-05
2.35546e-05
7.72827e-05
2.1454e-05
2.14508e-05
7.72282e-05
2.1455e-05
2.14518e-05
9.26526e-05
0.000103961
7.12596e-05
4.76994e-05
4.76942e-05
0.000103739
9.27995e-05
9.26667e-05
0.000103948
7.1248e-05
4.76876e-05
4.76824e-05
0.000103724
9.28138e-05
9.26231e-05
4.76868e-05
0.000103413
7.12426e-05
9.2471e-05
4.76921e-05
0.000103636
9.26382e-05
4.7675e-05
0.000103401
7.12313e-05
9.24863e-05
4.76802e-05
0.000103625
7.72968e-05
2.14555e-05
2.14523e-05
2.14545e-05
2.14514e-05
7.73417e-05
2.00784e-05
4.97989e-05
7.43346e-05
7.42917e-05
2.00793e-05
3.61954e-05
8.45163e-05
8.7361e-05
4.04529e-05
4.0452e-05
8.4432e-05
3.61963e-05
3.61993e-05
4.04531e-05
8.45618e-05
8.76215e-05
3.61983e-05
4.04541e-05
8.46528e-05
2.00799e-05
4.98122e-05
7.44787e-05
7.44346e-05
2.00808e-05
2.00809e-05
7.43723e-05
4.98107e-05
2.008e-05
7.44222e-05
3.61992e-05
8.76605e-05
4.04555e-05
8.47786e-05
4.04543e-05
8.46871e-05
3.62002e-05
3.61971e-05
8.45487e-05
4.0453e-05
8.76172e-05
3.61962e-05
4.04541e-05
8.46387e-05
3.61971e-05
8.47667e-05
8.76563e-05
4.04554e-05
4.04542e-05
8.46736e-05
3.61981e-05
3.61986e-05
8.45496e-05
4.04521e-05
8.76108e-05
3.61976e-05
8.4635e-05
4.0453e-05
2.00797e-05
4.98078e-05
7.44812e-05
7.44229e-05
2.00806e-05
2.00805e-05
7.43514e-05
4.98061e-05
2.00796e-05
7.44041e-05
3.61985e-05
8.76463e-05
8.47679e-05
4.04545e-05
8.46704e-05
4.04532e-05
3.61996e-05
3.61962e-05
4.04516e-05
8.45343e-05
8.76062e-05
3.61952e-05
4.04525e-05
8.46219e-05
2.00784e-05
4.98043e-05
7.44577e-05
7.44003e-05
2.00794e-05
2.00793e-05
7.43312e-05
4.98025e-05
2.00783e-05
7.43822e-05
3.61961e-05
8.76361e-05
4.04539e-05
8.47536e-05
4.04527e-05
8.46531e-05
3.61972e-05
2.35537e-05
2.35538e-05
7.72674e-05
2.14505e-05
2.14539e-05
7.72137e-05
2.14516e-05
2.14549e-05
9.26575e-05
0.000103934
7.12332e-05
4.76877e-05
0.000103715
4.76823e-05
9.28071e-05
9.26366e-05
0.000103954
7.12519e-05
4.76989e-05
4.76936e-05
0.000103729
9.27867e-05
9.26286e-05
4.76748e-05
0.0001034
7.12192e-05
0.000103614
9.24822e-05
4.768e-05
9.26086e-05
4.76862e-05
0.000103413
7.12368e-05
9.2461e-05
4.76914e-05
0.000103636
7.72831e-05
2.14522e-05
2.14556e-05
2.14512e-05
2.14546e-05
7.73363e-05
2.35552e-05
2.35553e-05
3.61988e-05
8.45481e-05
4.04525e-05
8.76155e-05
3.61979e-05
8.46308e-05
4.04534e-05
2.00794e-05
4.98078e-05
7.4459e-05
7.44019e-05
2.00805e-05
2.00803e-05
7.4344e-05
4.98061e-05
2.00793e-05
7.43867e-05
0.000109583
0.00011629
0.000114531
0.000114531
0.00011434
0.000114341
0.00010986
0.00010957
0.000116289
0.000114522
0.000114525
0.000114332
0.000114335
0.000109847
0.000108848
0.00011493
0.000113454
0.000113456
0.000113267
0.000109119
0.000113267
0.000109044
0.000122549
0.000122563
0.000146578
0.000109155
0.000121807
0.000121818
0.000122179
0.000122189
0.000146021
0.000145445
0.000109154
0.000121806
0.00012182
0.000122178
0.00012219
0.000146017
0.000145442
0.000108845
0.000114932
0.000113452
0.000113455
0.000109123
0.00011326
0.000113264
0.000109494
0.000115803
0.0001138
0.000113803
0.000109214
0.000113992
0.000113994
0.000112789
0.000107841
0.000105933
0.0001136
0.000105667
0.000113385
0.000112991
0.000111117
9.87939e-05
8.76708e-05
0.000108277
9.85397e-05
0.000108112
0.00011132
0.000111105
8.76644e-05
0.000108268
9.87759e-05
0.000108105
9.85299e-05
0.000111308
0.00011278
0.000105921
0.000107839
0.000113596
0.000105656
0.000113382
0.000112982
0.000113643
0.000106055
0.000114073
0.000108591
0.000113441
0.000106323
0.000114285
0.00011228
0.000109204
8.80827e-05
9.94073e-05
0.000109039
9.91527e-05
0.000112484
0.000111903
9.88447e-05
0.000108576
8.80557e-05
0.000108741
0.000111699
9.91007e-05
0.00011409
0.000108713
0.000106714
0.000114968
0.000106445
0.000114755
0.000114292
0.000113633
0.000106043
0.000114069
0.000108586
0.000113432
0.000106308
0.000114281
0.000114079
0.000106699
0.000108707
0.000114963
0.000106431
0.00011475
0.00011428
0.000112793
0.000107853
0.000105933
0.000113607
0.000105674
0.000113393
0.000112994
0.000111116
9.87799e-05
8.76684e-05
0.000108271
9.85438e-05
0.000108107
0.000111316
0.00011364
0.00010605
0.00011408
0.000108588
0.000113441
0.000106308
0.00011429
0.000112264
0.000109187
8.80675e-05
9.93876e-05
0.000109023
9.9135e-05
0.000112467
0.000111892
9.88333e-05
0.000108566
8.80415e-05
0.000108729
0.000111691
9.90757e-05
0.000114081
0.000108702
0.000106696
0.000114963
0.000106429
0.000114753
0.000114281
0.000113636
0.000114078
0.000106043
0.000108583
0.000113438
0.000114288
0.0001063
0.000112258
0.000109177
8.80552e-05
9.93794e-05
9.912e-05
0.000109014
0.00011246
0.000111888
9.88222e-05
0.000108563
8.8032e-05
0.000111688
9.90714e-05
0.000108724
0.000114077
0.000108699
0.000114961
0.000106685
0.000114752
0.00010642
0.000114276
0.000109483
0.000115807
0.000113802
0.000113804
0.00011399
0.000109208
0.000113993
0.000113651
0.000114092
0.000106063
0.000108599
0.000113453
0.000114302
0.000106314
0.000112272
0.000109197
8.80724e-05
9.93831e-05
0.000109035
9.91262e-05
0.000112473
0.000111905
9.88391e-05
0.000108584
8.80493e-05
0.000111707
0.000108745
9.90845e-05
0.000144903
0.000114909
0.000114922
0.000116948
0.000110215
0.000117968
0.000117975
0.000119679
0.000111343
0.000121062
0.000121071
0.000122328
0.000112775
0.000124254
0.000124265
0.000125004
0.000114407
0.000127354
0.000127361
0.000127581
0.000116533
0.000130708
0.000130718
0.000130274
0.000118587
0.000133743
0.000133754
0.000132671
0.000121233
0.000137088
0.000137092
0.000135409
0.00011697
0.000119175
0.000114917
0.000114898
0.000117164
0.000117163
0.000116957
0.000119181
0.000114921
0.000114905
0.000117174
0.000117171
0.000114897
0.000117183
0.000117181
0.000116964
0.000119186
0.000114904
0.000117191
0.000117186
0.000119191
0.000119655
0.000121884
0.000117951
0.000117947
0.000120304
0.000120285
0.000119661
0.000121868
0.000117957
0.000117953
0.000120312
0.00012029
0.000117974
0.000120302
0.000120298
0.000119666
0.00012187
0.000117978
0.00012031
0.000120302
0.000121866
0.000122356
0.000124513
0.000121064
0.000121045
0.000123407
0.000123394
0.00012234
0.000124511
0.00012107
0.000121052
0.000123413
0.000123406
0.000121049
0.000123415
0.000123411
0.000122344
0.000124522
0.000121054
0.000123427
0.000123416
0.000124521
0.000124993
0.00012715
0.000124249
0.000124234
0.000126608
0.00012659
0.00012499
0.000127139
0.000124253
0.000124245
0.000126611
0.000126597
0.000124255
0.000126605
0.000126604
0.000124998
0.000127145
0.000124259
0.000126615
0.000126608
0.00012714
0.000127587
0.000129822
0.00012735
0.000127338
0.000129868
0.000129857
0.000127581
0.000129823
0.000127349
0.00012734
0.000129876
0.000129863
0.000127352
0.000129882
0.000129869
0.000127585
0.000129823
0.000127356
0.000129888
0.000129872
0.000129819
0.000130284
0.000132201
0.000130704
0.000130686
0.000132872
0.000132854
0.000130279
0.000132192
0.000130709
0.0001307
0.000132876
0.000132867
0.000130701
0.000132874
0.00013287
0.000130285
0.000132205
0.000130704
0.000132887
0.000132873
0.000132203
0.000132668
0.000135057
0.00013373
0.000133715
0.000136398
0.000136385
0.000132665
0.00013505
0.000133729
0.000133723
0.000136405
0.000136387
0.000133728
0.000136394
0.000136404
0.000132672
0.00013505
0.000133731
0.000136397
0.000136409
0.000135052
0.000135412
0.000137047
0.000137108
0.000137091
0.00013913
0.000135402
0.000137104
0.000137095
0.000139139
0.000137107
0.000135404
0.000137111
8.80794e-05
4.98173e-05
4.98263e-05
8.78161e-05
2.35562e-05
2.35584e-05
8.80861e-05
4.98135e-05
4.98221e-05
8.7804e-05
0.000109427
0.000144898
0.000109427
0.000109969
0.000109972
0.000109977
0.000109977
0.000109884
0.000112836
0.000111313
0.000115655
0.000114717
8.86627e-05
0.000111891
2.35548e-05
2.3557e-05
0.000109892
0.000111325
0.000112842
0.000115668
0.000111904
8.86681e-05
0.000109126
7.13307e-05
7.13293e-05
0.000117818
7.1505e-05
7.15033e-05
8.86622e-05
4.984e-05
8.84048e-05
4.98494e-05
2.35604e-05
2.35633e-05
8.86539e-05
4.9835e-05
8.83993e-05
4.98449e-05
0.000110217
0.000110222
0.000110227
0.000111057
0.00011105
0.000111053
0.000111058
0.00011159
8.90939e-05
0.000113789
0.000118735
0.000110899
8.94538e-05
0.000114435
2.35594e-05
2.35621e-05
0.00011159
0.000113796
8.90917e-05
0.00011874
0.000110887
0.00011444
8.94542e-05
7.16982e-05
7.16932e-05
0.000120549
7.18549e-05
7.18497e-05
8.92204e-05
4.9863e-05
8.89764e-05
4.98735e-05
2.35664e-05
2.35694e-05
8.92186e-05
4.9858e-05
8.89781e-05
4.98684e-05
0.000111334
0.000111341
0.00011134
0.000112343
0.000112337
0.000112346
0.000112343
0.000113217
8.98557e-05
0.00011643
0.00012184
0.00011253
9.02085e-05
0.000117098
2.3565e-05
2.3568e-05
0.000113223
0.000116439
8.98593e-05
0.000121853
0.000112527
0.000117111
9.02127e-05
7.20212e-05
7.20182e-05
0.00012317
7.21735e-05
7.21688e-05
8.97981e-05
4.98882e-05
8.95498e-05
4.98992e-05
2.3573e-05
2.35762e-05
8.97952e-05
4.98833e-05
8.95449e-05
4.98941e-05
0.000112771
0.00011278
0.00011278
0.000114038
0.000114026
0.000114033
0.000114036
0.000114847
9.06108e-05
0.000119275
0.000125043
0.000114163
9.09671e-05
0.000120027
2.35716e-05
2.35748e-05
0.000114846
0.000119287
9.06118e-05
0.000125054
0.000114154
0.000120037
9.09675e-05
7.23714e-05
7.23663e-05
0.000125872
7.25194e-05
7.25145e-05
9.03204e-05
4.99128e-05
9.00965e-05
4.99254e-05
2.35797e-05
2.35837e-05
9.03163e-05
4.99078e-05
9.00878e-05
4.99207e-05
0.000114406
0.000114411
0.000114418
0.000115959
0.000115954
0.00011596
0.000115957
0.000116377
9.13172e-05
0.000122242
0.000128187
0.000115739
9.16525e-05
0.000123015
2.35783e-05
2.35824e-05
0.000116378
0.000122252
9.13185e-05
0.000128193
0.000115734
0.000123025
9.1653e-05
7.2654e-05
7.2649e-05
0.000128439
7.28168e-05
7.28116e-05
9.08799e-05
4.99416e-05
9.06741e-05
4.99498e-05
2.35874e-05
2.35901e-05
9.0877e-05
4.99367e-05
9.06765e-05
4.99446e-05
0.000116532
0.000116541
0.000116536
0.000117985
0.000117972
0.000117985
0.000117981
0.000117934
9.2088e-05
0.000125519
0.000131419
0.000117315
9.23409e-05
0.000126306
2.35863e-05
2.3589e-05
0.000117928
0.00012553
9.20879e-05
0.000131433
0.00011731
0.000126316
9.23434e-05
7.30289e-05
7.30229e-05
0.000131038
7.30822e-05
7.30769e-05
9.14328e-05
4.99689e-05
9.11128e-05
4.99857e-05
2.35969e-05
2.36013e-05
9.14296e-05
4.9964e-05
9.11028e-05
4.99808e-05
0.000118591
0.000118603
0.000118595
0.000120626
0.000120612
0.000120617
0.000120628
0.00011939
9.26322e-05
0.00012865
0.00013467
0.000118686
9.31199e-05
0.000129549
2.35956e-05
2.36002e-05
0.000119389
0.000128659
9.26318e-05
0.000134681
0.000118677
0.00012956
9.31216e-05
7.32548e-05
7.32491e-05
0.000133671
7.35389e-05
7.35325e-05
9.18494e-05
4.99953e-05
9.17765e-05
5.00035e-05
2.36026e-05
2.36067e-05
9.18428e-05
4.99901e-05
9.17739e-05
4.99983e-05
0.000121229
0.000121233
0.000121249
0.000122969
0.000120767
9.34239e-05
0.000132243
0.000137687
0.000120326
9.3502e-05
0.000133017
2.36018e-05
2.36058e-05
0.000120766
0.000132255
9.34222e-05
0.000137699
0.000120327
0.000133032
9.35031e-05
7.35663e-05
7.35639e-05
0.000135925
7.34802e-05
7.34779e-05
2.35574e-05
2.35598e-05
2.35556e-05
2.3558e-05
7.13512e-05
7.13418e-05
0.000117837
7.15085e-05
7.15038e-05
2.35627e-05
2.35598e-05
2.35605e-05
2.35579e-05
0.000118317
7.16812e-05
7.1673e-05
7.15226e-05
7.15178e-05
8.80771e-05
4.98139e-05
4.98228e-05
8.78127e-05
0.000109901
8.829e-05
0.00011132
0.000115655
8.86663e-05
0.000111896
0.000115438
0.000109897
0.000109478
0.000111311
0.000115644
8.8659e-05
0.00011189
0.000114726
8.81139e-05
4.98383e-05
4.98279e-05
8.83653e-05
8.81118e-05
4.98333e-05
4.98244e-05
8.83616e-05
0.000110023
0.000116425
8.90602e-05
0.000113121
8.86903e-05
0.000112527
0.000110747
0.000110021
0.000116417
8.90544e-05
0.000113117
8.86843e-05
0.00011252
0.000110744
7.13368e-05
7.13322e-05
0.000117829
7.15043e-05
7.15054e-05
2.35568e-05
2.35593e-05
2.35605e-05
2.35583e-05
0.000118315
7.16743e-05
7.16841e-05
7.15196e-05
7.15226e-05
2.35617e-05
2.35592e-05
0.0001099
8.82769e-05
0.000111317
0.000115664
8.86636e-05
0.0001119
0.000109134
8.80809e-05
4.981e-05
4.98186e-05
8.77924e-05
0.000109894
0.000111314
8.82627e-05
0.000115652
0.000111898
8.8656e-05
0.00010913
8.81229e-05
4.98333e-05
4.98236e-05
8.83641e-05
0.000110027
0.000116431
8.90523e-05
0.000113129
8.86881e-05
0.00011253
0.000110752
8.81115e-05
4.98297e-05
4.98201e-05
8.8361e-05
0.000110024
0.000116426
0.000113129
8.90488e-05
0.000112529
8.86818e-05
0.000110747
8.8082e-05
4.98145e-05
8.77907e-05
4.98243e-05
0.000109883
0.000111313
0.00010947
0.000115643
0.000114713
0.000111891
8.86605e-05
8.8081e-05
4.98118e-05
8.77909e-05
4.98212e-05
0.000110022
0.000116433
8.90697e-05
0.000113135
8.8691e-05
0.000112528
0.000110771
8.81252e-05
4.98349e-05
4.98258e-05
8.83818e-05
0.000110022
0.000116424
0.000113137
8.90645e-05
0.000112529
8.86879e-05
0.000110768
8.81241e-05
4.98319e-05
4.98227e-05
8.83796e-05
7.13277e-05
7.1343e-05
0.000117835
7.14996e-05
7.15124e-05
2.35563e-05
2.35588e-05
2.35594e-05
2.35569e-05
0.00011832
7.16684e-05
7.16854e-05
7.15152e-05
7.1528e-05
2.35613e-05
2.35587e-05
0.000109888
0.000111322
0.000109467
0.000115649
0.0001119
8.86586e-05
0.000114713
8.8083e-05
4.98138e-05
4.98232e-05
8.7788e-05
8.80808e-05
4.98103e-05
4.98196e-05
8.77923e-05
0.000110018
0.000116444
0.000113144
8.90682e-05
0.00011254
8.8695e-05
0.000110771
0.000110017
0.00011643
0.000113143
8.90601e-05
0.000112537
8.8686e-05
0.000110766
8.8117e-05
4.98338e-05
4.98247e-05
8.83788e-05
8.81214e-05
4.98304e-05
4.98211e-05
8.83756e-05
2.35558e-05
2.35583e-05
2.35548e-05
2.35574e-05
0.000118306
7.16827e-05
7.16781e-05
7.15213e-05
7.15194e-05
2.35608e-05
2.35583e-05
2.35598e-05
2.35573e-05
2.35627e-05
2.35654e-05
2.35605e-05
2.35633e-05
7.16951e-05
7.16889e-05
0.000120528
7.18612e-05
7.18557e-05
2.35686e-05
2.35657e-05
2.3566e-05
2.35633e-05
0.000121014
7.20272e-05
7.20208e-05
7.18765e-05
7.18711e-05
8.86587e-05
4.98349e-05
8.84015e-05
4.98444e-05
0.00011159
8.90845e-05
0.00011377
0.000118724
0.00011087
8.94605e-05
0.000114417
0.000111586
8.90789e-05
0.000113766
0.000118714
0.000110867
8.94469e-05
0.000114412
8.87002e-05
4.98612e-05
4.98512e-05
8.89396e-05
8.86974e-05
4.98561e-05
4.98461e-05
8.89361e-05
0.000111714
0.000119515
8.98434e-05
0.000115763
8.94855e-05
0.000115072
0.000112413
0.00011171
0.000119499
8.9828e-05
0.000115756
8.94711e-05
0.000115066
0.000112409
7.16901e-05
7.16989e-05
0.000120526
7.18483e-05
7.18517e-05
2.35617e-05
2.35643e-05
2.35664e-05
2.35632e-05
0.000121006
7.20152e-05
7.20183e-05
7.18627e-05
7.18659e-05
2.35672e-05
2.35643e-05
0.000111578
8.90769e-05
0.000113773
0.000118731
0.000110873
8.94519e-05
0.000114421
8.865e-05
4.98314e-05
8.83884e-05
4.98411e-05
0.000111573
0.000113774
8.90724e-05
0.000118719
0.000110871
0.000114421
8.94394e-05
8.86926e-05
4.98563e-05
4.98466e-05
8.89424e-05
0.000111704
0.000119521
8.98378e-05
0.000115767
8.94777e-05
0.000115074
0.000112412
8.86801e-05
4.98526e-05
4.98428e-05
8.89384e-05
0.000111701
0.000119503
0.000115764
8.98239e-05
0.000115072
8.94637e-05
0.000112405
8.86543e-05
4.98365e-05
8.84171e-05
4.9846e-05
0.000111589
0.000113792
8.9089e-05
0.000118744
0.000110898
0.00011444
8.94543e-05
8.86541e-05
4.98336e-05
8.84155e-05
4.98431e-05
0.000111716
0.000119518
8.98326e-05
0.000115771
8.94769e-05
0.000115085
0.000112402
8.86916e-05
4.98578e-05
4.98477e-05
8.8936e-05
0.000111716
0.000119523
0.000115776
8.98254e-05
0.000115091
8.94772e-05
0.000112401
8.86918e-05
4.98545e-05
4.98447e-05
8.89347e-05
7.1683e-05
7.16999e-05
0.000120528
7.18414e-05
7.18553e-05
2.35612e-05
2.35639e-05
2.35649e-05
2.35621e-05
0.000121007
7.20108e-05
7.20226e-05
7.18564e-05
7.18694e-05
2.35668e-05
2.35639e-05
0.000111588
0.000113797
8.90845e-05
0.000118747
0.000110886
0.000114443
8.94497e-05
8.86539e-05
4.98355e-05
8.84052e-05
4.98451e-05
8.8653e-05
4.98321e-05
8.84099e-05
4.98417e-05
0.000111706
0.000119524
0.00011578
8.98364e-05
0.000115091
8.94776e-05
0.000112409
0.000111708
0.000119526
0.000115782
8.98235e-05
0.000115095
8.94732e-05
0.000112406
8.8682e-05
4.98569e-05
4.98468e-05
8.89394e-05
8.86898e-05
4.98531e-05
4.98434e-05
8.89368e-05
2.35608e-05
2.35634e-05
2.35598e-05
2.35624e-05
0.000121023
7.20094e-05
7.20062e-05
7.18681e-05
7.18633e-05
2.35661e-05
2.35634e-05
2.35652e-05
2.35625e-05
2.35687e-05
2.35716e-05
2.35661e-05
2.35691e-05
7.20396e-05
7.20326e-05
0.000123192
7.21806e-05
7.21731e-05
2.35751e-05
2.35718e-05
2.35726e-05
2.35692e-05
0.000123653
7.2354e-05
7.23478e-05
7.21935e-05
7.2186e-05
8.92165e-05
4.9858e-05
8.89734e-05
4.98684e-05
0.000113219
8.9865e-05
0.000116426
0.00012184
0.000112535
9.02097e-05
0.000117096
0.000113215
8.9849e-05
0.000116417
0.000121823
0.00011253
9.01967e-05
0.000117088
8.92599e-05
4.98862e-05
4.98753e-05
8.95099e-05
8.92567e-05
4.98812e-05
4.98703e-05
8.95064e-05
0.000113343
0.000122622
9.05871e-05
0.000118501
9.02313e-05
0.000117818
0.000114034
0.000113338
0.000122609
9.05734e-05
0.000118493
9.02178e-05
0.00011781
0.00011403
7.20256e-05
7.20321e-05
0.000123184
7.21709e-05
7.21818e-05
2.35673e-05
2.35703e-05
2.35728e-05
2.35695e-05
0.00012365
7.23406e-05
7.23513e-05
7.21815e-05
7.21951e-05
2.35737e-05
2.35704e-05
0.00011322
8.98592e-05
0.000116431
0.000121846
0.000112536
9.02012e-05
0.000117102
8.9215e-05
4.98544e-05
8.89652e-05
4.98648e-05
0.000113214
0.000116426
8.98464e-05
0.000121833
0.000112532
0.000117099
9.01966e-05
8.9256e-05
4.98813e-05
4.98703e-05
8.95058e-05
0.000113343
0.000122626
9.0579e-05
0.000118507
9.02226e-05
0.000117822
0.000114029
8.92432e-05
4.98777e-05
4.98667e-05
8.9502e-05
0.00011334
0.00012262
0.000118506
9.0573e-05
0.00011782
9.02184e-05
0.000114024
8.92207e-05
4.98596e-05
8.89742e-05
4.987e-05
0.000113214
0.000116432
8.9846e-05
0.000121825
0.00011253
0.000117099
9.01961e-05
8.92187e-05
4.98563e-05
8.89729e-05
4.98669e-05
0.000113346
0.000122627
9.05858e-05
0.000118507
9.02311e-05
0.000117821
0.000114034
8.92599e-05
4.98828e-05
4.98719e-05
8.95084e-05
0.000113344
0.000122618
0.000118509
9.05851e-05
0.000117822
9.02198e-05
0.000114032
8.92584e-05
4.98798e-05
4.98688e-05
8.95071e-05
7.20243e-05
7.20363e-05
0.000123193
7.21722e-05
7.21868e-05
2.35669e-05
2.35699e-05
2.35714e-05
2.35681e-05
0.000123661
7.23417e-05
7.2354e-05
7.21853e-05
7.21998e-05
2.35732e-05
2.357e-05
0.000113217
0.000116439
8.98445e-05
0.000121831
0.000112527
0.000117107
9.01928e-05
8.92216e-05
4.98587e-05
8.89668e-05
4.9869e-05
8.9218e-05
4.98549e-05
8.89733e-05
4.98654e-05
0.000113341
0.000122641
0.00011852
9.05876e-05
0.000117833
9.02348e-05
0.000114034
0.000113339
0.000122623
0.000118516
9.05804e-05
0.000117829
9.02164e-05
0.00011403
8.92487e-05
4.98818e-05
4.98709e-05
8.9507e-05
8.92555e-05
4.98783e-05
4.98673e-05
8.95047e-05
2.35662e-05
2.35694e-05
2.35653e-05
2.35684e-05
0.000123641
7.23557e-05
7.23504e-05
7.21888e-05
7.21839e-05
2.35728e-05
2.35695e-05
2.35719e-05
2.35686e-05
2.35753e-05
2.35785e-05
2.35727e-05
2.35759e-05
7.2371e-05
7.23648e-05
0.000125871
7.25302e-05
7.25233e-05
2.35817e-05
2.35786e-05
2.35791e-05
2.3576e-05
0.000126335
7.26547e-05
7.26452e-05
7.25409e-05
7.25335e-05
8.97946e-05
4.98832e-05
8.95469e-05
4.98941e-05
0.000114849
9.06128e-05
0.000119267
0.000125044
0.000114161
9.09742e-05
0.000120022
0.000114845
9.05978e-05
0.000119259
0.000125025
0.000114156
9.09566e-05
0.000120013
8.98367e-05
4.99109e-05
4.99009e-05
9.00627e-05
8.98337e-05
4.99059e-05
4.98959e-05
9.00595e-05
0.000114973
0.000125838
9.13086e-05
0.000121522
9.09959e-05
0.000120762
0.000115627
0.000114969
0.00012582
9.12916e-05
0.000121515
9.09773e-05
0.000120754
0.000115623
7.23547e-05
7.23672e-05
0.00012586
7.25125e-05
7.25229e-05
2.35738e-05
2.3577e-05
2.35794e-05
2.35762e-05
0.000126321
7.2639e-05
7.26509e-05
7.2521e-05
7.25335e-05
2.35804e-05
2.35771e-05
0.000114845
9.06051e-05
0.000119269
0.00012505
0.000114156
9.09662e-05
0.000120026
8.97919e-05
4.98797e-05
8.95321e-05
4.98904e-05
0.00011484
0.000119269
9.05978e-05
0.000125036
0.000114152
0.000120025
9.0956e-05
8.98321e-05
4.99058e-05
4.98958e-05
9.00555e-05
0.000114968
0.000125841
9.1297e-05
0.000121522
9.09875e-05
0.000120764
0.000115619
8.98197e-05
4.99021e-05
4.98921e-05
9.00518e-05
0.000114965
0.000125828
0.000121522
9.12896e-05
0.000120762
9.09772e-05
0.000115614
8.97955e-05
4.98848e-05
8.95483e-05
4.98956e-05
0.000114846
0.000119278
9.06106e-05
0.000125044
0.000114162
0.000120031
9.09644e-05
8.97943e-05
4.98818e-05
8.95472e-05
4.98926e-05
0.000114972
0.000125835
9.13018e-05
0.000121523
9.09885e-05
0.000120765
0.000115622
8.98336e-05
4.99075e-05
4.98973e-05
9.00581e-05
0.000114972
0.000125835
0.00012153
9.12948e-05
0.000120771
9.09843e-05
0.000115622
8.98329e-05
4.99044e-05
4.98943e-05
9.00574e-05
7.23576e-05
7.23692e-05
0.000125867
7.25144e-05
7.25245e-05
2.35734e-05
2.35766e-05
2.35781e-05
2.35749e-05
0.000126328
7.26411e-05
7.26535e-05
7.25252e-05
7.25353e-05
2.35799e-05
2.35767e-05
0.000114844
0.000119285
9.06063e-05
0.000125048
0.000114155
0.000120037
9.09602e-05
8.97947e-05
4.98838e-05
8.95347e-05
4.98946e-05
8.97926e-05
4.98803e-05
8.95433e-05
4.98911e-05
0.000114965
0.000125845
0.000121534
9.13036e-05
0.000120774
9.09886e-05
0.000115623
0.000114966
0.000125839
0.000121536
9.12904e-05
0.000120776
9.09803e-05
0.00011562
8.98209e-05
4.99065e-05
4.98963e-05
9.00585e-05
8.98297e-05
4.99029e-05
4.98928e-05
9.00564e-05
2.3573e-05
2.3576e-05
2.3572e-05
2.35751e-05
0.000126328
7.2645e-05
7.26399e-05
7.25285e-05
7.25237e-05
2.35794e-05
2.35761e-05
2.35785e-05
2.35752e-05
2.3582e-05
2.35861e-05
2.35794e-05
2.35835e-05
7.26623e-05
7.26526e-05
0.000128434
7.28174e-05
7.28099e-05
2.35899e-05
2.35864e-05
2.35873e-05
2.35839e-05
0.000128915
7.30277e-05
7.30231e-05
7.28412e-05
7.2835e-05
9.03175e-05
4.99079e-05
9.00938e-05
4.99203e-05
0.000116374
9.13227e-05
0.000122238
0.000128175
0.000115743
9.16501e-05
0.000123005
0.000116371