/*--------------------------------*- C++ -*----------------------------------*\
| =========                 |                                                 |
| \\      /  F ield         | OpenFOAM: The Open Source CFD Toolbox           |
|  \\    /   O peration     | Version:  v2006                                 |
|   \\  /    A nd           | Website:  www.openfoam.com                      |
|    \\/     M anipulation  |                                                 |
\*---------------------------------------------------------------------------*/
FoamFile
{
    version     2.0;
    format      ascii;
    class       volVectorField;
    location    "250";
    object      U;
}
// * * * * * * * * * * * * * * * * * * * * * * * * * * * * * * * * * * * * * //

dimensions      [0 1 -1 0 0 0 0];


internalField   nonuniform List<vector> 
14310
(
(7.24438e-05 7.24101e-05 0.105368)
(2.7452e-05 4.29299e-05 0.108771)
(4.27803e-05 2.73851e-05 0.108772)
(-1.46468e-06 9.65294e-06 0.0817032)
(-7.54756e-07 1.23052e-05 0.091341)
(9.66696e-06 -1.48819e-06 0.0817039)
(1.23617e-05 -7.44981e-07 0.0913409)
(3.01524e-06 3.795e-06 0.0709016)
(3.8352e-06 3.01169e-06 0.0709013)
(5.76074e-06 8.33318e-06 0.0871846)
(8.31453e-06 5.7647e-06 0.0871823)
(7.74957e-07 1.23101e-05 0.0913413)
(4.06751e-06 2.37133e-05 0.0929538)
(1.03235e-05 5.50681e-05 0.110992)
(-4.60491e-08 3.02488e-05 0.0991407)
(-1.02237e-05 5.50683e-05 0.110992)
(7.4121e-08 3.02427e-05 0.0991411)
(2.3727e-05 4.13993e-06 0.0929539)
(5.49929e-05 1.02462e-05 0.110992)
(3.02827e-05 -9.60272e-08 0.0991406)
(1.23425e-05 7.80579e-07 0.0913403)
(5.50203e-05 -1.02973e-05 0.110992)
(3.02903e-05 8.27046e-08 0.0991406)
(-3.88473e-07 -2.58221e-06 0.0678607)
(-1.87246e-06 8.2966e-06 0.0854066)
(-3.45839e-06 -5.54516e-06 0.0817451)
(-1.98154e-06 4.19367e-06 0.0678132)
(-2.61569e-06 -5.01356e-06 0.0854527)
(-3.40182e-07 -1.95666e-06 0.0763674)
(-7.65213e-07 -3.87211e-06 0.0913752)
(-9.7597e-07 5.43888e-06 0.0781493)
(-8.70263e-07 1.19903e-05 0.0897124)
(-1.72595e-06 6.0538e-06 0.0763348)
(-7.31208e-07 -2.32717e-06 0.0781762)
(-1.05787e-06 -3.98227e-06 0.0897527)
(-2.53133e-06 -3.32816e-07 0.0678601)
(8.18253e-06 -1.82075e-06 0.0854072)
(-5.51875e-06 -3.49684e-06 0.0817454)
(4.25733e-06 -1.89463e-06 0.0678133)
(-5.13168e-06 -2.57652e-06 0.0854524)
(-1.88155e-06 -2.60801e-07 0.0763675)
(-3.84633e-06 -7.4954e-07 0.091375)
(1.19878e-05 -7.9518e-07 0.0897127)
(5.50478e-06 -9.28927e-07 0.0781492)
(6.13774e-06 -1.60379e-06 0.0763349)
(-4.01478e-06 -9.81837e-07 0.0897524)
(-2.26122e-06 -6.86779e-07 0.0781763)
(-1.30877e-06 -2.96751e-06 0.0709436)
(-2.9378e-06 -1.32752e-06 0.0709431)
(-1.87494e-07 -4.60323e-06 0.0915803)
(1.7833e-05 2.52983e-05 0.0964747)
(2.11453e-06 7.43331e-06 0.0810894)
(-2.99377e-06 -2.53305e-08 0.0872218)
(8.5758e-06 1.50572e-05 0.0915431)
(-2.32633e-06 -2.57568e-07 0.0811235)
(2.32036e-06 -2.70366e-06 0.0965215)
(-4.60207e-06 -2.33837e-07 0.0915733)
(2.52235e-05 1.78337e-05 0.0964714)
(7.43416e-06 2.08268e-06 0.0810831)
(-5.79041e-08 -3.02003e-06 0.0872199)
(1.50038e-05 8.52993e-06 0.0915356)
(-2.17622e-07 -2.33836e-06 0.0811183)
(-2.73073e-06 2.35598e-06 0.0965184)
(-5.80719e-07 -5.9738e-07 0.0832627)
(2.65692e-06 2.04905e-06 0.0678539)
(2.07167e-06 2.63769e-06 0.0678477)
(5.62265e-06 5.63198e-06 0.0832329)
(-1.77841e-06 -1.32424e-06 0.0678892)
(-1.28644e-06 -1.80117e-06 0.0678833)
(3.64847e-07 -2.57445e-06 0.0678622)
(1.84999e-06 8.2919e-06 0.0854081)
(1.96592e-06 4.18242e-06 0.0678153)
(2.58419e-06 -5.02895e-06 0.0854532)
(3.12013e-07 -1.93713e-06 0.076367)
(8.73885e-07 1.19934e-05 0.0897132)
(7.85111e-07 -3.87933e-06 0.0913752)
(9.57211e-07 5.44314e-06 0.0781494)
(7.06426e-07 -2.32377e-06 0.0781762)
(1.70115e-06 6.0649e-06 0.0763348)
(1.06151e-06 -4.0007e-06 0.0897524)
(-2.52181e-06 3.68409e-07 0.0678622)
(4.265e-06 1.94554e-06 0.0678144)
(-5.09606e-06 2.61079e-06 0.0854535)
(-1.8494e-06 2.68328e-07 0.0763681)
(-3.80327e-06 7.70082e-07 0.0913755)
(5.45116e-06 9.69879e-07 0.078148)
(1.1965e-05 8.44152e-07 0.0897116)
(-2.21769e-06 7.14709e-07 0.078177)
(6.06514e-06 1.64706e-06 0.0763328)
(-3.97103e-06 1.02165e-06 0.0897532)
(-4.14569e-06 -4.13319e-06 0.0978993)
(6.5717e-05 2.96397e-05 0.102162)
(2.96128e-05 6.56232e-05 0.102159)
(-3.69784e-05 -3.69373e-05 0.105556)
(2.25721e-05 2.25689e-05 0.097836)
(-3.67899e-05 3.70996e-07 0.102258)
(3.47156e-07 -3.67742e-05 0.102255)
(-6.37336e-06 -4.05617e-05 0.102301)
(-1.95144e-06 2.43773e-05 0.0958259)
(-8.95284e-06 8.36308e-05 0.102149)
(7.96198e-07 -3.90906e-06 0.0959018)
(6.40938e-06 -4.05571e-05 0.1023)
(1.27466e-05 7.67639e-05 0.100043)
(1.98359e-06 2.44065e-05 0.0958247)
(-3.79446e-06 2.42355e-07 0.0930111)
(-7.61577e-07 -3.89579e-06 0.0959011)
(8.92525e-06 8.36424e-05 0.102148)
(5.30646e-06 -3.6704e-05 0.100122)
(5.82437e-06 -3.48461e-05 0.104007)
(-1.20637e-07 8.31262e-07 0.0992061)
(1.30894e-06 2.94557e-05 0.0980098)
(1.27965e-06 9.15709e-05 0.104628)
(6.02175e-07 -1.61582e-07 0.0980862)
(5.49481e-06 8.92436e-05 0.103833)
(2.0254e-06 -3.20126e-05 0.10477)
(-5.79048e-06 -3.48393e-05 0.104007)
(-1.26803e-06 2.94635e-05 0.0980107)
(1.52033e-07 8.18224e-07 0.0992062)
(-1.26694e-06 9.15773e-05 0.104628)
(-5.49953e-06 8.92598e-05 0.103833)
(-5.49365e-07 -1.78953e-07 0.0980864)
(-2.00367e-06 -3.2009e-05 0.10477)
(-4.07441e-05 6.41315e-06 0.1023)
(7.66932e-05 1.27426e-05 0.100042)
(2.42996e-05 2.03566e-06 0.0958251)
(2.58107e-07 -3.75537e-06 0.0930108)
(-4.06601e-06 -7.04458e-07 0.095901)
(8.35092e-05 8.88839e-06 0.102148)
(-3.6786e-05 5.31578e-06 0.100121)
(-3.48979e-05 5.83244e-06 0.104007)
(8.17896e-07 -1.42898e-07 0.0992055)
(2.94361e-05 1.27873e-06 0.0980098)
(9.16088e-05 1.21422e-06 0.104627)
(-2.10662e-07 5.96069e-07 0.0980858)
(8.92465e-05 5.45171e-06 0.103832)
(-3.20367e-05 1.96314e-06 0.104769)
(-4.06566e-05 -6.41732e-06 0.102299)
(-3.96397e-06 7.24155e-07 0.0959016)
(-3.49215e-05 -5.80949e-06 0.104007)
(8.49638e-07 1.64592e-07 0.0992055)
(9.16288e-05 -1.28116e-06 0.104627)
(2.94403e-05 -1.26537e-06 0.0980097)
(8.92414e-05 -5.47086e-06 0.103832)
(-3.20179e-05 -2.01387e-06 0.104769)
(-2.05831e-07 -5.70044e-07 0.0980861)
(1.59202e-06 -3.04686e-06 0.067761)
(1.15995e-07 3.07047e-06 0.0678076)
(1.52446e-06 -3.51825e-06 0.0762185)
(6.39588e-07 4.13413e-06 0.078037)
(8.30541e-07 -2.93913e-06 0.0780089)
(2.28021e-07 3.75182e-06 0.0762516)
(-5.28554e-07 4.0104e-06 0.0780364)
(-1.38669e-06 -3.16145e-06 0.0677556)
(2.98446e-07 2.76907e-06 0.0678068)
(-1.19509e-06 -3.58303e-06 0.0762151)
(-2.81786e-07 4.02255e-06 0.0780378)
(-6.48874e-07 -2.953e-06 0.0780073)
(3.14557e-07 3.49168e-06 0.0762538)
(1.90794e-07 3.7735e-06 0.0762493)
(5.19322e-07 4.10835e-06 0.0780355)
(7.98645e-08 3.14346e-06 0.0678034)
(-1.27965e-05 1.7556e-05 0.108279)
(4.08704e-05 -4.0992e-05 0.104892)
(-1.7769e-05 1.26675e-05 0.108282)
(-1.79322e-05 -1.3108e-05 0.108279)
(-1.30974e-05 -1.78467e-05 0.108281)
(4.05692e-05 4.06057e-05 0.104891)
(-2.52314e-05 2.50006e-05 0.113145)
(-2.5313e-05 -2.52586e-05 0.113144)
(2.40224e-06 -7.74267e-06 0.0816101)
(9.35093e-07 6.09562e-06 0.0815651)
(-1.1661e-05 1.74155e-05 0.108294)
(-1.35553e-06 -4.58629e-05 0.0996028)
(-2.51822e-06 1.306e-05 0.092617)
(1.33682e-06 -3.41378e-06 0.0709155)
(-2.27186e-06 2.22683e-06 0.0708645)
(-4.898e-05 4.86502e-05 0.10475)
(4.64132e-06 -5.07554e-06 0.0870221)
(4.86124e-06 -4.48604e-06 0.0870215)
(-3.60295e-06 2.97151e-06 0.0869825)
(-2.9054e-06 3.6722e-06 0.0869854)
(3.30767e-06 -1.55232e-06 0.0709139)
(-2.18769e-06 2.4284e-06 0.0708671)
(9.58945e-06 4.82451e-07 0.0986129)
(8.71118e-06 5.50425e-07 0.0910234)
(-1.63091e-05 -4.07542e-08 0.0985425)
(-1.78624e-05 1.13994e-05 0.108296)
(4.96492e-05 3.23558e-06 0.101661)
(-2.55154e-05 4.26686e-06 0.110839)
(-1.30626e-05 2.41076e-06 0.0926181)
(-2.61476e-05 3.91052e-06 0.110849)
(4.64727e-05 3.23573e-06 0.103339)
(-5.44076e-06 -7.0286e-07 0.0909851)
(7.77545e-06 -2.5319e-06 0.0816101)
(-5.91754e-06 -7.43871e-07 0.0815665)
(9.24587e-06 -7.42611e-07 0.0910136)
(-1.61999e-05 3.4303e-07 0.0985425)
(-1.76473e-05 -1.16998e-05 0.108294)
(-2.55031e-05 -4.54238e-06 0.110839)
(4.56454e-05 -1.71973e-06 0.0996039)
(-2.59636e-05 -3.87862e-06 0.110848)
(-1.28047e-05 -2.40812e-06 0.0926181)
(4.64833e-05 -3.43492e-06 0.103339)
(-5.3772e-06 5.06393e-07 0.0909853)
(7.88492e-06 2.64434e-06 0.0816099)
(-6.04692e-06 7.8321e-07 0.0815664)
(9.30293e-06 4.85386e-07 0.0910137)
(-4.57955e-06 -2.54865e-05 0.110838)
(-1.7284e-06 4.56733e-05 0.0996034)
(-3.44859e-06 4.64582e-05 0.103339)
(2.65895e-06 7.90981e-06 0.0816104)
(4.53556e-07 9.28695e-06 0.0910139)
(4.56238e-06 4.53494e-06 0.0870222)
(4.55321e-06 4.5424e-06 0.0870205)
(3.56887e-06 1.57987e-06 0.0709145)
(1.60294e-06 3.57112e-06 0.0709145)
(1.58849e-06 2.99653e-06 0.0677601)
(7.65976e-07 5.96857e-06 0.0815669)
(2.26149e-06 -7.871e-06 0.0852587)
(1.65274e-06 4.23499e-06 0.0852145)
(6.40956e-08 -3.17196e-06 0.067807)
(1.33606e-07 -3.1282e-06 0.0678025)
(1.54181e-06 4.38867e-06 0.0852147)
(2.7668e-06 -7.71794e-06 0.081608)
(1.6136e-06 3.14445e-06 0.0677559)
(2.25838e-06 -7.79583e-06 0.0852588)
(-2.38223e-06 2.51196e-06 0.0708705)
(1.66489e-06 -3.62941e-06 0.0709104)
(2.30089e-06 -2.1922e-06 0.0830946)
(-6.14319e-07 4.78574e-07 0.0677722)
(-4.21449e-07 7.3698e-07 0.0677784)
(-2.66317e-06 2.70565e-06 0.0830654)
(3.80362e-06 -2.32089e-06 0.067812)
(2.40122e-06 -3.67042e-06 0.0678177)
(-4.21149e-06 6.45791e-06 0.0912525)
(2.14256e-06 -1.3306e-05 0.096106)
(-3.079e-06 2.40541e-06 0.0869823)
(4.56752e-06 -5.36754e-06 0.0809921)
(-1.17004e-05 1.13819e-05 0.0960627)
(7.03475e-07 8.86353e-07 0.0809547)
(3.44107e-06 -1.01797e-05 0.091287)
(-6.38545e-06 4.18601e-06 0.0912601)
(1.32301e-05 -1.99573e-06 0.0961081)
(-2.72329e-06 3.29664e-06 0.0869849)
(5.5069e-06 -4.45146e-06 0.080996)
(-8.7715e-07 -5.7905e-07 0.080961)
(-1.15443e-05 1.17542e-05 0.0960662)
(1.03638e-05 -3.35084e-06 0.0912934)
(3.94569e-06 -1.11653e-05 0.0912948)
(1.52572e-08 1.15662e-06 0.0809495)
(-1.10589e-05 1.17122e-05 0.0960722)
(4.58268e-06 -4.77275e-06 0.0870219)
(2.45652e-06 -1.31882e-05 0.0961159)
(-3.69416e-06 5.98241e-06 0.0912598)
(4.5112e-06 -6.12103e-06 0.0809877)
(1.12333e-05 -4.01296e-06 0.0913012)
(-1.165e-06 6.17474e-09 0.0809557)
(-1.18254e-05 1.0942e-05 0.0960758)
(4.73196e-06 -4.48481e-06 0.0870216)
(-6.03962e-06 3.61932e-06 0.0912673)
(6.20467e-06 -4.48893e-06 0.0809916)
(1.30792e-05 -2.52107e-06 0.0961182)
(-3.89826e-06 4.0386e-06 0.0830635)
(4.00749e-06 -1.52233e-06 0.0678213)
(1.55478e-06 -3.97701e-06 0.0678269)
(1.16597e-07 9.62283e-07 0.0677829)
(-8.9925e-07 1.8395e-08 0.0677891)
(1.16723e-06 -1.01794e-06 0.0830928)
(-2.62204e-06 2.28492e-06 0.0708733)
(3.7628e-06 -1.75445e-06 0.0709088)
(-4.07357e-06 1.29496e-06 0.0762151)
(-6.00197e-06 5.97145e-07 0.0909901)
(3.84161e-06 4.37747e-07 0.0780345)
(8.37486e-06 8.64757e-07 0.0894601)
(-3.47781e-06 6.52476e-07 0.0780077)
(-6.24067e-06 6.24486e-07 0.0894218)
(3.49017e-06 8.44477e-08 0.0762474)
(3.6212e-06 -6.09484e-08 0.0762509)
(-5.90948e-06 -1.02711e-06 0.0894171)
(-3.09924e-06 -8.67775e-07 0.0780078)
(9.07039e-06 -7.49156e-07 0.0910182)
(-3.6214e-06 -1.59098e-06 0.0762153)
(8.54465e-06 -1.2399e-06 0.0894566)
(4.05911e-06 -5.03334e-07 0.0780355)
(-3.15593e-06 -1.38089e-06 0.0677566)
(-5.84807e-06 -8.17083e-07 0.0815686)
(8.06563e-06 -2.15891e-06 0.0852591)
(-4.11589e-06 -1.60424e-06 0.0852127)
(2.75706e-06 2.74269e-07 0.0678068)
(2.96293e-06 7.95428e-08 0.0678042)
(-4.66992e-06 -1.56621e-06 0.0852129)
(7.9689e-06 -2.74956e-06 0.0816083)
(-2.96318e-06 -1.60547e-06 0.0677534)
(7.59579e-06 -2.23402e-06 0.0852588)
(-3.62249e-06 -1.16404e-06 0.0762172)
(-5.11208e-06 -7.97812e-07 0.0909805)
(8.87546e-06 -1.17803e-06 0.0894538)
(4.06541e-06 -2.62582e-07 0.078037)
(-5.46008e-06 -1.13142e-06 0.089414)
(-2.99408e-06 -6.2054e-07 0.0780091)
(3.53225e-06 3.05621e-07 0.0762528)
(3.76879e-06 2.26173e-07 0.0762492)
(-3.09115e-06 7.33647e-07 0.078008)
(-5.71692e-06 8.23412e-07 0.0894183)
(9.15616e-06 4.7563e-07 0.0910184)
(-3.65661e-06 1.49658e-06 0.0762163)
(4.11031e-06 5.48407e-07 0.0780353)
(8.77198e-06 1.03373e-06 0.0894566)
(-3.05145e-06 1.62074e-06 0.0677608)
(-5.83935e-06 9.28033e-07 0.0815685)
(7.84504e-06 2.22918e-06 0.0852587)
(-4.22936e-06 1.57673e-06 0.0852147)
(3.06767e-06 1.35436e-07 0.0678074)
(3.1328e-06 1.11961e-07 0.0678031)
(-4.39066e-06 1.47222e-06 0.085215)
(7.9361e-06 2.80672e-06 0.0816078)
(-3.08745e-06 1.56864e-06 0.0677565)
(7.80051e-06 2.17795e-06 0.0852588)
(-3.51493e-06 1.56242e-06 0.0762185)
(-5.0359e-06 4.60591e-07 0.0909807)
(4.13629e-06 6.58575e-07 0.0780369)
(8.90797e-06 1.10329e-06 0.0894534)
(-2.93535e-06 8.54019e-07 0.0780094)
(-5.38357e-06 9.328e-07 0.0894152)
(3.74968e-06 2.62939e-07 0.0762515)
(9.20388e-07 -5.80997e-06 0.0815689)
(2.20818e-06 7.85824e-06 0.0852591)
(1.54226e-06 -4.22449e-06 0.0852151)
(4.10342e-07 -5.05583e-06 0.0909804)
(1.06379e-06 8.92229e-06 0.0894537)
(8.85683e-07 -5.38195e-06 0.0894154)
(-6.63074e-06 -4.19899e-06 0.0912584)
(1.29833e-05 1.93342e-06 0.0961082)
(-2.78349e-06 -3.16419e-06 0.0869843)
(5.14192e-06 4.44843e-06 0.080997)
(-1.15204e-05 -1.19328e-05 0.0960655)
(-1.01465e-06 8.58142e-07 0.0809596)
(9.97376e-06 3.45709e-06 0.0912934)
(-4.15318e-06 -6.6559e-06 0.0912518)
(1.95777e-06 1.29642e-05 0.096105)
(-3.15322e-06 -2.77689e-06 0.0869833)
(4.47993e-06 5.13282e-06 0.0809915)
(-1.19265e-05 -1.14876e-05 0.096063)
(8.82582e-07 -1.06595e-06 0.0809552)
(3.51065e-06 9.96581e-06 0.0912861)
(-4.25464e-06 -4.28247e-06 0.083062)
(1.46821e-06 3.84788e-06 0.0678281)
(3.86861e-06 1.48577e-06 0.0678213)
(-9.70632e-07 1.02322e-07 0.067788)
(9.01974e-08 -1.01028e-06 0.0677827)
(8.69915e-07 8.67979e-07 0.0830931)
(-2.47715e-06 -2.22795e-06 0.070873)
(-2.2216e-06 -2.46319e-06 0.0708733)
(1.0476e-05 -3.91599e-05 0.101713)
(3.91448e-05 -1.06143e-05 0.10171)
(1.0639e-05 -1.05957e-05 0.0974649)
(-1.23349e-05 1.22187e-05 0.0974116)
(-4.98172e-05 4.95349e-05 0.104734)
(-4.78789e-05 1.49789e-05 0.10163)
(-1.52693e-05 4.77653e-05 0.101633)
(3.87843e-05 1.01932e-05 0.101709)
(1.03572e-05 1.0344e-05 0.0974639)
(1.01819e-05 3.88062e-05 0.101712)
(-1.25895e-05 -1.26246e-05 0.097411)
(-4.99476e-05 -4.99466e-05 0.104734)
(-1.53692e-05 -4.82747e-05 0.101633)
(-4.82123e-05 -1.534e-05 0.10163)
(-3.36215e-05 1.15034e-05 0.115029)
(-1.29773e-05 1.28043e-05 0.11639)
(-1.16719e-05 3.33272e-05 0.115028)
(-2.47398e-05 2.44205e-05 0.113139)
(-1.1422e-05 3.32663e-05 0.115002)
(-3.35599e-05 1.13113e-05 0.115003)
(-1.28177e-05 1.26881e-05 0.116343)
(-3.35869e-05 -1.1701e-05 0.115028)
(-1.29698e-05 -1.29263e-05 0.11639)
(-1.17377e-05 -3.3545e-05 0.115028)
(-2.45837e-05 -2.45458e-05 0.113138)
(-3.34485e-05 -1.13076e-05 0.115002)
(-1.12991e-05 -3.34279e-05 0.115003)
(-1.27616e-05 -1.27466e-05 0.116343)
(-3.11091e-06 -4.96329e-05 0.101661)
(5.23284e-06 -8.89548e-06 0.092666)
(2.11534e-06 -1.27327e-05 0.0954438)
(-5.72657e-06 5.65234e-05 0.101528)
(-1.80967e-06 1.24309e-05 0.0926124)
(-3.64202e-07 1.29255e-05 0.0953755)
(-8.32743e-06 5.27755e-05 0.0995335)
(-2.85492e-06 -4.93914e-05 0.101673)
(-7.21351e-07 1.35249e-05 0.0953825)
(-7.73496e-06 5.34873e-05 0.0995433)
(4.79925e-06 -8.65155e-06 0.0926707)
(-5.0914e-06 5.73395e-05 0.10154)
(1.74758e-06 -1.2487e-05 0.0954512)
(-1.25307e-06 -4.56606e-05 0.0996133)
(1.17213e-05 -1.18192e-05 0.0974784)
(4.18466e-05 -4.21238e-05 0.104909)
(-4.64589e-05 1.43136e-05 0.101643)
(-1.45816e-05 4.6247e-05 0.101647)
(4.05865e-05 -1.11755e-05 0.101725)
(-1.13711e-05 1.11876e-05 0.097424)
(1.09502e-05 -4.07781e-05 0.101728)
(-5.98237e-05 -2.17828e-06 0.10321)
(-1.69692e-05 5.06474e-07 0.098553)
(4.38484e-05 -5.8619e-07 0.104087)
(1.00048e-05 3.76403e-07 0.0975574)
(-6.04556e-05 4.47099e-08 0.103961)
(-1.70455e-05 -1.07796e-07 0.0974878)
(4.58286e-05 -2.46928e-06 0.103365)
(4.58846e-05 3.18015e-06 0.103352)
(-1.64527e-05 4.69522e-07 0.0974784)
(-5.95915e-05 5.50489e-07 0.103947)
(1.01089e-05 -1.72375e-07 0.0986018)
(-5.92479e-05 2.86378e-06 0.103197)
(1.04452e-05 -1.83514e-07 0.0975473)
(4.41823e-05 1.14699e-06 0.104073)
(4.57715e-05 1.59445e-06 0.0996042)
(1.28119e-05 -1.92135e-06 0.0954435)
(8.81045e-06 -4.79167e-06 0.092666)
(-5.67811e-05 5.72596e-06 0.101529)
(-1.25196e-05 2.17324e-06 0.0926133)
(-5.29475e-05 8.46771e-06 0.0995351)
(-1.29727e-05 4.74318e-07 0.0953742)
(4.89002e-05 2.70088e-06 0.101674)
(-1.38098e-05 5.6316e-07 0.0953815)
(-5.3686e-05 7.50616e-06 0.0995452)
(8.66708e-06 -4.71578e-06 0.0926709)
(-5.79157e-05 4.84118e-06 0.10154)
(4.54626e-05 1.12532e-06 0.0996149)
(1.22695e-05 -1.80289e-06 0.0954507)
(4.46219e-05 1.0696e-06 0.104059)
(1.06349e-05 -5.01388e-07 0.098591)
(1.1125e-05 -5.77531e-07 0.0975381)
(-5.83038e-05 3.14648e-06 0.103185)
(-1.56396e-05 -3.24481e-07 0.0985321)
(-1.56336e-05 1.46988e-07 0.0974693)
(-5.8714e-05 5.85298e-07 0.103934)
(4.62565e-05 -3.04509e-06 0.103352)
(-5.94583e-05 -2.0134e-07 0.103947)
(-1.61866e-05 -2.28236e-07 0.097479)
(1.02144e-05 2.44192e-07 0.0986021)
(-5.88458e-05 -2.63422e-06 0.103198)
(4.43133e-05 -9.46023e-07 0.104073)
(1.07149e-05 2.13588e-07 0.097548)
(4.94759e-05 -3.36804e-06 0.101661)
(8.80527e-06 5.05069e-06 0.0926661)
(1.26913e-05 1.84544e-06 0.0954439)
(-5.66451e-05 -5.8449e-06 0.101529)
(-1.23609e-05 -1.95021e-06 0.0926134)
(-1.29056e-05 -5.04478e-07 0.0953756)
(-5.2822e-05 -8.60185e-06 0.0995349)
(4.9317e-05 -2.79789e-06 0.101673)
(-1.35033e-05 -5.34169e-07 0.0953827)
(-5.33087e-05 -7.63545e-06 0.0995448)
(8.93733e-06 4.83225e-06 0.0926711)
(-5.73936e-05 -4.91226e-06 0.10154)
(1.25149e-05 1.79465e-06 0.0954514)
(4.57843e-05 -1.32575e-06 0.0996145)
(4.46361e-05 -1.32489e-06 0.104059)
(1.06484e-05 1.51734e-08 0.0985912)
(1.11401e-05 1.65387e-07 0.0975385)
(-5.80993e-05 -3.19293e-06 0.103186)
(-1.5571e-05 7.81867e-08 0.0985323)
(-5.86323e-05 -6.12824e-07 0.103934)
(-1.55082e-05 -3.60754e-07 0.0974702)
(-3.36413e-06 4.9526e-05 0.101662)
(5.04884e-06 8.83302e-06 0.0926663)
(1.83432e-06 1.27129e-05 0.0954444)
(-5.7901e-06 -5.65912e-05 0.101529)
(-1.95997e-06 -1.23513e-05 0.0926135)
(-5.13078e-07 -1.29117e-05 0.0953758)
(-8.60884e-06 -5.27863e-05 0.0995342)
(-1.37853e-06 4.46223e-05 0.104059)
(-4.41546e-08 1.06294e-05 0.0985914)
(1.29368e-07 1.11431e-05 0.0975388)
(-3.16575e-06 -5.81253e-05 0.103185)
(3.0771e-08 -1.55969e-05 0.0985321)
(-6.48331e-07 -5.86431e-05 0.103933)
(-3.88048e-07 -1.55063e-05 0.0974702)
(-3.77129e-05 -3.77176e-05 0.105488)
(2.56802e-05 4.04476e-05 0.108734)
(4.03954e-05 2.55924e-05 0.108735)
(4.04647e-05 -2.56636e-05 0.108733)
(-3.76595e-05 3.77319e-05 0.105488)
(2.56258e-05 -4.0372e-05 0.108735)
(1.28334e-06 -3.01202e-06 0.0709396)
(3.02287e-06 -1.95912e-07 0.0872096)
(3.72609e-05 -3.72165e-05 0.105534)
(-7.82734e-07 -4.05833e-06 0.0913586)
(-3.40322e-06 -5.64228e-06 0.0817362)
(-4.09917e-06 -7.5919e-07 0.0913586)
(-5.60595e-06 -3.43264e-06 0.0817363)
(3.86129e-05 3.86182e-05 0.112656)
(3.86223e-05 -3.85799e-05 0.112655)
(-1.28519e-06 -3.01779e-06 0.0709387)
(-3.02146e-06 -1.27329e-06 0.0709381)
(-3.71967e-05 -3.71311e-05 0.105533)
(-3.01285e-06 -1.35211e-07 0.0872105)
(-1.66368e-07 -3.06217e-06 0.0872086)
(-1.20815e-06 -3.08874e-06 0.0709298)
(3.04132e-06 3.65578e-06 0.070892)
(-3.13605e-06 -1.1739e-06 0.0709292)
(3.64291e-06 3.09088e-06 0.0708917)
(7.0707e-05 7.072e-05 0.105324)
(-2.98629e-06 -3.52296e-07 0.087189)
(-3.90496e-07 -3.01313e-06 0.087187)
(5.67435e-06 8.06469e-06 0.0871622)
(8.04807e-06 5.63792e-06 0.0871601)
(3.3648e-06 -5.59666e-06 0.0817368)
(7.78659e-07 -4.06998e-06 0.0913586)
(-1.30026e-07 4.96779e-07 0.0991807)
(2.68892e-05 4.21022e-05 0.108759)
(-3.84594e-06 2.43247e-08 0.0929946)
(1.01224e-05 5.41297e-05 0.110996)
(3.84893e-06 6.7995e-08 0.0929948)
(-2.67492e-05 4.20268e-05 0.108758)
(1.55014e-07 4.85825e-07 0.0991808)
(-1.00039e-05 5.41234e-05 0.110997)
(-7.83494e-07 1.18207e-05 0.0913084)
(-3.3212e-06 -5.80476e-06 0.0817193)
(-1.36585e-06 9.38352e-06 0.0816856)
(-7.9335e-07 -4.37629e-06 0.0913264)
(7.65536e-07 1.1818e-05 0.0913086)
(7.6441e-07 -4.37972e-06 0.0913265)
(-7.52015e-08 2.93579e-05 0.099091)
(2.62977e-05 4.12901e-05 0.108746)
(-3.80967e-06 -3.84108e-07 0.092963)
(9.65951e-06 5.23154e-05 0.111003)
(3.92101e-06 2.31352e-05 0.0929216)
(9.92492e-06 5.32455e-05 0.111)
(-2.28715e-07 -1.64549e-07 0.0991312)
(8.74983e-08 2.93601e-05 0.0990912)
(1.5285e-07 -1.62896e-07 0.0991315)
(4.28774e-07 -1.02704e-07 0.0991803)
(4.19479e-05 2.68432e-05 0.10876)
(3.63721e-08 -3.91046e-06 0.0929944)
(5.40201e-05 1.00782e-05 0.110996)
(1.1763e-05 -7.60088e-07 0.0913083)
(-5.88353e-06 -3.2789e-06 0.0817195)
(9.41011e-06 -1.3752e-06 0.0816862)
(-4.3833e-06 -8.1312e-07 0.0913265)
(2.9295e-05 -3.3216e-08 0.0990908)
(4.1185e-05 2.62352e-05 0.108748)
(-3.99678e-07 -3.91315e-06 0.0929629)
(5.23148e-05 9.65543e-06 0.111003)
(2.31544e-05 3.81669e-06 0.0929217)
(5.31583e-05 9.9079e-06 0.111)
(-1.34103e-07 -1.98011e-07 0.0991312)
(1.1747e-05 7.81614e-07 0.091308)
(-5.85209e-06 3.28791e-06 0.0817197)
(9.43096e-06 1.35379e-06 0.0816855)
(-4.36828e-06 7.81162e-07 0.0913267)
(2.92991e-05 9.54352e-08 0.0990912)
(4.12401e-05 -2.62334e-05 0.108745)
(5.23289e-05 -9.69101e-06 0.111003)
(-4.5501e-07 3.87019e-06 0.092963)
(5.3172e-05 -9.90456e-06 0.110999)
(2.31277e-05 -3.85708e-06 0.0929206)
(-1.26641e-07 1.88038e-07 0.0991309)
(-3.11564e-06 1.21057e-06 0.0709294)
(3.63453e-06 -3.05729e-06 0.0708912)
(7.06779e-05 -7.06686e-05 0.105324)
(-3.70885e-07 2.99406e-06 0.0871867)
(-3.06058e-06 3.94472e-07 0.0871893)
(8.01197e-06 -5.65851e-06 0.0871596)
(5.64433e-06 -8.03859e-06 0.0871615)
(-1.20332e-06 3.14601e-06 0.0709295)
(3.04995e-06 -3.68297e-06 0.0708916)
(-6.94933e-08 -2.92686e-05 0.0990908)
(2.62264e-05 -4.11323e-05 0.108748)
(-3.96101e-06 4.79156e-07 0.0929641)
(9.90091e-06 -5.30623e-05 0.111)
(3.9111e-06 -2.31069e-05 0.0929217)
(-7.62021e-07 -1.17572e-05 0.0913078)
(-3.29178e-06 5.85254e-06 0.0817198)
(-1.38214e-06 -9.45599e-06 0.0816855)
(-3.00454e-06 3.75432e-06 0.0708969)
(-8.30382e-06 1.47808e-05 0.0915239)
(-5.68859e-06 8.13526e-06 0.0871719)
(-2.13718e-06 -3.02983e-06 0.0965003)
(2.33265e-06 -3.84557e-07 0.0811109)
(-2.07955e-06 7.2611e-06 0.0810757)
(3.98901e-07 -4.85927e-06 0.0915604)
(-1.76018e-05 2.48828e-05 0.0964547)
(-5.5695e-06 5.34878e-06 0.083222)
(1.72873e-06 -1.31104e-06 0.0678783)
(1.2229e-06 -1.89405e-06 0.0678815)
(-2.69135e-06 2.07636e-06 0.0678421)
(-2.17357e-06 2.53606e-06 0.0678457)
(6.451e-07 -8.00701e-07 0.0832528)
(-1.4819e-05 8.39695e-06 0.0915277)
(-7.17069e-06 2.11092e-06 0.0810791)
(-1.75936e-06 5.96303e-06 0.076327)
(-7.6302e-07 1.2046e-05 0.0913245)
(-7.37827e-07 -2.39447e-06 0.0781676)
(-1.09039e-06 -4.11432e-06 0.0897381)
(-9.90631e-07 5.3462e-06 0.0781407)
(-9.01863e-07 1.18076e-05 0.089698)
(-3.44041e-07 -2.01717e-06 0.0763595)
(-1.98626e-06 4.13782e-06 0.0678077)
(-2.60429e-06 -5.0733e-06 0.0854417)
(-1.41048e-06 9.53484e-06 0.0816943)
(-1.86775e-06 8.22588e-06 0.0853956)
(-3.76055e-07 -2.60252e-06 0.0678552)
(6.00682e-06 -1.74837e-06 0.076327)
(1.20451e-05 -7.33694e-07 0.0913244)
(-4.14766e-06 -1.04717e-06 0.089738)
(-2.38108e-06 -7.32541e-07 0.0781676)
(1.17806e-05 -8.32241e-07 0.0896983)
(5.38942e-06 -9.68544e-07 0.0781406)
(-2.00905e-06 -3.875e-07 0.0763596)
(4.14264e-06 -1.96949e-06 0.0678075)
(-5.09347e-06 -2.5987e-06 0.0854414)
(9.58716e-06 -1.45161e-06 0.0816948)
(8.16665e-06 -1.8473e-06 0.0853963)
(-2.63702e-06 -3.83333e-07 0.0678547)
(3.02866e-06 3.72713e-06 0.0708966)
(3.75588e-06 3.04185e-06 0.0708964)
(5.57852e-06 5.56565e-06 0.0832229)
(-1.80635e-06 -1.31291e-06 0.0678832)
(-1.26684e-06 -1.83661e-06 0.0678773)
(2.59354e-06 2.05257e-06 0.0678479)
(2.08835e-06 2.55869e-06 0.0678418)
(-6.30457e-07 -6.70405e-07 0.0832527)
(8.43667e-06 1.4794e-05 0.091529)
(-2.33432e-06 -3.4927e-07 0.0811148)
(5.70868e-06 8.18651e-06 0.0871733)
(2.17258e-06 -3.0391e-06 0.0965031)
(2.06101e-06 7.30355e-06 0.0810806)
(-3.19069e-07 -4.78761e-06 0.0915662)
(1.76455e-05 2.48369e-05 0.0964564)
(1.47555e-05 8.38058e-06 0.0915215)
(-2.92256e-07 -2.37113e-06 0.0811095)
(8.16812e-06 5.68447e-06 0.087171)
(-3.05982e-06 2.18737e-06 0.0965)
(7.32603e-06 2.00609e-06 0.0810744)
(-4.76313e-06 -3.87592e-07 0.0915592)
(2.47518e-05 1.76567e-05 0.0964531)
(3.06624e-06 3.59832e-06 0.0708875)
(-1.25572e-06 -3.05983e-06 0.0709341)
(3.56422e-06 3.13195e-06 0.0708874)
(-3.10447e-06 -1.216e-06 0.0709335)
(-7.72494e-07 -8.1837e-07 0.0832432)
(2.58359e-06 2.05329e-06 0.0678422)
(2.08662e-06 2.54938e-06 0.067836)
(5.4681e-06 5.43918e-06 0.0832133)
(-1.78512e-06 -1.31043e-06 0.0678773)
(-1.27342e-06 -1.8038e-06 0.0678714)
(8.08377e-06 1.42247e-05 0.0915022)
(1.72283e-06 -3.71367e-06 0.0964677)
(5.661e-06 7.93725e-06 0.0871516)
(-2.165e-06 -5.23758e-07 0.0810983)
(2.17408e-06 7.10571e-06 0.081064)
(1.71314e-05 2.39713e-05 0.0964211)
(-6.19679e-07 -5.24256e-06 0.0915394)
(1.42211e-05 7.97903e-06 0.0914947)
(-3.67446e-06 1.66817e-06 0.0964647)
(7.9162e-06 5.63942e-06 0.0871494)
(-4.96814e-07 -2.18884e-06 0.0810929)
(7.11935e-06 2.10613e-06 0.0810579)
(2.3952e-05 1.70702e-05 0.0964178)
(-5.20486e-06 -7.2155e-07 0.0915324)
(-4.73989e-07 -4.99789e-06 0.0915525)
(2.088e-06 7.20725e-06 0.0810722)
(1.74144e-05 2.44074e-05 0.0964385)
(-3.00567e-06 -2.32429e-07 0.0871995)
(8.26336e-06 1.45295e-05 0.0915154)
(-2.25939e-06 -4.23995e-07 0.0811064)
(1.96e-06 -3.36897e-06 0.0964852)
(-4.95418e-06 -5.7217e-07 0.0915455)
(7.23777e-06 2.01329e-06 0.081066)
(2.43533e-05 1.73902e-05 0.0964352)
(-2.65631e-07 -3.05578e-06 0.0871977)
(1.45172e-05 8.17816e-06 0.0915078)
(-3.72971e-07 -2.30282e-06 0.0811011)
(-3.35168e-06 1.93079e-06 0.0964821)
(5.27709e-06 5.25557e-06 0.0832042)
(-1.75896e-06 -1.3252e-06 0.0678715)
(-1.30304e-06 -1.75965e-06 0.0678655)
(2.60349e-06 2.03996e-06 0.0678365)
(2.05647e-06 2.58475e-06 0.0678304)
(-9.627e-07 -9.92735e-07 0.0832341)
(1.9798e-06 4.12413e-06 0.0678097)
(1.39982e-06 9.61167e-06 0.0816949)
(2.5708e-06 -5.07664e-06 0.0854422)
(1.84784e-06 8.21811e-06 0.0853971)
(3.64278e-07 -2.60269e-06 0.0678567)
(1.74811e-06 5.96119e-06 0.0763269)
(1.08093e-06 -4.14354e-06 0.0897379)
(7.72327e-07 1.20475e-05 0.0913248)
(7.20815e-07 -2.39555e-06 0.0781676)
(9.72175e-07 5.34682e-06 0.0781408)
(8.99437e-07 1.17873e-05 0.0896987)
(3.35882e-07 -2.01508e-06 0.0763592)
(-2.89443e-07 -2.03971e-06 0.076352)
(-9.86104e-07 5.26973e-06 0.0781324)
(-9.28331e-07 1.16195e-05 0.0896839)
(-7.98925e-07 -4.22031e-06 0.0913423)
(-1.72314e-06 5.90127e-06 0.0763194)
(-7.24971e-07 -2.43409e-06 0.0781593)
(-1.10134e-06 -4.2627e-06 0.0897238)
(-1.91672e-06 4.14444e-06 0.0677973)
(-1.33131e-06 9.25423e-06 0.0816773)
(-2.57336e-06 -5.34831e-06 0.0854208)
(-1.84242e-06 7.901e-06 0.0853747)
(-3.28122e-07 -2.55072e-06 0.0678445)
(-3.37706e-07 -2.57508e-06 0.0678498)
(-1.85657e-06 8.08777e-06 0.085385)
(-3.36116e-06 -5.74189e-06 0.0817276)
(-1.95119e-06 4.1277e-06 0.0678025)
(-2.5885e-06 -5.20497e-06 0.085431)
(-1.66552e-06 5.8713e-06 0.0763122)
(-7.90333e-07 1.16109e-05 0.0912926)
(-7.1378e-07 -2.45111e-06 0.0781514)
(-1.07999e-06 -4.44049e-06 0.08971)
(-9.70239e-07 5.22253e-06 0.0781244)
(-9.22791e-07 1.14076e-05 0.0896702)
(-2.60826e-07 -2.047e-06 0.0763447)
(2.96081e-07 -2.04804e-06 0.0763517)
(9.09748e-07 1.1598e-05 0.0896845)
(9.79713e-07 5.26779e-06 0.0781325)
(7.73072e-07 -4.22801e-06 0.0913424)
(1.7362e-06 5.88267e-06 0.0763194)
(7.21171e-07 -2.43605e-06 0.0781594)
(1.07702e-06 -4.28573e-06 0.0897237)
(1.68231e-06 5.85102e-06 0.0763122)
(1.0594e-06 -4.4592e-06 0.0897099)
(7.59376e-07 1.16092e-05 0.0912927)
(7.07945e-07 -2.45041e-06 0.0781514)
(9.72085e-07 5.22219e-06 0.0781245)
(8.98206e-07 1.1388e-05 0.0896707)
(2.51815e-07 -2.04856e-06 0.0763445)
(-2.08758e-06 -3.6744e-07 0.0763521)
(1.16076e-05 -9.08055e-07 0.0896841)
(5.25397e-06 -1.0036e-06 0.0781322)
(-4.27894e-06 -7.94449e-07 0.0913425)
(5.8726e-06 -1.80618e-06 0.0763195)
(-4.26035e-06 -1.10755e-06 0.0897238)
(-2.47041e-06 -7.49744e-07 0.0781594)
(4.06694e-06 -1.89169e-06 0.0677979)
(9.21409e-06 -1.29955e-06 0.0816779)
(-5.32479e-06 -2.55702e-06 0.0854203)
(7.96122e-06 -1.84177e-06 0.0853752)
(-2.58849e-06 -2.59284e-07 0.0678448)
(-2.65956e-06 -3.38565e-07 0.0678497)
(8.13227e-06 -1.86196e-06 0.0853856)
(-5.76289e-06 -3.34564e-06 0.0817277)
(4.05205e-06 -1.96989e-06 0.0678026)
(-5.14588e-06 -2.59245e-06 0.0854306)
(5.82557e-06 -1.71176e-06 0.0763123)
(1.15665e-05 -7.92965e-07 0.0912924)
(-4.40372e-06 -1.09989e-06 0.0897099)
(-2.48458e-06 -7.23767e-07 0.0781514)
(1.14266e-05 -9.39943e-07 0.0896701)
(5.18269e-06 -9.95433e-07 0.0781243)
(-2.0723e-06 -2.42617e-07 0.076345)
(-2.06685e-06 3.54097e-07 0.0763527)
(5.19717e-06 1.00744e-06 0.078131)
(1.15751e-05 9.30587e-07 0.0896833)
(-4.25341e-06 7.80135e-07 0.0913426)
(5.79268e-06 1.8159e-06 0.0763173)
(-2.43004e-06 7.46115e-07 0.0781601)
(-4.24767e-06 1.1089e-06 0.0897244)
(4.07082e-06 1.92907e-06 0.0677989)
(9.23032e-06 1.29609e-06 0.0816774)
(-5.31183e-06 2.56444e-06 0.0854214)
(7.96686e-06 1.83335e-06 0.085375)
(-2.58718e-06 2.94634e-07 0.0678468)
(-2.65518e-06 3.63064e-07 0.0678517)
(8.14373e-06 1.85859e-06 0.0853854)
(-5.71407e-06 3.33376e-06 0.081728)
(4.05896e-06 1.9999e-06 0.0678037)
(-5.12981e-06 2.59906e-06 0.0854317)
(5.74026e-06 1.72654e-06 0.0763102)
(1.15421e-05 7.91986e-07 0.0912922)
(-2.44291e-06 7.27653e-07 0.0781522)
(-4.39982e-06 1.08759e-06 0.0897106)
(5.12471e-06 9.9887e-07 0.078123)
(1.13822e-05 9.41495e-07 0.0896695)
(-2.05525e-06 2.40503e-07 0.0763455)
(3.55945e-06 -3.08194e-06 0.0708871)
(-3.06244e-06 1.22712e-06 0.0709339)
(-7.9848e-07 7.40478e-07 0.0832431)
(2.04166e-06 -2.55602e-06 0.0678357)
(2.51246e-06 -2.0723e-06 0.0678418)
(5.43401e-06 -5.45931e-06 0.0832131)
(-1.32555e-06 1.81012e-06 0.0678711)
(-1.86301e-06 1.28344e-06 0.0678775)
(1.41977e-05 -8.06996e-06 0.0914949)
(-3.71674e-06 -1.71773e-06 0.096464)
(7.89297e-06 -5.64464e-06 0.0871491)
(-5.74426e-07 2.23402e-06 0.0810922)
(2.39436e-05 -1.71425e-05 0.0964178)
(7.06358e-06 -2.09743e-06 0.0810582)
(-5.26284e-06 6.43807e-07 0.0915316)
(8.04209e-06 -1.42059e-05 0.0915018)
(1.6888e-06 3.7327e-06 0.0964683)
(5.59841e-06 -7.90206e-06 0.087151)
(-2.27323e-06 5.53422e-07 0.0810985)
(2.03406e-06 -7.05365e-06 0.0810631)