/*--------------------------------*- C++ -*----------------------------------*\
| =========                 |                                                 |
| \\      /  F ield         | OpenFOAM: The Open Source CFD Toolbox           |
|  \\    /   O peration     | Version:  v2006                                 |
|   \\  /    A nd           | Website:  www.openfoam.com                      |
|    \\/     M anipulation  |                                                 |
\*---------------------------------------------------------------------------*/
FoamFile
{
    version     2.0;
    format      ascii;
    class       volScalarField;
    location    "375";
    object      nut;
}
// * * * * * * * * * * * * * * * * * * * * * * * * * * * * * * * * * * * * * //

dimensions      [0 2 -1 0 0 0 0];


internalField   nonuniform List<scalar> 
14310
(
0.000114425
0.000112061
0.000112077
4.9796e-05
8.72124e-05
4.97917e-05
8.7216e-05
2.35529e-05
2.3551e-05
7.0985e-05
7.09773e-05
8.72074e-05
8.74799e-05
0.000109179
0.000107409
0.000109094
0.000107397
8.74728e-05
0.000109211
0.000107415
8.72075e-05
0.000109231
0.000107405
2.0081e-05
7.42646e-05
4.97992e-05
2.00803e-05
7.43026e-05
3.61976e-05
8.73237e-05
4.0451e-05
8.43265e-05
3.61968e-05
4.04519e-05
8.44106e-05
2.00807e-05
7.42638e-05
4.97949e-05
2.008e-05
7.43019e-05
3.6197e-05
8.7328e-05
8.43259e-05
4.04502e-05
3.61962e-05
8.44103e-05
4.0451e-05
2.3554e-05
2.35521e-05
9.22361e-05
0.000102814
4.76699e-05
7.10381e-05
9.21265e-05
4.76747e-05
0.00010299
9.22524e-05
0.000102804
4.76582e-05
7.10309e-05
9.2142e-05
4.76629e-05
0.00010298
7.71151e-05
2.14522e-05
2.1449e-05
7.70736e-05
2.14533e-05
2.14501e-05
2.00795e-05
7.42381e-05
2.00787e-05
7.4283e-05
3.61955e-05
8.43089e-05
8.73187e-05
4.0451e-05
4.04518e-05
3.61946e-05
8.43965e-05
2.00796e-05
2.00788e-05
7.42928e-05
3.61948e-05
8.73247e-05
4.04497e-05
8.43136e-05
4.04506e-05
3.61939e-05
8.44059e-05
0.000108759
0.000112832
0.000112835
0.000114582
0.000108528
0.000112992
0.000112995
0.000110676
9.81974e-05
0.000110482
9.84442e-05
0.000110791
0.000107714
9.82585e-05
8.76339e-05
9.84955e-05
0.000110604
0.000107856
0.000112381
0.000107727
0.000105293
0.000112728
0.000105552
0.000112186
0.000112938
0.000112313
0.000105251
0.000107712
0.000112704
0.000112118
0.000105514
0.000112914
0.000110785
0.000107704
9.82584e-05
8.76272e-05
9.8489e-05
0.000110597
0.000107846
0.000112381
0.000107737
0.000105292
0.00011273
0.000105553
0.000112184
0.000112945
0.000110771
9.85117e-05
0.000112359
0.000107736
0.000112717
0.000105276
0.000112148
0.000112937
0.000105556
2.01026e-05
2.01042e-05
3.62684e-05
4.05417e-05
4.05388e-05
3.6271e-05
4.05377e-05
2.01035e-05
2.01052e-05
3.62701e-05
4.05418e-05
4.05388e-05
3.62727e-05
3.62676e-05
4.05377e-05
2.01027e-05
0.000139352
0.000137336
0.000139372
0.000139336
0.00013934
0.000137303
0.000123085
0.000123062
5.00187e-05
5.00065e-05
0.000138566
0.00012243
9.36684e-05
2.36132e-05
2.3609e-05
0.000136518
7.38192e-05
7.38363e-05
7.36941e-05
7.37133e-05
2.36143e-05
2.36101e-05
0.000120793
9.19028e-05
0.000120903
0.000138584
0.000128924
0.000134711
9.36874e-05
0.000133843
0.00013308
9.19386e-05
5.00205e-05
5.00083e-05
9.21526e-05
0.0001209
0.00013855
0.000134701
0.000122429
0.000133837
9.3671e-05
0.000133065
9.19362e-05
5.00175e-05
5.00049e-05
9.21506e-05
0.000134712
0.000122417
0.000133057
5.00159e-05
9.21456e-05
7.38302e-05
7.38242e-05
2.36134e-05
2.36125e-05
2.01024e-05
5.00137e-05
7.60873e-05
7.60473e-05
2.01039e-05
2.01025e-05
7.6001e-05
5.00114e-05
2.0101e-05
7.60414e-05
2.36112e-05
2.36109e-05
7.8881e-05
2.1488e-05
2.14912e-05
7.88455e-05
2.14896e-05
2.14927e-05
9.73914e-05
0.000112909
7.37611e-05
4.79375e-05
0.000112729
4.7932e-05
9.74981e-05
9.73824e-05
0.000112928
7.37801e-05
4.79468e-05
4.79413e-05
0.000112759
9.74881e-05
9.73754e-05
4.79242e-05
0.000112481
7.37536e-05
0.000112666
9.7265e-05
4.79297e-05
9.73652e-05
4.79335e-05
0.000112511
7.3771e-05
9.72558e-05
4.79389e-05
0.000112686
7.88869e-05
2.14912e-05
2.14944e-05
2.14896e-05
2.14928e-05
7.89219e-05
2.36124e-05
2.3612e-05
3.62626e-05
9.18107e-05
4.05344e-05
8.80834e-05
4.05316e-05
8.8009e-05
3.62651e-05
3.62696e-05
8.81126e-05
4.0535e-05
9.20298e-05
3.6267e-05
8.8192e-05
4.05379e-05
2.01037e-05
5.00155e-05
7.61018e-05
7.60604e-05
2.01053e-05
2.01039e-05
7.60143e-05
5.00133e-05
2.01023e-05
7.6056e-05
3.62704e-05
9.20628e-05
8.82901e-05
4.05419e-05
8.82118e-05
4.0539e-05
3.6273e-05
3.62684e-05
4.05355e-05
8.81094e-05
9.20275e-05
3.62659e-05
4.05383e-05
8.81834e-05
2.01029e-05
5.00123e-05
7.60876e-05
7.60464e-05
2.01045e-05
2.0103e-05
7.59991e-05
5.001e-05
2.01015e-05
7.60402e-05
3.62693e-05
9.20606e-05
4.05423e-05
8.82825e-05
4.05394e-05
8.82093e-05
3.62718e-05
5.00108e-05
7.60862e-05
7.60449e-05
9.20563e-05
8.82788e-05
8.82058e-05
9.73637e-05
0.00011291
7.37697e-05
4.79472e-05
0.000112728
4.79414e-05
9.74764e-05
9.73779e-05
0.000112895
7.37641e-05
4.79366e-05
0.000112717
4.79309e-05
9.74901e-05
7.88791e-05
2.14941e-05
2.14907e-05
2.14924e-05
2.1489e-05
7.89187e-05
2.36114e-05
2.36105e-05
0.000130265
0.000130257
0.000119963
0.000119734
0.000137141
0.000130089
0.000130097
0.000130231
0.000119938
0.000130233
0.000119714
0.000137107
0.000130064
0.000130062
0.000120813
0.000132207
0.000120823
0.000122416
0.000120547
0.000120535
0.00013244
0.000120802
0.000132203
0.000120819
0.000122402
0.000120529
0.000120548
0.000132433
0.000128905
9.39608e-05
0.000107892
0.000128742
9.38244e-05
0.000107698
0.000122295
0.000128449
0.000107464
0.000121922
9.38084e-05
0.000128282
0.000107663
0.000122061
0.000119687
0.000136717
0.000129632
0.00012964
0.000129805
0.000119453
0.000129813
0.000131847
0.00012055
0.000133944
0.000117136
0.000133754
0.000116919
0.000132009
0.000132552
0.000117236
0.00013433
0.000121145
0.00013239
0.000117453
0.00013452
0.000122456
0.00010791
9.39797e-05
0.000128759
9.38439e-05
0.00012232
0.00010771
0.000128466
0.000107475
0.000121946
9.38271e-05
0.000128298
0.000122085
0.00010768
0.000135088
0.000121488
0.000117755
0.00013292
0.00012125
0.000117542
0.0001349
0.000132539
0.000134326
0.000117226
0.000121142
0.000132378
0.000134516
0.000117442
0.0001289
9.39667e-05
0.000107894
0.000128734
9.38271e-05
0.000107694
0.000122292
0.000128443
0.000107461
0.000121921
9.38101e-05
0.000128277
0.000107661
0.000122059
0.000135083
0.000121485
0.000117745
0.000132905
0.000121246
0.000134894
0.000117531
0.000128891
9.39604e-05
0.000107887
0.000128725
9.38213e-05
0.000107689
0.00012228
0.000135077
0.000121477
0.000117737
0.000132898
0.00012124
0.00013489
0.000117525
0.000116305
0.000113956
0.000113966
0.000113997
0.000116412
0.000114026
2.3555e-05
7.11471e-05
0.000114992
8.747e-05
4.98044e-05
8.74732e-05
4.98001e-05
0.000109062
0.000109197
2.35552e-05
2.35533e-05
0.000115134
7.11171e-05
7.11099e-05
2.35579e-05
2.35551e-05
2.3556e-05
2.35532e-05
0.000115523
7.13318e-05
7.13235e-05
7.11324e-05
7.11251e-05
4.9803e-05
8.74678e-05
0.000108148
0.00011263
8.78116e-05
0.000109631
8.78282e-05
0.000112588
0.000108141
0.000109604
8.75061e-05
4.98164e-05
4.98061e-05
8.77749e-05
8.75054e-05
8.77737e-05
0.000108262
0.000113236
8.82383e-05
0.000110605
8.78324e-05
0.000110092
0.000109009
0.00010826
0.000109015
0.000108164
0.00011265
8.78057e-05
0.000109685
8.75076e-05
4.98119e-05
4.98017e-05
8.77678e-05
0.000108277
0.000113254
8.82288e-05
0.000110629
8.78267e-05
0.000110141
0.000109004
8.75006e-05
4.9807e-05
4.9798e-05
8.77608e-05
0.000108284
0.000113485
0.000110672
8.81861e-05
0.000110247
8.78754e-05
0.000109
2.35545e-05
2.35521e-05
0.000115739
7.12635e-05
7.12791e-05
7.11454e-05
7.11619e-05
2.35561e-05
2.35536e-05
0.000108284
0.000113506
8.82031e-05
0.000110252
8.78912e-05
8.75111e-05
4.9811e-05
4.98019e-05
2.3554e-05
9.22979e-05
7.10566e-05
0.000103265
4.76783e-05
4.76749e-05
9.24504e-05
0.000103008
7.71519e-05
2.14519e-05
2.14533e-05
2.14502e-05
2.14509e-05
7.72083e-05
9.22722e-05
4.76753e-05
3.61974e-05
8.73586e-05
4.04529e-05
8.45256e-05
4.0452e-05
8.44407e-05
3.61983e-05
2.008e-05
7.43521e-05
4.98007e-05
7.43115e-05
2.00808e-05
3.61968e-05
8.73627e-05
8.45246e-05
4.0452e-05
8.44405e-05
4.04511e-05
3.61977e-05
2.00797e-05
7.43498e-05
4.97963e-05
7.43104e-05
2.00805e-05
2.35539e-05
2.3552e-05
7.7127e-05
2.14543e-05
2.14511e-05
2.1453e-05
2.14499e-05
7.7185e-05
9.22529e-05
4.76829e-05
7.10499e-05
0.000103243
4.7677e-05
9.2384e-05
0.000103067
9.22684e-05
4.76711e-05
7.10426e-05
0.000103234
4.76653e-05
9.24002e-05
0.000103055
2.35565e-05
2.35565e-05
2.35546e-05
2.35546e-05
7.7272e-05
2.14541e-05
2.14509e-05
7.72e-05
2.14553e-05
2.14522e-05
9.26017e-05
0.000103893
7.12367e-05
4.77011e-05
4.76948e-05
0.000103643
9.27808e-05
9.26162e-05
0.000103882
7.12287e-05
4.76893e-05
4.7683e-05
0.000103631
9.27953e-05
9.25689e-05
4.76856e-05
0.000103329
7.12172e-05
9.24079e-05
4.76921e-05
0.000103538
9.25844e-05
4.76739e-05
0.000103318
7.12095e-05
9.24233e-05
4.76803e-05
0.00010353
7.72906e-05
2.14561e-05
2.1453e-05
2.1455e-05
2.14519e-05
7.73595e-05
2.00785e-05
4.97992e-05
7.43425e-05
7.42956e-05
2.00794e-05
3.61954e-05
8.45191e-05
8.73555e-05
4.04529e-05
4.04519e-05
8.44294e-05
3.61963e-05
3.61992e-05
4.04531e-05
8.45573e-05
8.76201e-05
3.61982e-05
4.04541e-05
8.46458e-05
2.00799e-05
4.98121e-05
7.44715e-05
7.44229e-05
2.00809e-05
2.00808e-05
7.43636e-05
4.98103e-05
2.00799e-05
7.44091e-05
3.61992e-05
8.76582e-05
4.04555e-05
8.47719e-05
4.04543e-05
8.46798e-05
3.62002e-05
3.61972e-05
8.45526e-05
4.0453e-05
8.76197e-05
3.61962e-05
4.04541e-05
8.46433e-05
3.61971e-05
8.47667e-05
8.76579e-05
4.04554e-05
4.04543e-05
8.46768e-05
3.61981e-05
3.61986e-05
8.45556e-05
4.04521e-05
8.7619e-05
3.61976e-05
8.46422e-05
4.04531e-05
2.00796e-05
4.98076e-05
7.4467e-05
7.44184e-05
2.00806e-05
2.00805e-05
7.43606e-05
4.98059e-05
2.00796e-05
7.44048e-05
3.61985e-05
8.7654e-05
8.4765e-05
4.04544e-05
8.46748e-05
4.04533e-05
3.61996e-05
3.61962e-05
4.04516e-05
8.45467e-05
8.76147e-05
3.61952e-05
4.04526e-05
8.46325e-05
2.00781e-05
4.9803e-05
7.44333e-05
7.43934e-05
2.0079e-05
2.00791e-05
7.43478e-05
4.98013e-05
2.00783e-05
7.43845e-05
3.61961e-05
8.76445e-05
4.04539e-05
8.47466e-05
4.04527e-05
8.46586e-05
3.61971e-05
2.35532e-05
2.35532e-05
7.72114e-05
2.14495e-05
2.14529e-05
7.71803e-05
2.14507e-05
2.14541e-05
9.25922e-05
0.000103828
7.11983e-05
4.76854e-05
0.000103674
4.76791e-05
9.27096e-05
9.25716e-05
0.000103848
7.12157e-05
4.76968e-05
4.76905e-05
0.000103688
9.26903e-05
9.25818e-05
4.76719e-05
0.000103444
7.11918e-05
0.000103608
9.24886e-05
4.76766e-05
9.2562e-05
4.76833e-05
0.000103459
7.12073e-05
9.24675e-05
4.7688e-05
0.000103626
7.72214e-05
2.1452e-05
2.14554e-05
2.14505e-05
2.14539e-05
7.72786e-05
2.35547e-05
2.35548e-05
3.61989e-05
8.4557e-05
4.04526e-05
8.76264e-05
3.6198e-05
8.46468e-05
4.04536e-05
2.00793e-05
4.98069e-05
7.44499e-05
7.44088e-05
2.00803e-05
2.00803e-05
7.43628e-05
4.98053e-05
2.00794e-05
7.44009e-05
0.000109486
0.000116111
0.000114396
0.000114399
0.000114196
0.0001142
0.000109788
0.000109493
0.00011628
0.000114441
0.000114445
0.000114299
0.000114302
0.000109723
0.000108782
0.000114795
0.000113353
0.000113351
0.000113149
0.000109085
0.000113152
0.000109063
0.000122588
0.000122634
0.000146609
0.000109007
0.000121714
0.000121744
0.000122133
0.000122177
0.000146007
0.000145411
0.000109318
0.000121806
0.000121831
0.000122284
0.00012228
0.000146047
0.00014544
0.000108812
0.000114993
0.000113425
0.000113428
0.000109054
0.000113271
0.000113274
0.000109393
0.00011568
0.000113703
0.000113707
0.00010912
0.000113875
0.000113878
0.000112814
0.000107839
0.000105919
0.000113605
0.000105667
0.000113401
0.000113
0.000111133
9.87684e-05
8.76518e-05
0.000108243
9.85348e-05
0.000108104
0.000111312
0.000111046
8.76286e-05
0.000108199
9.876e-05
0.000108024
9.85009e-05
0.000111251
0.000112753
0.000105905
0.000107828
0.000113587
0.000105637
0.000113379
0.000112952
0.000113606
0.000106035
0.000114057
0.000108572
0.000113418
0.000106292
0.000114261
0.000112188
0.000109109
8.80393e-05
9.93711e-05
0.000108934
9.91077e-05
0.000112393
0.000111833
9.88111e-05
0.000108495
8.8012e-05
0.000108648
0.000111646
9.90567e-05
0.000114032
0.000108692
0.000106684
0.000114926
0.000106414
0.000114716
0.00011423
0.000113602
0.00010603
0.000114048
0.000108575
0.000113398
0.000106303
0.000114257
0.000114057
0.000106703
0.000108697
0.000114936
0.00010643
0.000114723
0.000114264
0.00011282
0.000107853
0.000105924
0.000113627
0.00010567
0.000113419
0.000113008
0.00011113
9.87635e-05
8.76455e-05
0.000108235
9.85366e-05
0.000108096
0.00011131
0.000113618
0.00010604
0.000114084
0.000108583
0.00011343
0.000106295
0.000114287
0.000112185
0.000109099
8.80319e-05
9.93584e-05
0.000108926
9.91059e-05
0.000112389
0.000111833
9.88132e-05
0.000108488
8.8005e-05
0.000108641
0.000111646
9.90497e-05
0.00011404
0.000108696
0.000106678
0.000114939
0.000106414
0.000114736
0.000114235
0.000113666
0.0001141
0.00010606
0.000108587
0.000113476
0.000114303
0.000106311
0.000112253
0.000109116
8.80342e-05
9.93416e-05
9.9115e-05
0.000108986
0.000112426
0.000111926
9.885e-05
0.000108617
8.80215e-05
0.000111743
9.90804e-05
0.000108753
0.000114084
0.000108701
0.00011495
0.000106669
0.000114751
0.000106423
0.000114266
0.00010946
0.000115889
0.000113886
0.000113887
0.000114039
0.000109243
0.000114041
0.000113668
0.000114089
0.00010607
0.000108599
0.000113475
0.000114298
0.000106325
0.000112269
0.000109137
8.80517e-05
9.93608e-05
0.000109006
9.91304e-05
0.000112444
0.000111937
9.88612e-05
0.000108634
8.80377e-05
0.000111753
0.000108771
9.90952e-05
0.000144842
0.000114876
0.000114605
0.000117
0.000110386
0.00011814
0.000118245
0.000119586
0.000111108
0.000120813
0.000120925
0.000122455
0.000112983
0.000124427
0.000124276
0.000124847
0.000114394
0.000127349
0.000127459
0.000127732
0.000116365
0.000130588
0.000130555
0.000130142
0.000118645
0.000133832
0.00013383
0.000132782
0.000121192
0.000136976
0.000137042
0.000135271
0.000116809
0.00011935
0.000114799
0.000114845
0.000117378
0.000117337
0.000116991
0.000119264
0.000114799
0.000114573
0.000117376
0.000117266
0.000115029
0.000117342
0.000117098
0.000116779
0.000119223
0.000115029
0.000117273
0.000117096
0.000119163
0.000119806
0.000121674
0.000118059
0.000118138
0.000120063
0.000120081
0.000119754
0.000121736
0.000118066
0.000118241
0.000120082
0.000120303
0.000117816
0.000120112
0.000120403
0.000119849
0.000121917
0.00011782
0.000120337
0.00012042
0.000121929
0.000122168
0.000124714
0.000120898
0.000120779
0.000123627
0.000123506
0.000122142
0.000124594
0.000120911
0.000120887
0.000123623
0.00012333
0.000121211
0.000123512
0.000123301
0.000122251
0.000124426
0.000121224
0.000123337
0.000123294
0.000124428
0.000125199
0.000127083
0.000124434
0.000124426
0.000126558
0.000126639
0.000125156
0.00012718
0.000124427
0.000124275
0.000126567
0.000126723
0.000124076
0.000126662
0.000126703
0.000124999
0.000127274
0.000124069
0.000126748
0.000126712
0.000127232
0.000127499
0.000129723
0.000127297
0.000127318
0.000129754
0.000129701
0.000127555
0.000129675
0.000127306
0.000127426
0.000129761
0.000129702
0.000127531
0.000129724
0.000129775
0.00012767
0.000129657
0.000127542
0.000129726
0.000129779
0.000129726
0.000130201
0.000132326
0.000130585
0.00013057
0.000132997
0.00013304
0.000130176
0.00013237
0.000130585
0.000130536
0.000133
0.000133013
0.000130543
0.000133058
0.000132999
0.00013013
0.000132358
0.000130544
0.000133033
0.000133
0.000132321
0.000132762
0.0001349
0.000133805
0.000133813
0.000136251
0.000136153
0.00013279
0.000134813
0.000133803
0.000133809
0.000136261
0.000136217
0.00013382
0.000136171
0.0001362
0.000132797
0.000134866
0.000133822
0.000136237
0.000136208
0.000134851
0.000135333
0.000137306
0.000137053
0.00013696
0.000139336
0.000135246
0.000137053
0.000137026
0.000139347
0.000136984
0.000135301
0.000136991
8.80841e-05
4.98181e-05
4.98273e-05
8.78136e-05
2.35563e-05
2.35583e-05
8.80751e-05
4.98137e-05
4.98231e-05
8.78041e-05
0.000109306
0.000144844
0.000109557
0.000110196
0.000110147
0.000109955
0.000109901
0.00010991
0.000112879
0.000111288
0.000115667
0.000114741
8.86659e-05
0.000111907
2.35546e-05
2.35576e-05
0.000109876
0.000111193
0.000112765
0.000115346
0.000111743
8.86358e-05
0.000109136
7.13627e-05
7.13595e-05
0.000117932
7.15043e-05
7.15021e-05
8.865e-05
4.98387e-05
8.84075e-05
4.98485e-05
2.35602e-05
2.35628e-05
8.86542e-05
4.9834e-05
8.84131e-05
4.98437e-05
0.000110463
0.000110444
0.000110053
0.000110812
0.000110893
0.000111187
0.000111152
0.000111582
8.91001e-05
0.000113871
0.000118851
0.000110876
8.94549e-05
0.000114501
2.35596e-05
2.35615e-05
0.00011162
0.000113879
8.91577e-05
0.000119082
0.000110883
0.000114605
8.94969e-05
7.16645e-05
7.16622e-05
0.000120427
7.18542e-05
7.18499e-05
8.92305e-05
4.98643e-05
8.89717e-05
4.98749e-05
2.35665e-05
2.35702e-05
8.9224e-05
4.98592e-05
8.89649e-05
4.98699e-05
0.000111053
0.000111269
0.000111516
0.000112537
0.000112351
0.000112177
0.000112256
0.000113213
8.9808e-05
0.000116314
0.000121633
0.000112528
9.02009e-05
0.000116989
2.35646e-05
2.35685e-05
0.0001132
0.000116427
8.98038e-05
0.000121611
0.000112526
0.000117022
9.01693e-05
7.2056e-05
7.20515e-05
0.000123297
7.21689e-05
7.21637e-05
8.97917e-05
4.98875e-05
8.95617e-05
4.98975e-05
2.3573e-05
2.35756e-05
8.97906e-05
4.98826e-05
8.95551e-05
4.98926e-05
0.000112908
0.000112709
0.000112586
0.000114037
0.000114158
0.000114186
0.000114077
0.000114859
9.06651e-05
0.000119328
0.000125249
0.000114174
9.098e-05
0.000120118
2.35719e-05
2.35746e-05
0.000114857
0.000119223
9.0645e-05
0.000125176
0.000114148
0.000120046
9.09943e-05
7.23379e-05
7.23326e-05
0.000125734
7.2521e-05
7.25168e-05
9.03277e-05
4.99131e-05
9.00895e-05
4.99252e-05
2.35795e-05
2.35836e-05
9.03243e-05
4.99081e-05
9.00882e-05
4.99201e-05
0.000114483
0.00011457
0.000114594
0.000115833
0.000115779
0.000115829
0.000115945
0.000116377
9.12984e-05
0.000122299
0.000128083
0.000115745
9.16376e-05
0.000123016
2.35781e-05
2.3582e-05
0.000116387
0.000122365
9.13232e-05
0.000128176
0.000115757
0.000123088
9.16392e-05
7.26949e-05
7.26903e-05
0.000128561
7.28138e-05
7.28078e-05
9.08776e-05
4.99409e-05
9.06462e-05
4.99524e-05
2.35877e-05
2.35913e-05
9.0873e-05
4.99359e-05
9.06386e-05
4.99475e-05
0.000116349
0.000116356
0.000116409
0.000118063
0.000118135
0.000118079
0.000118052
0.000117915
9.20458e-05
0.000125384
0.00013144
0.000117265
9.23727e-05
0.000126228
2.35865e-05
2.35902e-05
0.000117903
0.000125384
9.20287e-05
0.000131394
0.000117249
0.00012621
9.2367e-05
7.29719e-05
7.29658e-05
0.000130974
7.31246e-05
7.31194e-05
9.1398e-05
4.99688e-05
9.11736e-05
4.99809e-05
2.35956e-05
2.35997e-05
9.13967e-05
4.99638e-05
9.11693e-05
4.99758e-05
0.000118705
0.000118665
0.00011866
0.000120552
0.000120451
0.000120516
0.000120499
0.00011938
9.27108e-05
0.00012875
0.000134601
0.000118774
9.30152e-05
0.000129575
2.35946e-05
2.35986e-05
0.000119383
0.000128741
9.27179e-05
0.000134625
0.000118771
0.000129584
9.30231e-05
7.32856e-05
7.32813e-05
0.00013362
7.34135e-05
7.34085e-05
9.19059e-05
4.99969e-05
9.16904e-05
5.00089e-05
2.36045e-05
2.36086e-05
9.19046e-05
4.99919e-05
9.16855e-05
5.00039e-05
0.000121089
0.00012117
0.00012112
0.000123115
0.000120796
9.33613e-05
0.000132106
0.000137784
0.000120198
9.36693e-05
0.000132974
2.36036e-05
2.36076e-05
0.000120795
0.000132157
9.33706e-05
0.000137836
0.000120198
0.00013302
9.36707e-05
7.35637e-05
7.35586e-05
0.000136077
7.36913e-05
7.36859e-05
2.35578e-05
2.35601e-05
2.3556e-05
2.35583e-05
7.13533e-05
7.13448e-05
0.000117842
7.1544e-05
7.15367e-05
2.35622e-05
2.35599e-05
2.35601e-05
2.35581e-05
0.000118416
7.16822e-05
7.16755e-05
7.15602e-05
7.15531e-05
8.80786e-05
4.9814e-05
4.98229e-05
8.7812e-05
0.000109907
8.82712e-05
0.000111203
0.000115707
8.87056e-05
0.000111872
0.000115395
0.000109901
0.000109523
0.000111223
0.000115641
8.86595e-05
0.00011185
0.000114721
8.81197e-05
4.98372e-05
4.98287e-05
8.83711e-05
8.81143e-05
4.9833e-05
4.98245e-05
8.83675e-05
0.000110034
0.000116589
8.90841e-05
0.000113262
8.87361e-05
0.000112577
0.000110773
0.000110027
0.000116484
8.9067e-05
0.000113237
8.86835e-05
0.000112532
0.000110763
7.13521e-05
7.13549e-05
0.000117897
7.15004e-05
7.15026e-05
2.35569e-05
2.35592e-05
2.35604e-05
2.35583e-05
0.000118386
7.16886e-05
7.16932e-05
7.15164e-05
7.15188e-05
2.35616e-05
2.35591e-05
0.000109878
8.8261e-05
0.000111187
0.000115701
8.86947e-05
0.000111828
0.000109121
8.80659e-05
4.98089e-05
4.98199e-05
8.77911e-05
0.000109858
0.000111127
8.82029e-05
0.000115319
0.000111688
8.86216e-05
0.000109118
8.81136e-05
4.98326e-05
4.98245e-05
8.83771e-05
0.000110008
0.000116581
8.90787e-05
0.000113225
8.87256e-05
0.000112521
0.000110772
8.80981e-05
4.98311e-05
4.98217e-05
8.8374e-05
0.000109991
0.000116247
0.000113147
8.91119e-05
0.000112372
8.86581e-05
0.000110764
8.80786e-05
4.98147e-05
8.78203e-05
4.98238e-05
0.000109913
0.000111365
0.000109532
0.000115778
0.000114734
0.000111977
8.86775e-05
8.80782e-05
4.9812e-05
8.78204e-05
4.98202e-05
0.000110038
0.000116499
8.90719e-05
0.000113214
8.86896e-05
0.000112554
0.000110748
8.81154e-05
4.98348e-05
4.98254e-05
8.8366e-05
0.000110042
0.000116446
0.00011313
8.90262e-05
0.000112559
8.86979e-05
0.000110742
8.81148e-05
4.98311e-05
4.98217e-05
8.8361e-05
7.12764e-05
7.12929e-05
0.00011756
7.14981e-05
7.15127e-05
2.35562e-05
2.35595e-05
2.35599e-05
2.35576e-05
0.000118088
7.1721e-05
7.17364e-05
7.15239e-05
7.15382e-05
2.35617e-05
2.35595e-05
0.000109889
0.000111352
0.000109524
0.000115772
0.000111935
8.86728e-05
0.000114729
8.80709e-05
4.98129e-05
4.98241e-05
8.78026e-05
8.80713e-05
4.98104e-05
4.98189e-05
8.78108e-05
0.000109996
0.000116264
0.000113123
8.91257e-05
0.000112393
8.86716e-05
0.00011076
0.000110011
0.000116439
0.000113095
8.90262e-05
0.000112508
8.86938e-05
0.000110747
8.81017e-05
4.98353e-05
4.9826e-05
8.83753e-05
8.81081e-05
4.98297e-05
4.98203e-05
8.83678e-05
2.35559e-05
2.3558e-05
2.35549e-05
2.35571e-05
0.000118404
7.16503e-05
7.16482e-05
7.15155e-05
7.15136e-05
2.35605e-05
2.35579e-05
2.35596e-05
2.35569e-05
2.35621e-05
2.3565e-05
2.356e-05
2.35629e-05
7.16891e-05
7.16848e-05
0.0001205
7.1819e-05
7.18138e-05
2.35692e-05
2.35655e-05
2.35666e-05
2.35631e-05
0.000120887
7.20215e-05
7.20145e-05
7.18328e-05
7.18276e-05
8.86492e-05
4.98344e-05
8.84051e-05
4.98434e-05
0.000111582
8.91e-05
0.000113896
0.000118686
0.000110893
8.94116e-05
0.000114475
0.000111585
8.9095e-05
0.000113915
0.000118842
0.000110885
8.94464e-05
0.000114533
8.86866e-05
4.98623e-05
4.98507e-05
8.89333e-05
8.86862e-05
4.98558e-05
4.98451e-05
8.89286e-05
0.0001117
0.000119331
8.98145e-05
0.00011561
8.94307e-05
0.00011503
0.000112381
0.000111703
0.000119466
8.97783e-05
0.000115635
8.94645e-05
0.000115092
0.000112379
7.1706e-05
7.171e-05
0.000120592
7.18353e-05
7.1841e-05
2.35615e-05
2.35639e-05
2.35663e-05
2.35627e-05
0.000121025
7.19761e-05
7.19818e-05
7.1844e-05
7.18504e-05
2.35671e-05
2.35638e-05
0.000111603
8.90967e-05
0.000113889
0.000118702
0.000110899
8.94075e-05
0.000114504
8.86557e-05
4.98323e-05
8.84045e-05
4.98399e-05
0.000111615
0.000113924
8.91439e-05
0.000119071
0.000110898
0.000114638
8.94815e-05
8.86881e-05
4.98572e-05
4.98457e-05
8.89282e-05
0.00011172
0.00011935
8.98063e-05
0.000115669
8.94265e-05
0.000115082
0.000112383
8.86822e-05
4.98511e-05
4.98413e-05
8.89242e-05
0.000111736
0.000119735
0.000115797
8.97719e-05
0.000115252
8.94965e-05
0.000112384
8.86555e-05
4.98363e-05
8.84037e-05
4.98452e-05
0.000111571
0.000113733
8.90463e-05
0.000118634
0.000110868
0.000114387
8.94351e-05
8.86532e-05
4.9833e-05
8.83987e-05
4.98438e-05
0.00011171
0.000119486
8.97888e-05
0.000115695
8.94738e-05
0.000115102
0.000112402
8.8693e-05
4.98574e-05
4.98468e-05
8.89376e-05
0.000111703
0.000119522
0.000115794
8.98666e-05
0.000115085
8.94658e-05
0.000112412
8.86922e-05
4.98553e-05
4.98456e-05
8.89426e-05
7.17382e-05
7.17533e-05
0.000120841
7.18509e-05
7.18654e-05
2.35615e-05
2.35634e-05
2.35643e-05
2.35614e-05
0.000121295
7.1964e-05
7.19773e-05
7.18583e-05
7.18726e-05
2.35662e-05
2.35633e-05
0.000111596
0.000113728
8.90468e-05
0.000118645
0.00011087
0.000114416
8.94333e-05
8.86638e-05
4.98366e-05
8.84058e-05
4.98442e-05
8.86583e-05
4.98315e-05
8.84048e-05
4.98423e-05
0.000111736
0.000119758
0.000115857
8.97894e-05
0.000115264
8.95122e-05
0.000112415
0.000111718
0.000119537
0.000115853
8.98624e-05
0.000115138
8.94638e-05
0.000112419
8.86913e-05
4.98553e-05
4.98456e-05
8.89358e-05
8.86942e-05
4.98538e-05
4.98441e-05
8.89393e-05
2.35606e-05
2.35638e-05
2.35597e-05
2.35628e-05
0.000120938
7.20431e-05
7.20385e-05
7.18736e-05
7.18692e-05
2.35664e-05
2.35638e-05
2.35654e-05
2.35628e-05
2.35693e-05
2.35722e-05
2.35667e-05
2.35697e-05
7.20403e-05
7.20329e-05
0.000123181
7.22222e-05
7.22146e-05
2.35748e-05
2.35722e-05
2.35722e-05
2.35697e-05
0.000123743
7.23729e-05
7.23659e-05
7.2238e-05
7.22301e-05
8.92235e-05
4.9858e-05
8.8967e-05
4.98699e-05
0.000113218
8.98438e-05
0.000116261
0.000121812
0.000112504
9.02522e-05
0.000116995
0.000113203
8.97963e-05
0.00011623
0.000121605
0.000112499
9.01924e-05
0.000116917
8.92705e-05
4.98859e-05
4.98766e-05
8.95244e-05
8.92645e-05
4.98821e-05
4.98719e-05
8.95214e-05
0.000113349
0.000122741
9.06312e-05
0.000118613
9.02805e-05
0.000117794
0.000114073
0.000113333
0.000122538
9.06297e-05
0.000118544
9.02234e-05
0.000117702
0.000114066
7.19878e-05
7.19959e-05
0.000123
7.2191e-05
7.21964e-05
2.35674e-05
2.3571e-05
2.3573e-05
2.35702e-05
0.000123531
7.2378e-05
7.23892e-05
7.22091e-05
7.22163e-05
2.35739e-05
2.35711e-05
0.000113204
8.98352e-05
0.000116305
0.000121818
0.000112503
9.02421e-05
0.000117014
8.92141e-05
4.98532e-05
8.89508e-05
4.98654e-05
0.000113181
0.000116339
8.97862e-05
0.000121579
0.000112502
0.000116948
9.01555e-05
8.92628e-05
4.9881e-05
4.98716e-05
8.95188e-05
0.000113333
0.000122739
9.0622e-05
0.000118582
9.02705e-05
0.000117782
0.000114058
8.9244e-05
4.98788e-05
4.98676e-05
8.95135e-05
0.000113312
0.000122405
0.000118447
9.0605e-05
0.000117652
9.01849e-05
0.000114041
8.92225e-05
4.98595e-05
8.89746e-05
4.98715e-05
0.000113225
0.000116483
8.9892e-05
0.00012193
0.000112543
0.000117143
9.02088e-05
8.92228e-05
4.98568e-05
8.89802e-05
4.98661e-05
0.000113343
0.000122556
9.06384e-05
0.000118519
9.02326e-05
0.00011773
0.000114043
8.92612e-05
4.98837e-05
4.98734e-05
8.95142e-05
0.000113352
0.000122603
0.000118471
9.05424e-05
0.000117796
9.02234e-05
0.000114027
8.92604e-05
4.98793e-05
4.9868e-05
8.9506e-05
7.19751e-05
7.19882e-05
0.000122948
7.21607e-05
7.21719e-05
2.35664e-05
2.35703e-05
2.35718e-05
2.35687e-05
0.000123412
7.23705e-05
7.2382e-05
7.21797e-05
7.21907e-05
2.35737e-05
2.35705e-05
0.000113216
0.000116531
8.98881e-05
0.000121936
0.000112538
0.000117166
9.02041e-05
8.92164e-05
4.98574e-05
8.8962e-05
4.98696e-05
8.92182e-05
4.98553e-05
8.89749e-05
4.98646e-05
0.000113317
0.000122425
0.000118423
9.06158e-05
0.000117684
9.0198e-05
0.000114025
0.000113334
0.000122602
0.000118443
9.05368e-05
0.000117789
9.02188e-05
0.000114015
8.92438e-05
4.9883e-05
4.98717e-05
8.95089e-05
8.92542e-05
4.98779e-05
4.98665e-05
8.95021e-05
2.35663e-05
2.35689e-05
2.35654e-05
2.35679e-05
0.000123713
7.23229e-05
7.23174e-05
7.21775e-05
7.21723e-05
2.35727e-05
2.3569e-05
2.35718e-05
2.35681e-05
2.35748e-05
2.35779e-05
2.35723e-05
2.35753e-05
7.23835e-05
7.23765e-05
0.000125968
7.2499e-05
7.24925e-05
2.35818e-05
2.3578e-05
2.35792e-05
2.35755e-05
0.000126365
7.26504e-05
7.26435e-05
7.2509e-05
7.25025e-05
8.97911e-05
4.98837e-05
8.95599e-05
4.98928e-05
0.000114867
9.0651e-05
0.00011941
0.000125167
0.000114201
9.09502e-05
0.000120157
0.000114871
9.06554e-05
0.000119386
0.000125246
0.000114195
9.09673e-05
0.000120177
8.98267e-05
4.9911e-05
4.98994e-05
9.00527e-05
8.98266e-05
4.99054e-05
4.98945e-05
9.00496e-05
0.000114983
0.000125858
9.12832e-05
0.000121534
9.09661e-05
0.000120857
0.000115604
0.000114987
0.000125968
9.12654e-05
0.000121577
9.0981e-05
0.000120901
0.000115604
7.23892e-05
7.24026e-05
0.000126061
7.25014e-05
7.25143e-05
2.35739e-05
2.35765e-05
2.35793e-05
2.35757e-05
0.000126493
7.26272e-05
7.26416e-05
7.25073e-05
7.25225e-05
2.35802e-05
2.35766e-05
0.000114862
9.06421e-05
0.000119371
0.000125165
0.000114185
9.09428e-05
0.000120126
8.9791e-05
4.98805e-05
8.95415e-05
4.989e-05
0.000114864
0.00011928
9.06343e-05
0.000125172
0.000114174
0.000120105
9.09802e-05
8.98248e-05
4.9906e-05
4.98945e-05
9.00533e-05
0.00011498
0.00012586
9.12763e-05
0.00012154
9.09592e-05
0.000120843
0.000115611
8.98161e-05
4.9902e-05
4.98917e-05
9.00521e-05
0.000114985
0.000125984
0.00012161
9.12901e-05
0.000120882
9.09984e-05
0.000115616
8.97948e-05
4.98853e-05
8.95528e-05
4.98944e-05
0.000114842
0.000119199
9.05642e-05
0.000124929
0.000114155
0.000119975
9.09517e-05
8.97908e-05
4.98815e-05
8.95446e-05
4.98932e-05
0.000114983
0.000125981
9.12817e-05
0.000121592
9.09952e-05
0.000120872
0.000115628
8.98311e-05
4.99071e-05
4.98962e-05
9.00599e-05
0.000114969
0.000125824
0.000121581
9.13402e-05
0.000120779
9.09801e-05
0.000115636
8.98288e-05
4.99055e-05
4.98951e-05
9.00637e-05
7.23862e-05
7.23978e-05
0.000126004
7.25188e-05
7.2532e-05
2.35737e-05
2.35764e-05
2.35779e-05
2.35746e-05
0.000126496
7.26447e-05
7.26576e-05
7.25286e-05
7.25418e-05
2.35797e-05
2.35765e-05
0.000114839
0.000119162
9.05589e-05
0.000124927
0.000114138
0.000119947
9.09482e-05
8.97961e-05
4.98847e-05
8.95366e-05
4.98943e-05
8.97911e-05
4.988e-05
8.95395e-05
4.98918e-05
0.000114977
0.000125998
0.000121626
9.13075e-05
0.000120853
9.10131e-05
0.000115645
0.000114964
0.000125827
0.000121591
9.13379e-05
0.000120769
9.09772e-05
0.000115645
8.98222e-05
4.99063e-05
4.9896e-05
9.00656e-05
8.98281e-05
4.9904e-05
4.98937e-05
9.00664e-05
2.3573e-05
2.35765e-05
2.3572e-05
2.35756e-05
0.000126253
7.26841e-05
7.26794e-05
7.25371e-05
7.25332e-05
2.35797e-05
2.35766e-05
2.35787e-05
2.35757e-05
2.35821e-05
2.35859e-05
2.35795e-05
2.35833e-05
7.26634e-05
7.26564e-05
0.000128339
7.28235e-05
7.28156e-05
2.35898e-05
2.35861e-05
2.35872e-05
2.35835e-05
0.000128814
7.29856e-05
7.29776e-05
7.28371e-05
7.28291e-05
9.03227e-05
4.99076e-05
9.00865e-05
4.992e-05
0.000116362
9.13036e-05
0.000122226
0.000128087
0.000115719
9.16561e-05
0.000122954
0.000116355
9.1281e-05