/*--------------------------------*- C++ -*----------------------------------*\
| =========                 |                                                 |
| \\      /  F ield         | OpenFOAM: The Open Source CFD Toolbox           |
|  \\    /   O peration     | Version:  v2006                                 |
|   \\  /    A nd           | Website:  www.openfoam.com                      |
|    \\/     M anipulation  |                                                 |
\*---------------------------------------------------------------------------*/
FoamFile
{
    version     2.0;
    format      ascii;
    class       surfaceScalarField;
    location    "375";
    object      phi;
}
// * * * * * * * * * * * * * * * * * * * * * * * * * * * * * * * * * * * * * //

dimensions      [0 3 -1 0 0 0 0];
oriented        oriented;


internalField   nonuniform List<scalar> 
41142
(
1.35263e-06
1.31271e-06
-2.85289e-07
-2.95644e-07
0.000271184
1.85715e-07
-3.1125e-07
1.24206e-06
2.09119e-07
8.22441e-07
-3.09841e-07
-9.76013e-07
1.59162e-07
0.00114495
1.98415e-07
-3.05991e-07
1.19888e-06
2.00651e-07
8.25316e-07
-3.0968e-07
-9.75653e-07
1.59511e-07
0.00114598
-3.23602e-09
4.62736e-08
-1.0223e-08
0.000192407
5.71222e-10
7.27611e-08
0.000229252
-2.274e-08
1.2875e-09
-3.2062e-09
4.62826e-08
-1.02955e-08
0.000192388
7.04956e-08
6.02939e-10
0.000229249
1.15813e-09
-2.29066e-08
1.47621e-08
9.71449e-05
1.48015e-08
9.71342e-05
1.65302e-08
4.91221e-08
-6.82744e-09
0.000277076
1.41766e-08
5.12338e-08
-6.24103e-09
0.000277001
7.02686e-08
2.01848e-09
0.000229215
-2.27452e-08
1.49997e-07
8.20829e-09
0.000245332
-5.19888e-08
9.01322e-07
-9.21622e-07
-1.09567e-06
7.15898e-07
0.00116373
3.12647e-10
0.00025169
-1.10781e-09
2.53764e-07
9.01062e-07
-9.21529e-07
-1.09525e-06
7.13103e-07
0.00116371
-2.88128e-09
0.000251666
2.5113e-07
1.47566e-07
8.38359e-09
0.000245297
2.67574e-09
9.01027e-07
-9.21618e-07
-1.0955e-06
7.12917e-07
0.00116362
2.65401e-09
0.000251681
-2.70728e-09
2.48706e-07
7.30148e-08
0.00022921
-2.49297e-08
1.90138e-09
9.03567e-07
-9.21812e-07
-1.09854e-06
7.12747e-07
0.00116362
0.000251656
2.51422e-07
-8.80125e-10
-7.85963e-05
-9.94052e-09
-1.17375e-09
7.86075e-05
-1.92464e-08
0.000262
-1.81714e-09
5.83136e-08
-6.4915e-09
5.82255e-09
-1.03942e-08
0.000192418
-1.45815e-09
-4.15805e-09
-2.52401e-08
0.000262013
-0.000142379
-1.03657e-09
-7.40214e-09
0.000142387
7.8135e-09
2.12127e-09
5.09439e-10
-1.99566e-08
0.000229262
2.40814e-09
0.000169998
3.36833e-10
-2.30875e-08
0.000222939
7.33464e-08
2.83792e-10
0.000170004
-2.41512e-08
0.000222954
-7.85959e-05
-9.84526e-09
-1.26987e-09
7.8607e-05
-1.93159e-08
0.000261996
-1.84603e-09
5.58682e-08
-6.63696e-09
5.91125e-09
-1.03296e-08
0.000192399
-1.52673e-09
-4.24297e-09
-2.29219e-08
0.000262007
-0.000142377
-7.22824e-09
-1.4956e-09
0.000142385
2.64996e-09
7.65401e-09
-1.75151e-11
-1.7207e-08
0.000229256
-2.32567e-08
0.000222938
6.85774e-08
2.62895e-09
0.000169994
-3.71467e-11
-1.89821e-08
0.000222948
-1.80765e-10
0.00017
-5.43602e-09
9.71562e-05
-5.38033e-09
9.71455e-05
-0.000221612
5.98418e-09
-1.67441e-09
3.30504e-09
-1.99872e-08
0.000221624
-3.98837e-08
0.000251249
1.08896e-07
5.86594e-08
2.84752e-08
0.000182005
-5.85009e-09
8.56278e-09
-8.60922e-09
-1.15534e-08
0.000277082
-2.27783e-08
5.98701e-08
5.16887e-09
0.000182014
-3.68184e-08
-5.53353e-09
0.000251281
-0.000221542
7.88385e-09
-1.64132e-09
1.37684e-09
-2.23501e-08
0.000221556
-3.98496e-08
0.000251139
1.08654e-07
5.6263e-08
3.04021e-08
0.000181943
-5.77153e-09
8.16381e-09
-1.09297e-08
-9.17827e-09
0.000277007
-2.0685e-08
6.203e-08
5.23646e-09
0.000181954
-3.67345e-08
-6.62068e-10
0.000251164
-0.000212785
2.85915e-09
2.75552e-09
0.000212784
8.82615e-09
7.99997e-05
8.87411e-09
7.9982e-05
8.00077e-05
7.999e-05
-7.85506e-05
-9.46111e-09
-1.66641e-09
7.85618e-05
-1.92059e-08
0.00026188
-1.23874e-09
5.61979e-08
-8.4747e-10
-5.50644e-09
-2.24139e-08
0.000261891
-1.66142e-09
-0.000142309
-7.25588e-09
0.000142317
-2.31949e-08
0.000222851
6.85799e-08
7.81658e-09
3.24587e-09
-1.74484e-08
0.000229222
0.000169964
2.93915e-09
0.00016997
-1.89686e-08
0.000222861
-7.85515e-05
-1.01714e-08
-7.99979e-10
7.85624e-05
-1.36147e-09
-3.9342e-09
-2.50101e-08
0.000261885
-8.86879e-10
-0.000142304
-9.21676e-09
0.000142313
9.62989e-09
2.17939e-09
-1.95183e-08
0.000229218
0.000169957
2.48096e-09
-2.52606e-08
0.000222841
7.3776e-08
0.000169965
-2.36947e-08
0.000222854
-0.000243611
-8.61955e-08
-8.12966e-08
0.000243736
-1.49722e-07
0.000262655
-1.45106e-07
0.000263068
2.00501e-07
2.11081e-07
0.000273213
0.000262942
0.000263362
-0.000266131
1.463e-07
1.61431e-08
0.000266809
2.29825e-07
0.00025124
7.04303e-09
3.78984e-08
-6.46467e-10
0.000251357
1.4916e-07
-0.000266187
-1.64564e-08
1.61848e-08
0.00026686
2.6862e-08
0.00026174
0.000251324
2.32034e-07
5.83909e-09
-4.87485e-09
-6.79437e-08
0.000245383
-1.47728e-09
0.000251445
1.90618e-08
0.000261809
1.53151e-07
-0.000268234
8.30761e-09
0.00026899
-4.06845e-10
-1.33234e-07
1.86752e-10
0.000251804
0.000250706
2.64651e-07
-5.18781e-09
0.000268743
-4.70049e-09
0.000250833
1.77204e-09
0.000269332
-0.000268177
1.5057e-07
1.07414e-08
0.000268933
2.61988e-07
0.000250628
-6.68779e-10
-1.30722e-07
0.00025178
-1.36372e-08
0.000268736
0.000250758
0.000269331
1.46988e-07
-0.000266197
-1.16667e-08
6.03818e-09
0.000266881
3.20798e-08
0.000261723
0.000251309
2.29387e-07
6.11984e-09
-4.79943e-09
-6.56518e-08
0.000245348
1.14487e-09
0.000251427
3.25505e-08
0.000261804
1.5049e-07
-0.000268226
5.93986e-09
0.000268977
-2.8909e-10
-1.27923e-07
4.1589e-10
0.000251791
0.000250694
2.62139e-07
-1.04704e-08
0.000268739
7.94206e-09
0.000250826
-3.81893e-09
0.000269334
1.4624e-07
1.72792e-08
0.000266788
-4.53951e-10
0.000251332
-0.000268167
8.4288e-09
1.50183e-07
0.000268929
-1.30296e-07
3.85895e-10
0.000251766
-7.51223e-09
0.000268727
2.62412e-07
0.000250618
0.000269314
0.000250744
7.8487e-05
-1.223e-09
-7.84992e-05
1.34216e-08
-7.82249e-10
-1.36716e-08
-2.09095e-09
0.000142089
-0.000142102
1.35968e-08
-0.000169654
6.68947e-10
-6.82435e-11
-1.54163e-08
-7.07199e-11
-0.000169669
1.22983e-08
-1.42563e-08
0.000169703
9.59765e-11
5.63313e-10
-0.000169687
-1.72565e-08
7.85296e-05
-9.57761e-10
1.54165e-08
-7.85441e-05
-8.64419e-10
-1.58571e-08
-1.95361e-09
0.000142157
-0.000142174
1.75361e-08
-0.000169687
5.86054e-10
-1.74479e-08
1.42947e-08
-1.82518e-08
-7.27485e-10
8.22756e-10
-0.000142088
-1.40799e-08
-0.000169654
-1.5227e-08
-7.84849e-05
-1.35607e-08
1.25757e-06
2.25303e-07
-0.00114005
1.98138e-07
2.34179e-07
-1.28633e-06
-2.59997e-07
8.58689e-07
-9.07474e-07
-2.4838e-07
7.48428e-08
-1.22022e-06
2.28717e-07
2.26373e-07
-0.000269515
2.26028e-07
-0.00114056
8.53449e-07
7.36283e-08
2.26014e-07
-1.24882e-06
-2.51652e-07
1.98253e-07
-9.01999e-07
-2.48274e-07
1.24905e-06
2.26685e-07
-0.00113966
7.53196e-08
1.98081e-07
2.31208e-07
-1.27807e-06
-2.57277e-07
8.55862e-07
-9.04762e-07
-2.48381e-07
1.20914e-06
2.25661e-07
7.52733e-08
1.98267e-07
2.25956e-07
-1.23816e-06
-2.51845e-07
8.53266e-07
-9.01844e-07
-2.48309e-07
-0.00114066
2.31282e-07
2.2345e-07
-0.000269496
1.95761e-07
1.97863e-07
-0.00119087
1.90495e-07
1.98456e-07
-0.00119085
3.29646e-09
-0.000192026
-1.48907e-09
-2.49357e-08
3.28829e-08
-5.0044e-09
-5.515e-09
0.000192025
-0.000192048
-1.28242e-06
2.31853e-07
8.57932e-07
-2.49879e-07
-9.09163e-07
1.97264e-07
1.25713e-06
-2.5848e-07
2.33614e-07
-0.0011402
7.2858e-08
1.93213e-08
8.66436e-11
8.45061e-08
-0.000260306
-1.03397e-08
3.76008e-09
1.08265e-07
0.000244346
-0.000244414
-1.4061e-08
-9.70825e-05
9.22794e-09
9.70793e-05
-9.70935e-05
1.25026e-06
0.000269553
-2.37312e-07
-2.39791e-07
-0.000271608
-2.80508e-08
-0.000276321
4.73766e-09
-1.01771e-08
1.19432e-08
-2.59485e-08
-0.000276446
5.2615e-09
-1.02008e-08
-7.90377e-09
2.97577e-08
0.000276324
-0.000276347
-7.00827e-09
1.04967e-08
-8.4759e-09
2.74907e-08
0.00027645
-0.000276472
-3.25312e-09
-9.70954e-05
5.06705e-09
9.70923e-05
-9.71044e-05
3.71041e-08
0.000250285
-0.000250163
-1.58344e-07
-1.17064e-10
-1.1788e-09
0.000228352
-0.000228332
1.50537e-08
2.22193e-09
-1.95414e-10
-4.37802e-08
2.25855e-09
7.32511e-10
1.89716e-07
0.000250164
-0.000250313
7.66026e-08
2.21401e-07
1.21988e-06
-2.52786e-07
2.25558e-07
8.52669e-07
-2.49797e-07
-9.03712e-07
1.97363e-07
-0.00114069
-3.41386e-09
-1.48561e-10
1.68392e-07
-0.000264567
-0.001162
9.33906e-07
-3.616e-09
3.27311e-07
7.54444e-07
-1.0065e-06
-8.32092e-07
-3.06469e-08
3.86155e-09
1.10585e-07
0.000244441
-0.000244514
7.0306e-09
3.16511e-07
9.38465e-07
-8.34134e-07
-1.00848e-06
7.58984e-07
-0.0011621
3.44141e-09
1.77161e-07
-0.000266535
3.52958e-10
1.57688e-09
-1.25271e-08
0.000228358
-0.000228391
-0.000192073
-1.40779e-09
-2.28381e-08
-5.34945e-09
0.000192072
-0.000192093
-7.87698e-12
-0.000228345
1.98827e-09
1.54008e-08
-3.80298e-08
-4.37821e-08
1.92311e-07
1.18607e-10
0.000250139
7.76077e-08
2.04108e-07
8.5514e-07
-2.44473e-07
-9.01022e-07
1.97244e-07
-0.00113979
-1.27941e-06
1.24876e-06
-2.5833e-07
2.30773e-07
-0.00116197
9.39408e-07
3.27516e-07
7.57209e-07
-1.0093e-06
-8.32168e-07
2.17638e-08
1.92059e-10
8.22021e-08
-0.00026034
2.98799e-07
9.38488e-07
-8.34179e-07
-1.00847e-06
7.56209e-07
-0.00116204
-3.06592e-08
3.87389e-09
1.08165e-07
0.000244377
-0.000244446
-1.28097e-08
-7.11791e-09
4.33862e-09
1.79624e-07
-0.000266476
-1.25366e-08
1.67974e-09
0.00022832
3.37272e-09
-0.000192023
-1.61904e-09
-2.28019e-08
-5.53736e-09
0.000192023
-0.000192043
-4.93535e-09
-0.000228307
1.53917e-08
2.32136e-09
-4.04619e-08
9.36369e-07
3.20528e-07
7.54364e-07
-1.00635e-06
-8.29342e-07
9.55777e-11
-0.00116172
1.94346e-08
1.08272e-10
8.70078e-08
-0.000260323
1.09784e-08
-2.265e-10
1.7704e-07
-0.000266467
3.41413e-09
-0.000192017
-1.63571e-09
-2.28501e-08
-0.000228303
2.35945e-09
-3.80239e-08
-3.39448e-10
1.18691e-08
-2.58938e-08
-0.000276408
4.81441e-09
-1.27838e-08
1.18186e-08
-2.80997e-08
-0.000276326
4.95374e-09
-1.04841e-08
-9.70845e-05
-9.7079e-05
1.33617e-08
7.84865e-05
-7.84987e-05
-1.14645e-09
-5.35659e-09
-0.000192048
-5.04317e-09
3.24713e-08
-0.00026128
1.37197e-08
-3.62612e-08
-3.80908e-09
-0.000261307
3.73881e-08
-1.97619e-09
-7.21161e-10
-7.84843e-05
-1.35954e-08
-7.61823e-10
-1.35447e-08
0.000261283
3.78673e-08
-0.00026131
-2.05182e-09
-1.62225e-09
3.33412e-09
-2.4609e-08
-7.84967e-05
-1.19734e-09
-3.58968e-08
-3.87552e-09
-9.70966e-05
9.03701e-09
-1.39141e-08
-0.000212355
6.1374e-09
6.16502e-09
-1.24278e-08
-1.03129e-08
0.000212365
4.76854e-09
7.98908e-05
5.14113e-09
-7.99007e-05
4.76164e-09
7.99036e-05
5.19314e-09
-7.99135e-05
1.19226e-08
9.81327e-09
-0.000212367
-4.83353e-09
7.99018e-05
-4.8604e-09
7.99146e-05
2.35709e-08
-1.56261e-08
0.000220853
-0.000220883
-1.16789e-08
3.37302e-08
-0.000250023
1.51949e-08
-6.54719e-08
2.9259e-08
-7.90855e-09
-0.000276343
1.02794e-08
-0.000181645
-1.91855e-08
4.8358e-09
-0.000250081
7.1269e-08
3.89161e-08
-0.000181663
-5.11211e-09
1.2627e-08
-3.92462e-08
-1.37259e-08
2.36093e-08
0.000220926
-0.000220962
-9.5858e-09
3.59314e-08
-0.000250196
1.52077e-08
-6.55662e-08
-1.68208e-08
-8.49121e-09
2.69876e-08
-0.000276468
-6.82678e-09
1.04626e-08
-0.0001817
-1.73493e-08
4.87721e-09
-0.000181717
-5.16622e-09
-0.000250253
7.1269e-08
3.64303e-08
1.05031e-08
-4.15007e-08
-1.49011e-08
-0.000220861
1.89554e-08
-3.89145e-08
1.59416e-08
0.000181644
-0.000181663
0.000250039
-2.39358e-08
3.93914e-08
7.20317e-08
-0.000250097
-2.76742e-08
4.77235e-09
-1.01553e-08
-1.89276e-08
-6.49385e-08
3.42292e-08
-0.000220891
-0.000220934
1.71094e-08
-1.49398e-08
-4.11418e-08
1.40466e-08
0.0001817
-0.000181717
-2.39351e-08
0.000250212
7.20757e-08
3.6834e-08
-0.000250269
5.28192e-09
-2.55621e-08
1.18075e-08
-1.01896e-08
3.64611e-08
-0.00022097
-6.49868e-08
-1.64898e-08
-4.66154e-09
-4.65593e-09
0.000212353
-7.9892e-05
-6.22187e-09
-7.99048e-05
-6.24001e-09
-9.71074e-05
5.09955e-09
-3.27951e-09
-2.13383e-09
1.40599e-08
0.000142091
-0.000142104
1.25364e-09
-1.27745e-08
1.62754e-09
4.43575e-08
9.24705e-12
-0.000228365
-0.000169656
7.40016e-10
0.000169671
-7.8331e-11
-0.000222126
1.38921e-08
0.000222148
-3.71068e-08
3.90162e-09
-4.4332e-11
-0.000169671
4.47283e-08
-0.000222157
2.01018e-09
0.000142105
8.29972e-10
-0.000142158
-1.60379e-08
-5.44801e-10
8.41436e-10
0.000142173
-1.58242e-08
0.000222211
1.89585e-09
4.41134e-08
-0.00022224
2.00205e-09
0.000169688
1.02317e-10
-0.000169702
2.26494e-09
1.52216e-08
0.000228377
1.28045e-10
-3.75665e-08
9.32233e-10
-0.000142172
3.72679e-09
0.000222231
-3.74896e-08
0.000169702
9.61415e-11
1.53933e-08
7.853e-05
-7.85445e-05
-8.9897e-10
-5.19932e-09
-0.000192093
3.02399e-08
-0.000261412
1.58831e-08
-3.67634e-09
-3.62514e-08
-0.000261437
-1.81944e-09
3.72471e-08
-8.22797e-10
-7.85279e-05
-1.57788e-08
-1.55623e-08
0.000261415
3.7716e-08
-0.00026144
-1.52289e-09
-2.25217e-08
-7.85425e-05
-3.59117e-08
1.55873e-08
-1.95842e-09
0.000142159
1.27473e-09
-1.22848e-08
1.54399e-10
4.31594e-08
-0.000222203
1.62153e-08
-3.79497e-08
-0.000169688
5.16876e-10
8.35262e-11
4.35337e-08
9.70239e-11
-0.000142092
-7.33956e-10
-1.40473e-08
8.19659e-10
0.000142106
2.13351e-09
0.000169656
-1.38431e-08
0.000222117
2.03666e-09
4.41935e-08
1.52194e-08
2.29188e-09
0.000228342
-4.00112e-08
1.24674e-09
0.000169671
3.93124e-09
0.000222142
-3.99761e-08
1.34256e-08
7.84889e-05
-7.85011e-05
-1.22726e-09
-5.44063e-09
-0.000192043
-4.95363e-09
3.02885e-08
-0.000261289
1.36491e-08
-3.93176e-09
-3.62082e-08
-0.000261317
-2.05894e-09
3.73963e-08
-7.92637e-10
-7.84867e-05
-1.35512e-08
-1.35681e-08
0.000261292
3.78289e-08
-0.00026132
-1.72755e-09
-2.25203e-08
3.41534e-09
-7.8499e-05
-3.58945e-08
-2.11352e-09
1.362e-08
0.000142093
-1.23039e-08
1.70874e-09
4.56244e-08
-0.000169657
7.02995e-10
-0.000222109
1.42095e-08
-4.03922e-08
4.60682e-08
-5.45435e-09
-4.92026e-09
3.02715e-08
-0.000192037
-0.000261283
-3.97565e-09
-3.62201e-08
-2.09633e-09
3.74217e-08
-0.000261311
1.77076e-09
4.31867e-08
-1.4523e-10
-0.000228336
-0.000222104
-3.80024e-08
4.36114e-08
-0.000222134
2.35574e-08
-1.55879e-08
0.000220918
-1.17673e-08
3.36417e-08
-0.000220948
-0.00025015
1.51634e-08
-6.3054e-08
2.70915e-08
-7.8651e-09
-6.94032e-09
1.27287e-08
-0.000276433
-0.000181698
-1.92363e-08
4.83197e-09
6.8903e-08
4.15309e-08
-0.00025021
-5.07246e-09
-0.000181716
1.26081e-08
-3.92033e-08
2.34164e-08
-1.56717e-08
0.000220852
-1.16625e-08
3.38036e-08
-0.000220882
-0.000250037
1.53019e-08
-6.29438e-08
2.93148e-08
-7.76129e-09
-6.95145e-09
1.02128e-08
-0.00027635
-0.000181641
-1.92065e-08
4.93815e-09
6.88058e-08
3.88802e-08
-0.000250092
-5.04059e-09
-0.00018166
1.27364e-08
-3.92038e-08
-4.59854e-09
-4.7257e-09
0.000212348
-0.000212362
-7.99057e-05
-6.18995e-09
-7.98896e-05
-6.17159e-09
-7.99154e-05
-7.98993e-05
-9.70964e-05
-9.70909e-05
1.02678e-07
-0.0002613
1.02847e-07
-0.00026165
-0.000242548
1.05901e-07
1.0568e-07
-0.00024269
-2.36284e-07
-2.38675e-07
-0.000271576
-0.000261969
-0.000261613
1.02734e-07
-0.000261662
-1.0251e-07
-0.000242533
-0.000261243
1.05798e-07
1.05808e-07
-0.000242677
-2.33652e-07
-2.41474e-07
-0.000271537
-0.000261559
-0.00026198
2.54977e-07
-0.0012155
2.39791e-09
-2.52225e-07
-0.00123712
1.34393e-08
-1.18862e-08
-0.00121497
-3.14789e-07
-1.12192e-08
1.90122e-07
1.99992e-07
-0.00119081
2.55579e-07
-3.33418e-07
-0.0012147
-4.5137e-09
2.21952e-07
8.27275e-09
-0.00121522
1.34125e-08
-0.00123665
-4.83888e-09
2.54718e-07
-0.0012148
-2.40751e-07
-0.00123634
-1.26391e-09
-0.00121489
1.84394e-09
1.99289e-07
3.62005e-08
-2.3125e-07
-0.00119065
8.38767e-08
-0.00121438
2.49158e-07
-3.32894e-07
-0.00121477
1.73298e-09
-0.001236
-9.72196e-10
1.63336e-07
-0.000264476
4.24825e-09
-7.72385e-09
-0.000244334
-0.000250036
-3.06957e-09
-1.80816e-07
-1.53381e-08
-0.000265198
1.07783e-08
3.72357e-09
1.0731e-07
-0.000244403
-0.000250177
9.68409e-10
-0.000260424
-0.000264507
1.62838e-07
-3.78465e-10
4.6078e-09
1.81894e-07
0.000250054
-0.000250196
1.01721e-09
1.57265e-08
0.00026033
-0.000260448
-7.71254e-09
-8.40192e-08
-0.00026523
1.11477e-08
-3.04303e-09
-1.02501e-07
-0.000242565
-1.02393e-07
2.25985e-07
2.28263e-07
0.000261677
-1.06766e-07
-0.000261994
-1.06493e-07
0.000261327
-0.000261641
-0.000242708
3.87769e-09
-2.10619e-07
0.000266544
1.01316e-06
-0.000267341
-8.85693e-09
1.93609e-07
-1.75177e-10
-1.68502e-10
-0.000250312
-0.000266989
-6.88658e-09
0.000267592
-7.55215e-07
2.98977e-10
-0.000249285
-1.78491e-07
0.000249424
2.83716e-09
8.33334e-07
-3.28924e-09
-0.000267621
-0.00024945
-1.27986e-09
0.000267303
-9.37597e-07
-7.67315e-09
-0.000266566
1.76498e-07
3.40261e-10
3.19718e-09
0.000267324
2.06871e-07
0.000249337
-1.14732e-09
-0.000249497
-3.84989e-09
0.000266975
7.78968e-09
-0.000267623
2.19285e-09
-1.59022e-07
0.000250283
-1.40564e-10
-1.89251e-08
-0.000267352
2.92391e-09
0.000249475
0.000267579
-3.47326e-09
8.70264e-08
-0.000260413
7.59436e-09
-0.000250138
-2.90427e-09
-0.000244429
-1.54045e-08
-1.85695e-07
-0.000265286
1.86873e-08
1.09621e-07
3.87316e-09
-0.000244502
-0.000260531
-0.000250284
1.17096e-09
-0.000264598
-3.64575e-10
1.67915e-07
1.86774e-07
0.000250157
-0.000250303
1.56861e-08
0.000260437
-0.000260555
-8.6534e-08
-7.61972e-09
-0.000265318
1.59646e-07
-0.000266941
-6.53243e-09
4.12319e-10
-0.000250136
-1.56332e-09
-0.000249313
-2.05581e-07
6.98348e-09
-9.95991e-10
1.90964e-07
3.69175e-10
3.72826e-09
-0.000266509
3.7329e-09
1.79046e-07
-7.4144e-09
0.000267273
-3.53765e-09
0.000266962
2.09369e-07
0.00024926
-1.18002e-09
-1.61532e-07
1.20763e-09
0.000250259
-8.61407e-09
0.000267557
2.92997e-09
0.000249397
1.65761e-07
-0.000264483
-7.78119e-09
-0.000244368
-0.000250049
-3.04656e-09
-1.83287e-07
-1.5491e-08
-0.000265197
8.3419e-09
3.75515e-09
1.04894e-07
-0.000244434
-0.000250192
1.05278e-09
-0.000260457
-0.000264514
1.65319e-07
-4.95148e-10
1.8432e-07
0.000250067
-0.000250211
1.58623e-08
0.000260366
-4.2007e-08
-0.000260476
-7.70378e-09
-8.41337e-08
1.26989e-08
-0.000265223
2.13537e-08
1.62156e-07
-0.000266926
1.06367e-09
-0.000250111
-0.000249236
3.90959e-09
-2.08142e-07
1.93554e-07
-4.96545e-11
1.65736e-07
-0.000264485
-7.89592e-09
-0.000244331
-0.000250035
-5.57016e-09
-1.8322e-07
-1.53975e-08
2.64997e-08
-0.000265215
3.62872e-09
1.09631e-07
-0.000244404
3.37854e-09
-0.00025018
-0.000260438
1.59623e-07
-0.000266921
-4.15203e-09
2.16583e-09
-0.000250102
-9.36036e-10
-0.000249226
7.33192e-09
-2.05525e-07
-0.000267248
1.90998e-07
-6.25356e-10
1.7018e-10
-0.000250249
3.30796e-09
-0.000267555
-0.000249385
-1.24316e-06
-1.20006e-06
-0.000271008
2.00113e-07
2.08005e-07
0.000273043
4.43059e-07
-0.00114471
1.92165e-07
-1.34976e-06
2.11544e-07
-3.09051e-07
-9.68906e-07
1.61443e-07
-3.04602e-07
8.24761e-07
0.00114457
4.34691e-07
-0.00114572
1.94258e-07
-1.30729e-06
2.03322e-07
-3.0103e-07
-9.7141e-07
1.61609e-07
-3.04534e-07
8.24822e-07
0.00114559
1.23796e-06
4.37485e-07
-0.00114474
1.87975e-07
-1.34372e-06
2.08274e-07
-3.06328e-07
-9.70399e-07
1.65803e-07
-3.05568e-07
8.28606e-07
0.0011446
-1.19735e-06
-0.000270995
2.02612e-07
2.07711e-07
0.00027302
4.26475e-07
-0.00114522
-1.30889e-06
2.05432e-07
-3.0639e-07
-9.67469e-07
1.63301e-07
-3.05442e-07
8.23315e-07
0.00114509
1.99396e-07
-5.20904e-09
-6.07699e-09
-9.71293e-05
9.71406e-05
-1.30754e-08
-0.000276957
-6.29044e-09
1.10828e-08
0.00027696
-1.24156e-06
-0.000271107
1.93637e-07
2.03552e-07
-1.1963e-06
0.000273148
1.18964e-10
-2.08723e-08
0.000229221
-0.000229211
8.17093e-09
2.45451e-09
6.21408e-09
-1.05101e-08
0.000192398
-7.21951e-09
-0.000192386
-1.80738e-08
0.000229215
-0.000229207
3.12122e-09
8.03912e-09
-9.72624e-10
6.3668e-09
-1.03887e-08
0.000192378
-7.50701e-09
-0.000192366
-0.00118579
2.94277e-07
3.01344e-07
0.00118607
-0.0011854
2.82642e-07
2.93453e-07
0.00118569
-5.35658e-09
9.71502e-05
-9.71387e-05
-5.24536e-09
9.71395e-05
-9.71279e-05
0.000273156
-1.24197e-06
-1.19849e-06
-0.000271127
2.00437e-07
2.11191e-07
0.000277046
-1.01678e-08
8.95985e-09
-0.000277041
-8.74408e-09
0.000276971
-1.03321e-08
8.65635e-09
-0.000276964
-1.10243e-08
-5.85347e-09
-5.76107e-09
-9.71275e-05
9.71392e-05
1.47414e-08
2.49371e-09
9.7133e-05
-5.84041e-09
-5.83368e-09
-9.71169e-05
9.71285e-05
1.48862e-08
2.36033e-09
9.71223e-05
1.3521e-06
1.3099e-06
0.000271065
-2.83137e-07
-2.8807e-07
-1.08696e-08
-9.49896e-09
-0.000276973
8.01559e-09
0.00027698
-1.13156e-08
-1.16444e-08
-0.000276896
7.80164e-09
0.000276905
1.21212e-08
-6.04212e-09
4.83046e-08
0.000277006
1.18978e-08
-5.27305e-09
5.05812e-08
0.000276929
-1.02325e-08
-0.000192336
-7.32961e-09
0.000192348
-1.83455e-08
0.000229181
3.12182e-09
-0.000229174
8.15049e-09
-9.38398e-10
0.000251743
-0.000251627
-1.59239e-09
-1.3448e-07
1.89727e-07
0.00114483
4.4258e-07
-1.35384e-06
2.09354e-07
-3.12918e-07
-9.73573e-07
1.59864e-07
-3.08016e-07
8.23181e-07
0.000245337
-5.96775e-09
-0.000245286
-6.57591e-08
-3.23638e-08
0.0011638
5.55487e-07
-1.09525e-06
7.14834e-07
-9.21091e-07
9.00124e-07
-0.000245211
-6.30167e-08
-7.19642e-09
0.000245258
2.47251e-07
-1.3521e-06
2.15063e-07
-3.24534e-07
-9.89659e-07
1.56822e-07
-3.51553e-07
8.25692e-07
0.00114488
4.51071e-07
0.000251716
-9.28868e-11
-0.0002516
-1.34506e-07
-1.09783e-06
7.14828e-07
-9.18206e-07
9.02584e-07
0.00116375
5.68593e-07
1.02529e-10
7.04391e-08
-2.18622e-08
2.30336e-09
0.00022917
-1.09423e-08
-0.000192347
-7.10745e-09
0.000192359
4.56486e-08
-1.14659e-08
0.000192366
-5.53842e-10
-1.98376e-08
-0.00022913
8.64588e-09
3.03521e-09
0.000229139
6.80214e-08
2.05995e-09
-2.18936e-08
0.000229133
-1.98318e-08
2.03935e-09
-0.000229093
8.60632e-09
0.000229102
9.03118e-10
-6.87025e-10
2.49052e-07
0.000251564
1.88974e-07
4.409e-07
1.24226e-06
-3.11354e-07
2.10123e-07
8.23882e-07
-3.06446e-07
1.60453e-07
-9.71326e-07
-6.62093e-08
-0.000245201
-1.02517e-08
0.000245256
-0.00116384
5.51692e-07
-1.08633e-06
7.18193e-07
-9.14522e-07
9.03033e-07
0.00116387
-7.98928e-09
6.27768e-09
1.45652e-07
0.000245243
5.44862e-07
9.01577e-07
-9.15022e-07
-1.08942e-06
7.16511e-07
-7.3547e-09
-1.40485e-09
-0.000251503
-7.78967e-10
-1.31642e-07
0.000251617
-1.70964e-09
2.49035e-07
0.000251537
-7.33433e-10
-0.000251476
-1.31658e-07
0.000251587
0.000251731
-0.000251617
-1.05343e-09
-1.29038e-07
-1.64293e-09
1.99613e-07
0.00114585
4.39929e-07
-1.31156e-06
2.00643e-07
-3.05203e-07
-9.75875e-07
1.60226e-07
-3.07803e-07
8.26162e-07
0.000245304
-6.05338e-09
-0.000245253
-6.57863e-08
0.00116366
5.59395e-07
-1.09519e-06
7.14527e-07
-9.18479e-07
9.02503e-07
-1.74783e-09
6.82613e-08
-8.43589e-10
2.84941e-09
-2.19438e-08
0.000229167
-1.09017e-08
-0.000192327
-7.24341e-09
0.000192339
4.58336e-08
-1.17838e-08
0.000192346
-2.24025e-08
-1.04842e-09
-0.000229125
3.7522e-09
8.75429e-09
0.000229136
1.42231e-09
-1.26495e-09
2.46793e-07
0.000251552
1.99123e-07
4.37376e-07
1.19877e-06
-3.03622e-07
2.01496e-07
8.26809e-07
-3.06239e-07
1.60766e-07
-9.73644e-07
-6.61403e-08
-0.000245169
-8.37394e-09
0.000245221
-0.00116369
5.09588e-10
5.36417e-07
-1.08909e-06
7.18112e-07
-9.11845e-07
9.02699e-07
0.00116373
6.07668e-09
1.45677e-07
0.00024521
9.08451e-09
5.471e-07
9.03979e-07
-9.15215e-07
-1.09213e-06
7.16277e-07
-3.1921e-09
-0.000251493
8.36545e-10
-1.34142e-07
0.000251607
7.06625e-08
-2.39549e-08
5.97226e-10
0.000229129
-0.000229177
-1.38497e-08
6.44908e-09
-0.000192276
-7.25564e-09
0.000192291
4.70698e-08
-3.59411e-09
-9.61713e-09
0.000192295
-0.000192329
-2.0029e-08
-0.000229089
1.0782e-08
2.10417e-09
0.000229095
2.4685e-07
-2.39842e-09
0.00025153
-0.000251702
1.876e-07
-1.34498e-06
4.39932e-07
8.24975e-07
-3.04812e-07
-9.72943e-07
1.62391e-07
1.23844e-06
-3.07057e-07
2.08506e-07
-0.00114487
-0.00116366
5.38889e-07
-1.08596e-06
7.18302e-07
-9.11784e-07
9.03278e-07
0.00116369
1.24964e-08
-7.0023e-08
-0.000245104
-5.60854e-09
0.000245153
5.50839e-07
9.01469e-07
-9.18062e-07
-1.09485e-06
7.16314e-07
-0.00116362
-1.66257e-08
8.34946e-09
1.46647e-07
0.000245146
-0.000245237
-0.000251469
-1.31723e-07
-1.87483e-09
0.000251579
-8.03616e-09
-9.71046e-05
9.7119e-05
1.62416e-08
9.71098e-05
-9.71296e-05
1.30983e-06
0.000271054
-2.86212e-07
-2.86035e-07
-0.000273136
-1.03153e-08
-0.000276857
9.11147e-09
0.000276862
5.77621e-09
-1.24509e-08
-1.27136e-08
-0.000276974
8.55346e-09
0.000276985
-7.12394e-09
4.70073e-08
0.000276891
-0.000276932
-1.38101e-08
1.68399e-08
-6.78054e-09
4.91685e-08
0.000277009
-0.000277054
-6.3239e-09
-9.71195e-05
9.71316e-05
3.70864e-09
9.71247e-05
-9.71423e-05
-6.81848e-08
2.49364e-07
-2.55744e-09
0.000251552
2.28202e-09
1.96405e-07
4.30576e-07
1.2009e-06
-3.0404e-07
2.05941e-07
8.25076e-07
-3.07452e-07
-9.70117e-07
1.6524e-07
-0.00114535
1.16518e-08
-7.01685e-08
-0.000245202
-5.44519e-09
0.000245253
5.46949e-07
8.95889e-07
-9.12334e-07
-1.08371e-06
7.10722e-07
0.00116347
1.20362e-08
-4.46888e-08
8.58861e-09
1.44111e-07
0.000245246
-0.000245337
2.91357e-10
-2.18885e-08
0.000229165
1.60134e-09
-0.00019233
-7.13278e-09
0.000192343
-9.28992e-09
0.000192349
-0.000192381
1.74468e-08
2.56492e-09
-4.85234e-08
0.000221528
7.10416e-08
3.56222e-10
8.47612e-08
-5.49311e-09
8.59146e-08
1.42916e-08
1.09971e-08
-0.000251078
-3.58579e-08
-9.82231e-09
0.000251106
-0.000181941
-6.90098e-09
6.47965e-09
0.000181953
-5.93597e-09
1.73029e-08
-2.71932e-08
0.000221542
2.66101e-07
6.72095e-08
-5.05619e-09
-7.09474e-09
0.000212743
-7.58175e-08
-7.99797e-05
-2.92576e-09
7.99891e-05
-7.9983e-05
-4.70997e-09
-4.79529e-09
7.99925e-05
-7.04002e-10
-6.81847e-09
0.000212759
-2.07996e-08
1.63287e-08
1.14726e-08
0.000221567
4.92952e-09
0.000181971
-2.61359e-09
2.27116e-08
0.000142365
1.75984e-09
-2.22632e-08
1.42396e-09
2.70954e-10
7.15617e-08
-0.000169979
1.30694e-09
1.11747e-10
0.000169986
-0.000222904
7.65168e-09
4.93535e-09
0.000222918
-2.4857e-08
2.02942e-10
2.39375e-09
7.23236e-08
1.46306e-09
0.000142372
1.9283e-08
7.85899e-05
-0.000261966
9.82909e-09
0.000261979
-2.55557e-08
-1.09145e-08
-2.72947e-09
4.58814e-08
5.76872e-08
7.86012e-05
2.29062e-08
-2.76195e-09
0.000142362
1.88612e-09
1.52111e-09
-2.2437e-08
6.94186e-08
-3.19323e-10
-0.000222902
7.4816e-09
5.25228e-09
0.000222912
-1.95928e-08
-0.000169975
1.61436e-09
0.000169982
-3.47368e-10
2.66706e-09
6.77021e-08
-2.73975e-10
1.5815e-09
0.00014237
1.93962e-08
7.85895e-05
-0.000261963
9.72643e-09
0.000261974
-2.31601e-08
-1.1151e-08
-2.62864e-09
4.60243e-08
5.53234e-08
7.86008e-05
1.47999e-08
1.49111e-08
-8.82811e-09
-8.93021e-09
0.000212759
2.23144e-08
2.0143e-08
-7.99933e-05
-2.82545e-09
-5.24647e-09
8.00013e-05
-7.99756e-05
-2.66413e-09
-5.37035e-09
7.99836e-05
5.62055e-09
5.4838e-09
-3.68713e-09
-1.84253e-09
0.00021276
-2.80456e-08
0.000221576
3.90998e-08
5.92092e-08
-0.000181985
-6.28917e-09
0.000181995
-6.20251e-09
4.86426e-08
1.31545e-08
2.56513e-09
-0.000251202
0.000251232
-3.72202e-08
-3.77658e-09
0.000221589
-2.05098e-08
1.08175e-07
5.82255e-08
-3.00051e-08
0.000221506
3.90459e-08
6.13564e-08
-0.000181924
-8.14045e-09
0.000181936
-5.53659e-09
5.0832e-08
1.31004e-08
2.6278e-09
-0.00025109
0.000251115
-3.71631e-08
-1.33466e-09
0.000221521
-2.28286e-08
1.07831e-07
5.58176e-08
-9.71447e-05
1.44298e-08
2.72327e-09
-5.46809e-09
-6.21227e-09
-9.7134e-05
1.45299e-08
2.63632e-09
-5.36838e-09
-6.36361e-09
-0.000212736
2.8952e-09
2.70149e-09
-4.07837e-09
-2.33383e-09
0.000212737
8.78215e-09
7.99869e-05
5.67217e-09
8.92939e-09
7.99692e-05
5.48638e-09
2.18389e-08
1.95619e-08
-5.02194e-09
7.99948e-05
-5.17931e-09
7.99771e-05
-2.71105e-08
3.70777e-08
0.000221511
-0.000221557
-2.13648e-08
5.69541e-08
-0.000251108
4.26095e-09
-3.92241e-08
-6.10014e-09
0.000251139
-6.49955e-09
4.77637e-08
-0.000277012
1.16625e-08
-0.00018195
-7.0874e-09
4.6366e-09
0.000181961
-0.000181978
-5.98011e-09
-0.000251184
1.05994e-07
5.56864e-08
4.46734e-09
-2.2579e-08
0.000221526
-2.9189e-08
3.67062e-08
0.000221441
-0.000221489
-1.90042e-08
5.93656e-08
-0.000250995
4.67951e-09
-3.89344e-08
-4.09247e-09
0.000251022
-5.67822e-09
5.01098e-08
-0.000276937
1.12874e-08
-0.000181889
-8.85108e-09
4.76233e-09
0.000181901
-0.000181918
-5.7911e-09
-0.000251067
1.05813e-07
5.28503e-08
2.77218e-09
-2.45887e-08
0.000221459
-0.000221543
6.6393e-09
-3.53632e-09
-2.13948e-08
2.76172e-08
0.000181967
-3.80507e-08
0.000251154
1.07317e-07
5.71197e-08
8.74936e-09
-8.95689e-09
-1.08846e-08
5.82571e-08
-3.79442e-08
-4.926e-09
-0.000221472
8.43051e-09
-3.78297e-09
-2.35722e-08
2.96406e-08
0.000181906
-3.78639e-08
0.000251042
1.07014e-07
5.45397e-08
8.5365e-09
-1.11512e-08
-1.12298e-08
6.05027e-08
-3.78149e-08
-2.65948e-09
-8.61977e-09
-8.7657e-09
0.000212714
-7.99802e-05
-3.08713e-09
7.99879e-05
-7.99625e-05
-2.92072e-09
7.99702e-05
0.000212715
1.95945e-08
7.85443e-05
-2.09932e-09
-1.16822e-08
4.82701e-08
-0.000261847
9.6437e-09
-5.36624e-09
-2.29456e-08
0.000261858
-3.42902e-09
5.55629e-08
-1.55418e-09
7.85555e-05
-3.06577e-09
2.28398e-08
0.000142295
-0.000222815
7.52352e-09
0.000222825
-1.97192e-08
-2.22866e-08
2.13201e-09
6.91213e-08
-0.000169945
1.52833e-09
0.000169952
6.7629e-08
0.000142302
-0.000142351
-1.65055e-09
-7.82093e-09
1.60445e-09
0.000142358
2.83701e-09
0.000169961
4.06834e-11
-2.24178e-08
0.000222868
3.14047e-09
7.1488e-08
8.45562e-09
3.28917e-09
0.00022918
-1.55496e-10
-2.16935e-08
2.0069e-09
0.000169968
-3.69803e-11
5.57567e-09
0.000222884
-2.53993e-08
1.91768e-08
7.85782e-05
-7.85953e-05
-2.02306e-09
-1.14031e-08
-0.000192378
4.53212e-08
-0.000261901
9.95295e-09
-5.63455e-09
-2.60726e-08
0.000261916
-0.000261947
-3.53709e-09
5.68023e-08
-1.50328e-09
7.85896e-05
-7.85839e-05
-9.79922e-09
-1.9308e-08
0.000261933
5.72384e-08
-7.52298e-09
-1.06269e-08
-2.57759e-08
-2.91384e-09
2.2205e-08
0.000142337
-2.15436e-08
2.76181e-09
-4.53695e-10
6.94686e-08
-0.000169944
1.44522e-09
-7.81682e-11
0.000169951
-0.000222834
7.96594e-09
-2.34344e-08
0.000222847
-7.54597e-11
7.07272e-08
0.000142345
-0.000142281
-1.35089e-09
-7.748e-09
0.000142288
1.38541e-09
-2.25059e-08
0.000222779
6.67019e-08
3.13939e-09
2.89874e-09
0.000169927
8.41561e-09
2.73728e-09
0.000229141
-1.91642e-08
1.93684e-09
0.000169934
0.00022279
-2.04279e-08
4.95295e-09
-2.76992e-09
2.22142e-08
0.000142267
1.80329e-09
-0.000222743
7.94952e-09
-2.10488e-08
0.000222753
4.68147e-09
-2.15753e-08
1.69454e-09
6.70424e-08
-0.00016991
1.11568e-09
0.000169917
6.81626e-08
2.738e-09
0.000142275
1.3125e-09
-0.000142348
-7.73288e-09
-1.81061e-09
1.66462e-09
0.000142356