/*--------------------------------*- C++ -*----------------------------------*\
| =========                 |                                                 |
| \\      /  F ield         | OpenFOAM: The Open Source CFD Toolbox           |
|  \\    /   O peration     | Version:  v2012                                 |
|   \\  /    A nd           | Website:  www.openfoam.com                      |
|    \\/     M anipulation  |                                                 |
\*---------------------------------------------------------------------------*/
FoamFile
{
    version     2.0;
    format      ascii;
    class       volScalarField;
    location    "825";
    object      epsilon;
}
// * * * * * * * * * * * * * * * * * * * * * * * * * * * * * * * * * * * * * //

dimensions      [0 2 -3 0 0 0 0];


internalField   nonuniform List<scalar> 
171728
(
1.48496e-09
3.39289e-09
5.02402e-09
4.73705e-09
1.45318e-09
3.12962e-09
4.57508e-09
4.28019e-09
1.38889e-09
2.86428e-09
4.10737e-09
3.90745e-09
1.33359e-09
2.62989e-09
3.68326e-09
3.58855e-09
1.28488e-09
2.42549e-09
3.33309e-09
3.31893e-09
1.24099e-09
2.25392e-09
3.06358e-09
3.08911e-09
1.19949e-09
2.11689e-09
2.85975e-09
2.88997e-09
1.16003e-09
2.01573e-09
2.70808e-09
2.7202e-09
1.12271e-09
1.94798e-09
2.60161e-09
2.57931e-09
1.08731e-09
1.91209e-09
2.54092e-09
2.46819e-09
1.05382e-09
1.90636e-09
2.52138e-09
2.38818e-09
1.02142e-09
1.93411e-09
2.54756e-09
2.343e-09
9.90896e-10
2.00516e-09
2.63086e-09
2.33601e-09
9.6339e-10
2.1321e-09
2.78018e-09
2.37893e-09
9.36889e-10
2.3352e-09
3.03598e-09
2.49297e-09
9.11486e-10
2.6486e-09
3.41082e-09
2.7271e-09
8.87887e-10
3.13449e-09
3.93831e-09
3.16917e-09
8.63374e-10
3.84841e-09
4.81021e-09
3.87383e-09
8.36874e-10
4.98953e-09
6.16483e-09
5.09712e-09
8.19998e-10
6.62533e-09
8.25577e-09
7.63058e-09
8.2137e-10
8.90342e-09
1.1257e-08
1.10117e-08
8.34191e-10
1.27562e-08
1.52297e-08
1.87933e-08
8.62857e-10
1.7028e-08
1.96232e-08
2.70406e-08
8.99565e-10
2.44348e-08
2.6524e-08
4.56464e-08
9.63741e-10
3.23548e-08
3.34243e-08
7.3598e-08
1.05951e-09
4.43388e-08
4.57419e-08
1.10968e-07
1.20705e-09
5.80431e-08
5.86477e-08
1.55455e-07
1.47045e-09
7.51351e-08
7.55624e-08
2.23768e-07
1.80926e-09
9.45212e-08
9.47585e-08
2.84828e-07
2.32775e-09
1.17674e-07
1.18352e-07
3.69435e-07
3.1039e-09
1.43843e-07
1.43546e-07
4.42192e-07
4.06185e-09
1.72162e-07
1.74589e-07
5.20773e-07
5.70414e-09
2.06318e-07
2.05091e-07
5.84694e-07
7.33176e-09
2.38072e-07
2.41743e-07
6.52283e-07
1.02837e-08
2.81851e-07
2.80605e-07
7.09261e-07
1.29654e-08
3.16136e-07
3.20345e-07
7.54985e-07
1.60651e-08
3.67182e-07
3.64445e-07
8.07063e-07
2.0949e-08
4.07553e-07
4.09503e-07
8.39857e-07
2.64485e-08
4.56286e-07
4.56234e-07
8.78558e-07
3.32531e-08
5.06904e-07
5.05514e-07
9.17867e-07
4.14535e-08
5.48106e-07
5.51661e-07
9.46812e-07
5.03862e-08
5.97411e-07
6.02548e-07
9.77969e-07
6.32342e-08
6.52636e-07
6.46302e-07
1.0095e-06
7.52285e-08
6.92995e-07
7.00851e-07
1.03776e-06
9.20004e-08
7.41727e-07
7.40241e-07
1.06422e-06
1.07681e-07
7.83788e-07
7.85132e-07
1.09214e-06
1.2856e-07
8.26937e-07
8.31393e-07
1.11957e-06
1.49838e-07
8.65881e-07
8.63222e-07
1.14681e-06
1.72319e-07
9.0411e-07
9.05663e-07
1.16606e-06
2.00311e-07
9.37051e-07
9.38242e-07
1.19576e-06
2.2621e-07
9.72294e-07
9.68588e-07
1.22182e-06
2.55529e-07
9.99741e-07
1.00273e-06
1.23681e-06
2.87307e-07
1.02841e-06
1.02928e-06
1.25949e-06
3.15392e-07
1.05163e-06
1.05118e-06
1.28252e-06
3.50639e-07
1.07924e-06
1.07998e-06
1.30319e-06
3.82358e-07
1.09948e-06
1.09762e-06
1.30984e-06
4.1032e-07
1.11646e-06
1.1172e-06
1.33469e-06
4.4685e-07
1.14258e-06
1.14291e-06
1.35989e-06
4.71945e-07
1.15537e-06
1.15573e-06
1.36237e-06
4.99135e-07
1.17167e-06
1.17329e-06
1.37091e-06
5.2842e-07
1.19204e-06
1.18992e-06
1.39991e-06
5.58531e-07
1.20466e-06
1.2052e-06
1.41125e-06
5.76125e-07
1.21892e-06
1.22205e-06
1.40587e-06
5.9605e-07
1.23163e-06
1.22934e-06
1.42559e-06
6.20342e-07
1.24156e-06
1.24107e-06
1.45124e-06
6.44982e-07
1.25833e-06
1.25696e-06
1.45038e-06
6.60466e-07
1.26399e-06
1.26561e-06
1.45136e-06
6.75322e-07
1.27082e-06
1.27093e-06
1.47008e-06
6.91035e-07
1.28465e-06
1.27964e-06
1.48136e-06
7.06701e-07
1.29087e-06
1.29093e-06
1.4857e-06
7.21494e-07
1.293e-06
1.29505e-06
1.49177e-06
7.3511e-07
1.30097e-06
1.2986e-06
1.49336e-06
7.49474e-07
1.30506e-06
1.30675e-06
1.50475e-06
7.60095e-07
1.31378e-06
1.31339e-06
1.51143e-06
7.68481e-07
1.31319e-06
1.31299e-06
1.50596e-06
7.77351e-07
1.31232e-06
1.3134e-06
1.51495e-06
7.87083e-07
1.32146e-06
1.32205e-06
1.53026e-06
7.92859e-07
1.32205e-06
1.32096e-06
1.52249e-06
7.97315e-07
1.31877e-06
1.3177e-06
1.51568e-06
8.03279e-07
1.32144e-06
1.32021e-06
1.52453e-06
8.08715e-07
1.32651e-06
1.32506e-06
1.53379e-06
8.10763e-07
1.32155e-06
1.32227e-06
1.53675e-06
8.10193e-07
1.3136e-06
1.31613e-06
1.52445e-06
8.1241e-07
1.31389e-06
1.31459e-06
1.5138e-06
8.15708e-07
1.32009e-06
1.31716e-06
1.52837e-06
8.14475e-07
1.31592e-06
1.31187e-06
1.5384e-06
8.07683e-07
1.30639e-06
1.30499e-06
1.5227e-06
8.05291e-07
1.29463e-06
1.29952e-06
1.50039e-06
8.06556e-07
1.29347e-06
1.29838e-06
1.51613e-06
8.06642e-07
1.30348e-06
1.30133e-06
1.5424e-06
7.98372e-07
1.29076e-06
1.28776e-06
1.50982e-06
7.87856e-07
1.26753e-06
1.26677e-06
1.46568e-06
7.87221e-07
1.27006e-06
1.27063e-06
1.49737e-06
7.87695e-07
1.27727e-06
1.28105e-06
1.53632e-06
7.61157e-07
1.20304e-06
1.205e-06
1.45458e-06
5.22699e-09
4.11555e-09
3.80979e-09
4.94395e-09
3.75636e-09
3.77501e-09
1.45e-09
1.16049e-09
1.39107e-09
1.36575e-09
3.70186e-09
4.19071e-09
5.20877e-09
4.18024e-09
4.05855e-09
4.77183e-09
5.19411e-09
4.73255e-09
4.82226e-09
3.32239e-09
4.49667e-09
3.1461e-09
4.92075e-09
4.43018e-09
5.67363e-09
3.42862e-09
4.65083e-09
3.24705e-09
4.8921e-09
3.20153e-09
4.58011e-09
5.18948e-09
4.71594e-09
4.96378e-09
4.69629e-09
4.04288e-09
4.31235e-09
4.69609e-09
4.25141e-09
4.37617e-09
3.07365e-09
4.03057e-09
2.87004e-09
4.40236e-09
3.96255e-09
4.38423e-09
3.17802e-09
3.79286e-09
2.98337e-09
4.46582e-09
2.92736e-09
4.14683e-09
4.68651e-09
4.24443e-09
3.85803e-09
4.22208e-09
3.44549e-09
3.93144e-09
4.22137e-09
3.83534e-09
3.92042e-09
2.80712e-09
3.60998e-09
2.63157e-09
3.94064e-09
3.57813e-09
3.65301e-09
2.92295e-09
3.34044e-09
2.75478e-09
4.04853e-09
2.68584e-09
3.77485e-09
4.21887e-09
3.8322e-09
3.34492e-09
3.78388e-09
3.12854e-09
3.61004e-09
3.81042e-09
3.48543e-09
3.51737e-09
2.57788e-09
3.27562e-09
2.42704e-09
3.56132e-09
3.25968e-09
3.25918e-09
2.70304e-09
3.06439e-09
2.56079e-09
3.69095e-09
2.47341e-09
3.45757e-09
3.81029e-09
3.48155e-09
3.06902e-09
3.4128e-09
2.9082e-09
3.33639e-09
3.46614e-09
3.20352e-09
3.20412e-09
2.38116e-09
3.01032e-09
2.25488e-09
3.24714e-09
2.98655e-09
3.01487e-09
2.5177e-09
2.89865e-09
2.40138e-09
3.38571e-09
2.29354e-09
3.19023e-09
3.46403e-09
3.18586e-09
2.86056e-09
3.12448e-09
2.73321e-09
3.10304e-09
3.18782e-09
2.9686e-09
2.95164e-09
2.21737e-09
2.79813e-09
2.11817e-09
2.97664e-09
2.74553e-09
2.86091e-09
2.36703e-09
2.75093e-09
2.27502e-09
3.13055e-09
2.14731e-09
2.96346e-09
3.17195e-09
2.93647e-09
2.69521e-09
2.90448e-09
2.59479e-09
2.90051e-09
2.957e-09
2.77623e-09
2.75437e-09
2.08957e-09
2.64173e-09
2.01505e-09
2.73939e-09
2.54483e-09
2.71942e-09
2.24824e-09
2.63498e-09
2.17924e-09
2.91041e-09
2.0371e-09
2.76737e-09
2.92611e-09
2.73412e-09
2.5658e-09
2.7414e-09
2.48499e-09
2.72726e-09
2.76848e-09
2.62603e-09
2.60954e-09
1.99444e-09
2.52873e-09
1.94285e-09
2.54176e-09
2.38297e-09
2.60977e-09
2.16021e-09
2.55013e-09
2.11701e-09
2.72437e-09
1.96221e-09
2.61469e-09
2.72791e-09
2.57692e-09
2.46125e-09
2.62377e-09
2.40117e-09
2.5831e-09
2.62256e-09
2.51693e-09
2.50695e-09
1.93004e-09
2.45785e-09
1.9016e-09
2.38322e-09
2.26002e-09
2.53598e-09
2.10586e-09
2.50283e-09
2.08553e-09
2.58311e-09
1.91844e-09
2.50642e-09
2.57487e-09
2.46034e-09
2.38454e-09
2.5496e-09
2.34544e-09
2.46796e-09
2.51762e-09
2.44259e-09
2.44824e-09
1.89631e-09
2.42717e-09
1.89165e-09
2.26309e-09
2.17141e-09
2.49486e-09
2.08108e-09
2.48103e-09
2.0839e-09
2.48629e-09
1.90503e-09
2.44087e-09
2.46171e-09
2.37717e-09
2.33647e-09
2.52098e-09
2.32488e-09
2.38461e-09
2.44648e-09
2.39518e-09
2.42623e-09
1.89363e-09
2.4335e-09
1.91422e-09
2.17764e-09
2.11874e-09
2.48031e-09
2.08877e-09
2.4883e-09
2.11738e-09
2.43103e-09
1.92549e-09
2.41995e-09
2.38197e-09
2.32882e-09
2.32592e-09
2.53607e-09
2.34134e-09
2.33394e-09
2.40433e-09
2.37924e-09
2.43959e-09
1.92631e-09
2.47712e-09
1.97852e-09
2.13108e-09
2.10547e-09
2.49496e-09
2.13133e-09
2.52938e-09
2.19056e-09
2.42169e-09
1.98719e-09
2.44584e-09
2.34011e-09
2.32028e-09
2.35164e-09
2.60501e-09
2.39956e-09
2.31827e-09
2.3966e-09
2.40376e-09
2.49525e-09
2.00179e-09
2.5732e-09
2.09354e-09
2.1262e-09
2.14266e-09
2.54617e-09
2.21595e-09
2.61429e-09
2.31428e-09
2.46119e-09
2.09961e-09
2.52971e-09
2.34058e-09
2.36181e-09
2.42113e-09
2.73485e-09
2.50958e-09
2.34812e-09
2.43427e-09
2.48993e-09
2.60906e-09
2.13156e-09
2.74953e-09
2.27934e-09
2.17542e-09
2.24748e-09
2.64379e-09
2.35344e-09
2.75953e-09
2.50666e-09
2.56277e-09
2.28381e-09
2.68809e-09
2.39553e-09
2.46975e-09
2.54701e-09
2.9602e-09
2.68559e-09
2.44266e-09
2.54156e-09
2.67338e-09
2.80997e-09
2.34018e-09
3.04015e-09
2.56367e-09
2.30265e-09
2.44699e-09
2.80769e-09
2.56862e-09
2.99781e-09
2.79879e-09
2.74151e-09
2.56276e-09
2.95297e-09
2.52403e-09
2.67665e-09
2.74434e-09
3.30438e-09
2.96923e-09
2.64033e-09
2.76081e-09
3.0233e-09
3.14168e-09
2.65735e-09
3.50675e-09
3.00262e-09
2.53777e-09
2.8156e-09
3.08102e-09
2.89569e-09
3.3883e-09
3.24296e-09
3.03952e-09
2.99137e-09
3.38164e-09
2.76564e-09
3.04549e-09
3.06109e-09
3.78433e-09
3.41575e-09
3.00734e-09
3.17001e-09
3.64995e-09
3.66119e-09
3.15459e-09
4.23344e-09
3.66207e-09
2.97891e-09
3.42463e-09
3.51778e-09
3.38559e-09
4.02395e-09
3.9365e-09
3.52722e-09
3.64606e-09
4.00438e-09
3.19077e-09
3.72705e-09
3.56331e-09
4.55745e-09
4.08786e-09
3.60038e-09
3.89434e-09
4.70734e-09
4.45995e-09
3.87252e-09
5.2836e-09
4.71277e-09
3.66851e-09
4.59691e-09
4.22121e-09
4.14817e-09
4.95833e-09
4.95135e-09
4.23724e-09
4.6708e-09
5.0537e-09
3.98066e-09
4.88212e-09
4.32118e-09
5.76604e-09
5.14274e-09
4.75946e-09
5.12667e-09
6.77721e-09
5.61638e-09
5.03556e-09
6.9747e-09
6.1528e-09
5.01944e-09
6.4083e-09
5.27084e-09
5.28034e-09
6.48899e-09
6.46965e-09
5.32677e-09
6.10148e-09
6.62614e-09
5.31148e-09
6.97301e-09
5.44497e-09
7.66183e-09
6.79891e-09
6.91934e-09
7.41745e-09
1.02834e-08
7.45569e-09
6.68979e-09
9.46178e-09
8.39829e-09
7.19443e-09
9.83805e-09
6.90005e-09
6.93227e-09
8.71638e-09
8.82063e-09
7.09367e-09
8.29533e-09
8.59985e-09
7.68044e-09
1.07859e-08
7.2605e-09
1.04505e-08
8.79679e-09
9.66152e-09
1.1439e-08
1.63273e-08
1.02622e-08
9.00942e-09
1.3146e-08
1.19107e-08
1.07684e-08
1.67268e-08
9.38345e-09
9.49841e-09
1.18259e-08
1.19512e-08
9.42178e-09
1.17816e-08
1.23074e-08
1.20156e-08
1.64595e-08
9.63482e-09
1.40239e-08
1.25135e-08
1.75117e-08
1.82014e-08
2.68311e-08
1.42774e-08
1.29051e-08
1.86963e-08
1.5725e-08
1.8774e-08
2.40061e-08
1.28062e-08
1.31219e-08
1.64492e-08
1.62111e-08
1.31258e-08
1.55275e-08
1.61302e-08
1.87752e-08
2.61572e-08
1.33368e-08
1.828e-08
1.63616e-08
2.39329e-08
2.98475e-08
4.3021e-08
2.0212e-08
1.72411e-08
2.58393e-08
2.29676e-08
2.68867e-08
4.52521e-08
1.76994e-08
1.76131e-08
2.26986e-08
2.33519e-08
1.76101e-08
2.26955e-08
2.26048e-08
2.86758e-08
4.63215e-08
1.79012e-08
2.5183e-08
2.28313e-08
4.1731e-08
4.78875e-08
6.70186e-08
2.79929e-08
2.47185e-08
3.37266e-08
3.04261e-08
4.97589e-08
6.47192e-08
2.46849e-08
2.4814e-08
3.02885e-08
3.00632e-08
2.43676e-08
3.01115e-08
3.09922e-08
4.97134e-08
6.12836e-08
2.45327e-08
3.09025e-08
3.13471e-08
6.62966e-08
7.30362e-08
1.11002e-07
3.673e-08
3.26844e-08
4.65159e-08
4.15995e-08
6.99543e-08
1.00262e-07
3.31693e-08
3.30385e-08
4.27156e-08
4.24998e-08
3.37071e-08
4.10703e-08
4.20561e-08
6.79092e-08
1.06926e-07
3.40571e-08
4.28705e-08
4.20855e-08
1.04004e-07
1.16382e-07
1.34918e-07
4.84527e-08
4.48797e-08
5.52111e-08
5.45272e-08
1.09805e-07
1.46949e-07
4.48798e-08
4.52968e-08
5.33585e-08
5.48897e-08
4.46819e-08
5.40488e-08
5.4534e-08
1.15072e-07
1.45557e-07
4.4735e-08
5.50471e-08
5.49283e-08
1.43615e-07
1.45854e-07
2.19e-07
5.92201e-08
5.85491e-08
7.46441e-08
7.16911e-08
1.57111e-07
2.09353e-07
5.81245e-08
5.8752e-08
7.27526e-08
7.1591e-08
5.88137e-08
7.10349e-08
7.21813e-08
1.55775e-07
2.0592e-07
5.91804e-08
7.09983e-08
7.23544e-08
2.11333e-07
2.32628e-07
2.73898e-07
7.92604e-08
7.58382e-08
9.18331e-08
8.99934e-08
2.22149e-07
2.71525e-07
7.70356e-08
7.61619e-08
9.02308e-08
9.03627e-08
7.63536e-08
8.91795e-08
8.92573e-08
2.19292e-07
2.73624e-07
7.66005e-08
8.96933e-08
8.97821e-08
2.70842e-07
2.86418e-07
3.46812e-07
9.66884e-08
9.53669e-08
1.13218e-07
1.12333e-07
2.85992e-07
3.50048e-07
9.54577e-08
9.53563e-08
1.13013e-07
1.12704e-07
9.46589e-08
1.11592e-07
1.13558e-07
2.87539e-07
3.48982e-07
9.50805e-08
1.11939e-07
1.13632e-07
3.5273e-07
3.63738e-07
4.29479e-07
1.19004e-07
1.1827e-07
1.38104e-07
1.3772e-07
3.6615e-07
4.27361e-07
1.19286e-07
1.19145e-07
1.39267e-07
1.37571e-07
1.19449e-07
1.36966e-07
1.36625e-07
3.653e-07
4.28035e-07
1.19581e-07
1.37217e-07
1.37001e-07
4.2696e-07
4.44242e-07
5.03655e-07
1.45221e-07
1.44775e-07
1.65662e-07
1.65604e-07
4.43767e-07
5.01545e-07
1.46391e-07
1.43908e-07
1.68032e-07
1.6716e-07
1.43471e-07
1.64643e-07
1.67084e-07
4.43374e-07
5.03461e-07
1.43816e-07
1.66502e-07
1.67185e-07
5.0456e-07
5.19368e-07
5.75934e-07
1.72793e-07
1.72868e-07
1.99687e-07
1.98861e-07
5.16588e-07
5.73141e-07
1.75159e-07
1.75066e-07
2.02451e-07
1.98013e-07
1.74719e-07
1.98157e-07
1.97282e-07
5.19629e-07
5.72785e-07
1.74775e-07
1.97107e-07
1.9746e-07
5.71053e-07
5.91276e-07
6.36248e-07
2.08832e-07
2.07318e-07
2.3145e-07
2.29929e-07
5.87927e-07
6.33978e-07
2.12651e-07
2.06232e-07
2.37515e-07
2.3292e-07
2.05205e-07
2.28708e-07
2.30422e-07
5.87387e-07
6.36746e-07
2.05411e-07
2.32324e-07
2.30721e-07
6.36299e-07
6.50348e-07
6.96175e-07
2.3917e-07
2.39123e-07
2.725e-07
2.72669e-07
6.48336e-07
6.94846e-07
2.44936e-07
2.42165e-07
2.76737e-07
2.72147e-07
2.40825e-07
2.71922e-07
2.74471e-07
6.5106e-07
6.9639e-07
2.41144e-07
2.70632e-07
2.7459e-07
6.97724e-07
7.0988e-07
7.47602e-07
2.85013e-07
2.82814e-07
3.12954e-07
3.08442e-07
7.08157e-07
7.43583e-07
2.90487e-07
2.82415e-07
3.21656e-07
3.12443e-07
2.83626e-07
3.06528e-07
3.06905e-07
7.09569e-07
7.46411e-07
2.837e-07
3.10223e-07
3.07088e-07
7.42658e-07
7.58166e-07
7.88439e-07
3.20759e-07
3.18051e-07
3.5114e-07
3.5342e-07
7.55078e-07
7.90914e-07
3.29049e-07
3.22561e-07
3.53388e-07
3.532e-07
3.16188e-07
3.54398e-07
3.57081e-07
7.58195e-07
7.91665e-07
3.1648e-07
3.53566e-07
3.57061e-07
7.9541e-07
7.99977e-07
8.33575e-07
3.63667e-07
3.65813e-07
3.99327e-07
3.99259e-07
8.03178e-07
8.3272e-07
3.64005e-07
3.64683e-07
4.02238e-07
4.00407e-07
3.70572e-07
3.98105e-07
3.99202e-07
8.02901e-07
8.33682e-07
3.69999e-07
3.97458e-07
3.9786e-07
8.31271e-07
8.43703e-07
8.70116e-07
4.10347e-07
4.0948e-07
4.43881e-07
4.42287e-07
8.42061e-07
8.68246e-07
4.13755e-07
4.11685e-07
4.48303e-07
4.47167e-07
4.07334e-07
4.42228e-07
4.38997e-07
8.4415e-07
8.71277e-07
4.06249e-07
4.45012e-07
4.39919e-07
8.67246e-07
8.79952e-07
9.06561e-07
4.56072e-07
4.54926e-07
4.93791e-07
4.9347e-07
8.78699e-07
9.08129e-07
4.60167e-07
4.58909e-07
4.94694e-07
4.9338e-07
4.54013e-07
4.95882e-07
4.9618e-07
8.80748e-07
9.06357e-07
4.54644e-07
4.92551e-07
4.94276e-07
9.09134e-07
9.15605e-07
9.38353e-07
5.05743e-07
5.05672e-07
5.41551e-07
5.41294e-07
9.17123e-07
9.36929e-07
5.06354e-07
5.06248e-07
5.41888e-07
5.44721e-07
5.07861e-07
5.37867e-07
5.41914e-07
9.15731e-07
9.39318e-07
5.0614e-07
5.40526e-07
5.41703e-07
9.38684e-07
9.46675e-07
9.68703e-07
5.53369e-07
5.52313e-07
5.87764e-07
5.85667e-07
9.44662e-07
9.67033e-07
5.52807e-07
5.54922e-07
5.86847e-07
5.87462e-07
5.52883e-07
5.83184e-07
5.89295e-07
9.47442e-07
9.68744e-07
5.52766e-07
5.89483e-07
5.88605e-07
9.69381e-07
9.77157e-07
1.00094e-06
6.00213e-07
5.98613e-07
6.39656e-07
6.40549e-07
9.76117e-07
1.00187e-06
5.9981e-07
6.01637e-07
6.3919e-07
6.41239e-07
6.02726e-07
6.41088e-07
6.40053e-07
9.77028e-07
9.99924e-07
6.01792e-07
6.35504e-07
6.37851e-07
1.00159e-06
1.00883e-06
1.02808e-06
6.51306e-07
6.52373e-07
6.8427e-07
6.82756e-07
1.00969e-06
1.02709e-06
6.50512e-07
6.51383e-07
6.82802e-07
6.85848e-07
6.5175e-07
6.81765e-07
6.87972e-07
1.00789e-06
1.02958e-06
6.49091e-07
6.873e-07
6.86527e-07
1.03021e-06
1.0356e-06
1.05855e-06
6.96346e-07
6.94213e-07
7.32445e-07
7.31639e-07
1.03424e-06
1.05729e-06
6.95237e-07
6.99145e-07
7.33223e-07
7.33443e-07
6.99223e-07
7.30639e-07
7.30931e-07
1.03719e-06
1.05582e-06
6.98689e-07
7.31678e-07
7.29829e-07
1.05743e-06
1.06578e-06
1.08302e-06
7.43495e-07
7.42639e-07
7.74544e-07
7.72876e-07
1.06496e-06
1.08333e-06
7.43522e-07
7.43543e-07
7.7229e-07
7.75696e-07
7.42355e-07
7.72039e-07
7.77975e-07
1.06263e-06
1.08541e-06
7.40256e-07
7.71104e-07
7.75736e-07
1.08455e-06
1.09001e-06
1.11362e-06
7.85113e-07
7.84472e-07
8.18805e-07
8.18661e-07
1.09034e-06
1.11236e-06
7.84061e-07
7.87457e-07
8.19867e-07
8.23791e-07
7.88535e-07
8.17998e-07
8.16678e-07
1.0937e-06
1.11536e-06
7.87173e-07
8.22471e-07
8.16824e-07
1.11278e-06
1.12079e-06
1.13725e-06
8.29857e-07
8.27788e-07
8.58065e-07
8.55192e-07
1.1189e-06
1.13549e-06
8.29939e-07
8.34354e-07
8.57519e-07
8.59684e-07
8.27522e-07
8.54955e-07
8.61907e-07
1.12146e-06
1.13627e-06
8.27395e-07
8.54745e-07
8.61046e-07
1.14037e-06
1.14312e-06
1.1626e-06
8.66434e-07
8.65717e-07
8.95774e-07
8.9655e-07
1.14231e-06
1.16424e-06
8.66363e-07
8.67625e-07
8.94849e-07
8.95292e-07
8.71398e-07
8.96073e-07
8.95078e-07
1.14209e-06
1.16294e-06
8.70508e-07
8.94982e-07
8.93829e-07
1.1609e-06
1.16972e-06
1.18906e-06
9.06282e-07
9.0506e-07
9.31572e-07
9.28479e-07
1.17031e-06
1.18501e-06
9.05151e-07
9.05516e-07
9.33159e-07
9.31838e-07
9.02577e-07
9.27832e-07
9.29218e-07
1.17075e-06
1.18901e-06
9.01532e-07
9.29998e-07
9.31334e-07
1.1871e-06
1.19468e-06
1.20989e-06
9.38727e-07
9.37128e-07
9.63684e-07
9.63533e-07
1.19102e-06
1.21154e-06
9.40781e-07
9.40518e-07
9.62381e-07
9.64086e-07
9.41122e-07
9.642e-07
9.69049e-07
1.1946e-06
1.21079e-06
9.4322e-07
9.61866e-07
9.6778e-07
1.2172e-06
1.21594e-06
1.23453e-06
9.72279e-07
9.71773e-07
9.94425e-07
9.93698e-07
1.21784e-06
1.23323e-06
9.70268e-07
9.70757e-07
9.9556e-07
9.95052e-07
9.751e-07
9.93473e-07
9.92444e-07
1.21622e-06
1.23346e-06
9.73214e-07
9.93238e-07
9.91179e-07
1.23183e-06
1.24033e-06
1.25382e-06
1.00134e-06
1.00019e-06
1.02245e-06
1.02115e-06
1.23842e-06
1.25402e-06
1.0033e-06
1.00407e-06
1.02182e-06
1.02404e-06
9.99473e-07
1.02064e-06
1.02245e-06
1.24071e-06
1.25754e-06
9.9887e-07
1.02437e-06
1.02217e-06
1.25386e-06
1.25845e-06
1.27304e-06
1.02883e-06
1.02879e-06
1.04675e-06
1.04711e-06
1.25978e-06
1.27392e-06
1.02701e-06
1.0287e-06
1.04581e-06
1.04432e-06
1.02933e-06
1.04705e-06
1.04848e-06
1.2613e-06
1.27039e-06
1.02848e-06
1.04454e-06
1.04762e-06
1.27619e-06
1.27945e-06
1.29788e-06
1.0535e-06
1.0516e-06
1.07366e-06
1.07057e-06
1.27843e-06
1.29303e-06
1.0537e-06
1.05142e-06
1.07493e-06
1.07554e-06
1.05514e-06
1.07098e-06
1.07398e-06
1.27639e-06
1.29911e-06
1.05474e-06
1.07433e-06
1.07424e-06
1.29919e-06
1.30219e-06
1.30706e-06
1.07907e-06
1.07903e-06
1.09224e-06
1.09696e-06
1.29966e-06
1.3142e-06
1.0798e-06
1.08107e-06
1.09208e-06
1.094e-06
1.07904e-06
1.09639e-06
1.09251e-06
1.30387e-06
1.30931e-06
1.07908e-06
1.09331e-06
1.09233e-06
1.30674e-06
1.31055e-06
1.32843e-06
1.09656e-06
1.10007e-06
1.11389e-06
1.1107e-06
1.31734e-06
1.32409e-06
1.09668e-06
1.09829e-06
1.11385e-06
1.11244e-06
1.09703e-06
1.11054e-06
1.11367e-06
1.31264e-06
1.32596e-06
1.09703e-06
1.11118e-06
1.11268e-06
1.32646e-06
1.33608e-06
1.35143e-06
1.12165e-06
1.11634e-06
1.13764e-06
1.13811e-06
1.32959e-06
1.35036e-06
1.12106e-06
1.11885e-06
1.13667e-06
1.13839e-06
1.1216e-06
1.13821e-06
1.1401e-06
1.33244e-06
1.35027e-06
1.11954e-06
1.13778e-06
1.14013e-06
1.35603e-06
1.35456e-06
1.35886e-06
1.14062e-06
1.14274e-06
1.1504e-06
1.15218e-06
1.35448e-06
1.35812e-06
1.14013e-06
1.14303e-06
1.15138e-06
1.1525e-06
1.14329e-06
1.15195e-06
1.15155e-06
1.35456e-06
1.35871e-06
1.14468e-06
1.15277e-06
1.15432e-06
1.36069e-06
1.36248e-06
1.37027e-06
1.15494e-06
1.15557e-06
1.16937e-06
1.1678e-06
1.36137e-06
1.37204e-06
1.15534e-06
1.15556e-06
1.16582e-06
1.16827e-06
1.15452e-06
1.16713e-06
1.16566e-06
1.36147e-06
1.37251e-06
1.15713e-06
1.16776e-06
1.16613e-06
1.36633e-06
1.37346e-06
1.38463e-06
1.17273e-06
1.17244e-06
1.18321e-06
1.18682e-06
1.37675e-06
1.38982e-06
1.16926e-06
1.17398e-06
1.18493e-06
1.18681e-06
1.17009e-06
1.18705e-06
1.18838e-06
1.37843e-06
1.38896e-06
1.17014e-06
1.18678e-06
1.18739e-06
1.39308e-06
1.39134e-06
1.40958e-06
1.18842e-06
1.19124e-06
1.20477e-06
1.20181e-06
1.39482e-06
1.4022e-06
1.19222e-06
1.18998e-06
1.20676e-06
1.20168e-06
1.19396e-06
1.2023e-06
1.20462e-06
1.39172e-06
1.39933e-06
1.19351e-06
1.20031e-06
1.20353e-06
1.40948e-06
1.41345e-06
1.41649e-06
1.20804e-06
1.2047e-06
1.21479e-06
1.21616e-06
1.40503e-06
1.41367e-06
1.20888e-06
1.20697e-06
1.21478e-06
1.22031e-06
1.20661e-06
1.21442e-06
1.21114e-06
1.40504e-06
1.42213e-06
1.2054e-06
1.21938e-06
1.21075e-06
1.40421e-06
1.41875e-06
1.4192e-06
1.21726e-06
1.22067e-06
1.22515e-06
1.22958e-06
1.41868e-06
1.42636e-06
1.21782e-06
1.2227e-06
1.2266e-06
1.2274e-06
1.21343e-06
1.22945e-06
1.22513e-06
1.42567e-06
1.42509e-06
1.21346e-06
1.22744e-06
1.22533e-06
1.41803e-06
1.4213e-06
1.4292e-06
1.22776e-06
1.23136e-06
1.23715e-06
1.23733e-06
1.42845e-06
1.43079e-06
1.22928e-06
1.22927e-06
1.23763e-06
1.23618e-06
1.23072e-06
1.23844e-06
1.24556e-06
1.42648e-06
1.42861e-06
1.23069e-06
1.23759e-06
1.24477e-06
1.4473e-06
1.43513e-06
1.45487e-06
1.24139e-06
1.2405e-06
1.25594e-06
1.25497e-06
1.43504e-06
1.45422e-06
1.2409e-06
1.23928e-06
1.2536e-06
1.24983e-06
1.24784e-06
1.25509e-06
1.25143e-06
1.43247e-06
1.44639e-06
1.24723e-06
1.25363e-06
1.25116e-06
1.44932e-06
1.45937e-06
1.46164e-06
1.25915e-06
1.25896e-06
1.26472e-06
1.26434e-06
1.4592e-06
1.46025e-06
1.25732e-06
1.25458e-06
1.26465e-06
1.26578e-06
1.2526e-06
1.26295e-06
1.25856e-06
1.45155e-06
1.46271e-06
1.25257e-06
1.26392e-06
1.25839e-06
1.44807e-06
1.46322e-06
1.46334e-06
1.26628e-06
1.26557e-06
1.27079e-06
1.26909e-06
1.46145e-06
1.4589e-06
1.26632e-06
1.2682e-06
1.27125e-06
1.27245e-06
1.26142e-06
1.26833e-06
1.27183e-06
1.46608e-06
1.46711e-06
1.26102e-06
1.26971e-06
1.2697e-06
1.46478e-06
1.46598e-06
1.47325e-06
1.27232e-06
1.27107e-06
1.27822e-06
1.2793e-06
1.46187e-06
1.47447e-06
1.27293e-06
1.27313e-06
1.27839e-06
1.27621e-06
1.27557e-06
1.28087e-06
1.28216e-06
1.46842e-06
1.46845e-06
1.27324e-06
1.27672e-06
1.28154e-06
1.47882e-06
1.47712e-06
1.48329e-06
1.2811e-06
1.28318e-06
1.28792e-06
1.29107e-06
1.48011e-06
1.48854e-06
1.28025e-06
1.27827e-06
1.28577e-06
1.28703e-06
1.28329e-06
1.2905e-06
1.28658e-06
1.47201e-06
1.48513e-06
1.28327e-06
1.2889e-06
1.28715e-06
1.48323e-06
1.48597e-06
1.48813e-06
1.28944e-06
1.29174e-06
1.29375e-06
1.29239e-06
1.49034e-06
1.48685e-06
1.28834e-06
1.2901e-06
1.29492e-06
1.29432e-06
1.2881e-06
1.29174e-06
1.29389e-06
1.48917e-06
1.48991e-06
1.28882e-06
1.29431e-06
1.29495e-06
1.48957e-06
1.49016e-06
1.49075e-06
1.29503e-06
1.29324e-06
1.29837e-06
1.2985e-06
1.48866e-06
1.49267e-06
1.29607e-06
1.2949e-06
1.29789e-06
1.29743e-06
1.29535e-06
1.29914e-06
1.29786e-06
1.49106e-06
1.48872e-06
1.29597e-06
1.29728e-06
1.29711e-06
1.49118e-06
1.49335e-06
1.50334e-06
1.2997e-06
1.30021e-06
1.30623e-06
1.30386e-06
1.49565e-06
1.49823e-06
1.29895e-06
1.29909e-06
1.3058e-06
1.30609e-06
1.29881e-06
1.30381e-06
1.30356e-06
1.49165e-06
1.50259e-06
1.29774e-06
1.30402e-06
1.30215e-06
1.50058e-06
1.50806e-06
1.51317e-06
1.30864e-06
1.30555e-06
1.31266e-06
1.31248e-06
1.50111e-06
1.51241e-06
1.30897e-06
1.3087e-06
1.31288e-06
1.31238e-06
1.30544e-06
1.31235e-06
1.31023e-06
1.5072e-06
1.51335e-06
1.30461e-06
1.31287e-06
1.31061e-06
1.50979e-06
1.51467e-06
1.5081e-06
1.31292e-06
1.31369e-06
1.31303e-06
1.31347e-06
1.51598e-06
1.51255e-06
1.31292e-06
1.31261e-06
1.31242e-06
1.31321e-06
1.31109e-06
1.31371e-06
1.31171e-06
1.51521e-06
1.51024e-06
1.31143e-06
1.31341e-06
1.31171e-06
1.50477e-06
1.50919e-06
1.50899e-06
1.3127e-06
1.313e-06
1.3131e-06
1.31144e-06
1.51331e-06
1.50463e-06
1.31208e-06
1.31297e-06
1.31319e-06
1.31273e-06
1.31166e-06
1.31161e-06
1.31362e-06
1.51116e-06
1.5069e-06
1.3115e-06
1.31235e-06
1.31323e-06
1.51008e-06
1.51229e-06
1.52128e-06
1.31416e-06
1.31209e-06
1.31932e-06
1.31805e-06
1.50702e-06
1.51842e-06
1.31432e-06
1.31376e-06
1.31949e-06
1.31991e-06
1.3153e-06
1.31867e-06
1.32207e-06
1.50975e-06
1.52112e-06
1.3148e-06
1.3199e-06
1.3217e-06
1.52775e-06
1.52435e-06
1.52308e-06
1.32098e-06
1.3209e-06
1.32207e-06
1.32316e-06
1.52366e-06
1.52713e-06
1.3206e-06
1.32184e-06
1.32086e-06
1.32191e-06
1.32275e-06
1.323e-06
1.321e-06
1.5254e-06
1.52526e-06
1.32246e-06
1.32206e-06
1.32057e-06
1.52192e-06
1.52437e-06
1.51955e-06
1.3215e-06
1.32237e-06
1.31996e-06
1.31977e-06
1.52825e-06
1.51795e-06
1.32032e-06
1.32092e-06
1.31906e-06
1.31838e-06
1.31983e-06
1.31923e-06
1.31756e-06
1.52637e-06
1.51747e-06
1.31936e-06
1.31808e-06
1.31683e-06
1.51376e-06
1.52081e-06
1.51997e-06
1.31948e-06
1.31913e-06
1.31971e-06
1.32009e-06
1.51894e-06
1.51954e-06
1.31864e-06
1.31793e-06
1.31918e-06
1.31899e-06
1.31782e-06
1.32035e-06
1.32084e-06
1.51862e-06
1.51932e-06
1.31702e-06
1.31918e-06
1.32008e-06
1.52096e-06
1.5226e-06
1.5286e-06
1.32037e-06
1.32098e-06
1.32335e-06
1.32535e-06
1.52326e-06
1.53468e-06
1.31994e-06
1.31984e-06
1.32315e-06
1.32374e-06
1.32205e-06
1.32611e-06
1.32509e-06
1.52259e-06
1.53079e-06
1.32135e-06
1.32453e-06
1.32489e-06
1.53093e-06
1.53167e-06
1.53257e-06
1.3244e-06
1.3259e-06
1.32417e-06
1.32299e-06
1.53795e-06
1.53321e-06
1.324e-06
1.3244e-06
1.32376e-06
1.32325e-06
1.32555e-06
1.32318e-06
1.32447e-06
1.53369e-06
1.53091e-06
1.32544e-06
1.32334e-06
1.32429e-06
1.53554e-06
1.53381e-06
1.52325e-06
1.32301e-06
1.32144e-06
1.31858e-06
1.31556e-06
1.53394e-06
1.51661e-06
1.32273e-06
1.32227e-06
1.31861e-06
1.31773e-06
1.32314e-06
1.31536e-06
1.31809e-06
1.53195e-06
1.52027e-06
1.32294e-06
1.31764e-06
1.31808e-06
1.52423e-06
1.52377e-06
1.51611e-06
1.3164e-06
1.31386e-06
1.3134e-06
1.31299e-06
1.51715e-06
1.514e-06
1.31656e-06
1.31612e-06
1.31346e-06
1.31444e-06
1.31565e-06
1.31273e-06
1.31151e-06
1.52117e-06
1.51996e-06
1.31581e-06
1.31446e-06
1.31165e-06
1.512e-06
1.51879e-06
1.52849e-06
1.31377e-06
1.31412e-06
1.31791e-06
1.31913e-06
1.51754e-06
1.53053e-06
1.31368e-06
1.31463e-06
1.31722e-06
1.31746e-06
1.31168e-06
1.31872e-06
1.3148e-06
1.52321e-06
1.53074e-06
1.31167e-06
1.31689e-06
1.31403e-06
1.52294e-06
1.53256e-06
1.53212e-06
1.31945e-06
1.32048e-06
1.31776e-06
1.31837e-06
1.53472e-06
1.53551e-06
1.31853e-06
1.31776e-06
1.3166e-06
1.31419e-06
1.31684e-06
1.31816e-06
1.31805e-06
1.53321e-06
1.52706e-06
1.31586e-06
1.3137e-06
1.31718e-06
1.53698e-06
1.53321e-06
1.52239e-06
1.31531e-06
1.31606e-06
1.30785e-06
1.30851e-06
1.53679e-06
1.52597e-06
1.31428e-06
1.31219e-06
1.30725e-06
1.30625e-06
1.31609e-06
1.30872e-06
1.30939e-06
1.52793e-06
1.5176e-06
1.31544e-06
1.30646e-06
1.30913e-06
1.52309e-06
1.52327e-06
1.51122e-06
1.30586e-06
1.30626e-06
1.30005e-06
1.29771e-06
1.52646e-06
1.50477e-06
1.30545e-06
1.30501e-06
1.30041e-06
1.3014e-06
1.30649e-06
1.29708e-06
1.29742e-06
1.51869e-06
1.51074e-06
1.30618e-06
1.3006e-06
1.29749e-06
1.49952e-06
1.5118e-06
1.50435e-06
1.29821e-06
1.29517e-06
1.29525e-06
1.29242e-06
1.50479e-06
1.49835e-06
1.29876e-06
1.30015e-06
1.29583e-06
1.29776e-06
1.29603e-06
1.29266e-06
1.29582e-06
1.51176e-06
1.51046e-06
1.2963e-06
1.29815e-06
1.2962e-06
1.50849e-06
1.50725e-06
1.52214e-06
1.29548e-06
1.29303e-06
1.29984e-06
1.30079e-06
1.5026e-06
1.52822e-06
1.29598e-06
1.29784e-06
1.29966e-06
1.30068e-06
1.2969e-06
1.30212e-06
1.30341e-06
1.51398e-06
1.52854e-06
1.29731e-06
1.30147e-06
1.30273e-06
1.53984e-06
1.52801e-06
1.52593e-06
1.30176e-06
1.30277e-06
1.29656e-06
1.29648e-06
1.53431e-06
1.52526e-06
1.3014e-06
1.30135e-06
1.29595e-06
1.29404e-06
1.30282e-06
1.29565e-06
1.29102e-06
1.53275e-06
1.52179e-06
1.30165e-06
1.29221e-06
1.28936e-06
1.51333e-06
1.52614e-06
1.48907e-06
1.29262e-06
1.29215e-06
1.27435e-06
1.2724e-06
1.52403e-06
1.48082e-06
1.29198e-06
1.29006e-06
1.27353e-06
1.27142e-06
1.28484e-06
1.27042e-06
1.26684e-06
1.52083e-06
1.47871e-06
1.28312e-06
1.26932e-06
1.26593e-06
1.46488e-06
1.4882e-06
1.47893e-06
1.26965e-06
1.26878e-06
1.26632e-06
1.26777e-06
1.48084e-06
1.48421e-06
1.26871e-06
1.26776e-06
1.26541e-06
1.26697e-06
1.26581e-06
1.26773e-06
1.2699e-06
1.47839e-06
1.47852e-06
1.26517e-06
1.26785e-06
1.27005e-06
1.48572e-06
1.48333e-06
1.50573e-06
1.26808e-06
1.26972e-06
1.27454e-06
1.27644e-06
1.49154e-06
1.51634e-06
1.26741e-06
1.26947e-06
1.27461e-06
1.27822e-06
1.27431e-06
1.27734e-06
1.28354e-06
1.48503e-06
1.51681e-06
1.27473e-06
1.2801e-06
1.2848e-06
1.53311e-06
1.51129e-06
1.48689e-06
1.27614e-06
1.27666e-06
1.24834e-06
1.24574e-06
1.51923e-06
1.47892e-06
1.27655e-06
1.27964e-06
1.2493e-06
1.24914e-06
1.28276e-06
1.24553e-06
1.24545e-06
1.52248e-06
1.49213e-06
1.28413e-06
1.24833e-06
1.24543e-06
1.48739e-06
1.4612e-06
1.20657e-06
1.20341e-06
1.44998e-06
1.20728e-06
1.20636e-06
7.59224e-07
7.57975e-07
7.54892e-07
1.20145e-06
1.46387e-06
1.20072e-06
4.34373e-10
2.44619e-09
3.35895e-10
4.74594e-10
5.08829e-09
3.60753e-09
2.83742e-09
1.12455e-09
3.77663e-09
4.48075e-09
9.10396e-10
9.68067e-09
4.99072e-09
9.73574e-09
7.60102e-08
7.64519e-09
1.75386e-07
6.22914e-09
2.75777e-07
1.44298e-06
2.92603e-06
8.74843e-09
2.26126e-07
7.28082e-09
3.50213e-07
1.1783e-09
1.41595e-09
1.398e-09
1.47038e-09
1.16279e-09
1.40127e-09
1.38139e-09
4.43503e-09
7.38314e-08
2.63247e-09
3.3424e-09
4.65763e-09
5.29804e-08
2.60476e-09
1.4138e-06
2.83721e-06
3.27216e-09
2.59617e-09
8.78565e-08
4.93517e-09
3.45251e-09
2.54998e-09
6.52598e-08
2.20705e-07
2.68365e-07
4.53789e-09
1.88383e-07
2.44597e-07
1.68218e-08
4.9302e-07
1.23146e-08
6.99005e-07
6.67243e-06
9.7738e-06
1.81026e-08
6.30716e-07
1.32974e-08
8.64819e-07
1.1492e-09
1.38605e-09
1.36375e-09
1.40405e-09