/*--------------------------------*- C++ -*----------------------------------*\
| =========                 |                                                 |
| \\      /  F ield         | OpenFOAM: The Open Source CFD Toolbox           |
|  \\    /   O peration     | Version:  v2012                                 |
|   \\  /    A nd           | Website:  www.openfoam.com                      |
|    \\/     M anipulation  |                                                 |
\*---------------------------------------------------------------------------*/
FoamFile
{
    version     2.0;
    format      ascii;
    class       volScalarField;
    location    "1300";
    object      epsilon;
}
// * * * * * * * * * * * * * * * * * * * * * * * * * * * * * * * * * * * * * //

dimensions      [0 2 -3 0 0 0 0];


internalField   nonuniform List<scalar> 
171728
(
1.18783e-09
3.11164e-09
5.41383e-09
4.92053e-09
1.16279e-09
2.83022e-09
4.0334e-09
4.68301e-09
1.10428e-09
2.56007e-09
3.11589e-09
4.56451e-09
1.04199e-09
2.34626e-09
2.62503e-09
4.18487e-09
9.87227e-10
2.18132e-09
2.31422e-09
3.51578e-09
9.37446e-10
2.06397e-09
2.15589e-09
3.16882e-09
8.92921e-10
1.99157e-09
2.08346e-09
2.84789e-09
8.51943e-10
1.9457e-09
2.05727e-09
2.67103e-09
8.1532e-10
1.91397e-09
2.02787e-09
2.52027e-09
7.80182e-10
1.90047e-09
2.0181e-09
2.38994e-09
7.47687e-10
1.90702e-09
2.02975e-09
2.30796e-09
7.17722e-10
1.94197e-09
2.0826e-09
2.2558e-09
6.89823e-10
2.01534e-09
2.16733e-09
2.24553e-09
6.64888e-10
2.15238e-09
2.31555e-09
2.28568e-09
6.41458e-10
2.34356e-09
2.53996e-09
2.40435e-09
6.21041e-10
2.66158e-09
2.83323e-09
2.62434e-09
6.04489e-10
3.10253e-09
3.40981e-09
3.07698e-09
5.88187e-10
4.02342e-09
3.96499e-09
3.7627e-09
5.78587e-10
4.94297e-09
5.49414e-09
4.8662e-09
5.70639e-10
6.81945e-09
6.81641e-09
8.07888e-09
5.7638e-10
8.20536e-09
9.39805e-09
1.00113e-08
5.85718e-10
1.34136e-08
1.28495e-08
1.66026e-08
6.06822e-10
1.78382e-08
1.82501e-08
3.32209e-08
6.60406e-10
2.27235e-08
2.40485e-08
4.28064e-08
7.23874e-10
3.49245e-08
3.45456e-08
7.27052e-08
8.39475e-10
4.25491e-08
4.42194e-08
1.08012e-07
1.05581e-09
5.82171e-08
5.88135e-08
1.60808e-07
1.30952e-09
7.89573e-08
7.73662e-08
2.13882e-07
1.57193e-09
9.08133e-08
9.34613e-08
2.8714e-07
2.2138e-09
1.19513e-07
1.2041e-07
3.86707e-07
2.83708e-09
1.43617e-07
1.44354e-07
4.20993e-07
3.78519e-09
1.71297e-07
1.7419e-07
5.24573e-07
5.05948e-09
2.06448e-07
2.0497e-07
5.90423e-07
6.92247e-09
2.415e-07
2.47575e-07
6.48335e-07
8.9588e-09
2.77293e-07
2.69354e-07
7.03821e-07
1.16294e-08
3.20009e-07
3.30116e-07
7.57261e-07
1.60292e-08
3.60694e-07
3.67667e-07
8.05664e-07
1.95783e-08
4.12846e-07
3.9739e-07
8.37148e-07
2.64962e-08
4.50457e-07
4.57755e-07
8.73678e-07
3.29799e-08
5.02822e-07
5.1304e-07
9.17992e-07
4.04232e-08
5.55016e-07
5.47459e-07
9.57728e-07
5.1499e-08
5.98602e-07
6.04155e-07
9.68901e-07
6.14231e-08
6.41639e-07
6.41273e-07
1.00004e-06
7.49353e-08
7.03961e-07
7.03404e-07
1.03142e-06
9.1272e-08
7.39012e-07
7.41151e-07
1.06814e-06
1.08442e-07
7.75747e-07
7.72698e-07
1.10351e-06
1.25307e-07
8.37105e-07
8.42917e-07
1.11516e-06
1.52858e-07
8.62216e-07
8.65921e-07
1.13043e-06
1.68361e-07
8.9972e-07
8.93978e-07
1.16515e-06
1.99617e-07
9.44502e-07
9.48102e-07
1.20799e-06
2.271e-07
9.64586e-07
9.69947e-07
1.22135e-06
2.55312e-07
1.00449e-06
9.89366e-07
1.23226e-06
2.88631e-07
1.02835e-06
1.02402e-06
1.24779e-06
3.09483e-07
1.04618e-06
1.06277e-06
1.2876e-06
3.5101e-07
1.08367e-06
1.07977e-06
1.30795e-06
3.80813e-07
1.1003e-06
1.10264e-06
1.31544e-06
4.15507e-07
1.1143e-06
1.10886e-06
1.30956e-06
4.37989e-07
1.13068e-06
1.13632e-06
1.33936e-06
4.72864e-07
1.16681e-06
1.16529e-06
1.3885e-06
5.02706e-07
1.1801e-06
1.1799e-06
1.39686e-06
5.32522e-07
1.18556e-06
1.18432e-06
1.37824e-06
5.54103e-07
1.19413e-06
1.19962e-06
1.38079e-06
5.69078e-07
1.22127e-06
1.22316e-06
1.42626e-06
5.97999e-07
1.23485e-06
1.23277e-06
1.43881e-06
6.27512e-07
1.24603e-06
1.24425e-06
1.44097e-06
6.47342e-07
1.25659e-06
1.25175e-06
1.45234e-06
6.55689e-07
1.26396e-06
1.25535e-06
1.45221e-06
6.66631e-07
1.26067e-06
1.28153e-06
1.45546e-06
6.9689e-07
1.2867e-06
1.28792e-06
1.49408e-06
7.14154e-07
1.30322e-06
1.28207e-06
1.49145e-06
7.19535e-07
1.28727e-06
1.28978e-06
1.47697e-06
7.31554e-07
1.29017e-06
1.30621e-06
1.49531e-06
7.48463e-07
1.3141e-06
1.30597e-06
1.51066e-06
7.58664e-07
1.31024e-06
1.30539e-06
1.50973e-06
7.69664e-07
1.31036e-06
1.31612e-06
1.51665e-06
7.79311e-07
1.31591e-06
1.3183e-06
1.51357e-06
7.85453e-07
1.31452e-06
1.31696e-06
1.50608e-06
7.92145e-07
1.32818e-06
1.32397e-06
1.53745e-06
7.9993e-07
1.32853e-06
1.31921e-06
1.53352e-06
8.04443e-07
1.30685e-06
1.31526e-06
1.50277e-06
8.05627e-07
1.31179e-06
1.31964e-06
1.52151e-06
8.13038e-07
1.34341e-06
1.33447e-06
1.56806e-06
8.16642e-07
1.3237e-06
1.33142e-06
1.53149e-06
8.08088e-07
1.29283e-06
1.29321e-06
1.47857e-06
8.08196e-07
1.31232e-06
1.30266e-06
1.53383e-06
8.22739e-07
1.33025e-06
1.33779e-06
1.56833e-06
8.14466e-07
1.31061e-06
1.30939e-06
1.51947e-06
8.02432e-07
1.2926e-06
1.28495e-06
1.49143e-06
8.06534e-07
1.29494e-06
1.3006e-06
1.51465e-06
8.06986e-07
1.2996e-06
1.30585e-06
1.52704e-06
7.93882e-07
1.29202e-06
1.28293e-06
1.51965e-06
7.92424e-07
1.28743e-06
1.27894e-06
1.52241e-06
7.95929e-07
1.2732e-06
1.28419e-06
1.50228e-06
7.83813e-07
1.24003e-06
1.25805e-06
1.44875e-06
7.49832e-07
1.18375e-06
1.18192e-06
1.40889e-06
4.81906e-09
3.01755e-09
4.4652e-09
4.16079e-09
4.32481e-09
3.23515e-09
1.15908e-09
1.41609e-09
1.41189e-09
1.55019e-09
3.13847e-09
2.91525e-09
4.53992e-09
3.32121e-09
6.97137e-09
4.96928e-09
4.79831e-09
4.33019e-09
2.87226e-09
7.6398e-09
2.58201e-09
7.14178e-09
4.14129e-09
3.91623e-09
5.23902e-09
3.71681e-09
4.81914e-09
3.5804e-09
2.85166e-09
2.90505e-09
2.69313e-09
4.51607e-09
4.11642e-09
1.34038e-08
4.3474e-09
1.35098e-08
4.72731e-09
4.30403e-09
3.95392e-09
2.51046e-09
7.01382e-09
2.43521e-09
6.7582e-09
3.87265e-09
3.74145e-09
4.69216e-09
3.54277e-09
4.37191e-09
3.46436e-09
2.63994e-09
2.62281e-09
2.48022e-09
4.08697e-09
3.71914e-09
1.3455e-08
3.29631e-09
1.31177e-08
4.61649e-09
3.94617e-09
3.63479e-09
2.41081e-09
6.69908e-09
2.25644e-09
6.59173e-09
3.70809e-09
3.60669e-09
4.28457e-09
3.4404e-09
3.9229e-09
3.37406e-09
2.43257e-09
2.39404e-09
2.31198e-09
3.69778e-09
3.42511e-09
1.29111e-08
2.72362e-09
1.11073e-08
4.33957e-09
3.62192e-09
3.3655e-09
2.22082e-09
6.55789e-09
2.14298e-09
6.38573e-09
3.57811e-09
3.46498e-09
3.76409e-09
3.3498e-09
3.2784e-09
3.27479e-09
2.27437e-09
2.21888e-09
2.17342e-09
3.40993e-09
3.17356e-09
1.01814e-08
2.37769e-09
7.25351e-09
3.54736e-09
3.35225e-09
3.10446e-09
2.12168e-09
6.31434e-09
2.06475e-09
6.04619e-09
3.4313e-09
3.28956e-09
3.13379e-09
3.24876e-09
2.78667e-09
3.17148e-09
2.14409e-09
2.08775e-09
2.06801e-09
3.16172e-09
2.96686e-09
6.45584e-09
2.18297e-09
4.77098e-09
3.19417e-09
3.09493e-09
2.8651e-09
2.04699e-09
5.90633e-09
2.00267e-09
5.32246e-09
3.25868e-09
2.94348e-09
2.69164e-09
3.14857e-09
2.43365e-09
3.09423e-09
2.04669e-09
2.00673e-09
1.99543e-09
2.95867e-09
2.80009e-09
4.39822e-09
2.09627e-09
3.63353e-09
2.85872e-09
2.85876e-09
2.6496e-09
1.99004e-09
5.09929e-09
1.9582e-09
4.47473e-09
2.91557e-09
2.7069e-09
2.35889e-09
3.08683e-09
2.18107e-09
3.08662e-09
1.98018e-09
1.95566e-09
1.94695e-09
2.79608e-09
2.68456e-09
3.45744e-09
2.06429e-09
3.11008e-09
2.6768e-09
2.64565e-09
2.46742e-09
1.94936e-09
4.30519e-09
1.92679e-09
3.94079e-09
2.69813e-09
2.56759e-09
2.13714e-09
3.09356e-09
2.01732e-09
3.1708e-09
1.93756e-09
1.92034e-09
1.91431e-09
2.68428e-09
2.62497e-09
3.00784e-09
2.03305e-09
2.8051e-09
2.52359e-09
2.46743e-09
2.33039e-09
1.92097e-09
3.86383e-09
1.90695e-09
3.74301e-09
2.56453e-09
2.48234e-09
1.99083e-09
3.19955e-09
1.95218e-09
3.33892e-09
1.90963e-09
1.90252e-09
1.90241e-09
2.62812e-09
2.57229e-09
2.77788e-09
2.01788e-09
2.66512e-09
2.38899e-09
2.33289e-09
2.23141e-09
1.90453e-09
3.72697e-09
1.90542e-09
3.66607e-09
2.48422e-09
2.42296e-09
1.94122e-09
3.39513e-09
1.91651e-09
3.50133e-09
1.9023e-09
1.90308e-09
1.90941e-09
2.57405e-09
2.48882e-09
2.6162e-09
2.02564e-09
2.49909e-09
2.30322e-09
2.23752e-09
2.17314e-09
1.9092e-09
3.64131e-09
1.93275e-09
3.57901e-09
2.42823e-09
2.36689e-09
1.91637e-09
3.52826e-09
1.92998e-09
3.76217e-09
1.91465e-09
1.93347e-09
1.94094e-09
2.49727e-09
2.49842e-09
2.47483e-09
2.06545e-09
2.43187e-09
2.24537e-09
2.18578e-09
2.15702e-09
1.94499e-09
3.53707e-09
1.99883e-09
3.31523e-09
2.37314e-09
2.30616e-09
1.94115e-09
3.8337e-09
1.98674e-09
4.02276e-09
1.95385e-09
2.00116e-09
2.00543e-09
2.51696e-09
2.55063e-09
2.42731e-09
2.14078e-09
2.43585e-09
2.22621e-09
2.17813e-09
2.19107e-09
2.02319e-09
3.25805e-09
2.11519e-09
3.13639e-09
2.3184e-09
2.28564e-09
2.00761e-09
4.10312e-09
2.10023e-09
4.31206e-09
2.03047e-09
2.12111e-09
2.11939e-09
2.57282e-09
2.59756e-09
2.448e-09
2.27942e-09
2.50101e-09
2.25427e-09
2.22566e-09
2.29031e-09
2.15535e-09
3.10431e-09
2.30548e-09
3.07503e-09
2.31648e-09
2.3652e-09
2.13807e-09
4.3278e-09
2.28833e-09
4.23315e-09
2.15997e-09
2.28163e-09
2.29842e-09
2.63183e-09
2.68801e-09
2.53246e-09
2.47275e-09
2.64456e-09
2.35053e-09
2.34235e-09
2.49182e-09
2.36017e-09
3.10049e-09
2.59224e-09
3.52054e-09
2.41518e-09
2.6094e-09
2.3502e-09
4.19082e-09
2.57023e-09
4.14162e-09
2.36174e-09
2.57929e-09
2.57637e-09
2.73623e-09
2.79161e-09
2.69685e-09
2.74322e-09
2.88691e-09
2.53475e-09
2.58258e-09
2.83949e-09
2.69027e-09
3.61732e-09
3.04391e-09
4.1593e-09
2.71544e-09
3.01858e-09
2.65611e-09
4.18578e-09
2.99242e-09
4.51276e-09
2.67674e-09
3.01302e-09
3.01328e-09
2.85123e-09
3.19002e-09
2.97631e-09
3.2661e-09
3.30224e-09
2.91633e-09
2.99036e-09
3.49994e-09
3.18133e-09
4.39446e-09
3.71001e-09
4.74949e-09
3.17583e-09
3.83902e-09
3.15318e-09
4.60458e-09
3.63641e-09
4.85969e-09
3.17191e-09
3.80475e-09
3.63954e-09
3.38665e-09
3.54657e-09
3.46096e-09
3.84848e-09
3.88868e-09
3.48905e-09
3.76062e-09
4.49067e-09
3.9437e-09
4.98657e-09
4.58945e-09
5.94742e-09
4.15628e-09
4.73351e-09
3.84861e-09
5.07269e-09
4.62702e-09
6.58243e-09
3.89495e-09
4.48524e-09
4.61343e-09
3.71129e-09
5.4037e-09
4.136e-09
5.0832e-09
4.86846e-09
4.57065e-09
4.90644e-09
6.59908e-09
4.95482e-09
6.35918e-09
6.45118e-09
7.51492e-09
5.16537e-09
7.32658e-09
4.94925e-09
7.14955e-09
6.2251e-09
7.9193e-09
4.81103e-09
6.55512e-09
6.44726e-09
5.93395e-09
6.57084e-09
5.05908e-09
6.18902e-09
6.60377e-09
7.15266e-09
7.32053e-09
9.62521e-09
6.84043e-09
7.56499e-09
8.26356e-09
8.60742e-09
7.51339e-09
7.86969e-09
6.63635e-09
8.31916e-09
8.22468e-09
9.85458e-09
7.00186e-09
7.60436e-09
8.25096e-09
7.21367e-09
1.09161e-08
7.16597e-09
9.11697e-09
8.48664e-09
9.38248e-09
1.06418e-08
1.59891e-08
8.99386e-09
9.60987e-09
1.17078e-08
1.67529e-08
9.05466e-09
1.97086e-08
8.94255e-09
9.93983e-09
1.1394e-08
1.08829e-08
8.73111e-09
1.21343e-08
1.08974e-08
1.12216e-08
1.30149e-08
8.96529e-09
1.10439e-08
1.10371e-08
1.40622e-08
1.80695e-08
2.58086e-08
1.29518e-08
1.83759e-08
1.64858e-08
1.94377e-08
2.2335e-08
2.70324e-08
1.24911e-08
1.27212e-08
1.61637e-08
1.91529e-08
1.23998e-08
1.64067e-08
1.75027e-08
1.61729e-08
3.1069e-08
1.24228e-08
1.73219e-08
1.76863e-08
3.11643e-08
2.79738e-08
4.11138e-08
1.72139e-08
1.96171e-08
2.24205e-08
2.15847e-08
2.91875e-08
3.86209e-08
1.70432e-08
2.06231e-08
2.24959e-08
2.34091e-08
1.84595e-08
2.14641e-08
2.1482e-08
3.26314e-08
3.74896e-08
1.8757e-08
2.17955e-08
2.2108e-08
3.8505e-08
4.61149e-08
6.51683e-08
2.44882e-08
2.28508e-08
3.0197e-08
3.19529e-08
4.15955e-08
7.01786e-08
2.44294e-08
2.50874e-08
2.96671e-08
3.2222e-08
2.37389e-08
3.14852e-08
3.08741e-08
4.17131e-08
7.19446e-08
2.43457e-08
3.22146e-08
3.13509e-08
6.73324e-08
7.24175e-08
1.02067e-07
3.33845e-08
3.54081e-08
4.22069e-08
4.1232e-08
8.00546e-08
1.0179e-07
3.29326e-08
3.4461e-08
4.21091e-08
4.11706e-08
3.30206e-08
4.07571e-08
4.09492e-08
7.9317e-08
9.81812e-08
3.34816e-08
4.13399e-08
4.20327e-08
9.90506e-08
1.06252e-07
1.33802e-07
4.3431e-08
4.30539e-08
5.29716e-08
5.36318e-08
1.0543e-07
1.38958e-07
4.33201e-08
4.36216e-08
5.23452e-08
5.37462e-08
4.42131e-08
5.32587e-08
5.4714e-08
1.04162e-07
1.42704e-07
4.53947e-08
5.42296e-08
5.58303e-08
1.49605e-07
1.51695e-07
2.30496e-07
5.9713e-08
5.83452e-08
7.42692e-08
7.42696e-08
1.5463e-07
2.24792e-07
5.9028e-08
5.85125e-08
7.32127e-08
7.29121e-08
5.88147e-08
7.43389e-08
7.15319e-08
1.55366e-07
2.15299e-07
6.0031e-08
7.35043e-08
7.32825e-08
2.03721e-07
2.4083e-07
2.68013e-07
7.8084e-08
7.9143e-08
9.01547e-08
8.8271e-08
2.38045e-07
2.72136e-07
7.70722e-08
7.6894e-08
8.92265e-08
8.98472e-08
7.42636e-08
8.71565e-08
8.81984e-08
2.28911e-07
2.69523e-07
7.61445e-08
8.85483e-08
8.906e-08
2.68152e-07
2.79352e-07
3.39425e-07
9.30788e-08
9.21491e-08
1.0992e-07
1.12515e-07
2.80915e-07
3.40573e-07
9.24928e-08
9.4339e-08
1.09812e-07
1.12183e-07
9.64378e-08
1.12283e-07
1.17486e-07
2.81067e-07
3.47476e-07
9.84568e-08
1.13908e-07
1.2311e-07
3.74523e-07
3.56716e-07
4.36942e-07
1.18819e-07
1.19235e-07
1.39703e-07
1.37574e-07
3.60911e-07
4.34855e-07
1.17994e-07
1.18932e-07
1.38357e-07
1.37941e-07
1.21211e-07
1.37587e-07
1.31771e-07
3.65759e-07
4.3011e-07
1.27272e-07
1.37673e-07
1.33839e-07
4.10504e-07
4.53151e-07
4.96787e-07
1.4478e-07
1.43995e-07
1.64629e-07
1.65231e-07
4.49592e-07
4.94845e-07
1.43947e-07
1.46034e-07
1.64924e-07
1.69927e-07
1.38981e-07
1.64218e-07
1.66752e-07
4.46472e-07
5.02977e-07
1.37519e-07
1.67373e-07
1.6535e-07
5.02894e-07
5.10821e-07
5.70913e-07
1.72779e-07
1.7226e-07
1.98005e-07
1.96757e-07
5.09902e-07
5.74029e-07
1.72669e-07
1.74922e-07
1.94698e-07
1.90288e-07
1.75374e-07
1.96043e-07
1.98821e-07
5.15564e-07
5.67318e-07
1.7629e-07
1.95164e-07
2.02524e-07
5.77931e-07
5.86452e-07
6.37682e-07
2.06147e-07
2.07096e-07
2.31647e-07
2.35421e-07
5.90662e-07
6.38569e-07
2.0272e-07
2.01641e-07
2.32679e-07
2.42315e-07
2.06686e-07
2.34742e-07
2.32167e-07
5.86459e-07
6.41956e-07
2.10154e-07
2.38252e-07
2.3301e-07
6.3444e-07
6.5314e-07
6.92606e-07
2.4194e-07
2.4208e-07
2.7182e-07
2.6649e-07
6.50997e-07
6.91979e-07
2.44048e-07
2.52272e-07
2.69722e-07
2.68795e-07
2.40832e-07
2.65973e-07
2.68301e-07
6.52824e-07
6.8382e-07
2.4096e-07
2.64518e-07
2.67708e-07
6.91018e-07
7.02927e-07
7.3822e-07
2.79643e-07
2.77994e-07
3.04507e-07
3.12537e-07
7.06083e-07
7.44091e-07
2.75621e-07
2.78598e-07
3.03613e-07
3.30215e-07
2.77289e-07
3.11066e-07
3.09658e-07
6.97132e-07
7.53713e-07
2.76515e-07
3.11739e-07
3.08633e-07
7.43779e-07
7.52846e-07
7.93905e-07
3.16939e-07
3.21535e-07
3.56734e-07
3.49023e-07
7.54982e-07
7.87985e-07
3.18187e-07
3.43814e-07
3.58396e-07
3.63568e-07
3.2214e-07
3.48243e-07
3.54394e-07
7.68457e-07
7.91977e-07
3.21284e-07
3.62146e-07
3.54593e-07
7.9535e-07
8.03998e-07
8.2843e-07
3.67467e-07
3.61113e-07
3.94897e-07
4.01627e-07
8.00829e-07
8.35145e-07
3.6725e-07
3.67455e-07
3.90914e-07
3.80183e-07
3.66026e-07
4.01559e-07
3.97659e-07
7.98641e-07
8.17288e-07
3.66341e-07
3.88824e-07
3.96515e-07
8.28072e-07
8.39019e-07
8.72213e-07
4.05995e-07
4.12854e-07
4.45427e-07
4.40504e-07
8.44573e-07
8.6552e-07
4.02484e-07
3.89581e-07
4.44964e-07
4.47175e-07
4.07038e-07
4.39682e-07
4.38515e-07
8.27883e-07
8.70897e-07
4.05245e-07
4.38822e-07
4.35634e-07
8.64e-07
8.8254e-07
9.04659e-07
4.60672e-07
4.51773e-07
4.9451e-07
4.92172e-07
8.74695e-07
9.04225e-07
4.60863e-07
4.67551e-07
4.95382e-07
5.09674e-07
4.49553e-07
4.89778e-07
4.93742e-07
8.83352e-07
9.10106e-07
4.48186e-07
5.0361e-07
4.95348e-07
9.04569e-07
9.12534e-07
9.3702e-07
5.02962e-07
5.0477e-07
5.37588e-07
5.42246e-07
9.14752e-07
9.4038e-07
5.03371e-07
5.17411e-07
5.37239e-07
5.42333e-07
5.09421e-07
5.41435e-07
5.49505e-07
9.17826e-07
9.37123e-07
5.09862e-07
5.36595e-07
5.48437e-07
9.51928e-07
9.46983e-07
9.71816e-07
5.51648e-07
5.55644e-07
5.9269e-07
5.90575e-07
9.48463e-07
9.66201e-07
5.51176e-07
5.53397e-07
5.91961e-07
5.91858e-07
5.62121e-07
5.90785e-07
5.94554e-07
9.45911e-07
9.70324e-07
5.61222e-07
5.91408e-07
5.91845e-07
9.63306e-07
9.79e-07
9.95282e-07
6.03894e-07
5.98911e-07
6.3434e-07
6.29652e-07
9.72906e-07
9.93889e-07
6.03485e-07
6.03773e-07
6.34047e-07
6.32394e-07
6.02965e-07
6.27515e-07
6.24238e-07
9.77563e-07
9.92323e-07
5.98906e-07
6.31065e-07
6.22198e-07
9.90801e-07
1.00266e-06
1.02713e-06
6.44155e-07
6.43907e-07
6.82432e-07
6.8941e-07
1.00375e-06
1.0347e-06
6.43493e-07
6.4378e-07
6.82689e-07
6.83161e-07
6.35177e-07
6.89349e-07
6.8332e-07
1.00004e-06
1.03235e-06
6.36581e-07
6.87079e-07
6.87557e-07
1.02367e-06
1.03613e-06
1.05791e-06
6.96739e-07
7.03718e-07
7.32146e-07
7.34047e-07
1.04212e-06
1.05393e-06
6.97218e-07
6.97528e-07
7.3176e-07
7.37625e-07
6.97868e-07
7.33363e-07
7.34643e-07
1.04224e-06
1.05801e-06
7.00942e-07
7.35662e-07
7.29479e-07
1.05798e-06
1.06403e-06
1.08091e-06
7.41546e-07
7.39985e-07
7.72623e-07
7.62873e-07
1.05859e-06
1.07557e-06
7.41126e-07
7.46762e-07
7.73262e-07
7.64017e-07
7.45219e-07
7.60584e-07
7.8308e-07
1.06174e-06
1.07165e-06
7.37435e-07
7.59199e-07
7.80037e-07
1.09631e-06
1.08842e-06
1.11063e-06
7.83579e-07
7.7745e-07
8.14815e-07
8.25057e-07
1.08503e-06
1.1194e-06
7.83933e-07
7.73152e-07
8.14022e-07
8.23872e-07
7.96903e-07
8.26322e-07
8.23255e-07
1.0799e-06
1.12289e-06
7.96359e-07
8.29094e-07
8.30231e-07
1.11231e-06
1.11793e-06
1.13975e-06
8.27649e-07
8.35861e-07
8.61995e-07
8.5747e-07
1.12577e-06
1.13425e-06
8.26908e-07
8.3859e-07
8.62941e-07
8.60478e-07
8.28623e-07
8.5584e-07
8.44144e-07
1.13171e-06
1.13802e-06
8.36816e-07
8.62616e-07
8.55277e-07
1.12408e-06
1.1458e-06
1.1575e-06
8.68381e-07
8.64502e-07
8.89119e-07
8.90119e-07
1.13873e-06
1.15935e-06
8.69629e-07
8.64356e-07
8.88707e-07
8.88176e-07
8.49383e-07
8.88568e-07
8.88648e-07
1.13977e-06
1.15021e-06
8.61821e-07
8.82083e-07
8.78749e-07
1.15584e-06
1.16314e-06
1.18736e-06
8.99718e-07
9.00619e-07
9.32407e-07
9.33926e-07
1.16747e-06
1.19003e-06
8.98606e-07
9.00065e-07
9.31444e-07
9.34001e-07
9.08107e-07
9.35149e-07
9.48756e-07
1.16014e-06
1.19564e-06
8.88768e-07
9.3676e-07
9.3544e-07
1.20041e-06
1.19475e-06
1.21142e-06
9.4102e-07
9.4331e-07
9.6141e-07
9.60929e-07
1.19592e-06
1.20731e-06
9.40717e-07
9.44126e-07
9.62621e-07
9.65065e-07
9.55477e-07
9.60793e-07
9.67004e-07
1.20175e-06
1.21015e-06
9.48954e-07
9.6685e-07
9.72206e-07
1.21875e-06
1.21717e-06
1.23672e-06
9.69467e-07
9.65478e-07
9.98317e-07
9.94344e-07
1.21184e-06
1.23271e-06
9.70683e-07
9.70387e-07
9.98138e-07
9.91244e-07
9.69741e-07
9.926e-07
9.87606e-07
1.21359e-06
1.22576e-06
9.76181e-07
9.8258e-07
9.91703e-07
1.22719e-06
1.24253e-06
1.25203e-06
1.0063e-06
1.00581e-06
1.02053e-06
1.02618e-06
1.24129e-06
1.25673e-06
1.00536e-06
9.98557e-07
1.01924e-06
1.02121e-06
9.95715e-07
1.02572e-06
1.01419e-06
1.23136e-06
1.2466e-06
9.966e-07
1.01407e-06
1.00824e-06
1.2429e-06
1.25527e-06
1.26669e-06
1.02338e-06
1.02879e-06
1.03893e-06
1.03634e-06
1.25953e-06
1.26438e-06
1.02284e-06
1.02972e-06
1.04241e-06
1.05226e-06
1.0219e-06
1.03667e-06
1.05092e-06
1.25274e-06
1.28092e-06
1.01587e-06
1.05501e-06
1.05243e-06
1.27863e-06
1.27396e-06
1.29905e-06
1.04905e-06
1.04502e-06
1.07873e-06
1.08022e-06
1.27057e-06
1.30345e-06
1.05242e-06
1.0569e-06
1.07761e-06
1.06655e-06
1.05896e-06
1.07942e-06
1.07482e-06
1.28767e-06
1.2965e-06
1.06204e-06
1.07489e-06
1.08155e-06
1.30406e-06
1.30374e-06
1.30926e-06
1.08397e-06
1.08568e-06
1.09035e-06
1.09424e-06
1.30842e-06
1.31228e-06
1.08173e-06
1.07304e-06
1.08928e-06
1.0992e-06
1.08027e-06
1.09452e-06
1.09818e-06
1.30006e-06
1.31513e-06
1.08663e-06
1.09868e-06
1.09485e-06
1.31347e-06
1.31349e-06
1.33149e-06
1.09545e-06
1.09909e-06
1.11904e-06
1.11221e-06
1.31562e-06
1.32254e-06
1.09607e-06
1.10515e-06
1.11995e-06
1.11324e-06
1.10197e-06
1.11273e-06
1.10794e-06
1.32001e-06
1.32305e-06
1.09556e-06
1.10725e-06
1.09639e-06
1.30831e-06
1.33541e-06
1.33694e-06
1.12315e-06
1.1141e-06
1.12703e-06
1.12362e-06
1.3247e-06
1.33119e-06
1.12371e-06
1.11452e-06
1.12734e-06
1.12722e-06
1.10925e-06
1.12153e-06
1.12223e-06
1.32487e-06
1.3383e-06
1.09789e-06
1.1273e-06
1.11844e-06
1.32728e-06
1.34028e-06
1.36271e-06
1.12978e-06
1.13326e-06
1.15348e-06
1.16045e-06
1.3394e-06
1.37222e-06
1.13002e-06
1.13486e-06
1.15487e-06
1.15542e-06
1.13371e-06
1.16125e-06
1.1652e-06
1.34699e-06
1.36906e-06
1.13196e-06
1.15897e-06
1.16868e-06
1.3813e-06
1.36897e-06
1.37733e-06
1.15989e-06
1.16513e-06
1.17247e-06
1.17457e-06
1.37731e-06
1.38241e-06
1.16129e-06
1.16076e-06
1.17122e-06
1.17267e-06
1.17197e-06
1.17735e-06
1.1821e-06
1.37385e-06
1.37986e-06
1.1764e-06
1.17815e-06
1.18525e-06
1.39571e-06
1.38088e-06
1.39194e-06
1.17702e-06
1.17762e-06
1.18964e-06
1.18426e-06
1.38475e-06
1.38306e-06
1.17547e-06
1.17561e-06
1.19162e-06
1.18352e-06
1.1829e-06
1.18448e-06
1.18137e-06
1.382e-06
1.38125e-06
1.18515e-06
1.18308e-06
1.18049e-06
1.37796e-06
1.39554e-06
1.39817e-06
1.19225e-06
1.18578e-06
1.19674e-06
1.19378e-06
1.38439e-06
1.3884e-06
1.19549e-06
1.18681e-06
1.20047e-06
1.19951e-06
1.18027e-06
1.19014e-06
1.18217e-06
1.38354e-06
1.39515e-06
1.17964e-06
1.1934e-06
1.18316e-06
1.37498e-06
1.40063e-06
1.40614e-06
1.19891e-06
1.19939e-06
1.21193e-06
1.2179e-06
1.39429e-06
1.41805e-06
1.20102e-06
1.20405e-06
1.20722e-06
1.21682e-06
1.18523e-06
1.21573e-06
1.21193e-06
1.40177e-06
1.41899e-06
1.18876e-06
1.21868e-06
1.21944e-06
1.41779e-06
1.40928e-06
1.41522e-06
1.21635e-06
1.22207e-06
1.22573e-06
1.22881e-06
1.42302e-06
1.42742e-06
1.21e-06
1.22048e-06
1.21943e-06
1.22947e-06
1.22235e-06
1.23137e-06
1.23942e-06
1.42308e-06
1.42772e-06
1.22715e-06
1.23114e-06
1.23595e-06
1.43678e-06
1.42015e-06
1.4483e-06
1.22938e-06
1.2308e-06
1.24545e-06
1.2393e-06
1.43001e-06
1.4375e-06
1.22494e-06
1.23167e-06
1.24945e-06
1.24227e-06
1.24144e-06
1.24449e-06
1.24465e-06
1.43051e-06
1.43893e-06
1.2368e-06
1.24018e-06
1.23944e-06
1.43858e-06
1.45597e-06
1.46192e-06
1.25117e-06
1.24285e-06
1.26e-06
1.257e-06
1.44137e-06
1.45118e-06
1.25671e-06
1.24704e-06
1.26324e-06
1.25285e-06
1.24536e-06
1.25244e-06
1.25058e-06
1.44318e-06
1.44348e-06
1.24127e-06
1.25151e-06
1.25397e-06
1.44854e-06
1.46264e-06
1.44351e-06
1.25997e-06
1.26112e-06
1.25678e-06
1.2639e-06
1.45565e-06
1.45788e-06
1.26271e-06
1.2527e-06
1.25421e-06
1.25244e-06
1.25421e-06
1.26412e-06
1.25986e-06
1.44431e-06
1.43949e-06
1.25766e-06
1.253e-06
1.25936e-06
1.45132e-06
1.44408e-06
1.44588e-06
1.25599e-06
1.263e-06
1.25808e-06
1.25841e-06
1.45863e-06
1.44642e-06
1.25227e-06
1.25343e-06
1.2535e-06
1.26887e-06
1.25982e-06
1.26063e-06
1.26055e-06
1.44338e-06
1.47166e-06
1.25881e-06
1.27542e-06
1.2602e-06
1.45039e-06
1.45314e-06
1.48883e-06
1.26312e-06
1.25867e-06
1.28762e-06
1.27748e-06
1.44805e-06
1.47377e-06
1.25788e-06
1.27691e-06
1.28937e-06
1.29147e-06
1.2628e-06
1.27424e-06
1.28572e-06
1.48065e-06
1.49254e-06
1.26398e-06
1.28817e-06
1.28731e-06
1.48776e-06
1.49464e-06
1.4912e-06
1.29292e-06
1.28917e-06
1.29543e-06
1.30306e-06
1.48606e-06
1.50602e-06
1.29533e-06
1.29165e-06
1.29681e-06
1.28606e-06
1.29227e-06
1.3035e-06
1.29642e-06
1.49357e-06
1.47295e-06
1.29238e-06
1.28271e-06
1.29407e-06
1.49129e-06
1.49156e-06
1.47932e-06
1.29395e-06
1.30263e-06
1.28858e-06
1.29022e-06
1.50699e-06
1.47918e-06
1.29417e-06
1.28447e-06
1.2886e-06
1.28582e-06
1.29516e-06
1.29091e-06
1.28759e-06
1.47352e-06
1.47663e-06
1.29196e-06
1.28484e-06
1.28644e-06
1.47558e-06
1.48087e-06
1.49033e-06
1.28848e-06
1.28702e-06
1.29336e-06
1.28726e-06
1.47921e-06
1.47735e-06
1.28868e-06
1.28967e-06
1.29535e-06
1.30421e-06
1.28726e-06
1.28703e-06
1.29193e-06
1.48356e-06
1.50397e-06
1.28652e-06
1.30394e-06
1.29446e-06
1.48882e-06
1.49526e-06
1.50243e-06
1.2976e-06
1.29068e-06
1.30705e-06
1.31028e-06
1.48349e-06
1.51044e-06
1.29969e-06
1.30653e-06
1.30657e-06
1.30646e-06
1.29681e-06
1.3112e-06
1.31108e-06
1.50715e-06
1.50158e-06
1.30002e-06
1.30674e-06
1.31056e-06
1.5083e-06
1.50426e-06
1.50414e-06
1.30818e-06
1.31277e-06
1.31008e-06
1.31091e-06
1.51446e-06
1.50747e-06
1.30659e-06
1.30513e-06
1.30607e-06
1.30355e-06
1.31302e-06
1.31227e-06
1.31293e-06
1.50252e-06
1.49842e-06
1.31103e-06
1.30509e-06
1.30982e-06
1.50827e-06
1.50687e-06
1.51185e-06
1.31091e-06
1.30928e-06
1.31238e-06
1.30892e-06
1.50824e-06
1.50534e-06
1.30654e-06
1.30378e-06
1.31267e-06
1.31136e-06
1.31233e-06
1.30939e-06
1.31286e-06
1.50123e-06
1.51126e-06
1.3097e-06
1.31309e-06
1.31422e-06
1.51366e-06
1.5145e-06
1.51636e-06
1.31266e-06
1.31008e-06
1.31576e-06
1.31657e-06
1.50863e-06
1.51484e-06
1.31519e-06
1.31489e-06
1.31904e-06
1.31924e-06
1.31423e-06
1.31555e-06
1.31462e-06
1.51525e-06
1.51693e-06
1.31676e-06
1.31865e-06
1.31729e-06
1.51306e-06
1.51819e-06
1.516e-06
1.31705e-06
1.31749e-06
1.31826e-06
1.31681e-06
1.51691e-06
1.51311e-06
1.31899e-06
1.31916e-06
1.31677e-06
1.31777e-06
1.31355e-06
1.31455e-06
1.31041e-06
1.51814e-06
1.51574e-06
1.31536e-06
1.31674e-06
1.31061e-06
1.50348e-06
1.51755e-06
1.52054e-06
1.31839e-06
1.31675e-06
1.32063e-06
1.32367e-06
1.51463e-06
1.52788e-06
1.3164e-06
1.31784e-06
1.31803e-06
1.32156e-06
1.31063e-06
1.32332e-06
1.32484e-06
1.51906e-06
1.52673e-06
1.31085e-06
1.32325e-06
1.32498e-06
1.53113e-06
1.52293e-06
1.52018e-06
1.3215e-06
1.32722e-06
1.32177e-06
1.32833e-06
1.53383e-06
1.53375e-06
1.31974e-06
1.32186e-06
1.32052e-06
1.31958e-06
1.32986e-06
1.33036e-06
1.33134e-06
1.52879e-06
1.51819e-06
1.32935e-06
1.32158e-06
1.32947e-06
1.53402e-06
1.52142e-06
1.5208e-06
1.3212e-06
1.32647e-06
1.3195e-06
1.31091e-06
1.53389e-06
1.50333e-06
1.32007e-06
1.31842e-06
1.31982e-06
1.31755e-06
1.32887e-06
1.31034e-06
1.31007e-06
1.51886e-06
1.51431e-06
1.32578e-06
1.31544e-06
1.30901e-06
1.50226e-06
1.52341e-06
1.52392e-06
1.31877e-06
1.30815e-06
1.31685e-06
1.30845e-06
1.50365e-06
1.5069e-06
1.32057e-06
1.31793e-06
1.32066e-06
1.32065e-06
1.30699e-06
1.30699e-06
1.30811e-06
1.51741e-06
1.52428e-06
1.3072e-06
1.31711e-06
1.30997e-06
1.51066e-06
1.52584e-06
1.53281e-06
1.31703e-06
1.31285e-06
1.32699e-06
1.33926e-06
1.51611e-06
1.55804e-06
1.32042e-06
1.32106e-06
1.32289e-06
1.32676e-06
1.31421e-06
1.34117e-06
1.34403e-06
1.52775e-06
1.53888e-06
1.31793e-06
1.33145e-06
1.34332e-06
1.56418e-06
1.53721e-06
1.53576e-06
1.33063e-06
1.34158e-06
1.33149e-06
1.33634e-06
1.5627e-06
1.54098e-06
1.32517e-06
1.32953e-06
1.3259e-06
1.33075e-06
1.34566e-06
1.33627e-06
1.33543e-06
1.54368e-06
1.54303e-06
1.3444e-06
1.33474e-06
1.33418e-06
1.5371e-06
1.53571e-06
1.50042e-06
1.32868e-06
1.32582e-06
1.30355e-06
1.29706e-06
1.53674e-06
1.48837e-06
1.32407e-06
1.32879e-06
1.3052e-06
1.303e-06
1.32042e-06
1.29469e-06
1.2904e-06
1.54287e-06
1.49499e-06
1.31998e-06
1.29926e-06
1.28989e-06
1.47762e-06
1.50083e-06
1.51479e-06
1.29929e-06
1.29437e-06
1.30083e-06
1.29892e-06
1.48918e-06
1.51213e-06
1.30201e-06
1.29731e-06
1.30483e-06
1.2974e-06
1.28921e-06
1.30068e-06
1.30286e-06
1.49442e-06
1.50047e-06
1.28836e-06
1.2939e-06
1.30043e-06
1.51657e-06
1.52755e-06
1.55864e-06
1.30897e-06
1.30902e-06
1.33257e-06
1.32977e-06
1.52477e-06
1.55087e-06
1.31438e-06
1.30506e-06
1.33383e-06
1.33564e-06
1.31805e-06
1.33018e-06
1.33738e-06
1.51389e-06
1.5618e-06
1.31652e-06
1.33654e-06
1.33916e-06
1.56693e-06
1.56056e-06
1.51982e-06
1.33303e-06
1.33033e-06
1.31841e-06
1.32039e-06
1.55276e-06
1.52723e-06
1.33379e-06
1.33654e-06
1.31388e-06
1.32038e-06
1.33707e-06
1.3181e-06
1.31646e-06
1.565e-06
1.52854e-06
1.33901e-06
1.32309e-06
1.31763e-06
1.52285e-06
1.51661e-06
1.49222e-06
1.30739e-06
1.3125e-06
1.29011e-06
1.2949e-06
1.52603e-06
1.50512e-06
1.30232e-06
1.30667e-06
1.28738e-06
1.28528e-06
1.30571e-06
1.29436e-06
1.2872e-06
1.52431e-06
1.48935e-06
1.30541e-06
1.2857e-06
1.28512e-06
1.48987e-06
1.49537e-06
1.52474e-06
1.28991e-06
1.29316e-06
1.30019e-06
1.29404e-06
1.50646e-06
1.51239e-06
1.28754e-06
1.28496e-06
1.30193e-06
1.29632e-06
1.28624e-06
1.29276e-06
1.29019e-06
1.49107e-06
1.51492e-06
1.28435e-06
1.29333e-06
1.29023e-06
1.50754e-06
1.53213e-06
1.53103e-06
1.30504e-06
1.29704e-06
1.30623e-06
1.30088e-06
1.51649e-06
1.52013e-06
1.30704e-06
1.30354e-06
1.30787e-06
1.30837e-06
1.29546e-06
1.29962e-06
1.30287e-06
1.52393e-06
1.53229e-06
1.29638e-06
1.30678e-06
1.30424e-06
1.52525e-06
1.53051e-06
1.48948e-06
1.30337e-06
1.30053e-06
1.2809e-06
1.29184e-06
1.52139e-06
1.51249e-06
1.3045e-06
1.30691e-06
1.27851e-06
1.28516e-06
1.30293e-06
1.29362e-06
1.29686e-06
1.53299e-06
1.50078e-06
1.30417e-06
1.28852e-06
1.29609e-06
1.51842e-06
1.48958e-06
1.49069e-06
1.27685e-06
1.28942e-06
1.27579e-06
1.284e-06
1.51376e-06
1.51359e-06
1.27365e-06
1.27886e-06
1.27221e-06
1.27438e-06
1.29521e-06
1.28809e-06
1.29205e-06
1.50046e-06
1.49413e-06
1.29362e-06
1.27797e-06
1.288e-06
1.52032e-06
1.49852e-06
1.52103e-06
1.27915e-06
1.2834e-06
1.28704e-06
1.27759e-06
1.51561e-06
1.50179e-06
1.27558e-06
1.27586e-06
1.28972e-06
1.28714e-06
1.29127e-06
1.27955e-06
1.28049e-06
1.49952e-06
1.51671e-06
1.28718e-06
1.28444e-06
1.27854e-06
1.50445e-06
1.5233e-06
1.49134e-06
1.28668e-06
1.27321e-06
1.2662e-06
1.24913e-06
1.50051e-06
1.45495e-06
1.28992e-06
1.28739e-06
1.27361e-06
1.27255e-06
1.27246e-06
1.24501e-06
1.24138e-06
1.51902e-06
1.49005e-06
1.27289e-06
1.26579e-06
1.2465e-06
1.45003e-06
1.48788e-06
1.43456e-06
1.25834e-06
1.24491e-06
1.22037e-06
1.22082e-06
1.45412e-06
1.42997e-06
1.26464e-06
1.26399e-06
1.21846e-06
1.21697e-06
1.23609e-06
1.21602e-06
1.2119e-06
1.4867e-06
1.43144e-06
1.24194e-06
1.21773e-06
1.21628e-06
1.42225e-06
1.41587e-06
1.18483e-06
1.18768e-06
1.41673e-06
1.18222e-06
1.18053e-06
7.53732e-07
7.48221e-07
7.50613e-07
1.17954e-06
1.41241e-06
1.18267e-06
9.39723e-11
2.31854e-09
1.31894e-10
2.03119e-10
5.65393e-09
3.14364e-09
2.85207e-09
9.6324e-10
5.4892e-09
4.00855e-09
9.96241e-10
2.55166e-08
5.09869e-09
5.84684e-09
1.70987e-08
7.31361e-09
2.21462e-07
5.88343e-09
3.29744e-07
1.54257e-06
3.09182e-06
8.68042e-09
2.19267e-07
7.30487e-09
3.39965e-07
1.45918e-09
1.44364e-09
1.61045e-09
1.17798e-09
1.45224e-09
1.4342e-09
1.59778e-09
4.87573e-09
7.40581e-08
2.66904e-09
3.05358e-09
5.1675e-09
5.32139e-08
2.64102e-09
1.74553e-06
3.47953e-06
4.77333e-09
3.00365e-09
1.03623e-07
5.06086e-09
5.02869e-09
2.92406e-09
8.20191e-08
1.90414e-07
2.23461e-07
4.80701e-09
1.70545e-07
1.94073e-07
1.68438e-08
5.8877e-07
1.22106e-08
7.38401e-07
6.92237e-06
1.01147e-05
1.79537e-08
5.95799e-07
1.33119e-08
8.28516e-07
1.43515e-09
1.42003e-09
1.56832e-09
1.11946e-09
1.38274e-09