/*--------------------------------*- C++ -*----------------------------------*\
| =========                 |                                                 |
| \\      /  F ield         | OpenFOAM: The Open Source CFD Toolbox           |
|  \\    /   O peration     | Version:  v2012                                 |
|   \\  /    A nd           | Website:  www.openfoam.com                      |
|    \\/     M anipulation  |                                                 |
\*---------------------------------------------------------------------------*/
FoamFile
{
    version     2.0;
    format      ascii;
    class       volScalarField;
    location    "1300";
    object      k;
}
// * * * * * * * * * * * * * * * * * * * * * * * * * * * * * * * * * * * * * //

dimensions      [0 2 -2 0 0 0 0];


internalField   nonuniform List<scalar> 
171728
(
1.41875e-07
2.50822e-07
4.34563e-07
3.43572e-07
1.40383e-07
2.35979e-07
4.1279e-07
3.27224e-07
1.37097e-07
2.17977e-07
3.47522e-07
3.19327e-07
1.3376e-07
1.99584e-07
2.55091e-07
3.1802e-07
1.32889e-07
1.81107e-07
1.89559e-07
3.18946e-07
1.28799e-07
1.69222e-07
1.66902e-07
3.006e-07
1.24225e-07
1.6788e-07
1.63543e-07
2.4706e-07
1.20154e-07
1.7065e-07
1.65492e-07
2.42313e-07
1.18446e-07
1.73867e-07
1.66901e-07
2.35853e-07
1.16275e-07
1.74941e-07
1.65954e-07
2.25904e-07
1.13758e-07
1.73544e-07
1.63596e-07
2.16909e-07
1.11224e-07
1.70905e-07
1.62321e-07
2.09643e-07
1.08801e-07
1.68369e-07
1.63501e-07
2.03524e-07
1.06388e-07
1.68181e-07
1.67911e-07
1.97324e-07
1.04049e-07
1.69642e-07
1.73231e-07
1.93339e-07
1.01989e-07
1.74951e-07
1.79169e-07
1.93022e-07
1.00056e-07
1.84679e-07
1.94217e-07
1.9996e-07
9.81434e-08
2.0829e-07
2.09001e-07
2.13925e-07
9.65556e-08
2.28612e-07
2.53827e-07
2.44755e-07
9.51139e-08
2.85757e-07
2.86912e-07
3.51064e-07
9.43381e-08
3.19305e-07
3.7662e-07
4.04089e-07
9.3535e-08
5.00152e-07
4.74839e-07
6.06923e-07
9.31992e-08
6.47437e-07
6.74426e-07
1.26484e-06
9.37017e-08
8.01486e-07
8.61629e-07
1.51726e-06
9.49324e-08
1.28095e-06
1.26032e-06
2.61266e-06
9.79999e-08
1.51708e-06
1.60579e-06
3.81058e-06
1.05525e-07
2.09344e-06
2.12546e-06
5.66153e-06
1.16102e-07
2.95108e-06
2.85567e-06
7.44884e-06
1.25751e-07
3.28994e-06
3.40749e-06
9.743e-06
1.53862e-07
4.4521e-06
4.48677e-06
1.34786e-05
1.845e-07
5.35189e-06
5.37388e-06
1.39761e-05
2.29726e-07
6.40098e-06
6.56189e-06
1.75746e-05
2.94364e-07
7.75257e-06
7.62608e-06
1.9719e-05
3.91592e-07
9.1593e-06
9.48616e-06
2.14472e-05
5.06519e-07
1.04306e-05
1.01166e-05
2.32172e-05
6.24449e-07
1.21314e-05
1.25901e-05
2.5014e-05
8.9953e-07
1.35547e-05
1.40891e-05
2.67218e-05
1.05442e-06
1.57401e-05
1.48228e-05
2.77191e-05
1.45485e-06
1.69575e-05
1.72343e-05
2.8944e-05
1.84893e-06
1.89644e-05
1.96525e-05
3.0613e-05
2.18479e-06
2.10206e-05
2.05482e-05
3.22964e-05
2.84497e-06
2.26244e-05
2.28603e-05
3.26109e-05
3.36556e-06
2.39741e-05
2.40432e-05
3.35427e-05
4.03916e-06
2.67287e-05
2.66186e-05
3.49356e-05
4.99795e-06
2.79532e-05
2.80454e-05
3.62575e-05
5.89552e-06
2.88368e-05
2.86371e-05
3.79489e-05
6.71056e-06
3.18122e-05
3.21097e-05
3.84658e-05
8.32399e-06
3.25443e-05
3.29246e-05
3.85584e-05
8.94772e-06
3.38539e-05
3.32727e-05
3.99825e-05
1.07026e-05
3.59573e-05
3.60821e-05
4.21383e-05
1.20547e-05
3.65618e-05
3.7119e-05
4.26073e-05
1.34832e-05
3.82258e-05
3.72885e-05
4.28562e-05
1.54388e-05
3.94506e-05
3.87608e-05
4.33657e-05
1.59992e-05
3.98051e-05
4.1004e-05
4.52364e-05
1.82846e-05
4.18591e-05
4.17646e-05
4.62056e-05
1.99092e-05
4.26478e-05
4.27647e-05
4.65203e-05
2.1615e-05
4.32087e-05
4.29549e-05
4.60698e-05
2.26457e-05
4.35652e-05
4.40728e-05
4.71896e-05
2.4343e-05
4.58654e-05
4.58547e-05
4.97694e-05
2.59119e-05
4.67142e-05
4.67418e-05
5.0292e-05
2.77087e-05
4.68623e-05
4.67421e-05
4.93197e-05
2.87903e-05
4.69234e-05
4.71988e-05
4.91343e-05
2.91093e-05
4.86399e-05
4.89178e-05
5.14334e-05
3.08246e-05
4.95757e-05
4.95398e-05
5.22565e-05
3.25274e-05
5.01145e-05
4.9947e-05
5.22511e-05
3.40034e-05
5.07252e-05
5.04315e-05
5.2806e-05
3.4749e-05
5.12849e-05
5.05417e-05
5.29311e-05
3.48569e-05
5.10773e-05
5.21949e-05
5.2918e-05
3.63277e-05
5.21562e-05
5.29223e-05
5.48864e-05
3.81012e-05
5.38219e-05
5.25905e-05
5.50302e-05
3.87078e-05
5.31895e-05
5.27037e-05
5.428e-05
3.90353e-05
5.29863e-05
5.408e-05
5.49604e-05
3.99601e-05
5.45662e-05
5.433e-05
5.60212e-05
4.08744e-05
5.48808e-05
5.43166e-05
5.61397e-05
4.18719e-05
5.48564e-05
5.5052e-05
5.65085e-05
4.25e-05
5.51592e-05
5.54343e-05
5.64423e-05
4.29685e-05
5.53075e-05
5.54725e-05
5.6064e-05
4.34911e-05
5.63436e-05
5.61606e-05
5.76995e-05
4.41148e-05
5.66637e-05
5.60839e-05
5.78059e-05
4.45289e-05
5.55109e-05
5.58335e-05
5.62811e-05
4.48618e-05
5.56407e-05
5.6383e-05
5.70353e-05
4.55858e-05
5.8153e-05
5.76294e-05
5.97485e-05
4.60754e-05
5.77549e-05
5.76949e-05
5.83148e-05
4.55832e-05
5.55106e-05
5.56489e-05
5.55483e-05
4.55439e-05
5.63281e-05
5.58325e-05
5.79045e-05
4.7276e-05
5.82567e-05
5.86951e-05
6.02748e-05
4.73023e-05
5.77222e-05
5.79315e-05
5.82614e-05
4.61835e-05
5.65432e-05
5.59726e-05
5.66571e-05
4.65183e-05
5.66282e-05
5.67579e-05
5.76979e-05
4.72697e-05
5.73197e-05
5.7778e-05
5.86659e-05
4.6657e-05
5.74427e-05
5.6967e-05
5.86583e-05
4.64087e-05
5.75599e-05
5.66699e-05
5.90104e-05
4.72348e-05
5.69259e-05
5.72396e-05
5.81028e-05
4.70362e-05
5.45047e-05
5.61858e-05
5.52637e-05
4.52617e-05
5.32225e-05
5.38047e-05
5.4778e-05
3.35383e-07
2.251e-07
2.66772e-07
2.99235e-07
3.21845e-07
2.12038e-07
1.39109e-07
1.53054e-07
1.58649e-07
1.71828e-07
2.67429e-07
2.3625e-07
3.10875e-07
2.89656e-07
4.15619e-07
3.46124e-07
3.3156e-07
3.07657e-07
2.48375e-07
3.86837e-07
1.95196e-07
3.56688e-07
2.97196e-07
2.84848e-07
5.34877e-07
2.14344e-07
4.86456e-07
2.08067e-07
2.10712e-07
2.40206e-07
2.02143e-07
3.09853e-07
2.9436e-07
5.33629e-07
4.18327e-07
5.65955e-07
3.29922e-07
3.0577e-07
2.85617e-07
1.85738e-07
3.48485e-07
1.70814e-07
3.40258e-07
2.82216e-07
2.7312e-07
4.57293e-07
2.06482e-07
3.76165e-07
2.04506e-07
1.99767e-07
2.22689e-07
1.92715e-07
2.92516e-07
2.7288e-07
5.77197e-07
3.70568e-07
6.12792e-07
3.21177e-07
2.84353e-07
2.7454e-07
1.68224e-07
3.40327e-07
1.63416e-07
3.49501e-07
2.70873e-07
2.63789e-07
3.56694e-07
2.04509e-07
3.21243e-07
2.07844e-07
1.90311e-07
2.04054e-07
1.83575e-07
2.71039e-07
2.58924e-07
6.25928e-07
2.76786e-07
6.73442e-07
3.19197e-07
2.74082e-07
2.67985e-07
1.62331e-07
3.54321e-07
1.60075e-07
3.70728e-07
2.62503e-07
2.60048e-07
3.15829e-07
2.09446e-07
3.12184e-07
2.11226e-07
1.81363e-07
1.8561e-07
1.75091e-07
2.5792e-07
2.42694e-07
6.90728e-07
2.01448e-07
7.24777e-07
3.21087e-07
2.67886e-07
2.65918e-07
1.59854e-07
3.76409e-07
1.59857e-07
3.93444e-07
2.59168e-07
2.55108e-07
3.1251e-07
2.11189e-07
3.15631e-07
2.07525e-07
1.7327e-07
1.70955e-07
1.68693e-07
2.42141e-07
2.33155e-07
7.2618e-07
1.69933e-07
6.61714e-07
3.0984e-07
2.65956e-07
2.61973e-07
1.59969e-07
3.99921e-07
1.61285e-07
4.18727e-07
2.54296e-07
2.56101e-07
3.15598e-07
2.05588e-07
2.95978e-07
1.97974e-07
1.67659e-07
1.67843e-07
1.66598e-07
2.33134e-07
2.26561e-07
6.02147e-07
1.63609e-07
4.37637e-07
2.49299e-07
2.61277e-07
2.47107e-07
1.62108e-07
4.24011e-07
1.65005e-07
4.37428e-07
2.55876e-07
2.5997e-07
2.8023e-07
1.95794e-07
2.3954e-07
1.90802e-07
1.66612e-07
1.69666e-07
1.67644e-07
2.26556e-07
2.18343e-07
3.93161e-07
1.64626e-07
3.13458e-07
2.42266e-07
2.4619e-07
2.31767e-07
1.6601e-07
4.40731e-07
1.68592e-07
4.44063e-07
2.59655e-07
2.60272e-07
2.2834e-07
1.89164e-07
2.0169e-07
1.86366e-07
1.68309e-07
1.73228e-07
1.70194e-07
2.18153e-07
2.12054e-07
2.99515e-07
1.66802e-07
2.76778e-07
2.36282e-07
2.31299e-07
2.201e-07
1.69148e-07
4.43268e-07
1.69763e-07
4.2688e-07
2.5942e-07
2.53486e-07
1.95465e-07
1.86295e-07
1.83248e-07
1.91366e-07
1.70802e-07
1.74884e-07
1.72319e-07
2.12075e-07
2.08654e-07
2.73035e-07
1.66347e-07
2.59409e-07
2.26432e-07
2.19833e-07
2.09289e-07
1.6968e-07
4.23008e-07
1.68149e-07
4.15773e-07
2.52865e-07
2.49965e-07
1.80613e-07
2.00142e-07
1.73977e-07
2.26639e-07
1.72637e-07
1.74013e-07
1.72933e-07
2.09274e-07
2.12339e-07
2.53294e-07
1.64236e-07
2.35549e-07
2.17223e-07
2.09157e-07
2.01237e-07
1.67555e-07
4.13668e-07
1.66142e-07
4.07915e-07
2.49974e-07
2.45471e-07
1.7225e-07
2.37643e-07
1.69044e-07
2.84481e-07
1.7274e-07
1.71629e-07
1.71514e-07
2.1412e-07
2.26163e-07
2.30492e-07
1.62302e-07
2.17417e-07
2.09737e-07
2.01295e-07
1.9512e-07
1.65691e-07
4.01815e-07
1.64883e-07
3.58317e-07
2.44594e-07
2.25561e-07
1.68233e-07
3.01967e-07
1.66629e-07
3.51665e-07
1.71157e-07
1.69113e-07
1.69995e-07
2.29293e-07
2.44363e-07
2.13703e-07
1.62959e-07
2.04711e-07
2.03524e-07
1.95329e-07
1.90695e-07
1.64892e-07
3.38156e-07
1.65358e-07
2.8285e-07
2.23727e-07
2.03557e-07
1.66271e-07
3.70875e-07
1.65826e-07
4.27896e-07
1.69889e-07
1.6802e-07
1.69368e-07
2.48148e-07
2.53917e-07
2.02452e-07
1.66689e-07
1.96831e-07
1.97182e-07
1.91106e-07
1.88214e-07
1.65757e-07
2.69422e-07
1.67492e-07
2.48774e-07
2.03114e-07
1.99267e-07
1.65905e-07
4.40262e-07
1.67044e-07
4.53446e-07
1.69384e-07
1.68986e-07
1.69647e-07
2.55027e-07
2.55282e-07
1.95559e-07
1.71722e-07
1.91321e-07
1.92761e-07
1.89003e-07
1.88671e-07
1.68287e-07
2.48344e-07
1.7141e-07
2.56609e-07
2.00201e-07
2.04599e-07
1.67859e-07
4.53198e-07
1.70981e-07
4.11716e-07
1.70004e-07
1.73596e-07
1.7205e-07
2.55599e-07
2.31631e-07
1.90515e-07
1.77268e-07
1.88956e-07
1.91577e-07
1.90351e-07
1.93591e-07
1.73241e-07
2.70897e-07
1.79332e-07
3.29678e-07
2.07858e-07
2.24121e-07
1.72443e-07
3.90961e-07
1.78266e-07
3.41746e-07
1.73562e-07
1.82725e-07
1.7888e-07
2.30321e-07
2.24302e-07
1.8923e-07
1.89885e-07
1.92196e-07
1.96398e-07
1.96903e-07
2.08e-07
1.82404e-07
3.47788e-07
1.93866e-07
3.85311e-07
2.30759e-07
2.56407e-07
1.81945e-07
3.31114e-07
1.92536e-07
3.21891e-07
1.82605e-07
2.01301e-07
1.91036e-07
2.28176e-07
2.28809e-07
1.95061e-07
2.06368e-07
2.02427e-07
2.0749e-07
2.14826e-07
2.3381e-07
1.99661e-07
3.98019e-07
2.17591e-07
4.19545e-07
2.67177e-07
2.7974e-07
1.97901e-07
3.23194e-07
2.18299e-07
3.74838e-07
1.97557e-07
2.2021e-07
2.1814e-07
2.31726e-07
2.86638e-07
2.07622e-07
2.40302e-07
2.2808e-07
2.37635e-07
2.45038e-07
2.97414e-07
2.25662e-07
4.20685e-07
2.69836e-07
3.8535e-07
2.88614e-07
3.47686e-07
2.25782e-07
4.02058e-07
2.6461e-07
4.28217e-07
2.22197e-07
2.77772e-07
2.70711e-07
3.05402e-07
3.1726e-07
2.31962e-07
2.73349e-07
2.75987e-07
3.17406e-07
3.19385e-07
3.94947e-07
2.81533e-07
3.55669e-07
3.25908e-07
3.51091e-07
3.50411e-07
3.28782e-07
2.7696e-07
4.3049e-07
3.22151e-07
4.42463e-07
2.88053e-07
3.03808e-07
3.25821e-07
3.30669e-07
4.68709e-07
2.92657e-07
3.67482e-07
3.33256e-07
3.88749e-07
4.24514e-07
6.16375e-07
3.51127e-07
3.74813e-07
4.33743e-07
7.02964e-07
3.60972e-07
7.7428e-07
3.46186e-07
4.32741e-07
4.2177e-07
4.30405e-07
3.39958e-07
4.56149e-07
3.97399e-07
4.74956e-07
4.87248e-07
3.47093e-07
4.13873e-07
4.03374e-07
5.26075e-07
6.86546e-07
9.6399e-07
4.76606e-07
7.78251e-07
6.05349e-07
7.99883e-07
8.72296e-07
1.01714e-06
4.61542e-07
4.63247e-07
5.8725e-07
7.22565e-07
4.51909e-07
5.93895e-07
6.44421e-07
5.86888e-07
1.20699e-06
4.51411e-07
6.44916e-07
6.51415e-07
1.19279e-06
1.03298e-06
1.48154e-06
6.2497e-07
7.78924e-07
8.09643e-07
7.81669e-07
1.0768e-06
1.40273e-06
6.09381e-07
7.87543e-07
8.17661e-07
8.72694e-07
6.76196e-07
7.69533e-07
7.61418e-07
1.25237e-06
1.35021e-06
6.86932e-07
7.79344e-07
7.93623e-07
1.38793e-06
1.65736e-06
2.32302e-06
8.83659e-07
8.0374e-07
1.07519e-06
1.15646e-06
1.48435e-06
2.50297e-06
8.87261e-07
9.22866e-07
1.04974e-06
1.17833e-06
8.45109e-07
1.14132e-06
1.11244e-06
1.47121e-06
2.60968e-06
8.76013e-07
1.18161e-06
1.14001e-06
2.43737e-06
2.56713e-06
3.6851e-06
1.20315e-06
1.29808e-06
1.53577e-06
1.48643e-06
2.87758e-06
3.67938e-06
1.18529e-06
1.2548e-06
1.53667e-06
1.48675e-06
1.18443e-06
1.46711e-06
1.47371e-06
2.88568e-06
3.50822e-06
1.21165e-06
1.50021e-06
1.52324e-06
3.50622e-06
3.79108e-06
4.53696e-06
1.57496e-06
1.53587e-06
1.84629e-06
1.92084e-06
3.75751e-06
4.775e-06
1.57517e-06
1.57395e-06
1.82705e-06
1.90864e-06
1.59985e-06
1.90661e-06
1.96862e-06
3.67384e-06
4.97478e-06
1.66075e-06
1.94867e-06
2.0275e-06
5.28368e-06
5.17042e-06
8.30758e-06
2.15474e-06
2.09534e-06
2.74014e-06
2.74688e-06
5.33e-06
7.99591e-06
2.12768e-06
2.10331e-06
2.69218e-06
2.67348e-06
2.12913e-06
2.76172e-06
2.63733e-06
5.40248e-06
7.58677e-06
2.18526e-06
2.71373e-06
2.7203e-06
7.13714e-06
8.63443e-06
9.27792e-06
2.88476e-06
2.94915e-06
3.34753e-06
3.24072e-06
8.46819e-06
9.46718e-06
2.83953e-06
2.8133e-06
3.30642e-06
3.29777e-06
2.72718e-06
3.21575e-06
3.13974e-06
8.06747e-06
9.30882e-06
2.82651e-06
3.23956e-06
3.16636e-06
9.10485e-06
9.60766e-06
1.14336e-05
3.43066e-06
3.33046e-06
3.96996e-06
4.15526e-06
9.66367e-06
1.14889e-05
3.38385e-06
3.44713e-06
3.99916e-06
4.12243e-06
3.51985e-06
4.13797e-06
4.47229e-06
9.63237e-06
1.18015e-05
3.58622e-06
4.22404e-06
4.78887e-06
1.31358e-05
1.19868e-05
1.48997e-05
4.37171e-06
4.43537e-06
5.25109e-06
5.11665e-06
1.22024e-05
1.4761e-05
4.35529e-06
4.39438e-06
5.19608e-06
5.09701e-06
4.60205e-06
5.1379e-06
4.81386e-06
1.24043e-05
1.45263e-05
4.94202e-06
5.12248e-06
5.06198e-06
1.37686e-05
1.54351e-05
1.65561e-05
5.41787e-06
5.35044e-06
6.12963e-06
6.17851e-06
1.51971e-05
1.65071e-05
5.38835e-06
5.42281e-06
6.16015e-06
6.41081e-06
5.03374e-06
6.13709e-06
6.2302e-06
1.50457e-05
1.68878e-05
5.11153e-06
6.29828e-06
6.09327e-06
1.67776e-05
1.6967e-05
1.90093e-05
6.44732e-06
6.44052e-06
7.45212e-06
7.34638e-06
1.69759e-05
1.90581e-05
6.46486e-06
6.58819e-06
7.29404e-06
6.93984e-06
6.58959e-06
7.32027e-06
7.50253e-06
1.72629e-05
1.87082e-05
6.61143e-06
7.25038e-06
7.72577e-06
1.93687e-05
1.95023e-05
2.1119e-05
7.76544e-06
7.77453e-06
8.69908e-06
8.96032e-06
1.95977e-05
2.12862e-05
7.58428e-06
7.32141e-06
8.75887e-06
9.16846e-06
7.79627e-06
8.93986e-06
8.75383e-06
1.93118e-05
2.1422e-05
8.01425e-06
9.1015e-06
8.83617e-06
2.10274e-05
2.16201e-05
2.29772e-05
9.10956e-06
9.17635e-06
1.03268e-05
9.98372e-06
2.16562e-05
2.28194e-05
9.2499e-06
9.58968e-06
1.0253e-05
1.01212e-05
9.07059e-06
9.97519e-06
1.01085e-05
2.17823e-05
2.25807e-05
9.10495e-06
1.00142e-05
1.00843e-05
2.28182e-05
2.3265e-05
2.42794e-05
1.06037e-05
1.04473e-05
1.13917e-05
1.18776e-05
2.32668e-05
2.46662e-05
1.04031e-05
1.03779e-05
1.13258e-05
1.28152e-05
1.04327e-05
1.18151e-05
1.16748e-05
2.29304e-05
2.50889e-05
1.04033e-05
1.16776e-05
1.16347e-05
2.45734e-05
2.47536e-05
2.63479e-05
1.18773e-05
1.22028e-05
1.35417e-05
1.31036e-05
2.49922e-05
2.59967e-05
1.19416e-05
1.34886e-05
1.36756e-05
1.41297e-05
1.21938e-05
1.30735e-05
1.34039e-05
2.56816e-05
2.64667e-05
1.21551e-05
1.39817e-05
1.3426e-05
2.63919e-05
2.66616e-05
2.74126e-05
1.39633e-05
1.35624e-05
1.4877e-05
1.52632e-05
2.64096e-05
2.7796e-05
1.39936e-05
1.41414e-05
1.46616e-05
1.41943e-05
1.38666e-05
1.52832e-05
1.50757e-05
2.6579e-05
2.68689e-05
1.39039e-05
1.45974e-05
1.50401e-05
2.74632e-05
2.77371e-05
2.90866e-05
1.52823e-05
1.57123e-05
1.68361e-05
1.66123e-05
2.81043e-05
2.87715e-05
1.5085e-05
1.43058e-05
1.68142e-05
1.67739e-05
1.53712e-05
1.65992e-05
1.64393e-05
2.71571e-05
2.89787e-05
1.53022e-05
1.63655e-05
1.62753e-05
2.86132e-05
2.94507e-05
3.02362e-05
1.74888e-05
1.70011e-05
1.8783e-05
1.85718e-05
2.90417e-05
3.01489e-05
1.75088e-05
1.77927e-05
1.88524e-05
1.96827e-05
1.68271e-05
1.84594e-05
1.86151e-05
2.94796e-05
3.05851e-05
1.67382e-05
1.93241e-05
1.87549e-05
3.01454e-05
3.0457e-05
3.12998e-05
1.90099e-05
1.90571e-05
2.02082e-05
2.04983e-05
3.05179e-05
3.15434e-05
1.9055e-05
1.99029e-05
2.02017e-05
2.05534e-05
1.92432e-05
2.04713e-05
2.08312e-05
3.08015e-05
3.13611e-05
1.93473e-05
2.02152e-05
2.08175e-05
3.20865e-05
3.16583e-05
3.2743e-05
2.0769e-05
2.10383e-05
2.24414e-05
2.2361e-05
3.18201e-05
3.24986e-05
2.07572e-05
2.0923e-05
2.24102e-05
2.23788e-05
2.13851e-05
2.24172e-05
2.27095e-05
3.16271e-05
3.26826e-05
2.1358e-05
2.23304e-05
2.25315e-05
3.24993e-05
3.29749e-05
3.35662e-05
2.28624e-05
2.25924e-05
2.39078e-05
2.35267e-05
3.26878e-05
3.33771e-05
2.28442e-05
2.28507e-05
2.39014e-05
2.37795e-05
2.29352e-05
2.34389e-05
2.32912e-05
3.29318e-05
3.34382e-05
2.26897e-05
2.37429e-05
2.30783e-05
3.32272e-05
3.37895e-05
3.47611e-05
2.42216e-05
2.40854e-05
2.56456e-05
2.6051e-05
3.37286e-05
3.52081e-05
2.4191e-05
2.41605e-05
2.56615e-05
2.56413e-05
2.35199e-05
2.60554e-05
2.56522e-05
3.36489e-05
3.49558e-05
2.35195e-05
2.58699e-05
2.59437e-05
3.46661e-05
3.50879e-05
3.60297e-05
2.62305e-05
2.66894e-05
2.7634e-05
2.7846e-05
3.54927e-05
3.59247e-05
2.62644e-05
2.62321e-05
2.76259e-05
2.7979e-05
2.63047e-05
2.78484e-05
2.77132e-05
3.53461e-05
3.61105e-05
2.65735e-05
2.79326e-05
2.75169e-05
3.59125e-05
3.62227e-05
3.68777e-05
2.79666e-05
2.79658e-05
2.90905e-05
2.84083e-05
3.60217e-05
3.64897e-05
2.79502e-05
2.83233e-05
2.91377e-05
2.87159e-05
2.80702e-05
2.83201e-05
2.96282e-05
3.62106e-05
3.64109e-05
2.76448e-05
2.83146e-05
2.90958e-05
3.76126e-05
3.71361e-05
3.8038e-05
2.9518e-05
2.89791e-05
3.06592e-05
3.12176e-05
3.68254e-05
3.85206e-05
2.95554e-05
2.8892e-05
3.06205e-05
3.10203e-05
3.02958e-05
3.12969e-05
3.1488e-05
3.66422e-05
3.85651e-05
2.99691e-05
3.13705e-05
3.19355e-05
3.8429e-05
3.8278e-05
3.92591e-05
3.11736e-05
3.1718e-05
3.26404e-05
3.24502e-05
3.8775e-05
3.9034e-05
3.11322e-05
3.17519e-05
3.2694e-05
3.26694e-05
3.15799e-05
3.24029e-05
3.16363e-05
3.89662e-05
3.92479e-05
3.22534e-05
3.28978e-05
3.25418e-05
3.84205e-05
3.94599e-05
3.98676e-05
3.28377e-05
3.26373e-05
3.34522e-05
3.34733e-05
3.91324e-05
3.99132e-05
3.29184e-05
3.27301e-05
3.34496e-05
3.33411e-05
3.16715e-05
3.33934e-05
3.28046e-05
3.92655e-05
3.94708e-05
3.25648e-05
3.30386e-05
3.27307e-05
3.95822e-05
4.00567e-05
4.11457e-05
3.3897e-05
3.39009e-05
3.53585e-05
3.54374e-05
4.0212e-05
4.13191e-05
3.38515e-05
3.38241e-05
3.53073e-05
3.53304e-05
3.39595e-05
3.55264e-05
3.63863e-05
3.98183e-05
4.1515e-05
3.29284e-05
3.54421e-05
3.53224e-05
4.18232e-05
4.13932e-05
4.20182e-05
3.57048e-05
3.58652e-05
3.63796e-05
3.64579e-05
4.15306e-05
4.18898e-05
3.56861e-05
3.58267e-05
3.64501e-05
3.67637e-05
3.67689e-05
3.64925e-05
3.71255e-05
4.17809e-05
4.21548e-05
3.61364e-05
3.70497e-05
3.74576e-05
4.25681e-05
4.22095e-05
4.3218e-05
3.6691e-05
3.65491e-05
3.80832e-05
3.77112e-05
4.19972e-05
4.29185e-05
3.67677e-05
3.69259e-05
3.80893e-05
3.76173e-05
3.71394e-05
3.75974e-05
3.73257e-05
4.22193e-05
4.25486e-05
3.75587e-05
3.71976e-05
3.78627e-05
4.26835e-05
4.34433e-05
4.37687e-05
3.84904e-05
3.83059e-05
3.90584e-05
3.93553e-05
4.32768e-05
4.40477e-05
3.84439e-05
3.78725e-05
3.89563e-05
3.88242e-05
3.7681e-05
3.93436e-05
3.8451e-05
4.27281e-05
4.34796e-05
3.79516e-05
3.82575e-05
3.81338e-05
4.32325e-05
4.38313e-05
4.4264e-05
3.91079e-05
3.94534e-05
3.95066e-05
3.95954e-05
4.4103e-05
4.41571e-05
3.90285e-05
3.92668e-05
3.97351e-05
4.04728e-05
3.87697e-05
3.96129e-05
4.01991e-05
4.37196e-05
4.50222e-05
3.83119e-05
4.05296e-05
4.02295e-05
4.48604e-05
4.4549e-05
4.58011e-05
3.99818e-05
3.97579e-05
4.154e-05
4.15947e-05
4.4342e-05
4.59794e-05
4.02119e-05
4.06901e-05
4.15202e-05
4.09701e-05
4.06473e-05
4.15892e-05
4.14748e-05
4.52775e-05
4.56187e-05
4.0827e-05
4.16053e-05
4.20479e-05
4.60779e-05
4.59626e-05
4.61355e-05
4.18383e-05
4.19501e-05
4.21415e-05
4.23629e-05
4.61854e-05
4.63556e-05
4.17384e-05
4.11613e-05
4.20131e-05
4.25296e-05
4.17247e-05
4.23624e-05
4.2637e-05
4.57067e-05
4.6511e-05
4.23386e-05
4.25776e-05
4.26063e-05
4.64876e-05
4.62342e-05
4.72016e-05
4.22826e-05
4.2582e-05
4.34459e-05
4.31088e-05
4.64476e-05
4.67458e-05
4.2225e-05
4.28924e-05
4.3502e-05
4.33147e-05
4.28201e-05
4.31724e-05
4.29111e-05
4.66996e-05
4.68001e-05
4.25914e-05
4.29314e-05
4.22539e-05
4.60644e-05
4.73393e-05
4.74047e-05
4.36742e-05
4.31625e-05
4.38584e-05
4.33811e-05
4.67797e-05
4.69825e-05
4.3719e-05
4.33385e-05
4.38903e-05
4.36174e-05
4.29055e-05
4.33355e-05
4.30718e-05
4.68197e-05
4.73503e-05
4.22264e-05
4.35442e-05
4.25936e-05
4.66921e-05
4.74636e-05
4.85057e-05
4.39297e-05
4.37629e-05
4.5031e-05
4.54941e-05
4.72882e-05
4.90336e-05
4.39595e-05
4.40446e-05
4.51137e-05
4.52593e-05
4.35398e-05
4.54824e-05
4.56759e-05
4.77008e-05
4.88848e-05
4.33766e-05
4.54592e-05
4.58842e-05
4.94307e-05
4.87626e-05
4.92222e-05
4.53816e-05
4.57984e-05
4.60917e-05
4.63366e-05
4.92419e-05
4.95189e-05
4.54729e-05
4.55649e-05
4.60184e-05
4.62272e-05
4.61887e-05
4.65425e-05
4.70716e-05
4.90645e-05
4.94202e-05
4.65173e-05
4.66609e-05
4.73236e-05
5.02801e-05
4.93415e-05
4.9994e-05
4.63701e-05
4.65084e-05
4.71027e-05
4.6797e-05
4.95861e-05
4.95424e-05
4.62596e-05
4.63825e-05
4.72162e-05
4.66719e-05
4.71319e-05
4.68689e-05
4.69863e-05
4.94726e-05
4.94307e-05
4.73338e-05
4.67494e-05
4.68585e-05
4.93963e-05
5.01006e-05
5.02115e-05
4.72183e-05
4.68202e-05
4.73367e-05
4.69688e-05
4.95514e-05
4.96376e-05
4.74355e-05
4.67726e-05
4.76463e-05
4.73068e-05
4.67315e-05
4.68627e-05
4.64235e-05
4.94606e-05
4.99701e-05
4.66096e-05
4.68791e-05
4.64428e-05
4.89736e-05
5.0265e-05
5.06377e-05
4.73898e-05
4.72044e-05
4.8121e-05
4.84555e-05
4.98395e-05
5.11856e-05
4.76521e-05
4.75699e-05
4.78644e-05
4.84849e-05
4.64372e-05
4.81948e-05
4.7611e-05
5.02276e-05
5.12858e-05
4.65068e-05
4.85714e-05
4.82855e-05
5.101e-05
5.07553e-05
5.1007e-05
4.84225e-05
4.88011e-05
4.89336e-05
4.92766e-05
5.14145e-05
5.17034e-05
4.80476e-05
4.87603e-05
4.84673e-05
4.93091e-05
4.84264e-05
4.93868e-05
4.99195e-05
5.14496e-05
5.17263e-05
4.89044e-05
4.94681e-05
4.97634e-05
5.22127e-05
5.1137e-05
5.25299e-05
4.90682e-05
4.93363e-05
4.9886e-05
4.96469e-05
5.17557e-05
5.21144e-05
4.86969e-05
4.93895e-05
5.00666e-05
4.98114e-05
5.01021e-05
5.00478e-05
5.02265e-05
5.17855e-05
5.21647e-05
4.98341e-05
4.97401e-05
4.98886e-05
5.22199e-05
5.28893e-05
5.35031e-05
5.0294e-05
4.98214e-05
5.11056e-05
5.07402e-05
5.22372e-05
5.28034e-05
5.06208e-05
5.00973e-05
5.14075e-05
5.05556e-05
5.02298e-05
5.04532e-05
5.03144e-05
5.23311e-05
5.25051e-05
4.99097e-05
5.04021e-05
5.04803e-05
5.26481e-05
5.3494e-05
5.25845e-05
5.11488e-05
5.10249e-05
5.09771e-05
5.1287e-05
5.29874e-05
5.327e-05
5.14135e-05
5.05581e-05
5.09506e-05
5.05081e-05
5.05103e-05
5.12752e-05
5.09991e-05
5.24882e-05
5.22551e-05
5.0749e-05
5.04744e-05
5.09907e-05
5.29408e-05
5.25246e-05
5.24898e-05
5.08445e-05
5.1265e-05
5.07945e-05
5.09542e-05
5.32592e-05
5.27188e-05
5.06987e-05
5.05157e-05
5.05469e-05
5.11624e-05
5.10199e-05
5.10963e-05
5.10354e-05
5.23184e-05
5.37366e-05
5.09877e-05
5.17276e-05
5.10166e-05
5.28006e-05
5.27192e-05
5.46474e-05
5.08916e-05
5.09476e-05
5.24098e-05
5.15729e-05
5.27277e-05
5.37157e-05
5.06189e-05
5.17498e-05
5.24292e-05
5.30395e-05
5.1086e-05
5.14315e-05
5.2313e-05
5.41402e-05
5.5028e-05
5.11092e-05
5.29004e-05
5.24766e-05
5.45897e-05
5.49372e-05
5.5097e-05
5.28681e-05
5.23587e-05
5.33632e-05
5.3729e-05
5.42345e-05
5.56732e-05
5.3008e-05
5.31467e-05
5.34918e-05
5.29899e-05
5.28268e-05
5.37423e-05
5.34087e-05
5.50385e-05
5.41501e-05
5.28967e-05
5.26878e-05
5.3261e-05
5.50844e-05
5.50535e-05
5.4491e-05
5.33591e-05
5.3786e-05
5.30944e-05
5.345e-05
5.57007e-05
5.46678e-05
5.34755e-05
5.28287e-05
5.31309e-05
5.2748e-05
5.34018e-05
5.35072e-05
5.3022e-05
5.40928e-05
5.4149e-05
5.32413e-05
5.25843e-05
5.29112e-05
5.42795e-05
5.44984e-05
5.487e-05
5.30518e-05
5.31592e-05
5.31135e-05
5.29542e-05
5.45311e-05
5.42598e-05
5.31035e-05
5.28149e-05
5.32095e-05
5.3833e-05
5.29434e-05
5.29487e-05
5.2986e-05
5.43775e-05
5.56811e-05
5.28868e-05
5.38233e-05
5.30385e-05
5.47182e-05
5.50567e-05
5.56596e-05
5.33025e-05
5.29939e-05
5.41239e-05
5.41222e-05
5.44147e-05
5.59642e-05
5.34692e-05
5.41078e-05
5.4182e-05
5.43284e-05
5.31526e-05
5.41572e-05
5.42942e-05
5.58101e-05
5.57098e-05
5.33819e-05
5.43307e-05
5.43518e-05
5.59267e-05
5.57085e-05
5.5828e-05
5.42786e-05
5.44927e-05
5.46188e-05
5.47896e-05
5.61701e-05
5.61579e-05
5.42546e-05
5.43165e-05
5.43461e-05
5.42225e-05
5.45565e-05
5.48879e-05
5.48854e-05
5.56929e-05
5.55404e-05
5.45035e-05
5.43048e-05
5.46584e-05
5.61116e-05
5.59102e-05
5.63092e-05
5.47278e-05
5.4785e-05
5.49407e-05
5.47805e-05
5.6133e-05
5.59938e-05
5.44312e-05
5.42277e-05
5.4873e-05
5.46435e-05
5.49248e-05
5.48474e-05
5.50566e-05
5.55808e-05
5.62045e-05
5.46838e-05
5.48032e-05
5.50524e-05
5.64159e-05
5.63864e-05
5.6599e-05
5.49678e-05
5.47959e-05
5.51655e-05
5.50835e-05
5.60461e-05
5.64353e-05
5.50635e-05
5.4932e-05
5.54785e-05
5.54609e-05
5.51141e-05
5.50523e-05
5.51428e-05
5.63734e-05
5.66344e-05
5.52223e-05
5.54175e-05
5.53445e-05
5.64847e-05
5.6643e-05
5.66972e-05
5.5287e-05
5.52341e-05
5.55397e-05
5.54286e-05
5.65151e-05
5.65509e-05
5.55188e-05
5.55107e-05
5.55209e-05
5.55431e-05
5.51086e-05
5.52758e-05
5.49977e-05
5.66433e-05
5.66532e-05
5.52971e-05
5.54439e-05
5.50563e-05
5.60465e-05
5.6726e-05
5.69867e-05
5.56016e-05
5.54669e-05
5.58591e-05
5.60481e-05
5.65685e-05
5.73431e-05
5.55196e-05
5.55686e-05
5.56581e-05
5.59306e-05
5.50101e-05
5.59799e-05
5.59135e-05
5.6736e-05
5.73179e-05
5.50641e-05
5.60261e-05
5.59204e-05
5.74345e-05
5.70614e-05
5.70793e-05
5.59548e-05
5.63147e-05
5.60907e-05
5.65511e-05
5.75698e-05
5.78681e-05
5.58056e-05
5.60116e-05
5.60069e-05
5.60172e-05
5.63639e-05
5.6694e-05
5.6753e-05
5.73638e-05
5.70282e-05
5.63484e-05
5.61808e-05
5.66488e-05
5.79281e-05
5.7083e-05
5.72136e-05
5.60949e-05
5.65186e-05
5.61386e-05
5.57447e-05
5.78134e-05
5.64508e-05
5.60179e-05
5.59642e-05
5.61176e-05
5.59263e-05
5.6715e-05
5.57648e-05
5.57482e-05
5.69779e-05
5.68362e-05
5.65842e-05
5.58357e-05
5.56279e-05
5.63679e-05
5.73119e-05
5.75588e-05
5.61707e-05
5.55499e-05
5.62277e-05
5.55141e-05
5.63433e-05
5.64679e-05
5.62626e-05
5.59683e-05
5.65857e-05
5.64547e-05
5.55081e-05
5.54375e-05
5.54768e-05
5.69168e-05
5.75092e-05
5.5472e-05
5.61184e-05
5.55518e-05
5.66168e-05
5.75987e-05
5.80362e-05
5.62863e-05
5.5718e-05
5.70275e-05
5.76915e-05
5.68009e-05
5.92517e-05
5.66276e-05
5.65771e-05
5.68997e-05
5.71017e-05
5.57322e-05
5.78043e-05
5.80259e-05
5.76401e-05
5.83595e-05
5.59294e-05
5.73742e-05
5.80734e-05
5.95986e-05
5.81737e-05
5.82962e-05
5.72854e-05
5.80246e-05
5.74681e-05
5.80635e-05
5.94386e-05
5.89174e-05
5.70117e-05
5.72905e-05
5.70842e-05
5.74382e-05
5.83375e-05
5.81438e-05
5.82133e-05
5.85175e-05
5.86906e-05
5.83202e-05
5.77818e-05
5.81664e-05
5.88248e-05
5.82292e-05
5.68186e-05
5.74055e-05
5.77788e-05
5.62506e-05
5.58889e-05
5.85394e-05
5.6215e-05
5.703e-05
5.73889e-05
5.62344e-05
5.623e-05
5.76243e-05
5.57253e-05
5.53531e-05
5.86341e-05
5.66705e-05
5.75772e-05
5.60635e-05
5.53152e-05
5.56079e-05
5.6736e-05
5.73848e-05
5.59907e-05
5.56329e-05
5.59954e-05
5.57047e-05
5.61402e-05
5.71099e-05
5.60954e-05
5.58992e-05
5.62517e-05
5.58201e-05
5.51683e-05
5.57076e-05
5.55932e-05
5.64755e-05
5.66157e-05
5.51112e-05
5.55289e-05
5.5482e-05
5.72232e-05
5.78538e-05
5.97399e-05
5.63337e-05
5.61356e-05
5.8218e-05
5.79915e-05
5.75826e-05
5.93657e-05
5.67903e-05
5.61198e-05
5.84225e-05
5.83793e-05
5.65619e-05
5.81063e-05
5.86647e-05
5.70943e-05
5.98495e-05
5.64288e-05
5.83853e-05
5.87689e-05
6.02399e-05
5.97808e-05
5.83616e-05
5.83842e-05
5.81999e-05
5.80994e-05
5.81329e-05
5.94176e-05
5.86677e-05
5.85028e-05
5.8615e-05
5.78956e-05
5.83481e-05
5.87794e-05
5.81083e-05
5.8303e-05
5.99771e-05
5.89232e-05
5.89143e-05
5.85364e-05
5.84464e-05
5.86751e-05
5.79865e-05
5.6804e-05
5.74962e-05
5.78193e-05
5.6309e-05
5.67273e-05
5.84636e-05
5.75013e-05
5.71574e-05
5.76424e-05
5.60605e-05
5.6027e-05
5.75874e-05
5.66789e-05
5.61292e-05
5.84972e-05
5.66874e-05
5.76467e-05
5.61139e-05
5.60076e-05
5.66676e-05
5.68267e-05
5.84375e-05
5.62673e-05
5.6594e-05
5.68401e-05
5.66031e-05
5.74946e-05
5.78006e-05
5.60497e-05
5.59421e-05
5.69547e-05
5.64086e-05
5.5995e-05
5.65179e-05
5.60962e-05
5.66769e-05
5.78001e-05
5.58722e-05
5.6213e-05
5.6032e-05
5.74111e-05
5.87497e-05
5.91726e-05
5.7328e-05
5.6773e-05
5.7783e-05
5.73392e-05
5.79352e-05
5.83618e-05
5.74947e-05
5.70423e-05
5.79561e-05
5.78915e-05
5.64278e-05
5.72075e-05
5.73607e-05
5.81646e-05
5.90723e-05
5.64556e-05
5.77502e-05
5.75056e-05
5.86099e-05
5.90656e-05
5.72155e-05
5.77523e-05
5.73929e-05
5.67123e-05
5.73547e-05
5.8385e-05
5.83328e-05
5.79137e-05
5.7894e-05
5.66063e-05
5.71041e-05
5.75143e-05
5.74223e-05
5.76634e-05
5.90761e-05
5.78654e-05
5.76412e-05
5.73213e-05
5.76902e-05
5.86503e-05
5.70511e-05
5.70581e-05
5.64166e-05
5.7284e-05
5.62819e-05
5.72204e-05
5.83426e-05
5.8586e-05
5.62149e-05
5.66634e-05
5.59899e-05
5.62743e-05
5.76908e-05
5.75511e-05
5.78528e-05
5.76784e-05
5.73507e-05
5.76504e-05
5.66316e-05
5.7587e-05
5.89634e-05
5.73464e-05
5.88889e-05
5.64359e-05
5.72205e-05
5.73454e-05
5.70557e-05
5.86242e-05
5.8168e-05
5.61192e-05
5.6325e-05
5.74958e-05
5.73258e-05
5.78643e-05
5.73425e-05
5.75727e-05
5.74886e-05
5.86632e-05
5.75821e-05
5.7208e-05
5.72749e-05
5.83982e-05
5.89557e-05
5.80063e-05
5.73866e-05
5.67773e-05
5.68872e-05
5.52151e-05
5.79401e-05
5.57556e-05
5.76555e-05
5.74709e-05
5.74535e-05
5.72933e-05
5.70265e-05
5.49613e-05
5.47732e-05
5.87268e-05
5.79198e-05
5.68822e-05
5.6823e-05
5.51237e-05
5.55549e-05
5.76165e-05
5.57679e-05
5.62218e-05
5.48387e-05
5.49404e-05
5.43758e-05
5.55104e-05
5.51123e-05
5.68949e-05
5.67945e-05
5.5016e-05
5.48829e-05
5.42566e-05
5.39333e-05
5.35987e-05
5.75498e-05
5.55955e-05
5.46762e-05
5.47665e-05
5.40636e-05
5.47157e-05
5.57282e-05
5.39982e-05
5.36125e-05
5.51954e-05
5.39788e-05
5.38359e-05
4.46345e-05
4.50961e-05
4.43151e-05
5.28771e-05
5.55411e-05
5.32666e-05
5.54341e-08
2.17051e-07
4.27441e-08
5.41383e-08
2.70115e-07
2.67017e-07
1.40712e-07
1.16463e-07
2.71377e-07
3.33366e-07
1.17112e-07
8.6549e-07
3.52113e-07
2.62056e-07
5.72987e-07
3.00407e-07
6.05856e-06
2.60567e-07
7.78598e-06
1.35979e-05
2.11715e-05
3.5743e-07
6.01732e-06
3.2e-07
7.94259e-06
1.55096e-07
1.60624e-07
1.76213e-07
1.41563e-07
1.55613e-07
1.61002e-07
1.75909e-07
2.53095e-07
5.21609e-07
2.14652e-07
2.48051e-07
2.59043e-07
5.08929e-07
2.13819e-07
1.47428e-05
2.28876e-05
2.52509e-07
2.61894e-07
1.06247e-06
4.32265e-07
2.5733e-07
2.57996e-07
1.03316e-06
1.61743e-06
1.95477e-06
3.37267e-07
1.68776e-06
1.9401e-06
5.03552e-07
1.14542e-05
4.1353e-07
1.33194e-05
3.62014e-05
4.66126e-05
5.49159e-07
1.1535e-05
4.62477e-07
1.43757e-05
1.54735e-07
1.60407e-07
1.74213e-07
1.37884e-07
1.52587e-07