/*--------------------------------*- C++ -*----------------------------------*\
| =========                 |                                                 |
| \\      /  F ield         | OpenFOAM: The Open Source CFD Toolbox           |
|  \\    /   O peration     | Version:  v2012                                 |
|   \\  /    A nd           | Website:  www.openfoam.com                      |
|    \\/     M anipulation  |                                                 |
\*---------------------------------------------------------------------------*/
FoamFile
{
    version     2.0;
    format      ascii;
    class       volScalarField;
    location    "1300";
    object      p;
}
// * * * * * * * * * * * * * * * * * * * * * * * * * * * * * * * * * * * * * //

dimensions      [0 2 -2 0 0 0 0];


internalField   nonuniform List<scalar> 
171728
(
0.00351827
0.00351722
0.00351728
0.00351796
0.00348268
0.00348118
0.00348121
0.00348411
0.0034439
0.00344216
0.0034422
0.00344454
0.00339995
0.00339822
0.0033983
0.00340052
0.0033519
0.00335041
0.00335027
0.00335274
0.00330302
0.00330174
0.00330157
0.00330405
0.00325475
0.00325355
0.00325345
0.0032559
0.00320743
0.00320639
0.00320633
0.00320875
0.00316112
0.00316018
0.00316017
0.00316254
0.00311578
0.00311497
0.00311502
0.00311735
0.00307135
0.00307074
0.0030707
0.003073
0.00302765
0.00302711
0.00302697
0.00302938
0.00298453
0.00298416
0.002984
0.00298635
0.00294193
0.0029414
0.00294155
0.00294375
0.00289944
0.00289903
0.00289897
0.00290143
0.00285743
0.00285705
0.00285717
0.00285946
0.00281568
0.00281548
0.00281555
0.0028177
0.00277434
0.00277448
0.00277411
0.00277651
0.00273367
0.00273382
0.00273365
0.00273565
0.00269237
0.00269216
0.0026927
0.00269452
0.00265228
0.00265244
0.00265212
0.00265413
0.00261257
0.00261286
0.00261276
0.00261426
0.00257266
0.00257286
0.00257289
0.00257441
0.00253313
0.00253341
0.00253348
0.00253511
0.00249395
0.00249436
0.00249431
0.00249585
0.00245493
0.00245527
0.00245535
0.00245711
0.00241624
0.00241675
0.0024167
0.00241841
0.00237768
0.00237815
0.00237816
0.00237993
0.00233937
0.00233998
0.00233998
0.00234188
0.00230118
0.00230182
0.00230181
0.00230365
0.00226323
0.00226381
0.00226382
0.00226551
0.00222537
0.00222613
0.0022261
0.00222812
0.0021878
0.00218843
0.00218847
0.00219023
0.00215017
0.00215087
0.00215073
0.0021527
0.00211287
0.00211349
0.00211369
0.00211534
0.00207557
0.00207622
0.00207612
0.00207813
0.00203831
0.00203902
0.00203879
0.00204074
0.00200156
0.00200185
0.00200213
0.00200383
0.00196471
0.00196516
0.00196519
0.00196714
0.00192787
0.00192841
0.0019282
0.00193041
0.0018913
0.00189145
0.00189158
0.00189331
0.00185469
0.00185492
0.00185486
0.00185699
0.00181844
0.00181875
0.00181882
0.00182086
0.00178233
0.00178217
0.00178214
0.00178414
0.00174606
0.00174618
0.00174609
0.00174844
0.00171026
0.00171041
0.00171062
0.00171224
0.00167452
0.00167407
0.00167401
0.00167622
0.00163842
0.00163852
0.00163833
0.0016407
0.00160296
0.00160291
0.00160318
0.00160502
0.00156767
0.00156728
0.00156728
0.00156932
0.00153215
0.00153202
0.00153172
0.00153386
0.00149667
0.00149642
0.00149662
0.0014986
0.0014614
0.00146115
0.0014614
0.0014634
0.00142669
0.0014265
0.00142615
0.0014283
0.00139153
0.00139119
0.00139122
0.00139315
0.00135635
0.0013559
0.00135592
0.00135785
0.00132126
0.00132106
0.00132115
0.00132313
0.00128658
0.00128673
0.00128662
0.00128873
0.00125226
0.00125181
0.00125175
0.00125366
0.00121735
0.00121682
0.00121679
0.00121855
0.0011824
0.00118214
0.0011823
0.00118408
0.00114737
0.0011477
0.0011476
0.00114986
0.00111298
0.00111269
0.00111261
0.00111462
0.00107919
0.00107857
0.00107861
0.00108025
0.00104449
0.00104428
0.00104429
0.00104624
0.00100922
0.00100934
0.00100921
0.0010112
0.000974682
0.000974416
0.000974947
0.000976524
0.000940958
0.000940725
0.000940564
0.000942747
0.000906475
0.000906454
0.000905763
0.000907919
0.000871175
0.000870843
0.000871365
0.000872956
0.000836995
0.000836841
0.000837227
0.000839015
0.000802991
0.000803243
0.000802608
0.000804879
0.000768153
0.000767845
0.000767937
0.000769809
0.000733302
0.000733005
0.000733289
0.00073506
0.000698974
0.000699044
0.000698869
0.000700869
0.00066453
0.000664335
0.0006644
0.000666248
0.000629773
0.000629802
0.000629811
0.000631891
0.000594891
0.000594969
0.000594694
0.000596845
0.000560031
0.000559509
0.000559892
0.000561466
0.000525296
0.00052521
0.000525335
0.000527207
0.000490939
0.000491572
0.000490934
0.000493445
0.000456261
0.000455713
0.000456098
0.000457746
0.000419925
0.000419449
0.000419659
0.000421421
0.000385281
0.00038569
0.000385318
0.000387645
0.000351886
0.000351782
0.000352134
0.000353837
0.000315745
0.000315548
0.00031549
0.000317406
0.00027946
0.000279602
0.000279256
0.000281529
0.00024516
0.000244932
0.000245237
0.000247097
0.00021022
0.000210086
0.000210279
0.00021212
0.000173954
0.000174258
0.000173914
0.000176135
0.0001387
0.000138725
0.000138561
0.000140672
0.000103639
0.000103081
0.000103542
0.000105162
6.67433e-05
6.65939e-05
6.67988e-05
6.86286e-05
3.10441e-05
3.10911e-05
3.05779e-05
3.2844e-05
4.91864e-06
6.13586e-06
5.72971e-06
4.13956e-06
0.00352277
0.00352021
0.00352033
0.00352269
0.00352033
0.00352031
0.00352669
0.00352665
0.00352671
0.0035267
0.00352018
0.00352034
0.00352279
0.00352026
0.00352042
0.00352278
0.00351788
0.00348891
0.0035172
0.00351728
0.00349117
0.00349072
0.00351795
0.0034889
0.00351722
0.0035173
0.00349069
0.00349065
0.00351763
0.00349085
0.00349101
0.00351801
0.00348892
0.00351719
0.00349072
0.00349074
0.00348885
0.0034844
0.00344921
0.00348171
0.0034813
0.00345281
0.00345243
0.00348412
0.0034501
0.00348156
0.00348125
0.00345265
0.00345237
0.00348121
0.00345235
0.00345243
0.00348407
0.00345009
0.00348122
0.00345232
0.00345236
0.0034501
0.00344391
0.00340674
0.00344227
0.00344228
0.00340943
0.00340966
0.00344454
0.00340666
0.00344234
0.00344216
0.00340965
0.00340978
0.00344215
0.00340978
0.00340977
0.00344454
0.00340666
0.00344228
0.00340975
0.00340981
0.00340669
0.00340054
0.00335919
0.00339811
0.00339826
0.00336251
0.00336265
0.00340049
0.00335921
0.00339816
0.00339821
0.00336256
0.00336252
0.00339828
0.00336258
0.00336254
0.00340049
0.0033592
0.00339828
0.00336253
0.00336255
0.00335919
0.00335273
0.00331052
0.00335043
0.00335048
0.00331386
0.00331392
0.00335277
0.00331051
0.00335037
0.00335043
0.00331383
0.00331392
0.00335042
0.00331384
0.00331383
0.00335272
0.00331053
0.00335057
0.00331369
0.00331404
0.00331049
0.00330407
0.00326226
0.00330168
0.00330183
0.00326554
0.0032656
0.00330409
0.00326225
0.00330165
0.00330161
0.00326545
0.00326548
0.00330174
0.00326554
0.00326549
0.00330407
0.00326228
0.00330174
0.00326547
0.00326579
0.00326223
0.00325593
0.00321491
0.00325358
0.00325357
0.00321811
0.00321805
0.00325592
0.00321495
0.0032536
0.0032537
0.00321803
0.00321819
0.00325357
0.0032181
0.00321803
0.00325594
0.00321488
0.00325344
0.0032181
0.00321826
0.0032149
0.00320872
0.00316862
0.00320637
0.00320643
0.00317166
0.00317172
0.00320877
0.00316863
0.00320636
0.00320634
0.00317163
0.00317173
0.0032064
0.00317167
0.00317165
0.00320872
0.00316862
0.00320645
0.00317164
0.00317163
0.00316857
0.00316256
0.00312323
0.00316018
0.00316016
0.00312618
0.00312617
0.00316258
0.00312325
0.00316013
0.00316007
0.00312621
0.00312611
0.0031602
0.00312619
0.00312621
0.00316256
0.00312331
0.00316028
0.00312619
0.00312616
0.00312327
0.00311734
0.00307878
0.00311496
0.00311493
0.00308163
0.00308165
0.00311733
0.00307889
0.00311497
0.00311477
0.00308161
0.00308176
0.00311503
0.00308167
0.00308168
0.00311738
0.00307891
0.00311494
0.00308161
0.00308165
0.00307882
0.003073
0.00303514
0.00307066
0.00307062
0.00303787
0.00303776
0.00307309
0.003035
0.00307062
0.00307057
0.00303787
0.00303807
0.00307068
0.00303789
0.00303795
0.00307311
0.00303515
0.00307065
0.00303786
0.00303795
0.00303507
0.00302947
0.002992
0.00302708
0.00302708
0.00299473
0.00299483
0.00302932
0.00299214
0.00302709
0.00302724
0.0029947
0.00299447
0.00302704
0.00299488
0.0029948
0.00302952
0.00299194
0.00302705
0.00299467
0.00299479
0.00299199
0.0029864
0.00294947
0.00298407
0.00298411
0.00295214
0.00295209
0.00298657
0.00294949
0.00298397
0.00298383
0.00295217
0.00295231
0.00298414
0.00295205
0.00295223
0.0029864
0.00294974
0.00298412
0.00295213
0.00295225
0.0029493
0.00294395
0.00290686
0.00294157
0.00294155
0.00290974
0.00290953
0.00294393
0.00290697
0.00294164
0.00294174
0.00290976
0.00290958
0.00294159
0.00290966
0.00290988
0.00294421
0.00290712
0.0029416
0.00290972
0.00290988
0.0029069
0.0029014
0.00286487
0.00289909
0.00289887
0.00286782
0.00286777
0.00290148
0.00286515
0.00289912
0.00289889
0.00286778
0.00286773
0.00289923
0.00286773
0.00286786
0.00290157
0.00286483
0.00289925
0.00286779
0.00286786
0.00286484
0.00285944
0.00282315
0.00285719
0.00285718
0.00282606
0.00282613
0.00285969
0.00282323
0.00285718
0.00285719
0.00282608
0.00282618
0.00285731
0.0028261
0.0028261
0.00285953
0.00282321
0.00285734
0.0028261
0.0028261
0.00282305
0.00281776
0.00278162
0.00281556
0.00281534
0.00278456
0.00278488
0.00281783
0.00278157
0.00281558
0.00281568
0.00278447
0.00278405
0.00281573
0.00278475
0.00278448
0.00281777
0.00278164
0.0028157
0.00278424
0.00278444
0.00278183
0.00277634
0.00274109
0.00277434
0.00277452
0.00274383
0.00274361
0.0027764
0.00274106
0.00277425
0.00277383
0.00274391
0.00274409
0.00277444
0.00274364
0.00274355
0.00277638
0.00274079
0.00277441
0.00274394
0.00274354
0.00274092
0.00273589
0.0026997
0.00273372
0.00273379
0.00270278
0.00270284
0.00273582
0.00269946
0.00273381
0.00273374
0.00270276
0.00270268
0.00273335
0.00270261
0.00270297
0.00273567
0.0027
0.00273334
0.00270263
0.00270299
0.00269968
0.0026944
0.00265913
0.00269237
0.00269215
0.00266188
0.00266186
0.00269411
0.00265915
0.00269252
0.00269262
0.00266217
0.00266237
0.00269259
0.0026622
0.00266223
0.00269458
0.00265918
0.00269266
0.00266227
0.00266228
0.00265921
0.00265405
0.00261948
0.00265233
0.00265252
0.0026228
0.00262292
0.0026542
0.00261968
0.00265241
0.00265226
0.00262254
0.00262243
0.0026523
0.00262291
0.00262261
0.00265415
0.00261921
0.00265231
0.00262255
0.0026226
0.00261937
0.00261441
0.00257953
0.00261281
0.00261284
0.00258276
0.00258269
0.00261459
0.00257939
0.00261266
0.0026127
0.00258281
0.00258282
0.00261275
0.00258265
0.00258284
0.0026142
0.00257959
0.00261272
0.00258286
0.00258286
0.00257947
0.00257445
0.00254007
0.00257271
0.00257289
0.00254347
0.00254319
0.00257436
0.00253992
0.00257276
0.00257288
0.00254346
0.00254324
0.00257282
0.00254316
0.00254324
0.00257458
0.00254005
0.00257286
0.00254324
0.00254325
0.00254003
0.00253502
0.00250088
0.00253354
0.00253343
0.00250406
0.00250415
0.00253487
0.00250108
0.00253353
0.00253351
0.00250406
0.0025041
0.0025335
0.00250415
0.00250407
0.00253502
0.00250094
0.00253353
0.00250411
0.00250406
0.00250088
0.00249608
0.0024618
0.00249435
0.00249435
0.00246506
0.00246494
0.00249612
0.00246175
0.00249435
0.00249432
0.00246507
0.002465
0.00249426
0.00246496
0.00246508
0.00249597
0.00246189
0.00249428
0.00246504
0.00246506
0.00246205
0.00245672
0.00242369
0.00245524
0.00245525
0.00242643
0.00242643
0.00245678
0.00242354
0.00245524
0.00245534
0.00242644
0.00242637
0.00245539
0.00242642
0.00242633
0.00245699
0.00242343
0.00245537
0.00242638
0.00242633
0.00242332
0.00241888
0.00238488
0.00241684
0.00241677
0.00238778
0.00238778
0.00241865
0.00238502
0.00241682
0.00241671
0.00238778
0.00238779
0.00241665
0.00238778
0.00238785
0.00241852
0.00238497
0.00241663
0.00238781
0.00238781
0.00238487
0.00237984
0.00234653
0.00237813
0.00237816
0.00234947
0.00234946
0.00238003
0.00234639
0.00237813
0.00237813
0.0023495
0.00234944
0.00237821
0.00234949
0.00234952
0.00237997
0.00234653
0.00237819
0.00234951
0.00234952
0.00234677
0.00234166
0.00230857
0.00233994
0.00233995
0.00231138
0.00231135
0.00234151
0.00230873
0.00233994
0.0023399
0.00231136
0.00231134
0.00233991
0.00231135
0.00231129
0.00234166
0.00230873
0.00233989
0.00231131
0.00231124
0.00230867
0.0023037
0.00227077
0.00230184
0.00230183
0.0022733
0.00227332
0.00230387
0.00227061
0.00230181
0.0023018
0.00227333
0.00227335
0.00230178
0.00227329
0.00227339
0.00230385
0.00227062
0.00230175
0.00227335
0.00227338
0.00227034
0.0022658
0.00223266
0.00226383
0.00226383
0.0022355
0.00223549
0.00226565
0.00223282
0.00226389
0.00226381
0.00223547
0.00223538
0.00226391
0.00223552
0.0022355
0.00226565
0.00223274
0.0022639
0.00223544
0.00223553
0.00223303
0.00222779
0.00219529
0.00222606
0.0022261
0.00219787
0.00219788
0.00222798
0.00219518
0.00222604
0.00222603
0.00219789
0.00219795
0.00222608
0.00219788
0.00219784
0.00222791
0.00219532
0.0022261
0.00219796
0.00219781
0.00219514
0.00219039
0.00215758
0.00218849
0.00218843
0.00216026
0.00216023
0.00219024
0.00215762
0.00218851
0.00218848
0.00216027
0.00216014
0.00218844
0.00216022
0.00216025
0.00219034
0.00215747
0.00218839
0.00216009
0.00216023
0.0021576
0.00215266
0.00212021
0.00215086
0.00215087
0.00212279
0.00212286
0.00215275
0.00212019
0.00215085
0.00215081
0.00212279
0.002123
0.00215087
0.00212284
0.00212282
0.00215265
0.00212045
0.00215087
0.00212292
0.00212281
0.00212021
0.00211536
0.00208301
0.00211348
0.0021135
0.00208559
0.0020855
0.00211529
0.00208294
0.00211352
0.00211372
0.00208568
0.0020854
0.00211351
0.00208551
0.00208559
0.00211557
0.00208282
0.0021135
0.00208558
0.00208562
0.00208302
0.00207809
0.00204558
0.00207624
0.0020762
0.00204817
0.00204833
0.00207809
0.0020458
0.00207627
0.00207591
0.00204806
0.00204795
0.00207626
0.00204835
0.00204822
0.00207788
0.0020456
0.00207628
0.00204802
0.00204819
0.00204565
0.00204071
0.0020088
0.00203887
0.00203901
0.00201125
0.0020111
0.00204088
0.0020086
0.00203878
0.00203879
0.00201124
0.00201138
0.00203888
0.00201109
0.00201113
0.00204077
0.00200892
0.00203884
0.00201127
0.0020111
0.00200867
0.00200395
0.0019719
0.00200205
0.00200187
0.00197436
0.00197435
0.00200376
0.00197193
0.00200208
0.00200221
0.00197443
0.00197446
0.00200195
0.00197432
0.00197432
0.00200408
0.00197193
0.00200193
0.00197449
0.0019744
0.00197195
0.00196703
0.00193516
0.0019651
0.00196518
0.00193748
0.00193758
0.00196709
0.00193522
0.00196516
0.00196513
0.00193747
0.00193736
0.00196515
0.00193762
0.0019377
0.00196705
0.00193506
0.00196523
0.00193738
0.00193766
0.0019353
0.00193031
0.0018984
0.00192832
0.00192837
0.00190077
0.00190068
0.00193036
0.00189832
0.0019283
0.0019282
0.00190075
0.00190075
0.00192851
0.00190068
0.00190057
0.00193023
0.00189843
0.00192846
0.00190075
0.00190055
0.00189818
0.00189354
0.00186173
0.00189158
0.00189146
0.00186401
0.00186399
0.00189344
0.00186177
0.00189156
0.00189157
0.00186401
0.001864
0.00189128
0.00186397
0.00186395
0.00189355
0.00186168
0.00189124
0.00186397
0.00186394
0.00186176
0.0018569
0.00182549
0.00185488
0.00185492
0.00182768
0.00182781
0.00185698
0.00182557
0.00185487
0.00185487
0.00182768
0.00182777
0.00185495
0.00182783
0.00182792
0.00185688
0.00182565
0.00185501
0.00182784
0.00182802
0.00182573
0.00182071
0.00178924
0.00181865
0.00181872
0.00179148
0.00179133
0.00182074
0.00178907
0.00181866
0.00181872
0.00179147
0.00179144
0.00181876
0.00179132
0.00179123
0.00182084
0.00178909
0.00181881
0.00179135
0.00179106
0.00178894
0.00178441
0.00175298
0.00178238
0.00178221
0.00175513
0.0017551
0.00178424
0.00175306
0.00178236
0.0017823
0.00175513
0.001755
0.00178219
0.00175512
0.00175534
0.00178421
0.0017529
0.001782
0.00175497
0.00175539
0.00175321
0.00174818
0.00171709
0.00174611
0.00174617
0.00171918
0.00171939
0.0017483
0.00171721
0.00174612
0.00174604
0.00171917
0.00171941
0.00174638
0.00171943
0.00171917
0.00174818
0.00171742
0.00174651
0.0017196
0.00171934
0.00171706
0.00171233
0.00168124
0.00171023
0.00171039
0.00168339
0.00168316
0.00171239
0.00168101
0.00171023
0.0017105
0.00168342
0.00168327
0.00171004
0.0016831
0.00168303
0.00171261
0.00168098
0.00171015
0.00168314
0.00168291
0.00168097
0.00167642
0.00164525
0.00167437
0.00167414
0.00164732
0.00164736
0.00167623
0.00164535
0.00167439
0.00167414
0.00164729
0.00164722
0.0016742
0.00164739
0.00164769
0.00167614
0.00164518
0.00167401
0.00164715
0.00164744
0.00164547
0.00164046
0.0016096
0.00163837
0.00163847
0.00161168
0.00161175
0.0016406
0.00160969
0.00163833
0.00163836
0.0016117
0.0016119
0.00163876
0.00161183
0.00161184
0.00164045
0.00160991
0.00163856
0.00161203
0.00161199
0.00160976
0.00160487
0.00157425
0.00160282
0.00160285
0.00157626
0.0015762
0.00160491
0.0015741
0.00160285
0.00160302
0.00157629
0.00157624
0.00160285
0.00157615
0.00157592
0.00160516
0.00157413
0.00160314
0.00157629
0.00157622
0.00157408
0.00156952
0.00153879
0.00156744
0.00156736
0.0015409
0.00154089
0.00156938
0.00153885
0.00156746
0.00156734
0.00154088
0.00154073
0.0015671
0.00154084
0.00154079
0.00156935
0.00153863
0.00156723
0.00154048
0.00154053
0.00153861
0.00153401
0.00150315
0.001532
0.00153204
0.00150522
0.00150533
0.00153409
0.00150322
0.00153197
0.00153188
0.00150517
0.00150537
0.00153197
0.00150538
0.00150543
0.00153389
0.00150331
0.0015317
0.00150543
0.00150532
0.00150332
0.00149841
0.00146799
0.00149633
0.00149638
0.00146992
0.00146982
0.00149845
0.00146787
0.00149631
0.00149652
0.00147005
0.00147003
0.00149653
0.00146985
0.00147004
0.00149856
0.00146808
0.00149654
0.0014702
0.00147031
0.00146812
0.00146328
0.00143305
0.00146123
0.00146112
0.0014352
0.00143521
0.00146318
0.00143318
0.00146134
0.00146122
0.00143511
0.00143498
0.00146129
0.00143519
0.00143504
0.00146338
0.00143295
0.00146156
0.00143494
0.00143506
0.001433
0.00142835
0.00139796
0.00142647
0.00142656
0.00139997
0.00140004
0.00142851
0.00139795
0.00142632
0.00142628
0.00139995
0.00140019
0.00142633
0.00140001
0.00140009
0.00142822
0.00139796
0.00142623
0.00139995
0.00139986
0.0013979
0.00139323
0.00136285
0.00139113
0.00139117
0.00136487
0.00136473
0.0013932
0.00136268
0.00139121
0.00139141
0.00136495
0.00136475
0.00139128
0.00136474
0.00136462
0.00139324
0.0013627
0.00139106
0.00136478
0.00136463
0.00136259
0.0013581
0.00132761
0.00135613
0.00135595
0.00132969
0.00132971
0.00135794
0.00132767
0.00135615
0.00135586
0.00132963
0.00132964
0.00135577
0.00132967
0.00132969
0.00135796
0.00132773
0.00135586
0.00132976
0.00132986
0.00132777
0.0013229
0.00129306
0.00132093
0.00132105
0.00129505
0.00129521
0.001323
0.00129325
0.00132089
0.00132102
0.00129505
0.00129519
0.00132111
0.00129534
0.00129547
0.00132306
0.00129319
0.00132126
0.00129531
0.00129549
0.00129341
0.00128844
0.00125848
0.00128649
0.00128658
0.00126058
0.00126052
0.00128859
0.00125844
0.00128648
0.00128654
0.00126057
0.00126053
0.00128683
0.00126052
0.00126055
0.00128852
0.00125839
0.00128682
0.00126049
0.00126046
0.0012584
0.00125378
0.00122367
0.00125189
0.00125186
0.00122574
0.00122571
0.00125374
0.00122355
0.00125187
0.00125185
0.00122578
0.00122573
0.0012518
0.00122559
0.00122547
0.00125367
0.00122351
0.00125168
0.00122551
0.00122534
0.0012233
0.00121896
0.00118884
0.00121701
0.00121693
0.00119088
0.00119079
0.00121881
0.00118872
0.00121707
0.00121702
0.0011909
0.00119094
0.00121669
0.00119072
0.00119063
0.0012188
0.00118888
0.00121661
0.0011909
0.00119075
0.00118869
0.00118413
0.00115404
0.00118221
0.00118217
0.00115612
0.00115629
0.00118405
0.00115431
0.00118219
0.00118227
0.00115603
0.0011561
0.00118208
0.00115638
0.00115644
0.00118421
0.00115421
0.00118224
0.00115636
0.00115653
0.00115453
0.00114932
0.00111918
0.00114738
0.00114757
0.00112124
0.00112126
0.00114961
0.00111928
0.00114729
0.00114733
0.00112125
0.00112125
0.00114783
0.00112136
0.0011216
0.00114947
0.00111921
0.00114785
0.00112128
0.00112142
0.00111937
0.00111454
0.00108534
0.00111264
0.0011126
0.00108731
0.00108713
0.00111458
0.00108502
0.00111269
0.00111269
0.00108744
0.00108725
0.00111278
0.00108706
0.0010869
0.00111452
0.00108512
0.00111262
0.00108706
0.0010869
0.00108485
0.00108077
0.00105095
0.00107891
0.0010787
0.00105306
0.00105309
0.00108042
0.00105094
0.00107902
0.00107878
0.00105303
0.00105301
0.00107839
0.00105291
0.00105286
0.00108055
0.00105093
0.00107847
0.001053
0.00105303
0.00105091
0.00104619
0.00101569
0.00104426
0.00104441
0.00101779
0.00101803
0.00104626
0.00101601
0.00104418
0.00104424
0.00101771
0.00101782
0.00104426
0.00101814
0.00101809
0.0010462
0.00101582
0.00104442
0.00101793
0.00101801
0.00101599
0.00101092
0.000981193
0.00100904
0.00100919
0.000983205
0.000982991
0.00101121
0.000981009
0.00100895
0.00100909
0.000983142
0.000983371
0.00100929
0.000983054
0.000983132
0.00101107
0.000981396
0.00100916
0.000983439
0.000983124
0.000981136
0.000976581
0.000947523
0.000974663
0.000974405
0.000949376
0.000949187
0.000976342
0.000947207
0.000974695
0.000974919
0.000949517
0.000949422
0.0009746
0.000949077
0.000949308
0.000976802
0.000947308
0.000974657
0.000949219
0.000949368
0.000947358
0.000942915
0.000912702
0.000940915
0.00094083
0.000914907
0.000915223
0.000942667
0.000913121
0.000941053
0.000940774
0.000914809
0.000914482
0.000940864
0.000915277
0.00091486
0.000942623
0.000912427
0.00094085
0.000914466
0.0009147
0.000912684
0.000907911
0.000877616
0.000906099
0.000906355
0.000879705
0.000879601
0.000908287
0.000877559
0.000905965
0.000905711
0.000879639
0.000879743
0.000906053
0.000879665
0.000879682
0.000907671
0.000877811
0.000905908
0.00087989
0.000879711
0.000877664
0.000872912
0.000843574
0.000871013
0.000870824
0.000845407
0.000845219
0.000872783
0.000843295
0.000871013
0.000871246
0.000845547
0.000845829
0.000870997
0.000845157
0.000845465
0.000873157
0.000843878
0.0008711
0.000845823
0.000845658
0.000843613
0.000838977
0.000809535
0.00083697
0.000836903
0.000811541
0.00081178
0.000838776
0.000809883
0.000837093
0.000837268
0.000811485
0.000811294
0.00083705
0.000811791
0.000811616
0.000839219
0.000809268
0.000837194
0.000811255
0.000811511
0.000809591
0.000804828
0.000774644
0.00080294
0.000803213
0.000776771
0.000776719
0.000805215
0.00077463
0.000802812
0.000802624
0.000776644
0.000776597
0.000803006
0.000776752
0.000776744
0.000804565
0.000774555
0.000802821
0.000776616
0.000776587
0.000774591
0.000769868
0.000739771
0.000767995
0.000767819
0.000741729
0.000741575
0.000769792
0.000739541
0.000767916
0.000767917
0.000741856
0.000741935
0.000767932
0.000741563
0.00074169
0.000769811
0.000739942
0.000767844
0.00074192
0.000741814
0.000739746
0.000735069
0.000705532
0.000733063
0.00073302
0.000707411
0.000707583
0.000734873
0.000705642
0.00073324
0.000733307
0.000707523
0.000707499
0.000733065
0.000707573
0.000707446
0.000735258
0.000705522
0.00073323
0.000707467
0.000707535
0.000705539
0.000700894
0.000671142
0.000698922
0.00069906
0.000673202
0.000673084
0.000701011
0.000671102
0.000698945
0.000698896
0.00067306
0.00067304
0.000698887
0.000673056
0.000672995
0.000700839
0.000671024
0.000698895
0.000673024
0.00067287
0.000670962
0.000666399
0.000636357
0.000664513
0.000664346
0.000638383
0.000638345
0.000666347
0.000636386
0.000664389
0.000664402
0.000638357
0.000638429
0.000664337
0.000638402
0.000638562
0.000666306
0.000636479
0.000664233
0.000638496
0.000638549
0.000636574
0.000631616
0.000601509
0.000629666
0.000629732
0.000603509
0.000603773
0.000631679
0.000601713
0.000629679
0.000629736
0.000603542
0.000603473
0.000629973
0.000603801
0.000603763
0.00063175
0.000601472
0.000629992
0.000603482
0.000603775
0.000601675
0.000596757
0.000566698
0.000594788
0.000594969
0.000568669
0.000568437
0.000596912
0.000566374
0.000594802
0.00059471
0.000568702
0.00056864
0.000594879
0.000568355
0.00056827
0.000596698
0.000566593
0.000594875
0.000568533
0.000568269
0.000566248
0.00056195
0.000531916
0.00055997
0.00055961
0.000533871
0.000533696
0.000561562
0.000531758
0.00056003
0.000560021
0.000533933
0.000534034
0.000559464
0.000533646
0.000533687
0.000561873
0.000532033
0.000559504
0.000533997
0.000533769
0.000531821
0.000527167
0.000497404
0.000525181
0.00052521
0.000499429
0.000499928
0.000527126
0.000498054
0.0005252
0.000525308
0.000499286
0.000499316
0.000525266
0.000500075
0.000500148
0.000527294
0.000497434
0.000525314
0.000499507
0.000500052
0.000498138
0.000492758
0.000462978
0.000490912
0.000491413
0.000465053
0.000464888
0.000493392
0.000462773
0.000490756
0.000490765
0.000465021
0.000465007
0.000491624
0.000464844
0.000464803
0.000492775
0.000462936
0.000491484
0.00046498
0.000464799
0.000462703
0.000458137
0.000426841
0.000456161
0.000455828
0.000428894
0.000428479
0.000457826
0.000426343
0.000456198
0.000456193
0.000429035
0.000428993
0.000455652
0.000428335
0.000428226
0.000458095
0.00042677
0.000455708
0.000428796
0.000428314
0.000426234
0.000421868
0.000391785
0.000419784
0.000419532
0.000393661
0.000393892
0.0004215
0.000392101
0.000419916
0.000419824
0.000393646
0.000393531
0.00041937
0.000394005
0.000394065
0.000421778
0.000391727
0.000419417
0.00039358
0.000393988
0.000392174
0.000387224
0.000358445
0.000385308
0.000385561
0.000360415
0.000360456
0.00038755
0.000358484
0.000385261
0.000385211
0.000360385
0.000360556
0.000385787
0.000360512
0.000360685
0.000387212
0.000358687
0.000385719
0.000360682
0.000360736
0.000358654
0.000353735
0.000322616
0.000351834
0.000351802
0.000324799
0.00032474
0.000353718
0.000322542
0.000351796
0.000352046
0.000324753
0.000324806
0.000351875
0.000324649
0.000324539
0.000353988
0.000322589
0.000351958
0.000324772
0.000324552
0.000322398
0.000317603
0.000286315
0.000315625
0.000315615
0.000288304
0.000288428
0.000317568
0.000286435
0.000315574
0.000315538
0.000288278
0.000288083
0.000315404
0.000288459
0.000288298
0.000317532
0.000286088
0.000315377
0.000288031
0.000288192
0.000286298
0.000281529
0.00025186
0.000279495
0.000279565
0.000253712
0.000253556
0.000281616
0.000251657
0.00027951
0.000279306
0.000253804
0.000253776
0.000279529
0.000253559
0.000253673
0.00028134
0.000251878
0.000279446
0.00025374
0.000253727
0.000251792
0.000247212
0.000216965
0.000245167
0.000244949
0.000219046
0.000218912
0.000246959
0.000216883
0.000245288
0.000245279
0.000219069
0.000219223
0.000245062
0.000218887
0.000218991
0.000247227
0.000217128
0.000245146
0.000219243
0.000219066
0.000216973
0.000212059
0.000180743
0.000210068
0.000210081
0.000182907
0.000183172
0.00021205
0.000181097
0.000210038
0.00021022
0.000182818
0.000182893
0.000210144
0.000183227
0.00018318
0.000212206
0.000180825
0.000210174
0.000182966
0.000183114
0.000181047
0.000175799
0.000145433
0.000173869
0.000174195
0.000147416
0.00014753
0.00017618
0.000145539
0.000173766
0.000173825
0.000147355
0.000147228
0.000174204
0.000147547
0.000147529
0.000175868
0.000145297
0.000174127
0.00014724
0.000147461
0.000145488
0.000140681
0.000110563
0.000138747
0.00013873
0.000112507
0.000112158
0.000140728
0.000110119
0.000138721
0.000138584
0.000112613
0.00011253
0.000138717
0.000112074
0.000112049
0.000140553
0.000110489
0.00013867
0.000112401
0.000112116
0.000110087
0.000105659
7.3892e-05
0.000103577
0.000103183
7.59522e-05
7.57604e-05
0.000105192
7.36686e-05
0.000103731
0.000103696
7.60355e-05
7.61134e-05
0.000103044
7.5698e-05
7.56544e-05
0.000105623
7.39825e-05
0.000103144
7.60639e-05
7.57658e-05
7.36658e-05
6.87615e-05
3.71819e-05
6.66909e-05
6.65989e-05
3.92374e-05
3.95737e-05
6.86192e-05
3.76525e-05
6.67241e-05
6.67966e-05
3.90655e-05
3.9064e-05
6.65487e-05
3.96703e-05
3.97007e-05
6.88414e-05
3.71759e-05
6.66171e-05
3.92397e-05
3.95731e-05
3.76717e-05
3.23422e-05
6.80745e-06
3.06342e-05
3.09839e-05
9.82359e-06
1.01034e-05
3.28299e-05
7.13874e-06
3.04334e-05
3.03898e-05
9.68124e-06
9.59999e-06
3.11085e-05
1.01973e-05
1.01346e-05
3.23268e-05
6.73247e-06
3.09984e-05
9.70489e-06
9.98836e-06
7.06358e-06
3.95056e-06
5.81943e-06
6.07274e-06
4.20668e-06
5.77726e-06
5.7128e-06
5.16481e-06
4.87756e-06
5.10548e-06
6.07617e-06
3.88688e-06
5.97488e-06
0.0035298
0.00353234
0.0035311
0.00353126
0.00355834
0.00353224
0.00356188
0.00353258
0.00355852
0.00353233
0.00353266
0.00356203
0.0035433
0.0035647
0.00356508
0.00350242
0.00351593
0.00351994
0.00349507
0.00349275
0.00349812
0.00350231
0.00351586
0.00351981
0.00349449
0.00351829
0.00351832
0.00351837
0.00349179
0.00349188
0.0034918
0.00349181
0.00350204
0.00351362
0.00351888
0.0035096
0.00352097
0.00349912
0.00350987
0.00349249
0.00349784
0.003502
0.0035189
0.0035138
0.00350958
0.00352103
0.00350984
0.00349924
0.00351765
0.00351985
0.00350674
0.00349871
0.00349902
0.00347465
0.00348899
0.00348886
0.00347406
0.00348635
0.00347166
0.00347458
0.0034888
0.0034887
0.00347261
0.00348271
0.00348266
0.00348259
0.00345399
0.00345418
0.00345424
0.00345412
0.00347247
0.00348753
0.00348121
0.00347182
0.00348593
0.00347295
0.00347189
0.0034863
0.00347178
0.00347243
0.00348121
0.0034875
0.00347174
0.00348592
0.00347171
0.00347293
0.00348927
0.00348906
0.00347019
0.00347283
0.00347335
0.00343195
0.00344527
0.00344741
0.00343068
0.00344555
0.00342977
0.00343191
0.00344673
0.0034476
0.00343058
0.00344407
0.00344408
0.003444
0.00341149
0.00341146
0.00341147
0.00341146
0.00343074
0.0034464
0.00344221
0.00343178
0.00344533
0.00343115
0.00343174
0.00344569
0.00342958
0.00343077
0.00344222
0.00344632
0.00343174
0.00344534
0.00343173
0.0034312
0.00344744
0.00344706
0.00342904
0.00343121
0.00343112
0.00338569
0.00340232
0.00340351
0.00338441
0.00340138
0.0033838
0.00338564
0.00340203
0.00340345
0.00338418
0.00339992
0.00339996
0.00339991
0.00336407
0.00336407
0.00336406
0.00336401
0.00338484
0.00340191
0.00339827
0.00338657
0.00340135
0.00338494
0.00338655
0.00340123
0.0033838
0.00338485
0.00339829
0.00340192
0.00338644
0.00340135
0.00338654
0.00338499
0.00340226
0.00340219
0.00338325
0.00338445
0.00338438
0.00333676
0.00335392
0.00335523
0.00333555
0.00335348
0.00333532
0.00333676
0.00335388
0.00335519
0.00333561
0.0033519
0.00335188
0.00335184
0.00331521
0.00331519
0.00331522
0.00331517
0.00333638
0.0033539
0.00335047
0.00333826
0.00335358
0.00333634
0.00333829
0.00335353
0.0033352
0.00333637
0.00335042
0.00335385
0.00333828
0.00335355
0.00333827
0.0033364
0.00335394
0.00335392
0.00333486
0.00333572
0.00333567
0.00328764
0.003305
0.00330602
0.00328681
0.00330466
0.00328667
0.00328768
0.00330494
0.00330599
0.00328683
0.00330301
0.00330301
0.00330299
0.00326674
0.00326673
0.00326673
0.0032667
0.00328761
0.00330503
0.00330177