/*--------------------------------*- C++ -*----------------------------------*\
| =========                 |                                                 |
| \\      /  F ield         | OpenFOAM: The Open Source CFD Toolbox           |
|  \\    /   O peration     | Version:  v2006                                 |
|   \\  /    A nd           | Website:  www.openfoam.com                      |
|    \\/     M anipulation  |                                                 |
\*---------------------------------------------------------------------------*/
FoamFile
{
    version     2.0;
    format      ascii;
    class       volScalarField;
    location    "875";
    object      k;
}
// * * * * * * * * * * * * * * * * * * * * * * * * * * * * * * * * * * * * * //

dimensions      [0 2 -2 0 0 0 0];


internalField   nonuniform List<scalar> 
43248
(
1.49378e-05
1.61548e-05
1.61517e-05
1.81347e-05
1.46124e-05
1.6283e-05
1.62911e-05
1.8775e-05
1.43406e-05
1.65505e-05
1.65254e-05
1.93654e-05
1.41054e-05
1.67959e-05
1.68317e-05
2.0304e-05
1.39281e-05
1.72452e-05
1.72497e-05
2.10399e-05
1.37876e-05
1.77288e-05
1.77151e-05
2.20527e-05
1.36865e-05
1.82749e-05
1.82569e-05
2.29785e-05
1.36456e-05
1.88974e-05
1.89079e-05
2.41225e-05
1.36354e-05
1.95858e-05
1.96054e-05
2.51113e-05
1.36824e-05
2.03575e-05
2.03583e-05
2.61851e-05
1.37696e-05
2.11715e-05
2.1168e-05
2.72791e-05
1.39055e-05
2.20311e-05
2.20326e-05
2.83607e-05
1.40849e-05
2.29354e-05
2.29381e-05
2.94353e-05
1.43127e-05
2.3886e-05
2.38872e-05
3.04803e-05
1.45882e-05
2.48571e-05
2.48632e-05
3.15192e-05
1.49103e-05
2.5857e-05
2.58541e-05
3.25302e-05
1.52731e-05
2.68677e-05
2.68757e-05
3.35395e-05
1.569e-05
2.78993e-05
2.78976e-05
3.45043e-05
1.61443e-05
2.8935e-05
2.89409e-05
3.54414e-05
1.66482e-05
2.99682e-05
2.99701e-05
3.63867e-05
1.71903e-05
3.10002e-05
3.10038e-05
3.72604e-05
1.7772e-05
3.20251e-05
3.20259e-05
3.81419e-05
1.83962e-05
3.3041e-05
3.30445e-05
3.89935e-05
1.90478e-05
3.40262e-05
3.40299e-05
3.98056e-05
1.97404e-05
3.50156e-05
3.50195e-05
4.06072e-05
2.04578e-05
3.59721e-05
3.59749e-05
4.13833e-05
2.11983e-05
3.68947e-05
3.68989e-05
4.21215e-05
1.80215e-05
1.61331e-05
1.61387e-05
1.80508e-05
1.61334e-05
1.61295e-05
1.61385e-05
1.61353e-05
1.80036e-05
1.61294e-05
1.61358e-05
1.80387e-05
1.81597e-05
1.8584e-05
1.61572e-05
1.61548e-05
1.62483e-05
1.62376e-05
1.81405e-05
1.85526e-05
1.61573e-05
1.6152e-05
1.62489e-05
1.6238e-05
1.61496e-05
1.62373e-05
1.6269e-05
1.8113e-05
1.85443e-05
1.615e-05
1.6238e-05
1.62695e-05
1.86537e-05
1.86998e-05
1.93358e-05
1.62756e-05
1.62835e-05
1.64842e-05
1.64834e-05
1.8692e-05
1.93962e-05
1.62758e-05
1.62912e-05
1.6484e-05
1.64591e-05
1.63014e-05
1.64822e-05
1.64262e-05
1.86889e-05
1.93031e-05
1.63019e-05
1.64581e-05
1.64265e-05
1.91535e-05
1.95119e-05
1.9893e-05
1.65424e-05
1.65517e-05
1.67181e-05
1.67282e-05
1.95571e-05
1.99657e-05
1.65417e-05
1.65264e-05
1.67181e-05
1.6745e-05
1.65218e-05
1.67276e-05
1.67795e-05
1.94407e-05
2.00399e-05
1.6522e-05
1.67445e-05
1.67795e-05
2.01838e-05
2.00931e-05
2.09549e-05
1.68255e-05
1.67964e-05
1.71355e-05
1.7123e-05
2.00839e-05
2.09004e-05
1.68255e-05
1.68321e-05
1.71356e-05
1.71466e-05
1.68519e-05
1.71217e-05
1.71136e-05
2.02052e-05
2.09678e-05
1.68521e-05
1.71456e-05
1.7114e-05
2.08457e-05
2.11287e-05
2.19274e-05
1.72551e-05
1.72466e-05
1.7611e-05
1.76255e-05
2.11501e-05
2.19316e-05
1.72547e-05
1.72508e-05
1.76102e-05
1.75824e-05
1.72291e-05
1.76239e-05
1.75966e-05
2.11521e-05
2.17975e-05
1.72292e-05
1.75811e-05
1.75961e-05
2.18672e-05
2.2096e-05
2.27544e-05
1.77322e-05
1.77303e-05
1.81074e-05
1.8117e-05
2.21086e-05
2.27428e-05
1.77314e-05
1.77164e-05
1.81068e-05
1.81196e-05
1.77204e-05
1.81151e-05
1.8112e-05
2.20028e-05
2.27961e-05
1.772e-05
1.8118e-05
1.81115e-05
2.27637e-05
2.2956e-05
2.38949e-05
1.82508e-05
1.82767e-05
1.87507e-05
1.87278e-05
2.29868e-05
2.38218e-05
1.82498e-05
1.82583e-05
1.87501e-05
1.87477e-05
1.82584e-05
1.8726e-05
1.87547e-05
2.29924e-05
2.38569e-05
1.82578e-05
1.87461e-05
1.87538e-05
2.38873e-05
2.41269e-05
2.48545e-05
1.89225e-05
1.88997e-05
1.94062e-05
1.9415e-05
2.40318e-05
2.49059e-05
1.89216e-05
1.89096e-05
1.94049e-05
1.94241e-05
1.89191e-05
1.94129e-05
1.94221e-05
2.40933e-05
2.48951e-05
1.89183e-05
1.94224e-05
1.9421e-05
2.48877e-05
2.50467e-05
2.59672e-05
1.95689e-05
1.95876e-05
2.01627e-05
2.01695e-05
2.51148e-05
2.59913e-05
1.95672e-05
1.96067e-05
2.01614e-05
2.01696e-05
1.95987e-05
2.01678e-05
2.0155e-05
2.51381e-05
2.59768e-05
1.95976e-05
2.01678e-05
2.01538e-05
2.59453e-05
2.62338e-05
2.70337e-05
2.03732e-05
2.03595e-05
2.09574e-05
2.09675e-05
2.62298e-05
2.70439e-05
2.03716e-05
2.03602e-05
2.09557e-05
2.09593e-05
2.03547e-05
2.09649e-05
2.09651e-05
2.62036e-05
2.70224e-05
2.03534e-05
2.09572e-05
2.09633e-05
2.70515e-05
2.72486e-05
2.8142e-05
2.11653e-05
2.11737e-05
2.18169e-05
2.18102e-05
2.72848e-05
2.81053e-05
2.11632e-05
2.11699e-05
2.18149e-05
2.18097e-05
2.11684e-05
2.18076e-05
2.18138e-05
2.72624e-05
2.81118e-05
2.11665e-05
2.18075e-05
2.18116e-05
2.81169e-05
2.83727e-05
2.9185e-05
2.20387e-05
2.20337e-05
2.27048e-05
2.27114e-05
2.83474e-05
2.919e-05
2.20365e-05
2.20347e-05
2.27026e-05
2.2714e-05
2.20355e-05
2.2709e-05
2.27169e-05
2.83495e-05
2.91999e-05
2.20335e-05
2.2712e-05
2.27145e-05
2.92e-05
2.94149e-05
3.02625e-05
2.29356e-05
2.29376e-05
2.36493e-05
2.36458e-05
2.94191e-05
3.02453e-05
2.29331e-05
2.29399e-05
2.36471e-05
2.36527e-05
2.29469e-05
2.36435e-05
2.36479e-05
2.94283e-05
3.02535e-05
2.29446e-05
2.36509e-05
2.36453e-05
3.02476e-05
3.04909e-05
3.12955e-05
2.38826e-05
2.38883e-05
2.46206e-05
2.46113e-05
3.04842e-05
3.12848e-05
2.388e-05
2.3889e-05
2.46179e-05
2.46123e-05
2.38885e-05
2.4609e-05
2.46134e-05
3.04882e-05
3.12817e-05
2.38859e-05
2.46103e-05
2.46104e-05
3.12909e-05
3.15273e-05
3.23083e-05
2.48625e-05
2.48595e-05
2.56087e-05
2.5606e-05
3.15125e-05
3.23145e-05
2.48596e-05
2.4865e-05
2.5606e-05
2.56049e-05
2.48625e-05
2.56041e-05
2.56055e-05
3.15176e-05
3.23082e-05
2.48594e-05
2.56032e-05
2.56026e-05
3.23092e-05
3.25401e-05
3.32887e-05
2.58659e-05
2.58591e-05
2.66079e-05
2.66181e-05
3.25394e-05
3.33064e-05
2.58629e-05
2.58559e-05
2.66049e-05
2.6622e-05
2.58552e-05
2.66163e-05
2.66231e-05
3.25275e-05
3.33166e-05
2.58521e-05
2.66204e-05
2.66196e-05
3.33173e-05
3.35094e-05
3.43014e-05
2.68655e-05
2.6869e-05
2.76528e-05
2.76409e-05
3.35225e-05
3.42807e-05
2.68624e-05
2.68769e-05
2.765e-05
2.76435e-05
2.68782e-05
2.76391e-05
2.76481e-05
3.35372e-05
3.42786e-05
2.6875e-05
2.7642e-05
2.76449e-05
3.42896e-05
3.45115e-05
3.52239e-05
2.79062e-05
2.79012e-05
2.86704e-05
2.86788e-05
3.45019e-05
3.5242e-05
2.79031e-05
2.7899e-05
2.86671e-05
2.86812e-05
2.79056e-05
2.86773e-05
2.86718e-05
3.44935e-05
3.52468e-05
2.79021e-05
2.86801e-05
2.86681e-05
3.52266e-05
3.54412e-05
3.61738e-05
2.89329e-05
2.89363e-05
2.9718e-05
2.97123e-05
3.54525e-05
3.61634e-05
2.89294e-05
2.8942e-05
2.97149e-05
2.97145e-05
2.89326e-05
2.97111e-05
2.97244e-05
3.54612e-05
3.61632e-05
2.8929e-05
2.97136e-05
2.97209e-05
3.61856e-05
3.63756e-05
3.70661e-05
2.99737e-05
2.99691e-05
3.07455e-05
3.07423e-05
3.6369e-05
3.70626e-05
2.99703e-05
2.99708e-05
3.07421e-05
3.07454e-05
2.99804e-05
3.07413e-05
3.07407e-05
3.63674e-05
3.70665e-05
2.99768e-05
3.07445e-05
3.0737e-05
3.70556e-05
3.72704e-05
3.79385e-05
3.10055e-05
3.10013e-05
3.17695e-05
3.17692e-05
3.72654e-05
3.79423e-05
3.1002e-05
3.10047e-05
3.1766e-05
3.17696e-05
3.10002e-05
3.17686e-05
3.17763e-05
3.7269e-05
3.79404e-05
3.09965e-05
3.17691e-05
3.17725e-05
3.79502e-05
3.8134e-05
3.88079e-05
3.20243e-05
3.20255e-05
3.27947e-05
3.27897e-05
3.8139e-05
3.8802e-05
3.20207e-05
3.2026e-05
3.27911e-05
3.27955e-05
3.20297e-05
3.27892e-05
3.27908e-05
3.81373e-05
3.88099e-05
3.20259e-05
3.2795e-05
3.2787e-05
3.88022e-05
3.8994e-05
3.96119e-05
3.30449e-05
3.30416e-05
3.37824e-05
3.37801e-05
3.89901e-05
3.96121e-05
3.30411e-05
3.3045e-05
3.37789e-05
3.37844e-05
3.30441e-05
3.37803e-05
3.37907e-05
3.8995e-05
3.9615e-05
3.30403e-05
3.37846e-05
3.3787e-05
3.96237e-05
3.97977e-05
4.04362e-05
3.40291e-05
3.40257e-05
3.47755e-05
3.47717e-05
3.97946e-05
4.04351e-05
3.40254e-05
3.40294e-05
3.47718e-05
3.47733e-05
3.40358e-05
3.47718e-05
3.47693e-05
3.97988e-05
4.04343e-05
3.40321e-05
3.47732e-05
3.47654e-05
4.04252e-05
4.06168e-05
4.1208e-05
3.50206e-05
3.50155e-05
3.57366e-05
3.5734e-05
4.06135e-05
4.12108e-05
3.50167e-05
3.50195e-05
3.5733e-05
3.57376e-05
3.50153e-05
3.57347e-05
3.57406e-05
4.06166e-05
4.1211e-05
3.50115e-05
3.57381e-05
3.5737e-05
4.12151e-05
4.13809e-05
4.19504e-05
3.59727e-05
3.59712e-05
3.6671e-05
3.66671e-05
4.1386e-05
4.19458e-05
3.59689e-05
3.5974e-05
3.66671e-05
3.66716e-05
3.5975e-05
3.66678e-05
3.66708e-05
4.13843e-05
4.19528e-05
3.59714e-05
3.66719e-05
3.66671e-05
4.19545e-05
4.21136e-05
3.6899e-05
3.6894e-05
4.21086e-05
3.68951e-05
3.68984e-05
3.69011e-05
4.21138e-05
3.68974e-05
1.50258e-05
1.5026e-05
1.50249e-05
1.50253e-05
5.35375e-05
7.00371e-05
5.29206e-05
7.00653e-05
6.96397e-05
6.96009e-05
5.35405e-05
7.00383e-05
5.29256e-05
7.00669e-05
1.49377e-05
1.49369e-05
1.49371e-05
1.46906e-05
1.46894e-05
1.46894e-05
1.46934e-05
2.93893e-05
4.52474e-05
1.49121e-05
1.61764e-05
2.88274e-05
4.56383e-05
1.48616e-05
6.96235e-05
6.96061e-05
2.93916e-05
1.49117e-05
4.52356e-05
1.61723e-05
2.88261e-05
1.48613e-05
4.56395e-05
5.9015e-05
5.90193e-05
1.82966e-05
5.92329e-05
5.92321e-05
5.48293e-05
7.00903e-05
5.43383e-05
7.01215e-05
6.95531e-05
6.95404e-05
5.48427e-05
7.00922e-05
5.43397e-05
7.01237e-05
1.46135e-05
1.46143e-05
1.46157e-05
1.44064e-05
1.44067e-05
1.44035e-05
1.43992e-05
3.10983e-05
4.63847e-05
1.47396e-05
1.63426e-05
3.05333e-05
4.68099e-05
1.47068e-05
6.95588e-05
6.95347e-05
3.11035e-05
1.474e-05
4.64281e-05
1.63459e-05
3.05337e-05
1.47072e-05
4.68519e-05
5.97181e-05
5.97282e-05
1.8865e-05
5.97527e-05
5.97574e-05
5.59679e-05
7.01506e-05
5.55508e-05
7.01609e-05
6.94887e-05
6.9477e-05
5.59641e-05
7.01512e-05
5.55436e-05
7.01626e-05
1.4343e-05
1.43392e-05
1.43382e-05
1.41568e-05
1.41582e-05
1.41608e-05
1.41662e-05
3.27825e-05
4.75279e-05
1.46396e-05
1.66142e-05
3.22041e-05
4.79718e-05
1.46237e-05
6.95009e-05
6.94661e-05
3.27765e-05
1.46379e-05
4.75697e-05
1.65966e-05
3.22016e-05
1.46222e-05
4.79342e-05
6.04143e-05
6.04204e-05
1.97579e-05
6.04893e-05
6.04888e-05
5.68691e-05
7.01985e-05
5.64954e-05
7.02056e-05
6.94233e-05
6.94228e-05
5.6878e-05
7.02004e-05
5.64913e-05
7.02083e-05
1.41028e-05
1.41075e-05
1.4111e-05
1.39679e-05
1.39633e-05
1.39677e-05
1.39636e-05
3.43806e-05
4.84936e-05
1.46028e-05
1.68885e-05
3.38432e-05
4.89308e-05
1.46048e-05
6.94306e-05
6.94114e-05
3.43862e-05
1.46053e-05
4.85775e-05
1.69309e-05
3.38419e-05
1.46078e-05
4.88819e-05
6.08603e-05
6.08786e-05
2.04579e-05
6.09145e-05
6.0932e-05
5.7645e-05
7.0237e-05
5.73317e-05
7.02458e-05
6.93725e-05
6.93745e-05
5.76446e-05
7.02384e-05
5.73332e-05
7.0247e-05
1.39249e-05
1.39257e-05
1.39226e-05
1.38191e-05
1.38208e-05
1.3814e-05
1.38159e-05
3.59218e-05
4.94182e-05
1.46401e-05
1.73744e-05
3.5386e-05
4.98865e-05
1.4662e-05
6.93705e-05
6.9354e-05
3.59234e-05
1.46414e-05
4.95437e-05
1.73512e-05
3.53896e-05
1.4661e-05
4.97765e-05
6.13433e-05
6.13504e-05
2.13639e-05
6.14015e-05
6.14083e-05
5.82957e-05
7.0273e-05
5.80428e-05
7.02802e-05
6.93116e-05
6.93109e-05
5.82955e-05
7.02738e-05
5.8034e-05
7.02831e-05
1.37869e-05
1.37846e-05
1.37852e-05
1.37067e-05
1.3708e-05
1.3708e-05
1.37068e-05
3.73617e-05
5.03199e-05
1.4748e-05
1.78351e-05
3.68599e-05
5.065e-05
1.47829e-05
6.9324e-05
6.93085e-05
3.73605e-05
1.47459e-05
5.0386e-05
1.78524e-05
3.68509e-05
1.47833e-05
5.06577e-05
6.17565e-05
6.17635e-05
2.22981e-05
6.17981e-05
6.18043e-05
5.88563e-05
7.0299e-05
5.86262e-05
7.03178e-05
6.92791e-05
6.92654e-05
5.88459e-05
7.03003e-05
5.86336e-05
7.03185e-05
1.36903e-05
1.36884e-05
1.36883e-05
1.36503e-05
1.3648e-05
1.36504e-05
1.3652e-05
3.86947e-05
5.11583e-05
1.49182e-05
1.84265e-05
3.82009e-05
5.14619e-05
1.49729e-05
6.92744e-05
6.92732e-05
3.86838e-05
1.49185e-05
5.1127e-05
1.84114e-05
3.82102e-05
1.49725e-05
5.14058e-05
6.20834e-05
6.20936e-05
2.33045e-05
6.22159e-05
6.22173e-05
5.93586e-05
7.03297e-05
5.91573e-05
7.03458e-05
6.92482e-05
6.92395e-05
5.93618e-05
7.03325e-05
5.91633e-05
7.03473e-05
1.36421e-05
1.36434e-05
1.36448e-05
1.3634e-05
1.36353e-05
1.3637e-05
1.3637e-05
3.99305e-05
5.18555e-05
1.51606e-05
1.90763e-05
3.94664e-05
5.22141e-05
1.52322e-05
6.92384e-05
6.92301e-05
3.99326e-05
1.51625e-05
5.19025e-05
1.90701e-05
3.94781e-05
1.52336e-05
5.21047e-05
6.2466e-05
6.24778e-05
2.44099e-05
6.25312e-05
6.25378e-05
5.97864e-05
7.03561e-05
5.96185e-05
7.03739e-05
6.92033e-05
6.92093e-05
5.97927e-05
7.03577e-05
5.96143e-05
7.03768e-05
1.36379e-05
1.36401e-05
1.36393e-05
1.36646e-05
1.36666e-05
1.36678e-05
1.36651e-05
4.10639e-05
5.24837e-05
1.54687e-05
1.97754e-05
4.06381e-05
5.2823e-05
1.55557e-05
6.92109e-05
6.9201e-05
4.10716e-05
1.54707e-05
5.25798e-05
1.97893e-05
4.06388e-05
1.55582e-05
5.27871e-05
6.27892e-05
6.27981e-05
2.54147e-05
6.28517e-05
6.28612e-05
6.02036e-05
7.0394e-05
6.0038e-05
7.0403e-05
6.91778e-05
6.91788e-05
6.02048e-05
7.03953e-05
6.00356e-05
7.04051e-05
1.36815e-05
1.36819e-05
1.36807e-05
1.3744e-05
1.37439e-05
1.3743e-05
1.3744e-05
4.21255e-05
5.31746e-05
1.5843e-05
2.05521e-05
4.17217e-05
5.33971e-05
1.59462e-05
6.91822e-05
6.91747e-05
4.21286e-05
1.58438e-05
5.32064e-05
2.05502e-05
4.17199e-05
1.5947e-05
5.33956e-05
6.31063e-05
6.31152e-05
2.65121e-05
6.32063e-05
6.32143e-05
6.05633e-05
7.04211e-05
6.04096e-05
7.04394e-05
6.91613e-05
6.9157e-05
6.05633e-05
7.04226e-05
6.04073e-05
7.04418e-05
1.37701e-05
1.37695e-05
1.37698e-05
1.3867e-05
1.38656e-05
1.38657e-05
1.38663e-05
4.31067e-05
5.3792e-05
1.62801e-05
2.13777e-05
4.27258e-05
5.39758e-05
1.63985e-05
6.91639e-05
6.9158e-05
4.31076e-05
1.62802e-05
5.37956e-05
2.1378e-05
4.27234e-05
1.63988e-05
5.39959e-05
6.33707e-05
6.33787e-05
2.75705e-05
6.34641e-05
6.34718e-05
6.09036e-05
7.04526e-05
6.07617e-05
7.04736e-05
6.91496e-05
6.91472e-05
6.09029e-05
7.04543e-05
6.07618e-05
7.04757e-05
1.39041e-05
1.39049e-05
1.39047e-05
1.40348e-05
1.40359e-05
1.40369e-05
1.40378e-05
4.40216e-05
5.43388e-05
1.67767e-05
2.22567e-05
4.36552e-05
5.45475e-05
1.69108e-05
6.91501e-05
6.91491e-05
4.40215e-05
1.67779e-05
5.43317e-05
2.22606e-05
4.36556e-05
1.69123e-05
5.45572e-05
6.36762e-05
6.36849e-05
2.867e-05
6.37505e-05
6.37592e-05
6.12166e-05
7.0487e-05
6.10877e-05
7.0511e-05
6.91379e-05
6.91401e-05
6.1217e-05
7.04889e-05
6.10884e-05
7.0513e-05
1.40846e-05
1.40859e-05
1.40872e-05
1.42519e-05
1.42516e-05
1.4254e-05
1.42536e-05
4.48758e-05
5.4853e-05
1.73329e-05
2.3165e-05
4.45308e-05
5.50489e-05
1.74802e-05
6.91376e-05
6.91416e-05
4.48757e-05
1.73346e-05
5.48491e-05
2.31706e-05
4.45322e-05
1.74823e-05
5.50476e-05
6.39507e-05
6.39592e-05
2.97311e-05
6.40128e-05
6.40221e-05
6.15183e-05
7.05267e-05
6.13965e-05
7.05479e-05
6.91388e-05
6.91395e-05
6.15185e-05
7.05288e-05
6.13981e-05
7.05496e-05
1.43134e-05
1.43145e-05
1.43148e-05
1.45161e-05
1.45145e-05
1.45152e-05
1.45155e-05
4.56831e-05
5.53627e-05
1.79444e-05
2.41258e-05
4.53508e-05
5.55547e-05
1.81057e-05
6.91361e-05
6.91372e-05
4.56824e-05
1.79465e-05
5.53695e-05
2.41214e-05
4.5354e-05
1.8107e-05
5.55322e-05
6.4206e-05
6.42139e-05
3.07766e-05
6.42884e-05
6.42974e-05
6.18049e-05
7.05719e-05
6.16866e-05
7.05884e-05
6.9141e-05
6.9147e-05
6.18081e-05
7.0574e-05
6.1687e-05
7.05907e-05
1.45879e-05
1.45894e-05
1.45892e-05
1.48245e-05
1.4824e-05
1.48249e-05
1.48247e-05
4.64427e-05
5.5813e-05
1.8608e-05
2.51062e-05
4.61299e-05
5.60248e-05
1.8782e-05
6.9144e-05
6.9145e-05
4.64463e-05
1.86098e-05
5.58415e-05
2.51125e-05
4.61291e-05
1.87842e-05
5.60318e-05
6.44388e-05
6.4445e-05
3.18072e-05
6.45526e-05
6.45618e-05
6.20848e-05
7.06215e-05
6.19652e-05
7.06371e-05
6.91482e-05
6.91579e-05
6.20847e-05
7.06231e-05
6.19652e-05
7.06389e-05
1.49089e-05
1.49092e-05
1.49089e-05
1.51772e-05
1.51799e-05
1.51812e-05
1.51814e-05
4.71676e-05
5.62694e-05
1.93207e-05
2.61118e-05
4.68739e-05
5.64653e-05
1.95064e-05
6.91479e-05
6.91592e-05
4.71665e-05
1.93222e-05
5.62558e-05
2.61093e-05
4.68731e-05
1.95075e-05
5.64684e-05
6.46408e-05
6.46484e-05
3.28082e-05
6.47851e-05
6.47913e-05
6.23475e-05
7.06674e-05
6.22325e-05
7.06948e-05
6.91585e-05
6.91723e-05
6.23508e-05
7.06697e-05
6.22343e-05
7.06972e-05
1.52749e-05
1.52775e-05
1.52777e-05
1.5583e-05
1.55799e-05
1.55825e-05
1.55832e-05
4.78635e-05
5.67039e-05
2.00784e-05
2.71219e-05
4.75828e-05
5.68726e-05
2.02738e-05
6.91604e-05
6.91721e-05
4.78655e-05
2.0081e-05
5.67118e-05
2.71315e-05
4.75836e-05
2.02772e-05
5.68833e-05
6.49071e-05
6.49163e-05
3.38072e-05
6.49947e-05
6.50031e-05
6.26115e-05
7.07213e-05
6.25057e-05
7.07445e-05
6.91821e-05
6.91936e-05
6.26104e-05
7.07228e-05
6.25061e-05
7.07464e-05
1.56879e-05
1.56892e-05
1.56907e-05
1.60253e-05
1.60282e-05
1.60291e-05
1.60272e-05
4.85347e-05
5.71327e-05
2.08777e-05
2.81596e-05
4.82604e-05
5.72985e-05
2.10842e-05
6.91796e-05
6.91943e-05
4.8532e-05
2.08801e-05
5.71223e-05
2.81562e-05
4.82607e-05
2.10856e-05
5.72896e-05
6.51392e-05
6.51465e-05
3.47599e-05
6.5212e-05
6.52191e-05
6.2874e-05
7.0782e-05
6.27613e-05
7.08088e-05
6.92051e-05
6.92187e-05
6.28767e-05
7.07843e-05
6.27637e-05
7.08111e-05
1.61466e-05
1.61487e-05
1.61457e-05
1.65194e-05
1.65183e-05
1.65206e-05
1.65223e-05
4.91768e-05
5.75289e-05
2.17151e-05
2.9193e-05
4.89134e-05
5.76895e-05
2.19293e-05
6.92067e-05
6.92183e-05
4.91785e-05
2.17176e-05
5.75409e-05
2.91993e-05
4.89137e-05
2.19326e-05
5.76946e-05
6.53452e-05
6.53536e-05
3.57132e-05
6.54758e-05
6.54841e-05
6.31283e-05
7.08429e-05
6.30224e-05
7.08697e-05
6.92336e-05
6.92491e-05
6.31285e-05
7.08446e-05
6.3023e-05
7.08719e-05
1.66471e-05
1.6649e-05
1.66518e-05
1.70501e-05
1.70492e-05
1.70514e-05
1.70509e-05
4.98008e-05
5.79154e-05
2.25858e-05
3.02247e-05
4.95476e-05
5.807e-05
2.28075e-05
6.9233e-05
6.92495e-05
4.97992e-05
2.25885e-05
5.79113e-05
3.02269e-05
4.9547e-05
2.28101e-05
5.80698e-05
6.55823e-05
6.55902e-05
3.6617e-05
6.56294e-05
6.5637e-05
6.33868e-05
7.09105e-05
6.32761e-05
7.09391e-05
6.92681e-05
6.92854e-05
6.33876e-05
7.09129e-05
6.32778e-05
7.09411e-05
1.71893e-05
1.71915e-05
1.719e-05
1.76233e-05
1.76229e-05
1.76249e-05
1.7626e-05
5.04007e-05
5.82862e-05
2.34828e-05
3.12572e-05
5.01523e-05
5.84433e-05
2.37115e-05
6.92679e-05
6.92843e-05
5.04005e-05
2.34854e-05
5.82902e-05
3.12607e-05
5.01518e-05
2.37144e-05
5.84429e-05
6.57827e-05
6.57907e-05
3.75132e-05
6.5894e-05
6.59019e-05
6.36375e-05
7.09781e-05
6.35285e-05
7.1013e-05
6.93043e-05
6.93277e-05
6.36377e-05
7.09805e-05
6.35281e-05
7.10151e-05
1.77726e-05
1.77743e-05
1.77756e-05
1.8237e-05
1.82364e-05
1.82398e-05
1.82377e-05
5.09847e-05
5.86465e-05
2.44068e-05
3.22811e-05
5.07468e-05
5.88003e-05
2.46414e-05
6.93049e-05
6.93287e-05
5.09834e-05
2.44091e-05
5.86442e-05
3.22845e-05
5.07456e-05
2.46438e-05
5.88044e-05
6.59853e-05
6.59934e-05
3.8373e-05
6.60648e-05
6.60727e-05
6.38893e-05
7.10537e-05
6.37903e-05
7.10812e-05
6.93441e-05
6.93632e-05
6.38891e-05
7.10561e-05
6.37907e-05
7.10834e-05
1.83953e-05
1.83986e-05
1.83969e-05
1.88818e-05
1.8882e-05
1.88849e-05
1.88862e-05
5.15506e-05
5.90053e-05
2.5353e-05
3.32901e-05
5.13193e-05
5.91339e-05
2.55925e-05
6.93446e-05
6.93625e-05
5.15497e-05
2.53565e-05
5.90082e-05
3.3292e-05
5.13193e-05
2.55956e-05
5.91325e-05
6.62112e-05
6.6219e-05
3.92199e-05
6.62833e-05
6.62918e-05
6.41372e-05
7.1129e-05
6.40266e-05
7.11651e-05
6.93906e-05
6.9415e-05
6.41367e-05
7.11311e-05
6.40258e-05
7.11675e-05
1.90476e-05
1.90508e-05
1.90526e-05
1.95635e-05
1.95629e-05
1.9565e-05
1.95644e-05
5.20896e-05
5.93245e-05
2.63123e-05
3.4275e-05
5.1867e-05
5.94715e-05
2.65542e-05
6.9392e-05
6.94155e-05
5.20881e-05
2.63157e-05
5.93254e-05
3.42766e-05
5.18659e-05
2.65573e-05
5.94707e-05
6.63775e-05
6.63849e-05
4.0024e-05
6.64666e-05
6.64744e-05
6.43871e-05
7.12114e-05
6.42856e-05
7.12432e-05
6.94415e-05
6.94612e-05
6.43869e-05
7.12133e-05
6.42845e-05
7.12458e-05
1.97396e-05
1.9742e-05
1.974e-05
2.02768e-05
2.02759e-05
2.02798e-05
2.02795e-05
5.26229e-05
5.96693e-05
2.72899e-05
3.52561e-05
5.24055e-05
5.97966e-05
2.75362e-05
6.9443e-05
6.94644e-05
5.26222e-05
2.72924e-05
5.96693e-05
3.52614e-05
5.24038e-05
2.75393e-05
5.98015e-05
6.65928e-05
6.66007e-05
4.083e-05
6.66808e-05
6.66885e-05
6.46258e-05
7.12902e-05
6.45213e-05
7.13267e-05
6.94921e-05
6.95157e-05
6.46236e-05
7.12921e-05
6.45209e-05
7.13286e-05
2.04573e-05
2.04611e-05
2.04614e-05
2.10111e-05
2.10112e-05
2.10146e-05
2.10129e-05
5.31252e-05
5.99727e-05
2.82743e-05
3.62073e-05
5.29191e-05
6.01083e-05
2.85204e-05
6.94911e-05
6.95173e-05
5.31231e-05
2.82779e-05
5.9973e-05
3.62105e-05
5.29187e-05
2.85237e-05
6.0104e-05
6.67741e-05
6.67823e-05
4.15829e-05
6.6837e-05
6.68445e-05
7.13707e-05
6.47576e-05
6.9539e-05
7.13733e-05
6.47577e-05
2.11979e-05
2.12015e-05
2.12004e-05
6.02636e-05
2.92573e-05
5.34083e-05
6.95418e-05
2.92604e-05
6.0269e-05
5.34072e-05
6.69492e-05
6.6957e-05
6.96395e-05
6.96405e-05
5.88251e-05
5.88299e-05
7.00319e-05
5.27951e-05
7.00308e-05
5.27924e-05
4.49873e-05
1.49648e-05
2.85411e-05
4.50305e-05
1.4965e-05
2.85409e-05
6.96534e-05
5.90197e-05
5.90228e-05
6.96522e-05
7.0033e-05
5.27931e-05
4.49876e-05
1.49649e-05
2.85387e-05
7.00314e-05
5.27922e-05
1.49643e-05
4.50472e-05
2.85381e-05
4.50302e-05
1.49652e-05
2.85432e-05
7.0034e-05
5.27845e-05
1.49647e-05
4.49894e-05
2.85432e-05
7.0028e-05
5.27843e-05
6.96509e-05
5.90432e-05
5.90336e-05
6.96495e-05
1.49645e-05
4.50419e-05
2.85398e-05
1.49649e-05
4.49976e-05
2.85405e-05
7.00343e-05
5.2778e-05
7.00287e-05
5.27766e-05
5.89434e-05
5.89557e-05
6.96434e-05
6.96449e-05
6.96333e-05
6.96157e-05
6.96343e-05
6.96181e-05
5.89861e-05
5.89825e-05
1.83333e-05
5.94303e-05
5.94401e-05
6.95562e-05
6.95866e-05
6.95585e-05
6.95895e-05
1.84383e-05
5.94471e-05
5.94629e-05
5.94543e-05
5.94677e-05
5.3536e-05
7.00354e-05
5.29187e-05
7.00591e-05
2.93916e-05
4.5182e-05
1.4912e-05
1.61864e-05
2.88294e-05
4.57033e-05
1.48617e-05
2.93907e-05
4.5249e-05
1.4912e-05
1.61765e-05
2.88286e-05
4.56451e-05
1.48613e-05
5.36635e-05
7.00858e-05
7.00681e-05
5.42364e-05
5.36613e-05
7.00863e-05
7.00628e-05
5.42364e-05
2.96808e-05
1.6221e-05
4.61922e-05
1.47755e-05
4.58997e-05
1.48179e-05
3.02481e-05
2.96797e-05
1.62039e-05
4.62341e-05
1.47746e-05
4.58289e-05
1.48168e-05
3.02468e-05
5.91381e-05
5.91312e-05
1.82691e-05
5.92627e-05
5.92422e-05
6.96373e-05
6.95987e-05
6.95697e-05
6.95845e-05
1.83766e-05
5.95987e-05
5.9596e-05
5.93047e-05
5.92949e-05
6.95685e-05
6.95839e-05
2.93936e-05
4.51821e-05
1.4912e-05
1.61865e-05
2.88282e-05
4.57034e-05
1.48619e-05
5.35388e-05
7.00352e-05
5.29247e-05
7.00598e-05
2.93935e-05
1.49115e-05
4.52397e-05
1.61726e-05
2.88273e-05
1.4861e-05
4.56429e-05
5.36575e-05
7.00874e-05
7.00696e-05
5.42343e-05
2.96817e-05
1.62212e-05
4.62002e-05
1.47757e-05
4.59028e-05
1.4818e-05
3.02466e-05
5.36554e-05
7.0089e-05
7.0064e-05
5.42338e-05
2.96806e-05
1.61979e-05
1.47746e-05
4.62302e-05
1.48163e-05
4.5828e-05
3.02458e-05
5.35434e-05
7.00385e-05
5.29101e-05
7.00628e-05
2.93878e-05
1.49116e-05
4.5183e-05
1.61786e-05
2.88266e-05
1.48614e-05
4.56145e-05
5.35411e-05
7.00325e-05
5.29096e-05
7.00601e-05
2.96778e-05
1.62036e-05
4.62319e-05
1.47751e-05
4.58252e-05
1.48172e-05
3.0251e-05
5.36635e-05
7.00905e-05
7.00669e-05
5.42379e-05
2.96759e-05
1.62233e-05
1.47768e-05
4.63193e-05
1.4818e-05
4.5836e-05
3.02531e-05
5.36612e-05
7.00918e-05
7.00654e-05
5.42355e-05
5.90581e-05
5.90484e-05
1.82693e-05
5.92527e-05
5.92511e-05
6.96222e-05
6.96052e-05
6.95711e-05
6.9596e-05
1.83768e-05
5.95991e-05
5.95944e-05
5.93814e-05
5.93767e-05
6.95701e-05
6.95949e-05
2.93895e-05
1.49118e-05
4.51845e-05
1.6179e-05
2.88255e-05
1.48617e-05
4.56162e-05
5.35451e-05
7.00381e-05
5.29136e-05
7.00635e-05
5.35435e-05
7.00331e-05
5.29121e-05
7.0061e-05
2.96803e-05
1.61978e-05
1.47751e-05
4.62272e-05
1.48168e-05
4.58257e-05
3.02448e-05
2.96791e-05
1.62237e-05
1.47771e-05
4.63254e-05
1.48182e-05
4.58379e-05
3.02468e-05
5.36608e-05
7.00931e-05
7.0068e-05
5.42323e-05
5.36593e-05
7.00928e-05
7.00663e-05
5.42305e-05
6.96259e-05
6.96052e-05
6.96261e-05
6.96067e-05
1.84361e-05
5.96982e-05
5.97111e-05
5.93781e-05
5.93885e-05
6.95748e-05
6.95974e-05
6.95769e-05
6.95996e-05
6.95499e-05
6.95487e-05
6.95518e-05
6.95501e-05
5.94894e-05
5.95048e-05
1.88864e-05
5.99892e-05
5.99953e-05
6.95001e-05
6.95345e-05
6.9501e-05
6.95358e-05
1.90448e-05
6.02798e-05
6.02799e-05
6.00864e-05
6.00949e-05
5.48303e-05
7.00898e-05
5.43387e-05
7.01153e-05
3.1083e-05
4.63465e-05
1.47391e-05
1.63251e-05
3.05349e-05
4.68052e-05
1.47055e-05
3.10847e-05
4.63864e-05
1.47393e-05
1.63433e-05
3.05333e-05
4.68103e-05
1.47066e-05
5.49309e-05
7.01496e-05
7.01263e-05
5.54565e-05
5.49316e-05
7.01433e-05
7.01199e-05
5.54544e-05
3.13613e-05
1.64032e-05
4.7504e-05
1.46571e-05
4.70016e-05
1.468e-05
3.19459e-05
3.13621e-05
1.64126e-05
4.74023e-05
1.46577e-05
4.70042e-05
1.46804e-05
3.19464e-05
5.96404e-05
5.96353e-05
1.89414e-05
5.99372e-05
5.99311e-05
6.95511e-05
6.95383e-05
6.95017e-05
6.95286e-05
1.9123e-05
6.01868e-05
6.01653e-05
6.0034e-05
6.00255e-05
6.94991e-05
6.9526e-05
3.10898e-05
4.63532e-05
1.47392e-05
1.63252e-05
3.05329e-05
4.68081e-05
1.47058e-05
5.48439e-05
7.00931e-05
5.43397e-05
7.01157e-05
3.10939e-05
1.47395e-05
4.64299e-05
1.63463e-05
3.053e-05
1.47068e-05
4.6851e-05
5.49414e-05
7.01502e-05
7.01283e-05
5.54506e-05
3.13664e-05
1.6403e-05
4.75028e-05
1.46572e-05
4.70068e-05
1.46803e-05
3.19477e-05
5.49417e-05
7.01448e-05
7.01188e-05
5.54476e-05
3.13681e-05
1.64003e-05
1.46557e-05
4.7385e-05
1.46804e-05
4.6983e-05
3.19462e-05
5.48542e-05
7.00939e-05
5.43437e-05
7.01188e-05
3.10995e-05
1.47407e-05
4.64883e-05
1.63232e-05
3.05341e-05
1.47059e-05
4.67783e-05
5.48505e-05
7.0094e-05
5.4341e-05
7.01102e-05
3.13706e-05
1.64116e-05
4.73903e-05
1.46576e-05
4.70033e-05
1.46806e-05
3.19377e-05
5.49496e-05
7.01436e-05
7.01228e-05
5.54222e-05
3.13678e-05
1.63574e-05
1.46531e-05
4.73671e-05
1.46774e-05
4.6912e-05
3.19331e-05
5.49461e-05
7.01463e-05
7.01145e-05
5.54224e-05
5.97089e-05
5.97046e-05
1.89434e-05
5.99095e-05
5.99088e-05
6.95579e-05
6.95335e-05
6.95121e-05
6.95169e-05
1.9105e-05
6.02658e-05
6.02499e-05
5.99284e-05
5.99259e-05
6.95101e-05
6.95152e-05
3.11027e-05
1.4741e-05
4.64914e-05
1.63235e-05
3.05355e-05
1.47062e-05
4.67825e-05
5.48657e-05
7.00972e-05
5.43457e-05
7.0119e-05
5.48628e-05
7.00952e-05
5.43432e-05
7.01118e-05
3.13816e-05
1.63996e-05
1.46558e-05
4.73755e-05
1.46807e-05
4.69846e-05
3.19321e-05
3.13779e-05
1.63577e-05
1.46533e-05
4.7373e-05
1.46779e-05
4.6913e-05
3.19293e-05
5.49585e-05
7.01449e-05
7.01216e-05
5.54137e-05
5.4956e-05
7.01465e-05
7.01158e-05
5.5415e-05
6.95487e-05
6.95231e-05
6.95502e-05
6.95246e-05
1.89452e-05
6.03131e-05
6.0323e-05
5.98143e-05
5.98192e-05
6.95181e-05
6.95167e-05
6.95197e-05
6.95184e-05
6.94758e-05
6.94604e-05
6.94768e-05
6.9463e-05
6.02819e-05
6.02808e-05
1.96621e-05
6.02831e-05
6.02853e-05
6.94565e-05
6.94572e-05
6.94588e-05
6.94602e-05
1.97471e-05
6.08876e-05
6.08972e-05
6.03596e-05
6.03734e-05
5.59669e-05
7.01464e-05
5.5548e-05
7.01673e-05
3.27892e-05
4.76355e-05
1.4639e-05
1.65814e-05
3.22279e-05
4.78244e-05
1.46221e-05
3.27891e-05
4.75397e-05
1.46397e-05
1.66153e-05
3.22243e-05
4.79731e-05
1.46239e-05
5.60416e-05
7.01967e-05
7.01653e-05
5.64195e-05
5.6041e-05
7.01821e-05
7.01694e-05
5.64161e-05
3.30437e-05
1.66328e-05
4.84979e-05
1.46022e-05
4.79524e-05
1.46102e-05
3.35782e-05
3.30436e-05
1.66727e-05
4.84005e-05
1.46028e-05
4.81332e-05
1.4613e-05
3.35831e-05
6.02381e-05
6.02218e-05
1.9725e-05
6.05627e-05
6.05626e-05
6.94874e-05
6.94766e-05
6.94304e-05
6.94571e-05
1.9839e-05
6.06252e-05
6.06241e-05
6.06061e-05
6.06068e-05
6.94288e-05
6.94565e-05
3.27878e-05
4.76329e-05
1.4639e-05
1.65808e-05
3.22243e-05
4.78253e-05
1.46221e-05
5.59667e-05
7.0149e-05
5.55412e-05
7.01642e-05
3.27885e-05
1.46379e-05
4.75798e-05
1.65976e-05
3.22185e-05
1.46223e-05
4.79374e-05
5.60382e-05
7.01984e-05
7.01672e-05
5.64147e-05
3.30404e-05
1.66323e-05
4.85005e-05
1.46024e-05
4.79575e-05
1.46101e-05
3.35758e-05
5.60408e-05
7.01862e-05
7.01655e-05
5.64127e-05
3.30414e-05
1.6669e-05
1.46043e-05
4.84279e-05
1.46125e-05
4.80395e-05
3.35796e-05
5.59686e-05
7.01471e-05
5.55137e-05
7.01728e-05
3.27861e-05
1.46369e-05
4.75767e-05
1.66197e-05
3.21988e-05
1.4623e-05
4.79576e-05
5.59726e-05
7.01506e-05
5.55153e-05
7.01658e-05
3.30425e-05
1.66719e-05
4.84017e-05
1.46036e-05
4.81356e-05
1.46135e-05
3.36045e-05
5.60522e-05
7.01868e-05
7.01754e-05
5.64439e-05
3.30447e-05
1.67051e-05
1.46078e-05
4.84364e-05
1.4616e-05
4.80553e-05
3.36047e-05
5.60551e-05
7.0187e-05
7.01671e-05
5.64416e-05
6.03786e-05
6.03652e-05
1.96559e-05
6.04703e-05
6.04629e-05
6.94993e-05
6.94656e-05
6.94441e-05
6.94501e-05
1.98167e-05
6.0765e-05
6.07665e-05
6.04771e-05
6.04718e-05
6.94438e-05
6.94497e-05
3.27792e-05
1.46371e-05
4.75799e-05
1.66196e-05
3.21984e-05
1.46231e-05
4.79563e-05
5.59678e-05
7.01495e-05
5.55052e-05
7.01694e-05
5.59684e-05
7.01508e-05
5.5507e-05
7.01664e-05
3.30434e-05
1.66683e-05
1.46053e-05
4.84308e-05
1.46131e-05
4.80406e-05
3.35976e-05
3.30448e-05
1.67049e-05
1.4608e-05
4.84439e-05
1.46161e-05
4.80509e-05
3.35985e-05
5.60522e-05
7.01909e-05
7.01713e-05
5.64409e-05
5.60519e-05
7.01887e-05
7.01678e-05
5.64373e-05
6.95045e-05
6.94651e-05
6.95057e-05
6.94666e-05
1.99732e-05
6.07708e-05
6.07871e-05
6.049e-05
6.04897e-05
6.94439e-05
6.94487e-05
6.94473e-05
6.94511e-05
6.94353e-05
6.94022e-05
6.94371e-05
6.94043e-05
6.09277e-05
6.09349e-05
2.0486e-05
6.0917e-05
6.09234e-05
6.93944e-05
6.93936e-05
6.93965e-05
6.93959e-05
2.07083e-05
6.12958e-05
6.13067e-05
6.09205e-05
6.09277e-05
5.68657e-05
7.01852e-05
5.6491e-05
7.02117e-05
3.43831e-05
4.86535e-05
1.46025e-05
1.69302e-05
3.38283e-05
4.88667e-05
1.46055e-05
3.4377e-05
4.84923e-05
1.46019e-05
1.68891e-05
3.38277e-05
4.89323e-05
1.4604e-05
5.69372e-05
7.0235e-05
7.02084e-05
5.72696e-05
5.69354e-05
7.02242e-05
7.02144e-05
5.72708e-05
3.46229e-05
1.70294e-05
4.94111e-05
1.46252e-05
4.89562e-05
1.46128e-05
3.51586e-05
3.46165e-05
1.70024e-05
4.93388e-05
1.46224e-05
4.90874e-05
1.46098e-05
3.51633e-05
6.06496e-05
6.06461e-05
2.02999e-05