/*--------------------------------*- C++ -*----------------------------------*\
| =========                 |                                                 |
| \\      /  F ield         | OpenFOAM: The Open Source CFD Toolbox           |
|  \\    /   O peration     | Version:  v2006                                 |
|   \\  /    A nd           | Website:  www.openfoam.com                      |
|    \\/     M anipulation  |                                                 |
\*---------------------------------------------------------------------------*/
FoamFile
{
    version     2.0;
    format      ascii;
    class       volScalarField;
    location    "750";
    object      epsilon;
}
// * * * * * * * * * * * * * * * * * * * * * * * * * * * * * * * * * * * * * //

dimensions      [0 2 -3 0 0 0 0];


internalField   nonuniform List<scalar> 
14374
(
1.15553e-06
1.14451e-06
1.39044e-06
1.15746e-06
1.14459e-06
1.37098e-06
6.71464e-07
6.60605e-07
9.66108e-06
3.61637e-06
3.5895e-06
9.62154e-06
1.93188e-05
5.65796e-06
5.66465e-06
1.93353e-05
9.14783e-07
3.62679e-06
2.24865e-06
9.09747e-07
3.59046e-06
2.24408e-06
9.66992e-06
4.21123e-06
9.6241e-06
4.20514e-06
5.60898e-06
5.61076e-06
1.92759e-05
1.92776e-05
9.64355e-06
9.60499e-06
1.93027e-05
4.68877e-06
2.93534e-06
5.65779e-06
1.00249e-05
2.93402e-06
1.00173e-05
4.68934e-06
4.68215e-06
2.93886e-06
5.66315e-06
1.00247e-05
1.00135e-05
2.93745e-06
4.68374e-06
1.00061e-05
2.26411e-05
2.26379e-05
2.26348e-05
2.26255e-05
1.00088e-05
1.9319e-05
2.30159e-05
9.66033e-06
7.26314e-06
7.26934e-06
2.30574e-05
1.28013e-05
4.20492e-06
4.86435e-06
1.13826e-05
4.86136e-06
1.13753e-05
1.28128e-05
2.2969e-05
9.60622e-06
7.23121e-06
7.23464e-06
2.30163e-05
1.27815e-05
4.19892e-06
4.84777e-06
1.13773e-05
4.8447e-06
1.13693e-05
1.27962e-05
4.62564e-06
2.90051e-06
5.60556e-06
9.95524e-06
4.62876e-06
2.89801e-06
9.9365e-06
4.63188e-06
2.90191e-06
5.6078e-06
9.96057e-06
4.63489e-06
2.89944e-06
9.94213e-06
9.90771e-06
2.25562e-05
2.25612e-05
9.91525e-06
2.25266e-05
2.25338e-05
1.92463e-05
1.92484e-05
2.78542e-06
1.3909e-06
1.92613e-06
1.92818e-06
1.92572e-06
1.92778e-06
2.78651e-06
2.74807e-06
1.37117e-06
1.90228e-06
1.90271e-06
2.75038e-06
1.90097e-06
1.90141e-06
4.82222e-07
4.78224e-07
2.17414e-06
3.61464e-06
2.17295e-06
2.15517e-06
3.58761e-06
2.15353e-06
1.80546e-06
2.18148e-06
3.62591e-06
2.98951e-06
1.80558e-06
2.18058e-06
2.98835e-06
1.62106e-06
2.24643e-06
1.50092e-06
2.49641e-06
1.62099e-06
1.50021e-06
2.49447e-06
1.78583e-06
2.15568e-06
3.58839e-06
2.96254e-06
2.96022e-06
2.15398e-06
1.78666e-06
1.6101e-06
2.24173e-06
1.49754e-06
2.48255e-06
1.49667e-06
2.48008e-06
1.61049e-06
7.49628e-07
1.30354e-06
1.62798e-06
7.05933e-07
1.21034e-06
1.43613e-06
1.54362e-06
1.45926e-06
1.27558e-06
1.29643e-06
1.21905e-06
1.1983e-06
1.60004e-06
1.27408e-06
1.28444e-06
1.22349e-06
1.23425e-06
1.32097e-06
1.21431e-06
1.56048e-06
1.48295e-06
1.32118e-06
1.23278e-06
1.21975e-06
1.45647e-06
1.45702e-06
1.20584e-06
1.21152e-06
1.21605e-06
1.17882e-06
1.47616e-06
1.18445e-06
4.33892e-06
9.84558e-06
4.46286e-06
9.70595e-06
1.95116e-05
1.91698e-05
4.36187e-06
9.73898e-06
7.6174e-07
7.57815e-07
7.74092e-07
7.17551e-07
7.03281e-07
7.24547e-07
7.12101e-07
2.42053e-06
3.96462e-06
1.03132e-06
1.26808e-06
2.53361e-06
3.78664e-06
1.0031e-06
1.96283e-05
1.9489e-05
2.44472e-06
1.27868e-06
1.016e-06
3.84289e-06
6.15822e-06
6.16851e-06
1.56733e-06
5.9358e-06
5.95629e-06
9.62052e-06
9.67897e-06
4.29506e-06
6.84811e-07
7.09013e-07
6.89276e-07
1.93072e-05
9.45914e-07
3.71545e-06
2.30787e-06
5.58918e-06
5.60013e-06
1.94398e-05
1.93208e-05
1.93504e-05
5.86513e-06
1.50165e-06
5.76902e-06
5.77397e-06
1.92704e-05
1.92933e-05
1.9287e-05
1.93182e-05
1.49533e-06
5.72302e-06
5.73329e-06
5.74959e-06
5.75577e-06
4.34385e-06
9.90693e-06
4.47904e-06
9.65032e-06
2.3779e-06
3.84482e-06
1.01439e-06
1.25585e-06
2.46013e-06
3.758e-06
9.95613e-07
2.37978e-06
3.92637e-06
1.01919e-06
1.2636e-06
2.46958e-06
3.76603e-06
9.96673e-07
4.30583e-06
9.62597e-06
9.6734e-06
4.23464e-06
4.30668e-06
9.46619e-06
9.58398e-06
4.22407e-06
2.35404e-06
1.23669e-06
3.69367e-06
9.58584e-07
3.73805e-06
9.76936e-07
2.29717e-06
2.35303e-06
1.23028e-06
3.60542e-06
9.51742e-07
3.72014e-06
9.74039e-07
2.28827e-06
5.9919e-06
6.01822e-06
1.51961e-06
5.77023e-06
5.7711e-06
1.95098e-05
1.9128e-05
1.9079e-05
1.49948e-06
5.70915e-06
5.70148e-06
1.90298e-05
2.38942e-06
1.01536e-06
1.25634e-06
3.75992e-06
1.00079e-06
4.37392e-06
9.91855e-06
4.44219e-06
9.81236e-06
2.39531e-06
1.01851e-06
3.86941e-06
1.27194e-06
2.4412e-06
1.00587e-06
3.81247e-06
4.34209e-06
9.68067e-06
9.71329e-06
4.30005e-06
2.37485e-06
1.23923e-06
3.70865e-06
9.70239e-07
3.74349e-06
9.85391e-07
2.33757e-06
4.35511e-06
9.71548e-06
9.77729e-06
4.31143e-06
2.38088e-06
1.25297e-06
9.73097e-07
3.7469e-06
9.8937e-07
3.79642e-06
2.34296e-06
4.40793e-06
9.99133e-06
4.59377e-06
9.67218e-06
2.43096e-06
1.03727e-06
4.03164e-06
1.28999e-06
2.5402e-06
1.00924e-06
3.8833e-06
4.42556e-06
1.01226e-05
4.60617e-06
9.80888e-06
2.37973e-06
1.23183e-06
9.46859e-07
3.73209e-06
9.74807e-07
2.26923e-06
4.34634e-06
9.58272e-06
4.18645e-06
2.39033e-06
1.2525e-06
9.51334e-07
3.65849e-06
9.80371e-07
3.82677e-06
2.27811e-06
4.36391e-06
9.46495e-06
9.70442e-06
4.20023e-06
5.93988e-06
1.53404e-06
5.86656e-06
5.88252e-06
1.94437e-05
1.93467e-05
1.94348e-05
1.52842e-06
5.80028e-06
5.76802e-06
5.84638e-06
5.85153e-06
1.92526e-05
1.93733e-05
2.45131e-06
1.04021e-06
4.02769e-06
1.29344e-06
2.5264e-06
1.01836e-06
3.89605e-06
4.45128e-06
9.84815e-06
4.46158e-06
1.0136e-05
4.58441e-06
9.86249e-06
2.41625e-06
1.25578e-06
9.68614e-07
3.73437e-06
9.9215e-07
3.81715e-06
2.33152e-06
2.42008e-06
1.25694e-06
9.63163e-07
3.67971e-06
9.90638e-07
3.8435e-06
2.32642e-06
4.40861e-06
9.65181e-06
9.78846e-06
4.28776e-06
4.41503e-06
9.52679e-06
9.76358e-06
4.27956e-06
1.97908e-05
1.93788e-05
1.98366e-05
1.94189e-05
1.55017e-06
5.64324e-06
5.65754e-06
5.85696e-06
5.87897e-06
1.89565e-05
1.92418e-05
1.89671e-05
1.9275e-05
1.92676e-05
1.92819e-05
5.72384e-06
5.73494e-06
3.68943e-06
3.70651e-06
9.5631e-07
2.33059e-06
9.69929e-06
4.30582e-06
9.57325e-07
3.73877e-06
2.33538e-06
9.24974e-07
3.6137e-06
2.24817e-06
9.41001e-06
4.15977e-06
5.79037e-06
5.74878e-06
1.92094e-05
9.37058e-07
3.63619e-06
2.29996e-06
9.61493e-06
4.25573e-06
9.46744e-06
4.24364e-06
1.88884e-05
1.88911e-05
1.28154e-05
4.37842e-06
1.13467e-05
4.98586e-06
1.13858e-05
5.02312e-06
1.27771e-05
2.30902e-05
7.4914e-06
9.79307e-06
2.31538e-05
7.44179e-06
1.28682e-05
4.41873e-06
1.14893e-05
5.10607e-06
1.29213e-05
1.14368e-05
5.06255e-06
2.30157e-05
7.36187e-06
9.74403e-06
7.40106e-06
2.29773e-05
1.93896e-05
1.9263e-05
1.28801e-05
4.38596e-06
5.00829e-06
1.14313e-05
5.03435e-06
1.14557e-05
1.28537e-05
2.31663e-05
9.80853e-06
7.44422e-06
1.29183e-05
4.40876e-06
5.06073e-06
1.14892e-05
2.30972e-05
7.38737e-06
9.76928e-06
7.41544e-06
2.30616e-05
1.95894e-05
1.95246e-05
1.06161e-05
2.28152e-05
2.2817e-05
2.29799e-05
2.29907e-05
1.04877e-05
5.16652e-06
3.32434e-06
1.06136e-05
6.09255e-06
5.21266e-06
3.29149e-06
1.05151e-05
5.17773e-06
3.32941e-06
1.06478e-05
6.10717e-06
5.22329e-06
3.29872e-06
1.05508e-05
1.07288e-05
2.33299e-05
2.33497e-05
1.08284e-05
2.31778e-05
2.31915e-05
5.11154e-06
1.02749e-05
6.018e-06
3.20706e-06
3.25416e-06
1.03957e-05
5.04026e-06
5.12194e-06
1.03072e-05
6.0371e-06
3.21691e-06
3.2627e-06
1.04308e-05
5.04979e-06
2.2895e-05
7.28068e-06
9.61913e-06
2.28919e-05
7.27988e-06
2.29746e-05
7.34436e-06
9.6796e-06
2.29725e-05
7.34912e-06
1.27684e-05
4.29162e-06
4.94453e-06
1.13484e-05
1.27728e-05
4.94349e-06
1.13428e-05
1.92847e-05
4.63709e-06
2.96191e-06
9.78098e-06
5.54182e-06
4.69377e-06
2.92181e-06
9.72499e-06
4.63577e-06
2.97026e-06
9.78466e-06
5.54739e-06
4.69423e-06
2.9291e-06
9.72291e-06
9.82808e-06
2.2159e-05
2.21247e-05
9.91413e-06
2.21002e-05
2.20581e-05
1.93953e-05
1.93469e-05
1.94322e-05
1.93799e-05
1.01605e-05
2.2649e-05
2.26642e-05
2.26711e-05
2.2691e-05
1.01262e-05
4.88069e-06
3.14127e-06
1.02071e-05
5.82746e-06
4.91393e-06
1.016e-05
3.11713e-06
4.88967e-06
3.14188e-06
5.82966e-06
1.01905e-05
3.11901e-06
1.02016e-05
2.27171e-05
2.27444e-05
4.85352e-06
1.00886e-05
5.79735e-06
3.0746e-06
1.01185e-05
4.82753e-06
3.09556e-06
4.86156e-06
1.0114e-05
5.80116e-06
3.07872e-06
1.01468e-05
4.83459e-06
3.09889e-06
1.92717e-05
1.92831e-05
1.929e-05
1.93051e-05
1.00962e-05
2.2633e-05
2.26412e-05
1.01064e-05
2.26325e-05
2.26368e-05
4.79033e-06
3.02788e-06
5.72658e-06
1.00495e-05
1.00494e-05
3.03416e-06
4.78841e-06
4.79288e-06
3.03363e-06
5.73554e-06
1.00615e-05
1.00636e-05
3.03987e-06
4.78983e-06
4.79602e-06
1.00663e-05
3.05778e-06
5.73399e-06
4.8098e-06
1.00545e-05
3.04352e-06
4.80009e-06
1.00879e-05
3.06276e-06
5.74146e-06
4.81536e-06
1.00725e-05
3.04882e-06
1.00965e-05
2.26586e-05
2.26487e-05
2.26363e-05
2.26364e-05
1.01053e-05
1.27986e-05
4.38739e-06
1.13371e-05
5.00287e-06
1.13804e-05
5.05221e-06
1.27464e-05
2.3133e-05
7.54532e-06
9.81465e-06
2.32437e-05
7.47739e-06
1.28677e-05
4.43153e-06
1.14935e-05
5.15699e-06
1.14362e-05
1.29368e-05
5.10329e-06
2.29999e-05
7.35581e-06
9.72541e-06
7.41371e-06
2.29189e-05
1.27179e-05
1.13108e-05
4.95522e-06
4.27575e-06
1.27409e-05
1.12862e-05
4.92872e-06
2.28979e-05
9.63475e-06
7.28375e-06
2.28961e-05
7.29443e-06
2.29172e-05
7.33352e-06
9.65139e-06
2.29331e-05
7.30874e-06
1.26967e-05
4.25346e-06
1.12515e-05
4.89527e-06
1.2686e-05
1.12643e-05
4.90985e-06
1.26651e-05
1.12975e-05
4.95987e-06
4.27255e-06
1.26975e-05
1.12702e-05
4.92124e-06
2.27148e-05
9.49308e-06
7.20874e-06
7.23361e-06
2.26913e-05
2.27751e-05
7.30639e-06
9.53351e-06
2.28236e-05
7.26491e-06
1.26357e-05
4.24656e-06
1.12317e-05
4.8653e-06
1.12462e-05
4.89105e-06
1.26193e-05
1.02705e-05
2.2455e-05
2.23976e-05
2.2574e-05
2.25228e-05
1.01499e-05
5.02017e-06
3.24641e-06
1.03734e-05
5.91359e-06
1.0254e-05
5.09433e-06
3.19933e-06
5.00485e-06
3.25384e-06
1.03768e-05
5.93215e-06
3.20544e-06
5.08014e-06
1.02467e-05
1.0395e-05
2.28988e-05
2.2863e-05
2.27396e-05
1.05289e-05
2.26914e-05
4.94832e-06
1.00363e-05
5.84097e-06
3.10096e-06
1.01372e-05
3.15107e-06
4.8742e-06
4.93155e-06
1.00093e-05
5.85157e-06
3.10164e-06
3.15431e-06
1.01198e-05
4.85663e-06
1.93721e-05
1.92334e-05
1.90206e-05
9.95607e-06
2.23381e-05
2.22836e-05
1.00475e-05
2.2265e-05
2.22104e-05
4.74497e-06
9.9461e-06
3.05447e-06
5.65382e-06
3.00983e-06
4.80805e-06
9.87519e-06
4.72623e-06
9.9113e-06
3.05151e-06
5.63726e-06
4.78972e-06
9.83391e-06
3.00395e-06
1.89643e-05
1.29087e-05
4.39755e-06
1.14388e-05
5.04186e-06
1.14631e-05
5.06488e-06
1.2882e-05
2.33012e-05
7.50687e-06
9.88558e-06
2.33444e-05
7.47806e-06
1.29478e-05
4.41847e-06
1.15251e-05
5.10944e-06
1.14968e-05
1.29785e-05
5.08597e-06
2.32297e-05
7.42765e-06
9.84491e-06
7.45211e-06
2.31974e-05
1.28086e-05
4.98688e-06
1.14046e-05
4.3233e-06
1.28253e-05
4.96834e-06
1.13877e-05
2.29808e-05
9.68538e-06
7.34316e-06
2.29781e-05
7.34634e-06
2.30015e-05
7.36838e-06
9.69679e-06
2.30175e-05
7.35296e-06
1.27909e-05
4.31053e-06
4.94773e-06
1.13602e-05
1.2783e-05
4.95615e-06
1.13695e-05
1.28319e-05
1.14113e-05
5.0237e-06
4.33588e-06
1.28504e-05
1.13939e-05
5.00571e-06
2.30859e-05
9.72942e-06
7.37703e-06
7.38326e-06
2.30738e-05
2.3123e-05
7.4083e-06
9.75367e-06
2.31431e-05
7.39273e-06
1.281e-05
4.32313e-06
1.13645e-05
4.98379e-06
1.13745e-05
4.99416e-06
1.27997e-05
1.28372e-05
4.47269e-06
5.04523e-06
1.13519e-05
5.11671e-06
1.14295e-05
1.27515e-05
2.31513e-05
7.66204e-06
9.88112e-06
7.57062e-06
2.33096e-05
1.29392e-05
4.53496e-06
5.25529e-06
1.16045e-05
5.1862e-06
1.30388e-05
1.15186e-05
2.29761e-05
7.39931e-06
9.77017e-06
7.48658e-06
2.28513e-05
1.28987e-05
4.48952e-06
1.13683e-05
5.09917e-06
1.14468e-05
5.16711e-06
1.2809e-05
2.33732e-05
7.73832e-06
1.0025e-05
2.35248e-05
7.65708e-06
1.30021e-05
4.55048e-06
1.16201e-05
5.29273e-06
1.30972e-05
1.15361e-05
5.23302e-06
2.319e-05
7.48885e-06
9.91507e-06
7.57422e-06
2.30524e-05
1.26098e-05
4.97894e-06
1.12798e-05
4.28646e-06
1.26713e-05
4.91527e-06
1.12223e-05
2.2641e-05
7.32473e-06
9.51051e-06
2.27221e-05
7.25237e-06
1.25566e-05
4.23388e-06
4.81268e-06
1.11382e-05
4.86109e-06
1.11731e-05
1.2521e-05
1.26534e-05
1.12946e-05
5.03277e-06
4.30349e-06
1.27225e-05
1.1235e-05
4.96869e-06
2.26824e-05
9.53122e-06
7.20469e-06
7.26415e-06
2.26164e-05
2.27944e-05
7.40825e-06
9.61345e-06
2.28988e-05
7.3315e-06
1.25913e-05
4.24945e-06
1.11459e-05
4.85795e-06
1.11834e-05
4.91031e-06
1.25467e-05
1.03442e-05
2.28731e-05
2.28116e-05
2.29078e-05
2.28528e-05
1.03088e-05
3.18162e-06
5.91566e-06
3.1697e-06
4.96642e-06
1.02574e-05
5.89154e-06
3.13955e-06
1.02927e-05
3.1568e-06
4.94197e-06
4.95229e-06
1.02339e-05
5.91816e-06
3.14447e-06
3.16507e-06
1.02805e-05
4.92588e-06
1.94953e-05
1.93664e-05
1.94096e-05
1.02593e-05
2.28173e-05
2.27563e-05
1.02837e-05
2.27939e-05
2.27324e-05
4.88196e-06
3.07664e-06
5.81402e-06
1.0138e-05
3.09163e-06
1.01593e-05
4.86307e-06
4.86381e-06
3.06455e-06
5.79373e-06
1.00782e-05
1.01058e-05
3.08379e-06
4.84406e-06
4.89911e-06
1.02178e-05
3.12346e-06
5.82737e-06
3.10593e-06
4.92132e-06
1.01899e-05
4.88089e-06
1.01833e-05
3.12453e-06
5.81922e-06
4.90479e-06
1.01449e-05
3.10248e-06
1.02449e-05
2.2728e-05
2.26773e-05
2.27494e-05
2.26938e-05
1.02273e-05
1.92789e-05
1.9334e-05
1.29495e-05
4.49489e-06
5.10235e-06
1.14539e-05
5.14538e-06
1.15128e-05
1.28904e-05
2.3219e-05
7.49409e-06
9.90298e-06
7.54431e-06
2.31492e-05
1.29699e-05
4.50982e-06
5.13871e-06
1.14549e-05
5.19458e-06
1.15187e-05
1.2893e-05
2.34704e-05
7.73646e-06
1.00554e-05
2.35987e-05
7.67494e-06
1.30562e-05
4.54993e-06
5.28517e-06
1.1644e-05
1.31257e-05
5.24342e-06
1.15877e-05
2.32955e-05
7.53664e-06
9.95827e-06
7.60783e-06
2.3166e-05
1.27757e-05
5.06094e-06
1.13928e-05
4.3652e-06
1.28249e-05
5.01923e-06
1.13432e-05
2.29178e-05
9.68974e-06
7.32818e-06
7.36628e-06
2.28827e-05
2.29953e-05
7.4504e-06
9.73912e-06
2.30491e-05
7.40371e-06
1.27238e-05
4.32574e-06
4.94631e-06
1.12586e-05
4.98181e-06
1.12949e-05
1.26884e-05
1.27477e-05
5.08404e-06
1.13892e-05
4.3664e-06
1.28126e-05
5.0278e-06
1.13352e-05
2.27769e-05
9.59428e-06
7.27947e-06
7.33866e-06
2.26977e-05
2.29019e-05
7.4684e-06
9.67652e-06
2.30099e-05
7.39998e-06
1.26839e-05
4.32278e-06
4.92589e-06
1.12436e-05
4.97624e-06
1.12832e-05
1.26363e-05
1.9664e-05
1.95097e-05
1.97116e-05
1.95547e-05
1.02357e-05
2.26343e-05
2.26319e-05
1.03645e-05
2.24973e-05
2.24841e-05
4.82401e-06
3.00567e-06
5.70802e-06
9.8545e-06
4.75374e-06
3.05454e-06
9.93966e-06
4.82808e-06
3.01493e-06
5.72736e-06
9.86441e-06
4.75587e-06
3.06456e-06
9.95592e-06
4.89366e-06
1.0152e-05
3.15699e-06
5.77828e-06
4.96992e-06
3.10456e-06
1.0042e-05
4.89974e-06
1.01797e-05
3.16745e-06
5.7989e-06
4.97769e-06
3.11496e-06
1.00644e-05
1.01198e-05
2.22575e-05
2.22275e-05
1.00079e-05
2.23544e-05
2.23361e-05
1.90305e-05
1.91352e-05
1.90485e-05
1.91615e-05
1.92688e-05
1.92816e-05
4.7976e-06
3.02558e-06
1.00532e-05
5.72937e-06
4.79052e-06
1.00646e-05
3.02502e-06
4.79548e-06
3.03142e-06
1.00619e-05
5.74105e-06
4.79093e-06
1.0067e-05
3.03072e-06
1.01739e-05
2.26802e-05
2.26657e-05
1.01358e-05
2.27119e-05
2.26902e-05
2.30345e-05
7.37487e-06
9.68976e-06
2.3047e-05
7.37335e-06
1.2778e-05
4.3008e-06
1.13516e-05
4.97921e-06
1.13454e-05
1.27849e-05
4.97473e-06
2.25139e-05
7.15626e-06
9.37011e-06
2.25467e-05
7.11579e-06
1.24884e-05
4.12582e-06
1.11168e-05
4.81368e-06
1.25103e-05
1.10995e-05
4.77704e-06
4.82972e-06
3.06456e-06
1.01114e-05
5.7764e-06
1.00895e-05
4.84817e-06
3.0512e-06
4.81267e-06
3.04901e-06
1.00487e-05
5.72854e-06
3.03308e-06
4.83036e-06
1.00273e-05
1.01926e-05
2.26804e-05
2.26422e-05
2.26481e-05
1.02144e-05
2.26211e-05
1.91898e-05
2.28058e-05
7.30009e-06
9.58794e-06
7.27201e-06
2.2827e-05
1.26295e-05
4.22648e-06
4.91674e-06
1.12248e-05
4.89e-06
1.26516e-05
1.1202e-05
2.25591e-05
7.23088e-06
9.42284e-06
2.26085e-05
7.1851e-06
1.25617e-05
4.20973e-06
4.88297e-06
1.12075e-05
1.25918e-05
4.84302e-06
1.11826e-05
1.88471e-05
1.88435e-05
5.46713e-07
5.4605e-07
7.41331e-07
5.40774e-07
5.44019e-07
3.54333e-07
3.54138e-07
3.14077e-06
2.21579e-06
2.21707e-06
1.6085e-06
3.17043e-06
2.19105e-06
2.19319e-06
5.08165e-07
5.15e-07
3.37148e-07
2.78479e-06
1.96554e-06
1.96825e-06
1.40354e-06
2.82614e-06
1.93282e-06
1.93523e-06
2.96566e-06
2.09872e-06
2.09852e-06
1.52695e-06
2.98857e-06
2.07933e-06
2.07951e-06
2.8918e-06
1.47309e-06
2.00762e-06
2.00962e-06
2.01725e-06
2.01906e-06
2.88568e-06
3.05108e-06
2.16913e-06
2.17192e-06
1.57066e-06
2.13788e-06
3.09716e-06
2.13528e-06
2.12357e-06
1.55237e-06
2.11413e-06
2.94289e-06
1.50307e-06
2.03548e-06
2.03264e-06
2.05362e-06
2.0522e-06
2.92489e-06
2.91781e-06
1.49301e-06
1.99409e-06
1.99701e-06
2.86854e-06
2.03301e-06
2.03608e-06
2.88326e-06
2.0053e-06
2.00741e-06
1.44779e-06
2.88407e-06
2.00026e-06
2.00249e-06
2.8967e-06
2.02743e-06
2.02345e-06
1.45755e-06
2.00625e-06
2.91278e-06
2.01124e-06
5.51992e-07
5.58487e-07
7.42758e-07
5.4197e-07
5.45355e-07
3.5921e-07
3.60116e-07
5.47975e-07
5.55519e-07
7.53358e-07
5.46686e-07
5.52555e-07
3.56439e-07
3.55724e-07
5.61463e-07
5.6163e-07
7.58368e-07
5.50429e-07
5.55752e-07
3.6153e-07
3.61955e-07
7.29461e-07
5.19498e-07
5.25773e-07
5.30399e-07
5.36357e-07
3.52703e-07
3.46346e-07
7.23276e-07
5.15597e-07
5.13204e-07
5.29081e-07
5.29382e-07
3.5427e-07
3.44011e-07
7.39988e-07
5.28638e-07
5.26679e-07
5.40241e-07
5.41524e-07
3.55278e-07
3.49592e-07
7.3527e-07
5.16544e-07
5.23045e-07
5.33556e-07
5.40183e-07
3.57657e-07
3.47353e-07
1.78631e-06
2.46209e-06
2.66445e-06
1.63302e-06
2.70985e-06
1.66572e-06
1.74885e-06
2.01225e-06
2.4435e-06
3.31162e-06
3.90551e-06
2.04748e-06
2.40585e-06
3.26249e-06
1.80483e-06
2.49992e-06
2.79118e-06
1.71116e-06
1.83717e-06
2.75228e-06
1.68379e-06
1.98751e-06
3.15791e-06
3.84896e-06
2.3285e-06
2.37192e-06
3.21248e-06
1.94638e-06
1.79423e-06
2.47203e-06
1.64855e-06
2.69604e-06
1.67292e-06
2.72299e-06
1.76979e-06
1.99362e-06
3.20018e-06
3.87375e-06
2.35743e-06
2.37916e-06
3.23001e-06
1.96978e-06
3.10803e-06
1.59712e-06
2.13585e-06
2.13857e-06
2.17015e-06
2.17252e-06
3.06313e-06
5.0185e-07
4.97207e-07
3.33158e-07
5.16664e-07
5.1185e-07
3.3957e-07
4.99439e-07
5.05804e-07
3.35705e-07
1.85792e-06
2.26899e-06
3.06593e-06
3.69336e-06
1.8802e-06
2.24998e-06
3.04362e-06
1.65951e-06
2.28625e-06
1.55496e-06
2.56462e-06
1.68185e-06
1.53318e-06
2.54407e-06
2.94726e-06
1.52062e-06
2.04867e-06
2.04965e-06
2.92728e-06
2.06741e-06
2.06804e-06
2.89946e-06
1.4777e-06
2.03845e-06
2.03978e-06
2.91309e-06
2.02354e-06
2.02514e-06
1.75437e-06
2.40519e-06
2.62739e-06
1.60892e-06
2.65352e-06
1.63341e-06
1.72905e-06
1.95987e-06
2.36532e-06
3.20885e-06
3.812e-06
3.17745e-06
1.98501e-06
2.34256e-06
1.76481e-06
2.43199e-06
2.70735e-06
1.66942e-06
2.67933e-06
1.78901e-06
1.64585e-06
1.94808e-06
3.12294e-06
3.78677e-06
2.3057e-06
3.15136e-06
2.3272e-06
1.92332e-06
1.76238e-06
2.40981e-06
2.63039e-06
1.60951e-06
2.66516e-06
1.63607e-06
1.73035e-06
1.9871e-06
2.42622e-06
3.25488e-06
3.87089e-06
2.02099e-06
3.20977e-06
2.38977e-06
1.77755e-06
2.43927e-06
2.73476e-06
1.67514e-06
1.80773e-06
2.69959e-06
1.65004e-06
1.96549e-06
3.12339e-06
3.82075e-06
2.31877e-06
3.16779e-06
1.92885e-06
2.35862e-06
1.69774e-06
2.60513e-06
1.59676e-06
2.33142e-06
1.71977e-06
2.5842e-06
1.57482e-06
1.88425e-06
2.25627e-06
3.70532e-06
3.05127e-06
2.26724e-06
3.06513e-06
1.86843e-06
1.89171e-06
3.10134e-06
2.29263e-06
3.71713e-06
2.27564e-06
1.9128e-06
3.07947e-06
1.6909e-06
2.31329e-06
2.55382e-06
1.54776e-06
2.56801e-06
1.56531e-06
1.6738e-06
1.68648e-06
2.59907e-06
1.59559e-06
2.32765e-06
1.71541e-06
2.56971e-06
1.5715e-06
1.85536e-06
2.19791e-06
3.6388e-06
2.99195e-06
3.01893e-06
2.22632e-06
1.82815e-06
1.87338e-06
3.08531e-06
2.28785e-06
3.6738e-06
1.90699e-06
3.04792e-06
2.2517e-06
1.67461e-06
2.30681e-06
2.52391e-06
1.54092e-06
2.54525e-06
1.5604e-06
1.65132e-06
3.00487e-06
1.5545e-06
2.06729e-06
2.06852e-06
2.10808e-06
2.10629e-06
2.95427e-06
2.86308e-06
1.46437e-06
2.0367e-06
2.03676e-06
2.00009e-06
2.90893e-06
1.9994e-06
1.75402e-06
2.40668e-06
2.63547e-06
1.61723e-06
2.6537e-06
1.63439e-06
1.73502e-06
1.95556e-06
2.35983e-06
3.80483e-06
3.16811e-06
1.97466e-06
2.34014e-06
1.76074e-06
2.42193e-06
1.65534e-06
2.67053e-06
1.77738e-06
1.64102e-06
1.94729e-06
3.12815e-06
3.78418e-06
2.30854e-06
3.14947e-06
2.32752e-06
1.92671e-06
1.76402e-06
2.41217e-06
1.62089e-06
2.65195e-06
1.63755e-06
2.66937e-06
1.74652e-06
1.97179e-06
2.38067e-06
3.20744e-06
3.85084e-06
1.98479e-06
3.1902e-06
2.36882e-06
1.76968e-06
2.42651e-06
1.65718e-06
2.69838e-06
1.78342e-06
1.64384e-06
2.68369e-06
1.96575e-06
3.15488e-06
3.83593e-06
2.3434e-06
3.1756e-06
1.94792e-06
2.36093e-06
1.71117e-06
2.62045e-06
1.61026e-06
2.35978e-06
1.72856e-06
2.60547e-06
1.59358e-06
1.89619e-06
2.26525e-06
3.71708e-06
3.07736e-06
2.27512e-06
3.08646e-06
1.88274e-06
1.90147e-06
3.11247e-06
2.29751e-06
3.72619e-06
2.28227e-06
1.91929e-06
3.09627e-06
1.70631e-06
2.34839e-06
2.58485e-06
1.57366e-06
2.59469e-06
1.58774e-06
1.6923e-06
1.72143e-06
1.61382e-06
2.63731e-06
2.36582e-06
1.73981e-06
1.59685e-06
2.6219e-06
1.91418e-06
2.28948e-06
3.76315e-06
3.09702e-06
3.11039e-06
2.30566e-06
1.89707e-06
1.92095e-06
3.13983e-06
2.33317e-06
3.77553e-06
1.94037e-06
3.12167e-06
2.31494e-06
1.71564e-06
2.35415e-06
1.57604e-06
2.59904e-06
1.59072e-06
2.61033e-06
1.69968e-06
1.80489e-06
2.47187e-06
1.63919e-06
2.69638e-06
1.67143e-06
2.74014e-06
1.76864e-06
2.04151e-06
2.483e-06
3.35009e-06
3.98906e-06
2.45436e-06
2.07107e-06
3.3113e-06
1.82105e-06
2.50825e-06
1.71537e-06
2.81192e-06
1.68875e-06
1.85004e-06
2.77846e-06
2.02226e-06
3.21659e-06
3.94242e-06
2.39037e-06
2.42919e-06
3.26842e-06
1.98424e-06
1.69105e-06
2.62074e-06
1.61122e-06
2.33961e-06
1.72746e-06
2.57808e-06
1.57828e-06
1.87882e-06
3.10793e-06
2.29296e-06
3.67657e-06
1.91858e-06
2.25219e-06
3.05775e-06
1.67192e-06
2.30282e-06
2.5048e-06
1.52927e-06
1.64084e-06
2.53962e-06
1.55807e-06
1.71024e-06
1.61752e-06
2.65272e-06
2.35003e-06
1.74778e-06
1.58431e-06
2.60913e-06
1.88966e-06
2.23752e-06
3.71227e-06
3.01968e-06
3.06601e-06
2.27775e-06
1.85141e-06
1.91665e-06
3.16613e-06
2.35581e-06
3.76631e-06
1.9578e-06
3.11367e-06
2.31259e-06
1.68999e-06
2.31265e-06
1.53411e-06
2.53058e-06
1.56374e-06
2.56846e-06
1.65613e-06
3.00991e-06
1.54883e-06
2.09129e-06
2.09352e-06
2.11109e-06
2.1075e-06
2.99152e-06
2.95695e-06
1.51016e-06
2.08227e-06
2.0835e-06
2.06316e-06
2.97693e-06
2.06314e-06
1.81095e-06
2.48116e-06
1.65195e-06
2.71507e-06
1.67793e-06
2.75e-06
1.7804e-06
2.04328e-06
2.4832e-06
3.34257e-06
3.99089e-06
2.45781e-06
2.06734e-06
3.31131e-06
1.82315e-06
2.50481e-06
1.70827e-06
2.80291e-06
1.68918e-06
1.84524e-06
2.77779e-06
2.02777e-06
3.23401e-06
3.95094e-06
2.3987e-06
2.4351e-06
3.27813e-06
1.99348e-06
1.73e-06
1.63489e-06
2.6685e-06
2.38629e-06
1.75829e-06
1.60769e-06
2.63951e-06
1.91702e-06
2.28097e-06
3.76188e-06
3.08733e-06
1.89088e-06
2.30361e-06
3.11521e-06
1.92975e-06
3.17275e-06
2.34285e-06
3.78556e-06
1.95771e-06
2.3184e-06
3.14123e-06
1.71811e-06
2.35852e-06
1.56733e-06
2.58716e-06
1.69152e-06
1.59308e-06
2.61294e-06
1.72872e-06
1.63651e-06
2.67866e-06
2.38714e-06
1.7636e-06
1.60733e-06
2.64061e-06
1.9073e-06
2.24993e-06
3.73344e-06
3.05533e-06
3.09925e-06
2.29022e-06
1.86995e-06
1.93195e-06
3.19013e-06
2.3664e-06
3.78485e-06
1.97091e-06
3.14238e-06
2.32409e-06
1.71109e-06
2.3564e-06
1.5632e-06
2.57016e-06
1.5909e-06
2.60483e-06
1.67831e-06
2.96534e-06
1.51418e-06
2.10582e-06
2.10882e-06
3.01732e-06
2.06532e-06
2.06842e-06
1.85403e-06
2.25259e-06
3.04427e-06
3.68523e-06
3.03729e-06
1.86454e-06
2.24687e-06
1.87145e-06
2.26227e-06
3.07392e-06
3.70486e-06
3.07096e-06
1.88012e-06
2.25726e-06
1.67975e-06
2.32425e-06
2.57919e-06
1.56959e-06
2.57421e-06
1.68958e-06
1.55895e-06
1.87823e-06
2.28233e-06
3.09053e-06
3.72583e-06
1.89199e-06
3.08161e-06
2.26849e-06
1.68314e-06
2.32843e-06
1.57154e-06
2.59166e-06
1.69564e-06
1.56009e-06
2.58448e-06
1.79729e-06
2.20774e-06
2.98058e-06
3.57231e-06
2.17507e-06
1.82852e-06
2.94506e-06
1.61339e-06
2.2226e-06
1.51785e-06
2.4974e-06
1.4948e-06
1.64022e-06
2.46871e-06
1.81671e-06
2.22038e-06
3.01837e-06
3.59324e-06
2.18692e-06
1.84833e-06
2.98284e-06
1.6363e-06
2.27578e-06
1.54929e-06
2.53928e-06
1.52597e-06
1.66367e-06
2.51132e-06
9.84939e-06
4.43395e-06
1.94781e-05
5.86493e-06
3.83215e-06
2.43798e-06
7.47952e-06
2.32192e-05
5.08937e-06
1.15186e-05
1.29521e-05
1.02381e-05
4.92325e-06
2.27655e-05
2.27962e-05
1.02544e-05
3.19109e-06
2.6889e-06
1.92849e-05
1.38629e-06
5.64771e-06
5.65009e-06
1.92979e-05
2.2381e-06
1.15444e-06
9.10326e-07
3.61543e-06
4.19273e-06
9.6429e-06
1.93035e-05
9.99605e-06
2.26228e-05
2.26031e-05
9.9913e-06
2.26345e-05
2.26215e-05
4.68239e-06
1.00031e-05
2.92677e-06
5.64931e-06
2.92858e-06
4.68078e-06
1.00146e-05
4.67371e-06
9.99411e-06
2.92936e-06
5.65318e-06
4.67109e-06
1.0009e-05
2.93147e-06
1.9319e-05
1.27962e-05
4.84801e-06
1.13569e-05
4.19942e-06
1.27821e-05
4.85171e-06
1.13664e-05
2.30311e-05
7.25555e-06
9.65674e-06
2.29903e-05
7.25309e-06
1.2775e-05
4.19353e-06
4.83605e-06
1.13596e-05
2.29794e-05
9.59907e-06
7.21643e-06
1.92424e-05
2.7807e-06
1.38582e-06
1.92079e-06
1.92263e-06
1.92146e-06
2.77917e-06
1.92339e-06
1.61518e-06
1.49393e-06
2.48611e-06
2.24063e-06
1.61503e-06
1.49475e-06
2.48847e-06
1.7995e-06
2.97911e-06
2.17389e-06
3.61735e-06
1.79897e-06
2.17534e-06
2.98106e-06
2.23587e-06
2.4738e-06
6.75782e-07
9.20909e-07
1.1646e-06
1.41217e-06
6.49638e-07
1.14881e-06
1.149e-06
1.36773e-06
1.92914e-05
5.72553e-06
9.45179e-07
9.46727e-07
9.69141e-06
1.30999e-06
3.57087e-06
2.24278e-06
1.11225e-06
1.14656e-06
5.65094e-06
1.38154e-06
2.24102e-06
2.24665e-06
1.11377e-06
1.14799e-06
1.16448e-06
4.22136e-06
1.14914e-06
1.13832e-06
1.40867e-06
1.37847e-06
9.19206e-07
9.59984e-06
1.1489e-06
1.13799e-06
1.92204e-05
1.3672e-06
1.31098e-06
1.11139e-06
1.14608e-06
1.38284e-06
1.11286e-06
1.14788e-06
1.13688e-06
1.3802e-06
1.13664e-06
3.59941e-06
2.25809e-06
5.65719e-06
2.26015e-06
9.67326e-06
3.70377e-06
9.32257e-07
1.17977e-06
4.23199e-06
1.41651e-06
1.93256e-05
9.44817e-06
4.17378e-06
4.11804e-06
9.39199e-06
1.92258e-05
1.92189e-05
4.17839e-06
9.46002e-06
4.11954e-06
9.40085e-06
5.01284e-07
5.04162e-07
5.04154e-07
6.50503e-07
6.67235e-07
6.67889e-07
6.60222e-07
1.16508e-06
2.26019e-06
3.62972e-06
2.24023e-06
1.15643e-06
3.60734e-06
9.11609e-07
1.92047e-05
1.91986e-05
9.19241e-07
2.23443e-06
3.62197e-06
1.15545e-06
2.25772e-06
9.1002e-07
3.59269e-06
5.66593e-06
5.66786e-06
1.38353e-06
5.6208e-06
5.62024e-06
4.1289e-06
9.43275e-06
4.10003e-06
9.52592e-06
1.92307e-05
1.92648e-05
4.13298e-06
9.43868e-06
4.10118e-06
9.53201e-06
6.65715e-07
6.6696e-07
6.57489e-07
2.23404e-06
3.60356e-06
9.02916e-07
1.14925e-06
2.23084e-06
3.60678e-06
9.03735e-07
1.92338e-05
1.92828e-05
2.23272e-06
9.03198e-07
3.59351e-06
1.1503e-06
2.22577e-06
9.04898e-07
3.6062e-06
5.58988e-06
5.59154e-06
1.36365e-06
5.58762e-06
5.59002e-06
1.92265e-05
1.45005e-06
1.4124e-06
5.65193e-06
5.64722e-06
5.7206e-06
1.92194e-05
1.92896e-05
1.19278e-06
1.17732e-06
9.31375e-07
2.30853e-06
3.63013e-06
3.68925e-06
2.2679e-06
9.32374e-07
1.17936e-06
3.70402e-06
1.19629e-06
3.64954e-06
2.30964e-06
2.26961e-06
4.28136e-06
9.60493e-06
9.6704e-06
4.2257e-06
9.62233e-06
4.28298e-06
4.22912e-06
1.89568e-05
1.89159e-05
1.89765e-05
1.89338e-05
5.54501e-06
5.55326e-06
1.3896e-06
1.33483e-06
5.4503e-06
5.45893e-06
1.89928e-05
1.89148e-05
1.90064e-05
1.89319e-05
1.32902e-06
5.42933e-06
5.43701e-06
5.43941e-06
5.44811e-06
4.18446e-06
9.57372e-06
4.13742e-06
9.55036e-06
2.23651e-06
1.14911e-06
9.10084e-07
2.19454e-06
1.12964e-06
3.49191e-06
8.97879e-07
3.62775e-06
1.16351e-06
9.15743e-07
2.20724e-06
1.15447e-06
3.59669e-06
9.06151e-07
4.10803e-06
9.41823e-06
9.38747e-06
4.09797e-06
4.12896e-06
9.55599e-06
9.54699e-06
4.1201e-06
2.18643e-06
1.11788e-06
3.46502e-06
8.89188e-07
3.48191e-06
8.91432e-07
2.17538e-06
2.2005e-06
1.14929e-06
3.58617e-06
8.99038e-07
3.59454e-06
9.01012e-07
2.19084e-06
1.40783e-06
5.65324e-06
1.38932e-06
5.63001e-06
5.62931e-06
1.92372e-05
1.92277e-05
1.92305e-05
1.92139e-05
1.3894e-06
5.62626e-06
5.62612e-06
5.62973e-06
5.62882e-06
1.92412e-05
1.92226e-05
3.57874e-06
1.15048e-06
9.11107e-07
2.19697e-06
1.13115e-06
3.49823e-06
8.9913e-07
4.18779e-06
9.56584e-06
4.13614e-06
9.53972e-06
9.16385e-07
1.16497e-06
3.62642e-06
2.20827e-06
1.15536e-06
9.06947e-07
3.58905e-06
4.10902e-06
9.42413e-06
9.39555e-06
4.09877e-06
2.18842e-06
1.11944e-06
3.4693e-06
8.90968e-07
3.48765e-06
8.9297e-07
2.1769e-06
4.12724e-06
9.55514e-06
9.53748e-06
4.11836e-06
2.20105e-06
1.15025e-06
9.00785e-07
3.58004e-06
9.02265e-07
3.5866e-06
2.1912e-06
4.2192e-06
9.6158e-06
4.1942e-06
9.6028e-06
9.2038e-07
2.26119e-06
3.64081e-06
2.23945e-06
1.15163e-06
9.09557e-07
3.60226e-06
9.60973e-06
4.19403e-06
9.57549e-06
2.23671e-06
1.15158e-06
3.6016e-06
9.03271e-07
3.60645e-06
9.06005e-07
2.2308e-06
4.18967e-06
9.60809e-06
9.60089e-06
4.18257e-06
2.23533e-06
1.14325e-06
8.99067e-07
3.57827e-06
9.02681e-07
3.59782e-06
2.22783e-06
4.18861e-06
9.56026e-06
9.56543e-06
4.17919e-06
5.64227e-06
5.6367e-06
1.38598e-06
5.6133e-06
5.60587e-06
1.91965e-05
1.91911e-05
1.92291e-05
1.91961e-05
1.38585e-06
5.61447e-06
5.60878e-06
5.61327e-06
5.60571e-06
1.92297e-05
1.91897e-05
1.1639e-06
3.64077e-06
2.23504e-06
1.15106e-06
2.25942e-06
9.08547e-07
3.6006e-06
4.18169e-06
9.58882e-06
4.21213e-06
9.57382e-06
4.18416e-06
4.2158e-06
9.56378e-06
2.23047e-06
1.15076e-06
9.03088e-07
3.58926e-06
9.05029e-07
3.59168e-06
2.22523e-06
2.23057e-06
1.14279e-06
8.99007e-07
3.57638e-06
9.02111e-07
3.59596e-06
2.22352e-06
4.1766e-06
9.59377e-06
9.57351e-06
4.17132e-06
4.17854e-06
9.55085e-06
9.55427e-06
4.17069e-06
1.92275e-05
1.91889e-05
1.91842e-05
1.38189e-06
5.59022e-06
5.59159e-06
5.61514e-06
5.61483e-06
1.91747e-05
1.91747e-05
1.9173e-05
1.91713e-05
1.90148e-05
1.91718e-05
1.90277e-05
1.91817e-05
5.44092e-06
5.44788e-06
1.31776e-06
5.49443e-06
5.49972e-06
1.92003e-05
1.92095e-05
1.32955e-06
5.52969e-06
5.53462e-06
4.14494e-06
9.56036e-06
4.12156e-06
9.59433e-06
2.18913e-06
3.46895e-06
8.89507e-07
1.1132e-06
2.17582e-06
3.49841e-06
8.92682e-07
2.20141e-06
3.58762e-06
8.99153e-07
1.14645e-06
2.19117e-06