/*--------------------------------*- C++ -*----------------------------------*\
| =========                 |                                                 |
| \\      /  F ield         | OpenFOAM: The Open Source CFD Toolbox           |
|  \\    /   O peration     | Version:  v2006                                 |
|   \\  /    A nd           | Website:  www.openfoam.com                      |
|    \\/     M anipulation  |                                                 |
\*---------------------------------------------------------------------------*/
FoamFile
{
    version     2.0;
    format      ascii;
    class       volScalarField;
    location    "750";
    object      p;
}
// * * * * * * * * * * * * * * * * * * * * * * * * * * * * * * * * * * * * * //

dimensions      [0 2 -2 0 0 0 0];


internalField   nonuniform List<scalar> 
14374
(
0.000112901
0.000113062
0.000110927
0.000112995
0.000113048
0.000111069
0.000112771
0.000112803
0.00011029
0.000110426
0.000110902
0.000110827
0.000110413
0.00011051
0.000110543
0.000110519
0.000112952
0.00011065
0.00011076
0.000112976
0.000110851
0.000110792
0.000110607
0.000110643
0.000110754
0.000110675
0.000110898
0.000110887
0.000110841
0.000110814
0.00011483
0.0001153
0.000114997
0.000114993
0.000110554
0.000115015
0.000110432
0.000115071
0.000114958
0.00011051
0.000115092
0.000110613
0.000115025
0.000110584
0.000115094
0.000115111
0.000110613
0.000115054
0.0001105
0.000110518
0.000115046
0.000115059
0.000110527
0.000115078
0.000115105
0.000115092
0.000110582
0.000115046
0.000110557
0.000115119
0.000115137
0.000110638
0.000110625
0.000115092
0.000115129
0.000110615
0.000115273
0.000115235
0.000110789
0.000115252
0.000110728
0.000115163
0.000115167
0.000110705
0.000110659
0.000115154
0.00011516
0.000110666
0.000115395
0.00011093
0.000115359
0.000110901
0.000110958
0.000115364
0.000115389
0.000115364
0.000110917
0.000115357
0.000110857
0.00011093
0.000115351
0.00011535
0.000115411
0.000110889
0.000110883
0.000110911
0.000115407
0.000115404
0.000115388
0.000115356
0.000115
0.000115125
0.000110819
0.000110645
0.000115176
0.000115021
0.000110686
0.000115271
0.000115157
0.000111017
0.000111053
0.000111031
0.000115274
0.000115309
0.000112599
0.000112594
0.000110427
0.000114873
0.000114925
0.000110913
0.000115275
0.000115284
0.000115112
0.000110685
0.00011505
0.000110681
0.000110764
0.000115122
0.000115077
0.000115075
0.000115148
0.000110831
0.000110717
0.00011078
0.000115138
0.000115095
0.000115241
0.000110849
0.000115243
0.000110879
0.000115258
0.000115243
0.000110937
0.000115125
0.000115176
0.000110853
0.000110813
0.00011515
0.000115184
0.000110856
0.000434753
0.00043376
0.000435906
0.000394237
0.000393617
0.000395949
0.000435878
0.000402535
0.000434044
0.000433778
0.000404444
0.000403911
0.000435554
0.000434175
0.000434298
0.000404491
0.000404054
0.000433922
0.000403091
0.000436169
0.000401695
0.000434034
0.000403644
0.000403002
0.000401064
0.000397202
0.000394717
0.000394555
0.000393959
0.000393461
0.000396334
0.000393234
0.000422584
0.000436614
0.000436267
0.000422694
0.000436254
0.000422752
0.000422189
0.000422323
0.000434383
0.000434987
0.000434645
0.000404502
0.0004035
0.000404275
0.000403391
0.000421373
0.00043565
0.000434005
0.00042353
0.000435697
0.000422158
0.000423768
0.000435994
0.000421828
0.000421268
0.000424238
0.000424348
0.00042153
0.000435431
0.000435459
0.000421101
0.000421598
0.000421487
0.00039807
0.000397459
0.000397463
0.000393278
0.000393723
0.000392706
0.000397133
0.000393196
0.000397292
0.00039706
0.000398536
0.000398346
0.000436553
0.000422498
0.000422398
0.000436442
0.000421691
0.000422408
0.000422396
0.000402842
0.000417638
0.000402643
0.000417503
0.000416351
0.000402801
0.000402698
0.000417565
0.00041752
0.000422601
0.000436338
0.000436215
0.000422788
0.000422089
0.000436311
0.000434142
0.000424142
0.000435907
0.000422483
0.00042416
0.000422031
0.00043591
0.00043403
0.00042362
0.000435831
0.000422391
0.000423955
0.000417814
0.000403128
0.000417853
0.000403323
0.000417852
0.000403624
0.000418054
0.000403419
0.000417227
0.000414125
0.000403063
0.000403999
0.000417599
0.000414102
0.000403065
0.00041719
0.000413398
0.000403603
0.000403818
0.000417655
0.000413824
0.000403106
0.000436003
0.000435902
0.000420878
0.000422611
0.000422552
0.000436097
0.000422722
0.00041806
0.000415459
0.000417959
0.000417918
0.000418082
0.000422021
0.000434518
0.000424212
0.000422279
0.000424729
0.00042212
0.000436231
0.000436276
0.000422021
0.000421946
0.000434585
0.000436193
0.00042441
0.000436257
0.000424667
0.000421853
0.000417302
0.000402562
0.00041741
0.000402533
0.000417022
0.000414473
0.000402673
0.000404417
0.00041735
0.000414567
0.000402475
0.000417239
0.000402229
0.000417118
0.000402472
0.000416948
0.000414242
0.000404305
0.000402224
0.000414502
0.000416937
0.00040237
0.000422118
0.000435896
0.000435677
0.000422625
0.000421283
0.000434099
0.000435599
0.000423754
0.000435717
0.000423834
0.000421539
0.000422022
0.000435673
0.000435644
0.000422126
0.000416575
0.000413415
0.000403119
0.000417483
0.000413362
0.000402833
0.000417495
0.000418012
0.000403581
0.000416472
0.000413256
0.000403015
0.000403122
0.000413344
0.000416888
0.000402702
0.00041741
0.000403559
0.000417562
0.000403513
0.000435974
0.000421787
0.000421734
0.000421595
0.000421697
0.00040215
0.000416951
0.000416218
0.000402158
0.000402176
0.00041689
0.000416772
0.000402282
0.000416869
0.0004212
0.000434398
0.000435607
0.00042387
0.000435937
0.000424201
0.000421261
0.000421507
0.000421728
0.000421497
0.000435531
0.000435734
0.000421624
0.000416246
0.000413927
0.000403462
0.000402234
0.000413909
0.000416635
0.000401992
0.000416177
0.000413306
0.000403175
0.000402572
0.00041368
0.000416509
0.000401997
0.000416777
0.000402494
0.000416955
0.000402499
0.000416786
0.000402899
0.000416976
0.000402581
0.000435455
0.000421911
0.000435417
0.000421685
0.000415364
0.000403229
0.000403041
0.000417018
0.000416904
0.000403419
0.00041729
0.000403119
0.000417056
0.000397703
0.000397532
0.000397707
0.000397589
0.000397958
0.000397494
0.000394262
0.000397331
0.000397158
0.000397414
0.000394074
0.000397145
0.000397243
0.000393065
0.000398366
0.000397899
0.000398781
0.00039874
0.000397173
0.000397247
0.000397349
0.000392934
0.000397814
0.000397097
0.000397597
0.00039767
0.000398143
0.000397775
0.000398679
0.000398392
0.000427498
0.000427216
0.000422794
0.000422654
0.000427474
0.000427306
0.000422812
0.000432086
0.000436515
0.000432093
0.000436617
0.000431993
0.000432131
0.000431823
0.000436581
0.000436382
0.000436628
0.000432097
0.000431934
0.000427394
0.000422603
0.000427411
0.000427316
0.000422681
0.000431854
0.000427299
0.00042707
0.000426937
0.000422249
0.000422281
0.000427007
0.000427066
0.000422299
0.000431936
0.000431863
0.000431919
0.000431829
0.000431688
0.000431762
0.000431807
0.000427193
0.000422404
0.000427103
0.000427179
0.000422417
0.000431339
0.000426591
0.000425929
0.000421651
0.000421619
0.000426148
0.000426125
0.000421412
0.000430744
0.000435717
0.000435475
0.000430735
0.000435548
0.000430841
0.000430845
0.000430654
0.000435731
0.000435369
0.000430745
0.000435481
0.000430865
0.000430684
0.000430587
0.00043535
0.000435332
0.00043532
0.000430741
0.000430717
0.000425836
0.000421766
0.00042609
0.000420922
0.000425817
0.00042626
0.000421167
0.000425726
0.000421503
0.000426049
0.000420873
0.000425817
0.000426031
0.000421017
0.000392917
0.000397994
0.000392942
0.000398003
0.000392905
0.000392379
0.000397532
0.000392357
0.000397482
0.000392423
0.000392369
0.000392419
0.000397486
0.000397438
0.000397458
0.000392424
0.000392353
0.000392161
0.00039345
0.000397651
0.000398597
0.000393807
0.000398058
0.000393062
0.000393852
0.000393288
0.000397454
0.000398334
0.000393629
0.000397888
0.000392887
0.000393613
0.000393718
0.000398575
0.000398517
0.000398405
0.000393851
0.000393814
0.000431976
0.000427245
0.000431919
0.000427163
0.000427147
0.00042242
0.000422391
0.000427191
0.000427168
0.000422378
0.000431777
0.000436127
0.000436574
0.000431872
0.000436324
0.000432001
0.000431474
0.000431682
0.000436153
0.000431896
0.000431861
0.000431498
0.000431883
0.000431941
0.000431922
0.000427028
0.000422528
0.00042715
0.00042202
0.000427277
0.000422322
0.000426688
0.00042693
0.000422324
0.00042716
0.000422006
0.000427105
0.000422198
0.000426737
0.000407822
0.000412783
0.000407646
0.000412636
0.000412648
0.000417542
0.000417512
0.000417521
0.000412662
0.000412623
0.000407725
0.000402784
0.000407775
0.000402843
0.00040783
0.000407609
0.000402822
0.000407595
0.000402671
0.000407685
0.000402571
0.000407581
0.000407524
0.00040267
0.000412664
0.000417668
0.000417186
0.000412718
0.000417454
0.000412799
0.000412461
0.000412529
0.000417442
0.00041718
0.000412657
0.00041734
0.000412562
0.00041239
0.0004077
0.000402705
0.000402662
0.000407693
0.000407635
0.000402728
0.000427484
0.00042721
0.000422829
0.000422691
0.000427485
0.000427292
0.000422839
0.000432021
0.000436281
0.000431946
0.000436447
0.000431916
0.00043208
0.000431788
0.000436543
0.000436253
0.000432085
0.000436534
0.000431857
0.000427445
0.000422795
0.000427383
0.000427387
0.000422851
0.000413199
0.000418009
0.000417865
0.000413072
0.000418016
0.000413198
0.000413101
0.000408042
0.000408077
0.000403063
0.000403087
0.000408008
0.000412998
0.000417768
0.000413021
0.000417833
0.000412941
0.000408279
0.000408188
0.000403342
0.000403312
0.000403333
0.000408285
0.000408199
0.000413298
0.000418065
0.00041795
0.000413132
0.000418078
0.000413276
0.000413229
0.000408517
0.000408494
0.000403698
0.000408553
0.000403644
0.00041338
0.000418086
0.000413333
0.000418109
0.000413375
0.000408407
0.000408267
0.000403455
0.000403524
0.000408382
0.000408374
0.000403483
0.000427084
0.000422717
0.000422737
0.00042726
0.000427267
0.000422559
0.00043117
0.000435592
0.000436127
0.000431633
0.000431754
0.000435642
0.000430878
0.000431076
0.000435585
0.000435965
0.000431515
0.000430808
0.000435572
0.000431619
0.000431557
0.00043615
0.000436143
0.000431769
0.000435906
0.000431765
0.000426628
0.00042268
0.000427156
0.000421629
0.00042724
0.000426197
0.000422136
0.000426569
0.00042265
0.000427056
0.0004216
0.000426146
0.000427149
0.000422092
0.000431728
0.000427239
0.000413375
0.000413289
0.000418052
0.000418081
0.000417931
0.000413385
0.000413422
0.0004129
0.000417997
0.00041698
0.000413304
0.000412439
0.000417478
0.000413309
0.000412917
0.000418026
0.000416946
0.000413293
0.000417463
0.000413404
0.0004124
0.000413438
0.000426982
0.000426861
0.000422205
0.000422128
0.000426983
0.000426867
0.000422192
0.00043155
0.000436123
0.000431564
0.000436179
0.000431457
0.000431738
0.000431617
0.000436343
0.000436308
0.00043172
0.000436381
0.000431634
0.000426789
0.000421977
0.000426791
0.000426722
0.00042202
0.000412527
0.000417362
0.000417402
0.000412447
0.000417426
0.00041249
0.000412506
0.000407603
0.00040756
0.000402639
0.000402602
0.000407648
0.000412622
0.000417537
0.000412535
0.00041752
0.000412636
0.00040753
0.00040751
0.000402556
0.000402522
0.000402543
0.000407465
0.000407528
0.000412402
0.000417333
0.00041723
0.000412385
0.000417303
0.000412442
0.000412367
0.000407266
0.000407213
0.000402331
0.000407291
0.000402299
0.000412263
0.000417127
0.000412218
0.000417131
0.00041226
0.00040741
0.000407417
0.000402465
0.000402437
0.000407463
0.000407388
0.000402414
0.000427082
0.000426573
0.000422277
0.00042253
0.000426734
0.000427041
0.000422585
0.000431698
0.000435902
0.000431556
0.000431531
0.000436066
0.000431522
0.000431104
0.000435687
0.000435834
0.000431212
0.000435866
0.000431491
0.000427215
0.000422601
0.000427112
0.00042709
0.000422723
0.000426916
0.000426475
0.000422433
0.000422079
0.000426926
0.000426522
0.000422412
0.000431204
0.00043553
0.000431124
0.000435609
0.000430992
0.000431367
0.000431033
0.000435755
0.000435651
0.000435751
0.000431355
0.000431067
0.000426679
0.000422026
0.0004266
0.000426477
0.0004222
0.000413349
0.000417629
0.000417913
0.0004129
0.000417969
0.000413082
0.000413278
0.000413451
0.000418002
0.0004134
0.000418096
0.000413342
0.000408636
0.000408226
0.000403725
0.000403833
0.000408397
0.000408568
0.000403898
0.000413194
0.000417826
0.000417506
0.000412769
0.000417808
0.000413191
0.000412965
0.00040833
0.000408227
0.000403542
0.000408189
0.000403641
0.00041302
0.000417412
0.000412934
0.000417582
0.000412863
0.000408473
0.000408143
0.000403774
0.000403563
0.000408495
0.00040822
0.000403747
0.000426406
0.000421674
0.000421672
0.000426454
0.000426451
0.00042164
0.00043613
0.000431274
0.000431343
0.000426368
0.000421736
0.000426493
0.000421541
0.000426512
0.000426399
0.000421575
0.000426301
0.000421667
0.000426358
0.000421445
0.000426346
0.000426399
0.000421511
0.000426429
0.000407097
0.000412076
0.00041192
0.000416796
0.000416806
0.000416788
0.000411925
0.000411948
0.000406898
0.000401981
0.000407089
0.00040205
0.00040684
0.000407002
0.000402015
0.000406935
0.000401932
0.000407049
0.000402266
0.000407135
0.000406747
0.000402092
0.000411863
0.00041686
0.000416608
0.000412034
0.000411781
0.000416688
0.000411976
0.000411895
0.000416845
0.000416481
0.000411946
0.000416651
0.000412035
0.000411637
0.000406976
0.000402055
0.0004021
0.000406972
0.000407004
0.00040206
0.000407149
0.00041205
0.000426457
0.000426202
0.000421584
0.000421793
0.000426263
0.000426412
0.000421817
0.000426442
0.00042165
0.000426412
0.000426345
0.000421749
0.000426365
0.000426171
0.000421539
0.000421801
0.000426163
0.000426396
0.000421771
0.000430971
0.00043556
0.000430849
0.000435521
0.000430888
0.000430988
0.000430989
0.000435678
0.000435682
0.000435625
0.000430938
0.000431029
0.000426356
0.00042169
0.000426179
0.000426237
0.000421779
0.000412322
0.000416847
0.000417065
0.000412073
0.000417076
0.000412121
0.000412318
0.000407319
0.000407318
0.000402406
0.000407231
0.000402494
0.000412189
0.000416879
0.00041218
0.000416963
0.000412098
0.000407503
0.000407249
0.000402525
0.00040271
0.000407291
0.000407507
0.000402698
0.000412358
0.000416851
0.000417096
0.0004121
0.000417068
0.000412173
0.000412373
0.000407722
0.000407587
0.000402995
0.000407686
0.000403028
0.000412462
0.000417058
0.000412322
0.000417114
0.000412412
0.000407582
0.000407305
0.00040268
0.000402817
0.000407394
0.000407588
0.000402828
0.00043091
0.000426381
0.000430808
0.000426211
0.000412274
0.000417082
0.000417031
0.000416848
0.000412516
0.000412466
0.00040728
0.000402268
0.000407823
0.00040333
0.000402743
0.000406802
0.000407959
0.000407106
0.00040207
0.000407662
0.000403028
0.000402516
0.000406649
0.00040765
0.000411961
0.000417202
0.000416094
0.000412445
0.000416499
0.000411476
0.000412628
0.000411775
0.000416904
0.000416011
0.000412321
0.000416344
0.000411359
0.000412317
0.000407651
0.000403275
0.000403215
0.000403055
0.000407886
0.000407827
0.00040806
0.000412708
0.000407768
0.000412455
0.000392599
0.000392418
0.000392729
0.000397765
0.00039777
0.000392556
0.000397752
0.000392743
0.000392764
0.000392554
0.000397642
0.000397463
0.000392473
0.000397593
0.00039236
0.000392622
0.000392523
0.00039759
0.000397534
0.000397638
0.000392466
0.000392389
0.000392213
0.000397298
0.000392107
0.000397234
0.000392279
0.000392262
0.000392386
0.00039739
0.000397375
0.000392317
0.000397335
0.000392341
0.000394034
0.000398793
0.000393991
0.00039884
0.000394004
0.000394054
0.000393953
0.000398947
0.000398788
0.000398924
0.00039407
0.000394011
0.000392086
0.000397023
0.000397037
0.000392217
0.00039207
0.000397016
0.00039213
0.000392268
0.000397014
0.000397331
0.000392347
0.00039219
0.000397132
0.00039243
0.000392173
0.000397086
0.000397144
0.000392167
0.000397101
0.000392236
0.000392457
0.000392738
0.000397515
0.000392731
0.000392659
0.000397593
0.000392974
0.000392891
0.000397675
0.000397861
0.000392872
0.000397834
0.000393018
0.000393486
0.000398241
0.000393398
0.00039824
0.000393478
0.000393215
0.000393015
0.000397889
0.000397991
0.000398016
0.000393137
0.000393167
0.000393919
0.000393642
0.00043511
0.000435395
0.000424947
0.000425134
0.000425362
0.000425994
0.00043623
0.00043115
0.000435778
0.000436041
0.000431358
0.000435747
0.00043105
0.00043133
0.000393979
0.000394291
0.000394439
0.000392882
0.00039676
0.000396743
0.000391822
0.000397323
0.000392387
0.000392397
0.0004317
0.000435992
0.000436252
0.00043146
0.000436126
0.000431382
0.000431604
0.00040744
0.000406815
0.000402524
0.000402669
0.000407131
0.000407246
0.000402746
0.00043102
0.000435781
0.0004358
0.000430991
0.000431031
0.000435618
0.000430997
0.000436198
0.000431742
0.000431569
0.000406676
0.000406147
0.000401863
0.000401547
0.000406556
0.000406207
0.000401973
0.000406588
0.000405333
0.000401549
0.000401665
0.000402198
0.000405939
0.000406045
0.000392671
0.000397403
0.000397427
0.00039279
0.000397523
0.000392619
0.000392688
0.000392148
0.000396762
0.000396415
0.000391939
0.000391763
0.000396826
0.000392117
0.000434981
0.000434959
0.000424413
0.00042493
0.000424797
0.000425737
0.00043608
0.000435565
0.000435499
0.000424936
0.000425407
0.000425256
0.00042617
0.000436535
0.000435128
0.000435355
0.000424455
0.000424866
0.000425077
0.000425906
0.000436384
0.000415022
0.000404648
0.000404821
0.000414982
0.00041522
0.000415572
0.00040503
0.000414317
0.000404149
0.000403791
0.000414688
0.000414436
0.000415251
0.000404637
0.0004147
0.000404686
0.000404298
0.000415145
0.000414813
0.000415629
0.000404941
0.000414058
0.000403715
0.000403988
0.000414402
0.000414604
0.000415279
0.000404578
0.000425863
0.000425915
0.000421548
0.000421103
0.000426013
0.000425887
0.000421176
0.000430991
0.000435799
0.000435558
0.000431168
0.000435766
0.000430921
0.000430928
0.00043118
0.00043092
0.00043562
0.000435973
0.000435925
0.000430894
0.000431218
0.000425804
0.000421768
0.000426576
0.00042137
0.000426004
0.000426192
0.000421195
0.000426348
0.000426115
0.000421461
0.000421351
0.000426332
0.000426171
0.00042152
0.00042636
0.000421387
0.000426286
0.000421515
0.000426443
0.00042617
0.000421518
0.000425862
0.000425809
0.000420862
0.000421169
0.000425799
0.000426092
0.000421065
0.000393522
0.000393063
0.000393973
0.000394139
0.000393621
0.000394264
0.000392935
0.000393221
0.000393838
0.000392067
0.00039692
0.00039714
0.0003925
0.000396623
0.000392189
0.00039243
0.000392018
0.000392452
0.000396372
0.000397122
0.000396487
0.000391908
0.000392479
0.000426705
0.000426045
0.00042174
0.000422018
0.000422175
0.000426308
0.000426558
0.000412507
0.000412026
0.000416683
0.000416882
0.000417111
0.000412166
0.0004122
0.000426441
0.000426598
0.000422225
0.000421714
0.000426758
0.000426275
0.000421904
0.000431414
0.000436319
0.000436045
0.000431855
0.000431569
0.000436008
0.000431659
0.000431549
0.000431371
0.000436001
0.000436107
0.000431514
0.000436153
0.000431429
0.000426378
0.000422268
0.000427116
0.000422136
0.000426825
0.000426825
0.000421788
0.000426184
0.000426514
0.000422083
0.000421558
0.000426558
0.000426119
0.00042165
0.00043099
0.000435931
0.000435696
0.000431475
0.000435683
0.000431203
0.000431112
0.000431365
0.000431264
0.000435819
0.000435992
0.000436042
0.000431303
0.000431294
0.00042588
0.000422108
0.000426885
0.000421573
0.000426555
0.000421365
0.00042619
0.000412293
0.000417342
0.000416619
0.000412689
0.000416808
0.000412764
0.000412078
0.000407264
0.000402923
0.000407915
0.000403009
0.000407636
0.00040776
0.00040273
0.000412236
0.000417355
0.000417189
0.000412861
0.000412455
0.000416755
0.000412714
0.000407256
0.000407721
0.000403099
0.000402649
0.000407792
0.000407093
0.000402803
0.000412137
0.000417258
0.000416465
0.00041269
0.000416549
0.000412732
0.000411953
0.000407122
0.000402906
0.000408275
0.000403378
0.000407996
0.000407453
0.000402733
0.000411899
0.00041733
0.000416709
0.000413068
0.000416357
0.000412818
0.000412191
0.00040711
0.000407738
0.000403233
0.000402624
0.000407855
0.000407023
0.000402734
0.000426099
0.000425368
0.000421275
0.000421203
0.000425736
0.000425842
0.000421743
0.000412437
0.000411254
0.000416331
0.000416151
0.000411956
0.000416865
0.000411769
0.000426647
0.000426673
0.000422106
0.000421983
0.000426742
0.000426635
0.00042204
0.000431583
0.000436271
0.000431772
0.000431639
0.000436183
0.000431569
0.000431805
0.000431612
0.000436404
0.000431628
0.000436396
0.000431799
0.000426537
0.000422163
0.000426969
0.000421959
0.000426806
0.000426662
0.000421936
0.00042667
0.000426622
0.000421933
0.000421921
0.000426615
0.000426621
0.000421986
0.000431607
0.000436431
0.000436101
0.000431491
0.000436218
0.000431426
0.000431678
0.0004319
0.000431596
0.000436428
0.000436279
0.000436491
0.00043182
0.000431605
0.000426433
0.000421775
0.000426584
0.000421762
0.000426484
0.000421724
0.000426634
0.000412202
0.000417117
0.000416763
0.00041229
0.000416842
0.000412384
0.000412092
0.000407183
0.000402513
0.000407551
0.000402654
0.000407326
0.00040747
0.000402524
0.000412268
0.000417222
0.000417038
0.000412574
0.000412302
0.000416892
0.00041249
0.000406987
0.000407235
0.000402546
0.000402216
0.000407325
0.000406887
0.000402349
0.000412005
0.000416666
0.000416929
0.000412233
0.000416687
0.00041195
0.000412191
0.000406628
0.000401887
0.00040711
0.000402262
0.00040707
0.00040671
0.000401982
0.000411808
0.000416816
0.000416634
0.000412138
0.000416505
0.000412101
0.000411814
0.000406735
0.000407139
0.00040206
0.000402352
0.000406733
0.000407127
0.000402072
0.000426011
0.000425876
0.000421067
0.000421318
0.000425886
0.000425916
0.000421206
0.00043107
0.000436116
0.000435554
0.000430915
0.000431274
0.000435784
0.000430825
0.000431378
0.000430929
0.000435977
0.000435729
0.000431242
0.000436114
0.000430954
0.000425785
0.000421247
0.000426092
0.000421185
0.000426108
0.000425833
0.000420968
0.000411562
0.000416779
0.00041593
0.000412081
0.000416053
0.000412303
0.000411378
0.000411765
0.000417051
0.000416615
0.000412965
0.000416222
0.000412098
0.000412565
0.00040662
0.000407286
0.000403041
0.000402058
0.000402301
0.000407528
0.000406422
0.000411354
0.000415826
0.000416532
0.000411982
0.000415939
0.000411215
0.000412056
0.000406223
0.000402146
0.000407642
0.000402737
0.000407247
0.000406637
0.00040186
0.000411205
0.000416491
0.000416145
0.000412367
0.000415767
0.000412004
0.000411484
0.000406326
0.000407161
0.000401852
0.000402769
0.000406227
0.000407241
0.000401972
0.000426358
0.000426327
0.000421668
0.00042158
0.00042636
0.000426455
0.000421617
0.000411798
0.000411642
0.000416443
0.000416196
0.000411699
0.000416461
0.00041144
0.000426207
0.000426051
0.000421312
0.000421172
0.000426196
0.000425985
0.000421369
0.000431235
0.000435941
0.0004357
0.000430869
0.000431136
0.000435907
0.00043094
0.000431516
0.000431204
0.000436154
0.000435875
0.000431489
0.000436166
0.000431123
0.000425952
0.000421128
0.000425938
0.000420966
0.000425973
0.00042588
0.000421017
0.000411386
0.000416031
0.000416351
0.000411621
0.000416127
0.00041121
0.000411684
0.000406324
0.000401856
0.000406988
0.000402094
0.000401668
0.000406578
0.000406794
0.000411461
0.000416431
0.000416422
0.000411922
0.000416232
0.00041159
0.000411765
0.000406164
0.00040662
0.000401404
0.000402071
0.000401554
0.000406033
0.000406717
0.000411142
0.000415858
0.000416203
0.000411544
0.000415902
0.000411084
0.000411602
0.000406024
0.000401658
0.000407164
0.000402312
0.000406862
0.000406229
0.000401524
0.000411063
0.000416264
0.000415861
0.000411937
0.000415765
0.000411707
0.000411105
0.000405945
0.000406594
0.000401314
0.000402109
0.00040591
0.000406685
0.000401397
0.000411493
0.000410751
0.000415557
0.000415781
0.000415961
0.000410875
0.000411115
0.000392904
0.000397843
0.00039792
0.000392933
0.000393004
0.000397605
0.000392944
0.000392586
0.000397433
0.000397522
0.000392484
0.000392589
0.000397357
0.000392485
0.00039238
0.000392478
0.00039741
0.000397013
0.000392541
0.000397099
0.000392323
0.000392166
0.000396785
0.000397186
0.000392205
0.000396817
0.000392343
0.000391943
0.000392168
0.000392402
0.00039684
0.000397232
0.000396833
0.000392182
0.000392385
0.0003927
0.000397435
0.000398024
0.000393697
0.000392952
0.000397032
0.000393451
0.000392783
0.000393328
0.000396985
0.000397979
0.000392651
0.000397086
0.000393425
0.0003923
0.00039697
0.000397507
0.000393199
0.000392452
0.000396695
0.000392941
0.000392046
0.000392515
0.000396335
0.000397238
0.000391925
0.000396424
0.000392671
0.000436473
0.000436322
0.000436526
0.00043649
0.000436332
0.000436254
0.000436511
0.000436537
0.000436364
0.000436424
0.000436448
0.000436469
0.000436269
0.00043655
0.000436534
0.000436494
0.000436209
0.000436234
0.000124219
0.000124278
0.000124241
0.000124204
0.00012424
0.000124277
0.000122033
0.000121963
0.000124209
0.00012428
0.000124237
0.000119574
0.000119655
0.000124236
0.000124236
0.000124246
0.000119629
0.000119635
0.000119649
0.000124173
0.000124289
0.000119661
0.000119718
0.000124202
0.000119574
0.000119738
0.000124262
0.000124303
0.000119648
0.000124285
0.000119688
0.000119744
0.000119625
0.000119687
0.000124234
0.000124265
0.000119721
0.000124255
0.00011971
0.000119698
0.000119641
0.000124208
0.000119685
0.000124242
0.000119666
0.000119731
0.000119747
0.000119772
0.000119726
0.000119801
0.000119809
0.000119854
0.000119878
0.000119819
0.000120069
0.000124371
0.000124145
0.000119978
0.000124202
0.000119743
0.000119832
0.000124225
0.00012424
0.00011984
0.000124162
0.00011987
0.000119801
0.000119862
0.000124248
0.000124259
0.000119735
0.000124267
0.000119771
0.000119787
0.000119857
0.000119869
0.00017728
0.000177859
0.000178108
0.000180378
0.000140159
0.000140278
0.000140479
0.000142585
0.000200323
0.000200226
0.000197295
0.000197412
0.000200246
0.000148308
0.000182061
0.000181385
0.000150176
0.000149853
0.000181246
0.00014783
0.000181511
0.00018146
0.000150239
0.000150084
0.000177856
0.000181033
0.000149594
0.000149498
0.00018058
0.00014804
0.000177766
0.000181186
0.00014985
0.000149569
0.000181114
0.000147666
0.000143159
0.000140771
0.000140472
0.00014273
0.000140827
0.000140667
0.000140228
0.000142923
0.000140285
0.000186804
0.000186225
0.000186054
0.000186307
0.000200497
0.000200223
0.000187691
0.000187563
0.000185873
0.000185587
0.000200144
0.000182289
0.000181905
0.00016754
0.00016791
0.000181309
0.000166933
0.000182012
0.00018238
0.000167693
0.000167941
0.000177532
0.000177702
0.000177851
0.000149314
0.000149171
0.000149351
0.000148971
0.000178035
0.000180836
0.000180972
0.00016659
0.000168477
0.000166635
0.000168212
0.000181606
0.000167219
0.000177826
0.000166808
0.000181233
0.000168671
0.000180984
0.000168313
0.000166951
0.000181057
0.000181033
0.000166536
0.000166719
0.00016675
0.000128955
0.00014337
0.000143201
0.000128957
0.000142949
0.000128883
0.000128969
0.000143414
0.0001433
0.000128958
0.000139921
0.0001401
0.00013974
0.000128954
0.000142734
0.000140109
0.000131049
0.000142719
0.000128928
0.000130935
0.000143072
0.000128871
0.000129019
0.000140299
0.0001429
0.000131192
0.000142856
0.000131071
0.000128961
0.000142974
0.000142996
0.000129145
0.000129082
0.000129088
0.000186379
0.000199214
0.000185698
0.00018629
0.000186237
0.000200254
0.000186229
0.00020028
0.000197184
0.000187582
0.00018754
0.000199915
0.000186091
0.000200092
0.000185885
0.000187555
0.000187574
0.000200084
0.000197349
0.000185902
0.000199928
0.000185859
0.000200211
0.000186121
0.00020023
0.000186055
0.000185999
0.000200206
0.000186023
0.000182451
0.000168028
0.000182469
0.000168055
0.000182415
0.000182406
0.000180504
0.000167136
0.000168058
0.000168064
0.000148339
0.000163116
0.00014837
0.000163141
0.000161992
0.000148391
0.00014842
0.00016312
0.000163132
0.000181787
0.000181627
0.000167404
0.000167138
0.000181448
0.000178112
0.00017771
0.00016735
0.000168896
0.000167854
0.000168453
0.000181385
0.000178192
0.000178019
0.000167242
0.000168723
0.000167041
0.000168507
0.000162638
0.000148267
0.000162958
0.000148061
0.000162511
0.000147761
0.000162242
0.000147975
0.000162391
0.00015957
0.000148337
0.000149893
0.000162875
0.000159196
0.000148076
0.000162275
0.0001593
0.000147799
0.000149826
0.000162113
0.000159172
0.000147984
0.000180565
0.000181162
0.000166785
0.000166874
0.000166754
0.000181162
0.000166744
0.000147703
0.000162103
0.000161621
0.000147711
0.000147604
0.000162038
0.000161906
0.000147594
0.000161917
0.000182131
0.000178244
0.000177541
0.000167477
0.000168948
0.000167929
0.000168439
0.000181914
0.000181846
0.000167587
0.00016738
0.000177835
0.000178234
0.000181606
0.000167399
0.000168884
0.000168564
0.000167315
0.000162803
0.000148326
0.000163048
0.000148176
0.000162527
0.000159631
0.000148407
0.00015002
0.000162958
0.000159294
0.000148199
0.000162681
0.000147926
0.000162485
0.000148112
0.000162444
0.000159515
0.000150014
0.000147985
0.000159326
0.000162375
0.000148138
0.000181041
0.000181049
0.000166651
0.000166634
0.000177788
0.000180818
0.000180923
0.000166576
0.000168295
0.00016812
0.000166655
0.000181044
0.00016665
0.00016666
0.000161657
0.000158991
0.000147554
0.000149381
0.000161726
0.000158752
0.000147558
0.000161818
0.000147552
0.000161804
0.000147559
0.000161647
0.000158852
0.000149316
0.000147627
0.000158667
0.000161754
0.000147558
0.00016182
0.000147619
0.000161853
0.000147573
0.000181528
0.000181463
0.000166961
0.000167179
0.000167077
0.000181457
0.000167059
0.00014787
0.000162372
0.00016181
0.00014789
0.000147795
0.000162321
0.000162211
0.000147773
0.000162212
0.000177912
0.000181031
0.000166762
0.00016838
0.000180945
0.00016819
0.000166754
0.000166891
0.000181331
0.000181255
0.00016693
0.000166859
0.000181214
0.000166822
0.000161877
0.000159251
0.000149584
0.000147753
0.000158934
0.000162028
0.000147729
0.000161832
0.000158937
0.000149436
0.000147709
0.000158781
0.000161873
0.000147695
0.000162041
0.000147734
0.000162092
0.000147708
0.000162013
0.000147699
0.00016199
0.000147697
0.000181059
0.000166714
0.000166778
0.000161383
0.000147714
0.000147742
0.000161908
0.000161947
0.000147694
0.000161926
0.000147727
0.000161985
0.000143454
0.000128958
0.000143483
0.000128966
0.00014347
0.000143498
0.000129505
0.000129043
0.000129071
0.000124209
0.000124211
0.000124508
0.000124229
0.000124245
0.000128928
0.00014294
0.000143132
0.000128818
0.000129115
0.000143356
0.000140594
0.000131385
0.000143121
0.000129115
0.000131295
0.000129058
0.000142912
0.000140505
0.000131169
0.00014304
0.000128925
0.000131212
0.000124211
0.000124181