/*--------------------------------*- C++ -*----------------------------------*\
| =========                 |                                                 |
| \\      /  F ield         | OpenFOAM: The Open Source CFD Toolbox           |
|  \\    /   O peration     | Version:  v2006                                 |
|   \\  /    A nd           | Website:  www.openfoam.com                      |
|    \\/     M anipulation  |                                                 |
\*---------------------------------------------------------------------------*/
FoamFile
{
    version     2.0;
    format      ascii;
    class       surfaceScalarField;
    location    "750";
    object      phi;
}
// * * * * * * * * * * * * * * * * * * * * * * * * * * * * * * * * * * * * * //

dimensions      [0 3 -1 0 0 0 0];
oriented        oriented;


internalField   nonuniform List<scalar> 
41332
(
1.19357e-06
4.3319e-07
-1.2757e-06
1.6233e-07
-2.82569e-07
2.81445e-07
-1.20217e-07
-0.00113092
1.28568e-06
4.09062e-08
-1.20321e-06
2.64425e-07
-1.87643e-07
2.55522e-07
-1.426e-07
-0.00113209
-1.29751e-06
-0.000268292
3.34712e-07
1.713e-07
-9.15617e-09
2.02444e-08
-1.13313e-06
3.28202e-07
-1.35263e-07
-8.52874e-07
1.90079e-07
8.50844e-07
-2.11853e-07
-0.00113181
1.18649e-06
2.59237e-08
-2.29816e-07
-1.24828e-06
2.22462e-07
-2.22212e-07
-7.88111e-07
2.73898e-07
-1.28334e-07
9.23586e-07
-0.00113249
-0.000268533
2.30762e-07
2.76596e-07
1.02851e-06
-0.00117927
-5.66819e-07
-0.00117924
-6.72928e-08
-5.20098e-08
-0.000194644
-1.07465e-07
-1.72393e-07
-0.000246368
3.38458e-08
1.95572e-08
-1.24838e-07
-0.000246478
1.05492e-08
-0.000194636
-3.53829e-08
-9.85614e-05
-1.09619e-07
-0.000279509
-7.43496e-08
-4.26882e-08
-8.38104e-08
1.76558e-08
-0.000279613
5.13935e-08
-2.65868e-08
-9.8593e-05
1.46573e-07
1.47774e-07
-9.4639e-07
7.76273e-07
9.4112e-07
-7.60324e-07
-0.00115065
-2.43038e-10
-6.26744e-08
-0.000246509
-9.78084e-08
-9.86804e-08
6.85951e-08
-0.000250911
-1.90196e-07
1.00536e-07
2.29464e-07
-9.1738e-07
7.97677e-07
-7.46697e-07
9.83547e-07
-0.00115113
4.71959e-08
-3.0335e-08
-1.50966e-07
-0.000246417
4.99498e-08
8.18846e-08
-0.000250899
-2.05595e-07
-8.80337e-08
-0.000194724
-3.48019e-08
-6.28807e-08
-0.000230443
5.83663e-08
3.68559e-08
-1.01519e-08
-0.000194619
3.01989e-08
-0.000230403
-5.86046e-08
4.25254e-08
-1.59633e-08
-4.29284e-08
-0.000279553
2.132e-08
3.37462e-09
-7.4575e-08
-0.000279465
-1.68835e-08
-9.8547e-05
-9.85406e-05
-5.6992e-08
-6.06461e-08
-0.000194618
1.18104e-08
-2.88975e-08
-0.000194608
-7.90985e-08
-9.85393e-05
1.04266e-07
7.44282e-08
0.00022277
-6.38282e-08
-8.93907e-08
-0.000222796
-0.000251384
-7.82077e-08
-1.8986e-07
9.99494e-08
-9.08298e-08
-8.17396e-08
1.11957e-07
-0.000279528
-0.000183966
-5.70122e-08
-2.31907e-08
-7.32868e-08
1.4539e-07
-0.000251442
-2.88703e-08
-0.000183944
-4.25466e-08
-1.37223e-07
-2.35246e-08
-9.00998e-08
0.000222856
6.63961e-08
7.16291e-08
-0.00022288
-0.000251579
1.17717e-07
-1.11805e-08
-1.48062e-07
6.2458e-08
4.5634e-08
-7.18152e-09
-8.76143e-08
-0.000279626
-0.000184018
2.91207e-08
2.07254e-08
2.61664e-08
-0.000184006
9.55051e-08
-8.62083e-08
-0.000251633
7.81584e-08
2.59864e-08
3.15726e-08
-2.41675e-08
0.000214813
-0.000214818
-8.09718e-05
-2.63921e-08
-8.09839e-05
1.76491e-08
-8.09691e-05
-8.09819e-05
-3.6076e-08
-9.85641e-05
-7.3025e-09
7.9776e-05
-3.33766e-08
-7.97354e-05
-5.64042e-08
6.38269e-09
-0.00019471
-0.000264689
-2.74053e-08
-4.34607e-08
-2.30726e-08
-6.96728e-08
1.83824e-08
-0.000264702
5.10912e-09
-1.67136e-08
-1.92292e-08
0.000144249
-0.000144247
7.57316e-08
2.63068e-09
-6.87312e-08
-4.52316e-10
-0.000230452
-0.000224495
1.10682e-09
-4.34098e-08
-0.000172106
1.43544e-08
-1.14929e-08
1.42956e-08
-0.00022452
-1.69819e-08
-0.000172105
-4.13399e-08
7.9714e-05
-6.30932e-09
-7.96663e-05
2.51039e-08
-1.1743e-08
-4.35827e-08
-0.000194588
-0.000264544
-4.92239e-09
4.78491e-08
-7.40752e-08
3.41189e-08
-3.99598e-08
-0.000264555
2.4322e-08
-3.17731e-08
1.45928e-08
0.000144161
-0.00014415
-5.42824e-08
4.17394e-09
-1.3117e-08
-0.000230408
-0.000224392
1.37287e-08
-8.27937e-08
-0.000172065
-8.28778e-09
-3.14816e-08
-0.000224412
-0.000172063
0.000222844
-2.236e-08
1.93392e-08
2.89241e-08
-6.30449e-10
-0.000222869
5.42618e-08
-0.00025162
-8.95214e-08
-4.90297e-08
-1.93981e-08
1.79398e-08
2.5458e-08
-1.57576e-08
-0.000279561
-1.1566e-08
-0.000183961
1.10615e-08
4.69249e-08
-4.34318e-08
1.5807e-08
2.66403e-09
-0.00025168
1.16802e-08
-0.000183936
0.000222769
2.48032e-08
4.39568e-08
-5.85587e-09
-3.91088e-08
-0.000222793
3.20659e-09
-0.000251485
-1.3169e-07
9.38431e-09
-5.05172e-08
-1.91695e-08
4.83988e-08
3.0508e-08
-0.000279474
-3.39181e-08
-0.000183901
-4.25905e-09
1.19286e-08
-8.56581e-08
-2.18954e-08
5.50138e-08
-0.000251544
-6.55815e-09
-0.000183869
0.00021478
1.60802e-10
1.84935e-08
-0.000214775
-1.94892e-09
-8.09718e-05
-1.73409e-08
-8.09571e-05
-8.096e-05
-8.09451e-05
-9.85097e-05
-9.85039e-05
1.37327e-07
-2.75717e-08
0.00024357
-0.000243698
-1.08731e-07
-2.45682e-07
-0.000270347
-0.000261572
2.5074e-08
-0.000261258
2.11466e-07
-0.000261899
-0.000261571
0.000243649
2.71371e-08
7.05378e-08
-0.000243786
-1.91344e-07
-1.58794e-07
-0.000270634
1.43862e-07
-0.000261393
9.93645e-08
-0.000261788
-0.000261729
-0.00026212
8.59564e-07
-0.00120734
-0.0012074
-0.000260872
-2.29241e-08
-0.000246417
-0.000260984
-0.000261119
1.78891e-08
-0.000246536
-0.000261245
0.000264553
9.57969e-08
-1.44536e-07
-7.84302e-08
-0.000265279
-1.2186e-07
-0.000261052
8.0043e-08
-1.05565e-07
-0.000246564
-1.54567e-07
-0.000251685
-1.01099e-07
-1.12074e-07
-0.000261175
-1.05036e-07
-0.000251811
0.000266111
-7.11645e-08
-1.58581e-07
-0.000266906
1.24247e-07
1.00708e-07
-9.3256e-08
-0.000251043
8.99823e-08
-0.000266262
-8.38834e-08
-1.86106e-07
-0.000250379
-6.66732e-08
-0.000266902
-0.000250528
-7.5357e-08
-5.30237e-08
0.000264594
6.14737e-08
-0.000265315
-0.000261073
4.33835e-08
5.06663e-08
9.03025e-10
-0.000246482
-0.00025162
-2.33395e-07
7.46693e-08
6.92551e-08
-0.000251754
-0.000261198
5.37328e-08
5.98135e-08
-1.10147e-07
0.000266134
-0.00026694
1.0866e-07
-8.1364e-08
-0.000251033
-0.000266283
-7.19739e-08
-0.000250336
-2.34379e-07
-0.000266927
-0.00025049
1.01936e-06
1.13043e-07
1.45325e-07
-1.41233e-06
0.00117886
-1.28634e-06
-9.07492e-07
-4.58401e-07
0.00113154
-2.80221e-07
1.14311e-06
1.54722e-07
8.88363e-07
-1.91056e-07
-8.22865e-07
2.15402e-07
1.30419e-06
1.15545e-06
-2.54414e-07
-2.99335e-07
0.000268131
-1.39726e-06
-9.14446e-07
-0.00117916
1.23314e-06
9.10735e-07
0.00117933
-0.00113255
-1.39157e-06
1.04647e-07
6.87312e-07
-3.66149e-07
1.04469e-06
1.15283e-07
6.35492e-07
-4.35901e-07
-1.06884e-06
-2.76958e-08
0.00113325
-0.000271102
1.13698e-06
1.42578e-06
-4.63342e-07
-2.00629e-07
0.000269203
1.30043e-06
1.14616e-06
-2.31924e-07
-2.69468e-07
0.000268632
-1.21089e-06
-8.94878e-07
0.000270872
-0.000268865
-8.56734e-08
1.84681e-07
4.63417e-07
0.00113213
-2.76248e-07
1.19295e-06
1.79917e-07
8.60664e-07
-2.2174e-07
-8.39437e-07
1.74196e-07
-1.12222e-06
-5.50413e-07
-8.822e-07
0.00113155
-1.33793e-07
1.36774e-06
3.24825e-07
8.23085e-07
-2.59028e-07
-8.83533e-07
1.48032e-07
0.0011334
6.82955e-07
-0.00113326
3.9366e-07
-1.29432e-06
2.19531e-07
-2.54059e-07
-1.13291e-06
-6.64537e-08
-4.79959e-07
5.79573e-07
5.19477e-07
-0.00113417
-5.57733e-07
-1.05563e-06
4.74358e-08
-3.83214e-07
6.79966e-07
1.239e-06
0.001135
-1.23687e-06
1.78543e-07
-2.69395e-07
-3.00277e-07
-1.89203e-07
0.000268454
-5.0034e-07
0.00113285
-2.04718e-07
1.23726e-06
2.14484e-07
8.46562e-07
-2.13467e-07
-8.67464e-07
1.95586e-07
-1.18957e-06
4.77561e-08
-6.76603e-08
0.00113088
-1.84028e-07
1.28541e-06
2.72828e-07
7.66143e-07
-2.95724e-07
-9.31918e-07
1.04323e-07
0.0011336
6.47336e-07
-0.00113356
1.01113e-06
-1.49397e-06
-7.48581e-08
-5.12478e-07
-9.87731e-07
8.05767e-08
-3.25151e-07
7.21968e-07
1.23253e-06
0.00113186
1.17353e-06
-0.00113151
-5.41848e-07
-1.23821e-06
1.93346e-07
-2.46586e-07
-1.10239e-06
-1.18723e-08
-4.29879e-07
6.17424e-07
-6.84038e-07
3.57242e-07
0.00112963
-2.85447e-07
1.16829e-06
1.66185e-07
7.97559e-07
-2.70203e-07
1.12561e-07
-8.88582e-07
1.32413e-06
0.00113392
-2.55308e-07
-0.00113237
-7.23977e-07
-1.16508e-06
3.04472e-07
-1.63789e-07
-1.06975e-06
-1.36507e-08
-4.3687e-07
6.46132e-07
-3.25378e-07
0.000268332
-9.75338e-07
0.000270684
-0.000268622
2.83435e-08
1.17039e-07
2.08622e-07
-6.75619e-07
0.00113025
-2.13334e-07
1.21927e-06
2.15446e-07
7.65386e-07
-2.86159e-07
1.12541e-07
-9.32909e-07
-9.92283e-08
-0.00113186
9.6996e-07
-1.43987e-06
3.29524e-08
-4.27157e-07
-1.0128e-06
1.26834e-08
6.85971e-07
-3.84559e-07
1.02249e-06
0.00113404
-2.65514e-07
-0.00113259
-1.45407e-07
-1.34725e-06
2.01736e-08
-4.04774e-07
-9.4425e-07
1.30388e-07
-2.95944e-07
7.79701e-07
-0.000268964
-2.34267e-08
2.32611e-07
1.27867e-06
1.57673e-06
-5.27445e-07
-2.53998e-07
0.000268798
-2.3407e-07
1.229e-06
2.3763e-07
5.13653e-07
-5.40059e-07
-1.20716e-06
-1.1668e-07
1.61798e-07
0.00113324
1.37815e-06
-5.72364e-07
8.25476e-07
-1.18042e-07
6.76137e-07
-3.70322e-07
-1.03446e-06
3.34649e-08
0.00113344
-1.30607e-06
1.33858e-06
-4.38838e-07
-3.14766e-07
1.15949e-06
1.23781e-07
6.23135e-07
-4.23466e-07
-1.10799e-06
-2.29755e-10
0.00113221
1.62551e-07
-9.18165e-07
-1.40455e-07
1.35341e-06
3.26079e-07
6.2321e-07
-4.54892e-07
-1.79393e-08
-1.10709e-06
0.00113523
-3.65434e-07
-3.49274e-07
0.000268701
-3.3333e-07
2.7466e-07
-4.66842e-07
9.56004e-07
-2.59954e-08
7.91852e-07
-2.88099e-07
1.42504e-07
-9.38047e-07
0.00113536
-1.44816e-07
1.11582e-07
0.000230652
-0.000230693
-6.53787e-08
1.39115e-07
8.99606e-08
1.58703e-07
-1.39733e-07
0.000194854
-7.64096e-08
1.53544e-07
0.000230784
-1.10147e-07
7.6789e-08
8.28293e-08
1.08602e-07
0.000194634
-1.39328e-07
-0.000194686
8.11836e-08
3.37851e-08
9.85547e-05
9.78617e-08
-4.12945e-08
9.8321e-05
-9.83776e-05
6.6806e-08
6.05513e-08
0.000230658
-0.000230666
-7.37261e-08
-4.60104e-08
-1.74892e-08
2.60795e-08
0.00019469
2.20325e-08
-0.00019472
-1.20176e-06
-1.36299e-06
0.00117669
1.46971e-07
1.17003e-07
0.00117761
5.31407e-07
-1.00513e-06
0.00117565
-0.00117904
1.06007e-06
1.47626e-07
0.00117991
-0.00117868
-1.62648e-06
1.46471e-07
7.64203e-07
0.0011772
-0.00117709
-4.04076e-07
1.36773e-06
0.00117782
-0.00117668
-3.84329e-07
-1.27959e-06
-1.52071e-07
1.35068e-07
0.000251674
-0.000251464
-1.41058e-07
-5.16956e-08
-1.13986e-07
-1.66365e-07
1.85937e-07
1.33059e-07
0.000247043
0.00114871
-4.76602e-07
-1.12866e-06
1.02426e-06
-6.83879e-07
-8.63601e-07
8.38316e-07
9.57986e-08
1.08592e-06
0.00113307
-1.10236e-06
-8.42429e-07
1.81631e-07
-2.23459e-07
8.62491e-07
-1.31053e-06
7.97046e-08
-3.51173e-07
-1.87772e-07
8.03821e-08
0.000251252
-9.0283e-08
2.04594e-07
-5.70931e-08
-1.35124e-07
0.000247034
1.15594e-07
-0.000247024
6.63862e-08
-5.87779e-08
0.00115
-1.39132e-06
-8.75355e-07
8.25139e-07
-6.98676e-07
1.00868e-06
1.92943e-08
3.41125e-08
9.87395e-05
5.22081e-08
-2.49645e-08
9.86259e-05
-9.86531e-05
-4.26795e-08
-1.35522e-07
0.000251352
-0.000251163
-3.40819e-08
2.25981e-08
8.24676e-07
1.00245e-06
0.00113129
-2.21179e-07
-9.09794e-07
1.18086e-07
-2.77868e-07
7.85362e-07
-1.3863e-06
3.67902e-08
-3.99596e-07
8.63811e-07
0.00114869
-2.57135e-07
-9.80832e-07
7.24472e-07
-7.96733e-07
8.98619e-07
5.19243e-08
-1.35525e-07
0.000246893
-2.69975e-08
-0.000246858
7.57735e-08
-1.39232e-08
-1.57829e-07
2.15609e-07
3.96988e-08
0.000280231
1.45738e-07
-3.58382e-08
1.15717e-07
-1.27964e-07
0.000280145
-1.2075e-06
-1.16408e-06
0.000270517
-0.000268378
7.61058e-08
1.56252e-07
-1.48466e-08
-9.80586e-08
0.000279935
6.53645e-09
-0.000280037
2.07918e-07
1.86982e-07
-1.76763e-08
0.00027982
-1.28125e-07
-0.000279933
7.18885e-08
-0.000194447
7.6322e-10
1.06231e-07
-5.80688e-08
0.000194398
-0.000194572
2.18954e-08
9.3476e-08
-7.79681e-08
0.000194534
-0.000230471
1.49479e-07
-6.82408e-08
0.000230391
5.17964e-08
-5.28418e-08
-1.25689e-06
8.25931e-07
1.97674e-07
-1.02891e-06
0.00118117
-5.35398e-07
1.53968e-06
0.00117764
-7.33474e-07
-9.90129e-07
0.00117937
-9.84725e-05
1.04908e-07
-5.50523e-08
9.84227e-05
-0.00115026
4.11735e-07
-1.37356e-07
7.57604e-07
-9.27769e-07
-1.12911e-06
5.99537e-07
0.00115138
-0.000246698
9.55278e-08
-1.51794e-07
3.08383e-07
-1.30409e-07
0.000246576
-0.000251476
-1.91626e-07
-1.91786e-07
0.000251335
3.53636e-07
1.71235e-07
-0.00027938
7.51406e-08
2.75064e-08
1.42264e-07
-9.28042e-08
0.000279228
-0.000279207
1.74361e-07
-1.51543e-08
6.71801e-08
-6.44674e-08
0.000279045
1.41001e-07
9.85984e-05
9.11062e-08
9.85304e-05
-9.85387e-05
-1.64026e-09
9.85374e-05
-9.85532e-05
-4.90957e-08
1.80161e-07
9.15521e-08
0.000279944
0.000270866
-1.18879e-06
-1.12251e-06
-0.00026878
6.01316e-08
1.65702e-07
0.000279755
-1.12394e-07
9.95988e-08
-0.000279805
1.53091e-07
0.000279711
1.11518e-07
-5.5813e-08
-0.000279764
-4.42946e-09
2.38072e-08
-2.71383e-08
9.84867e-05
-9.84833e-05
9.138e-08
-6.41684e-08
9.85032e-05
2.30095e-08
-2.10869e-08
9.84684e-05
-9.84703e-05
1.93407e-08
1.51964e-08
9.85028e-05
1.30549e-06
1.37917e-06
0.000268864
-4.09381e-07
-2.73425e-07
-1.06541e-07
0.000279516
1.17448e-07
-0.000279549
4.56691e-08
4.7145e-08
0.000279444
3.79581e-09
-0.000279483
1.13123e-08
-9.56527e-08
8.0024e-08
1.9533e-07
0.000279667
1.17619e-07
-5.20119e-08
4.97773e-08
0.000279615
1.07315e-07
0.000230608
-0.000230649
-6.22966e-08
-1.48682e-07
1.24713e-07
1.17144e-07
0.00019477
1.60095e-07
0.000230738
-1.10796e-07
-8.43919e-08
4.28652e-08
0.000194399
1.54126e-07
-0.000194498
-5.49924e-08
0.000251587
-0.000251438
6.34626e-08
-4.55686e-08
1.9613e-07
-2.80362e-08
0.000246951
0.0011505
7.95776e-07
-1.5558e-06
1.04117e-06
-6.51804e-07
-8.43355e-07
8.76713e-07
5.53925e-07
0.00113282
-6.19435e-07
-1.30799e-06
1.80783e-07
-2.80896e-07
-9.35754e-07
8.22151e-08
-3.11474e-07
7.62075e-07
2.10571e-08
0.000251325
-7.35052e-09
1.81119e-07
0.000246879
-1.00654e-07
-0.000246883
1.00717e-07
9.30412e-07
0.00115133
-1.26732e-06
-9.34668e-07
7.82332e-07
-7.34245e-07
9.42414e-07
0.000251582
-0.000251427
-6.11344e-08
-4.18662e-08
-1.16405e-07
2.09893e-07
7.25787e-08
0.000246894
0.00115008
-1.41129e-06
1.0218e-06
-6.73157e-07
-8.6897e-07
8.53518e-07
-9.71361e-07
0.00113293
1.36627e-06
-4.34231e-07
-9.45436e-07
1.04556e-07
7.66468e-07
-3.09461e-07
-1.1206e-06
3.08711e-07
-1.44352e-07
0.000251293
1.51829e-08
1.95268e-07
0.000246861
-1.41316e-07
1.25909e-07
-0.000246858
5.45314e-08
0.00115117
-1.18031e-06
-9.3476e-07
7.74667e-07
-7.46644e-07
9.52972e-07
-1.60433e-07
1.87966e-07
-7.9622e-08
1.51335e-07
0.000230553
6.76338e-08
-0.000194463
-7.85803e-08
1.49273e-07
-1.3347e-07
0.000194554
-1.71026e-07
9.91058e-08
-0.000230399
-3.04282e-08
1.53664e-07
0.000230348
1.79841e-07
-7.58234e-08
-1.63957e-07
0.000230507
-1.61926e-08
-0.000194124
1.32259e-07
-8.59438e-08
0.000194094
7.81914e-08
-1.07481e-07
1.53002e-07
0.000194275
8.12739e-08
-0.000230349
-2.54303e-08
-1.73856e-07
0.000230296
-8.58913e-08
9.45346e-08
3.15804e-07
0.00025145
5.35302e-07
-1.96079e-08
1.1965e-06
-2.73519e-07
1.98593e-07
6.66253e-07
-4.01134e-07
-2.66788e-09
-1.03849e-06
0.000246583
1.265e-07
-0.000246608
-1.40935e-07
-0.00115208
6.74681e-07
-1.04883e-08
-1.16553e-06
5.55671e-07
-9.63591e-07
7.22461e-07
0.00115266
-1.08283e-07
2.82351e-07
0.000246759
9.10569e-07
-7.48232e-07
8.36104e-07
-8.43117e-07
-1.04495e-06
6.75737e-07
-1.78668e-07
-0.000251364
1.67283e-07
5.44566e-08
0.00025142
-9.54676e-08
3.14816e-07
0.000251457
-8.8907e-07
-1.15594e-06
-6.9048e-09
7.15013e-07
-3.52771e-07
-1.00868e-06
6.94756e-08
1.32346e-06
-1.90315e-07
2.58901e-07
-3.13613e-09
-0.000246547
1.92654e-07
-1.63062e-07
0.000246505
-0.00115225
-4.57748e-08
-1.12079e-06
5.74598e-07
-9.51628e-07
7.7872e-07
0.00115313
-1.69027e-07
1.56241e-07
2.20896e-07
0.000246731
-7.22787e-07
8.66407e-07
-8.47176e-07
-1.02495e-06
6.77374e-07
-0.00025138
-1.87686e-07
3.6052e-08
0.000251434
1.56889e-07
-1.35333e-07
0.000279965
-1.36562e-07
1.54982e-07
-1.09231e-08
0.000280105
0.000270934
-0.000268755
5.55176e-08
2.17698e-07
0.000279614
-1.40546e-07
-0.000279731
7.47263e-08
-1.16723e-07
0.000279705
4.993e-08
-0.000279836
1.40829e-07
-1.2445e-08
9.85341e-05
9.82757e-05
-5.27775e-08
-9.83396e-05
-3.43612e-08
9.82479e-05
1.38306e-06
0.000269044
-4.03844e-07
-2.45201e-07
-1.57593e-07
1.08898e-07
0.000279459
-1.26086e-07
4.86543e-08
5.33444e-08
1.93442e-07
0.000279536
-5.35928e-08
9.82032e-05
1.40588e-07
0.000251367
-0.000251224
-1.56144e-07
-6.01695e-08
0.00115017
-3.3252e-07
-5.29203e-07
9.83388e-07
-7.30234e-07
-9.07145e-07
7.89873e-07
-1.58337e-08
0.00113329
9.73475e-08
-1.2544e-06
1.06706e-07
-3.11789e-07
-9.04917e-07
1.60401e-07
-2.47381e-07
8.05811e-07
0.000246801
1.50166e-07
-0.000246784
-2.91047e-08
4.63439e-08
0.00115039
-1.4574e-07
-9.70861e-07
7.22862e-07
-7.99066e-07
9.16985e-07
8.12857e-08
0.000230617
-0.000230628
-4.37671e-08
3.3319e-08
1.01184e-07
-4.31845e-09
0.000194909
1.22395e-07
0.000230664
-7.51724e-08
8.13074e-08
-1.01604e-07
4.39533e-08
0.000194727
5.69824e-08
-0.000194776
0.000251322
-0.000251182
-3.48284e-08
1.16875e-07
0.00114983
-5.21099e-07
9.35999e-07
-7.45737e-07
-9.46276e-07
7.72706e-07
-1.82382e-09
1.92899e-07
-4.74822e-08
0.000246739
-2.9261e-07
0.00113116
1.28981e-06
4.4448e-07
-1.001e-06
4.55631e-08
6.9876e-07
-3.55643e-07
-1.19349e-06
2.66966e-07
-1.84799e-07
0.000251109
1.96717e-07
9.92061e-08
-1.04679e-07
0.00114994
-5.67391e-08
-1.02318e-06
6.91684e-07
-8.27228e-07
8.59107e-07
0.00024677
-2.69006e-08
-2.40799e-08
-0.000246735
5.95974e-08
1.47471e-07
3.8477e-08
-5.28302e-08
-6.56753e-08
0.000230591
3.93829e-08
-0.000194574
-5.8313e-08
7.51864e-08
-1.09869e-09
0.000194631
6.99168e-08
-4.17872e-08
-0.000230496
2.63936e-08
-2.95299e-08
1.40808e-07
-1.55883e-07
2.825e-07
0.000251247
5.10765e-07
3.52864e-07
1.00218e-06
-4.1956e-07
-7.37816e-10
7.6727e-07
-2.83354e-07
1.25104e-07
-9.42672e-07
0.000246577
-1.05036e-09
-0.000246574
8.51543e-08
-0.00115058
8.03818e-07
0.00115076
7.45712e-07
-1.11493e-06
5.77091e-07
-9.45108e-07
7.71089e-07
1.51531e-07
1.50703e-07
0.000246691
4.63024e-07
2.69356e-07
8.4581e-07
-8.72413e-07
-1.03985e-06
6.47667e-07
7.88948e-08
0.000251295
-0.000251209
-1.05965e-07
1.09705e-08
1.59212e-07
-6.7098e-08
1.06294e-08
0.000230553
5.8278e-09
-9.25006e-08
0.000194493
-0.000194525
1.18904e-07
8.72727e-08
-7.17236e-08
7.0977e-08
0.000194641
8.11583e-08
0.000230422
-0.000230454
-2.42053e-08
-6.64507e-08
3.05552e-07
1.0651e-07
0.00025121
-4.78921e-07
-1.20259e-06
8.3546e-07
6.47142e-07
-4.04546e-07
-1.06343e-06
2.48716e-09
1.27679e-06
-2.02145e-07
2.43701e-07
-0.00115011
0.00115032
9.49591e-07
-1.17055e-06
5.35804e-07
-9.85814e-07
7.19518e-07
-1.06124e-07
0.000246593
4.12775e-08
-0.000246591
6.89017e-08
4.31616e-07
7.85074e-07
-9.10261e-07
-1.09999e-06
6.07637e-07
-6.93493e-08
5.22636e-09
2.3681e-07
0.000246685
0.000251269
-0.000251183
4.04001e-08
3.38649e-08
5.75271e-08
0.000230779
-0.00023082
-5.16218e-08
-1.16815e-07
-4.5991e-09
0.000194957
8.88882e-08
0.000230887
-9.16564e-08
-1.54184e-07
0.000194508
-5.68701e-08
-0.000194639
-1.69871e-07
0.000251621
-0.000251413
-2.58319e-08
1.22341e-07
0.00114828
-1.12392e-06
9.73791e-07
-7.01173e-07
8.18589e-07
-9.00023e-07
-1.89683e-07
2.45481e-07
-3.3453e-08
0.000246964
2.22173e-08
0.00113087
-6.4732e-07
-1.276e-06
2.05799e-07
-2.55106e-07
-9.54295e-07
5.50501e-08
-3.44143e-07
7.43179e-07
-1.98666e-07
0.000251206
2.18089e-07
7.02238e-08
0.00114943
-1.2514e-06
-9.37334e-07
7.85564e-07
-7.29365e-07
9.3826e-07
-1.59982e-07
0.000246995
-5.01633e-08
-0.000246963
1.63271e-07
0.00023074
-0.000230781
-1.19626e-07
4.82478e-08
4.49743e-08
-7.07123e-08
0.00019509
0.000230849
-1.5307e-07
7.67057e-08
0.000194604
7.33849e-09
-1.52065e-08
-0.000194756
-2.23332e-07
1.40443e-07
-1.38161e-07
2.89621e-07
0.000251605
5.7557e-07
-1.07275e-06
1.01628e-06
-4.13282e-07
2.37189e-08
8.1667e-07
-2.75047e-07
-8.94306e-07
1.33818e-07
0.00113454
-0.00115153
8.79769e-07
-1.2868e-06
-1.00683e-06
7.0265e-07
8.78868e-07
-8.1789e-07
-9.43512e-07
0.00115312
-1.79121e-07
1.02791e-07
2.54951e-07
0.000246904
4.42379e-07
-1.46036e-06
9.58312e-07
-7.41504e-07
-9.26117e-07
7.77168e-07
-1.19632e-07
7.69041e-08
-0.000251632
-6.54134e-08
1.20032e-08
0.000251728
3.40163e-08
-2.54735e-08
-1.27319e-07
0.000230674
-7.70225e-08
0.000194352
-5.84268e-08
-0.000230483
6.7675e-08
-5.11986e-08
0.000230406
-2.41446e-07
3.15781e-07
1.23058e-07
0.000251564
-3.62167e-07
-1.21804e-06
-5.22312e-07
6.87428e-07
-3.97586e-07
-1.01469e-06
6.82996e-09
1.27067e-06
-2.04742e-07
2.59139e-07
-0.00115091
0.00115257
-1.06866e-06
-1.05832e-06
6.61453e-07
-8.59511e-07
8.28793e-07
-6.05827e-08
-3.42084e-08
0.000246724
1.29681e-07
-0.00024676
1.43946e-09
-1.24873e-06
8.90523e-07
-7.83951e-07
-9.90177e-07
7.33024e-07
-1.93485e-07
-1.69876e-08
-3.44069e-08
3.39061e-07
0.000246901
-1.29717e-07
0.000251702
-0.000251606
4.17708e-08
6.88461e-08
-1.30095e-07
2.60632e-08
0.000230637
-5.96747e-08
0.000194047
-0.000194138
9.06439e-08
-1.7665e-08
7.51484e-09
0.000194421
0.000230368
-0.000230446
-5.11715e-08
-5.9004e-08
1.178e-07
0.000279961
0.000270489
-0.000268419
2.7875e-08
1.94758e-07
0.000279857
-8.51725e-08
-0.000279893
6.96667e-08
-1.35074e-07
0.000279896
1.09239e-07
-0.00027995
1.3123e-07
9.85558e-05
-9.58497e-08
-9.8595e-05
-6.83986e-08
-9.84966e-05
-1.68783e-08
9.8571e-05
1.43345e-06
0.000268521
-4.12031e-07
-2.55968e-07
0.000279553
7.08323e-09
-0.000279614
-1.20634e-07
-9.02192e-08
-1.12033e-07
0.000279545
1.5628e-07
-0.000279607
1.08712e-07
-1.08688e-07
1.08905e-07
0.00027977
-1.46233e-07
-4.47356e-08
1.04873e-07
1.95362e-07
0.000279787
-6.95351e-08
9.83973e-05
-9.84179e-05
-8.72384e-08
9.84968e-05
-1.3656e-07
0.000251335
-0.00025114
-2.44957e-08
-7.6812e-08
0.0011478
-9.81549e-08
9.0567e-07
-7.86457e-07
7.2762e-07
-9.73513e-07
-1.04924e-07
1.90133e-07
1.06743e-07
0.000246811
-5.99876e-07
0.00113128
1.06011e-07
-1.2074e-06
1.54781e-07
-2.69518e-07
-9.47736e-07
1.10253e-07
-3.02707e-07
7.62046e-07
-1.61389e-07
0.000250992
2.33567e-07
-7.89979e-09
0.0011484
-1.03349e-07
-9.97833e-07
7.01658e-07
-8.18289e-07
8.86151e-07
-8.39659e-08
0.00024686
1.7561e-07
-0.000246816
5.12655e-08
-1.32164e-07
0.000230704
-0.00023072
1.16217e-07
-1.02944e-07
0.000194794
-1.46391e-07
-0.000194879
0.000230659
-0.000230677
-1.48679e-07
-1.01671e-07
-8.07059e-08
1.12681e-07
0.000195059
0.000230711
-8.99251e-08
-1.16523e-07
0.00019464
-8.14733e-08
1.30958e-07
-0.000194774
-6.96275e-08
-2.13751e-07
3.04669e-07
5.01666e-08
0.000251281
9.97863e-07
-1.99859e-07
9.6633e-07
-4.33253e-07
7.73926e-09
7.38437e-07
-3.29503e-07
-9.5772e-07
6.61895e-08
-0.00114934
7.68988e-07
-2.31545e-07
-1.07334e-06
6.47233e-07
8.08379e-07
-8.75744e-07
-1.17584e-07
1.35666e-07
-0.000246706
-1.21545e-07
9.18493e-07
-2.58685e-07
8.57724e-07
-8.31076e-07
-1.02266e-06
6.90971e-07
-1.87694e-07
-3.91005e-08
2.68973e-07
0.000246806
-1.66364e-07
-1.29652e-07
-0.000251348
2.55412e-08
1.42019e-07
-2.1096e-07
3.0909e-07
-1.0797e-07
0.000251275
-4.41849e-07
-1.26995e-06
-8.53964e-08
7.66617e-07
-3.02646e-07
-9.49065e-07
1.15564e-07
1.09706e-06
-3.32209e-07
8.73546e-08
-0.00114934
0.00115059
-2.52757e-07
-1.02914e-06
6.59661e-07
-8.62594e-07
8.58154e-07
-4.28285e-08
-1.74893e-07
0.000246643
1.50336e-08
-0.000246658
2.17746e-07
-1.77558e-07
8.74725e-07
-8.36319e-07
-1.00945e-06
6.83156e-07
-1.27609e-07
-2.13027e-07
2.04734e-07
2.25971e-07
0.00024677
-1.13716e-07
0.000251487
-0.000251356
7.85685e-09
-1.91297e-07
-1.4976e-07
1.33708e-07
-1.20565e-07
0.000230626
0.00019441
-0.000194477
-1.2027e-07
-1.51867e-07
0.000194671
-1.76378e-07
0.000230431
-0.000230484
1.62364e-07
-6.23528e-08
-1.63539e-07
-1.22874e-07
0.000230585
-5.17325e-08
0.000194128
-0.000194214
9.49108e-08
-8.6059e-08
1.24997e-07
0.000194474
0.000230388
-0.000230443
-1.76298e-07
-5.90118e-08
9.87517e-05
9.84438e-05
-9.85345e-05
9.8769e-05
9.84392e-05
-9.85384e-05
0.000268668
-3.75361e-07
-2.63393e-07
1.87342e-08
1.2342e-07
-0.000279491
-6.55112e-08
1.33531e-09
2.36752e-08
-0.000279333
-7.40011e-08
-8.724e-08
-2.35406e-08
2.55158e-07
0.000279774
-2.85674e-08
-1.32581e-07
1.2204e-07
0.000279646
9.81497e-05
-9.81906e-05
9.83389e-05
9.81064e-05
-9.81568e-05
9.83246e-05
2.40696e-08
9.84634e-05
4.87421e-08
9.84416e-05
-6.76404e-08
1.53129e-07
1.30604e-08
0.000279441
4.73652e-08
6.57973e-08
1.55507e-08
0.000279364
2.94497e-07
-1.25586e-07
0.000246453
1.91297e-07
6.78351e-08
0.000246459
1.00679e-06
1.22438e-06
7.00838e-07
-1.0194e-06
-1.1884e-06
5.06363e-07
0.0011509
4.83902e-08
0.000251124
-7.48313e-08
3.46949e-07
4.11123e-08
1.26956e-07
0.00019443
1.51498e-07
0.000230345
-5.05848e-08
-9.20273e-08
1.39367e-06
6.72919e-07
-1.05211e-06
-1.22424e-06
4.75462e-07
0.00115062
-1.4927e-07
2.00211e-07
1.06995e-07
0.000246476
0.000251107
3.64093e-07
-1.97597e-09
-6.30126e-07
7.64036e-07
-9.44638e-07
5.823e-07
-1.13139e-06
-1.13643e-06
0.00115414
-7.8381e-08
2.7211e-07
3.80746e-08
0.000246567
-1.80115e-07
0.000251519
3.68249e-07
3.25433e-08
-3.7315e-08
-7.98161e-08
1.07266e-07
0.000193941
0.000230246
-5.88686e-08
-8.77392e-08
8.90662e-08
3.69471e-08
-1.37372e-07
0.00027945
-8.73541e-08
2.0341e-07
8.29517e-08
0.000279441
-4.53715e-08
9.83553e-05
-2.65919e-07
8.38352e-07
-8.93381e-07
6.34598e-07
-1.05388e-06
0.00115202
-7.7148e-08
1.74553e-07
2.20223e-07
0.0002465
-1.71986e-07
0.00025135
3.29927e-07
-2.13131e-07
-1.01847e-07
0.000194315
-1.7213e-07
0.000230326
1.59135e-07
-7.39346e-08
-4.48858e-08
7.12075e-08
0.000194025
0.000230287
-1.68053e-07
-7.46989e-08
9.80974e-05
9.80464e-05
-9.91474e-08
9.80974e-08
0.000144116
-0.000144193
7.72376e-08
-9.90363e-08
1.21208e-07
-0.000230772
-1.24297e-07
1.81597e-07
-0.00017194
9.47612e-08
-1.05065e-07
0.000171885
-0.000224698
-6.58668e-08
1.29624e-07
0.000224655
1.19027e-07
-0.00017203
-1.07505e-07
-0.00022479
1.16944e-07
1.93914e-07
7.35279e-08
0.000144072
-7.97068e-05
9.85103e-08
-7.70278e-08
7.96853e-05
-1.26826e-07
0.000264825
-8.25786e-08
1.79195e-07
-1.42901e-07
0.000194786
9.61801e-08
1.13977e-07
-7.50122e-08
-1.03085e-07
0.000264767
1.17189e-07
-0.000144251
-9.72235e-08
7.87431e-08
-8.13875e-08
1.00348e-07
-1.00875e-07
9.3834e-08
9.40922e-08
0.000172103
-1.00137e-07
-1.06288e-07
0.000224813
1.63306e-07
-1.05883e-07
9.93161e-08
1.15556e-07
7.9647e-05
-0.000264654
-8.13176e-08
0.000264602
1.23605e-07
-1.47053e-07
8.32531e-08
1.63815e-07
1.98029e-07
7.96392e-05
9.84761e-05
8.37097e-08
-5.12429e-09
9.96125e-08
-1.10595e-09
6.18658e-08
-1.25155e-08
0.000144249
-0.000144299
7.53198e-10
-9.16406e-08
-7.39048e-08
-0.000230715
7.95455e-08
1.34835e-07
-0.000224689
-3.77402e-08
-6.01031e-08
0.000224672
4.08297e-08
-0.000172132
2.56959e-08
-3.88975e-08
0.0001721
-0.000224749
-7.90394e-08
1.09358e-07
-0.000172193
-2.55806e-08
1.06403e-08
0.000144226
1.2336e-08
1.04685e-08
7.97464e-05
-7.97692e-05
5.70872e-08
0.000194794
-3.55012e-08
1.97177e-08
-0.000194835
9.11691e-08
0.000264838
2.3105e-08
-0.000264883
3.5073e-08
3.91341e-09
-0.000144328
-1.03792e-07
-5.11719e-08
9.35578e-08
4.89158e-08
-0.000230702
2.33126e-08
-0.00022475
-1.16728e-08
-0.000172229
4.27482e-08
7.97044e-05
-0.000264741
-2.3453e-08
0.000264696
3.09144e-08
3.69943e-08
-3.4701e-08
7.1628e-08
9.71457e-08
7.96916e-05
9.87116e-05
2.61745e-08
1.63015e-09
4.70367e-08
1.14941e-08
-8.79058e-08
-2.67239e-08
0.000215043
-0.000215154
4.51943e-08
1.80655e-07
-8.09143e-05
6.31647e-08
3.44488e-09
8.08477e-05
-8.09096e-05
1.69116e-08
4.90965e-08
8.08436e-05
-8.10053e-05
3.04641e-09
-8.10007e-05
6.435e-08
2.30943e-08
1.55676e-07
0.000214945
-0.000223362
-8.57816e-09
-1.57689e-07
-2.10815e-08
0.000223396
1.53088e-07
-2.73517e-08
0.000251931
1.99384e-07
1.75358e-08
1.71036e-07
0.000184502
1.81991e-08
1.89059e-07
3.94936e-08
0.000280168
-1.35798e-07
-2.94451e-08
-3.74987e-08
1.96765e-07
0.000252049
1.11604e-07
-4.91565e-08
1.64552e-08
0.000184367
-0.000223279
1.3809e-07
-5.60703e-08
-1.5356e-07
0.000223307
4.3705e-08
-1.51769e-07
0.000251739
1.48504e-07
9.98369e-08
7.34782e-08
0.000184469
-6.62119e-08
6.92498e-08
-1.24219e-07
0.000280071
-2.20723e-08
1.50507e-07
-1.69543e-07
1.03521e-07
0.000251849
3.04312e-08
6.7176e-08
-5.73573e-08
0.000184346
-0.000215224
-9.01161e-08
-1.5175e-08
1.05474e-07
8.1079e-05
2.19005e-08
8.10732e-05
3.59496e-08
-1.97637e-07
0.000223354
2.48964e-07
-0.000184183
1.60982e-07
0.000184032
2.58125e-07
1.04386e-08
-1.38341e-07
7.2149e-10
-0.000252072
3.28315e-09
0.000252179
1.67273e-07
-6.95087e-08
2.68612e-07
2.53489e-09
0.000223351
1.91124e-07
1.9888e-07
-9.39478e-08
0.000223274
1.08703e-07
-0.000184175
6.20087e-08
0.000184034
1.28268e-07
-1.41505e-07
-3.90428e-08
1.90205e-07
-0.000251871
-1.83003e-07
0.000251969
2.56867e-08
1.31035e-07
1.4916e-07
1.55741e-07
0.000223267
4.1807e-08
-7.9591e-05
5.62887e-09
-1.05282e-08
7.95959e-05
-4.19666e-08
0.000264307
-0.000264373
1.56239e-07
-1.06411e-07
-2.8103e-08
-9.61271e-09
4.98769e-08
0.000194386
-7.96073e-05
-2.56109e-08
7.83849e-08
-8.85027e-08
0.000264295
-7.96141e-05
5.39376e-08
-5.42953e-08
7.96145e-05
-7.33981e-08
0.000264396
-4.76503e-08
-0.000264466
1.13139e-07
-8.71225e-08
3.64642e-08
5.30129e-08
0.000194532
-5.20232e-08
-7.96355e-05
-6.64465e-08
5.45738e-08
0.000264374
-0.000144075
4.34677e-08
-7.87884e-08
0.000144056
7.50095e-08
-3.04502e-08
-9.32136e-08
7.75881e-08
0.000230362
-6.37753e-08
0.000224397
-0.000224475
1.4522e-07
7.6638e-08
0.000171901
-0.000171948
-8.18959e-08
-0.000144114
7.55044e-08
0.000224374
-8.4411e-08
0.000171876
9.95648e-08
-7.15053e-08
9.83946e-05
-0.000222941
5.43698e-09
-1.30317e-08
-1.9352e-08
1.00301e-07
0.000222868
-3.13778e-08
0.000252103
-0.000252206
2.87134e-07
-1.11304e-08
7.54661e-08
0.000183358
-5.70034e-08
-0.000183469
5.24785e-08
-9.50565e-08
6.61496e-08
6.96643e-08
0.000279135
-3.74128e-08
-0.00022306
2.00853e-07
1.37597e-07
-5.64911e-08
0.00025208
-5.45535e-08
0.000183305
-0.000222876
1.32323e-07
-1.86023e-08
-2.58416e-08
-1.70718e-08
0.000222805
-1.89922e-07
0.000251923
-0.000252009
8.91395e-08
2.53617e-07
5.52462e-08
0.000183382
-8.75273e-09
-0.000183493
1.02937e-09
-2.99142e-08
-2.03451e-09
1.33051e-07
0.000278943
-7.44233e-08
-0.000222991
5.47298e-08
-4.44087e-08
1.98038e-07
0.000251903
1.10757e-08
0.000183322
-0.0002144
4.76174e-08
-2.14322e-08
0.000214329
-1.91523e-08
8.06004e-05
-8.06382e-05
2.85592e-08