/*--------------------------------*- C++ -*----------------------------------*\
| =========                 |                                                 |
| \\      /  F ield         | OpenFOAM: The Open Source CFD Toolbox           |
|  \\    /   O peration     | Version:  v2006                                 |
|   \\  /    A nd           | Website:  www.openfoam.com                      |
|    \\/     M anipulation  |                                                 |
\*---------------------------------------------------------------------------*/
FoamFile
{
    version     2.0;
    format      ascii;
    class       volScalarField;
    location    "750";
    object      p;
}
// * * * * * * * * * * * * * * * * * * * * * * * * * * * * * * * * * * * * * //

dimensions      [0 2 -2 0 0 0 0];


internalField   nonuniform List<scalar> 
14457
(
0.00344576
0.00344577
0.00344855
0.00344578
0.00344578
0.00344578
0.00344855
0.00344863
0.00344949
0.00344863
0.00344949
0.00344576
0.00344842
0.00344904
0.00344843
0.00344842
0.00344908
0.00344908
0.00344904
0.00344573
0.00344875
0.00344904
0.00344573
0.00344875
0.00344863
0.00344949
0.00344573
0.00344904
0.00344875
0.00344908
0.00344908
0.00344842
0.00344863
0.0034422
0.00344886
0.00344216
0.00344867
0.00344236
0.00344223
0.00344299
0.00344875
0.00344928
0.0034487
0.00344227
0.00344279
0.0034422
0.00344886
0.00344216
0.00344867
0.00344236
0.00344223
0.00344299
0.00344928
0.00344875
0.0034487
0.00344279
0.00344227
0.00344197
0.00344197
0.00344197
0.00344234
0.00344865
0.00344846
0.00344258
0.00344879
0.003442
0.00344219
0.00344234
0.00344865
0.00344846
0.00344258
0.00344879
0.003442
0.00344219
0.00344233
0.00344844
0.00344843
0.00344883
0.00344197
0.0034422
0.00344886
0.00344216
0.00344867
0.00344236
0.00344223
0.00344299
0.00344875
0.00344928
0.00344227
0.0034487
0.00344279
0.00344234
0.00344865
0.00344845
0.00344258
0.003442
0.00344879
0.00344219
0.00344234
0.00344865
0.00344845
0.00344258
0.00344219
0.00344879
0.003442
0.00344233
0.00344844
0.00344844
0.00344883
0.00344197
0.00344197
0.0034422
0.00344886
0.00344216
0.00344236
0.00344867
0.00344582
0.00344582
0.00344583
0.00344247
0.00344877
0.00344877
0.00344244
0.00344875
0.0034425
0.0034425
0.00344247
0.00344877
0.00344877
0.00344244
0.0034425
0.00344875
0.0034425
0.00344582
0.00344582
0.00344583
0.00344247
0.00344874
0.00344871
0.00344262
0.00344881
0.00344233
0.00344234
0.00344247
0.00344874
0.00344871
0.00344234
0.00344881
0.00344233
0.00344259
0.0034424
0.00344878
0.00344897
0.00344242
0.0034489
0.00344266
0.00344247
0.00344874
0.00344871
0.00344262
0.00344234
0.00344881
0.00344233
0.00344259
0.0034424
0.00344878
0.00344896
0.00344242
0.0034489
0.00344266
0.00344247
0.00344874
0.00344871
0.00344262
0.00344881
0.00344234
0.00344233
0.00344259
0.0034424
0.00344896
0.00344878
0.0034489
0.00344242
0.00360426
0.00360459
0.00360459
0.00360764
0.0035489
0.00354932
0.00354932
0.00355231
0.00361766
0.00361789
0.00361789
0.00361766
0.00361789
0.00361789
0.00361865
0.00361865
0.00361866
0.00361866
0.00361789
0.00361789
0.00361766
0.00361789
0.00361789
0.00361766
0.00360764
0.00355888
0.00360458
0.00360458
0.00356116
0.00356116
0.00360764
0.00355888
0.00360459
0.00360458
0.00356116
0.00356116
0.00360458
0.00356116
0.00356116
0.00360764
0.00355888
0.00360459
0.00356116
0.00356116
0.00355888
0.00355231
0.00354932
0.00354932
0.00355231
0.00354932
0.00354932
0.00354932
0.00355231
0.00354932
0.00362604
0.0036358
0.0036306
0.0036306
0.00365299
0.00363977
0.00366837
0.00363381
0.00365299
0.00363977
0.00363381
0.00366838
0.00364434
0.00367211
0.00367211
0.00358139
0.00360053
0.00360974
0.00357347
0.00357422
0.00357697
0.00358138
0.00360052
0.00360973
0.00357346
0.00360426
0.00360426
0.00360426
0.00356085
0.00356085
0.00356085
0.00356085
0.0035789
0.00360472
0.00360466
0.00358773
0.00360775
0.00357781
0.00358861
0.00357433
0.00357697
0.00357891
0.00360466
0.00360472
0.00358773
0.00360775
0.00358861
0.00357781
0.0036106
0.0036106
0.00358212
0.00357744
0.00357744
0.00353477
0.00355405
0.00355541
0.00353331
0.00355296
0.00353286
0.00353477
0.00355405
0.00355541
0.0035333
0.0035489
0.0035489
0.0035489
0.00353335
0.00355412
0.0035489
0.00353703
0.00355291
0.00353389
0.00353676
0.00355295
0.00353286
0.00353335
0.0035489
0.00355411
0.00353703
0.00355291
0.00353676
0.00353389
0.00355514
0.00355514
0.00353358
0.00353422
0.00353422
0.00364433
0.00367211
0.00367211
0.00363643
0.00367165
0.00363642
0.00367165
0.00364119
0.00362823
0.00362825
0.00366692
0.00366692
0.00365297
0.00363977
0.00366837
0.00363381
0.00365297
0.00363976
0.00366836
0.00363381
0.00365749
0.00362851
0.00366878
0.00362335
0.00365749
0.00362852
0.00366877
0.00362334
0.00364857
0.00363729
0.00361971
0.00362011
0.00366364
0.00363225
0.00362034
0.00364857
0.00363729
0.00361971
0.00362011
0.00366364
0.00363225
0.00362033
0.00364433
0.0036721
0.00367211
0.00363643
0.00367163
0.00364119
0.00362823
0.00362826
0.00366692
0.00366692
0.00363644
0.00367165
0.00365298
0.00363977
0.00366837
0.00363381
0.00365298
0.00363977
0.00363381
0.00366837
0.00365751
0.00362852
0.00366878
0.00362335
0.00364858
0.00363729
0.00361971
0.00362012
0.00366365
0.00363225
0.00362034
0.00365751
0.00362855
0.00366878
0.00362334
0.00364858
0.00363729
0.00362012
0.00361971
0.00363225
0.00366364
0.00362034
0.00362604
0.0036358
0.0036306
0.0036306
0.00362604
0.00363581
0.0036306
0.00363061
0.00362604
0.00363581
0.0036306
0.00363061
0.0036248
0.00363389
0.00361677
0.00361677
0.00362917
0.00362917
0.00361494
0.0036248
0.00363389
0.00361677
0.00361677
0.00362917
0.00362917
0.00361495
0.0036248
0.00363389
0.00361677
0.00361677
0.00362917
0.00362917
0.00361495
0.0036248
0.00363389
0.00361677
0.00361677
0.00362917
0.00362917
0.00361495
0.00365299
0.00363977
0.00363381
0.00366837
0.00364859
0.00363729
0.00361971
0.00362012
0.00366365
0.00363225
0.00362034
0.00365751
0.00362852
0.00366878
0.00362335
0.00364859
0.00363729
0.00362012
0.00361971
0.00363225
0.00366364
0.00362034
0.00365751
0.00362855
0.00366878
0.00362334
0.00364434
0.00367211
0.00367212
0.00363644
0.00367164
0.00364119
0.00362825
0.00362824
0.00366692
0.00366693
0.0036364
0.00367165
0.00365298
0.00363977
0.00363381
0.00366837
0.00364859
0.0036373
0.00362012
0.00361971
0.00363225
0.00366365
0.00362035
0.00364859
0.00363729
0.00362012
0.00361971
0.00363225
0.00366365
0.00362034
0.00365751
0.00362854
0.00366879
0.00362336
0.00365751
0.00362853
0.00366878
0.00362335
0.00364119
0.00362826
0.00362826
0.00366692
0.00366692
0.00363645
0.00367165
0.00363644
0.00367165
0.00357422
0.00357697
0.00357433
0.00357693
0.00361055
0.00361059
0.00358214
0.00357743
0.00357743
0.00355973
0.00357664
0.00355974
0.0035766
0.00357547
0.00356233
0.00356234
0.00357558
0.00357558
0.0035814
0.00360053
0.00360973
0.00357349
0.00357891
0.00360472
0.00360466
0.00358772
0.00360775
0.00357781
0.00358861
0.00357892
0.00360473
0.00360466
0.00358772
0.00360774
0.00357781
0.00358861
0.00357685
0.00356146
0.00357437
0.0035622
0.00357685
0.00356145
0.00357438
0.0035622
0.00357389
0.00357342
0.00356115
0.00356089
0.00357497
0.00357383
0.00355948
0.00357389
0.00357342
0.00356114
0.00356089
0.00357497
0.00357383
0.00355948
0.00361055
0.0036106
0.00358214
0.00357743
0.00357744
0.00357433
0.00357695
0.00355974
0.00357661
0.00357548
0.00356233
0.00356234
0.00357558
0.00357558
0.00355974
0.00357662
0.0035789
0.00360472
0.00360466
0.00358773
0.00360775
0.0035778
0.00358861
0.00358139
0.00360055
0.00360972
0.00357348
0.00357891
0.00360466
0.00360472
0.00358772
0.00360775
0.00358861
0.0035778
0.00357684
0.00356146
0.00357437
0.0035622
0.00357388
0.00357342
0.00356115
0.00356089
0.00357496
0.00357383
0.00355948
0.00357685
0.00356145
0.00357437
0.00356221
0.00357389
0.00357342
0.00356089
0.00356114
0.00357383
0.00357496
0.00355948
0.00358138
0.00360052
0.00360972
0.00357347
0.00357891
0.00360466
0.00360473
0.00358772
0.00360774
0.00358861
0.0035778
0.00358139
0.00360055
0.00360972
0.00357348
0.00357388
0.00357342
0.00356114
0.00356089
0.00357496
0.00357383
0.00355948
0.00357685
0.00356146
0.00357438
0.0035622
0.00357389
0.00357342
0.00356089
0.00356114
0.00357383
0.00357496
0.00355948
0.00357685
0.00356146
0.00357437
0.00356221
0.00361058
0.00361059
0.00358214
0.00357744
0.00357744
0.00357431
0.00357698
0.00355973
0.00357663
0.00357548
0.00356234
0.00356233
0.00357559
0.00357559
0.00355971
0.00357665
0.00357891
0.00360466
0.00360473
0.00358773
0.00360775
0.00358861
0.00357781
0.00358138
0.00360054
0.00360973
0.00357348
0.00358139
0.00360055
0.00360973
0.00357348
0.00357388
0.00357342
0.00356089
0.00356114
0.00357383
0.00357497
0.00355948
0.00357389
0.00357342
0.00356089
0.00356114
0.00357383
0.00357496
0.00355948
0.00357685
0.00356145
0.00357438
0.0035622
0.00357685
0.00356145
0.00357438
0.0035622
0.00357436
0.00357697
0.00357436
0.00357697
0.00357548
0.00356233
0.00356233
0.00357559
0.00357559
0.00355973
0.00357662
0.00355972
0.00357662
0.00355295
0.00353286
0.00355296
0.00353286
0.00355514
0.00355515
0.00353358
0.00353423
0.00353423
0.00352643
0.00352643
0.00352678
0.00352777
0.00352777
0.00353477
0.00355404
0.00355541
0.00353331
0.00353336
0.00355413
0.0035489
0.00353703
0.00355291
0.0035339
0.00353676
0.00353336
0.00355413
0.0035489
0.00353703
0.00355291
0.0035339
0.00353676
0.00352824
0.00352693
0.00352824
0.00352693
0.00352682
0.00352427
0.00352745
0.00352413
0.00352682
0.00352427
0.00352745
0.00352413
0.00355514
0.00355514
0.00353358
0.00353423
0.00353423
0.00355296
0.00353286
0.00352644
0.00352678
0.00352777
0.00352777
0.00352643
0.00353335
0.00355412
0.0035489
0.00353703
0.00355291
0.00353389
0.00353676
0.00353477
0.00355404
0.00355541
0.0035333
0.00353335
0.0035489
0.00355412
0.00353703
0.00355291
0.00353676
0.00353389
0.00352824
0.00352693
0.00352682
0.00352427
0.00352744
0.00352413
0.00352824
0.00352692
0.00352682
0.00352427
0.00352413
0.00352744
0.00353476
0.00355404
0.0035554
0.0035333
0.00353335
0.0035489
0.00355412
0.00353703
0.00355291
0.00353676
0.00353389
0.00353476
0.00355404
0.00355541
0.0035333
0.00352682
0.00352427
0.00352744
0.00352413
0.00352824
0.00352693
0.00352682
0.00352427
0.00352413
0.00352744
0.00352824
0.00352692
0.00355514
0.00355513
0.00353358
0.00353422
0.00353422
0.00355293
0.00353286
0.00352643
0.00352678
0.00352776
0.00352776
0.00352643
0.00353335
0.0035489
0.00355412
0.00353703
0.00355291
0.00353676
0.00353389
0.00353476
0.00355403
0.0035554
0.0035333
0.00353476
0.00355403
0.0035554
0.0035333
0.00352427
0.00352744
0.00352427
0.00352744
0.00352692
0.00352692
0.00355295
0.00353286
0.00355295
0.00353286
0.00352678
0.00352776
0.00352776
0.00352643
0.00352643
0.00366106
0.00367543
0.00367579
0.00366108
0.00367544
0.00367581
0.00367581
0.00367581
0.00366106
0.00367542
0.00367581
0.00366108
0.00367544
0.00366109
0.00367544
0.00366108
0.00367544
0.00367582
0.00366108
0.00367545
0.00366108
0.00367544
0.00367581
0.00367581
0.00362679
0.00362679
0.00362755
0.00363307
0.00363308
0.00363057
0.00362825
0.00363142
0.00362903
0.00362826
0.00363142
0.00362903
0.00365729
0.00364445
0.00364595
0.00364553
0.00363661
0.00364163
0.00365953
0.00365254
0.00364869
0.00363831
0.0036347
0.00363937
0.00364445
0.00365729
0.00364596
0.00363661
0.00364554
0.00364163
0.00363831
0.00363471
0.00363937
0.00365954
0.00365254
0.00364869
0.00368094
0.00368092
0.00367316
0.00365092
0.00365092
0.0036619
0.00368469
0.00365555
0.0036675
0.00368469
0.00365555
0.0036675
0.00357598
0.00358796
0.00357436
0.00357958
0.00357636
0.00358449
0.00357628
0.00355426
0.00361035
0.00358083
0.00356531
0.00358909
0.00358055
0.00359764
0.00359711
0.00360657
0.00359668
0.00358337
0.00359338
0.00357152
0.00357603
0.00357319
0.0035781
0.00357932
0.00356104
0.00357068
0.00357594
0.00358795
0.00357957
0.00357435
0.00358447
0.00357633
0.00357627
0.00355428
0.00361034
0.00358083
0.00356522
0.00358908
0.00358048
0.00359762
0.00360656
0.00359707
0.00359663
0.00359336
0.00358331
0.00357148
0.00357602
0.00357319
0.00357809
0.00357928
0.00356109
0.0035707
0.00357985
0.00357784
0.00357783
0.00357353
0.00357352
0.00357768
0.0035914
0.00360847
0.00359947
0.00359311
0.00360646
0.00359404
0.00358357
0.0035914
0.00360847
0.00359947
0.0035931
0.00360646
0.00359404
0.00358357
0.0035885
0.00357925
0.00357928
0.0036058
0.00356649
0.0035665
0.00358154
0.00357502
0.00358202
0.0035766
0.00358273
0.00357639
0.00357724
0.00358153
0.00357502
0.00358202
0.0035766
0.00358273
0.00357639
0.00357723
0.00353994
0.00354142
0.00353315
0.0035344
0.00353972
0.00354098
0.00353337
0.00354663
0.00355489
0.00354678
0.00355332
0.00354759
0.0035468
0.0035484
0.00355376
0.00355485
0.00355379
0.00354665
0.00354788
0.00353978
0.00353399
0.00353983
0.0035406
0.00353319
0.00354619
0.0035394
0.00353993
0.00354142
0.00353439
0.00353315
0.00354098
0.00353971
0.00353336
0.00354662
0.00355489
0.00354678
0.0035533
0.00354759
0.00354679
0.0035484
0.00355485
0.00355376
0.00355378
0.00354788
0.00354664
0.00353978
0.00353399
0.00353982
0.00354059
0.00353319
0.00354617
0.00353939
0.00354064
0.00353294
0.00353294
0.00353947
0.00353947
0.00353405
0.00354678
0.00355302
0.0035538
0.00354788
0.00355369
0.00354625
0.0035467
0.00354677
0.00355302
0.0035538
0.00354788
0.00355369
0.00354625
0.0035467
0.00354756
0.00355305
0.00355305
0.00355471
0.00354626
0.00354626
0.00354
0.00353321
0.00354086
0.0035332
0.00353961
0.00353977
0.00353357
0.00354
0.00353321
0.00354086
0.0035332
0.00353961
0.00353977
0.00353357
0.00368089
0.00368094
0.00367315
0.00365091
0.00365092
0.00366189
0.0036847
0.00365554
0.00366749
0.00368474
0.00365555
0.00366749
0.00365159
0.00365344
0.00365157
0.00365344
0.00364774
0.00368115
0.0036812
0.00366787
0.00362708
0.00362708
0.00364408
0.00363515
0.00364669
0.00364669
0.00365309
0.00363921
0.00363921
0.00363512
0.00362117
0.00363863
0.00362125
0.00363614
0.00363175
0.0036219
0.00363513
0.00362117
0.00363861
0.0036213
0.00363611
0.00363175
0.0036219
0.00364698
0.00367907
0.00365293
0.00364911
0.00366308
0.00364059
0.00364468
0.00364698
0.00367906
0.00365293
0.00364909
0.00366308
0.00364057
0.00364468
0.00363913
0.00363666
0.00363671
0.00363296
0.00363293
0.00362739
0.00365728
0.00364443
0.00364594
0.00364553
0.00363661
0.00364162
0.00365952
0.00365253
0.00364868
0.0036383
0.0036347
0.00363937
0.00365727
0.00364443
0.00364594
0.00364553
0.00363661
0.00364162
0.00365952
0.00365253
0.00364868
0.0036383
0.0036347
0.00363936
0.00364715
0.00366289
0.00365936
0.00364534
0.0036419
0.0036458
0.00364525
0.00363349
0.00365766
0.00364495
0.00366094
0.00365347
0.00365027
0.00361205
0.00363758
0.00361655
0.00362178
0.00362553
0.00363823
0.00363485
0.00364708
0.00366288
0.00365936
0.00364534
0.0036419
0.00364581
0.00364524
0.00363347
0.00364493
0.00365758
0.00366094
0.00365346
0.00365026
0.00361213
0.00363757
0.00361654
0.00362181
0.00363823
0.00363488
0.00362549
0.00363577
0.0036501
0.00364149
0.00364168
0.0036425
0.00364196
0.00363527
0.00363306
0.0036319
0.00364203
0.00363458
0.00363568
0.00363886
0.00362966
0.00363755
0.00365599
0.00364896
0.0036486
0.00364053
0.00364484
0.00364433
0.0036314
0.00363623
0.003633
0.00362827
0.0036371
0.00363085
0.00362869
0.00363577
0.0036501
0.00364149
0.00364168
0.0036425
0.00364196
0.00363527
0.00363306
0.0036319
0.00364202
0.00363458
0.00363885
0.00363568
0.00362966
0.00363755
0.00365598
0.00364896
0.0036486
0.00364484
0.00364433
0.00364053
0.0036314
0.00363623
0.003633
0.00362827
0.0036371
0.00363085
0.00362869
0.00368092
0.00368093
0.00367314
0.00365091
0.00365091
0.00366189
0.00368473
0.00365554
0.00366748
0.00368474
0.00365555
0.00366749
0.00365159
0.00365344
0.00364773
0.00368116
0.00368112
0.00366787
0.00362706
0.00362698
0.00364408
0.00363515
0.00364669
0.00364669
0.00363921
0.00365309
0.00363921
0.00363512
0.00362117
0.00363862
0.00362125
0.00363175
0.00363613
0.0036219
0.00363512
0.00362117
0.00363861
0.0036213
0.00363611
0.00363175
0.00362189
0.00364697
0.00367907
0.00365292
0.0036491
0.00364467
0.00366308
0.00364059
0.00364698
0.00367905
0.00365293
0.00364909
0.00366308
0.00364054
0.00364467
0.00363912
0.00363665
0.0036367
0.00363295
0.0036329
0.00362738
0.00365157
0.00365343
0.00365729
0.00364444
0.00364595
0.00364553
0.00363661
0.00364163
0.00365953
0.00365254
0.00364868
0.00363831
0.0036347
0.00363937
0.00364444
0.00365729
0.00364595
0.00363661
0.00364553
0.00364163
0.00363831
0.0036347
0.00363937
0.00365953
0.00365254
0.00364869
0.00364721
0.00365938
0.00366297
0.00364537
0.00364583
0.00364195
0.00364525
0.0036335
0.00365774
0.00364498
0.00366095
0.00365347
0.00365029
0.00361212
0.00363761
0.00362179
0.00361656
0.00362558
0.00363488
0.00363831
0.00363578
0.00365011
0.0036415
0.00364169
0.0036425
0.00364197
0.00363528
0.00363306
0.0036319
0.00364203
0.00363459
0.00363568
0.00363886
0.00362966
0.00363755
0.003656
0.00364896
0.0036486
0.00364053
0.00364484
0.00364434
0.00363141
0.00363624
0.00363301
0.00362827
0.0036371
0.00363086
0.00362869
0.00364717
0.00366296
0.00365937
0.00364536
0.00364194
0.00364583
0.00364525
0.00363349
0.00364496
0.00365772
0.00366095
0.00365347
0.00365028
0.00361203
0.0036376
0.00361656
0.00362181
0.00363831
0.00363489
0.00362558
0.00363578
0.0036415
0.00365011
0.00364169
0.0036425
0.00363528
0.00364197
0.00363306
0.0036319
0.00363459
0.00364203
0.00363886
0.00362966
0.00363568
0.00363141
0.00363624
0.00363301
0.00362827
0.0036371
0.00363086
0.00362869
0.00363755
0.00365599
0.00364896
0.0036486
0.00364485
0.00364433
0.00364054
0.00362679
0.00362679
0.00362755
0.00363307
0.00363308
0.00363057
0.00362825
0.00363142
0.00362903
0.00362826
0.00363142
0.00362903
0.00362679
0.00362679
0.00362755
0.00363308
0.00363308
0.00363057
0.00362826
0.00363142
0.00362903
0.00362826
0.00363142
0.00362903
0.00362679
0.00362679
0.00362755
0.00363308
0.00363308
0.00363057
0.00362826
0.00363142
0.00362903
0.00362826
0.00363142
0.00362903
0.00362294
0.00362551
0.00362551
0.00362185
0.00362623
0.0036224
0.0036224
0.0036258
0.003629
0.00363145
0.00363145
0.00362922
0.00362732
0.00362732
0.00362437
0.00362696
0.0036299
0.00362547
0.0036277
0.00362599
0.00362383
0.00362438
0.00362697
0.0036299
0.00362547
0.0036277
0.00362599
0.00362383
0.00362294
0.00362551
0.00362551
0.00362185
0.00362623
0.0036224
0.0036224
0.0036258
0.003629
0.00363145
0.00363145
0.00362732
0.00362922
0.00362732
0.00362437
0.00362696
0.0036299
0.00362547
0.00362599
0.0036277
0.00362383
0.00362438
0.00362697
0.0036299
0.00362547
0.0036277
0.00362383
0.00362599
0.00362295
0.00362551
0.00362551
0.00362185
0.00362623
0.0036224
0.0036224
0.0036258
0.003629
0.00363146
0.00363146
0.00362732
0.00362922
0.00362732
0.00362438
0.00362697
0.00362991
0.00362547
0.00362599
0.00362771
0.00362383
0.00362438
0.00362697
0.00362991
0.00362547
0.00362771
0.00362383
0.00362599
0.00362295
0.00362551
0.00362551
0.00362185
0.00362623
0.0036224
0.0036224
0.0036258
0.003629
0.00363146
0.00363146
0.00362922
0.00362732
0.00362732
0.00362438
0.00362697
0.00362991
0.00362547
0.00362771
0.00362383
0.00362599
0.00362438
0.00362697
0.00362991
0.00362547
0.00362771
0.00362383
0.00362599
0.00364445
0.00365729
0.00364595
0.00363661
0.00364553
0.00364163
0.00363831
0.00363471
0.00363937
0.00365953
0.00365254
0.00364869
0.00363578
0.00365011
0.0036415
0.0036417
0.0036425
0.00364197
0.00363528
0.00363306
0.0036319
0.00364203
0.00363459
0.00363886
0.00363568
0.00362966
0.00363756
0.003656
0.00364896
0.0036486
0.00364485
0.00364053
0.00364434
0.00363141
0.00363624
0.00363301
0.00362827
0.0036371
0.00362869
0.00363086
0.00364725
0.00365938
0.00366298
0.00364537
0.00364582
0.00364197
0.00364525
0.0036335
0.00364497
0.00365775
0.00366096
0.00365346
0.00365029
0.0036121
0.00363761
0.00362179
0.00361655
0.00363487
0.00363834
0.00362555
0.00363578
0.0036415
0.00365011
0.0036417
0.0036425
0.00363528
0.00364197
0.00363306
0.0036319
0.00363459
0.00364203
0.00362966
0.00363886
0.00363568
0.00363141
0.00363624
0.00363301
0.00362828
0.00362869
0.0036371
0.00363086
0.00363755
0.003656
0.00364896
0.0036486
0.00364485
0.00364433
0.00364053
0.00364715
0.00366295
0.00365938
0.00364537
0.00364198
0.00364583
0.00364524
0.00363349
0.00364495
0.00365774
0.00366095
0.00365346
0.00365028
0.00361219
0.0036376
0.00361654
0.00362182
0.00363833
0.0036349
0.00362554
0.00368098
0.00368105
0.00367316
0.00365092
0.00365092
0.0036619
0.00368475
0.00365555
0.0036675
0.00368479
0.00365555
0.0036675
0.00365157
0.00365344
0.00364775
0.00368118
0.00368121
0.00366788
0.00362712
0.00362703
0.00364409
0.00363516
0.0036467
0.0036467
0.00363921
0.0036531
0.00363921
0.00363513
0.00362117
0.00363862
0.00362129
0.00363175
0.00363613
0.0036219
0.00363513
0.00362117
0.00363861
0.00362129
0.00363613
0.00363175
0.00362189
0.00364699
0.00367904
0.00365293
0.0036491
0.00364468
0.00366309
0.0036406
0.00364699
0.00367909
0.00365293
0.0036491
0.00366309
0.00364056
0.00364468
0.00363915
0.00363672
0.0036367
0.00363296
0.00363296
0.00362739
0.00365157
0.00365343
0.00364445
0.00365729
0.00364595
0.00363661
0.00364553
0.00364163
0.00363831
0.00363471
0.00363937
0.00365953
0.00365254
0.00364869
0.00363578
0.0036415
0.00365011
0.0036417
0.00364251
0.00363528
0.00364197
0.00363306
0.0036319
0.00363459
0.00364203
0.00363886
0.00362966
0.00363568
0.00363141
0.00363624
0.00363301
0.00362828
0.00363711
0.00362869
0.00363086
0.00363756
0.003656
0.00364897
0.0036486
0.00364485
0.00364054
0.00364434
0.00363578
0.0036415
0.00365011
0.0036417
0.00364251
0.00363528
0.00364197
0.00363306
0.0036319
0.00363459
0.00364203
0.00362966
0.00363886
0.00363568
0.00363141
0.00363624
0.00363301
0.00362828
0.00362869
0.00363711
0.00363086
0.00363756
0.003656
0.00364896
0.0036486
0.00364485
0.00364433
0.00364054
0.00364726
0.00365938
0.00366298
0.00364537
0.00364583
0.00364193
0.00364525
0.0036335
0.00364497
0.00365776
0.00366096
0.00365347
0.00365029
0.00361211
0.00363761
0.00362179
0.00361657
0.00363487
0.00363832
0.00362557
0.00364713
0.00365938
0.00366297
0.00364536
0.00364583
0.00364192
0.00364524
0.00363349
0.00364495
0.00365774
0.00366095
0.00365346
0.00365028
0.00361211
0.0036376
0.00362182
0.00361657
0.0036349
0.00363832
0.00362558
0.00364774
0.00368119
0.00368112
0.00366788
0.00362701
0.00362701
0.00364408
0.00363515
0.0036467
0.0036467
0.0036531
0.00363921
0.00363921
0.00363511
0.00362117
0.00363861
0.0036213
0.00362189
0.00363174
0.00363611
0.00363512
0.00362117
0.00363861
0.00362129
0.00362189
0.00363175
0.00363612
0.00364698
0.00367907
0.00365293
0.00364909
0.00366309
0.00364467
0.00364057
0.00364698
0.00367906
0.00365293
0.00364909
0.00366309
0.00364468
0.00364056
0.00363913
0.00363673
0.00363669
0.00362739
0.00363293
0.00363297
0.00365156
0.00365342
0.00365156
0.00365342
0.00356101
0.00357065
0.00356113
0.00357067
0.00357984
0.0035778
0.00357779
0.00357349
0.00357348
0.00357766
0.00359141
0.00360847
0.00359944
0.00359307
0.00360647
0.00358355
0.00359403
0.00359139
0.00360847
0.00359949
0.0035931
0.00360646
0.00358358
0.00359404
0.0035885
0.00357932
0.00357933
0.00360582
0.0035665
0.00356649
0.00358154
0.00357501
0.003582
0.00357659
0.00357637
0.00357723
0.00358271
0.00358152
0.00357499
0.00358201
0.00357659
0.00357637
0.00357721
0.00358272
0.00356624
0.00357231
0.00356625
0.0035723
0.00357369
0.00357656
0.00357657
0.00357654
0.00357203
0.00357205
0.00356705
0.00355977
0.00356856
0.00356091
0.00356722
0.00356577
0.00356074
0.00356705
0.00355977
0.00356856
0.00356092
0.00356722
0.00356576
0.00356073
0.00357201
0.00357437
0.00357346
0.00357308
0.00357498
0.00357198
0.00357039
0.003572
0.00357436
0.00357346
0.00357307
0.00357497
0.00357198
0.00357038
0.00356857
0.0035598
0.00355979
0.00356614
0.00356615
0.00356197
0.00357601
0.00358797
0.00357438
0.00357959
0.00357638
0.00358449
0.00357631
0.00355437
0.00361035
0.00358084
0.00356532
0.00358912
0.00358055
0.00359764
0.00359711
0.00360658
0.00358338
0.00359664
0.00359339
0.00357154
0.00357604
0.00357322
0.00357813
0.00357932
0.00357252
0.00357346
0.00357629
0.0035729
0.0035756
0.00357123
0.00357274
0.00356593
0.00356804
0.00356232
0.0035598
0.00356896
0.00357207
0.00357588
0.00357272
0.00357739
0.00357378
0.00356725
0.00356808
0.00356078
0.00356173
0.0035608
0.00356684
0.00356781
0.00357252
0.00357346
0.0035763
0.0035729
0.00357561
0.00357123
0.00357274
0.00356593
0.00356803
0.00356232
0.00356896
0.00355978
0.00357209
0.00357588
0.00357272
0.00357741
0.00357378
0.00356724
0.00356808
0.00356078
0.00356172
0.00356684
0.0035678
0.00356079
0.00357986
0.00357779
0.0035778
0.00357351
0.00357351
0.00357767
0.00359141
0.00360847
0.00359946
0.00359307
0.00358357
0.00360648
0.00359404
0.0035914
0.00360847
0.00359949
0.00359311
0.00359404
0.00360646
0.00358358
0.00358852
0.00357934
0.00357933
0.00356653
0.00360582
0.00356652
0.00358154
0.00357501
0.003582
0.00357659
0.00357639
0.00358272
0.00357723
0.00358154
0.003575
0.00358202
0.0035766
0.00358273
0.00357638
0.00357722
0.00356112
0.00357067
0.00356624
0.00357229
0.00357369
0.00357656
0.00357658
0.00357655
0.00357204
0.00357203
0.00356705
0.00355977
0.00356855
0.00356092
0.00356576
0.00356722
0.00356074
0.00356704
0.00355977
0.00356856
0.00356092
0.00356723
0.00356576
0.00356073
0.00357201
0.00357436
0.00357346
0.00357307
0.00357039
0.00357497
0.00357197
0.003572
0.00357436
0.00357347
0.00357308
0.00357497
0.00357197
0.00357039
0.00356857
0.0035598
0.00355979
0.00356614
0.00356615
0.00356197
0.00356625
0.0035723
0.00357597
0.00358795
0.00357435
0.00357957
0.00357634
0.00358446
0.00357629
0.00355429
0.00361035
0.00358084
0.00356524
0.0035891
0.0035805
0.00359762
0.00359709
0.00360656
0.00358334
0.00359663
0.00359336
0.00357155
0.00357604
0.0035732
0.00357812
0.00357933
0.00357252
0.00357629
0.00357345
0.0035729
0.00357559
0.00357274
0.00357123
0.00356596
0.00356804
0.00356233
0.0035598
0.00356897
0.00357209
0.00357587
0.00357272
0.0035774
0.00357378
0.00356726
0.00356808
0.00356173
0.00356078
0.0035608
0.00356781
0.00356685
0.00357253
0.00357345
0.00357629
0.0035729
0.0035756
0.00357123
0.00357274
0.00356595
0.00356804
0.00356232
0.00356897
0.00355979
0.0035721
0.00357589
0.00357272
0.0035774
0.00357378
0.00356726
0.00356808
0.00356078
0.00356172
0.00356685
0.0035678
0.0035608
0.00357595
0.00358795
0.00357958
0.00357434
0.00358447
0.00357632
0.00357627
0.00355424
0.00361034
0.00358082
0.00358908
0.00356523
0.0035805
0.00359762
0.00360656
0.00359706
0.00359337
0.00359664
0.0035833
0.0035715
0.00357603
0.00357319
0.0035781
0.00357931
0.00357595
0.00358795
0.00357436
0.00357958
0.00357633
0.00358447
0.0035763
0.00355426
0.00361036
0.00358085
0.00356525
0.0035891
0.00358047
0.00359762
0.00359706
0.00360657
0.00359661
0.00358331
0.00359336
0.00357152
0.00357604
0.00357321
0.00357811
0.00357934
0.00357252
0.00357629
0.00357346
0.0035729
0.0035756
0.00357274
0.00357123
0.00356593
0.00356803
0.00356232
0.00356897
0.00355978
0.00357209
0.00357588
0.00357272
0.00357743
0.00357378
0.00356725
0.00356808
0.00356172
0.00356078
0.0035678
0.00356685
0.00356079
0.00357253
0.00357346
0.0035763
0.0035729
0.00357562
0.00357123
0.00357274
0.00356596
0.00356804
0.00356232
0.00356897
0.00355979
0.0035721
0.00357589
0.00357272
0.00357743
0.00357379
0.00356726
0.00356808
0.00356078
0.00356172
0.00356685
0.00356781
0.0035608
0.00357984
0.00357781
0.00357782
0.00357349
0.0035735
0.00357767
0.00359139
0.00360847
0.00359947
0.00359309
0.00358356
0.00360646
0.00359404
0.00359139
0.00360847
0.00359946
0.0035931
0.00359404
0.00360646
0.00358355
0.00358848
0.00357926
0.00357925
0.00356646
0.00360579
0.00356647
0.00358152
0.00357501
0.00358201
0.0035766
0.00357638
0.00358272
0.00357722
0.00358153
0.00357501
0.00358202
0.0035766
0.00358272
0.00357637
0.00357723
0.00356109
0.00357068
0.00356624
0.00357232
0.0035737
0.00357659
0.00357659
0.00357656
0.00357206
0.00357205
0.00356705
0.00355977
0.00356856
0.00356091
0.00356577
0.00356724
0.00356073
0.00356705
0.00355977
0.00356856
0.00356091
0.00356723
0.00356577
0.00356073
0.00357202
0.00357438
0.00357347
0.00357308
0.00357039
0.00357498
0.003572
0.00357202
0.00357438
0.00357347
0.00357308
0.00357499
0.00357199
0.0035704
0.00356858
0.00355979
0.00355979
0.00356617
0.00356616
0.00356197
0.00356624
0.00357233
0.00357596
0.00358795
0.00357958
0.00357435
0.00358448
0.00357633
0.00357629
0.00355422
0.00361034
0.00358084
0.00358908
0.00356526
0.00358049
0.00359762
0.00360656
0.00359708
0.00359337
0.00359663
0.00358332
0.00357153
0.00357604
0.0035732
0.0035781
0.00357934
0.00357596
0.00358795
0.00357958
0.00357435
0.00358447
0.00357634
0.00357629
0.00355427
0.00361036
0.00358085
0.00356527
0.00358911
0.00358049
0.00359762
0.00360657
0.00359709
0.00359664
0.00359336
0.00358334
0.00357153
0.00357605
0.00357321
0.00357812
0.00357934
0.00357252
0.0035763
0.00357346
0.0035729
0.00357559
0.00357274
0.00357123
0.00356594
0.00356803
0.00356232
0.00356896
0.00355979
0.00357207
0.00357588
0.00357272
0.00357738
0.00357378
0.00356725
0.00356808
0.00356172
0.00356077
0.0035678
0.00356684
0.00356079
0.00357252
0.00357629
0.00357346
0.0035729
0.0035756
0.00357273
0.00357123
0.00356594
0.00356803
0.00356232
0.00356896
0.00355978
0.00357209
0.00357588
0.00357272
0.0035774
0.00357378
0.00356725
0.00356808
0.00356172
0.00356078
0.0035678
0.00356684
0.00356079
0.00356112
0.00357071
0.00356113
0.00357071
0.0035737
0.00357659
0.00357658
0.00357656
0.00357204
0.00357204
0.00356705
0.00355977
0.00356856
0.00356091
0.00356073
0.00356577
0.00356722
0.00356705
0.00355977
0.00356856
0.00356091
0.00356073
0.00356576
0.00356722
0.00357201
0.00357438
0.00357347
0.00357308
0.00357499
0.0035704
0.00357199
0.00357201
0.00357438
0.00357347
0.00357308
0.00357498
0.00357039
0.00357199
0.00356857
0.00355979
0.00355979
0.00356196
0.00356614
0.00356614
0.00356624
0.00357231
0.00356624
0.00357231
0.00354618
0.0035394
0.00354619
0.0035394
0.00354065
0.00353294
0.00353295
0.00353948
0.00353948
0.00353405
0.00354678
0.00355303
0.00355381
0.00354789
0.0035537
0.00354671
0.00354626
0.00354678
0.00355303
0.00355381
0.00354789
0.0035537
0.00354671
0.00354626
0.00354756
0.00355306
0.00355305
0.00355472
0.00354627
0.00354626
0.00354001
0.00353322
0.00354086
0.0035332
0.00353978
0.00353358
0.00353961
0.00354001
0.00353322
0.00354087
0.0035332