/*--------------------------------*- C++ -*----------------------------------*\
| =========                 |                                                 |
| \\      /  F ield         | OpenFOAM: The Open Source CFD Toolbox           |
|  \\    /   O peration     | Version:  v2006                                 |
|   \\  /    A nd           | Website:  www.openfoam.com                      |
|    \\/     M anipulation  |                                                 |
\*---------------------------------------------------------------------------*/
FoamFile
{
    version     2.0;
    format      ascii;
    class       surfaceScalarField;
    location    "750";
    object      phi;
}
// * * * * * * * * * * * * * * * * * * * * * * * * * * * * * * * * * * * * * //

dimensions      [0 3 -1 0 0 0 0];
oriented        oriented;


internalField   nonuniform List<scalar> 
42278
(
-1.3414e-06
-1.34211e-06
6.64329e-07
6.6545e-07
-0.00107194
-1.55285e-06
1.34208e-06
-6.19901e-07
8.60988e-07
-8.16724e-08
4.35595e-07
-7.79464e-07
-1.36669e-06
-2.20201e-07
-0.0010731
6.67434e-07
1.59371e-06
1.55309e-06
-6.59387e-07
-6.7016e-07
0.000262261
-0.000264078
6.68246e-07
-6.25129e-07
9.02725e-07
-7.67387e-08
4.4378e-07
-7.82113e-07
-1.37472e-06
-2.17839e-07
-0.00107264
6.67289e-07
-6.17502e-07
8.6119e-07
-8.41413e-08
4.40955e-07
-7.82224e-07
-1.37209e-06
-2.17774e-07
-0.00107358
-1.58863e-06
1.34092e-06
6.6827e-07
-6.22625e-07
8.97505e-07
-7.93123e-08
4.41121e-07
-7.81903e-07
-1.37189e-06
-2.17633e-07
-0.00107266
-6.62432e-07
-6.67089e-07
0.000262243
-0.000264055
-1.23372e-07
6.23991e-07
-8.58648e-08
0.000225549
-0.000225963
7.34949e-07
0.000253307
-6.94518e-07
3.88398e-09
-0.000253351
-2.37814e-11
-1.23388e-07
6.23916e-07
-8.57747e-08
0.000225524
-0.000225938
7.35023e-07
3.67364e-10
0.0002533
3.52192e-09
-6.94622e-07
-0.000253344
6.64424e-07
6.65319e-07
-0.00107159
1.23162e-07
4.07897e-07
0.000116157
-0.000116688
-3.40039e-07
-6.23752e-07
6.74933e-07
3.49308e-07
0.000266927
-0.000266988
4.08037e-07
0.000116189
-0.000116721
4.0786e-07
0.000116171
-0.000116702
3.39948e-07
5.04157e-07
-1.85518e-07
0.000316838
-0.000317089
3.37376e-07
5.06569e-07
-1.82085e-07
0.000316748
-0.000317002
6.72411e-07
3.52031e-07
-0.000266992
1.38474e-06
4.66747e-07
-1.30739e-06
-1.47847e-06
2.72603e-07
-0.00106799
3.44531e-09
0.000258495
-5.94577e-08
8.06143e-07
-0.000258506
-2.92481e-10
6.75083e-07
3.49326e-07
0.000266891
-0.000266954
2.96808e-09
1.38435e-06
4.63889e-07
-1.30997e-06
-1.47824e-06
2.69852e-07
-0.00106786
1.91328e-09
0.000258485
-6.07217e-08
8.06168e-07
-0.000258498
6.23473e-07
-8.56393e-08
0.000225464
-0.000225879
7.32252e-07
0.00025326
-6.96774e-07
3.74581e-09
-0.000253299
1.38436e-06
4.64052e-07
-1.30999e-06
-1.47815e-06
-0.00106782
-3.4002e-07
6.74763e-07
3.49247e-07
0.000266822
-0.000266883
0.00025846
8.03553e-07
-6.08641e-08
-0.000258468
5.04106e-07
-1.82853e-07
0.000316705
-0.000316958
-4.0803e-07
5.06648e-07
-1.8221e-07
0.000316834
-0.000317091
1.23238e-07
0.000116176
-0.000116708
-8.5781e-08
0.000225529
-0.000225944
-9.38263e-05
2.49532e-07
2.38355e-07
-2.98869e-07
0.000304822
1.66219e-08
4.95809e-07
-0.000305121
-7.54123e-08
-1.10073e-07
2.45532e-07
-9.43707e-05
1.27379e-08
3.76628e-07
-0.000172192
2.04687e-07
5.14605e-07
-6.48341e-07
4.39587e-09
6.17133e-07
2.19969e-10
-2.08045e-07
0.000204887
-0.000205374
5.38822e-11
-5.61674e-07
0.00025012
6.67349e-07
-0.000250205
-0.000172716
5.39437e-07
-9.38253e-05
2.49414e-07
2.38458e-07
-2.98787e-07
0.000304818
1.66089e-08
4.93196e-07
-0.000305115
-7.53256e-08
-1.10033e-07
5.34908e-07
2.45636e-07
-9.43697e-05
1.27535e-08
3.79203e-07
-0.000172187
5.14695e-07
2.04499e-07
4.87634e-09
-6.4848e-07
5.53021e-11
6.17231e-07
-5.61822e-07
0.000250111
6.6744e-07
-0.000250197
-2.08036e-07
0.000204882
-5.0265e-11
-0.000205368
-0.000172711
5.39487e-07
-5.20274e-11
1.09858e-07
3.69264e-07
3.69274e-07
3.69025e-07
-0.000244621
-5.86735e-07
4.06262e-07
-2.81346e-07
4.2458e-07
-4.77198e-07
0.000264884
5.76354e-07
3.58795e-07
-0.000264837
6.46827e-07
0.000213509
-3.53676e-07
-0.000213988
-1.53599e-07
4.15999e-07
-3.23526e-07
5.39113e-07
-0.000244667
4.00532e-07
2.75969e-07
-0.000244564
-5.84916e-07
4.0868e-07
-2.84313e-07
4.23365e-07
-4.74079e-07
0.000264774
5.75936e-07
3.53415e-07
-0.000264722
6.48804e-07
0.000213451
-3.53795e-07
-0.000213929
-1.57262e-07
4.13414e-07
2.93806e-07
-3.21735e-07
5.42573e-07
-0.000244611
-3.29662e-07
4.004e-07
2.81153e-07
-0.00025205
-1.37089e-07
1.57873e-07
-9.71075e-05
1.57801e-07
9.65806e-05
-9.70922e-05
-0.000252379
-9.37718e-05
2.49167e-07
2.38327e-07
-2.98492e-07
0.000304672
1.66535e-08
4.95563e-07
-0.000304971
-7.51963e-08
5.34504e-07
2.45413e-07
-9.43157e-05
1.27545e-08
3.76337e-07
2.04733e-07
-0.000172098
5.12019e-07
-6.46075e-07
4.50911e-09
6.19916e-07
0.000204838
-2.08133e-07
-0.000205326
-5.63576e-07
0.000250007
6.67043e-07
-0.00025009
-0.000172625
5.39353e-07
-5.87071e-07
-0.000244557
4.09204e-07
-2.83136e-07
4.28425e-07
-4.74e-07
0.000264729
5.73475e-07
3.56029e-07
-0.000264681
0.000213453
6.46456e-07
-3.54049e-07
-0.000213928
-1.56389e-07
4.16056e-07
2.91251e-07
-3.23693e-07
5.37602e-07
-0.000244599
4.0312e-07
2.78814e-07
4.09417e-07
-0.000244625
-5.84505e-07
-2.85018e-07
4.22534e-07
0.000264894
-4.74264e-07
5.76252e-07
3.58678e-07
-0.000264848
6.4853e-07
0.000213516
-3.53876e-07
-0.000213993
4.13288e-07
-1.56827e-07
-3.69147e-07
2.91206e-07
4.0042e-07
2.76166e-07
-3.208e-07
5.413e-07
-0.000244672
-3.28917e-07
-0.000252048
-1.3749e-07
1.57648e-07
-9.70923e-05
1.57751e-07
9.65961e-05
-9.71077e-05
-0.000252377
1.09901e-07
2.49655e-07
-9.38284e-05
2.38505e-07
0.000304827
-2.98575e-07
4.95712e-07
-0.000305127
1.66283e-08
-7.52782e-08
5.34728e-07
3.76615e-07
1.2831e-08
-9.43726e-05
2.45592e-07
6.85445e-07
-0.00107531
4.97986e-10
6.86017e-07
1.39627e-10
-0.00107572
-1.28093e-10
-0.00108182
-1.08223e-11
-0.000253493
3.02677e-07
3.05619e-07
-5.52491e-07
0.000262019
-0.000262175
-5.50778e-07
0.000262442
-0.000262603
-1.87472e-07
-1.77153e-07
-0.000253514
3.05324e-07
-0.000253483
3.03386e-07
-5.53221e-07
0.000262394
-0.000262552
0.000262034
-5.4981e-07
-0.000262195
-1.79749e-07
-1.85029e-07
-0.000253507
6.85265e-07
-0.00107497
6.85887e-07
-1.38426e-06
-0.0010754
3.83133e-10
-0.00108127
-4.83676e-11
-0.0002655
-2.08158e-07
-3.06694e-07
1.16591e-07
2.33969e-07
0.000266465
-0.000266445
7.29049e-07
0.000266639
1.64733e-07
-0.000266688
3.91999e-07
3.29168e-07
1.39247e-07
-0.000266043
1.59387e-07
-3.11967e-07
-0.00026549
-2.08066e-07
1.26876e-07
2.34029e-07
0.000266449
-0.000266434
0.000266644
7.23825e-07
1.6232e-07
-0.000266682
1.61971e-07
1.29162e-07
-0.000266036
-3.74759e-07
-0.000263192
5.62499e-08
-6.23423e-08
4.22433e-07
1.74448e-09
0.000260365
7.98352e-07
-0.000260393
-5.36001e-08
0.000261729
-0.000262174
-2.56294e-09
-0.000263796
5.32393e-09
-3.06647e-07
-0.0002655
-2.07995e-07
1.13982e-07
2.3389e-07
0.000266436
-0.000266424
0.000266623
7.29226e-07
1.62249e-07
-0.000266672
3.29172e-07
3.92131e-07
1.61872e-07
1.4173e-07
-0.000266051
-3.72155e-07
-0.000263183
5.20999e-08
-6.12747e-08
4.22497e-07
-4.05837e-10
0.000260352
8.01004e-07
-0.000260384
-5.80552e-08
0.000261723
7.2798e-09
-0.000262176
-0.000263777
-0.000265415
-3.06447e-07
-2.10737e-07
1.26841e-07
2.31343e-07
0.000266361
-0.000266343
7.28954e-07
0.000266525
1.62201e-07
-0.000266571
3.29121e-07
3.91879e-07
1.29047e-07
-0.000265955
1.61852e-07
-0.000263122
-3.7464e-07
-6.22813e-08
-5.62955e-08
-0.000262148
7.98107e-07
0.000260271
-0.000260301
-0.000263729
-0.00104223
-1.45853e-05
-1.44545e-05
9.30208e-06
9.17292e-06
0.00105279
-0.00026145
-5.64161e-06
1.44815e-05
6.83424e-06
0.00105937
-4.53257e-06
-1.62224e-06
-2.21533e-06
-2.5781e-06
-6.5915e-06
-7.04684e-06
-3.1663e-06
-0.000263298
-0.000259722
-0.000262822
-0.00026145
-5.64168e-06
1.44962e-05
6.86599e-06
0.00105933
-4.53279e-06
-1.62737e-06
-2.21807e-06
-2.58064e-06
-6.59142e-06
-7.04688e-06
-3.16625e-06
-0.00025972
-0.000263298
-0.000262822
-0.000260559
5.61726e-06
5.65981e-06
-4.88073e-06
-4.8719e-06
0.000259035
-1.62177e-06
-1.62825e-06
-0.00106082
8.98314e-07
8.94089e-07
0.00106228
-0.0010626
-1.60653e-06
1.63333e-06
8.17952e-07
0.00106389
-6.53795e-07
7.84506e-07
-1.4812e-07
3.75335e-07
-8.03454e-07
-1.39759e-06
-2.9064e-07
-0.00106252
-1.60414e-06
1.63375e-06
8.28718e-07
0.0010638
-6.53994e-07
7.81633e-07
-1.48296e-07
3.72748e-07
-8.0339e-07
-1.3949e-06
-2.90564e-07
-0.000261521
1.63672e-06
1.59916e-06
-7.08225e-07
-7.16447e-07
0.000259709
5.2165e-06
5.22982e-06
0.000260577
-0.000259171
-5.93213e-06
-5.92035e-06
5.0792e-06
0.000261425
-0.000258697
-5.96238e-06
3.37175e-06
-5.22657e-06
5.07642e-06
0.000261427
-0.000258689
-5.96967e-06
3.38174e-06
5.22193e-06
0.000260567
-0.000259166
-5.90053e-06
-5.94896e-06
5.06716e-06
0.000261481
-0.000258714
-5.96768e-06
3.36396e-06
5.07643e-06
-5.23169e-06
0.000261427
-0.000258686
3.38432e-06
-5.9697e-06
1.06709e-05
1.06176e-05
-0.000252649
-0.000256081
-0.000255118
-0.000255118
-6.415e-06
-4.12538e-06
-6.6599e-06
-6.41778e-06
-4.12093e-06
-6.66524e-06
-5.07456e-06
0.00104219
1.07162e-05
1.06223e-05
-0.000252649
-0.000256074
-0.000255118
-0.000255116
-6.41719e-06
-4.12519e-06
-6.66491e-06
-6.42017e-06
-4.12596e-06
-6.66277e-06
-5.07462e-06
0.00104215
1.07287e-05
1.06429e-05
-0.000252646
-0.000256079
-0.000255113
-0.000255118
-6.4199e-06
-4.12775e-06
-6.66486e-06
-6.41776e-06
-4.12333e-06
-6.66519e-06
-5.08391e-06
-5.07435e-06
0.00104213
1.07311e-05
1.06754e-05
-0.000252646
-0.000256074
-0.000255113
-0.000255118
-6.41974e-06
-4.13031e-06
-6.66751e-06
-6.41742e-06
-4.12575e-06
-6.66766e-06
-0.000258704
-5.95991e-06
3.36138e-06
-5.22384e-06
0.000261404
-0.000258679
3.37909e-06
-5.96448e-06
5.22202e-06
0.000260564
-0.000259168
-5.90055e-06
-5.94905e-06
-0.000258707
3.36654e-06
-5.9625e-06
-5.23465e-06
0.000261458
-0.000258707
3.37654e-06
-5.96724e-06
-0.000259166
-5.9318e-06
-5.92003e-06
5.61239e-06
5.65507e-06
-4.87347e-06
-4.86966e-06
0.000259053
-7.85854e-07
-7.4211e-07
0.000261556
-0.000259472
-2.82096e-07
-2.74701e-07
7.02672e-06
0.00105893
-4.52755e-06
-1.57318e-06
-2.20763e-06
-2.57741e-06
-6.60923e-06
-7.05157e-06
-3.17124e-06
-0.000263277
-0.000259697
-0.000262814
-5.6305e-06
1.45484e-05
7.09956e-06
0.00105906
-4.55432e-06
-1.57833e-06
-2.221e-06
-2.58666e-06
-6.63155e-06
-7.06034e-06
-3.18853e-06
-0.00026332
-0.000259694
-0.000262811
0.00106206
2.0343e-06
-0.00106101
9.68547e-07
-1.7257e-06
-1.66535e-07
-6.92109e-07
-1.4684e-06
-3.0775e-07
-8.28281e-07
3.45977e-07
7.83247e-07
0.00106218
2.02914e-06
-0.00106113
9.73836e-07
-1.72078e-06
-1.64161e-07
-6.95053e-07
-1.47071e-06
-3.07582e-07
-8.28246e-07
3.48607e-07
-4.87875e-06
-4.87165e-06
0.000259045
-7.47304e-07
0.000261557
-0.000259469
-2.8214e-07
-2.74656e-07
6.80835e-06
0.00105969
-4.55199e-06
-1.63779e-06
-2.22902e-06
-2.58571e-06
-6.61977e-06
-7.0624e-06
-3.17903e-06
-0.000263364
-0.00025974
-0.00026285
-5.62802e-06
1.45638e-05
7.12314e-06
0.00105901
-4.54921e-06
-1.58093e-06
-2.22103e-06
-2.58693e-06
-6.63414e-06
-7.06063e-06
-3.18594e-06
-0.000259692
-0.000263323
-0.000262809
0.00106299
2.03642e-06
-0.00106192
9.67025e-07
-1.68818e-06
-1.71577e-07
-6.92462e-07
-1.46837e-06
-3.10054e-07
-8.25638e-07
3.43058e-07
7.77889e-07
0.0010621
2.03439e-06
-0.00106104
9.79249e-07
-1.72093e-06
-1.69336e-07
-6.95267e-07
-1.46827e-06
-3.09939e-07
-8.28049e-07
3.43135e-07
1.46119e-05
7.11499e-06
0.00105874
-4.52978e-06
-1.58068e-06
-2.21255e-06
-2.58191e-06
-6.60588e-06
-3.17326e-06
-7.04766e-06
-0.000259676
-0.000263259
-0.00026278
2.02605e-06
-0.00106154
9.67279e-07
-1.68791e-06
-1.71383e-07
-6.86888e-07
-1.46586e-06
-3.05195e-07
3.42921e-07
-8.28284e-07
7.75094e-07
0.00106178
2.0293e-06
-0.00106073
9.8419e-07
-1.71814e-06
-1.69157e-07
-6.92285e-07
-1.46293e-06
-3.07525e-07
-8.28028e-07
3.37813e-07
-4.87872e-06
-4.86923e-06
0.000259043
-7.41797e-07
0.000261536
-0.000259462
-2.79937e-07
-2.7479e-07
1.4486e-05
6.90001e-06
0.00105949
-4.55692e-06
-1.64276e-06
-2.23137e-06
-2.58752e-06
-6.61888e-06
-3.17853e-06
-7.05833e-06
-0.000259722
-0.000263341
-0.000262821
2.03667e-06
-0.00106147
9.67713e-07
-1.68807e-06
-1.69093e-07
-6.92341e-07
-1.46327e-06
-3.07658e-07
3.4035e-07
-8.25757e-07
7.39173e-07
0.0010627
2.03678e-06
-0.00106164
9.72597e-07
-1.68065e-06
-1.71674e-07
-6.89968e-07
-1.46552e-06
-3.0748e-07
-8.28176e-07
3.40248e-07
-0.000259444
-2.85146e-07
-2.77593e-07
1.64439e-06
1.60423e-06
-7.10484e-07
-7.16376e-07
0.000259735
8.24371e-07
0.00106334
-6.58998e-07
8.25725e-07
-1.4078e-07
3.80963e-07
-8.00832e-07
-1.40012e-06
-2.90656e-07
-1.64206e-06
1.63194e-06
8.2448e-07
0.00106346
-6.59302e-07
8.20504e-07
-1.43386e-07
3.83644e-07
-8.03317e-07
-1.40245e-06
-2.88029e-07
-7.08397e-07
-7.18489e-07
0.000259735
8.22935e-07
0.00106427
-6.54099e-07
7.84594e-07
-1.48266e-07
3.7804e-07
-8.00877e-07
-1.39492e-06
-2.90564e-07
-1.63698e-06
1.6321e-06
8.29997e-07
0.00106337
-6.56806e-07
8.15181e-07
-1.43503e-07
3.80766e-07
-8.00607e-07
-1.39999e-06
-2.90382e-07
1.64255e-06
8.24644e-07
0.00106305
-6.56449e-07
8.15017e-07
-1.4584e-07
3.72794e-07
-8.00547e-07
-2.9291e-07
-1.39212e-06
-7.13785e-07
-7.16012e-07
0.000259725
1.63369e-06
8.28539e-07
0.00106398
-6.54147e-07
7.71148e-07
-1.50844e-07
3.75322e-07
-8.00705e-07
-2.90426e-07
-1.39463e-06
-2.45619e-10
-5.02606e-10
0.000250244
-1.19362e-07
-1.19619e-07
-2.31565e-06
-2.31565e-06
0.000250605
8.7577e-07
8.75761e-07
-6.83606e-07
-7.32618e-10
0.000250425
4.20719e-07
-1.9993e-07
-6.83618e-07
-9.49576e-10
0.000250424
4.2073e-07
-1.99419e-07
-6.29151e-09
0.000252005
-1.1664e-06
1.87718e-05
-1.23871e-05
-1.26918e-06
-7.6247e-06
-5.37062e-06
-1.98853e-07
-5.38977e-06
-1.37237e-07
-4.21764e-06
2.31565e-06
0.000250742
-6.44663e-06
2.79019e-06
-1.0541e-06
6.51265e-05
-2.03296e-06
8.38988e-07
-6.46116e-05
1.73322e-06
6.8362e-07
-1.28727e-09
0.000250536
-1.47883e-06
-4.53983e-07
-6.2146e-09
0.000252005
-1.16639e-06
1.87718e-05
-1.23871e-05
-1.26917e-06
-7.6247e-06
-5.37063e-06
-1.98858e-07
-5.38977e-06
-1.37369e-07
2.31565e-06
-4.21766e-06
0.000250742
2.7902e-06
-6.44663e-06
6.83621e-07
-1.15034e-09
0.000250536
-1.47883e-06
-4.54243e-07
-1.0541e-06
6.51265e-05
-2.03303e-06
8.39005e-07
-6.46116e-05
1.73325e-06
4.21766e-06
4.21766e-06
0.000250966
-1.59095e-05
-1.59095e-05
1.05413e-06
6.59487e-05
-2.85882e-07
-1.25e-06
-6.57133e-05
1.99125e-06
-3.19753e-07
-7.53639e-07
-6.71514e-07
1.05412e-06
6.59487e-05
-2.85881e-07
-1.25001e-06
-6.57145e-05
1.99253e-06
-3.19754e-07
-7.5364e-07
-6.71515e-07
-3.35424e-09
9.71291e-07
0.000253002
-0.000253167
-7.51786e-07
-5.07709e-08
-0.000241721
-2.30427e-06
5.41126e-06
2.24297e-06
0.000236371
-0.00025426
-1.7188e-08
3.37979e-06
0.00025388
-2.36847e-06
-6.13681e-07
-1.72547e-07
6.24968e-07
0.000233054
-4.99415e-08
-0.000233456
-0.000142662
2.30899e-06
5.57819e-06
0.000134774
1.72947e-07
6.13586e-07
0.000130833
-0.00013162
9.71418e-07
-3.6035e-09
0.000252995
-0.000253158
-5.00826e-08
-7.54414e-07
-0.0002417
-2.30135e-06
5.41068e-06
2.24346e-06
0.000236347
-0.000254251
3.37829e-06
-1.73161e-08
0.000253876
-6.13316e-07
-2.37218e-06
-1.72604e-07
6.29293e-07
0.000233025
-5.02829e-08
-0.000233431
9.34237e-06
9.20268e-06
0.00105267
9.37785e-06
9.23863e-06
0.0010526
9.3725e-06
9.23838e-06
0.00105262
-0.00105931
1.27915e-06
1.28043e-06
0.00106064
-0.00105915
1.27921e-06
1.28034e-06
0.00106048
-0.00105899
1.28978e-06
1.28584e-06
0.00106049
-0.00105902
1.29501e-06
1.29622e-06
-9.71435e-07
-5.8694e-09
0.000256206
-0.0002562
-1.49871e-07
1.1217e-06
-0.000267593
-3.22311e-06
-5.41054e-06
5.75181e-06
2.55038e-06
0.000267924
0.00105196
-0.00104532
-8.76174e-08
1.66005e-05
-2.22813e-06
-5.76418e-06
-6.01826e-06
-2.31274e-06
3.51642e-06
1.59959e-08
0.0010609
7.2176e-06
-3.12296e-06
-9.36289e-07
-2.24742e-06
-4.058e-07
-3.09597e-06
-6.86933e-07
-1.78701e-06
-0.000256834
-3.37326e-06
-1.49262e-08
0.000256591
-7.6422e-07
4.39563e-06
-5.33326e-07
-6.24263e-07
0.000266094
5.89667e-07
-0.000266374
8.47255e-07
-6.64464e-08
0.00105462
8.26885e-06
-3.22001e-06
-6.2584e-07
-3.0864e-06
-4.12662e-07
-0.000142651
2.30825e-06
5.57484e-06
0.000134767
1.72289e-07
6.17186e-07
0.000130823
-0.000131613
-4.25616e-09
-9.74224e-07
0.000256199
-0.000256192
1.12174e-06
-1.50515e-07
0.0010519
-0.00104529
-2.49656e-08
1.66147e-05
-2.23319e-06
-5.76665e-06
-6.02075e-06
-2.31771e-06
-0.000267593
-3.22085e-06
-5.40779e-06
5.75167e-06
2.54786e-06
0.000267922
3.52726e-06
1.59067e-08
0.00106085
7.23281e-06
-3.12551e-06
-9.38749e-07
-2.24738e-06
-4.05754e-07
-3.0986e-06
-6.86954e-07
-1.78702e-06
-0.000256834
-1.39972e-08
-3.37049e-06
0.000256589
4.39551e-06
-7.65318e-07
-1.7046e-08
0.00105451
8.27826e-06
-3.21741e-06
-6.28362e-07
-3.08374e-06
-4.12602e-07
-5.36056e-07
-6.29221e-07
0.000266095
5.89562e-07
-0.000266366
8.4742e-07
-0.000325837
3.23155e-06
-5.57461e-06
5.27501e-06
1.27043e-07
0.000322778
-0.000325762
3.23114e-06
-5.57729e-06
5.28277e-06
1.27473e-07
0.000322698
-5.35597e-08
-2.38898e-09
0.000261244
-0.000259267
-9.65298e-07
-9.55923e-07
5.36407e-07
-6.1417e-07
0.000319492
-1.70316e-07
-0.000319877
6.33833e-07
5.35993e-07
-6.14e-07
0.000319404
-1.7017e-07
-0.00031979
6.3384e-07
-1.53845e-10
6.46039e-07
0.000253133
-0.000253066
-6.98268e-07
-1.45892e-08
-0.000231802
-1.57221e-07
6.71205e-07
-1.23806e-07
0.000231412
-0.000252973
-6.61576e-11
7.56087e-07
0.000252988
-7.49868e-07
-2.11469e-08
-1.50442e-07
5.84147e-07
0.000230388
-1.19716e-07
-0.000230702
-0.000127309
1.57267e-07
6.46329e-07
0.000126506
1.50625e-07
5.80101e-07
0.00012424
-0.000124971
6.40898e-07
-1.51061e-10
0.000253129
-0.000253057
-1.4612e-08
-6.98459e-07
-0.000231775
-1.54975e-07
6.68486e-07
-1.20361e-07
0.000231382
-0.000252966
7.56294e-07
1.27409e-10
0.000252981
-2.14465e-08
-7.50164e-07
-1.50354e-07
5.86431e-07
0.00023036
-1.20041e-07
-0.000230676
8.98393e-07
8.99182e-07
0.00106211
9.09039e-07
9.04682e-07
0.00106194
9.03928e-07
9.04814e-07
0.00106196
-6.40869e-07
-1.7847e-09
0.00025691
-0.000256654
-6.66736e-08
4.52633e-07
-0.000266135
-4.5004e-07
-6.68419e-07
6.78972e-07
4.41817e-07
0.000266133
0.00105832
-0.001057
-1.70973e-09
1.73729e-06
3.96293e-07
-1.3396e-06
-1.51011e-06
2.11471e-07
7.6348e-07
8.07166e-07
0.00106519
1.50507e-06
-1.36672e-06
-2.70799e-07
-7.89226e-07
3.99714e-07
-1.57919e-06
-1.2805e-07
-6.37805e-07
-0.000256389
-7.53696e-07
1.39378e-09
0.000256387
-7.11065e-08
8.25542e-07
-3.94998e-07
-5.88898e-07
0.000266406
4.13601e-07
-0.000266269
4.33228e-07
-5.78361e-09
0.00105969
1.53847e-06
-1.48106e-06
2.33368e-07
-1.30911e-06
4.20588e-07
-0.000127299
1.56826e-07
6.46716e-07
0.000126495
1.50279e-07
5.80612e-07
0.000124232
-0.000124963
-7.94087e-10
-6.46214e-07
-0.000256645
4.50075e-07
-6.69318e-08
0.000256909
0.00105819
-0.00105687
2.47278e-09
1.74242e-06
3.96375e-07
-1.34227e-06
-1.50746e-06
2.14167e-07
-0.000266135
-4.52949e-07
-6.6817e-07
6.78926e-07
4.44505e-07
0.000266133
7.63705e-07
8.07011e-07
0.00106509
1.50532e-06
-1.36406e-06
-2.68237e-07
-7.89114e-07
3.99757e-07
-1.57676e-06
-1.28131e-07
-6.37911e-07
-0.000256382
7.08832e-10
-7.56378e-07
0.000256383
8.2554e-07
-7.08685e-08
-3.6693e-09
1.53842e-06
-1.47842e-06
2.30711e-07
-1.30913e-06
4.15345e-07
0.00105956
-3.97786e-07
-5.86192e-07
0.000266401
4.13468e-07
-0.000266267
4.35804e-07
-0.000319334
4.52946e-07
-6.47456e-07
5.12338e-07
-1.99834e-07
0.000319216
-0.000319244
4.50078e-07
-6.47186e-07
5.12251e-07
-1.9979e-07
0.000319128
-8.35135e-07
-7.96469e-07
0.0002621
-0.000260011
-2.31157e-07
-2.2611e-07
3.97883e-07
-5.80483e-07
0.000318957
-1.74397e-07
-0.000319025
4.25069e-07
3.9499e-07
-5.80242e-07
0.000318869
-1.74231e-07
-0.000318932
4.22334e-07
0.000250964
4.21766e-06
4.21765e-06
-1.59095e-05
-1.5907e-05
6.59537e-05
1.05409e-06
-2.86545e-07
-1.25049e-06
-6.57164e-05
1.9925e-06
-3.21009e-07
-7.54346e-07
-6.71494e-07
6.59487e-05
1.0541e-06
-2.85885e-07
-1.24996e-06
-6.57145e-05
1.99254e-06
-3.19754e-07
-7.53641e-07
-6.71514e-07
2.96058e-05
1.13757e-05
0.000142676
-2.48435e-05
-5.64334e-05
-5.15263e-05
-5.08547e-05
5.04812e-07
2.50252e-07
-1.65347e-05
-1.571e-07
-2.0995e-07
1.61467e-05
2.96025e-05
1.13729e-05
0.000142659
-2.48429e-05
-5.64233e-05
-5.15146e-05
-5.08538e-05
5.04816e-07
2.49636e-07
-1.65335e-05
-1.57096e-07
-2.10613e-07
1.61467e-05
3.10091e-06
3.10091e-06
0.000253159
-4.1969e-06
-4.19965e-06
7.01573e-06
0.000325857
8.05368e-06
-0.00031288
1.55944e-06
7.01763e-06
0.000325785
8.07872e-06
-0.000312827
1.5478e-06
8.98097e-07
-4.04998e-07
-6.65022e-08
-1.30131e-07
-1.03982e-06
2.07637e-06
6.51255e-05
8.96784e-07
-4.05005e-07
-6.65064e-08
-1.30128e-07
-1.03985e-06
2.07508e-06
6.51231e-05
-6.30336e-09
0.000252004
-1.16638e-06
1.87718e-05
-1.2387e-05
-1.26916e-06
-7.62472e-06
-5.37063e-06
-1.98601e-07
-5.38977e-06
-1.37125e-07
0.000250742
-6.44662e-06
2.79021e-06
6.5129e-05
-2.03481e-06
8.377e-07
-6.46122e-05
1.73445e-06
-1.1783e-09
0.000250537
-1.47881e-06
-4.54249e-07
0.000251999
-1.16637e-06
1.87717e-05
-1.23867e-05
-1.26911e-06
-7.62479e-06
-5.37142e-06
-2.01858e-07
-5.39079e-06
-1.39735e-07
0.00025074
-4.21766e-06
2.31564e-06
-6.44656e-06
2.79266e-06
6.5129e-05
-1.05406e-06
-2.03422e-06
8.37723e-07
-6.46129e-05
1.73444e-06
0.000250536
6.83604e-07
-1.47881e-06
-4.56489e-07
-6.30032e-09
1.79634e-06
-6.31142e-05
-1.71685e-06
-1.63524e-07
6.32046e-05
1.33166e-05
-0.000247199
3.53683e-06
1.48814e-06
-6.60652e-05
4.67262e-07
6.4488e-05
-8.76306e-08
-9.634e-09
-2.74152e-09
6.56361e-08
-2.48943e-08
9.201e-08
-1.60612e-07
-2.31521e-08
5.16661e-06
-0.000253283
-5.22207e-06
-8.9828e-07
1.7963e-06
-6.31134e-05
-1.71677e-06
-1.74963e-07
6.32025e-05
1.33153e-05
-1.13897e-05
0.000241677
-0.00024717
3.56698e-06
1.48814e-06
-2.50251e-07
-6.60672e-05
4.67269e-07
6.4488e-05
-8.76196e-08
-9.63542e-09
-2.72602e-09
6.55871e-08
-2.48378e-08
9.26282e-08
-1.59312e-07
5.16552e-06
0.000254221
-0.000253243
-5.21914e-06
-9.48173e-07
-1.71838e-08
-1.36133e-06
5.92861e-06
0.000254964
-1.98438e-06
-1.79939e-06
-1.92932e-06
2.77488e-06
0.00025288
-3.98481e-06
2.17301e-06
0.000267603
9.21158e-06
-0.000260755
4.27301e-06
-5.4456e-08
2.13291e-05
0.00104533
-0.000257257
-0.0002535
-0.000256979
-0.000255136
-9.43502e-06
-5.88312e-06
-9.24604e-06
-6.66644e-06
-4.0182e-06
-1.82378e-06
-4.02715e-06
-2.63546e-06
8.36469e-07
1.93375e-06
6.4745e-05
-3.49988e-09
1.95186e-06
-2.82928e-06
-6.22368e-07
0.00025204
-1.96697e-08
0.000256838
-0.000256464
-1.06739e-06
5.88011e-06
-1.39078e-06
5.92851e-06
0.000254953
-1.98422e-06
-1.79932e-06
-1.92905e-06
-3.10597e-06
2.77485e-06
0.00025288
-3.98716e-06
2.17795e-06
-7.02597e-06
0.000267546
9.22561e-06
-0.000260724
4.29396e-06
2.13335e-05
0.00104529
-0.000257258
-0.000253497
-0.000256979
-0.000255133
-9.43409e-06
-5.8828e-06
-9.2457e-06
-6.6706e-06
-4.03821e-06
-1.83867e-06
-4.04454e-06
-2.65786e-06
-8.99403e-07
8.37771e-07
1.93371e-06
6.4745e-05
1.95185e-06
-2.82927e-06
-6.28838e-07
0.000252039
0.000256816
-0.000256441
-1.10819e-06
5.8795e-06
0.000250966
-1.59095e-05
-1.59095e-05
6.59537e-05
-2.86556e-07
-1.25048e-06
-6.57164e-05
1.99251e-06
-3.21014e-07
-7.54306e-07
-6.71509e-07
6.59487e-05
-2.85885e-07
-1.24998e-06
-6.57145e-05
1.99255e-06
-3.19756e-07
-7.53643e-07
-6.71517e-07
2.95984e-05
-2.4843e-05
-5.64289e-05
-5.08545e-05
-5.15233e-05
5.04815e-07
-1.65347e-05
-1.57748e-07
-2.10593e-07
1.6148e-05
3.10084e-06
0.000253159
-4.19943e-06
-4.19961e-06
0.000325775
8.09607e-06
-0.000312843
1.54512e-06
-2.96008e-05
7.00692e-06
0.00032585
8.03312e-06
-0.000312852
1.56272e-06
-4.04978e-07
-6.65043e-08
-1.30116e-07
-1.03981e-06
2.07629e-06
6.51242e-05
-5.04818e-07
8.96807e-07
-1.0399e-06
2.0751e-06
6.51231e-05
-4.05008e-07
-6.65061e-08
-1.30127e-07
1.13679e-05
0.000142665
-2.48411e-05
-5.64248e-05
-5.15154e-05
-5.08527e-05
2.4964e-07
-1.65335e-05
-1.57102e-07
-2.11242e-07
1.61474e-05
-6.30332e-09
0.000252005
-1.16639e-06
1.87718e-05
-1.2387e-05
-1.26918e-06
-7.62472e-06
-5.37062e-06
-1.9873e-07
-5.38977e-06
-1.37239e-07
0.000250742
-6.44662e-06
2.7902e-06
6.51265e-05
-2.03296e-06
8.38984e-07
-6.46116e-05
1.73322e-06
-1.34471e-09
0.000250536
-1.47883e-06
-4.53984e-07
0.000251999
-1.16638e-06
1.87717e-05
-1.23868e-05
-1.26913e-06
-7.62477e-06
-5.37142e-06
-2.01987e-07
-5.39079e-06
-1.3973e-07
0.00025074
2.31565e-06
-4.21766e-06
2.79266e-06
-6.44657e-06
0.000250536
6.83619e-07
-1.47883e-06
-4.56493e-07
6.51265e-05
-1.05411e-06
-2.03296e-06
8.38991e-07
-6.46116e-05
1.73321e-06
1.79638e-06
-6.25454e-09
-6.31141e-05
-1.63524e-07
-1.71689e-06
6.32044e-05
1.33193e-05
-0.000247184
3.53729e-06
1.48825e-06
-6.60622e-05
4.65953e-07
6.44849e-05
-8.69692e-08
-1.02591e-08
-3.41686e-09
6.56263e-08
-2.49153e-08
9.2657e-08
-1.59961e-07
5.17045e-06
-2.30204e-08
-0.000253281
-8.98872e-07
-5.2188e-06
-1.72848e-08
-1.361e-06
5.93129e-06
0.000254961
-1.98443e-06
-1.79945e-06
-1.92937e-06
2.77746e-06
0.00025288
-3.98984e-06
2.17543e-06
0.000267575
9.22173e-06
-0.000260735
4.27472e-06
-8.15731e-08
2.13348e-05
0.00104535
-0.000257262
-0.000253502
-0.000256981
-0.000255137
-9.44296e-06
-5.88615e-06
-9.2515e-06
-6.67193e-06
-4.01797e-06
-1.80051e-06
-4.02174e-06
-2.63001e-06
8.35166e-07
1.9338e-06
6.47425e-05
-4.19185e-09
1.95192e-06
-2.82936e-06
-6.22334e-07
0.00025204
-2.0245e-08
0.000256834
-0.00025646
-1.06713e-06
5.88345e-06
1.79635e-06
-6.31136e-05
-1.71682e-06
-1.74698e-07
6.32025e-05
1.33172e-05
-1.13826e-05
0.000241658
-0.000247157
3.56433e-06
1.48815e-06
-2.49637e-07
-6.60622e-05
4.6726e-07
6.44836e-05
-8.69697e-08
-1.02608e-08
-3.41745e-09
6.56249e-08
-2.49062e-08
9.26624e-08
-1.59953e-07
5.16677e-06
0.000254214
-0.00025324
-5.21587e-06
-9.47864e-07
5.93117e-06
-1.39056e-06
0.000254951
-1.98428e-06
-1.79937e-06
-1.92911e-06
2.77992e-06
-3.10595e-06
0.000252878
2.17796e-06
-3.98976e-06
2.13438e-05
0.00104527
-0.000257257
-0.000253496
-0.000256977
-0.000255137
-9.43948e-06
-5.88311e-06
-9.25107e-06
-6.67092e-06
-4.03821e-06
-1.84379e-06
-4.04209e-06
-2.66032e-06
-7.02839e-06
0.000267541
9.22772e-06
-0.000260716
4.29322e-06
1.9519e-06
-2.82934e-06
-6.29598e-07
0.000252039
-8.96759e-07
8.36416e-07
1.93501e-06
6.474e-05
0.000256811
-0.000256436
5.88021e-06
-1.10837e-06
-4.89898e-10
0.000250244
-1.19362e-07
-1.20119e-07
0.000250602
8.78278e-07
8.75748e-07
0.000250424
4.20718e-07
-2.01175e-07
-8.94136e-10
0.000250422
4.23231e-07
-1.99418e-07
-2.3613e-10
0.000250244
-1.19619e-07
-1.20373e-07
0.0002506
8.78272e-07
8.78268e-07
0.000250424
4.2073e-07
-2.01179e-07
-6.88673e-10
0.000250422
4.23233e-07
-1.99924e-07
0.000250244
-1.20119e-07
-1.20373e-07
0.0002506
-2.31565e-06
-2.31565e-06
8.78266e-07
8.78268e-07
0.000250422
-6.8362e-07
4.23231e-07
-2.01174e-07
0.000250422
-6.83619e-07
4.23233e-07
-2.01169e-07
-7.54496e-10
-1.63194e-09
-3.40654e-07
-3.41436e-07
0.000250929
0.000252554
1.80144e-06
1.80141e-06
1.02104e-05
-2.77659e-08
-0.000252623
-0.000253694
-0.000254494
-0.000251984
0.00103461
1.02236e-05
-6.31227e-08
-0.000252622
-0.000253695
-0.000254491
-0.000251983
0.00103458
-2.20643e-09
1.20838e-06
-4.93429e-07
0.000251664
-3.07359e-09
1.20843e-06
-4.93401e-07
0.000251664
-1.56636e-08
-4.0986e-08
-0.000252868
-0.000251793
-0.000252298
-0.000252303
0.00102975
-1.59351e-09
-3.40903e-07
-3.4269e-07
0.000250929
-2.77995e-06
0.000252552
1.80396e-06
1.80136e-06
1.02104e-05
-0.000252626
-0.000253691
-0.000254489
-0.000251982
0.0010346
1.02463e-05
-5.81856e-08
-2.13373e-05
-0.000252619
-0.000253692
-0.00025198
-0.000254488
0.00103455
1.20837e-06
-4.97423e-07
0.000251663
-2.88894e-09
-1.95193e-06
1.20593e-06
-4.93393e-07
0.000251664
-3.92666e-08
-0.000252871
-0.000251792
-0.000252297
-0.000252304
0.00102974
-7.23066e-10
-3.41435e-07
-3.43459e-07
0.000250928
-2.77998e-06
0.000252557
1.80397e-06
1.79891e-06
1.02283e-05
-0.000252624
-0.000253689
-0.000254494
-0.000251979
0.00103457
1.02614e-05
-2.29238e-08
-2.13443e-05
-0.00025262
-0.000253693
-0.000251979
-0.000254489
0.00103453
1.20842e-06
-4.98441e-07
0.000251663
-2.04184e-09
-1.95193e-06
1.20844e-06
-4.93674e-07
0.000251661
-1.39717e-08
-0.000252869
-0.00025179
-0.000252299
-0.000252301
0.00102972
-3.42687e-07
-3.43458e-07
0.000250928
-2.77992e-06
-2.77993e-06
0.000252552
1.80393e-06
1.80392e-06
1.0251e-05
-2.13488e-05
-0.000252622
-0.000253687
-0.000251979
-0.000254485
0.00103454
1.02614e-05
-2.1349e-05
-0.000252622
-0.000253691
-0.000251977
-0.000254489
0.00103452
-1.95191e-06
1.20592e-06
-4.98184e-07
0.000251663
-1.95192e-06
1.20843e-06
-4.97413e-07
0.000251661
-0.00025287
-0.000251789
-0.000252298
-0.0002523
0.00102972
0.000251999
-1.16639e-06
1.87717e-05
-1.23867e-05
-1.26912e-06
-7.62479e-06
-5.37142e-06
-2.01978e-07
-5.39079e-06
-1.39724e-07
0.00025074
2.79265e-06
-6.44658e-06
0.000250536
-1.47883e-06
-4.5649e-07
6.51265e-05
-2.03296e-06
8.39002e-07
-6.46116e-05
1.73321e-06
-1.79643e-06
-1.71972e-08
-1.36108e-06
5.93136e-06
0.000254961
-1.98447e-06
-1.79947e-06
-1.9294e-06
0.00025288
-3.9899e-06
2.17293e-06
-1.33192e-05
9.20398e-06
-0.00026074
4.26929e-06
-7.72266e-08
-0.000257262
-0.000253501
-0.000255134
-0.00025698
-9.4354e-06
-5.88362e-06
-6.66685e-06
-9.24644e-06
-4.01278e-06
-1.80308e-06
-2.62992e-06
-4.01918e-06
-1.48825e-06
8.35175e-07
1.93381e-06
6.47425e-05
-3.99952e-09
-2.82938e-06
-6.2233e-07
0.00025204
-5.16565e-06
-2.00098e-08
-0.000256461
-1.06598e-06
5.87845e-06
-6.30351e-09
-6.31143e-05
-1.63394e-07
-1.71694e-06
6.32046e-05
0.0002417
-0.000247189
3.53731e-06
-6.60622e-05
4.65965e-07
6.44849e-05
-8.69753e-08
-1.02618e-08
-3.41895e-09
6.56235e-08
-2.49144e-08
9.26612e-08
-1.59961e-07
-2.29761e-08
0.000254255
-0.000253283
-8.97534e-07
-5.21665e-06
-1.79637e-06
5.93123e-06
-1.39054e-06
0.000254951
-1.98428e-06
-1.79939e-06
-1.92909e-06
-3.10592e-06
0.000252878
2.17795e-06
-3.98977e-06
0.00104523
-0.000257253
-0.000253495
-0.000255133
-0.000256976
-9.43433e-06
-5.88063e-06
-9.24604e-06
-6.66081e-06
-4.03819e-06
-1.84116e-06
-4.04199e-06
-2.65506e-06
-1.33118e-05
-7.02321e-06
0.000267558
9.21002e-06
-0.000260726
4.29297e-06
-2.82936e-06
-6.29089e-07
0.000252039
-1.48815e-06
-8.96783e-07
8.36428e-07
1.93502e-06
6.474e-05
-5.16198e-06
0.000256813
-0.00025644
5.87525e-06
-1.10634e-06
-6.31136e-05
-1.71683e-06
-1.74814e-07
6.32026e-05
-1.13805e-05
0.000241661
-0.000247156
3.56444e-06
-2.49645e-07