/*--------------------------------*- C++ -*----------------------------------*\
| =========                 |                                                 |
| \\      /  F ield         | OpenFOAM: The Open Source CFD Toolbox           |
|  \\    /   O peration     | Version:  v2012                                 |
|   \\  /    A nd           | Website:  www.openfoam.com                      |
|    \\/     M anipulation  |                                                 |
\*---------------------------------------------------------------------------*/
FoamFile
{
    version     2.0;
    format      ascii;
    class       volScalarField;
    location    "0.125";
    object      p;
}
// * * * * * * * * * * * * * * * * * * * * * * * * * * * * * * * * * * * * * //

dimensions      [0 2 -2 0 0 0 0];


internalField   nonuniform List<scalar> 
247104
(
1.96619e-06
1.96688e-06
1.96683e-06
1.9666e-06
1.96635e-06
1.96665e-06
1.96684e-06
1.96681e-06
1.96688e-06
1.96695e-06
1.96699e-06
1.96675e-06
1.96658e-06
1.96678e-06
1.967e-06
1.96692e-06
1.96683e-06
1.96699e-06
1.96671e-06
1.9663e-06
1.96614e-06
1.96635e-06
1.96676e-06
1.96699e-06
1.96679e-06
1.96661e-06
1.96675e-06
1.9663e-06
1.96582e-06
1.96564e-06
1.96587e-06
1.96637e-06
1.96677e-06
1.96654e-06
1.9662e-06
1.96636e-06
1.96659e-06
1.96614e-06
1.96564e-06
1.96546e-06
1.96569e-06
1.96621e-06
1.96661e-06
1.96627e-06
1.96665e-06
1.96678e-06
1.96635e-06
1.96587e-06
1.96569e-06
1.96592e-06
1.96641e-06
1.96681e-06
1.96659e-06
1.96684e-06
1.967e-06
1.96676e-06
1.96637e-06
1.96621e-06
1.96641e-06
1.9668e-06
1.967e-06
1.96681e-06
1.96681e-06
1.96692e-06
1.96699e-06
1.96677e-06
1.96661e-06
1.96681e-06
1.967e-06
1.96689e-06
1.96679e-06
1.96654e-06
1.96627e-06
1.96659e-06
1.96681e-06
1.93242e-06
1.93032e-06
1.93063e-06
1.92947e-06
1.929e-06
1.929e-06
1.92896e-06
1.93098e-06
1.93122e-06
1.93063e-06
1.92846e-06
1.92513e-06
1.92492e-06
1.92492e-06
1.92513e-06
1.92887e-06
1.92909e-06
1.92947e-06
1.92513e-06
1.92502e-06
1.92503e-06
1.92503e-06
1.92503e-06
1.92513e-06
1.92941e-06
1.93046e-06
1.93242e-06
1.929e-06
1.92492e-06
1.92503e-06
1.92515e-06
1.92515e-06
1.92503e-06
1.92492e-06
1.92908e-06
1.93111e-06
1.93031e-06
1.929e-06
1.92492e-06
1.92503e-06
1.92515e-06
1.92515e-06
1.92503e-06
1.92492e-06
1.92919e-06
1.92878e-06
1.92896e-06
1.92513e-06
1.92502e-06
1.92503e-06
1.92503e-06
1.92503e-06
1.92513e-06
1.92915e-06
1.93006e-06
1.93098e-06
1.92886e-06
1.92513e-06
1.92492e-06
1.92492e-06
1.92513e-06
1.92886e-06
1.92937e-06
1.93102e-06
1.93121e-06
1.92909e-06
1.92941e-06
1.92908e-06
1.92919e-06
1.92915e-06
1.92937e-06
1.93222e-06
1.93046e-06
1.93111e-06
1.92878e-06
1.93006e-06
1.931e-06
1.91228e-06
1.91208e-06
1.9119e-06
1.90966e-06
1.90963e-06
1.90964e-06
1.90965e-06
1.91215e-06
1.91221e-06
1.9119e-06
1.90907e-06
1.90588e-06
1.90565e-06
1.90565e-06
1.90587e-06
1.91003e-06
1.91013e-06
1.90966e-06
1.90587e-06
1.90536e-06
1.90534e-06
1.90534e-06
1.90536e-06
1.90588e-06
1.91079e-06
1.91273e-06
1.91229e-06
1.90963e-06
1.90565e-06
1.90534e-06
1.90534e-06
1.90534e-06
1.90534e-06
1.90566e-06
1.91072e-06
1.91223e-06
1.91208e-06
1.90964e-06
1.90565e-06
1.90534e-06
1.90534e-06
1.90534e-06
1.90534e-06
1.90566e-06
1.9106e-06
1.91e-06
1.90965e-06
1.90587e-06
1.90536e-06
1.90534e-06
1.90534e-06
1.90536e-06
1.90588e-06
1.91082e-06
1.91265e-06
1.91215e-06
1.91003e-06
1.90588e-06
1.90565e-06
1.90565e-06
1.90587e-06
1.91053e-06
1.91051e-06
1.91259e-06
1.91221e-06
1.91013e-06
1.91079e-06
1.91072e-06
1.91059e-06
1.91081e-06
1.9105e-06
1.91271e-06
1.91273e-06
1.91222e-06
1.91e-06
1.91266e-06
1.91259e-06
1.8921e-06
1.89192e-06
1.89187e-06
1.88948e-06
1.88949e-06
1.88938e-06
1.88957e-06
1.8921e-06
1.89216e-06
1.89187e-06
1.88855e-06
1.88558e-06
1.88551e-06
1.88551e-06
1.88558e-06
1.88978e-06
1.89021e-06
1.88948e-06
1.88558e-06
1.88539e-06
1.88538e-06
1.88538e-06
1.88539e-06
1.88559e-06
1.89079e-06
1.89262e-06
1.89209e-06
1.88949e-06
1.8855e-06
1.88538e-06
1.88537e-06
1.88537e-06
1.88538e-06
1.88551e-06
1.8909e-06
1.89202e-06
1.89192e-06
1.88938e-06
1.8855e-06
1.88538e-06
1.88537e-06
1.88537e-06
1.88538e-06
1.88551e-06
1.89081e-06
1.89e-06
1.88957e-06
1.88558e-06
1.88539e-06
1.88538e-06
1.88538e-06
1.88539e-06
1.88558e-06
1.89091e-06
1.89245e-06
1.8921e-06
1.88978e-06
1.88558e-06
1.88551e-06
1.88551e-06
1.88558e-06
1.89077e-06
1.89055e-06
1.89255e-06
1.89217e-06
1.89019e-06
1.89079e-06
1.89089e-06
1.89081e-06
1.8909e-06
1.89055e-06
1.89247e-06
1.89262e-06
1.89201e-06
1.89e-06
1.89245e-06
1.89255e-06
1.87196e-06
1.87182e-06
1.87166e-06
1.86923e-06
1.86923e-06
1.86903e-06
1.86933e-06
1.87189e-06
1.87199e-06
1.87167e-06
1.86808e-06
1.86523e-06
1.86521e-06
1.86521e-06
1.86523e-06
1.86939e-06
1.87003e-06
1.86922e-06
1.86523e-06
1.86518e-06
1.86517e-06
1.86517e-06
1.86518e-06
1.86523e-06
1.87064e-06
1.87248e-06
1.87197e-06
1.86922e-06
1.86521e-06
1.86517e-06
1.86517e-06
1.86517e-06
1.86517e-06
1.86521e-06
1.87089e-06
1.87196e-06
1.87182e-06
1.86903e-06
1.8652e-06
1.86517e-06
1.86517e-06
1.86517e-06
1.86517e-06
1.86521e-06
1.87082e-06
1.86996e-06
1.86933e-06
1.86523e-06
1.86518e-06
1.86517e-06
1.86517e-06
1.86518e-06
1.86523e-06
1.87083e-06
1.87238e-06
1.87189e-06
1.86939e-06
1.86523e-06
1.86521e-06
1.86521e-06
1.86523e-06
1.87073e-06
1.87041e-06
1.87239e-06
1.87198e-06
1.87004e-06
1.87065e-06
1.87089e-06
1.87082e-06
1.87082e-06
1.87041e-06
1.87233e-06
1.87248e-06
1.87195e-06
1.86997e-06
1.87238e-06
1.8724e-06
1.85175e-06
1.85161e-06
1.85141e-06
1.84896e-06
1.84897e-06
1.84873e-06
1.84906e-06
1.85164e-06
1.85173e-06
1.85141e-06
1.84776e-06
1.84493e-06
1.84492e-06
1.84492e-06
1.84493e-06
1.84907e-06
1.84979e-06
1.84896e-06
1.84493e-06
1.84492e-06
1.84491e-06
1.84491e-06
1.84492e-06
1.84493e-06
1.85041e-06
1.85224e-06
1.85176e-06
1.84896e-06
1.84492e-06
1.84491e-06
1.84491e-06
1.84491e-06
1.84491e-06
1.84492e-06
1.8507e-06
1.85175e-06
1.8516e-06
1.84873e-06
1.84492e-06
1.84491e-06
1.84491e-06
1.84491e-06
1.84491e-06
1.84492e-06
1.85064e-06
1.84977e-06
1.84906e-06
1.84493e-06
1.84492e-06
1.84491e-06
1.84491e-06
1.84491e-06
1.84493e-06
1.8506e-06
1.85217e-06
1.85164e-06
1.84907e-06
1.84493e-06
1.84492e-06
1.84492e-06
1.84493e-06
1.85054e-06
1.85018e-06
1.85216e-06
1.85173e-06
1.8498e-06
1.85041e-06
1.8507e-06
1.85064e-06
1.85061e-06
1.85018e-06
1.8521e-06
1.85224e-06
1.85176e-06
1.84978e-06
1.85217e-06
1.85216e-06
1.83149e-06
1.83136e-06
1.83114e-06
1.82868e-06
1.82869e-06
1.82844e-06
1.82879e-06
1.83137e-06
1.83147e-06
1.83114e-06
1.82747e-06
1.82465e-06
1.82464e-06
1.82464e-06
1.82465e-06
1.82878e-06
1.82953e-06
1.82868e-06
1.82465e-06
1.82464e-06
1.82464e-06
1.82464e-06
1.82464e-06
1.82465e-06
1.83014e-06
1.83198e-06
1.8315e-06
1.82869e-06
1.82465e-06
1.82464e-06
1.82464e-06
1.82464e-06
1.82464e-06
1.82464e-06
1.83045e-06
1.8315e-06
1.83135e-06
1.82844e-06
1.82465e-06
1.82464e-06
1.82464e-06
1.82464e-06
1.82464e-06
1.82464e-06
1.8304e-06
1.82953e-06
1.82879e-06
1.82465e-06
1.82464e-06
1.82464e-06
1.82464e-06
1.82464e-06
1.82465e-06
1.83035e-06
1.83192e-06
1.83137e-06
1.82878e-06
1.82465e-06
1.82464e-06
1.82464e-06
1.82465e-06
1.83029e-06
1.82992e-06
1.83189e-06
1.83146e-06
1.82953e-06
1.83015e-06
1.83045e-06
1.8304e-06
1.83035e-06
1.82992e-06
1.83181e-06
1.83198e-06
1.8315e-06
1.82953e-06
1.83191e-06
1.83189e-06
1.81122e-06
1.81109e-06
1.81087e-06
1.80841e-06
1.80842e-06
1.80817e-06
1.80851e-06
1.8111e-06
1.81119e-06
1.81087e-06
1.80719e-06
1.80437e-06
1.80437e-06
1.80437e-06
1.80437e-06
1.80849e-06
1.80926e-06
1.80841e-06
1.80437e-06
1.80437e-06
1.80437e-06
1.80437e-06
1.80437e-06
1.80437e-06
1.80987e-06
1.81171e-06
1.81123e-06
1.80842e-06
1.80437e-06
1.80437e-06
1.80437e-06
1.80437e-06
1.80437e-06
1.80437e-06
1.81018e-06
1.81123e-06
1.81108e-06
1.80817e-06
1.80437e-06
1.80437e-06
1.80437e-06
1.80437e-06
1.80437e-06
1.80437e-06
1.81013e-06
1.80926e-06
1.80851e-06
1.80437e-06
1.80437e-06
1.80437e-06
1.80437e-06
1.80437e-06
1.80437e-06
1.81007e-06
1.81165e-06
1.8111e-06
1.8085e-06
1.80437e-06
1.80437e-06
1.80437e-06
1.80437e-06
1.81002e-06
1.80965e-06
1.81162e-06
1.81119e-06
1.80925e-06
1.80987e-06
1.81018e-06
1.81013e-06
1.81008e-06
1.80965e-06
1.81154e-06
1.81171e-06
1.81123e-06
1.80926e-06
1.81164e-06
1.81162e-06
1.79095e-06
1.79081e-06
1.79059e-06
1.78813e-06
1.78815e-06
1.78789e-06
1.78824e-06
1.79082e-06
1.79092e-06
1.79059e-06
1.78692e-06
1.7841e-06
1.78409e-06
1.7841e-06
1.7841e-06
1.78822e-06
1.78898e-06
1.78813e-06
1.7841e-06
1.7841e-06
1.78409e-06
1.7841e-06
1.78409e-06
1.78409e-06
1.7896e-06
1.79143e-06
1.79096e-06
1.78814e-06
1.78409e-06
1.7841e-06
1.7841e-06
1.7841e-06
1.7841e-06
1.78409e-06
1.78991e-06
1.79096e-06
1.79081e-06
1.78789e-06
1.7841e-06
1.7841e-06
1.7841e-06
1.7841e-06
1.7841e-06
1.7841e-06
1.78986e-06
1.78899e-06
1.78824e-06
1.78409e-06
1.7841e-06
1.7841e-06
1.7841e-06
1.7841e-06
1.7841e-06
1.7898e-06
1.79138e-06
1.79082e-06
1.78822e-06
1.7841e-06
1.7841e-06
1.7841e-06
1.7841e-06
1.78976e-06
1.78938e-06
1.79134e-06
1.79091e-06
1.78898e-06
1.7896e-06
1.78991e-06
1.78986e-06
1.78981e-06
1.78938e-06
1.79127e-06
1.79144e-06
1.79096e-06
1.78899e-06
1.79137e-06
1.79135e-06
1.77068e-06
1.77054e-06
1.77032e-06
1.76786e-06
1.76787e-06
1.76762e-06
1.76796e-06
1.77055e-06
1.77064e-06
1.77032e-06
1.76665e-06
1.76382e-06
1.76382e-06
1.76382e-06
1.76382e-06
1.76794e-06
1.76871e-06
1.76786e-06
1.76382e-06
1.76382e-06
1.76382e-06
1.76382e-06
1.76382e-06
1.76382e-06
1.76932e-06
1.77116e-06
1.77068e-06
1.76787e-06
1.76382e-06
1.76382e-06
1.76382e-06
1.76382e-06
1.76382e-06
1.76382e-06
1.76963e-06
1.77069e-06
1.77053e-06
1.76762e-06
1.76382e-06
1.76382e-06
1.76382e-06
1.76382e-06
1.76382e-06
1.76382e-06
1.76959e-06
1.76871e-06
1.76796e-06
1.76382e-06
1.76382e-06
1.76382e-06
1.76382e-06
1.76382e-06
1.76382e-06
1.76953e-06
1.7711e-06
1.77055e-06
1.76795e-06
1.76382e-06
1.76382e-06
1.76382e-06
1.76382e-06
1.76949e-06
1.76911e-06
1.77107e-06
1.77064e-06
1.76871e-06
1.76933e-06
1.76963e-06
1.76959e-06
1.76953e-06
1.76911e-06
1.77099e-06
1.77116e-06
1.77069e-06
1.76871e-06
1.7711e-06
1.77108e-06
1.7504e-06
1.75027e-06
1.75005e-06
1.74759e-06
1.7476e-06
1.74734e-06
1.74769e-06
1.75028e-06
1.75038e-06
1.75005e-06
1.74637e-06
1.74355e-06
1.74355e-06
1.74355e-06
1.74355e-06
1.74767e-06
1.74843e-06
1.74759e-06
1.74355e-06
1.74355e-06
1.74355e-06
1.74355e-06
1.74355e-06
1.74355e-06
1.74905e-06
1.75089e-06
1.75041e-06
1.74759e-06
1.74355e-06
1.74355e-06
1.74355e-06
1.74355e-06
1.74355e-06
1.74355e-06
1.74936e-06
1.75041e-06
1.75026e-06
1.74734e-06
1.74355e-06
1.74355e-06
1.74355e-06
1.74355e-06
1.74355e-06
1.74355e-06
1.74931e-06
1.74844e-06
1.74769e-06
1.74355e-06
1.74355e-06
1.74355e-06
1.74355e-06
1.74355e-06
1.74355e-06
1.74925e-06
1.75083e-06
1.75027e-06
1.74767e-06
1.74355e-06
1.74355e-06
1.74355e-06
1.74355e-06
1.74921e-06
1.74883e-06
1.75079e-06
1.75037e-06
1.74843e-06
1.74905e-06
1.74936e-06
1.74931e-06
1.74926e-06
1.74883e-06
1.75072e-06
1.75089e-06
1.75041e-06
1.74844e-06
1.75083e-06
1.7508e-06
1.73013e-06
1.72999e-06
1.72977e-06
1.72731e-06
1.72732e-06
1.72707e-06
1.72742e-06
1.73e-06
1.73009e-06
1.72977e-06
1.7261e-06
1.72327e-06
1.72327e-06
1.72327e-06
1.72327e-06
1.72739e-06
1.72816e-06
1.72731e-06
1.72327e-06
1.72327e-06
1.72327e-06
1.72327e-06
1.72327e-06
1.72327e-06
1.72878e-06
1.73061e-06
1.73013e-06
1.72732e-06
1.72327e-06
1.72327e-06
1.72327e-06
1.72327e-06
1.72327e-06
1.72327e-06
1.72908e-06
1.73014e-06
1.72998e-06
1.72707e-06
1.72327e-06
1.72327e-06
1.72327e-06
1.72327e-06
1.72327e-06
1.72327e-06
1.72904e-06
1.72817e-06
1.72741e-06
1.72327e-06
1.72327e-06
1.72327e-06
1.72327e-06
1.72327e-06
1.72327e-06
1.72898e-06
1.73055e-06
1.73e-06
1.7274e-06
1.72327e-06
1.72327e-06
1.72327e-06
1.72327e-06
1.72894e-06
1.72856e-06
1.73052e-06
1.73009e-06
1.72816e-06
1.72878e-06
1.72908e-06
1.72904e-06
1.72898e-06
1.72856e-06
1.73044e-06
1.73061e-06
1.73014e-06
1.72817e-06
1.73055e-06
1.73053e-06
1.70985e-06
1.70972e-06
1.7095e-06
1.70703e-06
1.70705e-06
1.70679e-06
1.70714e-06
1.70973e-06
1.70982e-06
1.7095e-06
1.70582e-06
1.703e-06
1.703e-06
1.703e-06
1.703e-06
1.70712e-06
1.70789e-06
1.70703e-06
1.703e-06
1.703e-06
1.703e-06
1.703e-06
1.703e-06
1.703e-06
1.7085e-06
1.71034e-06
1.70986e-06
1.70704e-06
1.703e-06
1.703e-06
1.703e-06
1.703e-06
1.703e-06
1.703e-06
1.70881e-06
1.70986e-06
1.70971e-06
1.70679e-06
1.703e-06
1.703e-06
1.703e-06
1.703e-06
1.703e-06
1.703e-06
1.70876e-06
1.70789e-06
1.70714e-06
1.703e-06
1.703e-06
1.703e-06
1.703e-06
1.703e-06
1.703e-06
1.7087e-06
1.71028e-06
1.70972e-06
1.70712e-06
1.703e-06
1.703e-06
1.703e-06
1.703e-06
1.70866e-06
1.70828e-06
1.71024e-06
1.70982e-06
1.70788e-06
1.7085e-06
1.70881e-06
1.70876e-06
1.70871e-06
1.70828e-06
1.71017e-06
1.71034e-06
1.70986e-06
1.70789e-06
1.71028e-06
1.71025e-06
1.68958e-06
1.68944e-06
1.68921e-06
1.68676e-06
1.68677e-06
1.68652e-06
1.68686e-06
1.68945e-06
1.68954e-06
1.68922e-06
1.68555e-06
1.68272e-06
1.68272e-06
1.68272e-06
1.68272e-06
1.68684e-06
1.68761e-06
1.68676e-06
1.68272e-06
1.68272e-06
1.68272e-06
1.68272e-06
1.68272e-06
1.68272e-06
1.68823e-06
1.69006e-06
1.68958e-06
1.68677e-06
1.68272e-06
1.68272e-06
1.68272e-06
1.68272e-06
1.68272e-06
1.68272e-06
1.68853e-06
1.68959e-06
1.68943e-06
1.68652e-06
1.68272e-06
1.68272e-06
1.68272e-06
1.68272e-06
1.68272e-06
1.68272e-06
1.68849e-06
1.68761e-06
1.68686e-06
1.68272e-06
1.68272e-06
1.68272e-06
1.68272e-06
1.68272e-06
1.68272e-06
1.68843e-06
1.69e-06
1.68945e-06
1.68685e-06
1.68272e-06
1.68272e-06
1.68272e-06
1.68272e-06
1.68839e-06
1.68801e-06
1.68997e-06
1.68954e-06
1.68761e-06
1.68823e-06
1.68853e-06
1.68849e-06
1.68843e-06
1.68801e-06
1.68989e-06
1.69006e-06
1.68959e-06
1.68761e-06
1.69e-06
1.68998e-06
1.6693e-06
1.66917e-06
1.66894e-06
1.66649e-06
1.6665e-06
1.66624e-06
1.66659e-06
1.66918e-06
1.66927e-06
1.66894e-06
1.66527e-06
1.66245e-06
1.66245e-06
1.66245e-06
1.66245e-06
1.66657e-06
1.66733e-06
1.66648e-06
1.66245e-06
1.66245e-06
1.66245e-06
1.66245e-06
1.66245e-06
1.66245e-06
1.66795e-06
1.66979e-06
1.66931e-06
1.66649e-06
1.66245e-06
1.66245e-06
1.66245e-06
1.66245e-06
1.66245e-06
1.66245e-06
1.66826e-06
1.66931e-06
1.66916e-06
1.66624e-06
1.66245e-06
1.66245e-06
1.66245e-06
1.66245e-06
1.66245e-06
1.66245e-06
1.66821e-06
1.66734e-06
1.66659e-06
1.66245e-06
1.66245e-06
1.66245e-06
1.66245e-06
1.66245e-06
1.66245e-06
1.66815e-06
1.66973e-06
1.66917e-06
1.66657e-06
1.66245e-06
1.66245e-06
1.66245e-06
1.66245e-06
1.66811e-06
1.66773e-06
1.66969e-06
1.66927e-06
1.66733e-06
1.66795e-06
1.66826e-06
1.66821e-06
1.66816e-06
1.66773e-06
1.66962e-06
1.66979e-06
1.66931e-06
1.66734e-06
1.66973e-06
1.6697e-06
1.64903e-06
1.64889e-06
1.64866e-06
1.64621e-06
1.64622e-06
1.64597e-06
1.64631e-06
1.6489e-06
1.64899e-06
1.64867e-06
1.645e-06
1.64217e-06
1.64217e-06
1.64217e-06
1.64217e-06
1.64629e-06
1.64706e-06
1.64621e-06
1.64217e-06
1.64217e-06
1.64217e-06
1.64217e-06
1.64217e-06
1.64217e-06
1.64768e-06
1.64951e-06
1.64903e-06
1.64622e-06
1.64217e-06
1.64217e-06
1.64217e-06
1.64217e-06
1.64217e-06
1.64217e-06
1.64798e-06
1.64904e-06
1.64888e-06
1.64597e-06
1.64217e-06
1.64217e-06
1.64217e-06
1.64217e-06
1.64217e-06
1.64217e-06
1.64794e-06
1.64706e-06
1.64631e-06
1.64217e-06
1.64217e-06
1.64217e-06
1.64217e-06
1.64217e-06
1.64217e-06
1.64788e-06
1.64945e-06
1.6489e-06
1.6463e-06
1.64217e-06
1.64217e-06
1.64217e-06
1.64217e-06
1.64784e-06
1.64746e-06
1.64942e-06
1.64899e-06
1.64706e-06
1.64768e-06
1.64798e-06
1.64794e-06
1.64788e-06
1.64746e-06
1.64934e-06
1.64951e-06
1.64904e-06
1.64706e-06
1.64945e-06
1.64943e-06
1.62875e-06
1.62862e-06
1.62839e-06
1.62593e-06
1.62595e-06
1.62569e-06
1.62604e-06
1.62863e-06
1.62872e-06
1.62839e-06
1.62472e-06
1.6219e-06
1.62189e-06
1.6219e-06
1.6219e-06
1.62602e-06
1.62678e-06
1.62593e-06
1.62189e-06
1.6219e-06
1.62189e-06
1.6219e-06
1.6219e-06
1.6219e-06
1.6274e-06
1.62924e-06
1.62876e-06
1.62594e-06
1.6219e-06
1.6219e-06
1.6219e-06
1.6219e-06
1.6219e-06
1.6219e-06
1.62771e-06
1.62876e-06
1.62861e-06
1.62569e-06
1.6219e-06
1.6219e-06
1.6219e-06
1.6219e-06
1.6219e-06
1.6219e-06
1.62766e-06
1.62679e-06
1.62604e-06
1.6219e-06
1.6219e-06
1.6219e-06
1.6219e-06
1.6219e-06
1.6219e-06
1.6276e-06
1.62918e-06
1.62862e-06
1.62602e-06
1.6219e-06
1.6219e-06
1.6219e-06
1.6219e-06
1.62756e-06
1.62718e-06
1.62914e-06
1.62872e-06
1.62678e-06
1.6274e-06
1.62771e-06
1.62766e-06
1.62761e-06
1.62718e-06
1.62907e-06
1.62924e-06
1.62876e-06
1.62679e-06
1.62918e-06
1.62915e-06
1.60848e-06
1.60834e-06
1.60811e-06
1.60566e-06
1.60567e-06
1.60542e-06
1.60576e-06
1.60835e-06
1.60844e-06
1.60812e-06
1.60444e-06
1.60162e-06
1.60162e-06
1.60162e-06
1.60162e-06
1.60575e-06
1.60651e-06
1.60566e-06
1.60162e-06
1.60162e-06
1.60162e-06
1.60162e-06
1.60162e-06
1.60162e-06
1.60712e-06
1.60896e-06
1.60848e-06
1.60567e-06
1.60162e-06
1.60162e-06
1.60162e-06
1.60162e-06
1.60162e-06
1.60162e-06
1.60743e-06
1.60849e-06
1.60833e-06
1.60542e-06
1.60162e-06
1.60162e-06
1.60162e-06
1.60162e-06
1.60162e-06
1.60162e-06
1.60739e-06
1.60651e-06
1.60576e-06
1.60162e-06
1.60162e-06
1.60162e-06
1.60162e-06
1.60162e-06
1.60162e-06
1.60733e-06
1.6089e-06
1.60835e-06
1.60575e-06
1.60162e-06
1.60162e-06
1.60162e-06
1.60162e-06
1.60728e-06
1.60691e-06
1.60887e-06
1.60844e-06
1.60651e-06
1.60712e-06
1.60743e-06
1.60739e-06
1.60733e-06
1.60691e-06
1.60879e-06
1.60896e-06
1.60849e-06
1.60651e-06
1.6089e-06
1.60888e-06
1.5882e-06
1.58806e-06
1.58783e-06
1.58538e-06
1.58539e-06
1.58514e-06
1.58549e-06
1.58807e-06
1.58816e-06
1.58784e-06
1.58417e-06
1.58134e-06
1.58134e-06
1.58134e-06
1.58134e-06
1.58547e-06
1.58623e-06
1.58538e-06
1.58134e-06
1.58134e-06
1.58134e-06
1.58134e-06
1.58134e-06
1.58134e-06
1.58685e-06
1.58868e-06
1.5882e-06
1.58539e-06
1.58134e-06
1.58134e-06
1.58134e-06
1.58134e-06
1.58134e-06
1.58134e-06
1.58716e-06
1.58821e-06
1.58806e-06
1.58514e-06
1.58134e-06
1.58134e-06
1.58134e-06
1.58134e-06
1.58134e-06
1.58134e-06
1.58711e-06
1.58624e-06
1.58548e-06
1.58134e-06
1.58134e-06
1.58134e-06
1.58134e-06
1.58134e-06
1.58134e-06
1.58705e-06
1.58862e-06
1.58807e-06
1.58547e-06
1.58134e-06
1.58134e-06
1.58134e-06
1.58134e-06
1.58701e-06
1.58663e-06
1.58859e-06
1.58816e-06
1.58623e-06
1.58685e-06
1.58715e-06
1.58711e-06
1.58705e-06
1.58663e-06
1.58851e-06
1.58869e-06
1.58821e-06
1.58623e-06
1.58862e-06
1.5886e-06
1.56792e-06
1.56778e-06
1.56756e-06
1.5651e-06
1.56511e-06
1.56486e-06
1.56521e-06
1.56779e-06
1.56789e-06
1.56756e-06
1.56389e-06
1.56106e-06
1.56106e-06
1.56106e-06
1.56106e-06
1.56519e-06
1.56595e-06
1.5651e-06
1.56106e-06
1.56106e-06
1.56106e-06
1.56106e-06
1.56106e-06
1.56106e-06
1.56657e-06
1.56841e-06
1.56793e-06
1.56511e-06
1.56106e-06
1.56106e-06
1.56106e-06
1.56106e-06
1.56106e-06
1.56106e-06
1.56688e-06
1.56793e-06
1.56778e-06
1.56486e-06
1.56106e-06
1.56106e-06
1.56106e-06
1.56106e-06
1.56106e-06
1.56106e-06
1.56683e-06
1.56596e-06
1.56521e-06
1.56106e-06
1.56106e-06
1.56106e-06
1.56106e-06
1.56106e-06
1.56106e-06
1.56677e-06
1.56835e-06
1.56779e-06
1.56519e-06
1.56106e-06
1.56106e-06
1.56106e-06
1.56106e-06
1.56673e-06
1.56635e-06
1.56831e-06
1.56788e-06
1.56595e-06
1.56657e-06
1.56688e-06
1.56683e-06
1.56678e-06
1.56635e-06
1.56824e-06
1.56841e-06
1.56793e-06
1.56596e-06
1.56834e-06
1.56832e-06
1.54765e-06
1.54751e-06
1.54728e-06
1.54483e-06
1.54484e-06
1.54459e-06
1.54493e-06
1.54752e-06
1.54761e-06
1.54729e-06
1.54361e-06
1.54079e-06
1.54079e-06
1.54079e-06
1.54079e-06
1.54492e-06
1.54568e-06
1.54483e-06
1.54079e-06
1.54079e-06
1.54079e-06
1.54079e-06
1.54079e-06
1.54079e-06
1.54629e-06
1.54813e-06
1.54765e-06
1.54484e-06
1.54079e-06
1.54079e-06
1.54079e-06
1.54079e-06
1.54079e-06
1.54079e-06
1.5466e-06
1.54766e-06
1.5475e-06
1.54459e-06
1.54079e-06
1.54079e-06
1.54079e-06
1.54079e-06
1.54079e-06
1.54079e-06
1.54655e-06
1.54568e-06
1.54493e-06
1.54079e-06
1.54079e-06
1.54079e-06
1.54079e-06
1.54079e-06
1.54079e-06
1.5465e-06
1.54807e-06
1.54751e-06
1.54491e-06
1.54079e-06
1.54079e-06
1.54079e-06
1.54079e-06
1.54645e-06
1.54608e-06
1.54804e-06
1.54761e-06
1.54567e-06
1.54629e-06
1.5466e-06
1.54655e-06
1.5465e-06
1.54608e-06
1.54796e-06
1.54813e-06
1.54766e-06
1.54568e-06
1.54807e-06
1.54805e-06
1.52737e-06
1.52723e-06
1.527e-06
1.52455e-06
1.52456e-06
1.52431e-06
1.52466e-06
1.52724e-06
1.52733e-06
1.52701e-06
1.52334e-06
1.52051e-06
1.52051e-06
1.52051e-06
1.52051e-06
1.52464e-06
1.5254e-06
1.52455e-06
1.52051e-06
1.52051e-06
1.52051e-06
1.52051e-06
1.52051e-06
1.52051e-06
1.52602e-06
1.52785e-06
1.52737e-06
1.52456e-06
1.52051e-06
1.52051e-06
1.52051e-06
1.52051e-06
1.52051e-06
1.52051e-06
1.52632e-06
1.52738e-06
1.52722e-06
1.52431e-06
1.52051e-06
1.52051e-06
1.52051e-06
1.52051e-06
1.52051e-06
1.52051e-06
1.52628e-06
1.5254e-06
1.52465e-06
1.52051e-06
1.52051e-06
1.52051e-06
1.52051e-06
1.52051e-06
1.52051e-06
1.52622e-06
1.52779e-06
1.52724e-06
1.52464e-06
1.52051e-06
1.52051e-06
1.52051e-06
1.52051e-06
1.52618e-06
1.5258e-06
1.52776e-06
1.52733e-06
1.5254e-06
1.52602e-06
1.52632e-06
1.52628e-06
1.52622e-06
1.5258e-06
1.52768e-06
1.52786e-06
1.52738e-06
1.52541e-06
1.52779e-06
1.52777e-06
1.50709e-06
1.50695e-06
1.50673e-06
1.50427e-06
1.50428e-06
1.50403e-06
1.50438e-06
1.50696e-06
1.50706e-06
1.50673e-06
1.50306e-06
1.50023e-06
1.50023e-06
1.50023e-06
1.50023e-06
1.50436e-06
1.50512e-06
1.50427e-06
1.50023e-06
1.50023e-06
1.50023e-06
1.50023e-06
1.50023e-06
1.50023e-06
1.50574e-06
1.50757e-06
1.5071e-06
1.50428e-06
1.50023e-06
1.50023e-06
1.50023e-06
1.50023e-06
1.50023e-06
1.50023e-06
1.50605e-06
1.5071e-06
1.50695e-06
1.50403e-06
1.50023e-06
1.50023e-06
1.50023e-06
1.50023e-06
1.50023e-06
1.50023e-06
1.506e-06
1.50513e-06
1.50437e-06
1.50023e-06
1.50023e-06
1.50023e-06
1.50023e-06
1.50023e-06
1.50023e-06
1.50594e-06
1.50752e-06
1.50696e-06
1.50436e-06
1.50023e-06
1.50023e-06
1.50023e-06
1.50023e-06
1.5059e-06
1.50552e-06
1.50748e-06
1.50705e-06
1.50512e-06
1.50574e-06
1.50605e-06
1.506e-06
1.50594e-06
1.50552e-06
1.50741e-06
1.50758e-06
1.5071e-06
1.50513e-06
1.50751e-06
1.50749e-06
1.48681e-06
1.48668e-06
1.48645e-06
1.48399e-06
1.484e-06
1.48375e-06
1.4841e-06
1.48668e-06
1.48678e-06
1.48645e-06
1.48278e-06
1.47995e-06
1.47995e-06
1.47996e-06
1.47996e-06
1.48408e-06
1.48484e-06
1.48399e-06
1.47995e-06
1.47996e-06
1.47996e-06
1.47996e-06
1.47996e-06
1.47996e-06
1.48546e-06
1.4873e-06
1.48682e-06
1.484e-06
1.47996e-06
1.47996e-06
1.47996e-06
1.47996e-06
1.47996e-06
1.47996e-06
1.48577e-06
1.48682e-06
1.48667e-06
1.48375e-06
1.47996e-06
1.47996e-06
1.47996e-06
1.47996e-06
1.47996e-06
1.47996e-06
1.48572e-06
1.48485e-06
1.4841e-06
1.47996e-06
1.47996e-06
1.47996e-06
1.47996e-06
1.47996e-06
1.47996e-06
1.48566e-06
1.48724e-06
1.48668e-06
1.48408e-06
1.47996e-06
1.47996e-06
1.47996e-06
1.47996e-06
1.48562e-06
1.48524e-06
1.4872e-06
1.48678e-06
1.48484e-06
1.48546e-06
1.48577e-06
1.48572e-06
1.48567e-06
1.48524e-06
1.48713e-06
1.4873e-06
1.48682e-06
1.48485e-06
1.48724e-06
1.48721e-06
1.46654e-06
1.4664e-06
1.46617e-06
1.46372e-06
1.46373e-06
1.46347e-06
1.46382e-06
1.46641e-06
1.4665e-06
1.46618e-06
1.4625e-06
1.45968e-06
1.45968e-06
1.45968e-06
1.45968e-06
1.4638e-06
1.46457e-06
1.46372e-06
1.45968e-06
1.45968e-06
1.45968e-06
1.45968e-06
1.45968e-06
1.45968e-06
1.46518e-06
1.46702e-06
1.46654e-06
1.46373e-06
1.45968e-06
1.45968e-06
1.45968e-06
1.45968e-06
1.45968e-06
1.45968e-06
1.46549e-06
1.46655e-06
1.46639e-06
1.46348e-06
1.45968e-06
1.45968e-06
1.45968e-06
1.45968e-06
1.45968e-06
1.45968e-06
1.46544e-06
1.46457e-06
1.46382e-06
1.45968e-06
1.45968e-06
1.45968e-06
1.45968e-06
1.45968e-06
1.45968e-06
1.46539e-06
1.46696e-06
1.4664e-06
1.4638e-06
1.45968e-06
1.45968e-06
1.45968e-06
1.45968e-06
1.46534e-06
1.46497e-06
1.46693e-06
1.4665e-06
1.46456e-06
1.46518e-06
1.46549e-06
1.46544e-06
1.46539e-06
1.46497e-06
1.46685e-06
1.46702e-06
1.46655e-06
1.46457e-06
1.46696e-06
1.46694e-06
1.44626e-06
1.44612e-06
1.44589e-06
1.44344e-06
1.44345e-06
1.4432e-06
1.44355e-06
1.44613e-06
1.44622e-06
1.4459e-06
1.44223e-06
1.4394e-06
1.4394e-06
1.4394e-06
1.4394e-06
1.44353e-06
1.44429e-06
1.44344e-06
1.4394e-06
1.4394e-06
1.4394e-06
1.4394e-06
1.4394e-06
1.4394e-06
1.44491e-06
1.44674e-06
1.44626e-06
1.44345e-06
1.4394e-06
1.4394e-06
1.4394e-06
1.4394e-06
1.4394e-06
1.4394e-06
1.44521e-06
1.44627e-06
1.44612e-06
1.4432e-06
1.4394e-06
1.4394e-06
1.4394e-06
1.4394e-06
1.4394e-06
1.4394e-06
1.44517e-06
1.4443e-06
1.44354e-06
1.4394e-06
1.4394e-06
1.4394e-06
1.4394e-06
1.4394e-06
1.4394e-06
1.44511e-06
1.44668e-06
1.44613e-06
1.44353e-06
1.4394e-06
1.4394e-06
1.4394e-06
1.4394e-06
1.44507e-06
1.44469e-06
1.44665e-06
1.44622e-06
1.44429e-06
1.44491e-06
1.44521e-06
1.44517e-06
1.44511e-06
1.44469e-06
1.44657e-06
1.44675e-06
1.44627e-06
1.4443e-06
1.44668e-06
1.44666e-06
1.42598e-06
1.42584e-06
1.42562e-06
1.42317e-06
1.42317e-06
1.42292e-06
1.42327e-06
1.42585e-06
1.42595e-06
1.42562e-06
1.42195e-06
1.41912e-06
1.41912e-06
1.41912e-06
1.41912e-06
1.42325e-06
1.42401e-06
1.42316e-06
1.41912e-06
1.41912e-06
1.41912e-06
1.41912e-06
1.41912e-06
1.41912e-06
1.42463e-06
1.42647e-06
1.42599e-06
1.42317e-06
1.41912e-06
1.41912e-06
1.41912e-06
1.41912e-06
1.41912e-06
1.41912e-06
1.42494e-06
1.42599e-06
1.42584e-06
1.42292e-06
1.41912e-06
1.41912e-06
1.41912e-06
1.41912e-06
1.41912e-06
1.41912e-06
1.42489e-06
1.42402e-06
1.42327e-06
1.41912e-06
1.41912e-06
1.41912e-06
1.41912e-06
1.41912e-06
1.41912e-06
1.42483e-06
1.42641e-06
1.42585e-06
1.42325e-06
1.41912e-06
1.41912e-06
1.41912e-06
1.41912e-06
1.42479e-06
1.42441e-06
1.42637e-06
1.42595e-06
1.42401e-06
1.42463e-06
1.42494e-06
1.42489e-06
1.42484e-06
1.42441e-06
1.4263e-06
1.42647e-06
1.42599e-06
1.42402e-06
1.4264e-06
1.42638e-06
1.4057e-06
1.40557e-06
1.40534e-06
1.40289e-06
1.4029e-06
1.40264e-06
1.40299e-06
1.40557e-06
1.40567e-06
1.40535e-06
1.40167e-06
1.39885e-06
1.39885e-06
1.39885e-06
1.39885e-06
1.40297e-06
1.40374e-06
1.40289e-06
1.39885e-06
1.39885e-06
1.39885e-06
1.39885e-06
1.39885e-06
1.39885e-06
1.40435e-06
1.40619e-06
1.40571e-06
1.4029e-06
1.39885e-06
1.39885e-06
1.39885e-06
1.39885e-06
1.39885e-06
1.39885e-06
1.40466e-06
1.40572e-06
1.40556e-06
1.40264e-06
1.39885e-06
1.39885e-06
1.39885e-06
1.39885e-06
1.39885e-06
1.39885e-06
1.40461e-06
1.40374e-06
1.40299e-06
1.39885e-06
1.39885e-06
1.39885e-06
1.39885e-06
1.39885e-06
1.39885e-06
1.40456e-06
1.40613e-06
1.40557e-06
1.40297e-06
1.39885e-06
1.39885e-06
1.39885e-06
1.39885e-06
1.40451e-06
1.40413e-06
1.4061e-06
1.40567e-06
1.40373e-06
1.40435e-06
1.40466e-06
1.40461e-06
1.40456e-06
1.40413e-06
1.40602e-06
1.40619e-06
1.40572e-06
1.40374e-06
1.40613e-06
1.4061e-06
1.38543e-06
1.38529e-06
1.38506e-06
1.38261e-06
1.38262e-06
1.38237e-06
1.38271e-06
1.3853e-06
1.38539e-06
1.38507e-06
1.38139e-06
1.37857e-06
1.37857e-06
1.37857e-06
1.37857e-06
1.3827e-06
1.38346e-06
1.38261e-06
1.37857e-06
1.37857e-06
1.37857e-06
1.37857e-06
1.37857e-06
1.37857e-06
1.38407e-06
1.38591e-06
1.38543e-06
1.38262e-06
1.37857e-06
1.37857e-06
1.37857e-06
1.37857e-06
1.37857e-06
1.37857e-06
1.38438e-06
1.38544e-06
1.38528e-06
1.38237e-06
1.37857e-06
1.37857e-06
1.37857e-06
1.37857e-06
1.37857e-06
1.37857e-06
1.38434e-06
1.38346e-06
1.38271e-06
1.37857e-06
1.37857e-06
1.37857e-06
1.37857e-06
1.37857e-06
1.37857e-06
1.38428e-06
1.38585e-06
1.3853e-06
1.38269e-06
1.37857e-06
1.37857e-06
1.37857e-06
1.37857e-06
1.38424e-06
1.38386e-06
1.38582e-06
1.38539e-06
1.38346e-06
1.38407e-06
1.38438e-06
1.38433e-06
1.38428e-06
1.38386e-06
1.38574e-06
1.38591e-06
1.38544e-06
1.38346e-06
1.38585e-06
1.38583e-06
1.36515e-06
1.36501e-06
1.36478e-06
1.36233e-06
1.36234e-06
1.36209e-06
1.36243e-06
1.36502e-06
1.36511e-06
1.36479e-06
1.36112e-06
1.35829e-06
1.35829e-06
1.35829e-06
1.35829e-06
1.36242e-06
1.36318e-06
1.36233e-06
1.35829e-06
1.35829e-06
1.35829e-06
1.35829e-06
1.35829e-06
1.35829e-06
1.3638e-06
1.36563e-06
1.36515e-06
1.36234e-06
1.35829e-06
1.35829e-06
1.35829e-06
1.35829e-06
1.35829e-06
1.35829e-06
1.3641e-06
1.36516e-06
1.365e-06
1.36209e-06
1.35829e-06
1.35829e-06
1.35829e-06
1.35829e-06
1.35829e-06
1.35829e-06
1.36406e-06
1.36318e-06
1.36243e-06
1.35829e-06
1.35829e-06
1.35829e-06
1.35829e-06
1.35829e-06
1.35829e-06
1.364e-06
1.36557e-06
1.36502e-06
1.36241e-06
1.35829e-06
1.35829e-06
1.35829e-06
1.35829e-06
1.36396e-06
1.36358e-06
1.36554e-06
1.36511e-06
1.36318e-06
1.3638e-06
1.3641e-06
1.36406e-06
1.364e-06
1.36358e-06
1.36546e-06
1.36564e-06
1.36516e-06
1.36319e-06
1.36557e-06
1.36555e-06
1.34487e-06
1.34473e-06
1.34451e-06
1.34205e-06
1.34206e-06
1.34181e-06
1.34216e-06
1.34474e-06
1.34483e-06
1.34451e-06
1.34084e-06
1.33801e-06
1.33801e-06
1.33801e-06
1.33801e-06
1.34214e-06
1.3429e-06
1.34205e-06
1.33801e-06
1.33801e-06
1.33801e-06
1.33801e-06
1.33801e-06
1.33801e-06
1.34352e-06
1.34535e-06
1.34488e-06
1.34206e-06
1.33801e-06
1.33801e-06
1.33801e-06
1.33801e-06
1.33801e-06
1.33801e-06
1.34383e-06
1.34488e-06
1.34473e-06
1.34181e-06
1.33801e-06
1.33801e-06
1.33801e-06
1.33801e-06
1.33801e-06
1.33801e-06
1.34378e-06
1.34291e-06
1.34215e-06
1.33801e-06
1.33801e-06
1.33801e-06
1.33801e-06
1.33801e-06
1.33801e-06
1.34372e-06
1.3453e-06
1.34474e-06
1.34214e-06
1.33801e-06
1.33801e-06
1.33801e-06
1.33801e-06
1.34368e-06
1.3433e-06
1.34526e-06
1.34483e-06
1.3429e-06
1.34352e-06
1.34382e-06
1.34378e-06
1.34372e-06
1.3433e-06
1.34519e-06
1.34536e-06
1.34488e-06
1.34291e-06
1.34529e-06
1.34527e-06
1.32459e-06
1.32446e-06
1.32423e-06
1.32178e-06
1.32179e-06
1.32153e-06
1.32188e-06
1.32447e-06
1.32456e-06
1.32424e-06
1.32056e-06
1.31774e-06
1.31774e-06
1.31774e-06
1.31774e-06
1.32187e-06
1.32263e-06
1.32178e-06
1.31774e-06
1.31774e-06
1.31774e-06
1.31774e-06
1.31774e-06
1.31774e-06
1.32324e-06
1.32508e-06
1.3246e-06
1.32179e-06
1.31774e-06
1.31774e-06
1.31774e-06
1.31774e-06
1.31774e-06
1.31774e-06
1.32355e-06
1.32461e-06
1.32445e-06
1.32153e-06
1.31774e-06
1.31774e-06
1.31774e-06
1.31774e-06
1.31774e-06
1.31774e-06
1.3235e-06
1.32263e-06
1.32188e-06
1.31774e-06
1.31774e-06
1.31774e-06
1.31774e-06
1.31774e-06
1.31774e-06
1.32345e-06
1.32502e-06
1.32446e-06
1.32186e-06
1.31774e-06
1.31774e-06
1.31774e-06
1.31774e-06
1.3234e-06
1.32302e-06
1.32499e-06
1.32456e-06
1.32262e-06
1.32324e-06
1.32355e-06
1.3235e-06
1.32345e-06