/*--------------------------------*- C++ -*----------------------------------*\
| =========                 |                                                 |
| \\      /  F ield         | OpenFOAM: The Open Source CFD Toolbox           |
|  \\    /   O peration     | Version:  v2006                                 |
|   \\  /    A nd           | Website:  www.openfoam.com                      |
|    \\/     M anipulation  |                                                 |
\*---------------------------------------------------------------------------*/
FoamFile
{
    version     2.0;
    format      ascii;
    class       surfaceScalarField;
    location    "875";
    object      phi;
}
// * * * * * * * * * * * * * * * * * * * * * * * * * * * * * * * * * * * * * //

dimensions      [0 3 -1 0 0 0 0];
oriented        oriented;


internalField   nonuniform List<scalar> 
41137
(
-1.50075e-06
3.90358e-07
0.00113932
7.99137e-07
1.14791e-06
-4.6791e-07
1.50468e-07
7.27315e-07
-5.22892e-07
5.56269e-08
-1.22315e-06
-0.00113888
1.50956e-06
1.47843e-06
0.000274389
-4.63284e-07
-4.71874e-07
-0.000276442
-8.04381e-07
-8.16791e-07
-0.0011525
4.2891e-07
4.40278e-07
0.00115325
-0.00114056
-1.50483e-06
4.28298e-07
0.00114097
-4.81691e-07
1.13093e-06
1.27556e-07
8.10261e-07
7.36443e-07
-5.07778e-07
-1.20874e-06
6.51515e-08
-1.50751e-06
4.68064e-07
-5.09429e-07
0.00114081
-0.00114044
-4.87939e-07
1.11486e-06
1.14749e-07
8.5366e-07
-1.20742e-06
7.29938e-07
6.02337e-08
-0.000276543
1.55219e-06
1.50025e-06
-4.9294e-07
-4.79638e-07
0.000274463
-7.8452e-07
-7.71492e-07
-0.00115543
4.0077e-07
4.2246e-07
0.00115617
-0.00114203
-1.49037e-06
8.16908e-07
4.5222e-07
0.00114239
-4.80202e-07
1.11863e-06
8.78283e-08
7.43959e-07
-4.875e-07
-1.19224e-06
8.02919e-08
-0.00114194
-1.45544e-06
7.61153e-07
3.44224e-07
0.00114227
-4.21802e-07
1.16283e-06
1.69741e-07
7.32023e-07
-4.91818e-07
-1.18927e-06
6.69417e-08
-0.000276445
1.49416e-06
1.45423e-06
-4.28954e-07
-4.38515e-07
0.000274364
-7.58237e-07
-7.66436e-07
-0.00115828
4.26756e-07
4.14419e-07
0.00115896
-0.00114338
-1.42949e-06
6.87373e-07
2.51923e-07
0.00114364
-3.4794e-07
1.20617e-06
2.55684e-07
7.3589e-07
-4.95401e-07
-1.18228e-06
5.72146e-08
-0.00114332
-1.44916e-06
7.01768e-07
2.987e-07
0.00114358
-4.06291e-07
1.17309e-06
1.90523e-07
7.57625e-07
-4.62946e-07
-1.15323e-06
9.0012e-08
-0.000276329
1.51047e-06
1.46601e-06
-4.36496e-07
-4.4775e-07
0.000274237
-7.12626e-07
-7.27433e-07
-0.00116109
3.94562e-07
3.81779e-07
0.00116176
-0.00114454
-1.5031e-06
7.91113e-07
5.00491e-07
0.00114484
-5.28137e-07
1.08441e-06
3.12031e-08
7.76812e-07
-4.30281e-07
-1.13907e-06
1.14886e-07
-0.00114442
-1.5161e-06
8.05661e-07
4.94459e-07
0.00114467
-4.92234e-07
1.1137e-06
1.40091e-07
7.48304e-07
-4.66564e-07
-1.1442e-06
6.05501e-08
-0.000276203
1.49089e-06
1.44229e-06
-4.19948e-07
-4.35981e-07
0.000274126
-7.04431e-07
-6.6153e-07
-0.00116365
3.31958e-07
3.86899e-07
0.0011643
-0.00114535
-1.4227e-06
7.1483e-07
3.25245e-07
0.00114546
-3.58654e-07
1.19078e-06
2.14215e-07
7.52101e-07
-4.60312e-07
-1.14397e-06
7.71907e-08
-0.00114522
-1.38813e-06
6.31423e-07
2.16543e-07
0.0011455
-3.8847e-07
1.18749e-06
1.41727e-07
7.62997e-07
-4.28554e-07
-1.13435e-06
1.18191e-07
-0.000276007
1.48174e-06
1.45198e-06
-4.17799e-07
-4.17599e-07
0.000273909
-7.14729e-07
-7.51444e-07
-0.00116625
4.4599e-07
4.00545e-07
0.00116687
-0.00114608
-1.44342e-06
6.5771e-07
3.60396e-07
0.00114628
-4.25412e-07
1.15052e-06
1.39272e-07
7.78525e-07
-4.20926e-07
-1.11099e-06
1.09451e-07
-0.00114613
-1.48512e-06
7.61926e-07
5.31362e-07
0.00114619
-4.46291e-07
1.11929e-06
1.39211e-07
7.67031e-07
-4.30076e-07
-1.1036e-06
8.74178e-08
-0.000275825
1.44688e-06
1.39295e-06
-3.69329e-07
-3.8813e-07
0.000273742
1.52961e-06
0.000274443
-4.7173e-07
-4.74248e-07
-0.000276528
-1.13137e-06
0.000276546
-1.17114e-06
-0.00027446
1.03413e-07
1.13056e-07
3.59089e-07
0.00113842
7.96247e-07
1.19335e-06
-4.56363e-07
1.7044e-07
7.26613e-07
-5.216e-07
5.44266e-08
-1.22123e-06
-0.00113801
-0.00114017
4.33365e-07
-1.50754e-06
1.30103e-07
-4.84154e-07
-1.20916e-06
6.61962e-08
7.37041e-07
-5.07013e-07
8.11828e-07
1.15825e-06
0.00113969
-0.00113927
4.22147e-07
-1.5292e-06
1.09664e-07
-4.93929e-07
-1.20725e-06
7.78785e-08
-5.02447e-07
7.40097e-07
8.03921e-07
-1.1159e-06
-0.000274467
1.02717e-07
9.51812e-08
1.54167e-06
1.49529e-06
-0.000276502
-4.65741e-07
-4.73868e-07
0.000274405
-1.19043e-06
-1.14509e-06
0.000276493
-0.000274398
1.15618e-07
1.24946e-07
-5.08891e-07
4.12831e-07
0.00114034
-0.00113995
-4.74349e-07
1.17486e-06
1.50729e-07
-1.20615e-06
7.3719e-07
6.14603e-08
-1.5349e-06
-5.07097e-07
4.14113e-07
0.00114051
-0.00114013
-4.83001e-07
1.17037e-06
1.3361e-07
8.41455e-07
-1.21351e-06
7.35219e-07
6.10517e-08
0.00114145
7.75879e-07
-0.00114109
3.6792e-07
-1.51635e-06
1.54715e-07
-4.58593e-07
-1.1976e-06
7.39231e-08
-4.92607e-07
7.46162e-07
1.18652e-06
0.00114156
7.6799e-07
-0.00114124
3.77156e-07
-1.50891e-06
1.52788e-07
-4.46706e-07
-1.19291e-06
7.88972e-08
-4.90145e-07
7.48598e-07
-4.71716e-07
-4.73334e-07
0.000274452
-1.15317e-06
0.000276492
-0.000274417
1.31151e-07
1.33991e-07
-5.0788e-07
3.90734e-07
0.00114135
-0.00114095
-4.62831e-07
1.13472e-06
1.4545e-07
-1.20524e-06
7.32851e-07
5.72546e-08
-1.54357e-06
4.75727e-07
-1.21216e-06
0.00114034
-0.00113997
-4.89478e-07
1.15387e-06
1.17951e-07
8.51239e-07
-5.11041e-07
7.31305e-07
5.90166e-08
0.00114246
7.70553e-07
-0.00114211
3.79209e-07
-1.47463e-06
1.44254e-07
-4.51737e-07
-1.19126e-06
7.17259e-08
-4.89398e-07
7.41135e-07
1.2006e-06
0.00114146
7.44261e-07
-0.00114112
3.31508e-07
-1.50269e-06
1.83925e-07
-4.30218e-07
-1.19188e-06
7.20502e-08
-4.9487e-07
7.4431e-07
4.72811e-07
0.00114008
-5.12005e-07
1.14393e-06
1.02194e-07
8.27282e-07
7.43091e-07
-4.96456e-07
7.4774e-08
-1.19743e-06
7.73522e-07
-0.00114171
3.73093e-07
-1.47169e-06
1.45889e-07
-4.36616e-07
-1.19141e-06
7.75538e-08
7.44688e-07
-4.91431e-07
1.19019e-06
0.00114115
7.62463e-07
-0.00114082
3.50959e-07
-1.50123e-06
1.72011e-07
-4.37109e-07
-1.19068e-06
7.4098e-08
-4.95062e-07
7.41282e-07
-0.000276498
-4.73985e-07
-4.71252e-07
0.000274392
-1.16412e-06
0.000276436
-0.000274349
1.36972e-07
1.40444e-07
4.38833e-07
-4.97936e-07
0.0011411
-0.00114069
-5.0031e-07
1.09818e-06
9.68886e-08
8.43948e-07
-1.19909e-06
7.41828e-07
7.13311e-08
7.48691e-07
-0.0011416
3.27358e-07
-1.46316e-06
1.82735e-07
-4.25788e-07
-1.19022e-06
6.83119e-08
7.37708e-07
-4.95802e-07
1.14521e-06
0.00114216
7.57502e-07
-0.00114183
3.62621e-07
-1.45936e-06
1.61671e-07
-4.30243e-07
-1.18977e-06
7.45144e-08
-4.94705e-07
7.41732e-07
-0.000274382
1.30617e-07
1.41752e-07
1.5174e-06
1.47786e-06
-4.44472e-07
-4.50514e-07
0.000274393
-1.19883e-06
-1.15639e-06
0.000276423
-0.000274343
1.3329e-07
1.42077e-07
3.71084e-07
0.0011418
-4.55806e-07
1.1883e-06
1.53654e-07
7.44001e-07
-4.91906e-07
-1.19448e-06
7.02571e-08
-1.5273e-06
8.11939e-07
4.57536e-07
0.00114191
-4.89959e-07
1.15241e-06
9.49478e-08
7.47772e-07
-4.86418e-07
-1.19392e-06
8.13124e-08
0.00114279
7.38029e-07
-0.0011425
3.35271e-07
-1.50059e-06
1.69014e-07
-4.35266e-07
-1.17264e-06
8.75083e-08
-4.72878e-07
7.59394e-07
1.18616e-06
0.00114289
7.71786e-07
-0.00114261
4.09824e-07
-1.52436e-06
1.96632e-07
-4.46678e-07
-1.18072e-06
5.46456e-08
-4.92067e-07
7.42297e-07
-4.5411e-07
-4.60764e-07
0.000274389
-1.15284e-06
0.000276334
-0.000274279
1.40073e-07
1.44129e-07
3.9698e-07
0.00114281
-4.51012e-07
1.1408e-06
1.41167e-07
7.3949e-07
-4.88119e-07
-1.1879e-06
6.89371e-08
-1.49479e-06
7.5618e-07
3.49254e-07
0.00114179
-4.26034e-07
1.19946e-06
1.71013e-07
7.3857e-07
-4.93568e-07
-1.19373e-06
7.06537e-08
0.00114379
7.29089e-07
-0.0011435
3.54409e-07
-1.46329e-06
1.59206e-07
-4.29502e-07
-1.16506e-06
8.59978e-08
-4.68438e-07
7.55159e-07
1.1909e-06
0.00114283
7.17194e-07
-0.0011425
3.36191e-07
-1.50753e-06
1.69703e-07
-4.46352e-07
-1.16702e-06
8.68328e-08
-4.72063e-07
7.61611e-07
7.7055e-07
3.51644e-07
0.00114148
-4.396e-07
1.18641e-06
1.52819e-07
7.42719e-07
-4.87708e-07
7.99699e-08
-1.18746e-06
7.81152e-07
-0.00114309
3.87635e-07
-1.48727e-06
1.90182e-07
-4.36221e-07
-1.17801e-06
5.4351e-08
7.39653e-07
-4.92146e-07
1.15375e-06
0.00114248
8.03688e-07
-0.00114217
4.40029e-07
-1.53023e-06
1.30024e-07
-4.80685e-07
-1.17108e-06
7.36433e-08
-4.79643e-07
7.47478e-07
-4.26322e-07
-4.32532e-07
0.000274345
-1.15503e-06
0.000276407
-0.000274329
1.31577e-07
1.35558e-07
7.58305e-07
3.78044e-07
0.00114249
-4.34768e-07
1.13929e-06
1.40306e-07
7.43673e-07
-4.86918e-07
8.12272e-08
-1.18622e-06
7.26338e-07
-0.00114299
3.13475e-07
-1.46724e-06
1.6913e-07
-4.41151e-07
-1.16173e-06
8.36858e-08
7.55945e-07
-4.69802e-07
1.10835e-06
0.00114347
7.94173e-07
-0.00114316
4.58926e-07
-1.49018e-06
1.20325e-07
-4.74738e-07
-1.16908e-06
7.49048e-08
-4.78115e-07
7.48446e-07
-0.000274286
1.03508e-07
1.15211e-07
1.5067e-06
1.46479e-06
-4.22561e-07
-4.31504e-07
0.000274306
-1.15527e-06
-1.12491e-06
0.000276184
-0.000274129
1.11778e-07
1.13377e-07
4.20011e-07
0.00114305
-4.5251e-07
1.17945e-06
1.30037e-07
7.59092e-07
-4.6716e-07
-1.17025e-06
9.19826e-08
-1.46497e-06
6.86067e-07
2.49104e-07
0.00114316
-3.56373e-07
1.24157e-06
2.6458e-07
7.38896e-07
-4.95005e-07
-1.18498e-06
5.78974e-08
0.00114385
7.79135e-07
-0.00114359
5.05317e-07
-1.54805e-06
1.34014e-07
-4.90172e-07
-1.15676e-06
7.07501e-08
-4.68572e-07
7.57761e-07
1.19574e-06
0.00114408
7.00771e-07
-0.00114376
2.92688e-07
-1.46512e-06
1.10437e-07
-4.45289e-07
-1.15738e-06
1.1716e-07
-4.42081e-07
7.6937e-07
-3.96948e-07
-4.02664e-07
0.000274239
-1.15547e-06
0.000276372
-0.000274277
1.23994e-07
1.32653e-07
4.03809e-07
0.00114405
-4.4225e-07
1.14208e-06
1.25144e-07
7.52249e-07
-4.64872e-07
-1.16512e-06
8.8174e-08
-1.48738e-06
7.01673e-07
2.96729e-07
0.00114309
-4.09301e-07
1.21158e-06
1.93824e-07
7.63319e-07
-4.65465e-07
-1.15877e-06
9.29548e-08
0.00114489
8.17579e-07
-0.00114461
4.29133e-07
-1.49712e-06
1.35252e-07
-4.71767e-07
-1.15509e-06
6.39942e-08
-4.69759e-07
7.48111e-07
1.10398e-06
0.00114395
8.79294e-07
-0.00114363
5.74419e-07
-1.57703e-06
4.37033e-08
-5.53612e-07
-1.15731e-06
7.67158e-08
-4.61076e-07
7.54883e-07
7.59686e-07
4.12361e-07
0.00114274
-4.4444e-07
1.17575e-06
1.6582e-07
7.4827e-07
-4.78339e-07
7.42499e-08
-1.16679e-06
6.83077e-07
-0.00114422
3.26517e-07
-1.43489e-06
9.75165e-08
-4.41665e-07
-1.1527e-06
1.19546e-07
7.69045e-07
-4.40108e-07
1.1865e-06
0.00114353
6.94251e-07
-0.00114324
3.67324e-07
-1.47953e-06
1.45743e-07
-4.3292e-07
-1.15567e-06
9.2489e-08
-4.59601e-07
7.5575e-07
-4.15531e-07
-4.20824e-07
0.000274307
-1.06091e-06
0.000276193
-0.000274146
5.49229e-08
6.30462e-08
7.6647e-07
3.95782e-07
0.00114374
-4.3412e-07
1.13535e-06
1.6107e-07
7.4687e-07
-4.78657e-07
7.35091e-08
-1.16713e-06
8.61586e-07
-0.00114411
6.09415e-07
-1.54439e-06
3.62876e-08
-5.55589e-07
-1.14965e-06
7.63099e-08
7.51985e-07
-4.56364e-07
1.15349e-06
0.00114456
7.32195e-07
-0.00114427
2.92481e-07
-1.42579e-06
1.46965e-07
-4.14465e-07
-1.15925e-06
8.84337e-08
-4.63595e-07
7.51614e-07
-0.000274139
1.36167e-07
1.39916e-07
1.49463e-06
1.44913e-06
-4.10645e-07
-4.23226e-07
0.000274074
-1.24215e-06
-1.18574e-06
0.000276149
-0.000274047
1.53407e-07
1.7263e-07
3.33198e-07
0.00114408
-4.04892e-07
1.21359e-06
2.22925e-07
7.50996e-07
-4.73763e-07
-1.15878e-06
6.55709e-08
-1.53568e-06
7.96113e-07
5.00121e-07
0.00114438
-5.35077e-07
1.12131e-06
4.01399e-08
7.77672e-07
-4.32355e-07
-1.14383e-06
1.12906e-07
0.00114483
6.57148e-07
-0.00114456
1.81262e-07
-1.42808e-06
1.85689e-07
-3.73673e-07
-1.15257e-06
1.04114e-07
-4.46385e-07
7.61308e-07
1.17793e-06
0.00114485
7.53301e-07
-0.00114475
4.91233e-07
-1.51762e-06
1.82857e-07
-4.30798e-07
-1.13849e-06
7.62142e-08
-4.5734e-07
7.62653e-07
-4.69201e-07
-4.70809e-07
0.000274273
-1.15187e-06
0.000275966
-0.000273947
1.56173e-07
1.5468e-07
3.16958e-07
0.00114512
-3.92135e-07
1.17631e-06
2.17054e-07
7.42068e-07
-4.73968e-07
-1.15668e-06
6.0055e-08
-1.55175e-06
8.10264e-07
4.93087e-07
0.0011442
-4.93472e-07
1.15284e-06
1.43188e-07
7.5187e-07
-4.7095e-07
-1.15191e-06
6.17866e-08
0.00114582
6.03535e-07
-0.00114557
2.79436e-07
-1.4031e-06
1.61884e-07
-3.80384e-07
-1.13946e-06
1.094e-07
-4.36724e-07
7.64291e-07
1.26971e-06
0.00114472
5.64217e-07
-0.00114451
1.69955e-07
-1.3969e-06
2.41972e-07
-3.0675e-07
-1.15103e-06
1.00286e-07
-4.53579e-07
7.56842e-07
7.17785e-07
3.59209e-07
0.00114381
-4.49611e-07
1.17569e-06
1.37263e-07
7.62855e-07
-4.50916e-07
9.68052e-08
-1.14479e-06
7.85199e-07
-0.00114524
4.30007e-07
-1.47356e-06
1.83059e-07
-4.13892e-07
-1.13952e-06
7.24067e-08
7.56088e-07
-4.60787e-07
1.17739e-06
0.00114449
7.79964e-07
-0.00114429
3.81918e-07
-1.48821e-06
1.49223e-07
-4.35382e-07
-1.14285e-06
8.27368e-08
-4.54865e-07
7.52632e-07
-4.77408e-07
-4.79881e-07
0.000274082
-1.24086e-06
0.000276061
-0.000273963
2.07084e-07
2.05916e-07
7.32672e-07
3.43911e-07
0.00114485
-4.36942e-07
1.13586e-06
1.31132e-07
7.59401e-07
-4.54119e-07
9.39924e-08
-1.14799e-06
5.95131e-07
-0.00114501
1.09177e-07
-1.34992e-06
2.48066e-07
-2.95133e-07
-1.14959e-06
9.37299e-08
7.46817e-07
-4.54583e-07
1.11796e-06
0.00114548
7.26302e-07
-0.00114529
4.8106e-07
-1.46054e-06
1.25525e-07
-4.4198e-07
-1.13535e-06
9.0641e-08
-4.48148e-07
7.60744e-07
-0.000273974
1.19901e-07
1.41978e-07
1.46987e-06
1.44266e-06
-4.1018e-07
-4.07485e-07
0.000274054
-1.15531e-06
-1.12529e-06
0.000275846
-0.000273825
1.29777e-07
1.29821e-07
3.1754e-07
0.00114509
-4.47158e-07
1.19082e-06
1.14453e-07
7.74651e-07
-4.29126e-07
-1.13759e-06
1.15651e-07
-1.4647e-06
6.92272e-07
3.57725e-07
0.00114496
-3.72881e-07
1.22017e-06
2.17795e-07
7.58535e-07
-4.5687e-07
-1.14289e-06
8.0666e-08
0.00114555
7.54159e-07
-0.00114546
5.22831e-07
-1.52829e-06
1.33418e-07
-4.6222e-07
-1.11268e-06
9.60401e-08
-4.30173e-07
7.79144e-07
1.20613e-06
0.00114561
6.76349e-07
-0.00114536
2.67892e-07
-1.4546e-06
1.5935e-07
-4.14919e-07
-1.12878e-06
1.03597e-07
-4.31181e-07
7.71246e-07
-3.76693e-07
-3.8734e-07
0.000273842
-1.16129e-06
0.000275845
-0.000273768
1.38959e-07
1.50778e-07
3.78951e-07
0.00114608
-4.50981e-07
1.13835e-06
9.51555e-08
7.77747e-07
-4.18594e-07
-1.12312e-06
1.20573e-07
-1.4327e-06
6.10129e-07
2.4932e-07
0.00114499
-3.97495e-07
1.2198e-06
1.39224e-07
7.72476e-07
-4.2767e-07
-1.13563e-06
1.24311e-07
0.00114658
7.86484e-07
-0.00114647
4.5505e-07
-1.47931e-06
1.35744e-07
-4.44764e-07
-1.11125e-06
8.89025e-08
-4.31032e-07
7.68681e-07
1.133e-06
0.00114565
8.12747e-07
-0.00114552
5.165e-07
-1.54598e-06
1.03428e-07
-4.91912e-07
-1.1065e-06
9.70793e-08
-4.26562e-07
7.795e-07
7.5563e-07
3.80795e-07
0.00114467
-4.25518e-07
1.18407e-06
1.60353e-07
7.5469e-07
-4.52843e-07
8.35481e-08
-1.13865e-06
6.45519e-07
-0.00114584
3.29562e-07
-1.42796e-06
1.41516e-07
-4.15064e-07
-1.12235e-06
1.07809e-07
7.73036e-07
-4.27682e-07
1.21242e-06
0.00114521
6.27755e-07
-0.00114502
2.99418e-07
-1.44489e-06
1.87863e-07
-3.85126e-07
-1.11958e-06
1.02981e-07
-4.32451e-07
7.67338e-07
-3.6538e-07
-3.75636e-07
0.000273981
-1.08532e-06
0.000275866
-0.000273855
9.73758e-08
1.09417e-07
7.12764e-07
4.42488e-07
0.00114565
-4.29205e-07
1.12861e-06
1.41405e-07
7.63038e-07
-4.45224e-07
9.13718e-08
-1.12984e-06
7.81591e-07
-0.00114601
5.78525e-07
-1.51661e-06
9.12126e-08
-4.97621e-07
-1.09711e-06
9.85754e-08
7.78412e-07
-4.2031e-07
1.17936e-06
0.00114623
6.58267e-07
-0.00114603
2.3141e-07
-1.39318e-06
1.90227e-07
-3.67578e-07
-1.12331e-06
9.90552e-08
-4.35832e-07
7.6239e-07
-0.000273771
1.67184e-07
1.7056e-07
1.49519e-06
1.44381e-06
-3.89095e-07
-4.05644e-07
0.000273702
4.42704e-07
0.00114564
-4.19483e-07
1.18651e-06
1.71274e-07
7.71711e-07
-4.34219e-07
-1.11705e-06
9.11589e-08
-1.46908e-06
6.88817e-07
3.0854e-07
0.00114582
-4.24955e-07
1.19519e-06
1.56216e-07
7.76099e-07
-4.25707e-07
-1.11891e-06
1.0463e-07
1.18902e-06
6.70237e-07
-0.0011461
3.89833e-07
-1.46995e-06
1.62078e-07
-4.11856e-07
-1.10508e-06
1.03135e-07
-4.21352e-07
7.77974e-07
0.00114622
-4.1179e-07
-4.09251e-07
0.000273754
-1.16567e-06
-0.000273569
1.5706e-07
1.54492e-07
0.000275612
3.82401e-07
0.00114667
-4.00487e-07
1.15737e-06
1.73716e-07
7.60563e-07
-4.36739e-07
-1.11736e-06
8.3153e-08
-1.51367e-06
7.87398e-07
4.79195e-07
0.00114572
-4.4043e-07
1.16643e-06
1.50308e-07
7.67603e-07
-4.37323e-07
-1.11411e-06
8.54872e-08
6.26359e-07
3.10206e-07
0.00114539
-3.94076e-07
1.20387e-06
1.70792e-07
7.7302e-07
-4.22951e-07
1.11401e-07
-1.11208e-06
6.85105e-07
-0.00114657
3.8981e-07
-1.4324e-06
1.66013e-07
-4.00518e-07
-1.10255e-06
1.02481e-07
7.71796e-07
-4.21464e-07
0.00114665
1.16933e-06
7.04973e-07
-0.00114571
4.02668e-07
-1.48034e-06
1.35704e-07
-4.31334e-07
-1.09387e-06
1.04798e-07
-4.11904e-07
7.74495e-07
0.00114584
-4.24364e-07
-4.21925e-07
0.000273714
6.62207e-07
2.44184e-07
0.00114642
-3.7507e-07
1.1717e-06
1.73266e-07
7.672e-07
-4.27873e-07
1.06551e-07
-1.11775e-06
1.13031e-06
7.10239e-07
-0.00114673
4.22628e-07
-1.4428e-06
1.30941e-07
-4.29558e-07
-1.09696e-06
1.07705e-07
-4.1529e-07
7.77513e-07
0.00114683
-0.000273575
1.36697e-07
1.42776e-07
0.000275595
3.86892e-08
9.86683e-05
2.35549e-09
-9.87094e-05
1.26781e-08
9.86127e-05
-9.86198e-05
-5.55657e-09
-8.43427e-08
6.5795e-10
0.000259329
-1.56535e-08
-8.35017e-09
-0.000259221
-4.447e-08
-1.0363e-07
3.09982e-07
0.000251853
4.10186e-08
-0.000252056
0.00114159
1.83103e-08
7.94646e-07
-1.17201e-06
5.9405e-07
-1.34212e-06
8.61902e-07
-0.00114095
3.96953e-07
-1.49742e-06
0.00113975
-1.21797e-06
6.84094e-08
-5.14628e-07
7.36899e-07
1.14412e-06
1.39762e-07
-4.7273e-07
7.92362e-07
-5.46948e-09
-2.55305e-08
0.000251692
1.59897e-08
-0.000251672
-5.05541e-09
2.17965e-08
0.00114222
-1.33698e-06
5.97534e-07
-1.16741e-06
7.98945e-07
8.50183e-07
-1.92765e-07
4.98919e-09
0.000259395
-2.03419e-08
4.92289e-07
-0.000259679
3.41677e-08
-4.2724e-08
1.54695e-07
0.000283247
-1.80011e-08
-0.000283375
-4.40851e-08
1.54727e-07
0.000283158
-1.43511e-08
3.11821e-08
-0.000283285
1.51045e-06
1.46319e-06
-0.00027648
-4.60139e-07
0.000274423
-4.56516e-07
9.71277e-09
-6.68927e-09
0.000283014
-2.75425e-09
-0.000283065
5.07919e-08
-8.66964e-09
0.000282927
1.75294e-09
-0.000282981
5.21237e-08
8.86915e-09
-1.92865e-09
7.07287e-08
0.000234407
-0.000234455
-1.90101e-08
-2.23763e-09
-2.6994e-09
-9.35209e-09
0.000195845
-0.000195929
9.61427e-08
1.62236e-09
0.000234621
-5.59735e-08
-7.18462e-09
-0.000234739
1.79628e-07
5.54284e-09
2.66546e-08
0.000195706
-5.03037e-09
-0.000195734
-9.85208e-05
-6.65882e-09
4.67069e-08
9.84807e-05
-9.44373e-09
1.47091e-08
9.84285e-05
-9.84338e-05
6.96609e-08
-3.14119e-09
0.000234407
-0.000234454
-1.55985e-09
-1.85056e-08
-2.34244e-09
-1.0104e-08
0.000195827
-0.000195911
9.66957e-08
-1.86763e-09
0.000234617
-5.08589e-09
-5.66913e-08
-0.000234735
1.81072e-07
4.47156e-09
2.62652e-08
0.000195687
-3.18556e-09
-0.000195715
-1.626e-07
-0.00116834
-5.48046e-09
-5.84236e-07
-4.40604e-07
0.00116954
-8.845e-07
-0.00115919
2.58426e-08
4.69679e-07
-4.7289e-07
0.00116005
-0.00116823
-1.12017e-08
-5.03852e-07
-4.47441e-07
0.00116903
-0.00115471
4.06409e-07
4.17279e-07
0.00115523
-0.00115452
4.15629e-07
4.12797e-07
0.00115505
-0.00115435
3.97981e-07
3.95257e-07
0.00115507
-0.00115437
4.03627e-07
4.1469e-07
-7.13318e-08
-4.793e-09
0.000258644
-0.000258537
-9.68233e-09
-2.10853e-08
-0.000251345
-3.09024e-08
-9.45618e-08
2.87215e-07
3.50884e-08
0.000251148
0.00114421
-0.00114353
-3.54907e-08
8.58327e-07
8.03182e-07
-1.15614e-06
-1.32515e-06
6.03171e-07
3.81019e-07
1.14101e-06
0.00114136
7.87737e-07
-1.20081e-06
7.2048e-08
-5.00749e-07
7.44636e-07
-1.49373e-06
1.41742e-07
-4.68289e-07
-0.000258983
-1.76543e-07
1.33466e-09
0.000258706
-1.58535e-08
4.68288e-07
1.25391e-08
-2.90102e-08
0.000250984
3.15518e-09
-0.000250965
-5.83591e-09
-3.80568e-08
0.00114484
8.51099e-07
-1.32155e-06
6.04435e-07
-1.15269e-06
8.04714e-07
5.02926e-09
3.41882e-08
9.84812e-05
-9.85205e-05
-1.54556e-08
2.19496e-08
9.84299e-05
-9.84364e-05
-9.99193e-10
-6.80139e-08
0.000258642
-0.000258536
-2.09233e-08
-1.57219e-08
-1.32385e-06
0.0011441
1.98413e-08
-0.00114346
8.91762e-07
-1.16113e-06
7.9863e-07
6.00943e-07
-1.42888e-07
-0.000268081
1.05978e-07
-2.82977e-07
0.000267891
4.30763e-07
1.12237e-06
0.00114121
8.22702e-07
-1.20432e-06
6.10175e-08
-5.08e-07
7.32802e-07
-1.50154e-06
1.2624e-07
-4.82326e-07
-0.000274042
-8.89067e-08
-4.64055e-07
4.39965e-08
0.000273227
-2.07637e-09
0.00114474
8.6837e-07
-1.32058e-06
6.02983e-07
-1.15451e-06
7.99992e-07
-1.37229e-11
-2.84123e-08
0.000250994
1.79555e-08
-0.000250982
-1.03681e-09
-0.000282673
2.23025e-08
-4.28451e-08
1.21452e-07
2.10657e-08
0.000282551
-0.000282586
-4.29946e-08
1.21345e-07
2.13418e-08
0.000282469
1.74999e-08
-1.14643e-06
-1.10479e-06
0.00027649
-0.000274438
9.59902e-08
1.03299e-07
-6.85668e-09
-2.1595e-08
0.000282322
1.76607e-08
-0.000282374
6.25524e-08
-3.88648e-09
-2.02988e-08
0.00028224
1.6654e-08
-0.000282294
6.17201e-08
-7.96141e-09
5.6368e-08
0.000233806
-0.000233845
-1.2399e-08
3.32285e-09
-0.000195499
8.26956e-10
8.96265e-08
-1.42411e-08
0.000195423
-0.000234094
-8.83339e-09
1.68458e-07
0.000233988
-5.5572e-08
1.57949e-09
1.66115e-08
2.1644e-08
0.000195296
-1.26528e-08
-0.000195322
-9.8359e-05
2.08162e-08
1.17942e-08
9.83264e-05
-1.86259e-08
2.48368e-08
9.82839e-05
-9.82901e-05
5.6488e-08
1.34728e-09
0.000233788
-0.000233827
-3.90437e-09
-1.51662e-08
-0.000195477
-2.51688e-09
8.76057e-08
-7.96158e-09
0.0001954
-0.000234088
1.703e-07
2.99767e-09
0.000233977
-7.50698e-09
-5.43365e-08
1.58481e-08
2.04646e-08
0.000195271
-1.04247e-08
-0.000195297
4.45709e-07
4.41674e-07
0.00115597
4.00042e-07
3.95869e-07
0.00115577
3.9729e-07
4.1902e-07
0.00115578
-0.0011576
3.8635e-07
4.01811e-07
0.00115818
-0.00115748
4.3299e-07
4.17988e-07
0.00115791
-0.00115723
3.91028e-07
3.75863e-07
0.00115797
-0.00115726
4.3536e-07
4.5094e-07
-5.82945e-08
3.94814e-09
0.000257976
-0.000257865
-2.01586e-08
-3.57487e-08
-0.000250689
-5.60855e-08
-7.18647e-08
2.55212e-07
4.56652e-08
0.000250516
0.00114659
-0.001146
3.77821e-08
8.61313e-07
8.09319e-07
-1.14391e-06
-1.3121e-06
6.09274e-07
5.14674e-07
1.08917e-06
0.00114275
8.55907e-07
-1.185e-06
7.82674e-08
-4.81655e-07
7.48306e-07
-1.52522e-06
6.09608e-08
-5.24488e-07
-0.000258298
-1.65737e-07
6.06665e-09
0.000258025
-1.76503e-08
4.50308e-07
-2.24987e-09
-9.61604e-09
0.000250384
2.30012e-08
-0.000250364
-3.10146e-08
3.96986e-08
0.00114721
8.71751e-07
-1.30518e-06
6.12271e-07
-1.13801e-06
8.13335e-07
-9.83368e-05
1.48467e-08
2.36322e-08
9.82984e-05
-1.96395e-08
2.30699e-08
9.82538e-05
-9.82572e-05
-6.62098e-09
-5.73535e-08
0.000257957
-0.000257853
-3.14556e-08
-8.1636e-09
0.00114646
-0.00114589
-1.40237e-08
8.43177e-07
8.02181e-07
-1.14611e-06
-1.31189e-06
6.05781e-07
-0.000250663
-4.53475e-08
-8.90697e-08
2.81499e-07
2.75473e-08
0.000250488
3.78842e-07
1.14632e-06
0.00114261
7.82623e-07
-1.18985e-06
6.63669e-08
-4.90017e-07
7.30257e-07
-1.46389e-06
1.37012e-07
-4.45493e-07
-0.000258297
-2.38835e-09
-1.71986e-07
0.000258023
4.5567e-07
-6.99834e-09
-3.00413e-08
0.00114706
8.43202e-07
-1.30746e-06
6.09294e-07
-1.14153e-06
8.053e-07
-3.21189e-09
-1.65204e-08
0.000250353
1.77499e-08
-0.000250336
-1.48338e-08
-0.00028202
3.96986e-08
-2.30822e-08
1.05689e-07
-1.66162e-08
0.000281914
-0.000281935
4.04014e-08
-2.04233e-08
1.04508e-07
-2.04542e-08
0.000281831
-1.16245e-06
-1.11388e-06
0.000276406
-0.000274346
1.01166e-07
1.15134e-07
5.81187e-10
-9.70058e-09
0.000281713
2.68092e-08
-0.000281762
3.12733e-08
6.51455e-09
-9.11681e-09
0.000281624
2.54515e-08
-0.000281677
2.97033e-08
2.08906e-08
4.77001e-08
0.000233241
-0.000233274
-1.16695e-08
-2.42843e-08
-0.000195095
-2.52907e-08
7.22946e-08
1.94957e-08
0.000195029
-0.000233515
1.6852e-08
1.59104e-07
0.000233411
-5.34482e-08
-1.87959e-08
4.56299e-09
-5.98683e-09
0.000194947
1.23836e-08
-0.000194958
-9.81729e-05
-5.98998e-09
4.78901e-08
9.8131e-05
5.53503e-09
-7.62622e-09
9.8093e-05
-9.80909e-05
4.67236e-08
-8.24145e-10
0.000233244
-0.000233269
-8.38362e-09
-1.27324e-08
-0.000195074
-1.93803e-08
7.47754e-08
9.2268e-09
0.000195009
-0.0002335
1.58866e-07
3.5764e-09
0.000233397
-8.36656e-09
-5.09641e-08
9.28276e-09
-3.07275e-09
0.000194933
3.257e-09
-0.000194942
3.55845e-07
3.58604e-07
0.00115884
3.72677e-07
3.75573e-07
0.00115856
4.29419e-07
4.17485e-07
0.00115865
-0.00116039
4.75871e-07
4.18661e-07
0.00116082
-0.00116013
3.33985e-07
3.62078e-07
0.00116074
-0.00115999
4.8184e-07
5.1027e-07
0.00116066
-0.00115998
4.01551e-07
3.44522e-07
-5.56933e-08
-1.21334e-08
0.000257304
-0.000257206
5.50862e-09
-3.60272e-08
-0.000250026
-2.37939e-08
-1.15105e-07
3.14193e-07
1.00436e-08
0.00024984
0.00114891
-0.0011484
-5.56605e-08
8.07139e-07
8.06743e-07
-1.13077e-06
-1.3002e-06
6.10776e-07
1.66631e-07
1.22934e-06
0.00114392
6.17132e-07
-1.17786e-06
7.76748e-08
-4.83437e-07
7.44329e-07
-1.39116e-06
2.56866e-07
-3.18069e-07
-0.000257651
-1.57987e-07
-6.71393e-09
0.000257379
-9.47941e-10
4.37327e-07
-9.93405e-09
-2.62482e-08
0.000249732
-6.02699e-10
-0.000249693
-1.82605e-09
-8.68661e-08
0.00114939
7.73323e-07
-1.29777e-06
6.14729e-07
-1.12633e-06
8.09751e-07
-9.8177e-05
1.73141e-08
1.27198e-08
9.8147e-05
1.9959e-08
-2.73412e-08
9.81353e-05
-9.81279e-05
5.42502e-09
-4.94668e-08
0.0002573
-0.000257199
-4.18376e-08
-1.54506e-08
0.00114869
-0.00114818
-3.08275e-08
8.15629e-07
8.1182e-07
-1.12621e-06
-1.29158e-06
6.15878e-07
-0.00025002
-2.15375e-08
-8.90701e-08
2.63341e-07
9.35088e-09
0.000249858
3.97971e-07
1.14691e-06
0.00114382
7.4378e-07
-1.1583e-06
9.30788e-08
-4.60557e-07
7.50292e-07
-1.45273e-06
1.29868e-07
-4.27554e-07
-0.000257632
-1.16275e-09
-1.5859e-07
0.000257365
4.3176e-07
-5.05941e-09
2.14416e-08
0.00114921
8.31191e-07
-1.28975e-06
6.17191e-07
-1.12444e-06
8.13421e-07
-3.57039e-08
1.42517e-08
0.000249798
3.08071e-08
-0.000249753
-5.39858e-08
-0.000281392
2.68583e-08
-3.6302e-08
1.32738e-07
-1.79977e-08
0.000281286
-0.000281301
1.85478e-08
-4.08866e-08
1.3479e-07
-1.07813e-08
0.0002812
-1.1935e-06
-1.15859e-06
0.00027624
-0.00027419
1.48184e-07
1.53314e-07
1.13866e-08
-5.94671e-10
0.000281109
-1.3267e-08
-0.000281147
4.00499e-08
6.0914e-09
-4.30058e-09
0.000281025
-6.55485e-09
-0.000281063
4.30656e-08
-2.62728e-08
4.26759e-08
0.000232747
-0.000232778
-9.85325e-09
2.46779e-08
-0.000194756
1.16662e-08
1.0759e-07
-4.03313e-08
0.000194677
-0.000232996
-1.70293e-08
1.45975e-07
0.000232903
-4.98072e-08
1.39209e-08
1.29753e-09
3.49937e-08
0.000194561
-1.91105e-08
-0.000194579
-9.80575e-05
2.50543e-09
2.33496e-08
9.80316e-05
-2.69076e-08
2.90758e-08
9.80026e-05
-9.80047e-05
4.76942e-08
3.63921e-09
0.000232733
-0.00023277
1.07872e-09
-1.49281e-08
-0.000194742
5.45619e-09
1.05527e-07
-3.04686e-08
0.000194662
-0.000233011
1.4693e-07
-7.28713e-09
0.000232911
7.63097e-09
-4.76122e-08
-7.21338e-09
3.03052e-08
0.000194537
-2.56909e-09
-0.000194558
4.3163e-07
4.35013e-07
0.00116154
4.61023e-07
4.64375e-07
0.00116143
3.89448e-07
3.76721e-07
0.00116135
-0.00116302
2.74183e-07
3.54771e-07
0.00116354
-0.00116292
4.83502e-07
4.36869e-07
0.00116324
-0.00116264
3.02816e-07
2.55497e-07
0.00116334
-0.00116269
3.87487e-07
4.67771e-07
-3.66885e-08
8.76241e-09
0.000256704
-0.000256593
-2.11498e-08
-6.17636e-08
-0.000249515
-1.66923e-08
-4.82845e-08
1.9193e-07
3.19549e-08
0.000249357
0.00115092
-0.00115037
4.33937e-08
8.22106e-07
8.32844e-07
-1.10421e-06
-1.26968e-06
6.30826e-07
5.91524e-07
1.06129e-06
0.00114508
8.59154e-07
-1.13079e-06
9.57241e-08
-4.39028e-07
7.75237e-07
-1.54795e-06
4.17174e-08
-5.46199e-07
-0.000256987
-1.39706e-07
4.1947e-09
0.000256733
-1.42499e-08
4.03685e-07
2.76645e-08
-4.02761e-09
0.00024924
2.65593e-09
-0.000249219
-4.78717e-08
7.85987e-08
0.00115147
8.51882e-07
-1.26298e-06
6.31026e-07
-1.09945e-06
8.33472e-07
-9.80558e-05
-2.66352e-08
7.34867e-08
9.80089e-05
-8.43533e-09
1.65296e-08
9.79426e-05
-9.79507e-05
-1.19651e-08
-4.54509e-08
0.000256695
-0.0002566
-4.4685e-08
7.23815e-09
0.00115089
-0.00115036
6.7846e-08
8.29619e-07
8.19264e-07
-1.10753e-06
-1.2705e-06
6.22888e-07
-0.000249495
-3.05433e-09
-9.97387e-08
2.709e-07
2.08802e-08
0.000249306
2.85983e-07
1.19805e-06
0.00114485
6.98885e-07
-1.1487e-06
5.56275e-08
-4.75031e-07
7.39496e-07
-1.43699e-06
2.67706e-07
-3.59791e-07
-0.000257009
1.00356e-08
-1.4317e-07
0.000256756
4.07629e-07
-2.1948e-08
-3.84921e-08
0.00115137
7.98883e-07
-1.27396e-06
6.19763e-07
-1.10819e-06
8.1236e-07
1.84278e-08
-5.52711e-08
0.000249154
-2.47933e-08
-0.000249133
3.98494e-08
-0.000280823
2.47893e-08
-3.14858e-08
9.84833e-08
2.55048e-09
0.000280729
-0.000280746
2.30446e-08
-2.66666e-08
9.82332e-08
-2.85782e-09
0.000280654
-1.17432e-06
-1.1248e-06
0.00027614
-0.000274095
1.2014e-07
1.34145e-07
-9.78952e-09
-6.9554e-09
0.000280586
1.687e-08
-0.000280614
2.73537e-08
3.12604e-09
-1.59394e-10
0.000280502
5.90882e-09
-0.000280535
2.38819e-08
1.45293e-08
2.93299e-08
0.000232286
-0.000232308
-5.6423e-09
-1.65769e-08
-0.000194431
-7.35205e-09
5.56228e-08
5.89691e-09
0.000194376
-0.000232505
6.98961e-09
1.38272e-07
0.000232417
-4.75081e-08
-9.40557e-09
1.9849e-08
-7.12524e-09
0.000194305
-3.19549e-09
-0.000194314
-9.79174e-05
9.19492e-09
2.59035e-08
9.78823e-05
1.7031e-09
-4.33656e-09
9.78524e-05
-9.78498e-05
2.41091e-08
-2.55041e-09
0.000232281
-0.000232296
-2.86772e-09
-4.57441e-09
-0.000194401
-5.44015e-09
5.54704e-08
3.11934e-09
0.000194348
-0.000232479
1.37096e-07
5.31416e-09
0.000232393
-1.08288e-08
-4.52976e-08
2.54248e-08
-4.87272e-09
0.000194283
-1.36544e-08
-0.00019429
4.17109e-07
3.90324e-07
0.00116414
3.16442e-07
2.89605e-07
0.00116387
3.8878e-07
4.43864e-07
0.00116398
-0.00116562
4.75669e-07
4.26248e-07
0.00116601
-0.00116537
3.18562e-07
3.6796e-07
0.00116588
-0.00116522
4.43003e-07
4.92716e-07
0.00116584
-0.00116522
3.59056e-07
3.09651e-07
-3.88065e-08
-5.39297e-09
0.0002561
-0.000255998
-1.85839e-09
-5.67445e-08
-0.000248949
-3.30204e-08
-9.28807e-08
2.70153e-07
1.40767e-08
0.000248791
0.0011529
-0.00115247
-5.41569e-09
8.17069e-07
8.19392e-07
-1.09713e-06
-1.26762e-06
6.25152e-07
2.83078e-07
1.19777e-06
0.00114563
6.67226e-07
-1.14247e-06
8.76422e-08
-4.51629e-07
7.5377e-07
-1.4009e-06
1.99032e-07
-3.55908e-07
-0.000256406
-1.37571e-07
8.54034e-10
0.00025615
-4.88461e-09
3.97493e-07
-1.87078e-08
-1.0243e-08
0.000248712
1.26351e-08
-0.000248676