/*--------------------------------*- C++ -*----------------------------------*\
| =========                 |                                                 |
| \\      /  F ield         | OpenFOAM: The Open Source CFD Toolbox           |
|  \\    /   O peration     | Version:  v2006                                 |
|   \\  /    A nd           | Website:  www.openfoam.com                      |
|    \\/     M anipulation  |                                                 |
\*---------------------------------------------------------------------------*/
FoamFile
{
    version     2.0;
    format      ascii;
    class       volVectorField;
    location    "875";
    object      U;
}
// * * * * * * * * * * * * * * * * * * * * * * * * * * * * * * * * * * * * * //

dimensions      [0 1 -1 0 0 0 0];


internalField   nonuniform List<vector> 
14310
(
(-9.32508e-05 5.75189e-05 0.108153)
(-0.000148445 -0.000147948 0.10663)
(5.92561e-05 5.78594e-05 0.109516)
(-9.33859e-05 6.04041e-05 0.10831)
(6.80174e-05 -9.75451e-05 0.108306)
(-0.000157228 -0.000158395 0.10666)
(5.45135e-05 5.60981e-05 0.109793)
(-9.48644e-05 6.58435e-05 0.108447)
(5.18549e-05 -8.99715e-05 0.108446)
(-0.000136624 -0.000135933 0.106617)
(5.55665e-05 5.46251e-05 0.110061)
(-8.00026e-05 3.74807e-05 0.108572)
(4.32805e-05 -8.06213e-05 0.108576)
(-0.00014276 -0.000142929 0.106566)
(5.40212e-05 5.27989e-05 0.110329)
(-9.04795e-05 7.32047e-05 0.108685)
(6.55435e-05 -8.74834e-05 0.10868)
(-0.000131951 -0.00013443 0.106517)
(4.5202e-05 4.96346e-05 0.11057)
(-7.96807e-05 4.57023e-05 0.108751)
(3.80903e-05 -7.74063e-05 0.108755)
(-0.000133507 -0.000128642 0.106434)
(5.86538e-05 5.45754e-05 0.110816)
(-7.60331e-05 5.12569e-05 0.108826)
(6.91277e-05 -8.17672e-05 0.108832)
(-0.000110687 -0.000114373 0.106365)
(-0.000150847 0.000151809 0.106644)
(1.0649e-05 -8.83789e-06 0.10683)
(-9.15812e-05 -4.98546e-05 0.10815)
(-9.46464e-05 6.19104e-05 0.108271)
(-9.38799e-05 -6.13933e-05 0.108273)
(7.90421e-06 6.74598e-06 0.106845)
(0.000152777 0.000151617 0.106626)
(-1.59029e-05 -1.51639e-05 0.106813)
(5.9298e-05 9.29775e-05 0.108307)
(-6.03307e-05 9.39746e-05 0.10831)
(5.375e-05 9.00782e-05 0.108415)
(-5.49245e-05 8.97032e-05 0.108414)
(-0.000149955 0.00015112 0.106643)
(1.76529e-05 -1.8453e-05 0.106818)
(9.36734e-05 5.77341e-05 0.108308)
(9.81131e-05 -6.79053e-05 0.108305)
(8.97544e-05 5.44684e-05 0.108416)
(8.59799e-05 -4.74531e-05 0.108415)
(-9.53421e-05 -6.68259e-05 0.108312)
(-9.02804e-05 5.4399e-05 0.108416)
(-8.75374e-05 -5.02452e-05 0.108418)
(0.000153302 -0.00015248 0.10663)
(-2.20238e-05 2.14457e-05 0.106799)
(-6.51938e-05 -9.58508e-05 0.108313)
(4.69e-05 -8.6364e-05 0.108416)
(-5.10544e-05 -8.73252e-05 0.108419)
(1.98828e-05 2.03972e-05 0.106813)
(0.000141146 0.000142121 0.106617)
(-1.96621e-05 -1.91307e-05 0.106792)
(5.6203e-05 9.14203e-05 0.108448)
(-6.65188e-05 9.45246e-05 0.108446)
(4.87422e-05 8.46075e-05 0.108546)
(-5.64068e-05 8.74074e-05 0.108544)
(-0.00014458 0.000143801 0.106618)
(1.85189e-05 -1.89505e-05 0.106764)
(9.04762e-05 5.79776e-05 0.108449)
(8.96079e-05 -5.24507e-05 0.108446)
(8.39919e-05 4.98018e-05 0.108546)
(8.12601e-05 -4.61781e-05 0.108546)
(-8.96274e-05 -5.30262e-05 0.108448)
(-8.78088e-05 5.51438e-05 0.108546)
(-9.02379e-05 -6.18239e-05 0.108545)
(0.000132986 -0.000133597 0.106605)
(-1.59656e-05 1.54328e-05 0.106794)
(-5.48926e-05 -8.88421e-05 0.108449)
(4.48274e-05 -8.16377e-05 0.108548)
(-6.27767e-05 -8.95355e-05 0.108544)
(5.67359e-06 6.34598e-06 0.106776)
(0.000135238 0.000134924 0.106583)
(-5.49507e-06 -8.57926e-06 0.106706)
(5.91508e-05 8.80476e-05 0.108572)
(-3.72709e-05 7.97431e-05 0.108569)
(6.71271e-05 8.73444e-05 0.108647)
(-4.88172e-05 8.4494e-05 0.108654)
(-0.000123606 0.000123207 0.106554)
(1.91648e-05 -1.74812e-05 0.106776)
(8.8402e-05 5.78355e-05 0.10857)
(8.05462e-05 -4.32198e-05 0.108573)
(8.97359e-05 6.20323e-05 0.108651)
(9.71151e-05 -8.06456e-05 0.108652)
(-8.61409e-05 -5.591e-05 0.108573)
(-8.31137e-05 5.09859e-05 0.108654)
(-8.20464e-05 -5.23382e-05 0.108644)
(0.000133192 -0.000133518 0.106589)
(1.63071e-05 -1.47079e-05 0.10672)
(-5.45154e-05 -8.63385e-05 0.108571)
(8.29592e-05 -9.5792e-05 0.108652)
(-4.73815e-05 -8.45121e-05 0.108648)
(2.26814e-05 1.94663e-05 0.106727)
(0.00013364 0.000131412 0.106488)
(-3.62047e-05 -3.09527e-05 0.106687)
(4.76427e-05 8.05686e-05 0.108671)
(-7.31096e-05 9.13524e-05 0.108685)
(3.35446e-05 7.88208e-05 0.108739)
(-6.21544e-05 8.19017e-05 0.108738)
(-0.00014699 0.000148256 0.106566)
(1.75046e-05 -2.0456e-05 0.106633)
(8.19758e-05 4.61011e-05 0.108675)
(8.81955e-05 -6.52752e-05 0.10868)
(7.49323e-05 4.07286e-05 0.108739)
(7.10979e-05 -2.7337e-05 0.108728)
(-8.27119e-05 -5.34339e-05 0.108673)
(-8.39531e-05 5.792e-05 0.108741)
(-8.66194e-05 -5.59705e-05 0.108741)
(0.000158568 -0.000157561 0.1065)
(-5.28428e-05 4.99976e-05 0.106661)
(-5.19671e-05 -8.42309e-05 0.108676)
(2.29543e-05 -7.31199e-05 0.10873)
(-6.2991e-05 -8.28033e-05 0.10874)
(1.13367e-05 1.67589e-05 0.106659)
(0.000120509 0.000125248 0.106476)
(-7.30217e-06 -1.0783e-05 0.106586)
(4.98167e-05 8.23841e-05 0.108766)
(-4.81788e-05 7.78563e-05 0.108748)
(6.91695e-05 8.20959e-05 0.108817)
(-4.31821e-05 7.7957e-05 0.108803)
(-0.000118566 0.000115887 0.1064)
(2.27429e-05 -1.95226e-05 0.106579)
(7.87115e-05 5.47185e-05 0.108764)
(7.57309e-05 -4.06929e-05 0.108751)
(8.39774e-05 6.4574e-05 0.108819)
(8.63224e-05 -7.2418e-05 0.108824)
(-8.4314e-05 -5.40835e-05 0.108759)
(-7.59284e-05 4.73409e-05 0.108804)
(-7.35997e-05 -4.29805e-05 0.108809)
(0.000103497 -0.000106009 0.106452)
(5.33169e-06 -2.07614e-06 0.106605)
(-5.89304e-05 -8.07224e-05 0.108757)
(7.65926e-05 -8.42831e-05 0.108825)
(-3.83014e-05 -7.53573e-05 0.108811)
(3.28356e-05 2.95759e-05 0.106586)
(0.000128285 0.000124472 0.106346)
(5.93402e-05 7.83923e-05 0.108825)
(-4.74945e-05 7.83791e-05 0.108826)
(-5.29093e-05 7.59314e-05 0.108867)
(-0.000122855 0.000126111 0.106359)
(2.06221e-05 -2.17242e-05 0.106495)
(8.08943e-05 5.45319e-05 0.108827)
(8.41109e-05 -6.53515e-05 0.108832)
(-7.36638e-05 -4.54689e-05 0.108827)
(-7.62661e-05 5.11946e-05 0.108868)
(-7.77181e-05 -5.76901e-05 0.108871)
(0.000139917 -0.000136725 0.106361)
(-4.06195e-05 -7.61203e-05 0.108829)
(-5.84251e-05 -7.7915e-05 0.108873)
(1.33533e-05 1.37125e-05 0.106505)
(-2.61068e-06 5.64509e-06 0.0720255)
(2.38861e-06 -1.28282e-06 0.0720305)
(-5.49829e-05 4.02606e-06 0.102188)
(-5.94204e-05 1.74474e-05 0.0954269)
(-9.89971e-05 1.94453e-05 0.108879)
(-9.18815e-05 5.65897e-05 0.108193)
(-2.3204e-05 3.44392e-06 0.0954259)
(-9.80826e-05 1.93974e-05 0.108939)
(-9.81748e-05 5.32475e-06 0.102185)
(-3.07229e-05 -1.07825e-05 0.0891381)
(-1.03685e-05 -3.09102e-05 0.0891358)
(-0.000144089 -0.000144522 0.106642)
(-1.20712e-05 -4.29906e-06 0.0891166)
(-3.19149e-06 -1.27868e-05 0.0891139)
(1.80141e-07 1.50894e-05 0.0934457)
(-1.87603e-06 1.61634e-05 0.083167)
(1.87001e-06 3.52974e-05 0.0934856)
(-3.08268e-06 -1.33901e-06 0.0831567)
(2.62664e-06 7.78587e-06 0.0718889)
(3.3744e-06 -2.3344e-06 0.0718946)
(1.44987e-05 -1.46732e-07 0.0934473)
(1.61548e-05 -2.02396e-06 0.0831683)
(3.56685e-05 7.74252e-07 0.0934867)
(-1.57288e-06 -2.5494e-06 0.0831574)
(-2.0526e-05 2.06254e-05 0.10997)
(6.37304e-05 -2.31933e-05 0.109805)
(-2.04583e-05 -2.21243e-05 0.10997)
(5.4904e-05 5.56878e-05 0.109724)
(-5.52772e-05 5.49672e-05 0.109722)
(5.3758e-05 -5.40556e-05 0.109725)
(-5.55562e-05 -5.47431e-05 0.109725)
(-4.81722e-05 1.82506e-06 0.101918)
(-5.21497e-05 1.45103e-05 0.0951606)
(-9.8673e-05 1.72164e-05 0.109122)
(-8.95972e-05 5.40806e-05 0.108349)
(-8.93808e-05 3.36676e-06 0.101912)
(-2.51074e-05 -3.04102e-06 0.0951553)
(-9.79745e-05 1.63341e-05 0.109183)
(5.16131e-06 -2.67735e-06 0.0718935)
(-2.38126e-06 5.74185e-06 0.0719016)
(3.33352e-06 -4.81295e-05 0.10192)
(2.04055e-05 -0.000100405 0.109122)
(4.24903e-05 -0.000154427 0.102383)
(6.17607e-05 -9.37405e-05 0.108343)
(2.34505e-05 -0.000188007 0.105768)
(1.91971e-05 -9.93563e-05 0.109184)
(3.23165e-06 -2.58835e-05 0.0951637)
(-2.25553e-05 -4.74354e-06 0.0889202)
(-4.17871e-06 -2.20079e-05 0.0889188)
(3.94794e-06 3.57247e-06 0.106832)
(-2.11099e-05 3.10282e-06 0.0888979)
(2.89828e-06 -2.06916e-05 0.0888966)
(-1.76026e-06 1.15179e-05 0.0932035)
(-2.42586e-06 1.61417e-05 0.0829865)
(-1.99037e-06 3.27875e-05 0.0932306)
(-6.57898e-06 -1.25521e-06 0.0829818)
(-8.72201e-06 5.26419e-06 0.0717738)
(8.7326e-06 1.1632e-07 0.0717897)
(1.13694e-05 1.25545e-06 0.0931986)
(1.53661e-05 -8.76979e-07 0.082986)
(3.32193e-05 1.89877e-06 0.0932307)
(-1.26424e-06 -6.13351e-06 0.0829801)
(-5.85842e-05 5.81876e-05 0.109791)
(5.30383e-05 -5.34521e-05 0.109792)
(-5.54444e-05 -5.38536e-05 0.109792)
(5.2649e-05 5.38157e-05 0.109997)
(-5.81619e-05 5.69982e-05 0.110004)
(5.2384e-05 -5.35538e-05 0.109999)
(-5.97718e-05 -5.85947e-05 0.110001)
(-4.12588e-05 5.32114e-06 0.101653)
(-3.81481e-05 2.11556e-05 0.094918)
(-9.87976e-05 1.99248e-05 0.109348)
(-9.69348e-05 7.35029e-05 0.108482)
(-8.30332e-05 4.37478e-06 0.101644)
(-1.23823e-05 4.31901e-06 0.0949269)
(-9.92903e-05 2.2925e-05 0.109407)
(4.75047e-06 -7.78802e-06 0.0717602)
(8.32781e-07 9.50326e-06 0.0717712)
(4.60228e-07 -4.23582e-05 0.101649)
(1.33526e-05 -9.7295e-05 0.10935)
(1.48814e-05 -5.05836e-05 0.0949092)
(5.79449e-05 -9.25161e-05 0.108477)
(8.49931e-07 -8.51276e-05 0.101644)
(1.37562e-05 -9.76866e-05 0.109406)
(5.46533e-06 -1.76878e-05 0.0949189)
(-1.38351e-05 -1.39593e-05 0.0887177)
(-1.50894e-05 -1.31635e-05 0.0887168)
(8.5871e-06 1.02354e-05 0.106801)
(-7.68589e-06 1.51502e-06 0.0887055)
(7.15216e-07 -7.1313e-06 0.0887022)
(8.66031e-06 9.83276e-06 0.0929766)
(8.76052e-06 1.36937e-05 0.0828171)
(6.66983e-06 3.07895e-05 0.0930008)
(-2.20041e-07 -5.68188e-06 0.08283)
(-1.85678e-06 3.27251e-06 0.0716347)
(-4.19299e-06 -2.09439e-06 0.0716455)
(9.41454e-06 1.60134e-06 0.0929783)
(1.47806e-05 5.82198e-06 0.0828175)
(3.11284e-05 2.21594e-06 0.0929983)
(-4.85999e-06 -2.50684e-06 0.0828326)
(-4.92951e-05 4.94138e-05 0.110069)
(5.10114e-05 -5.08647e-05 0.110061)
(-5.59779e-05 -5.68509e-05 0.110067)
(6.21731e-05 5.76834e-05 0.110264)
(-4.57612e-05 4.78297e-05 0.110254)
(6.58981e-05 -6.37763e-05 0.110264)
(-4.84971e-05 -5.29072e-05 0.110257)
(-3.91771e-05 -3.18727e-06 0.10139)
(-6.7791e-05 7.56117e-06 0.0946648)
(-9.4407e-05 9.90796e-06 0.109576)
(-7.49523e-05 2.68973e-05 0.108596)
(-7.86526e-05 -1.53088e-06 0.10139)
(-2.34392e-05 1.49087e-06 0.0946741)
(-9.20833e-05 4.79569e-06 0.109622)
(2.96021e-06 -1.0043e-05 0.0716466)
(-2.65436e-06 -7.22424e-06 0.0716806)
(4.11319e-06 -3.76051e-05 0.10139)
(1.30194e-05 -9.4777e-05 0.109567)
(4.50997e-06 -4.79026e-05 0.0946686)
(5.86403e-05 -8.78374e-05 0.108597)
(1.12656e-06 -7.70067e-05 0.101385)
(1.72435e-05 -9.60339e-05 0.109615)
(1.3361e-05 1.35821e-06 0.0947018)
(-2.77846e-05 -8.96769e-06 0.0885205)
(-6.85825e-06 -2.89782e-05 0.088518)
(2.59313e-05 2.34131e-05 0.106742)
(-8.99211e-06 -5.39285e-06 0.088513)
(-3.05843e-06 -1.03608e-05 0.0885105)
(-1.00264e-05 8.99114e-06 0.0927788)
(-1.02287e-05 1.9348e-05 0.0826715)
(-5.87134e-06 2.83223e-05 0.0927971)
(-4.14437e-06 -1.06208e-07 0.0826662)
(2.21941e-06 1.08051e-05 0.0715573)
(1.23929e-05 6.49945e-07 0.0715817)
(9.97454e-06 -6.47943e-08 0.0927767)
(1.77898e-05 -7.44605e-06 0.0826743)
(2.84841e-05 -2.93e-06 0.0928052)
(-1.89061e-06 -2.15164e-07 0.0826654)
(-5.65582e-05 5.68759e-05 0.110321)
(6.19932e-05 -6.16662e-05 0.110334)
(-5.16573e-05 -5.28578e-05 0.110323)
(3.92356e-05 4.53926e-05 0.110509)
(-6.18388e-05 5.82125e-05 0.110517)
(3.62152e-05 -3.98307e-05 0.110507)
(-5.90798e-05 -5.29065e-05 0.110514)
(-2.94251e-05 6.53815e-06 0.10115)
(-1.95566e-05 1.13352e-05 0.094479)
(-9.46194e-05 2.12293e-05 0.109763)
(-9.29945e-05 8.20654e-05 0.108711)
(-6.77304e-05 3.38495e-06 0.101133)
(-6.60408e-06 -6.29615e-06 0.0944903)
(-9.60344e-05 2.78915e-05 0.109817)
(6.56834e-06 9.22041e-06 0.0715532)
(-7.04926e-06 -1.67641e-06 0.0715445)
(-3.4994e-06 -3.51279e-05 0.101152)
(2.52184e-05 -9.50379e-05 0.109777)
(5.23875e-06 -5.50312e-05 0.0944668)
(3.95654e-05 -7.74798e-05 0.1087)
(6.27973e-06 -6.91103e-05 0.101144)
(1.31315e-05 -9.25739e-05 0.109826)
(-8.99737e-06 -4.25284e-05 0.0944594)
(-1.55278e-05 -6.97463e-06 0.0883436)
(-8.16393e-06 -1.47792e-05 0.0883452)
(1.20501e-05 1.38966e-05 0.106708)
(-8.00735e-06 2.74832e-06 0.0883463)
(-6.63508e-07 -5.80915e-06 0.0883445)
(6.15399e-06 6.24615e-06 0.0925926)
(3.61084e-06 1.35946e-05 0.0825392)
(2.82104e-06 2.70698e-05 0.0926029)
(-6.18452e-06 -3.13552e-06 0.0825557)
(-7.78605e-06 2.52225e-06 0.0714518)
(-2.23933e-06 -3.15736e-06 0.0714691)
(4.88735e-06 4.58666e-07 0.0925918)
(1.46161e-05 2.65029e-06 0.0825355)
(2.72163e-05 2.80191e-06 0.0925956)
(-2.17521e-06 -8.91597e-06 0.0825549)
(-5.41894e-05 5.19654e-05 0.110574)
(3.96906e-05 -4.18875e-05 0.110566)
(-5.68575e-05 -5.23985e-05 0.110575)
(6.13133e-05 5.75303e-05 0.110757)
(-4.50339e-05 4.8758e-05 0.11075)
(6.32864e-05 -5.95203e-05 0.110757)
(-4.42615e-05 -4.79757e-05 0.110752)
(-2.95904e-05 -7.32355e-07 0.100912)
(-5.36154e-05 8.97243e-06 0.0942649)
(-9.32455e-05 1.52841e-05 0.109959)
(-7.76396e-05 4.15604e-05 0.108763)
(-6.6456e-05 8.28721e-07 0.100905)
(-1.49074e-05 6.37073e-06 0.0942861)
(-9.14685e-05 1.20535e-05 0.11)
(9.20524e-06 -6.9481e-06 0.0714367)
(3.55172e-06 1.16724e-05 0.0714808)
(4.90888e-06 -2.488e-05 0.100911)
(3.59874e-06 -9.05062e-05 0.109948)
(1.64638e-05 -2.64866e-05 0.0942715)
(5.85162e-05 -8.17554e-05 0.108784)
(-4.58207e-06 -6.49436e-05 0.100893)
(1.46613e-05 -9.08146e-05 0.109993)
(4.71166e-07 8.60862e-06 0.0942983)
(-2.32434e-05 -8.56182e-06 0.0881858)
(-9.28989e-06 -2.27419e-05 0.0881827)
(2.27631e-05 2.44473e-05 0.106613)
(-1.27184e-05 2.54777e-07 0.0881809)
(2.27949e-06 -1.40637e-05 0.088177)
(-1.63744e-06 5.83277e-06 0.0924285)
(-4.03845e-06 1.49831e-05 0.0824195)
(5.80815e-07 2.42867e-05 0.0924364)
(-2.97275e-06 -2.41621e-06 0.0824269)
(-1.19253e-06 6.51649e-06 0.071371)
(4.20339e-06 -1.81507e-06 0.0713961)
(6.33626e-06 -8.03495e-07 0.0924301)
(1.47904e-05 -4.80326e-06 0.0824222)
(2.39933e-05 -1.69739e-06 0.0924398)
(-2.66563e-06 -2.53794e-06 0.0824289)
(-4.67626e-05 5.02433e-05 0.110811)
(6.26131e-05 -5.91184e-05 0.110818)
(-4.39461e-05 -4.79807e-05 0.110811)
(-5.21117e-05 5.09138e-05 0.110987)
(-5.39144e-05 -5.35515e-05 0.110988)
(-2.25611e-05 1.86072e-06 0.100694)
(-3.33124e-05 9.20116e-06 0.0940887)
(-8.7573e-05 1.62814e-05 0.110123)
(-7.67027e-05 5.35513e-05 0.108843)
(-5.9373e-05 3.07455e-06 0.100677)
(-8.94156e-06 -1.26952e-06 0.0941102)
(-8.75739e-05 1.68481e-05 0.110163)
(4.7938e-06 4.41963e-07 0.071385)
(-4.62453e-06 -7.62702e-07 0.0713983)
(1.94785e-06 -2.36604e-05 0.100697)
(2.90703e-05 -9.02052e-05 0.110129)
(5.68038e-06 -4.10585e-05 0.0940911)
(5.60706e-05 -7.77966e-05 0.108836)
(7.44474e-06 -5.8542e-05 0.100682)
(2.28593e-05 -8.92583e-05 0.11017)
(-1.02849e-07 -2.19402e-05 0.0941073)
(-9.30568e-06 -1.04127e-05 0.0880399)
(-8.67647e-06 -1.00282e-05 0.0880403)
(2.17654e-05 1.89527e-05 0.10656)
(-7.82857e-07 4.926e-06 0.0880505)
(5.03823e-06 -1.01629e-06 0.0880479)
(-1.40532e-05 2.81823e-05 0.0891443)
(-2.82024e-05 1.53662e-05 0.0891475)
(-0.000147883 0.000149182 0.106644)
(2.6575e-07 1.3125e-05 0.0891214)
(-1.25439e-05 1.1316e-06 0.0891221)
(-4.78688e-06 3.5614e-06 0.0720254)
(1.60599e-06 -1.45749e-06 0.0720307)
(6.73719e-06 -9.42603e-07 0.0719623)
(-2.59112e-06 6.93873e-06 0.0719549)
(1.09857e-05 -9.02467e-06 0.10683)
(8.34455e-07 1.77348e-05 0.0890046)
(-1.71164e-05 -7.57354e-07 0.089006)
(-1.01242e-05 2.28713e-05 0.089032)
(-2.18989e-05 1.12191e-05 0.0890335)
(7.07869e-07 -6.6637e-06 0.0719604)
(-6.87369e-06 3.48792e-06 0.0719549)
(-1.77445e-05 2.68347e-06 0.0937132)
(-1.78667e-05 -1.19283e-06 0.0833658)
(9.4362e-07 -1.44126e-06 0.0833504)
(-3.94929e-05 2.42325e-06 0.0937655)
(-5.54551e-05 -2.23813e-06 0.102188)
(-9.87519e-05 -1.46108e-05 0.108879)
(-6.17616e-05 -1.29969e-05 0.0954235)
(-9.01693e-05 -4.83663e-05 0.108192)
(-9.7833e-05 -1.35993e-05 0.108939)
(-2.65785e-05 -5.27004e-06 0.0954216)
(-9.83933e-05 -2.29202e-06 0.102185)
(-1.77927e-05 9.55298e-08 0.0937129)
(-1.87667e-05 2.56144e-06 0.0833645)
(1.2253e-06 1.54527e-06 0.0833473)
(-3.96823e-05 -3.02786e-07 0.0937657)
(-9.40128e-05 4.22775e-06 0.102047)
(-9.30072e-05 5.89968e-05 0.108233)
(-2.21337e-05 4.88332e-06 0.0952947)
(-9.8739e-05 1.79126e-05 0.10906)
(-5.17652e-05 1.36369e-05 0.0952923)
(-9.82111e-05 1.88058e-05 0.108999)
(-5.09817e-05 3.88886e-06 0.102051)
(-3.78656e-05 2.48895e-06 0.0936197)
(1.8915e-06 -5.46835e-06 0.0832546)
(-1.74155e-05 8.60447e-07 0.0832639)
(-1.52858e-05 6.7154e-07 0.0935755)
(-9.42995e-05 -2.01102e-06 0.102047)
(-9.12537e-05 -5.2889e-05 0.108233)
(-9.84844e-05 -1.73698e-05 0.109059)
(-1.60263e-05 -9.90271e-07 0.0952953)
(-9.78093e-05 -1.45457e-05 0.108998)
(-5.27433e-05 -1.69108e-05 0.0952878)
(-5.0539e-05 -2.64577e-06 0.102051)
(-3.79711e-05 -2.98402e-07 0.0936195)
(1.02756e-06 3.26012e-06 0.0832539)
(-1.77289e-05 -1.40519e-06 0.0832617)
(-1.53528e-05 -2.16727e-06 0.0935747)
(-5.8278e-06 -2.40448e-06 0.0720198)
(2.71744e-06 2.76492e-07 0.0720254)
(-1.78617e-06 -6.24349e-06 0.0720192)
(1.4618e-06 2.412e-06 0.0720247)
(1.88027e-05 1.77753e-05 0.106838)
(-9.0734e-06 5.2166e-06 0.089009)
(5.88245e-06 -9.31452e-06 0.0890057)
(-1.88838e-05 -1.5312e-05 0.0890269)
(-1.44262e-05 -2.03905e-05 0.0890251)
(-6.2202e-07 6.06801e-06 0.0719625)
(-6.54449e-06 -4.28323e-06 0.0719512)
(6.31896e-06 -9.01095e-07 0.0719629)
(-3.01588e-06 -6.67572e-06 0.0719516)
(3.05755e-06 4.41315e-06 0.0718903)
(-1.73596e-06 -2.59367e-06 0.0718984)
(4.37657e-06 2.90417e-06 0.0718903)
(-2.87429e-06 -1.26419e-06 0.0718988)
(1.32056e-05 2.88689e-05 0.0889266)
(2.90925e-05 1.27921e-05 0.0889241)
(-1.6736e-05 -1.73028e-05 0.106808)
(3.48168e-06 1.52522e-05 0.0889015)
(1.51096e-05 3.80427e-06 0.0889)
(-3.67813e-06 -1.38031e-06 0.0718317)
(2.97602e-06 6.26042e-06 0.0718252)
(-2.03343e-06 -2.30871e-06 0.0718313)
(5.8818e-06 3.68168e-06 0.071825)
(0.000141221 0.000140842 0.106619)
(-1.16776e-06 1.3285e-05 0.088795)
(1.26494e-05 -3.38995e-08 0.0887935)
(1.27437e-05 2.38106e-05 0.0888153)
(2.35633e-05 1.32854e-05 0.0888128)
(-1.69076e-06 1.49564e-05 0.0934452)
(4.17049e-06 1.72613e-05 0.0831698)
(-7.18333e-07 3.53948e-05 0.0934855)
(4.25753e-06 -4.33298e-07 0.0831533)
(2.51388e-06 4.90186e-05 0.101919)
(3.8704e-05 0.000156595 0.102382)
(1.83645e-05 9.89391e-05 0.109123)
(5.44821e-05 9.05565e-05 0.108344)
(2.26735e-05 0.000188547 0.105769)
(5.36309e-06 2.46379e-05 0.0951599)
(1.71752e-05 9.80907e-05 0.109182)
(-2.8641e-06 4.85562e-05 0.101919)
(-4.12235e-05 0.000156445 0.102389)
(-1.7698e-05 9.91824e-05 0.109124)
(-5.47433e-05 8.94063e-05 0.108348)
(-2.02277e-05 0.0001889 0.105767)
(2.42105e-06 2.47954e-05 0.0951542)
(-1.78012e-05 9.78473e-05 0.109183)
(4.16071e-08 3.53035e-05 0.0933537)
(-3.8565e-06 -2.11864e-06 0.0830675)
(-6.00887e-07 1.72949e-05 0.0830735)
(-1.31558e-06 1.33401e-05 0.0933191)
(-2.08546e-06 3.51359e-05 0.0933532)
(-6.05936e-06 -4.29101e-06 0.0830637)
(-1.10408e-06 1.74548e-05 0.0830676)
(-3.94421e-06 1.30781e-05 0.0933181)
(1.72844e-06 8.74239e-05 0.101778)
(5.2163e-05 8.91409e-05 0.108381)
(1.51248e-06 2.11051e-05 0.0950372)
(1.54605e-05 9.7556e-05 0.109294)
(1.41034e-05 5.20281e-05 0.0950314)
(1.65885e-05 9.75231e-05 0.109239)
(8.26957e-07 4.63931e-05 0.101782)
(-3.32168e-06 8.70876e-05 0.101778)
(-5.04863e-05 8.71068e-05 0.108384)
(-9.18978e-06 1.30247e-05 0.095039)
(-1.66142e-05 9.75189e-05 0.109293)
(-8.36409e-06 5.28997e-05 0.0950248)
(-1.65303e-05 9.71034e-05 0.109239)
(-4.45372e-06 4.60032e-05 0.101781)
(-8.93763e-06 2.86317e-05 0.0889139)
(-2.8958e-05 8.90903e-06 0.088916)
(1.10533e-05 -1.14939e-05 0.106827)
(4.38661e-06 1.58093e-05 0.0888938)
(-1.63193e-05 -4.98289e-06 0.0888946)
(-7.78915e-06 -3.03108e-06 0.0718874)
(2.16381e-06 -4.01872e-06 0.0718948)
(-6.28269e-06 -4.29326e-06 0.0718408)
(-5.80701e-06 4.36219e-06 0.071822)
(-0.000145756 0.000144867 0.106636)
(-9.40443e-06 -3.71467e-06 0.0888107)
(3.20835e-06 8.77386e-06 0.0888118)
(-9.56909e-06 2.09375e-05 0.0888121)
(-2.13518e-05 8.87296e-06 0.0888139)
(3.88143e-06 5.77422e-06 0.0718408)
(-4.61169e-06 5.15302e-06 0.0718226)
(4.88026e-05 1.92615e-06 0.10192)
(0.000157155 3.74268e-05 0.102381)
(9.98626e-05 1.58367e-05 0.109124)
(9.10182e-05 5.33868e-05 0.108345)
(0.000189211 2.07158e-05 0.105769)
(2.45838e-05 5.56379e-06 0.09516)
(9.88063e-05 1.51649e-05 0.109184)
(1.42671e-05 -2.17652e-06 0.0934478)
(1.51478e-05 -3.03936e-07 0.0831707)
(3.55336e-05 -2.31133e-06 0.0934861)
(-1.45414e-06 6.84062e-06 0.0831601)
(4.84347e-05 -4.50121e-06 0.10192)
(0.000100887 -2.08837e-05 0.109123)
(0.000177188 -3.48894e-05 0.104394)
(9.37466e-05 -6.24511e-05 0.108342)
(0.000188827 -2.23283e-05 0.105769)
(9.92633e-05 -2.07143e-05 0.109185)
(2.56633e-05 -3.95972e-06 0.0951624)
(3.49886e-05 2.66414e-07 0.093357)
(-2.84673e-06 -2.45883e-06 0.0830673)
(1.69903e-05 8.92616e-08 0.0830742)
(1.37375e-05 1.79505e-06 0.0933193)
(8.70525e-05 1.37991e-06 0.10178)
(8.92975e-05 5.18162e-05 0.108382)
(2.06995e-05 2.38404e-06 0.095037)
(9.73325e-05 1.70571e-05 0.109296)
(5.19202e-05 1.44449e-05 0.0950317)
(9.78224e-05 1.61373e-05 0.109241)
(4.70737e-05 2.19025e-06 0.101784)
(3.48138e-05 -1.66775e-06 0.0933569)
(-2.31895e-06 -1.31886e-08 0.0830629)
(1.77932e-05 3.79458e-06 0.0830741)
(1.39728e-05 1.41192e-07 0.0933192)
(8.6782e-05 -4.49041e-06 0.101781)
(8.76359e-05 -5.22496e-05 0.10838)
(9.63747e-05 -1.48289e-05 0.109296)
(2.48092e-05 -2.50488e-06 0.0950328)
(9.71886e-05 -1.8217e-05 0.109242)
(5.64434e-05 -1.21234e-05 0.0950285)
(4.74105e-05 -2.2341e-06 0.101783)
(-1.45735e-05 6.12469e-07 0.0934439)
(-1.71499e-05 -4.74509e-06 0.0831693)
(-3.5447e-05 2.94074e-07 0.0934848)
(3.82146e-07 -4.98865e-06 0.0831542)
(-4.81429e-05 -4.04012e-06 0.101917)
(-9.90272e-05 -2.01594e-05 0.109121)
(-4.61071e-05 -1.01757e-05 0.0951627)
(-9.34795e-05 -6.40638e-05 0.108349)
(-8.89863e-05 -3.40681e-06 0.101912)
(-9.87367e-05 -2.10169e-05 0.109183)
(-2.39586e-05 -6.10006e-07 0.0951613)
(-1.43181e-05 -1.66115e-06 0.0934441)
(-1.7022e-05 2.36449e-06 0.08317)
(-3.54357e-05 -2.43543e-06 0.0934845)
(1.81731e-06 6.96375e-06 0.083159)
(-8.67856e-05 1.90316e-06 0.101779)
(-8.76898e-05 4.97741e-05 0.108385)
(-1.31994e-05 8.34882e-06 0.0950403)
(-9.79161e-05 1.64751e-05 0.109293)
(-5.30806e-05 7.56546e-06 0.0950256)
(-9.75156e-05 1.54886e-05 0.109239)
(-4.59636e-05 3.37644e-06 0.101781)
(-3.47562e-05 1.05303e-06 0.0933544)
(3.74942e-06 5.44389e-06 0.0830645)
(-1.76312e-05 4.91404e-07 0.0830682)
(-1.32581e-05 3.21555e-06 0.0933172)
(-8.67612e-05 -3.84208e-06 0.101779)
(-8.95202e-05 -5.57525e-05 0.108385)
(-9.72189e-05 -1.56925e-05 0.109295)
(-2.16143e-05 -2.09828e-06 0.0950343)
(-9.77839e-05 -1.91845e-05 0.109241)
(-5.45725e-05 -1.15841e-05 0.095029)
(-4.61898e-05 -1.67478e-06 0.101782)
(-3.45652e-05 -1.17524e-06 0.093355)
(9.53197e-07 8.32047e-07 0.0830637)
(-1.721e-05 3.87687e-06 0.083074)
(-1.35692e-05 7.67422e-07 0.0933175)
(2.5077e-05 -1.55312e-05 0.0889324)
(1.53643e-05 -2.51493e-05 0.0889339)
(-6.92567e-06 6.63282e-06 0.1068)
(2.2721e-05 4.38521e-07 0.0888972)
(-1.02413e-06 -2.30528e-05 0.0889002)
(2.39414e-06 -5.34172e-06 0.0718929)
(-6.22133e-06 2.18481e-06 0.0719018)
(-4.50517e-06 -3.28695e-06 0.0718325)
(5.04042e-06 -1.45937e-06 0.0718271)
(0.000148679 -0.000149312 0.106609)
(1.1181e-05 -4.04827e-06 0.0887967)
(3.44176e-06 -1.15392e-05 0.0887997)
(3.13988e-05 -9.77498e-06 0.0888096)
(9.16451e-06 -3.17489e-05 0.0888114)
(2.76991e-06 4.22344e-06 0.0718331)
(9.38156e-07 -5.26443e-06 0.0718269)
(-3.4737e-06 -4.80334e-05 0.101919)
(-1.75737e-05 -9.99275e-05 0.109121)
(-4.63377e-05 -0.000148822 0.102401)
(-6.29309e-05 -9.3795e-05 0.108351)
(-2.03944e-05 -0.000186786 0.105767)
(-1.8988e-05 -9.93871e-05 0.109184)
(-6.78054e-07 -2.35793e-05 0.0951619)
(1.11076e-06 -1.39698e-05 0.0934473)
(-4.19188e-08 -1.53237e-05 0.08317)
(1.90733e-06 -3.57444e-05 0.0934849)
(-7.34416e-06 1.27002e-06 0.0831605)
(-1.32322e-06 -1.3851e-05 0.0934468)
(2.12939e-06 -1.742e-05 0.0831709)
(-1.31065e-06 -3.58528e-05 0.0934848)
(6.35128e-06 2.0936e-06 0.0831596)
(2.98712e-06 -8.6489e-05 0.10178)
(5.14558e-05 -8.79442e-05 0.108382)
(1.46626e-05 -9.67192e-05 0.109297)
(1.80657e-06 -2.50961e-05 0.0950345)
(1.71395e-05 -9.75342e-05 0.109243)
(1.13857e-05 -5.6644e-05 0.0950297)
(1.18266e-06 -4.72925e-05 0.101785)
(-3.57023e-06 -8.64036e-05 0.10178)
(-5.54423e-05 -8.96657e-05 0.108386)
(-1.73e-05 -9.69872e-05 0.109297)
(-2.94252e-06 -2.12234e-05 0.0950343)
(-1.87402e-05 -9.805e-05 0.109242)
(-1.20231e-05 -5.42877e-05 0.0950303)
(-3.06164e-06 -4.67916e-05 0.101785)
(6.52259e-07 -3.44372e-05 0.0933573)
(-6.55478e-07 2.03295e-06 0.0830637)
(-4.30374e-06 -1.79781e-05 0.0830742)
(-9.22747e-07 -1.4145e-05 0.0933192)
(-1.37787e-06 -3.42437e-05 0.0933571)
(-4.47206e-07 1.64125e-06 0.0830633)
(3.31042e-06 -1.67681e-05 0.0830747)
(-2.37541e-06 -1.39745e-05 0.0933188)
(-8.32569e-06 1.90633e-06 0.0718888)
(1.97826e-06 6.28066e-06 0.0718978)
(1.75253e-06 -8.56528e-06 0.0718893)
(5.87834e-06 2.30801e-06 0.071897)
(-0.000150749 -0.000151011 0.106635)
(-7.73984e-06 -2.48563e-06 0.0888002)
(-3.50134e-06 -7.27454e-06 0.0887982)
(-2.92897e-05 -9.25807e-06 0.0888104)
(-9.74788e-06 -2.91448e-05 0.0888102)
(2.60142e-06 -7.04305e-07 0.0718342)
(-5.85347e-06 -6.26553e-07 0.0718241)
(-1.7818e-06 3.28237e-06 0.0718336)
(-1.11115e-06 -5.35436e-06 0.0718241)
(3.12554e-07 6.84936e-06 0.0717605)
(-7.03495e-06 -7.43119e-07 0.0717737)
(6.26176e-06 1.64064e-06 0.0717592)
(-5.15649e-07 -6.89141e-06 0.0717716)
(9.97965e-06 2.37236e-05 0.0887108)
(2.29556e-05 1.12274e-05 0.0887079)
(-1.53196e-05 -1.351e-05 0.106804)
(-4.44707e-06 1.58555e-05 0.0886905)
(1.52217e-05 -3.7254e-06 0.0886875)
(5.00367e-06 -4.63372e-06 0.07172)
(4.657e-08 6.56709e-06 0.0717038)
(-3.55439e-06 2.98263e-06 0.071719)
(7.08792e-06 -4.34722e-07 0.071701)
(0.000140569 0.000142226 0.106603)
(3.42621e-06 -5.81847e-07 0.0886118)
(4.61979e-07 1.70878e-06 0.0886085)
(6.22653e-06 2.34493e-05 0.0886105)
(2.32204e-05 6.44168e-06 0.0886059)
(-4.17027e-06 1.13236e-05 0.0932039)
(-7.24561e-06 1.35164e-05 0.0829871)
(-4.766e-06 3.25151e-05 0.0932298)
(6.45962e-06 -2.93681e-06 0.0829941)
(4.15129e-09 4.14965e-05 0.101653)
(1.26699e-05 4.95856e-05 0.0949113)
(1.38108e-05 9.7783e-05 0.109351)
(5.44162e-05 8.97839e-05 0.108482)
(7.64354e-07 8.34425e-05 0.101643)
(-5.13887e-07 2.02897e-05 0.0949131)
(1.25829e-05 9.74255e-05 0.109408)
(-6.16102e-06 4.09713e-05 0.101653)
(-2.19484e-05 3.78508e-05 0.0949168)
(-2.0213e-05 9.84607e-05 0.109349)
(-7.47517e-05 9.67797e-05 0.108481)
(-5.23252e-06 8.28771e-05 0.101643)
(-4.81741e-06 1.22014e-05 0.0949248)
(-2.48275e-05 9.88817e-05 0.109407)
(-4.90786e-07 3.1564e-05 0.0931167)
(4.27707e-06 -3.04427e-06 0.082894)
(-2.88755e-06 1.71237e-05 0.0829)
(4.87985e-06 1.13267e-05 0.0930875)
(-2.60939e-06 3.13561e-05 0.0931178)
(1.27911e-05 8.69939e-07 0.0828988)
(7.72341e-06 1.65378e-05 0.082914)
(4.33435e-06 1.14954e-05 0.0930896)
(3.60064e-07 7.89546e-05 0.101516)
(4.90933e-05 8.59265e-05 0.108516)
(1.01287e-06 1.47881e-05 0.0947986)
(1.4436e-05 9.61634e-05 0.109517)
(7.89989e-06 4.8784e-05 0.0947879)
(1.23541e-05 9.66415e-05 0.109465)
(2.89999e-06 4.09457e-05 0.101523)
(-5.56744e-06 7.87339e-05 0.101518)
(-7.12495e-05 9.40576e-05 0.108515)
(3.43985e-06 3.8184e-05 0.0947888)
(-1.97185e-05 9.63754e-05 0.109522)
(-1.13462e-05 4.73109e-05 0.0947976)
(-2.55603e-05 9.81759e-05 0.109466)
(-6.3629e-07 4.16604e-05 0.101524)
(-1.96131e-05 6.01545e-06 0.0887282)
(-6.32581e-06 1.90457e-05 0.0887303)
(-7.88013e-06 7.56249e-06 0.106797)
(2.39296e-06 1.83816e-05 0.0887005)
(-1.81311e-05 -2.59939e-06 0.0887027)
(-5.65286e-06 8.37681e-06 0.0717737)
(-1.53741e-07 -8.74855e-06 0.0717888)
(6.34464e-06 -4.4236e-06 0.0717091)
(5.40405e-06 7.47589e-06 0.0717159)
(-0.000162364 0.000161897 0.106591)
(4.30853e-06 3.71381e-05 0.0885772)
(-3.71389e-05 -3.97379e-06 0.0885796)
(-5.07756e-06 3.7289e-05 0.0886102)
(-3.70921e-05 4.99329e-06 0.0886134)
(4.91051e-06 -5.78593e-06 0.0717091)
(-7.35602e-06 -5.36913e-06 0.0717154)
(4.1789e-05 3.84298e-06 0.101649)
(4.89936e-05 1.3884e-05 0.094911)
(9.69544e-05 1.70538e-05 0.109352)
(8.84138e-05 5.68782e-05 0.108482)
(8.45531e-05 3.12816e-06 0.101644)
(1.94307e-05 1.29515e-06 0.0949113)
(9.61198e-05 1.6747e-05 0.109408)
(1.13899e-05 -4.90283e-08 0.0931991)
(1.51984e-05 -3.05282e-06 0.0829823)
(3.34134e-05 3.28977e-07 0.0932301)
(-2.43104e-06 6.96768e-06 0.0829846)
(4.21086e-05 -1.29481e-06 0.101649)
(9.69366e-05 -1.36637e-05 0.10935)
(5.02952e-05 -1.55817e-05 0.0949077)
(9.21475e-05 -5.90703e-05 0.108477)
(8.50165e-05 -1.6418e-06 0.101644)
(9.71812e-05 -1.56695e-05 0.109407)
(1.74424e-05 -5.97673e-06 0.0949171)
(3.13288e-05 1.2241e-06 0.0931124)
(-2.0013e-06 1.60016e-06 0.0828935)
(1.74974e-05 -3.36334e-06 0.0828984)
(1.15726e-05 1.80948e-06 0.093083)
(7.85398e-05 3.51378e-06 0.101512)
(8.46468e-05 5.13749e-05 0.108516)
(1.51497e-05 -2.52605e-07 0.0947967)
(9.51523e-05 1.70311e-05 0.109515)
(4.81036e-05 9.31629e-06 0.094786)
(9.51768e-05 1.65645e-05 0.109463)
(3.99443e-05 1.86774e-06 0.101519)
(3.12153e-05 -1.42918e-07 0.0931126)
(3.90496e-07 4.65696e-06 0.0828907)
(1.72179e-05 7.54028e-06 0.0829036)
(1.16044e-05 2.09098e-07 0.0930833)
(7.86511e-05 -1.66377e-06 0.101513)
(8.81555e-05 -5.64342e-05 0.108511)
(9.43826e-05 -1.61243e-05 0.109516)
(2.29128e-05 8.6466e-06 0.0947874)
(9.59466e-05 -1.76887e-05 0.109464)
(4.74363e-05 -1.17635e-05 0.0947884)
(3.97296e-05 -1.62668e-06 0.101519)
(-1.1368e-05 2.84086e-06 0.0932033)
(-1.40402e-05 6.73428e-06 0.0829873)
(-3.29205e-05 3.93541e-06 0.0932308)
(2.74273e-06 -6.43813e-06 0.0829949)
(-4.16187e-05 -9.80639e-07 0.101651)
(-9.76467e-05 -1.34804e-05 0.109349)
(-4.68256e-05 -1.31869e-05 0.09491)
(-9.29933e-05 -6.06576e-05 0.10848)
(-8.34941e-05 -1.07145e-06 0.101644)
(-9.84826e-05 -1.46212e-05 0.109405)
(-1.17713e-05 -3.62944e-06 0.0949248)
(-1.14071e-05 -1.45859e-07 0.0932024)
(-1.66663e-05 -2.71528e-06 0.0829831)
(-3.33293e-05 1.17893e-06 0.0932311)
(3.57264e-06 2.88551e-06 0.0829875)
(-7.88379e-05 4.59816e-06 0.101518)