/*--------------------------------*- C++ -*----------------------------------*\
| =========                 |                                                 |
| \\      /  F ield         | OpenFOAM: The Open Source CFD Toolbox           |
|  \\    /   O peration     | Version:  v2012                                 |
|   \\  /    A nd           | Website:  www.openfoam.com                      |
|    \\/     M anipulation  |                                                 |
\*---------------------------------------------------------------------------*/
FoamFile
{
    version     2.0;
    format      ascii;
    class       volScalarField;
    location    "0.015";
    object      p;
}
// * * * * * * * * * * * * * * * * * * * * * * * * * * * * * * * * * * * * * //

dimensions      [0 2 -2 0 0 0 0];


internalField   nonuniform List<scalar> 
247104
(
2.31187e-06
2.30718e-06
2.3072e-06
2.30972e-06
2.3104e-06
2.30944e-06
2.30711e-06
2.30696e-06
2.30717e-06
2.30758e-06
2.30838e-06
2.30923e-06
2.30947e-06
2.30916e-06
2.30829e-06
2.3075e-06
2.30715e-06
2.30838e-06
2.30832e-06
2.30817e-06
2.30812e-06
2.30819e-06
2.30836e-06
2.30836e-06
2.30684e-06
2.30965e-06
2.30921e-06
2.30816e-06
2.30746e-06
2.30724e-06
2.30753e-06
2.3083e-06
2.30936e-06
2.30957e-06
2.31173e-06
2.31033e-06
2.30944e-06
2.30811e-06
2.30724e-06
2.30698e-06
2.30733e-06
2.30828e-06
2.30963e-06
2.31039e-06
2.30938e-06
2.30914e-06
2.30819e-06
2.30753e-06
2.30733e-06
2.3076e-06
2.30832e-06
2.30928e-06
2.30925e-06
2.30706e-06
2.30829e-06
2.30836e-06
2.3083e-06
2.30828e-06
2.30832e-06
2.30839e-06
2.30826e-06
2.3068e-06
2.30705e-06
2.3075e-06
2.30836e-06
2.30936e-06
2.30964e-06
2.30928e-06
2.30827e-06
2.30743e-06
2.30686e-06
2.30958e-06
2.3104e-06
2.30926e-06
2.30681e-06
2.25626e-06
2.25853e-06
2.26647e-06
2.26568e-06
2.26101e-06
2.26383e-06
2.26162e-06
2.27297e-06
2.26637e-06
2.2665e-06
2.26371e-06
2.25722e-06
2.25695e-06
2.25696e-06
2.25725e-06
2.26336e-06
2.26511e-06
2.26558e-06
2.25718e-06
2.2574e-06
2.25752e-06
2.25753e-06
2.25744e-06
2.25726e-06
2.26427e-06
2.27793e-06
2.25613e-06
2.26093e-06
2.25691e-06
2.2575e-06
2.25787e-06
2.25788e-06
2.25754e-06
2.25698e-06
2.26196e-06
2.26274e-06
2.25841e-06
2.26375e-06
2.25691e-06
2.2575e-06
2.25787e-06
2.25788e-06
2.25754e-06
2.25698e-06
2.26316e-06
2.26182e-06
2.26151e-06
2.25719e-06
2.2574e-06
2.25751e-06
2.25752e-06
2.25744e-06
2.25726e-06
2.26229e-06
2.2574e-06
2.2729e-06
2.26328e-06
2.25722e-06
2.25694e-06
2.25694e-06
2.25723e-06
2.26265e-06
2.26432e-06
2.27615e-06
2.26623e-06
2.26495e-06
2.26423e-06
2.26192e-06
2.26312e-06
2.26225e-06
2.26431e-06
2.28004e-06
2.27793e-06
2.26272e-06
2.26174e-06
2.25732e-06
2.27619e-06
2.24536e-06
2.24443e-06
2.24279e-06
2.24256e-06
2.24227e-06
2.24221e-06
2.24256e-06
2.24551e-06
2.24478e-06
2.24295e-06
2.24108e-06
2.24092e-06
2.23955e-06
2.23949e-06
2.24063e-06
2.24434e-06
2.24245e-06
2.24231e-06
2.2405e-06
2.23984e-06
2.23934e-06
2.23934e-06
2.23987e-06
2.24079e-06
2.24557e-06
2.24622e-06
2.2452e-06
2.24206e-06
2.23937e-06
2.23927e-06
2.2391e-06
2.23913e-06
2.23936e-06
2.23956e-06
2.24422e-06
2.24597e-06
2.24397e-06
2.24203e-06
2.23934e-06
2.23926e-06
2.23909e-06
2.23912e-06
2.23939e-06
2.23964e-06
2.24362e-06
2.24242e-06
2.24238e-06
2.24047e-06
2.2398e-06
2.2393e-06
2.23932e-06
2.23991e-06
2.24106e-06
2.24513e-06
2.24651e-06
2.24535e-06
2.24419e-06
2.24085e-06
2.23945e-06
2.23941e-06
2.24054e-06
2.24521e-06
2.24403e-06
2.24524e-06
2.24468e-06
2.24218e-06
2.24547e-06
2.24411e-06
2.24346e-06
2.24487e-06
2.24391e-06
2.2504e-06
2.2461e-06
2.24585e-06
2.24243e-06
2.24633e-06
2.24501e-06
2.21859e-06
2.21844e-06
2.21712e-06
2.21535e-06
2.21556e-06
2.21574e-06
2.21589e-06
2.21961e-06
2.21981e-06
2.21718e-06
2.21343e-06
2.21354e-06
2.21279e-06
2.21282e-06
2.21365e-06
2.22013e-06
2.21584e-06
2.21537e-06
2.21362e-06
2.21335e-06
2.2131e-06
2.21311e-06
2.21336e-06
2.21353e-06
2.2217e-06
2.21977e-06
2.21842e-06
2.21552e-06
2.21278e-06
2.21309e-06
2.21312e-06
2.21312e-06
2.21309e-06
2.21275e-06
2.22013e-06
2.21907e-06
2.21828e-06
2.21572e-06
2.21277e-06
2.21309e-06
2.21311e-06
2.21311e-06
2.21308e-06
2.21274e-06
2.21916e-06
2.21622e-06
2.21583e-06
2.21357e-06
2.21333e-06
2.21308e-06
2.21309e-06
2.21333e-06
2.21349e-06
2.22111e-06
2.21957e-06
2.2195e-06
2.22003e-06
2.21351e-06
2.21276e-06
2.21278e-06
2.21359e-06
2.22247e-06
2.21887e-06
2.21918e-06
2.21954e-06
2.21592e-06
2.22165e-06
2.22012e-06
2.21918e-06
2.22115e-06
2.2189e-06
2.2262e-06
2.21972e-06
2.21912e-06
2.21634e-06
2.21956e-06
2.21923e-06
2.19433e-06
2.19398e-06
2.19244e-06
2.19099e-06
2.19096e-06
2.19159e-06
2.19153e-06
2.19552e-06
2.19557e-06
2.19271e-06
2.18916e-06
2.18778e-06
2.18765e-06
2.18766e-06
2.18785e-06
2.19756e-06
2.19207e-06
2.19103e-06
2.18781e-06
2.1878e-06
2.18778e-06
2.18779e-06
2.18783e-06
2.1878e-06
2.19945e-06
2.19558e-06
2.19423e-06
2.19103e-06
2.18764e-06
2.18777e-06
2.18781e-06
2.18782e-06
2.18779e-06
2.18767e-06
2.19784e-06
2.19478e-06
2.19389e-06
2.19158e-06
2.18764e-06
2.18777e-06
2.18781e-06
2.18781e-06
2.18779e-06
2.18768e-06
2.19679e-06
2.19216e-06
2.19145e-06
2.18781e-06
2.1878e-06
2.18777e-06
2.18778e-06
2.18783e-06
2.18783e-06
2.19894e-06
2.19538e-06
2.19537e-06
2.19753e-06
2.18777e-06
2.18764e-06
2.18764e-06
2.18783e-06
2.20112e-06
2.19609e-06
2.19503e-06
2.19542e-06
2.19243e-06
2.19949e-06
2.19787e-06
2.19678e-06
2.19893e-06
2.19625e-06
2.20125e-06
2.19555e-06
2.19477e-06
2.19219e-06
2.19535e-06
2.19493e-06
2.17054e-06
2.16961e-06
2.16956e-06
2.16756e-06
2.16711e-06
2.16778e-06
2.16781e-06
2.17228e-06
2.17231e-06
2.16985e-06
2.16581e-06
2.16355e-06
2.16353e-06
2.16353e-06
2.16361e-06
2.17462e-06
2.16929e-06
2.16761e-06
2.16358e-06
2.16357e-06
2.16357e-06
2.16357e-06
2.16359e-06
2.16358e-06
2.17658e-06
2.17227e-06
2.17052e-06
2.16708e-06
2.16353e-06
2.16356e-06
2.16358e-06
2.16358e-06
2.16358e-06
2.16355e-06
2.17483e-06
2.1711e-06
2.17009e-06
2.16772e-06
2.16353e-06
2.16356e-06
2.16357e-06
2.16358e-06
2.16357e-06
2.16355e-06
2.17378e-06
2.1684e-06
2.16779e-06
2.16358e-06
2.16357e-06
2.16356e-06
2.16356e-06
2.16358e-06
2.16357e-06
2.17585e-06
2.17179e-06
2.17225e-06
2.17468e-06
2.16355e-06
2.16352e-06
2.16352e-06
2.16358e-06
2.17863e-06
2.173e-06
2.17183e-06
2.17216e-06
2.16917e-06
2.17657e-06
2.17487e-06
2.17371e-06
2.17593e-06
2.17332e-06
2.17866e-06
2.17225e-06
2.17106e-06
2.16827e-06
2.17175e-06
2.17182e-06
2.14684e-06
2.1458e-06
2.14613e-06
2.1439e-06
2.14331e-06
2.1438e-06
2.14404e-06
2.14867e-06
2.14878e-06
2.14627e-06
2.14226e-06
2.13965e-06
2.13963e-06
2.13963e-06
2.13966e-06
2.15118e-06
2.14566e-06
2.14388e-06
2.13966e-06
2.13966e-06
2.13965e-06
2.13965e-06
2.13967e-06
2.13968e-06
2.1531e-06
2.14864e-06
2.14678e-06
2.14334e-06
2.13966e-06
2.13966e-06
2.13966e-06
2.13966e-06
2.13966e-06
2.13965e-06
2.15124e-06
2.14733e-06
2.14634e-06
2.14395e-06
2.13966e-06
2.13967e-06
2.13967e-06
2.13966e-06
2.13966e-06
2.13964e-06
2.15009e-06
2.14453e-06
2.14405e-06
2.13967e-06
2.13967e-06
2.13967e-06
2.13966e-06
2.13965e-06
2.13964e-06
2.15239e-06
2.14806e-06
2.1487e-06
2.15119e-06
2.13969e-06
2.13966e-06
2.13966e-06
2.13965e-06
2.15533e-06
2.14967e-06
2.14823e-06
2.14859e-06
2.1456e-06
2.15311e-06
2.15131e-06
2.15019e-06
2.15222e-06
2.1498e-06
2.15476e-06
2.14865e-06
2.14734e-06
2.1445e-06
2.148e-06
2.14816e-06
2.1231e-06
2.12206e-06
2.12239e-06
2.12014e-06
2.11959e-06
2.12011e-06
2.12024e-06
2.12495e-06
2.12504e-06
2.1224e-06
2.11858e-06
2.11582e-06
2.11582e-06
2.11582e-06
2.11583e-06
2.12742e-06
2.12192e-06
2.12015e-06
2.11583e-06
2.11582e-06
2.11582e-06
2.11583e-06
2.11583e-06
2.11582e-06
2.12942e-06
2.12487e-06
2.12301e-06
2.11962e-06
2.11582e-06
2.11583e-06
2.11583e-06
2.11583e-06
2.11583e-06
2.11582e-06
2.12756e-06
2.12358e-06
2.12255e-06
2.12009e-06
2.11583e-06
2.11583e-06
2.11583e-06
2.11583e-06
2.11583e-06
2.11582e-06
2.12634e-06
2.12074e-06
2.12031e-06
2.11582e-06
2.11583e-06
2.11583e-06
2.11583e-06
2.11583e-06
2.11584e-06
2.12866e-06
2.12431e-06
2.12496e-06
2.12751e-06
2.11584e-06
2.11583e-06
2.11584e-06
2.11583e-06
2.13163e-06
2.12589e-06
2.12448e-06
2.12489e-06
2.1219e-06
2.12942e-06
2.12758e-06
2.12644e-06
2.1285e-06
2.12611e-06
2.131e-06
2.1249e-06
2.12355e-06
2.12069e-06
2.12426e-06
2.12444e-06
2.09931e-06
2.09827e-06
2.09862e-06
2.09637e-06
2.09578e-06
2.09629e-06
2.09641e-06
2.10121e-06
2.10128e-06
2.09864e-06
2.09479e-06
2.09203e-06
2.09202e-06
2.09202e-06
2.09202e-06
2.10367e-06
2.09814e-06
2.09639e-06
2.09202e-06
2.09202e-06
2.09202e-06
2.09202e-06
2.09202e-06
2.09203e-06
2.10561e-06
2.10108e-06
2.09923e-06
2.09581e-06
2.09202e-06
2.09202e-06
2.09202e-06
2.09202e-06
2.09202e-06
2.09202e-06
2.10377e-06
2.09977e-06
2.09874e-06
2.09624e-06
2.09202e-06
2.09202e-06
2.09202e-06
2.09202e-06
2.09202e-06
2.09202e-06
2.1026e-06
2.09694e-06
2.09654e-06
2.09202e-06
2.09202e-06
2.09202e-06
2.09202e-06
2.09202e-06
2.09202e-06
2.10494e-06
2.10053e-06
2.10118e-06
2.10373e-06
2.09202e-06
2.09202e-06
2.09201e-06
2.09201e-06
2.10793e-06
2.10212e-06
2.10074e-06
2.10111e-06
2.09811e-06
2.10567e-06
2.1038e-06
2.10263e-06
2.1048e-06
2.1024e-06
2.10725e-06
2.10111e-06
2.09976e-06
2.09688e-06
2.10047e-06
2.1007e-06
2.07551e-06
2.07447e-06
2.07481e-06
2.07256e-06
2.07198e-06
2.07246e-06
2.07265e-06
2.07744e-06
2.07749e-06
2.07484e-06
2.07099e-06
2.06821e-06
2.06822e-06
2.06822e-06
2.06823e-06
2.07989e-06
2.07436e-06
2.07258e-06
2.06822e-06
2.06822e-06
2.06822e-06
2.06822e-06
2.06822e-06
2.06823e-06
2.08185e-06
2.07729e-06
2.07542e-06
2.07201e-06
2.06822e-06
2.06822e-06
2.06822e-06
2.06822e-06
2.06822e-06
2.06822e-06
2.07998e-06
2.07599e-06
2.07494e-06
2.07244e-06
2.06822e-06
2.06822e-06
2.06822e-06
2.06822e-06
2.06822e-06
2.06822e-06
2.07881e-06
2.07315e-06
2.07274e-06
2.06822e-06
2.06822e-06
2.06822e-06
2.06822e-06
2.06822e-06
2.06822e-06
2.08116e-06
2.07673e-06
2.07737e-06
2.07989e-06
2.06822e-06
2.06822e-06
2.06822e-06
2.06822e-06
2.0841e-06
2.07832e-06
2.07693e-06
2.0773e-06
2.07428e-06
2.08184e-06
2.08003e-06
2.07887e-06
2.08099e-06
2.07856e-06
2.08345e-06
2.07729e-06
2.07597e-06
2.07309e-06
2.07666e-06
2.07689e-06
2.05171e-06
2.05069e-06
2.05105e-06
2.04878e-06
2.0482e-06
2.04871e-06
2.04887e-06
2.0536e-06
2.05373e-06
2.05105e-06
2.04721e-06
2.04445e-06
2.04444e-06
2.04443e-06
2.04443e-06
2.05609e-06
2.05058e-06
2.0488e-06
2.04443e-06
2.04444e-06
2.04444e-06
2.04443e-06
2.04443e-06
2.04443e-06
2.05806e-06
2.0535e-06
2.05164e-06
2.04822e-06
2.04443e-06
2.04443e-06
2.04443e-06
2.04443e-06
2.04443e-06
2.04443e-06
2.05619e-06
2.05219e-06
2.05115e-06
2.04865e-06
2.04443e-06
2.04443e-06
2.04443e-06
2.04443e-06
2.04443e-06
2.04443e-06
2.05502e-06
2.04935e-06
2.04896e-06
2.04443e-06
2.04443e-06
2.04443e-06
2.04443e-06
2.04443e-06
2.04443e-06
2.05737e-06
2.05294e-06
2.05358e-06
2.05611e-06
2.04443e-06
2.04443e-06
2.04443e-06
2.04443e-06
2.06032e-06
2.05454e-06
2.05315e-06
2.05352e-06
2.0505e-06
2.05805e-06
2.05625e-06
2.05509e-06
2.05724e-06
2.05478e-06
2.05966e-06
2.0535e-06
2.05218e-06
2.0493e-06
2.05287e-06
2.05311e-06
2.02793e-06
2.02691e-06
2.02701e-06
2.025e-06
2.02441e-06
2.02494e-06
2.02509e-06
2.02975e-06
2.03002e-06
2.02728e-06
2.02341e-06
2.02064e-06
2.02064e-06
2.02064e-06
2.02064e-06
2.03228e-06
2.02676e-06
2.02501e-06
2.02064e-06
2.02064e-06
2.02064e-06
2.02064e-06
2.02064e-06
2.02064e-06
2.03426e-06
2.02971e-06
2.02785e-06
2.02443e-06
2.02064e-06
2.02064e-06
2.02064e-06
2.02064e-06
2.02064e-06
2.02064e-06
2.0324e-06
2.0284e-06
2.02736e-06
2.02486e-06
2.02064e-06
2.02064e-06
2.02064e-06
2.02064e-06
2.02064e-06
2.02064e-06
2.03123e-06
2.02557e-06
2.02517e-06
2.02064e-06
2.02064e-06
2.02064e-06
2.02064e-06
2.02064e-06
2.02064e-06
2.03358e-06
2.02916e-06
2.0298e-06
2.03232e-06
2.02064e-06
2.02064e-06
2.02064e-06
2.02064e-06
2.03653e-06
2.03075e-06
2.02936e-06
2.02973e-06
2.02671e-06
2.03426e-06
2.03246e-06
2.0313e-06
2.03345e-06
2.031e-06
2.03588e-06
2.02972e-06
2.02839e-06
2.02551e-06
2.02908e-06
2.02932e-06
2.00412e-06
2.00311e-06
2.00369e-06
2.00118e-06
2.0006e-06
2.00113e-06
2.00129e-06
2.00595e-06
2.00623e-06
2.00347e-06
1.99962e-06
1.99685e-06
1.99685e-06
1.99685e-06
1.99685e-06
2.00848e-06
2.00297e-06
2.00122e-06
1.99685e-06
1.99685e-06
1.99685e-06
1.99685e-06
1.99685e-06
1.99685e-06
2.01047e-06
2.00592e-06
2.00406e-06
2.00065e-06
1.99685e-06
1.99685e-06
1.99685e-06
1.99685e-06
1.99685e-06
1.99685e-06
2.00861e-06
2.00461e-06
2.00357e-06
2.00107e-06
1.99685e-06
1.99685e-06
1.99685e-06
1.99685e-06
1.99685e-06
1.99685e-06
2.00744e-06
2.00178e-06
2.00138e-06
1.99685e-06
1.99685e-06
1.99685e-06
1.99685e-06
1.99685e-06
1.99685e-06
2.00979e-06
2.00536e-06
2.00601e-06
2.00853e-06
1.99685e-06
1.99685e-06
1.99685e-06
1.99685e-06
2.01274e-06
2.00696e-06
2.00557e-06
2.00594e-06
2.00292e-06
2.01047e-06
2.00866e-06
2.00749e-06
2.00966e-06
2.00721e-06
2.01208e-06
2.00593e-06
2.0046e-06
2.00173e-06
2.00529e-06
2.00553e-06
1.98033e-06
1.97931e-06
1.97954e-06
1.9774e-06
1.97681e-06
1.97734e-06
1.9775e-06
1.98217e-06
1.98244e-06
1.97967e-06
1.97582e-06
1.97306e-06
1.97305e-06
1.97305e-06
1.97305e-06
1.9847e-06
1.97918e-06
1.97742e-06
1.97306e-06
1.97306e-06
1.97306e-06
1.97306e-06
1.97306e-06
1.97306e-06
1.98668e-06
1.98212e-06
1.98025e-06
1.97685e-06
1.97306e-06
1.97306e-06
1.97306e-06
1.97306e-06
1.97306e-06
1.97306e-06
1.98482e-06
1.98082e-06
1.97978e-06
1.97728e-06
1.97306e-06
1.97306e-06
1.97306e-06
1.97306e-06
1.97306e-06
1.97306e-06
1.98365e-06
1.97798e-06
1.97758e-06
1.97306e-06
1.97306e-06
1.97306e-06
1.97306e-06
1.97306e-06
1.97306e-06
1.98598e-06
1.98157e-06
1.98221e-06
1.98474e-06
1.97306e-06
1.97306e-06
1.97306e-06
1.97306e-06
1.98894e-06
1.98316e-06
1.98177e-06
1.98214e-06
1.97913e-06
1.98668e-06
1.98487e-06
1.98369e-06
1.98586e-06
1.98341e-06
1.98829e-06
1.98213e-06
1.98081e-06
1.97793e-06
1.9815e-06
1.98174e-06
1.95653e-06
1.95552e-06
1.95575e-06
1.95361e-06
1.95302e-06
1.95355e-06
1.95371e-06
1.95838e-06
1.95866e-06
1.95586e-06
1.95203e-06
1.94927e-06
1.94926e-06
1.94926e-06
1.94926e-06
1.9609e-06
1.95539e-06
1.95363e-06
1.94927e-06
1.94927e-06
1.94926e-06
1.94926e-06
1.94926e-06
1.94927e-06
1.96289e-06
1.95833e-06
1.95645e-06
1.95306e-06
1.94927e-06
1.94927e-06
1.94927e-06
1.94927e-06
1.94927e-06
1.94927e-06
1.96102e-06
1.95703e-06
1.95598e-06
1.95348e-06
1.94926e-06
1.94927e-06
1.94927e-06
1.94927e-06
1.94927e-06
1.94927e-06
1.95986e-06
1.95419e-06
1.95379e-06
1.94927e-06
1.94927e-06
1.94927e-06
1.94927e-06
1.94927e-06
1.94927e-06
1.96219e-06
1.95778e-06
1.95842e-06
1.96094e-06
1.94927e-06
1.94927e-06
1.94927e-06
1.94927e-06
1.96515e-06
1.95937e-06
1.95798e-06
1.95835e-06
1.95533e-06
1.96289e-06
1.96108e-06
1.9599e-06
1.96207e-06
1.95962e-06
1.9645e-06
1.95834e-06
1.95702e-06
1.95414e-06
1.95771e-06
1.95795e-06
1.93275e-06
1.93173e-06
1.93194e-06
1.92984e-06
1.92923e-06
1.92976e-06
1.9299e-06
1.93454e-06
1.93496e-06
1.93207e-06
1.92823e-06
1.92547e-06
1.92547e-06
1.92547e-06
1.92547e-06
1.93711e-06
1.9316e-06
1.92984e-06
1.92547e-06
1.92547e-06
1.92547e-06
1.92547e-06
1.92547e-06
1.92547e-06
1.9391e-06
1.93455e-06
1.93266e-06
1.92926e-06
1.92547e-06
1.92547e-06
1.92547e-06
1.92547e-06
1.92547e-06
1.92547e-06
1.93724e-06
1.93324e-06
1.93219e-06
1.92969e-06
1.92547e-06
1.92547e-06
1.92547e-06
1.92547e-06
1.92547e-06
1.92547e-06
1.93607e-06
1.9304e-06
1.93e-06
1.92547e-06
1.92547e-06
1.92547e-06
1.92547e-06
1.92547e-06
1.92547e-06
1.9384e-06
1.93399e-06
1.93463e-06
1.93715e-06
1.92547e-06
1.92547e-06
1.92547e-06
1.92548e-06
1.94136e-06
1.93558e-06
1.93419e-06
1.93456e-06
1.93154e-06
1.9391e-06
1.93729e-06
1.93611e-06
1.93828e-06
1.93583e-06
1.94071e-06
1.93455e-06
1.93323e-06
1.93035e-06
1.93392e-06
1.93416e-06
1.90894e-06
1.90793e-06
1.90815e-06
1.90604e-06
1.90543e-06
1.90595e-06
1.90612e-06
1.91083e-06
1.91106e-06
1.90827e-06
1.90443e-06
1.90166e-06
1.90167e-06
1.90167e-06
1.90167e-06
1.91332e-06
1.9078e-06
1.90604e-06
1.90167e-06
1.90167e-06
1.90167e-06
1.90167e-06
1.90168e-06
1.90168e-06
1.9153e-06
1.91075e-06
1.90887e-06
1.90547e-06
1.90168e-06
1.90167e-06
1.90168e-06
1.90168e-06
1.90168e-06
1.90168e-06
1.91344e-06
1.90944e-06
1.9084e-06
1.9059e-06
1.90168e-06
1.90168e-06
1.90168e-06
1.90168e-06
1.90168e-06
1.90168e-06
1.91227e-06
1.90661e-06
1.9062e-06
1.90168e-06
1.90168e-06
1.90168e-06
1.90168e-06
1.90168e-06
1.90168e-06
1.91461e-06
1.91019e-06
1.91083e-06
1.91336e-06
1.90168e-06
1.90168e-06
1.90168e-06
1.90168e-06
1.91757e-06
1.91179e-06
1.9104e-06
1.91076e-06
1.90775e-06
1.9153e-06
1.9135e-06
1.91233e-06
1.91449e-06
1.91204e-06
1.91692e-06
1.91076e-06
1.90944e-06
1.90659e-06
1.91013e-06
1.91036e-06
1.88515e-06
1.88412e-06
1.88435e-06
1.88224e-06
1.88164e-06
1.88217e-06
1.8823e-06
1.88699e-06
1.88729e-06
1.88449e-06
1.88064e-06
1.87788e-06
1.87788e-06
1.87788e-06
1.87787e-06
1.88955e-06
1.88402e-06
1.88225e-06
1.87788e-06
1.87788e-06
1.87788e-06
1.87788e-06
1.87788e-06
1.87789e-06
1.89152e-06
1.88696e-06
1.88507e-06
1.88167e-06
1.87788e-06
1.87788e-06
1.87788e-06
1.87788e-06
1.87788e-06
1.87788e-06
1.88965e-06
1.88565e-06
1.8846e-06
1.8821e-06
1.87788e-06
1.87788e-06
1.87788e-06
1.87788e-06
1.87788e-06
1.87788e-06
1.88848e-06
1.88281e-06
1.88241e-06
1.87788e-06
1.87788e-06
1.87788e-06
1.87788e-06
1.87788e-06
1.87788e-06
1.89081e-06
1.8864e-06
1.88704e-06
1.88956e-06
1.87788e-06
1.87788e-06
1.87788e-06
1.87788e-06
1.89377e-06
1.88799e-06
1.8866e-06
1.88697e-06
1.88395e-06
1.89151e-06
1.8897e-06
1.88853e-06
1.8907e-06
1.88824e-06
1.89312e-06
1.88696e-06
1.88564e-06
1.88279e-06
1.88633e-06
1.88657e-06
1.86136e-06
1.86034e-06
1.86056e-06
1.85844e-06
1.85785e-06
1.85837e-06
1.85852e-06
1.86322e-06
1.86347e-06
1.8607e-06
1.85684e-06
1.85408e-06
1.85408e-06
1.85408e-06
1.85408e-06
1.86571e-06
1.86021e-06
1.85845e-06
1.85408e-06
1.85408e-06
1.85408e-06
1.85408e-06
1.85408e-06
1.85408e-06
1.86771e-06
1.86316e-06
1.86128e-06
1.85788e-06
1.85408e-06
1.85408e-06
1.85408e-06
1.85408e-06
1.85408e-06
1.85408e-06
1.86585e-06
1.86185e-06
1.86081e-06
1.85831e-06
1.85408e-06
1.85408e-06
1.85408e-06
1.85408e-06
1.85409e-06
1.85409e-06
1.86468e-06
1.85901e-06
1.85861e-06
1.85408e-06
1.85408e-06
1.85408e-06
1.85409e-06
1.85409e-06
1.85409e-06
1.86701e-06
1.8626e-06
1.86324e-06
1.86577e-06
1.85408e-06
1.85409e-06
1.85409e-06
1.85409e-06
1.86998e-06
1.86419e-06
1.86281e-06
1.86317e-06
1.86015e-06
1.86771e-06
1.8659e-06
1.86473e-06
1.8669e-06
1.86444e-06
1.86933e-06
1.86316e-06
1.86184e-06
1.85899e-06
1.86253e-06
1.86277e-06
1.83756e-06
1.83655e-06
1.83677e-06
1.83464e-06
1.83405e-06
1.83458e-06
1.83474e-06
1.83943e-06
1.83967e-06
1.83691e-06
1.83307e-06
1.83029e-06
1.83029e-06
1.83029e-06
1.83029e-06
1.84191e-06
1.83642e-06
1.83466e-06
1.83029e-06
1.83029e-06
1.83029e-06
1.83029e-06
1.83029e-06
1.83029e-06
1.84391e-06
1.83936e-06
1.83748e-06
1.83408e-06
1.83029e-06
1.83029e-06
1.83029e-06
1.83029e-06
1.83029e-06
1.83029e-06
1.84205e-06
1.83805e-06
1.83701e-06
1.83451e-06
1.83029e-06
1.83029e-06
1.83029e-06
1.83029e-06
1.83029e-06
1.83029e-06
1.84088e-06
1.83521e-06
1.83481e-06
1.83029e-06
1.83029e-06
1.83029e-06
1.83029e-06
1.83029e-06
1.83029e-06
1.84322e-06
1.8388e-06
1.83944e-06
1.84197e-06
1.83029e-06
1.83029e-06
1.83029e-06
1.83029e-06
1.84618e-06
1.8404e-06
1.83901e-06
1.83937e-06
1.83636e-06
1.84391e-06
1.8421e-06
1.84092e-06
1.84311e-06
1.84065e-06
1.84553e-06
1.83936e-06
1.83804e-06
1.83517e-06
1.83875e-06
1.83898e-06
1.81377e-06
1.81275e-06
1.81298e-06
1.81084e-06
1.81026e-06
1.81078e-06
1.81094e-06
1.81565e-06
1.81587e-06
1.81311e-06
1.80927e-06
1.80649e-06
1.80649e-06
1.80649e-06
1.80648e-06
1.81811e-06
1.81262e-06
1.81086e-06
1.80649e-06
1.80649e-06
1.80649e-06
1.80649e-06
1.80649e-06
1.80649e-06
1.82012e-06
1.81556e-06
1.81368e-06
1.81028e-06
1.80649e-06
1.80649e-06
1.80649e-06
1.80649e-06
1.80649e-06
1.80649e-06
1.81825e-06
1.81425e-06
1.81321e-06
1.81071e-06
1.80649e-06
1.80649e-06
1.80649e-06
1.80649e-06
1.80649e-06
1.80649e-06
1.81708e-06
1.81141e-06
1.81101e-06
1.80649e-06
1.80649e-06
1.80649e-06
1.80649e-06
1.80649e-06
1.80649e-06
1.81942e-06
1.815e-06
1.81565e-06
1.81817e-06
1.80649e-06
1.80649e-06
1.80649e-06
1.80649e-06
1.82238e-06
1.8166e-06
1.81521e-06
1.81558e-06
1.81256e-06
1.82011e-06
1.8183e-06
1.81713e-06
1.81931e-06
1.81685e-06
1.82173e-06
1.81557e-06
1.81425e-06
1.81138e-06
1.81495e-06
1.81518e-06
1.78997e-06
1.78895e-06
1.78918e-06
1.78704e-06
1.78646e-06
1.78698e-06
1.78712e-06
1.79185e-06
1.79207e-06
1.78931e-06
1.78547e-06
1.78269e-06
1.78269e-06
1.78269e-06
1.78269e-06
1.79431e-06
1.78882e-06
1.78706e-06
1.78269e-06
1.78269e-06
1.78269e-06
1.78269e-06
1.78269e-06
1.78269e-06
1.79632e-06
1.79176e-06
1.78988e-06
1.78648e-06
1.78269e-06
1.78269e-06
1.78269e-06
1.78269e-06
1.78269e-06
1.78269e-06
1.79445e-06
1.79045e-06
1.78941e-06
1.78691e-06
1.78269e-06
1.78269e-06
1.78269e-06
1.78269e-06
1.78269e-06
1.78269e-06
1.79328e-06
1.78762e-06
1.78721e-06
1.78269e-06
1.78269e-06
1.78269e-06
1.78269e-06
1.78269e-06
1.78269e-06
1.79562e-06
1.7912e-06
1.79185e-06
1.79437e-06
1.78269e-06
1.78269e-06
1.78269e-06
1.78269e-06
1.79858e-06
1.7928e-06
1.79141e-06
1.79178e-06
1.78876e-06
1.79632e-06
1.79451e-06
1.79334e-06
1.79551e-06
1.79305e-06
1.79793e-06
1.79177e-06
1.79046e-06
1.78764e-06
1.79115e-06
1.79138e-06
1.76617e-06
1.76515e-06
1.76538e-06
1.76323e-06
1.76266e-06
1.76318e-06
1.76332e-06
1.76807e-06
1.76828e-06
1.76551e-06
1.76167e-06
1.75889e-06
1.75889e-06
1.75889e-06
1.75889e-06
1.77051e-06
1.76502e-06
1.76326e-06
1.75889e-06
1.75889e-06
1.75889e-06
1.75889e-06
1.75889e-06
1.75889e-06
1.77252e-06
1.76796e-06
1.76608e-06
1.76268e-06
1.75889e-06
1.75889e-06
1.75889e-06
1.75889e-06
1.75889e-06
1.75889e-06
1.77065e-06
1.76665e-06
1.76561e-06
1.76311e-06
1.75889e-06
1.75889e-06
1.75889e-06
1.75889e-06
1.75889e-06
1.75889e-06
1.76948e-06
1.76382e-06
1.76341e-06
1.75889e-06
1.75889e-06
1.75889e-06
1.75889e-06
1.75889e-06
1.75889e-06
1.77182e-06
1.7674e-06
1.76805e-06
1.77057e-06
1.75889e-06
1.75889e-06
1.75889e-06
1.75889e-06
1.77478e-06
1.769e-06
1.76761e-06
1.76798e-06
1.76496e-06
1.77252e-06
1.77071e-06
1.76954e-06
1.77171e-06
1.76925e-06
1.77413e-06
1.76797e-06
1.76665e-06
1.76384e-06
1.76735e-06
1.76758e-06
1.74236e-06
1.74135e-06
1.74159e-06
1.73943e-06
1.73886e-06
1.73938e-06
1.73952e-06
1.74425e-06
1.74448e-06
1.74172e-06
1.73787e-06
1.73509e-06
1.73509e-06
1.73509e-06
1.73509e-06
1.74671e-06
1.74121e-06
1.73946e-06
1.73509e-06
1.73509e-06
1.73509e-06
1.73509e-06
1.73509e-06
1.73509e-06
1.74872e-06
1.74416e-06
1.74228e-06
1.73888e-06
1.73509e-06
1.73509e-06
1.73509e-06
1.73509e-06
1.73509e-06
1.73509e-06
1.74685e-06
1.74285e-06
1.74181e-06
1.73931e-06
1.73509e-06
1.73509e-06
1.73509e-06
1.73509e-06
1.73509e-06
1.73509e-06
1.74568e-06
1.74002e-06
1.73961e-06
1.73509e-06
1.73509e-06
1.73509e-06
1.73509e-06
1.73509e-06
1.73509e-06
1.74802e-06
1.7436e-06
1.74425e-06
1.74678e-06
1.73509e-06
1.73509e-06
1.73509e-06
1.73509e-06
1.75098e-06
1.7452e-06
1.74381e-06
1.74418e-06
1.74116e-06
1.74872e-06
1.74692e-06
1.74575e-06
1.74792e-06
1.74545e-06
1.75033e-06
1.74418e-06
1.74287e-06
1.74006e-06
1.74355e-06
1.74378e-06
1.71856e-06
1.71755e-06
1.71779e-06
1.71563e-06
1.71506e-06
1.71558e-06
1.71573e-06
1.72045e-06
1.72069e-06
1.71791e-06
1.71407e-06
1.71129e-06
1.71129e-06
1.71129e-06
1.71129e-06
1.72292e-06
1.71742e-06
1.71566e-06
1.71129e-06
1.71129e-06
1.71129e-06
1.71129e-06
1.71129e-06
1.71129e-06
1.72492e-06
1.72036e-06
1.7185e-06
1.71509e-06
1.71129e-06
1.71129e-06
1.71129e-06
1.71129e-06
1.71129e-06
1.71129e-06
1.72306e-06
1.71906e-06
1.71802e-06
1.71552e-06
1.71129e-06
1.71129e-06
1.71129e-06
1.71129e-06
1.71129e-06
1.71129e-06
1.72189e-06
1.71622e-06
1.71582e-06
1.71129e-06
1.7113e-06
1.71129e-06
1.71129e-06
1.71129e-06
1.71129e-06
1.72422e-06
1.71981e-06
1.72045e-06
1.72298e-06
1.7113e-06
1.7113e-06
1.7113e-06
1.7113e-06
1.72719e-06
1.7214e-06
1.72001e-06
1.72038e-06
1.71737e-06
1.72493e-06
1.72313e-06
1.72196e-06
1.72412e-06
1.72165e-06
1.72653e-06
1.72039e-06
1.71908e-06
1.71631e-06
1.71976e-06
1.71998e-06
1.69475e-06
1.69375e-06
1.69399e-06
1.69184e-06
1.69125e-06
1.69177e-06
1.69193e-06
1.69664e-06
1.69689e-06
1.69409e-06
1.69026e-06
1.6875e-06
1.68749e-06
1.68749e-06
1.68749e-06
1.69912e-06
1.69362e-06
1.69187e-06
1.6875e-06
1.6875e-06
1.6875e-06
1.68749e-06
1.68749e-06
1.68749e-06
1.70112e-06
1.69657e-06
1.69471e-06
1.69129e-06
1.6875e-06
1.6875e-06
1.6875e-06
1.6875e-06
1.68749e-06
1.68749e-06
1.69926e-06
1.69526e-06
1.69422e-06
1.69172e-06
1.6875e-06
1.6875e-06
1.6875e-06
1.6875e-06
1.6875e-06
1.6875e-06
1.69809e-06
1.69242e-06
1.69202e-06
1.6875e-06
1.6875e-06
1.6875e-06
1.6875e-06
1.6875e-06
1.6875e-06
1.70042e-06
1.69601e-06
1.69666e-06
1.69918e-06
1.6875e-06
1.6875e-06
1.6875e-06
1.6875e-06
1.70339e-06
1.6976e-06
1.69622e-06
1.69658e-06
1.69357e-06
1.70112e-06
1.69932e-06
1.69815e-06
1.70032e-06
1.69786e-06
1.70274e-06
1.69658e-06
1.69528e-06
1.69246e-06
1.69595e-06
1.69618e-06
1.67097e-06
1.66995e-06
1.67018e-06
1.66805e-06
1.66746e-06
1.66798e-06
1.66812e-06
1.67282e-06
1.67308e-06
1.6703e-06
1.66645e-06
1.66369e-06
1.66369e-06
1.66369e-06
1.6637e-06
1.67532e-06
1.66981e-06
1.66806e-06
1.66369e-06
1.66369e-06
1.66369e-06
1.66369e-06
1.6637e-06
1.6637e-06
1.67732e-06
1.67276e-06
1.67091e-06
1.66749e-06
1.66369e-06
1.66369e-06
1.66369e-06
1.66369e-06
1.66369e-06
1.6637e-06
1.67546e-06
1.67146e-06
1.67042e-06
1.66792e-06
1.66369e-06
1.66369e-06
1.66369e-06
1.66369e-06
1.66369e-06
1.66369e-06
1.67429e-06
1.66862e-06
1.66822e-06
1.66369e-06
1.66369e-06
1.66369e-06
1.66369e-06
1.66369e-06
1.66369e-06
1.67662e-06
1.67221e-06
1.67285e-06
1.67538e-06
1.66369e-06
1.6637e-06
1.6637e-06
1.6637e-06
1.67959e-06
1.6738e-06
1.67242e-06
1.67278e-06
1.66977e-06
1.67732e-06
1.67552e-06
1.67434e-06
1.67652e-06
1.67406e-06
1.67894e-06
1.67278e-06
1.67148e-06
1.66865e-06
1.67215e-06
1.67238e-06
1.64717e-06
1.64615e-06
1.64637e-06
1.64424e-06
1.64365e-06
1.64417e-06
1.64432e-06
1.64902e-06
1.64928e-06
1.6465e-06
1.64265e-06
1.63989e-06
1.63989e-06
1.63989e-06
1.63988e-06
1.65151e-06
1.64601e-06
1.64426e-06
1.63989e-06
1.63989e-06
1.63989e-06
1.63989e-06
1.63989e-06
1.63989e-06
1.65352e-06
1.64896e-06
1.6471e-06
1.64368e-06
1.63989e-06
1.63989e-06
1.63989e-06
1.63989e-06
1.63989e-06
1.63989e-06
1.65165e-06
1.64765e-06
1.64661e-06
1.64411e-06
1.63989e-06
1.63989e-06
1.63989e-06
1.63989e-06
1.63989e-06
1.63989e-06
1.65048e-06
1.64482e-06
1.64442e-06
1.63989e-06
1.63989e-06
1.63989e-06
1.63989e-06
1.63989e-06
1.63989e-06
1.65282e-06
1.64841e-06
1.64905e-06
1.65157e-06
1.63989e-06
1.63989e-06
1.63989e-06
1.63989e-06
1.65578e-06
1.65e-06
1.64861e-06
1.64898e-06
1.64596e-06
1.65352e-06
1.65171e-06
1.65053e-06
1.65271e-06
1.65025e-06
1.65513e-06
1.64897e-06
1.64767e-06
1.64482e-06
1.64835e-06
1.64858e-06
1.62335e-06
1.62234e-06
1.62257e-06
1.62043e-06
1.61984e-06
1.62036e-06
1.62052e-06
1.62527e-06
1.62548e-06
1.62269e-06
1.61885e-06
1.61609e-06
1.61608e-06
1.61608e-06
1.61607e-06
1.62771e-06
1.6222e-06
1.62046e-06
1.61609e-06
1.61609e-06
1.61608e-06
1.61608e-06
1.61608e-06
1.61608e-06
1.62971e-06
1.62515e-06
1.6233e-06
1.61988e-06
1.61609e-06
1.61609e-06
1.61609e-06
1.61608e-06
1.61608e-06
1.61608e-06
1.62785e-06
1.62385e-06
1.62281e-06
1.62031e-06
1.61609e-06
1.61609e-06
1.61609e-06
1.61609e-06
1.61609e-06
1.61609e-06
1.62668e-06
1.62101e-06
1.62061e-06
1.61609e-06
1.61609e-06
1.61609e-06
1.61609e-06
1.61609e-06
1.61609e-06
1.62902e-06
1.6246e-06
1.62525e-06
1.62777e-06
1.61609e-06
1.61609e-06
1.61609e-06
1.61609e-06
1.63198e-06
1.62619e-06
1.62481e-06
1.62517e-06
1.62216e-06
1.62971e-06
1.6279e-06
1.62673e-06
1.62891e-06
1.62645e-06
1.63133e-06
1.62517e-06
1.62387e-06
1.62102e-06
1.62455e-06
1.62477e-06
1.59955e-06
1.59853e-06
1.59877e-06
1.59662e-06
1.59604e-06
1.59653e-06
1.59671e-06
1.60144e-06
1.60182e-06
1.5989e-06
1.59504e-06
1.59228e-06
1.59228e-06
1.59228e-06
1.59228e-06
1.60389e-06
1.5984e-06
1.59665e-06
1.59229e-06
1.59228e-06
1.59228e-06
1.59228e-06
1.59229e-06
1.59229e-06
1.60591e-06
1.60136e-06
1.5995e-06
1.59608e-06
1.59229e-06
1.59229e-06
1.59229e-06
1.59229e-06
1.59229e-06
1.59229e-06
1.60405e-06
1.60005e-06
1.59901e-06
1.59651e-06
1.59229e-06
1.59229e-06
1.59229e-06
1.59229e-06
1.59229e-06
1.59229e-06
1.60288e-06
1.59721e-06
1.59681e-06
1.59229e-06
1.59229e-06
1.59229e-06
1.59229e-06
1.59229e-06
1.59229e-06
1.60522e-06
1.6008e-06
1.60144e-06
1.60397e-06
1.59229e-06
1.59229e-06
1.59229e-06
1.59229e-06
1.60818e-06
1.60239e-06
1.60101e-06
1.60137e-06
1.59836e-06
1.60591e-06
1.6041e-06
1.60293e-06
1.60511e-06
1.60265e-06
1.60753e-06
1.60137e-06
1.60007e-06
1.59722e-06
1.60075e-06
1.60097e-06
1.57576e-06
1.57474e-06
1.57497e-06
1.57282e-06
1.57225e-06
1.57274e-06
1.57292e-06
1.57769e-06
1.5779e-06
1.57511e-06
1.57125e-06
1.56849e-06
1.56849e-06
1.56848e-06
1.56848e-06
1.58009e-06
1.5746e-06
1.57286e-06
1.56849e-06
1.56849e-06
1.56849e-06
1.56849e-06
1.56849e-06
1.56849e-06
1.58211e-06
1.57756e-06
1.5757e-06
1.57228e-06
1.56849e-06
1.56849e-06
1.56849e-06
1.56849e-06
1.56849e-06
1.56849e-06
1.58025e-06
1.57625e-06
1.57521e-06
1.57271e-06
1.56849e-06
1.56849e-06
1.56849e-06
1.56849e-06
1.56849e-06
1.56849e-06
1.57908e-06
1.57341e-06
1.57301e-06
1.56849e-06
1.56849e-06
1.56849e-06
1.56849e-06
1.56849e-06
1.56849e-06
1.58142e-06
1.577e-06
1.57765e-06
1.58017e-06
1.56849e-06
1.56849e-06
1.56849e-06
1.56849e-06
1.58438e-06
1.57859e-06
1.57721e-06
1.57758e-06
1.57456e-06
1.58212e-06
1.58031e-06
1.57913e-06
1.58131e-06
1.57885e-06
1.58373e-06
1.57757e-06
1.57627e-06
1.57342e-06
1.57695e-06
1.57717e-06
1.55196e-06
1.55094e-06
1.55118e-06
1.54902e-06
1.54844e-06
1.54894e-06
1.54912e-06
1.5539e-06
1.5541e-06
1.55133e-06
1.54743e-06
1.54468e-06
1.54468e-06
1.54468e-06
1.54468e-06
1.55629e-06
1.5508e-06
1.54906e-06
1.54469e-06
1.54469e-06
1.54469e-06
1.54469e-06
1.54468e-06
1.54468e-06
1.55831e-06
1.55375e-06
1.5519e-06
1.54848e-06
1.54469e-06
1.54469e-06
1.54469e-06
1.54469e-06
1.54469e-06
1.54469e-06
1.55645e-06
1.55245e-06
1.55141e-06
1.54891e-06
1.54469e-06
1.54469e-06
1.54469e-06
1.54469e-06
1.54469e-06
1.54469e-06
1.55528e-06
1.54961e-06
1.54921e-06
1.54469e-06
1.54469e-06
1.54469e-06
1.54469e-06
1.54469e-06
1.54469e-06
1.55762e-06
1.5532e-06
1.55385e-06
1.55637e-06
1.54469e-06
1.54469e-06