/*--------------------------------*- C++ -*----------------------------------*\
| =========                 |                                                 |
| \\      /  F ield         | OpenFOAM: The Open Source CFD Toolbox           |
|  \\    /   O peration     | Version:  v2006                                 |
|   \\  /    A nd           | Website:  www.openfoam.com                      |
|    \\/     M anipulation  |                                                 |
\*---------------------------------------------------------------------------*/
FoamFile
{
    version     2.0;
    format      ascii;
    class       volVectorField;
    location    "500";
    object      U;
}
// * * * * * * * * * * * * * * * * * * * * * * * * * * * * * * * * * * * * * //

dimensions      [0 1 -1 0 0 0 0];


internalField   nonuniform List<vector> 
14310
(
(-8.85623e-05 4.26647e-05 0.108155)
(-0.000132245 -0.000138651 0.106622)
(5.8168e-05 6.0063e-05 0.109513)
(-8.1096e-05 4.50866e-05 0.108332)
(4.65185e-05 -8.18227e-05 0.108287)
(-0.000118734 -0.000115918 0.106747)
(5.53132e-05 5.15358e-05 0.109804)
(-0.000100367 6.93845e-05 0.108486)
(5.51066e-05 -9.31577e-05 0.108463)
(-0.000221213 -0.000222055 0.106657)
(3.77757e-05 3.98882e-05 0.110044)
(-8.04219e-05 5.15001e-05 0.108577)
(5.93112e-05 -8.70155e-05 0.108567)
(-3.52598e-05 -3.5817e-05 0.106647)
(7.84606e-05 8.74758e-05 0.110327)
(-8.82164e-05 6.47045e-05 0.108696)
(2.69431e-05 -7.51468e-05 0.108691)
(-0.000262653 -0.000254228 0.106611)
(3.03722e-05 3.05851e-05 0.110583)
(-8.84579e-05 6.70721e-05 0.10875)
(6.67779e-05 -8.69592e-05 0.108797)
(-5.45487e-05 -5.56801e-05 0.106257)
(5.3541e-05 4.49287e-05 0.11081)
(-6.60015e-05 9.92681e-06 0.108818)
(5.3762e-05 -7.9668e-05 0.108832)
(-0.000169562 -0.000175921 0.106385)
(-0.000128422 0.000132903 0.106629)
(1.18833e-05 -5.75564e-06 0.10689)
(-9.28353e-05 -5.26522e-05 0.108147)
(-8.91921e-05 6.21809e-05 0.108292)
(-7.45309e-05 -1.76218e-05 0.108296)
(4.27483e-05 4.54732e-05 0.106918)
(0.000139813 0.000144153 0.106692)
(1.347e-05 6.89443e-06 0.106813)
(6.10388e-05 9.68644e-05 0.108322)
(-3.78792e-05 8.52482e-05 0.108331)
(7.95609e-05 9.36405e-05 0.108423)
(-5.15282e-05 8.86864e-05 0.108443)
(-0.000143852 0.000149318 0.106707)
(2.46421e-05 -2.94071e-05 0.106956)
(9.18121e-05 6.31601e-05 0.108322)
(8.67594e-05 -3.75306e-05 0.108291)
(0.000100791 7.37222e-05 0.108426)
(8.93184e-05 -3.79267e-05 0.10842)
(-8.07856e-05 -2.92177e-05 0.108331)
(-9.2465e-05 4.42969e-05 0.108444)
(-0.000114738 -0.000134419 0.108435)
(0.000131439 -0.000124291 0.106568)
(-2.65272e-05 2.67254e-05 0.106853)
(-3.08367e-05 -7.94969e-05 0.108332)
(3.62136e-05 -8.58096e-05 0.108421)
(-0.000133776 -0.000114696 0.108437)
(-7.71684e-05 -7.81018e-05 0.106883)
(0.000151063 0.000144757 0.106611)
(-7.56654e-05 -7.29046e-05 0.106911)
(4.2939e-05 7.887e-05 0.108461)
(-7.73038e-05 9.64074e-05 0.108483)
(1.19749e-06 7.31609e-05 0.108553)
(-5.7446e-05 8.50427e-05 0.108567)
(-0.000153323 0.00014796 0.106764)
(1.85932e-05 -1.63669e-05 0.10686)
(8.52777e-05 3.81468e-05 0.108463)
(9.61039e-05 -5.82027e-05 0.10846)
(7.16296e-05 2.26641e-06 0.108552)
(9.05449e-05 -7.26507e-05 0.108543)
(-9.94641e-05 -0.000105306 0.108473)
(-8.39734e-05 6.15438e-05 0.108567)
(-5.33482e-05 4.83274e-05 0.108542)
(0.000139993 -0.00014034 0.10667)
(6.22078e-07 -2.40293e-06 0.106798)
(-0.000104791 -0.000100764 0.108473)
(7.23283e-05 -9.36044e-05 0.108548)
(5.11963e-05 -5.64179e-05 0.108542)
(0.000136864 0.000135386 0.10681)
(0.000104022 0.000107561 0.10673)
(6.32002e-05 6.93535e-05 0.1068)
(4.1e-05 8.63071e-05 0.108589)
(-4.51626e-05 8.28774e-05 0.108579)
(0.000124368 0.000106265 0.108679)
(-6.20117e-05 8.6569e-05 0.108659)
(-0.000126454 0.000129537 0.106635)
(-3.13698e-06 3.41729e-06 0.106796)
(8.28986e-05 4.3848e-05 0.108589)
(8.39342e-05 -5.771e-05 0.108563)
(0.000100387 0.000133621 0.10868)
(7.27503e-05 -2.38597e-05 0.108648)
(-6.88218e-05 1.89985e-05 0.108569)
(-8.59545e-05 6.04404e-05 0.108659)
(-0.00011689 -0.000158592 0.108691)
(0.000144523 -0.000146084 0.10658)
(-4.23777e-05 4.25919e-05 0.106774)
(1.96357e-05 -6.90722e-05 0.108569)
(2.30764e-05 -7.23904e-05 0.108647)
(-0.000169315 -0.000108936 0.108692)
(-0.000127267 -0.000118666 0.106895)
(0.000194578 0.000201084 0.106527)
(-6.87776e-05 -6.73155e-05 0.106513)
(0.000110306 0.00010287 0.108681)
(-6.8432e-05 8.68327e-05 0.108694)
(1.88936e-05 7.64443e-05 0.108706)
(-8.30525e-05 9.31507e-05 0.108736)
(-0.000158831 0.000157771 0.106577)
(-3.59003e-06 8.77823e-07 0.106601)
(9.70661e-05 0.000119835 0.108682)
(7.51799e-05 -2.95064e-05 0.108691)
(7.47298e-05 2.17032e-05 0.108706)
(8.8812e-05 -7.52461e-05 0.108782)
(-0.00011203 -0.00014924 0.1087)
(-9.50171e-05 8.01469e-05 0.108737)
(-6.9313e-05 -4.38044e-06 0.108684)
(0.000114213 -0.000114686 0.106575)
(4.07979e-07 -3.4194e-06 0.106768)
(-0.000159862 -0.000104832 0.1087)
(7.23535e-05 -9.09677e-05 0.108783)
(-6.71509e-06 -6.85528e-05 0.108685)
(8.79111e-05 8.82154e-05 0.106445)
(6.92568e-05 6.93083e-05 0.106323)
(-2.69421e-05 -3.34519e-05 0.106755)
(-6.55082e-06 6.44597e-05 0.108734)
(-7.0621e-05 8.64374e-05 0.10875)
(4.13156e-05 7.49542e-05 0.108834)
(-2.22808e-05 6.77508e-05 0.10879)
(-0.0001447 0.000142103 0.106368)
(6.1019e-05 -6.37964e-05 0.106556)
(6.47815e-05 -6.92272e-06 0.108732)
(8.46141e-05 -7.05868e-05 0.108797)
(7.95143e-05 3.27717e-05 0.108834)
(7.84746e-05 -5.52099e-05 0.108814)
(-6.76001e-05 3.27362e-06 0.108702)
(-6.97094e-05 1.69253e-05 0.108795)
(-8.57675e-05 -8.23738e-05 0.108806)
(0.00014578 -0.000148901 0.10653)
(-2.92517e-05 2.72754e-05 0.106609)
(4.06896e-06 -6.89163e-05 0.108701)
(4.98584e-05 -7.99502e-05 0.108818)
(-7.40865e-05 -9.03434e-05 0.108805)
(-2.56169e-05 -3.17291e-05 0.106615)
(0.000142795 0.00013618 0.106541)
(7.98374e-05 8.37223e-05 0.108864)
(-1.17404e-05 6.56376e-05 0.108813)
(-3.04668e-05 7.10647e-05 0.108908)
(-8.21438e-05 8.03893e-05 0.106351)
(2.52494e-05 -1.64015e-05 0.106676)
(8.8561e-05 6.97742e-05 0.108864)
(7.9583e-05 -5.54664e-05 0.108827)
(-8.43592e-05 -8.94346e-05 0.108832)
(-6.45767e-05 4.40362e-05 0.108911)
(-6.25327e-05 -1.72647e-05 0.108851)
(0.000117991 -0.000119082 0.106381)
(-7.96789e-05 -8.89759e-05 0.108832)
(-1.2784e-05 -6.43778e-05 0.108857)
(7.1197e-05 6.91099e-05 0.106457)
(-1.60057e-05 3.93058e-06 0.0720113)
(1.31867e-05 4.8639e-06 0.0719967)
(-6.03582e-05 8.37739e-06 0.102189)
(-5.91903e-05 2.6211e-05 0.0954198)
(-9.75049e-05 1.14298e-05 0.108885)
(-9.35899e-05 5.62359e-05 0.108201)
(-1.7149e-05 1.30753e-05 0.0954264)
(-9.82584e-05 1.74487e-05 0.108947)
(-9.94914e-05 7.4016e-06 0.102192)
(-3.62051e-05 -1.95491e-05 0.0891168)
(-1.88429e-05 -3.72984e-05 0.0891133)
(-0.000137015 -0.000142776 0.10665)
(-3.89028e-05 6.0778e-06 0.0890497)
(6.17455e-06 -3.92575e-05 0.0890437)
(7.3183e-06 1.48859e-05 0.0934462)
(2.08412e-05 1.28488e-05 0.0831606)
(1.03652e-05 3.68269e-05 0.0934775)
(-1.17484e-05 3.53919e-06 0.0831758)
(5.93302e-06 3.77341e-06 0.071857)
(-2.4983e-05 -1.26428e-05 0.0718803)
(1.03493e-05 5.99228e-06 0.0934538)
(1.75841e-05 1.5684e-05 0.0831527)
(3.43641e-05 1.27109e-05 0.0934994)
(1.91571e-06 -1.14428e-05 0.0831734)
(-1.56936e-05 2.35771e-05 0.10997)
(5.96116e-05 -1.33851e-05 0.109804)
(-1.62663e-05 -1.59843e-05 0.109968)
(6.7924e-05 6.34947e-05 0.109733)
(-5.12093e-05 4.50877e-05 0.109721)
(4.86147e-05 -4.97836e-05 0.109717)
(-8.33731e-05 -8.32414e-05 0.10973)
(-4.88415e-05 -2.27289e-06 0.10192)
(-7.03637e-05 1.30664e-06 0.0951251)
(-9.15943e-05 1.99773e-05 0.109126)
(-7.73119e-05 2.77274e-05 0.108369)
(-8.73387e-05 4.79175e-06 0.10191)
(-3.57374e-05 -5.23939e-06 0.0951245)
(-9.26787e-05 6.12941e-06 0.109175)
(7.08593e-07 -1.04589e-05 0.0718758)
(-9.61847e-06 -1.01554e-05 0.0718839)
(-4.33818e-06 -5.27815e-05 0.10194)
(1.73365e-05 -8.94119e-05 0.109117)
(2.69896e-05 -0.000165311 0.102346)
(3.58447e-05 -8.038e-05 0.108325)
(1.83459e-05 -0.000179956 0.105767)
(6.33442e-06 -9.22042e-05 0.109169)
(3.09328e-06 -2.65167e-05 0.0951494)
(2.52572e-05 -5.29846e-05 0.0889147)
(-5.28035e-05 2.51878e-05 0.0889172)
(5.31018e-06 5.51427e-06 0.106954)
(3.58698e-05 -1.69862e-05 0.0889316)
(-1.62219e-05 3.70541e-05 0.0889313)
(-1.68679e-05 1.22898e-05 0.0931854)
(-4.00495e-05 2.9551e-05 0.082957)
(-1.76002e-05 3.22328e-05 0.0932335)
(2.62442e-06 -4.044e-07 0.0829174)
(1.18057e-05 1.6669e-05 0.0717331)
(3.35998e-05 7.85333e-06 0.0717402)
(1.43886e-05 -1.77459e-05 0.0931742)
(2.66021e-05 -3.76376e-05 0.0829656)
(3.26547e-05 -2.02249e-05 0.0932202)
(-5.32785e-07 4.65051e-06 0.0829234)
(-6.22076e-05 5.54252e-05 0.109797)
(5.48055e-05 -5.71775e-05 0.109789)
(-7.8315e-05 -7.8602e-05 0.109812)
(2.66312e-05 2.68623e-05 0.109982)
(-5.7919e-05 6.1155e-05 0.109997)
(6.38557e-05 -6.36007e-05 0.109994)
(-1.33288e-05 -1.59512e-05 0.109984)
(-3.8338e-05 1.40393e-05 0.101655)
(-2.24444e-05 2.47381e-05 0.0949236)
(-0.000101447 1.16248e-05 0.109354)
(-9.99416e-05 8.28753e-05 0.108524)
(-8.04061e-05 3.19993e-06 0.101648)
(-1.4309e-05 -9.90682e-06 0.0949075)
(-9.96108e-05 2.95784e-05 0.109418)
(2.04165e-06 -1.79232e-05 0.0717587)
(6.12175e-06 1.29173e-05 0.0717536)
(1.11222e-05 -4.06057e-05 0.101666)
(8.19392e-06 -9.95307e-05 0.109354)
(2.20577e-05 -3.72759e-05 0.0949007)
(7.36426e-05 -9.87843e-05 0.108497)
(5.60053e-06 -7.8288e-05 0.101661)
(2.46152e-05 -0.000101369 0.109414)
(8.51603e-06 -3.18209e-06 0.0949128)
(-0.000109365 7.25883e-05 0.0885897)
(7.44029e-05 -0.000110505 0.0885908)
(4.01388e-05 3.82581e-05 0.106753)
(-6.87379e-05 2.39488e-05 0.0885939)
(2.32363e-05 -6.8631e-05 0.0885922)
(2.00835e-05 8.10567e-06 0.0929661)
(4.16709e-05 5.32086e-06 0.082818)
(1.41108e-05 3.07428e-05 0.0929706)
(-1.4668e-06 -4.9794e-06 0.0828533)
(-1.84144e-05 -8.12775e-08 0.0716434)
(-6.10558e-06 -2.42476e-06 0.0716666)
(7.68016e-06 3.10107e-05 0.092971)
(4.47241e-06 4.54487e-05 0.0828162)
(3.21392e-05 1.89461e-05 0.0929786)
(-8.01043e-06 4.55527e-06 0.082848)
(-4.984e-05 5.4812e-05 0.110051)
(5.7846e-05 -5.64806e-05 0.110054)
(-1.47134e-05 -1.50939e-05 0.110037)
(8.0264e-05 8.9009e-05 0.110256)
(-5.54422e-05 5.41455e-05 0.110246)
(3.64955e-05 -3.78075e-05 0.110246)
(-9.65888e-05 -8.6798e-05 0.110253)
(-3.61265e-05 -6.33308e-06 0.101356)
(-5.30943e-05 7.63428e-06 0.0946402)
(-9.25939e-05 2.7688e-05 0.10955)
(-8.1655e-05 5.13978e-05 0.108592)
(-7.93098e-05 5.20638e-06 0.101361)
(-2.98762e-06 1.22115e-05 0.0946838)
(-9.38098e-05 1.38496e-05 0.10959)
(9.71431e-06 1.00962e-05 0.0716198)
(-3.94211e-06 -7.90224e-07 0.0716436)
(-7.61762e-06 -3.62153e-05 0.101348)
(3.25605e-05 -9.66301e-05 0.109554)
(-1.89351e-06 -6.09151e-05 0.0946421)
(4.51743e-05 -8.06055e-05 0.108584)
(9.70757e-06 -8.07154e-05 0.101357)
(1.38015e-05 -9.2851e-05 0.109597)
(-4.14666e-06 -2.76204e-05 0.0946487)
(7.68574e-05 -8.68865e-05 0.0885986)
(-9.31677e-05 7.98212e-05 0.0885953)
(1.14785e-05 1.5084e-05 0.106975)
(6.36312e-05 -8.72719e-06 0.0885846)
(-1.45296e-05 6.71652e-05 0.0885826)
(-1.50153e-05 7.86377e-06 0.092802)
(-2.74526e-05 2.35216e-05 0.0827016)
(-3.17853e-06 2.59644e-05 0.0928155)
(-3.165e-05 6.46308e-06 0.082686)
(-2.7543e-06 2.92675e-06 0.071576)
(-9.13518e-06 -4.27131e-06 0.0715908)
(7.20025e-06 -1.18859e-05 0.0927945)
(2.25341e-05 -2.45485e-05 0.0826959)
(2.50282e-05 5.12149e-06 0.0928109)
(6.86487e-06 -3.18911e-05 0.0826817)
(-6.25402e-05 5.93043e-05 0.11032)
(3.80069e-05 -4.0544e-05 0.110317)
(-0.000104096 -9.40935e-05 0.110332)
(4.2803e-05 4.59352e-05 0.110524)
(-6.8495e-05 6.62946e-05 0.110528)
(5.91939e-05 -6.14241e-05 0.110532)
(-4.54131e-05 -4.26797e-05 0.110514)
(-3.22328e-05 6.61561e-06 0.101172)
(-3.70231e-05 1.73952e-06 0.0944808)
(-9.71717e-05 6.47334e-06 0.109764)
(-9.17895e-05 7.13828e-05 0.108719)
(-6.33565e-05 -2.93971e-06 0.101145)
(-7.6676e-06 -1.69793e-07 0.0944931)
(-9.86561e-05 1.65514e-05 0.109826)
(6.4899e-07 -1.38506e-05 0.0715442)
(-6.29215e-07 -1.27123e-06 0.0715622)
(-4.92164e-06 -3.30819e-05 0.101173)
(-1.68822e-05 -8.93697e-05 0.10976)
(9.83665e-06 -4.21217e-05 0.0944658)
(4.42505e-05 -8.26292e-05 0.10873)
(-1.87161e-05 -6.47263e-05 0.101143)
(-4.52277e-06 -9.25531e-05 0.10982)
(-9.61146e-07 -1.39584e-06 0.0944947)
(-7.84615e-05 6.37306e-05 0.0883373)
(6.13975e-05 -7.66154e-05 0.0883388)
(-1.59521e-05 -9.84331e-06 0.106548)
(-6.10811e-05 2.20764e-05 0.0883356)
(2.21412e-05 -6.02021e-05 0.0883325)
(4.94612e-06 9.20808e-06 0.092581)
(3.67799e-06 1.62756e-05 0.0824988)
(-1.25619e-05 2.87385e-05 0.0926108)
(3.01632e-05 -1.04327e-05 0.0825064)
(1.97836e-05 1.59153e-05 0.0714317)
(1.39791e-05 1.22711e-06 0.0714316)
(9.77707e-06 -6.31202e-06 0.0925776)
(1.91197e-05 -2.63475e-06 0.0824991)
(2.89399e-05 -1.84685e-05 0.0926046)
(-7.06281e-06 2.3005e-05 0.0825097)
(-6.41822e-05 6.08603e-05 0.110591)
(5.92373e-05 -6.27314e-05 0.110594)
(-3.20576e-05 -3.23391e-05 0.110566)
(3.67524e-05 2.95279e-05 0.110746)
(-3.85034e-05 3.39472e-05 0.110751)
(4.8958e-05 -5.3369e-05 0.110755)
(-5.14218e-05 -5.86496e-05 0.110747)
(-3.13359e-05 -2.25489e-06 0.100917)
(-4.92252e-05 6.16185e-06 0.0942768)
(-9.47946e-05 3.32639e-05 0.109974)
(-7.96043e-05 4.5578e-05 0.108765)
(-6.86105e-05 9.53442e-06 0.100913)
(-3.9965e-05 -1.71882e-05 0.0942623)
(-9.13981e-05 2.25118e-05 0.110011)
(7.87835e-06 8.51801e-06 0.0714425)
(-4.90595e-06 -5.84503e-06 0.0714678)
(6.00404e-06 -2.94744e-05 0.100911)
(3.18872e-05 -9.47744e-05 0.109974)
(3.13953e-06 -4.41003e-05 0.0942697)
(5.55433e-05 -8.19492e-05 0.108806)
(1.21202e-05 -6.67922e-05 0.100909)
(2.79236e-05 -9.39403e-05 0.11001)
(-7.1696e-06 -2.14628e-05 0.0942706)
(1.59696e-05 -6.54652e-05 0.0882309)
(-6.06704e-05 1.26845e-05 0.0882252)
(5.10962e-05 4.70266e-05 0.106566)
(3.3323e-05 -3.30376e-05 0.0882198)
(-2.72092e-05 2.90727e-05 0.0882131)
(1.93027e-05 3.67196e-06 0.0924168)
(1.87428e-05 6.63954e-06 0.0824257)
(2.58216e-05 2.42905e-05 0.0924132)
(-1.40649e-05 -2.92513e-06 0.0824319)
(-6.57976e-06 1.48391e-06 0.0713352)
(-1.57687e-05 -1.10107e-05 0.0713863)
(2.95163e-06 1.63633e-05 0.0924299)
(7.78813e-06 1.58654e-05 0.0824311)
(2.48265e-05 1.42297e-05 0.0924218)
(-4.38914e-06 -1.16487e-05 0.0824355)
(-3.11865e-05 2.99655e-05 0.110808)
(5.05496e-05 -5.16447e-05 0.110812)
(-5.80582e-05 -6.64793e-05 0.110814)
(-3.0076e-05 4.15695e-05 0.110978)
(-3.58426e-05 -4.00853e-05 0.110983)
(-2.30225e-05 -5.52326e-06 0.100689)
(-5.12238e-05 8.87065e-06 0.094061)
(-8.56099e-05 -1.16703e-05 0.110125)
(-6.15918e-05 5.69533e-06 0.108849)
(-6.12601e-05 -1.77165e-05 0.100674)
(-7.68641e-06 1.0157e-05 0.0940968)
(-8.37529e-05 -1.16398e-05 0.110165)
(1.08006e-05 6.04322e-06 0.0713574)
(8.89971e-07 1.30222e-05 0.071389)
(5.88214e-06 -2.12139e-05 0.100703)
(1.27408e-05 -9.12812e-05 0.110124)
(1.92903e-05 -2.91971e-05 0.0940947)
(5.61997e-05 -7.73041e-05 0.108851)
(-3.20929e-06 -5.88618e-05 0.100677)
(1.74766e-05 -8.89728e-05 0.110168)
(-1.42999e-06 -9.11273e-06 0.0941117)
(-4.24919e-05 2.73387e-05 0.0879974)
(3.063e-05 -4.50481e-05 0.0879986)
(8.70892e-06 2.61325e-06 0.106513)
(-4.38803e-05 2.63076e-05 0.087988)
(2.58773e-05 -4.39146e-05 0.087989)
(-2.4876e-05 1.9841e-05 0.0891233)
(-1.77081e-05 2.98678e-05 0.0891283)
(-0.000136249 0.000142356 0.106662)
(2.29187e-06 1.79772e-05 0.0890748)
(-1.38196e-05 2.09838e-06 0.0890784)
(-1.24093e-06 2.05031e-05 0.0720132)
(-2.99224e-06 -7.89655e-06 0.0719963)
(2.18921e-05 5.24312e-07 0.0719248)
(1.6659e-05 1.45591e-05 0.071918)
(7.68015e-06 -1.46365e-06 0.106878)
(1.48226e-05 3.87297e-05 0.0889197)
(-3.83622e-05 -1.54755e-05 0.0889208)
(-2.75812e-06 3.64619e-05 0.0889707)
(-3.24473e-05 6.38895e-06 0.0889745)
(-2.44333e-06 -2.38457e-05 0.0719238)
(-1.36481e-05 -1.29792e-05 0.071917)
(-2.06988e-05 4.49734e-06 0.0937074)
(-1.58685e-05 1.20781e-05 0.0833555)
(4.78122e-06 -1.02237e-06 0.0833533)
(-4.32112e-05 6.43145e-06 0.0937706)
(-5.90943e-05 3.83642e-06 0.102179)
(-9.88825e-05 -1.48101e-05 0.108885)
(-5.93741e-05 -2.18366e-05 0.0954199)
(-8.81645e-05 -4.66689e-05 0.108196)
(-9.63009e-05 -1.08545e-05 0.108948)
(-4.04097e-05 -7.01305e-07 0.0954092)
(-9.86356e-05 1.58764e-06 0.102174)
(-2.15303e-05 3.13231e-06 0.0937075)
(-2.27738e-05 3.29194e-06 0.0833768)
(1.44573e-06 1.58083e-05 0.0833379)
(-4.21827e-05 5.4393e-06 0.0937688)
(-9.81733e-05 7.6899e-06 0.102045)
(-9.45046e-05 6.58094e-05 0.108248)
(-3.49134e-05 -5.49069e-06 0.0952666)
(-9.3612e-05 2.68775e-05 0.109072)
(-4.72111e-05 2.01329e-05 0.0952882)
(-9.67498e-05 2.45993e-05 0.109011)
(-4.95311e-05 5.77988e-06 0.102047)
(-3.92666e-05 3.96746e-06 0.0936113)
(-6.59394e-06 -2.59555e-05 0.0832385)
(-1.60595e-05 -7.12782e-06 0.0832678)
(-1.50129e-05 -2.78809e-06 0.0935704)
(-9.72583e-05 2.22461e-06 0.102036)
(-7.9057e-05 -2.91449e-05 0.10825)
(-9.00137e-05 -1.75025e-06 0.109067)
(-3.48507e-05 -8.2157e-06 0.0952451)
(-9.21585e-05 -5.43365e-06 0.109011)
(-7.40302e-05 -7.54131e-06 0.095261)
(-4.93219e-05 -1.67993e-06 0.102039)
(-4.02327e-05 1.53699e-06 0.0936098)
(7.13588e-06 -2.24437e-05 0.0832074)
(-1.57597e-05 9.87162e-06 0.0832387)
(-1.47817e-05 -7.87853e-06 0.0935648)
(-1.16066e-05 8.45474e-06 0.0719871)
(3.90682e-06 2.03444e-05 0.0719899)
(8.85953e-06 -1.05873e-05 0.0719851)
(2.17167e-05 1.99261e-06 0.0719903)
(3.27474e-05 3.22917e-05 0.106879)
(1.48514e-05 -3.17645e-05 0.0889776)
(-3.16789e-05 1.44255e-05 0.0889784)
(-4.10582e-05 -5.83004e-06 0.0889528)
(-5.61818e-06 -4.14379e-05 0.0889496)
(2.3246e-05 -4.50502e-05 0.0719727)
(1.74414e-06 3.97285e-06 0.0719245)
(-4.5581e-05 2.37171e-05 0.0719737)
(5.19477e-06 -4.57307e-07 0.0719256)
(2.91388e-05 3.21479e-06 0.0718932)
(-2.59762e-05 1.83858e-05 0.0718644)
(4.71827e-06 2.69766e-05 0.0718921)
(1.68366e-05 -2.59812e-05 0.0718647)
(3.25297e-05 -3.64191e-06 0.088914)
(-1.164e-06 2.72185e-05 0.0889169)
(1.19467e-05 1.15267e-05 0.106861)
(-1.074e-05 1.29688e-05 0.0888747)
(1.46394e-05 -1.53781e-05 0.088879)
(-4.92809e-05 9.30293e-06 0.0717623)
(-3.84034e-05 2.99846e-05 0.0717773)
(7.79127e-06 -4.8368e-05 0.0717642)
(2.80833e-05 -3.8031e-05 0.0717776)
(0.00018163 0.000178901 0.106662)
(-4.35425e-05 7.02996e-05 0.0886913)
(6.99238e-05 -4.38879e-05 0.0886893)
(-1.56434e-05 4.10088e-05 0.0887686)
(4.21798e-05 -1.94176e-05 0.0887704)
(4.61358e-06 1.5569e-05 0.093444)
(1.56867e-05 2.25944e-05 0.0831483)
(7.01617e-06 3.71068e-05 0.0934826)
(-1.19018e-05 -2.63155e-06 0.0831281)
(8.68158e-06 4.74525e-05 0.101917)
(4.34607e-05 0.000153217 0.102397)
(2.35617e-05 0.000100897 0.109122)
(8.47784e-05 0.000103192 0.108351)
(2.57148e-05 0.000190942 0.10577)
(1.41971e-05 -1.61886e-06 0.0951726)
(3.21181e-05 0.000100177 0.109177)
(3.62616e-06 4.81923e-05 0.101917)
(-2.26241e-05 0.000166467 0.102411)
(-7.81559e-06 9.73261e-05 0.109128)
(-2.46223e-05 7.833e-05 0.10837)
(-1.28654e-05 0.000190458 0.10577)
(-4.49424e-07 3.35957e-05 0.0951233)
(8.7466e-07 9.42617e-05 0.109181)
(3.44375e-06 3.44708e-05 0.0933576)
(-4.82561e-05 1.17914e-05 0.0830552)
(-2.48026e-05 2.56091e-05 0.0830948)
(-1.3416e-05 1.23593e-05 0.0933253)
(1.15514e-06 3.50004e-05 0.0933535)
(-1.18154e-05 -4.93447e-06 0.0830717)
(-2.2023e-05 1.39712e-05 0.0830509)
(-1.32193e-05 1.15745e-05 0.0933199)
(8.51084e-06 8.4862e-05 0.101779)
(9.59716e-05 0.000102969 0.108385)
(-2.81883e-05 4.61602e-05 0.0950127)
(2.86686e-05 9.53934e-05 0.1093)
(1.42745e-05 3.33779e-05 0.095043)
(3.63202e-05 9.83502e-05 0.109238)
(2.49119e-06 4.38223e-05 0.101793)
(3.37443e-06 8.61354e-05 0.101777)
(-2.88372e-05 8.01041e-05 0.108406)
(-1.9925e-05 -5.10104e-06 0.0950427)
(-6.92868e-06 9.54377e-05 0.109292)
(-1.83876e-05 5.1677e-05 0.095002)
(2.92123e-06 9.37115e-05 0.109235)
(-2.81437e-06 4.39519e-05 0.101788)
(1.79495e-07 4.25495e-05 0.0888339)
(-4.36088e-05 -2.15004e-06 0.0888358)
(4.42624e-05 -4.23236e-05 0.106912)
(-1.60001e-05 -2.80023e-06 0.0888578)
(9.83329e-07 1.26662e-05 0.088861)
(-5.92802e-06 -8.91666e-06 0.0718573)
(1.22619e-05 2.34369e-05 0.0718833)
(1.46582e-06 4.85501e-06 0.0718087)
(-3.31472e-05 -2.53914e-06 0.0718097)
(-0.000116124 0.000115872 0.106729)
(-7.58889e-06 -1.03414e-05 0.0887752)
(1.08585e-05 7.56777e-06 0.0887786)
(-3.27005e-05 -4.00938e-06 0.0887877)
(2.7116e-06 3.00214e-05 0.0887926)
(-3.32257e-06 -1.95844e-07 0.07181)
(3.00499e-06 3.2643e-05 0.071813)
(4.97352e-05 1.06633e-05 0.101947)
(0.000151096 4.6184e-05 0.1024)
(9.51703e-05 2.3243e-05 0.109121)
(0.000102913 8.29729e-05 0.108353)
(0.000183866 2.63235e-05 0.105785)
(-1.10776e-07 4.62514e-06 0.0951793)
(0.000100355 3.04414e-05 0.109177)
(1.02027e-05 5.6075e-06 0.0934515)
(1.85151e-05 1.18033e-06 0.0831377)
(3.54154e-05 8.86705e-06 0.0934982)
(-4.37785e-06 -8.88362e-06 0.0831336)
(5.06939e-05 3.69724e-06 0.101943)
(9.45823e-05 -7.19063e-06 0.109123)
(0.000186436 -1.83095e-05 0.104401)
(8.45333e-05 -2.99231e-05 0.108329)
(0.000191645 -1.21066e-05 0.105791)
(9.65631e-05 -7.51785e-07 0.109178)
(2.51736e-05 -3.86125e-06 0.0951466)
(3.05024e-05 3.41917e-07 0.0933614)
(8.13792e-06 -4.56662e-05 0.0830629)
(2.24698e-05 -2.32647e-05 0.0830956)
(1.16154e-05 -1.70198e-05 0.0933134)
(8.75556e-05 1.0106e-05 0.101804)
(0.000107694 9.1054e-05 0.108388)
(4.61555e-05 -3.15759e-05 0.0950126)
(0.000103977 2.78928e-05 0.109302)
(3.43891e-05 5.47024e-06 0.0950487)
(0.000104113 3.45944e-05 0.109238)
(4.76235e-05 -7.54012e-07 0.101792)
(3.02181e-05 1.34699e-06 0.093358)
(-1.21491e-05 -1.41389e-05 0.0830577)
(1.19562e-05 -1.21591e-05 0.083053)
(1.11329e-05 -1.35906e-05 0.0933081)
(8.80149e-05 3.37324e-06 0.1018)
(8.47434e-05 -2.79643e-05 0.108374)
(0.000102259 -6.47724e-06 0.109293)
(1.41559e-05 -9.83595e-06 0.0950259)
(9.93105e-05 3.38452e-07 0.109235)
(5.17808e-05 -1.72145e-05 0.0950195)
(4.73181e-05 -4.45896e-06 0.101787)
(-1.60723e-05 -1.23596e-05 0.0934442)
(-2.61655e-05 -2.03086e-05 0.0831449)
(-3.56073e-05 -6.46902e-06 0.0934819)
(5.17186e-07 9.55262e-06 0.0831303)
(-4.78387e-05 -7.75901e-06 0.101918)
(-9.22674e-05 -6.36203e-06 0.109115)
(-4.95539e-05 -2.94734e-05 0.095122)
(-9.66024e-05 -6.71385e-05 0.108363)
(-8.72813e-05 -2.91002e-06 0.101902)
(-9.78536e-05 -2.07437e-05 0.109164)
(2.7149e-05 -3.66523e-05 0.0951877)
(-1.61849e-05 -1.60833e-05 0.0934424)
(-1.12755e-05 -3.71525e-05 0.0831305)
(-3.50779e-05 -1.19592e-05 0.093476)
(6.29758e-06 -2.65053e-05 0.0831806)
(-8.82285e-05 -4.66952e-06 0.101781)
(-8.20853e-05 2.61555e-05 0.108405)
(4.94677e-06 1.74121e-05 0.0950462)
(-9.99459e-05 -3.50555e-06 0.109288)
(-5.36838e-05 1.18186e-05 0.0950039)
(-9.62655e-05 -5.12007e-06 0.109228)
(-4.47443e-05 -1.55098e-06 0.101785)
(-3.61331e-05 -9.9155e-06 0.0933545)
(8.01012e-06 1.5341e-05 0.0830795)
(-1.45317e-05 2.17395e-05 0.0830546)
(-1.18778e-05 6.60218e-06 0.0933199)
(-8.65961e-05 -9.81286e-06 0.101783)
(-0.000112485 -0.000114975 0.108397)
(-0.000102126 -4.70569e-05 0.109294)
(-1.00036e-05 2.47127e-05 0.0950644)
(-0.000102494 -3.82988e-05 0.109223)
(3.46465e-06 -3.85384e-05 0.0950731)
(-4.11282e-05 -7.26502e-06 0.101798)
(-3.60126e-05 -1.3022e-05 0.0933561)
(-1.67216e-05 7.1348e-05 0.0831041)
(-1.59886e-05 -6.85867e-06 0.0831163)
(-9.96501e-06 5.55655e-06 0.0933329)
(2.95719e-05 -1.68549e-05 0.0888976)
(1.84568e-05 -3.123e-05 0.0888951)
(-3.42944e-05 4.01567e-05 0.106784)
(7.56303e-06 -1.43195e-05 0.0888825)
(1.46137e-05 -8.01891e-06 0.0888853)
(8.32932e-06 -2.91038e-06 0.0718736)
(1.04356e-05 1.03296e-05 0.0718827)
(-9.62913e-06 -1.53217e-05 0.0718307)
(-2.7802e-06 -1.63669e-05 0.0718132)
(0.000125148 -0.000121297 0.106609)
(-3.4504e-06 -9.67533e-06 0.0887736)
(9.02329e-06 3.49534e-06 0.0887764)
(1.5785e-05 -2.50536e-05 0.0887954)
(2.54403e-05 -1.56352e-05 0.088797)
(1.35682e-05 8.16448e-06 0.0718308)
(1.65547e-05 3.48583e-06 0.0718118)
(-1.02393e-05 -5.27122e-05 0.101933)
(-7.99932e-06 -9.05335e-05 0.109114)
(-2.40822e-05 -0.000160167 0.102415)
(-6.65203e-05 -9.61425e-05 0.108365)
(-1.80038e-05 -0.000183048 0.105768)
(-2.07546e-05 -9.75536e-05 0.109164)
(-3.5979e-05 2.80386e-05 0.0951892)
(-8.21296e-06 -1.52386e-05 0.093447)
(-5.36339e-06 -2.41953e-05 0.0831341)
(-6.17564e-06 -3.70766e-05 0.0934928)
(9.37345e-06 5.53062e-06 0.0831305)
(-1.15813e-05 -1.56521e-05 0.093443)
(-3.84762e-05 -1.09287e-05 0.0831261)
(-1.16948e-05 -3.74166e-05 0.0934851)
(-2.78558e-05 8.23897e-06 0.0831796)
(-3.50558e-06 -9.07025e-05 0.101798)
(2.95302e-05 -8.1212e-05 0.108372)
(-2.46864e-06 -9.72269e-05 0.109291)
(1.19852e-05 -1.35725e-05 0.0950285)
(-2.40412e-06 -9.49936e-05 0.109228)
(1.74797e-05 -5.21717e-05 0.0950225)
(3.00356e-06 -4.21016e-05 0.1018)
(-9.74157e-06 -8.95678e-05 0.101792)
(-0.000113615 -0.000112149 0.1084)
(-4.81066e-05 -0.000101422 0.109297)
(2.67306e-05 -1.02444e-05 0.0950638)
(-3.79213e-05 -0.000102035 0.109225)
(-3.88128e-05 4.4959e-06 0.095074)
(-4.56582e-06 -3.77404e-05 0.101808)
(-6.46412e-06 -3.39688e-05 0.0933543)
(1.20359e-05 1.05921e-05 0.0830554)
(1.31534e-05 -9.94584e-06 0.0830499)
(5.04058e-06 -9.34635e-06 0.0933235)
(-9.45752e-06 -3.3292e-05 0.0933552)
(7.4005e-05 -1.88941e-05 0.0831053)
(-6.76944e-06 -1.53358e-05 0.0831161)
(3.59419e-06 -7.32316e-06 0.0933379)
(1.23412e-05 -5.9929e-05 0.0719082)
(-1.2616e-05 -1.21157e-05 0.0718993)
(-6.10913e-05 1.34197e-05 0.0719098)
(-1.2869e-05 -1.22281e-05 0.0718995)
(-0.000181121 -0.000181874 0.106759)
(-7.98794e-05 7.96859e-05 0.0887045)
(8.17058e-05 -8.08711e-05 0.0887039)
(4.33008e-06 -1.77933e-06 0.0888267)
(-7.61969e-07 5.29325e-06 0.088827)
(-3.68448e-05 9.68977e-05 0.071756)
(-3.37337e-05 1.69719e-05 0.0718066)
(9.822e-05 -3.76158e-05 0.071757)
(1.70744e-05 -3.41419e-05 0.0718073)
(-2.96675e-05 8.51746e-06 0.0716937)
(2.66949e-05 -2.31576e-05 0.0717367)
(7.41874e-06 -2.87754e-05 0.0716952)
(-2.34395e-05 2.77757e-05 0.0717384)
(-2.39317e-05 7.52319e-05 0.0886044)
(7.4446e-05 -2.31506e-05 0.0886)
(-7.55649e-05 -7.85476e-05 0.106811)
(1.879e-05 1.19941e-05 0.0886459)
(1.05665e-05 2.2359e-05 0.0886415)
(4.01968e-05 -1.27493e-05 0.071726)
(4.73595e-05 -1.73848e-05 0.0716827)
(-1.44242e-05 4.33698e-05 0.0717277)
(-1.77363e-05 4.87409e-05 0.0716839)
(7.07592e-05 6.93598e-05 0.106627)
(4.39614e-05 -5.30208e-05 0.0886295)
(-5.47372e-05 4.86124e-05 0.0886286)
(4.53442e-05 -1.11318e-06 0.0885923)
(-2.55502e-06 4.93897e-05 0.0885871)
(-1.46177e-05 1.02521e-05 0.0931877)
(-2.34883e-06 1.47882e-05 0.0829959)
(-1.66189e-05 3.09382e-05 0.0932296)
(2.58849e-05 2.41838e-06 0.0829783)
(-1.35535e-05 4.50617e-05 0.10165)
(-2.11286e-05 8.69949e-05 0.0948694)
(1.14152e-05 9.21043e-05 0.10936)
(4.34132e-06 6.65157e-05 0.108494)
(-1.47195e-06 8.23027e-05 0.101654)
(-1.54489e-05 5.99228e-05 0.0948499)
(-6.87753e-06 9.01286e-05 0.109414)
(-1.609e-05 4.15083e-05 0.101652)
(-2.49336e-05 2.26365e-05 0.0949207)
(-2.3959e-05 9.7403e-05 0.109353)
(-8.78554e-05 9.71793e-05 0.108521)
(-6.7311e-06 8.12667e-05 0.10165)
(1.34537e-05 1.50452e-05 0.0949069)
(-3.75118e-05 9.75049e-05 0.109413)
(-1.21292e-05 3.24737e-05 0.0930914)
(4.4725e-05 -1.35318e-05 0.0828777)
(2.23075e-05 1.2864e-05 0.0828395)
(7.95727e-06 1.17824e-05 0.0930542)
(-1.04533e-05 3.05023e-05 0.0930953)
(4.62239e-06 1.08065e-06 0.0828691)
(2.3292e-05 2.20454e-05 0.0828884)
(5.84343e-06 1.21407e-05 0.0930575)
(-1.49031e-05 8.28498e-05 0.101506)
(-1.32522e-05 6.44849e-05 0.108523)
(3.11856e-05 -9.41281e-06 0.0947885)
(-1.43584e-05 9.37381e-05 0.1095)
(6.41014e-06 7.59277e-05 0.09473)
(-1.73682e-05 9.09109e-05 0.10946)
(-8.10396e-06 4.17576e-05 0.101495)
(-1.66669e-05 7.93076e-05 0.10151)
(-7.71867e-05 9.14866e-05 0.10855)
(1.07357e-05 3.04696e-05 0.0947593)
(-3.14257e-05 9.46494e-05 0.10951)
(8.44618e-06 5.20658e-05 0.094771)
(-3.99882e-05 9.5926e-05 0.109467)
(-8.4097e-06 4.07935e-05 0.101499)
(-3.96156e-06 1.05407e-05 0.0886777)
(-9.82672e-06 4.84102e-06 0.088681)
(-2.51936e-05 2.13878e-05 0.10695)
(3.29388e-05 3.21364e-05 0.0886287)
(-3.1833e-05 -3.08195e-05 0.0886279)
(-1.53514e-05 -1.04385e-05 0.0717339)
(-7.68738e-06 -3.31749e-05 0.0717404)
(-6.98959e-06 -7.22902e-06 0.0717061)
(2.13938e-05 1.23129e-05 0.0716739)
(-0.000178684 0.000176231 0.10673)
(9.02127e-07 7.70902e-06 0.0885726)
(-7.85271e-06 -3.80653e-07 0.0885718)
(1.99466e-05 4.10888e-05 0.0885476)
(-4.08824e-05 -1.81076e-05 0.0885472)
(6.59168e-06 6.53882e-06 0.071706)
(-1.25938e-05 -2.11849e-05 0.071674)
(4.63435e-05 -1.62982e-05 0.101625)
(8.67516e-05 -2.21999e-05 0.094868)
(0.000100263 1.11901e-05 0.109362)
(7.03971e-05 1.59275e-06 0.108494)
(8.60596e-05 -5.71156e-06 0.101646)
(5.88312e-05 -1.11228e-05 0.094846)
(9.57016e-05 -7.67699e-06 0.109414)
(1.29104e-05 -1.73938e-05 0.0931737)
(6.7575e-06 -1.68927e-05 0.0829813)
(3.17915e-05 -1.71242e-05 0.0932142)
(-2.29759e-06 3.09724e-06 0.0829875)
(4.43242e-05 -1.67738e-05 0.101623)
(0.000104048 -1.91377e-05 0.109351)
(3.7504e-05 -2.13017e-05 0.0948977)
(9.9863e-05 -7.675e-05 0.108492)
(8.53865e-05 -8.32916e-06 0.101642)
(0.000103333 -3.23536e-05 0.109408)
(1.8715e-06 -1.35011e-05 0.0949051)
(3.48772e-05 -1.26816e-05 0.0930853)
(-1.36472e-05 4.77675e-05 0.0828773)
(1.32878e-05 2.43043e-05 0.082844)
(1.35732e-05 1.05925e-05 0.0930592)
(8.2862e-05 -1.6635e-05 0.101481)
(6.54488e-05 -1.40128e-05 0.108522)
(-9.93629e-06 3.63949e-05 0.0947875)
(9.26481e-05 -1.64866e-05 0.109498)
(7.47965e-05 1.15168e-05 0.0947265)
(9.30309e-05 -1.92987e-05 0.109458)
(3.92437e-05 -7.36352e-06 0.101483)
(3.30856e-05 -1.34963e-05 0.0930868)
(6.59704e-06 2.67067e-05 0.0828857)
(1.98567e-05 1.04339e-05 0.0829055)
(1.41177e-05 6.76082e-06 0.0930643)
(8.04795e-05 -1.75732e-05 0.101481)
(9.72282e-05 -8.16209e-05 0.108519)
(9.56057e-05 -3.65403e-05 0.109505)
(2.981e-05 7.6235e-06 0.0947677)
(9.9975e-05 -3.97852e-05 0.109459)
(3.48028e-05 -2.03363e-05 0.0947781)
(3.83626e-05 -9.91202e-06 0.101485)
(-8.58425e-06 1.68496e-05 0.0931984)
(-1.16643e-05 5.80106e-06 0.0830034)
(-3.07613e-05 1.16209e-05 0.0932345)
(-1.44367e-06 -2.51028e-05 0.0829834)
(-3.97213e-05 9.45906e-06 0.101677)
(-9.69762e-05 -3.72289e-05 0.109367)
(-6.62022e-05 3.11735e-05 0.0949128)
(-7.45311e-05 -4.21646e-05 0.108502)
(-7.68573e-05 -3.26577e-06 0.101666)
(-9.04874e-05 -1.31102e-05 0.10943)
(-9.28757e-05 5.09874e-05 0.0948436)
(-9.90199e-06 2.06128e-05 0.0932077)
(-3.95036e-05 7.97328e-05 0.0829993)
(-2.90518e-05 1.15785e-05 0.0932498)
(-1.47683e-05 4.18744e-05 0.0829087)
(-7.69704e-05 1.45661e-05 0.101517)
(-9.23343e-05 7.68493e-05 0.108552)