/*--------------------------------*- C++ -*----------------------------------*\
| =========                 |                                                 |
| \\      /  F ield         | OpenFOAM: The Open Source CFD Toolbox           |
|  \\    /   O peration     | Version:  v2012                                 |
|   \\  /    A nd           | Website:  www.openfoam.com                      |
|    \\/     M anipulation  |                                                 |
\*---------------------------------------------------------------------------*/
FoamFile
{
    version     2.0;
    format      ascii;
    class       volScalarField;
    location    "350";
    object      k;
}
// * * * * * * * * * * * * * * * * * * * * * * * * * * * * * * * * * * * * * //

dimensions      [0 2 -2 0 0 0 0];


internalField   nonuniform List<scalar> 
171728
(
4.23613e-07
2.90316e-07
3.3132e-07
3.5305e-07
4.19388e-07
2.76577e-07
3.14312e-07
3.29411e-07
4.18564e-07
2.64405e-07
2.98663e-07
3.13325e-07
4.17929e-07
2.5338e-07
2.84523e-07
2.98443e-07
4.1766e-07
2.43213e-07
2.71763e-07
2.8469e-07
4.17884e-07
2.33989e-07
2.60586e-07
2.7257e-07
4.18329e-07
2.25695e-07
2.5058e-07
2.62312e-07
4.1931e-07
2.18e-07
2.41623e-07
2.53004e-07
4.20624e-07
2.11266e-07
2.33633e-07
2.44166e-07
4.22623e-07
2.05784e-07
2.26472e-07
2.35375e-07
4.24874e-07
2.01571e-07
2.20536e-07
2.27163e-07
4.27641e-07
1.98458e-07
2.1616e-07
2.19799e-07
4.3087e-07
1.96971e-07
2.12882e-07
2.13771e-07
4.34522e-07
1.97048e-07
2.11587e-07
2.09371e-07
4.38493e-07
1.98597e-07
2.11919e-07
2.07469e-07
4.42741e-07
2.02076e-07
2.15637e-07
2.09446e-07
4.47652e-07
2.09677e-07
2.24321e-07
2.17613e-07
4.52643e-07
2.26975e-07
2.41311e-07
2.36698e-07
4.57869e-07
2.6059e-07
2.69663e-07
2.74187e-07
4.63212e-07
3.08173e-07
3.14536e-07
3.43684e-07
4.69048e-07
3.75655e-07
4.01399e-07
4.72498e-07
4.75656e-07
5.08253e-07
5.09746e-07
6.96854e-07
4.82947e-07
6.53468e-07
6.59562e-07
1.11036e-06
4.91307e-07
8.98343e-07
9.01773e-07
1.73898e-06
5.01356e-07
1.22863e-06
1.24023e-06
2.63512e-06
5.13823e-07
1.61091e-06
1.64654e-06
4.05613e-06
5.29314e-07
2.15941e-06
2.13704e-06
5.60342e-06
5.50793e-07
2.79458e-06
2.78854e-06
7.66146e-06
5.75602e-07
3.53207e-06
3.57907e-06
1.00668e-05
6.13822e-07
4.41091e-06
4.33638e-06
1.27562e-05
6.62624e-07
5.40102e-06
5.49241e-06
1.52773e-05
7.18476e-07
6.59898e-06
6.46995e-06
1.71041e-05
8.05703e-07
7.94322e-06
7.81432e-06
1.995e-05
9.1013e-07
8.95876e-06
9.14538e-06
2.18154e-05
1.02695e-06
1.04834e-05
1.0667e-05
2.32947e-05
1.24242e-06
1.25536e-05
1.20405e-05
2.53736e-05
1.41456e-06
1.33868e-05
1.39669e-05
2.65502e-05
1.70981e-06
1.59608e-05
1.53339e-05
2.82896e-05
2.03557e-06
1.66979e-05
1.77301e-05
2.92672e-05
2.48384e-06
1.94719e-05
1.86403e-05
3.08072e-05
2.87031e-06
2.0875e-05
2.12289e-05
3.18902e-05
3.47994e-06
2.25286e-05
2.28004e-05
3.2992e-05
4.00545e-06
2.4158e-05
2.4216e-05
3.41688e-05
5.27248e-06
2.68204e-05
2.64088e-05
3.5402e-05
5.51536e-06
2.80732e-05
2.83462e-05
3.62851e-05
6.57196e-06
2.86366e-05
2.92837e-05
3.74825e-05
7.54844e-06
3.21646e-05
3.13748e-05
3.85249e-05
9.44911e-06
3.33352e-05
3.34846e-05
3.98534e-05
1.00637e-05
3.34328e-05
3.37858e-05
4.02686e-05
1.13787e-05
3.57861e-05
3.59752e-05
4.19066e-05
1.28561e-05
3.7876e-05
3.64836e-05
4.24019e-05
1.44923e-05
3.80007e-05
3.8816e-05
4.37298e-05
1.60172e-05
3.94199e-05
3.95233e-05
4.41651e-05
1.7022e-05
4.08048e-05
4.05046e-05
4.53285e-05
1.94315e-05
4.10808e-05
4.11812e-05
4.58915e-05
1.99927e-05
4.30256e-05
4.29639e-05
4.64164e-05
2.24108e-05
4.41258e-05
4.41775e-05
4.79637e-05
2.39356e-05
4.42031e-05
4.431e-05
4.8054e-05
2.47249e-05
4.53795e-05
4.52443e-05
4.88373e-05
2.62747e-05
4.65057e-05
4.65999e-05
4.95421e-05
2.80375e-05
4.73662e-05
4.72746e-05
5.00558e-05
2.8924e-05
4.7931e-05
4.81374e-05
5.09882e-05
3.0484e-05
4.88769e-05
4.83875e-05
5.12582e-05
3.13946e-05
4.88998e-05
4.93725e-05
5.1772e-05
3.24646e-05
5.04017e-05
5.00848e-05
5.25856e-05
3.39252e-05
5.08734e-05
5.09477e-05
5.26542e-05
3.49142e-05
5.08599e-05
5.09587e-05
5.32186e-05
3.56291e-05
5.19883e-05
5.18575e-05
5.40479e-05
3.68193e-05
5.24401e-05
5.27792e-05
5.41327e-05
3.81447e-05
5.26199e-05
5.27058e-05
5.46345e-05
3.84144e-05
5.31265e-05
5.26347e-05
5.47547e-05
3.91729e-05
5.34414e-05
5.36332e-05
5.50817e-05
4.01076e-05
5.38057e-05
5.41785e-05
5.5502e-05
4.11073e-05
5.46618e-05
5.45896e-05
5.62996e-05
4.14295e-05
5.40501e-05
5.38464e-05
5.53188e-05
4.11727e-05
5.36105e-05
5.34518e-05
5.48786e-05
4.20285e-05
5.57424e-05
5.58108e-05
5.7344e-05
4.5194e-05
5.78244e-05
5.78748e-05
5.93885e-05
4.55039e-05
5.66967e-05
5.67126e-05
5.75294e-05
4.18359e-05
5.22854e-05
5.22927e-05
5.3399e-05
3.9075e-05
5.04056e-05
5.04035e-05
5.1801e-05
3.86796e-05
5.08654e-05
5.0856e-05
5.27931e-05
4.31846e-05
5.54723e-05
5.54726e-05
5.70728e-05
4.85285e-05
6.02879e-05
6.02923e-05
6.18543e-05
5.129e-05
6.23166e-05
6.23217e-05
6.39154e-05
5.07774e-05
6.0185e-05
6.01896e-05
6.10888e-05
4.52435e-05
5.50185e-05
5.50223e-05
5.60783e-05
4.12473e-05
5.19006e-05
5.19037e-05
5.31094e-05
3.99771e-05
5.10272e-05
5.10299e-05
5.23921e-05
4.03725e-05
5.15494e-05
5.15522e-05
5.31266e-05
4.14123e-05
5.19597e-05
5.1963e-05
5.36595e-05
4.16194e-05
5.19054e-05
5.19086e-05
5.37319e-05
4.1581e-05
5.17587e-05
5.17618e-05
5.36943e-05
4.15264e-05
5.16588e-05
5.16617e-05
5.36546e-05
4.11218e-05
5.05655e-05
5.05678e-05
5.33152e-05
3.59256e-07
3.47577e-07
3.29355e-07
3.51875e-07
3.46516e-07
3.47954e-07
4.27667e-07
4.19651e-07
4.23721e-07
4.1951e-07
3.36546e-07
3.44913e-07
3.59116e-07
3.4441e-07
2.93308e-07
3.54741e-07
3.5817e-07
3.41857e-07
3.4566e-07
3.29571e-07
3.31957e-07
3.17374e-07
3.50842e-07
3.33098e-07
3.50935e-07
3.47494e-07
3.37023e-07
3.33479e-07
3.45957e-07
2.79871e-07
3.31955e-07
3.58097e-07
3.41242e-07
3.31211e-07
3.18561e-07
2.51949e-07
3.30445e-07
3.40559e-07
3.25233e-07
3.2751e-07
3.13776e-07
3.14865e-07
3.04397e-07
3.31834e-07
3.15486e-07
3.32558e-07
3.28791e-07
3.19805e-07
3.15545e-07
3.27479e-07
2.67278e-07
3.15025e-07
3.3994e-07
3.23738e-07
2.42466e-07
3.0238e-07
2.30471e-07
3.14381e-07
3.24004e-07
3.0997e-07
3.1078e-07
3.01055e-07
2.99467e-07
2.89944e-07
3.14352e-07
2.99697e-07
3.15623e-07
3.11304e-07
3.03905e-07
2.99551e-07
3.10981e-07
2.56081e-07
2.99537e-07
3.22516e-07
3.07885e-07
2.28402e-07
2.87919e-07
2.23846e-07
2.99361e-07
3.08784e-07
2.95806e-07
2.95769e-07
2.86637e-07
2.84932e-07
2.78116e-07
2.98635e-07
2.8565e-07
3.00117e-07
2.95889e-07
2.89772e-07
2.85866e-07
2.95886e-07
2.45644e-07
2.85501e-07
3.0674e-07
2.93584e-07
2.22751e-07
2.74747e-07
2.20382e-07
2.85529e-07
2.94715e-07
2.82893e-07
2.81525e-07
2.75231e-07
2.72125e-07
2.67047e-07
2.84744e-07
2.73427e-07
2.8659e-07
2.82796e-07
2.77795e-07
2.73838e-07
2.82234e-07
2.36187e-07
2.73191e-07
2.92512e-07
2.80671e-07
2.19727e-07
2.63288e-07
2.17768e-07
2.73319e-07
2.81932e-07
2.71092e-07
2.69244e-07
2.64868e-07
2.61115e-07
2.59853e-07
2.72661e-07
2.63056e-07
2.7494e-07
2.70939e-07
2.66539e-07
2.62471e-07
2.70288e-07
2.2765e-07
2.62247e-07
2.797e-07
2.69082e-07
2.17089e-07
2.53006e-07
2.14965e-07
2.63009e-07
2.70228e-07
2.60063e-07
2.58619e-07
2.58831e-07
2.51646e-07
2.58057e-07
2.62265e-07
2.53311e-07
2.63771e-07
2.59744e-07
2.55918e-07
2.52312e-07
2.59688e-07
2.19805e-07
2.52579e-07
2.68261e-07
2.58712e-07
2.14262e-07
2.43736e-07
2.11842e-07
2.53606e-07
2.59258e-07
2.4983e-07
2.49414e-07
2.58081e-07
2.43048e-07
2.58876e-07
2.52388e-07
2.45341e-07
2.53453e-07
2.49893e-07
2.46553e-07
2.43248e-07
2.50204e-07
2.12863e-07
2.43913e-07
2.58007e-07
2.49112e-07
2.11061e-07
2.35509e-07
2.08777e-07
2.44681e-07
2.49119e-07
2.40808e-07
2.41038e-07
2.59984e-07
2.35405e-07
2.64978e-07
2.44868e-07
2.39888e-07
2.44471e-07
2.41166e-07
2.38547e-07
2.35329e-07
2.41918e-07
2.07053e-07
2.36642e-07
2.48472e-07
2.40066e-07
2.08168e-07
2.28201e-07
2.06872e-07
2.3585e-07
2.40204e-07
2.32677e-07
2.33604e-07
2.66877e-07
2.28965e-07
2.75986e-07
2.39643e-07
2.36222e-07
2.36702e-07
2.33614e-07
2.31547e-07
2.28925e-07
2.34964e-07
2.02416e-07
2.30506e-07
2.39478e-07
2.31371e-07
2.06603e-07
2.21958e-07
2.05552e-07
2.27575e-07
2.32168e-07
2.254e-07
2.27509e-07
2.79439e-07
2.2397e-07
2.88984e-07
2.36226e-07
2.3542e-07
2.29962e-07
2.27541e-07
2.25533e-07
2.24016e-07
2.29041e-07
1.99135e-07
2.25296e-07
2.30872e-07
2.23802e-07
2.05211e-07
2.17158e-07
2.04345e-07
2.20102e-07
2.25034e-07
2.19173e-07
2.23072e-07
2.93351e-07
2.20542e-07
3.16556e-07
2.35849e-07
2.38192e-07
2.24189e-07
2.23053e-07
2.20996e-07
2.20483e-07
2.24108e-07
1.97181e-07
2.21234e-07
2.23451e-07
2.17636e-07
2.0404e-07
2.13546e-07
2.03675e-07
2.13877e-07
2.19004e-07
2.14424e-07
2.19897e-07
3.26925e-07
2.18344e-07
3.5592e-07
2.39481e-07
2.44365e-07
2.20089e-07
2.19781e-07
2.18404e-07
2.18731e-07
2.20546e-07
1.96863e-07
2.19049e-07
2.17505e-07
2.13183e-07
2.03715e-07
2.11825e-07
2.04429e-07
2.09246e-07
2.14541e-07
2.1203e-07
2.1812e-07
3.62644e-07
2.17935e-07
3.69721e-07
2.4537e-07
2.46195e-07
2.18022e-07
2.18565e-07
2.18169e-07
2.18706e-07
2.18768e-07
1.98174e-07
2.18901e-07
2.1332e-07
2.10504e-07
2.04927e-07
2.11625e-07
2.07256e-07
2.06866e-07
2.12623e-07
2.12763e-07
2.18122e-07
3.68971e-07
2.20119e-07
3.20299e-07
2.46579e-07
2.26605e-07
2.18542e-07
2.19012e-07
2.20841e-07
2.21539e-07
2.19257e-07
2.01049e-07
2.21608e-07
2.11086e-07
2.11446e-07
2.08334e-07
2.14269e-07
2.13e-07
2.07942e-07
2.14271e-07
2.183e-07
2.2148e-07
2.9737e-07
2.27211e-07
2.47203e-07
2.25644e-07
2.11881e-07
2.2231e-07
2.23091e-07
2.28454e-07
2.29583e-07
2.2277e-07
2.07833e-07
2.28717e-07
2.12964e-07
2.16961e-07
2.15075e-07
2.2125e-07
2.23592e-07
2.14302e-07
2.21678e-07
2.3224e-07
2.30121e-07
2.34404e-07
2.41537e-07
2.19363e-07
2.1284e-07
2.18678e-07
2.31548e-07
2.32686e-07
2.43573e-07
2.44379e-07
2.31682e-07
2.23037e-07
2.43545e-07
2.20067e-07
2.31683e-07
2.27509e-07
2.35905e-07
2.42738e-07
2.29978e-07
2.3878e-07
2.6289e-07
2.46973e-07
2.19686e-07
2.66998e-07
2.31671e-07
2.24696e-07
2.47356e-07
2.4905e-07
2.49906e-07
2.69037e-07
2.69415e-07
2.49136e-07
2.51857e-07
2.69499e-07
2.37433e-07
2.62655e-07
2.49329e-07
2.61356e-07
2.73164e-07
2.61547e-07
2.74608e-07
3.22054e-07
2.76647e-07
2.39258e-07
3.08177e-07
2.69107e-07
2.62084e-07
2.97629e-07
2.78725e-07
2.7787e-07
3.10643e-07
3.12892e-07
2.78693e-07
2.90239e-07
3.12159e-07
2.73382e-07
3.24912e-07
2.83254e-07
3.04702e-07
3.19132e-07
3.21906e-07
3.4148e-07
4.42114e-07
3.22649e-07
2.87175e-07
3.78892e-07
3.3838e-07
3.21354e-07
4.17234e-07
3.24938e-07
3.22601e-07
3.81505e-07
3.87349e-07
3.26626e-07
3.56606e-07
3.79626e-07
3.44009e-07
4.4018e-07
3.34733e-07
3.79819e-07
3.90987e-07
4.36349e-07
4.77176e-07
6.38084e-07
3.99086e-07
3.57477e-07
4.81769e-07
4.55281e-07
4.4695e-07
6.39401e-07
4.01766e-07
4.08594e-07
4.82426e-07
4.71374e-07
4.03142e-07
4.72527e-07
4.77969e-07
4.9058e-07
5.97296e-07
4.15726e-07
4.6101e-07
4.94814e-07
6.42374e-07
7.04368e-07
9.8944e-07
5.17509e-07
4.9139e-07
6.25717e-07
5.83184e-07
7.14572e-07
9.24013e-07
5.18474e-07
5.19916e-07
6.27834e-07
6.34099e-07
5.12603e-07
5.94614e-07
6.33661e-07
6.5541e-07
1.06468e-06
5.30773e-07
6.25897e-07
6.57338e-07
1.01938e-06
1.07346e-06
1.59083e-06
6.72226e-07
6.42901e-07
8.55696e-07
8.39619e-07
9.99738e-07
1.66936e-06
6.74859e-07
6.68566e-07
8.53679e-07
8.57632e-07
6.76337e-07
8.46096e-07
8.53695e-07
1.11523e-06
1.56471e-06
7.01041e-07
8.46885e-07
8.82273e-07
1.57657e-06
1.74637e-06
2.4066e-06
9.18006e-07
8.92135e-07
1.14257e-06
1.11824e-06
1.79533e-06
2.37908e-06
9.15267e-07
9.15102e-07
1.14359e-06
1.15506e-06
9.19952e-07
1.12383e-06
1.13988e-06
1.7614e-06
2.37312e-06
9.52251e-07
1.14265e-06
1.17459e-06
2.44017e-06
2.61815e-06
3.67532e-06
1.23696e-06
1.22289e-06
1.53314e-06
1.51434e-06
2.62145e-06
3.74319e-06
1.23616e-06
1.2491e-06
1.5286e-06
1.53359e-06
1.22515e-06
1.50865e-06
1.55256e-06
2.61571e-06
3.6787e-06
1.25959e-06
1.52107e-06
1.59969e-06
3.72325e-06
3.93875e-06
5.30595e-06
1.64654e-06
1.61966e-06
2.03012e-06
2.02867e-06
3.98626e-06
5.30342e-06
1.64369e-06
1.66219e-06
2.02839e-06
2.01263e-06
1.66327e-06
2.02726e-06
2.01861e-06
3.88638e-06
5.36723e-06
1.71523e-06
1.99638e-06
2.05943e-06
5.24117e-06
5.66568e-06
7.24044e-06
2.16603e-06
2.16031e-06
2.62147e-06
2.65375e-06
5.80758e-06
7.17603e-06
2.16169e-06
2.1545e-06
2.6181e-06
2.65799e-06
2.16543e-06
2.63359e-06
2.63029e-06
5.69589e-06
7.28693e-06
2.20991e-06
2.64702e-06
2.68573e-06
7.25384e-06
7.67993e-06
9.67655e-06
2.80266e-06
2.82184e-06
3.35892e-06
3.34154e-06
7.62544e-06
9.64401e-06
2.80546e-06
2.7979e-06
3.34141e-06
3.36059e-06
2.77168e-06
3.33728e-06
3.41008e-06
7.78828e-06
9.53095e-06
2.82461e-06
3.34302e-06
3.47016e-06
9.68299e-06
1.01217e-05
1.2045e-05
3.53326e-06
3.53231e-06
4.19775e-06
4.15947e-06
9.90165e-06
1.23107e-05
3.51522e-06
3.58978e-06
4.20697e-06
4.13822e-06
3.62016e-06
4.11539e-06
4.0688e-06
9.99035e-06
1.21473e-05
3.67532e-06
4.12613e-06
4.15596e-06
1.22597e-05
1.25583e-05
1.46197e-05
4.44109e-06
4.45843e-06
5.1521e-06
5.26563e-06
1.28753e-05
1.45478e-05
4.43572e-06
4.35236e-06
5.13182e-06
5.25419e-06
4.38471e-06
5.28026e-06
5.26636e-06
1.25922e-05
1.45468e-05
4.46619e-06
5.2384e-06
5.2738e-06
1.46158e-05
1.51218e-05
1.69392e-05
5.42058e-06
5.37457e-06
6.24892e-06
6.15508e-06
1.51695e-05
1.6773e-05
5.42873e-06
5.48827e-06
6.25048e-06
6.2042e-06
5.40099e-06
6.05677e-06
6.27779e-06
1.51109e-05
1.70455e-05
5.46211e-06
6.16129e-06
6.27914e-06
1.67505e-05
1.74212e-05
1.92245e-05
6.52537e-06
6.69323e-06
7.46711e-06
7.85856e-06
1.72458e-05
1.98091e-05
6.48157e-06
6.53478e-06
7.43064e-06
7.43541e-06
6.55149e-06
7.82975e-06
7.38604e-06
1.74187e-05
1.91953e-05
6.54071e-06
7.48024e-06
7.41405e-06
1.94438e-05
1.97001e-05
2.13475e-05
7.81484e-06
7.95935e-06
8.84992e-06
8.40882e-06
2.01329e-05
2.05838e-05
7.82829e-06
7.7758e-06
8.85788e-06
8.94422e-06
7.90035e-06
8.34816e-06
8.92741e-06
1.98186e-05
2.12838e-05
7.91028e-06
8.85117e-06
8.97526e-06
2.13584e-05
2.17903e-05
2.30258e-05
9.16893e-06
9.03606e-06
1.01214e-05
1.02055e-05
2.09567e-05
2.35245e-05
9.14085e-06
9.21825e-06
1.01053e-05
1.01103e-05
9.09082e-06
1.01633e-05
1.01276e-05
2.16452e-05
2.31856e-05
9.12157e-06
1.01696e-05
9.98388e-06
2.28937e-05
2.34225e-05
2.49292e-05
1.05303e-05
1.05768e-05
1.19607e-05
1.22011e-05
2.39423e-05
2.48609e-05
1.05234e-05
1.06364e-05
1.1924e-05
1.19014e-05
1.0579e-05
1.21141e-05
1.19831e-05
2.35918e-05
2.48344e-05
1.05934e-05
1.18338e-05
1.19627e-05
2.50592e-05
2.53267e-05
2.62931e-05
1.22963e-05
1.2552e-05
1.32334e-05
1.30286e-05
2.5243e-05
2.6335e-05
1.22696e-05
1.20487e-05
1.32425e-05
1.33283e-05
1.2331e-05
1.3072e-05
1.31445e-05
2.51813e-05
2.63122e-05
1.22019e-05
1.33433e-05
1.31176e-05
2.61786e-05
2.66256e-05
2.7828e-05
1.37825e-05
1.34815e-05
1.52296e-05
1.5643e-05
2.6639e-05
2.79474e-05
1.37673e-05
1.40229e-05
1.51651e-05
1.51642e-05
1.36591e-05
1.55009e-05
1.54212e-05
2.67224e-05
2.78935e-05
1.35423e-05
1.50665e-05
1.54126e-05
2.7993e-05
2.81432e-05
2.90832e-05
1.54438e-05
1.60294e-05
1.67383e-05
1.64433e-05
2.83017e-05
2.89245e-05
1.54055e-05
1.5367e-05
1.674e-05
1.70714e-05
1.57271e-05
1.64329e-05
1.67412e-05
2.81982e-05
2.91707e-05
1.58686e-05
1.70944e-05
1.64534e-05
2.89737e-05
2.94577e-05
3.04787e-05
1.74947e-05
1.67774e-05
1.88839e-05
1.91305e-05
2.91901e-05
3.06055e-05
1.74771e-05
1.77185e-05
1.89118e-05
1.84794e-05
1.7258e-05
1.90531e-05
1.85795e-05
2.95221e-05
3.02837e-05
1.69305e-05
1.84836e-05
1.8869e-05
3.04871e-05
3.07056e-05
3.14903e-05
1.90112e-05
1.94543e-05
2.03832e-05
2.02083e-05
3.09013e-05
3.15011e-05
1.90357e-05
1.87134e-05
2.02326e-05
2.05544e-05
1.90463e-05
2.01456e-05
2.0716e-05
3.05162e-05
3.16994e-05
1.91849e-05
2.04965e-05
2.04006e-05
3.16108e-05
3.18683e-05
3.27016e-05
2.10978e-05
2.09862e-05
2.22866e-05
2.24891e-05
3.17991e-05
3.27862e-05
2.10852e-05
2.1155e-05
2.23289e-05
2.24692e-05
2.11158e-05
2.23102e-05
2.21457e-05
3.20883e-05
3.28264e-05
2.09832e-05
2.25728e-05
2.21824e-05
3.27304e-05
3.28968e-05
3.39367e-05
2.24803e-05
2.261e-05
2.38936e-05
2.38443e-05
3.29736e-05
3.36843e-05
2.24521e-05
2.27348e-05
2.38689e-05
2.37798e-05
2.26379e-05
2.36981e-05
2.39618e-05
3.30155e-05
3.37131e-05
2.26305e-05
2.37207e-05
2.41123e-05
3.3903e-05
3.43435e-05
3.54093e-05
2.46616e-05
2.44732e-05
2.65816e-05
2.63251e-05
3.40336e-05
3.54107e-05
2.46718e-05
2.43777e-05
2.66005e-05
2.6061e-05
2.43692e-05
2.609e-05
2.62256e-05
3.40154e-05
3.51892e-05
2.44095e-05
2.5906e-05
2.57066e-05
3.51006e-05
3.55719e-05
3.5823e-05
2.68654e-05
2.69255e-05
2.72114e-05
2.78028e-05
3.57302e-05
3.60803e-05
2.68846e-05
2.64249e-05
2.71508e-05
2.77157e-05
2.67535e-05
2.80104e-05
2.73249e-05
3.54708e-05
3.62439e-05
2.64216e-05
2.78858e-05
2.79175e-05
3.61237e-05
3.59804e-05
3.70944e-05
2.75401e-05
2.78285e-05
2.90569e-05
2.80042e-05
3.6105e-05
3.63071e-05
2.73307e-05
2.82548e-05
2.91387e-05
2.92385e-05
2.75251e-05
2.82281e-05
2.94652e-05
3.64804e-05
3.70889e-05
2.8044e-05
2.91176e-05
2.88528e-05
3.71068e-05
3.74123e-05
3.84053e-05
2.94833e-05
2.86196e-05
3.09275e-05
3.18187e-05
3.68867e-05
3.93856e-05
2.96174e-05
2.93851e-05
3.08169e-05
3.05882e-05
3.00146e-05
3.15656e-05
3.07133e-05
3.72443e-05
3.81567e-05
2.96756e-05
3.06375e-05
3.08828e-05
3.83649e-05
3.86874e-05
3.96973e-05
3.15439e-05
3.23905e-05
3.31357e-05
3.32438e-05
3.95792e-05
3.96071e-05
3.13572e-05
3.13007e-05
3.30512e-05
3.32173e-05
3.1072e-05
3.31739e-05
3.28845e-05
3.85638e-05
3.98926e-05
3.11767e-05
3.32131e-05
3.28392e-05
3.95753e-05
3.98611e-05
4.00984e-05
3.34004e-05
3.33712e-05
3.36187e-05
3.34345e-05
3.96408e-05
3.96961e-05
3.33693e-05
3.355e-05
3.36758e-05
3.38144e-05
3.33506e-05
3.34358e-05
3.38033e-05
4.00281e-05
4.00689e-05
3.33033e-05
3.36831e-05
3.37494e-05
4.01749e-05
4.02185e-05
4.15263e-05
3.37089e-05
3.3428e-05
3.5546e-05
3.47058e-05
3.9757e-05
4.11719e-05
3.38555e-05
3.38747e-05
3.53978e-05
3.54117e-05
3.38794e-05
3.46726e-05
3.54083e-05
4.01638e-05
4.1589e-05
3.38458e-05
3.55643e-05
3.55114e-05
4.15504e-05
4.18093e-05
4.23189e-05
3.60679e-05
3.58326e-05
3.67403e-05
3.76541e-05
4.17725e-05
4.31432e-05
3.57603e-05
3.6044e-05
3.66138e-05
3.67363e-05
3.60613e-05
3.7679e-05
3.68099e-05
4.18733e-05
4.21113e-05
3.60813e-05
3.63202e-05
3.66454e-05
4.23164e-05
4.24962e-05
4.33698e-05
3.70179e-05
3.78483e-05
3.80915e-05
3.79892e-05
4.32348e-05
4.31565e-05
3.70201e-05
3.68048e-05
3.83222e-05
3.8046e-05
3.69077e-05
3.79797e-05
3.81371e-05
4.21981e-05
4.35347e-05
3.67632e-05
3.83585e-05
3.82021e-05
4.3449e-05
4.35423e-05
4.39691e-05
3.83765e-05
3.80325e-05
3.89528e-05
3.88471e-05
4.3198e-05
4.3958e-05
3.85875e-05
3.85916e-05
3.8961e-05
3.93565e-05
3.8619e-05
3.8839e-05
3.92167e-05
4.38641e-05
4.42696e-05
3.86642e-05
3.92792e-05
3.91754e-05
4.40841e-05
4.41264e-05
4.50752e-05
3.92024e-05
3.93503e-05
4.04575e-05
4.06543e-05
4.42806e-05
4.52033e-05
3.91301e-05
3.95968e-05
4.02699e-05
4.0336e-05
3.92853e-05
4.0644e-05
4.03063e-05
4.43759e-05
4.49885e-05
3.92295e-05
4.03672e-05
4.01865e-05
4.50327e-05
4.53257e-05
4.58012e-05
4.08912e-05
4.08772e-05
4.15239e-05
4.11015e-05
4.52918e-05
4.53574e-05
4.07519e-05
4.04953e-05
4.16011e-05
4.10032e-05
4.08024e-05
4.096e-05
4.15984e-05
4.50739e-05
4.52496e-05
4.07281e-05
4.09005e-05
4.16901e-05
4.58381e-05
4.58549e-05
4.62981e-05
4.15602e-05
4.12145e-05
4.19239e-05
4.24551e-05
4.54766e-05
4.68547e-05
4.16663e-05
4.12772e-05
4.19791e-05
4.24682e-05
4.16479e-05
4.2491e-05
4.18177e-05
4.54507e-05
4.68288e-05
4.1769e-05
4.24724e-05
4.19061e-05
4.61442e-05
4.66362e-05
4.78088e-05
4.24866e-05
4.29691e-05
4.40138e-05
4.4002e-05
4.71806e-05
4.77286e-05
4.24474e-05
4.29365e-05
4.39227e-05
4.39774e-05
4.21855e-05
4.40262e-05
4.39639e-05
4.71409e-05
4.77584e-05
4.21535e-05
4.40337e-05
4.38814e-05
4.78094e-05
4.79165e-05
4.7954e-05
4.42636e-05
4.41185e-05
4.44412e-05
4.41799e-05
4.77544e-05
4.7626e-05
4.41825e-05
4.41176e-05
4.43882e-05
4.42122e-05
4.42685e-05
4.41642e-05
4.4492e-05
4.78022e-05
4.76987e-05
4.42241e-05
4.42673e-05
4.45059e-05
4.80207e-05
4.80111e-05
4.85622e-05
4.44578e-05
4.42294e-05
4.50064e-05
4.51583e-05
4.77386e-05
4.87754e-05
4.44423e-05
4.42652e-05
4.50946e-05
4.51182e-05
4.45285e-05
4.52235e-05
4.51207e-05
4.77879e-05
4.86831e-05
4.45313e-05
4.50229e-05
4.51399e-05
4.86807e-05
4.87291e-05
4.93732e-05
4.53224e-05
4.5348e-05
4.6071e-05
4.61085e-05
4.88895e-05
4.9366e-05
4.53695e-05
4.53901e-05
4.60766e-05
4.61981e-05
4.5276e-05
4.60792e-05
4.61139e-05
4.88216e-05
4.94559e-05
4.54107e-05
4.62518e-05
4.61436e-05
4.9353e-05
4.95424e-05
5.01762e-05
4.63301e-05
4.64945e-05
4.72057e-05
4.72454e-05
4.96321e-05
5.0245e-05
4.62987e-05
4.64501e-05
4.71732e-05
4.71711e-05
4.64923e-05
4.73112e-05
4.70651e-05
4.96803e-05
5.02388e-05
4.63685e-05
4.71314e-05
4.68523e-05
4.99749e-05
5.03013e-05
5.04674e-05
4.73722e-05
4.73032e-05
4.75736e-05
4.76014e-05
5.0283e-05
5.0537e-05
4.73966e-05
4.74127e-05
4.76291e-05
4.78976e-05
4.71106e-05
4.75712e-05
4.77114e-05
5.03385e-05
5.07444e-05
4.70707e-05
4.79714e-05
4.80289e-05
5.07782e-05
5.05532e-05
5.13896e-05
4.77549e-05
4.79564e-05
4.87629e-05
4.87496e-05
5.07816e-05
5.13515e-05
4.77364e-05
4.79811e-05
4.86517e-05
4.84096e-05
4.80988e-05
4.88088e-05
4.88009e-05
5.08362e-05
5.10083e-05
4.82843e-05
4.83032e-05
4.85344e-05
5.1243e-05
5.15387e-05
5.15999e-05
4.89788e-05
4.88214e-05
4.91275e-05
4.88292e-05
5.13665e-05
5.12143e-05
4.89059e-05
4.86268e-05
4.91395e-05
4.90962e-05
4.88476e-05
4.88788e-05
4.89114e-05
5.10949e-05
5.16534e-05
4.85419e-05
4.91553e-05
4.89476e-05
5.15354e-05
5.16175e-05
5.22576e-05
4.91329e-05
4.88592e-05
4.97572e-05
5.00102e-05
5.13161e-05
5.26332e-05
4.9158e-05
4.91822e-05
4.97137e-05
4.97365e-05
4.90335e-05
4.99907e-05
5.00837e-05
5.1773e-05
5.22362e-05
4.94039e-05
4.98502e-05
5.00857e-05
5.25234e-05
5.24913e-05
5.29089e-05
5.01584e-05
5.04007e-05
5.06933e-05
5.08619e-05
5.28537e-05
5.29803e-05
5.00521e-05
5.00609e-05
5.07124e-05
5.08986e-05
5.03181e-05
5.08648e-05
5.05684e-05
5.24224e-05
5.30861e-05
5.01537e-05
5.08315e-05
5.04361e-05
5.26187e-05
5.29575e-05
5.32134e-05
5.07299e-05
5.0875e-05
5.10659e-05
5.0874e-05
5.29846e-05
5.29155e-05
5.0831e-05
5.10092e-05
5.11444e-05
5.10222e-05
5.05772e-05
5.08415e-05
5.06905e-05
5.31404e-05
5.29602e-05
5.05293e-05
5.09713e-05
5.08738e-05
5.30183e-05
5.33291e-05
5.35474e-05
5.12553e-05
5.09223e-05
5.15482e-05
5.16519e-05
5.30101e-05
5.38105e-05
5.12166e-05
5.09953e-05
5.13807e-05
5.12152e-05
5.09415e-05
5.17193e-05
5.1935e-05
5.29647e-05
5.35651e-05
5.11046e-05
5.1384e-05
5.1878e-05
5.39812e-05
5.36175e-05
5.43106e-05
5.16354e-05
5.18162e-05
5.22929e-05
5.22748e-05
5.39488e-05
5.42272e-05
5.15353e-05
5.16547e-05
5.23867e-05
5.26668e-05
5.2098e-05
5.23466e-05
5.22306e-05
5.38622e-05
5.46441e-05
5.20125e-05
5.26883e-05
5.2219e-05
5.40673e-05
5.44833e-05
5.46781e-05
5.25522e-05
5.24427e-05
5.29286e-05
5.2709e-05
5.4302e-05
5.44127e-05
5.26531e-05
5.28194e-05
5.29711e-05
5.28936e-05
5.22866e-05
5.26035e-05
5.27886e-05
5.46985e-05
5.44701e-05
5.2383e-05
5.27856e-05
5.27779e-05
5.45926e-05
5.46795e-05
5.45637e-05
5.29373e-05
5.27237e-05
5.29144e-05
5.2896e-05
5.4429e-05
5.47129e-05
5.29716e-05
5.28435e-05
5.28965e-05
5.26562e-05
5.28606e-05
5.2921e-05
5.29372e-05
5.44446e-05
5.42657e-05
5.28073e-05
5.2595e-05
5.28387e-05
5.467e-05
5.4628e-05
5.51792e-05
5.29314e-05
5.31054e-05
5.34867e-05
5.34683e-05
5.48642e-05
5.50666e-05
5.28995e-05
5.26636e-05
5.33916e-05
5.33187e-05
5.30448e-05
5.34323e-05
5.34039e-05
5.43652e-05
5.51852e-05
5.29298e-05
5.34779e-05
5.34561e-05
5.50688e-05
5.525e-05
5.53781e-05
5.36029e-05
5.34856e-05
5.37486e-05
5.35774e-05
5.50699e-05
5.52111e-05
5.35516e-05
5.35265e-05
5.38272e-05
5.40093e-05
5.3423e-05
5.35381e-05
5.35676e-05
5.52995e-05
5.5627e-05
5.34986e-05
5.39794e-05
5.36687e-05
5.52659e-05
5.55252e-05
5.61802e-05
5.39181e-05
5.38091e-05
5.45514e-05
5.45838e-05
5.54458e-05
5.6266e-05
5.40459e-05
5.42205e-05
5.45677e-05
5.46145e-05
5.38731e-05
5.46133e-05
5.46394e-05
5.57867e-05
5.6237e-05
5.39507e-05
5.45792e-05
5.4603e-05
5.62728e-05
5.62116e-05
5.54788e-05
5.45997e-05
5.46321e-05
5.43662e-05
5.43462e-05
5.62929e-05
5.54565e-05
5.46007e-05
5.46237e-05
5.43221e-05
5.41775e-05
5.46857e-05
5.43681e-05
5.43861e-05
5.6248e-05
5.5261e-05
5.46382e-05
5.41572e-05
5.43098e-05
5.54611e-05
5.53482e-05
5.4857e-05
5.40701e-05
5.40336e-05
5.36363e-05
5.35992e-05
5.53166e-05
5.48292e-05
5.40195e-05
5.38629e-05
5.35885e-05
5.34502e-05
5.40609e-05
5.36089e-05
5.3601e-05
5.51188e-05
5.46787e-05
5.39893e-05
5.34415e-05
5.3549e-05
5.48132e-05
5.49154e-05
5.67872e-05
5.36353e-05
5.36011e-05
5.4801e-05
5.48604e-05
5.49019e-05
5.68624e-05
5.35889e-05
5.3459e-05
5.4807e-05
5.49082e-05
5.36007e-05
5.48648e-05
5.48175e-05
5.47862e-05
5.69115e-05
5.35516e-05
5.49306e-05
5.48544e-05
5.68262e-05
5.73016e-05
5.92055e-05
5.56755e-05
5.57362e-05
5.75205e-05
5.75769e-05
5.73798e-05
5.92781e-05
5.56812e-05
5.57884e-05
5.75283e-05
5.76217e-05
5.57023e-05
5.75865e-05
5.75599e-05
5.74299e-05
5.93223e-05
5.5734e-05
5.76419e-05
5.75831e-05
5.92566e-05
5.93392e-05
5.811e-05
5.77626e-05
5.78143e-05
5.75474e-05
5.75776e-05
5.94068e-05
5.8118e-05
5.7771e-05
5.78557e-05
5.75566e-05
5.76093e-05
5.78019e-05
5.75887e-05
5.758e-05
5.94492e-05
5.81412e-05
5.78229e-05
5.76246e-05
5.75936e-05
5.8133e-05
5.75117e-05
5.37818e-05
5.66862e-05
5.66849e-05
5.31694e-05
5.31514e-05
5.75101e-05
5.37555e-05
5.66954e-05
5.6703e-05
5.3174e-05
5.31602e-05
5.67064e-05
5.31578e-05
5.31699e-05
5.75291e-05
5.37651e-05
5.67095e-05
5.31671e-05
5.31729e-05
5.37777e-05
5.34046e-05
5.18646e-05
5.22992e-05
5.228e-05
5.06638e-05
5.065e-05
5.33778e-05
5.18502e-05
5.23019e-05
5.22857e-05
5.06612e-05
5.06463e-05
5.22959e-05
5.06527e-05
5.06579e-05
5.33853e-05
5.18461e-05
5.2299e-05
5.06527e-05
5.06601e-05
5.18592e-05
5.18053e-05
5.23374e-05
5.04133e-05
5.0403e-05
5.03834e-05
5.0383e-05
5.17937e-05
5.23502e-05
5.04093e-05
5.03968e-05
5.03767e-05
5.03728e-05
5.04088e-05
5.03859e-05
5.03847e-05
5.17881e-05
5.23396e-05
5.04105e-05
5.03801e-05
5.03848e-05
5.23467e-05
5.27815e-05
5.62631e-05
5.08487e-05
5.08616e-05
5.41779e-05
5.41891e-05
5.27986e-05
5.62802e-05
5.08394e-05
5.08478e-05
5.41719e-05
5.41845e-05
5.08589e-05
5.41942e-05
5.41892e-05
5.27879e-05
5.62777e-05
5.08569e-05
5.41926e-05
5.41875e-05
5.62763e-05
5.70616e-05
6.12309e-05
5.54581e-05
5.54676e-05
5.92355e-05
5.92388e-05
5.70779e-05
6.12388e-05
5.54528e-05
5.54654e-05
5.92322e-05
5.92421e-05
5.54686e-05
5.92444e-05
5.92425e-05
5.70759e-05
6.12422e-05
5.54669e-05
5.92482e-05
5.92405e-05
6.12384e-05
6.18489e-05
6.38453e-05
6.02814e-05
6.02826e-05
6.2148e-05
6.21438e-05
6.18554e-05
6.38438e-05
6.02787e-05
6.0287e-05
6.2147e-05
6.21504e-05
6.02871e-05
6.215e-05
6.21505e-05
6.18589e-05
6.38493e-05
6.02852e-05
6.21552e-05
6.21488e-05
6.38473e-05
6.39141e-05
6.18242e-05
6.23156e-05
6.23103e-05
6.15506e-05
6.15408e-05
6.39117e-05
6.18167e-05
6.2315e-05
6.23172e-05
6.1552e-05
6.15476e-05
6.23175e-05
6.15481e-05
6.15496e-05
6.39172e-05
6.18217e-05
6.2316e-05
6.15528e-05
6.15493e-05
6.18222e-05
6.10897e-05
5.66541e-05
6.01872e-05
6.01768e-05
5.6169e-05
5.61603e-05
6.10827e-05
5.66491e-05
6.01888e-05
6.01831e-05
5.61693e-05
5.6165e-05
6.01857e-05
5.61681e-05
5.61681e-05
6.10869e-05
5.66525e-05
6.01857e-05
5.6172e-05
5.61678e-05
5.66527e-05
5.6079e-05
5.33258e-05
5.50187e-05
5.50104e-05
5.24383e-05
5.24314e-05
5.60746e-05
5.33229e-05
5.50184e-05
5.50147e-05
5.24367e-05
5.24347e-05
5.50178e-05
5.24376e-05
5.24376e-05
5.60772e-05
5.33253e-05
5.50174e-05
5.24408e-05
5.24364e-05
5.33255e-05
5.31094e-05
5.23816e-05
5.1901e-05
5.18947e-05
5.10861e-05
5.10808e-05
5.31069e-05
5.23801e-05
5.18991e-05
5.18977e-05
5.10836e-05
5.10835e-05
5.19005e-05
5.10853e-05
5.10857e-05
5.31088e-05
5.23819e-05
5.1899e-05
5.1088e-05
5.10836e-05
5.23821e-05
5.23917e-05
5.29488e-05
5.1028e-05
5.1023e-05
5.12954e-05
5.12912e-05
5.23902e-05
5.29474e-05
5.10254e-05
5.10256e-05
5.1293e-05
5.12938e-05
5.10277e-05
5.12945e-05
5.12953e-05
5.23919e-05
5.29494e-05
5.10255e-05
5.1297e-05
5.12932e-05
5.29494e-05
5.31263e-05
5.36014e-05
5.15503e-05
5.15458e-05
5.19299e-05
5.19249e-05
5.31248e-05
5.35995e-05
5.15482e-05
5.15487e-05
5.19282e-05
5.19284e-05
5.15501e-05
5.19293e-05
5.19292e-05
5.31268e-05
5.36021e-05
5.15482e-05
5.19325e-05
5.19278e-05
5.3601e-05
5.366e-05
5.37168e-05
5.19602e-05
5.19552e-05
5.19286e-05
5.19237e-05
5.36582e-05
5.37152e-05
5.19586e-05
5.19588e-05
5.1927e-05
5.19272e-05
5.19594e-05
5.19283e-05
5.19278e-05
5.36608e-05
5.37178e-05
5.19581e-05
5.19315e-05
5.19266e-05
5.37163e-05
5.37325e-05
5.3684e-05
5.19056e-05
5.19008e-05
5.17752e-05
5.17706e-05
5.3731e-05
5.36827e-05
5.19041e-05
5.19043e-05
5.17736e-05
5.17739e-05
5.19048e-05
5.17751e-05
5.17746e-05
5.37335e-05
5.36851e-05
5.19037e-05
5.17783e-05
5.17736e-05
5.36837e-05
5.36947e-05
5.36453e-05
5.17587e-05
5.17541e-05
5.16872e-05
5.16824e-05
5.36934e-05
5.36439e-05
5.17572e-05
5.17574e-05
5.16855e-05
5.16858e-05
5.17581e-05
5.16871e-05
5.16865e-05
5.36958e-05
5.36462e-05
5.1757e-05
5.16901e-05
5.16852e-05
5.36447e-05
5.36554e-05
5.34652e-05
5.16588e-05
5.1654e-05
5.14786e-05
5.14733e-05
5.3654e-05
5.34637e-05
5.16572e-05
5.16571e-05
5.1478e-05
5.14758e-05
5.1658e-05
5.14794e-05
5.14766e-05
5.36562e-05
5.34657e-05
5.16567e-05
5.14817e-05
5.14763e-05
5.34641e-05
5.33167e-05
5.05646e-05
5.05594e-05
5.3315e-05
5.05645e-05
5.05618e-05
4.11197e-05
4.1122e-05
4.11201e-05
5.05623e-05
5.3317e-05
5.05626e-05
1.25769e-06
2.73491e-07
7.5471e-07
7.54689e-07
1.03623e-07
3.24284e-07
2.33087e-07
3.84401e-07
1.07189e-07
3.42143e-07
3.90654e-07
3.90407e-07
3.64686e-07
3.96865e-07
1.83406e-06
3.02065e-07
4.97579e-06
2.55859e-07
6.65818e-06
1.36789e-05
2.12803e-05
3.51034e-07
4.96482e-06
3.09667e-07
6.6464e-06
4.14746e-07
4.19392e-07
4.15478e-07
4.19712e-07
4.10698e-07
4.15345e-07
4.09437e-07
1.04962e-07
5.61582e-07
2.27191e-07
2.86712e-07
1.0535e-07
5.43557e-07
2.24848e-07
1.41216e-05
2.17468e-05
1.10958e-07
2.35779e-07
6.53246e-07
3.27088e-07
1.09127e-07
2.32854e-07
6.26453e-07
1.92522e-06
2.62622e-06
3.42236e-07
1.90037e-06
2.70541e-06
5.11037e-07
9.78774e-06
4.07624e-07
1.2531e-05
3.62416e-05
4.6074e-05
5.53554e-07
9.80369e-06
4.51606e-07
1.25119e-05
4.10613e-07
4.15021e-07
4.09405e-07
4.18766e-07
4.10746e-07