/*--------------------------------*- C++ -*----------------------------------*\
| =========                 |                                                 |
| \\      /  F ield         | OpenFOAM: The Open Source CFD Toolbox           |
|  \\    /   O peration     | Version:  v2012                                 |
|   \\  /    A nd           | Website:  www.openfoam.com                      |
|    \\/     M anipulation  |                                                 |
\*---------------------------------------------------------------------------*/
FoamFile
{
    version     2.0;
    format      ascii;
    class       volScalarField;
    location    "350";
    object      nut;
}
// * * * * * * * * * * * * * * * * * * * * * * * * * * * * * * * * * * * * * //

dimensions      [0 2 -1 0 0 0 0];


internalField   nonuniform List<scalar> 
171728
(
5.69365e-06
2.12893e-06
2.21617e-06
2.2655e-06
5.64811e-06
2.09766e-06
2.18085e-06
2.19524e-06
5.73077e-06
2.08621e-06
2.15928e-06
2.17798e-06
5.81149e-06
2.07512e-06
2.13937e-06
2.16661e-06
5.89592e-06
2.06253e-06
2.11903e-06
2.14667e-06
5.98716e-06
2.04197e-06
2.1009e-06
2.12947e-06
6.0785e-06
2.00964e-06
2.07628e-06
2.12133e-06
6.17606e-06
1.95856e-06
2.04025e-06
2.10552e-06
6.27553e-06
1.89436e-06
1.99018e-06
2.07115e-06
6.38745e-06
1.8234e-06
1.92387e-06
2.01235e-06
6.50221e-06
1.74802e-06
1.84732e-06
1.9368e-06
6.62514e-06
1.66867e-06
1.76794e-06
1.8487e-06
6.75273e-06
1.58595e-06
1.67304e-06
1.75199e-06
6.88276e-06
1.49638e-06
1.58034e-06
1.64685e-06
7.01225e-06
1.39424e-06
1.47553e-06
1.53594e-06
7.14156e-06
1.28483e-06
1.37096e-06
1.42619e-06
7.2803e-06
1.18259e-06
1.27879e-06
1.32785e-06
7.40645e-06
1.13003e-06
1.22213e-06
1.26715e-06
7.5196e-06
1.15645e-06
1.20969e-06
1.27418e-06
7.60959e-06
1.2261e-06
1.26284e-06
1.3956e-06
7.68014e-06
1.35753e-06
1.51357e-06
1.73557e-06
7.72888e-06
1.7906e-06
1.76257e-06
2.40107e-06
7.73505e-06
2.14718e-06
2.20196e-06
3.75959e-06
7.69435e-06
2.97464e-06
2.98472e-06
5.68454e-06
7.59881e-06
4.04392e-06
4.10001e-06
8.50158e-06
7.44514e-06
5.24027e-06
5.42516e-06
1.30489e-05
7.22873e-06
7.1078e-06
6.97502e-06
1.75826e-05
6.99891e-06
9.2613e-06
9.23917e-06
2.37397e-05
6.71986e-06
1.17783e-05
1.1987e-05
3.11598e-05
6.56682e-06
1.46282e-05
1.43077e-05
3.93771e-05
6.43197e-06
1.84001e-05
1.87113e-05
4.63433e-05
6.30121e-06
2.20176e-05
2.16921e-05
5.07484e-05
6.42968e-06
2.79231e-05
2.64861e-05
6.0009e-05
6.73514e-06
2.9818e-05
3.11859e-05
6.51139e-05
6.87268e-06
3.52264e-05
3.62957e-05
6.85965e-05
8.12021e-06
4.38281e-05
4.09725e-05
7.58063e-05
8.38015e-06
4.44264e-05
4.77115e-05
7.84015e-05
1.01447e-05
5.57238e-05
5.17715e-05
8.471e-05
1.11258e-05
5.52776e-05
6.13831e-05
8.70187e-05
1.40752e-05
6.74209e-05
6.25652e-05
9.24847e-05
1.48782e-05
7.06521e-05
7.23753e-05
9.59266e-05
1.86966e-05
7.65634e-05
7.81228e-05
9.94615e-05
1.96784e-05
8.10448e-05
8.13633e-05
0.000103478
2.85553e-05
9.16811e-05
8.9512e-05
0.000107839
2.79911e-05
9.68211e-05
9.70204e-05
0.000110773
3.26847e-05
9.34702e-05
9.88485e-05
0.000114682
3.63659e-05
0.000110794
0.000105702
0.000118389
4.82265e-05
0.000115384
0.000115882
0.000123708
5.0154e-05
0.000112662
0.000113833
0.000124264
5.44912e-05
0.000120933
0.000123659
0.000130695
6.23341e-05
0.000132073
0.000123067
0.000132031
6.96771e-05
0.00013035
0.000134189
0.000137347
7.81708e-05
0.000135041
0.000136145
0.000138471
7.92282e-05
0.000142123
0.000140455
0.000143044
9.42525e-05
0.000140871
0.000141357
0.000145191
9.31549e-05
0.000149949
0.000149573
0.000146022
0.00010545
0.000156123
0.000156269
0.000153367
0.000114788
0.000154322
0.000155144
0.000153191
0.000115465
0.000159928
0.000158852
0.000156332
0.000122807
0.000164727
0.000165481
0.000159071
0.000132456
0.000169399
0.000168527
0.000161014
0.000135867
0.000171002
0.000172906
0.000165135
0.000143882
0.000176733
0.000173176
0.000166422
0.000148659
0.000175094
0.000178032
0.000167862
0.000152607
0.000183292
0.000181367
0.000172192
0.000161661
0.000186519
0.000186717
0.000172158
0.000167249
0.000185014
0.000186067
0.000174107
0.000170179
0.000191462
0.000190024
0.000178504
0.000176417
0.00019434
0.000196473
0.000178578
0.000186502
0.000195274
0.000196358
0.00018133
0.000186954
0.000198121
0.000194746
0.000181772
0.000190749
0.000200448
0.000201114
0.00018368
0.000196871
0.000201678
0.000204442
0.000184948
0.0002048
0.000208584
0.000208482
0.000190453
0.000208687
0.000206552
0.000205318
0.00018672
0.000204398
0.000201737
0.000200571
0.000181998
0.000205987
0.00021253
0.000212965
0.000192426
0.000235939
0.000229244
0.00022962
0.000205901
0.000250464
0.000231414
0.00023154
0.00020326
0.000222378
0.000204516
0.000204569
0.000183093
0.000195437
0.000191229
0.000191217
0.000173261
0.000183718
0.000187978
0.000187906
0.00017299
0.000212664
0.000210372
0.000210357
0.000188735
0.00025773
0.000239259
0.000239272
0.000211117
0.000290592
0.000257617
0.000257636
0.000226073
0.000302732
0.000254034
0.00025405
0.00021966
0.000255962
0.000224476
0.000224488
0.000197956
0.000219022
0.000206444
0.000206452
0.000184238
0.000208037
0.000202512
0.000202517
0.00018098
0.000214033
0.000207554
0.000207559
0.000184903
0.000228458
0.000211755
0.000211763
0.000187666
0.000233642
0.000212217
0.000212225
0.000187844
0.000234757
0.00021157
0.000211579
0.000187512
0.000234919
0.000211037
0.000211044
0.00018729
0.000236836
0.000212226
0.000212235
0.00019066
2.30685e-06
2.54392e-06
2.16223e-06
2.26092e-06
2.54987e-06
2.5499e-06
5.82461e-06
5.59112e-06
5.76933e-06
5.68599e-06
2.39251e-06
2.51551e-06
2.31136e-06
2.49751e-06
2.01488e-06
2.2734e-06
2.30522e-06
2.29465e-06
2.25994e-06
1.95918e-06
2.23001e-06
1.91488e-06
2.25695e-06
2.22941e-06
2.27243e-06
2.27176e-06
2.23936e-06
2.24214e-06
2.26104e-06
2.10128e-06
2.22667e-06
2.30913e-06
2.29222e-06
2.27116e-06
2.18721e-06
1.62928e-06
2.19494e-06
2.29406e-06
2.28412e-06
2.22509e-06
1.90648e-06
2.21207e-06
1.89288e-06
2.22807e-06
2.20074e-06
2.23522e-06
2.23529e-06
2.22314e-06
2.21581e-06
2.22107e-06
2.08827e-06
2.20965e-06
2.29085e-06
2.27096e-06
1.55506e-06
2.16377e-06
1.49486e-06
2.17861e-06
2.28272e-06
2.27067e-06
2.20712e-06
1.88317e-06
2.1963e-06
1.83184e-06
2.19887e-06
2.16195e-06
2.2173e-06
2.20872e-06
2.20346e-06
2.19096e-06
2.20464e-06
2.07816e-06
2.19039e-06
2.26884e-06
2.24861e-06
1.49215e-06
2.14404e-06
1.49973e-06
2.16718e-06
2.26808e-06
2.25196e-06
2.19145e-06
1.81749e-06
2.17126e-06
1.78586e-06
2.15913e-06
2.1207e-06
2.19827e-06
2.18573e-06
2.18974e-06
2.17595e-06
2.1853e-06
2.06665e-06
2.16988e-06
2.24574e-06
2.22642e-06
1.5059e-06
2.12291e-06
1.53193e-06
2.14744e-06
2.24889e-06
2.23144e-06
2.1645e-06
1.77244e-06
2.14683e-06
1.72632e-06
2.11811e-06
2.07898e-06
2.18852e-06
2.17382e-06
2.18674e-06
2.16337e-06
2.16475e-06
2.04782e-06
2.15215e-06
2.22277e-06
2.20274e-06
1.54184e-06
2.10605e-06
1.57086e-06
2.13099e-06
2.22809e-06
2.20708e-06
2.14139e-06
1.71323e-06
2.12292e-06
1.68303e-06
2.07606e-06
2.05217e-06
2.18429e-06
2.15776e-06
2.16909e-06
2.1353e-06
2.14653e-06
2.01873e-06
2.13011e-06
2.19852e-06
2.18058e-06
1.57979e-06
2.08338e-06
1.60118e-06
2.12431e-06
2.20275e-06
2.17266e-06
2.11662e-06
1.67764e-06
2.09457e-06
1.681e-06
2.04658e-06
2.01756e-06
2.16104e-06
2.12562e-06
2.13122e-06
2.09756e-06
2.12313e-06
1.97275e-06
2.0997e-06
2.17628e-06
2.15757e-06
1.607e-06
2.0496e-06
1.61377e-06
2.10954e-06
2.16642e-06
2.12443e-06
2.0843e-06
1.68406e-06
2.0509e-06
1.69859e-06
2.00713e-06
1.98601e-06
2.11934e-06
2.08531e-06
2.08191e-06
2.04678e-06
2.08772e-06
1.91221e-06
2.05443e-06
2.15247e-06
2.12279e-06
1.61463e-06
2.00339e-06
1.61029e-06
2.07665e-06
2.1164e-06
2.07186e-06
2.03736e-06
1.71223e-06
1.99295e-06
1.76757e-06
1.98026e-06
1.97087e-06
2.06885e-06
2.03181e-06
2.02448e-06
1.98293e-06
2.04075e-06
1.8425e-06
2.00116e-06
2.11565e-06
2.07063e-06
1.60924e-06
1.94199e-06
1.60615e-06
2.02042e-06
2.06223e-06
2.00592e-06
1.97451e-06
1.78808e-06
1.92235e-06
1.90365e-06
1.96614e-06
1.96581e-06
2.00635e-06
1.96681e-06
1.9504e-06
1.91376e-06
1.98497e-06
1.76501e-06
1.93694e-06
2.06079e-06
1.99589e-06
1.60591e-06
1.86799e-06
1.59229e-06
1.9466e-06
1.99466e-06
1.92656e-06
1.90219e-06
1.9537e-06
1.84486e-06
2.13422e-06
1.96376e-06
2.01819e-06
1.92914e-06
1.89445e-06
1.86037e-06
1.8369e-06
1.91642e-06
1.68731e-06
1.85684e-06
1.98456e-06
1.91082e-06
1.5855e-06
1.7889e-06
1.55895e-06
1.86104e-06
1.91325e-06
1.83485e-06
1.82692e-06
2.21993e-06
1.76211e-06
2.65655e-06
2.02173e-06
2.09685e-06
1.83595e-06
1.81753e-06
1.7619e-06
1.75439e-06
1.83456e-06
1.60387e-06
1.76481e-06
1.89752e-06
1.8194e-06
1.54685e-06
1.69924e-06
1.50888e-06
1.76784e-06
1.81761e-06
1.73161e-06
1.7395e-06
2.85478e-06
1.66485e-06
3.43807e-06
2.10348e-06
2.18134e-06
1.7365e-06
1.73024e-06
1.6606e-06
1.65901e-06
1.74132e-06
1.51546e-06
1.66876e-06
1.80312e-06
1.71842e-06
1.49519e-06
1.60393e-06
1.4513e-06
1.66721e-06
1.71025e-06
1.6239e-06
1.63984e-06
3.57753e-06
1.55778e-06
3.73094e-06
2.17247e-06
2.15568e-06
1.6332e-06
1.63586e-06
1.55532e-06
1.56203e-06
1.64272e-06
1.41967e-06
1.56302e-06
1.69744e-06
1.60748e-06
1.43644e-06
1.50307e-06
1.38986e-06
1.56128e-06
1.59739e-06
1.51156e-06
1.52936e-06
3.71977e-06
1.44459e-06
2.80841e-06
2.12526e-06
1.74268e-06
1.52964e-06
1.53456e-06
1.45073e-06
1.45533e-06
1.53674e-06
1.31089e-06
1.45759e-06
1.5805e-06
1.49764e-06
1.37341e-06
1.39655e-06
1.32637e-06
1.45534e-06
1.48064e-06
1.3968e-06
1.4191e-06
2.41206e-06
1.34619e-06
1.60488e-06
1.68135e-06
1.38145e-06
1.42464e-06
1.43027e-06
1.3565e-06
1.36385e-06
1.43033e-06
1.21117e-06
1.35672e-06
1.46725e-06
1.38757e-06
1.3116e-06
1.29769e-06
1.27324e-06
1.35476e-06
1.37067e-06
1.30231e-06
1.32543e-06
1.42268e-06
1.26992e-06
1.12362e-06
1.33138e-06
1.1987e-06
1.33793e-06
1.34478e-06
1.28863e-06
1.29154e-06
1.33642e-06
1.14807e-06
1.28636e-06
1.35555e-06
1.30319e-06
1.26461e-06
1.23169e-06
1.25357e-06
1.28056e-06
1.28614e-06
1.27957e-06
1.26082e-06
1.07521e-06
1.24452e-06
1.00058e-06
1.18642e-06
1.15393e-06
1.28048e-06
1.28199e-06
1.26276e-06
1.26168e-06
1.27803e-06
1.14706e-06
1.25987e-06
1.27885e-06
1.282e-06
1.25406e-06
1.20814e-06
1.26781e-06
1.26323e-06
1.28075e-06
1.36663e-06
1.2539e-06
1.0062e-06
1.28199e-06
1.03411e-06
1.18839e-06
1.20117e-06
1.27172e-06
1.26095e-06
1.30024e-06
1.31297e-06
1.26684e-06
1.17435e-06
1.30524e-06
1.27893e-06
1.38769e-06
1.28229e-06
1.26744e-06
1.33603e-06
1.35489e-06
1.38704e-06
1.68661e-06
1.3058e-06
1.08943e-06
1.4424e-06
1.21632e-06
1.24955e-06
1.5582e-06
1.32234e-06
1.30721e-06
1.46196e-06
1.48914e-06
1.33239e-06
1.32501e-06
1.44387e-06
1.42146e-06
1.64655e-06
1.37024e-06
1.45054e-06
1.50079e-06
1.65175e-06
1.77371e-06
2.22667e-06
1.48637e-06
1.2512e-06
1.70814e-06
1.56396e-06
1.61013e-06
2.21118e-06
1.50787e-06
1.54805e-06
1.71512e-06
1.63898e-06
1.50796e-06
1.66652e-06
1.68909e-06
1.83643e-06
2.0239e-06
1.57186e-06
1.59027e-06
1.77282e-06
2.27967e-06
2.42252e-06
3.35576e-06
1.82037e-06
1.6888e-06
2.11569e-06
1.88837e-06
2.47006e-06
3.03889e-06
1.827e-06
1.81132e-06
2.13051e-06
2.167e-06
1.78861e-06
1.95791e-06
2.15926e-06
2.11525e-06
3.80866e-06
1.87784e-06
2.13366e-06
2.27476e-06
3.49562e-06
3.55764e-06
5.24898e-06
2.24847e-06
2.08303e-06
2.86075e-06
2.78803e-06
3.14256e-06
5.67931e-06
2.26879e-06
2.23772e-06
2.85628e-06
2.8732e-06
2.27449e-06
2.82996e-06
2.84398e-06
3.88989e-06
5.05746e-06
2.39517e-06
2.83251e-06
2.9777e-06
5.16571e-06
5.74743e-06
7.74517e-06
3.05485e-06
2.93386e-06
3.75578e-06
3.62274e-06
6.07332e-06
7.5491e-06
3.04577e-06
3.03971e-06
3.76996e-06
3.81257e-06
3.06154e-06
3.66276e-06
3.74736e-06
5.80364e-06
7.48879e-06
3.21202e-06
3.75753e-06
3.90901e-06
7.95398e-06
8.34751e-06
1.18355e-05
4.07683e-06
3.99813e-06
5.03791e-06
4.94615e-06
8.29431e-06
1.22299e-05
4.08357e-06
4.13402e-06
5.02118e-06
5.02897e-06
4.01124e-06
4.93858e-06
5.1268e-06
8.20875e-06
1.1924e-05
4.16689e-06
4.98515e-06
5.34451e-06
1.18999e-05
1.25618e-05
1.68716e-05
5.40907e-06
5.26802e-06
6.69302e-06
6.66494e-06
1.29418e-05
1.65e-05
5.40213e-06
5.48657e-06
6.6975e-06
6.58554e-06
5.49931e-06
6.67825e-06
6.61885e-06
1.23265e-05
1.72036e-05
5.74896e-06
6.52252e-06
6.79529e-06
1.65347e-05
1.79572e-05
2.25872e-05
7.13922e-06
7.08305e-06
8.61679e-06
8.79318e-06
1.83658e-05
2.21942e-05
7.12891e-06
7.04698e-06
8.6099e-06
8.85356e-06
7.11573e-06
8.72792e-06
8.70539e-06
1.81738e-05
2.27103e-05
7.30836e-06
8.81448e-06
8.96452e-06
2.26535e-05
2.38556e-05
3.02041e-05
9.24874e-06
9.37358e-06
1.11986e-05
1.11051e-05
2.33827e-05
3.0368e-05
9.28226e-06
9.26632e-06
1.11208e-05
1.11463e-05
9.09658e-06
1.11164e-05
1.14456e-05
2.43569e-05
2.94834e-05
9.34161e-06
1.1069e-05
1.17307e-05
3.02768e-05
3.14542e-05
3.6829e-05
1.17307e-05
1.17277e-05
1.40174e-05
1.36895e-05
3.05616e-05
3.78918e-05
1.16404e-05
1.20261e-05
1.41042e-05
1.3722e-05
1.22576e-05
1.35065e-05
1.32351e-05
3.06791e-05
3.74533e-05
1.25183e-05
1.36913e-05
1.36767e-05
3.78381e-05
3.82814e-05
4.43898e-05
1.48954e-05
1.48531e-05
1.72843e-05
1.81076e-05
3.9837e-05
4.37949e-05
1.49105e-05
1.43588e-05
1.7157e-05
1.78561e-05
1.44214e-05
1.82512e-05
1.80397e-05
3.8622e-05
4.38866e-05
1.4882e-05
1.77761e-05
1.80043e-05
4.40832e-05
4.58158e-05
5.09207e-05
1.82287e-05
1.81423e-05
2.11038e-05
2.0121e-05
4.57649e-05
4.98844e-05
1.82623e-05
1.86644e-05
2.12127e-05
2.08216e-05
1.82095e-05
1.96782e-05
2.12687e-05
4.55907e-05
5.16134e-05
1.85084e-05
2.06476e-05
2.13167e-05
5.02672e-05
5.22239e-05
5.74162e-05
2.20049e-05
2.2464e-05
2.5229e-05
2.79074e-05
5.09558e-05
6.06187e-05
2.18552e-05
2.20377e-05
2.49901e-05
2.50169e-05
2.2206e-05
2.77922e-05
2.45639e-05
5.24582e-05
5.69633e-05
2.21609e-05
2.53052e-05
2.47566e-05
5.8326e-05
5.87792e-05
6.37151e-05
2.64824e-05
2.7931e-05
3.02286e-05
2.74384e-05
6.14759e-05
6.04096e-05
2.65301e-05
2.61762e-05
3.03529e-05
3.07674e-05
2.67582e-05
2.72239e-05
3.08372e-05
5.9057e-05
6.35412e-05
2.68522e-05
3.02736e-05
3.12242e-05
6.37726e-05
6.49918e-05
6.83088e-05
3.13063e-05
3.01696e-05
3.41394e-05
3.44496e-05
6.09251e-05
7.0324e-05
3.1219e-05
3.16186e-05
3.40825e-05
3.39277e-05
3.09451e-05
3.43978e-05
3.40733e-05
6.43051e-05
6.9009e-05
3.13467e-05
3.4317e-05
3.31782e-05
6.76746e-05
6.93295e-05
7.42488e-05
3.55078e-05
3.55668e-05
4.11816e-05
4.24441e-05
7.1724e-05
7.39901e-05
3.55217e-05
3.60061e-05
4.10081e-05
4.11376e-05
3.56979e-05
4.19046e-05
4.1284e-05
7.01943e-05
7.38893e-05
3.56834e-05
4.07368e-05
4.14342e-05
7.49589e-05
7.54557e-05
7.81248e-05
4.23227e-05
4.38475e-05
4.45906e-05
4.34443e-05
7.49685e-05
7.83264e-05
4.21925e-05
4.10435e-05
4.47304e-05
4.47948e-05
4.25451e-05
4.4007e-05
4.40916e-05
7.47547e-05
7.80571e-05
4.19721e-05
4.506e-05
4.41743e-05
7.74142e-05
7.8993e-05
8.2974e-05
4.66572e-05
4.4656e-05
5.24417e-05
5.4445e-05
7.90916e-05
8.36373e-05
4.66836e-05
4.78449e-05
5.21034e-05
5.19908e-05
4.58232e-05
5.36738e-05
5.32849e-05
7.93381e-05
8.32302e-05
4.54055e-05
5.14276e-05
5.31346e-05
8.38675e-05
8.38433e-05
8.67546e-05
5.26695e-05
5.60768e-05
5.62551e-05
5.51466e-05
8.47625e-05
8.61362e-05
5.24647e-05
5.19849e-05
5.63222e-05
5.82511e-05
5.42069e-05
5.53685e-05
5.67307e-05
8.40665e-05
8.72846e-05
5.51166e-05
5.84542e-05
5.52873e-05
8.62848e-05
8.79779e-05
9.16326e-05
5.95572e-05
5.54284e-05
6.52054e-05
6.61718e-05
8.67037e-05
9.21411e-05
5.95049e-05
6.12177e-05
6.55271e-05
6.28184e-05
5.86165e-05
6.57277e-05
6.29223e-05
8.84271e-05
9.06527e-05
5.66083e-05
6.30573e-05
6.48118e-05
9.14597e-05
9.21602e-05
9.44927e-05
6.48167e-05
6.72596e-05
6.87367e-05
6.76694e-05
9.30692e-05
9.45623e-05
6.52056e-05
6.27759e-05
6.77906e-05
6.96764e-05
6.44033e-05
6.75983e-05
7.09792e-05
9.11302e-05
9.53719e-05
6.56962e-05
6.91475e-05
6.91058e-05
9.51148e-05
9.58216e-05
9.86893e-05
7.18762e-05
7.10661e-05
7.61636e-05
7.74063e-05
9.54441e-05
9.92264e-05
7.17107e-05
7.21312e-05
7.65154e-05
7.70824e-05
7.23784e-05
7.64e-05
7.49426e-05
9.67992e-05
9.94286e-05
7.14395e-05
7.77613e-05
7.52325e-05
9.87075e-05
9.9042e-05
0.000102548
7.60795e-05
7.6954e-05
7.98971e-05
7.99955e-05
9.96236e-05
0.00010155
7.60254e-05
7.76292e-05
7.97665e-05
7.98228e-05
7.66369e-05
7.97316e-05
8.10144e-05
9.98133e-05
0.000101678
7.66371e-05
7.9798e-05
8.22051e-05
0.000102701
0.00010407
0.000108635
8.30977e-05
8.24022e-05
9.1886e-05
8.98021e-05
0.000102646
0.000108267
8.31819e-05
8.19995e-05
9.21267e-05
8.87171e-05
8.20891e-05
8.82578e-05
8.94882e-05
0.0001026
0.000107182
8.28495e-05
8.76661e-05
8.63851e-05
0.000106799
0.000109038
0.000109166
9.28846e-05
9.2613e-05
9.19386e-05
9.63072e-05
0.000109573
0.000111132
9.31739e-05
8.98183e-05
9.18159e-05
9.40479e-05
9.18596e-05
9.72238e-05
9.25309e-05
0.00010811
0.000110967
8.94341e-05
9.51179e-05
9.60678e-05
0.000110462
0.000109399
0.00011331
9.26283e-05
9.5597e-05
9.80928e-05
9.14375e-05
0.000110798
0.000108452
9.14382e-05
9.63162e-05
9.84942e-05
9.97095e-05
9.23019e-05
9.30672e-05
0.000100067
0.000111738
0.000113681
9.59242e-05
9.90799e-05
9.64481e-05
0.000113317
0.000114347
0.000118087
9.94018e-05
9.29569e-05
0.000104242
0.000108992
0.000110424
0.000122937
0.00010028
9.94356e-05
0.000103907
0.000102248
0.000102517
0.000107752
0.000103731
0.000113889
0.00011658
0.000100277
0.00010251
0.000104738
0.000118061
0.000119073
0.000123408
0.000106876
0.000111975
0.00011438
0.00011548
0.000123802
0.000123438
0.000105987
0.000105235
0.000113743
0.000114536
0.000104605
0.000115051
0.000112529
0.000118119
0.000124346
0.000105304
0.000114732
0.0001123
0.000122644
0.00012386
0.00012394
0.000115432
0.000115608
0.000114225
0.000113773
0.000123187
0.000122511
0.00011507
0.00011606
0.000114359
0.000115391
0.000114761
0.000113818
0.000115281
0.000124728
0.000123867
0.00011452
0.000114539
0.000114953
0.000124341
0.00012398
0.000129173
0.000113431
0.000112583
0.000121043
0.000115387
0.000122295
0.000126748
0.000114229
0.000114541
0.000120665
0.00012031
0.000114537
0.000115248
0.000120098
0.000123726
0.0001296
0.000114281
0.000121689
0.000120939
0.000129175
0.000130257
0.000132045
0.000123605
0.00012118
0.000125674
0.000130919
0.000129303
0.000136075
0.000122096
0.000123531
0.000124698
0.000125952
0.000123399
0.000131142
0.000126217
0.000130766
0.000131084
0.000123822
0.000123336
0.000125308
0.000132059
0.000132547
0.000136078
0.000126572
0.000131825
0.000130994
0.000131124
0.000136325
0.000135257
0.000126288
0.000125427
0.000132245
0.000129963
0.000125914
0.000131115
0.000130701
0.000130977
0.000136371
0.000124995
0.000131807
0.00013111
0.00013621
0.000136558
0.000137821
0.000132115
0.000130504
0.000133532
0.000132333
0.000134988
0.000137462
0.000133374
0.000132754
0.000133853
0.000135736
0.000133096
0.000132239
0.000135279
0.000137784
0.000139297
0.000133466
0.000135327
0.000135193
0.000138471
0.000138217
0.0001421
0.000134221
0.00013459
0.000139648
0.000141281
0.000138726
0.000143076
0.000134074
0.000136586
0.000138549
0.000139757
0.00013495
0.00014144
0.000138703
0.000139493
0.00014221
0.000134774
0.000140029
0.000137939
0.00014183
0.000143033
0.00014496
0.00014184
0.000142346
0.000144694
0.000141948
0.000143251
0.000142569
0.000140925
0.00014026
0.000145044
0.000141136
0.000141222
0.000141144
0.000145157
0.000142347
0.000141955
0.000140665
0.000140589
0.000145583
0.00014523
0.000144906
0.000145806
0.000144403
0.000141703
0.00014399
0.000146908
0.000142598
0.000148491
0.000144992
0.000141927
0.000144527
0.000147038
0.00014505
0.000147069
0.000143642
0.000142387
0.000148387
0.00014571
0.000146984
0.000144378
0.000145187
0.000147072
0.000152876
0.000146638
0.000149644
0.000154922
0.0001555
0.000149934
0.000152911
0.000146594
0.000149493
0.000154429
0.000155313
0.000144871
0.000155686
0.000154458
0.000149736
0.000152966
0.000144859
0.000155584
0.000153968
0.000152756
0.000153245
0.000153157
0.000156349
0.00015602
0.00015673
0.000154953
0.000152875
0.000151359
0.00015587
0.000155956
0.00015629
0.000155141
0.00015622
0.000154885
0.000156783
0.000153012
0.000151758
0.00015595
0.000155525
0.000156923
0.000153398
0.000153094
0.000155218
0.000156344
0.000154517
0.000158011
0.000158911
0.00015139
0.000156191
0.000156117
0.000154774
0.000158589
0.000158465
0.00015648
0.0001593
0.000158861
0.000151714
0.000155659
0.000156555
0.000158013
0.000158787
0.000155795
0.000155736
0.000158416
0.000159519
0.000159701
0.000162802
0.000162788
0.000156512
0.000158165
0.000159833
0.000159718
0.000162931
0.000163447
0.000159375
0.00016249
0.000162947
0.000156064
0.000158633
0.000160094
0.00016359
0.000163469
0.000158395
0.000158973
0.000161972
0.000163924
0.000164798
0.000168477
0.000168957
0.00015923
0.00016241
0.000163835
0.000164626
0.000168216
0.000168056
0.000164953
0.000169294
0.000167854
0.000159503
0.000162173
0.000164499
0.000168026
0.000166204
0.000160937
0.000162409
0.000162876
0.000169366
0.000169064
0.000169501
0.000169464
0.000162378
0.000162988
0.000169454
0.000169298
0.000170048
0.000171719
0.000167732
0.00016913
0.000169864
0.000162436
0.000164365
0.000167042
0.000172001
0.000172042
0.000164224
0.000162926
0.000166964
0.000170046
0.00017134
0.000175515
0.000176045
0.00016399
0.000167262
0.000170177
0.00017196
0.000174841
0.00017354
0.000172012
0.000176366
0.00017626
0.000164634
0.00016524
0.000173589
0.00017314
0.000174844
0.000166604
0.000167599
0.000167874
0.000176874
0.00017642
0.000177423
0.000175349
0.0001672
0.000165585
0.00017637
0.000174615
0.000177507
0.000176954
0.000176415
0.000175655
0.000175591
0.000165366
0.000167878
0.000174495
0.000176887
0.000175291
0.000166946
0.000167601
0.000170176
0.000177
0.000174816
0.000179364
0.000180754
0.000165529
0.000171979
0.000177251
0.000177185
0.000179284
0.000179348
0.000175793
0.00018065
0.000181792
0.000168225
0.000170136
0.000177957
0.000180179
0.000182186
0.000172002
0.000171185
0.000173513
0.000181761
0.000183239
0.000185046
0.000186376
0.00017305
0.000174256
0.000181147
0.000181063
0.00018496
0.00018626
0.000183272
0.000186494
0.000184654
0.000170822
0.000174536
0.000182491
0.000185912
0.00018361
0.000172277
0.000173566
0.000174716
0.000185119
0.000186402
0.000186532
0.000185525
0.000174112
0.000173121
0.00018562
0.00018705
0.000187348
0.000187031
0.00018448
0.000185435
0.000183933
0.000174707
0.000173814
0.000183949
0.000186604
0.000185202
0.00017337
0.000175103
0.000176002
0.000187612
0.000185384
0.000189021
0.000189506
0.000173212
0.000177283
0.000187708
0.000186506
0.000187909
0.000186172
0.000185131
0.000189683
0.000191283
0.000173431
0.000175504
0.000186393
0.000187108
0.00019106
0.000178291
0.000176032
0.000179452
0.000189253
0.000190479
0.000192662
0.000193096
0.000177861
0.000179494
0.000188457
0.000188715
0.000193167
0.00019536
0.000192359
0.000193778
0.000192793
0.000176829
0.000181519
0.000191886
0.000195733
0.000192683
0.000178515
0.000180238
0.000181944
0.000194335
0.000194132
0.000197136
0.000195885
0.000179722
0.000180504
0.000194958
0.000196503
0.000197504
0.000197515
0.000192903
0.000195284
0.000196106
0.00018174
0.000181297
0.000193603
0.000196914
0.000196276
0.000181245
0.000181805
0.000180987
0.000197282
0.000195923
0.000196905
0.000196561
0.000180382
0.000181725
0.000197637
0.000197244
0.000197002
0.000195582
0.000196636
0.00019676
0.000197003
0.000180988
0.000179472
0.000196516
0.000194935
0.000196435
0.000181557
0.000181006
0.000184127
0.000196717
0.000197913
0.000200262
0.000200536
0.000182379
0.000183928
0.000196711
0.000195186
0.000199575
0.000198936
0.000197593
0.000200383
0.00020009
0.000179596
0.000183937
0.000196785
0.000200016
0.000200326
0.000183781
0.000184374
0.000184815
0.000201105
0.000200667
0.000201706
0.000200494
0.00018377
0.000183701
0.000200703
0.000200334
0.00020218
0.000203268
0.000200199
0.000200168
0.000200237
0.000184381
0.000185983
0.000200602
0.000203152
0.000200996
0.000183982
0.000185307
0.000189855
0.00020262
0.000201768
0.000207291
0.000207468
0.000184633
0.000190255
0.000203534
0.000204661
0.000207504
0.000207912
0.000202056
0.000207621
0.000207745
0.000186627
0.000190365
0.00020272
0.000207704
0.000207648
0.000190305
0.000190018
0.000187825
0.000208182
0.00020841
0.000208574
0.000208453
0.000190402
0.000187692
0.000208347
0.000208696
0.000208379
0.000207481
0.000208725
0.000208596
0.000208759
0.000190426
0.000186814
0.000208566
0.000207352
0.000208317
0.000187755
0.000186865
0.000182879
0.000206708
0.000206447
0.000203087
0.000202731
0.000186671
0.000182596
0.000206453
0.000205427
0.000202805
0.000201727
0.000206681
0.000202787
0.000202817
0.000185771
0.000181746
0.000206249
0.000201644
0.000202449
0.000182566
0.000182296
0.000189949
0.000202069
0.000201683
0.000206666
0.000206933
0.000182067
0.000190215
0.000201769
0.000200656
0.000206725
0.000207214
0.000201762
0.000206949
0.000206673
0.000181375
0.000190454
0.000201376
0.000207339
0.000206899
0.000190052
0.000192298
0.000204629
0.000212212
0.000212501
0.000225918
0.000226217
0.00019259
0.000204973
0.000212269
0.000212834
0.000225989
0.000226529
0.000212295
0.000226273
0.000226114
0.000192841
0.000205205
0.000212495
0.000226657
0.000226274
0.000204847
0.000205684
0.000206584
0.000228874
0.000229185
0.000235087
0.000235322
0.000206013
0.000206665
0.000228945
0.000229491
0.000235166
0.000235569
0.000229093
0.000235393
0.0002353
0.000206236
0.000206789
0.000229253
0.000235679
0.000235422
0.000206699
0.000203175
0.000185593
0.000231337
0.000231337
0.000210177
0.000210061
0.000203196
0.000185471
0.000231418
0.000231475
0.000210231
0.000210127
0.000231463
0.000210102
0.000210164
0.000203293
0.000185525
0.000231501
0.00021017
0.000210199
0.00018556
0.000183133
0.00017422
0.000204607
0.000204481
0.000193322
0.000193228
0.000183007
0.000174137
0.00020465
0.000204527
0.000193332
0.00019321
0.000204566
0.000193243
0.000193257
0.000183049
0.000174122
0.000204602
0.000193246
0.000193288
0.000174168
0.000173308
0.000171945
0.000191286
0.000191214
0.00018691
0.000186888
0.000173234
0.000171988
0.000191288
0.000191179
0.000186897
0.000186821
0.000191229
0.000186905
0.000186882
0.000173213
0.000171931
0.000191257
0.000186863
0.000186904
0.000171962
0.000172956
0.000185834
0.000187878
0.000187953
0.000203677
0.000203749
0.000173024
0.000185911
0.000187846
0.000187855
0.000203665
0.000203703
0.000187916
0.000203786
0.000203732
0.000172966
0.000185888
0.000187923
0.000203758
0.000203744
0.00018588
0.000188696
0.000208232
0.000210272
0.000210336
0.000232195
0.000232228
0.000188771
0.000208274
0.000210265
0.000210305
0.000232201
0.000232229
0.000210324
0.000232271
0.000232229
0.000188751
0.00020828
0.000210338
0.000232279
0.000232245
0.000208254
0.000211105
0.00022523
0.000239198
0.000239217
0.000254214
0.000254201
0.000211142
0.00022523
0.000239207
0.000239227
0.000254234
0.000254226
0.000239223
0.000254249
0.000254218
0.000211147
0.000225249
0.000239239
0.000254267
0.000254237
0.000225225
0.000226079
0.000223849
0.000257588
0.000257571
0.000261485
0.000261433
0.000226075
0.000223811
0.00025761
0.000257599
0.000261524
0.000261464
0.00025759
0.000261487
0.000261465
0.000226095
0.000223831
0.000257609
0.000261504
0.000261493
0.00022382
0.000219679
0.000201372
0.000254034
0.000253977
0.000231179
0.000231135
0.000219644
0.000201347
0.000254074
0.000254004
0.00023121
0.000231152
0.00025401
0.000231189
0.000231161
0.000219659
0.000201359
0.00025404
0.000231202
0.000231188
0.000201348
0.000197972
0.000185679
0.000224461
0.00022442
0.000209485
0.000209453
0.000197951
0.000185664
0.000224488
0.000224435
0.000209503
0.000209461
0.000224444
0.000209497
0.000209472
0.000197959
0.000185671
0.00022447
0.000209507
0.000209491
0.000185663
0.00018425
0.000181127
0.00020643
0.0002064
0.000202497
0.000202474
0.000184237
0.00018112
0.000206445
0.000206407
0.000202508
0.000202479
0.000206418
0.00020251
0.000202488
0.000184242
0.000181122
0.000206435
0.000202516
0.000202501
0.000181115
0.000180991
0.000184152
0.000202499
0.000202477
0.000205397
0.000205381
0.000180984
0.000184146
0.000202508
0.000202481
0.000205408
0.000205384
0.000202489
0.000205412
0.000205391
0.000180986
0.000184149
0.000202502
0.000205414
0.000205403
0.000184143
0.000184912
0.000187616
0.000207539
0.000207522
0.000211317
0.000211295
0.000184906
0.000187606
0.000207552
0.000207526
0.000211333
0.000211303
0.000207533
0.000211334
0.000211308
0.000184909
0.000187612
0.000207546
0.000211342
0.000211325
0.000187601
0.000187679
0.000188019
0.000211737
0.000211715
0.000212274
0.000212252
0.00018767
0.000188011
0.000211754
0.000211723
0.000212292
0.000212261
0.000211727
0.000212293
0.000212263
0.000187677
0.000188017
0.000211745
0.000212302
0.000212283
0.000188004
0.000187858
0.000187693
0.000212197
0.000212176
0.000211643
0.000211623
0.00018785
0.000187686
0.000212215
0.000212184
0.000211661
0.00021163
0.000212187
0.000211664
0.000211634
0.000187857
0.000187691
0.000212206
0.000211672
0.000211654
0.00018768
0.000187525
0.000187462
0.00021155
0.00021153
0.000211275
0.000211254
0.000187518
0.000187455
0.000211568
0.000211537
0.000211292
0.000211263
0.000211542
0.000211296
0.000211268
0.000187524
0.00018746
0.000211562
0.000211304
0.000211287
0.000187448
0.000187303
0.000188758
0.000211015
0.000210994
0.000213393
0.000213377
0.000187295
0.000188752
0.000211033
0.000211001
0.00021341
0.000213386
0.000211006
0.00021341
0.000213387
0.000187301
0.000188759
0.000211025
0.000213419
0.000213405
0.00018875
0.000190667
0.000212213
0.000212197
0.00019066
0.000212227
0.000212206
0.00023683
0.000236842
0.000236838
0.000212207
0.000190667
0.000212222
2.25525e-05
2.67109e-06
1.34196e-05
1.34655e-05
5.96283e-07
2.27211e-06
1.56391e-06
6.47546e-06
6.59309e-07
2.40072e-06
6.34542e-06
1.51122e-06
2.29604e-06
1.86208e-06
2.90548e-06
1.08244e-06
1.35181e-05
9.75051e-07
1.52942e-05
1.08138e-05
1.30703e-05
1.3087e-06
1.35021e-05
1.23735e-06
1.52789e-05
5.44969e-06
5.63441e-06
5.55897e-06
5.62984e-06
5.38471e-06
5.56746e-06
5.43933e-06
6.17256e-07
3.70618e-07
2.8756e-06
2.11262e-06
6.1584e-07
4.79432e-07
2.84383e-06
1.09803e-05
1.3216e-05
7.01429e-07
2.68391e-06
4.63027e-07
2.20098e-06
6.75852e-07
2.65509e-06
5.79674e-07
1.52263e-06
2.12053e-06
2.23018e-06
1.72962e-06
2.41432e-06
1.33693e-06
1.85207e-05
1.26172e-06
2.097e-05
1.70458e-05
1.92198e-05
1.47427e-06
1.85345e-05
1.45017e-06
2.09501e-05
5.40536e-06
5.5849e-06
5.46148e-06
5.71052e-06
5.47675e-06
5.6468e-06