/*--------------------------------*- C++ -*----------------------------------*\
| =========                 |                                                 |
| \\      /  F ield         | OpenFOAM: The Open Source CFD Toolbox           |
|  \\    /   O peration     | Version:  v2012                                 |
|   \\  /    A nd           | Website:  www.openfoam.com                      |
|    \\/     M anipulation  |                                                 |
\*---------------------------------------------------------------------------*/
FoamFile
{
    version     2.0;
    format      ascii;
    class       volScalarField;
    location    "350";
    object      p;
}
// * * * * * * * * * * * * * * * * * * * * * * * * * * * * * * * * * * * * * //

dimensions      [0 2 -2 0 0 0 0];


internalField   nonuniform List<scalar> 
171728
(
0.00351774
0.00351663
0.0035168
0.00351756
0.00348209
0.00348048
0.00348058
0.00348343
0.00344379
0.00344168
0.0034417
0.00344397
0.0033996
0.00339774
0.00339787
0.00340012
0.00335139
0.00334994
0.00334992
0.00335225
0.00330257
0.00330119
0.00330121
0.00330356
0.0032545
0.00325326
0.00325327
0.00325561
0.00320727
0.00320617
0.00320614
0.00320852
0.00316086
0.00315988
0.00315986
0.00316225
0.00311551
0.00311465
0.00311467
0.00311704
0.00307113
0.00307035
0.00307039
0.00307276
0.00302743
0.0030268
0.00302676
0.00302915
0.00298433
0.00298383
0.00298374
0.00298614
0.00294161
0.00294121
0.00294116
0.00294349
0.00289923
0.00289878
0.00289897
0.00290117
0.00285719
0.00285685
0.00285699
0.00285921
0.00281546
0.0028151
0.0028153
0.00281753
0.00277411
0.00277386
0.00277396
0.00277614
0.00273313
0.00273297
0.00273295
0.00273507
0.00269247
0.00269238
0.00269226
0.00269439
0.00265217
0.00265207
0.00265214
0.00265397
0.00261217
0.00261219
0.00261227
0.00261389
0.00257243
0.00257251
0.00257238
0.00257413
0.00253297
0.00253304
0.00253307
0.00253478
0.00249376
0.00249392
0.00249402
0.0024956
0.00245479
0.00245492
0.00245508
0.00245676
0.00241605
0.00241627
0.00241634
0.0024181
0.00237751
0.00237785
0.00237783
0.00237974
0.00233918
0.00233958
0.00233953
0.00234145
0.00230105
0.00230145
0.00230142
0.00230331
0.00226307
0.00226347
0.0022635
0.00226554
0.00222525
0.00222576
0.00222573
0.00222757
0.00218758
0.00218796
0.00218805
0.00218992
0.00215003
0.00215061
0.00215053
0.00215248
0.00211267
0.00211312
0.00211314
0.00211499
0.00207537
0.0020758
0.00207582
0.00207768
0.00203831
0.0020387
0.00203869
0.00204059
0.0020012
0.00200158
0.00200163
0.00200354
0.00196454
0.0019648
0.0019647
0.00196668
0.00192762
0.00192794
0.00192801
0.00192995
0.00189126
0.00189133
0.00189132
0.00189332
0.00185462
0.00185482
0.00185482
0.00185681
0.00181856
0.00181857
0.00181853
0.00182057
0.0017822
0.00178214
0.00178227
0.00178425
0.00174606
0.00174615
0.00174599
0.0017482
0.00171039
0.0017105
0.00171039
0.00171231
0.00167464
0.00167404
0.00167439
0.00167647
0.00163894
0.00163896
0.00163863
0.00164072
0.00160306
0.00160306
0.00160321
0.00160526
0.00156812
0.00156767
0.00156763
0.00156966
0.00153259
0.0015322
0.00153249
0.00153448
0.00149741
0.00149724
0.00149695
0.00149906
0.00146199
0.00146189
0.00146191
0.00146394
0.00142727
0.00142671
0.00142674
0.00142875
0.00139202
0.00139206
0.00139204
0.00139385
0.00135738
0.00135696
0.00135696
0.00135915
0.0013227
0.00132215
0.00132219
0.00132407
0.00128761
0.00128778
0.00128771
0.00128962
0.00125303
0.00125268
0.00125277
0.00125468
0.00121842
0.00121809
0.00121801
0.00121999
0.00118374
0.00118352
0.00118358
0.00118549
0.00114921
0.00114902
0.00114887
0.00115083
0.00111461
0.00111427
0.00111451
0.00111629
0.00108003
0.00108016
0.00107993
0.00108195
0.00104584
0.00104537
0.00104547
0.00104726
0.00101128
0.00101099
0.00101102
0.00101302
0.000976781
0.000976962
0.000976834
0.000978795
0.000942507
0.000942153
0.000942271
0.000944058
0.000908123
0.000907825
0.000907732
0.000909776
0.000873415
0.000873485
0.00087341
0.000875353
0.000839082
0.000838938
0.000839159
0.000840975
0.000804704
0.000804493
0.000804461
0.000806378
0.000770463
0.00077043
0.000770298
0.000772293
0.000735615
0.000735425
0.000735426
0.000737361
0.000701003
0.000701018
0.000701089
0.000703
0.000667465
0.000667586
0.000667643
0.000669579
0.000633853
0.000633249
0.000633181
0.000635001
0.000598089
0.000597801
0.000597773
0.000599664
0.000561376
0.000561573
0.000561577
0.000563775
0.000525423
0.00052608
0.000526078
0.000528379
0.000490591
0.000490808
0.000490806
0.000492899
0.000457929
0.000457649
0.000457646
0.000459338
0.000427323
0.000426634
0.000426636
0.000428109
0.000394579
0.000394
0.000393999
0.000395681
0.000357119
0.000356745
0.000356745
0.000358779
0.000315879
0.000316392
0.000316392
0.000318929
0.000275478
0.000276277
0.000276279
0.00027886
0.000237483
0.000237807
0.000237807
0.000240105
0.000201579
0.000201483
0.000201484
0.000203447
0.000168913
0.000168677
0.000168679
0.000170371
0.000137979
0.00013796
0.00013796
0.000139685
0.000105155
0.000105164
0.000105163
0.000107051
7.01366e-05
7.01255e-05
7.01236e-05
7.20929e-05
3.48428e-05
3.42787e-05
3.42747e-05
3.61359e-05
6.21642e-06
7.13907e-06
7.13582e-06
5.44205e-06
0.0035222
0.00351975
0.00351973
0.00352216
0.00351977
0.0035198
0.00352616
0.00352614
0.00352622
0.00352628
0.0035197
0.00351984
0.00352226
0.00351985
0.00351991
0.00352234
0.0035174
0.00348829
0.00351664
0.00351665
0.00349023
0.00349024
0.00351735
0.00348836
0.00351665
0.00351671
0.00349024
0.00349017
0.00351675
0.00349029
0.00349022
0.00351748
0.00348831
0.0035169
0.00349025
0.00349042
0.00348829
0.00348347
0.00344965
0.00348055
0.00348056
0.00345201
0.00345207
0.00348349
0.00344959
0.00348056
0.00348062
0.00345201
0.00345193
0.00348057
0.00345206
0.00345189
0.0034835
0.00344961
0.00348041
0.0034519
0.0034516
0.00344948
0.00344412
0.00340636
0.00344176
0.00344171
0.00340939
0.00340942
0.00344406
0.00340632
0.00344176
0.00344176
0.0034094
0.00340939
0.00344163
0.0034094
0.00340944
0.00344408
0.00340631
0.00344145
0.00340939
0.0034093
0.00340631
0.00340017
0.00335873
0.00339792
0.00339774
0.00336212
0.00336213
0.00340012
0.00335876
0.00339793
0.0033979
0.0033621
0.00336211
0.00339787
0.00336205
0.00336212
0.00340013
0.0033587
0.00339776
0.00336209
0.00336211
0.00335872
0.00335225
0.00331002
0.00334989
0.0033499
0.00331328
0.00331335
0.00335227
0.00330995
0.0033499
0.00334991
0.00331329
0.00331331
0.00334994
0.00331333
0.00331331
0.00335223
0.00331
0.00334991
0.00331328
0.00331331
0.00330999
0.00330358
0.00326192
0.0033012
0.00330122
0.00326512
0.00326516
0.00330352
0.00326188
0.00330122
0.0033012
0.00326513
0.00326516
0.00330121
0.00326515
0.00326514
0.00330357
0.00326191
0.00330121
0.00326517
0.00326515
0.00326191
0.00325562
0.00321474
0.00325324
0.00325326
0.00321788
0.00321788
0.00325558
0.00321471
0.00325324
0.00325328
0.00321787
0.00321791
0.00325327
0.00321788
0.0032179
0.00325561
0.00321473
0.00325327
0.0032179
0.00321789
0.00321471
0.00320854
0.00316831
0.00320615
0.00320619
0.00317135
0.00317136
0.00320853
0.00316832
0.00320615
0.00320613
0.00317134
0.00317134
0.00320617
0.00317134
0.00317138
0.00320852
0.00316832
0.00320617
0.00317134
0.00317138
0.00316832
0.00316226
0.00312294
0.00315986
0.00315989
0.00312587
0.00312585
0.00316227
0.00312293
0.00315987
0.00315985
0.00312584
0.00312582
0.00315986
0.00312585
0.00312586
0.00316225
0.00312292
0.00315987
0.00312584
0.00312586
0.00312294
0.00311704
0.00307852
0.00311464
0.00311467
0.00308139
0.00308138
0.00311705
0.00307851
0.00311465
0.00311466
0.00308138
0.00308133
0.00311465
0.00308138
0.00308137
0.00311702
0.00307851
0.00311465
0.00308133
0.00308136
0.00307854
0.00307274
0.00303483
0.00307037
0.00307038
0.00303761
0.00303762
0.00307275
0.00303485
0.00307037
0.00307037
0.00303762
0.00303762
0.00307037
0.0030376
0.00303764
0.00307275
0.00303481
0.00307039
0.0030376
0.00303762
0.00303484
0.00302915
0.00299174
0.00302676
0.0030268
0.00299445
0.0029945
0.00302916
0.00299177
0.00302676
0.00302676
0.00299445
0.00299452
0.00302676
0.00299449
0.00299448
0.00302911
0.00299172
0.00302678
0.0029945
0.00299449
0.00299175
0.00298616
0.00294907
0.00298381
0.00298383
0.00295176
0.00295183
0.00298616
0.00294907
0.00298382
0.00298374
0.00295175
0.00295179
0.00298382
0.00295185
0.00295183
0.00298611
0.00294906
0.00298379
0.00295178
0.00295183
0.00294905
0.00294353
0.00290672
0.00294119
0.00294122
0.0029094
0.00290937
0.00294354
0.00290665
0.00294119
0.00294118
0.0029094
0.00290934
0.00294114
0.00290941
0.00290939
0.0029435
0.00290668
0.00294116
0.00290934
0.00290937
0.00290667
0.00290125
0.00286465
0.00289896
0.00289877
0.00286737
0.00286727
0.00290113
0.00286457
0.00289895
0.00289895
0.00286736
0.00286732
0.00289882
0.00286726
0.00286723
0.00290125
0.00286464
0.00289882
0.00286733
0.00286724
0.0028646
0.00285923
0.00282289
0.00285693
0.0028568
0.00282565
0.00282551
0.00285914
0.00282276
0.00285694
0.00285702
0.00282565
0.00282555
0.00285694
0.00282551
0.00282559
0.00285927
0.00282287
0.00285692
0.00282554
0.00282558
0.00282287
0.00281751
0.00278144
0.00281525
0.00281511
0.00278423
0.00278426
0.00281738
0.00278141
0.00281525
0.00281528
0.00278423
0.00278411
0.00281527
0.00278425
0.00278425
0.00281755
0.00278141
0.00281528
0.00278414
0.00278426
0.00278147
0.00277613
0.00274038
0.002774
0.00277385
0.00274321
0.00274329
0.00277608
0.00274028
0.00277398
0.00277396
0.00274321
0.00274308
0.00277395
0.00274332
0.00274322
0.00277612
0.0027403
0.00277393
0.0027431
0.00274319
0.00274032
0.00273516
0.00269964
0.00273306
0.00273301
0.00270246
0.00270252
0.00273505
0.00269953
0.00273304
0.00273295
0.00270244
0.00270244
0.00273302
0.00270252
0.00270254
0.00273508
0.00269951
0.00273301
0.00270245
0.00270252
0.00269954
0.00269442
0.00265903
0.00269238
0.00269238
0.00266211
0.00266207
0.00269437
0.00265906
0.00269236
0.00269225
0.00266211
0.0026622
0.00269239
0.00266209
0.00266216
0.0026943
0.00265899
0.00269241
0.00266221
0.00266215
0.00265911
0.0026539
0.00261891
0.00265211
0.00265207
0.00262214
0.00262212
0.0026539
0.0026189
0.0026521
0.00265214
0.00262214
0.00262206
0.00265204
0.00262213
0.00262205
0.00265393
0.00261893
0.00265208
0.00262207
0.00262208
0.00261902
0.00261387
0.00257917
0.00261217
0.0026122
0.00258233
0.00258226
0.00261388
0.00257915
0.00261215
0.00261225
0.0025823
0.00258231
0.00261209
0.00258227
0.0025823
0.00261389
0.00257914
0.00261211
0.00258232
0.00258231
0.00257924
0.00257412
0.00253976
0.00257245
0.00257251
0.00254288
0.00254281
0.0025741
0.00253973
0.00257245
0.00257237
0.00254288
0.002543
0.00257239
0.00254282
0.00254283
0.00257403
0.00253979
0.00257238
0.00254299
0.00254285
0.00253981
0.00253475
0.0025006
0.00253308
0.00253304
0.00250366
0.00250362
0.00253467
0.00250064
0.0025331
0.00253306
0.00250366
0.00250376
0.00253303
0.00250363
0.00250363
0.00253478
0.0025006
0.00253303
0.00250375
0.00250362
0.0025006
0.00249566
0.00246169
0.00249395
0.00249393
0.00246466
0.00246466
0.00249569
0.00246165
0.00249397
0.00249402
0.00246466
0.00246469
0.00249386
0.00246466
0.00246474
0.00249572
0.00246159
0.00249385
0.00246468
0.00246473
0.00246178
0.00245676
0.00242305
0.00245502
0.00245492
0.00242594
0.00242603
0.00245663
0.00242323
0.00245502
0.00245508
0.00242594
0.00242593
0.00245492
0.00242603
0.00242602
0.00245672
0.00242302
0.00245493
0.00242592
0.002426
0.00242303
0.00241811
0.00238465
0.00241631
0.00241628
0.00238743
0.0023875
0.00241822
0.00238469
0.00241632
0.00241634
0.00238743
0.00238743
0.00241627
0.00238751
0.00238749
0.00241808
0.00238472
0.00241628
0.00238742
0.00238747
0.00238463
0.00237974
0.00234636
0.00237782
0.00237786
0.00234908
0.00234909
0.00237984
0.00234618
0.00237783
0.00237783
0.00234908
0.00234907
0.00237783
0.00234911
0.0023491
0.00237979
0.00234636
0.00237784
0.00234907
0.00234909
0.00234633
0.00234144
0.0023083
0.00233953
0.00233958
0.00231094
0.00231092
0.00234131
0.00230836
0.00233953
0.00233953
0.00231094
0.00231093
0.00233956
0.00231093
0.00231091
0.00234149
0.00230824
0.00233957
0.00231093
0.0023109
0.00230827
0.00230341
0.00227033
0.00230145
0.00230144
0.00227295
0.00227294
0.00230337
0.00227044
0.00230145
0.00230142
0.00227296
0.002273
0.00230143
0.00227295
0.00227296
0.00230331
0.00227038
0.00230143
0.002273
0.00227296
0.00227047
0.00226541
0.00223251
0.00226347
0.00226346
0.00223516
0.00223516
0.00226553
0.00223244
0.00226349
0.0022635
0.00223514
0.00223514
0.00226343
0.00223516
0.0022352
0.00226549
0.00223244
0.00226343
0.00223514
0.00223519
0.00223241
0.00222761
0.00219484
0.00222572
0.00222575
0.00219746
0.00219739
0.00222761
0.00219491
0.0022257
0.00222573
0.00219748
0.00219747
0.00222577
0.0021974
0.00219743
0.00222752
0.00219496
0.00222574
0.00219747
0.00219747
0.00219486
0.00218994
0.00215731
0.00218805
0.00218796
0.00215987
0.00215996
0.00218995
0.00215723
0.00218808
0.00218806
0.00215986
0.00215988
0.00218806
0.00215997
0.00215987
0.00219004
0.00215726
0.00218809
0.00215988
0.00215984
0.00215739
0.00215242
0.00211988
0.00215051
0.0021506
0.00212249
0.00212246
0.00215238
0.00211995
0.0021505
0.00215052
0.00212249
0.00212247
0.00215049
0.00212245
0.00212253
0.0021524
0.00211987
0.00215047
0.00212247
0.00212255
0.00211986
0.00211499
0.00208262
0.00211315
0.0021131
0.00208516
0.00208514
0.00211501
0.00208257
0.00211315
0.00211314
0.00208516
0.00208515
0.00211318
0.00208513
0.00208511
0.00211498
0.00208265
0.00211318
0.00208515
0.0020851
0.00208258
0.00207774
0.00204541
0.00207583
0.00207581
0.00204794
0.00204796
0.00207772
0.00204546
0.00207583
0.00207583
0.00204794
0.00204797
0.00207579
0.00204796
0.00204796
0.00207776
0.00204537
0.00207579
0.00204796
0.00204796
0.00204547
0.00204054
0.00200848
0.00203868
0.00203871
0.00201089
0.00201085
0.00204055
0.00200837
0.00203868
0.00203869
0.00201088
0.00201087
0.00203869
0.00201085
0.00201086
0.0020405
0.00200849
0.00203871
0.00201089
0.00201085
0.00200837
0.00200361
0.00197144
0.00200163
0.00200158
0.00197393
0.00197399
0.00200353
0.00197162
0.00200163
0.00200162
0.00197394
0.00197391
0.0020016
0.00197401
0.00197396
0.0020036
0.00197142
0.00200157
0.00197389
0.00197401
0.00197157
0.00196658
0.00193487
0.00196472
0.00196479
0.00193714
0.00193711
0.00196672
0.00193474
0.00196472
0.00196472
0.00193715
0.00193716
0.00196475
0.0019371
0.00193719
0.0019666
0.0019349
0.00196481
0.00193718
0.00193711
0.00193479
0.00193003
0.00189809
0.00192798
0.00192794
0.00190051
0.00190051
0.00192995
0.00189814
0.00192798
0.001928
0.0019005
0.0019005
0.00192799
0.00190052
0.00190044
0.00193003
0.0018981
0.00192793
0.0019005
0.0019005
0.00189814
0.00189326
0.00186175
0.00189133
0.00189132
0.00186393
0.00186393
0.00189326
0.00186171
0.00189132
0.00189133
0.00186395
0.00186389
0.00189131
0.0018639
0.00186396
0.00189327
0.00186168
0.00189136
0.00186389
0.00186394
0.00186167
0.00185694
0.00182527
0.00185488
0.00185484
0.00182759
0.00182759
0.00185689
0.00182535
0.00185489
0.00185482
0.00182758
0.00182764
0.00185483
0.00182759
0.00182757
0.00185687
0.00182536
0.0018548
0.00182763
0.00182755
0.00182536
0.00182043
0.00178907
0.00181845
0.00181856
0.00179124
0.00179128
0.00182056
0.00178902
0.00181843
0.00181853
0.00179122
0.00179129
0.00181852
0.00179132
0.00179128
0.00182052
0.0017891
0.00181853
0.00179132
0.00179136
0.00178907
0.0017843
0.00175302
0.00178223
0.00178211
0.00175513
0.00175502
0.00178417
0.00175295
0.00178223
0.00178226
0.00175519
0.00175507
0.00178221
0.00175499
0.00175516
0.00178431
0.00175289
0.00178224
0.00175505
0.00175506
0.001753
0.00174821
0.00171714
0.00174612
0.00174619
0.00171929
0.00171964
0.00174823
0.00171746
0.00174617
0.00174601
0.00171921
0.00171923
0.00174616
0.00171961
0.00171919
0.00174808
0.00171716
0.00174609
0.00171923
0.00171925
0.00171706
0.00171238
0.00168118
0.00171037
0.00171051
0.00168332
0.00168291
0.00171255
0.00168086
0.00171026
0.00171037
0.00168336
0.00168348
0.00171022
0.00168294
0.00168341
0.00171242
0.00168127
0.00171024
0.00168347
0.0016834
0.00168128
0.00167638
0.00164549
0.00167429
0.00167401
0.00164754
0.00164779
0.00167615
0.00164568
0.00167439
0.0016744
0.00164756
0.00164746
0.00167446
0.00164782
0.00164755
0.00167644
0.00164541
0.00167448
0.00164747
0.00164758
0.00164546
0.00164076
0.00161003
0.00163871
0.00163896
0.00161206
0.00161201
0.00164092
0.00161002
0.0016387
0.0016386
0.00161198
0.00161208
0.00163865
0.00161197
0.00161201
0.00164068
0.00161006
0.00163864
0.00161207
0.00161201
0.00161002
0.00160527
0.00157445
0.00160319
0.0016031
0.00157653
0.00157661
0.00160527
0.0015744
0.00160309
0.00160324
0.00157658
0.00157653
0.00160316
0.00157666
0.00157657
0.00160532
0.00157439
0.00160315
0.0015765
0.00157647
0.0015744
0.0015697
0.0015391
0.00156764
0.00156763
0.00154115
0.00154097
0.00156963
0.00153899
0.00156772
0.00156759
0.00154119
0.00154121
0.00156766
0.00154093
0.00154117
0.00156965
0.00153924
0.0015676
0.00154128
0.0015413
0.0015392
0.00153438
0.00150386
0.00153233
0.0015322
0.00150589
0.00150598
0.00153429
0.00150396
0.00153234
0.00153245
0.00150589
0.00150591
0.00153238
0.00150601
0.0015059
0.00153452
0.00150377
0.00153252
0.00150582
0.00150585
0.0015038
0.00149912
0.00146862
0.00149709
0.00149723
0.00147069
0.00147081
0.00149924
0.00146867
0.00149707
0.001497
0.00147062
0.00147064
0.00149705
0.00147077
0.00147069
0.00149903
0.00146861
0.00149697
0.00147069
0.00147063
0.00146866
0.00146391
0.00143351
0.0014619
0.00146193
0.00143554
0.00143541
0.00146393
0.00143338
0.00146185
0.00146187
0.00143561
0.00143549
0.00146191
0.00143539
0.00143552
0.00146389
0.00143348
0.00146188
0.00143546
0.0014356
0.00143346
0.00142879
0.00139853
0.00142674
0.00142667
0.00140057
0.00140068
0.00142867
0.00139869
0.00142681
0.00142676
0.00140053
0.00140071
0.00142672
0.00140072
0.00140058
0.00142878
0.00139864
0.00142678
0.00140074
0.00140051
0.00139853
0.00139385
0.00136382
0.0013919
0.00139203
0.00136591
0.0013658
0.00139403
0.00136372
0.00139184
0.001392
0.00136588
0.00136573
0.0013919
0.00136577
0.00136589
0.00139396
0.00136371
0.00139183
0.00136572
0.00136586
0.00136385
0.00135912
0.00132878
0.00135717
0.00135697
0.00133081
0.00133079
0.00135897
0.0013287
0.00135717
0.00135697
0.00133086
0.00133082
0.00135718
0.00133079
0.00133082
0.001359
0.00132874
0.00135719
0.00133082
0.00133088
0.00132877
0.00132409
0.00129428
0.00132214
0.00132216
0.00129629
0.00129638
0.00132403
0.00129443
0.00132219
0.00132219
0.00129627
0.00129637
0.00132214
0.00129642
0.00129631
0.00132406
0.00129437
0.00132215
0.00129635
0.00129629
0.00129428
0.00128961
0.00125939
0.00128764
0.00128775
0.00126145
0.00126143
0.00128977
0.00125937
0.0012876
0.00128772
0.00126145
0.00126147
0.00128765
0.0012614
0.00126141
0.00128971
0.00125942
0.00128764
0.00126152
0.00126143
0.00125939
0.00125467
0.00122471
0.00125272
0.00125268
0.00122677
0.00122676
0.00125465
0.00122469
0.00125273
0.00125272
0.00122675
0.00122672
0.00125271
0.00122679
0.00122677
0.00125469
0.00122464
0.0012527
0.00122668
0.00122673
0.00122468
0.00122004
0.00119008
0.00121814
0.0012181
0.00119212
0.00119211
0.00122
0.00119006
0.00121813
0.00121808
0.00119217
0.00119217
0.00121809
0.00119208
0.00119214
0.00121997
0.00119013
0.0012181
0.00119219
0.00119225
0.00119014
0.0011854
0.0011556
0.00118347
0.00118351
0.00115767
0.00115769
0.0011854
0.00115566
0.00118349
0.0011835
0.0011576
0.00115756
0.00118356
0.00115775
0.00115772
0.00118545
0.00115551
0.00118362
0.00115755
0.00115755
0.00115555
0.00115093
0.00112094
0.00114906
0.00114901
0.00112295
0.00112291
0.00115095
0.00112083
0.00114901
0.00114894
0.00112305
0.00112308
0.00114896
0.00112287
0.00112286
0.00115082
0.00112104
0.00114883
0.00112306
0.001123
0.00112092
0.00111624
0.00108655
0.00111427
0.00111428
0.00108856
0.00108866
0.00111615
0.00108672
0.00111436
0.00111443
0.0010885
0.00108854
0.00111429
0.00108869
0.00108872
0.00111638
0.00108654
0.00111448
0.0010886
0.00108865
0.00108665
0.00108192
0.00105209
0.00108003
0.00108014
0.00105416
0.00105411
0.00108211
0.00105199
0.00107993
0.00107996
0.00105419
0.00105416
0.00108011
0.00105409
0.001054
0.00108185
0.00105206
0.00107992
0.00105406
0.00105398
0.00105194
0.00104738
0.00101761
0.00104546
0.0010454
0.00101963
0.00101954
0.00104726
0.00101753
0.00104555
0.00104552
0.00101966
0.00101958
0.00104533
0.00101952
0.00101964
0.00104739
0.00101758
0.00104541
0.00101962
0.00101973
0.00101766
0.00101295
0.000983324
0.00101109
0.001011
0.000985361
0.000985452
0.0010129
0.000983518
0.00101105
0.00101097
0.000985266
0.000985325
0.00101113
0.000985513
0.000985524
0.00101291
0.000983367
0.00101116
0.000985375
0.000985413
0.000983474
0.000978657
0.000948921
0.000976726
0.000976882
0.000950867
0.000950903
0.000978858
0.000948805
0.000976684
0.000976793
0.000950978
0.000951069
0.000976886
0.000950844
0.000950762
0.00097873
0.000948954
0.000976798
0.000950977
0.000950837
0.000948758
0.000944246
0.000914425
0.000942302
0.000942251
0.00091652
0.000916416
0.000944099
0.000914398
0.000942396
0.000942383
0.000916474
0.000916352
0.000942133
0.000916388
0.00091648
0.000944227
0.000914318
0.000942214
0.000916336
0.000916444
0.000914438
0.000909719
0.00087991
0.000907866
0.000907806
0.000881925
0.000882013
0.000909731
0.000880046
0.000907801
0.00090771
0.00088188
0.000881888
0.000907907
0.000882078
0.000882004
0.000909631
0.000879946
0.000907845
0.000881968
0.00088198
0.000880016
0.000875244
0.000845744
0.000873335
0.000873434
0.000847657
0.000847665
0.000875373
0.000845628
0.000873302
0.000873335
0.000847691
0.000847751
0.000873408
0.000847614
0.000847621
0.000875294
0.000845815
0.000873404
0.000847756
0.000847706
0.000845685
0.000841073
0.000811062
0.000839064
0.000838998
0.000813077
0.000813028
0.000840911
0.000811035
0.000839129
0.000839197
0.000813123
0.00081316
0.000838988
0.000813037
0.000813085
0.000841144
0.000811072
0.000839072
0.000813094
0.00081305
0.000811045
0.000806369
0.000776911
0.000804481
0.000804463
0.000778935
0.000778989
0.000806376
0.000777018
0.000804474
0.000804481
0.000778865
0.000778825
0.000804522
0.000779015
0.000779003
0.000806364
0.000776847
0.000804461
0.000778863
0.000778941
0.000776971
0.000772254
0.00074218
0.000770387
0.000770424
0.000744216
0.000744233
0.000772335
0.000742163
0.000770321
0.000770262
0.000744222
0.000744194
0.00077041
0.000744213
0.000744188
0.000772188
0.000742153
0.000770374
0.000744198
0.000744218
0.000742157
0.000737389
0.00070759
0.000735434
0.000735445
0.000709463
0.000709469
0.000737362
0.000707571
0.00073545
0.000735426
0.000709495
0.000709523
0.000735404
0.000709467
0.000709455
0.000737355
0.000707637
0.000735438
0.000709524
0.000709491
0.00070759
0.000702995
0.000674102
0.000701013
0.000701015
0.000675934
0.000675924
0.000702977
0.000674102
0.000701041
0.000701086
0.000675941
0.000675999
0.000701016
0.00067593
0.000675951
0.000703043
0.000674163
0.000701046
0.000676005
0.000675959
0.00067412
0.000669561
0.000639805
0.000667592
0.000667581
0.00064204
0.000642014
0.000669563
0.000639805
0.00066759
0.000667639
0.000642014
0.000641973
0.000667609
0.000642013
0.000642029
0.000669614
0.000639752
0.000667607
0.000641962
0.000641992
0.000639786
0.000635021
0.000604544
0.00063327
0.000633251
0.00060673
0.000606737
0.000635022
0.000604544
0.000633246
0.000633192
0.000606732
0.000606701
0.000633252
0.000606735
0.000606716
0.000634965
0.000604519
0.000633216
0.000606697
0.000606714
0.000604529
0.000599677
0.000568617
0.000597795
0.000597802
0.000570551
0.000570555
0.000599675
0.000568621
0.0005978
0.000597775
0.000570554
0.000570551
0.000597783
0.000570554
0.000570546
0.000599655
0.000568623
0.000597787
0.000570552
0.000570551
0.000568615
0.000563773
0.000533226
0.000561566
0.000561573
0.000534969
0.000534974
0.000563778
0.000533229
0.000561569
0.000561576
0.000534969
0.000534978
0.000561565
0.000534973
0.000534974
0.000563783
0.000533231
0.00056157
0.000534978
0.000534975
0.000533231
0.000528371
0.000497646
0.000526076
0.000526075
0.00049952
0.000499523
0.000528373
0.00049765
0.000526074
0.000526079
0.00049952
0.000499523
0.000526081
0.000499524
0.000499527
0.000528375
0.00049765
0.000526082
0.000499525
0.000499527
0.000497652
0.000492891
0.000463738
0.000490806
0.000490807
0.000465683
0.000465681
0.000492895
0.000463736
0.000490803
0.000490805
0.000465683
0.000465686
0.000490811
0.000465684
0.000465688
0.000492894
0.000463739
0.000490813
0.000465686
0.000465687
0.00046374
0.000459333
0.000432278
0.000457644
0.000457648
0.000434312
0.000434309
0.000459333
0.000432277
0.000457643
0.000457652
0.00043431
0.00043431
0.000457654
0.000434309
0.000434311
0.000459336
0.000432277
0.000457654
0.000434311
0.000434309
0.000432277
0.000428108
0.000400357
0.000426638
0.000426635
0.000402562
0.000402563
0.000428107
0.000400358
0.000426636
0.000426637
0.000402561
0.000402562
0.000426638
0.000402564
0.000402563
0.000428108
0.000400356
0.000426634
0.000402562
0.000402562
0.000400357
0.000395679
0.000364111
0.000393999
0.000394
0.000366487
0.000366487
0.00039568
0.000364112
0.000393998
0.000393999
0.000366486
0.000366486
0.000394
0.000366489
0.000366487
0.00039568
0.000364111
0.000394
0.000366488
0.000366488
0.000364112
0.000358777
0.000324407
0.000356744
0.000356744
0.000326473
0.000326476
0.000358778
0.00032441
0.000356744
0.000356743
0.000326473
0.000326474
0.000356744
0.000326476
0.000326474
0.000358777
0.000324408
0.000356745
0.000326475
0.000326475
0.000324407
0.000318927
0.000284266
0.000316391
0.000316392
0.000286211
0.000286212
0.000318929
0.000284269
0.00031639
0.000316391
0.000286211
0.000286215
0.000316391
0.000286211
0.000286214
0.000318928
0.000284278
0.000316392
0.000286215
0.000286214
0.000284275
0.000278856
0.000245251
0.000276278
0.000276278
0.000247226
0.000247226
0.000278857
0.000245252
0.000276277
0.000276279
0.000247225
0.000247225
0.000276279
0.000247226
0.000247226
0.000278861
0.00024525
0.000276278
0.000247226
0.000247225
0.00024525
0.000240105
0.000208259
0.000237807
0.000237807
0.000210301
0.0002103
0.000240106
0.000208259
0.000237806
0.000237806
0.000210301
0.000210301
0.000237807
0.000210301
0.000210301
0.000240104
0.000208259
0.000237806
0.000210301
0.0002103
0.000208258
0.000203446
0.000174626
0.000201484
0.000201482
0.000176529
0.000176528
0.000203445
0.000174626
0.000201484
0.000201485
0.000176529
0.000176528
0.000201485
0.000176528
0.000176528
0.000203447
0.000174625
0.000201484
0.000176529
0.000176528
0.000174625
0.00017037
0.000143926
0.000168679
0.000168676
0.000145727
0.000145727
0.00017037
0.000143926
0.000168679
0.000168676
0.000145726
0.000145727
0.000168677
0.000145727
0.000145727
0.00017037
0.000143926
0.000168677
0.000145726
0.000145726
0.000143925
0.000139684
0.000111692
0.00013796
0.00013796
0.000113614
0.000113614
0.000139683
0.000111693
0.000137959
0.000137959
0.000113614
0.000113614
0.00013796
0.000113614
0.000113614
0.000139684
0.000111692
0.00013796
0.000113613
0.000113614
0.000111692
0.000107051
7.70033e-05
0.000105164
0.000105164
7.9011e-05
7.90103e-05
0.000107051
7.70026e-05
0.000105164
0.000105164
7.90103e-05
7.90091e-05
0.000105164
7.90102e-05
7.90092e-05
0.00010705
7.7e-05
0.000105163
7.90086e-05
7.90083e-05
7.70004e-05
7.20953e-05
4.11098e-05
7.01266e-05
7.01259e-05
4.31592e-05
4.31587e-05
7.20944e-05
4.11087e-05
7.0126e-05
7.01242e-05
4.31577e-05
4.31544e-05
7.01241e-05
4.31573e-05
4.31545e-05
7.20919e-05
4.11053e-05
7.01233e-05
4.31536e-05
4.31541e-05
4.11027e-05
3.61414e-05
8.65127e-06
3.42805e-05
3.42804e-05
1.1628e-05
1.16295e-05
3.61396e-05
8.65296e-06
3.42788e-05
3.42747e-05
1.16312e-05
1.16251e-05
3.42753e-05
1.16306e-05
1.16251e-05
3.61371e-05
8.64784e-06
3.42758e-05
1.16273e-05
1.1629e-05
8.6496e-06
5.44364e-06
7.13688e-06
7.13708e-06
5.44456e-06
7.13892e-06
7.13349e-06
6.21704e-06
6.21543e-06
6.2162e-06
7.13504e-06
5.4396e-06
7.13712e-06
0.00352929
0.00353183
0.00353056
0.00353069
0.00355818
0.00353172
0.00356128
0.00353202
0.00355825
0.00353185
0.0035321
0.00356224
0.00354294
0.00356473
0.00356491
0.00350171
0.00351538
0.00351921
0.00349404
0.00349222
0.00349739
0.00350169
0.00351538
0.00351917
0.00349413
0.00351774
0.00351782
0.00351786
0.0034912
0.00349123
0.0034912
0.00349122
0.00350147
0.00351306
0.00351833
0.00350909
0.00352043
0.00349852
0.00350934
0.00349224
0.0034975
0.00350156
0.00351841
0.00351364
0.00350914
0.00352058
0.00350941
0.00349873
0.00351932
0.00351972
0.00350644
0.00349856
0.00349878
0.00347423
0.00348836
0.00348813
0.0034722
0.00348556
0.00347129
0.0034742
0.00348837
0.00348805
0.00347219
0.0034821
0.00348209
0.00348204
0.00345386
0.00345387
0.0034538
0.00345378
0.00347194
0.00348687
0.0034805
0.00347133
0.00348532
0.00347239
0.00347121
0.00348555
0.00347122
0.00347195
0.00348051
0.0034869
0.00347128
0.00348529
0.00347121
0.0034724
0.00348856
0.00348857
0.00346948
0.00347269
0.00347277
0.00343171
0.00344645
0.00344728
0.00343034
0.00344531
0.00342959
0.00343168
0.00344639
0.00344723
0.00343034
0.00344382
0.00344375
0.00344373
0.00341119
0.00341121
0.00341116
0.00341117
0.00343045
0.00344592
0.00344174
0.00343138
0.00344487
0.00343094
0.00343134
0.00344522
0.00342946
0.00343036
0.00344168
0.00344587
0.00343137
0.00344476
0.00343132
0.00343073
0.00344648
0.00344545
0.00342865
0.0034306
0.0034303
0.00338526
0.0034017
0.00340315
0.00338387
0.00340099
0.00338328
0.00338529
0.0034017
0.00340309
0.00338384
0.00339962
0.00339959
0.0033996
0.0033636
0.00336362
0.00336358
0.00336361
0.00338446
0.0034017
0.00339783
0.00338625
0.00340097
0.00338434
0.00338616
0.00340106
0.00338329
0.00338447
0.00339784
0.00340151
0.00338617
0.00340094
0.00338615
0.00338455
0.00340182
0.00340214
0.00338284
0.003384
0.00338413
0.00333632
0.00335341
0.00335474
0.00333509
0.00335306
0.0033349
0.00333624
0.0033534
0.00335472
0.00333504
0.00335144
0.00335139
0.00335141
0.00331473
0.00331471
0.00331471
0.00331473
0.00333596
0.00335374
0.00334992
0.00333783
0.00335312
0.00333603
0.00333778
0.00335298
0.00333476
0.00333591
0.00334991
0.00335341
0.00333766
0.00335307
0.00333769
0.00333582
0.0033535
0.0033535
0.00333436
0.00333521
0.00333521
0.00328723
0.00330455
0.00330553
0.00328631
0.00330423
0.00328613
0.00328727
0.00330453
0.00330549
0.00328635
0.00330255
0.00330256
0.00330257
0.00326644
0.00326642
0.00326643
0.00326644
0.00328719
0.00330444
0.00330122