/*--------------------------------*- C++ -*----------------------------------*\
| =========                 |                                                 |
| \\      /  F ield         | OpenFOAM: The Open Source CFD Toolbox           |
|  \\    /   O peration     | Version:  v2006                                 |
|   \\  /    A nd           | Website:  www.openfoam.com                      |
|    \\/     M anipulation  |                                                 |
\*---------------------------------------------------------------------------*/
FoamFile
{
    version     2.0;
    format      ascii;
    class       volScalarField;
    location    "625";
    object      epsilon;
}
// * * * * * * * * * * * * * * * * * * * * * * * * * * * * * * * * * * * * * //

dimensions      [0 2 -3 0 0 0 0];


internalField   nonuniform List<scalar> 
14361
(
1.19463e-06
9.5063e-07
3.65939e-06
2.29724e-06
5.67978e-06
1.92633e-05
9.6528e-06
4.25122e-06
4.72218e-06
1.00226e-05
1.00216e-05
4.72431e-06
4.71662e-06
2.9781e-06
1.00195e-05
5.67789e-06
2.97668e-06
4.71882e-06
1.00185e-05
1.0016e-05
2.25858e-05
2.25866e-05
2.25857e-05
1.00202e-05
2.25864e-05
1.92642e-05
2.2969e-05
7.28232e-06
9.6528e-06
7.28107e-06
2.29656e-05
1.27748e-05
4.25089e-06
4.9004e-06
1.13524e-05
4.89966e-06
1.27733e-05
1.13538e-05
2.82776e-06
1.96958e-06
1.96775e-06
2.82946e-06
1.8461e-06
2.22364e-06
3.02848e-06
3.65809e-06
1.84818e-06
2.22206e-06
3.02714e-06
1.66471e-06
2.2965e-06
1.54802e-06
2.5421e-06
1.66695e-06
1.54639e-06
2.54117e-06
1.19802e-06
1.42744e-06
1.1956e-06
1.19823e-06
1.43125e-06
6.91091e-07
6.93188e-07
5.67253e-06
1.92502e-05
3.65687e-06
2.29759e-06
9.64441e-06
4.25017e-06
3.6609e-06
2.29797e-06
9.65151e-06
4.2508e-06
1.92653e-05
5.68117e-06
5.68039e-06
1.92645e-05
9.51346e-07
3.65952e-06
2.29729e-06
9.52114e-07
3.66115e-06
2.29746e-06
9.65294e-06
4.25122e-06
9.65317e-06
4.25129e-06
5.68128e-06
5.68254e-06
1.92659e-05
1.92678e-05
2.97658e-06
1.00028e-05
4.71231e-06
2.25516e-05
2.25536e-05
9.99879e-06
7.27618e-06
2.2957e-05
4.89803e-06
1.13511e-05
1.27704e-05
7.27906e-06
2.29662e-05
1.13515e-05
4.89984e-06
1.27729e-05
2.97947e-06
1.00239e-05
4.72497e-06
2.97856e-06
1.00207e-05
4.71946e-06
2.25887e-05
2.25896e-05
1.00217e-05
2.29633e-05
9.65246e-06
7.28201e-06
7.28277e-06
2.29675e-05
1.27713e-05
4.25145e-06
4.90036e-06
1.1352e-05
4.90092e-06
1.13504e-05
1.2773e-05
2.29631e-05
9.6513e-06
7.27948e-06
7.27924e-06
2.29687e-05
1.27712e-05
4.25134e-06
4.90019e-06
1.13519e-05
4.90011e-06
1.13503e-05
1.27733e-05
2.98105e-06
1.00173e-05
4.72228e-06
4.72563e-06
2.98257e-06
5.68222e-06
1.0021e-05
4.72608e-06
2.98252e-06
1.00176e-05
2.25759e-05
2.25749e-05
1.00178e-05
1.92632e-05
1.96936e-06
1.96924e-06
2.8297e-06
2.83332e-06
1.43285e-06
1.97266e-06
1.97337e-06
2.83312e-06
1.97351e-06
1.97406e-06
4.94267e-07
4.9493e-07
2.22343e-06
3.02706e-06
1.84759e-06
2.54211e-06
1.54778e-06
1.66635e-06
2.22586e-06
3.02896e-06
1.84917e-06
1.54796e-06
2.54313e-06
1.66713e-06
1.84922e-06
2.22348e-06
3.66066e-06
3.02831e-06
1.84718e-06
2.22503e-06
3.02945e-06
1.66794e-06
2.298e-06
1.54724e-06
2.54215e-06
1.66575e-06
1.54881e-06
2.54306e-06
1.85049e-06
2.22605e-06
3.66127e-06
3.02872e-06
3.02922e-06
2.22666e-06
1.84879e-06
1.66869e-06
2.29805e-06
1.54754e-06
2.5427e-06
1.54904e-06
2.54317e-06
1.66672e-06
4.24706e-06
2.29729e-06
4.24688e-06
2.29722e-06
1.27447e-05
4.24753e-06
4.8947e-06
1.13275e-05
4.89523e-06
1.13263e-05
1.27459e-05
1.27443e-05
4.24725e-06
1.13273e-05
4.89414e-06
1.1326e-05
4.8943e-06
1.27457e-05
6.89732e-07
9.50347e-07
1.19771e-06
1.43085e-06
5.67059e-06
5.67178e-06
1.1961e-06
9.50498e-07
1.19612e-06
9.50231e-07
1.42962e-06
1.92349e-05
5.67742e-06
1.92342e-05
5.67539e-06
1.42826e-06
1.19622e-06
1.19507e-06
1.19597e-06
1.19558e-06
1.42883e-06
1.92438e-05
1.42803e-06
2.29798e-06
2.29832e-06
1.19608e-06
1.19523e-06
4.24885e-06
1.19753e-06
4.24878e-06
1.19613e-06
1.43211e-06
1.92507e-05
9.51795e-07
9.6442e-06
4.2492e-06
1.92418e-05
6.86994e-07
3.65565e-06
1.84924e-06
3.65627e-06
3.65901e-06
1.19587e-06
1.19707e-06
4.24803e-06
1.19768e-06
9.51308e-07
9.6337e-06
4.24826e-06
1.42852e-06
1.92397e-05
4.24774e-06
9.62953e-06
9.63163e-06
4.24766e-06
1.92193e-05
1.92325e-05
4.24914e-06
9.63749e-06
4.24881e-06
9.64241e-06
1.92435e-05
1.92469e-05
4.24932e-06
9.63911e-06
4.24999e-06
9.64544e-06
4.91615e-07
4.9176e-07
4.9109e-07
6.91346e-07
6.91046e-07
1.19542e-06
2.29725e-06
3.65738e-06
2.29723e-06
1.19535e-06
3.65665e-06
9.50463e-07
1.92513e-05
1.92614e-05
9.51699e-07
3.66118e-06
2.29871e-06
2.29848e-06
1.19743e-06
9.51747e-07
3.66121e-06
5.67472e-06
5.67356e-06
1.43023e-06
5.67654e-06
5.67833e-06
1.92189e-05
1.9225e-05
1.92248e-05
1.92186e-05
5.67034e-06
1.42854e-06
1.42722e-06
5.67015e-06
5.67053e-06
1.92362e-05
1.92257e-05
1.92258e-05
1.92377e-05
1.42918e-06
5.67375e-06
1.4279e-06
5.67329e-06
5.67157e-06
4.24778e-06
4.24776e-06
1.19615e-06
9.50253e-07
9.503e-07
2.29712e-06
3.65614e-06
3.65575e-06
2.29777e-06
9.50802e-07
2.29714e-06
2.29787e-06
4.24808e-06
9.63663e-06
9.63223e-06
4.24839e-06
4.24806e-06
9.6402e-06
9.63756e-06
4.24825e-06
9.50255e-07
1.19626e-06
9.50276e-07
2.29726e-06
3.65658e-06
3.65621e-06
2.29674e-06
1.19594e-06
1.19537e-06
9.4998e-07
2.29722e-06
3.65726e-06
3.65823e-06
2.29658e-06
1.92437e-05
1.92373e-05
1.42726e-06
5.67465e-06
5.67579e-06
5.67711e-06
1.9244e-05
5.67087e-06
5.67482e-06
5.67387e-06
1.42924e-06
1.92319e-05
1.92498e-05
1.43024e-06
5.67626e-06
1.43133e-06
5.68007e-06
5.68105e-06
1.92492e-05
1.92375e-05
1.92485e-05
1.92394e-05
1.92516e-05
1.4298e-06
5.67455e-06
1.42846e-06
5.67546e-06
5.67715e-06
1.92579e-05
1.92494e-05
1.92604e-05
1.92526e-05
1.43026e-06
5.67671e-06
5.67802e-06
5.67613e-06
5.67799e-06
4.24882e-06
9.64044e-06
4.2486e-06
9.64171e-06
9.50273e-07
2.29644e-06
3.65717e-06
1.19614e-06
2.29688e-06
3.65739e-06
9.50312e-07
9.4983e-07
2.29619e-06
3.65745e-06
1.19503e-06
2.29669e-06
3.65648e-06
9.49802e-07
4.24943e-06
9.64687e-06
9.64318e-06
4.24954e-06
4.2491e-06
9.64282e-06
9.64174e-06
4.24927e-06
2.29667e-06
1.1961e-06
3.65805e-06
9.50428e-07
3.65796e-06
9.5035e-07
2.29654e-06
2.29641e-06
1.19519e-06
3.65657e-06
9.50123e-07
3.65672e-06
9.49869e-07
2.2964e-06
5.67452e-06
5.67581e-06
1.42687e-06
5.67343e-06
5.67246e-06
1.9247e-05
1.92503e-05
1.9246e-05
1.42886e-06
5.67328e-06
5.67351e-06
5.67236e-06
1.92461e-05
3.65771e-06
1.19643e-06
9.50912e-07
2.29729e-06
1.1965e-06
3.6583e-06
9.50965e-07
4.25013e-06
9.64463e-06
4.2507e-06
9.65004e-06
9.51136e-07
1.19746e-06
3.66126e-06
2.29753e-06
1.19721e-06
9.51135e-07
3.66113e-06
4.25029e-06
9.6491e-06
9.64621e-06
4.25009e-06
2.29737e-06
1.19642e-06
3.6583e-06
9.50795e-07
3.65872e-06
9.50947e-07
2.29618e-06
4.25103e-06
9.65178e-06
9.65053e-06
4.25046e-06
2.29761e-06
1.19622e-06
9.50462e-07
3.65939e-06
9.50981e-07
3.66134e-06
2.2962e-06
9.64042e-06
4.24936e-06
9.64229e-06
9.51205e-07
2.29732e-06
3.65748e-06
2.29754e-06
1.19786e-06
9.51552e-07
3.65878e-06
9.63762e-06
4.24973e-06
9.64445e-06
2.29756e-06
1.19553e-06
9.51169e-07
3.65688e-06
9.50869e-07
4.2497e-06
9.64247e-06
2.2979e-06
1.198e-06
9.51896e-07
9.51787e-07
3.65989e-06
4.25022e-06
9.64557e-06
5.68164e-06
5.68275e-06
1.42946e-06
5.68366e-06
5.68273e-06
1.92604e-05
1.92616e-05
1.43088e-06
5.68394e-06
5.68291e-06
1.92606e-05
1.1977e-06
2.29825e-06
3.65781e-06
2.29831e-06
1.19805e-06
9.52078e-07
3.65952e-06
4.25019e-06
4.25118e-06
9.65028e-06
9.63865e-06
4.25057e-06
9.64702e-06
2.29857e-06
1.19677e-06
9.51703e-07
3.66141e-06
2.29848e-06
1.19826e-06
9.52182e-07
3.66053e-06
4.25143e-06
9.65092e-06
4.25106e-06
9.64823e-06
1.92404e-05
1.92533e-05
1.92559e-05
1.43238e-06
5.67833e-06
5.68027e-06
1.92545e-05
1.92575e-05
9.63103e-06
9.62923e-06
4.24704e-06
4.24709e-06
4.89334e-07
4.90779e-07
4.90366e-07
4.89681e-07
6.88009e-07
3.65737e-06
1.19722e-06
2.29721e-06
9.5039e-07
3.02672e-06
1.19562e-06
1.19563e-06
2.29733e-06
9.49713e-07
2.29743e-06
9.49858e-07
9.62833e-06
9.63331e-06
4.24731e-06
4.24698e-06
3.65769e-06
1.19691e-06
1.19731e-06
2.29753e-06
9.50126e-07
2.29745e-06
9.50426e-07
9.63184e-06
4.24856e-06
9.63779e-06
4.24759e-06
1.19608e-06
2.29771e-06
3.65683e-06
1.19618e-06
9.50709e-07
2.29765e-06
9.50342e-07
9.6348e-06
4.24923e-06
9.64324e-06
4.24803e-06
2.29804e-06
9.51078e-07
1.19758e-06
1.19757e-06
3.66037e-06
2.29789e-06
9.50847e-07
9.50324e-07
1.19559e-06
2.29692e-06
3.65722e-06
9.50346e-07
4.24836e-06
9.64011e-06
9.50826e-07
2.29692e-06
3.65618e-06
1.19644e-06
9.50449e-07
3.65443e-06
9.63617e-06
9.62865e-06
2.29664e-06
9.49689e-07
9.63218e-06
4.24674e-06
4.24559e-06
9.51467e-07
3.65866e-06
1.19751e-06
3.66028e-06
2.2983e-06
2.29779e-06
9.51029e-07
1.19712e-06
2.29777e-06
3.65628e-06
2.29721e-06
1.19649e-06
9.50625e-07
3.65474e-06
9.64273e-06
4.24941e-06
4.24752e-06
9.63685e-06
4.24637e-06
9.62862e-06
5.67247e-06
5.67169e-06
1.42902e-06
5.66797e-06
5.6691e-06
1.92384e-05
1.92223e-05
1.92242e-05
4.7149e-06
5.6706e-06
2.97706e-06
9.99351e-06
9.99271e-06
4.71464e-06
2.97713e-06
4.71486e-06
2.97753e-06
5.67201e-06
9.99421e-06
4.71499e-06
9.9964e-06
2.97749e-06
1.92417e-05
4.72408e-06
2.98189e-06
5.67821e-06
1.00027e-05
4.72343e-06
1.00074e-05
2.98201e-06
1.92411e-05
4.71588e-06
2.97848e-06
1.00024e-05
5.67523e-06
4.71656e-06
1.0006e-05
2.97819e-06
1.9246e-05
1.27615e-05
4.89712e-06
1.13395e-05
4.24892e-06
4.89699e-06
1.13418e-05
1.27591e-05
1.27607e-05
1.13387e-05
4.89635e-06
4.24899e-06
1.13413e-05
4.89668e-06
1.27575e-05
1.92557e-05
2.2954e-05
7.27932e-06
9.64714e-06
7.27959e-06
2.2947e-05
1.27628e-05
4.89647e-06
1.13401e-05
4.24965e-06
4.89701e-06
1.13433e-05
1.2759e-05
1.92482e-05
1.27531e-05
1.13376e-05
4.89525e-06
4.24777e-06
1.27562e-05
1.1335e-05
4.8949e-06
2.29365e-05
9.63724e-06
7.27278e-06
2.29275e-05
7.27355e-06
1.27538e-05
4.89514e-06
1.13387e-05
4.24771e-06
1.27575e-05
4.89454e-06
1.13355e-05
1.92325e-05
1.2749e-05
1.13325e-05
4.89557e-06
4.24782e-06
1.13309e-05
4.89568e-06
1.27509e-05
2.2923e-05
9.63017e-06
7.26988e-06
7.26957e-06
2.29183e-05
2.29223e-05
7.2704e-06
9.63058e-06
7.27057e-06
2.29274e-05
1.27484e-05
4.24755e-06
1.13287e-05
4.89545e-06
1.13303e-05
4.89532e-06
1.27467e-05
1.92245e-05
1.92264e-05
1.27608e-05
4.24917e-06
1.13431e-05
4.89749e-06
1.13411e-05
4.89752e-06
1.27633e-05
2.29438e-05
7.2746e-06
9.63965e-06
2.29381e-05
7.27462e-06
1.276e-05
4.24878e-06
1.13383e-05
4.89701e-06
1.27575e-05
1.13403e-05
4.897e-06
2.29438e-05
7.27582e-06
9.64046e-06
7.27591e-06
2.29492e-05
1.92457e-05
1.92449e-05
1.27615e-05
1.13397e-05
4.89704e-06
4.24943e-06
4.89724e-06
1.13421e-05
1.27586e-05
2.29441e-05
7.27568e-06
9.64202e-06
7.27583e-06
2.29369e-05
1.27624e-05
4.24999e-06
4.89791e-06
1.13449e-05
4.89786e-06
1.13429e-05
1.27647e-05
2.29447e-05
9.64318e-06
7.27689e-06
7.27696e-06
2.29508e-05
1.92565e-05
1.92574e-05
4.71643e-06
2.97854e-06
1.00012e-05
5.67502e-06
2.97853e-06
1.00055e-05
4.71679e-06
1.00032e-05
2.25423e-05
2.25456e-05
2.2552e-05
2.25495e-05
1.00019e-05
4.71893e-06
2.97899e-06
1.00008e-05
5.67458e-06
2.9794e-06
1.00045e-05
4.71746e-06
1.00069e-05
2.25584e-05
2.25584e-05
2.25526e-05
2.25515e-05
1.00082e-05
4.71848e-06
5.67605e-06
1.00078e-05
2.97951e-06
2.97921e-06
1.00052e-05
4.71886e-06
4.72069e-06
5.67761e-06
1.00125e-05
2.98097e-06
2.98056e-06
1.00081e-05
4.72166e-06
1.92213e-05
1.92217e-05
1.92211e-05
1.92208e-05
4.71476e-06
5.67001e-06
2.97728e-06
9.99314e-06
9.99291e-06
2.97695e-06
4.71581e-06
9.99714e-06
2.25288e-05
2.25332e-05
2.25297e-05
2.25249e-05
9.99721e-06
4.71546e-06
2.97848e-06
5.66994e-06
9.99436e-06
9.99477e-06
2.97819e-06
4.71562e-06
4.71615e-06
2.97808e-06
9.99546e-06
5.67055e-06
9.99473e-06
4.71613e-06
2.97832e-06
9.99648e-06
2.25237e-05
2.25283e-05
2.25307e-05
2.25257e-05
9.99725e-06
1.92312e-05
1.923e-05
1.92306e-05
1.92321e-05
4.71556e-06
5.6735e-06
2.97794e-06
1.00007e-05
9.99761e-06
4.71551e-06
2.97802e-06
9.99951e-06
2.25296e-05
2.25334e-05
9.99884e-06
2.25391e-05
2.25359e-05
4.7181e-06
2.97836e-06
5.67303e-06
1.00014e-05
9.99884e-06
2.97843e-06
4.71825e-06
4.7171e-06
2.97826e-06
9.99599e-06
5.67173e-06
4.71696e-06
9.99781e-06
2.97813e-06
1.0002e-05
2.2546e-05
2.25483e-05
2.25408e-05
2.25379e-05
1.00029e-05
1.27508e-05
1.13329e-05
4.89599e-06
4.24787e-06
1.13312e-05
4.89603e-06
1.27528e-05
1.27501e-05
4.24764e-06
1.13288e-05
4.89581e-06
1.13305e-05
4.89577e-06
1.2748e-05
1.27536e-05
1.13332e-05
4.89603e-06
4.24802e-06
1.27515e-05
1.13349e-05
4.89596e-06
2.29323e-05
9.63463e-06
7.27316e-06
2.2938e-05
7.2731e-06
2.29324e-05
7.27169e-06
9.63379e-06
2.2927e-05
7.27162e-06
1.27544e-05
4.24842e-06
1.13375e-05
4.89646e-06
1.27567e-05
1.13356e-05
4.89649e-06
1.27556e-05
1.13336e-05
4.89625e-06
4.24799e-06
1.27535e-05
1.13353e-05
4.89622e-06
2.29371e-05
9.63925e-06
7.2736e-06
7.27388e-06
2.29424e-05
2.2937e-05
7.27351e-06
9.63885e-06
2.29317e-05
7.27335e-06
1.27562e-05
4.24831e-06
1.13378e-05
4.89641e-06
1.1336e-05
4.89646e-06
1.27583e-05
1.9241e-05
1.92409e-05
4.7171e-06
5.67522e-06
2.97778e-06
1.00075e-05
1.00069e-05
4.71596e-06
2.97853e-06
4.72219e-06
2.97862e-06
5.67674e-06
1.00108e-05
2.9794e-06
1.00104e-05
4.72118e-06
4.72221e-06
2.98014e-06
1.00092e-05
5.67654e-06
2.97939e-06
4.723e-06
1.00104e-05
1.00114e-05
2.2566e-05
2.25622e-05
2.25599e-05
2.25632e-05
1.00094e-05
1.92411e-05
4.71738e-06
5.67138e-06
9.99443e-06
2.97927e-06
4.72047e-06
5.67399e-06
2.98092e-06
1.00006e-05
9.99684e-06
4.72114e-06
2.98075e-06
4.71672e-06
5.67287e-06
2.97941e-06
9.99679e-06
9.99322e-06
4.71731e-06
2.97918e-06
1.0002e-05
2.25363e-05
2.25376e-05
2.25273e-05
2.25282e-05
1.00044e-05
1.92254e-05
1.92437e-05
4.71997e-06
2.98051e-06
5.6772e-06
9.99887e-06
4.71937e-06
1.00038e-05
2.98075e-06
4.72177e-06
2.98177e-06
5.67936e-06
1.00105e-05
1.00059e-05
4.72208e-06
2.98163e-06
4.72605e-06
5.6805e-06
2.9829e-06
1.00139e-05
1.00095e-05
4.72652e-06
2.9828e-06
1.00122e-05
2.254e-05
2.25411e-05
1.001e-05
2.25503e-05
2.25519e-05
1.00171e-05
2.25649e-05
2.25632e-05
2.25536e-05
2.25551e-05
1.00188e-05
1.92431e-05
1.92429e-05
1.92439e-05
1.92451e-05
1.92466e-05
1.00082e-05
2.25615e-05
2.25638e-05
2.25569e-05
2.2558e-05
1.00084e-05
4.71961e-06
2.97859e-06
1.00027e-05
5.67485e-06
4.71911e-06
1.00056e-05
2.97863e-06
1.00063e-05
2.25484e-05
2.25499e-05
1.00057e-05
2.25568e-05
2.25563e-05
4.71851e-06
1.00074e-05
5.67539e-06
2.97752e-06
1.00058e-05
4.71743e-06
2.97798e-06
4.71942e-06
5.67713e-06
1.00118e-05
2.97962e-06
1.00082e-05
4.71972e-06
2.97963e-06
1.92541e-05
1.92536e-05
1.92571e-05
1.92567e-05
1.00099e-05
2.25618e-05
2.25641e-05
1.00097e-05
2.25663e-05
2.25679e-05
4.71755e-06
2.97744e-06
5.67678e-06
1.00117e-05
1.00103e-05
2.97767e-06
4.71725e-06
4.72096e-06
2.97894e-06
5.67821e-06
1.00161e-05
1.0015e-05
2.97944e-06
4.72082e-06
4.7173e-06
1.0008e-05
2.97767e-06
5.67606e-06
4.71759e-06
1.00098e-05
2.97746e-06
4.72047e-06
1.00128e-05
2.97979e-06
5.67786e-06
4.72053e-06
1.00146e-05
2.97937e-06
1.00109e-05
2.25701e-05
2.25708e-05
2.25664e-05
2.25675e-05
1.00109e-05
1.27618e-05
4.24887e-06
1.13431e-05
4.89678e-06
1.13412e-05
4.89683e-06
1.27639e-05
2.29474e-05
7.27402e-06
9.64112e-06
2.29424e-05
7.27368e-06
1.27611e-05
4.24854e-06
1.13385e-05
4.89664e-06
1.13404e-05
1.2759e-05
4.89659e-06
2.29471e-05
7.27372e-06
9.64125e-06
7.27406e-06
2.29518e-05
1.27664e-05
1.13439e-05
4.89783e-06
4.24937e-06
1.2764e-05
1.13459e-05
4.89779e-06
2.29543e-05
9.64543e-06
7.27749e-06
2.29595e-05
7.27762e-06
2.29542e-05
7.27682e-06
9.64485e-06
2.29489e-05
7.27672e-06
1.27671e-05
4.24957e-06
1.13486e-05
4.89806e-06
1.27695e-05
1.13466e-05
4.89811e-06
1.27666e-05
1.13438e-05
4.89705e-06
4.24904e-06
1.27645e-05
1.13457e-05
4.89702e-06
2.29543e-05
9.6422e-06
7.27422e-06
7.27433e-06
2.29585e-05
2.29554e-05
7.27409e-06
9.6421e-06
2.29511e-05
7.27381e-06
1.27672e-05
4.24929e-06
1.13483e-05
4.89734e-06
1.13464e-05
4.89734e-06
1.27692e-05
4.71445e-06
2.97775e-06
1.00073e-05
5.67368e-06
2.97704e-06
4.71576e-06
1.00074e-05
1.00041e-05
2.25563e-05
2.25596e-05
2.25567e-05
2.25601e-05
1.00011e-05
4.71984e-06
2.97858e-06
1.00104e-05
5.67465e-06
1.00103e-05
4.72102e-06
2.97785e-06
1.00054e-05
2.25636e-05
2.256e-05
2.25606e-05
1.00085e-05
2.25643e-05
4.71967e-06
1.00085e-05
5.67455e-06
2.97728e-06
1.00092e-05
2.97786e-06
4.71852e-06
4.71422e-06
5.67342e-06
1.00059e-05
2.97649e-06
2.97701e-06
1.00066e-05
4.71293e-06
1.92453e-05
1.92475e-05
1.9248e-05
9.99859e-06
2.25521e-05
2.25548e-05
1.00003e-05
2.25525e-05
2.25549e-05
4.71831e-06
2.97734e-06
5.67341e-06
1.00056e-05
2.97742e-06
1.00055e-05
4.71813e-06
4.71241e-06
5.67236e-06
1.00027e-05
2.97661e-06
4.71789e-06
1.00068e-05
2.97736e-06
5.67287e-06
2.97706e-06
4.7185e-06
1.00064e-05
4.71211e-06
1.00042e-05
2.97653e-06
5.67196e-06
4.71277e-06
1.00037e-05
2.97628e-06
9.99889e-06
2.25496e-05
2.25518e-05
1.92475e-05
1.92479e-05
1.27635e-05
1.13399e-05
4.8994e-06
4.25018e-06
1.13424e-05
4.89959e-06
1.27605e-05
2.29549e-05
7.27788e-06
9.64734e-06
7.27821e-06
2.29478e-05
1.27644e-05
4.2508e-06
1.13452e-05
4.90017e-06
1.13432e-05
4.90023e-06
1.27669e-05
2.29553e-05
9.64823e-06
7.27957e-06
7.27953e-06
2.2961e-05
1.27674e-05
4.8983e-06
1.13455e-05
4.2502e-06
1.27654e-05
4.89825e-06
1.13472e-05
2.29565e-05
9.64809e-06
7.27784e-06
2.29615e-05
7.27805e-06
2.29565e-05
7.27766e-06
9.64769e-06
2.29511e-05
7.27745e-06
1.27679e-05
4.25027e-06
4.89841e-06
1.13493e-05
1.27699e-05
4.89848e-06
1.13477e-05
1.27696e-05
1.13459e-05
4.90051e-06
4.25078e-06
1.27675e-05
1.13476e-05
4.90019e-06
2.29642e-05
9.65155e-06
7.27974e-06
7.28037e-06
2.29679e-05
2.29654e-05
7.28032e-06
9.65151e-06
2.29607e-05
7.28004e-06
1.27701e-05
4.25087e-06
1.13496e-05
4.8997e-06
1.13481e-05
4.9003e-06
1.27718e-05
2.29457e-05
7.275e-06
9.64129e-06
7.27464e-06
2.29407e-05
1.27623e-05
4.24932e-06
4.89725e-06
1.13451e-05
4.89737e-06
1.13428e-05
1.27646e-05
2.29448e-05
9.64154e-06
7.27499e-06
7.27536e-06
2.29496e-05
2.29446e-05
7.27155e-06
9.64057e-06
7.272e-06
2.29372e-05
1.27619e-05
4.2496e-06
1.13449e-05
4.89787e-06
1.13424e-05
4.89759e-06
1.2765e-05
2.29456e-05
9.64175e-06
7.27434e-06
7.27385e-06
2.29525e-05
1.27675e-05
4.89767e-06
1.1346e-05
4.24975e-06
1.27653e-05
4.89756e-06
1.13482e-05
2.29521e-05
9.64341e-06
7.27635e-06
2.29532e-05
7.27574e-06
9.64314e-06
2.29485e-05
7.2754e-06
1.27682e-05
4.25012e-06
4.89808e-06
1.1349e-05
1.27691e-05
1.13459e-05
4.89871e-06
4.25033e-06
1.27661e-05
1.13483e-05
4.89891e-06
2.29601e-05
9.64919e-06
7.27863e-06
2.29596e-05
7.27627e-06
9.6481e-06
2.29532e-05
7.27672e-06
1.27701e-05
4.25074e-06
1.13492e-05
4.89968e-06
4.72323e-06
2.98223e-06
1.00122e-05
5.68196e-06
2.9821e-06
4.72328e-06
1.00158e-05
4.728e-06
2.98331e-06
1.00155e-05
5.68292e-06
1.0019e-05
4.72786e-06
2.98315e-06
1.00261e-05
2.25835e-05
2.25852e-05
2.25767e-05
2.25782e-05
1.00262e-05
1.00237e-05
2.25676e-05
2.25661e-05
2.25747e-05
1.00228e-05
2.25765e-05
4.72865e-06
5.68392e-06
1.00226e-05
2.98253e-06
1.00202e-05
2.98324e-06
4.7283e-06
4.72374e-06
5.68284e-06
1.00194e-05
2.98158e-06
2.98225e-06
1.00169e-05
4.72323e-06
1.92565e-05
1.92636e-05
1.92642e-05
1.00255e-05
2.2584e-05
2.25853e-05
1.00268e-05
2.25879e-05
2.2589e-05
4.72683e-06
5.68276e-06
2.9808e-06
1.0024e-05
4.72144e-06
5.6819e-06
1.00208e-05
2.97998e-06
4.72724e-06
1.00232e-05
2.98237e-06
5.68301e-06
2.98124e-06
4.72839e-06
1.00242e-05
4.72185e-06
1.00199e-05
2.98143e-06
5.68219e-06
4.7232e-06
1.00209e-05
2.9803e-06
1.00248e-05
2.25868e-05
2.25878e-05
1.92628e-05
1.92632e-05
1.27642e-05
4.8999e-06
1.13408e-05
4.25056e-06
4.9001e-06
1.13438e-05
1.27608e-05
1.27653e-05
4.25108e-06
4.90074e-06
1.13473e-05
4.90079e-06
1.13449e-05
1.27679e-05
2.29541e-05
9.64817e-06
7.28134e-06
7.28136e-06
2.29599e-05
2.29464e-05
7.2731e-06
9.64241e-06
7.27363e-06
2.29377e-05
1.2764e-05
4.25038e-06
4.89843e-06
1.13469e-05
4.89816e-06
1.13444e-05
1.27671e-05
2.29479e-05
9.64393e-06
7.27584e-06
7.27548e-06
2.29555e-05
1.27708e-05
4.90107e-06
1.1348e-05
4.25137e-06
1.27686e-05
4.90079e-06
1.13499e-05
2.29645e-05
7.2825e-06
9.65224e-06
2.29594e-05
7.28218e-06
1.27705e-05
4.89934e-06
1.13477e-05
4.25108e-06
1.2768e-05
4.89947e-06
1.13497e-05
2.29628e-05
7.2775e-06
9.65046e-06
2.29563e-05
7.27776e-06
1.92464e-05
1.92478e-05
1.92501e-05
1.00132e-05
2.25598e-05
2.25598e-05
1.00119e-05
2.25675e-05
2.25657e-05
4.72235e-06
5.68073e-06
2.98115e-06
1.00147e-05
4.72241e-06
1.00093e-05
2.97988e-06
5.67918e-06
4.7192e-06
2.98123e-06
1.00133e-05
4.72202e-06
1.0014e-05
2.98174e-06
5.68036e-06
4.72347e-06
2.98097e-06
1.00164e-05
1.00167e-05
2.25692e-05
2.25676e-05
1.9261e-05
1.92597e-05
1.92623e-05
2.29179e-05
9.62984e-06
7.27027e-06
7.27034e-06
2.29226e-05
2.2919e-05
9.62953e-06
7.26962e-06
7.26928e-06
2.29154e-05
1.27483e-05
4.89453e-06
1.1332e-05
4.24708e-06
4.89459e-06
1.13301e-05
1.27503e-05
1.27477e-05
4.89466e-06
1.1328e-05
4.24686e-06
4.89436e-06
1.13295e-05
1.27462e-05
2.29195e-05
9.62988e-06
7.26742e-06
7.26765e-06
2.29147e-05
2.29198e-05
9.63085e-06
7.26999e-06
7.26941e-06
2.29264e-05
1.27484e-05
1.13319e-05
4.89547e-06
4.24726e-06
1.13299e-05
4.89517e-06
1.27508e-05
1.27478e-05
4.89439e-06
1.13278e-05
4.24684e-06
1.13293e-05
4.89444e-06
1.2746e-05
2.29282e-05
9.63389e-06
7.27184e-06
2.29225e-05
7.27195e-06
1.27547e-05
1.13386e-05
4.89618e-06
4.2484e-06
1.27576e-05
4.89603e-06
1.13362e-05
2.29289e-05
9.63507e-06
7.27398e-06
2.2936e-05
7.27377e-06
1.27537e-05
4.89512e-06
1.13328e-05
4.24768e-06
1.27511e-05
4.89522e-06
1.13351e-05
2.29362e-05
9.63805e-06
7.2722e-06
2.29278e-05
7.27302e-06
1.27559e-05
1.13388e-05
4.8984e-06
4.24905e-06
1.27592e-05
1.13362e-05
4.89797e-06
2.2938e-05
9.63973e-06
7.27603e-06
2.29466e-05
7.27533e-06
1.27547e-05
1.13328e-05
4.89646e-06
4.24819e-06
1.27518e-05
1.13351e-05
4.8969e-06
1.27558e-05
4.8967e-06
1.13385e-05
4.24826e-06
1.27583e-05
4.89681e-06
1.1336e-05
2.29361e-05
9.63906e-06
7.27424e-06
2.29413e-05
7.27456e-06
2.29283e-05
7.26964e-06
9.63295e-06
2.29359e-05
7.26919e-06
2.2927e-05
9.63143e-06
7.26701e-06
2.29199e-05
7.26732e-06
2.29184e-05
9.62969e-06
7.27002e-06
7.26947e-06
2.29261e-05
1.27462e-05
4.89524e-06
4.24642e-06
1.13305e-05
4.89493e-06
1.13282e-05
1.2749e-05
1.27454e-05
4.24536e-06
4.89198e-06
1.13301e-05
4.89179e-06
1.13278e-05
1.27479e-05
2.29379e-05
9.63902e-06
7.27697e-06
2.29463e-05
7.27639e-06
1.27554e-05
4.8988e-06
1.13394e-05
4.24885e-06
1.27594e-05
4.89835e-06
1.13361e-05
1.27539e-05
4.89656e-06
4.248e-06
1.13317e-05
1.27503e-05
4.89696e-06
1.13347e-05
2.29266e-05
7.27094e-06
9.63314e-06
2.29357e-05
7.27036e-06
1.27524e-05
4.24677e-06
4.89293e-06
1.13312e-05
1.27491e-05
4.89331e-06
1.13341e-05
2.29247e-05
9.63156e-06
7.26777e-06
2.29169e-05
7.26824e-06
4.71466e-06
2.9772e-06
9.9993e-06
5.67161e-06
4.7149e-06
2.97698e-06
9.99534e-06
9.99669e-06
2.25409e-05
2.25442e-05
9.998e-06
2.25369e-05
2.25333e-05
4.71508e-06
2.97834e-06
9.99893e-06
5.67093e-06
4.71581e-06
2.97811e-06
9.99471e-06
9.9931e-06
2.25264e-05
2.25258e-05
9.99203e-06
2.25345e-05
2.25322e-05
4.71206e-06
5.66835e-06
9.98776e-06
2.97585e-06
4.70997e-06
2.97692e-06
9.99198e-06
4.71397e-06
5.66993e-06
9.99183e-06
2.97687e-06
4.71545e-06
2.97623e-06
9.99451e-06
1.92313e-05
1.92288e-05
1.92305e-05
2.54207e-06
1.6666e-06
1.54761e-06
1.66848e-06
2.29767e-06
2.54256e-06
1.5489e-06
1.54766e-06
1.66678e-06
2.54199e-06
1.66853e-06
2.29757e-06
1.54892e-06
2.54232e-06
4.9125e-07
4.90989e-07
6.9034e-07
4.91869e-07
4.922e-07
2.95139e-07
2.93836e-07
2.83041e-06
1.97197e-06
1.97268e-06
1.42943e-06
1.97221e-06
1.97136e-06
2.83043e-06
2.83029e-06
1.97169e-06
1.42765e-06
1.97172e-06
1.97046e-06
2.83122e-06
1.97045e-06
2.8298e-06
1.43015e-06
1.96946e-06
1.97025e-06
1.97041e-06
1.97135e-06
2.8293e-06
2.82863e-06
1.97039e-06
1.97039e-06
1.42694e-06
1.9693e-06
2.82951e-06
1.96931e-06
2.82846e-06
1.42958e-06
1.96963e-06
1.96967e-06
1.97027e-06
1.9703e-06
2.82828e-06
1.66727e-06
2.5427e-06
1.54946e-06
2.29766e-06
2.54234e-06
1.54831e-06
1.6689e-06
1.6677e-06
1.54963e-06
2.54373e-06
2.29799e-06
1.54841e-06
2.5433e-06
1.66958e-06
2.83392e-06
1.97398e-06
1.97428e-06
1.4303e-06
1.9729e-06
2.83436e-06
1.97316e-06
2.83143e-06
1.42989e-06
1.97123e-06
1.9711e-06
1.84864e-06
3.6559e-06
2.22394e-06
3.02643e-06
2.22448e-06
3.02674e-06
1.84749e-06
3.02662e-06
3.65634e-06
1.84815e-06
3.65635e-06
2.22554e-06
2.22522e-06
3.02634e-06
1.84784e-06
2.22456e-06
3.65613e-06
3.02713e-06
2.22408e-06
1.84908e-06
3.02683e-06
1.84909e-06
2.2268e-06
3.65908e-06
3.02816e-06
2.22639e-06
1.85026e-06
3.02799e-06
2.82926e-06
1.97054e-06
1.97149e-06
1.42994e-06
2.82924e-06
1.97202e-06
1.97108e-06
6.90716e-07
4.91962e-07
6.91006e-07
4.92553e-07
4.92826e-07
2.95417e-07
2.94052e-07
6.90705e-07
4.91427e-07
6.91774e-07
4.9272e-07
4.92957e-07
2.95306e-07
2.93794e-07
6.88858e-07
4.90835e-07
6.89302e-07
4.91567e-07
4.91935e-07
2.95117e-07
2.93846e-07
6.90945e-07
4.93637e-07
4.93789e-07
4.92798e-07
4.93063e-07
2.96481e-07
2.97796e-07
6.9016e-07
4.93393e-07
4.93892e-07
4.92488e-07
4.92911e-07
2.9645e-07
2.97785e-07
6.91095e-07
4.93786e-07
4.93184e-07
4.93682e-07
2.96783e-07
2.98073e-07
6.92628e-07
4.94816e-07
4.93795e-07
4.94108e-07
2.96839e-07
2.983e-07
1.66582e-06
1.54842e-06
2.54195e-06
2.29705e-06
2.54156e-06
1.5473e-06
1.66755e-06
1.84675e-06
2.22421e-06
3.02715e-06
3.6569e-06
2.22342e-06
3.02656e-06
1.84825e-06
1.66731e-06
2.29739e-06
2.54166e-06
1.5473e-06
2.54193e-06
1.54838e-06
1.6657e-06
1.84806e-06
3.65706e-06
3.02652e-06
2.22322e-06
2.22386e-06
3.02699e-06
1.84672e-06
1.84983e-06
2.22723e-06
3.03003e-06
3.66111e-06
2.22656e-06
3.02975e-06
1.85122e-06
1.66842e-06
1.55007e-06
2.54418e-06
2.29863e-06
1.54909e-06
2.54395e-06
1.67007e-06
1.66974e-06
2.29887e-06
1.54874e-06
2.54364e-06
1.55013e-06
2.54423e-06
1.66758e-06
1.851e-06
3.66157e-06
3.0298e-06
2.22594e-06
2.227e-06
3.03039e-06
1.84906e-06
2.83156e-06
1.43169e-06
1.97205e-06
1.97281e-06
1.97273e-06
1.97328e-06
2.83153e-06
2.82905e-06
1.9704e-06
1.42681e-06
1.97157e-06
1.97068e-06
1.96951e-06
2.82955e-06
2.82935e-06
1.96971e-06
1.42874e-06
1.97063e-06
2.82908e-06
1.9714e-06
1.97034e-06
2.82927e-06
1.97072e-06
1.4276e-06
1.97144e-06
2.82952e-06
1.97073e-06
1.97006e-06
2.82982e-06
1.42951e-06
1.97034e-06
1.97082e-06
1.97155e-06
2.82957e-06
1.97104e-06
1.66833e-06
1.54769e-06
2.54189e-06
2.29747e-06
2.54232e-06
1.5489e-06
1.66666e-06
1.84744e-06
2.22531e-06
3.65574e-06
3.02697e-06
3.0263e-06
2.22454e-06
1.84901e-06
1.84876e-06
2.22435e-06
3.02617e-06
3.65604e-06
3.02668e-06
2.225e-06
1.84741e-06
1.66689e-06
1.54927e-06
2.29738e-06
2.54259e-06
2.54213e-06
1.54799e-06
1.66871e-06
1.6687e-06
1.54769e-06
2.54209e-06
2.29752e-06
2.54255e-06
1.54899e-06
1.66683e-06
1.66737e-06
1.54942e-06
2.29746e-06
2.54291e-06
2.54244e-06
1.5481e-06
1.66926e-06
1.66664e-06
1.54867e-06
2.54214e-06
2.29693e-06
1.66824e-06
2.54174e-06
1.54753e-06
1.84903e-06
2.22421e-06
3.65669e-06
3.02649e-06
2.22479e-06
3.02688e-06
1.84761e-06
1.8476e-06
2.22486e-06
3.02671e-06
3.65603e-06
2.22427e-06
1.8489e-06
3.0263e-06
1.66821e-06
1.54736e-06
2.29707e-06
2.54162e-06
2.54201e-06
1.54854e-06
1.66652e-06
1.6663e-06
1.5486e-06
2.54219e-06
2.29685e-06
1.66816e-06
2.54172e-06
1.54734e-06
1.84851e-06
2.22373e-06
3.6579e-06
3.02654e-06
3.02727e-06
2.22472e-06
1.84687e-06
1.84738e-06
2.22538e-06
3.02764e-06
3.65769e-06
1.84902e-06
3.02697e-06
2.22437e-06
1.66765e-06
1.547e-06
2.29694e-06
2.54135e-06
2.54182e-06
1.54825e-06
1.6658e-06
2.83038e-06
1.42919e-06
1.96981e-06
1.96981e-06
1.97101e-06
2.82943e-06
1.971e-06
2.83187e-06
1.97261e-06
1.43076e-06
1.97218e-06
2.83184e-06
1.97275e-06
1.97318e-06
2.83395e-06
1.43181e-06
1.97321e-06
1.97352e-06
2.83385e-06
1.9742e-06
1.97389e-06
2.83296e-06
1.97378e-06
1.42979e-06
1.97343e-06
2.833e-06
1.97316e-06
1.97283e-06
2.82977e-06
1.97126e-06
1.97166e-06
1.42822e-06
2.83005e-06
1.97076e-06
1.97047e-06
2.83016e-06
1.4301e-06
1.97e-06
1.97117e-06
2.82979e-06
1.97102e-06
1.97186e-06
2.82954e-06
1.42849e-06
1.97066e-06
1.97183e-06
2.83002e-06
1.96974e-06
1.97075e-06
1.66747e-06
2.29672e-06
2.54143e-06
1.54658e-06
2.54179e-06
1.54784e-06
1.66566e-06
1.8474e-06
2.22472e-06
3.02704e-06
3.6571e-06
3.02671e-06
1.8489e-06
2.22404e-06
1.66612e-06
1.54827e-06
2.29654e-06
2.54189e-06
2.5415e-06
1.66794e-06
1.54695e-06
1.84865e-06
3.02689e-06
3.65752e-06
2.22372e-06
3.02727e-06
2.22444e-06
1.84716e-06
1.66672e-06
2.29649e-06
2.54081e-06
1.54629e-06
2.54119e-06
1.54754e-06
1.66494e-06
1.8464e-06
2.22411e-06
3.02682e-06
3.65682e-06
1.84802e-06
3.02609e-06
2.22323e-06
1.66532e-06
1.5479e-06
2.29634e-06
2.54147e-06
1.66717e-06
2.54102e-06
1.54662e-06
1.8476e-06
3.02575e-06
3.65702e-06
2.22295e-06
3.02639e-06
1.84606e-06
2.22365e-06
1.66537e-06
2.54176e-06
1.54752e-06
2.29643e-06
1.66707e-06
2.5414e-06
1.54636e-06
1.84833e-06
2.22336e-06
3.65828e-06
3.02718e-06
2.22401e-06
3.02762e-06
1.84693e-06
1.84701e-06
3.02747e-06
2.22419e-06
3.65778e-06
2.22353e-06
1.84847e-06
3.02706e-06
1.6669e-06
2.29675e-06
2.54145e-06
1.54642e-06
2.54178e-06
1.54744e-06
1.66531e-06
1.66482e-06
2.54111e-06
1.54727e-06
2.29621e-06
1.66644e-06
2.54085e-06
1.54616e-06
1.84768e-06
2.22307e-06
3.65679e-06
3.02589e-06
3.02618e-06
2.22355e-06
1.84658e-06
1.84607e-06
3.0261e-06
2.22346e-06
3.65636e-06
1.84739e-06
3.0256e-06
2.22289e-06
1.66651e-06
2.29655e-06
2.54104e-06
1.54639e-06
2.54125e-06
1.54732e-06
1.66511e-06
2.82876e-06
1.4286e-06
1.96902e-06
1.96904e-06
1.96995e-06
1.96994e-06
2.82804e-06
2.82791e-06
1.4274e-06
1.96981e-06
1.96983e-06
1.96916e-06
2.82827e-06
1.96919e-06
1.84827e-06
3.028e-06
2.22488e-06
3.6576e-06
3.02768e-06
2.22438e-06
1.84958e-06
1.6687e-06
2.29781e-06
2.54212e-06
1.54766e-06
2.54258e-06
1.54919e-06
1.66669e-06
1.84966e-06
3.65845e-06
3.02775e-06
2.22451e-06
3.02825e-06
2.22509e-06
1.84806e-06
1.84927e-06
3.02953e-06
2.22724e-06
3.6611e-06
3.02915e-06
2.2265e-06
1.8509e-06
1.66891e-06
2.29809e-06
1.54767e-06
2.54277e-06
1.54923e-06
2.54347e-06
1.66672e-06
1.8503e-06
3.66156e-06
3.02882e-06
2.22579e-06
3.0296e-06
1.84833e-06
2.2269e-06
1.66593e-06
2.54223e-06
1.54849e-06
2.29677e-06
1.66794e-06
2.54168e-06
1.547e-06
1.84854e-06
2.22366e-06
3.65867e-06
3.02686e-06
2.22457e-06
3.02763e-06
1.84688e-06
1.8474e-06
3.02808e-06
2.22498e-06
3.6584e-06
2.22419e-06
1.84914e-06
3.02732e-06
1.66724e-06
2.29681e-06
2.54117e-06
1.54633e-06
2.54173e-06