/*--------------------------------*- C++ -*----------------------------------*\
| =========                 |                                                 |
| \\      /  F ield         | OpenFOAM: The Open Source CFD Toolbox           |
|  \\    /   O peration     | Version:  v2006                                 |
|   \\  /    A nd           | Website:  www.openfoam.com                      |
|    \\/     M anipulation  |                                                 |
\*---------------------------------------------------------------------------*/
FoamFile
{
    version     2.0;
    format      ascii;
    class       volScalarField;
    location    "625";
    object      k;
}
// * * * * * * * * * * * * * * * * * * * * * * * * * * * * * * * * * * * * * //

dimensions      [0 2 -2 0 0 0 0];


internalField   nonuniform List<scalar> 
14361
(
5.29031e-05
4.85355e-05
6.52998e-05
6.12104e-05
7.04363e-05
7.1618e-05
7.38811e-05
6.89195e-05
7.47828e-05
7.37092e-05
7.37043e-05
7.47842e-05
7.47434e-05
6.5891e-05
7.37089e-05
7.04327e-05
6.58932e-05
7.47453e-05
7.37042e-05
9.56464e-05
7.39119e-05
7.39192e-05
7.39118e-05
9.56624e-05
7.3919e-05
7.16204e-05
7.21157e-05
8.01967e-05
7.38812e-05
8.01982e-05
7.21085e-05
7.22999e-05
6.89287e-05
7.19527e-05
7.20743e-05
7.19592e-05
7.22945e-05
7.20801e-05
6.66398e-05
6.03995e-05
6.03989e-05
6.66385e-05
5.82473e-05
6.11153e-05
6.47431e-05
6.53023e-05
5.82509e-05
6.11156e-05
6.47493e-05
5.71987e-05
6.12243e-05
5.59858e-05
6.28742e-05
5.72057e-05
5.5984e-05
6.28842e-05
5.27061e-05
5.4745e-05
5.28532e-05
5.27053e-05
5.45819e-05
4.14977e-05
4.13301e-05
7.01181e-05
7.15863e-05
6.50774e-05
6.11078e-05
7.38388e-05
6.88337e-05
6.51274e-05
6.11107e-05
7.38727e-05
6.88399e-05
7.16196e-05
7.04362e-05
7.04351e-05
7.16211e-05
4.84434e-05
6.52955e-05
6.12023e-05
4.838e-05
6.51647e-05
6.11828e-05
7.38819e-05
6.89155e-05
7.38795e-05
6.8896e-05
7.02111e-05
7.02476e-05
7.1623e-05
7.1625e-05
6.5597e-05
7.36251e-05
7.4362e-05
7.38372e-05
7.38466e-05
9.51169e-05
8.00278e-05
7.20903e-05
7.18332e-05
7.20685e-05
7.22834e-05
8.00383e-05
7.21075e-05
7.2071e-05
7.18452e-05
7.22916e-05
6.58897e-05
7.37155e-05
7.4781e-05
6.58857e-05
7.37148e-05
7.47429e-05
7.39181e-05
7.39257e-05
9.56624e-05
7.21037e-05
7.38793e-05
8.01926e-05
8.01801e-05
7.21125e-05
7.22865e-05
6.88994e-05
7.19497e-05
7.20723e-05
7.19343e-05
7.20658e-05
7.22932e-05
7.20999e-05
7.38701e-05
8.00791e-05
8.00608e-05
7.21117e-05
7.22839e-05
6.8878e-05
7.18878e-05
7.20722e-05
7.18681e-05
7.20651e-05
7.2292e-05
6.56461e-05
7.36945e-05
7.44586e-05
7.44574e-05
6.56789e-05
7.02278e-05
7.3702e-05
7.44886e-05
6.56419e-05
7.36889e-05
7.3894e-05
7.38876e-05
9.52549e-05
7.16145e-05
6.03755e-05
6.03762e-05
6.66299e-05
6.63534e-05
5.45671e-05
6.01747e-05
6.01857e-05
6.63829e-05
6.01589e-05
6.01669e-05
3.5186e-05
3.51069e-05
6.08918e-05
6.45687e-05
5.80768e-05
6.27448e-05
5.58696e-05
5.70687e-05
6.09204e-05
6.45859e-05
5.80851e-05
5.58668e-05
6.2753e-05
5.70675e-05
5.82159e-05
6.10957e-05
6.52789e-05
6.47369e-05
5.82173e-05
6.10863e-05
6.47144e-05
5.71593e-05
6.11746e-05
5.59384e-05
6.2868e-05
5.71571e-05
5.59336e-05
6.28431e-05
5.81103e-05
6.09531e-05
6.5138e-05
6.46385e-05
6.46105e-05
6.09355e-05
5.81208e-05
5.71024e-05
6.11523e-05
5.59156e-05
6.28126e-05
5.59083e-05
6.27819e-05
5.71041e-05
6.88609e-05
6.11555e-05
6.88463e-05
6.11438e-05
7.21862e-05
6.8874e-05
7.187e-05
7.19692e-05
7.18834e-05
7.19639e-05
7.21909e-05
7.21824e-05
6.88595e-05
7.19682e-05
7.18273e-05
7.19627e-05
7.18406e-05
7.21877e-05
4.12448e-05
4.83251e-05
5.2623e-05
5.43243e-05
7.01222e-05
7.01128e-05
5.26996e-05
4.83225e-05
5.26552e-05
4.83527e-05
5.45795e-05
7.15434e-05
7.00858e-05
7.15452e-05
7.01467e-05
5.45721e-05
5.26392e-05
5.27498e-05
5.27177e-05
5.27334e-05
5.4623e-05
7.15707e-05
5.45627e-05
6.10332e-05
6.10341e-05
5.27108e-05
5.28562e-05
6.88021e-05
5.24983e-05
6.87711e-05
5.27288e-05
5.45004e-05
7.15862e-05
4.81931e-05
7.38366e-05
6.87222e-05
7.15632e-05
4.1225e-05
6.50581e-05
5.80748e-05
6.50397e-05
6.50037e-05
5.26961e-05
5.24967e-05
6.87635e-05
5.26106e-05
4.81948e-05
7.37829e-05
6.87056e-05
5.43026e-05
7.1558e-05
6.88217e-05
7.37653e-05
7.37751e-05
6.88314e-05
7.15074e-05
7.15381e-05
6.88352e-05
7.38053e-05
6.88192e-05
7.38316e-05
7.15673e-05
7.15758e-05
6.87697e-05
7.38116e-05
6.88416e-05
7.38428e-05
3.49924e-05
3.48644e-05
3.50036e-05
4.13898e-05
4.14248e-05
5.27381e-05
6.10609e-05
6.51684e-05
6.10908e-05
5.27393e-05
6.51583e-05
4.8355e-05
7.15843e-05
7.16096e-05
4.82478e-05
6.51011e-05
6.09863e-05
6.10929e-05
5.26736e-05
4.82648e-05
6.52128e-05
7.00699e-05
7.00752e-05
5.43822e-05
7.01342e-05
7.01612e-05
7.15089e-05
7.15232e-05
7.15235e-05
7.15077e-05
7.01828e-05
5.459e-05
5.45104e-05
7.0199e-05
7.01471e-05
7.15511e-05
7.15251e-05
7.15259e-05
7.15554e-05
5.45136e-05
7.01246e-05
5.44587e-05
7.01336e-05
7.01367e-05
6.88247e-05
6.88277e-05
5.26814e-05
4.83219e-05
4.83147e-05
6.11069e-05
6.513e-05
6.50862e-05
6.11167e-05
4.82895e-05
6.11074e-05
6.1107e-05
6.88176e-05
7.38005e-05
7.37781e-05
6.8819e-05
6.88219e-05
7.38171e-05
7.38035e-05
6.88264e-05
4.83282e-05
5.26437e-05
4.83323e-05
6.11002e-05
6.50602e-05
6.50701e-05
6.10964e-05
5.27251e-05
5.27426e-05
4.83718e-05
6.11035e-05
6.51708e-05
6.51515e-05
6.11061e-05
7.1568e-05
7.1552e-05
5.45984e-05
7.03018e-05
7.03019e-05
7.0277e-05
7.15711e-05
7.00763e-05
7.00679e-05
7.00629e-05
5.44464e-05
7.15395e-05
7.15806e-05
5.44522e-05
7.00891e-05
5.44547e-05
7.02096e-05
7.02042e-05
7.15825e-05
7.15548e-05
7.15835e-05
7.15595e-05
7.15877e-05
5.44695e-05
7.01454e-05
5.4477e-05
7.01957e-05
7.02212e-05
7.16083e-05
7.15861e-05
7.16086e-05
7.15897e-05
5.45219e-05
7.02332e-05
7.02668e-05
7.02087e-05
7.02385e-05
6.88371e-05
7.38184e-05
6.88268e-05
7.38249e-05
4.83405e-05
6.11014e-05
6.50614e-05
5.26434e-05
6.10931e-05
6.50946e-05
4.8355e-05
4.83886e-05
6.11095e-05
6.51707e-05
5.27509e-05
6.11037e-05
6.516e-05
4.84004e-05
6.88353e-05
7.3855e-05
7.38355e-05
6.88388e-05
6.88357e-05
7.38304e-05
7.3825e-05
6.88343e-05
6.11006e-05
5.26674e-05
6.51364e-05
4.84091e-05
6.5103e-05
4.83819e-05
6.11078e-05
6.11065e-05
5.27479e-05
6.50815e-05
4.84173e-05
6.51432e-05
4.84122e-05
6.11056e-05
7.0303e-05
7.03024e-05
5.4617e-05
7.02552e-05
7.0262e-05
7.15786e-05
7.1584e-05
7.15735e-05
5.46281e-05
7.01193e-05
7.02249e-05
7.02252e-05
7.15764e-05
6.50391e-05
5.26191e-05
4.82941e-05
6.10933e-05
5.26219e-05
6.51099e-05
4.82989e-05
6.87749e-05
7.38359e-05
6.8858e-05
7.38638e-05
4.83012e-05
5.26381e-05
6.51028e-05
6.11096e-05
5.26963e-05
4.83189e-05
6.52149e-05
6.8852e-05
7.3861e-05
7.38463e-05
6.88907e-05
6.11097e-05
5.26454e-05
6.5166e-05
4.83999e-05
6.5124e-05
4.83269e-05
6.11711e-05
6.88695e-05
7.3873e-05
7.38664e-05
6.8912e-05
6.11273e-05
5.2785e-05
4.84602e-05
6.52959e-05
4.83799e-05
6.52384e-05
6.11914e-05
7.38185e-05
6.8828e-05
7.38281e-05
4.82202e-05
6.1026e-05
6.49742e-05
6.107e-05
5.25217e-05
4.82508e-05
6.50508e-05
7.37998e-05
6.88139e-05
7.38362e-05
6.10944e-05
5.27378e-05
4.84041e-05
6.51409e-05
4.83868e-05
6.88284e-05
7.3829e-05
6.10779e-05
5.26042e-05
4.83911e-05
4.83258e-05
6.50648e-05
6.88183e-05
7.38422e-05
7.02474e-05
7.02445e-05
5.45942e-05
7.03604e-05
7.03573e-05
7.16106e-05
7.16102e-05
5.46736e-05
7.03909e-05
7.03857e-05
7.16112e-05
5.24833e-05
6.09625e-05
6.4953e-05
6.10646e-05
5.24992e-05
4.82037e-05
6.50647e-05
6.87509e-05
6.88532e-05
7.38679e-05
7.38068e-05
6.88254e-05
7.38487e-05
6.1116e-05
5.27758e-05
4.83335e-05
6.52345e-05
6.10891e-05
5.25793e-05
4.82578e-05
6.5086e-05
6.88662e-05
7.38712e-05
6.88403e-05
7.38543e-05
7.1557e-05
7.15912e-05
7.15972e-05
5.44604e-05
7.01541e-05
7.01822e-05
7.15949e-05
7.16003e-05
7.37706e-05
7.37616e-05
6.87765e-05
6.88308e-05
3.49306e-05
3.4956e-05
3.48525e-05
3.49314e-05
4.11995e-05
6.49922e-05
5.26264e-05
6.09967e-05
4.82812e-05
6.45998e-05
5.27166e-05
5.2679e-05
6.10663e-05
4.8347e-05
6.11273e-05
4.83362e-05
7.37543e-05
7.37786e-05
6.87637e-05
6.88166e-05
6.50041e-05
5.26688e-05
5.264e-05
6.1055e-05
4.83351e-05
6.1115e-05
4.83237e-05
7.37747e-05
6.87612e-05
7.38049e-05
6.87591e-05
5.26457e-05
6.10308e-05
6.50325e-05
5.26226e-05
4.82968e-05
6.10419e-05
4.83117e-05
7.37857e-05
6.8762e-05
7.38287e-05
6.87506e-05
6.10282e-05
4.82993e-05
5.26259e-05
5.26272e-05
6.50733e-05
6.10331e-05
4.83059e-05
4.82941e-05
5.27227e-05
6.10566e-05
6.51687e-05
4.82789e-05
6.87967e-05
7.38169e-05
4.82141e-05
6.10213e-05
6.49614e-05
5.25075e-05
4.82162e-05
6.49497e-05
7.37925e-05
7.37558e-05
6.09867e-05
4.82462e-05
7.37753e-05
6.87165e-05
6.87053e-05
4.82465e-05
6.49929e-05
5.26106e-05
6.5072e-05
6.0975e-05
6.09744e-05
4.82558e-05
5.24834e-05
6.09538e-05
6.49353e-05
6.09602e-05
5.25014e-05
4.82118e-05
6.49236e-05
7.3829e-05
6.87323e-05
6.87058e-05
7.37976e-05
6.86902e-05
7.37541e-05
7.00506e-05
7.00522e-05
5.43476e-05
7.00219e-05
7.0003e-05
7.15519e-05
7.15144e-05
7.15177e-05
7.44287e-05
7.01365e-05
6.5592e-05
7.35802e-05
7.35764e-05
7.44064e-05
6.56099e-05
7.43746e-05
6.55652e-05
7.01108e-05
7.35835e-05
7.43829e-05
7.35941e-05
6.55565e-05
7.15605e-05
7.43608e-05
6.55101e-05
7.01245e-05
7.36108e-05
7.43271e-05
7.36334e-05
6.55192e-05
7.15624e-05
7.44085e-05
6.55521e-05
7.36224e-05
7.01759e-05
7.43812e-05
7.36388e-05
6.55686e-05
7.15762e-05
7.22499e-05
7.18378e-05
7.20191e-05
6.88157e-05
7.18425e-05
7.20293e-05
7.22409e-05
7.22455e-05
7.20165e-05
7.17521e-05
6.87907e-05
7.20275e-05
7.17744e-05
7.22333e-05
7.15987e-05
7.20839e-05
8.0037e-05
7.38517e-05
8.00738e-05
7.20692e-05
7.22519e-05
7.17124e-05
7.20219e-05
6.87638e-05
7.17532e-05
7.20353e-05
7.22378e-05
7.15792e-05
7.22167e-05
7.20118e-05
7.17439e-05
6.8753e-05
7.22285e-05
7.20009e-05
7.17333e-05
7.20471e-05
7.38009e-05
7.99187e-05
7.20282e-05
7.99451e-05
7.2218e-05
7.16965e-05
7.2016e-05
6.86903e-05
7.22321e-05
7.16812e-05
7.20023e-05
7.15402e-05
7.22028e-05
7.19908e-05
7.18279e-05
6.88223e-05
7.19838e-05
7.18295e-05
7.221e-05
7.20187e-05
7.37682e-05
8.00319e-05
8.00269e-05
7.20088e-05
7.20172e-05
8.00131e-05
7.37699e-05
8.00162e-05
7.20278e-05
7.22009e-05
6.88293e-05
7.19746e-05
7.18427e-05
7.19813e-05
7.18394e-05
7.21945e-05
7.15192e-05
7.1523e-05
7.22476e-05
6.88274e-05
7.20356e-05
7.18398e-05
7.20271e-05
7.18304e-05
7.22568e-05
7.2062e-05
8.00172e-05
7.38166e-05
7.20502e-05
8.00288e-05
7.22444e-05
6.88251e-05
7.20152e-05
7.18216e-05
7.22351e-05
7.20237e-05
7.1828e-05
7.20622e-05
8.00434e-05
7.38212e-05
8.00332e-05
7.20735e-05
7.1573e-05
7.15711e-05
7.22493e-05
7.20203e-05
7.17804e-05
6.87964e-05
7.18047e-05
7.20305e-05
7.22387e-05
7.20626e-05
8.00008e-05
7.38261e-05
8.003e-05
7.20483e-05
7.22527e-05
6.88109e-05
7.18449e-05
7.20425e-05
7.18173e-05
7.20341e-05
7.22616e-05
7.2064e-05
7.38316e-05
8.00657e-05
8.00422e-05
7.20767e-05
7.15973e-05
7.15996e-05
7.43196e-05
6.54396e-05
7.36159e-05
7.01078e-05
6.54769e-05
7.36358e-05
7.42954e-05
9.51259e-05
7.38206e-05
7.38236e-05
7.38381e-05
7.38359e-05
9.51056e-05
7.43245e-05
6.5455e-05
7.36017e-05
7.00935e-05
6.5487e-05
7.36211e-05
7.42881e-05
9.51474e-05
7.38549e-05
7.38523e-05
7.38407e-05
7.38388e-05
9.51608e-05
7.43366e-05
7.01153e-05
7.36473e-05
6.55411e-05
6.55024e-05
7.36295e-05
7.43664e-05
7.43545e-05
7.01294e-05
7.36612e-05
6.55531e-05
6.55089e-05
7.36438e-05
7.43822e-05
7.15149e-05
7.15152e-05
7.15144e-05
7.15138e-05
7.44673e-05
7.01584e-05
6.56699e-05
7.35766e-05
7.3577e-05
6.56485e-05
7.44961e-05
9.51986e-05
7.37929e-05
7.37973e-05
7.37898e-05
7.37845e-05
9.51766e-05
7.44558e-05
6.56773e-05
7.01796e-05
7.3574e-05
7.35746e-05
6.56587e-05
7.44771e-05
7.4427e-05
6.56078e-05
7.35769e-05
7.01612e-05
7.35739e-05
7.44102e-05
6.56231e-05
9.52216e-05
7.37806e-05
7.37879e-05
7.37925e-05
7.3786e-05
9.52591e-05
7.15386e-05
7.15356e-05
7.15378e-05
7.15414e-05
7.43701e-05
7.0112e-05
6.55485e-05
7.36151e-05
7.36e-05
7.4372e-05
6.55477e-05
9.51637e-05
7.37946e-05
7.37978e-05
9.51675e-05
7.38097e-05
7.38083e-05
7.43832e-05
6.55616e-05
7.01311e-05
7.36062e-05
7.35931e-05
6.55616e-05
7.43865e-05
7.43863e-05
6.5581e-05
7.35794e-05
7.0132e-05
7.43924e-05
7.35881e-05
6.55728e-05
9.51681e-05
7.38303e-05
7.383e-05
7.38132e-05
7.38125e-05
9.51902e-05
7.22073e-05
7.19926e-05
7.18361e-05
6.88238e-05
7.19853e-05
7.18316e-05
7.22151e-05
7.22047e-05
6.88277e-05
7.19752e-05
7.18291e-05
7.19826e-05
7.18329e-05
7.21967e-05
7.22204e-05
7.19936e-05
7.18218e-05
6.88185e-05
7.22124e-05
7.2001e-05
7.18225e-05
7.20381e-05
7.37903e-05
8.00131e-05
7.20499e-05
8.00084e-05
7.20382e-05
8.00079e-05
7.3786e-05
7.20271e-05
8.00084e-05
7.22233e-05
6.88161e-05
7.2012e-05
7.1822e-05
7.2232e-05
7.2004e-05
7.18191e-05
7.22254e-05
7.19954e-05
7.18354e-05
6.88241e-05
7.22176e-05
7.20028e-05
7.18406e-05
7.20453e-05
7.38122e-05
8.00641e-05
8.00563e-05
7.20563e-05
7.2045e-05
8.00414e-05
7.38102e-05
7.20339e-05
8.00528e-05
7.22279e-05
6.88228e-05
7.20133e-05
7.18458e-05
7.20057e-05
7.18405e-05
7.22358e-05
7.15611e-05
7.15608e-05
7.45825e-05
7.02958e-05
6.57377e-05
7.36477e-05
7.36446e-05
7.45932e-05
6.57243e-05
7.46195e-05
6.5742e-05
7.02983e-05
7.36517e-05
6.57321e-05
7.365e-05
7.46282e-05
7.46097e-05
6.57071e-05
7.36438e-05
7.02892e-05
6.5726e-05
7.45873e-05
7.36497e-05
9.5485e-05
7.38728e-05
7.38606e-05
7.38554e-05
7.38671e-05
9.54901e-05
7.15638e-05
7.43282e-05
7.00676e-05
7.35774e-05
6.55363e-05
7.43189e-05
7.00648e-05
6.55111e-05
7.36011e-05
7.3584e-05
7.43193e-05
6.5516e-05
7.42839e-05
7.00544e-05
6.54913e-05
7.35958e-05
7.35769e-05
7.42854e-05
6.54933e-05
9.50432e-05
7.38038e-05
7.3811e-05
7.37847e-05
7.37902e-05
9.50629e-05
7.15234e-05
7.15653e-05
7.43345e-05
6.54926e-05
7.01296e-05
7.36064e-05
7.42954e-05
7.36304e-05
6.55072e-05
7.43769e-05
6.55823e-05
7.01664e-05
7.36634e-05
7.36412e-05
7.4436e-05
6.55296e-05
7.43987e-05
7.01627e-05
6.55862e-05
7.36653e-05
7.36438e-05
7.44592e-05
6.55384e-05
9.51713e-05
7.38112e-05
7.38188e-05
9.51188e-05
7.38333e-05
7.38423e-05
9.52372e-05
7.38713e-05
7.38617e-05
7.38406e-05
7.38494e-05
9.52961e-05
7.15673e-05
7.15681e-05
7.15713e-05
7.15731e-05
7.15762e-05
9.52819e-05
7.38637e-05
7.38642e-05
7.38518e-05
7.38533e-05
9.52979e-05
7.44261e-05
6.55633e-05
7.36129e-05
7.01636e-05
7.43969e-05
7.36285e-05
6.55739e-05
9.52583e-05
7.38345e-05
7.38341e-05
9.5223e-05
7.38496e-05
7.38509e-05
7.44386e-05
7.36476e-05
7.01792e-05
6.56067e-05
7.36347e-05
7.44641e-05
6.55809e-05
7.44387e-05
7.01985e-05
7.36574e-05
6.56251e-05
7.36447e-05
7.44708e-05
6.5589e-05
7.15988e-05
7.1597e-05
7.16004e-05
7.15993e-05
9.53271e-05
7.38649e-05
7.38645e-05
9.53173e-05
7.38747e-05
7.38727e-05
7.44958e-05
6.56711e-05
7.02284e-05
7.36711e-05
7.3664e-05
6.56562e-05
7.45011e-05
7.45172e-05
6.56973e-05
7.02617e-05
7.36764e-05
7.36712e-05
6.56814e-05
7.4527e-05
7.44916e-05
7.36517e-05
6.56207e-05
7.02208e-05
7.4475e-05
7.36612e-05
6.56473e-05
7.45082e-05
7.3661e-05
6.56415e-05
7.02528e-05
7.44861e-05
7.36693e-05
6.56709e-05
9.53375e-05
7.38832e-05
7.38791e-05
7.3875e-05
7.38719e-05
9.53401e-05
7.22488e-05
6.88331e-05
7.20355e-05
7.18517e-05
7.20275e-05
7.18489e-05
7.22567e-05
7.20667e-05
8.00652e-05
7.38218e-05
7.20563e-05
8.0068e-05
7.22463e-05
6.88323e-05
7.20164e-05
7.18456e-05
7.20244e-05
7.22383e-05
7.18503e-05
7.20662e-05
8.00668e-05
7.38225e-05
8.00674e-05
7.20761e-05
7.22687e-05
7.2039e-05
7.18409e-05
6.88387e-05
7.22598e-05
7.20474e-05
7.18461e-05
7.20847e-05
7.38475e-05
8.00597e-05
7.20956e-05
8.00551e-05
7.20846e-05
8.00463e-05
7.38443e-05
7.20736e-05
8.00533e-05
7.22717e-05
6.88369e-05
7.20593e-05
7.18488e-05
7.22805e-05
7.20507e-05
7.18451e-05
7.22669e-05
7.20386e-05
7.18484e-05
6.88377e-05
7.22591e-05
7.20467e-05
7.18485e-05
7.20813e-05
7.38273e-05
8.00285e-05
8.00381e-05
7.209e-05
7.20836e-05
8.00612e-05
7.38269e-05
7.20746e-05
8.00548e-05
7.22692e-05
6.88344e-05
7.20581e-05
7.18396e-05
7.20499e-05
7.18426e-05
7.22768e-05
7.45927e-05
6.57385e-05
7.36468e-05
7.03013e-05
6.57395e-05
7.45942e-05
7.36471e-05
9.54293e-05
7.38479e-05
7.38596e-05
7.38487e-05
7.38601e-05
9.53652e-05
7.46265e-05
6.57421e-05
7.36503e-05
7.02987e-05
7.36497e-05
7.46287e-05
6.5742e-05
9.54728e-05
7.38677e-05
7.38558e-05
7.38572e-05
9.54896e-05
7.38692e-05
7.4612e-05
7.36409e-05
7.02837e-05
6.57256e-05
7.3644e-05
6.57361e-05
7.45866e-05
7.45806e-05
7.02903e-05
7.36404e-05
6.57249e-05
6.57346e-05
7.36433e-05
7.45547e-05
7.15745e-05
7.15774e-05
7.15786e-05
9.52349e-05
7.38386e-05
7.38495e-05
9.5306e-05
7.38393e-05
7.38497e-05
7.4445e-05
6.56019e-05
7.01534e-05
7.36261e-05
6.56318e-05
7.36258e-05
7.44043e-05
7.44043e-05
7.015e-05
7.36247e-05
6.56278e-05
7.44991e-05
7.36326e-05
6.56991e-05
7.01897e-05
6.56773e-05
7.45387e-05
7.36305e-05
7.44618e-05
7.3632e-05
6.56981e-05
7.01887e-05
7.45036e-05
7.36296e-05
6.56759e-05
9.51745e-05
7.38329e-05
7.38427e-05
7.15798e-05
7.15808e-05
7.22546e-05
7.20211e-05
7.18001e-05
6.88083e-05
7.20316e-05
7.18411e-05
7.2243e-05
7.20831e-05
8.00317e-05
7.38499e-05
8.00726e-05
7.20681e-05
7.2258e-05
6.88247e-05
7.20438e-05
7.18927e-05
7.20353e-05
7.18583e-05
7.22674e-05
7.2084e-05
7.38545e-05
8.01234e-05
8.00916e-05
7.20959e-05
7.22716e-05
7.18534e-05
7.20452e-05
6.88729e-05
7.22641e-05
7.18716e-05
7.20521e-05
7.20888e-05
7.38558e-05
8.00959e-05
7.20993e-05
8.00901e-05
7.20887e-05
8.00731e-05
7.38537e-05
7.20773e-05
8.00869e-05
7.22738e-05
6.88785e-05
7.18858e-05
7.20609e-05
7.2281e-05
7.18756e-05
7.20544e-05
7.22776e-05
7.20464e-05
7.19043e-05
6.88921e-05
7.22698e-05
7.20534e-05
7.19278e-05
7.21028e-05
7.38718e-05
8.01763e-05
8.01681e-05
7.21105e-05
7.21051e-05
8.01386e-05
7.38715e-05
7.20954e-05
8.016e-05
7.22794e-05
6.88986e-05
7.20619e-05
7.19476e-05
7.20556e-05
7.19344e-05
7.22859e-05
7.20667e-05
8.00665e-05
7.3823e-05
8.00675e-05
7.20562e-05
7.22527e-05
6.88191e-05
7.18433e-05
7.20429e-05
7.18412e-05
7.20333e-05
7.22614e-05
7.20649e-05
7.38243e-05
8.00646e-05
8.00669e-05
7.2075e-05
7.20622e-05
7.99393e-05
7.38155e-05
7.9959e-05
7.20467e-05
7.225e-05
6.87978e-05
7.20426e-05
7.18029e-05
7.2032e-05
7.17829e-05
7.22617e-05
7.20643e-05
7.38222e-05
7.99852e-05
7.99672e-05
7.20787e-05
7.22726e-05
7.18401e-05
7.20467e-05
6.8832e-05
7.22641e-05
7.18396e-05
7.2056e-05
7.20801e-05
7.38337e-05
8.00356e-05
7.20824e-05
8.00578e-05
7.38324e-05
7.20726e-05
8.00502e-05
7.22751e-05
6.88309e-05
7.18345e-05
7.20596e-05
7.22771e-05
7.20469e-05
7.18092e-05
6.88293e-05
7.22659e-05
7.20572e-05
7.18252e-05
7.20948e-05
7.38606e-05
8.00192e-05
7.20937e-05
7.99929e-05
7.38551e-05
7.20802e-05
8.00105e-05
7.22811e-05
6.88318e-05
7.20612e-05
7.18307e-05
7.45369e-05
6.56186e-05
7.3672e-05
7.02876e-05
6.56778e-05
7.448e-05
7.36895e-05
7.45615e-05
6.56209e-05
7.36737e-05
7.02857e-05
7.36908e-05
7.4501e-05
6.56797e-05
9.54886e-05
7.39062e-05
7.3915e-05
7.38914e-05
7.39e-05
9.55423e-05
9.54244e-05
7.38768e-05
7.3868e-05
7.3887e-05
9.53639e-05
7.38964e-05
7.46043e-05
7.03241e-05
7.37089e-05
6.57702e-05
7.36968e-05
6.57155e-05
7.46602e-05
7.45792e-05
7.03225e-05
7.37074e-05
6.57675e-05
6.57134e-05
7.36953e-05
7.46311e-05
7.16009e-05
7.16153e-05
7.16167e-05
9.56284e-05
7.39075e-05
7.3916e-05
9.55928e-05
7.39161e-05
7.39242e-05
7.47632e-05
7.04299e-05
6.58675e-05
7.3716e-05
7.47272e-05
7.04263e-05
7.37149e-05
6.58631e-05
7.47404e-05
7.37117e-05
6.58029e-05
7.04152e-05
6.58462e-05
7.46983e-05
7.37167e-05
7.47057e-05
7.37102e-05
6.57994e-05
7.04105e-05
7.46673e-05
7.37155e-05
6.58419e-05
9.56534e-05
7.39138e-05
7.39217e-05
7.16167e-05
7.16178e-05
7.22599e-05
7.17925e-05
7.20246e-05
6.87947e-05
7.18377e-05
7.20377e-05
7.22467e-05
7.22638e-05
6.88143e-05
7.18916e-05
7.20524e-05
7.18559e-05
7.20422e-05
7.22739e-05
7.20841e-05
7.3857e-05
8.0126e-05
8.0096e-05
7.20963e-05
7.20649e-05
7.99255e-05
7.38258e-05
7.99642e-05
7.20465e-05
7.22566e-05
6.87841e-05
7.18139e-05
7.20508e-05
7.17729e-05
7.20401e-05
7.22683e-05
7.2068e-05
7.38335e-05
8.00148e-05
7.99812e-05
7.20839e-05
7.22846e-05
7.19034e-05
7.20556e-05
6.88919e-05
7.22766e-05
7.19272e-05
7.20633e-05
7.2106e-05
8.01447e-05
7.38781e-05
7.20954e-05
8.01673e-05
7.22812e-05
7.18288e-05
7.20542e-05
6.88692e-05
7.22718e-05
7.18587e-05
7.20625e-05
7.20992e-05
8.00274e-05
7.38658e-05
7.20857e-05
8.00517e-05
7.15727e-05
7.1577e-05
7.15833e-05
9.52053e-05
7.38583e-05
7.38551e-05
9.51907e-05
7.38742e-05
7.38689e-05
7.44323e-05
7.01919e-05
6.56155e-05
7.36786e-05
7.44185e-05
7.36547e-05
6.55603e-05
7.01728e-05
7.43797e-05
6.56019e-05
7.36713e-05
7.44293e-05
7.36681e-05
6.55805e-05
7.02068e-05
7.44118e-05
6.56166e-05
7.36831e-05
9.52362e-05
7.38779e-05
7.38726e-05
7.1611e-05
7.16079e-05
7.16122e-05
7.20087e-05
7.37647e-05
7.99751e-05
7.9982e-05
7.20185e-05
7.2011e-05
7.37632e-05
8.00163e-05
8.00029e-05
7.20028e-05
7.21997e-05
7.17884e-05
7.19877e-05
6.87876e-05
7.17974e-05
7.19799e-05
7.22075e-05
7.21978e-05
7.18392e-05
7.1971e-05
6.88171e-05
7.18261e-05
7.19773e-05
7.21919e-05
7.20089e-05
7.37617e-05
7.99421e-05
7.99326e-05
7.19989e-05
7.20095e-05
7.37664e-05
7.99225e-05
7.99224e-05
7.20233e-05
7.2198e-05
7.19873e-05
7.17552e-05
6.87737e-05
7.19792e-05
7.17604e-05
7.22067e-05
7.21956e-05
7.17969e-05
7.19701e-05
6.88025e-05
7.19765e-05
7.1785e-05
7.2189e-05
7.20301e-05
7.37851e-05
7.99676e-05
7.20182e-05
7.99685e-05
7.22241e-05
7.20159e-05
7.17734e-05
6.8755e-05
7.22348e-05
7.17673e-05
7.20054e-05
7.20316e-05
7.37911e-05
7.99881e-05
7.20463e-05
7.99717e-05
7.22203e-05
7.17707e-05
7.19914e-05
6.87572e-05
7.22106e-05
7.17699e-05
7.20011e-05
7.20438e-05
7.38022e-05
7.99254e-05
7.20262e-05
7.9945e-05
7.2226e-05
7.20166e-05
7.17822e-05
6.87505e-05
7.22385e-05
7.20055e-05
7.17574e-05
7.20475e-05
7.38107e-05
8.00088e-05
7.20655e-05
7.99644e-05
7.22215e-05
7.19911e-05
7.17482e-05
6.87501e-05
7.22104e-05
7.20011e-05
7.17515e-05
7.22282e-05
7.18362e-05
7.20149e-05
6.87859e-05
7.22378e-05
7.18258e-05
7.20047e-05
7.20466e-05
7.38115e-05
8.00653e-05
7.20575e-05
8.00591e-05
7.2028e-05
7.99302e-05
7.37766e-05
7.20441e-05
7.9915e-05
7.20254e-05
7.37695e-05
7.99079e-05
7.20105e-05
7.99107e-05
7.20094e-05
7.37624e-05
7.99132e-05
7.99127e-05
7.20253e-05
7.21919e-05
7.17253e-05
6.8726e-05
7.19813e-05
7.17293e-05
7.19715e-05
7.22024e-05
7.21864e-05
6.87178e-05
7.16972e-05
7.19794e-05
7.17091e-05
7.19697e-05
7.2196e-05
7.20501e-05
7.381e-05
8.00122e-05
7.20677e-05
7.99703e-05
7.22265e-05
7.17716e-05
7.20187e-05
6.87106e-05
7.22413e-05
7.1738e-05
7.20047e-05
7.22207e-05
7.17212e-05
6.87068e-05
7.19863e-05
7.22072e-05
7.17274e-05
7.19988e-05
7.20233e-05
7.99074e-05
7.37785e-05
7.20422e-05
7.98809e-05
7.22127e-05
6.86895e-05
7.16809e-05
7.19843e-05
7.22003e-05
7.16804e-05
7.19965e-05
7.20193e-05
7.37699e-05
7.98706e-05
7.20031e-05
7.98734e-05
7.42636e-05
6.54246e-05
7.36067e-05
7.00182e-05
7.42723e-05
6.54157e-05
7.35859e-05
9.50611e-05
7.38174e-05
7.38206e-05
9.50801e-05
7.38052e-05
7.38004e-05
7.42495e-05
6.54425e-05
7.35927e-05
7.0034e-05
7.42701e-05
6.54352e-05
7.35733e-05
9.50464e-05
7.37859e-05
7.3781e-05
9.50453e-05
7.38018e-05
7.37966e-05
7.42429e-05
7.00234e-05
7.35494e-05
6.54362e-05
7.42372e-05
6.54367e-05
7.35649e-05
7.42639e-05
7.00068e-05
7.35591e-05
6.5425e-05
7.42728e-05
6.54167e-05
7.3577e-05
7.15352e-05
7.15299e-05
7.15345e-05
6.28062e-05
5.71137e-05
5.58998e-05
5.71506e-05
6.11674e-05
6.28196e-05
5.59271e-05
5.58904e-05
5.70878e-05
6.27715e-05
5.71264e-05
6.11564e-05
5.59186e-05
6.27863e-05
3.49846e-05
3.50192e-05
4.12671e-05
3.5067e-05
3.50275e-05
2.70506e-05
2.69757e-05
6.61912e-05
5.99377e-05
5.99472e-05
5.43213e-05
5.99587e-05
5.9947e-05
6.61585e-05
6.64569e-05
6.0205e-05
5.45743e-05
6.02094e-05
6.02104e-05
6.64377e-05
6.02068e-05
6.63949e-05
5.45724e-05
6.01805e-05
6.01919e-05
6.01767e-05
6.01867e-05
6.64078e-05
6.64803e-05
6.02414e-05
6.02415e-05
5.46128e-05
6.02376e-05
6.64809e-05
6.02373e-05
6.63584e-05
5.46027e-05
6.01415e-05
6.01421e-05
6.01841e-05
6.01858e-05
6.6322e-05
5.69807e-05
6.26775e-05
5.57944e-05
6.10465e-05
6.2689e-05
5.57854e-05
5.69972e-05
5.70032e-05
5.57967e-05
6.26855e-05
6.10548e-05
5.57913e-05
6.27176e-05
5.70089e-05
6.64033e-05
6.01183e-05
6.01203e-05
5.45078e-05
6.01415e-05
6.63507e-05
6.01435e-05
6.66087e-05
5.47454e-05
6.03656e-05
6.03665e-05
5.80815e-05
6.50729e-05
6.08687e-05
6.45364e-05
6.09049e-05
6.45502e-05
5.80405e-05
6.45352e-05
6.50376e-05
5.80339e-05
6.50229e-05
6.08771e-05
6.08427e-05
6.45188e-05
5.80078e-05
6.08582e-05
6.50342e-05
6.45134e-05
6.08338e-05
5.804e-05
6.45078e-05
5.79842e-05
6.08127e-05
6.50118e-05
6.44783e-05
6.08089e-05
5.80039e-05
6.44807e-05
6.61377e-05
5.99191e-05
5.99309e-05
5.43213e-05
6.61411e-05
5.99368e-05
5.99253e-05
4.12515e-05
3.49376e-05
4.13242e-05
3.50534e-05
3.49915e-05
2.70254e-05
2.69536e-05
4.10999e-05
3.48857e-05
4.11182e-05
3.49452e-05
3.48965e-05
2.69657e-05
2.68986e-05
4.13643e-05
3.50625e-05
4.13954e-05
3.51176e-05
3.50625e-05
2.70539e-05
2.6968e-05
4.13233e-05
3.51835e-05
3.51721e-05
3.51239e-05
3.50938e-05
2.71347e-05
2.72255e-05
4.14162e-05
3.52102e-05
3.518e-05
3.51679e-05
3.51236e-05
2.71419e-05
2.72302e-05
4.14115e-05
3.5217e-05
3.51289e-05
3.50839e-05
2.71156e-05
2.72175e-05
4.11927e-05
3.5122e-05
3.5027e-05
3.49866e-05
2.70567e-05
2.7162e-05
5.70467e-05
5.58207e-05
6.27371e-05
6.1073e-05
6.27446e-05
5.58142e-05
5.70594e-05
5.80964e-05
6.0968e-05
6.46021e-05
6.51687e-05
6.09655e-05
6.46052e-05
5.81037e-05
5.70715e-05
6.10788e-05
6.27491e-05
5.58347e-05
6.27437e-05
5.58408e-05
5.70582e-05
5.81099e-05
6.51646e-05
6.46022e-05
6.09591e-05
6.09676e-05
6.46035e-05
5.81008e-05
5.80155e-05
6.08684e-05
6.45191e-05
6.51474e-05
6.08923e-05
6.45678e-05
5.80055e-05
5.69704e-05
5.57417e-05
6.26566e-05
6.10195e-05
5.57393e-05
6.26971e-05
5.69741e-05
5.7027e-05
6.10434e-05
5.5793e-05
6.27698e-05
5.57844e-05
6.27215e-05
5.70286e-05
5.80767e-05
6.51737e-05
6.46418e-05
6.09743e-05
6.09504e-05
6.45943e-05
5.8091e-05
6.62227e-05
5.43725e-05
6.00196e-05
6.0019e-05
6.00015e-05
5.99986e-05
6.62573e-05
6.63809e-05
6.02079e-05
5.45498e-05
6.02125e-05
6.01728e-05
6.01663e-05
6.64076e-05
6.63476e-05
6.01158e-05
5.45522e-05
6.01245e-05
6.63242e-05
6.01625e-05
6.01552e-05
6.6286e-05
6.01072e-05
5.44778e-05
6.01167e-05
6.62999e-05
6.00881e-05
6.00788e-05
6.62769e-05
5.44843e-05
6.00639e-05
6.00722e-05
6.00866e-05
6.62746e-05
6.0078e-05
5.70912e-05
5.58586e-05
6.27507e-05
6.11084e-05
6.27556e-05
5.58734e-05
5.70624e-05
5.80936e-05
6.0961e-05
6.51184e-05
6.46096e-05
6.45996e-05
6.09311e-05
5.81211e-05
5.80962e-05
6.0893e-05
6.45725e-05
6.50956e-05
6.45814e-05
6.09214e-05
5.80674e-05
5.70798e-05
5.58735e-05
6.11152e-05
6.27729e-05
6.27679e-05
5.58617e-05
5.71039e-05
5.70765e-05
5.58549e-05
6.27556e-05
6.11053e-05
6.27496e-05
5.58652e-05
5.7063e-05
5.70518e-05
5.58585e-05
6.11093e-05
6.27454e-05
6.27515e-05
5.5849e-05
5.70645e-05
5.70465e-05
5.5868e-05
6.27398e-05
6.11001e-05
5.70739e-05
6.27383e-05
5.58511e-05
5.80495e-05
6.08537e-05
6.50596e-05
6.45465e-05
6.0864e-05
6.45461e-05
5.80302e-05
5.80446e-05
6.08864e-05
6.45574e-05
6.50657e-05
6.08656e-05
5.80704e-05
6.45526e-05
5.70587e-05
5.5845e-05
6.10947e-05
6.27319e-05
6.27306e-05
5.58606e-05
5.70347e-05
5.70711e-05
5.58691e-05
6.27535e-05
6.1106e-05
5.70853e-05
6.27592e-05
5.58584e-05
5.81146e-05
6.09691e-05
6.51655e-05
6.46137e-05
6.46086e-05
6.09702e-05
5.81071e-05
5.80971e-05
6.09583e-05
6.4599e-05
6.51624e-05
5.81032e-05
6.46071e-05
6.09593e-05
5.70915e-05
5.58604e-05
6.11028e-05
6.27623e-05
6.27568e-05
5.58718e-05
5.70765e-05
6.64683e-05
5.46061e-05
6.02275e-05
6.02287e-05
6.02302e-05
6.6478e-05
6.02283e-05
6.62291e-05
6.00428e-05
5.44792e-05
6.00365e-05
6.62229e-05
6.00565e-05
6.00639e-05
6.62584e-05
5.4456e-05
6.00655e-05
6.00685e-05
6.63078e-05
6.00557e-05
6.00521e-05
6.6231e-05
6.00437e-05
5.44358e-05
6.00379e-05
6.62235e-05
6.00378e-05
6.00327e-05
6.62874e-05
6.00687e-05
6.00753e-05
5.44547e-05
6.62772e-05
6.00726e-05
6.00648e-05
6.6309e-05
5.44808e-05
6.00949e-05
6.00995e-05
6.63377e-05
6.00884e-05
6.00909e-05
6.63806e-05
5.45214e-05
6.01319e-05
6.01382e-05
6.63577e-05
6.01405e-05
6.01481e-05
5.70493e-05
6.1096e-05
6.27379e-05
5.58502e-05
6.27303e-05
5.58587e-05
5.70378e-05
5.80261e-05
6.0856e-05
6.45442e-05
6.50695e-05
6.45477e-05
5.80379e-05
6.08539e-05
5.70294e-05
5.58556e-05
6.10972e-05
6.2727e-05
6.27315e-05
5.70487e-05
5.5843e-05
5.8042e-05
6.45604e-05
6.50768e-05
6.08701e-05
6.45513e-05
6.0865e-05
5.80377e-05
5.70987e-05
6.11056e-05
6.27633e-05
5.58667e-05
6.27602e-05
5.5877e-05
5.70819e-05
5.81123e-05
6.09748e-05
6.4613e-05
6.51706e-05
5.8121e-05
6.46161e-05
6.09709e-05
5.70802e-05
5.58738e-05
6.11077e-05
6.27595e-05
5.7096e-05
6.27642e-05
5.58628e-05
5.8124e-05
6.46125e-05
6.51666e-05
6.09625e-05
6.46139e-05
5.81133e-05
6.09725e-05
5.70553e-05
6.27386e-05
5.58696e-05
6.11056e-05
5.70669e-05
6.27464e-05
5.58606e-05
5.80882e-05
6.09267e-05
6.51255e-05
6.45933e-05
6.09237e-05
6.45844e-05
5.80842e-05
5.80613e-05
6.45671e-05
6.0894e-05
6.51198e-05
6.09007e-05
5.80646e-05
6.45788e-05
5.7082e-05
6.11039e-05
6.27529e-05
5.5869e-05
6.27461e-05
5.58785e-05
5.70694e-05
5.70803e-05
6.27576e-05
5.58809e-05
6.11091e-05
5.7099e-05
6.27574e-05
5.58702e-05
5.81037e-05
6.0892e-05
6.51008e-05
6.45724e-05
6.45841e-05
6.09244e-05
5.80754e-05
5.81001e-05
6.46069e-05
6.09581e-05
6.51298e-05
5.8121e-05
6.46002e-05
6.09353e-05
5.70946e-05
6.11046e-05
6.27456e-05
5.58711e-05
6.27495e-05
5.58834e-05
5.70705e-05
6.64769e-05
5.46306e-05
6.02301e-05
6.02317e-05
6.0244e-05
6.02432e-05
6.64636e-05
6.64025e-05
5.45985e-05
6.02266e-05
6.02284e-05
6.01955e-05
6.6434e-05
6.01978e-05
5.79921e-05
6.45087e-05
6.0827e-05
6.50615e-05
6.45245e-05
6.08295e-05
5.79998e-05
5.7014e-05
6.10606e-05
6.27325e-05
5.58152e-05
6.27015e-05
5.58163e-05
5.70088e-05
5.80201e-05
6.50787e-05
6.4572e-05
6.08662e-05
6.45401e-05
6.08534e-05
5.80215e-05
5.80328e-05
6.45336e-05
6.08765e-05
6.51479e-05
6.45789e-05
6.08992e-05
5.8025e-05
5.70547e-05
6.10721e-05
5.58297e-05
6.27802e-05
5.58285e-05
6.27384e-05
5.70528e-05
5.80899e-05
6.51756e-05
6.46485e-05
6.09785e-05
6.46038e-05
5.81018e-05
6.09551e-05
5.70536e-05
6.27479e-05
5.58592e-05
6.1141e-05
5.70576e-05
6.27776e-05
5.58606e-05
5.81114e-05
6.09551e-05
6.51544e-05
6.46379e-05
6.09485e-05
6.46246e-05
5.81114e-05
5.80683e-05
6.45881e-05
6.0903e-05
6.51464e-05
6.09153e-05
5.80644e-05
6.46153e-05
5.71026e-05
6.11518e-05
6.28036e-05
5.59058e-05
6.2787e-05