/*--------------------------------*- C++ -*----------------------------------*\
| =========                 |                                                 |
| \\      /  F ield         | OpenFOAM: The Open Source CFD Toolbox           |
|  \\    /   O peration     | Version:  v2006                                 |
|   \\  /    A nd           | Website:  www.openfoam.com                      |
|    \\/     M anipulation  |                                                 |
\*---------------------------------------------------------------------------*/
FoamFile
{
    version     2.0;
    format      ascii;
    class       volVectorField;
    location    "625";
    object      U;
}
// * * * * * * * * * * * * * * * * * * * * * * * * * * * * * * * * * * * * * //

dimensions      [0 1 -1 0 0 0 0];


internalField   nonuniform List<vector> 
14361
(
(-8.36263e-06 1.22078e-05 0.107441)
(-6.45617e-06 1.39221e-05 0.109763)
(3.06118e-06 -4.35449e-06 0.093263)
(7.57911e-07 -2.61087e-06 0.0987164)
(3.44374e-06 -6.34362e-07 0.0878337)
(1.98834e-06 -2.60868e-06 0.0718114)
(1.53024e-06 -4.68808e-06 0.0825223)
(1.41253e-06 -1.82158e-06 0.0916566)
(-1.02622e-05 6.4546e-06 0.0919539)
(1.67139e-06 -1.52759e-06 0.0818291)
(-4.46358e-06 2.08535e-06 0.0818611)
(4.69445e-06 -5.68209e-07 0.0919205)
(-5.63724e-06 1.13609e-05 0.0919617)
(2.87925e-06 -4.43589e-06 0.0964905)
(1.86129e-06 -1.40708e-06 0.0818367)
(-3.56195e-06 6.50692e-06 0.0878692)
(-9.42754e-06 1.69687e-05 0.0965302)
(1.36993e-06 -3.4739e-06 0.0919274)
(-1.62599e-06 4.73541e-06 0.0818697)
(-4.05064e-06 4.59009e-06 0.0839107)
(1.38831e-06 -1.46462e-06 0.0685607)
(1.45314e-06 -1.52321e-06 0.0685672)
(-1.38148e-06 2.06396e-06 0.0685936)
(1.2041e-06 -6.44042e-07 0.0838807)
(-2.02131e-06 1.32378e-06 0.0686)
(-1.72483e-06 2.88405e-06 0.0718494)
(6.54329e-07 2.76511e-06 0.0687165)
(8.92443e-07 -3.22072e-06 0.0861179)
(-1.79006e-07 7.57759e-06 0.0825619)
(2.79796e-07 7.56298e-06 0.0861617)
(-7.82561e-07 -2.63639e-06 0.068669)
(1.01945e-06 4.4828e-06 0.0772059)
(1.19486e-06 1.05393e-05 0.0916889)
(1.58747e-06 -2.08402e-06 0.0901799)
(-1.92573e-07 -1.75226e-06 0.0789547)
(1.346e-06 1.03211e-05 0.0902179)
(-1.16677e-07 -2.06819e-06 0.0771713)
(-9.06382e-08 4.76484e-06 0.0789822)
(-1.52998e-05 1.6293e-05 0.0977804)
(2.82831e-05 -3.02921e-06 0.101564)
(-4.17761e-05 1.92354e-05 0.101626)
(4.88073e-06 -3.8157e-06 0.097734)
(-4.36548e-06 5.25099e-05 0.101557)
(3.72508e-07 -3.2141e-05 0.0996975)
(6.74539e-07 -5.1713e-06 0.0958371)
(-2.91065e-06 1.49256e-05 0.0933104)
(-1.29153e-06 -3.25825e-05 0.101459)
(-6.23019e-06 4.92256e-05 0.0997531)
(-1.23872e-06 1.75687e-05 0.0958963)
(-2.35876e-06 5.28401e-05 0.103076)
(4.77185e-07 1.98539e-05 0.0987658)
(-1.13864e-06 -2.72913e-05 0.103604)
(5.157e-07 -3.2537e-06 0.0977699)
(-1.81471e-06 -2.86241e-05 0.102968)
(-1.21765e-06 5.18572e-05 0.103692)
(-1.08853e-08 1.98384e-05 0.0978275)
(1.16557e-05 3.14627e-06 0.107436)
(-4.33708e-05 4.35713e-05 0.104357)
(-7.64178e-06 1.1237e-05 0.10744)
(5.49311e-06 9.445e-06 0.107437)
(4.21363e-05 4.23634e-05 0.104352)
(-1.41177e-05 9.72367e-06 0.112179)
(1.12831e-05 4.40838e-06 0.112185)
(8.11887e-06 -3.96746e-06 0.0878646)
(3.14247e-06 -1.81148e-06 0.0718412)
(1.77566e-05 -1.99519e-06 0.0933079)
(2.22889e-05 3.92104e-06 0.0987633)
(7.73553e-06 9.51608e-08 0.0825555)
(1.22269e-05 3.79316e-06 0.0916827)
(1.38932e-05 8.97347e-06 0.0933048)
(2.12691e-05 4.95631e-06 0.0987616)
(7.57864e-06 3.02401e-06 0.0825583)
(1.16219e-05 4.37085e-06 0.0916821)
(-2.86235e-06 2.42791e-06 0.0718454)
(-5.96034e-06 4.41723e-06 0.0878598)
(-3.67039e-06 6.40438e-06 0.087863)
(-1.76685e-06 3.1267e-06 0.0718455)
(-5.65538e-06 1.28154e-05 0.109767)
(-3.00252e-06 1.5184e-05 0.0933035)
(1.02984e-06 1.98637e-05 0.0987591)
(9.34138e-07 1.21691e-05 0.109767)
(4.5997e-06 1.47009e-05 0.0933042)
(1.66432e-06 1.97905e-05 0.0987587)
(-1.88886e-07 7.99378e-06 0.0825559)
(1.77389e-06 1.06523e-05 0.0916811)
(7.66818e-07 7.94647e-06 0.0825601)
(1.88512e-06 1.06022e-05 0.0916819)
(4.96508e-06 7.46029e-06 0.0878663)
(4.4025e-06 6.21332e-06 0.0878651)
(2.87724e-06 3.53299e-06 0.0718485)
(2.18237e-06 3.32829e-06 0.0718482)
(1.9634e-05 -9.05354e-06 0.096531)
(5.09556e-06 -1.39698e-06 0.0818601)
(1.32042e-05 -5.58286e-06 0.0919591)
(1.79272e-06 -1.9647e-06 0.0685826)
(1.87092e-06 -1.63824e-06 0.0685896)
(5.84749e-06 -4.97582e-06 0.0839071)
(8.96029e-06 4.61922e-07 0.0861573)
(2.96794e-06 5.56272e-07 0.0687113)
(1.21138e-05 2.69773e-06 0.0902127)
(5.16517e-06 1.13753e-06 0.0789763)
(4.70346e-06 1.43241e-06 0.0772007)
(7.30701e-06 3.63379e-06 0.0861602)
(3.2554e-06 4.93357e-07 0.0687157)
(5.30161e-06 9.01192e-07 0.0789754)
(1.05713e-05 4.79954e-06 0.0902121)
(5.48657e-06 3.9105e-07 0.0771985)
(-1.59501e-05 1.05905e-05 0.0965194)
(-4.97319e-06 2.4137e-06 0.0818563)
(-1.02293e-05 6.70189e-06 0.0919468)
(-9.26866e-06 1.71807e-05 0.0965232)
(-2.10276e-06 5.24532e-06 0.0818648)
(-5.76114e-06 1.16161e-05 0.0919544)
(-1.56077e-06 2.29515e-06 0.0685898)
(-2.28773e-06 1.38199e-06 0.0685965)
(-3.62376e-06 4.27841e-06 0.0839038)
(-3.44083e-07 -2.39485e-06 0.0686647)
(1.62298e-06 -4.22206e-06 0.0825163)
(5.60731e-07 7.5679e-06 0.0861556)
(1.24525e-06 -3.09032e-06 0.086112)
(9.61755e-07 3.00398e-06 0.0687122)
(4.14842e-07 -1.83437e-06 0.0771642)
(2.0627e-06 -1.63645e-06 0.0916487)
(1.81226e-06 1.04595e-05 0.0902104)
(3.15619e-07 4.80499e-06 0.0789751)
(2.08904e-06 -1.8404e-06 0.0901724)
(4.23197e-07 -1.70995e-06 0.0789476)
(1.38797e-06 4.6996e-06 0.0771989)
(1.5884e-06 -2.52199e-06 0.0686728)
(-7.67218e-07 -4.66193e-06 0.0825204)
(1.62179e-06 7.6482e-06 0.0861602)
(1.48054e-06 -3.24046e-06 0.0861177)
(-1.54118e-07 3.23193e-06 0.0687167)
(1.49937e-06 -2.0823e-06 0.077166)
(2.30302e-06 -1.73725e-06 0.0916492)
(2.06157e-06 1.00259e-05 0.0902121)
(2.77509e-07 4.81416e-06 0.0789759)
(2.55257e-06 -2.51313e-06 0.0901747)
(8.62302e-07 -1.72211e-06 0.0789474)
(-2.41491e-07 4.71072e-06 0.0771993)
(1.46707e-05 1.285e-05 0.0965229)
(4.89835e-06 3.53135e-06 0.0818634)
(9.2963e-06 7.98553e-06 0.0919545)
(-1.59488e-06 -3.35581e-06 0.0919165)
(8.89628e-06 1.67536e-05 0.0965194)
(-2.34833e-06 -8.79295e-07 0.08783)
(2.17377e-06 5.24553e-06 0.0818614)
(5.00278e-06 1.1673e-05 0.0919499)
(-2.63347e-06 -4.8244e-06 0.0964817)
(-1.65251e-06 -1.20265e-06 0.0818278)
(1.79701e-06 2.58715e-06 0.0685932)
(2.48373e-06 1.88256e-06 0.0685885)
(3.26475e-06 4.38292e-06 0.0839067)
(-1.51508e-06 -2.23074e-06 0.0718096)
(-1.81069e-05 4.21048e-05 0.101617)
(-4.14391e-05 1.89762e-05 0.10162)
(-1.50978e-05 1.62771e-05 0.0977736)
(-5.84687e-06 -4.57012e-06 0.0977258)
(-2.60888e-05 -2.76497e-05 0.104245)
(1.66452e-05 4.17708e-05 0.101616)
(4.03036e-05 1.82325e-05 0.101613)
(1.33904e-05 1.61168e-05 0.0977718)
(-4.66761e-06 -2.88871e-05 0.101555)
(-2.87903e-05 -4.50257e-06 0.101554)
(-7.61988e-06 9.09658e-06 0.11457)
(1.3982e-06 7.08698e-06 0.114577)
(5.27311e-05 -5.44142e-06 0.0997563)
(2.0724e-05 6.02609e-07 0.095895)
(5.63178e-05 -3.3111e-06 0.10156)
(2.274e-05 2.67056e-06 0.0978258)
(5.46231e-05 5.79844e-07 0.103694)
(5.61529e-05 -1.04505e-06 0.10308)
(4.78576e-05 9.48e-06 0.0997448)
(1.72124e-05 7.52363e-06 0.0958907)
(5.19074e-05 7.28803e-06 0.101549)
(5.3703e-05 2.26477e-06 0.103691)
(2.02733e-05 6.27603e-06 0.0978219)
(5.35128e-05 4.32542e-06 0.103073)
(-1.25467e-06 -3.25724e-05 0.101454)
(-5.85526e-06 4.93638e-05 0.0997471)
(2.94171e-06 -3.97242e-06 0.0932563)
(-1.06663e-06 1.77678e-05 0.0958894)
(-4.00229e-06 5.24932e-05 0.101552)
(5.62268e-07 -3.19693e-05 0.099692)
(7.08313e-07 -4.86417e-06 0.0958304)
(-1.74e-06 -2.86561e-05 0.102964)
(1.14888e-06 -2.51572e-06 0.09871)
(-6.78622e-07 5.17519e-05 0.103689)
(4.32891e-07 1.99702e-05 0.0978206)
(-1.91222e-06 5.28181e-05 0.103072)
(-9.28714e-07 -2.74735e-05 0.103601)
(7.6942e-07 -3.01909e-06 0.0977632)
(2.30483e-06 -3.33294e-05 0.101451)
(6.02658e-06 4.87685e-05 0.0997431)
(-8.39941e-07 -4.82804e-06 0.0932572)
(3.44705e-06 1.76815e-05 0.0958893)
(2.207e-06 -5.27496e-06 0.0958308)
(2.63366e-07 -3.29851e-05 0.0996889)
(4.55581e-06 5.2058e-05 0.101547)
(2.47037e-06 -2.92523e-05 0.102962)
(1.93052e-06 -2.62587e-06 0.0987097)
(7.4156e-07 5.17489e-05 0.103687)
(2.51286e-06 1.96019e-05 0.0978198)
(1.21154e-06 -2.75284e-05 0.1036)
(2.69322e-06 -3.59607e-06 0.0977628)
(2.24565e-06 5.24186e-05 0.10307)
(-1.1275e-05 2.10902e-07 0.0916234)
(-2.06509e-05 -1.60472e-07 0.0987197)
(-1.12512e-05 6.04017e-07 0.0916238)
(-2.05543e-05 3.87434e-07 0.0987196)
(1.95199e-06 -3.5925e-07 0.0771042)
(1.21062e-06 3.4333e-07 0.0915901)
(-1.08674e-05 -2.94724e-07 0.090151)
(-4.85025e-06 2.39631e-07 0.0789126)
(1.68579e-06 9.58413e-08 0.0901139)
(1.65728e-06 1.73923e-07 0.078884)
(-4.81797e-06 6.91778e-07 0.0771369)
(2.14844e-06 1.07261e-06 0.0771044)
(1.25942e-06 6.96181e-07 0.0915901)
(-4.7955e-06 8.37997e-08 0.0789133)
(-1.08592e-05 1.13929e-06 0.0901519)
(1.72302e-06 4.93637e-07 0.0788838)
(1.78199e-06 9.64488e-07 0.0901144)
(-4.69199e-06 -2.12506e-07 0.0771374)
(-9.23643e-06 -1.34928e-05 0.112213)
(1.24227e-05 -1.22429e-05 0.109782)
(-8.23003e-06 8.41291e-06 0.107446)
(-2.41434e-05 -3.0532e-05 0.104251)
(-6.32194e-06 -6.5169e-06 0.0878174)
(7.17363e-07 2.80371e-07 0.0877886)
(-1.07355e-05 -1.03675e-05 0.107452)
(-1.33315e-06 -1.18094e-05 0.109788)
(-5.58364e-06 -1.23853e-05 0.107452)
(1.10145e-06 -1.21832e-05 0.109783)
(-2.9633e-05 2.51171e-05 0.104236)
(2.24695e-06 -4.33701e-07 0.0717705)
(7.60778e-07 -8.80914e-07 0.0877898)
(1.92389e-06 -1.42383e-06 0.0717731)
(1.25853e-06 1.75369e-07 0.087803)
(-4.28432e-05 -4.30573e-05 0.104358)
(-5.17228e-07 -1.33617e-05 0.107449)
(7.70752e-06 -1.25934e-05 0.107441)
(-4.41094e-06 -1.23806e-05 0.107443)
(8.99078e-06 -1.63266e-05 0.107452)
(-2.66627e-05 2.30327e-05 0.104243)
(-2.09475e-06 2.64112e-06 0.071787)
(4.57397e-05 -4.59328e-05 0.10437)
(1.61991e-06 -4.38413e-07 0.0986977)
(1.6709e-06 8.87286e-07 0.0986973)
(-9.90836e-06 -7.027e-06 0.107444)
(-1.22108e-05 6.5823e-06 0.10744)
(-7.42031e-07 2.08955e-07 0.0916256)
(1.28865e-05 -7.76416e-07 0.107453)
(-5.84397e-07 7.95842e-07 0.0916265)
(1.5363e-05 -1.04818e-05 0.107452)
(2.48837e-05 -2.85046e-05 0.104244)
(2.85781e-06 -1.36828e-06 0.0717898)
(8.3219e-07 1.23734e-05 0.109793)
(2.11152e-06 -3.02673e-06 0.0824946)
(2.34551e-06 -4.21784e-07 0.0916272)
(9.76075e-07 -3.21867e-06 0.0717869)
(-1.73381e-05 -9.55706e-06 0.112237)
(-1.55034e-05 -6.10323e-06 0.0932649)
(3.22499e-05 9.44655e-07 0.10143)
(3.73085e-06 -3.59094e-07 0.0932244)
(3.73753e-06 -1.23159e-07 0.093223)
(6.78243e-06 -8.84685e-06 0.107443)
(1.26421e-05 5.84567e-07 0.107457)
(1.18519e-05 -1.19819e-07 0.091651)
(-8.43353e-06 8.16196e-06 0.107448)
(6.08219e-07 1.37685e-05 0.109798)
(9.57795e-07 -3.55042e-06 0.0824765)
(1.86015e-06 1.22311e-05 0.0916524)
(4.54137e-05 3.91548e-05 0.104361)
(5.02684e-06 2.2467e-06 0.0718187)
(2.22409e-06 -1.13211e-05 0.0916363)
(2.3496e-06 4.36266e-06 0.082459)
(7.82914e-07 -8.48158e-06 0.082506)
(1.24245e-06 1.32719e-06 0.0915959)
(2.72274e-06 -9.17151e-07 0.0717545)
(-3.13619e-06 3.22538e-06 0.0718038)
(-1.05717e-06 -1.16478e-05 0.0916666)
(1.15812e-07 4.59732e-06 0.0824914)
(1.14563e-06 7.72508e-07 0.0916262)
(-3.25267e-06 -7.11402e-06 0.0825389)
(-6.80104e-07 2.84067e-06 0.0717831)
(2.40143e-06 -2.68952e-06 0.0718307)
(7.13698e-07 -3.71533e-07 0.091627)
(4.94904e-06 -9.68321e-07 0.0824929)
(-1.09716e-05 -7.74475e-07 0.0916663)
(-7.42769e-06 -2.19034e-06 0.0825403)
(-1.35424e-05 3.50256e-07 0.114605)
(2.75281e-06 1.19124e-05 0.114624)
(1.10859e-05 -7.90578e-06 0.114608)
(-7.52331e-06 -1.45815e-05 0.112187)
(1.57116e-05 -2.02068e-05 0.112187)
(9.90723e-06 -1.23347e-05 0.107444)
(-1.99227e-06 -4.25112e-06 0.098695)
(-3.91406e-06 1.20582e-06 0.0932345)
(2.14077e-05 -5.83575e-07 0.0987501)
(1.21861e-05 -1.2752e-05 0.107447)
(1.6912e-05 -2.69939e-06 0.0932905)
(1.41431e-05 -1.3042e-05 0.109778)
(2.0481e-06 -8.54958e-07 0.0717875)
(-3.42068e-06 2.46512e-06 0.0718354)
(-6.05488e-06 1.1872e-05 0.109787)
(6.54307e-07 -3.26974e-06 0.0932368)
(-1.26499e-06 -1.39514e-06 0.0986968)
(4.43311e-07 2.03232e-05 0.0987483)
(-7.8099e-06 9.10819e-06 0.107444)
(-5.84393e-06 1.16e-05 0.10978)
(-3.77457e-06 1.59614e-05 0.0932905)
(9.0989e-07 -1.53377e-06 0.0878038)
(-8.20308e-07 -1.29319e-06 0.0878009)
(4.47985e-05 3.93935e-05 0.104354)
(5.33609e-06 6.79673e-06 0.0878471)
(6.32859e-06 5.46049e-06 0.0878502)
(2.83935e-06 1.92798e-06 0.0717544)
(-8.65923e-07 -3.73883e-06 0.0717989)
(-2.7229e-06 -3.17254e-06 0.071799)
(2.92782e-06 8.58912e-07 0.0717526)
(7.3744e-07 1.43811e-06 0.0877736)
(2.39767e-05 2.71199e-05 0.104241)
(-4.36857e-05 -4.40179e-05 0.104355)
(3.70801e-06 -2.91446e-07 0.0877733)
(-2.841e-06 -8.10447e-06 0.0878145)
(-2.70898e-06 -3.14727e-06 0.0718131)
(2.54565e-06 1.92226e-06 0.0717665)
(2.77687e-06 3.72738e-07 0.0717661)
(-2.80051e-06 -3.79161e-06 0.0718148)
(2.67309e-05 2.47647e-05 0.104248)
(-5.91985e-06 -6.99772e-06 0.0878321)
(-3.97579e-05 -4.55878e-05 0.104358)
(-4.09169e-06 -7.22953e-06 0.0878279)
(4.09783e-06 -1.06685e-06 0.0877866)
(2.42528e-06 -1.09035e-05 0.091636)
(1.49532e-06 1.51784e-06 0.0915958)
(-8.46735e-06 -1.13933e-05 0.107451)
(-7.12917e-06 -1.2908e-05 0.109791)
(-8.88285e-06 -1.26888e-05 0.109797)
(2.00674e-06 -2.02346e-05 0.0987278)
(2.89189e-06 4.14062e-06 0.0932074)
(-1.94318e-06 -1.6543e-05 0.0932609)
(-2.92958e-07 2.70622e-06 0.098673)
(-2.46187e-06 -1.20113e-05 0.109794)
(2.4774e-06 -1.9577e-05 0.0987269)
(4.49687e-07 2.86379e-06 0.0986723)
(2.30216e-06 9.70718e-07 0.0916109)
(-9.70013e-07 -8.17688e-06 0.0825226)
(2.2961e-06 3.98473e-06 0.0824743)
(1.7275e-06 -1.16248e-05 0.0916513)
(2.60359e-06 1.43799e-06 0.0916108)
(1.96614e-06 -7.39325e-06 0.0825247)
(9.98985e-07 5.24594e-06 0.0824763)
(2.14158e-06 -1.12325e-05 0.0916512)
(-4.04913e-06 -1.34903e-05 0.109788)
(-2.46844e-06 -1.30896e-05 0.10745)
(-4.4495e-07 -1.41776e-05 0.109784)
(2.6386e-06 2.04253e-06 0.098684)
(-2.53932e-06 -1.68627e-05 0.0932741)
(4.20902e-06 2.51388e-06 0.0932209)
(3.53501e-06 -2.10195e-05 0.0987392)
(3.34082e-06 -9.78724e-06 0.107438)
(5.46688e-06 -1.10281e-05 0.107439)
(4.14804e-06 -1.30258e-05 0.109778)
(3.11632e-06 2.82032e-06 0.0986832)
(5.94576e-06 -1.45538e-05 0.0932741)
(2.97073e-09 5.29128e-06 0.0932188)
(4.06085e-06 -2.02191e-05 0.0987388)
(3.1853e-06 -2.59562e-06 0.0718191)
(-7.63241e-08 2.92421e-06 0.0717699)
(4.15755e-05 -4.57871e-05 0.104348)
(7.1503e-06 -4.40867e-06 0.087831)
(5.54331e-06 -6.02773e-06 0.0878308)
(-1.08375e-06 1.47178e-06 0.0877859)
(3.57911e-06 -1.35598e-06 0.0718188)
(2.55212e-07 -1.85958e-06 0.0877763)
(-6.29936e-06 5.98535e-06 0.0878187)
(-6.19675e-06 6.58613e-06 0.0878197)
(-4.48675e-05 4.02693e-05 0.10435)
(-2.22225e-06 4.02116e-06 0.0718037)
(-3.39109e-06 2.93861e-06 0.0718212)
(-4.45237e-05 4.02996e-05 0.104351)
(1.13795e-06 -2.32419e-07 0.087792)
(2.45421e-05 -2.92271e-05 0.104243)
(-4.77821e-06 7.3086e-06 0.0878364)
(-5.95567e-06 6.02656e-06 0.0878344)
(-9.54192e-07 4.33666e-06 0.0718215)
(4.52716e-07 2.71533e-06 0.0717822)
(-4.52541e-06 -2.27435e-06 0.0718296)
(2.78115e-06 -8.97404e-08 0.071783)
(-2.87665e-06 -3.41354e-06 0.0718302)
(3.02308e-05 2.39209e-05 0.10425)
(2.39437e-06 3.22899e-07 0.0878006)
(-3.91029e-05 -4.46649e-05 0.104358)
(-6.45201e-06 -5.37589e-06 0.0878444)
(-5.60168e-06 -5.77572e-06 0.0878444)
(-4.22205e-06 -2.38709e-06 0.0718449)
(-9.44395e-07 3.37001e-06 0.0717979)
(-3.00865e-06 -2.53031e-06 0.0718436)
(2.64784e-06 5.87641e-07 0.0717981)
(2.9424e-05 2.49954e-05 0.10425)
(-7.6195e-06 -4.8577e-06 0.0878615)
(-6.57176e-06 -4.11003e-06 0.0878591)
(1.32531e-07 1.99568e-06 0.0878169)
(1.26091e-06 1.77448e-06 0.0878162)
(-4.65822e-07 -1.1755e-05 0.0916669)
(-1.52313e-07 4.88981e-06 0.0824914)
(1.68989e-06 1.05568e-06 0.0916263)
(4.0082e-07 -7.75791e-06 0.0825404)
(2.52674e-06 -1.51081e-05 0.109781)
(9.25062e-07 -2.14899e-05 0.0987515)
(2.87264e-06 2.76032e-06 0.0932343)
(3.87781e-09 -1.3153e-05 0.107447)
(3.2627e-06 1.30862e-06 0.0986957)
(-5.69448e-06 -1.53551e-05 0.0932881)
(3.85664e-06 -1.58825e-05 0.109778)
(6.89438e-06 -1.43916e-05 0.109777)
(1.73185e-06 -2.14206e-05 0.0987521)
(-3.4818e-07 4.38116e-06 0.093234)
(9.20711e-06 -1.40815e-05 0.107445)
(3.8935e-06 1.98897e-06 0.0986955)
(4.22069e-06 -1.61663e-05 0.0932912)
(8.4806e-06 -1.57952e-05 0.109775)
(-1.84753e-06 7.72819e-07 0.0916419)
(-3.54354e-06 -6.93347e-06 0.0825536)
(-1.84318e-06 5.51685e-06 0.0825067)
(-3.25143e-06 -1.16938e-05 0.0916821)
(-1.15222e-06 5.54602e-07 0.0916424)
(6.18793e-07 -7.63794e-06 0.0825559)
(-1.48501e-06 4.65744e-06 0.0825068)
(-2.48769e-06 -1.22064e-05 0.0916831)
(-2.55831e-07 9.8959e-07 0.0987083)
(-1.54e-06 -1.28977e-05 0.107446)
(-8.54901e-06 -1.37498e-05 0.0933027)
(6.41933e-07 -1.69301e-05 0.109772)
(-5.45344e-07 4.5884e-06 0.0932482)
(3.14912e-06 -1.65913e-05 0.109776)
(-3.70267e-06 -2.14985e-05 0.0987647)
(6.58054e-07 7.93186e-07 0.0987092)
(9.77675e-06 -1.55026e-05 0.107448)
(3.39398e-06 -1.72952e-05 0.0933084)
(6.54784e-06 -1.85052e-05 0.109774)
(-2.20694e-06 2.80119e-06 0.0932516)
(8.41962e-06 -1.73206e-05 0.109775)
(-2.53863e-06 -2.24088e-05 0.0987661)
(4.72523e-07 3.05839e-06 0.0878041)
(-1.71606e-06 6.45197e-07 0.0878009)
(4.51247e-05 -4.68064e-05 0.104359)
(4.53817e-06 -7.12287e-06 0.0878471)
(8.35758e-06 -3.35298e-06 0.0878479)
(3.19229e-06 -8.71292e-07 0.0718299)
(2.80989e-06 -2.71934e-06 0.0718422)
(-1.30497e-06 2.72673e-06 0.0717939)
(-2.36393e-05 2.25562e-05 0.104254)
(4.93863e-06 -7.32858e-06 0.0878634)
(-2.55348e-06 -3.17172e-07 0.087817)
(1.36642e-06 3.71414e-06 0.0878213)
(-2.44424e-06 2.74185e-06 0.0717972)
(4.11581e-06 -6.40613e-07 0.0932364)
(-9.05309e-06 -8.45117e-06 0.107454)
(-1.34112e-05 -4.75375e-06 0.109787)
(-2.00614e-05 -3.73492e-07 0.0987501)
(-8.47577e-06 -8.40049e-06 0.10745)
(-1.43312e-05 -5.88629e-06 0.0932875)
(-1.25871e-05 -4.40599e-06 0.109782)
(7.44322e-07 4.78381e-07 0.0916263)
(3.90048e-06 -3.09416e-07 0.0824954)
(-1.09793e-05 -2.71567e-07 0.0916667)
(-8.77035e-06 7.70645e-07 0.0825436)
(-1.35466e-05 6.24175e-07 0.109783)
(-1.09951e-05 3.60762e-06 0.107444)
(4.03496e-06 3.41808e-07 0.0932366)
(-2.01178e-05 7.74754e-07 0.0987503)
(-1.1031e-05 4.48313e-06 0.107441)
(-1.31706e-05 1.31603e-06 0.109777)
(-1.51285e-05 5.43388e-06 0.0932905)
(1.59482e-06 -9.3001e-07 0.0916411)
(-7.58483e-06 -1.04745e-06 0.0825547)
(5.03328e-06 -1.675e-07 0.0825082)
(-1.07435e-05 -9.52428e-07 0.0916808)
(2.56927e-06 -4.9869e-07 0.0987061)
(-8.78399e-06 -7.95061e-06 0.107447)
(-1.49138e-05 -3.93922e-06 0.0933011)
(-1.31695e-05 -3.61565e-06 0.109772)
(5.03309e-06 5.83949e-07 0.0932472)
(-1.25695e-05 -4.09745e-06 0.109778)
(-1.99907e-05 -5.04576e-07 0.0987606)
(1.51155e-06 -4.45789e-07 0.0916405)
(-8.10083e-06 5.73242e-07 0.0825559)
(3.74615e-06 -1.08715e-06 0.08251)
(-1.0743e-05 -7.70593e-07 0.0916811)
(2.45395e-06 6.14037e-07 0.0987061)
(-1.15079e-05 5.57422e-06 0.107441)
(-1.41879e-05 2.85153e-06 0.109769)
(-1.49638e-05 4.21971e-06 0.0933034)
(-1.34611e-05 1.999e-06 0.109774)
(4.25427e-06 -9.54678e-07 0.0932497)
(-2.00618e-05 2.90354e-07 0.098761)
(-4.01971e-06 1.83467e-06 0.082491)
(1.19531e-05 2.66607e-06 0.0916659)
(8.10252e-06 8.73801e-07 0.082539)
(1.39401e-05 -6.656e-06 0.109788)
(-1.14715e-06 -3.31922e-06 0.0986955)
(-3.35525e-06 -1.33887e-06 0.0932332)
(2.14464e-05 3.44787e-07 0.0987494)
(1.26853e-05 -9.7846e-07 0.107446)
(1.46155e-05 -7.27121e-06 0.10978)
(1.47906e-05 7.03091e-06 0.0932883)
(-5.21191e-06 1.08565e-06 0.0824929)
(1.17051e-05 3.18218e-06 0.0916659)
(7.1351e-06 3.17245e-06 0.0825417)
(-7.38503e-07 7.03237e-07 0.0987074)
(1.42976e-05 -1.22085e-05 0.10745)
(1.72147e-05 -9.54048e-06 0.109773)
(-2.08045e-06 3.78643e-06 0.0932517)
(1.60465e-05 -1.20852e-05 0.109776)
(-3.57291e-07 3.17909e-06 0.0916419)
(-4.50441e-06 2.5975e-06 0.0825069)
(-1.01912e-06 1.69713e-06 0.0987065)
(1.24958e-05 8.56105e-07 0.107442)
(1.58061e-05 -3.2535e-06 0.109767)
(1.54991e-05 -5.99073e-06 0.109775)
(-4.9645e-06 1.71109e-06 0.0932493)
(-7.31317e-07 3.79114e-06 0.091642)
(-5.26583e-06 1.46447e-06 0.0825099)
(2.62898e-06 2.46383e-07 0.0878084)
(1.13588e-06 -1.24607e-06 0.0878055)
(-4.36322e-05 4.21184e-05 0.104353)
(-5.83145e-06 5.01849e-06 0.087848)
(-3.86698e-06 6.94969e-06 0.0878508)
(-1.24205e-06 3.80427e-06 0.0718353)
(2.19034e-06 -1.28842e-06 0.0718008)
(2.56428e-05 -2.65088e-05 0.104247)
(1.17426e-06 -2.26831e-06 0.0878185)
(3.28921e-06 -2.94617e-07 0.0878218)
(2.33431e-06 -1.99074e-06 0.0718023)
(6.8564e-06 8.48227e-06 0.107457)
(4.41119e-07 -1.15993e-06 0.0986976)
(2.00167e-06 -4.2777e-06 0.0932358)
(1.64074e-06 2.02387e-05 0.0987484)
(7.17062e-06 7.9609e-06 0.107449)
(1.11746e-06 1.15237e-05 0.109785)
(7.0758e-06 1.40529e-05 0.0932893)
(1.43592e-06 -3.51986e-07 0.0916264)
(2.48418e-06 1.12989e-05 0.0916658)
(2.79753e-07 8.98192e-06 0.0825426)
(2.06994e-06 -5.64542e-06 0.0824955)
(2.88968e-06 1.10768e-05 0.0916667)
(2.38845e-06 7.20526e-06 0.0825448)
(8.52659e-07 -2.29403e-06 0.0987044)
(-7.49986e-06 1.02189e-05 0.107442)
(-5.5926e-06 1.20519e-05 0.109774)
(2.58316e-06 -3.55883e-06 0.0932499)
(1.91485e-06 -2.43813e-06 0.0987043)
(6.56849e-06 8.30137e-06 0.107443)
(1.33047e-06 1.15551e-05 0.109777)
(4.68686e-07 -5.24478e-06 0.0932492)
(2.46643e-06 -1.31212e-06 0.0916411)
(1.8789e-06 -3.72045e-06 0.0825098)
(2.84721e-06 -1.51308e-06 0.0916416)
(1.08723e-07 -5.03835e-06 0.0825125)
(-2.99542e-06 4.56987e-07 0.0717845)
(2.59732e-06 4.0308e-06 0.0718332)
(3.31704e-06 2.93142e-06 0.0718359)
(-2.49785e-05 -2.92363e-05 0.104246)
(-1.9164e-06 1.82406e-08 0.0878213)
(-1.35295e-06 -1.31729e-06 0.0878208)
(-2.91508e-06 1.99768e-07 0.0718016)
(-8.99736e-07 -2.42822e-06 0.0718028)
(-7.3999e-06 -2.05767e-06 0.0825068)
(5.37465e-06 1.37486e-07 0.0824594)
(-1.19728e-05 -1.48259e-07 0.0916383)
(9.56856e-07 5.36669e-08 0.0915978)
(-9.96704e-06 -1.16444e-05 0.11463)
(-1.43078e-05 1.53283e-06 0.114614)
(3.27524e-06 1.53743e-05 0.114633)
(-1.77497e-06 -9.59991e-06 0.114628)
(-1.1395e-05 1.31042e-05 0.112236)
(-7.61886e-06 1.52665e-05 0.0932642)
(-7.9079e-06 9.57646e-06 0.107452)
(-3.39034e-06 2.1432e-05 0.0987346)
(-4.4291e-06 1.50799e-05 0.109797)
(4.62712e-06 -9.61457e-07 0.0957908)
(-1.36378e-05 -5.2056e-06 0.107453)
(-1.3076e-05 -6.77926e-06 0.107456)
(-2.12095e-05 -8.7667e-07 0.0987324)
(-1.5992e-05 -2.69419e-06 0.109794)
(1.70706e-06 -4.44579e-07 0.0986765)
(-1.59872e-05 -3.83407e-06 0.109793)
(5.35324e-06 -2.41693e-07 0.0824611)
(-7.68267e-06 2.07415e-06 0.0825102)
(-1.20136e-05 6.24539e-07 0.0916388)
(9.12107e-07 6.17627e-07 0.0915979)
(-1.55599e-05 5.49941e-06 0.0932639)
(-1.18639e-05 4.74535e-06 0.107448)
(-1.19235e-05 3.52191e-06 0.107446)
(-2.12195e-05 1.90906e-08 0.098732)
(-1.50832e-05 2.49268e-06 0.109793)
(1.74465e-06 2.10563e-07 0.0986762)
(-1.52229e-05 1.16352e-06 0.10979)
(4.94924e-06 -4.87473e-07 0.0824751)
(-1.18881e-05 -2.71461e-07 0.0916526)
(-7.58828e-06 -2.68037e-06 0.0825242)
(3.22384e-07 -1.92413e-07 0.0916127)
(-1.19373e-05 -7.8619e-06 0.107456)
(-2.11039e-05 -5.49304e-07 0.0987421)
(-1.55332e-05 -6.73145e-06 0.0932772)
(-1.03264e-05 -8.38716e-06 0.107456)
(-1.448e-05 -4.90921e-06 0.109789)
(1.2042e-06 -8.90418e-07 0.0986886)
(-1.55317e-05 -4.68938e-06 0.109792)
(4.54469e-06 3.84558e-07 0.0824777)
(-1.18009e-05 5.53015e-07 0.091653)
(-8.40872e-06 1.65274e-06 0.0825281)
(2.77999e-07 6.98337e-07 0.0916127)
(-2.10391e-05 6.86155e-07 0.0987417)
(-1.4185e-05 1.83373e-07 0.109785)
(-1.1191e-05 2.85396e-06 0.107444)
(-1.158e-05 2.79424e-06 0.107446)
(-1.53579e-05 6.43339e-06 0.0932772)
(1.18812e-06 1.48314e-07 0.0986881)
(-1.49315e-05 3.06519e-07 0.109788)
(1.13084e-05 -9.72389e-06 0.109785)
(7.89954e-06 -1.09127e-05 0.107443)
(2.01889e-05 -5.11244e-06 0.0987388)
(1.49101e-05 -5.61998e-06 0.0932737)
(1.11529e-05 -5.98335e-06 0.10979)
(1.15418e-05 -6.28643e-07 0.0916502)
(8.49447e-06 -3.37543e-07 0.082523)
(1.3486e-05 -3.95337e-06 0.109793)
(2.12657e-05 -4.23791e-06 0.0987394)
(1.63229e-05 3.9272e-06 0.0932729)
(1.22192e-05 3.4343e-06 0.107463)
(1.34888e-05 8.22547e-08 0.1098)
(-2.19736e-06 -3.5419e-06 0.0932211)
(7.43529e-06 2.52158e-06 0.0825246)
(-4.76485e-06 -3.03811e-07 0.0824749)
(-2.03966e-06 2.19548e-05 0.0987357)
(9.4227e-07 1.68113e-05 0.109805)
(-1.2131e-06 8.58776e-06 0.0825081)
(-1.4848e-06 1.24189e-05 0.0916381)
(-4.12393e-07 1.25879e-05 0.0916386)
(-5.80456e-06 1.26916e-05 0.109791)
(-1.33972e-06 -3.90588e-06 0.0932238)
(-8.34379e-06 8.66539e-06 0.107451)
(-5.9441e-06 1.5963e-05 0.0932772)
(-1.80198e-06 2.12906e-05 0.0987417)
(-3.09139e-06 -9.74047e-07 0.0986902)
(-5.28095e-06 1.39532e-05 0.109795)
(6.37165e-06 9.77898e-06 0.107463)
(-1.05793e-07 2.16317e-05 0.0987426)
(8.02968e-06 1.55704e-05 0.0932766)
(-1.56053e-06 -4.84151e-07 0.0986913)
(5.53126e-06 1.16809e-05 0.107467)
(6.76518e-07 1.54532e-05 0.109803)
(9.88938e-07 -3.05668e-06 0.0932227)
(2.07388e-07 9.48325e-06 0.0825264)
(9.10239e-07 1.22255e-05 0.0916515)
(-9.59759e-07 1.04621e-07 0.0916129)
(4.09509e-06 6.82055e-06 0.0825268)
(2.12396e-07 2.51904e-07 0.0916134)
(2.35127e-06 -5.51782e-06 0.0824756)
(8.221e-06 5.66937e-06 0.0878327)
(6.53137e-06 5.37394e-06 0.0878265)
(-2.5645e-05 -2.78505e-05 0.104255)
(5.54037e-07 -2.63157e-06 0.0877857)
(9.53967e-07 -9.22563e-07 0.0877837)
(2.65414e-06 4.05452e-06 0.0718156)
(-2.6816e-06 -5.17506e-07 0.071766)
(1.37227e-06 -3.48619e-06 0.0717663)
(4.3152e-06 -7.8199e-07 0.0918798)
(7.50974e-07 7.94142e-07 0.0877811)
(-1.62154e-05 -1.19181e-05 0.096495)
(-4.81036e-06 -3.37831e-06 0.0818117)
(1.6686e-06 5.87384e-07 0.081777)
(-1.06119e-05 -8.09596e-06 0.0919139)
(5.13519e-06 6.91781e-07 0.0964558)
(-1.05661e-05 -8.4175e-06 0.0919203)
(5.33809e-06 3.61379e-08 0.0964608)
(-6.27476e-06 -6.93014e-06 0.0878249)
(1.50046e-06 6.57288e-08 0.0817853)
(4.32168e-06 -1.20982e-06 0.0918856)
(-4.89758e-06 -3.83896e-06 0.0818207)
(-1.60898e-05 -1.236e-05 0.0965002)
(-3.29284e-06 3.14883e-06 0.0718128)
(-1.16303e-05 7.1442e-06 0.0919148)
(3.95794e-06 -2.62334e-06 0.0964541)
(-6.16738e-06 6.23182e-06 0.0878266)
(1.01858e-06 -2.86192e-07 0.0817889)
(2.97812e-06 -3.11379e-07 0.0918814)
(-5.40129e-06 3.57834e-06 0.0818233)
(-1.73824e-05 9.99703e-06 0.0964922)
(-1.43805e-06 4.31457e-06 0.0718131)
(-1.04271e-05 -7.64569e-06 0.091932)
(5.83933e-06 8.67949e-08 0.0964682)
(1.68007e-06 -1.02686e-07 0.0818034)
(-5.62612e-06 -6.62135e-06 0.0878389)
(4.50427e-06 -9.98039e-07 0.0918962)
(-4.52244e-06 -3.465e-06 0.0818388)
(-1.55133e-05 -1.18527e-05 0.0965078)
(3.39453e-06 -9.22055e-07 0.0718249)
(5.10711e-06 1.69851e-06 0.0771759)
(-9.71841e-07 2.91613e-07 0.0901491)
(-1.2817e-06 7.05312e-07 0.0789228)
(1.17594e-05 1.14075e-06 0.0916578)
(1.16541e-05 1.03115e-06 0.0901872)
(5.22869e-06 1.13289e-06 0.0789504)
(-1.47278e-06 2.58773e-07 0.077141)
(4.86229e-06 1.44535e-06 0.077174)
(-1.25648e-06 1.15775e-06 0.0789228)
(-1.54299e-06 1.96901e-06 0.0901509)
(1.17828e-05 1.64401e-06 0.0916583)
(5.28445e-06 1.01412e-06 0.0789499)
(1.0786e-05 2.86071e-06 0.0901874)
(-1.98526e-06 2.67884e-06 0.0771422)
(-9.46835e-07 4.14185e-06 0.0718289)
(2.55731e-06 3.83974e-06 0.0686969)
(8.73422e-07 -1.96165e-06 0.0860933)
(4.22642e-07 9.34624e-06 0.082535)
(7.16875e-07 8.62731e-06 0.0861376)
(1.1095e-06 -1.58672e-06 0.0686487)
(3.05172e-06 4.42156e-06 0.0771793)
(3.84623e-06 -1.54145e-06 0.0901515)
(3.07667e-06 -1.30155e-06 0.0789261)
(2.63497e-06 1.16665e-05 0.0916594)
(4.10847e-06 1.06223e-05 0.0901884)
(2.62561e-06 5.06497e-06 0.0789546)
(4.56801e-06 -2.22737e-06 0.0771462)
(4.28615e-06 2.49246e-06 0.0718281)
(-2.11618e-06 2.33469e-06 0.0771348)
(5.29989e-06 7.6918e-07 0.0789421)
(1.11416e-05 1.16225e-06 0.0901797)
(-5.31194e-07 -9.20999e-07 0.0916192)
(4.70929e-06 1.28848e-06 0.0771665)
(-1.27503e-06 8.51529e-07 0.0789152)
(-1.17018e-06 2.696e-07 0.0901431)
(1.9999e-06 4.10084e-06 0.0686822)
(-4.05073e-07 9.21767e-06 0.0825173)
(-1.04852e-06 -2.06351e-06 0.086077)
(2.55401e-08 -1.55706e-06 0.0686328)
(-1.08838e-06 8.76332e-06 0.086122)
(4.50186e-06 -2.11211e-06 0.077138)
(3.55621e-06 1.1257e-05 0.0901809)
(2.88125e-06 5.33854e-06 0.0789462)
(1.37353e-06 7.12643e-08 0.0916204)
(3.36604e-06 4.57872e-06 0.0771714)
(2.99802e-06 -9.26377e-07 0.0901442)
(3.05935e-06 -1.13027e-06 0.0789175)
(1.45895e-06 -3.42005e-06 0.071777)
(5.64218e-07 2.00187e-06 0.0771182)
(1.6099e-06 -4.95946e-06 0.0789274)
(1.73239e-06 -1.12305e-05 0.0901645)
(1.95905e-06 1.17583e-06 0.0916034)
(1.21091e-06 1.6172e-06 0.0788995)
(1.57831e-06 1.38482e-06 0.0901269)
(1.97551e-06 -4.8031e-06 0.077151)
(1.11394e-06 -3.24149e-06 0.0686635)
(7.87018e-07 -8.26955e-06 0.0824984)
(6.98166e-07 2.37627e-06 0.0860568)
(3.89489e-07 -8.6078e-06 0.0861004)
(-6.15801e-07 2.41459e-06 0.0686176)
(-1.84323e-07 2.29685e-06 0.0686242)
(5.93928e-07 -8.87465e-06 0.0861086)
(2.56993e-06 4.08685e-06 0.0824662)
(1.06133e-06 2.04184e-06 0.0860649)
(1.4079e-06 -3.33845e-06 0.0686699)
(1.60882e-06 -4.65953e-06 0.0771443)
(1.66601e-06 -1.11248e-05 0.0916288)
(7.1182e-07 1.71e-06 0.0788925)
(8.97674e-07 1.61252e-06 0.0901194)
(1.23423e-06 -4.83431e-06 0.0789205)
(1.20938e-06 -1.0982e-05 0.0901569)
(9.03263e-08 2.1076e-06 0.0771115)
(-2.90777e-06 2.99386e-06 0.0717951)
(2.50487e-06 -5.29272e-07 0.0717619)
(-1.31947e-06 1.60604e-06 0.0771482)
(-2.94313e-07 7.72953e-07 0.0916341)
(-5.12455e-07 -5.29192e-06 0.0789565)
(-1.85214e-06 -1.08904e-05 0.0901953)
(-3.27222e-07 1.23343e-06 0.0789289)
(-9.63306e-07 1.50289e-06 0.0901583)
(-5.51591e-07 -5.15079e-06 0.0771805)
(-1.55428e-07 -3.07593e-06 0.0686891)
(-4.10219e-07 2.52059e-06 0.0860899)
(-2.23374e-06 -7.66211e-06 0.0825309)
(-1.17188e-06 2.47572e-06 0.0686445)
(-1.55455e-06 -8.03351e-06 0.0861324)
(4.70599e-07 -5.14418e-06 0.077173)
(5.07166e-07 -1.16322e-05 0.0916589)
(5.62489e-07 1.23854e-06 0.0789213)
(5.78608e-07 1.21674e-06 0.0901505)
(-2.87683e-07 1.62517e-06 0.0771404)
(3.75048e-07 -5.30412e-06 0.078949)
(-2.05833e-07 -1.1156e-05 0.0901877)
(-2.06274e-06 2.67658e-06 0.0686511)
(-2.72602e-06 -7.55022e-06 0.0861396)
(-1.06508e-06 5.14596e-06 0.0824992)
(-1.63042e-06 3.04256e-06 0.0860972)
(-9.99691e-07 -2.94604e-06 0.0686952)
(2.73721e-06 -2.63291e-06 0.0718252)
(-1.09568e-06 2.79763e-06 0.0717887)