/*--------------------------------*- C++ -*----------------------------------*\
| =========                 |                                                 |
| \\      /  F ield         | OpenFOAM: The Open Source CFD Toolbox           |
|  \\    /   O peration     | Version:  v2012                                 |
|   \\  /    A nd           | Website:  www.openfoam.com                      |
|    \\/     M anipulation  |                                                 |
\*---------------------------------------------------------------------------*/
FoamFile
{
    version     2.0;
    format      ascii;
    class       volScalarField;
    location    "637.5";
    object      epsilon;
}
// * * * * * * * * * * * * * * * * * * * * * * * * * * * * * * * * * * * * * //

dimensions      [0 2 -3 0 0 0 0];


internalField   nonuniform List<scalar> 
171728
(
1.871e-09
3.3008e-09
5.54956e-09
4.93491e-09
1.84437e-09
3.05215e-09
4.74004e-09
4.72743e-09
1.76338e-09
2.78622e-09
3.95905e-09
4.43697e-09
1.68011e-09
2.54818e-09
3.34345e-09
4.20424e-09
1.59799e-09
2.34084e-09
2.88737e-09
3.9365e-09
1.51841e-09
2.16724e-09
2.57507e-09
3.71374e-09
1.4332e-09
2.03023e-09
2.38758e-09
3.48603e-09
1.35048e-09
1.92813e-09
2.30785e-09
3.10852e-09
1.27816e-09
1.86238e-09
2.29147e-09
2.8343e-09
1.21195e-09
1.83134e-09
2.29777e-09
2.65555e-09
1.15324e-09
1.8328e-09
2.3103e-09
2.59549e-09
1.09552e-09
1.86979e-09
2.34934e-09
2.55965e-09
1.0336e-09
1.94843e-09
2.41879e-09
2.56953e-09
9.75426e-10
2.07775e-09
2.53779e-09
2.61946e-09
9.32102e-10
2.27721e-09
2.72398e-09
2.7544e-09
9.03668e-10
2.58708e-09
3.03668e-09
3.04848e-09
8.75785e-10
3.08275e-09
3.52179e-09
3.57437e-09
8.49913e-10
3.80743e-09
4.28896e-09
4.66603e-09
8.25993e-10
4.85653e-09
5.33426e-09
5.84287e-09
8.13793e-10
6.6099e-09
6.99946e-09
8.81995e-09
8.1156e-10
9.09037e-09
9.51781e-09
1.32459e-08
8.22084e-10
1.20185e-08
1.30197e-08
1.71502e-08
8.50896e-10
1.80247e-08
1.79644e-08
2.9126e-08
9.05281e-10
2.25276e-08
2.5333e-08
5.25368e-08
9.90243e-10
3.47683e-08
3.36302e-08
7.40579e-08
1.11031e-09
4.38132e-08
4.49053e-08
9.95061e-08
1.30199e-09
5.80184e-08
6.2498e-08
1.72787e-07
1.60327e-09
7.45545e-08
7.71053e-08
2.14601e-07
1.96573e-09
9.5706e-08
9.98955e-08
2.93517e-07
2.49148e-09
1.17934e-07
1.23222e-07
3.5721e-07
3.27149e-09
1.43665e-07
1.41411e-07
4.48226e-07
4.21228e-09
1.72545e-07
1.81863e-07
5.20268e-07
5.72354e-09
2.04558e-07
2.07314e-07
5.98462e-07
7.27815e-09
2.47849e-07
2.4732e-07
6.37101e-07
9.47501e-09
2.72057e-07
2.7778e-07
7.07538e-07
1.27873e-08
3.23528e-07
3.22174e-07
7.7087e-07
1.6291e-08
3.661e-07
3.65413e-07
8.02117e-07
2.06621e-08
4.11285e-07
4.12296e-07
8.44324e-07
2.70999e-08
4.49729e-07
4.53049e-07
8.81316e-07
3.29918e-08
5.02178e-07
5.06287e-07
9.12078e-07
4.20773e-08
5.70265e-07
5.56369e-07
9.52246e-07
5.26784e-08
6.02702e-07
5.97211e-07
9.82639e-07
6.19511e-08
6.34458e-07
6.38088e-07
1.00348e-06
7.52718e-08
7.01947e-07
7.09207e-07
1.03744e-06
9.43143e-08
7.34509e-07
7.49408e-07
1.07396e-06
1.08858e-07
7.95671e-07
7.79962e-07
1.10363e-06
1.32005e-07
8.34535e-07
8.27096e-07
1.10559e-06
1.48543e-07
8.55174e-07
8.59101e-07
1.12031e-06
1.7032e-07
8.94362e-07
8.93746e-07
1.20333e-06
1.99993e-07
9.69939e-07
9.65199e-07
1.22736e-06
2.36516e-07
9.57343e-07
9.7043e-07
1.20579e-06
2.59028e-07
9.77282e-07
9.76393e-07
1.17968e-06
2.75351e-07
1.05565e-06
1.02217e-06
1.28246e-06
3.20366e-07
1.06771e-06
1.07939e-06
1.33019e-06
3.60629e-07
1.05287e-06
1.08159e-06
1.29829e-06
3.74045e-07
1.06551e-06
1.07978e-06
1.28506e-06
3.96938e-07
1.13713e-06
1.11333e-06
1.34312e-06
4.52958e-07
1.16582e-06
1.15551e-06
1.36807e-06
4.79528e-07
1.15896e-06
1.15747e-06
1.35601e-06
4.94247e-07
1.16219e-06
1.16612e-06
1.37247e-06
5.23134e-07
1.19188e-06
1.20157e-06
1.42137e-06
5.63049e-07
1.20787e-06
1.20668e-06
1.40991e-06
5.75144e-07
1.21253e-06
1.2028e-06
1.38456e-06
5.9376e-07
1.23719e-06
1.24343e-06
1.44982e-06
6.27102e-07
1.24697e-06
1.26001e-06
1.46513e-06
6.43508e-07
1.24284e-06
1.24046e-06
1.42907e-06
6.52066e-07
1.25945e-06
1.25218e-06
1.43445e-06
6.78067e-07
1.30208e-06
1.29169e-06
1.50714e-06
7.02798e-07
1.28722e-06
1.29518e-06
1.50937e-06
7.0437e-07
1.25786e-06
1.27718e-06
1.46002e-06
7.08791e-07
1.27196e-06
1.27223e-06
1.45515e-06
7.2936e-07
1.3272e-06
1.29975e-06
1.51072e-06
7.57881e-07
1.33547e-06
1.32645e-06
1.53564e-06
7.65942e-07
1.30669e-06
1.32206e-06
1.51309e-06
7.62936e-07
1.29361e-06
1.30815e-06
1.49847e-06
7.68445e-07
1.30692e-06
1.30832e-06
1.51075e-06
7.82398e-07
1.32468e-06
1.30954e-06
1.51903e-06
7.9437e-07
1.32066e-06
1.31833e-06
1.52203e-06
7.99669e-07
1.3162e-06
1.32819e-06
1.52653e-06
8.01704e-07
1.32152e-06
1.32372e-06
1.5235e-06
8.07031e-07
1.33021e-06
1.32107e-06
1.53276e-06
8.10092e-07
1.32189e-06
1.32116e-06
1.53383e-06
8.09501e-07
1.31016e-06
1.31653e-06
1.52166e-06
8.10081e-07
1.31285e-06
1.31623e-06
1.52454e-06
8.13252e-07
1.31939e-06
1.31588e-06
1.53177e-06
8.11547e-07
1.312e-06
1.30838e-06
1.52312e-06
8.0737e-07
1.30207e-06
1.30633e-06
1.51947e-06
8.06173e-07
1.30354e-06
1.30373e-06
1.52418e-06
8.05336e-07
1.30061e-06
1.29597e-06
1.51665e-06
8.00456e-07
1.28847e-06
1.29113e-06
1.50811e-06
7.9455e-07
1.28102e-06
1.28668e-06
1.50904e-06
7.9129e-07
1.28059e-06
1.28046e-06
1.50667e-06
7.88812e-07
1.27834e-06
1.27246e-06
1.49633e-06
7.82777e-07
1.26687e-06
1.2659e-06
1.49286e-06
7.58239e-07
1.19538e-06
1.20383e-06
1.44935e-06
5.1532e-09
4.15638e-09
3.83387e-09
4.95044e-09
5.28501e-09
4.02775e-09
1.82688e-09
1.33779e-09
1.64918e-09
2.08716e-09
3.83278e-09
5.2384e-09
5.11492e-09
4.08713e-09
5.51573e-09
5.01308e-09
5.09094e-09
4.74631e-09
5.10597e-09
3.26754e-09
4.79587e-09
3.10916e-09
4.92898e-09
4.46093e-09
7.85166e-09
6.4118e-09
7.72727e-09
6.01993e-09
1.33335e-08
3.12329e-09
1.25576e-08
5.07752e-09
4.66605e-09
7.87483e-09
4.95287e-09
7.79872e-09
4.79112e-09
4.67786e-09
4.43974e-09
4.68747e-09
3.04423e-09
4.36319e-09
2.86126e-09
4.43263e-09
4.0176e-09
7.66772e-09
5.88876e-09
7.49964e-09
5.36651e-09
1.1975e-08
2.8499e-09
8.98852e-09
4.62595e-09
4.25348e-09
7.76032e-09
4.14031e-09
7.6563e-09
4.50633e-09
4.38199e-09
4.1917e-09
4.25641e-09
2.80395e-09
3.95584e-09
2.64332e-09
3.99489e-09
3.64389e-09
7.45026e-09
5.15468e-09
7.30746e-09
4.46211e-09
7.87557e-09
2.60484e-09
5.2161e-09
4.21997e-09
3.84873e-09
7.62708e-09
3.48226e-09
7.60111e-09
4.26207e-09
4.14286e-09
3.97835e-09
3.86378e-09
2.59292e-09
3.61114e-09
2.45165e-09
3.62543e-09
3.32425e-09
7.26345e-09
4.2554e-09
7.10685e-09
3.78933e-09
4.60829e-09
2.38957e-09
3.45556e-09
3.81984e-09
3.51191e-09
7.59445e-09
2.98644e-09
7.53186e-09
3.99164e-09
3.93184e-09
3.73297e-09
3.53475e-09
2.40759e-09
3.33674e-09
2.28516e-09
3.31077e-09
3.05434e-09
7.03889e-09
3.67648e-09
6.78183e-09
3.41975e-09
3.21763e-09
2.20657e-09
2.73463e-09
3.49226e-09
3.22365e-09
7.49884e-09
2.6412e-09
7.33754e-09
3.75956e-09
3.6792e-09
3.40151e-09
3.28253e-09
2.24801e-09
3.14718e-09
2.14974e-09
3.04422e-09
2.80125e-09
6.66998e-09
3.35253e-09
6.19476e-09
3.20206e-09
2.62794e-09
2.06089e-09
2.40858e-09
3.20745e-09
2.98261e-09
7.27826e-09
2.42231e-09
7.10994e-09
3.51178e-09
3.37191e-09
3.17864e-09
3.10917e-09
2.12128e-09
3.02113e-09
2.05028e-09
2.79472e-09
2.5863e-09
5.99306e-09
3.16216e-09
5.36976e-09
3.07547e-09
2.35743e-09
1.95022e-09
2.25374e-09
2.97122e-09
2.79678e-09
7.02632e-09
2.32208e-09
6.54554e-09
3.14336e-09
3.16067e-09
2.98137e-09
2.99834e-09
2.03099e-09
2.94859e-09
1.98891e-09
2.58311e-09
2.41665e-09
5.17908e-09
3.06034e-09
4.69065e-09
3.03084e-09
2.22992e-09
1.87526e-09
2.17186e-09
2.7904e-09
2.66122e-09
6.32031e-09
2.29124e-09
5.66161e-09
2.84803e-09
2.96684e-09
2.80432e-09
2.94247e-09
1.97834e-09
2.94748e-09
1.95999e-09
2.4171e-09
2.29148e-09
4.53466e-09
3.02965e-09
4.05026e-09
3.03543e-09
2.15567e-09
1.83581e-09
2.12641e-09
2.65899e-09
2.57079e-09
5.46296e-09
2.29625e-09
4.92541e-09
2.66103e-09
2.79662e-09
2.70376e-09
2.95602e-09
1.95682e-09
3.00141e-09
1.9595e-09
2.29494e-09
2.20413e-09
3.93299e-09
3.04374e-09
3.66651e-09
3.09024e-09
2.12013e-09
1.82973e-09
2.12275e-09
2.57224e-09
2.51974e-09
4.80783e-09
2.30472e-09
4.59531e-09
2.58944e-09
2.70492e-09
2.64327e-09
3.02088e-09
1.96383e-09
3.10873e-09
1.99351e-09
2.2107e-09
2.15321e-09
3.59015e-09
3.11206e-09
3.42826e-09
3.19937e-09
2.12829e-09
1.86015e-09
2.14884e-09
2.52623e-09
2.50323e-09
4.53416e-09
2.33759e-09
4.40816e-09
2.55242e-09
2.6457e-09
2.58455e-09
3.14539e-09
2.00768e-09
3.25054e-09
2.06518e-09
2.16613e-09
2.14187e-09
3.38901e-09
3.23776e-09
3.1824e-09
3.39613e-09
2.16401e-09
1.92773e-09
2.22702e-09
2.5166e-09
2.52808e-09
4.38964e-09
2.39727e-09
4.30991e-09
2.54914e-09
2.59217e-09
2.54149e-09
3.28301e-09
2.09148e-09
3.38128e-09
2.19089e-09
2.16333e-09
2.18046e-09
3.08836e-09
3.45998e-09
2.88558e-09
3.6703e-09
2.25263e-09
2.0444e-09
2.35289e-09
2.55102e-09
2.59953e-09
4.26487e-09
2.5042e-09
4.14007e-09
2.58555e-09
2.56617e-09
2.59835e-09
3.41545e-09
2.23291e-09
3.52835e-09
2.38535e-09
2.21452e-09
2.28472e-09
2.84484e-09
3.74682e-09
2.7786e-09
3.97603e-09
2.39589e-09
2.22659e-09
2.54413e-09
2.63298e-09
2.71743e-09
4.12949e-09
2.66356e-09
4.17931e-09
2.69932e-09
2.64368e-09
2.79499e-09
3.58702e-09
2.44661e-09
3.86336e-09
2.68877e-09
2.34042e-09
2.48688e-09
2.78366e-09
4.0578e-09
2.92605e-09
4.32974e-09
2.59815e-09
2.50625e-09
2.84296e-09
2.77282e-09
2.96902e-09
4.25221e-09
2.94382e-09
4.60215e-09
2.94528e-09
2.89779e-09
3.19727e-09
3.99123e-09
2.78124e-09
4.40607e-09
3.15404e-09
2.57766e-09
2.86152e-09
2.97794e-09
4.44259e-09
3.17892e-09
4.98207e-09
2.92703e-09
2.93985e-09
3.34628e-09
3.07427e-09
3.4515e-09
4.72435e-09
3.38498e-09
5.30951e-09
3.41643e-09
3.34684e-09
3.8329e-09
4.55556e-09
3.3101e-09
5.12466e-09
3.82134e-09
3.01854e-09
3.48399e-09
3.28236e-09
5.19939e-09
3.74392e-09
5.94074e-09
3.44317e-09
3.573e-09
4.05975e-09
3.63011e-09
4.24574e-09
5.54485e-09
4.06207e-09
6.29539e-09
4.31872e-09
4.08186e-09
4.96414e-09
5.32758e-09
4.078e-09
6.08798e-09
4.85657e-09
3.74975e-09
4.58805e-09
3.93228e-09
6.29499e-09
4.75765e-09
7.13073e-09
4.30848e-09
4.56222e-09
4.97072e-09
4.55459e-09
5.3568e-09
6.7216e-09
4.99511e-09
7.63886e-09
5.44067e-09
5.31062e-09
6.4884e-09
6.32471e-09
5.16959e-09
7.12325e-09
6.53023e-09
5.00371e-09
6.68177e-09
5.02931e-09
7.48681e-09
6.12534e-09
8.96979e-09
5.32656e-09
6.1495e-09
6.70497e-09
5.81045e-09
7.49487e-09
7.89049e-09
6.6623e-09
9.8396e-09
8.05463e-09
7.24233e-09
1.03259e-08
7.50342e-09
6.99325e-09
9.13286e-09
8.65949e-09
7.40615e-09
9.9598e-09
6.65328e-09
9.30973e-09
8.50887e-09
1.03711e-08
7.11641e-09
8.1911e-09
8.89364e-09
7.95823e-09
1.00073e-08
1.0534e-08
8.55358e-09
1.19146e-08
1.18072e-08
1.13967e-08
1.58847e-08
9.71401e-09
9.55695e-09
1.19716e-08
1.16672e-08
1.12986e-08
1.55099e-08
9.13368e-09
1.10178e-08
1.17427e-08
1.35544e-08
9.82516e-09
1.1209e-08
1.20381e-08
1.14008e-08
1.70197e-08
1.2857e-08
1.20697e-08
1.48448e-08
1.62136e-08
1.77304e-08
2.58738e-08
1.27852e-08
1.25308e-08
1.61688e-08
1.73455e-08
1.70902e-08
2.90733e-08
1.26625e-08
1.43919e-08
1.62623e-08
1.70962e-08
1.27582e-08
1.67401e-08
1.65212e-08
1.87447e-08
2.57363e-08
1.53238e-08
1.65172e-08
1.89865e-08
2.55166e-08
2.89824e-08
4.07286e-08
1.75962e-08
1.86267e-08
2.19166e-08
2.1089e-08
3.1563e-08
3.54952e-08
1.77209e-08
1.82281e-08
2.20646e-08
2.22439e-08
1.77604e-08
2.04768e-08
2.32447e-08
2.86162e-08
4.15149e-08
2.09073e-08
2.28876e-08
2.90299e-08
4.64383e-08
4.47213e-08
6.71527e-08
2.38551e-08
2.31596e-08
3.07063e-08
3.26375e-08
3.87238e-08
7.66415e-08
2.40244e-08
2.4203e-08
3.07166e-08
3.06562e-08
2.55299e-08
3.1943e-08
3.23969e-08
4.59806e-08
6.80376e-08
3.1324e-08
3.09713e-08
3.47244e-08
7.13004e-08
7.38842e-08
1.03354e-07
3.34264e-08
3.55135e-08
4.17308e-08
4.26819e-08
8.58049e-08
1.06655e-07
3.33601e-08
3.3053e-08
4.1752e-08
4.12502e-08
3.40249e-08
4.18405e-08
3.98484e-08
7.38516e-08
1.00728e-07
3.53101e-08
4.25724e-08
4.09614e-08
8.94308e-08
1.10911e-07
1.44927e-07
4.45023e-08
4.46381e-08
5.45487e-08
5.39665e-08
1.11053e-07
1.38843e-07
4.45539e-08
4.40339e-08
5.45476e-08
5.56386e-08
4.39368e-08
5.32669e-08
5.76903e-08
1.09071e-07
1.49459e-07
4.58114e-08
5.8201e-08
5.98624e-08
1.60919e-07
1.55627e-07
2.06623e-07
5.83608e-08
5.88083e-08
7.13506e-08
7.15004e-08
1.51094e-07
2.10619e-07
5.83182e-08
5.96372e-08
7.10285e-08
6.96472e-08
6.07611e-08
7.0592e-08
7.13144e-08
1.61377e-07
2.05637e-07
6.20899e-08
7.2109e-08
7.18701e-08
2.03282e-07
2.19999e-07
2.77769e-07
7.61339e-08
7.55599e-08
9.06005e-08
9.11212e-08
2.22821e-07
2.7379e-07
7.58315e-08
7.44282e-08
9.05737e-08
9.18591e-08
7.65445e-08
9.01884e-08
9.10116e-08
2.16753e-07
2.78838e-07
7.79685e-08
9.46702e-08
9.2233e-08
2.79385e-07
2.92443e-07
3.50002e-07
9.59149e-08
9.67813e-08
1.12849e-07
1.13383e-07
2.9012e-07
3.57252e-07
9.57147e-08
9.70781e-08
1.12504e-07
1.12478e-07
9.60524e-08
1.12052e-07
1.12117e-07
2.96428e-07
3.53723e-07
9.68537e-08
1.17199e-07
1.12065e-07
3.41734e-07
3.65469e-07
4.28021e-07
1.18472e-07
1.19074e-07
1.38033e-07
1.37045e-07
3.7131e-07
4.25554e-07
1.18284e-07
1.17826e-07
1.37311e-07
1.34937e-07
1.17944e-07
1.369e-07
1.40123e-07
3.64896e-07
4.17773e-07
1.18135e-07
1.36856e-07
1.38617e-07
4.33515e-07
4.44172e-07
5.00442e-07
1.45337e-07
1.44177e-07
1.65828e-07
1.67738e-07
4.42987e-07
5.02393e-07
1.44309e-07
1.42032e-07
1.65352e-07
1.69353e-07
1.47722e-07
1.65952e-07
1.64825e-07
4.36641e-07
5.07655e-07
1.45155e-07
1.70934e-07
1.64851e-07
5.00281e-07
5.16566e-07
5.77112e-07
1.72976e-07
1.74232e-07
1.99326e-07
1.94738e-07
5.15984e-07
5.72048e-07
1.72993e-07
1.77722e-07
1.99335e-07
1.95076e-07
1.71683e-07
1.93955e-07
2.04745e-07
5.23871e-07
5.73074e-07
1.75314e-07
2.02398e-07
2.1109e-07
5.86353e-07
5.91793e-07
6.40052e-07
2.09234e-07
2.04719e-07
2.34582e-07
2.40156e-07
5.8965e-07
6.4687e-07
2.08537e-07
2.01614e-07
2.32846e-07
2.35903e-07
2.14416e-07
2.39444e-07
2.32278e-07
5.86249e-07
6.38663e-07
2.18712e-07
2.35459e-07
2.31924e-07
6.26158e-07
6.53112e-07
6.91112e-07
2.42062e-07
2.49433e-07
2.68169e-07
2.66797e-07
6.60133e-07
6.90476e-07
2.40524e-07
2.47932e-07
2.68542e-07
2.71206e-07
2.37012e-07
2.64457e-07
2.62568e-07
6.55312e-07
6.94541e-07
2.36244e-07
2.71194e-07
2.62349e-07
6.88931e-07
7.04715e-07
7.49103e-07
2.78636e-07
2.73638e-07
3.13259e-07
3.10294e-07
7.0178e-07
7.4649e-07
2.79416e-07
2.76619e-07
3.12608e-07
3.07334e-07
2.80289e-07
3.09998e-07
3.26174e-07
7.04973e-07
7.418e-07
2.81131e-07
3.09897e-07
3.29294e-07
7.61565e-07
7.61232e-07
7.92515e-07
3.23915e-07
3.23676e-07
3.54103e-07
3.58254e-07
7.61193e-07
7.971e-07
3.22658e-07
3.217e-07
3.53309e-07
3.56629e-07
3.34403e-07
3.57794e-07
3.52642e-07
7.55855e-07
7.96267e-07
3.37722e-07
3.54863e-07
3.55172e-07
7.92076e-07
8.0338e-07
8.33652e-07
3.65468e-07
3.67027e-07
3.98071e-07
3.99161e-07
8.07996e-07
8.35926e-07
3.64627e-07
3.66886e-07
3.97689e-07
3.9946e-07
3.62821e-07
3.97833e-07
3.97792e-07
8.06738e-07
8.32944e-07
3.64712e-07
4.01224e-07
3.99821e-07
8.33508e-07
8.44043e-07
8.7187e-07
4.09086e-07
4.12626e-07
4.48617e-07
4.43821e-07
8.43912e-07
8.60226e-07
4.0862e-07
4.10701e-07
4.46562e-07
4.42944e-07
4.06781e-07
4.42307e-07
4.44539e-07
8.42952e-07
8.69755e-07
4.07732e-07
4.40881e-07
4.41006e-07
8.71783e-07
8.81403e-07
9.04985e-07
4.59937e-07
4.51311e-07
4.88819e-07
4.84182e-07
8.68774e-07
9.11541e-07
4.58228e-07
4.54608e-07
4.90507e-07
4.94927e-07
4.58765e-07
4.83179e-07
4.91553e-07
8.7933e-07
9.07008e-07
4.55814e-07
4.95399e-07
4.93118e-07
9.0362e-07
9.1404e-07
9.4095e-07
5.03003e-07
5.03053e-07
5.43675e-07
5.58894e-07
9.26789e-07
9.53201e-07
5.03666e-07
5.05831e-07
5.41951e-07
5.41566e-07
5.01309e-07
5.57547e-07
5.37033e-07
9.17082e-07
9.42504e-07
5.03118e-07
5.41646e-07
5.35311e-07
9.41322e-07
9.50321e-07
9.73239e-07
5.5439e-07
5.71093e-07
5.9433e-07
5.94971e-07
9.58232e-07
9.66787e-07
5.53545e-07
5.5676e-07
5.92505e-07
5.93488e-07
5.52309e-07
5.95587e-07
5.99265e-07
9.50479e-07
9.6523e-07
5.50329e-07
5.89992e-07
5.99286e-07
9.76095e-07
9.80753e-07
9.95903e-07
6.07577e-07
6.02386e-07
6.33749e-07
6.2444e-07
9.7355e-07
9.95063e-07
6.05214e-07
6.01682e-07
6.3468e-07
6.2575e-07
6.1097e-07
6.22974e-07
6.34631e-07
9.7129e-07
9.92633e-07
6.1153e-07
6.22995e-07
6.3564e-07
9.96562e-07
1.00234e-06
1.02659e-06
6.42122e-07
6.36577e-07
6.79968e-07
6.90047e-07
1.00328e-06
1.03053e-06
6.43896e-07
6.38492e-07
6.81167e-07
6.91963e-07
6.41667e-07
6.88341e-07
6.84166e-07
1.00379e-06
1.03813e-06
6.42766e-07
6.93349e-07
6.83364e-07
1.02794e-06
1.03709e-06
1.0629e-06
6.96715e-07
7.03768e-07
7.37951e-07
7.30903e-07
1.03855e-06
1.05557e-06
6.95853e-07
7.07743e-07
7.36803e-07
7.3911e-07
6.98494e-07
7.27171e-07
7.37138e-07
1.04595e-06
1.06087e-06
6.96362e-07
7.42004e-07
7.3412e-07
1.06411e-06
1.06864e-06
1.08292e-06
7.46681e-07
7.37872e-07
7.72466e-07
7.68933e-07
1.06183e-06
1.08629e-06
7.47353e-07
7.45913e-07
7.72497e-07
7.67822e-07
7.4935e-07
7.80476e-07
7.85926e-07
1.06633e-06
1.08187e-06
7.47391e-07
7.7055e-07
7.87312e-07
1.09863e-06
1.09049e-06
1.11813e-06
7.84401e-07
7.85273e-07
8.25205e-07
8.33183e-07
1.09699e-06
1.12427e-06
7.83308e-07
7.80793e-07
8.23636e-07
8.20624e-07
7.96561e-07
8.26014e-07
8.1478e-07
1.08922e-06
1.11479e-06
7.99398e-07
8.14372e-07
8.18785e-07
1.10382e-06
1.12503e-06
1.13581e-06
8.35629e-07
8.43771e-07
8.54636e-07
8.59287e-07
1.12972e-06
1.13212e-06
8.33726e-07
8.31097e-07
8.54086e-07
8.57704e-07
8.19938e-07
8.50814e-07
8.39139e-07
1.12141e-06
1.13325e-06
8.22684e-07
8.54014e-07
8.37767e-07
1.11299e-06
1.14019e-06
1.15797e-06
8.61078e-07
8.61663e-07
8.90288e-07
8.74625e-07
1.1336e-06
1.14251e-06
8.63337e-07
8.63762e-07
8.91286e-07
8.84989e-07
8.48075e-07
8.75413e-07
9.08114e-07
1.13726e-06
1.15218e-06
8.45331e-07
8.78991e-07
9.0947e-07
1.18698e-06
1.16558e-06
1.19266e-06
9.00461e-07
8.87646e-07
9.34539e-07
9.55194e-07
1.15474e-06
1.22543e-06
8.985e-07
8.9746e-07
9.2946e-07
9.44812e-07
9.26582e-07
9.64451e-07
9.52351e-07
1.16233e-06
1.21219e-06
9.35721e-07
9.53788e-07
9.62445e-07
1.22537e-06
1.20209e-06
1.22567e-06
9.47599e-07
9.64364e-07
9.79241e-07
9.63187e-07
1.23077e-06
1.20319e-06
9.43909e-07
9.58408e-07
9.82441e-07
9.75035e-07
9.55643e-07
9.61658e-07
9.61129e-07
1.22066e-06
1.22015e-06
9.62183e-07
9.70873e-07
9.53238e-07
1.20689e-06
1.22876e-06
1.22362e-06
9.82001e-07
9.61358e-07
9.82641e-07
9.70737e-07
1.20189e-06
1.1972e-06
9.87348e-07
9.76142e-07
9.88959e-07
9.78765e-07
9.60384e-07
9.65508e-07
9.59573e-07
1.22059e-06
1.20785e-06
9.4748e-07
9.71605e-07
9.46376e-07
1.17729e-06
1.22547e-06
1.24149e-06
9.84474e-07
9.80076e-07
1.00503e-06
1.02949e-06
1.20682e-06
1.27797e-06
9.8984e-07
9.82325e-07
1.00457e-06
1.00728e-06
9.65719e-07
1.03819e-06
1.02295e-06
1.21071e-06
1.24364e-06
9.5463e-07
1.0031e-06
1.01268e-06
1.25714e-06
1.25196e-06
1.29609e-06
1.01925e-06
1.04605e-06
1.06854e-06
1.06659e-06
1.29272e-06
1.31109e-06
1.01446e-06
1.0239e-06
1.06165e-06
1.06699e-06
1.04974e-06
1.0689e-06
1.07796e-06
1.25867e-06
1.30337e-06
1.0441e-06
1.07262e-06
1.08983e-06
1.32844e-06
1.30174e-06
1.29746e-06
1.0751e-06
1.06699e-06
1.07598e-06
1.06355e-06
1.31224e-06
1.2814e-06
1.07133e-06
1.0733e-06
1.07736e-06
1.07731e-06
1.07721e-06
1.05658e-06
1.06432e-06
1.30819e-06
1.30129e-06
1.09108e-06
1.0822e-06
1.08452e-06
1.29951e-06
1.2981e-06
1.29097e-06
1.07494e-06
1.06122e-06
1.07694e-06
1.06625e-06
1.27951e-06
1.25848e-06
1.07706e-06
1.07699e-06
1.07855e-06
1.07595e-06
1.06065e-06
1.0579e-06
1.06432e-06
1.30172e-06
1.28822e-06
1.08012e-06
1.07871e-06
1.07493e-06
1.28092e-06
1.29496e-06
1.32748e-06
1.08146e-06
1.0729e-06
1.10786e-06
1.11501e-06
1.26321e-06
1.33482e-06
1.08233e-06
1.07856e-06
1.10631e-06
1.10268e-06
1.07164e-06
1.1158e-06
1.1113e-06
1.29051e-06
1.31746e-06
1.07786e-06
1.09946e-06
1.10233e-06
1.32922e-06
1.33975e-06
1.36747e-06
1.12306e-06
1.13319e-06
1.15258e-06
1.15805e-06
1.35414e-06
1.38951e-06
1.11988e-06
1.11793e-06
1.15026e-06
1.15341e-06
1.12815e-06
1.16526e-06
1.15117e-06
1.33017e-06
1.36728e-06
1.1158e-06
1.1506e-06
1.14288e-06
1.36615e-06
1.37069e-06
1.36123e-06
1.15522e-06
1.15859e-06
1.15587e-06
1.15528e-06
1.39196e-06
1.37151e-06
1.15445e-06
1.15772e-06
1.15692e-06
1.15872e-06
1.1518e-06
1.16125e-06
1.15174e-06
1.37157e-06
1.36464e-06
1.14605e-06
1.15755e-06
1.15067e-06
1.35505e-06
1.3619e-06
1.35858e-06
1.15571e-06
1.15405e-06
1.15974e-06
1.15762e-06
1.37125e-06
1.35887e-06
1.15681e-06
1.15824e-06
1.15975e-06
1.16163e-06
1.1526e-06
1.15874e-06
1.16245e-06
1.36531e-06
1.36264e-06
1.15273e-06
1.16218e-06
1.16382e-06
1.36375e-06
1.36323e-06
1.39679e-06
1.16338e-06
1.16168e-06
1.18903e-06
1.18484e-06
1.36264e-06
1.39041e-06
1.16334e-06
1.16543e-06
1.18849e-06
1.19019e-06
1.16774e-06
1.1813e-06
1.19698e-06
1.36781e-06
1.40083e-06
1.17091e-06
1.19285e-06
1.203e-06
1.41478e-06
1.40643e-06
1.41738e-06
1.19933e-06
1.19437e-06
1.21212e-06
1.20651e-06
1.3995e-06
1.40937e-06
1.19899e-06
1.199e-06
1.21246e-06
1.20831e-06
1.20429e-06
1.20746e-06
1.20708e-06
1.40849e-06
1.4096e-06
1.20832e-06
1.20772e-06
1.20759e-06
1.41151e-06
1.41837e-06
1.40242e-06
1.21202e-06
1.20681e-06
1.20921e-06
1.20879e-06
1.41037e-06
1.40325e-06
1.21242e-06
1.2081e-06
1.2096e-06
1.20519e-06
1.20425e-06
1.21002e-06
1.19888e-06
1.40989e-06
1.39065e-06
1.20341e-06
1.20202e-06
1.19785e-06
1.38212e-06
1.40341e-06
1.41753e-06
1.2093e-06
1.2112e-06
1.22052e-06
1.22846e-06
1.40688e-06
1.43422e-06
1.20954e-06
1.20567e-06
1.22006e-06
1.22585e-06
1.20092e-06
1.22913e-06
1.2308e-06
1.39228e-06
1.42954e-06
1.20018e-06
1.22779e-06
1.23262e-06
1.43427e-06
1.42794e-06
1.45699e-06
1.22956e-06
1.23627e-06
1.2547e-06
1.24733e-06
1.44255e-06
1.44745e-06
1.22968e-06
1.24054e-06
1.25586e-06
1.26185e-06
1.24473e-06
1.24722e-06
1.25825e-06
1.44576e-06
1.47118e-06
1.24637e-06
1.26132e-06
1.25672e-06
1.46494e-06
1.45952e-06
1.44404e-06
1.25636e-06
1.24733e-06
1.25303e-06
1.24427e-06
1.44799e-06
1.42811e-06
1.257e-06
1.26118e-06
1.25157e-06
1.24506e-06
1.25702e-06
1.24328e-06
1.24395e-06
1.47157e-06
1.43199e-06
1.25433e-06
1.24342e-06
1.24045e-06
1.4296e-06
1.44427e-06
1.4401e-06
1.25075e-06
1.24365e-06
1.24974e-06
1.25075e-06
1.42867e-06
1.43926e-06
1.24887e-06
1.24068e-06
1.24849e-06
1.24267e-06
1.24012e-06
1.25065e-06
1.24078e-06
1.43138e-06
1.42948e-06
1.23849e-06
1.24553e-06
1.24429e-06
1.42628e-06
1.44557e-06
1.48259e-06
1.25277e-06
1.25994e-06
1.28054e-06
1.29778e-06
1.45142e-06
1.51222e-06
1.25233e-06
1.2493e-06
1.27941e-06
1.2823e-06
1.24648e-06
1.29749e-06
1.28549e-06
1.43726e-06
1.48494e-06
1.25168e-06
1.28388e-06
1.29135e-06
1.49507e-06
1.49138e-06
1.49288e-06
1.28961e-06
1.30209e-06
1.29539e-06
1.29493e-06
1.51906e-06
1.49808e-06
1.28843e-06
1.29155e-06
1.29496e-06
1.29805e-06
1.29729e-06
1.29536e-06
1.30393e-06
1.4946e-06
1.50067e-06
1.30035e-06
1.29679e-06
1.30327e-06
1.51049e-06
1.4931e-06
1.47081e-06
1.29317e-06
1.28668e-06
1.2802e-06
1.26075e-06
1.49438e-06
1.43678e-06
1.29328e-06
1.29646e-06
1.28203e-06
1.28369e-06
1.30027e-06
1.26136e-06
1.27837e-06
1.50112e-06
1.47321e-06
1.29824e-06
1.28233e-06
1.27355e-06
1.46134e-06
1.47117e-06
1.46565e-06
1.27651e-06
1.25741e-06
1.27432e-06
1.26368e-06
1.43593e-06
1.4384e-06
1.27871e-06
1.2793e-06
1.27612e-06
1.27536e-06
1.27238e-06
1.26366e-06
1.26948e-06
1.47284e-06
1.46166e-06
1.26671e-06
1.27138e-06
1.26278e-06
1.44994e-06
1.46898e-06
1.49121e-06
1.27649e-06
1.27235e-06
1.29574e-06
1.31497e-06
1.44926e-06
1.52085e-06
1.27747e-06
1.27653e-06
1.29282e-06
1.29181e-06
1.27294e-06
1.31536e-06
1.30054e-06
1.46493e-06
1.4876e-06
1.26607e-06
1.28992e-06
1.29584e-06
1.49852e-06
1.50069e-06
1.52759e-06
1.30507e-06
1.32628e-06
1.3245e-06
1.33658e-06
1.53528e-06
1.55627e-06
1.30138e-06
1.29953e-06
1.32161e-06
1.3196e-06
1.31131e-06
1.33723e-06
1.32557e-06
1.49667e-06
1.52395e-06
1.30813e-06
1.32314e-06
1.32683e-06
1.53372e-06
1.53155e-06
1.52049e-06
1.32612e-06
1.33529e-06
1.32168e-06
1.31695e-06
1.55717e-06
1.51599e-06
1.3239e-06
1.32318e-06
1.32139e-06
1.32393e-06
1.32551e-06
1.3151e-06
1.31541e-06
1.52907e-06
1.52621e-06
1.32722e-06
1.32574e-06
1.31881e-06
1.51379e-06
1.52013e-06
1.49907e-06
1.31708e-06
1.30888e-06
1.30404e-06
1.29446e-06
1.51345e-06
1.48161e-06
1.31751e-06
1.32125e-06
1.30644e-06
1.31073e-06
1.30999e-06
1.29381e-06
1.30202e-06
1.52656e-06
1.50748e-06
1.31362e-06
1.31011e-06
1.3047e-06
1.49687e-06
1.5e-06
1.50142e-06
1.30253e-06
1.29373e-06
1.30414e-06
1.29919e-06
1.48231e-06
1.48873e-06
1.30493e-06
1.30854e-06
1.30542e-06
1.30712e-06
1.3021e-06
1.30123e-06
1.3084e-06
1.50824e-06
1.50453e-06
1.3045e-06
1.30747e-06
1.30788e-06
1.50656e-06
1.50526e-06
1.51585e-06
1.30703e-06
1.30437e-06
1.31805e-06
1.32255e-06
1.49588e-06
1.52274e-06
1.30717e-06
1.30757e-06
1.31506e-06
1.30979e-06
1.31192e-06
1.32293e-06
1.31866e-06
1.5067e-06
1.50591e-06
1.31016e-06
1.30952e-06
1.31464e-06
1.51688e-06
1.51936e-06
1.52299e-06
1.32023e-06
1.32507e-06
1.32282e-06
1.32392e-06
1.52802e-06
1.52905e-06
1.31696e-06
1.31019e-06
1.32026e-06
1.31572e-06
1.31914e-06
1.32265e-06
1.31923e-06
1.50727e-06
1.51285e-06
1.31492e-06
1.31387e-06
1.3164e-06
1.51946e-06
1.52535e-06
1.52567e-06
1.32294e-06
1.32172e-06
1.32201e-06
1.31693e-06
1.52999e-06
1.51725e-06
1.3214e-06
1.31949e-06
1.32315e-06
1.32753e-06
1.31971e-06
1.3164e-06
1.32076e-06
1.51867e-06
1.53265e-06
1.31833e-06
1.32775e-06
1.32293e-06
1.52483e-06
1.52711e-06
1.52276e-06
1.32119e-06
1.31664e-06
1.31961e-06
1.31931e-06
1.51828e-06
1.52066e-06
1.32307e-06
1.3279e-06
1.32129e-06
1.32518e-06
1.32057e-06
1.31903e-06
1.31931e-06
1.53527e-06
1.53032e-06
1.32302e-06
1.32527e-06
1.32129e-06
1.52205e-06
1.52433e-06
1.52843e-06
1.31969e-06
1.32173e-06
1.32369e-06
1.32934e-06
1.5257e-06
1.54006e-06
1.32102e-06
1.32378e-06
1.32182e-06
1.32118e-06
1.31939e-06
1.3298e-06
1.32464e-06
1.5314e-06
1.52605e-06
1.32095e-06
1.32119e-06
1.32226e-06
1.52903e-06
1.53124e-06
1.52907e-06
1.32481e-06
1.32961e-06
1.32393e-06
1.32443e-06
1.54285e-06
1.53218e-06
1.32235e-06
1.32095e-06
1.32184e-06
1.32071e-06
1.32653e-06
1.3253e-06
1.32637e-06
1.52748e-06
1.5265e-06
1.32374e-06
1.32124e-06
1.32433e-06
1.53289e-06
1.53009e-06
1.52166e-06
1.32212e-06
1.32105e-06
1.31607e-06
1.31145e-06
1.53227e-06
1.51321e-06
1.32072e-06
1.32058e-06
1.31693e-06
1.31773e-06
1.32423e-06
1.31153e-06
1.31553e-06
1.52818e-06
1.52283e-06
1.32314e-06
1.31784e-06
1.31643e-06
1.52076e-06
1.52293e-06
1.52361e-06
1.31477e-06
1.31034e-06
1.31399e-06
1.31125e-06
1.5142e-06
1.51753e-06
1.31605e-06
1.31669e-06
1.31542e-06
1.31627e-06
1.31352e-06
1.3107e-06
1.31259e-06
1.52407e-06
1.52481e-06
1.31477e-06
1.31555e-06
1.31391e-06
1.52091e-06
1.52639e-06
1.52876e-06
1.31454e-06
1.31361e-06
1.31778e-06
1.31987e-06
1.52222e-06
1.53262e-06
1.3159e-06
1.31696e-06
1.31662e-06
1.31648e-06
1.31358e-06
1.31917e-06
1.31773e-06
1.52788e-06
1.52828e-06
1.31477e-06
1.31684e-06
1.31758e-06
1.53011e-06
1.53049e-06
1.52395e-06
1.31779e-06
1.32005e-06
1.31359e-06
1.31516e-06
1.53512e-06
1.52773e-06
1.31627e-06
1.31516e-06
1.31184e-06
1.30963e-06
1.31767e-06
1.31495e-06
1.31265e-06
1.52937e-06
1.51941e-06
1.31726e-06
1.30984e-06
1.31116e-06
1.52228e-06
1.52488e-06
1.51641e-06
1.31116e-06
1.3119e-06
1.30393e-06
1.30218e-06
1.52826e-06
1.51316e-06
1.30986e-06
1.30833e-06
1.30485e-06
1.30659e-06
1.31037e-06
1.30311e-06
1.30557e-06
1.52053e-06
1.51974e-06
1.309e-06
1.30634e-06
1.30537e-06
1.51725e-06
1.5178e-06
1.51847e-06
1.30289e-06
1.30109e-06
1.30224e-06
1.30161e-06
1.51433e-06
1.51672e-06
1.3042e-06
1.30662e-06
1.30326e-06
1.30493e-06
1.30507e-06
1.30239e-06
1.30472e-06
1.52262e-06
1.52232e-06
1.30516e-06
1.30494e-06
1.30496e-06
1.52237e-06
1.52058e-06
1.51732e-06
1.30244e-06
1.30302e-06
1.30104e-06
1.30296e-06
1.52041e-06
1.52168e-06
1.30295e-06
1.30367e-06
1.29937e-06
1.29742e-06
1.30445e-06
1.3028e-06
1.29955e-06
1.52345e-06
1.51319e-06
1.30429e-06
1.29746e-06
1.29843e-06
1.51587e-06
1.51858e-06
1.51193e-06
1.29967e-06
1.30095e-06
1.29362e-06
1.29203e-06
1.52273e-06
1.50984e-06
1.29831e-06
1.29608e-06
1.29273e-06
1.29203e-06
1.29759e-06
1.29125e-06
1.29037e-06
1.51421e-06
1.50899e-06
1.29639e-06
1.29177e-06
1.29042e-06
1.50678e-06
1.51311e-06
1.50372e-06
1.29201e-06
1.28924e-06
1.28387e-06
1.28151e-06
1.51045e-06
1.49861e-06
1.29154e-06
1.29134e-06
1.28476e-06
1.28722e-06
1.28934e-06
1.28164e-06
1.28601e-06
1.51052e-06
1.50784e-06
1.28972e-06
1.28755e-06
1.28696e-06
1.50699e-06
1.50475e-06
1.49964e-06
1.28232e-06
1.28063e-06
1.27873e-06
1.27975e-06
1.49991e-06
1.50074e-06
1.28337e-06
1.28623e-06
1.27908e-06
1.28109e-06
1.28551e-06
1.28027e-06
1.28158e-06
1.50922e-06
1.50416e-06
1.28647e-06
1.28149e-06
1.28169e-06
1.50546e-06
1.50144e-06
1.50043e-06
1.27854e-06
1.28014e-06
1.27663e-06
1.28002e-06
1.50385e-06
1.50685e-06
1.27865e-06
1.28017e-06
1.27556e-06
1.27442e-06
1.28046e-06
1.27956e-06
1.27359e-06
1.50547e-06
1.49746e-06
1.28039e-06
1.27382e-06
1.2722e-06
1.49533e-06
1.50173e-06
1.49465e-06
1.27572e-06
1.2789e-06
1.2687e-06
1.26945e-06
1.50853e-06
1.49821e-06
1.27462e-06
1.27317e-06
1.26792e-06
1.26657e-06
1.2724e-06
1.26911e-06
1.26704e-06
1.49851e-06
1.49123e-06
1.27101e-06
1.26637e-06
1.26658e-06
1.49125e-06
1.4958e-06
1.46797e-06
1.26748e-06
1.26717e-06
1.23926e-06
1.2335e-06
1.49862e-06
1.45775e-06
1.26684e-06
1.26589e-06
1.24012e-06
1.24127e-06
1.26645e-06
1.23382e-06
1.24099e-06
1.49262e-06
1.47002e-06
1.2663e-06
1.24183e-06
1.24203e-06
1.47068e-06
1.44588e-06
1.20054e-06
1.19498e-06
1.43518e-06
1.20154e-06
1.20331e-06
7.54001e-07
7.6032e-07
7.59996e-07
1.20272e-06
1.4491e-06
1.20375e-06
1.017e-09
2.99481e-09
6.40317e-10
7.47958e-10
1.75816e-09
3.73591e-09
2.72861e-09
6.22577e-10
2.91268e-09
4.44633e-09
8.1518e-10
1.84438e-08
5.21764e-09
7.07663e-09
4.42972e-09
7.34546e-09
1.77851e-07
6.01933e-09
2.79058e-07
1.45572e-06
2.91412e-06
8.73437e-09
1.70011e-07
7.36238e-09
2.69948e-07
1.35093e-09
1.69063e-09
2.164e-09
1.86319e-09
1.33145e-09
1.68311e-09
2.14918e-09
1.74168e-09
7.40661e-08
1.12672e-09
3.26131e-09
1.7592e-09
5.31806e-08
1.11533e-09
1.78714e-06
3.59568e-06
2.71895e-09
1.87436e-09
1.05732e-07
5.37435e-09
2.98943e-09
1.81208e-09
8.21809e-08
2.19164e-07
2.15852e-07
4.84105e-09
1.86989e-07
1.85078e-07
1.66815e-08
4.98182e-07
1.22068e-08
7.11785e-07
6.64164e-06
9.69253e-06
1.84559e-08
4.94498e-07
1.32946e-08
6.96521e-07
1.31732e-09
1.66622e-09