/*--------------------------------*- C++ -*----------------------------------*\
| =========                 |                                                 |
| \\      /  F ield         | OpenFOAM: The Open Source CFD Toolbox           |
|  \\    /   O peration     | Version:  v2012                                 |
|   \\  /    A nd           | Website:  www.openfoam.com                      |
|    \\/     M anipulation  |                                                 |
\*---------------------------------------------------------------------------*/
FoamFile
{
    version     2.0;
    format      ascii;
    class       volScalarField;
    location    "637.5";
    object      p;
}
// * * * * * * * * * * * * * * * * * * * * * * * * * * * * * * * * * * * * * //

dimensions      [0 2 -2 0 0 0 0];


internalField   nonuniform List<scalar> 
171728
(
0.00351976
0.00351871
0.00351885
0.00351955
0.00348421
0.00348284
0.00348284
0.00348569
0.0034457
0.00344388
0.00344374
0.00344624
0.00340158
0.00339996
0.00339985
0.00340222
0.00335347
0.00335202
0.00335206
0.0033544
0.00330454
0.00330324
0.00330322
0.00330563
0.00325631
0.00325511
0.00325503
0.00325757
0.00320903
0.00320801
0.00320798
0.0032104
0.00316271
0.00316181
0.00316181
0.00316423
0.00311736
0.00311655
0.00311654
0.00311903
0.00307291
0.00307222
0.00307224
0.00307463
0.00302922
0.00302866
0.00302859
0.00303088
0.00298616
0.0029857
0.00298581
0.00298821
0.00294342
0.00294305
0.00294303
0.00294544
0.002901
0.00290073
0.00290067
0.00290302
0.002859
0.00285875
0.0028587
0.00286128
0.00281727
0.00281712
0.00281713
0.00281922
0.00277595
0.00277582
0.00277591
0.00277786
0.00273493
0.0027348
0.00273495
0.00273707
0.00269424
0.00269428
0.00269406
0.00269607
0.00265401
0.00265422
0.00265411
0.00265623
0.00261398
0.00261404
0.00261391
0.00261567
0.00257424
0.00257443
0.00257438
0.00257606
0.00253477
0.00253502
0.00253493
0.00253678
0.0024956
0.00249593
0.00249583
0.00249742
0.00245662
0.00245695
0.00245703
0.00245875
0.00241787
0.00241829
0.00241822
0.00242011
0.00237933
0.00237978
0.00237982
0.0023815
0.00234102
0.00234153
0.00234138
0.0023434
0.00230285
0.00230342
0.00230343
0.00230525
0.00226489
0.00226545
0.0022655
0.0022673
0.0022271
0.00222771
0.00222765
0.00222982
0.00218942
0.00219012
0.00219005
0.00219167
0.00215183
0.00215234
0.00215247
0.00215444
0.00211456
0.00211526
0.00211516
0.00211706
0.00207727
0.00207783
0.00207785
0.00207959
0.00204009
0.00204064
0.00204059
0.00204255
0.00200308
0.00200342
0.00200351
0.00200552
0.00196619
0.00196668
0.00196667
0.00196847
0.00192967
0.00193015
0.00192993
0.00193196
0.00189291
0.00189284
0.00189314
0.0018952
0.0018564
0.00185674
0.00185658
0.00185845
0.00182008
0.00182035
0.00182048
0.00182246
0.00178408
0.00178388
0.00178382
0.00178609
0.00174786
0.00174807
0.00174791
0.00175007
0.00171198
0.00171185
0.00171205
0.00171369
0.00167596
0.00167565
0.00167567
0.00167778
0.00163999
0.00163994
0.0016399
0.00164258
0.00160509
0.00160579
0.00160557
0.00160697
0.00156991
0.0015684
0.00156901
0.00157086
0.00153341
0.00153288
0.00153271
0.0015349
0.00149796
0.00149922
0.0014986
0.00150109
0.00146403
0.00146351
0.0014645
0.00146617
0.00142954
0.0014278
0.00142805
0.00142959
0.00139292
0.00139294
0.00139253
0.0013946
0.00135773
0.00135873
0.00135809
0.00136055
0.00132374
0.00132348
0.00132375
0.00132549
0.00128936
0.001288
0.00128837
0.00129003
0.00125392
0.00125366
0.00125375
0.00125573
0.00121904
0.00121934
0.00121929
0.00122149
0.00118443
0.00118418
0.0011839
0.00118582
0.00114923
0.00114874
0.00114864
0.00115033
0.00111495
0.00111516
0.00111529
0.0011173
0.00108082
0.0010805
0.00108095
0.00108269
0.0010457
0.00104508
0.00104458
0.00104661
0.00101096
0.00101112
0.00101108
0.00101292
0.000977489
0.000978023
0.000977883
0.000979925
0.000943347
0.000942391
0.000942591
0.000944545
0.000907428
0.000906637
0.000907064
0.000908632
0.000872698
0.000873219
0.000872901
0.000874982
0.000839024
0.000839835
0.000839107
0.00084149
0.000805493
0.000804741
0.000805063
0.000806776
0.000770106
0.000769068
0.00076976
0.000771269
0.000735189
0.000735174
0.000735201
0.000737208
0.000700998
0.000701652
0.00070123
0.000703455
0.000666321
0.000666667
0.000666195
0.000668341
0.00063121
0.000630648
0.000630834
0.00063264
0.000596141
0.000595576
0.000596179
0.000597823
0.000561852
0.000562009
0.000561868
0.000563847
0.00052769
0.000527929
0.000527498
0.000529672
0.00049274
0.00049249
0.000492675
0.000494603
0.000457337
0.000457104
0.00045736
0.000459182
0.000422373
0.000422425
0.000422328
0.000424324
0.000387459
0.000387561
0.00038736
0.000389483
0.000352309
0.000352169
0.000352138
0.000354127
0.00031702
0.000316862
0.000317096
0.000318963
0.000281897
0.000281919
0.000281916
0.000283936
0.000246721
0.000246762
0.000246522
0.000248579
0.00021127
0.000211087
0.00021124
0.000213135
0.000175625
0.000175578
0.000175728
0.000177722
0.000140136
0.000140229
0.000140102
0.000142174
0.000104747
0.000104714
0.000104564
0.000106533
6.90174e-05
6.88978e-05
6.89822e-05
7.09358e-05
3.38783e-05
3.31645e-05
3.34441e-05
3.52137e-05
5.71697e-06
6.73133e-06
6.72646e-06
4.82771e-06
0.00352423
0.00352179
0.0035216
0.00352405
0.00352188
0.00352196
0.0035281
0.00352809
0.0035282
0.00352811
0.0035216
0.00352192
0.00352435
0.00352191
0.00352201
0.00352432
0.00351947
0.00349037
0.00351873
0.00351867
0.00349219
0.00349224
0.00351934
0.00349042
0.00351875
0.00351885
0.00349221
0.0034924
0.00351879
0.00349222
0.0034922
0.00351959
0.00349039
0.00351884
0.00349222
0.00349213
0.00349038
0.00348566
0.00345172
0.00348284
0.00348282
0.00345396
0.00345395
0.00348566
0.0034517
0.00348278
0.00348266
0.00345404
0.00345396
0.00348293
0.00345396
0.00345405
0.00348567
0.00345168
0.00348286
0.00345409
0.00345404
0.00345174
0.00344623
0.00340834
0.00344392
0.00344388
0.00341139
0.00341142
0.00344618
0.00340838
0.00344399
0.00344371
0.00341144
0.00341133
0.00344392
0.00341143
0.00341149
0.00344606
0.00340837
0.00344399
0.00341136
0.00341146
0.00340838
0.00340218
0.00336085
0.00339996
0.00339996
0.00336419
0.00336416
0.0034022
0.00336082
0.00339994
0.00339977
0.00336426
0.00336431
0.00340001
0.00336417
0.00336426
0.00340217
0.00336077
0.00339996
0.00336431
0.00336425
0.00336087
0.0033544
0.00331211
0.00335205
0.00335205
0.00331545
0.00331545
0.00335435
0.00331207
0.00335209
0.0033522
0.00331542
0.0033155
0.00335204
0.00331544
0.00331544
0.0033543
0.00331204
0.00335209
0.00331544
0.00331546
0.00331209
0.00330567
0.00326383
0.00330325
0.00330324
0.00326707
0.00326709
0.0033056
0.00326379
0.00330333
0.00330327
0.00326719
0.00326707
0.00330316
0.00326707
0.00326704
0.00330559
0.00326379
0.00330323
0.00326704
0.00326708
0.00326385
0.00325753
0.00321656
0.00325515
0.00325513
0.00321967
0.0032197
0.00325746
0.00321652
0.00325513
0.00325512
0.00321968
0.00321962
0.00325506
0.00321968
0.00321963
0.00325747
0.00321654
0.00325524
0.00321969
0.00321983
0.00321657
0.00321039
0.00317024
0.00320799
0.00320801
0.0031733
0.00317328
0.00321034
0.00317021
0.00320788
0.003208
0.00317319
0.00317324
0.00320799
0.00317328
0.00317327
0.00321036
0.00317024
0.00320788
0.00317327
0.0031733
0.00317028
0.00316418
0.00312491
0.00316181
0.00316181
0.00312779
0.00312778
0.00316416
0.00312482
0.00316173
0.00316181
0.00312774
0.00312776
0.00316184
0.0031278
0.00312776
0.00316421
0.00312486
0.0031616
0.00312778
0.0031279
0.00312494
0.00311897
0.00308044
0.00311658
0.00311657
0.00308318
0.00308321
0.00311891
0.00308035
0.00311631
0.00311656
0.0030833
0.00308322
0.00311659
0.00308321
0.00308318
0.00311896
0.0030804
0.00311634
0.00308322
0.00308342
0.00308041
0.00307463
0.00303657
0.00307225
0.00307222
0.00303942
0.00303949
0.00307457
0.00303667
0.00307222
0.00307224
0.00303931
0.00303943
0.0030722
0.00303946
0.00303939
0.00307462
0.00303666
0.00307233
0.00303944
0.00303931
0.00303654
0.00303091
0.00299376
0.00302862
0.00302865
0.00299637
0.00299639
0.00303099
0.00299361
0.0030285
0.00302862
0.00299646
0.00299644
0.00302858
0.0029964
0.00299645
0.00303099
0.00299367
0.00302851
0.00299644
0.00299656
0.00299386
0.00298812
0.00295101
0.00298574
0.0029857
0.00295362
0.00295371
0.00298801
0.0029509
0.0029857
0.00298579
0.00295362
0.00295376
0.00298576
0.00295369
0.00295364
0.00298806
0.00295085
0.00298578
0.00295375
0.00295356
0.002951
0.00294544
0.00290843
0.00294309
0.00294305
0.00291121
0.0029113
0.00294535
0.00290851
0.00294312
0.00294303
0.0029112
0.00291139
0.00294306
0.00291132
0.00291116
0.00294531
0.00290853
0.00294302
0.00291138
0.00291114
0.00290846
0.00290299
0.00286652
0.00290082
0.00290074
0.00286921
0.00286933
0.00290303
0.00286644
0.00290077
0.00290067
0.00286915
0.00286932
0.00290076
0.00286933
0.00286913
0.00290305
0.00286652
0.00290075
0.00286934
0.0028691
0.00286666
0.00286111
0.00282473
0.00285888
0.00285874
0.0028274
0.00282763
0.00286101
0.00282467
0.00285888
0.00285868
0.00282743
0.00282762
0.00285878
0.00282764
0.0028275
0.0028611
0.00282472
0.00285879
0.00282762
0.00282746
0.00282454
0.00281937
0.00278337
0.00281714
0.00281711
0.00278606
0.00278624
0.00281927
0.00278326
0.00281715
0.00281708
0.00278603
0.00278617
0.00281706
0.00278623
0.00278624
0.00281935
0.00278328
0.00281703
0.0027862
0.00278623
0.00278312
0.00277805
0.00274215
0.00277581
0.00277582
0.00274509
0.0027451
0.00277793
0.0027422
0.0027758
0.0027759
0.00274509
0.00274495
0.00277596
0.00274511
0.00274489
0.002778
0.00274226
0.00277594
0.00274496
0.00274479
0.00274226
0.00273692
0.00270142
0.00273483
0.00273481
0.00270433
0.00270447
0.00273697
0.00270132
0.00273483
0.00273502
0.00270436
0.00270432
0.00273491
0.00270448
0.00270438
0.00273707
0.00270139
0.00273482
0.00270437
0.00270446
0.00270145
0.0026962
0.00266096
0.00269426
0.00269428
0.002664
0.00266417
0.00269615
0.0026609
0.00269426
0.00269415
0.00266397
0.00266408
0.00269418
0.00266417
0.00266425
0.00269614
0.002661
0.00269398
0.00266408
0.00266428
0.00266117
0.00265582
0.00262085
0.002654
0.00265422
0.0026241
0.00262394
0.00265586
0.00262077
0.00265397
0.00265413
0.00262411
0.00262409
0.00265431
0.00262393
0.00262399
0.00265589
0.00262084
0.00265437
0.00262404
0.002624
0.00262085
0.00261576
0.00258105
0.00261408
0.00261404
0.00258437
0.00258444
0.00261564
0.00258112
0.00261408
0.00261407
0.00258437
0.00258432
0.002614
0.00258445
0.00258432
0.0026157
0.00258111
0.00261393
0.00258427
0.00258426
0.00258105
0.00257604
0.00254161
0.00257444
0.00257442
0.00254483
0.00254468
0.0025761
0.00254143
0.00257444
0.00257448
0.00254485
0.00254486
0.0025745
0.00254469
0.00254492
0.0025761
0.00254169
0.00257439
0.00254486
0.00254493
0.00254166
0.00253661
0.00250256
0.00253503
0.00253501
0.00250567
0.00250574
0.00253644
0.00250272
0.00253504
0.00253505
0.00250567
0.00250559
0.00253513
0.00250574
0.00250564
0.00253665
0.00250253
0.0025351
0.00250571
0.00250571
0.00250249
0.00249759
0.0024636
0.00249589
0.00249591
0.00246666
0.00246668
0.00249773
0.00246342
0.0024959
0.0024958
0.00246666
0.0024667
0.0024958
0.00246669
0.00246668
0.00249751
0.00246364
0.00249583
0.00246668
0.0024667
0.00246351
0.00245862
0.0024249
0.00245692
0.00245693
0.00242794
0.00242793
0.00245843
0.00242493
0.00245693
0.00245694
0.00242794
0.00242798
0.00245703
0.00242793
0.00242797
0.00245869
0.00242504
0.00245711
0.00242789
0.00242794
0.00242519
0.00241999
0.00238654
0.00241826
0.00241829
0.0023894
0.0023894
0.0024201
0.00238653
0.00241826
0.00241831
0.00238941
0.00238937
0.00241827
0.00238938
0.00238938
0.00242012
0.0023864
0.00241824
0.00238938
0.00238939
0.00238632
0.00238161
0.00234831
0.00237977
0.00237979
0.00235109
0.00235109
0.00238155
0.00234833
0.00237978
0.0023798
0.00235109
0.00235105
0.00237981
0.0023511
0.00235103
0.0023815
0.00234849
0.0023798
0.00235101
0.00235099
0.00234837
0.00234339
0.00231018
0.00234152
0.00234152
0.00231293
0.00231291
0.00234345
0.00231019
0.00234153
0.0023415
0.00231292
0.0023129
0.00234148
0.00231291
0.00231299
0.00234356
0.00231003
0.00234141
0.0023129
0.00231296
0.00231012
0.00230528
0.00227225
0.00230342
0.00230342
0.0022749
0.00227494
0.00230524
0.00227225
0.00230341
0.0023034
0.00227492
0.00227498
0.00230346
0.00227494
0.00227482
0.00230513
0.00227236
0.00230346
0.00227499
0.0022748
0.00227221
0.00226734
0.0022345
0.00226543
0.00226545
0.00223715
0.0022371
0.00226735
0.0022344
0.00226545
0.0022655
0.00223716
0.00223708
0.00226536
0.00223712
0.00223728
0.00226744
0.00223446
0.00226538
0.0022371
0.00223736
0.00223475
0.00222963
0.00219676
0.00222774
0.0022277
0.00219947
0.00219955
0.00222955
0.00219691
0.00222775
0.00222765
0.00219945
0.00219947
0.00222792
0.00219955
0.00219926
0.00222961
0.00219682
0.00222799
0.00219944
0.00219916
0.00219654
0.00219186
0.00215923
0.00219004
0.00219013
0.0021618
0.00216178
0.00219196
0.0021591
0.00219002
0.00219011
0.00216183
0.00216188
0.00218978
0.00216175
0.00216186
0.00219188
0.0021592
0.00218968
0.00216185
0.00216184
0.00215933
0.00215433
0.00212185
0.00215245
0.00215236
0.00212447
0.00212446
0.00215423
0.00212191
0.00215248
0.00215246
0.00212448
0.00212441
0.00215264
0.0021245
0.00212466
0.00215433
0.00212191
0.00215265
0.00212445
0.00212472
0.00212205
0.00211698
0.00208461
0.00211516
0.00211523
0.00208718
0.00208721
0.00211704
0.00208459
0.00211516
0.00211513
0.00208717
0.00208724
0.00211523
0.00208721
0.00208698
0.00211704
0.0020846
0.00211528
0.0020872
0.00208696
0.00208443
0.00207972
0.00204738
0.00207784
0.00207784
0.0020499
0.0020499
0.0020797
0.00204739
0.00207785
0.00207789
0.0020499
0.00204988
0.00207766
0.00204988
0.00204992
0.0020797
0.00204735
0.00207763
0.00204988
0.00204991
0.00204745
0.00204249
0.00201034
0.0020406
0.00204066
0.00201282
0.00201274
0.00204252
0.0020102
0.00204061
0.00204058
0.00201281
0.00201279
0.00204064
0.00201275
0.0020128
0.00204247
0.00201031
0.00204064
0.00201277
0.00201278
0.00201038
0.00200547
0.00197337
0.00200357
0.00200341
0.00197578
0.00197576
0.00200532
0.00197345
0.00200356
0.00200355
0.00197581
0.00197586
0.00200358
0.00197576
0.00197582
0.00200545
0.00197345
0.00200355
0.00197586
0.00197586
0.00197334
0.00196854
0.00193674
0.00196657
0.00196668
0.00193914
0.00193945
0.00196864
0.00193698
0.0019666
0.00196664
0.0019391
0.00193909
0.00196654
0.00193944
0.00193908
0.00196858
0.00193674
0.0019666
0.00193909
0.00193905
0.00193677
0.00193189
0.00190012
0.00192997
0.00193017
0.00190246
0.00190205
0.00193201
0.00189968
0.00192993
0.00192995
0.00190244
0.0019024
0.00193001
0.00190207
0.00190253
0.00193191
0.00189997
0.00192994
0.00190238
0.00190253
0.00190013
0.00189526
0.00186329
0.00189328
0.0018928
0.0018656
0.00186574
0.00189486
0.00186353
0.00189327
0.00189312
0.00186565
0.00186561
0.00189324
0.00186572
0.00186554
0.00189508
0.00186343
0.0018933
0.00186561
0.00186554
0.00186324
0.00185846
0.00182719
0.00185642
0.00185676
0.00182931
0.00182955
0.00185874
0.00182736
0.00185648
0.00185658
0.00182929
0.00182957
0.00185643
0.0018295
0.00182938
0.00185865
0.00182736
0.0018564
0.00182957
0.00182935
0.00182724
0.00182242
0.00179098
0.00182035
0.00182041
0.00179329
0.00179284
0.00182251
0.00179063
0.0018203
0.00182048
0.00179326
0.00179293
0.00182038
0.00179292
0.00179313
0.0018225
0.00179066
0.00182034
0.00179298
0.00179316
0.00179088
0.00178612
0.0017546
0.00178414
0.00178378
0.00175672
0.00175697
0.00178584
0.00175487
0.00178416
0.0017838
0.00175677
0.00175685
0.00178405
0.00175701
0.00175703
0.00178586
0.00175475
0.00178409
0.00175682
0.00175705
0.00175488
0.00174983
0.00171887
0.00174772
0.00174805
0.00172102
0.0017211
0.0017501
0.00171884
0.00174773
0.00174793
0.00172097
0.00172108
0.00174802
0.00172093
0.00172073
0.00175
0.00171894
0.001748
0.00172103
0.00172078
0.00171852
0.00171409
0.00168274
0.00171206
0.00171203
0.00168488
0.00168467
0.00171403
0.00168254
0.00171203
0.00171205
0.00168487
0.00168478
0.00171155
0.00168472
0.00168454
0.00171412
0.0016826
0.00171163
0.00168482
0.00168445
0.00168251
0.00167792
0.00164675
0.00167577
0.00167556
0.00164883
0.00164852
0.00167768
0.00164666
0.00167581
0.00167573
0.00164887
0.00164874
0.00167572
0.00164866
0.00164943
0.00167775
0.00164672
0.00167558
0.00164864
0.00164942
0.00164727
0.00164196
0.00161162
0.00163995
0.00163978
0.00161362
0.00161431
0.00164202
0.00161231
0.00163996
0.0016399
0.00161353
0.0016139
0.00164062
0.00161445
0.00161379
0.00164204
0.00161205
0.00164072
0.00161424
0.00161407
0.00161172
0.00160704
0.00157657
0.00160495
0.00160579
0.00157873
0.00157813
0.00160767
0.00157579
0.00160489
0.00160525
0.0015788
0.00157857
0.00160468
0.00157784
0.00157789
0.00160739
0.0015761
0.00160483
0.00157825
0.00157753
0.00157575
0.00157167
0.0015398
0.00156969
0.00156865
0.00154192
0.00154151
0.00157088
0.00153958
0.00156978
0.00156939
0.00154198
0.00154182
0.00156894
0.00154141
0.00154182
0.00157119
0.0015397
0.00156858
0.00154158
0.00154171
0.00153964
0.00153494
0.00150466
0.00153278
0.00153291
0.00150658
0.00150742
0.00153494
0.00150554
0.00153279
0.00153284
0.00150641
0.0015067
0.00153291
0.00150773
0.00150742
0.00153491
0.00150496
0.00153294
0.00150695
0.00150766
0.00150556
0.00150012
0.00147084
0.00149812
0.00149883
0.00147284
0.00147238
0.00150098
0.00147036
0.00149795
0.00149821
0.00147278
0.00147282
0.00149896
0.00147265
0.0014732
0.00150042
0.001471
0.00149919
0.00147322
0.00147331
0.00147104
0.0014662
0.00143526
0.00146422
0.00146366
0.00143741
0.00143699
0.00146565
0.00143476
0.00146428
0.00146424
0.00143768
0.00143752
0.00146417
0.00143656
0.00143655
0.00146632
0.00143513
0.00146429
0.00143715
0.0014365
0.00143442
0.0014304
0.00139946
0.00142833
0.00142816
0.0014015
0.00140164
0.00142995
0.00139956
0.0014285
0.00142849
0.00140145
0.00140162
0.00142767
0.0014016
0.00140139
0.00143023
0.00139934
0.00142757
0.0014013
0.00140121
0.00139924
0.00139472
0.00136474
0.00139272
0.00139287
0.00136675
0.00136705
0.00139486
0.00136523
0.00139262
0.00139271
0.00136656
0.00136655
0.00139273
0.00136733
0.00136719
0.00139459
0.00136468
0.00139252
0.00136661
0.00136694
0.00136514
0.00136011
0.00133012
0.00135817
0.00135843
0.00133226
0.00133235
0.00136066
0.0013302
0.00135795
0.00135796
0.0013322
0.00133222
0.00135862
0.00133245
0.00133239
0.00136007
0.00133028
0.00135835
0.0013324
0.00133232
0.00133027
0.0013254
0.00129499
0.00132353
0.00132349
0.00129703
0.00129682
0.00132541
0.00129459
0.00132356
0.00132359
0.00129729
0.00129717
0.00132349
0.00129663
0.00129669
0.00132557
0.00129506
0.00132359
0.00129718
0.00129709
0.00129476
0.00129026
0.00126029
0.00128831
0.00128815
0.00126236
0.0012623
0.00128987
0.00126016
0.00128854
0.00128841
0.00126238
0.00126238
0.00128802
0.00126224
0.00126241
0.00129032
0.00126028
0.00128839
0.00126233
0.00126255
0.00126034
0.00125566
0.00122598
0.00125379
0.00125371
0.00122795
0.00122794
0.00125555
0.00122603
0.00125372
0.00125377
0.00122787
0.00122791
0.00125388
0.00122796
0.00122808
0.00125563
0.00122597
0.00125394
0.00122795
0.00122806
0.00122615
0.00122132
0.00119077
0.00121931
0.0012193
0.00119298
0.00119291
0.0012214
0.0011909
0.00121924
0.00121924
0.00119296
0.00119289
0.00121941
0.00119311
0.00119293
0.00122132
0.00119067
0.00121935
0.00119285
0.0011927
0.00119069
0.00118594
0.00115533
0.00118404
0.00118406
0.00115743
0.00115746
0.00118606
0.00115531
0.00118403
0.00118398
0.00115744
0.00115741
0.00118387
0.0011574
0.00115717
0.00118586
0.00115522
0.00118365
0.00115729
0.00115712
0.001155
0.00115061
0.00112138
0.00114876
0.00114882
0.00112335
0.00112351
0.0011506
0.00112151
0.00114875
0.00114872
0.00112331
0.00112337
0.00114854
0.00112351
0.00112366
0.0011505
0.00112154
0.00114856
0.00112355
0.00112381
0.00112178
0.00111685
0.00108756
0.00111497
0.00111509
0.00108951
0.00108928
0.001117
0.00108727
0.00111495
0.00111505
0.00108959
0.00108984
0.00111539
0.00108936
0.00108977
0.00111708
0.00108777
0.00111554
0.0010899
0.00108981
0.0010876
0.0010828
0.00105179
0.00108078
0.00108048
0.00105394
0.00105393
0.00108249
0.00105177
0.00108089
0.00108102
0.00105392
0.00105364
0.00108074
0.00105384
0.00105355
0.00108289
0.00105146
0.00108072
0.00105349
0.00105342
0.00105143
0.00104699
0.00101723
0.00104513
0.00104515
0.00101926
0.00101941
0.00104696
0.00101742
0.00104503
0.00104472
0.0010192
0.00101911
0.00104477
0.00101942
0.00101927
0.00104659
0.00101728
0.00104461
0.00101923
0.00101936
0.00101738
0.00101271
0.000984176
0.00101087
0.00101107
0.000985974
0.000986322
0.00101292
0.000984488
0.00101086
0.00101093
0.000986033
0.00098627
0.00101101
0.000986389
0.000986255
0.00101286
0.00098444
0.00101116
0.000986358
0.000986347
0.000984448
0.000979672
0.000949533
0.000977636
0.000977984
0.000951783
0.000951501
0.000979943
0.000949343
0.000977675
0.000977895
0.00095181
0.000951701
0.000977942
0.000951495
0.000951817
0.000979875
0.000949398
0.000977918
0.000951572
0.000951673
0.000949461
0.00094464
0.000913682
0.000942796
0.000942414
0.000915822
0.000915414
0.000944426
0.000913264
0.000942842
0.000942688
0.000915878
0.000915872
0.000942687
0.000915409
0.000915616
0.000944537
0.000913711
0.000942627
0.000915837
0.000915638
0.000913457
0.000908879
0.000879495
0.000907018
0.000906653
0.000881366
0.000881444
0.0009085
0.000879653
0.000907044
0.000907077
0.000881277
0.000881339
0.000906797
0.000881413
0.000881258
0.0009089
0.000879473
0.000906811
0.000881352
0.000881228
0.000879489
0.000874947
0.000845809
0.000872942
0.000873239
0.000847705
0.000848247
0.000875152
0.000846383
0.000872844
0.000872877
0.000847556
0.000847476
0.000872948
0.000848245
0.000847881
0.00087491
0.000845736
0.000872907
0.000847567
0.000847828
0.000846054
0.000841213
0.000811546
0.000839257
0.000839803
0.000813675
0.000813697
0.000841811
0.000811449
0.000839127
0.000839006
0.000813744
0.000813554
0.00083945
0.000813724
0.000813746
0.000841141
0.000811529
0.000839414
0.000813674
0.000813844
0.00081157
0.000806792
0.000776282
0.00080497
0.00080475
0.000778378
0.000777937
0.000806605
0.000775791
0.000805113
0.000805004
0.000778565
0.000778813
0.000804952
0.000777837
0.000778257
0.000806814
0.000776461
0.00080509
0.000778629
0.000778366
0.000776066
0.000771481
0.00074174
0.000769564
0.000769173
0.000743701
0.000743496
0.000771023
0.000741722
0.000769698
0.00076999
0.000743692
0.000743821
0.000769461
0.000743485
0.000743695
0.000771636
0.000741768
0.0007695
0.000743724
0.000743613
0.000741748
0.000737145
0.000708018
0.000735236
0.000735133
0.000709956
0.000710048
0.000737195
0.000708266
0.000735188
0.000735227
0.000709724
0.000709639
0.000735263
0.000710165
0.000709999
0.000737136
0.000707888
0.000735162
0.00070976
0.000709869
0.000708137
0.000703342
0.000673229
0.000701368
0.000701526
0.000675242
0.000675509
0.000703605
0.00067348
0.000701189
0.000701083
0.000675111
0.000675022
0.000701424
0.000675503
0.000675229
0.000703221
0.000673089
0.00070129
0.000675056
0.000675135
0.000673183
0.000668427
0.000637612
0.000666427
0.000666722
0.000639713
0.000639788
0.000668646
0.000637503
0.000666326
0.000666217
0.000639807
0.000639685
0.000666371
0.000639683
0.000639558
0.000668266
0.000637576
0.000666307
0.000639604
0.000639688
0.000637485
0.000632745
0.000602435
0.000630775
0.000630747
0.00060442
0.000604128
0.000632585
0.000602146
0.000630928
0.000630892
0.000604595
0.000604734
0.000630651
0.000604156
0.000604419
0.000632779
0.00060271
0.000630851
0.000604791
0.000604628
0.000602486
0.000597749
0.000568424
0.000595817
0.000595531
0.000570351
0.000570306
0.000597485
0.000568494
0.000595953
0.000596109
0.000570315
0.000570407
0.000595865
0.000570356
0.000570405
0.000598008
0.000568444
0.000596025
0.000570431
0.000570351
0.000568464
0.000563819
0.000534382
0.000561904
0.000561971
0.000536395
0.000536577
0.000563921
0.000534643
0.000561821
0.000561864
0.000536235
0.000536153
0.000561936
0.000536568
0.000536416
0.000563797
0.000534185
0.00056184
0.000536124
0.000536247
0.000534377
0.000529671
0.000499407
0.00052778
0.000527943
0.000501464
0.000501415
0.000529915
0.000499339
0.00052763
0.000527519
0.000501458
0.000501432
0.000527804
0.000501408
0.000501515
0.000529472
0.000499426
0.000527649
0.000501439
0.000501515
0.000499446
0.000494568
0.000464039
0.000492571
0.000492499
0.000466008
0.000465909
0.000494482
0.000463854
0.000492627
0.000492666
0.00046612
0.000466201
0.000492612
0.000465893
0.000465961
0.000494634
0.000464174
0.000492684
0.000466195
0.000466079
0.000463994
0.00045924
0.000429116
0.000457212
0.000457125
0.000431064
0.000431084
0.000459065
0.000429133
0.000457322
0.000457377
0.000431086
0.000431074
0.000457137
0.000431066
0.000430986
0.000459362
0.000429075
0.000457249
0.000431041
0.000430993
0.000429051
0.000424363
0.000394153
0.000422377
0.000422432
0.000396208
0.000396309
0.000424404
0.000394327
0.000422359
0.000422344
0.000396117
0.000396101
0.000422346
0.000396328
0.000396292
0.000424317
0.000394104
0.000422323
0.000396144
0.000396231
0.000394272
0.000389359
0.000358969
0.00038744
0.000387539
0.000361016
0.000361016
0.000389533
0.000358962
0.000387342
0.00038731
0.000361001
0.000360934
0.000387539
0.000361019
0.000360998
0.000389301
0.000358912
0.000387472
0.000360929
0.000360969
0.000358938
0.000354167
0.000323756
0.000352204
0.000352173
0.000325736
0.000325671
0.000354141
0.000323647
0.000352214
0.000352152
0.000325815
0.000325867
0.000352157
0.000325677
0.000325725
0.000354114
0.00032386
0.000352151
0.000325842
0.000325775
0.000323743
0.000318955
0.000288669
0.000316923
0.000316851
0.000290642
0.000290631
0.000318841
0.000288664
0.000317013
0.000317109
0.000290661
0.000290736
0.00031695
0.000290635
0.000290693
0.000319077
0.000288738
0.00031702
0.000290749
0.000290726
0.000288723
0.000283883
0.000253469
0.000281897
0.000281924
0.000255548
0.000255648
0.000283902
0.000253599
0.000281879
0.000281898
0.000255453
0.000255354
0.000281932
0.000255626
0.000255477
0.000283912
0.000253332
0.000281937
0.000255352
0.000255403
0.000253411
0.000248641
0.000218036
0.000246701
0.000246785
0.00022006
0.000219995
0.000248747
0.000217954
0.000246622
0.000246526
0.000220085
0.000220074
0.000246611
0.000219989
0.000219989
0.000248509
0.000218055
0.000246549
0.000220055
0.000220006
0.000217965
0.000213189
0.000182484
0.000211174
0.00021109
0.000184472
0.000184399
0.000213096
0.000182423
0.000211226
0.000211253
0.000184533
0.000184613
0.000211125
0.000184422
0.00018456
0.000213235
0.000182597
0.000211168
0.000184631
0.000184611
0.00018257
0.000177621
0.000146961
0.000175576
0.000175546
0.000148969
0.000149041
0.000177589
0.000147052
0.00017562
0.000175702
0.000148948
0.000148976
0.000175703
0.000149065
0.000149074
0.000177732
0.000146961
0.000175733
0.000148995
0.00014905
0.00014704
0.000142131
0.000111575
0.000140154
0.000140225
0.000113619
0.000113658
0.000142214
0.000111599
0.000140114
0.0001401
0.000113568
0.000113482
0.000140188
0.000113618
0.000113466
0.000142101
0.000111443
0.000140145
0.000113444
0.000113419
0.000111418
0.000106696
7.58356e-05
0.000104736
0.00010476
7.78693e-05
7.78539e-05
0.000106706
7.58125e-05
0.000104696
0.000104604
7.78849e-05
7.78561e-05
0.000104565
7.78495e-05
7.78529e-05
0.000106564
7.58452e-05
0.000104531
7.78518e-05
7.7863e-05
7.58494e-05
7.08835e-05
4.00371e-05
6.89099e-05
6.88799e-05
4.20502e-05
4.19728e-05
7.08565e-05
3.99418e-05
6.89462e-05
6.89617e-05
4.21059e-05
4.21863e-05
6.89736e-05
4.20042e-05
4.2169e-05
7.09301e-05
4.01728e-05
6.90118e-05
4.22274e-05
4.22355e-05
4.01622e-05
3.50997e-05
8.03955e-06
3.32624e-05
3.31388e-05
1.10523e-05
1.10406e-05
3.49937e-05
8.06633e-06
3.33152e-05
3.34103e-05
1.10909e-05
1.11755e-05
3.33663e-05
1.10484e-05
1.10657e-05
3.52343e-05
8.08238e-06
3.3432e-05
1.11775e-05
1.10915e-05
8.012e-06
4.86517e-06
6.76128e-06
6.7535e-06
4.9132e-06
6.68603e-06
6.76477e-06
5.79385e-06
5.75297e-06
5.70731e-06
6.74939e-06
4.85867e-06
6.65883e-06
0.00353125
0.00353386
0.00353248
0.00353277
0.00356008
0.00353355
0.00356315
0.00353394
0.00356024
0.00353392
0.00353405
0.00356346
0.00354486
0.00356663
0.00356659
0.00350382
0.00351735
0.00352135
0.00349612
0.00349425
0.00349961
0.00350376
0.00351741
0.00352137
0.00349607
0.00351978
0.00351983
0.00351977
0.00349329
0.00349339
0.00349329
0.00349327
0.00350359
0.00351513
0.00352037
0.00351106
0.00352251
0.00350065
0.00351134
0.00349426
0.00349979
0.00350361
0.00352044
0.00351536
0.00351104
0.00352259
0.00351138
0.00350073
0.00352139
0.00352135
0.00350822
0.00350056
0.00350053
0.00347622
0.0034905
0.0034904
0.00347428
0.00348777
0.00347327
0.00347625
0.00349054
0.0034903
0.00347418
0.00348431
0.00348418
0.00348418
0.00345579
0.00345592
0.00345576
0.00345578
0.00347408
0.00348905
0.00348276
0.0034733
0.0034875
0.00347458
0.00347327
0.00348818
0.00347266
0.00347403
0.00348271
0.00348903
0.00347333
0.00348746
0.00347328
0.00347444
0.00349087
0.00349072
0.00347179
0.00347494
0.00347495
0.00343371
0.00344843
0.00344936
0.00343245
0.00344729
0.00343149
0.00343341
0.0034484
0.00344943
0.00343235
0.00344581
0.00344567
0.00344566
0.00341312
0.00341325
0.00341311
0.00341312
0.00343248
0.00344802
0.00344382
0.00343337
0.00344698
0.00343296
0.00343335
0.00344729
0.00343023
0.00343242
0.00344377
0.00344787
0.00343334
0.00344691
0.00343333
0.00343291
0.00344875
0.00344869
0.00343073
0.0034327
0.00343271
0.00338735
0.00340381
0.00340526
0.0033859
0.0034031
0.00338543
0.00338696
0.0034037
0.00340508
0.00338588
0.0034017
0.00340161
0.00340157
0.00336567
0.00336573
0.0033657
0.00336566
0.00338657
0.00340367
0.00339995
0.00338821
0.00340304
0.00338662
0.00338819
0.00340365
0.00338581
0.0033866
0.00339995
0.00340365
0.00338832
0.00340302
0.00338825
0.00338701
0.00340377
0.00340382
0.00338496
0.00338613
0.00338611
0.00333841
0.00335551
0.00335683
0.00333718
0.00335515
0.00333683
0.00333841
0.00335554
0.00335711
0.00333717
0.00335352
0.00335348
0.00335345
0.00331674
0.0033168
0.00331674
0.00331674
0.003338
0.0033555
0.00335203
0.00333984
0.00335514
0.00333787
0.00333983
0.00335511
0.00333693
0.00333796
0.00335202
0.00335541
0.00333984
0.00335515
0.00333983
0.00333782
0.0033556
0.00335557
0.00333645
0.00333723
0.00333727
0.00328927
0.00330655
0.00330752
0.00328837
0.00330629
0.00328815
0.00328919
0.00330658
0.00330754
0.00328832
0.0033046
0.00330455
0.00330454
0.00326827
0.00326833
0.00326828
0.00326827
0.0032892
0.00330658
0.00330325