/*--------------------------------*- C++ -*----------------------------------*\
| =========                 |                                                 |
| \\      /  F ield         | OpenFOAM: The Open Source CFD Toolbox           |
|  \\    /   O peration     | Version:  v2012                                 |
|   \\  /    A nd           | Website:  www.openfoam.com                      |
|    \\/     M anipulation  |                                                 |
\*---------------------------------------------------------------------------*/
FoamFile
{
    version     2.0;
    format      ascii;
    class       volScalarField;
    location    "1937.5";
    object      nut;
}
// * * * * * * * * * * * * * * * * * * * * * * * * * * * * * * * * * * * * * //

dimensions      [0 2 -1 0 0 0 0];


internalField   nonuniform List<scalar> 
171728
(
1.42076e-06
1.8666e-06
1.77104e-06
2.29335e-06
1.41471e-06
1.85454e-06
1.72028e-06
2.2619e-06
1.39e-06
1.82095e-06
1.68469e-06
2.23198e-06
1.37822e-06
1.65265e-06
1.65156e-06
2.22082e-06
1.37483e-06
1.38959e-06
1.6148e-06
2.22044e-06
1.37329e-06
1.20274e-06
1.58302e-06
2.2217e-06
1.36088e-06
1.08156e-06
1.54996e-06
2.19565e-06
1.35368e-06
9.95679e-07
1.49836e-06
2.1474e-06
1.34697e-06
9.30271e-07
1.42597e-06
2.09158e-06
1.33128e-06
8.61667e-07
1.32926e-06
2.01103e-06
1.32428e-06
7.92962e-07
1.22274e-06
1.89546e-06
1.30966e-06
7.3741e-07
1.14087e-06
1.79067e-06
1.29684e-06
6.94266e-07
1.08503e-06
1.70482e-06
1.32375e-06
6.63335e-07
1.02411e-06
1.63084e-06
1.36436e-06
6.36001e-07
9.50025e-07
1.51538e-06
1.39325e-06
7.02533e-07
8.74952e-07
1.34189e-06
1.42714e-06
9.50047e-07
8.40135e-07
1.14032e-06
1.43472e-06
1.39984e-06
8.47075e-07
9.64874e-07
1.47859e-06
2.19116e-06
9.02851e-07
9.43597e-07
1.53372e-06
3.28033e-06
9.80253e-07
1.07021e-06
1.63447e-06
3.66119e-06
1.28127e-06
1.54127e-06
1.64147e-06
3.27258e-06
1.46736e-06
2.08387e-06
1.62043e-06
2.74827e-06
2.12143e-06
3.44209e-06
1.59059e-06
4.19705e-06
2.63804e-06
6.01621e-06
1.57362e-06
4.26676e-06
4.04212e-06
8.29231e-06
1.6884e-06
5.8307e-06
5.05017e-06
1.58039e-05
1.77303e-06
5.69685e-06
7.07607e-06
1.29352e-05
1.79964e-06
1.39083e-05
8.64722e-06
3.14375e-05
1.10026e-06
2.24106e-05
1.20442e-05
3.05843e-05
1.26148e-06
1.40468e-05
1.44176e-05
3.70145e-05
1.06339e-06
1.7731e-05
1.82219e-05
4.87191e-05
1.25326e-06
3.11017e-05
2.19246e-05
4.8102e-05
1.57309e-06
3.32011e-05
2.63792e-05
6.10564e-05
2.16385e-06
2.99835e-05
3.00633e-05
6.34951e-05
2.32162e-06
3.42827e-05
3.79927e-05
6.86267e-05
3.15552e-06
4.32824e-05
3.95574e-05
7.53459e-05
5.08685e-06
4.72497e-05
5.05204e-05
7.84825e-05
4.29919e-06
5.20074e-05
4.89771e-05
8.38804e-05
7.48473e-06
5.71505e-05
6.1159e-05
8.8057e-05
9.50789e-06
6.62872e-05
6.36101e-05
8.92821e-05
9.22506e-06
6.92136e-05
7.12962e-05
9.72334e-05
1.48868e-05
7.55644e-05
7.598e-05
9.9627e-05
1.8434e-05
8.77889e-05
8.64685e-05
0.000101699
1.58292e-05
8.6969e-05
8.39195e-05
0.000107693
2.62211e-05
9.13263e-05
9.6338e-05
0.000108862
3.41573e-05
0.000106531
0.000104556
0.000116212
3.29354e-05
0.000105677
0.000101974
0.000116281
3.71186e-05
0.000107458
0.000113378
0.000123663
4.53023e-05
0.000120258
0.000116889
0.000125493
4.75602e-05
0.000122989
0.000119237
0.000128753
5.74662e-05
0.000126443
0.000127122
0.000130404
7.33575e-05
0.000123104
0.000130096
0.000138227
7.73239e-05
0.000139344
0.000137988
0.000140955
7.33535e-05
0.000142701
0.000137466
0.000132041
7.66402e-05
0.000139727
0.000136694
0.000144218
8.93439e-05
0.000145605
0.000154051
0.000154207
0.000109256
0.000156885
0.000156046
0.000156655
0.00011581
0.000157898
0.000153623
0.000148852
0.000112243
0.000158367
0.000157965
0.000148342
0.000109817
0.000160992
0.000164809
0.00016118
0.00012742
0.000164749
0.000163161
0.000164488
0.000130343
0.000171947
0.00017256
0.000164036
0.000147965
0.000173341
0.000176304
0.000161747
0.000150783
0.000179603
0.000174019
0.000166935
0.000143884
0.000182322
0.000181065
0.000172368
0.000141896
0.000179742
0.000186982
0.000172926
0.000175341
0.000184946
0.00018648
0.000173284
0.000183647
0.000194416
0.00018623
0.000177592
0.000172191
0.00019345
0.000193586
0.000178894
0.000164352
0.000192902
0.000195482
0.000179852
0.000179883
0.000193373
0.000197329
0.000181134
0.000194855
0.000202499
0.000198439
0.000185162
0.000201956
0.00020686
0.00020365
0.000184799
0.000200232
0.000202841
0.000204769
0.00018276
0.000194911
0.000203774
0.000205562
0.000190127
0.000205792
0.000210188
0.000209847
0.000192123
0.000215736
0.000212165
0.000211778
0.000191717
0.000217965
0.00021399
0.000214639
0.000195805
0.000220551
0.000214793
0.00021471
0.000192276
0.000220829
0.00021535
0.000212334
0.000184678
0.000217615
0.000213391
0.000211371
0.000189657
0.000229058
0.000220713
0.00022567
0.000207314
0.000238952
0.000226431
0.000233179
0.000211799
0.000238114
0.000222075
0.000218394
0.000189887
0.000232946
0.000217757
0.000212099
0.000185571
0.000234829
0.000222133
0.000221427
0.00020111
0.000239381
0.000224131
0.000228245
0.000204483
0.000243245
0.000228764
0.000231162
0.000204145
0.000251852
0.000233511
0.000230411
0.000202238
0.000249992
0.000224626
0.00022214
0.000198017
0.000239814
0.000220316
0.000222956
0.000198898
0.000240068
0.000223926
0.000227
0.000197018
0.000253595
0.000230547
0.000227765
0.000199627
0.000258589
0.000231723
0.000226877
0.000204949
0.000252416
0.000229306
0.000229474
0.000207998
2.21394e-06
2.50489e-06
2.51755e-06
2.5337e-06
2.18205e-06
2.03226e-06
1.39611e-06
1.2139e-06
1.4196e-06
1.48905e-06
1.974e-06
2.41176e-06
2.33802e-06
2.15273e-06
2.19436e-06
2.29711e-06
2.21678e-06
2.21584e-06
1.92741e-06
1.80338e-06
1.90599e-06
1.74725e-06
2.5467e-06
2.50286e-06
1.94449e-06
1.68185e-06
1.92143e-06
1.64598e-06
1.95322e-06
1.85264e-06
1.9443e-06
2.33636e-06
2.28148e-06
2.38504e-06
1.73016e-06
2.00363e-06
2.26311e-06
2.21964e-06
2.2239e-06
1.90497e-06
1.73763e-06
1.87586e-06
1.72876e-06
2.49781e-06
2.42485e-06
1.91814e-06
1.63787e-06
1.9238e-06
1.61498e-06
1.93768e-06
1.83749e-06
1.91309e-06
2.27998e-06
2.21852e-06
1.93873e-06
1.69219e-06
1.89299e-06
2.23155e-06
2.22857e-06
2.20716e-06
1.86078e-06
1.72817e-06
1.81436e-06
1.73034e-06
2.42618e-06
2.3591e-06
1.92555e-06
1.6085e-06
1.90824e-06
1.58957e-06
1.90266e-06
1.70905e-06
1.86621e-06
2.21564e-06
2.16375e-06
1.90881e-06
1.66054e-06
1.97724e-06
2.21905e-06
2.19999e-06
2.09023e-06
1.80239e-06
1.72847e-06
1.77201e-06
1.715e-06
2.36158e-06
2.19818e-06
1.89439e-06
1.58235e-06
1.82214e-06
1.56182e-06
1.85419e-06
1.45332e-06
1.8154e-06
2.16062e-06
2.12056e-06
2.00042e-06
1.62398e-06
2.08684e-06
2.21874e-06
2.06337e-06
1.91708e-06
1.76471e-06
1.71288e-06
1.75234e-06
1.69917e-06
2.18548e-06
2.05562e-06
1.79445e-06
1.5559e-06
1.72975e-06
1.53107e-06
1.80272e-06
1.24022e-06
1.76553e-06
2.11743e-06
2.07725e-06
2.12132e-06
1.58997e-06
2.21094e-06
2.22195e-06
1.88951e-06
1.75149e-06
1.74695e-06
1.6889e-06
1.71517e-06
1.67242e-06
2.04963e-06
1.92731e-06
1.71054e-06
1.5213e-06
1.65118e-06
1.48684e-06
1.75081e-06
1.10901e-06
1.69673e-06
2.07402e-06
2.01771e-06
2.2287e-06
1.55979e-06
2.23194e-06
2.19876e-06
1.70482e-06
1.56055e-06
1.69885e-06
1.676e-06
1.64861e-06
1.69362e-06
1.90836e-06
1.7911e-06
1.63541e-06
1.47428e-06
1.59698e-06
1.43386e-06
1.67922e-06
1.01327e-06
1.64051e-06
2.01495e-06
1.94727e-06
2.21164e-06
1.51196e-06
2.09447e-06
2.15149e-06
1.51404e-06
1.38611e-06
1.633e-06
1.70459e-06
1.60033e-06
1.84465e-06
1.77453e-06
1.74011e-06
1.57681e-06
1.41848e-06
1.4782e-06
1.37107e-06
1.63114e-06
9.46801e-07
1.60115e-06
1.94402e-06
1.86421e-06
2.04681e-06
1.44723e-06
1.88229e-06
2.09646e-06
1.35138e-06
1.28556e-06
1.59019e-06
1.92703e-06
1.57322e-06
2.2932e-06
1.7358e-06
1.75803e-06
1.43587e-06
1.35732e-06
1.29472e-06
1.32043e-06
1.5939e-06
8.79099e-07
1.5702e-06
1.86005e-06
1.78252e-06
1.82171e-06
1.35394e-06
1.64891e-06
2.01878e-06
1.2656e-06
1.2215e-06
1.57131e-06
2.44008e-06
1.55042e-06
2.8095e-06
1.7526e-06
1.73066e-06
1.24632e-06
1.31072e-06
1.1118e-06
1.27757e-06
1.54744e-06
8.09525e-07
1.44251e-06
1.77756e-06
1.68783e-06
1.59785e-06
1.24882e-06
1.46481e-06
1.90484e-06
1.20814e-06
1.13913e-06
1.53894e-06
2.89806e-06
1.48346e-06
3.10249e-06
1.7174e-06
1.60495e-06
1.07315e-06
1.26662e-06
9.88332e-07
1.23801e-06
1.41598e-06
7.49191e-07
1.39148e-06
1.68057e-06
1.57934e-06
1.42779e-06
1.15722e-06
1.33457e-06
1.79948e-06
1.12674e-06
1.0767e-06
1.46034e-06
3.15558e-06
1.3814e-06
2.7165e-06
1.58411e-06
1.30295e-06
9.67058e-07
1.22966e-06
9.1758e-07
1.20765e-06
1.38836e-06
7.03185e-07
1.398e-06
1.57133e-06
1.49904e-06
1.3086e-06
1.09738e-06
1.24626e-06
1.71576e-06
1.06645e-06
1.04124e-06
1.36272e-06
2.55766e-06
1.31968e-06
2.37716e-06
1.2733e-06
1.11902e-06
9.02692e-07
1.19976e-06
8.6334e-07
1.17648e-06
1.43412e-06
6.73815e-07
1.58884e-06
1.48867e-06
1.42541e-06
1.22654e-06
1.0434e-06
1.17965e-06
1.64622e-06
1.03163e-06
1.01617e-06
1.31111e-06
2.36628e-06
1.28376e-06
2.35729e-06
1.10366e-06
1.06271e-06
8.52749e-07
1.16844e-06
8.17997e-07
1.14457e-06
1.63449e-06
6.44122e-07
1.72713e-06
1.41075e-06
1.33865e-06
1.15093e-06
9.69635e-07
1.07861e-06
1.53897e-06
1.00764e-06
9.94535e-07
1.28401e-06
2.38451e-06
1.26762e-06
2.76122e-06
1.05241e-06
1.08142e-06
8.10725e-07
1.1304e-06
7.78188e-07
1.11514e-06
1.73978e-06
6.76863e-07
1.68913e-06
1.31804e-06
1.24161e-06
1.04852e-06
8.99689e-07
9.51116e-07
1.37886e-06
9.85762e-07
9.60994e-07
1.26281e-06
2.8248e-06
1.25472e-06
2.83896e-06
1.08857e-06
1.17711e-06
7.63673e-07
1.09527e-06
7.4226e-07
1.08038e-06
1.60819e-06
8.71825e-07
1.18836e-06
1.21972e-06
1.14104e-06
9.31249e-07
8.46228e-07
8.65207e-07
1.16343e-06
9.54718e-07
9.48911e-07
1.23781e-06
2.83256e-06
1.22735e-06
2.45932e-06
1.18116e-06
1.30753e-06
7.27495e-07
1.06509e-06
7.26639e-07
1.04519e-06
1.10626e-06
1.23566e-06
8.5577e-07
1.11858e-06
1.08395e-06
8.41728e-07
8.35896e-07
8.33077e-07
1.00153e-06
9.38828e-07
9.4151e-07
1.19042e-06
2.24765e-06
1.16189e-06
1.57623e-06
1.33673e-06
1.42969e-06
7.20789e-07
1.05126e-06
7.49505e-07
1.05034e-06
7.96322e-07
1.97621e-06
7.31535e-07
1.08056e-06
1.0807e-06
8.28115e-07
8.78255e-07
8.46296e-07
9.30602e-07
9.74676e-07
1.07033e-06
1.14932e-06
1.44229e-06
1.18481e-06
1.31963e-06
1.42718e-06
1.83636e-06
7.61637e-07
1.06507e-06
8.64491e-07
1.10917e-06
7.32915e-07
3.11552e-06
7.63678e-07
1.09729e-06
1.17333e-06
8.60159e-07
9.75702e-07
9.41649e-07
1.02651e-06
1.09066e-06
1.29798e-06
1.19171e-06
1.3136e-06
1.29381e-06
1.29748e-06
1.92784e-06
2.13841e-06
8.82636e-07
1.12385e-06
1.01061e-06
1.34338e-06
8.39136e-07
3.55801e-06
1.12694e-06
1.18941e-06
1.58679e-06
9.86743e-07
1.17937e-06
1.17014e-06
1.43184e-06
1.46051e-06
2.17211e-06
1.44437e-06
1.31243e-06
1.6323e-06
1.17332e-06
2.26635e-06
2.36347e-06
1.12716e-06
1.41866e-06
1.38759e-06
1.53198e-06
1.20124e-06
3.55157e-06
1.36198e-06
1.73891e-06
1.98256e-06
1.24222e-06
1.41615e-06
1.41853e-06
1.98087e-06
2.19867e-06
2.86513e-06
1.63439e-06
1.24732e-06
2.17166e-06
1.97881e-06
2.24606e-06
2.95045e-06
1.48325e-06
1.59709e-06
1.91711e-06
2.11234e-06
1.42245e-06
2.63006e-06
2.10171e-06
2.0289e-06
3.26435e-06
1.5759e-06
1.91982e-06
1.91955e-06
3.08201e-06
3.26057e-06
5.01901e-06
2.30695e-06
2.25638e-06
2.95056e-06
2.94945e-06
3.40439e-06
6.17961e-06
2.05427e-06
2.30916e-06
2.76673e-06
2.54049e-06
2.42002e-06
4.00016e-06
3.76641e-06
3.70913e-06
4.64813e-06
2.06681e-06
2.49261e-06
3.04922e-06
5.32962e-06
5.57221e-06
7.83205e-06
3.42948e-06
3.06929e-06
4.00212e-06
3.42056e-06
7.04011e-06
7.48688e-06
3.06798e-06
2.75927e-06
4.05702e-06
3.92358e-06
3.90544e-06
4.09211e-06
4.76051e-06
4.85117e-06
8.09773e-06
3.15256e-06
3.77586e-06
3.79392e-06
7.32139e-06
8.33024e-06
1.15086e-05
4.18992e-06
3.63543e-06
5.95861e-06
4.7801e-06
7.54683e-06
1.24769e-05
4.18196e-06
4.10168e-06
6.06886e-06
4.56078e-06
5.63247e-06
5.16778e-06
7.50346e-06
9.05956e-06
1.03882e-05
4.50541e-06
4.46202e-06
6.81919e-06
1.55121e-05
1.22688e-05
1.68905e-05
5.97438e-06
5.39787e-06
6.94698e-06
6.51394e-06
1.33794e-05
1.59927e-05
6.43691e-06
5.17102e-06
7.18779e-06
7.24218e-06
7.76074e-06
6.33203e-06
6.72534e-06
1.09899e-05
1.87478e-05
6.87835e-06
6.86416e-06
6.46021e-06
1.25986e-05
1.75751e-05
2.85872e-05
7.89959e-06
6.03336e-06
1.05176e-05
8.0197e-06
1.61386e-05
1.937e-05
8.37282e-06
7.19762e-06
1.2259e-05
7.845e-06
6.44363e-06
9.62623e-06
1.00601e-05
1.98623e-05
1.955e-05
8.10456e-06
7.99431e-06
1.31597e-05
2.88685e-05
2.98689e-05
2.46026e-05
1.09265e-05
1.05882e-05
9.23271e-06
1.42458e-05
2.69957e-05
5.25991e-05
1.27652e-05
8.67273e-06
1.13371e-05
1.18714e-05
1.07578e-05
2.13076e-05
1.26845e-05
2.04147e-05
3.14588e-05
1.38269e-05
1.13716e-05
1.34127e-05
3.16249e-05
2.26256e-05
4.42424e-05
9.48417e-06
1.42084e-05
1.75267e-05
1.22793e-05
5.34573e-05
2.88205e-05
1.07361e-05
1.23772e-05
1.63787e-05
1.34513e-05
1.32587e-05
1.54499e-05
1.46693e-05
3.3594e-05
3.60155e-05
1.22495e-05
1.34617e-05
1.39079e-05
3.31218e-05
4.68944e-05
4.50069e-05
1.8717e-05
1.15316e-05
1.85087e-05
1.6518e-05
2.62696e-05
3.9559e-05
1.81688e-05
1.45349e-05
1.88897e-05
1.7806e-05
1.54278e-05
1.31872e-05
1.69852e-05
3.68047e-05
4.40414e-05
1.68905e-05
1.76611e-05
2.19163e-05
4.81441e-05
4.34396e-05
4.69976e-05
1.75399e-05
1.70989e-05
1.76413e-05
2.03185e-05
4.47247e-05
5.41404e-05
1.82773e-05
1.82575e-05
2.08575e-05
2.00237e-05
1.7269e-05
2.88637e-05
2.01295e-05
4.53253e-05
5.04184e-05
2.2219e-05
2.00406e-05
2.05795e-05
4.76281e-05
5.06505e-05
5.90648e-05
2.19512e-05
2.26495e-05
2.76e-05
2.88939e-05
5.54513e-05
6.19382e-05
2.2608e-05
2.20472e-05
2.52942e-05
2.6213e-05
2.24625e-05
3.33183e-05
2.6564e-05
5.1888e-05
5.72946e-05
2.14233e-05
2.62882e-05
2.55169e-05
5.87273e-05
5.97948e-05
6.36225e-05
2.78056e-05
2.96702e-05
3.10752e-05
2.80979e-05
6.26603e-05
6.13712e-05
2.58785e-05
2.63128e-05
2.99746e-05
2.82123e-05
2.66065e-05
3.11443e-05
3.04887e-05
5.85297e-05
6.20916e-05
2.59265e-05
2.8242e-05
3.06817e-05
6.30664e-05
6.52912e-05
6.7367e-05
3.30947e-05
2.81847e-05
3.42038e-05
3.29195e-05
6.09142e-05
6.61504e-05
3.23112e-05
3.02147e-05
3.46024e-05
3.68573e-05
3.25612e-05
3.23996e-05
3.29692e-05
6.35663e-05
6.92999e-05
3.22998e-05
3.7368e-05
3.28981e-05
6.77728e-05
6.74836e-05
7.32805e-05
3.35478e-05
3.44336e-05
3.83878e-05
4.01696e-05
6.84361e-05
7.56634e-05
3.39608e-05
3.67861e-05
3.82685e-05
3.87616e-05
3.32972e-05
4.04218e-05
4.05776e-05
7.01033e-05
7.27966e-05
3.34221e-05
3.7542e-05
4.06143e-05
7.35188e-05
7.54817e-05
7.9619e-05
4.14813e-05
4.28479e-05
4.93234e-05
4.87727e-05
7.69579e-05
7.92801e-05
4.1197e-05
4.08355e-05
4.9229e-05
4.87241e-05
4.35545e-05
4.78326e-05
4.59548e-05
7.42595e-05
7.94477e-05
4.32351e-05
4.84909e-05
4.52042e-05
7.80509e-05
8.00252e-05
8.00849e-05
4.9744e-05
4.85605e-05
4.7622e-05
4.90558e-05
7.97114e-05
8.06308e-05
4.99882e-05
4.99441e-05
4.71196e-05
4.77582e-05
4.55375e-05
4.98851e-05
4.928e-05
8.02553e-05
8.09631e-05
4.52425e-05
4.93667e-05
5.00333e-05
8.20822e-05
8.08629e-05
8.81379e-05
4.97078e-05
5.01107e-05
5.75884e-05
5.54222e-05
8.126e-05
8.66879e-05
4.83987e-05
4.85831e-05
5.88167e-05
5.9099e-05
5.25418e-05
5.52371e-05
6.0009e-05
8.14698e-05
8.74219e-05
5.33258e-05
5.88698e-05
5.97289e-05
8.76997e-05
8.92193e-05
9.08534e-05
5.93588e-05
5.78299e-05
6.52098e-05
6.6125e-05
8.81784e-05
9.19152e-05
6.06455e-05
6.26504e-05
6.46429e-05
6.56892e-05
6.06269e-05
6.52984e-05
6.03408e-05
8.89062e-05
9.13377e-05
6.00442e-05
6.20243e-05
5.96174e-05
8.85341e-05
9.10805e-05
9.29049e-05
6.57053e-05
6.80115e-05
6.61659e-05
6.84818e-05
9.25403e-05
9.29873e-05
6.49381e-05
6.4786e-05
6.55596e-05
6.87775e-05
6.12846e-05
6.8752e-05
6.9207e-05
9.18731e-05
9.4409e-05
6.10366e-05
7.13008e-05
7.00925e-05
9.5869e-05
9.45901e-05
0.000100533
6.84734e-05
6.72916e-05
7.79072e-05
7.14114e-05
9.31088e-05
9.74388e-05
6.77966e-05
7.00173e-05
7.71061e-05
7.39844e-05
7.24775e-05
7.2095e-05
7.89741e-05
9.51624e-05
9.81663e-05
7.25369e-05
7.3267e-05
7.76868e-05
9.94298e-05
0.000101195
0.000101607
7.99732e-05
7.63779e-05
8.35537e-05
8.80595e-05
0.000100033
0.000107949
7.95754e-05
7.65267e-05
8.40775e-05
8.46234e-05
7.87759e-05
8.63823e-05
7.77074e-05
9.95948e-05
0.000103651
7.86464e-05
8.44423e-05
7.84274e-05
0.00010062
0.000101728
0.00010357
8.31427e-05
8.90681e-05
7.97369e-05
8.84517e-05
0.000108024
0.000102638
8.3534e-05
8.65412e-05
8.15807e-05
8.48394e-05
7.9771e-05
8.8796e-05
8.97028e-05
0.000104061
0.000103484
8.01372e-05
8.52245e-05
8.86454e-05
0.000107082
0.00010494
0.000112047
8.19421e-05
8.64632e-05
9.57903e-05
8.31822e-05
0.000101199
0.000106959
8.48287e-05
8.36621e-05
9.52785e-05
9.32987e-05
9.183e-05
8.46705e-05
9.0234e-05
0.000103792
0.000111495
8.94989e-05
9.24356e-05
9.08002e-05
0.000108227
0.000113031
0.000116066
9.93632e-05
9.07529e-05
0.000105719
0.000106613
0.00011109
0.000120398
9.78746e-05
9.69876e-05
0.000101486
0.000103365
9.061e-05
0.000105564
0.00010048
0.000113129
0.000115351
9.28616e-05
0.000103398
0.000101879
0.000115298
0.000116557
0.00011677
0.000106648
0.000107559
0.0001055
0.000106977
0.000120104
0.000114715
0.000101353
0.000104207
0.000103163
0.000102002
0.000103755
0.00010651
0.000105721
0.00011549
0.000115677
0.000103864
0.000102851
0.000102085
0.000116347
0.000116638
0.000120024
0.000104187
0.000106263
0.000105159
0.000103498
0.000114708
0.000118992
0.000104528
0.000101412
0.000109131
0.000110393
0.000104687
0.000104023
0.00010876
0.000115917
0.00012235
0.000101453
0.000109886
0.000110941
0.000122247
0.000121701
0.000125295
0.000108293
0.000105804
0.000116933
0.000117005
0.000120367
0.000126488
0.000111388
0.000113835
0.000116617
0.000117102
0.000111931
0.000117662
0.000117617
0.000123724
0.000125517
0.00011395
0.000117122
0.000118252
0.000125532
0.000125294
0.000123159
0.00011762
0.000119861
0.000115159
0.000123856
0.000127463
0.000130827
0.000116422
0.00011721
0.00011491
0.000118087
0.000117227
0.000123073
0.0001181
0.000125492
0.000126832
0.000117871
0.000117922
0.000117372
0.000127566
0.000124248
0.00013525
0.000116331
0.000123515
0.000127395
0.000124691
0.000131065
0.000131221
0.000116529
0.000118399
0.000126716
0.000124211
0.000120517
0.000125353
0.000125765
0.000127639
0.000131439
0.00011982
0.000125941
0.000125335
0.000131102
0.000136973
0.000139298
0.000130979
0.000126284
0.000135516
0.00012525
0.00013129
0.000129861
0.000130152
0.000126898
0.000135364
0.000131399
0.000124536
0.000123725
0.000129317
0.000132336
0.000135666
0.000124201
0.00012841
0.000129402
0.000135735
0.000139206
0.00013806
0.00013551
0.000124673
0.000135228
0.000134109
0.00013006
0.000140264
0.000135669
0.00013242
0.000135765
0.00013581
0.000133263
0.00013568
0.000137686
0.000136423
0.000139666
0.000133186
0.00013678
0.000137311
0.00014196
0.000137911
0.000136825
0.000134578
0.000137593
0.000132811
0.000142033
0.000142055
0.000143707
0.000135298
0.00013669
0.000133602
0.000136849
0.000137571
0.000142774
0.000134385
0.000139971
0.000138712
0.000137214
0.000138406
0.00013389
0.000132751
0.000137344
0.000140277
0.00013487
0.000142229
0.000139105
0.000141603
0.000143402
0.000141802
0.000134333
0.0001356
0.000136747
0.000134249
0.000132405
0.000140784
0.000136234
0.000137965
0.00013843
0.000131941
0.000133613
0.000136457
0.000141509
0.000140631
0.000147958
0.000139382
0.000140669
0.000145683
0.000140785
0.000141603
0.000143863
0.000137791
0.000138776
0.000147339
0.000151601
0.00014053
0.000141486
0.000152418
0.000140723
0.000151949
0.000140997
0.000151341
0.000153431
0.000153113
0.000150014
0.000154781
0.000149164
0.000144504
0.000156719
0.000154423
0.000145695
0.000152768
0.000151159
0.000154021
0.000157319
0.000156103
0.000155432
0.000155246
0.000159177
0.000152794
0.000152718
0.000156111
0.000156287
0.000159086
0.000157017
0.000154785
0.000153324
0.000157622
0.000156424
0.000157896
0.000158041
0.000153426
0.000154192
0.000157741
0.000155894
0.000157283
0.000154057
0.000159446
0.00015819
0.000154872
0.000152513
0.000150496
0.000159072
0.000154389
0.0001542
0.000149536
0.000153067
0.000151174
0.000157605
0.000157761
0.000154968
0.000158628
0.000154121
0.000155257
0.000156758
0.00015329
0.000153558
0.000156382
0.000153761
0.000157583
0.000149055
0.000150356
0.000154599
0.000152961
0.000155673
0.000148342
0.000146881
0.000151129
0.000157539
0.000154021
0.000159609
0.000160465
0.000160772
0.000155773
0.00015641
0.00015308
0.000158629
0.000161601
0.000163694
0.000149216
0.000160634
0.00016262
0.000155787
0.000158731
0.000149681
0.000163741
0.000163511
0.000159696
0.000158632
0.000159539
0.000163184
0.000160515
0.00016608
0.000161654
0.000156196
0.000157176
0.000164001
0.000164651
0.000166299
0.000163632
0.000166001
0.000163227
0.000171099
0.00015889
0.000157199
0.000166719
0.000163722
0.000171049
0.000164406
0.000158978
0.000162891
0.000165258
0.000163098
0.000168534
0.000169448
0.000158059
0.000163516
0.000165501
0.000162729
0.000168029
0.000169006
0.000171649
0.000170112
0.000171982
0.000156773
0.000163963
0.000171309
0.000169897
0.000170807
0.000164135
0.000164992
0.000171047
0.000172297
0.000171871
0.000178989
0.000175593
0.000164364
0.000165953
0.000171789
0.000172265
0.000178623
0.00017691
0.000172008
0.000173691
0.000170538
0.000165541
0.000167781
0.000171066
0.000176074
0.00017086
0.000162378
0.000171238
0.000167788
0.000180192
0.000176185
0.000178791
0.000178876
0.000165932
0.000169376
0.000179612
0.000177204
0.000178771
0.000176652
0.000169485
0.000177515
0.000172835
0.000167628
0.000165465
0.000170228
0.000175129
0.000172619
0.000165368
0.000167129
0.000161278
0.000176544
0.000179431
0.000172134
0.000179703
0.000170108
0.000170976
0.000177162
0.000175807
0.000173909
0.000176269
0.000176033
0.000182287
0.000182411
0.000164965
0.000169002
0.000174926
0.000177802
0.000181282
0.000171977
0.000159889
0.000170097
0.00016918
0.000179411
0.000176624
0.000176039
0.000170714
0.000167463
0.000171621
0.000178859
0.000177091
0.000185148
0.000183402
0.000181061
0.000184478
0.000170623
0.00017541
0.000182802
0.000186503
0.00018524
0.000173168
0.000173509
0.000185079
0.000184416
0.00017537
0.00019732
0.000187009
0.000166841
0.000173831
0.000183352
0.000186208
0.000194269
0.000187337
0.000184286
0.000180426
0.0001826
0.000175446
0.000174249
0.000185271
0.000186919
0.000184178
0.000172577
0.000185777
0.000181422
0.000200017
0.000190552
0.000201287
0.000196032
0.000175907
0.000181819
0.000196317
0.000187161
0.000196379
0.000186456
0.000183952
0.000193465
0.000190575
0.00017386
0.000173503
0.000185046
0.000184876
0.00018956
0.000177428
0.00017929
0.000170896
0.000195559
0.000196864
0.000185993
0.00019222
0.000181714
0.00017784
0.000192766
0.000187352
0.000186992
0.000190528
0.000191464
0.000193915
0.000192782
0.000174108
0.000178447
0.000189961
0.00019218
0.000191892
0.000178489
0.000169832
0.000174462
0.000184087
0.000190988
0.000181684
0.000188641
0.000177449
0.00017748
0.000185232
0.000191393
0.000187527
0.000194328
0.000193442
0.000192524
0.000194465
0.000179016
0.000180779
0.000193036
0.000195373
0.000194797
0.000180071
0.000176831
0.000184013
0.000186074
0.000188724
0.000197201
0.000192372
0.000177816
0.000179232
0.000191808
0.000195443
0.000199267
0.000198217
0.000194381
0.000193573
0.000194088
0.000180934
0.000182174
0.000194756
0.000196882
0.000195126
0.000180266
0.000184468
0.000186145
0.000199335
0.000193866
0.000204054
0.000202209
0.00017899
0.000185396
0.00020038
0.000198627
0.000201835
0.000198156
0.000195593
0.00019998
0.000200506
0.000182196
0.000181878
0.000196797
0.000197542
0.000200549
0.000185018
0.000186417
0.000188946
0.000205145
0.000204439
0.000207622
0.000208601
0.000186644
0.000190623
0.000202419
0.000198519
0.000204011
0.000202571
0.000201528
0.00020653
0.000202704
0.000182163
0.000186382
0.00020112
0.000202672
0.000201672
0.000185024
0.000188761
0.000185007
0.000208021
0.000208748
0.000203105
0.000203322
0.000189844
0.000184425
0.000204509
0.000203575
0.000203802
0.00020471
0.000202594
0.000203589
0.000201311
0.000186711
0.000186835
0.000201676
0.000204768
0.000200674
0.000182854
0.000184373
0.00018294
0.000202151
0.000202364
0.000199102
0.000200671
0.00018375
0.000185276
0.000203322
0.000204699
0.000200992
0.000204039
0.000200457
0.000201627
0.000205676
0.000186506
0.000186833
0.000200682
0.00020447
0.000206097
0.000189084
0.000183917
0.000191377
0.000200218
0.000202708
0.000209173
0.000208818
0.000186438
0.000190599
0.000201395
0.000204928
0.000209362
0.000209285
0.000208055
0.000209346
0.000211551
0.000187382
0.00019065
0.000208009
0.000209323
0.000211283
0.00019231
0.000191916
0.000192765
0.000210837
0.000209869
0.000213139
0.000211793
0.000190782
0.000191553
0.000210947
0.000210208
0.000212929
0.000211151
0.000211801
0.00021155
0.000211508
0.000190766
0.000190841
0.000211561
0.000210887
0.000212124
0.000191384
0.000192593
0.00019316
0.000213446
0.000212383
0.000213915
0.000213552
0.000191756
0.000192972
0.000213069
0.000211156
0.000213401
0.000212906
0.000212127
0.00021373
0.000214393
0.000190867
0.000193173
0.000213078
0.000213999
0.00021529
0.000195427
0.000193172
0.000193771
0.000214119
0.000213658
0.000214487
0.000214728
0.000192949
0.000193663
0.000213695
0.00021367
0.00021478
0.000215321
0.000215557
0.000214561
0.00021564
0.000193396
0.000194209
0.000216745
0.00021553
0.000215557
0.000193773
0.000193586
0.000192731
0.000214587
0.000215132
0.000214532
0.000216545
0.000193717
0.000194777
0.0002151
0.000215677
0.000214396
0.000214412
0.00021334
0.000215609
0.000209357
0.000193899
0.000191916
0.000212783
0.000212699
0.000208071
0.000186055
0.000192399
0.000190706
0.000214258
0.000216438
0.000212739
0.000214842
0.000194514
0.00019263
0.000213951
0.000213949
0.000211929
0.00021181
0.000208256
0.000214289
0.000205421
0.000191432
0.000190805
0.000206784
0.000209716
0.000203229
0.000187006
0.000190828
0.000198593
0.000212108
0.00021422
0.000219591
0.000215717
0.000191967
0.000195657
0.00021162
0.000211827
0.000220477
0.000221335
0.000211425
0.000218034
0.000227305
0.000191437
0.000200024
0.000210094
0.000223254
0.000228601
0.000205941
0.000199468
0.000203118
0.000221895
0.000218726
0.000225713
0.000223634
0.000196737
0.000201032
0.000222674
0.000223587
0.000226629
0.000227994
0.000229842
0.000225031
0.000238449
0.000200892
0.000205975
0.000231526
0.000231515
0.000241903
0.000214761
0.000202655
0.000197673
0.000226733
0.000224794
0.000223522
0.000225872
0.000201177
0.000199455
0.000227709
0.000229459
0.000222925
0.000222918
0.000237607
0.000224329
0.00021828
0.000205322
0.000196556
0.000241708
0.000222073
0.000218321
0.000191899
0.00019683
0.000194267
0.000221796
0.000224003
0.000219141
0.000220256
0.000198537
0.000195516
0.000220934
0.000220056
0.000217881
0.000215935
0.000214733
0.000218512
0.000208511
0.000195202
0.000191219
0.000213784
0.000213254
0.000206196
0.000184511
0.000194416
0.000199794
0.000218748
0.000219768
0.00022221
0.000220158
0.000195117
0.000197571
0.000217406
0.00021499
0.000222266
0.00021948
0.000208093
0.000220327
0.000221462
0.000191079
0.000197308
0.000205228
0.000218454
0.00022018
0.000199666
0.000200058
0.000199263
0.000223382
0.000221395
0.000223962
0.00022244
0.000198068
0.000198261
0.000223709
0.000221771
0.000224611
0.000225
0.000224889
0.000223941
0.000229712
0.000198213
0.000200473
0.000224548
0.000226973
0.000230824
0.000204666
0.000198538
0.000198913
0.000223582
0.000222126
0.000223076
0.000226889
0.000197679
0.000202131
0.000224276
0.000225763
0.0002237
0.00022871
0.00023003
0.000227785
0.000229565
0.000200625
0.000203845
0.00023137
0.000230303
0.000232207
0.000204241
0.000200189
0.000207061
0.000226031
0.000228581
0.000231427
0.000232933
0.000202833
0.000207925
0.000226228
0.00022935
0.00023116
0.000233001
0.000229688
0.000232303
0.000230075
0.000204171
0.000206193
0.000232205
0.000233114
0.000229541
0.000203132
0.000207489
0.000201638
0.000233682
0.000234565
0.000230247
0.00022783
0.000207489
0.000199839
0.000233202
0.000232724
0.000229199
0.000224534
0.000229155
0.000227182
0.000225059
0.000204791
0.00019733
0.000227795
0.00022318
0.000223393
0.000198297
0.000199864
0.000194365
0.000226278
0.000224654
0.000220181
0.000220187
0.000198523
0.000194749
0.000225777
0.000223023
0.0002208
0.000221376
0.000224226
0.000220934
0.000223595
0.000196514
0.000197066
0.000222821
0.000221456
0.000223374
0.000198941
0.000193493
0.00019741
0.000218862
0.000219157
0.0002196
0.000221016
0.000194238
0.000197805
0.000219658
0.000222064
0.000221822
0.000226266
0.000223464
0.00022108
0.000222522
0.000197885
0.00020149
0.000223805
0.000226487
0.000223843
0.000197686
0.000198922
0.000205061
0.000223906
0.00022456
0.000231123
0.000230566
0.000199064
0.000204248
0.000225103
0.000227138
0.000230441
0.000228941
0.000221987
0.000229524
0.000224156
0.000201521
0.000201808
0.000223617
0.000227869
0.000223485
0.000198378
0.000205344
0.000205605
0.000232549
0.000231707
0.000235834
0.000234236
0.000204443
0.000204667
0.000231543
0.000228824
0.000233264
0.000226641
0.000227136
0.000232885
0.000231632
0.000201492
0.000199729
0.000226217
0.000227056
0.00023061
0.000204814
0.000204135
0.000200674
0.000232814
0.000231824
0.000228971
0.000229921
0.000203611
0.000201885
0.000230391
0.000226225
0.000229042
0.000229166
0.000232402
0.000231301
0.000235889
0.000199318
0.000201884
0.000231304
0.000230227
0.000235476
0.000206279
0.00020272
0.000226776
0.000228009
0.000204062
0.000227237
0.000228592
0.000255027
0.000253669
0.00026092
0.00023324
0.000204601
0.00023322
1.46963e-06
1.63427e-06
9.12751e-07
1.05849e-06
1.09543e-06
1.87459e-06
1.17617e-06
1.2826e-06
1.22938e-06
2.03214e-06
1.22851e-06
4.87143e-07
2.30453e-06
1.58729e-06
1.40251e-06
1.05553e-06
1.3506e-05
9.61542e-07
1.52867e-05
1.07812e-05
1.30677e-05
1.32283e-06
1.34608e-05
1.26512e-06
1.52101e-05
1.23543e-06
1.4612e-06
1.5149e-06
1.42025e-06
1.23595e-06
1.4925e-06
1.50493e-06
1.10546e-06
5.96896e-07
1.83914e-06
1.85771e-06
1.09252e-06
7.37154e-07
1.84209e-06
1.0519e-05
1.27667e-05
1.23031e-06
1.54818e-06
3.16464e-07
1.7532e-06
1.23558e-06
1.5544e-06
4.23014e-07
1.48087e-06
1.52039e-06
2.27806e-06
1.68438e-06
1.73381e-06
1.25483e-06
1.85541e-05
1.1586e-06
2.10052e-05
1.70469e-05
1.92484e-05
1.50287e-06
1.84451e-05
1.46674e-06
2.09978e-05
1.23254e-06
1.49381e-06
1.4946e-06
1.39589e-06
1.22323e-06
1.49636e-06