/*--------------------------------*- C++ -*----------------------------------*\
| =========                 |                                                 |
| \\      /  F ield         | OpenFOAM: The Open Source CFD Toolbox           |
|  \\    /   O peration     | Version:  v2012                                 |
|   \\  /    A nd           | Website:  www.openfoam.com                      |
|    \\/     M anipulation  |                                                 |
\*---------------------------------------------------------------------------*/
FoamFile
{
    version     2.0;
    format      ascii;
    class       volScalarField;
    location    "1937.5";
    object      p;
}
// * * * * * * * * * * * * * * * * * * * * * * * * * * * * * * * * * * * * * //

dimensions      [0 2 -2 0 0 0 0];


internalField   nonuniform List<scalar> 
171728
(
0.0035192
0.00351814
0.00351816
0.00351895
0.00348382
0.00348238
0.00348239
0.00348515
0.00344535
0.00344359
0.00344344
0.00344576
0.0034013
0.00339962
0.00339961
0.00340184
0.00335328
0.00335181
0.00335178
0.00335414
0.00330442
0.00330308
0.0033031
0.00330548
0.00325615
0.00325495
0.00325497
0.00325733
0.00320883
0.0032078
0.00320777
0.00321016
0.00316251
0.0031616
0.00316158
0.00316397
0.00311716
0.00311641
0.00311638
0.00311872
0.00307271
0.00307206
0.00307203
0.00307441
0.00302903
0.00302849
0.00302848
0.00303081
0.00298593
0.00298547
0.00298546
0.00298784
0.00294322
0.00294284
0.00294286
0.00294534
0.00290084
0.00290055
0.00290047
0.00290297
0.00285877
0.00285851
0.00285854
0.00286067
0.00281706
0.00281672
0.00281686
0.00281913
0.00277572
0.00277572
0.0027756
0.00277792
0.00273471
0.00273496
0.00273481
0.00273691
0.00269405
0.00269407
0.00269413
0.00269607
0.0026536
0.00265383
0.00265376
0.00265554
0.00261379
0.00261412
0.00261386
0.00261567
0.00257409
0.00257451
0.00257432
0.00257596
0.0025345
0.00253479
0.00253483
0.00253646
0.00249522
0.00249546
0.00249561
0.00249727
0.00245643
0.0024564
0.00245687
0.00245828
0.00241774
0.00241832
0.00241817
0.00242033
0.00237937
0.00238023
0.00237977
0.002382
0.00234091
0.00234071
0.00234139
0.00234271
0.00230274
0.00230331
0.00230341
0.0023056
0.00226481
0.00226602
0.00226549
0.00226742
0.00222725
0.00222777
0.00222784
0.00222971
0.00218919
0.00218966
0.00218994
0.00219176
0.00215171
0.00215238
0.00215236
0.00215414
0.00211432
0.00211514
0.00211499
0.00211688
0.00207716
0.0020777
0.00207773
0.00207959
0.00203981
0.00204039
0.00204041
0.00204239
0.00200313
0.00200358
0.00200359
0.00200532
0.00196603
0.00196654
0.00196649
0.00196852
0.00192925
0.00192961
0.00192966
0.00193174
0.00189286
0.00189318
0.00189313
0.00189491
0.00185618
0.00185649
0.00185641
0.00185859
0.0018198
0.00181955
0.00181993
0.00182199
0.00178387
0.00178444
0.00178406
0.0017859
0.001748
0.0017477
0.00174763
0.00174998
0.00171163
0.00171137
0.0017118
0.00171368
0.00167561
0.00167618
0.00167575
0.00167796
0.0016402
0.00163997
0.00163993
0.00164198
0.00160444
0.00160425
0.00160439
0.00160654
0.0015692
0.00156871
0.00156886
0.00157069
0.00153369
0.00153347
0.00153341
0.00153574
0.00149805
0.00149838
0.00149794
0.00149972
0.00146249
0.00146179
0.00146207
0.00146415
0.00142773
0.00142753
0.00142777
0.00143017
0.00139313
0.00139305
0.00139308
0.00139479
0.00135839
0.00135787
0.00135738
0.00135937
0.00132331
0.00132281
0.00132301
0.0013247
0.00128793
0.00128789
0.00128814
0.00129018
0.00125285
0.00125281
0.00125276
0.00125515
0.00121859
0.00121821
0.00121798
0.00121975
0.00118391
0.00118377
0.00118393
0.00118534
0.00114959
0.00114899
0.00114892
0.00115096
0.0011143
0.0011146
0.00111439
0.00111668
0.00107968
0.00107957
0.00108012
0.00108182
0.0010459
0.00104509
0.00104517
0.0010469
0.00101187
0.00101144
0.00101069
0.00101276
0.000975956
0.000976528
0.000976582
0.000978579
0.000941388
0.000941374
0.000941985
0.000943744
0.000907829
0.000907344
0.000907339
0.000909254
0.000873537
0.000873019
0.00087283
0.000874828
0.000838558
0.000838755
0.000838288
0.000840276
0.000803827
0.000803675
0.000803934
0.00080568
0.000769201
0.000769088
0.000769499
0.000771477
0.000735184
0.000735243
0.000735071
0.000737256
0.0007009
0.000700604
0.000700421
0.000702224
0.000665847
0.000665667
0.00066573
0.000667611
0.000631109
0.000631107
0.000631203
0.000633189
0.000596212
0.00059608
0.000595896
0.00059774
0.000561255
0.000561221
0.000561153
0.000563139
0.000526791
0.00052684
0.000527116
0.000529344
0.000492566
0.000492576
0.000492795
0.000494709
0.000457736
0.000457454
0.000457121
0.00045881
0.000422104
0.000421802
0.000421364
0.000423162
0.000386655
0.000386828
0.000387116
0.000389384
0.000352012
0.000352264
0.000352616
0.000354801
0.000317171
0.000317078
0.000317063
0.00031881
0.000282486
0.000282229
0.000281975
0.000283831
0.000247135
0.000246891
0.000246663
0.000248759
0.000210653
0.000210638
0.000210922
0.000213055
0.000174993
0.000175225
0.000175531
0.000177426
0.000140132
0.000140022
0.00013976
0.000141662
0.000104803
0.000104648
0.000104299
0.000106521
6.89581e-05
6.89977e-05
6.91956e-05
7.11977e-05
3.41303e-05
3.35384e-05
3.38618e-05
3.5368e-05
6.20903e-06
7.04356e-06
7.02977e-06
5.05672e-06
0.00352353
0.00352102
0.00352115
0.00352358
0.00352102
0.00352109
0.00352753
0.00352752
0.00352755
0.00352758
0.00352123
0.00352128
0.00352358
0.00352108
0.0035213
0.0035237
0.00351881
0.00348993
0.00351811
0.00351812
0.00349183
0.00349179
0.00351887
0.00348993
0.0035181
0.00351811
0.00349182
0.00349182
0.00351821
0.00349173
0.00349179
0.00351884
0.00348993
0.0035182
0.00349171
0.00349181
0.00348994
0.00348513
0.00345128
0.00348224
0.00348227
0.00345359
0.0034536
0.00348518
0.00345132
0.00348226
0.00348225
0.00345356
0.00345356
0.0034823
0.00345353
0.00345358
0.00348516
0.00345127
0.00348235
0.00345348
0.00345362
0.0034513
0.00344575
0.003408
0.00344343
0.0034435
0.00341108
0.00341107
0.00344581
0.003408
0.00344347
0.00344338
0.00341104
0.00341103
0.00344348
0.00341107
0.00341107
0.00344575
0.00340801
0.0034434
0.00341102
0.00341108
0.003408
0.00340182
0.00336056
0.00339956
0.00339963
0.00336392
0.00336393
0.00340183
0.00336059
0.00339961
0.00339962
0.0033639
0.00336391
0.00339959
0.00336399
0.00336393
0.00340184
0.00336056
0.00339951
0.00336393
0.00336395
0.00336059
0.00335409
0.0033119
0.00335181
0.00335186
0.00331522
0.00331528
0.00335412
0.00331192
0.00335184
0.00335182
0.00331526
0.00331527
0.00335182
0.00331528
0.00331529
0.0033541
0.00331191
0.00335179
0.00331528
0.00331526
0.00331192
0.00330544
0.00326364
0.00330311
0.00330309
0.00326693
0.00326693
0.00330546
0.00326365
0.00330309
0.00330312
0.00326693
0.00326694
0.00330314
0.00326694
0.00326694
0.00330545
0.00326364
0.00330313
0.00326689
0.00326693
0.00326365
0.0032573
0.00321631
0.00325495
0.00325498
0.00321947
0.00321948
0.00325732
0.00321632
0.00325494
0.00325496
0.00321947
0.00321947
0.00325498
0.00321948
0.00321949
0.00325731
0.00321631
0.003255
0.00321946
0.00321951
0.00321633
0.00321012
0.00316999
0.00320776
0.00320777
0.00317303
0.00317305
0.00321014
0.00317002
0.00320775
0.00320778
0.00317303
0.00317302
0.00320781
0.00317304
0.00317305
0.00321013
0.00317
0.0032078
0.00317301
0.00317306
0.00317
0.00316394
0.00312464
0.00316159
0.00316159
0.00312757
0.00312758
0.00316397
0.00312464
0.00316156
0.00316158
0.00312756
0.00312755
0.00316161
0.00312757
0.0031276
0.00316395
0.00312462
0.00316161
0.00312755
0.00312758
0.00312463
0.00311871
0.00308016
0.00311636
0.0031164
0.00308306
0.00308306
0.00311874
0.0030802
0.00311635
0.00311637
0.00308303
0.00308304
0.00311638
0.00308304
0.00308305
0.00311872
0.00308019
0.00311636
0.00308304
0.00308306
0.00308019
0.00307438
0.00303646
0.003072
0.00307202
0.0030393
0.00303925
0.00307441
0.00303651
0.003072
0.00307204
0.00303927
0.00303928
0.00307204
0.00303929
0.00303926
0.00307439
0.00303652
0.00307203
0.00303929
0.00303929
0.0030365
0.00303077
0.00299336
0.00302846
0.00302853
0.00299623
0.00299622
0.00303083
0.0029934
0.00302846
0.00302849
0.0029962
0.0029962
0.00302849
0.00299618
0.00299614
0.0030308
0.00299337
0.00302849
0.00299619
0.00299618
0.00299345
0.00298778
0.00295071
0.00298545
0.00298541
0.00295349
0.00295352
0.00298785
0.00295081
0.00298545
0.00298547
0.0029535
0.00295349
0.00298552
0.00295347
0.00295347
0.00298778
0.00295071
0.00298548
0.0029535
0.00295351
0.00295082
0.00294516
0.00290834
0.00294284
0.0029428
0.00291115
0.00291109
0.00294525
0.00290845
0.00294285
0.00294288
0.00291114
0.00291116
0.00294296
0.00291109
0.00291104
0.0029452
0.00290842
0.00294293
0.00291113
0.00291105
0.00290844
0.00290285
0.00286633
0.00290059
0.00290055
0.00286906
0.002869
0.00290294
0.00286647
0.00290058
0.00290049
0.00286905
0.00286902
0.00290051
0.00286896
0.00286901
0.00290293
0.00286639
0.00290056
0.00286899
0.00286909
0.00286611
0.00286085
0.00282463
0.00285861
0.00285857
0.0028272
0.00282733
0.00286102
0.00282456
0.00285862
0.00285854
0.0028272
0.00282725
0.00285847
0.00282726
0.00282745
0.00286095
0.00282464
0.0028585
0.0028273
0.00282746
0.00282447
0.0028192
0.00278308
0.00281695
0.00281676
0.00278577
0.00278614
0.0028192
0.00278292
0.00281696
0.00281685
0.0027858
0.00278596
0.0028171
0.00278605
0.00278585
0.00281926
0.00278303
0.00281709
0.00278598
0.00278586
0.00278313
0.00277777
0.002742
0.00277555
0.00277576
0.00274482
0.00274491
0.00277772
0.00274218
0.00277555
0.00277559
0.00274487
0.00274495
0.00277587
0.00274488
0.00274491
0.00277773
0.00274195
0.00277582
0.00274493
0.00274492
0.00274208
0.0027368
0.00270123
0.00273479
0.00273512
0.00270411
0.00270394
0.00273699
0.00270113
0.00273472
0.0027348
0.00270417
0.00270419
0.00273486
0.00270409
0.00270427
0.00273676
0.0027013
0.00273478
0.00270416
0.00270423
0.00270127
0.00269605
0.00266057
0.00269402
0.00269387
0.00266381
0.00266374
0.00269589
0.00266059
0.00269405
0.00269408
0.00266384
0.00266382
0.00269417
0.00266366
0.00266377
0.00269607
0.00266065
0.00269405
0.00266384
0.00266382
0.00266067
0.00265543
0.00262064
0.00265373
0.00265366
0.00262372
0.00262388
0.00265554
0.0026208
0.00265378
0.0026537
0.00262378
0.00262375
0.00265379
0.00262374
0.00262374
0.00265555
0.00262064
0.00265369
0.00262377
0.00262386
0.00262074
0.00261556
0.00258096
0.00261384
0.00261409
0.0025842
0.00258431
0.00261577
0.00258104
0.0026138
0.00261381
0.00258424
0.00258414
0.00261397
0.00258433
0.00258423
0.0026155
0.00258094
0.00261384
0.00258416
0.00258428
0.00258095
0.00257592
0.00254144
0.00257418
0.00257434
0.0025447
0.00254474
0.002576
0.00254141
0.00257428
0.00257428
0.00254465
0.00254459
0.00257434
0.00254458
0.00254472
0.00257593
0.00254138
0.0025743
0.00254459
0.00254476
0.0025415
0.00253647
0.00250208
0.00253471
0.00253481
0.00250541
0.00250533
0.00253644
0.00250192
0.00253479
0.00253478
0.00250532
0.00250542
0.00253475
0.00250511
0.00250522
0.00253639
0.00250227
0.00253477
0.00250542
0.00250538
0.00250211
0.0024971
0.00246359
0.00249557
0.0024956
0.00246644
0.00246622
0.00249703
0.00246317
0.00249555
0.0024956
0.00246653
0.00246649
0.00249548
0.00246628
0.00246643
0.00249725
0.00246333
0.00249559
0.00246647
0.00246639
0.0024633
0.00245866
0.0024247
0.0024569
0.00245661
0.00242778
0.00242771
0.00245821
0.00242463
0.00245692
0.0024569
0.00242776
0.00242781
0.00245656
0.00242766
0.00242785
0.00245854
0.00242487
0.00245676
0.00242786
0.00242788
0.00242493
0.00241989
0.0023867
0.0024181
0.0024182
0.00238948
0.00238984
0.00241955
0.00238817
0.0024181
0.00241815
0.00238932
0.00238935
0.00241851
0.00239013
0.00238972
0.00241983
0.00238642
0.00241837
0.00238936
0.00238929
0.00238706
0.00238157
0.00234793
0.00237985
0.00238008
0.00235109
0.00235087
0.00238328
0.00234785
0.0023797
0.00237983
0.0023511
0.00235098
0.00237998
0.00235046
0.00235077
0.00238164
0.00234836
0.00237975
0.00235097
0.00235092
0.00234763
0.00234334
0.0023104
0.00234156
0.00234117
0.00231275
0.00231267
0.0023424
0.00230869
0.00234163
0.00234144
0.00231292
0.00231288
0.00234123
0.00231242
0.00231255
0.00234339
0.00231007
0.00234143
0.00231294
0.00231291
0.00231043
0.00230525
0.00227154
0.00230315
0.00230325
0.00227478
0.00227502
0.00230442
0.00227329
0.00230328
0.00230333
0.00227478
0.00227489
0.00230317
0.00227541
0.00227512
0.00230519
0.00227222
0.00230329
0.00227495
0.00227487
0.00227232
0.00226683
0.00223504
0.00226549
0.00226566
0.00223759
0.00223752
0.00226835
0.00223465
0.00226543
0.00226547
0.00223739
0.00223726
0.00226583
0.00223737
0.00223749
0.00226731
0.00223452
0.0022655
0.00223724
0.00223737
0.00223457
0.00223014
0.00219665
0.00222808
0.00222802
0.00219933
0.00219924
0.0022297
0.00219654
0.00222792
0.00222784
0.00219942
0.00219941
0.00222794
0.00219913
0.00219922
0.00222965
0.00219683
0.00222795
0.00219937
0.00219934
0.00219676
0.00219166
0.00215898
0.00218984
0.00218973
0.00216159
0.00216165
0.00219158
0.00215894
0.00218995
0.00218992
0.00216165
0.00216171
0.00218973
0.00216166
0.00216165
0.00219188
0.002159
0.00218984
0.00216173
0.00216168
0.00215895
0.00215416
0.00212182
0.00215228
0.00215236
0.00212441
0.00212449
0.00215413
0.00212193
0.00215232
0.00215238
0.00212439
0.0021243
0.00215232
0.00212451
0.00212442
0.00215411
0.0021218
0.00215233
0.00212429
0.0021244
0.0021218
0.00211694
0.00208438
0.00211513
0.00211514
0.00208708
0.00208703
0.002117
0.00208438
0.00211509
0.00211498
0.00208706
0.00208701
0.00211511
0.00208704
0.00208707
0.00211695
0.00208439
0.00211508
0.00208709
0.00208704
0.00208445
0.00207949
0.00204718
0.00207772
0.00207769
0.00204965
0.00204963
0.00207949
0.00204721
0.0020777
0.00207764
0.00204964
0.00204973
0.00207771
0.00204966
0.00204972
0.00207947
0.00204721
0.0020777
0.0020497
0.00204977
0.00204727
0.00204232
0.00201039
0.00204036
0.00204036
0.00201284
0.0020128
0.00204236
0.00201032
0.00204035
0.00204044
0.00201289
0.00201283
0.00204047
0.00201278
0.00201278
0.00204235
0.0020104
0.00204051
0.00201279
0.00201273
0.00201019
0.00200552
0.0019733
0.00200364
0.00200364
0.00197577
0.00197584
0.00200547
0.00197335
0.00200371
0.0020036
0.00197576
0.00197578
0.0020035
0.00197582
0.00197571
0.00200555
0.00197331
0.00200346
0.00197579
0.00197575
0.00197336
0.0019684
0.00193648
0.00196648
0.00196652
0.00193878
0.00193875
0.00196845
0.0019364
0.00196646
0.0019665
0.00193875
0.00193877
0.0019665
0.00193879
0.00193899
0.00196841
0.00193646
0.00196653
0.00193884
0.00193898
0.00193662
0.00193167
0.00189996
0.00192965
0.00192958
0.00190238
0.0019023
0.00193157
0.00190008
0.00192962
0.00192958
0.00190237
0.00190224
0.00192981
0.00190225
0.00190215
0.0019316
0.00189996
0.00192979
0.0019022
0.00190214
0.00189975
0.00189505
0.00186315
0.00189314
0.00189326
0.00186535
0.00186578
0.0018953
0.00186327
0.00189316
0.00189315
0.00186541
0.00186566
0.00189293
0.00186581
0.00186557
0.00189517
0.00186329
0.00189295
0.00186567
0.00186557
0.00186338
0.00185834
0.001827
0.00185624
0.00185641
0.0018292
0.00182852
0.00185827
0.00182642
0.00185627
0.00185642
0.00182922
0.00182895
0.00185652
0.00182859
0.00182919
0.0018584
0.00182679
0.00185649
0.00182896
0.00182919
0.00182689
0.00182222
0.00179075
0.00182021
0.00181953
0.00179302
0.00179325
0.00182172
0.00179116
0.00182021
0.00181992
0.00179291
0.00179308
0.00182001
0.00179318
0.00179272
0.00182201
0.00179093
0.00182004
0.00179306
0.00179275
0.00179062
0.00178593
0.00175464
0.00178392
0.00178457
0.00175678
0.00175714
0.00178646
0.00175463
0.00178382
0.00178408
0.00175681
0.00175667
0.00178374
0.00175711
0.00175705
0.00178611
0.00175445
0.00178377
0.00175668
0.00175695
0.0017548
0.00174986
0.00171852
0.0017478
0.00174766
0.00172067
0.00172004
0.00174962
0.00171811
0.00174784
0.00174762
0.00172074
0.00172079
0.00174804
0.00172011
0.00172063
0.0017497
0.00171868
0.00174793
0.00172077
0.00172068
0.00171849
0.00171368
0.00168261
0.00171159
0.00171132
0.00168462
0.00168509
0.0017135
0.00168305
0.00171166
0.00171183
0.00168467
0.00168471
0.00171153
0.00168511
0.00168472
0.00171387
0.00168266
0.00171164
0.00168471
0.00168482
0.00168274
0.0016779
0.00164685
0.00167576
0.00167616
0.00164909
0.00164903
0.00167825
0.00164683
0.00167575
0.00167572
0.00164892
0.00164884
0.00167585
0.00164899
0.00164891
0.00167786
0.00164671
0.00167588
0.00164888
0.00164873
0.00164672
0.001642
0.00161113
0.00164005
0.00164002
0.00161311
0.00161307
0.00164202
0.00161105
0.00163991
0.00163992
0.00161317
0.00161327
0.00163993
0.00161308
0.00161336
0.00164195
0.00161124
0.0016398
0.00161327
0.00161338
0.00161132
0.00160645
0.00157599
0.00160428
0.00160423
0.00157803
0.00157762
0.00160632
0.00157561
0.00160439
0.0016044
0.00157807
0.00157777
0.00160449
0.0015776
0.00157753
0.00160649
0.00157571
0.00160455
0.00157772
0.00157758
0.00157543
0.00157117
0.00153991
0.00156916
0.00156875
0.00154205
0.00154226
0.00157084
0.00154019
0.00156916
0.00156892
0.00154205
0.00154229
0.00156854
0.00154221
0.0015424
0.00157094
0.00154018
0.0015686
0.00154222
0.00154237
0.00154044
0.00153513
0.00150465
0.00153303
0.00153345
0.00150661
0.0015071
0.0015355
0.00150509
0.00153306
0.00153339
0.00150657
0.00150671
0.00153383
0.00150728
0.00150691
0.00153546
0.00150472
0.00153374
0.00150692
0.00150685
0.0015046
0.00149995
0.00146932
0.0014979
0.00149824
0.00147146
0.00147103
0.00150026
0.00146883
0.00149783
0.0014978
0.00147137
0.00147107
0.00149758
0.00147084
0.00147058
0.00149989
0.00146895
0.00149756
0.00147091
0.00147055
0.00146873
0.00146452
0.00143416
0.00146254
0.00146201
0.00143614
0.00143598
0.00146407
0.0014341
0.00146249
0.00146228
0.0014362
0.00143631
0.00146209
0.00143594
0.0014368
0.00146424
0.00143438
0.00146212
0.00143626
0.00143689
0.00143481
0.00142953
0.00139958
0.00142748
0.00142747
0.00140148
0.00140161
0.00142951
0.00139967
0.0014276
0.00142774
0.00140165
0.00140179
0.00142825
0.00140183
0.00140164
0.00142979
0.00139971
0.00142831
0.00140197
0.00140169
0.00139952
0.00139488
0.0013644
0.00139282
0.00139286
0.00136669
0.00136677
0.00139495
0.00136453
0.00139293
0.00139293
0.00136641
0.0013662
0.00139263
0.00136665
0.00136616
0.00139492
0.00136407
0.00139268
0.00136612
0.00136601
0.0013641
0.00135967
0.00132948
0.0013579
0.00135805
0.00133157
0.00133165
0.00135983
0.00132951
0.00135759
0.0013575
0.0013315
0.00133169
0.0013575
0.00133153
0.00133154
0.00135937
0.00132958
0.00135733
0.00133162
0.00133156
0.00132935
0.00132479
0.00129471
0.00132285
0.00132289
0.00129664
0.0012966
0.00132478
0.0012946
0.00132288
0.00132307
0.00129684
0.00129689
0.00132286
0.00129665
0.0012968
0.00132493
0.00129496
0.00132295
0.00129692
0.00129694
0.00129486
0.00128997
0.00125957
0.00128786
0.0012878
0.00126155
0.00126136
0.00128987
0.00125946
0.00128804
0.00128806
0.0012616
0.00126149
0.00128808
0.00126155
0.00126191
0.00129022
0.00125946
0.00128819
0.00126162
0.00126191
0.00125993
0.00125484
0.00122464
0.00125288
0.00125265
0.00122682
0.00122683
0.00125475
0.00122477
0.00125286
0.00125265
0.00122667
0.00122659
0.0012532
0.00122679
0.00122668
0.00125469
0.0012245
0.00125316
0.00122655
0.00122655
0.00122449
0.00121998
0.00119051
0.00121812
0.00121833
0.0011925
0.00119269
0.00122011
0.00119044
0.00121798
0.00121807
0.00119244
0.00119261
0.00121791
0.00119247
0.00119199
0.00121986
0.00119051
0.00121777
0.00119247
0.00119201
0.00118997
0.00118591
0.00115575
0.00118399
0.00118397
0.00115793
0.00115772
0.00118576
0.00115563
0.00118399
0.00118406
0.00115797
0.00115776
0.00118338
0.00115765
0.00115762
0.00118589
0.00115561
0.00118346
0.00115768
0.0011577
0.00115562
0.00115093
0.0011205
0.00114906
0.00114897
0.00112263
0.00112291
0.00115092
0.00112101
0.00114908
0.00114887
0.00112263
0.00112279
0.00114907
0.00112319
0.00112341
0.00115086
0.00112083
0.00114909
0.00112295
0.0011233
0.00112132
0.00111578
0.00108624
0.0011139
0.00111424
0.00108811
0.00108818
0.00111632
0.00108619
0.00111395
0.00111418
0.00108819
0.00108853
0.00111484
0.00108837
0.00108864
0.00111618
0.00108665
0.00111472
0.00108871
0.00108873
0.00108658
0.00108165
0.00105262
0.00107967
0.00107953
0.00105449
0.00105397
0.00108147
0.00105184
0.00107973
0.00108
0.00105441
0.00105417
0.00107979
0.00105357
0.00105359
0.00108201
0.00105195
0.00107996
0.00105395
0.00105372
0.00105159
0.00104809
0.0010178
0.00104621
0.00104558
0.00102019
0.00102018
0.00104728
0.00101803
0.00104603
0.00104546
0.00102
0.00101941
0.00104498
0.00101987
0.00101942
0.00104722
0.00101726
0.00104503
0.00101922
0.00101926
0.00101736
0.00101294
0.000982266
0.00101113
0.00101151
0.000984346
0.000984873
0.00101337
0.000982914
0.00101102
0.00101076
0.000984478
0.000984892
0.00101095
0.000985434
0.000985387
0.0010126
0.000983001
0.00101076
0.000985135
0.000985271
0.000983289
0.000977473
0.000947987
0.000975487
0.000975999
0.000949652
0.00094982
0.00097809
0.000947865
0.000975718
0.00097629
0.000949954
0.000950559
0.000976667
0.000950031
0.000950408
0.00097833
0.000948583
0.000976661
0.000950694
0.000950627
0.000948463
0.000943463
0.000914596
0.000941393
0.00094131
0.000916508
0.000916156
0.000943223
0.000914146
0.000941622
0.00094197
0.000916451
0.000916197
0.000941757
0.000915851
0.000915971
0.000943881
0.000914088
0.00094197
0.000915971
0.000916011
0.000913929
0.00091001
0.000879927
0.000908096
0.000907698
0.000882263
0.000881867
0.000909529
0.000879795
0.000907971
0.000907587
0.000881942
0.00088154
0.000907367
0.000881601
0.00088153
0.000909413
0.000879468
0.000907318
0.00088145
0.00088139
0.000879508
0.000875112
0.000844766
0.000873374
0.000873193
0.000846888
0.00084719
0.000875092
0.00084518
0.000873091
0.000872785
0.00084679
0.000846684
0.000872915
0.000847341
0.000847039
0.000874745
0.0008448
0.000872807
0.000846921
0.000846999
0.000845008
0.000840057
0.000810281
0.000838187
0.000838557
0.000812185
0.000812318
0.000840464
0.000810237
0.000838177
0.000838083
0.000812413
0.000812515
0.000838354
0.000812488
0.000812326
0.000840102
0.000810534
0.000838312
0.00081252
0.000812406
0.00081035
0.000805586
0.000775791
0.000803526
0.00080355
0.000777642
0.000777555
0.000805492
0.000775647
0.000803806
0.000803999
0.000777871
0.000778158
0.000803722
0.00077761
0.000778074
0.000805876
0.000776137
0.00080383
0.000778098
0.00077819
0.000776136
0.000771112
0.000741792
0.000769085
0.000769057
0.000743756
0.000743797
0.000771043
0.000741919
0.000769225
0.000769518
0.000743603
0.000743726
0.000769562
0.000743739
0.000743965
0.000771449
0.000741724
0.000769634
0.000743686
0.000743857
0.00074195
0.000737171
0.000707531
0.000735301
0.00073532
0.000709638
0.000709493
0.000737279
0.000707352
0.000735104
0.000735126
0.000709516
0.00070921
0.000735366
0.000709388
0.000709053
0.00073703
0.000707155
0.000735197
0.000709131
0.000708978
0.00070699
0.000702719
0.000672163
0.000700843
0.000700697
0.000674202
0.000674278
0.000702546
0.000672223
0.000700797
0.000700464
0.000674306
0.00067424
0.000700242
0.00067432
0.000674161
0.000702398
0.000672297
0.000700258
0.000674352
0.000674315
0.000672278
0.000667427
0.000637699
0.000665471
0.000665575
0.000639649
0.000639672
0.000667497
0.000637746
0.000665561
0.000665594
0.000639677
0.000639803
0.000665606
0.000639786
0.000639964
0.00066759
0.000637849
0.000665741
0.000639901
0.000639966
0.000637963
0.000633004
0.000602957
0.00063105
0.000631029
0.000604958
0.000604938
0.000633038
0.00060291
0.000631067
0.000631173
0.00060496
0.000604906
0.000631269
0.000604866
0.000604733
0.00063313
0.000602793
0.000631206
0.000604748
0.000604642
0.000602593
0.000598171
0.000567947
0.000596191
0.000596189
0.000569944
0.000569937
0.000598117
0.000567953
0.000596173
0.000596088
0.000569887
0.000569768
0.000595828
0.000569876
0.00056963
0.000597975
0.000567816
0.000595728
0.000569733
0.000569607
0.000567752
0.000563208
0.000533411
0.000561252
0.000561236
0.000535332
0.000535282
0.000563223
0.000533406
0.000561208
0.000561123
0.000535373
0.000535483
0.000561141
0.000535402
0.000535783
0.000563129
0.000533644
0.000561145
0.000535616
0.00053584
0.000533942
0.000528725
0.000499188
0.000526735
0.0005267
0.000501099
0.000501078
0.000528732
0.000499152
0.000526794
0.000526963
0.000501158
0.000501393
0.00052735
0.000501156
0.000501717
0.000528996
0.000499421
0.000527433
0.000501521
0.00050183
0.000499592
0.000494485
0.000464191
0.00049254
0.000492566
0.000466329
0.000466487
0.000494484
0.000464253
0.000492553
0.000492758
0.000466267
0.000466189
0.000492811
0.000466343
0.000465798
0.000494658
0.000463979
0.000492885
0.000466042
0.000465723
0.000463663
0.000459399
0.000428793
0.000457515
0.000457601
0.000430921
0.000430875
0.000459408
0.00042872
0.000457457
0.000457288
0.000430853
0.000430507
0.000456878
0.000430716
0.000429974
0.000459125
0.000428272
0.000456792
0.000430252
0.000429798
0.000427869
0.000423929
0.000393594
0.000421999
0.000421926
0.00039547
0.000395298
0.000423846
0.000393543
0.000421938
0.000421575
0.000395516
0.000395485
0.000421246
0.000395468
0.00039588
0.00042344
0.000393753
0.000421077
0.000395622
0.000395916
0.000394073
0.000388832
0.000358875
0.000386745
0.000386636
0.000360733
0.000360739
0.000388824
0.000358913
0.000386822
0.000386905
0.000360846
0.000361078
0.000387333
0.000360923
0.00036147
0.000389084
0.000359306
0.000387419
0.000361318
0.000361631
0.000359616
0.000354134
0.00032371
0.000352063
0.000352095
0.000325776
0.000325951
0.000354184
0.000323823
0.00035219
0.000352422
0.000325757
0.000326003
0.000352696
0.000325897
0.000325801
0.00035456
0.000323834
0.000352848
0.000325988
0.000325824
0.000323664
0.000318921
0.000289042
0.000317009
0.000317169
0.000291069
0.000291045
0.000319017
0.000288968
0.000316962
0.000317132
0.000290994
0.00029084
0.00031689
0.000290896
0.000290627
0.000318981
0.000288749
0.000316866
0.000290696
0.000290544
0.000288568
0.000284348
0.000253977
0.000282464
0.000282386
0.000256128
0.000255922
0.000284246
0.000253802
0.000282387
0.000282141
0.000256083
0.000255693
0.000281947
0.000255842
0.000255687
0.000284005
0.000253578
0.000281849
0.000255563
0.00025558
0.000253606
0.000248997
0.00021743
0.000247021
0.000246905
0.000219559
0.000219586
0.000248907
0.000217519
0.000246998
0.000246742
0.000219598
0.000219647
0.000246817
0.000219712
0.000219918
0.000248708
0.000217707
0.000246718
0.000219777
0.000219963
0.000217931
0.000212439
0.000182001
0.000210388
0.000210466
0.000183782
0.0001839
0.000212562
0.000182058
0.00021046
0.000210723
0.000183898
0.000184294
0.000210967
0.000184006
0.000184222
0.000212862
0.000182408
0.00021107
0.000184417
0.000184351
0.000182309
0.000177268
0.000147102
0.000175153
0.000175195
0.000149051
0.000148958
0.000177271
0.000146943
0.000175238
0.000175479
0.00014901
0.000148876
0.000175309
0.000148813
0.000148542
0.00017756
0.000146762
0.00017541
0.000148729
0.000148507
0.000146517
0.000142301
0.000111441
0.000140322
0.000140211
0.000113666
0.000113617
0.000142142
0.000111477
0.000140223
0.000139939
0.000113509
0.00011313
0.000139674
0.000113554
0.000113372
0.000141855
0.000111067
0.000139595
0.000113081
0.000113247
0.00011131
0.000106483
7.55845e-05
0.000104604
0.000104608
7.76251e-05
7.77503e-05
0.000106563
7.57542e-05
0.000104497
0.000104274
7.76695e-05
7.78357e-05
0.000104648
7.7884e-05
7.82032e-05
0.000106229
7.58808e-05
0.000104555
7.79861e-05
7.82465e-05
7.61447e-05
7.06846e-05
4.02745e-05
6.87444e-05
6.88661e-05
4.21935e-05
4.22199e-05
7.08375e-05
4.02367e-05
6.88165e-05
6.90594e-05
4.23239e-05
4.2623e-05
6.92556e-05
4.22619e-05
4.23228e-05
7.10252e-05
4.06074e-05
6.93302e-05
4.26145e-05
4.24083e-05
4.03103e-05
3.54374e-05
8.62772e-06
3.35699e-05
3.35522e-05
1.16789e-05
1.15649e-05
3.53541e-05
8.46136e-06
3.3695e-05
3.39173e-05
1.17006e-05
1.16241e-05
3.35202e-05
1.14675e-05
1.12527e-05
3.56974e-05
8.46827e-06
3.3601e-05
1.15187e-05
1.12752e-05
8.24239e-06
5.36367e-06
7.27647e-06
7.16446e-06
5.23822e-06
7.18431e-06
7.12358e-06
6.05841e-06
6.03142e-06
5.87705e-06
6.91951e-06
5.19492e-06
6.85648e-06
0.00353063
0.00353313
0.0035319
0.00353206
0.00355915
0.00353312
0.00356264
0.00353348
0.00355928
0.00353311
0.00353343
0.0035627
0.00354425
0.00356592
0.00356608
0.00350335
0.00351681
0.00352075
0.00349568
0.00349357
0.00349912
0.00350334
0.00351682
0.0035207
0.00349553
0.00351918
0.00351922
0.00351923
0.0034929
0.00349285
0.00349289
0.00349283
0.00350299
0.00351459
0.00351977
0.00351048
0.00352194
0.00350019
0.00351075
0.00349392
0.0034991
0.00350302
0.00351979
0.00351454
0.00351051
0.00352194
0.00351081
0.00350012
0.00352073
0.00352072
0.00350778
0.00350005
0.00349999
0.00347585
0.00348999
0.00348988
0.00347386
0.00348736
0.00347275
0.00347578
0.00349005
0.00348989
0.00347383
0.00348379
0.00348383
0.00348373
0.00345542
0.0034554
0.00345544
0.00345536
0.00347354
0.0034886
0.00348233
0.00347284
0.00348703
0.00347411
0.00347285
0.00348716
0.00347286
0.00347356
0.00348231
0.00348859
0.00347279
0.00348701
0.00347287
0.00347411
0.00349029
0.00349021
0.00347132
0.00347451
0.00347445
0.00343336
0.0034481
0.00344892
0.00343199
0.0034469
0.00343106
0.00343331
0.00344803
0.00344889
0.00343198
0.00344532
0.00344536
0.00344527
0.00341283
0.00341278
0.00341283
0.00341276
0.003432
0.00344765
0.00344348
0.00343298
0.00344659
0.00343253
0.00343301
0.00344688
0.00343106
0.00343202
0.00344343
0.00344759
0.00343295
0.00344653
0.00343299
0.00343252
0.00344832
0.00344837
0.0034303
0.00343227
0.00343231
0.00338707
0.00340342
0.00340488
0.00338561
0.00340268
0.0033851
0.00338704
0.00340341
0.00340486
0.00338564
0.00340126
0.00340131
0.00340124
0.00336545
0.00336544
0.00336546
0.00336541
0.00338618
0.00340325
0.00339959
0.00338785
0.00340267
0.00338632
0.00338789
0.00340272
0.00338505
0.0033862
0.0033996
0.0034033
0.00338789
0.00340267
0.0033879
0.00338628
0.00340347
0.00340348
0.00338463
0.00338579
0.00338585
0.00333816
0.00335525
0.00335663
0.00333698
0.00335487
0.00333666
0.00333817
0.00335526
0.00335657
0.00333698
0.00335326
0.00335327
0.00335324
0.00331661
0.00331659
0.00331662
0.00331658
0.00333773
0.00335528
0.00335186
0.00333966
0.00335494
0.00333764
0.00333969
0.00335483
0.00333666
0.00333777
0.00335182
0.00335526
0.00333963
0.00335493
0.00333967
0.00333769
0.00335532
0.00335535
0.00333627
0.00333708
0.0033371
0.00328907
0.00330638
0.00330737
0.0032882
0.00330611
0.00328797
0.00328907
0.00330637
0.00330734
0.0032882
0.00330441
0.00330444
0.00330439
0.00326815
0.00326812
0.00326814
0.0032681
0.003289
0.00330641
0.00330316
0.00329101
0.00330618