/*--------------------------------*- C++ -*----------------------------------*\
| =========                 |                                                 |
| \\      /  F ield         | OpenFOAM: The Open Source CFD Toolbox           |
|  \\    /   O peration     | Version:  v2006                                 |
|   \\  /    A nd           | Website:  www.openfoam.com                      |
|    \\/     M anipulation  |                                                 |
\*---------------------------------------------------------------------------*/
FoamFile
{
    version     2.0;
    format      ascii;
    class       volScalarField;
    location    "250";
    object      k;
}
// * * * * * * * * * * * * * * * * * * * * * * * * * * * * * * * * * * * * * //

dimensions      [0 2 -2 0 0 0 0];


internalField   nonuniform List<scalar> 
14231
(
1.92852e-05
1.85898e-05
1.92865e-05
2.03339e-05
6.92389e-05
3.23458e-05
3.08755e-05
1.97548e-05
1.92604e-05
7.08793e-05
4.66784e-05
4.66702e-05
7.08788e-05
3.08717e-05
6.92435e-05
1.97549e-05
1.92599e-05
3.23398e-05
7.13734e-05
6.92204e-05
6.30629e-05
6.26147e-05
7.13935e-05
7.1506e-05
3.2066e-05
7.25543e-05
3.93131e-05
7.26659e-05
3.89052e-05
7.14402e-05
7.0904e-05
3.81645e-05
2.40836e-05
4.63341e-05
6.69699e-05
2.39897e-05
6.69651e-05
3.86449e-05
3.81324e-05
2.4116e-05
4.63315e-05
6.69658e-05
6.69602e-05
2.39617e-05
3.87207e-05
7.45943e-05
7.28351e-05
7.28413e-05
7.27894e-05
7.27958e-05
7.5575e-05
7.09032e-05
6.92223e-05
7.15062e-05
3.20623e-05
3.93022e-05
7.25549e-05
3.88844e-05
7.26663e-05
7.14403e-05
2.28319e-05
1.865e-05
1.9168e-05
1.91692e-05
1.92126e-05
1.92125e-05
2.29162e-05
2.07944e-05
1.87213e-05
1.98566e-05
3.07627e-05
2.51089e-05
2.50159e-05
1.9858e-05
1.86608e-05
1.83851e-05
1.92611e-05
2.07648e-05
1.81562e-05
2.07286e-05
1.82493e-05
1.82935e-05
1.98554e-05
3.07581e-05
1.98562e-05
1.83849e-05
1.92608e-05
1.81558e-05
2.07636e-05
1.82931e-05
1.8249e-05
2.07275e-05
1.85913e-05
1.92856e-05
1.92865e-05
1.84904e-05
1.90937e-05
1.90946e-05
2.0334e-05
6.925e-05
6.92517e-05
3.25329e-05
7.08775e-05
7.08778e-05
4.66441e-05
4.66491e-05
6.92422e-05
3.23438e-05
3.08754e-05
1.97549e-05
1.92602e-05
6.92444e-05
3.08777e-05
7.08186e-05
7.0819e-05
4.68755e-05
4.68829e-05
3.11145e-05
3.11168e-05
1.95431e-05
1.92662e-05
6.92695e-05
7.14098e-05
6.33162e-05
6.92695e-05
7.13909e-05
6.37365e-05
7.1247e-05
3.28261e-05
3.96146e-05
7.23678e-05
7.13079e-05
4.0024e-05
7.22628e-05
7.09026e-05
7.09028e-05
3.83476e-05
2.40982e-05
4.6328e-05
6.69636e-05
6.69635e-05
2.40127e-05
3.86148e-05
3.83841e-05
2.41038e-05
4.63355e-05
6.69697e-05
6.69694e-05
2.40185e-05
3.86523e-05
7.52123e-05
7.28146e-05
7.28081e-05
7.28132e-05
7.28067e-05
7.54327e-05
7.13726e-05
6.92237e-05
6.30808e-05
7.13931e-05
6.26172e-05
7.15065e-05
3.2065e-05
7.25552e-05
3.93088e-05
7.14407e-05
7.26662e-05
3.88992e-05
6.92247e-05
7.07966e-05
7.0797e-05
3.91488e-05
2.42722e-05
6.69631e-05
4.71918e-05
3.89084e-05
6.69665e-05
2.43605e-05
3.91911e-05
2.42787e-05
6.69694e-05
4.72037e-05
3.89556e-05
6.69729e-05
2.43672e-05
7.57891e-05
7.28056e-05
7.27991e-05
7.55483e-05
7.28192e-05
7.28127e-05
2.28806e-05
1.8651e-05
1.91749e-05
1.91742e-05
1.92173e-05
1.92166e-05
2.29473e-05
2.31596e-05
1.91611e-05
1.91605e-05
1.84303e-05
2.30904e-05
1.91252e-05
1.91246e-05
2.07944e-05
2.11647e-05
2.07945e-05
2.11646e-05
1.87214e-05
1.9857e-05
3.07628e-05
2.51105e-05
1.98582e-05
2.50176e-05
1.86611e-05
1.83851e-05
1.9261e-05
2.07645e-05
1.81562e-05
2.07284e-05
1.82492e-05
1.82936e-05
1.98577e-05
3.07652e-05
1.98589e-05
1.8661e-05
1.98695e-05
3.12299e-05
1.98717e-05
1.8585e-05
1.98703e-05
2.53183e-05
3.12324e-05
2.54145e-05
1.86388e-05
1.98726e-05
1.81601e-05
1.92707e-05
2.0848e-05
1.80825e-05
2.08896e-05
1.82472e-05
1.79911e-05
2.09865e-05
1.99011e-05
1.99012e-05
1.91816e-05
1.93152e-05
2.0118e-05
2.01177e-05
1.93153e-05
2.01188e-05
2.01175e-05
2.0119e-05
2.01178e-05
1.93139e-05
2.01189e-05
2.01188e-05
1.93141e-05
1.91819e-05
1.99002e-05
1.99e-05
1.91816e-05
1.9901e-05
1.98999e-05
1.99001e-05
1.91808e-05
1.99011e-05
2.12115e-05
2.12114e-05
2.12113e-05
2.12113e-05
3.14471e-05
6.91555e-05
3.08019e-05
6.91914e-05
7.12033e-05
7.10632e-05
3.14489e-05
6.91549e-05
3.07999e-05
6.91927e-05
2.09865e-05
2.09863e-05
2.09864e-05
1.92799e-05
2.97713e-05
2.04199e-05
1.96899e-05
1.93513e-05
3.01972e-05
2.01933e-05
7.1203e-05
7.10629e-05
1.92796e-05
2.04198e-05
2.9774e-05
1.96898e-05
1.93512e-05
2.01932e-05
3.0197e-05
4.46176e-05
4.46204e-05
1.89357e-05
4.55103e-05
4.55177e-05
7.12845e-05
7.12844e-05
4.43855e-05
4.43883e-05
6.91496e-05
3.06423e-05
6.91456e-05
6.91201e-05
3.06422e-05
2.95672e-05
2.06514e-05
1.93676e-05
2.03421e-05
2.95701e-05
2.06513e-05
2.91866e-05
1.93677e-05
7.12849e-05
7.14523e-05
1.95805e-05
4.43703e-05
4.43551e-05
4.34445e-05
4.34338e-05
7.12842e-05
7.14516e-05
6.91488e-05
3.06414e-05
2.95693e-05
2.06514e-05
1.93674e-05
6.91471e-05
3.06392e-05
2.06511e-05
2.95672e-05
1.93674e-05
1.94937e-05
2.03432e-05
2.95669e-05
2.06515e-05
2.9183e-05
2.08882e-05
1.93678e-05
3.00811e-05
6.91494e-05
6.9122e-05
3.06462e-05
1.94938e-05
2.06513e-05
2.95673e-05
2.0888e-05
1.93677e-05
3.00861e-05
6.91463e-05
3.06445e-05
7.12868e-05
4.44179e-05
4.44056e-05
7.12863e-05
2.06514e-05
2.95642e-05
1.93674e-05
2.06513e-05
2.95695e-05
1.93675e-05
6.91513e-05
3.06451e-05
6.91462e-05
3.06441e-05
4.43564e-05
4.43572e-05
7.12847e-05
7.12848e-05
7.12036e-05
7.10624e-05
7.12033e-05
7.10626e-05
4.46485e-05
4.46535e-05
1.89364e-05
4.55143e-05
4.55197e-05
7.09949e-05
7.09948e-05
1.88194e-05
4.57835e-05
4.57894e-05
3.1448e-05
6.91517e-05
3.0801e-05
6.91875e-05
1.92798e-05
2.97752e-05
2.04199e-05
1.96888e-05
1.93514e-05
3.01937e-05
2.01932e-05
1.92801e-05
2.97751e-05
2.04198e-05
1.96886e-05
1.93515e-05
3.02006e-05
2.01931e-05
3.16177e-05
6.91986e-05
3.16164e-05
6.91942e-05
1.92748e-05
1.94841e-05
3.04196e-05
1.99716e-05
1.92749e-05
1.94838e-05
3.04249e-05
1.99715e-05
4.46201e-05
4.46121e-05
1.89371e-05
4.55392e-05
4.55271e-05
7.12025e-05
7.10626e-05
7.09929e-05
1.882e-05
4.57538e-05
4.57496e-05
7.09923e-05
1.92797e-05
2.97766e-05
2.04198e-05
1.96897e-05
1.93511e-05
3.01958e-05
2.01932e-05
3.14448e-05
6.91526e-05
3.08064e-05
6.91888e-05
1.92797e-05
2.04196e-05
2.97773e-05
1.96884e-05
1.93512e-05
2.01929e-05
3.02001e-05
3.16165e-05
6.91989e-05
1.92747e-05
1.9485e-05
3.04215e-05
1.99716e-05
3.16204e-05
6.91959e-05
1.92746e-05
1.94836e-05
1.99714e-05
3.04217e-05
3.14523e-05
6.91535e-05
3.07987e-05
6.91952e-05
1.92799e-05
2.04197e-05
2.97754e-05
1.96887e-05
1.93513e-05
2.01931e-05
3.01955e-05
3.14487e-05
6.91518e-05
3.08017e-05
6.91901e-05
1.92748e-05
1.9485e-05
3.04213e-05
1.99718e-05
3.16227e-05
6.92004e-05
1.92748e-05
1.94839e-05
1.99715e-05
3.04185e-05
3.16222e-05
6.91964e-05
4.46317e-05
4.46302e-05
1.89376e-05
4.55391e-05
4.55256e-05
7.12026e-05
7.10625e-05
7.09946e-05
1.88186e-05
4.57694e-05
4.57689e-05
7.09942e-05
1.92798e-05
2.04197e-05
2.97774e-05
1.96896e-05
1.93513e-05
2.01931e-05
3.01979e-05
3.1448e-05
6.91561e-05
3.08031e-05
6.91937e-05
3.1449e-05
6.91513e-05
3.08016e-05
6.91907e-05
1.92746e-05
1.94848e-05
1.99715e-05
3.04184e-05
1.92748e-05
1.94848e-05
1.99715e-05
3.04208e-05
3.16208e-05
6.92002e-05
3.16211e-05
6.91968e-05
7.12025e-05
7.1063e-05
7.12025e-05
7.10634e-05
1.88181e-05
4.57475e-05
4.57471e-05
7.09938e-05
7.09939e-05
7.19487e-05
3.1199e-05
7.31782e-05
3.79018e-05
7.33012e-05
3.75024e-05
7.18726e-05
7.13366e-05
6.03466e-05
6.917e-05
7.13173e-05
6.08544e-05
7.21116e-05
3.10363e-05
7.36368e-05
3.68338e-05
7.21934e-05
7.35081e-05
3.72253e-05
7.13342e-05
6.16381e-05
6.91758e-05
6.11185e-05
7.13553e-05
7.11701e-05
7.10937e-05
7.19486e-05
3.1201e-05
3.79055e-05
7.3178e-05
3.75159e-05
7.33014e-05
7.18724e-05
7.13378e-05
6.03346e-05
6.91718e-05
7.13176e-05
6.08825e-05
7.21115e-05
3.10368e-05
3.68232e-05
7.36371e-05
7.21935e-05
3.72288e-05
7.35078e-05
7.13349e-05
6.16237e-05
6.91777e-05
6.11481e-05
7.13546e-05
7.11683e-05
7.10927e-05
7.2704e-05
7.27709e-05
7.27644e-05
7.27364e-05
7.27299e-05
7.33739e-05
3.64609e-05
2.32987e-05
6.70123e-05
4.49638e-05
3.62598e-05
2.33663e-05
6.70012e-05
3.64962e-05
2.3304e-05
6.70162e-05
4.49699e-05
3.62738e-05
2.33714e-05
6.70058e-05
7.24371e-05
7.27376e-05
7.27313e-05
7.22653e-05
7.27376e-05
7.27309e-05
3.67928e-05
6.69756e-05
4.51991e-05
2.35803e-05
2.35067e-05
6.69804e-05
3.71208e-05
3.68354e-05
6.69815e-05
4.52155e-05
2.35847e-05
2.35112e-05
6.69864e-05
3.71596e-05
7.13208e-05
7.13206e-05
3.55884e-05
2.31578e-05
4.40005e-05
6.7032e-05
6.70468e-05
2.30998e-05
3.57245e-05
3.56219e-05
2.31616e-05
4.40081e-05
6.70373e-05
6.70525e-05
2.31038e-05
3.57553e-05
7.11954e-05
7.27089e-05
7.27028e-05
7.27107e-05
7.27046e-05
7.13294e-05
7.13013e-05
6.91363e-05
6.00419e-05
7.13207e-05
5.94624e-05
7.24542e-05
3.04287e-05
7.38496e-05
3.65455e-05
7.23664e-05
7.39838e-05
3.61546e-05
7.13022e-05
6.91327e-05
6.00066e-05
5.94348e-05
7.13218e-05
7.13075e-05
5.85998e-05
6.91293e-05
7.12921e-05
5.91324e-05
7.24536e-05
3.04289e-05
7.38486e-05
3.65388e-05
7.39834e-05
3.61537e-05
7.23658e-05
7.13213e-05
7.14111e-05
7.09078e-05
7.27195e-05
7.27253e-05
7.03669e-05
7.27194e-05
7.27251e-05
3.55431e-05
2.31556e-05
4.40237e-05
6.70353e-05
2.31017e-05
6.7052e-05
3.56784e-05
3.55185e-05
2.31501e-05
4.40331e-05
6.70304e-05
6.70484e-05
2.30971e-05
3.56522e-05
3.53876e-05
6.71098e-05
2.29274e-05
4.3778e-05
2.2992e-05
3.50768e-05
6.70907e-05
3.53629e-05
6.71049e-05
2.29229e-05
4.37697e-05
3.50448e-05
6.70854e-05
2.29905e-05
7.10349e-05
7.26944e-05
7.27002e-05
7.26933e-05
7.26991e-05
7.11425e-05
7.13212e-05
7.14104e-05
7.13005e-05
6.91374e-05
6.00025e-05
7.13196e-05
5.94546e-05
7.24542e-05
3.04296e-05
3.65345e-05
7.38495e-05
7.2366e-05
3.61589e-05
7.39841e-05
7.13027e-05
6.91332e-05
6.00302e-05
5.94532e-05
7.13218e-05
7.24535e-05
3.0431e-05
7.38497e-05
3.65479e-05
7.39828e-05
3.61528e-05
7.23659e-05
7.26366e-05
3.55072e-05
7.4342e-05
3.02793e-05
7.27313e-05
3.5899e-05
7.42019e-05
7.13015e-05
6.91392e-05
5.99859e-05
5.95231e-05
7.13184e-05
7.13082e-05
5.85899e-05
6.91352e-05
7.12907e-05
5.92047e-05
7.24538e-05
3.04337e-05
3.65459e-05
7.38493e-05
3.61844e-05
7.39842e-05
7.23658e-05
7.26355e-05
7.43413e-05
3.5531e-05
3.02798e-05
7.2731e-05
7.4201e-05
3.58886e-05
7.13026e-05
6.91335e-05
6.00156e-05
5.94564e-05
7.13212e-05
7.13072e-05
6.91299e-05
5.91197e-05
7.24538e-05
3.04294e-05
7.38484e-05
3.65452e-05
7.39836e-05
3.61571e-05
7.23653e-05
7.13235e-05
3.52499e-05
2.31357e-05
4.40586e-05
6.70414e-05
2.30628e-05
6.70502e-05
3.56926e-05
3.52188e-05
2.31312e-05
4.40523e-05
6.7036e-05
6.70451e-05
2.30599e-05
3.56621e-05
7.02213e-05
7.27368e-05
7.27428e-05
7.26711e-05
7.26769e-05
7.1035e-05
7.13231e-05
7.13017e-05
6.91375e-05
6.00438e-05
5.94963e-05
7.13205e-05
7.24539e-05
3.04282e-05
3.65536e-05
7.38493e-05
3.61613e-05
7.3984e-05
7.23661e-05
7.13025e-05
6.91344e-05
6.00049e-05
5.9465e-05
7.13206e-05
7.24536e-05
3.04294e-05
3.65451e-05
7.38485e-05
3.61623e-05
7.39836e-05
7.23651e-05
6.98796e-05
7.26914e-05
7.2685e-05
3.55684e-05
2.31561e-05
4.40313e-05
6.7039e-05
3.59247e-05
2.30876e-05
6.70507e-05
3.56196e-05
2.31623e-05
4.40436e-05
6.70444e-05
3.59578e-05
2.30919e-05
6.70569e-05
3.50221e-05
4.38005e-05
2.29618e-05
6.70795e-05
7.10254e-05
7.27493e-05
7.27428e-05
7.19162e-05
7.27227e-05
7.2717e-05
7.13221e-05
7.14121e-05
7.13225e-05
7.11689e-05
7.10923e-05
7.1169e-05
7.10923e-05
7.2993e-05
7.27916e-05
7.27852e-05
7.27673e-05
7.2761e-05
7.35583e-05
3.64732e-05
2.32804e-05
6.70097e-05
4.49475e-05
3.60397e-05
6.70026e-05
2.33501e-05
3.64915e-05
2.32844e-05
6.7015e-05
4.4956e-05
3.60615e-05
6.70079e-05
2.33539e-05
7.24158e-05
7.27103e-05
7.27042e-05
7.15958e-05
7.27544e-05
7.27482e-05
3.68859e-05
6.69786e-05
4.51672e-05
2.35817e-05
6.69853e-05
3.71508e-05
2.35012e-05
3.6932e-05
6.69848e-05
4.51753e-05
2.35867e-05
6.69915e-05
3.71981e-05
2.35059e-05
7.09673e-05
7.27958e-05
7.27895e-05
7.41237e-05
3.79497e-05
6.69682e-05
2.3751e-05
4.61124e-05
3.75743e-05
6.69676e-05
2.38369e-05
6.69741e-05
2.37567e-05
3.76195e-05
7.19481e-05
3.12002e-05
7.31771e-05
3.78998e-05
7.33008e-05
3.75079e-05
7.18719e-05
7.13384e-05
6.03398e-05
6.91678e-05
7.13191e-05
6.08593e-05
7.21111e-05
3.10377e-05
7.36364e-05
3.68307e-05
7.3507e-05
7.21929e-05
3.72313e-05
7.13351e-05
6.16024e-05
6.91729e-05
6.11092e-05
7.13557e-05
7.16491e-05
7.29775e-05
3.81968e-05
3.18853e-05
7.172e-05
7.28604e-05
3.86093e-05
7.13744e-05
6.19047e-05
6.92166e-05
7.13539e-05
6.23851e-05
7.16485e-05
7.29771e-05
3.81889e-05
3.18848e-05
7.17193e-05
7.28594e-05
3.86074e-05
7.13756e-05
6.18801e-05
6.92128e-05
7.13544e-05
6.2378e-05
7.35722e-05
7.27831e-05
7.27891e-05
7.2782e-05
7.27882e-05
7.39511e-05
3.65662e-05
2.32726e-05
6.70124e-05
4.49723e-05
6.70068e-05
3.60114e-05
2.33551e-05
3.65604e-05
2.32619e-05
6.70084e-05
4.49608e-05
2.33563e-05
3.59714e-05
6.70027e-05
7.26413e-05
7.27109e-05
7.27169e-05
7.2774e-05
7.14939e-05
7.278e-05
3.71039e-05
6.69885e-05
4.52134e-05
2.36108e-05
6.69951e-05
2.35283e-05
3.73847e-05
3.70769e-05
6.69822e-05
4.52198e-05
2.36172e-05
2.35233e-05
6.69913e-05
3.73447e-05
7.11691e-05
7.10935e-05
7.09664e-05
7.41617e-05
7.27644e-05
7.27705e-05
7.40372e-05
7.27699e-05
7.27759e-05
3.77468e-05
6.69702e-05
2.37585e-05
4.60865e-05
2.38317e-05
3.75775e-05
6.69655e-05
3.76709e-05
6.6964e-05
2.37396e-05
4.60701e-05
3.74837e-05
6.69601e-05
2.38104e-05
7.09654e-05
7.19482e-05
3.12006e-05
7.31781e-05
3.79034e-05
7.33002e-05
3.75008e-05
7.18718e-05
7.13374e-05
6.03222e-05
6.91668e-05
7.1318e-05
6.08211e-05
7.2111e-05
3.10337e-05
7.36358e-05
3.68372e-05
7.3508e-05
7.21928e-05
3.7219e-05
7.13355e-05
6.16336e-05
6.91728e-05
6.11107e-05
7.13564e-05
3.81872e-05
7.29778e-05
7.17198e-05
6.18765e-05
7.13532e-05
7.29766e-05
3.82031e-05
7.17194e-05
6.18943e-05
7.13543e-05
7.19489e-05
3.11975e-05
3.7927e-05
7.31777e-05
3.75163e-05
7.33016e-05
7.18723e-05
7.13377e-05
6.02777e-05
6.91689e-05
6.08432e-05
7.13154e-05
7.21115e-05
3.10308e-05
3.68094e-05
7.36373e-05
3.72049e-05
7.21932e-05
7.35077e-05
7.13365e-05
6.16691e-05
6.91769e-05
6.11896e-05
7.13561e-05
7.19482e-05
3.11967e-05
7.31769e-05
3.79096e-05
7.3301e-05
3.75014e-05
7.18719e-05
7.13378e-05
6.03102e-05
6.91668e-05
7.1318e-05
6.08234e-05
7.21108e-05
3.10346e-05
7.36367e-05
3.68295e-05
7.21929e-05
7.35069e-05
3.72172e-05
7.13363e-05
6.16439e-05
6.91731e-05
6.11277e-05
7.13567e-05
7.16484e-05
3.82039e-05
7.29779e-05
3.18833e-05
7.17196e-05
3.85848e-05
7.286e-05
7.1373e-05
6.18945e-05
6.92146e-05
7.13524e-05
6.2328e-05
7.16483e-05
7.29773e-05
3.82082e-05
3.18872e-05
7.17193e-05
7.28592e-05
3.86031e-05
7.13737e-05
6.18962e-05
6.92124e-05
7.13542e-05
6.23371e-05
7.36156e-05
7.27605e-05
7.27667e-05
7.27737e-05
7.27798e-05
7.36446e-05
3.68364e-05
2.33006e-05
6.70234e-05
4.49404e-05
6.70146e-05
3.63581e-05
2.34021e-05
3.68009e-05
2.32954e-05
6.70183e-05
4.49403e-05
2.33958e-05
3.6325e-05
6.70096e-05
7.33468e-05
7.27788e-05
7.27847e-05
7.27949e-05
7.24732e-05
7.2801e-05
3.70969e-05
6.69799e-05
4.51936e-05
2.3604e-05
6.69922e-05
2.35409e-05
3.72051e-05
3.70604e-05
6.69748e-05
4.51846e-05
2.35979e-05
2.35353e-05
6.69871e-05
3.71677e-05
7.11681e-05
7.10921e-05
7.27537e-05
7.27599e-05
7.36615e-05
6.69688e-05
2.37202e-05
3.73563e-05
3.76856e-05
6.69635e-05
2.3716e-05
4.60874e-05
3.73186e-05
6.69642e-05
2.37996e-05
7.09669e-05
7.19486e-05
3.11967e-05
3.79107e-05
7.31777e-05
3.75019e-05
7.33014e-05
7.18722e-05
7.13366e-05
6.03185e-05
6.91698e-05
6.08257e-05
7.13161e-05
7.21113e-05
3.10346e-05
3.68322e-05
7.3637e-05
3.72117e-05
7.21931e-05
7.35077e-05
7.1335e-05
6.16641e-05
6.91763e-05
6.11469e-05
7.13561e-05
7.19481e-05
3.11977e-05
3.79143e-05
7.3177e-05
3.75055e-05
7.33009e-05
7.18718e-05
7.1338e-05
6.02947e-05
6.91666e-05
7.13176e-05
6.0828e-05
7.21108e-05
3.10352e-05
3.6824e-05
7.36366e-05
7.21927e-05
3.72156e-05
7.35069e-05
7.13366e-05
6.1646e-05
6.91734e-05
6.11382e-05
7.13566e-05
7.16486e-05
3.82088e-05
7.29776e-05
3.18877e-05
7.17197e-05
3.86041e-05
7.28601e-05
7.13733e-05
6.19127e-05
6.92162e-05
7.1353e-05
6.23482e-05
7.16481e-05
3.82051e-05
7.29772e-05
3.18868e-05
7.17191e-05
3.85996e-05
7.28594e-05
7.13738e-05
6.18878e-05
6.92125e-05
7.13539e-05
6.23376e-05
7.11692e-05
7.10935e-05
7.11694e-05
7.10941e-05
7.49188e-05
7.27925e-05
7.27867e-05
7.41866e-05
7.2815e-05
7.28084e-05
3.79841e-05
6.6966e-05
2.37357e-05
4.61107e-05
3.75398e-05
2.3832e-05
6.6966e-05
3.80177e-05
6.69715e-05
2.37357e-05
4.61107e-05
3.75649e-05
2.38397e-05
6.69712e-05
7.09672e-05
7.09674e-05
2.14321e-05
2.14323e-05
2.07652e-05
2.12162e-05
2.12164e-05
2.15677e-05
2.17737e-05
2.23526e-05
1.94548e-05
1.94542e-05
1.91215e-05
2.23068e-05
1.93892e-05
1.93886e-05
2.21613e-05
1.93771e-05
1.94868e-05
1.94859e-05
1.95625e-05
1.95615e-05
2.21934e-05
2.21565e-05
1.93775e-05
1.94838e-05
1.94843e-05
1.95631e-05
1.95639e-05
2.21829e-05
2.20955e-05
1.93761e-05
1.94791e-05
1.94801e-05
1.95527e-05
1.95539e-05
2.21479e-05
2.21381e-05
1.93759e-05
1.94854e-05
1.94848e-05
2.21921e-05
1.95586e-05
1.95576e-05
2.23224e-05
1.9453e-05
1.94521e-05
1.91211e-05
2.22711e-05
1.93834e-05
1.93825e-05
2.23243e-05
1.94497e-05
1.94498e-05
1.91211e-05
1.93845e-05
2.22537e-05
1.93834e-05
2.23977e-05
1.94507e-05
1.94516e-05
1.9122e-05
1.93929e-05
2.22966e-05
1.93921e-05
2.16514e-05
2.16515e-05
2.19826e-05
2.16513e-05
2.16515e-05
2.19826e-05
2.16512e-05
2.16515e-05
2.19825e-05
2.16513e-05
2.16514e-05
2.19825e-05
2.14321e-05
2.14323e-05
2.07652e-05
2.12161e-05
2.12164e-05
2.15677e-05
2.17737e-05
2.1432e-05
2.14322e-05
2.07651e-05
2.1216e-05
2.12163e-05
2.15676e-05
2.17736e-05
2.1432e-05
2.14322e-05
2.0765e-05
2.12161e-05
2.12163e-05
2.15676e-05
2.17736e-05
2.0548e-05
2.10037e-05
2.10039e-05
2.13648e-05
2.05479e-05
2.10037e-05
2.10039e-05
2.13648e-05
2.05478e-05
2.10036e-05
2.10038e-05
2.13647e-05
2.05478e-05
2.10036e-05
2.10038e-05
2.13647e-05
1.86883e-05
1.93046e-05
2.05686e-05
1.85122e-05
2.05435e-05
1.86089e-05
1.85903e-05
1.89547e-05
1.99077e-05
2.42015e-05
2.98723e-05
1.90362e-05
1.98788e-05
2.42814e-05
1.87537e-05
1.93153e-05
2.04779e-05
1.88022e-05
1.88543e-05
2.04961e-05
1.87036e-05
1.89199e-05
2.45468e-05
3.00914e-05
1.98583e-05
1.98756e-05
2.44612e-05
1.8846e-05
1.86884e-05
1.93048e-05
1.8512e-05
2.0568e-05
1.86088e-05
2.05436e-05
1.859e-05
1.89548e-05
1.99071e-05
2.42043e-05
2.98755e-05
1.90357e-05
1.98815e-05
2.42833e-05
1.87535e-05
1.93154e-05
1.8802e-05
2.04788e-05
1.88541e-05
1.87034e-05
2.04969e-05
1.89201e-05
2.45454e-05
3.00934e-05
1.98585e-05
1.98783e-05
2.44609e-05
1.8846e-05
2.24544e-05
1.89958e-05
1.93014e-05
1.93006e-05
1.93616e-05
1.93609e-05
2.25091e-05
1.91638e-05
1.99178e-05
2.9472e-05
2.40404e-05
1.99552e-05
2.39662e-05
1.90755e-05
1.90298e-05
1.94145e-05
2.04443e-05
1.89039e-05
2.04321e-05
1.90045e-05
1.89273e-05
1.91638e-05
1.99182e-05
2.94757e-05
2.40392e-05
2.39652e-05
1.99566e-05
1.90755e-05
1.92073e-05
2.37469e-05
2.00153e-05
2.9278e-05
1.93021e-05
2.3815e-05
1.99704e-05
1.90298e-05
1.94146e-05
2.04445e-05
1.89039e-05
2.04323e-05
1.90045e-05
1.89272e-05
2.20908e-05
1.95163e-05
1.96797e-05
1.96806e-05
1.96005e-05
2.20412e-05
1.9602e-05
1.91636e-05
1.99181e-05
2.94736e-05
2.404e-05
1.99555e-05
2.39667e-05
1.90753e-05
1.90297e-05
1.94143e-05
2.04441e-05
1.89037e-05
2.04322e-05
1.90043e-05
1.89269e-05
1.91632e-05
1.99154e-05
2.94709e-05
2.40385e-05
2.39645e-05
1.99542e-05
1.90746e-05
1.90294e-05
1.94143e-05
1.89037e-05
2.04441e-05
1.90041e-05
2.04319e-05
1.89268e-05
1.91105e-05
2.04038e-05
1.92155e-05
1.94362e-05
1.92149e-05
2.04104e-05
1.91129e-05
1.91638e-05
1.99175e-05
2.94726e-05
2.40413e-05
1.90755e-05
1.99559e-05
2.39691e-05
1.92072e-05
2.37448e-05
2.00147e-05
2.92747e-05
1.93021e-05
1.99698e-05
2.38149e-05
1.90297e-05
1.94143e-05
2.04449e-05
1.89038e-05
1.89273e-05
2.04329e-05
1.90043e-05
1.91105e-05
1.92154e-05
2.04047e-05
1.94364e-05
1.92147e-05
1.91129e-05
2.04108e-05
1.91632e-05
1.99173e-05
2.94714e-05
2.40386e-05
2.39646e-05
1.99543e-05
1.90751e-05
1.92067e-05
2.92732e-05
2.38138e-05
1.9968e-05
1.90295e-05
1.94144e-05
1.89037e-05
2.04444e-05
1.90042e-05
2.04321e-05
1.89271e-05
1.91633e-05
1.99148e-05
2.94679e-05
2.40397e-05
1.90747e-05
1.99537e-05
2.39659e-05
1.90296e-05
1.94141e-05
1.89036e-05
2.04441e-05
1.89268e-05
1.90042e-05
2.04318e-05
1.91634e-05
1.9918e-05
2.94736e-05
2.40394e-05
2.39659e-05
1.99548e-05
1.90752e-05
1.90294e-05
1.94143e-05
1.89036e-05
2.04446e-05
1.90042e-05
2.04324e-05
1.89269e-05
2.24486e-05
1.89954e-05
1.93019e-05
1.9301e-05
2.25146e-05
1.93574e-05
1.93565e-05
2.27303e-05
1.87603e-05
1.92817e-05
1.92808e-05
2.26603e-05
1.92345e-05
1.92337e-05
1.86886e-05
1.9305e-05
2.05681e-05
1.85123e-05
2.05439e-05
1.8609e-05
1.85905e-05
1.89549e-05
1.99084e-05
2.42061e-05
2.98745e-05
2.4285e-05
1.90363e-05
1.98789e-05
1.87539e-05
1.93155e-05
2.04789e-05
1.88022e-05
2.04973e-05
1.88543e-05
1.87037e-05
1.892e-05
2.45443e-05
3.00897e-05
1.98568e-05
2.44604e-05
1.98752e-05
1.88458e-05
1.86885e-05
1.93051e-05
2.05687e-05
1.85124e-05
2.05445e-05
1.86091e-05
1.85905e-05
1.89549e-05
1.99086e-05
2.42044e-05
2.98761e-05
1.90362e-05
2.42843e-05
1.98795e-05
1.87539e-05
1.93157e-05
2.04788e-05
1.88022e-05
1.88542e-05
2.04976e-05
1.87037e-05
1.892e-05
2.4544e-05
3.00951e-05
1.98592e-05
2.44601e-05
1.88461e-05
1.98765e-05
1.84369e-05
2.06269e-05
1.84247e-05
1.92607e-05
1.85322e-05
2.06572e-05
1.83298e-05
1.87479e-05
2.47315e-05
1.9858e-05
3.0529e-05
1.98508e-05
1.88152e-05
2.48202e-05
1.84369e-05
2.0627e-05
1.84247e-05
1.92608e-05
1.85321e-05
2.06574e-05
1.83298e-05
1.8748e-05
2.47303e-05
1.98601e-05
3.05322e-05
1.88153e-05
2.48193e-05
1.98514e-05
2.24848e-05
1.89957e-05
1.93052e-05
1.93066e-05
1.936e-05
1.93589e-05
2.25507e-05
2.2709e-05
1.87603e-05
1.92835e-05
1.92843e-05
1.92318e-05
2.26597e-05
1.92319e-05
1.86883e-05
1.93048e-05
2.05684e-05
1.85121e-05
2.05442e-05
1.86089e-05
1.85901e-05
1.89547e-05
1.99088e-05
2.42044e-05
2.98765e-05
2.42847e-05
1.90361e-05
1.98794e-05
1.87535e-05
1.93153e-05
2.04781e-05
1.88021e-05
2.04968e-05
1.88541e-05
1.87035e-05
1.89199e-05
2.45454e-05
3.00913e-05
1.98574e-05
2.44618e-05
1.98756e-05
1.88457e-05
1.86882e-05
1.93049e-05
1.85121e-05
2.05681e-05
1.86087e-05
2.0544e-05
1.85901e-05
1.89547e-05
1.99077e-05
2.42041e-05
2.98783e-05
1.90356e-05
2.42831e-05
1.98822e-05
1.87535e-05
1.93156e-05
1.88019e-05
2.04791e-05
1.8854e-05
1.87035e-05
2.04974e-05
1.892e-05
2.45437e-05
3.00967e-05
1.98594e-05
2.44597e-05
1.88457e-05
1.98791e-05
2.06267e-05
1.84245e-05
1.8532e-05
2.47306e-05
1.98586e-05
1.88151e-05
1.84243e-05
2.06271e-05
1.85318e-05
2.47304e-05
1.9859e-05
1.8815e-05
1.86882e-05
1.93048e-05
1.85121e-05
2.05683e-05
1.86088e-05
2.05436e-05
1.85902e-05
1.89547e-05
1.99088e-05
2.42026e-05
2.9876e-05
1.98807e-05
1.90359e-05
2.4282e-05
1.87537e-05
1.93155e-05
1.8802e-05
2.04786e-05
1.87035e-05
1.8854e-05
2.0497e-05
1.89198e-05
2.45435e-05
3.00917e-05
1.98569e-05
1.98766e-05
2.44587e-05
1.88455e-05
1.8437e-05
2.06279e-05
1.84246e-05
1.92607e-05
1.85322e-05
2.06575e-05
1.83297e-05
1.8748e-05
2.4733e-05
1.98589e-05
3.05284e-05
1.88154e-05
1.98497e-05
2.48199e-05
1.84368e-05
1.84244e-05
2.06275e-05
1.92608e-05
1.85319e-05
1.83297e-05
2.06577e-05
1.87474e-05
2.47302e-05
1.98576e-05
3.05284e-05
1.88148e-05
2.4818e-05
1.98498e-05
2.25062e-05
1.89976e-05
1.93074e-05
1.93082e-05
1.93675e-05
1.93668e-05
2.25408e-05
2.26711e-05
1.87581e-05
1.9279e-05
1.92802e-05
1.9223e-05
2.2609e-05
1.92238e-05
1.86881e-05
1.93048e-05
1.8512e-05
2.05685e-05
1.86087e-05
2.05438e-05
1.859e-05
1.89549e-05
1.99096e-05
2.42025e-05
2.9878e-05
1.98815e-05
1.90361e-05
2.42821e-05
1.87535e-05
1.93154e-05
1.8802e-05
2.04785e-05
1.87033e-05
1.8854e-05
2.04969e-05
1.89199e-05
2.45444e-05
3.00941e-05
1.98577e-05
1.98773e-05
2.44595e-05
1.88457e-05
1.84366e-05
1.84244e-05
2.06273e-05
1.92606e-05
1.85319e-05
1.83295e-05
2.06572e-05
1.87473e-05
2.47322e-05
1.98581e-05
3.05259e-05
1.88151e-05
1.98482e-05
2.48191e-05
1.84367e-05
1.84244e-05
2.06277e-05
1.92607e-05
1.85318e-05
1.83295e-05
2.06577e-05
1.87476e-05
2.4731e-05
1.98583e-05
3.05305e-05
1.8815e-05
2.48188e-05
1.98508e-05
2.27155e-05
1.87586e-05
1.9279e-05
1.92781e-05
2.26389e-05
1.92297e-05
1.92291e-05
1.92853e-05
1.85904e-05
1.92864e-05
2.03338e-05
3.2346e-05
1.97549e-05
1.926e-05
6.9239e-05
3.2342e-05
1.97547e-05
3.08762e-05
1.92601e-05
7.08789e-05
4.66894e-05
4.66749e-05
7.08784e-05
3.08728e-05
6.92431e-05
7.09675e-05
7.4782e-05
7.28176e-05
7.28111e-05
3.79784e-05
4.61207e-05
6.69733e-05
2.38425e-05
7.16489e-05
3.18838e-05
3.8599e-05
7.28603e-05
7.13737e-05
6.31008e-05
7.13936e-05
6.26408e-05
7.13748e-05
6.92165e-05
6.23784e-05
7.15066e-05
3.20642e-05
3.93216e-05
7.25551e-05
7.14407e-05
3.89029e-05
7.26664e-05
7.16483e-05
3.18854e-05
7.28604e-05
3.86073e-05
7.13727e-05
6.92203e-05
6.30625e-05
6.25881e-05
7.13937e-05
7.13743e-05
6.92129e-05
6.23514e-05
7.15059e-05
3.20648e-05
7.25551e-05
3.93033e-05
7.26653e-05
3.88927e-05
7.144e-05
7.09039e-05
7.0967e-05
7.39239e-05
7.27919e-05
7.27982e-05
3.83749e-05
2.41341e-05
4.63444e-05
6.69776e-05
2.39979e-05
6.69717e-05
3.8878e-05
3.83354e-05
2.41245e-05
4.63326e-05
6.6972e-05
6.69662e-05
2.39917e-05
3.88371e-05
3.77247e-05
4.60852e-05
2.38047e-05
6.69695e-05
7.49578e-05
7.28673e-05
7.28737e-05
7.2838e-05
7.28442e-05
7.59143e-05
7.09031e-05
7.13719e-05
6.92233e-05
6.30853e-05
6.25977e-05
7.13941e-05
2.28486e-05
1.86487e-05
1.91734e-05
1.9174e-05
1.92077e-05
1.92086e-05
2.2976e-05
2.07946e-05
2.07943e-05
1.84366e-05
1.92605e-05
2.06568e-05
1.83296e-05
1.87214e-05
2.51119e-05
2.50181e-05
1.87478e-05
3.05311e-05
1.98515e-05
2.48197e-05
1.83849e-05
1.92608e-05
2.07645e-05
1.81559e-05
2.07281e-05
1.82491e-05
1.82933e-05
1.84366e-05
1.92606e-05
1.83296e-05
2.06572e-05
1.87207e-05
1.98567e-05
3.07617e-05
2.51071e-05
2.50137e-05
1.98572e-05
1.86603e-05
1.87472e-05
3.05288e-05
2.48179e-05
1.98492e-05
1.83848e-05
1.92609e-05
1.8156e-05
2.07641e-05
1.82489e-05
2.07281e-05
1.82932e-05
1.87208e-05
1.98557e-05
3.07583e-05
2.51079e-05
1.86604e-05
1.98562e-05
2.50141e-05
8.57658e-05
8.57694e-05
2.89464e-05
2.98168e-05
2.79756e-05
2.85539e-05
2.85538e-05
2.81226e-05
2.76353e-05
2.69867e-05
2.69867e-05
2.63906e-05
2.84254e-05
2.89623e-05
2.89621e-05
2.84254e-05
2.89628e-05
2.8962e-05
2.89629e-05
2.89622e-05
2.84252e-05
2.89628e-05
2.89626e-05
2.8425e-05
2.81228e-05
2.85537e-05
2.85535e-05
2.56272e-05
2.5627e-05
2.81227e-05
2.85537e-05
2.85534e-05
2.74471e-05
2.90168e-05
2.56264e-05
2.85535e-05
2.73683e-05
2.73678e-05
2.81227e-05
3.13883e-05
2.85537e-05
2.73682e-05
2.73683e-05
2.66737e-05
2.69866e-05
2.69868e-05
2.5414e-05
2.54137e-05
2.74064e-05
2.89469e-05
2.54137e-05
3.15707e-05
3.07541e-05
6.57285e-05
8.39123e-05
3.07539e-05
6.57295e-05
2.9398e-05
2.9398e-05
2.9398e-05
2.93979e-05
2.86009e-05
2.98006e-05
2.86753e-05
3.00688e-05
8.39131e-05
2.86006e-05
2.98005e-05
3.00687e-05
2.86749e-05
2.93481e-05
3.00358e-05
3.00359e-05
2.95188e-05
6.73188e-05
3.00011e-05
6.80359e-05
8.22131e-05
8.12217e-05
2.95186e-05
6.73225e-05
3.00009e-05
6.80378e-05
2.8121e-05
2.8121e-05
2.90329e-05
2.90329e-05
2.90328e-05
2.90329e-05
2.79756e-05
2.65681e-05
2.81232e-05
2.89027e-05
2.81521e-05
2.73169e-05
2.77818e-05
2.85257e-05
8.22133e-05
8.12221e-05
2.65677e-05
2.89027e-05
2.81229e-05
2.8152e-05
2.73169e-05
2.85256e-05
2.77814e-05
3.04413e-05
3.04418e-05
2.75328e-05
3.07869e-05
3.07877e-05
2.77955e-05
2.74759e-05
2.76353e-05
2.74079e-05
2.74286e-05
2.54136e-05
2.66125e-05
2.71907e-05
2.74076e-05
2.74286e-05
2.54138e-05
3.15567e-05
3.15577e-05
8.39129e-05
8.39124e-05
2.93485e-05
3.00357e-05
3.00354e-05
8.26253e-05
8.35477e-05
8.26239e-05
8.35487e-05
2.90407e-05
3.03192e-05
3.03195e-05
3.01088e-05
3.0108e-05
3.07537e-05
6.57296e-05
2.86008e-05
2.98001e-05
2.86757e-05
3.00687e-05
2.86006e-05
2.97999e-05
2.86759e-05
3.00686e-05
3.06429e-05
6.70869e-05
6.60714e-05
3.01e-05
3.06425e-05
6.70879e-05
6.60726e-05
3.00997e-05
2.83444e-05
2.93781e-05
2.81915e-05
2.92854e-05
2.85945e-05
2.96741e-05
2.75612e-05
2.83441e-05
2.93779e-05
2.81918e-05
2.92854e-05
2.85946e-05
2.96741e-05
2.7561e-05
2.93485e-05
3.00364e-05
3.0035e-05
8.39119e-05
8.2624e-05
8.35485e-05
2.90407e-05
3.03204e-05
3.0319e-05
3.01093e-05
3.01077e-05
8.26236e-05
8.35489e-05
2.86006e-05
2.98005e-05
2.86752e-05
3.00687e-05
3.07529e-05
6.57298e-05
2.86002e-05
2.97999e-05
3.00686e-05
2.86752e-05
3.06427e-05
6.70873e-05
6.60734e-05
3.00997e-05
2.83442e-05
2.93781e-05
2.81912e-05
2.92854e-05
2.85941e-05
2.96741e-05
2.75609e-05
3.06423e-05
6.70859e-05
6.60725e-05
3.00987e-05
2.8344e-05
2.93778e-05
2.92854e-05
2.81904e-05
2.9674e-05
2.8594e-05
2.75604e-05
3.07539e-05
6.57288e-05
2.86007e-05
2.98e-05
3.00687e-05
2.86751e-05
3.07537e-05
6.57282e-05
2.83442e-05
2.93782e-05
2.81912e-05
2.92855e-05
2.85941e-05
2.96741e-05
2.75612e-05
3.06427e-05
6.70883e-05
6.60741e-05
3.00998e-05
2.83439e-05
2.93779e-05
2.92854e-05
2.8191e-05
2.96741e-05
2.8594e-05
2.7561e-05
3.06424e-05
6.70849e-05
6.60723e-05
3.00995e-05
2.93484e-05
3.00359e-05
3.00351e-05
8.39128e-05
8.2624e-05
8.35488e-05
2.90407e-05
3.03197e-05
3.03188e-05
3.01086e-05
3.01077e-05
8.26244e-05
8.35493e-05
2.86005e-05
2.98003e-05
3.00687e-05
2.86753e-05
3.07539e-05
6.57293e-05
3.07535e-05
6.57297e-05
2.83442e-05
2.93782e-05
2.92854e-05
2.81908e-05
2.96741e-05
2.85938e-05
2.75609e-05
2.83438e-05
2.93781e-05
2.92854e-05
2.81913e-05
2.9674e-05
2.85942e-05
2.75608e-05
3.06427e-05
6.70867e-05
6.60725e-05
3.00997e-05
3.06422e-05
6.70863e-05
6.60737e-05
3.00993e-05
8.39125e-05
8.39122e-05
2.90406e-05
3.03225e-05
3.03228e-05
3.01085e-05
3.01087e-05
8.26243e-05
8.35492e-05
8.26237e-05
8.35493e-05
8.22122e-05
8.12238e-05
8.22131e-05
8.12217e-05
3.0442e-05
3.04451e-05
2.75332e-05
3.07772e-05
3.07745e-05
7.98383e-05
8.08034e-05
7.98349e-05
8.08045e-05
3.13927e-05
3.13876e-05
2.66741e-05
2.72389e-05
3.09348e-05
3.09408e-05
2.95186e-05
6.73192e-05
3.00008e-05
6.80365e-05
2.65679e-05
2.81236e-05
2.89027e-05
2.81514e-05
2.73171e-05
2.7782e-05
2.85256e-05
2.65678e-05
2.81238e-05
2.89026e-05
2.81512e-05
2.73168e-05
2.77817e-05
2.85255e-05
2.90176e-05
6.86606e-05
2.94337e-05
6.81813e-05
2.90181e-05
6.86592e-05
2.94334e-05
6.81804e-05
2.74483e-05
2.73678e-05
2.77887e-05
2.63383e-05
2.77565e-05
2.77272e-05