/*--------------------------------*- C++ -*----------------------------------*\
| =========                 |                                                 |
| \\      /  F ield         | OpenFOAM: The Open Source CFD Toolbox           |
|  \\    /   O peration     | Version:  v2006                                 |
|   \\  /    A nd           | Website:  www.openfoam.com                      |
|    \\/     M anipulation  |                                                 |
\*---------------------------------------------------------------------------*/
FoamFile
{
    version     2.0;
    format      ascii;
    class       volScalarField;
    location    "250";
    object      p;
}
// * * * * * * * * * * * * * * * * * * * * * * * * * * * * * * * * * * * * * //

dimensions      [0 2 -2 0 0 0 0];


internalField   nonuniform List<scalar> 
14231
(
0.0030491
0.00304643
0.0030491
0.00304906
0.00304615
0.00304627
0.00304642
0.00304906
0.00304642
0.00304608
0.00304628
0.00304628
0.00304607
0.00304642
0.00304615
0.00304906
0.00304643
0.00304627
0.00305137
0.00305152
0.00304624
0.00305162
0.00304601
0.00305146
0.00305164
0.00304607
0.00304628
0.00305146
0.00305165
0.00304608
0.00305145
0.0030518
0.00304639
0.00305167
0.00304615
0.00305178
0.00305154
0.00304641
0.00305181
0.00304639
0.00305166
0.00304614
0.00305152
0.0030518
0.00304641
0.0030516
0.00304593
0.00304593
0.00305136
0.00305135
0.00304614
0.00305145
0.00305152
0.00305147
0.00305164
0.00304629
0.00304607
0.00305166
0.00305146
0.00304608
0.00305174
0.00305162
0.00304646
0.00304647
0.0030517
0.00305171
0.00304656
0.00304907
0.00305168
0.00304634
0.0030517
0.00304645
0.00305172
0.0030517
0.00304637
0.00305165
0.00305169
0.00304645
0.00304637
0.00305171
0.00305165
0.00304636
0.00304634
0.0030517
0.00305171
0.00305166
0.00305169
0.00304637
0.00304646
0.00304637
0.00305165
0.00305172
0.00304641
0.00304908
0.00304908
0.00304078
0.00303826
0.00303826
0.00304906
0.0030407
0.0030407
0.00304083
0.00304607
0.00304607
0.00304629
0.0030463
0.00304614
0.00304627
0.00304642
0.00304906
0.00304642
0.00304614
0.00304642
0.00304063
0.00304063
0.00304086
0.00304086
0.00304089
0.00304089
0.00303826
0.00304088
0.00303534
0.00303522
0.0030408
0.00303534
0.00304056
0.00303544
0.00303528
0.00303547
0.00304083
0.00304065
0.00304065
0.00303548
0.00303528
0.00305145
0.00305145
0.00305173
0.00304636
0.00305167
0.00304616
0.00305154
0.00305174
0.00304634
0.00305173
0.00304636
0.00305167
0.00304616
0.00305154
0.00305174
0.00304634
0.00305163
0.0030461
0.0030461
0.00305144
0.00305144
0.00304625
0.00305137
0.00305152
0.00304624
0.003046
0.00305162
0.00305146
0.00305164
0.00304607
0.00304628
0.00304608
0.00305146
0.00305165
0.00305151
0.00303527
0.00303527
0.00303561
0.00304093
0.00304073
0.00303548
0.00304089
0.00303537
0.00303559
0.0030356
0.00304093
0.00304073
0.00303548
0.00304089
0.00303537
0.00303559
0.00303552
0.00304068
0.00304068
0.00304087
0.00303528
0.00303528
0.00305167
0.00305159
0.00304644
0.00304645
0.00305168
0.00305168
0.00304649
0.00303573
0.00304086
0.00304087
0.00303561
0.00304084
0.00303566
0.00303567
0.00304906
0.00304908
0.00304907
0.00304908
0.00305167
0.00304632
0.0030517
0.00304645
0.00305169
0.00305172
0.00304637
0.00305165
0.00305169
0.00304645
0.00304636
0.00305171
0.00305165
0.00304636
0.00304632
0.0030517
0.00305169
0.00304636
0.00304087
0.00303562
0.00303554
0.00303557
0.00304087
0.00304091
0.00303562
0.00303565
0.00304086
0.00303554
0.00303557
0.00303563
0.0030409
0.00304084
0.00303565
0.00304084
0.00303557
0.00308166
0.00308169
0.0030817
0.00308421
0.00308991
0.00309258
0.00309257
0.00308992
0.00309258
0.00309261
0.00309257
0.00309261
0.00308994
0.00309261
0.00309261
0.00308992
0.00308422
0.00308168
0.00308169
0.00308423
0.00308168
0.0030817
0.00308167
0.00308423
0.00308167
0.00309257
0.00309257
0.00309258
0.00309258
0.00306795
0.00308413
0.00308426
0.00306783
0.00308406
0.00306775
0.00306795
0.00308413
0.00308426
0.00306783
0.00308166
0.00308166
0.00308165
0.00306809
0.00308432
0.00308165
0.00307079
0.00308429
0.00306811
0.00307076
0.00308406
0.00306775
0.00306809
0.00308165
0.00308432
0.00307076
0.00308429
0.00307076
0.0030681
0.0030843
0.0030843
0.00306811
0.00306797
0.00306796
0.00308955
0.00308955
0.0030898
0.0030898
0.00308963
0.00308976
0.00308963
0.00310604
0.00308976
0.00308991
0.00309257
0.00308989
0.00310357
0.0030899
0.00309257
0.00310623
0.00308989
0.00308956
0.00310596
0.00310612
0.00308979
0.00308979
0.0031062
0.0031062
0.00308956
0.00310596
0.00308963
0.00308976
0.00308991
0.00309258
0.00308989
0.00308964
0.00308976
0.00309258
0.00308991
0.00308989
0.00310619
0.00310358
0.0030899
0.00309258
0.00310623
0.00310354
0.00308989
0.00310616
0.00308963
0.00310604
0.00308975
0.00310618
0.00309258
0.00308991
0.00310354
0.00308989
0.00310616
0.00308963
0.00308976
0.00308955
0.00308977
0.00308977
0.00308955
0.00309258
0.00308991
0.00308989
0.00309258
0.00308991
0.00308989
0.00308964
0.00308976
0.00308963
0.00308976
0.00308979
0.00308979
0.00308956
0.00308956
0.00308405
0.00306775
0.00308405
0.00306775
0.00308429
0.00308429
0.00306812
0.00306798
0.00306798
0.00306228
0.00306228
0.00306245
0.00306251
0.00306251
0.00306795
0.00308413
0.00308426
0.00306783
0.0030681
0.00308432
0.00308166
0.00307077
0.00308429
0.00306811
0.00307076
0.0030681
0.00308432
0.00308166
0.00307079
0.00308429
0.00306811
0.00307076
0.00306248
0.00306236
0.00306248
0.00306235
0.00306253
0.00305992
0.00306255
0.0030599
0.00306253
0.00305989
0.00306254
0.00305989
0.00308429
0.00308429
0.00306809
0.00306798
0.00306799
0.00308406
0.00306775
0.00306229
0.00306243
0.00306252
0.00306252
0.00306229
0.00306809
0.00308432
0.00308166
0.00307077
0.00308429
0.00306811
0.00307076
0.00306795
0.00308414
0.00308426
0.00306782
0.00306809
0.00308166
0.00308432
0.00307076
0.00308429
0.00307076
0.0030681
0.00306248
0.00306236
0.00306253
0.00305992
0.00306255
0.0030599
0.00306248
0.00306235
0.00306253
0.0030599
0.0030599
0.00306254
0.00306795
0.00308413
0.00308426
0.00306783
0.00306809
0.00308165
0.00308433
0.00307077
0.00308429
0.00307076
0.0030681
0.00306795
0.00308413
0.00308426
0.00306782
0.00306252
0.00305988
0.00306254
0.00305989
0.00306248
0.00306235
0.00306253
0.00305992
0.00305989
0.00306255
0.00306248
0.00306236
0.00308428
0.00308428
0.00306809
0.003068
0.003068
0.00308406
0.00306775
0.00306229
0.00306244
0.00306252
0.00306252
0.00306229
0.00306809
0.00308165
0.00308433
0.00307077
0.00308429
0.00307076
0.0030681
0.00306795
0.00308414
0.00308426
0.00306782
0.00306795
0.00308413
0.00308426
0.00306782
0.00306253
0.0030599
0.0030599
0.00306254
0.00306253
0.00305992
0.0030599
0.00306255
0.00306248
0.00306235
0.00306248
0.00306236
0.00308405
0.00306775
0.00308406
0.00306775
0.00306245
0.00306251
0.00306251
0.00306229
0.00306229
0.00307318
0.00307336
0.00306776
0.00306797
0.00307317
0.00307337
0.00306776
0.00307856
0.00308425
0.00307871
0.00308397
0.00307883
0.00307865
0.00307884
0.00308407
0.00308427
0.00308408
0.00307864
0.00307885
0.00307307
0.00306793
0.00307323
0.00307334
0.00306767
0.00307864
0.00307315
0.00307317
0.00307336
0.00306796
0.00306776
0.00307337
0.00307317
0.00306776
0.00307855
0.00308425
0.00307871
0.00308396
0.00307882
0.00307865
0.00307884
0.00308428
0.00308407
0.00308408
0.00307886
0.00307864
0.00307308
0.00306793
0.00307323
0.00307334
0.00306769
0.00307864
0.00307315
0.00307343
0.00306772
0.00306772
0.00307317
0.00307317
0.00306803
0.00307892
0.00308436
0.00308417
0.00307887
0.00308434
0.00307894
0.00307874
0.00307893
0.00308436
0.00308417
0.00307887
0.00308434
0.00307894
0.00307873
0.00307886
0.00308409
0.00308409
0.00308429
0.00307869
0.00307869
0.00307348
0.00306785
0.00307338
0.00306809
0.00307347
0.00307324
0.00306815
0.00307347
0.00306785
0.00307338
0.00306808
0.00307347
0.00307324
0.00306815
0.00309499
0.00309499
0.00309527
0.00308986
0.00309524
0.00308967
0.00309511
0.0030953
0.00308987
0.00309527
0.00308986
0.00309524
0.00308967
0.00309511
0.0030953
0.00308986
0.00309529
0.00308964
0.00308964
0.00309506
0.00309506
0.00308984
0.00309489
0.00309506
0.00308975
0.00308946
0.00309519
0.00309501
0.00309519
0.00308956
0.00308978
0.00308957
0.00309501
0.00309521
0.0030949
0.00309506
0.00308975
0.00309519
0.00308946
0.00310043
0.00310616
0.00310058
0.00310586
0.0031007
0.00309502
0.00309519
0.00308956
0.00308978
0.00309501
0.00309521
0.00308957
0.00309498
0.0031005
0.00310073
0.00310584
0.00310584
0.00310611
0.00310053
0.00310053
0.00309525
0.00308988
0.00309524
0.00308967
0.00309528
0.00309511
0.00308989
0.00309525
0.00308987
0.00309524
0.00308967
0.00309511
0.00309528
0.00308989
0.00310079
0.00310604
0.00310627
0.00310075
0.00310079
0.00310631
0.00310061
0.00310079
0.00310604
0.00310627
0.00310076
0.00310631
0.00310061
0.00310079
0.00309535
0.00308966
0.00308966
0.00309512
0.00309512
0.0030899
0.00309498
0.0031005
0.0030949
0.00309506
0.00308975
0.00308947
0.00309519
0.00309502
0.00309519
0.00308977
0.00308956
0.00308957
0.0030952
0.00309501
0.00309489
0.00309507
0.00308975
0.00309519
0.00308947
0.00309501
0.00309519
0.00308956
0.00308978
0.00309501
0.00309521
0.00308957
0.00310052
0.00310618
0.00310598
0.00310071
0.00310598
0.00310073
0.00310051
0.0030949
0.00309506
0.00308975
0.00309518
0.00308949
0.0031004
0.00310617
0.00310058
0.00310585
0.0031007
0.00309501
0.00309519
0.00308977
0.00308956
0.0030952
0.00309501
0.00308957
0.00310052
0.00310598
0.00310617
0.00310071
0.00310598
0.00310051
0.00310072
0.0030949
0.00309507
0.00308975
0.00309519
0.00308947
0.00310043
0.00310058
0.00310071
0.00309502
0.00309519
0.00308956
0.00308977
0.00309501
0.00309521
0.00308957
0.00309498
0.00309536
0.0030899
0.00309524
0.00308963
0.00309533
0.0030951
0.00309001
0.00309536
0.0030899
0.00309524
0.00308963
0.0030951
0.00309533
0.00309001
0.00309532
0.00308941
0.00308941
0.00309504
0.00309504
0.00308975
0.00309498
0.00309489
0.00309507
0.00308975
0.00309519
0.00308947
0.00309501
0.00309519
0.00308978
0.00308956
0.00309521
0.00309501
0.00308957
0.0030949
0.00309507
0.00308975
0.00309519
0.00308947
0.00309501
0.00309519
0.00308977
0.00308956
0.00309521
0.00309501
0.00308957
0.00310072
0.00310045
0.00310045
0.00309539
0.00308987
0.00309522
0.00308966
0.00308992
0.00309532
0.00309508
0.00309538
0.00308987
0.00309522
0.00308967
0.00308991
0.00309532
0.00309507
0.0031009
0.00310073
0.00310083
0.0031006
0.0030952
0.00308951
0.00308952
0.00308977
0.00309488
0.00309488
0.00309499
0.0031005
0.00309499
0.00307864
0.00307316
0.00307864
0.00307316
0.0030734
0.00306773
0.00306773
0.00307313
0.00307313
0.00306797
0.00307901
0.00308437
0.00308415
0.00307886
0.00308439
0.00307872
0.00307896
0.00307901
0.00308437
0.00308415
0.00307886
0.00308439
0.00307872
0.00307896
0.00307885
0.00308405
0.00308406
0.0030843
0.00307858
0.00307858
0.00307349
0.00306785
0.00307339
0.00306808
0.00307326
0.00306811
0.00307348
0.00307349
0.00306785
0.00307339
0.00306808
0.00307325
0.00306811
0.00307348
0.0030569
0.00306224
0.00306225
0.0030625
0.00305724
0.00306237
0.00306262
0.00305711
0.00306263
0.00305699
0.00305721
0.00306238
0.00306262
0.00306263
0.00307318
0.00307335
0.00306776
0.00306797
0.00307317
0.00307337
0.00306776
0.00307856
0.00308425
0.00307872
0.00308396
0.00307883
0.00307865
0.00307884
0.00308407
0.00308428
0.00307864
0.00308408
0.00307885
0.00307308
0.00306793
0.00307324
0.00307334
0.00306768
0.0030569
0.0030623
0.0030625
0.0030571
0.0030623
0.0030569
0.00305711
0.00305683
0.00306247
0.00305697
0.0030622
0.00305707
0.0030569
0.0030623
0.0030625
0.0030571
0.0030623
0.0030569
0.00305711
0.00305682
0.00306246
0.00305697
0.0030622
0.00305707
0.00307328
0.00306781
0.00306781
0.00307306
0.00307306
0.003068
0.00307904
0.0030844
0.00308415
0.00307886
0.00307873
0.00308444
0.00307897
0.00307904
0.00308441
0.00308415
0.00307886
0.00307898
0.00308445
0.00307873
0.00307872
0.00308399
0.00308399
0.00307843
0.00308429
0.00307842
0.00307347
0.00306786
0.00307339
0.00306804
0.00307324
0.00307346
0.00306804
0.00307346
0.00306786
0.00307339
0.00306803
0.00307346
0.00307324
0.00306802
0.00307864
0.00307315
0.0030569
0.0030572
0.00306242
0.00306242
0.00306265
0.00305697
0.00305696
0.00305724
0.00306241
0.00306259
0.00305712
0.00305722
0.00306256
0.00305701
0.00305725
0.00306242
0.00306258
0.00305712
0.00306257
0.00305701
0.00305723
0.0030569
0.00307318
0.00307336
0.00306776
0.00306797
0.00307317
0.00307337
0.00306776
0.00307857
0.00308425
0.00307872
0.00308397
0.00307883
0.00307865
0.00307884
0.00308407
0.00308427
0.00307864
0.00308408
0.00307885
0.00307307
0.00306793
0.00307323
0.00307334
0.00306767
0.0030625
0.0030623
0.00306231
0.00306247
0.00306221
0.0030623
0.00306249
0.0030623
0.00306246
0.0030622
0.00307317
0.00307336
0.00306796
0.00306776
0.00307337
0.00307317
0.00306776
0.00307855
0.00308426
0.00307872
0.00307883
0.00308397
0.00307865
0.00307884
0.00308427
0.00308407
0.00307886
0.00308408
0.00307864
0.00307306
0.00306793
0.00307323
0.00307334
0.00306768
0.00307318
0.00307336
0.00306776
0.00306797
0.00307317
0.00307337
0.00306776
0.00307856
0.00308425
0.00307871
0.00308397
0.00307883
0.00307865
0.00307884
0.00308407
0.00308427
0.00308408
0.00307864
0.00307885
0.00307306
0.00306793
0.00307323
0.00307334
0.00306767
0.00305691
0.00306249
0.0030623
0.00305709
0.00306231
0.00305711
0.0030569
0.00305683
0.00306246
0.00305697
0.00306222
0.00305707
0.00305691
0.0030623
0.00306249
0.00305709
0.0030623
0.0030569
0.0030571
0.00305684
0.00306246
0.00305697
0.00306221
0.00305707
0.00307343
0.0030679
0.0030679
0.00307323
0.00307323
0.0030681
0.00307896
0.0030844
0.00308412
0.00307887
0.00307873
0.00308446
0.00307894
0.00307896
0.0030844
0.00308412
0.00307887
0.00307894
0.00308446
0.00307874
0.00307877
0.00308386
0.00308386
0.00307856
0.00308417
0.00307856
0.0030734
0.00306786
0.0030734
0.00306804
0.00307327
0.00307344
0.00306803
0.0030734
0.00306786
0.0030734
0.00306804
0.00307344
0.00307327
0.00306803
0.00307864
0.00307315
0.0030624
0.0030624
0.00306262
0.0030624
0.0030626
0.0030626
0.00305729
0.0030624
0.0030626
0.0030571
0.0030626
0.00305698
0.00305724
0.0030569
0.00307318
0.00307336
0.00306797
0.00306776
0.00307337
0.00307317
0.00306776
0.00307856
0.00308425
0.00307872
0.00307883
0.00308398
0.00307865
0.00307884
0.00308427
0.00308407
0.00307886
0.00308408
0.00307864
0.00307306
0.00306793
0.00307323
0.00307334
0.00306767
0.00307317
0.00307336
0.00306796
0.00306776
0.00307337
0.00307317
0.00306776
0.00307855
0.00308425
0.00307871
0.00308397
0.00307883
0.00307865
0.00307884
0.00308427
0.00308407
0.00308408
0.00307886
0.00307864
0.00307306
0.00306793
0.00307323
0.00307334
0.00306767
0.00305691
0.00306249
0.0030623
0.00305709
0.0030623
0.00305711
0.0030569
0.00305684
0.00306246
0.00305697
0.00306221
0.00305707
0.00305691
0.00306249
0.0030623
0.00305709
0.0030623
0.00305711
0.0030569
0.00305683
0.00306246
0.00305697
0.00306221
0.00305707
0.00307863
0.00307315
0.00307863
0.00307315
0.00305701
0.00306221
0.00306221
0.00306251
0.00305683
0.00305683
0.00305723
0.00306238
0.00306263
0.00305712
0.00306267
0.00305721
0.00305699
0.00305723
0.00306239
0.00306263
0.00305712
0.00306267
0.00305722
0.00305699
0.00305689
0.00305689
0.00308166
0.00308166
0.00307076
0.00307076
0.00307076
0.00307078
0.00308167
0.00307906
0.0030843
0.0030843
0.00307899
0.00308427
0.00307902
0.00307902
0.00309518
0.00309514
0.00308994
0.00308994
0.00309523
0.00309523
0.00308998
0.00309516
0.00309513
0.00308994
0.00308994
0.00309522
0.00309522
0.00308999
0.00309525
0.00309516
0.00308997
0.00308997
0.00309525
0.00309525
0.0030901
0.00309526
0.00309516
0.00308995
0.00308995
0.00309
0.00309525
0.00309525
0.00307911
0.0030843
0.00308431
0.003079
0.0030843
0.00307903
0.00307903
0.00307915
0.00308432
0.00308432
0.00307901
0.00307905
0.00308435
0.00307904
0.00307908
0.00308433
0.00308433
0.00307899
0.00307903
0.00308437
0.00307903
0.00309259
0.00309259
0.0030926
0.00309259
0.00309259
0.0030926
0.00309259
0.00309259
0.0030926
0.00309259
0.00309259
0.0030926
0.00308166
0.00308166
0.00307076
0.00307077
0.00307077
0.00307078
0.00308167
0.00308166
0.00308166
0.00307075
0.00307076
0.00307076
0.00307078
0.00308167
0.00308166
0.00308166
0.00307076
0.00307076
0.00307076
0.00307078
0.00308167
0.0030599
0.0030599
0.0030599
0.00305991
0.00305989
0.0030599
0.0030599
0.00305991
0.00305989
0.0030599
0.0030599
0.00305991
0.00305989
0.0030599
0.0030599
0.00305991
0.00307336
0.0030734
0.00306812
0.00306805
0.00307342
0.00307336
0.00306805
0.00307894
0.00308432
0.00308434
0.003079
0.0030843
0.00307892
0.00307903
0.00307894
0.00307898
0.00308432
0.00308427
0.00308427
0.00307901
0.00307894
0.00307339
0.00306813
0.00307343
0.00306801
0.00307341
0.00307344
0.00306805
0.00307336
0.0030734
0.00306805
0.00306812
0.00307336
0.00307342
0.00306805
0.00307894
0.00308433
0.00308433
0.003079
0.00308429
0.00307891
0.00307903
0.00307894
0.00307898
0.00308427
0.00308432
0.00308427
0.00307894
0.00307901
0.00307338
0.00306813
0.00307342
0.003068
0.00307339
0.00307344
0.00306805
0.00307339
0.00307331
0.00306815
0.00306815
0.0030734
0.0030734
0.00306823
0.00309522
0.00308982
0.00309526
0.00308994
0.00309523
0.00309528
0.00308986
0.0030952
0.00309522
0.00308992
0.00308986
0.00309525
0.0030952
0.00308985
0.00309521
0.00308982
0.00309526
0.00308994
0.00309527
0.00309522
0.00308986
0.0031008
0.00310623
0.00310621
0.00310086
0.00310619
0.00310088
0.00310076
0.0030952
0.00309522
0.00308992
0.00308986
0.00309525
0.0030952
0.00308985
0.0031009
0.00310086
0.00310622
0.00310622
0.00310088
0.00310622
0.00310088
0.00309522
0.00308982
0.00309526
0.00308994
0.00309523
0.00309527
0.00308985
0.0030952
0.00309522
0.00308992
0.00308986
0.00309524
0.0030952
0.00308985
0.00309523
0.00308985
0.00309526
0.00308993
0.00309527
0.00309524
0.00308987
0.0030952
0.00309522
0.00308986
0.00308992
0.0030952
0.00309525
0.00308986
0.0031008
0.00310621
0.00310617
0.00310084
0.00310617
0.00310086
0.00310081
0.00309521
0.00308982
0.00309526
0.00308992
0.00308986
0.00309522
0.00309526
0.0031008
0.00310625
0.00310621
0.00310086
0.00310619
0.00310076
0.00310089
0.0030952
0.00309522
0.00308991
0.00308986
0.00308985
0.00309524
0.0030952
0.00310081
0.00310617
0.00310621
0.00310083
0.00310617
0.00310081
0.00310086
0.00309523
0.00308983
0.00309526
0.00308993
0.00309527
0.00309525
0.00308986
0.00310081
0.00310086
0.00310088
0.00310078
0.0030952
0.00309522
0.00308986
0.00308992
0.0030952
0.00309525
0.00308986
0.00309523
0.00308985
0.00309526
0.00308993
0.00308986
0.00309524
0.00309527
0.0030952
0.00309522
0.00308986
0.00308992
0.00308986
0.0030952
0.00309525
0.00309522
0.00308983
0.00309526
0.00308993
0.00309527
0.00309525
0.00308986
0.0030952
0.00309522
0.00308986
0.00308992
0.0030952
0.00309525
0.00308985
0.0030734
0.00307332
0.00306815
0.00306815
0.00306822
0.00307341
0.00307341
0.00305736
0.00305725
0.00306254
0.00306254
0.00306255
0.00305729
0.00305729
0.00307336
0.00307339
0.00306812
0.00306805
0.00307342
0.00307336
0.00306805
0.00307894
0.00308431
0.00308433
0.00307899
0.00307901
0.00308429
0.00307891
0.00307894
0.00307898
0.00308432
0.00308427
0.003079
0.00308427
0.00307894
0.00307339
0.00306813
0.00307342
0.00306803
0.00307344
0.00307341
0.00306806
0.00307336
0.00307339
0.00306812
0.00306805
0.00307342
0.00307336
0.00306805
0.00307894
0.00308432
0.00308434
0.003079
0.00308429
0.00307901
0.00307892
0.00307894
0.00307898
0.00308432
0.00308427
0.00308427
0.003079
0.00307894
0.00307339
0.00306814
0.00307343
0.00306801
0.00307343
0.00306805
0.00307341
0.00305719
0.00306255
0.00306249
0.00305724
0.00306249
0.00305727
0.00305719
0.0030572
0.00306256
0.00306254
0.00305725
0.00305717
0.00306252
0.00305728
0.00305719
0.00306255
0.00306249
0.00305724
0.00306249
0.00305727
0.00305719
0.0030572
0.00306256
0.00306252
0.00305725
0.00306251
0.00305727
0.00305717
0.0030734
0.00307331
0.00306813
0.00306813
0.00307341
0.00307341
0.00306815
0.00305736
0.00305725
0.00306252
0.00306251
0.00305729
0.00306246
0.00305729
0.00307336
0.00307339
0.00306812
0.00306805
0.00307342
0.00307336
0.00306805
0.00307894
0.00308431
0.00308434
0.00307899
0.00307902
0.00308429
0.00307891
0.00307894
0.00307898
0.00308432
0.00308427
0.003079
0.00308427
0.00307894
0.00307339
0.00306813
0.00307342
0.00306803
0.00307343
0.00307341
0.00306806
0.00307336
0.0030734
0.00306805
0.00306812
0.00307336
0.00307342
0.00306805
0.00307894
0.00308433
0.00308433
0.003079
0.00308429
0.00307902
0.00307891
0.00307894
0.00307898
0.00308427
0.00308432
0.00308427
0.00307894
0.003079
0.00307338
0.00306813
0.00307343
0.00306801
0.00307344
0.00306805
0.00307339
0.00306255
0.00306249
0.00306249
0.00306257
0.00306254
0.00306252
0.00306249
0.00306255
0.00306249
0.00306256
0.00306253
0.00306251
0.00307336
0.0030734
0.00306805
0.00306812
0.00307336
0.00307342
0.00306805
0.00307894
0.0030843
0.00308434
0.00307899
0.0030789
0.00308428
0.00307902
0.00307893
0.00307898
0.00308427
0.00308432
0.00307894
0.00308426
0.003079
0.00307338
0.00306813
0.00307341
0.00306803
0.0030734
0.00307344
0.00306806
0.00305719
0.00306255
0.00306249
0.00305724
0.00306249
0.00305727
0.00305719
0.0030572
0.00306255
0.00306252
0.00305724
0.00306251
0.00305717
0.00305728
0.00305719
0.00306249
0.00306255
0.00305724
0.00306249
0.00305719
0.00305727
0.0030572
0.00306256
0.00306255
0.00305725
0.00306252
0.00305728
0.00305717
0.00307332
0.0030733
0.00306813
0.00306812
0.00307338
0.00307338
0.00306813
0.00305742
0.00305727
0.00306252
0.00306252
0.00305731
0.00306251
0.0030573
0.00307336
0.0030734
0.00306805
0.00306812
0.00307336
0.00307342
0.00306805
0.00307894
0.0030843
0.00308434
0.00307899
0.0030789
0.00308428
0.00307902
0.00307893
0.00307898
0.00308427
0.00308432
0.00307894
0.00308426
0.003079
0.00307338
0.00306813
0.00307341
0.00306803
0.0030734
0.00307344
0.00306806
0.00305719
0.00306249
0.00306255
0.00305724
0.00306249
0.00305719
0.00305727
0.0030572
0.00306255
0.00306253
0.00305724
0.00306251
0.00305718
0.00305727
0.00305719
0.00306249
0.00306255
0.00305724
0.00306249
0.00305719
0.00305727
0.0030572
0.00306256
0.00306255
0.00305726
0.00306252
0.00305728
0.00305717
0.00305737
0.00305725
0.00306255
0.00306255
0.00306256
0.00305729
0.00305729
0.00304911
0.00304642
0.00304912
0.00304907
0.00304627
0.00304906
0.00304642
0.00304615
0.00304627
0.00304907
0.00304643
0.00304643
0.00304607
0.00304629
0.00304629
0.00304607
0.00304643
0.00304615
0.0030569
0.00305708
0.00305686
0.00305686
0.00305724
0.00305711
0.00305699
0.00305721
0.0030569
0.0030571
0.00305711
0.0030569
0.00305136
0.00304624
0.003046
0.00305162
0.00305682
0.00305697
0.00305707
0.00305146
0.00305164
0.00304628
0.00304607
0.00304607
0.00305165
0.00305146
0.0030569
0.0030571
0.0030569
0.00305711
0.00305137
0.00305153
0.00304624
0.00305162
0.003046
0.00305683
0.00305697
0.00305707
0.00305147
0.00305164
0.00304607
0.00304628
0.00305146
0.00305165
0.00304608
0.00305145
0.0030569
0.00305708
0.00305684
0.00305684
0.00305181
0.00304637
0.00305167
0.00304616
0.0030518
0.0030515
0.00304639
0.00305182
0.00304638
0.00305166
0.00304616
0.0030515
0.00305179
0.00304639
0.00305729
0.00305711
0.00305725
0.00305698
0.00305152
0.00304598
0.00304598
0.00305126
0.00305126
0.00304617
0.00305145
0.00305137
0.00305152
0.00304624
0.00305163
0.003046
0.00305177
0.00305162
0.00304646
0.00304647
0.00305172
0.00305172
0.00304653
0.00304907
0.00304907
0.00305719
0.00305725
0.00305727
0.00305719
0.00305167
0.00304645
0.00305172
0.0030572
0.00305725
0.00305717
0.00305728
0.00305165
0.00305169
0.00304645
0.00304637
0.00305172
0.00305165
0.00304636
0.00305719
0.00305724
0.00305719
0.00305727
0.00305168
0.00304634
0.00305171
0.00304646
0.00305173
0.00305172
0.00304637
0.0030572
0.00305724
0.00305727
0.00305718
0.00305166
0.00305169
0.00304637
0.00304645
0.00305165
0.00305172
0.00304637
0.00305168
0.00304634
0.00305171
0.00304647
0.00304637
0.00305171
0.00305173
0.00345472
0.00345472
0.00345537
0.00345541
0.00336954
0.00340717
0.00340717
0.00340992
0.00335719
0.00335719
0.00335719
0.00335991
0.00341663
0.00341989
0.00341989
0.00341663
0.00341989
0.00341989
0.00341989
0.00341989
0.00341663
0.00341989
0.00341989
0.00341663
0.00340992
0.00340717
0.00340717
0.00336633
0.00336633
0.00340992
0.00340717
0.00340717
0.00336641
0.00336652
0.00336633
0.00340717
0.00336955
0.00336955
0.00340992
0.00336632
0.00340717
0.00336955
0.00336955
0.00336641
0.00335719
0.00335719
0.00336002
0.00336002
0.00336013
0.00336029
0.00336002
0.00336012
0.00344272
0.00344195
0.00344178
0.00344272
0.00344195
0.00341988
0.00341988
0.00341988
0.00341988
0.00344222
0.00344557
0.0034424
0.00344554
0.00344178
0.00344222
0.00344557
0.00344554
0.0034424
0.00344226
0.00344234
0.00344234
0.00339153
0.00340988
0.00341051
0.00339097
0.00340974
0.00339084
0.00339153
0.00340988
0.00341052
0.00339097
0.00336962
0.00336962
0.00340716
0.00340716
0.00340716
0.00340716
0.00336954
0.00339126
0.00341023
0.00340714
0.00339454
0.00341006
0.00339136
0.00339451
0.00340974
0.00339084
0.00339126
0.00340714
0.00341023
0.00339453
0.00341006
0.00339451
0.00339137
0.00341022
0.00341022
0.00339134
0.00339128
0.00339128
0.00335726
0.00334499
0.00335718
0.00336013
0.00335717
0.00336002
0.00334494
0.00334184
0.00336013
0.00335717
0.00336002
0.00336012
0.00336012
0.00344177
0.00344178
0.00344226
0.00344234
0.00344234
0.00341613
0.00343529
0.00341613
0.0034353
0.00343546
0.00341661
0.00341662
0.00343585
0.00343585
0.00344272
0.00344195
0.00344222
0.00344558
0.0034424
0.00344553
0.00344222
0.00344557
0.0034424
0.00344553
0.00343621
0.00341628
0.00343547
0.00341694
0.00343621
0.00341628
0.00343547
0.00341694
0.00343563
0.0034327
0.0034167
0.00341986
0.00343585
0.00343266
0.00341656
0.00343563
0.0034327
0.0034167
0.00341986
0.00343585
0.00343266
0.00341656
0.00344226
0.00344234
0.00344234
0.00344178
0.00341613
0.0034353
0.00343546
0.00341662
0.00341662
0.00343585
0.00343585
0.00341613
0.0034353
0.00344222
0.00344557
0.0034424
0.00344554
0.00344272
0.00344196
0.00344222
0.00344557
0.00344554
0.0034424
0.00343621
0.00341628
0.00343547
0.00341694
0.00343563
0.0034327
0.0034167
0.00341986
0.00343585
0.00343266
0.00341656
0.00343621
0.00341628
0.00343547
0.00341694
0.00343563
0.0034327
0.00341986
0.0034167
0.00343266
0.00343585
0.00341656
0.00344272
0.00344195
0.00344222
0.00344557
0.00344553
0.0034424
0.00344272
0.00344196
0.00343563
0.00343269
0.0034167
0.00341986
0.00343585
0.00343266
0.00341656
0.00343621
0.00341628
0.00343547
0.00341694
0.00343563
0.0034327
0.00341986
0.0034167
0.00343266
0.00343585
0.00341656
0.00343621
0.00341628
0.00343547
0.00341694
0.00344226
0.00344234
0.00344234
0.00344178
0.00341613
0.0034353
0.00343546
0.00341662
0.00341662
0.00343585
0.00343585
0.00341613
0.0034353
0.00344222
0.00344557
0.00344554
0.0034424
0.00344272
0.00344195
0.00344272
0.00344196
0.00343563
0.0034327
0.00341986
0.0034167
0.00343266
0.00343585
0.00341656
0.00343563
0.00343269
0.00341986
0.0034167
0.00343266
0.00343585
0.00341656
0.00343621
0.00341628
0.00343547
0.00341694
0.00343621
0.00341628
0.00343547
0.00341694
0.00344178
0.00344178
0.00343546
0.00341662
0.00341662
0.00343585
0.00343585
0.00341613
0.0034353
0.00341613
0.0034353
0.00340974
0.00339084
0.00340974
0.00339084
0.00341022
0.00341022
0.00339134
0.00339127
0.00339128
0.00336592
0.00338454
0.00336592
0.00338454
0.00336632
0.00336632
0.00336642
0.00338473
0.00338498
0.00338498
0.00339153
0.00340988
0.00341051
0.00339097
0.00339126
0.00341023
0.00340714
0.00339454
0.00341006
0.00339137
0.00339451
0.00339126
0.00341023
0.00340714
0.00339454
0.00341006
0.00339137
0.00339451
0.00336651
0.00336604
0.0033852
0.00338467
0.00336651
0.00336604
0.0033852
0.00338467
0.00336641
0.00336955
0.00336952
0.00338485
0.003382
0.00338499
0.00338197
0.00336641
0.00336952
0.00336955
0.00338485
0.003382
0.00338499
0.00338197
0.00341022
0.00341022
0.00339134
0.00339127
0.00339127
0.00340974
0.00339084
0.00336592
0.00338454
0.00336632
0.00336642
0.00336632
0.00338473
0.00338498
0.00338497
0.00336592
0.00338454
0.00339126
0.00341023
0.00340714
0.00339453
0.00341006
0.00339137
0.00339451
0.00339153
0.00340988
0.00341052
0.00339097
0.00339126
0.00340714
0.00341023
0.00339454
0.00341006
0.00339451
0.00339137
0.00336604
0.00336652
0.00338521
0.00338467
0.00336633
0.00336955
0.00336952
0.00338485
0.003382
0.00338499
0.00338197
0.00336604
0.00338521
0.00338467
0.00336641
0.00336952
0.00336955
0.00338485
0.003382
0.00338197
0.00338499
0.00339153
0.00340988
0.00341051
0.00339097
0.00339126
0.00340714
0.00341023
0.00339454
0.00341006
0.00339451
0.00339137
0.00339153
0.00340988
0.00341051
0.00339097
0.00336641
0.00338485
0.00338199
0.00336953
0.00338499
0.00338197
0.00336633
0.00336604
0.0033852
0.00338467
0.00336651
0.00338485
0.00338199
0.00336952
0.00336641
0.00338197
0.00338499
0.00336633
0.0033852
0.00336604
0.00338467
0.00336652
0.00341022
0.00341022
0.00339134
0.00339128
0.00339128
0.00340974
0.00339084
0.00336592
0.00338454
0.00336642
0.00336632
0.00338473
0.00338498
0.00338497
0.00336592
0.00338454
0.00339126
0.00340714
0.00341023
0.00339454
0.00341006
0.00339451
0.00339137
0.00339153
0.00340988
0.00341051
0.00339097
0.00339153
0.00340988
0.00341052
0.00339097
0.00336641
0.00338485
0.00338199
0.00336952
0.00338197
0.00338499
0.00336633
0.00338485
0.00338199
0.00336952
0.00336641
0.00338197
0.00338499
0.00336633
0.00336604
0.00338521
0.00338467
0.00336652
0.00338521
0.00336604
0.00338467
0.00336652
0.00340974
0.00339084
0.00340974
0.00339084
0.00338473
0.00336632
0.00336632
0.00338498
0.00338498
0.00336592
0.00338454
0.00336592
0.00338454
0.00335983
0.00336029
0.00335717
0.00336013
0.00336002
0.00335983
0.00336029
0.00335717
0.00336013
0.00336002
0.00334149
0.00335983
0.00336029
0.00335983
0.00336029
0.00335972
0.00335972
0.00336029
0.00335983
0.00335972
0.00335983
0.00336029
0.00334188
0.00334149
0.00335972
0.00334138
0.00335972
0.00335971
0.00334137
0.00336012
0.00336012
0.00335991
0.00334186
0.00334175
0.00336029
0.00335983
0.00336013
0.0033572
0.00335717
0.00334491
0.00334494
0.00336013
0.00335717
0.00334491
0.00335719
0.00334493
0.00336012
0.00335991
0.00336012
0.00335971
0.00336002
0.0033572
0.00334494
0.00334491
0.00335717
0.00334177
0.00334184
0.00335983
0.00334188
0.00334149
0.00336013