/*--------------------------------*- C++ -*----------------------------------*\
| =========                 |                                                 |
| \\      /  F ield         | OpenFOAM: The Open Source CFD Toolbox           |
|  \\    /   O peration     | Version:  v2006                                 |
|   \\  /    A nd           | Website:  www.openfoam.com                      |
|    \\/     M anipulation  |                                                 |
\*---------------------------------------------------------------------------*/
FoamFile
{
    version     2.0;
    format      ascii;
    class       surfaceScalarField;
    location    "250";
    object      phi;
}
// * * * * * * * * * * * * * * * * * * * * * * * * * * * * * * * * * * * * * //

dimensions      [0 3 -1 0 0 0 0];
oriented        oriented;


internalField   nonuniform List<scalar> 
40902
(
1.06695e-06
1.02953e-06
5.14985e-07
-1.56943e-06
6.11732e-08
-5.80434e-07
-1.34744e-06
-2.42486e-08
-6.79851e-07
6.33357e-07
-0.0011106
-1.03236e-06
-0.000270538
-1.40554e-08
-8.66918e-09
1.04123e-06
-1.53226e-06
5.85442e-08
-5.77828e-07
-2.41627e-08
-6.82481e-07
-0.00111105
5.33565e-07
-0.0011126
1.67978e-07
2.18962e-08
-0.000205424
-4.30366e-08
2.97615e-07
-0.000246318
-1.70393e-07
-2.29879e-08
-2.01578e-10
-6.57008e-08
1.34466e-07
-0.000261747
1.06244e-07
1.05188e-06
-1.42962e-06
4.80258e-07
-1.24197e-06
6.79156e-07
-3.30836e-09
-0.00110758
-0.000263203
-6.0126e-08
1.62704e-07
-2.02142e-09
6.86989e-08
-0.000102097
2.02015e-07
-0.000296572
1.67886e-08
-7.30712e-08
6.76584e-08
2.05559e-07
-0.000296705
1.78447e-08
-2.21272e-08
-0.00010211
-1.69853e-07
1.34359e-07
-0.000261848
-0.000205474
-1.42421e-06
4.77178e-07
6.72968e-07
-1.23922e-06
1.06886e-06
-0.00110741
-3.58776e-07
-2.97763e-07
-0.000263225
1.65889e-07
-6.05487e-08
-0.000246356
-2.37016e-08
-1.70123e-07
7.43523e-08
8.23716e-05
-1.32116e-08
-8.24327e-05
-4.91488e-08
1.04649e-08
2.53428e-07
-0.000205639
-0.000281347
-3.6941e-08
2.66129e-08
2.06014e-07
2.80512e-08
3.25167e-07
-0.000281675
-1.22933e-08
-9.12406e-09
1.58148e-07
0.000150349
-0.000150511
-2.15876e-07
-2.26522e-08
4.32865e-07
2.56846e-10
-0.000246513
-0.000180279
7.4389e-09
1.6347e-10
-0.00023972
-1.15567e-07
2.65211e-07
9.67059e-11
-0.000180504
3.98621e-07
-0.000239955
9.93303e-08
-0.000102186
2.73493e-07
-1.94166e-07
0.000237035
-1.9529e-07
3.37709e-07
-0.000237257
-0.000265575
-2.03823e-07
2.16869e-07
1.93705e-07
2.94993e-07
4.41636e-10
1.10376e-07
-0.000296878
-0.000193325
1.4308e-07
-2.54277e-09
4.15543e-07
2.76675e-07
-0.000265699
-8.23802e-09
-0.000193511
-1.46959e-07
2.10948e-07
-1.94516e-07
2.76797e-07
0.000237112
-1.95322e-07
3.40574e-07
-0.000237339
-0.000265752
-2.03294e-07
2.19768e-07
1.93836e-07
1.31274e-09
2.93545e-07
-9.93375e-08
1.05903e-07
-0.000297006
-0.000193392
1.45547e-07
-2.40819e-09
-8.65577e-09
-0.000193577
4.15184e-07
2.78996e-07
-0.000265876
-1.49213e-07
2.09396e-07
-5.96751e-08
-5.95191e-08
0.000228196
-0.000228468
-8.43517e-05
3.8434e-08
-8.43674e-05
3.83678e-08
-8.44196e-05
-8.44356e-05
-1.0582e-08
-0.000102198
2.53492e-07
-0.000205689
1.59729e-07
-9.58108e-09
0.000150421
-0.000150585
1.38772e-08
-2.28806e-08
-2.15469e-07
4.32443e-07
-0.00024655
-0.000239823
-1.13625e-07
2.64238e-07
-2.68215e-08
-0.00018031
7.92664e-09
4.00893e-07
-0.000240059
-2.84772e-08
-0.000180535
1.28764e-08
4.62644e-07
4.60972e-07
0.00025607
-0.000256316
-5.78859e-07
-5.8483e-07
-0.000272476
-0.00026899
-1.21973e-07
-0.00026862
-1.21683e-07
-0.000269272
-0.000268906
6.88987e-10
-0.00111699
-6.15572e-07
-1.86676e-07
0.000272216
1.27214e-07
-0.000272888
-0.000271381
1.66827e-07
1.23483e-07
4.94516e-07
-0.000262002
-0.000266653
9.45347e-08
1.0012e-07
1.05207e-07
-0.000266925
-0.000271476
1.11868e-07
-6.57736e-07
6.14241e-08
0.000270879
-0.000271585
-5.61404e-08
6.50053e-07
5.63431e-10
-0.000263364
-0.000263758
1.2688e-07
-0.000269807
-6.19311e-08
-6.06226e-09
-0.000263968
3.54163e-09
-0.000270341
-0.000271487
4.94142e-07
-0.000262105
-0.000271587
0.000270928
5.88683e-08
-6.60253e-07
-0.000271631
-1.20292e-07
6.47251e-07
-5.60703e-08
-0.000263383
-6.03756e-08
-0.00026981
1.25208e-07
-0.00026384
-1.00554e-07
-1.06099e-07
-0.000270336
-0.000264052
-1.03583e-07
-1.07093e-06
-1.02849e-06
0.000272663
-0.000270542
-1.68731e-08
-5.12226e-09
0.00111135
1.03314e-06
5.12401e-07
-1.56979e-06
7.08931e-08
-5.7657e-07
-1.34817e-06
-2.3638e-08
-6.8337e-07
6.34226e-07
-0.00111047
0.00111232
1.03924e-06
-1.52762e-06
6.24557e-08
-5.68401e-07
-2.57393e-08
-6.80607e-07
6.28865e-07
-0.00111144
5.05628e-07
-1.34556e-06
1.57002e-06
1.52507e-06
-5.67988e-07
-5.79163e-07
0.000270715
-5.74636e-07
1.07352e-06
7.18933e-08
-6.78658e-07
-2.30542e-08
4.93151e-07
-5.66529e-07
1.0309e-06
6.33065e-08
6.32755e-07
-6.78656e-07
-1.34484e-06
-2.29417e-08
5.37882e-07
-0.00111274
5.06057e-07
-0.00020534
1.04835e-08
2.49451e-07
0.000205129
-0.000205315
1.06983e-08
2.49366e-07
-4.89441e-08
0.000205104
4.28253e-07
0.000246055
-2.24286e-08
-2.0707e-07
-0.000246253
7.17514e-08
-2.15821e-08
0.000102068
-0.000102118
7.17028e-08
-2.15792e-08
0.000102051
-0.000102101
6.6957e-08
0.000296486
2.07045e-07
-0.000296699
1.08088e-08
6.70745e-08
0.000296405
2.02093e-07
-0.000296613
1.05549e-08
1.70915e-07
-0.000205489
-4.348e-08
2.97786e-07
-0.000246363
-1.70472e-07
-2.27037e-08
0.000261845
1.36941e-07
-0.00026185
1.05624e-07
1.0519e-06
-1.42715e-06
4.80179e-07
-1.24213e-06
6.7893e-07
-0.00110764
-0.000263239
-5.90997e-08
1.62914e-07
1.7056e-07
-0.000205462
-4.57646e-08
0.000261806
1.33974e-07
-0.000261803
1.00714e-07
9.68711e-08
0.000101982
9.70645e-08
0.000101965
1.07454e-07
2.86569e-07
-9.80359e-09
0.000296198
1.05194e-07
2.91558e-07
-9.18881e-09
0.000296114
4.93005e-07
0.000261589
4.95526e-07
1.20543e-07
0.000261544
6.80305e-07
-1.24128e-06
-1.42648e-06
4.81551e-07
-0.00110844
0.000263255
-5.4193e-08
6.44506e-07
-0.000263418
2.17857e-08
1.64879e-07
-8.23328e-05
3.61639e-08
-1.22023e-08
-7.41376e-08
0.000280918
2.72737e-08
3.19259e-07
-0.000281239
-4.21976e-08
2.18532e-08
1.65032e-07
-1.3262e-08
-8.23937e-05
2.59915e-08
2.00524e-07
-0.000150144
1.10288e-07
-8.16338e-09
-2.26208e-08
-1.61892e-07
2.90944e-07
-1.52907e-07
0.000239436
3.94611e-07
-0.000239672
9.95897e-09
0.000179915
-0.000180132
-0.0001503
2.5682e-07
9.87294e-08
-9.89858e-09
-0.000102207
9.85099e-08
-9.64105e-09
-0.00010219
-1.92775e-07
2.61123e-07
0.000237111
-1.80402e-07
3.269e-07
-0.000237326
-0.000265731
-1.96516e-07
0.000265736
2.15562e-07
1.82838e-07
-1.10349e-08
2.92299e-07
1.10573e-07
-0.000296992
-0.000193391
1.41302e-07
-9.31371e-09
0.00019327
-2.17959e-08
-0.000193573
4.15321e-07
2.70717e-07
-0.000265864
-1.43699e-07
0.000237004
1.95833e-07
-1.95114e-07
2.60985e-07
0.000237045
-1.80713e-07
3.28131e-07
-0.000237258
-0.000265619
-1.96529e-07
0.000265616
2.15558e-07
1.8569e-07
-1.02428e-08
2.96956e-07
1.10156e-07
-0.000296911
-0.000193328
1.39497e-07
-9.36299e-09
0.000193208
-2.17976e-08
-0.000193511
4.14947e-07
2.67969e-07
-0.000265744
-1.41901e-07
0.000236931
1.99144e-07
-5.15469e-08
-5.15579e-08
0.00022821
-0.000228468
-8.43668e-05
3.36366e-08
8.43238e-05
-8.43491e-05
3.3586e-08
8.43062e-05
-8.44401e-05
-8.44225e-05
0.000227992
8.24195e-05
7.48179e-08
-1.3759e-08
-8.24806e-05
-4.99121e-08
2.55211e-07
-0.000205704
-3.72847e-08
-0.000281483
2.59692e-08
2.05e-07
-1.2701e-08
2.76334e-08
3.29177e-07
-0.000281815
0.000150426
-9.52603e-09
1.58103e-07
-0.000150588
-2.15728e-07
-2.23525e-08
4.32804e-07
-0.000246558
7.88396e-09
-0.000180316
-1.15807e-07
-0.000239827
2.63507e-07
-0.000180541
4.0142e-07
-0.000240065
2.55011e-07
-4.67989e-08
-0.000205679
6.94313e-08
6.95296e-08
-0.000236787
-1.27933e-07
1.9899e-07
-1.504e-07
1.93767e-07
-2.5488e-07
0.0002656
4.11922e-07
2.65717e-07
1.84731e-07
0.000193096
-2.01744e-08
1.6092e-08
1.96676e-07
6.2845e-08
-1.74067e-07
3.20624e-07
-1.11689e-10
2.12203e-07
1.83167e-07
-0.000236721
-1.27806e-07
1.98515e-07
-1.48203e-07
1.96446e-07
-2.54493e-07
0.00026549
4.11498e-07
2.60454e-07
1.86857e-07
0.000193033
-2.02096e-08
1.60185e-08
1.94133e-07
6.5351e-08
-1.76577e-07
3.19035e-07
-5.4425e-11
2.11895e-07
1.88465e-07
-0.000227733
-3.44761e-08
-3.4523e-08
4.59033e-08
8.42578e-05
4.5858e-08
8.42401e-05
4.49894e-07
4.47652e-07
0.000256077
-0.00025632
-5.69866e-07
-5.80975e-07
-0.000272488
-0.000268603
-1.10193e-07
0.000268983
-0.000269036
-1.12676e-07
0.000269421
-0.000268884
-0.000269322
0.000256249
-0.000256003
1.09338e-07
1.12033e-07
-4.43962e-07
0.000268696
-4.41772e-07
0.000269129
-1.17347e-08
-2.41316e-09
5.09313e-07
-0.00111701
-1.13517e-07
-0.00112408
-5.696e-07
3.90312e-07
-0.0011168
-5.34733e-07
-0.00112368
-7.00139e-07
-1.82945e-07
-6.19583e-07
0.000272287
1.17951e-07
-0.00027295
-0.000271469
1.62764e-07
0.000271602
4.96992e-07
1.23073e-07
-0.000262104
-0.000266761
9.39729e-08
1.01861e-07
-0.000271567
1.02769e-07
-0.000267031
1.17627e-07
-6.58145e-07
5.92874e-08
0.000270933
-0.000271643
-5.60239e-08
6.50184e-07
-0.0002634
-0.000263846
1.27544e-07
-0.000269835
-5.97725e-08
-0.000264056
-0.000270364
-0.000271457
1.57586e-07
0.000271593
4.99316e-07
1.2792e-07
-0.000262065
1.8818e-07
-0.000271559
0.000273075
-0.0002723
-9.10567e-08
1.01783e-07
0.000271501
1.31282e-07
-8.52282e-08
-0.000272406
-1.60305e-07
1.04322e-07
1.83582e-07
0.000271487
0.000266582
6.18678e-07
1.00564e-07
-0.000266862
1.0245e-07
1.28622e-07
9.96641e-08
1.27148e-07
-1.19412e-07
-0.000271077
5.48924e-08
-5.68113e-08
1.60435e-07
0.000263797
6.57924e-07
-0.000264014
-5.82437e-08
0.000269987
-0.00027053
-0.000271777
-1.06222e-06
-1.05768e-06
-0.0011097
5.40159e-07
5.51734e-07
0.00111072
-0.00110836
-1.53141e-06
1.05824e-06
5.21914e-07
0.00110927
-5.75846e-07
1.01878e-06
4.55363e-08
6.19769e-07
-6.8794e-07
-1.34836e-06
-3.08611e-08
-0.00110827
-1.52774e-06
1.05612e-06
5.24889e-07
0.00110917
-5.78352e-07
1.01847e-06
5.71583e-08
6.13921e-07
-6.86653e-07
-1.34397e-06
-3.46173e-08
-0.000271898
1.55811e-06
1.51875e-06
-5.73547e-07
-5.84368e-07
0.000269979
-1.05622e-06
-1.01365e-06
0.000271941
-0.000269818
-3.2243e-08
-2.06503e-08
0.00110778
1.06126e-06
5.22577e-07
-1.56803e-06
5.82459e-08
-5.74015e-07
-1.35419e-06
-3.9175e-08
-6.93258e-07
6.13235e-07
-0.00110686
1.05317e-06
0.00110791
1.0612e-06
-0.00110699
5.22904e-07
-1.56545e-06
5.51255e-08
-5.707e-07
-1.35658e-06
-3.65067e-08
-6.96049e-07
6.15619e-07
-1.01563e-06
0.000271928
-0.000269811
-2.69085e-08
-2.09571e-08
0.00110875
1.06199e-06
5.21354e-07
-1.52603e-06
4.96138e-08
-5.65948e-07
-1.35089e-06
-3.90429e-08
-6.93167e-07
6.10608e-07
-0.00110784
1.04889e-06
0.00110781
1.0638e-06
5.26691e-07
-1.56543e-06
4.54643e-08
-5.80382e-07
-1.3531e-06
-3.36652e-08
-6.9441e-07
6.15894e-07
-0.00110688
1.06179e-06
-0.00110743
5.21906e-07
-1.52834e-06
4.94055e-08
-5.64966e-07
-1.35357e-06
-3.87459e-08
6.1118e-07
-6.95962e-07
1.04585e-06
0.00110748
1.05604e-06
5.23387e-07
-1.55832e-06
5.58171e-08
-5.78335e-07
-1.349e-06
-3.56356e-08
-6.93068e-07
6.11779e-07
-0.00110656
-1.01142e-06
0.000271919
-0.000269798
-3.345e-08
-2.78155e-08
1.06432e-06
5.25587e-07
-1.52844e-06
4.26641e-08
-5.77426e-07
-1.34771e-06
-3.60749e-08
6.10631e-07
-6.917e-07
-0.00110734
1.00596e-06
0.00110845
1.06224e-06
5.1671e-07
-1.51624e-06
4.72733e-08
-5.70263e-07
-1.34856e-06
-3.54263e-08
-6.93033e-07
6.1188e-07
-0.00110753
-0.000269794
-3.19252e-08
-2.00452e-08
1.56991e-06
1.52784e-06
-5.75235e-07
-5.86085e-07
0.000270004
5.2225e-07
0.00110868
-5.81306e-07
1.05944e-06
5.85922e-08
6.19681e-07
-6.88475e-07
-1.35141e-06
-3.40118e-08
-1.56828e-06
1.05734e-06
5.22528e-07
0.00110882
-5.81242e-07
1.05629e-06
5.12743e-08
6.23337e-07
-6.90558e-07
-1.35385e-06
-3.07555e-08
-5.8286e-07
-5.87744e-07
0.000269999
5.26765e-07
0.00110966
-5.73233e-07
1.01433e-06
5.01007e-08
6.16599e-07
-6.88562e-07
-1.34896e-06
-3.37769e-08
-1.56464e-06
1.0501e-06
5.09536e-07
0.00110873
-5.81184e-07
1.05601e-06
6.00012e-08
6.19683e-07
-6.89188e-07
-1.34938e-06
-3.20823e-08
1.05585e-06
5.20956e-07
0.00110839
-5.74077e-07
1.0491e-06
5.85115e-08
6.15625e-07
-6.92412e-07
-3.30827e-08
-1.3492e-06
-5.79425e-07
-5.84155e-07
0.00026999
1.05656e-06
5.19953e-07
0.00110936
-5.65972e-07
1.012e-06
5.28645e-08
6.15386e-07
-6.92389e-07
-3.2856e-08
-1.34902e-06
5.41777e-07
5.42336e-07
-0.00110866
0.00110952
5.41768e-07
5.42509e-07
-0.00110848
0.00110934
5.43181e-07
5.43815e-07
-0.00110829
0.00110936
5.42102e-07
5.31941e-07
-0.00110831
2.80035e-10
3.11952e-07
0.000246854
-0.000246955
-1.88633e-07
-2.21006e-08
-0.000206853
9.39454e-09
2.76492e-07
-5.32609e-08
0.00020662
-0.000247438
-1.24012e-10
4.55577e-07
0.000247247
-2.4455e-07
-2.02759e-08
2.19266e-08
1.79086e-07
0.000206078
-4.55832e-08
-0.000206233
-0.000102635
-9.61583e-09
1.06601e-07
0.000102538
-2.09187e-08
7.6489e-08
0.000102329
-0.000102385
3.0936e-07
-2.29223e-10
0.000246848
-0.000246947
-2.14427e-08
-1.88716e-07
-0.000206827
9.46899e-09
2.74369e-07
-5.37298e-08
0.000206597
-0.000247431
4.55607e-07
5.70492e-10
0.00024724
-2.0838e-08
-2.44458e-07
2.19972e-08
1.81228e-07
0.000206053
-4.54673e-08
-0.000206211
5.40416e-07
5.41192e-07
0.00111056
5.34159e-07
5.45739e-07
0.00111036
5.39501e-07
5.40262e-07
0.00111039
-3.15048e-07
-1.73249e-09
0.000263355
-0.000263155
-5.99763e-08
1.76842e-07
-0.000262863
-1.16016e-07
-2.72597e-07
5.07814e-07
1.31177e-07
0.000262613
0.00110547
-0.00110449
4.55304e-09
1.0809e-06
6.62181e-07
-1.24248e-06
-1.42926e-06
4.6369e-07
5.16239e-07
1.02497e-06
0.00111016
1.05023e-06
-1.3502e-06
-2.99815e-08
-6.88456e-07
6.23267e-07
-1.52955e-06
6.06792e-08
-5.70332e-07
-0.000263258
-4.52602e-07
1.66506e-09
0.000263107
-5.58137e-08
6.57403e-07
-7.74444e-08
-1.83333e-07
0.00026236
1.1308e-07
-0.000262361
1.47849e-07
-3.68016e-09
0.00110645
1.0748e-06
-1.42898e-06
4.68233e-07
-1.24158e-06
6.66699e-07
-0.000102627
-9.18262e-09
1.06437e-07
0.00010253
-2.08939e-08
7.38313e-08
0.000102325
-0.000102378
-2.00186e-10
-3.12329e-07
0.000263347
-0.000263151
1.769e-07
-6.11123e-08
0.00110533
-0.00110436
9.95476e-09
1.08603e-06
6.59447e-07
-1.24242e-06
-1.42637e-06
4.63642e-07
-0.000262858
-1.18265e-07
-2.7306e-07
5.10318e-07
1.31769e-07
0.000262607
5.42857e-07
1.02692e-06
0.00111001
1.06566e-06
-1.34698e-06
-3.34758e-08
-6.9112e-07
6.15789e-07
-1.52008e-06
6.64469e-08
-5.62808e-07
-0.000263251
1.27299e-09
-4.55569e-07
0.000263104
6.5752e-07
-5.58072e-08
1.51047e-08
0.00110631
1.08014e-06
-1.42656e-06
4.68145e-07
-1.24177e-06
6.63624e-07
-7.48115e-08
-1.82992e-07
0.000262356
1.12545e-07
-0.000262356
1.45232e-07
-0.000298547
1.22501e-07
-1.06855e-07
3.16027e-07
-1.57507e-08
0.000298231
-0.000298456
1.19949e-07
-1.06703e-07
3.15762e-07
-1.56073e-08
0.000298142
-1.05174e-06
-1.0146e-06
0.000272261
-0.00027016
-2.03736e-08
-1.41746e-08
7.16834e-08
-7.56647e-08
0.000297485
1.38613e-08
-0.000297703
2.07426e-07
7.4357e-08
-7.55477e-08
0.000297394
1.34493e-08
-0.000297613
2.06849e-07
8.0876e-08
-2.13098e-08
0.000102656
-0.000102716
8.32326e-08
-2.1406e-08
0.000102639
-0.000102701
8.04142e-08
0.000298578
2.28895e-07
-0.000298816
9.52626e-09
8.3028e-08
0.000298496
2.23827e-07
-0.000298729
8.71777e-09
1.92498e-07
-0.000207018
-4.82474e-08
9.3923e-12
3.26808e-07
-0.000247536
-2.08234e-07
-2.0309e-08
1.94601e-07
2.02593e-08
0.000206787
-0.000206954
-4.8108e-08
2.86859e-07
8.10253e-09
-5.45886e-08
0.000207362
-0.000207602
3.26676e-07
0.000247394
-0.000247493
-2.08031e-07
-2.02202e-08
0.000262863
1.5664e-07
-0.000262865
1.18894e-07
-3.48435e-09
0.0011047
1.08759e-06
-1.43358e-06
4.5883e-07
-1.24678e-06
6.57326e-07
-0.0011037
-8.36183e-10
0.000263262
-0.000263059
-6.09413e-08
1.85356e-07
-1.56561e-06
6.12323e-07
-6.95807e-07
-1.35504e-06
-3.99933e-08
1.05192e-06
-5.77013e-07
5.71567e-08
-0.00110607
5.24421e-07
1.06598e-06
-7.91115e-08
0.00026276
1.55755e-07
-0.00026276
1.17678e-07
0.00110466
1.0875e-06
-1.43319e-06
4.61586e-07
-1.24672e-06
6.59979e-07
-0.00110367
-1.27661e-07
1.38543e-07
5.18718e-07
0.000263003
-0.000263246
0.000263234
-0.000263033
-5.97473e-08
1.85282e-07
8.15349e-08
-0.000102696
1.12233e-07
0.000102861
-0.000102965
1.52861e-06
0.000269628
-5.8234e-07
-5.87117e-07
-0.000271553
0.000298461
2.2156e-07
-0.00029869
1.02922e-08
-8.14196e-08
8.22721e-08
0.000298592
2.20805e-07
-0.000298824
1.02915e-08
-1.80178e-08
3.24375e-07
0.000299232
-0.000299553
-1.12144e-07
1.24412e-07
-1.78211e-08
3.24661e-07
0.000299366
-0.000299685
-2.03417e-08
0.000102647
-0.000102708
-8.21533e-09
0.000102873
-0.000102977
1.94882e-07
-0.000206995
-4.86476e-08
3.26629e-07
-7.14419e-10
-0.000247529
-1.98675e-08
-2.08104e-07
0.000262823
1.53979e-07
-0.000262818
1.18758e-07
-2.83295e-09
0.00110456
1.08735e-06
-1.43045e-06
4.64517e-07
-1.24657e-06
6.57276e-07
-0.00110356
-2.23085e-09
0.000263254
-0.00026305
-5.99463e-08
1.85106e-07
1.93795e-07
2.06141e-08
0.000206773
-0.00020694
-4.72902e-08
3.29405e-07
0.000247386
-0.000247489
-2.06157e-07
-2.07814e-08
0.00110452
1.08747e-06
-1.43033e-06
4.64734e-07
-1.24653e-06
6.57851e-07
-0.00110353
-7.583e-08
0.000262752
1.49628e-07
-0.00026275
1.17726e-07
0.000263224
-0.000263024
1.87689e-07
-6.03826e-08
-4.68396e-07
2.24924e-09
-5.67116e-08
6.64911e-07
0.000262996
-0.000263138
5.23201e-07
1.01476e-06
-5.71379e-07
5.18203e-08
6.08889e-07
-6.93273e-07
-1.35058e-06
-3.99165e-08
-0.00110652
1.06723e-06
-1.94355e-07
1.55486e-07
-0.00026286
1.1872e-07
-0.00110349
-3.67381e-09
1.08177e-06
-1.43051e-06
4.59033e-07
6.57644e-07
-1.24382e-06
-2.87299e-07
1.37351e-07
5.18968e-07
0.000263105
-0.000263349
2.29163e-09
6.52137e-07
-1.24512e-06
-1.43131e-06
4.53951e-07
-0.00110249
1.09382e-06
-3.29362e-07
-2.31487e-09
-0.000263055
-5.91431e-08
1.87742e-07
7.0183e-10
-1.89613e-08
-2.65303e-07
0.000247821
-0.000248006
0.000206836
-0.000207004
-4.75535e-08
-5.57161e-08
0.000207412
-0.000207652
-8.99941e-10
0.000247434
-0.000247535
-1.91893e-08
-2.08542e-07
-4.68553e-07
6.62152e-07
-5.52587e-08
0.000262973
-0.000263109
-0.00110344
0.00110444
1.08186e-06
-1.42733e-06
4.58984e-07
-1.24376e-06
6.54736e-07
-1.94181e-07
-7.9838e-08
0.000262792
1.5562e-07
-0.000262792
1.18428e-07
6.50271e-07
-1.24506e-06
-1.42834e-06
4.54233e-07
-0.00110244
-5.26983e-07
1.09376e-06
-3.29471e-07
0.000263229
-0.000263032
1.90656e-07
-6.05743e-08
-2.65743e-07
-1.75041e-08
0.000247779
-0.000247964
2.0298e-08
0.000206782
-0.000206949
-4.7399e-08
0.000247393
-0.000247494
-2.08473e-07
-2.06721e-08
8.30854e-08
-0.00010269
0.000298452
2.20601e-07
-0.000298686
2.03894e-08
-8.29475e-08
7.62219e-08
0.000298583
2.18172e-07
-0.000298814
1.98907e-08
-2.07574e-08
0.000102644
-0.000102706
4.4661e-11
1.08184e-06
-1.42771e-06
4.59239e-07
6.55098e-07
-1.24369e-06
-0.00110335
-1.93626e-07
1.49611e-07
-0.000262856
1.18143e-07
-3.48691e-10
-3.2687e-07
-0.000263051
1.87675e-07
-6.08146e-08
0.00110429
1.0817e-06
-1.42433e-06
4.59045e-07
-1.24088e-06
6.54617e-07
-0.00110331
-1.94179e-07
-8.2789e-08
0.000262758
1.52955e-07
-0.000262753
1.18485e-07
-3.26825e-07
0.00026322
-0.000263023
1.87844e-07
-5.89034e-08
0.000206832
-0.000207
-4.70451e-08
4.28622e-10
0.000247431
-0.00024753
-2.05403e-08
-2.08535e-07
2.02311e-08
0.000206773
-0.00020694
-4.74289e-08
0.000247391
-0.000247489
-1.97031e-08
-2.08379e-07
-8.13277e-08
2.21864e-07
-0.000298773
5.45345e-09
-8.11208e-08
2.2125e-07
-0.000298684
4.864e-09
0.000102635
-0.000102696
0.000102628
-0.000102689
1.09757e-07
0.000102556
7.45034e-08
0.000102352
-0.000102404
1.07316e-07
0.000102541
7.69928e-08
0.000102335
-0.00010239
1.18729e-07
3.07684e-07
-9.31668e-09
0.00029827
1.15823e-07
3.1249e-07
-8.70898e-09
0.000298184
0.000272307
-1.06202e-06
-1.01677e-06
-0.000270187
-2.64788e-08
-1.50402e-08
0.000297513
7.37572e-08
1.36894e-08
-0.000297739
2.13443e-07
0.000297431
7.65518e-08
1.3133e-08
-0.000297655
2.11017e-07
1.04619e-07
-1.04857e-08
0.000102257
1.023e-07
-1.07538e-08
0.000102243
1.5709e-06
1.52881e-06
0.000270367
-5.75893e-07
-5.84143e-07
1.13699e-07
-7.62858e-09
3.008e-07
0.00029721
1.13809e-07
-7.27278e-09
3.03254e-07
0.000297124
3.11854e-07
0.00024681
-0.000246912
-1.88497e-07
-2.13824e-08
2.72248e-07
-5.28081e-08
0.000206558
4.55534e-07
0.000247204
-2.44495e-07
-2.07082e-08
1.83746e-07
0.000206011
-4.62656e-08
-0.00020617
-8.97558e-10
0.000263359
-0.000263159
-6.07032e-08
1.73843e-07
5.0948e-07
1.31847e-07
0.000262617
0.00110568
3.48485e-09
1.0814e-06
6.65544e-07
-1.24531e-06
-1.42959e-06
4.69479e-07
5.20471e-07
0.00110958
1.05704e-06
-1.57032e-06
6.16561e-08
-5.78587e-07
-1.35093e-06
-3.21852e-08
-6.86489e-07
6.2262e-07
9.00287e-10
0.000263112
-5.53949e-08
6.60296e-07
0.000262361
1.12463e-07
-0.000262363
1.42492e-07
-2.35273e-09
0.00110666
1.08616e-06
-1.43152e-06
4.71025e-07
-1.24697e-06
6.66941e-07
0.00026333
-0.000263133
-5.93783e-08
1.73868e-07
-1.18768e-07
5.07679e-07
1.31383e-07
0.000262512
0.00110565
1.08112e-06
6.65388e-07
-1.24805e-06
-1.43209e-06
4.69482e-07
5.16939e-07
0.00110971
1.0623e-06
1.04946e-06
-1.35203e-06
-3.0094e-08
6.2558e-07
-6.88342e-07
-1.56675e-06
6.60207e-08
-5.76021e-07
0.000263086
-5.65868e-08
6.60281e-07
0.000262257
-7.37649e-08
1.12221e-07
-0.00026226
1.47849e-07
0.00110662
1.08042e-06
-1.4311e-06
4.73766e-07
-1.24691e-06
6.69559e-07
2.30672e-10
4.40342e-07
-2.2489e-07
-2.22848e-08
0.00024666
2.63045e-07
-5.10153e-08
0.000205856
4.40326e-07
-2.24802e-07
-2.17627e-08
0.000246617
2.61563e-07
9.24533e-09
-5.11404e-08
0.000205792
6.4307e-10
-5.55686e-08
6.53613e-07
0.0002632
5.16886e-07
1.04552e-06
1.06649e-06
-5.80327e-07
6.44109e-08
6.28262e-07
-6.86298e-07
-2.58054e-08
-1.35229e-06
1.26659e-07
5.03221e-07
0.000262108
-5.03722e-09
1.06903e-06
6.71762e-07
-1.24603e-06
-1.43096e-06
4.7848e-07
-5.5775e-08
6.53726e-07
0.000263173
5.16359e-07
-1.56679e-06
1.04521e-06
6.29031e-07
-6.88043e-07
-1.35379e-06
-2.69912e-08
1.06303e-06
-5.7019e-07
6.18516e-08
-1.14652e-07
1.25637e-07
5.028e-07
0.000262005
1.06917e-06
6.76743e-07
-1.24615e-06
-1.43095e-06
4.81078e-07
3.08243e-07
-2.11337e-09
0.000298143
-1.06681e-07
3.08374e-07
-1.76095e-09
0.000298276
0.0002723
-0.000270185
-1.6854e-08
-1.03894e-08
0.00029739
4.77033e-10
-0.000297604
2.15624e-07
-7.62552e-08
0.000297521
-5.1384e-10
-0.000297737
2.15232e-07
-9.88163e-09
0.00010255
0.000102341
-2.0763e-08
-0.000102396
9.98512e-08
0.000102239
1.52984e-06
0.000270359
-5.75586e-07
-5.79951e-07
-1.66909e-08
2.98565e-07
0.000297094
-9.9871e-08
1.13324e-07
-1.71632e-08
2.97511e-07
0.000297227
-9.30245e-09
0.00010225
-1.11635e-09
0.000263346
-0.000263152
-6.02526e-08
1.76524e-07
5.12135e-07
1.31211e-07
0.00026257
0.00110554
1.13845e-08
1.08114e-06
6.62204e-07
-1.24807e-06
-1.4296e-06
4.6648e-07
5.30024e-07
0.00111055
1.05218e-06
-1.52547e-06
5.30849e-08
-5.70472e-07
-1.34792e-06
-3.1947e-08
-6.86354e-07
6.20315e-07
2.08419e-09
0.000263106
-5.647e-08
6.57682e-07
0.000262321
1.12938e-07
-0.000262319
1.42329e-07
1.8597e-08
0.00110651
1.07507e-06
-1.42876e-06
4.71045e-07
-1.24158e-06
6.66863e-07
3.12172e-07
0.000246804
-0.000246908
-1.86565e-07
-2.17227e-08
2.7285e-07
-5.25374e-08
0.000206543
4.52971e-07
0.000247201
-2.46763e-07
-2.00501e-08
1.80878e-07
0.000205999
-4.57666e-08
-0.000206155
0.000263317
-0.000263127
1.79503e-07
-5.91515e-08
0.00110552
1.07544e-06
6.62393e-07
-1.24799e-06
-1.42907e-06
4.66496e-07
-1.17973e-07
5.10123e-07
1.31509e-07
0.000262501
4.84555e-07
0.00110968
1.05083e-06
1.03842e-06
-1.3494e-06
-3.10524e-08
6.18387e-07
-6.88454e-07
-1.56517e-06
6.34968e-08
-5.71088e-07
0.00026308
6.54905e-07
-5.60018e-08
0.00110648
1.07516e-06
-1.42908e-06
4.7093e-07
-1.24177e-06
6.66427e-07
0.000262251
-7.70988e-08
1.1228e-07
-0.00026225
1.45237e-07
4.4281e-07
4.70839e-10
-2.24111e-08
-2.24874e-07
0.000246652
2.60846e-07
-4.87705e-08
0.00020583
2.635e-09
-5.64342e-08
6.50746e-07
0.000263192
5.21048e-07
1.04635e-06
1.02399e-06
-5.7223e-07
5.58862e-08
-6.83698e-07
-1.34669e-06
6.25123e-07
-2.80793e-08
1.31717e-07
5.03335e-07
0.000262061
5.10435e-08
1.06876e-06
-1.2431e-06
-1.42795e-06
0.00110744
6.71408e-07
4.72969e-07
4.40413e-07
-2.27209e-07
-2.15623e-08
0.000246613
2.62673e-07
9.2933e-09
-5.02651e-08
0.000205777
6.48166e-07
-5.45127e-08
0.000263167
3.39935e-07
-1.60101e-06
8.99485e-07
-6.83692e-07
-1.34722e-06
9.80791e-07
-5.90284e-07
4.63733e-08
0.00111103
6.28455e-07
-2.23394e-08
1.09116e-06
-1.24321e-06
-1.42793e-06
0.00110731
6.71805e-07
4.73041e-07
-1.10093e-07
1.25565e-07
5.0254e-07
0.000261995
-5.06388e-10
0.00024685
-0.000246954
-2.10844e-08
-1.89107e-07
-5.37406e-08
0.000206608
1.59381e-10
0.000247246
-2.05501e-08
-2.44229e-07
0.000206061
-4.51983e-08
-0.00020622
-3.14848e-07
0.000263325
-0.000263131
1.79446e-07
-5.99768e-08
0.00110543
1.08121e-06
6.59554e-07
-1.24261e-06
4.63742e-07
-1.42678e-06
-2.73561e-07
5.11097e-07
1.32869e-07
0.000262544
5.19203e-07
0.0011093
1.04506e-06
-1.55887e-06
5.92817e-08
-5.75412e-07
-1.3455e-06
-3.13789e-08
-6.86297e-07
6.17573e-07
-4.52964e-07
0.000263084
6.55002e-07
-5.58399e-08
0.00110641
1.06932e-06
-1.42316e-06
4.65532e-07
-1.23877e-06
6.61428e-07
-1.81504e-07
0.00026229
1.11388e-07
-0.000262293
1.44369e-07
0.000246809
-0.000246913
-1.88831e-07
-2.20513e-08
9.60975e-09
-5.3216e-08
0.000206552
0.000247205
-2.44588e-07
-2.00607e-08
0.000206007
2.08338e-08
-4.50151e-08
-0.000206165
-4.37863e-07
1.37836e-09
-5.4519e-08
6.50871e-07
0.000263195
5.15671e-07
1.04561e-06
1.02534e-06
-5.64606e-07
5.89997e-08
6.26483e-07
-6.88001e-07
-1.35045e-06
-2.67222e-08
-2.61661e-07
1.26756e-07
5.02858e-07
0.000262106
5.37924e-09
1.06861e-06
6.71548e-07
-1.2404e-06
-1.42791e-06
4.72948e-07
-4.19492e-10
-2.09531e-08
-2.25302e-07
0.000246659
-5.09359e-08
0.000205841
-4.38016e-07
6.4819e-07
-5.5574e-08
0.000263172
5.15818e-07
-1.55969e-06
1.04466e-06
6.2304e-07
-6.83057e-07
-1.34338e-06
-2.81945e-08
1.05547e-06
-5.77272e-07
6.01213e-08
1.06827e-06
6.66345e-07
-1.2376e-06
-1.42225e-06
4.70314e-07
-2.59356e-07
-1.14278e-07
1.26605e-07
4.99699e-07
0.000262037
-2.25421e-07
-2.17722e-08
0.000246617
1.02872e-08
-5.02517e-08
0.000205788
3.09558e-07
-7.42677e-09
0.000298138
-1.06787e-07
3.1232e-07
-6.88268e-09
0.000298266
0.000272286
-0.000270174
-1.40181e-08
-1.97026e-08
0.000297391
3.7533e-09
-0.000297611
2.13723e-07
-7.61441e-08
0.000297527
3.22594e-09
-0.00029774
2.11475e-07
-9.28664e-09
0.000102546
0.000102339
-2.0928e-08
-0.000102394
1.02689e-07
0.000102232
1.5013e-06
0.000270347
-5.68008e-07
-5.95938e-07
-6.01107e-09
2.95098e-07
0.000297094
-1.00626e-07
1.13142e-07
-5.60336e-09
3.00498e-07
0.000297219
-9.51723e-09
0.000102248
-3.1222e-07
0.000263316
-0.000263123
1.76738e-07
-5.83576e-08
0.00110529
1.08633e-06
6.56332e-07
-1.2426e-06
4.60776e-07
-1.42663e-06
-2.73514e-07
5.13529e-07
1.32635e-07
0.000262505
5.12753e-07
0.00111026
1.05131e-06
-1.52212e-06
5.36483e-08
-5.70089e-07
-1.34812e-06
-2.88138e-08
-6.89032e-07
6.20442e-07
-4.55601e-07
0.000263076
6.57722e-07
-5.64029e-08
0.00110628
1.07464e-06
-1.4232e-06
4.65419e-07
-1.23888e-06
6.61126e-07
-1.81592e-07
0.000262256
1.11542e-07
-0.000262253
1.41788e-07
1.96585e-10
0.000246847
-0.000246949
-2.18778e-08
-1.88819e-07
-5.27538e-08
0.000206603
2.11929e-10
0.000247241
-2.03579e-08
-2.4471e-07
0.000206056
-4.54648e-08
-0.000206215
0.000246806
-0.000246908
-2.12992e-08
-1.88774e-07
9.6616e-09
-5.34054e-08
0.000206543
0.000247201
-2.02391e-08
-2.44597e-07
0.000205998
2.06675e-08
-4.49023e-08
-0.000206155
1.3991e-09
-4.40606e-07
6.50806e-07
-5.51891e-08
0.000263191
6.75009e-07
1.22178e-06
1.09171e-06
-5.65548e-07
6.08399e-08
6.25947e-07
-6.89168e-07
-1.34702e-06
-2.7244e-08
0.00111046
4.80613e-08
1.05213e-06
6.69441e-07
-1.24029e-06
-1.42513e-06
4.73279e-07
-2.60393e-07
1.26138e-07
5.05267e-07
0.000262098
-4.4049e-07
6.50796e-07
-5.60453e-08
0.000263164
4.98063e-07
-1.52299e-06
1.04547e-06
6.25775e-07
-6.85655e-07
-1.34589e-06
-2.55413e-08
1.01836e-06
-5.71822e-07
5.4519e-08
1.06829e-06
6.66064e-07
-1.23756e-06
-1.42206e-06
4.7029e-07
-2.59356e-07
-1.11831e-07
1.26427e-07
5.0213e-07
0.000261998
3.46366e-10
-2.16538e-08
-2.25349e-07
0.000246653
-5.01974e-08
0.000205837
-2.15818e-08
-2.25281e-07
0.000246613
1.0232e-08
-5.03838e-08
0.000205779
0.000102538
0.00010233
-0.000102385
0.000102531
0.000102323
-0.000102378
0.000270341
-5.78639e-07
-5.84128e-07
-1.00908e-07
-4.34374e-09
3.01185e-07
0.000297175
-1.00607e-07
-4.51339e-09
3.0042e-07
0.000297087
0.00010224
0.000102233
-7.40578e-09
1.69731e-07
0.000151017
-0.000151193
1.34854e-08
-2.34551e-07
-2.12437e-08
-0.000247147
5.53905e-11
4.47771e-07
-0.000181155
5.90145e-09
4.27101e-12
0.000180961
-0.000240593
-1.27037e-07
-2.63728e-08
0.000240448
2.76152e-07
-0.000181397
1.39232e-11
-0.000240832
-2.74699e-08
4.15114e-07
1.24641e-08
0.000150884
-8.26821e-05
3.84601e-08
-1.18083e-08
8.26555e-05
-7.63363e-08
0.00028325
2.71277e-08
-0.000283603
3.48994e-07
-4.62636e-08
0.00020646
2.02893e-08
1.86031e-07
-1.26803e-08
-8.27458e-05
2.56611e-08
0.000282994
2.22406e-07
-0.000151334
-4.40864e-09
1.33308e-07
-1.98538e-07
-2.06506e-08
-1.62684e-10
3.19407e-07
5.9288e-09
0.0001816
-0.000181851
6.20678e-11
-1.76448e-07
0.000240976
-0.000241215
4.22556e-07
-0.000151517
4.83853e-11
2.82355e-07
7.56263e-08
8.25933e-05
-0.000282648
-3.82016e-08
0.000282397
2.16885e-07
-5.19273e-08
9.50023e-09
2.68863e-07
3.4271e-07
8.25676e-05
0.000102479
-2.16202e-08
8.05422e-08
-1.05089e-08
1.0488e-07
1.70235e-07
-7.024e-09
0.000151013
-0.000151189
1.28007e-08
-2.14016e-08
-2.34824e-07
-0.000247139
3.31196e-10
4.48045e-07
-0.000240583
-1.26854e-07
-2.61647e-08
0.000240439
2.75376e-07
-0.00018115
5.55109e-09
2.02288e-10
0.000180955
-0.000240822
-2.73371e-08
4.15319e-07
-0.000181392
1.39078e-10
1.21258e-08
0.000150879
-8.26818e-05
3.88704e-08
-1.1759e-08
8.26547e-05
-7.64697e-08
0.000283245
2.73928e-08
-0.000283597
3.48073e-07
-4.6015e-08
0.000206435
2.00487e-08
1.88237e-07
-1.32661e-08
-8.2745e-05
2.60084e-08
0.000282986
2.25737e-07
-0.000151329
1.33593e-07
-4.53222e-09
-2.12705e-08
-1.98523e-07
5.82435e-10
3.19581e-07
-1.76326e-07
0.000240967
-0.000241207
4.23054e-07
6.36311e-09
0.000181595
-0.000181845
-9.82047e-11
-0.000151513
2.83228e-07
-6.7187e-11
7.55912e-08
8.25919e-05
-0.000282644
-3.77071e-08
0.000282392
2.17977e-07
-5.13446e-08
9.46703e-09
2.6623e-07
3.39006e-07
8.25663e-05
0.000102474
-2.11154e-08
7.68008e-08
-1.00434e-08
1.06447e-07
-4.72295e-08
-4.71296e-08