/*--------------------------------*- C++ -*----------------------------------*\
| =========                 |                                                 |
| \\      /  F ield         | OpenFOAM: The Open Source CFD Toolbox           |
|  \\    /   O peration     | Version:  v2012                                 |
|   \\  /    A nd           | Website:  www.openfoam.com                      |
|    \\/     M anipulation  |                                                 |
\*---------------------------------------------------------------------------*/
FoamFile
{
    version     2.0;
    format      ascii;
    class       volScalarField;
    location    "1500";
    object      epsilon;
}
// * * * * * * * * * * * * * * * * * * * * * * * * * * * * * * * * * * * * * //

dimensions      [0 2 -3 0 0 0 0];


internalField   nonuniform List<scalar> 
171728
(
1.40124e-09
3.52328e-09
4.84825e-09
5.12154e-09
1.36752e-09
3.27569e-09
4.42324e-09
4.6685e-09
1.30019e-09
3.03516e-09
4.00911e-09
4.26925e-09
1.23685e-09
2.82556e-09
3.65675e-09
3.93584e-09
1.17738e-09
2.64097e-09
3.35527e-09
3.59613e-09
1.11794e-09
2.48321e-09
3.09942e-09
3.32108e-09
1.06053e-09
2.35168e-09
2.88607e-09
3.08117e-09
1.00422e-09
2.24909e-09
2.71594e-09
2.86166e-09
9.48941e-10
2.17612e-09
2.58667e-09
2.68142e-09
8.99462e-10
2.13272e-09
2.50146e-09
2.52551e-09
8.54233e-10
2.12442e-09
2.45645e-09
2.41929e-09
8.15119e-10
2.14904e-09
2.45351e-09
2.3469e-09
7.75539e-10
2.21556e-09
2.49773e-09
2.32733e-09
7.42361e-10
2.33382e-09
2.60386e-09
2.36324e-09
7.10056e-10
2.52286e-09
2.78544e-09
2.46882e-09
6.84492e-10
2.81873e-09
3.09047e-09
2.68985e-09
6.6816e-10
3.27096e-09
3.56267e-09
3.09602e-09
6.54804e-10
3.97941e-09
4.3128e-09
3.83107e-09
6.40745e-10
5.04989e-09
5.44091e-09
5.08394e-09
6.33586e-10
6.67115e-09
7.17973e-09
7.30049e-09
6.35704e-10
9.24701e-09
9.60793e-09
1.12092e-08
6.4445e-10
1.25585e-08
1.27751e-08
1.77984e-08
6.67995e-10
1.71487e-08
1.79515e-08
2.8656e-08
7.1179e-10
2.43352e-08
2.42409e-08
4.65547e-08
7.8358e-10
3.32312e-08
3.35237e-08
7.1697e-08
8.95647e-10
4.42821e-08
4.4446e-08
1.0957e-07
1.07486e-09
5.82112e-08
5.87129e-08
1.58582e-07
1.33712e-09
7.49871e-08
7.52722e-08
2.18184e-07
1.71418e-09
9.54815e-08
9.53287e-08
2.89855e-07
2.22978e-09
1.17574e-07
1.17724e-07
3.66495e-07
2.93158e-09
1.44286e-07
1.44595e-07
4.45498e-07
3.87343e-09
1.72254e-07
1.72382e-07
5.1789e-07
5.15009e-09
2.05303e-07
2.06318e-07
5.84758e-07
6.90625e-09
2.41889e-07
2.40928e-07
6.32502e-07
9.15523e-09
2.76199e-07
2.76814e-07
7.19738e-07
1.19708e-08
3.2264e-07
3.23724e-07
7.96805e-07
1.57513e-08
3.6133e-07
3.61245e-07
7.85373e-07
1.99579e-08
4.05317e-07
4.06036e-07
8.25101e-07
2.59272e-08
4.58203e-07
4.56305e-07
8.80963e-07
3.2747e-08
4.99366e-07
5.02927e-07
9.16283e-07
4.11916e-08
5.56404e-07
5.54284e-07
9.56261e-07
5.1599e-08
6.00256e-07
6.03828e-07
9.77979e-07
6.19498e-08
6.43856e-07
6.41886e-07
1.00048e-06
7.70461e-08
6.97264e-07
6.98366e-07
1.034e-06
9.01387e-08
7.40137e-07
7.43078e-07
1.06817e-06
1.09676e-07
7.8728e-07
7.84024e-07
1.09157e-06
1.32866e-07
8.25469e-07
8.32386e-07
1.11823e-06
1.47152e-07
8.63912e-07
8.62754e-07
1.14715e-06
1.71154e-07
9.05682e-07
9.03401e-07
1.1648e-06
2.09672e-07
9.37937e-07
9.41068e-07
1.18963e-06
2.34586e-07
9.68407e-07
9.6422e-07
1.21938e-06
2.55533e-07
1.00111e-06
1.00224e-06
1.24071e-06
2.8966e-07
1.03163e-06
1.03444e-06
1.25349e-06
3.18683e-07
1.05139e-06
1.04898e-06
1.27134e-06
3.44443e-07
1.07846e-06
1.07631e-06
1.30341e-06
3.81016e-07
1.09754e-06
1.10406e-06
1.32351e-06
4.10058e-07
1.11718e-06
1.11618e-06
1.33109e-06
4.42947e-07
1.14082e-06
1.13777e-06
1.34691e-06
4.77291e-07
1.15663e-06
1.16041e-06
1.36389e-06
4.95899e-07
1.1703e-06
1.16773e-06
1.37505e-06
5.21412e-07
1.18967e-06
1.18547e-06
1.39034e-06
5.59238e-07
1.21211e-06
1.21672e-06
1.41018e-06
5.82444e-07
1.21058e-06
1.22299e-06
1.4218e-06
5.89464e-07
1.21865e-06
1.2118e-06
1.41527e-06
6.13344e-07
1.25194e-06
1.23653e-06
1.43674e-06
6.47477e-07
1.2683e-06
1.27395e-06
1.46799e-06
6.67879e-07
1.25844e-06
1.27786e-06
1.46777e-06
6.70648e-07
1.25301e-06
1.25726e-06
1.45149e-06
6.75521e-07
1.27395e-06
1.25959e-06
1.46288e-06
7.06245e-07
1.29946e-06
1.29472e-06
1.4921e-06
7.3394e-07
1.30474e-06
1.31067e-06
1.50558e-06
7.37846e-07
1.29604e-06
1.30209e-06
1.50585e-06
7.38017e-07
1.29659e-06
1.30152e-06
1.49808e-06
7.52416e-07
1.30508e-06
1.3059e-06
1.49138e-06
7.69288e-07
1.31318e-06
1.3073e-06
1.50707e-06
7.81732e-07
1.32347e-06
1.32028e-06
1.52959e-06
7.90589e-07
1.32199e-06
1.32715e-06
1.52642e-06
7.94326e-07
1.3152e-06
1.32213e-06
1.51703e-06
7.96471e-07
1.32226e-06
1.31584e-06
1.52458e-06
8.00611e-07
1.32692e-06
1.3115e-06
1.52804e-06
8.04992e-07
1.3148e-06
1.31508e-06
1.51707e-06
8.11661e-07
1.31545e-06
1.33172e-06
1.52713e-06
8.20519e-07
1.33024e-06
1.33802e-06
1.54971e-06
8.19142e-07
1.3221e-06
1.314e-06
1.53419e-06
8.04132e-07
1.30193e-06
1.29461e-06
1.50274e-06
8.02502e-07
1.30339e-06
1.30421e-06
1.50842e-06
8.16296e-07
1.31594e-06
1.31799e-06
1.5376e-06
8.18809e-07
1.31374e-06
1.31429e-06
1.54581e-06
8.08798e-07
1.30102e-06
1.30344e-06
1.52456e-06
7.99585e-07
1.28802e-06
1.28824e-06
1.49479e-06
7.91256e-07
1.27969e-06
1.27505e-06
1.48882e-06
7.89891e-07
1.28207e-06
1.27888e-06
1.51155e-06
7.95806e-07
1.2839e-06
1.28545e-06
1.52409e-06
7.93004e-07
1.27136e-06
1.27223e-06
1.50007e-06
7.57765e-07
1.19758e-06
1.19802e-06
1.43112e-06
5.12307e-09
4.21346e-09
4.03556e-09
4.98102e-09
3.68238e-09
3.99295e-09
1.36639e-09
1.38293e-09
1.54455e-09
1.52265e-09
3.67702e-09
3.87346e-09
5.30455e-09
4.27023e-09
4.72348e-09
5.16482e-09
5.10212e-09
4.64043e-09
5.38364e-09
4.88763e-09
5.14018e-09
4.5025e-09
4.95988e-09
4.4964e-09
3.25618e-09
4.80997e-09
3.0762e-09
4.5626e-09
4.5127e-09
3.34222e-09
4.23463e-09
5.27656e-09
4.78824e-09
1.05552e-08
4.53758e-09
8.42216e-09
4.71665e-09
4.61024e-09
4.1975e-09
5.03888e-09
4.36405e-09
4.75576e-09
3.98191e-09
4.4656e-09
4.0429e-09
3.00836e-09
4.46711e-09
2.81887e-09
4.19558e-09
4.13493e-09
3.09165e-09
3.86764e-09
4.75182e-09
4.31626e-09
7.8127e-09
4.10648e-09
6.52523e-09
4.31124e-09
4.17234e-09
3.82684e-09
4.66635e-09
3.87358e-09
4.41136e-09
3.58662e-09
4.01726e-09
3.65777e-09
2.76046e-09
4.11041e-09
2.59959e-09
3.87632e-09
3.78914e-09
2.87547e-09
3.57128e-09
4.28489e-09
3.9162e-09
6.23112e-09
3.73992e-09
5.50674e-09
3.97025e-09
3.80578e-09
3.51538e-09
4.33217e-09
3.49862e-09
4.1089e-09
3.25995e-09
3.63608e-09
3.33667e-09
2.55029e-09
3.80617e-09
2.41398e-09
3.61608e-09
3.50283e-09
2.68477e-09
3.30779e-09
3.8891e-09
3.57611e-09
5.26335e-09
3.42629e-09
4.54425e-09
3.62213e-09
3.4978e-09
3.25089e-09
4.04182e-09
3.19036e-09
3.85845e-09
3.0138e-09
3.31901e-09
3.06488e-09
2.37237e-09
3.55782e-09
2.25734e-09
3.39744e-09
3.2472e-09
2.52038e-09
3.08671e-09
3.55324e-09
3.29171e-09
4.33785e-09
3.15921e-09
3.84808e-09
3.33916e-09
3.23658e-09
3.01666e-09
3.80021e-09
2.96298e-09
3.64828e-09
2.8312e-09
3.05129e-09
2.84513e-09
2.22267e-09
3.34837e-09
2.12789e-09
3.21367e-09
3.0393e-09
2.38128e-09
2.91728e-09
3.27326e-09
3.05335e-09
3.71847e-09
2.93513e-09
3.37725e-09
3.09704e-09
3.00574e-09
2.81196e-09
3.60571e-09
2.79383e-09
3.48007e-09
2.6987e-09
2.83532e-09
2.66595e-09
2.10037e-09
3.1742e-09
2.0286e-09
3.07557e-09
2.88381e-09
2.27215e-09
2.80292e-09
3.03888e-09
2.85604e-09
3.27566e-09
2.75392e-09
2.99235e-09
2.87425e-09
2.80376e-09
2.62853e-09
3.43502e-09
2.67301e-09
3.28783e-09
2.61515e-09
2.6599e-09
2.52527e-09
2.00805e-09
3.04924e-09
1.95835e-09
2.98595e-09
2.78202e-09
2.19178e-09
2.72945e-09
2.84605e-09
2.69905e-09
2.9047e-09
2.61454e-09
2.72139e-09
2.68905e-09
2.62313e-09
2.48608e-09
3.2361e-09
2.60027e-09
3.08812e-09
2.57011e-09
2.5234e-09
2.42437e-09
1.94607e-09
2.96777e-09
1.92055e-09
2.91682e-09
2.71187e-09
2.14019e-09
2.65711e-09
2.69303e-09
2.57563e-09
2.68056e-09
2.51826e-09
2.55244e-09
2.52992e-09
2.48669e-09
2.39454e-09
3.04468e-09
2.56439e-09
2.93855e-09
2.55679e-09
2.42554e-09
2.33892e-09
1.91618e-09
2.90148e-09
1.91321e-09
2.86306e-09
2.63963e-09
2.12334e-09
2.59218e-09
2.57429e-09
2.49483e-09
2.49765e-09
2.4631e-09
2.33879e-09
2.41759e-09
2.39877e-09
2.33255e-09
2.91153e-09
2.55871e-09
2.84205e-09
2.57778e-09
2.34277e-09
2.29536e-09
1.91569e-09
2.85313e-09
1.93694e-09
2.84994e-09
2.57956e-09
2.14112e-09
2.55936e-09
2.49809e-09
2.45483e-09
2.30277e-09
2.45058e-09
2.24248e-09
2.33999e-09
2.34158e-09
2.29364e-09
2.82276e-09
2.59111e-09
2.76433e-09
2.65226e-09
2.30702e-09
2.29695e-09
1.94758e-09
2.85289e-09
1.99803e-09
2.88563e-09
2.56048e-09
2.19946e-09
2.58267e-09
2.46509e-09
2.45553e-09
2.23899e-09
2.48268e-09
2.24908e-09
2.30995e-09
2.30958e-09
2.28934e-09
2.74576e-09
2.68279e-09
2.71636e-09
2.79967e-09
2.31793e-09
2.34476e-09
2.01971e-09
2.90795e-09
2.10681e-09
2.99002e-09
2.59559e-09
2.30473e-09
2.65485e-09
2.47511e-09
2.50124e-09
2.26154e-09
2.5712e-09
2.33384e-09
2.33316e-09
2.31721e-09
2.35308e-09
2.71497e-09
2.84824e-09
2.73835e-09
3.03449e-09
2.37781e-09
2.45353e-09
2.14282e-09
3.03097e-09
2.28147e-09
3.24019e-09
2.68138e-09
2.47499e-09
2.78222e-09
2.53328e-09
2.60944e-09
2.36968e-09
2.73262e-09
2.50224e-09
2.41924e-09
2.40109e-09
2.52066e-09
2.76182e-09
3.11083e-09
2.86918e-09
3.40871e-09
2.50898e-09
2.66199e-09
2.33899e-09
3.33125e-09
2.55102e-09
3.63208e-09
2.82371e-09
2.73898e-09
2.99559e-09
2.66491e-09
2.81958e-09
2.55791e-09
2.99947e-09
2.77203e-09
2.6043e-09
2.60522e-09
2.85694e-09
2.93525e-09
3.52322e-09
3.25343e-09
3.92363e-09
2.75479e-09
3.02938e-09
2.63984e-09
3.75036e-09
2.98216e-09
4.24083e-09
3.06788e-09
3.14379e-09
3.39294e-09
2.9116e-09
3.20216e-09
2.86234e-09
3.41872e-09
3.19853e-09
2.94543e-09
3.00802e-09
3.48494e-09
3.38915e-09
4.08301e-09
3.88897e-09
4.70543e-09
3.18503e-09
3.68585e-09
3.12314e-09
4.48325e-09
3.63697e-09
5.43066e-09
3.53083e-09
3.77455e-09
4.04168e-09
3.36641e-09
3.98728e-09
3.33873e-09
4.09115e-09
3.87068e-09
3.58323e-09
3.7336e-09
4.56733e-09
4.09726e-09
4.98827e-09
4.85854e-09
6.00149e-09
3.94499e-09
4.88848e-09
3.84736e-09
5.87505e-09
4.63109e-09
7.31797e-09
4.24783e-09
4.72984e-09
4.99082e-09
4.28123e-09
5.4772e-09
4.08698e-09
5.12807e-09
4.86861e-09
4.66173e-09
4.96981e-09
6.50046e-09
5.16001e-09
6.44457e-09
6.34065e-09
8.08e-09
5.33362e-09
7.11183e-09
4.93794e-09
7.83082e-09
6.12624e-09
9.8282e-09
5.30707e-09
6.25511e-09
6.44687e-09
5.95832e-09
7.91984e-09
5.19696e-09
6.74337e-09
6.35816e-09
6.60398e-09
7.20554e-09
9.88305e-09
6.81934e-09
8.65016e-09
8.56797e-09
1.09279e-08
7.80863e-09
1.08312e-08
6.59226e-09
1.0576e-08
8.31397e-09
1.27443e-08
6.91928e-09
8.51452e-09
8.6622e-09
8.69165e-09
1.13989e-08
6.84108e-09
8.81391e-09
8.61368e-09
1.00497e-08
1.10355e-08
1.5807e-08
9.28528e-09
1.17922e-08
1.1817e-08
1.42103e-08
1.22075e-08
1.64397e-08
9.01516e-09
1.34583e-08
1.1507e-08
1.4995e-08
9.37139e-09
1.1484e-08
1.18597e-08
1.26748e-08
1.61546e-08
9.33199e-09
1.19043e-08
1.18578e-08
1.58864e-08
1.76227e-08
2.58718e-08
1.27823e-08
1.52257e-08
1.63541e-08
1.82891e-08
1.83336e-08
2.63282e-08
1.24883e-08
1.57123e-08
1.61348e-08
1.93451e-08
1.28881e-08
1.59809e-08
1.64336e-08
1.74226e-08
2.70979e-08
1.28978e-08
1.65709e-08
1.64438e-08
2.58512e-08
2.87897e-08
4.14748e-08
1.77423e-08
1.9304e-08
2.25912e-08
2.40701e-08
2.84286e-08
4.26803e-08
1.75173e-08
2.09416e-08
2.22669e-08
2.56123e-08
1.77769e-08
2.23919e-08
2.27647e-08
3.0609e-08
4.24336e-08
1.77809e-08
2.2462e-08
2.26933e-08
4.21184e-08
4.60915e-08
6.65857e-08
2.45936e-08
2.59864e-08
3.09655e-08
3.24143e-08
4.80445e-08
6.80539e-08
2.42204e-08
2.70021e-08
3.05253e-08
3.20339e-08
2.46742e-08
3.06873e-08
3.09992e-08
4.61322e-08
6.57861e-08
2.45412e-08
3.09972e-08
3.07808e-08
6.54509e-08
7.24067e-08
1.01146e-07
3.3449e-08
3.48601e-08
4.18323e-08
4.21152e-08
7.43177e-08
1.01553e-07
3.2928e-08
3.4129e-08
4.13339e-08
4.1439e-08
3.35795e-08
4.12546e-08
4.21491e-08
7.23613e-08
9.93756e-08
3.3325e-08
4.13993e-08
4.16328e-08
1.01505e-07
1.09729e-07
1.47478e-07
4.48706e-08
4.49841e-08
5.56056e-08
5.51429e-08
1.09265e-07
1.47859e-07
4.44199e-08
4.44533e-08
5.47965e-08
5.5143e-08
4.51804e-08
5.46682e-08
5.5946e-08
1.07123e-07
1.47142e-07
4.46719e-08
5.49279e-08
5.51166e-08
1.47376e-07
1.57905e-07
2.0355e-07
5.9187e-08
5.86913e-08
7.15114e-08
7.0972e-08
1.58394e-07
2.02518e-07
5.84462e-08
5.8953e-08
7.06131e-08
7.10243e-08
5.98418e-08
7.02473e-08
7.24056e-08
1.58352e-07
2.03701e-07
5.88665e-08
7.08073e-08
7.10384e-08
2.06113e-07
2.1651e-07
2.7415e-07
7.64741e-08
7.57602e-08
9.11189e-08
9.11821e-08
2.15553e-07
2.76956e-07
7.52551e-08
7.55272e-08
9.00877e-08
9.05892e-08
7.69774e-08
9.02093e-08
9.22442e-08
2.15874e-07
2.72761e-07
7.54416e-08
9.00605e-08
9.04708e-08
2.74242e-07
2.89147e-07
3.51441e-07
9.65273e-08
9.64733e-08
1.1424e-07
1.12833e-07
2.92343e-07
3.50683e-07
9.54101e-08
9.59093e-08
1.12482e-07
1.12459e-07
9.7839e-08
1.11862e-07
1.14387e-07
2.87908e-07
3.48396e-07
9.59284e-08
1.11874e-07
1.11984e-07
3.51696e-07
3.67068e-07
4.26513e-07
1.20118e-07
1.18706e-07
1.39036e-07
1.38474e-07
3.65373e-07
4.26586e-07
1.18328e-07
1.18305e-07
1.36862e-07
1.38179e-07
1.20461e-07
1.37055e-07
1.41288e-07
3.63377e-07
4.25816e-07
1.1806e-07
1.37436e-07
1.37635e-07
4.28521e-07
4.42016e-07
5.04198e-07
1.46302e-07
1.45593e-07
1.68166e-07
1.66391e-07
4.43038e-07
5.02048e-07
1.44024e-07
1.45409e-07
1.66655e-07
1.66321e-07
1.48563e-07
1.65329e-07
1.69729e-07
4.42494e-07
5.01423e-07
1.44615e-07
1.65433e-07
1.67171e-07
5.03761e-07
5.20078e-07
5.69735e-07
1.74797e-07
1.73458e-07
1.97309e-07
1.97559e-07
5.169e-07
5.69793e-07
1.73632e-07
1.73336e-07
1.96541e-07
1.98378e-07
1.76362e-07
1.96149e-07
1.98897e-07
5.16329e-07
5.70023e-07
1.74464e-07
1.96991e-07
1.98026e-07
5.69947e-07
5.84407e-07
6.38044e-07
2.06258e-07
2.06746e-07
2.34351e-07
2.34524e-07
5.85566e-07
6.38255e-07
2.05356e-07
2.07566e-07
2.32691e-07
2.33727e-07
2.08158e-07
2.33298e-07
2.30524e-07
5.8573e-07
6.36938e-07
2.07131e-07
2.32826e-07
2.27888e-07
6.22332e-07
6.52716e-07
6.94594e-07
2.43539e-07
2.43401e-07
2.72272e-07
2.6964e-07
6.51881e-07
6.90009e-07
2.41811e-07
2.42233e-07
2.70359e-07
2.69431e-07
2.37231e-07
2.66707e-07
2.71375e-07
6.50094e-07
6.89348e-07
2.34572e-07
2.66818e-07
2.71993e-07
6.98782e-07
7.07043e-07
7.44582e-07
2.82075e-07
2.79325e-07
3.10645e-07
3.1157e-07
7.0277e-07
7.45247e-07
2.80016e-07
2.79414e-07
3.0951e-07
3.12221e-07
2.86974e-07
3.10667e-07
3.39019e-07
7.02788e-07
7.46062e-07
2.88729e-07
3.11931e-07
3.432e-07
7.88287e-07
7.56933e-07
7.91301e-07
3.21052e-07
3.22793e-07
3.53935e-07
3.53853e-07
7.58149e-07
7.89645e-07
3.20125e-07
3.23488e-07
3.53173e-07
3.5443e-07
3.51934e-07
3.52872e-07
3.61982e-07
7.58732e-07
7.90754e-07
3.54686e-07
3.52493e-07
3.61255e-07
7.82186e-07
8.02162e-07
8.30488e-07
3.64801e-07
3.63394e-07
3.97651e-07
3.95619e-07
7.99478e-07
8.29087e-07
3.64048e-07
3.64097e-07
3.96761e-07
3.97e-07
3.62889e-07
3.923e-07
3.86658e-07
8.00652e-07
8.27769e-07
3.61919e-07
3.93334e-07
3.87621e-07
8.1015e-07
8.40644e-07
8.69305e-07
4.08504e-07
4.08465e-07
4.4431e-07
4.47209e-07
8.40286e-07
8.7061e-07
4.07256e-07
4.09064e-07
4.42707e-07
4.44223e-07
4.00888e-07
4.46572e-07
4.4672e-07
8.38559e-07
8.7031e-07
4.0182e-07
4.43724e-07
4.46844e-07
8.70273e-07
8.79376e-07
9.0564e-07
4.57255e-07
4.58329e-07
4.93122e-07
4.88493e-07
8.79828e-07
9.01689e-07
4.56055e-07
4.56676e-07
4.92819e-07
4.94946e-07
4.62549e-07
4.88071e-07
4.98393e-07
8.80483e-07
9.05069e-07
4.62273e-07
4.92222e-07
5.02355e-07
9.06212e-07
9.1437e-07
9.37585e-07
5.0427e-07
5.0017e-07
5.4078e-07
5.4296e-07
9.10859e-07
9.39266e-07
5.044e-07
5.05969e-07
5.40328e-07
5.40545e-07
5.09657e-07
5.41458e-07
5.494e-07
9.13413e-07
9.3574e-07
5.16605e-07
5.39753e-07
5.63855e-07
9.47094e-07
9.46667e-07
9.70921e-07
5.54178e-07
5.57338e-07
5.92553e-07
5.92145e-07
9.48975e-07
9.69419e-07
5.52825e-07
5.53823e-07
5.91262e-07
5.93236e-07
5.63484e-07
5.91004e-07
5.95123e-07
9.45067e-07
9.71562e-07
5.78909e-07
5.935e-07
6.04926e-07
9.7218e-07
9.78772e-07
9.98302e-07
6.03354e-07
6.01883e-07
6.36585e-07
6.3378e-07
9.76283e-07
9.95269e-07
6.02663e-07
6.04842e-07
6.35441e-07
6.3449e-07
6.03345e-07
6.31602e-07
6.31335e-07
9.7916e-07
9.94765e-07
6.10503e-07
6.31182e-07
6.31535e-07
9.93152e-07
1.00619e-06
1.02945e-06
6.49309e-07
6.45899e-07
6.87481e-07
6.86084e-07
1.00336e-06
1.02873e-06
6.48065e-07
6.45089e-07
6.87111e-07
6.85405e-07
6.42162e-07
6.85021e-07
6.79976e-07
1.00209e-06
1.02744e-06
6.40988e-07
6.83417e-07
6.77524e-07
1.02444e-06
1.03653e-06
1.05403e-06
6.98055e-07
6.97855e-07
7.28535e-07
7.27908e-07
1.03685e-06
1.05468e-06
6.98148e-07
6.99694e-07
7.27255e-07
7.33213e-07
6.95064e-07
7.28895e-07
7.34752e-07
1.0366e-06
1.0578e-06
6.92983e-07
7.34027e-07
7.41251e-07
1.06108e-06
1.06182e-06
1.08939e-06
7.40571e-07
7.38586e-07
7.80925e-07
7.7698e-07
1.06157e-06
1.08478e-06
7.38122e-07
7.41849e-07
7.77208e-07
7.71985e-07
7.46393e-07
7.76045e-07
7.77472e-07
1.06382e-06
1.08177e-06
7.53077e-07
7.72152e-07
7.78638e-07
1.08529e-06
1.09814e-06
1.11368e-06
7.94614e-07
7.90289e-07
8.21407e-07
8.22004e-07
1.09282e-06
1.11249e-06
7.91353e-07
7.84692e-07
8.23545e-07
8.24953e-07
7.8669e-07
8.16821e-07
8.17083e-07
1.08951e-06
1.11497e-06
7.86523e-07
8.21776e-07
8.16642e-07
1.11084e-06
1.11773e-06
1.12964e-06
8.26638e-07
8.29475e-07
8.47032e-07
8.51079e-07
1.11821e-06
1.13182e-06
8.30164e-07
8.3568e-07
8.50427e-07
8.57405e-07
8.28772e-07
8.53195e-07
8.63841e-07
1.12199e-06
1.13601e-06
8.28207e-07
8.55111e-07
8.61727e-07
1.14082e-06
1.13587e-06
1.15777e-06
8.56795e-07
8.59983e-07
8.9248e-07
8.92958e-07
1.13806e-06
1.16264e-06
8.59061e-07
8.64807e-07
8.9104e-07
8.94169e-07
8.72858e-07
8.96511e-07
8.93466e-07
1.14158e-06
1.16107e-06
8.7008e-07
8.92255e-07
8.89507e-07
1.15971e-06
1.1658e-06
1.19496e-06
9.0559e-07
9.05131e-07
9.42203e-07
9.36605e-07
1.17063e-06
1.18893e-06
9.02955e-07
9.05254e-07
9.37376e-07
9.35563e-07
9.004e-07
9.29826e-07
9.25815e-07
1.16831e-06
1.1899e-06
8.97114e-07
9.34273e-07
9.26479e-07
1.1825e-06
1.20141e-06
1.21237e-06
9.49519e-07
9.44959e-07
9.64029e-07
9.63941e-07
1.19408e-06
1.20854e-06
9.44829e-07
9.42199e-07
9.59909e-07
9.57745e-07
9.35964e-07
9.61278e-07
9.6748e-07
1.19521e-06
1.20555e-06
9.37264e-07
9.57155e-07
9.67856e-07
1.21282e-06
1.21661e-06
1.22955e-06
9.69214e-07
9.69359e-07
9.90112e-07
9.90538e-07
1.21405e-06
1.23014e-06
9.65678e-07
9.6471e-07
9.9001e-07
9.92484e-07
9.76174e-07
9.92081e-07
9.94978e-07
1.21075e-06
1.23054e-06
9.76746e-07
9.92109e-07
9.97796e-07
1.23575e-06
1.23561e-06
1.25728e-06
9.98107e-07
9.99363e-07
1.02156e-06
1.02617e-06
1.23641e-06
1.25746e-06
9.99455e-07
1.00261e-06
1.02644e-06
1.03018e-06
1.00022e-06
1.02568e-06
1.01641e-06
1.23796e-06
1.26158e-06
1.00307e-06
1.02937e-06
1.0152e-06
1.24992e-06
1.26307e-06
1.27253e-06
1.02839e-06
1.03349e-06
1.04355e-06
1.04853e-06
1.2636e-06
1.27558e-06
1.0326e-06
1.03567e-06
1.04409e-06
1.047e-06
1.02243e-06
1.04595e-06
1.04446e-06
1.26679e-06
1.27482e-06
1.01903e-06
1.0445e-06
1.03666e-06
1.265e-06
1.27657e-06
1.28955e-06
1.04906e-06
1.05337e-06
1.06971e-06
1.07157e-06
1.27966e-06
1.29261e-06
1.04863e-06
1.0515e-06
1.06739e-06
1.069e-06
1.05271e-06
1.07151e-06
1.07691e-06
1.27857e-06
1.29002e-06
1.04517e-06
1.06855e-06
1.07514e-06
1.29604e-06
1.29534e-06
1.31115e-06
1.07701e-06
1.07823e-06
1.09504e-06
1.09428e-06
1.29846e-06
1.31206e-06
1.07401e-06
1.07559e-06
1.09221e-06
1.0951e-06
1.08377e-06
1.09374e-06
1.09642e-06
1.29569e-06
1.31436e-06
1.08503e-06
1.09907e-06
1.10417e-06
1.31997e-06
1.31537e-06
1.32537e-06
1.09885e-06
1.09794e-06
1.11104e-06
1.10979e-06
1.3155e-06
1.32215e-06
1.09686e-06
1.09977e-06
1.11167e-06
1.11066e-06
1.09915e-06
1.11146e-06
1.11024e-06
1.31918e-06
1.3258e-06
1.10715e-06
1.11288e-06
1.11363e-06
1.32774e-06
1.33035e-06
1.3469e-06
1.11633e-06
1.1146e-06
1.13405e-06
1.13147e-06
1.32666e-06
1.34382e-06
1.11784e-06
1.11545e-06
1.13808e-06
1.13563e-06
1.1156e-06
1.13536e-06
1.13398e-06
1.32928e-06
1.34196e-06
1.11672e-06
1.13158e-06
1.12986e-06
1.34167e-06
1.35272e-06
1.36274e-06
1.13997e-06
1.13765e-06
1.15316e-06
1.15409e-06
1.34965e-06
1.36011e-06
1.14437e-06
1.14328e-06
1.15613e-06
1.16201e-06
1.14026e-06
1.15281e-06
1.15441e-06
1.34818e-06
1.36668e-06
1.13473e-06
1.15596e-06
1.15003e-06
1.35986e-06
1.36575e-06
1.36868e-06
1.15648e-06
1.15922e-06
1.16546e-06
1.17052e-06
1.36388e-06
1.37362e-06
1.1586e-06
1.16439e-06
1.16333e-06
1.16428e-06
1.15761e-06
1.16702e-06
1.16728e-06
1.37071e-06
1.36956e-06
1.15496e-06
1.16633e-06
1.16753e-06
1.37137e-06
1.37123e-06
1.38027e-06
1.16854e-06
1.17366e-06
1.18292e-06
1.18742e-06
1.37783e-06
1.38869e-06
1.16471e-06
1.16401e-06
1.17596e-06
1.17321e-06
1.17038e-06
1.1838e-06
1.18202e-06
1.37095e-06
1.37648e-06
1.17131e-06
1.17889e-06
1.18312e-06
1.38554e-06
1.38635e-06
1.4098e-06
1.18946e-06
1.19287e-06
1.20933e-06
1.20724e-06
1.39377e-06
1.40964e-06
1.18269e-06
1.18273e-06
1.20768e-06
1.21306e-06
1.18699e-06
1.20773e-06
1.20447e-06
1.38287e-06
1.41313e-06
1.18761e-06
1.20939e-06
1.20448e-06
1.40465e-06
1.41634e-06
1.42014e-06
1.21375e-06
1.20899e-06
1.2159e-06
1.20255e-06
1.41382e-06
1.40375e-06
1.216e-06
1.2224e-06
1.22646e-06
1.23238e-06
1.21064e-06
1.21264e-06
1.22168e-06
1.42179e-06
1.4306e-06
1.21063e-06
1.22476e-06
1.22191e-06
1.42045e-06
1.42085e-06
1.40872e-06
1.21343e-06
1.20062e-06
1.21106e-06
1.20857e-06
1.40407e-06
1.4012e-06
1.22508e-06
1.22764e-06
1.21613e-06
1.20971e-06
1.22174e-06
1.21179e-06
1.21851e-06
1.43092e-06
1.40351e-06
1.22208e-06
1.21275e-06
1.2184e-06
1.4134e-06
1.4109e-06
1.42845e-06
1.21393e-06
1.22045e-06
1.23835e-06
1.25372e-06
1.40848e-06
1.44792e-06
1.2156e-06
1.20726e-06
1.2299e-06
1.22133e-06
1.21891e-06
1.24399e-06
1.23566e-06
1.4037e-06
1.41272e-06
1.21848e-06
1.22642e-06
1.23368e-06
1.42958e-06
1.43616e-06
1.46107e-06
1.2465e-06
1.26357e-06
1.26668e-06
1.27504e-06
1.45866e-06
1.47716e-06
1.23793e-06
1.23334e-06
1.26075e-06
1.26664e-06
1.24307e-06
1.26756e-06
1.26408e-06
1.42173e-06
1.46345e-06
1.24143e-06
1.26581e-06
1.26365e-06
1.46215e-06
1.46653e-06
1.46906e-06
1.26965e-06
1.27345e-06
1.27069e-06
1.25937e-06
1.47845e-06
1.45562e-06
1.26701e-06
1.27591e-06
1.27381e-06
1.28408e-06
1.26895e-06
1.26148e-06
1.27069e-06
1.47333e-06
1.48445e-06
1.26922e-06
1.28104e-06
1.27222e-06
1.46718e-06
1.47007e-06
1.45432e-06
1.26841e-06
1.2549e-06
1.25893e-06
1.246e-06
1.45501e-06
1.4345e-06
1.27331e-06
1.28051e-06
1.26457e-06
1.2611e-06
1.26736e-06
1.25279e-06
1.25918e-06
1.48509e-06
1.45641e-06
1.26902e-06
1.26144e-06
1.25988e-06
1.45074e-06
1.45469e-06
1.44986e-06
1.25634e-06
1.24609e-06
1.25716e-06
1.26305e-06
1.43616e-06
1.4533e-06
1.26173e-06
1.25577e-06
1.25839e-06
1.24958e-06
1.25809e-06
1.26742e-06
1.26589e-06
1.45549e-06
1.44066e-06
1.25838e-06
1.25409e-06
1.26377e-06
1.4568e-06
1.45493e-06
1.48369e-06
1.26432e-06
1.27094e-06
1.28998e-06
1.29528e-06
1.46142e-06
1.49366e-06
1.26104e-06
1.25336e-06
1.28529e-06
1.28285e-06
1.27218e-06
1.29399e-06
1.29028e-06
1.44529e-06
1.47621e-06
1.27005e-06
1.28652e-06
1.28858e-06
1.48565e-06
1.49291e-06
1.51272e-06
1.29832e-06
1.30169e-06
1.31143e-06
1.30755e-06
1.50104e-06
1.50903e-06
1.29336e-06
1.29212e-06
1.31074e-06
1.31227e-06
1.29575e-06
1.30529e-06
1.30452e-06
1.48629e-06
1.51162e-06
1.29458e-06
1.31028e-06
1.3056e-06
1.50295e-06
1.5146e-06
1.49801e-06
1.31113e-06
1.30618e-06
1.29985e-06
1.29616e-06
1.51009e-06
1.49326e-06
1.31164e-06
1.31371e-06
1.30334e-06
1.30793e-06
1.30574e-06
1.29781e-06
1.30693e-06
1.51466e-06
1.50534e-06
1.30696e-06
1.30402e-06
1.30749e-06
1.50465e-06
1.4981e-06
1.48591e-06
1.29646e-06
1.29352e-06
1.29209e-06
1.2908e-06
1.49353e-06
1.48505e-06
1.30005e-06
1.30532e-06
1.29505e-06
1.30107e-06
1.30657e-06
1.29466e-06
1.30176e-06
1.50595e-06
1.49619e-06
1.30648e-06
1.30037e-06
1.30136e-06
1.49724e-06
1.48838e-06
1.4974e-06
1.29336e-06
1.29286e-06
1.30378e-06
1.30279e-06
1.48792e-06
1.49714e-06
1.29544e-06
1.30111e-06
1.30358e-06
1.30549e-06
1.29999e-06
1.30326e-06
1.29712e-06
1.49781e-06
1.49998e-06
1.29946e-06
1.30533e-06
1.2961e-06
1.4897e-06
1.50183e-06
1.51073e-06
1.30683e-06
1.3058e-06
1.31408e-06
1.31394e-06
1.50158e-06
1.51132e-06
1.30611e-06
1.30658e-06
1.31209e-06
1.3086e-06
1.29742e-06
1.31097e-06
1.30805e-06
1.50233e-06
1.50394e-06
1.2962e-06
1.30654e-06
1.30608e-06
1.50121e-06
1.51376e-06
1.51822e-06
1.31552e-06
1.31596e-06
1.31955e-06
1.32181e-06
1.51493e-06
1.52297e-06
1.31323e-06
1.30923e-06
1.31673e-06
1.31416e-06
1.31251e-06
1.32133e-06
1.32437e-06
1.50641e-06
1.51357e-06
1.31086e-06
1.31675e-06
1.3242e-06
1.52549e-06
1.52119e-06
1.5252e-06
1.321e-06
1.32325e-06
1.32374e-06
1.32374e-06
1.52632e-06
1.52477e-06
1.31842e-06
1.31696e-06
1.32388e-06
1.32565e-06
1.32612e-06
1.32427e-06
1.32307e-06
1.5179e-06
1.52701e-06
1.32675e-06
1.32692e-06
1.32545e-06
1.52565e-06
1.52733e-06
1.52327e-06
1.32376e-06
1.32199e-06
1.32068e-06
1.31685e-06
1.52573e-06
1.5154e-06
1.32502e-06
1.32767e-06
1.32459e-06
1.32904e-06
1.32055e-06
1.31599e-06
1.3163e-06
1.52982e-06
1.52842e-06
1.32267e-06
1.3237e-06
1.31704e-06
1.51566e-06
1.52441e-06
1.5192e-06
1.31966e-06
1.31597e-06
1.31866e-06
1.31874e-06
1.51651e-06
1.51849e-06
1.32278e-06
1.32761e-06
1.31805e-06
1.31759e-06
1.31631e-06
1.31954e-06
1.32268e-06
1.52963e-06
1.52006e-06
1.31644e-06
1.31739e-06
1.31968e-06
1.52123e-06
1.52066e-06
1.51996e-06
1.31921e-06
1.32117e-06
1.32064e-06
1.32564e-06
1.52215e-06
1.52984e-06
1.3169e-06
1.3142e-06
1.3152e-06
1.3065e-06
1.32447e-06
1.327e-06
1.32588e-06
1.52078e-06
1.50768e-06
1.32108e-06
1.3121e-06
1.32243e-06
1.52702e-06
1.52172e-06
1.51962e-06
1.32073e-06
1.32579e-06
1.31828e-06
1.31856e-06
1.53198e-06
1.52221e-06
1.31511e-06
1.30572e-06
1.31587e-06
1.31139e-06
1.32371e-06
1.31762e-06
1.31382e-06
1.50865e-06
1.51011e-06
1.32149e-06
1.31222e-06
1.31471e-06
1.51619e-06
1.52164e-06
1.52555e-06
1.31748e-06
1.31605e-06
1.31807e-06
1.31383e-06
1.52292e-06
1.51745e-06
1.31703e-06
1.31609e-06
1.32319e-06
1.33133e-06
1.31211e-06
1.31256e-06
1.31591e-06
1.51494e-06
1.53658e-06
1.31375e-06
1.32743e-06
1.31908e-06
1.52133e-06
1.52933e-06
1.53824e-06
1.32053e-06
1.31604e-06
1.32805e-06
1.32709e-06
1.52106e-06
1.5338e-06
1.32599e-06
1.33619e-06
1.33243e-06
1.34204e-06
1.32153e-06
1.32772e-06
1.33417e-06
1.54369e-06
1.55533e-06
1.32408e-06
1.33858e-06
1.33502e-06
1.54573e-06
1.54137e-06
1.53463e-06
1.32981e-06
1.32949e-06
1.32777e-06
1.32822e-06
1.53856e-06
1.53571e-06
1.33302e-06
1.34088e-06
1.32556e-06
1.32114e-06
1.336e-06
1.32811e-06
1.32617e-06
1.55659e-06
1.53095e-06
1.33615e-06
1.32076e-06
1.32396e-06
1.535e-06
1.53486e-06
1.51037e-06
1.32228e-06
1.32256e-06
1.30594e-06
1.30687e-06
1.53598e-06
1.51306e-06
1.31951e-06
1.31363e-06
1.30154e-06
1.2943e-06
1.31888e-06
1.30582e-06
1.29938e-06
1.52966e-06
1.49765e-06
1.31687e-06
1.29694e-06
1.29827e-06
1.5026e-06
1.51047e-06
1.50649e-06
1.30182e-06
1.30314e-06
1.2993e-06
1.3012e-06
1.5133e-06
1.51022e-06
1.29729e-06
1.29153e-06
1.29664e-06
1.29701e-06
1.29519e-06
1.29998e-06
1.29533e-06
1.49811e-06
1.50351e-06
1.29476e-06
1.29972e-06
1.29682e-06
1.50269e-06
1.51109e-06
1.52673e-06
1.30286e-06
1.30436e-06
1.3138e-06
1.31314e-06
1.51445e-06
1.5274e-06
1.3015e-06
1.30223e-06
1.31394e-06
1.31515e-06
1.30096e-06
1.31343e-06
1.31719e-06
1.50957e-06
1.52928e-06
1.3022e-06
1.31562e-06
1.31722e-06
1.53107e-06
1.53164e-06
1.53222e-06
1.31628e-06
1.31515e-06
1.31598e-06
1.31442e-06
1.53156e-06
1.5305e-06
1.31682e-06
1.31783e-06
1.31658e-06
1.31641e-06
1.32185e-06
1.3164e-06
1.32588e-06
1.53395e-06
1.5331e-06
1.32149e-06
1.31668e-06
1.32479e-06
1.54479e-06
1.53326e-06
1.52153e-06
1.3131e-06
1.31203e-06
1.30401e-06
1.30398e-06
1.53153e-06
1.52034e-06
1.3136e-06
1.31377e-06
1.30426e-06
1.30562e-06
1.32335e-06
1.30397e-06
1.30458e-06
1.53417e-06
1.52377e-06
1.32256e-06
1.30619e-06
1.30589e-06
1.52511e-06
1.52237e-06
1.51132e-06
1.30178e-06
1.30179e-06
1.2934e-06
1.29318e-06
1.52122e-06
1.51021e-06
1.30194e-06
1.3032e-06
1.29325e-06
1.29323e-06
1.29812e-06
1.29067e-06
1.27981e-06
1.52467e-06
1.51215e-06
1.2998e-06
1.29203e-06
1.28127e-06
1.49473e-06
1.51221e-06
1.49916e-06
1.29085e-06
1.29062e-06
1.28114e-06
1.28176e-06
1.51113e-06
1.49967e-06
1.29058e-06
1.28987e-06
1.28048e-06
1.27869e-06
1.27623e-06
1.28072e-06
1.27328e-06
1.51276e-06
1.49555e-06
1.2771e-06
1.27686e-06
1.27183e-06
1.48536e-06
1.4999e-06
1.49383e-06
1.27875e-06
1.27987e-06
1.27554e-06
1.27787e-06
1.50066e-06
1.49814e-06
1.27802e-06
1.27652e-06
1.27482e-06
1.27529e-06
1.27576e-06
1.28025e-06
1.28712e-06
1.49626e-06
1.49372e-06
1.2727e-06
1.27558e-06
1.28379e-06
1.50503e-06
1.49663e-06
1.50409e-06
1.27644e-06
1.27901e-06
1.2819e-06
1.28187e-06
1.50101e-06
1.50626e-06
1.27582e-06
1.27774e-06
1.28162e-06
1.28296e-06
1.29082e-06
1.28404e-06
1.29415e-06
1.49734e-06
1.50705e-06
1.28789e-06
1.28462e-06
1.29355e-06
1.52278e-06
1.50796e-06
1.50658e-06
1.28364e-06
1.2825e-06
1.28087e-06
1.2768e-06
1.50878e-06
1.5015e-06
1.2834e-06
1.28391e-06
1.28027e-06
1.27608e-06
1.29198e-06
1.27397e-06
1.2707e-06
1.51047e-06
1.50257e-06
1.29287e-06
1.27557e-06
1.27298e-06
1.50078e-06
1.50731e-06
1.4691e-06
1.27781e-06
1.27428e-06
1.23988e-06
1.2398e-06
1.50223e-06
1.46692e-06
1.27705e-06
1.27284e-06
1.23907e-06
1.23801e-06
1.26674e-06
1.23732e-06
1.22944e-06
1.50304e-06
1.46531e-06
1.26886e-06
1.23733e-06
1.23046e-06
1.45318e-06
1.44444e-06
1.19856e-06
1.19906e-06
1.44339e-06
1.19798e-06
1.19821e-06
7.57655e-07
7.57198e-07
7.5177e-07
1.19105e-06
1.44225e-06
1.19157e-06
5.7471e-11
2.42636e-09
1.41844e-10
1.83328e-10
5.52153e-09
3.64349e-09
2.84681e-09
1.01497e-09
5.52107e-09
4.49305e-09
9.98506e-10
1.13124e-08
5.34777e-09
2.94864e-09
7.76215e-09
7.8236e-09
1.7118e-07
6.51887e-09
2.7108e-07
1.53671e-06
3.05667e-06
8.80929e-09
1.5878e-07
7.34489e-09
2.50933e-07
1.40847e-09
1.57721e-09
1.58501e-09
1.38441e-09
1.38822e-09
1.56048e-09
1.55158e-09
4.76881e-09
7.31655e-08
2.82031e-09
3.47506e-09
5.08751e-09
5.24759e-08
2.79495e-09
1.57823e-06
3.10391e-06
4.77057e-09
3.00672e-09
8.63488e-08
4.76767e-09
5.04043e-09
2.97026e-09
6.4552e-08
2.12454e-07
2.19367e-07
4.94055e-09
1.81172e-07
1.88691e-07
1.66754e-08
4.84413e-07
1.23711e-08
7.00736e-07
6.9069e-06
9.89121e-06
1.79443e-08
4.49716e-07
1.33247e-08
6.53907e-07
1.37042e-09
1.54196e-09
1.52182e-09
1.31641e-09