/*--------------------------------*- C++ -*----------------------------------*\
| =========                 |                                                 |
| \\      /  F ield         | OpenFOAM: The Open Source CFD Toolbox           |
|  \\    /   O peration     | Version:  v2012                                 |
|   \\  /    A nd           | Website:  www.openfoam.com                      |
|    \\/     M anipulation  |                                                 |
\*---------------------------------------------------------------------------*/
FoamFile
{
    version     2.0;
    format      ascii;
    class       volScalarField;
    location    "1500";
    object      nut;
}
// * * * * * * * * * * * * * * * * * * * * * * * * * * * * * * * * * * * * * //

dimensions      [0 2 -1 0 0 0 0];


internalField   nonuniform List<scalar> 
171728
(
1.69308e-06
1.69621e-06
2.23207e-06
2.22519e-06
1.71104e-06
1.64402e-06
2.21403e-06
2.25567e-06
1.70311e-06
1.60403e-06
2.19152e-06
2.27522e-06
1.70032e-06
1.57964e-06
2.16399e-06
2.32949e-06
1.70158e-06
1.56339e-06
2.1475e-06
2.4396e-06
1.70481e-06
1.56014e-06
2.13052e-06
2.53534e-06
1.70501e-06
1.56785e-06
2.10057e-06
2.58015e-06
1.70565e-06
1.58849e-06
2.06046e-06
2.48137e-06
1.7011e-06
1.6103e-06
2.00694e-06
2.24701e-06
1.70452e-06
1.6272e-06
1.92631e-06
2.14204e-06
1.70693e-06
1.61996e-06
1.84827e-06
2.02813e-06
1.71722e-06
1.5986e-06
1.76481e-06
1.89863e-06
1.71688e-06
1.55306e-06
1.66645e-06
1.73841e-06
1.67521e-06
1.48736e-06
1.54952e-06
1.6134e-06
1.57695e-06
1.39263e-06
1.43136e-06
1.50356e-06
1.54449e-06
1.26329e-06
1.31317e-06
1.37059e-06
1.51169e-06
1.12846e-06
1.22794e-06
1.2339e-06
1.48982e-06
1.03129e-06
1.16026e-06
1.16926e-06
1.51258e-06
9.82791e-07
1.1949e-06
1.15616e-06
1.41964e-06
1.10543e-06
1.37794e-06
1.28746e-06
1.34434e-06
1.31535e-06
1.4939e-06
1.63111e-06
1.33279e-06
1.50448e-06
1.69256e-06
2.25307e-06
1.29526e-06
2.05888e-06
2.29748e-06
3.54614e-06
1.22208e-06
2.82562e-06
2.85507e-06
5.50751e-06
1.14661e-06
3.92884e-06
3.99505e-06
7.97352e-06
1.06106e-06
5.0551e-06
5.20429e-06
1.29836e-05
9.91775e-07
7.2028e-06
6.94343e-06
1.67281e-05
9.47296e-07
8.78212e-06
9.20226e-06
2.4748e-05
8.81306e-07
1.13764e-05
1.13294e-05
2.94814e-05
1.0913e-06
1.51284e-05
1.49484e-05
3.97958e-05
9.91057e-07
1.73301e-05
1.74038e-05
4.30117e-05
1.48404e-06
2.28877e-05
2.28089e-05
5.57628e-05
1.4383e-06
2.46845e-05
2.49314e-05
5.55509e-05
2.01034e-06
3.18857e-05
3.20875e-05
7.07507e-05
2.67573e-06
3.60856e-05
3.52794e-05
5.76814e-05
3.27285e-06
3.8772e-05
4.02147e-05
8.42871e-05
4.01341e-06
5.13755e-05
4.95005e-05
9.50699e-05
6.19742e-06
4.88441e-05
5.13626e-05
7.48792e-05
5.97674e-06
6.01129e-05
5.62754e-05
8.70751e-05
9.4868e-06
6.60569e-05
6.75008e-05
9.13137e-05
1.03619e-05
6.57859e-05
6.73487e-05
9.55467e-05
1.45774e-05
8.32226e-05
7.99449e-05
0.000104801
1.71422e-05
8.07818e-05
8.48607e-05
0.000103684
1.84587e-05
8.93887e-05
8.27185e-05
0.00010271
2.84729e-05
9.41866e-05
9.93716e-05
0.000111694
2.48157e-05
9.97504e-05
0.000100136
0.000117158
3.4655e-05
0.000108823
0.000103581
0.000116579
4.73349e-05
0.000108829
0.000116862
0.000122638
4.23442e-05
0.000117043
0.000112734
0.000127718
3.96991e-05
0.000120806
0.000122143
0.000126087
6.98438e-05
0.000127567
0.000129986
0.000130611
7.21009e-05
0.0001273
0.000124828
0.000137866
6.36881e-05
0.000136193
0.000136671
0.000140695
8.63727e-05
0.000141332
0.000144076
0.000138537
8.93229e-05
0.000140615
0.000140077
0.000140342
8.40658e-05
0.000151152
0.00014796
0.000151447
0.00010535
0.000150559
0.000156401
0.00015268
0.000103199
0.00015424
0.000153171
0.000150409
0.000111952
0.000160643
0.000159019
0.000156794
0.000129098
0.00016492
0.000167894
0.000157798
0.000126252
0.000164796
0.000163725
0.000160536
0.000120003
0.000168995
0.000163752
0.000159705
0.000144837
0.000182399
0.000182844
0.00017088
0.000154818
0.000174734
0.000185533
0.000171139
0.000146473
0.000168291
0.000171268
0.000162917
0.000145067
0.000188851
0.000170923
0.000169737
0.000165388
0.000198711
0.00019699
0.000183719
0.000182505
0.000192192
0.000204791
0.000182295
0.000180109
0.000181705
0.000188365
0.000170747
0.000165331
0.000186448
0.000178814
0.000173871
0.000172798
0.000204118
0.000199594
0.000184988
0.000203278
0.00020956
0.000210015
0.00018782
0.000206596
0.000201907
0.000204455
0.000189516
0.000195908
0.000198869
0.000202323
0.000187294
0.000193317
0.000203638
0.00020504
0.00017997
0.000203828
0.000207611
0.000203279
0.000187467
0.000214946
0.000216363
0.00021295
0.000197755
0.000220654
0.000216903
0.000217332
0.000194322
0.00022245
0.000210313
0.000217892
0.000189144
0.000222236
0.000215235
0.000216599
0.000196474
0.00022347
0.000223147
0.000212769
0.000199183
0.000223317
0.000216331
0.000209543
0.000189043
0.00022784
0.000213121
0.00022442
0.000194095
0.000241424
0.000228705
0.000236219
0.000209646
0.000248332
0.000231003
0.000225863
0.000203726
0.000234426
0.000217251
0.000211741
0.000189255
0.000226931
0.000216144
0.000216654
0.000190311
0.00024252
0.000228791
0.000230015
0.000203665
0.000252498
0.000232159
0.000232028
0.000211067
0.000251805
0.00022913
0.000231882
0.000206009
0.00024959
0.000225199
0.000227036
0.000194007
0.000242926
0.000220797
0.000218962
0.000188397
0.000239718
0.000225505
0.0002216
0.000202169
0.000251411
0.000232665
0.00023384
0.000212616
0.000264801
0.000234245
0.000235435
0.00020795
2.33169e-06
2.54074e-06
2.19745e-06
2.24633e-06
2.14228e-06
2.12024e-06
1.68087e-06
1.50876e-06
1.48047e-06
1.67968e-06
2.02103e-06
2.19878e-06
2.25121e-06
2.51209e-06
2.53982e-06
2.23767e-06
2.32809e-06
2.28107e-06
1.97445e-06
1.97186e-06
1.96361e-06
2.01394e-06
2.24127e-06
2.20276e-06
1.84133e-06
1.80462e-06
1.82373e-06
1.78698e-06
2.02001e-06
1.65608e-06
1.9898e-06
2.24901e-06
2.22305e-06
3.76691e-06
2.2182e-06
4.27765e-06
2.27156e-06
2.27909e-06
2.22853e-06
1.96711e-06
2.02122e-06
1.97606e-06
2.02686e-06
2.20019e-06
2.15958e-06
1.82113e-06
1.78338e-06
1.80826e-06
1.76508e-06
1.97874e-06
1.61252e-06
1.94659e-06
2.22212e-06
2.19534e-06
4.36338e-06
2.19698e-06
4.05968e-06
2.29124e-06
2.2261e-06
2.17779e-06
1.98025e-06
2.01921e-06
1.98554e-06
1.98802e-06
2.15674e-06
2.11609e-06
1.80142e-06
1.75798e-06
1.77543e-06
1.72609e-06
1.93532e-06
1.58467e-06
1.90712e-06
2.194e-06
2.16483e-06
3.86553e-06
2.17106e-06
3.69231e-06
2.34518e-06
2.17444e-06
2.13483e-06
1.98849e-06
1.97956e-06
1.99018e-06
1.95316e-06
2.11353e-06
2.0761e-06
1.76574e-06
1.71389e-06
1.73652e-06
1.66834e-06
1.90076e-06
1.56594e-06
1.8981e-06
2.16336e-06
2.13308e-06
3.77826e-06
2.15122e-06
4.32994e-06
2.44692e-06
2.13154e-06
2.10574e-06
1.99634e-06
1.93727e-06
2.02692e-06
1.86077e-06
2.07378e-06
2.03898e-06
1.72647e-06
1.65536e-06
1.69747e-06
1.63324e-06
1.90046e-06
1.5592e-06
1.88694e-06
2.13154e-06
2.1045e-06
4.5446e-06
2.1363e-06
5.09591e-06
2.5527e-06
2.10329e-06
2.09005e-06
2.04221e-06
1.82783e-06
2.09582e-06
1.72682e-06
2.03653e-06
2.00247e-06
1.68792e-06
1.63154e-06
1.65894e-06
1.62939e-06
1.87451e-06
1.56506e-06
1.82507e-06
2.10333e-06
2.08626e-06
5.24026e-06
2.10977e-06
5.53984e-06
2.60605e-06
2.08753e-06
2.08873e-06
2.11488e-06
1.69484e-06
2.19328e-06
1.60786e-06
2.00067e-06
1.96756e-06
1.64832e-06
1.62163e-06
1.61103e-06
1.57062e-06
1.80551e-06
1.58148e-06
1.75249e-06
2.08471e-06
2.05723e-06
5.48955e-06
2.07081e-06
4.8358e-06
2.5303e-06
2.0875e-06
2.11178e-06
2.22721e-06
1.5802e-06
2.3667e-06
1.49276e-06
1.96532e-06
1.92905e-06
1.59521e-06
1.5488e-06
1.5433e-06
1.47924e-06
1.73669e-06
1.60427e-06
1.7051e-06
2.05375e-06
2.01208e-06
4.49422e-06
2.02316e-06
3.49609e-06
2.26925e-06
2.11038e-06
2.13258e-06
2.41806e-06
1.46423e-06
2.61208e-06
1.3837e-06
1.92536e-06
1.86151e-06
1.52505e-06
1.45833e-06
1.46374e-06
1.41398e-06
1.70346e-06
1.62472e-06
1.71235e-06
2.00741e-06
1.95592e-06
3.23155e-06
1.94889e-06
2.78275e-06
2.15271e-06
2.12891e-06
2.14633e-06
2.68784e-06
1.3566e-06
2.90167e-06
1.27515e-06
1.85614e-06
1.79001e-06
1.4447e-06
1.39794e-06
1.38389e-06
1.31937e-06
1.71496e-06
1.6222e-06
1.71904e-06
1.9489e-06
1.87021e-06
2.73342e-06
1.86661e-06
2.53814e-06
2.04485e-06
2.14104e-06
2.12881e-06
2.96859e-06
1.24699e-06
3.18044e-06
1.15752e-06
1.78218e-06
1.67806e-06
1.36472e-06
1.28525e-06
1.30414e-06
1.16906e-06
1.72474e-06
1.60544e-06
1.72472e-06
1.85996e-06
1.74514e-06
2.41515e-06
1.78752e-06
1.96036e-06
1.9157e-06
2.12056e-06
2.09145e-06
3.2486e-06
1.12617e-06
3.39956e-06
1.03637e-06
1.66468e-06
1.54976e-06
1.28484e-06
1.12819e-06
1.22642e-06
1.01403e-06
1.72183e-06
1.56305e-06
1.71301e-06
1.73103e-06
1.59608e-06
1.80344e-06
1.69186e-06
1.43198e-06
1.75677e-06
2.07583e-06
1.91206e-06
3.42394e-06
1.00609e-06
3.20404e-06
9.43992e-07
1.53613e-06
1.45318e-06
1.20795e-06
9.8125e-07
1.14365e-06
8.90508e-07
1.71387e-06
1.50192e-06
1.71242e-06
1.57915e-06
1.43089e-06
1.34846e-06
1.58058e-06
1.18001e-06
1.63124e-06
1.87772e-06
1.62505e-06
3.00151e-06
9.28629e-07
2.41664e-06
8.91916e-07
1.43643e-06
1.34314e-06
1.12243e-06
8.57074e-07
1.0535e-06
7.59125e-07
1.70233e-06
1.41488e-06
1.62974e-06
1.411e-06
1.26124e-06
1.14862e-06
1.46265e-06
1.09018e-06
1.52635e-06
1.58998e-06
1.38896e-06
2.22932e-06
8.8275e-07
1.7188e-06
8.41675e-07
1.32224e-06
1.23863e-06
1.03048e-06
7.37527e-07
9.67645e-07
6.88223e-07
1.57976e-06
1.29653e-06
1.42187e-06
1.23831e-06
1.14081e-06
1.07719e-06
1.3398e-06
1.04358e-06
1.3972e-06
1.35376e-06
1.21181e-06
1.5672e-06
8.3649e-07
1.18036e-06
8.99862e-07
1.21621e-06
1.16834e-06
9.47314e-07
6.83152e-07
8.9101e-07
7.38063e-07
1.37302e-06
1.15875e-06
1.19853e-06
1.12362e-06
1.10363e-06
1.03332e-06
1.24552e-06
1.00043e-06
1.26473e-06
1.17891e-06
1.10509e-06
1.11467e-06
9.31648e-07
9.94468e-07
1.00387e-06
1.15401e-06
1.15325e-06
8.79498e-07
7.25566e-07
8.61354e-07
7.53046e-07
1.15393e-06
1.05289e-06
1.06975e-06
1.09604e-06
1.12187e-06
9.85931e-07
1.18662e-06
9.69984e-07
1.17512e-06
1.09565e-06
1.10199e-06
9.8249e-07
1.02875e-06
1.005e-06
1.19476e-06
1.14403e-06
1.17962e-06
8.58366e-07
8.93373e-07
8.85268e-07
1.8504e-06
1.0691e-06
1.00745e-06
1.07007e-06
1.13382e-06
1.38994e-06
9.77552e-07
1.22022e-06
9.79049e-07
1.15255e-06
1.11027e-06
1.17873e-06
1.00358e-06
1.26833e-06
1.03801e-06
1.79782e-06
1.1929e-06
1.43831e-06
8.90745e-07
2.27415e-06
9.56487e-07
3.54982e-06
1.07611e-06
1.09965e-06
1.10805e-06
1.49279e-06
1.98711e-06
9.9373e-07
1.30971e-06
1.06188e-06
1.24813e-06
1.22936e-06
1.47781e-06
1.06442e-06
1.94107e-06
1.18289e-06
2.35317e-06
1.54045e-06
1.64779e-06
9.83363e-07
3.89011e-06
1.13245e-06
4.25118e-06
1.1252e-06
1.1705e-06
1.23717e-06
2.16555e-06
2.42002e-06
1.09288e-06
1.35257e-06
1.21651e-06
1.51038e-06
1.56337e-06
2.12094e-06
1.23448e-06
2.61044e-06
1.50082e-06
2.84169e-06
1.85607e-06
2.55253e-06
1.18769e-06
4.56286e-06
1.43772e-06
4.96837e-06
1.30307e-06
1.40523e-06
1.49805e-06
2.52579e-06
3.47559e-06
1.29763e-06
1.76007e-06
1.49408e-06
2.09153e-06
2.29714e-06
3.16286e-06
1.59058e-06
2.9052e-06
1.97014e-06
3.43765e-06
2.51796e-06
4.33315e-06
1.51719e-06
4.58175e-06
1.88294e-06
3.01575e-06
1.60828e-06
2.08336e-06
1.96551e-06
3.25376e-06
2.78192e-06
1.622e-06
2.05131e-06
1.99099e-06
3.31341e-06
3.52355e-06
4.70027e-06
2.14897e-06
3.37031e-06
2.50928e-06
3.02009e-06
4.42417e-06
4.00859e-06
2.07569e-06
2.86805e-06
2.49241e-06
3.83817e-06
2.08557e-06
2.50239e-06
2.6767e-06
3.43087e-06
6.04392e-06
2.10567e-06
2.76954e-06
2.73788e-06
4.94313e-06
4.98887e-06
8.19936e-06
2.79259e-06
3.18698e-06
3.65759e-06
4.01005e-06
4.837e-06
8.13359e-06
2.75233e-06
4.11683e-06
3.63918e-06
4.49467e-06
2.93868e-06
3.51754e-06
3.51465e-06
6.28361e-06
7.25835e-06
2.96242e-06
3.52813e-06
3.56562e-06
7.65895e-06
8.77061e-06
1.11661e-05
3.92192e-06
4.55001e-06
4.77304e-06
5.25928e-06
8.5537e-06
1.26388e-05
3.87285e-06
4.75167e-06
4.70695e-06
5.05845e-06
3.82289e-06
4.81721e-06
4.99692e-06
7.93916e-06
1.21315e-05
3.87017e-06
4.93696e-06
4.95636e-06
1.18841e-05
1.21746e-05
1.67682e-05
5.12112e-06
5.42115e-06
6.87976e-06
6.81623e-06
1.31222e-05
1.64654e-05
5.11194e-06
5.17078e-06
6.64633e-06
6.40183e-06
5.28482e-06
6.70336e-06
6.50094e-06
1.24903e-05
1.56317e-05
5.26455e-06
6.42404e-06
6.47723e-06
1.56522e-05
1.79134e-05
2.22942e-05
7.24899e-06
7.23703e-06
8.24657e-06
8.29883e-06
1.81561e-05
2.2107e-05
7.01776e-06
7.00982e-06
8.42096e-06
8.72623e-06
6.95052e-06
8.28154e-06
9.02444e-06
1.71449e-05
2.33117e-05
6.95637e-06
8.69579e-06
8.87429e-06
2.36372e-05
2.31185e-05
2.91442e-05
9.32084e-06
8.73506e-06
1.06227e-05
1.07432e-05
2.25123e-05
2.85481e-05
9.14178e-06
9.10524e-06
1.06455e-05
1.04824e-05
9.59038e-06
1.05552e-05
1.04436e-05
2.42091e-05
2.83066e-05
9.35656e-06
1.05162e-05
1.03235e-05
2.82587e-05
3.05302e-05
3.63178e-05
1.08761e-05
1.16489e-05
1.48702e-05
1.44599e-05
3.0542e-05
3.81802e-05
1.10733e-05
1.14299e-05
1.43238e-05
1.45888e-05
1.1458e-05
1.45473e-05
1.51586e-05
2.97246e-05
3.7701e-05
1.12899e-05
1.44253e-05
1.46937e-05
3.80332e-05
3.81855e-05
4.46919e-05
1.59933e-05
1.49397e-05
1.61573e-05
1.6489e-05
3.94868e-05
4.28004e-05
1.56356e-05
1.49583e-05
1.62841e-05
1.60807e-05
1.55068e-05
1.61845e-05
1.60691e-05
3.91651e-05
4.21472e-05
1.52583e-05
1.61038e-05
1.57615e-05
4.2189e-05
4.5166e-05
5.0075e-05
1.68934e-05
1.77794e-05
2.31632e-05
2.20561e-05
4.39852e-05
5.17786e-05
1.66553e-05
1.76094e-05
2.22005e-05
2.23591e-05
1.71018e-05
2.18721e-05
2.42375e-05
4.34929e-05
5.20504e-05
1.65528e-05
2.2228e-05
2.31679e-05
5.33759e-05
5.27216e-05
5.76653e-05
2.41565e-05
2.30267e-05
2.42978e-05
2.41317e-05
5.36265e-05
5.59789e-05
2.33476e-05
2.25874e-05
2.43268e-05
2.39605e-05
2.57188e-05
2.42184e-05
2.45633e-05
5.36792e-05
5.56072e-05
2.44001e-05
2.3764e-05
2.32966e-05
5.5488e-05
5.7982e-05
6.18665e-05
2.51965e-05
2.49394e-05
3.00473e-05
2.98223e-05
5.65534e-05
6.26739e-05
2.54851e-05
2.55518e-05
2.97645e-05
3.03244e-05
2.41595e-05
2.94571e-05
3.34106e-05
5.64253e-05
6.35758e-05
2.33534e-05
3.02048e-05
3.49751e-05
6.95344e-05
6.35125e-05
6.93927e-05
3.10163e-05
3.19201e-05
3.46663e-05
3.55811e-05
6.47872e-05
6.96471e-05
3.07263e-05
3.17473e-05
3.48121e-05
3.53072e-05
3.63801e-05
3.61905e-05
3.31136e-05
6.54924e-05
6.86544e-05
3.67458e-05
3.56764e-05
3.11139e-05
5.92089e-05
7.0643e-05
7.31676e-05
3.69013e-05
3.63208e-05
4.06267e-05
3.84655e-05
7.00017e-05
7.1356e-05
3.65191e-05
3.58368e-05
4.00846e-05
3.81398e-05
3.10541e-05
3.68658e-05
3.17961e-05
6.90487e-05
7.16212e-05
2.89284e-05
3.67739e-05
3.25937e-05
7.43275e-05
7.40541e-05
7.80652e-05
4.13772e-05
3.99837e-05
4.51758e-05
4.78001e-05
7.28657e-05
8.00982e-05
4.12295e-05
4.04583e-05
4.47784e-05
4.81129e-05
4.26298e-05
4.91557e-05
6.30659e-05
7.3342e-05
7.99494e-05
4.57156e-05
4.9412e-05
6.52022e-05
9.60705e-05
7.91437e-05
8.305e-05
4.62813e-05
4.98218e-05
5.27539e-05
4.97287e-05
8.10536e-05
8.10307e-05
4.58975e-05
4.84716e-05
5.34071e-05
5.01459e-05
6.35393e-05
4.98458e-05
5.37299e-05
8.07139e-05
8.17368e-05
6.52272e-05
4.9287e-05
5.17597e-05
7.59741e-05
8.39039e-05
8.55388e-05
5.42545e-05
4.9696e-05
5.50602e-05
5.67101e-05
8.13722e-05
8.67601e-05
5.47739e-05
5.30103e-05
5.45624e-05
5.64809e-05
4.99519e-05
5.52323e-05
4.68049e-05
8.24306e-05
8.56429e-05
4.83077e-05
5.52492e-05
4.75049e-05
8.31083e-05
8.63317e-05
9.13693e-05
5.64011e-05
6.0524e-05
6.50304e-05
6.59505e-05
8.87331e-05
9.14685e-05
5.65637e-05
5.62285e-05
6.35264e-05
6.43521e-05
5.2739e-05
6.70419e-05
6.88838e-05
8.65255e-05
9.1611e-05
5.57297e-05
6.5594e-05
6.65373e-05
9.16286e-05
9.24751e-05
9.40891e-05
6.72296e-05
6.50788e-05
6.74255e-05
6.45459e-05
9.13799e-05
9.20427e-05
6.53193e-05
6.71004e-05
6.96649e-05
6.90909e-05
6.91094e-05
6.32041e-05
6.61762e-05
9.28802e-05
9.39599e-05
6.53934e-05
6.64681e-05
6.32061e-05
9.34091e-05
9.45684e-05
9.91997e-05
6.74836e-05
6.69311e-05
7.70855e-05
7.98084e-05
9.35948e-05
0.000101429
6.98152e-05
6.97883e-05
7.52836e-05
7.43602e-05
6.71288e-05
8.02264e-05
8.12122e-05
9.42634e-05
9.89728e-05
6.79526e-05
7.62656e-05
8.68068e-05
0.000104152
0.000100756
0.00010226
8.09702e-05
8.29145e-05
8.22155e-05
8.23292e-05
0.000102259
0.000101753
7.90701e-05
7.74468e-05
8.23552e-05
8.5672e-05
8.49957e-05
8.2224e-05
8.62362e-05
0.000100685
0.000103824
9.01166e-05
8.57232e-05
9.07613e-05
0.000104108
0.000102162
0.000106374
8.09899e-05
8.09929e-05
8.53587e-05
8.46355e-05
0.000101597
0.000105116
8.1435e-05
8.54753e-05
8.5097e-05
8.25851e-05
8.4744e-05
8.40212e-05
8.0731e-05
0.000103707
0.00010281
8.93041e-05
8.14257e-05
8.24255e-05
0.00010217
0.000108507
0.000111458
9.05626e-05
8.92335e-05
9.78668e-05
9.57537e-05
0.000107259
0.000110866
8.92228e-05
8.39222e-05
9.81388e-05
9.64396e-05
8.26105e-05
9.41384e-05
9.21978e-05
0.000103817
0.000112631
8.07141e-05
9.52808e-05
8.93968e-05
0.000110366
0.000110883
0.000109135
9.67428e-05
9.58175e-05
9.25383e-05
9.5265e-05
0.000110934
0.000112197
9.77138e-05
0.000100032
9.36744e-05
0.000100413
9.34141e-05
9.81312e-05
0.000101593
0.000113898
0.000113425
9.44317e-05
0.000101509
0.000106063
0.00011642
0.000110936
0.000122721
9.33027e-05
9.65221e-05
0.000109923
0.000106704
0.000113202
0.000118964
9.35696e-05
9.88821e-05
0.000107034
9.86377e-05
0.000104509
0.00010623
0.000105047
0.000112891
0.000115609
0.000107686
9.9121e-05
0.000105438
0.000116784
0.000123482
0.000122573
0.00011286
0.000110569
0.000114835
0.000113704
0.000120226
0.000121706
0.000110468
0.000103837
0.000115734
0.0001161
0.000103992
0.00010963
0.000107886
0.00011791
0.00012469
0.000104138
0.0001156
0.000107985
0.000120551
0.000122137
0.000120391
0.000113737
0.000112607
0.000109022
0.000109731
0.000121345
0.000121806
0.000115676
0.000117387
0.00011191
0.000114808
0.000111596
0.00011373
0.000119376
0.000124785
0.000122465
0.000113025
0.000114067
0.00011923
0.000127679
0.000120136
0.000127897
0.000107643
0.000111542
0.000117444
0.000118292
0.00012329
0.000129129
0.000110486
0.00011356
0.000116227
0.000117239
0.000120397
0.00012062
0.000119616
0.000122207
0.000128549
0.000118627
0.000117088
0.000117214
0.000126242
0.00013054
0.000136155
0.000123026
0.000120617
0.000132901
0.000129318
0.000129649
0.000132584
0.000121675
0.000122231
0.000131643
0.000130488
0.000118977
0.000125853
0.000121516
0.000130933
0.000134501
0.000118002
0.000130298
0.000121988
0.000129344
0.000136191
0.000133577
0.000133697
0.000131117
0.000131332
0.000129945
0.000133355
0.000133591
0.000132047
0.000130164
0.000128736
0.000126181
0.000123782
0.000127499
0.000131853
0.000134095
0.000130316
0.000123854
0.000126033
0.00013073
0.000136749
0.000133041
0.000136751
0.000130094
0.000128743
0.000129348
0.000128833
0.000133366
0.000136371
0.000127437
0.00012496
0.000129779
0.000131268
0.00013426
0.000132954
0.000136575
0.000130023
0.000138347
0.000133207
0.000131711
0.000139056
0.000140676
0.000139095
0.000144169
0.000133437
0.000133134
0.00014243
0.000142396
0.000138165
0.000143517
0.000135001
0.000136344
0.000144104
0.000144295
0.000136025
0.000141586
0.000135731
0.000140775
0.000144764
0.000139778
0.000144134
0.000137712
0.000138918
0.000144021
0.000141546
0.000142707
0.000142924
0.000140161
0.000141112
0.000143524
0.00014222
0.000144313
0.000144476
0.000141631
0.000142127
0.000136721
0.000139651
0.000139212
0.000144632
0.000142087
0.000136251
0.00014111
0.000133533
0.000139182
0.00014133
0.000147805
0.000139429
0.000140837
0.000146991
0.000148545
0.000142447
0.00014915
0.000140779
0.000141265
0.000145301
0.000144784
0.000141048
0.00014912
0.000149789
0.000141662
0.000146642
0.000135717
0.00014368
0.000148261
0.000149832
0.00014929
0.000149808
0.000150443
0.000151093
0.000153484
0.000152701
0.000150177
0.000149573
0.000148863
0.000148474
0.000151482
0.000153808
0.000152562
0.000151358
0.00015433
0.00014856
0.000152313
0.000151999
0.000155943
0.000157726
0.000153033
0.000149323
0.000149157
0.000152803
0.000152046
0.000150576
0.000150675
0.000149084
0.000149733
0.000150739
0.000153447
0.000149678
0.000150475
0.000153499
0.000150729
0.000150657
0.000152176
0.000149221
0.000157711
0.00015412
0.000155665
0.000150234
0.000150559
0.000158368
0.000150827
0.000152389
0.000160129
0.000157124
0.000151407
0.000155883
0.000152352
0.000149703
0.000162095
0.000158607
0.000150714
0.0001605
0.000160503
0.000148728
0.000155163
0.000154971
0.000154818
0.000155831
0.000155823
0.000159072
0.000159851
0.000162541
0.00015819
0.000165459
0.000164264
0.000155918
0.000157986
0.00016413
0.000162917
0.000167311
0.000170028
0.000162659
0.000163038
0.000164052
0.00015738
0.000163001
0.000158504
0.000167356
0.000162468
0.00015783
0.00015965
0.000157135
0.00016522
0.000166215
0.00016282
0.000165783
0.000159042
0.000159494
0.000167389
0.000170364
0.000164883
0.000166589
0.000163809
0.00016568
0.000164959
0.000163013
0.000157728
0.000162832
0.000165464
0.000166217
0.000159925
0.000156565
0.000158167
0.000161962
0.000164912
0.000165636
0.000167767
0.000158922
0.000160992
0.000162827
0.000162493
0.000159329
0.0001565
0.000166309
0.00016443
0.000165856
0.000156559
0.000153545
0.00016709
0.000161245
0.000166326
0.00015987
0.000159939
0.00017234
0.000169583
0.000173636
0.000180634
0.000183321
0.000163988
0.000175483
0.000160902
0.00015717
0.000179284
0.000181143
0.000165998
0.000181415
0.000176222
0.000155386
0.000174072
0.000166505
0.000178828
0.000175955
0.000169043
0.0001734
0.000171347
0.00018215
0.000183548
0.000181154
0.000173171
0.00017551
0.000162634
0.000183092
0.000187255
0.000185855
0.000192467
0.000179493
0.000178704
0.000182052
0.000176641
0.000178772
0.000179224
0.000186537
0.000182237
0.000171832
0.000170157
0.000161981
0.000177781
0.000167969
0.000170187
0.000162357
0.000160244
0.000155853
0.000184518
0.000190544
0.000174606
0.000173089
0.000181573
0.000168625
0.00017518
0.000176901
0.00016056
0.000181904
0.000174303
0.000175681
0.000163729
0.000161322
0.000168813
0.000169278
0.000164468
0.000179751
0.000189201
0.000158237
0.000178589
0.000172752
0.000168921
0.000171815
0.000164709
0.000173754
0.00018328
0.000173912
0.000158789
0.000158837
0.000174026
0.000167875
0.000172982
0.000166905
0.000171328
0.0001808
0.000184657
0.000194657
0.000193893
0.000202422
0.000181403
0.000188871
0.000176437
0.000168032
0.000191086
0.000191777
0.000179301
0.000198013
0.000193275
0.000161895
0.000182203
0.000177475
0.000191756
0.000192967
0.000182622
0.000181861
0.000183999
0.000196043
0.00020306
0.000198787
0.000195523
0.000188641
0.000178345
0.00019412
0.000197704
0.000198791
0.000206845
0.000196128
0.000195322
0.00019851
0.000184894
0.00019252
0.000196179
0.000204461
0.00019908
0.000183451
0.000183508
0.000174841
0.000198313
0.000191455
0.000188777
0.000180163
0.000176474
0.000166509
0.000199157
0.000207448
0.000193603
0.000195336
0.000197609
0.000183335
0.000187574
0.00019176
0.000176159
0.000198414
0.000193616
0.000188871
0.000171821
0.000173215
0.000167317
0.00018492
0.000178131
0.000179164
0.000178486
0.000165611
0.000171039
0.000190018
0.000189317
0.000181735
0.000177908
0.000185092
0.000181516
0.000182854
0.000173492
0.000164111
0.000186082
0.000179513
0.00018285
0.000172007
0.000167981
0.000184023
0.000179547
0.00018494
0.000197349
0.000201784
0.000173998
0.000187805
0.000180789
0.000176818
0.000192964
0.000190472
0.000185424
0.000200587
0.000197458
0.000164318
0.000181688
0.000183868
0.000193612
0.000196504
0.00018398
0.00018692
0.000195186
0.00020285
0.000205899
0.000212096
0.00021183
0.000189654
0.000193951
0.000199462
0.00019752
0.000210783
0.000210082
0.00020002
0.000209367
0.000204825
0.00018479
0.000193338
0.000199604
0.000209425
0.000205266
0.000187616
0.000194973
0.000185912
0.000212657
0.000212054
0.000206004
0.000204412
0.000193312
0.000184281
0.000211624
0.000211237
0.000207849
0.0002094
0.000205684
0.00020424
0.000207113
0.000193283
0.00018766
0.000206274
0.000206616
0.000207654
0.000189516
0.000184446
0.000180589
0.000202554
0.000201365
0.000197275
0.000196954
0.00018308
0.00018055
0.000204749
0.000206743
0.000199284
0.000202348
0.000207264
0.000198926
0.000205431
0.000186753
0.000184663
0.000207715
0.000202218
0.000205787
0.000187893
0.000180772
0.000186335
0.000196914
0.000196659
0.000202346
0.000202156
0.000180933
0.000186082
0.00019886
0.000202094
0.000202129
0.000204001
0.000204381
0.000203147
0.00019953
0.000184841
0.000187313
0.000204866
0.000205113
0.000199696
0.000180756
0.000187217
0.000189385
0.000204575
0.000203863
0.000208323
0.000207804
0.0001865
0.000188488
0.0002043
0.000205066
0.000208155
0.000205831
0.000198608
0.000205665
0.000201699
0.000187264
0.000186199
0.000198486
0.000203291
0.00019976
0.000185181
0.00018944
0.000191604
0.000209117
0.000209446
0.000212451
0.000214704
0.00018931
0.000195257
0.000208544
0.000205958
0.000209976
0.000208019
0.000206191
0.000214639
0.000216351
0.000186053
0.0001904
0.000204465
0.000210612
0.000215839
0.000197338
0.000192249
0.000195406
0.000213767
0.000216042
0.000216096
0.000217246
0.000195782
0.000195917
0.000211242
0.000209618
0.00021567
0.000214949
0.000217796
0.000217723
0.000217603
0.000191307
0.000195044
0.000217799
0.000216858
0.000218684
0.000195424
0.000195397
0.000194465
0.000216253
0.000216711
0.000214951
0.000211963
0.00019524
0.000189921
0.000216765
0.000216617
0.000217882
0.000220639
0.000215421
0.000211269
0.000210527
0.000195331
0.00019772
0.000217165
0.000217996
0.000212147
0.000189471
0.000194187
0.000193608
0.000214341
0.000210942
0.000214063
0.000211382
0.000189308
0.000192055
0.000217803
0.000221266
0.000216027
0.000219688
0.000210205
0.000211595
0.000215043
0.000197823
0.000196799
0.000211649
0.000216996
0.000213844
0.000195136
0.000193726
0.000194759
0.00021489
0.000214403
0.000217983
0.000221604
0.000193663
0.000200319
0.000215687
0.000217595
0.000214789
0.000210958
0.000218322
0.000222619
0.000222621
0.000196084
0.000189776
0.000216601
0.000214322
0.00022038
0.000199916
0.000194504
0.000193123
0.000218132
0.000222151
0.00021695
0.0002193
0.000200311
0.000195102
0.000214312
0.000208912
0.00021324
0.000206303
0.000222544
0.000219093
0.000214842
0.00018853
0.000186013
0.00022033
0.000209564
0.000214384
0.000190391
0.000192819
0.000195342
0.000216193
0.000216986
0.00021563
0.000213564
0.000193733
0.000190385
0.00021358
0.000207943
0.000218722
0.000221715
0.000212352
0.000212669
0.000211102
0.000187084
0.000199714
0.000212551
0.000220296
0.000212697
0.000191616
0.000196252
0.000203379
0.000217372
0.000213811
0.000225337
0.000224412
0.000191126
0.000202939
0.000220877
0.000225856
0.000228777
0.000236496
0.000214775
0.000225144
0.000230381
0.000201799
0.000212413
0.000217404
0.000234778
0.000231798
0.000208807
0.000204257
0.000206163
0.000228035
0.000227875
0.000231513
0.000231517
0.000204172
0.000205929
0.00023109
0.000238075
0.000233473
0.000232765
0.000233379
0.000232287
0.000235192
0.000212679
0.000203462
0.000234228
0.000231392
0.000234196
0.000206365
0.00020446
0.000193256
0.000230775
0.000230541
0.000220009
0.000220094
0.000204296
0.000193758
0.000230569
0.000226684
0.000217687
0.000212776
0.000230943
0.000219849
0.000217176
0.000200608
0.000188047
0.000228962
0.000213605
0.000215854
0.000190707
0.000191826
0.000191113
0.000217143
0.000217693
0.000214382
0.00021584
0.000192611
0.000193161
0.000214672
0.000210516
0.000212219
0.000210484
0.000213856
0.00021494
0.000210328
0.000186999
0.000191809
0.000213083
0.000212134
0.000210652
0.000188667
0.000192708
0.000202885
0.000215445
0.000217305
0.000226398
0.000226612
0.000194565
0.000202957
0.000214194
0.000215289
0.000226718
0.000227975
0.000211568
0.000226351
0.000225615
0.000194027
0.00020393
0.000212972
0.000227991
0.000226087
0.000202193
0.000203672
0.000205134
0.000228892
0.00022852
0.000231571
0.000230568
0.000203469
0.000204207
0.00022941
0.000230175
0.00023231
0.000232237
0.000229503
0.000231886
0.000237515
0.000204371
0.0002046
0.000229459
0.000232127
0.000236537
0.000210832
0.000204668
0.000202268
0.000231515
0.00023046
0.000228782
0.00022859
0.000203838
0.000202131
0.000232267
0.000231896
0.000229275
0.00023052
0.000238775
0.000229737
0.000235697
0.000204136
0.000203954
0.000237768
0.000231592
0.000236355
0.00020781
0.000202107
0.000202796
0.000228651
0.000228626
0.000228867
0.000228275
0.000201966
0.000201676
0.000229143
0.000230874
0.000229032
0.000229711
0.000231818
0.000226489
0.000221584
0.000203966
0.000203236
0.00023301
0.000229074
0.000223149
0.000195655
0.000202324
0.000197557
0.000228037
0.000227246
0.000223582
0.000222949
0.000201081
0.000196632
0.000228075
0.000227945
0.0002234
0.000221744
0.000218675
0.000221357
0.000214093
0.000202183
0.000195239
0.000220297
0.000220461
0.000214488
0.000188435
0.00019678
0.000194846
0.000222296
0.000221999
0.000220359
0.000221499
0.000196103
0.000197409
0.000222055
0.000220217
0.00022006
0.00021923
0.000213971
0.000222788
0.000225003
0.000194345
0.00019474
0.000213941
0.000218689
0.000222602
0.000200095
0.000195159
0.000202213
0.000220576
0.000222881
0.00022765
0.000229291
0.000198435
0.000203945
0.000220337
0.00022094
0.000227888
0.000230457
0.000229374
0.000231736
0.000238972
0.000196224
0.000205213
0.00022714
0.000232016
0.000238228
0.000212348
0.000203048
0.000210423
0.000230113
0.000230715
0.000239301
0.000237662
0.000204224
0.000207698
0.000230439
0.000232383
0.000239563
0.000238637
0.000239841
0.000236936
0.000237891
0.000205846
0.00020873
0.000239448
0.000239076
0.000240183
0.000208047
0.000213299
0.000238446
0.000235974
0.000209655
0.000238414
0.000235739
0.000262846
0.00026407
0.000264346
0.000232614
0.000209804
0.000234459
2.28938e-06
2.16367e-06
1.04213e-06
1.12776e-06
1.3429e-06
1.91601e-06
4.65186e-07
1.32123e-06
1.19538e-06
2.4041e-06
1.37386e-06
1.68408e-06
2.25248e-06
1.64134e-06
2.50353e-06
9.28183e-07
1.36874e-05
8.50597e-07
1.54896e-05
1.07642e-05
1.29833e-05
1.32694e-06
1.33497e-05
1.24384e-06
1.50961e-05
1.52475e-06
1.49164e-06
1.686e-06
1.71303e-06
1.54028e-06
1.50053e-06
1.71423e-06
1.372e-06
3.15155e-07
1.56133e-06
1.68009e-06
1.34728e-06
4.22863e-07
1.56612e-06
1.08535e-05
1.30614e-05
1.21856e-06
1.79429e-06
5.40437e-07
2.22931e-06
1.20423e-06
1.79963e-06
6.64144e-07
1.48057e-06
1.50472e-06
2.24309e-06
1.68911e-06
1.70625e-06
1.27126e-06
1.87738e-05
1.11428e-06
2.12392e-05
1.70218e-05
1.91884e-05
1.51785e-06
1.8319e-05
1.4412e-06
2.07327e-05
1.53998e-06
1.49784e-06
1.71721e-06
1.7044e-06
1.53867e-06