/*--------------------------------*- C++ -*----------------------------------*\
| =========                 |                                                 |
| \\      /  F ield         | OpenFOAM: The Open Source CFD Toolbox           |
|  \\    /   O peration     | Version:  v2012                                 |
|   \\  /    A nd           | Website:  www.openfoam.com                      |
|    \\/     M anipulation  |                                                 |
\*---------------------------------------------------------------------------*/
FoamFile
{
    version     2.0;
    format      ascii;
    class       volScalarField;
    location    "1500";
    object      p;
}
// * * * * * * * * * * * * * * * * * * * * * * * * * * * * * * * * * * * * * //

dimensions      [0 2 -2 0 0 0 0];


internalField   nonuniform List<scalar> 
171728
(
0.00351954
0.00351846
0.0035185
0.00351926
0.00348405
0.0034826
0.0034826
0.00348546
0.00344554
0.00344369
0.00344365
0.00344596
0.00340143
0.00339978
0.0033997
0.00340203
0.00335338
0.0033519
0.00335189
0.0033542
0.00330452
0.00330323
0.00330323
0.00330556
0.00325624
0.00325506
0.00325504
0.00325739
0.0032089
0.00320786
0.00320783
0.00321024
0.00316257
0.00316162
0.00316164
0.00316396
0.00311722
0.00311642
0.00311641
0.00311871
0.00307278
0.00307211
0.00307212
0.00307456
0.0030291
0.00302859
0.00302853
0.00303089
0.002986
0.00298551
0.00298559
0.00298783
0.00294329
0.00294299
0.00294291
0.00294524
0.00290094
0.00290069
0.00290054
0.00290292
0.00285886
0.00285868
0.00285859
0.00286097
0.00281718
0.00281704
0.00281693
0.00281927
0.0027758
0.00277568
0.00277565
0.0027779
0.00273476
0.00273473
0.00273469
0.00273689
0.00269413
0.00269411
0.00269411
0.0026961
0.00265386
0.00265406
0.00265403
0.00265569
0.00261384
0.00261398
0.00261389
0.00261564
0.00257413
0.00257425
0.00257445
0.00257591
0.00253469
0.00253507
0.00253496
0.0025366
0.00249547
0.00249588
0.00249589
0.00249737
0.00245645
0.00245685
0.00245686
0.00245856
0.00241769
0.00241816
0.00241819
0.00242
0.00237919
0.00237973
0.00237967
0.00238141
0.00234086
0.00234145
0.00234144
0.00234333
0.00230267
0.00230325
0.00230326
0.0023052
0.00226476
0.00226542
0.00226541
0.0022672
0.00222688
0.00222753
0.00222751
0.00222947
0.00218923
0.00218992
0.00218995
0.00219179
0.00215169
0.0021524
0.00215234
0.00215397
0.00211439
0.0021149
0.00211492
0.00211681
0.00207721
0.00207807
0.0020781
0.00207987
0.00203993
0.00204027
0.00204027
0.00204185
0.00200278
0.0020034
0.00200337
0.00200569
0.00196619
0.00196657
0.00196667
0.00196821
0.00192931
0.00192964
0.00192955
0.00193167
0.00189285
0.00189329
0.00189335
0.00189527
0.00185642
0.00185641
0.00185649
0.00185832
0.00181965
0.00182006
0.00181986
0.00182216
0.00178386
0.00178376
0.00178403
0.00178605
0.00174754
0.00174774
0.00174749
0.0017497
0.00171185
0.00171177
0.00171186
0.00171363
0.00167588
0.00167567
0.00167583
0.00167809
0.00164009
0.00164005
0.00163976
0.00164193
0.00160423
0.00160432
0.00160459
0.00160638
0.00156942
0.00156887
0.00156875
0.00157105
0.00153371
0.00153346
0.00153331
0.0015355
0.00149798
0.00149809
0.00149833
0.0015
0.00146324
0.00146272
0.00146261
0.00146473
0.00142791
0.00142759
0.00142752
0.00142978
0.00139253
0.00139264
0.00139269
0.0013947
0.00135807
0.00135743
0.00135767
0.00135933
0.00132291
0.00132274
0.00132242
0.00132452
0.00128799
0.00128789
0.00128782
0.00128998
0.0012534
0.00125296
0.0012533
0.00125496
0.00121855
0.00121843
0.00121817
0.00122035
0.00118357
0.00118352
0.00118347
0.00118544
0.00115
0.00114938
0.00114974
0.00115127
0.00111462
0.00111411
0.00111432
0.00111629
0.00107933
0.00107975
0.00107906
0.00108129
0.00104585
0.00104612
0.00104586
0.0010478
0.0010119
0.00101094
0.00101185
0.00101327
0.000976881
0.000976111
0.000976319
0.000978124
0.000941802
0.000941977
0.00094144
0.000943623
0.000907173
0.000907987
0.000907603
0.000909846
0.000873735
0.000873447
0.000873716
0.000875351
0.000839416
0.000838244
0.000838665
0.000840222
0.000803821
0.000803707
0.000803781
0.000805831
0.000769711
0.000770171
0.000769971
0.00077202
0.000735449
0.000735537
0.000735335
0.00073728
0.000700467
0.000700114
0.0007001
0.000702236
0.000665462
0.000665292
0.000665503
0.000667222
0.000631213
0.000630963
0.000631117
0.000632848
0.000596709
0.000596563
0.000596604
0.000598584
0.000561777
0.00056206
0.000561735
0.000564013
0.000526874
0.000526954
0.000526733
0.000528772
0.000491767
0.000491297
0.000491828
0.000493399
0.000457003
0.000456814
0.000457159
0.000458949
0.000422773
0.000423022
0.00042244
0.00042468
0.000387678
0.000387397
0.000387158
0.000389161
0.000351225
0.00035128
0.000351591
0.000353527
0.000316372
0.000316541
0.000316782
0.000318743
0.000282282
0.00028211
0.000281999
0.000284012
0.000246888
0.000246652
0.000246529
0.000248508
0.000211237
0.000211143
0.000211168
0.000213039
0.000175732
0.0001757
0.000175679
0.000177687
0.00013961
0.000139828
0.000139777
0.000141998
0.000104069
0.00010427
0.0001043
0.00010648
6.9176e-05
6.8803e-05
6.89486e-05
7.06137e-05
3.43511e-05
3.34122e-05
3.32972e-05
3.49297e-05
5.69223e-06
6.92536e-06
6.74048e-06
4.97791e-06
0.00352395
0.00352153
0.00352148
0.00352391
0.00352147
0.00352158
0.00352788
0.00352788
0.00352791
0.0035279
0.00352144
0.00352157
0.003524
0.00352154
0.00352168
0.00352405
0.0035192
0.00349019
0.00351846
0.00351844
0.00349211
0.00349211
0.00351916
0.00349018
0.00351848
0.00351848
0.00349204
0.00349203
0.00351852
0.00349201
0.00349201
0.00351923
0.00349017
0.00351855
0.00349201
0.00349207
0.0034902
0.00348542
0.00345149
0.0034825
0.00348248
0.00345383
0.00345383
0.00348541
0.0034515
0.0034826
0.00348256
0.00345372
0.00345378
0.00348261
0.00345373
0.00345384
0.00348542
0.00345152
0.00348264
0.00345377
0.003454
0.00345151
0.00344596
0.00340816
0.00344361
0.0034436
0.00341124
0.00341123
0.00344598
0.00340815
0.00344369
0.00344371
0.00341117
0.00341118
0.00344361
0.0034112
0.0034111
0.003446
0.00340817
0.0034436
0.00341123
0.0034111
0.0034082
0.003402
0.0033607
0.00339974
0.00339975
0.00336406
0.00336403
0.00340199
0.00336071
0.00339981
0.00339978
0.00336403
0.00336406
0.00339982
0.00336408
0.00336399
0.003402
0.00336068
0.00339989
0.00336409
0.00336403
0.00336065
0.00335424
0.00331202
0.00335193
0.00335193
0.00331536
0.00331535
0.00335424
0.00331201
0.00335193
0.00335195
0.00331539
0.00331537
0.00335196
0.0033154
0.00331541
0.00335422
0.00331203
0.00335189
0.00331537
0.0033153
0.00331204
0.00330558
0.00326375
0.00330325
0.00330323
0.00326703
0.00326704
0.00330556
0.00326375
0.00330321
0.00330322
0.00326701
0.00326703
0.00330324
0.00326703
0.00326704
0.00330559
0.00326376
0.00330337
0.00326701
0.00326717
0.0032637
0.00325743
0.0032164
0.00325508
0.00325503
0.00321959
0.00321957
0.00325741
0.00321641
0.00325508
0.00325506
0.00321955
0.00321957
0.00325508
0.00321956
0.00321958
0.00325743
0.00321642
0.00325515
0.00321959
0.00321988
0.00321641
0.00321023
0.00317007
0.00320788
0.00320785
0.00317313
0.00317311
0.0032102
0.00317008
0.00320788
0.00320787
0.00317311
0.00317313
0.00320787
0.00317311
0.00317312
0.00321023
0.00317008
0.00320788
0.00317313
0.00317331
0.00316998
0.00316404
0.00312471
0.00316168
0.00316163
0.00312767
0.00312767
0.003164
0.00312474
0.00316167
0.00316166
0.00312765
0.00312766
0.00316162
0.00312766
0.00312765
0.00316402
0.00312472
0.00316182
0.00312763
0.00312758
0.00312463
0.0031188
0.00308025
0.00311644
0.00311641
0.00308312
0.00308315
0.00311881
0.00308025
0.00311643
0.00311643
0.00308312
0.00308311
0.00311637
0.00308315
0.00308317
0.0031188
0.00308027
0.00311643
0.0030831
0.00308313
0.00308036
0.00307447
0.00303657
0.00307211
0.0030721
0.00303941
0.00303941
0.00307447
0.00303658
0.00307211
0.00307212
0.00303939
0.00303939
0.00307217
0.00303939
0.00303938
0.0030745
0.00303656
0.00307209
0.00303939
0.00303938
0.00303657
0.00303087
0.00299346
0.00302852
0.00302858
0.00299624
0.00299622
0.00303092
0.00299344
0.00302852
0.00302854
0.00299624
0.00299621
0.0030286
0.00299622
0.00299625
0.00303089
0.0029935
0.00302856
0.00299621
0.00299628
0.00299344
0.00298789
0.00295079
0.00298558
0.00298551
0.00295354
0.00295358
0.00298785
0.00295082
0.00298556
0.0029856
0.00295356
0.00295367
0.00298549
0.00295358
0.00295353
0.00298791
0.00295079
0.0029855
0.00295365
0.0029535
0.00295073
0.00294525
0.00290845
0.00294299
0.00294299
0.00291132
0.00291121
0.00294528
0.0029085
0.00294298
0.0029429
0.0029113
0.00291121
0.00294298
0.00291121
0.00291131
0.00294522
0.00290839
0.00294298
0.00291121
0.00291133
0.00290844
0.00290296
0.00286636
0.00290069
0.0029007
0.00286913
0.00286905
0.00290302
0.00286639
0.00290069
0.00290053
0.00286918
0.00286906
0.00290068
0.00286906
0.00286927
0.00290288
0.00286629
0.00290066
0.00286908
0.00286927
0.00286646
0.00286089
0.00282464
0.00285864
0.00285868
0.00282739
0.00282728
0.00286098
0.00282457
0.00285862
0.00285857
0.00282735
0.00282727
0.00285862
0.00282725
0.00282734
0.00286085
0.00282446
0.00285865
0.00282729
0.00282733
0.0028246
0.0028193
0.00278319
0.00281707
0.00281702
0.00278603
0.00278589
0.00281924
0.00278304
0.00281709
0.00281689
0.00278603
0.00278588
0.00281702
0.00278588
0.00278603
0.0028191
0.00278304
0.00281704
0.00278591
0.00278607
0.0027832
0.00277786
0.00274199
0.00277568
0.00277565
0.00274493
0.00274487
0.00277775
0.00274204
0.00277568
0.00277554
0.00274496
0.00274496
0.00277582
0.00274488
0.00274504
0.00277773
0.002742
0.00277579
0.00274494
0.00274503
0.00274214
0.00273677
0.00270129
0.00273471
0.00273469
0.00270429
0.00270434
0.0027368
0.00270124
0.00273471
0.00273458
0.0027043
0.00270437
0.00273478
0.00270434
0.00270431
0.00273672
0.00270134
0.0027348
0.00270437
0.00270431
0.00270134
0.00269612
0.00266087
0.00269417
0.0026941
0.00266394
0.00266403
0.00269605
0.00266085
0.00269415
0.00269409
0.00266395
0.00266398
0.00269413
0.00266407
0.002664
0.00269615
0.00266086
0.00269413
0.00266398
0.00266399
0.00266081
0.00265573
0.0026207
0.00265392
0.00265405
0.00262392
0.00262383
0.00265579
0.00262075
0.00265389
0.00265397
0.0026239
0.00262378
0.00265394
0.00262384
0.00262395
0.00265573
0.00262068
0.00265396
0.00262389
0.00262396
0.00262071
0.00261561
0.00258097
0.00261396
0.00261396
0.00258426
0.00258423
0.00261563
0.00258093
0.00261394
0.00261383
0.00258428
0.00258434
0.00261398
0.00258426
0.00258423
0.00261558
0.00258113
0.002614
0.0025843
0.00258424
0.00258096
0.00257597
0.00254155
0.00257442
0.00257421
0.00254478
0.00254495
0.00257585
0.00254165
0.00257444
0.00257448
0.00254476
0.00254484
0.00257433
0.00254492
0.00254481
0.00257613
0.00254146
0.00257434
0.0025448
0.00254479
0.00254157
0.00253659
0.00250242
0.00253508
0.00253511
0.00250556
0.00250561
0.00253674
0.00250238
0.00253506
0.00253497
0.00250555
0.00250558
0.00253503
0.00250559
0.00250554
0.00253646
0.00250244
0.00253504
0.00250563
0.00250553
0.00250234
0.00249743
0.00246353
0.00249584
0.0024959
0.00246657
0.00246653
0.00249747
0.00246344
0.00249584
0.00249586
0.00246661
0.00246653
0.00249582
0.00246654
0.0024666
0.00249755
0.00246339
0.00249585
0.00246653
0.00246658
0.00246356
0.0024586
0.00242482
0.00245689
0.00245685
0.00242783
0.00242784
0.00245845
0.00242493
0.0024569
0.00245686
0.00242784
0.00242785
0.00245684
0.00242787
0.00242785
0.00245843
0.00242494
0.00245686
0.00242784
0.00242784
0.00242485
0.0024199
0.00238634
0.00241818
0.00241815
0.00238929
0.00238929
0.00241994
0.00238625
0.0024182
0.00241819
0.00238928
0.00238926
0.0024182
0.0023893
0.00238927
0.00242002
0.00238631
0.00241819
0.00238927
0.00238927
0.00238637
0.00238147
0.00234819
0.00237972
0.00237972
0.00235096
0.002351
0.0023814
0.00234834
0.00237971
0.00237967
0.00235097
0.002351
0.00237968
0.002351
0.00235101
0.00238139
0.00234822
0.00237966
0.00235101
0.00235101
0.00234821
0.00234326
0.00231013
0.00234142
0.00234143
0.00231281
0.00231276
0.00234342
0.00231003
0.00234143
0.00234143
0.00231284
0.00231277
0.00234147
0.00231278
0.0023127
0.00234331
0.00231006
0.00234147
0.00231277
0.00231273
0.0023101
0.00230524
0.00227206
0.00230326
0.00230325
0.00227485
0.00227488
0.0023051
0.00227214
0.00230329
0.00230325
0.00227483
0.00227487
0.00230319
0.00227487
0.00227491
0.00230513
0.00227215
0.00230323
0.00227487
0.0022749
0.0022721
0.00226714
0.00223446
0.00226545
0.00226541
0.00223701
0.00223699
0.00226726
0.00223437
0.00226542
0.00226541
0.00223703
0.00223697
0.00226546
0.00223701
0.00223694
0.00226727
0.00223435
0.00226542
0.00223698
0.00223694
0.00223436
0.00222957
0.00219654
0.00222753
0.00222752
0.00219924
0.00219929
0.00222943
0.0021966
0.00222755
0.00222751
0.00219926
0.00219931
0.00222741
0.00219928
0.00219934
0.00222942
0.00219661
0.00222745
0.00219931
0.00219943
0.00219657
0.00219166
0.00215917
0.00218989
0.00218993
0.0021618
0.00216177
0.00219173
0.00215916
0.00218989
0.00218994
0.0021618
0.00216175
0.00219014
0.00216181
0.00216172
0.00219174
0.00215914
0.00219019
0.00216179
0.0021616
0.00215893
0.00215427
0.00212169
0.0021524
0.00215237
0.00212433
0.00212428
0.00215425
0.00212165
0.00215241
0.00215233
0.00212431
0.00212427
0.00215213
0.0021242
0.00212423
0.00215419
0.00212165
0.00215204
0.00212415
0.00212433
0.00212163
0.00211681
0.00208458
0.00211501
0.00211498
0.00208712
0.00208723
0.00211679
0.00208472
0.002115
0.00211499
0.00208714
0.00208723
0.00211523
0.00208734
0.00208775
0.00211682
0.00208472
0.00211537
0.00208742
0.00208772
0.00208496
0.0020797
0.0020473
0.00207784
0.00207793
0.00204985
0.00204974
0.00207983
0.00204714
0.00207784
0.00207792
0.00204986
0.00204973
0.00207816
0.00204972
0.00204918
0.00207982
0.0020472
0.00207803
0.00204968
0.00204913
0.00204663
0.00204238
0.00201006
0.00204051
0.00204034
0.00201253
0.00201259
0.00204222
0.00201019
0.00204051
0.00204037
0.00201251
0.00201261
0.00203987
0.0020125
0.00201264
0.00204228
0.00201007
0.00203987
0.00201253
0.00201273
0.00201044
0.00200524
0.0019734
0.00200329
0.00200343
0.00197584
0.00197579
0.00200537
0.00197327
0.00200328
0.00200336
0.00197584
0.00197578
0.00200365
0.00197587
0.00197591
0.00200524
0.00197347
0.00200371
0.00197589
0.00197575
0.00197323
0.00196852
0.00193647
0.00196665
0.00196653
0.00193885
0.0019388
0.00196839
0.00193653
0.00196662
0.00196663
0.0019389
0.00193887
0.0019665
0.00193878
0.0019387
0.00196859
0.00193641
0.00196634
0.00193878
0.0019388
0.00193641
0.00193161
0.00190002
0.00192961
0.00192965
0.00190232
0.00190243
0.00193171
0.00190007
0.00192968
0.00192962
0.00190223
0.00190225
0.00192965
0.00190243
0.00190246
0.00193157
0.00190004
0.0019298
0.00190238
0.00190257
0.0019002
0.00189523
0.00186334
0.00189328
0.00189328
0.00186568
0.0018656
0.0018952
0.00186325
0.00189319
0.00189318
0.00186578
0.00186582
0.00189327
0.00186562
0.00186552
0.00189525
0.00186342
0.00189324
0.00186577
0.00186534
0.00186314
0.00185847
0.00182695
0.00185642
0.0018564
0.00182912
0.00182912
0.00185842
0.001827
0.00185653
0.00185657
0.00182904
0.00182889
0.00185633
0.00182909
0.00182908
0.00185849
0.00182676
0.00185626
0.00182891
0.00182908
0.00182697
0.00182212
0.00179052
0.00182009
0.00182007
0.00179282
0.00179287
0.00182219
0.00179055
0.00182
0.00181984
0.00179287
0.00179302
0.00182007
0.00179288
0.00179299
0.00182199
0.00179083
0.00182
0.00179301
0.00179297
0.00179085
0.00178566
0.00175445
0.00178354
0.00178377
0.00175653
0.00175664
0.00178575
0.00175457
0.0017837
0.00178402
0.00175653
0.00175655
0.00178392
0.00175672
0.00175672
0.00178601
0.00175436
0.001784
0.00175662
0.00175679
0.00175452
0.00174975
0.00171907
0.00174777
0.00174765
0.00172125
0.0017209
0.00174979
0.0017187
0.00174767
0.00174745
0.00172114
0.00172077
0.00174771
0.00172076
0.00172058
0.00174956
0.00171871
0.00174767
0.00172071
0.00172044
0.00171839
0.00171417
0.00168221
0.00171207
0.00171195
0.00168424
0.00168469
0.00171392
0.00168252
0.00171206
0.00171194
0.00168443
0.00168495
0.00171155
0.00168472
0.00168485
0.00171397
0.00168269
0.00171148
0.00168495
0.00168497
0.00168285
0.00167745
0.00164686
0.00167529
0.00167558
0.00164896
0.0016487
0.00167769
0.00164679
0.00167541
0.00167577
0.00164885
0.00164854
0.00167596
0.00164889
0.00164902
0.00167781
0.00164657
0.00167612
0.00164862
0.001649
0.00164675
0.00164212
0.0016115
0.00164017
0.00163989
0.00161353
0.00161354
0.00164206
0.00161135
0.00164003
0.00163969
0.00161345
0.00161345
0.00163995
0.00161335
0.00161303
0.00164185
0.00161143
0.00163983
0.0016134
0.00161299
0.00161108
0.00160676
0.00157551
0.00160459
0.00160462
0.00157765
0.00157776
0.00160658
0.00157563
0.00160457
0.00160467
0.00157779
0.00157787
0.00160418
0.00157765
0.00157781
0.00160671
0.00157559
0.00160425
0.00157777
0.00157795
0.00157579
0.00157071
0.00154
0.0015686
0.00156882
0.00154204
0.00154206
0.00157085
0.00154013
0.00156872
0.00156878
0.00154199
0.00154194
0.00156902
0.00154236
0.00154249
0.00157079
0.00154005
0.00156909
0.00154206
0.00154239
0.00154026
0.00153528
0.00150498
0.00153327
0.00153317
0.00150692
0.00150688
0.0015354
0.0015049
0.0015332
0.00153319
0.00150698
0.00150707
0.00153356
0.0015069
0.00150664
0.00153534
0.0015051
0.00153345
0.00150712
0.00150675
0.00150474
0.00150029
0.00146968
0.00149815
0.00149819
0.00147187
0.00147189
0.00150017
0.0014696
0.00149825
0.00149835
0.00147185
0.00147181
0.00149777
0.00147159
0.00147155
0.0015004
0.00146947
0.00149791
0.00147161
0.00147144
0.00146946
0.00146488
0.00143413
0.001463
0.00146296
0.0014362
0.00143614
0.00146485
0.00143427
0.00146288
0.00146277
0.00143609
0.0014361
0.00146283
0.00143635
0.00143652
0.00146469
0.00143418
0.00146265
0.00143619
0.0014365
0.00143445
0.00142942
0.00139941
0.00142745
0.00142736
0.0014014
0.00140134
0.00142954
0.00139936
0.00142736
0.00142736
0.00140137
0.00140131
0.00142777
0.00140138
0.00140147
0.00142947
0.0013994
0.00142783
0.00140142
0.00140161
0.00139945
0.00139473
0.00136415
0.0013927
0.00139268
0.00136626
0.00136631
0.00139467
0.00136414
0.00139271
0.00139259
0.00136641
0.00136647
0.00139267
0.00136624
0.00136611
0.00139471
0.00136426
0.00139277
0.00136647
0.00136618
0.00136407
0.00135942
0.00132936
0.00135743
0.00135749
0.00133127
0.0013313
0.00135939
0.0013293
0.00135754
0.0013577
0.00133136
0.00133139
0.00135732
0.00133135
0.00133129
0.00135954
0.00132924
0.00135736
0.00133118
0.00133116
0.00132919
0.00132471
0.00129469
0.0013227
0.00132267
0.00129679
0.00129676
0.00132466
0.00129471
0.00132274
0.00132267
0.00129671
0.00129657
0.00132269
0.00129676
0.00129679
0.00132453
0.00129453
0.00132247
0.0012964
0.00129656
0.00129466
0.00128992
0.00125944
0.00128801
0.00128797
0.00126155
0.00126162
0.00128995
0.00125951
0.00128789
0.00128788
0.00126151
0.00126176
0.00128803
0.00126154
0.00126159
0.00128987
0.00125971
0.00128799
0.00126205
0.00126195
0.00125966
0.00125475
0.00122486
0.00125287
0.00125301
0.00122708
0.00122702
0.00125482
0.00122499
0.00125285
0.00125299
0.00122695
0.00122677
0.00125288
0.00122719
0.00122714
0.00125499
0.00122476
0.00125319
0.00122694
0.00122706
0.00122504
0.00122015
0.00119028
0.00121835
0.00121826
0.00119226
0.00119217
0.00122031
0.0011902
0.00121824
0.00121804
0.00119214
0.00119206
0.00121855
0.00119212
0.00119219
0.00122003
0.00119015
0.00121837
0.00119205
0.00119212
0.00119013
0.00118567
0.0011562
0.00118364
0.00118363
0.00115803
0.00115805
0.00118553
0.00115588
0.00118362
0.0011836
0.00115844
0.00115861
0.00118342
0.00115802
0.00115789
0.00118554
0.00115637
0.00118342
0.0011582
0.00115793
0.00115587
0.00115152
0.00112077
0.00114941
0.00114931
0.00112299
0.00112276
0.00115117
0.00112072
0.00114988
0.00115012
0.00112314
0.00112316
0.00114946
0.00112296
0.00112329
0.00115175
0.00112102
0.0011495
0.0011233
0.00112333
0.00112109
0.0011159
0.00108584
0.0011141
0.00111387
0.001088
0.00108831
0.0011159
0.00108632
0.00111406
0.00111402
0.00108752
0.00108736
0.00111438
0.00108814
0.00108793
0.00111611
0.00108545
0.0011144
0.00108767
0.00108791
0.00108594
0.00108134
0.00105272
0.00107966
0.00108005
0.00105476
0.00105504
0.0010818
0.00105293
0.00107907
0.00107884
0.00105434
0.00105428
0.00107939
0.00105467
0.00105427
0.00108083
0.00105236
0.0010793
0.00105411
0.00105416
0.00105232
0.00104816
0.00101786
0.00104623
0.00104631
0.00101972
0.00101941
0.00104825
0.00101743
0.00104607
0.00104605
0.00102041
0.0010207
0.00104588
0.00101973
0.00102009
0.00104789
0.00101855
0.00104588
0.00102057
0.00102031
0.00101805
0.00101304
0.000982781
0.00101086
0.00101059
0.000984885
0.000984612
0.00101263
0.000982525
0.00101159
0.00101192
0.000985072
0.000985094
0.00101131
0.000984788
0.000985039
0.00101375
0.000982941
0.00101155
0.000985132
0.000985046
0.000982887
0.000978068
0.000948343
0.000976303
0.000976049
0.000950544
0.000950586
0.000977825
0.000948593
0.000976292
0.000976289
0.000950229
0.000950062
0.000976326
0.000950431
0.000950375
0.000978135
0.000947942
0.000976268
0.00095009
0.000950218
0.000948243
0.00094369
0.00091431
0.000941947
0.000942127
0.000916179
0.000916616
0.000943998
0.000914757
0.000941628
0.000941376
0.000915922
0.000915825
0.000941804
0.000916543
0.000916293
0.000943258
0.000914159
0.000941653
0.000915942
0.000916229
0.00091447
0.000909708
0.000880377
0.000907677
0.000908069
0.000882217
0.000882256
0.000910128
0.000880076
0.000907449
0.000907432
0.00088228
0.000882253
0.00090778
0.000882188
0.000882019
0.000909588
0.000880425
0.000907749
0.000882215
0.000882161
0.000880101
0.000875714
0.000845121
0.000873597
0.000873504
0.000847312
0.000847012
0.000875309
0.000844835
0.00087388
0.000873813
0.00084759
0.000847573
0.000873293
0.000847059
0.000847106
0.000875805
0.000845232
0.000873529
0.000847499
0.000847236
0.000844978
0.000840259
0.000810035
0.000838415
0.000838148
0.000812233
0.000812048
0.000840018
0.000810137
0.0008386
0.000838649
0.000812063
0.000812311
0.000838439
0.000812191
0.000812624
0.000840413
0.000810189
0.000838464
0.000812373
0.000812403
0.000810457
0.000805389
0.000776661
0.000803658
0.00080359
0.000778492
0.000778613
0.000805546
0.000776802
0.000803482
0.000803715
0.000778332
0.000778333
0.000804095
0.000778599
0.000778535
0.000805528
0.000776583
0.000803883
0.000778431
0.000778486
0.000776651
0.000772095
0.000742509
0.000770119
0.000770232
0.000744393
0.000744492
0.000772205
0.000742446
0.000769981
0.000769897
0.000744383
0.000744186
0.000769964
0.000744326
0.000743944
0.000771986
0.000742259
0.000769967
0.000744116
0.000744003
0.000742052
0.000737733
0.000706876
0.000735624
0.000735703
0.000708958
0.000708973
0.000737648
0.000706847
0.000735631
0.000735458
0.000709058
0.000708937
0.000735214
0.000708948
0.000708998
0.000737479
0.00070687
0.000735269
0.000708871
0.000709058
0.000707006
0.000702021
0.000671672
0.000700063
0.000700068
0.000673757
0.000673735
0.000702023
0.000671763
0.000700149
0.000700087
0.000673784
0.000673895
0.000700275
0.000673928
0.000674108
0.000702068
0.000671932
0.000700339
0.000674098
0.000674154
0.000671976
0.000666984
0.000637713
0.000665161
0.000665126
0.000639662
0.000639565
0.000667066
0.000637584
0.000665159
0.000665307
0.000639667
0.00063978
0.00066536
0.000639535
0.000639493
0.000667237
0.000637703
0.000665363
0.000639718
0.000639472
0.000637494
0.000633095
0.000603424
0.00063114
0.000631057
0.000605352
0.000605313
0.000632937
0.000603316
0.000631169
0.000631274
0.000605391
0.000605446
0.000630945
0.000605179
0.000605224
0.000633062
0.000603368
0.000630934
0.000605257
0.000605224
0.000603275
0.000598672
0.00056849
0.000596669
0.000596652
0.00057055
0.000570656
0.00059861
0.000568739
0.000596685
0.000596734
0.000570401
0.000570375
0.000596638
0.000570713
0.000570754
0.000598628
0.000568457
0.000596615
0.000570483
0.000570665
0.000568751
0.000563717
0.00053357
0.000561837
0.000561981
0.000535617
0.000535812
0.000564002
0.000533721
0.000561652
0.000561568
0.000535526
0.000535318
0.000562066
0.000535868
0.000535654
0.000563671
0.000533457
0.000561956
0.000535462
0.000535664
0.000533606
0.000528802
0.000498537
0.000526832
0.000526945
0.000500421
0.000500264
0.000528869
0.00049819
0.000526817
0.000526659
0.00050062
0.000500682
0.000526706
0.000500166
0.000500127
0.00052871
0.000498646
0.000526809
0.000500544
0.000500321
0.000498203
0.000493749
0.000463596
0.000491633
0.000491412
0.000465495
0.000465273
0.000493361
0.000463404
0.000491869
0.000492008
0.000465647
0.000465916
0.00049132
0.000465269
0.000465478
0.000493891
0.000463847
0.000491505
0.00046581
0.000465534
0.000463585
0.000458863
0.0004291
0.000456894
0.000456768
0.000431261
0.000431465
0.00045877
0.000429549
0.000456929
0.000457162
0.00043104
0.000430995
0.000457037
0.000431576
0.000431636
0.000459083
0.000428979
0.000457017
0.000431113
0.000431438
0.000429444
0.000424413
0.000394291
0.000422675
0.000422956
0.00039644
0.000396505
0.00042487
0.000394309
0.000422456
0.000422355
0.000396378
0.000396108
0.000422913
0.000396433
0.000396198
0.00042427
0.000393994
0.00042271
0.000396086
0.000396149
0.000394053
0.000389412
0.000358304
0.000387503
0.000387481
0.000360229
0.000360227
0.000389392
0.000358206
0.000387453
0.000387189
0.0003603
0.000360362
0.000387203
0.000360209
0.00036017
0.000389107
0.00035851
0.000387192
0.000360383
0.000360275
0.000358327
0.000353445
0.000323322
0.000351253
0.000351262
0.000325083
0.000325087
0.000353348
0.000323265
0.000351363
0.000351552
0.000325218
0.00032542
0.000351345
0.000325126
0.000325242
0.000353688
0.000323563
0.000351477
0.00032543
0.000325352
0.000323451
0.000318645
0.000288858
0.000316539
0.000316513
0.000290888
0.000290789
0.000318577
0.000288801
0.000316656
0.0003168
0.000290903
0.000290869
0.000316645
0.000290803
0.000290882
0.000318849
0.000288725
0.000316712
0.000290804
0.000290821
0.000288806
0.000284055
0.00025332
0.000282184
0.000282095
0.000255504
0.000255542
0.000284029
0.000253408
0.000282144
0.000282042
0.000255412
0.00025536
0.000282174
0.000255548
0.000255545
0.000283903
0.000253242
0.00028207
0.000255385
0.000255472
0.000253353
0.000248472
0.000217953
0.000246595
0.000246657
0.000219996
0.000220048
0.000248553
0.000217964
0.000246517
0.000246498
0.000219972
0.000219997
0.00024665
0.000220003
0.000219938
0.000248412
0.000217963
0.000246606
0.000220005
0.000219969
0.000217892
0.000213156
0.000182688
0.00021118
0.000211208
0.000184689
0.000184632
0.000213139
0.000182627
0.000211167
0.000211182
0.000184698
0.00018464
0.000211028
0.000184582
0.000184421
0.000213151
0.000182626
0.000211075
0.000184591
0.000184432
0.000182518
0.000177809
0.00014673
0.000175774
0.000175715
0.000148734
0.000148742
0.000177767
0.000146788
0.000175786
0.000175712
0.000148735
0.00014869
0.00017561
0.000148801
0.000148872
0.000177754
0.000146742
0.000175601
0.000148726
0.000148846
0.000146889
0.000141786
0.00011097
0.000139696
0.00013974
0.000112907
0.000113012
0.000141871
0.000111086
0.000139702
0.000139719
0.000112919
0.00011303
0.000139953
0.000113114
0.000113299
0.000141836
0.000111107
0.000139921
0.000113108
0.000113268
0.00011132
0.000106138
7.58309e-05
0.000104113
0.000104206
7.78354e-05
7.78013e-05
0.000106232
7.56757e-05
0.000104125
0.000104247
7.78551e-05
7.79124e-05
0.000104463
7.76995e-05
7.76168e-05
0.00010627
7.58042e-05
0.000104452
7.78582e-05
7.77056e-05
7.55502e-05
7.09602e-05
4.02319e-05
6.90676e-05
6.89467e-05
4.23707e-05
4.22414e-05
7.07589e-05
4.00877e-05
6.90788e-05
6.90501e-05
4.23544e-05
4.21984e-05
6.86989e-05
4.21447e-05
4.19894e-05
7.08707e-05
4.00238e-05
6.875e-05
4.21065e-05
4.19877e-05
3.98673e-05
3.52902e-05
8.017e-06
3.35775e-05
3.35007e-05
1.11621e-05
1.12269e-05
3.51783e-05
8.14646e-06
3.35477e-05
3.33814e-05
1.11244e-05
1.10178e-05
3.32006e-05
1.12274e-05
1.10857e-05
3.50912e-05
7.9701e-06
3.31923e-05
1.09857e-05
1.09937e-05
8.10865e-06
4.78568e-06
6.72539e-06
6.73525e-06
4.93484e-06
6.74028e-06
6.61887e-06
5.76952e-06
5.64565e-06
5.69549e-06
6.83145e-06
4.81579e-06
6.76518e-06
0.00353101
0.00353354
0.00353229
0.00353244
0.00355949
0.00353348
0.00356311
0.00353383
0.00355974
0.00353362
0.00353388
0.00356321
0.00354468
0.00356648
0.00356651
0.00350366
0.00351714
0.00352108
0.00349598
0.00349387
0.00349936
0.00350357
0.00351724
0.00352117
0.00349591
0.00351953
0.00351953
0.00351954
0.00349314
0.00349316
0.00349311
0.00349308
0.00350327
0.00351485
0.0035201
0.00351082
0.00352224
0.00350036
0.00351107
0.00349401
0.00349943
0.00350322
0.00352014
0.00351495
0.0035108
0.00352224
0.00351111
0.00350034
0.003521
0.00352096
0.00350807
0.00350028
0.00350023
0.003476
0.00349034
0.00349017
0.00347403
0.0034875
0.00347308
0.00347596
0.00349037
0.00349018
0.00347405
0.00348407
0.00348402
0.00348396
0.00345562
0.00345565
0.00345561
0.00345555
0.0034738
0.00348882
0.00348257
0.00347308
0.00348729
0.00347433
0.0034731
0.00348756
0.00347306
0.0034738
0.00348252
0.00348879
0.00347314
0.00348724
0.00347318
0.00347432
0.00349055
0.00349064
0.00347158
0.00347467
0.00347449
0.0034335
0.00344824
0.00344917
0.00343214
0.00344713
0.00343126
0.00343352
0.00344819
0.00344914
0.00343223
0.00344556
0.00344552
0.00344545
0.00341296
0.00341298
0.00341294
0.00341291
0.00343222
0.00344784
0.00344363
0.00343318
0.00344678
0.00343271
0.00343318
0.00344701
0.00343128
0.0034322
0.00344365
0.00344785
0.00343319
0.00344677
0.00343321
0.00343259
0.00344854
0.00344846
0.00343046
0.00343249
0.00343259
0.00338719
0.00340356
0.00340505
0.00338576
0.00340285
0.00338522
0.00338718
0.00340359
0.00340501
0.00338579
0.00340145
0.00340141
0.00340137
0.00336556
0.00336557
0.00336554
0.00336551
0.00338631
0.00340343
0.00339977
0.00338797
0.00340283
0.00338645
0.00338801
0.0034029
0.00338523
0.0033863
0.00339976
0.0034034
0.00338806
0.00340282
0.00338805
0.0033864
0.00340365
0.00340386
0.00338472
0.00338591
0.00338571
0.00333825
0.00335538
0.00335676
0.00333708
0.00335497
0.00333678
0.00333827
0.00335542
0.00335672
0.00333706
0.00335339
0.00335336
0.00335332
0.00331671
0.00331671
0.0033167
0.00331671
0.00333786
0.0033554
0.00335197
0.00333978
0.00335505
0.0033378
0.0033398
0.00335495
0.00333678
0.00333784
0.00335193
0.00335534
0.00333972
0.003355
0.00333976
0.00333781
0.00335541
0.00335539
0.0033364
0.00333715
0.00333683
0.00328913
0.00330652
0.00330753
0.00328829
0.00330625
0.00328808
0.00328919
0.00330646
0.00330749
0.0032883
0.00330452
0.00330452
0.00330451
0.00326822
0.00326824
0.00326822
0.00326817
0.00328913
0.00330652
0.00330328
0.00329112
0.0033063
0.00328896