/*--------------------------------*- C++ -*----------------------------------*\
| =========                 |                                                 |
| \\      /  F ield         | OpenFOAM: The Open Source CFD Toolbox           |
|  \\    /   O peration     | Version:  v2012                                 |
|   \\  /    A nd           | Website:  www.openfoam.com                      |
|    \\/     M anipulation  |                                                 |
\*---------------------------------------------------------------------------*/
FoamFile
{
    version     2.0;
    format      ascii;
    class       volScalarField;
    location    "1512.5";
    object      epsilon;
}
// * * * * * * * * * * * * * * * * * * * * * * * * * * * * * * * * * * * * * //

dimensions      [0 2 -3 0 0 0 0];


internalField   nonuniform List<scalar> 
171728
(
1.3814e-09
3.40971e-09
4.85565e-09
5.18141e-09
1.34761e-09
3.17366e-09
4.43752e-09
4.77054e-09
1.28149e-09
2.92698e-09
4.02776e-09
4.40851e-09
1.22036e-09
2.70522e-09
3.66821e-09
3.99808e-09
1.16316e-09
2.51477e-09
3.35836e-09
3.64104e-09
1.10875e-09
2.36033e-09
3.09932e-09
3.37151e-09
1.05769e-09
2.23882e-09
2.8874e-09
3.13273e-09
1.00964e-09
2.14883e-09
2.72203e-09
2.92056e-09
9.61605e-10
2.0896e-09
2.59692e-09
2.77078e-09
9.15145e-10
2.06023e-09
2.51024e-09
2.64819e-09
8.7035e-10
2.06681e-09
2.46207e-09
2.52495e-09
8.2707e-10
2.10109e-09
2.4545e-09
2.42684e-09
7.87385e-10
2.18119e-09
2.49463e-09
2.37528e-09
7.54339e-10
2.31545e-09
2.5992e-09
2.40371e-09
7.22496e-10
2.5308e-09
2.78131e-09
2.50087e-09
6.94192e-10
2.85577e-09
3.08313e-09
2.70507e-09
6.67517e-10
3.35242e-09
3.57283e-09
3.09952e-09
6.423e-10
4.12987e-09
4.29515e-09
3.84738e-09
6.26101e-10
5.20114e-09
5.40707e-09
5.18826e-09
6.20395e-10
6.83072e-09
7.0961e-09
7.0628e-09
6.22122e-10
9.30301e-09
9.52365e-09
1.14176e-08
6.3151e-10
1.24099e-08
1.28816e-08
1.76721e-08
6.54538e-10
1.75614e-08
1.83328e-08
2.87436e-08
6.98037e-10
2.48807e-08
2.56187e-08
4.67321e-08
7.70797e-10
3.29871e-08
3.25034e-08
7.22674e-08
8.89335e-10
4.38658e-08
4.5639e-08
1.09904e-07
1.0741e-09
5.78834e-08
5.7666e-08
1.59241e-07
1.32809e-09
7.63223e-08
7.64332e-08
2.16225e-07
1.68826e-09
9.47762e-08
9.52595e-08
2.90677e-07
2.17275e-09
1.18725e-07
1.18355e-07
3.6378e-07
2.94222e-09
1.42444e-07
1.43952e-07
4.4611e-07
3.75486e-09
1.7314e-07
1.73158e-07
5.1509e-07
5.35927e-09
2.06175e-07
2.05468e-07
5.90484e-07
6.68882e-09
2.39341e-07
2.40667e-07
6.48601e-07
9.49205e-09
2.824e-07
2.80816e-07
7.08724e-07
1.17621e-08
3.14338e-07
3.16592e-07
7.59107e-07
1.54439e-08
3.68318e-07
3.69197e-07
8.01478e-07
2.04709e-08
4.05334e-07
4.02168e-07
8.00736e-07
2.61307e-08
4.50301e-07
4.55852e-07
9.34619e-07
3.25288e-08
5.14636e-07
5.09736e-07
9.35886e-07
4.17798e-08
5.39609e-07
5.47247e-07
9.28704e-07
4.91417e-08
6.05315e-07
5.96757e-07
9.69861e-07
6.3931e-08
6.49287e-07
6.52867e-07
9.98291e-07
7.34427e-08
6.85425e-07
6.86032e-07
1.04037e-06
9.36023e-08
7.54777e-07
7.54367e-07
1.08144e-06
1.09466e-07
7.79814e-07
7.86554e-07
1.09333e-06
1.26319e-07
8.25883e-07
8.14168e-07
1.10291e-06
1.53298e-07
8.65308e-07
8.7527e-07
1.14516e-06
1.69816e-07
9.02471e-07
9.01175e-07
1.17633e-06
2.01396e-07
9.45184e-07
9.39876e-07
1.18892e-06
2.34754e-07
9.62506e-07
9.75506e-07
1.22144e-06
2.53191e-07
1.00321e-06
9.92572e-07
1.24232e-06
2.74882e-07
1.02719e-06
1.03188e-06
1.24978e-06
3.31742e-07
1.05528e-06
1.05414e-06
1.27526e-06
3.5892e-07
1.06982e-06
1.06725e-06
1.3064e-06
3.76474e-07
1.10419e-06
1.10651e-06
1.32197e-06
4.17436e-07
1.12245e-06
1.12402e-06
1.31854e-06
4.44901e-07
1.13347e-06
1.13072e-06
1.33642e-06
4.65566e-07
1.16238e-06
1.15916e-06
1.37848e-06
5.02078e-07
1.17054e-06
1.18007e-06
1.3852e-06
5.26134e-07
1.18899e-06
1.18454e-06
1.38801e-06
5.54768e-07
1.20341e-06
1.2055e-06
1.40514e-06
5.8169e-07
1.22229e-06
1.22513e-06
1.4173e-06
5.9409e-07
1.22312e-06
1.22e-06
1.42345e-06
6.11891e-07
1.24636e-06
1.23155e-06
1.42878e-06
6.52796e-07
1.26952e-06
1.28043e-06
1.4742e-06
6.61471e-07
1.24721e-06
1.26811e-06
1.46087e-06
6.61641e-07
1.25182e-06
1.24491e-06
1.44036e-06
6.84453e-07
1.29802e-06
1.26808e-06
1.47578e-06
7.18254e-07
1.30959e-06
1.31667e-06
1.51722e-06
7.32065e-07
1.28993e-06
1.31562e-06
1.50211e-06
7.259e-07
1.27673e-06
1.27813e-06
1.46985e-06
7.28892e-07
1.29232e-06
1.27707e-06
1.48595e-06
7.58716e-07
1.32427e-06
1.32112e-06
1.51721e-06
7.81502e-07
1.32574e-06
1.32987e-06
1.52903e-06
7.78315e-07
1.31125e-06
1.31824e-06
1.5314e-06
7.77175e-07
1.31047e-06
1.31735e-06
1.51611e-06
7.88449e-07
1.31204e-06
1.31393e-06
1.49516e-06
7.97931e-07
1.31904e-06
1.31123e-06
1.52045e-06
8.07687e-07
1.33243e-06
1.32763e-06
1.54669e-06
8.12619e-07
1.32518e-06
1.33056e-06
1.53195e-06
8.11053e-07
1.31379e-06
1.32494e-06
1.51854e-06
8.09716e-07
1.32327e-06
1.31701e-06
1.53676e-06
8.10921e-07
1.32524e-06
1.30448e-06
1.53322e-06
8.0957e-07
1.30213e-06
1.3008e-06
1.50078e-06
8.1235e-07
1.30384e-06
1.32567e-06
1.52466e-06
8.22262e-07
1.32615e-06
1.33467e-06
1.56155e-06
8.1466e-07
1.31037e-06
1.30092e-06
1.52962e-06
7.93758e-07
1.27978e-06
1.27408e-06
1.48186e-06
7.92931e-07
1.28233e-06
1.28344e-06
1.48971e-06
8.04684e-07
1.29768e-06
1.29773e-06
1.52765e-06
8.03328e-07
1.29288e-06
1.29238e-06
1.53866e-06
7.93159e-07
1.27904e-06
1.28298e-06
1.51368e-06
7.82279e-07
1.26229e-06
1.26325e-06
1.46906e-06
7.5259e-07
1.19477e-06
1.19012e-06
1.4199e-06
5.14692e-09
4.17851e-09
3.95998e-09
4.96566e-09
3.70977e-09
3.95254e-09
1.35602e-09
1.35605e-09
1.48517e-09
1.60222e-09
3.68616e-09
3.95043e-09
5.29299e-09
4.31093e-09
4.62863e-09
5.23147e-09
5.12668e-09
4.64344e-09
4.89647e-09
4.84275e-09
4.66821e-09
4.55886e-09
4.94615e-09
4.4986e-09
3.27826e-09
4.53523e-09
3.10054e-09
4.25772e-09
4.44236e-09
3.23877e-09
4.17535e-09
5.26786e-09
4.7848e-09
9.69272e-09
4.54997e-09
9.72579e-09
4.84257e-09
4.61315e-09
4.17909e-09
4.57171e-09
4.44614e-09
4.30863e-09
4.11483e-09
4.46914e-09
4.05661e-09
3.03315e-09
4.16242e-09
2.84286e-09
3.90947e-09
4.0782e-09
2.98664e-09
3.80925e-09
4.75073e-09
4.31525e-09
9.67204e-09
4.12522e-09
9.19225e-09
4.48639e-09
4.15454e-09
3.7963e-09
4.22865e-09
4.00655e-09
4.00398e-09
3.705e-09
4.03135e-09
3.67328e-09
2.78359e-09
3.83188e-09
2.61541e-09
3.61315e-09
3.72467e-09
2.75778e-09
3.48405e-09
4.28604e-09
3.91619e-09
8.93342e-09
3.75352e-09
7.81225e-09
4.04495e-09
3.77604e-09
3.47405e-09
3.93359e-09
3.61121e-09
3.73948e-09
3.34191e-09
3.65136e-09
3.34029e-09
2.56334e-09
3.54535e-09
2.41719e-09
3.3552e-09
3.40844e-09
2.55874e-09
3.19783e-09
3.89102e-09
3.57589e-09
7.38063e-09
3.43095e-09
6.17618e-09
3.67005e-09
3.45729e-09
3.20027e-09
3.68064e-09
3.25929e-09
3.51552e-09
3.03945e-09
3.32228e-09
3.05837e-09
2.37223e-09
3.29623e-09
2.24954e-09
3.13122e-09
3.13538e-09
2.39605e-09
2.97063e-09
3.55445e-09
3.28539e-09
5.8414e-09
3.1594e-09
5.05779e-09
3.39056e-09
3.18682e-09
2.96355e-09
3.46595e-09
2.97441e-09
3.32764e-09
2.801e-09
3.04417e-09
2.81979e-09
2.21266e-09
3.08148e-09
2.11453e-09
2.94718e-09
2.9218e-09
2.26612e-09
2.78967e-09
3.26765e-09
3.03976e-09
4.8514e-09
2.93557e-09
4.31714e-09
3.15082e-09
2.95364e-09
2.76667e-09
3.28572e-09
2.74984e-09
3.1809e-09
2.61946e-09
2.80952e-09
2.62813e-09
2.08639e-09
2.90794e-09
2.01361e-09
2.80558e-09
2.7511e-09
2.16792e-09
2.64834e-09
3.02592e-09
2.83532e-09
4.16422e-09
2.75901e-09
3.75062e-09
2.93163e-09
2.76056e-09
2.6088e-09
3.15144e-09
2.58305e-09
3.07674e-09
2.49176e-09
2.62162e-09
2.47573e-09
1.9942e-09
2.77572e-09
1.9453e-09
2.70298e-09
2.6195e-09
2.10194e-09
2.55047e-09
2.82521e-09
2.67085e-09
3.64437e-09
2.6243e-09
3.39853e-09
2.77607e-09
2.60637e-09
2.48763e-09
3.05811e-09
2.46585e-09
3.02104e-09
2.40721e-09
2.47367e-09
2.36506e-09
1.93361e-09
2.68441e-09
1.90753e-09
2.64117e-09
2.52975e-09
2.06492e-09
2.48363e-09
2.66502e-09
2.54338e-09
3.33067e-09
2.52839e-09
3.16119e-09
2.65072e-09
2.48876e-09
2.39823e-09
3.01253e-09
2.39144e-09
2.9936e-09
2.36767e-09
2.36656e-09
2.28831e-09
1.90381e-09
2.62977e-09
1.90063e-09
2.61196e-09
2.47616e-09
2.06325e-09
2.46877e-09
2.54185e-09
2.45166e-09
3.10333e-09
2.47088e-09
2.91526e-09
2.52496e-09
2.40231e-09
2.33748e-09
2.98694e-09
2.36383e-09
2.96902e-09
2.37167e-09
2.2936e-09
2.24601e-09
1.90281e-09
2.61003e-09
1.92384e-09
2.61537e-09
2.47022e-09
2.09159e-09
2.4923e-09
2.45426e-09
2.39514e-09
2.87092e-09
2.45239e-09
2.75158e-09
2.42156e-09
2.34773e-09
2.321e-09
2.96375e-09
2.38191e-09
2.97448e-09
2.42297e-09
2.25786e-09
2.23998e-09
1.93506e-09
2.62074e-09
1.98628e-09
2.65455e-09
2.49965e-09
2.16056e-09
2.53376e-09
2.40342e-09
2.37757e-09
2.7159e-09
2.47954e-09
2.66446e-09
2.36432e-09
2.34139e-09
2.35941e-09
2.98727e-09
2.44112e-09
3.05193e-09
2.51785e-09
2.25972e-09
2.27945e-09
2.00935e-09
2.66946e-09
2.0977e-09
2.73028e-09
2.55442e-09
2.28138e-09
2.62493e-09
2.3955e-09
2.40941e-09
2.6676e-09
2.56624e-09
2.66337e-09
2.37459e-09
2.3931e-09
2.46376e-09
3.0846e-09
2.55047e-09
3.21455e-09
2.68026e-09
2.30921e-09
2.37776e-09
2.13565e-09
2.75663e-09
2.27648e-09
2.85779e-09
2.65961e-09
2.47361e-09
2.79728e-09
2.44035e-09
2.50487e-09
2.65466e-09
2.72619e-09
2.65517e-09
2.45143e-09
2.51751e-09
2.65889e-09
3.26644e-09
2.73442e-09
3.47442e-09
2.95201e-09
2.43742e-09
2.56298e-09
2.33537e-09
2.90265e-09
2.55565e-09
3.08606e-09
2.8514e-09
2.76975e-09
3.08096e-09
2.55668e-09
2.69275e-09
2.66723e-09
3.00076e-09
2.82596e-09
2.61626e-09
2.7501e-09
3.00491e-09
3.55513e-09
3.03973e-09
3.87524e-09
3.37805e-09
2.64848e-09
2.94042e-09
2.64834e-09
3.16057e-09
2.98536e-09
3.46186e-09
3.16904e-09
3.2207e-09
3.53054e-09
2.78072e-09
3.03459e-09
2.89963e-09
3.42745e-09
3.21709e-09
2.96408e-09
3.1456e-09
3.58661e-09
3.9785e-09
3.52339e-09
4.39842e-09
4.07193e-09
3.09417e-09
3.60133e-09
3.11667e-09
3.5858e-09
3.62229e-09
4.08157e-09
3.66309e-09
3.89613e-09
4.17256e-09
3.17806e-09
3.63205e-09
3.32735e-09
4.06797e-09
3.86917e-09
3.60608e-09
3.82628e-09
4.69701e-09
4.60404e-09
4.31323e-09
5.27423e-09
5.05239e-09
3.86866e-09
4.62704e-09
3.8291e-09
4.29315e-09
4.63852e-09
5.0463e-09
4.37341e-09
4.84972e-09
5.2239e-09
3.87014e-09
4.71809e-09
4.06179e-09
5.08235e-09
4.85017e-09
4.73901e-09
5.10993e-09
6.44289e-09
5.54477e-09
5.4234e-09
6.59018e-09
6.63674e-09
5.05319e-09
6.57887e-09
4.94323e-09
5.39626e-09
6.06935e-09
6.65459e-09
5.53445e-09
6.30837e-09
6.50532e-09
5.11501e-09
6.64846e-09
5.19044e-09
6.61408e-09
6.24692e-09
6.43933e-09
7.09844e-09
9.8035e-09
7.02028e-09
7.183e-09
8.66297e-09
9.14693e-09
7.31411e-09
1.03402e-08
6.53926e-09
7.08905e-09
8.20947e-09
9.14699e-09
6.95083e-09
8.62827e-09
8.87434e-09
7.30512e-09
1.01943e-08
6.69592e-09
8.78698e-09
8.55797e-09
1.0131e-08
1.09934e-08
1.60626e-08
9.427e-09
9.89077e-09
1.20886e-08
1.24091e-08
1.13814e-08
1.56978e-08
8.94233e-09
9.89195e-09
1.15601e-08
1.39494e-08
9.60555e-09
1.1432e-08
1.20671e-08
1.12199e-08
1.69603e-08
9.27317e-09
1.21364e-08
1.17094e-08
1.5845e-08
1.77452e-08
2.53324e-08
1.29638e-08
1.35785e-08
1.63665e-08
1.84151e-08
1.7389e-08
2.81644e-08
1.24412e-08
1.51202e-08
1.59238e-08
2.06173e-08
1.30723e-08
1.67239e-08
1.65068e-08
1.88415e-08
2.78558e-08
1.27388e-08
1.72266e-08
1.62972e-08
2.60239e-08
2.83821e-08
4.14782e-08
1.77695e-08
1.94841e-08
2.23443e-08
2.54071e-08
3.10331e-08
4.09808e-08
1.73181e-08
2.22692e-08
2.2009e-08
2.7586e-08
1.76814e-08
2.2474e-08
2.26935e-08
3.15455e-08
4.37154e-08
1.75391e-08
2.26374e-08
2.25863e-08
4.20927e-08
4.57713e-08
6.64008e-08
2.43272e-08
2.81e-08
3.07536e-08
3.35204e-08
4.75605e-08
6.81507e-08
2.39896e-08
3.14581e-08
3.03612e-08
3.87921e-08
2.45042e-08
2.98891e-08
3.08833e-08
5.01892e-08
7.31011e-08
2.43827e-08
3.15382e-08
3.08268e-08
6.60561e-08
7.24441e-08
1.01619e-07
3.30743e-08
3.6711e-08
4.21631e-08
4.68085e-08
7.25833e-08
1.10055e-07
3.25841e-08
3.93276e-08
4.15791e-08
4.28173e-08
3.34922e-08
4.22204e-08
4.16656e-08
7.50039e-08
9.21258e-08
3.34523e-08
4.14127e-08
4.15855e-08
1.02102e-07
1.10557e-07
1.44489e-07
4.50401e-08
4.85618e-08
5.45375e-08
5.56402e-08
1.16055e-07
1.36822e-07
4.44977e-08
4.68891e-08
5.41097e-08
6.12614e-08
4.45188e-08
5.36624e-08
5.54606e-08
1.05004e-07
1.55449e-07
4.45905e-08
5.49453e-08
5.54236e-08
1.47428e-07
1.54711e-07
2.08725e-07
5.87138e-08
5.91861e-08
7.19722e-08
7.42715e-08
1.50166e-07
2.11458e-07
5.83711e-08
6.50377e-08
7.15145e-08
7.69101e-08
5.93039e-08
7.1364e-08
7.1108e-08
1.63531e-07
2.03201e-07
5.92415e-08
7.10651e-08
7.09301e-08
2.04726e-07
2.21721e-07
2.72357e-07
7.65882e-08
7.96574e-08
8.96681e-08
9.26705e-08
2.24309e-07
2.79412e-07
7.56321e-08
8.09939e-08
8.94129e-08
9.14241e-08
7.57023e-08
8.96311e-08
9.1332e-08
2.17408e-07
2.76479e-07
7.55317e-08
9.06047e-08
9.07005e-08
2.75332e-07
2.87223e-07
3.52635e-07
9.56342e-08
9.72869e-08
1.13894e-07
1.14144e-07
2.93043e-07
3.51269e-07
9.50482e-08
9.53029e-08
1.12586e-07
1.12226e-07
9.64802e-08
1.12998e-07
1.12115e-07
2.8887e-07
3.44634e-07
9.58342e-08
1.11801e-07
1.118e-07
3.48277e-07
3.6836e-07
4.25497e-07
1.18579e-07
1.19682e-07
1.38381e-07
1.36456e-07
3.67778e-07
4.23884e-07
1.18104e-07
1.19103e-07
1.37189e-07
1.38209e-07
1.18814e-07
1.36223e-07
1.40103e-07
3.62565e-07
4.28343e-07
1.18454e-07
1.37968e-07
1.38674e-07
4.30742e-07
4.40679e-07
4.99311e-07
1.46067e-07
1.42752e-07
1.64381e-07
1.65664e-07
4.37426e-07
4.98759e-07
1.44454e-07
1.43929e-07
1.63616e-07
1.64806e-07
1.45489e-07
1.63905e-07
1.65817e-07
4.42217e-07
4.98869e-07
1.44039e-07
1.64328e-07
1.64469e-07
4.98343e-07
5.15233e-07
5.7458e-07
1.72061e-07
1.75041e-07
2.02542e-07
1.99862e-07
5.17401e-07
5.76639e-07
1.70875e-07
1.74062e-07
2.00726e-07
1.99973e-07
1.75191e-07
1.99568e-07
2.03128e-07
5.15729e-07
5.72766e-07
1.73248e-07
1.9902e-07
2.01112e-07
5.76902e-07
5.89701e-07
6.35253e-07
2.10751e-07
2.06902e-07
2.29791e-07
2.30817e-07
5.89795e-07
6.3371e-07
2.09358e-07
2.05936e-07
2.28001e-07
2.30254e-07
2.095e-07
2.29002e-07
2.29056e-07
5.8674e-07
6.33211e-07
2.08123e-07
2.29179e-07
2.27013e-07
6.32283e-07
6.48491e-07
6.9548e-07
2.40021e-07
2.41557e-07
2.77218e-07
2.74345e-07
6.48722e-07
6.97095e-07
2.37671e-07
2.42463e-07
2.73451e-07
2.73465e-07
2.41681e-07
2.7304e-07
2.81111e-07
6.48312e-07
6.96104e-07
2.3859e-07
2.73218e-07
2.76598e-07
6.984e-07
7.10132e-07
7.43528e-07
2.86131e-07
2.8339e-07
3.0794e-07
3.06666e-07
7.0949e-07
7.4032e-07
2.82567e-07
2.80812e-07
3.08045e-07
3.07947e-07
2.89887e-07
3.05489e-07
3.06994e-07
7.08207e-07
7.40965e-07
2.85474e-07
3.05952e-07
3.04489e-07
7.41653e-07
7.54151e-07
7.88995e-07
3.18912e-07
3.16694e-07
3.52697e-07
3.54998e-07
7.51918e-07
7.9244e-07
3.1869e-07
3.19494e-07
3.51783e-07
3.55881e-07
3.1835e-07
3.54028e-07
3.64702e-07
7.53066e-07
7.92746e-07
3.18839e-07
3.558e-07
3.65286e-07
7.99196e-07
8.01435e-07
8.34239e-07
3.62825e-07
3.67832e-07
4.01061e-07
4.00216e-07
8.04785e-07
8.29816e-07
3.62804e-07
3.67823e-07
3.99231e-07
3.99094e-07
3.71318e-07
3.98966e-07
3.8286e-07
8.04174e-07
8.28037e-07
3.70595e-07
3.96659e-07
3.78939e-07
7.91419e-07
8.44188e-07
8.68553e-07
4.12684e-07
4.08951e-07
4.46402e-07
4.38616e-07
8.37863e-07
8.64302e-07
4.09961e-07
4.0646e-07
4.44831e-07
4.39716e-07
3.88599e-07
4.32857e-07
4.48698e-07
8.36487e-07
8.64697e-07
3.84297e-07
4.35301e-07
4.52827e-07
9.08994e-07
8.78027e-07
9.06368e-07
4.57846e-07
4.53405e-07
4.91402e-07
5.01303e-07
8.76799e-07
9.10872e-07
4.5655e-07
4.57641e-07
4.89258e-07
4.99527e-07
4.84224e-07
5.0343e-07
5.35056e-07
8.77607e-07
9.1168e-07
4.90358e-07
5.02644e-07
5.38743e-07
9.35841e-07
9.16201e-07
9.3857e-07
5.04876e-07
5.12462e-07
5.44726e-07
5.33657e-07
9.18383e-07
9.30942e-07
5.03981e-07
5.06672e-07
5.44547e-07
5.4128e-07
5.38728e-07
5.3382e-07
5.43937e-07
9.19137e-07
9.33415e-07
5.41707e-07
5.35994e-07
5.44253e-07
9.21102e-07
9.45759e-07
9.64814e-07
5.54207e-07
5.42147e-07
5.82201e-07
5.90798e-07
9.3844e-07
9.70598e-07
5.5262e-07
5.54986e-07
5.8327e-07
5.83122e-07
5.47604e-07
5.8501e-07
5.7022e-07
9.41217e-07
9.65421e-07
5.46506e-07
5.80596e-07
5.72113e-07
9.59685e-07
9.73821e-07
1.00193e-06
5.96246e-07
6.082e-07
6.44027e-07
6.41057e-07
9.81303e-07
9.98173e-07
5.96194e-07
5.95816e-07
6.39384e-07
6.41789e-07
5.88431e-07
6.42689e-07
6.43016e-07
9.74833e-07
1.00238e-06
5.90701e-07
6.43638e-07
6.36798e-07
9.91632e-07
1.00976e-06
1.02444e-06
6.55458e-07
6.47437e-07
6.77203e-07
6.71926e-07
1.00316e-06
1.02071e-06
6.53502e-07
6.53948e-07
6.80506e-07
6.81739e-07
6.53824e-07
6.70174e-07
6.80473e-07
1.00926e-06
1.02095e-06
6.46338e-07
6.7408e-07
6.83583e-07
1.02819e-06
1.03146e-06
1.06201e-06
6.87759e-07
6.88489e-07
7.38541e-07
7.43012e-07
1.03114e-06
1.06624e-06
6.89771e-07
6.90756e-07
7.35797e-07
7.34212e-07
6.94917e-07
7.4247e-07
7.4755e-07
1.02796e-06
1.06361e-06
7.04591e-07
7.38489e-07
7.6005e-07
1.07476e-06
1.07043e-06
1.08239e-06
7.52335e-07
7.55272e-07
7.75771e-07
7.76618e-07
1.07308e-06
1.08173e-06
7.50109e-07
7.50694e-07
7.75071e-07
7.81938e-07
7.60139e-07
7.75216e-07
7.82021e-07
1.07338e-06
1.08583e-06
7.71311e-07
7.81465e-07
7.90733e-07
1.09027e-06
1.08702e-06
1.11478e-06
7.81221e-07
7.81367e-07
8.18691e-07
8.11972e-07
1.0857e-06
1.10684e-06
7.80748e-07
7.87482e-07
8.17233e-07
8.05652e-07
7.86897e-07
8.11051e-07
8.04139e-07
1.08889e-06
1.09899e-06
7.94816e-07
8.03034e-07
8.04575e-07
1.09725e-06
1.12475e-06
1.13573e-06
8.33998e-07
8.27895e-07
8.5877e-07
8.60019e-07
1.11748e-06
1.13745e-06
8.32478e-07
8.1844e-07
8.59891e-07
8.66823e-07
8.15054e-07
8.56301e-07
8.53083e-07
1.10784e-06
1.14534e-06
8.09557e-07
8.63663e-07
8.47199e-07
1.13514e-06
1.13835e-06
1.15454e-06
8.643e-07
8.65778e-07
8.88118e-07
8.85297e-07
1.14192e-06
1.157e-06
8.65484e-07
8.76318e-07
8.86272e-07
8.93121e-07
8.65806e-07
8.91953e-07
9.02626e-07
1.15168e-06
1.15932e-06
8.66796e-07
8.95854e-07
9.07851e-07
1.17089e-06
1.16606e-06
1.20083e-06
9.02281e-07
8.97481e-07
9.43812e-07
9.41739e-07
1.16498e-06
1.19558e-06
8.98099e-07
8.98691e-07
9.38207e-07
9.26886e-07
9.11136e-07
9.37134e-07
9.28146e-07
1.1632e-06
1.18542e-06
9.14613e-07
9.25746e-07
9.28905e-07
1.18479e-06
1.20579e-06
1.21171e-06
9.50994e-07
9.51925e-07
9.62606e-07
9.65501e-07
1.20212e-06
1.20791e-06
9.47804e-07
9.42139e-07
9.67143e-07
9.72473e-07
9.33678e-07
9.58406e-07
9.64718e-07
1.19546e-06
1.21772e-06
9.33956e-07
9.7064e-07
9.65799e-07
1.21182e-06
1.21472e-06
1.21714e-06
9.6653e-07
9.68381e-07
9.80148e-07
9.83997e-07
1.21022e-06
1.22541e-06
9.71722e-07
9.76888e-07
9.85132e-07
9.89826e-07
9.7632e-07
9.92083e-07
9.9913e-07
1.22136e-06
1.22676e-06
9.78806e-07
9.88001e-07
9.96619e-07
1.23919e-06
1.22043e-06
1.25132e-06
9.85014e-07
9.9247e-07
1.01761e-06
1.01923e-06
1.23463e-06
1.25692e-06
9.89486e-07
9.95063e-07
1.01659e-06
1.0221e-06
1.0038e-06
1.02146e-06
1.01534e-06
1.23117e-06
1.25694e-06
9.9897e-07
1.0194e-06
1.01099e-06
1.24589e-06
1.26352e-06
1.28785e-06
1.03249e-06
1.02933e-06
1.05886e-06
1.05768e-06
1.262e-06
1.27769e-06
1.03071e-06
1.0339e-06
1.05508e-06
1.05256e-06
1.02022e-06
1.04963e-06
1.04379e-06
1.2661e-06
1.27892e-06
1.01841e-06
1.0515e-06
1.04533e-06
1.26813e-06
1.29106e-06
1.28936e-06
1.06264e-06
1.06314e-06
1.07131e-06
1.07156e-06
1.28273e-06
1.28873e-06
1.05795e-06
1.05496e-06
1.06566e-06
1.06377e-06
1.053e-06
1.06568e-06
1.07842e-06
1.28089e-06
1.28099e-06
1.05385e-06
1.06326e-06
1.0764e-06
1.29921e-06
1.29149e-06
1.30799e-06
1.07429e-06
1.07387e-06
1.08701e-06
1.08782e-06
1.29161e-06
1.30737e-06
1.06892e-06
1.06779e-06
1.08818e-06
1.09336e-06
1.08465e-06
1.09485e-06
1.09429e-06
1.2847e-06
1.31367e-06
1.08371e-06
1.09486e-06
1.09985e-06
1.31967e-06
1.3171e-06
1.33518e-06
1.09553e-06
1.09768e-06
1.11716e-06
1.12143e-06
1.31614e-06
1.33545e-06
1.09953e-06
1.10506e-06
1.12158e-06
1.12492e-06
1.09617e-06
1.12027e-06
1.10674e-06
1.32365e-06
1.33897e-06
1.10229e-06
1.12262e-06
1.10663e-06
1.31697e-06
1.33777e-06
1.33847e-06
1.12072e-06
1.12493e-06
1.12835e-06
1.13081e-06
1.33824e-06
1.33966e-06
1.1244e-06
1.12738e-06
1.13105e-06
1.13286e-06
1.11177e-06
1.12836e-06
1.12948e-06
1.34119e-06
1.33873e-06
1.10852e-06
1.12847e-06
1.11932e-06
1.32845e-06
1.34192e-06
1.36035e-06
1.13153e-06
1.13426e-06
1.15334e-06
1.1559e-06
1.34406e-06
1.36709e-06
1.1335e-06
1.13479e-06
1.14903e-06
1.14951e-06
1.1375e-06
1.15734e-06
1.16245e-06
1.34135e-06
1.35957e-06
1.12691e-06
1.14877e-06
1.15934e-06
1.37174e-06
1.36614e-06
1.37106e-06
1.16073e-06
1.16197e-06
1.17127e-06
1.17041e-06
1.37198e-06
1.37122e-06
1.1554e-06
1.15782e-06
1.16621e-06
1.17238e-06
1.16755e-06
1.16878e-06
1.17277e-06
1.36791e-06
1.38033e-06
1.16763e-06
1.17825e-06
1.17997e-06
1.38384e-06
1.37321e-06
1.38188e-06
1.17347e-06
1.17217e-06
1.18091e-06
1.18044e-06
1.37256e-06
1.38127e-06
1.16874e-06
1.17393e-06
1.18044e-06
1.17782e-06
1.17375e-06
1.18214e-06
1.17961e-06
1.38211e-06
1.3773e-06
1.18156e-06
1.18306e-06
1.18622e-06
1.38448e-06
1.38826e-06
1.4092e-06
1.18453e-06
1.18435e-06
1.20214e-06
1.19481e-06
1.38776e-06
1.39959e-06
1.18725e-06
1.18044e-06
1.20714e-06
1.20499e-06
1.18372e-06
1.20065e-06
1.20337e-06
1.3801e-06
1.40412e-06
1.18779e-06
1.19683e-06
1.19502e-06
1.4005e-06
1.41449e-06
1.42094e-06
1.20803e-06
1.20071e-06
1.2196e-06
1.22129e-06
1.40313e-06
1.41675e-06
1.21249e-06
1.2155e-06
1.22293e-06
1.2291e-06
1.20835e-06
1.21869e-06
1.217e-06
1.41366e-06
1.42978e-06
1.19969e-06
1.22396e-06
1.21407e-06
1.41374e-06
1.42254e-06
1.41033e-06
1.22115e-06
1.22445e-06
1.2205e-06
1.2245e-06
1.42091e-06
1.41633e-06
1.22393e-06
1.22902e-06
1.22107e-06
1.21879e-06
1.21972e-06
1.22336e-06
1.22629e-06
1.43135e-06
1.40812e-06
1.21891e-06
1.22209e-06
1.22723e-06
1.42184e-06
1.41109e-06
1.4217e-06
1.22037e-06
1.22448e-06
1.23264e-06
1.2407e-06
1.41734e-06
1.43808e-06
1.21834e-06
1.21425e-06
1.22026e-06
1.21529e-06
1.22651e-06
1.23274e-06
1.22907e-06
1.40767e-06
1.40716e-06
1.22733e-06
1.22278e-06
1.22917e-06
1.42363e-06
1.43319e-06
1.47654e-06
1.2457e-06
1.25523e-06
1.2709e-06
1.26955e-06
1.45318e-06
1.478e-06
1.2288e-06
1.22426e-06
1.27362e-06
1.2817e-06
1.23429e-06
1.26958e-06
1.26668e-06
1.41842e-06
1.48864e-06
1.23393e-06
1.27463e-06
1.26676e-06
1.46844e-06
1.4805e-06
1.45638e-06
1.2715e-06
1.26789e-06
1.25904e-06
1.23946e-06
1.47822e-06
1.42217e-06
1.27895e-06
1.28947e-06
1.27372e-06
1.28403e-06
1.2715e-06
1.25298e-06
1.26935e-06
1.49744e-06
1.47938e-06
1.27207e-06
1.27688e-06
1.27054e-06
1.46199e-06
1.45451e-06
1.43476e-06
1.25201e-06
1.2343e-06
1.24678e-06
1.23917e-06
1.42056e-06
1.42322e-06
1.26536e-06
1.27202e-06
1.25072e-06
1.24167e-06
1.26396e-06
1.24633e-06
1.25463e-06
1.47517e-06
1.42058e-06
1.26495e-06
1.246e-06
1.25372e-06
1.43868e-06
1.43792e-06
1.46621e-06
1.24931e-06
1.25168e-06
1.27704e-06
1.29999e-06
1.43582e-06
1.5029e-06
1.25074e-06
1.23981e-06
1.26426e-06
1.25184e-06
1.25483e-06
1.28739e-06
1.26958e-06
1.42082e-06
1.43776e-06
1.25372e-06
1.25678e-06
1.26727e-06
1.46407e-06
1.47657e-06
1.50802e-06
1.28714e-06
1.30961e-06
1.30781e-06
1.31712e-06
1.51486e-06
1.5273e-06
1.27395e-06
1.26414e-06
1.30282e-06
1.30961e-06
1.28056e-06
1.30992e-06
1.30726e-06
1.4514e-06
1.51626e-06
1.27807e-06
1.30915e-06
1.30765e-06
1.51282e-06
1.51353e-06
1.51105e-06
1.31093e-06
1.31595e-06
1.31057e-06
1.29666e-06
1.52788e-06
1.48522e-06
1.30836e-06
1.31853e-06
1.31178e-06
1.32313e-06
1.30982e-06
1.29683e-06
1.30631e-06
1.52711e-06
1.53269e-06
1.31095e-06
1.31951e-06
1.30811e-06
1.50357e-06
1.511e-06
1.47094e-06
1.30641e-06
1.2873e-06
1.28085e-06
1.26963e-06
1.48246e-06
1.45111e-06
1.31009e-06
1.31972e-06
1.28979e-06
1.28754e-06
1.30066e-06
1.27724e-06
1.28326e-06
1.53211e-06
1.4722e-06
1.30263e-06
1.2865e-06
1.2842e-06
1.46926e-06
1.4695e-06
1.45963e-06
1.27496e-06
1.26871e-06
1.27358e-06
1.2779e-06
1.45209e-06
1.471e-06
1.28205e-06
1.27684e-06
1.27558e-06
1.26845e-06
1.28158e-06
1.28439e-06
1.28654e-06
1.46894e-06
1.45027e-06
1.2817e-06
1.27346e-06
1.28424e-06
1.47825e-06
1.46621e-06
1.51978e-06
1.27907e-06
1.28852e-06
1.31751e-06
1.32119e-06
1.48217e-06
1.52737e-06
1.27763e-06
1.27091e-06
1.31014e-06
1.30556e-06
1.29297e-06
1.31895e-06
1.31236e-06
1.45603e-06
1.50971e-06
1.28964e-06
1.31105e-06
1.3112e-06
1.51177e-06
1.53169e-06
1.54296e-06
1.32701e-06
1.32713e-06
1.33388e-06
1.32985e-06
1.53517e-06
1.53696e-06
1.32194e-06
1.318e-06
1.33372e-06
1.33277e-06
1.31649e-06
1.32735e-06
1.3243e-06
1.52212e-06
1.53909e-06
1.31669e-06
1.33046e-06
1.32582e-06
1.52616e-06
1.54342e-06
1.51141e-06
1.33212e-06
1.3274e-06
1.31482e-06
1.31197e-06
1.5372e-06
1.50788e-06
1.33297e-06
1.33269e-06
1.31884e-06
1.32426e-06
1.32562e-06
1.31408e-06
1.32602e-06
1.54029e-06
1.52207e-06
1.32686e-06
1.32066e-06
1.32645e-06
1.53019e-06
1.51105e-06
1.50129e-06
1.30978e-06
1.30802e-06
1.30592e-06
1.30535e-06
1.50797e-06
1.50079e-06
1.31387e-06
1.32057e-06
1.30905e-06
1.31629e-06
1.32497e-06
1.3096e-06
1.31709e-06
1.52246e-06
1.51531e-06
1.32505e-06
1.31702e-06
1.31766e-06
1.51657e-06
1.5043e-06
1.51289e-06
1.30674e-06
1.30621e-06
1.31482e-06
1.31212e-06
1.5037e-06
1.50912e-06
1.30942e-06
1.31637e-06
1.31512e-06
1.31696e-06
1.3132e-06
1.31227e-06
1.30542e-06
1.5171e-06
1.51428e-06
1.31373e-06
1.3161e-06
1.30433e-06
1.49412e-06
1.51619e-06
1.51824e-06
1.31682e-06
1.31339e-06
1.31855e-06
1.31822e-06
1.51152e-06
1.51851e-06
1.31682e-06
1.31661e-06
1.3174e-06
1.31331e-06
1.30507e-06
1.31431e-06
1.31218e-06
1.51524e-06
1.50899e-06
1.30361e-06
1.31074e-06
1.30901e-06
1.51074e-06
1.52054e-06
1.52815e-06
1.31931e-06
1.32139e-06
1.32586e-06
1.33062e-06
1.52417e-06
1.53981e-06
1.31726e-06
1.31312e-06
1.32064e-06
1.31822e-06
1.31971e-06
1.33131e-06
1.33347e-06
1.51148e-06
1.52383e-06
1.31662e-06
1.32401e-06
1.3334e-06
1.54388e-06
1.53244e-06
1.53711e-06
1.32799e-06
1.33164e-06
1.3293e-06
1.3296e-06
1.54298e-06
1.53466e-06
1.32363e-06
1.32156e-06
1.32977e-06
1.33043e-06
1.33385e-06
1.32935e-06
1.32723e-06
1.52871e-06
1.53647e-06
1.33445e-06
1.33082e-06
1.32997e-06
1.53223e-06
1.53856e-06
1.52877e-06
1.32837e-06
1.32614e-06
1.32114e-06
1.31569e-06
1.53477e-06
1.5153e-06
1.32997e-06
1.33229e-06
1.32621e-06
1.33274e-06
1.32275e-06
1.31453e-06
1.31584e-06
1.53924e-06
1.54071e-06
1.3258e-06
1.32657e-06
1.31702e-06
1.51686e-06
1.52973e-06
1.52463e-06
1.31946e-06
1.31459e-06
1.31833e-06
1.31715e-06
1.51632e-06
1.52405e-06
1.32384e-06
1.3308e-06
1.31773e-06
1.31995e-06
1.31587e-06
1.31831e-06
1.32358e-06
1.54212e-06
1.52897e-06
1.31657e-06
1.31911e-06
1.32026e-06
1.53159e-06
1.52623e-06
1.52195e-06
1.31881e-06
1.32155e-06
1.31898e-06
1.3255e-06
1.53071e-06
1.53862e-06
1.3166e-06
1.31502e-06
1.31241e-06
1.30158e-06
1.32655e-06
1.32701e-06
1.32572e-06
1.52889e-06
1.50179e-06
1.32266e-06
1.30778e-06
1.32202e-06
1.53355e-06
1.52281e-06
1.51275e-06
1.31751e-06
1.32417e-06
1.30894e-06
1.30827e-06
1.53941e-06
1.51199e-06
1.31054e-06
1.29899e-06
1.30629e-06
1.29782e-06
1.32102e-06
1.30676e-06
1.301e-06
1.50177e-06
1.49573e-06
1.31816e-06
1.30032e-06
1.30165e-06
1.50027e-06
1.51401e-06
1.51931e-06
1.30703e-06
1.3039e-06
1.30642e-06
1.30183e-06
1.51185e-06
1.50742e-06
1.30602e-06
1.29998e-06
1.3107e-06
1.32135e-06
1.29839e-06
1.30053e-06
1.30201e-06
1.50084e-06
1.53769e-06
1.29987e-06
1.31788e-06
1.30494e-06
1.51325e-06
1.52474e-06
1.54497e-06
1.30853e-06
1.30432e-06
1.32366e-06
1.3234e-06
1.51326e-06
1.54336e-06
1.31538e-06
1.3288e-06
1.32785e-06
1.33806e-06
1.3106e-06
1.32411e-06
1.33108e-06
1.54818e-06
1.56774e-06
1.31423e-06
1.33526e-06
1.33202e-06
1.55825e-06
1.54937e-06
1.53636e-06
1.32544e-06
1.32558e-06
1.31955e-06
1.31911e-06
1.54826e-06
1.53479e-06
1.32873e-06
1.33746e-06
1.31913e-06
1.31444e-06
1.33182e-06
1.31905e-06
1.31846e-06
1.56925e-06
1.52577e-06
1.33225e-06
1.31267e-06
1.31603e-06
1.53307e-06
1.53403e-06
1.48874e-06
1.31112e-06
1.31053e-06
1.28362e-06
1.28458e-06
1.53261e-06
1.49197e-06
1.30903e-06
1.30156e-06
1.27957e-06
1.27387e-06
1.30802e-06
1.28384e-06
1.27837e-06
1.52156e-06
1.47661e-06
1.30506e-06
1.27632e-06
1.27748e-06
1.48179e-06
1.48887e-06
1.48991e-06
1.27932e-06
1.28081e-06
1.27858e-06
1.28048e-06
1.49235e-06
1.4953e-06
1.27555e-06
1.27132e-06
1.27576e-06
1.27466e-06
1.27384e-06
1.27895e-06
1.27289e-06
1.47727e-06
1.48951e-06
1.27381e-06
1.27704e-06
1.27394e-06
1.48255e-06
1.49669e-06
1.51857e-06
1.28237e-06
1.28413e-06
1.29623e-06
1.29576e-06
1.50164e-06
1.51915e-06
1.2806e-06
1.28175e-06
1.29604e-06
1.29645e-06
1.27707e-06
1.2959e-06
1.29814e-06
1.49845e-06
1.51948e-06
1.27871e-06
1.29666e-06
1.29773e-06
1.52069e-06
1.52242e-06
1.51747e-06
1.2976e-06
1.29677e-06
1.29381e-06
1.29277e-06
1.52238e-06
1.51616e-06
1.2976e-06
1.29753e-06
1.29409e-06
1.29339e-06
1.30316e-06
1.29507e-06
1.30568e-06
1.52264e-06
1.51691e-06
1.30205e-06
1.29416e-06
1.30428e-06
1.53724e-06
1.51827e-06
1.50647e-06
1.2913e-06
1.29058e-06
1.28094e-06
1.28073e-06
1.517e-06
1.50568e-06
1.29161e-06
1.2913e-06
1.28134e-06
1.28337e-06
1.30369e-06
1.28119e-06
1.28531e-06
1.51794e-06
1.5116e-06
1.30262e-06
1.2846e-06
1.28675e-06
1.51534e-06
1.50767e-06
1.4963e-06
1.2795e-06
1.27924e-06
1.26995e-06
1.26898e-06
1.5068e-06
1.4929e-06
1.27991e-06
1.28208e-06
1.26992e-06
1.26983e-06
1.27826e-06
1.2654e-06
1.25308e-06
1.51302e-06
1.49631e-06
1.28045e-06
1.26759e-06
1.2548e-06
1.4702e-06
1.49649e-06
1.45541e-06
1.26696e-06
1.26593e-06
1.23179e-06
1.23252e-06
1.49295e-06
1.45539e-06
1.26674e-06
1.26574e-06
1.23105e-06
1.22906e-06
1.24919e-06
1.23145e-06
1.22373e-06
1.49536e-06
1.4498e-06
1.25044e-06
1.22726e-06
1.22212e-06
1.43632e-06
1.43348e-06
1.19356e-06
1.1949e-06
1.43474e-06
1.19289e-06
1.19126e-06
7.54428e-07
7.51117e-07
7.51902e-07
1.18921e-06
1.42864e-06
1.18736e-06
5.5645e-11
2.41152e-09
1.43128e-10
1.80174e-10
5.66511e-09
3.60024e-09
2.5308e-09
1.00733e-09
5.51225e-09
4.52371e-09
1.00145e-09
1.11877e-08
5.40525e-09
2.59503e-09
9.77911e-09
7.46904e-09
1.64246e-07
5.99116e-09
2.61473e-07
1.53361e-06
3.06137e-06
8.66022e-09
1.59089e-07
7.40925e-09
2.51416e-07
1.38506e-09
1.52037e-09
1.66312e-09
1.36439e-09
1.36358e-09
1.50165e-09
1.65131e-09
4.88144e-09
7.3383e-08
2.7594e-09
3.36526e-09
5.16247e-09
5.26181e-08
2.733e-09
1.53344e-06
3.10722e-06
4.79249e-09
3.02108e-09
8.58019e-08
4.7762e-09
5.03103e-09
2.98412e-09
6.38142e-08
2.10011e-07
2.20063e-07
5.02804e-09
1.80603e-07
1.88928e-07
1.68568e-08
4.69957e-07
1.21975e-08
6.80444e-07
6.89365e-06
9.92833e-06
1.79655e-08
4.4828e-07
1.34309e-08
6.49975e-07
1.34564e-09
1.48296e-09
1.62694e-09
1.29758e-09
1.2921e-09