/*--------------------------------*- C++ -*----------------------------------*\
| =========                 |                                                 |
| \\      /  F ield         | OpenFOAM: The Open Source CFD Toolbox           |
|  \\    /   O peration     | Version:  v2012                                 |
|   \\  /    A nd           | Website:  www.openfoam.com                      |
|    \\/     M anipulation  |                                                 |
\*---------------------------------------------------------------------------*/
FoamFile
{
    version     2.0;
    format      ascii;
    class       volScalarField;
    location    "1512.5";
    object      k;
}
// * * * * * * * * * * * * * * * * * * * * * * * * * * * * * * * * * * * * * //

dimensions      [0 2 -2 0 0 0 0];


internalField   nonuniform List<scalar> 
171728
(
1.62806e-07
2.55437e-07
3.43277e-07
3.62017e-07
1.61845e-07
2.44388e-07
3.27916e-07
3.4625e-07
1.57316e-07
2.33447e-07
3.12179e-07
3.35814e-07
1.52935e-07
2.2258e-07
2.97055e-07
3.2877e-07
1.48846e-07
2.11483e-07
2.82826e-07
3.18248e-07
1.4486e-07
2.01776e-07
2.69828e-07
2.96504e-07
1.40988e-07
1.94062e-07
2.57937e-07
2.88241e-07
1.37596e-07
1.87906e-07
2.48246e-07
2.83738e-07
1.34277e-07
1.83574e-07
2.39872e-07
2.80178e-07
1.30959e-07
1.80781e-07
2.32259e-07
2.75679e-07
1.27801e-07
1.80129e-07
2.25506e-07
2.5802e-07
1.2445e-07
1.80755e-07
2.19726e-07
2.34887e-07
1.21696e-07
1.82599e-07
2.14382e-07
2.23486e-07
1.18974e-07
1.8523e-07
2.11567e-07
2.15947e-07
1.16998e-07
1.89542e-07
2.11287e-07
2.09673e-07
1.14566e-07
1.96442e-07
2.14163e-07
2.05381e-07
1.11058e-07
2.07916e-07
2.21608e-07
2.09847e-07
1.05277e-07
2.26859e-07
2.36249e-07
2.27121e-07
1.02049e-07
2.52715e-07
2.63449e-07
2.63098e-07
9.96415e-08
2.96062e-07
3.13437e-07
3.16709e-07
9.82911e-08
3.72865e-07
3.83882e-07
4.59245e-07
9.84775e-08
4.57913e-07
4.90542e-07
6.70938e-07
9.66417e-08
6.49651e-07
6.95109e-07
1.06166e-06
9.54783e-08
9.05638e-07
9.41052e-07
1.68524e-06
9.74371e-08
1.17224e-06
1.20684e-06
2.57201e-06
1.02057e-07
1.60361e-06
1.65686e-06
3.91633e-06
1.08398e-07
2.07719e-06
2.0911e-06
5.57621e-06
1.18827e-07
2.80862e-06
2.79561e-06
7.51088e-06
1.31954e-07
3.46614e-06
3.51156e-06
1.00374e-05
1.54665e-07
4.43361e-06
4.37265e-06
1.23147e-05
1.92014e-07
5.2998e-06
5.392e-06
1.51018e-05
2.2193e-07
6.4371e-06
6.44526e-06
1.70761e-05
3.22556e-07
7.82178e-06
7.77879e-06
1.97562e-05
3.65498e-07
8.94244e-06
8.99885e-06
2.12738e-05
5.50016e-07
1.07982e-05
1.07147e-05
2.3718e-05
6.36425e-07
1.17443e-05
1.18437e-05
2.48599e-05
8.37636e-07
1.40005e-05
1.41005e-05
2.719e-05
1.13805e-06
1.54759e-05
1.52985e-05
2.5604e-05
1.45579e-06
1.6657e-05
1.6953e-05
3.12875e-05
1.73381e-06
1.98477e-05
1.95779e-05
3.26998e-05
2.36897e-06
2.03556e-05
2.06491e-05
3.09039e-05
2.60801e-06
2.27512e-05
2.22492e-05
3.23487e-05
3.52968e-06
2.47317e-05
2.48476e-05
3.3674e-05
3.99835e-06
2.52075e-05
2.54575e-05
3.50409e-05
5.08783e-06
2.88753e-05
2.86356e-05
3.73895e-05
6.06656e-06
2.95576e-05
3.00235e-05
3.7636e-05
6.51157e-06
3.09242e-05
3.01729e-05
3.7482e-05
8.58194e-06
3.26846e-05
3.32916e-05
3.92268e-05
8.98659e-06
3.39506e-05
3.42224e-05
4.09114e-05
1.04663e-05
3.60884e-05
3.51335e-05
4.11108e-05
1.31181e-05
3.66053e-05
3.7553e-05
4.23663e-05
1.35392e-05
3.80657e-05
3.77589e-05
4.35748e-05
1.36042e-05
3.92482e-05
3.92131e-05
4.3534e-05
1.7716e-05
4.06334e-05
4.0867e-05
4.44888e-05
1.94358e-05
4.09811e-05
4.08613e-05
4.60948e-05
1.94862e-05
4.25928e-05
4.25021e-05
4.69191e-05
2.17497e-05
4.38179e-05
4.41061e-05
4.65916e-05
2.35032e-05
4.39686e-05
4.40531e-05
4.69594e-05
2.37486e-05
4.57481e-05
4.50379e-05
4.92808e-05
2.6099e-05
4.61517e-05
4.68098e-05
4.97359e-05
2.70587e-05
4.65853e-05
4.68163e-05
4.9617e-05
2.82721e-05
4.77533e-05
4.74258e-05
5.05205e-05
3.07391e-05
4.88478e-05
4.92246e-05
5.10854e-05
3.12212e-05
4.886e-05
4.87727e-05
5.14557e-05
3.1091e-05
4.95066e-05
4.86402e-05
5.14218e-05
3.39003e-05
5.1945e-05
5.2153e-05
5.38703e-05
3.55715e-05
5.0699e-05
5.25678e-05
5.37461e-05
3.5007e-05
4.99837e-05
5.02636e-05
5.23029e-05
3.5062e-05
5.28452e-05
5.02306e-05
5.33975e-05
3.76885e-05
5.47596e-05
5.42923e-05
5.62531e-05
4.00717e-05
5.4048e-05
5.554e-05
5.60701e-05
4.00233e-05
5.22037e-05
5.32908e-05
5.40183e-05
3.87241e-05
5.23591e-05
5.19815e-05
5.43235e-05
3.93462e-05
5.53069e-05
5.44551e-05
5.62165e-05
4.28141e-05
5.62858e-05
5.62821e-05
5.7105e-05
4.35442e-05
5.54624e-05
5.58967e-05
5.74853e-05
4.28489e-05
5.49767e-05
5.55612e-05
5.69289e-05
4.27597e-05
5.51272e-05
5.55039e-05
5.55557e-05
4.34799e-05
5.57051e-05
5.52689e-05
5.65089e-05
4.47454e-05
5.71749e-05
5.65094e-05
5.85522e-05
4.56504e-05
5.72402e-05
5.72541e-05
5.80912e-05
4.58089e-05
5.62322e-05
5.73112e-05
5.71839e-05
4.57217e-05
5.66443e-05
5.70486e-05
5.81915e-05
4.57906e-05
5.76155e-05
5.61586e-05
5.85656e-05
4.56536e-05
5.65492e-05
5.56664e-05
5.67035e-05
4.58201e-05
5.61628e-05
5.74929e-05
5.74062e-05
4.74875e-05
5.81688e-05
5.92528e-05
6.0178e-05
4.79628e-05
5.83471e-05
5.80688e-05
5.92892e-05
4.62988e-05
5.61093e-05
5.53866e-05
5.6374e-05
4.54817e-05
5.57913e-05
5.54674e-05
5.62322e-05
4.66227e-05
5.73373e-05
5.74166e-05
5.8533e-05
4.76209e-05
5.77538e-05
5.77606e-05
5.98319e-05
4.75134e-05
5.73445e-05
5.76646e-05
5.90995e-05
4.70382e-05
5.63283e-05
5.66331e-05
5.65658e-05
4.56269e-05
5.44104e-05
5.41553e-05
5.53506e-05
3.64002e-07
3.31081e-07
3.15755e-07
3.513e-07
2.96052e-07
3.08784e-07
1.60015e-07
1.50917e-07
1.57494e-07
1.71537e-07
2.89066e-07
3.141e-07
3.63571e-07
3.45408e-07
3.33819e-07
3.63872e-07
3.62958e-07
3.42937e-07
3.1789e-07
3.2556e-07
3.09336e-07
3.16029e-07
3.50195e-07
3.30939e-07
2.58685e-07
3.11348e-07
2.50165e-07
2.99523e-07
3.09066e-07
2.4719e-07
3.01388e-07
3.62454e-07
3.43373e-07
4.83124e-07
3.32162e-07
4.98896e-07
3.48939e-07
3.41655e-07
3.22902e-07
3.06115e-07
3.1166e-07
2.98085e-07
2.9832e-07
3.29673e-07
3.11627e-07
2.47175e-07
2.9506e-07
2.38531e-07
2.82068e-07
2.98429e-07
2.3616e-07
2.89519e-07
3.42035e-07
3.24029e-07
5.04481e-07
3.1602e-07
5.25458e-07
3.3784e-07
3.21774e-07
3.05206e-07
2.9601e-07
2.94167e-07
2.89456e-07
2.83376e-07
3.10473e-07
2.94392e-07
2.35806e-07
2.77947e-07
2.27981e-07
2.66698e-07
2.86407e-07
2.25295e-07
2.76727e-07
3.22808e-07
3.06614e-07
5.33658e-07
3.00765e-07
5.55594e-07
3.3085e-07
3.04241e-07
2.89188e-07
2.87163e-07
2.80238e-07
2.80137e-07
2.71475e-07
2.93348e-07
2.78615e-07
2.25444e-07
2.63499e-07
2.18196e-07
2.54922e-07
2.73306e-07
2.14148e-07
2.62862e-07
3.05514e-07
2.91232e-07
5.59602e-07
2.86319e-07
5.58903e-07
3.21731e-07
2.88331e-07
2.74616e-07
2.78129e-07
2.68464e-07
2.71972e-07
2.58563e-07
2.7768e-07
2.64105e-07
2.15835e-07
2.52316e-07
2.08886e-07
2.44364e-07
2.59459e-07
2.03984e-07
2.4986e-07
2.90252e-07
2.77387e-07
5.4881e-07
2.73044e-07
4.78568e-07
3.00251e-07
2.73829e-07
2.61193e-07
2.70187e-07
2.54996e-07
2.645e-07
2.44849e-07
2.63282e-07
2.50575e-07
2.06631e-07
2.41719e-07
1.99885e-07
2.33661e-07
2.46882e-07
1.95775e-07
2.38744e-07
2.76485e-07
2.64502e-07
4.55556e-07
2.60715e-07
4.16676e-07
2.90186e-07
2.60465e-07
2.4946e-07
2.62607e-07
2.41737e-07
2.57596e-07
2.3295e-07
2.49879e-07
2.38859e-07
1.97773e-07
2.3089e-07
1.9179e-07
2.23028e-07
2.36531e-07
1.89265e-07
2.3135e-07
2.63687e-07
2.52669e-07
4.13143e-07
2.50486e-07
4.12413e-07
2.84651e-07
2.48916e-07
2.40255e-07
2.56356e-07
2.29934e-07
2.53946e-07
2.2014e-07
2.38328e-07
2.28561e-07
1.8995e-07
2.20688e-07
1.84815e-07
2.15406e-07
2.2975e-07
1.84488e-07
2.24709e-07
2.51964e-07
2.42388e-07
4.13866e-07
2.41936e-07
4.18675e-07
2.81323e-07
2.39897e-07
2.33007e-07
2.53533e-07
2.16814e-07
2.5355e-07
2.07013e-07
2.28151e-07
2.19799e-07
1.83263e-07
2.14285e-07
1.79013e-07
2.11085e-07
2.22795e-07
1.81338e-07
2.16697e-07
2.41837e-07
2.33884e-07
4.19375e-07
2.3401e-07
4.18266e-07
2.76688e-07
2.32782e-07
2.26881e-07
2.53757e-07
2.04101e-07
2.56004e-07
1.96527e-07
2.19559e-07
2.12142e-07
1.77836e-07
2.09708e-07
1.74131e-07
2.04846e-07
2.14831e-07
1.80131e-07
2.09605e-07
2.33442e-07
2.26013e-07
4.1378e-07
2.27149e-07
3.74399e-07
2.60127e-07
2.26825e-07
2.22311e-07
2.57375e-07
1.94156e-07
2.61882e-07
1.88048e-07
2.12016e-07
2.05497e-07
1.73009e-07
2.02997e-07
1.69663e-07
1.97636e-07
2.08174e-07
1.80419e-07
2.0556e-07
2.25633e-07
2.18663e-07
3.58214e-07
2.21118e-07
3.08791e-07
2.36141e-07
2.22369e-07
2.19049e-07
2.63794e-07
1.86352e-07
2.71729e-07
1.81888e-07
2.05475e-07
1.99779e-07
1.68701e-07
1.96299e-07
1.66089e-07
1.93662e-07
2.05307e-07
1.82072e-07
2.05344e-07
2.18437e-07
2.12455e-07
2.94547e-07
2.15639e-07
2.67536e-07
2.23893e-07
2.19315e-07
2.17554e-07
2.74803e-07
1.80477e-07
2.84482e-07
1.77012e-07
1.99867e-07
1.95487e-07
1.65471e-07
1.92703e-07
1.64137e-07
1.88693e-07
2.05571e-07
1.84471e-07
2.06862e-07
2.12406e-07
2.06859e-07
2.6324e-07
2.12015e-07
2.50884e-07
2.16118e-07
2.18172e-07
2.17912e-07
2.87955e-07
1.75883e-07
2.99849e-07
1.73495e-07
1.95733e-07
1.91456e-07
1.63929e-07
1.87171e-07
1.64331e-07
1.81803e-07
2.07686e-07
1.8845e-07
2.10713e-07
2.06958e-07
2.01679e-07
2.44596e-07
2.1114e-07
2.19743e-07
2.09463e-07
2.19009e-07
2.20229e-07
3.0408e-07
1.7267e-07
3.15344e-07
1.7217e-07
1.92086e-07
1.90027e-07
1.64849e-07
1.80256e-07
1.67775e-07
1.7677e-07
2.11858e-07
1.94676e-07
2.17474e-07
2.02054e-07
1.98517e-07
2.11554e-07
2.13123e-07
1.94009e-07
2.04431e-07
2.21885e-07
2.22849e-07
3.1807e-07
1.72614e-07
3.20458e-07
1.77383e-07
1.91293e-07
1.95346e-07
1.69303e-07
1.76765e-07
1.75647e-07
1.77721e-07
2.20041e-07
2.04932e-07
2.30341e-07
1.996e-07
1.99723e-07
1.90122e-07
2.18866e-07
1.88846e-07
2.07266e-07
2.24854e-07
2.2757e-07
3.18674e-07
1.8033e-07
3.00181e-07
1.94091e-07
1.98864e-07
2.10101e-07
1.78006e-07
1.78432e-07
1.88982e-07
1.85229e-07
2.33678e-07
2.20831e-07
2.46065e-07
2.0204e-07
2.08594e-07
1.89753e-07
2.3153e-07
2.00878e-07
2.20862e-07
2.31854e-07
2.49647e-07
2.97695e-07
2.00396e-07
2.8996e-07
2.18319e-07
2.17163e-07
2.37182e-07
1.93843e-07
1.89393e-07
2.15398e-07
2.05282e-07
2.49263e-07
2.43929e-07
2.66819e-07
2.13701e-07
2.35472e-07
2.058e-07
2.55751e-07
2.27333e-07
2.49757e-07
2.6062e-07
2.96323e-07
2.89932e-07
2.29169e-07
2.97152e-07
2.71136e-07
2.48518e-07
2.9618e-07
2.23002e-07
2.17013e-07
2.54152e-07
2.57212e-07
2.7422e-07
2.8168e-07
2.9225e-07
2.46155e-07
2.9572e-07
2.3759e-07
2.98229e-07
2.6746e-07
3.00018e-07
3.14571e-07
4.00653e-07
3.04815e-07
2.90233e-07
3.43989e-07
3.56712e-07
3.16659e-07
4.29119e-07
2.68628e-07
2.67314e-07
3.18824e-07
3.23289e-07
3.01232e-07
3.49482e-07
3.57709e-07
3.14409e-07
4.16353e-07
2.80034e-07
3.58956e-07
3.3854e-07
4.15166e-07
4.37385e-07
6.24597e-07
3.68238e-07
3.8511e-07
4.59069e-07
4.61924e-07
4.59417e-07
6.10586e-07
3.42009e-07
3.54889e-07
4.30248e-07
5.46662e-07
3.81626e-07
4.29375e-07
4.60278e-07
4.47459e-07
6.61009e-07
3.62768e-07
4.7337e-07
4.3866e-07
6.14167e-07
6.79586e-07
9.34186e-07
4.86484e-07
5.06313e-07
5.97807e-07
7.16615e-07
6.61485e-07
1.061e-06
4.58441e-07
6.06978e-07
5.74309e-07
9.01096e-07
4.95194e-07
6.21957e-07
6.09058e-07
7.34062e-07
1.06162e-06
4.74577e-07
6.51203e-07
5.95939e-07
9.71291e-07
1.03664e-06
1.50813e-06
6.47774e-07
7.50426e-07
7.98741e-07
9.86589e-07
1.1763e-06
1.45617e-06
6.24136e-07
9.74083e-07
7.84256e-07
1.157e-06
6.46575e-07
8.0337e-07
8.21613e-07
1.20405e-06
1.61447e-06
6.3688e-07
8.11535e-07
8.16977e-07
1.52381e-06
1.64876e-06
2.38827e-06
8.72577e-07
1.10839e-06
1.10179e-06
1.28299e-06
1.68082e-06
2.5159e-06
8.57491e-07
1.34585e-06
1.08602e-06
1.68415e-06
8.86601e-07
1.05921e-06
1.10887e-06
1.81835e-06
2.85015e-06
8.79737e-07
1.18561e-06
1.10837e-06
2.37109e-06
2.59403e-06
3.60397e-06
1.18061e-06
1.39562e-06
1.53123e-06
1.84379e-06
2.61804e-06
4.06673e-06
1.15885e-06
1.69046e-06
1.50438e-06
1.67938e-06
1.20629e-06
1.56135e-06
1.5039e-06
2.8818e-06
3.12832e-06
1.20725e-06
1.46682e-06
1.50265e-06
3.6552e-06
3.91701e-06
5.07606e-06
1.632e-06
1.89699e-06
1.96241e-06
2.05272e-06
4.27916e-06
4.68073e-06
1.60831e-06
1.71714e-06
1.94277e-06
2.30473e-06
1.5977e-06
1.92092e-06
2.0206e-06
3.56043e-06
5.64844e-06
1.60672e-06
2.01836e-06
2.02297e-06
5.16979e-06
5.38102e-06
7.3133e-06
2.11998e-06
2.14869e-06
2.63234e-06
2.74244e-06
5.09119e-06
7.416e-06
2.1061e-06
2.4641e-06
2.62427e-06
2.93413e-06
2.16458e-06
2.60305e-06
2.57962e-06
5.91514e-06
7.0465e-06
2.16671e-06
2.57669e-06
2.58291e-06
7.17549e-06
7.76041e-06
9.37451e-06
2.81465e-06
2.97405e-06
3.2488e-06
3.45386e-06
7.83747e-06
9.74145e-06
2.77499e-06
3.0922e-06
3.26141e-06
3.41568e-06
2.75509e-06
3.28177e-06
3.35974e-06
7.50612e-06
9.65017e-06
2.75725e-06
3.34434e-06
3.33762e-06
9.51206e-06
9.84871e-06
1.20631e-05
3.48492e-06
3.6093e-06
4.25147e-06
4.26463e-06
1.01689e-05
1.199e-05
3.48174e-06
3.52363e-06
4.1824e-06
4.12228e-06
3.55797e-06
4.20638e-06
4.10643e-06
1.00302e-05
1.16618e-05
3.53373e-06
4.1126e-06
4.10558e-06
1.18391e-05
1.25727e-05
1.43642e-05
4.39413e-06
4.47876e-06
5.15239e-06
5.06938e-06
1.25436e-05
1.43337e-05
4.38545e-06
4.4067e-06
5.10531e-06
5.18383e-06
4.36169e-06
5.07769e-06
5.28013e-06
1.2248e-05
1.45499e-05
4.3645e-06
5.17409e-06
5.22255e-06
1.45995e-05
1.48209e-05
1.66558e-05
5.48411e-06
5.28403e-06
6.07928e-06
6.13126e-06
1.47018e-05
1.65416e-05
5.40489e-06
5.37817e-06
6.07662e-06
6.08995e-06
5.45747e-06
6.05558e-06
6.12695e-06
1.49679e-05
1.66015e-05
5.39688e-06
6.08877e-06
6.08317e-06
1.6574e-05
1.71371e-05
1.91356e-05
6.341e-06
6.53387e-06
7.69127e-06
7.57541e-06
1.71658e-05
1.93195e-05
6.31272e-06
6.47911e-06
7.60818e-06
7.61154e-06
6.51321e-06
7.59507e-06
7.75503e-06
1.71391e-05
1.91507e-05
6.43345e-06
7.56674e-06
7.6691e-06
1.93046e-05
1.96528e-05
2.1062e-05
8.04895e-06
7.81853e-06
8.53894e-06
8.6096e-06
1.9724e-05
2.09269e-05
8.00088e-06
7.78701e-06
8.50982e-06
8.54701e-06
7.98694e-06
8.54265e-06
8.42485e-06
1.95815e-05
2.08781e-05
7.94218e-06
8.51621e-06
8.37805e-06
2.08024e-05
2.14275e-05
2.30339e-05
8.89647e-06
9.04286e-06
1.06276e-05
1.04683e-05
2.13892e-05
2.31727e-05
8.81313e-06
9.08584e-06
1.04142e-05
1.04459e-05
8.88617e-06
1.04096e-05
1.08763e-05
2.13589e-05
2.31552e-05
8.77683e-06
1.04555e-05
1.06307e-05
2.33638e-05
2.35436e-05
2.46278e-05
1.09934e-05
1.08305e-05
1.15995e-05
1.15195e-05
2.3588e-05
2.44343e-05
1.07787e-05
1.06707e-05
1.16259e-05
1.15466e-05
1.12742e-05
1.15085e-05
1.16987e-05
2.3527e-05
2.44262e-05
1.10021e-05
1.1477e-05
1.14459e-05
2.4399e-05
2.49253e-05
2.60515e-05
1.1999e-05
1.18369e-05
1.33143e-05
1.33896e-05
2.47468e-05
2.6224e-05
1.20258e-05
1.19875e-05
1.32734e-05
1.34762e-05
1.18903e-05
1.33223e-05
1.41455e-05
2.47838e-05
2.631e-05
1.17419e-05
1.34648e-05
1.42474e-05
2.71076e-05
2.64526e-05
2.77434e-05
1.36378e-05
1.3951e-05
1.51957e-05
1.52809e-05
2.67044e-05
2.76624e-05
1.36678e-05
1.3981e-05
1.51441e-05
1.52267e-05
1.44929e-05
1.53323e-05
1.45341e-05
2.67331e-05
2.75441e-05
1.44694e-05
1.51975e-05
1.42926e-05
2.55461e-05
2.80864e-05
2.89156e-05
1.56811e-05
1.55642e-05
1.69548e-05
1.63848e-05
2.78657e-05
2.85477e-05
1.55597e-05
1.54054e-05
1.68728e-05
1.63828e-05
1.45343e-05
1.59844e-05
1.5462e-05
2.7756e-05
2.85558e-05
1.4273e-05
1.5976e-05
1.5445e-05
2.97871e-05
2.92002e-05
3.01981e-05
1.73781e-05
1.69368e-05
1.84758e-05
1.91505e-05
2.89636e-05
3.06143e-05
1.73244e-05
1.71665e-05
1.83415e-05
1.9091e-05
1.74525e-05
1.93204e-05
2.15275e-05
2.90249e-05
3.06091e-05
1.78301e-05
1.93288e-05
2.18017e-05
3.28286e-05
3.05349e-05
3.15356e-05
1.89858e-05
1.9643e-05
2.07301e-05
2.01426e-05
3.08632e-05
3.11153e-05
1.89183e-05
1.92846e-05
2.07893e-05
2.04263e-05
2.17406e-05
2.03051e-05
2.13289e-05
3.0826e-05
3.12508e-05
2.19474e-05
2.02315e-05
2.12447e-05
3.08481e-05
3.17581e-05
3.23101e-05
2.10711e-05
2.02714e-05
2.17627e-05
2.21513e-05
3.12763e-05
3.2573e-05
2.10251e-05
2.10453e-05
2.18728e-05
2.18768e-05
2.10006e-05
2.15762e-05
2.09409e-05
3.14987e-05
3.23231e-05
2.09251e-05
2.16191e-05
2.09311e-05
3.19164e-05
3.25812e-05
3.38867e-05
2.22532e-05
2.30383e-05
2.44092e-05
2.4466e-05
3.30735e-05
3.38485e-05
2.23363e-05
2.21986e-05
2.40728e-05
2.42288e-05
2.1283e-05
2.45969e-05
2.44207e-05
3.26009e-05
3.39471e-05
2.14802e-05
2.44721e-05
2.40353e-05
3.35226e-05
3.41842e-05
3.46515e-05
2.49131e-05
2.45725e-05
2.54459e-05
2.48747e-05
3.39337e-05
3.42691e-05
2.47154e-05
2.47719e-05
2.56407e-05
2.57224e-05
2.48551e-05
2.49354e-05
2.5359e-05
3.42077e-05
3.45451e-05
2.42742e-05
2.522e-05
2.49242e-05
3.45676e-05
3.48181e-05
3.61875e-05
2.56251e-05
2.53307e-05
2.78738e-05
2.82307e-05
3.46163e-05
3.65497e-05
2.58216e-05
2.59142e-05
2.77206e-05
2.74797e-05
2.57102e-05
2.82042e-05
2.85065e-05
3.47026e-05
3.61661e-05
2.58084e-05
2.77639e-05
2.93125e-05
3.71096e-05
3.65722e-05
3.69899e-05
2.85976e-05
2.88704e-05
2.94205e-05
2.95356e-05
3.68293e-05
3.70182e-05
2.84334e-05
2.82997e-05
2.93635e-05
2.98593e-05
2.92399e-05
2.95287e-05
3.00825e-05
3.6609e-05
3.73118e-05
3.00551e-05
2.99533e-05
3.07961e-05
3.76108e-05
3.70598e-05
3.81133e-05
2.94807e-05
2.95696e-05
3.04781e-05
3.01267e-05
3.70615e-05
3.77298e-05
2.94371e-05
2.99924e-05
3.04939e-05
3.01543e-05
3.01086e-05
3.00816e-05
3.01237e-05
3.73598e-05
3.73595e-05
3.07953e-05
3.00689e-05
3.03769e-05
3.73781e-05
3.86101e-05
3.92859e-05
3.14386e-05
3.10026e-05
3.28225e-05
3.26956e-05
3.81925e-05
3.92219e-05
3.13659e-05
3.03482e-05
3.28846e-05
3.28455e-05
3.0227e-05
3.23606e-05
3.18131e-05
3.76037e-05
3.95916e-05
3.03292e-05
3.25465e-05
3.09558e-05
3.87917e-05
3.92986e-05
3.9412e-05
3.29086e-05
3.2854e-05
3.30946e-05
3.31222e-05
3.933e-05
3.97621e-05
3.30181e-05
3.34534e-05
3.31844e-05
3.40159e-05
3.23812e-05
3.35705e-05
3.43298e-05
3.99098e-05
4.01015e-05
3.21347e-05
3.41719e-05
3.47919e-05
4.07013e-05
3.97969e-05
4.19349e-05
3.33605e-05
3.34357e-05
3.59589e-05
3.57096e-05
4.00209e-05
4.1539e-05
3.33574e-05
3.40432e-05
3.54773e-05
3.4422e-05
3.47899e-05
3.56382e-05
3.52991e-05
4.01261e-05
4.07476e-05
3.51738e-05
3.45466e-05
3.54671e-05
4.10646e-05
4.21896e-05
4.24045e-05
3.65551e-05
3.63627e-05
3.71772e-05
3.7113e-05
4.18513e-05
4.21104e-05
3.61395e-05
3.51442e-05
3.73339e-05
3.73362e-05
3.53567e-05
3.65674e-05
3.63042e-05
4.1176e-05
4.26473e-05
3.54962e-05
3.72615e-05
3.62336e-05
4.19221e-05
4.24329e-05
4.21817e-05
3.71848e-05
3.71351e-05
3.70904e-05
3.71755e-05
4.21277e-05
4.24612e-05
3.74571e-05
3.76253e-05
3.74921e-05
3.78366e-05
3.69373e-05
3.74375e-05
3.83596e-05
4.27487e-05
4.26753e-05
3.70941e-05
3.77422e-05
3.83579e-05
4.34939e-05
4.22067e-05
4.34179e-05
3.70904e-05
3.7304e-05
3.79246e-05
3.85039e-05
4.27938e-05
4.39317e-05
3.74926e-05
3.78697e-05
3.79931e-05
3.85372e-05
3.86194e-05
3.90057e-05
3.88946e-05
4.27212e-05
4.37948e-05
3.84271e-05
3.834e-05
3.85003e-05
4.34931e-05
4.40117e-05
4.55753e-05
3.89981e-05
3.90385e-05
4.11808e-05
4.08206e-05
4.41117e-05
4.49649e-05
3.89335e-05
3.93223e-05
4.09672e-05
4.0791e-05
3.89446e-05
4.03564e-05
3.96382e-05
4.42664e-05
4.51617e-05
3.86269e-05
4.07584e-05
3.96957e-05
4.42106e-05
4.56629e-05
4.54029e-05
4.14733e-05
4.11819e-05
4.16417e-05
4.14587e-05
4.51562e-05
4.53006e-05
4.11858e-05
4.09063e-05
4.12465e-05
4.0906e-05
4.00435e-05
4.09197e-05
4.15172e-05
4.51803e-05
4.48364e-05
4.00899e-05
4.08602e-05
4.13138e-05
4.57847e-05
4.54133e-05
4.59214e-05
4.16337e-05
4.14563e-05
4.17212e-05
4.1558e-05
4.53287e-05
4.59007e-05
4.12315e-05
4.09069e-05
4.14651e-05
4.15017e-05
4.19675e-05
4.20137e-05
4.26307e-05
4.48637e-05
4.60957e-05
4.17861e-05
4.15923e-05
4.30038e-05
4.68664e-05
4.63085e-05
4.75175e-05
4.2002e-05
4.18981e-05
4.35921e-05
4.36615e-05
4.62599e-05
4.74476e-05
4.20822e-05
4.23392e-05
4.3889e-05
4.4023e-05
4.2675e-05
4.37095e-05
4.28832e-05
4.66061e-05
4.76961e-05
4.3179e-05
4.39969e-05
4.32085e-05
4.65878e-05
4.7581e-05
4.74566e-05
4.38233e-05
4.3914e-05
4.39875e-05
4.40975e-05
4.752e-05
4.7468e-05
4.41095e-05
4.42268e-05
4.42568e-05
4.43414e-05
4.30078e-05
4.38958e-05
4.3504e-05
4.77469e-05
4.75127e-05
4.3092e-05
4.40729e-05
4.29811e-05
4.67004e-05
4.7495e-05
4.84185e-05
4.40147e-05
4.41431e-05
4.48758e-05
4.51988e-05
4.75463e-05
4.8821e-05
4.42681e-05
4.43434e-05
4.46919e-05
4.46139e-05
4.38564e-05
4.5348e-05
4.5519e-05
4.75279e-05
4.82335e-05
4.3064e-05
4.43552e-05
4.50314e-05
4.89137e-05
4.87273e-05
4.90368e-05
4.5459e-05
4.56788e-05
4.62865e-05
4.62927e-05
4.90634e-05
4.90873e-05
4.51755e-05
4.51639e-05
4.58952e-05
4.62645e-05
4.59922e-05
4.61403e-05
4.65186e-05
4.86191e-05
4.95235e-05
4.57434e-05
4.66387e-05
4.6958e-05
4.97269e-05
4.90525e-05
4.92228e-05
4.63466e-05
4.63225e-05
4.64046e-05
4.63664e-05
4.9091e-05
4.92709e-05
4.59509e-05
4.63443e-05
4.61353e-05
4.63345e-05
4.65234e-05
4.62728e-05
4.64941e-05
4.95563e-05
4.92386e-05
4.70779e-05
4.68436e-05
4.71175e-05
4.9561e-05
4.94517e-05
5.07901e-05
4.64585e-05
4.6463e-05
4.75263e-05
4.70595e-05
4.95193e-05
5.02844e-05
4.64125e-05
4.63378e-05
4.78934e-05
4.72497e-05
4.65223e-05
4.75912e-05
4.76077e-05
4.9251e-05
5.02418e-05
4.7106e-05
4.69734e-05
4.71693e-05
5.03272e-05
5.10373e-05
5.14915e-05
4.80181e-05
4.73961e-05
4.88881e-05
4.8721e-05
5.03786e-05
5.1167e-05
4.8347e-05
4.81026e-05
4.92149e-05
4.95716e-05
4.80091e-05
4.86242e-05
4.85975e-05
5.06937e-05
5.19732e-05
4.73818e-05
4.90599e-05
4.82874e-05
5.09916e-05
5.15085e-05
5.08987e-05
4.89348e-05
4.89437e-05
4.87033e-05
4.89676e-05
5.13487e-05
5.11753e-05
4.92752e-05
4.9657e-05
4.90183e-05
4.92106e-05
4.86836e-05
4.89317e-05
4.90114e-05
5.20249e-05
5.09792e-05
4.85538e-05
4.90794e-05
4.90902e-05
5.14211e-05
5.08472e-05
5.10091e-05
4.85923e-05
4.89159e-05
4.87596e-05
4.92952e-05
5.1151e-05
5.17583e-05
4.86416e-05
4.85731e-05
4.83239e-05
4.79492e-05
4.90386e-05
4.89835e-05
4.90549e-05
5.07811e-05
5.02427e-05
4.91136e-05
4.85218e-05
4.91152e-05
5.13528e-05
5.14039e-05
5.40719e-05
4.93944e-05
5.02709e-05
5.17172e-05
5.20742e-05
5.24366e-05
5.45026e-05
4.84416e-05
4.8042e-05
5.13533e-05
5.15545e-05
4.91429e-05
5.18056e-05
5.10666e-05
5.05209e-05
5.44073e-05
4.91884e-05
5.13852e-05
5.10373e-05
5.35437e-05
5.43069e-05
5.37419e-05
5.19559e-05
5.20837e-05
5.1779e-05
5.05052e-05
5.45231e-05
5.20015e-05
5.20923e-05
5.26433e-05
5.24757e-05
5.33545e-05
5.16038e-05
5.13616e-05
5.19228e-05
5.49367e-05
5.5168e-05
5.16023e-05
5.26771e-05
5.19794e-05
5.38594e-05
5.35089e-05
5.20907e-05
5.12149e-05
4.97142e-05
5.01892e-05
4.91428e-05
5.16206e-05
5.09733e-05
5.23182e-05
5.32038e-05
5.07549e-05
5.05911e-05
5.18389e-05
4.99592e-05
5.08605e-05
5.48606e-05
5.17235e-05
5.1909e-05
5.06984e-05
5.08874e-05
5.23345e-05
5.20876e-05
5.31365e-05
5.01726e-05
4.9289e-05
5.12097e-05
5.26398e-05
5.13275e-05
5.49587e-05
5.05348e-05
4.99918e-05
5.05566e-05
4.96514e-05
5.07248e-05
5.18269e-05
5.08288e-05
5.14894e-05
5.14873e-05
5.07135e-05
5.00424e-05
5.0757e-05
5.29432e-05
5.35906e-05
5.57038e-05
5.20385e-05
5.36968e-05
5.39752e-05
5.52439e-05
5.55916e-05
5.71057e-05
5.08734e-05
4.98395e-05
5.33318e-05
5.32562e-05
5.12772e-05
5.46228e-05
5.37946e-05
5.19474e-05
5.57585e-05
5.10888e-05
5.33395e-05
5.37071e-05
5.59749e-05
5.60151e-05
5.64616e-05
5.44136e-05
5.53255e-05
5.48568e-05
5.4847e-05
5.71365e-05
5.55741e-05
5.39698e-05
5.43359e-05
5.48646e-05
5.5832e-05
5.42834e-05
5.45573e-05
5.46474e-05
5.63677e-05
5.76543e-05
5.42736e-05
5.55289e-05
5.47399e-05
5.62284e-05
5.6421e-05
5.45828e-05
5.48217e-05
5.40519e-05
5.3253e-05
5.19929e-05
5.52017e-05
5.30924e-05
5.48811e-05
5.58612e-05
5.41603e-05
5.45839e-05
5.45854e-05
5.24637e-05
5.3159e-05
5.76476e-05
5.50072e-05
5.46974e-05
5.42255e-05
5.33613e-05
5.4159e-05
5.42582e-05
5.32559e-05
5.25959e-05
5.16639e-05
5.18799e-05
5.15889e-05
5.30035e-05
5.35178e-05
5.33854e-05
5.34566e-05
5.21605e-05
5.17139e-05
5.279e-05
5.21279e-05
5.2562e-05
5.449e-05
5.28376e-05
5.29266e-05
5.19946e-05
5.2562e-05
5.4071e-05
5.33214e-05
5.60005e-05
5.19178e-05
5.19224e-05
5.41102e-05
5.47812e-05
5.39401e-05
5.67333e-05
5.21376e-05
5.16625e-05
5.33363e-05
5.28731e-05
5.26685e-05
5.46593e-05
5.42079e-05
5.28652e-05
5.54261e-05
5.2606e-05
5.34581e-05
5.40149e-05
5.59495e-05
5.66057e-05
5.81271e-05
5.5087e-05
5.55288e-05
5.65984e-05
5.6541e-05
5.71573e-05
5.79658e-05
5.44657e-05
5.40503e-05
5.64191e-05
5.62073e-05
5.46447e-05
5.62564e-05
5.56164e-05
5.60541e-05
5.7773e-05
5.45433e-05
5.61353e-05
5.56688e-05
5.69825e-05
5.81468e-05
5.68828e-05
5.66663e-05
5.65597e-05
5.61174e-05
5.5849e-05
5.79514e-05
5.65807e-05
5.65668e-05
5.64482e-05
5.63423e-05
5.64593e-05
5.58447e-05
5.58088e-05
5.6162e-05
5.78321e-05
5.72035e-05
5.59083e-05
5.61657e-05
5.62266e-05
5.74514e-05
5.66508e-05
5.58872e-05
5.55659e-05
5.53744e-05
5.47584e-05
5.46943e-05
5.63983e-05
5.58454e-05
5.58807e-05
5.62075e-05
5.50392e-05
5.55453e-05
5.61688e-05
5.49905e-05
5.59455e-05
5.70874e-05
5.66578e-05
5.62337e-05
5.5566e-05
5.60265e-05
5.70791e-05
5.5902e-05
5.64379e-05
5.47238e-05
5.46659e-05
5.50328e-05
5.49264e-05
5.58712e-05
5.62959e-05
5.49819e-05
5.54892e-05
5.5113e-05
5.55093e-05
5.5656e-05
5.51067e-05
5.48208e-05
5.66719e-05
5.67204e-05
5.57585e-05
5.55505e-05
5.48314e-05
5.56176e-05
5.65945e-05
5.69288e-05
5.53067e-05
5.51141e-05
5.57743e-05
5.56665e-05
5.63699e-05
5.679e-05
5.53529e-05
5.55409e-05
5.57493e-05
5.55142e-05
5.47027e-05
5.53631e-05
5.48163e-05
5.67156e-05
5.64606e-05
5.4663e-05
5.52624e-05
5.468e-05
5.60896e-05
5.69829e-05
5.75046e-05
5.5906e-05
5.59508e-05
5.65444e-05
5.69272e-05
5.70076e-05
5.82018e-05
5.58009e-05
5.55093e-05
5.6138e-05
5.58008e-05
5.52722e-05
5.69235e-05
5.70258e-05
5.64716e-05
5.71847e-05
5.49914e-05
5.61059e-05
5.69153e-05
5.84136e-05
5.76761e-05
5.81963e-05
5.67807e-05
5.71447e-05
5.71241e-05
5.72846e-05
5.834e-05
5.83299e-05
5.63607e-05
5.60673e-05
5.70671e-05
5.69177e-05
5.72717e-05
5.73137e-05
5.73172e-05
5.74022e-05
5.80938e-05
5.72477e-05
5.71663e-05
5.74178e-05
5.82455e-05
5.82263e-05
5.79721e-05
5.71285e-05
5.72341e-05
5.68901e-05
5.646e-05
5.82367e-05
5.71712e-05
5.72028e-05
5.71945e-05
5.72765e-05
5.76801e-05
5.71131e-05
5.63679e-05
5.63375e-05
5.82036e-05
5.8577e-05
5.73199e-05
5.73203e-05
5.65463e-05
5.7189e-05
5.79496e-05
5.77857e-05
5.6777e-05
5.63073e-05
5.67026e-05
5.63101e-05
5.71175e-05
5.7415e-05
5.72495e-05
5.77079e-05
5.69397e-05
5.75451e-05
5.62942e-05
5.62983e-05
5.66559e-05
5.86208e-05
5.83547e-05
5.64591e-05
5.71391e-05
5.65917e-05
5.79424e-05
5.78061e-05
5.77793e-05
5.67453e-05
5.65472e-05
5.69745e-05
5.74581e-05
5.77063e-05
5.86871e-05
5.6864e-05
5.72231e-05
5.65973e-05
5.60205e-05
5.7104e-05
5.75913e-05
5.75745e-05
5.82376e-05
5.68715e-05
5.6907e-05
5.64414e-05
5.72784e-05
5.86188e-05
5.77554e-05
5.73254e-05
5.69703e-05
5.74921e-05
5.66505e-05
5.70457e-05
5.87084e-05
5.76729e-05
5.64722e-05
5.56876e-05
5.6197e-05
5.53278e-05
5.75461e-05
5.70071e-05
5.63844e-05
5.66843e-05
5.6138e-05
5.72512e-05
5.56671e-05
5.62788e-05
5.68546e-05
5.73156e-05
5.76022e-05
5.65156e-05
5.66405e-05
5.64434e-05
5.62273e-05
5.74663e-05
5.69668e-05
5.61845e-05
5.53603e-05
5.65444e-05
5.69158e-05
5.60306e-05
5.61204e-05
5.58963e-05
5.62154e-05
5.83004e-05
5.60273e-05
5.66806e-05
5.60232e-05
5.6961e-05
5.7788e-05
5.9255e-05
5.65251e-05
5.62582e-05
5.78463e-05
5.76054e-05
5.70673e-05
5.90287e-05
5.69503e-05
5.77074e-05
5.83491e-05
5.93324e-05
5.61263e-05
5.76892e-05
5.83946e-05
5.87937e-05
6.06538e-05
5.6382e-05
5.9119e-05
5.86166e-05
5.99824e-05
5.94615e-05
5.95741e-05
5.82114e-05
5.80759e-05
5.844e-05
5.83761e-05
5.92937e-05
5.94504e-05
5.86352e-05
5.94746e-05
5.87252e-05
5.91113e-05
5.87901e-05
5.84623e-05
5.88896e-05
6.07282e-05
5.93819e-05
5.89214e-05
5.88906e-05
5.88831e-05
5.96648e-05
5.9338e-05
5.69911e-05
5.83396e-05
5.8272e-05
5.65649e-05
5.65912e-05
5.92247e-05
5.7117e-05
5.85031e-05
5.82416e-05
5.62604e-05
5.56446e-05
5.86047e-05
5.6562e-05
5.62122e-05
5.88736e-05
5.61575e-05
5.84302e-05
5.57438e-05
5.60378e-05
5.66061e-05
5.67745e-05
5.65043e-05
5.60814e-05
5.6173e-05
5.56826e-05
5.58676e-05
5.69426e-05
5.68403e-05
5.5765e-05
5.52358e-05
5.53978e-05
5.50718e-05
5.56559e-05
5.57433e-05
5.51471e-05
5.60127e-05
5.6359e-05
5.55555e-05
5.52539e-05
5.51739e-05
5.60324e-05
5.67058e-05
5.83259e-05
5.57325e-05
5.59296e-05
5.69661e-05
5.70275e-05
5.70414e-05
5.83761e-05
5.54748e-05
5.52938e-05
5.6951e-05
5.7057e-05
5.51897e-05
5.69627e-05
5.67399e-05
5.67155e-05
5.84388e-05
5.524e-05
5.70766e-05
5.68007e-05
5.81778e-05
5.85248e-05
5.87666e-05
5.73274e-05
5.73171e-05
5.76497e-05
5.75596e-05
5.85366e-05
5.86713e-05
5.73486e-05
5.74116e-05
5.77177e-05
5.7712e-05
5.73965e-05
5.7748e-05
5.85032e-05
5.8599e-05
5.87163e-05
5.73799e-05
5.77525e-05
5.84009e-05
5.97437e-05
5.87498e-05
5.83175e-05
5.76432e-05
5.75523e-05
5.73007e-05
5.72682e-05
5.86553e-05
5.82956e-05
5.77134e-05
5.77074e-05
5.7374e-05
5.75394e-05
5.86024e-05
5.74571e-05
5.84067e-05
5.87044e-05
5.86194e-05
5.85135e-05
5.76957e-05
5.84177e-05
5.93509e-05
5.83148e-05
5.81299e-05
5.72447e-05
5.72204e-05
5.70193e-05
5.69317e-05
5.82871e-05
5.79024e-05
5.73162e-05
5.75198e-05
5.7059e-05
5.7188e-05
5.79354e-05
5.66712e-05
5.60067e-05
5.86483e-05
5.82186e-05
5.8084e-05
5.70833e-05
5.62436e-05
5.68883e-05
5.80089e-05
5.67677e-05
5.67718e-05
5.66267e-05
5.57413e-05
5.56651e-05
5.77542e-05
5.6626e-05
5.67815e-05
5.67806e-05
5.57056e-05
5.54863e-05
5.54647e-05
5.54398e-05
5.45355e-05
5.79985e-05
5.63809e-05
5.56675e-05
5.52827e-05
5.45259e-05
5.53717e-05
5.65631e-05
5.45676e-05
5.45463e-05
5.64997e-05
5.45301e-05
5.43112e-05
4.54672e-05
4.53082e-05
4.46894e-05
5.35933e-05
5.61951e-05
5.35567e-05
3.7422e-08
2.41941e-07
4.06628e-08
4.72628e-08
2.85986e-07
2.78376e-07
1.19643e-07
1.20044e-07
2.75841e-07
3.45958e-07
1.24492e-07
4.60225e-07
3.69782e-07
2.28333e-07
4.85239e-07
3.04682e-07
4.96326e-06
2.62952e-07
6.66799e-06
1.35407e-05
2.10256e-05
3.58783e-07
4.85917e-06
3.21859e-07
6.49587e-06
1.53274e-07
1.60108e-07
1.75194e-07
1.62946e-07
1.52743e-07
1.59573e-07
1.74813e-07
2.67197e-07
5.10631e-07
2.20823e-07
2.52844e-07
2.73694e-07
5.00384e-07
2.20131e-07
1.35415e-05
2.12274e-05
2.5619e-07
2.44531e-07
7.10957e-07
3.40467e-07
2.62041e-07
2.43536e-07
6.77353e-07
1.85535e-06
1.92764e-06
3.56147e-07
1.83819e-06
1.90436e-06
4.95479e-07
9.85186e-06
4.10412e-07
1.26055e-05
3.60982e-05
4.60408e-05
5.51157e-07
9.54519e-06
4.65298e-07
1.22314e-05
1.51671e-07
1.58409e-07
1.73344e-07
1.58435e-07
1.48515e-07
1.54956e-07
1.6928e-07