/*--------------------------------*- C++ -*----------------------------------*\
| =========                 |                                                 |
| \\      /  F ield         | OpenFOAM: The Open Source CFD Toolbox           |
|  \\    /   O peration     | Version:  v2006                                 |
|   \\  /    A nd           | Website:  www.openfoam.com                      |
|    \\/     M anipulation  |                                                 |
\*---------------------------------------------------------------------------*/
FoamFile
{
    version     2.0;
    format      ascii;
    class       volScalarField;
    location    "875";
    object      nut;
}
// * * * * * * * * * * * * * * * * * * * * * * * * * * * * * * * * * * * * * //

dimensions      [0 2 -1 0 0 0 0];


internalField   nonuniform List<scalar> 
42616
(
0.00020892
0.000202083
0.000202227
0.000183165
0.000212178
0.000204079
0.000204106
0.000184271
0.000213571
0.000204282
0.000204058
0.000184162
0.00021573
0.000205699
0.000205875
0.000185633
0.000217662
0.000206274
0.000206341
0.000185053
0.000219879
0.000208362
0.000208229
0.000187764
0.000221568
0.000208432
0.000208506
0.000187202
0.000222701
0.000208732
0.000208748
0.000187071
0.000224002
0.000209196
0.000209246
0.000186779
0.000225433
0.000211101
0.000210891
0.000188689
0.000229237
0.000212865
0.000213033
0.000192145
0.000228285
0.000210558
0.000210273
0.00018708
0.000227613
0.00021
0.000210262
0.000185012
0.000231729
0.000215104
0.000214886
0.00019511
0.000233138
0.000214719
0.000214205
0.000191031
0.000228684
0.000207261
0.000207514
0.000179975
0.000233938
0.000217717
0.000217265
0.00019719
0.000243088
0.000225262
0.000225763
0.00020465
0.000225599
0.000200661
0.000202544
0.000176291
0.000219752
0.0001942
0.000192374
0.000162641
0.000262605
0.000251482
0.000239122
0.000239892
0.000182709
0.000201474
0.000201515
0.000182773
0.000201466
0.000201547
0.000201595
0.000201698
0.000182874
0.000201635
0.000201704
0.000182963
0.00018301
0.000184734
0.000202057
0.000202014
0.000203912
0.00020371
0.00018297
0.000184474
0.000202065
0.000202144
0.00020395
0.00020388
0.000202192
0.000203708
0.000203654
0.000183174
0.000184619
0.000202217
0.000203879
0.000203697
0.000184348
0.000184687
0.000184114
0.000204222
0.000204095
0.00020416
0.000204255
0.000184486
0.00018443
0.000204243
0.000204131
0.000204146
0.000204056
0.000203912
0.000204258
0.000204019
0.000184537
0.00018409
0.000203932
0.000204045
0.000204002
0.000184151
0.000183942
0.00018543
0.000204111
0.000204251
0.000205265
0.000205223
0.000184279
0.00018523
0.000204096
0.000204036
0.000205289
0.000205326
0.000204157
0.000205324
0.000205613
0.00018396
0.000185448
0.000204136
0.000205444
0.000205643
0.000185673
0.000185572
0.000185757
0.000205808
0.000205627
0.0002063
0.000206111
0.000185263
0.000185587
0.000205844
0.000205801
0.000206334
0.00020625
0.000205901
0.000206095
0.000205971
0.000185514
0.000185695
0.000205935
0.000206228
0.000206
0.00018518
0.000185622
0.00018714
0.000206377
0.000206313
0.000207672
0.000207832
0.000185583
0.000187372
0.000206406
0.000206375
0.00020766
0.00020768
0.000206013
0.000207909
0.000207841
0.000185629
0.000187189
0.000206038
0.000207746
0.000207831
0.000187494
0.00018729
0.000187183
0.000208176
0.000208266
0.000208497
0.000208472
0.000187448
0.000187178
0.000208163
0.000208137
0.00020851
0.000208489
0.000208488
0.000208543
0.000208781
0.000187286
0.000187268
0.000208481
0.000208568
0.000208799
0.000187444
0.000186983
0.000187464
0.000208427
0.00020839
0.000208603
0.000208483
0.000186984
0.000187215
0.000208451
0.000208444
0.000208622
0.000208513
0.000208589
0.000208481
0.000208438
0.000187079
0.000187212
0.000208626
0.000208534
0.000208475
0.000187057
0.000187675
0.000187362
0.000209052
0.000208756
0.00020937
0.000209155
0.000187209
0.000187153
0.000209063
0.000208762
0.000209385
0.000209246
0.000208571
0.000209149
0.000208997
0.000187232
0.00018728
0.000208597
0.000209216
0.000209002
0.00018698
0.000186945
0.000186701
0.000209123
0.000209189
0.000209243
0.000209918
0.000186984
0.000188428
0.00020914
0.000209256
0.00020925
0.000209729
0.000209018
0.000210111
0.000209712
0.000187085
0.000188024
0.000209021
0.000209866
0.000209709
0.000187924
0.000187543
0.000193256
0.00020997
0.000210926
0.000213667
0.000212782
0.000189074
0.00019134
0.00020997
0.000210626
0.000213728
0.000212984
0.000210836
0.000212798
0.000213309
0.000188733
0.000191757
0.000210843
0.000212974
0.00021335
0.000192224
0.000193115
0.000186626
0.000213773
0.00021285
0.000210928
0.000211231
0.00019114
0.000187813
0.000213835
0.000213052
0.000210893
0.000210947
0.000213428
0.000211297
0.000211552
0.000191567
0.000187219
0.000213466
0.000210995
0.000211497
0.00018787
0.000186054
0.000186847
0.000209931
0.000210526
0.000209656
0.000209993
0.000187447
0.000186779
0.000209874
0.000210219
0.000209629
0.000210052
0.000210256
0.000209877
0.000208906
0.000186836
0.000187232
0.000210221
0.00021004
0.000208986
0.000184918
0.000187248
0.000191527
0.000209935
0.000210119
0.000213408
0.000213358
0.000186758
0.000192036
0.00020995
0.000210295
0.000213493
0.000213577
0.000209085
0.000213536
0.000214228
0.000187485
0.000191975
0.000209178
0.00021375
0.000214282
0.000193825
0.000192692
0.000194781
0.000214811
0.000214784
0.000215897
0.000215578
0.000193228
0.000193632
0.000214844
0.000214651
0.000215872
0.000215208
0.000215998
0.000215906
0.000216507
0.000192892
0.000192984
0.000215938
0.000215374
0.000216341
0.000193564
0.000193485
0.000179076
0.000215136
0.000214549
0.000206803
0.000207677
0.000191672
0.000180868
0.000215104
0.000214223
0.000206846
0.000207779
0.000214622
0.000207494
0.000207059
0.000191196
0.000181245
0.000214414
0.000207696
0.000207188
0.000180115
0.000178479
0.00019128
0.00020617
0.000207419
0.000210923
0.00021222
0.000180623
0.000192468
0.000206221
0.000207523
0.000210877
0.000211731
0.000206978
0.000212423
0.000213519
0.000181005
0.000191532
0.000207141
0.000212252
0.000213753
0.000194318
0.000196575
0.000216072
0.000218308
0.000217631
0.00022933
0.000225638
0.000196018
0.000208402
0.000218168
0.000216915
0.000229269
0.000226032
0.000218065
0.000225291
0.000223854
0.000194848
0.000208612
0.000218173
0.000225609
0.000223796
0.000205023
0.000215605
0.000170842
0.000229085
0.000225602
0.000204716
0.000207919
0.000208153
0.000177356
0.000229068
0.000226213
0.000205276
0.000211239
0.000223833
0.00020869
0.000210357
0.000208614
0.000181459
0.000223775
0.000211566
0.000210515
0.000181327
0.000164497
0.000156454
0.00019565
0.000199653
0.000189739
0.000192491
0.000171765
0.000160188
0.000196056
0.000201859
0.000189725
0.000191474
0.000202894
0.000193097
0.0001942
0.000175324
0.000159256
0.000202988
0.000191938
0.000194006
0.000162288
0.00016167
0.000241806
0.000192226
0.000193856
0.000245953
0.000240601
0.000161991
0.00023487
0.000191975
0.000192029
0.000244031
0.00022919
0.000194783
0.000238115
0.000232441
0.000159666
0.000216589
0.00019453
0.000227516
0.00023123
0.000224256
0.00025864
0.000258023
0.000252498
0.000251726
0.000257381
0.000240758
0.000258506
0.000252477
0.000253943
0.000244039
0.000231165
0.000243487
0.000208179
0.000208257
0.000208258
0.000208358
0.000100355
5.07782e-05
0.000100005
5.07979e-05
2.39053e-05
2.39117e-05
0.000100417
5.07751e-05
0.00010003
5.07943e-05
0.000208955
0.000209012
0.00020907
0.000211423
0.000211284
0.00021144
0.000211315
0.000145082
0.000103791
0.000211991
0.000202629
0.000144671
0.000104204
0.000212568
2.39064e-05
2.39113e-05
0.000145226
0.000212035
0.000103983
0.000202847
0.00014475
0.000212669
0.000104372
7.81482e-05
7.81794e-05
0.000183847
7.83965e-05
7.84127e-05
0.000100281
5.07973e-05
0.000100494
5.07787e-05
2.39111e-05
2.3909e-05
0.000100195
5.07903e-05
0.00010051
5.07709e-05
0.000212048
0.00021214
0.000211984
0.000213387
0.000213456
0.000213287
0.00021325
0.000145309
0.000104353
0.000214319
0.000204253
0.000145386
0.000104073
0.000214699
2.39075e-05
2.39048e-05
0.000145212
0.000214381
0.000104353
0.000204136
0.000145385
0.000214676
0.000103863
7.82374e-05
7.82039e-05
0.000184291
7.77906e-05
7.77528e-05
0.000100004
5.07851e-05
9.98177e-05
5.0817e-05
2.39148e-05
2.39243e-05
0.000100037
5.07807e-05
9.97431e-05
5.08138e-05
0.000213718
0.000213528
0.000213602
0.00021502
0.00021506
0.000215094
0.000215285
0.000145208
0.00010372
0.000215148
0.000204453
0.00014501
0.000104051
0.000215385
2.3914e-05
2.39252e-05
0.000145215
0.000214989
0.000103561
0.000204281
0.000144879
0.000215283
0.000104129
7.78636e-05
7.78694e-05
0.000184854
7.84229e-05
7.84354e-05
0.000100391
5.08316e-05
0.000100445
5.08212e-05
2.39259e-05
2.39255e-05
0.000100426
5.08276e-05
0.000100493
5.08161e-05
0.000215673
0.000215774
0.000215893
0.000217316
0.000217153
0.000217279
0.000217075
0.000145727
0.000104334
0.000216797
0.00020592
0.000145761
0.000104091
0.000217205
2.39263e-05
2.39248e-05
0.000145799
0.000216888
0.000104462
0.000206102
0.000145854
0.000217315
0.000104165
7.84594e-05
7.84579e-05
0.000185557
7.77637e-05
7.77527e-05
0.000100282
5.08245e-05
0.000100098
5.08534e-05
2.39341e-05
2.39451e-05
0.000100252
5.08192e-05
0.000100092
5.08474e-05
0.000217562
0.000217657
0.000217357
0.000219219
0.000219323
0.000219245
0.000219236
0.000145778
0.000103827
0.00021787
0.000206692
0.00014547
0.000104407
0.000218207
2.39318e-05
2.39425e-05
0.000145738
0.000217921
0.000103837
0.000206647
0.000145469
0.000218211
0.000104326
7.74849e-05
7.74839e-05
0.000185703
7.83279e-05
7.83203e-05
0.000100727
5.08714e-05
0.000100739
5.08614e-05
2.39462e-05
2.3942e-05
0.000100695
5.08652e-05
0.000100697
5.08572e-05
0.000219992
0.000219901
0.000220031
0.000221324
0.000221346
0.000221337
0.000221601
0.000146811
0.00010499
0.000219927
0.000208551
0.000146736
0.000104825
0.000220419
2.39448e-05
2.39423e-05
0.000146749
0.000219828
0.000104883
0.000208497
0.000146649
0.000220336
0.000104813
7.9017e-05
7.89897e-05
0.000188124
7.87437e-05
7.87271e-05
0.000100122
5.08448e-05
0.000100181
5.08596e-05
2.39418e-05
2.39498e-05
0.000100145
5.08413e-05
0.000100221
5.08538e-05
0.000221552
0.000221587
0.000221774
0.000222276
0.000222152
0.000222203
0.000222108
0.000145855
0.000103997
0.000220784
0.000208388
0.000146025
0.00010399
0.000220771
2.39409e-05
2.39473e-05
0.00014595
0.000220834
0.00010411
0.000208461
0.000146145
0.000220835
0.000104054
7.7807e-05
7.78305e-05
0.000186945
7.78165e-05
7.78336e-05
0.000100494
5.08889e-05
0.000100453
5.08887e-05
2.39537e-05
2.39528e-05
0.000100485
5.08831e-05
0.000100425
5.08839e-05
0.000222511
0.000222547
0.000222416
0.000223837
0.000223647
0.000223713
0.000223509
0.000146251
0.000104405
0.000221149
0.000208987
0.000146111
0.000104368
0.000221486
2.39536e-05
2.39537e-05
0.000146221
0.00022119
0.000104369
0.000209035
0.000146084
0.000221494
0.000104382
7.83247e-05
7.8308e-05
0.000187348
7.82354e-05
7.8221e-05
9.96711e-05
5.08472e-05
9.99258e-05
5.0847e-05
2.39524e-05
2.39635e-05
9.96188e-05
5.08416e-05
9.99413e-05
5.08395e-05
0.000223946
0.000223999
0.000223767
0.00022462
0.000225288
0.000225169
0.000225094
0.000145984
0.000103749
0.000222235
0.000209299
0.000145982
0.000103729
0.000222408
2.39501e-05
2.39583e-05
0.000145937
0.000222238
0.000103776
0.00020932
0.000145967
0.000222393
0.000103663
7.72867e-05
7.72717e-05
0.000186776
7.72237e-05
7.71979e-05
0.000101574
5.09473e-05
0.000100426
5.10014e-05
2.39861e-05
2.3992e-05
0.000101662
5.09429e-05
0.000100346
5.10022e-05
0.000226019
0.000225915
0.000225931
0.000228738
0.000228233
0.000228334
0.000228659
0.000147926
0.000104959
0.000223814
0.000211999
0.00014685
0.000105799
0.000224653
2.39868e-05
2.39958e-05
0.000148019
0.000223753
0.000104862
0.000212008
0.000146782
0.000224661
0.000105963
7.87232e-05
7.87247e-05
0.000190824
7.97485e-05
7.97927e-05
0.000100698
5.09475e-05
0.000102076
5.08622e-05
2.39698e-05
2.39576e-05
0.00010068
5.09465e-05
0.000102256
5.08516e-05
0.000228734
0.000228804
0.000229158
0.000228895
0.000228769
0.000228702
0.000228993
0.000147832
0.000105905
0.000225994
0.000212772
0.000148526
0.000104646
0.000226088
2.39686e-05
2.39507e-05
0.000147709
0.000226049
0.000106158
0.00021287
0.000148691
0.000226131
0.000104475
8.00456e-05
8.00638e-05
0.000191288
7.8643e-05
7.855e-05
9.90563e-05
5.08368e-05
9.90746e-05
5.08841e-05
2.39586e-05
2.39691e-05
9.89043e-05
5.08237e-05
9.88458e-05
5.08787e-05
0.000228431
0.000228312
0.00022833
0.000227582
0.000227746
0.00022782
0.000227204
0.000144704
0.000103184
0.000224808
0.000210072
0.000145328
0.000102998
0.000224234
2.39542e-05
2.3973e-05
0.000144668
0.000224674
0.000102841
0.000209956
0.000145063
0.000224181
0.000102883
7.66275e-05
7.65559e-05
0.000185286
7.60429e-05
7.60807e-05
0.000100122
5.09232e-05
9.98502e-05
5.09356e-05
2.39797e-05
2.39981e-05
0.000100317
5.09253e-05
9.99817e-05
5.09372e-05
0.000227763
0.000227862
0.000227237
0.000230255
0.000230252
0.000230471
0.000230514
0.000145992
0.000103115
0.000224011
0.00021039
0.000144864
0.000103849
0.000224299
2.39851e-05
2.39962e-05
0.000146478
0.00022416
0.000103745
0.000210873
0.000145338
0.000224523
0.000104292
7.64679e-05
7.66255e-05
0.000187455
7.80713e-05
7.81538e-05
0.000102534
5.10308e-05
0.000101407
5.10612e-05
2.40282e-05
2.40227e-05
0.000102378
5.10206e-05
0.000101382
5.10492e-05
0.000231729
0.000231725
0.000232282
0.000233282
0.000233201
0.000232921
0.000233682
0.000150772
0.000106977
0.000228227
0.000215864
0.000149268
0.000108091
0.000229132
2.40205e-05
2.40167e-05
0.000150163
0.000228129
0.000106638
0.000215414
0.00014901
0.000228815
0.000107514
8.19284e-05
8.18109e-05
0.000196625
8.2661e-05
8.24809e-05
9.82202e-05
5.08918e-05
0.00010161
5.07388e-05
2.39395e-05
2.39167e-05
9.82887e-05
5.08876e-05
0.000101488
5.07392e-05
0.000233039
0.000232752
0.000233344
0.00022919
0.000229663
0.000229623
0.000229395
0.000143665
0.000104657
0.00022924
0.000211564
0.000148559
0.000100458
0.000227729
2.39414e-05
2.3919e-05
0.000143631
0.0002288
0.000104373
0.000211282
0.000147939
0.000227332
0.000100594
7.68746e-05
7.67749e-05
0.000183774
7.30797e-05
7.31136e-05
9.60865e-05
5.07146e-05
9.51219e-05
5.09015e-05
2.39594e-05
2.40344e-05
9.62107e-05
5.07167e-05
9.53039e-05
5.08975e-05
0.000229329
0.000229332
0.000229158
0.000230357
0.000230819
0.000230764
0.000230988
0.00014137
9.82057e-05
0.000223445
0.000207592
0.000139804
0.000100966
0.000223616
2.3958e-05
2.40273e-05
0.000142104
0.000223716
9.86149e-05
0.000207857
0.000140353
0.00022394
0.000101244
7.25885e-05
7.27947e-05
0.000183157
7.68357e-05
7.69895e-05
0.000108249
5.12975e-05
0.000103468
5.14631e-05
2.41194e-05
2.41364e-05
0.000107677
5.12704e-05
0.000103057
5.14373e-05
0.000233721
0.000233474
0.000233995
0.000243009
0.000241142
0.000241678
0.00024049
0.000155949
0.000109168
0.000229582
0.000222015
0.000151283
0.000112902
0.000233279
2.4108e-05
2.41343e-05
0.000155497
0.000229703
0.000108613
0.000221619
0.000151167
0.000233286
0.000112232
8.33545e-05
8.32869e-05
0.000202814
8.5438e-05
8.52747e-05
0.000103392
5.12212e-05
0.00011045
5.07335e-05
2.4013e-05
2.38907e-05
0.000104376
5.1234e-05
0.000110373
5.07705e-05
0.000241323
0.000241974
0.000240709
0.000232541
0.000234398
0.000236527
0.000235593
0.000152093
0.00011387
0.000236884
0.000223766
0.000157651
0.000107237
0.000236547
2.40413e-05
2.39213e-05
0.000152903
0.000237066
0.000114282
0.000224894
0.000157479
0.000236868
0.000109027
8.49026e-05
8.48764e-05
0.000198578
8.07801e-05
8.09666e-05
8.2457e-05
5.00987e-05
8.73916e-05
5.01642e-05
2.37484e-05
2.38044e-05
8.30583e-05
5.01163e-05
8.85958e-05
5.01547e-05
0.000228188
0.000229692
0.000229822
0.000219156
0.000220969
0.000219615
0.000221462
0.000127764
9.26733e-05
0.000221468
0.000195332
0.000135966
8.66252e-05
0.000216195
2.37458e-05
2.37757e-05
0.000128015
0.000222374
9.43669e-05
0.000195945
0.000137039
0.00021645
8.68789e-05
6.83519e-05
6.84987e-05
0.000165708
6.27078e-05
6.26703e-05
0.000102116
5.09434e-05
8.86392e-05
5.16903e-05
2.4067e-05
2.43248e-05
9.96535e-05
5.08916e-05
8.73011e-05
5.16066e-05
0.000221388
0.000219695
0.000221623
0.000246621
0.00024306
0.000235014
0.000237829
0.000140391
9.08124e-05
0.000213526
0.000200096
0.000126735
0.000103004
0.000216034
2.4008e-05
2.42439e-05
0.000136988
0.000212243
8.84023e-05
0.000196107
0.000125311
0.000213913
9.89952e-05
6.59815e-05
6.57005e-05
0.000176147
7.59649e-05
7.5551e-05
0.000160292
5.7095e-05
0.000132367
0.000121031
2.80502e-05
6.85972e-05
0.000155781
5.69341e-05
0.000127285
0.000118036
0.000255096
0.000255918
0.000254446
0.000276789
0.000249677
0.000264154
0.000263636
0.000206365
0.000143843
0.000258163
0.000267537
0.000185763
0.000164397
0.000262592
2.78574e-05
6.45141e-05
0.000202039
0.000253381
0.00013398
0.000260425
0.000179051
0.000261392
0.000153275
0.00010804
0.000106679
0.000268947
0.000133181
0.000131798
2.3908e-05
2.38982e-05
2.39058e-05
2.38955e-05
0.000181968
7.80132e-05
7.80139e-05
7.76925e-05
7.7658e-05
9.9842e-05
5.07721e-05
5.07522e-05
9.9961e-05
9.98468e-05
5.07639e-05
5.07478e-05
9.99528e-05
0.000144224
0.00020097
0.000103739
0.000211316
0.000103512
0.000210759
0.000144554
0.000144234
0.00020107
0.000103693
0.000211336
0.000103555
0.000210789
0.000144548
2.39039e-05
2.38955e-05
0.000182182
7.79312e-05
7.79337e-05
7.77462e-05
7.78181e-05
2.39046e-05
2.3897e-05
9.97827e-05
5.07687e-05
5.07458e-05
9.99662e-05
0.000144152
0.000200959
0.000103732
0.000211289
0.000103462
0.000210728
0.000144536
9.978e-05
5.07667e-05
5.07443e-05
9.9965e-05
0.000144157
0.000201015
0.000211314
0.000103806
0.000210744
0.000103505
0.000144544
0.000144381
0.000201155
0.000103736
0.000211443
0.000103638
0.000210895
0.000144629
9.99305e-05
5.07659e-05
5.07512e-05
9.99936e-05
0.000144396
0.000201238
0.000211478
0.000103807
0.000210924
0.000103687
0.000144645
9.99386e-05
5.07649e-05
5.07501e-05
0.000100005
2.39052e-05
2.38957e-05
0.000182095
7.80905e-05
7.81339e-05
7.77394e-05
7.77975e-05
2.3907e-05
2.3898e-05
0.000144302
0.000201092
0.000211425
0.000103879
0.000210838
0.000103578
0.00014468
0.000144323
0.000201228
0.000211456
0.000103834
0.000210883
0.000103654
0.000144677
9.98879e-05
5.07726e-05
5.07515e-05
0.000100061
9.9897e-05
5.07664e-05
5.07487e-05
0.000100055
0.000182352
7.80415e-05
7.80752e-05
7.78699e-05
7.78404e-05
2.39045e-05
2.3897e-05
2.39042e-05
2.38962e-05
2.39095e-05
2.39157e-05
2.39073e-05
2.39133e-05
7.81511e-05
7.8159e-05
0.000183958
7.85367e-05
7.85504e-05
2.39152e-05
2.39156e-05
2.39124e-05
2.39131e-05
0.000184245
7.86268e-05
7.86302e-05
7.85936e-05
7.8605e-05
0.000100336
5.07696e-05
9.99943e-05
5.07891e-05
0.00014514
0.000103848
0.000211905
0.000202712
0.000144618
0.000104354
0.000212545
0.000145112
0.000103768
0.000211903
0.00020258
0.000144607
0.000104211
0.000212516
0.000100411
5.08012e-05
5.08001e-05
0.000100508
0.000100391
5.0794e-05
5.07915e-05
0.000100492
0.000145234
0.000203369
0.000104538
0.000213896
0.000104435
0.000213231
0.000145563
0.000145202
0.00020317
0.000104409
0.000213836
0.000104291
0.00021318
0.000145541
7.80475e-05
7.80502e-05
0.000183717
7.83818e-05
7.83745e-05
2.3906e-05
2.39123e-05
2.39123e-05
2.39117e-05
0.000183952
7.84806e-05
7.84607e-05
7.84365e-05
7.84235e-05
2.3913e-05
2.39124e-05
0.000145225
0.000103858
0.000211898
0.000202741
0.000144621
0.000104378
0.000212571
0.000100408
5.07724e-05
0.000100028
5.07893e-05
0.000145225
0.000211927
0.000103921
0.000202783
0.00014463
0.000212596
0.000104372
0.000100465
5.07959e-05
5.07961e-05
0.000100532
0.000145327
0.00020341
0.000104544
0.000213952
0.000104454
0.000213281
0.000145584
0.000100455
5.07899e-05
5.07907e-05
0.000100519
0.000145324
0.000203397
0.000213949
0.000104478
0.000213295
0.000104425
0.000145569
0.000100301
5.07712e-05
0.000100024
5.07891e-05
0.00014509
0.00021203
0.000103874
0.000202715
0.000144688
0.000212605
0.000104237
0.000100303
5.07698e-05
0.000100035
5.07849e-05
0.00014515
0.000203193
0.000104374
0.00021379
0.000104273
0.000213184
0.000145413
0.00010034
5.0793e-05
5.07911e-05
0.0001004
0.000145154
0.000203226
0.000213791
0.000104308
0.000213209
0.000104274
0.000145391
0.000100337
5.07862e-05
5.07861e-05
0.000100386
7.82167e-05
7.82496e-05
0.000184028
7.85273e-05
7.85212e-05
2.39081e-05
2.39123e-05
2.39101e-05
2.39109e-05
0.00018423
7.85435e-05
7.85041e-05
7.85604e-05
7.85447e-05
2.3911e-05
2.3912e-05
0.000145203
0.000212043
0.000103916
0.000202758
0.000144743
0.000212652
0.000104269
0.000100387
5.07775e-05
0.000100109
5.07913e-05
0.000100371
5.07711e-05
0.0001001
5.07845e-05
0.000145282
0.000203429
0.000213907
0.000104432
0.000213317
0.000104407
0.000145423
0.000145257
0.000203277
0.000213853
0.000104312
0.000213278
0.000104297
0.000145397
0.000100405
5.07895e-05
5.0792e-05
0.00010042
0.000100388
5.07836e-05
5.07852e-05
0.000100402
2.39056e-05
2.39103e-05
2.39053e-05
2.39095e-05
0.000183989
7.8383e-05
7.83752e-05
7.84155e-05
7.84281e-05
2.39099e-05
2.39101e-05
2.39086e-05
2.39092e-05
2.39128e-05
2.39087e-05
2.39098e-05
2.39056e-05
7.85391e-05
7.85229e-05
0.000184593
7.78781e-05
7.78371e-05
2.39139e-05
2.39081e-05
2.39114e-05
2.39051e-05
0.000184368
7.75323e-05
7.74987e-05
7.77102e-05
7.76694e-05
0.000100293
5.07922e-05
0.000100479
5.07784e-05
0.000145431
0.000104508
0.000214462
0.000204288
0.000145538
0.000104031
0.000214842
0.00014543
0.00010439
0.000214409
0.000204271
0.000145517
0.000104085
0.000214812
0.000100103
5.07785e-05
5.07751e-05
9.98522e-05
0.00010012
5.07782e-05
5.07753e-05
9.98729e-05
0.000145262
0.00020423
0.000103533
0.000215042
0.000103807
0.00021502
0.000144956
0.000145274
0.000204284
0.00010369
0.000215079
0.000103908
0.000215023
0.000144988
7.84386e-05
7.84212e-05
0.000184633
7.79811e-05
7.7994e-05
2.3912e-05
2.39104e-05
2.39132e-05
2.39085e-05
0.00018448
7.77236e-05
7.77636e-05
7.78543e-05
7.78783e-05
2.39151e-05
2.391e-05
0.000145373
0.000104506
0.000214498
0.000204289
0.000145553
0.000103976
0.000214841
0.000100181
5.0784e-05
0.000100497
5.07672e-05
0.000145357
0.000214478
0.000104421
0.00020417
0.000145539
0.000214807
0.000103908
0.000100008
5.07729e-05
5.07677e-05
9.97685e-05
0.000145166
0.000204224
0.000103486
0.000214965
0.00010375
0.000214968
0.000144833
9.99983e-05
5.0772e-05
5.07648e-05
9.97667e-05
0.000145154
0.000204113
0.000214932
0.000103516
0.000214931
0.000103712
0.000144831
0.000100207
5.07907e-05
0.000100382
5.07799e-05
0.000145276
0.000214286
0.000104252
0.000203996
0.000145362
0.000214632
0.000103874
0.000100181
5.07823e-05
0.000100365
5.07726e-05
0.000145189
0.000204274
0.000103744
0.000215028
0.000103915
0.00021492
0.000145046
0.000100076
5.07843e-05
5.07782e-05
9.9932e-05
0.000145157
0.000203993
0.000214947
0.000103657
0.000214832
0.000103742
0.000145032
0.000100055
5.07841e-05
5.0772e-05
9.99254e-05
7.83878e-05
7.83259e-05
0.00018444
7.77924e-05
7.77797e-05
2.39086e-05
2.39068e-05
2.39118e-05
2.39046e-05
0.000184231
7.75543e-05
7.75977e-05
7.76618e-05
7.76675e-05
2.39147e-05
2.39068e-05
0.000145199
0.00021432
0.000104235
0.000203994
0.000145359
0.000214619
0.00010382
0.00010009
5.07827e-05
0.000100376
5.07708e-05
0.000100087
5.07779e-05
0.000100361
5.07686e-05
0.000145051
0.000204085
0.000214869
0.000103563
0.000214814
0.000103699
0.0001449
0.000145047
0.000203981
0.000214858
0.000103614
0.000214772
0.000103691
0.000144914
9.99592e-05
5.07827e-05
5.077e-05
9.98379e-05
9.99613e-05
5.07835e-05
5.07683e-05
9.98477e-05
2.39083e-05
2.39076e-05
2.39068e-05
2.39062e-05
0.000184115
7.77037e-05
7.7686e-05
7.77085e-05
7.76735e-05
2.39163e-05
2.39078e-05
2.39157e-05
2.39066e-05
2.3916e-05
2.39287e-05
2.39136e-05
2.39265e-05
7.75426e-05
7.75175e-05
0.000184286
7.81577e-05
7.81662e-05
2.39318e-05
2.39296e-05
2.39295e-05
2.39273e-05
0.000184539
7.84901e-05
7.85e-05
7.83125e-05
7.83223e-05
0.000100002
5.07831e-05
9.98368e-05
5.08098e-05
0.000144988
0.0001035
0.000215058
0.000204173
0.000144872
0.000103909
0.000215213
0.000145005
0.000103658
0.000215122
0.000204362
0.000144902
0.000103941
0.000215281
0.000100137
5.08319e-05
5.08232e-05
0.000100441
0.000100128
5.08215e-05
5.08146e-05
0.000100418
0.000145079
0.000204576
0.000104485
0.000216149
0.000104107
0.000215599
0.000145725
0.000145086
0.000204747
0.000104316
0.000216147
0.000104076
0.000215641
0.000145695
7.77248e-05
7.77752e-05
0.000184605
7.81457e-05
7.82011e-05
2.39167e-05
2.39257e-05
2.39266e-05
2.39248e-05
0.000184719
7.83047e-05
7.83375e-05
7.82323e-05
7.82787e-05
2.39275e-05
2.39261e-05
0.000144951
0.000103455
0.000214971
0.000204159
0.000144763
0.000103921
0.000215142
0.000100034
5.07799e-05
9.97393e-05
5.08107e-05
0.000144958
0.000214958
0.000103495
0.000204181
0.000144766
0.000215163
0.000103997
0.00010018
5.08281e-05
5.08199e-05
0.000100489
0.00014508
0.000204577
0.000104503
0.000216168
0.000104125
0.000215572
0.000145802
0.000100175
5.08224e-05
5.08159e-05
0.000100475
0.000145086
0.000204707
0.000216184
0.000104447
0.000215596
0.000104166
0.000145791
0.000100191
5.07903e-05
9.9918e-05
5.08148e-05
0.000145236
0.000215104
0.000103674
0.000204576
0.000145002
0.000215398
0.000104255
0.000100216
5.07919e-05
9.99152e-05
5.08177e-05
0.000145301
0.000204872
0.000104349
0.00021629
0.000104169
0.000215787
0.000145768
0.000100281
5.08224e-05
5.08185e-05
0.000100439
0.000145339
0.000205127
0.000216379
0.000104522
0.000215847
0.000104377
0.000145799
0.000100306
5.08231e-05
5.0821e-05
0.000100459
7.7611e-05
7.7694e-05
0.000184454
7.82208e-05
7.82897e-05
2.3917e-05
2.39273e-05
2.39272e-05
2.39258e-05
0.00018472
7.84362e-05
7.84621e-05
7.83338e-05
7.83858e-05
2.39285e-05
2.39276e-05
0.000145243
0.000215018
0.000103644
0.000204568
0.000144897
0.000215343
0.000104275
0.000100241
5.07911e-05
9.9837e-05
5.08186e-05
0.000100257
5.07919e-05
9.98491e-05
5.08179e-05
0.000145358
0.000204863
0.000216338
0.000104477
0.000215761
0.000104274
0.000145861
0.000145386
0.000205144
0.000216401
0.000104539
0.000215834
0.000104398
0.000145868
0.000100341
5.08255e-05
5.08223e-05
0.0001005
0.000100354
5.08225e-05
5.08211e-05
0.000100506
2.39185e-05
2.39275e-05
2.3918e-05
2.39269e-05
0.000185134
7.85448e-05
7.8553e-05
7.85011e-05
7.85131e-05
2.39274e-05
2.39275e-05
2.39266e-05
2.39269e-05
2.39311e-05
2.3929e-05
2.39287e-05
2.39263e-05
7.84842e-05
7.84935e-05
0.00018586
7.80978e-05
7.80926e-05
2.39323e-05
2.39281e-05
2.39296e-05
2.39255e-05
0.000185731
7.77514e-05
7.77423e-05
7.79377e-05
7.79306e-05
0.000100369
5.0821e-05
0.00010042
5.08133e-05
0.000145848
0.000104486
0.000216741
0.000206128
0.000145775
0.000104334
0.000217246
0.000145813
0.000104305
0.000216699
0.000205885
0.00014574
0.000104132
0.000217175
0.000100286
5.08197e-05
5.08178e-05
0.000100119
0.000100272
5.08177e-05
5.08117e-05
0.000100121
0.00014579
0.000206253
0.000103913
0.000217838
0.00010415
0.000217606
0.000145692
0.000145759
0.000206015
0.000103886
0.000217773
0.000104
0.000217525
0.000145689
7.82804e-05
7.83064e-05
0.000185499
7.79125e-05
7.78907e-05
2.39266e-05
2.39258e-05
2.3932e-05
2.39254e-05
0.000185386
7.77403e-05
7.77075e-05
7.78124e-05
7.77846e-05
2.3933e-05
2.39258e-05
0.000145908
0.000104503
0.000216785
0.000206167
0.000145849
0.000104337
0.000217307
0.00010041
5.08216e-05
0.000100477
5.08112e-05
0.000145892
0.000216784
0.000104439
0.000206078
0.000145836
0.00021729
0.000104234
0.000100302
5.08146e-05
5.08126e-05
0.000100117
0.000145837
0.000206291
0.000103904
0.000217891
0.000104148
0.000217666
0.000145699
0.000100286
5.08134e-05
5.08089e-05
0.000100114
0.000145823
0.000206189
0.000217871
0.000103915
0.000217641
0.000104076
0.000145696
0.000100261
5.08209e-05
0.000100431
5.081e-05
0.000145735
0.000216881
0.000104495
0.000205983
0.00014579
0.000217263
0.000104026
0.000100254
5.08197e-05
0.00010045
5.08021e-05
0.000145618
0.000206014
0.000103829
0.000217664
0.000103948
0.000217476
0.000145494
0.000100122
5.08178e-05
5.08086e-05
9.99752e-05
0.000145607
0.000205975
0.000217619
0.000103599
0.00021749
0.000103815
0.000145446
0.000100106
5.08066e-05
5.07995e-05
9.99437e-05
7.8415e-05
7.84257e-05
0.000185741
7.79959e-05
7.79501e-05
2.39274e-05
2.39256e-05
2.393e-05
2.39245e-05
0.000185609
7.77672e-05
7.77287e-05
7.78764e-05
7.78298e-05
2.39318e-05
2.39254e-05
0.000145784
0.000216925
0.00010451
0.000206016
0.000145858
0.000217316
0.000104018
0.000100288
5.0823e-05
0.000100492
5.08098e-05
0.00010027
5.08182e-05
0.000100496
5.08003e-05
0.000145667
0.00020618
0.000217748
0.00010385
0.000217584
0.000104001
0.0001455
0.000145638
0.000206006
0.000217659
0.000103594
0.000217541
0.000103807
0.000145449
0.000100139
5.08159e-05
5.08081e-05
9.99772e-05
0.000100115
5.08055e-05
5.07978e-05
9.99438e-05
2.39253e-05
2.39216e-05
2.39243e-05
2.39206e-05
0.000185339
7.74426e-05
7.74378e-05
7.75976e-05
7.75888e-05
2.39288e-05
2.39213e-05
2.3928e-05
2.39203e-05
2.3934e-05
2.39458e-05
2.39313e-05
2.3943e-05
7.77432e-05
7.77337e-05
0.000186032
7.82537e-05
7.82368e-05
2.39503e-05
2.3947e-05
2.39475e-05
2.39442e-05
0.000186253
7.8744e-05
7.87187e-05
7.84361e-05
7.8415e-05
0.000100301
5.08238e-05
0.000100102
5.08524e-05
0.000145811
0.000103883
0.000218031
0.000206583
0.000145656
0.000104194
0.000218304
0.00014583
0.000103878
0.000218003
0.000206709
0.000145656
0.000104364
0.000218315
0.000100398
5.08715e-05
5.08598e-05
0.000100723
0.000100414
5.0866e-05
5.08578e-05
0.000100724
0.000145899
0.000207075
0.000104843
0.000219235
0.000104386
0.000218713
0.000146491
0.000145921
0.000207256
0.000104874
0.00021928
0.000104533
0.00021875
0.0001465
7.77989e-05
7.77759e-05
0.000186242
7.84218e-05
7.84573e-05
2.39353e-05
2.39471e-05
2.39473e-05
2.39457e-05
0.000186559
7.87698e-05
7.8849e-05
7.857e-05
7.86206e-05
2.39495e-05
2.39479e-05
0.000145783
0.000103873
0.000218066
0.0002066
0.000145652
0.000104171
0.000218315
0.000100257
5.08188e-05
0.000100088
5.08456e-05
0.000145793
0.000218066
0.000103898
0.00020668
0.000145655
0.000218331
0.000104287
0.000100361
5.08651e-05
5.08535e-05
0.00010068
0.000145861
0.000207075
0.000104808
0.000219194
0.000104358
0.000218698
0.000146427
0.000100364
5.08598e-05
5.08507e-05
0.00010067
0.000145873
0.000207155
0.000219208
0.000104785
0.000218721
0.000104439
0.000146424
0.00010034
5.0826e-05
9.99648e-05
5.08584e-05
0.000145726
0.000217769
0.000103582
0.000206236
0.000145419
0.000218083
0.000104219
0.00010031
5.08154e-05
9.99319e-05
5.08535e-05