/*--------------------------------*- C++ -*----------------------------------*\
| =========                 |                                                 |
| \\      /  F ield         | OpenFOAM: The Open Source CFD Toolbox           |
|  \\    /   O peration     | Version:  v2006                                 |
|   \\  /    A nd           | Website:  www.openfoam.com                      |
|    \\/     M anipulation  |                                                 |
\*---------------------------------------------------------------------------*/
FoamFile
{
    version     2.0;
    format      ascii;
    class       volVectorField;
    location    "875";
    object      U;
}
// * * * * * * * * * * * * * * * * * * * * * * * * * * * * * * * * * * * * * //

dimensions      [0 1 -1 0 0 0 0];


internalField   nonuniform List<vector> 
42616
(
(-9.8468e-06 -1.04366e-05 0.112444)
(1.19007e-05 -5.06557e-06 0.107481)
(-4.38864e-06 1.12004e-05 0.107479)
(-2.6929e-05 -2.74714e-05 0.104196)
(-1.28644e-05 -1.20409e-05 0.11241)
(1.21727e-05 -6.93309e-06 0.107476)
(-8.22161e-06 1.31227e-05 0.107476)
(-2.49262e-05 -2.41668e-05 0.104207)
(-1.17757e-05 -1.20845e-05 0.112372)
(1.0926e-05 -6.1599e-06 0.10747)
(-5.39212e-06 1.05085e-05 0.107471)
(-2.83835e-05 -2.8927e-05 0.104211)
(-1.12047e-05 -1.15594e-05 0.112341)
(1.30535e-05 -7.08403e-06 0.107467)
(-6.86303e-06 1.29536e-05 0.107465)
(-2.37659e-05 -2.38264e-05 0.104218)
(-1.25389e-05 -1.21446e-05 0.112302)
(1.11968e-05 -4.79083e-06 0.107457)
(-5.47976e-06 1.14448e-05 0.107457)
(-2.7217e-05 -2.69459e-05 0.104227)
(-1.12359e-05 -1.12234e-05 0.112273)
(1.09748e-05 -8.00692e-06 0.107454)
(-7.38903e-06 1.08571e-05 0.107454)
(-2.70851e-05 -2.71641e-05 0.104225)
(-1.29803e-05 -1.31143e-05 0.112239)
(1.21458e-05 -4.7888e-06 0.107454)
(-5.43429e-06 1.21933e-05 0.107453)
(-2.57003e-05 -2.59637e-05 0.104242)
(-9.10492e-06 -9.21912e-06 0.11221)
(1.08935e-05 -6.85675e-06 0.107453)
(-5.60294e-06 1.05726e-05 0.107452)
(-2.73733e-05 -2.72303e-05 0.10425)
(-1.82665e-05 -1.77701e-05 0.112177)
(1.32902e-05 -8.23138e-06 0.107448)
(-1.00715e-05 1.39924e-05 0.107448)
(-2.28529e-05 -2.26229e-05 0.104264)
(-4.15297e-06 -4.72803e-06 0.112139)
(9.47886e-06 -2.22337e-06 0.107434)
(-9.30719e-08 8.53889e-06 0.107433)
(-2.9988e-05 -3.06585e-05 0.104254)
(-1.42103e-05 -1.39445e-05 0.112122)
(9.75315e-06 -9.52876e-06 0.107447)
(-1.12269e-05 1.05047e-05 0.107446)
(-2.8591e-05 -2.77586e-05 0.104262)
(-1.43103e-05 -1.38737e-05 0.11209)
(1.11526e-05 -2.82524e-06 0.107454)
(-2.35345e-06 1.11507e-05 0.107455)
(-2.26602e-05 -2.31256e-05 0.104307)
(-1.00652e-05 -1.15207e-05 0.112061)
(1.52655e-05 -1.00735e-05 0.107442)
(-9.08194e-06 1.37108e-05 0.107437)
(-2.43461e-05 -2.54731e-05 0.104307)
(-3.57563e-06 -1.66207e-06 0.112033)
(-2.01863e-06 2.87031e-06 0.107425)
(1.21673e-06 4.1296e-07 0.107427)
(-4.24197e-05 -3.97543e-05 0.104252)
(-1.96506e-05 -2.09029e-05 0.112037)
(2.02857e-05 -1.52097e-05 0.107468)
(-1.40757e-05 1.91777e-05 0.10747)
(-1.09358e-05 -1.28748e-05 0.104346)
(-2.52692e-05 -2.49294e-05 0.111975)
(1.6702e-05 -1.00808e-05 0.107461)
(-1.07312e-05 1.49605e-05 0.107456)
(-2.78621e-05 -2.90907e-05 0.104359)
(2.50338e-05 2.63144e-05 0.111922)
(-1.0634e-06 1.96726e-05 0.107384)
(1.7228e-05 2.54194e-06 0.107387)
(-3.45182e-05 -3.17718e-05 0.10425)
(-8.0409e-06 -1.55831e-05 0.111998)
(-1.75782e-05 -9.0657e-06 0.107453)
(1.64223e-06 -2.20693e-05 0.107441)
(-4.52593e-05 -5.03013e-05 0.104319)
(-7.30505e-05 -6.52137e-05 0.112005)
(3.71447e-05 -4.2275e-05 0.107579)
(-4.73212e-05 3.64075e-05 0.107563)
(1.60333e-06 3.63379e-06 0.1045)
(-1.28874e-05 -5.24359e-07 0.111832)
(6.10543e-05 1.3397e-05 0.107405)
(-7.60899e-07 6.56643e-05 0.107459)
(2.17173e-05 3.38289e-05 0.104438)
(7.87573e-05 7.8329e-05 0.111872)
(-1.20002e-05 4.77174e-05 0.107444)
(4.16711e-06 2.87699e-05 0.107538)
(-4.5283e-05 -4.14984e-05 0.104379)
(-4.28835e-05 -4.34635e-05 0.104309)
(-4.65544e-06 -1.22212e-05 0.107481)
(6.07298e-06 -1.22018e-05 0.107481)
(4.41102e-05 -4.35626e-05 0.104311)
(-1.17864e-05 -5.30437e-06 0.107483)
(-1.16576e-05 5.12378e-06 0.10748)
(1.24925e-05 -5.61199e-06 0.107484)
(1.22461e-05 5.11205e-06 0.10748)
(-4.29335e-05 4.33346e-05 0.104308)
(-4.75244e-06 1.17461e-05 0.107482)
(5.85225e-06 1.16684e-05 0.107482)
(4.37191e-05 4.30882e-05 0.104308)
(2.7828e-05 2.7276e-05 0.104196)
(-4.48798e-05 -4.42503e-05 0.104314)
(-4.16836e-06 -1.12982e-05 0.107478)
(5.8498e-06 -1.13818e-05 0.107479)
(-7.32265e-06 -1.09129e-05 0.107473)
(6.69256e-06 -1.09022e-05 0.107474)
(-2.65294e-05 2.71435e-05 0.104197)
(4.4233e-05 -4.38276e-05 0.104315)
(-1.07996e-05 -4.7509e-06 0.10748)
(-1.07282e-05 5.19261e-06 0.107476)
(-1.1349e-05 -6.69629e-06 0.107475)
(-1.12597e-05 7.83544e-06 0.107473)
(1.15609e-05 5.03594e-06 0.107478)
(1.15293e-05 -6.08065e-06 0.107477)
(1.17903e-05 8.15893e-06 0.107475)
(2.77354e-05 -2.71663e-05 0.104195)
(-4.46461e-05 4.52436e-05 0.104314)
(5.60971e-06 1.1064e-05 0.107479)
(-7.12086e-06 1.21356e-05 0.107476)
(7.42504e-06 1.23715e-05 0.107477)
(4.48521e-05 4.55969e-05 0.104316)
(2.44883e-05 2.52035e-05 0.104204)
(-4.32464e-05 -4.34907e-05 0.104325)
(-8.70951e-06 -1.21582e-05 0.107473)
(6.97295e-06 -1.1939e-05 0.107473)
(-6.22707e-06 -1.31107e-05 0.107471)
(5.28557e-06 -1.29734e-05 0.107469)
(-2.56531e-05 2.57503e-05 0.104205)
(4.26304e-05 -4.3794e-05 0.104322)
(-1.28693e-05 -7.85569e-06 0.107475)
(-1.27282e-05 8.27727e-06 0.107473)
(-1.31016e-05 -6.4061e-06 0.107473)
(-1.31789e-05 4.88225e-06 0.10747)
(1.27125e-05 8.70064e-06 0.107475)
(1.19235e-05 -6.79597e-06 0.107471)
(1.18984e-05 4.36007e-06 0.10747)
(2.48307e-05 -2.45919e-05 0.104205)
(-4.35428e-05 4.21285e-05 0.104323)
(7.81431e-06 1.34763e-05 0.107477)
(-6.50258e-06 1.18618e-05 0.107472)
(4.64892e-06 1.17252e-05 0.107471)
(4.20182e-05 4.16562e-05 0.104322)
(2.76268e-05 2.71656e-05 0.104214)
(-4.36235e-05 -4.39035e-05 0.104326)
(-4.59439e-06 -1.18542e-05 0.10747)
(4.962e-06 -1.19184e-05 0.107468)
(-5.70947e-06 -1.05216e-05 0.107464)
(7.80089e-06 -1.08612e-05 0.107466)
(-2.76512e-05 2.66095e-05 0.104211)
(4.51517e-05 -4.40306e-05 0.104329)
(-1.14854e-05 -5.2083e-06 0.107471)
(-1.1686e-05 4.14763e-06 0.107468)
(-1.02101e-05 -6.20811e-06 0.107466)
(-1.04325e-05 7.38808e-06 0.107464)
(1.0529e-05 3.26038e-06 0.107467)
(1.1617e-05 -6.59638e-06 0.107468)
(1.11862e-05 7.36085e-06 0.107463)
(2.7106e-05 -2.83373e-05 0.104212)
(-4.37296e-05 4.5021e-05 0.104326)
(3.92557e-06 1.00636e-05 0.107469)
(-6.10625e-06 1.13776e-05 0.107466)
(7.77802e-06 1.10039e-05 0.107465)
(4.50557e-05 4.48958e-05 0.104325)
(2.52984e-05 2.51556e-05 0.104216)
(-4.41227e-05 -4.37783e-05 0.104333)
(-7.26466e-06 -1.17895e-05 0.107463)
(8.63743e-06 -1.18924e-05 0.107465)
(-7.2469e-06 -1.33192e-05 0.107457)
(5.43103e-06 -1.27287e-05 0.107457)
(-2.40628e-05 2.52782e-05 0.10422)
(4.26466e-05 -4.28183e-05 0.104333)
(-1.17014e-05 -7.44645e-06 0.107464)
(-1.16131e-05 8.46124e-06 0.107462)
(-1.35512e-05 -6.83026e-06 0.107459)
(-1.28727e-05 5.918e-06 0.107456)
(1.29849e-05 9.24443e-06 0.107463)
(1.29474e-05 -5.45875e-06 0.10746)
(1.38258e-05 7.07741e-06 0.10746)
(2.54678e-05 -2.40936e-05 0.104217)
(-4.31825e-05 4.28925e-05 0.104332)
(9.36514e-06 1.2984e-05 0.107465)
(-5.96746e-06 1.29997e-05 0.107459)
(6.70022e-06 1.39533e-05 0.107461)
(4.36102e-05 4.38813e-05 0.104336)
(2.629e-05 2.66335e-05 0.104224)
(-4.21731e-05 -4.21462e-05 0.104335)
(-5.877e-06 -1.21169e-05 0.107456)
(3.88564e-06 -1.16972e-05 0.107455)
(-5.1475e-06 -9.75519e-06 0.107453)
(5.75261e-06 -1.05598e-05 0.107451)
(-2.78792e-05 2.72821e-05 0.104223)
(4.26929e-05 -4.35867e-05 0.104335)
(-1.24131e-05 -5.41374e-06 0.107457)
(-1.19991e-05 4.56176e-06 0.107454)
(-9.97047e-06 -5.07001e-06 0.107454)
(-1.0753e-05 5.65953e-06 0.107451)
(1.19608e-05 4.80539e-06 0.107458)
(9.58445e-06 -6.95573e-06 0.107454)
(8.7876e-06 4.10214e-06 0.10745)
(2.68454e-05 -2.75382e-05 0.104222)
(-4.34784e-05 4.26725e-05 0.104335)
(4.37444e-06 1.21712e-05 0.107459)
(-6.83467e-06 9.8785e-06 0.107454)
(3.9784e-06 9.06871e-06 0.107452)
(4.14686e-05 4.15752e-05 0.104331)
(2.68185e-05 2.66941e-05 0.104228)
(-4.43527e-05 -4.46231e-05 0.10435)
(-6.31552e-06 -1.07072e-05 0.107452)
(7.47991e-06 -1.1434e-05 0.107452)
(-7.75522e-06 -1.31869e-05 0.107452)
(6.87005e-06 -1.2205e-05 0.107452)
(-2.5988e-05 2.53908e-05 0.104228)
(4.35015e-05 -4.25458e-05 0.10435)
(-1.06382e-05 -6.61557e-06 0.107454)
(-1.12797e-05 6.83414e-06 0.107452)
(-1.2836e-05 -8.14409e-06 0.107454)
(-1.20438e-05 6.89388e-06 0.107451)
(1.01316e-05 5.92661e-06 0.10745)
(1.30612e-05 -6.0012e-06 0.107454)
(1.34059e-05 7.86232e-06 0.10745)
(2.57686e-05 -2.62985e-05 0.104228)
(-4.28789e-05 4.35886e-05 0.104349)
(6.2336e-06 1.01085e-05 0.107451)
(-6.15265e-06 1.2629e-05 0.107453)
(8.38741e-06 1.28861e-05 0.107452)
(4.44486e-05 4.40206e-05 0.104348)
(2.55013e-05 2.53916e-05 0.104243)
(-3.93899e-05 -3.92799e-05 0.104351)
(-6.74606e-06 -1.26556e-05 0.107452)
(5.63733e-06 -1.14157e-05 0.107452)
(-2.24842e-06 -8.26879e-06 0.107447)
(6.25039e-06 -9.5919e-06 0.10745)
(-2.66081e-05 2.74339e-05 0.104242)
(4.26963e-05 -4.22532e-05 0.104356)
(-1.26065e-05 -6.7096e-06 0.107453)
(-1.16603e-05 6.21691e-06 0.10745)
(-8.50093e-06 -2.20299e-06 0.107449)
(-9.50441e-06 5.75316e-06 0.107448)
(1.26828e-05 6.81037e-06 0.107451)
(9.95925e-06 -5.40552e-06 0.107453)
(9.35741e-06 4.81395e-06 0.107451)
(2.6864e-05 -2.62336e-05 0.104241)
(-4.14743e-05 4.22209e-05 0.104355)
(6.87546e-06 1.24699e-05 0.107452)
(-4.74372e-06 1.01553e-05 0.107451)
(4.59955e-06 9.70922e-06 0.107452)
(4.12288e-05 4.15295e-05 0.104356)
(2.9726e-05 2.96784e-05 0.104244)
(-5.01528e-05 -4.99626e-05 0.104371)
(-3.21932e-06 -8.40031e-06 0.107447)
(7.61565e-06 -1.04008e-05 0.107451)
(-1.36474e-05 -1.54423e-05 0.107449)
(7.0467e-06 -1.43234e-05 0.107448)
(-2.59466e-05 2.6354e-05 0.10425)
(4.44344e-05 -4.58984e-05 0.104369)
(-8.33077e-06 -3.46033e-06 0.107449)
(-9.70402e-06 6.52908e-06 0.107449)
(-1.54747e-05 -1.33947e-05 0.107451)
(-1.43931e-05 7.89273e-06 0.107447)
(1.01557e-05 6.10275e-06 0.107452)
(1.35396e-05 -8.872e-06 0.10745)
(1.43403e-05 9.64579e-06 0.107449)
(2.74928e-05 -2.67839e-05 0.104248)
(-4.69106e-05 4.5229e-05 0.104368)
(6.14724e-06 1.03102e-05 0.107453)
(-9.78873e-06 1.35162e-05 0.107449)
(9.44493e-06 1.43825e-05 0.10745)
(4.64853e-05 4.66203e-05 0.10437)
(1.82431e-05 1.86171e-05 0.104267)
(-3.55127e-05 -3.58255e-05 0.104366)
(-1.46268e-05 -1.75627e-05 0.10745)
(5.38558e-06 -1.50035e-05 0.107446)
(1.18063e-06 -1.04436e-05 0.107439)
(3.67954e-06 -1.01767e-05 0.107432)
(-2.50453e-05 2.32201e-05 0.104262)
(4.05436e-05 -3.95358e-05 0.104358)
(-1.80003e-05 -1.40308e-05 0.107452)
(-1.5988e-05 7.03366e-06 0.107445)
(-1.04624e-05 8.36557e-07 0.10744)
(-1.04276e-05 2.8369e-06 0.107432)
(1.46875e-05 9.03201e-06 0.107448)
(1.02822e-05 -2.86298e-06 0.107435)
(1.05882e-05 2.34564e-06 0.107435)
(2.17953e-05 -2.39267e-05 0.104262)
(-3.85839e-05 3.95887e-05 0.104358)
(8.61867e-06 1.49759e-05 0.10745)
(-2.05797e-06 1.02605e-05 0.107434)
(2.78957e-06 1.03378e-05 0.107436)
(3.99163e-05 3.95022e-05 0.104361)
(3.6221e-05 3.55306e-05 0.104255)
(-4.34936e-05 -4.36603e-05 0.104359)
(5.87481e-06 -5.29539e-06 0.107434)
(5.3119e-06 -7.59165e-06 0.107432)
(-7.1281e-06 -6.57874e-06 0.107429)
(8.18992e-06 -8.69725e-06 0.107439)
(-2.85291e-05 3.03149e-05 0.104251)
(4.32774e-05 -4.3687e-05 0.104376)
(-4.67333e-06 4.89269e-06 0.107435)
(-6.56655e-06 3.28733e-06 0.107431)
(-6.05563e-06 -7.43244e-06 0.10743)
(-7.78078e-06 8.51167e-06 0.107437)
(8.57385e-06 8.5464e-07 0.107432)
(9.05273e-06 -8.33005e-06 0.107441)
(6.70681e-06 4.33215e-06 0.107431)
(3.19392e-05 -2.99951e-05 0.104251)
(-4.36827e-05 4.38385e-05 0.104373)
(1.74737e-06 7.85588e-06 0.107434)
(-8.26823e-06 8.79798e-06 0.107439)
(4.22445e-06 6.81221e-06 0.107433)
(3.9711e-05 4.00902e-05 0.104363)
(2.20233e-05 2.24304e-05 0.104259)
(-4.34908e-05 -4.23828e-05 0.104415)
(-1.39612e-05 -1.14044e-05 0.107436)
(7.02196e-06 -1.13129e-05 0.107445)
(-9.58045e-06 -1.38986e-05 0.107454)
(3.56494e-06 -1.08947e-05 0.107449)
(-2.62113e-05 2.46696e-05 0.104275)
(4.03048e-05 -3.98159e-05 0.104403)
(-1.18916e-05 -1.30597e-05 0.107437)
(-1.17018e-05 8.91074e-06 0.107443)
(-1.5281e-05 -8.19556e-06 0.107456)
(-1.28118e-05 4.58233e-06 0.10745)
(7.8513e-06 6.79119e-06 0.107436)
(1.06154e-05 -3.50983e-06 0.107453)
(1.29361e-05 1.1099e-05 0.107452)
(2.36309e-05 -2.47909e-05 0.104273)
(-4.1174e-05 4.08389e-05 0.104407)
(5.66585e-06 8.79446e-06 0.107438)
(-5.1576e-06 1.17635e-05 0.107454)
(1.03778e-05 1.35245e-05 0.107453)
(4.53865e-05 4.56092e-05 0.104408)
(2.77414e-05 2.81657e-05 0.10431)
(-4.39893e-05 -4.59588e-05 0.104403)
(-4.4537e-06 -1.15665e-05 0.107458)
(5.44818e-06 -9.4148e-06 0.10745)
(-4.83599e-06 -1.17366e-05 0.107446)
(1.18308e-05 -1.30886e-05 0.107443)
(-2.78627e-05 2.96055e-05 0.104297)
(4.93405e-05 -4.78405e-05 0.104405)
(-1.19152e-05 -4.72052e-06 0.10746)
(-1.02804e-05 4.30628e-06 0.107452)
(-9.78805e-06 -7.14199e-06 0.107448)
(-1.0746e-05 8.95069e-06 0.107439)
(1.42969e-05 1.13662e-05 0.107458)
(1.55856e-05 -9.63135e-06 0.107446)
(1.62162e-05 6.56933e-06 0.107453)
(2.91234e-05 -2.81751e-05 0.104301)
(-4.54627e-05 4.7049e-05 0.104398)
(1.22992e-05 1.37348e-05 0.10746)
(-6.72961e-06 1.31596e-05 0.107441)
(8.84213e-06 1.4244e-05 0.107454)
(4.69347e-05 4.51233e-05 0.104418)
(2.28548e-05 2.13406e-05 0.104295)
(-3.30631e-05 -3.10669e-05 0.104376)
(-8.0597e-06 -1.44292e-05 0.10744)
(8.25376e-06 -1.55536e-05 0.107439)
(2.13495e-06 -5.6581e-06 0.107417)
(-7.99373e-06 -6.20333e-06 0.107418)
(-2.07239e-05 2.0455e-05 0.104298)
(2.83872e-05 -3.37449e-05 0.104375)
(-1.30193e-05 -9.21106e-06 0.107442)
(-1.37665e-05 7.7208e-06 0.107435)
(-7.22759e-06 4.10482e-06 0.107418)
(-7.7095e-06 -4.54066e-06 0.107417)
(1.46363e-05 2.29616e-06 0.107446)
(3.95114e-07 1.64314e-06 0.107419)
(-1.87428e-06 -8.11364e-06 0.107408)
(2.20033e-05 -2.20214e-05 0.104291)
(-3.53895e-05 3.09902e-05 0.104377)
(3.02748e-06 1.36159e-05 0.107446)
(-9.51532e-07 2.89168e-06 0.107419)
(-1.08967e-05 5.76711e-07 0.10741)
(2.65908e-05 2.93982e-05 0.104356)
(3.89517e-05 4.08837e-05 0.10427)
(-4.63755e-05 -4.72606e-05 0.104419)
(5.10518e-06 -9.10464e-09 0.107422)
(-5.15208e-06 -1.47678e-06 0.107425)
(-1.13645e-05 -5.44882e-06 0.107441)
(1.92429e-05 -6.8431e-06 0.107449)
(-4.11151e-05 3.74091e-05 0.10427)
(5.37227e-05 -4.67233e-05 0.104432)
(-1.75089e-06 7.31858e-06 0.107423)
(-2.76782e-06 -2.76236e-06 0.107425)
(-5.17709e-06 -1.18714e-05 0.107443)
(-6.52214e-06 1.76594e-05 0.10745)
(-4.35108e-06 -3.93203e-06 0.107411)
(1.2815e-05 -1.16034e-05 0.107449)
(1.39654e-05 2.19528e-05 0.107445)
(3.61288e-05 -3.88763e-05 0.104273)
(-4.58205e-05 5.24996e-05 0.104434)
(-6.86822e-06 -1.7568e-06 0.107414)
(-1.03899e-05 1.26646e-05 0.107452)
(2.27711e-05 1.37189e-05 0.107448)
(5.57769e-05 5.4527e-05 0.104435)
(1.76391e-05 1.63159e-05 0.104327)
(-5.71142e-05 -5.78814e-05 0.104498)
(-1.94905e-05 -1.59683e-05 0.107463)
(2.12315e-05 -1.4759e-05 0.107467)
(-2.05522e-05 -2.99421e-05 0.107473)
(4.8228e-06 -2.48214e-05 0.107458)
(-1.34324e-05 1.94895e-05 0.104339)
(4.39127e-05 -5.01802e-05 0.104472)
(-1.48949e-05 -2.14433e-05 0.107465)
(-1.43584e-05 1.92465e-05 0.107467)
(-2.87316e-05 -2.17921e-05 0.107475)
(-2.37996e-05 3.19997e-06 0.107456)
(2.25965e-05 2.30537e-05 0.107469)
(2.11252e-05 -1.2034e-05 0.107463)
(2.24082e-05 2.28729e-06 0.107465)
(2.03428e-05 -1.50062e-05 0.10434)
(-5.02701e-05 4.24941e-05 0.104467)
(2.58148e-05 2.09209e-05 0.107471)
(-1.15779e-05 1.84538e-05 0.10746)
(4.69384e-06 1.99008e-05 0.107466)
(4.33879e-05 4.14145e-05 0.104475)
(1.16014e-05 1.1389e-05 0.104388)
(-2.09462e-05 -1.78376e-05 0.104349)
(-1.53014e-05 -2.8271e-05 0.107475)
(3.15172e-07 -2.32009e-05 0.107456)
(2.23532e-05 3.67883e-06 0.107381)
(-5.2598e-07 -6.12538e-07 0.107385)
(-2.52693e-05 1.82e-05 0.104358)
(3.73707e-05 -2.9582e-05 0.104363)
(-2.80097e-05 -1.48603e-05 0.107476)
(-2.26583e-05 2.10295e-07 0.107453)
(4.27331e-07 2.53385e-05 0.107384)
(-5.02467e-06 5.00354e-06 0.107391)
(1.54434e-05 -3.87763e-06 0.107459)
(3.80766e-06 9.48578e-06 0.10739)
(2.22362e-07 -9.93867e-07 0.107386)
(1.79686e-05 -2.62966e-05 0.104355)
(-3.39019e-05 4.22314e-05 0.104373)
(-3.51188e-06 1.41565e-05 0.107458)
(4.44596e-06 8.33946e-06 0.107393)
(-4.28241e-06 3.21151e-06 0.107386)
(3.48728e-05 3.81172e-05 0.104357)
(5.55074e-05 5.80293e-05 0.104222)
(-1.39123e-05 -2.01804e-05 0.104318)
(3.51766e-05 1.88344e-05 0.107356)
(-2.94718e-06 1.08639e-05 0.10738)
(7.07906e-06 2.58914e-05 0.107363)
(-6.89472e-06 2.24755e-05 0.1074)
(-3.44086e-05 4.51612e-05 0.104251)
(1.64098e-05 -1.62053e-05 0.104375)
(1.62417e-05 3.75265e-05 0.107359)
(7.83331e-06 8.4996e-08 0.107385)
(3.01706e-05 1.61297e-06 0.107364)
(2.65542e-05 -1.4702e-05 0.107388)
(-2.15524e-06 4.62821e-08 0.107383)
(-1.68803e-05 8.93672e-06 0.107401)
(-1.01639e-05 -5.10293e-06 0.107409)
(4.11433e-05 -2.97119e-05 0.104261)
(-8.1276e-06 1.03074e-05 0.104359)
(-2.8403e-06 5.8692e-07 0.107384)
(1.81823e-05 -1.91901e-05 0.10739)
(-1.31012e-06 -1.26063e-05 0.10741)
(2.29777e-05 1.86495e-05 0.104396)
(3.92267e-05 3.21349e-05 0.104262)
(-8.22942e-05 -8.25021e-05 0.104688)
(-1.92578e-05 7.63986e-06 0.107434)
(-6.08452e-06 1.09435e-05 0.107453)
(-5.70833e-05 -5.43123e-05 0.10759)
(1.85196e-05 -4.7514e-05 0.107548)
(-5.03199e-05 4.28863e-05 0.104301)
(5.36205e-05 -7.78206e-05 0.104612)
(1.45652e-05 -2.89583e-05 0.107434)
(1.76469e-05 -1.5173e-05 0.107438)
(-5.21512e-05 -5.79289e-05 0.107589)
(-4.13859e-05 1.75255e-05 0.107527)
(-1.23416e-05 -8.76817e-06 0.107458)
(2.30647e-05 -4.98485e-05 0.107546)
(2.06351e-05 2.09517e-05 0.107529)
(5.24367e-05 -5.77486e-05 0.104281)
(-7.60157e-05 5.20209e-05 0.104582)
(-7.89727e-07 -1.68249e-05 0.107461)
(-4.81313e-05 1.76021e-05 0.107529)
(2.12557e-05 1.94156e-05 0.107531)
(5.53713e-05 5.56048e-05 0.104579)
(-2.10889e-05 -1.89045e-05 0.10461)
(-5.87138e-05 -4.43031e-05 0.104497)
(-4.4892e-05 -5.76064e-05 0.107628)
(2.71665e-05 -5.22425e-05 0.107582)
(-1.55708e-05 -5.12306e-05 0.107488)
(5.31864e-05 -5.57389e-05 0.107478)
(1.61966e-06 -1.87529e-05 0.104535)
(8.57698e-05 -5.1998e-05 0.104499)
(-5.91532e-05 -3.97326e-05 0.107626)
(-5.18272e-05 3.17049e-05 0.107563)
(-6.16148e-05 -2.38985e-07 0.107493)
(-6.07094e-05 5.84564e-05 0.107499)
(3.46257e-05 3.14044e-05 0.107556)
(8.05417e-05 -1.3924e-05 0.107478)
(7.1049e-05 4.6688e-05 0.107474)
(-1.83101e-05 9.83157e-07 0.104508)
(-5.47778e-05 8.49737e-05 0.104532)
(2.68394e-05 3.60907e-05 0.107558)
(-2.28645e-05 8.15657e-05 0.107498)
(3.50065e-05 7.77819e-05 0.107478)
(6.65124e-05 7.74507e-05 0.104503)
(-1.97731e-05 -4.64885e-06 0.104399)
(3.40792e-05 4.14051e-05 0.103875)
(2.77079e-06 -2.23725e-05 0.107385)
(2.97328e-05 -2.97721e-05 0.107398)
(3.77967e-05 6.12785e-06 0.107111)
(-4.01096e-05 8.65026e-06 0.107166)
(4.2763e-05 -9.06406e-06 0.10442)
(-4.12163e-05 4.52288e-05 0.10394)
(-3.92576e-05 2.45002e-05 0.107397)
(-3.85271e-05 4.06848e-05 0.107456)
(-6.35794e-06 4.72592e-05 0.107128)
(-2.45621e-05 6.30453e-06 0.107279)
(4.8248e-05 2.6707e-05 0.107421)
(1.22882e-06 4.83649e-05 0.107187)
(1.0427e-05 -1.42445e-05 0.107237)
(-1.11277e-05 4.17381e-05 0.104472)
(-6.98996e-06 1.22476e-05 0.104111)
(8.3089e-06 6.11652e-05 0.10743)
(3.05704e-06 3.53458e-05 0.107294)
(-2.47165e-05 2.29486e-05 0.107247)
(-2.0173e-05 -1.21407e-05 0.104029)
(6.94928e-05 7.18156e-05 0.104226)
(4.76976e-05 1.13891e-05 0.107372)
(-4.98906e-05 1.38139e-05 0.107429)
(-7.57039e-05 7.42723e-05 0.10429)
(6.18461e-06 4.713e-05 0.10738)
(-2.50385e-05 -4.43803e-06 0.107526)
(-7.42906e-05 7.7866e-05 0.111926)
(5.6196e-05 -5.03636e-05 0.111954)
(-5.99094e-05 -5.84101e-05 0.111947)
(7.06131e-06 -2.24745e-05 0.107494)
(1.78994e-05 -1.75359e-05 0.104456)
(-2.3809e-05 1.35505e-05 0.107498)
(-1.04328e-05 -1.0921e-05 0.112453)
(1.13594e-05 -1.11346e-05 0.112453)
(-1.04095e-05 1.04773e-05 0.112452)
(1.12351e-05 1.06161e-05 0.112452)
(-1.79924e-07 -1.18666e-05 0.0914549)
(-3.07726e-07 3.4034e-06 0.0822794)
(-1.04865e-07 -9.70656e-07 0.0914147)
(-1.42113e-06 -8.13692e-06 0.0823297)
(-4.85529e-07 1.83436e-06 0.0715983)
(2.42376e-06 -3.36861e-06 0.0716507)
(-1.15413e-05 -3.49106e-08 0.0914548)
(3.31247e-06 -2.41957e-07 0.0822806)
(-9.01634e-07 -2.12965e-07 0.0914146)
(-8.12257e-06 -1.2273e-06 0.0823307)
(1.1271e-05 -1.06638e-05 0.112444)
(-9.92046e-06 1.04674e-05 0.112442)
(1.11182e-05 1.04912e-05 0.112443)
(-1.13992e-05 -1.09718e-05 0.112418)
(1.1686e-05 -1.07544e-05 0.112419)
(-1.12544e-05 1.2353e-05 0.112417)
(1.19667e-05 1.2531e-05 0.112418)
(2.09316e-05 -2.87746e-08 0.0985936)
(-2.1272e-06 -1.81927e-07 0.093039)
(1.47036e-05 -2.39659e-06 0.109892)
(1.13765e-05 -4.93698e-06 0.107479)
(-6.67679e-08 -2.98719e-07 0.0985383)
(1.54083e-05 -5.43083e-06 0.0930925)
(1.41968e-05 -2.06651e-06 0.109888)
(1.94005e-06 -6.80673e-07 0.0716037)
(-3.3412e-06 2.18846e-06 0.0716497)
(-1.46579e-07 2.03628e-05 0.0985925)
(-1.68157e-06 1.40566e-05 0.109891)
(-2.79171e-08 -2.45466e-06 0.0930371)
(-4.67362e-06 1.09165e-05 0.107477)
(2.32012e-08 -3.679e-07 0.0985371)
(-1.80512e-06 1.37306e-05 0.109887)
(-4.90746e-06 1.44597e-05 0.0930917)
(-3.59137e-07 -1.24703e-06 0.0875943)
(-1.26092e-06 -3.59257e-07 0.0875937)
(4.3336e-05 4.33234e-05 0.10431)
(4.94012e-06 4.86457e-06 0.0876375)
(4.61987e-06 4.98553e-06 0.087636)
(-4.40442e-07 -1.01829e-05 0.0914844)
(1.91233e-06 6.27227e-06 0.0823073)
(-6.86062e-07 3.56931e-06 0.0914436)
(-6.12202e-07 -6.64604e-06 0.0823471)
(-2.06491e-06 3.3379e-06 0.0716186)
(2.39131e-06 -2.29286e-06 0.0716583)
(-1.04052e-05 -3.56698e-07 0.0914849)
(6.37343e-06 2.03471e-06 0.0823075)
(3.82244e-06 -3.37285e-07 0.0914433)
(-6.63011e-06 -6.96419e-07 0.0823471)
(1.20813e-05 -1.1583e-05 0.11241)
(-1.25773e-05 1.31917e-05 0.112409)
(1.25638e-05 1.34735e-05 0.11241)
(-1.33168e-05 -1.31498e-05 0.112381)
(1.17104e-05 -1.31175e-05 0.11238)
(-1.33683e-05 1.18003e-05 0.11238)
(1.15032e-05 1.15623e-05 0.11238)
(2.06648e-05 -7.24996e-07 0.0986175)
(-6.09007e-06 2.59983e-06 0.0930666)
(1.47591e-05 -2.47571e-06 0.109876)
(1.26826e-05 -7.42167e-06 0.107475)
(-3.29622e-06 -2.57559e-07 0.0985607)
(1.49915e-05 -4.14274e-06 0.093122)
(1.55455e-05 -3.0805e-06 0.109871)
(3.66737e-06 -2.41067e-06 0.0716153)
(-2.40174e-06 2.6189e-06 0.0716514)
(-1.03594e-06 2.11052e-05 0.0986185)
(-3.69908e-06 1.54921e-05 0.109875)
(2.98801e-06 -6.38913e-06 0.093066)
(-8.42877e-06 1.35163e-05 0.107475)
(-1.01688e-06 -3.42157e-06 0.0985608)
(-4.17466e-06 1.63599e-05 0.109871)
(-4.37216e-06 1.55069e-05 0.0931233)
(-8.97085e-07 -2.94348e-06 0.0876234)
(-3.1546e-06 -7.52674e-07 0.0876228)
(4.47044e-05 4.52606e-05 0.104322)
(8.09772e-06 5.32036e-06 0.0876678)
(5.44102e-06 8.09849e-06 0.0876663)
(-1.56038e-07 -1.31611e-05 0.0915165)
(-1.06673e-06 3.2642e-06 0.0823343)
(-8.86222e-08 -1.49867e-06 0.0914777)
(-2.09213e-06 -9.36133e-06 0.0823883)
(-1.20515e-07 1.70793e-06 0.0716446)
(2.62257e-06 -3.69415e-06 0.0717009)
(-1.32845e-05 -3.39718e-07 0.0915166)
(3.08971e-06 -1.24575e-06 0.0823353)
(-1.89719e-06 -4.29526e-07 0.0914781)
(-9.41209e-06 -2.12684e-06 0.0823896)
(1.10582e-05 -1.24814e-05 0.112372)
(-1.21228e-05 1.05677e-05 0.112372)
(1.04442e-05 1.00576e-05 0.112372)
(-1.00672e-05 -1.0694e-05 0.11235)
(1.19794e-05 -1.12049e-05 0.11235)
(-1.04716e-05 1.13519e-05 0.112349)
(1.15838e-05 1.10542e-05 0.112348)
(2.11384e-05 -8.43167e-07 0.0986401)
(-2.23657e-06 -8.04147e-07 0.0930975)
(1.45667e-05 -3.96694e-06 0.109858)
(1.03212e-05 -5.88231e-06 0.107469)
(-7.91947e-08 -1.09291e-06 0.0985867)
(1.56794e-05 -6.17294e-06 0.0931495)
(1.35184e-05 -3.70868e-06 0.109855)
(1.5111e-06 2.36396e-07 0.0716479)
(-3.82316e-06 2.83264e-06 0.0717023)
(-3.85174e-07 2.11433e-05 0.0986394)
(-3.24464e-06 1.42416e-05 0.109858)
(-1.36939e-06 -1.5607e-06 0.093097)
(-4.97729e-06 9.80008e-06 0.107469)
(-5.49831e-07 2.53133e-07 0.098587)
(-2.69811e-06 1.30044e-05 0.109855)
(-6.30988e-06 1.5901e-05 0.0931493)
(1.67906e-07 -2.54092e-07 0.0876551)
(1.8607e-08 6.51143e-08 0.0876545)
(4.19287e-05 4.13126e-05 0.10432)
(5.29669e-06 5.18946e-06 0.0876982)
(5.32198e-06 5.22969e-06 0.0876967)
(-3.89953e-07 -1.06824e-05 0.0915463)
(1.43367e-06 5.40739e-06 0.0823733)
(-2.16503e-07 2.27456e-06 0.0915057)
(-5.53964e-07 -6.82531e-06 0.0824155)
(-1.84884e-06 2.99122e-06 0.0716745)
(2.62804e-06 -2.50645e-06 0.0717174)
(-1.05147e-05 -2.46609e-07 0.0915464)
(5.45304e-06 1.52485e-06 0.0823744)
(2.52627e-06 -1.63978e-07 0.0915056)
(-6.80415e-06 -4.33109e-07 0.0824162)
(1.3001e-05 -1.16475e-05 0.112342)
(-1.1161e-05 1.26251e-05 0.112341)
(1.31103e-05 1.28438e-05 0.11234)
(-1.33383e-05 -1.29958e-05 0.112311)
(1.25605e-05 -1.19772e-05 0.112312)
(-1.23575e-05 1.291e-05 0.11231)
(1.36339e-05 1.39363e-05 0.112311)
(2.13063e-05 2.47602e-07 0.0986617)
(-5.36991e-06 2.85267e-06 0.0931242)
(1.49593e-05 -2.6078e-06 0.109844)
(1.40939e-05 -7.06734e-06 0.107465)
(-2.94058e-06 -7.64027e-08 0.0986053)
(1.5977e-05 -3.82136e-06 0.0931803)
(1.63887e-05 -2.31256e-06 0.109839)
(3.20897e-06 -2.05953e-06 0.0716785)
(-2.45763e-06 2.50168e-06 0.0717156)
(5.59974e-08 2.10864e-05 0.0986613)
(-2.29742e-06 1.48136e-05 0.109843)
(3.10799e-06 -5.74102e-06 0.093123)
(-7.09237e-06 1.40586e-05 0.107463)
(-8.07682e-08 -3.14865e-06 0.0986044)
(-2.31646e-06 1.63794e-05 0.109838)
(-3.63621e-06 1.55733e-05 0.0931802)
(-1.75575e-06 -3.85314e-06 0.0876839)
(-3.94378e-06 -1.70667e-06 0.0876834)
(4.66227e-05 4.67869e-05 0.104333)
(7.67656e-06 4.87039e-06 0.0877289)
(4.75829e-06 7.7107e-06 0.0877275)
(-4.28434e-07 -1.3132e-05 0.0915797)
(-9.56837e-07 3.63934e-06 0.082402)
(-5.25439e-07 -1.28515e-06 0.0915402)
(-2.49391e-06 -9.20273e-06 0.0824554)
(4.13828e-07 1.728e-06 0.0717092)
(3.03339e-06 -3.67734e-06 0.071768)
(-1.31178e-05 -3.53748e-07 0.0915798)
(3.62946e-06 -8.8252e-07 0.0824025)
(-1.17288e-06 -3.55923e-07 0.0915401)
(-9.18421e-06 -2.52529e-06 0.0824557)
(1.10726e-05 -1.13909e-05 0.112302)
(-1.19072e-05 1.15602e-05 0.112301)
(1.17698e-05 1.21188e-05 0.112303)
(-1.07562e-05 -1.03968e-05 0.11228)
(1.00424e-05 -1.15128e-05 0.11228)
(-1.17709e-05 1.0347e-05 0.112279)
(8.86091e-06 9.27349e-06 0.112279)
(2.22004e-05 -1.04142e-06 0.0986846)
(-9.43052e-07 -1.80884e-06 0.0931563)
(1.54925e-05 -2.23248e-06 0.109824)
(9.67894e-06 -4.87062e-06 0.107455)
(1.27507e-06 -2.68486e-07 0.0986321)
(1.63837e-05 -7.63386e-06 0.0932074)
(1.37794e-05 -2.75806e-06 0.10982)
(1.84327e-06 1.93397e-07 0.0717085)
(-3.7544e-06 3.15061e-06 0.0717631)
(-1.36332e-06 2.22698e-05 0.0986849)
(-2.90351e-06 1.5643e-05 0.109823)
(-1.5836e-06 -1.31425e-06 0.0931554)
(-5.56857e-06 1.01537e-05 0.107455)
(-6.26488e-07 1.03682e-06 0.098632)
(-3.50463e-06 1.40999e-05 0.109819)
(-7.52353e-06 1.65014e-05 0.0932079)
(1.84206e-06 1.29526e-06 0.0877196)
(1.12575e-06 1.89775e-06 0.0877189)
(4.01472e-05 4.05411e-05 0.104333)
(6.86549e-06 7.23723e-06 0.0877645)
(7.20103e-06 6.91701e-06 0.0877629)
(-2.11983e-07 -8.79379e-06 0.0916073)
(1.30551e-06 5.54032e-06 0.0824406)
(-1.05868e-07 2.96933e-06 0.0915683)
(1.34288e-07 -6.08596e-06 0.0824803)
(-2.33162e-06 3.07652e-06 0.071739)
(1.76135e-06 -1.98244e-06 0.071774)
(-8.94556e-06 -4.20709e-07 0.0916077)
(5.54183e-06 1.12446e-06 0.0824412)
(2.64775e-06 -3.31807e-07 0.0915687)
(-6.2021e-06 1.23648e-07 0.0824813)
(1.13381e-05 -1.22831e-05 0.112273)
(-1.21706e-05 1.12297e-05 0.112272)
(1.02123e-05 1.02468e-05 0.112272)
(-1.31557e-05 -1.37017e-05 0.112247)
(1.35616e-05 -1.27439e-05 0.112247)
(-1.23859e-05 1.30251e-05 0.112247)
(1.41808e-05 1.35134e-05 0.112245)
(1.80285e-05 -6.25797e-07 0.0987051)
(-7.3176e-06 2.52348e-06 0.0931808)
(1.29804e-05 -4.4354e-06 0.109812)
(1.2399e-05 -8.18048e-06 0.107454)
(-4.45922e-06 -1.38563e-06 0.098649)
(1.30905e-05 -2.20208e-06 0.0932364)
(1.44109e-05 -4.22832e-06 0.109808)
(3.00069e-06 -2.05358e-06 0.0717414)
(-2.14977e-06 1.84831e-06 0.0717745)
(-1.03243e-07 1.81387e-05 0.0987052)
(-4.0176e-06 1.31386e-05 0.109811)
(2.16878e-06 -6.50765e-06 0.0931808)
(-7.42636e-06 1.18534e-05 0.107454)
(-1.01141e-06 -3.92782e-06 0.0986495)
(-3.4807e-06 1.40663e-05 0.109807)
(-2.54639e-06 1.31491e-05 0.0932364)
(-3.77269e-06 -3.86488e-06 0.087749)
(-3.60722e-06 -3.83045e-06 0.0877485)
(4.50313e-05 4.45015e-05 0.104338)
(5.01172e-06 2.64231e-06 0.0877906)
(2.87708e-06 4.90554e-06 0.0877893)
(1.57454e-07 -1.29295e-05 0.0916386)
(8.63533e-09 4.7408e-06 0.0824569)
(-3.01022e-07 5.50706e-07 0.0915993)
(-2.54889e-06 -8.97174e-06 0.0825071)
(-5.76406e-08 2.56114e-06 0.0717487)
(3.39938e-06 -3.41014e-06 0.0718041)
(-1.28359e-05 3.07524e-07 0.0916386)
(4.74748e-06 1.77387e-07 0.0824579)
(8.26803e-07 -8.73375e-08 0.091599)
(-8.84933e-06 -2.53746e-06 0.0825076)
(1.28854e-05 -1.18833e-05 0.11224)
(-1.1989e-05 1.28426e-05 0.112239)
(1.36802e-05 1.3421e-05 0.112237)
(-9.16394e-06 -8.94872e-06 0.112215)
(1.12798e-05 -1.03098e-05 0.112217)
(-1.02559e-05 1.14135e-05 0.112215)
(1.05896e-05 1.09192e-05 0.112217)
(2.13636e-05 1.31387e-07 0.0987342)
(-2.99002e-06 9.93717e-07 0.0932127)
(1.62512e-05 -1.81137e-06 0.109797)
(1.08017e-05 -4.16463e-06 0.107453)
(-1.29443e-06 6.23757e-07 0.0986791)
(1.61859e-05 -6.4086e-06 0.0932639)
(1.49825e-05 -1.6276e-06 0.109794)
(2.77902e-06 -4.31891e-07 0.07175)
(-3.41518e-06 3.55196e-06 0.0718001)
(-3.45605e-07 2.12345e-05 0.0987332)
(-2.09935e-06 1.59533e-05 0.109796)
(1.27104e-06 -3.68673e-06 0.0932111)
(-4.83469e-06 1.12788e-05 0.107452)
(3.24021e-07 -1.75326e-06 0.0986776)
(-2.07678e-06 1.51206e-05 0.109792)
(-6.16756e-06 1.62931e-05 0.0932642)
(5.77714e-07 -1.30163e-06 0.0877747)
(-1.46187e-06 6.17369e-07 0.0877741)
(4.12543e-05 4.15458e-05 0.104353)
(6.97636e-06 6.5862e-06 0.0878169)
(6.4466e-06 7.02645e-06 0.0878153)
(-5.62828e-07 -8.71579e-06 0.0916645)
(5.41078e-07 4.95741e-06 0.0824956)
(4.0162e-07 1.79992e-06 0.0916264)
(3.18301e-07 -6.00576e-06 0.0825369)
(-2.03881e-06 2.4651e-06 0.0717812)
(1.24335e-06 -2.45892e-06 0.0718207)
(-8.72075e-06 -6.64593e-07 0.0916648)
(4.94829e-06 3.7359e-07 0.0824962)
(1.56178e-06 1.5483e-07 0.0916268)
(-6.09925e-06 3.5281e-07 0.0825377)
(1.19001e-05 -1.11148e-05 0.112212)
(-1.04934e-05 1.15485e-05 0.11221)
(1.10081e-05 1.11058e-05 0.112212)