/*--------------------------------*- C++ -*----------------------------------*\
| =========                 |                                                 |
| \\      /  F ield         | OpenFOAM: The Open Source CFD Toolbox           |
|  \\    /   O peration     | Version:  v2012                                 |
|   \\  /    A nd           | Website:  www.openfoam.com                      |
|    \\/     M anipulation  |                                                 |
\*---------------------------------------------------------------------------*/
FoamFile
{
    version     2.0;
    format      ascii;
    class       volScalarField;
    location    "150";
    object      epsilon;
}
// * * * * * * * * * * * * * * * * * * * * * * * * * * * * * * * * * * * * * //

dimensions      [0 2 -3 0 0 0 0];


internalField   nonuniform List<scalar> 
171728
(
2.15075e-08
4.20441e-09
5.67049e-09
5.22699e-09
2.15004e-08
4.19806e-09
5.44741e-09
4.76345e-09
2.20362e-08
4.21878e-09
5.28604e-09
4.4128e-09
2.26055e-08
4.26689e-09
5.19479e-09
4.13744e-09
2.32012e-08
4.3677e-09
5.15593e-09
3.90705e-09
2.38154e-08
4.52701e-09
5.18091e-09
3.70741e-09
2.44429e-08
4.74208e-09
5.28015e-09
3.51659e-09
2.50875e-08
5.02744e-09
5.44761e-09
3.35343e-09
2.57302e-08
5.39905e-09
5.70294e-09
3.23831e-09
2.63723e-08
5.84423e-09
6.05304e-09
3.19112e-09
2.70151e-08
6.38821e-09
6.50745e-09
3.23074e-09
2.76539e-08
7.02819e-09
7.06714e-09
3.37766e-09
2.82912e-08
7.79348e-09
7.7249e-09
3.61645e-09
2.89205e-08
8.72171e-09
8.51645e-09
3.95025e-09
2.95505e-08
9.7613e-09
9.48102e-09
4.41077e-09
3.01916e-08
1.08678e-08
1.06485e-08
5.0383e-09
3.08439e-08
1.2068e-08
1.20834e-08
5.95436e-09
3.1489e-08
1.34365e-08
1.39032e-08
7.41992e-09
3.21906e-08
1.52867e-08
1.62734e-08
9.72687e-09
3.29294e-08
1.79262e-08
1.9588e-08
1.36097e-08
3.37523e-08
2.16973e-08
2.41201e-08
1.99815e-08
3.47159e-08
2.69964e-08
3.02928e-08
3.02336e-08
3.58361e-08
3.45138e-08
3.74443e-08
4.63245e-08
3.73011e-08
4.47518e-08
4.70401e-08
7.11986e-08
3.90329e-08
5.85753e-08
5.97172e-08
1.07447e-07
4.12563e-08
7.61507e-08
7.66286e-08
1.5709e-07
4.40332e-08
9.78194e-08
9.82639e-08
2.19622e-07
4.7587e-08
1.22637e-07
1.2415e-07
2.90162e-07
5.19204e-08
1.51322e-07
1.53093e-07
3.60896e-07
5.77596e-08
1.8387e-07
1.85031e-07
4.31087e-07
6.63767e-08
2.23798e-07
2.24429e-07
5.00959e-07
7.94623e-08
2.75652e-07
2.75869e-07
5.68541e-07
9.90883e-08
3.41985e-07
3.4202e-07
6.37066e-07
1.25244e-07
4.16733e-07
4.16754e-07
7.07158e-07
1.5511e-07
4.85726e-07
4.85771e-07
7.68144e-07
1.83709e-07
5.38283e-07
5.38341e-07
8.12996e-07
2.04583e-07
5.69158e-07
5.69214e-07
8.39153e-07
2.15373e-07
5.81722e-07
5.81778e-07
8.49091e-07
2.19577e-07
5.85824e-07
5.85882e-07
8.52337e-07
2.20893e-07
5.8697e-07
5.87026e-07
8.53378e-07
2.2123e-07
5.87251e-07
5.87306e-07
8.53689e-07
2.21287e-07
5.87252e-07
5.87308e-07
8.53593e-07
2.21299e-07
5.87246e-07
5.87302e-07
8.53511e-07
2.21302e-07
5.87272e-07
5.87327e-07
8.53698e-07
2.21302e-07
5.8725e-07
5.87307e-07
8.53474e-07
2.21305e-07
5.87263e-07
5.87316e-07
8.53724e-07
2.21306e-07
5.87259e-07
5.87314e-07
8.53499e-07
2.21307e-07
5.87259e-07
5.87314e-07
8.53577e-07
2.21308e-07
5.87261e-07
5.87315e-07
8.53677e-07
2.21308e-07
5.87264e-07
5.8732e-07
8.53644e-07
2.21309e-07
5.87263e-07
5.87318e-07
8.53528e-07
2.21309e-07
5.87266e-07
5.8732e-07
8.5359e-07
2.21309e-07
5.87264e-07
5.87318e-07
8.53677e-07
2.21309e-07
5.87262e-07
5.87316e-07
8.53633e-07
2.21309e-07
5.87261e-07
5.87317e-07
8.5352e-07
2.21309e-07
5.87267e-07
5.87322e-07
8.53597e-07
2.2131e-07
5.87265e-07
5.87316e-07
8.53703e-07
2.2131e-07
5.87261e-07
5.87318e-07
8.5353e-07
2.2131e-07
5.87266e-07
5.87318e-07
8.5355e-07
2.2131e-07
5.87265e-07
5.87317e-07
8.53653e-07
2.2131e-07
5.87267e-07
5.87318e-07
8.53629e-07
2.2131e-07
5.87267e-07
5.87319e-07
8.5355e-07
2.2131e-07
5.87263e-07
5.87319e-07
8.53619e-07
2.2131e-07
5.87268e-07
5.87319e-07
8.53687e-07
2.2131e-07
5.87264e-07
5.87315e-07
8.53706e-07
2.2131e-07
5.87264e-07
5.87319e-07
8.53706e-07
2.2131e-07
5.87264e-07
5.8732e-07
8.53668e-07
2.2131e-07
5.87266e-07
5.87318e-07
8.53609e-07
2.2131e-07
5.87266e-07
5.87318e-07
8.53588e-07
2.21309e-07
5.87262e-07
5.87318e-07
8.53593e-07
2.21309e-07
5.87261e-07
5.87318e-07
8.53616e-07
2.21308e-07
5.87262e-07
5.87317e-07
8.53618e-07
2.21308e-07
5.87261e-07
5.87316e-07
8.5358e-07
2.21308e-07
5.8726e-07
5.87316e-07
8.53565e-07
2.21308e-07
5.87261e-07
5.87316e-07
8.53571e-07
2.21308e-07
5.87259e-07
5.87315e-07
8.53596e-07
2.21308e-07
5.87257e-07
5.87314e-07
8.53611e-07
2.21307e-07
5.87256e-07
5.87312e-07
8.53621e-07
2.21307e-07
5.87257e-07
5.87312e-07
8.53628e-07
2.21307e-07
5.87257e-07
5.87312e-07
8.53594e-07
2.21307e-07
5.87254e-07
5.87313e-07
8.53582e-07
2.21307e-07
5.87256e-07
5.87314e-07
8.53606e-07
2.21307e-07
5.87259e-07
5.87315e-07
8.53611e-07
2.21306e-07
5.8726e-07
5.87318e-07
8.53615e-07
2.21306e-07
5.87262e-07
5.87321e-07
8.53606e-07
2.21306e-07
5.87266e-07
5.87323e-07
8.53584e-07
2.21306e-07
5.8727e-07
5.87328e-07
8.53593e-07
2.21307e-07
5.87275e-07
5.87334e-07
8.53624e-07
2.21307e-07
5.87283e-07
5.87342e-07
8.53604e-07
2.21307e-07
5.87292e-07
5.8735e-07
8.53563e-07
2.21307e-07
5.87302e-07
5.8736e-07
8.53565e-07
2.21309e-07
5.87317e-07
5.87375e-07
8.53575e-07
2.21304e-07
5.8733e-07
5.87388e-07
8.53564e-07
2.20977e-07
5.87136e-07
5.87193e-07
8.53233e-07
2.10387e-07
5.46588e-07
5.46614e-07
8.1093e-07
4.95267e-09
4.09729e-09
4.7703e-09
5.04777e-09
4.68455e-09
4.96049e-09
2.20949e-08
2.21414e-08
2.23557e-08
2.22373e-08
3.71602e-09
4.706e-09
5.4224e-09
4.79479e-09
4.73188e-09
5.28294e-09
4.89817e-09
4.55948e-09
4.87607e-09
5.67468e-09
4.73308e-09
5.48296e-09
5.01528e-09
4.66183e-09
5.55602e-09
5.94771e-09
5.37335e-09
5.74876e-09
5.57309e-09
4.19866e-09
5.39777e-09
5.36696e-09
4.97322e-09
6.18483e-09
5.50036e-09
6.00618e-09
4.83694e-09
4.49404e-09
4.22375e-09
4.68869e-09
5.42535e-09
4.58827e-09
5.28406e-09
4.59802e-09
4.31364e-09
5.3198e-09
5.68877e-09
5.18604e-09
5.54066e-09
5.34519e-09
4.21356e-09
5.21509e-09
4.89906e-09
4.59559e-09
5.95202e-09
5.31823e-09
5.81616e-09
4.47241e-09
4.16944e-09
3.94654e-09
4.56423e-09
5.24409e-09
4.51138e-09
5.15273e-09
4.25845e-09
4.01464e-09
5.15056e-09
5.50252e-09
5.0668e-09
5.41192e-09
5.17808e-09
4.25299e-09
5.09718e-09
4.53431e-09
4.30194e-09
5.77884e-09
5.2117e-09
5.6846e-09
4.18839e-09
3.89907e-09
3.71624e-09
4.50302e-09
5.12927e-09
4.48846e-09
5.0832e-09
3.96303e-09
3.76203e-09
5.04913e-09
5.38909e-09
5.01235e-09
5.34091e-09
5.07603e-09
4.34014e-09
5.03987e-09
4.25089e-09
4.06778e-09
5.66106e-09
5.15693e-09
5.60482e-09
3.95296e-09
3.67388e-09
3.52302e-09
4.4895e-09
5.07655e-09
4.50688e-09
5.08167e-09
3.71896e-09
3.56915e-09
5.0117e-09
5.33484e-09
5.02449e-09
5.34235e-09
5.03642e-09
4.48622e-09
5.0448e-09
4.02319e-09
3.86878e-09
5.59476e-09
5.17083e-09
5.58214e-09
3.74894e-09
3.48577e-09
3.3454e-09
4.51755e-09
5.09044e-09
4.57912e-09
5.14903e-09
3.5335e-09
3.40868e-09
5.03671e-09
5.35292e-09
5.10282e-09
5.41409e-09
5.05552e-09
4.68632e-09
5.10758e-09
3.8281e-09
3.6841e-09
5.58521e-09
5.25317e-09
5.6177e-09
3.55546e-09
3.31021e-09
3.1971e-09
4.60772e-09
5.17563e-09
4.72645e-09
5.28586e-09
3.37694e-09
3.27378e-09
5.1322e-09
5.44162e-09
5.25042e-09
5.56034e-09
5.13223e-09
4.95282e-09
5.23342e-09
3.64757e-09
3.52946e-09
5.63729e-09
5.40526e-09
5.71835e-09
3.38659e-09
3.17066e-09
3.10961e-09
4.77691e-09
5.33198e-09
4.96006e-09
5.49791e-09
3.24815e-09
3.19269e-09
5.30011e-09
5.60952e-09
5.47848e-09
5.79383e-09
5.27743e-09
5.30652e-09
5.43927e-09
3.50129e-09
3.43829e-09
5.7548e-09
5.6352e-09
5.89022e-09
3.2612e-09
3.0968e-09
3.09565e-09
5.03335e-09
5.56397e-09
5.28795e-09
5.78031e-09
3.18091e-09
3.18767e-09
5.54692e-09
5.86736e-09
5.78093e-09
6.1128e-09
5.50373e-09
5.72914e-09
5.72366e-09
3.42201e-09
3.41251e-09
5.94891e-09
5.95964e-09
6.16511e-09
3.20136e-09
3.09191e-09
3.1646e-09
5.38495e-09
5.8636e-09
5.71246e-09
6.13928e-09
3.18531e-09
3.28045e-09
5.86829e-09
6.2088e-09
6.15834e-09
6.51916e-09
5.80766e-09
6.25142e-09
6.09238e-09
3.40513e-09
3.45917e-09
6.25056e-09
6.38957e-09
6.54227e-09
3.22431e-09
3.17589e-09
3.30146e-09
5.83169e-09
6.24126e-09
6.21723e-09
6.5834e-09
3.29381e-09
3.43635e-09
6.2639e-09
6.63291e-09
6.60897e-09
7.01028e-09
6.19997e-09
6.8664e-09
6.5508e-09
3.46662e-09
3.59615e-09
6.65313e-09
6.92512e-09
7.03449e-09
3.35522e-09
3.32505e-09
3.50847e-09
6.3562e-09
6.70809e-09
6.81356e-09
7.11883e-09
3.46125e-09
3.66537e-09
6.73106e-09
7.14834e-09
7.13127e-09
7.60133e-09
6.67746e-09
7.59409e-09
7.09779e-09
3.62035e-09
3.83225e-09
7.17342e-09
7.55343e-09
7.61861e-09
3.57588e-09
3.54776e-09
3.79553e-09
6.97807e-09
7.27157e-09
7.51014e-09
7.7701e-09
3.70799e-09
3.99513e-09
7.27535e-09
7.76192e-09
7.73997e-09
8.28801e-09
7.24956e-09
8.48861e-09
7.73782e-09
3.87658e-09
4.17474e-09
7.77793e-09
8.31162e-09
8.2962e-09
3.88827e-09
3.85394e-09
4.17717e-09
7.70627e-09
7.95232e-09
8.34011e-09
8.55812e-09
4.06198e-09
4.44777e-09
7.90951e-09
8.47703e-09
8.47743e-09
9.07475e-09
7.91821e-09
9.50751e-09
8.50423e-09
4.24517e-09
4.64453e-09
8.48982e-09
9.23086e-09
9.11245e-09
4.31544e-09
4.26572e-09
4.71469e-09
8.56792e-09
8.78155e-09
9.33445e-09
9.52936e-09
4.54549e-09
5.0478e-09
8.68554e-09
9.29968e-09
9.39458e-09
1.00443e-08
8.7171e-09
1.05936e-08
9.42444e-09
4.74709e-09
5.28997e-09
9.33093e-09
1.03425e-08
1.00384e-08
4.89339e-09
4.85407e-09
5.53585e-09
9.61803e-09
9.80691e-09
1.05596e-08
1.07393e-08
5.19171e-09
5.89076e-09
9.66366e-09
1.03146e-08
1.05829e-08
1.12534e-08
9.69267e-09
1.17793e-08
1.06064e-08
5.44489e-09
6.20439e-09
1.0295e-08
1.1699e-08
1.10933e-08
5.72167e-09
5.76745e-09
6.83178e-09
1.09156e-08
1.11052e-08
1.21206e-08
1.23284e-08
6.11721e-09
7.14754e-09
1.09303e-08
1.16053e-08
1.21203e-08
1.27681e-08
1.09545e-08
1.30485e-08
1.21304e-08
6.44917e-09
7.57675e-09
1.14054e-08
1.34144e-08
1.25232e-08
7.0417e-09
7.21187e-09
8.93974e-09
1.25768e-08
1.27925e-08
1.41942e-08
1.43952e-08
7.53377e-09
9.20675e-09
1.25721e-08
1.32296e-08
1.41754e-08
1.4757e-08
1.2575e-08
1.48072e-08
1.41645e-08
7.97242e-09
9.73504e-09
1.29515e-08
1.56323e-08
1.44984e-08
9.10438e-09
9.56334e-09
1.24021e-08
1.48101e-08
1.50175e-08
1.69725e-08
1.72389e-08
9.799e-09
1.25955e-08
1.47908e-08
1.53342e-08
1.6951e-08
1.75049e-08
1.47771e-08
1.71622e-08
1.69303e-08
1.03587e-08
1.32939e-08
1.51131e-08
1.8655e-08
1.73131e-08
1.25799e-08
1.34254e-08
1.81537e-08
1.78064e-08
1.8104e-08
2.0768e-08
2.11659e-08
1.36445e-08
1.85679e-08
1.77914e-08
1.82711e-08
2.07552e-08
2.10069e-08
1.77671e-08
2.0648e-08
2.07163e-08
1.43464e-08
1.89354e-08
1.81648e-08
2.28333e-08
2.10794e-08
1.83318e-08
1.98105e-08
2.76382e-08
2.19282e-08
2.23388e-08
2.60257e-08
2.6455e-08
2.02624e-08
2.8183e-08
2.19168e-08
2.21853e-08
2.60282e-08
2.60714e-08
2.18714e-08
2.55133e-08
2.5939e-08
2.06344e-08
2.87058e-08
2.21948e-08
2.8668e-08
2.61195e-08
2.76789e-08
3.0234e-08
4.27664e-08
2.76489e-08
2.80817e-08
3.33399e-08
3.37292e-08
3.08073e-08
4.33726e-08
2.76428e-08
2.75464e-08
3.337e-08
3.32895e-08
2.75389e-08
3.24037e-08
3.32207e-08
3.11818e-08
4.2468e-08
2.76415e-08
3.55583e-08
3.29337e-08
4.24145e-08
4.67349e-08
6.58412e-08
3.55185e-08
3.58842e-08
4.31901e-08
4.33326e-08
4.73917e-08
6.66168e-08
3.55735e-08
3.55749e-08
4.32544e-08
4.33712e-08
3.5417e-08
4.19075e-08
4.31476e-08
4.6125e-08
6.48298e-08
3.49605e-08
4.43001e-08
4.21403e-08
6.53894e-08
7.1631e-08
9.97587e-08
4.61637e-08
4.6178e-08
5.64187e-08
5.60104e-08
7.24087e-08
1.00349e-07
4.62419e-08
4.63267e-08
5.65587e-08
5.62545e-08
4.61558e-08
5.47883e-08
5.65042e-08
7.07896e-08
9.96063e-08
4.49772e-08
5.62847e-08
5.48549e-08
9.93789e-08
1.07828e-07
1.46804e-07
6.03258e-08
5.97169e-08
7.34766e-08
7.21898e-08
1.08433e-07
1.47032e-07
6.04349e-08
5.99333e-08
7.34927e-08
7.25716e-08
6.04115e-08
7.13793e-08
7.36034e-08
1.07527e-07
1.44963e-07
5.85948e-08
7.19418e-08
7.13484e-08
1.46378e-07
1.57451e-07
2.06819e-07
7.83306e-08
7.68943e-08
9.47595e-08
9.27176e-08
1.5763e-07
2.06859e-07
7.8335e-08
7.73867e-08
9.45567e-08
9.35404e-08
7.84818e-08
9.21157e-08
9.47657e-08
1.55391e-07
2.04551e-07
7.61287e-08
9.24622e-08
9.19817e-08
2.06713e-07
2.198e-07
2.77292e-07
1.00864e-07
9.84083e-08
1.203e-07
1.16555e-07
2.19673e-07
2.74837e-07
1.00502e-07
9.93624e-08
1.19479e-07
1.17725e-07
1.00742e-07
1.16093e-07
1.19838e-07
2.1747e-07
2.74324e-07
9.77058e-08
1.17329e-07
1.15975e-07
2.7625e-07
2.91344e-07
3.47797e-07
1.26959e-07
1.23081e-07
1.47254e-07
1.44231e-07
2.88567e-07
3.46361e-07
1.26079e-07
1.2418e-07
1.46613e-07
1.44928e-07
1.26458e-07
1.43834e-07
1.46872e-07
2.88388e-07
3.47277e-07
1.22446e-07
1.45677e-07
1.43252e-07
3.46972e-07
3.61454e-07
4.16363e-07
1.54254e-07
1.51752e-07
1.76917e-07
1.75773e-07
3.60723e-07
4.17638e-07
1.53754e-07
1.52326e-07
1.76702e-07
1.76092e-07
1.53926e-07
1.75268e-07
1.76649e-07
3.61762e-07
4.19177e-07
1.50698e-07
1.76585e-07
1.748e-07
4.16864e-07
4.30527e-07
4.8653e-07
1.85298e-07
1.84414e-07
2.1394e-07
2.13376e-07
4.31821e-07
4.86537e-07
1.85095e-07
1.84662e-07
2.13689e-07
2.13415e-07
1.85004e-07
2.1285e-07
2.13554e-07
4.33371e-07
4.8771e-07
1.83551e-07
2.13607e-07
2.12866e-07
4.86753e-07
5.00835e-07
5.54713e-07
2.24851e-07
2.2432e-07
2.62223e-07
2.61824e-07
5.00634e-07
5.54115e-07
2.24576e-07
2.24292e-07
2.61953e-07
2.61686e-07
2.24445e-07
2.61389e-07
2.61843e-07
5.01658e-07
5.54514e-07
2.23887e-07
2.61691e-07
2.61484e-07
5.54613e-07
5.68644e-07
6.22546e-07
2.76409e-07
2.76075e-07
3.2461e-07
3.24486e-07
5.68104e-07
6.22324e-07
2.7615e-07
2.75926e-07
3.24403e-07
3.24366e-07
2.76058e-07
3.24152e-07
3.24402e-07
5.684e-07
6.22372e-07
2.75736e-07
3.24211e-07
3.24158e-07
6.22563e-07
6.37031e-07
6.92945e-07
3.42381e-07
3.42306e-07
3.98275e-07
3.98277e-07
6.36884e-07
6.92935e-07
3.42177e-07
3.42202e-07
3.98078e-07
3.98239e-07
3.42215e-07
3.98024e-07
3.98213e-07
6.36892e-07
6.9293e-07
3.41988e-07
3.98041e-07
3.98014e-07
6.93058e-07
7.07055e-07
7.56184e-07
4.16973e-07
4.1698e-07
4.69932e-07
4.69938e-07
7.07071e-07
7.56191e-07
4.1677e-07
4.16957e-07
4.6973e-07
4.69961e-07
4.1693e-07
4.69727e-07
4.69935e-07
7.07059e-07
7.56227e-07
4.16734e-07
4.69766e-07
4.69743e-07
7.56302e-07
7.68036e-07
8.04075e-07
4.85929e-07
4.85929e-07
5.27214e-07
5.2721e-07
7.68061e-07
8.04081e-07
4.85724e-07
4.85961e-07
5.2702e-07
5.27263e-07
4.85938e-07
5.27032e-07
5.27241e-07
7.68088e-07
8.04135e-07
4.85749e-07
5.27089e-07
5.27061e-07
8.04203e-07
8.12875e-07
8.33628e-07
5.38461e-07
5.38455e-07
5.63687e-07
5.6368e-07
8.12895e-07
8.33639e-07
5.38266e-07
5.38507e-07
5.63506e-07
5.63736e-07
5.38487e-07
5.63518e-07
5.63718e-07
8.12939e-07
8.33689e-07
5.38311e-07
5.63575e-07
5.6355e-07
8.33745e-07
8.39042e-07
8.45989e-07
5.69323e-07
5.69313e-07
5.79864e-07
5.79852e-07
8.39063e-07
8.45987e-07
5.69141e-07
5.69368e-07
5.79693e-07
5.79912e-07
5.69353e-07
5.797e-07
5.79898e-07
8.39105e-07
8.46048e-07
5.69187e-07
5.79756e-07
5.79738e-07
8.46111e-07
8.4897e-07
8.4995e-07
5.8188e-07
5.81867e-07
5.8537e-07
5.85358e-07
8.48981e-07
8.49955e-07
5.81708e-07
5.81925e-07
5.85202e-07
5.85416e-07
5.81912e-07
5.8521e-07
5.85402e-07
8.49031e-07
8.50011e-07
5.81754e-07
5.85268e-07
5.85245e-07
8.50068e-07
8.52219e-07
8.51257e-07
5.85979e-07
5.85966e-07
5.86961e-07
5.86951e-07
8.52237e-07
8.51262e-07
5.85809e-07
5.86023e-07
5.86793e-07
5.87007e-07
5.8601e-07
5.86804e-07
5.8699e-07
8.52283e-07
8.51316e-07
5.85854e-07
5.86861e-07
5.86834e-07
8.5137e-07
8.53267e-07
8.51557e-07
5.87122e-07
5.87111e-07
5.87375e-07
5.87369e-07
8.53284e-07
8.51576e-07
5.86953e-07
5.87168e-07
5.87207e-07
5.87422e-07
5.87151e-07
5.8722e-07
5.87403e-07
8.53328e-07
8.51621e-07
5.86997e-07
5.87276e-07
5.87249e-07
8.51671e-07
8.53589e-07
8.51532e-07
5.87404e-07
5.87393e-07
5.87413e-07
5.87404e-07
8.53605e-07
8.51535e-07
5.87233e-07
5.87448e-07
5.87246e-07
5.87461e-07
5.87431e-07
5.87259e-07
5.87443e-07
8.53644e-07
8.5159e-07
5.87277e-07
5.87315e-07
5.87289e-07
8.51646e-07
8.53491e-07
8.51422e-07
5.87404e-07
5.87396e-07
5.87395e-07
5.87389e-07
8.53492e-07
8.51425e-07
5.87238e-07
5.87452e-07
5.87232e-07
5.87445e-07
5.87435e-07
5.87243e-07
5.87427e-07
8.53542e-07
8.51478e-07
5.87281e-07
5.87299e-07
5.87273e-07
8.51528e-07
8.53417e-07
8.51583e-07
5.87394e-07
5.87389e-07
5.87416e-07
5.87414e-07
8.5342e-07
8.51588e-07
5.87232e-07
5.87444e-07
5.87259e-07
5.8747e-07
5.87426e-07
5.87269e-07
5.87451e-07
8.53466e-07
8.51648e-07
5.87273e-07
5.87325e-07
5.87299e-07
8.51705e-07
8.53589e-07
8.51422e-07
5.87416e-07
5.87415e-07
5.87402e-07
5.87399e-07
8.53595e-07
8.51424e-07
5.87258e-07
5.8747e-07
5.87244e-07
5.87455e-07
5.87451e-07
5.87252e-07
5.87436e-07
8.53645e-07
8.51477e-07
5.87299e-07
5.87308e-07
5.87283e-07
8.51523e-07
8.53379e-07
8.51602e-07
5.87399e-07
5.87395e-07
5.87405e-07
5.87404e-07
8.53378e-07
8.51608e-07
5.87241e-07
5.87452e-07
5.87249e-07
5.8746e-07
5.87433e-07
5.8726e-07
5.87443e-07
8.5343e-07
8.5167e-07
5.8728e-07
5.87314e-07
5.8729e-07
8.51732e-07
8.53615e-07
8.51383e-07
5.87403e-07
5.87402e-07
5.87404e-07
5.87402e-07
8.53626e-07
8.51378e-07
5.87247e-07
5.87457e-07
5.87248e-07
5.87459e-07
5.87441e-07
5.87258e-07
5.87441e-07
8.53671e-07
8.5145e-07
5.87288e-07
5.87313e-07
5.87288e-07
8.51499e-07
8.53388e-07
8.51543e-07
5.87402e-07
5.87399e-07
5.87403e-07
5.874e-07
8.53377e-07
8.51577e-07
5.87247e-07
5.87458e-07
5.87249e-07
5.87459e-07
5.8744e-07
5.87258e-07
5.87441e-07
8.53452e-07
8.51597e-07
5.87287e-07
5.87313e-07
5.87288e-07
8.51656e-07
8.53476e-07
8.51582e-07
5.87401e-07
5.87397e-07
5.87408e-07
5.87401e-07
8.53512e-07
8.51547e-07
5.87247e-07
5.87457e-07
5.87253e-07
5.87465e-07
5.87439e-07
5.87262e-07
5.87448e-07
8.53526e-07
8.51635e-07
5.87286e-07
5.87318e-07
5.87295e-07
8.517e-07
8.53567e-07
8.51515e-07
5.87405e-07
5.87399e-07
5.87406e-07
5.87397e-07
8.53564e-07
8.51463e-07
5.87249e-07
5.8746e-07
5.87251e-07
5.87465e-07
5.87443e-07
5.87261e-07
5.87443e-07
8.53602e-07
8.51616e-07
5.8729e-07
5.87318e-07
5.87291e-07
8.51612e-07
8.53557e-07
8.51431e-07
5.87406e-07
5.87397e-07
5.87406e-07
5.87397e-07
8.53494e-07
8.51457e-07
5.87251e-07
5.87464e-07
5.87249e-07
5.87464e-07
5.87444e-07
5.87261e-07
5.87443e-07
8.53626e-07
8.5155e-07
5.87292e-07
5.87315e-07
5.87289e-07
8.51547e-07
8.53451e-07
8.51465e-07
5.87406e-07
5.87395e-07
5.87407e-07
5.87397e-07
8.53465e-07
8.51491e-07
5.87249e-07
5.87464e-07
5.87252e-07
5.87464e-07
5.87442e-07
5.87263e-07
5.87446e-07
8.53575e-07
8.51527e-07
5.87288e-07
5.87318e-07
5.87292e-07
8.51639e-07
8.5345e-07
8.51456e-07
5.87407e-07
5.87397e-07
5.87406e-07
5.87393e-07
8.53506e-07
8.51476e-07
5.87251e-07
5.87464e-07
5.8725e-07
5.87462e-07
5.87444e-07
5.87261e-07
5.87445e-07
8.53541e-07
8.51505e-07
5.8729e-07
5.87316e-07
5.87292e-07
8.51694e-07
8.53439e-07
8.51446e-07
5.87405e-07
5.87393e-07
5.87409e-07
5.87395e-07
8.5351e-07
8.51435e-07
5.87248e-07
5.87461e-07
5.87253e-07
5.87467e-07
5.87443e-07
5.87262e-07
5.87444e-07
8.53507e-07
8.51511e-07
5.87291e-07
5.87317e-07
5.87291e-07
8.51597e-07
8.53411e-07
8.51512e-07
5.87405e-07
5.87393e-07
5.87411e-07
5.87395e-07
8.53454e-07
8.51459e-07
5.87249e-07
5.87463e-07
5.87253e-07
5.87467e-07
5.87443e-07
5.87265e-07
5.87448e-07
8.5348e-07
8.51573e-07
5.87291e-07
5.87321e-07
5.87295e-07
8.51552e-07
8.53451e-07
8.51572e-07
5.87408e-07
5.87393e-07
5.87411e-07
5.87392e-07
8.53447e-07
8.51504e-07
5.8725e-07
5.87464e-07
5.87253e-07
5.87465e-07
5.87444e-07
5.87263e-07
5.87446e-07
8.53517e-07
8.51579e-07
5.87292e-07
5.87319e-07
5.87295e-07
8.51668e-07
8.53539e-07
8.5147e-07
5.87409e-07
5.87392e-07
5.87406e-07
5.87389e-07
8.53516e-07
8.51441e-07
5.8725e-07
5.87465e-07
5.87247e-07
5.87463e-07
5.87444e-07
5.87261e-07
5.87446e-07
8.53546e-07
8.51539e-07
5.87293e-07
5.87315e-07
5.87294e-07
8.51698e-07
8.53448e-07
8.51541e-07
5.87405e-07
5.87389e-07
5.8741e-07
5.87388e-07
8.53476e-07
8.51419e-07
5.87247e-07
5.87462e-07
5.87251e-07
5.87466e-07
5.87446e-07
5.87262e-07
5.87446e-07
8.5349e-07
8.51604e-07
5.87294e-07
5.87318e-07
5.87291e-07
8.5153e-07
8.53478e-07
8.5153e-07
5.87406e-07
5.87386e-07
5.8741e-07
5.87391e-07
8.53401e-07
8.51502e-07
5.87247e-07
5.87463e-07
5.87251e-07
5.87466e-07
5.87444e-07
5.87267e-07
5.87449e-07
8.53563e-07
8.51584e-07
5.87289e-07
5.87318e-07
5.87295e-07
8.51617e-07
8.53532e-07
8.51464e-07
5.87408e-07
5.87387e-07
5.87411e-07
5.87387e-07
8.53479e-07
8.51392e-07
5.87247e-07
5.87463e-07
5.87249e-07
5.87464e-07
5.87447e-07
5.87264e-07
5.87446e-07
8.53574e-07
8.51488e-07
5.8729e-07
5.87317e-07
5.87296e-07
8.51703e-07
8.53462e-07
8.51485e-07
5.8741e-07
5.87386e-07
5.87409e-07
5.87391e-07
8.5339e-07
8.51518e-07
5.87247e-07
5.87463e-07
5.87249e-07
5.87467e-07
5.87445e-07
5.87266e-07
5.87449e-07
8.53483e-07
8.51553e-07
5.87293e-07
5.87318e-07
5.87293e-07
8.51633e-07
8.53455e-07
8.51534e-07
5.87409e-07
5.87387e-07
5.87409e-07
5.87387e-07
8.53452e-07
8.51573e-07
5.87246e-07
5.87464e-07
5.8725e-07
5.87468e-07
5.87446e-07
5.87264e-07
5.87446e-07
8.53492e-07
8.51646e-07
5.87293e-07
5.87317e-07
5.87291e-07
8.51594e-07
8.53502e-07
8.51539e-07
5.87408e-07
5.87387e-07
5.87412e-07
5.87386e-07
8.53552e-07
8.51529e-07
5.87248e-07
5.87466e-07
5.87249e-07
5.87464e-07
5.87445e-07
5.87264e-07
5.87446e-07
8.53599e-07
8.51617e-07
5.87291e-07
5.87316e-07
5.87292e-07
8.51686e-07
8.53535e-07
8.5151e-07
5.87408e-07
5.87385e-07
5.87415e-07
5.87387e-07
8.53539e-07
8.51482e-07
5.87248e-07
5.87464e-07
5.87248e-07
5.87465e-07
5.87444e-07
5.87266e-07
5.87446e-07
8.53627e-07
8.51531e-07
5.87291e-07
5.87317e-07
5.87294e-07
8.51718e-07
8.5353e-07
8.51458e-07
5.87412e-07
5.87386e-07
5.87409e-07
5.87384e-07
8.53536e-07
8.51366e-07
5.87247e-07
5.87464e-07
5.87248e-07
5.87464e-07
5.87444e-07
5.87261e-07
5.87446e-07
8.53569e-07
8.51456e-07
5.87291e-07
5.87315e-07
5.87295e-07
8.51692e-07
8.53489e-07
8.51417e-07
5.8741e-07
5.87383e-07
5.87409e-07
5.87387e-07
8.53367e-07
8.51504e-07
5.87246e-07
5.87462e-07
5.87248e-07
5.87469e-07
5.87444e-07
5.87264e-07
5.87447e-07
8.53437e-07
8.51614e-07
5.87292e-07
5.87321e-07
5.87295e-07
8.51653e-07
8.53419e-07
8.51449e-07
5.87408e-07
5.87383e-07
5.87411e-07
5.87388e-07
8.53455e-07
8.5151e-07
5.87246e-07
5.87464e-07
5.87248e-07
5.87465e-07
5.87445e-07
5.87264e-07
5.87447e-07
8.53544e-07
8.51595e-07
5.87293e-07
5.87316e-07
5.87293e-07
8.51586e-07
8.53407e-07
8.51492e-07
5.87411e-07
5.87386e-07
5.87411e-07
5.87385e-07
8.53487e-07
8.51515e-07
5.87246e-07
5.87466e-07
5.87249e-07
5.87465e-07
5.87446e-07
5.87265e-07
5.87446e-07
8.53593e-07
8.51542e-07
5.87293e-07
5.87315e-07
5.87292e-07
8.51532e-07
8.53439e-07
8.51489e-07
5.87411e-07
5.87386e-07
5.87409e-07
5.87382e-07
8.53505e-07
8.5148e-07
5.87247e-07
5.87465e-07
5.87248e-07
5.87465e-07
5.87446e-07
5.87261e-07
5.87446e-07
8.5355e-07
8.51529e-07
5.87292e-07
5.87315e-07
5.87292e-07
8.51528e-07
8.53441e-07
8.51484e-07
5.87409e-07
5.87382e-07
5.87412e-07
5.87385e-07
8.53485e-07
8.51442e-07
5.87248e-07
5.87465e-07
5.87248e-07
5.87464e-07
5.87446e-07
5.87259e-07
5.87446e-07
8.5353e-07
8.51522e-07
5.87292e-07
5.87315e-07
5.87292e-07
8.51538e-07
8.53435e-07
8.51491e-07
5.87409e-07
5.87383e-07
5.87413e-07
5.87385e-07
8.53435e-07
8.51451e-07
5.87248e-07
5.87464e-07
5.87249e-07
5.87463e-07
5.87447e-07
5.87259e-07
5.87446e-07
8.53506e-07
8.5153e-07
5.87292e-07
5.87315e-07
5.87293e-07
8.51551e-07
8.53449e-07
8.51482e-07
5.87413e-07
5.87385e-07
5.87409e-07
5.87382e-07
8.53419e-07
8.51471e-07
5.87249e-07
5.87463e-07
5.87248e-07
5.87464e-07
5.87447e-07
5.8726e-07
5.87444e-07
8.53502e-07
8.51528e-07
5.87294e-07
5.87315e-07
5.87293e-07
8.51534e-07
8.53446e-07
8.51488e-07
5.87409e-07
5.87382e-07
5.87409e-07
5.87382e-07
8.53432e-07
8.51463e-07
5.87248e-07
5.87463e-07
5.87248e-07
5.87464e-07
5.87445e-07
5.87259e-07
5.87445e-07
8.53493e-07
8.51535e-07
5.87293e-07
5.87314e-07
5.87292e-07
8.51502e-07
8.53438e-07
8.51526e-07
5.87408e-07
5.87381e-07
5.87413e-07
5.87385e-07
8.53422e-07
8.51479e-07
5.87247e-07
5.87464e-07
5.87249e-07
5.87465e-07
5.87445e-07
5.87258e-07
5.87446e-07
8.53484e-07
8.51558e-07
5.87293e-07
5.87314e-07
5.87292e-07
8.51502e-07
8.53467e-07
8.51533e-07
5.87412e-07
5.87384e-07
5.87411e-07
5.87383e-07
8.53426e-07
8.51496e-07
5.87248e-07
5.87464e-07
5.87249e-07
5.87464e-07
5.87446e-07
5.87258e-07
5.87446e-07
8.53496e-07
8.51564e-07
5.87292e-07
5.87313e-07
5.87293e-07
8.51515e-07
8.53485e-07
8.51511e-07
5.87412e-07
5.87383e-07
5.87409e-07
5.87381e-07
8.53445e-07
8.51488e-07
5.87248e-07
5.87463e-07
5.87248e-07
5.87464e-07
5.87447e-07
5.87255e-07
5.87445e-07
8.53497e-07
8.51578e-07
5.87293e-07
5.87312e-07
5.87292e-07
8.51533e-07
8.53462e-07
8.51507e-07
5.8741e-07
5.87381e-07
5.87409e-07
5.87381e-07
8.53436e-07
8.515e-07
5.87248e-07
5.87464e-07
5.87246e-07
5.87462e-07
5.87448e-07
5.87253e-07
5.87442e-07
8.53509e-07
8.51579e-07
5.87293e-07
5.8731e-07
5.87289e-07
8.51537e-07
8.53449e-07
8.51497e-07
5.87409e-07
5.87381e-07
5.87406e-07
5.87378e-07
8.53442e-07
8.51506e-07
5.87247e-07
5.87464e-07
5.87244e-07
5.8746e-07
5.87446e-07
5.87251e-07
5.8744e-07
8.53516e-07
8.5157e-07
5.87292e-07
5.87307e-07
5.87287e-07
8.51544e-07
8.5344e-07
8.515e-07
5.87409e-07
5.87381e-07
5.87403e-07
5.87374e-07
8.53448e-07
8.51506e-07
5.87245e-07
5.8746e-07
5.87243e-07
5.87459e-07
5.87444e-07
5.87251e-07
5.87438e-07
8.53503e-07
8.51579e-07
5.8729e-07
5.87305e-07
5.87284e-07
8.51537e-07
8.53435e-07
8.51531e-07
5.87406e-07
5.87378e-07
5.87401e-07
5.87372e-07
8.53452e-07
8.51486e-07
5.87245e-07
5.87461e-07
5.87239e-07
5.87455e-07
5.87443e-07
5.87246e-07
5.87434e-07
8.53509e-07
8.51577e-07
5.87288e-07
5.87304e-07
5.87282e-07
8.51505e-07
8.53469e-07
8.51528e-07
5.87405e-07
5.87377e-07
5.87398e-07
5.87369e-07
8.53448e-07
8.51465e-07
5.87244e-07
5.87459e-07
5.87236e-07
5.87451e-07
5.8744e-07
5.87243e-07
5.87432e-07
8.53513e-07
8.51572e-07
5.87287e-07
5.87302e-07
5.87279e-07
8.5151e-07
8.53481e-07
8.5151e-07
5.87404e-07
5.87375e-07
5.87396e-07
5.87367e-07
8.53424e-07
8.51488e-07
5.87242e-07
5.87457e-07
5.87233e-07
5.87449e-07
5.87438e-07
5.87243e-07
5.87431e-07
8.53505e-07
8.51591e-07
5.87287e-07
5.873e-07
5.87277e-07
8.51531e-07
8.53463e-07
8.51502e-07
5.87404e-07
5.87375e-07
5.87393e-07
5.87365e-07
8.53433e-07
8.51504e-07
5.87242e-07
5.87457e-07
5.87231e-07
5.87447e-07
5.87441e-07
5.87241e-07
5.87426e-07
8.53522e-07
8.5159e-07
5.87287e-07
5.87298e-07
5.87275e-07
8.5153e-07
8.53449e-07
8.51497e-07
5.87405e-07
5.87377e-07
5.8739e-07
5.87361e-07
8.53451e-07
8.51505e-07
5.87243e-07
5.87459e-07
5.87228e-07
5.87443e-07
5.87442e-07
5.87236e-07
5.87423e-07
8.5353e-07
8.51579e-07
5.87289e-07
5.87296e-07
5.87274e-07
8.5153e-07
8.53441e-07
8.51487e-07
5.87407e-07
5.87378e-07
5.87386e-07
5.87358e-07
8.53454e-07
8.51507e-07
5.87244e-07
5.87461e-07
5.87224e-07
5.87439e-07
5.87442e-07
5.87234e-07
5.87422e-07
8.5352e-07
8.51568e-07
5.87293e-07
5.87292e-07
5.8727e-07
8.51513e-07
8.53432e-07
8.51484e-07
5.87409e-07
5.87381e-07
5.87382e-07
5.87353e-07
8.53464e-07
8.51488e-07
5.87247e-07
5.87463e-07
5.8722e-07
5.87435e-07
5.87446e-07
5.87231e-07
5.87418e-07
8.5351e-07
8.51558e-07
5.87295e-07
5.87288e-07
5.87267e-07
8.515e-07
8.53428e-07
8.51492e-07
5.87412e-07
5.87383e-07
5.87378e-07
5.87349e-07
8.53454e-07
8.51477e-07
5.8725e-07
5.87465e-07
5.87215e-07
5.87431e-07
5.87449e-07
5.87226e-07
5.87414e-07
8.53497e-07
8.51559e-07
5.87297e-07
5.87285e-07
5.87265e-07
8.51518e-07
8.53437e-07
8.51493e-07
5.87416e-07
5.87387e-07
5.87373e-07
5.87345e-07
8.53438e-07
8.51496e-07
5.87254e-07
5.8747e-07
5.87209e-07
5.87425e-07
5.87453e-07
5.87221e-07
5.87409e-07
8.53495e-07
8.51558e-07
5.87305e-07
5.8728e-07
5.87256e-07
8.51535e-07
8.53444e-07
8.51478e-07
5.87422e-07
5.87395e-07
5.87365e-07
5.87337e-07
8.53454e-07
8.51495e-07
5.87259e-07
5.87475e-07
5.87203e-07
5.87418e-07
5.8746e-07
5.87215e-07
5.87402e-07
8.53492e-07
8.5157e-07
5.87309e-07
5.87273e-07
5.8725e-07
8.51501e-07
8.53433e-07
8.51479e-07
5.87429e-07
5.87402e-07
5.87357e-07
5.87329e-07
8.53462e-07
8.5147e-07
5.87266e-07
5.87482e-07
5.87195e-07
5.8741e-07
5.87468e-07
5.87206e-07
5.87393e-07
8.53505e-07
8.5157e-07
5.87316e-07
5.87264e-07
5.87242e-07
8.51478e-07
8.53426e-07
8.51496e-07
5.87437e-07
5.87408e-07
5.87346e-07
5.87317e-07
8.5343e-07
8.51471e-07
5.87275e-07
5.87491e-07
5.87184e-07
5.87399e-07
5.87475e-07
5.87195e-07
5.87383e-07
8.53515e-07
8.51552e-07
5.87324e-07
5.87252e-07
5.87231e-07
8.51497e-07
8.53441e-07
8.51491e-07
5.87449e-07
5.87421e-07
5.87331e-07
5.87302e-07
8.5342e-07
8.51481e-07
5.87286e-07
5.87502e-07
5.87169e-07
5.87384e-07
5.87486e-07
5.87181e-07
5.87368e-07
8.535e-07
8.51557e-07
5.87335e-07
5.87238e-07
5.87217e-07
8.51514e-07
8.53441e-07
8.51475e-07
5.87463e-07
5.87435e-07
5.8731e-07
5.87282e-07
8.53437e-07
8.51465e-07
5.87301e-07
5.87517e-07
5.87146e-07
5.87364e-07
5.87502e-07
5.87162e-07
5.87346e-07
8.53495e-07
8.51562e-07
5.8735e-07
5.8722e-07
5.87196e-07
8.51507e-07
8.5341e-07
8.51286e-07
5.87471e-07
5.87443e-07
5.86952e-07
5.86925e-07
8.53414e-07
8.51271e-07
5.87312e-07
5.87524e-07
5.86791e-07
5.87e-07
5.87507e-07
5.86802e-07
5.8698e-07
8.53492e-07
8.51356e-07
5.87356e-07
5.86856e-07
5.8683e-07
8.51318e-07
8.53107e-07
8.32698e-07
5.87282e-07
5.87258e-07
5.68513e-07
5.68447e-07
8.53105e-07
8.32684e-07
5.87119e-07
5.87328e-07
5.68403e-07
5.68482e-07
5.87315e-07
5.68424e-07
5.68478e-07
8.5318e-07
8.32725e-07
5.87166e-07
5.68448e-07
5.68384e-07
8.3275e-07
8.10897e-07
5.46655e-07
5.4659e-07
8.1088e-07
5.46573e-07
5.46625e-07
2.10368e-07
2.10377e-07
2.10362e-07
5.46616e-07
8.10919e-07
5.46549e-07
5.53054e-08
8.96346e-09
3.7431e-08
3.74572e-08
1.43176e-09
3.70063e-09
4.5945e-09
2.25116e-08
1.32525e-09
4.80103e-09
2.24639e-08
1.12849e-08
5.46412e-09
8.22818e-09
8.28918e-09
7.10242e-09
1.66294e-07
5.45347e-09
2.61907e-07
1.57055e-06
3.18076e-06
7.59664e-09
1.64822e-07
5.76085e-09
2.61714e-07
2.15463e-08
2.17778e-08
2.16634e-08
2.13799e-08
2.14125e-08
2.1649e-08
2.15343e-08
1.43212e-09
7.59803e-08
1.00221e-08
4.20278e-09
1.44298e-09
5.55385e-08
9.9303e-09
1.63387e-06
3.19963e-06
1.28037e-09
1.00317e-08
8.58533e-08
5.60992e-09
1.28816e-09
9.94477e-09
6.4416e-08
2.19337e-07
2.15979e-07
5.05968e-09
1.88121e-07
1.85106e-07
1.57911e-08
4.62659e-07
1.22097e-08
6.6996e-07
7.13535e-06
1.01785e-05
1.57379e-08
4.72764e-07
1.26653e-08
6.81113e-07
2.15381e-08
2.17713e-08
2.16556e-08