/*--------------------------------*- C++ -*----------------------------------*\
| =========                 |                                                 |
| \\      /  F ield         | OpenFOAM: The Open Source CFD Toolbox           |
|  \\    /   O peration     | Version:  v2012                                 |
|   \\  /    A nd           | Website:  www.openfoam.com                      |
|    \\/     M anipulation  |                                                 |
\*---------------------------------------------------------------------------*/
FoamFile
{
    version     2.0;
    format      ascii;
    class       volScalarField;
    location    "150";
    object      k;
}
// * * * * * * * * * * * * * * * * * * * * * * * * * * * * * * * * * * * * * //

dimensions      [0 2 -2 0 0 0 0];


internalField   nonuniform List<scalar> 
171728
(
2.62011e-06
3.55999e-07
4.48147e-07
3.70377e-07
2.63753e-06
3.69685e-07
4.49434e-07
3.55408e-07
2.72037e-06
3.91101e-07
4.59564e-07
3.4537e-07
2.80363e-06
4.14934e-07
4.72986e-07
3.37428e-07
2.88605e-06
4.41538e-07
4.90934e-07
3.3055e-07
2.96791e-06
4.71533e-07
5.12176e-07
3.24523e-07
3.04936e-06
5.05321e-07
5.38763e-07
3.1988e-07
3.12954e-06
5.41809e-07
5.70396e-07
3.14422e-07
3.20985e-06
5.82475e-07
6.03852e-07
3.09277e-07
3.28795e-06
6.28061e-07
6.49073e-07
3.07378e-07
3.36387e-06
6.82821e-07
6.98713e-07
3.13313e-07
3.43901e-06
7.45917e-07
7.56301e-07
3.28053e-07
3.51144e-06
8.20882e-07
8.23197e-07
3.51323e-07
3.58317e-06
9.00588e-07
8.95055e-07
3.82766e-07
3.65236e-06
1.00072e-06
9.78452e-07
4.21298e-07
3.72248e-06
1.11414e-06
1.07651e-06
4.68258e-07
3.79475e-06
1.23628e-06
1.18521e-06
5.2367e-07
3.8658e-06
1.3561e-06
1.31199e-06
5.96692e-07
3.93526e-06
1.46659e-06
1.45298e-06
7.04443e-07
4.0138e-06
1.60462e-06
1.63228e-06
8.76677e-07
4.09344e-06
1.77726e-06
1.87111e-06
1.13774e-06
4.17991e-06
2.01576e-06
2.17328e-06
1.5282e-06
4.27837e-06
2.33577e-06
2.52466e-06
2.10787e-06
4.38724e-06
2.75462e-06
2.91603e-06
2.97466e-06
4.53316e-06
3.32397e-06
3.44882e-06
4.24396e-06
4.68549e-06
4.04042e-06
4.09415e-06
5.96249e-06
4.89101e-06
4.93644e-06
4.96539e-06
8.14677e-06
5.11985e-06
5.98195e-06
6.00655e-06
1.06657e-05
5.4267e-06
7.20962e-06
7.28927e-06
1.32655e-05
5.79602e-06
8.62481e-06
8.7007e-06
1.5735e-05
6.25598e-06
1.01543e-05
1.02067e-05
1.8109e-05
6.85582e-06
1.2e-05
1.20273e-05
2.04562e-05
7.70041e-06
1.44058e-05
1.44129e-05
2.28236e-05
9.05164e-06
1.7571e-05
1.75714e-05
2.55329e-05
1.08528e-05
2.09851e-05
2.09859e-05
2.82931e-05
1.29158e-05
2.40797e-05
2.40817e-05
3.06834e-05
1.49022e-05
2.64468e-05
2.64492e-05
3.24658e-05
1.62432e-05
2.76987e-05
2.7701e-05
3.33056e-05
1.68862e-05
2.81931e-05
2.81955e-05
3.36151e-05
1.71202e-05
2.83508e-05
2.83533e-05
3.37167e-05
1.7189e-05
2.83953e-05
2.83977e-05
3.37491e-05
1.72042e-05
2.84024e-05
2.84048e-05
3.37569e-05
1.72065e-05
2.84018e-05
2.84041e-05
3.37461e-05
1.72076e-05
2.84038e-05
2.84061e-05
3.37534e-05
1.72074e-05
2.84025e-05
2.84049e-05
3.37521e-05
1.72075e-05
2.84034e-05
2.84054e-05
3.37544e-05
1.72077e-05
2.84029e-05
2.84053e-05
3.37454e-05
1.72078e-05
2.84029e-05
2.84053e-05
3.37602e-05
1.72079e-05
2.84033e-05
2.84057e-05
3.37539e-05
1.7208e-05
2.84032e-05
2.84058e-05
3.37443e-05
1.7208e-05
2.84031e-05
2.84053e-05
3.37488e-05
1.7208e-05
2.84033e-05
2.84054e-05
3.37574e-05
1.72081e-05
2.84031e-05
2.84053e-05
3.3753e-05
1.72081e-05
2.84031e-05
2.84053e-05
3.37431e-05
1.72082e-05
2.84035e-05
2.84057e-05
3.37518e-05
1.72081e-05
2.84035e-05
2.84056e-05
3.37597e-05
1.72081e-05
2.8403e-05
2.84052e-05
3.37514e-05
1.72081e-05
2.84029e-05
2.84056e-05
3.37449e-05
1.72082e-05
2.84034e-05
2.84055e-05
3.37593e-05
1.72082e-05
2.84031e-05
2.84053e-05
3.37553e-05
1.72082e-05
2.84033e-05
2.84056e-05
3.37441e-05
1.72082e-05
2.84031e-05
2.84056e-05
3.37488e-05
1.72082e-05
2.84031e-05
2.84055e-05
3.37578e-05
1.72082e-05
2.84034e-05
2.84053e-05
3.37572e-05
1.72082e-05
2.84029e-05
2.84052e-05
3.37537e-05
1.72082e-05
2.84031e-05
2.84059e-05
3.37485e-05
1.72082e-05
2.84032e-05
2.84056e-05
3.37453e-05
1.72082e-05
2.84033e-05
2.84054e-05
3.37465e-05
1.72082e-05
2.8403e-05
2.84054e-05
3.37488e-05
1.72082e-05
2.84027e-05
2.84053e-05
3.3749e-05
1.72082e-05
2.84027e-05
2.84053e-05
3.37472e-05
1.72081e-05
2.84028e-05
2.84053e-05
3.37458e-05
1.72081e-05
2.84028e-05
2.84053e-05
3.37465e-05
1.72081e-05
2.84027e-05
2.84054e-05
3.37483e-05
1.72081e-05
2.84028e-05
2.84054e-05
3.37492e-05
1.72081e-05
2.84027e-05
2.84053e-05
3.37484e-05
1.72081e-05
2.84027e-05
2.84053e-05
3.37466e-05
1.72081e-05
2.84027e-05
2.84052e-05
3.37463e-05
1.72081e-05
2.84028e-05
2.84052e-05
3.37459e-05
1.7208e-05
2.84027e-05
2.84053e-05
3.37463e-05
1.7208e-05
2.84025e-05
2.84053e-05
3.37474e-05
1.7208e-05
2.84027e-05
2.84054e-05
3.37466e-05
1.7208e-05
2.84028e-05
2.84054e-05
3.37461e-05
1.7208e-05
2.84027e-05
2.84055e-05
3.37462e-05
1.7208e-05
2.84029e-05
2.84056e-05
3.37459e-05
1.7208e-05
2.84031e-05
2.84057e-05
3.37462e-05
1.7208e-05
2.84032e-05
2.8406e-05
3.37469e-05
1.72081e-05
2.84035e-05
2.84063e-05
3.37462e-05
1.72081e-05
2.84039e-05
2.84067e-05
3.37454e-05
1.72081e-05
2.84044e-05
2.84072e-05
3.37467e-05
1.72082e-05
2.84053e-05
2.8408e-05
3.3748e-05
1.72084e-05
2.84066e-05
2.84093e-05
3.37474e-05
1.72083e-05
2.84086e-05
2.84115e-05
3.37467e-05
1.71923e-05
2.84015e-05
2.84041e-05
3.37406e-05
1.68145e-05
2.73032e-05
2.73049e-05
3.29198e-05
3.46827e-07
3.37276e-07
3.77797e-07
3.44269e-07
3.76081e-07
3.94076e-07
2.68603e-06
2.6905e-06
2.70298e-06
2.69334e-06
3.07057e-07
3.84241e-07
3.78577e-07
3.88028e-07
3.82555e-07
3.73221e-07
3.43628e-07
3.32651e-07
3.96018e-07
4.48949e-07
3.9951e-07
4.49757e-07
3.41033e-07
3.29842e-07
4.43852e-07
4.6106e-07
4.44888e-07
4.62371e-07
4.4462e-07
3.65152e-07
4.45991e-07
3.75395e-07
3.62115e-07
4.51084e-07
4.48303e-07
4.55194e-07
3.5818e-07
3.30213e-07
3.23261e-07
4.01715e-07
4.51585e-07
4.08604e-07
4.58793e-07
3.27548e-07
3.21748e-07
4.46719e-07
4.64228e-07
4.53784e-07
4.71379e-07
4.47943e-07
3.85796e-07
4.54896e-07
3.59324e-07
3.52827e-07
4.57697e-07
4.57209e-07
4.6663e-07
3.47892e-07
3.20872e-07
3.14902e-07
4.11314e-07
4.61707e-07
4.21962e-07
4.71153e-07
3.19718e-07
3.15273e-07
4.56621e-07
4.74043e-07
4.66782e-07
4.84823e-07
4.57873e-07
4.08583e-07
4.6759e-07
3.50608e-07
3.4636e-07
4.69472e-07
4.69479e-07
4.7987e-07
3.39626e-07
3.12625e-07
3.07043e-07
4.26244e-07
4.74909e-07
4.41437e-07
4.8801e-07
3.13366e-07
3.09191e-07
4.70869e-07
4.88625e-07
4.84153e-07
5.01545e-07
4.71575e-07
4.34066e-07
4.85279e-07
3.44278e-07
3.39927e-07
4.83493e-07
4.86545e-07
4.95604e-07
3.32881e-07
3.04885e-07
3.01046e-07
4.47178e-07
4.93078e-07
4.63778e-07
5.08812e-07
3.07052e-07
3.03504e-07
4.89293e-07
5.06065e-07
5.06122e-07
5.23077e-07
4.90548e-07
4.64062e-07
5.08043e-07
3.3752e-07
3.3185e-07
5.00592e-07
5.07196e-07
5.14695e-07
3.26548e-07
2.99144e-07
2.96547e-07
4.69536e-07
5.14654e-07
4.87364e-07
5.33789e-07
3.01611e-07
2.99124e-07
5.12134e-07
5.28598e-07
5.32974e-07
5.48519e-07
5.14344e-07
4.97394e-07
5.34312e-07
3.29164e-07
3.23979e-07
5.20946e-07
5.32121e-07
5.39195e-07
3.21972e-07
2.94716e-07
2.93183e-07
4.93541e-07
5.40673e-07
5.15546e-07
5.64555e-07
2.97313e-07
2.96492e-07
5.39864e-07
5.55205e-07
5.64856e-07
5.77541e-07
5.40537e-07
5.33307e-07
5.61965e-07
3.21633e-07
3.18813e-07
5.45501e-07
5.61851e-07
5.68434e-07
3.16796e-07
2.91497e-07
2.91832e-07
5.22623e-07
5.72922e-07
5.49532e-07
6.01785e-07
2.95047e-07
2.96699e-07
5.73319e-07
5.85922e-07
6.02242e-07
6.13075e-07
5.69219e-07
5.71959e-07
5.95126e-07
3.16893e-07
3.16901e-07
5.74416e-07
5.95496e-07
5.98585e-07
3.11371e-07
2.90469e-07
2.9766e-07
5.58935e-07
6.10771e-07
5.9072e-07
6.42413e-07
2.9551e-07
3.03892e-07
6.12643e-07
6.22877e-07
6.45974e-07
6.57576e-07
6.04372e-07
6.17246e-07
6.33748e-07
3.15441e-07
3.21517e-07
6.06851e-07
6.38836e-07
6.31954e-07
3.09031e-07
2.96829e-07
3.11993e-07
6.02842e-07
6.53513e-07
6.41328e-07
6.87945e-07
3.03199e-07
3.20255e-07
6.58317e-07
6.68889e-07
6.9742e-07
7.07466e-07
6.44985e-07
6.67274e-07
6.80275e-07
3.20503e-07
3.32123e-07
6.42476e-07
6.84728e-07
6.76727e-07
3.1423e-07
3.1152e-07
3.33385e-07
6.5556e-07
7.01188e-07
7.02275e-07
7.40654e-07
3.19965e-07
3.4197e-07
7.11009e-07
7.22301e-07
7.54663e-07
7.64678e-07
6.92547e-07
7.29433e-07
7.34189e-07
3.31423e-07
3.48713e-07
6.88996e-07
7.41238e-07
7.29595e-07
3.28546e-07
3.33242e-07
3.6015e-07
7.18317e-07
7.54155e-07
7.68269e-07
7.99823e-07
3.4174e-07
3.66324e-07
7.69641e-07
7.80119e-07
8.15299e-07
8.32187e-07
7.49533e-07
8.03076e-07
7.95372e-07
3.4829e-07
3.73098e-07
7.45281e-07
8.07785e-07
7.98099e-07
3.51315e-07
3.60279e-07
3.89939e-07
7.86089e-07
8.1533e-07
8.42194e-07
8.65472e-07
3.6636e-07
3.96355e-07
8.3073e-07
8.49983e-07
8.79935e-07
9.0719e-07
8.11241e-07
8.79245e-07
8.65222e-07
3.73282e-07
4.07563e-07
8.15459e-07
8.75965e-07
8.71873e-07
3.82135e-07
3.90309e-07
4.22679e-07
8.61315e-07
8.84038e-07
9.2262e-07
9.41059e-07
3.96892e-07
4.34802e-07
8.96662e-07
9.26658e-07
9.47757e-07
9.89418e-07
8.8279e-07
9.75751e-07
9.39045e-07
4.08538e-07
4.50055e-07
8.91855e-07
9.56973e-07
9.5519e-07
4.20025e-07
4.23449e-07
4.60758e-07
9.44904e-07
9.61071e-07
1.01428e-06
1.0285e-06
4.36314e-07
4.84724e-07
9.6605e-07
1.01203e-06
1.0268e-06
1.07783e-06
9.5964e-07
1.08546e-06
1.02272e-06
4.51721e-07
4.99803e-07
9.79806e-07
1.05117e-06
1.05618e-06
4.64771e-07
4.63486e-07
5.06173e-07
1.03698e-06
1.05151e-06
1.11544e-06
1.12653e-06
4.87786e-07
5.39613e-07
1.04704e-06
1.10183e-06
1.11621e-06
1.18222e-06
1.04341e-06
1.20375e-06
1.11394e-06
5.04067e-07
5.56935e-07
1.08054e-06
1.15885e-06
1.15718e-06
5.15157e-07
5.142e-07
5.72477e-07
1.14406e-06
1.1542e-06
1.22861e-06
1.23961e-06
5.48378e-07
6.0635e-07
1.14341e-06
1.20864e-06
1.22729e-06
1.30012e-06
1.14129e-06
1.3266e-06
1.2228e-06
5.66583e-07
6.30843e-07
1.18251e-06
1.27601e-06
1.25549e-06
5.83406e-07
5.85359e-07
6.71431e-07
1.26199e-06
1.27388e-06
1.36061e-06
1.37955e-06
6.1809e-07
6.98233e-07
1.25956e-06
1.33649e-06
1.35872e-06
1.43611e-06
1.2552e-06
1.43986e-06
1.35608e-06
6.45092e-07
7.3403e-07
1.28598e-06
1.41748e-06
1.38224e-06
6.8289e-07
6.9302e-07
8.28085e-07
1.39576e-06
1.41668e-06
1.52413e-06
1.54724e-06
7.18562e-07
8.45601e-07
1.39345e-06
1.46844e-06
1.52223e-06
1.5902e-06
1.39051e-06
1.56992e-06
1.51679e-06
7.55011e-07
8.86318e-07
1.41554e-06
1.58472e-06
1.54284e-06
8.40561e-07
8.63533e-07
1.07027e-06
1.56687e-06
1.59207e-06
1.70968e-06
1.7446e-06
8.80312e-07
1.09324e-06
1.56712e-06
1.63277e-06
1.71049e-06
1.75943e-06
1.56053e-06
1.72655e-06
1.70395e-06
9.22346e-07
1.13383e-06
1.58863e-06
1.80456e-06
1.73831e-06
1.08253e-06
1.12582e-06
1.43694e-06
1.76632e-06
1.80515e-06
1.95241e-06
1.99943e-06
1.15145e-06
1.47212e-06
1.76716e-06
1.81016e-06
1.95863e-06
2.0029e-06
1.7608e-06
1.95207e-06
1.94749e-06
1.1896e-06
1.50644e-06
1.79582e-06
2.09323e-06
1.97569e-06
1.44359e-06
1.52329e-06
1.99275e-06
2.0227e-06
2.07012e-06
2.27102e-06
2.31969e-06
1.55984e-06
2.02732e-06
2.02904e-06
2.07135e-06
2.27598e-06
2.28006e-06
2.01706e-06
2.24623e-06
2.26447e-06
1.59648e-06
2.04794e-06
2.04037e-06
2.43197e-06
2.27241e-06
1.98126e-06
2.12354e-06
2.81528e-06
2.36707e-06
2.41472e-06
2.68829e-06
2.72184e-06
2.15789e-06
2.84746e-06
2.37216e-06
2.36509e-06
2.69597e-06
2.69598e-06
2.36053e-06
2.6398e-06
2.68502e-06
2.16181e-06
2.77619e-06
2.36317e-06
2.8149e-06
2.65986e-06
2.786e-06
3.00432e-06
4.00038e-06
2.80927e-06
2.83703e-06
3.24018e-06
3.24575e-06
3.03679e-06
4.02646e-06
2.81821e-06
2.82647e-06
3.2497e-06
3.26505e-06
2.80823e-06
3.16743e-06
3.24427e-06
2.96167e-06
4.0018e-06
2.77053e-06
3.29913e-06
3.17582e-06
3.97617e-06
4.26607e-06
5.63211e-06
3.40341e-06
3.40034e-06
3.9326e-06
3.90617e-06
4.29099e-06
5.64452e-06
3.41203e-06
3.4222e-06
3.93952e-06
3.92024e-06
3.40858e-06
3.84682e-06
3.93894e-06
4.27497e-06
5.60919e-06
3.33339e-06
3.92026e-06
3.84865e-06
5.60922e-06
5.98653e-06
7.72859e-06
4.12976e-06
4.09357e-06
4.7979e-06
4.73014e-06
5.99646e-06
7.73505e-06
4.13433e-06
4.10647e-06
4.79284e-06
4.75331e-06
4.13533e-06
4.69616e-06
4.80038e-06
5.94728e-06
7.64031e-06
4.04071e-06
4.7283e-06
4.69165e-06
7.7158e-06
8.15651e-06
1.01971e-05
5.04101e-06
4.96718e-06
5.83356e-06
5.73256e-06
8.16536e-06
1.01669e-05
5.03565e-06
4.99585e-06
5.82489e-06
5.77996e-06
5.04346e-06
5.70959e-06
5.83161e-06
8.06857e-06
1.01089e-05
4.93118e-06
5.72885e-06
5.70327e-06
1.01809e-05
1.06877e-05
1.28418e-05
6.12382e-06
6.00432e-06
7.07284e-06
6.89698e-06
1.06381e-05
1.27113e-05
6.10813e-06
6.05596e-06
7.03749e-06
6.94847e-06
6.11698e-06
6.88016e-06
7.05112e-06
1.05924e-05
1.27301e-05
5.97753e-06
6.94767e-06
6.8733e-06
1.27811e-05
1.33277e-05
1.52885e-05
7.40638e-06
7.22582e-06
8.4124e-06
8.27969e-06
1.32003e-05
1.52645e-05
7.3715e-06
7.27328e-06
8.39802e-06
8.31138e-06
7.38304e-06
8.26503e-06
8.39447e-06
1.32281e-05
1.53193e-05
7.19944e-06
8.34701e-06
8.23807e-06
1.52642e-05
1.57492e-05
1.76412e-05
8.74887e-06
8.64127e-06
9.8208e-06
9.76727e-06
1.57484e-05
1.76562e-05
8.74115e-06
8.66892e-06
9.82023e-06
9.78634e-06
8.73298e-06
9.74889e-06
9.8052e-06
1.58056e-05
1.77157e-05
8.59714e-06
9.80704e-06
9.73339e-06
1.76458e-05
1.81056e-05
2.0004e-05
1.02191e-05
1.01737e-05
1.15568e-05
1.1521e-05
1.81131e-05
1.9974e-05
1.0217e-05
1.0189e-05
1.15487e-05
1.15242e-05
1.02019e-05
1.15032e-05
1.15347e-05
1.81694e-05
2.00044e-05
1.01462e-05
1.15368e-05
1.15073e-05
1.99928e-05
2.04689e-05
2.23489e-05
1.20512e-05
1.2018e-05
1.37623e-05
1.37431e-05
2.04372e-05
2.23279e-05
1.20421e-05
1.20179e-05
1.37551e-05
1.37371e-05
1.20283e-05
1.37284e-05
1.37436e-05
2.04619e-05
2.23336e-05
1.20058e-05
1.37394e-05
1.37304e-05
2.23383e-05
2.2833e-05
2.49952e-05
1.4434e-05
1.44198e-05
1.67427e-05
1.67393e-05
2.28159e-05
2.49916e-05
1.44275e-05
1.44131e-05
1.67378e-05
1.67336e-05
1.44179e-05
1.67296e-05
1.67344e-05
2.28189e-05
2.49893e-05
1.44068e-05
1.67307e-05
1.67272e-05
2.49935e-05
2.55342e-05
2.77867e-05
1.75817e-05
1.758e-05
2.01516e-05
2.01516e-05
2.55323e-05
2.77863e-05
1.75768e-05
1.75752e-05
2.01468e-05
2.01497e-05
1.75753e-05
2.01455e-05
2.01493e-05
2.55298e-05
2.7786e-05
1.75687e-05
2.0146e-05
2.01437e-05
2.77874e-05
2.82926e-05
3.02596e-05
2.09911e-05
2.09909e-05
2.33582e-05
2.33574e-05
2.82925e-05
3.02591e-05
2.09862e-05
2.09898e-05
2.33537e-05
2.33586e-05
2.09896e-05
2.33538e-05
2.33583e-05
2.82923e-05
3.02605e-05
2.09842e-05
2.33556e-05
2.33537e-05
3.02612e-05
3.0682e-05
3.21716e-05
2.4084e-05
2.4083e-05
2.59599e-05
2.59588e-05
3.06819e-05
3.21715e-05
2.40795e-05
2.40845e-05
2.59562e-05
2.59607e-05
2.40843e-05
2.59566e-05
2.59608e-05
3.06831e-05
3.21729e-05
2.40799e-05
2.5959e-05
2.59569e-05
3.21733e-05
3.24646e-05
3.31703e-05
2.64501e-05
2.64487e-05
2.74803e-05
2.74786e-05
3.24646e-05
3.3169e-05
2.64464e-05
2.64507e-05
2.74774e-05
2.74809e-05
2.64509e-05
2.74775e-05
2.74813e-05
3.24659e-05
3.31713e-05
2.64472e-05
2.74798e-05
2.74782e-05
3.31721e-05
3.3304e-05
3.35411e-05
2.77013e-05
2.76995e-05
2.81163e-05
2.81145e-05
3.3303e-05
3.35401e-05
2.76985e-05
2.77018e-05
2.81139e-05
2.81168e-05
2.77023e-05
2.81138e-05
2.81174e-05
3.3305e-05
3.35422e-05
2.76994e-05
2.81162e-05
2.81147e-05
3.35426e-05
3.36136e-05
3.36685e-05
2.81953e-05
2.81935e-05
2.83297e-05
2.83279e-05
3.36128e-05
3.36677e-05
2.81929e-05
2.81957e-05
2.83274e-05
2.83302e-05
2.81964e-05
2.83275e-05
2.83307e-05
3.36147e-05
3.36696e-05
2.81937e-05
2.83299e-05
2.83281e-05
3.36699e-05
3.37153e-05
3.37082e-05
2.8353e-05
2.83511e-05
2.83911e-05
2.83895e-05
3.37147e-05
3.37077e-05
2.83506e-05
2.83534e-05
2.83889e-05
2.83917e-05
2.83538e-05
2.83891e-05
2.83919e-05
3.37164e-05
3.37094e-05
2.83514e-05
2.83915e-05
2.83895e-05
3.37094e-05
3.37481e-05
3.37193e-05
2.83973e-05
2.83956e-05
2.84045e-05
2.84027e-05
3.37476e-05
3.37187e-05
2.8395e-05
2.83978e-05
2.84021e-05
2.84048e-05
2.83981e-05
2.84023e-05
2.84052e-05
3.37491e-05
3.37205e-05
2.83956e-05
2.84046e-05
2.84027e-05
3.37206e-05
3.37557e-05
3.37089e-05
2.84046e-05
2.84028e-05
2.8404e-05
2.84022e-05
3.37551e-05
3.37081e-05
2.84022e-05
2.84049e-05
2.84016e-05
2.84044e-05
2.84053e-05
2.84018e-05
2.84047e-05
3.37568e-05
3.37099e-05
2.84028e-05
2.84041e-05
2.84022e-05
3.371e-05
3.37452e-05
3.37129e-05
2.8404e-05
2.84022e-05
2.84053e-05
2.84034e-05
3.37445e-05
3.3712e-05
2.84016e-05
2.84043e-05
2.84029e-05
2.84057e-05
2.84046e-05
2.84031e-05
2.84059e-05
3.37461e-05
3.37144e-05
2.84021e-05
2.84055e-05
2.84036e-05
3.37145e-05
3.37517e-05
3.37185e-05
2.84059e-05
2.84041e-05
2.84054e-05
2.84036e-05
3.37508e-05
3.37182e-05
2.84035e-05
2.84063e-05
2.84029e-05
2.84057e-05
2.84065e-05
2.84032e-05
2.84059e-05
3.37531e-05
3.37191e-05
2.84042e-05
2.84054e-05
2.84035e-05
3.37186e-05
3.37526e-05
3.3709e-05
2.84049e-05
2.84029e-05
2.8405e-05
2.84032e-05
3.37521e-05
3.37078e-05
2.84023e-05
2.84051e-05
2.84026e-05
2.84054e-05
2.84053e-05
2.84028e-05
2.84058e-05
3.37529e-05
3.37111e-05
2.84029e-05
2.84051e-05
2.84034e-05
3.37125e-05
3.37515e-05
3.37119e-05
2.84052e-05
2.84035e-05
2.84052e-05
2.84033e-05
3.37506e-05
3.37119e-05
2.84027e-05
2.84054e-05
2.84027e-05
2.84054e-05
2.8406e-05
2.84031e-05
2.84057e-05
3.37533e-05
3.37123e-05
2.84036e-05
2.84054e-05
2.84034e-05
3.37118e-05
3.37453e-05
3.37209e-05
2.84052e-05
2.84031e-05
2.84053e-05
2.84032e-05
3.37452e-05
3.37193e-05
2.84026e-05
2.84053e-05
2.84028e-05
2.84055e-05
2.84057e-05
2.84029e-05
2.84058e-05
3.37458e-05
3.37223e-05
2.84033e-05
2.84053e-05
2.84034e-05
3.37225e-05
3.37592e-05
3.37097e-05
2.84052e-05
2.84031e-05
2.84056e-05
2.84031e-05
3.37584e-05
3.37056e-05
2.84026e-05
2.84054e-05
2.84029e-05
2.84059e-05
2.84057e-05
2.84032e-05
2.84062e-05
3.37601e-05
3.37124e-05
2.84033e-05
2.84057e-05
2.84038e-05
3.37111e-05
3.37529e-05
3.37055e-05
2.84057e-05
2.84032e-05
2.84052e-05
2.84029e-05
3.37476e-05
3.37069e-05
2.8403e-05
2.84058e-05
2.84025e-05
2.84056e-05
2.84062e-05
2.84029e-05
2.84056e-05
3.37549e-05
3.37076e-05
2.84038e-05
2.84053e-05
2.84032e-05
3.3707e-05
3.37436e-05
3.3711e-05
2.84056e-05
2.8403e-05
2.84055e-05
2.84031e-05
3.37429e-05
3.37101e-05
2.84029e-05
2.84059e-05
2.84025e-05
2.84056e-05
2.84059e-05
2.8403e-05
2.84059e-05
3.37481e-05
3.37089e-05
2.84036e-05
2.84051e-05
2.84034e-05
3.37158e-05
3.37448e-05
3.37179e-05
2.84054e-05
2.84031e-05
2.84055e-05
2.8403e-05
3.37448e-05
3.37086e-05
2.84025e-05
2.84056e-05
2.84028e-05
2.84056e-05
2.84058e-05
2.84031e-05
2.8406e-05
3.37444e-05
3.37131e-05
2.84032e-05
2.84054e-05
2.84036e-05
3.372e-05
3.37507e-05
3.37183e-05
2.84056e-05
2.84032e-05
2.84056e-05
2.84029e-05
3.37446e-05
3.37069e-05
2.84026e-05
2.84057e-05
2.84028e-05
2.84056e-05
2.8406e-05
2.8403e-05
2.8406e-05
3.37467e-05
3.37164e-05
2.84035e-05
2.84053e-05
2.84035e-05
3.37105e-05
3.37514e-05
3.372e-05
2.84054e-05
2.84029e-05
2.8406e-05
2.84032e-05
3.3743e-05
3.37091e-05
2.84025e-05
2.84054e-05
2.84031e-05
2.84061e-05
2.84059e-05
2.84033e-05
2.84059e-05
3.3749e-05
3.37201e-05
2.84035e-05
2.84056e-05
2.84035e-05
3.37066e-05
3.37537e-05
3.37203e-05
2.84056e-05
2.8403e-05
2.8406e-05
2.84031e-05
3.37437e-05
3.37121e-05
2.84027e-05
2.84057e-05
2.84028e-05
2.84058e-05
2.84059e-05
2.84035e-05
2.84063e-05
3.37528e-05
3.37213e-05
2.84034e-05
2.84059e-05
2.84039e-05
3.37193e-05
3.37573e-05
3.37168e-05
2.84059e-05
2.84032e-05
2.84057e-05
2.84029e-05
3.3746e-05
3.37089e-05
2.84028e-05
2.84057e-05
2.84027e-05
2.84057e-05
2.84061e-05
2.84031e-05
2.8406e-05
3.37565e-05
3.37194e-05
2.84036e-05
2.84054e-05
2.84037e-05
3.37209e-05
3.37561e-05
3.37171e-05
2.84058e-05
2.8403e-05
2.84057e-05
2.84028e-05
3.37439e-05
3.37093e-05
2.84027e-05
2.84057e-05
2.84026e-05
2.84058e-05
2.8406e-05
2.84029e-05
2.8406e-05
3.37551e-05
3.37221e-05
2.84037e-05
2.84054e-05
2.84034e-05
3.37085e-05
3.3755e-05
3.37201e-05
2.84055e-05
2.84028e-05
2.84062e-05
2.84031e-05
3.37432e-05
3.37173e-05
2.84024e-05
2.84055e-05
2.84031e-05
2.84059e-05
2.8406e-05
2.84034e-05
2.84061e-05
3.37568e-05
3.37185e-05
2.84036e-05
2.84056e-05
2.84035e-05
3.3711e-05
3.37594e-05
3.37064e-05
2.84058e-05
2.84028e-05
2.84058e-05
2.84031e-05
3.375e-05
3.37161e-05
2.84027e-05
2.84058e-05
2.84027e-05
2.84058e-05
2.84058e-05
2.84033e-05
2.84063e-05
3.37579e-05
3.3712e-05
2.84032e-05
2.84055e-05
2.8404e-05
3.37224e-05
3.37491e-05
3.37087e-05
2.84058e-05
2.8403e-05
2.84058e-05
2.84029e-05
3.37509e-05
3.37116e-05
2.84027e-05
2.84057e-05
2.84026e-05
2.84058e-05
2.84064e-05
2.84031e-05
2.8406e-05
3.37495e-05
3.37166e-05
2.84036e-05
2.84055e-05
2.84038e-05
3.37125e-05
3.37433e-05
3.37183e-05
2.84058e-05
2.84027e-05
2.84058e-05
2.84032e-05
3.37443e-05
3.37211e-05
2.84026e-05
2.84056e-05
2.84027e-05
2.8406e-05
2.8406e-05
2.84032e-05
2.84061e-05
3.37488e-05
3.37234e-05
2.84039e-05
2.84056e-05
2.84033e-05
3.37068e-05
3.37507e-05
3.37209e-05
2.84057e-05
2.84031e-05
2.84059e-05
2.84028e-05
3.37568e-05
3.37139e-05
2.84026e-05
2.84058e-05
2.84028e-05
2.84059e-05
2.84061e-05
2.8403e-05
2.84059e-05
3.37592e-05
3.37164e-05
2.84036e-05
2.84054e-05
2.84034e-05
3.37159e-05
3.3758e-05
3.37151e-05
2.84057e-05
2.8403e-05
2.84062e-05
2.84029e-05
3.37549e-05
3.37075e-05
2.84027e-05
2.84061e-05
2.84026e-05
2.84056e-05
2.84059e-05
2.84032e-05
2.84061e-05
3.37577e-05
3.37074e-05
2.84033e-05
2.84053e-05
2.84037e-05
3.37216e-05
3.37563e-05
3.37074e-05
2.84059e-05
2.84029e-05
2.84061e-05
2.84029e-05
3.375e-05
3.37044e-05
2.84026e-05
2.84057e-05
2.84026e-05
2.84057e-05
2.84059e-05
2.8403e-05
2.84061e-05
3.37489e-05
3.37088e-05
2.84034e-05
2.84053e-05
2.84037e-05
3.37172e-05
3.37498e-05
3.37067e-05
2.84063e-05
2.84029e-05
2.84056e-05
2.84027e-05
3.37422e-05
3.37129e-05
2.84026e-05
2.84056e-05
2.84026e-05
2.84059e-05
2.8406e-05
2.84029e-05
2.84061e-05
3.37438e-05
3.37178e-05
2.84035e-05
2.84056e-05
2.84037e-05
3.37117e-05
3.37433e-05
3.37121e-05
2.84058e-05
2.84026e-05
2.84058e-05
2.84032e-05
3.37458e-05
3.37197e-05
2.84026e-05
2.84055e-05
2.84027e-05
2.84062e-05
2.8406e-05
2.84031e-05
2.84061e-05
3.37501e-05
3.37224e-05
2.84036e-05
2.84059e-05
2.84036e-05
3.37087e-05
3.37456e-05
3.37188e-05
2.84056e-05
2.84029e-05
2.84061e-05
2.8403e-05
3.37579e-05
3.37093e-05
2.84026e-05
2.84061e-05
2.84027e-05
2.84056e-05
2.8406e-05
2.8403e-05
2.8406e-05
3.37607e-05
3.37088e-05
2.84037e-05
2.84052e-05
2.84034e-05
3.37093e-05
3.37518e-05
3.37196e-05
2.84059e-05
2.84032e-05
2.84059e-05
2.84026e-05
3.37521e-05
3.37053e-05
2.84026e-05
2.84059e-05
2.84027e-05
2.84056e-05
2.8406e-05
2.84029e-05
2.84059e-05
3.37513e-05
3.37088e-05
2.84035e-05
2.84053e-05
2.84035e-05
3.37124e-05
3.37549e-05
3.37187e-05
2.84059e-05
2.8403e-05
2.84059e-05
2.84025e-05
3.37457e-05
3.37062e-05
2.84027e-05
2.84057e-05
2.84027e-05
2.84056e-05
2.84059e-05
2.84027e-05
2.8406e-05
3.3745e-05
3.37116e-05
2.84035e-05
2.84053e-05
2.84035e-05
3.37155e-05
3.37544e-05
3.37188e-05
2.84057e-05
2.84025e-05
2.84063e-05
2.8403e-05
3.3742e-05
3.37107e-05
2.84027e-05
2.84057e-05
2.84027e-05
2.84057e-05
2.8406e-05
2.84027e-05
2.8406e-05
3.37458e-05
3.37145e-05
2.84035e-05
2.84052e-05
2.84035e-05
3.37154e-05
3.37533e-05
3.37189e-05
2.84059e-05
2.84028e-05
2.84059e-05
2.84028e-05
3.37443e-05
3.37157e-05
2.84027e-05
2.84057e-05
2.84027e-05
2.84056e-05
2.8406e-05
2.84029e-05
2.84059e-05
3.37477e-05
3.37168e-05
2.84035e-05
2.84053e-05
2.84036e-05
3.37128e-05
3.37528e-05
3.37196e-05
2.84061e-05
2.84028e-05
2.84058e-05
2.84026e-05
3.37484e-05
3.37171e-05
2.84026e-05
2.84056e-05
2.84027e-05
2.84057e-05
2.84061e-05
2.84029e-05
2.84059e-05
3.37495e-05
3.37186e-05
2.84036e-05
2.84053e-05
2.84035e-05
3.37111e-05
3.37539e-05
3.37202e-05
2.84057e-05
2.84026e-05
2.84061e-05
2.84029e-05
3.37505e-05
3.37175e-05
2.84025e-05
2.84056e-05
2.84028e-05
2.84058e-05
2.84059e-05
2.84028e-05
2.8406e-05
3.37511e-05
3.37205e-05
2.84036e-05
2.84054e-05
2.84035e-05
3.37127e-05
3.37565e-05
3.37186e-05
2.84057e-05
2.84025e-05
2.84062e-05
2.84029e-05
3.37512e-05
3.37184e-05
2.84025e-05
2.84056e-05
2.84027e-05
2.84058e-05
2.84058e-05
2.84029e-05
2.84061e-05
3.37541e-05
3.37209e-05
2.84034e-05
2.84054e-05
2.84036e-05
3.37153e-05
3.37572e-05
3.37158e-05
2.84061e-05
2.84028e-05
2.84059e-05
2.84027e-05
3.37532e-05
3.3718e-05
2.84026e-05
2.84057e-05
2.84026e-05
2.84058e-05
2.8406e-05
2.84027e-05
2.8406e-05
3.37561e-05
3.37205e-05
2.84035e-05
2.84054e-05
2.84036e-05
3.37162e-05
3.37557e-05
3.3716e-05
2.8406e-05
2.84027e-05
2.84058e-05
2.84027e-05
3.37541e-05
3.37179e-05
2.84026e-05
2.84056e-05
2.84026e-05
2.84058e-05
2.8406e-05
2.84026e-05
2.84059e-05
3.37567e-05
3.37202e-05
2.84036e-05
2.84053e-05
2.84035e-05
3.37147e-05
3.37553e-05
3.3718e-05
2.84058e-05
2.84026e-05
2.8406e-05
2.84028e-05
3.37546e-05
3.37172e-05
2.84026e-05
2.84058e-05
2.84026e-05
2.84057e-05
2.8406e-05
2.84026e-05
2.84058e-05
3.37573e-05
3.37193e-05
2.84036e-05
2.84052e-05
2.84034e-05
3.37119e-05
3.37557e-05
3.37189e-05
2.8406e-05
2.84028e-05
2.84058e-05
2.84025e-05
3.37549e-05
3.37163e-05
2.84026e-05
2.84057e-05
2.84026e-05
2.84057e-05
2.84059e-05
2.84026e-05
2.84058e-05
3.3757e-05
3.37193e-05
2.84035e-05
2.84051e-05
2.84033e-05
3.37113e-05
3.37554e-05
3.37196e-05
2.84058e-05
2.84027e-05
2.84057e-05
2.84024e-05
3.37543e-05
3.37168e-05
2.84026e-05
2.84057e-05
2.84026e-05
2.84057e-05
2.84059e-05
2.84026e-05
2.84057e-05
3.37567e-05
3.37197e-05
2.84034e-05
2.84051e-05
2.84033e-05
3.3711e-05
3.37564e-05
3.37183e-05
2.84057e-05
2.84025e-05
2.84056e-05
2.84024e-05
3.37536e-05
3.37174e-05
2.84027e-05
2.84057e-05
2.84024e-05
2.84054e-05
2.84059e-05
2.84023e-05
2.84056e-05
3.37568e-05
3.37199e-05
2.84034e-05
2.8405e-05
2.84032e-05
3.37121e-05
3.37569e-05
3.37159e-05
2.84058e-05
2.84025e-05
2.84055e-05
2.84023e-05
3.37525e-05
3.37181e-05
2.84025e-05
2.84056e-05
2.84022e-05
2.84054e-05
2.84058e-05
2.84023e-05
2.84057e-05
3.37569e-05
3.37199e-05
2.84033e-05
2.8405e-05
2.84032e-05
3.37134e-05
3.37556e-05
3.37159e-05
2.84057e-05
2.84024e-05
2.84054e-05
2.84023e-05
3.3753e-05
3.37182e-05
2.84024e-05
2.84055e-05
2.84022e-05
2.84053e-05
2.84058e-05
2.84024e-05
2.84056e-05
3.37575e-05
3.37185e-05
2.84034e-05
2.8405e-05
2.84031e-05
3.37118e-05
3.37554e-05
3.37168e-05
2.84057e-05
2.84025e-05
2.84054e-05
2.84021e-05
3.37545e-05
3.37174e-05
2.84024e-05
2.84056e-05
2.84021e-05
2.84052e-05
2.8406e-05
2.84022e-05
2.84052e-05
3.37574e-05
3.37168e-05
2.84034e-05
2.84049e-05
2.8403e-05
3.3711e-05
3.37557e-05
3.37174e-05
2.84058e-05
2.84025e-05
2.84053e-05
2.8402e-05
3.37547e-05
3.3717e-05
2.84025e-05
2.84056e-05
2.8402e-05
2.8405e-05
2.84058e-05
2.8402e-05
2.84053e-05
3.37564e-05
3.37174e-05
2.84034e-05
2.84049e-05
2.8403e-05
3.37113e-05
3.37554e-05
3.37183e-05
2.84058e-05
2.84026e-05
2.84052e-05
2.84019e-05
3.37546e-05
3.37167e-05
2.84026e-05
2.84057e-05
2.84019e-05
2.84049e-05
2.84058e-05
2.8402e-05
2.84052e-05
3.37563e-05
3.37186e-05
2.84036e-05
2.84047e-05
2.84027e-05
3.3711e-05
3.37549e-05
3.37189e-05
2.84059e-05
2.84027e-05
2.8405e-05
2.84018e-05
3.37544e-05
3.37171e-05
2.84026e-05
2.84057e-05
2.84018e-05
2.84048e-05
2.8406e-05
2.8402e-05
2.84051e-05
3.37565e-05
3.37192e-05
2.84036e-05
2.84046e-05
2.84028e-05
3.37117e-05
3.37551e-05
3.37188e-05
2.8406e-05
2.84027e-05
2.8405e-05
2.84018e-05
3.37543e-05
3.37174e-05
2.84028e-05
2.84059e-05
2.84017e-05
2.84047e-05
2.84062e-05
2.84018e-05
2.8405e-05
3.37565e-05
3.37196e-05
2.84037e-05
2.84046e-05
2.84026e-05
3.37122e-05
3.37554e-05
3.37184e-05
2.84062e-05
2.8403e-05
2.84049e-05
2.84017e-05
3.37553e-05
3.37157e-05
2.8403e-05
2.84061e-05
2.84015e-05
2.84046e-05
2.84063e-05
2.84017e-05
2.84049e-05
3.37566e-05
3.37197e-05
2.84041e-05
2.84045e-05
2.84023e-05
3.37108e-05
3.37554e-05
3.37186e-05
2.84065e-05
2.84034e-05
2.84047e-05
2.84014e-05
3.37552e-05
3.37134e-05
2.84032e-05
2.84063e-05
2.84014e-05
2.84046e-05
2.84067e-05
2.84016e-05
2.84047e-05
3.37568e-05
3.37193e-05
2.84042e-05
2.84044e-05
2.84023e-05
3.371e-05
3.37557e-05
3.37185e-05
2.84068e-05
2.84037e-05
2.84047e-05
2.84015e-05
3.37537e-05
3.3715e-05
2.84035e-05
2.84066e-05
2.84014e-05
2.84045e-05
2.8407e-05
2.84016e-05
2.84048e-05
3.37571e-05
3.37185e-05
2.84045e-05
2.84043e-05
2.84023e-05
3.37122e-05
3.37564e-05
3.37173e-05
2.84074e-05
2.84042e-05
2.84047e-05
2.84015e-05
3.37537e-05
3.37174e-05
2.84041e-05
2.84072e-05
2.84015e-05
2.84045e-05
2.84074e-05
2.84016e-05
2.84049e-05
3.37568e-05
3.37188e-05
2.84051e-05
2.84043e-05
2.84024e-05
3.37132e-05
3.37564e-05
3.37165e-05
2.84083e-05
2.84051e-05
2.84049e-05
2.84017e-05
3.37543e-05
3.37172e-05
2.8405e-05
2.84081e-05
2.84017e-05
2.84048e-05
2.84084e-05
2.84019e-05
2.84051e-05
3.37571e-05
3.37188e-05
2.84059e-05
2.84047e-05
2.84026e-05
3.37118e-05
3.37556e-05
3.3718e-05
2.84095e-05
2.84063e-05
2.84057e-05
2.84026e-05
3.37544e-05
3.37175e-05
2.84063e-05
2.84094e-05
2.84024e-05
2.84056e-05
2.84097e-05
2.84027e-05
2.84058e-05
3.37577e-05
3.37175e-05
2.84072e-05
2.84055e-05
2.84034e-05
3.37114e-05
3.37555e-05
3.37158e-05
2.84114e-05
2.84083e-05
2.83991e-05
2.83961e-05
3.37545e-05
3.37145e-05
2.84082e-05
2.84114e-05
2.83958e-05
2.83989e-05
2.84116e-05
2.83961e-05
2.83991e-05
3.37569e-05
3.3714e-05
2.84092e-05
2.83986e-05
2.83964e-05
3.37078e-05
3.37498e-05
3.33381e-05
2.84044e-05
2.84014e-05
2.79716e-05
2.79673e-05
3.37493e-05
3.3337e-05
2.8401e-05
2.84041e-05
2.79696e-05
2.79692e-05
2.84044e-05
2.79704e-05
2.797e-05
3.37499e-05
3.33382e-05
2.84018e-05
2.79721e-05
2.79688e-05
3.33364e-05
3.29209e-05
2.7304e-05
2.73e-05
3.29201e-05
2.73027e-05
2.73017e-05
1.68133e-05
1.6814e-05
1.68133e-05
2.73023e-05
3.29211e-05
2.73017e-05
6.65629e-06
1.09397e-06
4.51885e-06
4.52251e-06
9.19133e-08
3.08213e-07
2.64608e-07
2.76554e-06
9.30075e-08
3.90648e-07
2.76681e-06
4.48951e-07
3.81211e-07
4.13118e-07
3.94971e-07
2.90483e-07
5.00582e-06
2.43089e-07
6.67965e-06
1.374e-05
2.1568e-05
2.88148e-07
4.9757e-06
2.38161e-07
6.67236e-06
2.62526e-06
2.63762e-06
2.6276e-06
2.61824e-06
2.62295e-06
2.63538e-06
2.62447e-06
9.14024e-08
5.58421e-07
1.22021e-06
3.57181e-07
9.15074e-08
5.45542e-07
1.20986e-06
1.41287e-05
2.16553e-05
8.82868e-08
1.22919e-06
7.1196e-07
4.46976e-07
9.11126e-08
1.21958e-06
6.83438e-07
1.92291e-06
1.89248e-06
3.64753e-07
1.89459e-06
1.87191e-06
4.54757e-07
9.75252e-06
4.03568e-07
1.24826e-05
3.69378e-05
4.68087e-05
4.66227e-07
9.89744e-06
4.02092e-07
1.26113e-05
2.64254e-06
2.65477e-06
2.64368e-06
2.69978e-06