/*--------------------------------*- C++ -*----------------------------------*\
| =========                 |                                                 |
| \\      /  F ield         | OpenFOAM: The Open Source CFD Toolbox           |
|  \\    /   O peration     | Version:  v2012                                 |
|   \\  /    A nd           | Website:  www.openfoam.com                      |
|    \\/     M anipulation  |                                                 |
\*---------------------------------------------------------------------------*/
FoamFile
{
    version     2.0;
    format      ascii;
    class       volScalarField;
    location    "150";
    object      nut;
}
// * * * * * * * * * * * * * * * * * * * * * * * * * * * * * * * * * * * * * //

dimensions      [0 2 -1 0 0 0 0];


internalField   nonuniform List<scalar> 
171728
(
2.8727e-05
2.71292e-06
3.1876e-06
2.36199e-06
2.91199e-05
2.92993e-06
3.33721e-06
2.38658e-06
3.02248e-05
3.26312e-06
3.59587e-06
2.43275e-06
3.12947e-05
3.63152e-06
3.87589e-06
2.47669e-06
3.23103e-05
4.01722e-06
4.20708e-06
2.51691e-06
3.32879e-05
4.42032e-06
4.55696e-06
2.5566e-06
3.42379e-05
4.84628e-06
4.94757e-06
2.61875e-06
3.51355e-05
5.25519e-06
5.37513e-06
2.65326e-06
3.60386e-05
5.65561e-06
5.75446e-06
2.6584e-06
3.68932e-05
6.07461e-06
6.26406e-06
2.66468e-06
3.76977e-05
6.56867e-06
6.75196e-06
2.73461e-06
3.84906e-05
7.12492e-06
7.28429e-06
2.86758e-06
3.92249e-05
7.78168e-06
7.89508e-06
3.07165e-06
3.99551e-05
8.36937e-06
8.46611e-06
3.33799e-06
4.06281e-05
9.23332e-06
9.08797e-06
3.62165e-06
4.13067e-05
1.02797e-05
9.79472e-06
3.91678e-06
4.20185e-05
1.13984e-05
1.04628e-05
4.14499e-06
4.27132e-05
1.2318e-05
1.11427e-05
4.31861e-06
4.32973e-05
1.26632e-05
1.16757e-05
4.59156e-06
4.40323e-05
1.29271e-05
1.22418e-05
5.08246e-06
4.46803e-05
1.3102e-05
1.30635e-05
5.8304e-06
4.52948e-05
1.35461e-05
1.40324e-05
6.95209e-06
4.59704e-05
1.42269e-05
1.53201e-05
8.63213e-06
4.64412e-05
1.52601e-05
1.62689e-05
1.11853e-05
4.7382e-05
1.69763e-05
1.7926e-05
1.50866e-05
4.7892e-05
1.9294e-05
1.9687e-05
2.03681e-05
4.88943e-05
2.24205e-05
2.25816e-05
2.7198e-05
4.95757e-05
2.62607e-05
2.61545e-05
3.5284e-05
5.10477e-05
3.09148e-05
3.12359e-05
4.3884e-05
5.23454e-05
3.64107e-05
3.68218e-05
5.16906e-05
5.30661e-05
4.14656e-05
4.17765e-05
5.89154e-05
5.32353e-05
4.70161e-05
4.71924e-05
6.62419e-05
5.38577e-05
5.46146e-05
5.46632e-05
7.35916e-05
5.88763e-05
6.66769e-05
6.66771e-05
8.29709e-05
6.83421e-05
8.15968e-05
8.15958e-05
9.37912e-05
8.17253e-05
9.69471e-05
9.69529e-05
0.000104223
9.76956e-05
0.0001106
0.00011061
0.000113046
0.000110254
0.000118699
0.000118707
0.000117577
0.000116875
0.000122112
0.000122121
0.000119316
0.00011942
0.000123242
0.000123251
0.000119892
0.000120198
0.00012357
0.000123579
0.000120079
0.000120381
0.000123632
0.00012364
0.000120148
0.000120407
0.000123627
0.000123636
0.000120083
0.000120419
0.000123639
0.000123648
0.000120108
0.000120418
0.000123632
0.000123641
0.000120131
0.000120417
0.000123637
0.000123644
0.000120112
0.000120419
0.000123634
0.000123643
0.00012008
0.000120419
0.000123635
0.000123643
0.000120174
0.000120421
0.000123637
0.000123646
0.000120115
0.000120421
0.000123636
0.000123646
0.000120051
0.000120422
0.000123635
0.000123642
0.000120099
0.000120422
0.000123637
0.000123643
0.000120152
0.000120422
0.000123635
0.000123643
0.000120108
0.000120423
0.000123635
0.000123643
0.000120044
0.000120423
0.000123638
0.000123646
0.000120122
0.000120423
0.000123638
0.000123645
0.000120168
0.000120423
0.000123634
0.000123642
0.000120094
0.000120423
0.000123634
0.000123645
0.000120072
0.000120424
0.000123637
0.000123644
0.000120171
0.000120424
0.000123634
0.000123643
0.000120128
0.000120424
0.000123636
0.000123645
0.000120052
0.000120424
0.000123634
0.000123645
0.000120097
0.000120424
0.000123635
0.000123644
0.000120151
0.000120424
0.000123636
0.000123642
0.000120137
0.000120424
0.000123633
0.000123642
0.000120109
0.000120424
0.000123635
0.000123648
0.000120073
0.000120424
0.000123635
0.000123645
0.000120055
0.000120424
0.000123636
0.000123643
0.000120072
0.000120424
0.000123633
0.000123643
0.000120091
0.000120424
0.000123632
0.000123643
0.000120092
0.000120424
0.000123632
0.000123643
0.000120076
0.000120424
0.000123633
0.000123643
0.000120065
0.000120424
0.000123633
0.000123643
0.000120075
0.000120423
0.000123632
0.000123643
0.000120091
0.000120423
0.000123633
0.000123643
0.000120096
0.000120423
0.000123632
0.000123643
0.000120087
0.000120423
0.000123632
0.000123643
0.000120072
0.000120423
0.000123633
0.000123643
0.000120069
0.000120423
0.000123634
0.000123643
0.000120065
0.000120423
0.000123633
0.000123643
0.000120072
0.000120423
0.000123632
0.000123644
0.000120082
0.000120423
0.000123633
0.000123644
0.000120073
0.000120423
0.000123633
0.000123644
0.000120068
0.000120423
0.000123633
0.000123645
0.000120069
0.000120423
0.000123633
0.000123645
0.000120068
0.000120423
0.000123634
0.000123645
0.000120073
0.000120424
0.000123635
0.000123647
0.000120077
0.000120424
0.000123636
0.000123648
0.000120068
0.000120424
0.000123638
0.00012365
0.000120064
0.000120424
0.000123641
0.000123652
0.00012008
0.000120425
0.000123646
0.000123657
0.000120089
0.000120427
0.000123654
0.000123666
0.000120083
0.000120428
0.000123669
0.000123681
0.00012008
0.000120383
0.000123647
0.000123658
0.000120083
0.000120947
0.000122747
0.000122756
0.000120274
2.1859e-06
2.49872e-06
2.69286e-06
2.11319e-06
2.7173e-06
2.81759e-06
2.93883e-05
2.9424e-05
2.9413e-05
2.93591e-05
2.28351e-06
2.82357e-06
2.37881e-06
2.82618e-06
2.78353e-06
2.37301e-06
2.16963e-06
2.18426e-06
2.8947e-06
3.19665e-06
3.03498e-06
3.32035e-06
2.08708e-06
2.10038e-06
3.19121e-06
3.21668e-06
3.31512e-06
3.34696e-06
3.19245e-06
2.85811e-06
3.3165e-06
2.36315e-06
2.37301e-06
2.96094e-06
3.28847e-06
3.10482e-06
2.38712e-06
2.1837e-06
2.22665e-06
3.09761e-06
3.38294e-06
3.2749e-06
3.58516e-06
2.10001e-06
2.15988e-06
3.3761e-06
3.40948e-06
3.57359e-06
3.60929e-06
3.37851e-06
3.17913e-06
3.57112e-06
2.37193e-06
2.43796e-06
3.16763e-06
3.53758e-06
3.36939e-06
2.43551e-06
2.22243e-06
2.2614e-06
3.33597e-06
3.65851e-06
3.55206e-06
3.8773e-06
2.16036e-06
2.22827e-06
3.64334e-06
3.67551e-06
3.87023e-06
3.90893e-06
3.64388e-06
3.53271e-06
3.86049e-06
2.43991e-06
2.50977e-06
3.43258e-06
3.80623e-06
3.64577e-06
2.47855e-06
2.25595e-06
2.28317e-06
3.63125e-06
3.95739e-06
3.90736e-06
4.2166e-06
2.23008e-06
2.28704e-06
3.95209e-06
3.98729e-06
4.20888e-06
4.23884e-06
3.94294e-06
3.90707e-06
4.20538e-06
2.50947e-06
2.55656e-06
3.71643e-06
4.1314e-06
3.94412e-06
2.52289e-06
2.27714e-06
2.31522e-06
4.00872e-06
4.31027e-06
4.29523e-06
4.58512e-06
2.28163e-06
2.32277e-06
4.29929e-06
4.3205e-06
4.5884e-06
4.60936e-06
4.30016e-06
4.3203e-06
4.60468e-06
2.54842e-06
2.56184e-06
4.03115e-06
4.47749e-06
4.27111e-06
2.55993e-06
2.3105e-06
2.36582e-06
4.39214e-06
4.68294e-06
4.66839e-06
4.98031e-06
2.31704e-06
2.36243e-06
4.68664e-06
4.69789e-06
5.01008e-06
5.00151e-06
4.70959e-06
4.75129e-06
5.03056e-06
2.54732e-06
2.56416e-06
4.37308e-06
4.85113e-06
4.65775e-06
2.62412e-06
2.36153e-06
2.41972e-06
4.75777e-06
5.08334e-06
5.06106e-06
5.42674e-06
2.35585e-06
2.41668e-06
5.11103e-06
5.09826e-06
5.46921e-06
5.39892e-06
5.12374e-06
5.16826e-06
5.43095e-06
2.55246e-06
2.59184e-06
4.75076e-06
5.25614e-06
5.08547e-06
2.6671e-06
2.4119e-06
2.46492e-06
5.14604e-06
5.54045e-06
5.4795e-06
5.92826e-06
2.41207e-06
2.48152e-06
5.58149e-06
5.50802e-06
5.95833e-06
5.83853e-06
5.5256e-06
5.54834e-06
5.8603e-06
2.58131e-06
2.62875e-06
5.16018e-06
5.66359e-06
5.47473e-06
2.67561e-06
2.45204e-06
2.57591e-06
5.5861e-06
6.03412e-06
5.93907e-06
6.42568e-06
2.47079e-06
2.60739e-06
6.08983e-06
5.95119e-06
6.49644e-06
6.3664e-06
5.97303e-06
5.98507e-06
6.3154e-06
2.61696e-06
2.72632e-06
5.57146e-06
6.16312e-06
5.83006e-06
2.68481e-06
2.56465e-06
2.7683e-06
6.0739e-06
6.55522e-06
6.48007e-06
6.93796e-06
2.59745e-06
2.81384e-06
6.64662e-06
6.4855e-06
7.10833e-06
6.90973e-06
6.44674e-06
6.41021e-06
6.83635e-06
2.71501e-06
2.86991e-06
5.94342e-06
6.604e-06
6.30001e-06
2.75615e-06
2.75011e-06
3.02991e-06
6.63243e-06
7.08987e-06
7.13937e-06
7.49934e-06
2.79736e-06
3.06282e-06
7.26353e-06
7.07905e-06
7.75559e-06
7.50696e-06
6.96229e-06
6.97404e-06
7.40566e-06
2.85169e-06
3.04327e-06
6.42169e-06
7.14053e-06
6.81042e-06
2.89544e-06
3.00582e-06
3.3273e-06
7.30596e-06
7.63071e-06
7.79641e-06
8.08765e-06
3.0367e-06
3.29499e-06
7.9202e-06
7.66229e-06
8.38898e-06
8.19963e-06
7.57203e-06
7.64328e-06
8.02158e-06
3.0156e-06
3.26915e-06
6.96878e-06
7.77481e-06
7.52454e-06
3.10638e-06
3.29281e-06
3.60548e-06
7.96985e-06
8.22775e-06
8.49999e-06
8.67604e-06
3.25777e-06
3.539e-06
8.53706e-06
8.3771e-06
9.00335e-06
8.93694e-06
8.17015e-06
8.19645e-06
8.70721e-06
3.23495e-06
3.58099e-06
7.69454e-06
8.30865e-06
8.24651e-06
3.38003e-06
3.55757e-06
3.84929e-06
8.66408e-06
8.84486e-06
9.18579e-06
9.31318e-06
3.49019e-06
3.82546e-06
9.14851e-06
9.1167e-06
9.53612e-06
9.70884e-06
8.85789e-06
9.01268e-06
9.33213e-06
3.53845e-06
3.92492e-06
8.43204e-06
8.92894e-06
9.01129e-06
3.67931e-06
3.78315e-06
4.05261e-06
9.3787e-06
9.46634e-06
9.9191e-06
9.9906e-06
3.7693e-06
4.18917e-06
9.67042e-06
9.91193e-06
1.01004e-05
1.04094e-05
9.50796e-06
1.00098e-05
9.98852e-06
3.86861e-06
4.24998e-06
9.25971e-06
9.61518e-06
1.00013e-05
3.97293e-06
3.983e-06
4.16539e-06
1.00623e-05
1.01471e-05
1.06044e-05
1.06353e-05
4.12468e-06
4.44873e-06
1.021e-05
1.0593e-05
1.05956e-05
1.11779e-05
1.0109e-05
1.10712e-05
1.05293e-05
4.1998e-06
4.49938e-06
1.0207e-05
1.03311e-05
1.08639e-05
4.17444e-06
4.12593e-06
4.31742e-06
1.07919e-05
1.07964e-05
1.12084e-05
1.12177e-05
4.42435e-06
4.62948e-06
1.07651e-05
1.13286e-05
1.11847e-05
1.19147e-05
1.07014e-05
1.21383e-05
1.10938e-05
4.47987e-06
4.72719e-06
1.10342e-05
1.09239e-05
1.13279e-05
4.35017e-06
4.27601e-06
4.53859e-06
1.13968e-05
1.14168e-05
1.1738e-05
1.18987e-05
4.56388e-06
4.76582e-06
1.13571e-05
1.21514e-05
1.17211e-05
1.25781e-05
1.12762e-05
1.26012e-05
1.16846e-05
4.69782e-06
4.98118e-06
1.14919e-05
1.15678e-05
1.18602e-05
4.60993e-06
4.51985e-06
4.97621e-06
1.18387e-05
1.20278e-05
1.2318e-05
1.24982e-05
4.7423e-06
5.10926e-06
1.1815e-05
1.2656e-05
1.23029e-05
1.30013e-05
1.17761e-05
1.29249e-05
1.22301e-05
4.95274e-06
5.31825e-06
1.19325e-05
1.21157e-05
1.23741e-05
5.05481e-06
4.99888e-06
5.67891e-06
1.24088e-05
1.26007e-05
1.26671e-05
1.29419e-05
5.11163e-06
5.79313e-06
1.24233e-05
1.31319e-05
1.2687e-05
1.32625e-05
1.23358e-05
1.29934e-05
1.26138e-05
5.33687e-06
6.11031e-06
1.25043e-05
1.28355e-05
1.29015e-05
5.75332e-06
5.75815e-06
6.72367e-06
1.28049e-05
1.31283e-05
1.3182e-05
1.36002e-05
5.88897e-06
6.92061e-06
1.28238e-05
1.32926e-05
1.32648e-05
1.38483e-05
1.27581e-05
1.3442e-05
1.31595e-05
6.17242e-06
7.11506e-06
1.30772e-05
1.37557e-05
1.34498e-05
6.77613e-06
6.90738e-06
8.35687e-06
1.33176e-05
1.37344e-05
1.39226e-05
1.43581e-05
7.10799e-06
8.52844e-06
1.34042e-05
1.40179e-05
1.39708e-05
1.40548e-05
1.32964e-05
1.40138e-05
1.38921e-05
7.35644e-06
8.8882e-06
1.35549e-05
1.49699e-05
1.41116e-05
8.32936e-06
8.68405e-06
1.08339e-05
1.41975e-05
1.46242e-05
1.50595e-05
1.5387e-05
8.84302e-06
1.0954e-05
1.42365e-05
1.41512e-05
1.51232e-05
1.50825e-05
1.41596e-05
1.49656e-05
1.50377e-05
9.11891e-06
1.06995e-05
1.43765e-05
1.60977e-05
1.51099e-05
1.06831e-05
1.13405e-05
1.44376e-05
1.53861e-05
1.56868e-05
1.67478e-05
1.6928e-05
1.14625e-05
1.45404e-05
1.5458e-05
1.55203e-05
1.68047e-05
1.70555e-05
1.53774e-05
1.64805e-05
1.67647e-05
1.11519e-05
1.44699e-05
1.53595e-05
1.74041e-05
1.65477e-05
1.43179e-05
1.51903e-05
1.94467e-05
1.7281e-05
1.74257e-05
1.89432e-05
1.90226e-05
1.52825e-05
1.95023e-05
1.73373e-05
1.75868e-05
1.90057e-05
1.90591e-05
1.73089e-05
1.86584e-05
1.89716e-05
1.52964e-05
1.95337e-05
1.70669e-05
1.92261e-05
1.86843e-05
1.93451e-05
2.04855e-05
2.59928e-05
1.95956e-05
1.96134e-05
2.18636e-05
2.17184e-05
2.05303e-05
2.60313e-05
1.9638e-05
1.96117e-05
2.18643e-05
2.17388e-05
1.96107e-05
2.15474e-05
2.18848e-05
2.04858e-05
2.5684e-05
1.93023e-05
2.17615e-05
2.15374e-05
2.59201e-05
2.72411e-05
3.37486e-05
2.26747e-05
2.25648e-05
2.54591e-05
2.53752e-05
2.73159e-05
3.38491e-05
2.27081e-05
2.26068e-05
2.55581e-05
2.55402e-05
2.27243e-05
2.52723e-05
2.55402e-05
2.69424e-05
3.35265e-05
2.23987e-05
2.51751e-05
2.52422e-05
3.37686e-05
3.52862e-05
4.26744e-05
2.65842e-05
2.63621e-05
3.05747e-05
2.96826e-05
3.52962e-05
4.19851e-05
2.66329e-05
2.65801e-05
3.04023e-05
2.99825e-05
2.66299e-05
2.96194e-05
3.04662e-05
3.50152e-05
4.19979e-05
2.62628e-05
2.98216e-05
2.96807e-05
4.23727e-05
4.42284e-05
5.05243e-05
3.20051e-05
3.09658e-05
3.60008e-05
3.51008e-05
4.34746e-05
5.02121e-05
3.18073e-05
3.12558e-05
3.59215e-05
3.53061e-05
3.18714e-05
3.50774e-05
3.59019e-05
4.35326e-05
5.03877e-05
3.09551e-05
3.551e-05
3.49423e-05
5.03032e-05
5.18515e-05
5.75692e-05
3.71772e-05
3.64421e-05
4.05736e-05
4.02386e-05
5.16908e-05
5.7666e-05
3.71521e-05
3.66263e-05
4.06166e-05
4.03885e-05
3.71011e-05
4.01863e-05
4.05179e-05
5.18802e-05
5.79158e-05
3.62405e-05
4.05231e-05
4.00557e-05
5.75728e-05
5.8908e-05
6.49245e-05
4.17995e-05
4.15274e-05
4.58406e-05
4.5626e-05
5.898e-05
6.47999e-05
4.18335e-05
4.16572e-05
4.58236e-05
4.56759e-05
4.17342e-05
4.55612e-05
4.57313e-05
5.92267e-05
6.49504e-05
4.13831e-05
4.57743e-05
4.55768e-05
6.48634e-05
6.63121e-05
7.22077e-05
4.72877e-05
4.70845e-05
5.25127e-05
5.23858e-05
6.61697e-05
7.20978e-05
4.72606e-05
4.71096e-05
5.24907e-05
5.23596e-05
4.71683e-05
5.23282e-05
5.24037e-05
6.6295e-05
7.21289e-05
4.70468e-05
5.24024e-05
5.23423e-05
7.2137e-05
7.36561e-05
8.1144e-05
5.47656e-05
5.46701e-05
6.33444e-05
6.33184e-05
7.35629e-05
8.1122e-05
5.4749e-05
5.46351e-05
6.33389e-05
6.32818e-05
5.46701e-05
6.32858e-05
6.32917e-05
7.35811e-05
8.11075e-05
5.46219e-05
6.32913e-05
6.32687e-05
8.11201e-05
8.29915e-05
9.18944e-05
6.67201e-05
6.67058e-05
7.77728e-05
7.77715e-05
8.29775e-05
9.18905e-05
6.67152e-05
6.66732e-05
7.77693e-05
7.77533e-05
6.66783e-05
7.7759e-05
7.77545e-05
8.29621e-05
9.18843e-05
6.66599e-05
7.77567e-05
7.77431e-05
9.1885e-05
9.38008e-05
0.000102488
8.16093e-05
8.16077e-05
9.31395e-05
9.31335e-05
9.37969e-05
0.000102484
8.16059e-05
8.15939e-05
9.3138e-05
9.31337e-05
8.15958e-05
9.31365e-05
9.31359e-05
9.37926e-05
0.000102486
8.15858e-05
9.31406e-05
9.31305e-05
0.000102482
0.000104228
0.000111742
9.69492e-05
9.69423e-05
0.0001076
0.000107592
0.000104225
0.000111739
9.69483e-05
9.69451e-05
0.000107603
0.000107597
9.69475e-05
0.000107604
0.000107601
0.000104228
0.000111743
9.69435e-05
0.000107614
0.000107601
0.000111738
0.000113052
0.000117051
0.000110596
0.000110586
0.000117209
0.000117196
0.000113049
0.000117042
0.0001106
0.000110592
0.000117218
0.000117204
0.000110596
0.000117217
0.000117211
0.000113052
0.00011705
0.000110598
0.000117226
0.000117216
0.000117047
0.000117582
0.000119125
0.000118689
0.000118676
0.000121543
0.00012153
0.000117574
0.000119118
0.0001187
0.000118684
0.000121557
0.000121537
0.000118691
0.000121554
0.000121545
0.000117581
0.000119124
0.000118698
0.000121563
0.000121554
0.00011912
0.000119322
0.000119847
0.0001221
0.000122086
0.00012306
0.000123047
0.000119314
0.000119841
0.000122114
0.000122094
0.000123075
0.000123055
0.000122102
0.000123073
0.000123062
0.000119321
0.000119847
0.000122112
0.000123083
0.000123073
0.000119841
0.000119898
0.000120088
0.000123229
0.000123215
0.000123507
0.000123494
0.000119891
0.000120082
0.000123243
0.000123223
0.000123523
0.000123502
0.00012323
0.000123522
0.000123508
0.000119897
0.000120087
0.000123241
0.000123531
0.00012352
0.000120081
0.000120086
0.000120171
0.000123555
0.000123543
0.000123615
0.000123602
0.00012008
0.000120166
0.00012357
0.00012355
0.00012363
0.000123609
0.000123556
0.000123629
0.000123615
0.000120086
0.000120171
0.000123567
0.000123637
0.000123626
0.000120164
0.000120154
0.000120112
0.000123618
0.000123604
0.000123616
0.000123601
0.00012015
0.000120106
0.000123632
0.000123611
0.000123629
0.000123608
0.000123618
0.000123628
0.000123614
0.000120154
0.000120111
0.000123629
0.000123636
0.000123625
0.000120105
0.00012009
0.000120118
0.000123615
0.0001236
0.000123622
0.000123606
0.000120084
0.000120111
0.000123628
0.000123607
0.000123634
0.000123614
0.000123614
0.000123633
0.00012362
0.000120089
0.000120119
0.000123625
0.000123643
0.000123631
0.000120112
0.000120111
0.000120181
0.000123627
0.000123612
0.000123626
0.000123611
0.000120104
0.000120178
0.00012364
0.000123619
0.000123638
0.000123617
0.000123625
0.000123638
0.000123623
0.000120114
0.000120177
0.000123637
0.000123645
0.000123634
0.000120167
0.000120148
0.000120087
0.000123622
0.000123605
0.000123622
0.000123606
0.000120144
0.000120078
0.000123633
0.000123613
0.000123633
0.000123613
0.000123618
0.000123633
0.000123621
0.000120143
0.000120093
0.000123629
0.000123641
0.000123632
0.000120094
0.000120107
0.000120139
0.000123624
0.00012361
0.000123624
0.000123607
0.000120099
0.00012014
0.000123635
0.000123614
0.000123635
0.000123614
0.000123623
0.000123636
0.000123621
0.000120111
0.000120133
0.000123634
0.000123644
0.000123632
0.000120122
0.000120095
0.00012018
0.000123624
0.000123606
0.000123624
0.000123607
0.000120095
0.000120164
0.000123634
0.000123613
0.000123635
0.000123615
0.00012362
0.000123634
0.000123621
0.000120089
0.000120183
0.000123632
0.000123643
0.000123632
0.000120176
0.000120181
0.000120096
0.000123624
0.000123607
0.000123626
0.000123606
0.00012017
0.000120071
0.000123634
0.000123614
0.000123635
0.000123617
0.00012362
0.000123636
0.000123623
0.00012018
0.000120107
0.000123632
0.000123646
0.000123634
0.000120089
0.000120123
0.000120075
0.000123628
0.000123608
0.000123623
0.000123605
0.000120086
0.000120092
0.000123637
0.000123617
0.000123632
0.000123614
0.000123624
0.000123634
0.000123619
0.000120133
0.000120075
0.000123636
0.000123642
0.00012363
0.000120072
0.000120059
0.000120126
0.000123626
0.000123606
0.000123625
0.000123607
0.000120063
0.000120115
0.000123636
0.000123617
0.000123633
0.000123614
0.000123622
0.000123635
0.000123621
0.000120081
0.000120094
0.000123633
0.000123642
0.000123632
0.000120144
0.000120082
0.00012017
0.000123625
0.000123607
0.000123626
0.000123606
0.00012008
0.0001201
0.000123633
0.000123615
0.000123634
0.000123614
0.000123621
0.000123635
0.000123622
0.000120062
0.000120127
0.000123631
0.000123643
0.000123633
0.00012016
0.000120124
0.000120174
0.000123626
0.000123607
0.000123627
0.000123606
0.000120073
0.00012009
0.000123633
0.000123615
0.000123635
0.000123615
0.000123622
0.000123635
0.000123622
0.000120082
0.000120154
0.000123633
0.000123643
0.000123633
0.000120085
0.00012013
0.000120188
0.000123625
0.000123606
0.00012363
0.000123608
0.000120061
0.000120112
0.000123633
0.000123613
0.000123637
0.000123618
0.000123622
0.000123637
0.000123622
0.000120104
0.000120179
0.000123633
0.000123646
0.000123632
0.000120071
0.000120151
0.000120181
0.000123626
0.000123607
0.000123629
0.000123607
0.000120073
0.00012013
0.000123634
0.000123616
0.000123635
0.000123616
0.000123621
0.000123638
0.000123624
0.000120135
0.000120179
0.000123632
0.000123647
0.000123635
0.000120168
0.000120171
0.000120147
0.000123629
0.000123608
0.000123627
0.000123606
0.000120091
0.000120101
0.000123635
0.000123616
0.000123634
0.000123615
0.000123623
0.000123635
0.000123622
0.000120156
0.000120165
0.000123633
0.000123643
0.000123633
0.000120163
0.00012015
0.000120164
0.000123628
0.000123607
0.000123627
0.000123606
0.000120066
0.000120112
0.000123634
0.000123615
0.000123634
0.000123617
0.000123622
0.000123634
0.000123622
0.000120142
0.00012019
0.000123634
0.000123644
0.000123631
0.00012007
0.000120155
0.000120175
0.000123626
0.000123606
0.000123631
0.000123609
0.000120067
0.000120172
0.000123633
0.000123614
0.000123638
0.000123617
0.000123622
0.000123638
0.000123623
0.000120162
0.000120155
0.000123633
0.000123645
0.000123632
0.000120112
0.000120182
0.000120079
0.000123629
0.000123606
0.000123627
0.000123608
0.000120126
0.000120152
0.000123635
0.000123616
0.000123634
0.000123616
0.00012362
0.000123636
0.000123624
0.000120159
0.000120111
0.000123631
0.000123644
0.000123636
0.000120181
0.000120101
0.000120105
0.000123628
0.000123608
0.000123627
0.000123607
0.000120121
0.000120136
0.000123634
0.000123615
0.000123634
0.000123616
0.000123625
0.000123635
0.000123622
0.000120098
0.000120158
0.000123634
0.000123644
0.000123634
0.000120098
0.00012007
0.00012017
0.000123628
0.000123606
0.000123627
0.000123609
0.000120087
0.000120186
0.000123634
0.000123615
0.000123634
0.000123617
0.000123622
0.000123636
0.000123622
0.000120106
0.000120197
0.000123636
0.000123645
0.000123631
0.000120067
0.000120124
0.000120182
0.000123627
0.000123609
0.000123629
0.000123606
0.000120167
0.000120126
0.000123634
0.000123616
0.000123635
0.000123616
0.000123622
0.000123634
0.000123621
0.000120179
0.000120134
0.000123633
0.000123644
0.000123631
0.000120138
0.000120168
0.00012014
0.000123627
0.000123608
0.00012363
0.000123607
0.00012014
0.000120087
0.000123635
0.000123618
0.000123634
0.000123614
0.000123621
0.000123635
0.000123622
0.000120153
0.000120074
0.000123631
0.000123643
0.000123634
0.000120166
0.000120152
0.000120089
0.000123629
0.000123607
0.00012363
0.000123607
0.000120107
0.000120071
0.000123634
0.000123615
0.000123634
0.000123615
0.000123621
0.000123634
0.000123623
0.000120087
0.000120096
0.000123631
0.000123643
0.000123633
0.000120129
0.000120107
0.000120091
0.000123632
0.000123607
0.000123626
0.000123606
0.000120051
0.000120149
0.000123634
0.000123614
0.000123634
0.000123617
0.000123622
0.000123633
0.000123623
0.000120058
0.000120171
0.000123632
0.000123646
0.000123633
0.000120094
0.000120066
0.000120136
0.000123628
0.000123605
0.000123628
0.00012361
0.000120101
0.000120178
0.000123634
0.000123614
0.000123634
0.000123618
0.000123622
0.000123635
0.000123622
0.000120122
0.000120181
0.000123633
0.000123647
0.000123632
0.000120078
0.000120092
0.000120179
0.000123626
0.000123608
0.00012363
0.000123607
0.000120175
0.000120102
0.000123634
0.000123619
0.000123635
0.000123614
0.000123622
0.000123634
0.000123621
0.000120182
0.000120087
0.000123634
0.000123642
0.000123632
0.000120091
0.000120138
0.000120178
0.000123629
0.00012361
0.000123628
0.000123605
0.000120129
0.000120073
0.000123634
0.000123617
0.000123635
0.000123614
0.000123622
0.000123633
0.000123621
0.000120108
0.000120094
0.000123632
0.000123643
0.000123632
0.000120122
0.000120156
0.000120173
0.000123628
0.000123608
0.000123629
0.000123605
0.000120081
0.000120084
0.000123635
0.000123615
0.000123635
0.000123615
0.000123621
0.000123632
0.000123621
0.000120069
0.000120116
0.000123632
0.000123643
0.000123632
0.000120144
0.000120152
0.000120174
0.000123627
0.000123605
0.000123631
0.000123609
0.000120057
0.000120122
0.000123635
0.000123615
0.000123635
0.000123615
0.000123621
0.000123632
0.000123622
0.000120078
0.000120138
0.000123632
0.000123643
0.000123632
0.000120142
0.000120145
0.000120173
0.000123629
0.000123607
0.000123628
0.000123606
0.00012008
0.000120157
0.000123634
0.000123615
0.000123634
0.000123615
0.000123622
0.000123634
0.000123621
0.000120095
0.000120153
0.000123632
0.000123643
0.000123633
0.000120122
0.000120139
0.00012018
0.000123629
0.000123607
0.000123628
0.000123606
0.000120112
0.000120164
0.000123633
0.000123615
0.000123634
0.000123615
0.000123622
0.000123634
0.000123621
0.000120108
0.000120166
0.000123633
0.000123643
0.000123632
0.000120112
0.000120147
0.000120183
0.000123627
0.000123605
0.000123631
0.000123608
0.000120126
0.000120168
0.000123633
0.000123614
0.000123635
0.000123616
0.000123621
0.000123633
0.000123622
0.000120121
0.000120179
0.000123633
0.000123644
0.000123632
0.000120128
0.000120167
0.000120166
0.000123627
0.000123605
0.00012363
0.000123608
0.000120132
0.000120172
0.000123634
0.000123615
0.000123635
0.000123616
0.000123621
0.000123634
0.000123623
0.000120143
0.000120178
0.000123632
0.000123644
0.000123633
0.000120146
0.000120168
0.000120145
0.00012363
0.000123607
0.000123628
0.000123606
0.000120145
0.000120167
0.000123634
0.000123615
0.000123634
0.000123616
0.000123621
0.000123633
0.000123622
0.000120156
0.000120175
0.000123632
0.000123644
0.000123633
0.000120151
0.000120155
0.00012015
0.000123629
0.000123606
0.000123628
0.000123606
0.000120149
0.000120167
0.000123634
0.000123615
0.000123634
0.000123616
0.000123621
0.000123633
0.000123621
0.00012016
0.000120171
0.000123633
0.000123644
0.000123633
0.000120138
0.000120155
0.000120165
0.000123628
0.000123606
0.000123629
0.000123608
0.000120154
0.00012016
0.000123634
0.000123616
0.000123634
0.000123615
0.000123621
0.000123633
0.000123621
0.000120163
0.000120164
0.000123633
0.000123643
0.000123632
0.000120117
0.00012016
0.000120172
0.000123629
0.000123608
0.000123628
0.000123606
0.000120155
0.000120153
0.000123634
0.000123615
0.000123635
0.000123616
0.000123621
0.000123633
0.000123621
0.000120159
0.000120165
0.000123632
0.000123643
0.000123632
0.000120112
0.000120159
0.000120177
0.000123628
0.000123606
0.000123628
0.000123605
0.00012015
0.000120157
0.000123634
0.000123616
0.000123635
0.000123616
0.000123621
0.000123633
0.000123621
0.000120159
0.000120167
0.000123632
0.000123643
0.000123632
0.000120111
0.000120167
0.000120164
0.000123628
0.000123606
0.000123628
0.000123606
0.000120144
0.000120163
0.000123635
0.000123616
0.000123634
0.000123615
0.000123622
0.000123632
0.000123621
0.000120159
0.000120168
0.000123632
0.000123643
0.000123632
0.000120123
0.000120165
0.000120147
0.000123628
0.000123606
0.000123627
0.000123606
0.000120137
0.000120172
0.000123634
0.000123615
0.000123633
0.000123615
0.000123621
0.000123633
0.000123622
0.000120159
0.000120169
0.000123632
0.000123643
0.000123632
0.000120132
0.000120155
0.000120149
0.000123628
0.000123606
0.000123627
0.000123606
0.000120144
0.000120169
0.000123634
0.000123615
0.000123633
0.000123615
0.000123621
0.000123633
0.000123621
0.000120165
0.000120157
0.000123632
0.000123643
0.000123632
0.000120118
0.000120155
0.000120157
0.000123628
0.000123606
0.000123627
0.000123605
0.000120153
0.000120161
0.000123634
0.000123616
0.000123633
0.000123614
0.000123622
0.000123631
0.000123619
0.000120162
0.000120145
0.000123632
0.000123643
0.000123632
0.000120112
0.000120159
0.000120162
0.000123628
0.000123606
0.000123627
0.000123605
0.000120152
0.000120158
0.000123634
0.000123616
0.000123633
0.000123614
0.000123621
0.000123631
0.00012362
0.000120153
0.000120151
0.000123633
0.000123643
0.000123632
0.000120114
0.000120159
0.00012017
0.000123628
0.000123606
0.000123627
0.000123605
0.000120151
0.000120156
0.000123634
0.000123616
0.000123632
0.000123614
0.000123621
0.000123632
0.00012362
0.000120154
0.00012016
0.000123633
0.000123643
0.00012363
0.000120114
0.000120157
0.000120175
0.000123628
0.000123607
0.000123627
0.000123605
0.000120148
0.000120161
0.000123634
0.000123616
0.000123633
0.000123614
0.000123622
0.000123632
0.00012362
0.000120157
0.000120166
0.000123633
0.000123643
0.000123631
0.000120121
0.000120158
0.000120172
0.000123629
0.000123607
0.000123627
0.000123605
0.000120149
0.000120165
0.000123635
0.000123616
0.000123632
0.000123614
0.000123622
0.000123632
0.00012362
0.000120159
0.000120169
0.000123633
0.000123644
0.000123631
0.000120122
0.000120159
0.00012017
0.00012363
0.000123608
0.000123627
0.000123605
0.000120158
0.00012015
0.000123636
0.000123617
0.000123632
0.000123614
0.000123623
0.000123632
0.00012362
0.00012016
0.00012017
0.000123635
0.000123644
0.00012363
0.000120109
0.000120158
0.000120173
0.000123631
0.00012361
0.000123627
0.000123605
0.000120155
0.000120134
0.000123636
0.000123618
0.000123633
0.000123615
0.000123625
0.000123632
0.00012362
0.000120161
0.000120166
0.000123634
0.000123644
0.000123631
0.000120109
0.000120162
0.000120173
0.000123632
0.000123611
0.000123629
0.000123607
0.000120143
0.000120149
0.000123638
0.00012362
0.000123635
0.000123616
0.000123626
0.000123634
0.000123622
0.000120162
0.00012016
0.000123636
0.000123645
0.000123633
0.000120128
0.000120168
0.000120161
0.000123635
0.000123614
0.000123632
0.000123609
0.000120148
0.000120166
0.000123641
0.000123623
0.000123637
0.000123619
0.000123628
0.000123637
0.000123625
0.000120159
0.000120164
0.000123639
0.000123648
0.000123635
0.000120132
0.000120166
0.000120157
0.000123641
0.000123619
0.000123636
0.000123614
0.000120154
0.000120163
0.000123646
0.000123628
0.000123643
0.000123624
0.000123634
0.000123642
0.00012363
0.000120162
0.000120164
0.000123644
0.000123654
0.00012364
0.00012012
0.00012016
0.00012017
0.000123649
0.000123626
0.000123648
0.000123627
0.000120152
0.000120167
0.000123655
0.000123637
0.000123654
0.000123635
0.000123643
0.000123653
0.000123641
0.000120167
0.000120154
0.000123653
0.000123665
0.000123651
0.000120118
0.000120164
0.00012018
0.000123664
0.000123642
0.000123666
0.000123645
0.000120156
0.000120174
0.000123669
0.000123652
0.000123671
0.000123654
0.000123658
0.000123671
0.000123659
0.000120162
0.000120158
0.000123668
0.000123682
0.000123668
0.000120119
0.000120166
0.000120126
0.000123642
0.000123622
0.000123862
0.000123838
0.000120163
0.00012012
0.000123647
0.00012363
0.000123868
0.000123847
0.000123635
0.00012387
0.000123855
0.000120157
0.000120123
0.000123644
0.000123881
0.000123865
0.000120106
0.000120287
0.000122739
0.000122717
0.000120284
0.000122745
0.000122725
0.000120939
0.000120945
0.000120943
0.000122732
0.000120286
0.000122742
7.21006e-05
1.20165e-05
4.90983e-05
4.91435e-05
5.3104e-07
2.3103e-06
1.37154e-06
3.0577e-05
5.87463e-07
2.86075e-06
3.06702e-05
1.60747e-06
2.39361e-06
1.86675e-06
1.6938e-06
1.06924e-06
1.35618e-05
9.75213e-07
1.53321e-05
1.08184e-05
1.31623e-05
9.83676e-07
1.35188e-05
8.86126e-07
1.531e-05
2.87882e-05
2.87509e-05
2.86837e-05
2.88572e-05
2.89172e-05
2.88729e-05
2.8787e-05
5.25022e-07
3.69373e-07
1.33707e-05
2.73202e-06
5.2227e-07
4.82286e-07
1.32664e-05
1.09959e-05
1.31908e-05
5.47895e-07
1.35552e-05
5.3137e-07
3.20519e-06
5.80001e-07
1.34607e-05
6.526e-07
1.51723e-06
1.49242e-06
2.36655e-06
1.71725e-06
1.70369e-06
1.17866e-06
1.85019e-05
1.20052e-06
2.09316e-05
1.72096e-05
1.93737e-05
1.24305e-06
1.86485e-05
1.14889e-06
2.10158e-05