/*--------------------------------*- C++ -*----------------------------------*\
| =========                 |                                                 |
| \\      /  F ield         | OpenFOAM: The Open Source CFD Toolbox           |
|  \\    /   O peration     | Version:  v2006                                 |
|   \\  /    A nd           | Website:  www.openfoam.com                      |
|    \\/     M anipulation  |                                                 |
\*---------------------------------------------------------------------------*/
FoamFile
{
    version     2.0;
    format      ascii;
    class       volScalarField;
    location    "875";
    object      epsilon;
}
// * * * * * * * * * * * * * * * * * * * * * * * * * * * * * * * * * * * * * //

dimensions      [0 2 -3 0 0 0 0];


internalField   nonuniform List<scalar> 
14374
(
1.16756e-06
1.18028e-06
1.38908e-06
1.1684e-06
1.17971e-06
1.43113e-06
6.8818e-07
6.90505e-07
9.48771e-06
3.58515e-06
3.67962e-06
9.70345e-06
1.89615e-05
5.56829e-06
5.59047e-06
1.90188e-05
9.30946e-07
3.60214e-06
2.25796e-06
9.323e-07
3.67035e-06
2.26444e-06
9.54074e-06
4.21427e-06
9.67574e-06
4.22559e-06
5.75789e-06
5.74875e-06
1.93821e-05
1.93585e-05
9.50072e-06
9.69226e-06
1.89824e-05
4.65896e-06
2.89424e-06
5.59488e-06
9.76121e-06
2.92242e-06
9.80724e-06
4.58711e-06
4.65356e-06
2.89873e-06
5.60785e-06
9.7757e-06
9.81567e-06
2.92461e-06
4.58385e-06
9.99937e-06
2.17413e-05
2.17467e-05
2.19248e-05
2.19293e-05
9.82341e-06
1.90337e-05
2.27031e-05
9.54475e-06
7.23663e-06
7.24894e-06
2.27081e-05
1.26909e-05
4.214e-06
4.8546e-06
1.1312e-05
4.85546e-06
1.13139e-05
1.26875e-05
2.2942e-05
9.66513e-06
7.32606e-06
7.32823e-06
2.29573e-05
1.27531e-05
4.2242e-06
4.89551e-06
1.13285e-05
4.89261e-06
1.13295e-05
1.27532e-05
4.90413e-06
3.03352e-06
5.7518e-06
1.01851e-05
4.90394e-06
3.032e-06
1.01812e-05
4.90808e-06
3.03154e-06
5.74312e-06
1.01804e-05
4.9079e-06
3.03026e-06
1.01768e-05
1.05704e-05
2.30554e-05
2.30541e-05
1.05809e-05
2.31179e-05
2.31169e-05
1.9383e-05
1.93592e-05
2.76803e-06
1.40172e-06
1.90696e-06
1.90799e-06
1.92586e-06
1.92621e-06
2.73333e-06
2.90894e-06
1.43192e-06
1.99198e-06
1.99168e-06
2.90836e-06
1.99172e-06
1.9915e-06
5.03625e-07
5.03674e-07
2.1623e-06
3.60185e-06
2.17613e-06
2.22734e-06
3.67703e-06
2.2256e-06
1.80923e-06
2.16789e-06
3.61131e-06
2.9773e-06
1.80252e-06
2.17837e-06
2.98267e-06
1.62807e-06
2.25896e-06
1.51088e-06
2.49533e-06
1.62303e-06
1.51409e-06
2.49771e-06
1.82904e-06
2.22368e-06
3.66793e-06
3.02064e-06
3.01899e-06
2.22241e-06
1.82881e-06
1.63746e-06
2.26438e-06
1.51461e-06
2.51828e-06
1.51644e-06
2.5172e-06
1.63638e-06
6.92344e-07
1.1963e-06
1.43123e-06
6.93007e-07
1.19553e-06
1.43327e-06
1.43693e-06
1.42779e-06
1.19865e-06
1.19644e-06
1.19596e-06
1.19481e-06
1.43154e-06
1.19879e-06
1.19792e-06
1.19611e-06
1.19643e-06
1.19653e-06
1.1962e-06
1.43448e-06
1.42924e-06
1.19653e-06
1.19632e-06
1.19637e-06
1.43095e-06
1.42855e-06
1.19433e-06
1.19424e-06
1.19522e-06
1.19622e-06
1.43039e-06
1.19635e-06
4.25948e-06
9.68259e-06
4.26145e-06
9.67622e-06
1.92678e-05
1.92505e-05
4.2651e-06
9.68739e-06
6.91628e-07
6.9215e-07
6.91785e-07
6.93009e-07
6.92547e-07
6.93251e-07
6.93372e-07
2.29529e-06
3.66565e-06
9.51088e-07
1.1952e-06
2.30064e-06
3.65287e-06
9.50556e-07
1.93006e-05
1.92898e-05
2.29926e-06
1.19757e-06
9.51265e-07
3.66689e-06
5.68006e-06
5.68183e-06
1.42862e-06
5.67083e-06
5.67541e-06
9.63026e-06
9.62636e-06
4.24426e-06
6.93077e-07
6.93316e-07
6.93572e-07
1.92375e-05
9.50552e-07
3.65753e-06
2.29652e-06
5.6903e-06
5.69276e-06
1.93106e-05
1.92889e-05
1.92978e-05
5.71038e-06
1.43416e-06
5.70294e-06
5.70824e-06
1.9231e-05
1.92679e-05
1.92295e-05
1.92753e-05
1.43511e-06
5.66338e-06
5.665e-06
5.69421e-06
5.69935e-06
4.25709e-06
9.66694e-06
4.25974e-06
9.64902e-06
2.30154e-06
3.6757e-06
9.51445e-07
1.19852e-06
2.30281e-06
3.67336e-06
9.51408e-07
2.29995e-06
3.66751e-06
9.51147e-07
1.19548e-06
2.30187e-06
3.65734e-06
9.50877e-07
4.25664e-06
9.63595e-06
9.66423e-06
4.24617e-06
4.25459e-06
9.63991e-06
9.64365e-06
4.24659e-06
2.30042e-06
1.19773e-06
3.65279e-06
9.50563e-07
3.67075e-06
9.51142e-07
2.29452e-06
2.29903e-06
1.19497e-06
3.65316e-06
9.50118e-07
3.65592e-06
9.50493e-07
2.29442e-06
5.68853e-06
5.68446e-06
1.42665e-06
5.67125e-06
5.66485e-06
1.92578e-05
1.92407e-05
1.92477e-05
1.42803e-06
5.66942e-06
5.66281e-06
1.92398e-05
2.30465e-06
9.51687e-07
1.1987e-06
3.67688e-06
9.51718e-07
4.26436e-06
9.67996e-06
4.26336e-06
9.67862e-06
2.30409e-06
9.51527e-07
3.67241e-06
1.19786e-06
2.30362e-06
9.51536e-07
3.67153e-06
4.26389e-06
9.63648e-06
9.67646e-06
4.24885e-06
2.30422e-06
1.19797e-06
3.65395e-06
9.5092e-07
3.6743e-06
9.51562e-07
2.29638e-06
4.26346e-06
9.64208e-06
9.67137e-06
4.24929e-06
2.30376e-06
1.19748e-06
9.50825e-07
3.65686e-06
9.51387e-07
3.67037e-06
2.29656e-06
4.24715e-06
9.65758e-06
4.25702e-06
9.63635e-06
2.29549e-06
9.51124e-07
3.663e-06
1.19616e-06
2.30046e-06
9.50737e-07
3.6548e-06
4.24753e-06
9.65532e-06
4.25668e-06
9.64092e-06
2.2942e-06
1.19469e-06
9.50038e-07
3.65155e-06
9.50232e-07
2.29307e-06
4.24539e-06
9.63353e-06
4.24501e-06
2.29453e-06
1.19612e-06
9.50333e-07
3.65815e-06
9.50498e-07
3.65473e-06
2.29367e-06
4.24598e-06
9.65273e-06
9.64012e-06
4.24591e-06
5.70214e-06
1.43236e-06
5.69926e-06
5.69138e-06
1.9281e-05
1.92476e-05
1.92764e-05
1.43367e-06
5.6737e-06
5.67496e-06
5.69526e-06
5.6883e-06
1.92561e-05
1.9271e-05
2.29855e-06
9.51193e-07
3.66403e-06
1.19631e-06
2.30066e-06
9.51073e-07
3.65812e-06
4.25472e-06
9.66384e-06
4.25355e-06
9.65867e-06
4.2572e-06
9.65095e-06
2.29899e-06
1.19708e-06
9.50812e-07
3.65824e-06
9.51111e-07
3.6659e-06
2.29665e-06
2.29829e-06
1.19632e-06
9.50715e-07
3.66111e-06
9.50909e-07
3.65831e-06
2.29687e-06
4.25382e-06
9.6513e-06
9.65895e-06
4.25067e-06
4.25303e-06
9.65899e-06
9.65067e-06
4.25137e-06
1.92606e-05
1.92568e-05
1.92673e-05
1.92662e-05
1.43087e-06
5.68316e-06
5.68728e-06
5.67122e-06
5.67624e-06
1.92855e-05
1.92588e-05
1.92872e-05
1.92678e-05
1.92237e-05
1.92188e-05
5.65879e-06
5.65866e-06
3.65017e-06
3.6499e-06
9.50018e-07
2.29375e-06
9.63368e-06
4.24504e-06
9.50097e-07
3.65447e-06
2.29405e-06
9.50236e-07
3.66232e-06
2.2947e-06
9.66e-06
4.24818e-06
5.66969e-06
5.67352e-06
1.92505e-05
9.50531e-07
3.66388e-06
2.29693e-06
9.64856e-06
4.25045e-06
9.66191e-06
4.25147e-06
1.92895e-05
1.92888e-05
1.27891e-05
4.26126e-06
1.1362e-05
4.91143e-06
1.13633e-05
4.91523e-06
1.2786e-05
2.30112e-05
7.3115e-06
9.68289e-06
2.30145e-05
7.31078e-06
1.27921e-05
4.26142e-06
1.1364e-05
4.91615e-06
1.27925e-05
1.13641e-05
4.91598e-06
2.29952e-05
7.2985e-06
9.68146e-06
7.30827e-06
2.29861e-05
1.92628e-05
1.92519e-05
1.27974e-05
4.26553e-06
4.91918e-06
1.13686e-05
4.92055e-06
1.13695e-05
1.27942e-05
2.30281e-05
9.69108e-06
7.31905e-06
1.27992e-05
4.26488e-06
4.92033e-06
1.13699e-05
2.3014e-05
7.31289e-06
9.6905e-06
7.31866e-06
2.30037e-05
1.93002e-05
1.92944e-05
9.97406e-06
2.25819e-05
2.25842e-05
2.25479e-05
2.25495e-05
9.99082e-06
4.70623e-06
2.97714e-06
1.00102e-05
5.67467e-06
4.70744e-06
2.97528e-06
1.00065e-05
4.7103e-06
2.97874e-06
1.00142e-05
5.67766e-06
4.71131e-06
2.97713e-06
1.00116e-05
9.96961e-06
2.25312e-05
2.25314e-05
9.97167e-06
2.25361e-05
2.25368e-05
4.70755e-06
1.00056e-05
5.67221e-06
2.97519e-06
2.97509e-06
1.00049e-05
4.71182e-06
4.71186e-06
1.00119e-05
5.67611e-06
2.97733e-06
2.97706e-06
1.00107e-05
4.71689e-06
2.29316e-05
7.26211e-06
9.62812e-06
2.29277e-05
7.26061e-06
2.29069e-05
7.257e-06
9.62075e-06
2.29065e-05
7.25163e-06
1.27525e-05
4.24017e-06
4.88807e-06
1.13438e-05
1.27549e-05
4.88376e-06
1.13413e-05
1.92364e-05
4.75407e-06
2.98988e-06
1.00465e-05
5.69362e-06
4.75411e-06
2.99047e-06
1.00494e-05
4.75972e-06
2.99168e-06
1.00521e-05
5.69472e-06
4.75976e-06
2.99199e-06
1.00541e-05
1.01228e-05
2.26915e-05
2.26924e-05
1.0121e-05
2.26859e-05
2.26862e-05
1.93083e-05
1.92975e-05
1.93173e-05
1.93069e-05
1.00842e-05
2.25797e-05
2.25827e-05
2.26226e-05
2.26248e-05
1.00451e-05
4.76096e-06
2.99989e-06
1.00743e-05
5.71032e-06
4.76468e-06
1.00734e-05
2.99941e-06
4.76519e-06
3.00176e-06
5.71377e-06
1.00787e-05
3.00135e-06
1.01145e-05
2.26773e-05
2.26795e-05
4.75187e-06
1.00513e-05
5.7093e-06
2.9925e-06
1.00667e-05
4.73674e-06
2.99783e-06
4.75668e-06
1.00584e-05
5.71329e-06
2.99492e-06
1.0073e-05
4.74169e-06
3e-06
1.9237e-05
1.92557e-05
1.92386e-05
1.92611e-05
9.98344e-06
2.25256e-05
2.25284e-05
1.00117e-05
2.24969e-05
2.25003e-05
4.70085e-06
2.96868e-06
5.67231e-06
9.98185e-06
9.99353e-06
2.97411e-06
4.69358e-06
4.70616e-06
2.97015e-06
5.67545e-06
9.98662e-06
9.99948e-06
2.97611e-06
4.69887e-06
4.7097e-06
1.00302e-05
2.98699e-06
5.68143e-06
4.72384e-06
1.00116e-05
2.9798e-06
4.71504e-06
1.00373e-05
2.98944e-06
5.6862e-06
4.729e-06
1.00186e-05
2.98207e-06
9.96578e-06
2.24649e-05
2.24676e-05
2.24711e-05
2.24739e-05
9.95406e-06
1.27807e-05
4.25916e-06
1.13598e-05
4.90349e-06
1.13609e-05
4.90694e-06
1.27786e-05
2.29824e-05
7.29594e-06
9.66204e-06
2.29857e-05
7.28988e-06
1.2784e-05
4.25957e-06
1.13618e-05
4.91017e-06
1.13618e-05
1.27848e-05
4.90913e-06
2.29693e-05
7.27743e-06
9.65451e-06
7.28442e-06
2.29657e-05
1.27738e-05
1.13584e-05
4.90653e-06
4.25258e-06
1.27784e-05
1.13557e-05
4.90036e-06
2.29334e-05
9.64316e-06
7.2641e-06
2.29319e-05
7.2707e-06
2.29511e-05
7.28927e-06
9.65409e-06
2.29611e-05
7.27725e-06
1.2767e-05
4.24927e-06
1.13499e-05
4.89153e-06
1.27647e-05
1.13515e-05
4.89565e-06
1.27724e-05
1.13566e-05
4.90049e-06
4.25134e-06
1.27738e-05
1.13547e-05
4.89751e-06
2.2955e-05
9.63977e-06
7.26908e-06
7.26935e-06
2.29597e-05
2.29576e-05
7.27354e-06
9.64116e-06
2.29564e-05
7.27012e-06
1.27702e-05
4.24883e-06
1.13509e-05
4.89435e-06
1.13516e-05
4.89566e-06
1.27703e-05
9.95198e-06
2.24986e-05
2.24951e-05
2.24927e-05
2.24901e-05
9.94863e-06
4.70582e-06
2.98055e-06
1.00171e-05
5.68087e-06
1.00078e-05
4.71361e-06
2.97616e-06
4.69971e-06
2.9791e-06
1.00116e-05
5.67568e-06
2.9743e-06
4.70765e-06
1.00008e-05
9.96091e-06
2.2508e-05
2.25075e-05
2.24988e-05
9.97848e-06
2.24971e-05
4.70254e-06
9.99631e-06
5.67627e-06
2.97156e-06
9.99969e-06
2.97366e-06
4.70084e-06
4.6959e-06
9.98791e-06
5.66989e-06
2.96897e-06
2.97123e-06
9.9918e-06
4.69409e-06
1.92511e-05
1.92415e-05
1.925e-05
9.96452e-06
2.25119e-05
2.25084e-05
9.95138e-06
2.25487e-05
2.25459e-05
4.70486e-06
9.99496e-06
2.97122e-06
5.66804e-06
2.97115e-06
4.70167e-06
9.99584e-06
4.69776e-06
9.9865e-06
2.96848e-06
5.66205e-06
4.69468e-06
9.98749e-06
2.96848e-06
1.92447e-05
1.27941e-05
4.26477e-06
1.13676e-05
4.91684e-06
1.13684e-05
4.91775e-06
1.2792e-05
2.3017e-05
7.30924e-06
9.68088e-06
2.30168e-05
7.30976e-06
1.27955e-05
4.26395e-06
1.13678e-05
4.9166e-06
1.13687e-05
1.2795e-05
4.9172e-06
2.30075e-05
7.30629e-06
9.68051e-06
7.30986e-06
2.30007e-05
1.27792e-05
4.91523e-06
1.1365e-05
4.25946e-06
1.27857e-05
4.90778e-06
1.13613e-05
2.2929e-05
9.64802e-06
7.26366e-06
2.29207e-05
7.27528e-06
2.296e-05
7.30239e-06
9.66316e-06
2.29756e-05
7.28711e-06
1.27681e-05
4.25473e-06
4.89345e-06
1.13496e-05
1.2762e-05
4.90077e-06
1.13541e-05
1.27807e-05
1.13645e-05
4.91449e-06
4.25942e-06
1.27856e-05
1.13614e-05
4.90801e-06
2.29405e-05
9.65062e-06
7.26759e-06
7.27792e-06
2.2933e-05
2.29679e-05
7.29924e-06
9.66221e-06
2.29791e-05
7.28703e-06
1.27706e-05
4.25519e-06
1.13503e-05
4.89532e-06
1.13545e-05
4.90234e-06
1.27654e-05
1.2767e-05
4.25007e-06
4.89186e-06
1.13501e-05
4.89549e-06
1.13514e-05
1.27657e-05
2.29497e-05
7.28438e-06
9.64925e-06
7.27303e-06
2.29565e-05
1.27722e-05
4.25333e-06
4.90531e-06
1.13571e-05
4.89962e-06
1.27758e-05
1.1355e-05
2.29368e-05
7.2617e-06
9.64102e-06
7.26741e-06
2.29382e-05
1.27696e-05
4.25018e-06
1.13506e-05
4.89379e-06
1.13517e-05
4.89634e-06
1.2769e-05
2.29586e-05
7.27977e-06
9.64882e-06
2.29628e-05
7.27169e-06
1.27736e-05
4.25322e-06
1.13569e-05
4.90433e-06
1.27764e-05
1.1355e-05
4.89978e-06
2.29502e-05
7.26477e-06
9.64322e-06
7.26753e-06
2.29528e-05
1.27658e-05
4.89033e-06
1.1349e-05
4.24453e-06
1.27647e-05
4.88964e-06
1.13493e-05
2.29464e-05
7.26066e-06
9.63327e-06
2.29371e-05
7.26016e-06
1.27678e-05
4.24452e-06
4.8921e-06
1.13535e-05
4.89026e-06
1.13501e-05
1.27741e-05
1.27703e-05
1.13497e-05
4.89277e-06
4.24528e-06
1.27685e-05
1.135e-05
4.89256e-06
2.29681e-05
9.64406e-06
7.27903e-06
7.27232e-06
2.2985e-05
2.29627e-05
7.2648e-06
9.64084e-06
2.29529e-05
7.26591e-06
1.27725e-05
4.24533e-06
1.13545e-05
4.89592e-06
1.1351e-05
4.89348e-06
1.27785e-05
1.00575e-05
2.25986e-05
2.25945e-05
2.26132e-05
2.26105e-05
1.00401e-05
2.99306e-06
5.70209e-06
2.99281e-06
4.74512e-06
1.00472e-05
5.7021e-06
2.9902e-06
1.00529e-05
2.99245e-06
4.73814e-06
4.73876e-06
1.00376e-05
5.69591e-06
2.98712e-06
2.99005e-06
1.00438e-05
4.73118e-06
1.92842e-05
1.92528e-05
1.92694e-05
1.00173e-05
2.25687e-05
2.25664e-05
1.00296e-05
2.25595e-05
2.25571e-05
4.72397e-06
2.9775e-06
5.68124e-06
1.00089e-05
2.98139e-06
1.0016e-05
4.71881e-06
4.7175e-06
2.97657e-06
5.6796e-06
1.00061e-05
1.00106e-05
2.97965e-06
4.71267e-06
4.72709e-06
1.00358e-05
2.98808e-06
5.68698e-06
2.98408e-06
4.73397e-06
1.00274e-05
4.72016e-06
1.00265e-05
2.98519e-06
5.68199e-06
4.72708e-06
1.00197e-05
2.98154e-06
1.00121e-05
2.25376e-05
2.25372e-05
2.25413e-05
2.25407e-05
1.00049e-05
1.92581e-05
1.92672e-05
1.27827e-05
4.25648e-06
4.90451e-06
1.13596e-05
4.90737e-06
1.136e-05
1.27816e-05
2.29788e-05
7.28704e-06
9.66618e-06
7.29247e-06
2.29764e-05
1.27791e-05
4.25514e-06
4.90123e-06
1.13587e-05
4.90238e-06
1.13589e-05
1.27791e-05
2.29768e-05
7.28382e-06
9.65511e-06
2.29771e-05
7.27962e-06
1.2781e-05
4.25582e-06
4.90555e-06
1.13597e-05
1.27817e-05
4.90338e-06
1.13597e-05
2.29727e-05
7.27734e-06
9.65188e-06
7.27833e-06
2.29755e-05
1.27777e-05
4.90344e-06
1.13582e-05
4.25229e-06
1.27785e-05
4.90114e-06
1.13578e-05
2.29621e-05
9.65276e-06
7.28081e-06
7.28246e-06
2.29629e-05
2.29674e-05
7.28595e-06
9.6568e-06
2.29676e-05
7.28263e-06
1.27754e-05
4.25173e-06
4.89911e-06
1.13564e-05
4.90057e-06
1.13566e-05
1.2775e-05
1.27793e-05
4.90116e-06
1.13578e-05
4.25198e-06
1.27786e-05
4.90098e-06
1.13577e-05
2.29796e-05
9.65414e-06
7.28685e-06
7.28389e-06
2.29854e-05
2.29795e-05
7.27805e-06
9.65155e-06
2.29743e-05
7.27935e-06
1.27793e-05
4.25189e-06
4.90208e-06
1.13574e-05
4.90179e-06
1.13573e-05
1.27804e-05
1.92582e-05
1.92547e-05
1.92661e-05
1.92638e-05
1.00562e-05
2.26091e-05
2.26115e-05
1.00254e-05
2.26504e-05
2.26518e-05
4.74399e-06
2.98731e-06
5.67853e-06
1.0041e-05
4.74978e-06
2.9846e-06
1.0031e-05
4.74976e-06
2.98956e-06
5.68361e-06
1.00476e-05
4.7557e-06
2.98705e-06
1.00384e-05
4.73266e-06
1.00094e-05
2.97748e-06
5.67283e-06
4.72337e-06
2.98039e-06
1.00208e-05
4.7385e-06
1.00168e-05
2.97999e-06
5.67825e-06
4.7288e-06
2.98303e-06
1.00288e-05
1.00884e-05
2.26906e-05
2.26915e-05
1.01075e-05
2.26725e-05
2.26741e-05
1.92731e-05
1.92681e-05
1.92786e-05
1.92754e-05
1.92241e-05
1.92178e-05
4.6896e-06
2.96562e-06
9.97351e-06
5.65533e-06
4.69088e-06
9.97059e-06
2.96339e-06
4.69465e-06
2.96664e-06
9.97691e-06
5.65386e-06
4.69601e-06
9.97295e-06
2.96384e-06
9.95074e-06
2.24623e-05
2.24644e-05
9.95057e-06
2.24718e-05
2.24732e-05
2.29181e-05
7.26199e-06
9.6289e-06
2.29183e-05
7.25633e-06
1.27561e-05
4.24078e-06
1.13446e-05
4.89054e-06
1.13421e-05
1.27584e-05
4.88589e-06
2.30043e-05
7.28951e-06
9.66742e-06
2.29909e-05
7.29523e-06
1.2787e-05
4.25025e-06
1.13569e-05
4.89998e-06
1.27816e-05
1.13611e-05
4.90308e-06
4.71314e-06
2.97532e-06
1.00006e-05
5.66492e-06
9.99634e-06
4.71685e-06
2.97227e-06
4.7081e-06
2.97531e-06
9.99987e-06
5.6705e-06
2.97292e-06
4.71124e-06
9.99741e-06
9.99942e-06
2.25284e-05
2.25294e-05
2.25273e-05
1.00029e-05
2.2529e-05
1.92498e-05
2.296e-05
7.28113e-06
9.6477e-06
7.28028e-06
2.29585e-05
1.27733e-05
4.24979e-06
4.89899e-06
1.13556e-05
4.89813e-06
1.27735e-05
1.13555e-05
2.29875e-05
7.29206e-06
9.66483e-06
2.29848e-05
7.29373e-06
1.27809e-05
4.2512e-06
4.90329e-06
1.1357e-05
1.27804e-05
4.90335e-06
1.13572e-05
1.92954e-05
1.92917e-05
4.94509e-07
4.94548e-07
6.92734e-07
4.95166e-07
4.95229e-07
3.00143e-07
2.99013e-07
2.82532e-06
1.97099e-06
1.97164e-06
1.42889e-06
2.82633e-06
1.969e-06
1.96964e-06
4.97063e-07
4.97003e-07
3.03547e-07
2.84709e-06
1.97697e-06
1.97763e-06
1.43169e-06
2.84743e-06
1.97638e-06
1.97699e-06
2.85327e-06
1.9833e-06
1.98415e-06
1.43537e-06
2.85503e-06
1.98212e-06
1.98297e-06
2.82326e-06
1.432e-06
1.96484e-06
1.96545e-06
1.97026e-06
1.97104e-06
2.81767e-06
2.82186e-06
1.97218e-06
1.97208e-06
1.42836e-06
1.9679e-06
2.82686e-06
1.96823e-06
1.97883e-06
1.43285e-06
1.97779e-06
2.83136e-06
1.4322e-06
1.96955e-06
1.96935e-06
1.97295e-06
1.97245e-06
2.82753e-06
2.84306e-06
1.4323e-06
1.97473e-06
1.9755e-06
2.84543e-06
1.97471e-06
1.97549e-06
2.81359e-06
1.96416e-06
1.96466e-06
1.42477e-06
2.8156e-06
1.9609e-06
1.96117e-06
2.82358e-06
1.96931e-06
1.96928e-06
1.42732e-06
1.96652e-06
2.82649e-06
1.96623e-06
4.94452e-07
4.94374e-07
6.91788e-07
4.9507e-07
4.95012e-07
3.00183e-07
2.9903e-07
4.94598e-07
4.94506e-07
6.92565e-07
4.95279e-07
4.95218e-07
3.0023e-07
2.9909e-07
4.94501e-07
4.94506e-07
6.92281e-07
4.95203e-07
4.95247e-07
3.00269e-07
2.99089e-07
6.92957e-07
4.96445e-07
4.96451e-07
4.9584e-07
4.959e-07
3.01294e-07
3.02422e-07
6.92104e-07
4.9632e-07
4.96358e-07
4.95721e-07
4.95705e-07
3.01334e-07
3.02437e-07
6.92948e-07
4.96523e-07
4.96601e-07
4.95954e-07
4.95946e-07
3.01376e-07
3.02489e-07
6.92888e-07
4.96586e-07
4.9661e-07
4.9593e-07
4.95978e-07
3.01432e-07
3.02532e-07
1.66733e-06
2.29716e-06
2.53853e-06
1.5462e-06
2.54082e-06
1.54834e-06
1.66434e-06
1.84818e-06
2.22784e-06
3.03258e-06
3.65996e-06
1.85157e-06
2.22406e-06
3.02774e-06
1.66644e-06
2.2987e-06
2.54571e-06
1.54988e-06
1.66947e-06
2.54299e-06
1.54775e-06
1.84868e-06
3.02186e-06
3.65702e-06
2.21986e-06
2.22317e-06
3.0253e-06
1.84539e-06
1.66941e-06
2.3003e-06
1.54795e-06
2.54519e-06
1.54943e-06
2.54659e-06
1.6673e-06
1.85249e-06
3.03296e-06
3.66871e-06
2.22865e-06
2.23023e-06
3.035e-06
1.85037e-06
2.82616e-06
1.43042e-06
1.96917e-06
1.96987e-06
1.96969e-06
1.97035e-06
2.82782e-06
4.96948e-07
4.97014e-07
3.03519e-07
4.9709e-07
4.97208e-07
3.03593e-07
4.97202e-07
4.97181e-07
3.03593e-07
1.84552e-06
2.22275e-06
3.02734e-06
3.65525e-06
1.84812e-06
2.22035e-06
3.02546e-06
1.66391e-06
2.2956e-06
1.54724e-06
2.54123e-06
1.66633e-06
1.54556e-06
2.54004e-06
2.85009e-06
1.43706e-06
1.97842e-06
1.97931e-06
2.84228e-06
1.98208e-06
1.98295e-06
2.82825e-06
1.43124e-06
1.97722e-06
1.97811e-06
2.8367e-06
1.9718e-06
1.97265e-06
1.67149e-06
2.30272e-06
2.54876e-06
1.54881e-06
2.55058e-06
1.5506e-06
1.66896e-06
1.85405e-06
2.23474e-06
3.04154e-06
3.67568e-06
3.04125e-06
1.85516e-06
2.23422e-06
1.66997e-06
2.30271e-06
2.5508e-06
1.55063e-06
2.55066e-06
1.67138e-06
1.54963e-06
1.85541e-06
3.03822e-06
3.67577e-06
2.23242e-06
3.04122e-06
2.2345e-06
1.85285e-06
1.66859e-06
2.30131e-06
2.54368e-06
1.54789e-06
2.54544e-06
1.54971e-06
1.66607e-06
1.84929e-06
2.22813e-06
3.03552e-06
3.66375e-06
1.85197e-06
3.03265e-06
2.22517e-06
1.66747e-06
2.30151e-06
2.54757e-06
1.55023e-06
1.66982e-06
2.54639e-06
1.54896e-06
1.85002e-06
3.02749e-06
3.66167e-06
2.22176e-06
3.03113e-06
1.8472e-06
2.22462e-06
1.66664e-06
2.54677e-06
1.54944e-06
2.29829e-06
1.66983e-06
2.54365e-06
1.54731e-06
1.84983e-06
2.21985e-06
3.65935e-06
3.02215e-06
2.22517e-06
3.02696e-06
1.84566e-06
1.84957e-06
3.03577e-06
2.23141e-06
3.66366e-06
2.22694e-06
1.85333e-06
3.03003e-06
1.66744e-06
2.29667e-06
2.53819e-06
1.54558e-06
2.5411e-06
1.54788e-06
1.66404e-06
1.66454e-06
2.54229e-06
1.54858e-06
2.29725e-06
1.66714e-06
2.54052e-06
1.54664e-06
1.84621e-06
2.22023e-06
3.65355e-06
3.02222e-06
3.02313e-06
2.22065e-06
1.84426e-06
1.84532e-06
3.02601e-06
2.22166e-06
3.65368e-06
1.84792e-06
3.02354e-06
2.22012e-06
1.66562e-06
2.29605e-06
2.5383e-06
1.54527e-06
2.53942e-06
1.54729e-06
1.66321e-06
2.82004e-06
1.42949e-06
1.96549e-06
1.96494e-06
1.96756e-06
1.96799e-06
2.81853e-06
2.81985e-06
1.42598e-06
1.966e-06
1.96541e-06
1.96522e-06
2.81898e-06
1.96463e-06
1.67265e-06
2.30502e-06
2.55232e-06
1.5505e-06
2.55323e-06
1.55169e-06
1.67065e-06
1.85509e-06
2.23591e-06
3.67818e-06
3.04431e-06
1.85606e-06
2.23551e-06
1.67079e-06
2.30459e-06
1.55116e-06
2.55291e-06
1.67203e-06
1.55036e-06
1.85672e-06
3.04278e-06
3.6786e-06
2.23407e-06
3.04469e-06
2.23589e-06
1.85451e-06
1.6715e-06
2.3044e-06
1.55015e-06
2.55055e-06
1.55131e-06
2.55126e-06
1.6696e-06
1.85292e-06
2.23185e-06
3.0401e-06
3.67232e-06
1.85401e-06
3.04004e-06
2.23135e-06
1.66973e-06
2.30397e-06
1.55084e-06
2.55059e-06
1.67104e-06
1.55002e-06
2.55085e-06
1.85447e-06
3.03895e-06
3.67277e-06
2.23054e-06
3.04052e-06
1.85256e-06
2.2318e-06
1.66812e-06
2.55081e-06
1.55118e-06
2.30191e-06
1.67157e-06
2.54718e-06
1.5489e-06
1.85105e-06
2.22088e-06
3.66181e-06
3.02278e-06
2.22673e-06
3.02938e-06
1.8462e-06
1.85094e-06
3.04022e-06
2.23311e-06
3.66702e-06
2.22866e-06
1.85498e-06
3.03374e-06
1.66878e-06
2.2997e-06
2.5396e-06
1.54649e-06
2.54384e-06
1.54933e-06
1.66477e-06
1.66757e-06
1.55086e-06
2.54964e-06
2.30172e-06
1.67062e-06
1.54869e-06
2.54664e-06
1.85051e-06
2.22318e-06
3.66304e-06
3.0242e-06
3.02978e-06
2.22703e-06
1.84669e-06
1.85005e-06
3.03763e-06
2.23047e-06
3.66589e-06
1.85327e-06
3.03269e-06
2.22787e-06
1.66838e-06
2.29967e-06
1.54649e-06
2.54033e-06
1.54917e-06
2.54403e-06
1.66487e-06
1.6674e-06
2.29719e-06
1.5463e-06
2.53929e-06
1.54833e-06
2.54102e-06
1.66473e-06
1.84805e-06
2.22665e-06
3.03084e-06
3.65865e-06
2.22389e-06
1.85101e-06
3.02689e-06
1.66643e-06
2.29862e-06
1.54981e-06
2.54513e-06
1.54773e-06
1.66927e-06
2.5428e-06
1.84874e-06
3.02303e-06
3.65687e-06
2.22222e-06
2.22378e-06
3.02518e-06
1.84616e-06
1.66281e-06
2.53737e-06
1.54682e-06
2.29327e-06
1.66532e-06
2.5365e-06
1.54495e-06
1.84365e-06
3.02097e-06
2.21975e-06
3.65021e-06
1.84606e-06
2.21836e-06
3.01989e-06
1.66406e-06
2.29316e-06
2.53691e-06
1.54437e-06
1.66227e-06
2.53667e-06
1.54572e-06
1.66364e-06
1.54694e-06
2.53856e-06
2.29373e-06
1.66582e-06
1.54518e-06
2.53805e-06
1.84684e-06
2.22412e-06
3.65667e-06
3.02579e-06
3.02432e-06
2.22407e-06
1.84596e-06
1.84535e-06
3.02289e-06
2.22284e-06
3.65467e-06
1.84709e-06
3.02253e-06
2.22248e-06
1.66499e-06
2.2937e-06
1.54469e-06
2.53918e-06
1.54599e-06
2.53853e-06
1.66337e-06
2.84255e-06
1.43459e-06
1.97604e-06
1.97538e-06
1.97761e-06
1.97817e-06
2.83912e-06
2.83295e-06
1.43097e-06
1.97611e-06
1.97545e-06
1.97326e-06
2.83747e-06
1.97264e-06
1.66818e-06
2.29947e-06
1.54758e-06
2.54275e-06
1.54908e-06
2.54367e-06
1.66603e-06
1.84875e-06
2.22708e-06
3.03201e-06
3.66055e-06
2.22483e-06
1.85118e-06
3.02934e-06
1.66697e-06
2.29973e-06
1.54982e-06
2.54553e-06
1.54826e-06
1.66925e-06
2.54426e-06
1.84966e-06
3.02732e-06
3.65955e-06
2.2237e-06
2.22489e-06
3.02872e-06
1.84755e-06
1.66631e-06
1.54877e-06
2.54477e-06
2.2979e-06
1.66853e-06
1.54724e-06
2.54327e-06
1.84987e-06
2.22301e-06
3.66131e-06
3.02755e-06
1.84732e-06
2.22577e-06
3.02977e-06
1.84902e-06
3.03261e-06
2.22859e-06
3.66248e-06
1.85132e-06
2.22617e-06
3.03016e-06
1.66749e-06
2.29766e-06
1.54646e-06
2.54149e-06
1.66517e-06
1.54804e-06
2.54282e-06
1.66534e-06
1.5484e-06
2.54255e-06
2.29752e-06
1.66729e-06
1.54693e-06
2.54211e-06
1.84848e-06
2.22571e-06
3.66019e-06
3.02901e-06
3.02861e-06
2.22576e-06
1.84744e-06
1.84701e-06
3.02749e-06
2.22447e-06
3.65837e-06
1.84863e-06
3.02715e-06
2.22417e-06
1.66671e-06
2.29748e-06
1.5464e-06
2.54238e-06
1.54778e-06
2.54244e-06
1.665e-06
2.83746e-06
1.42961e-06
1.97144e-06
1.97222e-06
2.83361e-06
1.9716e-06
1.97241e-06
1.8423e-06
2.21865e-06
3.02039e-06
3.64679e-06
3.01792e-06
1.84592e-06
2.21514e-06
1.84157e-06
2.21926e-06
3.01918e-06
3.64516e-06
3.01491e-06
1.84615e-06
2.21487e-06
1.66122e-06
2.29083e-06
2.53629e-06
1.54675e-06
2.53308e-06
1.66528e-06
1.54367e-06
1.84318e-06
2.22225e-06
3.02169e-06
3.65007e-06
1.847e-06
3.01766e-06
2.21871e-06
1.66186e-06
2.29123e-06
1.5468e-06
2.53751e-06
1.66554e-06
1.54384e-06
2.53445e-06
1.84756e-06
2.22619e-06
3.0296e-06
3.66385e-06
2.22613e-06
1.84844e-06
3.03109e-06
1.66425e-06
2.29546e-06
1.54577e-06
2.54105e-06
1.54491e-06
1.66539e-06
2.54219e-06
1.84823e-06
2.22734e-06
3.03095e-06
3.66448e-06
2.22708e-06
1.84937e-06
3.03106e-06
1.66512e-06
2.29633e-06
1.54728e-06
2.54288e-06
1.54587e-06
1.66663e-06
2.54278e-06
9.68989e-06
4.26415e-06
1.93191e-05
5.71352e-06
3.67795e-06
2.3042e-06
7.31858e-06
2.30299e-05
4.91963e-06
1.1369e-05
1.27989e-05
1.00794e-05
4.76836e-06
2.2706e-05
2.27079e-05
1.01269e-05
3.04417e-06
2.55256e-06
1.90532e-05
1.41471e-06
5.62419e-06
5.624e-06
1.90811e-05
2.26118e-06
1.17651e-06
9.34083e-07
3.61977e-06
4.21399e-06
9.55673e-06
1.90345e-05
1.01048e-05
2.2218e-05
2.22182e-05
1.01297e-05
2.21247e-05
2.21266e-05
4.70482e-06
9.89377e-06
2.95293e-06
5.60532e-06
2.93847e-06
4.73046e-06
9.86782e-06
4.69674e-06
9.88808e-06
2.94897e-06
5.61373e-06
4.71998e-06
9.86706e-06
2.93745e-06
1.90709e-05
1.2698e-05
4.85675e-06
1.13193e-05
4.21337e-06
1.27009e-05
4.85488e-06
1.13168e-05
2.27475e-05
7.24849e-06
9.5535e-06
2.27397e-05
7.24098e-06
1.27531e-05
4.22062e-06
4.88436e-06
1.13305e-05
2.29631e-05
9.65443e-06
7.29791e-06
1.93628e-05
2.7937e-06
1.40488e-06
1.94641e-06
1.94516e-06
1.93506e-06
2.81146e-06
1.93452e-06
1.62791e-06
1.51789e-06
2.5014e-06
2.25915e-06
1.6336e-06
1.51394e-06
2.49835e-06
1.80998e-06
2.98751e-06
2.18936e-06
3.61293e-06
1.8165e-06
2.18198e-06
2.98321e-06
2.2634e-06
2.51339e-06
6.95104e-07
9.44424e-07
1.2009e-06
1.45025e-06
6.94795e-07
1.18299e-06
1.18875e-06
1.40342e-06
1.96642e-05
5.77711e-06
9.37222e-07
9.3953e-07
9.86633e-06
1.444e-06
3.75758e-06
2.32948e-06
1.19572e-06
1.18993e-06
5.85045e-06
1.43051e-06
2.33506e-06
2.33599e-06
1.19628e-06
1.19732e-06
1.19417e-06
4.33387e-06
1.18736e-06
1.17538e-06
1.4634e-06
1.44099e-06
9.45192e-07
9.92782e-06
1.19549e-06
1.17674e-06
1.95819e-05
1.40139e-06
1.44214e-06
1.18912e-06
1.18522e-06
1.43001e-06
1.18963e-06
1.19075e-06
1.17422e-06
1.43852e-06
1.17529e-06
3.7398e-06
2.31883e-06
5.83946e-06
2.32281e-06
9.79834e-06
3.68098e-06
9.42053e-07
1.19492e-06
4.32782e-06
1.45122e-06
1.96817e-05
9.95329e-06
4.33632e-06
4.35332e-06
9.95365e-06
1.9694e-05
1.95781e-05
4.34481e-06
9.96556e-06
4.36562e-06
9.96887e-06
5.04187e-07
5.04051e-07
5.03862e-07
6.96506e-07
6.94677e-07
6.97376e-07
6.90766e-07
1.19595e-06
2.33068e-06
3.7462e-06
2.32503e-06
1.19595e-06
3.72782e-06
9.4479e-07
1.97915e-05
1.96635e-05
9.46185e-07
2.33929e-06
3.77238e-06
1.20203e-06
2.33956e-06
9.47281e-07
3.76453e-06
5.84533e-06
5.83948e-06
1.4219e-06
5.69639e-06
5.70759e-06
4.24545e-06
9.70572e-06
4.28514e-06
9.61098e-06
1.92785e-05
1.92108e-05
4.23071e-06
9.69512e-06
4.28323e-06
9.59289e-06
6.93155e-07
6.96236e-07
6.90409e-07
2.26803e-06
3.6569e-06
9.37206e-07
1.1782e-06
2.27651e-06
3.64447e-06
9.34329e-07
1.92115e-05
1.9101e-05
2.26302e-06
9.4105e-07
3.65892e-06
1.18206e-06
2.28282e-06
9.36893e-07
3.62116e-06
5.60724e-06
5.61245e-06
1.41286e-06
5.66825e-06
5.66438e-06
1.97949e-05
1.42821e-06
1.45415e-06
5.87862e-06
5.8829e-06
5.78885e-06
1.97911e-05
1.96845e-05
1.18461e-06
1.19493e-06
9.42457e-07
2.29132e-06
3.76013e-06
3.69382e-06
2.33282e-06
9.43179e-07
1.19494e-06
3.72157e-06
1.1924e-06
3.75222e-06
2.29458e-06
2.33148e-06
4.27521e-06
9.96769e-06
9.83441e-06
4.34019e-06
9.93091e-06
4.27874e-06
4.33725e-06
1.97586e-05
1.96686e-05
1.97709e-05
1.96796e-05
5.87477e-06
5.88035e-06
1.45803e-06
1.4597e-06
5.8723e-06
5.87882e-06
1.93711e-05
1.95735e-05
1.93663e-05
1.9581e-05
1.46044e-06
5.75524e-06
5.7544e-06
5.85572e-06
5.86186e-06
4.33416e-06
9.93005e-06
4.34975e-06
9.91296e-06
2.33046e-06
1.19806e-06
9.44293e-07
2.34064e-06
1.20022e-06
3.76472e-06
9.46342e-07
3.7479e-06
1.19569e-06
9.44107e-07
2.33864e-06
1.19646e-06
3.74381e-06
9.45799e-07
4.35065e-06
9.75886e-06
9.90877e-06
4.30244e-06
4.34665e-06
9.72404e-06
9.85877e-06
4.29919e-06
2.33951e-06
1.19976e-06
3.70535e-06
9.45017e-07
3.75937e-06
9.46534e-07
2.31321e-06
2.33728e-06
1.19513e-06
3.68158e-06
9.43982e-07
3.73562e-06
9.45825e-07
2.31099e-06
1.45215e-06
5.84873e-06
1.44763e-06
5.82205e-06
5.79971e-06
1.96737e-05
1.95254e-05
1.93311e-05
1.94872e-05
1.44735e-06
5.71509e-06
5.69463e-06
5.79801e-06
5.77346e-06
1.92968e-05
1.94318e-05
3.76192e-06
1.19833e-06
9.44918e-07
2.34755e-06
1.20061e-06
3.77022e-06
9.47311e-07
4.34604e-06
9.97876e-06
4.36588e-06
9.97087e-06
9.45537e-07
1.20063e-06
3.77142e-06
2.34802e-06
1.20236e-06
9.4793e-07
3.77492e-06
4.36378e-06
9.75482e-06
9.9259e-06
4.30633e-06
2.34696e-06
1.20022e-06
3.70576e-06
9.46434e-07
3.76475e-06
9.47665e-07
2.3185e-06
4.36385e-06
9.72503e-06
9.91721e-06
4.30396e-06
2.34734e-06
1.20174e-06
9.47083e-07
3.68847e-06
9.48282e-07
3.76645e-06
2.31768e-06
4.33519e-06
9.91993e-06
4.32325e-06
9.84825e-06
9.44311e-07
2.33007e-06
3.74738e-06
2.32072e-06
1.18854e-06
9.44045e-07
3.68489e-06
9.91157e-06
4.31552e-06
9.76175e-06
2.31565e-06
1.19362e-06
3.66128e-06
9.40257e-07
3.71657e-06
9.43884e-07
2.28358e-06
4.30448e-06
9.67147e-06
9.78919e-06
4.24896e-06
2.31063e-06
1.18038e-06
9.37607e-07
3.61624e-06
9.41773e-07
3.66469e-06
2.27855e-06
4.29563e-06
9.59886e-06
9.69828e-06
4.24149e-06
5.89685e-06
5.89702e-06
1.46223e-06
5.88035e-06
5.86477e-06
1.97814e-05
1.962e-05
1.93008e-05
1.95481e-05
1.46207e-06
5.71049e-06
5.69317e-06
5.85155e-06
5.82982e-06
1.92701e-05
1.94995e-05
1.19452e-06
3.75242e-06
2.33282e-06
1.18955e-06
2.33671e-06
9.45254e-07
3.69543e-06
4.34864e-06
9.97773e-06
4.35121e-06
9.9273e-06
4.33737e-06
4.34599e-06
9.79168e-06
2.33133e-06
1.20097e-06
9.44609e-07
3.67047e-06
9.47022e-07
3.75204e-06
2.29322e-06
2.32346e-06
1.18181e-06
9.40201e-07
3.62135e-06
9.43965e-07
3.67545e-06
2.28729e-06
4.33057e-06
9.67868e-06
9.85498e-06
4.25869e-06
4.31788e-06
9.61111e-06
9.72569e-06
4.25083e-06
1.9561e-05
1.93228e-05
1.93443e-05
1.41845e-06
5.60591e-06
5.61186e-06
5.66188e-06
5.67211e-06
1.91943e-05
1.92453e-05
1.92012e-05
1.92628e-05
1.9281e-05
1.91349e-05
1.92717e-05
1.91247e-05
5.73982e-06
5.73755e-06
1.4185e-06
5.65842e-06
5.65294e-06
1.90632e-05
1.90554e-05
1.41552e-06
5.64213e-06
5.6372e-06
4.24742e-06
9.68576e-06
4.28271e-06
9.63028e-06
2.27753e-06
3.69566e-06
9.4125e-07
1.18202e-06
2.30402e-06
3.64657e-06
9.3693e-07
2.27801e-06
3.67594e-06
9.40375e-07
1.18004e-06
2.3022e-06
3.65257e-06