/*--------------------------------*- C++ -*----------------------------------*\
| =========                 |                                                 |
| \\      /  F ield         | OpenFOAM: The Open Source CFD Toolbox           |
|  \\    /   O peration     | Version:  v2012                                 |
|   \\  /    A nd           | Website:  www.openfoam.com                      |
|    \\/     M anipulation  |                                                 |
\*---------------------------------------------------------------------------*/
FoamFile
{
    version     2.0;
    format      ascii;
    class       volScalarField;
    location    "1987.5";
    object      epsilon;
}
// * * * * * * * * * * * * * * * * * * * * * * * * * * * * * * * * * * * * * //

dimensions      [0 2 -3 0 0 0 0];


internalField   nonuniform List<scalar> 
171728
(
1.31959e-09
3.58063e-09
7.63201e-09
5.17435e-09
1.27607e-09
3.339e-09
6.73499e-09
4.67736e-09
1.19177e-09
3.07511e-09
5.3548e-09
4.25729e-09
1.11724e-09
2.84119e-09
4.11423e-09
3.91426e-09
1.05232e-09
2.64291e-09
3.2056e-09
3.63282e-09
9.97425e-10
2.4674e-09
2.63503e-09
3.38798e-09
9.54721e-10
2.31679e-09
2.28705e-09
3.13277e-09
9.16963e-10
2.2033e-09
2.0824e-09
2.91579e-09
8.80661e-10
2.13078e-09
1.9748e-09
2.75904e-09
8.46439e-10
2.09071e-09
1.92987e-09
2.62577e-09
8.12501e-10
2.07288e-09
1.92351e-09
2.5027e-09
7.80192e-10
2.08559e-09
1.94601e-09
2.3992e-09
7.49869e-10
2.14174e-09
2.01462e-09
2.35953e-09
7.23045e-10
2.25923e-09
2.1389e-09
2.38878e-09
6.99849e-10
2.42778e-09
2.33532e-09
2.50883e-09
6.79828e-10
2.6836e-09
2.64782e-09
2.73912e-09
6.62666e-10
3.08755e-09
3.12562e-09
3.172e-09
6.48577e-10
3.73255e-09
3.86379e-09
3.89985e-09
6.37478e-10
4.83054e-09
4.95758e-09
5.18414e-09
6.31634e-10
6.39147e-09
6.62092e-09
7.46191e-09
6.33619e-10
8.78793e-09
9.05876e-09
1.12255e-08
6.44663e-10
1.2152e-08
1.24399e-08
1.81552e-08
6.7038e-10
1.70993e-08
1.73441e-08
2.83989e-08
7.13929e-10
2.35827e-08
2.4061e-08
4.63022e-08
7.83495e-10
3.29833e-08
3.23195e-08
7.20588e-08
9.08918e-10
4.32771e-08
4.48681e-08
1.10416e-07
1.09395e-09
5.83216e-08
5.75617e-08
1.5589e-07
1.33847e-09
7.63476e-08
7.54148e-08
2.18962e-07
1.7455e-09
9.41644e-08
9.45085e-08
2.91558e-07
2.18274e-09
1.20841e-07
1.17781e-07
3.65416e-07
2.98417e-09
1.44884e-07
1.44308e-07
4.34068e-07
3.84501e-09
1.77784e-07
1.70781e-07
5.16684e-07
5.43206e-09
2.19565e-07
2.08066e-07
5.96027e-07
6.89253e-09
2.43199e-07
2.3975e-07
6.51062e-07
9.0738e-09
2.75808e-07
2.77102e-07
7.00878e-07
1.21643e-08
3.35316e-07
3.20338e-07
7.56367e-07
1.62888e-08
3.86224e-07
3.63519e-07
8.06983e-07
2.05756e-08
4.08839e-07
4.12395e-07
8.39971e-07
2.76434e-08
4.42514e-07
4.52197e-07
8.77561e-07
3.49561e-08
5.19654e-07
5.04834e-07
9.08727e-07
4.32349e-08
5.89719e-07
5.53108e-07
9.50007e-07
5.46926e-08
5.99036e-07
6.04669e-07
9.7894e-07
6.3714e-08
6.30317e-07
6.44845e-07
9.97315e-07
7.36638e-08
7.06283e-07
6.97454e-07
1.03529e-06
9.28691e-08
7.63151e-07
7.43533e-07
1.07154e-06
1.12517e-07
7.89817e-07
7.88949e-07
1.0922e-06
1.27662e-07
8.22439e-07
8.25671e-07
1.1131e-06
1.47587e-07
8.69797e-07
8.6941e-07
1.14565e-06
1.76431e-07
9.03529e-07
9.05507e-07
1.16666e-06
1.98327e-07
9.3314e-07
9.35601e-07
1.19331e-06
2.24965e-07
9.74472e-07
9.71922e-07
1.21691e-06
2.56151e-07
9.98507e-07
9.99761e-07
1.23286e-06
2.83128e-07
1.02277e-06
1.02529e-06
1.26143e-06
3.19581e-07
1.0617e-06
1.05844e-06
1.28315e-06
3.50061e-07
1.0737e-06
1.07734e-06
1.29772e-06
3.73648e-07
1.09089e-06
1.09338e-06
1.31067e-06
4.09467e-07
1.11662e-06
1.11659e-06
1.32788e-06
4.51804e-07
1.14223e-06
1.14252e-06
1.35081e-06
4.77793e-07
1.15425e-06
1.15652e-06
1.36238e-06
4.9755e-07
1.16831e-06
1.1734e-06
1.37746e-06
5.16702e-07
1.19674e-06
1.18992e-06
1.39739e-06
5.44522e-07
1.20753e-06
1.19949e-06
1.40249e-06
5.8202e-07
1.20784e-06
1.21572e-06
1.40851e-06
6.17428e-07
1.22935e-06
1.24301e-06
1.44496e-06
6.30043e-07
1.25264e-06
1.24731e-06
1.44457e-06
6.28955e-07
1.25297e-06
1.24244e-06
1.42641e-06
6.43124e-07
1.25133e-06
1.25532e-06
1.43834e-06
6.72916e-07
1.26722e-06
1.27869e-06
1.4868e-06
7.03241e-07
1.29068e-06
1.28963e-06
1.49977e-06
7.15147e-07
1.29812e-06
1.29186e-06
1.48473e-06
7.21365e-07
1.2953e-06
1.29371e-06
1.47901e-06
7.26867e-07
1.29466e-06
1.29683e-06
1.49262e-06
7.40881e-07
1.29967e-06
1.30228e-06
1.51017e-06
7.64833e-07
1.30815e-06
1.31211e-06
1.51213e-06
7.80556e-07
1.31786e-06
1.31396e-06
1.50778e-06
7.71834e-07
1.32242e-06
1.31544e-06
1.51274e-06
7.69578e-07
1.31226e-06
1.31838e-06
1.52002e-06
7.95413e-07
1.31112e-06
1.31999e-06
1.51894e-06
8.14584e-07
1.32438e-06
1.32248e-06
1.52381e-06
8.09254e-07
1.32935e-06
1.32264e-06
1.52958e-06
7.98978e-07
1.32167e-06
1.32159e-06
1.53135e-06
8.00601e-07
1.31394e-06
1.31941e-06
1.52626e-06
8.1172e-07
1.31556e-06
1.31597e-06
1.5245e-06
8.21775e-07
1.32427e-06
1.31818e-06
1.53258e-06
8.17916e-07
1.31799e-06
1.31744e-06
1.5259e-06
8.07455e-07
1.30694e-06
1.30958e-06
1.51609e-06
8.05238e-07
1.30305e-06
1.30519e-06
1.51896e-06
8.07855e-07
1.30144e-06
1.30276e-06
1.52024e-06
8.09778e-07
1.30287e-06
1.30535e-06
1.52981e-06
8.0972e-07
1.30249e-06
1.30406e-06
1.53512e-06
8.00649e-07
1.29161e-06
1.28637e-06
1.51403e-06
7.87094e-07
1.27164e-06
1.26354e-06
1.47009e-06
7.8107e-07
1.26263e-06
1.26455e-06
1.47034e-06
7.88272e-07
1.2742e-06
1.28283e-06
1.52172e-06
7.73867e-07
1.21838e-06
1.22117e-06
1.48462e-06
3.52055e-09
4.57777e-09
3.63856e-09
3.23987e-09
2.31227e-09
3.70869e-09
1.27851e-09
1.26032e-09
1.30966e-09
1.53207e-09
2.44054e-09
3.80818e-09
5.20577e-09
4.36311e-09
4.27005e-09
5.19984e-09
3.45348e-09
3.26925e-09
7.4577e-09
4.21151e-09
7.02492e-09
3.99805e-09
3.20381e-09
3.0442e-09
3.67899e-09
3.33111e-09
2.84289e-09
3.14028e-09
3.70321e-09
3.40824e-09
3.52902e-09
5.18218e-09
4.74426e-09
6.29098e-09
7.03082e-09
5.96874e-09
4.71231e-09
3.21951e-09
3.07991e-09
6.8279e-09
3.91475e-09
6.15564e-09
3.68127e-09
3.00943e-09
2.87367e-09
2.69731e-09
3.06952e-09
2.44128e-09
2.87187e-09
3.46393e-09
3.13865e-09
3.28181e-09
4.71212e-09
4.29885e-09
5.83835e-09
5.69946e-09
5.49551e-09
4.2867e-09
3.03852e-09
2.90689e-09
5.90501e-09
3.60785e-09
5.06665e-09
3.40163e-09
2.84203e-09
2.71669e-09
2.3835e-09
2.81082e-09
2.25717e-09
2.6415e-09
3.22447e-09
2.8961e-09
3.06431e-09
4.27148e-09
3.88509e-09
5.39628e-09
4.39826e-09
5.13782e-09
3.93856e-09
2.87043e-09
2.69196e-09
4.77582e-09
3.33757e-09
3.9677e-09
3.1577e-09
2.68633e-09
2.56308e-09
2.22384e-09
2.58943e-09
2.14012e-09
2.44394e-09
3.01449e-09
2.6901e-09
2.87583e-09
3.86014e-09
3.47121e-09
5.06248e-09
3.39716e-09
4.85453e-09
3.65349e-09
2.67196e-09
2.48339e-09
3.73286e-09
3.10172e-09
3.15378e-09
2.94677e-09
2.53724e-09
2.42408e-09
2.11793e-09
2.39958e-09
2.05447e-09
2.27743e-09
2.83393e-09
2.50919e-09
2.71657e-09
3.44871e-09
3.10854e-09
4.79103e-09
2.75254e-09
4.62487e-09
3.40639e-09
2.47089e-09
2.31375e-09
3.00434e-09
2.89842e-09
2.67017e-09
2.76443e-09
2.40545e-09
2.29834e-09
2.03351e-09
2.24068e-09
2.00759e-09
2.14057e-09
2.67931e-09
2.35129e-09
2.57798e-09
3.09376e-09
2.82124e-09
4.57226e-09
2.3579e-09
4.36631e-09
3.1504e-09
2.30686e-09
2.19648e-09
2.59072e-09
2.72416e-09
2.4223e-09
2.61754e-09
2.29029e-09
2.18943e-09
2.00947e-09
2.11099e-09
2.02248e-09
2.03308e-09
2.54771e-09
2.22742e-09
2.47088e-09
2.81213e-09
2.5955e-09
4.27651e-09
2.12327e-09
3.97902e-09
2.92625e-09
2.19272e-09
2.10691e-09
2.3839e-09
2.58629e-09
2.30769e-09
2.50744e-09
2.18463e-09
2.1032e-09
2.03076e-09
2.01135e-09
2.02134e-09
1.95635e-09
2.45045e-09
2.14517e-09
2.39579e-09
2.59163e-09
2.42394e-09
3.87538e-09
1.99513e-09
3.60018e-09
2.76461e-09
2.10729e-09
2.05331e-09
2.29229e-09
2.48578e-09
2.2667e-09
2.43182e-09
2.10186e-09
2.0407e-09
2.00524e-09
1.94305e-09
1.99419e-09
1.91241e-09
2.38224e-09
2.09796e-09
2.3554e-09
2.42423e-09
2.29471e-09
3.51948e-09
1.93725e-09
3.28049e-09
2.62895e-09
2.05611e-09
2.0207e-09
2.26215e-09
2.41962e-09
2.26171e-09
2.38987e-09
2.04243e-09
2.00281e-09
1.99679e-09
1.90592e-09
2.01922e-09
1.89936e-09
2.3493e-09
2.07596e-09
2.34285e-09
2.29758e-09
2.19982e-09
3.20123e-09
1.92259e-09
2.97139e-09
2.50334e-09
2.02777e-09
2.0101e-09
2.26427e-09
2.38323e-09
2.28282e-09
2.38129e-09
2.009e-09
1.9907e-09
2.02785e-09
1.90097e-09
2.06166e-09
1.91912e-09
2.34392e-09
2.08017e-09
2.35746e-09
2.20584e-09
2.14136e-09
2.8966e-09
1.93656e-09
2.70617e-09
2.39458e-09
2.02297e-09
2.02517e-09
2.29288e-09
2.38544e-09
2.33534e-09
2.42214e-09
2.00358e-09
2.00808e-09
2.07743e-09
1.92974e-09
2.13973e-09
1.97989e-09
2.36636e-09
2.12684e-09
2.40777e-09
2.15313e-09
2.12208e-09
2.6591e-09
1.99249e-09
2.57325e-09
2.34427e-09
2.04588e-09
2.07783e-09
2.35423e-09
2.44273e-09
2.43104e-09
2.53183e-09
2.03026e-09
2.06941e-09
2.16718e-09
2.0033e-09
2.26758e-09
2.09322e-09
2.4272e-09
2.22994e-09
2.50379e-09
2.14244e-09
2.15356e-09
2.56783e-09
2.10265e-09
2.57877e-09
2.35852e-09
2.11038e-09
2.18475e-09
2.46564e-09
2.5716e-09
2.59387e-09
2.72717e-09
2.1046e-09
2.18996e-09
2.30822e-09
2.13011e-09
2.45504e-09
2.27398e-09
2.53701e-09
2.38689e-09
2.66829e-09
2.18661e-09
2.24916e-09
2.60018e-09
2.27768e-09
2.72431e-09
2.45373e-09
2.23793e-09
2.37426e-09
2.64913e-09
2.78815e-09
2.86138e-09
3.02758e-09
2.24389e-09
2.4042e-09
2.51364e-09
2.33303e-09
2.72917e-09
2.55699e-09
2.72178e-09
2.61778e-09
2.93087e-09
2.30254e-09
2.44354e-09
2.78035e-09
2.56145e-09
3.00362e-09
2.64858e-09
2.45957e-09
2.70919e-09
2.95304e-09
3.12695e-09
3.29172e-09
3.48452e-09
2.49979e-09
2.74295e-09
2.81927e-09
2.64753e-09
3.15287e-09
2.99352e-09
3.01851e-09
2.97385e-09
3.35619e-09
2.53178e-09
2.7964e-09
3.09771e-09
2.98955e-09
3.46952e-09
3.02301e-09
2.84871e-09
3.28914e-09
3.43444e-09
3.63104e-09
3.96255e-09
4.17856e-09
2.88732e-09
3.35758e-09
3.29207e-09
3.12963e-09
3.79553e-09
3.64948e-09
3.49382e-09
3.54608e-09
3.99604e-09
2.94545e-09
3.41175e-09
3.61878e-09
3.65217e-09
4.16526e-09
3.648e-09
3.52452e-09
4.32785e-09
4.17592e-09
4.40039e-09
4.99038e-09
5.25415e-09
3.59591e-09
4.48067e-09
4.00576e-09
3.85978e-09
4.80851e-09
4.64111e-09
4.20854e-09
4.49585e-09
4.9895e-09
3.65384e-09
4.48644e-09
4.39099e-09
4.63233e-09
5.17818e-09
4.7685e-09
4.71883e-09
6.12675e-09
5.29802e-09
5.61454e-09
6.49837e-09
6.81191e-09
4.91402e-09
6.29557e-09
5.11054e-09
4.96318e-09
6.27371e-09
6.14925e-09
5.31588e-09
5.89586e-09
6.49174e-09
4.89974e-09
6.46451e-09
5.51055e-09
6.14596e-09
6.72205e-09
6.74343e-09
6.80739e-09
9.43658e-09
6.98011e-09
7.38455e-09
8.75186e-09
9.30199e-09
7.01888e-09
9.82514e-09
6.73936e-09
6.63043e-09
8.45705e-09
8.33287e-09
6.99474e-09
8.09282e-09
8.68973e-09
7.16462e-09
9.71912e-09
7.18627e-09
8.30629e-09
8.84273e-09
1.0037e-08
1.04725e-08
1.52451e-08
9.42397e-09
1.00875e-08
1.20699e-08
1.27664e-08
1.09631e-08
1.52078e-08
9.10567e-09
9.08079e-09
1.1662e-08
1.14499e-08
9.39944e-09
1.1149e-08
1.20405e-08
1.0935e-08
1.52785e-08
9.60929e-09
1.14163e-08
1.21264e-08
1.64059e-08
1.71367e-08
2.43501e-08
1.30877e-08
1.38841e-08
1.65221e-08
1.80503e-08
1.70645e-08
2.6476e-08
1.26344e-08
1.25017e-08
1.59625e-08
1.61951e-08
1.30241e-08
1.58197e-08
1.63486e-08
1.71035e-08
2.61661e-08
1.29916e-08
1.60863e-08
1.62996e-08
2.53197e-08
2.73266e-08
4.07696e-08
1.80249e-08
1.94779e-08
2.28409e-08
2.43716e-08
2.89594e-08
4.06939e-08
1.74337e-08
1.74512e-08
2.20849e-08
2.23964e-08
1.78607e-08
2.16981e-08
2.26394e-08
2.88082e-08
4.18987e-08
1.7832e-08
2.21825e-08
2.27918e-08
4.2145e-08
4.46111e-08
6.39553e-08
2.46601e-08
2.62128e-08
3.10853e-08
3.40307e-08
4.54554e-08
6.80904e-08
2.38519e-08
2.42978e-08
3.01944e-08
3.02082e-08
2.46563e-08
3.0652e-08
3.09578e-08
4.62991e-08
6.36323e-08
2.4742e-08
3.00973e-08
3.07474e-08
6.6437e-08
7.03197e-08
9.91647e-08
3.34879e-08
3.65854e-08
4.22967e-08
4.27898e-08
7.48351e-08
9.57094e-08
3.25865e-08
3.2484e-08
4.11953e-08
4.20633e-08
3.31881e-08
3.99622e-08
4.29644e-08
6.92597e-08
1.01771e-07
3.31372e-08
4.15652e-08
4.2138e-08
1.01418e-07
1.07493e-07
1.41635e-07
4.53295e-08
4.55529e-08
5.47017e-08
5.7758e-08
1.02072e-07
1.47323e-07
4.41134e-08
4.54117e-08
5.36638e-08
5.40638e-08
4.56989e-08
5.46674e-08
5.52891e-08
1.11576e-07
1.44584e-07
4.47797e-08
5.38079e-08
5.49511e-08
1.44741e-07
1.51924e-07
2.0385e-07
5.90208e-08
6.17529e-08
7.20035e-08
7.55161e-08
1.60265e-07
2.08152e-07
5.7858e-08
5.77102e-08
7.07143e-08
7.17201e-08
6.04801e-08
7.17875e-08
7.28405e-08
1.52836e-07
2.0519e-07
5.96966e-08
7.11227e-08
7.10407e-08
2.0991e-07
2.1661e-07
2.708e-07
7.60051e-08
8.04809e-08
9.1301e-08
9.19958e-08
2.20571e-07
2.70001e-07
7.46394e-08
7.61218e-08
8.96187e-08
8.98594e-08
7.60582e-08
8.84568e-08
9.26883e-08
2.20236e-07
2.70717e-07
7.4508e-08
8.92512e-08
9.10281e-08
2.71295e-07
2.86557e-07
3.51522e-07
9.74971e-08
9.68272e-08
1.12829e-07
1.17733e-07
2.81739e-07
3.55246e-07
9.58331e-08
9.5193e-08
1.11695e-07
1.12396e-07
9.91594e-08
1.15406e-07
1.12632e-07
2.83459e-07
3.48337e-07
9.6973e-08
1.11487e-07
1.12205e-07
3.54222e-07
3.65315e-07
4.22985e-07
1.17749e-07
1.23425e-07
1.3962e-07
1.39371e-07
3.75209e-07
4.25509e-07
1.16468e-07
1.18727e-07
1.37569e-07
1.38636e-07
1.16967e-07
1.383e-07
1.36061e-07
3.65973e-07
4.27216e-07
1.17456e-07
1.38198e-07
1.36326e-07
4.17003e-07
4.40891e-07
5.00731e-07
1.47309e-07
1.44956e-07
1.658e-07
1.65026e-07
4.36952e-07
4.95082e-07
1.453e-07
1.44538e-07
1.64173e-07
1.63744e-07
1.43561e-07
1.6725e-07
1.66275e-07
4.41566e-07
4.96495e-07
1.43206e-07
1.62481e-07
1.65426e-07
4.99704e-07
5.14467e-07
5.72342e-07
1.7218e-07
1.74447e-07
2.00855e-07
2.06877e-07
5.15358e-07
5.87155e-07
1.7083e-07
1.72356e-07
1.98278e-07
2.00943e-07
1.74593e-07
2.11146e-07
2.03763e-07
5.12419e-07
5.73887e-07
1.73464e-07
2.00002e-07
2.01574e-07
5.8032e-07
5.90196e-07
6.39021e-07
2.11693e-07
2.14925e-07
2.35016e-07
2.32391e-07
6.01207e-07
6.32332e-07
2.08507e-07
2.08836e-07
2.33938e-07
2.3171e-07
2.13039e-07
2.37431e-07
2.3421e-07
5.90225e-07
6.35705e-07
2.11015e-07
2.30716e-07
2.3313e-07
6.38908e-07
6.50611e-07
6.88019e-07
2.41128e-07
2.38279e-07
2.67353e-07
2.62217e-07
6.43157e-07
6.83735e-07
2.41184e-07
2.41176e-07
2.67008e-07
2.6929e-07
2.41424e-07
2.64796e-07
2.68805e-07
6.48099e-07
6.89739e-07
2.40365e-07
2.68271e-07
2.69635e-07
6.8829e-07
7.01555e-07
7.46708e-07
2.78787e-07
2.75177e-07
3.1018e-07
3.19164e-07
6.99563e-07
7.53731e-07
2.77813e-07
2.78156e-07
3.10522e-07
3.09993e-07
2.78116e-07
3.23155e-07
3.10157e-07
7.03682e-07
7.43748e-07
2.78965e-07
3.08672e-07
3.08292e-07
7.42242e-07
7.59848e-07
7.93265e-07
3.21906e-07
3.29073e-07
3.58535e-07
3.59388e-07
7.6635e-07
8.0018e-07
3.21545e-07
3.21413e-07
3.57373e-07
3.53853e-07
3.23511e-07
3.71952e-07
3.64228e-07
7.55755e-07
7.9122e-07
3.19953e-07
3.52711e-07
3.5812e-07
7.96613e-07
8.0294e-07
8.29261e-07
3.68446e-07
3.71452e-07
3.97149e-07
3.98223e-07
8.11694e-07
8.22577e-07
3.6771e-07
3.64298e-07
3.95894e-07
4.00643e-07
3.76944e-07
4.07502e-07
4.09582e-07
8.03338e-07
8.35009e-07
3.70671e-07
3.99769e-07
4.0224e-07
8.30688e-07
8.40092e-07
8.73549e-07
4.088e-07
4.04296e-07
4.50392e-07
4.29758e-07
8.26221e-07
8.45099e-07
4.06732e-07
4.13595e-07
4.49332e-07
4.45292e-07
4.178e-07
4.29351e-07
4.4052e-07
8.443e-07
8.66161e-07
4.12158e-07
4.43016e-07
4.46408e-07
8.67601e-07
8.81465e-07
8.99215e-07
4.62524e-07
4.40924e-07
4.93905e-07
4.83305e-07
8.57735e-07
9.06771e-07
4.64462e-07
4.54304e-07
5.00657e-07
4.89669e-07
4.49362e-07
4.94963e-07
4.8279e-07
8.75092e-07
9.02698e-07
4.60742e-07
4.90296e-07
5.02768e-07
9.00038e-07
9.08743e-07
9.41532e-07
5.05108e-07
5.03273e-07
5.43959e-07
5.57583e-07
9.20583e-07
9.51012e-07
5.11712e-07
5.04298e-07
5.44098e-07
5.42434e-07
4.98544e-07
5.83113e-07
5.50643e-07
9.13316e-07
9.3999e-07
5.14321e-07
5.41836e-07
5.48347e-07
9.39164e-07
9.5133e-07
9.722e-07
5.58808e-07
5.68457e-07
6.01671e-07
5.8975e-07
9.57357e-07
9.68876e-07
5.54365e-07
5.53762e-07
5.93624e-07
5.94191e-07
5.65056e-07
5.95328e-07
6.00148e-07
9.47992e-07
9.69262e-07
5.59058e-07
5.92033e-07
5.88487e-07
9.72804e-07
9.79444e-07
9.95634e-07
6.12476e-07
5.96324e-07
6.39026e-07
6.20748e-07
9.74266e-07
9.8487e-07
6.07849e-07
6.06936e-07
6.3745e-07
6.36305e-07
6.08847e-07
6.19206e-07
6.31548e-07
9.77607e-07
9.97058e-07
6e-07
6.34702e-07
6.38812e-07
9.90915e-07
1.00218e-06
1.02121e-06
6.47244e-07
6.31745e-07
6.755e-07
6.78061e-07
9.92221e-07
1.02823e-06
6.46569e-07
6.45963e-07
6.79939e-07
6.84291e-07
6.39771e-07
6.81723e-07
6.75899e-07
1.00419e-06
1.02645e-06
6.49911e-07
6.83993e-07
6.85499e-07
1.0241e-06
1.02973e-06
1.06222e-06
6.87377e-07
6.98684e-07
7.33677e-07
7.43411e-07
1.04109e-06
1.06968e-06
6.93242e-07
6.97691e-07
7.34715e-07
7.33095e-07
6.92886e-07
7.54724e-07
7.38841e-07
1.03515e-06
1.05917e-06
6.9866e-07
7.32842e-07
7.36674e-07
1.0646e-06
1.07092e-06
1.08737e-06
7.49285e-07
7.52456e-07
7.82575e-07
7.72942e-07
1.07536e-06
1.08558e-06
7.47454e-07
7.44272e-07
7.79988e-07
7.77674e-07
7.50918e-07
7.82805e-07
7.80572e-07
1.06669e-06
1.08525e-06
7.48607e-07
7.77913e-07
7.79139e-07
1.08662e-06
1.09248e-06
1.10674e-06
7.90645e-07
7.80284e-07
8.15347e-07
8.06798e-07
1.09038e-06
1.10325e-06
7.88323e-07
7.87395e-07
8.13347e-07
8.1572e-07
7.8898e-07
8.13605e-07
8.14286e-07
1.09136e-06
1.10793e-06
7.87702e-07
8.1678e-07
8.125e-07
1.10676e-06
1.11339e-06
1.13785e-06
8.24694e-07
8.17528e-07
8.5585e-07
8.59514e-07
1.10967e-06
1.13935e-06
8.22946e-07
8.27036e-07
8.56059e-07
8.61727e-07
8.23077e-07
8.56209e-07
8.58075e-07
1.11491e-06
1.13921e-06
8.21392e-07
8.5697e-07
8.57069e-07
1.13791e-06
1.14621e-06
1.1649e-06
8.68778e-07
8.73592e-07
8.98878e-07
8.99138e-07
1.14871e-06
1.16638e-06
8.68791e-07
8.71948e-07
8.97151e-07
8.96872e-07
8.69819e-07
8.97198e-07
8.96054e-07
1.14681e-06
1.16481e-06
8.68119e-07
8.98773e-07
8.93766e-07
1.16155e-06
1.16972e-06
1.18217e-06
9.05878e-07
9.04572e-07
9.26937e-07
9.23898e-07
1.17069e-06
1.18117e-06
9.0425e-07
9.03755e-07
9.26686e-07
9.2623e-07
9.03736e-07
9.24544e-07
9.28693e-07
1.16975e-06
1.18186e-06
9.01734e-07
9.26549e-07
9.29457e-07
1.18551e-06
1.18797e-06
1.21249e-06
9.34514e-07
9.3211e-07
9.63473e-07
9.62324e-07
1.18666e-06
1.2103e-06
9.34693e-07
9.34712e-07
9.64374e-07
9.65623e-07
9.38679e-07
9.64729e-07
9.6339e-07
1.18757e-06
1.21205e-06
9.39798e-07
9.63679e-07
9.62861e-07
1.21214e-06
1.21971e-06
1.23264e-06
9.73088e-07
9.74004e-07
9.92715e-07
9.95716e-07
1.2186e-06
1.23598e-06
9.74073e-07
9.76492e-07
9.92967e-07
9.97581e-07
9.69996e-07
9.93981e-07
9.90483e-07
1.21937e-06
1.23569e-06
9.69019e-07
9.93795e-07
9.88861e-07
1.22794e-06
1.23666e-06
1.24909e-06
9.98539e-07
9.9988e-07
1.01996e-06
1.01623e-06
1.23981e-06
1.24609e-06
9.98358e-07
1.00213e-06
1.01803e-06
1.01817e-06
9.97515e-07
1.01547e-06
1.02271e-06
1.24012e-06
1.25072e-06
9.95935e-07
1.01797e-06
1.02275e-06
1.25403e-06
1.25547e-06
1.27985e-06
1.02877e-06
1.02358e-06
1.05372e-06
1.05083e-06
1.25055e-06
1.27775e-06
1.02567e-06
1.02485e-06
1.05025e-06
1.04892e-06
1.03144e-06
1.05111e-06
1.05086e-06
1.2558e-06
1.2763e-06
1.03134e-06
1.05109e-06
1.04828e-06
1.27872e-06
1.2864e-06
1.29514e-06
1.05983e-06
1.06144e-06
1.06806e-06
1.07315e-06
1.2878e-06
1.29869e-06
1.05715e-06
1.05724e-06
1.07075e-06
1.0735e-06
1.05581e-06
1.07263e-06
1.07127e-06
1.283e-06
1.29657e-06
1.05302e-06
1.07355e-06
1.07124e-06
1.29316e-06
1.29711e-06
1.29754e-06
1.07016e-06
1.07349e-06
1.08297e-06
1.08387e-06
1.30034e-06
1.30191e-06
1.07396e-06
1.07706e-06
1.08713e-06
1.08842e-06
1.07676e-06
1.08532e-06
1.09003e-06
1.30023e-06
1.30555e-06
1.07723e-06
1.08879e-06
1.0903e-06
1.30685e-06
1.30146e-06
1.3262e-06
1.08954e-06
1.08979e-06
1.11354e-06
1.10911e-06
1.30591e-06
1.32112e-06
1.09296e-06
1.09316e-06
1.11409e-06
1.1104e-06
1.0944e-06
1.10942e-06
1.11e-06
1.30877e-06
1.32168e-06
1.09448e-06
1.10969e-06
1.10916e-06
1.32212e-06
1.33581e-06
1.35595e-06
1.12322e-06
1.11643e-06
1.14495e-06
1.13994e-06
1.3279e-06
1.34973e-06
1.12238e-06
1.1178e-06
1.13883e-06
1.13901e-06
1.11591e-06
1.13724e-06
1.13606e-06
1.32908e-06
1.35063e-06
1.11528e-06
1.138e-06
1.1355e-06
1.34611e-06
1.35913e-06
1.36223e-06
1.14811e-06
1.14502e-06
1.1561e-06
1.15308e-06
1.35514e-06
1.36236e-06
1.14173e-06
1.14309e-06
1.15136e-06
1.15265e-06
1.14105e-06
1.15166e-06
1.15311e-06
1.35486e-06
1.35938e-06
1.14019e-06
1.15293e-06
1.15149e-06
1.35877e-06
1.36542e-06
1.37372e-06
1.15929e-06
1.15535e-06
1.16683e-06
1.16455e-06
1.36459e-06
1.3641e-06
1.15518e-06
1.15642e-06
1.16746e-06
1.16894e-06
1.15744e-06
1.16383e-06
1.16968e-06
1.36251e-06
1.37338e-06
1.15558e-06
1.16836e-06
1.16891e-06
1.37239e-06
1.37687e-06
1.37783e-06
1.16828e-06
1.16854e-06
1.17415e-06
1.18485e-06
1.36735e-06
1.3884e-06
1.17093e-06
1.17395e-06
1.17792e-06
1.18646e-06
1.17384e-06
1.18822e-06
1.18797e-06
1.37895e-06
1.39057e-06
1.17406e-06
1.18701e-06
1.18976e-06
1.39292e-06
1.37995e-06
1.38616e-06
1.17779e-06
1.19216e-06
1.19347e-06
1.20615e-06
1.39701e-06
1.41302e-06
1.18072e-06
1.18866e-06
1.19345e-06
1.19535e-06
1.19177e-06
1.20787e-06
1.19845e-06
1.3935e-06
1.39552e-06
1.19291e-06
1.19686e-06
1.19765e-06
1.40074e-06
1.39121e-06
1.41444e-06
1.19961e-06
1.20688e-06
1.21976e-06
1.20735e-06
1.41492e-06
1.40834e-06
1.19883e-06
1.19857e-06
1.21688e-06
1.2115e-06
1.20151e-06
1.20594e-06
1.21244e-06
1.39807e-06
1.40619e-06
1.2007e-06
1.21064e-06
1.21209e-06
1.40359e-06
1.42217e-06
1.44618e-06
1.22582e-06
1.2097e-06
1.24163e-06
1.22341e-06
1.40984e-06
1.41559e-06
1.22399e-06
1.21707e-06
1.24312e-06
1.2391e-06
1.21726e-06
1.22335e-06
1.23563e-06
1.41157e-06
1.43708e-06
1.21708e-06
1.23644e-06
1.23586e-06
1.43836e-06
1.45196e-06
1.45333e-06
1.24577e-06
1.22944e-06
1.25004e-06
1.24933e-06
1.42082e-06
1.44282e-06
1.24751e-06
1.24526e-06
1.2508e-06
1.25028e-06
1.24007e-06
1.24864e-06
1.24213e-06
1.44425e-06
1.44952e-06
1.24017e-06
1.24876e-06
1.24126e-06
1.444e-06
1.45405e-06
1.43532e-06
1.2491e-06
1.25326e-06
1.2434e-06
1.25447e-06
1.44834e-06
1.45186e-06
1.24874e-06
1.2483e-06
1.24131e-06
1.24171e-06
1.24066e-06
1.25453e-06
1.238e-06
1.4503e-06
1.43353e-06
1.23943e-06
1.24266e-06
1.23642e-06
1.42571e-06
1.43574e-06
1.43177e-06
1.24232e-06
1.25259e-06
1.24704e-06
1.25018e-06
1.45299e-06
1.44532e-06
1.23982e-06
1.24087e-06
1.24533e-06
1.24884e-06
1.23823e-06
1.25076e-06
1.25044e-06
1.43423e-06
1.43686e-06
1.23684e-06
1.25083e-06
1.25061e-06
1.43151e-06
1.43584e-06
1.45741e-06
1.25126e-06
1.25071e-06
1.26617e-06
1.26112e-06
1.4467e-06
1.45241e-06
1.2503e-06
1.25379e-06
1.26791e-06
1.27228e-06
1.25638e-06
1.26212e-06
1.27828e-06
1.44222e-06
1.46793e-06
1.25695e-06
1.27242e-06
1.2806e-06
1.47731e-06
1.46568e-06
1.48878e-06
1.27236e-06
1.266e-06
1.28943e-06
1.28391e-06
1.45753e-06
1.4782e-06
1.27524e-06
1.27863e-06
1.29026e-06
1.28843e-06
1.28549e-06
1.28553e-06
1.29261e-06
1.47517e-06
1.48657e-06
1.28761e-06
1.28848e-06
1.29252e-06
1.49863e-06
1.49333e-06
1.49441e-06
1.29254e-06
1.28975e-06
1.29568e-06
1.29889e-06
1.48438e-06
1.49578e-06
1.29207e-06
1.28976e-06
1.29319e-06
1.29206e-06
1.29175e-06
1.29777e-06
1.28651e-06
1.48893e-06
1.48788e-06
1.29051e-06
1.29135e-06
1.28485e-06
1.4843e-06
1.49569e-06
1.49084e-06
1.29571e-06
1.29964e-06
1.29545e-06
1.29769e-06
1.49862e-06
1.49657e-06
1.29326e-06
1.2927e-06
1.29433e-06
1.29458e-06
1.28557e-06
1.29613e-06
1.28703e-06
1.48947e-06
1.49028e-06
1.28397e-06
1.29341e-06
1.28694e-06
1.47668e-06
1.49215e-06
1.48712e-06
1.29507e-06
1.29638e-06
1.29331e-06
1.29314e-06
1.49775e-06
1.48915e-06
1.29454e-06
1.29521e-06
1.29385e-06
1.29536e-06
1.28985e-06
1.29416e-06
1.29824e-06
1.49248e-06
1.49147e-06
1.29001e-06
1.29577e-06
1.29887e-06
1.4875e-06
1.48827e-06
1.48565e-06
1.29286e-06
1.29261e-06
1.29557e-06
1.29467e-06
1.49028e-06
1.48913e-06
1.29342e-06
1.29531e-06
1.2957e-06
1.29844e-06
1.30105e-06
1.29804e-06
1.30818e-06
1.49285e-06
1.49163e-06
1.30189e-06
1.3006e-06
1.30782e-06
1.50639e-06
1.48861e-06
1.50537e-06
1.29899e-06
1.29687e-06
1.31245e-06
1.30647e-06
1.49198e-06
1.49999e-06
1.29872e-06
1.30048e-06
1.31103e-06
1.30911e-06
1.30898e-06
1.3061e-06
1.30825e-06
1.49451e-06
1.50618e-06
1.30844e-06
1.30985e-06
1.30849e-06
1.51089e-06
1.5134e-06
1.53296e-06
1.31802e-06
1.31057e-06
1.32784e-06
1.32158e-06
1.50377e-06
1.5138e-06
1.31617e-06
1.31259e-06
1.32606e-06
1.31761e-06
1.30782e-06
1.31513e-06
1.3091e-06
1.51098e-06
1.51544e-06
1.30825e-06
1.31406e-06
1.30879e-06
1.50636e-06
1.53554e-06
1.51806e-06
1.32702e-06
1.32361e-06
1.3123e-06
1.32178e-06
1.51838e-06
1.52521e-06
1.32571e-06
1.31763e-06
1.3138e-06
1.31564e-06
1.3107e-06
1.3228e-06
1.31576e-06
1.51683e-06
1.51171e-06
1.30993e-06
1.31483e-06
1.31418e-06
1.50965e-06
1.51704e-06
1.48811e-06
1.30721e-06
1.31816e-06
1.29692e-06
1.30806e-06
1.5266e-06
1.51296e-06
1.30964e-06
1.31514e-06
1.30123e-06
1.31474e-06
1.31733e-06
1.3147e-06
1.31964e-06
1.51303e-06
1.51388e-06
1.31559e-06
1.31752e-06
1.31912e-06
1.51812e-06
1.48891e-06
1.50199e-06
1.29753e-06
1.30547e-06
1.31405e-06
1.30832e-06
1.51316e-06
1.50446e-06
1.30169e-06
1.31523e-06
1.31451e-06
1.31817e-06
1.31893e-06
1.30928e-06
1.31577e-06
1.5167e-06
1.52158e-06
1.31932e-06
1.31972e-06
1.31801e-06
1.5172e-06
1.51079e-06
1.54589e-06
1.32063e-06
1.31312e-06
1.34034e-06
1.3281e-06
1.50784e-06
1.52345e-06
1.31958e-06
1.31993e-06
1.33439e-06
1.32451e-06
1.31571e-06
1.32103e-06
1.31931e-06
1.52451e-06
1.52686e-06
1.31786e-06
1.32188e-06
1.31997e-06
1.52108e-06
1.55124e-06
1.54404e-06
1.34238e-06
1.33251e-06
1.33398e-06
1.33439e-06
1.52932e-06
1.53605e-06
1.3356e-06
1.32484e-06
1.32846e-06
1.3227e-06
1.32097e-06
1.32955e-06
1.3255e-06
1.52847e-06
1.52304e-06
1.32122e-06
1.32285e-06
1.32417e-06
1.52717e-06
1.54416e-06
1.51894e-06
1.32909e-06
1.33145e-06
1.31463e-06
1.32162e-06
1.53737e-06
1.52992e-06
1.32496e-06
1.32168e-06
1.31578e-06
1.31955e-06
1.3263e-06
1.32378e-06
1.32568e-06
1.52424e-06
1.52208e-06
1.32474e-06
1.32167e-06
1.32488e-06
1.53004e-06
1.51934e-06
1.51115e-06
1.31123e-06
1.31846e-06
1.3078e-06
1.31034e-06
1.53094e-06
1.51864e-06
1.31436e-06
1.31944e-06
1.31379e-06
1.31972e-06
1.32426e-06
1.31573e-06
1.31999e-06
1.52427e-06
1.52633e-06
1.32408e-06
1.32042e-06
1.3207e-06
1.5252e-06
1.51257e-06
1.51383e-06
1.30803e-06
1.30908e-06
1.31266e-06
1.31209e-06
1.51926e-06
1.51309e-06
1.31422e-06
1.31965e-06
1.31572e-06
1.31735e-06
1.3187e-06
1.31351e-06
1.31683e-06
1.52809e-06
1.52315e-06
1.31968e-06
1.31648e-06
1.31753e-06
1.52216e-06
1.51751e-06
1.53326e-06
1.31526e-06
1.31488e-06
1.32588e-06
1.32464e-06
1.51631e-06
1.53133e-06
1.31683e-06
1.31696e-06
1.32305e-06
1.31826e-06
1.31711e-06
1.32238e-06
1.31969e-06
1.52439e-06
1.52488e-06
1.31745e-06
1.31722e-06
1.31863e-06
1.52997e-06
1.53818e-06
1.53716e-06
1.3279e-06
1.3269e-06
1.32348e-06
1.32307e-06
1.53642e-06
1.53462e-06
1.32472e-06
1.31925e-06
1.32174e-06
1.31976e-06
1.32017e-06
1.3212e-06
1.31616e-06
1.52788e-06
1.52931e-06
1.31889e-06
1.31893e-06
1.31546e-06
1.5253e-06
1.53785e-06
1.51886e-06
1.31961e-06
1.31952e-06
1.30798e-06
1.30945e-06
1.53535e-06
1.52035e-06
1.31832e-06
1.31794e-06
1.30792e-06
1.31127e-06
1.31399e-06
1.30904e-06
1.30791e-06
1.53038e-06
1.52144e-06
1.31355e-06
1.3113e-06
1.3078e-06
1.51474e-06
1.51936e-06
1.51203e-06
1.30504e-06
1.307e-06
1.30174e-06
1.30343e-06
1.52121e-06
1.51541e-06
1.30528e-06
1.30955e-06
1.30217e-06
1.30608e-06
1.30692e-06
1.30354e-06
1.30524e-06
1.52256e-06
1.51876e-06
1.30673e-06
1.3059e-06
1.30494e-06
1.51683e-06
1.51383e-06
1.51449e-06
1.30173e-06
1.30306e-06
1.302e-06
1.30152e-06
1.51684e-06
1.51403e-06
1.30211e-06
1.30541e-06
1.30209e-06
1.30294e-06
1.30491e-06
1.30158e-06
1.30458e-06
1.52028e-06
1.51649e-06
1.30462e-06
1.30302e-06
1.30479e-06
1.51846e-06
1.51673e-06
1.51907e-06
1.30218e-06
1.30123e-06
1.30314e-06
1.30124e-06
1.51578e-06
1.51757e-06
1.30217e-06
1.30232e-06
1.30281e-06
1.30198e-06
1.30532e-06
1.30225e-06
1.30886e-06
1.51785e-06
1.51804e-06
1.30594e-06
1.30418e-06
1.31037e-06
1.5254e-06
1.5217e-06
1.52334e-06
1.30358e-06
1.30156e-06
1.30351e-06
1.30166e-06
1.52005e-06
1.52097e-06
1.30337e-06
1.30263e-06
1.30354e-06
1.30348e-06
1.3103e-06
1.30297e-06
1.30917e-06
1.521e-06
1.52451e-06
1.31208e-06
1.30594e-06
1.31085e-06
1.53392e-06
1.52497e-06
1.51726e-06
1.3028e-06
1.30159e-06
1.29459e-06
1.29645e-06
1.52284e-06
1.51751e-06
1.30277e-06
1.30279e-06
1.29367e-06
1.29267e-06
1.30504e-06
1.29483e-06
1.28769e-06
1.52605e-06
1.51539e-06
1.3061e-06
1.2911e-06
1.28656e-06
1.51507e-06
1.51799e-06
1.49471e-06
1.29134e-06
1.29355e-06
1.27619e-06
1.27908e-06
1.51855e-06
1.50046e-06
1.29014e-06
1.28874e-06
1.27453e-06
1.27257e-06
1.28155e-06
1.27663e-06
1.26103e-06
1.5158e-06
1.48849e-06
1.27959e-06
1.26818e-06
1.25717e-06
1.47081e-06
1.49428e-06
1.47807e-06
1.27121e-06
1.27426e-06
1.26204e-06
1.26253e-06
1.50013e-06
1.48073e-06
1.26958e-06
1.26791e-06
1.2617e-06
1.26207e-06
1.25733e-06
1.26206e-06
1.25983e-06
1.48815e-06
1.47566e-06
1.25351e-06
1.26025e-06
1.25835e-06
1.46374e-06
1.48032e-06
1.49319e-06
1.26249e-06
1.26234e-06
1.27003e-06
1.26853e-06
1.48223e-06
1.49074e-06
1.26265e-06
1.26419e-06
1.27123e-06
1.27495e-06
1.2662e-06
1.27083e-06
1.2836e-06
1.47925e-06
1.49985e-06
1.26565e-06
1.27821e-06
1.28602e-06
1.51219e-06
1.49937e-06
1.49142e-06
1.27361e-06
1.27173e-06
1.25872e-06
1.2573e-06
1.49593e-06
1.48774e-06
1.27495e-06
1.27888e-06
1.25927e-06
1.26102e-06
1.28845e-06
1.25843e-06
1.26465e-06
1.50727e-06
1.49743e-06
1.29156e-06
1.26353e-06
1.26731e-06
1.51042e-06
1.46982e-06
1.21931e-06
1.21837e-06
1.46679e-06
1.21929e-06
1.21992e-06
7.73862e-07
7.74902e-07
7.74746e-07
1.22151e-06
1.47444e-06
1.22303e-06
2.30685e-11
2.07733e-09
1.52071e-10
1.88506e-10
5.34546e-09
2.60835e-09
8.17249e-09
1.22913e-09
5.25397e-09
5.14054e-09
9.79076e-10
1.95063e-08
5.38617e-09
1.97231e-09
3.6554e-09
7.41397e-09
1.72045e-07
5.81449e-09
2.75241e-07
1.47829e-06
2.90166e-06
8.75414e-09
2.17505e-07
7.29417e-09
3.45165e-07
1.29516e-09
1.34617e-09
1.56732e-09
1.298e-09
1.28381e-09
1.32305e-09
1.55127e-09
4.76205e-09
8.68521e-08
3.3468e-09
3.53941e-09
5.01685e-09
6.44464e-08
3.30504e-09
1.46208e-06
2.94654e-06
4.60205e-09
3.90884e-09
1.05502e-07
7.48414e-09
4.82978e-09
3.80808e-09
8.15144e-08
2.09857e-07
2.1513e-07
4.96319e-09
1.77851e-07
1.84199e-07
1.67645e-08
4.93555e-07
1.19778e-08
7.21829e-07
6.66644e-06
9.73293e-06
1.80202e-08
6.16647e-07
1.32964e-08
9.08309e-07
1.26926e-09
1.29975e-09
1.5319e-09
1.21183e-09