/*--------------------------------*- C++ -*----------------------------------*\
| =========                 |                                                 |
| \\      /  F ield         | OpenFOAM: The Open Source CFD Toolbox           |
|  \\    /   O peration     | Version:  v2012                                 |
|   \\  /    A nd           | Website:  www.openfoam.com                      |
|    \\/     M anipulation  |                                                 |
\*---------------------------------------------------------------------------*/
FoamFile
{
    version     2.0;
    format      ascii;
    class       volScalarField;
    location    "1987.5";
    object      nut;
}
// * * * * * * * * * * * * * * * * * * * * * * * * * * * * * * * * * * * * * //

dimensions      [0 2 -1 0 0 0 0];


internalField   nonuniform List<scalar> 
171728
(
1.74351e-06
2.32784e-06
2.5474e-06
2.26773e-06
1.73006e-06
2.30088e-06
2.9152e-06
2.22366e-06
1.63445e-06
2.26971e-06
3.63025e-06
2.16803e-06
1.60183e-06
2.22972e-06
4.64585e-06
2.12091e-06
1.60251e-06
2.17667e-06
5.05951e-06
2.08453e-06
1.58095e-06
2.12461e-06
4.30994e-06
2.08204e-06
1.49149e-06
2.04903e-06
2.88326e-06
2.14203e-06
1.47163e-06
1.89484e-06
2.06627e-06
2.23471e-06
1.4734e-06
1.71096e-06
1.68531e-06
2.33876e-06
1.46256e-06
1.59951e-06
1.53882e-06
2.4291e-06
1.44587e-06
1.58801e-06
1.46446e-06
2.47539e-06
1.41385e-06
1.5397e-06
1.37204e-06
2.15894e-06
1.38429e-06
1.44312e-06
1.26185e-06
1.83049e-06
1.34542e-06
1.3441e-06
1.15507e-06
1.60265e-06
1.30571e-06
1.24667e-06
1.05577e-06
1.44839e-06
1.2705e-06
1.09359e-06
9.71034e-07
1.34821e-06
1.25009e-06
9.11789e-07
9.07432e-07
1.27826e-06
1.23328e-06
8.02174e-07
8.80064e-07
1.21652e-06
1.20964e-06
7.94283e-07
9.00782e-07
1.23048e-06
1.18586e-06
8.7285e-07
1.0352e-06
1.35249e-06
1.15788e-06
1.09235e-06
1.21707e-06
1.59848e-06
1.10598e-06
1.36123e-06
1.4644e-06
2.57738e-06
1.05822e-06
1.9369e-06
2.03501e-06
3.22737e-06
9.96908e-07
2.56845e-06
2.80422e-06
5.5866e-06
9.32406e-07
4.09694e-06
3.59969e-06
8.67388e-06
8.9251e-07
4.6009e-06
5.48467e-06
1.24513e-05
8.51969e-07
6.71244e-06
6.47324e-06
1.58761e-05
8.56545e-07
9.70298e-06
9.33121e-06
2.65232e-05
9.21148e-07
1.01019e-05
1.13697e-05
2.75068e-05
9.67929e-07
1.59689e-05
1.39689e-05
4.25584e-05
1.21156e-06
1.81958e-05
1.94955e-05
4.23078e-05
1.22104e-06
1.80856e-05
1.93647e-05
4.91132e-05
1.64105e-06
3.25635e-05
2.79542e-05
6.01722e-05
2.38759e-06
3.6282e-05
3.07005e-05
6.63666e-05
2.36519e-06
3.07233e-05
3.56225e-05
6.90858e-05
2.95983e-06
4.14562e-05
4.12323e-05
7.09938e-05
5.31372e-06
4.99198e-05
4.55437e-05
8.19121e-05
4.93936e-06
6.74e-05
5.41139e-05
8.48813e-05
6.72843e-06
5.30789e-05
5.90492e-05
8.64271e-05
1.14127e-05
4.52584e-05
6.37819e-05
9.15436e-05
1.07385e-05
9.33988e-05
7.01744e-05
9.54496e-05
1.50378e-05
0.000101503
7.94663e-05
0.000102088
2.2285e-05
7.41263e-05
8.14791e-05
0.000102921
1.96978e-05
7.27067e-05
8.90429e-05
0.000102961
1.98142e-05
0.000106745
9.414e-05
0.000112839
3.36471e-05
0.000111733
0.000102571
0.000117399
3.83381e-05
0.000104673
0.00010628
0.000116202
3.31848e-05
0.000106532
0.000107911
0.000122754
4.94119e-05
0.000121839
0.000121081
0.00012498
5.4485e-05
0.000118946
0.000119388
0.000127402
5.00447e-05
0.000123719
0.000124521
0.000134932
7.09896e-05
0.000136428
0.000133642
0.000132775
7.08215e-05
0.000131383
0.000132685
0.000137472
6.93867e-05
0.000135288
0.000138078
0.000143231
9.55991e-05
0.000151151
0.000148741
0.000145688
9.91057e-05
0.000147052
0.00014866
0.00014764
8.79867e-05
0.000144653
0.00014522
0.000146498
0.000102124
0.000157417
0.000158387
0.000154481
0.0001246
0.000164985
0.000161561
0.000155577
0.000126249
0.00015936
0.000160306
0.000155507
0.000129917
0.000160456
0.0001696
0.000163627
0.000127653
0.000178867
0.000172304
0.000166791
0.000122603
0.000177111
0.000168006
0.000157462
0.000141381
0.000170123
0.000175353
0.000171006
0.000167673
0.000180315
0.000190589
0.000181906
0.00017384
0.000190878
0.000188053
0.000172837
0.000161458
0.000188851
0.000178224
0.000159486
0.000150293
0.000181208
0.000182503
0.000171742
0.000163733
0.000187908
0.000196655
0.000190252
0.000187605
0.000200553
0.000199891
0.00018881
0.000196305
0.000204348
0.000199865
0.000178233
0.000196029
0.000200684
0.000200315
0.000176506
0.000187723
0.000198882
0.000198339
0.000186359
0.000180763
0.000201569
0.000203403
0.000192011
0.000206316
0.000201915
0.000209862
0.000188694
0.00022762
0.000214025
0.000208547
0.000186079
0.000217099
0.000218534
0.000208284
0.000191883
0.000196393
0.000208508
0.000213606
0.000192703
0.000207292
0.000206163
0.000216154
0.000191786
0.000240345
0.000218185
0.00021633
0.000193769
0.000241585
0.00022432
0.000216544
0.000197796
0.000227335
0.000223611
0.000221104
0.000198054
0.000219182
0.00021345
0.00022061
0.000194481
0.00022444
0.00021707
0.00021897
0.000199164
0.00024577
0.000228944
0.000224473
0.000202448
0.000249446
0.000226942
0.000225001
0.000196992
0.00023968
0.000222976
0.000224028
0.00019784
0.000236276
0.00022163
0.000222487
0.000196675
0.000239275
0.000223415
0.000221533
0.000194743
0.000245734
0.000226656
0.000229551
0.000207184
0.000255366
0.000233375
0.000238248
0.000218807
0.000259543
0.000235632
0.00023202
0.000201801
0.00024268
0.000218327
0.00021042
0.000176264
0.00023465
0.000214791
0.000212032
0.00018967
0.000253456
0.000234839
0.000242794
0.000225265
2.57933e-06
2.74833e-06
2.08419e-06
2.49083e-06
3.73702e-06
2.06179e-06
1.67917e-06
1.40517e-06
1.58118e-06
1.59785e-06
2.88976e-06
1.99747e-06
2.19872e-06
2.42443e-06
2.37348e-06
2.272e-06
2.57846e-06
2.57002e-06
2.26472e-06
1.60531e-06
2.39499e-06
1.60162e-06
2.49091e-06
2.45277e-06
1.38008e-05
1.8138e-06
1.18594e-05
1.79739e-06
1.63171e-06
2.30668e-06
1.59468e-06
2.19603e-06
2.20852e-06
2.07614e-06
2.79322e-06
2.06507e-06
2.22614e-06
2.54274e-06
2.42667e-06
2.46341e-06
1.60387e-06
2.72191e-06
1.61339e-06
2.45106e-06
2.40612e-06
9.64406e-06
1.79402e-06
4.49112e-06
1.7816e-06
1.58546e-06
2.278e-06
1.56135e-06
2.19025e-06
2.25985e-06
2.03733e-06
3.43125e-06
1.94737e-06
2.17039e-06
2.3943e-06
2.33463e-06
2.83348e-06
1.61856e-06
3.26011e-06
1.64185e-06
2.40519e-06
2.36618e-06
3.57387e-06
1.77695e-06
2.37107e-06
1.7643e-06
1.55434e-06
2.23916e-06
1.53641e-06
2.24287e-06
2.34524e-06
1.93309e-06
4.38709e-06
1.91692e-06
2.12343e-06
2.32212e-06
2.38046e-06
3.39252e-06
1.65006e-06
3.98523e-06
1.67801e-06
2.37174e-06
2.34914e-06
2.22622e-06
1.76029e-06
2.01979e-06
1.74358e-06
1.5311e-06
2.19119e-06
1.51689e-06
2.33111e-06
2.39193e-06
1.92093e-06
5.04822e-06
1.98163e-06
2.08885e-06
2.36854e-06
2.46762e-06
4.21308e-06
1.68794e-06
4.41703e-06
1.71273e-06
2.36111e-06
2.33229e-06
1.9745e-06
1.73551e-06
1.86035e-06
1.71007e-06
1.51219e-06
2.1361e-06
1.50461e-06
2.37429e-06
2.3087e-06
2.00855e-06
4.63485e-06
2.10686e-06
2.08707e-06
2.45797e-06
2.29609e-06
4.18655e-06
1.71779e-06
3.1459e-06
1.72498e-06
2.33921e-06
2.30166e-06
1.83038e-06
1.7019e-06
1.72807e-06
1.67483e-06
1.50234e-06
2.07442e-06
1.4967e-06
2.29514e-06
2.23019e-06
2.15969e-06
3.18968e-06
2.35156e-06
2.14448e-06
2.2669e-06
2.02244e-06
2.78064e-06
1.72445e-06
1.946e-06
1.71978e-06
2.29612e-06
2.21371e-06
1.69551e-06
1.66267e-06
1.54921e-06
1.62286e-06
1.49835e-06
1.94038e-06
1.50895e-06
2.21453e-06
2.04078e-06
2.436e-06
2.22156e-06
2.80028e-06
2.24027e-06
2.00646e-06
1.87674e-06
1.76984e-06
1.71698e-06
1.48342e-06
1.68881e-06
2.20465e-06
2.10886e-06
1.51037e-06
1.609e-06
1.51214e-06
1.56504e-06
1.51218e-06
1.75422e-06
1.52011e-06
2.02735e-06
1.9281e-06
2.94732e-06
1.74914e-06
3.43114e-06
2.33615e-06
1.86664e-06
1.77594e-06
1.44423e-06
1.67307e-06
1.39535e-06
1.61235e-06
2.09784e-06
1.98023e-06
1.52451e-06
1.54807e-06
1.48171e-06
1.49987e-06
1.51964e-06
1.61517e-06
1.51643e-06
1.92267e-06
1.86814e-06
3.60198e-06
1.56191e-06
4.09184e-06
2.44076e-06
1.76921e-06
1.69784e-06
1.39035e-06
1.58915e-06
1.38508e-06
1.52718e-06
1.96721e-06
1.86908e-06
1.4638e-06
1.48328e-06
1.43264e-06
1.42503e-06
1.51539e-06
1.58808e-06
1.50563e-06
1.86336e-06
1.79748e-06
4.2315e-06
1.4818e-06
4.55805e-06
2.4922e-06
1.68883e-06
1.62035e-06
1.38222e-06
1.5076e-06
1.36398e-06
1.44035e-06
1.85903e-06
1.78862e-06
1.42653e-06
1.40336e-06
1.3976e-06
1.32936e-06
1.50016e-06
1.55662e-06
1.47541e-06
1.79058e-06
1.69788e-06
4.57151e-06
1.3997e-06
3.73751e-06
2.19669e-06
1.60904e-06
1.55092e-06
1.35813e-06
1.41432e-06
1.3413e-06
1.32713e-06
1.77405e-06
1.67424e-06
1.38105e-06
1.30249e-06
1.33055e-06
1.22127e-06
1.46668e-06
1.46471e-06
1.43068e-06
1.6875e-06
1.5833e-06
3.40243e-06
1.28864e-06
2.45965e-06
1.85983e-06
1.53716e-06
1.48769e-06
1.33777e-06
1.29469e-06
1.31794e-06
1.19915e-06
1.65546e-06
1.55508e-06
1.30997e-06
1.19446e-06
1.25525e-06
1.11698e-06
1.41715e-06
1.36389e-06
1.36301e-06
1.56948e-06
1.46208e-06
2.19543e-06
1.18019e-06
1.61978e-06
1.62729e-06
1.47185e-06
1.42569e-06
1.30737e-06
1.17089e-06
1.2611e-06
1.09647e-06
1.53197e-06
1.42971e-06
1.23839e-06
1.09217e-06
1.19945e-06
1.02484e-06
1.34195e-06
1.26773e-06
1.27218e-06
1.44453e-06
1.34184e-06
1.49379e-06
1.07983e-06
1.28163e-06
1.47182e-06
1.40584e-06
1.34656e-06
1.23933e-06
1.07582e-06
1.1605e-06
1.01702e-06
1.40257e-06
1.29362e-06
1.18765e-06
1.00423e-06
1.13845e-06
9.4687e-07
1.24949e-06
1.14054e-06
1.17743e-06
1.32048e-06
1.2294e-06
1.2518e-06
9.90563e-07
1.17464e-06
1.37323e-06
1.32099e-06
1.23621e-06
1.13031e-06
1.00617e-06
1.0585e-06
9.79919e-07
1.26366e-06
1.16008e-06
1.11828e-06
9.32413e-07
1.05528e-06
8.93671e-07
1.15411e-06
9.47507e-07
1.09556e-06
1.20677e-06
1.13114e-06
1.1614e-06
9.18742e-07
1.16867e-06
1.29167e-06
1.21093e-06
1.12017e-06
1.03931e-06
9.68441e-07
1.00935e-06
9.59848e-07
1.12359e-06
1.03231e-06
1.03693e-06
8.79092e-07
9.84985e-07
8.6257e-07
1.08415e-06
8.25651e-07
1.03956e-06
1.11226e-06
1.06992e-06
1.17448e-06
8.81498e-07
1.18349e-06
1.22787e-06
1.10549e-06
1.07206e-06
1.0007e-06
9.60573e-07
1.01118e-06
9.92847e-07
1.01586e-06
1.00368e-06
9.7093e-07
8.60123e-07
9.7561e-07
8.8094e-07
1.02754e-06
7.66102e-07
1.02845e-06
1.05822e-06
1.0598e-06
1.19035e-06
9.00584e-07
1.2355e-06
1.22336e-06
1.0823e-06
1.11651e-06
1.01887e-06
1.02547e-06
1.06438e-06
1.05716e-06
1.03293e-06
1.08873e-06
9.81457e-07
8.83575e-07
1.02793e-06
9.7087e-07
1.03382e-06
8.34705e-07
1.07695e-06
1.06863e-06
1.17073e-06
1.23152e-06
9.92312e-07
1.29189e-06
1.308e-06
1.15334e-06
1.42269e-06
1.09224e-06
1.10019e-06
1.23906e-06
1.26908e-06
1.11021e-06
1.44596e-06
1.05156e-06
1.01407e-06
1.20952e-06
1.10808e-06
1.11203e-06
1.01032e-06
1.24449e-06
1.23572e-06
1.40861e-06
1.32405e-06
1.11694e-06
1.34045e-06
1.55017e-06
1.51046e-06
1.93443e-06
1.27428e-06
1.37309e-06
1.53708e-06
1.59556e-06
1.53765e-06
1.96944e-06
1.24026e-06
1.20961e-06
1.486e-06
1.34057e-06
1.28853e-06
1.26943e-06
1.60128e-06
1.4991e-06
2.01501e-06
1.39686e-06
1.36563e-06
1.75077e-06
2.37284e-06
2.18668e-06
2.86356e-06
1.65969e-06
1.72776e-06
1.93857e-06
2.32087e-06
2.04149e-06
3.56147e-06
1.60814e-06
1.44106e-06
1.83221e-06
1.94031e-06
1.73399e-06
1.83016e-06
1.9018e-06
2.06665e-06
3.43268e-06
1.80119e-06
1.93033e-06
1.89857e-06
3.03424e-06
3.06042e-06
5.09329e-06
2.11903e-06
2.47918e-06
2.73419e-06
3.10441e-06
3.95796e-06
4.43652e-06
2.02336e-06
2.03744e-06
2.60147e-06
2.60859e-06
2.13902e-06
2.39222e-06
2.55508e-06
3.77011e-06
5.00827e-06
2.09983e-06
2.57012e-06
2.65103e-06
5.24046e-06
5.47244e-06
7.1523e-06
2.90251e-06
3.15538e-06
3.64145e-06
4.44265e-06
4.92349e-06
8.06719e-06
2.74371e-06
2.86985e-06
3.47998e-06
3.45323e-06
2.79859e-06
3.63857e-06
3.67984e-06
5.61718e-06
7.42621e-06
2.91482e-06
3.50064e-06
3.61262e-06
8.04528e-06
7.87812e-06
1.13966e-05
3.88969e-06
5.14721e-06
5.09245e-06
5.56492e-06
9.09985e-06
1.18524e-05
3.73997e-06
3.53376e-06
4.89907e-06
4.89792e-06
3.70641e-06
4.37251e-06
5.25049e-06
7.7047e-06
1.08947e-05
3.73456e-06
4.8023e-06
5.20861e-06
1.11628e-05
1.23719e-05
1.57352e-05
5.59678e-06
5.38296e-06
6.11786e-06
6.5676e-06
1.1529e-05
1.47569e-05
5.32779e-06
5.64503e-06
5.97458e-06
6.33053e-06
5.724e-06
6.31175e-06
5.89847e-06
1.23721e-05
1.77274e-05
5.53993e-06
6.24427e-06
5.97826e-06
1.55626e-05
1.62218e-05
2.22696e-05
6.67282e-06
7.10425e-06
8.90937e-06
9.64771e-06
1.68821e-05
2.37507e-05
6.56206e-06
6.43093e-06
8.73759e-06
8.70612e-06
6.80812e-06
8.81132e-06
9.5252e-06
1.76759e-05
2.10168e-05
7.0487e-06
8.67105e-06
9.18608e-06
2.60467e-05
2.39246e-05
2.77197e-05
9.12434e-06
1.08544e-05
1.07101e-05
1.16245e-05
2.49129e-05
3.01475e-05
8.94236e-06
9.48614e-06
1.03001e-05
1.08175e-05
9.40745e-06
1.01864e-05
1.02667e-05
2.34763e-05
3.02703e-05
9.0366e-06
1.08396e-05
1.04301e-05
2.48623e-05
2.90619e-05
3.89112e-05
1.20331e-05
1.13164e-05
1.43805e-05
1.50263e-05
3.00385e-05
3.48405e-05
1.16344e-05
1.13562e-05
1.43811e-05
1.33323e-05
1.26528e-05
1.47742e-05
1.57585e-05
3.05321e-05
3.48885e-05
1.19962e-05
1.30781e-05
1.45538e-05
4.23544e-05
4.01178e-05
4.14848e-05
1.42708e-05
1.69451e-05
1.7326e-05
1.92364e-05
3.90586e-05
4.71622e-05
1.42916e-05
1.43547e-05
1.67278e-05
1.86149e-05
1.54978e-05
1.76953e-05
1.63568e-05
3.70165e-05
4.57931e-05
1.49391e-05
1.85263e-05
1.69419e-05
4.11689e-05
4.34659e-05
5.20621e-05
1.95645e-05
1.92565e-05
2.14393e-05
1.80967e-05
4.66627e-05
4.42277e-05
1.88342e-05
1.92634e-05
2.10778e-05
1.90248e-05
1.73735e-05
1.76263e-05
1.93097e-05
4.70876e-05
4.86351e-05
1.77343e-05
1.92366e-05
1.9643e-05
4.79612e-05
5.22191e-05
5.37552e-05
2.09592e-05
1.83452e-05
2.3252e-05
2.86351e-05
4.58736e-05
6.11333e-05
2.07716e-05
1.98522e-05
2.34859e-05
2.64739e-05
1.99425e-05
2.7908e-05
2.5938e-05
4.93873e-05
5.66541e-05
2.03528e-05
2.61445e-05
2.54365e-05
5.75797e-05
5.64178e-05
6.68779e-05
2.70723e-05
3.26121e-05
3.35846e-05
3.45346e-05
6.47093e-05
6.79197e-05
2.60072e-05
2.81068e-05
3.21583e-05
2.95007e-05
2.88151e-05
3.72068e-05
3.19694e-05
5.90699e-05
6.4513e-05
2.80732e-05
2.96856e-05
3.1264e-05
6.58269e-05
6.73376e-05
6.6643e-05
3.34098e-05
3.34553e-05
3.24903e-05
2.95947e-05
6.7187e-05
6.23716e-05
3.26421e-05
3.08405e-05
3.34038e-05
3.50668e-05
3.17819e-05
3.18727e-05
3.50753e-05
6.51607e-05
6.73304e-05
3.10204e-05
3.50267e-05
3.54169e-05
6.82553e-05
6.7202e-05
7.21675e-05
3.43126e-05
2.89919e-05
3.77952e-05
4.15322e-05
6.27962e-05
7.29742e-05
3.43867e-05
3.54706e-05
3.80914e-05
3.93593e-05
3.61395e-05
3.81917e-05
3.60741e-05
6.85103e-05
7.33067e-05
3.73109e-05
3.88597e-05
3.72896e-05
7.00946e-05
7.37703e-05
8.07498e-05
3.93648e-05
4.39405e-05
4.92197e-05
4.45972e-05
7.49912e-05
7.97228e-05
3.93627e-05
4.15744e-05
4.8699e-05
4.53667e-05
3.69365e-05
4.49489e-05
4.4344e-05
7.44087e-05
7.67912e-05
3.75935e-05
4.50651e-05
4.52135e-05
7.98645e-05
8.15652e-05
8.02359e-05
5.11892e-05
4.72241e-05
4.98257e-05
6.10432e-05
8.2588e-05
9.23032e-05
5.15352e-05
4.55783e-05
5.12993e-05
5.04348e-05
4.78725e-05
6.64355e-05
5.93917e-05
7.77095e-05
8.36146e-05
4.95425e-05
5.06771e-05
5.5676e-05
8.47985e-05
8.02376e-05
8.8712e-05
4.89097e-05
6.23742e-05
5.66804e-05
5.80972e-05
9.21961e-05
8.02246e-05
5.00464e-05
5.40541e-05
5.05652e-05
6.05545e-05
6.18043e-05
5.94624e-05
6.1473e-05
8.51383e-05
8.74094e-05
5.48708e-05
5.9536e-05
5.16023e-05
8.53363e-05
9.0985e-05
9.17399e-05
6.16658e-05
5.53201e-05
6.82106e-05
5.04891e-05
7.91529e-05
8.20806e-05
5.63057e-05
6.02576e-05
6.95831e-05
6.00211e-05
6.01889e-05
4.52766e-05
5.61942e-05
8.75611e-05
8.87528e-05
5.16659e-05
6.04181e-05
6.71352e-05
9.08845e-05
9.14119e-05
9.29005e-05
6.74821e-05
5.08416e-05
6.42136e-05
7.38874e-05
8.53512e-05
0.000103861
7.16094e-05
6.29857e-05
7.17351e-05
6.91859e-05
5.5945e-05
8.27681e-05
6.67838e-05
9.00184e-05
9.50519e-05
7.137e-05
6.96061e-05
7.64189e-05
9.41385e-05
9.44175e-05
0.000100857
6.42038e-05
8.01107e-05
7.81427e-05
8.81582e-05
0.000105752
0.000106687
7.09003e-05
6.95487e-05
7.28505e-05
7.64373e-05
7.13069e-05
0.000102561
8.47589e-05
9.57823e-05
9.89819e-05
7.62846e-05
7.6252e-05
7.38791e-05
0.000101193
0.000102424
0.000105106
8.31816e-05
8.74763e-05
9.11877e-05
8.02924e-05
0.000106247
9.74586e-05
7.83686e-05
8.0065e-05
8.60585e-05
8.31275e-05
8.73606e-05
7.98665e-05
8.63202e-05
0.000100255
0.000102715
7.34411e-05
8.21325e-05
8.27242e-05
0.000103183
0.000105062
0.000103412
9.08088e-05
7.70875e-05
8.60691e-05
7.26726e-05
9.67954e-05
9.84301e-05
8.59991e-05
8.24053e-05
8.57755e-05
8.56434e-05
8.45521e-05
6.83728e-05
7.94303e-05
0.000102915
0.000105101
8.50281e-05
8.59066e-05
8.69139e-05
0.000101904
0.000103313
0.000108432
8.42947e-05
7.62649e-05
8.42528e-05
9.8108e-05
0.000101617
0.000116637
8.59822e-05
8.8626e-05
9.02862e-05
9.37417e-05
7.94874e-05
0.000101246
9.21442e-05
0.00010632
0.000110216
8.76389e-05
9.39458e-05
9.25444e-05
0.00011134
0.000110828
0.000117924
9.04177e-05
0.000103079
0.000105582
0.000108381
0.000118104
0.000119228
9.31183e-05
9.47605e-05
0.000104443
0.000100853
9.61352e-05
0.000112511
0.000106211
0.000110954
0.000114934
9.56099e-05
9.91284e-05
0.000105231
0.000117161
0.000118382
0.000116847
0.000108255
0.000107465
0.000107536
0.000101664
0.00011884
0.000114656
0.000106887
0.000102824
0.000106209
0.000102837
0.000107224
0.000106594
0.000104964
0.000115851
0.000116627
0.000106324
0.000106976
0.000104367
0.000116287
0.00011641
0.000118446
0.000106231
9.99587e-05
0.000103395
0.00010076
0.00011418
0.000117809
0.000105006
0.000102795
0.000103521
0.000108453
0.000103905
0.000102268
0.000106806
0.00011663
0.000120013
0.000103424
0.000105085
0.000108384
0.000120769
0.000120303
0.000128133
0.000105381
0.000107584
0.000120238
0.000122684
0.000120608
0.00012928
0.000107555
0.000111846
0.000120262
0.000121053
0.00011195
0.000120414
0.000117967
0.000121623
0.000128006
0.000112772
0.000119485
0.000116522
0.00012526
0.000128357
0.000126448
0.0001219
0.000124162
0.000120318
0.000121645
0.00012954
0.000127114
0.000121522
0.000121907
0.000119599
0.000119343
0.000117452
0.000120063
0.000115993
0.000128339
0.000126733
0.000115784
0.000119998
0.000115414
0.000125764
0.000126113
0.000130901
0.000119346
0.000119714
0.000121049
0.000116792
0.000126622
0.000127966
0.0001186
0.000118095
0.000120703
0.000117794
0.000118001
0.000119828
0.000128614
0.000126314
0.000129576
0.0001192
0.000122723
0.000129456
0.000134663
0.000133099
0.000136962
0.000125848
0.00011935
0.000132385
0.000135824
0.000130026
0.00014002
0.000125801
0.000122985
0.000134203
0.000135705
0.00013005
0.000135456
0.000128891
0.000131377
0.000137945
0.000130402
0.000131963
0.000128554
0.000133162
0.000136684
0.000134385
0.000132137
0.000137363
0.000129919
0.000134361
0.000140383
0.000135142
0.00013435
0.000136978
0.000131956
0.00013515
0.000128054
0.00013314
0.000129514
0.000138358
0.000136798
0.000127661
0.000133397
0.00013025
0.000135646
0.000134503
0.000141512
0.000129869
0.000132331
0.000138232
0.000130117
0.000134258
0.000135464
0.000131115
0.000134008
0.000135654
0.000132988
0.000133447
0.00012998
0.000141037
0.000136392
0.000139177
0.00013452
0.000135143
0.000139743
0.000142946
0.000143526
0.000149701
0.000142016
0.00013377
0.000150541
0.000150898
0.000139292
0.000152064
0.000139227
0.000136436
0.00014861
0.000146826
0.000141593
0.00015045
0.000142647
0.000140994
0.00014773
0.000139714
0.000146668
0.000143297
0.00014477
0.000149748
0.000143561
0.000150685
0.000151976
0.00014612
0.000148851
0.000152075
0.000145381
0.000149323
0.000148818
0.000146613
0.000148928
0.000144732
0.000148403
0.000149515
0.000148242
0.000147196
0.000146036
0.000149451
0.000149542
0.000147885
0.000142663
0.000141956
0.000143313
0.000146969
0.00013968
0.000143924
0.000144818
0.000144136
0.000144812
0.000147994
0.000142628
0.000145
0.000149473
0.00014459
0.000147628
0.000146806
0.000144554
0.000149029
0.000145618
0.000146791
0.000146249
0.000144253
0.000157352
0.000140429
0.000143532
0.000157383
0.000153274
0.000145006
0.000153784
0.000144914
0.000144872
0.000158864
0.000156185
0.000147154
0.000153906
0.000153178
0.000145228
0.000154868
0.000146385
0.000154985
0.000154629
0.000153313
0.000158133
0.000157288
0.000161113
0.000157563
0.000164806
0.000165809
0.000155356
0.000160098
0.000160924
0.000159452
0.000161323
0.00016174
0.000156317
0.000164798
0.000160846
0.000156134
0.000156316
0.000157609
0.000161886
0.00016078
0.000155768
0.000157055
0.000160086
0.000165028
0.000166143
0.000166706
0.000163295
0.000160172
0.000155003
0.0001609
0.000161198
0.000162023
0.000159641
0.000161293
0.00016147
0.000160825
0.000155988
0.000155488
0.000160422
0.000160172
0.000158841
0.000155186
0.000161344
0.000162465
0.000167316
0.000161179
0.00016714
0.000158531
0.000154083
0.000153513
0.000164942
0.000160023
0.000169524
0.000169205
0.000160785
0.000157277
0.000165827
0.000156384
0.000163182
0.000158874
0.0001676
0.000167053
0.000161898
0.00016203
0.000156584
0.000166438
0.000159604
0.000163628
0.000174068
0.000155755
0.000169295
0.000169203
0.000171249
0.000165866
0.00017188
0.00016922
0.000176662
0.000174458
0.00016389
0.000163961
0.000170742
0.000172662
0.000175025
0.000167163
0.000156016
0.000157813
0.000162814
0.000176933
0.000164953
0.000178461
0.000170514
0.000169509
0.00016459
0.000171149
0.000162704
0.000166903
0.00017396
0.000179206
0.000168557
0.000163602
0.000159711
0.000174398
0.000168976
0.000168097
0.000158104
0.000159229
0.000169374
0.000167539
0.000177388
0.000176874
0.00017162
0.000168718
0.000161825
0.000164223
0.000166102
0.000176209
0.000171431
0.00016755
0.000170933
0.000171873
0.000159188
0.000164932
0.000167091
0.000169658
0.00017208
0.000167296
0.000171682
0.000180881
0.000180676
0.000170785
0.000190276
0.000175983
0.00016131
0.000167876
0.000180739
0.000176944
0.000191706
0.000190294
0.000178368
0.000175513
0.000190184
0.00016778
0.000179932
0.000178941
0.000188894
0.000190745
0.000181798
0.00018136
0.000178793
0.000191635
0.000180618
0.000191993
0.000189715
0.000170331
0.000178309
0.00019332
0.000192089
0.00019375
0.000192038
0.000191236
0.000189732
0.000189679
0.000180471
0.000176347
0.000191639
0.000190574
0.00018931
0.000174778
0.00017761
0.000167091
0.000190097
0.000190787
0.000181994
0.000190657
0.000178693
0.000176695
0.000191266
0.000188761
0.000179914
0.000178371
0.000186039
0.000190752
0.00017506
0.000174811
0.000165716
0.000185209
0.000179513
0.000173856
0.00016039
0.000166083
0.000165391
0.000179743
0.000188993
0.000176652
0.000182678
0.000175933
0.000169863
0.000177338
0.00017697
0.000174579
0.000177433
0.000173366
0.000182139
0.000174147
0.000165118
0.00017023
0.000172293
0.000178119
0.00017462
0.000167669
0.00016682
0.000179385
0.000176779
0.000181642
0.000188998
0.000182129
0.000169325
0.000173054
0.000176081
0.000182417
0.000191746
0.000194278
0.000180916
0.000183771
0.000199728
0.000172751
0.00018188
0.000182546
0.00019438
0.000201242
0.000188924
0.000181411
0.00018641
0.000193288
0.00018607
0.000201336
0.00019682
0.000174811
0.000182877
0.000195704
0.000196436
0.000201738
0.000199121
0.000203216
0.00019805
0.000206121
0.000182581
0.000183284
0.000204343
0.00019968
0.000206411
0.000189899
0.000186406
0.00018562
0.000202368
0.000199706
0.000203044
0.000204947
0.00018407
0.000188157
0.000202168
0.00019935
0.000201699
0.000199702
0.000205625
0.000204197
0.000197532
0.000183148
0.000183678
0.000205421
0.000199838
0.000196145
0.000179199
0.000185501
0.000185836
0.000203018
0.000205464
0.00020271
0.000204772
0.000188253
0.000186101
0.0002015
0.000200252
0.000201631
0.000201918
0.000195136
0.000201971
0.000192231
0.000184053
0.000185606
0.000193998
0.00020044
0.00019179
0.000175948
0.000185645
0.000179818
0.000202409
0.000203283
0.000197036
0.000198696
0.000185542
0.000182154
0.000201634
0.00020188
0.000198268
0.000198817
0.000192159
0.000198974
0.000199969
0.000185386
0.000181337
0.00019226
0.000198776
0.000200563
0.000184737
0.000178566
0.000175399
0.000194487
0.000197481
0.000191247
0.000195556
0.000181841
0.000182596
0.000195859
0.000197781
0.000192688
0.000197222
0.000203184
0.000201392
0.000209167
0.000180881
0.000183325
0.000203166
0.00020019
0.000208801
0.000191947
0.000176648
0.000194159
0.000191935
0.000195659
0.000210438
0.000202399
0.000182604
0.000184169
0.000193115
0.000199517
0.000209349
0.000208737
0.000209603
0.000201297
0.000208202
0.000184994
0.000191551
0.000209549
0.000209352
0.000209298
0.000189348
0.000197187
0.000206783
0.000216853
0.000205783
0.000226589
0.000216976
0.000185095
0.000194859
0.000215074
0.000210521
0.00022376
0.000212112
0.000206687
0.00021072
0.000204912
0.000191791
0.000190412
0.000208108
0.000209269
0.000205475
0.000186167
0.000206448
0.000188365
0.000227146
0.000219296
0.000212539
0.000220491
0.000196294
0.000198991
0.000224256
0.000212066
0.000212759
0.000209987
0.000204968
0.000218436
0.000211182
0.00018997
0.000188438
0.00020526
0.000207891
0.000208389
0.000191125
0.000184802
0.000173373
0.000204891
0.00021771
0.000192708
0.000204106
0.000197567
0.000186222
0.000206488
0.000209387
0.000196677
0.000208821
0.000212836
0.000211082
0.000214057
0.000188505
0.000191547
0.000210559
0.000212672
0.000213769
0.00019295
0.000172911
0.000192558
0.000191878
0.000201868
0.00020667
0.000201506
0.000184989
0.000185573
0.000196066
0.000209247
0.000209223
0.000214863
0.00021374
0.00020579
0.000211943
0.000192076
0.000195377
0.000213893
0.000215682
0.000213526
0.000191868
0.000196299
0.000209086
0.000215794
0.000206406
0.000232476
0.000221244
0.000187436
0.000197538
0.000216681
0.000216657
0.000228804
0.000218845
0.000211686
0.000215542
0.00021333
0.000195628
0.000195466
0.000213444
0.000216449
0.000214512
0.000193366
0.000209138
0.000201249
0.000234031
0.000224274
0.000231159
0.000228139
0.000198506
0.000201626
0.000229603
0.000218926
0.000224549
0.000217052
0.000214973
0.000223487
0.000219938
0.000195162
0.000193895
0.000215257
0.000216227
0.000218611
0.000197357
0.000199483
0.000193471
0.000226622
0.000228476
0.000217182
0.000223446
0.000201728
0.000200219
0.000221202
0.000216763
0.000216248
0.000217816
0.000221139
0.000224907
0.000222301
0.000193796
0.000197002
0.000219729
0.000220321
0.000221122
0.000198449
0.000192922
0.000189032
0.000214645
0.000220251
0.000208859
0.000210817
0.000198988
0.000189597
0.000215613
0.000219212
0.000213836
0.000220496
0.000222118
0.000214971
0.000218355
0.000197464
0.000197764
0.000221163
0.000221448
0.000219415
0.000194805
0.000188503
0.000193671
0.000208213
0.000209533
0.00021313
0.00021139
0.000188688
0.000192597
0.000213471
0.00022018
0.000215481
0.000218985
0.000217836
0.00021348
0.000218883
0.000197196
0.000195323
0.000219118
0.000218965
0.000220024
0.000197944
0.000195701
0.000206287
0.00021868
0.000217117
0.000230908
0.0002294
0.000194895
0.000204922
0.00021927
0.000219075
0.000228976
0.000224125
0.000221646
0.000227747
0.000226227
0.000195348
0.000200441
0.000222053
0.000223343
0.000225506
0.000202885
0.000206658
0.000204052
0.000232499
0.000230828
0.000232517
0.00023075
0.000205059
0.000202434
0.0002304
0.000225318
0.000230635
0.000226252
0.000226525
0.000228708
0.000223536
0.000200691
0.000200293
0.000225759
0.000225463
0.000223209
0.000197518
0.000202599
0.000197015
0.000229417
0.000228436
0.000222441
0.000223532
0.000201533
0.000198454
0.000228109
0.000225473
0.000222378
0.000223668
0.00022247
0.000223537
0.000221911
0.000199853
0.000199047
0.00022236
0.000224065
0.00022205
0.000197522
0.000196632
0.000196355
0.00022132
0.00022269
0.00022018
0.000221548
0.000198205
0.000197427
0.000221559
0.000223599
0.000220942
0.000223695
0.000222176
0.000221785
0.000222106
0.000198993
0.00019909
0.000222317
0.000223272
0.000221839
0.000197449
0.000196355
0.000197752
0.000220195
0.000221528
0.000222264
0.000222797
0.000197213
0.000198208
0.000221052
0.000223501
0.000222305
0.000222573
0.000221255
0.000222286
0.00021999
0.000198729
0.000196889
0.000220633
0.00022135
0.000219169
0.000194257
0.000197975
0.000200746
0.000223367
0.000223499
0.000225873
0.000224933
0.000198471
0.000199983
0.000223138
0.000222508
0.000225738
0.000225376
0.000220625
0.000225827
0.000229707
0.000196719
0.000201227
0.000219925
0.00022706
0.000230506
0.000205099
0.000201284
0.000206991
0.000226948
0.00022554
0.000232411
0.000229981
0.000200159
0.000204292
0.000227097
0.000227231
0.000233199
0.000234065
0.000233723
0.000231604
0.000242703
0.000202218
0.00020905
0.000235141
0.000236932
0.000245215
0.000218486
0.000207643
0.000208388
0.000234024
0.000232049
0.000236534
0.00023576
0.00020516
0.000208989
0.000234728
0.000235513
0.000236791
0.000236898
0.000243958
0.000236303
0.000236569
0.000209497
0.000207374
0.000246608
0.000237573
0.000237232
0.000206285
0.000206543
0.000193419
0.000235355
0.000235969
0.000221892
0.000225122
0.000208185
0.000196344
0.0002347
0.000233598
0.00022045
0.000218011
0.000228435
0.000221985
0.000207125
0.00020493
0.000189347
0.000228019
0.000214035
0.000204241
0.000178155
0.000191776
0.000189493
0.000218454
0.000221125
0.000214677
0.000215853
0.00019457
0.000190316
0.000217137
0.000214579
0.000213835
0.000211657
0.000203886
0.00021437
0.000204848
0.00018756
0.000187479
0.00020075
0.000208377
0.000202138
0.000184798
0.000190819
0.000207118
0.000214964
0.000215648
0.000231491
0.000229088
0.000190728
0.000204874
0.000214574
0.000213305
0.000233171
0.000235773
0.000213426
0.000232443
0.000245118
0.000190151
0.000211019
0.000212062
0.000239378
0.000247412
0.000220233
0.000210976
0.000233974
0.000231853
0.00020898
0.000235532
0.000239114
0.000251839
0.000262029
0.000273191
0.000249362
0.000215548
0.000252011
1.40748e-06
2.41616e-06
8.87093e-07
1.04103e-06
1.33608e-06
2.8632e-06
1.0742e-06
1.29905e-06
1.23351e-06
2.57147e-06
1.42151e-06
1.25421e-06
2.28618e-06
2.24622e-06
1.69845e-06
1.15235e-06
1.3703e-05
1.09756e-06
1.55688e-05
1.06253e-05
1.27618e-05
1.31764e-06
1.48191e-05
1.26331e-06
1.67951e-05
1.42996e-06
1.59141e-06
1.59886e-06
1.75863e-06
1.44137e-06
1.56927e-06
1.61848e-06
1.27003e-06
4.94614e-07
1.7003e-06
2.32121e-06
1.29033e-06
6.2157e-07
1.70608e-06
1.05835e-05
1.28299e-05
1.2063e-06
2.31014e-06
7.61044e-07
2.6195e-06
1.21865e-06
2.34151e-06
9.35611e-07
1.46649e-06
1.48985e-06
2.24826e-06
1.66787e-06
1.6968e-06
1.37602e-06
1.88953e-05
1.30703e-06
2.14401e-05
1.68223e-05
1.90879e-05
1.51744e-06
2.03632e-05
1.46356e-06
2.31204e-05
1.43851e-06
1.57118e-06
1.61995e-06
1.65115e-06
1.42725e-06
1.58178e-06