/*--------------------------------*- C++ -*----------------------------------*\
| =========                 |                                                 |
| \\      /  F ield         | OpenFOAM: The Open Source CFD Toolbox           |
|  \\    /   O peration     | Version:  v2012                                 |
|   \\  /    A nd           | Website:  www.openfoam.com                      |
|    \\/     M anipulation  |                                                 |
\*---------------------------------------------------------------------------*/
FoamFile
{
    version     2.0;
    format      ascii;
    class       volScalarField;
    location    "1987.5";
    object      p;
}
// * * * * * * * * * * * * * * * * * * * * * * * * * * * * * * * * * * * * * //

dimensions      [0 2 -2 0 0 0 0];


internalField   nonuniform List<scalar> 
171728
(
0.00351879
0.0035177
0.00351774
0.00351845
0.00348328
0.00348186
0.00348186
0.00348467
0.00344473
0.00344295
0.00344286
0.00344521
0.00340065
0.00339899
0.00339894
0.00340122
0.00335261
0.00335112
0.00335111
0.00335347
0.00330374
0.00330246
0.00330246
0.00330472
0.00325547
0.00325427
0.00325426
0.00325655
0.00320812
0.00320705
0.00320702
0.00320925
0.00316181
0.00316088
0.00316089
0.00316347
0.00311647
0.00311565
0.00311564
0.00311795
0.003072
0.00307129
0.00307129
0.00307365
0.00302832
0.0030278
0.00302771
0.00303006
0.00298521
0.00298478
0.00298471
0.00298705
0.00294251
0.00294215
0.00294224
0.00294446
0.00290014
0.00289982
0.00289985
0.00290229
0.00285812
0.00285807
0.00285775
0.00286016
0.0028164
0.00281618
0.00281618
0.00281843
0.00277502
0.0027749
0.00277489
0.00277709
0.002734
0.00273408
0.00273394
0.00273608
0.00269336
0.0026935
0.00269339
0.00269538
0.00265303
0.00265318
0.00265324
0.00265498
0.00261303
0.0026132
0.0026132
0.00261485
0.00257332
0.00257347
0.0025735
0.00257519
0.00253385
0.00253418
0.00253414
0.00253576
0.00249464
0.00249505
0.00249499
0.00249657
0.00245567
0.00245603
0.00245614
0.00245783
0.00241696
0.00241744
0.0024174
0.00241913
0.00237842
0.00237888
0.00237895
0.00238051
0.00234005
0.00234068
0.00234065
0.0023429
0.00230192
0.00230243
0.00230255
0.0023042
0.0022639
0.00226435
0.00226446
0.00226632
0.00222617
0.0022271
0.00222691
0.00222878
0.00218865
0.00218935
0.00218926
0.00219122
0.00215072
0.00215107
0.00215147
0.00215324
0.00211345
0.00211419
0.0021141
0.00211579
0.00207648
0.00207693
0.002077
0.00207905
0.00203918
0.00204027
0.00203995
0.00204164
0.00200211
0.00200185
0.00200254
0.00200447
0.0019655
0.00196596
0.00196582
0.00196781
0.00192898
0.00193003
0.0019294
0.00193127
0.00189255
0.00189206
0.00189285
0.00189502
0.00185575
0.0018556
0.00185588
0.00185781
0.00181902
0.00181981
0.00181933
0.00182133
0.00178308
0.00178341
0.00178324
0.00178562
0.00174745
0.00174677
0.00174742
0.00174914
0.00171097
0.00171096
0.00171079
0.00171292
0.00167474
0.00167516
0.00167494
0.00167722
0.0016396
0.00163941
0.00163939
0.00164122
0.00160379
0.00160332
0.00160336
0.00160568
0.00156793
0.00156806
0.00156811
0.00157009
0.001533
0.00153286
0.00153264
0.00153448
0.00149743
0.00149681
0.00149702
0.00149942
0.00146216
0.00146224
0.00146213
0.00146397
0.00142733
0.00142724
0.00142694
0.00142892
0.00139196
0.00139123
0.00139164
0.00139368
0.00135683
0.00135695
0.0013566
0.00135866
0.00132223
0.00132188
0.0013221
0.00132401
0.00128737
0.00128723
0.00128701
0.00128898
0.00125303
0.0012525
0.00125256
0.00125446
0.00121791
0.0012177
0.00121803
0.0012199
0.0011828
0.00118342
0.00118277
0.00118487
0.0011486
0.00114771
0.00114784
0.00114958
0.00111402
0.00111332
0.00111389
0.00111581
0.00107997
0.00107997
0.0010798
0.00108154
0.00104493
0.00104504
0.00104447
0.00104643
0.00100945
0.00100958
0.00100954
0.00101161
0.000975348
0.000975069
0.000975641
0.000977632
0.000941561
0.000941168
0.000941336
0.000943158
0.000907173
0.000906927
0.000906425
0.000908132
0.000872696
0.000872545
0.000872341
0.000874114
0.000838406
0.00083819
0.000838546
0.000840549
0.00080326
0.000803465
0.00080348
0.000805804
0.00076821
0.000768387
0.000768378
0.000770307
0.000734526
0.000733713
0.000733718
0.000735335
0.000700095
0.000699824
0.000699424
0.00070137
0.000664268
0.000664841
0.000664924
0.000667188
0.000629456
0.000629519
0.000630107
0.000631992
0.000596202
0.000595674
0.000595452
0.000597291
0.000561847
0.000561576
0.000561084
0.000563071
0.000525819
0.000526098
0.000526249
0.000528282
0.000490976
0.000491091
0.000491277
0.000493218
0.000456209
0.000455908
0.000456144
0.000457997
0.000421545
0.000421633
0.000421229
0.000423398
0.000387122
0.00038692
0.000386768
0.000388674
0.000351122
0.0003509
0.000351204
0.000352994
0.000315707
0.000315947
0.000315998
0.000318112
0.000281011
0.000281024
0.000280954
0.000282999
0.000245711
0.000245635
0.00024551
0.000247474
0.000210531
0.000210444
0.000210546
0.000212505
0.00017564
0.000175431
0.000175482
0.00017739
0.00013982
0.000139717
0.000139566
0.000141522
0.000102598
0.000102695
0.000102713
0.000104909
6.69811e-05
6.72975e-05
6.75143e-05
6.95927e-05
3.38811e-05
3.32739e-05
3.33415e-05
3.48963e-05
6.39989e-06
6.94397e-06
6.71988e-06
4.60459e-06
0.00352324
0.00352076
0.0035207
0.00352313
0.0035208
0.0035207
0.00352713
0.00352708
0.00352714
0.00352712
0.00352071
0.00352072
0.00352321
0.00352075
0.00352081
0.00352321
0.00351849
0.0034895
0.00351771
0.00351768
0.00349131
0.00349123
0.00351837
0.00348942
0.00351783
0.0035177
0.00349139
0.00349132
0.00351773
0.0034912
0.00349121
0.00351846
0.00348944
0.00351774
0.00349128
0.0034913
0.00348942
0.00348475
0.00345066
0.00348178
0.00348183
0.00345301
0.00345301
0.00348468
0.00345074
0.00348197
0.00348178
0.00345307
0.00345299
0.0034819
0.00345305
0.00345295
0.00348467
0.00345072
0.00348179
0.00345303
0.00345307
0.00345074
0.00344517
0.00340734
0.00344289
0.00344295
0.00341042
0.00341042
0.00344521
0.00340739
0.003443
0.00344286
0.00341052
0.00341043
0.00344295
0.00341047
0.00341043
0.00344519
0.00340737
0.00344288
0.00341049
0.00341052
0.00340738
0.00340118
0.00335991
0.00339897
0.00339899
0.00336325
0.00336328
0.00340121
0.00335995
0.00339899
0.00339893
0.0033633
0.00336321
0.00339902
0.00336331
0.0033633
0.00340118
0.0033599
0.00339893
0.0033633
0.00336322
0.00335996
0.00335346
0.00331125
0.00335115
0.00335113
0.00331461
0.00331461
0.00335347
0.00331124
0.00335092
0.00335113
0.00331424
0.00331455
0.00335105
0.00331462
0.0033145
0.00335343
0.00331122
0.00335118
0.00331458
0.00331456
0.00331116
0.00330479
0.00326298
0.00330242
0.00330244
0.00326628
0.00326626
0.0033048
0.00326297
0.00330245
0.00330243
0.0032658
0.00326622
0.00330244
0.00326626
0.00326619
0.00330477
0.00326297
0.00330263
0.00326624
0.00326634
0.00326282
0.00325665
0.00321567
0.00325424
0.00325427
0.00321877
0.00321875
0.00325664
0.00321562
0.00325444
0.00325429
0.00321855
0.00321874
0.00325432
0.00321879
0.00321879
0.00325664
0.0032156
0.00325447
0.00321874
0.0032188
0.00321548
0.00320944
0.00316923
0.00320704
0.00320707
0.00317228
0.0031723
0.00320943
0.00316927
0.00320697
0.00320705
0.00317233
0.00317232
0.00320713
0.0031723
0.00317233
0.00320942
0.00316927
0.00320718
0.0031723
0.00317225
0.00316946
0.00316323
0.00312397
0.00316089
0.00316089
0.00312692
0.00312687
0.00316323
0.00312392
0.0031608
0.00316088
0.00312683
0.00312689
0.00316092
0.00312687
0.00312695
0.00316324
0.00312395
0.00316093
0.00312686
0.003127
0.00312388
0.00311804
0.00307945
0.00311568
0.00311565
0.0030823
0.00308233
0.00311801
0.00307946
0.0031156
0.00311565
0.0030823
0.00308229
0.00311567
0.00308232
0.00308231
0.00311802
0.00307945
0.00311568
0.00308229
0.00308233
0.00307943
0.00307368
0.00303575
0.00307132
0.00307129
0.00303858
0.00303861
0.00307366
0.00303584
0.00307133
0.0030713
0.00303856
0.0030386
0.00307129
0.00303861
0.00303859
0.00307367
0.00303578
0.0030713
0.00303859
0.00303859
0.00303573
0.00303009
0.00299269
0.00302775
0.0030278
0.00299543
0.00299538
0.00303017
0.00299268
0.00302773
0.00302774
0.00299542
0.00299549
0.00302773
0.0029954
0.00299547
0.00303008
0.00299267
0.00302772
0.00299549
0.00299548
0.00299266
0.00298707
0.00295
0.00298479
0.00298478
0.00295284
0.00295274
0.00298712
0.00294998
0.0029848
0.00298472
0.00295285
0.00295273
0.00298476
0.00295274
0.00295276
0.00298706
0.00295005
0.00298476
0.00295273
0.00295274
0.00295001
0.00294445
0.00290767
0.00294211
0.00294214
0.00291035
0.00291044
0.00294446
0.00290762
0.0029421
0.00294224
0.00291036
0.00291048
0.00294211
0.00291045
0.0029104
0.00294452
0.00290764
0.00294211
0.00291047
0.0029104
0.00290774
0.0029022
0.00286564
0.00289991
0.00289981
0.00286841
0.00286837
0.00290211
0.00286575
0.00289991
0.00289985
0.00286839
0.00286844
0.00290002
0.00286837
0.00286838
0.00290215
0.00286557
0.0029
0.00286846
0.00286837
0.00286556
0.00286021
0.00282389
0.00285801
0.00285806
0.00282677
0.00282653
0.00286033
0.00282378
0.00285801
0.00285776
0.00282677
0.00282659
0.00285793
0.00282653
0.00282679
0.00286008
0.0028238
0.00285794
0.00282659
0.00282679
0.00282385
0.00281848
0.00278241
0.00281631
0.00281619
0.00278537
0.00278529
0.00281844
0.00278233
0.0028163
0.00281618
0.00278535
0.00278517
0.0028162
0.00278525
0.00278519
0.00281842
0.00278234
0.0028162
0.00278517
0.00278519
0.00278238
0.00277706
0.00274125
0.00277492
0.00277489
0.00274426
0.00274434
0.00277702
0.00274136
0.00277492
0.0027749
0.00274427
0.00274421
0.00277494
0.00274433
0.00274422
0.00277705
0.00274132
0.00277491
0.0027442
0.00274418
0.00274129
0.002736
0.00270047
0.00273396
0.00273405
0.00270348
0.00270352
0.00273612
0.00270065
0.00273396
0.00273394
0.00270348
0.00270358
0.00273405
0.00270355
0.00270359
0.00273608
0.00270055
0.00273403
0.00270358
0.00270356
0.00270057
0.00269529
0.00265993
0.00269341
0.00269345
0.00266317
0.00266319
0.00269547
0.00266009
0.00269339
0.00269341
0.00266316
0.00266322
0.00269345
0.00266321
0.00266315
0.00269536
0.00266014
0.00269344
0.00266321
0.00266316
0.00266018
0.00265482
0.00261983
0.00265309
0.00265314
0.0026232
0.00262309
0.00265498
0.00261996
0.00265309
0.00265324
0.0026232
0.00262308
0.00265314
0.0026231
0.00262318
0.00265501
0.00261999
0.00265318
0.00262307
0.00262314
0.00261992
0.00261482
0.00258011
0.00261322
0.00261317
0.00258342
0.00258347
0.00261485
0.00258021
0.00261323
0.00261322
0.00258344
0.00258343
0.00261319
0.00258348
0.00258342
0.00261488
0.00258019
0.00261321
0.00258343
0.00258339
0.00258025
0.0025751
0.00254068
0.00257357
0.00257345
0.002544
0.002544
0.00257512
0.00254073
0.00257359
0.00257351
0.002544
0.00254404
0.00257359
0.00254403
0.00254394
0.00257512
0.00254076
0.00257358
0.00254403
0.00254394
0.00254079
0.00253567
0.00250158
0.00253413
0.00253419
0.00250481
0.0025048
0.00253579
0.00250168
0.00253413
0.00253414
0.00250482
0.00250478
0.00253417
0.00250481
0.0025047
0.00253579
0.00250146
0.00253414
0.00250477
0.00250475
0.00250159
0.00249663
0.00246274
0.00249499
0.00249507
0.00246583
0.0024656
0.00249677
0.0024624
0.00249501
0.00249499
0.00246582
0.00246585
0.00249492
0.00246566
0.00246586
0.00249651
0.00246286
0.00249491
0.00246584
0.00246586
0.00246279
0.0024578
0.00242389
0.0024561
0.00245597
0.00242705
0.00242713
0.00245744
0.00242437
0.00245611
0.00245614
0.00242703
0.00242699
0.00245609
0.00242711
0.00242706
0.00245795
0.00242379
0.0024561
0.00242701
0.00242706
0.0024239
0.00241902
0.00238569
0.0024174
0.00241743
0.00238855
0.00238853
0.00241943
0.00238557
0.00241741
0.00241739
0.00238855
0.00238859
0.00241747
0.00238848
0.00238847
0.00241887
0.00238592
0.00241744
0.00238858
0.00238848
0.00238563
0.00238071
0.00234743
0.00237892
0.00237886
0.00235024
0.00235019
0.00238065
0.00234718
0.00237894
0.00237894
0.00235021
0.00235017
0.00237883
0.00235017
0.00235031
0.00238098
0.00234721
0.00237887
0.00235017
0.00235023
0.00234771
0.00234257
0.00230928
0.00234068
0.00234072
0.00231195
0.00231201
0.00234224
0.00230969
0.00234064
0.00234065
0.00231198
0.00231208
0.00234069
0.00231204
0.00231192
0.00234233
0.00230945
0.00234064
0.00231208
0.00231196
0.0023092
0.00230429
0.00227137
0.0023025
0.00230242
0.00227407
0.00227386
0.00230478
0.00227088
0.00230252
0.00230255
0.00227407
0.00227396
0.00230242
0.00227382
0.00227398
0.00230453
0.00227124
0.00230249
0.00227397
0.00227399
0.00227119
0.00226649
0.00223345
0.00226451
0.00226441
0.00223611
0.00223628
0.00226594
0.00223385
0.00226455
0.00226447
0.00223611
0.00223627
0.00226451
0.00223632
0.00223629
0.00226632
0.00223354
0.00226449
0.00223626
0.00223623
0.00223363
0.00222856
0.00219618
0.00222682
0.00222708
0.00219894
0.00219891
0.00222908
0.00219627
0.00222678
0.00222689
0.0021988
0.00219869
0.00222696
0.00219895
0.00219882
0.00222865
0.00219608
0.0022269
0.00219872
0.00219874
0.00219613
0.00219126
0.00215815
0.0021894
0.00218927
0.00216069
0.00216055
0.00219125
0.00215794
0.00218934
0.00218925
0.00216082
0.00216088
0.00218933
0.00216048
0.00216081
0.00219119
0.00215822
0.00218925
0.00216088
0.00216085
0.00215822
0.00215319
0.00212075
0.00215126
0.00215118
0.00212333
0.00212354
0.00215304
0.00212094
0.00215137
0.00215147
0.00212334
0.0021234
0.00215135
0.0021234
0.00212315
0.00215328
0.00212084
0.00215146
0.0021234
0.00212326
0.00212059
0.00211593
0.00208388
0.00211408
0.00211427
0.00208647
0.00208615
0.00211608
0.0020836
0.00211408
0.00211411
0.00208639
0.00208626
0.00211389
0.00208621
0.00208642
0.00211598
0.00208366
0.00211393
0.00208628
0.00208632
0.0020839
0.00207897
0.00204636
0.00207719
0.00207688
0.00204892
0.0020494
0.00207881
0.00204692
0.00207716
0.00207698
0.00204899
0.00204919
0.00207722
0.00204961
0.00204927
0.00207881
0.00204674
0.00207716
0.00204921
0.00204919
0.00204658
0.00204153
0.00200961
0.00203958
0.00204012
0.00201206
0.00201155
0.00204193
0.00200902
0.00203959
0.00203993
0.00201192
0.0020119
0.00203993
0.0020114
0.00201183
0.00204186
0.00200929
0.00203973
0.0020119
0.00201169
0.00200931
0.00200476
0.00197239
0.00200294
0.00200208
0.0019749
0.00197497
0.00200409
0.00197266
0.00200282
0.00200254
0.00197511
0.00197493
0.00200248
0.00197473
0.00197472
0.00200436
0.00197263
0.00200255
0.00197489
0.00197528
0.00197271
0.0019675
0.00193592
0.00196549
0.00196608
0.00193818
0.00193884
0.00196786
0.00193669
0.00196574
0.00196583
0.00193819
0.0019385
0.00196554
0.00193922
0.00193838
0.00196785
0.0019361
0.001966
0.00193855
0.00193816
0.00193599
0.00193122
0.00190011
0.00192934
0.0019296
0.00190258
0.00190182
0.0019318
0.0018992
0.00192922
0.00192936
0.00190223
0.00190197
0.00192954
0.00190145
0.00190247
0.00193127
0.00189967
0.00192908
0.00190199
0.00190202
0.00189989
0.00189517
0.00186252
0.00189324
0.0018926
0.00186481
0.00186494
0.00189436
0.00186264
0.00189302
0.00189284
0.00186506
0.00186517
0.00189309
0.00186465
0.00186491
0.00189483
0.00186278
0.00189296
0.00186516
0.00186517
0.00186275
0.00185762
0.00182611
0.00185551
0.00185575
0.0018282
0.00182861
0.00185779
0.00182666
0.00185575
0.00185588
0.00182825
0.00182835
0.0018556
0.00182881
0.0018282
0.0018579
0.00182624
0.00185589
0.00182837
0.00182823
0.00182606
0.00182133
0.00179033
0.00181919
0.0018196
0.00179244
0.00179253
0.00182184
0.0017903
0.00181921
0.00181929
0.0017924
0.00179227
0.00181924
0.00179259
0.00179262
0.00182142
0.00179002
0.00181915
0.00179227
0.00179239
0.00179041
0.00178561
0.00175417
0.00178361
0.00178342
0.00175654
0.00175595
0.00178539
0.00175365
0.0017835
0.00178328
0.00175649
0.0017564
0.00178366
0.00175577
0.00175628
0.00178528
0.00175428
0.00178347
0.00175639
0.00175638
0.001754
0.00174926
0.00171753
0.00174728
0.0017469
0.00171963
0.0017199
0.00174886
0.00171782
0.00174733
0.00174735
0.00171971
0.00171993
0.00174712
0.00171991
0.00171976
0.00174945
0.00171769
0.00174724
0.00172
0.00171982
0.0017177
0.00171273
0.00168196
0.00171056
0.0017109
0.00168392
0.00168405
0.00171302
0.00168204
0.00171062
0.00171083
0.00168394
0.00168394
0.00171078
0.00168408
0.00168403
0.00171285
0.00168188
0.00171082
0.00168375
0.001684
0.00168199
0.00167723
0.00164624
0.0016751
0.00167516
0.0016485
0.00164843
0.00167728
0.00164618
0.00167515
0.00167506
0.00164838
0.00164823
0.00167513
0.00164846
0.00164824
0.00167715
0.00164611
0.00167507
0.00164839
0.00164817
0.001646
0.00164139
0.00161013
0.00163949
0.00163936
0.00161217
0.00161215
0.00164134
0.00161017
0.00163937
0.00163925
0.00161215
0.00161224
0.00163916
0.0016122
0.00161243
0.0016413
0.00161021
0.00163915
0.00161226
0.00161251
0.00161043
0.00160539
0.00157497
0.00160327
0.00160322
0.00157691
0.00157677
0.00160542
0.00157486
0.00160326
0.00160331
0.00157697
0.00157693
0.0016036
0.00157685
0.00157704
0.00160546
0.00157495
0.00160367
0.00157691
0.00157701
0.00157489
0.00157028
0.00153943
0.00156814
0.00156806
0.00154157
0.00154196
0.00157016
0.00153962
0.00156822
0.00156822
0.00154168
0.0015418
0.0015681
0.00154173
0.00154113
0.00157025
0.0015395
0.00156801
0.00154156
0.00154114
0.00153918
0.00153463
0.00150379
0.00153259
0.00153303
0.00150586
0.00150559
0.00153482
0.00150371
0.00153263
0.00153275
0.00150571
0.00150561
0.00153235
0.00150574
0.00150619
0.00153467
0.00150372
0.00153237
0.00150589
0.00150623
0.00150416
0.00149905
0.00146885
0.00149711
0.0014966
0.00147091
0.0014706
0.00149895
0.00146873
0.00149697
0.00149674
0.00147088
0.00147076
0.0014974
0.00147072
0.00147091
0.001499
0.00146881
0.00149744
0.00147081
0.00147084
0.00146871
0.00146417
0.0014338
0.00146216
0.00146218
0.00143581
0.00143651
0.00146412
0.00143411
0.00146216
0.00146215
0.00143589
0.00143604
0.00146199
0.00143625
0.00143551
0.00146412
0.00143378
0.00146194
0.00143582
0.00143559
0.00143362
0.00142906
0.00139818
0.00142696
0.00142747
0.00140025
0.00139973
0.00142922
0.00139797
0.00142704
0.00142714
0.00140033
0.00140033
0.00142681
0.00139999
0.00140064
0.00142903
0.00139834
0.0014269
0.00140044
0.0014006
0.00139844
0.00139336
0.00136338
0.00139135
0.00139094
0.00136537
0.00136546
0.00139326
0.0013635
0.00139145
0.00139151
0.00136534
0.00136532
0.00139181
0.00136558
0.00136529
0.00139359
0.00136328
0.00139173
0.00136531
0.00136531
0.00136334
0.00135881
0.00132914
0.00135687
0.00135697
0.00133119
0.00133095
0.00135882
0.00132883
0.00135678
0.00135666
0.00133104
0.00133079
0.0013566
0.00133069
0.00133063
0.00135859
0.00132881
0.00135663
0.0013307
0.00133068
0.0013287
0.00132436
0.00129332
0.0013224
0.00132213
0.00129545
0.00129577
0.00132411
0.00129368
0.00132227
0.00132216
0.00129542
0.00129577
0.00132195
0.00129586
0.00129584
0.00132417
0.00129364
0.00132199
0.00129586
0.00129575
0.00129367
0.00128858
0.00125906
0.00128667
0.00128695
0.0012611
0.00126106
0.00128898
0.00125901
0.00128667
0.00128691
0.00126123
0.00126108
0.00128715
0.00126122
0.00126123
0.00128886
0.00125905
0.00128704
0.0012611
0.00126124
0.00125914
0.00125447
0.00122461
0.00125259
0.0012524
0.00122656
0.00122632
0.0012543
0.00122434
0.0012528
0.0012526
0.0012268
0.00122683
0.00125255
0.00122633
0.00122647
0.00125447
0.00122479
0.00125264
0.00122676
0.00122666
0.00122457
0.00121983
0.00118935
0.00121772
0.00121767
0.00119145
0.00119205
0.0012197
0.00119001
0.00121786
0.00121805
0.00119117
0.00119142
0.00121784
0.0011921
0.00119189
0.00122004
0.00118938
0.00121799
0.00119158
0.00119169
0.00118966
0.00118467
0.00115504
0.00118286
0.00118346
0.00115723
0.00115689
0.0011853
0.00115467
0.00118252
0.00118264
0.00115705
0.00115667
0.00118308
0.0011566
0.00115642
0.00118461
0.00115456
0.00118284
0.00115651
0.00115638
0.00115432
0.00115036
0.00112032
0.00114853
0.00114797
0.00112221
0.00112171
0.00114986
0.00111978
0.00114852
0.00114811
0.00112252
0.00112241
0.00114762
0.00112171
0.00112226
0.0011499
0.00112042
0.00114766
0.00112229
0.00112243
0.00112034
0.00111563
0.00108592
0.0011135
0.00111321
0.00108799
0.00108821
0.00111522
0.00108626
0.00111379
0.00111391
0.00108798
0.00108834
0.00111394
0.00108837
0.00108845
0.00111585
0.00108623
0.00111408
0.00108852
0.00108841
0.0010863
0.00108129
0.0010513
0.00107952
0.00107983
0.00105355
0.00105393
0.00108167
0.00105162
0.00107945
0.00107967
0.00105339
0.00105326
0.00107958
0.00105392
0.00105328
0.00108149
0.00105112
0.0010795
0.0010533
0.00105318
0.00105119
0.0010465
0.00101616
0.00104473
0.00104504
0.00101819
0.00101841
0.00104684
0.00101637
0.00104456
0.00104442
0.00101808
0.00101811
0.00104459
0.00101837
0.00101839
0.00104635
0.00101617
0.00104448
0.00101817
0.00101837
0.0010163
0.00101147
0.000982118
0.00100947
0.00100961
0.000983913
0.000983608
0.00101161
0.000981703
0.00100944
0.00100951
0.00098411
0.000984138
0.0010097
0.000983591
0.000984089
0.00101152
0.000982285
0.00100974
0.000984108
0.000984265
0.000982223
0.000977521
0.000948049
0.000975442
0.000975064
0.000949976
0.000949604
0.000977094
0.000947758
0.000975677
0.000975696
0.000950111
0.000950075
0.000975601
0.00094966
0.000950033
0.000977705
0.000947942
0.00097577
0.000950037
0.000950025
0.000947919
0.000943349
0.000913126
0.000941443
0.000941132
0.000915384
0.000915614
0.000943136
0.000913369
0.000941426
0.000941365
0.00091511
0.000915158
0.000941276
0.000915521
0.000915023
0.000943189
0.00091294
0.000941173
0.000915104
0.000914807
0.000912847
0.000908394
0.000878767
0.000906683
0.000907022
0.000880817
0.00088115
0.000908673
0.000878965
0.000906419
0.000906465
0.000880824
0.000880731
0.000906368
0.000881118
0.000880667
0.000908203
0.00087875
0.000906176
0.00088076
0.000880696
0.00087868
0.000874171
0.000845089
0.000872317
0.000872557
0.000846943
0.000846745
0.000874312
0.000844858
0.000872405
0.000872303
0.000847129
0.000847076
0.000872204
0.000846805
0.000846994
0.000874188
0.000845213
0.000872315
0.00084711
0.000847166
0.000845183
0.000840423
0.000810213
0.000838394
0.000838124
0.000812206
0.000812058
0.0008402
0.000810248
0.000838543
0.000838514
0.0008122
0.000812246
0.000838542
0.000812176
0.000812645
0.000840558
0.000810276
0.00083867
0.000812326
0.000812606
0.000810595
0.000805371
0.000775001
0.000803331
0.000803334
0.000776972
0.000777173
0.000805481
0.0007752
0.000803286
0.000803409
0.000776867
0.000777145
0.000803898
0.000777187
0.000777284
0.000805444
0.000775073
0.000803788
0.000777109
0.000777149
0.000775126
0.000770305
0.00074082
0.000768359
0.000768496
0.00074283
0.000742596
0.000770424
0.000740384
0.000768267
0.000768476
0.000742802
0.000742595
0.000768376
0.000742272
0.000741976
0.000770324
0.000740442
0.000768274
0.000742352
0.000742003
0.000740016
0.00073617
0.00070615
0.00073433
0.000734012
0.000708304
0.000708287
0.000735717
0.000706217
0.000734316
0.000733935
0.000708321
0.000707964
0.000733346
0.000708333
0.000707891
0.000735748
0.000705968
0.000733413
0.000708016
0.000707888
0.000705985
0.000701367
0.000670945
0.00069951
0.00069963
0.000672971
0.000673325
0.000701534
0.000671471
0.000699527
0.000699294
0.000673048
0.000673304
0.000699471
0.000673705
0.000673941
0.000701264
0.000671427
0.000699416
0.000673559
0.000673865
0.000671899
0.000666114
0.000636567
0.000664082
0.000664502
0.00063826
0.000638218
0.000666676
0.000636379
0.000664202
0.000664658
0.000638364
0.000638757
0.000665284
0.000638304
0.000638799
0.000666721
0.000636891
0.000665259
0.000638839
0.000638951
0.000636794
0.000631965
0.000602993
0.000629919
0.000629636
0.00060494
0.000604609
0.000631678
0.000602484
0.000629976
0.000630146
0.000604764
0.000604421
0.000629974
0.000604048
0.000603906
0.00063217
0.000602314
0.00063011
0.000604038
0.000603912
0.000601954
0.00059843
0.000567893
0.000596572
0.000596155
0.000570241
0.00057037
0.000597884
0.000568182
0.000596333
0.000595831
0.000570067
0.00056977
0.000595362
0.000570272
0.000569781
0.000597632
0.000567653
0.000595308
0.000569707
0.000569627
0.000567759
0.000562986
0.000532225
0.000561149
0.000561447
0.000534242
0.000534498
0.000563341
0.000532561
0.000561062
0.000560981
0.000534378
0.000534658
0.000561178
0.000534931
0.000535074
0.000562888
0.000532757
0.000561034
0.000534972
0.00053508
0.000533052
0.000527441
0.000497931
0.000525472
0.000525722
0.000499675
0.000499769
0.000527778
0.000497859
0.000525614
0.000525954
0.000499843
0.000500032
0.000526317
0.000499849
0.000500015
0.000528011
0.00049808
0.000526381
0.000500043
0.000500118
0.000498015
0.000493262
0.000463259
0.000491176
0.000491124
0.000465173
0.000464859
0.000493122
0.000462881
0.000491322
0.00049139
0.000465234
0.000465191
0.000491218
0.000464665
0.000464785
0.000493345
0.00046308
0.000491311
0.000464948
0.000464836
0.000462786
0.000458449
0.00042822
0.000456393
0.000456115
0.000430277
0.000430291
0.000458111
0.000428312
0.000456409
0.000456331
0.000430056
0.000429906
0.000456004
0.000430146
0.000430047
0.000458266
0.000427933
0.000456037
0.000429878
0.000429946
0.000428081
0.000423521
0.000393461
0.000421663
0.000421742
0.000395643
0.000395801
0.000423642
0.000393655
0.000421413
0.000421224
0.000395543
0.000395387
0.000421471
0.000395841
0.000395575
0.000423209
0.000393415
0.000421346
0.000395435
0.000395482
0.000393497
0.000388624
0.000357747
0.000386738
0.00038683
0.000359763
0.000359693
0.000388754
0.000357645
0.000386746
0.000386715
0.000359945
0.000360067
0.000386718
0.000359823
0.000359902
0.000388672
0.000357997
0.000386696
0.000360127
0.000360019
0.000357853
0.00035288
0.000322568
0.00035083
0.000350783
0.000324439
0.000324521
0.00035279
0.000322662
0.000350999
0.000351139
0.000324492
0.000324658
0.000351013
0.000324605
0.000324813
0.000353132
0.000322727
0.00035113
0.000324724
0.000324846
0.000322857
0.000317867
0.000287945
0.000315828
0.000315897
0.00028991
0.000289885
0.000317954
0.000287904
0.000315844
0.000315952
0.000289871
0.000289836
0.000316132
0.000289821
0.000289843
0.000317985
0.000287839
0.000316138
0.000289776
0.000289799
0.00028784
0.000283153
0.000252548
0.000281153
0.000281108
0.000254596
0.000254554
0.000283097
0.000252498
0.000281112
0.000281043
0.000254542
0.000254411
0.000280963
0.000254471
0.000254295
0.000283025
0.000252355
0.000280913
0.00025433
0.00025425
0.000252269
0.000247697
0.000217121
0.000245713
0.000245685
0.000219146
0.000219177
0.000247662
0.000217169
0.000245658
0.000245535
0.000219151
0.000219185
0.000245493
0.000219228
0.000219285
0.000247527
0.000217216
0.000245475
0.000219263
0.000219325
0.000217275
0.000212333
0.000182156
0.000210363
0.000210391
0.00018418
0.000184173
0.000212374
0.000182127
0.000210391
0.000210468
0.000184223
0.000184281
0.000210565
0.000184184
0.000184265
0.000212454
0.000182195
0.000210608
0.000184272
0.000184283
0.000182193
0.000177376
0.000146704
0.000175454
0.000175441
0.00014883
0.000148813
0.000177344
0.000146693
0.000175483
0.000175508
0.000148798
0.000148731
0.000175472
0.000148807
0.000148625
0.000177394
0.000146592
0.000175479
0.000148675
0.000148585
0.000146523
0.000141731
0.000109881
0.000139742
0.000139763
0.00011193
0.000111974
0.000141727
0.00010991
0.000139703
0.000139624
0.000111918
0.000111847
0.000139503
0.000111946
0.000111839
0.000141605
0.0001099
0.000139446
0.000111832
0.000111803
0.00010992
0.000104843
7.40172e-05
0.000102702
0.000102674
7.58396e-05
7.58184e-05
0.000104834
7.40653e-05
0.000102719
0.000102698
7.58889e-05
7.59801e-05
0.000102741
7.59338e-05
7.62189e-05
0.000104899
7.42165e-05
0.000102728
7.61182e-05
7.62897e-05
7.43635e-05
6.92035e-05
3.96638e-05
6.71456e-05
6.71627e-05
4.15839e-05
4.15955e-05
6.92715e-05
3.96576e-05
6.71982e-05
6.73517e-05
4.16186e-05
4.17976e-05
6.75894e-05
4.16537e-05
4.19137e-05
6.94433e-05
3.9799e-05
6.7675e-05
4.18823e-05
4.19683e-05
3.97766e-05
3.49601e-05
8.27908e-06
3.32845e-05
3.33046e-05
1.15141e-05
1.15412e-05
3.49357e-05
8.21308e-06
3.32851e-05
3.33765e-05
1.14492e-05
1.12917e-05
3.33017e-05
1.13935e-05
1.09954e-05
3.49703e-05
7.9512e-06
3.33102e-05
1.11404e-05
1.09311e-05
7.72757e-06
5.07067e-06
7.18957e-06
7.17896e-06
4.98543e-06
7.08068e-06
7.00611e-06
6.34322e-06
6.10794e-06
5.89397e-06
6.81555e-06
4.7633e-06
6.6477e-06
0.00353024
0.00353287
0.00353152
0.00353173
0.00355871
0.00353275
0.00356226
0.00353303
0.00355893
0.00353277
0.00353306
0.00356243
0.00354378
0.00356553
0.00356568
0.00350293
0.00351645
0.00352032
0.00349513
0.00349316
0.00349858
0.0035028
0.00351647
0.00352035
0.00349518
0.00351875
0.00351878
0.00351877
0.00349234
0.00349238
0.00349238
0.00349235
0.00350249
0.00351412
0.00351929
0.00350997
0.00352143
0.00349958
0.00351026
0.00349345
0.00349861
0.00350251
0.00351933
0.00351423
0.00351002
0.00352148
0.00351034
0.00349963
0.00352022
0.00352029
0.00350733
0.00349954
0.00349954
0.0034753
0.00348952
0.00348939
0.00347329
0.00348681
0.00347233
0.00347525
0.0034895
0.00348944
0.00347332
0.00348331
0.00348329
0.00348326
0.0034548
0.00345488
0.00345484
0.00345482
0.00347302
0.00348807
0.00348179
0.00347237
0.00348652
0.00347359
0.00347235
0.00348676
0.0034723
0.00347302
0.00348177
0.0034881
0.00347242
0.0034865
0.0034724
0.00347354
0.00348984
0.00348974
0.0034708
0.00347396
0.00347393
0.00343278
0.00344745
0.00344834
0.00343135
0.00344632
0.00343052
0.00343274
0.00344738
0.00344827
0.00343136
0.00344479
0.00344473
0.00344472
0.00341217
0.0034122
0.00341217
0.00341215
0.00343144
0.00344706
0.00344289
0.00343238
0.003446
0.00343195
0.00343241
0.0034463
0.00343047
0.00343142
0.00344285
0.00344707
0.00343244
0.00344598
0.00343241
0.00343183
0.00344775
0.00344775
0.00342974
0.00343177
0.00343172
0.00338639
0.00340273
0.00340424
0.00338494
0.00340206
0.00338455
0.00338635
0.00340269
0.00340421
0.00338489
0.00340066
0.00340063
0.00340063
0.00336479
0.0033648
0.00336477
0.00336476
0.00338556
0.00340266
0.00339898
0.00338725
0.00340207
0.00338568
0.00338726
0.00340205
0.00338445
0.00338555
0.00339896
0.00340263
0.00338727
0.00340206
0.00338729
0.0033856
0.00340293
0.0034029
0.00338396
0.00338512
0.00338515
0.00333749
0.00335458
0.00335591
0.00333633
0.00335419
0.00333597
0.00333751
0.00335441
0.00335589
0.00333655
0.00335259
0.00335258
0.00335256
0.00331595
0.00331593
0.00331592
0.00331589
0.00333706
0.00335459
0.00335116
0.00333901
0.00335428
0.00333699
0.00333903
0.00335417
0.00333598
0.00333709
0.00335116
0.00335458
0.003339
0.00335426
0.003339
0.003337
0.00335463
0.00335462
0.0033356
0.0033365
0.00333644
0.00328837
0.00330566
0.00330672
0.0032876
0.00330545
0.00328728
0.00328842
0.00330611
0.00330668
0.00328724
0.00330374
0.00330373
0.00330369
0.00326748
0.00326745
0.00326746
0.00326741
0.00328833
0.00330572
0.00330251
0.00329032