/*--------------------------------*- C++ -*----------------------------------*\
| =========                 |                                                 |
| \\      /  F ield         | OpenFOAM: The Open Source CFD Toolbox           |
|  \\    /   O peration     | Version:  v2006                                 |
|   \\  /    A nd           | Website:  www.openfoam.com                      |
|    \\/     M anipulation  |                                                 |
\*---------------------------------------------------------------------------*/
FoamFile
{
    version     2.0;
    format      ascii;
    class       volScalarField;
    location    "750";
    object      k;
}
// * * * * * * * * * * * * * * * * * * * * * * * * * * * * * * * * * * * * * //

dimensions      [0 2 -2 0 0 0 0];


internalField   nonuniform List<scalar> 
43024
(
3.58932e-05
3.58912e-05
3.58912e-05
3.59957e-05
3.39296e-05
3.3889e-05
3.3889e-05
3.39623e-05
3.21578e-05
3.20081e-05
3.20081e-05
3.19522e-05
3.05346e-05
3.02293e-05
3.02292e-05
2.99885e-05
2.90329e-05
2.8554e-05
2.85539e-05
2.81226e-05
2.76354e-05
2.69871e-05
2.69871e-05
2.63906e-05
2.63308e-05
2.5531e-05
2.55309e-05
2.48072e-05
2.51112e-05
2.41849e-05
2.41848e-05
2.3378e-05
2.3971e-05
2.29506e-05
2.29505e-05
2.21045e-05
2.29058e-05
2.18268e-05
2.18267e-05
2.09858e-05
2.1912e-05
2.08113e-05
2.08112e-05
2.00131e-05
2.09865e-05
1.99013e-05
1.99011e-05
1.91812e-05
2.01241e-05
1.90947e-05
1.90946e-05
1.84893e-05
1.93239e-05
1.83884e-05
1.83883e-05
1.79328e-05
1.85848e-05
1.77793e-05
1.77792e-05
1.75059e-05
1.79042e-05
1.72656e-05
1.72655e-05
1.71999e-05
1.72799e-05
1.68465e-05
1.68465e-05
1.70222e-05
1.67097e-05
1.65211e-05
1.65211e-05
1.69816e-05
1.61924e-05
1.62896e-05
1.62896e-05
1.70788e-05
1.57254e-05
1.61518e-05
1.61519e-05
1.73034e-05
1.53073e-05
1.61075e-05
1.61075e-05
1.76567e-05
3.63068e-05
3.6291e-05
3.6291e-05
3.63068e-05
3.6291e-05
3.6291e-05
3.6423e-05
3.6423e-05
3.6423e-05
3.6423e-05
3.6291e-05
3.6291e-05
3.63068e-05
3.6291e-05
3.6291e-05
3.63068e-05
3.59957e-05
3.42687e-05
3.58912e-05
3.58912e-05
3.43767e-05
3.43766e-05
3.59957e-05
3.42687e-05
3.58911e-05
3.58912e-05
3.43767e-05
3.43766e-05
3.58912e-05
3.43767e-05
3.43767e-05
3.59957e-05
3.42687e-05
3.58912e-05
3.43767e-05
3.43767e-05
3.42687e-05
3.39623e-05
3.22635e-05
3.38889e-05
3.38889e-05
3.24684e-05
3.24683e-05
3.39622e-05
3.22635e-05
3.38889e-05
3.38889e-05
3.24684e-05
3.24683e-05
3.38889e-05
3.24685e-05
3.24683e-05
3.39622e-05
3.22635e-05
3.38889e-05
3.24685e-05
3.24684e-05
3.22634e-05
3.19522e-05
3.02994e-05
3.2008e-05
3.20078e-05
3.06643e-05
3.06642e-05
3.19522e-05
3.02994e-05
3.2008e-05
3.20078e-05
3.06644e-05
3.06641e-05
3.20079e-05
3.06645e-05
3.06642e-05
3.19522e-05
3.02993e-05
3.2008e-05
3.06645e-05
3.06644e-05
3.02991e-05
2.99886e-05
2.84254e-05
3.0229e-05
3.02288e-05
2.89624e-05
2.89622e-05
2.99885e-05
2.84254e-05
3.02292e-05
3.02288e-05
2.89626e-05
2.89621e-05
3.02289e-05
2.89628e-05
2.89623e-05
2.99885e-05
2.84253e-05
3.02291e-05
2.89627e-05
2.89626e-05
2.8425e-05
2.81228e-05
2.66741e-05
2.85536e-05
2.85534e-05
2.7368e-05
2.73678e-05
2.81227e-05
2.66741e-05
2.85539e-05
2.85533e-05
2.73684e-05
2.73677e-05
2.85535e-05
2.73685e-05
2.73679e-05
2.81227e-05
2.66739e-05
2.85538e-05
2.73684e-05
2.73682e-05
2.66737e-05
2.63909e-05
2.50664e-05
2.69866e-05
2.69864e-05
2.58841e-05
2.58838e-05
2.63909e-05
2.50664e-05
2.6987e-05
2.69863e-05
2.58846e-05
2.58837e-05
2.69865e-05
2.58847e-05
2.58839e-05
2.63908e-05
2.50662e-05
2.69869e-05
2.58846e-05
2.58844e-05
2.50659e-05
2.48076e-05
2.36126e-05
2.55303e-05
2.55301e-05
2.45102e-05
2.45099e-05
2.48076e-05
2.36126e-05
2.55308e-05
2.55299e-05
2.45108e-05
2.45098e-05
2.55302e-05
2.4511e-05
2.45101e-05
2.48074e-05
2.36124e-05
2.55307e-05
2.45109e-05
2.45107e-05
2.36121e-05
2.33785e-05
2.23126e-05
2.41841e-05
2.41839e-05
2.32478e-05
2.32475e-05
2.33785e-05
2.23126e-05
2.41847e-05
2.41837e-05
2.32485e-05
2.32474e-05
2.4184e-05
2.32487e-05
2.32476e-05
2.33783e-05
2.23123e-05
2.41846e-05
2.32486e-05
2.32484e-05
2.2312e-05
2.21051e-05
2.11682e-05
2.29497e-05
2.29494e-05
2.20965e-05
2.20962e-05
2.2105e-05
2.11682e-05
2.29504e-05
2.29492e-05
2.20973e-05
2.20961e-05
2.29495e-05
2.20975e-05
2.20964e-05
2.21048e-05
2.1168e-05
2.29503e-05
2.20974e-05
2.20972e-05
2.11675e-05
2.09865e-05
2.01708e-05
2.18258e-05
2.18255e-05
2.10541e-05
2.10538e-05
2.09864e-05
2.01708e-05
2.18266e-05
2.18254e-05
2.1055e-05
2.10537e-05
2.18257e-05
2.10552e-05
2.1054e-05
2.09862e-05
2.01706e-05
2.18265e-05
2.10551e-05
2.10549e-05
2.01702e-05
2.00138e-05
1.93147e-05
2.08103e-05
2.081e-05
2.01179e-05
2.01177e-05
2.00138e-05
1.93147e-05
2.08112e-05
2.08098e-05
2.01189e-05
2.01175e-05
2.08101e-05
2.0119e-05
2.01178e-05
2.00135e-05
1.93145e-05
2.08111e-05
2.01189e-05
2.01188e-05
1.9314e-05
1.91817e-05
1.85905e-05
1.99002e-05
1.98999e-05
1.92855e-05
1.92852e-05
1.91818e-05
1.85905e-05
1.99011e-05
1.98997e-05
1.92864e-05
1.92851e-05
1.99e-05
1.92866e-05
1.92854e-05
1.91815e-05
1.85903e-05
1.9901e-05
1.92865e-05
1.92864e-05
1.85897e-05
1.84899e-05
1.79979e-05
1.90936e-05
1.90934e-05
1.85544e-05
1.85542e-05
1.84899e-05
1.7998e-05
1.90945e-05
1.90932e-05
1.85554e-05
1.85541e-05
1.90935e-05
1.85555e-05
1.85543e-05
1.84896e-05
1.79977e-05
1.90945e-05
1.85554e-05
1.85553e-05
1.79972e-05
1.79334e-05
1.75392e-05
1.83874e-05
1.83872e-05
1.79213e-05
1.79211e-05
1.79334e-05
1.75393e-05
1.83883e-05
1.8387e-05
1.79222e-05
1.7921e-05
1.83873e-05
1.79223e-05
1.79212e-05
1.79331e-05
1.7539e-05
1.83883e-05
1.79222e-05
1.79222e-05
1.75387e-05
1.75065e-05
1.72176e-05
1.77783e-05
1.77782e-05
1.73837e-05
1.73837e-05
1.75066e-05
1.72177e-05
1.77792e-05
1.7778e-05
1.73846e-05
1.73835e-05
1.77782e-05
1.73847e-05
1.73837e-05
1.75063e-05
1.72175e-05
1.77792e-05
1.73846e-05
1.73846e-05
1.72172e-05
1.72003e-05
1.70259e-05
1.72647e-05
1.72646e-05
1.6941e-05
1.6941e-05
1.72004e-05
1.7026e-05
1.72655e-05
1.72645e-05
1.69418e-05
1.69408e-05
1.72646e-05
1.69418e-05
1.6941e-05
1.72002e-05
1.70258e-05
1.72656e-05
1.69417e-05
1.69418e-05
1.70256e-05
1.70226e-05
1.69724e-05
1.68458e-05
1.68457e-05
1.6592e-05
1.6592e-05
1.70227e-05
1.69725e-05
1.68465e-05
1.68456e-05
1.65927e-05
1.65919e-05
1.68457e-05
1.65927e-05
1.6592e-05
1.70224e-05
1.69723e-05
1.68466e-05
1.65926e-05
1.65928e-05
1.69722e-05
1.69817e-05
1.70434e-05
1.65205e-05
1.65205e-05
1.63368e-05
1.63369e-05
1.69817e-05
1.70435e-05
1.65212e-05
1.65204e-05
1.63374e-05
1.63369e-05
1.65205e-05
1.63374e-05
1.63369e-05
1.69816e-05
1.70434e-05
1.65213e-05
1.63373e-05
1.63376e-05
1.70433e-05
1.70789e-05
1.7243e-05
1.62891e-05
1.62892e-05
1.61752e-05
1.61755e-05
1.70791e-05
1.72433e-05
1.62897e-05
1.62891e-05
1.61757e-05
1.61754e-05
1.62891e-05
1.61757e-05
1.61753e-05
1.70788e-05
1.72431e-05
1.62898e-05
1.61757e-05
1.61759e-05
1.72433e-05
1.73034e-05
1.75714e-05
1.61514e-05
1.61516e-05
1.6107e-05
1.61074e-05
1.73039e-05
1.75716e-05
1.61519e-05
1.61516e-05
1.61074e-05
1.61073e-05
1.61515e-05
1.61074e-05
1.61072e-05
1.73034e-05
1.75715e-05
1.61521e-05
1.61074e-05
1.61077e-05
1.75722e-05
1.76562e-05
1.61072e-05
1.61075e-05
1.76568e-05
1.61076e-05
1.61075e-05
1.61073e-05
1.76563e-05
1.61079e-05
3.73773e-05
3.73765e-05
3.7377e-05
3.7377e-05
3.73701e-05
3.73777e-05
3.73043e-05
3.73768e-05
3.73701e-05
3.73777e-05
3.73768e-05
3.73043e-05
3.73741e-05
3.72959e-05
3.72959e-05
3.58805e-05
4.08712e-05
3.66032e-05
4.51454e-05
5.51149e-05
6.48951e-05
3.58803e-05
4.08723e-05
3.66033e-05
4.51456e-05
3.58932e-05
3.58932e-05
3.58932e-05
3.44005e-05
3.44005e-05
3.44005e-05
3.44005e-05
3.52758e-05
3.56379e-05
3.58929e-05
3.53771e-05
3.60475e-05
3.42378e-05
3.53822e-05
5.51167e-05
6.48973e-05
3.52759e-05
3.58929e-05
3.56377e-05
3.53771e-05
3.60475e-05
3.53822e-05
3.42375e-05
3.65966e-05
3.65974e-05
3.5279e-05
3.40646e-05
3.40635e-05
3.39676e-05
5.13523e-05
3.46791e-05
5.46243e-05
7.65453e-05
8.08615e-05
3.39674e-05
5.13534e-05
3.46792e-05
5.46252e-05
3.39296e-05
3.39296e-05
3.39297e-05
3.25854e-05
3.25854e-05
3.25855e-05
3.25855e-05
3.30542e-05
3.24736e-05
3.39295e-05
3.34087e-05
3.3896e-05
3.15774e-05
3.34678e-05
7.65475e-05
8.08631e-05
3.30543e-05
3.39295e-05
3.24737e-05
3.34087e-05
3.38959e-05
3.34678e-05
3.15769e-05
3.17162e-05
3.17162e-05
3.32637e-05
3.09254e-05
3.09246e-05
3.22522e-05
5.91677e-05
3.2922e-05
6.1441e-05
8.43924e-05
8.50682e-05
3.2252e-05
5.91699e-05
3.2922e-05
6.14424e-05
3.21578e-05
3.21578e-05
3.21578e-05
3.09282e-05
3.09282e-05
3.09281e-05
3.09282e-05
3.07896e-05
3.05131e-05
3.21376e-05
3.1554e-05
3.16366e-05
2.9887e-05
3.17101e-05
8.43945e-05
8.50695e-05
3.07894e-05
3.21376e-05
3.05129e-05
3.1554e-05
3.16366e-05
3.17101e-05
2.98868e-05
3.02174e-05
3.02171e-05
3.1273e-05
3.00045e-05
3.00041e-05
3.07541e-05
6.43495e-05
3.13506e-05
6.57286e-05
8.46118e-05
8.39116e-05
3.07539e-05
6.4352e-05
3.13505e-05
6.573e-05
3.05346e-05
3.05346e-05
3.05346e-05
2.9398e-05
2.9398e-05
2.93979e-05
2.9398e-05
2.86009e-05
2.91418e-05
3.04694e-05
2.98005e-05
2.94128e-05
2.86753e-05
3.00687e-05
8.46126e-05
8.39123e-05
2.86007e-05
3.04694e-05
2.91415e-05
2.98004e-05
2.94129e-05
3.00687e-05
2.8675e-05
2.99412e-05
2.99411e-05
2.93481e-05
3.00358e-05
3.00359e-05
2.95189e-05
6.7319e-05
3.00011e-05
6.80363e-05
8.22136e-05
8.12215e-05
2.95187e-05
6.73209e-05
3.00009e-05
6.8037e-05
2.90329e-05
2.90328e-05
2.90328e-05
2.79756e-05
2.79756e-05
2.79756e-05
2.79756e-05
2.65681e-05
2.81232e-05
2.89027e-05
2.8152e-05
2.73168e-05
2.77818e-05
2.85257e-05
8.22137e-05
8.12215e-05
2.65677e-05
2.89026e-05
2.81229e-05
2.81519e-05
2.73169e-05
2.85256e-05
2.77814e-05
3.04404e-05
3.04413e-05
2.75328e-05
3.07859e-05
3.07862e-05
2.86048e-05
6.87432e-05
2.89477e-05
6.90388e-05
7.94348e-05
7.85343e-05
2.86046e-05
6.87449e-05
2.89475e-05
6.90403e-05
2.76353e-05
2.76353e-05
2.76353e-05
2.66487e-05
2.66486e-05
2.66486e-05
2.66486e-05
2.47441e-05
2.74062e-05
2.74287e-05
2.66127e-05
2.54136e-05
2.71916e-05
2.70743e-05
7.94346e-05
7.85339e-05
2.47437e-05
2.74286e-05
2.74059e-05
2.66126e-05
2.54138e-05
2.70742e-05
2.71911e-05
3.15575e-05
3.15589e-05
2.58509e-05
3.21319e-05
3.2133e-05
2.8059e-05
6.92533e-05
2.82447e-05
6.93132e-05
7.70051e-05
7.6289e-05
2.80588e-05
6.92545e-05
2.82445e-05
6.93142e-05
2.63307e-05
2.63307e-05
2.63307e-05
2.54085e-05
2.54084e-05
2.54083e-05
2.54083e-05
2.31643e-05
2.70014e-05
2.60444e-05
2.5184e-05
2.37456e-05
2.69213e-05
2.57123e-05
7.70048e-05
7.62886e-05
2.31637e-05
2.60443e-05
2.70011e-05
2.5184e-05
2.3746e-05
2.57122e-05
2.69209e-05
3.31854e-05
3.31874e-05
2.43198e-05
3.39244e-05
3.39262e-05
2.7914e-05
6.93018e-05
2.79276e-05
6.92742e-05
7.50731e-05
7.45366e-05
2.79139e-05
6.93028e-05
2.79274e-05
6.92752e-05
2.51112e-05
2.51111e-05
2.51111e-05
2.42488e-05
2.42488e-05
2.42487e-05
2.42487e-05
2.18471e-05
2.69342e-05
2.47489e-05
2.38658e-05
2.23362e-05
2.69825e-05
2.44387e-05
7.50728e-05
7.45361e-05
2.18466e-05
2.47488e-05
2.6934e-05
2.38657e-05
2.23365e-05
2.44386e-05
2.69821e-05
3.51871e-05
3.519e-05
2.29421e-05
3.60351e-05
3.60382e-05
2.81585e-05
6.92001e-05
2.80313e-05
6.91676e-05
7.36081e-05
7.3213e-05
2.81584e-05
6.92007e-05
2.80313e-05
6.91685e-05
2.39709e-05
2.39708e-05
2.39708e-05
2.31652e-05
2.31651e-05
2.3165e-05
2.3165e-05
2.08009e-05
2.71999e-05
2.3541e-05
2.26593e-05
2.11945e-05
2.73554e-05
2.32522e-05
7.36078e-05
7.32127e-05
2.08004e-05
2.35409e-05
2.71997e-05
2.26592e-05
2.11948e-05
2.32521e-05
2.73552e-05
3.74362e-05
3.74401e-05
2.17207e-05
3.835e-05
3.83542e-05
2.88251e-05
6.91177e-05
2.85541e-05
6.91064e-05
7.25286e-05
7.22434e-05
2.88246e-05
6.91182e-05
2.85541e-05
6.91073e-05
2.29057e-05
2.29056e-05
2.29056e-05
2.21539e-05
2.21538e-05
2.21537e-05
2.21537e-05
2.00276e-05
2.77796e-05
2.24171e-05
2.15629e-05
2.03179e-05
2.80353e-05
2.21492e-05
7.25284e-05
7.22432e-05
2.00274e-05
2.2417e-05
2.77797e-05
2.15628e-05
2.03179e-05
2.2149e-05
2.80351e-05
3.98206e-05
3.98257e-05
2.06509e-05
4.07623e-05
4.07672e-05
2.99383e-05
6.91046e-05
2.947e-05
6.91194e-05
7.17511e-05
7.15503e-05
2.99382e-05
6.91054e-05
2.94698e-05
6.91203e-05
2.1912e-05
2.19119e-05
2.19119e-05
2.12115e-05
2.12114e-05
2.12113e-05
2.12113e-05
1.95214e-05
2.86491e-05
2.13769e-05
2.0574e-05
1.97026e-05
2.89942e-05
2.113e-05
7.17511e-05
7.15501e-05
1.95212e-05
2.13768e-05
2.86494e-05
2.05739e-05
1.97025e-05
2.11298e-05
2.89939e-05
4.22435e-05
4.22501e-05
1.97249e-05
4.31792e-05
4.3185e-05
3.14484e-05
6.91551e-05
3.08021e-05
6.9192e-05
7.12025e-05
7.10635e-05
3.14493e-05
6.91557e-05
3.08011e-05
6.91928e-05
2.09865e-05
2.09863e-05
2.09863e-05
2.0334e-05
2.03339e-05
2.03338e-05
2.03338e-05
1.92798e-05
2.97742e-05
2.042e-05
1.96898e-05
1.93513e-05
3.01949e-05
2.01933e-05
7.12027e-05
7.10634e-05
1.92796e-05
2.04198e-05
2.97744e-05
1.96897e-05
1.93512e-05
2.01932e-05
3.01948e-05
4.4618e-05
4.46247e-05
1.89355e-05
4.55234e-05
4.55303e-05
3.33268e-05
6.92499e-05
3.25318e-05
6.92969e-05
7.08195e-05
7.07236e-05
3.33276e-05
6.92508e-05
3.25319e-05
6.92978e-05
2.01241e-05
2.0124e-05
2.0124e-05
1.9518e-05
1.95179e-05
1.95178e-05
1.95178e-05
1.92975e-05
3.11129e-05
1.95433e-05
1.89086e-05
1.9266e-05
3.15953e-05
1.93363e-05
7.08198e-05
7.07235e-05
1.92974e-05
1.95432e-05
3.11132e-05
1.89085e-05
1.9266e-05
1.93362e-05
3.15953e-05
4.68766e-05
4.68839e-05
1.8277e-05
4.77311e-05
4.77394e-05
3.55262e-05
6.93613e-05
3.46098e-05
6.94088e-05
7.05509e-05
7.04833e-05
3.55267e-05
6.93623e-05
3.46102e-05
6.94098e-05
1.93238e-05
1.93237e-05
1.93237e-05
1.87638e-05
1.87638e-05
1.87636e-05
1.87637e-05
1.95666e-05
3.26191e-05
1.8744e-05
1.8227e-05
1.94491e-05
3.31465e-05
1.8556e-05
7.05508e-05
7.04835e-05
1.95665e-05
1.87439e-05
3.26193e-05
1.82268e-05
1.94492e-05
1.85558e-05
3.31468e-05
4.89681e-05
4.89769e-05
1.77509e-05
4.9757e-05
4.97653e-05
3.79659e-05
6.94706e-05
3.6963e-05
6.95147e-05
7.03562e-05
7.03069e-05
3.79667e-05
6.94717e-05
3.69629e-05
6.95157e-05
1.85847e-05
1.85846e-05
1.85846e-05
1.80688e-05
1.80687e-05
1.80686e-05
1.80686e-05
2.00914e-05
3.42417e-05
1.80197e-05
1.76416e-05
1.98894e-05
3.47956e-05
1.78499e-05
7.03563e-05
7.03069e-05
2.00913e-05
1.80195e-05
3.42422e-05
1.76415e-05
1.98895e-05
1.78498e-05
3.47959e-05
5.08634e-05
5.08722e-05
1.73614e-05
5.15705e-05
5.15786e-05
4.05456e-05
6.95708e-05
3.94965e-05
6.96107e-05
7.02073e-05
7.01682e-05
4.05471e-05
6.9572e-05
3.94966e-05
6.96119e-05
1.79042e-05
1.7904e-05
1.79041e-05
1.74305e-05
1.74305e-05
1.74304e-05
1.74304e-05
2.08648e-05
3.59276e-05
1.73678e-05
1.71515e-05
2.05814e-05
3.64923e-05
1.72159e-05
7.02075e-05
7.01682e-05
2.08648e-05
1.73677e-05
3.59282e-05
1.71514e-05
2.05816e-05
1.72158e-05
3.64928e-05
5.25441e-05
5.25525e-05
1.7105e-05
5.31764e-05
5.31854e-05
4.31512e-05
6.96618e-05
4.21013e-05
6.96984e-05
7.00849e-05
7.0052e-05
4.31517e-05
6.9663e-05
4.2102e-05
6.96996e-05
1.72798e-05
1.72797e-05
1.72797e-05
1.6847e-05
1.68469e-05
1.68468e-05
1.68469e-05
2.18738e-05
3.76291e-05
1.67877e-05
1.67556e-05
2.15141e-05
3.819e-05
1.66535e-05
7.00848e-05
7.00522e-05
2.18738e-05
1.67876e-05
3.76302e-05
1.67555e-05
2.15144e-05
1.66534e-05
3.81902e-05
5.40219e-05
5.4031e-05
1.69817e-05
5.45798e-05
5.45881e-05
4.56742e-05
6.97457e-05
4.46635e-05
6.97799e-05
6.99783e-05
6.99485e-05
4.56756e-05
6.9747e-05
4.4664e-05
6.97813e-05
1.67097e-05
1.67095e-05
1.67096e-05
1.63165e-05
1.63165e-05
1.63164e-05
1.63165e-05
2.30965e-05
3.93049e-05
1.62771e-05
1.64534e-05
2.26689e-05
3.98494e-05
1.61598e-05
6.99784e-05
6.99487e-05
2.30966e-05
1.6277e-05
3.93056e-05
1.64533e-05
2.26693e-05
1.61598e-05
3.98501e-05
5.53095e-05
5.53179e-05
1.69911e-05
5.57997e-05
5.58087e-05
4.80227e-05
6.98247e-05
4.70845e-05
6.98573e-05
6.98809e-05
6.98541e-05
4.80231e-05
6.98261e-05
4.70857e-05
6.98587e-05
1.61923e-05
1.61922e-05
1.61923e-05
1.58372e-05
1.58372e-05
1.58371e-05
1.58372e-05
2.45017e-05
4.09219e-05
1.58345e-05
1.62447e-05
2.40179e-05
4.14393e-05
1.5734e-05
6.98813e-05
6.98541e-05
2.4502e-05
1.58344e-05
4.09224e-05
1.62448e-05
2.40182e-05
1.5734e-05
4.14408e-05
5.64324e-05
5.64408e-05
1.71271e-05
5.68582e-05
5.6867e-05
5.01331e-05
6.99e-05
4.9291e-05
6.99308e-05
6.97909e-05
6.97663e-05
5.01336e-05
6.99014e-05
4.92922e-05
6.99323e-05
1.57254e-05
1.57253e-05
1.57254e-05
1.54071e-05
1.54071e-05
1.54071e-05
1.54071e-05
2.60497e-05
4.24544e-05
1.54594e-05
1.61298e-05
2.55235e-05
4.29408e-05
1.53758e-05
6.97912e-05
6.97662e-05
2.605e-05
1.54594e-05
4.24552e-05
1.61299e-05
2.5524e-05
1.53758e-05
4.29415e-05
5.74092e-05
5.74177e-05
1.73918e-05
5.77798e-05
5.77884e-05
5.19731e-05
6.9971e-05
5.12397e-05
6.99997e-05
6.97072e-05
6.9684e-05
5.19739e-05
6.99724e-05
5.12404e-05
7.00011e-05
1.53073e-05
1.53073e-05
1.53073e-05
2.76953e-05
4.3883e-05
1.51518e-05
1.61106e-05
2.71422e-05
4.43452e-05
1.50849e-05
6.97074e-05
6.96842e-05
2.76956e-05
1.51518e-05
4.38848e-05
1.61107e-05
2.71427e-05
1.5085e-05
4.43459e-05
5.82618e-05
5.82704e-05
1.77835e-05
5.85856e-05
5.85941e-05
3.73741e-05
3.72958e-05
3.72959e-05
5.31118e-05
3.71933e-05
5.3114e-05
3.71933e-05
3.7093e-05
3.72396e-05
3.72409e-05
3.71762e-05
3.71762e-05
3.73701e-05
3.73777e-05
3.73043e-05
3.73768e-05
3.73702e-05
3.73777e-05
3.73043e-05
3.73768e-05
3.71732e-05
3.94123e-05
3.7168e-05
3.67257e-05
3.71732e-05
3.94125e-05
3.7168e-05
3.67256e-05
3.70958e-05
3.71022e-05
3.60249e-05
3.64211e-05
3.71636e-05
3.71109e-05
3.63055e-05
3.70958e-05
3.71022e-05
3.60252e-05
3.64211e-05
3.71636e-05
3.71109e-05
3.63055e-05
3.73741e-05
3.72958e-05
3.72959e-05
5.31124e-05
3.71933e-05
3.7093e-05
3.72401e-05
3.72404e-05
3.71762e-05
3.71762e-05
5.31136e-05
3.71933e-05
3.73701e-05
3.73777e-05
3.73043e-05
3.73768e-05
3.73701e-05
3.73777e-05
3.73768e-05
3.73043e-05
3.71732e-05
3.94126e-05
3.7168e-05
3.67258e-05
3.70958e-05
3.71022e-05
3.60253e-05
3.64211e-05
3.71636e-05
3.71109e-05
3.63055e-05
3.71732e-05
3.94126e-05
3.7168e-05
3.67255e-05
3.70959e-05
3.71022e-05
3.64211e-05
3.60251e-05
3.71109e-05
3.71636e-05
3.63055e-05
3.73773e-05
3.73765e-05
3.7377e-05
3.7377e-05
3.73773e-05
3.73765e-05
3.7377e-05
3.7377e-05
3.73773e-05
3.73765e-05
3.7377e-05
3.7377e-05
3.71133e-05
3.71099e-05
3.64241e-05
3.64241e-05
3.71125e-05
3.71125e-05
3.64261e-05
3.71133e-05
3.71099e-05
3.64241e-05
3.64241e-05
3.71125e-05
3.71125e-05
3.64261e-05
3.71133e-05
3.71099e-05
3.64241e-05
3.64241e-05
3.71125e-05
3.71125e-05
3.64261e-05
3.71133e-05
3.71099e-05
3.64241e-05
3.64241e-05
3.71125e-05
3.71125e-05
3.64261e-05
3.73701e-05
3.73777e-05
3.73768e-05
3.73042e-05
3.70958e-05
3.71022e-05
3.60252e-05
3.64211e-05
3.71636e-05
3.71109e-05
3.63055e-05
3.71732e-05
3.94122e-05
3.7168e-05
3.67258e-05
3.70958e-05
3.71022e-05
3.64211e-05
3.60253e-05
3.71109e-05
3.71636e-05
3.63055e-05
3.71732e-05
3.94124e-05
3.7168e-05
3.67255e-05
3.73741e-05
3.72959e-05
3.72959e-05
5.31144e-05
3.71933e-05
3.7093e-05
3.72401e-05
3.72409e-05
3.71762e-05
3.71762e-05
5.3114e-05
3.71933e-05
3.73702e-05
3.73777e-05
3.73768e-05
3.73043e-05
3.70958e-05
3.71022e-05
3.64211e-05
3.60252e-05
3.71109e-05
3.71636e-05
3.63056e-05
3.70958e-05
3.71022e-05
3.64211e-05
3.60252e-05
3.71109e-05
3.71636e-05
3.63056e-05
3.71732e-05
3.94119e-05
3.7168e-05
3.67258e-05
3.71732e-05
3.94127e-05
3.7168e-05
3.67257e-05
3.7093e-05
3.72411e-05
3.72408e-05
3.71762e-05
3.71762e-05
5.31142e-05
3.71933e-05
5.31143e-05
3.71933e-05
5.5114e-05
6.48946e-05
5.51166e-05
6.4897e-05
3.65986e-05
3.65981e-05
3.5279e-05
3.40621e-05
3.40635e-05
7.47286e-05
6.76708e-05
7.47319e-05
6.7675e-05
3.49729e-05
3.20395e-05
3.20406e-05
3.34709e-05
3.34698e-05
3.58803e-05
4.08727e-05
3.66029e-05
4.5147e-05
3.52758e-05
3.56384e-05
3.58929e-05
3.5377e-05
3.60475e-05
3.42375e-05
3.53822e-05
3.52758e-05
3.56382e-05
3.58929e-05
3.5377e-05
3.60474e-05
3.42379e-05
3.53822e-05
3.56328e-05
5.0214e-05
4.64534e-05
3.48938e-05
3.56326e-05
5.02155e-05
4.64562e-05
3.48937e-05
3.49992e-05
3.48726e-05
3.27313e-05
3.44018e-05
3.38638e-05
3.48857e-05
3.41799e-05
3.49991e-05
3.48725e-05
3.27321e-05
3.44018e-05
3.38633e-05
3.48857e-05
3.41798e-05
3.6598e-05
3.65977e-05
3.52791e-05
3.40629e-05
3.40635e-05
5.51163e-05
6.48963e-05
7.47303e-05
6.76732e-05
3.49729e-05
3.20408e-05
3.20405e-05
3.34697e-05
3.34686e-05
7.47305e-05
6.76737e-05
3.52758e-05
3.56378e-05
3.58929e-05
3.5377e-05
3.60475e-05
3.42375e-05
3.53822e-05
3.58802e-05
4.08734e-05
3.66031e-05
4.51464e-05
3.52757e-05
3.58929e-05
3.56382e-05
3.5377e-05
3.60475e-05
3.53822e-05
3.42373e-05
3.56333e-05
5.02148e-05
4.64547e-05
3.48937e-05
3.49993e-05
3.48726e-05
3.27314e-05
3.44018e-05
3.3863e-05
3.48857e-05
3.41799e-05
3.5633e-05
5.02161e-05
4.6457e-05
3.48929e-05
3.49993e-05
3.48725e-05
3.44018e-05
3.27311e-05
3.48857e-05
3.38635e-05
3.41796e-05
3.58802e-05
4.08719e-05
3.66034e-05
4.51448e-05
3.52758e-05
3.58929e-05
3.56379e-05
3.53771e-05
3.60475e-05
3.53822e-05
3.42377e-05
3.58803e-05
4.08716e-05
3.66029e-05
4.51475e-05
3.49993e-05
3.48726e-05
3.27318e-05
3.44018e-05
3.38628e-05
3.48857e-05
3.41799e-05
3.56334e-05
5.02137e-05
4.64543e-05
3.48936e-05
3.49992e-05
3.48726e-05
3.44018e-05
3.27316e-05
3.48857e-05
3.38628e-05
3.41799e-05
3.56329e-05
5.02161e-05
4.64548e-05
3.48935e-05
3.65983e-05
3.65973e-05
3.52791e-05
3.40622e-05
3.40636e-05
5.51164e-05
6.48965e-05
7.47326e-05
6.76752e-05
3.49729e-05
3.20396e-05
3.2041e-05
3.34711e-05
3.34698e-05
7.4731e-05
6.76742e-05
3.52758e-05
3.58929e-05
3.56381e-05
3.5377e-05
3.60475e-05
3.53822e-05
3.42376e-05
3.58806e-05
4.08717e-05
3.66032e-05
4.51444e-05
3.58806e-05
4.08724e-05
3.6603e-05
4.51477e-05
3.49992e-05
3.48726e-05
3.44018e-05
3.27315e-05
3.48857e-05
3.3863e-05
3.418e-05
3.49992e-05
3.48726e-05
3.44018e-05
3.27315e-05
3.48857e-05
3.38631e-05
3.41799e-05
3.56331e-05
5.0214e-05
4.64541e-05
3.48942e-05
3.56327e-05
5.0217e-05
4.64562e-05
3.48936e-05
5.51164e-05
6.48966e-05
5.51168e-05
6.48971e-05
3.49729e-05
3.20421e-05
3.20409e-05
3.34684e-05
3.3469e-05
7.47312e-05
6.76738e-05
7.47326e-05
6.76754e-05
7.65425e-05
8.08597e-05
7.65471e-05
8.08629e-05
3.17188e-05
3.1717e-05
3.32638e-05
3.09225e-05
3.09237e-05
8.40051e-05
8.18477e-05
8.40077e-05
8.18517e-05
3.29546e-05
3.03089e-05
3.03097e-05
3.07476e-05
3.0745e-05
3.39679e-05
5.13549e-05
3.46786e-05
5.4626e-05
3.30543e-05
3.24747e-05
3.39295e-05
3.34086e-05
3.38959e-05
3.1577e-05
3.34678e-05
3.30541e-05
3.24738e-05
3.39295e-05
3.34086e-05
3.38957e-05
3.15779e-05
3.34678e-05
3.37786e-05
5.83688e-05
5.55958e-05
3.30851e-05
3.37776e-05
5.83705e-05
5.55984e-05
3.30846e-05
3.27691e-05
3.29353e-05
3.06519e-05
3.25726e-05
3.13921e-05
3.30158e-05
3.19186e-05
3.27688e-05
3.29352e-05
3.06519e-05
3.25726e-05
3.13919e-05
3.30158e-05
3.19184e-05
3.1717e-05
3.17165e-05
3.32638e-05
3.09245e-05
3.09239e-05
7.65453e-05
8.08615e-05
8.40063e-05
8.18503e-05
3.29546e-05
3.03105e-05
3.0309e-05
3.07459e-05
3.0745e-05
8.40063e-05
8.18503e-05
3.30542e-05
3.24736e-05
3.39295e-05
3.34087e-05
3.3896e-05
3.15769e-05
3.34678e-05
3.39652e-05
5.13555e-05
3.46794e-05
5.46268e-05
3.30538e-05
3.39294e-05
3.24742e-05
3.34086e-05
3.3896e-05
3.34678e-05
3.1576e-05
3.37787e-05
5.83701e-05
5.55977e-05
3.30849e-05
3.27691e-05
3.29353e-05
3.06513e-05
3.25726e-05
3.13913e-05
3.30158e-05
3.19185e-05
3.37805e-05
5.83715e-05
5.55993e-05
3.30823e-05
3.27691e-05
3.29352e-05
3.25726e-05
3.06505e-05
3.30157e-05
3.13925e-05
3.1918e-05
3.39673e-05
5.13529e-05
3.46793e-05
5.46244e-05
3.30541e-05
3.39295e-05
3.24737e-05
3.34086e-05
3.38958e-05
3.34678e-05
3.15774e-05
3.39672e-05
5.1354e-05
3.46789e-05
5.4626e-05
3.27691e-05
3.29353e-05
3.06515e-05
3.25726e-05
3.13916e-05
3.30158e-05
3.19186e-05
3.37788e-05
5.83693e-05
5.55968e-05
3.30849e-05
3.27689e-05
3.29352e-05
3.25726e-05
3.06514e-05
3.30158e-05
3.13914e-05
3.19184e-05
3.37783e-05
5.83705e-05
5.55983e-05
3.30847e-05
3.17185e-05
3.17173e-05
3.32638e-05
3.09223e-05
3.0924e-05
7.6546e-05
8.08623e-05
8.40077e-05
8.1853e-05
3.29546e-05
3.03086e-05
3.03098e-05
3.07476e-05
3.07452e-05
8.40074e-05
8.18509e-05
3.30541e-05
3.39294e-05
3.24737e-05
3.34087e-05
3.38958e-05
3.34678e-05
3.15774e-05
3.39676e-05
5.13528e-05
3.46788e-05
5.46243e-05
3.39669e-05
5.13553e-05
3.46785e-05
5.46273e-05
3.27691e-05
3.29353e-05
3.25726e-05
3.06513e-05
3.30158e-05
3.13913e-05
3.19185e-05
3.27688e-05
3.29353e-05
3.25726e-05
3.06514e-05
3.30157e-05
3.13914e-05
3.19183e-05
3.37787e-05
5.83699e-05
5.55971e-05
3.30851e-05
3.37785e-05
5.83719e-05
5.55996e-05
3.30847e-05
7.65458e-05
8.08624e-05
7.65475e-05
8.08638e-05
3.29546e-05
3.03105e-05
3.03098e-05
3.07452e-05
3.07449e-05
8.40072e-05
8.18509e-05
8.40082e-05
8.18524e-05
8.43905e-05
8.50671e-05
8.43936e-05
8.5069e-05
3.0219e-05
3.02169e-05
3.12732e-05
3.00037e-05
3.00037e-05
8.48431e-05
8.50714e-05
8.48443e-05
8.50731e-05
3.09612e-05
2.993e-05
2.99295e-05
2.99706e-05
2.99692e-05
3.22518e-05
5.91702e-05
3.29215e-05
6.14425e-05
3.07896e-05
3.05136e-05
3.21376e-05
3.15539e-05
3.16366e-05
2.98875e-05
3.17101e-05
3.07893e-05
3.05135e-05
3.21375e-05
3.15537e-05
3.16363e-05
2.98875e-05
3.17101e-05
3.21128e-05
6.38736e-05
6.20719e-05
3.14733e-05
3.21124e-05
6.38749e-05
6.20744e-05
3.14729e-05
3.05139e-05
3.1106e-05
2.92374e-05
3.08764e-05
2.97757e-05
3.12899e-05
2.96801e-05
3.05135e-05
3.11059e-05
2.92376e-05
3.08763e-05
2.97758e-05
3.12898e-05
2.96799e-05
3.02177e-05
3.02169e-05
3.12732e-05
3.00048e-05
3.00032e-05
8.43924e-05
8.5068e-05
8.48437e-05
8.50722e-05
3.09611e-05
2.99305e-05
2.99293e-05
2.997e-05
2.99691e-05
8.48437e-05
8.50723e-05
3.07894e-05
3.05129e-05
3.21375e-05
3.15539e-05
3.16365e-05
2.98869e-05
3.17101e-05
3.22499e-05
5.91711e-05
3.29238e-05
6.14435e-05
3.07891e-05
3.21375e-05
3.05134e-05
3.15537e-05
3.16365e-05
3.17101e-05
2.98869e-05
3.21127e-05
6.38752e-05
6.20744e-05
3.14732e-05
3.05137e-05
3.11061e-05
2.92369e-05
3.08764e-05
2.97751e-05
3.12898e-05
2.968e-05
3.21137e-05
6.38758e-05
6.20753e-05
3.1472e-05
3.05136e-05
3.11058e-05
3.08763e-05
2.92369e-05
3.12898e-05
2.97752e-05
2.96796e-05
3.22521e-05
5.91689e-05
3.2922e-05
6.14415e-05
3.07894e-05
3.21375e-05
3.0513e-05
3.15538e-05
3.16363e-05
3.17101e-05
2.98869e-05
3.22518e-05
5.91701e-05
3.29216e-05
6.14424e-05
3.05138e-05
3.11062e-05
2.9237e-05
3.08764e-05
2.97753e-05
3.12899e-05
2.96802e-05
3.21127e-05
6.3874e-05
6.20733e-05
3.14732e-05
3.05135e-05
3.11059e-05
3.08764e-05
2.92369e-05
3.12898e-05
2.97752e-05
2.96799e-05
3.21124e-05
6.38747e-05
6.20742e-05
3.14729e-05
3.02183e-05
3.0217e-05
3.12731e-05
3.00042e-05
3.00037e-05
8.43932e-05
8.5069e-05
8.48447e-05
8.50736e-05
3.09611e-05
2.99301e-05
2.99295e-05
2.99699e-05
2.99692e-05
8.48445e-05
8.50732e-05
3.07892e-05
3.21375e-05
3.0513e-05
3.15539e-05
3.16363e-05
3.17101e-05
2.9887e-05
3.22521e-05
5.91692e-05
3.2922e-05
6.14422e-05
3.22517e-05
5.91715e-05
3.29216e-05
6.14438e-05
3.05138e-05
3.11062e-05
3.08764e-05
2.92367e-05
3.12899e-05
2.9775e-05
2.96799e-05
3.05135e-05
3.11061e-05
3.08763e-05
2.92371e-05
3.12898e-05
2.97753e-05
2.96798e-05
3.21127e-05
6.38749e-05
6.20737e-05
3.14732e-05
3.21123e-05
6.38761e-05
6.20757e-05
3.14727e-05
8.4393e-05
8.50687e-05
8.43941e-05
8.50694e-05
3.09611e-05
2.99302e-05
2.993e-05
2.99698e-05
2.99696e-05
8.48442e-05
8.50729e-05
8.48445e-05
8.50735e-05
8.46098e-05
8.39135e-05
8.46121e-05
8.3912e-05
2.99416e-05
2.99406e-05
2.93485e-05
3.00357e-05
3.00353e-05
8.26259e-05
8.35472e-05
8.26235e-05
8.3549e-05
2.90407e-05
3.03195e-05
3.03204e-05
3.01088e-05
3.01081e-05
3.07537e-05
6.43517e-05
3.13502e-05
6.57292e-05
2.86009e-05
2.91422e-05
3.04694e-05
2.98002e-05
2.9413e-05
2.86757e-05
3.00687e-05
2.86007e-05
2.91423e-05
3.04694e-05
2.98e-05
2.94126e-05
2.86758e-05
3.00686e-05
3.06428e-05
6.70871e-05
6.6071e-05
3.01e-05
3.06425e-05
6.70869e-05
6.60725e-05
3.00997e-05
2.83443e-05
2.9378e-05
2.81916e-05
2.92854e-05
2.85945e-05
2.96741e-05
2.75613e-05
2.8344e-05
2.93778e-05
2.81918e-05
2.92854e-05
2.85946e-05
2.96741e-05
2.75611e-05
2.99417e-05
2.99404e-05
2.93485e-05
3.00364e-05
3.0035e-05
8.46118e-05
8.39117e-05
8.26235e-05
8.35491e-05
2.90407e-05
3.03203e-05
3.03188e-05
3.01094e-05
3.01078e-05
8.26235e-05
8.35491e-05
2.86007e-05
2.91417e-05
3.04694e-05
2.98004e-05
2.94128e-05
2.86753e-05
3.00687e-05
3.07529e-05
6.43527e-05
3.13502e-05
6.57303e-05
2.86003e-05
3.04693e-05
2.91416e-05
2.98e-05
2.94126e-05
3.00686e-05
2.86752e-05
3.06427e-05
6.7088e-05
6.60732e-05
3.00998e-05
2.83441e-05
2.93782e-05
2.81912e-05
2.92854e-05
2.85941e-05
2.96741e-05
2.7561e-05
3.06423e-05
6.70882e-05
6.60737e-05
3.00988e-05
2.83439e-05
2.93777e-05
2.92854e-05
2.81911e-05
2.9674e-05
2.8594e-05
2.75606e-05
3.07539e-05
6.4351e-05
3.13505e-05
6.57288e-05
2.86007e-05
3.04694e-05
2.91416e-05
2.98001e-05
2.94125e-05
3.00687e-05
2.86751e-05
3.07537e-05
6.43514e-05
3.13502e-05
6.57291e-05
2.83441e-05
2.93783e-05
2.81912e-05
2.92855e-05
2.85941e-05
2.96741e-05
2.75613e-05
3.06427e-05
6.7087e-05
6.60725e-05
3.00998e-05
2.83438e-05
2.93779e-05
2.92854e-05
2.81911e-05
2.96741e-05
2.8594e-05
2.75611e-05
3.06424e-05
6.70867e-05
6.60723e-05
3.00995e-05
2.99412e-05
2.99404e-05
2.93484e-05
3.00358e-05
3.00351e-05
8.46121e-05
8.39128e-05
8.26238e-05
8.35494e-05
2.90406e-05
3.03198e-05
3.03197e-05
3.01087e-05
3.01078e-05
8.26244e-05
8.35492e-05
2.86005e-05
3.04693e-05
2.91418e-05
2.98003e-05
2.94125e-05
3.00687e-05
2.86754e-05
3.07539e-05
6.43514e-05
3.13505e-05
6.57298e-05
3.07535e-05
6.4353e-05
3.135e-05
6.57306e-05
2.83442e-05
2.93782e-05
2.92855e-05
2.81908e-05
2.96741e-05
2.85938e-05
2.7561e-05
2.83438e-05
2.93781e-05
2.92854e-05
2.81914e-05
2.9674e-05
2.85942e-05
2.75608e-05
3.06427e-05
6.70882e-05
6.60729e-05
3.00998e-05
3.06422e-05
6.70882e-05
6.60738e-05
3.00994e-05
8.46119e-05
8.39125e-05
8.46123e-05
8.39122e-05
2.90406e-05
3.03228e-05
3.03228e-05
3.01085e-05
3.01087e-05
8.26242e-05
8.35491e-05
8.26237e-05
8.35492e-05
8.22116e-05
8.12242e-05
8.22133e-05
8.12212e-05
3.0448e-05
3.04409e-05
2.75332e-05
3.07761e-05
3.0781e-05
7.98382e-05
8.0803e-05
7.98352e-05
8.08046e-05
2.72389e-05
3.13878e-05
3.13909e-05
3.09371e-05
3.09311e-05
2.95186e-05
6.73198e-05
3.00008e-05
6.80356e-05
2.65681e-05
2.81236e-05
2.89027e-05
2.81515e-05
2.7317e-05
2.77821e-05
2.85256e-05
2.65679e-05
2.81238e-05
2.89026e-05
2.81513e-05
2.73167e-05
2.77824e-05
2.85256e-05
2.94336e-05
6.86611e-05
6.81816e-05
2.90183e-05
2.94334e-05
6.86602e-05
6.81819e-05
2.90181e-05
2.63382e-05
2.77563e-05
2.7448e-05