/*--------------------------------*- C++ -*----------------------------------*\
| =========                 |                                                 |
| \\      /  F ield         | OpenFOAM: The Open Source CFD Toolbox           |
|  \\    /   O peration     | Version:  v2006                                 |
|   \\  /    A nd           | Website:  www.openfoam.com                      |
|    \\/     M anipulation  |                                                 |
\*---------------------------------------------------------------------------*/
FoamFile
{
    version     2.0;
    format      ascii;
    class       volScalarField;
    location    "750";
    object      nut;
}
// * * * * * * * * * * * * * * * * * * * * * * * * * * * * * * * * * * * * * //

dimensions      [0 2 -1 0 0 0 0];


internalField   nonuniform List<scalar> 
43024
(
0.000233973
0.000233116
0.000233116
0.000233423
0.000232532
0.000227802
0.000227801
0.000223866
0.000230516
0.000220319
0.000220318
0.000209109
0.000227799
0.000211664
0.000211662
0.000193784
0.000224433
0.000202648
0.000202645
0.000179707
0.000220552
0.00019377
0.000193767
0.000167336
0.000216305
0.000185273
0.00018527
0.000156584
0.000211821
0.000177231
0.000177228
0.000147203
0.000207208
0.000169686
0.000169683
0.000138946
0.000202546
0.000162609
0.000162605
0.00013161
0.000197891
0.000155947
0.000155943
0.000124948
0.000193277
0.000149645
0.00014964
0.000118811
0.000188684
0.000143664
0.000143659
0.000113164
0.000184152
0.000137951
0.000137945
0.000107928
0.000179708
0.000132462
0.000132456
0.000103051
0.00017534
0.000127187
0.000127183
9.84318e-05
0.000171038
0.000122146
0.000122144
9.42469e-05
0.000166787
0.000117366
0.000117363
9.06579e-05
0.00016259
0.000112882
0.000112881
8.77287e-05
0.000158418
0.000108749
0.000108749
8.53777e-05
0.000154266
0.000105019
0.000105019
8.36626e-05
0.000234266
0.000234448
0.000234449
0.000234267
0.000234448
0.000234449
0.000234274
0.000234274
0.000234274
0.000234274
0.000234448
0.000234448
0.000234266
0.000234448
0.000234448
0.000234266
0.000233423
0.000226205
0.000233116
0.000233114
0.000229361
0.000229357
0.000233422
0.000226204
0.000233114
0.000233114
0.000229359
0.000229356
0.000233116
0.000229364
0.00022936
0.000233423
0.000226203
0.000233114
0.000229363
0.000229359
0.000226201
0.000223868
0.000212232
0.000227799
0.000227794
0.000222332
0.000222326
0.000223867
0.000212232
0.000227797
0.000227793
0.000222333
0.000222325
0.000227797
0.000222337
0.000222329
0.000223867
0.000212229
0.000227796
0.000222336
0.000222331
0.000212225
0.000209113
0.000197064
0.000220313
0.000220307
0.00021388
0.000213873
0.00020911
0.000197063
0.000220315
0.000220305
0.000213885
0.000213871
0.00022031
0.000213889
0.000213876
0.00020911
0.000197059
0.000220312
0.000213886
0.000213881
0.000197053
0.000193791
0.00018288
0.000211654
0.000211647
0.00020489
0.000204883
0.000193789
0.000182879
0.00021166
0.000211645
0.000204899
0.000204881
0.00021165
0.000204903
0.000204885
0.000193787
0.000182875
0.000211656
0.0002049
0.000204895
0.000182868
0.000179716
0.000170272
0.000202634
0.000202627
0.000195943
0.000195936
0.000179714
0.000170271
0.000202644
0.000202625
0.000195956
0.000195933
0.000202629
0.000195959
0.000195938
0.000179711
0.000170266
0.00020264
0.000195957
0.000195952
0.000170259
0.000167347
0.000159246
0.000193753
0.000193746
0.000187337
0.00018733
0.000167346
0.000159246
0.000193767
0.000193743
0.000187354
0.000187327
0.000193748
0.000187356
0.000187331
0.000167342
0.000159241
0.000193762
0.000187353
0.000187348
0.000159233
0.000156595
0.000149617
0.000185253
0.000185246
0.000179173
0.000179166
0.000156594
0.000149616
0.00018527
0.000185242
0.000179193
0.000179163
0.000185247
0.000179195
0.000179168
0.00015659
0.000149611
0.000185265
0.000179192
0.000179188
0.000149603
0.000147215
0.000141111
0.000177208
0.000177201
0.000171501
0.000171494
0.000147213
0.00014111
0.000177229
0.000177198
0.000171524
0.000171491
0.000177203
0.000171526
0.000171496
0.00014721
0.000141105
0.000177224
0.000171523
0.000171519
0.000141095
0.00013896
0.000133551
0.00016966
0.000169653
0.000164309
0.000164302
0.000138958
0.00013355
0.000169684
0.00016965
0.000164335
0.000164299
0.000169655
0.000164337
0.000164304
0.000138954
0.000133545
0.000169679
0.000164334
0.00016433
0.000133535
0.000131625
0.00012669
0.000162581
0.000162574
0.000157547
0.00015754
0.000131623
0.000126689
0.000162607
0.00016257
0.000157575
0.000157537
0.000162576
0.000157576
0.000157542
0.000131619
0.000126683
0.000162602
0.000157573
0.00015757
0.000126672
0.000124964
0.000120365
0.000155916
0.000155909
0.000151158
0.000151151
0.000124963
0.000120365
0.000155945
0.000155906
0.000151188
0.000151148
0.000155912
0.000151189
0.000151153
0.000124958
0.000120359
0.00015594
0.000151186
0.000151183
0.000120348
0.000118824
0.00011443
0.000149612
0.000149605
0.000145096
0.000145089
0.000118824
0.000114429
0.000149643
0.000149602
0.000145128
0.000145087
0.000149607
0.000145128
0.000145092
0.000118819
0.000114425
0.000149638
0.000145126
0.000145124
0.000114412
0.000113178
0.00010884
0.000143629
0.000143623
0.000139319
0.000139312
0.000113176
0.000108839
0.000143662
0.00014362
0.000139352
0.000139309
0.000143625
0.000139352
0.000139315
0.000113172
0.000108835
0.000143657
0.000139349
0.000139348
0.000108822
0.000107943
0.000103706
0.000137915
0.000137908
0.000133776
0.000133769
0.000107941
0.000103704
0.000137948
0.000137905
0.00013381
0.000133766
0.000137911
0.000133809
0.000133772
0.000107938
0.0001037
0.000137944
0.000133807
0.000133806
0.000103689
0.000103066
9.91311e-05
0.000132425
0.000132418
0.000128446
0.000128438
0.000103066
9.91298e-05
0.000132458
0.000132415
0.000128479
0.000128435
0.000132421
0.00012848
0.000128442
0.000103061
9.9126e-05
0.000132454
0.000128478
0.000128476
9.91154e-05
9.84456e-05
9.49928e-05
0.000127152
0.000127143
0.000123346
0.000123336
9.84442e-05
9.49908e-05
0.000127184
0.00012714
0.000123378
0.000123333
0.000127147
0.000123379
0.00012334
9.84412e-05
9.49874e-05
0.000127181
0.000123377
0.000123373
9.49771e-05
9.42616e-05
9.14391e-05
0.000122113
0.000122103
0.000118479
0.000118468
9.42585e-05
9.1437e-05
0.000122144
0.0001221
0.000118509
0.000118465
0.000122107
0.000118511
0.000118474
9.42565e-05
9.14344e-05
0.00012214
0.00011851
0.000118506
9.14247e-05
9.06679e-05
8.83818e-05
0.000117333
0.000117321
0.000113925
0.000113914
9.06642e-05
8.83792e-05
0.000117363
0.000117318
0.000113954
0.00011391
0.000117327
0.000113956
0.000113919
9.06644e-05
8.83775e-05
0.000117359
0.000113955
0.00011395
8.83683e-05
8.77399e-05
8.5908e-05
0.00011285
0.000112838
0.000109694
0.000109683
8.77391e-05
8.59077e-05
0.000112879
0.000112835
0.000109721
0.000109679
0.000112844
0.000109725
0.000109687
8.77359e-05
8.59043e-05
0.000112875
0.000109724
0.000109717
8.5899e-05
8.53893e-05
8.40674e-05
0.000108719
0.000108706
0.000105851
0.000105837
8.53922e-05
8.40659e-05
0.000108747
0.000108704
0.000105876
0.000105834
0.000108712
0.000105879
0.000105844
8.53854e-05
8.40629e-05
0.000108742
0.000105879
0.000105873
8.40597e-05
8.36717e-05
0.000104989
0.000104977
8.36729e-05
0.000105016
0.000104974
0.000104984
8.36665e-05
0.000105012
0.00023473
0.000234746
0.000234729
0.000234729
0.000235118
0.000234798
0.000234702
0.000234727
0.000235118
0.000234798
0.000234727
0.000234701
0.000234867
0.000233566
0.000233566
0.000104652
3.8741e-05
0.000129114
3.98253e-05
2.16828e-05
2.28306e-05
0.000104655
3.87377e-05
0.000129112
3.98212e-05
0.000233973
0.000233973
0.000233973
0.000232935
0.000232935
0.000232935
0.000232935
0.0002062
9.36746e-05
0.000233969
0.000231994
0.000222612
8.72276e-05
0.000233611
2.16821e-05
2.28302e-05
0.000206193
0.000233969
9.36718e-05
0.000231994
0.000222617
0.000233611
8.72249e-05
4.77978e-05
4.77898e-05
0.000231344
4.4018e-05
4.40107e-05
7.25719e-05
4.2435e-05
8.14006e-05
4.37645e-05
2.47747e-05
2.54626e-05
7.25665e-05
4.24308e-05
8.13942e-05
4.37602e-05
0.000232532
0.000232532
0.000232532
0.000231084
0.000231084
0.000231084
0.000231084
0.000167493
7.94346e-05
0.000232081
0.000226096
0.000180209
7.45132e-05
0.000231376
2.47736e-05
2.54619e-05
0.00016749
0.00023208
7.94332e-05
0.000226095
0.000180206
0.000231376
7.45117e-05
3.91614e-05
3.91538e-05
0.000219591
3.65749e-05
3.65662e-05
5.6285e-05
4.55474e-05
6.11318e-05
4.64142e-05
2.60125e-05
2.61164e-05
5.62808e-05
4.55437e-05
6.11278e-05
4.64101e-05
0.000230515
0.000230515
0.000230515
0.000228543
0.000228543
0.000228542
0.000228542
0.000138601
6.74236e-05
0.000228643
0.000218229
0.000148064
6.35176e-05
0.000227537
2.60117e-05
2.61152e-05
0.000138598
0.000228642
6.74216e-05
0.000218227
0.000148059
0.000227536
6.35169e-05
3.32162e-05
3.32098e-05
0.000204609
3.19905e-05
3.19839e-05
4.69677e-05
4.75001e-05
4.99127e-05
4.80064e-05
2.60461e-05
2.59381e-05
4.69645e-05
4.74962e-05
4.99092e-05
4.80021e-05
0.000227798
0.000227798
0.000227797
0.000225329
0.000225328
0.000225327
0.000225327
0.000117548
5.8206e-05
0.00022372
0.000209418
0.0001246
5.54851e-05
0.000222309
2.60449e-05
2.5937e-05
0.000117545
0.000223719
5.82043e-05
0.000209416
0.000124597
0.000222308
5.54843e-05
3.06162e-05
3.06105e-05
0.000189774
3.03032e-05
3.02976e-05
4.14301e-05
4.85837e-05
4.32468e-05
4.88418e-05
2.56743e-05
2.55189e-05
4.14273e-05
4.85795e-05
4.32439e-05
4.88372e-05
0.000224433
0.000224431
0.000224431
0.000221563
0.000221562
0.00022156
0.00022156
0.000102114
5.18778e-05
0.00021777
0.000200402
0.000107377
5.00759e-05
0.00021618
2.56731e-05
2.55177e-05
0.000102111
0.000217768
5.18765e-05
0.0002004
0.000107375
0.000216178
5.0075e-05
3.01775e-05
3.01732e-05
0.000176364
3.04057e-05
3.04001e-05
3.8157e-05
4.90949e-05
3.92445e-05
4.92006e-05
2.52367e-05
2.50932e-05
3.81547e-05
4.90906e-05
3.9242e-05
4.9196e-05
0.000220551
0.00022055
0.000220549
0.000217393
0.000217392
0.00021739
0.00021739
9.04978e-05
4.77382e-05
0.000211268
0.000191605
9.44561e-05
4.66129e-05
0.000209602
2.52355e-05
2.5092e-05
9.04941e-05
0.000211266
4.77371e-05
0.000191602
9.44556e-05
0.0002096
4.66117e-05
3.09596e-05
3.09555e-05
0.000164557
3.15663e-05
3.15613e-05
3.63752e-05
4.92769e-05
3.69415e-05
4.92983e-05
2.48477e-05
2.47319e-05
3.63731e-05
4.92722e-05
3.69392e-05
4.92935e-05
0.000216303
0.000216301
0.000216301
0.000212958
0.000212956
0.000212954
0.000212953
8.1592e-05
4.51678e-05
0.000204578
0.000183217
8.46671e-05
4.4552e-05
0.000202906
2.48465e-05
2.47307e-05
8.15878e-05
0.000204575
4.51664e-05
0.000183214
8.46674e-05
0.000202904
4.45511e-05
3.25113e-05
3.25072e-05
0.000154262
3.33458e-05
3.3341e-05
3.5676e-05
4.92942e-05
3.58225e-05
4.92844e-05
2.4534e-05
2.44462e-05
3.56742e-05
4.92894e-05
3.58206e-05
4.92796e-05
0.00021182
0.000211817
0.000211817
0.000208368
0.000208366
0.000208364
0.000208363
7.4647e-05
4.37709e-05
0.000197937
0.000175298
7.71144e-05
4.35219e-05
0.000196303
2.45328e-05
2.4445e-05
7.46429e-05
0.000197934
4.37697e-05
0.000175295
7.71144e-05
0.0001963
4.35211e-05
3.45442e-05
3.45406e-05
0.000145214
3.55034e-05
3.54998e-05
3.57591e-05
4.9258e-05
3.56389e-05
4.92464e-05
2.42935e-05
2.42282e-05
3.57574e-05
4.92531e-05
3.56372e-05
4.92416e-05
0.000207206
0.000207203
0.000207203
0.000203712
0.00020371
0.000203707
0.000203707
6.9177e-05
4.3243e-05
0.000191482
0.000167875
7.11989e-05
4.32342e-05
0.0001899
2.42923e-05
2.4227e-05
6.91739e-05
0.000191478
4.32419e-05
0.000167872
7.11985e-05
0.000189897
4.32335e-05
3.68672e-05
3.68641e-05
0.000137212
3.7897e-05
3.78937e-05
3.65622e-05
4.92287e-05
3.62068e-05
4.92246e-05
2.41147e-05
2.40672e-05
3.65594e-05
4.92237e-05
3.62053e-05
4.92198e-05
0.000202544
0.000202541
0.000202541
0.000199051
0.000199048
0.000199045
0.000199045
6.48676e-05
4.3383e-05
0.000185239
0.000160906
6.65073e-05
4.35656e-05
0.000183716
2.41135e-05
2.4066e-05
6.48653e-05
0.000185235
4.33822e-05
0.000160903
6.65053e-05
0.000183713
4.35647e-05
3.93447e-05
3.93421e-05
0.000130028
4.04019e-05
4.03982e-05
3.80675e-05
4.9224e-05
3.73651e-05
4.92293e-05
2.39851e-05
2.39515e-05
3.80655e-05
4.92191e-05
3.7363e-05
4.92245e-05
0.000197889
0.000197885
0.000197885
0.000194423
0.00019442
0.000194417
0.000194417
6.1508e-05
4.40647e-05
0.000179253
0.000154339
6.27537e-05
4.4405e-05
0.000177802
2.39839e-05
2.39503e-05
6.1506e-05
0.000179249
4.40637e-05
0.000154336
6.27513e-05
0.000177798
4.44045e-05
4.18727e-05
4.18712e-05
0.000123451
4.29228e-05
4.29195e-05
4.01169e-05
4.9242e-05
3.91198e-05
4.92551e-05
2.38932e-05
2.38699e-05
4.01169e-05
4.92371e-05
3.9116e-05
4.92503e-05
0.000193275
0.000193271
0.000193271
0.000189831
0.000189829
0.000189825
0.000189825
5.90058e-05
4.51941e-05
0.000173548
0.000148118
5.98522e-05
4.56668e-05
0.000172163
2.38921e-05
2.38687e-05
5.90041e-05
0.000173545
4.51934e-05
0.000148115
5.98494e-05
0.000172159
4.56662e-05
4.4363e-05
4.43607e-05
0.000117338
4.53888e-05
4.53867e-05
4.26407e-05
4.92759e-05
4.14278e-05
4.92927e-05
2.38287e-05
2.38128e-05
4.26407e-05
4.92709e-05
4.14259e-05
4.92876e-05
0.000188682
0.000188678
0.000188678
0.000185276
0.000185273
0.000185269
0.000185269
5.72048e-05
4.66966e-05
0.000168096
0.000142209
5.77208e-05
4.72762e-05
0.000166768
2.38278e-05
2.38116e-05
5.72035e-05
0.000168092
4.66959e-05
0.000142206
5.77188e-05
0.000166765
4.72759e-05
4.67577e-05
4.6756e-05
0.000111566
4.77372e-05
4.77366e-05
4.55749e-05
4.93155e-05
4.42133e-05
4.93324e-05
2.37837e-05
2.37723e-05
4.55738e-05
4.93105e-05
4.4212e-05
4.93274e-05
0.00018415
0.000184146
0.000184146
0.00018081
0.000180807
0.000180803
0.000180803
5.60339e-05
4.84967e-05
0.00016286
0.000136554
5.63291e-05
4.91592e-05
0.000161581
2.37825e-05
2.37711e-05
5.60329e-05
0.000162856
4.84964e-05
0.000136552
5.6327e-05
0.000161578
4.91587e-05
4.90073e-05
4.90071e-05
0.000106188
4.99262e-05
4.99246e-05
4.88207e-05
4.93544e-05
4.7357e-05
4.937e-05
2.37509e-05
2.37425e-05
4.88206e-05
4.93494e-05
4.73543e-05
4.93651e-05
0.000179706
0.000179701
0.000179701
0.000176424
0.000176421
0.000176417
0.000176417
5.55208e-05
5.05199e-05
0.000157809
0.000131117
5.56002e-05
5.12396e-05
0.000156573
2.37497e-05
2.37413e-05
5.55197e-05
0.000157806
5.05195e-05
0.000131115
5.55986e-05
0.00015657
5.12395e-05
5.10832e-05
5.10822e-05
0.000101346
5.19268e-05
5.19247e-05
5.22489e-05
4.939e-05
5.07345e-05
4.94041e-05
2.37257e-05
2.37191e-05
5.22498e-05
4.9385e-05
5.07327e-05
4.93992e-05
0.000175338
0.000175333
0.000175334
0.000172105
0.000172103
0.000172098
0.000172099
5.56461e-05
5.26928e-05
0.000152913
0.0001259
5.55168e-05
5.34467e-05
0.000151714
2.37245e-05
2.37179e-05
5.56451e-05
0.00015291
5.26926e-05
0.000125898
5.55153e-05
0.000151711
5.34468e-05
5.29696e-05
5.29677e-05
9.69856e-05
5.3749e-05
5.37482e-05
5.57171e-05
4.94223e-05
5.42081e-05
4.94352e-05
2.37049e-05
2.36994e-05
5.57162e-05
4.94173e-05
5.42068e-05
4.94303e-05
0.000171035
0.000171031
0.000171031
0.000167841
0.000167838
0.000167834
0.000167834
5.63841e-05
5.49478e-05
0.000148168
0.00012092
5.60562e-05
5.57164e-05
0.000147002
2.37038e-05
2.36983e-05
5.63835e-05
0.000148165
5.49482e-05
0.000120918
5.60547e-05
0.000147
5.57163e-05
5.46807e-05
5.46798e-05
9.31255e-05
5.53915e-05
5.53893e-05
5.90951e-05
4.94523e-05
5.76373e-05
4.94646e-05
2.36869e-05
2.36819e-05
5.90953e-05
4.94471e-05
5.76361e-05
4.94593e-05
0.000166784
0.00016678
0.00016678
0.00016363
0.000163627
0.000163622
0.000163623
5.7693e-05
5.72273e-05
0.000143539
0.000116201
5.71824e-05
5.79928e-05
0.0001424
2.36858e-05
2.36808e-05
5.76921e-05
0.000143537
5.72276e-05
0.0001162
5.71815e-05
0.000142398
5.79929e-05
5.62217e-05
5.62198e-05
8.982e-05
5.68735e-05
5.68722e-05
6.22751e-05
4.94803e-05
6.09051e-05
4.94916e-05
2.36704e-05
2.36659e-05
6.22729e-05
4.94751e-05
6.09049e-05
4.94867e-05
0.000162587
0.000162582
0.000162583
0.000159453
0.00015945
0.000159445
0.000159445
5.95071e-05
5.94839e-05
0.000139012
0.000111793
5.88384e-05
6.02311e-05
0.0001379
2.36694e-05
2.36648e-05
5.95066e-05
0.00013901
5.94833e-05
0.000111794
5.88373e-05
0.000137899
6.02323e-05
5.76193e-05
5.76171e-05
8.70557e-05
5.82088e-05
5.82074e-05
6.51813e-05
4.95069e-05
6.39276e-05
4.95176e-05
2.36554e-05
2.36507e-05
6.51772e-05
4.95018e-05
6.39287e-05
4.95127e-05
0.000158414
0.00015841
0.000158411
0.000155297
0.000155293
0.000155289
0.000155289
6.17433e-05
6.16802e-05
0.000134592
0.000107749
6.09455e-05
6.24021e-05
0.000133513
2.36541e-05
2.36499e-05
6.17429e-05
0.000134591
6.16788e-05
0.00010775
6.09446e-05
0.000133512
6.24019e-05
5.88834e-05
5.88814e-05
8.48991e-05
5.94168e-05
5.9415e-05
6.77791e-05
4.95317e-05
6.66499e-05
4.95416e-05
2.36412e-05
2.36373e-05
6.77723e-05
4.95269e-05
6.66552e-05
4.95371e-05
0.000154263
0.000154258
0.000154259
6.43076e-05
6.37768e-05
0.000130297
0.000104149
6.34127e-05
6.4497e-05
0.000129257
2.36399e-05
2.3636e-05
6.43073e-05
0.000130296
6.37784e-05
0.00010415
6.3412e-05
0.000129256
6.44963e-05
6.003e-05
6.00281e-05
8.33767e-05
6.05143e-05
6.05122e-05
0.000234867
0.000233565
0.000233566
2.32577e-05
0.00021417
2.32565e-05
0.00021417
0.000234435
5.1328e-05
5.13244e-05
0.00022999
0.000229992
0.000235118
0.000234798
0.000234701
0.000234727
0.000235118
0.000234798
0.000234701
0.000234727
0.000234477
4.02628e-05
0.000218815
0.000147826
0.000234477
4.02614e-05
0.000218815
0.000147819
0.000233888
0.000234474
0.000100091
0.00023427
0.000233359
0.000234597
0.000228477
0.000233888
0.000234474
0.000100093
0.000234271
0.000233359
0.000234597
0.000228477
0.000234867
0.000233565
0.000233566
2.32567e-05
0.00021417
0.000234435
5.13256e-05
5.13237e-05
0.000229992
0.000229991
2.32571e-05
0.000214168
0.000235118
0.000234798
0.000234702
0.000234727
0.000235117
0.000234798
0.000234727
0.000234702
0.000234477
4.02592e-05
0.000218816
0.000147825
0.000233889
0.000234474
0.000100071
0.00023427
0.000233359
0.000234597
0.000228475
0.000234477
4.0259e-05
0.000218816
0.000147837
0.000233889
0.000234474
0.000234271
0.000100081
0.000234597
0.000233359
0.000228477
0.00023473
0.000234746
0.000234729
0.000234729
0.00023473
0.000234746
0.000234729
0.000234729
0.00023473
0.000234746
0.000234729
0.000234729
0.000234591
0.000234574
0.000234253
0.000234253
0.000234592
0.000234592
0.000234252
0.000234591
0.000234574
0.000234253
0.000234253
0.000234592
0.000234592
0.000234253
0.000234591
0.000234574
0.000234253
0.000234253
0.000234592
0.000234592
0.000234253
0.000234591
0.000234574
0.000234253
0.000234253
0.000234592
0.000234592
0.000234253
0.000235118
0.000234798
0.000234727
0.000234702
0.000233889
0.000234474
0.000100083
0.000234271
0.000233359
0.000234597
0.000228476
0.000234477
4.02597e-05
0.000218816
0.00014784
0.000233889
0.000234474
0.000234271
0.000100085
0.000234597
0.000233359
0.000228479
0.000234477
4.02592e-05
0.000218817
0.000147837
0.000234867
0.000233566
0.000233566
2.32564e-05
0.000214168
0.000234435
5.13219e-05
5.13262e-05
0.000229992
0.000229992
2.32571e-05
0.000214169
0.000235118
0.000234798
0.000234727
0.000234702
0.000233888
0.000234474
0.000234271
0.000100076
0.000234597
0.000233359
0.000228475
0.000233888
0.000234474
0.000234271
0.00010008
0.000234597
0.000233359
0.000228475
0.000234477
4.02596e-05
0.000218816
0.000147816
0.000234477
4.02585e-05
0.000218816
0.000147824
0.000234435
5.13287e-05
5.13203e-05
0.000229992
0.000229992
2.3257e-05
0.000214168
2.32563e-05
0.000214168
2.16841e-05
2.28328e-05
2.16825e-05
2.28309e-05
4.78057e-05
4.77917e-05
0.000231346
4.40175e-05
4.40086e-05
2.4482e-05
2.33057e-05
2.44798e-05
2.33038e-05
0.000229667
4.00648e-05
4.00551e-05
4.31053e-05
4.30896e-05
0.000104646
3.87397e-05
0.000129133
3.98228e-05
0.000206202
9.36844e-05
0.000233969
0.000231993
0.000222609
8.72314e-05
0.000233611
0.0002062
9.36731e-05
0.000233969
0.00023199
0.000222611
8.72207e-05
0.000233611
9.8429e-05
4.19633e-05
4.03783e-05
8.55811e-05
9.84293e-05
4.19606e-05
4.0376e-05
8.55712e-05
0.000200084
0.000230759
8.08086e-05
0.000232683
8.56709e-05
0.000233189
0.00018564
0.000200082
0.000230755
8.07995e-05
0.000232682
8.56553e-05
0.000233188
0.000185635
4.77954e-05
4.77951e-05
0.000231346
4.40138e-05
4.40132e-05
2.16832e-05
2.2832e-05
2.448e-05
2.33035e-05
0.000229667
4.00593e-05
4.00622e-05
4.30923e-05
4.3098e-05
2.44814e-05
2.33051e-05
0.000206195
9.36602e-05
0.000233969
0.00023199
0.000222609
8.72126e-05
0.000233611
0.000104644
3.87374e-05
0.000129126
3.982e-05
0.000206196
0.000233969
9.36675e-05
0.000231989
0.000222613
0.000233611
8.72132e-05
9.84101e-05
4.19592e-05
4.03743e-05
8.55753e-05
0.000200081
0.000230756
8.07942e-05
0.000232682
8.56487e-05
0.000233189
0.000185633
9.8419e-05
4.1958e-05
4.03738e-05
8.5575e-05
0.00020008
0.000230754
0.000232682
8.07914e-05
0.000233188
8.56506e-05
0.00018563
0.000104656
3.87382e-05
0.000129108
3.98222e-05
0.000206202
0.000233969
9.36722e-05
0.000231992
0.000222614
0.000233611
8.72229e-05
0.000104655
3.87376e-05
0.00012913
3.9822e-05
0.000200082
0.00023076
8.08083e-05
0.000232683
8.56666e-05
0.000233189
0.000185635
9.84118e-05
4.19605e-05
4.03759e-05
8.55762e-05
0.000200081
0.000230757
0.000232682
8.08042e-05
0.000233189
8.56638e-05
0.000185635
9.84189e-05
4.19597e-05
4.03747e-05
8.55762e-05
4.7795e-05
4.77992e-05
0.000231345
4.40081e-05
4.4018e-05
2.16834e-05
2.28323e-05
2.44789e-05
2.33031e-05
0.000229667
4.00508e-05
4.00621e-05
4.30898e-05
4.30958e-05
2.44807e-05
2.33052e-05
0.000206194
0.000233969
9.36646e-05
0.00023199
0.000222615
0.000233611
8.72163e-05
0.000104645
3.87382e-05
0.000129126
3.98223e-05
0.000104639
3.87367e-05
0.000129125
3.98205e-05
0.000200083
0.000230759
0.000232683
8.08049e-05
0.000233189
8.56615e-05
0.000185632
0.000200077
0.000230756
0.000232682
8.07946e-05
0.000233188
8.56513e-05
0.000185629
9.84201e-05
4.196e-05
4.03757e-05
8.55681e-05
9.84184e-05
4.19583e-05
4.03734e-05
8.55699e-05
2.16831e-05
2.28313e-05
2.16821e-05
2.283e-05
0.000229667
4.00655e-05
4.00558e-05
4.3096e-05
4.30852e-05
2.44805e-05
2.33044e-05
2.44793e-05
2.3303e-05
2.47766e-05
2.54649e-05
2.47747e-05
2.54626e-05
3.9173e-05
3.91558e-05
0.000219597
3.65748e-05
3.65677e-05
2.59552e-05
2.562e-05
2.59528e-05
2.56179e-05
0.000216777
3.38502e-05
3.38424e-05
3.57342e-05
3.57187e-05
7.25608e-05
4.24325e-05
8.14017e-05
4.37615e-05
0.000167496
7.94394e-05
0.000232081
0.000226093
0.000180212
7.45152e-05
0.000231376
0.000167492
7.94248e-05
0.00023208
0.000226087
0.000180207
7.45049e-05
0.000231375
6.9633e-05
4.52389e-05
4.41516e-05
6.32391e-05
6.96353e-05
4.52362e-05
4.4149e-05
6.32371e-05
0.000162886
0.000224265
6.86746e-05
0.000229654
7.3155e-05
0.000230568
0.000151906
0.000162881
0.000224259
6.86635e-05
0.000229653
7.31432e-05
0.000230566
0.000151901
3.91596e-05
3.91625e-05
0.000219597
3.65691e-05
3.65724e-05
2.47761e-05
2.54638e-05
2.59529e-05
2.56178e-05
0.000216776
3.38447e-05
3.38483e-05
3.5722e-05
3.57264e-05
2.59543e-05
2.5619e-05
0.00016749
7.94228e-05
0.00023208
0.000226091
0.000180205
7.4502e-05
0.000231375
7.25724e-05
4.24299e-05
8.13934e-05
4.37592e-05
0.000167483
0.00023208
7.94235e-05
0.000226086
0.000180204
0.000231375
7.44964e-05
6.96282e-05
4.52349e-05
4.41477e-05
6.32345e-05
0.00016288
0.000224264
6.86625e-05
0.000229654
7.3142e-05
0.000230566
0.000151899
6.9619e-05
4.52337e-05
4.41465e-05
6.32323e-05
0.000162877
0.000224258
0.000229653
6.86584e-05
0.000230565
7.31427e-05
0.000151894
7.25674e-05
4.24324e-05
8.13962e-05
4.37616e-05
0.00016749
0.00023208
7.94317e-05
0.00022609
0.000180206
0.000231375
7.45101e-05
7.25661e-05
4.24312e-05
8.13952e-05
4.37601e-05
0.000162883
0.000224269
6.8672e-05
0.000229655
7.3153e-05
0.000230567
0.000151903
6.96302e-05
4.52365e-05
4.41491e-05
6.32353e-05
0.00016288
0.000224262
0.000229654
6.86693e-05
0.000230566
7.31491e-05
0.000151899
6.9628e-05
4.5235e-05
4.41478e-05
6.32339e-05
3.91581e-05
3.91629e-05
0.000219595
3.6562e-05
3.65746e-05
2.47756e-05
2.54636e-05
2.5952e-05
2.5617e-05
0.000216775
3.38395e-05
3.38491e-05
3.57198e-05
3.57254e-05
2.59538e-05
2.56188e-05
0.000167485
0.00023208
7.94227e-05
0.00022609
0.000180201
0.000231375
7.45014e-05
7.25657e-05
4.24317e-05
8.14001e-05
4.37611e-05
7.2567e-05
4.24299e-05
8.1396e-05
4.37588e-05
0.000162879
0.000224268
0.000229655
6.86708e-05
0.000230567
7.31504e-05
0.000151899
0.000162875
0.000224263
0.000229654
6.86611e-05
0.000230565
7.31408e-05
0.000151894
6.96275e-05
4.52358e-05
4.41485e-05
6.32341e-05
6.96234e-05
4.52336e-05
4.41464e-05
6.3231e-05
2.47751e-05
2.54629e-05
2.4774e-05
2.54616e-05
0.000216774
3.38488e-05
3.38415e-05
3.57243e-05
3.57175e-05
2.59533e-05
2.56181e-05
2.5952e-05
2.56168e-05
2.60147e-05
2.61188e-05
2.60123e-05
2.61162e-05
3.32237e-05
3.32107e-05
0.000204619
3.19933e-05
3.19846e-05
2.60843e-05
2.61194e-05
2.60817e-05
2.61168e-05
0.000201352
3.08804e-05
3.08714e-05
3.15714e-05
3.15611e-05
5.6283e-05
4.5545e-05
6.11297e-05
4.64113e-05
0.000138605
6.74253e-05
0.000228644
0.000218223
0.000148066
6.35199e-05
0.000227536
0.000138601
6.74144e-05
0.000228641
0.000218216
0.000148061
6.35092e-05
0.000227534
5.47709e-05
4.73241e-05
4.66519e-05
5.10085e-05
5.47688e-05
4.73211e-05
4.66493e-05
5.10066e-05
0.000135413
0.000216074
5.91352e-05
0.000225066
6.24239e-05
0.000226343
0.000127255
0.000135409
0.000216068
5.91252e-05
0.000225065
6.24139e-05
0.00022634
0.000127252
3.32125e-05
3.32181e-05
0.000204619
3.19863e-05
3.19908e-05
2.60138e-05
2.61178e-05
2.60817e-05
2.61169e-05
0.000201349
3.08732e-05
3.08776e-05
3.15638e-05
3.15679e-05
2.60833e-05
2.61184e-05
0.000138598
6.74137e-05
0.000228642
0.000218225
0.00014806
6.35091e-05
0.000227535
5.62738e-05
4.55425e-05
6.11281e-05
4.64085e-05
0.000138592
0.00022864
6.74118e-05
0.000218214
0.000148058
0.000227534
6.35074e-05
5.47671e-05
4.73199e-05
4.66482e-05
5.10049e-05
0.000135406
0.000216078
5.91254e-05
0.000225066
6.24137e-05
0.000226341
0.000127248
5.47674e-05
4.73181e-05
4.66465e-05
5.10024e-05
0.000135406
0.000216066
0.000225064
5.91235e-05
0.000226339
6.24113e-05
0.000127243
5.6282e-05
4.55453e-05
6.11297e-05
4.64117e-05
0.000138598
0.000228642
6.74199e-05
0.000218219
0.00014806
0.000227535
6.3515e-05
5.62807e-05
4.55438e-05
6.11276e-05
4.64101e-05
0.000135411
0.000216082
5.9133e-05
0.000225067
6.24222e-05
0.000226342
0.000127251
5.47685e-05
4.73215e-05
4.66497e-05
5.10059e-05
0.000135408
0.00021607
0.000225065
5.91305e-05
0.000226341
6.24188e-05
0.000127249
5.47669e-05
4.73198e-05
4.66481e-05
5.10047e-05
3.32093e-05
3.32167e-05
0.000204614
3.19829e-05
3.19906e-05
2.60133e-05
2.61173e-05
2.60807e-05
2.61158e-05
0.000201348
3.08699e-05
3.08769e-05
3.15597e-05
3.15667e-05
2.60828e-05
2.61179e-05
0.000138594
0.00022864
6.74121e-05
0.000218222
0.000148054
0.000227534
6.35074e-05
5.62808e-05
4.55444e-05
6.11273e-05
4.6411e-05
5.62784e-05
4.55424e-05
6.11243e-05
4.64086e-05
0.000135407
0.000216081
0.000225066
5.9132e-05
0.000226341
6.24204e-05
0.000127248
0.000135403
0.000216074
0.000225065
5.91235e-05
0.000226339
6.24118e-05
0.000127245
5.4767e-05
4.73208e-05
4.66489e-05
5.10049e-05
5.47646e-05
4.73183e-05
4.66467e-05
5.10029e-05
2.60129e-05
2.61168e-05
2.60115e-05
2.61154e-05
0.000201346
3.08766e-05
3.08707e-05
3.15664e-05
3.15603e-05
2.60823e-05
2.61174e-05
2.60808e-05
2.6116e-05
2.60485e-05
2.59409e-05
2.60459e-05
2.5938e-05
3.06203e-05
3.06112e-05
0.000189786
3.03062e-05
3.02981e-05
2.57412e-05
2.58843e-05
2.5738e-05
2.58818e-05
0.000186553
3.01717e-05
3.01661e-05
3.02075e-05
3.01995e-05
4.69661e-05
4.74974e-05
4.99108e-05
4.8003e-05
0.000117552
5.82076e-05
0.000223721
0.000209408
0.000124603
5.54873e-05
0.000222308
0.000117549
5.81985e-05
0.000223718
0.000209401
0.000124599
5.54783e-05
0.000222306
4.61586e-05
4.84999e-05
4.81313e-05
4.38458e-05
4.6157e-05
4.84963e-05
4.81282e-05
4.38444e-05
0.000115371
0.000207151
5.2498e-05
0.000219325
5.4724e-05
0.000220843
0.000109275
0.000115367
0.000207144
5.24901e-05
0.000219323
5.47155e-05
0.000220839
0.000109273
3.0613e-05
3.06175e-05
0.000189785
3.02996e-05
3.03042e-05
2.60476e-05
2.59396e-05
2.57382e-05
2.5882e-05
0.000186551
3.01654e-05
3.01697e-05
3.0201e-05
3.02056e-05
2.57398e-05
2.58835e-05
0.000117545
5.81983e-05
0.000223719
0.000209414
0.000124596
5.54783e-05
0.000222307
4.69629e-05
4.74945e-05
4.99062e-05
4.80001e-05
0.00011754
0.000223716
5.8196e-05
0.000209398
0.000124595
0.000222305
5.54765e-05
4.61554e-05
4.84954e-05
4.81272e-05
4.38428e-05
0.000115364
0.000207158
5.24898e-05
0.000219324
5.47155e-05
0.00022084
0.000109268
4.61526e-05
4.84934e-05
4.81254e-05
4.38416e-05
0.000115363
0.000207141
0.000219322
5.2488e-05
0.000220837
5.47132e-05
0.000109264
4.69653e-05
4.74979e-05
4.99104e-05
4.80037e-05
0.000117546
0.000223718
5.82028e-05
0.000209403
0.000124598
0.000222307
5.54829e-05
4.69643e-05
4.7496e-05
4.99092e-05
4.80018e-05
0.000115367
0.000207162
5.2496e-05
0.000219326
5.47223e-05
0.000220842
0.000109271
4.61565e-05
4.84971e-05
4.8129e-05
4.38435e-05
0.000115365
0.000207146
0.000219324
5.2494e-05
0.000220839
5.47194e-05
0.000109269
4.61556e-05
4.8495e-05
4.81269e-05
4.38428e-05
3.06098e-05
3.06165e-05
0.000189781
3.02968e-05
3.03034e-05
2.60471e-05
2.59392e-05
2.5737e-05
2.58808e-05
0.000186548
3.01626e-05
3.01708e-05
3.01982e-05
3.02046e-05
2.57393e-05
2.5883e-05
0.000117543
0.000223716
5.81963e-05
0.000209411
0.000124593
0.000222306
5.54764e-05
4.69645e-05
4.7497e-05
4.99092e-05
4.8003e-05
4.69629e-05
4.74946e-05
4.99073e-05
4.80002e-05
0.000115365
0.00020716
0.000219325
5.24951e-05
0.00022084
5.47209e-05
0.000109268
0.000115361
0.000207154
0.000219324
5.24881e-05
0.000220837
5.47135e-05
0.000109266
4.61555e-05
4.84965e-05
4.81281e-05
4.38429e-05
4.6154e-05
4.84934e-05
4.81254e-05
4.38415e-05
2.60466e-05
2.59387e-05
2.60451e-05
2.59371e-05
0.000186545
3.0175e-05
3.01689e-05
3.02043e-05
3.0199e-05
2.57388e-05
2.58825e-05
2.57372e-05
2.5881e-05
2.56765e-05
2.55219e-05
2.56741e-05
2.55187e-05
3.01937e-05
3.0174e-05
0.000176376
3.03904e-05
3.03926e-05
2.53032e-05
2.54556e-05
2.53e-05
2.54532e-05
0.000173317
3.08798e-05
3.08777e-05
3.04699e-05
3.04519e-05
4.14289e-05
4.85804e-05
4.32454e-05
4.8838e-05
0.000102117
5.18796e-05
0.000217771
0.000200388
0.00010738
5.00777e-05
0.000216179
0.000102116
5.18718e-05
0.000217767
0.000200381
0.000107377
5.00707e-05
0.000216177
4.09874e-05
4.90656e-05
4.8894e-05
3.95702e-05
4.09863e-05
4.90616e-05
4.88905e-05
3.95692e-05
0.000100458
0.000198156
4.81411e-05
0.000212922
4.95798e-05