/*--------------------------------*- C++ -*----------------------------------*\
| =========                 |                                                 |
| \\      /  F ield         | OpenFOAM: The Open Source CFD Toolbox           |
|  \\    /   O peration     | Version:  v2012                                 |
|   \\  /    A nd           | Website:  www.openfoam.com                      |
|    \\/     M anipulation  |                                                 |
\*---------------------------------------------------------------------------*/
FoamFile
{
    version     2.0;
    format      ascii;
    class       volScalarField;
    location    "0.425";
    object      p;
}
// * * * * * * * * * * * * * * * * * * * * * * * * * * * * * * * * * * * * * //

dimensions      [0 2 -2 0 0 0 0];


internalField   nonuniform List<scalar> 
247104
(
1.8368e-06
1.83668e-06
1.83683e-06
1.83682e-06
1.83674e-06
1.83683e-06
1.83682e-06
1.83661e-06
1.83668e-06
1.83675e-06
1.83681e-06
1.83666e-06
1.83657e-06
1.83668e-06
1.83682e-06
1.83672e-06
1.83684e-06
1.83681e-06
1.8365e-06
1.83614e-06
1.836e-06
1.83618e-06
1.83655e-06
1.83682e-06
1.83684e-06
1.83682e-06
1.83666e-06
1.83615e-06
1.83566e-06
1.83549e-06
1.83571e-06
1.83621e-06
1.8367e-06
1.83682e-06
1.83681e-06
1.83674e-06
1.83657e-06
1.83601e-06
1.83549e-06
1.83531e-06
1.83554e-06
1.83608e-06
1.83662e-06
1.83673e-06
1.83684e-06
1.83668e-06
1.83618e-06
1.83571e-06
1.83554e-06
1.83576e-06
1.83625e-06
1.83672e-06
1.83684e-06
1.83682e-06
1.83682e-06
1.83655e-06
1.83621e-06
1.83608e-06
1.83625e-06
1.83659e-06
1.83683e-06
1.83682e-06
1.83661e-06
1.83672e-06
1.83682e-06
1.8367e-06
1.83662e-06
1.83672e-06
1.83683e-06
1.83668e-06
1.83683e-06
1.83682e-06
1.83673e-06
1.83684e-06
1.83682e-06
1.80409e-06
1.8021e-06
1.80145e-06
1.80023e-06
1.80023e-06
1.80018e-06
1.80017e-06
1.8015e-06
1.80171e-06
1.80145e-06
1.79939e-06
1.79682e-06
1.7968e-06
1.7968e-06
1.79682e-06
1.79977e-06
1.80005e-06
1.80023e-06
1.79682e-06
1.79676e-06
1.79683e-06
1.79683e-06
1.79676e-06
1.79682e-06
1.80015e-06
1.80151e-06
1.80409e-06
1.80023e-06
1.7968e-06
1.79683e-06
1.79692e-06
1.79692e-06
1.79683e-06
1.7968e-06
1.80017e-06
1.80181e-06
1.8021e-06
1.80018e-06
1.7968e-06
1.79683e-06
1.79692e-06
1.79692e-06
1.79683e-06
1.7968e-06
1.80033e-06
1.80042e-06
1.80018e-06
1.79682e-06
1.79676e-06
1.79683e-06
1.79683e-06
1.79676e-06
1.79682e-06
1.80012e-06
1.80144e-06
1.80151e-06
1.79978e-06
1.79682e-06
1.7968e-06
1.7968e-06
1.79682e-06
1.80003e-06
1.80019e-06
1.80165e-06
1.80171e-06
1.80005e-06
1.80016e-06
1.80018e-06
1.80034e-06
1.80013e-06
1.80019e-06
1.80172e-06
1.80151e-06
1.80181e-06
1.80043e-06
1.80144e-06
1.80166e-06
1.78397e-06
1.78381e-06
1.78364e-06
1.78154e-06
1.78143e-06
1.78138e-06
1.78152e-06
1.78357e-06
1.78383e-06
1.78364e-06
1.78085e-06
1.7779e-06
1.77786e-06
1.77787e-06
1.77792e-06
1.78129e-06
1.78197e-06
1.78155e-06
1.77793e-06
1.77769e-06
1.77773e-06
1.77773e-06
1.77769e-06
1.77792e-06
1.78209e-06
1.78403e-06
1.78398e-06
1.78144e-06
1.77788e-06
1.77773e-06
1.77777e-06
1.77777e-06
1.77773e-06
1.77786e-06
1.78213e-06
1.78379e-06
1.78381e-06
1.78139e-06
1.77788e-06
1.77773e-06
1.77777e-06
1.77776e-06
1.77772e-06
1.77785e-06
1.78209e-06
1.78212e-06
1.78153e-06
1.77793e-06
1.77769e-06
1.77773e-06
1.77773e-06
1.77768e-06
1.77787e-06
1.78212e-06
1.78413e-06
1.78358e-06
1.7813e-06
1.7779e-06
1.77786e-06
1.77787e-06
1.77793e-06
1.78176e-06
1.78208e-06
1.78405e-06
1.78384e-06
1.78198e-06
1.78209e-06
1.78214e-06
1.7821e-06
1.78214e-06
1.78208e-06
1.78393e-06
1.78404e-06
1.7838e-06
1.78213e-06
1.78413e-06
1.78406e-06
1.76511e-06
1.76494e-06
1.7648e-06
1.76266e-06
1.76255e-06
1.76247e-06
1.76265e-06
1.76472e-06
1.76499e-06
1.76479e-06
1.76195e-06
1.75899e-06
1.75897e-06
1.75897e-06
1.75899e-06
1.76236e-06
1.76313e-06
1.76266e-06
1.75899e-06
1.75889e-06
1.7589e-06
1.7589e-06
1.75889e-06
1.75899e-06
1.76322e-06
1.76516e-06
1.76511e-06
1.76255e-06
1.75897e-06
1.7589e-06
1.75891e-06
1.75891e-06
1.7589e-06
1.75897e-06
1.76327e-06
1.76492e-06
1.76494e-06
1.76248e-06
1.75897e-06
1.7589e-06
1.75892e-06
1.75891e-06
1.7589e-06
1.75897e-06
1.76324e-06
1.76328e-06
1.76266e-06
1.75899e-06
1.75889e-06
1.7589e-06
1.7589e-06
1.75889e-06
1.75899e-06
1.76326e-06
1.76525e-06
1.76473e-06
1.76237e-06
1.75899e-06
1.75897e-06
1.75897e-06
1.75899e-06
1.76299e-06
1.76326e-06
1.76522e-06
1.765e-06
1.76315e-06
1.76323e-06
1.76328e-06
1.76325e-06
1.76326e-06
1.76326e-06
1.76524e-06
1.76518e-06
1.76493e-06
1.76328e-06
1.76525e-06
1.76522e-06
1.74623e-06
1.74606e-06
1.74589e-06
1.74376e-06
1.74364e-06
1.74356e-06
1.74374e-06
1.74583e-06
1.7461e-06
1.7459e-06
1.74306e-06
1.74008e-06
1.74007e-06
1.74007e-06
1.74008e-06
1.74344e-06
1.74425e-06
1.74376e-06
1.74008e-06
1.74005e-06
1.74005e-06
1.74005e-06
1.74005e-06
1.74008e-06
1.74433e-06
1.74628e-06
1.74623e-06
1.74364e-06
1.74007e-06
1.74005e-06
1.74005e-06
1.74005e-06
1.74005e-06
1.74007e-06
1.7444e-06
1.74606e-06
1.74606e-06
1.74356e-06
1.74007e-06
1.74005e-06
1.74005e-06
1.74005e-06
1.74005e-06
1.74007e-06
1.74437e-06
1.74441e-06
1.74374e-06
1.74008e-06
1.74005e-06
1.74005e-06
1.74005e-06
1.74005e-06
1.74008e-06
1.74438e-06
1.74638e-06
1.74583e-06
1.74344e-06
1.74008e-06
1.74007e-06
1.74007e-06
1.74008e-06
1.74412e-06
1.74437e-06
1.74632e-06
1.7461e-06
1.74425e-06
1.74433e-06
1.7444e-06
1.74437e-06
1.74438e-06
1.74437e-06
1.74631e-06
1.74628e-06
1.74606e-06
1.74441e-06
1.74638e-06
1.74632e-06
1.72733e-06
1.72716e-06
1.72699e-06
1.72486e-06
1.72474e-06
1.72466e-06
1.72484e-06
1.72693e-06
1.7272e-06
1.72699e-06
1.72416e-06
1.72117e-06
1.72117e-06
1.72117e-06
1.72117e-06
1.72452e-06
1.72534e-06
1.72486e-06
1.72117e-06
1.72116e-06
1.72116e-06
1.72116e-06
1.72116e-06
1.72117e-06
1.72542e-06
1.72738e-06
1.72733e-06
1.72474e-06
1.72117e-06
1.72116e-06
1.72116e-06
1.72116e-06
1.72116e-06
1.72117e-06
1.7255e-06
1.72717e-06
1.72716e-06
1.72466e-06
1.72117e-06
1.72116e-06
1.72116e-06
1.72116e-06
1.72116e-06
1.72117e-06
1.72547e-06
1.72551e-06
1.72484e-06
1.72117e-06
1.72116e-06
1.72116e-06
1.72116e-06
1.72116e-06
1.72117e-06
1.72548e-06
1.72748e-06
1.72693e-06
1.72452e-06
1.72117e-06
1.72117e-06
1.72117e-06
1.72117e-06
1.72523e-06
1.72548e-06
1.72741e-06
1.7272e-06
1.72534e-06
1.72542e-06
1.7255e-06
1.72548e-06
1.72548e-06
1.72548e-06
1.72741e-06
1.72738e-06
1.72717e-06
1.72551e-06
1.72748e-06
1.72741e-06
1.70843e-06
1.70826e-06
1.70809e-06
1.70595e-06
1.70584e-06
1.70576e-06
1.70594e-06
1.70803e-06
1.70829e-06
1.70809e-06
1.70526e-06
1.70227e-06
1.70227e-06
1.70227e-06
1.70227e-06
1.70561e-06
1.70644e-06
1.70595e-06
1.70227e-06
1.70227e-06
1.70227e-06
1.70227e-06
1.70227e-06
1.70227e-06
1.70652e-06
1.70848e-06
1.70843e-06
1.70583e-06
1.70227e-06
1.70227e-06
1.70227e-06
1.70227e-06
1.70227e-06
1.70227e-06
1.7066e-06
1.70827e-06
1.70826e-06
1.70576e-06
1.70227e-06
1.70227e-06
1.70227e-06
1.70227e-06
1.70227e-06
1.70227e-06
1.70657e-06
1.70661e-06
1.70594e-06
1.70227e-06
1.70227e-06
1.70227e-06
1.70227e-06
1.70227e-06
1.70227e-06
1.70658e-06
1.70858e-06
1.70803e-06
1.70561e-06
1.70227e-06
1.70227e-06
1.70227e-06
1.70227e-06
1.70633e-06
1.70658e-06
1.70851e-06
1.70829e-06
1.70644e-06
1.70652e-06
1.7066e-06
1.70657e-06
1.70658e-06
1.70658e-06
1.70851e-06
1.70848e-06
1.70827e-06
1.70661e-06
1.70858e-06
1.70851e-06
1.68953e-06
1.68936e-06
1.68919e-06
1.68705e-06
1.68694e-06
1.68686e-06
1.68704e-06
1.68913e-06
1.68939e-06
1.68919e-06
1.68636e-06
1.68337e-06
1.68337e-06
1.68337e-06
1.68337e-06
1.68671e-06
1.68754e-06
1.68705e-06
1.68337e-06
1.68337e-06
1.68337e-06
1.68337e-06
1.68337e-06
1.68337e-06
1.68761e-06
1.68958e-06
1.68953e-06
1.68693e-06
1.68337e-06
1.68337e-06
1.68337e-06
1.68337e-06
1.68337e-06
1.68337e-06
1.6877e-06
1.68937e-06
1.68936e-06
1.68686e-06
1.68337e-06
1.68337e-06
1.68337e-06
1.68337e-06
1.68337e-06
1.68337e-06
1.68767e-06
1.68771e-06
1.68704e-06
1.68337e-06
1.68337e-06
1.68337e-06
1.68337e-06
1.68337e-06
1.68337e-06
1.68768e-06
1.68969e-06
1.68913e-06
1.68671e-06
1.68337e-06
1.68337e-06
1.68337e-06
1.68337e-06
1.68743e-06
1.68768e-06
1.68961e-06
1.68939e-06
1.68754e-06
1.68761e-06
1.6877e-06
1.68767e-06
1.68768e-06
1.68768e-06
1.6896e-06
1.68958e-06
1.68937e-06
1.68771e-06
1.68968e-06
1.68961e-06
1.67063e-06
1.67046e-06
1.67029e-06
1.66815e-06
1.66803e-06
1.66796e-06
1.66813e-06
1.67023e-06
1.67049e-06
1.67029e-06
1.66746e-06
1.66447e-06
1.66447e-06
1.66447e-06
1.66447e-06
1.66781e-06
1.66864e-06
1.66815e-06
1.66447e-06
1.66447e-06
1.66447e-06
1.66447e-06
1.66447e-06
1.66447e-06
1.66871e-06
1.67068e-06
1.67063e-06
1.66803e-06
1.66447e-06
1.66447e-06
1.66447e-06
1.66447e-06
1.66447e-06
1.66447e-06
1.6688e-06
1.67047e-06
1.67046e-06
1.66796e-06
1.66447e-06
1.66447e-06
1.66447e-06
1.66447e-06
1.66447e-06
1.66447e-06
1.66877e-06
1.66881e-06
1.66813e-06
1.66447e-06
1.66447e-06
1.66447e-06
1.66447e-06
1.66447e-06
1.66447e-06
1.66878e-06
1.67078e-06
1.67023e-06
1.66781e-06
1.66447e-06
1.66447e-06
1.66447e-06
1.66447e-06
1.66853e-06
1.66878e-06
1.67071e-06
1.67049e-06
1.66864e-06
1.66871e-06
1.6688e-06
1.66877e-06
1.66878e-06
1.66878e-06
1.6707e-06
1.67068e-06
1.67047e-06
1.66881e-06
1.67078e-06
1.67071e-06
1.65173e-06
1.65156e-06
1.65139e-06
1.64925e-06
1.64913e-06
1.64906e-06
1.64923e-06
1.65133e-06
1.65159e-06
1.65138e-06
1.64856e-06
1.64557e-06
1.64557e-06
1.64557e-06
1.64557e-06
1.64891e-06
1.64974e-06
1.64925e-06
1.64557e-06
1.64557e-06
1.64557e-06
1.64557e-06
1.64557e-06
1.64557e-06
1.64981e-06
1.65178e-06
1.65173e-06
1.64913e-06
1.64557e-06
1.64557e-06
1.64557e-06
1.64557e-06
1.64557e-06
1.64557e-06
1.6499e-06
1.65157e-06
1.65156e-06
1.64906e-06
1.64557e-06
1.64557e-06
1.64557e-06
1.64557e-06
1.64557e-06
1.64557e-06
1.64987e-06
1.64991e-06
1.64923e-06
1.64557e-06
1.64557e-06
1.64557e-06
1.64557e-06
1.64557e-06
1.64557e-06
1.64988e-06
1.65188e-06
1.65133e-06
1.64891e-06
1.64557e-06
1.64557e-06
1.64557e-06
1.64557e-06
1.64963e-06
1.64988e-06
1.65181e-06
1.65159e-06
1.64974e-06
1.64981e-06
1.6499e-06
1.64987e-06
1.64988e-06
1.64988e-06
1.6518e-06
1.65178e-06
1.65157e-06
1.64991e-06
1.65188e-06
1.65181e-06
1.63283e-06
1.63266e-06
1.63249e-06
1.63035e-06
1.63023e-06
1.63016e-06
1.63033e-06
1.63242e-06
1.63269e-06
1.63248e-06
1.62966e-06
1.62667e-06
1.62667e-06
1.62667e-06
1.62667e-06
1.63001e-06
1.63083e-06
1.63035e-06
1.62667e-06
1.62667e-06
1.62667e-06
1.62667e-06
1.62667e-06
1.62667e-06
1.63091e-06
1.63288e-06
1.63283e-06
1.63023e-06
1.62667e-06
1.62667e-06
1.62667e-06
1.62667e-06
1.62667e-06
1.62667e-06
1.631e-06
1.63267e-06
1.63266e-06
1.63016e-06
1.62667e-06
1.62667e-06
1.62667e-06
1.62667e-06
1.62667e-06
1.62667e-06
1.63097e-06
1.63101e-06
1.63033e-06
1.62667e-06
1.62667e-06
1.62667e-06
1.62667e-06
1.62667e-06
1.62667e-06
1.63098e-06
1.63298e-06
1.63243e-06
1.63001e-06
1.62667e-06
1.62667e-06
1.62667e-06
1.62667e-06
1.63073e-06
1.63098e-06
1.63291e-06
1.63269e-06
1.63084e-06
1.63091e-06
1.63099e-06
1.63097e-06
1.63098e-06
1.63098e-06
1.6329e-06
1.63287e-06
1.63267e-06
1.63101e-06
1.63298e-06
1.63291e-06
1.61392e-06
1.61376e-06
1.61358e-06
1.61145e-06
1.61133e-06
1.61126e-06
1.61143e-06
1.61352e-06
1.61379e-06
1.61358e-06
1.61076e-06
1.60776e-06
1.60777e-06
1.60776e-06
1.60777e-06
1.61111e-06
1.61193e-06
1.61145e-06
1.60776e-06
1.60776e-06
1.60776e-06
1.60776e-06
1.60776e-06
1.60777e-06
1.61201e-06
1.61397e-06
1.61392e-06
1.61133e-06
1.60776e-06
1.60776e-06
1.60776e-06
1.60776e-06
1.60776e-06
1.60776e-06
1.61209e-06
1.61377e-06
1.61376e-06
1.61126e-06
1.60776e-06
1.60776e-06
1.60776e-06
1.60776e-06
1.60776e-06
1.60777e-06
1.61207e-06
1.61211e-06
1.61143e-06
1.60776e-06
1.60776e-06
1.60776e-06
1.60776e-06
1.60776e-06
1.60776e-06
1.61207e-06
1.61408e-06
1.61352e-06
1.61111e-06
1.60776e-06
1.60776e-06
1.60776e-06
1.60777e-06
1.61183e-06
1.61208e-06
1.61401e-06
1.61379e-06
1.61193e-06
1.61201e-06
1.61209e-06
1.61207e-06
1.61208e-06
1.61208e-06
1.614e-06
1.61397e-06
1.61377e-06
1.61211e-06
1.61408e-06
1.61401e-06
1.59502e-06
1.59486e-06
1.59468e-06
1.59255e-06
1.59243e-06
1.59236e-06
1.59253e-06
1.59462e-06
1.59489e-06
1.59468e-06
1.59186e-06
1.58886e-06
1.58886e-06
1.58886e-06
1.58886e-06
1.59221e-06
1.59303e-06
1.59255e-06
1.58886e-06
1.58886e-06
1.58886e-06
1.58886e-06
1.58886e-06
1.58886e-06
1.59311e-06
1.59507e-06
1.59502e-06
1.59243e-06
1.58886e-06
1.58886e-06
1.58886e-06
1.58886e-06
1.58886e-06
1.58886e-06
1.59319e-06
1.59486e-06
1.59486e-06
1.59236e-06
1.58886e-06
1.58886e-06
1.58886e-06
1.58886e-06
1.58886e-06
1.58886e-06
1.59317e-06
1.59321e-06
1.59253e-06
1.58886e-06
1.58886e-06
1.58886e-06
1.58886e-06
1.58886e-06
1.58886e-06
1.59317e-06
1.59518e-06
1.59462e-06
1.59221e-06
1.58886e-06
1.58886e-06
1.58886e-06
1.58886e-06
1.59293e-06
1.59318e-06
1.59511e-06
1.59489e-06
1.59303e-06
1.59311e-06
1.59319e-06
1.59317e-06
1.59317e-06
1.59318e-06
1.5951e-06
1.59507e-06
1.59486e-06
1.59321e-06
1.59518e-06
1.59511e-06
1.57612e-06
1.57596e-06
1.57578e-06
1.57365e-06
1.57353e-06
1.57346e-06
1.57363e-06
1.57572e-06
1.57599e-06
1.57578e-06
1.57296e-06
1.56996e-06
1.56996e-06
1.56996e-06
1.56996e-06
1.57331e-06
1.57413e-06
1.57365e-06
1.56996e-06
1.56996e-06
1.56996e-06
1.56996e-06
1.56996e-06
1.56996e-06
1.57421e-06
1.57617e-06
1.57612e-06
1.57353e-06
1.56996e-06
1.56996e-06
1.56996e-06
1.56996e-06
1.56996e-06
1.56996e-06
1.57429e-06
1.57596e-06
1.57596e-06
1.57346e-06
1.56996e-06
1.56996e-06
1.56996e-06
1.56996e-06
1.56996e-06
1.56996e-06
1.57427e-06
1.57431e-06
1.57363e-06
1.56996e-06
1.56996e-06
1.56996e-06
1.56996e-06
1.56996e-06
1.56996e-06
1.57427e-06
1.57628e-06
1.57572e-06
1.57331e-06
1.56996e-06
1.56996e-06
1.56996e-06
1.56996e-06
1.57403e-06
1.57428e-06
1.57621e-06
1.57599e-06
1.57413e-06
1.57421e-06
1.57429e-06
1.57427e-06
1.57427e-06
1.57427e-06
1.5762e-06
1.57617e-06
1.57596e-06
1.57431e-06
1.57628e-06
1.57621e-06
1.55722e-06
1.55705e-06
1.55688e-06
1.55475e-06
1.55463e-06
1.55455e-06
1.55473e-06
1.55682e-06
1.55709e-06
1.55688e-06
1.55406e-06
1.55106e-06
1.55106e-06
1.55106e-06
1.55106e-06
1.55441e-06
1.55523e-06
1.55475e-06
1.55106e-06
1.55106e-06
1.55106e-06
1.55106e-06
1.55106e-06
1.55106e-06
1.55531e-06
1.55727e-06
1.55722e-06
1.55463e-06
1.55106e-06
1.55106e-06
1.55106e-06
1.55106e-06
1.55106e-06
1.55106e-06
1.55539e-06
1.55706e-06
1.55705e-06
1.55455e-06
1.55106e-06
1.55106e-06
1.55106e-06
1.55106e-06
1.55106e-06
1.55106e-06
1.55537e-06
1.55541e-06
1.55473e-06
1.55106e-06
1.55106e-06
1.55106e-06
1.55106e-06
1.55106e-06
1.55106e-06
1.55537e-06
1.55738e-06
1.55682e-06
1.55441e-06
1.55106e-06
1.55106e-06
1.55106e-06
1.55106e-06
1.55513e-06
1.55537e-06
1.5573e-06
1.55709e-06
1.55523e-06
1.55531e-06
1.55539e-06
1.55537e-06
1.55537e-06
1.55537e-06
1.5573e-06
1.55727e-06
1.55706e-06
1.55541e-06
1.55738e-06
1.5573e-06
1.53832e-06
1.53815e-06
1.53798e-06
1.53585e-06
1.53573e-06
1.53565e-06
1.53583e-06
1.53792e-06
1.53819e-06
1.53798e-06
1.53516e-06
1.53216e-06
1.53216e-06
1.53216e-06
1.53216e-06
1.53551e-06
1.53633e-06
1.53585e-06
1.53216e-06
1.53216e-06
1.53216e-06
1.53216e-06
1.53216e-06
1.53216e-06
1.53641e-06
1.53837e-06
1.53832e-06
1.53573e-06
1.53216e-06
1.53216e-06
1.53216e-06
1.53216e-06
1.53216e-06
1.53216e-06
1.53649e-06
1.53816e-06
1.53815e-06
1.53565e-06
1.53216e-06
1.53216e-06
1.53216e-06
1.53216e-06
1.53216e-06
1.53216e-06
1.53647e-06
1.5365e-06
1.53583e-06
1.53216e-06
1.53216e-06
1.53216e-06
1.53216e-06
1.53216e-06
1.53216e-06
1.53647e-06
1.53848e-06
1.53792e-06
1.53551e-06
1.53216e-06
1.53216e-06
1.53216e-06
1.53216e-06
1.53622e-06
1.53647e-06
1.5384e-06
1.53819e-06
1.53633e-06
1.53641e-06
1.53649e-06
1.53647e-06
1.53647e-06
1.53647e-06
1.5384e-06
1.53837e-06
1.53816e-06
1.5365e-06
1.53848e-06
1.5384e-06
1.51942e-06
1.51925e-06
1.51908e-06
1.51694e-06
1.51683e-06
1.51675e-06
1.51693e-06
1.51902e-06
1.51929e-06
1.51908e-06
1.51626e-06
1.51326e-06
1.51326e-06
1.51326e-06
1.51326e-06
1.5166e-06
1.51743e-06
1.51694e-06
1.51326e-06
1.51326e-06
1.51326e-06
1.51326e-06
1.51326e-06
1.51326e-06
1.51751e-06
1.51947e-06
1.51942e-06
1.51683e-06
1.51326e-06
1.51326e-06
1.51326e-06
1.51326e-06
1.51326e-06
1.51326e-06
1.51759e-06
1.51926e-06
1.51925e-06
1.51675e-06
1.51326e-06
1.51326e-06
1.51326e-06
1.51326e-06
1.51326e-06
1.51326e-06
1.51757e-06
1.5176e-06
1.51693e-06
1.51326e-06
1.51326e-06
1.51326e-06
1.51326e-06
1.51326e-06
1.51326e-06
1.51757e-06
1.51958e-06
1.51902e-06
1.51661e-06
1.51326e-06
1.51326e-06
1.51326e-06
1.51326e-06
1.51732e-06
1.51757e-06
1.5195e-06
1.51929e-06
1.51743e-06
1.51751e-06
1.51759e-06
1.51756e-06
1.51757e-06
1.51757e-06
1.5195e-06
1.51947e-06
1.51926e-06
1.5176e-06
1.51958e-06
1.5195e-06
1.50052e-06
1.50035e-06
1.50018e-06
1.49804e-06
1.49793e-06
1.49785e-06
1.49803e-06
1.50012e-06
1.50038e-06
1.50018e-06
1.49735e-06
1.49436e-06
1.49436e-06
1.49436e-06
1.49436e-06
1.4977e-06
1.49853e-06
1.49804e-06
1.49436e-06
1.49436e-06
1.49436e-06
1.49436e-06
1.49436e-06
1.49436e-06
1.4986e-06
1.50057e-06
1.50052e-06
1.49792e-06
1.49436e-06
1.49436e-06
1.49436e-06
1.49436e-06
1.49436e-06
1.49436e-06
1.49869e-06
1.50036e-06
1.50035e-06
1.49785e-06
1.49436e-06
1.49436e-06
1.49436e-06
1.49436e-06
1.49436e-06
1.49436e-06
1.49866e-06
1.4987e-06
1.49803e-06
1.49436e-06
1.49436e-06
1.49436e-06
1.49436e-06
1.49436e-06
1.49436e-06
1.49867e-06
1.50068e-06
1.50012e-06
1.4977e-06
1.49436e-06
1.49436e-06
1.49436e-06
1.49436e-06
1.49842e-06
1.49867e-06
1.5006e-06
1.50038e-06
1.49853e-06
1.4986e-06
1.49869e-06
1.49866e-06
1.49867e-06
1.49867e-06
1.50059e-06
1.50057e-06
1.50036e-06
1.4987e-06
1.50068e-06
1.5006e-06
1.48162e-06
1.48145e-06
1.48127e-06
1.47914e-06
1.47902e-06
1.47895e-06
1.47912e-06
1.48121e-06
1.48148e-06
1.48127e-06
1.47845e-06
1.47546e-06
1.47546e-06
1.47546e-06
1.47546e-06
1.4788e-06
1.47963e-06
1.47914e-06
1.47546e-06
1.47546e-06
1.47546e-06
1.47546e-06
1.47546e-06
1.47546e-06
1.4797e-06
1.48167e-06
1.48162e-06
1.47902e-06
1.47546e-06
1.47546e-06
1.47546e-06
1.47546e-06
1.47546e-06
1.47546e-06
1.47979e-06
1.48146e-06
1.48145e-06
1.47895e-06
1.47546e-06
1.47546e-06
1.47546e-06
1.47546e-06
1.47546e-06
1.47546e-06
1.47976e-06
1.4798e-06
1.47912e-06
1.47546e-06
1.47546e-06
1.47546e-06
1.47546e-06
1.47546e-06
1.47546e-06
1.47977e-06
1.48177e-06
1.48122e-06
1.4788e-06
1.47546e-06
1.47546e-06
1.47546e-06
1.47546e-06
1.47952e-06
1.47977e-06
1.4817e-06
1.48148e-06
1.47963e-06
1.4797e-06
1.47978e-06
1.47976e-06
1.47977e-06
1.47977e-06
1.48169e-06
1.48167e-06
1.48146e-06
1.4798e-06
1.48177e-06
1.4817e-06
1.46271e-06
1.46255e-06
1.46237e-06
1.46024e-06
1.46012e-06
1.46005e-06
1.46022e-06
1.46231e-06
1.46258e-06
1.46237e-06
1.45955e-06
1.45655e-06
1.45655e-06
1.45655e-06
1.45655e-06
1.4599e-06
1.46072e-06
1.46024e-06
1.45655e-06
1.45655e-06
1.45655e-06
1.45655e-06
1.45655e-06
1.45655e-06
1.4608e-06
1.46276e-06
1.46271e-06
1.46012e-06
1.45655e-06
1.45655e-06
1.45655e-06
1.45655e-06
1.45655e-06
1.45655e-06
1.46088e-06
1.46256e-06
1.46255e-06
1.46005e-06
1.45655e-06
1.45655e-06
1.45655e-06
1.45655e-06
1.45655e-06
1.45655e-06
1.46086e-06
1.4609e-06
1.46022e-06
1.45655e-06
1.45655e-06
1.45655e-06
1.45655e-06
1.45655e-06
1.45655e-06
1.46086e-06
1.46287e-06
1.46231e-06
1.4599e-06
1.45655e-06
1.45655e-06
1.45655e-06
1.45655e-06
1.46062e-06
1.46087e-06
1.4628e-06
1.46258e-06
1.46072e-06
1.4608e-06
1.46088e-06
1.46086e-06
1.46086e-06
1.46087e-06
1.46279e-06
1.46276e-06
1.46256e-06
1.4609e-06
1.46287e-06
1.4628e-06
1.44381e-06
1.44365e-06
1.44347e-06
1.44134e-06
1.44122e-06
1.44115e-06
1.44132e-06
1.44341e-06
1.44368e-06
1.44347e-06
1.44065e-06
1.43765e-06
1.43765e-06
1.43765e-06
1.43765e-06
1.441e-06
1.44182e-06
1.44134e-06
1.43765e-06
1.43765e-06
1.43765e-06
1.43765e-06
1.43765e-06
1.43765e-06
1.4419e-06
1.44386e-06
1.44381e-06
1.44122e-06
1.43765e-06
1.43765e-06
1.43765e-06
1.43765e-06
1.43765e-06
1.43765e-06
1.44198e-06
1.44365e-06
1.44365e-06
1.44115e-06
1.43765e-06
1.43765e-06
1.43765e-06
1.43765e-06
1.43765e-06
1.43765e-06
1.44196e-06
1.442e-06
1.44132e-06
1.43765e-06
1.43765e-06
1.43765e-06
1.43765e-06
1.43765e-06
1.43765e-06
1.44196e-06
1.44397e-06
1.44341e-06
1.441e-06
1.43765e-06
1.43765e-06
1.43765e-06
1.43765e-06
1.44172e-06
1.44197e-06
1.4439e-06
1.44368e-06
1.44182e-06
1.4419e-06
1.44198e-06
1.44196e-06
1.44196e-06
1.44197e-06
1.44389e-06
1.44386e-06
1.44365e-06
1.442e-06
1.44397e-06
1.4439e-06
1.42491e-06
1.42474e-06
1.42457e-06
1.42244e-06
1.42232e-06
1.42224e-06
1.42242e-06
1.42451e-06
1.42478e-06
1.42457e-06
1.42175e-06
1.41875e-06
1.41875e-06
1.41875e-06
1.41875e-06
1.4221e-06
1.42292e-06
1.42244e-06
1.41875e-06
1.41875e-06
1.41875e-06
1.41875e-06
1.41875e-06
1.41875e-06
1.423e-06
1.42496e-06
1.42491e-06
1.42232e-06
1.41875e-06
1.41875e-06
1.41875e-06
1.41875e-06
1.41875e-06
1.41875e-06
1.42308e-06
1.42475e-06
1.42474e-06
1.42224e-06
1.41875e-06
1.41875e-06
1.41875e-06
1.41875e-06
1.41875e-06
1.41875e-06
1.42306e-06
1.4231e-06
1.42242e-06
1.41875e-06
1.41875e-06
1.41875e-06
1.41875e-06
1.41875e-06
1.41875e-06
1.42306e-06
1.42507e-06
1.42451e-06
1.4221e-06
1.41875e-06
1.41875e-06
1.41875e-06
1.41875e-06
1.42282e-06
1.42307e-06
1.425e-06
1.42478e-06
1.42292e-06
1.423e-06
1.42308e-06
1.42306e-06
1.42306e-06
1.42306e-06
1.42499e-06
1.42496e-06
1.42475e-06
1.4231e-06
1.42507e-06
1.425e-06
1.40601e-06
1.40584e-06
1.40567e-06
1.40354e-06
1.40342e-06
1.40334e-06
1.40352e-06
1.40561e-06
1.40588e-06
1.40567e-06
1.40285e-06
1.39985e-06
1.39985e-06
1.39985e-06
1.39985e-06
1.4032e-06
1.40402e-06
1.40354e-06
1.39985e-06
1.39985e-06
1.39985e-06
1.39985e-06
1.39985e-06
1.39985e-06
1.4041e-06
1.40606e-06
1.40601e-06
1.40342e-06
1.39985e-06
1.39985e-06
1.39985e-06
1.39985e-06
1.39985e-06
1.39985e-06
1.40418e-06
1.40585e-06
1.40585e-06
1.40334e-06
1.39985e-06
1.39985e-06
1.39985e-06
1.39985e-06
1.39985e-06
1.39985e-06
1.40416e-06
1.4042e-06
1.40352e-06
1.39985e-06
1.39985e-06
1.39985e-06
1.39985e-06
1.39985e-06
1.39985e-06
1.40416e-06
1.40617e-06
1.40561e-06
1.4032e-06
1.39985e-06
1.39985e-06
1.39985e-06
1.39985e-06
1.40392e-06
1.40417e-06
1.4061e-06
1.40588e-06
1.40402e-06
1.4041e-06
1.40418e-06
1.40416e-06
1.40416e-06
1.40416e-06
1.40609e-06
1.40606e-06
1.40585e-06
1.4042e-06
1.40617e-06
1.4061e-06
1.38711e-06
1.38695e-06
1.38677e-06
1.38464e-06
1.38452e-06
1.38445e-06
1.38462e-06
1.38671e-06
1.38698e-06
1.38677e-06
1.38395e-06
1.38095e-06
1.38095e-06
1.38095e-06
1.38095e-06
1.3843e-06
1.38512e-06
1.38464e-06
1.38095e-06
1.38095e-06
1.38095e-06
1.38095e-06
1.38095e-06
1.38095e-06
1.3852e-06
1.38716e-06
1.38711e-06
1.38452e-06
1.38095e-06
1.38095e-06
1.38095e-06
1.38095e-06
1.38095e-06
1.38095e-06
1.38528e-06
1.38695e-06
1.38695e-06
1.38445e-06
1.38095e-06
1.38095e-06
1.38095e-06
1.38095e-06
1.38095e-06
1.38095e-06
1.38526e-06
1.3853e-06
1.38462e-06
1.38095e-06
1.38095e-06
1.38095e-06
1.38095e-06
1.38095e-06
1.38095e-06
1.38526e-06
1.38727e-06
1.38671e-06
1.3843e-06
1.38095e-06
1.38095e-06
1.38095e-06
1.38095e-06
1.38502e-06
1.38527e-06
1.3872e-06
1.38698e-06
1.38512e-06
1.3852e-06
1.38528e-06
1.38526e-06
1.38526e-06
1.38527e-06
1.38719e-06
1.38716e-06
1.38695e-06
1.3853e-06
1.38727e-06
1.3872e-06
1.36821e-06
1.36805e-06
1.36787e-06
1.36574e-06
1.36562e-06
1.36555e-06
1.36572e-06
1.36781e-06
1.36808e-06
1.36787e-06
1.36505e-06
1.36205e-06
1.36205e-06
1.36205e-06
1.36205e-06
1.3654e-06
1.36622e-06
1.36574e-06
1.36205e-06
1.36205e-06
1.36205e-06
1.36205e-06
1.36205e-06
1.36205e-06
1.3663e-06
1.36826e-06
1.36821e-06
1.36562e-06
1.36205e-06
1.36205e-06
1.36205e-06
1.36205e-06
1.36205e-06
1.36205e-06
1.36638e-06
1.36805e-06
1.36805e-06
1.36555e-06
1.36205e-06
1.36205e-06
1.36205e-06
1.36205e-06
1.36205e-06
1.36205e-06
1.36636e-06
1.3664e-06
1.36572e-06
1.36205e-06
1.36205e-06
1.36205e-06
1.36205e-06
1.36205e-06
1.36205e-06
1.36636e-06
1.36837e-06
1.36781e-06
1.3654e-06
1.36205e-06
1.36205e-06
1.36205e-06
1.36205e-06
1.36612e-06
1.36637e-06
1.3683e-06
1.36808e-06
1.36622e-06
1.3663e-06
1.36638e-06
1.36636e-06
1.36636e-06
1.36637e-06
1.36829e-06
1.36826e-06
1.36805e-06
1.3664e-06
1.36837e-06
1.3683e-06
1.34931e-06
1.34915e-06
1.34897e-06
1.34684e-06
1.34672e-06
1.34665e-06
1.34682e-06
1.34891e-06
1.34918e-06
1.34897e-06
1.34615e-06
1.34316e-06
1.34316e-06
1.34316e-06
1.34316e-06
1.3465e-06
1.34732e-06
1.34684e-06
1.34316e-06
1.34316e-06
1.34316e-06
1.34316e-06
1.34316e-06
1.34316e-06
1.3474e-06
1.34936e-06
1.34931e-06
1.34672e-06
1.34316e-06
1.34316e-06
1.34316e-06
1.34316e-06
1.34316e-06
1.34316e-06
1.34749e-06
1.34916e-06
1.34915e-06
1.34665e-06
1.34316e-06
1.34316e-06
1.34316e-06
1.34316e-06
1.34316e-06
1.34316e-06
1.34746e-06
1.3475e-06
1.34682e-06
1.34316e-06
1.34316e-06
1.34316e-06
1.34316e-06
1.34316e-06
1.34316e-06
1.34747e-06
1.34947e-06
1.34891e-06
1.3465e-06
1.34316e-06
1.34316e-06
1.34316e-06
1.34316e-06
1.34722e-06
1.34747e-06
1.3494e-06
1.34918e-06
1.34732e-06
1.3474e-06
1.34748e-06
1.34746e-06
1.34747e-06
1.34747e-06
1.34939e-06
1.34936e-06
1.34916e-06
1.3475e-06
1.34947e-06
1.3494e-06
1.33042e-06
1.33025e-06
1.33007e-06
1.32794e-06
1.32782e-06
1.32775e-06
1.32793e-06
1.33002e-06
1.33028e-06
1.33008e-06
1.32725e-06
1.32426e-06
1.32426e-06
1.32426e-06
1.32426e-06
1.3276e-06
1.32843e-06
1.32794e-06
1.32426e-06
1.32426e-06
1.32426e-06
1.32426e-06
1.32426e-06
1.32426e-06
1.3285e-06
1.33047e-06
1.33042e-06
1.32782e-06
1.32426e-06
1.32426e-06
1.32426e-06
1.32426e-06
1.32426e-06
1.32426e-06
1.32859e-06
1.33026e-06
1.33025e-06
1.32775e-06
1.32426e-06
1.32426e-06
1.32426e-06
1.32426e-06
1.32426e-06
1.32426e-06
1.32856e-06
1.3286e-06
1.32792e-06
1.32426e-06
1.32426e-06
1.32426e-06
1.32426e-06
1.32426e-06
1.32426e-06
1.32857e-06
1.33057e-06
1.33002e-06
1.3276e-06
1.32426e-06
1.32426e-06
1.32426e-06
1.32426e-06
1.32832e-06
1.32857e-06
1.3305e-06
1.33028e-06
1.32843e-06
1.3285e-06
1.32859e-06
1.32856e-06
1.32857e-06
1.32857e-06
1.33049e-06
1.33047e-06
1.33026e-06
1.3286e-06
1.33057e-06
1.3305e-06
1.31152e-06
1.31135e-06
1.31118e-06
1.30905e-06
1.30893e-06
1.30885e-06
1.30903e-06
1.31112e-06
1.31138e-06
1.31118e-06
1.30836e-06
1.30536e-06
1.30536e-06
1.30536e-06
1.30536e-06
1.30871e-06
1.30953e-06
1.30904e-06
1.30536e-06
1.30536e-06
1.30536e-06
1.30536e-06
1.30536e-06
1.30536e-06
1.30961e-06
1.31157e-06
1.31152e-06
1.30893e-06
1.30536e-06
1.30536e-06
1.30536e-06
1.30536e-06
1.30536e-06
1.30536e-06
1.30969e-06
1.31136e-06
1.31135e-06
1.30885e-06
1.30536e-06
1.30536e-06
1.30536e-06
1.30536e-06
1.30536e-06
1.30536e-06
1.30967e-06
1.3097e-06
1.30903e-06
1.30536e-06
1.30536e-06
1.30536e-06
1.30536e-06
1.30536e-06
1.30536e-06
1.30967e-06
1.31168e-06
1.31112e-06
1.30871e-06
1.30536e-06
1.30536e-06
1.30536e-06
1.30536e-06
1.30942e-06
1.30967e-06
1.3116e-06
1.31138e-06
1.30953e-06
1.30961e-06
1.30969e-06
1.30967e-06
1.30967e-06
1.30967e-06
1.3116e-06
1.31157e-06
1.31136e-06
1.3097e-06
1.31168e-06
1.3116e-06
1.29262e-06
1.29245e-06
1.29228e-06
1.29015e-06
1.29003e-06
1.28995e-06
1.29013e-06
1.29222e-06
1.29249e-06
1.29228e-06
1.28946e-06
1.28646e-06
1.28646e-06
1.28646e-06
1.28646e-06
1.28981e-06
1.29063e-06
1.29015e-06
1.28646e-06
1.28646e-06
1.28646e-06
1.28646e-06
1.28646e-06
1.28646e-06
1.29071e-06
1.29267e-06
1.29262e-06
1.29003e-06
1.28646e-06
1.28646e-06
1.28646e-06
1.28646e-06
1.28646e-06
1.28646e-06
1.29079e-06
1.29246e-06
1.29245e-06
1.28995e-06
1.28646e-06
1.28646e-06
1.28646e-06
1.28646e-06
1.28646e-06
1.28646e-06
1.29077e-06
1.29081e-06
1.29013e-06
1.28646e-06
1.28646e-06
1.28646e-06
1.28646e-06
1.28646e-06
1.28646e-06
1.29077e-06
1.29278e-06
1.29222e-06
1.28981e-06
1.28646e-06
1.28646e-06
1.28646e-06
1.28646e-06
1.29053e-06
1.29077e-06
1.2927e-06
1.29249e-06
1.29063e-06
1.29071e-06
1.29079e-06
1.29077e-06
1.29077e-06
1.29077e-06
1.2927e-06
1.29267e-06
1.29246e-06
1.29081e-06
1.29278e-06
1.2927e-06
1.27372e-06
1.27355e-06
1.27338e-06
1.27125e-06
1.27113e-06
1.27106e-06
1.27123e-06
1.27332e-06
1.27359e-06
1.27338e-06
1.27056e-06
1.26756e-06
1.26756e-06
1.26756e-06
1.26756e-06
1.27091e-06
1.27173e-06
1.27125e-06
1.26756e-06
1.26756e-06
1.26756e-06
1.26756e-06
1.26756e-06
1.26756e-06
1.27181e-06
1.27377e-06
1.27372e-06
1.27113e-06
1.26756e-06
1.26756e-06
1.26756e-06
1.26756e-06
1.26756e-06
1.26756e-06
1.27189e-06
1.27356e-06
1.27355e-06
1.27106e-06
1.26756e-06
1.26756e-06
1.26756e-06
1.26756e-06
1.26756e-06
1.26756e-06
1.27187e-06
1.27191e-06
1.27123e-06
1.26756e-06
1.26756e-06
1.26756e-06
1.26756e-06
1.26756e-06
1.26756e-06
1.27187e-06
1.27388e-06
1.27332e-06
1.27091e-06
1.26756e-06
1.26756e-06
1.26756e-06
1.26756e-06
1.27163e-06
1.27188e-06
1.27381e-06
1.27359e-06
1.27173e-06
1.27181e-06
1.27189e-06
1.27187e-06
1.27187e-06
1.27187e-06
1.2738e-06
1.27377e-06
1.27356e-06
1.27191e-06
1.27388e-06
1.27381e-06
1.25483e-06
1.25466e-06
1.25448e-06
1.25235e-06
1.25223e-06
1.25216e-06
1.25233e-06
1.25442e-06
1.25469e-06
1.25448e-06
1.25166e-06
1.24867e-06
1.24867e-06
1.24867e-06
1.24867e-06
1.25201e-06
1.25284e-06
1.25235e-06
1.24867e-06
1.24867e-06
1.24867e-06
1.24867e-06
1.24867e-06
1.24867e-06
1.25291e-06
1.25488e-06
1.25483e-06
1.25223e-06
1.24867e-06
1.24867e-06
1.24867e-06
1.24867e-06
1.24867e-06
1.24867e-06
1.253e-06
1.25467e-06
1.25466e-06
1.25216e-06
1.24867e-06
1.24867e-06
1.24867e-06
1.24867e-06
1.24867e-06
1.24867e-06
1.25297e-06
1.25301e-06
1.25233e-06
1.24867e-06
1.24867e-06
1.24867e-06
1.24867e-06
1.24867e-06
1.24867e-06
1.25298e-06
1.25498e-06
1.25443e-06
1.25201e-06
1.24867e-06
1.24867e-06
1.24867e-06
1.24867e-06
1.25273e-06
1.25298e-06
1.25491e-06
1.25469e-06
1.25284e-06
1.25291e-06
1.253e-06
1.25297e-06
1.25298e-06
1.25298e-06
1.2549e-06
1.25487e-06
1.25467e-06
1.25301e-06
1.25498e-06
1.25491e-06
1.23593e-06
1.23576e-06
1.23559e-06
1.23346e-06
1.23334e-06
1.23326e-06
1.23344e-06
1.23553e-06
1.2358e-06
1.23559e-06
1.23277e-06
1.22977e-06
1.22977e-06
1.22977e-06
1.22977e-06
1.23312e-06
1.23394e-06
1.23345e-06
1.22977e-06
1.22977e-06
1.22977e-06
1.22977e-06
1.22977e-06
1.22977e-06
1.23402e-06
1.23598e-06
1.23593e-06
1.23334e-06
1.22977e-06
1.22977e-06
1.22977e-06
1.22977e-06
1.22977e-06
1.22977e-06
1.2341e-06
1.23577e-06
1.23576e-06
1.23326e-06
1.22977e-06
1.22977e-06
1.22977e-06
1.22977e-06
1.22977e-06
1.22977e-06
1.23408e-06
1.23411e-06
1.23344e-06
1.22977e-06
1.22977e-06
1.22977e-06
1.22977e-06
1.22977e-06
1.22977e-06
1.23408e-06
1.23609e-06
1.23553e-06
1.23312e-06
1.22977e-06