/*--------------------------------*- C++ -*----------------------------------*\
| =========                 |                                                 |
| \\      /  F ield         | OpenFOAM: The Open Source CFD Toolbox           |
|  \\    /   O peration     | Version:  v2006                                 |
|   \\  /    A nd           | Website:  www.openfoam.com                      |
|    \\/     M anipulation  |                                                 |
\*---------------------------------------------------------------------------*/
FoamFile
{
    version     2.0;
    format      ascii;
    class       volScalarField;
    location    "875";
    object      k;
}
// * * * * * * * * * * * * * * * * * * * * * * * * * * * * * * * * * * * * * //

dimensions      [0 2 -2 0 0 0 0];


internalField   nonuniform List<scalar> 
42840
(
2.19614e-05
3.78112e-05
3.7813e-05
4.28556e-05
2.27508e-05
3.86909e-05
3.8697e-05
4.35452e-05
2.35329e-05
3.95349e-05
3.95334e-05
4.42038e-05
2.43618e-05
4.03918e-05
4.03999e-05
4.49178e-05
2.51575e-05
4.11486e-05
4.11499e-05
4.54546e-05
2.59667e-05
4.19314e-05
4.1933e-05
4.6095e-05
2.67993e-05
4.2693e-05
4.27007e-05
4.67117e-05
2.76029e-05
4.33732e-05
4.33707e-05
4.72108e-05
2.83965e-05
4.40735e-05
4.40832e-05
4.77755e-05
2.91936e-05
4.46939e-05
4.46908e-05
4.8241e-05
2.99807e-05
4.54026e-05
4.54087e-05
4.88414e-05
3.0742e-05
4.5868e-05
4.58759e-05
4.91719e-05
3.14456e-05
4.65245e-05
4.6518e-05
4.9645e-05
3.22763e-05
4.71387e-05
4.71452e-05
5.02407e-05
3.28861e-05
4.7455e-05
4.74683e-05
5.03944e-05
3.35662e-05
4.80745e-05
4.80568e-05
5.08539e-05
3.4299e-05
4.85405e-05
4.85649e-05
5.13407e-05
3.48811e-05
4.89223e-05
4.89112e-05
5.15186e-05
3.55323e-05
4.94304e-05
4.9436e-05
5.20139e-05
3.60674e-05
4.96508e-05
4.96615e-05
5.21033e-05
3.66392e-05
5.017e-05
5.01608e-05
5.26393e-05
3.71713e-05
5.03894e-05
5.04015e-05
5.26884e-05
3.76227e-05
5.06944e-05
5.06973e-05
5.29382e-05
3.82035e-05
5.11933e-05
5.11879e-05
5.34687e-05
3.86159e-05
5.12749e-05
5.12841e-05
5.33854e-05
3.89415e-05
5.14734e-05
5.1462e-05
5.35692e-05
4.26879e-05
3.75817e-05
3.75789e-05
4.26894e-05
3.7578e-05
3.75813e-05
3.75806e-05
3.75865e-05
4.26895e-05
3.75827e-05
3.75829e-05
4.26897e-05
4.28576e-05
4.34018e-05
3.78125e-05
3.78095e-05
3.84877e-05
3.84784e-05
4.28581e-05
4.33907e-05
3.78086e-05
3.78116e-05
3.84838e-05
3.84852e-05
3.78134e-05
3.84796e-05
3.84823e-05
4.28589e-05
4.33993e-05
3.78097e-05
3.84856e-05
3.84786e-05
4.33966e-05
4.35455e-05
4.40361e-05
3.86974e-05
3.86896e-05
3.93118e-05
3.93161e-05
4.35375e-05
4.40519e-05
3.86936e-05
3.86962e-05
3.9308e-05
3.93163e-05
3.86969e-05
3.93183e-05
3.93192e-05
4.35454e-05
4.40465e-05
3.86934e-05
3.93182e-05
3.93157e-05
4.40468e-05
4.41986e-05
4.47761e-05
3.95278e-05
3.95326e-05
4.01973e-05
4.0185e-05
4.42126e-05
4.47569e-05
3.95238e-05
3.95315e-05
4.01933e-05
4.01912e-05
3.95314e-05
4.01869e-05
4.0193e-05
4.42069e-05
4.47666e-05
3.95277e-05
4.01923e-05
4.01893e-05
4.47704e-05
4.49217e-05
4.53276e-05
4.04067e-05
4.03899e-05
4.09648e-05
4.096e-05
4.48985e-05
4.53323e-05
4.04027e-05
4.03987e-05
4.09614e-05
4.09651e-05
4.04041e-05
4.09624e-05
4.09664e-05
4.49106e-05
4.53332e-05
4.04006e-05
4.0967e-05
4.09634e-05
4.53301e-05
4.54524e-05
4.59422e-05
4.11445e-05
4.11462e-05
4.17278e-05
4.17308e-05
4.54648e-05
4.59496e-05
4.11407e-05
4.11479e-05
4.17236e-05
4.17302e-05
4.11454e-05
4.17334e-05
4.17282e-05
4.54617e-05
4.5948e-05
4.11421e-05
4.17319e-05
4.17243e-05
4.59432e-05
4.60945e-05
4.65877e-05
4.19307e-05
4.19287e-05
4.25177e-05
4.25052e-05
4.6096e-05
4.6573e-05
4.19264e-05
4.19309e-05
4.25144e-05
4.2515e-05
4.19322e-05
4.25078e-05
4.25154e-05
4.6098e-05
4.65842e-05
4.19284e-05
4.25168e-05
4.25126e-05
4.6586e-05
4.67134e-05
4.70828e-05
4.27024e-05
4.26907e-05
4.32076e-05
4.32061e-05
4.67001e-05
4.70909e-05
4.26991e-05
4.26991e-05
4.32036e-05
4.32045e-05
4.26995e-05
4.32095e-05
4.32152e-05
4.67086e-05
4.70844e-05
4.26968e-05
4.32073e-05
4.32116e-05
4.70942e-05
4.71998e-05
4.76591e-05
4.3368e-05
4.33695e-05
4.38974e-05
4.3892e-05
4.72116e-05
4.76514e-05
4.33636e-05
4.33674e-05
4.38939e-05
4.39012e-05
4.33757e-05
4.38942e-05
4.38884e-05
4.72055e-05
4.76638e-05
4.33719e-05
4.39027e-05
4.38855e-05
4.76464e-05
4.77885e-05
4.81268e-05
4.40822e-05
4.40715e-05
4.45524e-05
4.45438e-05
4.77744e-05
4.8126e-05
4.4079e-05
4.40822e-05
4.45487e-05
4.45439e-05
4.40725e-05
4.45484e-05
4.45607e-05
4.77878e-05
4.812e-05
4.40698e-05
4.4547e-05
4.45572e-05
4.81403e-05
4.82288e-05
4.87194e-05
4.46906e-05
4.46889e-05
4.52097e-05
4.52154e-05
4.82375e-05
4.87295e-05
4.46864e-05
4.46866e-05
4.5206e-05
4.52193e-05
4.46985e-05
4.5217e-05
4.51962e-05
4.82291e-05
4.87348e-05
4.46948e-05
4.52209e-05
4.51932e-05
4.86988e-05
4.88581e-05
4.9085e-05
4.54033e-05
4.54018e-05
4.5806e-05
4.57803e-05
4.88584e-05
4.90548e-05
4.53999e-05
4.5408e-05
4.58026e-05
4.57893e-05
4.53916e-05
4.57848e-05
4.58264e-05
4.8866e-05
4.90653e-05
4.53888e-05
4.57927e-05
4.58236e-05
4.91189e-05
4.91363e-05
4.95169e-05
4.58845e-05
4.58621e-05
4.62906e-05
4.63064e-05
4.91099e-05
4.95589e-05
4.58811e-05
4.58706e-05
4.62874e-05
4.63052e-05
4.59098e-05
4.63106e-05
4.62761e-05
4.91197e-05
4.95484e-05
4.59071e-05
4.63089e-05
4.62735e-05
4.9482e-05
4.96958e-05
5.01705e-05
4.65016e-05
4.6522e-05
4.70522e-05
4.70442e-05
4.97409e-05
5.0149e-05
4.6498e-05
4.65163e-05
4.70474e-05
4.70426e-05
4.64723e-05
4.70449e-05
4.70351e-05
4.97255e-05
5.0154e-05
4.64691e-05
4.70419e-05
4.70304e-05
5.01658e-05
5.02268e-05
5.02814e-05
4.71605e-05
4.71369e-05
4.73665e-05
4.73382e-05
5.01922e-05
5.02514e-05
4.71561e-05
4.71447e-05
4.73658e-05
4.73618e-05
4.71613e-05
4.73456e-05
4.74101e-05
5.02063e-05
5.02777e-05
4.71572e-05
4.73693e-05
4.74103e-05
5.03412e-05
5.03423e-05
5.07841e-05
4.74551e-05
4.74468e-05
4.78833e-05
4.79125e-05
5.03317e-05
5.08351e-05
4.74541e-05
4.74595e-05
4.78777e-05
4.7892e-05
4.74913e-05
4.79151e-05
4.78495e-05
5.03473e-05
5.08018e-05
4.74917e-05
4.78936e-05
4.78442e-05
5.07212e-05
5.09236e-05
5.12485e-05
4.80563e-05
4.80749e-05
4.84805e-05
4.84508e-05
5.09604e-05
5.12061e-05
4.80499e-05
4.80586e-05
4.84782e-05
4.84717e-05
4.80106e-05
4.8453e-05
4.84856e-05
5.09342e-05
5.12363e-05
4.80042e-05
4.84726e-05
4.84833e-05
5.12764e-05
5.13006e-05
5.14495e-05
4.85674e-05
4.85345e-05
4.87946e-05
4.87931e-05
5.12575e-05
5.14599e-05
4.85665e-05
4.85596e-05
4.8792e-05
4.87903e-05
4.85953e-05
4.87997e-05
4.87977e-05
5.12886e-05
5.14465e-05
4.8595e-05
4.87973e-05
4.87964e-05
5.1448e-05
5.15466e-05
5.19254e-05
4.89116e-05
4.89195e-05
4.93193e-05
4.93276e-05
5.15708e-05
5.19402e-05
4.89071e-05
4.89083e-05
4.93149e-05
4.93269e-05
4.88914e-05
4.93299e-05
4.93168e-05
5.15474e-05
5.19442e-05
4.88879e-05
4.9327e-05
4.93116e-05
5.19383e-05
5.19885e-05
5.20814e-05
4.94221e-05
4.94248e-05
4.96075e-05
4.95821e-05
5.19948e-05
5.20466e-05
4.94194e-05
4.94326e-05
4.96066e-05
4.95971e-05
4.94391e-05
4.95862e-05
4.96006e-05
5.20056e-05
5.2064e-05
4.94354e-05
4.96034e-05
4.96021e-05
5.20648e-05
5.21376e-05
5.24889e-05
4.96782e-05
4.96509e-05
5.00252e-05
5.00309e-05
5.2099e-05
5.25188e-05
4.96754e-05
4.96582e-05
5.00204e-05
5.00245e-05
4.96477e-05
5.00352e-05
5.00303e-05
5.21119e-05
5.25047e-05
4.96486e-05
5.00255e-05
5.00245e-05
5.25216e-05
5.25815e-05
5.26874e-05
5.01456e-05
5.01602e-05
5.03714e-05
5.03662e-05
5.26182e-05
5.26762e-05
5.01421e-05
5.01566e-05
5.03702e-05
5.03755e-05
5.01798e-05
5.03751e-05
5.03876e-05
5.26081e-05
5.26881e-05
5.01728e-05
5.03834e-05
5.0386e-05
5.26832e-05
5.27088e-05
5.28463e-05
5.04063e-05
5.03865e-05
5.05778e-05
5.05653e-05
5.26876e-05
5.28361e-05
5.04038e-05
5.03962e-05
5.05743e-05
5.05689e-05
5.03942e-05
5.05578e-05
5.05183e-05
5.27004e-05
5.28398e-05
5.03937e-05
5.0567e-05
5.05215e-05
5.27933e-05
5.29522e-05
5.33667e-05
5.06928e-05
5.06944e-05
5.10809e-05
5.1091e-05
5.29628e-05
5.33863e-05
5.06906e-05
5.06972e-05
5.10789e-05
5.10919e-05
5.06761e-05
5.1106e-05
5.11279e-05
5.29625e-05
5.33822e-05
5.06757e-05
5.10999e-05
5.11212e-05
5.34242e-05
5.34264e-05
5.34322e-05
5.11764e-05
5.1179e-05
5.12906e-05
5.12693e-05
5.34358e-05
5.34002e-05
5.11729e-05
5.11793e-05
5.12865e-05
5.12752e-05
5.12131e-05
5.12696e-05
5.12635e-05
5.34333e-05
5.34117e-05
5.1207e-05
5.12774e-05
5.12617e-05
5.33762e-05
5.34426e-05
5.34775e-05
5.12969e-05
5.12761e-05
5.13914e-05
5.13927e-05
5.34109e-05
5.34901e-05
5.1294e-05
5.1283e-05
5.1392e-05
5.13907e-05
5.12648e-05
5.13959e-05
5.1393e-05
5.34222e-05
5.34769e-05
5.12643e-05
5.13924e-05
5.13924e-05
5.34938e-05
5.35307e-05
5.14571e-05
5.14661e-05
5.35551e-05
5.14554e-05
5.14576e-05
5.14784e-05
5.35346e-05
5.14748e-05
6.48475e-05
7.14061e-05
6.95695e-05
6.48477e-05
7.1408e-05
2.17677e-05
2.17668e-05
2.17704e-05
2.17726e-05
5.36031e-05
3.71216e-05
6.03779e-05
2.95019e-05
6.95692e-05
5.36029e-05
3.71254e-05
2.95053e-05
6.03804e-05
4.23217e-05
6.70321e-05
6.70404e-05
6.51019e-05
7.14642e-05
6.49905e-05
7.15027e-05
6.96081e-05
6.963e-05
6.51011e-05
7.14662e-05
6.49885e-05
7.15049e-05
2.19609e-05
2.19642e-05
2.19657e-05
2.25536e-05
2.25516e-05
2.25559e-05
2.25534e-05
5.40831e-05
6.05783e-05
3.02381e-05
3.80393e-05
5.38828e-05
6.07103e-05
3.04853e-05
6.96103e-05
6.96335e-05
5.40806e-05
3.0241e-05
6.0574e-05
3.80422e-05
5.38808e-05
3.04879e-05
6.07127e-05
6.714e-05
6.71476e-05
4.30557e-05
6.72273e-05
6.72346e-05
6.52887e-05
7.15396e-05
6.52206e-05
7.15686e-05
6.96511e-05
6.96802e-05
6.52884e-05
7.15418e-05
6.52213e-05
7.15706e-05
2.27484e-05
2.27531e-05
2.27513e-05
2.33354e-05
2.3337e-05
2.33404e-05
2.33411e-05
5.45147e-05
6.08383e-05
3.12222e-05
3.88987e-05
5.43465e-05
6.09249e-05
3.14625e-05
6.96528e-05
6.96797e-05
5.45152e-05
3.12261e-05
6.08457e-05
3.89035e-05
5.43471e-05
3.14667e-05
6.09251e-05
6.73021e-05
6.73107e-05
4.37162e-05
6.7322e-05
6.73305e-05
6.55358e-05
7.16335e-05
6.54125e-05
7.16855e-05
6.97297e-05
6.97602e-05
6.55336e-05
7.16352e-05
6.54097e-05
7.16875e-05
2.35359e-05
2.35384e-05
2.35384e-05
2.41522e-05
2.41506e-05
2.41544e-05
2.41528e-05
5.4952e-05
6.11062e-05
3.21728e-05
3.97547e-05
5.47577e-05
6.1259e-05
3.24129e-05
6.97302e-05
6.97645e-05
5.49473e-05
3.21748e-05
6.10968e-05
3.97538e-05
5.47541e-05
3.24142e-05
6.12563e-05
6.74571e-05
6.74638e-05
4.44104e-05
6.76073e-05
6.76146e-05
6.57393e-05
7.17279e-05
6.5679e-05
7.17474e-05
6.97806e-05
6.98007e-05
6.57412e-05
7.17303e-05
6.56807e-05
7.17496e-05
2.43576e-05
2.43626e-05
2.43625e-05
2.49635e-05
2.49597e-05
2.49656e-05
2.49669e-05
5.53804e-05
6.14086e-05
3.31442e-05
4.05879e-05
5.5222e-05
6.1475e-05
3.33818e-05
6.97845e-05
6.98012e-05
5.53833e-05
3.31479e-05
6.14212e-05
4.05967e-05
5.52232e-05
3.33866e-05
6.14836e-05
6.76997e-05
6.77089e-05
4.50721e-05
6.76881e-05
6.76971e-05
6.59018e-05
7.17911e-05
6.5813e-05
7.18392e-05
6.98385e-05
6.98758e-05
6.58981e-05
7.17927e-05
6.58108e-05
7.1841e-05
2.51566e-05
2.51614e-05
2.51606e-05
2.57588e-05
2.57628e-05
2.57648e-05
2.57612e-05
5.57261e-05
6.15819e-05
3.40576e-05
4.13391e-05
5.55732e-05
6.1696e-05
3.42797e-05
6.98375e-05
6.98762e-05
5.57205e-05
3.40613e-05
6.15746e-05
4.13376e-05
5.55713e-05
3.42819e-05
6.16856e-05
6.7698e-05
6.77045e-05
4.56115e-05
6.78042e-05
6.78106e-05
6.61428e-05
7.19028e-05
6.60458e-05
7.19439e-05
6.99162e-05
6.99472e-05
6.61448e-05
7.19051e-05
6.60446e-05
7.19465e-05
2.59696e-05
2.5972e-05
2.59701e-05
2.6592e-05
2.65884e-05
2.65949e-05
2.65945e-05
5.61478e-05
6.18708e-05
3.49628e-05
4.21267e-05
5.59742e-05
6.19816e-05
3.51911e-05
6.99208e-05
6.99514e-05
5.61492e-05
3.49636e-05
6.1873e-05
4.21319e-05
5.59711e-05
3.51932e-05
6.1994e-05
6.79836e-05
6.79921e-05
4.62845e-05
6.80572e-05
6.80665e-05
6.63255e-05
7.19906e-05
6.62628e-05
7.20125e-05
6.99786e-05
6.99962e-05
6.63233e-05
7.19927e-05
6.62646e-05
7.20141e-05
2.67949e-05
2.6802e-05
2.68009e-05
2.74082e-05
2.7407e-05
2.74104e-05
2.74133e-05
5.65151e-05
6.21242e-05
3.58662e-05
4.28723e-05
5.63722e-05
6.21957e-05
3.60877e-05
6.99785e-05
6.99947e-05
5.65128e-05
3.58717e-05
6.21298e-05
4.28767e-05
5.63744e-05
3.60926e-05
6.2188e-05
6.81258e-05
6.81338e-05
4.68482e-05
6.81526e-05
6.81593e-05
6.64652e-05
7.20543e-05
6.63804e-05
7.2112e-05
7.0035e-05
7.00834e-05
6.64651e-05
7.2056e-05
6.63757e-05
7.21148e-05
2.76035e-05
2.76057e-05
2.76095e-05
2.81905e-05
2.8191e-05
2.81965e-05
2.81912e-05
5.68132e-05
6.22664e-05
3.67157e-05
4.35404e-05
5.6683e-05
6.23795e-05
3.69143e-05
7.00375e-05
7.00888e-05
5.68119e-05
3.67162e-05
6.2258e-05
4.35407e-05
5.66782e-05
3.69149e-05
6.23874e-05
6.81553e-05
6.81618e-05
4.73559e-05
6.82637e-05
6.82732e-05
6.6697e-05
7.2174e-05
6.66352e-05
7.21869e-05
7.01107e-05
7.01213e-05
6.66955e-05
7.21765e-05
6.66392e-05
7.21887e-05
2.83949e-05
2.84019e-05
2.83951e-05
2.90059e-05
2.90019e-05
2.90063e-05
2.90097e-05
5.72077e-05
6.25739e-05
3.75369e-05
4.42445e-05
5.70534e-05
6.26217e-05
3.77523e-05
7.01126e-05
7.01203e-05
5.72067e-05
3.75419e-05
6.25863e-05
4.42517e-05
5.70557e-05
3.77573e-05
6.26158e-05
6.8447e-05
6.84553e-05
4.79202e-05
6.84417e-05
6.84489e-05
6.67861e-05
7.2216e-05
6.67007e-05
7.22988e-05
7.01714e-05
7.02408e-05
6.67831e-05
7.22176e-05
6.66961e-05
7.2301e-05
2.9192e-05
2.91947e-05
2.91994e-05
2.97697e-05
2.97743e-05
2.97781e-05
2.97691e-05
5.74471e-05
6.26356e-05
3.83394e-05
4.48511e-05
5.73345e-05
6.27951e-05
3.85188e-05
7.01715e-05
7.02433e-05
5.74436e-05
3.83398e-05
6.26235e-05
4.48492e-05
5.73291e-05
3.85188e-05
6.27969e-05
6.83587e-05
6.83652e-05
4.83759e-05
6.85404e-05
6.85489e-05
6.70854e-05
7.23768e-05
6.70525e-05
7.23706e-05
7.02602e-05
7.02443e-05
6.70865e-05
7.23793e-05
6.70538e-05
7.2373e-05
2.9983e-05
2.99884e-05
2.99783e-05
3.05771e-05
3.05678e-05
3.0575e-05
3.05856e-05
5.78943e-05
6.30826e-05
3.91221e-05
4.55643e-05
5.77364e-05
6.30843e-05
3.93348e-05
7.02642e-05
7.02481e-05
5.78957e-05
3.91256e-05
6.30886e-05
4.55715e-05
5.77376e-05
3.93392e-05
6.30904e-05
6.885e-05
6.88585e-05
4.89877e-05
6.88297e-05
6.88379e-05
6.69548e-05
7.23365e-05
6.69603e-05
7.24175e-05
7.02562e-05
7.03556e-05
6.69555e-05
7.23388e-05
6.69609e-05
7.24194e-05
3.07326e-05
3.07395e-05
3.0755e-05
3.12436e-05
3.12481e-05
3.12526e-05
3.12463e-05
5.79329e-05
6.28977e-05
3.98467e-05
4.59718e-05
5.79174e-05
6.29401e-05
3.99828e-05
7.02576e-05
7.03533e-05
5.79343e-05
3.98514e-05
6.2906e-05
4.59785e-05
5.792e-05
3.99874e-05
6.29457e-05
6.84603e-05
6.84689e-05
4.92148e-05
6.84879e-05
6.84965e-05
6.74959e-05
7.25742e-05
6.73255e-05
7.26054e-05
7.04456e-05
7.04504e-05
6.74894e-05
7.25752e-05
6.73192e-05
7.26066e-05
3.14542e-05
3.14569e-05
3.14402e-05
3.20878e-05
3.20909e-05
3.20905e-05
3.20764e-05
5.85038e-05
6.34544e-05
4.05058e-05
4.67324e-05
5.82378e-05
6.36082e-05
4.07251e-05
7.04428e-05
7.04504e-05
5.84924e-05
4.05059e-05
6.34324e-05
4.67233e-05
5.82276e-05
4.07228e-05
6.35888e-05
6.90535e-05
6.90592e-05
4.9887e-05
6.91862e-05
6.91911e-05
6.73926e-05
7.25737e-05
6.74837e-05
7.25616e-05
7.04044e-05
7.04144e-05
6.74062e-05
7.2578e-05
6.74845e-05
7.25665e-05
3.22719e-05
3.22746e-05
3.22715e-05
3.27409e-05
3.27246e-05
3.27398e-05
3.27622e-05
5.86313e-05
6.35043e-05
4.13054e-05
4.72053e-05
5.86441e-05
6.33879e-05
4.14442e-05
7.0418e-05
7.04236e-05
5.86439e-05
4.13049e-05
6.35277e-05
4.72226e-05
5.86475e-05
4.14491e-05
6.34313e-05
6.90815e-05
6.90904e-05
5.02775e-05
6.89566e-05
6.89705e-05
6.74913e-05
7.26117e-05
6.73543e-05
7.26978e-05
7.05021e-05
7.05705e-05
6.74758e-05
7.26131e-05
6.73613e-05
7.26959e-05
3.28761e-05
3.28899e-05
3.291e-05
3.33791e-05
3.33949e-05
3.3391e-05
3.33773e-05
5.87629e-05
6.3412e-05
4.1805e-05
4.75935e-05
5.8636e-05
6.36283e-05
4.19439e-05
7.04898e-05
7.05599e-05
5.87522e-05
4.18177e-05
6.34232e-05
4.75916e-05
5.86487e-05
4.1951e-05
6.35792e-05
6.8869e-05
6.88801e-05
5.04622e-05
6.89373e-05
6.89356e-05
6.78378e-05
7.27998e-05
6.77464e-05
7.28221e-05
7.0612e-05
7.06193e-05
6.78441e-05
7.28017e-05
6.77312e-05
7.28266e-05
3.3581e-05
3.35751e-05
3.35528e-05
3.41315e-05
3.41213e-05
3.41296e-05
3.41237e-05
5.92064e-05
6.3885e-05
4.24404e-05
4.82203e-05
5.90351e-05
6.39482e-05
4.26161e-05
7.06205e-05
7.06315e-05
5.92008e-05
4.24297e-05
6.38601e-05
4.82143e-05
5.90096e-05
4.26079e-05
6.39733e-05
6.92974e-05
6.92998e-05
5.10447e-05
6.9443e-05
6.94535e-05
6.77621e-05
7.28026e-05
6.78064e-05
7.28108e-05
7.06146e-05
7.06528e-05
6.77669e-05
7.28069e-05
6.7822e-05
7.28119e-05
3.42846e-05
3.42976e-05
3.43045e-05
3.47342e-05
3.47314e-05
3.47383e-05
3.47478e-05
5.93187e-05
6.38888e-05
4.30886e-05
4.86182e-05
5.93128e-05
6.38568e-05
4.32134e-05
7.0619e-05
7.06448e-05
5.93325e-05
4.31e-05
6.39305e-05
4.86389e-05
5.9332e-05
4.32268e-05
6.38661e-05
6.93537e-05
6.93717e-05
5.13705e-05
6.91672e-05
6.91775e-05
6.80433e-05
7.29276e-05
6.78494e-05
7.29858e-05
7.07466e-05
7.07774e-05
6.8033e-05
7.29265e-05
6.78295e-05
7.29882e-05
3.48831e-05
3.48851e-05
3.4884e-05
3.53706e-05
3.53766e-05
3.53761e-05
3.53644e-05
5.95552e-05
6.40305e-05
4.35533e-05
4.90616e-05
5.93801e-05
6.42339e-05
4.36892e-05
7.07434e-05
7.07827e-05
5.95331e-05
4.35521e-05
6.39883e-05
4.90481e-05
5.93646e-05
4.36833e-05
6.4214e-05
6.92989e-05
6.92951e-05
5.16661e-05
6.9608e-05
6.96096e-05
6.80517e-05
7.29855e-05
6.81086e-05
7.29665e-05
7.07596e-05
7.07554e-05
6.80658e-05
7.29921e-05
6.8117e-05
7.29707e-05
3.55374e-05
3.55405e-05
3.55356e-05
3.59435e-05
3.59357e-05
3.59476e-05
3.59507e-05
5.97714e-05
6.42919e-05
4.41431e-05
4.94996e-05
5.97727e-05
6.41643e-05
4.4268e-05
7.07693e-05
7.07595e-05
5.97857e-05
4.41429e-05
6.4307e-05
4.95129e-05
5.97773e-05
4.42732e-05
6.41968e-05
6.968e-05
6.96897e-05
5.20423e-05
6.93847e-05
6.94031e-05
6.81227e-05
7.30251e-05
6.79835e-05
7.31108e-05
7.08305e-05
7.09079e-05
6.81028e-05
7.30215e-05
6.79805e-05
7.31107e-05
3.60559e-05
3.60661e-05
3.60646e-05
3.64859e-05
3.64839e-05
3.64843e-05
3.64812e-05
5.97989e-05
6.40851e-05
4.45262e-05
4.97539e-05
5.97175e-05
6.43146e-05
4.4621e-05
7.08247e-05
7.09059e-05
5.97908e-05
4.45367e-05
6.40972e-05
4.97553e-05
5.97298e-05
4.46267e-05
6.42873e-05
6.92456e-05
6.92579e-05
5.21902e-05
6.96329e-05
6.96312e-05
6.83488e-05
7.31646e-05
6.83404e-05
7.31592e-05
7.09279e-05
7.09114e-05
6.83585e-05
7.31706e-05
6.83447e-05
7.3165e-05
3.66444e-05
3.66439e-05
3.66475e-05
3.70579e-05
3.70636e-05
3.70692e-05
3.70787e-05
6.02203e-05
6.46098e-05
4.50421e-05
5.0276e-05
6.01526e-05
6.45974e-05
4.51843e-05
7.09323e-05
7.09176e-05
6.02145e-05
4.50349e-05
6.45923e-05
5.02705e-05
6.01295e-05
4.51783e-05
6.45914e-05
6.99858e-05
6.99836e-05
5.27094e-05
6.98855e-05
6.98929e-05
6.81665e-05
7.31282e-05
6.82019e-05
7.31593e-05
7.08985e-05
7.09628e-05
6.8156e-05
7.31259e-05
6.81974e-05
7.31594e-05
3.71689e-05
3.71767e-05
3.71785e-05
3.74955e-05
3.74844e-05
3.74921e-05
3.74714e-05
6.00424e-05
6.42921e-05
4.54491e-05
5.04104e-05
6.00955e-05
6.42578e-05
4.54971e-05
7.08994e-05
7.09621e-05
6.00657e-05
4.54569e-05
6.43206e-05
5.0424e-05
6.01171e-05
4.55088e-05
6.42833e-05
6.92975e-05
6.93188e-05
5.26397e-05
6.92725e-05
6.92915e-05
6.85617e-05
7.32977e-05
6.83516e-05
7.33665e-05
7.10765e-05
7.11149e-05
6.85686e-05
7.33042e-05
6.83614e-05
7.33693e-05
3.7617e-05
3.76233e-05
3.76067e-05
3.80599e-05
3.80689e-05
3.80713e-05
3.80814e-05
6.05182e-05
6.46321e-05
4.57585e-05
5.08445e-05
6.02355e-05
6.48667e-05
4.59012e-05
7.10782e-05
7.11151e-05
6.04983e-05
4.57638e-05
6.46197e-05
5.08423e-05
6.02281e-05
4.59014e-05
6.48459e-05
6.99364e-05
6.99372e-05
5.31859e-05
7.0191e-05
7.01881e-05
6.86271e-05
7.33866e-05
6.8661e-05
7.33566e-05
7.11035e-05
7.10846e-05
6.8615e-05
7.33837e-05
6.86544e-05
7.33554e-05
3.82117e-05
3.82135e-05
3.82271e-05
3.85379e-05
3.85307e-05
3.85356e-05
3.85323e-05
6.06445e-05
6.49293e-05
4.63122e-05
5.12446e-05
6.06726e-05
6.48101e-05
4.64047e-05
7.11048e-05
7.10889e-05
6.06413e-05
4.63066e-05
6.49147e-05
5.12441e-05
6.06597e-05
4.64011e-05
6.48214e-05
7.01451e-05
7.0149e-05
5.34483e-05
6.98604e-05
6.9874e-05
6.84219e-05
7.33282e-05
6.84429e-05
7.3362e-05
7.10918e-05
7.11394e-05
6.84353e-05
7.33358e-05
6.8451e-05
7.33695e-05
3.86054e-05
3.86118e-05
3.86021e-05
3.88471e-05
3.88438e-05
3.8848e-05
3.88444e-05
6.0485e-05
6.4621e-05
4.65346e-05
5.12886e-05
6.04936e-05
6.46285e-05
4.65668e-05
7.10948e-05
7.11348e-05
6.0498e-05
4.65423e-05
6.46436e-05
5.12988e-05
6.05104e-05
4.65761e-05
6.46394e-05
6.96607e-05
6.96787e-05
5.33705e-05
6.97643e-05
6.97731e-05
6.85845e-05
7.34273e-05
6.85228e-05
7.34542e-05
7.11835e-05
7.12107e-05
6.85633e-05
7.34242e-05
6.85144e-05
7.34513e-05
3.89437e-05
3.89449e-05
3.89479e-05
6.07174e-05
6.47917e-05
4.67719e-05
5.15473e-05
6.06131e-05
6.4837e-05
4.68599e-05
7.11791e-05
7.12169e-05
6.06976e-05
4.67701e-05
6.47509e-05
5.15339e-05
6.05958e-05
4.68546e-05
6.48114e-05
6.99385e-05
6.99333e-05
5.36526e-05
6.99445e-05
6.99398e-05
6.95681e-05
6.95705e-05
4.23119e-05
6.70059e-05
6.70143e-05
6.96048e-05
6.95719e-05
6.96071e-05
6.95742e-05
4.24788e-05
6.71411e-05
6.71478e-05
6.7025e-05
6.70332e-05
6.48456e-05
7.1403e-05
5.36018e-05
3.71257e-05
6.03803e-05
2.95018e-05
5.35997e-05
3.71205e-05
6.03729e-05
2.94996e-05
6.48649e-05
7.14563e-05
7.14136e-05
6.49699e-05
6.48631e-05
7.14542e-05
7.14109e-05
6.49687e-05
5.36416e-05
3.73528e-05
6.05436e-05
2.99904e-05
6.04049e-05
2.97459e-05
5.38383e-05
5.36396e-05
3.73488e-05
6.05449e-05
2.99883e-05
6.03994e-05
2.97436e-05
5.38367e-05
4.23098e-05
6.70029e-05
6.70052e-05
6.95692e-05
6.96059e-05
6.95735e-05
4.24787e-05
6.71512e-05
6.71514e-05
6.70293e-05
6.70281e-05
6.96054e-05
6.95733e-05
5.3602e-05
3.7122e-05
6.03828e-05
2.95017e-05
6.48444e-05
7.14034e-05
5.36e-05
3.71247e-05
2.9503e-05
6.03772e-05
6.48647e-05
7.14583e-05
7.14155e-05
6.49679e-05
5.36417e-05
3.7349e-05
6.05451e-05
2.99903e-05
6.04072e-05
2.9746e-05
5.38373e-05
6.48614e-05
7.14543e-05
7.14109e-05
6.49648e-05
5.36395e-05
3.7352e-05
2.99915e-05
6.05419e-05
2.97472e-05
6.04016e-05
5.38353e-05
6.48505e-05
7.14074e-05
5.36036e-05
3.71303e-05
2.95046e-05
6.03929e-05
6.48512e-05
7.14072e-05
5.36434e-05
3.73502e-05
6.05499e-05
2.99918e-05
6.04043e-05
2.97465e-05
5.38415e-05
6.48684e-05
7.14574e-05
7.1415e-05
6.49724e-05
5.36439e-05
3.73587e-05
2.99953e-05
6.05416e-05
2.97501e-05
6.04174e-05
5.38411e-05
6.48689e-05
7.14513e-05
7.14139e-05
6.49707e-05
4.23109e-05
6.70053e-05
6.70036e-05
6.95681e-05
6.96073e-05
6.95731e-05
4.24785e-05
6.71488e-05
6.71452e-05
6.70245e-05
6.70231e-05
6.96057e-05
6.9572e-05
5.36034e-05
3.71267e-05
2.95046e-05
6.03959e-05
6.48493e-05
7.14071e-05
6.48515e-05
7.1409e-05
5.36432e-05
3.73532e-05
2.99951e-05
6.05449e-05
2.97501e-05
6.04051e-05
5.38395e-05
5.36439e-05
3.73552e-05
2.99955e-05
6.05441e-05
2.97503e-05
6.04202e-05
5.38398e-05
6.48668e-05
7.14564e-05
7.14144e-05
6.49682e-05
6.48689e-05
7.14529e-05
7.14156e-05
6.49688e-05
6.95707e-05
6.95735e-05
4.24865e-05
6.7124e-05
6.71318e-05
6.70468e-05
6.70551e-05
6.96e-05
6.95731e-05
6.96027e-05
6.95759e-05
6.9608e-05
6.96323e-05
6.96103e-05
6.96347e-05
6.71674e-05
6.7174e-05
4.30636e-05
6.72574e-05
6.72651e-05
6.9649e-05
6.9633e-05
6.96515e-05
6.96355e-05
4.32246e-05
6.72856e-05
6.72937e-05
6.72677e-05
6.72754e-05
6.51004e-05
7.14618e-05
6.49894e-05
7.14983e-05
5.40843e-05
6.05729e-05
3.02362e-05
3.8043e-05
5.38802e-05
6.07149e-05
3.04838e-05
5.40827e-05
6.05738e-05
3.02344e-05
3.80378e-05
5.38788e-05
6.07068e-05
3.04819e-05
6.51201e-05
7.15352e-05
7.15083e-05
6.52082e-05
6.51183e-05
7.15309e-05
7.15037e-05
6.52057e-05
5.41251e-05
3.82692e-05
6.0834e-05
3.09796e-05
6.07379e-05
3.07323e-05
5.43134e-05
5.41234e-05
3.82613e-05
6.08196e-05
3.09768e-05
6.07279e-05
3.073e-05
5.43108e-05
6.71744e-05
6.71728e-05
4.30574e-05
6.72435e-05
6.7243e-05
6.96078e-05
6.96295e-05
6.96494e-05
6.96306e-05
4.32148e-05
6.72723e-05
6.72714e-05
6.72508e-05
6.72495e-05
6.96492e-05
6.96304e-05
5.40831e-05
6.05742e-05
3.02361e-05
3.8039e-05
5.38791e-05
6.07164e-05
3.04834e-05
6.50981e-05
7.14622e-05
6.49855e-05
7.15004e-05
5.40812e-05
3.02372e-05
6.05714e-05
3.80412e-05
5.38769e-05
3.04846e-05
6.07123e-05
6.51196e-05
7.15374e-05
7.15106e-05
6.5209e-05
5.41242e-05
3.82651e-05
6.08361e-05
3.09792e-05
6.07395e-05
3.07318e-05
5.43137e-05
6.51165e-05
7.1533e-05
7.15059e-05
6.52056e-05
5.41221e-05
3.82664e-05
3.09802e-05
6.08295e-05
3.07329e-05
6.07347e-05
5.43115e-05
6.50983e-05
7.14649e-05
6.49919e-05
7.15013e-05
5.40805e-05
3.02408e-05
6.05662e-05
3.8039e-05
5.38819e-05
3.04867e-05
6.06934e-05
6.50951e-05
7.14584e-05
6.49897e-05
7.14971e-05
5.41232e-05
3.82625e-05
6.08231e-05
3.09786e-05
6.07309e-05
3.07325e-05
5.43106e-05
6.51161e-05
7.15346e-05
7.15068e-05
6.52062e-05
5.41206e-05
3.82625e-05
3.09795e-05
6.08314e-05
3.07332e-05
6.07177e-05
5.43097e-05
6.51133e-05
7.15358e-05
7.15037e-05
6.52061e-05
6.71753e-05
6.71707e-05
4.30617e-05
6.7259e-05
6.72535e-05
6.96086e-05
6.96319e-05
6.96513e-05
6.96342e-05
4.3221e-05
6.72866e-05
6.72829e-05
6.72674e-05
6.72619e-05
6.96502e-05
6.96326e-05
5.40787e-05
3.02407e-05
6.05685e-05
3.80352e-05
5.38806e-05
3.04864e-05
6.06955e-05
6.50949e-05
7.14641e-05
6.49877e-05
7.15024e-05
6.50937e-05
7.146e-05
6.49877e-05
7.14989e-05
5.41212e-05
3.82672e-05
3.09819e-05
6.0831e-05
3.07353e-05
6.07351e-05
5.43106e-05
5.41192e-05
3.82587e-05
3.09792e-05
6.08344e-05
3.07328e-05
6.07198e-05
5.43095e-05
6.51134e-05
7.15362e-05
7.15081e-05
6.52061e-05
6.51123e-05
7.15379e-05
7.15056e-05
6.52069e-05
6.96028e-05
6.96304e-05
6.96055e-05
6.96331e-05
4.32147e-05
6.72979e-05
6.73064e-05
6.72439e-05
6.72514e-05
6.96536e-05
6.96325e-05
6.96565e-05
6.96353e-05
6.96499e-05
6.96747e-05
6.96524e-05
6.96771e-05
6.72843e-05
6.72923e-05
4.37045e-05
6.72966e-05
6.7305e-05
6.9723e-05
6.96793e-05
6.97252e-05
6.96817e-05
4.38482e-05
6.74318e-05
6.74381e-05
6.73084e-05
6.73168e-05
6.52875e-05
7.15359e-05
6.5218e-05
7.15683e-05
5.45125e-05
6.08472e-05
3.12236e-05
3.8901e-05
5.43488e-05
6.09171e-05
3.14631e-05
5.45107e-05
6.08348e-05
3.12205e-05
3.88971e-05
5.43462e-05
6.09192e-05
3.14603e-05
6.53017e-05
7.16232e-05
7.15759e-05
6.53917e-05
6.53009e-05
7.16231e-05
7.15762e-05
6.53923e-05
5.45457e-05
3.91039e-05
6.10562e-05
3.19328e-05
6.09345e-05
3.16987e-05
5.47149e-05
5.45443e-05
3.91047e-05
6.10712e-05
3.19321e-05
6.09402e-05
3.16969e-05
5.4715e-05
6.72759e-05
6.72751e-05
4.37094e-05
6.73164e-05
6.73203e-05
6.96512e-05
6.96803e-05
6.97253e-05
6.96848e-05
4.38597e-05
6.74633e-05
6.74613e-05
6.73345e-05
6.73374e-05
6.97245e-05
6.96849e-05
5.45127e-05
6.08494e-05
3.12235e-05
3.88974e-05
5.43492e-05
6.09193e-05
3.14631e-05
6.52857e-05
7.15376e-05
6.52179e-05
7.15681e-05
5.45109e-05
3.12246e-05
6.08437e-05
3.89023e-05
5.43469e-05
3.14645e-05
6.09211e-05
6.53011e-05
7.16249e-05
7.15779e-05
6.5389e-05
5.45456e-05
3.91002e-05
6.10575e-05
3.19325e-05
6.09367e-05
3.16987e-05
5.47131e-05
6.52986e-05
7.16219e-05
7.15755e-05
6.53871e-05
5.45439e-05
3.91073e-05
3.19349e-05
6.10635e-05
3.17006e-05
6.09402e-05
5.47121e-05
6.52927e-05
7.15397e-05
6.52196e-05
7.15725e-05
5.45153e-05
3.12241e-05
6.08493e-05
3.89062e-05
5.4346e-05
3.14654e-05
6.09321e-05
6.52928e-05
7.15406e-05
6.52198e-05
7.15694e-05
5.45487e-05
3.91067e-05
6.10759e-05
3.19358e-05
6.09459e-05
3.16999e-05
5.47198e-05
6.53062e-05
7.16269e-05
7.15802e-05
6.53958e-05
5.45489e-05
3.91122e-05
3.19382e-05
6.10561e-05
3.1703e-05
6.09487e-05
5.47179e-05
6.53057e-05
7.16193e-05
7.1576e-05
6.53925e-05
6.72876e-05
6.72845e-05
4.37117e-05
6.73174e-05
6.7316e-05
6.96516e-05
6.96786e-05
6.97247e-05
6.96841e-05
4.38582e-05
6.74484e-05
6.7444e-05
6.73319e-05
6.73304e-05
6.9723e-05
6.96829e-05
5.45157e-05
3.12241e-05
6.08523e-05
3.89028e-05
5.43463e-05
3.14657e-05
6.09354e-05
6.52918e-05
7.15409e-05
6.52198e-05
7.15714e-05
6.52934e-05
7.15428e-05
6.52209e-05
7.15711e-05
5.45488e-05
3.9109e-05
3.19389e-05
6.10665e-05
3.17038e-05
6.09443e-05
5.47165e-05
5.45493e-05
3.91088e-05
3.19383e-05
6.10578e-05
3.17034e-05
6.09517e-05
5.47158e-05
6.53046e-05
7.16244e-05
7.15786e-05
6.53899e-05
6.53059e-05
7.16205e-05
7.15776e-05
6.53895e-05
6.96547e-05
6.96774e-05
6.96576e-05
6.96801e-05
4.3863e-05
6.74181e-05
6.74246e-05
6.73302e-05
6.73382e-05
6.97195e-05
6.9681e-05
6.97221e-05
6.96836e-05
6.97294e-05
6.9766e-05
6.97316e-05
6.97685e-05
6.74767e-05
6.74827e-05
4.44145e-05
6.76274e-05
6.76344e-05
6.97839e-05
6.97681e-05
6.97865e-05
6.97705e-05
4.45805e-05
6.76986e-05
6.7707e-05
6.7657e-05
6.76641e-05
6.55343e-05
7.16326e-05
6.5413e-05
7.1679e-05
5.49513e-05
6.10885e-05
3.21688e-05
3.97512e-05
5.47533e-05
6.12614e-05
3.24092e-05
5.49504e-05
6.11018e-05
3.21689e-05
3.97525e-05
5.47535e-05
6.12549e-05
3.24093e-05
6.55583e-05
7.17245e-05
7.16932e-05
6.56654e-05
6.55562e-05
7.17167e-05
7.16861e-05
6.56611e-05
5.49934e-05
3.99767e-05
6.14175e-05
3.29019e-05
6.12943e-05
3.26545e-05
5.51902e-05
5.4992e-05
3.99715e-05
6.13901e-05
3.2899e-05
6.12816e-05
3.26534e-05
5.51862e-05
6.74981e-05
6.74944e-05
4.44168e-05
6.76092e-05
6.76094e-05
6.97293e-05
6.97599e-05
6.97801e-05
6.97616e-05
4.45751e-05
6.76646e-05
6.76647e-05
6.76269e-05
6.76259e-05
6.97799e-05
6.97616e-05
5.49488e-05
6.10896e-05
3.21682e-05
3.97471e-05
5.47512e-05
6.12622e-05
3.24082e-05
6.55303e-05
7.16317e-05
6.54076e-05
7.16811e-05
5.49471e-05
3.21708e-05
6.10941e-05
3.97524e-05
5.47501e-05
3.24107e-05
6.12551e-05
6.55567e-05
7.1727e-05
7.16954e-05
6.56667e-05
5.49912e-05
3.99725e-05
6.14198e-05
3.29009e-05
6.12953e-05
3.26534e-05
5.51902e-05
6.55531e-05
7.17205e-05
7.16886e-05
6.5662e-05
5.4989e-05
3.99741e-05
3.29015e-05
6.14042e-05
3.2655e-05
6.12845e-05
5.51869e-05
6.55341e-05
7.16362e-05
6.54158e-05
7.16823e-05
5.49491e-05
3.21739e-05
6.10849e-05
3.97502e-05
5.47554e-05
3.24128e-05
6.12459e-05
6.55313e-05
7.16291e-05
6.54122e-05
7.16803e-05
5.49929e-05
3.99735e-05
6.1394e-05
3.29012e-05
6.12849e-05
3.26563e-05
5.51863e-05
6.55558e-05
7.17201e-05
7.16892e-05
6.56612e-05
5.49903e-05
3.99728e-05
3.29025e-05
6.14114e-05
3.26563e-05
6.12789e-05
5.51867e-05
6.55536e-05
7.1723e-05
7.16885e-05
6.56624e-05
6.74856e-05
6.74807e-05
4.44156e-05
6.76193e-05
6.76147e-05
6.97285e-05
6.97629e-05
6.97844e-05
6.97665e-05
4.45773e-05
6.76888e-05
6.76853e-05
6.76425e-05
6.76378e-05
6.97831e-05
6.97649e-05
5.49456e-05
3.21735e-05
6.10863e-05
3.97463e-05
5.4753e-05
3.2412e-05
6.12475e-05
6.55287e-05
7.16341e-05
6.54096e-05
7.16833e-05
6.55282e-05
7.16303e-05
6.54089e-05
7.16822e-05
5.4989e-05