/*--------------------------------*- C++ -*----------------------------------*\
| =========                 |                                                 |
| \\      /  F ield         | OpenFOAM: The Open Source CFD Toolbox           |
|  \\    /   O peration     | Version:  v2006                                 |
|   \\  /    A nd           | Website:  www.openfoam.com                      |
|    \\/     M anipulation  |                                                 |
\*---------------------------------------------------------------------------*/
FoamFile
{
    version     2.0;
    format      ascii;
    class       volScalarField;
    location    "875";
    object      p;
}
// * * * * * * * * * * * * * * * * * * * * * * * * * * * * * * * * * * * * * //

dimensions      [0 2 -2 0 0 0 0];


internalField   nonuniform List<scalar> 
42840
(
0.00163616
0.00163606
0.00163607
0.00163814
0.00160022
0.00160013
0.00160012
0.00160218
0.00156444
0.00156433
0.00156433
0.00156639
0.00152861
0.0015285
0.0015285
0.00153054
0.00149288
0.00149277
0.00149277
0.00149481
0.00145726
0.00145713
0.00145714
0.00145918
0.00142159
0.00142146
0.00142146
0.0014235
0.00138602
0.0013859
0.00138591
0.00138793
0.00135046
0.00135032
0.00135031
0.00135235
0.00131499
0.00131488
0.00131488
0.00131688
0.00127945
0.00127931
0.00127931
0.00128136
0.00124394
0.00124384
0.00124383
0.00124581
0.00120872
0.00120859
0.00120859
0.00121062
0.00117303
0.0011729
0.00117291
0.00117495
0.00113771
0.00113764
0.00113761
0.00113957
0.00110242
0.00110228
0.00110231
0.00110435
0.00106688
0.00106678
0.00106677
0.00106875
0.00103163
0.00103155
0.00103155
0.00103357
0.000996083
0.000995948
0.000995958
0.000997955
0.000960765
0.000960708
0.000960691
0.000962698
0.000925337
0.000925224
0.000925235
0.000927248
0.000889811
0.000889712
0.000889711
0.000891686
0.000854662
0.000854613
0.000854605
0.00085665
0.00081906
0.000818932
0.000818943
0.000820922
0.000783451
0.000783405
0.000783395
0.000785429
0.000748079
0.000748009
0.000748013
0.000750019
0.00164297
0.00164507
0.00164506
0.00164296
0.00164507
0.00164506
0.00164506
0.00164506
0.00164296
0.00164506
0.00164506
0.00164296
0.00163814
0.00160699
0.00163607
0.00163607
0.00160909
0.0016091
0.00163813
0.001607
0.00163607
0.00163607
0.00160909
0.00160909
0.00163607
0.0016091
0.0016091
0.00163814
0.00160699
0.00163607
0.00160909
0.0016091
0.001607
0.00160217
0.00157121
0.00160012
0.00160013
0.00157329
0.00157328
0.00160219
0.0015712
0.00160012
0.00160012
0.00157329
0.00157328
0.00160012
0.00157328
0.00157328
0.00160218
0.0015712
0.00160012
0.00157328
0.00157328
0.0015712
0.0015664
0.00153536
0.00156434
0.00156433
0.00153745
0.00153745
0.00156639
0.00153536
0.00156434
0.00156434
0.00153745
0.00153746
0.00156434
0.00153745
0.00153746
0.00156639
0.00153536
0.00156434
0.00153746
0.00153746
0.00153536
0.00153054
0.00149961
0.00152849
0.0015285
0.00150168
0.00150169
0.00153054
0.00149961
0.00152849
0.0015285
0.00150168
0.00150168
0.00152849
0.00150169
0.00150168
0.00153054
0.00149961
0.00152849
0.00150168
0.00150168
0.00149961
0.00149481
0.00146398
0.00149277
0.00149277
0.00146605
0.00146605
0.00149481
0.00146397
0.00149277
0.00149277
0.00146606
0.00146605
0.00149277
0.00146605
0.00146605
0.00149481
0.00146398
0.00149277
0.00146605
0.00146605
0.00146398
0.00145918
0.0014283
0.00145714
0.00145713
0.00143038
0.00143038
0.00145917
0.0014283
0.00145714
0.00145714
0.00143038
0.00143038
0.00145714
0.00143038
0.00143038
0.00145918
0.00142829
0.00145714
0.00143038
0.00143038
0.0014283
0.00142349
0.00139272
0.00142146
0.00142146
0.00139477
0.00139478
0.00142349
0.00139272
0.00142146
0.00142146
0.00139477
0.00139478
0.00142146
0.00139478
0.00139477
0.00142349
0.00139273
0.00142146
0.00139478
0.00139477
0.00139271
0.00138794
0.00135714
0.0013859
0.0013859
0.00135923
0.00135922
0.00138793
0.00135714
0.00138591
0.00138591
0.00135923
0.00135922
0.00138589
0.00135922
0.00135924
0.00138794
0.00135714
0.0013859
0.00135922
0.00135923
0.00135716
0.00135233
0.00132166
0.00135031
0.00135031
0.00132369
0.00132371
0.00135234
0.00132167
0.00135031
0.00135031
0.00132369
0.0013237
0.00135033
0.0013237
0.00132368
0.00135233
0.00132167
0.00135032
0.0013237
0.00132368
0.00132164
0.0013169
0.00128617
0.00131487
0.00131488
0.00128826
0.00128824
0.00131691
0.00128615
0.00131487
0.00131488
0.00128826
0.00128825
0.00131485
0.00128825
0.00128828
0.00131691
0.00128615
0.00131486
0.00128825
0.00128828
0.00128619
0.00128133
0.00125058
0.00127932
0.00127929
0.00125262
0.00125263
0.00128132
0.0012506
0.00127932
0.0012793
0.00125262
0.00125263
0.00127934
0.00125263
0.00125262
0.00128132
0.0012506
0.00127934
0.00125263
0.00125262
0.00125057
0.00124583
0.00121543
0.00124382
0.00124384
0.00121749
0.00121748
0.00124585
0.00121542
0.00124382
0.00124384
0.00121749
0.00121748
0.00124381
0.00121748
0.00121747
0.00124584
0.00121541
0.00124381
0.00121747
0.00121746
0.00121541
0.00121062
0.00117972
0.00120861
0.00120859
0.0011818
0.00118178
0.00121061
0.00117971
0.00120861
0.00120859
0.00118181
0.00118181
0.00120861
0.00118179
0.00118184
0.00121061
0.00117973
0.0012086
0.00118181
0.00118185
0.00117977
0.00117491
0.00114437
0.0011729
0.00117289
0.0011464
0.00114643
0.0011749
0.00114441
0.0011729
0.00117291
0.0011464
0.0011464
0.00117293
0.00114643
0.00114637
0.00117492
0.00114438
0.00117293
0.0011464
0.00114637
0.00114433
0.00113962
0.00110913
0.00113762
0.00113765
0.00111118
0.00111116
0.00113966
0.00110909
0.00113761
0.00113762
0.00111119
0.00111118
0.00113757
0.00111116
0.00111119
0.00113962
0.00110912
0.00113757
0.00111117
0.00111119
0.00110915
0.00110432
0.00107355
0.00110231
0.00110228
0.00107562
0.00107562
0.00110428
0.00107357
0.00110231
0.0011023
0.00107562
0.00107562
0.00110234
0.00107563
0.00107563
0.00110431
0.00107356
0.00110234
0.00107563
0.00107563
0.00107356
0.00106877
0.00103835
0.00106677
0.00106678
0.00104037
0.00104038
0.00106878
0.00103835
0.00106677
0.00106677
0.00104037
0.00104037
0.00106676
0.00104037
0.00104034
0.00106877
0.00103835
0.00106675
0.00104036
0.00104034
0.00103833
0.00103356
0.00100279
0.00103155
0.00103155
0.00100486
0.00100485
0.00103356
0.00100277
0.00103155
0.00103155
0.00100487
0.00100487
0.00103155
0.00100485
0.00100488
0.00103357
0.00100278
0.00103155
0.00100487
0.00100489
0.00100279
0.00099797
0.000967461
0.000995967
0.00099595
0.000969475
0.000969479
0.000997948
0.000967472
0.000995969
0.000995958
0.000969472
0.000969467
0.000995952
0.000969475
0.000969456
0.000997958
0.000967456
0.000995955
0.000969462
0.000969453
0.000967446
0.000962695
0.00093208
0.000960688
0.000960706
0.000934147
0.000934154
0.000962716
0.000932081
0.000960685
0.000960692
0.00093415
0.000934162
0.000960696
0.000934164
0.000934188
0.0009627
0.000932089
0.000960692
0.000934169
0.000934189
0.000932107
0.000927243
0.000896507
0.000925233
0.000925223
0.000898548
0.000898529
0.000927232
0.000896487
0.000925235
0.000925232
0.000898546
0.000898529
0.000925234
0.000898513
0.000898484
0.000927243
0.000896488
0.000925237
0.000898519
0.000898487
0.000896447
0.000891721
0.000861372
0.000889723
0.000889719
0.000863392
0.000863417
0.000891714
0.000861403
0.000889722
0.000889717
0.000863393
0.000863414
0.000889693
0.000863433
0.00086346
0.000891713
0.000861396
0.000889694
0.000863422
0.000863456
0.000861444
0.000856589
0.000825824
0.000854585
0.000854599
0.000827898
0.000827882
0.000856613
0.0008258
0.000854585
0.000854596
0.000827896
0.000827884
0.000854641
0.000827873
0.000827861
0.000856606
0.000825807
0.000854637
0.00082788
0.000827863
0.000825776
0.000820973
0.00079022
0.000818961
0.000818943
0.000792248
0.000792251
0.000820948
0.000790226
0.00081896
0.00081895
0.000792251
0.000792252
0.000818913
0.000792251
0.000792249
0.000820957
0.000790222
0.000818916
0.00079225
0.000792249
0.000790228
0.000785409
0.000754803
0.00078339
0.0007834
0.000756848
0.000756861
0.000785421
0.00075482
0.000783391
0.000783393
0.000756844
0.000756852
0.000783411
0.000756868
0.000756879
0.000785412
0.000754814
0.000783408
0.000756858
0.000756875
0.000754829
0.00075
0.000748001
0.000748005
0.000750009
0.000747999
0.000748008
0.000748017
0.000750012
0.000748017
0.00166066
0.00166064
0.00166064
0.00166066
0.00166064
0.00164515
0.00164515
0.00164515
0.00164514
0.00166077
0.00166305
0.0016607
0.0016631
0.00166064
0.00166077
0.00166305
0.0016631
0.0016607
0.00166094
0.00166065
0.00166065
0.0016247
0.00163814
0.00163815
0.00162469
0.00163814
0.0016247
0.0016247
0.00163814
0.00163815
0.00162469
0.00163616
0.00163616
0.00163616
0.00160919
0.0016092
0.0016092
0.0016092
0.00162481
0.00163813
0.00163613
0.00162707
0.00163814
0.00162474
0.00162713
0.00163814
0.00162469
0.00162481
0.00163613
0.00163813
0.00162707
0.00163814
0.00162714
0.00162475
0.00163815
0.00163815
0.00162497
0.0016247
0.0016247
0.00158882
0.00160222
0.00160223
0.00158881
0.00160223
0.00158881
0.00158882
0.00160222
0.00160222
0.00158881
0.00160023
0.00160023
0.00160023
0.00157338
0.00157338
0.00157338
0.00157338
0.00158892
0.0016022
0.00160019
0.00159117
0.00160221
0.00158886
0.00159123
0.00160223
0.00158881
0.00158891
0.00160019
0.0016022
0.00159117
0.00160221
0.00159123
0.00158885
0.00160224
0.00160224
0.00158908
0.00158881
0.00158881
0.00155302
0.0015664
0.00156641
0.001553
0.00156639
0.001553
0.00155302
0.0015664
0.00156641
0.001553
0.00156443
0.00156443
0.00156443
0.00153757
0.00153757
0.00153757
0.00153757
0.00155312
0.00156639
0.00156438
0.00155537
0.0015664
0.00155305
0.00155543
0.00156639
0.001553
0.00155313
0.00156439
0.00156639
0.00155538
0.0015664
0.00155544
0.00155306
0.0015664
0.0015664
0.0015533
0.001553
0.001553
0.00151723
0.00153061
0.00153061
0.00151723
0.00153062
0.00151723
0.00151723
0.00153061
0.00153061
0.00151723
0.00152861
0.00152861
0.00152861
0.00150179
0.0015018
0.0015018
0.00150179
0.00151732
0.00153059
0.00152856
0.00151955
0.00153059
0.00151727
0.00151961
0.00153062
0.00151724
0.00151731
0.00152856
0.00153059
0.00151955
0.00153059
0.00151961
0.00151727
0.00153062
0.00153062
0.00151745
0.00151723
0.00151723
0.00148153
0.00149487
0.00149488
0.00148152
0.00149487
0.00148152
0.00148154
0.00149487
0.00149488
0.00148152
0.00149289
0.00149288
0.00149288
0.00146617
0.00146616
0.00146617
0.00146617
0.00148163
0.00149485
0.00149283
0.00148386
0.00149485
0.00148157
0.00148392
0.00149487
0.00148152
0.00148163
0.00149282
0.00149485
0.00148386
0.00149485
0.00148392
0.00148157
0.00149488
0.00149488
0.0014818
0.00148152
0.00148152
0.0014459
0.00145922
0.00145922
0.00144588
0.00145922
0.00144589
0.0014459
0.00145922
0.00145923
0.00144588
0.00145725
0.00145726
0.00145725
0.00143051
0.00143051
0.0014305
0.00143051
0.00144599
0.0014592
0.00145719
0.00144822
0.00145921
0.00144593
0.00144828
0.00145922
0.00144589
0.00144599
0.00145719
0.0014592
0.00144822
0.00145921
0.00144828
0.00144593
0.00145922
0.00145922
0.00144614
0.00144588
0.00144588
0.00141026
0.00142359
0.00142359
0.00141026
0.00142359
0.00141027
0.00141026
0.00142359
0.00142359
0.00141026
0.00142159
0.00142159
0.00142159
0.0013949
0.0013949
0.0013949
0.00139489
0.00141034
0.00142356
0.00142152
0.00141255
0.00142356
0.00141029
0.00141261
0.00142359
0.00141027
0.00141034
0.00142152
0.00142356
0.00141255
0.00142356
0.00141261
0.00141029
0.0014236
0.0014236
0.00141048
0.00141026
0.00141026
0.00137472
0.00138801
0.00138801
0.0013747
0.001388
0.00137469
0.00137472
0.00138801
0.00138801
0.0013747
0.00138602
0.00138602
0.00138601
0.00135936
0.00135935
0.00135935
0.00135936
0.00137481
0.00138798
0.00138594
0.00137702
0.00138797
0.00137475
0.00137706
0.001388
0.00137469
0.00137481
0.00138594
0.00138799
0.00137703
0.00138798
0.00137707
0.00137475
0.001388
0.001388
0.00137496
0.0013747
0.0013747
0.00133915
0.00135245
0.00135245
0.00133915
0.00135246
0.00133917
0.00133915
0.00135245
0.00135245
0.00133915
0.00135046
0.00135045
0.00135046
0.00132383
0.00132383
0.00132383
0.00132382
0.00133922
0.00135242
0.00135038
0.00134142
0.00135242
0.00133917
0.00134148
0.00135246
0.00133917
0.00133921
0.00135038
0.00135242
0.00134142
0.00135242
0.00134148
0.00133917
0.00135246
0.00135246
0.00133935
0.00133915
0.00133915
0.00130372
0.00131697
0.00131697
0.00130369
0.00131695
0.00130367
0.00130372
0.00131697
0.00131697
0.00130369
0.00131499
0.00131499
0.00131498
0.00128839
0.00128838
0.00128838
0.0012884
0.00130382
0.00131694
0.0013149
0.00130604
0.00131693
0.00130376
0.00130606
0.00131695
0.00130367
0.00130382
0.0013149
0.00131694
0.00130604
0.00131693
0.00130606
0.00130376
0.00131695
0.00131695
0.00130399
0.00130368
0.00130368
0.00126815
0.00128147
0.00128147
0.00126817
0.00128148
0.00126821
0.00126815
0.00128147
0.00128147
0.00126817
0.00127945
0.00127945
0.00127947
0.00125275
0.00125276
0.00125276
0.00125275
0.0012682
0.00128145
0.00127938
0.00127037
0.00128145
0.00126817
0.00127045
0.00128148
0.00126821
0.0012682
0.00127938
0.00128145
0.00127037
0.00128145
0.00127045
0.00126818
0.00128149
0.00128149
0.0012683
0.00126819
0.00126819
0.00123279
0.001246
0.00124598
0.00123276
0.001246
0.00123271
0.00123279
0.001246
0.00124598
0.00123276
0.00124395
0.00124395
0.00124393
0.00121758
0.00121758
0.00121757
0.00121756
0.00123286
0.00124595
0.00124386
0.00123508
0.0012459
0.00123281
0.00123508
0.001246
0.00123271
0.00123286
0.00124385
0.00124595
0.00123507
0.0012459
0.00123507
0.00123281
0.00124599
0.00124599
0.00123302
0.00123274
0.00123274
0.00119737
0.00121062
0.00121065
0.00119737
0.00121061
0.00119738
0.00119737
0.00121062
0.00121065
0.00119737
0.00120871
0.00120871
0.00120872
0.00118195
0.00118193
0.00118195
0.00118198
0.00119745
0.00121062
0.00120864
0.00119966
0.00121066
0.00119741
0.00119973
0.00121061
0.00119738
0.00119746
0.00120864
0.00121062
0.00119967
0.00121066
0.00119974
0.00119741
0.00121061
0.00121061
0.00119762
0.00119737
0.00119737
0.00116187
0.00117518
0.00117514
0.00116189
0.00117521
0.0011619
0.00116187
0.00117518
0.00117515
0.00116189
0.00117302
0.00117304
0.00117306
0.0011465
0.00114652
0.0011465
0.00114648
0.0011619
0.00117511
0.00117296
0.00116405
0.00117506
0.0011619
0.00116409
0.00117521
0.00116191
0.00116191
0.00117297
0.00117512
0.00116405
0.00117507
0.00116409
0.0011619
0.00117518
0.00117519
0.00116199
0.0011619
0.0011619
0.00112653
0.00113974
0.00113975
0.0011265
0.0011397
0.00112649
0.00112653
0.00113974
0.00113974
0.0011265
0.00113773
0.00113771
0.00113767
0.00111129
0.00111127
0.00111128
0.00111128
0.00112662
0.00113971
0.00113764
0.00112884
0.0011397
0.00112655
0.00112885
0.00113971
0.00112648
0.00112661
0.00113762
0.0011397
0.00112882
0.00113968
0.00112883
0.00112655
0.00113973
0.00113973
0.00112676
0.00112649
0.00112649
0.00109115
0.0011044
0.00110441
0.00109116
0.00110441
0.00109118
0.00109116
0.0011044
0.00110441
0.00109116
0.0011024
0.00110242
0.00110244
0.00107574
0.00107575
0.00107575
0.00107577
0.00109123
0.00110438
0.00110234
0.00109339
0.00110439
0.00109119
0.00109346
0.0011044
0.00109117
0.00109124
0.00110236
0.00110439
0.00109342
0.0011044
0.00109348
0.00109119
0.0011044
0.0011044
0.00109138
0.00109116
0.00109116
0.00105575
0.001069
0.00106897
0.00105576
0.00106901
0.00105576
0.00105575
0.001069
0.00106897
0.00105576
0.0010669
0.00106689
0.00106688
0.00104045
0.00104046
0.00104045
0.00104043
0.00105578
0.00106894
0.00106682
0.00105796
0.0010689
0.00105577
0.00105798
0.00106902
0.00105576
0.00105577
0.00106681
0.00106893
0.00105794
0.00106889
0.00105797
0.00105576
0.001069
0.001069
0.00105588
0.00105574
0.00105573
0.0010204
0.00103363
0.00103365
0.00102038
0.00103361
0.00102039
0.0010204
0.00103363
0.00103365
0.00102038
0.00103163
0.00103163
0.00103163
0.00100498
0.00100497
0.00100498
0.001005
0.0010205
0.00103362
0.00103157
0.00102268
0.00103364
0.00102043
0.00102272
0.0010336
0.00102038
0.00102051
0.00103156
0.00103362
0.00102269
0.00103364
0.00102273
0.00102044
0.00103362
0.00103362
0.00102066
0.00102038
0.00102038
0.000984923
0.000998212
0.000998187
0.000984951
0.000998241
0.000984964
0.000984922
0.000998211
0.000998189
0.000984952
0.000996068
0.000996077
0.000996078
0.000969561
0.000969562
0.000969551
0.000969541
0.000984921
0.000998144
0.000996005
0.000987083
0.000998105
0.000984931
0.000987122
0.000998238
0.000984969
0.000984923
0.000996015
0.00099815
0.000987084
0.000998113
0.000987126
0.00098493
0.000998219
0.00099822
0.000985011
0.000984931
0.000984931
0.000949608
0.000962816
0.000962826
0.000949573
0.000962789
0.000949556
0.000949608
0.000962817
0.000962823
0.000949572
0.000960781
0.000960768
0.000960771
0.000934242
0.000934253
0.000934258
0.000934277
0.000949741
0.000962801
0.000960713
0.000951919
0.000962781
0.000949646
0.000951928
0.000962796
0.000949552
0.000949733
0.000960701
0.000962793
0.000951907
0.00096277
0.000951917
0.000949645
0.000962799
0.000962798
0.000949916
0.000949557
0.000949558
0.000914135
0.000927435
0.000927421
0.000914157
0.000927443
0.00091419
0.000914136
0.000927435
0.000927422
0.000914157
0.000925332
0.00092534
0.000925344
0.000898644
0.00089862
0.000898623
0.000898593
0.000914133
0.0009274
0.000925279
0.000916282
0.00092738
0.000914135
0.000916335
0.000927441
0.000914188
0.000914143
0.000925288
0.000927401
0.000916295
0.000927384
0.000916346
0.000914141
0.000927457
0.000927457
0.000914183
0.000914166
0.000914166
0.000878733
0.000891971
0.000891939
0.000878735
0.000891976
0.00087872
0.000878734
0.000891972
0.000891938
0.000878735
0.000889802
0.000889801
0.000889782
0.000863468
0.000863494
0.000863488
0.000863517
0.000878795
0.000891894
0.000889729
0.000880942
0.000891824
0.000878765
0.000880958
0.000891979
0.000878723
0.000878789
0.000889731
0.000891894
0.000880937
0.000891826
0.000880954
0.000878762
0.000891952
0.000891953
0.000878944
0.000878711
0.00087871
0.000843418
0.000856627
0.000856656
0.000843398
0.000856609
0.000843403
0.000843416
0.000856625
0.000856654
0.000843399
0.000854682
0.000854676
0.000854709
0.000827997
0.000827983
0.000827986
0.000827974
0.000843517
0.000856633
0.000854644
0.000845736
0.00085669
0.000843452
0.000845778
0.000856605
0.000843401
0.000843516
0.000854635
0.000856632
0.000845732
0.000856685
0.000845773
0.00084345
0.000856607
0.000856607
0.000843678
0.000843401
0.000843402
0.000807876
0.00082121
0.000821197
0.000807906
0.000821228
0.000807923
0.000807878
0.000821212
0.000821197
0.000807907
0.00081904
0.000819047
0.000819021
0.000792316
0.000792316
0.000792316
0.000792314
0.000807863
0.000821148
0.000818968
0.000810008
0.000821102
0.000807884
0.000810037
0.000821228
0.000807925
0.000807873
0.000818977
0.000821153
0.00081002
0.000821108
0.000810047
0.000807889
0.000821219
0.000821219
0.000807931
0.000807898
0.000807898
0.000772375
0.00078567
0.000785642
0.000772376
0.000785667
0.000772367
0.00077237
0.000785668
0.000785643
0.000772373
0.000783461
0.000783454
0.000783465
0.000756919
0.000756937
0.000756928
0.000756948
0.000772436
0.000785613
0.000783419
0.000774564
0.000785568
0.000772407
0.000774583
0.000785668
0.000772368
0.000772423
0.000783412
0.000785611
0.000774547
0.000785564
0.000774571
0.000772397
0.000785654
0.000785653
0.000772553
0.00077236
0.00077236
0.000736913
0.00075017
0.000750169
0.000736918
0.00075018
0.000736927
0.000736919
0.000750172
0.000750167
0.000736922
0.000748086
0.000748089
0.000748096
0.000736971
0.000750136
0.000748045
0.000739154
0.000750132
0.000736937
0.000739189
0.000750177
0.000736921
0.000736984
0.000748047
0.000750134
0.000739174
0.000750132
0.000739202
0.000736945
0.000750171
0.000750171
0.000737123
0.000736909
0.00073691
0.00166064
0.00166064
0.00166095
0.00166065
0.00166065
0.00164266
0.00165612
0.00164266
0.00165612
0.00165613
0.00164267
0.00164267
0.00165613
0.00165613
0.00166066
0.00166064
0.00166077
0.00166305
0.0016607
0.0016631
0.00166077
0.00166305
0.0016607
0.0016631
0.00165613
0.00164266
0.00165612
0.00164268
0.00165613
0.00164266
0.00165612
0.00164268
0.00165612
0.00165406
0.00164272
0.00164512
0.00165611
0.00165411
0.00164279
0.00165612
0.00165406
0.00164272
0.00164512
0.00165611
0.00165411
0.00164279
0.00166095
0.00166065
0.00166065
0.00166064
0.00164266
0.00165612
0.00165613
0.00164267
0.00164267
0.00165613
0.00165613
0.00164266
0.00165612
0.00166077
0.00166305
0.0016607
0.0016631
0.00166066
0.00166064
0.00166077
0.00166305
0.0016631
0.0016607
0.00165613
0.00164266
0.00165612
0.00164268
0.00165612
0.00165406
0.00164272
0.00164512
0.00165611
0.00165411
0.00164279
0.00165613
0.00164266
0.00165612
0.00164268
0.00165612
0.00165406
0.00164512
0.00164272
0.00165411
0.00165611
0.00164279
0.00166066
0.00166064
0.00166077
0.00166304
0.0016631
0.0016607
0.00166066
0.00166064
0.00165612
0.00165406
0.00164272
0.00164512
0.00165611
0.00165411
0.00164279
0.00165613
0.00164266
0.00165612
0.00164268
0.00165612
0.00165405
0.00164512
0.00164272
0.00165411
0.00165611
0.00164279
0.00165613
0.00164266
0.00165612
0.00164268
0.00166095
0.00166065
0.00166065
0.00166064
0.00164266
0.00165612
0.00165613
0.00164267
0.00164267
0.00165613
0.00165613
0.00164266
0.00165612
0.00166077
0.00166304
0.0016631
0.0016607
0.00166066
0.00166064
0.00166066
0.00166064
0.00165612
0.00165406
0.00164512
0.00164272
0.00165411
0.00165611
0.00164279
0.00165612
0.00165405
0.00164512
0.00164272
0.00165411
0.00165611
0.00164279
0.00165613
0.00164266
0.00165612
0.00164268
0.00165613
0.00164266
0.00165612
0.00164268
0.00166064
0.00166064
0.00165612
0.00164267
0.00164267
0.00165613
0.00165613
0.00164266
0.00165612
0.00164266
0.00165612
0.00163814
0.00162469
0.00163814
0.00162469
0.00163815
0.00163815
0.00162497
0.0016247
0.0016247
0.00160674
0.00162018
0.00160674
0.00162018
0.00162014
0.00160675
0.00160675
0.00162019
0.00162019
0.0016247
0.00163814
0.00163815
0.00162469
0.00162481
0.00163813
0.00163613
0.00162707
0.00163815
0.00162475
0.00162714
0.00162481
0.00163813
0.00163613
0.00162707
0.00163815
0.00162474
0.00162714
0.00162018
0.00160673
0.00162017
0.00160674
0.00162018
0.00160673
0.00162017
0.00160674
0.00162017
0.00161808
0.00160678
0.00160916
0.00162016
0.00161814
0.00160684
0.00162017
0.00161808
0.00160678
0.00160916
0.00162016
0.00161815
0.00160684
0.00163815
0.00163815
0.00162496
0.0016247
0.0016247
0.00163814
0.0016247
0.00160674
0.00162018
0.00162014
0.00160674
0.00160674
0.00162019
0.00162019
0.00160674
0.00162018
0.00162481
0.00163814
0.00163613
0.00162707
0.00163815
0.00162475
0.00162714
0.00162471
0.00163814
0.00163815
0.00162469
0.00162481
0.00163613
0.00163813
0.00162707
0.00163815
0.00162714
0.00162475
0.00162018
0.00160673
0.00162017
0.00160674
0.00162017
0.00161808
0.00160678
0.00160916
0.00162016
0.00161814
0.00160684
0.00162018
0.00160673
0.00162017
0.00160674
0.00162017
0.00161808
0.00160916
0.00160678
0.00161815
0.00162016
0.00160684
0.0016247
0.00163814
0.00163815
0.00162469
0.00162481
0.00163613
0.00163813
0.00162707
0.00163814
0.00162714
0.00162475
0.00162471
0.00163814
0.00163815
0.00162469
0.00162017
0.00161808
0.00160678
0.00160916
0.00162016
0.00161815
0.00160685
0.00162018
0.00160673
0.00162017
0.00160675
0.00162017
0.00161808
0.00160916
0.00160678
0.00161815
0.00162016
0.00160685
0.00162018
0.00160673
0.00162017
0.00160675
0.00163815
0.00163815
0.00162497
0.0016247
0.0016247
0.00163814
0.00162469
0.00160674
0.00162018
0.00162014
0.00160674
0.00160674
0.00162019
0.00162019
0.00160674
0.00162018
0.00162481
0.00163613
0.00163813
0.00162707
0.00163814
0.00162714
0.00162475
0.00162471
0.00163814
0.00163815
0.00162469
0.00162471
0.00163814
0.00163815
0.00162469
0.00162017
0.00161808
0.00160916
0.00160678
0.00161815
0.00162016
0.00160685
0.00162017
0.00161808
0.00160916
0.00160678
0.00161815
0.00162016
0.00160685
0.00162018
0.00160673
0.00162017
0.00160675
0.00162018
0.00160673
0.00162017
0.00160674
0.00163814
0.00162469
0.00163814
0.00162469
0.00162015
0.00160674
0.00160674
0.00162019
0.00162019
0.00160674
0.00162017
0.00160674
0.00162017
0.00160223
0.00158881
0.00160223
0.00158881
0.00160224
0.00160224
0.00158908
0.00158881
0.00158881
0.00157089
0.0015843
0.00157089
0.0015843
0.00158428
0.00157089
0.00157089
0.0015843
0.0015843
0.00158882
0.00160222
0.00160223
0.00158881
0.00158891
0.0016022
0.00160019
0.00159116
0.0016022
0.00158885
0.00159123
0.00158892
0.0016022
0.00160019
0.00159117
0.00160221
0.00158886
0.00159123
0.00158431
0.0015709
0.0015843
0.00157092
0.00158431
0.0015709
0.0015843
0.00157092
0.00158429
0.00158222
0.00157096
0.00157333
0.00158428
0.00158228
0.00157102
0.00158429
0.00158223
0.00157096
0.00157333
0.00158429
0.00158228
0.00157102
0.00160224
0.00160224
0.00158909
0.00158881
0.00158881
0.00160223
0.00158881
0.00157089
0.0015843
0.00158428
0.0015709
0.0015709
0.00158431
0.00158431
0.00157089
0.0015843
0.00158891
0.0016022
0.00160019
0.00159116
0.0016022
0.00158885
0.00159122
0.00158882
0.00160222
0.00160223
0.00158881
0.00158891
0.00160019
0.0016022
0.00159117
0.0016022
0.00159123
0.00158885
0.00158431
0.0015709
0.0015843
0.00157092
0.00158429
0.00158222
0.00157096
0.00157333
0.00158428
0.00158228
0.00157102
0.00158431
0.0015709
0.0015843
0.00157092
0.00158429
0.00158222
0.00157333
0.00157096
0.00158228
0.00158428
0.00157102
0.00158882
0.00160222
0.00160223
0.00158881
0.00158891
0.00160019
0.0016022
0.00159117
0.00160221
0.00159123
0.00158885
0.00158882
0.00160222
0.00160223
0.0015888
0.00158429
0.00158223
0.00157096
0.00157333
0.00158429
0.00158228
0.00157102
0.00158431
0.0015709
0.0015843
0.00157092
0.00158429
0.00158222
0.00157333
0.00157095
0.00158228
0.00158428
0.00157102
0.00158431
0.0015709
0.0015843
0.00157092
0.00160224
0.00160224
0.00158909
0.00158881
0.00158881
0.00160223
0.00158881
0.00157089
0.0015843
0.00158428
0.0015709
0.0015709
0.0015843
0.0015843
0.00157089
0.0015843
0.00158891
0.00160019
0.0016022
0.00159116
0.00160221
0.00159123
0.00158885
0.00158882
0.00160222
0.00160223
0.00158881
0.00158881
0.00160222
0.00160223
0.0015888
0.00158429
0.00158222
0.00157333
0.00157096
0.00158228
0.00158428
0.00157102
0.00158429
0.00158222
0.00157333
0.00157096
0.00158227
0.00158428
0.00157102
0.00158431
0.0015709
0.0015843
0.00157092
0.00158431
0.0015709
0.0015843
0.00157092
0.00160223
0.00158881
0.00160223
0.00158881
0.00158428
0.0015709
0.0015709
0.00158431
0.00158431
0.00157089
0.0015843
0.00157089
0.0015843
0.00156638
0.00155299
0.00156638
0.00155299
0.0015664
0.0015664
0.00155329
0.001553
0.001553
0.00153512
0.0015485
0.00153512
0.0015485
0.00154847
0.00153512
0.00153512
0.00154851
0.00154851
0.00155302
0.00156639
0.00156641
0.001553
0.00155313
0.00156639
0.00156439
0.00155539
0.0015664
0.00155306
0.00155544
0.00155313
0.00156639
0.00156439
0.00155537
0.0015664
0.00155305
0.00155544
0.00154851
0.00153511
0.0015485
0.00153512
0.00154851
0.00153511
0.0015485
0.00153512
0.0015485
0.00154642
0.00153515
0.00153752
0.00154849
0.00154648
0.00153521
0.0015485
0.00154641
0.00153515
0.00153752
0.00154848
0.00154648
0.00153521
0.0015664
0.0015664
0.00155328
0.001553
0.001553
0.00156639
0.001553
0.00153512
0.0015485
0.00154846
0.00153512
0.00153512
0.00154851
0.00154851
0.00153512
0.0015485
0.00155313
0.00156639
0.00156439
0.00155539
0.0015664
0.00155306
0.00155544
0.00155302
0.0015664
0.00156641
0.001553
0.00155313
0.00156439
0.00156639
0.00155538
0.0015664
0.00155544
0.00155306
0.00154851
0.00153511
0.0015485
0.00153512
0.0015485
0.00154642
0.00153515
0.00153752
0.00154849
0.00154648
0.00153521
0.00154851
0.00153511
0.0015485
0.00153512
0.0015485
0.00154642
0.00153752
0.00153515
0.00154648
0.00154849
0.00153521
0.00155302
0.00156639
0.00156641
0.001553
0.00155313
0.00156439
0.00156639
0.00155538
0.0015664
0.00155544
0.00155306
0.00155302
0.0015664
0.00156641
0.001553
0.0015485
0.00154641
0.00153515
0.00153752
0.00154848
0.00154648
0.00153521
0.00154851
0.00153511
0.0015485
0.00153512
0.0015485
0.00154642
0.00153752
0.00153515
0.00154648
0.00154849
0.00153521
0.00154851
0.0015351
0.0015485
0.00153512
0.0015664
0.0015664
0.00155329
0.001553
0.001553
0.00156639
0.001553
0.00153512
0.0015485
0.00154847
0.00153512
0.00153512
0.00154851
0.00154851
0.00153512
0.0015485
0.00155313
0.00156439
0.00156639
0.00155539
0.0015664
0.00155544
0.00155306
0.00155302
0.0015664
0.00156641
0.001553
0.00155302
0.0015664
0.00156641
0.001553
0.0015485
0.00154642
0.00153752
0.00153515
0.00154648
0.00154849
0.00153521
0.0015485
0.00154642
0.00153752
0.00153515
0.00154648
0.00154849
0.00153521
0.00154851
0.00153511
0.0015485
0.00153512
0.00154851
0.00153511
0.0015485
0.00153512
0.00156639
0.00155299
0.00156639
0.00155299
0.00154848
0.00153512
0.00153512
0.00154851
0.00154851
0.00153511
0.0015485
0.00153511
0.0015485
0.00153062
0.00151724
0.00153062
0.00151724
0.00153063
0.00153063
0.00151745
0.00151724
0.00151724
0.00149937
0.00151274
0.00149937
0.00151274
0.00151265
0.00149937
0.00149937
0.00151275
0.00151275
0.00151723
0.00153061
0.00153061
0.00151723
0.00151731
0.00153059
0.00152856
0.00151954
0.00153059
0.00151727
0.00151961
0.00151732
0.00153059
0.00152856
0.00151955
0.00153059
0.00151727
0.00151961
0.00151273
0.00149936
0.00151274
0.00149937
0.00151273
0.00149936
0.00151273
0.00149937
0.0015127
0.0015106
0.00149941
0.00150174
0.00151271
0.00151067
0.00149946
0.0015127
0.00151061
0.00149941
0.00150174
0.00151271
0.00151067
0.00149946
0.00153062
0.00153062
0.00151747
0.00151723
0.00151723
0.00153062
0.00151723
0.00149936
0.00151274
0.00151266
0.00149936
0.00149936
0.00151274
0.00151274
0.00149936
0.00151274
0.00151731
0.00153059
0.00152856
0.00151954
0.00153059
0.00151727
0.00151961
0.00151723
0.00153061
0.00153061
0.00151723
0.00151731
0.00152856
0.00153059
0.00151955
0.00153059
0.00151961
0.00151727
0.00151273
0.00149936
0.00151274
0.00149937
0.0015127
0.0015106
0.00149941
0.00150174
0.00151271
0.00151066
0.00149946
0.00151273
0.00149936
0.00151273
0.00149937
0.0015127
0.00151061
0.00150174
0.00149941
0.00151067
0.00151271
0.00149946
0.00151723
0.00153061
0.00153061
0.00151723
0.00151731
0.00152856
0.00153059
0.00151954
0.00153059
0.00151961
0.00151726
0.00151723
0.00153061
0.00153061
0.00151723
0.0015127
0.00151061
0.00149941
0.00150174
0.00151271
0.00151067
0.00149946
0.00151273
0.00149936
0.00151273
0.00149937
0.0015127
0.0015106
0.00150174
0.00149941
0.00151067
0.0015127
0.00149946
0.00151273
0.00149936
0.00151274
0.00149937
0.00153063
0.00153063
0.00151746
0.00151723