/*--------------------------------*- C++ -*----------------------------------*\
| =========                 |                                                 |
| \\      /  F ield         | OpenFOAM: The Open Source CFD Toolbox           |
|  \\    /   O peration     | Version:  v2006                                 |
|   \\  /    A nd           | Website:  www.openfoam.com                      |
|    \\/     M anipulation  |                                                 |
\*---------------------------------------------------------------------------*/
FoamFile
{
    version     2.0;
    format      ascii;
    class       surfaceScalarField;
    location    "875";
    object      phi;
}
// * * * * * * * * * * * * * * * * * * * * * * * * * * * * * * * * * * * * * //

dimensions      [0 3 -1 0 0 0 0];
oriented        oriented;


internalField   nonuniform List<scalar> 
123680
(
-1.98857e-07
-1.98719e-07
-0.0011913
1.81153e-07
1.81389e-07
0.00119134
-0.00113982
-1.24238e-06
1.96544e-07
6.2998e-08
0.00113967
-2.4618e-07
1.22172e-06
2.28797e-07
8.58685e-07
-2.42083e-07
-8.974e-07
2.01292e-07
-0.00113972
-1.24021e-06
1.97177e-07
6.49764e-08
0.00113958
-2.49657e-07
1.21833e-06
2.30709e-07
8.53387e-07
-2.39301e-07
-8.91816e-07
1.9869e-07
-0.000271348
1.2717e-06
1.22908e-06
-2.26531e-07
-2.36882e-07
0.000269311
-1.63648e-07
-1.63283e-07
-0.00119141
1.5743e-07
1.57893e-07
0.00119142
-0.00113926
-1.23567e-06
1.65944e-07
4.80073e-08
0.00113913
-2.4108e-07
1.22374e-06
2.30479e-07
8.63107e-07
-2.35115e-07
-8.90177e-07
2.06504e-07
-0.00113916
-1.23228e-06
1.65218e-07
4.60921e-08
0.00113903
-2.42882e-07
1.22168e-06
2.34138e-07
8.57405e-07
-2.32775e-07
-8.85109e-07
2.03628e-07
-0.000271217
1.26447e-06
1.22193e-06
-2.21125e-07
-2.3145e-07
0.000269183
-1.52939e-07
-1.52482e-07
-0.00119143
1.52408e-07
1.52956e-07
0.00119143
-0.00113872
-1.23418e-06
1.5122e-07
4.89222e-08
0.00113858
-2.40565e-07
1.22217e-06
2.2993e-07
8.64503e-07
-2.30827e-07
-8.84982e-07
2.07972e-07
-0.00113862
-1.23189e-06
1.51213e-07
5.06045e-08
0.00113849
-2.43907e-07
1.21887e-06
2.31989e-07
8.59422e-07
-2.27792e-07
-8.79185e-07
2.05614e-07
-0.000271088
1.26346e-06
1.22096e-06
-2.20526e-07
-2.30789e-07
0.000269055
-1.23295e-07
-1.23477e-07
-0.00119141
1.32547e-07
1.32059e-07
0.00119139
-0.0011382
-1.22691e-06
1.22535e-07
3.14712e-08
0.00113808
-2.34502e-07
1.22534e-06
2.32783e-07
8.66646e-07
-2.26569e-07
-8.80467e-07
2.10782e-07
-0.0011381
-1.22401e-06
1.23269e-07
3.14409e-08
0.00113798
-2.36867e-07
1.22288e-06
2.36e-07
8.60847e-07
-2.24328e-07
-8.7543e-07
2.07729e-07
-0.000270968
1.25566e-06
1.213e-06
-2.15176e-07
-2.25588e-07
0.00026894
-1.00248e-07
-9.9066e-08
-0.00119132
1.13575e-07
1.14924e-07
0.00119129
-0.00113772
-1.22416e-06
1.02169e-07
3.06581e-08
0.00113759
-2.32258e-07
1.22483e-06
2.33232e-07
8.69458e-07
-2.21371e-07
-8.74592e-07
2.13948e-07
-0.00113762
-1.22109e-06
1.00294e-07
2.91126e-08
0.0011375
-2.3463e-07
1.22236e-06
2.36232e-07
8.64397e-07
-2.18415e-07
-8.68896e-07
2.11669e-07
-0.000270869
1.25275e-06
1.21052e-06
-2.1311e-07
-2.23196e-07
0.000268842
-8.59042e-08
-8.62261e-08
-0.00119118
1.08005e-07
1.07356e-07
0.00119114
-0.00113723
-1.22053e-06
8.35808e-08
2.22262e-08
0.00113712
-2.29845e-07
1.22551e-06
2.34006e-07
8.7206e-07
-2.16515e-07
-8.69287e-07
2.16781e-07
-0.00113713
-1.21832e-06
8.5305e-08
2.46462e-08
0.00113701
-2.33018e-07
1.22235e-06
2.36508e-07
8.6643e-07
-2.1405e-07
-8.64015e-07
2.13818e-07
-0.000270761
1.25007e-06
1.20732e-06
-2.10667e-07
-2.2115e-07
0.000268735
-6.12933e-08
-6.04227e-08
-0.00119099
8.70437e-08
8.76529e-08
0.00119094
-0.00113678
-1.21531e-06
6.13978e-08
9.99934e-09
0.00113668
-2.24592e-07
1.22808e-06
2.40484e-07
8.72182e-07
-2.14806e-07
-8.6695e-07
2.17143e-07
-0.00113668
-1.21208e-06
5.99476e-08
7.76685e-09
0.00113658
-2.26795e-07
1.22582e-06
2.40974e-07
8.66831e-07
-2.12162e-07
-8.6156e-07
2.14557e-07
-0.000270668
1.24473e-06
1.20248e-06
-2.08123e-07
-2.18243e-07
0.000268647
-4.48526e-08
-4.46032e-08
-0.00119076
7.44727e-08
7.45647e-08
0.00119071
-0.00113636
-1.21592e-06
4.52064e-08
1.71241e-08
0.00113626
-2.30563e-07
1.2241e-06
2.35393e-07
8.76074e-07
-2.08505e-07
-8.601e-07
2.21213e-07
-0.00113627
-1.21383e-06
4.64388e-08
1.99139e-08
0.00113616
-2.31405e-07
1.22061e-06
2.34454e-07
8.70697e-07
-2.05706e-07
-8.5468e-07
2.18526e-07
-0.000270588
1.24356e-06
1.20097e-06
-2.06591e-07
-2.16962e-07
0.000268567
-2.77599e-08
-2.73633e-08
-0.00119052
6.26668e-08
6.26432e-08
0.00119045
-0.00113596
-1.20746e-06
2.56317e-08
-6.917e-09
0.00113587
-2.20399e-07
1.23073e-06
2.43979e-07
8.75247e-07
-2.08324e-07
-8.59736e-07
2.20965e-07
-0.00113586
-1.2042e-06
2.44991e-08
-9.17365e-09
0.00113577
-2.19523e-07
1.22868e-06
2.44938e-07
8.69779e-07
-2.05794e-07
-8.54504e-07
2.18232e-07
-0.000270508
1.23832e-06
1.19601e-06
-2.03473e-07
-2.13651e-07
0.000268491
-7.08366e-09
-6.26133e-09
-0.00119021
4.50403e-08
4.59051e-08
0.00119013
-0.00113557
-1.21156e-06
9.99895e-09
1.47345e-08
0.00113547
-2.28327e-07
1.22265e-06
2.33672e-07
8.81338e-07
-1.99353e-07
-8.50356e-07
2.27176e-07
-0.00113548
-1.20917e-06
1.02707e-08
1.57896e-08
0.00113538
-2.28856e-07
1.21957e-06
2.33215e-07
8.76061e-07
-1.96591e-07
-8.44886e-07
2.2452e-07
-0.00027044
1.23711e-06
1.1947e-06
-2.01763e-07
-2.12032e-07
0.000268422
-5.55286e-09
-5.85986e-09
-0.00118993
4.31314e-08
4.20471e-08
0.00118985
-0.00113521
-1.20186e-06
6.53173e-10
-2.40465e-08
0.00113514
-2.15115e-07
1.23325e-06
2.48693e-07
8.73835e-07
-2.06874e-07
-8.57115e-07
2.19374e-07
-0.00113511
-1.19928e-06
1.24412e-09
-2.27923e-08
0.00113504
-2.15236e-07
1.23027e-06
2.48413e-07
8.68449e-07
-2.04088e-07
-8.51707e-07
2.16758e-07
-0.000270367
1.23549e-06
1.19294e-06
-2.02672e-07
-2.13024e-07
0.000268354
4.24525e-08
4.312e-08
-0.00118957
5.43277e-09
5.92142e-09
0.00118948
-0.00113492
-1.20276e-06
-3.79948e-08
-1.63048e-09
0.00113483
-2.21411e-07
1.2254e-06
2.35779e-07
8.88012e-07
-1.90326e-07
-8.40912e-07
2.34536e-07
-0.00113482
-1.19993e-06
-3.77436e-08
-2.50216e-09
0.00113474
-2.2127e-07
1.22295e-06
2.36131e-07
8.82153e-07
-1.88225e-07
-8.36036e-07
2.31223e-07
-0.000270329
1.22808e-06
1.18576e-06
-1.95449e-07
-2.05674e-07
0.000268316
8.97131e-09
1.10648e-08
-0.00118923
2.96229e-08
3.19002e-08
0.00118914
-0.00113454
-1.20475e-06
-1.03954e-08
4.08373e-11
0.00113445
-2.20381e-07
1.22586e-06
2.40192e-07
8.78125e-07
-1.97974e-07
-8.48263e-07
2.24382e-07
-0.00113445
-1.20128e-06
-1.40668e-08
-2.59249e-09
0.00113436
-2.19517e-07
1.22366e-06
2.40733e-07
8.73828e-07
-1.94292e-07
-8.41959e-07
2.22952e-07
-0.000270262
1.23179e-06
1.18982e-06
-1.98762e-07
-2.08705e-07
0.000268248
6.10894e-08
5.77667e-08
-0.00118887
-8.68133e-09
-1.31767e-08
0.00118877
-0.00113428
-1.19125e-06
-6.58422e-08
-4.90326e-08
0.00113424
-2.09011e-07
1.2352e-06
2.47742e-07
8.82867e-07
-1.9444e-07
-8.43529e-07
2.29013e-07
-0.00113418
-1.19038e-06
-5.89265e-08
-4.1188e-08
0.00113413
-2.10889e-07
1.23097e-06
2.46437e-07
8.7621e-07
-1.92859e-07
-8.39139e-07
2.24787e-07
-0.000270216
1.22774e-06
1.18433e-06
-1.96969e-07
-2.07997e-07
0.000268208
5.93054e-08
6.36841e-08
-0.00118849
-1.72313e-08
-1.28309e-08
0.0011884
-0.00113406
-1.20219e-06
-5.11968e-08
6.19595e-09
0.00113398
-2.20496e-07
1.22295e-06
2.3631e-07
8.86183e-07
-1.88557e-07
-8.37891e-07
2.32712e-07
-0.00113396
-1.19716e-06
-5.85712e-08
-3.78856e-09
0.00113388
-2.18322e-07
1.22219e-06
2.37973e-07
8.81865e-07
-1.85179e-07
-8.31845e-07
2.3109e-07
-0.000270197
1.22229e-06
1.18113e-06
-1.93024e-07
-2.02412e-07
0.000268189
5.39878e-08
5.2637e-08
-0.00118811
-4.33963e-09
-5.63104e-09
0.00118802
-0.00113373
-1.19364e-06
-6.21862e-08
-3.36109e-08
0.00113367
-2.11264e-07
1.2312e-06
2.45546e-07
8.83005e-07
-1.90213e-07
-8.39369e-07
2.29469e-07
-0.00113364
-1.19282e-06
-5.81547e-08
-2.50917e-08
0.00113357
-2.13253e-07
1.22655e-06
2.43529e-07
8.77624e-07
-1.87247e-07
-8.33774e-07
2.26787e-07
-0.000270148
1.22723e-06
1.18416e-06
-1.95215e-07
-2.05982e-07
0.000268138
9.65317e-08
9.59007e-08
-0.00118771
-4.07998e-08
-4.26599e-08
0.0011876
-0.00113354
-1.1891e-06
-9.3181e-08
-4.01596e-08
0.00113349
-2.08503e-07
1.23201e-06
2.44688e-07
8.88528e-07
-1.85456e-07
-8.34077e-07
2.35028e-07
-0.00113343
-1.18531e-06
-9.31113e-08
-4.42904e-08
0.00113338
-2.07175e-07
1.23056e-06
2.46136e-07
8.82547e-07
-1.83618e-07
-8.29468e-07
2.31685e-07
-0.000270119
1.21767e-06
1.17519e-06
-1.8963e-07
-2.00042e-07
0.000268115
6.95937e-08
7.28877e-08
-0.0011873
-2.91462e-08
-2.5299e-08
0.00118721
-0.0011333
-1.19783e-06
-6.96527e-08
-1.08364e-08
0.00113324
-2.16906e-07
1.22402e-06
2.38223e-07
8.83968e-07
-1.86716e-07
-8.35702e-07
2.30858e-07
-0.00113321
-1.19543e-06
-7.26751e-08
-1.07897e-08
0.00113316
-2.17403e-07
1.22084e-06
2.37716e-07
8.79428e-07
-1.83262e-07
-8.29475e-07
2.28938e-07
-0.0002701
1.22513e-06
1.18357e-06
-1.96106e-07
-2.05747e-07
0.000268093
1.02307e-07
9.88364e-08
-0.00118693
-4.58236e-08
-5.01271e-08
0.00118683
-0.00113312
-1.18431e-06
-1.0323e-07
-5.72474e-08
0.00113308
-2.02744e-07
1.23547e-06
2.49766e-07
8.86303e-07
-1.87208e-07
-8.34906e-07
2.32147e-07
-0.00113302
-1.18212e-06
-9.852e-08
-5.38484e-08
0.00113298
-2.03074e-07
1.23238e-06
2.49542e-07
8.79928e-07
-1.85218e-07
-8.30445e-07
2.28571e-07
-0.000270079
1.21583e-06
1.17234e-06
-1.88133e-07
-1.99308e-07
0.000268078
9.32988e-08
9.74968e-08
-0.0011865
-4.73168e-08
-4.37271e-08
0.0011864
-0.00113295
-1.19462e-06
-9.69492e-08
-1.72768e-08
0.0011329
-2.15791e-07
1.22352e-06
2.36561e-07
8.89266e-07
-1.79518e-07
-8.28344e-07
2.36554e-07
-0.00113285
-1.19121e-06
-1.00834e-07
-2.10748e-08
0.0011328
-2.1525e-07
1.22124e-06
2.36902e-07
8.84603e-07
-1.76519e-07
-8.22486e-07
2.34403e-07
-0.000270073
1.22088e-06
1.17963e-06
-1.92512e-07
-2.01927e-07
0.000268067
1.01564e-07
9.91088e-08
-0.00118613
-5.37879e-08
-5.55054e-08
0.00118604
-0.00113276
-1.18608e-06
-9.08423e-08
-5.22619e-08
0.00113273
-2.04863e-07
1.23276e-06
2.48138e-07
8.81409e-07
-1.8918e-07
-8.37276e-07
2.27478e-07
-0.00113267
-1.18386e-06
-9.08869e-08
-4.99825e-08
0.00113264
-2.05307e-07
1.22959e-06
2.47773e-07
8.762e-07
-1.86008e-07
-8.31535e-07
2.25157e-07
-0.000270042
1.2183e-06
1.17559e-06
-1.9199e-07
-2.02479e-07
0.000268042
1.26371e-07
1.2843e-07
-0.00118572
-6.91888e-08
-6.91689e-08
0.0011856
-0.00113265
-1.18597e-06
-1.43785e-07
-3.98968e-08
0.00113262
-2.07011e-07
1.22971e-06
2.43146e-07
8.95225e-07
-1.75466e-07
-8.22509e-07
2.41356e-07
-0.00113255
-1.18273e-06
-1.39847e-07
-4.04787e-08
0.00113252
-2.06628e-07
1.22741e-06
2.43394e-07
8.89e-07
-1.73622e-07
-8.18136e-07
2.37904e-07
-0.000270068
1.21036e-06
1.16735e-06
-1.83539e-07
-1.94367e-07
0.000268068
1.06929e-07
1.06105e-07
-0.00118528
-5.98671e-08
-5.96514e-08
0.00118519
-0.00113247
-1.1874e-06
-9.09553e-08
-4.28501e-08
0.00113241
-2.07494e-07
1.22884e-06
2.43414e-07
8.86381e-07
-1.80353e-07
-8.29798e-07
2.3444e-07
-0.00113237
-1.18512e-06
-9.58069e-08
-4.31436e-08
0.00113232
-2.07677e-07
1.22579e-06
2.43353e-07
8.81872e-07
-1.77096e-07
-8.23581e-07
2.32369e-07
-0.000270039
1.22059e-06
1.17938e-06
-1.91962e-07
-2.01345e-07
0.000268032
1.15143e-07
1.17643e-07
-0.00118492
-6.88809e-08
-6.78419e-08
0.00118482
-0.00113232
-1.18538e-06
-1.26021e-07
-4.78414e-08
0.00113231
-2.05744e-07
1.22991e-06
2.44282e-07
8.85484e-07
-1.84617e-07
-8.31346e-07
2.3104e-07
-0.00113223
-1.18257e-06
-1.2294e-07
-4.68383e-08
0.00113222
-2.05879e-07
1.22721e-06
2.441e-07
8.79616e-07
-1.82041e-07
-8.26311e-07
2.28075e-07
-0.00027003
1.2116e-06
1.1685e-06
-1.87157e-07
-1.98045e-07
0.000268035
1.26996e-07
1.24228e-07
-0.00118452
-7.77401e-08
-7.9785e-08
0.00118443
-0.00113229
-1.18681e-06
-1.26461e-07
-4.43524e-08
0.00113227
-2.08615e-07
1.2278e-06
2.41473e-07
8.87754e-07
-1.80751e-07
-8.27939e-07
2.34164e-07
-0.00113219
-1.18392e-06
-1.27013e-07
-4.59612e-08
0.00113217
-2.08166e-07
1.22547e-06
2.42257e-07
8.82144e-07
-1.78644e-07
-8.23017e-07
2.30991e-07
-0.000270065
1.21603e-06
1.1738e-06
-1.90189e-07
-2.00405e-07
0.000268066
1.29208e-07
1.334e-07
-0.00118416
-8.24349e-08
-7.94426e-08
0.00118405
-0.00113218
-1.18153e-06
-1.21999e-07
-5.7385e-08
0.00113215
-2.01396e-07
1.23269e-06
2.47886e-07
8.89506e-07
-1.78789e-07
-8.268e-07
2.36459e-07
-0.00113209
-1.17856e-06
-1.24922e-07
-5.74854e-08
0.00113205
-2.01376e-07
1.2298e-06
2.47338e-07
8.85322e-07
-1.74682e-07
-8.20165e-07
2.35161e-07
-0.000270061
1.21139e-06
1.16957e-06
-1.85136e-07
-1.94903e-07
0.00026806
-1.25983e-06
-1.21731e-06
0.000271396
-0.000269375
2.23932e-07
2.31716e-07
0.0011392
2.03994e-07
-0.00113935
6.9361e-08
-1.28492e-06
2.34068e-07
-2.57526e-07
-8.95578e-07
1.98561e-07
-2.39808e-07
8.56248e-07
1.25808e-06
0.00113933
2.03802e-07
-0.00113947
6.70353e-08
-1.28185e-06
2.35565e-07
-2.56571e-07
-9.01056e-07
2.00764e-07
-2.43036e-07
8.61077e-07
-1.22049e-06
0.000271386
-0.000269365
2.27198e-07
2.29676e-07
0.00114022
2.03684e-07
-0.00114037
6.88175e-08
-1.24234e-06
2.28818e-07
-2.52048e-07
-8.95285e-07
1.98811e-07
-2.3975e-07
8.56268e-07
1.25505e-06
0.00113922
2.0375e-07
-0.00113936
6.78658e-08
-1.27925e-06
2.32349e-07
-2.54104e-07
-8.98218e-07
2.00972e-07
-2.42772e-07
8.58632e-07
2.03133e-07
-0.00113996
6.79726e-08
-1.24456e-06
2.27183e-07
-2.48437e-07
-8.98228e-07
2.00955e-07
8.58657e-07
-2.42887e-07
1.24961e-06
0.00113889
2.01666e-07
-0.00113903
6.56994e-08
-1.27321e-06
2.32002e-07
-2.54186e-07
-8.95179e-07
2.01741e-07
-2.42086e-07
8.56452e-07
-1.21741e-06
0.000271371
-0.000269353
2.24398e-07
2.29463e-07
2.02967e-07
-0.00113986
6.88371e-08
-1.24202e-06
2.29473e-07
-2.51488e-07
-8.92602e-07
1.98549e-07
8.53455e-07
-2.3994e-07
1.20707e-06
0.0011399
2.01216e-07
-0.00114004
6.51483e-08
-1.23064e-06
2.24009e-07
-2.45971e-07
-8.94798e-07
2.02016e-07
-2.4197e-07
8.56492e-07
-0.000269346
2.21892e-07
2.32275e-07
1.28348e-06
1.24085e-06
-2.29832e-07
-2.37637e-07
0.000269339
-1.26518e-06
-1.22269e-06
0.000271267
-0.000269244
2.28617e-07
2.36417e-07
6.63487e-08
0.00113906
-2.56127e-07
1.26053e-06
2.35238e-07
8.56112e-07
-2.39306e-07
-8.94809e-07
1.98442e-07
-1.27959e-06
1.97572e-07
6.1775e-08
0.00113919
-2.54257e-07
1.25936e-06
2.37197e-07
8.61112e-07
-2.42303e-07
-9.00234e-07
2.01048e-07
0.00113865
1.7191e-07
-0.00113879
4.7082e-08
-1.27575e-06
2.40971e-07
-2.48173e-07
-8.90557e-07
2.01412e-07
-2.35414e-07
8.58403e-07
1.26134e-06
0.00113878
1.72151e-07
-0.00113891
5.0041e-08
-1.27409e-06
2.39183e-07
-2.49813e-07
-8.95032e-07
2.0488e-07
-2.37273e-07
8.64321e-07
-2.31697e-07
-2.33902e-07
0.00026933
-1.22423e-06
0.000271257
-0.000269235
2.30568e-07
2.32728e-07
6.5425e-08
0.00114008
-2.50585e-07
1.21808e-06
2.30056e-07
8.56088e-07
-2.39274e-07
-8.9456e-07
1.9867e-07
-1.27734e-06
1.98385e-07
6.37228e-08
0.00113908
-2.52214e-07
1.25601e-06
2.33597e-07
8.5853e-07
-2.42212e-07
-8.97515e-07
2.01063e-07
0.00113967
1.71791e-07
-0.0011398
4.65134e-08
-1.23315e-06
2.35742e-07
-2.42641e-07
-8.90371e-07
2.0167e-07
-2.35361e-07
8.58346e-07
1.25903e-06
0.00113866
1.72258e-07
-0.0011388
4.9421e-08
-1.27106e-06
2.37169e-07
-2.46492e-07
-8.92766e-07
2.04487e-07
-2.37656e-07
8.61288e-07
1.95799e-07
6.29418e-08
0.00113875
-2.52513e-07
1.25023e-06
2.33198e-07
8.56532e-07
-2.41304e-07
2.01823e-07
-8.94089e-07
1.7246e-07
-0.0011394
4.82163e-08
-1.23646e-06
2.31285e-07
-2.41276e-07
-8.92383e-07
2.04916e-07
8.61683e-07
-2.3724e-07
1.25286e-06
0.00113834
1.74393e-07
-0.00113847
5.16388e-08
-1.26603e-06
2.36662e-07
-2.46992e-07
-8.90325e-07
2.03908e-07
-2.3806e-07
8.58191e-07
-2.29591e-07
-2.34193e-07
0.000269318
-1.22195e-06
0.000271242
-0.000269222
2.28383e-07
2.33036e-07
1.95473e-07
6.20126e-08
0.00113976
-2.44239e-07
1.20775e-06
2.25272e-07
8.56545e-07
-2.4119e-07
2.0209e-07
-8.93732e-07
1.72721e-07
-0.0011393
4.75351e-08
-1.23343e-06
2.3483e-07
-2.43421e-07
-8.87421e-07
2.01836e-07
8.55788e-07
-2.35003e-07
1.21039e-06
0.00113935
1.74332e-07
-0.00113948
5.09267e-08
-1.2234e-06
2.28726e-07
-2.38694e-07
-8.90108e-07
2.0413e-07
-2.37995e-07
8.58082e-07
-0.000269214
2.24944e-07
2.3529e-07
1.27443e-06
1.23192e-06
-2.22893e-07
-2.30617e-07
0.000269214
-1.26089e-06
-1.2183e-06
0.000271137
-0.000269118
2.25939e-07
2.33808e-07
4.46501e-08
0.00113852
-2.47664e-07
1.26495e-06
2.40082e-07
8.60257e-07
-2.32873e-07
-8.88078e-07
2.03587e-07
-1.27339e-06
1.65152e-07
5.01429e-08
0.00113864
-2.49691e-07
1.26078e-06
2.38341e-07
8.65854e-07
-2.35091e-07
-8.92688e-07
2.06518e-07
0.00113811
1.54966e-07
-0.00113825
5.27671e-08
-1.27573e-06
2.35796e-07
-2.51071e-07
-8.82367e-07
2.0606e-07
-2.27787e-07
8.62864e-07
1.25873e-06
0.00113823
1.56013e-07
-0.00113837
5.24636e-08
-1.27291e-06
2.36603e-07
-2.50495e-07
-8.88265e-07
2.07944e-07
-2.3137e-07
8.67276e-07
-2.26524e-07
-2.29114e-07
0.000269204
-1.22124e-06
0.000271126
-0.000269106
2.28911e-07
2.31372e-07
4.46593e-08
0.00113953
-2.42216e-07
1.22238e-06
2.34766e-07
8.60233e-07
-2.32792e-07
-8.87863e-07
2.03871e-07
-1.27001e-06
1.64323e-07
4.82741e-08
0.00113853
-2.46019e-07
1.25871e-06
2.3646e-07
8.62937e-07
-2.35366e-07
-8.90394e-07
2.06318e-07
0.00113913
1.54195e-07
-0.00113926
5.28965e-08
-1.23331e-06
2.30476e-07
-2.45681e-07
-8.82039e-07
2.06387e-07
-2.27653e-07
8.62929e-07
1.25589e-06
0.00113812
1.54991e-07
-0.00113826
5.22873e-08
-1.27014e-06
2.33533e-07
-2.47941e-07
-8.85254e-07
2.08437e-07
-2.30863e-07
8.65065e-07
1.66442e-07
4.82621e-08
0.0011382
-2.45874e-07
1.25319e-06
2.36782e-07
8.59747e-07
-2.359e-07
2.05707e-07
-8.88111e-07
1.55655e-07
-0.00113885
5.296e-08
-1.2356e-06
2.28299e-07
-2.42292e-07
-8.85526e-07
2.0811e-07
8.64779e-07
-2.31236e-07
1.25073e-06
0.00113779
1.53286e-07
-0.00113793
4.95678e-08
-1.26376e-06
2.33737e-07
-2.47236e-07
-8.82297e-07
2.08927e-07
-2.30409e-07
8.627e-07
-2.23506e-07
-2.28572e-07
0.000269191
-1.21836e-06
0.000271111
-0.000269095
2.26273e-07
2.31306e-07
1.66107e-07
4.81168e-08
0.00113921
-2.37663e-07
1.21063e-06
2.2875e-07
8.59692e-07
-2.35799e-07
2.05976e-07
-8.87859e-07
1.54493e-07
-0.00113876
5.2869e-08
-1.23289e-06
2.30722e-07
-2.45264e-07
-8.79711e-07
2.05986e-07
8.59811e-07
-2.28047e-07
1.20811e-06
0.0011388
1.52304e-07
-0.00113894
4.97074e-08
-1.22137e-06
2.25668e-07
-2.39122e-07
-8.81853e-07
2.09288e-07
-2.30187e-07
8.62804e-07
-0.000269088
2.23875e-07
2.34356e-07
1.275e-06
1.23248e-06
-2.23495e-07
-2.31211e-07
0.000269085
-1.26521e-06
-1.22295e-06
0.000271017
-0.000268995
2.29445e-07
2.37111e-07
5.27441e-08
0.00113798
-2.49887e-07
1.26111e-06
2.36831e-07
8.62256e-07
-2.27802e-07
-8.82011e-07
2.05408e-07
-1.27139e-06
1.51985e-07
4.80145e-08
0.0011381
-2.48681e-07
1.25972e-06
2.38293e-07
8.66988e-07
-2.31016e-07
-8.8773e-07
2.07759e-07
0.00113758
1.32646e-07
-0.00113771
3.70054e-08
-1.26832e-06
2.41612e-07
-2.43134e-07
-8.80247e-07
2.05959e-07
-2.2634e-07
8.6229e-07
1.26303e-06
0.00113771
1.29834e-07
-0.00113784
3.28478e-08
-1.265e-06
2.41806e-07
-2.42607e-07
-8.84883e-07
2.09523e-07
-2.28288e-07
8.68133e-07
-2.25741e-07
-2.27968e-07
0.000269074
-1.22574e-06
0.00027101
-0.000268988
2.3236e-07
2.34679e-07
5.21522e-08
0.00113899
-2.44389e-07
1.21865e-06
2.31634e-07
8.62263e-07
-2.27695e-07
-8.81738e-07
2.05697e-07
-1.26903e-06
1.52179e-07
4.96517e-08
0.00113799
-2.46504e-07
1.25647e-06
2.34845e-07
8.64626e-07
-2.30663e-07
-8.84797e-07
2.08023e-07
0.0011386
1.33034e-07
-0.00113873
3.5433e-08
-1.2256e-06
2.36562e-07
-2.37439e-07
-8.80143e-07
2.06147e-07
-2.2635e-07
8.62151e-07
1.26016e-06
0.0011376
1.31357e-07
-0.00113772
3.44132e-08
-1.26254e-06
2.39105e-07
-2.39992e-07
-8.82551e-07
2.09107e-07
-2.28641e-07
8.6515e-07
1.51026e-07
5.04633e-08
0.00113766
-2.46816e-07
1.25041e-06
2.34016e-07
8.62371e-07
-2.30101e-07
2.08502e-07
-8.81657e-07
1.29441e-07
-0.00113832
3.23442e-08
-1.22761e-06
2.33705e-07
-2.34271e-07
-8.82126e-07
2.0965e-07
8.65606e-07
-2.28172e-07
1.25399e-06
0.00113727
1.32889e-07
-0.0011374
3.78976e-08
-1.25772e-06
2.38814e-07
-2.40636e-07
-8.80039e-07
2.08483e-07
-2.29035e-07
8.62066e-07
-2.23461e-07
-2.28096e-07
0.000269062
-1.2229e-06
0.000270994
-0.000268975
2.29752e-07
2.34563e-07
1.50407e-07
4.98801e-08
0.00113867
-2.38586e-07
1.20793e-06
2.26083e-07
8.62387e-07
-2.29927e-07
2.08807e-07
-8.81281e-07
1.31067e-07
-0.00113822
3.38472e-08
-1.22514e-06
2.36558e-07
-2.37118e-07
-8.77085e-07
2.06565e-07
8.59777e-07
-2.25889e-07
1.21175e-06
0.00113828
1.33321e-07
-0.00113841
3.61894e-08
-1.21497e-06
2.31058e-07
-2.32174e-07
-8.79892e-07
2.0865e-07
-2.29021e-07
8.61896e-07
-0.000268966
2.26664e-07
2.3689e-07
1.26662e-06
1.22398e-06
-2.17827e-07
-2.25657e-07
0.00026897
-1.26587e-06
-1.22317e-06
0.000270918
-0.000268897
2.30115e-07
2.38114e-07
3.15371e-08
0.00113746
-2.4216e-07
1.26583e-06
2.41836e-07
8.63437e-07
-2.2471e-07
-8.78543e-07
2.07255e-07
-1.26439e-06
1.22457e-07
3.23608e-08
0.00113759
-2.42912e-07
1.26255e-06
2.40825e-07
8.69297e-07
-2.26644e-07
-8.83081e-07
2.10697e-07
0.00113711
1.02866e-07
-0.00113723
2.53865e-08
-1.2638e-06
2.42252e-07
-2.40223e-07
-8.73004e-07
2.1081e-07
-2.19637e-07
8.66718e-07
1.26232e-06
0.00113723
1.05999e-07
-0.00113735
3.16549e-08
-1.26233e-06
2.41608e-07
-2.41198e-07
-8.78345e-07
2.13086e-07
-2.22613e-07
8.71568e-07
-2.20722e-07
-2.23138e-07
0.000268963
-1.22501e-06
0.000270906
-0.000268886
2.32505e-07
2.34845e-07
3.05486e-08
0.00113848
-2.36557e-07
1.22346e-06
2.36676e-07
8.63338e-07
-2.24695e-07
-8.78412e-07
2.07477e-07
-1.26149e-06
1.23115e-07
3.23874e-08
0.00113748
-2.39809e-07
1.26008e-06
2.38501e-07
8.66279e-07
-2.27024e-07
-8.80824e-07
2.1032e-07
0.00113813
1.01751e-07
-0.00113824
2.63589e-08
-1.22154e-06
2.36784e-07
-2.34958e-07
-8.72659e-07
2.11202e-07
-2.19442e-07
8.66825e-07
1.26011e-06
0.00113712
1.04184e-07
-0.00113724
2.91599e-08
-1.25903e-06
2.39386e-07
-2.37895e-07
-8.7566e-07
2.13269e-07
-2.22496e-07
8.69076e-07
1.23846e-07
3.20938e-08
0.00113715
-2.39064e-07
1.25494e-06
2.3949e-07
8.63042e-07
-2.27604e-07
2.09661e-07
-8.78547e-07
1.05729e-07
-0.00113784
3.14529e-08
-1.22494e-06
2.33446e-07
-2.32884e-07
-8.75609e-07
2.13223e-07
8.69074e-07
-2.22512e-07
1.25474e-06
0.00113679
1.02559e-07
-0.00113691
2.53416e-08
-1.25291e-06
2.39037e-07
-2.378e-07
-8.72577e-07
2.13832e-07
-2.21975e-07
8.66882e-07
-2.18085e-07
-2.22989e-07
0.000268949
-1.22276e-06
0.000270892
-0.000268874
2.30267e-07
2.35179e-07
1.24051e-07
3.09628e-08
0.00113816
-2.307e-07
1.21258e-06
2.31615e-07
8.62926e-07
-2.27555e-07
2.09875e-07
-8.78357e-07
1.03762e-07
-0.00113774
2.90413e-08
-1.2217e-06
2.36718e-07
-2.35099e-07
-8.70137e-07
2.10804e-07
8.63817e-07
-2.19697e-07
1.212e-06
0.0011378
1.01268e-07
-0.00113792
2.63067e-08
-1.21067e-06
2.30821e-07
-2.29813e-07
-8.7213e-07
2.1425e-07
-2.21709e-07
8.67014e-07
-0.000268867
2.2733e-07
2.37938e-07
1.26362e-06
1.22136e-06
-2.15608e-07
-2.23148e-07
0.000268872
-1.2643e-06
-1.22206e-06
0.00027081
-0.000268791
2.30129e-07
2.3778e-07
2.72977e-08
0.00113699
-2.40298e-07
1.26508e-06
2.41406e-07
8.6731e-07
-2.18343e-07
-8.71729e-07
2.11627e-07
-1.26151e-06
1.02603e-07
3.07794e-08
0.00113711
-2.40544e-07
1.26217e-06
2.41407e-07
8.71967e-07
-2.21525e-07
-8.77324e-07
2.13766e-07
0.00113662
9.07821e-08
-0.00113675
2.9262e-08
-1.26244e-06
2.40996e-07
-2.3984e-07
-8.67845e-07
2.13513e-07
-2.14856e-07
8.69138e-07
1.26256e-06
0.00113675
8.86884e-08
-0.00113687
2.43839e-08
-1.25894e-06
2.41887e-07
-2.38928e-07
-8.73071e-07
2.16318e-07
-2.17565e-07
8.74343e-07
-2.18443e-07
-2.20783e-07
0.000268859
-1.22531e-06
0.0002708
-0.000268781
2.33267e-07
2.35563e-07
2.81529e-08
0.00113801
-2.35018e-07
1.22242e-06
2.3598e-07
8.67408e-07
-2.18144e-07
-8.71376e-07
2.12011e-07
-1.25838e-06
1.00939e-07
2.91525e-08
0.001137
-2.37402e-07
1.25972e-06
2.38905e-07
8.69621e-07
-2.2125e-07
-8.7448e-07
2.14112e-07
0.00113764
9.07424e-08
-0.00113776
2.78695e-08
-1.21981e-06
2.35963e-07
-2.34184e-07
-8.67665e-07
2.13729e-07
-2.14821e-07
8.6906e-07
1.25917e-06
0.00113664
9.00048e-08
-0.00113676
2.71051e-08
-1.25689e-06
2.38404e-07
-2.37048e-07
-8.70329e-07
2.16321e-07
-2.17424e-07
8.71755e-07
9.96735e-08
2.72076e-08
0.00113668
-2.37802e-07
1.25401e-06
2.3848e-07
8.67423e-07
-2.20654e-07
2.14539e-07
-8.71206e-07
8.87143e-08
-0.00113735
2.3856e-08
-1.22155e-06
2.33767e-07
-2.30588e-07
-8.70408e-07
2.16382e-07
8.71748e-07
-2.17515e-07
1.25335e-06
0.00113631
9.12803e-08
-0.00113643
2.93027e-08
-1.25144e-06
2.38425e-07
-2.36842e-07
-8.68052e-07
2.15819e-07
-2.17881e-07
8.68598e-07
-2.15635e-07
-2.20395e-07
0.000268848
-1.22193e-06
0.000270784
-0.000268768
2.30258e-07
2.3507e-07
9.82967e-08
2.80647e-08
0.00113769
-2.29798e-07
1.21132e-06
2.30312e-07
8.67547e-07
-2.20384e-07
2.14946e-07
-8.70747e-07
9.00863e-08
-0.00113726
2.65367e-08
-1.21949e-06
2.35824e-07
-2.34172e-07
-8.64952e-07
2.13728e-07
8.66317e-07
-2.14733e-07
1.21114e-06
0.00113732
9.12905e-08
-0.00113744
2.77922e-08
-1.20878e-06
2.30688e-07
-2.28422e-07
-8.67832e-07
2.16009e-07
-2.17822e-07
8.68474e-07
-0.000268762
2.27508e-07
2.37713e-07
1.26121e-06
1.21849e-06
-2.13384e-07
-2.21276e-07
0.000268765
-1.26693e-06
-1.22445e-06
0.000270717
-0.000268696
2.31298e-07
2.39167e-07
2.70095e-08
0.0011365
-2.38704e-07
1.26477e-06
2.41675e-07
8.69278e-07
-2.14104e-07
-8.66882e-07
2.13681e-07
-1.25788e-06
8.36836e-08
2.23342e-08
0.00113663
-2.38132e-07
1.26282e-06
2.42194e-07
8.74667e-07
-2.16584e-07
-8.71906e-07
2.16676e-07
0.00113617
6.93033e-08
-0.00113628
1.44862e-08
-1.25705e-06
2.44527e-07
-2.34928e-07
-8.65695e-07
2.13143e-07
-2.13375e-07
8.68628e-07
1.26431e-06
0.0011363
6.88578e-08
-0.0011364
1.45012e-08
-1.25445e-06
2.4468e-07
-2.34845e-07
-8.70694e-07
2.16101e-07
-2.15844e-07
8.73996e-07
-2.15807e-07
-2.18195e-07
0.000268755
-1.22706e-06
0.000270708
-0.000268688
2.34199e-07
2.36519e-07
2.52118e-08
0.00113752
-2.32973e-07
1.22261e-06
2.36694e-07
8.69154e-07
-2.14117e-07
-8.66754e-07
2.13854e-07
-1.25566e-06
8.53904e-08
2.47941e-08
0.00113652
-2.35833e-07
1.25965e-06
2.39167e-07
8.71803e-07
-2.16754e-07
-8.69413e-07
2.16375e-07
0.00113718
6.90693e-08
-0.00113729
1.43924e-08
-1.2146e-06
2.39203e-07
-2.29486e-07
-8.65489e-07
2.1342e-07
-2.13307e-07
8.68622e-07
1.26202e-06
0.00113618
6.86901e-08
-0.00113629
1.3141e-08
-1.25126e-06
2.42436e-07
-2.31528e-07
-8.68381e-07
2.15849e-07
-2.16154e-07
8.7111e-07
8.5771e-08
2.62187e-08
0.00113619
-2.35596e-07
1.25399e-06
2.39179e-07
8.69039e-07
-2.16942e-07
2.16285e-07
-8.66907e-07
6.82892e-08
-0.00113689
1.41764e-08
-1.21713e-06
2.36577e-07
-2.26539e-07
-8.67878e-07
2.16269e-07
8.71523e-07
-2.15681e-07
1.25563e-06
0.00113585
6.87549e-08
-0.00113596
1.5153e-08
-1.24618e-06
2.41132e-07
-2.32511e-07
-8.65082e-07
2.16282e-07
-2.15466e-07
8.68805e-07
-2.13646e-07
-2.18501e-07
0.000268742
-1.22473e-06
0.000270693
-0.000268675
2.3192e-07
2.36807e-07
8.61478e-08
2.43058e-08
0.0011372
-2.27105e-07
1.21185e-06
2.31486e-07
8.68877e-07
-2.16932e-07
2.16439e-07
-8.66744e-07
6.78917e-08
-0.00113679
1.28958e-08
-1.214e-06
2.39836e-07
-2.28731e-07
-8.62758e-07
2.13431e-07
8.65888e-07
-2.13276e-07
1.21311e-06
0.00113686
6.83022e-08
-0.00113697
1.50746e-08
-1.20377e-06
2.33058e-07
-2.24356e-07
-8.6475e-07
2.166e-07
-2.15312e-07
8.68842e-07
-0.000268666
2.28396e-07
2.38883e-07
1.25508e-06
1.21281e-06
-2.10234e-07
-2.17816e-07
0.000268677
-1.26584e-06
-1.22339e-06
0.000270637
-0.000268619
2.31271e-07
2.39104e-07
9.0897e-09
0.00113607
-2.32813e-07
1.26815e-06
2.46019e-07
8.69418e-07
-2.12463e-07
-8.64605e-07
2.14025e-07
-1.25279e-06
6.12237e-08
1.13216e-08
0.00113619
-2.33054e-07
1.26513e-06
2.45671e-07
8.74862e-07
-2.14864e-07
-8.69564e-07
2.17093e-07
0.00113576
4.4394e-08
-0.00113586
1.09321e-08
-1.25412e-06
2.41986e-07
-2.34115e-07
-8.58339e-07
2.192e-07
-2.06154e-07
8.74077e-07
1.26248e-06
0.00113588
4.62543e-08
-0.00113598
1.46601e-08
-1.25252e-06
2.41317e-07
-2.35335e-07
-8.63535e-07
2.21481e-07
-2.09024e-07
8.7906e-07
-2.12746e-07
-2.15198e-07
0.000268668
-1.22513e-06
0.000270626
-0.000268607
2.33301e-07
2.35783e-07
9.91938e-09
0.00113708
-2.27527e-07
1.22551e-06
2.40555e-07
8.69501e-07
-2.12312e-07
-8.64301e-07
2.14384e-07
-1.24953e-06
6.00027e-08
9.07504e-09
0.00113608
-2.29778e-07
1.2629e-06
2.43382e-07
8.72231e-07
-2.14923e-07
-8.67023e-07
2.17117e-07
0.00113677
4.33736e-08
-0.00113688
1.09063e-08
-1.21178e-06
2.36742e-07
-2.28703e-07
-8.57994e-07
2.19536e-07
-2.05986e-07
8.74144e-07
1.25941e-06
0.00113577
4.55413e-08
-0.00113587
1.53589e-08
-1.24991e-06
2.38041e-07
-2.32849e-07
-8.60562e-07
2.21878e-07
-2.08578e-07
8.76733e-07
6.24826e-08
1.16441e-08
0.00113575
-2.30904e-07
1.25641e-06
2.42318e-07
8.69167e-07
-2.14959e-07
2.16628e-07
-8.64371e-07
4.62573e-08
-0.00113647
1.4469e-08
-1.21518e-06
2.35819e-07
-2.29806e-07
-8.60852e-07
2.21667e-07
8.76505e-07
-2.08982e-07
1.25531e-06
0.00113544
4.47901e-08
-0.00113554
9.80643e-09
-1.24298e-06
2.39916e-07
-2.30854e-07
-8.58651e-07
2.21423e-07
-2.0941e-07
8.73559e-07
-2.0992e-07
-2.14796e-07
0.000268656
-1.22213e-06
0.000270611
-0.000268596
2.30598e-07
2.35494e-07
6.14369e-08
1.24331e-08
0.00113676
-2.22887e-07
1.21375e-06
2.34126e-07
8.69276e-07
-2.14731e-07
2.1701e-07
-8.63952e-07
4.57746e-08
-0.00113637
1.51109e-08
-1.21252e-06
2.35358e-07
-2.29996e-07
-8.55239e-07
2.19307e-07
8.71343e-07
-2.05929e-07
1.21291e-06
0.00113645
4.39208e-08
-0.00113655
9.57031e-09
-1.20059e-06
2.31993e-07
-2.22652e-07
-8.58307e-07
2.21713e-07
-2.09239e-07
8.73546e-07
-0.000268588
2.29021e-07
2.39381e-07
1.2555e-06
1.21295e-06
-2.09975e-07
-2.1774e-07
0.000268597
-1.2677e-06
-1.22543e-06
0.000270556
-0.000268536
2.32788e-07
2.4052e-07
1.59704e-08
0.00113565
-2.35986e-07
1.26399e-06
2.40364e-07
8.73871e-07
-2.05419e-07
-8.57409e-07
2.18921e-07
-1.25294e-06
4.62504e-08
1.57015e-08
0.00113577
-2.35829e-07
1.26173e-06
2.41129e-07
8.7847e-07
-2.08732e-07
-8.62964e-07
2.20858e-07
0.00113535
3.81651e-08
-0.00113545
6.70786e-09
-1.2514e-06
2.46898e-07
-2.29918e-07
-8.58751e-07
2.15845e-07
-2.07409e-07
8.70934e-07
1.2662e-06
0.00113548
3.5629e-08
-0.00113557
8.49677e-10
-1.24741e-06
2.48028e-07
-2.28381e-07
-8.63942e-07
2.19049e-07
-2.099e-07
8.76293e-07
-2.13136e-07
-2.15222e-07
0.000268585
-1.22904e-06
0.000270548
-0.000268528
2.36393e-07
2.38574e-07
1.47164e-08
0.00113667
-2.30369e-07
1.22177e-06
2.35326e-07
8.73782e-07
-2.05364e-07
-8.57206e-07
2.19136e-07
-1.25088e-06
4.73595e-08
1.8452e-08
0.00113566
-2.33947e-07
1.25822e-06
2.37446e-07