/*--------------------------------*- C++ -*----------------------------------*\
| =========                 |                                                 |
| \\      /  F ield         | OpenFOAM: The Open Source CFD Toolbox           |
|  \\    /   O peration     | Version:  v2012                                 |
|   \\  /    A nd           | Website:  www.openfoam.com                      |
|    \\/     M anipulation  |                                                 |
\*---------------------------------------------------------------------------*/
FoamFile
{
    version     2.0;
    format      ascii;
    class       volScalarField;
    location    "1262.5";
    object      epsilon;
}
// * * * * * * * * * * * * * * * * * * * * * * * * * * * * * * * * * * * * * //

dimensions      [0 2 -3 0 0 0 0];


internalField   nonuniform List<scalar> 
171728
(
1.20016e-09
3.3649e-09
3.89539e-09
5.14477e-09
1.16593e-09
3.10229e-09
3.65799e-09
4.64229e-09
1.10615e-09
2.8376e-09
3.414e-09
4.1746e-09
1.05225e-09
2.60934e-09
3.18298e-09
3.77082e-09
1.00306e-09
2.41321e-09
2.98771e-09
3.42348e-09
9.56611e-10
2.24528e-09
2.81809e-09
3.1393e-09
9.1383e-10
2.1091e-09
2.67075e-09
2.90845e-09
8.73768e-10
2.00825e-09
2.55023e-09
2.71869e-09
8.36796e-10
1.9431e-09
2.4592e-09
2.56692e-09
8.02456e-10
1.90376e-09
2.40124e-09
2.45378e-09
7.69759e-10
1.90137e-09
2.37729e-09
2.37352e-09
7.40046e-10
1.9297e-09
2.38632e-09
2.32622e-09
7.12099e-10
2.0021e-09
2.44038e-09
2.32246e-09
6.85768e-10
2.13291e-09
2.55043e-09
2.36645e-09
6.63554e-10
2.322e-09
2.74405e-09
2.48124e-09
6.44092e-10
2.64631e-09
3.04825e-09
2.73395e-09
6.21829e-10
3.11512e-09
3.52805e-09
3.19551e-09
6.12301e-10
3.90604e-09
4.2652e-09
3.95718e-09
5.99525e-10
5.04127e-09
5.44638e-09
5.34284e-09
5.91439e-10
6.51324e-09
6.9339e-09
7.29397e-09
5.99079e-10
9.40301e-09
9.39316e-09
1.17555e-08
6.05224e-10
1.20938e-08
1.27646e-08
1.62416e-08
6.34472e-10
1.76816e-08
1.81946e-08
3.07245e-08
6.75437e-10
2.41474e-08
2.40884e-08
4.5354e-08
7.64501e-10
3.30186e-08
3.49157e-08
7.05785e-08
8.54992e-10
4.33726e-08
4.24589e-08
1.0787e-07
1.05743e-09
5.92318e-08
6.32944e-08
1.58228e-07
1.3154e-09
7.39226e-08
7.33671e-08
2.18358e-07
1.65889e-09
9.65079e-08
9.70786e-08
2.86086e-07
2.2392e-09
1.1617e-07
1.18305e-07
3.64795e-07
2.84027e-09
1.44878e-07
1.47935e-07
4.50317e-07
3.81238e-09
1.73002e-07
1.689e-07
5.26435e-07
5.23115e-09
2.05011e-07
2.09332e-07
5.74804e-07
6.7045e-09
2.38332e-07
2.39965e-07
6.43137e-07
9.00438e-09
2.83437e-07
2.81094e-07
7.13343e-07
1.21254e-08
3.16844e-07
3.19712e-07
7.52586e-07
1.55085e-08
3.59415e-07
3.5968e-07
8.13405e-07
2.0199e-08
4.15515e-07
4.16549e-07
8.30969e-07
2.60754e-08
4.49384e-07
4.49371e-07
8.69074e-07
3.16557e-08
5.02337e-07
5.02979e-07
9.3155e-07
4.24536e-08
5.54896e-07
5.58708e-07
9.49285e-07
4.8892e-08
5.95367e-07
5.99513e-07
9.70471e-07
6.37055e-08
6.50563e-07
6.39033e-07
1.00729e-06
7.57989e-08
6.97691e-07
7.04132e-07
1.03278e-06
8.77696e-08
7.34592e-07
7.53785e-07
1.07096e-06
1.12328e-07
7.93109e-07
7.8223e-07
1.09241e-06
1.27011e-07
8.22403e-07
8.33809e-07
1.11272e-06
1.49077e-07
8.6379e-07
8.60492e-07
1.13175e-06
1.73163e-07
9.03651e-07
9.11437e-07
1.17822e-06
1.99321e-07
9.48297e-07
9.4298e-07
1.20876e-06
2.25958e-07
9.68239e-07
9.72029e-07
1.21444e-06
2.58171e-07
9.95457e-07
9.92036e-07
1.22148e-06
2.80691e-07
1.02526e-06
1.03271e-06
1.25296e-06
3.15869e-07
1.06169e-06
1.05885e-06
1.29662e-06
3.53056e-07
1.07427e-06
1.06935e-06
1.29882e-06
3.77415e-07
1.10075e-06
1.10168e-06
1.31159e-06
4.20995e-07
1.11675e-06
1.11713e-06
1.33362e-06
4.42397e-07
1.14135e-06
1.13631e-06
1.3464e-06
4.62268e-07
1.14834e-06
1.16467e-06
1.35785e-06
5.05626e-07
1.17803e-06
1.17428e-06
1.39287e-06
5.34353e-07
1.20178e-06
1.17747e-06
1.39159e-06
5.50433e-07
1.1956e-06
1.20543e-06
1.38597e-06
5.72626e-07
1.20367e-06
1.22805e-06
1.42767e-06
6.03974e-07
1.24838e-06
1.22784e-06
1.44002e-06
6.22328e-07
1.24365e-06
1.23854e-06
1.4359e-06
6.41092e-07
1.24299e-06
1.2599e-06
1.44929e-06
6.58863e-07
1.27013e-06
1.26401e-06
1.45842e-06
6.75099e-07
1.27382e-06
1.271e-06
1.46013e-06
6.92252e-07
1.28268e-06
1.28586e-06
1.49165e-06
7.08036e-07
1.29194e-06
1.28398e-06
1.48541e-06
7.22058e-07
1.28561e-06
1.29092e-06
1.4725e-06
7.36793e-07
1.30122e-06
1.30901e-06
1.50948e-06
7.46541e-07
1.32287e-06
1.30966e-06
1.53115e-06
7.58779e-07
1.30149e-06
1.30854e-06
1.48613e-06
7.66707e-07
1.29195e-06
1.29909e-06
1.47219e-06
7.78243e-07
1.33209e-06
1.3182e-06
1.55847e-06
7.94365e-07
1.33545e-06
1.34088e-06
1.55324e-06
7.9076e-07
1.31026e-06
1.30926e-06
1.4877e-06
7.90676e-07
1.31154e-06
1.30201e-06
1.50435e-06
8.10013e-07
1.3266e-06
1.33451e-06
1.54655e-06
8.12418e-07
1.32541e-06
1.33244e-06
1.54031e-06
8.04832e-07
1.31935e-06
1.31131e-06
1.52753e-06
8.09135e-07
1.31802e-06
1.31462e-06
1.52889e-06
8.20021e-07
1.30673e-06
1.32419e-06
1.50563e-06
8.11772e-07
1.29653e-06
1.30474e-06
1.49011e-06
8.05171e-07
1.31819e-06
1.29925e-06
1.54099e-06
8.15253e-07
1.34411e-06
1.3278e-06
1.58072e-06
8.17838e-07
1.326e-06
1.32556e-06
1.5581e-06
7.99367e-07
1.26087e-06
1.27423e-06
1.46566e-06
7.88626e-07
1.24915e-06
1.26812e-06
1.44427e-06
8.01612e-07
1.30685e-06
1.30808e-06
1.5439e-06
8.08988e-07
1.32635e-06
1.30041e-06
1.57492e-06
7.86988e-07
1.26698e-06
1.25452e-06
1.48072e-06
7.69861e-07
1.2275e-06
1.25963e-06
1.43454e-06
7.63516e-07
1.20294e-06
1.23313e-06
1.48125e-06
5.29269e-09
3.99086e-09
4.14205e-09
4.7672e-09
3.76481e-09
4.72551e-09
1.18271e-09
1.30079e-09
1.58399e-09
1.32111e-09
3.59517e-09
3.70105e-09
5.14349e-09
3.90179e-09
4.38872e-09
5.16223e-09
5.26885e-09
4.72343e-09
3.44575e-09
6.63043e-09
3.26559e-09
5.71152e-09
4.74048e-09
4.31261e-09
3.29639e-09
8.57826e-09
3.1371e-09
8.72442e-09
3.36544e-09
3.17395e-09
3.18567e-09
5.11466e-09
4.80657e-09
4.90079e-09
3.72446e-09
4.56154e-09
4.67151e-09
4.69409e-09
4.21373e-09
3.19142e-09
5.506e-09
2.98184e-09
5.17389e-09
4.28337e-09
3.96803e-09
3.07324e-09
8.72215e-09
2.89614e-09
8.42908e-09
3.11673e-09
2.89986e-09
2.92099e-09
4.74887e-09
4.47137e-09
4.43734e-09
3.47392e-09
4.09187e-09
4.19939e-09
4.19118e-09
3.79649e-09
2.91542e-09
5.12598e-09
2.72684e-09
5.01427e-09
3.94473e-09
3.67858e-09
2.83977e-09
8.1482e-09
2.67674e-09
7.05148e-09
2.85969e-09
2.66355e-09
2.68883e-09
4.41399e-09
4.04008e-09
3.9886e-09
3.23778e-09
3.70579e-09
3.79232e-09
3.77895e-09
3.4464e-09
2.66788e-09
4.94712e-09
2.50322e-09
4.71635e-09
3.65728e-09
3.42934e-09
2.62539e-09
6.66061e-09
2.47819e-09
5.82904e-09
2.63549e-09
2.45939e-09
2.48469e-09
4.00977e-09
3.71455e-09
3.62465e-09
3.03373e-09
3.42005e-09
3.44111e-09
3.4331e-09
3.14649e-09
2.45267e-09
4.62312e-09
2.3134e-09
4.1737e-09
3.41249e-09
3.17688e-09
2.43249e-09
5.67278e-09
2.30563e-09
5.29727e-09
2.43807e-09
2.28432e-09
2.30785e-09
3.69066e-09
3.43821e-09
3.36097e-09
2.85897e-09
3.19566e-09
3.15249e-09
3.13633e-09
2.87972e-09
2.27195e-09
3.95606e-09
2.16164e-09
3.35548e-09
3.15372e-09
2.84117e-09
2.26792e-09
5.16014e-09
2.16682e-09
4.65817e-09
2.26843e-09
2.13942e-09
2.16188e-09
3.41342e-09
3.13818e-09
3.14508e-09
2.705e-09
3.01159e-09
2.91754e-09
2.8731e-09
2.65699e-09
2.13016e-09
3.19706e-09
2.04867e-09
2.76096e-09
2.82563e-09
2.61486e-09
2.13721e-09
4.44989e-09
2.06034e-09
3.83357e-09
2.13027e-09
2.02963e-09
2.04942e-09
3.11898e-09
2.89153e-09
2.97327e-09
2.57644e-09
2.87394e-09
2.72428e-09
2.65359e-09
2.47833e-09
2.0257e-09
2.64396e-09
1.96947e-09
2.47052e-09
2.60849e-09
2.47352e-09
2.03864e-09
3.66668e-09
1.98577e-09
3.24025e-09
2.02658e-09
1.95485e-09
1.97242e-09
2.87728e-09
2.69818e-09
2.84603e-09
2.47899e-09
2.77915e-09
2.56862e-09
2.47841e-09
2.34147e-09
1.95462e-09
2.45103e-09
1.92464e-09
2.33435e-09
2.47417e-09
2.33462e-09
1.97137e-09
3.16227e-09
1.94063e-09
3.07277e-09
1.95844e-09
1.90914e-09
1.92845e-09
2.69139e-09
2.55396e-09
2.76412e-09
2.41218e-09
2.73824e-09
2.45202e-09
2.34434e-09
2.24275e-09
1.91705e-09
2.30563e-09
1.91213e-09
2.11308e-09
2.33025e-09
2.19289e-09
1.93453e-09
3.03221e-09
1.92737e-09
2.87339e-09
1.92211e-09
1.90106e-09
1.91651e-09
2.55026e-09
2.44809e-09
2.73222e-09
2.37926e-09
2.72872e-09
2.36831e-09
2.24883e-09
2.18071e-09
1.91404e-09
2.06143e-09
1.93136e-09
2.08704e-09
2.1968e-09
2.1234e-09
1.92871e-09
2.82361e-09
1.94704e-09
2.72176e-09
1.91852e-09
1.91954e-09
1.93757e-09
2.44929e-09
2.37999e-09
2.73114e-09
2.38197e-09
2.76131e-09
2.31529e-09
2.19279e-09
2.16189e-09
1.94251e-09
2.18245e-09
1.99877e-09
2.27116e-09
2.1345e-09
2.11232e-09
1.95687e-09
2.68979e-09
2.00539e-09
2.64669e-09
1.94916e-09
1.98423e-09
1.99712e-09
2.38551e-09
2.34765e-09
2.77925e-09
2.41768e-09
2.83565e-09
2.30198e-09
2.18266e-09
2.19103e-09
2.01902e-09
2.2405e-09
2.10645e-09
2.11733e-09
2.13235e-09
2.13586e-09
2.0272e-09
2.65093e-09
2.12051e-09
2.7327e-09
2.02124e-09
2.09773e-09
2.11886e-09
2.36842e-09
2.38096e-09
2.86114e-09
2.51352e-09
2.95585e-09
2.3353e-09
2.22372e-09
2.28848e-09
2.13726e-09
2.11796e-09
2.29651e-09
2.24799e-09
2.16773e-09
2.23865e-09
2.15375e-09
2.76745e-09
2.30242e-09
2.83576e-09
2.15228e-09
2.27821e-09
2.29106e-09
2.40768e-09
2.46127e-09
2.98594e-09
2.6866e-09
3.11637e-09
2.42353e-09
2.34649e-09
2.47396e-09
2.35529e-09
2.31673e-09
2.57143e-09
2.56458e-09
2.29254e-09
2.45464e-09
2.36101e-09
2.87401e-09
2.55671e-09
3.05346e-09
2.34933e-09
2.57545e-09
2.57939e-09
2.51549e-09
2.67673e-09
3.1724e-09
2.96813e-09
3.41277e-09
2.64564e-09
2.56261e-09
2.87171e-09
2.68145e-09
2.63358e-09
3.0063e-09
2.98378e-09
2.56006e-09
2.79485e-09
2.66944e-09
3.1341e-09
2.99275e-09
3.44979e-09
2.66798e-09
3.0086e-09
3.00887e-09
2.76721e-09
3.00149e-09
3.50863e-09
3.39122e-09
3.92108e-09
3.03086e-09
2.99481e-09
3.44151e-09
3.14472e-09
3.09378e-09
3.66724e-09
3.67429e-09
2.92754e-09
3.50099e-09
3.10885e-09
3.58479e-09
3.61297e-09
4.11133e-09
3.15456e-09
3.69332e-09
3.67209e-09
3.14547e-09
3.652e-09
4.09273e-09
4.06173e-09
4.63856e-09
3.69929e-09
3.82415e-09
4.67407e-09
3.96087e-09
3.89665e-09
4.75834e-09
4.69075e-09
3.8027e-09
4.63495e-09
3.92629e-09
4.36147e-09
4.66029e-09
5.13843e-09
3.89317e-09
4.71323e-09
4.68384e-09
3.90025e-09
4.78088e-09
4.91185e-09
5.08073e-09
5.7834e-09
4.88713e-09
4.93535e-09
6.54794e-09
4.97172e-09
5.02628e-09
6.25681e-09
6.11574e-09
5.08115e-09
6.27716e-09
4.86624e-09
5.51385e-09
6.17746e-09
6.47547e-09
5.02886e-09
6.09084e-09
5.932e-09
5.21704e-09
6.43387e-09
6.19427e-09
6.3981e-09
7.21348e-09
6.57579e-09
7.32628e-09
9.22426e-09
6.73642e-09
6.52919e-09
8.13614e-09
8.37955e-09
6.87503e-09
1.00083e-08
6.65232e-09
6.96703e-09
8.01661e-09
8.96489e-09
6.57283e-09
8.41358e-09
8.74276e-09
7.13142e-09
1.00633e-08
7.86718e-09
8.85814e-09
1.03219e-08
1.11994e-08
1.0478e-08
1.68928e-08
9.1113e-09
9.35652e-09
1.20653e-08
1.13554e-08
1.15903e-08
1.55177e-08
8.95134e-09
9.58213e-09
1.17664e-08
1.24864e-08
9.10618e-09
1.12994e-08
1.10062e-08
1.10904e-08
1.63954e-08
1.06676e-08
1.20602e-08
1.18862e-08
1.40078e-08
1.80632e-08
2.41752e-08
1.26895e-08
1.21795e-08
1.59656e-08
1.64494e-08
1.67434e-08
2.69381e-08
1.24017e-08
1.37119e-08
1.58832e-08
1.70198e-08
1.2263e-08
1.62574e-08
1.6433e-08
1.81892e-08
2.58523e-08
1.29703e-08
1.68972e-08
1.75943e-08
2.79193e-08
2.80141e-08
4.1712e-08
1.77482e-08
1.78254e-08
2.24502e-08
2.21456e-08
3.02693e-08
4.08525e-08
1.75916e-08
1.91264e-08
2.17929e-08
2.40653e-08
1.77581e-08
2.20881e-08
2.22074e-08
2.93439e-08
4.10791e-08
1.89947e-08
2.2551e-08
2.33415e-08
4.13678e-08
4.5187e-08
6.59613e-08
2.42232e-08
2.42431e-08
3.0577e-08
3.10018e-08
4.55545e-08
6.86605e-08
2.36378e-08
2.56154e-08
3.05783e-08
3.57594e-08
2.40558e-08
3.07577e-08
3.04377e-08
4.47997e-08
7.02706e-08
2.47344e-08
3.19789e-08
3.04154e-08
6.45104e-08
7.23498e-08
1.0048e-07
3.32138e-08
3.32717e-08
4.13197e-08
4.04505e-08
7.4035e-08
9.61903e-08
3.32872e-08
3.8979e-08
4.08552e-08
4.55709e-08
3.28509e-08
4.01924e-08
4.09907e-08
7.89991e-08
1.01767e-07
3.27575e-08
4.06901e-08
4.08339e-08
9.93919e-08
1.0843e-07
1.42521e-07
4.44703e-08
4.36557e-08
5.40471e-08
5.58363e-08
1.04546e-07
1.51134e-07
4.35608e-08
4.8982e-08
5.3615e-08
6.39231e-08
4.42403e-08
5.55715e-08
5.47186e-08
1.06274e-07
1.6406e-07
4.39875e-08
5.73892e-08
5.49196e-08
1.47252e-07
1.53447e-07
2.11383e-07
5.76593e-08
5.95528e-08
7.26451e-08
6.93327e-08
1.62539e-07
1.99358e-07
5.77803e-08
6.75157e-08
7.24e-08
7.20965e-08
5.88012e-08
6.88928e-08
7.12207e-08
1.81018e-07
2.01688e-07
5.89955e-08
7.21703e-08
7.07021e-08
2.06179e-07
2.25946e-07
2.76227e-07
7.75224e-08
7.42622e-08
8.91894e-08
9.19542e-08
2.11108e-07
2.80333e-07
7.67957e-08
7.35495e-08
8.84521e-08
9.26191e-08
7.5547e-08
9.16274e-08
8.96615e-08
2.04922e-07
2.5596e-07
7.52499e-08
8.9932e-08
8.9814e-08
2.71707e-07
2.88535e-07
3.51149e-07
9.4053e-08
9.69305e-08
1.13959e-07
1.11315e-07
2.97552e-07
3.48068e-07
9.38295e-08
1.01549e-07
1.14178e-07
1.2181e-07
9.50192e-08
1.10589e-07
1.11579e-07
2.82656e-07
3.6377e-07
9.46659e-08
1.11044e-07
1.11636e-07
3.47761e-07
3.69397e-07
4.29189e-07
1.20639e-07
1.16871e-07
1.375e-07
1.37956e-07
3.60416e-07
4.24518e-07
1.2065e-07
1.27266e-07
1.37309e-07
1.43113e-07
1.17458e-07
1.37099e-07
1.40355e-07
3.75845e-07
4.29561e-07
1.17661e-07
1.42557e-07
1.39966e-07
4.34213e-07
4.4166e-07
4.96009e-07
1.43142e-07
1.45634e-07
1.64238e-07
1.66101e-07
4.43095e-07
5.0524e-07
1.4295e-07
1.48024e-07
1.64073e-07
1.63632e-07
1.47951e-07
1.65826e-07
1.65794e-07
4.46198e-07
4.98066e-07
1.47829e-07
1.61039e-07
1.65503e-07
5.08554e-07
5.13695e-07
5.76091e-07
1.72725e-07
1.73337e-07
1.99794e-07
1.97943e-07
5.19662e-07
5.71085e-07
1.72569e-07
1.71128e-07
1.99352e-07
1.98878e-07
1.73862e-07
1.97244e-07
2.00838e-07
5.12209e-07
5.7254e-07
1.72838e-07
2.00434e-07
1.99415e-07
5.66036e-07
5.90517e-07
6.32054e-07
2.07637e-07
2.05716e-07
2.29898e-07
2.29684e-07
5.85361e-07
6.3277e-07
2.07404e-07
2.07082e-07
2.2953e-07
2.31012e-07
2.08024e-07
2.28301e-07
2.2337e-07
5.88783e-07
6.32478e-07
2.06558e-07
2.31545e-07
2.21847e-07
6.22702e-07
6.45707e-07
6.93413e-07
2.39367e-07
2.39796e-07
2.69603e-07
2.74031e-07
6.48576e-07
6.99964e-07
2.38963e-07
2.40356e-07
2.69674e-07
2.6942e-07
2.33064e-07
2.72914e-07
2.78806e-07
6.45208e-07
6.93379e-07
2.332e-07
2.69659e-07
2.82388e-07
7.02426e-07
7.07084e-07
7.45693e-07
2.79291e-07
2.84131e-07
3.11738e-07
3.09755e-07
7.1262e-07
7.41943e-07
2.79207e-07
2.79844e-07
3.11768e-07
3.12756e-07
2.91148e-07
3.08866e-07
3.11653e-07
7.08099e-07
7.46399e-07
2.93623e-07
3.12203e-07
3.09738e-07
7.40125e-07
7.57659e-07
7.89004e-07
3.2138e-07
3.18044e-07
3.51632e-07
3.48292e-07
7.51919e-07
7.85879e-07
3.21303e-07
3.22518e-07
3.51112e-07
3.50372e-07
3.17733e-07
3.46782e-07
3.5503e-07
7.56804e-07
7.8494e-07
3.13936e-07
3.46863e-07
3.5275e-07
8.02231e-07
7.99773e-07
8.31551e-07
3.63542e-07
3.60681e-07
3.97965e-07
4.03454e-07
7.99732e-07
8.37286e-07
3.63302e-07
3.60676e-07
3.97803e-07
3.97561e-07
3.70006e-07
4.02594e-07
4.02006e-07
7.96633e-07
8.35785e-07
3.73677e-07
4.02945e-07
4.15541e-07
8.25398e-07
8.42237e-07
8.68753e-07
4.09296e-07
4.16006e-07
4.43552e-07
4.42114e-07
8.4689e-07
8.66352e-07
4.08447e-07
4.12418e-07
4.436e-07
4.47553e-07
4.0857e-07
4.40442e-07
4.24109e-07
8.4684e-07
8.69354e-07
4.21334e-07
4.44234e-07
4.35117e-07
8.55129e-07
8.78431e-07
9.05833e-07
4.55998e-07
4.51314e-07
4.89216e-07
4.89867e-07
8.74845e-07
9.03954e-07
4.56585e-07
4.54438e-07
4.88715e-07
4.88518e-07
4.37279e-07
4.8769e-07
5.03135e-07
8.76992e-07
8.99745e-07
4.39225e-07
4.85192e-07
4.75362e-07
9.202e-07
9.14913e-07
9.36617e-07
5.01285e-07
5.03741e-07
5.45236e-07
5.44069e-07
9.14952e-07
9.40126e-07
5.0021e-07
5.03336e-07
5.44756e-07
5.43678e-07
5.22814e-07
5.42967e-07
5.58703e-07
9.10583e-07
9.43359e-07
5.01595e-07
5.4608e-07
5.62723e-07
9.45102e-07
9.44875e-07
9.68876e-07
5.57706e-07
5.55942e-07
5.82204e-07
5.87431e-07
9.47349e-07
9.64466e-07
5.57881e-07
5.55664e-07
5.83158e-07
5.92219e-07
5.65426e-07
5.86216e-07
5.80438e-07
9.52086e-07
9.6734e-07
5.73492e-07
5.91152e-07
5.93132e-07
9.62165e-07
9.78151e-07
1.00318e-06
5.94732e-07
5.97264e-07
6.42577e-07
6.35432e-07
9.72731e-07
1.00123e-06
5.95366e-07
6.0384e-07
6.41623e-07
6.32926e-07
5.86689e-07
6.33854e-07
6.35465e-07
9.73324e-07
9.93898e-07
5.97444e-07
6.268e-07
6.30855e-07
9.97675e-07
1.00994e-06
1.02302e-06
6.55082e-07
6.51951e-07
6.83528e-07
6.90959e-07
1.01062e-06
1.02888e-06
6.53932e-07
6.44076e-07
6.82992e-07
6.88303e-07
6.53804e-07
6.90079e-07
6.84025e-07
1.00466e-06
1.0343e-06
6.48414e-07
6.87116e-07
6.79529e-07
1.02614e-06
1.02978e-06
1.05634e-06
6.91524e-07
6.98533e-07
7.24197e-07
7.22366e-07
1.0342e-06
1.05116e-06
6.91795e-07
7.02967e-07
7.26161e-07
7.3597e-07
6.92611e-07
7.21325e-07
7.35616e-07
1.04101e-06
1.05581e-06
6.88722e-07
7.4413e-07
7.38272e-07
1.06132e-06
1.06578e-06
1.08829e-06
7.39853e-07
7.35686e-07
7.81789e-07
7.83111e-07
1.06016e-06
1.09067e-06
7.4136e-07
7.43937e-07
7.81359e-07
7.669e-07
7.49932e-07
7.81781e-07
7.77334e-07
1.0628e-06
1.08634e-06
7.53733e-07
7.74299e-07
7.7973e-07
1.08761e-06
1.0939e-06
1.10689e-06
7.91267e-07
7.94722e-07
8.14441e-07
8.13338e-07
1.09737e-06
1.10761e-06
7.90436e-07
7.80799e-07
8.13031e-07
8.26112e-07
7.8586e-07
8.12627e-07
8.20991e-07
1.09383e-06
1.11505e-06
7.86064e-07
8.21716e-07
8.14094e-07
1.10659e-06
1.11351e-06
1.13996e-06
8.23217e-07
8.2213e-07
8.58966e-07
8.57999e-07
1.11271e-06
1.13377e-06
8.22293e-07
8.35951e-07
8.61491e-07
8.53225e-07
8.31758e-07
8.5714e-07
8.51047e-07
1.12098e-06
1.13217e-06
8.2402e-07
8.55359e-07
8.43145e-07
1.12598e-06
1.14738e-06
1.16088e-06
8.70578e-07
8.6534e-07
8.92891e-07
8.90159e-07
1.1406e-06
1.15985e-06
8.72894e-07
8.58047e-07
8.92444e-07
8.94682e-07
8.56417e-07
8.88295e-07
8.97033e-07
1.13759e-06
1.16407e-06
8.50913e-07
8.97025e-07
8.95561e-07
1.16604e-06
1.1659e-06
1.18871e-06
9.00297e-07
9.04492e-07
9.30588e-07
9.41003e-07
1.16876e-06
1.19863e-06
9.00192e-07
9.09426e-07
9.34443e-07
9.33296e-07
9.12971e-07
9.42124e-07
9.40713e-07
1.17423e-06
1.19474e-06
9.12773e-07
9.3678e-07
9.49868e-07
1.20485e-06
1.19672e-06
1.21274e-06
9.40949e-07
9.4714e-07
9.65448e-07
9.60465e-07
1.2032e-06
1.20738e-06
9.44228e-07
9.39886e-07
9.63678e-07
9.65799e-07
9.45393e-07
9.60704e-07
9.65407e-07
1.19885e-06
1.20821e-06
9.56352e-07
9.65278e-07
9.66862e-07
1.21183e-06
1.21731e-06
1.23062e-06
9.73101e-07
9.68359e-07
9.94232e-07
9.91941e-07
1.21152e-06
1.22798e-06
9.71157e-07
9.73255e-07
9.9619e-07
9.88611e-07
9.72492e-07
9.90994e-07
9.85946e-07
1.21305e-06
1.22602e-06
9.69132e-07
9.86031e-07
9.79074e-07
1.21776e-06
1.23574e-06
1.24881e-06
9.98526e-07
9.96863e-07
1.01359e-06
1.01691e-06
1.23263e-06
1.24848e-06
1.00211e-06
9.94749e-07
1.01421e-06
1.02279e-06
9.88724e-07
1.01464e-06
1.00476e-06
1.23161e-06
1.25677e-06
9.85408e-07
1.02175e-06
1.01456e-06
1.24302e-06
1.25478e-06
1.27641e-06
1.02373e-06
1.02748e-06
1.05432e-06
1.05532e-06
1.25718e-06
1.28431e-06
1.02136e-06
1.03289e-06
1.04919e-06
1.05449e-06
1.01649e-06
1.05532e-06
1.05955e-06
1.26495e-06
1.28117e-06
1.02777e-06
1.05487e-06
1.0607e-06
1.29066e-06
1.28091e-06
1.28713e-06
1.0604e-06
1.06072e-06
1.06911e-06
1.06821e-06
1.28856e-06
1.2901e-06
1.05561e-06
1.05876e-06
1.06575e-06
1.06758e-06
1.06954e-06
1.07079e-06
1.08132e-06
1.28437e-06
1.28659e-06
1.06602e-06
1.06671e-06
1.07125e-06
1.29761e-06
1.2918e-06
1.32317e-06
1.07148e-06
1.07114e-06
1.09386e-06
1.09352e-06
1.29277e-06
1.31189e-06
1.07077e-06
1.07042e-06
1.1033e-06
1.09319e-06
1.0823e-06
1.09534e-06
1.08771e-06
1.28986e-06
1.31126e-06
1.07218e-06
1.09227e-06
1.0861e-06
1.30502e-06
1.33195e-06
1.33442e-06
1.10477e-06
1.10096e-06
1.11984e-06
1.11589e-06
1.31844e-06
1.32793e-06
1.11366e-06
1.10305e-06
1.12308e-06
1.11779e-06
1.0921e-06
1.11114e-06
1.1122e-06
1.31916e-06
1.32588e-06
1.0949e-06
1.1156e-06
1.11646e-06
1.32875e-06
1.33484e-06
1.32361e-06
1.12055e-06
1.12051e-06
1.12301e-06
1.13365e-06
1.33179e-06
1.34427e-06
1.12258e-06
1.11907e-06
1.12054e-06
1.1251e-06
1.1196e-06
1.13751e-06
1.1363e-06
1.3273e-06
1.3329e-06
1.12221e-06
1.12689e-06
1.13367e-06
1.34347e-06
1.32632e-06
1.35707e-06
1.12519e-06
1.13613e-06
1.15174e-06
1.14566e-06
1.34784e-06
1.35087e-06
1.12137e-06
1.13138e-06
1.14056e-06
1.15821e-06
1.13875e-06
1.14571e-06
1.14491e-06
1.34127e-06
1.37687e-06
1.13564e-06
1.16018e-06
1.1442e-06
1.35224e-06
1.36855e-06
1.39148e-06
1.16231e-06
1.15045e-06
1.17745e-06
1.16929e-06
1.35452e-06
1.37704e-06
1.15357e-06
1.16711e-06
1.18561e-06
1.18188e-06
1.15059e-06
1.168e-06
1.17659e-06
1.38305e-06
1.38547e-06
1.15016e-06
1.17324e-06
1.17562e-06
1.38656e-06
1.39493e-06
1.38924e-06
1.18076e-06
1.17776e-06
1.18806e-06
1.1988e-06
1.38607e-06
1.40535e-06
1.19074e-06
1.18203e-06
1.19215e-06
1.18021e-06
1.18449e-06
1.20071e-06
1.19259e-06
1.38602e-06
1.36996e-06
1.18328e-06
1.17605e-06
1.19079e-06
1.39123e-06
1.38986e-06
1.3846e-06
1.18897e-06
1.20005e-06
1.19146e-06
1.1964e-06
1.40715e-06
1.3869e-06
1.1906e-06
1.18042e-06
1.19017e-06
1.19176e-06
1.19233e-06
1.19716e-06
1.19172e-06
1.37131e-06
1.3938e-06
1.1905e-06
1.19557e-06
1.19054e-06
1.38228e-06
1.38922e-06
1.41881e-06
1.19411e-06
1.19529e-06
1.21524e-06
1.19801e-06
1.38737e-06
1.39393e-06
1.19197e-06
1.20159e-06
1.21521e-06
1.22659e-06
1.19268e-06
1.19785e-06
1.2104e-06
1.40569e-06
1.43221e-06
1.192e-06
1.22631e-06
1.21369e-06
1.41756e-06
1.42583e-06
1.43037e-06
1.22242e-06
1.20426e-06
1.2339e-06
1.24206e-06
1.40422e-06
1.4475e-06
1.22364e-06
1.22875e-06
1.23346e-06
1.22767e-06
1.22095e-06
1.24322e-06
1.24045e-06
1.43413e-06
1.41916e-06
1.22408e-06
1.2277e-06
1.23832e-06
1.43893e-06
1.43166e-06
1.43306e-06
1.23549e-06
1.24689e-06
1.23949e-06
1.24576e-06
1.45166e-06
1.43674e-06
1.23411e-06
1.22761e-06
1.23767e-06
1.2324e-06
1.24204e-06
1.24725e-06
1.2428e-06
1.42017e-06
1.42677e-06
1.23876e-06
1.23417e-06
1.23966e-06
1.43381e-06
1.43745e-06
1.45075e-06
1.24256e-06
1.24309e-06
1.25231e-06
1.24239e-06
1.43685e-06
1.43308e-06
1.24003e-06
1.23632e-06
1.25425e-06
1.25496e-06
1.24324e-06
1.24152e-06
1.24612e-06
1.43315e-06
1.4534e-06
1.24079e-06
1.25606e-06
1.25023e-06
1.44459e-06
1.45425e-06
1.45614e-06
1.25359e-06
1.24426e-06
1.26004e-06
1.26611e-06
1.43855e-06
1.46514e-06
1.25838e-06
1.25979e-06
1.2638e-06
1.26523e-06
1.24878e-06
1.26436e-06
1.2619e-06
1.45748e-06
1.45804e-06
1.25532e-06
1.26371e-06
1.26326e-06
1.45673e-06
1.45858e-06
1.46274e-06
1.26415e-06
1.27171e-06
1.27306e-06
1.27487e-06
1.47e-06
1.46623e-06
1.26471e-06
1.26567e-06
1.26686e-06
1.26813e-06
1.26472e-06
1.27377e-06
1.26766e-06
1.45949e-06
1.46353e-06
1.26336e-06
1.26761e-06
1.26366e-06
1.45644e-06
1.46576e-06
1.47418e-06
1.27443e-06
1.27477e-06
1.27932e-06
1.27712e-06
1.46743e-06
1.47402e-06
1.26832e-06
1.27044e-06
1.28023e-06
1.28252e-06
1.26883e-06
1.27746e-06
1.28401e-06
1.46811e-06
1.4796e-06
1.26503e-06
1.28426e-06
1.28653e-06
1.48547e-06
1.47767e-06
1.47854e-06
1.28128e-06
1.28081e-06
1.28558e-06
1.29004e-06
1.47985e-06
1.48714e-06
1.28388e-06
1.28457e-06
1.28696e-06
1.28439e-06
1.28998e-06
1.29226e-06
1.29365e-06
1.48183e-06
1.47253e-06
1.29194e-06
1.28451e-06
1.29249e-06
1.4858e-06
1.4802e-06
1.4893e-06
1.28652e-06
1.29003e-06
1.2934e-06
1.28662e-06
1.48778e-06
1.4724e-06
1.28703e-06
1.28425e-06
1.29125e-06
1.28834e-06
1.29202e-06
1.28585e-06
1.28495e-06
1.47367e-06
1.4839e-06
1.28871e-06
1.28616e-06
1.28281e-06
1.47011e-06
1.49481e-06
1.50034e-06
1.29621e-06
1.2866e-06
1.30122e-06
1.29381e-06
1.47382e-06
1.49305e-06
1.29671e-06
1.295e-06
1.30459e-06
1.30762e-06
1.28495e-06
1.29155e-06
1.2931e-06
1.49179e-06
1.50754e-06
1.28318e-06
1.30687e-06
1.29977e-06
1.49848e-06
1.50141e-06
1.49587e-06
1.30172e-06
1.30316e-06
1.30402e-06
1.32108e-06
1.50352e-06
1.52809e-06
1.30442e-06
1.30779e-06
1.30153e-06
1.30532e-06
1.30373e-06
1.32254e-06
1.32377e-06
1.50929e-06
1.50154e-06
1.31025e-06
1.30962e-06
1.32255e-06
1.52987e-06
1.49849e-06
1.50484e-06
1.30698e-06
1.32129e-06
1.31169e-06
1.31097e-06
1.52986e-06
1.4972e-06
1.30153e-06
1.3052e-06
1.30554e-06
1.30762e-06
1.32386e-06
1.31115e-06
1.30892e-06
1.50291e-06
1.50404e-06
1.32213e-06
1.3093e-06
1.30399e-06
1.48946e-06
1.50688e-06
1.50015e-06
1.31134e-06
1.30282e-06
1.30427e-06
1.29363e-06
1.49454e-06
1.47487e-06
1.30773e-06
1.3082e-06
1.3093e-06
1.30623e-06
1.29795e-06
1.2912e-06
1.2876e-06
1.50568e-06
1.49477e-06
1.29494e-06
1.3004e-06
1.28747e-06
1.46663e-06
1.50152e-06
1.52231e-06
1.30359e-06
1.29415e-06
1.31076e-06
1.31761e-06
1.4791e-06
1.53122e-06
1.30935e-06
1.3049e-06
1.31906e-06
1.3085e-06
1.28877e-06
1.32063e-06
1.32592e-06
1.49566e-06
1.50817e-06
1.28875e-06
1.30495e-06
1.32568e-06
1.5436e-06
1.53298e-06
1.54237e-06
1.322e-06
1.32871e-06
1.33581e-06
1.33692e-06
1.54335e-06
1.54386e-06
1.32694e-06
1.31816e-06
1.33335e-06
1.33766e-06
1.3394e-06
1.33828e-06
1.34555e-06
1.52091e-06
1.55062e-06
1.33904e-06
1.34106e-06
1.34587e-06
1.55686e-06
1.54214e-06
1.49718e-06
1.33519e-06
1.33538e-06
1.31549e-06
1.31736e-06
1.54246e-06
1.50612e-06
1.33189e-06
1.33742e-06
1.30833e-06
1.3165e-06
1.34128e-06
1.31376e-06
1.30699e-06
1.55183e-06
1.50621e-06
1.34225e-06
1.31969e-06
1.30717e-06
1.48805e-06
1.49686e-06
1.50046e-06
1.30899e-06
1.31323e-06
1.30561e-06
1.31109e-06
1.50669e-06
1.5121e-06
1.30318e-06
1.30711e-06
1.30278e-06
1.30072e-06
1.30145e-06
1.30963e-06
1.30082e-06
1.50381e-06
1.49268e-06
1.30046e-06
1.30073e-06
1.29875e-06
1.49453e-06
1.51032e-06
1.54821e-06
1.30785e-06
1.31201e-06
1.33212e-06
1.32464e-06
1.51787e-06
1.53193e-06
1.30762e-06
1.30266e-06
1.33625e-06
1.33182e-06
1.30455e-06
1.32456e-06
1.32914e-06
1.49935e-06
1.5422e-06
1.30217e-06
1.32822e-06
1.32957e-06
1.5418e-06
1.55179e-06
1.52954e-06
1.33518e-06
1.32724e-06
1.33194e-06
1.3275e-06
1.5345e-06
1.52712e-06
1.33827e-06
1.33711e-06
1.33218e-06
1.33663e-06
1.33313e-06
1.32678e-06
1.33399e-06
1.54845e-06
1.54004e-06
1.33424e-06
1.33584e-06
1.33512e-06
1.53998e-06
1.52714e-06
1.4992e-06
1.32449e-06
1.32569e-06
1.3069e-06
1.3181e-06
1.52805e-06
1.52298e-06
1.32287e-06
1.3316e-06
1.30398e-06
1.31054e-06
1.33181e-06
1.32029e-06
1.32236e-06
1.53904e-06
1.51066e-06
1.3325e-06
1.31421e-06
1.32091e-06
1.52629e-06
1.50064e-06
1.52518e-06
1.30603e-06
1.3167e-06
1.31366e-06
1.31574e-06
1.52534e-06
1.52681e-06
1.3031e-06
1.30766e-06
1.31047e-06
1.30841e-06
1.32072e-06
1.31838e-06
1.31938e-06
1.51146e-06
1.51764e-06
1.3187e-06
1.31127e-06
1.31651e-06
1.52733e-06
1.53616e-06
1.55099e-06
1.32247e-06
1.31569e-06
1.33063e-06
1.31247e-06
1.52826e-06
1.51002e-06
1.3208e-06
1.31317e-06
1.33426e-06
1.32898e-06
1.31895e-06
1.31153e-06
1.31022e-06
1.5246e-06
1.54056e-06
1.31613e-06
1.32437e-06
1.31052e-06
1.5071e-06
1.55182e-06
1.514e-06
1.32979e-06
1.30917e-06
1.31009e-06
1.30196e-06
1.50989e-06
1.4988e-06
1.33393e-06
1.32908e-06
1.31624e-06
1.31728e-06
1.30314e-06
1.29672e-06
1.29068e-06
1.54225e-06
1.51565e-06
1.30589e-06
1.31143e-06
1.2967e-06
1.48744e-06
1.51256e-06
1.50089e-06
1.30354e-06
1.30193e-06
1.29923e-06
1.3125e-06
1.50234e-06
1.53236e-06
1.30667e-06
1.30807e-06
1.29522e-06
1.29564e-06
1.2906e-06
1.30688e-06
1.30484e-06
1.51437e-06
1.50074e-06
1.29659e-06
1.29831e-06
1.30782e-06
1.52741e-06
1.50617e-06
1.54401e-06
1.30102e-06
1.32197e-06
1.32481e-06
1.3399e-06
1.54429e-06
1.5757e-06
1.29564e-06
1.29591e-06
1.31499e-06
1.31514e-06
1.31767e-06
1.34232e-06
1.344e-06
1.50508e-06
1.54301e-06
1.31772e-06
1.32178e-06
1.33744e-06
1.5765e-06
1.55133e-06
1.54557e-06
1.3288e-06
1.34057e-06
1.32707e-06
1.33178e-06
1.57926e-06
1.55066e-06
1.32201e-06
1.32372e-06
1.32457e-06
1.32837e-06
1.3465e-06
1.33829e-06
1.3429e-06
1.55231e-06
1.55362e-06
1.3391e-06
1.32928e-06
1.33561e-06
1.56213e-06
1.54325e-06
1.48198e-06
1.32034e-06
1.31767e-06
1.28053e-06
1.27105e-06
1.54522e-06
1.46156e-06
1.32144e-06
1.32589e-06
1.28677e-06
1.2886e-06
1.33386e-06
1.2737e-06
1.27807e-06
1.55223e-06
1.48555e-06
1.32771e-06
1.28506e-06
1.2799e-06
1.47056e-06
1.48035e-06
1.47245e-06
1.27127e-06
1.26037e-06
1.26402e-06
1.25143e-06
1.45852e-06
1.44409e-06
1.27692e-06
1.27718e-06
1.26806e-06
1.26776e-06
1.2623e-06
1.24811e-06
1.24456e-06
1.48285e-06
1.47203e-06
1.26607e-06
1.26609e-06
1.25126e-06
1.4391e-06
1.47984e-06
1.53513e-06
1.26558e-06
1.25296e-06
1.29935e-06
1.2936e-06
1.45151e-06
1.52554e-06
1.26922e-06
1.26942e-06
1.29865e-06
1.30016e-06
1.24539e-06
1.28788e-06
1.28591e-06
1.48046e-06
1.53715e-06
1.25227e-06
1.30129e-06
1.29197e-06
1.52302e-06
1.54707e-06
1.55046e-06
1.31057e-06
1.3103e-06
1.31705e-06
1.32543e-06
1.54448e-06
1.57239e-06
1.30822e-06
1.30675e-06
1.31242e-06
1.30597e-06
1.30713e-06
1.32702e-06
1.32917e-06
1.54529e-06
1.53048e-06
1.30961e-06
1.30732e-06
1.32418e-06
1.57434e-06
1.54859e-06
1.47153e-06
1.31433e-06
1.32419e-06
1.26929e-06
1.28154e-06
1.57313e-06
1.49419e-06
1.30905e-06
1.29908e-06
1.26617e-06
1.26119e-06
1.32835e-06
1.28831e-06
1.28592e-06
1.52642e-06
1.46594e-06
1.3225e-06
1.26062e-06
1.27584e-06
1.4892e-06
1.46786e-06
1.4499e-06
1.25464e-06
1.26177e-06
1.23781e-06
1.23002e-06
1.48671e-06
1.43498e-06
1.25438e-06
1.25577e-06
1.24318e-06
1.25557e-06
1.26296e-06
1.22857e-06
1.22701e-06
1.46618e-06
1.48193e-06
1.25643e-06
1.25372e-06
1.2321e-06
1.4322e-06
1.45605e-06
1.49379e-06
1.23885e-06
1.22977e-06
1.24559e-06
1.22832e-06
1.43654e-06
1.46251e-06
1.24463e-06
1.26183e-06
1.25257e-06
1.26586e-06
1.22706e-06
1.2235e-06
1.23323e-06
1.49453e-06
1.51759e-06
1.2331e-06
1.26782e-06
1.24625e-06
1.48481e-06
1.48377e-06
1.22096e-06
1.2069e-06
1.45808e-06
1.22425e-06
1.23074e-06
7.53504e-07
7.68844e-07
7.60392e-07
1.2143e-06
1.49856e-06
1.22369e-06
1.03839e-10
2.39898e-09
1.40245e-10
2.18678e-10
5.48938e-09
3.52583e-09
2.78723e-09
9.75513e-10
5.4656e-09
3.91498e-09
1.08779e-09
3.1197e-09
5.3263e-09
1.74271e-09
1.71761e-08
7.45913e-09
1.58274e-07
5.94035e-09
2.50664e-07
1.68963e-06
3.30532e-06
8.78044e-09
1.86859e-07
7.31927e-09
3.06508e-07
1.33256e-09
1.6264e-09
1.3471e-09
1.18135e-09
1.3133e-09
1.61196e-09
1.33357e-09
4.76296e-09
7.20307e-08
2.70784e-09
3.31409e-09
4.99991e-09
5.16594e-08
2.67887e-09
1.49101e-06
3.02407e-06
4.7439e-09
2.99962e-09
6.86344e-08
3.85304e-09
5.00421e-09
2.97367e-09
4.94176e-08
1.99413e-07
2.29096e-07
4.9328e-09
1.62652e-07
1.92232e-07
1.6819e-08
4.51334e-07
1.22217e-08
6.47294e-07
7.63034e-06
1.07368e-05
1.81302e-08
5.1224e-07
1.31847e-08
6.45905e-07
1.29449e-09
1.58999e-09
1.31872e-09
1.12059e-09
1.23496e-09
1.52247e-09