/*--------------------------------*- C++ -*----------------------------------*\
| =========                 |                                                 |
| \\      /  F ield         | OpenFOAM: The Open Source CFD Toolbox           |
|  \\    /   O peration     | Version:  v2012                                 |
|   \\  /    A nd           | Website:  www.openfoam.com                      |
|    \\/     M anipulation  |                                                 |
\*---------------------------------------------------------------------------*/
FoamFile
{
    version     2.0;
    format      ascii;
    class       volScalarField;
    location    "1262.5";
    object      nut;
}
// * * * * * * * * * * * * * * * * * * * * * * * * * * * * * * * * * * * * * //

dimensions      [0 2 -1 0 0 0 0];


internalField   nonuniform List<scalar> 
171728
(
1.55663e-06
1.74079e-06
1.51841e-06
2.20876e-06
1.59095e-06
1.73732e-06
1.49066e-06
2.20682e-06
1.59444e-06
1.73112e-06
1.48309e-06
2.20509e-06
1.59492e-06
1.72763e-06
1.50378e-06
2.17958e-06
1.59317e-06
1.72708e-06
1.53614e-06
2.13051e-06
1.59109e-06
1.72186e-06
1.56842e-06
2.09176e-06
1.58742e-06
1.7086e-06
1.59657e-06
2.04177e-06
1.58386e-06
1.67929e-06
1.62442e-06
1.97611e-06
1.57895e-06
1.63329e-06
1.63713e-06
1.91101e-06
1.57844e-06
1.55898e-06
1.6147e-06
1.83462e-06
1.57613e-06
1.47353e-06
1.57305e-06
1.73875e-06
1.57745e-06
1.38415e-06
1.52728e-06
1.63782e-06
1.57476e-06
1.28702e-06
1.47024e-06
1.55135e-06
1.56777e-06
1.19133e-06
1.4073e-06
1.49169e-06
1.55621e-06
1.09865e-06
1.32993e-06
1.44942e-06
1.54062e-06
1.00719e-06
1.2477e-06
1.41057e-06
1.5271e-06
9.42643e-07
1.15493e-06
1.38231e-06
1.50059e-06
9.15404e-07
1.09914e-06
1.37919e-06
1.48238e-06
9.43577e-07
1.10992e-06
1.41519e-06
1.45722e-06
1.01977e-06
1.1743e-06
1.45171e-06
1.41633e-06
1.27488e-06
1.35634e-06
1.88806e-06
1.3763e-06
1.47803e-06
1.63519e-06
2.07338e-06
1.30977e-06
2.07896e-06
2.21649e-06
3.83245e-06
1.24295e-06
2.80196e-06
2.80946e-06
5.32231e-06
1.14604e-06
3.87406e-06
4.26134e-06
8.04821e-06
1.0751e-06
4.99018e-06
5.0177e-06
1.21292e-05
9.82382e-07
7.1501e-06
7.96535e-06
1.75441e-05
9.68099e-07
8.66355e-06
8.98723e-06
2.37887e-05
9.27191e-07
1.19315e-05
1.20623e-05
3.046e-05
1.02306e-06
1.41888e-05
1.43643e-05
3.78244e-05
1.09448e-06
1.82144e-05
1.8999e-05
4.6462e-05
1.26155e-06
2.18182e-05
2.07932e-05
5.24398e-05
1.66035e-06
2.62164e-05
2.69898e-05
5.74623e-05
1.92832e-06
3.02232e-05
3.08884e-05
6.18257e-05
2.49961e-06
3.67816e-05
3.60045e-05
7.21645e-05
3.44169e-06
4.0745e-05
4.13848e-05
7.44388e-05
4.22219e-06
4.57399e-05
4.56825e-05
8.01157e-05
5.43301e-06
5.43053e-05
5.42055e-05
8.26644e-05
7.15216e-06
5.73488e-05
5.73688e-05
8.45671e-05
8.23881e-06
6.42385e-05
6.42271e-05
9.41184e-05
1.1801e-05
7.14276e-05
7.16828e-05
9.76017e-05
1.31249e-05
7.5968e-05
7.65483e-05
9.77826e-05
1.71687e-05
8.28793e-05
7.9768e-05
0.000103241
2.07951e-05
9.02332e-05
8.98663e-05
0.000106489
2.21949e-05
9.2493e-05
9.91153e-05
0.000112222
3.07138e-05
0.000102529
9.93332e-05
0.000114749
3.36797e-05
0.000104303
0.000107584
0.000117516
3.82663e-05
0.000111013
0.000110799
0.00011947
4.5405e-05
0.000115238
0.000117976
0.000126699
5.10397e-05
0.000124316
0.000122927
0.000132194
5.724e-05
0.000124673
0.000126433
0.000131952
6.55723e-05
0.00012937
0.000128431
0.000132312
6.99479e-05
0.000133163
0.000135289
0.000136725
7.64497e-05
0.000142115
0.000142522
0.000145046
8.82391e-05
0.000143535
0.00014261
0.000145255
9.03409e-05
0.000148271
0.00014713
0.000146272
0.000104911
0.000150752
0.000152355
0.000149924
0.000108093
0.000156043
0.000153785
0.000153034
0.000106643
0.000158308
0.000161717
0.000154158
0.000121612
0.000163673
0.000164543
0.000160412
0.000132209
0.000170168
0.000165059
0.000161461
0.000132906
0.000169628
0.000168355
0.000159863
0.0001333
0.000169628
0.000176774
0.000166092
0.000146545
0.000181143
0.000178505
0.000170768
0.000154309
0.000182949
0.000178308
0.000170074
0.000156823
0.000181309
0.000184523
0.000171448
0.000162083
0.000186773
0.000187623
0.000174589
0.000168304
0.000190972
0.000188411
0.000175032
0.000172814
0.000191387
0.000193072
0.000180193
0.000178585
0.00019528
0.000194238
0.000181088
0.000183938
0.000196189
0.000195104
0.000179364
0.000190291
0.000198971
0.000202571
0.000184784
0.000194265
0.000206152
0.000204167
0.00018941
0.000198066
0.000204832
0.000203269
0.000184239
0.00020261
0.000202051
0.000203981
0.000181579
0.000207506
0.000210662
0.000208759
0.000194533
0.000215233
0.000216019
0.000215991
0.000197367
0.000216107
0.000212152
0.000212545
0.000187474
0.000215559
0.000211585
0.00020995
0.000188546
0.000223129
0.000217437
0.000218008
0.000197969
0.000227613
0.00021934
0.000221017
0.000198718
0.000226946
0.000219699
0.000218298
0.000196889
0.000228759
0.000219791
0.000218539
0.000196495
0.000237854
0.000217707
0.000222308
0.000193355
0.000237984
0.000217343
0.000221374
0.000191755
0.00023647
0.000227503
0.000221544
0.000202274
0.000243408
0.000237212
0.00022996
0.000211341
0.000248122
0.000233591
0.000230881
0.000206057
0.000241351
0.000214078
0.000220638
0.0001901
0.000237727
0.000211946
0.000218858
0.000187695
0.000246865
0.000231295
0.000230719
0.00020522
0.00025686
0.000240639
0.000233024
0.00021292
0.000250598
0.000228621
0.00022435
0.000198679
0.000243338
0.000216844
0.000225308
0.00019109
0.000252062
0.00022545
0.000235366
0.000207344
2.27888e-06
2.09172e-06
2.06379e-06
2.20716e-06
2.10055e-06
3.21067e-06
1.53794e-06
1.61133e-06
1.93497e-06
1.69685e-06
2.02856e-06
2.11513e-06
2.08622e-06
1.95587e-06
2.26925e-06
2.21229e-06
2.27864e-06
2.2285e-06
1.67623e-06
4.71658e-06
1.67686e-06
5.08147e-06
2.20197e-06
2.28144e-06
1.76578e-06
1.83405e-06
1.71946e-06
2.19955e-06
1.72691e-06
1.73871e-06
1.74553e-06
2.06976e-06
2.08416e-06
2.41519e-06
1.49547e-06
2.2481e-06
2.20698e-06
2.22714e-06
2.19188e-06
1.67574e-06
5.2037e-06
1.67777e-06
5.04956e-06
2.26644e-06
2.32862e-06
1.71462e-06
2.34665e-06
1.70568e-06
2.85294e-06
1.75019e-06
1.73195e-06
1.75436e-06
2.09412e-06
2.1991e-06
2.19965e-06
1.4818e-06
2.09634e-06
2.20606e-06
2.18958e-06
2.16178e-06
1.67844e-06
4.80457e-06
1.68376e-06
3.80823e-06
2.30054e-06
2.24294e-06
1.70353e-06
3.12999e-06
1.70119e-06
4.27193e-06
1.75408e-06
1.72784e-06
1.75186e-06
2.21798e-06
2.44264e-06
2.07251e-06
1.4969e-06
1.98584e-06
2.18336e-06
2.1587e-06
2.12859e-06
1.68621e-06
3.4377e-06
1.69531e-06
2.41416e-06
2.20171e-06
2.08636e-06
1.69981e-06
4.70163e-06
1.69434e-06
5.71825e-06
1.75017e-06
1.72767e-06
1.74071e-06
2.44665e-06
2.64934e-06
1.95776e-06
1.52641e-06
1.88795e-06
2.13464e-06
2.12488e-06
2.09215e-06
1.69711e-06
2.22983e-06
1.69743e-06
2.23102e-06
2.06364e-06
2.04389e-06
1.69142e-06
5.9042e-06
1.68164e-06
5.9989e-06
1.73533e-06
1.7246e-06
1.71088e-06
2.64097e-06
2.7108e-06
1.86386e-06
1.56224e-06
1.77546e-06
2.09503e-06
2.08841e-06
2.05786e-06
1.69207e-06
2.35273e-06
1.66679e-06
2.98327e-06
2.03705e-06
2.20043e-06
1.67697e-06
5.54214e-06
1.66524e-06
4.14593e-06
1.70026e-06
1.71174e-06
1.66367e-06
2.62048e-06
2.24063e-06
1.74323e-06
1.58894e-06
1.64985e-06
2.04609e-06
2.05392e-06
2.01826e-06
1.65591e-06
3.44428e-06
1.61651e-06
5.14222e-06
2.21369e-06
2.48815e-06
1.65875e-06
3.75136e-06
1.63053e-06
3.06317e-06
1.65132e-06
1.687e-06
1.61035e-06
2.2211e-06
2.13048e-06
1.62126e-06
1.61891e-06
1.54896e-06
1.98057e-06
2.01315e-06
1.96398e-06
1.6018e-06
5.68533e-06
1.55737e-06
6.52538e-06
2.49479e-06
2.68642e-06
1.61824e-06
3.02119e-06
1.56947e-06
3.23962e-06
1.59579e-06
1.64811e-06
1.55212e-06
2.12485e-06
2.1273e-06
1.5266e-06
1.63654e-06
1.45707e-06
1.9158e-06
1.95824e-06
1.8902e-06
1.54276e-06
6.57889e-06
1.49963e-06
5.67238e-06
2.67708e-06
2.53167e-06
1.55157e-06
3.31916e-06
1.49524e-06
3.43208e-06
1.53644e-06
1.58054e-06
1.48962e-06
2.12311e-06
2.12107e-06
1.43436e-06
1.62331e-06
1.37179e-06
1.84079e-06
1.88356e-06
1.79743e-06
1.48646e-06
4.74555e-06
1.44402e-06
2.89556e-06
2.45543e-06
1.95105e-06
1.47463e-06
3.45483e-06
1.41229e-06
3.0112e-06
1.47365e-06
1.49295e-06
1.41907e-06
2.11106e-06
2.01901e-06
1.35071e-06
1.58537e-06
1.26807e-06
1.74627e-06
1.79017e-06
1.69957e-06
1.43039e-06
2.4584e-06
1.37791e-06
1.77907e-06
1.92289e-06
1.75211e-06
1.39001e-06
2.77403e-06
1.32268e-06
2.05532e-06
1.40117e-06
1.40566e-06
1.33874e-06
2.00228e-06
1.85785e-06
1.24173e-06
1.53723e-06
1.19986e-06
1.64665e-06
1.69024e-06
1.59837e-06
1.35683e-06
1.67382e-06
1.28715e-06
1.46432e-06
1.7372e-06
1.60384e-06
1.30149e-06
1.85975e-06
1.23485e-06
1.42284e-06
1.3165e-06
1.3069e-06
1.25049e-06
1.83892e-06
1.66342e-06
1.19231e-06
1.48607e-06
1.1795e-06
1.56256e-06
1.58546e-06
1.49055e-06
1.26419e-06
1.38082e-06
1.19109e-06
1.18841e-06
1.58501e-06
1.47818e-06
1.21343e-06
1.33092e-06
1.14852e-06
1.14396e-06
1.22719e-06
1.21137e-06
1.16451e-06
1.64241e-06
1.5236e-06
1.18284e-06
1.4255e-06
1.24688e-06
1.50246e-06
1.47365e-06
1.37564e-06
1.16755e-06
1.13953e-06
1.09062e-06
1.05062e-06
1.46107e-06
1.36639e-06
1.12798e-06
1.10279e-06
1.06053e-06
1.00032e-06
1.14675e-06
1.11724e-06
1.08617e-06
1.50709e-06
1.40016e-06
1.27946e-06
1.35061e-06
1.37866e-06
1.46349e-06
1.35316e-06
1.26248e-06
1.06991e-06
1.0248e-06
1.00691e-06
9.71538e-07
1.34534e-06
1.25498e-06
1.03973e-06
9.70828e-07
9.80264e-07
8.83002e-07
1.06691e-06
1.02081e-06
1.00692e-06
1.37727e-06
1.28015e-06
1.41612e-06
1.26591e-06
1.55106e-06
1.42184e-06
1.23883e-06
1.15132e-06
9.82287e-07
9.55822e-07
9.34325e-07
9.07898e-07
1.22837e-06
1.16052e-06
9.55813e-07
8.61022e-07
9.11434e-07
8.10624e-07
9.89131e-07
9.53973e-07
9.39708e-07
1.25636e-06
1.1767e-06
1.60597e-06
1.17776e-06
1.77039e-06
1.39231e-06
1.13578e-06
1.07119e-06
9.22158e-07
8.95679e-07
8.87417e-07
8.70516e-07
1.14089e-06
1.08252e-06
9.02091e-07
8.01789e-07
8.5701e-07
7.92618e-07
9.24251e-07
9.19668e-07
9.03344e-07
1.15445e-06
1.09779e-06
1.82705e-06
1.11466e-06
2.01967e-06
1.38335e-06
1.05982e-06
1.10022e-06
8.9515e-07
8.66249e-07
9.17504e-07
8.75948e-07
1.08058e-06
1.07999e-06
8.64113e-07
7.91808e-07
8.94093e-07
8.21998e-07
8.95021e-07
9.31108e-07
9.09133e-07
1.08947e-06
1.08662e-06
2.07261e-06
1.10143e-06
2.22943e-06
1.40128e-06
1.09801e-06
1.17942e-06
9.123e-07
8.85849e-07
1.00188e-06
9.57622e-07
1.09742e-06
1.16186e-06
8.86095e-07
8.52921e-07
9.71209e-07
8.79424e-07
9.28695e-07
1.0069e-06
9.4991e-07
1.10241e-06
1.15988e-06
2.27128e-06
1.13797e-06
2.32127e-06
1.45349e-06
1.25201e-06
1.37522e-06
1.03522e-06
9.71954e-07
1.10801e-06
1.1213e-06
1.18968e-06
1.45904e-06
1.0084e-06
9.10339e-07
1.07402e-06
1.1085e-06
9.79161e-07
1.17124e-06
1.19323e-06
1.19016e-06
1.48432e-06
2.30244e-06
1.29352e-06
2.18487e-06
1.87716e-06
1.44643e-06
2.31263e-06
1.20621e-06
1.22615e-06
1.51571e-06
1.38597e-06
1.61743e-06
2.10495e-06
1.17242e-06
1.14902e-06
1.45066e-06
1.46305e-06
1.21644e-06
1.41948e-06
1.3406e-06
1.55091e-06
2.15863e-06
2.13567e-06
1.55678e-06
1.95794e-06
1.89438e-06
2.39868e-06
2.90534e-06
1.55147e-06
1.45441e-06
1.88466e-06
1.93925e-06
2.16621e-06
3.3261e-06
1.48244e-06
1.60659e-06
1.87399e-06
2.03917e-06
1.46934e-06
1.93593e-06
1.93305e-06
2.34235e-06
3.16073e-06
1.88512e-06
2.05109e-06
2.29125e-06
3.54305e-06
3.29752e-06
5.0263e-06
2.06829e-06
2.07638e-06
2.62826e-06
2.56285e-06
3.71322e-06
4.83562e-06
2.0397e-06
2.30053e-06
2.54013e-06
3.1253e-06
2.07766e-06
2.57915e-06
2.55623e-06
3.54881e-06
4.95982e-06
2.42045e-06
2.67158e-06
2.84836e-06
4.9528e-06
5.30877e-06
7.6443e-06
2.79881e-06
2.79473e-06
3.55386e-06
3.60913e-06
5.27094e-06
8.11156e-06
2.732e-06
3.45079e-06
3.51187e-06
4.94295e-06
2.76357e-06
3.60083e-06
3.50909e-06
5.3138e-06
8.24964e-06
2.9882e-06
3.81652e-06
3.54011e-06
7.45326e-06
8.29993e-06
1.14679e-05
3.87398e-06
3.879e-06
4.79113e-06
4.63669e-06
8.64838e-06
1.07932e-05
3.86329e-06
5.44577e-06
4.78424e-06
6.409e-06
3.78064e-06
4.61721e-06
4.7604e-06
9.29328e-06
1.22743e-05
3.80379e-06
4.94759e-06
4.76757e-06
1.12771e-05
1.22803e-05
1.57433e-05
5.22777e-06
5.0152e-06
6.29326e-06
6.6501e-06
1.15647e-05
1.69648e-05
5.12101e-06
6.88026e-06
6.1635e-06
9.14358e-06
5.14559e-06
6.65861e-06
6.44158e-06
1.24364e-05
1.95705e-05
5.1185e-06
7.07058e-06
6.50609e-06
1.64471e-05
1.67699e-05
2.32318e-05
6.66111e-06
7.15055e-06
8.81844e-06
8.07543e-06
1.82552e-05
2.1644e-05
6.63669e-06
9.5427e-06
8.7647e-06
9.66327e-06
6.97192e-06
8.02281e-06
8.49831e-06
2.16417e-05
2.26386e-05
7.06804e-06
8.92761e-06
8.34917e-06
2.26395e-05
2.48641e-05
3.01032e-05
9.52917e-06
8.69863e-06
1.07259e-05
1.12751e-05
2.25489e-05
3.02437e-05
9.41623e-06
9.6429e-06
1.06527e-05
1.12617e-05
9.03418e-06
1.12883e-05
1.07837e-05
2.24273e-05
2.64849e-05
8.9455e-06
1.07118e-05
1.08796e-05
2.90756e-05
3.09651e-05
3.66413e-05
1.12558e-05
1.19399e-05
1.41094e-05
1.36251e-05
3.21727e-05
3.64988e-05
1.12774e-05
1.30596e-05
1.41786e-05
1.62486e-05
1.1545e-05
1.35438e-05
1.35782e-05
2.99347e-05
3.91339e-05
1.1541e-05
1.34115e-05
1.36242e-05
3.63526e-05
3.85281e-05
4.43078e-05
1.50961e-05
1.42426e-05
1.72118e-05
1.71414e-05
3.73007e-05
4.31722e-05
1.51194e-05
1.6883e-05
1.72122e-05
1.86262e-05
1.41726e-05
1.70567e-05
1.78432e-05
3.97793e-05
4.41922e-05
1.42367e-05
1.83179e-05
1.77588e-05
4.48142e-05
4.51548e-05
4.94452e-05
1.78455e-05
1.82877e-05
2.04049e-05
2.08788e-05
4.50098e-05
5.11364e-05
1.78539e-05
1.90919e-05
2.04382e-05
2.03682e-05
1.92176e-05
2.09297e-05
2.03155e-05
4.58371e-05
4.99553e-05
1.91056e-05
1.97726e-05
2.02778e-05
5.10945e-05
5.109e-05
5.76808e-05
2.15767e-05
2.17551e-05
2.56292e-05
2.51983e-05
5.23147e-05
5.69079e-05
2.16179e-05
2.12771e-05
2.55682e-05
2.52904e-05
2.11612e-05
2.51723e-05
2.59702e-05
5.09757e-05
5.70108e-05
2.11066e-05
2.57101e-05
2.56107e-05
5.66748e-05
5.90062e-05
6.23291e-05
2.66732e-05
2.62402e-05
2.91535e-05
2.90412e-05
5.81779e-05
6.23464e-05
2.66724e-05
2.63677e-05
2.91252e-05
2.94275e-05
2.71355e-05
2.8908e-05
2.81561e-05
5.86177e-05
6.26176e-05
2.66927e-05
2.98498e-05
2.77684e-05
6.03289e-05
6.33973e-05
6.8224e-05
3.04025e-05
3.03694e-05
3.44943e-05
3.54182e-05
6.37103e-05
6.92557e-05
3.03594e-05
3.07277e-05
3.45691e-05
3.44326e-05
2.83024e-05
3.53002e-05
3.6433e-05
6.36067e-05
6.82017e-05
2.80314e-05
3.44053e-05
3.67229e-05
7.04258e-05
6.94948e-05
7.35495e-05
3.57312e-05
3.6816e-05
4.03173e-05
3.99397e-05
7.04949e-05
7.31472e-05
3.57771e-05
3.57613e-05
4.04027e-05
4.03633e-05
3.89398e-05
3.98731e-05
4.16294e-05
6.95332e-05
7.37386e-05
3.89882e-05
4.05995e-05
4.11604e-05
7.38994e-05
7.46536e-05
7.77993e-05
4.14856e-05
4.08543e-05
4.52036e-05
4.42418e-05
7.38878e-05
7.70173e-05
4.15414e-05
4.17003e-05
4.51187e-05
4.50589e-05
4.15324e-05
4.41163e-05
4.48087e-05
7.46335e-05
7.70886e-05
4.1211e-05
4.40874e-05
4.34552e-05
7.84609e-05
7.87535e-05
8.23505e-05
4.69124e-05
4.58106e-05
5.11268e-05
5.23734e-05
7.83201e-05
8.3415e-05
4.69111e-05
4.61545e-05
5.11993e-05
5.06522e-05
4.739e-05
5.2312e-05
5.22313e-05
7.80865e-05
8.28437e-05
4.73702e-05
5.20208e-05
5.55861e-05
8.24981e-05
8.33226e-05
8.64008e-05
5.24748e-05
5.4263e-05
5.70821e-05
5.67681e-05
8.43621e-05
8.61858e-05
5.23429e-05
5.29992e-05
5.71242e-05
5.80023e-05
5.25928e-05
5.65893e-05
5.29745e-05
8.40063e-05
8.65126e-05
5.63108e-05
5.72724e-05
5.58868e-05
8.34601e-05
8.73583e-05
9.06636e-05
5.88537e-05
5.75798e-05
6.22967e-05
6.25583e-05
8.68088e-05
9.03018e-05
5.90676e-05
5.82763e-05
6.22927e-05
6.23989e-05
5.33827e-05
6.22262e-05
6.4917e-05
8.7084e-05
8.96415e-05
5.58794e-05
6.10922e-05
5.66531e-05
9.22099e-05
9.15594e-05
9.49082e-05
6.3684e-05
6.44095e-05
7.06593e-05
6.98934e-05
9.15415e-05
9.51183e-05
6.35173e-05
6.46603e-05
7.05308e-05
6.96857e-05
6.86993e-05
6.9784e-05
7.45869e-05
9.09282e-05
9.54705e-05
6.14699e-05
7.01992e-05
7.56249e-05
9.74916e-05
9.57462e-05
9.79353e-05
7.24941e-05
7.15468e-05
7.38217e-05
7.53655e-05
9.58462e-05
9.79651e-05
7.25562e-05
7.09691e-05
7.40915e-05
7.59023e-05
7.48205e-05
7.52834e-05
7.41934e-05
9.62207e-05
9.84558e-05
7.73457e-05
7.56263e-05
7.75689e-05
9.73538e-05
9.86614e-05
0.000103369
7.46214e-05
7.62086e-05
8.25229e-05
8.03634e-05
9.85827e-05
0.000102323
7.4817e-05
7.77892e-05
8.2326e-05
8.06906e-05
7.4031e-05
8.01785e-05
7.98308e-05
9.90664e-05
0.000101159
7.73396e-05
7.87538e-05
7.81103e-05
0.000101651
0.000104156
0.000105669
8.45169e-05
8.30058e-05
8.77993e-05
8.95469e-05
0.000103576
0.000106988
8.42884e-05
8.13733e-05
8.76231e-05
8.72894e-05
8.36303e-05
8.95461e-05
8.75689e-05
0.000102114
0.000107151
8.18841e-05
8.65343e-05
8.68073e-05
0.000106112
0.000106081
0.000109274
8.82205e-05
9.02384e-05
9.10973e-05
9.1054e-05
0.000107377
0.000108576
8.81625e-05
9.0143e-05
9.14476e-05
9.58458e-05
8.78754e-05
9.09515e-05
9.42361e-05
0.000108225
0.000111046
8.70213e-05
9.79019e-05
9.48461e-05
0.000110818
0.000110429
0.000115079
9.35075e-05
9.25955e-05
0.000100933
0.000100769
0.000109449
0.000115134
9.38306e-05
9.64658e-05
0.000100954
9.64201e-05
9.67968e-05
0.000100661
9.97645e-05
0.000111463
0.000113292
9.79032e-05
9.95012e-05
0.000101158
0.00011456
0.000115622
0.000116707
0.000102343
0.000102694
0.000104285
0.000104003
0.00011601
0.000116863
0.000102225
9.73056e-05
0.000103677
0.000106907
0.000100181
0.000103664
0.000105024
0.000113903
0.000118786
0.000100881
0.000105126
0.000102986
0.000116676
0.000117104
0.000121357
0.000104954
0.000104241
0.00010978
0.000110123
0.000117106
0.000120805
0.000104399
0.000108837
0.000110479
0.000110206
0.00010682
0.000110129
0.000108931
0.000119637
0.000120715
0.000104516
0.000110717
0.000106474
0.000119189
0.000122438
0.000124583
0.000111768
0.000111093
0.000114935
0.000113141
0.000121591
0.000123621
0.000112608
0.000110096
0.000114781
0.000113638
0.000108944
0.000112475
0.000114104
0.000120904
0.00012451
0.000107046
0.000115034
0.000114231
0.000124809
0.000124877
0.000128264
0.000115729
0.000115617
0.000119852
0.000122926
0.000124712
0.000130611
0.000115454
0.000117052
0.000120824
0.000121221
0.000117895
0.000123271
0.000124135
0.000126051
0.000129655
0.000117865
0.000122388
0.000126394
0.000132046
0.000129202
0.000131818
0.000121447
0.000123904
0.000124925
0.000124093
0.000130984
0.000130776
0.000122541
0.000121643
0.000124669
0.00012505
0.000124266
0.000124444
0.000125568
0.00012983
0.000131115
0.000127516
0.000125447
0.000127437
0.000131893
0.000132216
0.000134861
0.000126144
0.000124642
0.000130179
0.000129047
0.000130875
0.000134174
0.000125643
0.00012639
0.000130482
0.000128503
0.000126499
0.000128848
0.0001278
0.000131718
0.000133575
0.000127122
0.000127973
0.000126064
0.000132155
0.000135376
0.000136431
0.000130873
0.000129731
0.000131508
0.000132003
0.000134556
0.000136528
0.000131583
0.000129001
0.000132156
0.000132999
0.000127792
0.000131262
0.000128501
0.000133918
0.000138038
0.000126145
0.000132861
0.000130952
0.000135471
0.000136926
0.000141859
0.000132904
0.000133882
0.000139755
0.000140535
0.000137596
0.000143266
0.000132254
0.000135184
0.000138231
0.000141108
0.000130462
0.000140484
0.000140409
0.000139236
0.000143103
0.000133622
0.000141595
0.000141892
0.000144036
0.000142547
0.000143326
0.000141506
0.000141866
0.000143469
0.000142989
0.000143721
0.000143586
0.00014005
0.000142077
0.000142358
0.000142583
0.000143328
0.000143584
0.000146829
0.000143272
0.000142871
0.000143366
0.000142769
0.000144384
0.000145316
0.00014342
0.00014806
0.000143512
0.000142928
0.000144673
0.00014588
0.0001435
0.000146962
0.000142537
0.000142482
0.000148
0.000144082
0.000146901
0.000146842
0.000146327
0.00014281
0.000146122
0.000144307
0.000144115
0.000144161
0.000145565
0.000149552
0.000151644
0.000147518
0.000147811
0.000153276
0.000151359
0.000147979
0.000149539
0.000150584
0.000146807
0.00015424
0.000151947
0.00014614
0.000150036
0.000149231
0.000147538
0.000149733
0.000146159
0.000151932
0.000150762
0.000149338
0.000151432
0.000149332
0.000153662
0.000152111
0.000153475
0.000154346
0.000149705
0.000152459
0.000154302
0.000152547
0.00015307
0.000152962
0.0001508
0.000154902
0.000155392
0.000149702
0.000150262
0.000151942
0.000152678
0.000154938
0.000152792
0.000149219
0.000153756
0.000153301
0.00015488
0.000156102
0.000157415
0.000152945
0.000154058
0.000152948
0.000153267
0.00015309
0.00015914
0.000156355
0.000157776
0.000157464
0.000151185
0.000157788
0.000155595
0.000160457
0.000157274
0.000153703
0.00015554
0.000160812
0.000159543
0.000158607
0.000164304
0.00016215
0.000154246
0.000157811
0.000156184
0.000161638
0.000166056
0.000166627
0.000158206
0.000161611
0.000163305
0.000158702
0.000160177
0.000158117
0.000164109
0.000163017
0.000159355
0.000161136
0.00016138
0.000165201
0.000163821
0.00016757
0.000168889
0.000158825
0.000163184
0.000167888
0.000167028
0.000169325
0.000166609
0.000165295
0.000169379
0.000168504
0.000160091
0.000158227
0.000164906
0.000165025
0.00016808
0.000161698
0.000161187
0.00016007
0.000167857
0.000169713
0.000167926
0.00016991
0.000163328
0.000161424
0.000169263
0.000166465
0.000168146
0.000165895
0.000168622
0.000170238
0.000168411
0.000158136
0.000160382
0.000168253
0.000166239
0.000168301
0.000160008
0.000160049
0.000165169
0.000167848
0.000169444
0.000171188
0.000169269
0.000161135
0.000161449
0.000167989
0.00016676
0.000170226
0.00017505
0.00016834
0.000169371
0.000169085
0.000161716
0.000168609
0.000168247
0.000175221
0.000169715
0.000164357
0.000166636
0.000169451
0.000173764
0.000169498
0.000178986
0.000178322
0.000162306
0.000171218
0.000173413
0.000176826
0.000179006
0.00017833
0.00017227
0.000178659
0.000180016
0.000168948
0.000167791
0.000173072
0.000178388
0.000179713
0.000170793
0.000169409
0.000169309
0.000179693
0.000180729
0.000180156
0.000182628
0.000172035
0.000171448
0.00017967
0.000178376
0.00018017
0.000178121
0.00018109
0.000183015
0.000181811
0.000167621
0.000167676
0.000180552
0.00017829
0.000181261
0.000170195
0.000169399
0.000172645
0.000180203
0.000182566
0.000182676
0.00018167
0.000171012
0.000169564
0.000180139
0.000178044
0.000182437
0.000182189
0.000181719
0.000181413
0.000181367
0.000168112
0.000173097
0.000181221
0.000182808
0.000181221
0.000170999
0.000173153
0.00017438
0.000183227
0.000181576
0.000185315
0.000184906
0.000169744
0.00017499
0.000183958
0.000184219
0.000186852
0.000187746
0.00018127
0.000184239
0.000185042
0.000173887
0.000175152
0.000182525
0.000187294
0.000186174
0.000174408
0.000174553
0.000175827
0.00018656
0.000187324
0.000189462
0.000190857
0.00017608
0.000177456
0.000187389
0.000188171
0.000188111
0.000188462
0.000186501
0.000190555
0.000188603
0.00017513
0.000175502
0.000186788
0.000187976
0.00018756
0.000175124
0.000175892
0.000177922
0.000189818
0.000191182
0.000191046
0.000191501
0.00017735
0.000177521
0.000188188
0.000188502
0.000190579
0.000191324
0.000188863
0.000191434
0.00019161
0.000175735
0.00017892
0.000187862
0.000191987
0.000191832
0.000179263
0.000178458
0.000179991
0.00019176
0.000191301
0.000194021
0.0001939
0.000177786
0.00018069
0.000192067
0.000192571
0.000194882
0.000194185
0.000193189
0.000194833
0.000195784
0.000179213
0.000179111
0.000193721
0.000194154
0.000195626
0.000181448
0.000180021
0.000181521
0.000194578
0.000194782
0.00019654
0.00019595
0.000180711
0.000180098
0.000195168
0.000194306
0.000196185
0.000194976
0.000195975
0.000196121
0.000195882
0.000178991
0.000180202
0.000195888
0.000194553
0.000195395
0.00017951
0.000182173
0.000184874
0.000197391
0.00019613
0.000200263
0.000197727
0.000179996
0.000182512
0.000197318
0.00019601
0.00020108
0.000201514
0.000195891
0.000197248
0.00019711
0.000180949
0.000186019
0.000195431
0.000201041
0.000198293
0.000183389
0.000184836
0.000184595
0.000201017
0.000199616
0.000201952
0.000205251
0.000183629
0.000189252
0.000201478
0.000202383
0.000201781
0.000203048
0.000199388
0.000205442
0.00020573
0.000186188
0.000185869
0.00020115
0.000204177
0.000205938
0.000189431
0.000184426
0.00018607
0.000202282
0.000205863
0.000204273
0.000206074
0.000189299
0.000186886
0.000201773
0.000202971
0.000201971
0.000202636
0.000206256
0.000206403
0.000205902
0.000185718
0.000185602
0.000206099
0.000203448
0.000204735
0.000185709
0.000186374
0.000187492
0.00020452
0.000204696
0.000205334
0.000202325
0.000185639
0.000182904
0.000203115
0.000202809
0.000206046
0.000205128
0.000203899
0.000202056
0.000201128
0.000185594
0.000186519
0.000202833
0.000203809
0.000200786
0.000181638
0.000187395
0.000190673
0.000205414
0.00020232
0.000206755
0.000206174
0.000182732
0.000191007
0.000206429
0.000205533
0.000210071
0.000207333
0.000201156
0.0002067
0.000207579
0.000186435
0.000188406
0.000200858
0.000205696
0.000208031
0.000192864
0.000191638
0.000194918
0.000209226
0.000209869
0.000214404
0.000215409
0.000192504
0.000196415
0.000211551
0.000209533
0.000213699
0.000214506
0.000212082
0.000215713
0.000217184
0.000189771
0.000195691
0.0002124
0.000215644
0.000217445
0.000198637
0.000194664
0.000189935
0.000214554
0.000215629
0.000213113
0.000213976
0.000195681
0.000191051
0.000213742
0.000214741
0.000211095
0.000213464
0.000217441
0.000213369
0.000212009
0.000195661
0.000191883
0.000217639
0.00021481
0.000212152
0.000188736
0.000189025
0.000189319
0.000211826
0.000212819
0.000210823
0.000211924
0.00019044
0.000191106
0.000210065
0.000211655
0.000209664
0.000209883
0.000209996
0.000211414
0.000208738
0.000190445
0.000188454
0.000209918
0.00020993
0.000208351
0.000187671
0.00019013
0.000198013
0.000211051
0.000212039
0.000217036
0.00021579
0.000191542
0.000195819
0.000210271
0.000209992
0.000218461
0.000216541
0.000209009
0.000216067
0.000216502
0.000188633
0.000196603
0.000208577
0.000215234
0.000216295
0.000197225
0.00019834
0.000197152
0.000218744
0.000217241
0.000219761
0.000218816
0.000196057
0.000196215
0.000219981
0.000218992
0.000220608
0.00022089
0.000218763
0.000219091
0.000221285
0.000197474
0.000198636
0.000218865
0.000220738
0.000221562
0.000199049
0.000195973
0.0001925
0.000219613
0.000219075
0.000216596
0.000218819
0.000196027
0.000196116
0.000219751
0.00022106
0.000215887
0.000217762
0.000221616
0.000219681
0.000221128
0.000197938
0.000194505
0.000221915
0.000218909
0.000220772
0.000197108
0.000192314
0.000196435
0.000216363
0.000218703
0.000217467
0.000218921
0.000196095
0.000196909
0.000215642
0.000217207
0.000216904
0.000217276
0.000220695
0.000219788
0.000219756
0.000194166
0.000195277
0.000220136
0.000218113
0.000219086
0.000196653
0.00019752
0.000202029
0.000219897
0.000219182
0.00022418
0.000219197
0.000196806
0.000194952
0.000219696
0.000218154
0.000225643
0.000223596
0.000219591
0.000218757
0.00021785
0.000195898
0.000199851
0.000218969
0.000222094
0.000218183
0.000194386
0.000201935
0.000198237
0.000224302
0.000218784
0.000222799
0.000219024
0.000194203
0.000193826
0.000225878
0.000224054
0.000224722
0.000223849
0.000216607
0.00021722
0.000215417
0.000199772
0.000197893
0.000217545
0.00022196
0.000217219
0.000191855
0.000197108
0.000196013
0.000221883
0.000219187
0.000221433
0.000224944
0.000194018
0.000201873
0.000222833
0.000222481
0.00022061
0.000220808
0.000215493
0.000222987
0.000221198
0.000196981
0.000196151
0.000217314
0.000221204
0.00022236
0.000200386
0.000196185
0.000203483
0.000221912
0.000228581
0.000228749
0.000235343
0.000203485
0.000210753
0.000220659
0.000220858
0.000225252
0.000225335
0.000226493
0.000236442
0.000237226
0.000196172
0.000203335
0.000226545
0.000228089
0.000235052
0.000211285
0.000204089
0.000204803
0.00023023
0.000235764
0.000230768
0.000234306
0.000210682
0.000206799
0.000227624
0.000227916
0.000229626
0.000230441
0.000238263
0.00023628
0.000237639
0.000204052
0.000205887
0.000235839
0.000231192
0.000235159
0.000208403
0.000203402
0.00019509
0.000230081
0.000230837
0.000220568
0.000216697
0.000204062
0.000190463
0.000229507
0.000230403
0.000223167
0.000224519
0.00023542
0.000217459
0.000218949
0.000204955
0.000196594
0.0002331
0.00022305
0.000219584
0.000192433
0.000193755
0.000193507
0.000218613
0.000214118
0.0002175
0.000212611
0.000188608
0.000187639
0.000221071
0.000221965
0.000219457
0.000219486
0.000214979
0.000211605
0.000211433
0.000194921
0.000193453
0.000216427
0.000218593
0.000213758
0.0001875
0.000194216
0.000205184
0.000217988
0.000213155
0.000228508
0.000226747
0.000188483
0.000203976
0.000219727
0.000219649
0.000227904
0.000227145
0.000211633
0.000224871
0.000223549
0.00019397
0.000204551
0.000213994
0.000227583
0.000225209
0.00020297
0.000206332
0.000209321
0.000232294
0.000232337
0.000236056
0.00023952
0.000206095
0.000213324
0.000231225
0.000230108
0.00023433
0.000232331
0.000230425
0.000240469
0.000240307
0.000205527
0.00020637
0.000230958
0.000233051
0.000238264
0.000213063
0.000208297
0.000197786
0.000236019
0.000239609
0.000227361
0.000232346
0.000213164
0.000202801
0.000234283
0.000232335
0.00022648
0.00022567
0.000240496
0.000235162
0.000234677
0.000204765
0.000196904
0.000238377
0.000225819
0.000231128
0.000202174
0.000195628
0.000193334
0.000223432
0.000226516
0.000219166
0.00021754
0.000199202
0.00019084
0.000223584
0.00022439
0.00022094
0.000224264
0.000228204
0.000217461
0.000217662
0.000196109
0.000199056
0.000226189
0.00022401
0.00021935
0.000191292
0.000193652
0.000206483
0.000219236
0.000217236
0.000230429
0.000224123
0.000190642
0.00020003
0.000221142
0.000225737
0.000232378
0.000235516
0.000217251
0.000221988
0.000224366
0.000200405
0.00020967
0.000219262
0.00023578
0.00022936
0.000203365
0.000209648
0.000232233
0.000227389
0.00020402
0.000232978
0.000235031
0.000243655
0.000256127
0.000247531
0.000228009
0.000212156
0.000231217
3.09923e-06
2.04847e-06
1.30155e-06
1.36451e-06
1.34734e-06
1.93012e-06
5.31395e-07
1.29944e-06
1.24382e-06
1.80132e-06
1.369e-06
2.30659e-07
2.21572e-06
5.15126e-07
2.36931e-06
1.02373e-06
1.33363e-05
9.39428e-07
1.50906e-05
1.10922e-05
1.33194e-05
1.33786e-06
1.4073e-05
1.25365e-06
1.60991e-05
1.63725e-06
1.96792e-06
1.70154e-06
1.58954e-06
1.6738e-06
2.00091e-06
1.70485e-06
1.34275e-06
3.15767e-07
1.60704e-06
1.7399e-06
1.33308e-06
4.22641e-07
1.61353e-06
1.06451e-05
1.29596e-05
1.23615e-06
1.52226e-06
2.775e-07
1.50794e-06
1.23313e-06
1.53208e-06
3.87239e-07
1.29362e-06
1.52322e-06
2.20727e-06
1.5182e-06
1.70778e-06
1.33538e-06
1.83372e-05
1.22845e-06
2.06736e-05
1.75844e-05
1.97177e-05
1.52111e-06
1.92012e-05
1.45738e-06
2.06773e-05
1.67794e-06
1.99609e-06
1.70044e-06
1.59393e-06