/*--------------------------------*- C++ -*----------------------------------*\
| =========                 |                                                 |
| \\      /  F ield         | OpenFOAM: The Open Source CFD Toolbox           |
|  \\    /   O peration     | Version:  v2012                                 |
|   \\  /    A nd           | Website:  www.openfoam.com                      |
|    \\/     M anipulation  |                                                 |
\*---------------------------------------------------------------------------*/
FoamFile
{
    version     2.0;
    format      ascii;
    class       volScalarField;
    location    "1750";
    object      k;
}
// * * * * * * * * * * * * * * * * * * * * * * * * * * * * * * * * * * * * * //

dimensions      [0 2 -2 0 0 0 0];


internalField   nonuniform List<scalar> 
171728
(
1.63368e-07
2.55002e-07
3.43731e-07
3.64658e-07
1.62743e-07
2.43166e-07
3.27005e-07
3.4074e-07
1.58765e-07
2.32027e-07
3.09197e-07
3.18225e-07
1.54845e-07
2.22022e-07
2.93643e-07
2.98525e-07
1.51106e-07
2.12637e-07
2.78201e-07
2.81085e-07
1.47546e-07
2.04039e-07
2.64269e-07
2.65887e-07
1.43702e-07
1.96559e-07
2.53508e-07
2.52863e-07
1.407e-07
1.90064e-07
2.44803e-07
2.41656e-07
1.37143e-07
1.83758e-07
2.36051e-07
2.31526e-07
1.3536e-07
1.78009e-07
2.27718e-07
2.22028e-07
1.34481e-07
1.73081e-07
2.20337e-07
2.13365e-07
1.33173e-07
1.69119e-07
2.14206e-07
2.05986e-07
1.32305e-07
1.66313e-07
2.1013e-07
1.99481e-07
1.32162e-07
1.65053e-07
2.07892e-07
1.9444e-07
1.31802e-07
1.65956e-07
2.07489e-07
1.92502e-07
1.31885e-07
1.70032e-07
2.10042e-07
1.93302e-07
1.31663e-07
1.78977e-07
2.181e-07
2.009e-07
1.31835e-07
1.97245e-07
2.33597e-07
2.16071e-07
1.32742e-07
2.31921e-07
2.62795e-07
2.48383e-07
1.33388e-07
2.80107e-07
3.19017e-07
3.22873e-07
1.40131e-07
3.39188e-07
3.87033e-07
4.79636e-07
1.59614e-07
4.73443e-07
4.81718e-07
6.65788e-07
1.68776e-07
6.27268e-07
7.0623e-07
1.02568e-06
1.56729e-07
8.7455e-07
8.7044e-07
1.69882e-06
1.23761e-07
1.17151e-06
1.21619e-06
2.52417e-06
1.131e-07
1.67785e-06
1.63171e-06
3.96213e-06
1.13445e-07
2.09212e-06
2.17067e-06
5.43763e-06
1.21939e-07
2.69948e-06
2.76417e-06
7.65082e-06
1.33181e-07
3.5193e-06
3.52852e-06
9.81749e-06
1.56205e-07
4.39389e-06
4.41742e-06
1.29444e-05
2.00013e-07
5.35813e-06
5.41529e-06
1.48556e-05
2.26305e-07
6.46053e-06
6.41784e-06
1.70333e-05
3.20882e-07
7.72317e-06
7.88273e-06
2.03237e-05
3.97514e-07
9.43147e-06
9.02514e-06
2.07856e-05
4.71833e-07
9.79794e-06
1.04069e-05
2.38699e-05
6.8827e-07
1.2894e-05
1.24918e-05
2.51162e-05
8.26787e-07
1.3611e-05
1.36567e-05
2.61047e-05
1.15673e-06
1.50746e-05
1.55827e-05
2.84772e-05
1.3661e-06
1.76887e-05
1.76365e-05
2.93758e-05
1.86892e-06
1.8345e-05
1.82859e-05
3.02861e-05
2.12422e-06
2.13402e-05
2.13509e-05
3.13589e-05
2.83835e-06
2.19598e-05
2.22269e-05
3.31109e-05
3.48849e-06
2.51302e-05
2.49839e-05
3.42786e-05
3.99633e-06
2.59996e-05
2.57293e-05
3.50649e-05
5.09139e-06
2.80028e-05
2.84942e-05
3.57489e-05
5.57288e-06
2.98509e-05
2.94489e-05
3.76492e-05
7.30061e-06
3.11371e-05
3.13016e-05
3.80801e-05
7.77297e-06
3.22026e-05
3.26773e-05
3.89217e-05
9.23326e-06
3.48493e-05
3.44658e-05
4.08495e-05
1.15507e-05
3.55122e-05
3.53907e-05
4.09164e-05
1.17203e-05
3.64701e-05
3.65979e-05
4.25541e-05
1.36268e-05
3.8375e-05
3.86166e-05
4.35802e-05
1.47619e-05
3.91157e-05
3.89093e-05
4.31168e-05
1.69866e-05
4.04261e-05
4.07712e-05
4.53675e-05
1.79175e-05
4.09138e-05
4.12441e-05
4.59096e-05
2.0041e-05
4.30034e-05
4.27313e-05
4.61977e-05
2.13276e-05
4.32314e-05
4.32263e-05
4.72309e-05
2.30499e-05
4.45982e-05
4.46654e-05
4.7743e-05
2.43061e-05
4.49778e-05
4.51781e-05
4.81859e-05
2.58478e-05
4.62468e-05
4.62551e-05
4.96569e-05
2.75101e-05
4.72121e-05
4.6738e-05
4.98106e-05
2.83488e-05
4.78026e-05
4.78847e-05
5.04733e-05
3.00592e-05
4.86666e-05
4.89097e-05
5.12685e-05
3.11743e-05
4.85359e-05
4.88783e-05
5.07319e-05
3.1766e-05
5.02598e-05
4.96419e-05
5.30967e-05
3.3804e-05
5.13953e-05
5.14059e-05
5.35438e-05
3.46328e-05
5.07513e-05
5.11265e-05
5.19771e-05
3.53856e-05
5.07397e-05
5.10019e-05
5.32075e-05
3.59615e-05
5.30933e-05
5.28182e-05
5.54768e-05
3.78345e-05
5.32992e-05
5.31749e-05
5.42152e-05
3.88688e-05
5.29044e-05
5.27649e-05
5.37728e-05
3.90295e-05
5.34863e-05
5.35946e-05
5.59948e-05
3.99686e-05
5.45152e-05
5.49043e-05
5.61998e-05
4.12478e-05
5.46349e-05
5.45617e-05
5.53927e-05
4.14878e-05
5.45026e-05
5.44489e-05
5.62168e-05
4.22757e-05
5.57753e-05
5.51363e-05
5.70836e-05
4.30386e-05
5.55019e-05
5.56306e-05
5.6767e-05
4.35426e-05
5.55231e-05
5.67615e-05
5.65448e-05
4.45477e-05
5.68817e-05
5.62092e-05
5.76139e-05
4.44107e-05
5.60578e-05
5.50086e-05
5.72179e-05
4.41753e-05
5.53056e-05
5.65313e-05
5.7106e-05
4.55318e-05
5.70455e-05
5.78676e-05
5.76385e-05
4.69575e-05
5.8417e-05
5.76938e-05
5.87484e-05
4.65138e-05
5.69704e-05
5.64273e-05
5.85482e-05
4.52081e-05
5.5801e-05
5.59435e-05
5.68245e-05
4.53483e-05
5.70059e-05
5.72352e-05
5.85982e-05
4.74396e-05
5.79594e-05
5.79584e-05
5.86383e-05
4.76488e-05
5.70587e-05
5.69993e-05
5.63453e-05
4.65115e-05
5.71965e-05
5.72321e-05
6.07209e-05
4.67204e-05
5.76151e-05
5.77358e-05
5.96755e-05
4.68099e-05
5.57665e-05
5.59302e-05
5.42936e-05
4.59681e-05
5.53045e-05
5.50608e-05
5.56075e-05
4.65885e-05
5.80377e-05
5.78309e-05
6.14251e-05
4.82454e-05
5.91817e-05
5.94557e-05
6.29014e-05
4.73935e-05
5.54378e-05
5.56179e-05
5.57334e-05
3.6406e-07
3.37335e-07
2.96985e-07
3.51169e-07
2.94014e-07
3.40126e-07
1.60696e-07
1.46084e-07
1.6465e-07
1.50017e-07
2.83163e-07
2.9123e-07
3.59281e-07
3.43639e-07
2.97911e-07
3.65567e-07
3.63014e-07
3.41875e-07
3.22317e-07
2.52009e-07
3.07365e-07
2.44326e-07
3.5024e-07
3.29301e-07
2.56499e-07
3.33814e-07
2.47949e-07
3.22339e-07
2.57309e-07
2.46199e-07
2.48283e-07
3.58248e-07
3.41408e-07
2.48131e-07
3.31603e-07
2.39879e-07
3.41995e-07
3.40572e-07
3.20468e-07
3.02442e-07
2.41214e-07
2.88707e-07
2.32389e-07
3.28111e-07
3.0847e-07
2.4497e-07
3.18098e-07
2.36507e-07
3.06226e-07
2.45243e-07
2.34656e-07
2.36476e-07
3.40096e-07
3.24706e-07
2.36721e-07
3.13507e-07
2.28066e-07
3.19348e-07
3.19286e-07
3.01724e-07
2.84574e-07
2.29573e-07
2.72955e-07
2.21667e-07
3.07431e-07
2.90562e-07
2.33855e-07
3.0246e-07
2.26244e-07
2.91243e-07
2.33724e-07
2.24484e-07
2.25629e-07
3.23534e-07
3.10184e-07
2.25325e-07
2.97397e-07
2.17116e-07
2.99527e-07
3.00681e-07
2.85437e-07
2.6931e-07
2.19075e-07
2.58309e-07
2.11313e-07
2.89669e-07
2.74765e-07
2.23785e-07
2.87456e-07
2.16958e-07
2.75909e-07
2.2303e-07
2.14828e-07
2.15366e-07
3.09095e-07
2.96611e-07
2.14323e-07
2.82016e-07
2.07001e-07
2.8194e-07
2.84546e-07
2.71346e-07
2.54754e-07
2.08801e-07
2.44807e-07
2.01536e-07
2.73976e-07
2.60378e-07
2.14903e-07
2.72066e-07
2.09148e-07
2.61282e-07
2.1294e-07
2.06071e-07
2.05963e-07
2.9557e-07
2.82857e-07
2.04908e-07
2.67498e-07
1.99686e-07
2.66571e-07
2.70593e-07
2.58527e-07
2.41577e-07
1.99249e-07
2.32279e-07
1.93134e-07
2.59679e-07
2.47185e-07
2.07351e-07
2.57918e-07
2.02073e-07
2.48617e-07
2.0384e-07
1.98296e-07
1.97971e-07
2.81825e-07
2.69029e-07
1.98108e-07
2.55818e-07
1.93709e-07
2.53347e-07
2.57863e-07
2.46205e-07
2.29284e-07
1.91261e-07
2.19877e-07
1.85937e-07
2.46612e-07
2.35504e-07
2.00335e-07
2.45913e-07
1.95049e-07
2.38161e-07
1.96118e-07
1.91611e-07
1.9104e-07
2.68127e-07
2.56737e-07
1.92386e-07
2.47007e-07
1.89291e-07
2.41991e-07
2.45664e-07
2.34645e-07
2.16723e-07
1.84225e-07
2.08115e-07
1.79391e-07
2.35075e-07
2.25233e-07
1.93255e-07
2.35565e-07
1.87957e-07
2.27624e-07
1.8946e-07
1.8529e-07
1.84916e-07
2.56013e-07
2.4594e-07
1.8833e-07
2.38218e-07
1.85778e-07
2.31765e-07
2.34245e-07
2.23716e-07
2.05555e-07
1.77887e-07
1.98257e-07
1.74047e-07
2.2497e-07
2.15877e-07
1.86277e-07
2.24983e-07
1.81578e-07
2.17942e-07
1.83588e-07
1.7937e-07
1.79945e-07
2.4531e-07
2.35905e-07
1.85153e-07
2.29691e-07
1.83654e-07
2.22188e-07
2.23382e-07
2.13368e-07
1.95978e-07
1.73049e-07
1.89584e-07
1.70452e-07
2.15686e-07
2.06752e-07
1.8027e-07
2.15813e-07
1.76359e-07
2.10145e-07
1.788e-07
1.74155e-07
1.75998e-07
2.35351e-07
2.26858e-07
1.83404e-07
2.22123e-07
1.83457e-07
2.1343e-07
2.13082e-07
2.03684e-07
1.87545e-07
1.69574e-07
1.81884e-07
1.66649e-07
2.06638e-07
1.98516e-07
1.75021e-07
2.0874e-07
1.71675e-07
2.04545e-07
1.75212e-07
1.69946e-07
1.72432e-07
2.26406e-07
2.18618e-07
1.83453e-07
2.15556e-07
1.83572e-07
2.0601e-07
2.03492e-07
1.95303e-07
1.80401e-07
1.65594e-07
1.77156e-07
1.6283e-07
1.98487e-07
1.91296e-07
1.70824e-07
2.02818e-07
1.68482e-07
1.99193e-07
1.71591e-07
1.66794e-07
1.69784e-07
2.18284e-07
2.11634e-07
1.83828e-07
2.10988e-07
1.84274e-07
1.99423e-07
1.95316e-07
1.892e-07
1.76653e-07
1.6226e-07
1.76742e-07
1.61889e-07
1.91409e-07
1.86113e-07
1.67936e-07
1.99106e-07
1.66621e-07
1.99698e-07
1.69019e-07
1.65214e-07
1.66859e-07
2.11544e-07
2.07484e-07
1.84194e-07
2.08348e-07
1.84206e-07
1.94093e-07
1.89452e-07
1.85601e-07
1.77089e-07
1.62013e-07
1.7931e-07
1.6321e-07
1.86443e-07
1.83036e-07
1.66297e-07
2.00488e-07
1.66447e-07
2.06187e-07
1.66665e-07
1.65549e-07
1.67363e-07
2.07738e-07
2.06539e-07
1.84468e-07
2.07381e-07
1.86064e-07
1.9174e-07
1.86231e-07
1.84945e-07
1.80461e-07
1.6402e-07
1.84709e-07
1.67791e-07
1.83919e-07
1.84326e-07
1.66871e-07
2.08981e-07
1.69261e-07
2.20226e-07
1.68113e-07
1.69163e-07
1.71126e-07
2.07378e-07
2.08785e-07
1.86813e-07
2.08878e-07
1.89587e-07
1.91673e-07
1.86357e-07
1.89822e-07
1.86429e-07
1.69142e-07
1.91995e-07
1.75721e-07
1.85653e-07
1.89163e-07
1.70931e-07
2.25452e-07
1.7684e-07
2.43583e-07
1.7282e-07
1.76804e-07
1.79528e-07
2.10699e-07
2.16733e-07
1.91229e-07
2.15104e-07
1.97782e-07
1.97492e-07
1.9299e-07
2.0704e-07
1.93728e-07
1.78267e-07
2.18365e-07
1.9414e-07
1.92635e-07
2.05534e-07
1.80178e-07
2.50879e-07
1.91979e-07
2.77214e-07
1.82976e-07
1.93494e-07
1.92858e-07
2.20816e-07
2.34367e-07
2.01093e-07
2.28467e-07
2.11812e-07
2.09576e-07
2.13558e-07
2.4605e-07
2.34462e-07
1.98089e-07
2.71303e-07
2.20295e-07
2.1215e-07
2.31868e-07
1.97751e-07
2.87788e-07
2.19458e-07
3.28847e-07
2.00079e-07
2.19836e-07
2.17262e-07
2.41872e-07
2.7041e-07
2.19031e-07
2.55248e-07
2.35897e-07
2.41145e-07
2.56409e-07
3.31327e-07
2.92706e-07
2.33176e-07
3.63005e-07
2.58245e-07
2.5222e-07
2.85801e-07
2.29094e-07
3.43962e-07
2.64903e-07
3.91025e-07
2.25869e-07
2.58126e-07
2.64769e-07
2.84456e-07
3.28698e-07
2.44088e-07
2.99162e-07
2.83125e-07
3.08677e-07
3.47551e-07
5.0059e-07
4.03384e-07
2.79982e-07
5.83243e-07
3.21967e-07
3.04145e-07
4.01329e-07
2.78743e-07
4.16849e-07
3.32565e-07
4.55538e-07
2.71423e-07
3.21163e-07
3.36639e-07
3.57984e-07
4.3434e-07
2.89279e-07
3.55295e-07
3.49665e-07
4.14306e-07
5.49269e-07
7.82633e-07
6.34862e-07
3.41207e-07
8.83458e-07
4.4473e-07
4.17835e-07
6.65638e-07
3.59449e-07
4.73914e-07
4.5788e-07
5.46896e-07
3.61105e-07
4.44797e-07
4.384e-07
4.54286e-07
6.73248e-07
3.76605e-07
4.68829e-07
4.51649e-07
6.15352e-07
8.59271e-07
1.18679e-06
9.24757e-07
4.706e-07
1.15762e-06
5.93773e-07
7.34271e-07
9.25619e-07
4.71077e-07
5.53216e-07
6.24312e-07
6.79755e-07
4.64421e-07
5.86378e-07
5.79114e-07
6.95235e-07
1.11875e-06
4.78213e-07
6.58593e-07
5.857e-07
9.15518e-07
1.40155e-06
1.76754e-06
1.29121e-06
6.36544e-07
1.42911e-06
7.68216e-07
1.01672e-06
1.45155e-06
6.98645e-07
7.34742e-07
7.88101e-07
7.92846e-07
6.37523e-07
7.69344e-07
8.10124e-07
1.2882e-06
1.36981e-06
6.47127e-07
7.86331e-07
8.29336e-07
1.57657e-06
1.8034e-06
2.51955e-06
1.43827e-06
8.74294e-07
1.56317e-06
1.15383e-06
1.61539e-06
2.67487e-06
8.55671e-07
8.42163e-07
1.13359e-06
1.11292e-06
8.64412e-07
1.14562e-06
1.08784e-06
1.42875e-06
2.57177e-06
8.9551e-07
1.12949e-06
1.09273e-06
2.31653e-06
2.67988e-06
3.49172e-06
1.61556e-06
1.18042e-06
1.82111e-06
1.51445e-06
2.77616e-06
3.22567e-06
1.17927e-06
1.20027e-06
1.43075e-06
1.55032e-06
1.18636e-06
1.51265e-06
1.50069e-06
2.78281e-06
3.68194e-06
1.19613e-06
1.56098e-06
1.51205e-06
3.65506e-06
3.78686e-06
5.53461e-06
2.00475e-06
1.6815e-06
2.29968e-06
1.91575e-06
3.8461e-06
5.16834e-06
1.59214e-06
1.60648e-06
1.97928e-06
1.96549e-06
1.62309e-06
1.89149e-06
1.94698e-06
4.01049e-06
4.83256e-06
1.64578e-06
1.98829e-06
1.95894e-06
5.11416e-06
5.77098e-06
7.26601e-06
2.37045e-06
2.13371e-06
2.82684e-06
2.65059e-06
5.24128e-06
7.84147e-06
2.09418e-06
2.15312e-06
2.65694e-06
2.57545e-06
2.0914e-06
2.64491e-06
2.65361e-06
5.21525e-06
7.50267e-06
2.08528e-06
2.60678e-06
2.70323e-06
7.24956e-06
7.77955e-06
9.45091e-06
2.93799e-06
2.70527e-06
3.25818e-06
3.2739e-06
8.0859e-06
8.78331e-06
2.8202e-06
2.73506e-06
3.18788e-06
3.31582e-06
2.75039e-06
3.26621e-06
3.27273e-06
7.77131e-06
9.37168e-06
2.80223e-06
3.34426e-06
3.31687e-06
9.46923e-06
9.92744e-06
1.17842e-05
3.50601e-06
3.52598e-06
4.26459e-06
4.25792e-06
9.7502e-06
1.21861e-05
3.44565e-06
3.50707e-06
4.23237e-06
4.13544e-06
3.58643e-06
4.21691e-06
4.16464e-06
9.98114e-06
1.19471e-05
3.62659e-06
4.15819e-06
4.11498e-06
1.23001e-05
1.24754e-05
1.42451e-05
4.37198e-06
4.40677e-06
5.20424e-06
4.99864e-06
1.23892e-05
1.45134e-05
4.33744e-06
4.39414e-06
5.16257e-06
5.20589e-06
4.26866e-06
4.99001e-06
5.3245e-06
1.24901e-05
1.44995e-05
4.32072e-06
5.20264e-06
5.35891e-06
1.41842e-05
1.46659e-05
1.70589e-05
5.62656e-06
5.40214e-06
6.19345e-06
6.38021e-06
1.49819e-05
1.69218e-05
5.56941e-06
5.4122e-06
6.09427e-06
6.03046e-06
5.63324e-06
6.33725e-06
5.98436e-06
1.49684e-05
1.65195e-05
5.59515e-06
6.06251e-06
5.99223e-06
1.67572e-05
1.73051e-05
1.89799e-05
6.29454e-06
6.48764e-06
7.71584e-06
7.04035e-06
1.74304e-05
1.87073e-05
6.23338e-06
6.40177e-06
7.67289e-06
7.69427e-06
6.20934e-06
7.08935e-06
7.8803e-06
1.70027e-05
1.93089e-05
6.40641e-06
7.66901e-06
8.06972e-06
1.96805e-05
1.97956e-05
2.13004e-05
8.07462e-06
7.72103e-06
8.79043e-06
9.31228e-06
1.93395e-05
2.16078e-05
7.90977e-06
7.90165e-06
8.78629e-06
8.53221e-06
8.14526e-06
9.26623e-06
8.40017e-06
1.9796e-05
2.09361e-05
8.34e-06
8.52253e-06
8.54171e-06
2.06313e-05
2.15251e-05
2.26841e-05
9.18065e-06
9.47347e-06
9.8747e-06
9.65365e-06
2.1882e-05
2.22193e-05
9.12555e-06
9.04894e-06
9.90947e-06
1.03101e-05
8.59636e-06
9.61027e-06
1.02699e-05
2.13342e-05
2.27983e-05
8.60587e-06
1.0255e-05
1.02955e-05
2.30583e-05
2.32243e-05
2.47925e-05
1.02895e-05
9.8541e-06
1.20733e-05
1.22936e-05
2.25481e-05
2.53643e-05
1.03986e-05
1.04565e-05
1.18462e-05
1.18123e-05
1.0625e-05
1.22078e-05
1.19665e-05
2.32491e-05
2.48454e-05
1.09143e-05
1.17991e-05
1.20341e-05
2.49574e-05
2.51238e-05
2.60157e-05
1.23759e-05
1.2886e-05
1.31409e-05
1.34082e-05
2.58665e-05
2.60897e-05
1.22182e-05
1.24916e-05
1.31666e-05
1.35126e-05
1.24428e-05
1.35841e-05
1.31002e-05
2.52188e-05
2.61831e-05
1.24804e-05
1.35714e-05
1.33097e-05
2.56413e-05
2.63528e-05
2.76637e-05
1.35433e-05
1.34499e-05
1.51908e-05
1.44845e-05
2.61981e-05
2.72148e-05
1.3521e-05
1.36093e-05
1.51122e-05
1.48183e-05
1.32374e-05
1.40916e-05
1.51978e-05
2.64343e-05
2.74717e-05
1.3429e-05
1.46531e-05
1.5006e-05
2.80825e-05
2.80609e-05
2.89255e-05
1.58067e-05
1.55172e-05
1.66588e-05
1.72701e-05
2.78201e-05
2.92584e-05
1.56845e-05
1.56863e-05
1.66171e-05
1.73853e-05
1.61071e-05
1.74729e-05
1.74644e-05
2.7994e-05
2.92443e-05
1.60603e-05
1.74324e-05
1.8072e-05
2.91723e-05
2.91944e-05
3.02011e-05
1.69184e-05
1.74095e-05
1.88422e-05
1.7912e-05
2.94236e-05
2.98194e-05
1.70009e-05
1.75272e-05
1.86665e-05
1.80504e-05
1.75751e-05
1.79836e-05
1.78937e-05
2.9408e-05
2.9781e-05
1.82906e-05
1.79537e-05
1.84937e-05
3.00446e-05
3.05327e-05
3.12304e-05
1.93923e-05
1.86202e-05
2.00204e-05
2.09951e-05
3.0168e-05
3.16918e-05
1.90951e-05
1.85875e-05
2.02189e-05
2.07828e-05
1.84168e-05
2.08664e-05
2.06895e-05
3.00909e-05
3.1619e-05
1.86586e-05
2.07128e-05
2.00413e-05
3.1114e-05
3.14691e-05
3.27226e-05
2.03452e-05
2.13624e-05
2.26283e-05
2.16985e-05
3.1916e-05
3.22264e-05
2.05864e-05
2.13078e-05
2.21251e-05
2.18885e-05
2.09255e-05
2.17724e-05
2.20383e-05
3.1934e-05
3.24612e-05
2.03107e-05
2.20185e-05
2.21899e-05
3.26963e-05
3.30577e-05
3.36985e-05
2.29518e-05
2.18986e-05
2.39888e-05
2.44485e-05
3.24543e-05
3.40634e-05
2.28008e-05
2.21939e-05
2.41924e-05
2.45034e-05
2.26982e-05
2.43831e-05
2.44358e-05
3.26788e-05
3.39368e-05
2.28694e-05
2.43965e-05
2.47989e-05
3.40507e-05
3.39149e-05
3.48322e-05
2.46342e-05
2.51768e-05
2.564e-05
2.59403e-05
3.43837e-05
3.47029e-05
2.43401e-05
2.50692e-05
2.56258e-05
2.56245e-05
2.49608e-05
2.59442e-05
2.56948e-05
3.42438e-05
3.46654e-05
2.54706e-05
2.55846e-05
2.66165e-05
3.4929e-05
3.50942e-05
3.58887e-05
2.59903e-05
2.5994e-05
2.77467e-05
2.69867e-05
3.48228e-05
3.5877e-05
2.63433e-05
2.57551e-05
2.75727e-05
2.77769e-05
2.5836e-05
2.69367e-05
2.72408e-05
3.48392e-05
3.61709e-05
2.66847e-05
2.77574e-05
2.67193e-05
3.54406e-05
3.61063e-05
3.68919e-05
2.81289e-05
2.80575e-05
2.87622e-05
2.97011e-05
3.63519e-05
3.72261e-05
2.76911e-05
2.8544e-05
2.89385e-05
2.94743e-05
2.78752e-05
2.97297e-05
2.95572e-05
3.6544e-05
3.70301e-05
2.68559e-05
2.93869e-05
2.92513e-05
3.7393e-05
3.72115e-05
3.83243e-05
2.93157e-05
2.98117e-05
3.13315e-05
3.04838e-05
3.73121e-05
3.78092e-05
2.96874e-05
2.95376e-05
3.12512e-05
3.04808e-05
3.00596e-05
3.04965e-05
3.09339e-05
3.71245e-05
3.78893e-05
3.00222e-05
3.03932e-05
3.12096e-05
3.79978e-05
3.8446e-05
3.85536e-05
3.16886e-05
3.1186e-05
3.19599e-05
3.20845e-05
3.81682e-05
3.89452e-05
3.14208e-05
3.13613e-05
3.16311e-05
3.25692e-05
3.10143e-05
3.1923e-05
3.14154e-05
3.83249e-05
3.92397e-05
3.13052e-05
3.25769e-05
3.1558e-05
3.85879e-05
3.87049e-05
4.05396e-05
3.20385e-05
3.22531e-05
3.39085e-05
3.41046e-05
3.90925e-05
4.04867e-05
3.18528e-05
3.26577e-05
3.42361e-05
3.38398e-05
3.20208e-05
3.42544e-05
3.44602e-05
3.93485e-05
4.0203e-05
3.19293e-05
3.39233e-05
3.43885e-05
4.06377e-05
4.09878e-05
4.14805e-05
3.48193e-05
3.47545e-05
3.60408e-05
3.5563e-05
4.08178e-05
4.11376e-05
3.49417e-05
3.44746e-05
3.56932e-05
3.54199e-05
3.49352e-05
3.54913e-05
3.53079e-05
4.05577e-05
4.10207e-05
3.48759e-05
3.52302e-05
3.52632e-05
4.08824e-05
4.14902e-05
4.1468e-05
3.60827e-05
3.55975e-05
3.60996e-05
3.58743e-05
4.11676e-05
4.16105e-05
3.57003e-05
3.5544e-05
3.57901e-05
3.60293e-05
3.53246e-05
3.58019e-05
3.60219e-05
4.11042e-05
4.18188e-05
3.52895e-05
3.61379e-05
3.61453e-05
4.20612e-05
4.17538e-05
4.32409e-05
3.62138e-05
3.64852e-05
3.79225e-05
3.81284e-05
4.20134e-05
4.3243e-05
3.61573e-05
3.64648e-05
3.81773e-05
3.83137e-05
3.70102e-05
3.8222e-05
3.85915e-05
4.20874e-05
4.33526e-05
3.6994e-05
3.8282e-05
3.85023e-05
4.35561e-05
4.3363e-05
4.35446e-05
3.81747e-05
3.82739e-05
3.8669e-05
3.86146e-05
4.33199e-05
4.36017e-05
3.84143e-05
3.87062e-05
3.8674e-05
3.9022e-05
3.86536e-05
3.86786e-05
3.85393e-05
4.35967e-05
4.37194e-05
3.8604e-05
3.88635e-05
3.85581e-05
4.30949e-05
4.37586e-05
4.49476e-05
3.91696e-05
3.91212e-05
4.05027e-05
4.04372e-05
4.38976e-05
4.48662e-05
3.89567e-05
3.90878e-05
4.03802e-05
4.03359e-05
3.85383e-05
4.03036e-05
3.9817e-05
4.37476e-05
4.49444e-05
3.85578e-05
4.02573e-05
3.97456e-05
4.48456e-05
4.50451e-05
4.50503e-05
4.06575e-05
4.05565e-05
4.0795e-05
4.06773e-05
4.49087e-05
4.48728e-05
4.05747e-05
4.06596e-05
4.07909e-05
4.08824e-05
4.07559e-05
4.06244e-05
4.17764e-05
4.51959e-05
4.52064e-05
4.07134e-05
4.12139e-05
4.18112e-05
4.59066e-05
4.52063e-05
4.66555e-05
4.09495e-05
4.08407e-05
4.25944e-05
4.26491e-05
4.51155e-05
4.6793e-05
4.10293e-05
4.09472e-05
4.25439e-05
4.25479e-05
4.17999e-05
4.27129e-05
4.19007e-05
4.52306e-05
4.66147e-05
4.18358e-05
4.22173e-05
4.18876e-05
4.5953e-05
4.67697e-05
4.66817e-05
4.2889e-05
4.29889e-05
4.30994e-05
4.32302e-05
4.69289e-05
4.68262e-05
4.2776e-05
4.30593e-05
4.29776e-05
4.34613e-05
4.21873e-05
4.32019e-05
4.32219e-05
4.69104e-05
4.69391e-05
4.20776e-05
4.31948e-05
4.32167e-05
4.70907e-05
4.67649e-05
4.80252e-05
4.31658e-05
4.32668e-05
4.43492e-05
4.42198e-05
4.68628e-05
4.79089e-05
4.31283e-05
4.34703e-05
4.44584e-05
4.40487e-05
4.34804e-05
4.41896e-05
4.41732e-05
4.69508e-05
4.78045e-05
4.35059e-05
4.41698e-05
4.4236e-05
4.76698e-05
4.81314e-05
4.80396e-05
4.4642e-05
4.45731e-05
4.48683e-05
4.48572e-05
4.80861e-05
4.80444e-05
4.46623e-05
4.45321e-05
4.48011e-05
4.49961e-05
4.43073e-05
4.49549e-05
4.46799e-05
4.81265e-05
4.83772e-05
4.43589e-05
4.51478e-05
4.46258e-05
4.7984e-05
4.81219e-05
4.94503e-05
4.4941e-05
4.48974e-05
4.61386e-05
4.59219e-05
4.80764e-05
4.91874e-05
4.48761e-05
4.50689e-05
4.62027e-05
4.61042e-05
4.49345e-05
4.56431e-05
4.62008e-05
4.84162e-05
4.92388e-05
4.48486e-05
4.58671e-05
4.61275e-05
4.94391e-05
4.95823e-05
4.94671e-05
4.6462e-05
4.64188e-05
4.67314e-05
4.69857e-05
4.9506e-05
4.9858e-05
4.65185e-05
4.6387e-05
4.67583e-05
4.6597e-05
4.65908e-05
4.71493e-05
4.70474e-05
4.93991e-05
4.93206e-05
4.65554e-05
4.66975e-05
4.71176e-05
4.97988e-05
4.94976e-05
5.06127e-05
4.67714e-05
4.70165e-05
4.76239e-05
4.73969e-05
4.98866e-05
5.04351e-05
4.67898e-05
4.66214e-05
4.75205e-05
4.74217e-05
4.70605e-05
4.7444e-05
4.71849e-05
4.93408e-05
5.05237e-05
4.71433e-05
4.741e-05
4.7277e-05
5.0168e-05
5.08593e-05
5.09469e-05
4.8033e-05
4.79225e-05
4.84847e-05
4.86761e-05
5.07301e-05
5.11823e-05
4.79584e-05
4.80301e-05
4.85062e-05
4.88931e-05
4.75071e-05
4.86486e-05
4.87533e-05
5.09083e-05
5.13471e-05
4.75643e-05
4.88263e-05
4.86594e-05
5.12843e-05
5.09649e-05
5.13994e-05
4.85826e-05
4.86751e-05
4.88507e-05
4.84565e-05
5.11437e-05
5.05375e-05
4.856e-05
4.89454e-05
4.90748e-05
4.89491e-05
4.88123e-05
4.85332e-05
4.87368e-05
5.13503e-05
5.1173e-05
4.87061e-05
4.89026e-05
4.86262e-05
5.07012e-05
5.15153e-05
5.18539e-05
4.88874e-05
4.84571e-05
4.94771e-05
4.94955e-05
5.05742e-05
5.23903e-05
4.91709e-05
4.89431e-05
4.93436e-05
4.91442e-05
4.874e-05
4.94816e-05
4.96357e-05
5.11963e-05
5.16962e-05
4.863e-05
4.90744e-05
4.95516e-05
5.26072e-05
5.2089e-05
5.30159e-05
4.99479e-05
5.02699e-05
5.09227e-05
5.13135e-05
5.28558e-05
5.35449e-05
4.96097e-05
4.96481e-05
5.08631e-05
5.11144e-05
5.04427e-05
5.13619e-05
5.13674e-05
5.20589e-05
5.34541e-05
5.0373e-05
5.12778e-05
5.13661e-05
5.36379e-05
5.30632e-05
5.30096e-05
5.10252e-05
5.13444e-05
5.10991e-05
5.10399e-05
5.35323e-05
5.26183e-05
5.1041e-05
5.12611e-05
5.11386e-05
5.12243e-05
5.13561e-05
5.1012e-05
5.05742e-05
5.34989e-05
5.29342e-05
5.13615e-05
5.13054e-05
5.06983e-05
5.20264e-05
5.30757e-05
5.33308e-05
5.11635e-05
5.08636e-05
5.14081e-05
5.07653e-05
5.25466e-05
5.25565e-05
5.1147e-05
5.11463e-05
5.14081e-05
5.11246e-05
5.03853e-05
5.06005e-05
5.04574e-05
5.29185e-05
5.30015e-05
5.05266e-05
5.09669e-05
5.05908e-05
5.27166e-05
5.33407e-05
5.35701e-05
5.14103e-05
5.08708e-05
5.15674e-05
5.24001e-05
5.28457e-05
5.47756e-05
5.1458e-05
5.1192e-05
5.16774e-05
5.21461e-05
5.08976e-05
5.26937e-05
5.30865e-05
5.31164e-05
5.42736e-05
5.09869e-05
5.23588e-05
5.31015e-05
5.53695e-05
5.38977e-05
5.5142e-05
5.20055e-05
5.28298e-05
5.33498e-05
5.32955e-05
5.49875e-05
5.48661e-05
5.20652e-05
5.25335e-05
5.32758e-05
5.31287e-05
5.33464e-05
5.33394e-05
5.32935e-05
5.45514e-05
5.48145e-05
5.33292e-05
5.31978e-05
5.31901e-05
5.445e-05
5.51725e-05
5.45395e-05
5.34353e-05
5.32943e-05
5.32706e-05
5.30959e-05
5.48213e-05
5.44423e-05
5.33703e-05
5.31438e-05
5.32384e-05
5.30275e-05
5.29658e-05
5.29241e-05
5.24841e-05
5.47861e-05
5.43692e-05
5.27851e-05
5.27987e-05
5.22948e-05
5.3589e-05
5.45141e-05
5.49371e-05
5.31787e-05
5.30672e-05
5.32362e-05
5.31759e-05
5.44682e-05
5.49431e-05
5.31487e-05
5.29864e-05
5.31895e-05
5.30602e-05
5.25045e-05
5.31402e-05
5.36336e-05
5.43753e-05
5.48257e-05
5.23242e-05
5.30331e-05
5.36711e-05
5.5721e-05
5.52114e-05
5.59387e-05
5.34878e-05
5.34303e-05
5.43353e-05
5.42109e-05
5.51313e-05
5.57606e-05
5.34041e-05
5.33334e-05
5.43745e-05
5.46531e-05
5.41001e-05
5.43251e-05
5.46115e-05
5.51279e-05
5.63665e-05
5.41874e-05
5.4809e-05
5.47616e-05
5.62331e-05
5.59535e-05
5.58086e-05
5.44476e-05
5.44372e-05
5.4581e-05
5.4708e-05
5.58914e-05
5.60722e-05
5.45087e-05
5.48163e-05
5.45965e-05
5.47986e-05
5.46102e-05
5.4669e-05
5.43303e-05
5.64206e-05
5.58403e-05
5.47629e-05
5.4763e-05
5.44292e-05
5.54189e-05
5.58142e-05
5.58201e-05
5.45818e-05
5.46965e-05
5.45618e-05
5.45239e-05
5.6048e-05
5.56284e-05
5.45872e-05
5.46546e-05
5.45489e-05
5.45165e-05
5.42743e-05
5.44692e-05
5.44163e-05
5.57664e-05
5.57489e-05
5.43204e-05
5.44119e-05
5.43544e-05
5.59009e-05
5.59084e-05
5.68877e-05
5.45851e-05
5.45343e-05
5.53711e-05
5.53955e-05
5.56589e-05
5.7058e-05
5.45875e-05
5.45384e-05
5.53991e-05
5.50043e-05
5.47972e-05
5.55756e-05
5.57285e-05
5.58823e-05
5.63352e-05
5.45846e-05
5.50445e-05
5.55505e-05
5.70611e-05
5.69687e-05
5.65901e-05
5.55735e-05
5.56588e-05
5.56235e-05
5.56929e-05
5.71889e-05
5.66632e-05
5.55386e-05
5.50827e-05
5.55181e-05
5.52955e-05
5.5802e-05
5.57071e-05
5.57448e-05
5.63422e-05
5.64129e-05
5.56643e-05
5.5352e-05
5.5691e-05
5.68011e-05
5.65531e-05
5.67768e-05
5.55539e-05
5.5547e-05
5.55531e-05
5.54772e-05
5.65365e-05
5.64237e-05
5.54924e-05
5.56006e-05
5.56937e-05
5.67899e-05
5.55802e-05
5.53906e-05
5.53545e-05
5.66631e-05
5.82793e-05
5.56404e-05
5.66304e-05
5.55882e-05
5.6506e-05
5.70374e-05
5.78934e-05
5.56819e-05
5.56164e-05
5.66096e-05
5.68395e-05
5.6705e-05
5.83007e-05
5.60888e-05
5.69254e-05
5.66229e-05
5.67128e-05
5.53779e-05
5.67767e-05
5.62993e-05
5.83863e-05
5.74685e-05
5.56338e-05
5.66345e-05
5.63216e-05
5.7534e-05
5.79058e-05
5.67622e-05
5.6666e-05
5.69348e-05
5.62913e-05
5.65535e-05
5.83499e-05
5.71953e-05
5.66065e-05
5.61298e-05
5.57368e-05
5.47496e-05
5.65002e-05
5.65439e-05
5.64933e-05
5.70756e-05
5.53508e-05
5.63912e-05
5.50575e-05
5.62151e-05
5.72851e-05
5.66133e-05
5.65419e-05
5.59274e-05
5.59942e-05
5.55604e-05
5.51393e-05
5.69084e-05
5.58765e-05
5.54854e-05
5.4696e-05
5.54396e-05
5.56327e-05
5.6317e-05
5.53157e-05
5.59976e-05
5.53531e-05
5.74362e-05
5.60488e-05
5.5788e-05
5.59488e-05
5.70418e-05
5.67795e-05
5.81202e-05
5.55838e-05
5.51294e-05
5.65843e-05
5.62547e-05
5.58886e-05
5.77997e-05
5.57041e-05
5.65489e-05
5.72396e-05
5.81564e-05
5.5991e-05
5.62303e-05
5.62245e-05
5.79303e-05
5.92665e-05
5.60154e-05
5.77485e-05
5.65947e-05
5.75102e-05
5.83537e-05
5.92635e-05
5.71126e-05
5.718e-05
5.81919e-05
5.85948e-05
5.83251e-05
5.99141e-05
5.76135e-05
5.83285e-05
5.81512e-05
5.82982e-05
5.65463e-05
5.83721e-05
5.76199e-05
5.93297e-05
5.89582e-05
5.67806e-05
5.78568e-05
5.74789e-05
5.86037e-05
5.93081e-05
5.80478e-05
5.82601e-05
5.86289e-05
5.77821e-05
5.763e-05
5.9928e-05
5.79619e-05
5.81506e-05
5.80092e-05
5.7155e-05
5.63427e-05
5.78145e-05
5.7662e-05
5.78337e-05
5.87826e-05
5.70999e-05
5.7626e-05
5.67461e-05
5.76498e-05
5.87622e-05
5.77069e-05
5.65558e-05
5.70706e-05
5.68671e-05
5.58338e-05
5.57021e-05
5.75823e-05
5.64385e-05
5.65493e-05
5.59438e-05
5.57024e-05
5.55622e-05
5.76036e-05
5.58454e-05
5.6213e-05
5.69238e-05
5.65633e-05
5.74839e-05
5.59452e-05
5.62744e-05
5.68746e-05
5.65645e-05
5.74028e-05
5.57567e-05
5.56565e-05
5.59914e-05
5.61489e-05
5.64561e-05
5.767e-05
5.56863e-05
5.55926e-05
5.62841e-05
5.67148e-05
5.61029e-05
5.6367e-05
5.66343e-05
5.66837e-05
5.79838e-05
5.6172e-05
5.66993e-05
5.66823e-05
5.81614e-05
5.76703e-05
5.90503e-05
5.64743e-05
5.67909e-05
5.79332e-05
5.80833e-05
5.80282e-05
5.92115e-05
5.67431e-05
5.72342e-05
5.80054e-05
5.81887e-05
5.72866e-05
5.79457e-05
5.77377e-05
5.82799e-05
5.92277e-05
5.73075e-05
5.79584e-05
5.77253e-05
5.90531e-05
5.92238e-05
5.92182e-05
5.81771e-05
5.81809e-05
5.82097e-05
5.78604e-05
5.92467e-05
5.83218e-05
5.8211e-05
5.82368e-05
5.8205e-05
5.7754e-05
5.75389e-05
5.7318e-05
5.62358e-05
5.92533e-05
5.82079e-05
5.75172e-05
5.72388e-05
5.62257e-05
5.63382e-05
5.8964e-05
5.75266e-05
5.79442e-05
5.73691e-05
5.67248e-05
5.67728e-05
5.81341e-05
5.7717e-05
5.79024e-05
5.72551e-05
5.66969e-05
5.6739e-05
5.62305e-05
5.69861e-05
5.81309e-05
5.80199e-05
5.76988e-05
5.62231e-05
5.69739e-05
5.81424e-05
6.0162e-05
5.75117e-05
5.81678e-05
5.66599e-05
5.67911e-05
5.69847e-05
5.73367e-05
5.78411e-05
5.87076e-05
5.6636e-05
5.67703e-05
5.69863e-05
5.74517e-05
5.88789e-05
5.7641e-05
5.91019e-05
5.78806e-05
5.88619e-05
5.88803e-05
5.77507e-05
5.90969e-05
6.04774e-05
5.83014e-05
5.80297e-05
5.71519e-05
5.7378e-05
5.70906e-05
5.68425e-05
5.87263e-05
5.72333e-05
5.7169e-05
5.75125e-05
5.7122e-05
5.70603e-05
5.85535e-05
5.62931e-05
5.47255e-05
5.88879e-05
5.74929e-05
5.85574e-05
5.65504e-05
5.48325e-05
5.46172e-05
5.77772e-05
5.6517e-05
5.67581e-05
5.62782e-05
5.5769e-05
5.5565e-05
5.69444e-05
5.62271e-05
5.67938e-05
5.63954e-05
5.56941e-05
5.53022e-05
5.41256e-05
5.5253e-05
5.3962e-05
5.71517e-05
5.59188e-05
5.42203e-05
5.50552e-05
5.39818e-05
5.48741e-05
5.6522e-05
5.82314e-05
5.57521e-05
5.5583e-05
5.66373e-05
5.69079e-05
5.6345e-05
5.86345e-05
5.56661e-05
5.5291e-05
5.65148e-05
5.6521e-05
5.44464e-05
5.72056e-05
5.86484e-05
5.59355e-05
5.83205e-05
5.43583e-05
5.67253e-05
5.84596e-05
6.06965e-05
5.8677e-05
5.98004e-05
5.73884e-05
5.76233e-05
5.84009e-05
5.86041e-05
5.90593e-05
6.01909e-05
5.73261e-05
5.74865e-05
5.84482e-05
5.88427e-05
5.9805e-05
5.91654e-05
6.09787e-05
5.88975e-05
6.05472e-05
5.96988e-05
5.94196e-05
6.10501e-05
6.302e-05
5.98052e-05
5.80099e-05
5.84203e-05
5.86299e-05
5.73099e-05
5.74838e-05
6.02059e-05
5.81432e-05
5.84744e-05
5.88795e-05
5.73924e-05
5.76515e-05
6.09e-05
5.74074e-05
5.66815e-05
6.05641e-05
5.82583e-05
6.09915e-05
5.76672e-05
5.68356e-05
5.69467e-05
5.75054e-05
5.56505e-05
5.56812e-05
5.74757e-05
5.57085e-05
5.58009e-05
4.73568e-05
4.75581e-05
4.64481e-05
5.42306e-05
5.75649e-05
5.43199e-05
2.58441e-08
2.32248e-07
5.27967e-08
4.1522e-08
2.83943e-07
2.72407e-07
1.29059e-07
1.14271e-07
2.72078e-07
3.44788e-07
1.23486e-07
4.63722e-07
3.73285e-07
2.15508e-07
2.12981e-07
3.04134e-07
6.31679e-06
2.61333e-07
8.10307e-06
1.30647e-05
2.05653e-05
3.59665e-07
4.85602e-06
3.18174e-07
6.49562e-06
1.49042e-07
1.68097e-07
1.52899e-07
1.63706e-07
1.49081e-07
1.67874e-07
1.52947e-07
2.67148e-07
5.1736e-07
2.20468e-07
2.52305e-07
2.72739e-07
5.05527e-07
2.19705e-07
1.36822e-05
2.13771e-05
2.55447e-07
2.43716e-07
7.16792e-07
3.40793e-07
2.61031e-07
2.42597e-07
6.83777e-07
1.85036e-06
1.84444e-06
3.54604e-07
1.81899e-06
1.81493e-06
4.96818e-07
1.15088e-05
4.06206e-07
1.35779e-05
3.55726e-05
4.53499e-05
5.51506e-07
9.53288e-06
4.61382e-07
1.227e-05
1.48124e-07
1.667e-07
1.52042e-07
1.5974e-07