/*--------------------------------*- C++ -*----------------------------------*\
| =========                 |                                                 |
| \\      /  F ield         | OpenFOAM: The Open Source CFD Toolbox           |
|  \\    /   O peration     | Version:  v2012                                 |
|   \\  /    A nd           | Website:  www.openfoam.com                      |
|    \\/     M anipulation  |                                                 |
\*---------------------------------------------------------------------------*/
FoamFile
{
    version     2.0;
    format      ascii;
    class       volScalarField;
    location    "1750";
    object      nut;
}
// * * * * * * * * * * * * * * * * * * * * * * * * * * * * * * * * * * * * * //

dimensions      [0 2 -1 0 0 0 0];


internalField   nonuniform List<scalar> 
171728
(
1.57591e-06
1.73197e-06
2.19396e-06
2.28163e-06
1.60013e-06
1.70779e-06
2.17643e-06
2.23183e-06
1.58991e-06
1.69774e-06
2.15054e-06
2.17882e-06
1.57343e-06
1.68992e-06
2.13039e-06
2.12452e-06
1.55659e-06
1.67777e-06
2.08962e-06
2.06826e-06
1.53737e-06
1.66071e-06
2.04427e-06
2.01906e-06
1.51161e-06
1.64098e-06
2.01804e-06
1.9815e-06
1.49802e-06
1.61317e-06
1.99768e-06
1.94901e-06
1.46658e-06
1.56319e-06
1.94871e-06
1.90583e-06
1.46963e-06
1.49707e-06
1.87618e-06
1.8454e-06
1.49116e-06
1.41997e-06
1.78974e-06
1.77268e-06
1.50944e-06
1.336e-06
1.69403e-06
1.69109e-06
1.53238e-06
1.24622e-06
1.60263e-06
1.592e-06
1.57429e-06
1.15553e-06
1.50596e-06
1.48501e-06
1.61127e-06
1.06553e-06
1.4001e-06
1.38493e-06
1.66692e-06
9.86994e-07
1.29256e-06
1.27631e-06
1.75062e-06
9.23351e-07
1.2046e-06
1.18865e-06
1.8613e-06
9.05162e-07
1.14279e-06
1.11102e-06
1.96116e-06
9.55035e-07
1.14722e-06
1.11807e-06
2.01995e-06
1.05218e-06
1.27324e-06
1.30375e-06
2.22746e-06
1.16384e-06
1.40728e-06
1.73732e-06
2.87093e-06
1.58776e-06
1.65344e-06
2.28531e-06
3.1841e-06
2.0527e-06
2.41755e-06
3.30921e-06
2.72877e-06
2.81679e-06
2.81098e-06
5.61e-06
1.6677e-06
3.84478e-06
3.95046e-06
8.03429e-06
1.23845e-06
5.57535e-06
5.34792e-06
1.27412e-05
1.07209e-06
6.71338e-06
7.13287e-06
1.70113e-05
1.01378e-06
8.86694e-06
9.08277e-06
2.40067e-05
9.38537e-07
1.16176e-05
1.17052e-05
3.02839e-05
1.00582e-06
1.47683e-05
1.47507e-05
4.01667e-05
1.20705e-06
1.78869e-05
1.83096e-05
4.48078e-05
1.22109e-06
2.19299e-05
2.13837e-05
5.07812e-05
1.76316e-06
2.58345e-05
2.70732e-05
6.22573e-05
2.07486e-06
3.3037e-05
3.04008e-05
6.10773e-05
2.2444e-06
3.17426e-05
3.51037e-05
7.14346e-05
3.52223e-06
4.53798e-05
4.30354e-05
7.53664e-05
4.02225e-06
4.67027e-05
4.65967e-05
7.65846e-05
5.81174e-06
4.99376e-05
5.28427e-05
8.60324e-05
6.65397e-06
6.14556e-05
6.11698e-05
8.83678e-05
9.45615e-06
6.07985e-05
6.06294e-05
9.08727e-05
1.01515e-05
7.36942e-05
7.34809e-05
9.40058e-05
1.41295e-05
7.31732e-05
7.455e-05
0.000100419
1.74445e-05
8.66143e-05
8.58332e-05
0.000104855
1.91714e-05
8.81371e-05
8.63391e-05
0.000107092
2.55226e-05
9.46855e-05
9.76654e-05
0.000108552
2.60846e-05
0.00010219
9.98943e-05
0.000116561
3.67937e-05
0.000105551
0.000106145
0.000117345
3.71798e-05
0.000108134
0.000111099
0.000119448
4.32988e-05
0.000120057
0.000117919
0.00012794
5.86446e-05
0.000121453
0.000120519
0.000126901
5.58367e-05
0.000123257
0.000124262
0.000133201
6.50142e-05
0.000132432
0.000133579
0.000137882
6.92082e-05
0.000134066
0.000133367
0.00013423
8.12791e-05
0.000139924
0.000141469
0.000143579
8.37023e-05
0.000140089
0.000142766
0.000146091
9.43407e-05
0.00015089
0.000149144
0.00014606
9.98395e-05
0.000150804
0.000150875
0.000150684
0.00010762
0.000156984
0.000157153
0.000152426
0.000112953
0.00015802
0.000159201
0.000153583
0.000119697
0.000163554
0.000164054
0.000160371
0.000128909
0.000168465
0.000165583
0.000160688
0.000130456
0.000170547
0.000170765
0.000162879
0.00014088
0.000175347
0.000176676
0.000167151
0.000146035
0.000173085
0.000175313
0.000163366
0.000146607
0.000181576
0.0001778
0.000174061
0.000159772
0.00018902
0.000188749
0.000177523
0.000164085
0.000184629
0.000186756
0.000169012
0.000167293
0.000182434
0.000184625
0.000173101
0.000168206
0.000196613
0.00019488
0.000185254
0.000181117
0.000198612
0.000197608
0.000179685
0.000188452
0.00019528
0.000194396
0.000175763
0.000186755
0.000197811
0.000198076
0.00018685
0.00019228
0.000204382
0.000206919
0.000188598
0.000201849
0.000205489
0.00020526
0.000184298
0.000201841
0.000203877
0.000203579
0.000187491
0.000206405
0.000211786
0.000207935
0.000192475
0.000212196
0.000211018
0.000210768
0.000191286
0.000214789
0.000209982
0.000218397
0.000189595
0.000222876
0.000219176
0.000216462
0.000195271
0.000221924
0.000215727
0.000208122
0.000193878
0.000218121
0.000210077
0.000216411
0.000192867
0.00022824
0.000219638
0.000226301
0.000195374
0.000242101
0.000230265
0.000226526
0.000201393
0.00024101
0.000223436
0.000219136
0.000201813
0.000228436
0.000215254
0.000215848
0.000192789
0.000227535
0.000221849
0.000223567
0.000200718
0.000246905
0.000229606
0.000229771
0.000203344
0.000252618
0.000225497
0.000225098
0.000190477
0.000242866
0.000226211
0.000226363
0.00021244
0.000244374
0.000230794
0.000231505
0.000211771
0.000247976
0.000220201
0.000221495
0.000182716
0.000240766
0.000216043
0.000214936
0.000185786
0.000245142
0.000233972
0.000232027
0.000216722
0.000263725
0.000244913
0.000246587
0.000230223
0.000266891
0.000232696
0.000234239
0.000200267
2.25817e-06
2.29978e-06
2.09361e-06
2.24961e-06
2.07586e-06
2.3692e-06
1.54674e-06
1.5767e-06
1.6337e-06
1.51764e-06
1.98228e-06
2.032e-06
2.21222e-06
2.48876e-06
2.01553e-06
2.28307e-06
2.25438e-06
2.21803e-06
2.0442e-06
1.74405e-06
1.98329e-06
1.73139e-06
2.24786e-06
2.20603e-06
1.75428e-06
2.11265e-06
1.7321e-06
2.09687e-06
1.74445e-06
1.71147e-06
1.72079e-06
2.21067e-06
2.20888e-06
1.56577e-06
2.18091e-06
1.53176e-06
2.23428e-06
2.21534e-06
2.17819e-06
1.96892e-06
1.72661e-06
1.92511e-06
1.715e-06
2.20375e-06
2.16189e-06
1.72719e-06
2.09055e-06
1.7134e-06
2.07416e-06
1.7174e-06
1.69949e-06
1.70693e-06
2.2082e-06
2.21233e-06
1.52085e-06
2.15732e-06
1.49179e-06
2.18225e-06
2.17469e-06
2.13938e-06
1.91233e-06
1.71109e-06
1.87525e-06
1.70174e-06
2.15925e-06
2.12585e-06
1.70968e-06
2.06804e-06
1.69896e-06
2.03897e-06
1.70435e-06
1.69263e-06
1.69309e-06
2.2117e-06
2.22042e-06
1.48191e-06
2.13557e-06
1.44883e-06
2.12895e-06
2.13613e-06
2.10721e-06
1.86243e-06
1.69735e-06
1.81018e-06
1.67852e-06
2.12265e-06
2.08626e-06
1.69498e-06
2.0255e-06
1.68632e-06
1.97757e-06
1.6889e-06
1.68014e-06
1.67178e-06
2.21935e-06
2.22046e-06
1.43545e-06
2.10177e-06
1.40491e-06
2.07253e-06
2.1045e-06
2.08179e-06
1.79033e-06
1.67042e-06
1.73193e-06
1.64268e-06
2.08249e-06
2.04669e-06
1.68522e-06
1.96112e-06
1.68173e-06
1.91837e-06
1.66576e-06
1.66507e-06
1.64368e-06
2.21843e-06
2.19648e-06
1.39791e-06
2.05442e-06
1.3872e-06
2.02261e-06
2.07922e-06
2.04673e-06
1.71111e-06
1.63247e-06
1.64667e-06
1.60516e-06
2.04224e-06
2.00632e-06
1.68063e-06
1.90469e-06
1.67129e-06
1.86254e-06
1.63709e-06
1.64606e-06
1.61621e-06
2.19259e-06
2.14895e-06
1.38443e-06
2.02164e-06
1.37439e-06
1.98389e-06
2.0427e-06
1.98711e-06
1.62395e-06
1.59507e-06
1.54197e-06
1.56233e-06
2.00177e-06
1.96722e-06
1.66583e-06
1.85025e-06
1.64175e-06
1.80535e-06
1.60823e-06
1.62117e-06
1.58262e-06
2.14469e-06
2.09943e-06
1.37052e-06
2.00604e-06
1.36422e-06
1.9514e-06
1.98224e-06
1.913e-06
1.51159e-06
1.54896e-06
1.42366e-06
1.50684e-06
1.96239e-06
1.92275e-06
1.62981e-06
1.786e-06
1.58817e-06
1.71557e-06
1.5736e-06
1.57718e-06
1.5392e-06
2.09513e-06
2.04576e-06
1.3618e-06
1.96371e-06
1.35146e-06
1.90921e-06
1.90775e-06
1.8232e-06
1.39557e-06
1.49109e-06
1.31092e-06
1.44818e-06
1.91808e-06
1.8629e-06
1.5726e-06
1.68923e-06
1.5213e-06
1.61345e-06
1.52875e-06
1.51438e-06
1.49189e-06
2.03968e-06
1.97609e-06
1.34939e-06
1.89556e-06
1.34335e-06
1.84965e-06
1.81662e-06
1.71714e-06
1.28106e-06
1.43511e-06
1.1956e-06
1.39515e-06
1.85708e-06
1.77938e-06
1.50542e-06
1.5893e-06
1.44726e-06
1.5171e-06
1.47925e-06
1.43878e-06
1.43899e-06
1.96767e-06
1.89473e-06
1.34355e-06
1.81281e-06
1.34557e-06
1.77786e-06
1.70885e-06
1.59588e-06
1.16704e-06
1.37906e-06
1.08175e-06
1.31705e-06
1.7724e-06
1.68242e-06
1.4246e-06
1.49652e-06
1.35892e-06
1.42922e-06
1.42468e-06
1.35496e-06
1.3716e-06
1.88518e-06
1.8004e-06
1.34405e-06
1.71752e-06
1.33394e-06
1.69972e-06
1.5845e-06
1.46874e-06
1.0561e-06
1.29265e-06
9.88423e-07
1.21732e-06
1.67199e-06
1.57231e-06
1.33792e-06
1.39993e-06
1.26941e-06
1.32237e-06
1.3512e-06
1.26523e-06
1.28765e-06
1.78867e-06
1.69895e-06
1.32871e-06
1.62558e-06
1.31096e-06
1.60403e-06
1.45525e-06
1.34716e-06
9.70682e-07
1.19427e-06
9.2743e-07
1.13456e-06
1.5579e-06
1.46099e-06
1.24657e-06
1.30749e-06
1.17453e-06
1.26705e-06
1.26464e-06
1.17465e-06
1.18747e-06
1.68508e-06
1.60947e-06
1.29999e-06
1.53174e-06
1.25457e-06
1.50281e-06
1.33115e-06
1.23423e-06
9.14717e-07
1.11596e-06
8.81659e-07
1.05992e-06
1.44384e-06
1.35143e-06
1.14966e-06
1.25918e-06
1.07899e-06
1.2645e-06
1.16343e-06
1.08612e-06
1.09632e-06
1.59314e-06
1.53087e-06
1.23916e-06
1.42748e-06
1.19402e-06
1.40551e-06
1.21454e-06
1.12595e-06
8.71364e-07
1.04064e-06
8.37446e-07
9.91235e-07
1.32664e-06
1.25418e-06
1.05791e-06
1.27308e-06
9.94427e-07
1.31698e-06
1.07793e-06
1.00845e-06
1.02172e-06
1.51063e-06
1.44833e-06
1.17828e-06
1.31825e-06
1.12384e-06
1.30203e-06
1.10453e-06
1.04141e-06
8.25207e-07
9.71909e-07
7.8544e-07
9.29005e-07
1.23147e-06
1.14944e-06
9.7854e-07
1.33906e-06
9.30359e-07
1.41065e-06
1.00451e-06
9.39953e-07
9.61394e-07
1.42601e-06
1.37224e-06
1.10644e-06
1.22295e-06
1.06543e-06
1.20938e-06
1.02558e-06
1.02295e-06
7.69935e-07
9.12108e-07
8.44332e-07
9.17603e-07
1.13254e-06
1.09337e-06
9.21505e-07
1.4351e-06
9.00615e-07
1.52679e-06
9.51715e-07
9.17464e-07
9.13944e-07
1.35443e-06
1.32357e-06
1.05511e-06
1.15475e-06
1.0229e-06
1.12862e-06
1.01995e-06
1.09853e-06
9.21721e-07
9.07746e-07
1.04554e-06
9.23013e-07
1.09362e-06
1.0506e-06
9.00671e-07
1.55968e-06
9.22445e-07
1.70991e-06
9.23488e-07
9.27353e-07
9.11216e-07
1.31718e-06
1.34043e-06
1.03204e-06
1.15064e-06
1.01448e-06
1.13808e-06
1.09945e-06
1.37035e-06
1.13077e-06
9.57138e-07
1.40093e-06
9.75598e-07
1.11081e-06
1.15071e-06
9.37308e-07
1.75978e-06
1.01437e-06
1.87823e-06
9.23398e-07
9.7819e-07
1.01702e-06
1.36236e-06
1.41326e-06
1.02192e-06
1.2153e-06
1.11255e-06
1.28492e-06
1.39045e-06
1.96774e-06
1.60459e-06
1.04674e-06
2.52546e-06
1.12634e-06
1.16582e-06
1.49778e-06
1.04751e-06
1.97047e-06
1.17274e-06
1.98064e-06
1.01141e-06
1.12854e-06
1.19084e-06
1.48702e-06
1.6972e-06
1.10443e-06
1.30468e-06
1.24753e-06
1.48978e-06
2.157e-06
3.01322e-06
2.8221e-06
1.16825e-06
4.1272e-06
1.50441e-06
1.49144e-06
2.35752e-06
1.25978e-06
1.97497e-06
1.60228e-06
2.13461e-06
1.26387e-06
1.50903e-06
1.48697e-06
1.68044e-06
2.49133e-06
1.32956e-06
1.65829e-06
1.54632e-06
2.1559e-06
3.31022e-06
4.1768e-06
4.25699e-06
1.56612e-06
5.23605e-06
1.95652e-06
2.59888e-06
3.0744e-06
1.61661e-06
2.08852e-06
2.08574e-06
2.36117e-06
1.55108e-06
1.9346e-06
1.87641e-06
2.48615e-06
3.84251e-06
1.60816e-06
2.255e-06
1.90326e-06
2.98317e-06
5.0155e-06
6.41576e-06
5.88993e-06
2.08683e-06
6.27516e-06
2.40405e-06
3.33341e-06
4.61217e-06
2.38272e-06
2.57034e-06
2.54986e-06
2.58657e-06
2.07417e-06
2.4219e-06
2.63864e-06
4.56189e-06
4.43909e-06
2.10245e-06
2.5217e-06
2.72316e-06
5.25967e-06
6.28425e-06
8.42058e-06
6.11183e-06
2.79815e-06
5.96235e-06
3.84704e-06
5.07874e-06
9.14063e-06
2.7409e-06
2.66306e-06
3.76337e-06
3.58682e-06
2.79516e-06
3.82935e-06
3.48921e-06
4.39611e-06
8.53896e-06
2.93375e-06
3.67096e-06
3.51758e-06
7.41752e-06
8.85492e-06
1.10299e-05
6.02097e-06
3.8685e-06
6.35287e-06
4.8899e-06
9.38797e-06
9.5634e-06
3.8488e-06
3.87174e-06
4.54695e-06
5.1446e-06
3.82469e-06
4.9014e-06
4.8722e-06
9.25318e-06
1.18723e-05
3.86478e-06
5.18458e-06
4.91451e-06
1.17383e-05
1.18439e-05
1.80667e-05
7.10962e-06
5.56501e-06
8.00475e-06
6.07487e-06
1.18124e-05
1.65838e-05
5.13763e-06
5.23722e-06
6.44142e-06
6.35274e-06
5.30003e-06
5.9976e-06
6.26081e-06
1.30051e-05
1.48517e-05
5.40607e-06
6.46384e-06
6.30265e-06
1.61196e-05
1.86397e-05
2.28724e-05
8.10649e-06
6.90577e-06
9.72568e-06
8.87085e-06
1.62341e-05
2.56456e-05
6.76851e-06
7.04824e-06
8.88089e-06
8.41481e-06
6.73309e-06
8.86872e-06
8.85878e-06
1.58671e-05
2.41396e-05
6.67661e-06
8.56737e-06
9.07902e-06
2.28323e-05
2.45831e-05
2.93743e-05
1.00233e-05
8.86498e-06
1.06022e-05
1.06682e-05
2.62459e-05
2.59459e-05
9.45221e-06
8.9381e-06
1.02929e-05
1.09537e-05
9.04696e-06
1.0664e-05
1.06708e-05
2.47748e-05
2.88714e-05
9.30915e-06
1.11018e-05
1.08549e-05
2.9461e-05
3.07626e-05
3.58403e-05
1.1521e-05
1.16083e-05
1.44327e-05
1.44253e-05
2.93507e-05
3.80529e-05
1.12559e-05
1.15941e-05
1.43344e-05
1.36851e-05
1.1964e-05
1.42371e-05
1.39446e-05
3.08872e-05
3.66132e-05
1.21484e-05
1.3807e-05
1.35336e-05
3.80059e-05
3.8038e-05
4.3e-05
1.45515e-05
1.48099e-05
1.7445e-05
1.64295e-05
3.81231e-05
4.41192e-05
1.44598e-05
1.4619e-05
1.73043e-05
1.76381e-05
1.39917e-05
1.64446e-05
1.81807e-05
3.82075e-05
4.42973e-05
1.41352e-05
1.76412e-05
1.83275e-05
4.26683e-05
4.40045e-05
5.1913e-05
1.9269e-05
1.80619e-05
2.09999e-05
2.19779e-05
4.54665e-05
5.12687e-05
1.90482e-05
1.82787e-05
2.05034e-05
1.98928e-05
1.94541e-05
2.17752e-05
1.98017e-05
4.55897e-05
4.92928e-05
1.91705e-05
2.00914e-05
1.95322e-05
5.04673e-05
5.21974e-05
5.64101e-05
2.08792e-05
2.20653e-05
2.64886e-05
2.27518e-05
5.27863e-05
5.51652e-05
2.05374e-05
2.1252e-05
2.64392e-05
2.65701e-05
2.0162e-05
2.31183e-05
2.75669e-05
5.05795e-05
5.82482e-05
2.10361e-05
2.64842e-05
2.85327e-05
5.99563e-05
5.93586e-05
6.41968e-05
2.79417e-05
2.57156e-05
2.99222e-05
3.28525e-05
5.71472e-05
6.56721e-05
2.71628e-05
2.71362e-05
3.0001e-05
2.84086e-05
2.85427e-05
3.26713e-05
2.80503e-05
5.97075e-05
6.22952e-05
2.95205e-05
2.84165e-05
2.89187e-05
6.12315e-05
6.44756e-05
6.70058e-05
3.13863e-05
3.31951e-05
3.29267e-05
3.20156e-05
6.6204e-05
6.50862e-05
3.12055e-05
3.04616e-05
3.31572e-05
3.53357e-05
2.81148e-05
3.18545e-05
3.49437e-05
6.33411e-05
6.76108e-05
2.8452e-05
3.5076e-05
3.46172e-05
6.83298e-05
6.87058e-05
7.41727e-05
3.429e-05
3.19384e-05
4.17463e-05
4.26581e-05
6.55811e-05
7.65786e-05
3.49884e-05
3.53576e-05
4.06164e-05
4.00135e-05
3.61233e-05
4.21565e-05
4.11605e-05
6.88397e-05
7.42465e-05
3.73608e-05
3.99986e-05
4.13623e-05
7.52187e-05
7.50435e-05
7.72925e-05
4.26915e-05
4.53605e-05
4.43535e-05
4.62908e-05
7.85161e-05
7.80792e-05
4.18729e-05
4.29861e-05
4.4636e-05
4.6497e-05
4.308e-05
4.73074e-05
4.43613e-05
7.53769e-05
7.81845e-05
4.30785e-05
4.69126e-05
4.5253e-05
7.53344e-05
7.81839e-05
8.26703e-05
4.56321e-05
4.57214e-05
5.18092e-05
4.7752e-05
7.78564e-05
8.03192e-05
4.56552e-05
4.62151e-05
5.15457e-05
4.95702e-05
4.40929e-05
4.57477e-05
5.14719e-05
7.86912e-05
8.16016e-05
4.49523e-05
4.86799e-05
4.99751e-05
8.45642e-05
8.39697e-05
8.66183e-05
5.43511e-05
5.25066e-05
5.65196e-05
5.99259e-05
8.25421e-05
8.83601e-05
5.38421e-05
5.33627e-05
5.63302e-05
6.04934e-05
5.57379e-05
6.09966e-05
6.10974e-05
8.34634e-05
8.8336e-05
5.48792e-05
6.08068e-05
6.40533e-05
8.8038e-05
8.73102e-05
9.08082e-05
5.69012e-05
5.99128e-05
6.44759e-05
5.94686e-05
8.862e-05
8.88642e-05
5.74226e-05
6.04893e-05
6.37813e-05
6.02886e-05
6.08623e-05
6.01956e-05
5.95271e-05
8.85791e-05
8.87312e-05
6.45296e-05
6.00704e-05
6.30319e-05
9.0191e-05
9.18841e-05
9.38762e-05
6.67002e-05
6.21583e-05
6.73862e-05
7.2582e-05
8.98665e-05
9.61728e-05
6.52155e-05
6.2127e-05
6.85246e-05
7.11422e-05
6.10755e-05
7.18392e-05
7.10099e-05
8.95581e-05
9.56784e-05
6.26648e-05
7.0753e-05
6.74593e-05
9.35129e-05
9.44369e-05
9.92222e-05
6.7842e-05
7.38479e-05
7.75796e-05
7.29558e-05
9.6802e-05
9.69221e-05
6.95331e-05
7.32112e-05
7.48194e-05
7.36858e-05
7.13582e-05
7.34154e-05
7.41216e-05
9.67233e-05
9.80062e-05
6.77986e-05
7.4604e-05
7.464e-05
9.88283e-05
0.000100395
0.000102415
7.85583e-05
7.27233e-05
8.11578e-05
8.35262e-05
9.73705e-05
0.000104139
7.75613e-05
7.41382e-05
8.27569e-05
8.38558e-05
7.68302e-05
8.32125e-05
8.37665e-05
9.84976e-05
0.000103562
7.74139e-05
8.33658e-05
8.53573e-05
0.000104204
0.000102943
0.000106202
8.38065e-05
8.68381e-05
8.66933e-05
8.86631e-05
0.000105326
0.000105766
8.26265e-05
8.62112e-05
8.64564e-05
8.67619e-05
8.58134e-05
8.87457e-05
8.72681e-05
0.00010463
0.000105405
8.82945e-05
8.66545e-05
9.25307e-05
0.000106876
0.000107055
0.000109924
8.76171e-05
8.80436e-05
9.45745e-05
8.98036e-05
0.000105794
0.000109497
8.95172e-05
8.63729e-05
9.39967e-05
9.42731e-05
8.70451e-05
8.95849e-05
9.1585e-05
0.000105693
0.000111123
9.2126e-05
9.4298e-05
8.94615e-05
0.000107643
0.00011048
0.000113026
9.58748e-05
9.49523e-05
9.64725e-05
0.000102074
0.000111442
0.000115002
9.37123e-05
9.78247e-05
9.7347e-05
0.00010078
9.40987e-05
0.000102267
0.000100896
0.000112592
0.000113979
8.8827e-05
0.000100404
9.89633e-05
0.000115611
0.000114167
0.000118917
9.85316e-05
0.000101924
0.000107503
0.000102538
0.000114997
0.00011613
0.000100641
0.00010028
0.000107375
0.000102194
0.00010301
0.000102728
0.000105818
0.000113971
0.000116382
0.000102582
0.0001018
0.0001073
0.000117438
0.000119118
0.000118414
0.000108845
0.000105693
0.000108027
0.000108547
0.000117441
0.000120246
0.00010762
0.000106405
0.000106157
0.000111262
0.000105412
0.000107601
0.000104446
0.000118098
0.000121776
0.000107015
0.000111346
0.00010544
0.000118304
0.000118619
0.000126316
0.000107458
0.000108527
0.0001147
0.000116314
0.000120496
0.000126369
0.000106183
0.000110976
0.000116825
0.000114813
0.000106698
0.000117208
0.000118351
0.000121901
0.000125007
0.000106274
0.00011545
0.000117996
0.000127203
0.000128245
0.000130265
0.000119306
0.000119428
0.000125066
0.000122325
0.000127701
0.00012852
0.000120353
0.000117767
0.000123277
0.000121328
0.00012057
0.000122004
0.000120841
0.000126411
0.0001279
0.000120278
0.000120339
0.000120635
0.000127193
0.000130023
0.000128639
0.00012477
0.000121877
0.000122705
0.000120821
0.000128294
0.000129214
0.000122721
0.000121385
0.000120671
0.000121818
0.000120214
0.000120333
0.000121073
0.000127908
0.00013026
0.000120031
0.000122431
0.00012197
0.000131096
0.000129514
0.000136175
0.000122239
0.000123437
0.000130042
0.000131465
0.000130746
0.000136227
0.000121608
0.000123427
0.000131532
0.000132052
0.000126115
0.000131985
0.000134369
0.000131181
0.000136611
0.000126214
0.000132065
0.000133869
0.000137998
0.000136471
0.000136517
0.000131076
0.000131835
0.00013204
0.000131703
0.000136271
0.000136719
0.000132502
0.000133916
0.000132324
0.000134535
0.000134352
0.000132205
0.000131959
0.000137528
0.00013756
0.000134058
0.000133759
0.000132098
0.000134577
0.000137158
0.000142403
0.000134247
0.000133943
0.000140574
0.000140399
0.000137795
0.000142141
0.00013315
0.000134252
0.000139894
0.000139484
0.000131184
0.00013966
0.000135511
0.000137322
0.000142247
0.000131362
0.000138867
0.000135123
0.000141247
0.000142596
0.000141892
0.000141109
0.000140689
0.000140449
0.000139723
0.000142058
0.000140928
0.000140642
0.000140981
0.000140396
0.000141086
0.000140636
0.00013926
0.000146247
0.000143237
0.000142812
0.000140372
0.00014307
0.000146458
0.000146273
0.00014222
0.000148832
0.0001405
0.000139782
0.000148677
0.00014894
0.000141644
0.000149489
0.000141
0.000140759
0.000148522
0.000148062
0.000146115
0.000149418
0.000144898
0.000142553
0.000148449
0.000146364
0.000146432
0.000144921
0.000145245
0.000149159
0.000148212
0.000150156
0.000150731
0.000150391
0.000151291
0.00014994
0.000149012
0.000149594
0.000150852
0.000149615
0.000152636
0.000145872
0.000151116
0.000150776
0.000149714
0.000149616
0.000145236
0.000151113
0.000150709
0.00015023
0.000148193
0.000154001
0.000150179
0.000151012
0.000155746
0.000155028
0.000148802
0.000153462
0.000149812
0.000152312
0.000156501
0.0001538
0.000152004
0.000154823
0.00015512
0.000149374
0.000152673
0.00015214
0.000154527
0.000155538
0.000152376
0.000154309
0.000153359
0.00015725
0.000156865
0.000157662
0.000157722
0.000154134
0.000153522
0.000157464
0.000156376
0.000157292
0.000158432
0.000155495
0.00015826
0.000156196
0.000154083
0.000155106
0.000155862
0.000159335
0.000155974
0.000152923
0.000153329
0.000159613
0.000157531
0.000157511
0.000163419
0.000161959
0.000153289
0.000158082
0.000157124
0.000158431
0.000163814
0.000163374
0.000157211
0.00016025
0.00016368
0.000154982
0.000158676
0.000156793
0.000161998
0.000163252
0.000159498
0.000160094
0.000159191
0.000165199
0.000164703
0.000166015
0.00016751
0.000159487
0.000161085
0.000165572
0.000164861
0.00016624
0.000165233
0.000165824
0.000168328
0.000167931
0.000159275
0.000158481
0.000165602
0.000165776
0.000168365
0.000160884
0.000158927
0.000164005
0.0001658
0.000167407
0.000169582
0.000168264
0.000160943
0.00016309
0.000165981
0.000164907
0.000168936
0.000167895
0.000167711
0.000168738
0.000167052
0.000158177
0.000163247
0.000168232
0.000168137
0.000167725
0.000161662
0.000165107
0.000165539
0.000171953
0.000171192
0.000174274
0.000175593
0.000164361
0.000167004
0.000171457
0.000171415
0.000174406
0.000176686
0.000168411
0.00017536
0.000175696
0.000165046
0.00016753
0.000168924
0.000176298
0.000175307
0.000167364
0.000165334
0.000167075
0.000174543
0.000175484
0.000175263
0.000173161
0.000166646
0.000162937
0.000174383
0.000176875
0.000176507
0.000175995
0.000176029
0.000173575
0.000174812
0.000167384
0.000166056
0.000175547
0.000175786
0.000174224
0.000163726
0.000167428
0.000168668
0.000175246
0.000172644
0.000177663
0.000177007
0.000162607
0.000170714
0.000176931
0.000175661
0.000177197
0.000175488
0.000174346
0.00017692
0.000177785
0.000165868
0.000167538
0.000173745
0.000174868
0.000177323
0.000171716
0.00016952
0.000174263
0.000180214
0.00018164
0.000185787
0.00018841
0.000172925
0.000177192
0.000178315
0.000178079
0.000185373
0.000186811
0.000182667
0.000188749
0.000188973
0.000168969
0.000176382
0.000182261
0.000187834
0.000188943
0.000178141
0.000174343
0.000173946
0.000186359
0.000188661
0.000186329
0.000186581
0.000177005
0.000172456
0.00018642
0.0001878
0.000186668
0.00018744
0.000189149
0.000186529
0.000183984
0.000176502
0.00017383
0.000189111
0.000188099
0.000184679
0.000169595
0.000174013
0.000175286
0.000186485
0.000185241
0.00018768
0.000183421
0.000171849
0.000170781
0.0001865
0.000186696
0.000187623
0.000185723
0.000182495
0.000182355
0.000181008
0.000173535
0.000173328
0.000183301
0.00018489
0.000181884
0.000171107
0.000175122
0.000175491
0.000187569
0.000183473
0.00018731
0.000192203
0.000171737
0.000181625
0.000187811
0.000185796
0.000188133
0.000190852
0.000182948
0.000193883
0.000196536
0.000173559
0.000179146
0.000183567
0.000191957
0.000196798
0.000184728
0.000176765
0.000183607
0.000189552
0.00019494
0.000198067
0.000198214
0.000182629
0.000182711
0.000190115
0.000193158
0.000197673
0.000197
0.000198437
0.00019876
0.000198965
0.000180406
0.000182278
0.000198493
0.000197642
0.000198597
0.000181247
0.000183673
0.000180727
0.000198733
0.000198259
0.000197853
0.000196698
0.0001823
0.000180026
0.00019839
0.000197114
0.000197692
0.000196159
0.000196815
0.000195742
0.000192833
0.000181975
0.000179709
0.00019589
0.000194867
0.000191716
0.000175408
0.000180356
0.000181715
0.000197126
0.000196267
0.000196392
0.000196066
0.000179825
0.000181929
0.000196983
0.000195741
0.000196198
0.000195281
0.000192361
0.000195732
0.000198428
0.000179442
0.000181026
0.00019122
0.00019477
0.000198571
0.000185539
0.00018287
0.000187154
0.000197711
0.000197515
0.000203311
0.000202329
0.000182693
0.000186072
0.000197229
0.00019656
0.000203556
0.000205013
0.000201493
0.000203109
0.000205292
0.000182232
0.000189142
0.000201962
0.000206134
0.000206221
0.000188915
0.000187105
0.000186579
0.000204127
0.000203781
0.000205009
0.000205747
0.000186581
0.000187981
0.000204541
0.000206245
0.000205176
0.000206705
0.000205473
0.000205613
0.000203649
0.000189351
0.00018708
0.000206457
0.000206677
0.000204398
0.000184682
0.000186392
0.000186164
0.000204979
0.000205791
0.000204616
0.000204535
0.000187705
0.000185325
0.000205076
0.000205721
0.000204473
0.00020433
0.00020315
0.000204121
0.000202932
0.000186458
0.00018585
0.000203555
0.000203657
0.000202784
0.000186112
0.000186258
0.000191487
0.000204494
0.000204306
0.000209112
0.0002091
0.000184984
0.000192215
0.000204391
0.000204204
0.000209371
0.000207036
0.000205168
0.000210287
0.000211531
0.000186257
0.000188873
0.000203949
0.000207268
0.000210397
0.000192463
0.000191794
0.000190518
0.000210586
0.000211015
0.000211459
0.000212073
0.000192806
0.000191165
0.000210428
0.000207603
0.000210762
0.000208753
0.000212158
0.000212324
0.000212473
0.000188753
0.000188801
0.000211277
0.000209199
0.000211904
0.000191642
0.000190124
0.000190778
0.000211031
0.000211185
0.000210618
0.000210251
0.00019024
0.000188895
0.00021058
0.000210423
0.000211157
0.00021833
0.000211461
0.000209747
0.000209742
0.000189721
0.00019864
0.000211615
0.000217371
0.000211085
0.000189791
0.000191845
0.000197082
0.000211059
0.000210561
0.000217335
0.000218667
0.000189868
0.000198883
0.000213663
0.000219417
0.000217652
0.000219769
0.00020953
0.000218261
0.000215147
0.000199148
0.000196438
0.000211085
0.000218892
0.000215582
0.000194961
0.000197087
0.000192067
0.000217893
0.000219519
0.00021687
0.000218975
0.000199108
0.000194911
0.000218053
0.000216308
0.000213309
0.000206835
0.00021668
0.000218764
0.000217749
0.000194003
0.000184523
0.00021618
0.000208639
0.000215986
0.000194448
0.000190974
0.000189782
0.000214509
0.000215469
0.000211617
0.000209409
0.000193024
0.000187081
0.000211529
0.000206201
0.000210141
0.000210126
0.000216773
0.000210478
0.000214555
0.000183987
0.000193478
0.000214934
0.00021152
0.000213991
0.000192797
0.000190626
0.000197795
0.000211326
0.000208938
0.000217096
0.000214227
0.000186599
0.000195342
0.000211364
0.000216075
0.000221507
0.000227618
0.000214363
0.000214334
0.000215268
0.000195804
0.000203993
0.000214157
0.000225241
0.000217854
0.000194958
0.000198838
0.000204452
0.000220556
0.000220275
0.000228375
0.000230767
0.00019773
0.000207799
0.000224187
0.000229107
0.00022857
0.00023053
0.000217248
0.000229383
0.000224554
0.000204274
0.000203813
0.000219049
0.000227249
0.000223869
0.000200746
0.000204643
0.000200065
0.000229193
0.000231713
0.000228584
0.000227837
0.000207881
0.000199843
0.00022912
0.000229225
0.000224495
0.000218948
0.000226091
0.000227811
0.000227914
0.000202669
0.00019471
0.000225029
0.000221091
0.000226545
0.000203158
0.000197843
0.000191448
0.000224098
0.000222934
0.000215557
0.000214793
0.000197361
0.000190866
0.000220618
0.0002163
0.00021461
0.000213423
0.000227181
0.000215705
0.000218268
0.000193464
0.000191147
0.00022618
0.000215942
0.000218606
0.000193371
0.000191055
0.000195038
0.000214879
0.000214294
0.000215434
0.000216186
0.000190464
0.000196176
0.000214248
0.00021326
0.000217349
0.000219972
0.000217396
0.000217617
0.000219337
0.00019137
0.000197953
0.000217805
0.000219959
0.000219727
0.000198675
0.000196177
0.00020394
0.000218492
0.000220334
0.000228649
0.000229675
0.000197757
0.00020499
0.000220333
0.000223432
0.00022926
0.000230543
0.000223811
0.000228947
0.00022826
0.000199244
0.000205176
0.000224017
0.000229168
0.000228235
0.000205757
0.000204754
0.000206743
0.0002306
0.000230697
0.000232929
0.000230932
0.000205129
0.000201899
0.000230931
0.000231282
0.000233002
0.000230341
0.000228167
0.000227127
0.000219749
0.000205257
0.000201324
0.000228061
0.000226639
0.000219681
0.000191133
0.000205123
0.000197778
0.000231939
0.000227915
0.000223895
0.000223858
0.000200581
0.000198287
0.00023172
0.000227206
0.000223765
0.000223623
0.000219471
0.000224831
0.000230714
0.000199995
0.000198063
0.00021941
0.000224654
0.000230805
0.000209398
0.000197419
0.000200837
0.000223342
0.000223825
0.000225253
0.000227776
0.000198579
0.000204129
0.000223243
0.000223622
0.000225313
0.000228542
0.00023641
0.000230183
0.000241759
0.000198679
0.000204886
0.000236435
0.000230877
0.000241722
0.000216483
0.000201452
0.000202009
0.000226618
0.000228417
0.000228358
0.00022723
0.000204185
0.000198015
0.000226789
0.00022931
0.000228631
0.000228862
0.000239794
0.000223734
0.000214165
0.000204985
0.000199588
0.000239755
0.000225546
0.000214857
0.000185005
0.000200378
0.000193576
0.000226741
0.00022361
0.000220146
0.000218556
0.000196041
0.000191508
0.000227097
0.000224655
0.00021976
0.000217053
0.000209681
0.000216286
0.000206397
0.000197341
0.000190272
0.000210312
0.000215257
0.000206777
0.000182789
0.00019307
0.000201291
0.000219845
0.000218307
0.000224353
0.00022625
0.000191534
0.000203508
0.000219388
0.000216706
0.000223499
0.000223218
0.000208313
0.000227999
0.000236214
0.00018976
0.000201415
0.000208002
0.000224332
0.000234864
0.000212838
0.000203469
0.000211639
0.000229618
0.000231377
0.000238407
0.00024002
0.000205632
0.000213811
0.000229142
0.000229957
0.00023869
0.000241395
0.000244911
0.000243931
0.000257277
0.00020425
0.000215608
0.000244045
0.000245317
0.00025755
0.00023041
0.000211657
0.000206793
0.000239271
0.000240889
0.000238616
0.000240084
0.000213881
0.000207913
0.000239621
0.000242494
0.000239268
0.000241517
0.000258396
0.000240333
0.00023773
0.000215754
0.000208732
0.000258863
0.000242466
0.000238992
0.000204298
0.000207018
0.000233254
0.000233772
0.000207269
0.000233741
0.000234834
0.000267662
0.000269933
0.000262433
0.000226393
0.000207928
0.000227199
1.75312e-06
1.97742e-06
1.20381e-06
1.01242e-06
1.28186e-06
1.87574e-06
5.28428e-07
1.23608e-06
1.20781e-06
2.38197e-06
1.36307e-06
1.71455e-06
2.30246e-06
2.11451e-06
2.0771e-06
1.07926e-06
1.52318e-05
1.00041e-06
1.68788e-05
1.05555e-05
1.28539e-05
1.32561e-06
1.33531e-05
1.24957e-06
1.51045e-05
1.62023e-06
1.66435e-06
1.55434e-06
1.60191e-06
1.64932e-06
1.68489e-06
1.58163e-06
1.34342e-06
3.25923e-07
1.61061e-06
1.72131e-06
1.30454e-06
4.34196e-07
1.61639e-06
1.07748e-05
1.31037e-05
1.22745e-06
1.77384e-06
5.36154e-07
2.19215e-06
1.21528e-06
1.77939e-06
6.55091e-07
1.46325e-06
1.45898e-06
2.26283e-06
1.66358e-06
1.66882e-06
1.30424e-06
2.01015e-05
1.20285e-06
2.18641e-05
1.68885e-05
1.90703e-05
1.5105e-06
1.82783e-05
1.44823e-06
2.07507e-05
1.64999e-06
1.68419e-06
1.58293e-06
1.59276e-06
1.6503e-06
1.68159e-06
1.58642e-06