/*--------------------------------*- C++ -*----------------------------------*\
| =========                 |                                                 |
| \\      /  F ield         | OpenFOAM: The Open Source CFD Toolbox           |
|  \\    /   O peration     | Version:  v2006                                 |
|   \\  /    A nd           | Website:  www.openfoam.com                      |
|    \\/     M anipulation  |                                                 |
\*---------------------------------------------------------------------------*/
FoamFile
{
    version     2.0;
    format      ascii;
    class       volScalarField;
    location    "375";
    object      epsilon;
}
// * * * * * * * * * * * * * * * * * * * * * * * * * * * * * * * * * * * * * //

dimensions      [0 2 -3 0 0 0 0];


internalField   nonuniform List<scalar> 
14258
(
3.97282e-06
8.97296e-06
3.9729e-06
8.9742e-06
1.82958e-05
1.82984e-05
6.35757e-07
5.29853e-06
5.30016e-06
1.69177e-06
3.77062e-07
3.18321e-06
2.1063e-07
1.69182e-06
3.76868e-07
3.1837e-06
2.10622e-07
3.97281e-06
1.69176e-06
2.10639e-07
1.21476e-05
3.97197e-06
1.07559e-05
4.67079e-06
1.07555e-05
4.67001e-06
1.21477e-05
2.21272e-05
7.14414e-06
8.97185e-06
7.14634e-06
2.21269e-05
1.21478e-05
3.97208e-06
4.67084e-06
1.07562e-05
4.67004e-06
1.07558e-05
1.21479e-05
2.21278e-05
7.14454e-06
8.97308e-06
7.14667e-06
2.21275e-05
1.82954e-05
1.82979e-05
9.69079e-06
2.16628e-05
2.16622e-05
2.16633e-05
2.16627e-05
9.68856e-06
4.28016e-06
9.20457e-06
5.29781e-06
2.42213e-06
9.20189e-06
4.28187e-06
2.41629e-06
4.28691e-06
9.20969e-06
5.29942e-06
2.4232e-06
9.20696e-06
4.28856e-06
2.41803e-06
1.21482e-05
3.97207e-06
1.07562e-05
4.67046e-06
1.07557e-05
4.67016e-06
1.21483e-05
2.21281e-05
7.14294e-06
7.14512e-06
2.21278e-05
2.25333e-06
6.35135e-07
1.2496e-06
1.25001e-06
2.25637e-06
1.24669e-06
1.24709e-06
8.28262e-07
1.68834e-06
1.98343e-06
6.99933e-07
1.97992e-06
6.97773e-07
8.2986e-07
1.07077e-06
2.53796e-06
3.1813e-06
1.51606e-06
2.53581e-06
1.51271e-06
1.07253e-06
8.28356e-07
1.68844e-06
1.9835e-06
6.99979e-07
1.97995e-06
6.97824e-07
8.29923e-07
1.07088e-06
2.5381e-06
3.18178e-06
1.5165e-06
2.53591e-06
1.51315e-06
1.07262e-06
8.28311e-07
1.68841e-06
6.9997e-07
1.98324e-06
6.97806e-07
1.97997e-06
8.29897e-07
1.07087e-06
2.5377e-06
2.53557e-06
1.07261e-06
6.25751e-07
3.59552e-07
9.37568e-07
3.54304e-07
4.03052e-06
6.18096e-07
9.29981e-07
1.8289e-05
6.2548e-07
3.59543e-07
3.35809e-06
9.37379e-07
5.3792e-06
1.82877e-05
9.04037e-06
6.25789e-07
3.59687e-07
1.9519e-06
5.37957e-06
5.37705e-06
1.82879e-05
1.94918e-06
3.35501e-06
4.0306e-06
9.0395e-06
1.94914e-06
6.18525e-07
3.35526e-06
9.03944e-06
3.35504e-06
9.03936e-06
5.37747e-06
5.37748e-06
1.82889e-05
3.59606e-07
3.35802e-06
1.95173e-06
4.03162e-06
9.04017e-06
4.03146e-06
1.82885e-05
4.43906e-06
5.38022e-06
9.34571e-06
2.67102e-06
1.21293e-05
1.07572e-05
4.69629e-06
4.02999e-06
1.21301e-05
1.07566e-05
4.69585e-06
1.82862e-05
1.82906e-05
9.68382e-06
2.1611e-05
2.16135e-05
4.43782e-06
9.34145e-06
2.66872e-06
5.38019e-06
2.67116e-06
9.34515e-06
4.43517e-06
1.82905e-05
2.19795e-05
7.07691e-06
9.04248e-06
7.07618e-06
2.19765e-05
4.4384e-06
2.6679e-06
9.34118e-06
5.37989e-06
4.43542e-06
2.67097e-06
9.34498e-06
4.69641e-06
1.07574e-05
1.21299e-05
7.07671e-06
2.198e-05
2.19783e-05
7.07532e-06
9.03754e-06
2.19807e-05
7.0761e-06
2.19793e-05
9.03754e-06
7.07559e-06
7.07644e-06
2.19817e-05
4.43206e-06
2.66658e-06
5.37674e-06
9.34058e-06
4.43368e-06
2.66373e-06
9.33715e-06
4.43257e-06
2.66543e-06
5.3769e-06
9.33972e-06
4.43378e-06
2.66246e-06
9.337e-06
9.67967e-06
2.16107e-05
2.16064e-05
9.67959e-06
2.16073e-05
2.16033e-05
1.82863e-05
1.21304e-05
4.03199e-06
4.69725e-06
1.07573e-05
4.69731e-06
1.21295e-05
1.0758e-05
2.19809e-05
7.07552e-06
9.04231e-06
2.19783e-05
7.07499e-06
1.21311e-05
4.032e-06
4.69671e-06
1.07574e-05
1.21303e-05
4.69728e-06
1.07581e-05
1.82914e-05
2.52273e-06
9.37136e-07
1.58194e-06
1.5808e-06
1.58255e-06
2.52104e-06
1.58193e-06
2.51556e-06
1.5761e-06
9.30296e-07
1.57486e-06
2.51709e-06
1.57487e-06
1.57368e-06
1.41127e-06
1.84816e-06
2.73663e-06
3.35916e-06
1.8496e-06
2.73777e-06
1.41097e-06
2.52277e-06
1.58076e-06
1.58167e-06
9.37043e-07
1.5825e-06
2.52098e-06
1.58185e-06
1.18565e-06
1.95461e-06
1.04382e-06
2.22139e-06
1.18548e-06
1.04484e-06
2.2242e-06
1.03634e-06
2.21905e-06
1.17701e-06
1.84257e-06
2.73342e-06
1.40365e-06
1.17687e-06
1.03635e-06
2.21899e-06
1.94633e-06
1.17707e-06
1.03532e-06
2.21609e-06
1.40346e-06
2.7333e-06
1.84293e-06
3.35431e-06
1.40378e-06
2.73212e-06
1.84141e-06
1.40327e-06
1.8423e-06
3.3541e-06
2.73316e-06
2.732e-06
1.84085e-06
1.40354e-06
1.41111e-06
1.84776e-06
2.73614e-06
3.35905e-06
1.84932e-06
1.41079e-06
2.73748e-06
1.18539e-06
1.95455e-06
1.04374e-06
2.22098e-06
1.04477e-06
1.18522e-06
2.22394e-06
4.03136e-06
1.95168e-06
4.03149e-06
1.95164e-06
3.35808e-06
9.04015e-06
5.37907e-06
1.82884e-05
1.21308e-05
1.07572e-05
4.69663e-06
4.03198e-06
1.0758e-05
4.69719e-06
1.21299e-05
1.21306e-05
4.697e-06
1.07575e-05
4.03207e-06
4.69737e-06
1.07582e-05
1.21296e-05
2.198e-05
7.0753e-06
9.04215e-06
7.0747e-06
2.19774e-05
4.43803e-06
2.66885e-06
5.38e-06
9.3419e-06
2.67122e-06
4.43594e-06
9.34465e-06
9.6845e-06
2.16097e-05
2.16059e-05
9.68092e-06
2.16134e-05
2.1611e-05
1.8291e-05
1.1854e-06
1.04368e-06
2.22109e-06
1.95454e-06
2.22405e-06
1.0447e-06
1.18524e-06
1.1854e-06
1.04369e-06
2.221e-06
1.9545e-06
1.04469e-06
2.22393e-06
1.18527e-06
1.41127e-06
2.73626e-06
1.84835e-06
3.35909e-06
2.73747e-06
1.84967e-06
1.411e-06
1.82927e-05
1.82952e-05
6.44589e-07
5.30047e-06
5.30207e-06
3.97475e-06
8.97326e-06
3.97469e-06
8.97327e-06
1.69935e-06
3.83222e-07
3.18809e-06
2.13639e-07
1.69932e-06
3.83305e-07
3.18846e-06
2.13649e-07
1.82945e-05
6.44629e-07
5.30169e-06
5.30065e-06
1.82932e-05
3.97485e-06
8.97449e-06
1.69944e-06
3.83161e-07
3.18857e-06
2.1365e-07
3.97483e-06
8.97411e-06
1.69942e-06
3.83319e-07
2.13661e-07
3.18867e-06
3.83121e-07
3.1882e-06
8.97389e-06
1.82956e-05
6.44643e-07
5.30217e-06
5.30064e-06
1.82938e-05
1.69943e-06
3.83142e-07
2.13652e-07
3.18825e-06
3.97484e-06
8.97408e-06
1.82931e-05
1.82957e-05
9.68673e-06
2.16576e-05
2.1657e-05
9.6881e-06
2.16579e-05
2.16573e-05
4.28723e-06
5.30111e-06
9.20553e-06
2.4258e-06
4.28527e-06
9.20804e-06
2.43157e-06
4.29379e-06
5.30275e-06
9.21064e-06
2.42767e-06
4.29222e-06
9.21319e-06
2.4325e-06
1.21466e-05
3.97553e-06
1.07555e-05
4.67129e-06
1.21465e-05
1.07559e-05
4.67199e-06
2.21194e-05
8.97437e-06
7.14331e-06
2.21197e-05
7.14114e-06
1.21469e-05
3.97547e-06
1.07554e-05
4.67114e-06
1.21469e-05
1.07558e-05
4.67182e-06
2.21208e-05
8.97427e-06
7.14219e-06
2.21211e-05
7.13994e-06
1.82948e-05
9.68665e-06
2.16569e-05
2.16581e-05
9.68871e-06
2.16568e-05
2.16586e-05
4.29437e-06
5.30268e-06
9.21032e-06
2.42722e-06
2.43292e-06
4.29163e-06
9.21254e-06
4.287e-06
5.30094e-06
9.2062e-06
2.42644e-06
4.2864e-06
9.20894e-06
2.43145e-06
1.82939e-05
1.21468e-05
3.97562e-06
4.67134e-06
1.07558e-05
1.21468e-05
4.67206e-06
1.07562e-05
2.21201e-05
8.97561e-06
7.14365e-06
2.21203e-05
7.14155e-06
1.21472e-05
3.97552e-06
1.07558e-05
4.67144e-06
1.21471e-05
1.07562e-05
4.67169e-06
2.21204e-05
8.97523e-06
7.14209e-06
2.21206e-05
7.13994e-06
2.21193e-05
8.97509e-06
7.14348e-06
2.21194e-05
7.14121e-06
1.82962e-05
9.68841e-06
2.16584e-05
2.16588e-05
9.68964e-06
2.16584e-05
2.16588e-05
4.29429e-06
5.30271e-06
9.21057e-06
2.42748e-06
2.43309e-06
4.29256e-06
9.21333e-06
4.28757e-06
9.20572e-06
2.42615e-06
5.30134e-06
4.28588e-06
9.20848e-06
2.43155e-06
1.82944e-05
4.6715e-06
1.07556e-05
1.21464e-05
7.14356e-06
2.21193e-05
1.40411e-07
9.857e-08
9.85609e-08
8.06858e-08
1.40416e-07
9.85715e-08
9.8563e-08
8.0686e-08
1.40426e-07
9.85755e-08
9.85655e-08
8.06883e-08
1.40427e-07
9.85756e-08
9.85675e-08
8.06885e-08
2.26644e-06
6.45177e-07
1.25898e-06
1.25939e-06
2.26355e-06
1.2618e-06
1.2622e-06
8.41434e-07
1.70272e-06
1.98992e-06
7.08659e-07
8.39879e-07
1.99337e-06
7.10798e-07
1.08434e-06
3.18994e-06
2.544e-06
1.52526e-06
1.52851e-06
1.08263e-06
2.54607e-06
8.41388e-07
1.70268e-06
1.98974e-06
7.08641e-07
8.39857e-07
1.9933e-06
7.10772e-07
1.08434e-06
3.19024e-06
2.54372e-06
1.52568e-06
1.08265e-06
2.54578e-06
1.5289e-06
2.26663e-06
6.452e-07
1.25926e-06
1.25921e-06
1.26219e-06
2.26375e-06
1.26189e-06
8.41504e-07
1.70279e-06
1.98995e-06
7.08711e-07
8.39974e-07
1.99346e-06
7.10847e-07
1.08443e-06
3.19043e-06
2.5441e-06
1.5257e-06
1.52896e-06
1.08274e-06
2.54621e-06
8.41476e-07
1.7027e-06
7.08695e-07
1.98998e-06
8.39928e-07
7.10834e-07
1.99322e-06
1.08443e-06
3.19046e-06
2.54379e-06
1.52577e-06
1.08274e-06
2.54586e-06
1.52903e-06
1.08433e-06
3.19007e-06
2.54395e-06
1.52533e-06
1.08263e-06
1.5286e-06
2.54608e-06
2.26666e-06
6.45234e-07
1.25935e-06
1.25904e-06
1.26222e-06
2.26361e-06
1.2619e-06
7.08745e-07
1.99001e-06
8.39962e-07
2.54395e-06
1.52528e-06
1.08265e-06
1.82834e-05
1.82855e-05
6.82253e-07
5.31085e-06
5.31223e-06
3.98461e-06
8.98022e-06
8.85898e-07
4.08781e-07
3.2144e-06
2.26549e-07
3.98461e-06
7.52034e-07
2.26562e-07
1.82841e-05
1.82862e-05
9.68196e-06
2.16418e-05
2.16399e-05
2.16413e-05
2.16405e-05
9.68432e-06
4.30927e-06
9.22197e-06
2.46321e-06
5.31146e-06
9.22376e-06
4.30815e-06
2.46811e-06
4.31505e-06
9.22501e-06
2.46421e-06
5.31274e-06
9.22805e-06
2.46942e-06
4.31343e-06
1.21424e-05
4.67567e-06
1.07555e-05
3.98524e-06
4.67619e-06
1.07558e-05
1.21424e-05
2.2092e-05
7.13191e-06
8.98138e-06
7.12987e-06
2.20921e-05
1.21427e-05
1.07554e-05
3.98514e-06
4.67575e-06
1.07558e-05
4.67591e-06
1.21426e-05
1.41448e-07
1.71336e-06
1.71332e-06
3.19704e-06
3.9781e-06
1.71337e-06
3.89476e-07
2.16755e-07
3.97815e-06
6.54655e-07
2.16758e-07
3.89371e-07
6.5473e-07
1.82925e-05
6.63518e-07
9.85509e-08
3.95927e-07
1.72043e-06
1.72035e-06
3.20181e-06
3.97998e-06
1.72052e-06
3.97991e-06
9.85366e-08
9.8543e-08
9.85329e-08
1.82906e-05
3.95817e-07
3.20145e-06
1.82906e-05
1.82932e-05
5.3036e-06
5.30528e-06
6.5457e-07
3.97809e-06
8.97582e-06
3.97803e-06
8.97554e-06
3.19655e-06
3.89586e-07
2.16754e-07
3.19652e-06
2.16744e-07
3.89517e-07
1.82917e-05
5.30429e-06
6.54593e-07
5.30422e-06
1.82921e-05
8.97707e-06
3.97822e-06
1.71347e-06
3.89371e-07
2.16748e-07
8.97667e-06
3.8962e-07
2.16765e-07
3.1971e-06
2.16745e-07
3.19692e-06
1.71352e-06
8.97675e-06
3.97824e-06
3.89678e-07
1.7135e-06
3.19703e-06
8.97657e-06
1.82937e-05
5.30533e-06
5.30395e-06
1.82919e-05
3.89443e-07
3.19676e-06
2.16749e-07
8.97666e-06
5.3044e-06
5.30734e-06
5.30582e-06
1.82888e-05
8.97696e-06
3.97986e-06
8.97615e-06
3.98294e-06
8.97879e-06
1.82885e-05
1.82877e-05
8.9774e-06
3.97998e-06
3.98302e-06
8.97989e-06
9.85425e-08
9.85714e-08
2.19929e-07
3.20168e-06
1.72049e-06
4.02278e-07
3.20956e-06
1.82877e-05
1.82862e-05
1.82902e-05
1.82883e-05
5.30561e-06
5.30714e-06
6.63434e-07
6.73351e-07
5.30923e-06
5.31013e-06
3.97978e-06
8.97577e-06
3.98285e-06
8.97872e-06
3.20132e-06
3.95904e-07
2.19924e-07
1.73386e-06
4.02451e-07
3.20959e-06
2.23207e-07
3.20124e-06
2.19921e-07
3.95839e-07
1.7338e-06
4.0239e-07
3.20975e-06
2.23193e-07
3.98455e-06
8.97911e-06
3.98449e-06
1.74046e-06
4.08919e-07
3.21406e-06
2.26532e-07
1.74039e-06
2.2654e-07
5.30626e-06
6.63458e-07
5.30602e-06
6.73368e-07
5.31001e-06
5.30898e-06
1.82893e-05
1.82869e-05
1.7205e-06
3.9585e-07
2.19938e-07
8.75924e-07
4.02198e-07
3.20981e-06
2.23201e-07
8.97699e-06
8.97956e-06
3.9829e-06
3.95994e-07
2.19948e-07
3.20185e-06
1.11914e-06
4.02448e-07
7.4332e-07
2.23211e-07
8.97712e-06
3.98e-06
8.97952e-06
1.72046e-06
9.68716e-06
2.16547e-05
2.16541e-05
2.16538e-05
2.16532e-05
9.68698e-06
9.68678e-06
2.1652e-05
2.16559e-05
2.16518e-05
2.16546e-05
9.68632e-06
1.2146e-05
1.07561e-05
4.67283e-06
3.97747e-06
1.07557e-05
4.67265e-06
1.21461e-05
1.21455e-05
1.07559e-05
4.67297e-06
3.9774e-06
1.07555e-05
4.6723e-06
1.21456e-05
1.82917e-05
9.68719e-06
2.16508e-05
2.16502e-05
9.68765e-06
2.16514e-05
2.16508e-05
9.68684e-06
2.16478e-05
2.16523e-05
9.68706e-06
2.16491e-05
2.16528e-05
1.21449e-05
1.07557e-05
4.67376e-06
3.98056e-06
1.21449e-05
1.07561e-05
4.67391e-06
1.21445e-05
1.07555e-05
4.67345e-06
3.98062e-06
1.21444e-05
1.07558e-05
4.67405e-06
1.82913e-05
1.82901e-05
1.82926e-05
4.29043e-06
9.21187e-06
2.441e-06
5.30297e-06
9.20908e-06
2.43502e-06
4.29322e-06
4.29746e-06
9.21701e-06
2.44168e-06
5.30455e-06
9.21421e-06
2.43711e-06
4.29938e-06
1.21454e-05
1.07559e-05
4.6731e-06
3.97738e-06
1.07555e-05
4.67249e-06
1.21455e-05
2.21123e-05
7.13818e-06
8.97467e-06
7.14033e-06
2.21122e-05
1.21458e-05
1.07558e-05
4.67295e-06
3.97729e-06
1.07554e-05
4.67227e-06
1.21458e-05
2.21138e-05
7.13698e-06
8.9745e-06
7.13911e-06
2.21136e-05
1.82914e-05
4.29529e-06
9.21411e-06
2.44045e-06
5.30381e-06
2.43587e-06
9.21244e-06
4.29643e-06
4.29259e-06
9.21454e-06
2.44229e-06
5.30359e-06
9.21088e-06
2.43622e-06
4.29603e-06
1.82912e-05
2.2113e-05
7.13861e-06
8.97592e-06
7.14069e-06
2.21128e-05
1.21457e-05
4.67323e-06
1.07562e-05
3.97748e-06
4.67254e-06
1.07558e-05
1.21457e-05
2.21133e-05
7.13697e-06
8.97556e-06
7.1391e-06
2.21131e-05
2.21121e-05
7.1383e-06
8.97553e-06
7.14056e-06
2.21121e-05
1.21454e-05
4.67297e-06
1.07562e-05
3.97749e-06
4.67273e-06
1.07558e-05
1.21455e-05
2.21129e-05
7.1369e-06
8.9753e-06
7.13899e-06
2.21127e-05
1.82931e-05
4.29809e-06
2.44251e-06
5.30482e-06
9.21711e-06
2.43705e-06
9.21439e-06
4.29976e-06
4.29142e-06
2.441e-06
5.3033e-06
9.21226e-06
9.20954e-06
2.43573e-06
4.29305e-06
9.68825e-06
2.16536e-05
2.1654e-05
2.16537e-05
2.16541e-05
9.68669e-06
1.82913e-05
1.21465e-05
3.97563e-06
4.67173e-06
1.0756e-05
2.2112e-05
8.97553e-06
7.1382e-06
7.14057e-06
2.2112e-05
2.21193e-05
8.97523e-06
7.14117e-06
4.29367e-06
2.44201e-06
5.30357e-06
9.21461e-06
4.2961e-06
2.43705e-06
9.21098e-06
4.30498e-06
2.4463e-06
5.30779e-06
9.21812e-06
9.22073e-06
4.30339e-06
2.45159e-06
4.2983e-06
2.44499e-06
9.21328e-06
5.30642e-06
2.45009e-06
4.29674e-06
9.2159e-06
9.68518e-06
2.16491e-05
2.16494e-05
2.16494e-05
9.68647e-06
2.16498e-05
1.82894e-05
2.21049e-05
7.13762e-06
8.97809e-06
7.13528e-06
2.21048e-05
1.21444e-05
1.07554e-05
4.67362e-06
3.98057e-06
1.21443e-05
1.07558e-05
4.67417e-06
2.21051e-05
7.13739e-06
8.97732e-06
2.21052e-05
7.13519e-06
1.21433e-05
3.98227e-06
1.07556e-05
4.67523e-06
1.07553e-05
4.67474e-06
1.21433e-05
2.20985e-05
8.97764e-06
7.13239e-06
7.13457e-06
2.20985e-05
1.82891e-05
1.82865e-05
2.21057e-05
7.13779e-06
8.97852e-06
2.21059e-05
7.13564e-06
1.21446e-05
4.67367e-06
1.07557e-05
3.98068e-06
1.21446e-05
4.67429e-06
1.07561e-05
1.21435e-05
3.98236e-06
4.67528e-06
1.0756e-05
4.67471e-06
1.07556e-05
1.21435e-05
2.20989e-05
8.97881e-06
7.13269e-06
7.13486e-06
2.20987e-05
1.82883e-05
1.82855e-05
1.82907e-05
1.82876e-05
4.29982e-06
9.21309e-06
2.44435e-06
5.30618e-06
4.29603e-06
9.2162e-06
2.45063e-06
4.30531e-06
9.21815e-06
2.44667e-06
5.30786e-06
4.30336e-06
9.22108e-06
2.45083e-06
9.68714e-06
2.16472e-05
2.1645e-05
2.1647e-05
2.1646e-05
9.68507e-06
4.30122e-06
5.30821e-06
9.22106e-06
2.46076e-06
9.21752e-06
2.45371e-06
4.30696e-06
4.30935e-06
5.30977e-06
9.22405e-06
2.45944e-06
9.22203e-06
2.45618e-06
4.30854e-06
1.21447e-05
1.07553e-05
4.67338e-06
3.98049e-06
1.21447e-05
1.07557e-05
4.67402e-06
2.21065e-05
7.13609e-06
8.97699e-06
2.21066e-05
7.13407e-06
1.21436e-05
3.98219e-06
1.07555e-05
4.67503e-06
1.07552e-05
4.67445e-06
1.21436e-05
2.20997e-05
8.97741e-06
7.13122e-06
7.13325e-06
2.20995e-05
1.21422e-05
1.07552e-05
4.67571e-06
3.98518e-06
1.21422e-05
1.07555e-05
4.67619e-06
2.20918e-05
7.13181e-06
8.98024e-06
2.20918e-05
7.12965e-06
1.21425e-05
1.0755e-05
4.67546e-06
3.98512e-06
1.21425e-05
1.07554e-05
4.67603e-06
4.30111e-06
9.21501e-06
2.44503e-06
5.30644e-06
4.30026e-06
9.2181e-06
2.44986e-06
4.30299e-06
9.21599e-06
2.44571e-06
5.30703e-06
4.29918e-06
2.45168e-06
9.21897e-06
9.68716e-06
2.16467e-05
2.16473e-05
2.16457e-05
2.16479e-05
9.68588e-06
4.30765e-06
5.30921e-06
9.22426e-06
2.46101e-06
9.22035e-06
2.45519e-06
4.30991e-06
4.30421e-06
5.30835e-06
9.22132e-06
2.45928e-06
2.45415e-06
9.21925e-06
4.30542e-06
1.82896e-05
1.82864e-05
2.2106e-05
7.13616e-06
8.97809e-06
2.21061e-05
7.13405e-06
2.20991e-05
8.97843e-06
7.13118e-06
7.13326e-06
2.2099e-05
1.21437e-05
3.98236e-06
4.67493e-06
1.07559e-05
1.07556e-05
4.67479e-06
1.21438e-05
2.2105e-05
7.13778e-06
8.97819e-06
2.2105e-05
7.13536e-06
1.21444e-05
4.67386e-06
1.07557e-05
3.98071e-06
1.21443e-05
4.67405e-06
1.07561e-05
2.2098e-05
8.97846e-06
7.13244e-06
7.1348e-06
2.20981e-05
1.30673e-06
2.30334e-06
1.30673e-06
6.82716e-07
1.30919e-06
2.30598e-06
1.30945e-06
7.52048e-07
1.74047e-06
2.02722e-06
8.87288e-07
1.74373e-06
2.0307e-06
7.54091e-07
1.12896e-06
1.57381e-06
2.5748e-06
1.13046e-06
3.21602e-06
1.57687e-06
2.57663e-06
1.74042e-06
8.85867e-07
2.02718e-06
8.87274e-07
1.74372e-06
7.54088e-07
2.03053e-06
9.85359e-08
9.85261e-08
8.01437e-08
8.51441e-07
2.00306e-06
7.21644e-07
1.71004e-06
1.99961e-06
7.19528e-07
8.52969e-07
8.51383e-07
2.00295e-06
7.21608e-07
1.70997e-06
1.99935e-06
7.195e-07
8.52878e-07
1.09447e-06
2.55411e-06
1.54119e-06
3.1952e-06
1.538e-06
2.55204e-06
1.0961e-06
8.51499e-07
7.21689e-07
2.00292e-06
1.71013e-06
7.19566e-07
1.99971e-06
8.53016e-07
2.2739e-06
1.27433e-06
6.54093e-07
1.27401e-06
1.27153e-06
1.27121e-06
2.27687e-06
2.27397e-06
1.27483e-06
6.54177e-07
1.27363e-06
2.27692e-06
1.27188e-06
1.27101e-06
2.2867e-06
1.28349e-06
6.64049e-07
1.28318e-06
1.2859e-06
2.28387e-06
1.28621e-06
1.43669e-07
1.4254e-07
9.85433e-08
9.85297e-08
9.85632e-08
7.91117e-08
7.96183e-08
8.64447e-07
2.00905e-06
7.30373e-07
1.72375e-06
8.6296e-07
2.01254e-06
7.32472e-07
8.64348e-07
2.00878e-06
7.30337e-07
1.72369e-06
8.62868e-07
2.01238e-06
7.32433e-07
1.10767e-06
2.55986e-06
1.55015e-06
3.20357e-06
1.10608e-06
2.56185e-06
1.55329e-06
8.64494e-07
7.30426e-07
2.00913e-06
1.72376e-06
8.63028e-07
7.32518e-07
2.01236e-06
1.41459e-07
9.8528e-08
8.01444e-08
1.41469e-07
9.85322e-08
8.01466e-08
1.41465e-07
9.8542e-08
8.01461e-08
1.10762e-06
1.54983e-06
2.55974e-06
3.20318e-06
1.10603e-06
1.55294e-06
2.56166e-06
2.27346e-06
1.27379e-06
1.2742e-06
6.54017e-07
1.27101e-06
1.27142e-06
2.27644e-06
1.09436e-06
2.55397e-06
1.54075e-06
3.19471e-06
1.53755e-06
2.55194e-06
1.09602e-06
1.09431e-06
2.55356e-06
1.54075e-06
3.19486e-06
2.55156e-06
1.53771e-06
1.09591e-06
2.27354e-06
1.27334e-06
1.27467e-06
6.54051e-07
1.27075e-06
1.27175e-06
2.27647e-06
8.51539e-07
2.00317e-06
7.21698e-07
1.71011e-06
1.99964e-06
7.19582e-07
8.5303e-07
1.09449e-06
2.5538e-06
1.54135e-06
3.19538e-06
2.55181e-06
1.53816e-06
1.09614e-06
1.09443e-06
1.54118e-06
2.55406e-06
3.19504e-06
1.53788e-06
2.55198e-06
1.0961e-06
8.51526e-07
7.21713e-07
2.00315e-06
1.7101e-06
1.99964e-06
7.19593e-07
8.53037e-07
8.5151e-07
7.21711e-07
2.00309e-06
1.71005e-06
7.19581e-07
1.99955e-06
8.53043e-07
1.09445e-06
1.54133e-06
2.5538e-06
3.19511e-06
2.55172e-06
1.53801e-06
1.09614e-06
8.4151e-07
1.70281e-06
7.10883e-07
1.99332e-06
1.0944e-06
1.54086e-06
3.19496e-06
2.55397e-06
1.09605e-06
1.53767e-06
2.55197e-06
1.08434e-06
3.19013e-06
1.52854e-06
2.54603e-06
1.42546e-07
9.85332e-08
1.43682e-07
9.85647e-08
9.85562e-08
7.91127e-08
7.96183e-08
9.85387e-08
1.42555e-07
9.85488e-08
9.85611e-08
1.4369e-07
7.91143e-08
7.96214e-08
1.10767e-06
1.55016e-06
2.5598e-06
3.2034e-06
1.10607e-06
1.55328e-06
2.56176e-06
8.64523e-07
7.30453e-07
2.00909e-06
1.72391e-06
8.63057e-07
2.0126e-06
7.32543e-07
1.11752e-06
3.20793e-06
2.56923e-06
1.56492e-06
1.56194e-06
2.56733e-06
1.11905e-06
2.28667e-06
1.28298e-06
1.28336e-06
6.63965e-07
2.28363e-06
1.28575e-06
1.28613e-06
1.29816e-06
2.29663e-06
1.29737e-06
2.29382e-06
6.72868e-07
1.29466e-06
1.29551e-06
1.1076e-06
2.55975e-06
1.54971e-06
3.20309e-06
1.10598e-06
2.56171e-06
1.55289e-06
8.74441e-07
1.73058e-06
2.02176e-06
7.43277e-07
2.01828e-06
7.41208e-07
8.75886e-07
1.56509e-06
1.11753e-06
3.20779e-06
2.56932e-06
2.56737e-06
1.56177e-06
1.11912e-06
1.10746e-06
2.55926e-06
1.54965e-06
3.20301e-06
1.10586e-06
2.56128e-06
1.5528e-06
8.7435e-07
1.7305e-06
2.02163e-06
7.43245e-07
2.01803e-06
7.41167e-07
8.7581e-07
1.11743e-06
3.20789e-06
2.56893e-06
1.56516e-06
2.56697e-06
1.11902e-06
1.56191e-06
8.87252e-07
2.02724e-06
7.52003e-07
1.74367e-06
8.85858e-07
2.03066e-06
7.54048e-07
1.5738e-06
1.5767e-06
3.21567e-06
1.13045e-06
2.57475e-06
1.12896e-06
2.57657e-06
8.87202e-07
2.027e-06
7.51975e-07
1.74364e-06
8.85798e-07
2.03063e-06
7.54018e-07
2.28658e-06
1.28257e-06
1.28373e-06
6.63986e-07
2.28353e-06
1.28661e-06
1.28521e-06
2.29378e-06
6.72873e-07
1.29795e-06
1.29756e-06
1.29503e-06
1.29506e-06
2.29671e-06
8.64513e-07
2.00909e-06
7.30433e-07
1.72385e-06
8.63049e-07
2.01261e-06
7.32529e-07
7.43326e-07
1.73393e-06
2.02179e-06
8.74505e-07
1.73063e-06
2.0183e-06
7.41256e-07
1.1191e-06
1.56506e-06
2.56933e-06
1.11759e-06
3.20825e-06
2.56749e-06
1.56222e-06
1.10771e-06
2.55956e-06
1.55031e-06
3.20351e-06
1.10612e-06
1.55342e-06
2.56148e-06
2.56895e-06
3.2098e-06
1.1176e-06
3.20816e-06
1.56526e-06
1.56222e-06
2.56708e-06
1.73386e-06
8.75913e-07
2.02154e-06
8.74482e-07
1.73061e-06
7.4125e-07
2.01827e-06
8.64506e-07
7.30443e-07
2.00901e-06
1.72387e-06
8.63039e-07
7.32535e-07
2.01252e-06
5.37966e-06
1.47369e-07
4.22047e-07
4.22076e-07
7.01049e-07
1.53003e-07
4.49318e-07
4.49411e-07
7.37892e-07
1.59386e-07
4.77581e-07
4.77596e-07
7.73937e-07
1.666e-07
5.06445e-07
5.0653e-07
8.08996e-07
1.74605e-07
5.35936e-07
5.35952e-07
8.43073e-07
1.8332e-07
5.65724e-07
5.65843e-07
8.7567e-07
2.00597e-07
5.95871e-07
5.95736e-07
9.07575e-07
2.03259e-07
6.25964e-07
6.92018e-07
4.15383e-07
4.15588e-07
7.00875e-07
7.28983e-07
4.22161e-07
4.2225e-07
4.42615e-07
4.42617e-07
7.00953e-07
7.2895e-07
4.22047e-07
4.22256e-07
4.4249e-07
4.4266e-07
4.22229e-07
4.42423e-07
4.42636e-07
7.00983e-07
7.28952e-07
4.22097e-07
4.42476e-07
4.42497e-07
7.29069e-07
7.37817e-07
7.65032e-07
4.49541e-07
4.49532e-07
4.70559e-07
4.70651e-07
7.37782e-07
7.65069e-07
4.49407e-07
4.49597e-07
4.70414e-07
4.70663e-07
4.49554e-07
4.70452e-07
4.70639e-07
7.37805e-07
7.65139e-07
4.49419e-07
4.70477e-07
4.70491e-07
7.65224e-07
7.73759e-07
8.00284e-07
4.77686e-07
4.7779e-07
4.99407e-07
4.99352e-07
7.73854e-07
8.00242e-07
4.77531e-07
4.77781e-07
4.99247e-07
4.99432e-07
4.77783e-07
4.99145e-07
4.99379e-07
7.73833e-07
8.00366e-07
4.77637e-07
4.99239e-07
4.99225e-07
8.00437e-07
8.08901e-07
8.34385e-07
5.0667e-07
5.0665e-07
5.28656e-07
5.28774e-07
8.08835e-07
8.34451e-07
5.06502e-07
5.06725e-07
5.28479e-07
5.2876e-07
5.06617e-07
5.28562e-07
5.28833e-07
8.08969e-07
8.34448e-07
5.06464e-07
5.28574e-07
5.28665e-07
8.34623e-07
8.42795e-07
8.67491e-07
5.3614e-07
5.36119e-07
5.58495e-07
5.58406e-07
8.42862e-07
8.67356e-07
5.35956e-07
5.36141e-07
5.58317e-07
5.58533e-07
5.36259e-07
5.5816e-07
5.5839e-07
8.42869e-07
8.67454e-07
5.36093e-07
5.58338e-07
5.58228e-07
8.67533e-07
8.75657e-07
8.99083e-07
5.65813e-07
5.65878e-07
5.88382e-07
5.88618e-07
8.75608e-07
8.99405e-07
5.65626e-07
5.66037e-07
5.88177e-07
5.88399e-07
5.65771e-07
5.88353e-07
5.88679e-07
8.75665e-07
8.99375e-07
5.656e-07
5.8823e-07
5.88491e-07
8.99483e-07
9.07201e-07
9.30167e-07
5.96107e-07
5.95951e-07
6.18529e-07
3.35488e-06
9.07417e-07
5.37757e-06
5.95897e-07
5.95914e-07
6.18349e-07
6.18755e-07
5.9615e-07
6.18153e-07
9.07356e-07
9.30078e-07
5.95955e-07
6.18568e-07
3.35796e-06
6.26135e-07
9.37868e-07
1.82876e-05
3.99134e-06
8.98208e-06
3.98879e-06
8.9849e-06
1.82816e-05
1.82809e-05
3.99144e-06
8.98334e-06
3.98888e-06
8.98617e-06
7.76918e-08
1.47393e-07
1.47388e-07
1.51523e-07
1.51517e-07
1.51538e-07
1.51547e-07
1.77175e-06
1.1512e-06
2.33462e-07
4.28789e-07
9.08437e-07
3.23344e-06
2.37047e-07
1.82828e-05
1.82819e-05
1.7717e-06
2.33481e-07
1.59661e-06
4.28807e-07
2.37062e-07
3.23346e-06
9.08518e-07
5.31553e-06
5.31705e-06
7.10712e-07
5.31842e-06
5.32001e-06
3.99859e-06
8.98848e-06
3.99646e-06
8.99139e-06
1.82758e-05
1.82759e-05
3.99868e-06
8.98974e-06
3.99648e-06
8.99268e-06
1.52992e-07
1.53018e-07
1.53007e-07
1.57711e-07
1.57736e-07
1.57749e-07
1.57761e-07
1.80577e-06
3.24868e-06
2.48237e-07
4.56299e-07
1.79429e-06
3.25544e-06
2.52126e-07
1.82771e-05
1.82773e-05
1.80575e-06
2.48271e-07
3.24893e-06
4.56393e-07
1.79442e-06
2.52157e-07
3.25576e-06
5.32496e-06
5.32652e-06
7.47278e-07
5.32783e-06
5.32946e-06
4.00507e-06
8.9953e-06
4.00315e-06
8.99851e-06
1.82726e-05
1.82733e-05
4.00512e-06
8.99656e-06
4.00312e-06
8.99979e-06
1.59412e-07
1.59424e-07
1.59421e-07
1.64741e-07
1.64715e-07
1.64745e-07
1.64755e-07
1.83669e-06
3.26989e-06
2.64224e-07
4.84738e-07
1.82601e-06
3.27613e-06
2.68404e-07
1.82734e-05
1.82747e-05
1.83662e-06
2.64251e-07
3.26978e-06
4.84769e-07
1.82612e-06
2.68424e-07
3.27626e-06
5.33398e-06
5.33551e-06
7.82962e-07
5.33706e-06
5.33866e-06
4.01099e-06
9.00279e-06
4.00922e-06
9.0062e-06
1.82713e-05
1.82734e-05
4.01106e-06
9.00409e-06
4.00924e-06
9.00747e-06
1.66594e-07
1.66628e-07
1.66581e-07
1.72499e-07
1.72538e-07
1.72539e-07
1.72597e-07
1.86494e-06
3.2894e-06
2.81306e-07
5.13796e-07
1.85496e-06
3.29551e-06
2.85769e-07
1.82724e-05
1.82742e-05
1.86489e-06
2.81356e-07
3.28956e-06
5.13856e-07
1.8551e-06
2.85804e-07
3.29548e-06
5.34272e-06
5.3443e-06
8.17578e-07
5.34574e-06
5.34733e-06
4.01662e-06
9.01088e-06
4.01493e-06
9.01476e-06
1.82724e-05
1.82749e-05
4.01672e-06
9.01217e-06
4.01494e-06
9.01605e-06
1.74596e-07
1.746e-07
1.74637e-07
1.81113e-07
1.8107e-07
1.81151e-07
1.81118e-07
1.89108e-06
3.308e-06
2.99498e-07
5.43301e-07
1.88172e-06
3.31349e-06
3.04206e-07
1.82737e-05
1.82763e-05
1.89106e-06
2.99528e-07
3.30815e-06
5.43379e-07
1.88183e-06
3.04228e-07
3.31374e-06
5.35241e-06
5.35402e-06
8.5132e-07
5.35492e-06
5.35655e-06
4.02209e-06
9.01965e-06
4.02042e-06
9.02347e-06
1.8276e-05
1.82796e-05
4.02212e-06
9.02091e-06
4.0204e-06
9.02475e-06
1.8337e-07
1.83438e-07
1.83301e-07
1.90468e-07
1.9053e-07
1.90463e-07
1.90632e-07
1.91543e-06
3.32559e-06
3.18601e-07
5.73255e-07
1.90647e-06
3.33103e-06
3.23593e-07
1.8277e-05
1.82807e-05
1.91538e-06
3.18694e-07
3.32567e-06
5.73314e-07
1.9066e-06
3.23625e-07
3.33111e-06
5.3604e-06
5.36198e-06
8.83494e-07
5.36361e-06
5.3652e-06
4.02782e-06
9.0297e-06
4.02592e-06
9.03419e-06
1.82815e-05
1.82848e-05
4.02795e-06
9.03099e-06
4.02603e-06
9.03546e-06
1.12967e-07
1.93015e-07
1.92974e-07
1.92945e-07
1.93013e-07
2.00667e-07
2.00781e-07
1.93836e-06
3.34263e-06
3.38739e-07
6.03193e-07
1.92994e-06
3.34729e-06
3.43917e-07
1.82824e-05
1.82867e-05
1.93834e-06
3.38746e-07
3.34233e-06
6.03375e-07
1.92995e-06
3.43933e-07
3.34748e-06
5.37096e-06
5.37257e-06
9.15128e-07
5.37291e-06
5.37476e-06
1.13907e-07
2.03238e-07
2.03376e-07
1.82898e-05
3.35882e-06
1.82821e-05
1.82846e-05
5.31359e-06
5.31516e-06
8.98298e-06
3.98738e-06
3.22209e-06
2.29967e-07
1.75328e-06
8.98269e-06
3.98728e-06
8.97992e-06
4.08984e-07
2.2998e-07
1.58562e-06
1.75329e-06
1.57697e-06
1.82794e-05
1.82789e-05
1.82819e-05
1.82814e-05
5.31526e-06
5.3169e-06
7.10528e-07
5.31849e-06
5.32009e-06
1.82762e-05
1.82765e-05
1.82787e-05
1.8279e-05
7.19407e-07
5.32338e-06
5.32494e-06
5.32041e-06
5.32202e-06
3.99128e-06
8.98212e-06
3.98873e-06
8.98491e-06
1.77158e-06
1.59642e-06
2.33457e-07
4.28907e-07
9.08419e-07
3.2334e-06
2.37063e-07
1.77157e-06
1.59697e-06
2.33474e-07
4.28979e-07
9.08398e-07
3.2338e-06
2.37055e-07
3.99281e-06
8.9881e-06
8.98527e-06
3.99509e-06
3.99275e-06
8.9881e-06
8.98528e-06
3.99502e-06
1.77732e-06
4.35734e-07
3.24476e-06
2.44463e-07
3.23763e-06
2.407e-07
1.78904e-06
1.77724e-06
4.35784e-07
3.24506e-06
2.44443e-07
3.23801e-06
2.40714e-07
1.78903e-06
5.31675e-06
5.31541e-06
7.10573e-07
5.31982e-06
5.31846e-06
1.828e-05
1.82793e-05
1.82781e-05
1.82785e-05
7.19445e-07
5.32458e-06
5.32326e-06
5.32169e-06
5.32032e-06
1.82766e-05
1.82769e-05
1.77167e-06
3.22639e-06
2.33478e-07
4.28794e-07
1.75941e-06
3.2339e-06
2.3705e-07
3.99133e-06
8.98302e-06
3.98887e-06
8.9857e-06
1.77167e-06
2.33493e-07
1.59708e-06
4.28985e-07
1.75934e-06
2.37064e-07
3.23381e-06
3.99283e-06
8.98936e-06
8.98654e-06
3.99516e-06
1.77736e-06
4.3561e-07
3.24524e-06
2.4445e-07
3.23814e-06
2.40722e-07
1.78912e-06
3.9928e-06
8.98902e-06
8.98606e-06
3.9951e-06
1.77724e-06
4.35782e-07
2.44459e-07
3.24515e-06
2.40734e-07
3.23795e-06
1.78913e-06
3.99145e-06
8.98268e-06
3.98888e-06
8.98548e-06
1.77174e-06
2.33474e-07
1.59656e-06
4.28965e-07
9.08425e-07
2.37059e-07
3.23344e-06
3.99135e-06
8.98254e-06
3.98878e-06
8.9853e-06
1.77725e-06
4.35573e-07
3.24472e-06
2.44436e-07
3.23766e-06
2.407e-07
1.78919e-06
3.99282e-06
8.98866e-06
8.98584e-06
3.99518e-06
1.77717e-06
4.35771e-07
2.44454e-07
3.24474e-06
2.40716e-07
3.23763e-06
1.78918e-06
3.99272e-06
8.98853e-06
8.98566e-06
3.99509e-06
5.3173e-06
5.31584e-06
7.10626e-07
5.31997e-06
5.31852e-06
1.82808e-05
1.82799e-05
1.82793e-05
1.82794e-05
7.19457e-07
5.32476e-06
5.32328e-06
5.32158e-06
5.32014e-06
1.82773e-05
1.82774e-05
1.77168e-06
2.33478e-07
1.59705e-06
4.28828e-07
2.37061e-07
3.23393e-06
9.08488e-07
3.99143e-06
8.98296e-06
8.98566e-06
3.98888e-06
3.9914e-06
8.98321e-06
8.98597e-06
3.98884e-06
1.77736e-06
4.35603e-07
2.44458e-07
3.24478e-06
2.40722e-07
3.2376e-06
1.78912e-06
1.77732e-06
4.35636e-07
2.44454e-07
3.24519e-06
2.40721e-07
3.23808e-06
1.7891e-06
3.99281e-06
8.98895e-06
8.98602e-06
3.99515e-06
3.99277e-06
8.9892e-06
8.98633e-06
3.99511e-06
1.82808e-05
1.82801e-05
1.82827e-05
1.8282e-05
7.19551e-07
5.32313e-06
5.32469e-06
5.32015e-06
5.32172e-06
1.82773e-05
1.82776e-05
1.82793e-05
1.82795e-05
1.82738e-05
1.82738e-05
1.82763e-05
1.82763e-05
5.32497e-06
5.32655e-06
7.4713e-07
5.32768e-06
5.32925e-06
1.82723e-05
1.82717e-05
1.82748e-05
1.82742e-05
7.55884e-07
5.33232e-06
5.33387e-06
5.32939e-06
5.33098e-06
3.99852e-06
8.98848e-06
3.9964e-06
8.99143e-06
1.80562e-06
3.24874e-06
2.48251e-07
4.56499e-07
1.79437e-06
3.25548e-06
2.52157e-07
1.8056e-06
3.24903e-06
2.48254e-07
4.56497e-07
1.79429e-06
3.25578e-06
2.52134e-07
3.99989e-06
8.99487e-06
8.9918e-06
4.00191e-06
3.99983e-06
8.99499e-06
8.99185e-06
4.00184e-06
1.81059e-06
4.63503e-07
3.26594e-06
2.60133e-07
3.25935e-06
2.56084e-07
1.82142e-06
1.81051e-06
4.63554e-07
3.26642e-06
2.60128e-07
3.25971e-06
2.56098e-07
1.82141e-06
5.32617e-06
5.32483e-06
7.47074e-07
5.32892e-06
5.32756e-06
1.82742e-05
1.82743e-05
1.82746e-05
1.82738e-05
7.55862e-07
5.33393e-06
5.33259e-06