/*--------------------------------*- C++ -*----------------------------------*\
| =========                 |                                                 |
| \\      /  F ield         | OpenFOAM: The Open Source CFD Toolbox           |
|  \\    /   O peration     | Version:  v2006                                 |
|   \\  /    A nd           | Website:  www.openfoam.com                      |
|    \\/     M anipulation  |                                                 |
\*---------------------------------------------------------------------------*/
FoamFile
{
    version     2.0;
    format      ascii;
    class       volScalarField;
    location    "375";
    object      nut;
}
// * * * * * * * * * * * * * * * * * * * * * * * * * * * * * * * * * * * * * //

dimensions      [0 2 -1 0 0 0 0];


internalField   nonuniform List<scalar> 
14258
(
8.10065e-05
4.96737e-05
8.10037e-05
4.96694e-05
2.35572e-05
2.35553e-05
9.15445e-05
6.72125e-05
6.72074e-05
8.97264e-05
9.34295e-05
7.88668e-05
0.000103408
8.97252e-05
9.34531e-05
7.88619e-05
0.000103416
8.10016e-05
8.9721e-05
0.00010341
3.62146e-05
8.08276e-05
4.04496e-05
7.94069e-05
4.04491e-05
7.92789e-05
3.62147e-05
2.0126e-05
7.2155e-05
4.96717e-05
7.20964e-05
2.01259e-05
3.62139e-05
8.08252e-05
7.94039e-05
4.04486e-05
7.9276e-05
4.0448e-05
3.6214e-05
2.01257e-05
7.21531e-05
4.96673e-05
7.20946e-05
2.01256e-05
2.3557e-05
2.35551e-05
7.46705e-05
2.14711e-05
2.1468e-05
2.14713e-05
2.14682e-05
7.47239e-05
8.47024e-05
4.7441e-05
6.71034e-05
8.94228e-05
4.74363e-05
8.49261e-05
8.90848e-05
8.47262e-05
4.74297e-05
6.7098e-05
8.94353e-05
4.7425e-05
8.49546e-05
8.90686e-05
3.62118e-05
8.08218e-05
4.04482e-05
7.9399e-05
4.04477e-05
7.92636e-05
3.62119e-05
2.01245e-05
7.21328e-05
7.20743e-05
2.01244e-05
9.34268e-05
9.13536e-05
9.22693e-05
9.22776e-05
9.37241e-05
9.20509e-05
9.20592e-05
8.77576e-05
8.92407e-05
8.94954e-05
8.78638e-05
8.90675e-05
8.7643e-05
8.79715e-05
8.79417e-05
8.57843e-05
7.85989e-05
8.91414e-05
8.5504e-05
8.89322e-05
8.81597e-05
8.77543e-05
8.9239e-05
8.94944e-05
8.78643e-05
8.90649e-05
8.76436e-05
8.79687e-05
8.79371e-05
8.57867e-05
7.85938e-05
8.91369e-05
8.54954e-05
8.89278e-05
8.81555e-05
8.77522e-05
8.92373e-05
8.7864e-05
8.94853e-05
8.76435e-05
8.90586e-05
8.79661e-05
8.79319e-05
8.57653e-05
8.54954e-05
8.81496e-05
0.000111858
0.000109055
0.000114255
0.000108608
8.7172e-05
0.000111234
0.000113821
2.35506e-05
0.000111865
0.000109064
8.74172e-05
0.000114173
7.0946e-05
2.3552e-05
4.97923e-05
0.000111837
0.0001092
0.000107401
7.09525e-05
7.09288e-05
2.35521e-05
0.000107277
8.73937e-05
8.71724e-05
4.97907e-05
0.00010728
0.000111226
8.7403e-05
4.97869e-05
8.74094e-05
4.97893e-05
7.09343e-05
7.09426e-05
2.3552e-05
0.000109088
8.74289e-05
0.000107397
8.72122e-05
4.97908e-05
8.72093e-05
2.35518e-05
9.22642e-05
7.10384e-05
4.76757e-05
0.000102908
3.61947e-05
4.04506e-05
8.42796e-05
8.70604e-05
3.61955e-05
4.04498e-05
8.41944e-05
2.35496e-05
2.35544e-05
7.71409e-05
2.14511e-05
2.1451e-05
9.22313e-05
4.76625e-05
0.000102654
7.10309e-05
0.000102896
4.76693e-05
9.20673e-05
2.35536e-05
2.00809e-05
7.42491e-05
4.97964e-05
7.42964e-05
2.008e-05
9.22728e-05
0.00010272
4.76714e-05
7.10356e-05
9.2125e-05
0.00010294
4.76751e-05
8.4281e-05
4.04501e-05
3.61966e-05
7.42385e-05
2.00811e-05
2.00794e-05
7.42277e-05
4.97837e-05
2.00802e-05
7.41884e-05
2.00791e-05
4.97856e-05
7.42292e-05
7.41887e-05
2.00798e-05
9.19145e-05
0.00010262
7.08725e-05
4.76545e-05
9.2041e-05
0.000102421
4.76502e-05
9.19725e-05
0.000102651
7.08781e-05
4.76695e-05
9.20876e-05
0.000102446
4.76631e-05
7.70147e-05
2.14509e-05
2.14518e-05
7.70703e-05
2.145e-05
2.14503e-05
2.35509e-05
3.61975e-05
8.73294e-05
8.432e-05
4.04506e-05
8.44149e-05
3.61966e-05
4.04515e-05
2.00796e-05
7.42397e-05
4.97943e-05
2.00788e-05
7.42816e-05
3.61953e-05
8.7323e-05
8.43106e-05
4.04501e-05
3.61944e-05
8.43973e-05
4.0451e-05
2.35531e-05
0.000108698
0.00011441
0.000112673
0.000112711
0.00011286
0.000108445
0.000112878
0.000108119
0.000112376
0.00011366
0.00011241
0.000108371
0.000112209
0.000112242
0.000110679
0.000107571
9.82e-05
8.76011e-05
0.00010773
9.8452e-05
0.000110485
0.000108683
0.000112645
0.000112617
0.000114344
0.000112808
0.000108398
0.000112824
0.000112358
0.000107731
0.00011271
0.00010528
0.000112148
0.000112927
0.000105559
0.00011223
0.000105133
0.000111679
0.000107302
9.81549e-05
0.000110128
0.0001115
0.000112236
0.00010514
0.000106961
0.000111695
0.000112026
0.000104878
0.000109968
9.81617e-05
0.000107334
8.72399e-05
0.000110156
9.79237e-05
0.000107187
0.000109966
0.000107345
8.72448e-05
9.81601e-05
9.79224e-05
0.000107196
0.000110155
0.000110699
0.00010761
9.821e-05
8.76046e-05
0.000107761
0.00011051
9.84498e-05
0.000112325
0.000107717
0.000112704
0.000105258
0.000112914
0.000112132
0.000105519
8.72077e-05
0.000107392
8.72074e-05
0.000107395
8.74264e-05
4.97888e-05
7.09511e-05
2.35507e-05
3.61961e-05
4.04506e-05
8.43106e-05
8.7319e-05
4.04515e-05
8.43968e-05
3.61953e-05
3.61972e-05
8.43095e-05
4.04502e-05
8.73204e-05
8.44014e-05
4.04511e-05
3.61963e-05
2.00799e-05
7.42373e-05
4.9793e-05
7.42803e-05
2.00791e-05
9.22254e-05
0.000102698
7.10225e-05
4.76579e-05
0.000102913
9.2084e-05
4.76679e-05
7.71407e-05
2.14502e-05
2.14511e-05
7.70932e-05
2.14508e-05
2.14508e-05
2.35524e-05
0.00011231
0.000112697
0.000105253
0.000107705
0.000105514
0.000112903
0.000112116
0.000112322
0.000112702
0.000105258
0.000107706
0.000112907
0.000105516
0.000112132
0.000110697
9.82098e-05
0.000107598
8.75981e-05
9.84496e-05
0.000107752
0.00011051
2.35558e-05
2.35539e-05
9.19363e-05
6.72418e-05
6.72365e-05
8.10562e-05
4.96743e-05
8.10533e-05
4.96706e-05
8.98495e-05
9.36648e-05
7.89053e-05
0.00010315
8.98461e-05
9.36615e-05
7.8899e-05
0.000103145
2.35546e-05
9.19285e-05
6.72359e-05
6.72358e-05
2.35551e-05
8.10531e-05
4.96699e-05
8.98469e-05
9.36761e-05
7.89001e-05
0.00010315
8.10499e-05
4.96667e-05
8.98442e-05
9.36625e-05
0.000103146
7.88929e-05
9.36844e-05
7.8904e-05
4.96712e-05
2.35532e-05
9.19315e-05
6.72279e-05
6.72378e-05
2.35547e-05
8.98498e-05
9.36888e-05
0.000103159
7.89007e-05
8.10547e-05
4.96705e-05
2.3556e-05
2.35541e-05
7.47724e-05
2.14693e-05
2.14662e-05
7.47335e-05
2.14694e-05
2.14663e-05
8.51554e-05
6.73448e-05
4.74426e-05
8.95661e-05
8.49722e-05
4.74469e-05
8.98732e-05
8.51906e-05
6.73401e-05
4.74314e-05
8.9546e-05
8.49959e-05
4.74357e-05
8.9894e-05
3.62136e-05
8.12316e-05
4.04491e-05
7.94578e-05
3.62135e-05
4.04496e-05
7.9584e-05
2.01237e-05
4.96763e-05
7.21707e-05
2.01237e-05
7.22284e-05
3.62114e-05
8.12286e-05
4.0449e-05
7.94471e-05
3.62114e-05
4.04495e-05
7.95737e-05
2.0122e-05
4.9673e-05
7.21506e-05
2.01221e-05
7.2209e-05
2.35551e-05
7.47801e-05
2.14664e-05
2.14689e-05
7.47426e-05
2.14667e-05
2.14685e-05
8.51902e-05
6.73356e-05
4.74327e-05
8.95612e-05
8.98871e-05
8.50145e-05
4.74386e-05
8.51714e-05
6.7347e-05
4.74399e-05
8.95602e-05
8.4964e-05
4.74429e-05
8.98883e-05
2.35551e-05
3.62129e-05
8.12282e-05
7.94546e-05
4.04481e-05
3.62128e-05
7.95805e-05
4.04486e-05
2.01233e-05
4.9672e-05
7.21689e-05
2.01234e-05
7.22266e-05
3.62108e-05
8.12263e-05
4.04477e-05
7.94419e-05
3.62107e-05
4.04483e-05
7.95754e-05
2.01221e-05
4.96687e-05
7.21486e-05
2.01222e-05
7.22065e-05
2.01234e-05
4.96728e-05
7.21646e-05
2.01234e-05
7.22231e-05
2.35534e-05
7.48075e-05
2.14664e-05
2.14698e-05
7.4743e-05
2.14664e-05
2.14698e-05
8.51896e-05
6.73352e-05
4.74314e-05
8.9529e-05
8.98557e-05
8.49797e-05
4.74362e-05
8.51631e-05
4.74424e-05
8.95319e-05
6.73433e-05
8.49515e-05
4.74472e-05
8.98657e-05
2.35549e-05
7.94513e-05
4.04485e-05
3.62134e-05
7.2164e-05
2.01234e-05
0.000119504
0.000144619
0.000144631
0.000168847
0.000119503
0.000144617
0.000144632
0.000168847
0.000119501
0.00014462
0.000144631
0.000168844
0.000119501
0.000144615
0.000144628
0.000168842
9.42114e-05
9.21287e-05
9.27012e-05
9.27092e-05
9.39416e-05
9.29139e-05
9.29222e-05
8.86627e-05
9.03335e-05
8.96121e-05
8.83216e-05
8.84477e-05
9.00373e-05
8.85438e-05
8.88435e-05
7.91674e-05
8.59342e-05
8.95413e-05
8.97468e-05
8.86254e-05
8.62177e-05
8.8656e-05
9.033e-05
8.96022e-05
8.83194e-05
8.8441e-05
9.00286e-05
8.85416e-05
8.88337e-05
7.91606e-05
8.59168e-05
8.9532e-05
8.86155e-05
8.62132e-05
8.97391e-05
9.42267e-05
9.21225e-05
9.2701e-05
9.26977e-05
9.29193e-05
9.39438e-05
9.29122e-05
8.86593e-05
9.03308e-05
8.96089e-05
8.83216e-05
8.84442e-05
9.00354e-05
8.85435e-05
8.88389e-05
7.91626e-05
8.59258e-05
8.95365e-05
8.97422e-05
8.86206e-05
8.62186e-05
8.86556e-05
9.03269e-05
8.83213e-05
8.95998e-05
8.84411e-05
8.85431e-05
9.00253e-05
8.88303e-05
7.91566e-05
8.59238e-05
8.9523e-05
8.86127e-05
8.62009e-05
8.97277e-05
8.88388e-05
7.91674e-05
8.59315e-05
8.9536e-05
8.86193e-05
8.97444e-05
8.62167e-05
9.42038e-05
9.21216e-05
9.26905e-05
9.26886e-05
9.29017e-05
9.39102e-05
9.29e-05
8.83237e-05
8.96099e-05
8.84456e-05
8.59369e-05
8.95317e-05
8.86206e-05
2.35518e-05
2.35505e-05
9.43207e-05
6.77649e-05
6.77594e-05
8.19305e-05
4.96814e-05
9.12448e-05
9.48676e-05
8.00864e-05
0.000102388
8.19268e-05
9.1104e-05
0.00010238
2.35521e-05
2.35508e-05
7.51123e-05
2.14633e-05
2.14617e-05
2.14637e-05
2.14611e-05
7.50792e-05
8.61631e-05
4.74649e-05
9.13556e-05
6.78644e-05
4.74724e-05
8.59824e-05
9.1673e-05
8.61892e-05
4.74629e-05
9.1357e-05
6.78619e-05
4.74636e-05
9.16752e-05
8.59954e-05
3.62085e-05
8.0142e-05
4.04476e-05
8.20929e-05
8.02603e-05
4.0448e-05
3.62085e-05
2.01148e-05
7.24564e-05
4.96832e-05
7.251e-05
2.01148e-05
3.62064e-05
4.04473e-05
8.20906e-05
8.01283e-05
4.04477e-05
8.02526e-05
3.62063e-05
0.000118835
9.09329e-05
9.09297e-05
7.94572e-05
8.14477e-05
9.09269e-05
9.39417e-05
0.000102918
8.14493e-05
9.27087e-05
0.000102925
9.39389e-05
9.27042e-05
2.35528e-05
9.31144e-05
0.000142254
9.42095e-05
9.10469e-05
9.10442e-05
7.94936e-05
8.14954e-05
9.1043e-05
8.14982e-05
0.000143826
0.000143818
0.000143836
2.35511e-05
9.42254e-05
7.95036e-05
2.35549e-05
2.35531e-05
6.74707e-05
6.74661e-05
9.27154e-05
8.14526e-05
4.9679e-05
8.14499e-05
4.96766e-05
7.94623e-05
9.39139e-05
0.000102911
7.94583e-05
0.000102912
9.39187e-05
2.35545e-05
6.74678e-05
9.27153e-05
6.74665e-05
2.3553e-05
4.96746e-05
8.14498e-05
9.09294e-05
9.39371e-05
0.000102918
4.96714e-05
9.39216e-05
0.000102915
7.94576e-05
0.000102922
7.9458e-05
9.09298e-05
4.96744e-05
8.14512e-05
9.39156e-05
9.09269e-05
7.9456e-05
4.96718e-05
2.35524e-05
6.74689e-05
6.74769e-05
2.35539e-05
9.39473e-05
7.9466e-05
0.000102925
4.96753e-05
6.7466e-05
6.74952e-05
6.7505e-05
2.35526e-05
4.96759e-05
8.15014e-05
4.96796e-05
8.18843e-05
4.96845e-05
2.35535e-05
2.3552e-05
4.96753e-05
8.14989e-05
8.18827e-05
4.96807e-05
0.000143012
0.000142227
0.000102717
7.94939e-05
9.10469e-05
9.452e-05
8.00458e-05
2.35537e-05
2.3553e-05
2.35518e-05
2.35517e-05
6.74972e-05
6.74933e-05
9.31115e-05
9.38972e-05
6.77356e-05
6.77318e-05
8.14986e-05
4.96776e-05
8.18813e-05
4.96812e-05
7.94982e-05
9.42044e-05
0.000102711
9.21099e-05
9.45149e-05
8.00531e-05
0.000102529
7.94943e-05
0.000102708
9.42067e-05
9.21061e-05
9.44978e-05
8.00428e-05
0.000102526
8.19322e-05
4.96851e-05
8.19292e-05
9.22194e-05
9.48533e-05
8.00911e-05
0.000102387
9.22157e-05
0.000102374
6.74919e-05
9.3114e-05
6.74942e-05
9.38873e-05
6.77252e-05
6.77245e-05
2.35516e-05
2.35521e-05
9.10444e-05
9.42158e-05
0.000102711
9.07543e-05
9.45368e-05
8.00493e-05
0.000102538
4.9672e-05
4.96767e-05
8.18803e-05
9.41998e-05
0.000102708
7.94948e-05
9.08756e-05
9.45013e-05
9.06241e-05
0.000102532
4.96747e-05
8.14999e-05
4.9681e-05
9.1045e-05
7.47918e-05
2.14683e-05
2.14653e-05
2.1468e-05
2.14649e-05
7.48667e-05
7.47919e-05
2.14669e-05
2.14663e-05
2.14658e-05
2.14667e-05
7.48503e-05
3.62096e-05
4.04482e-05
7.97495e-05
8.12741e-05
4.04477e-05
7.96175e-05
3.62097e-05
3.62108e-05
4.04489e-05
7.97481e-05
8.12775e-05
4.04485e-05
7.96242e-05
3.62108e-05
2.35528e-05
7.49915e-05
2.14671e-05
2.1464e-05
7.49014e-05
2.14673e-05
2.14642e-05
7.49762e-05
2.1466e-05
2.14648e-05
7.48823e-05
2.14662e-05
2.14653e-05
3.62086e-05
4.04476e-05
7.97909e-05
8.1666e-05
3.62085e-05
4.04481e-05
7.99206e-05
3.62098e-05
4.04484e-05
7.97968e-05
8.16673e-05
3.62097e-05
4.04488e-05
7.99196e-05
2.35513e-05
2.35547e-05
2.35528e-05
8.5199e-05
4.74534e-05
9.02905e-05
6.73721e-05
4.74487e-05
9.00074e-05
8.53658e-05
8.52247e-05
4.74422e-05
9.03144e-05
6.73674e-05
4.74375e-05
8.99859e-05
8.54098e-05
3.62124e-05
4.04496e-05
7.97581e-05
8.12808e-05
4.04491e-05
7.96335e-05
3.62125e-05
2.01215e-05
7.23009e-05
4.96769e-05
7.22439e-05
2.01214e-05
3.62103e-05
4.04495e-05
7.97474e-05
8.12781e-05
4.0449e-05
7.96234e-05
3.62103e-05
2.01199e-05
7.22812e-05
4.96741e-05
7.22241e-05
2.01198e-05
2.3554e-05
8.52486e-05
4.74541e-05
9.03286e-05
6.73684e-05
9.00057e-05
4.74449e-05
8.54165e-05
8.51967e-05
4.74398e-05
9.02942e-05
6.73677e-05
4.74402e-05
9.00117e-05
8.53703e-05
2.35532e-05
2.01212e-05
7.22997e-05
4.96725e-05
7.22422e-05
2.01211e-05
3.62118e-05
7.97547e-05
4.04485e-05
8.12776e-05
7.96303e-05
4.04481e-05
3.62118e-05
2.012e-05
7.22791e-05
4.96693e-05
7.2222e-05
2.01199e-05
2.01212e-05
7.22959e-05
4.96727e-05
7.22376e-05
2.01212e-05
3.62121e-05
7.97585e-05
4.04486e-05
8.12794e-05
7.96272e-05
4.04481e-05
3.62121e-05
2.01203e-05
7.22812e-05
4.96702e-05
7.22241e-05
2.01203e-05
2.35521e-05
8.52329e-05
9.03216e-05
6.73623e-05
4.74427e-05
8.9985e-05
4.7438e-05
8.54438e-05
8.52053e-05
9.03315e-05
6.73722e-05
4.74537e-05
4.7449e-05
8.99885e-05
8.54165e-05
7.48283e-05
2.14649e-05
2.14682e-05
2.14649e-05
2.14682e-05
7.48869e-05
2.35536e-05
3.62135e-05
8.123e-05
7.95853e-05
4.0449e-05
2.01211e-05
4.96732e-05
7.2296e-05
7.22373e-05
2.01211e-05
2.01234e-05
4.96727e-05
7.22235e-05
8.51929e-05
9.03143e-05
6.73638e-05
4.74417e-05
8.54044e-05
8.99783e-05
4.74412e-05
8.56854e-05
9.04528e-05
6.75974e-05
4.74444e-05
4.74489e-05
8.54862e-05
9.07743e-05
8.56583e-05
9.04559e-05
4.74554e-05
6.76055e-05
9.07839e-05
8.54576e-05
4.746e-05
7.49491e-05
2.14633e-05
2.14667e-05
2.14634e-05
7.49021e-05
2.14668e-05
2.35528e-05
2.0119e-05
7.23094e-05
4.9678e-05
7.23673e-05
2.0119e-05
3.62114e-05
4.0449e-05
7.98059e-05
8.16701e-05
3.62113e-05
4.04495e-05
7.99296e-05
2.01193e-05
7.23162e-05
4.96818e-05
2.01193e-05
7.23735e-05
3.621e-05
8.17183e-05
4.04493e-05
8.00977e-05
4.04489e-05
7.99752e-05
3.62101e-05
2.01169e-05
4.96824e-05
7.24435e-05
7.23866e-05
2.01169e-05
2.35537e-05
2.35523e-05
2.0119e-05
7.23148e-05
4.96776e-05
2.0119e-05
7.23721e-05
3.62107e-05
7.98035e-05
4.0448e-05
8.16683e-05
3.62107e-05
7.99264e-05
4.04484e-05
3.62096e-05
8.17168e-05
8.00952e-05
4.04483e-05
7.99744e-05
4.04478e-05
3.62096e-05
2.01169e-05
4.96784e-05
7.2442e-05
7.23865e-05
2.01169e-05
2.3554e-05
2.35527e-05
2.35523e-05
2.35514e-05
8.56246e-05
4.74555e-05
9.04303e-05
6.7601e-05
8.54333e-05
4.74605e-05
9.07257e-05
8.56557e-05
4.74444e-05
9.04031e-05
6.75958e-05
8.54524e-05
4.745e-05
9.07451e-05
7.50182e-05
2.14652e-05
2.14634e-05
2.14656e-05
2.14629e-05
7.50695e-05
8.57231e-05
6.76303e-05
4.74633e-05
9.12056e-05
4.74616e-05
9.08873e-05
8.59142e-05
8.57439e-05
6.76245e-05
4.74612e-05
9.12271e-05
4.74532e-05
9.08681e-05
8.59586e-05
3.62092e-05
4.04489e-05
7.97961e-05
8.16671e-05
3.62092e-05
4.04494e-05
7.99181e-05
2.01176e-05
7.22968e-05
4.96795e-05
2.01177e-05
7.2353e-05
3.62081e-05
8.17152e-05
4.04492e-05
8.00867e-05
4.04488e-05
7.9966e-05
3.62081e-05
2.01156e-05
4.96797e-05
7.24235e-05
7.23682e-05
2.01155e-05
3.6209e-05
4.04487e-05
8.01432e-05
8.20954e-05
3.62089e-05
4.04491e-05
8.02628e-05
2.01149e-05
7.24554e-05
4.96872e-05
2.01149e-05
7.25108e-05
3.6207e-05
4.04486e-05
8.01339e-05
8.20925e-05
3.6207e-05
4.0449e-05
8.02528e-05
8.56587e-05
4.74568e-05
9.04164e-05
6.75985e-05
8.54452e-05
4.74606e-05
9.07421e-05
8.56167e-05
4.74408e-05
9.04283e-05
6.75871e-05
8.54311e-05
9.07163e-05
4.74474e-05
7.50033e-05
2.14633e-05
2.14651e-05
2.1464e-05
2.14645e-05
7.50709e-05
8.57025e-05
6.76196e-05
4.7458e-05
9.1197e-05
4.74579e-05
9.08594e-05
8.59377e-05
8.56987e-05
6.762e-05
4.74643e-05
9.11893e-05
9.08613e-05
4.74541e-05
8.59211e-05
2.35523e-05
2.35515e-05
2.01178e-05
7.22942e-05
4.9674e-05
2.01178e-05
7.23504e-05
2.01157e-05
4.96746e-05
7.24204e-05
7.2365e-05
2.01156e-05
3.62074e-05
8.17131e-05
8.00881e-05
4.04479e-05
4.04475e-05
7.99613e-05
3.62075e-05
2.0119e-05
7.23087e-05
4.96773e-05
2.0119e-05
7.23675e-05
3.6211e-05
7.97998e-05
4.0448e-05
8.16691e-05
3.6211e-05
7.99293e-05
4.04484e-05
2.01169e-05
4.96784e-05
7.2438e-05
7.23805e-05
2.01169e-05
9.52018e-05
9.59149e-05
9.52134e-05
9.45196e-05
9.54212e-05
9.61974e-05
9.54285e-05
9.11045e-05
9.22192e-05
9.17235e-05
9.14612e-05
9.26901e-05
9.214e-05
9.13304e-05
9.1342e-05
9.18945e-05
8.75949e-05
9.15607e-05
8.03386e-05
9.20991e-05
8.79089e-05
9.22164e-05
9.12417e-05
9.17124e-05
9.14566e-05
9.26842e-05
9.13292e-05
9.21264e-05
0.000143826
0.000143839
0.000168176
8.91431e-05
9.05702e-05
8.92312e-05
9.04521e-05
9.01484e-05
8.9008e-05
8.93579e-05
8.91366e-05
9.0562e-05
8.92291e-05
9.04495e-05
9.01403e-05
8.90057e-05
8.93518e-05
8.93034e-05
8.66444e-05
9.03311e-05
7.91996e-05
9.01315e-05
8.63483e-05
8.952e-05
8.91346e-05
8.92295e-05
9.05619e-05
9.04459e-05
8.90063e-05
9.01371e-05
8.935e-05
9.44189e-05
9.35347e-05
9.25167e-05
9.3533e-05
9.33209e-05
9.33191e-05
9.47172e-05
9.44237e-05
9.35173e-05
9.25122e-05
9.35467e-05
9.46953e-05
9.33077e-05
9.33329e-05
9.52055e-05
9.39586e-05
9.33075e-05
9.39566e-05
9.41688e-05
9.49226e-05
9.41707e-05
0.000117565
0.000118185
0.000143011
0.000143031
0.000142238
0.000166835
0.000167504
9.00557e-05
9.06771e-05
8.97009e-05
9.15238e-05
8.98411e-05
9.10971e-05
8.99248e-05
9.00497e-05
9.06687e-05
8.96988e-05
9.15206e-05
8.9835e-05
9.10875e-05
8.99225e-05
9.01974e-05
8.67666e-05
9.07098e-05
7.97517e-05
8.99816e-05
8.7069e-05
9.09098e-05
9.00499e-05
8.96992e-05
9.06706e-05
9.15209e-05
8.98338e-05
8.99235e-05
9.10922e-05
0.000118834
0.000143837
0.000168174
0.000118825
0.000143835
0.000168169
0.000118833
0.000143821
0.000168171
9.02035e-05
9.07259e-05
8.67838e-05
7.97591e-05
8.99857e-05
9.09295e-05
8.70617e-05
9.44048e-05
9.35319e-05
9.35407e-05
9.25265e-05
9.33284e-05
9.33371e-05
9.46735e-05
8.93084e-05
8.66442e-05
9.03354e-05
7.92044e-05
9.0136e-05
8.63563e-05
8.95248e-05
8.92998e-05
8.66396e-05
9.03343e-05
7.91995e-05
8.63399e-05
9.0133e-05
8.95169e-05
9.44172e-05
9.35552e-05
9.35322e-05
9.25241e-05
9.33478e-05
9.33292e-05
9.4684e-05
8.91391e-05
9.0568e-05
8.92302e-05
9.04486e-05
9.01444e-05
8.90071e-05
8.93541e-05
8.92941e-05
8.66324e-05
9.03245e-05
7.91967e-05
8.635e-05
9.01187e-05
8.95121e-05
8.93051e-05
9.03379e-05
8.66425e-05
7.9202e-05
9.01377e-05
8.63551e-05
8.95227e-05
8.91406e-05
8.92323e-05
9.05694e-05
9.04515e-05
9.01474e-05
8.90089e-05
8.93562e-05
8.91384e-05
8.92318e-05
9.05615e-05
9.04488e-05
8.90089e-05
9.01399e-05
8.93532e-05
8.9299e-05
9.03265e-05
8.66382e-05
7.91966e-05
8.63448e-05
9.01228e-05
8.95166e-05
8.86605e-05
9.03319e-05
8.85457e-05
9.00347e-05
8.93024e-05
9.03334e-05
7.9205e-05
8.66383e-05
8.95202e-05
9.01278e-05
8.63628e-05
8.88381e-05
7.91658e-05
8.97364e-05
8.62074e-05
0.000118184
0.000143029
0.000117553
0.000142234
0.000142248
0.000166833
0.000167504
0.000143028
0.000118181
0.000143012
0.000142245
0.000117553
0.000166829
0.0001675
9.02006e-05
9.07168e-05
8.67706e-05
7.9749e-05
8.99858e-05
9.0914e-05
8.70642e-05
9.00544e-05
8.97019e-05
9.06762e-05
9.1522e-05
8.98396e-05
9.1096e-05
8.99258e-05
9.06607e-05
7.97882e-05
8.74851e-05
9.14941e-05
9.1292e-05
8.71848e-05
9.08762e-05
9.51725e-05
9.3932e-05
9.3941e-05
9.32993e-05
9.48751e-05
9.41382e-05
9.41475e-05
9.47631e-05
9.57029e-05
9.47863e-05
9.53923e-05
9.37034e-05
9.45576e-05
9.45565e-05
9.02024e-05
8.67735e-05
9.07139e-05
7.97577e-05
8.99865e-05
8.70689e-05
9.09142e-05
9.05414e-05
9.16351e-05
9.16218e-05
9.06239e-05
9.12027e-05
9.03993e-05
9.07571e-05
9.15035e-05
9.0664e-05
7.97953e-05
8.74905e-05
8.71907e-05
9.12988e-05
9.08816e-05
9.01942e-05
8.6756e-05
9.07132e-05
7.97516e-05
8.99782e-05
8.7062e-05
9.09117e-05
9.05346e-05
9.16318e-05
9.16102e-05
9.06213e-05
9.11924e-05
9.03969e-05
9.07497e-05
9.06531e-05
7.97857e-05
8.74832e-05
9.14901e-05
8.717e-05
9.08697e-05
9.12879e-05
9.14633e-05
9.17253e-05
9.11035e-05
9.26914e-05
9.12469e-05
9.21414e-05
9.13294e-05
9.1896e-05
9.2101e-05
8.03419e-05
9.15654e-05
8.76039e-05
9.13471e-05
8.79051e-05
9.14543e-05
9.17148e-05
9.11005e-05
9.26871e-05
9.12385e-05
9.21293e-05
9.13263e-05
9.51613e-05
9.39549e-05
9.39328e-05
9.33002e-05
9.48697e-05
9.41367e-05
9.41547e-05
9.53657e-05
9.36985e-05
9.47589e-05
9.47597e-05
9.45455e-05
9.45494e-05
9.56818e-05
9.0052e-05
9.06737e-05
8.96997e-05
9.15229e-05
8.98368e-05
9.10967e-05
8.99238e-05
9.06243e-05
9.21106e-05
9.16223e-05
9.05383e-05
9.16351e-05
9.12009e-05
9.03991e-05
9.0877e-05
9.15004e-05
8.74926e-05
9.06593e-05
7.97912e-05
8.7183e-05
9.12937e-05
9.01952e-05
8.67708e-05
9.07167e-05
7.97501e-05
8.99772e-05
9.09206e-05
8.70557e-05
8.74709e-05
8.00371e-05
9.06594e-05
7.97855e-05
9.1504e-05
9.13056e-05
8.71828e-05
9.21069e-05
9.07529e-05
9.16128e-05
9.05373e-05
9.16339e-05
9.0399e-05
9.11961e-05
9.00522e-05
8.97014e-05
9.06717e-05
9.15202e-05
8.98368e-05
8.99255e-05
9.10909e-05
7.09461e-05
0.000115796
9.55638e-05
9.55781e-05
9.55629e-05
0.000113734
9.72238e-05
9.7227e-05
9.8097e-05
0.000112
9.91818e-05
9.91774e-05
0.000100715
0.000110741
0.000101325
0.000101354
0.000103403
0.000109596
0.000103808
0.00010378
0.000106065
0.000109228
0.000106255
0.00010637
0.000108812
0.000108876
0.000109191
0.000109001
0.000111513
0.000108921
0.000112178
9.51489e-05
9.52092e-05
9.51858e-05
9.55761e-05
9.7643e-05
9.55491e-05
9.55464e-05
9.67637e-05
9.67766e-05
9.55682e-05
9.76583e-05
9.556e-05
9.55548e-05
9.67744e-05
9.67521e-05
9.55519e-05
9.68032e-05
9.6773e-05
9.55529e-05
9.76424e-05
9.55692e-05
9.6775e-05
9.67862e-05
9.76511e-05
9.81101e-05
0.00010026
9.72289e-05
9.7208e-05
9.86544e-05
9.86263e-05
9.81122e-05
0.000100226
9.72392e-05
9.7205e-05
9.86662e-05
9.86491e-05
9.72247e-05
9.86524e-05
9.86263e-05
9.80773e-05
0.000100283
9.72394e-05
9.867e-05
9.86395e-05
0.000100258
0.000100713
0.000102901
9.9132e-05
9.91687e-05
0.0001008
0.000100756
0.000100696
0.000102917
9.91423e-05
9.91549e-05
0.00010081
0.000100767
9.91469e-05
0.000100786
0.000100818
0.000100737
0.000102905
9.91605e-05
0.000100789
0.000100828
0.000102933
0.000103386
0.00010559
0.000101402
0.000101315
0.00010306
0.000103147
0.000103371
0.000105614
0.000101412
0.000101334
0.00010307
0.000103153
0.000101349
0.000103179
0.000103087
0.000103387
0.000105604
0.000101363
0.000103173
0.000103094
0.000105561
0.000106053
0.00010838
0.000103672
0.000103797
0.000105819
0.000105604
0.000106112
0.00010827
0.000103679
0.000103756
0.00010583
0.000105642
0.000103779
0.000105635
0.000105725
0.000106084
0.000108305
0.000103788
0.000105661
0.000105734
0.00010836
0.000108888
0.000110899
0.000106442
0.000106258
0.000108183
0.000108425
0.000108744
0.000111065
0.000106455
0.000106356
0.000108192
0.000108367
0.000106282
0.000108468
0.000108347
0.00010879
0.000111051
0.0001063
0.000108392
0.000108348
0.000110973
0.000111377
0.000113944
0.000108963
0.00010918
0.000111431
8.73942e-05
0.000111584
7.09314e-05
0.000108966
0.000108971
0.00011144
0.000111308
0.000109165
0.00011119
0.000111532
0.000113784
0.000109169
0.000111321
8.7416e-05
0.000112169
0.00011433
2.3553e-05
8.27074e-05
4.96905e-05
8.23495e-05
4.96957e-05
2.35486e-05
2.35484e-05
8.27063e-05
4.96862e-05
8.23461e-05
4.96914e-05
0.000164832
0.000115789
0.000115792
0.0001142
0.000114224
0.000114207
0.000114209
9.43878e-05
9.27035e-05
0.000102168
9.59654e-05
9.2664e-05
8.11741e-05
0.000102101
2.35473e-05
2.3547e-05
9.43937e-05
0.000102172
9.3049e-05
9.59572e-05
0.000102102
8.118e-05
9.26615e-05
6.80023e-05
6.80006e-05
9.63835e-05
6.8221e-05
6.82195e-05
8.34841e-05
4.97023e-05
8.31451e-05
4.97077e-05
2.35462e-05
2.35462e-05
8.3484e-05
4.9698e-05
8.31446e-05
4.97034e-05
0.000113726
0.000113727
0.000113743
0.000112432
0.000112404
0.000112413
0.000112386
9.65752e-05
8.17615e-05
0.000102049
9.76696e-05
9.5594e-05
8.22479e-05
0.000102075
2.35449e-05
2.3545e-05
9.65791e-05
0.00010205
8.17503e-05
9.76986e-05
9.5588e-05
0.000102084
8.22636e-05
6.84835e-05
6.84803e-05
9.89451e-05
6.86989e-05
6.86962e-05
8.4219e-05
4.97149e-05
8.38971e-05
4.97208e-05
2.35448e-05
2.35451e-05
8.42189e-05
4.97106e-05
8.38991e-05
4.97165e-05
0.000112027
0.000112026
0.00011201
0.000110997
0.00011098
0.000110962
0.000111017
9.86758e-05
8.28107e-05
0.000102337
9.9726e-05
9.77304e-05
8.32912e-05
0.000102479
2.35433e-05
2.35438e-05
9.86786e-05
0.000102344
8.28044e-05
9.97016e-05
9.77297e-05
0.00010248
8.32816e-05
6.89409e-05
6.8937e-05
0.000101571
6.91522e-05
6.91474e-05
8.49188e-05
4.97287e-05
8.4613e-05
4.9735e-05
2.35442e-05
2.35451e-05
8.49215e-05
4.97244e-05
8.46157e-05
4.97307e-05
0.00011065
0.00011065
0.000110696
0.000109834
0.000109925
0.000109949
0.000109832
0.000100692
8.38062e-05
0.000103005
0.000101914
9.97983e-05
8.42687e-05
0.000103219
2.35428e-05
2.35436e-05
0.000100701
0.000103013
8.38194e-05
0.000101946
9.97929e-05
0.000103241
8.42681e-05
6.93852e-05
6.93822e-05
0.000104231
6.9569e-05
6.95639e-05
8.55913e-05
4.97436e-05
8.52969e-05
4.97507e-05
2.35447e-05
2.35458e-05
8.55937e-05
4.97393e-05
8.52982e-05
4.97465e-05
0.000109753
0.00010972
0.00010971
0.000109358
0.000109151
0.000109155
0.000109278
0.000102655
8.47889e-05
0.00010408
0.000104442
0.000101792
8.52122e-05
0.000104402
2.35434e-05
2.35445e-05
0.000102656
0.000104066
8.47807e-05
0.000104378
0.000101783
0.00010437
8.52187e-05
6.98186e-05
6.98147e-05
0.000107004
7.00011e-05
6.99971e-05
8.62378e-05
4.97598e-05
8.59543e-05
4.97667e-05
2.35463e-05
2.35478e-05
8.62389e-05
4.97554e-05
8.59589e-05
4.97624e-05
0.000108987
0.000109108
0.000109064
0.000108671
0.00010894
0.000108883
0.00010879
0.000104535
8.56988e-05
0.00010539
0.000106952
0.000103715
8.61249e-05
0.00010577
2.35448e-05
2.35464e-05
0.00010454
0.000105446
8.57016e-05
0.000107085
0.000103716
0.000105856
8.61276e-05
7.02036e-05
7.01995e-05
0.000109603
7.03741e-05
7.03689e-05
8.68712e-05
4.97781e-05
8.65891e-05
4.97865e-05
2.35486e-05
2.35504e-05
8.68713e-05
4.97739e-05
8.65894e-05
4.97822e-05
0.00012339
0.000108683
0.000108946
0.000108732
0.000108926
0.000109121
0.000108964
0.000106395
8.66149e-05
0.000107176
0.000109899
0.000105585
8.70214e-05
0.000107655
2.35471e-05
2.35494e-05
0.000106384
0.00010709
8.6603e-05
0.000109677
0.00010558
0.00010754
8.69888e-05
7.0624e-05
7.06202e-05
0.000112501
7.07929e-05
7.07867e-05
0.000122914
0.000109133
0.000109202
2.35507e-05
8.74862e-05
2.35513e-05
2.35494e-05
6.79835e-05
6.79774e-05
4.96856e-05
8.22995e-05
8.06172e-05
0.000102266
9.32612e-05
4.96822e-05
8.22976e-05
4.96774e-05
9.48305e-05
0.00010226
9.24503e-05
9.32562e-05
9.20749e-05
2.35501e-05
2.35499e-05
2.35482e-05
2.3548e-05
6.80079e-05
6.8001e-05
9.63667e-05
6.82228e-05
6.82164e-05
2.35488e-05
2.35489e-05
2.35468e-05
2.3547e-05
9.67941e-05
6.84755e-05
6.84686e-05
6.82501e-05
6.82439e-05
8.27046e-05
4.96869e-05
8.23468e-05
4.96921e-05
9.43908e-05
9.30546e-05
0.000102164
9.59213e-05
9.26668e-05
8.11734e-05
0.000102082
9.4387e-05
9.30511e-05
0.000102156
9.59396e-05
9.26588e-05
8.11684e-05
0.000102088
8.27518e-05
4.97017e-05
4.96964e-05
8.31017e-05
8.2749e-05
4.96979e-05
4.96927e-05
8.30989e-05
9.44893e-05
9.6326e-05
8.17293e-05
0.000102021
8.121e-05
0.000102041
9.54971e-05
9.44866e-05
9.6361e-05
8.17198e-05
0.000102029
8.12045e-05
0.000102048
9.54934e-05
6.80041e-05
6.80096e-05
9.63869e-05
6.82173e-05
6.82216e-05
2.35495e-05
2.35492e-05
2.35472e-05
2.35473e-05
9.68208e-05
6.84645e-05
6.84705e-05
6.82439e-05
6.82482e-05
2.3548e-05
2.35481e-05
9.43903e-05
8.06519e-05
0.000102164
9.59325e-05
9.33629e-05
8.11684e-05
0.00010209
8.27042e-05
4.96828e-05
8.2343e-05
4.96878e-05
9.43871e-05
0.000102159
9.30391e-05
9.59343e-05
9.33626e-05
0.00010209
8.11703e-05
8.27523e-05
4.96973e-05
4.96921e-05
8.31e-05
9.44891e-05
9.63363e-05
8.17236e-05
0.000102028
8.12051e-05
0.000102039
9.54936e-05
8.27487e-05
4.96939e-05
4.96884e-05
8.30968e-05
9.44884e-05
9.63289e-05
0.000102028
8.1705e-05
0.000102041
8.1204e-05
9.54869e-05
8.2707e-05
4.96878e-05
8.23481e-05
4.9693e-05
9.43863e-05
0.000102167
9.30445e-05
9.59321e-05
9.26614e-05
0.000102093
8.1172e-05
8.27053e-05
4.96848e-05
8.23464e-05
4.96898e-05
9.44917e-05
9.63775e-05
8.17261e-05
0.000102043
8.12104e-05
0.000102063
9.54944e-05
8.27528e-05
4.96989e-05
4.96937e-05
8.31017e-05
9.44909e-05
9.63411e-05
0.000102039
8.1714e-05
0.000102054
8.12071e-05
9.54907e-05
8.27511e-05
4.96958e-05
4.96905e-05
8.30999e-05
6.80041e-05
6.80132e-05
9.63944e-05
6.82197e-05
6.82298e-05
2.35491e-05
2.35487e-05
2.35458e-05
2.35459e-05
9.68363e-05
6.84489e-05
6.84587e-05
6.82427e-05
6.82528e-05
2.35476e-05
2.35476e-05
9.43897e-05
0.000102171
9.30406e-05
9.59475e-05
0.000102099
8.11702e-05
9.26594e-05
8.27072e-05
4.96869e-05
4.96919e-05
8.23473e-05
8.27048e-05
4.96832e-05
4.96883e-05
8.23447e-05
9.44923e-05
9.63524e-05
0.000102041
8.17143e-05
0.000102057
8.1214e-05
9.54947e-05
9.44901e-05
9.6357e-05
0.000102044
8.17109e-05
0.000102058
8.12056e-05
9.54916e-05
8.27531e-05
4.9698e-05
4.96926e-05
8.31008e-05
8.27509e-05
4.96942e-05
4.96889e-05
8.30985e-05
2.35486e-05
2.35482e-05
2.35475e-05
2.35472e-05
9.68222e-05
6.84581e-05
6.84551e-05
6.82461e-05
6.82447e-05
2.35471e-05
2.35472e-05
2.35461e-05
2.35462e-05
2.35477e-05
2.35477e-05
2.35458e-05
2.35458e-05
6.85003e-05
6.84932e-05
9.89736e-05
6.86998e-05
6.8693e-05
2.35471e-05
2.35468e-05
2.35452e-05
2.35449e-05
9.94281e-05
6.89296e-05
6.89229e-05
6.87233e-05
6.87166e-05
8.3481e-05
4.96986e-05
8.31423e-05
4.97041e-05
9.65796e-05
8.17653e-05
0.000102044
9.7706e-05
9.55919e-05
8.22574e-05
0.000102083
9.65744e-05
8.1755e-05
0.000102035
9.76431e-05
9.55893e-05
8.22417e-05
0.000102065
8.35263e-05
4.97141e-05
4.97085e-05
8.3856e-05
8.35232e-05
4.97106e-05
4.97048e-05
8.38531e-05
9.66708e-05
9.81832e-05
8.27757e-05
0.00010222
8.22912e-05
0.000102149
9.76387e-05
9.66666e-05
9.8123e-05
8.27675e-05
0.000102209
8.22747e-05
0.000102121
9.76339e-05
6.84885e-05
6.84949e-05
9.89457e-05
6.86845e-05
6.86903e-05
2.3547e-05
2.3547e-05
2.35456e-05
2.35453e-05
9.93883e-05
6.89245e-05
6.89307e-05
6.87077e-05
6.87135e-05
2.35465e-05
2.35461e-05
9.65772e-05