/*--------------------------------*- C++ -*----------------------------------*\
| =========                 |                                                 |
| \\      /  F ield         | OpenFOAM: The Open Source CFD Toolbox           |
|  \\    /   O peration     | Version:  v2006                                 |
|   \\  /    A nd           | Website:  www.openfoam.com                      |
|    \\/     M anipulation  |                                                 |
\*---------------------------------------------------------------------------*/
FoamFile
{
    version     2.0;
    format      ascii;
    class       surfaceScalarField;
    location    "375";
    object      phi;
}
// * * * * * * * * * * * * * * * * * * * * * * * * * * * * * * * * * * * * * //

dimensions      [0 3 -1 0 0 0 0];
oriented        oriented;


internalField   nonuniform List<scalar> 
40970
(
1.91414e-08
-0.000231507
-5.10349e-09
-3.76822e-11
0.000231493
7.60066e-09
5.3114e-09
-7.43534e-09
-0.000193766
0.000193761
1.91472e-08
-2.14688e-10
-0.000231503
1.53437e-10
-5.10755e-09
0.000231489
7.62143e-09
5.26076e-09
-7.40695e-09
-0.000193746
0.000193741
3.62033e-09
-9.76597e-05
9.76636e-05
3.63985e-09
-9.76487e-05
9.76527e-05
-1.20441e-06
-1.164e-06
-0.000273436
1.53457e-07
1.61228e-07
0.000275489
-4.9793e-09
9.94763e-09
-0.000279302
2.07268e-08
0.00027928
-5.03997e-09
9.45062e-09
-0.000279223
1.84198e-08
0.000279204
-0.000254933
-6.03969e-09
-8.025e-08
0.000255039
3.42399e-07
-1.45964e-06
1.70434e-07
-4.00149e-07
-1.09944e-06
1.08866e-07
-4.12292e-07
7.81215e-07
0.00114629
-1.34363e-09
-0.000247784
-3.70205e-08
0.000247822
-1.22643e-06
6.50959e-07
-1.05585e-06
8.45463e-07
0.00115684
-1.75763e-09
-0.000254923
-5.14163e-09
-8.02081e-08
0.000255029
3.4159e-07
-1.41676e-06
1.62178e-07
-3.91883e-07
-1.09643e-06
1.0633e-07
-4.09475e-07
7.75848e-07
0.0011473
1.12952e-09
-0.00024775
-3.71614e-08
0.000247786
-4.59558e-09
-1.22627e-06
6.50912e-07
-1.05586e-06
8.42444e-07
0.0011567
1.91926e-08
-0.000231464
-3.01043e-09
1.47592e-10
0.000231448
-0.0002549
-7.76485e-08
-4.98615e-09
0.000255
-1.22344e-06
6.5097e-07
-1.05589e-06
8.42594e-07
0.00115666
-4.25317e-10
3.62956e-08
0.000143263
-8.90562e-10
-3.94256e-08
-6.93816e-10
1.18035e-07
-0.000171076
-1.09566e-09
0.000171072
-0.000224948
-2.14108e-09
1.55747e-09
8.83153e-09
0.00022494
-9.31875e-10
1.11536e-07
-1.29733e-09
0.000143261
2.50224e-08
7.90432e-05
-0.000264023
7.44316e-09
-3.02136e-09
0.000264013
-1.19917e-08
-2.04015e-09
6.86827e-08
8.85582e-08
7.90493e-05
3.63227e-08
-2.46519e-10
0.00014326
-9.35917e-10
-1.21046e-09
-3.94821e-08
9.72809e-11
1.18077e-07
-0.000224945
-2.12879e-09
1.49482e-09
1.12291e-08
0.000224935
-0.000171071
-1.12017e-09
-2.81518e-11
0.000171067
-9.54343e-10
1.09117e-07
-2.09236e-12
-1.31718e-09
0.000143258
2.50057e-08
7.90427e-05
-0.00026402
7.5053e-09
-5.61586e-10
0.000264007
-1.19593e-08
-2.01903e-09
6.86216e-08
8.59942e-08
7.90489e-05
2.6014e-08
2.60256e-08
-1.45839e-08
-1.45988e-08
0.000214367
3.957e-08
3.7493e-08
-8.04923e-05
1.56518e-09
-3.00303e-09
8.04937e-05
-8.04744e-05
1.60201e-09
-2.95386e-09
8.04758e-05
9.19208e-09
9.0931e-09
1.08321e-08
1.2901e-08
0.000214346
-5.23184e-08
0.000223574
6.23385e-08
1.0541e-07
-0.000183282
1.31285e-08
0.000183275
-7.25055e-09
8.60829e-08
2.13853e-08
-1.64413e-08
-0.00025386
1.34606e-08
1.84727e-08
0.000253865
1.37861e-08
0.000223568
1.75054e-07
8.45703e-08
-5.42716e-08
0.000223502
6.20943e-08
1.0768e-07
-0.00018322
1.12823e-08
0.000183215
-6.56316e-09
8.83292e-08
2.13007e-08
-1.63703e-08
-0.000253745
1.3649e-08
2.11e-08
0.000253745
1.1919e-08
0.000223498
1.74675e-07
8.17322e-08
-3.97503e-10
3.83378e-08
0.000143187
-8.63023e-10
-4.15243e-08
-7.12593e-10
1.18034e-07
-0.000171035
-1.10145e-09
0.000171033
-0.000224848
2.50163e-11
1.53368e-09
8.81115e-09
0.000224838
-9.66276e-10
1.11421e-07
-1.29139e-09
0.000143187
2.5039e-08
7.89981e-05
-0.000263895
7.44913e-09
-3.10534e-09
0.000263885
8.85011e-08
7.90042e-05
0.000246048
2.18844e-07
2.1666e-07
-3.74475e-07
-3.82371e-07
5.03576e-08
-0.000265205
0.000265492
4.81535e-08
-0.00026563
0.000265919
0.000246173
-3.53551e-07
2.06197e-08
0.000271216
-3.80187e-08
-7.28934e-09
3.54948e-07
-0.000253737
-1.05495e-07
-6.95224e-09
0.000253853
-0.000271717
-2.32978e-08
0.000272311
-1.3091e-08
-3.82739e-08
0.000271971
-3.07328e-07
-5.46739e-08
0.000269299
-0.000254127
-1.11275e-07
0.000254227
1.88845e-08
2.12571e-07
-0.000264626
3.30759e-08
0.000264683
0.000269964
-3.58793e-07
2.39713e-08
0.000271213
-5.1199e-08
-8.10134e-09
3.55029e-07
5.44903e-10
-0.000253722
-1.10539e-07
-7.10741e-09
0.000253846
-0.000271714
-1.95196e-08
-7.48026e-09
0.000272311
-1.3208e-08
4.7615e-09
-2.50766e-08
0.000271951
-3.09793e-07
-5.45438e-08
0.000269309
-0.00025411
-1.14054e-07
0.000254217
1.64298e-08
2.12467e-07
-0.000264613
3.30784e-08
0.00026467
0.000269979
1.93802e-08
-3.56085e-07
0.00027115
-3.77716e-08
3.5244e-07
-6.6348e-09
-0.000271695
-2.11456e-08
0.000272282
-0.000253646
-1.08073e-07
-6.8964e-09
0.000253765
-1.29834e-08
-3.82166e-08
0.000271901
-3.12473e-07
0.000269223
-0.000254014
-1.16331e-07
0.000254122
0.00026988
7.1112e-09
-1.38697e-06
8.35252e-07
-3.19145e-07
1.99106e-07
-9.76668e-07
-3.23376e-07
1.16757e-06
2.09041e-07
2.57767e-07
-0.00114533
-0.00116356
2.07849e-08
-2.07963e-07
9.095e-07
-9.18703e-07
7.18783e-07
-1.08994e-06
5.03904e-07
0.00116362
-0.000273236
1.28059e-06
1.34895e-06
0.000271164
-2.71262e-07
-2.85813e-07
-1.99588e-07
-1.09843e-06
7.1158e-07
8.97033e-07
-9.21923e-07
5.37416e-07
-5.97063e-08
-0.00116342
9.01225e-11
-1.91435e-08
7.4974e-09
2.24107e-09
-0.000229253
0.000229262
1.20334e-06
0.00114544
-1.30135e-06
2.0501e-07
-2.94374e-07
-9.67469e-07
1.68744e-07
-2.93195e-07
8.26615e-07
-0.00114565
2.25723e-07
4.3718e-07
-1.23489e-06
2.10072e-07
-0.000271215
2.0685e-07
-6.25938e-09
-7.17303e-09
-9.71307e-05
9.71441e-05
3.755e-07
1.25489e-06
-3.09657e-07
1.94027e-07
8.1401e-07
-3.15619e-07
1.36425e-07
-9.75665e-07
4.11304e-07
0.00114513
9.01113e-07
-9.18791e-07
7.16035e-07
-1.09284e-06
-0.00116366
5.58091e-07
-1.48108e-08
-4.68043e-08
-0.000245405
1.50571e-07
8.83072e-09
0.000245307
-3.26761e-07
-2.38693e-07
0.000271162
-0.000273254
1.27061e-06
-1.51536e-08
-0.000277091
-7.83719e-09
6.81711e-08
0.000277031
2.38516e-09
-9.71567e-05
9.71392e-05
-0.000192422
-1.16731e-08
0.000192389
-0.00114507
1.24161e-06
-3.03956e-07
2.25641e-07
8.45962e-07
-2.86712e-07
2.15352e-07
-9.65565e-07
2.32974e-07
0.001145
-4.88631e-08
8.95216e-07
-9.18881e-07
-1.09303e-06
7.1007e-07
-1.78456e-07
-0.00116333
5.64304e-07
0.0011634
-8.05487e-10
-7.29239e-08
0.000251683
2.51341e-07
2.1587e-10
-0.000251861
-0.000277092
1.77022e-08
-1.53352e-08
5.21664e-08
-1.05861e-08
0.000277048
4.66381e-09
-1.48756e-08
1.15819e-08
-3.6931e-08
-0.000277056
-6.38617e-09
-9.71456e-05
1.66053e-08
1.19295e-09
-1.32145e-07
-7.476e-10
0.000251866
-0.000251751
9.61396e-09
-7.60552e-08
-8.5432e-09
-0.000245345
2.8077e-09
7.4921e-09
0.000229299
-0.000229292
-7.5932e-09
-0.000192411
-1.32132e-07
-1.81525e-09
-0.000251719
0.000251835
2.07777e-07
-1.35342e-06
-3.27716e-07
-9.8649e-07
1.60387e-07
8.23907e-07
-3.31285e-07
-0.00114511
4.17452e-07
1.21142e-08
1.20241e-08
-5.38706e-09
-6.70157e-08
-0.000245284
0.000245332
-7.07461e-09
-0.000192359
0.000192372
9.93736e-09
1.19374e-08
0.000245368
-6.73272e-08
-0.000245318
-5.11159e-09
6.15377e-09
0.00019238
-0.000192369
-6.96587e-09
-9.64306e-09
-0.000277005
8.07994e-09
0.000277012
5.0273e-09
-1.01647e-08
-0.000277086
1.10349e-08
9.71487e-05
-9.71375e-05
8.95725e-07
-9.18559e-07
7.10436e-07
-1.09229e-06
-0.00116332
5.09949e-07
0.00116354
-4.61712e-08
1.50574e-07
9.67848e-09
0.000245272
-7.03399e-08
0.000251659
2.53734e-07
-4.23634e-09
-0.000251839
-2.04174e-10
0.000229246
1.97747e-09
-2.27736e-08
-0.000229298
-2.47058e-09
-1.13871e-08
0.000192348
0.000229212
1.14169e-09
-2.28442e-08
-0.000229261
9.71309e-05
2.65276e-09
1.87249e-08
-8.63562e-08
1.64805e-08
-0.000221587
3.59448e-09
-5.26609e-09
4.82473e-09
-0.000277027
-1.06613e-08
-3.50642e-10
-0.000181983
-2.52985e-08
-0.000251217
1.0707e-09
0.000142326
-2.59713e-09
2.34396e-08
1.61666e-09
-0.000142349
1.25071e-09
-0.000169982
5.02555e-11
0.000169988
7.11908e-09
-0.000222881
4.5183e-09
-2.34201e-08
0.000222895
-2.31473e-08
1.11667e-09
7.37714e-08
1.99112e-10
-0.000229305
1.32425e-09
0.000142333
9.64058e-11
-0.000170007
2.12131e-09
7.41887e-08
-0.000222933
4.6023e-09
1.73293e-08
-9.71526e-05
-9.7138e-05
-6.46819e-09
1.05201e-09
-1.12502e-09
2.59911e-08
-0.000212767
-7.999e-05
-2.9624e-09
-7.99876e-05
-2.96758e-08
2.37779e-08
-0.00022158
-3.84617e-08
0.000181969
4.33703e-08
-9.33518e-09
-0.00018201
0.000251171
-7.72723e-08
6.2947e-08
2.03011e-07
-0.000251292
-4.21598e-08
8.36542e-09
7.30383e-09
-1.27805e-08
-1.15648e-08
-1.75832e-07
9.70904e-08
-8.3242e-08
-0.000221627
-6.39541e-09
-1.17687e-08
-7.85953e-05
-1.63493e-09
0.000262003
-2.17596e-08
-0.000262046
5.61775e-08
-3.19213e-09
-7.51978e-09
-1.24949e-08
-2.24225e-08
-7.37657e-09
-7.86152e-05
-1.78839e-09
-0.000221595
3.16304e-08
-1.84657e-09
2.70603e-08
-9.70255e-08
0.000221635
-5.12069e-08
0.000251236
-0.000251314
1.15162e-07
6.61417e-08
3.37745e-08
0.000181985
-0.000182021
-9.12125e-09
6.60164e-09
5.2148e-09
4.81047e-09
-8.10058e-09
0.000277039
-0.000221641
6.62189e-08
-3.82253e-08
7.34306e-09
9.44376e-09
0.000251258
-1.77025e-09
0.00018199
9.03204e-09
5.14039e-09
-2.07445e-08
0.000222986
-0.000222977
1.41818e-09
0.000170019
-0.000170013
1.66305e-09
0.000142401
-0.000142392
1.16252e-08
-2.43615e-08
-0.000262036
-7.86019e-05
7.85606e-05
1.95991e-08
-7.85786e-05
9.6385e-09
-0.000261913
-2.45645e-08
0.000261925
-1.12771e-08
5.13904e-08
-0.000192394
7.85715e-05
6.14817e-08
-0.000261964
1.95059e-08
7.85586e-05
-7.85766e-05
-1.54908e-09
-1.02373e-08
-2.90424e-09
4.4676e-08
-0.000192401
-0.000261921
9.66517e-09
0.000261934
-2.47898e-08
-4.38582e-09
5.40593e-08
-0.000261964
-1.89003e-09
7.85696e-05
-1.3118e-09
0.000221576
6.01538e-08
-3.77162e-08
-3.38441e-08
7.40896e-08
-0.000221639
-1.44774e-09
-0.000251143
-3.5306e-08
-5.27608e-09
0.000251175
6.45035e-08
-9.69939e-09
2.06495e-08
-0.000277064
-7.28026e-09
-0.000181972
5.03816e-09
0.000181982
9.16846e-10
-2.1196e-08
0.000221588
1.43826e-07
7.20703e-08
-0.000251234
-7.38448e-09
-0.000182012
0.000221626
2.52324e-08
-2.25029e-08
-1.01316e-08
4.85088e-08
-0.000221667
6.95139e-09
-0.000251283
-4.27227e-08
-5.27722e-09
3.58689e-08
-5.17005e-09
-1.52115e-08
1.15732e-08
-0.000277113
-7.85922e-09
-0.000182008
6.71132e-09
5.29649e-09
-2.115e-08
7.23699e-08
4.87135e-08
-0.000251343
-4.12849e-09
-0.000182032
0.000212804
-9.27534e-09
-8.75789e-09
-0.00021283
-2.24854e-09
-7.99965e-05
8.00038e-05
-2.98072e-09
-7.9998e-05
8.00077e-05
0.000212805
-8.00132e-05
-8.00109e-05
-9.71556e-05
-9.18245e-09
-0.000142378
-5.6975e-10
7.74916e-10
0.000142387
1.82755e-09
7.59895e-09
3.83223e-10
-1.96262e-08
0.000229256
0.000222938
-2.51415e-08
7.37312e-08
-0.000222987
2.18681e-09
2.28475e-09
0.000169995
3.41672e-10
-0.000170021
-2.36966e-08
3.72408e-09
0.000222951
-0.000142402
9.98751e-10
5.20366e-10
0.000170002
-7.85519e-05
-9.45664e-09
-1.65846e-09
7.8563e-05
-1.96725e-08
0.000261886
-2.68981e-09
5.84308e-08
-8.07021e-09
6.42532e-09
-7.35481e-09
0.000192357
-1.96208e-09
-3.19207e-09
-2.0047e-08
0.000261892
-0.000142307
-7.16166e-09
-1.7611e-09
0.000142315
3.02263e-09
7.66436e-09
-1.72228e-08
0.000229219
-2.32234e-08
0.000222848
7.09345e-08
-0.000222898
2.84013e-09
0.00016996
-0.000169985
-0.00014233
-1.89139e-08
0.00022286
0.000169966
9.71421e-05
-1.47999e-07
-0.000243594
-3.90339e-08
4.88053e-08
0.00024376
2.12577e-07
2.33753e-07
0.000273214
0.000262983
-1.39847e-07
-0.000263351
-6.6752e-08
-1.45662e-07
0.000262665
-0.000263
2.06885e-07
0.000263066
-0.000243765
-4.81915e-08
0.000263061
0.00024364
1.70375e-07
1.28423e-07
-0.000243816
8.00712e-08
-0.000263049
-2.84697e-07
-2.93154e-07
-0.000273292
8.7875e-08
-0.000262719
-0.000263347
-0.000263105
-8.4602e-09
1.54032e-07
-0.000266193
-1.4428e-10
0.000261729
3.20092e-08
-0.000261867
0.000251317
2.29624e-07
-0.000251486
4.54232e-09
-7.9201e-08
-9.32779e-09
-5.37993e-09
-0.00026693
2.18707e-08
-1.23231e-07
-0.000243603
-6.64627e-08
-7.29966e-08
0.000262715
2.90828e-07
1.59686e-08
-0.000263275
0.000262951
-2.15766e-07
-0.000263095
2.17818e-07
2.20611e-07
-1.2707e-06
-1.97275e-08
-0.000243775
-2.05045e-07
-0.000268224
5.01356e-09
1.52696e-07
-6.29793e-09
0.000268968
-1.30404e-07
8.84429e-10
-9.57261e-10
0.000251794
-6.02014e-09
0.000268735
-3.18406e-09
-0.000269393
2.62497e-07
0.000250699
-3.84796e-09
-0.000250883
-2.52196e-08
-0.000269036
-1.64078e-09
0.000269321
5.03606e-10
0.000250828
-9.99979e-09
2.84173e-09
0.00026941
-7.11602e-07
-0.000268824
-1.52115e-07
1.30123e-11
0.000250888
-0.000250757
-1.64022e-08
0.000269048
-8.99786e-07
-0.000268294
9.15298e-09
-1.84436e-07
1.52658e-08
-0.000261783
-1.50691e-07
-0.000251368
-8.29001e-07
-0.000266259
0.000268239
9.75877e-09
-2.66586e-07
-2.48224e-08
-0.000269056
-1.14676e-08
-0.000268789
0.000269382
-1.49703e-07
-0.000250684
-7.73643e-10
0.000250809
2.56034e-07
-3.12279e-09
-4.02009e-10
-0.000251898
-1.67946e-08
0.000268992
-3.87258e-09
-0.000269441
-8.35093e-09
-0.000250871
0.000266176
-2.36137e-07
-3.48902e-08
-0.000266916
-1.46024e-07
-0.00025128
0.000251396
1.43669e-08
-0.000261708
0.000261782
1.02774e-08
1.59052e-07
-0.000245381
0.000266851
-0.000251453
-0.000261843
-2.25721e-07
-2.78794e-08
0.000266197
-0.000266944
3.33895e-08
-0.000261755
1.47532e-08
0.000261837
8.22578e-09
1.39045e-07
-0.000245409
-0.000251296
-1.48601e-07
0.000251416
-1.4082e-09
-0.000251468
8.48396e-09
-0.000261889
0.000266883
6.70564e-09
-1.87042e-08
-0.000266138
1.41296e-07
2.18448e-08
0.000266808
0.000261703
3.49272e-08
2.32114e-07
0.000251244
7.86712e-09
-5.51563e-08
-6.28034e-09
0.000245318
0.000261775
3.56677e-08
4.92265e-09
0.000251354
1.12793e-08
-0.00026817
1.47956e-07
0.000268928
-1.28021e-07
-1.39194e-09
0.000251771
0.000268727
-1.47435e-08
-0.00026938
2.64472e-07
0.000250623
-0.000250813
0.000269319
-0.000268977
0.000250756
3.13159e-10
7.01632e-08
-2.26803e-08
2.03865e-09
0.000229213
-7.01652e-08
-1.34525e-09
2.48473e-07
-1.56393e-09
0.00025169
2.2827e-09
-2.26609e-08
0.000229249
2.51017e-07
-9.88423e-10
0.000251654
-4.47873e-08
-1.29888e-08
7.09148e-09
1.38442e-07
0.000245244
-2.5767e-09
-1.0974e-08
0.00019234
-1.51917e-08
3.60341e-08
0.000276983
-5.12512e-09
9.71264e-05
-1.47828e-09
-7.30755e-09
-0.000142311
1.54663e-09
0.000142318
0.000169962
2.83049e-09
8.30143e-12
0.000222849
-2.31035e-08
2.79249e-09
6.85441e-08
7.84546e-09
2.74174e-09
7.94116e-11
-1.75614e-08
0.00022922
-6.08954e-11
0.000169969
5.12993e-09
-1.90572e-08
0.000222858
1.91084e-09
-9.2869e-09
-1.35718e-09
-0.000142377
0.000222942
-2.50995e-08
6.84771e-08
0.000169994
2.87322e-09
3.09516e-09
7.84951e-09
-1.7574e-08
-1.89312e-08
-9.57251e-09
-7.85538e-05
7.85649e-05
0.000261882
-1.96356e-08
5.3886e-08
-7.48452e-09
8.00014e-09
-1.24068e-08
0.000192352
-2.24573e-08
0.000261893
-4.42993e-08
-0.000221557
3.00631e-08
-1.55479e-08
0.000221636
0.000251121
-2.97628e-08
5.32693e-08
-5.17476e-08
1.03321e-08
7.0036e-09
-1.7188e-08
0.000277035
2.44109e-08
0.000181958
-5.78064e-09
-1.8359e-08
0.00025125
-2.32605e-08
4.8215e-09
0.000181994
-0.000212766
5.68224e-10
2.89585e-09
0.00021265
1.12912e-08
7.99867e-05
1.07904e-08
7.99878e-05
7.99921e-05
7.99889e-05
9.71414e-05
1.55599e-07
4.29279e-09
-0.00026823
0.000268751
-8.60404e-09
-2.24523e-09
0.000250697
2.62033e-07
1.2973e-09
-1.30878e-07
-3.01672e-10
-1.81286e-09
9.03451e-09
1.55761e-07
-0.000268174
-1.65758e-08
0.000268935
0.000268719
-6.84435e-09
0.00025062
2.59427e-07
-2.78133e-09
-1.33385e-07
-3.60963e-10
0.00025177
0.000269312
1.90612e-10
0.000250756
-1.96917e-08
1.5391e-07
-6.68111e-09
-0.000266118
0.0002668
0.000251232
2.22156e-07
0.000261657
3.00087e-08
-8.90469e-09
-8.63961e-08
0.00024531
0.000251354
0.000261761
2.55946e-08
2.11631e-09
9.76359e-05
2.55889e-08
2.10028e-09
9.7625e-05
1.45329e-06
1.41296e-06
0.000273373
-3.70735e-07
-3.78694e-07
2.13557e-08
0.000279207
-7.18478e-09
8.45448e-08
2.12368e-08
0.000279128
-6.4905e-09
8.68016e-08
2.2358e-10
1.16231e-07
0.000231416
-3.88527e-08
-5.78912e-10
6.79187e-08
0.000193707
-1.20208e-08
1.16198e-07
0.000231376
-3.885e-08
-3.81949e-10
6.79945e-08
-2.18137e-09
0.000193652
-1.20374e-08
1.30506e-09
0.000254811
-5.79069e-09
3.48564e-07
3.39625e-07
6.49344e-07
1.20572e-06
-3.97119e-07
1.71414e-07
7.7975e-07
-4.09091e-07
1.10467e-07
-1.09287e-06
0.00114638
0.000247683
1.85627e-08
2.10294e-07
9.6797e-09
7.43782e-07
8.44237e-07
-1.05161e-06
-1.21961e-06
6.52782e-07
0.0011572
0.000254784
-6.08377e-09
3.51124e-07
3.26626e-07
-1.44246e-06
6.58558e-07
7.9055e-07
-3.98206e-07
-1.0899e-06
1.32801e-07
1.21159e-06
-3.85988e-07
1.85992e-07
0.00114642
-2.1358e-08
0.000247595
1.36262e-08
2.07647e-07
7.49092e-07
8.52455e-07
-1.05161e-06
-1.22215e-06
6.55537e-07
0.00115715
2.54944e-08
9.76229e-05
1.41822e-06
0.00027337
-3.76554e-07
-3.8095e-07
0.000279096
-4.65375e-09
8.19957e-08
-2.55775e-08
2.35648e-08
0.000279206
-6.34785e-09
9.18458e-08
2.08183e-09
9.76315e-05
1.18702e-07
1.50553e-10
0.00023141
-6.20532e-10
-3.88936e-08
6.78727e-08
0.000193687
-1.19993e-08
1.71088e-09
0.000254801
-6.33345e-09
3.51198e-07
3.38005e-07
6.54868e-07
1.16548e-06
-3.8869e-07
1.63316e-07
7.77173e-07
-4.06198e-07
1.07998e-07
-1.0898e-06
0.00114739
0.000247649
1.60776e-08
2.10182e-07
1.55344e-09
7.49209e-07
8.44027e-07
-1.05158e-06
-1.21943e-06
6.5276e-07
0.00115706
1.16152e-07
0.000231373
-4.09334e-08
-6.0804e-10
7.00639e-08
-2.09069e-09
0.000193636
-1.21001e-08
0.000254776
3.48549e-07
-6.25736e-09
3.39536e-07
-1.45092e-06
6.54868e-07
7.79904e-07
-4.08831e-07
-1.09262e-06
1.10631e-07
1.20276e-06
-3.9471e-07
1.68501e-07
0.0011464
7.49271e-07
8.44232e-07
-1.05158e-06
-1.21933e-06
6.52839e-07
0.00115703
-2.33695e-08
0.000247582
1.6025e-08
2.12564e-07
6.56838e-07
1.16236e-06
-3.91323e-07
1.5216e-07
7.66342e-07
-4.19588e-07
-1.09778e-06
8.5536e-08
0.00114705
-6.77445e-08
0.000247676
1.59765e-08
2.17754e-07
0.000193693
-1.19845e-08
2.78558e-08
9.7614e-05
1.41308e-06
0.000273353
-3.73883e-07
-3.78695e-07
0.00027909
-6.89645e-09
8.45573e-08
-2.56634e-08
2.34034e-08
-6.29837e-09
8.6886e-08
0.000279209
2.03675e-09
9.7629e-05
-1.16232e-07
3.53748e-07
-6.05713e-09
0.000254798
3.38481e-07
6.55137e-07
1.16478e-06
-3.91837e-07
1.65874e-07
-4.08775e-07
-1.08978e-06
0.00114688
7.77237e-07
1.10779e-07
7.49061e-07
-1.04596e-06
-1.21388e-06
0.00115685
8.38523e-07
6.49984e-07
-6.78706e-08
1.60629e-08
2.10089e-07
0.000247684
-5.79335e-10
-3.88839e-08
0.00023141
-1.2069e-08
0.000193691
3.31691e-09
-7.57716e-09
9.76402e-05
3.33666e-09
-7.58095e-09
9.76293e-05
-0.000214299
-1.60688e-09
-1.63693e-09
1.06311e-08
1.27529e-08
0.000214278
1.4438e-08
8.04705e-05
8.80169e-09
1.44463e-08
8.04526e-05
8.6996e-09
3.92205e-08
3.71566e-08
-3.57803e-09
8.04724e-05
-3.50725e-09
8.04545e-05
-0.000223493
-1.23942e-08
1.59975e-08
1.28932e-08
0.000223487
1.02684e-08
1.94033e-08
-5.06549e-09
0.000279186
5.13328e-08
0.000183226
-6.17681e-08
0.000253755
1.72422e-07
8.34323e-08
1.03762e-07
0.00018322
1.12935e-08
1.77595e-08
0.000253762
-0.000223421
-1.05852e-08
1.59603e-08
1.10539e-08
0.000223417
9.76041e-09
1.71069e-08
-5.16181e-09
0.00027911
5.32598e-08
0.000183164
-6.15215e-08
0.000253641
1.72061e-07
8.06078e-08
1.06015e-07
0.00018316
1.15063e-08
2.03586e-08
0.000253642
-0.000143226
9.74112e-10
1.79372e-09
-1.14999e-09
0.000143225
-4.64893e-09
3.0283e-10
2.3122e-10
1.772e-08
0.000231402
5.36775e-10
0.000171032
2.19452e-11
-3.58416e-08
0.000224866
-7.60828e-10
1.10018e-07
-7.60438e-10
1.5274e-11
0.000171029
1.70651e-09
7.67887e-09
0.000224858
-7.90237e-05
-7.46752e-09
7.903e-05
-7.53329e-09
4.78426e-09
0.000193702
-2.48584e-08
0.000263938
8.74341e-08
-3.93542e-09
0.000263928
-0.000143155
8.46133e-10
1.77781e-09
-1.17955e-09
0.000143154
-4.64775e-09
7.85779e-10
1.53004e-08
0.000231365
5.22774e-10
0.000170998
-3.5837e-08
0.000224772
-7.2845e-10
1.07533e-07
-7.87593e-10
0.000170995
3.7635e-09
5.38175e-09
0.000224766
-7.89775e-05
-7.54452e-09
7.89838e-05
-7.07484e-09
7.50097e-09
5.57247e-10
0.000193651
-2.48443e-08
0.00026381
8.49356e-08
-6.47423e-09
0.000263806
8.34982e-10
9.76295e-05
-0.000214298
-1.3447e-09
1.96033e-10
-4.43802e-10
2.32491e-08
0.000214276
1.42398e-08
8.04557e-05
8.97294e-09
1.62766e-08
8.04633e-05
1.06695e-08
3.71467e-08
4.13722e-08
-4.94317e-09
8.04593e-05
-1.76202e-09
8.04652e-05
-4.21785e-09
-0.000223418
-3.36659e-09
-1.98451e-09
0.000223428
2.73397e-09
1.35361e-08
-9.6604e-09
0.00027909
5.11391e-08
0.000183168
0.000253603
-5.37302e-08
7.81429e-08
1.59392e-07
4.1751e-09
-2.8984e-08
0.000253626
9.85538e-08
0.000183173
-0.000223488
-1.53084e-08
3.61358e-08
2.55027e-08
0.000223465
5.5012e-09
3.16708e-08
-5.74877e-09
-2.79892e-09
0.000279177
5.75183e-08
0.000183215
-6.42212e-08
0.000253759
1.80257e-07
8.58729e-08
1.06207e-07
0.000183204
5.27044e-08
2.81613e-08
0.000253746
-7.46524e-09
9.76332e-05
-0.000143224
1.77195e-09
8.592e-10
-1.18586e-09
0.000143222
7.78331e-10
-4.62979e-09
-1.82674e-10
1.52832e-08
0.000231398
-3.58779e-08
0.000224861
-7.4992e-10
1.10049e-07
5.10904e-10
0.000171028
1.13473e-11
-8.14056e-10
1.65578e-09
7.70367e-09
0.000224854
-1.70683e-13
0.000171024
-7.90232e-05
-7.5605e-09
7.90296e-05
-7.50377e-09
4.73911e-09
0.000193682
-2.48379e-08
0.000263934
8.48888e-08
-1.53832e-09
0.000263922
-0.00014315
9.61107e-10
-2.89387e-10
-1.16734e-09
0.000143151
-2.54082e-09
2.81364e-10
1.77376e-08
0.000231358
5.19962e-10
0.000170991
-3.78921e-08
0.000224766
-7.60598e-10
1.0984e-07
-7.35085e-10
0.00017099
1.71841e-09
7.6593e-09
0.000224757
-7.89786e-05
-7.50149e-09
7.8985e-05
-7.62564e-09
7.66774e-09
2.68757e-09
0.000193633
-2.48809e-08
0.00026381
8.73114e-08
-4.03712e-09
0.0002638
-7.90224e-05
-9.64552e-09
7.9031e-05
-7.86399e-09
9.17497e-09
0.000193684
-2.69695e-08
0.000263947
8.72456e-08
1.10339e-09
0.00026393
1.09588e-09
9.76206e-05
-0.000214294
-1.45422e-09
-1.54914e-09
1.03233e-08
1.23195e-08
0.000214274
1.4457e-08
8.04525e-05
8.87418e-09
1.45516e-08
8.04691e-05
8.75888e-09
3.91991e-08
3.68783e-08
-3.10076e-09
8.04541e-05
-3.16854e-09
8.04707e-05
1.54675e-08
-0.000223411
-1.26363e-08
1.53039e-08
0.000223403
1.96236e-08
1.0168e-08
-7.79153e-09
0.000279069
5.15514e-08
0.000183164
0.000253597
-6.13899e-08
8.34894e-08
1.69624e-07
1.76557e-08
1.43318e-08
0.0002536
1.01831e-07
0.000183159
-0.000223491
-1.06631e-08
1.53725e-08
1.09385e-08
0.000223488
5.3537e-08
0.000183226
-6.11911e-08
0.000253764
1.72367e-07
8.59613e-08
9.72961e-09
1.72948e-08
-3.33623e-09
0.000279193
-7.91246e-09
1.0625e-07
0.000183221
1.1686e-08
0.00025377
1.48836e-08
9.76333e-05
-7.63371e-09
-3.79223e-08
-7.95505e-10
1.09917e-07
0.000224867
5.15427e-10
0.000171029
-9.76291e-10
0.000143225
-2.69605e-08
8.72203e-08
0.000263944
7.90223e-05
3.68322e-07
3.6883e-07
0.00117039
3.97125e-07
9.08021e-09
0.00118055
4.0307e-07
1.74561e-10
0.00118103
5.21842e-09
-2.81458e-09
0.00119174
3.5111e-07
3.22804e-07
0.00117019
3.85448e-07
0.00118049
3.91525e-07
-2.351e-08
0.00118098
-1.12288e-08
0.00119171
3.74407e-07
3.69139e-07
0.00117002
4.02812e-07
0.00118015
4.03052e-07
6.15484e-09
0.00118061
3.87018e-09
0.00119111
3.6859e-07
3.68997e-07
0.00117001
4.02714e-07
0.0011802
4.03057e-07
0.00118067
0.00119113
-0.000245952
-5.12316e-08
-4.90484e-08
0.000246077
1.55465e-07
1.63173e-07
0.000275425
-2.16134e-07
0.000265112
-2.13914e-07
0.000265538
0.000265399
0.000265827
-0.000271121
1.09598e-07
2.00004e-08
-3.71069e-08
0.000271873
-4.55287e-09
-8.21505e-08
8.98105e-10
0.000254915
3.50196e-07
0.000253619
-1.26748e-08
-1.71127e-08
0.000271624
9.58317e-10
-3.68645e-08
-6.59651e-09
0.000253739
3.40273e-09
0.000272211
-3.18731e-08
-0.000269192
1.12451e-07
0.000269854
-3.80585e-08
-1.56995e-09
0.000247722
3.04412e-07
0.000254016
0.000264515
5.32503e-08
0.000264573
0.000254117
-0.000271061
1.14746e-07
1.68433e-08
-2.94209e-08
0.000271812
-3.37778e-09
-8.47272e-08
0.000254888
3.52588e-07
0.000253538
-1.27084e-08
-1.89516e-08
0.000271617
-3.96102e-08
-1.70041e-09
0.000253656
0.000272208
-0.000269117
1.20202e-07
-2.70063e-08
0.000269785
-1.48473e-09
-5.00553e-08
0.000247637
3.04241e-07
0.000253914
4.81668e-08
0.000264435
0.000254024
0.000264495
-7.47786e-08
-0.000245935
-3.1613e-08
0.000246064
1.57726e-07
1.68672e-07
0.000275417
0.000265478
-2.05809e-07
-2.18651e-07
0.000265138
0.000265718
0.00026548
-0.000271116
1.12107e-07
1.62019e-08
-2.39068e-08
0.000271856
-3.54827e-09
-8.21523e-08
-1.06272e-09
0.000254903
3.55402e-07
0.000253607
-1.27573e-08
-2.0234e-08
0.000271624
7.33495e-09
-5.00848e-08
-6.6414e-09
0.00025373
-5.79153e-09
0.000272217
-3.18554e-08
-0.000269199
1.15239e-07
0.000269869
-3.81982e-08
8.58368e-10
0.000247686
3.06858e-07
0.000253999
0.000264501
5.31675e-08
0.00026456
0.000254107
-0.000271053
1.96571e-08
1.12248e-07
-3.73593e-08
0.000271803
-8.21739e-08
-4.43956e-09
0.000254879
-1.83178e-08
0.000271605
3.52575e-07
0.000253529
-1.26745e-08
-3.68235e-08
0.000272189
-6.67421e-09
0.000253651
-0.000269111
1.17693e-07
-3.46955e-08
0.00026977
8.32372e-10
-4.04497e-08
0.000247616
3.09392e-07
0.000253903
5.08006e-08
0.000264424
0.000254011
0.000264477
-0.000269204
-3.65876e-08
1.07578e-07
0.000269873
-2.84832e-08
3.15568e-09
0.000247708
3.12061e-07
0.000254014
5.30442e-08
0.000264529
0.000264578
0.00025412
-5.1256e-08
-0.000245939
-4.88638e-08
0.000246066
1.57667e-07
1.62665e-07
0.0002754
0.000265483
-2.16801e-07
-2.14054e-07
0.000265127
0.000265772
0.000265419
-1.83446e-08
0.000271615
3.55246e-07
-1.51739e-08
0.000253613
-4.74819e-08
0.000271115
3.06734e-07
0.000254015
5.33334e-08
0.000264532
0.000269199
2.42327e-08
9.75474e-05
-9.75738e-05
2.18061e-09
2.40385e-08
2.1697e-09
9.75392e-05
-9.75654e-05
1.41631e-06
-0.00027524
1.43519e-06
-3.96819e-07
-3.35869e-07
0.000273121
-4.52977e-09
4.75092e-08
0.000278832
-0.000278871
1.99076e-08
2.44882e-08
-9.94771e-09
1.09706e-07
0.000278783
-0.000278883
2.5167e-10
-1.03973e-10
-3.65824e-08
0.000231067
-0.000231139
1.09058e-07
6.70974e-08
-1.28186e-08
0.000193467
-0.000193519
1.20569e-06
-0.000271558
1.78277e-08
-3.41853e-07
0.000270726
-4.94097e-08
3.03054e-07
-0.00114745
-3.94031e-07
1.16176e-06
1.59907e-07
-1.08465e-06
-4.25391e-07
7.80629e-07
1.00553e-07
0.00114764
6.26644e-07
-0.000247409
2.13435e-07
1.42583e-08
0.000247273
-1.43235e-09
-0.00115805
-1.03425e-06
8.50774e-07
6.60462e-07
0.00115835
7.29497e-07
-3.86439e-08
0.000231028
-7.56346e-11
-0.000231101
1.1142e-07
1.03427e-06
-0.000271915
-6.30976e-09
-3.36108e-07
-1.67894e-08
0.00027124
-0.00115807
-1.20288e-06
8.50909e-07
6.60539e-07
-3.2715e-07
0.00115839
7.29463e-07
1.97597e-09
-7.28456e-09
9.75527e-05
2.12502e-09
-7.29968e-09
9.75443e-05
-6.89995e-10
-6.76421e-10
-0.000214044
-5.92836e-10
1.88786e-08
0.000214027
8.03865e-05
1.53896e-08
5.50668e-09
-8.04074e-05
8.03726e-05
1.14315e-08
1.37878e-08
-8.03978e-05
-4.90149e-09
8.03907e-05
-1.66924e-09
8.03736e-05
-2.40167e-08
9.72042e-08
-0.00021409
-5.17242e-09
-0.000223175
7.51013e-10
-1.67656e-09
0.00022318
0.00018301
2.90724e-08
-0.000183038
-1.23928e-08
0.000253334
-0.000253377
3.06825e-08
7.16135e-08
1.13431e-08
8.31429e-09
-1.07405e-08
0.000278826
0.000183011
-0.000223233
5.09213e-08
-2.31164e-08
3.16174e-09
0.000253364
-1.45388e-08
2.50612e-08
-0.000223131
2.07583e-08
0.000223119
0.000182965
6.76355e-08
-0.000183029
0.000253258
-1.03623e-07
-0.000253434
2.97926e-07
9.15215e-08
8.0526e-09
2.49957e-08
-6.06264e-09
0.000278758
0.000182957
3.79671e-08
1.88616e-08
0.000253252
-0.000223216
1.46489e-07
4.64872e-10
6.03477e-10
-0.000143085
-7.47037e-10
0.000143085
0.000224553
-3.41908e-08
2.05084e-11
-0.000224623
1.04027e-07
0.000170862
9.20772e-10
6.53956e-11
-0.0001709
8.12301e-10
-2.77835e-09
-1.94654e-11
1.21878e-08
0.000231057
2.32153e-09
3.41114e-09
0.000224549
5.79512e-11
0.00017086
-3.92292e-10
-0.000143118
-7.79333e-09
-7.89499e-05
7.89569e-05
0.000263611
-2.41557e-08
-0.000263685
8.52403e-08
-7.82466e-09
2.98791e-09
0.000193464
-7.46459e-09
0.000263606
-7.89744e-05
4.37108e-10
-1.50636e-09
-0.000143012
0.000143014
-6.03142e-10
0.000170826
1.02757e-09
-0.000170865
-6.56263e-10
8.63619e-10
1.2193e-08
0.000231016
0.000224456
-3.61151e-08
-0.000224527
1.06255e-07
1.18163e-10
0.000170826
3.2964e-09
0.00022445
2.52571e-09
-0.000143047
-2.11443e-10
-6.49429e-07
-6.49458e-07
3.77989e-07
3.55649e-07
0.00117096
-5.48255e-10
0.000254793
-1.38223e-08
-5.63203e-09
-8.41806e-08
-0.000254689
0.000254767
-1.62038e-08
-3.62211e-09
-8.67604e-08
-0.000254661
0.000247587
5.74731e-09
-4.24618e-09
4.68466e-10
-3.92623e-08
-0.00024755
1.39252e-08
0.000231272
-5.56404e-12
-2.0747e-09
2.68695e-10
-0.000231284
0.000254753
5.72983e-11
-8.40938e-08
-5.47755e-09
-0.000254649
0.00114735
1.15489e-06
2.96842e-07
6.44467e-07
1.52659e-07
-1.43178e-06
-4.16804e-07
-1.10757e-06
9.2947e-08
-4.56952e-07
7.7327e-07
7.50264e-07
2.03185e-08
-3.48295e-07
-1.21793e-06
6.51957e-07
-1.04712e-06
8.45922e-07
0.0011573
0.000231271
6.05449e-11
1.62682e-08
-4.14195e-09
2.5479e-10
-0.000231283
0.000275335
-1.20405e-06
-1.16606e-06
1.59338e-07
-0.000273289
1.64323e-07
7.38582e-07
-3.35094e-07
-8.28514e-09
0.00115721
-1.20975e-06
6.4905e-07
8.40159e-07
-1.04161e-06
1.16887e-06
3.62884e-07
-1.38496e-06
1.75579e-07
-3.60984e-07
6.6057e-07
0.00114687
-1.06928e-06
1.26324e-07
-3.53887e-07
7.86757e-07
-1.19802e-06
1.64797e-07
-0.00027328
1.63875e-07
0.000275318
-7.65528e-09
3.19775e-09
-9.7595e-05
9.75994e-05
1.40639e-06
1.44146e-06
-3.67396e-07
0.000273227
-3.7226e-07
1.50793e-07
-7.34028e-07
-2.71099e-07
-0.00118237
3.91801e-07
0.00118283
3.25329e-07
0.00114738
-1.40708e-06
6.42015e-07
7.91148e-07
-4.0229e-07
-1.08464e-06
1.33694e-07
-3.86903e-07
1.17509e-06
1.81708e-07
1.15051e-09
-1.14904e-07
-5.23745e-09
3.43425e-07
0.000254568
-1.12411e-07
-6.06039e-09
3.43404e-07
0.000254544
-6.6393e-08
-1.99937e-08
1.51289e-08
2.05404e-07
0.000247453
1.14971e-07
-9.585e-11
-3.97808e-08
1.51362e-10
0.000231196
6.00633e-10
3.43548e-07
-4.93659e-09
0.000254528
-8.24333e-12
1.12564e-07
-3.77092e-08
-4.84245e-11
0.000231196
-7.38732e-07
0.00118121
-3.63596e-09
-3.60499e-07
3.83731e-07