/*--------------------------------*- C++ -*----------------------------------*\
| =========                 |                                                 |
| \\      /  F ield         | OpenFOAM: The Open Source CFD Toolbox           |
|  \\    /   O peration     | Version:  v2006                                 |
|   \\  /    A nd           | Website:  www.openfoam.com                      |
|    \\/     M anipulation  |                                                 |
\*---------------------------------------------------------------------------*/
FoamFile
{
    version     2.0;
    format      ascii;
    class       volVectorField;
    location    "375";
    object      U;
}
// * * * * * * * * * * * * * * * * * * * * * * * * * * * * * * * * * * * * * //

dimensions      [0 1 -1 0 0 0 0];


internalField   nonuniform List<vector> 
14258
(
(-2.10809e-07 4.40516e-06 0.092274)
(-3.95932e-06 -3.14551e-06 0.0823227)
(4.4013e-06 -1.93851e-07 0.0922738)
(-3.15006e-06 -3.95847e-06 0.0823231)
(-2.52328e-06 -1.99162e-06 0.0713193)
(-1.98135e-06 -2.53894e-06 0.0713195)
(-2.39118e-05 -2.39146e-05 0.106443)
(-1.86952e-06 5.96048e-06 0.0879211)
(5.94988e-06 -1.89355e-06 0.0879206)
(9.31111e-07 1.99192e-05 0.10049)
(4.83865e-05 7.35164e-05 0.108886)
(-1.39218e-06 9.31665e-06 0.0939461)
(1.55615e-05 8.6046e-05 0.110317)
(1.9929e-05 9.5168e-07 0.10049)
(7.3449e-05 4.8353e-05 0.108887)
(9.2787e-06 -1.41964e-06 0.0939462)
(8.60232e-05 1.5503e-05 0.110317)
(4.42917e-06 1.82296e-07 0.0922743)
(1.99368e-05 -9.02489e-07 0.10049)
(8.60101e-05 -1.55869e-05 0.110317)
(-5.86455e-07 8.12117e-06 0.0768084)
(-1.45797e-07 2.3001e-05 0.0922403)
(8.84341e-08 -4.679e-07 0.0786728)
(4.67915e-08 2.50969e-06 0.0905616)
(-1.59763e-07 8.098e-06 0.0786449)
(3.19992e-07 2.07712e-05 0.090521)
(9.38558e-07 -6.80869e-07 0.0768421)
(-7.28572e-07 4.83208e-06 0.0681981)
(-1.25858e-06 -1.57211e-06 0.0861132)
(-1.773e-06 1.38566e-05 0.0822811)
(-3.7312e-07 1.34465e-05 0.0860668)
(1.0204e-06 -2.61639e-06 0.0682483)
(8.12665e-06 -5.72411e-07 0.0768088)
(2.3012e-05 -1.06409e-07 0.0922402)
(2.52639e-06 6.41488e-08 0.0905613)
(-4.63385e-07 9.47182e-08 0.0786723)
(2.07936e-05 3.49365e-07 0.0905211)
(8.12099e-06 -1.56853e-07 0.078645)
(-7.00832e-07 9.54732e-07 0.0768418)
(4.83824e-06 -6.95004e-07 0.0681986)
(-1.6122e-06 -1.25019e-06 0.0861128)
(1.38376e-05 -1.77611e-06 0.0822814)
(1.34299e-05 -3.54776e-07 0.0860672)
(-2.62582e-06 1.03039e-06 0.0682477)
(2.24495e-06 5.56597e-06 0.0712771)
(5.56331e-06 2.2305e-06 0.071276)
(1.00213e-05 1.0043e-05 0.0838523)
(-6.90913e-07 -8.4237e-07 0.0683071)
(-8.29497e-07 -6.85387e-07 0.0683014)
(4.26143e-06 2.87832e-06 0.0682723)
(2.90033e-06 4.24392e-06 0.0682657)
(3.03654e-06 3.01788e-06 0.0838803)
(1.59448e-05 2.83774e-05 0.0923564)
(-2.12161e-06 4.36554e-06 0.081691)
(7.99428e-06 1.51423e-05 0.0878861)
(1.0069e-05 1.30979e-05 0.0975235)
(2.77996e-06 1.28907e-05 0.08166)
(6.17726e-06 5.36114e-06 0.0923902)
(2.79102e-05 4.57851e-05 0.0974788)
(2.83273e-05 1.58919e-05 0.0923454)
(4.46438e-06 -2.08442e-06 0.0816875)
(1.51461e-05 7.95145e-06 0.0878819)
(1.31146e-05 1.00507e-05 0.0975235)
(1.28977e-05 2.70593e-06 0.0816518)
(5.44414e-06 6.14235e-06 0.092386)
(4.57391e-05 2.78047e-05 0.0974719)
(8.10356e-06 5.97376e-07 0.0768067)
(2.29849e-05 1.51388e-07 0.0922395)
(-3.95875e-07 -1.08214e-07 0.0786733)
(2.52584e-06 -7.25938e-08 0.090562)
(8.08107e-06 1.51313e-07 0.0786438)
(2.07394e-05 -3.38108e-07 0.09052)
(-5.99255e-07 -9.5014e-07 0.0768427)
(4.84191e-06 7.42554e-07 0.0681998)
(-1.58425e-06 1.26724e-06 0.0861136)
(1.34489e-05 3.60062e-07 0.0860671)
(-2.623e-06 -9.93484e-07 0.0682498)
(4.23763e-05 4.24189e-05 0.0988157)
(0.000114121 0.000114134 0.106237)
(-2.61847e-05 2.23379e-05 0.103262)
(2.2386e-05 -2.61941e-05 0.103261)
(1.10557e-05 1.09676e-05 0.0988876)
(0.000100201 5.67435e-05 0.103153)
(5.66526e-05 0.000100089 0.103148)
(1.11937e-05 0.000139976 0.104984)
(1.08444e-06 5.43081e-05 0.100421)
(2.91093e-06 1.57018e-05 0.0992785)
(4.77966e-06 -1.14159e-05 0.105932)
(3.88017e-06 4.99097e-05 0.0991962)
(3.82788e-06 0.000146195 0.105782)
(1.17679e-05 -1.70627e-05 0.105169)
(1.76393e-05 0.00012861 0.103336)
(2.36405e-06 8.06336e-06 0.096977)
(7.82704e-06 3.57067e-05 0.0938847)
(1.38527e-05 -2.34919e-05 0.101233)
(5.78466e-06 4.03437e-05 0.0968928)
(2.21314e-05 0.000114452 0.101145)
(1.53804e-05 -2.64965e-05 0.103505)
(0.000140014 1.11928e-05 0.104983)
(5.43368e-05 1.11497e-06 0.100421)
(1.57129e-05 2.96463e-06 0.0992785)
(-1.14028e-05 4.81472e-06 0.105932)
(4.99208e-05 3.92101e-06 0.0991958)
(0.000146227 3.83736e-06 0.105781)
(-1.70313e-05 1.18165e-05 0.105169)
(0.000128528 1.75998e-05 0.103335)
(7.97946e-06 2.39862e-06 0.0969771)
(3.5673e-05 7.79563e-06 0.093884)
(-2.3549e-05 1.38583e-05 0.101232)
(4.02883e-05 5.80706e-06 0.0968929)
(0.000114383 2.20437e-05 0.101143)
(-2.65643e-05 1.54016e-05 0.103505)
(0.000139996 -1.11221e-05 0.104984)
(5.43409e-05 -1.02667e-06 0.100421)
(-1.1399e-05 -4.7441e-06 0.105931)
(1.56661e-05 -2.8767e-06 0.0992787)
(0.000146241 -3.77513e-06 0.105781)
(4.98914e-05 -3.82725e-06 0.0991957)
(-1.70778e-05 -1.17304e-05 0.105168)
(0.000128683 -1.75435e-05 0.103334)
(8.01902e-06 -2.35363e-06 0.0969777)
(4.03292e-05 -5.75637e-06 0.0968924)
(-2.64552e-05 -1.5368e-05 0.103504)
(-4.31383e-05 2.75946e-05 0.108773)
(-5.50247e-05 -1.0379e-05 0.110992)
(-7.27401e-05 -7.279e-05 0.105368)
(-5.58102e-05 -1.04432e-05 0.110986)
(3.71468e-06 6.43911e-07 0.0913921)
(-2.8026e-05 -4.3638e-05 0.108785)
(3.669e-05 3.63955e-05 0.105579)
(2.9634e-06 1.52907e-06 0.0709487)
(-2.78307e-05 -4.29622e-05 0.108774)
(-5.50788e-05 1.0362e-05 0.110992)
(-2.36792e-05 3.80524e-06 0.0929534)
(-7.3007e-05 7.26695e-05 0.105368)
(-8.4774e-06 5.46937e-06 0.0871816)
(-3.74266e-06 2.74989e-06 0.0709009)
(-9.52358e-06 -1.73396e-06 0.0817031)
(-4.31043e-05 -2.76394e-05 0.108771)
(9.77968e-06 -5.51413e-05 0.110991)
(-4.50916e-07 -3.0417e-05 0.0991406)
(-5.5236e-06 -8.51735e-06 0.0871836)
(-3.38046e-07 -3.20469e-06 0.0872331)
(2.93406e-06 -1.59031e-06 0.070949)
(-1.28221e-06 -1.40658e-07 0.0992318)
(-5.15744e-07 -3.89011e-06 0.0930286)
(3.71344e-06 -8.59591e-07 0.0913922)
(5.56622e-06 -3.7572e-06 0.0817552)
(-1.26557e-06 -7.15023e-08 0.0992318)
(-4.33858e-05 -2.78194e-05 0.10878)
(-4.07884e-07 3.67175e-06 0.0930279)
(5.60584e-06 3.63534e-06 0.0817546)
(3.52783e-06 -1.56677e-07 0.0930298)
(3.58979e-06 5.39304e-06 0.0817555)
(-2.42719e-07 3.0636e-06 0.0872319)
(3.13251e-06 -1.01095e-07 0.087234)
(1.5451e-06 2.90874e-06 0.0709492)
(-1.05148e-05 -5.50289e-05 0.110992)
(-4.12794e-06 -2.36747e-05 0.0929552)
(-3.16802e-07 -3.03393e-05 0.0991411)
(-7.95616e-07 -1.23578e-05 0.0913403)
(1.65531e-06 -9.82066e-06 0.0817045)
(7.31807e-07 -1.23725e-05 0.091341)
(-2.74485e-06 -3.85177e-06 0.0709017)
(5.79628e-07 -4.55298e-06 0.0915748)
(3.30001e-06 1.64858e-07 0.0872219)
(2.30893e-06 -1.35838e-07 0.0811208)
(-2.28187e-06 -2.41577e-06 0.0965235)
(-6.10737e-06 1.63643e-06 0.0763429)
(2.29305e-06 6.88568e-07 0.0781852)
(3.90805e-06 9.23637e-07 0.0897672)
(-1.25518e-05 6.05924e-07 0.0913585)
(1.92318e-06 2.96513e-07 0.0763754)
(-5.50716e-06 9.19171e-07 0.0781585)
(-1.21568e-05 6.33797e-07 0.0897279)
(-3.83609e-06 -2.86e-06 0.0709055)
(1.63173e-06 -2.91711e-06 0.0709452)
(6.97556e-07 -9.03668e-07 0.0832576)
(1.68556e-06 -1.24862e-06 0.0678845)
(1.19651e-06 -1.75797e-06 0.0678873)
(4.46597e-06 -3.5994e-07 0.0915737)
(-7.33163e-06 1.99924e-06 0.0810867)
(-2.53315e-05 1.77856e-05 0.096469)
(-1.78791e-07 -3.24674e-06 0.0872208)
(2.57396e-06 2.04532e-06 0.0965197)
(3.31527e-07 -2.26678e-06 0.0811217)
(-1.52007e-05 8.38749e-06 0.091539)
(2.95407e-06 -1.52701e-06 0.0709443)
(2.48326e-06 -4.15029e-07 0.0678626)
(-8.24307e-06 -2.099e-06 0.0854058)
(5.63162e-06 -3.72094e-06 0.081746)
(5.04023e-06 -2.80544e-06 0.0854536)
(-4.13272e-06 -2.1337e-06 0.0678105)
(2.82669e-07 4.44488e-06 0.0915757)
(-1.79022e-05 -2.51724e-05 0.096476)
(-1.85344e-06 -7.5838e-06 0.0810848)
(3.27883e-06 -3.18439e-07 0.0872219)
(-8.3794e-06 -1.51149e-05 0.091542)
(-2.45961e-06 2.40359e-06 0.0965245)
(2.39567e-06 3.73311e-08 0.0811204)
(3.84522e-06 -1.1671e-06 0.089768)
(2.28833e-06 -7.4382e-07 0.0781853)
(1.87529e-06 -3.97343e-07 0.076377)
(4.94358e-06 -2.75888e-06 0.085465)
(2.46576e-06 -4.48819e-07 0.0678685)
(-4.24298e-06 1.94456e-06 0.0678211)
(5.02551e-06 2.56778e-06 0.0854643)
(-9.66333e-06 1.51485e-06 0.0817126)
(2.52808e-06 4.10302e-07 0.0678683)
(-8.36135e-06 1.69741e-06 0.0854191)
(1.89989e-06 -4.21147e-06 0.0678212)
(1.45612e-06 -9.88526e-06 0.0817138)
(2.50271e-06 4.95132e-06 0.085465)
(1.61945e-06 -8.42159e-06 0.0854197)
(3.92523e-07 2.55932e-06 0.0678685)
(-1.54153e-05 -9.08167e-06 0.0915522)
(2.1984e-06 -2.77455e-06 0.0965364)
(-8.58247e-06 -5.78263e-06 0.0871928)
(1.47535e-07 2.37007e-06 0.0811306)
(4.22077e-06 -2.03132e-07 0.0915882)
(-2.58969e-05 -1.85232e-05 0.0964871)
(-7.49457e-06 -1.97435e-06 0.0810942)
(-8.52286e-06 -1.53227e-05 0.091556)
(-2.63126e-06 2.60557e-06 0.0965444)
(-5.76678e-06 -8.34977e-06 0.0871955)
(2.50466e-06 1.12313e-08 0.0811296)
(2.86821e-07 4.39878e-06 0.091592)
(-1.81574e-05 -2.52667e-05 0.0964954)
(-1.85567e-06 -7.57528e-06 0.0810935)
(-5.82203e-06 -5.62075e-06 0.0832443)
(1.14999e-06 1.80541e-06 0.0678949)
(1.76499e-06 1.41344e-06 0.0678907)
(3.58553e-07 6.80928e-07 0.0832702)
(-2.15756e-06 -2.60756e-06 0.0678576)
(-2.6426e-06 -1.98237e-06 0.0678544)
(-2.8885e-06 -3.89494e-06 0.0709066)
(8.97912e-08 1.89969e-06 0.0763697)
(-5.69479e-07 3.79033e-06 0.0913753)
(-7.66863e-07 -1.20096e-05 0.0897109)
(-8.21419e-07 -5.40903e-06 0.078148)
(-6.81354e-07 3.93642e-06 0.0897537)
(-1.43317e-06 -5.95372e-06 0.0763317)
(-4.91287e-07 2.30463e-06 0.0781773)
(5.58884e-07 2.54259e-06 0.0678627)
(1.91599e-06 -8.36449e-06 0.0854083)
(3.73892e-06 5.46494e-06 0.0817462)
(2.09454e-06 -4.20788e-06 0.0678154)
(2.80064e-06 4.97597e-06 0.0854535)
(5.09485e-07 1.93019e-06 0.0763673)
(9.54745e-07 3.81202e-06 0.091375)
(8.58685e-07 -1.20393e-05 0.0897131)
(1.12403e-06 -5.4549e-06 0.0781491)
(1.83584e-06 -6.07071e-06 0.0763346)
(1.24881e-06 3.94618e-06 0.0897523)
(9.40722e-07 2.3243e-06 0.0781765)
(1.61875e-06 2.93636e-06 0.0709443)
(3.6531e-06 3.99127e-06 0.0978989)
(3.64534e-05 3.68361e-05 0.105557)
(-2.98264e-05 -6.59861e-05 0.102156)
(-6.61036e-05 -2.98619e-05 0.102163)
(-7.79568e-07 3.65435e-05 0.102256)
(-2.2743e-05 -2.29976e-05 0.097836)
(3.6316e-05 -5.53619e-07 0.10226)
(-2.28279e-05 -2.37799e-05 0.0978551)
(-8.22361e-07 3.62879e-05 0.102276)
(-7.3092e-05 -7.36934e-05 0.10539)
(3.62496e-05 -1.08659e-06 0.102282)
(3.75712e-06 3.15149e-06 0.0979183)
(-2.99844e-05 -6.66986e-05 0.102178)
(-6.66013e-05 -3.03975e-05 0.102183)
(4.05967e-05 6.67714e-06 0.102301)
(-7.68131e-05 1.28991e-05 0.100042)
(-2.4404e-05 1.92113e-06 0.0958252)
(-1.54565e-07 -4.13387e-06 0.0930113)
(3.66622e-05 5.23008e-06 0.100122)
(4.01043e-06 -9.54974e-07 0.0959014)
(-8.36774e-05 9.18167e-06 0.102149)
(3.91732e-06 -4.11279e-06 0.0978987)
(-6.62434e-05 2.99606e-05 0.102161)
(-2.99829e-05 6.59914e-05 0.102158)
(3.64379e-05 -3.67365e-05 0.105558)
(-6.30964e-07 -3.65917e-05 0.102257)
(-2.30561e-05 2.27711e-05 0.097836)
(3.63883e-05 6.6548e-07 0.10226)
(5.37919e-06 3.46073e-05 0.104007)
(-3.8249e-07 -1.00015e-06 0.0992057)
(7.84724e-07 -9.17549e-05 0.104628)
(9.28089e-07 -2.96523e-05 0.0980094)
(5.00533e-06 -8.94879e-05 0.103833)
(1.53815e-06 3.18002e-05 0.104769)
(4.30224e-07 -2.50384e-09 0.0980864)
(3.14043e-05 2.02355e-06 0.104797)
(-2.27751e-07 6.92173e-07 0.0981099)
(3.4311e-05 6.03075e-06 0.104033)
(3.63773e-05 5.64394e-06 0.100144)
(3.634e-06 -6.31378e-07 0.0959223)
(4.02332e-05 6.8031e-06 0.102327)
(-9.04995e-05 -5.74555e-06 0.103859)
(3.13892e-05 -2.22139e-06 0.104797)
(-1.70547e-07 -9.57289e-07 0.0981096)
(-3.08394e-05 -1.34171e-07 0.0991669)
(3.43522e-05 -6.17562e-06 0.104033)
(-9.29873e-05 -1.41836e-06 0.104654)
(-2.99367e-05 -1.70977e-06 0.0980339)
(-8.45577e-05 -9.25845e-06 0.102173)
(3.67949e-06 3.33899e-07 0.0959219)
(3.65413e-05 -5.74415e-06 0.100142)
(-2.40121e-05 -4.35006e-06 0.0929698)
(4.03625e-05 -6.93465e-06 0.102325)
(-2.47697e-05 -2.51313e-06 0.095846)
(-7.74666e-05 -1.3163e-05 0.100062)
(-9.60695e-06 -8.44342e-05 0.102175)
(-5.84118e-06 3.66662e-05 0.100147)
(-4.50159e-06 -2.35313e-05 0.0929723)
(3.01499e-07 3.8558e-06 0.0959234)
(-2.51772e-06 -2.44936e-05 0.0958472)
(-1.32161e-05 -7.72015e-05 0.100066)
(-7.15777e-06 4.04078e-05 0.102328)
(-6.74616e-06 4.05453e-05 0.102302)
(-1.30678e-05 -7.66217e-05 0.100045)
(-2.22425e-06 -2.44239e-05 0.0958267)
(3.93592e-06 -4.48966e-07 0.0930123)
(-5.53507e-06 3.66387e-05 0.100124)
(-9.4085e-06 -8.35995e-05 0.10215)
(7.06835e-07 3.80439e-06 0.0959024)
(-6.1681e-06 3.47562e-05 0.104007)
(-1.00427e-07 -9.47926e-07 0.0992057)
(-1.74144e-06 -9.17021e-05 0.104628)
(-1.65256e-06 -2.94814e-05 0.0980109)
(-2.4285e-06 3.18859e-05 0.10477)
(-5.89804e-06 -8.93276e-05 0.103833)
(-7.60978e-07 8.41018e-08 0.0980863)
(-1.22519e-05 6.89694e-07 0.0913416)
(-3.02952e-05 -1.05021e-07 0.0991414)
(-1.22424e-05 -8.67449e-07 0.0913414)
(-3.02903e-05 -1.14826e-07 0.0991414)
(-2.36835e-05 -3.98898e-06 0.0929529)
(-9.57314e-06 1.67156e-06 0.0817034)
(-8.44442e-06 -5.58915e-06 0.0871809)
(-3.7592e-06 -2.8318e-06 0.0709008)
(1.94968e-06 4.30129e-07 0.0763673)
(-5.43701e-06 9.79939e-07 0.0781496)
(-1.19415e-05 8.87299e-07 0.0897131)
(3.95038e-06 7.7753e-07 0.0913749)
(2.33607e-06 7.56096e-07 0.0781763)
(4.04175e-06 1.18873e-06 0.0897522)
(-6.05018e-06 1.79278e-06 0.0763348)
(1.91427e-06 -3.85295e-07 0.0763688)
(-1.19224e-05 -1.08422e-06 0.0897122)
(-5.42911e-06 -9.85906e-07 0.0781493)
(3.95338e-06 -8.28396e-07 0.091375)
(4.01908e-06 -1.24369e-06 0.0897529)
(2.33635e-06 -7.01101e-07 0.0781764)
(-5.98321e-06 -1.83106e-06 0.0763333)
(2.53393e-06 5.15712e-07 0.0678625)
(-8.27435e-06 1.95826e-06 0.0854076)
(5.6198e-06 3.70993e-06 0.0817454)
(5.05821e-06 2.78906e-06 0.0854529)
(-4.238e-06 2.0884e-06 0.0678152)
(4.33528e-06 3.74328e-07 0.0915738)
(-2.54063e-05 -1.79419e-05 0.0964677)
(-8.5939e-08 3.20408e-06 0.0872207)
(-7.39231e-06 -1.94325e-06 0.0810848)
(2.5885e-06 -2.19802e-06 0.0965195)
(-1.52781e-05 -8.54854e-06 0.0915373)
(2.71408e-07 2.35806e-06 0.0811221)
(4.52378e-07 7.80671e-07 0.0832583)
(-2.21296e-06 -2.53725e-06 0.0678508)
(-2.65966e-06 -2.06523e-06 0.0678491)
(-5.91109e-06 -5.57217e-06 0.0832346)
(1.19791e-06 1.81227e-06 0.0678884)
(1.73146e-06 1.32821e-06 0.0678845)
(3.01584e-06 1.4986e-06 0.0709438)
(3.47735e-05 5.9528e-06 0.104007)
(-9.16747e-05 1.25872e-06 0.104628)
(-2.94822e-05 1.27112e-06 0.0980105)
(-8.23778e-07 -1.76578e-07 0.0992059)
(1.42869e-07 4.80368e-07 0.0980863)
(3.19608e-05 1.9956e-06 0.10477)
(-8.93401e-05 5.58791e-06 0.103833)
(3.47868e-05 -6.086e-06 0.104007)
(-9.16963e-05 -1.47485e-06 0.104628)
(-2.94879e-05 -1.53679e-06 0.0980108)
(-8.2652e-07 4.55078e-08 0.0992059)
(3.19282e-05 -2.18118e-06 0.10477)
(1.72811e-07 -6.59655e-07 0.0980861)
(-8.93362e-05 -5.78499e-06 0.103833)
(4.0539e-05 -6.8853e-06 0.1023)
(-2.44373e-05 -2.18854e-06 0.0958256)
(-7.6754e-05 -1.30372e-05 0.10004)
(-1.3204e-07 4.0089e-06 0.0930111)
(3.91373e-06 7.63307e-07 0.0959013)
(3.66725e-05 -5.49363e-06 0.100121)
(-8.36417e-05 -9.3654e-06 0.102148)
(2.27716e-06 5.53743e-06 0.0712598)
(5.52662e-06 2.26767e-06 0.0712587)
(0.000112455 0.000112441 0.106212)
(8.02562e-06 1.4832e-05 0.0878562)
(1.48344e-05 7.98282e-06 0.0878519)
(-1.88047e-07 2.26477e-05 0.092204)
(-1.75292e-06 1.37644e-05 0.0822559)
(1.74396e-07 2.26455e-05 0.092204)
(1.74721e-06 1.37808e-05 0.0822562)
(9.97381e-07 5.33332e-05 0.100372)
(4.79793e-05 7.27135e-05 0.108895)
(7.76908e-06 3.52426e-05 0.0938464)
(1.54502e-05 8.53044e-05 0.110352)
(-1.02564e-06 5.33195e-05 0.100372)
(-4.79194e-05 7.26853e-05 0.108895)
(-7.72282e-06 3.51739e-05 0.0938454)
(-1.5394e-05 8.53111e-05 0.110352)
(-2.3124e-06 5.50317e-06 0.0712595)
(-0.000112492 0.000112567 0.106212)
(-8.00502e-06 1.47565e-05 0.087853)
(-1.48815e-05 8.01645e-06 0.0878547)
(-5.52286e-06 2.26825e-06 0.0712594)
(2.26477e-05 -1.77624e-07 0.0922038)
(1.37409e-05 -1.75683e-06 0.0822562)
(5.3341e-05 1.00617e-06 0.100372)
(7.25716e-05 4.77921e-05 0.108895)
(3.52177e-05 7.71713e-06 0.0938457)
(8.52844e-05 1.53893e-05 0.110352)
(2.26152e-05 1.72811e-07 0.0922032)
(1.37062e-05 1.81185e-06 0.0822555)
(5.33245e-05 -1.00941e-06 0.100372)
(7.26403e-05 -4.78974e-05 0.108894)
(8.5277e-05 -1.54881e-05 0.110352)
(3.52308e-05 -7.69196e-06 0.0938447)
(-7.24925e-05 4.7689e-05 0.108896)
(-3.53158e-05 7.68639e-06 0.0938465)
(-1.37528e-05 -1.75393e-06 0.0822562)
(5.4639e-06 -2.24307e-06 0.0712582)
(0.00011262 -0.000112652 0.106212)
(1.4848e-05 -7.82496e-06 0.0878519)
(7.82903e-06 -1.48711e-05 0.0878543)
(2.26148e-06 -5.52851e-06 0.0712591)
(1.0011e-06 -5.3312e-05 0.100372)
(4.78006e-05 -7.2571e-05 0.108896)
(1.5455e-05 -8.52839e-05 0.110352)
(7.69143e-06 -3.52182e-05 0.0938463)
(-1.84719e-07 -2.26576e-05 0.0922038)
(-1.79808e-06 -1.37453e-05 0.0822557)
(-2.51312e-06 -1.99241e-06 0.071302)
(-1.98447e-06 -2.51842e-06 0.0713021)
(3.15612e-06 3.14469e-06 0.0838537)
(4.122e-06 2.83919e-06 0.0682536)
(2.86062e-06 4.10279e-06 0.068247)
(9.9503e-06 9.9777e-06 0.0838257)
(-8.79693e-07 -8.88705e-07 0.0682888)
(-8.74769e-07 -8.73446e-07 0.0682831)
(5.93787e-06 5.01176e-06 0.0923561)
(-1.92032e-06 5.68269e-06 0.087891)
(2.62792e-06 1.26797e-05 0.0816352)
(2.76119e-05 4.49352e-05 0.097439)
(1.57861e-05 2.7829e-05 0.0923232)
(-2.38392e-06 4.19874e-06 0.0816659)
(9.94912e-06 1.23727e-05 0.0974831)
(5.11463e-06 5.93773e-06 0.0923527)
(5.6768e-06 -1.94287e-06 0.0878907)
(1.26704e-05 2.54807e-06 0.0816269)
(4.48988e-05 2.7506e-05 0.0974314)
(2.77746e-05 1.57341e-05 0.0923115)
(4.30532e-06 -2.33046e-06 0.0816627)
(1.23995e-05 9.92297e-06 0.0974838)
(8.71772e-07 -7.23313e-07 0.0768226)
(-2.3879e-07 4.12292e-06 0.0922378)
(-2.02669e-07 7.99344e-06 0.0786249)
(2.74189e-07 2.0479e-05 0.0904879)
(-6.41511e-07 8.04088e-06 0.0767888)
(4.61022e-08 -5.33359e-07 0.0786529)
(5.81823e-09 2.28324e-06 0.0905286)
(9.38338e-07 -2.61237e-06 0.0682315)
(-3.96705e-06 -3.19081e-06 0.0822975)
(-4.56535e-07 1.32973e-05 0.0860388)
(-7.998e-07 4.7992e-06 0.0681812)
(-1.33684e-06 -1.66783e-06 0.0860853)
(-8.94009e-07 -7.41556e-07 0.0768219)
(2.41931e-07 4.12206e-06 0.0922378)
(1.97658e-07 7.99569e-06 0.078625)
(-2.84765e-07 2.049e-05 0.0904883)
(6.28193e-07 8.03929e-06 0.0767889)
(-5.65704e-08 -5.3092e-07 0.0786528)
(-1.53254e-08 2.29385e-06 0.0905282)
(-9.51954e-07 -2.63449e-06 0.0682326)
(3.93467e-06 -3.1462e-06 0.082298)
(4.62835e-07 1.32848e-05 0.0860399)
(7.82915e-07 4.81235e-06 0.0681836)
(1.35373e-06 -1.6835e-06 0.0860855)
(2.43597e-06 -1.98825e-06 0.0713029)
(-3.15703e-06 3.01005e-06 0.0838537)
(-4.17916e-06 2.80501e-06 0.0682465)
(-2.86136e-06 4.16273e-06 0.068253)
(-9.91025e-06 9.84689e-06 0.0838255)
(7.75042e-07 -9.64234e-07 0.0682836)
(8.69962e-07 -8.56321e-07 0.0682883)
(-5.7298e-06 4.97205e-06 0.0923505)
(1.86074e-06 5.50593e-06 0.0878906)
(-2.65556e-06 1.26462e-05 0.0816281)
(-2.73968e-05 4.49425e-05 0.0974336)
(-9.66332e-06 1.22351e-05 0.0974815)
(-1.56679e-05 2.78301e-05 0.0923141)
(2.28126e-06 4.29946e-06 0.0816625)
(-5.05097e-06 6.17694e-06 0.0923584)
(-5.80128e-06 -1.86368e-06 0.0878916)
(-1.26207e-05 2.70372e-06 0.0816333)
(-4.50821e-05 2.7552e-05 0.0974363)
(-2.78313e-05 1.5804e-05 0.0923205)
(-4.21008e-06 -2.21779e-06 0.0816664)
(-1.26046e-05 1.0035e-05 0.0974853)
(1.97883e-06 -2.501e-06 0.0713023)
(-7.45221e-07 8.9894e-07 0.0768222)
(4.10537e-06 -2.38951e-07 0.0922376)
(2.05015e-05 2.82256e-07 0.090488)
(8.01553e-06 -1.97464e-07 0.078625)
(8.0465e-06 -6.23126e-07 0.0767892)
(2.29248e-06 1.34895e-08 0.0905282)
(-5.32176e-07 6.22046e-08 0.0786523)
(-2.62914e-06 9.55476e-07 0.0682309)
(-3.19779e-06 -3.96326e-06 0.0822979)
(1.32693e-05 -4.4481e-07 0.0860392)
(4.81203e-06 -7.63319e-07 0.0681818)
(-1.71506e-06 -1.33186e-06 0.0860849)
(-6.39178e-07 -8.84559e-07 0.0768231)
(4.14376e-06 2.16278e-07 0.0922381)
(7.97879e-06 1.97838e-07 0.0786239)
(2.04395e-05 -2.7931e-07 0.090487)
(8.03795e-06 6.58532e-07 0.0767871)
(-4.6473e-07 -5.09884e-08 0.0786533)
(2.30764e-06 -1.47695e-08 0.090529)
(-2.62527e-06 -9.31658e-07 0.068233)
(-3.2025e-06 4.01105e-06 0.0822982)
(1.32854e-05 4.54551e-07 0.0860391)
(4.81594e-06 8.10235e-07 0.068183)
(-1.68811e-06 1.35561e-06 0.0860857)
(2.54595e-06 9.84152e-07 0.0682328)
(3.21237e-06 -3.9463e-06 0.0822982)
(-1.32409e-05 -4.53103e-07 0.0860384)
(-4.72175e-06 -8.18961e-07 0.0681789)
(1.68177e-06 -1.29317e-06 0.0860862)
(-1.97954e-06 2.46367e-06 0.0713028)
(3.04014e-06 -3.08494e-06 0.0838537)
(2.80217e-06 -4.1759e-06 0.0682474)
(4.13579e-06 -2.82863e-06 0.0682536)
(1.00447e-05 -1.00904e-05 0.0838255)
(-9.23189e-07 7.12016e-07 0.0682826)
(-7.51184e-07 8.93051e-07 0.0682891)
(5.1468e-06 -5.76186e-06 0.0923498)
(5.72791e-06 2.03997e-06 0.0878899)
(1.27139e-05 -2.62587e-06 0.081628)
(4.49235e-05 -2.75556e-05 0.0974331)
(1.25392e-05 -9.7725e-06 0.097481)
(2.79654e-05 -1.55869e-05 0.0923133)
(4.24066e-06 2.16311e-06 0.0816609)
(5.71994e-06 -5.18885e-06 0.0923583)
(2.56866e-06 -1.27038e-05 0.081633)
(2.74882e-05 -4.4919e-05 0.0974365)
(-2.06992e-06 -5.70053e-06 0.0878923)
(1.55144e-05 -2.7984e-05 0.0923206)
(-2.17741e-06 -4.28482e-06 0.0816674)
(9.73018e-06 -1.25543e-05 0.0974856)
(-2.50297e-06 2.0061e-06 0.0713024)
(2.71158e-07 -2.04647e-05 0.0904871)
(-1.99738e-07 -8.01144e-06 0.0786249)
(-6.2579e-07 -8.03138e-06 0.0767874)
(-4.51931e-07 -1.32477e-05 0.0860378)
(-8.0936e-07 -4.72425e-06 0.0681785)
(4.91913e-05 4.91898e-05 0.111152)
(1.84241e-05 5.38993e-05 0.111719)
(5.38863e-05 1.84062e-05 0.111719)
(1.98106e-05 1.98056e-05 0.112054)
(-4.91816e-05 4.91466e-05 0.111152)
(-1.84266e-05 5.38772e-05 0.111719)
(-5.38915e-05 1.84015e-05 0.111719)
(-1.98179e-05 1.97989e-05 0.112054)
(-4.92429e-05 -4.92156e-05 0.111152)
(-5.39146e-05 -1.84472e-05 0.111719)
(-1.84382e-05 -5.38792e-05 0.111719)
(-1.9824e-05 -1.98253e-05 0.112054)
(4.9233e-05 -4.92365e-05 0.111152)
(5.39002e-05 -1.84414e-05 0.111719)
(1.84219e-05 -5.3888e-05 0.111719)
(1.98133e-05 -1.98238e-05 0.112054)
(1.07099e-05 1.06224e-05 0.0988487)
(-2.45361e-05 -2.45663e-05 0.106419)
(9.88281e-05 5.56441e-05 0.103117)
(5.55707e-05 9.87004e-05 0.103111)
(4.16976e-05 4.17392e-05 0.0987771)
(-2.65086e-05 2.14378e-05 0.103225)
(2.14986e-05 -2.65292e-05 0.103225)
(1.14173e-05 -1.76208e-05 0.105131)
(8.54877e-07 1.91049e-05 0.100441)
(3.7474e-06 4.90922e-05 0.0991501)
(3.65255e-06 0.000144326 0.105747)
(1.08659e-05 0.000138245 0.104947)
(2.78506e-06 1.50178e-05 0.0992324)
(4.58988e-06 -1.20883e-05 0.105897)
(1.48574e-05 -2.69177e-05 0.103462)
(-1.41347e-06 8.94032e-06 0.0939077)
(5.59496e-06 3.9696e-05 0.0968504)
(2.16003e-05 0.000113148 0.101103)
(1.34555e-05 -2.39544e-05 0.10119)
(1.70942e-05 0.000127039 0.103294)
(2.21684e-06 7.53621e-06 0.0969344)
(-1.15124e-05 -1.76606e-05 0.105131)
(-8.68992e-07 1.90852e-05 0.100441)
(-3.78319e-06 4.90634e-05 0.0991504)
(-3.68593e-06 0.000144319 0.105747)
(-1.09112e-05 0.000138211 0.104946)
(-2.81658e-06 1.49748e-05 0.0992324)
(-4.65229e-06 -1.20901e-05 0.105897)
(-1.4949e-05 -2.70027e-05 0.103462)
(1.40293e-06 8.80233e-06 0.0939077)
(-5.58265e-06 3.9623e-05 0.096851)
(-2.15846e-05 0.000113117 0.1011)
(-1.71361e-05 0.000126972 0.103293)
(-2.20828e-06 7.41117e-06 0.0969348)
(-1.35252e-05 -2.39971e-05 0.101189)
(-1.02908e-05 1.0695e-05 0.0988486)
(2.47061e-05 -2.43577e-05 0.106419)
(-9.87018e-05 5.57175e-05 0.103113)
(-5.56263e-05 9.87211e-05 0.103115)
(2.66871e-05 2.1661e-05 0.103223)
(-4.15877e-05 4.17031e-05 0.0987768)
(-2.13057e-05 -2.66264e-05 0.103227)
(-1.75985e-05 1.14587e-05 0.105131)
(1.90944e-05 8.24389e-07 0.100441)
(4.90953e-05 3.78186e-06 0.0991497)
(0.000144336 3.67938e-06 0.105746)
(0.000138265 1.08747e-05 0.104946)
(1.50231e-05 2.79993e-06 0.0992322)
(-1.20931e-05 4.60725e-06 0.105897)
(-2.69873e-05 1.48778e-05 0.103463)
(8.90778e-06 -1.46441e-06 0.0939079)
(3.96437e-05 5.60709e-06 0.0968504)
(0.00011307 2.1528e-05 0.1011)
(-2.40127e-05 1.34478e-05 0.10119)
(0.000126953 1.70731e-05 0.103293)
(7.45583e-06 2.21948e-06 0.0969345)
(-1.76754e-05 -1.14858e-05 0.105131)
(1.91e-05 -9.13682e-07 0.100441)
(0.000144326 -3.6419e-06 0.105746)
(4.90321e-05 -3.74351e-06 0.0991496)
(0.000138211 -1.08429e-05 0.104946)
(-1.21058e-05 -4.64633e-06 0.105896)
(1.49814e-05 -2.82705e-06 0.0992325)
(-2.70074e-05 -1.49667e-05 0.103462)
(8.95318e-06 1.52088e-06 0.0939078)
(3.96524e-05 -5.60129e-06 0.09685)
(0.000113074 -2.16665e-05 0.1011)
(0.000127024 -1.71079e-05 0.103292)
(7.48793e-06 -2.23208e-06 0.096935)
(-2.40046e-05 -1.35631e-05 0.101189)
(2.69836e-05 1.4762e-05 0.103463)
(-9.08952e-06 -1.49272e-06 0.0939083)
(-3.9703e-05 5.59313e-06 0.0968509)
(-0.000113124 2.15605e-05 0.101102)
(-0.000126948 1.70626e-05 0.103294)
(2.39113e-05 1.33367e-05 0.101191)
(-7.577e-06 2.22941e-06 0.0969348)
(1.06087e-05 -1.05919e-05 0.098848)
(-2.42786e-05 2.43449e-05 0.106418)
(5.56151e-05 -9.89876e-05 0.103113)
(9.89723e-05 -5.56404e-05 0.103116)
(2.15707e-05 2.6391e-05 0.103223)
(4.18154e-05 -4.18395e-05 0.098777)
(-2.64275e-05 -2.1548e-05 0.103226)
(3.63452e-06 -0.000144337 0.105747)
(3.75826e-06 -4.90305e-05 0.0991497)
(1.08487e-05 -0.000138258 0.104946)
(5.61523e-06 -3.96063e-05 0.0968504)
(2.1642e-05 -0.000113016 0.101103)
(1.71168e-05 -0.000126967 0.103294)
(2.43744e-06 5.33052e-06 0.0711951)
(5.33668e-06 2.44212e-06 0.0711945)
(0.000107093 0.000106825 0.106112)
(7.60994e-06 1.38568e-05 0.0877419)
(1.38503e-05 7.62315e-06 0.0877402)
(2.12081e-05 -3.33088e-07 0.0920663)
(1.33159e-05 -1.85985e-06 0.0821616)
(0.000131277 9.89955e-06 0.104796)
(6.89638e-05 4.55772e-05 0.108923)
(3.35709e-05 7.02379e-06 0.0937009)
(8.21143e-05 1.49076e-05 0.110483)
(2.11666e-05 3.44265e-07 0.0920658)
(0.000136822 -3.11633e-06 0.105604)
(8.21157e-05 -1.50857e-05 0.110483)
(-2.25704e-06 -2.09112e-06 0.0712374)
(-2.09188e-06 -2.25248e-06 0.0712374)
(2.43412e-06 2.4258e-06 0.0837544)
(4.11434e-06 2.70395e-06 0.0681834)
(2.67041e-06 4.05149e-06 0.0681781)
(-8.01825e-07 -1.01643e-06 0.0682189)
(-1.02743e-06 -8.45181e-07 0.0682135)
(9.10914e-06 9.24516e-06 0.0837259)
(4.81161e-06 3.74251e-06 0.0922307)
(2.68647e-06 1.17756e-05 0.08154)
(2.6003e-05 4.24261e-05 0.0972822)
(-2.07113e-06 4.6484e-06 0.0877788)
(-2.16811e-06 3.50849e-06 0.0815734)
(1.46004e-05 2.62631e-05 0.0921927)
(8.57697e-06 1.03882e-05 0.0973314)
(3.76015e-06 4.9681e-06 0.092224)
(1.18863e-05 2.62727e-06 0.0815346)
(4.21117e-05 2.58453e-05 0.0972814)
(4.85556e-06 -2.07907e-06 0.0877774)
(3.54183e-06 -2.22482e-06 0.0815687)
(1.03711e-05 8.58878e-06 0.0973288)
(2.61545e-05 1.44107e-05 0.0921873)
(-8.72478e-07 6.89441e-07 0.0767479)
(1.93421e-05 4.5465e-08 0.090363)
(7.62553e-06 -3.569e-07 0.0785489)
(2.97398e-06 -3.9054e-07 0.0921002)
(1.42245e-06 -2.00819e-07 0.0904032)
(-8.00935e-07 -1.01118e-07 0.0785762)
(7.79447e-06 -8.19746e-07 0.0767149)
(-2.64024e-06 7.27822e-07 0.0681673)
(1.26375e-05 -7.8682e-07 0.0859338)
(-3.43519e-06 -3.99559e-06 0.0822032)
(-2.12619e-06 -1.63758e-06 0.0859796)
(4.69739e-06 -9.77349e-07 0.0681185)
(-7.99595e-07 -6.10874e-07 0.0767487)
(7.60406e-06 3.93733e-07 0.0785479)
(2.99893e-06 3.79486e-07 0.0921005)
(1.92433e-05 -1.14507e-08 0.090362)
(-7.16714e-07 1.4994e-07 0.0785771)
(1.39678e-06 2.43198e-07 0.0904038)
(7.76803e-06 9.10804e-07 0.0767129)
(4.89241e-05 4.89371e-05 0.111206)
(8.40869e-07 1.82509e-05 0.100393)
(-7.9601e-07 1.82331e-05 0.100393)
(8.57256e-06 -1.64682e-06 0.0938704)
(3.86061e-06 2.91413e-07 0.0922026)
(1.82893e-05 -8.748e-07 0.100393)
(-7.15666e-05 4.71834e-05 0.108904)
(-8.44668e-05 -1.53945e-05 0.110386)
(-3.80356e-06 2.86383e-07 0.0922015)
(-2.48071e-05 2.4874e-05 0.106393)
(1.53327e-05 -8.45364e-05 0.110386)
(-4.74736e-05 -7.18533e-05 0.108905)
(2.49353e-05 2.4656e-05 0.106392)
(2.03108e-06 2.50156e-06 0.0712857)
(0.000109688 -0.000109717 0.106162)
(5.31499e-05 1.81855e-05 0.11192)
(-7.07666e-05 4.67504e-05 0.10891)
(9.51002e-07 5.13156e-05 0.100276)
(-8.87966e-07 5.13032e-05 0.100276)
(3.43346e-05 7.28297e-06 0.0937714)
(2.18926e-05 3.03445e-07 0.092133)
(5.13687e-05 -9.18855e-07 0.100276)
(-2.18992e-05 2.81487e-07 0.092134)
(-1.83445e-05 5.36455e-05 0.111786)
(-5.36939e-05 -1.83688e-05 0.111786)
(1.83255e-05 -5.36481e-05 0.111786)
(5.42503e-06 -2.31443e-06 0.0712254)
(4.67584e-05 -7.08382e-05 0.108911)
(7.39318e-06 -3.43525e-05 0.0937721)
(-2.54999e-06 -1.99517e-06 0.0712852)
(-1.99187e-06 -2.53813e-06 0.0712853)
(-2.19712e-06 5.49115e-06 0.0878616)
(5.47659e-06 -2.18802e-06 0.0878614)
(-2.48233e-05 -2.48416e-05 0.106394)
(-2.73757e-07 3.81637e-06 0.0922024)
(-4.06648e-06 -3.25689e-06 0.082273)
(2.64392e-07 3.82072e-06 0.0922024)
(4.01108e-06 -3.16898e-06 0.0822735)
(-1.60839e-06 8.61752e-06 0.0938701)
(4.74758e-05 7.18256e-05 0.108903)
(1.53749e-05 8.45289e-05 0.110386)
(1.51743e-06 8.43348e-06 0.0938709)
(-1.52548e-05 8.45517e-05 0.110386)
(-4.75427e-05 7.18983e-05 0.108903)
(2.47087e-06 -1.96327e-06 0.0712861)
(2.13458e-06 5.1848e-06 0.0878632)
(2.5202e-05 -2.4707e-05 0.106394)
(-5.57431e-06 -2.09287e-06 0.0878601)
(2.01086e-06 -2.52491e-06 0.0712851)
(-3.26401e-06 -4.04635e-06 0.0822734)
(3.80593e-06 -2.40115e-07 0.092202)
(1.82591e-05 7.72641e-07 0.100393)
(7.17694e-05 4.74625e-05 0.108905)
(8.45302e-05 1.53251e-05 0.110386)
(-3.24928e-06 4.01024e-06 0.0822736)
(7.17679e-05 -4.73379e-05 0.108902)
(8.45289e-05 -1.53524e-05 0.110386)
(8.61176e-06 1.62082e-06 0.09387)
(-8.44536e-05 1.52569e-05 0.110386)
(-8.7245e-06 -1.61013e-06 0.09387)
(-1.83154e-05 7.86034e-07 0.100392)
(3.34514e-06 -4.00359e-06 0.0822736)
(-3.8015e-06 -2.35766e-07 0.0922017)
(-7.16509e-05 -4.72647e-05 0.108902)
(-1.8315e-05 -8.66805e-07 0.100392)
(-8.73982e-06 1.66527e-06 0.0938698)
(3.32977e-06 4.03743e-06 0.0822732)
(-1.98974e-06 2.4189e-06 0.0712858)
(5.46732e-06 2.00441e-06 0.0878606)
(-2.0401e-06 -5.44253e-06 0.0878631)
(-2.4508e-06 2.01035e-06 0.0712855)
(4.72445e-05 -7.16954e-05 0.108904)
(-1.65223e-06 -8.60776e-06 0.093871)
(-1.53235e-05 -8.45524e-05 0.110386)
(-4.01016e-06 3.23586e-06 0.0822736)
(-5.6125e-06 2.05716e-06 0.0878614)
(1.43014e-05 -7.7869e-06 0.0877943)