/*--------------------------------*- C++ -*----------------------------------*\
| =========                 |                                                 |
| \\      /  F ield         | OpenFOAM: The Open Source CFD Toolbox           |
|  \\    /   O peration     | Version:  v2012                                 |
|   \\  /    A nd           | Website:  www.openfoam.com                      |
|    \\/     M anipulation  |                                                 |
\*---------------------------------------------------------------------------*/
FoamFile
{
    version     2.0;
    format      ascii;
    class       volScalarField;
    location    "1887.5";
    object      k;
}
// * * * * * * * * * * * * * * * * * * * * * * * * * * * * * * * * * * * * * //

dimensions      [0 2 -2 0 0 0 0];


internalField   nonuniform List<scalar> 
171728
(
1.6916e-07
4.0485e-07
2.52023e-07
3.58399e-07
1.70026e-07
4.22457e-07
2.41093e-07
3.39428e-07
1.68954e-07
4.51117e-07
2.28293e-07
3.20635e-07
1.66669e-07
5.13548e-07
2.17442e-07
3.01151e-07
1.64128e-07
5.99818e-07
2.09639e-07
2.78805e-07
1.61557e-07
7.08814e-07
2.05846e-07
2.55433e-07
1.5957e-07
8.09433e-07
2.01221e-07
2.38425e-07
1.58419e-07
8.54653e-07
1.9497e-07
2.34885e-07
1.55777e-07
7.00282e-07
1.88296e-07
2.39068e-07
1.51081e-07
4.48662e-07
1.82601e-07
2.50042e-07
1.46031e-07
3.44334e-07
1.77571e-07
2.99859e-07
1.44243e-07
3.22461e-07
1.72921e-07
3.48475e-07
1.45455e-07
3.2477e-07
1.69504e-07
3.65175e-07
1.49246e-07
3.73823e-07
1.68558e-07
3.78195e-07
1.4698e-07
7.39327e-07
1.701e-07
3.7948e-07
1.18494e-07
9.23529e-07
1.74821e-07
2.95563e-07
1.01047e-07
8.07078e-07
1.85411e-07
2.0104e-07
9.50562e-08
5.40141e-07
2.04966e-07
1.9414e-07
9.43493e-08
4.51532e-07
2.41982e-07
2.06148e-07
9.41585e-08
3.32357e-07
2.90688e-07
2.68911e-07
9.411e-08
3.26554e-07
3.68747e-07
3.94412e-07
9.40689e-08
4.56421e-07
4.94318e-07
7.09809e-07
9.44493e-08
6.654e-07
7.00929e-07
8.59223e-07
9.54751e-08
8.5133e-07
9.18977e-07
1.94008e-06
9.66119e-08
1.13289e-06
1.28277e-06
2.24944e-06
1.02108e-07
1.68472e-06
1.57025e-06
3.88705e-06
1.06064e-07
2.00707e-06
2.28343e-06
5.69025e-06
1.1523e-07
2.89413e-06
2.62001e-06
7.16969e-06
1.35163e-07
3.27585e-06
3.66013e-06
1.04779e-05
1.58732e-07
4.57337e-06
4.26038e-06
1.21031e-05
1.80996e-07
5.36837e-06
5.47721e-06
1.46048e-05
2.59945e-07
6.25051e-06
6.28394e-06
1.76321e-05
3.30382e-07
7.94977e-06
8.27049e-06
1.93804e-05
3.62067e-07
9.76151e-06
8.91415e-06
2.1722e-05
5.00671e-07
9.67099e-06
1.04247e-05
2.32742e-05
7.00834e-07
1.28941e-05
1.2664e-05
2.52178e-05
7.99687e-07
1.43426e-05
1.30949e-05
2.62419e-05
1.2022e-06
1.44761e-05
1.59096e-05
2.79777e-05
1.35855e-06
1.76337e-05
1.70304e-05
2.92017e-05
1.86513e-06
1.84029e-05
1.90683e-05
3.01969e-05
1.93867e-06
2.1838e-05
2.07374e-05
3.20521e-05
2.86248e-06
2.27792e-05
2.23354e-05
3.13241e-05
3.78349e-06
2.29616e-05
2.47659e-05
3.63634e-05
4.14479e-06
2.75067e-05
2.72664e-05
3.52878e-05
5.24936e-06
2.83563e-05
2.72272e-05
3.5043e-05
5.35867e-06
2.85189e-05
2.93835e-05
3.64679e-05
6.71264e-06
3.1537e-05
3.15424e-05
3.92025e-05
8.35112e-06
3.22302e-05
3.25693e-05
3.99009e-05
9.48718e-06
3.41236e-05
3.39689e-05
4.01735e-05
1.0635e-05
3.6041e-05
3.60776e-05
4.08592e-05
1.23145e-05
3.65373e-05
3.65619e-05
4.18759e-05
1.27047e-05
3.83668e-05
3.7812e-05
4.36606e-05
1.44847e-05
3.91224e-05
3.99461e-05
4.4184e-05
1.74618e-05
3.95939e-05
4.03286e-05
4.46379e-05
1.96754e-05
4.21874e-05
4.0528e-05
4.55792e-05
1.93673e-05
4.28631e-05
4.30272e-05
4.65523e-05
1.90588e-05
4.26917e-05
4.36165e-05
4.67966e-05
2.32806e-05
4.46465e-05
4.41152e-05
4.80342e-05
2.62148e-05
4.54913e-05
4.53406e-05
4.82571e-05
2.63698e-05
4.60679e-05
4.59251e-05
4.93124e-05
2.64465e-05
4.70754e-05
4.73569e-05
4.95104e-05
2.83665e-05
4.70456e-05
4.76493e-05
5.0665e-05
2.98293e-05
4.90446e-05
4.84576e-05
5.17133e-05
3.17766e-05
4.95241e-05
4.95415e-05
5.16296e-05
3.26886e-05
4.96565e-05
4.96798e-05
5.15365e-05
3.28921e-05
5.06164e-05
5.06282e-05
5.25867e-05
3.42511e-05
5.07154e-05
5.07693e-05
5.23946e-05
3.5313e-05
5.19288e-05
5.18725e-05
5.37491e-05
3.6961e-05
5.21355e-05
5.27992e-05
5.59551e-05
3.78673e-05
5.32223e-05
5.33315e-05
5.58275e-05
3.86673e-05
5.35013e-05
5.29907e-05
5.31766e-05
3.88365e-05
5.32525e-05
5.24592e-05
5.27174e-05
3.97901e-05
5.39116e-05
5.42377e-05
5.69259e-05
4.11808e-05
5.51625e-05
5.57076e-05
5.79622e-05
4.17695e-05
5.53171e-05
5.55024e-05
5.62515e-05
4.24792e-05
5.54184e-05
5.53056e-05
5.59407e-05
4.33716e-05
5.53812e-05
5.49025e-05
5.62464e-05
4.29973e-05
5.49375e-05
5.49394e-05
5.63418e-05
4.3115e-05
5.61004e-05
5.65606e-05
5.73856e-05
4.54251e-05
5.71364e-05
5.67351e-05
5.749e-05
4.57954e-05
5.71117e-05
5.64419e-05
5.83047e-05
4.50488e-05
5.65002e-05
5.68682e-05
5.86387e-05
4.49804e-05
5.64785e-05
5.72501e-05
5.72743e-05
4.60435e-05
5.67257e-05
5.70297e-05
5.72508e-05
4.64501e-05
5.67643e-05
5.65113e-05
5.78782e-05
4.64594e-05
5.72752e-05
5.69334e-05
5.83655e-05
4.67219e-05
5.78435e-05
5.74325e-05
5.87344e-05
4.69615e-05
5.74588e-05
5.7329e-05
5.80389e-05
4.67892e-05
5.65382e-05
5.72697e-05
5.7579e-05
4.66234e-05
5.64952e-05
5.70573e-05
5.79819e-05
4.62891e-05
5.64456e-05
5.60251e-05
5.76377e-05
4.66356e-05
5.81094e-05
5.71015e-05
5.90623e-05
4.79952e-05
5.8493e-05
5.84552e-05
5.97174e-05
4.69868e-05
5.46043e-05
5.55884e-05
5.50793e-05
4.46089e-05
5.32198e-05
5.34217e-05
5.5558e-05
2.36384e-07
2.93122e-07
3.14582e-07
2.74382e-07
2.13607e-07
3.03378e-07
1.66636e-07
2.07573e-07
1.45902e-07
1.8114e-07
2.654e-07
2.93805e-07
3.46962e-07
2.47569e-07
3.35054e-07
3.6104e-07
2.34355e-07
2.35249e-07
3.62462e-07
5.00382e-07
3.55352e-07
4.6191e-07
2.70925e-07
2.62374e-07
2.79519e-07
2.91912e-07
2.71435e-07
2.86396e-07
4.35159e-07
4.17581e-07
4.35241e-07
3.46455e-07
3.2734e-07
3.44674e-07
2.44346e-07
3.34122e-07
3.42905e-07
2.3469e-07
2.38812e-07
3.52662e-07
4.56406e-07
3.45977e-07
4.55444e-07
2.59955e-07
2.62938e-07
2.6832e-07
2.84073e-07
2.59575e-07
2.7775e-07
4.3284e-07
4.43061e-07
4.16367e-07
3.26191e-07
3.06483e-07
3.29546e-07
2.31296e-07
3.15233e-07
3.24081e-07
2.38267e-07
2.399e-07
3.43749e-07
4.57018e-07
3.35494e-07
4.6044e-07
2.6208e-07
2.82604e-07
2.56963e-07
2.75738e-07
2.48994e-07
2.69689e-07
4.07028e-07
4.94335e-07
3.64101e-07
3.05351e-07
2.8719e-07
3.10005e-07
2.20008e-07
2.95348e-07
3.0468e-07
2.3891e-07
2.36609e-07
3.32779e-07
4.60111e-07
3.24104e-07
4.29755e-07
2.82648e-07
3.08055e-07
2.46183e-07
2.67508e-07
2.37555e-07
2.60695e-07
3.4564e-07
5.75152e-07
2.89101e-07
2.86185e-07
2.70324e-07
2.91388e-07
2.11086e-07
2.82296e-07
2.82645e-07
2.35116e-07
2.29713e-07
3.20081e-07
4.08282e-07
3.0616e-07
3.28099e-07
3.07353e-07
3.20923e-07
2.34877e-07
2.58402e-07
2.28777e-07
2.51595e-07
2.73663e-07
6.82657e-07
2.43309e-07
2.69451e-07
2.56003e-07
2.80178e-07
2.06658e-07
2.76391e-07
2.59053e-07
2.27703e-07
2.18341e-07
3.00783e-07
3.00033e-07
2.8244e-07
2.30886e-07
3.1992e-07
3.34174e-07
2.27601e-07
2.4943e-07
2.26093e-07
2.43356e-07
2.37574e-07
7.849e-07
2.29477e-07
2.55289e-07
2.45283e-07
2.75815e-07
2.02652e-07
2.75329e-07
2.40631e-07
2.15572e-07
2.06596e-07
2.76914e-07
2.14255e-07
2.6715e-07
1.79159e-07
3.33293e-07
3.43011e-07
2.26043e-07
2.41499e-07
2.28238e-07
2.36314e-07
2.29029e-07
8.52936e-07
2.32856e-07
2.44859e-07
2.36799e-07
2.7541e-07
1.96627e-07
2.79134e-07
2.35141e-07
2.05198e-07
2.03964e-07
2.6616e-07
1.71375e-07
2.66049e-07
1.51401e-07
3.40546e-07
3.20474e-07
2.31329e-07
2.34613e-07
2.41439e-07
2.29678e-07
2.41528e-07
7.84003e-07
2.71943e-07
2.36337e-07
2.26868e-07
2.80354e-07
1.8986e-07
2.85227e-07
2.38769e-07
2.03666e-07
2.09693e-07
2.66752e-07
1.45773e-07
2.77516e-07
1.37767e-07
3.01089e-07
2.32008e-07
2.45841e-07
2.28011e-07
2.65624e-07
2.22876e-07
2.77908e-07
4.96719e-07
2.9368e-07
2.26267e-07
2.16373e-07
2.89146e-07
1.83845e-07
3.02364e-07
2.4865e-07
2.10399e-07
2.31034e-07
2.82529e-07
1.37535e-07
3.01901e-07
1.36026e-07
2.30392e-07
2.23485e-07
2.74949e-07
2.21119e-07
3.08907e-07
2.15624e-07
3.11085e-07
3.59757e-07
4.26386e-07
2.15853e-07
2.07905e-07
3.09569e-07
1.78909e-07
3.43526e-07
2.94998e-07
2.33023e-07
2.65399e-07
3.10343e-07
1.34463e-07
3.38948e-07
1.31144e-07
2.23184e-07
2.1599e-07
3.21873e-07
2.13766e-07
3.69081e-07
2.08723e-07
4.72255e-07
3.24152e-07
5.74803e-07
2.07575e-07
2.00465e-07
3.5613e-07
1.74027e-07
3.96487e-07
3.47866e-07
2.68137e-07
3.09043e-07
3.48239e-07
1.30642e-07
3.66492e-07
1.29813e-07
2.16001e-07
2.14577e-07
3.89868e-07
2.06957e-07
4.72817e-07
2.01739e-07
5.89719e-07
3.22993e-07
5.90371e-07
2.00177e-07
1.9308e-07
4.1568e-07
1.69862e-07
5.14063e-07
3.64677e-07
3.12234e-07
3.43796e-07
3.68533e-07
1.29872e-07
3.64971e-07
1.30991e-07
2.15806e-07
2.24135e-07
5.05116e-07
2.00295e-07
5.95461e-07
1.96152e-07
5.63656e-07
3.44806e-07
3.81431e-07
1.9296e-07
1.87272e-07
5.60028e-07
1.68617e-07
6.97011e-07
3.78544e-07
3.44852e-07
3.45337e-07
3.51456e-07
1.31879e-07
2.8769e-07
1.39856e-07
2.30873e-07
3.14939e-07
6.183e-07
1.9509e-07
6.52299e-07
1.92206e-07
3.33119e-07
6.51596e-07
2.3174e-07
1.87415e-07
1.83488e-07
7.32408e-07
1.69233e-07
7.91219e-07
3.79291e-07
3.43045e-07
2.68514e-07
2.67618e-07
1.43426e-07
2.1107e-07
1.54187e-07
3.39108e-07
4.33073e-07
6.53089e-07
1.92055e-07
5.89457e-07
1.91347e-07
2.11684e-07
9.04867e-07
1.82557e-07
1.83919e-07
1.82456e-07
7.95229e-07
1.72984e-07
7.57572e-07
3.08598e-07
2.61555e-07
2.05903e-07
2.00737e-07
1.5603e-07
1.77686e-07
1.52807e-07
4.44004e-07
3.70741e-07
5.23855e-07
1.91627e-07
3.56425e-07
1.9499e-07
1.7658e-07
8.99187e-07
1.5978e-07
1.83872e-07
1.8589e-07
6.76693e-07
1.80994e-07
4.46655e-07
2.03523e-07
2.06609e-07
1.95101e-07
1.72216e-07
1.52089e-07
1.71948e-07
1.58431e-07
3.46873e-07
2.27301e-07
3.14495e-07
1.97423e-07
2.32786e-07
2.05724e-07
1.58486e-07
5.76715e-07
1.61121e-07
1.88758e-07
1.96269e-07
3.86518e-07
2.00146e-07
2.77394e-07
1.90683e-07
1.96316e-07
1.97006e-07
1.73312e-07
1.60927e-07
1.91287e-07
1.85871e-07
2.29854e-07
2.45278e-07
2.18552e-07
2.11553e-07
2.06726e-07
2.27007e-07
1.64498e-07
4.80118e-07
1.94544e-07
2.03452e-07
2.22785e-07
2.53766e-07
2.29093e-07
2.16142e-07
1.96971e-07
2.08661e-07
2.72096e-07
2.14327e-07
1.94306e-07
2.84927e-07
2.20865e-07
2.50407e-07
2.58541e-07
2.07699e-07
2.37609e-07
2.31507e-07
2.72158e-07
2.05994e-07
3.46108e-07
2.24669e-07
2.34869e-07
2.79611e-07
2.15593e-07
2.72169e-07
2.24089e-07
2.45405e-07
2.92226e-07
3.67498e-07
2.98678e-07
2.50058e-07
3.18781e-07
3.00738e-07
2.89685e-07
3.77066e-07
2.5044e-07
2.83315e-07
2.93204e-07
3.50931e-07
2.39673e-07
3.26365e-07
3.00241e-07
2.96234e-07
4.08368e-07
2.38769e-07
3.49084e-07
2.9837e-07
3.79375e-07
3.90679e-07
6.331e-07
3.27178e-07
3.05627e-07
4.27683e-07
4.08325e-07
3.81589e-07
5.66595e-07
3.15744e-07
3.71686e-07
4.23334e-07
4.47447e-07
3.0807e-07
4.16629e-07
4.17806e-07
4.33763e-07
6.05837e-07
3.06842e-07
4.6252e-07
4.20742e-07
5.93165e-07
6.92529e-07
8.76894e-07
4.43934e-07
4.46322e-07
5.79336e-07
5.84476e-07
7.02181e-07
9.72361e-07
4.39894e-07
5.0541e-07
5.87701e-07
6.42875e-07
4.66351e-07
5.99586e-07
5.22768e-07
6.88903e-07
1.01661e-06
4.63783e-07
6.62561e-07
5.2182e-07
8.25513e-07
1.01427e-06
1.44748e-06
6.26892e-07
6.46311e-07
7.7179e-07
7.51775e-07
1.08351e-06
1.49202e-06
6.36121e-07
6.62005e-07
7.60157e-07
8.31362e-07
5.56125e-07
7.6684e-07
8.54034e-07
1.1001e-06
1.3081e-06
5.69672e-07
7.93908e-07
8.53525e-07
1.80533e-06
1.63115e-06
2.54755e-06
8.93174e-07
8.49555e-07
1.10193e-06
1.10577e-06
1.57356e-06
2.46461e-06
8.83691e-07
9.25108e-07
1.1193e-06
1.22711e-06
8.98534e-07
1.1053e-06
1.03993e-06
1.52232e-06
2.78958e-06
8.88403e-07
1.225e-06
1.04569e-06
2.03231e-06
2.58521e-06
3.21977e-06
1.12842e-06
1.12819e-06
1.45743e-06
1.4169e-06
2.53736e-06
3.20527e-06
1.1446e-06
1.28429e-06
1.45247e-06
1.44293e-06
1.16301e-06
1.48315e-06
1.44662e-06
2.86613e-06
3.2056e-06
1.1879e-06
1.46191e-06
1.45014e-06
3.69085e-06
3.75256e-06
5.67162e-06
1.64886e-06
1.66145e-06
1.98488e-06
2.00193e-06
3.78987e-06
5.57157e-06
1.64779e-06
1.63523e-06
2.00517e-06
2.20406e-06
1.61633e-06
1.94871e-06
2.01533e-06
3.52967e-06
5.5403e-06
1.60635e-06
2.13144e-06
1.99169e-06
5.4018e-06
5.8498e-06
6.80449e-06
2.09223e-06
2.0655e-06
2.58433e-06
2.68565e-06
5.68073e-06
7.17452e-06
2.08593e-06
2.26544e-06
2.53153e-06
2.36947e-06
2.06139e-06
2.69063e-06
2.52897e-06
5.9908e-06
6.91942e-06
2.03738e-06
2.48442e-06
2.52721e-06
6.58785e-06
7.29102e-06
9.3506e-06
2.71514e-06
2.85844e-06
3.33598e-06
3.07578e-06
7.82638e-06
9.13866e-06
2.69412e-06
2.54147e-06
3.29658e-06
3.6786e-06
2.75285e-06
3.13683e-06
3.37459e-06
7.13255e-06
9.65584e-06
2.77439e-06
3.49466e-06
3.3927e-06
1.00529e-05
9.82096e-06
1.2145e-05
3.5308e-06
3.21769e-06
4.211e-06
4.43905e-06
9.31636e-06
1.22977e-05
3.50434e-06
3.83809e-06
4.17132e-06
4.01786e-06
3.59127e-06
4.36099e-06
4.11214e-06
1.03081e-05
1.14528e-05
3.57695e-06
3.93737e-06
4.05974e-06
1.16991e-05
1.27033e-05
1.40979e-05
4.52987e-06
4.69972e-06
5.08507e-06
5.05719e-06
1.321e-05
1.46112e-05
4.45996e-06
4.19276e-06
5.05601e-06
5.41765e-06
4.28827e-06
4.98591e-06
4.9639e-06
1.17303e-05
1.48898e-05
4.26156e-06
5.33573e-06
5.01362e-06
1.40388e-05
1.44401e-05
1.67477e-05
5.16194e-06
5.35156e-06
6.23222e-06
5.95745e-06
1.4805e-05
1.61887e-05
5.13818e-06
5.57474e-06
6.11225e-06
5.96879e-06
5.27457e-06
6.17427e-06
6.4012e-06
1.55682e-05
1.63803e-05
5.2856e-06
5.97917e-06
6.28815e-06
1.70898e-05
1.74894e-05
1.9858e-05
6.96113e-06
6.05992e-06
8.3086e-06
7.38222e-06
1.6662e-05
1.90234e-05
6.74727e-06
6.31064e-06
7.88558e-06
7.79173e-06
6.71207e-06
7.01708e-06
7.2717e-06
1.66861e-05
1.9756e-05
6.62571e-06
7.78892e-06
7.39992e-06
1.90017e-05
2.00831e-05
2.03765e-05
8.40022e-06
8.2319e-06
8.44131e-06
9.67279e-06
2.00221e-05
2.2364e-05
7.96697e-06
8.23213e-06
8.34701e-06
8.79309e-06
7.57224e-06
9.70117e-06
8.96117e-06
2.03732e-05
2.09915e-05
7.68367e-06
8.86731e-06
8.75418e-06
2.12104e-05
2.07413e-05
2.33377e-05
8.50735e-06
9.70062e-06
9.98769e-06
9.55492e-06
2.24179e-05
2.15312e-05
8.84006e-06
8.85108e-06
1.01237e-05
9.72555e-06
9.4237e-06
9.65121e-06
1.0053e-05
2.11911e-05
2.26591e-05
9.19732e-06
9.57303e-06
1.00242e-05
2.29324e-05
2.37995e-05
2.45236e-05
1.06239e-05
9.57789e-06
1.21265e-05
1.16566e-05
2.16657e-05
2.52709e-05
1.05874e-05
1.05503e-05
1.19201e-05
1.24481e-05
1.02089e-05
1.16044e-05
1.18286e-05
2.3287e-05
2.51166e-05
1.03028e-05
1.24345e-05
1.2049e-05
2.47865e-05
2.48117e-05
2.64314e-05
1.23973e-05
1.29565e-05
1.32162e-05
1.44075e-05
2.62548e-05
2.67744e-05
1.21897e-05
1.26578e-05
1.29797e-05
1.28727e-05
1.23868e-05
1.43183e-05
1.33643e-05
2.5372e-05
2.58068e-05
1.25348e-05
1.28975e-05
1.30204e-05
2.60033e-05
2.6794e-05
2.75611e-05
1.37713e-05
1.44357e-05
1.55458e-05
1.4464e-05
2.68163e-05
2.69284e-05
1.35531e-05
1.30594e-05
1.5454e-05
1.53477e-05
1.35105e-05
1.43698e-05
1.46444e-05
2.60972e-05
2.78046e-05
1.31199e-05
1.52966e-05
1.4721e-05
2.74534e-05
2.78441e-05
2.94833e-05
1.58429e-05
1.45616e-05
1.67136e-05
1.69717e-05
2.72996e-05
2.90121e-05
1.58149e-05
1.58787e-05
1.66659e-05
1.67847e-05
1.5468e-05
1.69886e-05
1.72707e-05
2.82379e-05
2.89412e-05
1.56584e-05
1.67234e-05
1.72659e-05
2.90671e-05
2.98102e-05
3.00395e-05
1.73568e-05
1.76251e-05
1.89641e-05
1.82234e-05
2.93197e-05
2.98871e-05
1.72578e-05
1.7225e-05
1.89744e-05
1.87762e-05
1.74271e-05
1.82086e-05
1.77773e-05
2.91937e-05
3.01781e-05
1.73654e-05
1.86609e-05
1.76554e-05
2.96779e-05
3.00949e-05
3.03436e-05
1.91193e-05
1.8413e-05
1.92672e-05
2.07599e-05
3.02463e-05
3.20357e-05
1.91927e-05
1.90693e-05
1.93768e-05
1.99809e-05
1.82863e-05
2.09054e-05
2.12515e-05
3.04714e-05
3.1178e-05
1.81507e-05
2.01936e-05
2.12661e-05
3.19903e-05
3.07075e-05
3.28844e-05
1.94154e-05
2.16794e-05
2.23894e-05
2.28334e-05
3.2379e-05
3.24464e-05
1.94999e-05
2.05257e-05
2.19807e-05
2.21908e-05
2.16041e-05
2.2787e-05
2.17245e-05
3.14549e-05
3.24044e-05
2.16166e-05
2.2052e-05
2.17372e-05
3.12258e-05
3.33471e-05
3.40291e-05
2.34599e-05
2.28524e-05
2.47435e-05
2.28777e-05
3.24762e-05
3.27953e-05
2.29802e-05
2.25813e-05
2.47584e-05
2.40084e-05
2.17603e-05
2.27713e-05
2.43126e-05
3.26523e-05
3.39162e-05
2.17761e-05
2.38582e-05
2.43338e-05
3.56716e-05
3.42051e-05
3.50711e-05
2.48415e-05
2.30494e-05
2.58364e-05
2.63353e-05
3.328e-05
3.57753e-05
2.50513e-05
2.4794e-05
2.60196e-05
2.68951e-05
2.59837e-05
2.65672e-05
2.74349e-05
3.438e-05
3.55221e-05
2.59686e-05
2.70484e-05
2.73377e-05
3.54534e-05
3.54167e-05
3.61134e-05
2.66409e-05
2.72843e-05
2.8186e-05
2.83771e-05
3.60761e-05
3.61277e-05
2.66289e-05
2.71532e-05
2.79301e-05
2.72247e-05
2.74304e-05
2.83473e-05
2.7037e-05
3.56155e-05
3.53409e-05
2.73265e-05
2.72412e-05
2.6892e-05
3.47661e-05
3.61749e-05
3.61613e-05
2.8285e-05
2.8415e-05
2.83381e-05
2.84748e-05
3.61632e-05
3.65038e-05
2.80251e-05
2.72257e-05
2.82058e-05
2.83673e-05
2.6957e-05
2.83993e-05
2.70533e-05
3.54046e-05
3.67583e-05
2.68326e-05
2.81464e-05
2.70352e-05
3.60355e-05
3.6386e-05
3.82519e-05
2.8473e-05
2.86042e-05
3.07203e-05
3.09549e-05
3.67305e-05
3.82303e-05
2.85502e-05
2.94992e-05
3.06895e-05
3.1389e-05
2.75637e-05
3.09733e-05
3.16044e-05
3.73251e-05
3.84741e-05
2.78119e-05
3.13175e-05
3.17283e-05
3.88269e-05
3.85584e-05
3.92797e-05
3.12645e-05
3.14646e-05
3.2749e-05
3.18795e-05
3.84724e-05
3.8705e-05
3.12128e-05
3.15657e-05
3.26666e-05
3.22114e-05
3.24789e-05
3.20158e-05
3.35125e-05
3.85792e-05
3.88713e-05
3.23916e-05
3.22932e-05
3.31864e-05
3.98223e-05
3.9518e-05
4.0214e-05
3.32277e-05
3.20436e-05
3.38839e-05
3.36872e-05
3.8831e-05
4.01413e-05
3.30936e-05
3.2563e-05
3.37563e-05
3.34984e-05
3.35612e-05
3.3657e-05
3.3679e-05
3.90685e-05
3.99334e-05
3.33043e-05
3.34847e-05
3.36274e-05
4.00477e-05
4.03416e-05
4.13475e-05
3.40043e-05
3.42524e-05
3.55064e-05
3.58407e-05
4.04797e-05
4.15268e-05
3.3961e-05
3.39083e-05
3.55481e-05
3.56979e-05
3.38973e-05
3.56632e-05
3.49824e-05
4.01823e-05
4.15332e-05
3.38767e-05
3.56637e-05
3.49436e-05
4.07131e-05
4.17059e-05
4.20883e-05
3.61001e-05
3.61782e-05
3.67516e-05
3.6484e-05
4.17044e-05
4.18851e-05
3.60787e-05
3.61968e-05
3.66329e-05
3.66972e-05
3.51831e-05
3.64484e-05
3.58856e-05
4.18162e-05
4.19639e-05
3.52408e-05
3.65223e-05
3.60715e-05
4.16002e-05
4.20956e-05
4.21277e-05
3.67543e-05
3.65249e-05
3.69007e-05
3.75e-05
4.19665e-05
4.29785e-05
3.66521e-05
3.6712e-05
3.71517e-05
3.71181e-05
3.63317e-05
3.77922e-05
3.82384e-05
4.19798e-05
4.25019e-05
3.64196e-05
3.72609e-05
3.79896e-05
4.33341e-05
4.23797e-05
4.37275e-05
3.72253e-05
3.81208e-05
3.87806e-05
3.896e-05
4.33182e-05
4.37091e-05
3.75269e-05
3.76929e-05
3.86687e-05
3.94035e-05
3.87743e-05
3.91084e-05
3.94034e-05
4.29038e-05
4.43981e-05
3.85609e-05
3.95674e-05
3.95005e-05
4.41543e-05
4.41052e-05
4.58608e-05
3.94778e-05
3.90058e-05
4.15331e-05
3.94171e-05
4.37237e-05
4.4054e-05
3.9117e-05
3.97611e-05
4.07674e-05
4.03208e-05
3.94243e-05
3.92353e-05
3.97153e-05
4.45914e-05
4.47258e-05
3.9565e-05
4.03216e-05
3.97883e-05
4.43616e-05
4.61495e-05
4.6125e-05
4.19283e-05
4.00627e-05
4.21213e-05
4.20962e-05
4.44387e-05
4.6175e-05
4.13042e-05
4.03994e-05
4.19004e-05
4.05483e-05
4.01518e-05
4.16707e-05
4.10495e-05
4.47453e-05
4.47296e-05
4.0136e-05
4.03756e-05
4.10148e-05
4.54282e-05
4.60439e-05
4.46802e-05
4.19923e-05
4.24105e-05
4.07729e-05
4.25236e-05
4.63976e-05
4.65156e-05
4.18862e-05
4.07073e-05
4.15178e-05
4.23612e-05
4.14305e-05
4.28582e-05
4.25682e-05
4.48663e-05
4.64356e-05
4.13885e-05
4.25207e-05
4.2442e-05
4.64496e-05
4.46775e-05
4.58061e-05
4.06327e-05
4.24231e-05
4.10225e-05
4.21179e-05
4.65192e-05
4.61679e-05
4.1491e-05
4.28377e-05
4.2023e-05
4.34376e-05
4.27186e-05
4.26899e-05
4.28549e-05
4.67862e-05
4.73542e-05
4.25706e-05
4.35145e-05
4.28415e-05
4.663e-05
4.64636e-05
4.90663e-05
4.20789e-05
4.21424e-05
4.53367e-05
4.40789e-05
4.62097e-05
4.79818e-05
4.28809e-05
4.36032e-05
4.50698e-05
4.42139e-05
4.29939e-05
4.38721e-05
4.43052e-05
4.74401e-05
4.7708e-05
4.32438e-05
4.39649e-05
4.43489e-05
4.79563e-05
4.93103e-05
4.91165e-05
4.59103e-05
4.49422e-05
4.63402e-05
4.59032e-05
4.84132e-05
4.87443e-05
4.5433e-05
4.44056e-05
4.56452e-05
4.51199e-05
4.4535e-05
4.54675e-05
4.48092e-05
4.77928e-05
4.82525e-05
4.44433e-05
4.50254e-05
4.47968e-05
4.80637e-05
4.90787e-05
4.86753e-05
4.6316e-05
4.59395e-05
4.60323e-05
4.60671e-05
4.87465e-05
4.89456e-05
4.56002e-05
4.53411e-05
4.54611e-05
4.56731e-05
4.50866e-05
4.56708e-05
4.61746e-05
4.84544e-05
4.89125e-05
4.52678e-05
4.57581e-05
4.60422e-05
4.92647e-05
4.87192e-05
4.95012e-05
4.60173e-05
4.63102e-05
4.62325e-05
4.68494e-05
4.92427e-05
4.99217e-05
4.5484e-05
4.58419e-05
4.66284e-05
4.69961e-05
4.62865e-05
4.70612e-05
4.65357e-05
4.90322e-05
5.00444e-05
4.60726e-05
4.70387e-05
4.63422e-05
4.93347e-05
4.97373e-05
5.00757e-05
4.65759e-05
4.68363e-05
4.71028e-05
4.67503e-05
4.99042e-05
4.94601e-05
4.70952e-05
4.73491e-05
4.76249e-05
4.76933e-05
4.68173e-05
4.70137e-05
4.75754e-05
5.02415e-05
5.02284e-05
4.68125e-05
4.76421e-05
4.77831e-05
5.05021e-05
5.01262e-05
5.08974e-05
4.724e-05
4.68273e-05
4.82448e-05
4.86054e-05
4.95425e-05
5.1453e-05
4.76467e-05
4.77007e-05
4.78972e-05
4.79059e-05
4.77517e-05
4.84863e-05
4.87376e-05
5.02343e-05
5.07559e-05
4.7909e-05
4.79222e-05
4.86695e-05
5.15138e-05
5.12474e-05
5.22885e-05
4.87451e-05
4.90955e-05
4.98522e-05
4.95213e-05
5.17618e-05
5.18221e-05
4.83542e-05
4.83543e-05
4.97836e-05
4.94885e-05
4.90982e-05
4.95329e-05
4.94012e-05
5.11009e-05
5.18431e-05
4.9036e-05
4.94811e-05
4.94557e-05
5.16698e-05
5.23251e-05
5.18861e-05
4.99466e-05
4.95206e-05
4.98882e-05
4.9579e-05
5.17978e-05
5.17597e-05
4.99032e-05
4.95785e-05
4.98116e-05
4.96262e-05
4.93628e-05
4.95287e-05
4.92128e-05
5.18537e-05
5.17816e-05
4.94417e-05
4.95917e-05
4.93303e-05
5.13837e-05
5.1882e-05
5.21179e-05
4.98473e-05
4.97926e-05
4.99114e-05
5.04522e-05
5.19664e-05
5.27094e-05
4.97463e-05
4.96858e-05
4.98229e-05
5.03799e-05
4.92704e-05
5.05534e-05
5.03984e-05
5.19036e-05
5.27249e-05
4.93736e-05
5.0531e-05
5.0266e-05
5.25263e-05
5.23508e-05
5.31039e-05
5.01347e-05
5.04915e-05
5.09501e-05
5.06538e-05
5.27377e-05
5.27251e-05
5.01072e-05
5.05844e-05
5.11149e-05
5.10668e-05
5.058e-05
5.06409e-05
5.06009e-05
5.28214e-05
5.29311e-05
5.03596e-05
5.06888e-05
5.03029e-05
5.23829e-05
5.31391e-05
5.33508e-05
5.10163e-05
5.09251e-05
5.15382e-05
5.1725e-05
5.2866e-05
5.36762e-05
5.11932e-05
5.12065e-05
5.13511e-05
5.15266e-05
5.06017e-05
5.17423e-05
5.13403e-05
5.29975e-05
5.3549e-05
5.03064e-05
5.16208e-05
5.131e-05
5.3343e-05
5.35534e-05
5.43667e-05
5.18209e-05
5.18199e-05
5.23722e-05
5.19001e-05
5.37306e-05
5.36788e-05
5.15782e-05
5.16416e-05
5.24464e-05
5.22836e-05
5.18877e-05
5.20855e-05
5.33686e-05
5.36846e-05
5.43346e-05
5.19603e-05
5.25578e-05
5.36866e-05
5.57084e-05
5.44816e-05
5.49354e-05
5.24917e-05
5.19602e-05
5.31384e-05
5.29393e-05
5.37338e-05
5.47642e-05
5.26598e-05
5.25775e-05
5.3235e-05
5.32242e-05
5.36601e-05
5.29218e-05
5.38489e-05
5.45071e-05
5.49035e-05
5.40168e-05
5.33056e-05
5.42167e-05
5.59842e-05
5.50156e-05
5.47627e-05
5.3325e-05
5.32628e-05
5.341e-05
5.3615e-05
5.49613e-05
5.5104e-05
5.3317e-05
5.32664e-05
5.3282e-05
5.31794e-05
5.37789e-05
5.35095e-05
5.25061e-05
5.49176e-05
5.45057e-05
5.41279e-05
5.32205e-05
5.25173e-05
5.34768e-05
5.47054e-05
5.43712e-05
5.33397e-05
5.36163e-05
5.31273e-05
5.35022e-05
5.51049e-05
5.4911e-05
5.31467e-05
5.30464e-05
5.29444e-05
5.28614e-05
5.2071e-05
5.32771e-05
5.16947e-05
5.44618e-05
5.41454e-05
5.18959e-05
5.24642e-05
5.12131e-05
5.24682e-05
5.44674e-05
5.56689e-05
5.31404e-05
5.34763e-05
5.39101e-05
5.35563e-05
5.49193e-05
5.51815e-05
5.29694e-05
5.28723e-05
5.3924e-05
5.36534e-05
5.17858e-05
5.34809e-05
5.42619e-05
5.42018e-05
5.54188e-05
5.12669e-05
5.34385e-05
5.39393e-05
5.63509e-05
5.58995e-05
5.63575e-05
5.42195e-05
5.37653e-05
5.48021e-05
5.45967e-05
5.537e-05
5.62446e-05
5.4289e-05
5.41199e-05
5.49803e-05
5.52217e-05
5.50975e-05
5.49793e-05
5.60709e-05
5.57994e-05
5.6837e-05
5.50551e-05
5.55967e-05
5.64728e-05
5.79995e-05
5.63861e-05
5.6087e-05
5.48964e-05
5.48387e-05
5.49299e-05
5.52318e-05
5.63714e-05
5.65258e-05
5.50412e-05
5.53653e-05
5.4966e-05
5.5389e-05
5.60701e-05
5.5316e-05
5.53268e-05
5.68793e-05
5.66293e-05
5.64927e-05
5.56502e-05
5.57027e-05
5.64022e-05
5.60788e-05
5.65372e-05
5.49255e-05
5.52653e-05
5.51883e-05
5.55273e-05
5.65493e-05
5.67869e-05
5.49263e-05
5.53377e-05
5.50815e-05
5.53478e-05
5.5041e-05
5.53513e-05
5.47982e-05
5.66211e-05
5.66742e-05
5.52755e-05
5.53253e-05
5.47183e-05
5.5882e-05
5.68228e-05
5.72813e-05
5.55739e-05
5.56384e-05
5.59409e-05
5.56522e-05
5.68701e-05
5.66893e-05
5.54482e-05
5.54296e-05
5.59028e-05
5.54522e-05
5.48158e-05
5.54492e-05
5.52238e-05
5.67101e-05
5.63215e-05
5.4695e-05
5.50343e-05
5.47784e-05
5.6237e-05
5.72125e-05
5.58241e-05
5.58956e-05
5.55243e-05
5.5001e-05
5.48393e-05
5.65702e-05
5.57581e-05
5.58669e-05
5.53408e-05
5.50595e-05
5.49769e-05
5.52501e-05
5.49486e-05
5.52145e-05
5.6225e-05
5.58974e-05
5.48007e-05
5.48271e-05
5.50152e-05
5.62264e-05
5.57738e-05
5.66409e-05
5.48675e-05
5.48119e-05
5.50854e-05
5.5472e-05
5.57686e-05
5.71055e-05
5.49448e-05
5.49864e-05
5.51987e-05
5.59325e-05
5.52251e-05
5.56028e-05
5.57715e-05
5.60213e-05
5.75706e-05
5.5266e-05
5.62579e-05
5.6149e-05
5.72566e-05
5.70739e-05
5.85202e-05
5.56866e-05
5.60951e-05
5.72877e-05
5.71924e-05
5.74459e-05
5.83312e-05
5.58061e-05
5.63725e-05
5.71536e-05
5.67885e-05
5.60014e-05
5.70196e-05
5.64054e-05
5.77833e-05
5.78696e-05
5.6342e-05
5.6774e-05
5.65127e-05
5.74807e-05
5.85964e-05
5.82788e-05
5.74852e-05
5.73021e-05
5.75137e-05
5.72822e-05
5.83678e-05
5.80952e-05
5.728e-05
5.67715e-05
5.72324e-05
5.64366e-05
5.65195e-05
5.71738e-05
5.71588e-05
5.77886e-05
5.72484e-05
5.65278e-05
5.64493e-05
5.68517e-05
5.80923e-05
5.81665e-05
5.70939e-05
5.7347e-05
5.71251e-05
5.6262e-05
5.63964e-05
5.80289e-05
5.73278e-05
5.70204e-05
5.63979e-05
5.63014e-05
5.64768e-05
5.73464e-05
5.66162e-05
5.7454e-05
5.72544e-05
5.76978e-05
5.71102e-05
5.66788e-05
5.7365e-05
5.86825e-05
5.70211e-05
5.70562e-05
5.60438e-05
5.62622e-05
5.59243e-05
5.62103e-05
5.72968e-05
5.73974e-05
5.61941e-05
5.6668e-05
5.62241e-05
5.72447e-05
5.73786e-05
5.64289e-05
5.6522e-05
5.78429e-05
5.83313e-05
5.734e-05
5.72177e-05
5.67058e-05
5.7363e-05
5.72475e-05
5.80823e-05
5.60259e-05
5.6309e-05
5.69704e-05
5.68412e-05
5.75165e-05
5.78577e-05
5.64511e-05
5.73284e-05
5.70951e-05
5.73152e-05
5.63544e-05
5.67116e-05
5.62463e-05
5.83916e-05
5.82103e-05
5.65371e-05
5.71926e-05
5.63919e-05
5.71564e-05
5.81606e-05
5.81814e-05
5.71536e-05
5.69319e-05
5.72986e-05
5.69977e-05
5.78739e-05
5.77666e-05
5.71548e-05
5.71818e-05
5.71327e-05
5.65592e-05
5.6283e-05
5.67336e-05
5.67524e-05
5.81129e-05
5.73626e-05
5.6401e-05
5.65517e-05
5.67009e-05
5.77814e-05
5.81755e-05
5.80087e-05
5.72921e-05
5.69985e-05
5.71589e-05
5.70552e-05
5.7773e-05
5.80255e-05
5.70584e-05
5.64809e-05
5.69476e-05
5.65376e-05
5.68792e-05
5.70951e-05
5.72248e-05
5.73494e-05
5.77048e-05
5.68142e-05
5.66762e-05
5.71577e-05
5.82597e-05
5.80155e-05
5.83281e-05
5.71479e-05
5.71529e-05
5.726e-05
5.76241e-05
5.81451e-05
5.88299e-05
5.69523e-05
5.67613e-05
5.72928e-05
5.74067e-05
5.73816e-05
5.77847e-05
5.76968e-05
5.78866e-05
5.84354e-05
5.7303e-05
5.73926e-05
5.75795e-05
5.87151e-05
5.84239e-05
5.84439e-05
5.73715e-05
5.77086e-05
5.74301e-05
5.76773e-05
5.89089e-05
5.86248e-05
5.74198e-05
5.74911e-05
5.74901e-05
5.75043e-05
5.7707e-05
5.77395e-05
5.74217e-05
5.84734e-05
5.83433e-05
5.75882e-05
5.73961e-05
5.73593e-05
5.81648e-05
5.84118e-05
5.79991e-05
5.73899e-05
5.75079e-05
5.70134e-05
5.67276e-05
5.84788e-05
5.75333e-05
5.74563e-05
5.74483e-05
5.7119e-05
5.73025e-05
5.71155e-05
5.66356e-05
5.66235e-05
5.83282e-05
5.83243e-05
5.71251e-05
5.72665e-05
5.67632e-05
5.75589e-05
5.80017e-05
5.79704e-05
5.69565e-05
5.66214e-05
5.68749e-05
5.6532e-05
5.75128e-05
5.75377e-05
5.70623e-05
5.72968e-05
5.69654e-05
5.71966e-05
5.6613e-05
5.6498e-05
5.68232e-05
5.83875e-05
5.83029e-05
5.6759e-05
5.72079e-05
5.68877e-05
5.79607e-05
5.79503e-05
5.72276e-05
5.68196e-05
5.65063e-05
5.63807e-05
5.63592e-05
5.75449e-05
5.72589e-05
5.68858e-05
5.70103e-05
5.63016e-05
5.60058e-05
5.6865e-05
5.64276e-05
5.67637e-05
5.81507e-05
5.67567e-05
5.68914e-05
5.61147e-05
5.66924e-05
5.76407e-05
5.72078e-05
5.7894e-05
5.63394e-05
5.63702e-05
5.66372e-05
5.7392e-05
5.72725e-05
5.89262e-05
5.623e-05
5.58955e-05
5.64232e-05
5.61477e-05
5.67519e-05
5.75358e-05
5.72287e-05
5.67045e-05
5.76258e-05
5.66718e-05
5.6348e-05
5.7129e-05
5.86521e-05
5.82842e-05
5.96489e-05
5.72463e-05
5.80103e-05
5.82743e-05
5.86168e-05
5.93566e-05
6.02226e-05
5.69632e-05
5.68531e-05
5.82403e-05
5.84663e-05
5.78039e-05
5.86043e-05
5.8302e-05
5.81354e-05
6.00136e-05
5.77385e-05
5.84456e-05
5.83127e-05
5.98682e-05
5.96659e-05
5.7396e-05
5.82811e-05
5.8541e-05
5.67809e-05
5.57768e-05
6.00859e-05
5.58571e-05
5.82782e-05
5.85146e-05
5.71512e-05
5.71761e-05
5.81901e-05
5.55105e-05
5.53255e-05
6.00358e-05
5.7312e-05
5.82204e-05
5.66734e-05
5.54395e-05
5.55384e-05
5.68528e-05
5.51869e-05
5.57688e-05
5.47955e-05
5.424e-05
5.37667e-05
5.53114e-05
5.45942e-05
5.6088e-05
5.60038e-05
5.4342e-05
5.42799e-05
5.45445e-05
5.37744e-05
5.39865e-05
5.66927e-05
5.50815e-05
5.46156e-05
5.42108e-05
5.39768e-05
5.50864e-05
5.51976e-05
5.34042e-05
5.31281e-05
5.49094e-05
5.34647e-05
5.3434e-05
4.4426e-05
4.46452e-05
4.46999e-05
5.35877e-05
5.51212e-05
5.35316e-05
2.14905e-08
2.2223e-07
4.20311e-08
4.48889e-08
2.79234e-07
3.0975e-07
5.57892e-07
2.02121e-07
2.70671e-07
2.45058e-07
1.29945e-07
1.97751e-07
3.67172e-07
2.55368e-07
4.42763e-07
3.02641e-07
5.31342e-06
2.65988e-07
7.0785e-06
1.3854e-05
2.18514e-05
3.57624e-07
5.2191e-06
3.18887e-07
6.89793e-06
2.10856e-07
1.48909e-07
1.83906e-07
1.69888e-07
2.11798e-07
1.48536e-07
1.8506e-07
2.57867e-07
8.06642e-07
4.14857e-07
4.0933e-07
2.64797e-07
7.92315e-07
4.13859e-07
1.31975e-05
2.0549e-05
2.51256e-07
2.37023e-07
5.70403e-07
2.50133e-07
2.57849e-07
2.36213e-07
5.5778e-07
1.87329e-06
1.93468e-06
3.52281e-07
1.8513e-06
1.90948e-06
4.90101e-07
1.03666e-05
4.05791e-07
1.30793e-05
3.73798e-05
4.69508e-05
5.48699e-07
1.00093e-05
4.62908e-07
1.27156e-05
2.10758e-07
1.4755e-07
1.8399e-07
1.69562e-07
2.07946e-07
1.44502e-07
1.80891e-07