/*--------------------------------*- C++ -*----------------------------------*\
| =========                 |                                                 |
| \\      /  F ield         | OpenFOAM: The Open Source CFD Toolbox           |
|  \\    /   O peration     | Version:  v2012                                 |
|   \\  /    A nd           | Website:  www.openfoam.com                      |
|    \\/     M anipulation  |                                                 |
\*---------------------------------------------------------------------------*/
FoamFile
{
    version     2.0;
    format      ascii;
    class       volScalarField;
    location    "1887.5";
    object      p;
}
// * * * * * * * * * * * * * * * * * * * * * * * * * * * * * * * * * * * * * //

dimensions      [0 2 -2 0 0 0 0];


internalField   nonuniform List<scalar> 
171728
(
0.00351846
0.00351748
0.00351738
0.00351823
0.00348297
0.00348152
0.00348153
0.00348438
0.00344444
0.0034427
0.0034426
0.00344494
0.00340034
0.00339874
0.00339868
0.00340092
0.00335231
0.00335096
0.00335086
0.0033532
0.00330344
0.00330215
0.00330213
0.00330452
0.00325516
0.00325405
0.003254
0.00325639
0.00320781
0.00320685
0.00320678
0.0032092
0.00316147
0.00316063
0.00316057
0.00316297
0.0031161
0.00311524
0.00311532
0.00311775
0.00307166
0.00307112
0.00307098
0.00307345
0.00302795
0.00302755
0.00302737
0.00302979
0.00298481
0.00298449
0.00298436
0.00298679
0.00294212
0.00294172
0.00294184
0.00294402
0.00289982
0.00289938
0.0028996
0.00290192
0.00285763
0.00285769
0.0028576
0.00285963
0.00281612
0.00281556
0.002816
0.00281822
0.00277471
0.00277467
0.00277489
0.00277681
0.00273396
0.00273408
0.00273392
0.00273608
0.00269316
0.00269358
0.00269327
0.00269513
0.00265272
0.00265275
0.00265284
0.00265458
0.00261277
0.00261302
0.00261293
0.00261468
0.00257303
0.00257338
0.0025732
0.0025747
0.00253362
0.0025339
0.00253403
0.00253543
0.00249429
0.00249461
0.0024946
0.00249648
0.00245549
0.0024559
0.00245592
0.00245743
0.00241659
0.0024171
0.00241701
0.00241866
0.00237807
0.00237858
0.00237867
0.00238065
0.00233978
0.00234041
0.00234029
0.00234209
0.00230157
0.00230221
0.00230226
0.00230398
0.00226363
0.00226422
0.00226417
0.00226622
0.00222593
0.00222653
0.00222666
0.00222839
0.00218812
0.00218901
0.00218873
0.00219068
0.00215051
0.00215085
0.0021512
0.00215303
0.00211333
0.00211426
0.00211404
0.00211581
0.00207588
0.00207654
0.00207647
0.00207845
0.00203889
0.00203924
0.00203946
0.0020413
0.00200189
0.00200255
0.00200237
0.00200421
0.001965
0.00196527
0.0019654
0.00196737
0.00192808
0.00192885
0.00192862
0.00193078
0.00189166
0.0018916
0.00189185
0.00189339
0.0018554
0.00185558
0.00185562
0.00185831
0.00181896
0.0018196
0.0018192
0.00182061
0.0017827
0.00178214
0.00178239
0.00178453
0.00174613
0.00174657
0.00174669
0.00174908
0.00171059
0.00171072
0.0017105
0.0017125
0.00167496
0.00167457
0.00167467
0.00167655
0.00163901
0.00163904
0.00163896
0.00164108
0.00160331
0.00160314
0.00160326
0.00160529
0.00156793
0.00156749
0.00156746
0.00156972
0.00153206
0.00153231
0.00153217
0.00153424
0.0014971
0.0014967
0.00149699
0.00149876
0.00146233
0.00146169
0.00146148
0.00146366
0.00142686
0.00142687
0.00142657
0.00142873
0.0013911
0.00139112
0.0013916
0.00139336
0.00135661
0.00135605
0.00135614
0.00135815
0.00132233
0.00132181
0.00132141
0.00132362
0.00128698
0.0012869
0.00128696
0.00128874
0.00125214
0.00125213
0.00125223
0.00125422
0.00121763
0.00121748
0.00121736
0.00121923
0.00118274
0.00118206
0.00118228
0.00118432
0.00114812
0.00114834
0.00114795
0.0011499
0.00111385
0.00111319
0.00111351
0.00111524
0.00107877
0.00107864
0.00107865
0.00108052
0.00104429
0.00104449
0.00104437
0.00104647
0.00100991
0.00100934
0.00100942
0.00101133
0.000975094
0.000975192
0.000975107
0.000977007
0.000941135
0.000940803
0.000940876
0.000942802
0.000906919
0.00090678
0.000906686
0.000908467
0.000871968
0.000871762
0.000871739
0.000873497
0.000836782
0.000836687
0.000836668
0.000838752
0.000802804
0.000802822
0.000803089
0.000805364
0.000768747
0.00076854
0.000768713
0.000770398
0.000733881
0.000733629
0.000733375
0.00073512
0.000699523
0.000699369
0.00069927
0.000701283
0.000665004
0.000664853
0.000664854
0.000666965
0.000629297
0.000629505
0.000629716
0.000631696
0.00059501
0.00059498
0.000595078
0.000596909
0.000561042
0.00056044
0.000560236
0.000562128
0.000525872
0.000525876
0.00052581
0.000527847
0.000491026
0.000491164
0.00049146
0.000493392
0.000456192
0.000456044
0.000455996
0.000457797
0.00042123
0.000421101
0.000420887
0.000423001
0.000385916
0.00038599
0.000385913
0.000388093
0.000350799
0.000350755
0.000350937
0.000352762
0.000316077
0.000315988
0.000315999
0.000317928
0.000281031
0.000280875
0.00028084
0.000282836
0.000245366
0.000245267
0.00024541
0.000247358
0.00020988
0.000210006
0.00020988
0.000212012
0.00017408
0.000174124
0.000173966
0.000176081
0.000139163
0.000139098
0.000139151
0.000141006
0.000104743
0.000104395
0.000104596
0.000106434
6.74551e-05
6.70311e-05
6.72199e-05
6.90031e-05
3.12008e-05
3.13887e-05
3.10736e-05
3.32136e-05
5.49036e-06
6.73816e-06
6.49913e-06
5.05114e-06
0.00352289
0.00352037
0.00352039
0.00352292
0.00352038
0.00352035
0.00352682
0.00352683
0.00352682
0.00352688
0.00352054
0.00352056
0.00352282
0.00352034
0.00352068
0.00352299
0.00351814
0.00348913
0.00351743
0.00351743
0.00349096
0.00349104
0.00351819
0.00348911
0.0035174
0.00351736
0.003491
0.003491
0.00351746
0.00349097
0.003491
0.00351809
0.00348912
0.00351763
0.00349094
0.00349092
0.0034891
0.00348435
0.00345047
0.00348154
0.00348156
0.00345274
0.00345278
0.00348437
0.00345043
0.00348142
0.00348143
0.00345283
0.00345276
0.00348153
0.00345284
0.00345279
0.00348435
0.00345043
0.00348159
0.00345267
0.00345278
0.00345046
0.0034449
0.00340709
0.00344259
0.00344259
0.00341016
0.00341013
0.0034449
0.00340709
0.00344257
0.00344252
0.00341016
0.00341018
0.0034427
0.00341012
0.00341016
0.0034449
0.0034071
0.00344266
0.00341014
0.00341014
0.00340709
0.00340091
0.00335964
0.00339865
0.00339862
0.00336304
0.00336292
0.00340092
0.00335966
0.00339866
0.00339864
0.00336298
0.00336298
0.00339868
0.00336301
0.00336294
0.00340091
0.00335964
0.00339869
0.00336298
0.00336306
0.00335965
0.00335319
0.00331097
0.00335083
0.00335092
0.00331432
0.0033144
0.00335321
0.00331095
0.0033509
0.00335088
0.00331432
0.00331428
0.00335099
0.00331436
0.00331428
0.00335318
0.00331095
0.00335085
0.00331431
0.00331432
0.00331095
0.00330452
0.0032627
0.00330216
0.00330206
0.00326592
0.00326585
0.0033045
0.00326267
0.00330216
0.00330218
0.00326596
0.00326596
0.00330226
0.003266
0.00326594
0.0033045
0.00326267
0.00330216
0.00326593
0.00326595
0.0032627
0.00325639
0.00321535
0.00325404
0.00325371
0.00321851
0.00321831
0.00325633
0.00321537
0.00325399
0.00325398
0.0032185
0.00321848
0.003254
0.00321854
0.00321848
0.00325634
0.00321532
0.00325402
0.00321846
0.00321849
0.00321535
0.00320918
0.00316897
0.00320672
0.00320648
0.00317203
0.00317206
0.00320917
0.00316896
0.00320678
0.00320678
0.00317205
0.003172
0.00320682
0.00317205
0.00317202
0.00320913
0.00316898
0.00320681
0.003172
0.00317206
0.00316899
0.00316294
0.00312359
0.00316057
0.00316046
0.0031266
0.00312657
0.00316292
0.00312354
0.00316059
0.00316058
0.00312656
0.00312652
0.00316052
0.00312657
0.00312649
0.00316294
0.00312359
0.00316061
0.00312651
0.00312657
0.00312362
0.00311768
0.00307914
0.00311528
0.00311534
0.00308203
0.00308204
0.00311767
0.00307926
0.00311531
0.00311532
0.00308199
0.00308202
0.00311534
0.00308193
0.00308196
0.0031177
0.00307912
0.00311533
0.003082
0.00308201
0.0030792
0.0030734
0.00303546
0.00307097
0.00307097
0.00303821
0.00303815
0.00307347
0.0030354
0.003071
0.00307099
0.0030382
0.0030382
0.00307105
0.00303809
0.00303808
0.00307334
0.00303543
0.00307109
0.0030382
0.0030382
0.00303543
0.00302981
0.00299237
0.00302744
0.00302737
0.00299508
0.00299502
0.00302979
0.00299229
0.00302741
0.00302736
0.002995
0.0029951
0.00302748
0.00299496
0.00299499
0.00302974
0.0029923
0.00302747
0.00299504
0.00299499
0.00299233
0.00298676
0.00294979
0.00298432
0.00298438
0.00295233
0.00295234
0.00298681
0.00294931
0.00298436
0.00298433
0.00295227
0.00295226
0.00298446
0.00295229
0.00295224
0.0029867
0.00294966
0.00298453
0.00295231
0.00295216
0.00294955
0.00294425
0.00290727
0.00294174
0.00294167
0.00290992
0.00290995
0.00294384
0.00290696
0.00294167
0.00294182
0.00290999
0.00291003
0.00294188
0.00290989
0.00290982
0.00294415
0.00290726
0.00294181
0.00291004
0.00290998
0.00290731
0.00290176
0.00286493
0.00289942
0.00289945
0.00286804
0.00286798
0.00290159
0.00286555
0.00289936
0.00289966
0.00286805
0.00286824
0.00289948
0.00286818
0.00286803
0.0029018
0.0028653
0.00289962
0.00286815
0.00286786
0.00286521
0.00285955
0.00282362
0.00285743
0.00285761
0.00282644
0.00282609
0.00285981
0.00282301
0.00285742
0.0028576
0.00282647
0.0028265
0.00285744
0.00282603
0.00282631
0.00285981
0.00282352
0.00285734
0.00282639
0.00282617
0.00282354
0.00281837
0.00278212
0.00281631
0.00281584
0.00278511
0.00278506
0.00281782
0.00278241
0.00281632
0.00281596
0.00278506
0.00278522
0.00281573
0.00278472
0.00278487
0.00281816
0.00278231
0.00281576
0.00278525
0.00278523
0.00278206
0.00277674
0.00274141
0.00277462
0.00277474
0.00274404
0.00274413
0.0027771
0.00274135
0.00277472
0.00277474
0.00274409
0.00274399
0.00277457
0.00274443
0.00274431
0.00277698
0.00274124
0.00277472
0.00274407
0.0027441
0.00274125
0.00273626
0.00270045
0.00273411
0.00273394
0.00270342
0.00270354
0.00273613
0.00270025
0.00273401
0.00273381
0.00270337
0.00270323
0.00273413
0.00270365
0.00270334
0.00273604
0.00270044
0.00273392
0.00270331
0.00270334
0.00270031
0.00269524
0.00265978
0.00269329
0.00269353
0.00266283
0.00266271
0.00269516
0.00265971
0.00269323
0.00269311
0.00266283
0.00266287
0.00269336
0.00266281
0.00266278
0.00269526
0.00265976
0.00269335
0.00266286
0.0026628
0.00265976
0.00265457
0.0026196
0.00265285
0.0026527
0.00262293
0.00262304
0.00265454
0.00261955
0.00265282
0.00265265
0.00262299
0.00262297
0.00265274
0.00262304
0.00262306
0.00265459
0.00261964
0.00265274
0.00262283
0.00262308
0.00261964
0.00261456
0.0025799
0.0026129
0.00261301
0.00258321
0.0025832
0.00261457
0.00257988
0.00261287
0.00261282
0.00258326
0.00258327
0.00261303
0.00258319
0.002583
0.00261452
0.00257995
0.00261302
0.00258312
0.00258301
0.00257973
0.00257492
0.00254049
0.00257332
0.00257338
0.00254375
0.00254362
0.00257494
0.00254033
0.00257337
0.00257334
0.00254372
0.00254367
0.00257327
0.00254363
0.00254379
0.00257493
0.00254049
0.00257326
0.00254373
0.00254381
0.00254045
0.00253566
0.00250107
0.00253397
0.00253391
0.00250439
0.00250443
0.00253541
0.00250118
0.00253401
0.00253405
0.00250437
0.00250435
0.00253386
0.00250447
0.0025045
0.00253572
0.0025011
0.00253388
0.0025044
0.00250452
0.00250124
0.00249595
0.00246273
0.00249451
0.00249458
0.00246563
0.00246564
0.00249607
0.0024628
0.00249449
0.00249462
0.00246561
0.00246546
0.00249483
0.00246562
0.00246549
0.00249602
0.00246257
0.00249483
0.00246554
0.00246549
0.00246232
0.00245783
0.00242366
0.00245591
0.00245592
0.00242673
0.00242672
0.00245792
0.0024235
0.00245588
0.00245585
0.00242678
0.0024268
0.00245586
0.00242671
0.00242672
0.00245768
0.00242388
0.00245586
0.00242675
0.00242672
0.00242372
0.00241863
0.00238531
0.00241701
0.00241709
0.00238818
0.00238816
0.00241855
0.0023855
0.00241708
0.00241709
0.00238821
0.00238818
0.00241701
0.00238819
0.00238827
0.00241886
0.00238506
0.002417
0.0023882
0.00238829
0.00238548
0.00238045
0.00234715
0.00237859
0.00237856
0.00234994
0.00234996
0.00238057
0.0023468
0.0023786
0.00237867
0.00234993
0.00234982
0.00237864
0.00234995
0.0023499
0.00238024
0.00234726
0.00237866
0.00234986
0.0023499
0.00234709
0.00234223
0.00230901
0.0023404
0.00234044
0.00231166
0.00231173
0.00234196
0.00230934
0.00234039
0.00234027
0.00231168
0.00231176
0.00234033
0.00231172
0.00231171
0.00234232
0.00230879
0.00234031
0.00231178
0.0023117
0.00230885
0.00230406
0.00227094
0.00230211
0.00230219
0.00227363
0.00227367
0.0023044
0.00227065
0.00230215
0.00230227
0.00227367
0.00227365
0.0023022
0.00227373
0.00227376
0.00230396
0.0022712
0.00230221
0.00227365
0.00227378
0.00227111
0.00226612
0.00223347
0.00226427
0.00226418
0.00223615
0.00223591
0.00226576
0.00223334
0.00226429
0.00226416
0.00223609
0.00223606
0.00226431
0.00223586
0.00223591
0.00226624
0.00223319
0.00226431
0.00223605
0.00223593
0.00223329
0.00222855
0.00219555
0.00222665
0.00222661
0.00219813
0.00219857
0.00222848
0.00219598
0.0022266
0.00222667
0.00219816
0.00219822
0.00222646
0.00219857
0.00219834
0.00222837
0.00219562
0.0022265
0.00219825
0.00219829
0.00219559
0.0021906
0.00215792
0.00218868
0.00218895
0.00216056
0.00216018
0.00219094
0.00215754
0.00218872
0.00218871
0.00216064
0.00216049
0.00218894
0.00216025
0.00216057
0.00219065
0.00215788
0.00218887
0.00216049
0.00216057
0.00215793
0.00215304
0.00212062
0.00215122
0.00215079
0.00212323
0.0021234
0.0021527
0.0021207
0.00215126
0.0021512
0.0021232
0.00212338
0.00215115
0.00212335
0.00212319
0.00215303
0.00212069
0.00215119
0.00212338
0.00212326
0.00212067
0.00211577
0.00208342
0.00211391
0.00211432
0.00208598
0.00208611
0.00211602
0.00208329
0.0021139
0.00211402
0.00208596
0.00208582
0.00211396
0.00208608
0.00208604
0.00211577
0.00208331
0.002114
0.00208581
0.00208595
0.00208334
0.00207853
0.00204598
0.00207667
0.00207655
0.00204858
0.00204838
0.0020783
0.00204601
0.00207664
0.00207647
0.0020486
0.0020487
0.00207664
0.00204842
0.00204853
0.00207845
0.00204622
0.00207654
0.0020487
0.00204857
0.00204613
0.0020411
0.00200928
0.00203926
0.00203922
0.00201167
0.00201184
0.00204121
0.00200946
0.0020393
0.00203947
0.0020117
0.00201165
0.00203931
0.00201184
0.00201179
0.00204132
0.00200912
0.00203941
0.00201166
0.00201179
0.00200916
0.0020045
0.00197217
0.00200255
0.00200255
0.00197473
0.00197453
0.00200454
0.00197202
0.00200256
0.00200239
0.00197471
0.00197463
0.00200245
0.0019745
0.00197444
0.00200429
0.00197222
0.00200239
0.00197462
0.00197443
0.00197211
0.00196719
0.00193524
0.00196531
0.00196529
0.00193753
0.00193793
0.0019672
0.00193569
0.00196532
0.00196538
0.00193753
0.00193775
0.00196532
0.00193799
0.00193818
0.00196733
0.00193542
0.00196534
0.00193779
0.0019382
0.00193582
0.00193051
0.00189919
0.0019285
0.00192879
0.00190145
0.00190099
0.00193084
0.00189846
0.00192848
0.00192857
0.00190139
0.0019011
0.00192887
0.00190092
0.00190048
0.0019306
0.00189872
0.00192885
0.00190105
0.00190047
0.00189813
0.0018943
0.00186196
0.00189227
0.00189169
0.00186438
0.00186442
0.00189357
0.00186233
0.00189223
0.00189193
0.00186447
0.00186456
0.00189129
0.00186442
0.00186513
0.00189385
0.00186238
0.00189133
0.00186458
0.00186514
0.001863
0.00185716
0.0018261
0.00185518
0.00185555
0.00182823
0.0018287
0.00185765
0.00182658
0.00185528
0.00185556
0.0018282
0.0018284
0.0018564
0.00182885
0.00182822
0.00185763
0.00182608
0.0018564
0.00182848
0.0018282
0.00182561
0.00182135
0.00178963
0.0018193
0.00181955
0.00179198
0.00179152
0.00182163
0.00178906
0.00181922
0.00181917
0.00179192
0.00179154
0.00181854
0.00179134
0.00179122
0.00182115
0.00178933
0.00181851
0.00179144
0.00179125
0.00178917
0.0017847
0.00175316
0.00178268
0.00178229
0.00175516
0.00175534
0.00178426
0.00175338
0.00178268
0.00178248
0.00175525
0.00175555
0.00178252
0.00175543
0.00175603
0.00178454
0.00175355
0.00178253
0.00175561
0.00175604
0.00175395
0.00174843
0.00171763
0.00174625
0.00174646
0.00171974
0.00171967
0.00174864
0.00171764
0.00174632
0.0017466
0.00171969
0.00171959
0.00174693
0.00171972
0.00171955
0.0017488
0.00171732
0.00174693
0.00171962
0.00171952
0.00171735
0.00171285
0.00168152
0.00171083
0.00171071
0.00168369
0.00168362
0.00171283
0.00168143
0.00171078
0.00171051
0.0016837
0.00168358
0.00171054
0.00168356
0.00168336
0.00171249
0.0016815
0.00171045
0.00168356
0.00168339
0.00168127
0.00167672
0.00164568
0.00167469
0.00167463
0.00164772
0.00164798
0.00167667
0.00164588
0.00167469
0.0016747
0.00164773
0.00164791
0.00167443
0.00164794
0.00164784
0.00167675
0.00164582
0.00167451
0.00164789
0.00164784
0.00164584
0.00164093
0.00161012
0.00163878
0.00163906
0.00161217
0.00161208
0.0016411
0.00161001
0.0016388
0.00163895
0.00161217
0.00161218
0.00163898
0.00161212
0.00161219
0.00164105
0.00161009
0.00163893
0.0016122
0.00161219
0.00161008
0.00160535
0.00157442
0.00160335
0.00160311
0.00157656
0.00157632
0.00160521
0.0015743
0.00160332
0.00160327
0.00157655
0.00157638
0.00160323
0.00157634
0.00157649
0.00160531
0.00157433
0.00160329
0.00157639
0.00157651
0.00157446
0.00156962
0.00153883
0.00156752
0.00156745
0.0015408
0.00154107
0.00156958
0.00153909
0.00156754
0.00156742
0.00154085
0.00154089
0.00156763
0.0015411
0.00154117
0.00156956
0.00153892
0.0015676
0.00154094
0.00154109
0.00153902
0.0015341
0.0015037
0.00153202
0.00153229
0.00150577
0.00150566
0.00153434
0.0015035
0.00153205
0.00153214
0.00150572
0.00150587
0.00153226
0.00150564
0.00150547
0.00153421
0.00150376
0.00153222
0.00150587
0.00150557
0.00150349
0.001499
0.00146857
0.00149701
0.00149677
0.00147072
0.00147047
0.00149876
0.00146845
0.00149694
0.00149703
0.00147064
0.00147042
0.00149661
0.00147032
0.00147038
0.001499
0.0014683
0.00149669
0.00147032
0.00147031
0.00146835
0.00146383
0.00143316
0.00146186
0.00146179
0.00143512
0.00143561
0.00146379
0.00143352
0.00146184
0.00146158
0.00143523
0.00143524
0.00146169
0.00143571
0.00143554
0.00146359
0.00143328
0.00146164
0.00143527
0.00143551
0.00143346
0.00142838
0.00139769
0.00142619
0.0014267
0.00139969
0.00139976
0.00142871
0.00139781
0.00142632
0.00142648
0.00139981
0.00140021
0.00142671
0.00140004
0.00140019
0.00142855
0.00139821
0.00142669
0.00140039
0.00140021
0.00139812
0.00139298
0.00136326
0.001391
0.00139091
0.00136534
0.0013649
0.00139306
0.0013629
0.0013911
0.00139147
0.00136524
0.00136513
0.00139134
0.00136472
0.00136483
0.00139349
0.00136298
0.00139139
0.00136499
0.00136496
0.00136285
0.00135864
0.00132867
0.00135679
0.00135637
0.00133091
0.00133067
0.00135824
0.00132855
0.00135664
0.00135631
0.00133064
0.00133016
0.00135612
0.00133032
0.00133036
0.00135826
0.00132815
0.00135625
0.00133004
0.00133025
0.00132827
0.00132392
0.00129312
0.0013221
0.00132205
0.00129517
0.00129564
0.00132393
0.00129343
0.00132185
0.0013215
0.00129519
0.00129549
0.00132175
0.00129583
0.00129547
0.00132345
0.00129342
0.00132154
0.00129558
0.00129536
0.00129341
0.00128835
0.00125841
0.00128631
0.00128666
0.00126033
0.00126033
0.00128862
0.00125844
0.00128645
0.00128682
0.00126067
0.00126083
0.00128677
0.00126066
0.00126095
0.00128875
0.00125884
0.00128682
0.00126097
0.00126108
0.00125891
0.00125379
0.00122424
0.00125183
0.00125183
0.00122627
0.00122633
0.00125384
0.00122423
0.00125211
0.00125216
0.0012263
0.00122614
0.0012523
0.00122635
0.00122595
0.00125414
0.00122409
0.00125235
0.00122606
0.00122594
0.00122393
0.00121957
0.00118915
0.00121761
0.00121756
0.0011913
0.00119091
0.00121946
0.00118885
0.00121763
0.00121745
0.0011912
0.00119111
0.00121717
0.0011907
0.0011911
0.00121939
0.00118897
0.00121725
0.00119106
0.00119121
0.00118904
0.00118438
0.00115445
0.00118249
0.00118225
0.00115655
0.00115685
0.00118417
0.00115481
0.0011823
0.0011823
0.00115625
0.00115637
0.00118245
0.00115676
0.0011566
0.00118421
0.00115436
0.00118247
0.00115643
0.00115642
0.00115451
0.00114985
0.00112014
0.00114804
0.00114838
0.00112217
0.00112199
0.00115023
0.00111989
0.00114781
0.00114788
0.00112237
0.00112231
0.00114802
0.00112208
0.00112205
0.00114977
0.0011202
0.00114787
0.00112228
0.00112213
0.00111999
0.00111538
0.00108507
0.0011134
0.00111314
0.00108712
0.00108712
0.0011151
0.00108509
0.00111364
0.00111357
0.00108716
0.00108726
0.00111328
0.0010871
0.00108722
0.00111546
0.00108518
0.0011134
0.00108723
0.00108726
0.00108516
0.00108038
0.00105084
0.00107846
0.00107863
0.00105284
0.00105306
0.00108048
0.00105108
0.00107845
0.00107862
0.0010528
0.00105287
0.00107868
0.0010532
0.00105313
0.0010805
0.00105095
0.00107867
0.00105302
0.00105307
0.00105114
0.00104621
0.00101641
0.00104431
0.0010444
0.00101845
0.00101814
0.00104636
0.0010161
0.00104429
0.00104428
0.00101851
0.00101827
0.0010445
0.00101802
0.00101815
0.00104628
0.00101616
0.00104446
0.0010181
0.00101816
0.00101607
0.00101164
0.000981509
0.0010097
0.00100947
0.000983547
0.000983686
0.00101139
0.000981694
0.00100973
0.00100956
0.000983448
0.00098353
0.0010094
0.000983708
0.000983572
0.00101144
0.000981572
0.00100941
0.000983659
0.000983597
0.000981611
0.000976859
0.000947403
0.000974985
0.000975134
0.000949406
0.00094936
0.00097704
0.000947305
0.000974881
0.000974934
0.000949456
0.000949417
0.000975063
0.000949352
0.000949568
0.000976911
0.000947401
0.000975087
0.000949415
0.000949574
0.000947467
0.000942756
0.000913273
0.000940848
0.000940825
0.000915268
0.000915361
0.000942668
0.000913342
0.000940951
0.000940941
0.00091529
0.000915377
0.000941002
0.000915323
0.000915159
0.00094278
0.000913259
0.000941009
0.000915272
0.000915131
0.000913144
0.000908634
0.000878558
0.000906746
0.000906826
0.000880689
0.0008806
0.000908705
0.000878518
0.000906719
0.000906767
0.000880612
0.000880535
0.000906512
0.000880618
0.00088036
0.000908576
0.000878483
0.000906474
0.000880579
0.000880323
0.000878298
0.000873733
0.000843338
0.000871809
0.000871731
0.000845307
0.000845325
0.00087371
0.00084336
0.000871764
0.000871692
0.000845357
0.000845341
0.000871546
0.00084534
0.000845415
0.000873678
0.000843382
0.000871495
0.000845287
0.00084533
0.000843406
0.000838662
0.000809438
0.000836684
0.000836672
0.000811297
0.000811145
0.000838654
0.000809328
0.000836751
0.000836717
0.000811348
0.000811296
0.000836863
0.000811228
0.000811705
0.000838702
0.000809521
0.00083684
0.000811403
0.000811771
0.000809869
0.000804848
0.000775108
0.000802867
0.000802714
0.000777157
0.000777299
0.000804752
0.00077522
0.000802909
0.000802916
0.000777149
0.000777424
0.000803367
0.000777305
0.000777364
0.000804987
0.000775307
0.000803494
0.000777531
0.000777459
0.000775231
0.000770392
0.000740381
0.000768503
0.000768681
0.000742461
0.000742536
0.000770462
0.000740329
0.000768471
0.000768743
0.000742359
0.000742373
0.000768504
0.000742325
0.000742052
0.000770515
0.000740109
0.000768487
0.000742109
0.00074189
0.000739873
0.00073564
0.000705947
0.000733764
0.000733801
0.000707941
0.000707857
0.000735594
0.000705921
0.00073367
0.00073361
0.000707942
0.000707705
0.000733345
0.00070787
0.000707717
0.000735364
0.000705867
0.000733175
0.000707728
0.000707682
0.000705884
0.000701321
0.000671709
0.000699424
0.0006993
0.000673684
0.000673506
0.000701284
0.000671601
0.000699477
0.000699199
0.000673787
0.000673543
0.000699262
0.000673603
0.000673609
0.000701262
0.000671631
0.000699285
0.000673574
0.000673656
0.00067172
0.000666894
0.000636058
0.00066486
0.000664739
0.000638101
0.000638168
0.000666827
0.000636222
0.000664938
0.000664806
0.000638091
0.000638273
0.000664903
0.000638308
0.00063848
0.000666862
0.000636347
0.000664933
0.000638455
0.000638522
0.000636481
0.000631222
0.000601617
0.000629226
0.00062939
0.000603518
0.000603644
0.000631432
0.000601644
0.0006292
0.000629511
0.000603488
0.000603726
0.000629695
0.000603497
0.000603655
0.000631569
0.000601753
0.000629755
0.000603712
0.000603693
0.000601633
0.000596999
0.000567363
0.00059506
0.00059515
0.000569494
0.000569301
0.000597002
0.000567106
0.000595036
0.000595219
0.000569473
0.000569166
0.000595007
0.000569122
0.000568961
0.000597081
0.00056697
0.000595017
0.000568938
0.000568887
0.000566849
0.000562555
0.000532358
0.000560729
0.000560522
0.000534379
0.00053438
0.00056235
0.000532446
0.000560705
0.000560373
0.000534367
0.000534271
0.000560285
0.000534491
0.000534497
0.000562208
0.00053232
0.000560205
0.000534341
0.000534442
0.000532494
0.000527652
0.000497836
0.000525713
0.00052575
0.000499722
0.000499814
0.000527751
0.000497891
0.000525716
0.000525701
0.000499808
0.000500057
0.000525958
0.000499907
0.000500113
0.000527665
0.000498146
0.000525941
0.000500154
0.00050021
0.000498191
0.000493104
0.000462981
0.000491034
0.000491114
0.000464957
0.000464912
0.00049313
0.000462891
0.000491136
0.000491394
0.000464976
0.000464995
0.000491312
0.000464822
0.000464666
0.000493404
0.000462892
0.00049142
0.000464899
0.000464694
0.000462648
0.000458196
0.000427919
0.000456242
0.000456147
0.000430015
0.000429894
0.000458099
0.000427891
0.000456213
0.000456116
0.000429898
0.000429622
0.0004558
0.000429832
0.000429732
0.000458044
0.000427649
0.000455784
0.000429608
0.000429657
0.000427728
0.000423106
0.000392594
0.000421202
0.000421121
0.000394615
0.000394719
0.000423117
0.000392725
0.000421079
0.000420856
0.000394594
0.00039458
0.000421088
0.000394796
0.000394925
0.000422886
0.00039263
0.000421021
0.000394663
0.000394896
0.000392899
0.000387794
0.00035748
0.000385792
0.000385914
0.000359427
0.0003595
0.00038791
0.000357474
0.000385801
0.000385839
0.000359508
0.000359677
0.000386103
0.000359539
0.000359529
0.000387855
0.00035767
0.000386097
0.000359682
0.000359595
0.000357548
0.000352708
0.000322708
0.000350684
0.000350727
0.000324668
0.000324654
0.000352681
0.000322663
0.00035078
0.000350948
0.000324723
0.000324798
0.000350745
0.00032465
0.000324669
0.000352894
0.000322737
0.000350817
0.000324751
0.000324684
0.000322667
0.000317981
0.000287781
0.000316028
0.000316011
0.000289857
0.000289797
0.000317947
0.000287752
0.000316053
0.000316048
0.000289802
0.000289689
0.000316003
0.000289736
0.000289722
0.000317967
0.000287644
0.000315995
0.000289668
0.000289707
0.000287674
0.000282936
0.000252159
0.000280982
0.000280928
0.000254198
0.000254124
0.000282907
0.000252116
0.000280931
0.00028085
0.000254197
0.000254233
0.000280863
0.000254115
0.000254155
0.000282823
0.000252231
0.000280856
0.000254261
0.000254183
0.000252178
0.000247315
0.000216789
0.000245304
0.000245253
0.000218786
0.00021883
0.000247287
0.000216856
0.000245315
0.00024538
0.000218771
0.000218796
0.000245327
0.000218865
0.000218868
0.000247398
0.000216807
0.000245347
0.000218807
0.000218829
0.000216851
0.000211943
0.000181018
0.00020992
0.000209978
0.000183071
0.000183125
0.000212014
0.000181048
0.000209894
0.000209876
0.000183043
0.000182934
0.000210004
0.000183124
0.000183055
0.000211936
0.000180876
0.000209952
0.000182917
0.000183021
0.000180985
0.000176111
0.000145738
0.000174095
0.00017414
0.000147691
0.00014771
0.000176133
0.000145716
0.000174075
0.000173983
0.000147711
0.000147733
0.000174065
0.000147693
0.000147656
0.000175994
0.000145766
0.000174047
0.00014773
0.000147696
0.000145697
0.000141021
0.000111267
0.000139082
0.000139107
0.000113343
0.000113305
0.000141016
0.000111245
0.000139101
0.00013915
0.000113375
0.000113488
0.000139078
0.000113307
0.000113401
0.000141062
0.000111393
0.000139118
0.000113492
0.000113433
0.00011135
0.000106403
7.46359e-05
0.000104494
0.000104404
7.68112e-05
7.66152e-05
0.00010636
7.43528e-05
0.000104546
0.000104617
7.68386e-05
7.67654e-05
0.000104465
7.65435e-05
7.65356e-05
0.000106502
7.45547e-05
0.000104496
7.66995e-05
7.6553e-05
7.42908e-05
6.9393e-05
3.76933e-05
6.7344e-05
6.70823e-05
3.95636e-05
3.97135e-05
6.90687e-05
3.79259e-05
6.73819e-05
6.72961e-05
3.94538e-05
3.94256e-05
6.69956e-05
3.98176e-05
3.9816e-05
6.93109e-05
3.7668e-05
6.6999e-05
3.95365e-05
3.97332e-05
3.79484e-05
3.28915e-05
7.41905e-06
3.09943e-05
3.12841e-05
1.03506e-05
1.07873e-05
3.31617e-05
7.89804e-06
3.0884e-05
3.09398e-05
1.028e-05
1.04556e-05
3.14581e-05
1.09601e-05
1.10941e-05
3.29002e-05
7.60855e-06
3.1381e-05
1.06381e-05
1.10301e-05
8.07249e-06
4.58005e-06
6.3673e-06
6.80325e-06
4.93271e-06
6.39952e-06
6.54377e-06
5.72807e-06
5.57481e-06
5.79464e-06
6.89842e-06
4.72027e-06
6.95266e-06
0.00352997
0.0035325
0.00353127
0.00353141
0.00355855
0.00353238
0.0035621
0.00353288
0.00355849
0.00353239
0.00353275
0.00356197
0.00354364
0.00356535
0.00356639
0.00350259
0.00351608
0.00352002
0.00349481
0.00349289
0.00349822
0.00350255
0.00351603
0.00351992
0.00349489
0.00351848
0.00351846
0.00351852
0.00349208
0.00349205
0.00349208
0.003492
0.0035022
0.00351402
0.00351904
0.00350966
0.00352119
0.00349926
0.00351
0.00349305
0.00349833
0.0035022
0.00351905
0.00351378
0.00350975
0.00352111
0.00351002
0.00349934
0.00352001
0.00351943
0.003507
0.00349929
0.00349909
0.00347493
0.00348915
0.00348907
0.00347302
0.00348634
0.00347206
0.00347495
0.00348909
0.00348899
0.00347304
0.00348295
0.00348299
0.00348291
0.00345455
0.0034545
0.00345458
0.0034545
0.00347274
0.00348781
0.00348151
0.00347219
0.0034862
0.00347331
0.00347207
0.00348628
0.003472
0.00347273
0.00348149
0.00348778
0.00347202
0.00348619
0.00347205
0.00347325
0.00348951
0.00348941
0.00347051
0.00347364
0.00347363
0.00343238
0.0034472
0.00344804
0.00343112
0.00344605
0.00343023
0.00343242
0.00344714
0.00344801
0.00343106
0.0034444
0.00344449
0.0034444
0.00341187
0.00341185
0.00341192
0.00341182
0.00343112
0.00344676
0.00344266
0.00343213
0.00344575
0.00343163
0.00343213
0.00344599
0.00343022
0.00343115
0.00344261
0.00344674
0.00343212
0.00344571
0.00343216
0.00343164
0.00344748
0.00344741
0.00342944
0.00343143
0.00343146
0.00338607
0.0034025
0.00340394
0.00338466
0.00340181
0.00338419
0.00338612
0.00340245
0.00340392
0.00338469
0.00340033
0.00340037
0.0034003
0.00336449
0.00336444
0.00336451
0.00336446
0.00338521
0.00340239
0.00339869
0.00338698
0.00340176
0.00338534
0.00338699
0.00340179
0.00338413
0.00338526
0.00339869
0.00340238
0.00338693
0.00340177
0.00338695
0.00338537
0.00340263
0.0034026
0.00338369
0.00338477
0.00338486
0.0033372
0.00335429
0.00335568
0.00333602
0.00335393
0.00333578
0.00333725
0.00335434
0.00335562
0.00333602
0.00335226
0.00335234
0.00335228
0.00331564
0.0033156
0.00331566
0.00331559
0.00333678
0.00335443
0.00335094
0.00333876
0.00335401
0.00333666
0.00333873
0.00335391
0.0033357
0.00333682
0.0033509
0.00335434
0.00333871
0.00335399
0.00333876
0.00333674
0.0033543
0.00335439
0.00333533
0.00333623
0.00333611
0.00328812
0.00330544
0.00330646
0.00328723
0.00330516
0.00328704
0.00328808
0.00330541
0.00330638
0.00328723
0.00330341
0.00330346
0.00330341
0.00326715
0.00326712
0.00326716
0.0032671
0.00328801
0.00330546
0.00330219
0.00329012
0.00330522
0.00328788
0.00329011