/*--------------------------------*- C++ -*----------------------------------*\
| =========                 |                                                 |
| \\      /  F ield         | OpenFOAM: The Open Source CFD Toolbox           |
|  \\    /   O peration     | Version:  v2012                                 |
|   \\  /    A nd           | Website:  www.openfoam.com                      |
|    \\/     M anipulation  |                                                 |
\*---------------------------------------------------------------------------*/
FoamFile
{
    version     2.0;
    format      ascii;
    class       volScalarField;
    location    "1850";
    object      k;
}
// * * * * * * * * * * * * * * * * * * * * * * * * * * * * * * * * * * * * * //

dimensions      [0 2 -2 0 0 0 0];


internalField   nonuniform List<scalar> 
171728
(
1.86039e-07
9.26331e-07
2.78784e-07
3.18308e-07
1.78728e-07
8.84051e-07
2.65555e-07
3.33154e-07
1.70367e-07
8.94062e-07
2.51105e-07
3.55667e-07
1.6353e-07
9.27988e-07
2.38818e-07
3.57596e-07
1.58731e-07
1.00797e-06
2.29139e-07
3.64959e-07
1.4725e-07
1.27782e-06
2.20242e-07
3.61251e-07
1.30291e-07
1.29767e-06
2.12663e-07
2.52838e-07
1.22649e-07
5.99938e-07
2.07702e-07
2.08131e-07
1.20477e-07
2.47364e-07
2.06736e-07
1.82815e-07
1.19364e-07
1.59883e-07
2.05563e-07
1.71526e-07
1.18283e-07
1.47993e-07
2.06825e-07
1.63705e-07
1.16924e-07
1.52043e-07
2.13704e-07
1.60725e-07
1.15082e-07
1.60143e-07
2.28103e-07
1.6189e-07
1.13093e-07
1.67502e-07
2.40497e-07
1.65815e-07
1.1106e-07
1.72566e-07
2.4479e-07
1.71787e-07
1.09117e-07
1.76475e-07
2.37855e-07
1.79865e-07
1.0736e-07
1.82882e-07
2.31228e-07
1.9036e-07
1.05362e-07
1.99316e-07
2.40549e-07
2.09752e-07
1.0319e-07
2.28902e-07
2.62352e-07
2.49973e-07
1.02031e-07
2.67566e-07
3.14967e-07
3.08435e-07
1.0116e-07
3.63635e-07
3.69117e-07
4.35724e-07
1.00328e-07
4.56657e-07
5.03261e-07
6.69723e-07
9.82704e-08
6.22534e-07
6.89498e-07
1.0961e-06
9.59633e-08
9.07755e-07
9.07779e-07
1.61424e-06
9.69207e-08
1.19151e-06
1.18213e-06
2.58091e-06
1.00194e-07
1.39058e-06
1.64827e-06
3.7801e-06
1.06843e-07
2.43654e-06
2.17141e-06
5.38879e-06
1.11024e-07
2.59145e-06
2.73324e-06
7.3044e-06
1.31551e-07
3.36752e-06
3.62882e-06
9.92785e-06
1.39785e-07
4.67936e-06
4.25402e-06
1.27048e-05
1.90139e-07
5.07209e-06
5.50281e-06
1.4606e-05
2.08756e-07
6.99941e-06
6.44566e-06
1.80412e-05
3.64233e-07
7.33183e-06
7.94398e-06
1.87699e-05
3.8427e-07
9.09574e-06
9.15058e-06
2.35737e-05
4.89743e-07
1.13049e-05
1.07322e-05
2.26136e-05
6.59907e-07
1.17254e-05
1.14197e-05
2.30178e-05
7.7972e-07
1.32651e-05
1.41976e-05
2.80773e-05
1.20156e-06
1.59579e-05
1.55711e-05
2.83486e-05
1.40864e-06
1.66142e-05
1.70714e-05
2.89522e-05
1.79334e-06
1.9496e-05
1.90694e-05
3.03843e-05
2.21023e-06
2.09979e-05
2.1115e-05
3.14689e-05
2.72793e-06
2.24132e-05
2.23372e-05
3.29648e-05
3.33824e-06
2.4305e-05
2.45352e-05
3.43244e-05
4.27152e-06
2.61737e-05
2.6467e-05
3.48377e-05
5.27678e-06
2.7658e-05
2.76861e-05
3.60981e-05
5.80323e-06
3.03786e-05
2.91487e-05
3.73235e-05
5.80025e-06
3.11002e-05
3.19696e-05
3.83104e-05
8.36802e-06
3.1929e-05
3.26428e-05
3.91836e-05
1.08519e-05
3.48092e-05
3.40264e-05
4.04718e-05
1.12211e-05
3.53428e-05
3.55678e-05
4.09954e-05
1.12016e-05
3.69649e-05
3.68145e-05
4.25746e-05
1.35371e-05
3.82305e-05
3.84114e-05
4.2934e-05
1.57776e-05
3.87307e-05
3.87868e-05
4.43224e-05
1.67096e-05
4.08945e-05
4.07679e-05
4.48469e-05
1.85901e-05
4.14609e-05
4.15782e-05
4.51122e-05
1.97839e-05
4.19813e-05
4.20628e-05
4.61236e-05
2.06291e-05
4.35668e-05
4.36819e-05
4.73642e-05
2.33404e-05
4.42375e-05
4.4354e-05
4.80695e-05
2.47039e-05
4.54061e-05
4.52856e-05
4.90089e-05
2.60069e-05
4.581e-05
4.61801e-05
4.98909e-05
2.72873e-05
4.75281e-05
4.70319e-05
4.93336e-05
2.85244e-05
4.77572e-05
4.71486e-05
4.84491e-05
2.92373e-05
4.81103e-05
4.83221e-05
5.14492e-05
3.15747e-05
4.94756e-05
5.01076e-05
5.37419e-05
3.24718e-05
5.03711e-05
5.06077e-05
5.2614e-05
3.33086e-05
5.05074e-05
5.02147e-05
5.12279e-05
3.42781e-05
5.06421e-05
5.06643e-05
5.27259e-05
3.56593e-05
5.15624e-05
5.13135e-05
5.38547e-05
3.59526e-05
5.20858e-05
5.24673e-05
5.41227e-05
3.79017e-05
5.34766e-05
5.3459e-05
5.50203e-05
3.91653e-05
5.37278e-05
5.32652e-05
5.51047e-05
3.91397e-05
5.34784e-05
5.33685e-05
5.56407e-05
3.93718e-05
5.37187e-05
5.46425e-05
5.56905e-05
4.07008e-05
5.44839e-05
5.46798e-05
5.48455e-05
4.19393e-05
5.48493e-05
5.45173e-05
5.63794e-05
4.28268e-05
5.54413e-05
5.49246e-05
5.6998e-05
4.29852e-05
5.60161e-05
5.58933e-05
5.69816e-05
4.34824e-05
5.61345e-05
5.60891e-05
5.70223e-05
4.42163e-05
5.57053e-05
5.60672e-05
5.68253e-05
4.43428e-05
5.56102e-05
5.635e-05
5.72807e-05
4.48158e-05
5.67575e-05
5.62945e-05
5.79976e-05
4.53266e-05
5.71317e-05
5.6307e-05
5.79194e-05
4.60963e-05
5.75356e-05
5.76594e-05
5.83112e-05
4.64804e-05
5.67773e-05
5.76715e-05
5.77762e-05
4.57859e-05
5.54599e-05
5.58241e-05
5.61755e-05
4.55575e-05
5.77338e-05
5.66557e-05
5.92901e-05
4.7537e-05
5.92979e-05
5.88014e-05
6.05733e-05
4.77649e-05
5.62173e-05
5.69824e-05
5.62485e-05
4.57287e-05
5.50239e-05
5.54849e-05
5.63102e-05
4.57919e-05
5.81791e-05
5.75833e-05
6.03342e-05
4.80282e-05
5.87243e-05
5.82189e-05
5.88516e-05
4.73014e-05
5.5832e-05
5.58094e-05
5.59333e-05
4.60425e-05
5.55939e-05
5.61143e-05
5.79234e-05
4.67537e-05
5.73659e-05
5.79911e-05
5.94934e-05
4.67086e-05
5.57274e-05
5.55685e-05
5.69189e-05
2.83322e-07
3.68826e-07
2.40188e-07
4.31906e-07
3.38942e-07
3.19986e-07
1.81861e-07
2.01128e-07
1.50298e-07
1.86529e-07
7.56465e-07
3.45462e-07
3.35811e-07
2.5544e-07
4.17935e-07
3.21713e-07
2.8137e-07
2.94522e-07
4.9446e-07
1.93493e-07
4.94694e-07
1.881e-07
4.24366e-07
4.05542e-07
6.0635e-07
3.34182e-07
6.50881e-07
3.21267e-07
8.11624e-07
8.84994e-07
8.38591e-07
3.34909e-07
3.18116e-07
7.36629e-07
2.6914e-07
7.80766e-07
3.35216e-07
2.93779e-07
3.2234e-07
4.94723e-07
1.86026e-07
4.90897e-07
1.79098e-07
4.01697e-07
3.93828e-07
6.65881e-07
3.16274e-07
7.0675e-07
3.01651e-07
8.51443e-07
8.90785e-07
8.70185e-07
3.16952e-07
2.9969e-07
7.9603e-07
2.54606e-07
8.4415e-07
3.59821e-07
3.21809e-07
3.50703e-07
4.89946e-07
1.76797e-07
4.84917e-07
1.70397e-07
3.90571e-07
3.8354e-07
7.19835e-07
2.96998e-07
7.57957e-07
2.83278e-07
8.57228e-07
9.06779e-07
6.12971e-07
2.98458e-07
2.82063e-07
8.60933e-07
2.41688e-07
9.1148e-07
3.60571e-07
3.49767e-07
3.60932e-07
4.75768e-07
1.68524e-07
4.06791e-07
1.63646e-07
3.79873e-07
3.78244e-07
7.72001e-07
2.78755e-07
8.1472e-07
2.65526e-07
5.19023e-07
9.84248e-07
3.03898e-07
2.80901e-07
2.66182e-07
9.32173e-07
2.31567e-07
1.01033e-06
3.68096e-07
3.57466e-07
3.48105e-07
3.77393e-07
1.61847e-07
2.86287e-07
1.58054e-07
3.75847e-07
4.08944e-07
8.21857e-07
2.61262e-07
8.09932e-07
2.49252e-07
2.62228e-07
1.20853e-06
1.93805e-07
2.65139e-07
2.51304e-07
1.02781e-06
2.22402e-07
1.02762e-06
3.66415e-07
3.35138e-07
2.6784e-07
2.58556e-07
1.57525e-07
2.02622e-07
1.53391e-07
4.09374e-07
4.39236e-07
7.63335e-07
2.45182e-07
5.04354e-07
2.33635e-07
1.8169e-07
1.33244e-06
1.60492e-07
2.50266e-07
2.37303e-07
9.88484e-07
2.14164e-07
6.46885e-07
2.59849e-07
2.63922e-07
2.23724e-07
1.90204e-07
1.50254e-07
1.66662e-07
1.40312e-07
4.34123e-07
2.60458e-07
4.2134e-07
2.30122e-07
2.42744e-07
2.19439e-07
1.56031e-07
7.64353e-07
1.45274e-07
2.36285e-07
2.22145e-07
5.34689e-07
2.08641e-07
2.86322e-07
2.10741e-07
2.2113e-07
1.97872e-07
1.62595e-07
1.37909e-07
1.50475e-07
1.32703e-07
2.50693e-07
2.05304e-07
2.07564e-07
2.16207e-07
1.53217e-07
2.08854e-07
1.42188e-07
2.97046e-07
1.3596e-07
2.21045e-07
2.09504e-07
2.35855e-07
2.06986e-07
1.57659e-07
1.83232e-07
1.97011e-07
1.81725e-07
1.48438e-07
1.31425e-07
1.49706e-07
1.2895e-07
2.01812e-07
1.6994e-07
1.46058e-07
2.06496e-07
1.38442e-07
1.99522e-07
1.3513e-07
1.71008e-07
1.33816e-07
2.08725e-07
2.00961e-07
1.46957e-07
2.05542e-07
1.32369e-07
1.71647e-07
1.81373e-07
1.76248e-07
1.50702e-07
1.2827e-07
1.49318e-07
1.27129e-07
1.69558e-07
1.65107e-07
1.38055e-07
1.98244e-07
1.38621e-07
1.97612e-07
1.33315e-07
1.48369e-07
1.31009e-07
2.00509e-07
1.96344e-07
1.3052e-07
2.0643e-07
1.29116e-07
1.63633e-07
1.76646e-07
1.75834e-07
1.47806e-07
1.27135e-07
1.45142e-07
1.27632e-07
1.65447e-07
1.65111e-07
1.40212e-07
1.97732e-07
1.46354e-07
1.99872e-07
1.30581e-07
1.49981e-07
1.30593e-07
1.9617e-07
1.94565e-07
1.29153e-07
2.10941e-07
1.31236e-07
1.60209e-07
1.76576e-07
1.77836e-07
1.45035e-07
1.28259e-07
1.45542e-07
1.30758e-07
1.65917e-07
1.68144e-07
1.48381e-07
2.02846e-07
1.54534e-07
2.16131e-07
1.30794e-07
1.58118e-07
1.32582e-07
1.9477e-07
1.98264e-07
1.32965e-07
2.24419e-07
1.3888e-07
1.60942e-07
1.78899e-07
1.81334e-07
1.46088e-07
1.31921e-07
1.48223e-07
1.36609e-07
1.69395e-07
1.72757e-07
1.56573e-07
2.20776e-07
1.62399e-07
2.32584e-07
1.33582e-07
1.6567e-07
1.38845e-07
1.99717e-07
2.07923e-07
1.40968e-07
2.37883e-07
1.47288e-07
1.64286e-07
1.82692e-07
1.84645e-07
1.49112e-07
1.38639e-07
1.51992e-07
1.46055e-07
1.74373e-07
1.78006e-07
1.64277e-07
2.35445e-07
1.6879e-07
2.40259e-07
1.41088e-07
1.71665e-07
1.48686e-07
2.10023e-07
2.16605e-07
1.49547e-07
2.44519e-07
1.55468e-07
1.69959e-07
1.86103e-07
1.87202e-07
1.53584e-07
1.48579e-07
1.59926e-07
1.58154e-07
1.79682e-07
1.83434e-07
1.70064e-07
2.40273e-07
1.74175e-07
2.37173e-07
1.52307e-07
1.7583e-07
1.60481e-07
2.1787e-07
2.17409e-07
1.57398e-07
2.40199e-07
1.63137e-07
1.77097e-07
1.88636e-07
1.92745e-07
1.62171e-07
1.61205e-07
1.71344e-07
1.71152e-07
1.85096e-07
1.90288e-07
1.74961e-07
2.36388e-07
1.80213e-07
2.24692e-07
1.63603e-07
1.81058e-07
1.7426e-07
2.1791e-07
2.18297e-07
1.6514e-07
2.31228e-07
1.7282e-07
1.87071e-07
1.96308e-07
2.06941e-07
1.7566e-07
1.75311e-07
1.96693e-07
1.89161e-07
1.94502e-07
2.03034e-07
1.81998e-07
2.23654e-07
1.93626e-07
2.28594e-07
1.77878e-07
1.94195e-07
1.92634e-07
2.20414e-07
2.28666e-07
1.75446e-07
2.37077e-07
1.90111e-07
2.0421e-07
2.13806e-07
2.4115e-07
2.05823e-07
1.94269e-07
2.44522e-07
2.12739e-07
2.08816e-07
2.33404e-07
1.98384e-07
2.35434e-07
2.20632e-07
2.73296e-07
1.96421e-07
2.19119e-07
2.17801e-07
2.35614e-07
2.54011e-07
1.94221e-07
2.57147e-07
2.14137e-07
2.34571e-07
2.54225e-07
3.07233e-07
2.60318e-07
2.23219e-07
3.13469e-07
2.56984e-07
2.4625e-07
2.8642e-07
2.30089e-07
2.84443e-07
2.60949e-07
3.10427e-07
2.29085e-07
2.59202e-07
2.59314e-07
2.66338e-07
3.16427e-07
2.25022e-07
2.96582e-07
2.55438e-07
2.9165e-07
3.2611e-07
4.39516e-07
3.34038e-07
2.67146e-07
4.14425e-07
3.45338e-07
3.05008e-07
4.38236e-07
2.7443e-07
3.23343e-07
3.31586e-07
3.49939e-07
2.73128e-07
3.42484e-07
3.31763e-07
3.40517e-07
4.06356e-07
2.67896e-07
3.49078e-07
3.20827e-07
3.98307e-07
4.69941e-07
6.36087e-07
4.3169e-07
3.67065e-07
5.41465e-07
4.07382e-07
4.82554e-07
5.3631e-07
3.47742e-07
3.71721e-07
4.3872e-07
4.93196e-07
3.50962e-07
4.09041e-07
4.29962e-07
4.38325e-07
7.05154e-07
3.41276e-07
4.87523e-07
4.22524e-07
6.00595e-07
7.14883e-07
9.59886e-07
5.77038e-07
4.48681e-07
6.78544e-07
6.01225e-07
5.91762e-07
1.03751e-06
4.66381e-07
5.08089e-07
5.86684e-07
5.95987e-07
4.63083e-07
5.97367e-07
6.07309e-07
7.49153e-07
8.85918e-07
4.53718e-07
6.03324e-07
5.91119e-07
1.00127e-06
1.09273e-06
1.63142e-06
7.68714e-07
6.35135e-07
9.2767e-07
8.03211e-07
1.10356e-06
1.53401e-06
6.50291e-07
6.81156e-07
8.1906e-07
8.53159e-07
6.41317e-07
7.8867e-07
7.9833e-07
1.05399e-06
1.65313e-06
6.25996e-07
8.45976e-07
7.96284e-07
1.47028e-06
1.64331e-06
2.07085e-06
9.27529e-07
9.12599e-07
9.83499e-07
1.15874e-06
1.78194e-06
2.71503e-06
8.38463e-07
9.08234e-07
1.03928e-06
1.10385e-06
8.66347e-07
1.17872e-06
1.09406e-06
1.73013e-06
2.31053e-06
8.60494e-07
1.11888e-06
1.06423e-06
2.35811e-06
2.50532e-06
4.071e-06
1.17453e-06
1.17379e-06
1.68851e-06
1.2614e-06
2.72719e-06
2.36521e-06
1.2106e-06
1.18196e-06
1.5224e-06
1.47319e-06
1.19816e-06
1.23648e-06
1.45711e-06
2.46913e-06
3.45672e-06
1.17822e-06
1.44814e-06
1.46883e-06
3.57913e-06
4.16129e-06
4.83737e-06
1.73039e-06
1.44517e-06
2.09478e-06
2.23379e-06
2.66351e-06
6.76166e-06
1.56438e-06
1.6559e-06
1.99001e-06
2.11829e-06
1.51592e-06
2.24368e-06
1.99624e-06
3.85851e-06
5.68022e-06
1.54185e-06
2.13514e-06
1.9661e-06
4.92218e-06
5.29435e-06
6.95431e-06
2.24368e-06
2.44585e-06
2.4741e-06
2.63083e-06
7.38064e-06
7.49201e-06
2.16731e-06
2.15787e-06
2.4227e-06
2.42968e-06
2.18386e-06
2.58818e-06
2.53472e-06
5.86824e-06
6.1636e-06
2.12441e-06
2.42139e-06
2.47391e-06
7.07735e-06
7.29381e-06
9.96251e-06
2.66058e-06
2.63064e-06
3.53398e-06
2.9046e-06
7.42519e-06
7.50106e-06
2.59979e-06
2.73966e-06
3.51371e-06
3.41302e-06
2.64578e-06
2.93291e-06
3.30085e-06
6.72208e-06
1.02731e-05
2.59614e-06
3.43755e-06
3.31566e-06
9.17896e-06
1.0393e-05
1.05385e-05
3.64648e-06
3.36121e-06
3.7948e-06
4.53498e-06
8.50246e-06
1.3373e-05
3.63338e-06
3.6307e-06
3.77288e-06
4.12925e-06
3.5732e-06
4.52244e-06
4.18609e-06
1.06809e-05
1.16742e-05
3.62914e-06
4.09464e-06
4.17894e-06
1.24384e-05
1.08334e-05
1.50906e-05
4.01704e-06
4.67862e-06
5.38503e-06
4.88078e-06
1.3841e-05
1.41908e-05
3.98336e-06
4.3053e-06
5.38609e-06
5.15076e-06
4.33937e-06
4.87273e-06
5.04323e-06
1.21271e-05
1.43748e-05
4.27486e-06
5.17041e-06
4.98743e-06
1.3962e-05
1.53774e-05
1.5405e-05
5.49982e-06
5.10588e-06
5.70525e-06
6.59349e-06
1.44776e-05
1.75442e-05
5.50692e-06
5.46193e-06
5.66291e-06
6.08203e-06
5.29764e-06
6.60912e-06
6.49764e-06
1.49074e-05
1.67745e-05
5.29951e-06
6.16686e-06
6.57044e-06
1.75277e-05
1.59143e-05
2.07872e-05
6.06024e-06
6.99315e-06
8.319e-06
7.35147e-06
1.81719e-05
1.87177e-05
5.93018e-06
6.38958e-06
8.2052e-06
7.69543e-06
6.87677e-06
7.29932e-06
7.22362e-06
1.72786e-05
1.92009e-05
6.89867e-06
7.53675e-06
7.16101e-06
1.85759e-05
2.13311e-05
2.1578e-05
8.65929e-06
7.39657e-06
8.89531e-06
8.46189e-06
1.88554e-05
2.02974e-05
8.60288e-06
8.01203e-06
8.9469e-06
8.79827e-06
7.29759e-06
8.38366e-06
9.29619e-06
1.96992e-05
2.13972e-05
7.23556e-06
8.80555e-06
9.28882e-06
2.25199e-05
2.17239e-05
2.26806e-05
8.98476e-06
9.11543e-06
1.01064e-05
1.0654e-05
2.11885e-05
2.41399e-05
9.12626e-06
9.17487e-06
1.00701e-05
1.03613e-05
1.02174e-05
1.08503e-05
1.07748e-05
2.1865e-05
2.30045e-05
1.01711e-05
1.04574e-05
1.06656e-05
2.27656e-05
2.32035e-05
2.45339e-05
1.05169e-05
1.11679e-05
1.18611e-05
1.18379e-05
2.43938e-05
2.42003e-05
1.03928e-05
1.0695e-05
1.16567e-05
1.11594e-05
1.06252e-05
1.17028e-05
1.02644e-05
2.32481e-05
2.40153e-05
1.04952e-05
1.11059e-05
1.02047e-05
2.21523e-05
2.4807e-05
2.57276e-05
1.21433e-05
1.18914e-05
1.28139e-05
1.26307e-05
2.42924e-05
2.59437e-05
1.20426e-05
1.14291e-05
1.29381e-05
1.37102e-05
1.03759e-05
1.25439e-05
1.38098e-05
2.44409e-05
2.6396e-05
1.0363e-05
1.35699e-05
1.40098e-05
2.76468e-05
2.61956e-05
2.7996e-05
1.33254e-05
1.31729e-05
1.54652e-05
1.53916e-05
2.65698e-05
2.7622e-05
1.34082e-05
1.4257e-05
1.52284e-05
1.52924e-05
1.50129e-05
1.55292e-05
1.66719e-05
2.69001e-05
2.77508e-05
1.50844e-05
1.53404e-05
1.642e-05
2.82351e-05
2.83666e-05
2.90008e-05
1.60671e-05
1.58952e-05
1.68446e-05
1.64202e-05
2.78587e-05
2.87172e-05
1.58226e-05
1.56136e-05
1.68845e-05
1.6463e-05
1.67994e-05
1.63866e-05
1.68702e-05
2.79599e-05
2.86857e-05
1.65053e-05
1.65279e-05
1.6636e-05
2.87245e-05
2.92301e-05
3.01621e-05
1.71985e-05
1.6659e-05
1.8751e-05
1.90535e-05
2.90746e-05
3.05404e-05
1.72846e-05
1.69878e-05
1.86019e-05
1.86891e-05
1.69245e-05
1.90253e-05
1.81758e-05
2.90337e-05
3.03193e-05
1.68391e-05
1.86093e-05
1.82035e-05
3.00494e-05
3.04749e-05
3.1301e-05
1.89966e-05
1.96168e-05
2.0157e-05
2.06716e-05
3.08714e-05
3.14694e-05
1.88701e-05
1.91696e-05
2.02991e-05
2.0601e-05
1.86742e-05
2.05371e-05
2.02705e-05
3.06442e-05
3.14972e-05
1.86264e-05
2.06305e-05
2.02422e-05
3.12109e-05
3.15964e-05
3.24568e-05
2.08907e-05
2.09877e-05
2.21988e-05
2.19365e-05
3.16771e-05
3.22699e-05
2.09233e-05
2.10971e-05
2.19601e-05
2.21816e-05
2.07526e-05
2.21286e-05
2.20408e-05
3.17596e-05
3.24416e-05
2.07705e-05
2.20283e-05
2.215e-05
3.25893e-05
3.26656e-05
3.34533e-05
2.23687e-05
2.22793e-05
2.37424e-05
2.36525e-05
3.2515e-05
3.37073e-05
2.22268e-05
2.24138e-05
2.37669e-05
2.37633e-05
2.25338e-05
2.36527e-05
2.45334e-05
3.26521e-05
3.35524e-05
2.25665e-05
2.39601e-05
2.43152e-05
3.40846e-05
3.38391e-05
3.52822e-05
2.44289e-05
2.43257e-05
2.625e-05
2.60401e-05
3.40537e-05
3.47652e-05
2.44079e-05
2.43996e-05
2.59948e-05
2.60006e-05
2.51591e-05
2.59389e-05
2.58511e-05
3.39582e-05
3.51353e-05
2.50183e-05
2.59648e-05
2.60787e-05
3.47062e-05
3.55597e-05
3.63063e-05
2.67387e-05
2.62708e-05
2.82835e-05
2.71361e-05
3.48971e-05
3.57491e-05
2.63882e-05
2.64688e-05
2.79717e-05
2.75653e-05
2.59084e-05
2.70946e-05
2.71303e-05
3.53283e-05
3.56634e-05
2.61384e-05
2.75194e-05
2.66897e-05
3.56691e-05
3.64802e-05
3.64936e-05
2.862e-05
2.76842e-05
2.86865e-05
2.97352e-05
3.61929e-05
3.75843e-05
2.85701e-05
2.77857e-05
2.93616e-05
2.8747e-05
2.80611e-05
2.97697e-05
2.92131e-05
3.57924e-05
3.67538e-05
2.76585e-05
2.85887e-05
2.94788e-05
3.71921e-05
3.65196e-05
3.7006e-05
2.85414e-05
3.02904e-05
2.86713e-05
3.08105e-05
3.77694e-05
3.78432e-05
2.93802e-05
2.9249e-05
2.9664e-05
3.12763e-05
2.94619e-05
3.10831e-05
3.09512e-05
3.71362e-05
3.85719e-05
2.96874e-05
3.13703e-05
3.07887e-05
3.80095e-05
3.7509e-05
3.98814e-05
2.94643e-05
3.08242e-05
3.35039e-05
3.12863e-05
3.78815e-05
3.85698e-05
3.02856e-05
3.19269e-05
3.24344e-05
3.27918e-05
3.13982e-05
3.13921e-05
3.2126e-05
3.88481e-05
3.9238e-05
3.11972e-05
3.25948e-05
3.21735e-05
3.90255e-05
4.02498e-05
4.10218e-05
3.43229e-05
3.20519e-05
3.56012e-05
3.44961e-05
3.89585e-05
4.05625e-05
3.3046e-05
3.28578e-05
3.4628e-05
3.36387e-05
3.2444e-05
3.42163e-05
3.40804e-05
3.93178e-05
3.99248e-05
3.25773e-05
3.35468e-05
3.40381e-05
4.02281e-05
4.11149e-05
4.0833e-05
3.5685e-05
3.50675e-05
3.55289e-05
3.55476e-05
4.08403e-05
4.10783e-05
3.48882e-05
3.4051e-05
3.50087e-05
3.51325e-05
3.44135e-05
3.53323e-05
3.48888e-05
4.02092e-05
4.10022e-05
3.42699e-05
3.51579e-05
3.48518e-05
4.08108e-05
4.0839e-05
4.14824e-05
3.53669e-05
3.55376e-05
3.53882e-05
3.5782e-05
4.11006e-05
4.16772e-05
3.50156e-05
3.55037e-05
3.60711e-05
3.6521e-05
3.53095e-05
3.60486e-05
3.68551e-05
4.12148e-05
4.21684e-05
3.53789e-05
3.65562e-05
3.67959e-05
4.23755e-05
4.19036e-05
4.3283e-05
3.57762e-05
3.64958e-05
3.79888e-05
3.80703e-05
4.21513e-05
4.32886e-05
3.66416e-05
3.68159e-05
3.80417e-05
3.80792e-05
3.71608e-05
3.82052e-05
3.76982e-05
4.23651e-05
4.30671e-05
3.69771e-05
3.80527e-05
3.77002e-05
4.28013e-05
4.34739e-05
4.386e-05
3.84795e-05
3.81476e-05
3.92474e-05
3.8442e-05
4.3315e-05
4.31701e-05
3.84301e-05
3.84602e-05
3.89657e-05
3.88279e-05
3.7995e-05
3.83444e-05
3.91243e-05
4.32714e-05
4.36098e-05
3.81754e-05
3.87256e-05
3.9214e-05
4.41145e-05
4.39792e-05
4.47601e-05
3.93956e-05
3.89187e-05
4.01407e-05
4.05112e-05
4.34706e-05
4.52455e-05
3.90341e-05
3.88768e-05
3.9883e-05
3.99755e-05
3.94016e-05
4.04254e-05
4.01216e-05
4.36779e-05
4.47113e-05
3.93879e-05
4.01049e-05
4.02046e-05
4.47294e-05
4.50439e-05
4.58349e-05
4.05581e-05
4.09192e-05
4.17329e-05
4.13217e-05
4.5473e-05
4.54406e-05
4.04347e-05
4.06445e-05
4.17052e-05
4.16114e-05
4.04481e-05
4.14606e-05
4.10169e-05
4.51079e-05
4.5694e-05
4.05442e-05
4.15754e-05
4.09783e-05
4.50444e-05
4.58886e-05
4.56982e-05
4.18757e-05
4.13368e-05
4.18888e-05
4.18122e-05
4.54367e-05
4.57555e-05
4.1796e-05
4.16424e-05
4.17669e-05
4.18471e-05
4.10544e-05
4.15895e-05
4.16309e-05
4.57014e-05
4.58611e-05
4.09989e-05
4.1685e-05
4.14988e-05
4.57943e-05
4.574e-05
4.6901e-05
4.1895e-05
4.22448e-05
4.28236e-05
4.32031e-05
4.61483e-05
4.72411e-05
4.17816e-05
4.22208e-05
4.2925e-05
4.32441e-05
4.2199e-05
4.33899e-05
4.35368e-05
4.61947e-05
4.72828e-05
4.20825e-05
4.34325e-05
4.33938e-05
4.72364e-05
4.72788e-05
4.81404e-05
4.34241e-05
4.33935e-05
4.46648e-05
4.40293e-05
4.73122e-05
4.74178e-05
4.35356e-05
4.35368e-05
4.46818e-05
4.43594e-05
4.37473e-05
4.39089e-05
4.43216e-05
4.7415e-05
4.77037e-05
4.35881e-05
4.41417e-05
4.42277e-05
4.78491e-05
4.81906e-05
4.8153e-05
4.48181e-05
4.43598e-05
4.497e-05
4.51289e-05
4.75814e-05
4.84771e-05
4.47773e-05
4.4565e-05
4.48624e-05
4.49311e-05
4.45712e-05
4.52843e-05
4.52669e-05
4.7818e-05
4.83308e-05
4.45574e-05
4.50843e-05
4.56311e-05
4.88388e-05
4.82756e-05
4.94566e-05
4.50789e-05
4.52084e-05
4.61177e-05
4.55898e-05
4.85738e-05
4.87605e-05
4.4973e-05
4.50601e-05
4.62161e-05
4.58236e-05
4.55287e-05
4.55789e-05
4.63665e-05
4.84711e-05
4.90707e-05
4.59696e-05
4.59331e-05
4.66987e-05
4.97837e-05
4.95938e-05
4.96762e-05
4.63015e-05
4.59342e-05
4.68584e-05
4.72962e-05
4.8949e-05
5.02033e-05
4.64453e-05
4.61856e-05
4.67949e-05
4.70463e-05
4.66e-05
4.71651e-05
4.6734e-05
4.9243e-05
4.97346e-05
4.67586e-05
4.68951e-05
4.66816e-05
4.94268e-05
4.9746e-05
5.00087e-05
4.71252e-05
4.76126e-05
4.74412e-05
4.77977e-05
5.04034e-05
5.03773e-05
4.6957e-05
4.71508e-05
4.72293e-05
4.72049e-05
4.66754e-05
4.77858e-05
4.63677e-05
4.97991e-05
4.98196e-05
4.65041e-05
4.7123e-05
4.59851e-05
4.84134e-05
5.00523e-05
5.06517e-05
4.7441e-05
4.77625e-05
4.77538e-05
4.78716e-05
5.03772e-05
5.06584e-05
4.72699e-05
4.72431e-05
4.79693e-05
4.8265e-05
4.63781e-05
4.78073e-05
4.78821e-05
4.98871e-05
5.09459e-05
4.59693e-05
4.78606e-05
4.71885e-05
5.075e-05
5.09806e-05
5.21057e-05
4.83146e-05
4.82592e-05
4.96341e-05
4.90762e-05
5.09326e-05
5.16426e-05
4.84418e-05
4.86928e-05
4.96626e-05
4.94206e-05
4.88129e-05
4.92429e-05
5.06792e-05
5.12425e-05
5.20744e-05
4.84029e-05
4.97302e-05
5.1017e-05
5.36015e-05
5.21943e-05
5.20865e-05
4.97904e-05
4.91973e-05
4.98436e-05
4.98851e-05
5.17173e-05
5.23174e-05
4.98389e-05
4.95971e-05
4.99359e-05
5.02778e-05
5.08645e-05
5.01686e-05
5.0702e-05
5.22132e-05
5.25978e-05
5.13454e-05
5.06065e-05
5.12893e-05
5.2843e-05
5.20963e-05
5.23485e-05
4.98516e-05
5.01942e-05
5.03009e-05
5.06808e-05
5.24849e-05
5.26399e-05
4.99458e-05
5.04217e-05
5.01937e-05
5.04374e-05
5.02831e-05
5.05269e-05
4.95134e-05
5.26301e-05
5.2331e-05
5.08345e-05
5.03012e-05
4.94943e-05
5.12234e-05
5.24478e-05
5.30015e-05
5.04143e-05
5.06926e-05
5.08563e-05
5.07065e-05
5.2648e-05
5.27072e-05
5.0269e-05
5.03942e-05
5.08267e-05
5.05165e-05
4.94949e-05
5.05121e-05
5.02572e-05
5.23334e-05
5.27093e-05
4.93667e-05
5.03196e-05
4.95642e-05
5.23378e-05
5.32214e-05
5.37654e-05
5.11473e-05
5.07841e-05
5.18322e-05
5.14517e-05
5.28475e-05
5.33777e-05
5.11636e-05
5.08733e-05
5.18509e-05
5.15362e-05
5.08146e-05
5.14877e-05
5.18696e-05
5.29389e-05
5.33051e-05
5.01303e-05
5.12434e-05
5.16414e-05
5.3773e-05
5.37675e-05
5.33159e-05
5.18384e-05
5.14944e-05
5.16872e-05
5.16575e-05
5.33912e-05
5.35578e-05
5.1854e-05
5.1551e-05
5.16993e-05
5.16785e-05
5.20001e-05
5.18168e-05
5.21012e-05
5.33134e-05
5.37733e-05
5.18803e-05
5.20767e-05
5.23984e-05
5.40087e-05
5.33428e-05
5.50582e-05
5.17057e-05
5.19528e-05
5.30501e-05
5.32763e-05
5.37991e-05
5.51713e-05
5.17191e-05
5.19885e-05
5.3044e-05
5.32337e-05
5.21557e-05
5.31914e-05
5.28971e-05
5.40575e-05
5.50862e-05
5.26099e-05
5.33613e-05
5.32487e-05
5.48898e-05
5.5371e-05
5.56102e-05
5.35719e-05
5.35785e-05
5.40115e-05
5.37923e-05
5.536e-05
5.53344e-05
5.3518e-05
5.3429e-05
5.38699e-05
5.3458e-05
5.31792e-05
5.37363e-05
5.3615e-05
5.51594e-05
5.48515e-05
5.33609e-05
5.33914e-05
5.34157e-05
5.50908e-05
5.5555e-05
5.47495e-05
5.39833e-05
5.37645e-05
5.34723e-05
5.34354e-05
5.5297e-05
5.47958e-05
5.38342e-05
5.33395e-05
5.3404e-05
5.32563e-05
5.36863e-05
5.35217e-05
5.40076e-05
5.48065e-05
5.47364e-05
5.34244e-05
5.32189e-05
5.38021e-05
5.54923e-05
5.47272e-05
5.46849e-05
5.33212e-05
5.33652e-05
5.31652e-05
5.33679e-05
5.47971e-05
5.5009e-05
5.3328e-05
5.33696e-05
5.33447e-05
5.43999e-05
5.40952e-05
5.35285e-05
5.41229e-05
5.493e-05
5.60617e-05
5.39982e-05
5.446e-05
5.42299e-05
5.57384e-05
5.48107e-05
5.58667e-05
5.31947e-05
5.35086e-05
5.4233e-05
5.43749e-05
5.5171e-05
5.58809e-05
5.35185e-05
5.46114e-05
5.44772e-05
5.47703e-05
5.40575e-05
5.43492e-05
5.36789e-05
5.61757e-05
5.60967e-05
5.42147e-05
5.47193e-05
5.3862e-05
5.48471e-05
5.60942e-05
5.6721e-05
5.4645e-05
5.45889e-05
5.54297e-05
5.50318e-05
5.59954e-05
5.62811e-05
5.4729e-05
5.47632e-05
5.5214e-05
5.46077e-05
5.36786e-05
5.47666e-05
5.45349e-05
5.60863e-05
5.58505e-05
5.38373e-05
5.45336e-05
5.44205e-05
5.60695e-05
5.67653e-05
5.66327e-05
5.55307e-05
5.51353e-05
5.55755e-05
5.53598e-05
5.63261e-05
5.64719e-05
5.52781e-05
5.45536e-05
5.52921e-05
5.45624e-05
5.49837e-05
5.52598e-05
5.56543e-05
5.58437e-05
5.58697e-05
5.487e-05
5.46511e-05
5.55393e-05
5.69718e-05
5.6632e-05
5.66091e-05
5.55565e-05
5.54269e-05
5.54526e-05
5.56528e-05
5.65593e-05
5.70237e-05
5.52878e-05
5.47153e-05
5.53617e-05
5.56668e-05
5.57294e-05
5.59051e-05
5.5812e-05
5.60403e-05
5.69927e-05
5.56287e-05
5.57151e-05
5.575e-05
5.69705e-05
5.66695e-05
5.70737e-05
5.54532e-05
5.57483e-05
5.57396e-05
5.60493e-05
5.71216e-05
5.73202e-05
5.5503e-05
5.58992e-05
5.59768e-05
5.62217e-05
5.58292e-05
5.61389e-05
5.59101e-05
5.71358e-05
5.73082e-05
5.57761e-05
5.60895e-05
5.5874e-05
5.701e-05
5.71717e-05
5.72438e-05
5.59348e-05
5.60854e-05
5.61395e-05
5.60165e-05
5.7331e-05
5.69157e-05
5.60938e-05
5.62324e-05
5.61809e-05
5.61654e-05
5.59087e-05
5.58594e-05
5.57635e-05
5.73114e-05
5.71773e-05
5.58785e-05
5.6061e-05
5.58291e-05
5.68318e-05
5.72316e-05
5.7022e-05
5.61301e-05
5.58705e-05
5.60025e-05
5.56533e-05
5.68444e-05
5.65622e-05
5.61631e-05
5.61175e-05
5.6017e-05
5.60837e-05
5.57173e-05
5.55569e-05
5.58468e-05
5.7182e-05
5.72933e-05
5.58225e-05
5.6285e-05
5.60682e-05
5.71036e-05
5.70486e-05
5.75317e-05
5.60053e-05
5.56739e-05
5.64025e-05
5.64213e-05
5.66525e-05
5.76548e-05
5.6018e-05
5.61106e-05
5.63521e-05
5.62544e-05
5.61363e-05
5.65166e-05
5.68427e-05
5.73507e-05
5.736e-05
5.62742e-05
5.63621e-05
5.67674e-05
5.7948e-05
5.75951e-05
5.75726e-05
5.65333e-05
5.6663e-05
5.66396e-05
5.70157e-05
5.78024e-05
5.80691e-05
5.64578e-05
5.6236e-05
5.6522e-05
5.6164e-05
5.69401e-05
5.70774e-05
5.69663e-05
5.73223e-05
5.70416e-05
5.68393e-05
5.62116e-05
5.68852e-05
5.79153e-05
5.75917e-05
5.83138e-05
5.67004e-05
5.70792e-05
5.72359e-05
5.74855e-05
5.81084e-05
5.86572e-05
5.65654e-05
5.62486e-05
5.7176e-05
5.73784e-05
5.69626e-05
5.74821e-05
5.71066e-05
5.7144e-05
5.859e-05
5.68967e-05
5.73778e-05
5.71485e-05
5.82068e-05
5.84626e-05
5.85676e-05
5.74162e-05
5.75603e-05
5.75184e-05
5.73835e-05
5.8749e-05
5.80761e-05
5.73985e-05
5.7703e-05
5.75863e-05
5.79403e-05
5.71975e-05
5.72853e-05
5.71312e-05
5.88104e-05
5.90304e-05
5.72305e-05
5.78123e-05
5.71521e-05
5.80208e-05
5.84507e-05
5.7025e-05
5.74233e-05
5.69339e-05
5.62776e-05
5.5588e-05
5.77721e-05
5.59742e-05
5.7535e-05
5.78459e-05
5.64904e-05
5.63234e-05
5.68485e-05
5.55151e-05
5.57216e-05
5.8831e-05
5.67498e-05
5.68611e-05
5.61056e-05
5.57128e-05
5.618e-05
5.68894e-05
5.71619e-05
5.60259e-05
5.55021e-05
5.60552e-05
5.64278e-05
5.59537e-05
5.82342e-05
5.61626e-05
5.59425e-05
5.60199e-05
5.58607e-05
5.5686e-05
5.66531e-05
5.70038e-05
5.65661e-05
5.71144e-05
5.56683e-05
5.59722e-05
5.68964e-05
5.86774e-05
5.75681e-05
5.96459e-05
5.64867e-05
5.74855e-05
5.84445e-05
5.92128e-05
5.88596e-05
6.07664e-05
5.62461e-05
5.62397e-05
5.82056e-05
5.83975e-05
5.80132e-05
5.93015e-05
5.91635e-05
5.76358e-05
5.99435e-05
5.79183e-05
5.86889e-05
5.91452e-05
6.07039e-05
5.97849e-05
5.895e-05
5.86804e-05
5.9241e-05
5.84194e-05
5.76787e-05
6.07626e-05
5.76638e-05
5.85092e-05
5.86114e-05
5.84006e-05
5.82212e-05
5.91e-05
5.72778e-05
5.65922e-05
6.00195e-05
5.84416e-05
5.90958e-05
5.79254e-05
5.67512e-05
5.67354e-05
5.85668e-05
5.62547e-05
5.7694e-05
5.66239e-05
5.55676e-05
5.50528e-05
5.70948e-05
5.54946e-05
5.78594e-05
5.74298e-05
5.57768e-05
5.56816e-05
5.57146e-05
5.49755e-05
5.50712e-05
5.79912e-05
5.61929e-05
5.58821e-05
5.55018e-05
5.521e-05
5.57568e-05
5.6149e-05
5.73746e-05
5.53481e-05
5.50473e-05
5.57851e-05
5.67557e-05
5.55883e-05
5.88086e-05
5.5522e-05
5.55759e-05
5.58047e-05
5.62646e-05
5.52878e-05
5.73343e-05
5.82016e-05
5.61966e-05
5.81608e-05
5.5394e-05
5.68117e-05
5.80686e-05
6.00212e-05
5.79582e-05
6.00136e-05
5.67734e-05
5.77142e-05
5.86274e-05
5.87967e-05
5.93164e-05
6.01807e-05
5.66434e-05
5.71315e-05
5.84981e-05
5.83188e-05
5.87577e-05
5.88559e-05
5.87803e-05
5.86315e-05
5.96746e-05
5.85773e-05
5.83048e-05
5.85528e-05
5.9404e-05
6.00255e-05
5.76883e-05
5.86631e-05
5.8753e-05
5.73056e-05
5.68127e-05
5.99734e-05
5.70613e-05
5.85397e-05
5.83016e-05
5.72527e-05
5.67074e-05
5.81615e-05
5.63984e-05
5.56793e-05
5.95881e-05
5.69496e-05
5.79081e-05
5.62587e-05
5.55876e-05
5.59988e-05
5.72986e-05
5.65685e-05
5.65086e-05
5.61183e-05
5.56722e-05
5.54742e-05
5.67715e-05
5.64371e-05
5.64738e-05
5.60866e-05
5.57015e-05
5.56793e-05
5.54349e-05
5.5455e-05
5.57342e-05
5.66749e-05
5.67555e-05
5.53948e-05
5.57058e-05
5.58788e-05
5.74295e-05
5.67731e-05
5.84577e-05
5.57131e-05
5.55357e-05
5.68616e-05
5.69229e-05
5.66939e-05
5.85159e-05
5.57571e-05
5.58598e-05
5.69892e-05
5.75453e-05
5.64464e-05
5.71193e-05
5.77283e-05
5.71891e-05
5.93012e-05
5.67042e-05
5.78625e-05
5.80262e-05
5.94824e-05
5.85925e-05
5.79587e-05
5.71335e-05
5.72447e-05
5.70129e-05
5.7173e-05
5.86829e-05
5.81492e-05
5.72326e-05
5.77444e-05
5.70294e-05
5.72683e-05
5.7767e-05
5.71288e-05
5.66976e-05
5.93966e-05
5.79977e-05
5.80523e-05
5.71791e-05
5.6697e-05
5.73541e-05
5.75853e-05
5.56723e-05
5.58033e-05
5.77259e-05
5.56606e-05
5.57187e-05
4.68435e-05
4.69397e-05
4.66146e-05
5.52249e-05
5.74969e-05
5.51567e-05
2.25569e-08
2.6528e-07
4.47023e-08
4.10732e-08
2.57368e-07
8.20144e-07
5.10785e-06
1.65758e-07
2.67506e-07
2.55269e-07
1.35931e-07
3.37241e-07
3.30536e-07
3.36828e-07
6.57311e-07
3.01752e-07
5.56983e-06
2.60707e-07
7.25231e-06
1.36383e-05
2.1096e-05
3.60667e-07
5.49536e-06
3.18781e-07
7.36718e-06
2.06813e-07
1.52825e-07
1.92738e-07
1.81444e-07
2.10617e-07
1.52233e-07
1.91701e-07
2.4787e-07
4.55769e-06
4.8631e-07
9.03326e-07
2.49646e-07
4.00532e-06
4.84959e-07
1.35139e-05
2.08632e-05
2.52321e-07
2.50295e-07
7.00246e-07
2.76076e-07
2.5696e-07
2.48901e-07
6.7636e-07
1.89091e-06
1.98773e-06
3.2143e-07
1.88267e-06
1.96767e-06
4.99451e-07
1.05366e-05
4.08744e-07
1.33586e-05
4.43993e-05
4.71566e-05
5.52734e-07
1.09877e-05
4.61495e-07
1.39025e-05
2.10113e-07
1.51278e-07
1.87778e-07
1.72105e-07
1.99667e-07
1.48386e-07
1.77773e-07