/*--------------------------------*- C++ -*----------------------------------*\
| =========                 |                                                 |
| \\      /  F ield         | OpenFOAM: The Open Source CFD Toolbox           |
|  \\    /   O peration     | Version:  v2012                                 |
|   \\  /    A nd           | Website:  www.openfoam.com                      |
|    \\/     M anipulation  |                                                 |
\*---------------------------------------------------------------------------*/
FoamFile
{
    version     2.0;
    format      ascii;
    class       volScalarField;
    location    "1850";
    object      p;
}
// * * * * * * * * * * * * * * * * * * * * * * * * * * * * * * * * * * * * * //

dimensions      [0 2 -2 0 0 0 0];


internalField   nonuniform List<scalar> 
171728
(
0.00352039
0.0035197
0.00351936
0.00352026
0.00348463
0.00348345
0.00348324
0.00348619
0.00344587
0.00344416
0.00344406
0.00344643
0.00340167
0.00340003
0.00339997
0.00340228
0.00335349
0.00335225
0.00335202
0.00335433
0.00330451
0.00330273
0.00330322
0.00330553
0.00325612
0.00325447
0.00325496
0.00325727
0.00320881
0.00320744
0.00320777
0.00321014
0.00316259
0.0031615
0.00316164
0.00316398
0.0031173
0.0031166
0.00311649
0.00311889
0.00307285
0.00307209
0.00307212
0.00307449
0.00302913
0.00302855
0.00302855
0.00303091
0.00298602
0.00298568
0.00298566
0.0029879
0.00294335
0.00294314
0.0029431
0.00294541
0.00290101
0.00290073
0.00290087
0.00290291
0.00285888
0.00285865
0.00285844
0.00286109
0.00281726
0.00281717
0.00281702
0.00281931
0.00277584
0.00277578
0.0027756
0.00277777
0.00273488
0.00273495
0.00273484
0.00273693
0.00269421
0.00269429
0.0026943
0.00269622
0.00265389
0.00265397
0.00265405
0.0026557
0.00261384
0.00261408
0.00261392
0.00261563
0.00257417
0.00257429
0.00257448
0.0025759
0.00253462
0.002535
0.00253496
0.00253651
0.00249552
0.00249567
0.00249583
0.00249743
0.00245657
0.00245719
0.00245694
0.0024585
0.00241767
0.00241814
0.00241812
0.00242015
0.00237926
0.00237961
0.0023798
0.00238129
0.00234084
0.00234164
0.00234144
0.00234369
0.00230283
0.00230321
0.00230336
0.00230493
0.00226474
0.00226564
0.00226546
0.00226755
0.00222714
0.0022276
0.00222768
0.00222937
0.00218932
0.00219005
0.00219008
0.0021919
0.00215175
0.00215273
0.00215249
0.00215428
0.00211428
0.00211464
0.00211475
0.0021166
0.00207708
0.00207781
0.00207795
0.00208023
0.0020402
0.00204079
0.00204068
0.00204213
0.00200301
0.00200341
0.00200341
0.00200543
0.00196613
0.00196666
0.00196661
0.00196867
0.00192931
0.00192969
0.00192976
0.00193172
0.00189283
0.00189302
0.00189303
0.00189505
0.00185624
0.00185662
0.00185656
0.00185863
0.00182017
0.00182016
0.00182026
0.00182203
0.0017838
0.00178382
0.00178372
0.00178611
0.0017476
0.00174789
0.00174779
0.00174973
0.00171135
0.00171129
0.00171177
0.00171369
0.00167625
0.00167599
0.0016756
0.00167793
0.00164063
0.00164045
0.00164037
0.0016423
0.00160449
0.00160425
0.00160456
0.00160658
0.00156874
0.00156883
0.00156876
0.00157092
0.00153375
0.00153345
0.00153338
0.00153538
0.00149844
0.00149794
0.00149806
0.00150016
0.00146305
0.00146325
0.00146298
0.00146491
0.00142809
0.00142737
0.0014276
0.00142962
0.00139262
0.00139257
0.00139245
0.00139457
0.00135784
0.00135785
0.00135783
0.00135973
0.00132312
0.00132244
0.00132248
0.00132453
0.00128814
0.00128825
0.00128816
0.00128997
0.00125375
0.00125319
0.00125327
0.00125522
0.00121833
0.00121838
0.00121821
0.00122008
0.00118385
0.00118341
0.00118348
0.00118535
0.0011492
0.00114907
0.00114924
0.00115144
0.00111508
0.00111484
0.00111484
0.00111673
0.00108035
0.00108016
0.00108004
0.00108164
0.00104583
0.0010455
0.00104522
0.00104713
0.00101106
0.00101092
0.00101113
0.00101324
0.000976344
0.000976239
0.000976338
0.000978294
0.0009414
0.000941502
0.000941519
0.000943359
0.000908104
0.000907747
0.000907634
0.00090949
0.000873715
0.000873327
0.000873246
0.000875157
0.000838379
0.000838456
0.000838606
0.000840592
0.000803936
0.000803866
0.000804073
0.000805842
0.000769618
0.000769377
0.000769104
0.000771059
0.000735094
0.000735012
0.00073484
0.000737097
0.000700164
0.000700167
0.000700228
0.000702056
0.000665772
0.000665723
0.000665938
0.000667612
0.000631518
0.000631323
0.000631344
0.000633375
0.000596619
0.000596385
0.000596388
0.0005984
0.000561492
0.000561556
0.000561549
0.000563522
0.000526933
0.00052711
0.000526829
0.0005289
0.00049218
0.000491988
0.000492054
0.000493939
0.000457516
0.000457235
0.000457507
0.000459225
0.000422502
0.000422332
0.000422345
0.000424408
0.000386494
0.000386521
0.000386355
0.00038851
0.000351955
0.000352526
0.000352253
0.000354425
0.000318369
0.000317789
0.000318142
0.0003197
0.000281914
0.000281031
0.000281348
0.000282947
0.000245027
0.000245889
0.000245597
0.000248082
0.000211338
0.000212054
0.000211753
0.000214046
0.00017733
0.000176055
0.000176298
0.000177751
0.000139695
0.000139382
0.000139501
0.000141529
0.000103789
0.00010456
0.000104541
0.000106853
6.97468e-05
6.96971e-05
6.97057e-05
7.14142e-05
3.43176e-05
3.33679e-05
3.31314e-05
3.48634e-05
5.2795e-06
6.36161e-06
6.40467e-06
4.74956e-06
0.00352488
0.00352238
0.00352237
0.00352513
0.00352245
0.00352233
0.00352878
0.00352903
0.00352881
0.00352893
0.00352275
0.00352258
0.00352482
0.00352234
0.00352262
0.00352507
0.00352009
0.00349089
0.00351933
0.00351955
0.00349282
0.00349327
0.00352015
0.00349066
0.00351937
0.00351935
0.00349276
0.00349276
0.00351959
0.00349282
0.00349274
0.00352007
0.00349091
0.00351947
0.00349281
0.00349288
0.00349096
0.00348613
0.00345196
0.0034832
0.00348358
0.00345425
0.00345411
0.00348606
0.00345182
0.00348331
0.00348327
0.00345432
0.00345426
0.00348351
0.00345405
0.0034542
0.00348611
0.00345202
0.00348328
0.00345437
0.00345439
0.00345197
0.00344643
0.0034085
0.00344416
0.003444
0.00341155
0.0034115
0.00344633
0.0034085
0.00344419
0.00344417
0.00341155
0.00341149
0.00344422
0.00341154
0.00341174
0.00344645
0.00340849
0.00344416
0.00341158
0.00341157
0.00340846
0.00340232
0.0033609
0.00340004
0.00340006
0.00336423
0.0033642
0.00340233
0.00336083
0.00340014
0.00340005
0.00336434
0.00336425
0.00340011
0.00336449
0.00336438
0.00340227
0.00336087
0.00340017
0.00336425
0.00336437
0.00336086
0.00335445
0.00331216
0.00335218
0.00335208
0.00331548
0.00331543
0.0033544
0.00331203
0.0033521
0.00335202
0.0033155
0.00331541
0.00335175
0.00331572
0.0033155
0.00335437
0.00331205
0.00335203
0.00331537
0.00331536
0.00331203
0.0033057
0.00326361
0.00330323
0.0033033
0.00326677
0.00326693
0.00330552
0.00326374
0.00330318
0.00330321
0.003267
0.00326693
0.00330292
0.00326686
0.00326707
0.00330558
0.00326369
0.00330314
0.00326693
0.00326685
0.00326362
0.00325727
0.00321623
0.00325526
0.00325509
0.00321905
0.00321912
0.00325733
0.00321626
0.00325492
0.00325498
0.00321951
0.00321948
0.00325479
0.00321956
0.00321943
0.00325734
0.00321632
0.00325481
0.00321947
0.00321948
0.00321631
0.00321007
0.00317016
0.00320802
0.00320766
0.00317281
0.00317293
0.00321008
0.00316979
0.00320774
0.00320776
0.00317306
0.00317306
0.00320773
0.00317305
0.00317305
0.00321013
0.00317005
0.0032077
0.00317307
0.00317301
0.00317002
0.00316404
0.00312476
0.00316146
0.00316157
0.00312773
0.0031279
0.00316391
0.00312508
0.0031616
0.00316165
0.00312765
0.0031277
0.00316167
0.00312775
0.00312773
0.00316401
0.00312475
0.00316165
0.00312767
0.00312769
0.00312479
0.00311891
0.00308037
0.00311648
0.00311669
0.00308317
0.00308309
0.00311912
0.00308021
0.00311649
0.00311652
0.00308322
0.00308324
0.00311653
0.00308303
0.00308313
0.00311885
0.0030803
0.00311648
0.00308319
0.00308317
0.00308027
0.00307455
0.00303656
0.00307215
0.00307218
0.00303942
0.00303932
0.00307446
0.00303652
0.00307218
0.00307203
0.00303942
0.00303938
0.0030721
0.00303934
0.00303936
0.00307447
0.00303656
0.00307216
0.00303943
0.00303934
0.00303659
0.00303087
0.00299349
0.0030286
0.00302856
0.00299636
0.00299637
0.00303086
0.00299356
0.00302859
0.0030285
0.00299636
0.00299629
0.00302857
0.00299639
0.00299633
0.00303085
0.00299341
0.00302857
0.00299638
0.00299633
0.00299356
0.00298784
0.00295089
0.00298561
0.00298568
0.00295367
0.00295356
0.00298792
0.0029509
0.00298562
0.00298565
0.00295364
0.00295356
0.00298561
0.00295356
0.00295347
0.00298779
0.00295075
0.00298559
0.00295363
0.0029534
0.00295086
0.00294536
0.00290856
0.00294313
0.00294312
0.0029112
0.00291104
0.0029454
0.00290849
0.00294313
0.00294304
0.00291118
0.00291114
0.00294311
0.00291102
0.00291113
0.00294517
0.00290861
0.00294311
0.00291114
0.00291115
0.00290838
0.00290313
0.00286631
0.00290081
0.00290073
0.00286902
0.00286907
0.00290303
0.00286635
0.00290077
0.00290084
0.00286899
0.00286898
0.00290073
0.00286909
0.00286912
0.00290316
0.00286642
0.00290069
0.00286901
0.00286912
0.00286647
0.00286088
0.00282475
0.00285848
0.00285863
0.00282747
0.00282762
0.00286094
0.00282478
0.00285847
0.00285834
0.00282756
0.00282771
0.00285887
0.00282762
0.0028273
0.00286085
0.00282474
0.00285885
0.00282761
0.00282731
0.00282465
0.00281943
0.00278323
0.00281718
0.00281717
0.00278602
0.00278599
0.00281937
0.00278318
0.00281724
0.00281719
0.00278592
0.00278587
0.0028171
0.00278596
0.00278603
0.00281939
0.00278308
0.00281708
0.00278606
0.00278605
0.00278313
0.00277795
0.00274222
0.00277582
0.00277579
0.00274505
0.00274508
0.00277788
0.00274207
0.00277572
0.00277547
0.00274511
0.00274514
0.00277557
0.00274508
0.00274514
0.0027777
0.00274222
0.00277554
0.00274512
0.00274518
0.00274216
0.00273703
0.00270136
0.00273498
0.00273493
0.00270428
0.00270423
0.00273685
0.00270138
0.00273504
0.00273482
0.00270429
0.00270445
0.00273491
0.00270421
0.0027043
0.00273696
0.00270124
0.00273492
0.00270444
0.00270431
0.00270142
0.00269618
0.00266088
0.0026943
0.00269429
0.00266399
0.00266407
0.0026962
0.00266082
0.0026943
0.0026943
0.00266405
0.00266398
0.00269421
0.00266403
0.00266398
0.00269613
0.00266085
0.0026942
0.00266396
0.00266401
0.00266082
0.00265573
0.0026208
0.0026539
0.00265399
0.00262406
0.00262393
0.00265577
0.00262074
0.0026539
0.00265405
0.00262411
0.00262396
0.00265394
0.0026239
0.002624
0.00265572
0.00262071
0.00265392
0.00262396
0.00262404
0.00262069
0.00261575
0.00258103
0.00261395
0.00261408
0.00258425
0.0025842
0.00261568
0.00258097
0.00261394
0.00261392
0.00258428
0.00258431
0.00261403
0.00258421
0.0025843
0.00261561
0.002581
0.00261403
0.00258434
0.00258432
0.00258091
0.00257617
0.00254135
0.0025744
0.00257427
0.00254474
0.00254483
0.00257589
0.00254161
0.00257442
0.00257449
0.00254477
0.00254473
0.00257433
0.00254481
0.00254484
0.0025761
0.0025414
0.00257434
0.00254476
0.00254485
0.0025415
0.00253616
0.00250274
0.00253471
0.00253502
0.0025058
0.00250559
0.00253671
0.00250214
0.00253472
0.00253494
0.00250574
0.00250558
0.00253495
0.00250556
0.00250559
0.00253643
0.00250237
0.00253495
0.00250558
0.00250563
0.00250239
0.00249785
0.00246334
0.00249595
0.00249572
0.00246661
0.00246671
0.00249705
0.00246351
0.00249592
0.00249584
0.00246663
0.00246661
0.00249578
0.00246675
0.00246662
0.00249737
0.00246367
0.00249581
0.00246661
0.00246662
0.00246347
0.00245836
0.00242497
0.00245682
0.00245714
0.00242797
0.00242787
0.00245908
0.0024254
0.00245683
0.00245693
0.00242799
0.00242782
0.00245695
0.00242789
0.0024279
0.00245879
0.00242477
0.00245692
0.00242782
0.00242788
0.00242504
0.00241996
0.00238642
0.00241827
0.00241813
0.00238932
0.00238917
0.00242016
0.00238562
0.0024183
0.0024181
0.00238934
0.00238942
0.00241822
0.00238914
0.00238925
0.00241966
0.0023867
0.00241823
0.0023894
0.00238929
0.00238618
0.00238162
0.00234818
0.00237975
0.00237963
0.00235097
0.00235125
0.00238071
0.00234894
0.00237976
0.00237981
0.00235095
0.00235097
0.00237972
0.00235128
0.00235108
0.00238196
0.00234826
0.00237977
0.00235097
0.00235107
0.00234857
0.00234308
0.0023103
0.00234137
0.00234161
0.002313
0.00231274
0.00234407
0.00231015
0.00234134
0.00234142
0.00231301
0.00231286
0.00234151
0.00231273
0.00231283
0.00234322
0.00231004
0.00234148
0.00231283
0.00231277
0.0023099
0.00230548
0.00227216
0.00230344
0.00230323
0.00227473
0.00227504
0.00230511
0.00227212
0.00230346
0.00230337
0.00227472
0.00227491
0.00230329
0.00227505
0.00227503
0.00230518
0.00227227
0.00230327
0.00227495
0.00227506
0.00227241
0.00226713
0.00223476
0.00226528
0.00226562
0.00223739
0.00223714
0.00226733
0.00223449
0.00226525
0.00226543
0.00223737
0.00223716
0.00226562
0.00223712
0.00223704
0.00226736
0.00223449
0.00226563
0.00223712
0.00223701
0.00223433
0.0022299
0.00219683
0.00222793
0.00222766
0.00219937
0.00219935
0.00222953
0.00219657
0.00222793
0.00222775
0.00219946
0.00219946
0.0022275
0.00219931
0.00219943
0.00222958
0.0021968
0.00222748
0.00219945
0.00219946
0.00219675
0.00219185
0.00215906
0.00218987
0.00219002
0.00216177
0.002162
0.00219176
0.00215953
0.00218995
0.00219005
0.00216174
0.00216185
0.00219024
0.00216211
0.0021621
0.00219193
0.00215927
0.00219028
0.00216193
0.00216201
0.00215932
0.00215421
0.00212179
0.00215249
0.00215265
0.00212438
0.00212422
0.00215464
0.00212144
0.00215242
0.00215242
0.00212434
0.00212418
0.00215239
0.00212414
0.00212371
0.00215432
0.00212147
0.00215229
0.00212411
0.00212375
0.00212129
0.00211686
0.00208434
0.00211497
0.00211474
0.0020869
0.00208691
0.00211652
0.00208447
0.00211496
0.00211482
0.00208695
0.00208712
0.0021146
0.00208689
0.00208756
0.00211661
0.00208465
0.00211465
0.00208712
0.00208759
0.00208521
0.00207953
0.00204757
0.00207765
0.00207778
0.00205008
0.0020501
0.00207967
0.00204754
0.0020777
0.00207791
0.00205008
0.00204997
0.00207824
0.0020502
0.00204995
0.00207978
0.0020474
0.00207822
0.00205005
0.00204991
0.00204703
0.00204267
0.00201022
0.00204082
0.00204073
0.00201279
0.00201272
0.00204257
0.00201016
0.0020408
0.00204064
0.00201279
0.0020127
0.0020405
0.00201268
0.00201258
0.00204252
0.00201024
0.00204047
0.00201267
0.0020126
0.00201023
0.00200533
0.00197334
0.00200344
0.00200346
0.00197574
0.00197588
0.00200533
0.00197353
0.00200345
0.00200343
0.00197573
0.00197583
0.00200338
0.00197588
0.00197582
0.00200538
0.0019734
0.00200341
0.00197582
0.00197581
0.00197356
0.00196849
0.00193665
0.00196656
0.00196667
0.00193895
0.00193889
0.00196861
0.00193647
0.00196655
0.00196662
0.00193899
0.00193895
0.00196663
0.00193889
0.00193898
0.00196853
0.00193658
0.00196662
0.00193896
0.00193899
0.00193659
0.00193182
0.00189984
0.00192979
0.00192967
0.00190226
0.00190216
0.00193165
0.00189987
0.0019298
0.00192975
0.00190221
0.0019022
0.00192975
0.00190219
0.00190219
0.00193173
0.00189986
0.00192977
0.00190219
0.0019022
0.00189986
0.00189498
0.00186341
0.00189304
0.00189301
0.0018656
0.00186571
0.00189505
0.00186351
0.00189302
0.00189303
0.00186565
0.00186561
0.00189308
0.00186568
0.00186576
0.00189502
0.00186341
0.00189306
0.00186566
0.00186575
0.00186348
0.00185859
0.00182706
0.00185655
0.00185664
0.00182936
0.00182932
0.0018587
0.00182699
0.00185656
0.00185653
0.0018293
0.00182939
0.00185661
0.00182933
0.00182912
0.00185859
0.00182711
0.00185662
0.00182935
0.00182913
0.00182683
0.00182225
0.00179075
0.00182028
0.00182016
0.00179295
0.00179282
0.00182213
0.0017907
0.00182022
0.00182029
0.00179298
0.00179287
0.00182001
0.00179278
0.00179297
0.00182229
0.00179063
0.00181998
0.00179286
0.00179296
0.00179089
0.00178591
0.00175437
0.00178383
0.00178383
0.00175648
0.00175696
0.00178594
0.00175475
0.0017839
0.00178374
0.00175657
0.00175665
0.00178401
0.00175701
0.00175685
0.0017858
0.0017546
0.00178402
0.00175668
0.00175687
0.00175457
0.00174958
0.00171862
0.00174741
0.00174785
0.0017207
0.00172032
0.00174987
0.00171817
0.00174747
0.00174775
0.00172061
0.00172085
0.0017477
0.00172034
0.00172059
0.00174986
0.00171864
0.0017477
0.00172086
0.00172054
0.00171849
0.00171386
0.00168295
0.00171186
0.00171124
0.00168526
0.00168482
0.00171339
0.00168284
0.00171174
0.00171177
0.00168506
0.00168459
0.00171164
0.00168469
0.00168476
0.00171378
0.00168246
0.00171163
0.00168454
0.00168481
0.00168268
0.00167813
0.00164685
0.00167625
0.00167615
0.00164884
0.0016495
0.00167817
0.00164723
0.0016761
0.00167564
0.00164899
0.00164911
0.00167582
0.00164942
0.00164919
0.00167773
0.00164712
0.00167586
0.00164916
0.00164912
0.00164706
0.00164207
0.00161119
0.00163983
0.00164043
0.00161312
0.00161316
0.00164239
0.00161112
0.00164002
0.0016403
0.00161324
0.00161357
0.00164032
0.00161328
0.0016134
0.00164239
0.00161141
0.00164021
0.00161357
0.0016134
0.00161135
0.00160642
0.0015757
0.00160423
0.00160414
0.00157766
0.00157749
0.00160633
0.00157557
0.00160435
0.00160457
0.00157779
0.00157764
0.00160443
0.00157759
0.00157777
0.0016066
0.00157563
0.0016045
0.00157765
0.00157784
0.00157568
0.00157098
0.00154048
0.00156892
0.00156875
0.0015428
0.00154264
0.00157086
0.00154039
0.00156897
0.00156876
0.00154246
0.00154227
0.0015689
0.00154246
0.00154213
0.00157088
0.00154018
0.0015689
0.00154221
0.00154208
0.0015401
0.00153568
0.00150471
0.00153381
0.00153371
0.00150671
0.00150669
0.0015356
0.00150471
0.00153353
0.00153343
0.00150673
0.00150687
0.00153329
0.00150664
0.00150694
0.00153543
0.00150482
0.00153329
0.00150689
0.00150697
0.00150487
0.00149997
0.00146967
0.00149784
0.00149792
0.00147163
0.00147193
0.0015
0.00146989
0.00149788
0.00149801
0.00147163
0.00147166
0.00149819
0.00147201
0.0014717
0.0015001
0.00146969
0.00149816
0.00147171
0.00147165
0.00146965
0.00146497
0.00143447
0.00146293
0.00146318
0.00143658
0.0014363
0.00146517
0.00143424
0.00146295
0.00146295
0.00143668
0.00143666
0.00146285
0.00143636
0.00143646
0.00146498
0.00143444
0.00146283
0.0014366
0.00143646
0.00143436
0.0014297
0.00139908
0.00142773
0.00142739
0.0014011
0.00140119
0.00142946
0.00139917
0.00142778
0.0014277
0.00140103
0.00140107
0.00142764
0.00140111
0.00140128
0.00142965
0.0013991
0.00142764
0.00140104
0.00140126
0.00139926
0.00139437
0.00136447
0.00139232
0.00139258
0.00136647
0.00136658
0.00139454
0.00136456
0.00139227
0.0013924
0.00136647
0.0013665
0.00139258
0.00136671
0.00136651
0.00139444
0.00136452
0.00139259
0.00136663
0.00136655
0.00136443
0.00135983
0.00132941
0.00135788
0.00135776
0.00133157
0.00133129
0.00135978
0.0013292
0.0013579
0.00135777
0.00133155
0.00133141
0.00135775
0.00133117
0.00133133
0.00135978
0.00132925
0.00135776
0.00133124
0.00133129
0.00132926
0.00132465
0.0012944
0.0013227
0.00132257
0.00129642
0.00129673
0.00132452
0.00129469
0.00132264
0.00132263
0.00129639
0.00129659
0.00132259
0.00129679
0.00129662
0.00132453
0.00129461
0.00132255
0.00129671
0.00129667
0.00129461
0.00128976
0.00126019
0.00128782
0.00128815
0.00126223
0.00126204
0.00129005
0.00125994
0.00128782
0.001288
0.00126228
0.00126211
0.00128801
0.001262
0.00126211
0.00128998
0.00126001
0.00128807
0.00126206
0.00126208
0.00125995
0.00125551
0.00122492
0.00125354
0.0012533
0.00122699
0.00122707
0.00125522
0.00122502
0.00125361
0.00125341
0.00122695
0.00122705
0.00125337
0.00122705
0.00122687
0.00125529
0.00122489
0.00125331
0.00122695
0.00122678
0.00122481
0.00122016
0.00119002
0.00121818
0.00121836
0.00119214
0.00119211
0.00122031
0.00119004
0.00121812
0.00121823
0.00119212
0.00119204
0.00121806
0.00119214
0.001192
0.00122015
0.00119005
0.00121799
0.00119213
0.00119202
0.00118998
0.00118536
0.00115571
0.00118351
0.00118339
0.00115764
0.00115755
0.00118531
0.00115558
0.00118353
0.00118343
0.00115776
0.00115778
0.00118346
0.00115757
0.00115798
0.00118539
0.00115581
0.0011835
0.00115778
0.00115807
0.00115602
0.00115107
0.00112128
0.00114907
0.00114903
0.00112341
0.00112343
0.00115098
0.0011214
0.00114917
0.00114922
0.00112333
0.00112327
0.00114947
0.0011235
0.00112357
0.00115119
0.00112132
0.00114957
0.0011235
0.00112372
0.00112146
0.00111658
0.00108664
0.00111475
0.00111479
0.0010887
0.00108887
0.00111669
0.00108671
0.00111468
0.00111463
0.0010887
0.0010889
0.00111476
0.00108879
0.00108853
0.00111664
0.00108666
0.00111488
0.00108877
0.00108847
0.00108639
0.00108199
0.00105231
0.00108009
0.00108028
0.00105438
0.00105436
0.00108203
0.00105218
0.00108009
0.00108029
0.0010543
0.00105416
0.00107984
0.00105419
0.00105385
0.00108194
0.00105194
0.00107969
0.00105388
0.00105361
0.00105174
0.00104761
0.00101753
0.00104574
0.00104561
0.00101958
0.0010194
0.00104747
0.00101751
0.00104566
0.00104542
0.00101963
0.00101948
0.0010453
0.00101953
0.00101982
0.00104724
0.00101764
0.0010451
0.00101962
0.00101986
0.00101788
0.00101282
0.000982851
0.00101086
0.00101074
0.000984867
0.000984873
0.00101282
0.000982912
0.00101095
0.00101091
0.000984906
0.000985044
0.00101125
0.000984967
0.000985119
0.00101302
0.000983033
0.00101132
0.000985157
0.000985284
0.000983081
0.000978101
0.000947917
0.000976144
0.000976211
0.00094993
0.000950133
0.000978171
0.000948056
0.00097613
0.000976246
0.000949878
0.000950013
0.000976306
0.000950072
0.000950043
0.000978236
0.000948031
0.000976432
0.000950102
0.000950076
0.000948028
0.00094325
0.000914369
0.000941339
0.000941584
0.000916303
0.000916297
0.000943398
0.000914255
0.000941311
0.000941481
0.000916329
0.000916286
0.000941465
0.000916193
0.000916088
0.000943372
0.000914173
0.000941498
0.000916114
0.000916058
0.000914088
0.000909851
0.000879969
0.000908009
0.000907842
0.000882151
0.000881957
0.000909665
0.000879927
0.000908058
0.000907839
0.000882108
0.000881947
0.000907653
0.000882022
0.000881945
0.000909572
0.000879866
0.000907567
0.00088191
0.000881823
0.000879851
0.000875184
0.000844988
0.000873314
0.000873225
0.000846946
0.000847068
0.00087519
0.000845094
0.000873285
0.000873225
0.00084699
0.00084713
0.000873292
0.000847154
0.000847304
0.000875142
0.000845221
0.000873202
0.000847217
0.000847354
0.000845309
0.000840287
0.000810626
0.000838273
0.00083841
0.000812518
0.000812559
0.000840367
0.000810552
0.000838345
0.000838531
0.000812604
0.000812784
0.000838626
0.000812491
0.000812537
0.000840545
0.000810784
0.000838738
0.000812787
0.00081268
0.000810594
0.000805946
0.000776167
0.000803966
0.00080394
0.000778219
0.000778077
0.000805859
0.000776074
0.000804013
0.000804104
0.000778102
0.000777851
0.000803805
0.00077799
0.000777746
0.000806029
0.000775785
0.000803894
0.000777787
0.000777656
0.000775737
0.000771461
0.000741514
0.000769608
0.000769459
0.00074359
0.000743591
0.000771377
0.000741619
0.000769446
0.000769157
0.000743521
0.00074335
0.000769163
0.000743629
0.000743774
0.000771072
0.000741444
0.000769048
0.000743388
0.000743698
0.000741755
0.000736785
0.000706636
0.000734865
0.000734934
0.000708608
0.000708808
0.000736915
0.000706761
0.000734852
0.000734765
0.00070871
0.000708849
0.000735248
0.000708891
0.000708953
0.000736778
0.000706863
0.000735209
0.000708909
0.000709023
0.000706864
0.000701908
0.000672372
0.000699922
0.000700108
0.000674226
0.000674267
0.000701999
0.000672296
0.00070003
0.00070021
0.000674336
0.000674532
0.000700075
0.000674278
0.000674122
0.000702127
0.000672519
0.000700158
0.000674476
0.000674182
0.000672225
0.000667748
0.000638178
0.00066574
0.000665727
0.000640165
0.00064006
0.000667658
0.00063808
0.00066583
0.000666001
0.000640115
0.000640108
0.000665642
0.000639976
0.000640125
0.000667871
0.000638055
0.000665684
0.000640055
0.000640092
0.000638111
0.000633449
0.000603211
0.000631539
0.000631431
0.000605314
0.000605235
0.000633369
0.000603201
0.000631442
0.000631394
0.000605213
0.000605134
0.000631486
0.00060516
0.000605215
0.000633309
0.000603125
0.000631438
0.000605128
0.000605193
0.000603187
0.000598407
0.000568104
0.00059649
0.000596429
0.000570097
0.000570092
0.000598397
0.000568177
0.000596434
0.000596361
0.00057013
0.000570129
0.000596403
0.000570194
0.000570177
0.00059835
0.000568221
0.000596411
0.000570241
0.000570205
0.000568241
0.000563367
0.000533645
0.000561396
0.000561434
0.000535574
0.000535709
0.00056346
0.000533771
0.000561435
0.000561451
0.00053557
0.000535549
0.000561535
0.000535758
0.000535678
0.000563479
0.000533574
0.000561537
0.000535517
0.00053561
0.00053364
0.000528954
0.000498797
0.00052697
0.000527115
0.000500822
0.000500856
0.000529064
0.000498744
0.000526952
0.000526897
0.00050082
0.000500789
0.000526994
0.000500783
0.000500734
0.000528848
0.00049875
0.000526937
0.00050074
0.00050076
0.000498714
0.000494023
0.000464015
0.000492065
0.000492054
0.000465985
0.00046587
0.000493945
0.000463864
0.000492085
0.000492082
0.00046605
0.000466143
0.000491962
0.000465849
0.000465875
0.000494002
0.000464137
0.000492015
0.000466128
0.000465941
0.000463923
0.000459304
0.000429176
0.000457363
0.00045724
0.000431261
0.000431188
0.000459163
0.000429182
0.000457415
0.000457517
0.000431247
0.000431236
0.000457273
0.000431205
0.000431299
0.00045943
0.000429166
0.00045732
0.000431259
0.000431278
0.000429256
0.000424329
0.000393382
0.000422379
0.000422311
0.000395419
0.000395353
0.000424337
0.000393386
0.000422363
0.000422329
0.000395422
0.000395331
0.000422424
0.000395361
0.000395374
0.000424315
0.000393293
0.000422395
0.00039531
0.000395351
0.000393346
0.000388503
0.000358672
0.000386474
0.000386506
0.000360533
0.000360856
0.000388566
0.000359017
0.000386454
0.000386357
0.000360414
0.000360473
0.000386485
0.000360925
0.000360883
0.000388418
0.000358722
0.000386455
0.000360596
0.000360831
0.000358991
0.0003541
0.000324842
0.000352137
0.000352461
0.000326866
0.000326851
0.00035443
0.00032459
0.000352033
0.000352136
0.000326918
0.000327036
0.000352512
0.00032677
0.000326756
0.000354157
0.000324888
0.000352469
0.000326977
0.000326835
0.000324605
0.000320047
0.000288611
0.000318146
0.000317897
0.000290815
0.000290382
0.000319697
0.000288153
0.000318259
0.00031828
0.000290924
0.000290764
0.000317744
0.000290269
0.000290191
0.000320045
0.000288453
0.000317831
0.000290588
0.000290253
0.000288004
0.000283558
0.000252183
0.000281571
0.000281151
0.000254003
0.000254241
0.000283108
0.000252562
0.000281638
0.000281488
0.000254031
0.000254107
0.000280943
0.000254363
0.000254552
0.000283419
0.000252354
0.000280988
0.000254217
0.00025451
0.000252738
0.000247425
0.000218066
0.000245266
0.000245673
0.000219911
0.000220362
0.000247887
0.000218609
0.000245205
0.000245386
0.000219786
0.000219994
0.000246099
0.000220569
0.00022073
0.000247639
0.000218266
0.000246029
0.000220215
0.000220657
0.000218783
0.000213511
0.000183746
0.000211567
0.000211931
0.000185973
0.000185575
0.000213997
0.000183125
0.000211469
0.000211587
0.000186001
0.000185714
0.000212082
0.000185266
0.000184927
0.000213662
0.000183319
0.000212028
0.000185419
0.000184961
0.000182742
0.000178761
0.000146605
0.000176919
0.000176389
0.000148784
0.000148564
0.000178116
0.000146344
0.000176989
0.000176649
0.000148858
0.00014877
0.000175724
0.000148447
0.000148338
0.000178348
0.000146535
0.000175781
0.000148655
0.000148394
0.000146352
0.000141483
0.000110803
0.000139421
0.000139326
0.00011255
0.000112864
0.000141353
0.000111227
0.000139473
0.000139406
0.00011253
0.000112814
0.000139503
0.000113145
0.000113521
0.000141483
0.000111159
0.000139534
0.000113115
0.000113529
0.000111631
0.000106145
7.66112e-05
0.000104076
0.000104335
7.85222e-05
7.85416e-05
0.00010652
7.65539e-05
0.000104057
0.000104293
7.85257e-05
7.86223e-05
0.000104843
7.8537e-05
7.84971e-05
0.000106459
7.66009e-05
0.000104849
7.86072e-05
7.84898e-05
7.63909e-05
7.17884e-05
4.047e-05
6.98302e-05
6.98027e-05
4.27116e-05
4.26224e-05
7.16621e-05
4.03397e-05
6.98481e-05
6.98446e-05
4.26296e-05
4.2347e-05
6.94838e-05
4.24519e-05
4.21295e-05
7.16737e-05
4.00713e-05
6.9472e-05
4.21563e-05
4.20495e-05
3.99301e-05
3.53643e-05
7.60374e-06
3.36144e-05
3.35095e-05
1.06401e-05
1.05559e-05
3.52551e-05
7.57451e-06
3.35243e-05
3.32897e-05
1.065e-05
1.05745e-05
3.31397e-05
1.05893e-05
1.07877e-05
3.49957e-05
7.67103e-06
3.30327e-05
1.06025e-05
1.07826e-05
7.87156e-06
4.43991e-06
6.27174e-06
6.23999e-06
4.4605e-06
6.31087e-06
6.27102e-06
5.30329e-06
5.27392e-06
5.48924e-06
6.50602e-06
4.59207e-06
6.54599e-06
0.00353201
0.00353454
0.00353327
0.00353343
0.00356084
0.00353459
0.00356456
0.00353502
0.00356065
0.00353443
0.00353482
0.00356414
0.00354575
0.00356795
0.00356747
0.00350448
0.00351789
0.00352192
0.00349666
0.00349398
0.00350033
0.0035043
0.00351806
0.003522
0.00349653
0.00352059
0.00352042
0.00352052
0.00349378
0.00349363
0.00349388
0.00349382
0.00350423
0.00351685
0.00352116
0.00351171
0.00352342
0.00350186
0.00351207
0.00349494
0.00350022
0.00350409
0.003521
0.0035158
0.00351164
0.00352314
0.00351197
0.00350126
0.00352204
0.00352195
0.00350898
0.00350125
0.0035012
0.0034765
0.00349092
0.00349081
0.00347457
0.00348812
0.00347442
0.00347658
0.00349096
0.00349086
0.00347458
0.00348445
0.00348472
0.00348465
0.00345603
0.00345603
0.00345616
0.00345595
0.00347428
0.0034897
0.00348325
0.00347381
0.00348799
0.00347449
0.00347376
0.00348823
0.00347368
0.00347442
0.0034832
0.00348951
0.00347379
0.00348796
0.0034738
0.00347493
0.00349126
0.00349123
0.00347218
0.00347528
0.0034753
0.00343389
0.00344875
0.00344958
0.00343244
0.00344746
0.00343168
0.00343389
0.00344861
0.0034496
0.00343253
0.00344591
0.00344599
0.00344578
0.00341325
0.00341331
0.00341329
0.00341316
0.00343254
0.00344808
0.00344409
0.00343342
0.00344717
0.00343258
0.00343349
0.00344751
0.00343167
0.0034326
0.00344411
0.00344827
0.00343363
0.00344722
0.00343361
0.00343302
0.00344901
0.00344899
0.00343089
0.00343288
0.00343283
0.00338742
0.00340372
0.00340539
0.00338599
0.0034032
0.00338551
0.00338736
0.00340384
0.00340535
0.00338597
0.00340174
0.0034017
0.00340162
0.00336567
0.00336568
0.00336573
0.00336562
0.00338661
0.00340383
0.00340005
0.00338864
0.00340316
0.00338656
0.00338843
0.00340316
0.00338553
0.00338655
0.00340003
0.00340368
0.00338835
0.00340314
0.00338834
0.00338667
0.00340392
0.00340391
0.00338499
0.00338617
0.00338614
0.00333837
0.00335558
0.00335695
0.00333706
0.00335516
0.00333688
0.00333838
0.00335552
0.00335684
0.00333714
0.00335353
0.0033535
0.00335341
0.00331674
0.00331675
0.00331675
0.00331666
0.00333792
0.00335563
0.00335213
0.00333952
0.00335521
0.00333797
0.0033398
0.00335517
0.00333685
0.00333794
0.00335209
0.00335554
0.00333983
0.0033552
0.00333991
0.0033379
0.00335566
0.00335558
0.00333633
0.00333693
0.00333717
0.0032892
0.0033065
0.00330754
0.00328824
0.00330627
0.00328809
0.00328913
0.00330643
0.00330749
0.00328828
0.00330451
0.00330451
0.00330445
0.00326813
0.00326812
0.00326815
0.00326812
0.003289
0.00330642
0.00330311