/*--------------------------------*- C++ -*----------------------------------*\
| =========                 |                                                 |
| \\      /  F ield         | OpenFOAM: The Open Source CFD Toolbox           |
|  \\    /   O peration     | Version:  v2006                                 |
|   \\  /    A nd           | Website:  www.openfoam.com                      |
|    \\/     M anipulation  |                                                 |
\*---------------------------------------------------------------------------*/
FoamFile
{
    version     2.0;
    format      ascii;
    class       volScalarField;
    location    "1000";
    object      epsilon;
}
// * * * * * * * * * * * * * * * * * * * * * * * * * * * * * * * * * * * * * //

dimensions      [0 2 -3 0 0 0 0];


internalField   nonuniform List<scalar> 
43024
(
4.95567e-07
4.97331e-07
4.97331e-07
4.99575e-07
4.45573e-07
4.53736e-07
4.53738e-07
4.63711e-07
4.03752e-07
4.18514e-07
4.18515e-07
4.39411e-07
3.68363e-07
3.88554e-07
3.88556e-07
4.1767e-07
3.38014e-07
3.62105e-07
3.62107e-07
3.96085e-07
3.11645e-07
3.38275e-07
3.38278e-07
3.74584e-07
2.88472e-07
3.1664e-07
3.16643e-07
3.53713e-07
2.67922e-07
2.97024e-07
2.97027e-07
3.34151e-07
2.49579e-07
2.79372e-07
2.79375e-07
3.16488e-07
2.33136e-07
2.63681e-07
2.63684e-07
3.01167e-07
2.18364e-07
2.49956e-07
2.49961e-07
2.88499e-07
2.05089e-07
2.38201e-07
2.38205e-07
2.78703e-07
1.93171e-07
2.28412e-07
2.28417e-07
2.71876e-07
1.82497e-07
2.20602e-07
2.20608e-07
2.68166e-07
1.72978e-07
2.14774e-07
2.14783e-07
2.6765e-07
1.6454e-07
2.10941e-07
2.10946e-07
2.70482e-07
1.5712e-07
2.09105e-07
2.09112e-07
2.76667e-07
1.50668e-07
2.0931e-07
2.09314e-07
2.86252e-07
1.45135e-07
2.11565e-07
2.11559e-07
2.99247e-07
1.40486e-07
2.15903e-07
2.15898e-07
3.15604e-07
1.367e-07
2.22357e-07
2.22368e-07
3.35518e-07
5.06417e-07
5.05584e-07
5.05582e-07
5.06417e-07
5.05583e-07
5.05583e-07
5.09649e-07
5.09649e-07
5.09649e-07
5.09649e-07
5.05584e-07
5.05584e-07
5.06417e-07
5.05584e-07
5.05583e-07
5.06418e-07
4.99575e-07
4.67236e-07
4.97331e-07
4.97335e-07
4.63713e-07
4.63721e-07
4.99575e-07
4.67237e-07
4.97334e-07
4.97335e-07
4.63718e-07
4.63723e-07
4.97332e-07
4.6371e-07
4.63715e-07
4.99575e-07
4.67239e-07
4.97334e-07
4.63711e-07
4.63719e-07
4.67243e-07
4.63708e-07
4.41422e-07
4.53739e-07
4.53748e-07
4.26738e-07
4.26747e-07
4.63709e-07
4.41422e-07
4.53743e-07
4.5375e-07
4.26738e-07
4.26749e-07
4.53743e-07
4.26732e-07
4.26742e-07
4.6371e-07
4.41428e-07
4.53745e-07
4.26734e-07
4.26742e-07
4.41434e-07
4.39404e-07
4.19278e-07
4.18521e-07
4.1853e-07
3.95675e-07
3.95684e-07
4.39408e-07
4.19279e-07
4.18521e-07
4.18533e-07
3.9567e-07
3.95686e-07
4.18526e-07
3.95665e-07
3.9568e-07
4.39409e-07
4.19285e-07
4.18525e-07
3.95668e-07
3.95675e-07
4.19293e-07
4.17658e-07
3.9764e-07
3.88564e-07
3.88573e-07
3.6846e-07
3.68468e-07
4.1766e-07
3.97641e-07
3.88558e-07
3.88576e-07
3.6845e-07
3.6847e-07
3.8857e-07
3.68447e-07
3.68466e-07
4.17664e-07
3.97647e-07
3.88564e-07
3.68449e-07
3.68456e-07
3.97655e-07
3.96071e-07
3.7608e-07
3.62118e-07
3.62126e-07
3.44032e-07
3.44038e-07
3.96074e-07
3.76081e-07
3.62108e-07
3.62129e-07
3.44018e-07
3.44041e-07
3.62124e-07
3.44016e-07
3.44037e-07
3.96078e-07
3.76087e-07
3.62113e-07
3.44018e-07
3.44023e-07
3.76096e-07
3.7457e-07
3.55106e-07
3.38291e-07
3.38298e-07
3.21873e-07
3.21879e-07
3.74573e-07
3.55107e-07
3.38277e-07
3.38301e-07
3.21856e-07
3.21881e-07
3.38297e-07
3.21856e-07
3.21879e-07
3.74577e-07
3.55113e-07
3.38283e-07
3.21858e-07
3.21862e-07
3.55122e-07
3.53699e-07
3.35391e-07
3.16658e-07
3.16664e-07
3.01762e-07
3.01767e-07
3.53701e-07
3.35392e-07
3.1664e-07
3.16666e-07
3.01743e-07
3.01769e-07
3.16663e-07
3.01743e-07
3.01767e-07
3.53706e-07
3.35398e-07
3.16646e-07
3.01746e-07
3.01748e-07
3.35406e-07
3.34138e-07
3.17527e-07
2.97043e-07
2.97048e-07
2.83622e-07
2.83626e-07
3.3414e-07
3.17531e-07
2.97024e-07
2.9705e-07
2.83601e-07
2.83629e-07
2.97048e-07
2.83602e-07
2.83627e-07
3.34144e-07
3.17535e-07
2.9703e-07
2.83605e-07
2.83606e-07
3.17545e-07
3.16474e-07
3.0197e-07
2.79393e-07
2.79397e-07
2.67441e-07
2.67445e-07
3.16477e-07
3.01974e-07
2.79372e-07
2.79399e-07
2.67418e-07
2.67447e-07
2.79398e-07
2.6742e-07
2.67445e-07
3.1648e-07
3.01977e-07
2.79377e-07
2.67422e-07
2.67423e-07
3.0199e-07
3.01152e-07
2.89036e-07
2.63703e-07
2.63707e-07
2.53226e-07
2.5323e-07
3.01156e-07
2.89038e-07
2.6368e-07
2.63708e-07
2.53201e-07
2.53231e-07
2.63707e-07
2.53204e-07
2.5323e-07
3.01157e-07
2.89042e-07
2.63685e-07
2.53206e-07
2.53207e-07
2.89056e-07
2.88482e-07
2.78947e-07
2.4998e-07
2.49984e-07
2.40979e-07
2.40984e-07
2.88487e-07
2.78946e-07
2.49956e-07
2.49985e-07
2.40953e-07
2.40985e-07
2.49985e-07
2.40956e-07
2.40984e-07
2.88488e-07
2.78954e-07
2.49961e-07
2.40958e-07
2.4096e-07
2.78966e-07
2.78684e-07
2.71822e-07
2.38226e-07
2.38231e-07
2.307e-07
2.30705e-07
2.78687e-07
2.71823e-07
2.382e-07
2.38232e-07
2.30673e-07
2.30706e-07
2.3823e-07
2.30675e-07
2.30704e-07
2.7869e-07
2.71829e-07
2.38205e-07
2.30677e-07
2.30677e-07
2.71838e-07
2.71863e-07
2.67852e-07
2.28441e-07
2.28446e-07
2.22395e-07
2.22402e-07
2.71864e-07
2.67859e-07
2.28413e-07
2.28447e-07
2.22367e-07
2.22403e-07
2.28445e-07
2.22371e-07
2.22401e-07
2.71867e-07
2.67859e-07
2.28418e-07
2.2237e-07
2.22372e-07
2.67877e-07
2.68144e-07
2.66975e-07
2.20634e-07
2.2064e-07
2.16076e-07
2.16083e-07
2.68153e-07
2.66976e-07
2.20603e-07
2.20641e-07
2.16045e-07
2.16086e-07
2.20639e-07
2.16047e-07
2.16082e-07
2.6815e-07
2.66984e-07
2.2061e-07
2.16049e-07
2.16051e-07
2.67e-07
2.67627e-07
2.69129e-07
2.14812e-07
2.14819e-07
2.1174e-07
2.11754e-07
2.67628e-07
2.6914e-07
2.14779e-07
2.14821e-07
2.11705e-07
2.11753e-07
2.14816e-07
2.1171e-07
2.11745e-07
2.67635e-07
2.69139e-07
2.14785e-07
2.11708e-07
2.11713e-07
2.6916e-07
2.70451e-07
2.74618e-07
2.10977e-07
2.1099e-07
2.09404e-07
2.09421e-07
2.70469e-07
2.7462e-07
2.10944e-07
2.10991e-07
2.09373e-07
2.09422e-07
2.10983e-07
2.09368e-07
2.09416e-07
2.7046e-07
2.74626e-07
2.1095e-07
2.09369e-07
2.0938e-07
2.74654e-07
2.7664e-07
2.83504e-07
2.09144e-07
2.09161e-07
2.09119e-07
2.0914e-07
2.76639e-07
2.83516e-07
2.09113e-07
2.09163e-07
2.09084e-07
2.09144e-07
2.09156e-07
2.09083e-07
2.09131e-07
2.76644e-07
2.83524e-07
2.0912e-07
2.09087e-07
2.09093e-07
2.83521e-07
2.86242e-07
2.95799e-07
2.0935e-07
2.09372e-07
2.10852e-07
2.10872e-07
2.86251e-07
2.9582e-07
2.09314e-07
2.09376e-07
2.1081e-07
2.10875e-07
2.09361e-07
2.10803e-07
2.10861e-07
2.86253e-07
2.95809e-07
2.09324e-07
2.108e-07
2.10824e-07
2.95865e-07
2.99198e-07
3.11467e-07
2.11614e-07
2.11637e-07
2.14653e-07
2.14692e-07
2.99223e-07
3.11493e-07
2.11569e-07
2.11639e-07
2.14618e-07
2.14693e-07
2.11621e-07
2.14616e-07
2.14669e-07
2.99206e-07
3.11492e-07
2.11582e-07
2.1461e-07
2.14627e-07
3.11508e-07
3.15573e-07
3.30611e-07
2.15938e-07
2.15984e-07
2.20588e-07
2.2062e-07
3.15601e-07
3.30589e-07
2.15904e-07
2.15982e-07
2.20548e-07
2.20628e-07
2.15958e-07
2.20533e-07
2.20615e-07
3.15597e-07
3.30621e-07
2.15914e-07
2.20541e-07
2.20565e-07
3.30686e-07
3.35423e-07
2.22417e-07
2.22445e-07
3.3541e-07
2.22366e-07
2.22455e-07
2.22446e-07
3.35435e-07
2.22395e-07
5.35663e-07
5.35601e-07
5.35655e-07
5.35655e-07
5.34573e-07
5.35516e-07
5.33634e-07
5.35654e-07
5.34573e-07
5.35517e-07
5.35654e-07
5.33634e-07
5.35256e-07
5.35987e-07
5.35987e-07
1.10717e-06
3.88068e-06
9.33918e-07
4.60585e-06
1.26086e-05
1.66015e-05
1.10712e-06
3.88121e-06
9.33932e-07
4.60638e-06
4.95567e-07
4.95567e-07
4.95567e-07
4.57231e-07
4.57231e-07
4.57232e-07
4.57232e-07
5.43136e-07
1.22024e-06
4.95565e-07
4.85523e-07
5.25345e-07
1.20948e-06
4.82301e-07
1.26098e-05
1.6603e-05
5.43156e-07
4.95565e-07
1.22026e-06
4.85523e-07
5.25333e-07
4.82301e-07
1.2095e-06
2.52183e-06
2.52237e-06
4.84192e-07
2.37257e-06
2.37281e-06
1.43088e-06
5.59293e-06
1.32969e-06
6.13609e-06
2.12849e-05
2.31113e-05
1.43097e-06
5.59371e-06
1.3298e-06
6.1369e-06
4.45573e-07
4.45573e-07
4.45573e-07
4.13542e-07
4.13542e-07
4.13543e-07
4.13543e-07
5.87084e-07
1.1948e-06
4.46434e-07
4.44293e-07
5.73801e-07
1.20438e-06
4.3569e-07
2.1287e-05
2.31128e-05
5.87096e-07
4.46435e-07
1.19483e-06
4.44294e-07
5.73811e-07
4.35691e-07
1.20436e-06
2.31179e-06
2.31223e-06
4.53491e-07
2.35337e-06
2.3538e-06
1.66329e-06
6.91754e-06
1.59568e-06
7.3199e-06
2.46415e-05
2.49381e-05
1.6634e-06
6.91855e-06
1.59579e-06
7.32096e-06
4.03752e-07
4.03753e-07
4.03753e-07
3.76689e-07
3.76689e-07
3.7669e-07
3.76691e-07
6.15578e-07
1.24281e-06
4.06547e-07
4.10619e-07
6.08376e-07
1.26565e-06
3.97729e-07
2.46435e-05
2.49401e-05
6.15587e-07
4.06548e-07
1.24282e-06
4.10622e-07
6.08396e-07
3.9773e-07
1.26564e-06
2.47404e-06
2.47447e-06
4.30186e-07
2.53276e-06
2.53321e-06
1.81238e-06
7.8459e-06
1.77224e-06
8.09877e-06
2.47379e-05
2.44314e-05
1.81248e-06
7.84705e-06
1.77235e-06
8.10042e-06
3.68363e-07
3.68364e-07
3.68365e-07
3.45192e-07
3.45192e-07
3.45194e-07
3.45194e-07
6.26306e-07
1.31313e-06
3.73479e-07
3.81658e-07
6.2488e-07
1.33377e-06
3.66029e-07
2.47394e-05
2.44328e-05
6.26311e-07
3.7348e-07
1.31314e-06
3.81661e-07
6.24899e-07
3.66031e-07
1.33376e-06
2.63529e-06
2.63577e-06
4.08477e-07
2.67937e-06
2.67988e-06
1.89289e-06
8.39591e-06
1.8731e-06
8.52846e-06
2.36936e-05
2.32661e-05
1.89299e-06
8.39666e-06
1.87321e-06
8.53088e-06
3.38015e-07
3.38016e-07
3.38017e-07
3.17911e-07
3.17912e-07
3.17914e-07
3.17914e-07
6.22126e-07
1.3721e-06
3.4524e-07
3.55924e-07
6.25449e-07
1.38718e-06
3.38765e-07
2.36949e-05
2.3267e-05
6.22128e-07
3.45241e-07
1.37211e-06
3.55927e-07
6.25463e-07
3.38767e-07
1.38718e-06
2.76348e-06
2.76407e-06
3.86843e-07
2.80541e-06
2.80597e-06
1.92993e-06
8.66504e-06
1.92173e-06
8.71838e-06
2.25024e-05
2.2121e-05
1.93004e-06
8.66456e-06
1.92183e-06
8.72043e-06
3.11646e-07
3.11648e-07
3.11648e-07
2.94e-07
2.94001e-07
2.94003e-07
2.94003e-07
6.08904e-07
1.41604e-06
3.20492e-07
3.32671e-07
6.15381e-07
1.4276e-06
3.14746e-07
2.25039e-05
2.21221e-05
6.08905e-07
3.20494e-07
1.41603e-06
3.32673e-07
6.15396e-07
3.14747e-07
1.42759e-06
2.89503e-06
2.89569e-06
3.65494e-07
2.94375e-06
2.9444e-06
1.94793e-06
8.7613e-06
1.94359e-06
8.77014e-06
2.14778e-05
2.11791e-05
1.94806e-06
8.76082e-06
1.94368e-06
8.77211e-06
2.88473e-07
2.88475e-07
2.88475e-07
2.72838e-07
2.7284e-07
2.72841e-07
2.72842e-07
5.9188e-07
1.45276e-06
2.9841e-07
3.11551e-07
5.9937e-07
1.46408e-06
2.93243e-07
2.14791e-05
2.11803e-05
5.91882e-07
2.98412e-07
1.45274e-06
3.11553e-07
5.99386e-07
2.93245e-07
1.46406e-06
3.04819e-06
3.04907e-06
3.45066e-07
3.107e-06
3.10772e-06
1.96564e-06
8.76929e-06
1.95956e-06
8.76333e-06
2.06747e-05
2.04536e-05
1.96575e-06
8.76978e-06
1.95963e-06
8.76471e-06
2.67923e-07
2.67925e-07
2.67925e-07
2.53976e-07
2.53977e-07
2.53978e-07
2.53979e-07
5.75464e-07
1.49167e-06
2.78501e-07
2.92428e-07
5.82274e-07
1.50554e-06
2.73826e-07
2.06758e-05
2.04547e-05
5.75469e-07
2.78502e-07
1.49167e-06
2.9243e-07
5.8229e-07
2.73827e-07
1.50552e-06
3.22473e-06
3.22571e-06
3.26212e-07
3.29249e-06
3.29362e-06
1.99559e-06
8.74967e-06
1.98438e-06
8.74327e-06
2.00726e-05
1.99112e-05
1.9957e-06
8.75067e-06
1.98439e-06
8.74429e-06
2.4958e-07
2.49581e-07
2.49582e-07
2.37082e-07
2.37083e-07
2.37084e-07
2.37085e-07
5.62913e-07
1.53979e-06
2.60474e-07
2.75266e-07
5.6783e-07
1.55774e-06
2.5624e-07
2.00736e-05
1.99119e-05
5.6292e-07
2.60476e-07
1.53975e-06
2.75269e-07
5.67846e-07
2.56242e-07
1.55777e-06
3.42074e-06
3.42183e-06
3.09457e-07
3.49335e-06
3.49454e-06
2.04522e-06
8.73407e-06
2.02681e-06
8.73164e-06
1.96328e-05
1.9517e-05
2.04541e-06
8.73442e-06
2.02675e-06
8.73288e-06
2.33137e-07
2.33138e-07
2.33139e-07
2.21911e-07
2.21912e-07
2.21913e-07
2.21914e-07
5.56502e-07
1.60091e-06
2.44157e-07
2.60066e-07
5.58639e-07
1.62371e-06
2.40331e-07
1.96335e-05
1.95178e-05
5.56514e-07
2.44159e-07
1.60093e-06
2.60068e-07
5.58657e-07
2.40333e-07
1.62371e-06
3.62754e-06
3.6288e-06
2.95179e-07
3.70147e-06
3.70262e-06
2.11891e-06
8.73113e-06
2.09197e-06
8.73404e-06
1.93179e-05
1.92366e-05
2.11904e-06
8.73223e-06
2.09212e-06
8.73582e-06
2.18366e-07
2.18367e-07
2.18368e-07
2.08275e-07
2.08277e-07
2.08278e-07
2.08279e-07
5.57616e-07
1.67638e-06
2.29438e-07
2.46834e-07
5.56728e-07
1.70385e-06
2.25998e-07
1.93186e-05
1.92377e-05
5.57622e-07
2.2944e-07
1.67643e-06
2.46836e-07
5.56753e-07
2.26e-07
1.70389e-06
3.83642e-06
3.83779e-06
2.83648e-07
3.9092e-06
3.90998e-06
2.21888e-06
8.74118e-06
2.18256e-06
8.74734e-06
1.90965e-05
1.9041e-05
2.21874e-06
8.74221e-06
2.18292e-06
8.74856e-06
2.0509e-07
2.05092e-07
2.05092e-07
1.96029e-07
1.9603e-07
1.96032e-07
1.96032e-07
5.66968e-07
1.76537e-06
2.16237e-07
2.35569e-07
5.63093e-07
1.79686e-06
2.13167e-07
1.90975e-05
1.90416e-05
5.66954e-07
2.16239e-07
1.76547e-06
2.35571e-07
5.63128e-07
2.13168e-07
1.79683e-06
4.03951e-06
4.04022e-06
2.75016e-07
4.10793e-06
4.10935e-06
2.34522e-06
8.75888e-06
2.29888e-06
8.76745e-06
1.89428e-05
1.89045e-05
2.34489e-06
8.75954e-06
2.29897e-06
8.76926e-06
1.93172e-07
1.93173e-07
1.93174e-07
1.85052e-07
1.85054e-07
1.85055e-07
1.85056e-07
5.85865e-07
1.86571e-06
2.04494e-07
2.26275e-07
5.78771e-07
1.90035e-06
2.0178e-07
1.89438e-05
1.89053e-05
5.8595e-07
2.04496e-07
1.86573e-06
2.26277e-07
5.78717e-07
2.01781e-07
1.9004e-06
4.22858e-06
4.22956e-06
2.69473e-07
4.29546e-06
4.29782e-06
2.4911e-06
8.77993e-06
2.4398e-06
8.78952e-06
1.88355e-05
1.88079e-05
2.48999e-06
8.78137e-06
2.44051e-06
8.78997e-06
1.82498e-07
1.825e-07
1.825e-07
1.75252e-07
1.75254e-07
1.75255e-07
1.75256e-07
6.1495e-07
1.97453e-06
1.94158e-07
2.1896e-07
6.0434e-07
2.01152e-06
1.91787e-07
1.8836e-05
1.88092e-05
6.14838e-07
1.94159e-07
1.9747e-06
2.18962e-07
6.04513e-07
1.91788e-07
2.01142e-06
4.40362e-06
4.40542e-06
2.67064e-07
4.46334e-06
4.46513e-06
2.65868e-06
8.79962e-06
2.59452e-06
8.80967e-06
1.8757e-05
1.87378e-05
2.65959e-06
8.80106e-06
2.59424e-06
8.81033e-06
1.72979e-07
1.72981e-07
1.72982e-07
1.6655e-07
1.66552e-07
1.66553e-07
1.66553e-07
6.54318e-07
2.08876e-06
1.85183e-07
2.13628e-07
6.40367e-07
2.12669e-06
1.83147e-07
1.87583e-05
1.87384e-05
6.54425e-07
1.85185e-07
2.08888e-06
2.1363e-07
6.40299e-07
1.83147e-07
2.1267e-06
4.55852e-06
4.56027e-06
2.67674e-07
4.60951e-06
4.61105e-06
2.82936e-06
8.82025e-06
2.77014e-06
8.82583e-06
1.8698e-05
1.86817e-05
2.82717e-06
8.82205e-06
2.77238e-06
8.82767e-06
1.64541e-07
1.64543e-07
1.64543e-07
1.5888e-07
1.58882e-07
1.58884e-07
1.58884e-07
7.04194e-07
2.20471e-06
1.77537e-07
2.10289e-07
6.86617e-07
2.24257e-06
1.75823e-07
1.86984e-05
1.8683e-05
7.04037e-07
1.77537e-07
2.20485e-06
2.10287e-07
6.86844e-07
1.75824e-07
2.24249e-06
4.69127e-06
4.69298e-06
2.71491e-07
4.7343e-06
4.73601e-06
3.00758e-06
8.83776e-06
2.94184e-06
8.84342e-06
1.86495e-05
1.86352e-05
3.01112e-06
8.83808e-06
2.93922e-06
8.84595e-06
1.57121e-07
1.57124e-07
1.57124e-07
1.52191e-07
1.52193e-07
1.52195e-07
1.52196e-07
7.63737e-07
2.31905e-06
1.71186e-07
2.08958e-07
7.4315e-07
2.35592e-06
1.69798e-07
1.86504e-05
1.86365e-05
7.63846e-07
1.71189e-07
2.31924e-06
2.08962e-07
7.43032e-07
1.698e-07
2.35602e-06
4.80351e-06
4.80518e-06
2.7865e-07
4.84069e-06
4.8421e-06
3.17653e-06
8.85333e-06
3.11497e-06
8.85883e-06
1.86064e-05
1.85946e-05
3.17631e-06
8.85356e-06
3.1163e-06
8.86181e-06
1.50671e-07
1.50672e-07
1.50673e-07
1.46434e-07
1.46436e-07
1.46437e-07
1.46438e-07
8.32217e-07
2.42974e-06
1.66125e-07
2.09678e-07
8.0893e-07
2.46445e-06
1.6505e-07
1.86066e-05
1.85959e-05
8.32205e-07
1.66125e-07
2.42998e-06
2.09678e-07
8.0891e-07
1.65051e-07
2.46435e-06
4.89693e-06
4.89868e-06
2.89294e-07
4.92762e-06
4.929e-06
3.33425e-06
8.86915e-06
3.27427e-06
8.87306e-06
1.85679e-05
1.85561e-05
3.33273e-06
8.86804e-06
3.27573e-06
8.87578e-06
1.45138e-07
1.45138e-07
1.4514e-07
1.41567e-07
1.41571e-07
1.41572e-07
1.41572e-07
9.07871e-07
2.53358e-06
1.6233e-07
2.12446e-07
8.82282e-07
2.56601e-06
1.61569e-07
1.85688e-05
1.85574e-05
9.07851e-07
1.62327e-07
2.53366e-06
2.12441e-07
8.82376e-07
1.61568e-07
2.56587e-06
4.97418e-06
4.97616e-06
3.03244e-07
4.99841e-06
4.99988e-06
3.46832e-06
8.88156e-06
3.42059e-06
8.8872e-06
1.85307e-05
1.85216e-05
3.4681e-06
8.88268e-06
3.42201e-06
8.88961e-06
1.40491e-07
1.40491e-07
1.40492e-07
1.37568e-07
1.37571e-07
1.37574e-07
1.37576e-07
9.88989e-07
2.62998e-06
1.59809e-07
2.17307e-07
9.61881e-07
2.65917e-06
1.59361e-07
1.85322e-05
1.85216e-05
9.88781e-07
1.59808e-07
2.62998e-06
2.17312e-07
9.62113e-07
1.59366e-07
2.65927e-06
5.03752e-06
5.03937e-06
3.20659e-07
5.05635e-06
5.05782e-06
3.58546e-06
8.89726e-06
3.54664e-06
8.90041e-06
1.84971e-05
1.8489e-05
3.58627e-06
8.89652e-06
3.54526e-06
8.90352e-06
1.36704e-07
1.36706e-07
1.36706e-07
1.07366e-06
2.71737e-06
1.58573e-07
2.24309e-07
1.04552e-06
2.74383e-06
1.58442e-07
1.84991e-05
1.84896e-05
1.0734e-06
1.58579e-07
2.71756e-06
2.24322e-07
1.04558e-06
1.58448e-07
2.74406e-06
5.0884e-06
5.08964e-06
3.41649e-07
5.10457e-06
5.10674e-06
5.35257e-07
5.35989e-07
5.35987e-07
1.09158e-05
5.81316e-07
1.09173e-05
5.81318e-07
5.28206e-07
2.43163e-06
2.43198e-06
5.40832e-07
5.40828e-07
5.34573e-07
5.35517e-07
5.33634e-07
5.35654e-07
5.34573e-07
5.35517e-07
5.33634e-07
5.35654e-07
5.30398e-07
3.47218e-06
5.68205e-07
8.21168e-07
5.30398e-07
3.47235e-06
5.68203e-07
8.21202e-07
5.29522e-07
5.2838e-07
1.16695e-06
5.09601e-07
5.32663e-07
5.28352e-07
5.19213e-07
5.29522e-07
5.2838e-07
1.16695e-06
5.09601e-07
5.32663e-07
5.28352e-07
5.19213e-07
5.35256e-07
5.35988e-07
5.35987e-07
1.09166e-05
5.81317e-07
5.28206e-07
2.43181e-06
2.43194e-06
5.40829e-07
5.4083e-07
1.09169e-05
5.81323e-07
5.34573e-07
5.35517e-07
5.33634e-07
5.35654e-07
5.34573e-07
5.35517e-07
5.35654e-07
5.33634e-07
5.30398e-07
3.47254e-06
5.68202e-07
8.21176e-07
5.29522e-07
5.2838e-07
1.16721e-06
5.09601e-07
5.32663e-07
5.28352e-07
5.19218e-07
5.30398e-07
3.47256e-06
5.68202e-07
8.211e-07
5.29522e-07
5.2838e-07
5.09601e-07
1.16708e-06
5.28352e-07
5.32663e-07
5.19212e-07
5.35663e-07
5.35601e-07
5.35655e-07
5.35655e-07
5.35663e-07
5.35601e-07
5.35655e-07
5.35655e-07
5.35663e-07
5.35601e-07
5.35655e-07
5.35655e-07
5.28434e-07
5.28376e-07
5.09725e-07
5.09725e-07
5.28408e-07
5.28408e-07
5.09782e-07
5.28434e-07
5.28375e-07
5.09725e-07
5.09725e-07
5.28408e-07
5.28408e-07
5.09782e-07
5.28434e-07
5.28375e-07
5.09725e-07
5.09725e-07
5.28408e-07
5.28408e-07
5.09782e-07
5.28434e-07
5.28375e-07
5.09725e-07
5.09725e-07
5.28408e-07
5.28408e-07
5.09782e-07
5.34573e-07
5.35517e-07
5.35654e-07
5.33634e-07
5.29522e-07
5.2838e-07
1.16707e-06
5.09601e-07
5.32663e-07
5.28352e-07
5.19215e-07
5.30398e-07
3.47243e-06
5.68202e-07
8.21093e-07
5.29522e-07
5.2838e-07
5.09601e-07
1.16704e-06
5.28352e-07
5.32663e-07
5.1921e-07
5.30398e-07
3.4725e-06
5.68201e-07
8.21096e-07
5.35256e-07
5.35987e-07
5.35987e-07
1.09175e-05
5.81323e-07
5.28206e-07
2.432e-06
2.43189e-06
5.40828e-07
5.40829e-07
1.0917e-05
5.81319e-07
5.34573e-07
5.35517e-07
5.35655e-07
5.33633e-07
5.29522e-07
5.2838e-07
5.09601e-07
1.16715e-06
5.28352e-07
5.32663e-07
5.19219e-07
5.29522e-07
5.2838e-07
5.09601e-07
1.1671e-06
5.28352e-07
5.32663e-07
5.19218e-07
5.30398e-07
3.4724e-06
5.68201e-07
8.21224e-07
5.30398e-07
3.47263e-06
5.68202e-07
8.21177e-07
5.28206e-07
2.4318e-06
2.43216e-06
5.40828e-07
5.40828e-07
1.09172e-05
5.81321e-07
1.09176e-05
5.81324e-07
1.26074e-05
1.65997e-05
1.26095e-05
1.66023e-05
2.52169e-06
2.52236e-06
4.84188e-07
2.37225e-06
2.37293e-06
2.05291e-05
1.76841e-05
2.05327e-05
1.76878e-05
4.793e-07
2.30596e-06
2.30667e-06
2.33909e-06
2.33979e-06
1.10722e-06
3.8811e-06
9.33767e-07
4.60646e-06
5.43132e-07
1.22015e-06
4.95565e-07
4.85525e-07
5.2535e-07
1.20941e-06
4.82301e-07
5.43135e-07
1.22028e-06
4.95565e-07
4.85531e-07
5.25345e-07
1.20959e-06
4.82302e-07
1.16096e-06
5.40781e-06
4.80985e-06
1.28044e-06
1.16095e-06
5.40849e-06
4.81068e-06
1.28059e-06
5.50996e-07
4.74299e-07
1.1932e-06
4.57763e-07
1.20471e-06
4.6971e-07
5.66389e-07
5.50998e-07
4.74307e-07
1.19339e-06
4.57764e-07
1.20489e-06
4.69711e-07
5.664e-07
2.52216e-06
2.52212e-06
4.84189e-07
2.37256e-06
2.37268e-06
1.2609e-05
1.66011e-05
2.05317e-05
1.7687e-05
4.793e-07
2.30646e-06
2.30626e-06
2.33962e-06
2.33916e-06
2.05306e-05
1.76861e-05
5.43148e-07
1.22042e-06
4.95565e-07
4.8553e-07
5.25352e-07
1.20967e-06
4.82302e-07
1.10722e-06
3.88145e-06
9.33827e-07
4.60667e-06
5.43143e-07
4.95565e-07
1.22036e-06
4.85533e-07
5.25343e-07
4.82302e-07
1.20965e-06
1.16122e-06
5.40852e-06
4.81057e-06
1.28052e-06
5.51005e-07
4.74304e-07
1.19342e-06
4.57763e-07
1.20496e-06
4.6971e-07
5.66407e-07
1.1611e-06
5.40896e-06
4.81111e-06
1.28047e-06
5.51008e-07
4.74307e-07
4.57764e-07
1.19343e-06
4.69711e-07
1.20496e-06
5.66407e-07
1.1071e-06
3.88108e-06
9.33969e-07
4.60609e-06
5.4313e-07
4.95565e-07
1.22027e-06
4.85526e-07
5.25338e-07
4.82302e-07
1.20954e-06
1.10712e-06
3.88109e-06
9.33781e-07
4.60666e-06
5.51002e-07
4.74297e-07
1.19323e-06
4.57762e-07
1.20469e-06
4.6971e-07
5.66402e-07
1.16121e-06
5.40811e-06
4.81033e-06
1.28051e-06
5.51001e-07
4.74301e-07
4.57763e-07
1.19328e-06
4.69711e-07
1.20473e-06
5.664e-07
1.16109e-06
5.40872e-06
4.81055e-06
1.2805e-06
2.52222e-06
2.52185e-06
4.8419e-07
2.37277e-06
2.37242e-06
1.26089e-05
1.6601e-05
2.05338e-05
1.76884e-05
4.79301e-07
2.30677e-06
2.30633e-06
2.33996e-06
2.33945e-06
2.05315e-05
1.76862e-05
5.43151e-07
4.95565e-07
1.22039e-06
4.8553e-07
5.25336e-07
4.82302e-07
1.20962e-06
1.10725e-06
3.88104e-06
9.3383e-07
4.606e-06
1.1073e-06
3.88134e-06
9.33825e-07
4.60688e-06
5.50997e-07
4.74298e-07
4.57763e-07
1.19326e-06
4.69711e-07
1.20478e-06
5.66412e-07
5.51013e-07
4.74305e-07
4.57763e-07
1.19342e-06
4.69711e-07
1.20493e-06
5.66419e-07
1.16109e-06
5.40823e-06
4.81028e-06
1.28067e-06
1.16108e-06
5.40909e-06
4.81099e-06
1.2806e-06
1.26091e-05
1.66018e-05
1.26098e-05
1.6603e-05
4.79301e-07
2.30629e-06
2.30668e-06
2.33925e-06
2.33992e-06
2.05318e-05
1.76867e-05
2.05335e-05
1.76886e-05
2.12817e-05
2.31081e-05
2.12859e-05
2.3112e-05
2.31147e-06
2.31223e-06
4.53481e-07
2.35293e-06
2.35357e-06
2.44698e-05
2.35329e-05
2.44736e-05
2.35372e-05
4.50881e-07
2.44242e-06
2.44311e-06
2.38112e-06
2.38175e-06
1.43112e-06
5.59381e-06
1.32963e-06
6.13689e-06
5.87075e-07
1.1948e-06
4.46434e-07
4.44297e-07
5.73791e-07
1.20432e-06
4.35691e-07
5.87086e-07
1.19496e-06
4.46435e-07
4.44306e-07
5.73802e-07
1.20455e-06
4.35692e-07
1.47472e-06
6.7778e-06
6.30058e-06
1.55783e-06
1.47459e-06
6.77864e-06
6.30156e-06
1.55783e-06
5.93316e-07
4.35314e-07
1.23129e-06
4.15788e-07
1.21238e-06
4.25488e-07
6.0361e-07
5.93327e-07
4.35323e-07
1.23149e-06
4.15789e-07
1.21256e-06
4.25491e-07
6.0362e-07
2.312e-06
2.31176e-06
4.53483e-07
2.35361e-06
2.35329e-06
2.12837e-05
2.31101e-05
2.44726e-05
2.35365e-05
4.50883e-07
2.44307e-06
2.44258e-06
2.38167e-06
2.38123e-06
2.44713e-05
2.35353e-05
5.87094e-07
1.19497e-06
4.46435e-07
4.443e-07
5.73814e-07
1.20452e-06
4.35691e-07
1.43068e-06
5.59429e-06
1.32983e-06
6.13739e-06
5.87104e-07
4.46436e-07
1.195e-06
4.44308e-07
5.73819e-07
4.35693e-07
1.20454e-06
1.47483e-06
6.77878e-06
6.30156e-06
1.55793e-06
5.93341e-07
4.35317e-07
1.23146e-06
4.15789e-07
1.21254e-06
4.2549e-07
6.03631e-07
1.47518e-06
6.7792e-06
6.30208e-06
1.55774e-06
5.9335e-07
4.35326e-07
4.1579e-07
1.23147e-06
4.25492e-07
1.21261e-06
6.03635e-07
1.43095e-06
5.5934e-06
1.32978e-06
6.13653e-06
5.87091e-07
4.46435e-07
1.19485e-06
4.44301e-07
5.73806e-07
4.35692e-07
1.20443e-06
1.43097e-06
5.5938e-06
1.32976e-06
6.13708e-06
5.9333e-07
4.35309e-07
1.2313e-06
4.15787e-07
1.21237e-06
4.25489e-07
6.03621e-07
1.4748e-06
6.77829e-06
6.30117e-06
1.55791e-06
5.93334e-07
4.35318e-07
4.15789e-07
1.23135e-06
4.2549e-07
1.21242e-06
6.03628e-07
1.47481e-06
6.77881e-06
6.30171e-06
1.55793e-06
2.3123e-06
2.31185e-06
4.53486e-07
2.35372e-06
2.35318e-06
2.12845e-05
2.31107e-05
2.44743e-05
2.35388e-05
4.50885e-07
2.44316e-06
2.44265e-06
2.38207e-06
2.38132e-06
2.44724e-05
2.35359e-05
5.87107e-07
4.46436e-07
1.19498e-06
4.44303e-07
5.7382e-07
4.35692e-07
1.20457e-06
1.43101e-06
5.59346e-06
1.32967e-06
6.13656e-06
1.43092e-06
5.59425e-06
1.32972e-06
6.13754e-06
5.93341e-07
4.35311e-07
4.15788e-07
1.23131e-06
4.2549e-07
1.2124e-06
6.03633e-07
5.9335e-07
4.35319e-07
4.1579e-07
1.2315e-06
4.25491e-07
1.21256e-06
6.03645e-07
1.47485e-06
6.77857e-06
6.30134e-06
1.55796e-06
1.47491e-06
6.77934e-06
6.3022e-06
1.558e-06
2.12848e-05
2.31115e-05
2.12868e-05
2.31134e-05
4.50886e-07
2.44278e-06
2.4432e-06
2.3814e-06
2.38181e-06
2.44727e-05
2.35366e-05
2.44746e-05
2.35386e-05
2.46383e-05
2.49352e-05
2.46424e-05
2.49388e-05
2.47375e-06
2.47437e-06
4.30172e-07
2.5324e-06
2.53309e-06
2.48368e-05
2.49371e-05
2.48401e-05
2.49406e-05
4.28472e-07
2.6108e-06
2.61148e-06
2.56058e-06
2.56119e-06
1.66331e-06
6.91845e-06
1.59569e-06
7.32075e-06
6.1556e-07
1.24282e-06
4.06546e-07
4.10627e-07
6.0837e-07
1.26564e-06
3.9773e-07
6.15567e-07
1.24301e-06
4.06549e-07
4.10636e-07
6.08381e-07
1.26586e-06
3.97732e-07
1.69453e-06
7.75876e-06
7.43307e-06
1.74777e-06
1.69455e-06
7.75966e-06
7.434e-06
1.74779e-06
6.18835e-07
4.03021e-07
1.30099e-06
3.81228e-07
1.27825e-06
3.89299e-07
6.23017e-07
6.18842e-07
4.0303e-07
1.30122e-06
3.81229e-07
1.27846e-06
3.89302e-07
6.23022e-07
2.47436e-06
2.47383e-06
4.30172e-07
2.53315e-06
2.53252e-06
2.46402e-05
2.49367e-05
2.48396e-05
2.494e-05
4.28475e-07
2.6115e-06
2.6109e-06
2.56111e-06
2.56062e-06
2.48382e-05
2.49386e-05
6.15588e-07
1.24297e-06
4.06548e-07
4.10625e-07
6.08393e-07
1.26581e-06
3.97731e-07
1.66339e-06
6.91909e-06
1.59596e-06
7.3214e-06
6.15597e-07
4.0655e-07
1.24305e-06
4.10639e-07
6.084e-07
3.97733e-07
1.26585e-06
1.69464e-06
7.75999e-06
7.43412e-06
1.74788e-06
6.18862e-07
4.03018e-07
1.30116e-06
3.81229e-07
1.27841e-06
3.89302e-07
6.23045e-07
1.69474e-06
7.76037e-06
7.43474e-06
1.74784e-06
6.1886e-07
4.03033e-07
3.8123e-07
1.3012e-06
3.89304e-07
1.27846e-06
6.23052e-07
1.66337e-06
6.91809e-06
1.59574e-06
7.32037e-06
6.15583e-07
4.06548e-07
1.24286e-06
4.10632e-07
6.08382e-07
3.97731e-07
1.2657e-06
1.66338e-06
6.91862e-06
1.59576e-06
7.32089e-06
6.18841e-07
4.03012e-07
1.30101e-06
3.81227e-07
1.27825e-06
3.893e-07
6.23035e-07
1.6946e-06
7.75943e-06
7.43375e-06
1.74785e-06
6.18844e-07
4.03026e-07
3.81229e-07
1.30105e-06
3.89302e-07
1.27831e-06
6.23039e-07
1.69461e-06
7.75976e-06
7.43418e-06
1.74786e-06
2.47471e-06
2.47393e-06
4.30178e-07
2.53331e-06
2.53262e-06
2.46411e-05
2.49377e-05
2.48413e-05
2.49419e-05
4.28478e-07
2.6117e-06
2.61099e-06
2.56142e-06
2.56073e-06
2.48391e-05
2.49396e-05
6.15594e-07
4.0655e-07
1.24301e-06
4.10629e-07
6.08404e-07
3.97732e-07
1.26586e-06
1.66341e-06
6.91833e-06
1.5958e-06
7.3207e-06
1.66344e-06
6.91918e-06
1.59584e-06
7.32146e-06
6.1886e-07
4.03013e-07
3.81228e-07
1.301e-06
3.89301e-07
1.27826e-06
6.23043e-07
6.18869e-07
4.03022e-07
3.81229e-07
1.30122e-06
3.89304e-07
1.27846e-06
6.2305e-07
1.69464e-06
7.75961e-06
7.4339e-06
1.74788e-06
1.69467e-06
7.76037e-06
7.43476e-06
1.7479e-06
2.46415e-05
2.4938e-05
2.46434e-05
2.49398e-05
4.28482e-07
2.61114e-06
2.61162e-06
2.56086e-06
2.56132e-06
2.48394e-05
2.49399e-05
2.4841e-05
2.49416e-05
2.47345e-05
2.44297e-05
2.47381e-05
2.44318e-05
2.63501e-06
2.63563e-06
4.08461e-07
2.67908e-06
2.67973e-06
2.38695e-05
2.42701e-05
2.38712e-05
2.42734e-05
4.06871e-07
2.74213e-06
2.74281e-06
2.70095e-06
2.70152e-06
1.8124e-06
7.84685e-06
1.77227e-06
8.0999e-06
6.26284e-07
1.31313e-06
3.73478e-07
3.8167e-07
6.24874e-07
1.33375e-06
3.6603e-07
6.26289e-07
1.31334e-06
3.73481e-07
3.81678e-07
6.24879e-07
1.33399e-06
3.66032e-07
1.83082e-06
8.35072e-06
8.16305e-06
1.85971e-06
1.83085e-06
8.35238e-06
8.16394e-06
1.85973e-06
6.26728e-07
3.74973e-07
1.3625e-06
3.51931e-07
1.34473e-06
3.58853e-07
6.25634e-07
6.26732e-07
3.74981e-07
1.36273e-06
3.51933e-07
1.34494e-06
3.58856e-07
6.25637e-07
2.63565e-06
2.63504e-06
4.08462e-07
2.67979e-06
2.67914e-06
2.47364e-05
2.44299e-05
2.38711e-05
2.42733e-05
4.06873e-07
2.74285e-06
2.7422e-06
2.70162e-06
2.70092e-06
2.38695e-05
2.42718e-05
6.26312e-07
1.31329e-06
3.73481e-07
3.81662e-07
6.24901e-07
1.33393e-06
3.66031e-07
1.81243e-06
7.84754e-06
1.77243e-06
8.10038e-06
6.2632e-07
3.73483e-07
1.31334e-06
3.81681e-07
6.24897e-07
3.66033e-07
1.33397e-06
1.83093e-06
8.35274e-06
8.16404e-06
1.85982e-06
6.26755e-07
3.74964e-07
1.36269e-06
3.51932e-07
1.34489e-06
3.58855e-07
6.25661e-07
1.831e-06
8.35223e-06
8.16456e-06
1.85975e-06
6.26753e-07
3.74984e-07
3.51934e-07
1.36271e-06
3.58858e-07
1.34494e-06
6.25668e-07
1.81245e-06
7.8467e-06
1.77231e-06
8.09998e-06
6.26308e-07
3.73481e-07
1.31319e-06
3.81675e-07
6.24881e-07
3.66031e-07
1.33382e-06
1.81246e-06
7.84711e-06
1.77232e-06
8.10014e-06
6.26739e-07
3.74961e-07
1.36252e-06
3.5193e-07
1.34471e-06
3.58854e-07
6.25659e-07
1.8309e-06
8.35238e-06
8.16347e-06
1.85979e-06
6.26739e-07
3.74979e-07
3.51932e-07
1.36257e-06
3.58856e-07
1.34478e-06
6.2566e-07
1.8309e-06
8.35281e-06
8.1643e-06
1.85979e-06
2.63585e-06
2.63514e-06
4.08468e-07
2.67994e-06
2.67922e-06
2.47371e-05
2.44311e-05
2.38721e-05
2.42747e-05
4.06877e-07
2.74301e-06
2.74227e-06
2.70175e-06
2.70101e-06
2.38706e-05
2.42724e-05
6.26316e-07
3.73483e-07
1.31335e-06
3.81667e-07
6.24905e-07
3.66032e-07
1.33399e-06
1.81248e-06
7.8469e-06
1.77235e-06
8.1001e-06
1.81249e-06
7.84765e-06
1.77237e-06
8.10058e-06
6.26753e-07
3.74963e-07
3.51932e-07
1.36252e-06
3.58855e-07
1.34473e-06
6.2566e-07
6.26758e-07
3.7497e-07
3.51933e-07
1.36275e-06
3.58858e-07
1.34495e-06
6.25664e-07
1.83093e-06
8.35289e-06
8.16418e-06
1.85981e-06
1.83094e-06
8.35304e-06
8.16486e-06
1.85982e-06
2.47375e-05
2.44313e-05
2.47391e-05
2.44327e-05
4.06884e-07
2.74242e-06
2.74297e-06
2.70117e-06
2.70169e-06
2.38709e-05
2.42729e-05
2.38721e-05
2.42744e-05
2.36906e-05
2.32648e-05
2.36937e-05
2.32661e-05
2.76337e-06
2.76386e-06
3.86827e-07
2.80509e-06
2.80583e-06
2.2672e-05
2.30845e-05
2.26731e-05
2.30873e-05
3.85283e-07
2.87154e-06
2.87226e-06
2.82695e-06
2.82761e-06
1.89291e-06
8.3965e-06
1.87314e-06
8.53071e-06
6.22103e-07
1.37213e-06
3.45239e-07
3.55939e-07
6.25438e-07
1.38716e-06
3.38766e-07
6.22105e-07
1.37233e-06
3.45242e-07
3.55946e-07
6.25443e-07
1.38741e-06
3.38768e-07
1.9023e-06
8.6466e-06
8.55852e-06
1.91521e-06
1.90234e-06
8.64887e-06
8.5583e-06
1.91523e-06
6.21488e-07
3.49912e-07
1.40848e-06
3.26405e-07
1.3956e-06
3.3249e-07