/*--------------------------------*- C++ -*----------------------------------*\
| =========                 |                                                 |
| \\      /  F ield         | OpenFOAM: The Open Source CFD Toolbox           |
|  \\    /   O peration     | Version:  v2006                                 |
|   \\  /    A nd           | Website:  www.openfoam.com                      |
|    \\/     M anipulation  |                                                 |
\*---------------------------------------------------------------------------*/
FoamFile
{
    version     2.0;
    format      ascii;
    class       surfaceScalarField;
    location    "1000";
    object      phi;
}
// * * * * * * * * * * * * * * * * * * * * * * * * * * * * * * * * * * * * * //

dimensions      [0 3 -1 0 0 0 0];
oriented        oriented;


internalField   nonuniform List<scalar> 
124908
(
-0.00104223
-1.45853e-05
-1.44545e-05
9.30208e-06
9.17292e-06
0.00105279
-0.00026145
-5.64161e-06
1.44815e-05
6.83424e-06
0.00105937
-4.53257e-06
-1.62224e-06
-2.21533e-06
-2.5781e-06
-6.5915e-06
-7.04684e-06
-3.1663e-06
-0.000263298
-0.000259722
-0.000262822
-0.00026145
-5.64168e-06
1.44963e-05
6.86599e-06
0.00105933
-4.53279e-06
-1.62737e-06
-2.21806e-06
-2.58063e-06
-6.59142e-06
-7.04688e-06
-3.16625e-06
-0.00025972
-0.000263298
-0.000262822
-0.000260559
5.61726e-06
5.65981e-06
-4.88073e-06
-4.8719e-06
0.000259035
-1.62176e-06
-1.62825e-06
-0.00106082
8.98315e-07
8.94091e-07
0.00106228
-0.0010626
-1.60653e-06
1.63333e-06
8.17945e-07
0.00106389
-6.53793e-07
7.84506e-07
-1.48123e-07
3.75337e-07
-8.03452e-07
-1.39758e-06
-2.90638e-07
-0.00106252
-1.60413e-06
1.63376e-06
8.2871e-07
0.0010638
-6.53988e-07
7.81634e-07
-1.48299e-07
3.72753e-07
-8.03394e-07
-1.39491e-06
-2.90558e-07
-0.000261521
1.63672e-06
1.59916e-06
-7.08222e-07
-7.16445e-07
0.000259709
-1.36145e-06
-1.36753e-06
-0.00106647
6.87334e-07
6.83182e-07
0.00106783
-0.00106783
-1.55708e-06
1.3674e-06
6.90441e-07
0.00106918
-6.24518e-07
8.38547e-07
-1.06562e-07
4.27062e-07
-7.80521e-07
-1.35736e-06
-2.42698e-07
-0.00106774
-1.55711e-06
1.36761e-06
6.9047e-07
0.00106909
-6.24498e-07
8.35822e-07
-1.04143e-07
4.24454e-07
-7.80449e-07
-1.35468e-06
-2.42625e-07
-0.00026275
1.58726e-06
1.54948e-06
-6.7493e-07
-6.80541e-07
0.000260969
-1.3414e-06
-1.34213e-06
-0.00107194
6.64331e-07
6.65455e-07
0.00107329
-0.00107319
-1.55551e-06
1.34199e-06
6.67292e-07
0.00107451
-6.17288e-07
8.63681e-07
-8.40827e-08
4.38256e-07
-7.79474e-07
-1.36937e-06
-2.20303e-07
-0.0010731
-1.55285e-06
1.3421e-06
6.67404e-07
0.00107441
-6.19905e-07
8.60996e-07
-8.16603e-08
4.38395e-07
-7.79477e-07
-1.36675e-06
-2.17686e-07
-0.000264031
1.58318e-06
1.54256e-06
-6.5944e-07
-6.70183e-07
0.000262235
-1.29625e-06
-1.29695e-06
-0.00107729
6.422e-07
6.43317e-07
0.00107859
-0.00107837
-1.5473e-06
1.29691e-06
6.34059e-07
0.00107963
-6.04625e-07
8.91661e-07
-5.85319e-08
4.5974e-07
-7.68271e-07
-1.3719e-06
-1.89125e-07
-0.00107828
-1.54471e-06
1.29686e-06
6.34154e-07
0.00107954
-6.0744e-07
8.88895e-07
-5.62184e-08
4.57633e-07
-7.68097e-07
-1.36883e-06
-1.8892e-07
-0.00026525
1.57513e-06
1.53426e-06
-6.42293e-07
-6.53114e-07
0.000263436
-1.24849e-06
-1.24916e-06
-0.00108244
6.20272e-07
6.21419e-07
0.0010837
-0.00108331
-1.53871e-06
1.24938e-06
6.04422e-07
0.0010845
-5.92033e-07
9.17223e-07
-3.62287e-08
4.83786e-07
-7.54174e-07
-1.36997e-06
-1.58651e-07
-0.00108321
-1.53618e-06
1.2492e-06
6.04427e-07
0.00108441
-5.94952e-07
9.14682e-07
-3.36529e-08
4.81223e-07
-7.53763e-07
-1.36611e-06
-1.58619e-07
-0.000266395
1.56707e-06
1.52599e-06
-6.25611e-07
-6.36501e-07
0.000264564
-1.20413e-06
-1.20492e-06
-0.00108739
6.00673e-07
6.01834e-07
0.0010886
-0.00108799
-1.5319e-06
1.20482e-06
5.80334e-07
0.00108913
-5.82064e-07
9.40094e-07
-1.73172e-08
5.09291e-07
-7.40334e-07
-1.36579e-06
-1.30689e-07
-0.0010879
-1.52955e-06
1.20504e-06
5.80611e-07
0.00108903
-5.85379e-07
9.37835e-07
-1.4661e-08
5.05474e-07
-7.40123e-07
-1.36257e-06
-1.30726e-07
-0.000267466
1.56074e-06
1.51956e-06
-6.11267e-07
-6.22099e-07
0.000265619
-1.16535e-06
-1.16668e-06
-0.00109215
5.84218e-07
5.85407e-07
0.00109331
-0.00109245
-1.52746e-06
1.16639e-06
5.62238e-07
0.00109352
-5.75619e-07
9.60203e-07
-2.44462e-09
5.33722e-07
-7.27949e-07
-1.36094e-06
-1.06045e-07
-0.00109235
-1.52531e-06
1.16671e-06
5.62591e-07
0.00109343
-5.79374e-07
9.58089e-07
-1.82671e-11
5.29824e-07
-7.2793e-07
-1.35871e-06
-1.05837e-07
-0.000268469
1.5564e-06
1.51496e-06
-5.98978e-07
-6.09893e-07
0.000266607
-1.13205e-06
-1.13349e-06
-0.00109674
5.70448e-07
5.71158e-07
0.00109787
-0.00109669
-1.52643e-06
1.13275e-06
5.48425e-07
0.00109772
-5.734e-07
9.7733e-07
1.51436e-08
5.57049e-07
-7.17202e-07
-1.35786e-06
-8.40167e-08
-0.00109659
-1.52452e-06
1.13344e-06
5.49297e-07
0.00109763
-5.77309e-07
9.74346e-07
1.64033e-08
5.52505e-07
-7.17412e-07
-1.35528e-06
-8.3922e-08
-0.00026941
1.55452e-06
1.51298e-06
-5.8964e-07
-6.00266e-07
0.000267532
-1.10364e-06
-1.10495e-06
-0.00110118
5.58766e-07
5.59484e-07
0.00110227
-0.00110074
-1.52731e-06
1.10457e-06
5.38129e-07
0.00110173
-5.72911e-07
9.92375e-07
2.79723e-08
5.78509e-07
-7.0784e-07
-1.35572e-06
-6.46845e-08
-0.00110065
-1.52479e-06
1.10485e-06
5.38834e-07
0.00110164
-5.74624e-07
9.88881e-07
2.90328e-08
5.73637e-07
-7.08334e-07
-1.35274e-06
-6.49175e-08
-0.000270292
1.55504e-06
1.51329e-06
-5.83385e-07
-5.94253e-07
0.000268402
-1.0786e-06
-1.07954e-06
-0.0011055
5.48816e-07
5.49475e-07
0.00110656
-0.00110463
-1.52868e-06
1.08017e-06
5.29297e-07
0.00110558
-5.7186e-07
1.00644e-06
3.91002e-08
5.97854e-07
-6.99046e-07
-1.35432e-06
-4.82054e-08
-0.00110454
-1.52561e-06
1.07973e-06
5.29771e-07
0.00110548
-5.72405e-07
1.00242e-06
4.13817e-08
5.93355e-07
-6.99335e-07
-1.34885e-06
-4.92858e-08
-0.000271119
1.55676e-06
1.5146e-06
-5.78651e-07
-5.89973e-07
0.000269217
-1.05513e-06
-1.05568e-06
-0.0011097
5.39227e-07
5.40107e-07
0.00111073
-0.00110836
-1.52997e-06
1.05726e-06
5.20797e-07
0.00110927
-5.68725e-07
1.01887e-06
5.0116e-08
6.13889e-07
-6.89783e-07
-1.34937e-06
-3.53333e-08
-0.00110827
-1.52602e-06
1.05539e-06
5.1894e-07
0.00110917
-5.70129e-07
1.01708e-06
5.63827e-08
6.14208e-07
-6.89002e-07
-1.34548e-06
-3.51854e-08
-0.000271893
1.55874e-06
1.51666e-06
-5.75321e-07
-5.86378e-07
0.000269979
-1.03454e-06
-1.03533e-06
-0.00111379
5.3103e-07
5.31736e-07
0.0011148
-0.00111194
-1.53048e-06
1.03412e-06
5.09626e-07
0.00111281
-5.67075e-07
1.03313e-06
6.38367e-08
6.33883e-07
-6.77744e-07
-1.34356e-06
-2.29384e-08
-0.00111184
-1.5284e-06
1.03523e-06
5.10464e-07
0.00111271
-5.71798e-07
1.03104e-06
6.67002e-08
6.29335e-07
-6.7805e-07
-1.34289e-06
-2.28169e-08
-0.000272617
1.55987e-06
1.51788e-06
-5.69186e-07
-5.79869e-07
0.000270688
-1.01374e-06
-1.01405e-06
-0.00111778
5.22269e-07
5.23212e-07
0.00111876
-0.00111537
-1.5337e-06
1.01481e-06
5.01252e-07
0.0011162
-5.69306e-07
1.04612e-06
7.10329e-08
6.48541e-07
-6.64876e-07
-1.33835e-06
-1.16731e-08
-0.00111527
-1.52971e-06
1.01365e-06
5.01535e-07
0.0011161
-5.69131e-07
1.04274e-06
7.37156e-08
6.46892e-07
-6.64979e-07
-1.33439e-06
-1.18421e-08
-0.000273287
1.56112e-06
1.5186e-06
-5.63675e-07
-5.74686e-07
0.000271346
-9.93113e-07
-9.93563e-07
-0.00112167
5.13494e-07
5.14321e-07
0.00112263
-0.00111864
-1.53259e-06
9.92783e-07
4.8959e-07
0.00111943
-5.61132e-07
1.05887e-06
8.33993e-08
6.65337e-07
-6.51239e-07
-1.33088e-06
-1.23979e-09
-0.00111855
-1.53085e-06
9.93417e-07
4.89655e-07
0.00111935
-5.66232e-07
1.05628e-06
8.29397e-08
6.59793e-07
-6.51274e-07
-1.32768e-06
-3.06271e-09
-0.0002739
1.56248e-06
1.52045e-06
-5.58466e-07
-5.69029e-07
0.000271945
-9.70915e-07
-9.71493e-07
-0.00112547
5.04009e-07
5.0478e-07
0.0011264
-0.00112177
-1.53373e-06
9.72231e-07
4.7796e-07
0.00112252
-5.61323e-07
1.07045e-06
8.8604e-08
6.77508e-07
-6.36074e-07
-1.3214e-06
1.1078e-08
-0.00112167
-1.52964e-06
9.71231e-07
4.78417e-07
0.00112243
-5.581e-07
1.06801e-06
9.05612e-08
6.71966e-07
-6.36124e-07
-1.31857e-06
7.2127e-09
-0.000274458
1.56225e-06
1.51965e-06
-5.50255e-07
-5.61353e-07
0.000272487
-9.49639e-07
-9.50371e-07
-0.00112917
4.94383e-07
4.94973e-07
0.00113008
-0.00112473
-1.53225e-06
9.50464e-07
4.65322e-07
0.00112544
-5.53872e-07
1.08336e-06
9.92805e-08
6.88064e-07
-6.19442e-07
-1.31085e-06
2.08617e-08
-0.00112464
-1.52957e-06
9.51154e-07
4.65762e-07
0.00112535
-5.53988e-07
1.07991e-06
9.75095e-08
6.82589e-07
-6.19696e-07
-1.30823e-06
1.78472e-08
-0.000274953
1.56066e-06
1.51813e-06
-5.41282e-07
-5.52076e-07
0.000272967
-9.28823e-07
-9.2946e-07
-0.00113278
4.84941e-07
4.80116e-07
0.00113367
-0.00112753
-1.53026e-06
9.28969e-07
4.55876e-07
0.0011282
-5.43082e-07
1.09249e-06
1.03912e-07
6.97098e-07
-6.03531e-07
-1.2993e-06
2.88926e-08
-0.00112744
-1.52725e-06
9.27773e-07
4.54906e-07
0.00112811
-5.42121e-07
1.09022e-06
1.06059e-07
6.91853e-07
-6.03201e-07
-1.29538e-06
2.53332e-08
-0.000275382
1.56011e-06
1.5174e-06
-5.32791e-07
-5.43768e-07
0.000273381
-9.06786e-07
-9.07157e-07
-0.0011363
4.74379e-07
4.75358e-07
0.00113716
-0.00113016
-1.5268e-06
9.06911e-07
4.4386e-07
0.00113079
-5.32933e-07
1.10321e-06
1.12033e-07
7.05753e-07
-5.88548e-07
-1.28868e-06
3.69725e-08
-0.00113007
-1.52416e-06
9.06921e-07
4.44209e-07
0.0011307
-5.32999e-07
1.09979e-06
1.10283e-07
7.00392e-07
-5.86062e-07
-1.28316e-06
3.42323e-08
-0.00027574
1.55634e-06
1.51362e-06
-5.22359e-07
-5.33259e-07
0.000273726
-8.84658e-07
-8.85733e-07
-0.00113972
4.64786e-07
4.6538e-07
0.00114056
-0.00113262
-1.52222e-06
8.84757e-07
4.329e-07
0.0011332
-5.1663e-07
1.11225e-06
1.17145e-07
7.13185e-07
-5.71194e-07
-1.27296e-06
4.29776e-08
-0.00113253
-1.52022e-06
8.84973e-07
4.34367e-07
0.00113311
-5.21404e-07
1.10883e-06
1.18521e-07
7.08574e-07
-5.67946e-07
-1.26709e-06
4.09298e-08
-0.000276031
1.55268e-06
1.50997e-06
-5.12411e-07
-5.23216e-07
0.000274004
-8.66469e-07
-8.67161e-07
-0.00114305
4.56716e-07
4.5742e-07
0.00114387
-0.00113489
-1.51758e-06
8.67246e-07
4.26243e-07
0.00113543
-5.05663e-07
1.11791e-06
1.18134e-07
7.19283e-07
-5.55279e-07
-1.25863e-06
4.9177e-08
-0.00113479
-1.51543e-06
8.67565e-07
4.27529e-07
0.00113533
-5.0947e-07
1.11453e-06
1.20367e-07
7.14533e-07
-5.51986e-07
-1.25221e-06
4.65235e-08
-0.000276249
1.54855e-06
1.50576e-06
-5.00931e-07
-5.11816e-07
0.000274207
5.2165e-06
5.22982e-06
0.000260577
-0.000259171
-5.93213e-06
-5.92035e-06
5.0792e-06
0.000261425
-0.000258697
-5.96238e-06
3.37175e-06
-5.22657e-06
5.07642e-06
0.000261427
-0.000258689
-5.96967e-06
3.38174e-06
5.22193e-06
0.000260567
-0.000259166
-5.90053e-06
-5.94896e-06
5.06716e-06
0.000261481
-0.000258714
-5.96768e-06
3.36396e-06
5.07643e-06
-5.23168e-06
0.000261427
-0.000258686
3.38431e-06
-5.9697e-06
1.06709e-05
1.06176e-05
-0.000252649
-0.000256081
-0.000255118
-0.000255118
-6.415e-06
-4.12538e-06
-6.6599e-06
-6.41778e-06
-4.12093e-06
-6.66524e-06
-5.07456e-06
0.00104219
1.07162e-05
1.06223e-05
-0.000252649
-0.000256074
-0.000255118
-0.000255116
-6.41719e-06
-4.12519e-06
-6.66491e-06
-6.42017e-06
-4.12596e-06
-6.66277e-06
-5.07462e-06
0.00104215
1.07287e-05
1.06429e-05
-0.000252646
-0.000256079
-0.000255113
-0.000255118
-6.4199e-06
-4.12775e-06
-6.66486e-06
-6.41776e-06
-4.12333e-06
-6.66519e-06
-5.08391e-06
-5.07435e-06
0.00104213
1.07311e-05
1.06754e-05
-0.000252646
-0.000256074
-0.000255113
-0.000255118
-6.41974e-06
-4.13031e-06
-6.66751e-06
-6.41742e-06
-4.12576e-06
-6.66766e-06
-0.000258704
-5.95991e-06
3.36138e-06
-5.22384e-06
0.000261404
-0.000258679
3.37909e-06
-5.96448e-06
5.22202e-06
0.000260564
-0.000259168
-5.90055e-06
-5.94905e-06
-0.000258707
3.36654e-06
-5.9625e-06
-5.23465e-06
0.000261458
-0.000258707
3.37654e-06
-5.96724e-06
-0.000259166
-5.9318e-06
-5.92003e-06
5.61239e-06
5.65507e-06
-4.87347e-06
-4.86966e-06
0.000259053
-7.85854e-07
-7.42108e-07
0.000261556
-0.000259472
-2.82101e-07
-2.74701e-07
7.02672e-06
0.00105893
-4.52755e-06
-1.57318e-06
-2.20763e-06
-2.57741e-06
-6.60923e-06
-7.05157e-06
-3.17124e-06
-0.000263277
-0.000259697
-0.000262814
-5.6305e-06
1.45484e-05
7.09957e-06
0.00105906
-4.55432e-06
-1.57833e-06
-2.221e-06
-2.58666e-06
-6.63155e-06
-7.06034e-06
-3.18853e-06
-0.00026332
-0.000259694
-0.000262811
0.00106206
2.03431e-06
-0.00106101
9.68546e-07
-1.72569e-06
-1.66537e-07
-6.92106e-07
-1.4684e-06
-3.07751e-07
-8.28279e-07
3.45977e-07
7.83248e-07
0.00106218
2.02913e-06
-0.00106113
9.73822e-07
-1.72078e-06
-1.6416e-07
-6.95051e-07
-1.47071e-06
-3.07578e-07
-8.28246e-07
3.48611e-07
-4.87875e-06
-4.87165e-06
0.000259045
-7.47303e-07
0.000261557
-0.000259469
-2.82139e-07
-2.74657e-07
6.80835e-06
0.00105969
-4.55199e-06
-1.63779e-06
-2.22902e-06
-2.58571e-06
-6.61977e-06
-7.0624e-06
-3.17903e-06
-0.000263364
-0.00025974
-0.00026285
-5.62802e-06
1.45638e-05
7.12315e-06
0.00105901
-4.54922e-06
-1.58093e-06
-2.22103e-06
-2.58693e-06
-6.63415e-06
-7.06064e-06
-3.18593e-06
-0.000259692
-0.000263323
-0.000262809
0.00106299
2.03642e-06
-0.00106192
9.6703e-07
-1.68818e-06
-1.7158e-07
-6.92462e-07
-1.46837e-06
-3.10051e-07
-8.25641e-07
3.4306e-07
7.77892e-07
0.0010621
2.03439e-06
-0.00106104
9.79233e-07
-1.72092e-06
-1.69333e-07
-6.95265e-07
-1.46827e-06
-3.09932e-07
-8.28056e-07
3.43137e-07
1.46119e-05
7.11499e-06
0.00105874
-4.52978e-06
-1.58068e-06
-2.21255e-06
-2.58191e-06
-6.60588e-06
-3.17326e-06
-7.04766e-06
-0.000259676
-0.000263259
-0.00026278
2.02605e-06
-0.00106154
9.67286e-07
-1.68792e-06
-1.71384e-07
-6.86887e-07
-1.46586e-06
-3.05194e-07
3.42921e-07
-8.28289e-07
7.75092e-07
0.00106178
2.0293e-06
-0.00106073
9.84192e-07
-1.71814e-06
-1.6916e-07
-6.92283e-07
-1.46293e-06
-3.07524e-07
-8.28026e-07
3.37813e-07
-4.87872e-06
-4.86923e-06
0.000259043
-7.41797e-07
0.000261536
-0.000259462
-2.79932e-07
-2.74792e-07
1.4486e-05
6.90001e-06
0.00105949
-4.55692e-06
-1.64276e-06
-2.23137e-06
-2.58752e-06
-6.61887e-06
-3.17853e-06
-7.05833e-06
-0.000259722
-0.000263341
-0.000262821
2.03666e-06
-0.00106147
9.67721e-07
-1.68808e-06
-1.69096e-07
-6.92343e-07
-1.46327e-06
-3.07658e-07
3.40352e-07
-8.25754e-07
7.39171e-07
0.0010627
2.03679e-06
-0.00106164
9.72597e-07
-1.68065e-06
-1.71677e-07
-6.89965e-07
-1.46552e-06
-3.07478e-07
-8.28176e-07
3.40248e-07
-0.000259444
-2.85149e-07
-2.77595e-07
1.64439e-06
1.60422e-06
-7.10478e-07
-7.16377e-07
0.000259735
-8.69022e-07
-8.30345e-07
0.000262791
-0.000260674
-2.1262e-07
-2.0501e-07
8.24373e-07
0.00106334
-6.58996e-07
8.25724e-07
-1.40783e-07
3.8096e-07
-8.00828e-07
-1.40012e-06
-2.90661e-07
-1.64206e-06
1.63195e-06
8.24496e-07
0.00106346
-6.59301e-07
8.205e-07
-1.43392e-07
3.83646e-07
-8.03323e-07
-1.40245e-06
-2.88025e-07
0.00106729
1.3833e-06
-0.00106595
7.0214e-07
-1.59694e-06
-1.05949e-07
-6.28617e-07
-1.35494e-06
-2.49177e-07
-7.77027e-07
4.22469e-07
8.69076e-07
0.00106741
1.37797e-06
-0.00106607
7.02307e-07
-1.59456e-06
-1.06081e-07
-6.26219e-07
-1.36e-06
-2.46616e-07
-7.79591e-07
4.27751e-07
-7.08399e-07
-7.18486e-07
0.000259735
-8.32825e-07
0.000262784
-0.000260664
-2.10069e-07
-2.07533e-07
8.22931e-07
0.00106427
-6.54095e-07
7.84593e-07
-1.48269e-07
3.78043e-07
-8.00883e-07
-1.39492e-06
-2.90558e-07
-1.63698e-06
1.6321e-06
8.30016e-07
0.00106337
-6.56809e-07
8.15176e-07
-1.43509e-07
3.80764e-07
-8.0061e-07
-1.39999e-06
-2.9038e-07
0.00106822
1.379e-06
-0.00106689
7.06331e-07
-1.55919e-06
-1.0848e-07
-6.26358e-07
-1.35499e-06
-2.49057e-07
-7.77109e-07
4.25073e-07
8.6115e-07
0.00106731
1.37768e-06
-0.00106597
7.02369e-07
-1.58935e-06
-1.06085e-07
-6.28906e-07
-1.35475e-06
-2.48901e-07
-7.76791e-07
4.22468e-07
1.64255e-06
8.2464e-07
0.00106305
-6.56445e-07
8.15017e-07
-1.45842e-07
3.72795e-07
-8.00549e-07
-2.92909e-07
-1.39212e-06
1.37895e-06
-0.0010665
7.01287e-07
-1.56157e-06
-1.08395e-07
-6.26068e-07
-1.35229e-06
-2.46594e-07
4.22278e-07
-7.7703e-07
8.6358e-07
0.00106699
1.37776e-06
-0.00106566
7.07392e-07
-1.58914e-06
-1.0603e-07
-6.28606e-07
-1.35204e-06
-2.51428e-07
-7.76693e-07
4.22385e-07
-7.13789e-07
-7.1601e-07
0.000259725
-8.30099e-07
0.000262771
-0.000260662
-2.10224e-07
-2.07555e-07
1.63368e-06
8.2854e-07
0.00106398
-6.54143e-07
7.71147e-07
-1.50846e-07
3.75322e-07
-8.00706e-07
-2.90426e-07
-1.39463e-06
1.3791e-06
-0.00106641
7.06581e-07
-1.55639e-06
-1.08423e-07
-6.26135e-07
-1.35227e-06
-2.4656e-07
4.2232e-07
-7.76988e-07
8.24844e-07
0.00106792
1.38422e-06
-0.00106659
7.01202e-07
-1.55137e-06
-1.11046e-07
-6.23647e-07
-1.35208e-06
-2.51467e-07
-7.76906e-07
4.22251e-07
-0.000260644
-2.10167e-07
-2.0772e-07
1.59508e-06
1.55469e-06
-6.72222e-07
-6.80493e-07
0.000260994
-8.95824e-07
-8.54345e-07
0.000264078
-0.00026195
-1.94165e-07
-1.83882e-07
6.96453e-07
0.00106863
-6.29671e-07
8.77387e-07
-9.92358e-08
4.24602e-07
-7.7788e-07
-1.35475e-06
-2.45232e-07
-1.59269e-06
1.36662e-06
6.91406e-07
0.00106875
-6.29917e-07
8.74834e-07
-9.93235e-08
4.29892e-07
-7.80487e-07
-1.35979e-06
-2.42675e-07
0.00107264
1.3499e-06
-0.00107131
6.75895e-07
-1.59508e-06
-8.30324e-08
-6.27587e-07
-1.37256e-06
-2.25084e-07
-7.83542e-07
4.39333e-07
8.93267e-07
0.00107276
1.34981e-06
-0.00107143
6.76009e-07
-1.59267e-06
-8.30801e-08
-6.27815e-07
-1.37235e-06
-2.24951e-07
-7.83548e-07
4.39227e-07
-6.75282e-07
-6.80087e-07
0.000260989
-8.56844e-07
0.000264068
-0.000261945
-1.89016e-07
-1.8381e-07
6.90227e-07
0.00106957
-6.24761e-07
8.36037e-07
-1.06675e-07
4.24483e-07
-7.77977e-07
-1.35739e-06
-2.45137e-07
-1.59013e-06
1.3663e-06
6.91444e-07
0.00106866
-6.29926e-07
8.72158e-07
-1.01797e-07
4.24614e-07
-7.77658e-07
-1.35459e-06
-2.44992e-07
0.00107358
1.35067e-06
-0.00107225
6.74945e-07
-1.55451e-06
-9.04331e-08
-6.19986e-07
-1.36995e-06
-2.25023e-07
-7.83679e-07
4.3646e-07
8.90624e-07
0.00107266
1.34945e-06
-0.00107133
6.76063e-07
-1.59003e-06
-8.55449e-08
-6.25137e-07
-1.36976e-06
-2.24863e-07
-7.83361e-07
4.36662e-07
1.36639e-06
6.9126e-07
0.00106834
-6.26982e-07
8.66679e-07
-1.04211e-07
4.21857e-07
-7.77561e-07
-2.45022e-07
-1.35449e-06
1.35056e-06
-0.00107187
6.75005e-07
-1.55692e-06
-9.03325e-08
-6.19748e-07
-1.36733e-06
-2.27554e-07
4.33756e-07
-7.80942e-07
8.85081e-07
0.00107234
1.34957e-06
-0.00107102
6.759e-07
-1.58455e-06
-8.55095e-08
-6.24817e-07
-1.36699e-06
-2.24924e-07
-7.83242e-07
4.33931e-07
-6.75381e-07
-6.77503e-07
0.000260976
-8.54167e-07
0.000264055
-0.000261932
-1.91665e-07
-1.86407e-07
1.36233e-06
6.9553e-07
0.00106927
-6.22053e-07
8.27901e-07
-1.09192e-07
4.21675e-07
-7.77776e-07
-2.45025e-07
-1.35445e-06
1.35067e-06
-0.00107177
6.75087e-07
-1.55428e-06
-8.78953e-08
-6.22386e-07
-1.36716e-06
-2.27469e-07
4.31082e-07
-7.83517e-07
8.43561e-07
0.00107328
1.35057e-06
-0.00107196
6.74949e-07
-1.54398e-06
-9.29398e-08
-6.17226e-07
-1.36695e-06
-2.24911e-07
-7.83472e-07
4.33703e-07
-0.000261924
-1.94404e-07
-1.8404e-07
1.59371e-06
1.55307e-06
-6.59365e-07
-6.70155e-07
0.000262261
-9.23779e-07
-8.82177e-07
0.000265297
-0.000263168
-1.66575e-07
-1.56204e-07
6.68272e-07
0.00107395
-6.25113e-07
9.02707e-07
-7.68051e-08
4.4374e-07
-7.82125e-07
-1.37475e-06
-2.17832e-07
-1.59129e-06
1.34123e-06
6.68268e-07
0.00107407
-6.25346e-07
9.00155e-07
-7.68233e-08
4.43768e-07
-7.8206e-07
-1.37449e-06
-2.17649e-07
0.00107781
1.30833e-06
-0.00107654
6.43296e-07
-1.58794e-06
-5.77062e-08
-6.15842e-07
-1.37707e-06
-1.94541e-07
-7.74204e-07
4.59683e-07
9.21256e-07
0.00107793
1.30821e-06
-0.00107666
6.43313e-07
-1.5855e-06
-5.77339e-08
-6.16092e-07
-1.3772e-06
-1.94332e-07
-7.74248e-07
4.59707e-07
-6.65022e-07
-6.69803e-07
0.000262256
-8.84614e-07
0.000265287
-0.000263163
-1.61502e-07
-1.56197e-07
6.67276e-07
0.00107489
-6.17488e-07
8.61157e-07
-8.42132e-08
4.40985e-07
-7.8224e-07
-1.3721e-06
-2.1774e-07
-1.58866e-06
1.34094e-06
6.68366e-07
0.00107397
-6.22676e-07
8.97515e-07
-7.92868e-08
4.41056e-07
-7.81939e-07
-1.3719e-06
-2.17639e-07
0.00107876
1.30905e-06
-0.00107748
6.42312e-07
-1.5471e-06
-6.49913e-08
-6.08126e-07
-1.37472e-06
-1.94426e-07
-7.74445e-07
4.56929e-07
9.18536e-07
0.00107784
1.30788e-06
-0.00107656
6.43383e-07
-1.58284e-06
-6.02137e-08
-6.13374e-07
-1.37428e-06
-1.94368e-07
-7.74055e-07
4.57129e-07
1.34102e-06
6.68211e-07
0.00107366
-6.22387e-07
8.91976e-07
-7.92041e-08
4.38521e-07
-7.81815e-07
-2.17628e-07
-1.36918e-06
1.3089e-06
-0.0010771
6.42275e-07
-1.54954e-06
-6.50111e-08
-6.07958e-07
-1.37215e-06
-1.9685e-07
4.5468e-07
-7.71662e-07
9.13104e-07
0.00107752
1.30804e-06
-0.00107625
6.4334e-07
-1.57738e-06
-6.00149e-08
-6.13191e-07
-1.37194e-06
-1.94266e-07
-7.7409e-07
4.54409e-07
-6.62458e-07
-6.67127e-07
0.000262243
-8.82023e-07
0.000265274
-0.00026315
-1.64052e-07
-1.5885e-07
1.34199e-06
6.67234e-07
0.0010746
-6.14781e-07
8.50431e-07
-8.66051e-08
4.38227e-07
-7.82039e-07
-2.17625e-07
-1.36914e-06
1.30905e-06
-0.00107701
6.42472e-07
-1.54687e-06
-6.24702e-08
-6.10574e-07
-1.3695e-06
-1.96887e-07
4.51472e-07
-7.71711e-07
8.71434e-07
0.00107846
1.30895e-06
-0.00107719
6.42321e-07
-1.53663e-06
-6.73672e-08
-6.05574e-07
-1.37174e-06
-1.94319e-07
-7.74267e-07
4.53987e-07
-0.000263143
-1.66687e-07
-1.56262e-07
1.58574e-06
1.54493e-06
-6.42482e-07
-6.5323e-07
0.000263462
-9.50177e-07
-9.08414e-07
0.000266443
-0.000264315
-1.39905e-07
-1.29438e-07
6.35056e-07
0.00107907
-6.12651e-07
9.308e-07
-5.13681e-08
4.66188e-07
-7.70819e-07
-1.37752e-06
-1.86327e-07
-1.58325e-06
1.29602e-06
6.29691e-07
0.00107919
-6.12688e-07
9.28149e-07
-5.14517e-08
4.65886e-07
-7.70683e-07
-1.37681e-06
-1.86376e-07
0.00108274
1.26074e-06
-0.00108153
6.1249e-07
-1.57959e-06
-3.47771e-08
-6.03374e-07
-1.37549e-06
-1.63556e-07
-7.6042e-07
4.82926e-07
9.47972e-07
0.00108286
1.26046e-06
-0.00108166
6.1762e-07
-1.57715e-06
-3.43408e-08
-6.0368e-07
-1.37601e-06
-1.62978e-07
-7.60362e-07
4.83977e-07
-6.47961e-07
-6.52711e-07
0.000263457
-9.10994e-07
0.000266432
-0.00026431
-1.34335e-07
-1.2886e-07
6.34035e-07
0.00108002
-6.05001e-07
8.89105e-07
-5.86787e-08
4.63097e-07
-7.70944e-07
-1.37458e-06
-1.86403e-07
-1.58062e-06
1.29586e-06
6.35124e-07
0.00107909
-6.10126e-07
9.25653e-07
-5.37758e-08
4.63261e-07
-7.70761e-07
-1.37471e-06
-1.86198e-07
0.00108369
1.26124e-06
-0.00108248
6.11425e-07
-1.5385e-06
-4.19507e-08
-5.95517e-07
-1.37343e-06
-1.63268e-07
-7.60639e-07
4.80888e-07
9.44901e-07
0.00108277
1.26021e-06
-0.00108156
6.12495e-07
-1.57455e-06
-3.72103e-08
-6.01003e-07
-1.37223e-06
-1.63489e-07
-7.60146e-07
4.80532e-07
1.29593e-06
6.34999e-07
0.00107877
-6.09774e-07
9.19833e-07
-5.40615e-08
4.60468e-07
-7.70518e-07
-1.86445e-07
-1.37131e-06
1.26085e-06
-0.0010821
6.11214e-07
-1.54109e-06
-4.17003e-08
-5.95581e-07
-1.36994e-06
-1.65718e-07
4.79081e-07
-7.57467e-07
9.3973e-07
0.00108245
1.26009e-06
-0.00108124
6.12286e-07
-1.56875e-06
-3.65156e-08
-6.00264e-07
-1.37069e-06
-1.631e-07
-7.60101e-07
4.78865e-07
-6.45548e-07
-6.50128e-07
0.000263444
-9.08254e-07
0.000266419
-0.000264297
-1.37341e-07
-1.32079e-07
1.29676e-06
6.33978e-07
0.00107972
-6.02064e-07
8.78116e-07
-6.13938e-08
4.60486e-07
-7.70763e-07
-1.86309e-07
-1.37148e-06
1.26114e-06
-0.001082
6.11537e-07
-1.53825e-06
-3.94314e-08
-5.98027e-07
-1.36815e-06
-1.65642e-07
4.76e-07
-7.57793e-07
8.97988e-07
0.0010834
1.26098e-06
-0.00108219
6.11295e-07
-1.52784e-06
-4.3686e-08
-5.92639e-07
-1.37062e-06
-1.6322e-07
-7.60379e-07
4.78004e-07
-0.000264289
-1.39209e-07
-1.28779e-07
1.57735e-06
1.53642e-06
-6.25358e-07
-6.36055e-07
0.00026459
-9.73864e-07
-9.31706e-07
0.000267515
-0.000265388
-1.16064e-07
-1.05164e-07
6.05174e-07
0.00108393
-6.00172e-07
9.56639e-07
-2.89413e-08
4.91184e-07
-7.56218e-07
-1.37467e-06
-1.55828e-07
-1.57489e-06
1.24846e-06
5.99982e-07
0.00108406
-6.00191e-07
9.53693e-07
-2.93983e-08
4.89768e-07
-7.56328e-07
-1.37378e-06
-1.56162e-07
0.00108743
1.21577e-06
-0.00108628
5.87409e-07
-1.57277e-06
-1.55522e-08
-5.93172e-07
-1.37234e-06
-1.34691e-07
-7.4668e-07
5.07268e-07
9.71609e-07
0.00108754
1.21506e-06
-0.0010864
5.92196e-07
-1.57031e-06
-1.51629e-08
-5.93604e-07
-1.36937e-06
-1.3403e-07
-7.46104e-07
5.09455e-07
-6.30585e-07
-6.35419e-07
0.000264585
-9.34575e-07
0.000267504
-0.000265384
-1.09991e-07
-1.04595e-07
6.0426e-07
0.00108489
-5.92547e-07
9.14844e-07
-3.60582e-08
4.87244e-07
-7.56473e-07
-1.37163e-06
-1.56061e-07
-1.57211e-06
1.2481e-06
6.05267e-07
0.00108396
-5.97472e-07
9.51518e-07
-3.1283e-08
4.88254e-07
-7.56376e-07
-1.37252e-06
-1.55548e-07
0.00108838
1.21572e-06
-0.00108723
5.86114e-07
-1.53147e-06
-2.26715e-08
-5.85195e-07
-1.36968e-06
-1.34288e-07
-7.46573e-07
5.06156e-07
9.68514e-07
0.00108745
1.21511e-06
-0.0010863
5.87292e-07
-1.56777e-06
-1.79601e-08
-5.90894e-07
-1.36836e-06
-1.34774e-07
-7.46257e-07
5.04632e-07
1.24856e-06
6.05436e-07
0.00108364
-5.97949e-07
9.45427e-07
-3.20113e-08
4.84214e-07
-7.56284e-07
-1.56002e-07
-1.36844e-06
1.21553e-06
-0.00108684
5.85954e-07
-1.53423e-06
-2.22396e-08
-5.85616e-07
-1.3657e-06
-1.37067e-07
5.03086e-07
-7.4337e-07
9.63406e-07
0.00108713
1.21454e-06
-0.00108598
5.86713e-07
-1.56159e-06
-1.68885e-08
-5.89627e-07
-1.36623e-06
-1.34596e-07
-7.45842e-07
5.04074e-07
-6.28383e-07
-6.32779e-07
0.000264572
-9.31531e-07
0.000267491
-0.00026537
-1.13385e-07
-1.07872e-07
1.24914e-06
6.04344e-07
0.00108459
-5.90166e-07
9.03497e-07
-3.92758e-08
4.84496e-07
-7.56408e-07
-1.55869e-07
-1.36835e-06
1.21555e-06
-0.00108675
5.86165e-07
-1.53122e-06
-2.02694e-08
-5.87794e-07
-1.36366e-06
-1.36823e-07
5.01298e-07
-7.4359e-07
9.21597e-07
0.00108808
1.21526e-06
-0.00108693
5.85724e-07
-1.52043e-06
-2.37753e-08
-5.81893e-07
-1.36677e-06
-1.34564e-07
-7.46229e-07
5.03464e-07
-0.000265363
-1.14424e-07
-1.03959e-07
1.5709e-06
1.52988e-06
-6.10951e-07
-6.21554e-07
0.000265646
-9.94619e-07
-9.52394e-07
0.000268518
-0.000266392
-9.47149e-08
-8.38247e-08
5.81196e-07
0.00108856
-5.90641e-07
9.79652e-07
-1.04412e-08
5.16412e-07
-7.42191e-07
-1.36981e-06
-1.27933e-07
-1.56838e-06
1.2044e-06
5.76155e-07
0.00108869
-5.90385e-07
9.76828e-07
-1.06703e-08
5.1111e-07
-7.4271e-07
-1.36963e-06
-1.2837e-07
0.00109188
1.17573e-06
-0.00109078
5.67818e-07
-1.56795e-06
-5.21014e-10
-5.85524e-07
-1.36823e-06
-1.09097e-07
-7.34129e-07
5.31416e-07
9.92331e-07
0.001092
1.17513e-06
-0.00109091
5.72778e-07
-1.56556e-06
-4.64203e-10
-5.86231e-07
-1.36827e-06
-1.08251e-07
-7.3353e-07
5.34125e-07
-6.15573e-07
-6.20692e-07
0.00026564
-9.5528e-07
0.000268508
-0.000266388
-8.88198e-08
-8.34641e-08
5.80463e-07
0.00108952
-5.83104e-07
9.37931e-07
-1.70923e-08
5.11422e-07
-7.42749e-07
-1.36735e-06
-1.28351e-07
-1.56555e-06
1.20369e-06
5.81267e-07
0.00108858
-5.87791e-07
9.74587e-07
-1.25463e-08
5.13602e-07
-7.42419e-07
-1.3682e-06
-1.27611e-07
0.00109284
1.17576e-06
-0.00109174
5.66629e-07
-1.52625e-06
-6.90573e-09
-5.77348e-07
-1.36548e-06
-1.08813e-07
-7.34011e-07
5.30383e-07
9.89128e-07
0.0010919
1.17528e-06
-0.00109081
5.68001e-07
-1.56295e-06
-2.96391e-09
-5.83294e-07
-1.36381e-06
-1.09305e-07
-7.33868e-07
5.28484e-07
1.20466e-06
5.81878e-07
0.00108826
-5.88517e-07
9.68263e-07
-1.3803e-08
5.08493e-07
-7.42737e-07
-1.27858e-07
-1.3649e-06
1.17589e-06
-0.00109135
5.66772e-07
-1.52927e-06
-6.81402e-09
-5.78247e-07
-1.36215e-06
-1.11331e-07
5.27027e-07
-7.31e-07
9.8441e-07
0.00109158
1.17462e-06
-0.00109049
5.67331e-07
-1.55695e-06
-1.62198e-09
-5.82816e-07
-1.36141e-06
-1.09048e-07
-7.33001e-07
5.28455e-07
-6.13825e-07
-6.18097e-07
0.000265628
-9.52069e-07
0.000268494
-0.000266374
-9.22045e-08
-8.66746e-08
1.20504e-06
5.80681e-07
0.00108922
-5.80763e-07
9.26105e-07
-2.08856e-08
5.08429e-07
-7.42793e-07
-1.27901e-07
-1.36424e-06
1.17567e-06
-0.00109126
5.66849e-07
-1.52612e-06
-4.94494e-09
-5.80053e-07
-1.35913e-06
-1.11342e-07
5.25252e-07
-7.31009e-07
9.42503e-07
0.00109253
1.17518e-06
-0.00109144
5.66288e-07
-1.51555e-06
-7.68394e-09
-5.75005e-07
-1.36231e-06
-1.08912e-07
-7.33373e-07
5.282e-07
-0.000266368
-9.26262e-08
-8.21325e-08
1.56699e-06
1.52557e-06
-5.99599e-07
-6.10164e-07
0.000266635
-1.01249e-06
-9.70147e-07
0.000269454
-0.000267333
-7.33871e-08
-6.49254e-08
5.62771e-07
0.00109295
-5.84813e-07
9.99918e-07
6.18235e-09
5.40089e-07
-7.30066e-07
-1.36572e-06
-1.03204e-07
-1.56437e-06
1.16553e-06
5.57629e-07
0.00109308
-5.84254e-07
9.97105e-07
6.49419e-09
5.37352e-07
-7.3061e-07
-1.36528e-06
-1.03854e-07
0.00109612
1.14002e-06
-0.00109508
5.52485e-07
-1.56542e-06
1.94676e-08
-5.80532e-07
-1.36274e-06
-8.96009e-08
-7.20848e-07
5.52057e-07
1.00969e-06
0.00109624
1.13983e-06
-0.0010952
5.52535e-07
-1.56318e-06
1.77472e-08
-5.8132e-07
-1.36547e-06
-8.60099e-08
-7.23134e-07
5.56988e-07
-6.03873e-07
-6.09014e-07
0.000266629
-9.72345e-07
0.000269447
-0.000267328
-7.15879e-08
-6.57996e-08
5.62576e-07
0.00109392
-5.77032e-07
9.58046e-07
-2.60779e-09
5.35636e-07
-7.30574e-07
-1.36328e-06
-1.03371e-07
-1.56154e-06
1.16516e-06
5.63018e-07
0.00109298
-5.81852e-07
9.9503e-07
3.24637e-09
5.37635e-07
-7.30246e-07
-1.36466e-06
-1.02801e-07
0.00109708
1.14104e-06
-0.00109604
5.51662e-07
-1.52373e-06
1.01126e-08
-5.72185e-07
-1.36218e-06
-8.67316e-08
-7.23317e-07
5.52861e-07
1.0068e-06
0.00109614
1.13995e-06
-0.0010951
5.52756e-07
-1.56039e-06
1.54529e-08
-5.78015e-07
-1.36055e-06
-8.71703e-08
-7.23142e-07
5.51283e-07
1.16617e-06
5.63732e-07
0.00109266
-5.81382e-07
9.88292e-07
6.36524e-10
5.32437e-07
-7.30875e-07
-1.03094e-07
-1.36143e-06
1.14153e-06
-0.00109565
5.52281e-07
-1.52698e-06
8.12812e-09
-5.73294e-07
-1.35876e-06
-8.90036e-08
5.49304e-07
-7.2041e-07
1.00215e-06
0.00109582
1.13936e-06
-0.00109478
5.52199e-07
-1.55507e-06
1.62483e-08
-5.79869e-07
-1.3577e-06
-8.64711e-08
-7.22038e-07
5.51691e-07
-6.02477e-07
-6.06734e-07
0.000266616
-9.69674e-07
0.000269433
-0.000267314
-7.36758e-08
-6.81381e-08
1.16676e-06
5.62789e-07
0.00109362
-5.7358e-07
9.46021e-07
-6.01196e-09
5.31939e-07
-7.30936e-07
-1.03285e-07
-1.36045e-06
1.14048e-06
-0.00109555
5.51667e-07
-1.52342e-06
1.25397e-08
-5.74679e-07
-1.3558e-06
-8.91272e-08
5.48198e-07
-7.20373e-07
9.6012e-07
0.00109678
1.14087e-06
-0.00109574
5.51705e-07
-1.51347e-06
7.02622e-09
-5.71759e-07
-1.35856e-06
-8.61009e-08
-7.22264e-07
5.51717e-07
-0.000267309
-7.49698e-08
-6.40815e-08
1.56611e-06
1.52454e-06
-5.94348e-07
-6.02523e-07
0.00026756
-1.02871e-06
-9.86031e-07
0.000270336
-0.000268216
-5.65974e-08
-4.80344e-08
5.49942e-07
0.00109715
-5.82416e-07
1.01629e-06
2.15354e-08
5.59333e-07
-7.17153e-07
-1.35965e-06
-8.37985e-08
-1.56343e-06
1.13184e-06