/*--------------------------------*- C++ -*----------------------------------*\
| =========                 |                                                 |
| \\      /  F ield         | OpenFOAM: The Open Source CFD Toolbox           |
|  \\    /   O peration     | Version:  v2006                                 |
|   \\  /    A nd           | Website:  www.openfoam.com                      |
|    \\/     M anipulation  |                                                 |
\*---------------------------------------------------------------------------*/
FoamFile
{
    version     2.0;
    format      ascii;
    class       volVectorField;
    location    "1000";
    object      U;
}
// * * * * * * * * * * * * * * * * * * * * * * * * * * * * * * * * * * * * * //

dimensions      [0 1 -1 0 0 0 0];


internalField   nonuniform List<vector> 
43024
(
(0.000107945 0.0001079 0.100299)
(-0.000190207 0.000119268 0.100385)
(0.000119318 -0.000190207 0.100385)
(-0.000239583 -0.000239574 0.100397)
(9.42514e-05 9.42324e-05 0.10086)
(-0.000158955 9.67963e-05 0.100942)
(9.68112e-05 -0.000159001 0.100942)
(-0.000201067 -0.000201152 0.100968)
(9.54054e-05 9.54328e-05 0.10137)
(-0.000155799 9.34699e-05 0.101449)
(9.34517e-05 -0.000155827 0.101449)
(-0.000201996 -0.000202058 0.101471)
(9.38636e-05 9.39122e-05 0.101892)
(-0.00015206 9.01009e-05 0.101957)
(9.00906e-05 -0.000152058 0.101957)
(-0.000198912 -0.000198997 0.101964)
(9.11082e-05 9.11581e-05 0.102398)
(-0.000146308 8.55757e-05 0.102446)
(8.55738e-05 -0.000146297 0.102446)
(-0.000193481 -0.000193586 0.102432)
(8.81204e-05 8.81744e-05 0.102885)
(-0.00014065 8.16116e-05 0.102912)
(8.16021e-05 -0.000140636 0.102912)
(-0.00018819 -0.000188313 0.10287)
(8.52857e-05 8.53385e-05 0.103353)
(-0.000135519 7.84213e-05 0.103354)
(7.83865e-05 -0.000135492 0.103354)
(-0.000183788 -0.000183879 0.10328)
(8.28091e-05 8.28512e-05 0.103803)
(-0.000131108 7.59872e-05 0.103774)
(7.59277e-05 -0.000131053 0.103774)
(-0.000180186 -0.000180324 0.103663)
(8.06547e-05 8.06079e-05 0.104237)
(-0.000127345 7.42331e-05 0.104174)
(7.42508e-05 -0.000127319 0.104175)
(-0.000177868 -0.000177881 0.104022)
(7.87647e-05 7.87237e-05 0.104658)
(-0.000124095 7.28696e-05 0.104557)
(7.29006e-05 -0.000124061 0.104557)
(-0.000176704 -0.00017678 0.104359)
(7.71049e-05 7.70842e-05 0.105066)
(-0.000121237 7.16749e-05 0.104925)
(7.1793e-05 -0.000121285 0.104924)
(-0.000176093 -0.000176332 0.104673)
(7.55088e-05 7.55196e-05 0.105464)
(-0.000118713 7.06371e-05 0.105277)
(7.06992e-05 -0.000118736 0.105277)
(-0.000176065 -0.00017612 0.104966)
(7.41538e-05 7.41353e-05 0.105851)
(-0.000116353 6.95399e-05 0.105615)
(6.94812e-05 -0.000116278 0.105615)
(-0.00017552 -0.000175537 0.105239)
(7.27166e-05 7.27447e-05 0.106229)
(-0.000113869 6.81983e-05 0.105938)
(6.84016e-05 -0.000113982 0.105938)
(-0.000174827 -0.000175012 0.105491)
(7.13555e-05 7.13566e-05 0.106598)
(-0.000111606 6.7148e-05 0.106248)
(6.70684e-05 -0.000111546 0.106248)
(-0.000174915 -0.000174739 0.10572)
(6.98393e-05 6.98353e-05 0.106957)
(-0.00010932 6.59838e-05 0.106543)
(6.62192e-05 -0.000109417 0.106543)
(-0.000173499 -0.000173637 0.105927)
(6.83552e-05 6.83225e-05 0.107307)
(-0.000107427 6.49343e-05 0.106823)
(6.49049e-05 -0.000107415 0.106822)
(-0.000172037 -0.000172044 0.106109)
(6.69315e-05 6.68806e-05 0.107649)
(-0.000105423 6.4122e-05 0.107086)
(6.40798e-05 -0.000105348 0.107086)
(-0.000170687 -0.000170756 0.106265)
(6.53864e-05 6.53855e-05 0.107982)
(-0.00010351 6.28059e-05 0.107334)
(6.28084e-05 -0.000103415 0.107334)
(-0.000168361 -0.000168397 0.106393)
(6.381e-05 6.37698e-05 0.108306)
(-0.000101514 6.176e-05 0.107565)
(6.185e-05 -0.000101504 0.107565)
(-0.000166008 -0.000166038 0.106496)
(6.2431e-05 6.24213e-05 0.108622)
(-9.97285e-05 6.12045e-05 0.107778)
(6.13476e-05 -9.99081e-05 0.107778)
(-0.000163019 -0.000163099 0.106571)
(0.000134949 0.000134977 0.100282)
(0.000124244 0.000152885 0.100229)
(-0.000124248 0.000152835 0.100229)
(-0.000134971 0.000134901 0.100282)
(0.000152888 0.00012422 0.100229)
(0.00015286 -0.000124246 0.100229)
(9.08e-05 9.0762e-05 0.100151)
(-9.08033e-05 9.07439e-05 0.100151)
(9.07753e-05 -9.08059e-05 0.100151)
(-9.07738e-05 -9.07872e-05 0.100151)
(-0.000152906 0.000124181 0.100229)
(-0.000152871 -0.000124189 0.100229)
(0.000134935 -0.000134989 0.100282)
(0.000124211 -0.000152915 0.100229)
(-0.000124187 -0.000152863 0.100229)
(-0.000134958 -0.00013492 0.100282)
(0.000239615 0.000239634 0.100397)
(0.000111257 0.000111147 0.100892)
(0.000119381 0.000190143 0.100385)
(-0.000119365 0.000190091 0.100385)
(8.90583e-05 0.000147181 0.100823)
(-8.90787e-05 0.00014718 0.100823)
(-0.000239669 0.00023954 0.100397)
(-0.000111288 0.000111119 0.100892)
(0.000190205 0.000119298 0.100385)
(0.000190146 -0.000119347 0.100385)
(0.000147157 8.90357e-05 0.100823)
(0.000147211 -8.91245e-05 0.100823)
(-0.000190142 -0.000119353 0.100385)
(-0.000147179 8.90515e-05 0.100823)
(-0.000147223 -8.91126e-05 0.100823)
(0.000239563 -0.000239694 0.100397)
(0.000111238 -0.000111315 0.100892)
(-0.000119338 -0.000190167 0.100385)
(8.90854e-05 -0.000147237 0.100823)
(-8.90738e-05 -0.000147205 0.100823)
(-0.00011127 -0.000111334 0.100892)
(0.000201089 0.000200947 0.100967)
(0.000105703 0.000105633 0.101395)
(9.67827e-05 0.00015897 0.100941)
(-9.68082e-05 0.000158955 0.100941)
(9.41712e-05 0.000156659 0.10132)
(-9.42139e-05 0.000156663 0.10132)
(-0.000201136 0.000200911 0.100967)
(-0.000105704 0.000105652 0.101395)
(0.00015895 9.67895e-05 0.100942)
(0.00015899 -9.68514e-05 0.100942)
(0.000156622 9.42127e-05 0.10132)
(0.000156655 -9.42186e-05 0.10132)
(-0.000159002 -9.68286e-05 0.100942)
(-0.000156623 9.42071e-05 0.10132)
(-0.00015667 -9.42016e-05 0.10132)
(0.00020104 -0.000201158 0.100968)
(0.000105697 -0.000105711 0.101395)
(-9.68155e-05 -0.000158969 0.100942)
(9.4193e-05 -0.000156654 0.10132)
(-9.42166e-05 -0.000156636 0.10132)
(-0.000105715 -0.000105749 0.101395)
(0.000202024 0.000201923 0.101471)
(9.66076e-05 9.65318e-05 0.101893)
(9.34264e-05 0.000155839 0.101449)
(-9.34652e-05 0.000155849 0.101449)
(9.11097e-05 0.000153323 0.101832)
(-9.11369e-05 0.000153323 0.101832)
(-0.000202048 0.000201931 0.101471)
(-9.66062e-05 9.65609e-05 0.101893)
(0.000155802 9.3478e-05 0.101449)
(0.000155832 -9.3475e-05 0.101449)
(0.00015327 9.11766e-05 0.101832)
(0.0001533 -9.11582e-05 0.101832)
(-0.000155848 -9.34609e-05 0.101449)
(-0.000153287 9.11574e-05 0.101832)
(-0.000153312 -9.113e-05 0.101832)
(0.000201973 -0.00020205 0.101471)
(9.65708e-05 -9.65801e-05 0.101893)
(-9.34805e-05 -0.000155811 0.101449)
(9.11409e-05 -0.000153286 0.101832)
(-9.11742e-05 -0.000153276 0.101832)
(-9.66045e-05 -9.6652e-05 0.101893)
(0.000198951 0.000198847 0.101964)
(8.60881e-05 8.6005e-05 0.102366)
(9.00627e-05 0.000152103 0.101957)
(-9.00771e-05 0.00015209 0.101957)
(8.66585e-05 0.000147825 0.102326)
(-8.66672e-05 0.000147811 0.102326)
(-0.000198981 0.000198872 0.101964)
(-8.60771e-05 8.60745e-05 0.102366)
(0.000152045 9.01279e-05 0.101957)
(0.000152075 -9.01045e-05 0.101957)
(0.00014777 8.67208e-05 0.102326)
(0.000147801 -8.67022e-05 0.102326)
(-0.000152082 -9.00768e-05 0.101957)
(-0.000147788 8.66961e-05 0.102326)
(-0.000147801 -8.66694e-05 0.102326)
(0.000198876 -0.000198963 0.101964)
(8.60311e-05 -8.60764e-05 0.102366)
(-9.01211e-05 -0.000152048 0.101957)
(8.66875e-05 -0.000147778 0.102326)
(-8.67169e-05 -0.000147773 0.102326)
(-8.60356e-05 -8.60838e-05 0.102366)
(0.000193561 0.000193484 0.102432)
(7.61474e-05 7.60707e-05 0.102812)
(8.5544e-05 0.000146336 0.102446)
(-8.5556e-05 0.00014633 0.102446)
(8.24819e-05 0.000142052 0.102797)
(-8.24816e-05 0.000142029 0.102797)
(-0.000193556 0.000193473 0.102432)
(-7.59665e-05 7.60564e-05 0.102812)
(0.000146287 8.56032e-05 0.102446)
(0.000146314 -8.55835e-05 0.102446)
(0.000141993 8.25521e-05 0.102798)
(0.000142028 -8.25238e-05 0.102798)
(-0.000146325 -8.55591e-05 0.102446)
(-0.000142014 8.25242e-05 0.102798)
(-0.000142026 -8.25032e-05 0.102798)
(0.00019351 -0.000193552 0.102432)
(7.60948e-05 -7.61372e-05 0.102812)
(-8.5611e-05 -0.000146293 0.102446)
(8.25205e-05 -0.000141992 0.102798)
(-8.2552e-05 -0.000142001 0.102798)
(-7.5895e-05 -7.59785e-05 0.102812)
(0.00018806 0.000188028 0.102871)
(6.71878e-05 6.72252e-05 0.103229)
(8.15833e-05 0.000140686 0.102912)
(-8.15918e-05 0.000140678 0.102912)
(7.90813e-05 0.00013677 0.103245)
(-7.90699e-05 0.000136737 0.103245)
(-0.000188083 0.000187976 0.10287)
(-6.70339e-05 6.70879e-05 0.10323)
(0.000140633 8.16407e-05 0.102912)
(0.000140652 -8.16187e-05 0.102912)
(0.000136707 7.91729e-05 0.103245)
(0.000136743 -7.91163e-05 0.103245)
(-0.000140657 -8.15742e-05 0.102912)
(-0.000136725 7.91151e-05 0.103245)
(-0.000136748 -7.91105e-05 0.103245)
(0.000188057 -0.000188005 0.102871)
(6.72581e-05 -6.72079e-05 0.103229)
(-8.16373e-05 -0.000140627 0.102912)
(7.91339e-05 -0.000136703 0.103245)
(-7.9171e-05 -0.000136721 0.103245)
(-6.6849e-05 -6.69715e-05 0.103229)
(0.00018352 0.00018355 0.103281)
(5.93239e-05 5.93205e-05 0.10362)
(7.83733e-05 0.00013555 0.103354)
(-7.83745e-05 0.00013555 0.103354)
(7.64328e-05 0.000132154 0.103671)
(-7.64312e-05 0.000132135 0.103671)
(-0.000183534 0.000183325 0.103281)
(-5.91994e-05 5.92116e-05 0.103621)
(0.0001355 7.84307e-05 0.103354)
(0.000135515 -7.84159e-05 0.103354)
(0.000132104 7.65511e-05 0.103671)
(0.000132144 -7.64967e-05 0.103671)
(-0.000135518 -7.83651e-05 0.103354)
(-0.000132117 7.64871e-05 0.103671)
(-0.000132134 -7.64621e-05 0.103671)
(0.000183541 -0.000183421 0.103281)
(5.94315e-05 -5.94009e-05 0.10362)
(-7.8439e-05 -0.000135498 0.103354)
(7.65196e-05 -0.000132104 0.103671)
(-7.65504e-05 -0.000132112 0.103671)
(-5.88191e-05 -5.89768e-05 0.103621)
(0.000180171 0.000180139 0.103664)
(5.25391e-05 5.26445e-05 0.103987)
(7.59335e-05 0.000131133 0.103774)
(-7.5947e-05 0.000131139 0.103774)
(7.46881e-05 0.000128277 0.104076)
(-7.4685e-05 0.000128251 0.104076)
(-0.000180119 0.000179805 0.103664)
(-5.26962e-05 5.29102e-05 0.103987)
(0.000131064 7.59801e-05 0.103774)
(0.000131085 -7.59608e-05 0.103774)
(0.000128209 7.46392e-05 0.104076)
(0.000128266 -7.47037e-05 0.104076)
(-0.00013108 -7.59061e-05 0.103774)
(-0.000128217 7.45849e-05 0.104076)
(-0.00012822 -7.46351e-05 0.104076)
(0.000180151 -0.000180045 0.103664)
(5.27647e-05 -5.27381e-05 0.103987)
(-7.6003e-05 -0.000131071 0.103774)
(7.46837e-05 -0.000128218 0.104076)
(-7.45858e-05 -0.000128163 0.104076)
(-5.22887e-05 -5.23302e-05 0.103988)
(0.000178315 0.000178304 0.104022)
(4.64756e-05 4.66576e-05 0.104332)
(7.43316e-05 0.000127397 0.104174)
(-7.43149e-05 0.000127403 0.104174)
(7.32673e-05 0.000124939 0.104463)
(-7.33015e-05 0.000124943 0.104463)
(-0.000178252 0.000177997 0.104023)
(-4.68008e-05 4.71392e-05 0.104332)
(0.000127328 7.4255e-05 0.104174)
(0.000127351 -7.43224e-05 0.104174)
(0.00012487 7.32447e-05 0.104463)
(0.000124922 -7.3291e-05 0.104463)
(-0.000127361 -7.42964e-05 0.104174)
(-0.0001249 7.32338e-05 0.104463)
(-0.000124889 -7.32621e-05 0.104463)
(0.000178438 -0.000178263 0.104023)
(4.66605e-05 -4.66281e-05 0.104332)
(-7.4247e-05 -0.000127323 0.104174)
(7.32629e-05 -0.000124867 0.104463)
(-7.321e-05 -0.000124827 0.104463)
(-4.68722e-05 -4.69362e-05 0.104333)
(0.000177021 0.000177072 0.104358)
(4.12016e-05 4.10776e-05 0.104657)
(7.29853e-05 0.000124171 0.104557)
(-7.29671e-05 0.000124163 0.104557)
(7.20679e-05 0.000121995 0.104834)
(-7.20858e-05 0.000121994 0.104834)
(-0.000177295 0.000177145 0.104358)
(-4.12713e-05 4.16494e-05 0.104656)
(0.000124074 7.29022e-05 0.104557)
(0.000124122 -7.29714e-05 0.104557)
(0.000121931 7.20302e-05 0.104834)
(0.000121991 -7.21063e-05 0.104834)
(-0.000124154 -7.29692e-05 0.104557)
(-0.000121989 7.20531e-05 0.104834)
(-0.000121955 -7.20659e-05 0.104834)
(0.000177206 -0.000177051 0.104358)
(4.10047e-05 -4.12319e-05 0.104657)
(-7.29381e-05 -0.000124103 0.104557)
(7.20481e-05 -0.000121954 0.104834)
(-7.19883e-05 -0.000121891 0.104834)
(-4.149e-05 -4.15701e-05 0.104657)
(0.000176023 0.000176043 0.104672)
(3.64544e-05 3.64361e-05 0.104962)
(7.1849e-05 0.000121339 0.104924)
(-7.18253e-05 0.00012131 0.104924)
(7.09121e-05 0.000119334 0.10519)
(-7.10018e-05 0.000119435 0.10519)
(-0.00017644 0.000176577 0.104672)
(-3.61398e-05 3.60129e-05 0.104962)
(0.000121295 7.17955e-05 0.104924)
(0.000121299 -7.18342e-05 0.104924)
(0.000119252 7.08584e-05 0.10519)
(0.000119321 -7.094e-05 0.10519)
(-0.000121331 -7.18028e-05 0.104924)
(-0.00011939 7.09507e-05 0.10519)
(-0.000119365 -7.09705e-05 0.10519)
(0.00017624 -0.000176165 0.104672)
(3.61434e-05 -3.63198e-05 0.104962)
(-7.17936e-05 -0.000121286 0.104924)
(7.08378e-05 -0.000119251 0.10519)
(-7.0948e-05 -0.000119325 0.10519)
(-3.66789e-05 -3.64599e-05 0.104961)
(0.0001754 0.000175275 0.104967)
(3.16542e-05 3.17027e-05 0.105246)
(7.07034e-05 0.000118812 0.105277)
(-7.06947e-05 0.000118762 0.105276)
(6.98297e-05 0.000116949 0.105531)
(-6.98038e-05 0.000116938 0.105531)
(-0.000175744 0.000175873 0.104966)
(-3.13629e-05 3.12643e-05 0.105247)
(0.000118741 7.06823e-05 0.105277)
(0.000118758 -7.06973e-05 0.105277)
(0.000116881 6.98166e-05 0.105531)
(0.000116913 -6.98335e-05 0.105531)
(-0.000118725 -7.0658e-05 0.105277)
(-0.000116835 6.96987e-05 0.105531)
(-0.000116941 -6.98064e-05 0.105531)
(0.000175157 -0.000175435 0.104967)
(3.16944e-05 -3.13651e-05 0.105246)
(-7.05905e-05 -0.000118637 0.105277)
(6.98419e-05 -0.000116875 0.105531)
(-6.9821e-05 -0.000116884 0.105531)
(-3.09396e-05 -3.11552e-05 0.105247)
(0.000175652 0.000175593 0.10524)
(2.61614e-05 2.61971e-05 0.105512)
(6.95408e-05 0.000116384 0.105614)
(-6.95525e-05 0.000116386 0.105614)
(6.85301e-05 0.000114558 0.105859)
(-6.86183e-05 0.000114578 0.105858)
(-0.000175424 0.000174996 0.10524)
(-2.67101e-05 2.7068e-05 0.105511)
(0.000116276 6.9488e-05 0.105615)
(0.000116373 -6.95994e-05 0.105614)
(0.000114442 6.84668e-05 0.105859)
(0.000114512 -6.85263e-05 0.105858)
(-0.000116282 -6.94669e-05 0.105614)
(-0.000114561 6.86245e-05 0.105859)
(-0.000114511 -6.85876e-05 0.105859)
(0.000175443 -0.000175492 0.10524)
(2.62038e-05 -2.63498e-05 0.105511)
(-6.94641e-05 -0.000116239 0.105614)
(6.84414e-05 -0.000114434 0.105859)
(-6.85035e-05 -0.000114417 0.105859)
(-2.63341e-05 -2.62744e-05 0.105511)
(0.000175066 0.000174982 0.105491)
(2.15431e-05 2.15982e-05 0.105755)
(6.8449e-05 0.000114088 0.105938)
(-6.83698e-05 0.000113995 0.105938)
(6.75751e-05 0.000112246 0.106172)
(-6.75907e-05 0.000112241 0.106172)
(-0.000175504 0.000175782 0.105491)
(-2.11515e-05 2.10352e-05 0.105756)
(0.000113978 6.83757e-05 0.105938)
(0.000114032 -6.84056e-05 0.105938)
(0.000112164 6.74765e-05 0.106172)
(0.00011222 -6.75872e-05 0.106172)
(-0.000114007 -6.84086e-05 0.105938)
(-0.000112175 6.73397e-05 0.106172)
(-0.000112304 -6.7593e-05 0.106171)
(0.000175007 -0.000175088 0.105491)
(2.15969e-05 -2.1446e-05 0.105755)
(-6.83871e-05 -0.000113928 0.105938)
(6.74735e-05 -0.000112175 0.106172)
(-6.7573e-05 -0.000112229 0.106172)
(-2.15837e-05 -2.14422e-05 0.105755)
(0.000174594 0.000174561 0.10572)
(1.5816e-05 1.58321e-05 0.105978)
(6.72093e-05 0.000111684 0.106248)
(-6.71544e-05 0.000111597 0.106247)
(6.62931e-05 0.000109938 0.10647)
(-6.65078e-05 0.000110134 0.10647)
(-0.000174368 0.000174008 0.10572)
(-1.64648e-05 1.66043e-05 0.105977)
(0.00011155 6.71072e-05 0.106248)
(0.000111588 -6.71492e-05 0.106248)
(0.000109851 6.61836e-05 0.10647)
(0.000109994 -6.63108e-05 0.10647)
(-0.000111519 -6.71098e-05 0.106248)
(-0.000110082 6.65865e-05 0.10647)
(-0.000110011 -6.64909e-05 0.10647)
(0.000174655 -0.000174702 0.10572)
(1.6063e-05 -1.60053e-05 0.105978)
(-6.69721e-05 -0.000111428 0.106248)
(6.62737e-05 -0.000109869 0.10647)
(-6.62899e-05 -0.000109893 0.10647)
(-1.67698e-05 -1.66626e-05 0.105977)
(0.000172732 0.000172647 0.105927)
(1.17148e-05 1.18579e-05 0.106176)
(6.64088e-05 0.000109603 0.106542)
(-6.61411e-05 0.000109411 0.106543)
(6.53721e-05 0.000107927 0.106754)
(-6.54142e-05 0.000107973 0.106753)
(-0.000173513 0.000173813 0.105926)
(-1.21015e-05 1.2459e-05 0.106176)
(0.000109554 6.63407e-05 0.106542)
(0.00010955 -6.63218e-05 0.106542)
(0.000107866 6.54133e-05 0.106754)
(0.000107944 -6.54405e-05 0.106753)
(-0.000109455 -6.61146e-05 0.106542)
(-0.000107893 6.5248e-05 0.106754)
(-0.000107969 -6.52886e-05 0.106753)
(0.000172955 -0.000172887 0.105927)
(1.19697e-05 -1.18907e-05 0.106176)
(-6.6084e-05 -0.000109342 0.106543)
(6.52772e-05 -0.000107884 0.106754)
(-6.52364e-05 -0.000107858 0.106754)
(-1.20549e-05 -1.20284e-05 0.106176)
(0.000172197 0.000172385 0.106108)
(7.72268e-06 8.04298e-06 0.106351)
(6.50308e-05 0.000107422 0.106822)
(-6.51019e-05 0.000107483 0.106822)
(6.46093e-05 0.000106014 0.107022)
(-6.44606e-05 0.000106048 0.107021)
(-0.000172259 0.000172239 0.106108)
(-7.57091e-06 7.6851e-06 0.106351)
(0.000107296 6.48962e-05 0.106822)
(0.000107468 -6.50581e-05 0.106822)
(0.000105982 6.44897e-05 0.107022)
(0.000105939 -6.43739e-05 0.107022)
(-0.000107401 -6.48391e-05 0.106822)
(-0.000105951 6.43623e-05 0.107022)
(-0.00010616 -6.47135e-05 0.107021)
(0.000172303 -0.000172444 0.106108)
(7.87176e-06 -7.81838e-06 0.106351)
(-6.4729e-05 -0.000107325 0.106822)
(6.43576e-05 -0.000105827 0.107022)
(-6.46211e-05 -0.000106082 0.107022)
(-7.93259e-06 -7.93204e-06 0.10635)
(0.0001704 0.00017049 0.106265)
(3.56044e-06 3.79289e-06 0.106498)
(6.43302e-05 0.000105585 0.107086)
(-6.42562e-05 0.000105632 0.107086)
(6.33592e-05 0.000104086 0.107273)
(-6.31864e-05 0.000103946 0.107273)
(-0.000170391 0.000170357 0.106264)
(-3.79005e-06 3.90108e-06 0.106498)
(0.000105409 6.40957e-05 0.107086)
(0.000105548 -6.41362e-05 0.107086)
(0.000103974 6.32613e-05 0.107274)
(0.000104001 -6.32201e-05 0.107273)
(-0.000105547 -6.43909e-05 0.107086)
(-0.000103834 6.30128e-05 0.107274)
(-0.000104086 -6.32908e-05 0.107273)
(0.00017024 -0.0001702 0.106265)
(3.67672e-06 -3.48969e-06 0.106498)
(-6.42828e-05 -0.000105485 0.107086)
(6.30896e-05 -0.000103901 0.107274)
(-6.3194e-05 -0.000104015 0.107273)
(-3.52368e-06 -3.48221e-06 0.106497)
(0.000168437 0.000168431 0.106394)
(7.34187e-07 7.72484e-07 0.106619)
(6.29622e-05 0.000103519 0.107334)
(-6.2907e-05 0.000103578 0.107334)
(6.2408e-05 0.000101956 0.107509)
(-6.21365e-05 0.000101969 0.107509)
(-0.000168315 0.00016812 0.106394)
(-6.20321e-07 6.01306e-07 0.10662)
(0.000103359 6.28474e-05 0.107334)
(0.000103499 -6.29543e-05 0.107334)
(0.000102066 6.2188e-05 0.107509)
(0.000102013 -6.22384e-05 0.107508)
(-0.000103477 -6.29146e-05 0.107334)
(-0.000101894 6.20178e-05 0.107509)
(-0.000102089 -6.22938e-05 0.107508)
(0.000168184 -0.000168211 0.106394)
(7.11457e-07 -7.38487e-07 0.106619)
(-6.28274e-05 -0.000103381 0.107334)
(6.21311e-05 -0.000101978 0.107509)
(-6.21748e-05 -0.00010201 0.107509)
(-8.06526e-07 -7.76751e-07 0.106618)
(0.000165864 0.000165736 0.106497)
(-2.79932e-06 -2.56389e-06 0.106711)
(6.19574e-05 0.00010144 0.107565)
(-6.18932e-05 0.000101587 0.107564)
(6.14967e-05 0.000100316 0.107726)
(-6.13768e-05 0.000100242 0.107726)
(-0.000165343 0.000165198 0.106497)
(2.97697e-06 -2.89899e-06 0.106712)
(0.00010142 6.17711e-05 0.107565)
(0.000101448 -6.18524e-05 0.107565)
(0.0001002 6.14859e-05 0.107727)
(0.000100299 -6.1545e-05 0.107726)
(-0.000101438 -6.17798e-05 0.107565)
(-0.000100167 6.13101e-05 0.107727)
(-0.00010047 -6.1995e-05 0.107726)
(0.000165594 -0.000165704 0.106497)
(-2.77583e-06 2.78698e-06 0.106712)
(-6.17405e-05 -0.000101361 0.107565)
(6.153e-05 -0.000100315 0.107727)
(-6.19209e-05 -0.000100483 0.107726)
(2.21538e-06 2.1639e-06 0.106711)
(0.000162558 0.000162597 0.106571)
(6.1333e-05 9.9719e-05 0.107778)
(-6.14674e-05 9.99039e-05 0.107778)
(-0.000162188 0.000162166 0.106571)
(9.96753e-05 6.12605e-05 0.107778)
(9.97574e-05 -6.14023e-05 0.107778)
(-9.97476e-05 -6.1513e-05 0.107778)
(0.000162435 -0.000162446 0.106571)
(-6.15369e-05 -9.99137e-05 0.107778)
(-3.34699e-07 -3.36874e-07 0.0999988)
(1.68267e-05 1.68239e-05 0.100003)
(-4.50183e-07 1.39329e-05 0.1)
(1.39393e-05 -4.53641e-07 0.1)
(-4.65978e-05 5.73196e-06 0.100009)
(-1.52713e-05 1.55859e-05 0.0999999)
(-0.000127874 6.0444e-05 0.100058)
(-1.31107e-05 -8.63712e-07 0.0999958)
(5.73654e-06 -4.65875e-05 0.100009)
(1.55919e-05 -1.5273e-05 0.0999999)
(-8.60383e-07 -1.31108e-05 0.0999958)
(6.04523e-05 -0.000127939 0.100058)
(-1.8729e-05 -1.87308e-05 0.100003)
(-0.000134951 -8.10879e-05 0.100055)
(-8.10852e-05 -0.000134953 0.100055)
(-3.48932e-05 0.000135796 0.100724)
(0.00017668 0.000389394 0.0994172)
(2.31232e-06 0.000305477 0.100517)
(-8.4351e-05 0.000243778 0.0991474)
(-0.000303301 0.000837516 0.0977722)
(-0.000129141 0.000304565 0.0957184)
(0.000135817 -3.49483e-05 0.100724)
(0.000389005 0.000175825 0.0994173)
(0.000306006 2.29208e-06 0.100517)
(0.00024339 -8.39954e-05 0.0991471)
(-0.000107953 0.000107879 0.100299)
(0.000107918 -0.000107956 0.100299)
(-0.000107922 -0.000107932 0.100299)
(9.17258e-05 9.16776e-05 0.100739)
(-9.17353e-05 9.16868e-05 0.100739)
(9.17155e-05 -9.17616e-05 0.100739)
(-9.17243e-05 -9.17885e-05 0.100739)
(-0.000280742 6.44781e-06 0.100754)
(-0.000399029 0.000229263 0.100526)
(-0.000175285 3.73824e-05 0.100332)
(-0.000153251 9.44842e-05 0.100558)
(-0.00035899 1.56271e-05 0.100479)
(-0.000148754 0.000198745 0.100739)
(-0.000152725 3.32778e-05 0.100497)
(0.000837014 -0.000301664 0.0977707)
(0.000304776 -0.000128566 0.0957185)
(6.39333e-06 -0.00028074 0.100754)
(3.74138e-05 -0.00017528 0.100332)
(0.000229243 -0.000399139 0.100526)
(9.44953e-05 -0.000153256 0.100558)
(1.56606e-05 -0.000358953 0.100479)
(3.32993e-05 -0.000152737 0.100497)
(0.000198709 -0.000149007 0.100739)
(-0.000372832 -0.000141984 0.100361)
(-0.000141894 -0.000372783 0.100361)
(-0.000111967 -0.000112073 0.100655)
(1.09329e-05 -7.9004e-05 0.10059)
(-7.88982e-05 1.0977e-05 0.10059)
(-1.66591e-05 0.000198234 0.100867)
(-5.49785e-05 0.000288442 0.0983206)
(-2.04395e-05 0.00020868 0.100777)
(-4.49338e-05 0.000271315 0.0979449)
(-0.000150286 0.000313395 0.0926213)
(-0.000137148 0.000273062 0.0909993)
(0.000198279 -1.67088e-05 0.100867)
(0.000288271 -5.48676e-05 0.0983207)
(0.000208751 -2.04773e-05 0.100777)
(0.000271153 -4.47762e-05 0.0979444)
(-9.42628e-05 9.42401e-05 0.10086)
(9.42646e-05 -9.42944e-05 0.10086)
(-9.42772e-05 -9.43098e-05 0.10086)
(9.61792e-05 9.62014e-05 0.101239)
(-9.61911e-05 9.62037e-05 0.101239)
(9.61958e-05 -9.62048e-05 0.101239)
(-9.62038e-05 -9.62096e-05 0.101239)
(-0.000263626 1.32976e-05 0.101153)
(-0.000219091 0.000214248 0.100819)
(-0.000164533 3.10458e-05 0.100897)
(-0.000160215 9.74208e-05 0.101064)
(-0.000298003 1.41268e-05 0.100977)
(-0.000183245 0.000197862 0.100945)
(-0.000168739 3.24859e-05 0.101019)
(0.000313479 -0.000150015 0.0926206)
(0.000273152 -0.0001369 0.0909996)
(1.33014e-05 -0.000263624 0.101153)
(3.1071e-05 -0.000164553 0.100897)
(0.000214253 -0.000219165 0.100819)
(9.74174e-05 -0.000160245 0.101064)
(1.41289e-05 -0.000297997 0.100977)
(3.25069e-05 -0.000168753 0.101019)
(0.000197806 -0.000183296 0.100945)
(-8.39559e-05 -9.72459e-05 0.100438)
(-9.7187e-05 -8.39233e-05 0.100438)
(-0.000112492 -0.000112528 0.101144)
(-8.67485e-05 -8.27287e-05 0.10043)
(-8.26332e-05 -8.67089e-05 0.10043)
(-9.47564e-06 0.000210687 0.100956)
(-2.19902e-05 0.000281774 0.0971372)
(-1.17224e-05 0.000230453 0.100903)
(-1.23362e-05 0.000257115 0.0967125)
(-0.000117453 0.000226006 0.0883854)
(-9.69411e-05 0.000187304 0.0870646)
(0.000210734 -9.49624e-06 0.100956)
(0.000281667 -2.18624e-05 0.0971373)
(0.000230479 -1.17279e-05 0.100903)
(0.000256981 -1.22134e-05 0.0967117)
(-9.54171e-05 9.54373e-05 0.10137)
(9.54233e-05 -9.54322e-05 0.10137)
(-9.54308e-05 -9.54325e-05 0.10137)
(9.43273e-05 9.43728e-05 0.101763)
(-9.43363e-05 9.43747e-05 0.101763)
(9.43557e-05 -9.43572e-05 0.101763)
(-9.43674e-05 -9.43489e-05 0.101763)
(-0.000251006 1.22235e-05 0.10158)
(-0.00022258 0.000190578 0.101028)
(-0.000167325 3.27894e-05 0.101407)
(-0.000155169 9.28795e-05 0.101577)
(-0.000290193 1.20971e-05 0.101414)
(-0.000182223 0.000169341 0.101123)
(-0.000167161 3.27236e-05 0.101537)
(0.000225915 -0.000117144 0.0883844)
(0.000187297 -9.67042e-05 0.0870642)
(1.22154e-05 -0.000251012 0.10158)
(3.27886e-05 -0.000167329 0.101407)
(0.000190546 -0.000222574 0.101028)
(9.28605e-05 -0.000155185 0.101577)
(1.20899e-05 -0.000290197 0.101414)
(3.27244e-05 -0.000167165 0.101537)
(0.000169322 -0.000182228 0.101123)
(-0.000116187 -9.16141e-05 0.100182)
(-9.15658e-05 -0.000116171 0.100182)
(-0.000101472 -0.000101521 0.101646)
(-0.00011207 -7.23531e-05 0.100087)
(-7.22784e-05 -0.000112027 0.100086)
(-7.05439e-06 0.000210105 0.100952)
(5.39087e-06 0.000258381 0.0958577)
(-7.93406e-06 0.000236315 0.100928)
(1.01882e-05 0.000229816 0.0954232)
(-7.73228e-05 0.000150002 0.0849773)
(-5.91334e-05 0.000118898 0.0839654)
(0.000210142 -7.02761e-06 0.100952)
(0.000258255 5.57775e-06 0.0958578)
(0.000236336 -7.94033e-06 0.100928)
(0.000229667 1.02463e-05 0.0954224)
(-9.38682e-05 9.39106e-05 0.101892)
(9.38943e-05 -9.38916e-05 0.101892)
(-9.39048e-05 -9.38815e-05 0.101892)
(9.18541e-05 9.19049e-05 0.102273)
(-9.18509e-05 9.19035e-05 0.102273)
(9.1888e-05 -9.18835e-05 0.102273)
(-9.1903e-05 -9.18695e-05 0.102273)
(-0.000238535 1.11434e-05 0.101978)
(-0.000219904 0.000162914 0.101142)
(-0.000165101 3.20969e-05 0.101923)
(-0.000150713 8.89868e-05 0.102081)
(-0.000282665 1.10046e-05 0.101822)
(-0.000174929 0.0001413 0.101213)
(-0.000163806 3.17572e-05 0.10205)
(0.000150031 -7.71716e-05 0.0849763)
(0.000118887 -5.89996e-05 0.0839648)
(1.11845e-05 -0.000238569 0.101978)
(3.21002e-05 -0.000165098 0.101923)
(0.00016274 -0.000219944 0.101142)
(8.8978e-05 -0.000150706 0.102081)
(1.10247e-05 -0.000282688 0.101822)
(3.17658e-05 -0.000163804 0.10205)
(0.000141013 -0.000175021 0.101214)
(-0.000133141 -7.94523e-05 0.0997187)
(-7.94237e-05 -0.000133144 0.0997187)
(-9.13722e-05 -9.14134e-05 0.102133)
(-0.000123822 -6.03018e-05 0.0995709)
(-6.0236e-05 -0.000123782 0.0995699)
(-6.43097e-06 0.000202137 0.100851)
(1.88898e-05 0.000227157 0.0945609)
(-6.75259e-06 0.000231248 0.100853)
(1.81811e-05 0.000198128 0.0941438)
(-4.53903e-05 9.53509e-05 0.0823429)
(-3.12611e-05 7.20376e-05 0.0815914)
(0.000202181 -6.38803e-06 0.100851)
(0.000226838 1.92221e-05 0.0945609)
(0.000231307 -6.92267e-06 0.100853)
(0.000197636 1.87128e-05 0.0941427)
(-9.11131e-05 9.11563e-05 0.102398)
(9.11441e-05 -9.11351e-05 0.102398)
(-9.11615e-05 -9.112e-05 0.102398)
(8.8884e-05 8.89518e-05 0.102765)
(-8.88659e-05 8.8935e-05 0.102765)
(8.89306e-05 -8.89097e-05 0.102765)
(-8.89282e-05 -8.88859e-05 0.102765)
(-0.000223498 1.01806e-05 0.102335)
(-0.000210994 0.000137541 0.101162)
(-0.000159034 3.06746e-05 0.102424)
(-0.000144847 8.45121e-05 0.102565)
(-0.000271021 9.93237e-06 0.102189)
(-0.000163998 0.000117649 0.101212)
(-0.00015734 3.03092e-05 0.102546)
(9.54556e-05 -4.54172e-05 0.0823419)
(7.20245e-05 -3.12066e-05 0.0815907)
(1.02526e-05 -0.000223592 0.102335)
(3.06744e-05 -0.000159033 0.102424)
(0.00013785 -0.000210871 0.101161)
(8.45059e-05 -0.000144832 0.102565)
(9.87695e-06 -0.000271042 0.102189)
(3.03235e-05 -0.000157336 0.102546)
(0.000117125 -0.000164124 0.101213)
(-0.000137943 -6.86937e-05 0.0991146)
(-6.8694e-05 -0.000138002 0.0991144)
(-8.08344e-05 -8.08986e-05 0.102593)
(-0.00012574 -5.08288e-05 0.0989325)
(-5.07321e-05 -0.000125869 0.0989311)
(-5.75689e-06 0.000190366 0.100663)
(2.11736e-05 0.000194313 0.0933114)
(-6.39877e-06 0.00022103 0.100689)
(1.67126e-05 0.000166744 0.0929287)
(-2.4026e-05 5.98571e-05 0.0803359)
(-1.33543e-05 4.24816e-05 0.0797844)
(0.000190491 -6.13411e-06 0.100664)
(0.000194127 2.11146e-05 0.0933115)
(0.000221124 -6.89918e-06 0.100689)
(0.00016556 1.76052e-05 0.0929269)
(-8.81402e-05 8.81884e-05 0.102885)
(8.81579e-05 -8.81577e-05 0.102885)
(-8.82033e-05 -8.81422e-05 0.102885)
(8.59837e-05 8.60831e-05 0.103238)
(-8.59764e-05 8.60442e-05 0.103238)
(8.60543e-05 -8.60081e-05 0.103238)
(-8.60254e-05 -8.59649e-05 0.103238)
(-0.000207755 9.728e-06 0.102649)
(-0.000199731 0.000115981 0.101097)
(-0.000152213 2.93328e-05 0.102904)
(-0.000139292 8.07221e-05 0.103024)
(-0.000257491 9.3089e-06 0.102514)
(-0.000152036 9.78004e-05 0.101131)
(-0.000150514 2.9016e-05 0.103021)
(6.02122e-05 -2.41665e-05 0.0803355)
(4.26311e-05 -1.34942e-05 0.0797843)
(9.68806e-06 -0.000207819 0.10265)
(2.93274e-05 -0.000152213 0.102904)
(0.000117049 -0.000199438 0.101097)
(8.07265e-05 -0.000139268 0.103024)
(9.16911e-06 -0.000257451 0.102513)
(2.90315e-05 -0.000150508 0.103021)
(9.81177e-05 -0.000151875 0.101132)
(-0.000134791 -6.09574e-05 0.0984175)
(-6.10666e-05 -0.00013486 0.0984173)
(-7.12542e-05 -7.13528e-05 0.103024)
(-0.0001214 -4.42907e-05 0.0982138)
(-4.4272e-05 -0.000121534 0.0982124)
(-4.41102e-06 0.000176574 0.100404)
(1.697e-05 0.000163963 0.0921466)
(-5.68628e-06 0.000208102 0.100449)
(1.03316e-05 0.000138024 0.0918052)
(-1.13592e-05 3.82507e-05 0.0788051)
(-2.73494e-06 2.45563e-05 0.0784008)
(0.000176862 -5.21037e-06 0.100404)
(0.0001644 1.57944e-05 0.0921469)
(0.000208168 -6.23065e-06 0.100449)
(0.000136681 1.15177e-05 0.0918028)
(-8.52855e-05 8.53681e-05 0.103353)
(8.53157e-05 -8.53293e-05 0.103353)
(-8.53957e-05 -8.53187e-05 0.103353)
(8.34065e-05 8.35185e-05 0.103692)
(-8.34183e-05 8.34818e-05 0.103692)
(8.34989e-05 -8.3447e-05 0.103692)
(-8.34654e-05 -8.33793e-05 0.103692)
(-0.000192439 9.72586e-06 0.102923)
(-0.000187606 9.93071e-05 0.10096)
(-0.000145573 2.82123e-05 0.103363)
(-0.00013434 7.77195e-05 0.103461)
(-0.000243701 8.91395e-06 0.102796)
(-0.000139946 8.13638e-05 0.100979)
(-0.000144011 2.80175e-05 0.103474)
(3.83937e-05 -1.13322e-05 0.0788049)
(2.50053e-05 -3.09251e-06 0.0784006)
(9.5228e-06 -0.000192395 0.102923)
(2.82314e-05 -0.000145571 0.103363)
(9.9602e-05 -0.000187281 0.100959)
(7.77388e-05 -0.000134309 0.103461)
(8.91706e-06 -0.000243614 0.102795)
(2.80145e-05 -0.000144005 0.103474)
(8.26797e-05 -0.000139645 0.10098)
(-0.000127641 -5.50271e-05 0.0976634)
(-5.51424e-05 -0.000127489 0.0976628)
(-6.26917e-05 -6.2831e-05 0.103428)
(-0.000113914 -3.93696e-05 0.0974482)
(-3.9489e-05 -0.000114166 0.0974466)
(-2.45481e-06 0.000162409 0.100086)
(9.19441e-06 0.000138254 0.0910833)
(-3.9966e-06 0.000193779 0.100147)
(3.09407e-06 0.000113262 0.0907829)