/*--------------------------------*- C++ -*----------------------------------*\
| =========                 |                                                 |
| \\      /  F ield         | OpenFOAM: The Open Source CFD Toolbox           |
|  \\    /   O peration     | Version:  v2012                                 |
|   \\  /    A nd           | Website:  www.openfoam.com                      |
|    \\/     M anipulation  |                                                 |
\*---------------------------------------------------------------------------*/
FoamFile
{
    version     2.0;
    format      ascii;
    class       volScalarField;
    location    "0.325";
    object      p;
}
// * * * * * * * * * * * * * * * * * * * * * * * * * * * * * * * * * * * * * //

dimensions      [0 2 -2 0 0 0 0];


internalField   nonuniform List<scalar> 
247104
(
1.85517e-06
1.85509e-06
1.85524e-06
1.8552e-06
1.85511e-06
1.85522e-06
1.85522e-06
1.85503e-06
1.8551e-06
1.85515e-06
1.85521e-06
1.85505e-06
1.85496e-06
1.85508e-06
1.85522e-06
1.85513e-06
1.85524e-06
1.85521e-06
1.85491e-06
1.85454e-06
1.85439e-06
1.85458e-06
1.85495e-06
1.85523e-06
1.85524e-06
1.8552e-06
1.85506e-06
1.85454e-06
1.85405e-06
1.85388e-06
1.8541e-06
1.85461e-06
1.8551e-06
1.8552e-06
1.85518e-06
1.85511e-06
1.85496e-06
1.8544e-06
1.85388e-06
1.8537e-06
1.85393e-06
1.85447e-06
1.85501e-06
1.85509e-06
1.85523e-06
1.85508e-06
1.85458e-06
1.8541e-06
1.85393e-06
1.85415e-06
1.85465e-06
1.85512e-06
1.85523e-06
1.85523e-06
1.85522e-06
1.85496e-06
1.85461e-06
1.85447e-06
1.85465e-06
1.855e-06
1.85524e-06
1.85523e-06
1.85503e-06
1.85513e-06
1.85523e-06
1.8551e-06
1.85501e-06
1.85512e-06
1.85524e-06
1.85509e-06
1.85524e-06
1.8552e-06
1.85509e-06
1.85523e-06
1.85522e-06
1.82194e-06
1.81994e-06
1.81942e-06
1.81821e-06
1.81822e-06
1.81815e-06
1.81815e-06
1.81945e-06
1.81973e-06
1.8194e-06
1.81735e-06
1.81467e-06
1.81463e-06
1.81463e-06
1.81467e-06
1.81775e-06
1.81798e-06
1.8182e-06
1.81467e-06
1.81461e-06
1.81467e-06
1.81467e-06
1.81461e-06
1.81467e-06
1.81812e-06
1.81932e-06
1.82194e-06
1.81822e-06
1.81463e-06
1.81467e-06
1.81477e-06
1.81477e-06
1.81467e-06
1.81464e-06
1.8181e-06
1.81973e-06
1.81994e-06
1.81815e-06
1.81463e-06
1.81467e-06
1.81477e-06
1.81477e-06
1.81467e-06
1.81463e-06
1.81828e-06
1.81829e-06
1.81815e-06
1.81467e-06
1.81461e-06
1.81467e-06
1.81467e-06
1.81461e-06
1.81466e-06
1.81804e-06
1.81921e-06
1.81943e-06
1.81774e-06
1.81467e-06
1.81463e-06
1.81463e-06
1.81467e-06
1.81795e-06
1.81814e-06
1.81957e-06
1.81972e-06
1.81798e-06
1.81812e-06
1.8181e-06
1.81828e-06
1.81805e-06
1.81814e-06
1.81984e-06
1.81933e-06
1.81973e-06
1.81829e-06
1.81921e-06
1.81958e-06
1.80182e-06
1.80164e-06
1.80146e-06
1.79934e-06
1.79925e-06
1.79921e-06
1.79932e-06
1.80144e-06
1.80168e-06
1.80146e-06
1.79862e-06
1.79567e-06
1.79559e-06
1.79559e-06
1.79568e-06
1.79915e-06
1.79978e-06
1.79934e-06
1.79567e-06
1.79539e-06
1.79542e-06
1.79542e-06
1.79539e-06
1.79569e-06
1.79997e-06
1.80193e-06
1.80182e-06
1.79925e-06
1.7956e-06
1.79542e-06
1.79545e-06
1.79545e-06
1.79542e-06
1.79561e-06
1.80002e-06
1.80168e-06
1.80164e-06
1.79921e-06
1.7956e-06
1.79542e-06
1.79545e-06
1.79545e-06
1.79542e-06
1.7956e-06
1.79996e-06
1.79991e-06
1.79932e-06
1.79568e-06
1.7954e-06
1.79542e-06
1.79542e-06
1.79539e-06
1.79568e-06
1.80002e-06
1.80202e-06
1.80143e-06
1.79915e-06
1.79569e-06
1.79561e-06
1.7956e-06
1.79568e-06
1.79963e-06
1.79992e-06
1.80192e-06
1.80168e-06
1.79978e-06
1.79997e-06
1.80002e-06
1.79996e-06
1.80002e-06
1.79992e-06
1.80184e-06
1.80193e-06
1.80168e-06
1.79991e-06
1.80202e-06
1.80193e-06
1.78279e-06
1.78262e-06
1.78247e-06
1.78029e-06
1.7802e-06
1.7801e-06
1.78029e-06
1.78241e-06
1.78268e-06
1.78246e-06
1.77953e-06
1.77658e-06
1.77654e-06
1.77654e-06
1.77658e-06
1.78004e-06
1.78081e-06
1.78028e-06
1.77658e-06
1.77645e-06
1.77646e-06
1.77646e-06
1.77645e-06
1.77658e-06
1.78094e-06
1.7829e-06
1.78278e-06
1.78019e-06
1.77654e-06
1.77646e-06
1.77646e-06
1.77646e-06
1.77646e-06
1.77655e-06
1.781e-06
1.78263e-06
1.7826e-06
1.7801e-06
1.77654e-06
1.77646e-06
1.77646e-06
1.77646e-06
1.77646e-06
1.77655e-06
1.78097e-06
1.78092e-06
1.78028e-06
1.77658e-06
1.77645e-06
1.77646e-06
1.77646e-06
1.77645e-06
1.77658e-06
1.78099e-06
1.78297e-06
1.78241e-06
1.78003e-06
1.77658e-06
1.77654e-06
1.77654e-06
1.77658e-06
1.78073e-06
1.78093e-06
1.78292e-06
1.78267e-06
1.7808e-06
1.78094e-06
1.781e-06
1.78097e-06
1.78098e-06
1.78093e-06
1.78293e-06
1.7829e-06
1.78263e-06
1.78092e-06
1.78296e-06
1.78292e-06
1.76372e-06
1.76354e-06
1.76338e-06
1.76119e-06
1.76109e-06
1.76098e-06
1.76119e-06
1.76334e-06
1.7636e-06
1.76338e-06
1.76044e-06
1.75747e-06
1.75746e-06
1.75746e-06
1.75747e-06
1.76092e-06
1.76173e-06
1.76119e-06
1.75747e-06
1.75744e-06
1.75744e-06
1.75744e-06
1.75744e-06
1.75747e-06
1.76187e-06
1.76382e-06
1.76372e-06
1.76109e-06
1.75746e-06
1.75744e-06
1.75744e-06
1.75744e-06
1.75744e-06
1.75746e-06
1.76197e-06
1.7636e-06
1.76354e-06
1.76098e-06
1.75746e-06
1.75744e-06
1.75744e-06
1.75744e-06
1.75744e-06
1.75746e-06
1.76195e-06
1.76188e-06
1.76119e-06
1.75747e-06
1.75743e-06
1.75744e-06
1.75744e-06
1.75744e-06
1.75747e-06
1.76193e-06
1.76392e-06
1.76334e-06
1.76091e-06
1.75747e-06
1.75746e-06
1.75746e-06
1.75747e-06
1.76171e-06
1.76188e-06
1.76384e-06
1.7636e-06
1.76173e-06
1.76187e-06
1.76197e-06
1.76195e-06
1.76193e-06
1.76188e-06
1.76382e-06
1.76382e-06
1.7636e-06
1.76188e-06
1.76392e-06
1.76384e-06
1.74463e-06
1.74446e-06
1.74429e-06
1.7421e-06
1.742e-06
1.7419e-06
1.7421e-06
1.74425e-06
1.74451e-06
1.74429e-06
1.74135e-06
1.73838e-06
1.73838e-06
1.73838e-06
1.73838e-06
1.74181e-06
1.74264e-06
1.7421e-06
1.73838e-06
1.73837e-06
1.73837e-06
1.73837e-06
1.73837e-06
1.73838e-06
1.74278e-06
1.74474e-06
1.74464e-06
1.742e-06
1.73838e-06
1.73837e-06
1.73837e-06
1.73837e-06
1.73837e-06
1.73838e-06
1.74289e-06
1.74452e-06
1.74446e-06
1.7419e-06
1.73838e-06
1.73837e-06
1.73837e-06
1.73837e-06
1.73837e-06
1.73838e-06
1.74287e-06
1.7428e-06
1.7421e-06
1.73838e-06
1.73837e-06
1.73837e-06
1.73837e-06
1.73837e-06
1.73838e-06
1.74285e-06
1.74484e-06
1.74425e-06
1.74181e-06
1.73838e-06
1.73838e-06
1.73838e-06
1.73838e-06
1.74265e-06
1.7428e-06
1.74475e-06
1.74451e-06
1.74264e-06
1.74278e-06
1.74289e-06
1.74287e-06
1.74285e-06
1.7428e-06
1.74474e-06
1.74474e-06
1.74452e-06
1.7428e-06
1.74484e-06
1.74475e-06
1.72555e-06
1.72538e-06
1.7252e-06
1.72302e-06
1.72291e-06
1.72281e-06
1.72301e-06
1.72517e-06
1.72542e-06
1.7252e-06
1.72227e-06
1.7193e-06
1.71929e-06
1.7193e-06
1.7193e-06
1.72272e-06
1.72356e-06
1.72302e-06
1.7193e-06
1.71929e-06
1.71929e-06
1.71929e-06
1.71929e-06
1.7193e-06
1.7237e-06
1.72566e-06
1.72555e-06
1.72291e-06
1.7193e-06
1.71929e-06
1.71929e-06
1.71929e-06
1.71929e-06
1.71929e-06
1.72381e-06
1.72544e-06
1.72538e-06
1.72281e-06
1.7193e-06
1.71929e-06
1.71929e-06
1.71929e-06
1.71929e-06
1.71929e-06
1.72379e-06
1.72372e-06
1.72301e-06
1.7193e-06
1.71929e-06
1.71929e-06
1.71929e-06
1.71929e-06
1.7193e-06
1.72377e-06
1.72576e-06
1.72517e-06
1.72272e-06
1.7193e-06
1.71929e-06
1.71929e-06
1.7193e-06
1.72357e-06
1.72372e-06
1.72567e-06
1.72542e-06
1.72356e-06
1.72369e-06
1.72381e-06
1.72379e-06
1.72376e-06
1.72372e-06
1.72565e-06
1.72566e-06
1.72544e-06
1.72372e-06
1.72576e-06
1.72567e-06
1.70647e-06
1.7063e-06
1.70612e-06
1.70394e-06
1.70383e-06
1.70373e-06
1.70393e-06
1.70609e-06
1.70634e-06
1.70612e-06
1.70319e-06
1.70021e-06
1.70021e-06
1.70021e-06
1.70021e-06
1.70364e-06
1.70448e-06
1.70393e-06
1.70021e-06
1.70021e-06
1.70021e-06
1.70021e-06
1.70021e-06
1.70021e-06
1.70461e-06
1.70658e-06
1.70647e-06
1.70383e-06
1.70021e-06
1.70021e-06
1.70021e-06
1.70021e-06
1.70021e-06
1.70021e-06
1.70472e-06
1.70636e-06
1.7063e-06
1.70373e-06
1.70021e-06
1.70021e-06
1.70021e-06
1.70021e-06
1.70021e-06
1.70021e-06
1.70471e-06
1.70464e-06
1.70393e-06
1.70021e-06
1.70021e-06
1.70021e-06
1.70021e-06
1.70021e-06
1.70021e-06
1.70469e-06
1.70668e-06
1.70609e-06
1.70364e-06
1.70021e-06
1.70021e-06
1.70021e-06
1.70021e-06
1.70449e-06
1.70464e-06
1.70659e-06
1.70634e-06
1.70448e-06
1.70461e-06
1.70472e-06
1.70471e-06
1.70468e-06
1.70464e-06
1.70657e-06
1.70658e-06
1.70636e-06
1.70464e-06
1.70668e-06
1.70659e-06
1.68739e-06
1.68722e-06
1.68704e-06
1.68485e-06
1.68475e-06
1.68465e-06
1.68485e-06
1.687e-06
1.68726e-06
1.68704e-06
1.68411e-06
1.68113e-06
1.68113e-06
1.68113e-06
1.68113e-06
1.68455e-06
1.68539e-06
1.68485e-06
1.68113e-06
1.68113e-06
1.68113e-06
1.68113e-06
1.68113e-06
1.68113e-06
1.68553e-06
1.6875e-06
1.68739e-06
1.68475e-06
1.68113e-06
1.68113e-06
1.68113e-06
1.68113e-06
1.68113e-06
1.68113e-06
1.68564e-06
1.68728e-06
1.68722e-06
1.68465e-06
1.68113e-06
1.68113e-06
1.68113e-06
1.68113e-06
1.68113e-06
1.68113e-06
1.68563e-06
1.68556e-06
1.68485e-06
1.68113e-06
1.68113e-06
1.68113e-06
1.68113e-06
1.68113e-06
1.68113e-06
1.6856e-06
1.6876e-06
1.687e-06
1.68455e-06
1.68113e-06
1.68113e-06
1.68113e-06
1.68113e-06
1.68541e-06
1.68556e-06
1.68751e-06
1.68726e-06
1.68539e-06
1.68553e-06
1.68564e-06
1.68563e-06
1.6856e-06
1.68556e-06
1.68749e-06
1.6875e-06
1.68728e-06
1.68556e-06
1.6876e-06
1.68751e-06
1.66831e-06
1.66814e-06
1.66796e-06
1.66577e-06
1.66567e-06
1.66557e-06
1.66576e-06
1.66792e-06
1.66818e-06
1.66796e-06
1.66503e-06
1.66205e-06
1.66205e-06
1.66205e-06
1.66205e-06
1.66547e-06
1.66631e-06
1.66577e-06
1.66205e-06
1.66205e-06
1.66205e-06
1.66205e-06
1.66205e-06
1.66205e-06
1.66645e-06
1.66842e-06
1.66831e-06
1.66567e-06
1.66205e-06
1.66205e-06
1.66205e-06
1.66205e-06
1.66205e-06
1.66205e-06
1.66656e-06
1.6682e-06
1.66814e-06
1.66557e-06
1.66205e-06
1.66205e-06
1.66205e-06
1.66205e-06
1.66205e-06
1.66205e-06
1.66655e-06
1.66648e-06
1.66577e-06
1.66205e-06
1.66205e-06
1.66205e-06
1.66205e-06
1.66205e-06
1.66205e-06
1.66652e-06
1.66852e-06
1.66792e-06
1.66547e-06
1.66205e-06
1.66205e-06
1.66205e-06
1.66205e-06
1.66633e-06
1.66648e-06
1.66843e-06
1.66818e-06
1.66631e-06
1.66645e-06
1.66656e-06
1.66655e-06
1.66652e-06
1.66648e-06
1.66841e-06
1.66841e-06
1.6682e-06
1.66648e-06
1.66852e-06
1.66843e-06
1.64923e-06
1.64906e-06
1.64888e-06
1.64669e-06
1.64659e-06
1.64649e-06
1.64669e-06
1.64884e-06
1.6491e-06
1.64888e-06
1.64595e-06
1.64297e-06
1.64297e-06
1.64297e-06
1.64297e-06
1.64639e-06
1.64723e-06
1.64669e-06
1.64297e-06
1.64297e-06
1.64297e-06
1.64297e-06
1.64297e-06
1.64297e-06
1.64737e-06
1.64933e-06
1.64923e-06
1.64659e-06
1.64297e-06
1.64297e-06
1.64297e-06
1.64297e-06
1.64297e-06
1.64297e-06
1.64748e-06
1.64912e-06
1.64906e-06
1.64649e-06
1.64297e-06
1.64297e-06
1.64297e-06
1.64297e-06
1.64297e-06
1.64297e-06
1.64747e-06
1.6474e-06
1.64669e-06
1.64297e-06
1.64297e-06
1.64297e-06
1.64297e-06
1.64297e-06
1.64297e-06
1.64744e-06
1.64944e-06
1.64884e-06
1.64639e-06
1.64297e-06
1.64297e-06
1.64297e-06
1.64297e-06
1.64725e-06
1.6474e-06
1.64934e-06
1.6491e-06
1.64723e-06
1.64737e-06
1.64748e-06
1.64747e-06
1.64744e-06
1.6474e-06
1.64933e-06
1.64933e-06
1.64912e-06
1.6474e-06
1.64944e-06
1.64935e-06
1.63015e-06
1.62998e-06
1.6298e-06
1.62761e-06
1.62751e-06
1.62741e-06
1.62761e-06
1.62976e-06
1.63002e-06
1.6298e-06
1.62687e-06
1.62389e-06
1.62389e-06
1.62389e-06
1.62389e-06
1.62731e-06
1.62815e-06
1.62761e-06
1.62389e-06
1.62389e-06
1.62389e-06
1.62389e-06
1.62389e-06
1.62389e-06
1.62829e-06
1.63026e-06
1.63015e-06
1.62751e-06
1.62389e-06
1.62389e-06
1.62389e-06
1.62389e-06
1.62389e-06
1.62389e-06
1.6284e-06
1.63004e-06
1.62998e-06
1.62741e-06
1.62389e-06
1.62389e-06
1.62389e-06
1.62389e-06
1.62389e-06
1.62389e-06
1.62839e-06
1.62832e-06
1.62761e-06
1.62389e-06
1.62389e-06
1.62389e-06
1.62389e-06
1.62389e-06
1.62389e-06
1.62836e-06
1.63036e-06
1.62976e-06
1.62731e-06
1.62389e-06
1.62389e-06
1.62389e-06
1.62389e-06
1.62817e-06
1.62832e-06
1.63027e-06
1.63002e-06
1.62815e-06
1.62829e-06
1.6284e-06
1.62839e-06
1.62836e-06
1.62832e-06
1.63025e-06
1.63025e-06
1.63004e-06
1.62832e-06
1.63036e-06
1.63027e-06
1.61107e-06
1.6109e-06
1.61072e-06
1.60853e-06
1.60843e-06
1.60833e-06
1.60853e-06
1.61068e-06
1.61094e-06
1.61072e-06
1.60779e-06
1.60481e-06
1.60481e-06
1.60481e-06
1.60481e-06
1.60823e-06
1.60907e-06
1.60853e-06
1.60481e-06
1.60481e-06
1.60481e-06
1.60481e-06
1.60481e-06
1.60481e-06
1.60921e-06
1.61118e-06
1.61107e-06
1.60843e-06
1.60481e-06
1.60481e-06
1.60481e-06
1.60481e-06
1.60481e-06
1.60481e-06
1.60932e-06
1.61096e-06
1.6109e-06
1.60833e-06
1.60481e-06
1.60481e-06
1.60481e-06
1.60481e-06
1.60481e-06
1.60481e-06
1.60931e-06
1.60924e-06
1.60853e-06
1.60481e-06
1.60481e-06
1.60481e-06
1.60481e-06
1.60481e-06
1.60481e-06
1.60928e-06
1.61128e-06
1.61068e-06
1.60823e-06
1.60481e-06
1.60481e-06
1.60481e-06
1.60481e-06
1.60909e-06
1.60924e-06
1.61119e-06
1.61094e-06
1.60907e-06
1.60921e-06
1.60932e-06
1.60931e-06
1.60928e-06
1.60924e-06
1.61117e-06
1.61117e-06
1.61096e-06
1.60924e-06
1.61128e-06
1.61119e-06
1.59199e-06
1.59182e-06
1.59164e-06
1.58945e-06
1.58935e-06
1.58925e-06
1.58945e-06
1.5916e-06
1.59186e-06
1.59164e-06
1.58871e-06
1.58573e-06
1.58573e-06
1.58573e-06
1.58573e-06
1.58915e-06
1.58999e-06
1.58945e-06
1.58573e-06
1.58573e-06
1.58573e-06
1.58573e-06
1.58573e-06
1.58573e-06
1.59013e-06
1.5921e-06
1.59199e-06
1.58935e-06
1.58573e-06
1.58573e-06
1.58573e-06
1.58573e-06
1.58573e-06
1.58573e-06
1.59024e-06
1.59188e-06
1.59182e-06
1.58925e-06
1.58573e-06
1.58573e-06
1.58573e-06
1.58573e-06
1.58573e-06
1.58573e-06
1.59023e-06
1.59016e-06
1.58945e-06
1.58573e-06
1.58573e-06
1.58573e-06
1.58573e-06
1.58573e-06
1.58573e-06
1.5902e-06
1.5922e-06
1.5916e-06
1.58915e-06
1.58573e-06
1.58573e-06
1.58573e-06
1.58573e-06
1.59001e-06
1.59016e-06
1.59211e-06
1.59186e-06
1.58999e-06
1.59013e-06
1.59024e-06
1.59023e-06
1.5902e-06
1.59016e-06
1.59209e-06
1.59209e-06
1.59188e-06
1.59016e-06
1.5922e-06
1.59211e-06
1.57291e-06
1.57274e-06
1.57256e-06
1.57037e-06
1.57027e-06
1.57017e-06
1.57037e-06
1.57252e-06
1.57278e-06
1.57256e-06
1.56963e-06
1.56665e-06
1.56665e-06
1.56665e-06
1.56665e-06
1.57007e-06
1.57091e-06
1.57037e-06
1.56665e-06
1.56665e-06
1.56665e-06
1.56665e-06
1.56665e-06
1.56665e-06
1.57105e-06
1.57302e-06
1.57291e-06
1.57027e-06
1.56665e-06
1.56665e-06
1.56665e-06
1.56665e-06
1.56665e-06
1.56665e-06
1.57116e-06
1.5728e-06
1.57274e-06
1.57017e-06
1.56665e-06
1.56665e-06
1.56665e-06
1.56665e-06
1.56665e-06
1.56665e-06
1.57115e-06
1.57108e-06
1.57037e-06
1.56665e-06
1.56665e-06
1.56665e-06
1.56665e-06
1.56665e-06
1.56665e-06
1.57112e-06
1.57312e-06
1.57252e-06
1.57007e-06
1.56665e-06
1.56665e-06
1.56665e-06
1.56665e-06
1.57093e-06
1.57108e-06
1.57303e-06
1.57278e-06
1.57091e-06
1.57105e-06
1.57116e-06
1.57115e-06
1.57112e-06
1.57108e-06
1.57301e-06
1.57302e-06
1.5728e-06
1.57108e-06
1.57312e-06
1.57303e-06
1.55383e-06
1.55366e-06
1.55348e-06
1.55129e-06
1.55119e-06
1.55109e-06
1.55129e-06
1.55345e-06
1.5537e-06
1.55348e-06
1.55055e-06
1.54757e-06
1.54757e-06
1.54757e-06
1.54757e-06
1.55099e-06
1.55183e-06
1.55129e-06
1.54757e-06
1.54757e-06
1.54757e-06
1.54757e-06
1.54757e-06
1.54757e-06
1.55197e-06
1.55394e-06
1.55383e-06
1.55119e-06
1.54757e-06
1.54757e-06
1.54757e-06
1.54757e-06
1.54757e-06
1.54757e-06
1.55208e-06
1.55372e-06
1.55366e-06
1.55109e-06
1.54757e-06
1.54757e-06
1.54757e-06
1.54757e-06
1.54757e-06
1.54757e-06
1.55207e-06
1.552e-06
1.55129e-06
1.54757e-06
1.54757e-06
1.54757e-06
1.54757e-06
1.54757e-06
1.54757e-06
1.55205e-06
1.55404e-06
1.55345e-06
1.551e-06
1.54757e-06
1.54757e-06
1.54757e-06
1.54757e-06
1.55185e-06
1.552e-06
1.55395e-06
1.5537e-06
1.55184e-06
1.55197e-06
1.55208e-06
1.55207e-06
1.55204e-06
1.552e-06
1.55393e-06
1.55394e-06
1.55372e-06
1.552e-06
1.55404e-06
1.55395e-06
1.53475e-06
1.53458e-06
1.5344e-06
1.53222e-06
1.53211e-06
1.53201e-06
1.53221e-06
1.53437e-06
1.53462e-06
1.5344e-06
1.53147e-06
1.52849e-06
1.52849e-06
1.52849e-06
1.52849e-06
1.53192e-06
1.53276e-06
1.53221e-06
1.52849e-06
1.52849e-06
1.52849e-06
1.52849e-06
1.52849e-06
1.52849e-06
1.53289e-06
1.53486e-06
1.53475e-06
1.53211e-06
1.52849e-06
1.52849e-06
1.52849e-06
1.52849e-06
1.52849e-06
1.52849e-06
1.53301e-06
1.53464e-06
1.53458e-06
1.53201e-06
1.52849e-06
1.52849e-06
1.52849e-06
1.52849e-06
1.52849e-06
1.52849e-06
1.53299e-06
1.53292e-06
1.53221e-06
1.52849e-06
1.52849e-06
1.52849e-06
1.52849e-06
1.52849e-06
1.52849e-06
1.53297e-06
1.53496e-06
1.53437e-06
1.53192e-06
1.52849e-06
1.52849e-06
1.52849e-06
1.52849e-06
1.53277e-06
1.53292e-06
1.53487e-06
1.53462e-06
1.53276e-06
1.53289e-06
1.533e-06
1.53299e-06
1.53296e-06
1.53292e-06
1.53485e-06
1.53486e-06
1.53464e-06
1.53292e-06
1.53496e-06
1.53487e-06
1.51567e-06
1.5155e-06
1.51532e-06
1.51314e-06
1.51303e-06
1.51293e-06
1.51313e-06
1.51529e-06
1.51554e-06
1.51532e-06
1.51239e-06
1.50942e-06
1.50942e-06
1.50942e-06
1.50942e-06
1.51284e-06
1.51368e-06
1.51314e-06
1.50942e-06
1.50942e-06
1.50942e-06
1.50942e-06
1.50942e-06
1.50942e-06
1.51381e-06
1.51578e-06
1.51567e-06
1.51303e-06
1.50942e-06
1.50942e-06
1.50942e-06
1.50942e-06
1.50942e-06
1.50942e-06
1.51393e-06
1.51557e-06
1.5155e-06
1.51293e-06
1.50942e-06
1.50942e-06
1.50942e-06
1.50942e-06
1.50942e-06
1.50942e-06
1.51391e-06
1.51384e-06
1.51313e-06
1.50942e-06
1.50942e-06
1.50942e-06
1.50942e-06
1.50942e-06
1.50942e-06
1.51389e-06
1.51589e-06
1.51529e-06
1.51284e-06
1.50942e-06
1.50942e-06
1.50942e-06
1.50942e-06
1.51369e-06
1.51385e-06
1.51579e-06
1.51554e-06
1.51368e-06
1.51381e-06
1.51392e-06
1.51391e-06
1.51388e-06
1.51385e-06
1.51577e-06
1.51578e-06
1.51557e-06
1.51384e-06
1.51589e-06
1.51579e-06
1.49659e-06
1.49642e-06
1.49624e-06
1.49406e-06
1.49395e-06
1.49385e-06
1.49405e-06
1.49621e-06
1.49646e-06
1.49624e-06
1.49331e-06
1.49034e-06
1.49034e-06
1.49034e-06
1.49034e-06
1.49376e-06
1.4946e-06
1.49406e-06
1.49034e-06
1.49034e-06
1.49034e-06
1.49034e-06
1.49034e-06
1.49034e-06
1.49473e-06
1.4967e-06
1.49659e-06
1.49395e-06
1.49034e-06
1.49034e-06
1.49034e-06
1.49034e-06
1.49034e-06
1.49034e-06
1.49485e-06
1.49649e-06
1.49642e-06
1.49385e-06
1.49034e-06
1.49034e-06
1.49034e-06
1.49034e-06
1.49034e-06
1.49034e-06
1.49483e-06
1.49476e-06
1.49405e-06
1.49034e-06
1.49034e-06
1.49034e-06
1.49034e-06
1.49034e-06
1.49034e-06
1.49481e-06
1.49681e-06
1.49621e-06
1.49376e-06
1.49034e-06
1.49034e-06
1.49034e-06
1.49034e-06
1.49461e-06
1.49477e-06
1.49671e-06
1.49646e-06
1.4946e-06
1.49473e-06
1.49485e-06
1.49483e-06
1.4948e-06
1.49477e-06
1.49669e-06
1.4967e-06
1.49649e-06
1.49476e-06
1.49681e-06
1.49671e-06
1.47751e-06
1.47734e-06
1.47716e-06
1.47498e-06
1.47487e-06
1.47477e-06
1.47497e-06
1.47713e-06
1.47738e-06
1.47716e-06
1.47423e-06
1.47126e-06
1.47126e-06
1.47126e-06
1.47126e-06
1.47468e-06
1.47552e-06
1.47498e-06
1.47126e-06
1.47126e-06
1.47126e-06
1.47126e-06
1.47126e-06
1.47126e-06
1.47565e-06
1.47762e-06
1.47751e-06
1.47487e-06
1.47126e-06
1.47126e-06
1.47126e-06
1.47126e-06
1.47126e-06
1.47126e-06
1.47577e-06
1.47741e-06
1.47734e-06
1.47477e-06
1.47126e-06
1.47126e-06
1.47126e-06
1.47126e-06
1.47126e-06
1.47126e-06
1.47575e-06
1.47568e-06
1.47497e-06
1.47126e-06
1.47126e-06
1.47126e-06
1.47126e-06
1.47126e-06
1.47126e-06
1.47573e-06
1.47773e-06
1.47713e-06
1.47468e-06
1.47126e-06
1.47126e-06
1.47126e-06
1.47126e-06
1.47553e-06
1.47569e-06
1.47763e-06
1.47738e-06
1.47552e-06
1.47565e-06
1.47577e-06
1.47575e-06
1.47572e-06
1.47569e-06
1.47761e-06
1.47762e-06
1.47741e-06
1.47569e-06
1.47773e-06
1.47763e-06
1.45843e-06
1.45826e-06
1.45808e-06
1.4559e-06
1.45579e-06
1.45569e-06
1.45589e-06
1.45805e-06
1.4583e-06
1.45808e-06
1.45516e-06
1.45218e-06
1.45218e-06
1.45218e-06
1.45218e-06
1.4556e-06
1.45644e-06
1.4559e-06
1.45218e-06
1.45218e-06
1.45218e-06
1.45218e-06
1.45218e-06
1.45218e-06
1.45658e-06
1.45854e-06
1.45844e-06
1.45579e-06
1.45218e-06
1.45218e-06
1.45218e-06
1.45218e-06
1.45218e-06
1.45218e-06
1.45669e-06
1.45833e-06
1.45827e-06
1.45569e-06
1.45218e-06
1.45218e-06
1.45218e-06
1.45218e-06
1.45218e-06
1.45218e-06
1.45667e-06
1.45661e-06
1.45589e-06
1.45218e-06
1.45218e-06
1.45218e-06
1.45218e-06
1.45218e-06
1.45218e-06
1.45665e-06
1.45865e-06
1.45805e-06
1.4556e-06
1.45218e-06
1.45218e-06
1.45218e-06
1.45218e-06
1.45645e-06
1.45661e-06
1.45855e-06
1.4583e-06
1.45644e-06
1.45658e-06
1.45669e-06
1.45667e-06
1.45665e-06
1.45661e-06
1.45853e-06
1.45854e-06
1.45833e-06
1.45661e-06
1.45865e-06
1.45855e-06
1.43936e-06
1.43919e-06
1.43901e-06
1.43682e-06
1.43672e-06
1.43662e-06
1.43681e-06
1.43897e-06
1.43923e-06
1.43901e-06
1.43608e-06
1.4331e-06
1.4331e-06
1.4331e-06
1.4331e-06
1.43652e-06
1.43736e-06
1.43682e-06
1.4331e-06
1.4331e-06
1.4331e-06
1.4331e-06
1.4331e-06
1.4331e-06
1.4375e-06
1.43946e-06
1.43936e-06
1.43672e-06
1.4331e-06
1.4331e-06
1.4331e-06
1.4331e-06
1.4331e-06
1.4331e-06
1.43761e-06
1.43925e-06
1.43919e-06
1.43662e-06
1.4331e-06
1.4331e-06
1.4331e-06
1.4331e-06
1.4331e-06
1.4331e-06
1.4376e-06
1.43753e-06
1.43681e-06
1.4331e-06
1.4331e-06
1.4331e-06
1.4331e-06
1.4331e-06
1.4331e-06
1.43757e-06
1.43957e-06
1.43897e-06
1.43652e-06
1.4331e-06
1.4331e-06
1.4331e-06
1.4331e-06
1.43737e-06
1.43753e-06
1.43947e-06
1.43923e-06
1.43736e-06
1.4375e-06
1.43761e-06
1.4376e-06
1.43757e-06
1.43753e-06
1.43945e-06
1.43946e-06
1.43925e-06
1.43753e-06
1.43957e-06
1.43947e-06
1.42028e-06
1.42011e-06
1.41993e-06
1.41774e-06
1.41764e-06
1.41754e-06
1.41774e-06
1.41989e-06
1.42015e-06
1.41993e-06
1.417e-06
1.41402e-06
1.41402e-06
1.41402e-06
1.41402e-06
1.41744e-06
1.41828e-06
1.41774e-06
1.41402e-06
1.41402e-06
1.41402e-06
1.41402e-06
1.41402e-06
1.41402e-06
1.41842e-06
1.42038e-06
1.42028e-06
1.41764e-06
1.41402e-06
1.41402e-06
1.41402e-06
1.41402e-06
1.41402e-06
1.41402e-06
1.41853e-06
1.42017e-06
1.42011e-06
1.41754e-06
1.41402e-06
1.41402e-06
1.41402e-06
1.41402e-06
1.41402e-06
1.41402e-06
1.41852e-06
1.41845e-06
1.41774e-06
1.41402e-06
1.41402e-06
1.41402e-06
1.41402e-06
1.41402e-06
1.41402e-06
1.41849e-06
1.42049e-06
1.41989e-06
1.41744e-06
1.41402e-06
1.41402e-06
1.41402e-06
1.41402e-06
1.4183e-06
1.41845e-06
1.42039e-06
1.42015e-06
1.41828e-06
1.41842e-06
1.41853e-06
1.41852e-06
1.41849e-06
1.41845e-06
1.42038e-06
1.42038e-06
1.42017e-06
1.41845e-06
1.42049e-06
1.4204e-06
1.4012e-06
1.40103e-06
1.40085e-06
1.39866e-06
1.39856e-06
1.39846e-06
1.39866e-06
1.40081e-06
1.40107e-06
1.40085e-06
1.39792e-06
1.39494e-06
1.39494e-06
1.39494e-06
1.39494e-06
1.39836e-06
1.3992e-06
1.39866e-06
1.39494e-06
1.39494e-06
1.39494e-06
1.39494e-06
1.39494e-06
1.39494e-06
1.39934e-06
1.40131e-06
1.4012e-06
1.39856e-06
1.39494e-06
1.39494e-06
1.39494e-06
1.39494e-06
1.39494e-06
1.39494e-06
1.39945e-06
1.40109e-06
1.40103e-06
1.39846e-06
1.39494e-06
1.39494e-06
1.39494e-06
1.39494e-06
1.39494e-06
1.39494e-06
1.39944e-06
1.39937e-06
1.39866e-06
1.39494e-06
1.39494e-06
1.39494e-06
1.39494e-06
1.39494e-06
1.39494e-06
1.39941e-06
1.40141e-06
1.40081e-06
1.39836e-06
1.39494e-06
1.39494e-06
1.39494e-06
1.39494e-06
1.39922e-06
1.39937e-06
1.40132e-06
1.40107e-06
1.3992e-06
1.39934e-06
1.39945e-06
1.39944e-06
1.39941e-06
1.39937e-06
1.4013e-06
1.4013e-06
1.40109e-06
1.39937e-06
1.40141e-06
1.40132e-06
1.38212e-06
1.38195e-06
1.38177e-06
1.37958e-06
1.37948e-06
1.37938e-06
1.37958e-06
1.38173e-06
1.38199e-06
1.38177e-06
1.37884e-06
1.37586e-06
1.37586e-06
1.37586e-06
1.37586e-06
1.37928e-06
1.38012e-06
1.37958e-06
1.37586e-06
1.37586e-06
1.37586e-06
1.37586e-06
1.37586e-06
1.37586e-06
1.38026e-06
1.38223e-06
1.38212e-06
1.37948e-06
1.37586e-06
1.37586e-06
1.37586e-06
1.37586e-06
1.37586e-06
1.37586e-06
1.38037e-06
1.38201e-06
1.38195e-06
1.37938e-06
1.37586e-06
1.37586e-06
1.37586e-06
1.37586e-06
1.37586e-06
1.37586e-06
1.38036e-06
1.38029e-06
1.37958e-06
1.37586e-06
1.37586e-06
1.37586e-06
1.37586e-06
1.37586e-06
1.37586e-06
1.38033e-06
1.38233e-06
1.38173e-06
1.37928e-06
1.37586e-06
1.37586e-06
1.37586e-06
1.37586e-06
1.38014e-06
1.38029e-06
1.38224e-06
1.38199e-06
1.38012e-06
1.38026e-06
1.38037e-06
1.38036e-06
1.38033e-06
1.38029e-06
1.38222e-06
1.38223e-06
1.38201e-06
1.38029e-06
1.38233e-06
1.38224e-06
1.36304e-06
1.36287e-06
1.36269e-06
1.3605e-06
1.3604e-06
1.3603e-06
1.3605e-06
1.36265e-06
1.36291e-06
1.36269e-06
1.35976e-06
1.35678e-06
1.35678e-06
1.35678e-06
1.35678e-06
1.3602e-06
1.36104e-06
1.3605e-06
1.35678e-06
1.35678e-06
1.35678e-06
1.35678e-06
1.35678e-06
1.35678e-06
1.36118e-06
1.36315e-06
1.36304e-06
1.3604e-06
1.35678e-06
1.35678e-06
1.35678e-06
1.35678e-06
1.35678e-06
1.35678e-06
1.36129e-06
1.36293e-06
1.36287e-06
1.3603e-06
1.35678e-06
1.35678e-06
1.35678e-06
1.35678e-06
1.35678e-06
1.35678e-06
1.36128e-06
1.36121e-06
1.3605e-06
1.35678e-06
1.35678e-06
1.35678e-06
1.35678e-06
1.35678e-06
1.35678e-06
1.36125e-06
1.36325e-06
1.36265e-06
1.3602e-06
1.35678e-06
1.35678e-06
1.35678e-06
1.35678e-06
1.36106e-06
1.36121e-06
1.36316e-06
1.36291e-06
1.36105e-06
1.36118e-06
1.36129e-06
1.36128e-06
1.36125e-06
1.36121e-06
1.36314e-06
1.36315e-06
1.36293e-06
1.36121e-06
1.36325e-06
1.36316e-06
1.34396e-06
1.34379e-06
1.34361e-06
1.34142e-06
1.34132e-06
1.34122e-06
1.34142e-06
1.34357e-06
1.34383e-06
1.34361e-06
1.34068e-06
1.3377e-06
1.3377e-06
1.3377e-06
1.3377e-06
1.34112e-06
1.34196e-06
1.34142e-06
1.3377e-06
1.3377e-06
1.3377e-06
1.3377e-06
1.3377e-06
1.3377e-06
1.3421e-06
1.34407e-06
1.34396e-06
1.34132e-06
1.3377e-06
1.3377e-06
1.3377e-06
1.3377e-06
1.3377e-06
1.3377e-06
1.34221e-06
1.34385e-06
1.34379e-06
1.34122e-06
1.3377e-06
1.3377e-06
1.3377e-06
1.3377e-06
1.3377e-06
1.3377e-06
1.3422e-06
1.34213e-06
1.34142e-06
1.3377e-06
1.3377e-06
1.3377e-06
1.3377e-06
1.3377e-06
1.3377e-06
1.34217e-06
1.34417e-06
1.34358e-06
1.34113e-06
1.3377e-06
1.3377e-06
1.3377e-06
1.3377e-06
1.34198e-06
1.34213e-06
1.34408e-06
1.34383e-06
1.34197e-06
1.3421e-06
1.34221e-06
1.3422e-06
1.34217e-06
1.34213e-06
1.34406e-06
1.34407e-06
1.34385e-06
1.34213e-06
1.34417e-06
1.34408e-06
1.32488e-06
1.32471e-06
1.32453e-06
1.32234e-06
1.32224e-06
1.32214e-06
1.32234e-06
1.32449e-06
1.32475e-06
1.32453e-06
1.3216e-06
1.31862e-06
1.31862e-06
1.31862e-06
1.31862e-06
1.32204e-06
1.32288e-06
1.32234e-06
1.31862e-06
1.31862e-06
1.31862e-06
1.31862e-06
1.31862e-06
1.31862e-06
1.32302e-06
1.32499e-06
1.32488e-06
1.32224e-06
1.31862e-06
1.31862e-06
1.31862e-06
1.31862e-06
1.31862e-06
1.31862e-06
1.32313e-06
1.32477e-06
1.32471e-06
1.32214e-06
1.31862e-06
1.31862e-06
1.31862e-06
1.31862e-06
1.31862e-06
1.31862e-06
1.32312e-06
1.32305e-06
1.32234e-06
1.31862e-06
1.31862e-06
1.31862e-06
1.31862e-06
1.31862e-06
1.31862e-06
1.32309e-06
1.32509e-06
1.32449e-06
1.32205e-06
1.31862e-06
1.31862e-06
1.31862e-06
1.31862e-06
1.3229e-06
1.32305e-06
1.325e-06
1.32475e-06
1.32289e-06
1.32302e-06
1.32313e-06
1.32312e-06
1.32309e-06
1.32305e-06
1.32498e-06
1.32499e-06
1.32477e-06
1.32305e-06
1.32509e-06
1.325e-06
1.3058e-06
1.30563e-06
1.30545e-06
1.30326e-06
1.30316e-06
1.30306e-06
1.30326e-06
1.30541e-06
1.30567e-06
1.30545e-06
1.30252e-06
1.29954e-06
1.29954e-06
1.29954e-06
1.29954e-06
1.30296e-06
1.3038e-06
1.30326e-06
1.29954e-06
1.29954e-06
1.29954e-06
1.29954e-06
1.29954e-06
1.29954e-06
1.30394e-06
1.30591e-06
1.3058e-06
1.30316e-06
1.29954e-06
1.29954e-06
1.29954e-06
1.29954e-06
1.29954e-06
1.29954e-06
1.30405e-06
1.30569e-06
1.30563e-06
1.30306e-06
1.29954e-06
1.29954e-06
1.29954e-06
1.29954e-06
1.29954e-06
1.29954e-06
1.30404e-06
1.30397e-06
1.30326e-06
1.29954e-06
1.29954e-06
1.29954e-06
1.29954e-06
1.29954e-06
1.29954e-06
1.30401e-06
1.30601e-06
1.30541e-06
1.30297e-06
1.29954e-06
1.29954e-06
1.29954e-06
1.29954e-06
1.30382e-06
1.30397e-06
1.30592e-06
1.30567e-06
1.30381e-06
1.30394e-06
1.30405e-06
1.30404e-06
1.30401e-06
1.30397e-06
1.3059e-06
1.30591e-06
1.30569e-06
1.30397e-06
1.30601e-06
1.30592e-06
1.28672e-06
1.28655e-06
1.28637e-06
1.28418e-06
1.28408e-06
1.28398e-06
1.28418e-06
1.28633e-06
1.28659e-06
1.28637e-06
1.28344e-06
1.28046e-06
1.28046e-06
1.28046e-06
1.28046e-06
1.28388e-06
1.28472e-06
1.28418e-06
1.28046e-06
1.28046e-06
1.28046e-06
1.28046e-06
1.28046e-06
1.28046e-06
1.28486e-06
1.28683e-06
1.28672e-06
1.28408e-06
1.28046e-06
1.28046e-06
1.28046e-06
1.28046e-06
1.28046e-06
1.28046e-06
1.28497e-06
1.28661e-06
1.28655e-06
1.28398e-06
1.28046e-06
1.28046e-06
1.28046e-06
1.28046e-06
1.28046e-06
1.28046e-06
1.28496e-06
1.28489e-06
1.28418e-06
1.28046e-06
1.28046e-06
1.28046e-06
1.28046e-06
1.28046e-06
1.28046e-06
1.28493e-06
1.28693e-06
1.28633e-06
1.28388e-06
1.28046e-06
1.28046e-06
1.28046e-06
1.28046e-06
1.28474e-06
1.28489e-06
1.28684e-06
1.28659e-06
1.28472e-06
1.28486e-06
1.28497e-06
1.28496e-06
1.28493e-06
1.28489e-06
1.28682e-06
1.28683e-06
1.28661e-06
1.28489e-06
1.28693e-06
1.28684e-06
1.26764e-06
1.26747e-06
1.26729e-06
1.2651e-06
1.265e-06
1.2649e-06
1.2651e-06
1.26725e-06
1.26751e-06
1.26729e-06
1.26436e-06
1.26138e-06
1.26138e-06
1.26138e-06
1.26138e-06
1.2648e-06
1.26564e-06
1.2651e-06
1.26138e-06
1.26138e-06
1.26138e-06
1.26138e-06
1.26138e-06
1.26138e-06
1.26578e-06
1.26775e-06
1.26764e-06
1.265e-06
1.26138e-06
1.26138e-06
1.26138e-06
1.26138e-06
1.26138e-06
1.26138e-06
1.26589e-06
1.26753e-06
1.26747e-06
1.2649e-06
1.26138e-06
1.26138e-06
1.26138e-06
1.26138e-06
1.26138e-06
1.26138e-06
1.26588e-06
1.26581e-06
1.2651e-06
1.26138e-06
1.26138e-06
1.26138e-06
1.26138e-06
1.26138e-06
1.26138e-06
1.26585e-06
1.26785e-06
1.26725e-06
1.2648e-06
1.26138e-06
1.26138e-06
1.26138e-06
1.26138e-06
1.26566e-06
1.26581e-06
1.26776e-06
1.26751e-06
1.26564e-06
1.26578e-06
1.26589e-06
1.26588e-06
1.26585e-06
1.26581e-06
1.26774e-06
1.26774e-06
1.26753e-06
1.26581e-06
1.26785e-06
1.26776e-06
1.24856e-06
1.24839e-06
1.24821e-06
1.24602e-06
1.24592e-06
1.24582e-06
1.24601e-06
1.24817e-06
1.24843e-06
1.24821e-06
1.24528e-06
1.2423e-06
1.2423e-06
1.2423e-06
1.2423e-06
1.24572e-06
1.24656e-06
1.24602e-06
1.2423e-06
1.2423e-06
1.2423e-06
1.2423e-06
1.2423e-06
1.2423e-06
1.2467e-06
1.24866e-06
1.24856e-06
1.24592e-06
1.2423e-06
1.2423e-06
1.2423e-06
1.2423e-06
1.2423e-06
1.2423e-06
1.24681e-06
1.24845e-06
1.24839e-06
1.24582e-06
1.2423e-06
1.2423e-06
1.2423e-06
1.2423e-06
1.2423e-06
1.2423e-06
1.2468e-06
1.24673e-06
1.24601e-06
1.2423e-06
1.2423e-06
1.2423e-06
1.2423e-06
1.2423e-06
1.2423e-06
1.24677e-06
1.24877e-06
1.24817e-06
1.24572e-06
1.2423e-06
1.2423e-06
1.2423e-06
1.2423e-06
1.24658e-06
1.24673e-06
1.24867e-06
1.24843e-06
1.24656e-06