/*--------------------------------*- C++ -*----------------------------------*\
| =========                 |                                                 |
| \\      /  F ield         | OpenFOAM: The Open Source CFD Toolbox           |
|  \\    /   O peration     | Version:  v2006                                 |
|   \\  /    A nd           | Website:  www.openfoam.com                      |
|    \\/     M anipulation  |                                                 |
\*---------------------------------------------------------------------------*/
FoamFile
{
    version     2.0;
    format      ascii;
    class       volScalarField;
    location    "375";
    object      epsilon;
}
// * * * * * * * * * * * * * * * * * * * * * * * * * * * * * * * * * * * * * //

dimensions      [0 2 -3 0 0 0 0];


internalField   nonuniform List<scalar> 
14231
(
2.30718e-07
2.71828e-07
2.3066e-07
1.9603e-07
8.75734e-06
2.27828e-06
1.84784e-06
2.07299e-07
5.75182e-07
1.89663e-05
4.20605e-06
4.20424e-06
1.89651e-05
1.84744e-06
8.75804e-06
2.07297e-07
5.75191e-07
2.27837e-06
2.26168e-05
8.75388e-06
6.38664e-06
6.35232e-06
2.26266e-05
1.25654e-05
2.26795e-06
1.14657e-05
3.02586e-06
1.14922e-05
3.0014e-06
1.25481e-05
1.89764e-05
2.60091e-06
9.97973e-07
4.18461e-06
8.67957e-06
9.91325e-07
8.67897e-06
2.62208e-06
2.59648e-06
9.97223e-07
4.18344e-06
8.67627e-06
8.67562e-06
9.9044e-07
2.62098e-06
8.84818e-06
2.20928e-05
2.20932e-05
2.20738e-05
2.20741e-05
8.90304e-06
1.89749e-05
8.7545e-06
1.2565e-05
2.26799e-06
3.02567e-06
1.14662e-05
3.00165e-06
1.14926e-05
1.25476e-05
8.12112e-07
2.7328e-07
4.01305e-07
4.01242e-07
4.00773e-07
4.007e-07
8.17898e-07
1.89277e-07
3.93179e-07
5.4016e-07
1.84008e-06
1.1649e-06
1.15791e-06
5.38948e-07
3.93034e-07
3.17285e-07
5.7393e-07
7.09196e-07
2.91141e-07
7.05752e-07
2.9272e-07
3.16406e-07
5.39969e-07
1.83959e-06
5.38755e-07
3.17278e-07
5.7394e-07
2.91147e-07
7.09147e-07
3.16397e-07
2.92724e-07
7.05727e-07
2.71824e-07
2.30701e-07
2.30674e-07
2.71864e-07
2.28439e-07
2.28414e-07
1.96029e-07
8.75881e-06
8.75996e-06
2.29918e-06
1.89641e-05
1.89665e-05
4.20424e-06
4.20584e-06
8.75737e-06
2.27825e-06
1.84746e-06
2.07297e-07
5.7517e-07
8.75853e-06
1.84788e-06
1.89404e-05
1.89428e-05
4.22907e-06
4.23062e-06
1.86564e-06
1.86604e-06
2.04496e-07
5.78772e-07
8.76247e-06
2.26332e-05
6.4183e-06
8.76362e-06
2.2624e-05
6.45102e-06
1.24969e-05
2.31058e-06
3.05613e-06
1.14219e-05
1.25129e-05
3.08137e-06
1.1397e-05
1.8974e-05
1.89765e-05
2.5988e-06
9.9729e-07
4.18318e-06
8.67606e-06
8.67571e-06
9.90724e-07
2.61649e-06
2.60295e-06
9.9793e-07
4.18476e-06
8.6799e-06
8.67956e-06
9.91406e-07
2.62055e-06
8.84801e-06
2.20855e-05
2.20849e-05
2.20794e-05
2.20789e-05
8.88256e-06
2.26149e-05
8.75384e-06
6.38814e-06
2.26246e-05
6.35354e-06
1.25649e-05
2.26794e-06
1.1466e-05
3.02568e-06
1.25476e-05
1.14923e-05
3.00147e-06
8.75499e-06
1.89315e-05
1.8934e-05
2.67232e-06
1.01145e-06
8.67625e-06
4.25027e-06
2.65138e-06
8.67722e-06
1.0183e-06
2.67654e-06
1.01215e-06
8.68012e-06
4.252e-06
2.6558e-06
8.68116e-06
1.019e-06
8.97431e-06
2.20853e-05
2.20848e-05
8.92344e-06
2.20965e-05
2.20959e-05
8.12373e-07
2.73278e-07
4.01235e-07
4.01288e-07
4.00716e-07
4.00765e-07
8.17877e-07
8.3657e-07
4.03701e-07
4.03753e-07
2.70547e-07
8.30649e-07
4.04357e-07
4.04415e-07
1.89277e-07
1.858e-07
1.89276e-07
1.858e-07
3.9315e-07
5.39994e-07
1.83967e-06
1.16493e-06
5.38788e-07
1.158e-06
3.93004e-07
3.1727e-07
5.73921e-07
7.0915e-07
2.9114e-07
7.05719e-07
2.92718e-07
3.16391e-07
5.4011e-07
1.84011e-06
5.38912e-07
3.93017e-07
5.44179e-07
1.8736e-06
5.4553e-07
3.94982e-07
5.44303e-07
1.18133e-06
1.87401e-06
1.18842e-06
3.95081e-07
5.45652e-07
3.15998e-07
5.80227e-07
7.17527e-07
2.90891e-07
7.21181e-07
3.16715e-07
2.89441e-07
2.05089e-07
2.38209e-07
2.38208e-07
2.787e-07
2.78946e-07
2.40978e-07
2.40991e-07
2.78944e-07
2.40955e-07
2.40988e-07
2.40947e-07
2.40985e-07
2.7895e-07
2.40953e-07
2.40957e-07
2.78962e-07
2.78685e-07
2.38224e-07
2.38223e-07
2.78686e-07
2.38201e-07
2.3823e-07
2.38228e-07
2.78689e-07
2.38207e-07
2.08275e-07
2.08276e-07
2.08278e-07
2.08278e-07
2.21879e-06
8.74085e-06
2.18269e-06
8.74783e-06
1.90967e-05
1.90409e-05
2.21893e-06
8.74189e-06
2.18274e-06
8.74897e-06
2.05091e-07
2.05093e-07
2.05093e-07
5.6696e-07
1.76529e-06
2.16238e-07
2.35557e-07
5.63096e-07
1.79691e-06
2.13166e-07
1.90977e-05
1.90414e-05
5.66968e-07
2.16241e-07
1.76539e-06
2.35566e-07
5.63112e-07
2.13166e-07
1.79687e-06
4.03804e-06
4.03965e-06
2.75014e-07
4.10981e-06
4.11106e-06
1.91277e-05
1.91298e-05
4.01015e-06
4.01198e-06
8.73982e-06
2.16567e-06
8.73992e-06
8.73475e-06
2.1657e-06
1.74879e-06
2.19399e-07
5.61119e-07
2.43856e-07
1.74928e-06
2.19402e-07
1.71965e-06
5.61128e-07
1.91299e-05
1.91974e-05
2.83221e-07
4.01199e-06
4.0099e-06
3.93915e-06
3.93846e-06
1.91284e-05
1.91961e-05
8.74095e-06
2.16581e-06
1.74917e-06
2.19399e-07
5.61143e-07
8.74063e-06
2.16575e-06
2.19404e-07
1.74932e-06
5.61156e-07
5.58821e-07
2.43837e-07
1.74891e-06
2.19397e-07
1.71926e-06
2.22653e-07
5.61133e-07
2.1341e-06
8.7405e-06
8.73532e-06
2.16573e-06
5.58819e-07
2.194e-07
1.749e-06
2.22654e-07
5.6114e-07
2.13402e-06
8.74026e-06
2.16577e-06
1.91308e-05
4.01172e-06
4.01055e-06
1.9129e-05
2.19398e-07
1.74891e-06
5.61142e-07
2.19399e-07
1.7493e-06
5.61151e-07
8.74081e-06
2.16581e-06
8.74067e-06
2.16584e-06
4.01096e-06
4.0121e-06
1.91295e-05
1.91307e-05
1.90947e-05
1.90386e-05
1.90968e-05
1.90407e-05
4.03858e-06
4.03974e-06
2.74998e-07
4.10889e-06
4.1106e-06
1.90108e-05
1.90129e-05
2.74892e-07
4.13571e-06
4.13712e-06
2.21882e-06
8.74089e-06
2.18274e-06
8.74791e-06
5.66945e-07
1.76537e-06
2.16238e-07
2.35593e-07
5.63097e-07
1.7968e-06
2.13168e-07
5.66955e-07
1.7657e-06
2.1624e-07
2.35608e-07
5.63107e-07
1.79731e-06
2.1317e-07
2.23785e-06
8.74915e-06
2.23791e-06
8.74916e-06
5.69708e-07
2.33085e-07
1.81426e-06
2.10189e-07
5.69722e-07
2.33082e-07
1.81475e-06
2.1019e-07
4.03928e-06
4.03851e-06
2.74997e-07
4.11095e-06
4.10893e-06
1.90953e-05
1.90394e-05
1.90128e-05
2.74891e-07
4.13689e-06
4.13605e-06
1.90115e-05
5.66961e-07
1.76567e-06
2.16239e-07
2.35568e-07
5.63113e-07
1.7972e-06
2.13167e-07
2.21888e-06
8.74158e-06
2.1828e-06
8.74855e-06
5.66973e-07
2.16241e-07
1.76583e-06
2.35603e-07
5.63108e-07
2.13172e-07
1.79727e-06
2.23795e-06
8.75026e-06
5.69727e-07
2.33061e-07
1.81461e-06
2.10189e-07
2.23797e-06
8.74985e-06
5.69722e-07
2.33088e-07
2.10189e-07
1.81482e-06
2.21885e-06
8.74148e-06
2.18279e-06
8.74853e-06
5.66968e-07
2.1624e-07
1.76548e-06
2.356e-07
5.63095e-07
2.13168e-07
1.79699e-06
2.21889e-06
8.7412e-06
2.18273e-06
8.74824e-06
5.6971e-07
2.33072e-07
1.81434e-06
2.10188e-07
2.23798e-06
8.7498e-06
5.69711e-07
2.33087e-07
2.10189e-07
1.81443e-06
2.23793e-06
8.7495e-06
4.04015e-06
4.03845e-06
2.75004e-07
4.11059e-06
4.1095e-06
1.90959e-05
1.904e-05
1.90136e-05
2.74898e-07
4.13777e-06
4.13605e-06
1.90121e-05
5.66978e-07
2.1624e-07
1.76578e-06
2.3557e-07
5.63122e-07
2.13168e-07
1.7973e-06
2.21893e-06
8.74174e-06
2.18276e-06
8.74881e-06
2.21896e-06
8.74161e-06
2.18277e-06
8.74866e-06
5.69728e-07
2.3307e-07
2.10192e-07
1.81438e-06
5.69738e-07
2.33068e-07
2.10189e-07
1.81475e-06
2.23798e-06
8.75007e-06
2.23799e-06
8.74991e-06
1.90963e-05
1.90404e-05
1.90975e-05
1.90417e-05
2.74906e-07
4.1355e-06
4.13716e-06
1.90125e-05
1.90137e-05
1.26817e-05
2.20959e-06
1.16139e-05
2.91649e-06
1.16432e-05
2.89332e-06
1.26615e-05
2.2598e-05
6.13466e-06
8.74365e-06
2.25885e-05
6.17563e-06
1.27248e-05
2.19142e-06
1.17233e-05
2.84055e-06
1.27464e-05
1.16926e-05
2.86327e-06
2.25968e-05
6.25056e-06
8.74482e-06
6.21155e-06
2.26067e-05
1.90834e-05
1.9053e-05
1.26819e-05
2.20973e-06
2.91685e-06
1.16142e-05
2.89345e-06
1.16436e-05
1.26618e-05
2.25983e-05
6.13446e-06
8.7447e-06
2.25887e-05
6.17603e-06
1.2725e-05
2.19148e-06
2.8404e-06
1.17237e-05
1.27466e-05
2.86338e-06
1.16928e-05
2.25973e-05
6.2509e-06
8.74586e-06
6.21198e-06
2.2607e-05
1.90839e-05
1.90537e-05
8.6608e-06
2.20677e-05
2.20673e-05
2.20542e-05
2.2054e-05
8.70716e-06
2.44767e-06
9.32896e-07
8.68528e-06
4.06052e-06
2.42953e-06
9.3863e-07
8.68318e-06
2.45128e-06
9.33405e-07
8.68865e-06
4.06163e-06
2.43205e-06
9.39175e-07
8.68655e-06
8.59355e-06
2.20387e-05
2.20384e-05
8.52641e-06
2.20485e-05
2.2048e-05
2.48671e-06
8.67903e-06
4.08775e-06
9.57438e-07
9.51406e-07
8.6798e-06
2.50552e-06
2.49124e-06
8.68275e-06
4.08948e-06
9.58061e-07
9.51992e-07
8.68351e-06
2.51028e-06
1.91428e-05
1.91448e-05
2.37512e-06
9.2074e-07
3.98864e-06
8.69007e-06
8.6927e-06
9.1525e-07
2.393e-06
2.37861e-06
9.21269e-07
3.98973e-06
8.69389e-06
8.69645e-06
9.15811e-07
2.39641e-06
8.41139e-06
2.20384e-05
2.20381e-05
2.20302e-05
2.20299e-05
8.47885e-06
2.25811e-05
8.73747e-06
6.09576e-06
2.259e-05
6.05259e-06
1.28155e-05
2.15761e-06
1.17742e-05
2.81069e-06
1.27922e-05
1.18063e-05
2.78895e-06
2.25835e-05
8.73751e-06
6.0946e-06
6.0517e-06
2.25924e-05
2.2586e-05
5.96605e-06
8.73675e-06
2.25783e-05
6.01057e-06
1.28161e-05
2.15764e-06
1.17739e-05
2.81097e-06
1.18062e-05
2.78907e-06
1.27927e-05
1.91448e-05
1.9181e-05
8.37002e-06
2.20228e-05
2.20228e-05
8.30249e-06
2.20345e-05
2.20347e-05
2.37971e-06
9.21338e-07
3.98942e-06
8.6937e-06
9.15918e-07
8.69671e-06
2.39645e-06
2.3755e-06
9.20721e-07
3.98875e-06
8.69007e-06
8.69337e-06
9.15333e-07
2.39199e-06
2.34425e-06
8.70591e-06
8.9917e-07
3.96215e-06
9.04403e-07
2.32531e-06
8.70294e-06
2.34226e-06
8.70282e-06
8.98615e-07
3.96015e-06
2.3227e-06
8.69978e-06
9.03873e-07
8.41659e-06
2.20347e-05
2.20348e-05
2.20318e-05
2.2032e-05
8.46274e-06
1.91435e-05
1.91796e-05
2.25815e-05
8.73855e-06
6.09582e-06
2.25902e-05
6.05301e-06
1.28158e-05
2.15778e-06
2.81086e-06
1.17744e-05
1.27924e-05
2.78922e-06
1.18066e-05
2.25831e-05
8.73824e-06
6.09421e-06
6.05153e-06
2.25919e-05
1.28162e-05
2.15786e-06
1.17746e-05
2.81044e-06
1.18064e-05
2.78979e-06
1.2793e-05
1.2864e-05
2.73919e-06
1.18924e-05
2.14162e-06
1.28892e-05
2.75913e-06
1.18588e-05
2.25811e-05
8.73807e-06
6.09517e-06
6.0535e-06
2.25902e-05
2.25837e-05
5.96767e-06
8.73731e-06
2.25757e-05
6.01088e-06
1.28156e-05
2.15762e-06
2.81036e-06
1.17744e-05
2.78932e-06
1.18067e-05
1.27923e-05
1.28644e-05
1.18921e-05
2.73849e-06
2.14159e-06
1.28898e-05
1.18585e-05
2.75982e-06
2.25834e-05
8.73788e-06
6.09413e-06
6.05146e-06
2.2592e-05
2.25859e-05
8.73709e-06
6.01091e-06
1.28161e-05
2.1577e-06
1.1774e-05
2.8109e-06
1.18064e-05
2.78927e-06
1.27926e-05
1.91457e-05
2.38021e-06
9.214e-07
3.99017e-06
8.69385e-06
9.15968e-07
8.6968e-06
2.39702e-06
2.37677e-06
9.20779e-07
3.9886e-06
8.69028e-06
8.69315e-06
9.15392e-07
2.39347e-06
8.42191e-06
2.20373e-05
2.20376e-05
2.20331e-05
2.20333e-05
8.47179e-06
1.9144e-05
2.25811e-05
8.73835e-06
6.09496e-06
6.05387e-06
2.25902e-05
1.28156e-05
2.15776e-06
2.81043e-06
1.17744e-05
2.7897e-06
1.18066e-05
1.27923e-05
2.25833e-05
8.73828e-06
6.09429e-06
6.05166e-06
2.2592e-05
1.28163e-05
2.1578e-06
2.81103e-06
1.17743e-05
2.78938e-06
1.18066e-05
1.27928e-05
8.36286e-06
2.20309e-05
2.20302e-05
2.37665e-06
9.20844e-07
3.98868e-06
8.69053e-06
2.39405e-06
9.15418e-07
8.69294e-06
2.38056e-06
9.21392e-07
3.99037e-06
8.69415e-06
2.39775e-06
9.15945e-07
8.69667e-06
2.3388e-06
3.96056e-06
9.03831e-07
8.69897e-06
8.42906e-06
2.20405e-05
2.20398e-05
8.47577e-06
2.20337e-05
2.20331e-05
1.91445e-05
1.91805e-05
1.91457e-05
1.90812e-05
1.90509e-05
1.90833e-05
1.90529e-05
8.64318e-06
2.20601e-05
2.20596e-05
2.20531e-05
2.20527e-05
8.69532e-06
2.44968e-06
9.32841e-07
8.68498e-06
4.06026e-06
2.43046e-06
8.68336e-06
9.38654e-07
2.45293e-06
9.33433e-07
8.6888e-06
4.06201e-06
2.43406e-06
8.68714e-06
9.39211e-07
8.59971e-06
2.20411e-05
2.20407e-05
8.53996e-06
2.20529e-05
2.20525e-05
2.48555e-06
8.67885e-06
4.08763e-06
9.57315e-07
8.67992e-06
2.5035e-06
9.5131e-07
2.48947e-06
8.68262e-06
4.08884e-06
9.579e-07
8.6837e-06
2.50737e-06
9.51901e-07
1.89998e-05
2.2063e-05
2.20626e-05
8.75105e-06
2.56167e-06
8.67647e-06
9.70524e-07
4.15746e-06
2.5409e-06
8.67623e-06
9.76899e-07
8.68033e-06
9.71165e-07
2.54493e-06
1.26822e-05
2.2096e-06
1.16137e-05
2.91676e-06
1.16432e-05
2.89334e-06
1.26621e-05
2.26002e-05
6.1334e-06
8.74369e-06
2.25907e-05
6.17414e-06
1.27253e-05
2.19146e-06
1.17232e-05
2.84063e-06
1.16923e-05
1.27469e-05
2.8634e-06
2.2599e-05
6.24936e-06
8.74481e-06
6.21049e-06
2.26089e-05
1.26025e-05
1.15662e-05
2.94682e-06
2.24772e-06
1.26212e-05
1.15384e-05
2.97087e-06
2.26158e-05
6.28481e-06
8.7525e-06
2.26059e-05
6.32175e-06
1.2603e-05
1.15661e-05
2.94695e-06
2.24777e-06
1.26217e-05
1.15381e-05
2.97106e-06
2.26179e-05
6.28367e-06
8.75251e-06
2.26079e-05
6.32013e-06
8.66562e-06
2.2067e-05
2.20671e-05
2.20583e-05
2.20586e-05
8.70534e-06
2.45188e-06
9.33357e-07
8.68819e-06
4.06222e-06
8.68657e-06
2.43168e-06
9.39182e-07
2.45015e-06
9.3266e-07
8.68485e-06
4.06014e-06
9.3854e-07
2.42676e-06
8.68329e-06
8.60208e-06
2.20359e-05
2.2036e-05
2.20521e-05
8.52777e-06
2.20523e-05
2.49182e-06
8.6828e-06
4.08889e-06
9.58086e-07
8.68354e-06
9.52027e-07
2.50991e-06
2.48851e-06
8.67957e-06
4.08815e-06
9.5747e-07
9.51407e-07
8.68045e-06
2.50655e-06
1.90819e-05
1.90517e-05
1.90019e-05
8.78546e-06
2.20636e-05
2.20639e-05
8.74115e-06
2.20687e-05
2.20688e-05
2.56281e-06
8.68071e-06
9.71268e-07
4.15853e-06
9.77508e-07
2.54526e-06
8.67966e-06
2.55824e-06
8.67712e-06
9.70488e-07
4.15653e-06
2.5391e-06
8.67605e-06
9.76753e-07
1.90004e-05
1.26824e-05
2.20982e-06
1.16143e-05
2.91637e-06
1.16434e-05
2.89405e-06
1.26622e-05
2.25998e-05
6.13313e-06
8.74432e-06
2.25903e-05
6.17427e-06
1.27255e-05
2.19142e-06
1.17234e-05
2.84099e-06
1.16929e-05
1.27471e-05
2.86296e-06
2.25986e-05
6.24911e-06
8.74551e-06
6.21033e-06
2.26084e-05
2.94675e-06
1.15666e-05
1.26214e-05
6.28476e-06
2.26062e-05
1.15664e-05
2.94725e-06
1.26219e-05
6.28333e-06
2.26075e-05
1.26817e-05
2.20958e-06
2.91622e-06
1.16142e-05
2.89358e-06
1.16437e-05
1.26615e-05
2.25981e-05
6.13506e-06
8.74428e-06
6.1746e-06
2.25884e-05
1.27248e-05
2.19149e-06
2.84102e-06
1.17237e-05
2.86283e-06
1.27465e-05
1.16928e-05
2.25968e-05
6.25011e-06
8.74541e-06
6.21233e-06
2.26069e-05
1.26822e-05
2.20964e-06
1.16138e-05
2.91681e-06
1.16434e-05
2.89344e-06
1.2662e-05
2.26e-05
6.13292e-06
8.744e-06
2.25905e-05
6.17432e-06
1.27252e-05
2.19147e-06
1.17234e-05
2.84038e-06
1.27469e-05
1.16924e-05
2.86331e-06
2.25989e-05
6.2491e-06
8.74514e-06
6.21024e-06
2.26086e-05
1.26025e-05
2.94731e-06
1.15666e-05
2.24781e-06
1.26213e-05
2.97059e-06
1.15386e-05
2.26159e-05
6.2854e-06
8.75313e-06
2.26058e-05
6.32072e-06
1.2603e-05
1.15663e-05
2.94675e-06
2.24779e-06
1.26217e-05
1.15382e-05
2.97094e-06
2.26176e-05
6.28314e-06
8.75283e-06
2.26077e-05
6.32021e-06
8.65762e-06
2.20682e-05
2.20685e-05
2.20547e-05
2.2055e-05
8.71067e-06
2.45147e-06
9.33388e-07
8.6884e-06
4.06168e-06
8.68672e-06
2.43163e-06
9.39187e-07
2.44769e-06
9.3278e-07
8.68478e-06
4.06064e-06
9.38538e-07
2.42805e-06
8.68306e-06
8.59619e-06
2.20369e-05
2.20371e-05
2.20491e-05
8.52441e-06
2.20493e-05
2.49107e-06
8.68273e-06
4.08948e-06
9.58088e-07
8.68353e-06
9.51997e-07
2.50991e-06
2.48729e-06
8.67902e-06
4.08773e-06
9.57397e-07
9.51366e-07
8.67985e-06
2.50598e-06
1.90824e-05
1.90521e-05
2.20665e-05
2.20669e-05
8.74871e-06
8.68074e-06
9.7134e-07
2.54593e-06
2.55958e-06
8.67707e-06
9.70648e-07
4.15744e-06
2.54194e-06
8.67642e-06
9.76902e-07
1.90011e-05
1.26817e-05
2.20968e-06
2.9164e-06
1.16142e-05
2.89382e-06
1.16436e-05
1.26616e-05
2.25981e-05
6.13489e-06
8.7445e-06
6.17478e-06
2.25883e-05
1.27248e-05
2.19146e-06
2.8408e-06
1.17237e-05
2.86271e-06
1.27464e-05
1.16928e-05
2.25968e-05
6.25005e-06
8.74566e-06
6.21263e-06
2.26069e-05
1.26824e-05
2.20973e-06
2.91695e-06
1.16141e-05
2.89356e-06
1.16436e-05
1.26622e-05
2.25999e-05
6.13297e-06
8.7444e-06
2.25904e-05
6.17442e-06
1.27254e-05
2.19149e-06
2.84045e-06
1.17237e-05
1.27471e-05
2.86339e-06
1.16927e-05
2.25988e-05
6.24932e-06
8.74555e-06
6.21045e-06
2.26086e-05
1.26025e-05
2.94721e-06
1.15666e-05
2.2478e-06
1.26213e-05
2.97045e-06
1.15386e-05
2.26159e-05
6.28534e-06
8.75339e-06
2.26058e-05
6.32081e-06
1.26032e-05
2.94686e-06
1.15666e-05
2.24782e-06
1.26219e-05
2.971e-06
1.15386e-05
2.26175e-05
6.28325e-06
8.75324e-06
2.26077e-05
6.3203e-06
1.90828e-05
1.90526e-05
1.9084e-05
1.90538e-05
8.79105e-06
2.20656e-05
2.20653e-05
8.74371e-06
2.20714e-05
2.20707e-05
2.5594e-06
8.67711e-06
9.70662e-07
4.15725e-06
2.54178e-06
9.76913e-07
8.67633e-06
2.56274e-06
8.68071e-06
9.71245e-07
4.15843e-06
2.54427e-06
9.77516e-07
8.67973e-06
1.90015e-05
1.90027e-05
1.98532e-07
1.9853e-07
2.01987e-07
1.95369e-07
1.95367e-07
1.91932e-07
1.95115e-07
7.66822e-07
3.94244e-07
3.94276e-07
2.76897e-07
7.6215e-07
3.94392e-07
3.94431e-07
7.47484e-07
2.80859e-07
3.92908e-07
3.92953e-07
3.92887e-07
3.92929e-07
7.51807e-07
7.47602e-07
2.8086e-07
3.92953e-07
3.92905e-07
3.92937e-07
3.92883e-07
7.51806e-07
7.47658e-07
2.80864e-07
3.92963e-07
3.9291e-07
3.9294e-07
3.92891e-07
7.51896e-07
7.47654e-07
2.80876e-07
3.92931e-07
3.92969e-07
7.51936e-07
3.92915e-07
3.92944e-07
7.6693e-07
3.94229e-07
3.94273e-07
2.7688e-07
7.62237e-07
3.94374e-07
3.94421e-07
7.668e-07
3.94274e-07
3.94216e-07
2.76882e-07
3.94374e-07
7.61983e-07
3.94424e-07
7.66762e-07
3.94275e-07
3.94224e-07
2.76886e-07
3.94369e-07
7.62047e-07
3.94424e-07
2.01775e-07
2.01773e-07
1.98381e-07
2.01775e-07
2.01773e-07
1.98381e-07
2.01776e-07
2.01774e-07
1.98381e-07
2.01776e-07
2.01774e-07
1.98381e-07
1.98532e-07
1.9853e-07
2.01987e-07
1.9537e-07
1.95367e-07
1.91932e-07
1.95115e-07
1.98533e-07
1.98532e-07
2.01988e-07
1.9537e-07
1.95368e-07
1.91933e-07
1.95116e-07
1.98533e-07
1.98531e-07
2.0199e-07
1.9537e-07
1.95368e-07
1.91933e-07
1.95116e-07
1.98968e-07
1.92285e-07
1.92283e-07
1.88828e-07
1.98969e-07
1.92286e-07
1.92283e-07
1.88828e-07
1.98972e-07
1.92286e-07
1.92285e-07
1.88828e-07
1.98971e-07
1.92286e-07
1.92284e-07
1.88828e-07
3.19128e-07
5.66103e-07
6.87326e-07
2.95157e-07
6.84354e-07
2.96985e-07
3.17921e-07
3.8884e-07
5.25446e-07
1.09065e-06
1.77243e-06
3.89165e-07
5.26208e-07
1.09722e-06
3.19037e-07
5.63752e-07
6.74795e-07
2.99414e-07
3.20408e-07
6.7752e-07
2.97463e-07
3.90196e-07
1.11934e-06
1.78948e-06
5.30331e-07
5.29417e-07
1.1126e-06
3.89935e-07
3.19133e-07
5.66128e-07
2.95162e-07
6.87328e-07
2.9699e-07
6.84374e-07
3.17927e-07
3.88844e-07
5.25469e-07
1.09068e-06
1.77249e-06
3.89173e-07
5.26208e-07
1.0972e-06
3.19043e-07
5.63755e-07
2.9942e-07
6.74809e-07
3.20412e-07
2.97469e-07
6.77508e-07
3.90205e-07
1.11932e-06
1.7895e-06
5.30323e-07
5.29437e-07
1.11265e-06
3.89939e-07
7.78042e-07
2.76712e-07
3.96269e-07
3.96312e-07
3.96004e-07
3.96039e-07
7.83033e-07
3.88435e-07
5.22578e-07
1.742e-06
1.07563e-06
5.21972e-07
1.06925e-06
3.88054e-07
3.2193e-07
5.60678e-07
6.6845e-07
2.99962e-07
6.65985e-07
3.02037e-07
3.20387e-07
3.88465e-07
5.22723e-07
1.74243e-06
1.07566e-06
1.06923e-06
5.22115e-07
3.88088e-07
3.87569e-07
1.04829e-06
5.19071e-07
1.72633e-06
3.88004e-07
1.05456e-06
5.19535e-07
3.21947e-07
5.60687e-07
6.68511e-07
2.99964e-07
6.66022e-07
3.0204e-07
3.20403e-07
7.38002e-07
2.81195e-07
3.91956e-07
3.91908e-07
3.91878e-07
7.33908e-07
3.91835e-07
3.88452e-07
5.22678e-07
1.74229e-06
1.07571e-06
5.22075e-07
1.0693e-06
3.88064e-07
3.21945e-07
5.60701e-07
6.68483e-07
2.99966e-07
6.66022e-07
3.02041e-07
3.20398e-07
3.88465e-07
5.22723e-07
1.74245e-06
1.0756e-06
1.06924e-06
5.22125e-07
3.8808e-07
3.21949e-07
5.60698e-07
2.99972e-07
6.68511e-07
3.02044e-07
6.66051e-07
3.20406e-07
3.22002e-07
6.57904e-07
3.04848e-07
5.59091e-07
3.23699e-07
6.60145e-07
3.02658e-07
3.8842e-07
5.22569e-07
1.74204e-06
1.07563e-06
3.88044e-07
5.21955e-07
1.06921e-06
3.87518e-07
1.04826e-06
5.18917e-07
1.72595e-06
3.87958e-07
5.19385e-07
1.05451e-06
3.21934e-07
5.60671e-07
6.68461e-07
2.99965e-07
3.2039e-07
6.65975e-07
3.02037e-07
3.22019e-07
3.0485e-07
6.57918e-07
5.59095e-07
3.23706e-07
3.02663e-07
6.60172e-07
3.88433e-07
5.22609e-07
1.7421e-06
1.07554e-06
1.06912e-06
5.22003e-07
3.88059e-07
3.87542e-07
1.72603e-06
1.05445e-06
5.19426e-07
3.21941e-07
5.60677e-07
2.9997e-07
6.68501e-07
3.02039e-07
6.66011e-07
3.20401e-07
3.88427e-07
5.22567e-07
1.74205e-06
1.07561e-06
3.88042e-07
5.21972e-07
1.06925e-06
3.21939e-07
5.60698e-07
2.9997e-07
6.68465e-07
3.20394e-07
3.02042e-07
6.66004e-07
3.88455e-07
5.22707e-07
1.74238e-06
1.07561e-06
1.0692e-06
5.22104e-07
3.88072e-07
3.21957e-07
5.60708e-07
2.99974e-07
6.6853e-07
3.02046e-07
6.66045e-07
3.20412e-07
7.77916e-07
2.76694e-07
3.96239e-07
3.96289e-07
7.82851e-07
3.95971e-07
3.96016e-07
7.99918e-07
2.73306e-07
3.98133e-07
3.98181e-07
7.9453e-07
3.98535e-07
3.98585e-07
3.19123e-07
5.66111e-07
6.87317e-07
2.95153e-07
6.8437e-07
2.96984e-07
3.17919e-07
3.88857e-07
5.25473e-07
1.09072e-06
1.77243e-06
1.09725e-06
3.8918e-07
5.26225e-07
3.19036e-07
5.63738e-07
6.748e-07
2.99415e-07
6.77512e-07
3.20403e-07
2.9746e-07
3.90213e-07
1.11935e-06
1.78955e-06
5.30339e-07
1.11268e-06
5.29452e-07
3.89948e-07
3.19141e-07
5.66119e-07
6.87372e-07
2.95156e-07
6.84402e-07
2.96988e-07
3.17934e-07
3.8889e-07
5.25615e-07
1.09068e-06
1.77283e-06
3.8921e-07
1.09725e-06
5.26371e-07
3.19053e-07
5.63747e-07
6.74838e-07
2.99418e-07
3.2042e-07
6.77565e-07
2.97462e-07
3.90242e-07
1.11935e-06
1.7899e-06
5.30497e-07
1.11262e-06
3.89981e-07
5.29589e-07
3.17037e-07
6.94666e-07
2.94752e-07
5.70752e-07
3.18078e-07
6.97858e-07
2.93045e-07
3.9133e-07
1.13511e-06
5.33883e-07
1.82179e-06
5.34926e-07
3.91537e-07
1.14192e-06
3.17051e-07
6.94711e-07
2.94755e-07
5.70761e-07
3.18096e-07
6.97919e-07
2.93047e-07
3.91364e-07
1.13507e-06
5.34033e-07
1.82228e-06
3.91566e-07
1.14192e-06
5.3509e-07
7.78157e-07
2.76698e-07
3.96303e-07
3.96253e-07
3.95981e-07
3.96039e-07
7.83121e-07
7.9975e-07
2.73304e-07
3.98183e-07
3.98119e-07
3.98579e-07
7.94556e-07
3.9852e-07
3.19139e-07
5.66139e-07
6.87352e-07
2.95159e-07
6.84403e-07
2.96988e-07
3.1793e-07
3.88868e-07
5.25579e-07
1.09074e-06
1.77284e-06
1.09732e-06
3.89198e-07
5.2633e-07
3.19047e-07
5.63757e-07
6.74825e-07
2.99417e-07
6.77534e-07
3.20418e-07
2.97465e-07
3.90233e-07
1.11944e-06
1.78985e-06
5.30447e-07
1.11274e-06
5.2955e-07
3.8996e-07
3.19143e-07
5.66135e-07
2.95164e-07
6.87373e-07
2.9699e-07
6.8443e-07
3.17937e-07
3.88883e-07
5.25625e-07
1.09068e-06
1.77286e-06
3.89211e-07
1.0972e-06
5.26372e-07
3.19056e-07
5.63769e-07
2.99419e-07
6.74853e-07
3.20422e-07
2.97471e-07
6.7756e-07
3.90242e-07
1.11929e-06
1.78994e-06
5.30496e-07
1.11263e-06
3.89972e-07
5.29596e-07
6.94706e-07
2.94754e-07
3.18095e-07
1.13516e-06
5.33992e-07
3.91558e-07
2.94756e-07
6.94726e-07
3.18097e-07
1.13506e-06
5.34045e-07
3.91565e-07
3.19134e-07
5.6611e-07
2.95162e-07
6.8736e-07
2.96987e-07
6.84385e-07
3.17931e-07
3.88858e-07
5.25502e-07
1.09056e-06
1.77259e-06
5.26257e-07
3.89178e-07
1.09713e-06
3.19049e-07
5.63757e-07
2.99417e-07
6.74815e-07
2.97469e-07
3.20413e-07
6.77546e-07
3.90208e-07
1.11923e-06
1.78959e-06
5.30373e-07
5.29468e-07
1.11251e-06
3.89946e-07
3.17036e-07
6.94669e-07
2.94752e-07
5.70768e-07
3.18083e-07
6.97874e-07
2.93048e-07
3.91311e-07
1.13507e-06
5.33855e-07
1.82187e-06
3.9152e-07
5.34909e-07
1.14191e-06
3.17049e-07
2.94754e-07
6.94688e-07
5.70774e-07
3.18089e-07
2.93054e-07
6.97897e-07
3.91327e-07
1.13494e-06
5.33906e-07
1.82198e-06
3.91531e-07
1.14179e-06
5.34958e-07
7.78041e-07
2.76701e-07
3.96306e-07
3.96249e-07
3.95987e-07
3.96038e-07
7.83046e-07
7.99877e-07
2.73312e-07
3.98195e-07
3.98141e-07
3.98593e-07
7.94686e-07
3.98531e-07
3.19151e-07
5.66139e-07
2.95166e-07
6.87393e-07
2.96994e-07
6.84421e-07
3.17945e-07
3.88876e-07
5.25606e-07
1.09064e-06
1.77289e-06
5.26357e-07
3.89202e-07
1.09721e-06
3.19063e-07
5.63765e-07
2.99423e-07
6.7485e-07
2.97473e-07
3.20429e-07
6.77576e-07
3.90233e-07
1.11932e-06
1.78988e-06
5.30479e-07
5.29578e-07
1.1126e-06
3.89966e-07
3.17044e-07
2.94757e-07
6.94691e-07
5.70771e-07
3.18088e-07
2.93054e-07
6.97869e-07
3.91319e-07
1.1351e-06
5.3388e-07
1.82193e-06
3.91529e-07
5.3492e-07
1.14189e-06
3.17062e-07
2.94761e-07
6.94728e-07
5.70781e-07
3.18106e-07
2.93058e-07
6.97929e-07
3.91347e-07
1.13503e-06
5.34019e-07
1.8223e-06
3.91556e-07
1.14188e-06
5.35069e-07
7.9984e-07
2.7332e-07
3.9815e-07
3.98188e-07
7.94626e-07
3.98547e-07
3.98592e-07
2.30704e-07
2.71834e-07
2.30679e-07
1.96031e-07
2.2784e-06
2.07297e-07
5.75185e-07
8.75805e-06
2.27834e-06
2.07299e-07
1.84788e-06
5.75198e-07
1.89671e-05
4.20585e-06
4.20463e-06
1.89656e-05
1.84748e-06
8.75831e-06
1.9002e-05
8.80656e-06
2.20776e-05
2.20771e-05
2.56529e-06
4.15905e-06
8.68006e-06
9.77518e-07
1.26027e-05
2.24779e-06
2.97099e-06
1.15386e-05
2.26153e-05
6.38853e-06
2.2625e-05
6.35375e-06
2.26161e-05
8.75359e-06
6.32195e-06
1.25651e-05
2.26804e-06
3.02617e-06
1.14662e-05
1.25478e-05
3.00136e-06
1.14926e-05
1.26032e-05
2.24773e-06
1.15387e-05
2.9706e-06
2.26165e-05
8.75457e-06
6.38661e-06
6.3521e-06
2.26261e-05
2.26174e-05
8.75315e-06
6.32023e-06
1.25657e-05
2.26814e-06
1.14663e-05
3.02565e-06
1.14924e-05
3.00197e-06
1.25483e-05
1.89771e-05
1.90026e-05
8.79129e-06
2.20716e-05
2.2072e-05
2.60005e-06
9.97946e-07
4.18484e-06
8.67956e-06
9.91316e-07
8.6791e-06
2.62156e-06
2.59596e-06
9.97206e-07
4.18315e-06
8.67586e-06
8.67548e-06
9.9062e-07
2.61726e-06
2.5636e-06
4.15855e-06
9.7758e-07
8.67998e-06
8.83992e-06
2.20879e-05
2.20883e-05
2.20733e-05
2.20737e-05
8.89568e-06
1.89755e-05
2.26148e-05
8.75476e-06
6.38761e-06
6.35427e-06
2.26248e-05
8.1211e-07
2.73287e-07
4.013e-07
4.01242e-07
4.00778e-07
4.00712e-07
8.17793e-07
1.89275e-07
1.89277e-07
3.17047e-07
5.70771e-07
6.97886e-07
2.93051e-07
3.93173e-07
1.16503e-06
1.15805e-06
3.91342e-07
1.82219e-06
5.35038e-07
1.142e-06
3.17285e-07
5.73951e-07
7.09178e-07
2.91144e-07
7.05753e-07
2.92722e-07
3.16402e-07
3.17053e-07
5.70784e-07
2.93056e-07
6.97908e-07
3.93178e-07
5.4015e-07
1.84016e-06
1.16484e-06
1.15793e-06
5.3896e-07
3.93024e-07
3.9135e-07
1.82232e-06
1.14186e-06
5.35087e-07
3.17288e-07
5.73948e-07
2.91149e-07
7.09197e-07
2.92724e-07
7.05775e-07
3.16411e-07
3.93144e-07
5.39978e-07
1.83971e-06
1.16489e-06
3.92989e-07
5.38791e-07
1.15796e-06
2.82283e-05
2.82342e-05
1.31783e-06
4.31968e-07
3.17911e-07
3.62112e-07
3.62114e-07
3.96085e-07
3.11646e-07
3.38303e-07
3.38302e-07
3.74583e-07
3.9764e-07
3.68467e-07
3.68473e-07
3.97641e-07
3.68443e-07
3.68476e-07
3.68441e-07
3.68466e-07
3.97647e-07
3.68444e-07
3.68456e-07
3.97656e-07
3.96071e-07
3.6211e-07
3.62119e-07
6.16286e-07
6.16282e-07
3.96073e-07
3.62116e-07
3.62122e-07
1.40864e-06
1.91512e-06
6.16285e-07
3.62124e-07
3.44033e-07
3.44038e-07
3.96078e-07
2.87143e-06
3.62113e-07
3.44036e-07
3.44023e-07
3.76094e-07
3.38294e-07
3.38282e-07
6.15371e-07
6.15365e-07
1.41621e-06
1.9218e-06
6.15381e-07
2.89536e-06
1.81238e-06
8.09933e-06
2.44318e-05
1.81248e-06
8.10042e-06
3.45192e-07
3.45193e-07
3.45193e-07
3.45195e-07
6.26306e-07
3.81654e-07
1.33377e-06
3.66029e-07
2.44333e-05
6.26311e-07
3.81657e-07
3.66031e-07
1.33376e-06
4.08477e-07
2.67937e-06
2.67989e-06
1.8929e-06
8.39513e-06
1.87311e-06
8.52945e-06
2.36934e-05
2.32659e-05
1.89299e-06
8.39637e-06
1.87321e-06
8.53053e-06
3.13475e-07
3.13475e-07
3.38014e-07
3.38015e-07
3.38017e-07
3.38016e-07
3.17916e-07
6.22129e-07
1.37212e-06
3.4524e-07
3.55916e-07
6.25449e-07
1.38715e-06
3.38765e-07
2.36943e-05
2.32671e-05
6.22131e-07
3.45241e-07
1.37212e-06
3.5592e-07
6.25462e-07
3.38767e-07
1.38713e-06
2.76355e-06
2.76409e-06
3.86843e-07
2.80531e-06
2.80589e-06
3.07019e-07
3.00778e-07
3.11646e-07
1.41636e-06
3.20496e-07
6.15396e-07
3.32677e-07
1.4276e-06
1.41635e-06
3.20494e-07
6.15414e-07
2.89519e-06
2.89579e-06
2.44296e-05
2.44319e-05
4.08461e-07
2.67907e-06
2.67973e-06
2.38694e-05
2.42702e-05
2.38714e-05
2.42732e-05
4.06871e-07
2.74213e-06
2.74281e-06
2.70096e-06
2.70153e-06
1.8124e-06
8.10013e-06
6.26284e-07
3.81674e-07
1.33376e-06
3.6603e-07
6.26289e-07
3.81682e-07
1.33399e-06
3.66032e-07
1.83083e-06
8.35161e-06
8.16274e-06
1.85972e-06
1.83085e-06
8.35235e-06
8.16358e-06
1.85974e-06
6.26728e-07
3.74967e-07
1.3625e-06
3.51931e-07
1.34472e-06
3.58853e-07
6.25634e-07
6.26732e-07
3.74976e-07
1.36274e-06
3.51933e-07
1.34494e-06
3.58856e-07
6.25637e-07
4.08462e-07
2.67979e-06
2.67913e-06
2.44301e-05
2.38713e-05
2.4273e-05
4.06873e-07
2.74288e-06
2.7422e-06
2.70163e-06
2.70093e-06
2.38696e-05
2.42718e-05
6.26313e-07
3.81657e-07
1.33393e-06
3.66031e-07
1.81243e-06
8.10086e-06
6.26322e-07
3.81685e-07
3.66033e-07
1.33397e-06
1.83093e-06
8.35269e-06
8.16394e-06
1.85981e-06
6.26754e-07
3.7497e-07
1.36268e-06
3.51932e-07
1.34489e-06
3.58856e-07
6.2565e-07
1.831e-06
8.35307e-06
8.16432e-06
1.85974e-06
6.26752e-07
3.74979e-07
3.51934e-07
1.36268e-06
3.58858e-07
1.34494e-06
6.25656e-07
1.81245e-06
8.09986e-06
6.26307e-07
3.81676e-07
3.66032e-07
1.33381e-06
1.81246e-06
8.10029e-06
6.26739e-07
3.74966e-07
1.36252e-06
3.5193e-07
1.34472e-06
3.58854e-07
6.25659e-07
1.83089e-06
8.35211e-06
8.16349e-06
1.85979e-06
6.2674e-07
3.74978e-07
3.51933e-07
1.36256e-06
3.58855e-07
1.34478e-06
6.25659e-07
1.8309e-06
8.35253e-06
8.16383e-06
1.85979e-06
4.08469e-07
2.67994e-06
2.67921e-06
2.44311e-05
2.38721e-05
2.42743e-05
4.06877e-07
2.74287e-06
2.74226e-06
2.70175e-06
2.70102e-06
2.38705e-05
2.42724e-05
6.26316e-07
3.81667e-07
3.66032e-07
1.33399e-06
1.81248e-06
8.1002e-06
1.81249e-06
8.10087e-06
6.26753e-07
3.74968e-07
3.51932e-07
1.36251e-06
3.58855e-07
1.34473e-06
6.2566e-07
6.26758e-07
3.7497e-07
3.51933e-07
1.36274e-06
3.58858e-07
1.34494e-06
6.25664e-07
1.83093e-06
8.35247e-06
8.16368e-06
1.85982e-06
1.83094e-06
8.3531e-06
8.16445e-06
1.85982e-06
2.44313e-05
2.44326e-05
4.06884e-07
2.74241e-06
2.74295e-06
2.70116e-06
2.70167e-06
2.38709e-05
2.42728e-05
2.3872e-05
2.42743e-05
2.36906e-05
2.32646e-05
2.36935e-05
2.32661e-05
2.7633e-06
2.76396e-06
3.86827e-07
2.80504e-06
2.80575e-06
2.26719e-05
2.30843e-05
2.26726e-05
2.30873e-05
2.87148e-06
2.87208e-06
3.7608e-07
3.85283e-07
2.82689e-06
2.82758e-06
1.89292e-06
8.39586e-06
1.87313e-06
8.53007e-06
6.22102e-07
1.37211e-06
3.45239e-07
3.55948e-07
6.25438e-07
1.38716e-06
3.38766e-07
6.221e-07
1.37233e-06
3.45241e-07
3.55954e-07
6.25442e-07
1.38739e-06
3.38768e-07
1.91514e-06
8.64731e-06
1.90237e-06
8.55704e-06
1.91523e-06
8.64735e-06
1.90231e-06
8.55754e-06
1.40848e-06
3.44046e-07
3.26404e-07
6.21489e-07
3.499e-07
1.39557e-06
3.3249e-07
1.40837e-06
3.26405e-07
3.44023e-07
6.21485e-07