/*--------------------------------*- C++ -*----------------------------------*\
| =========                 |                                                 |
| \\      /  F ield         | OpenFOAM: The Open Source CFD Toolbox           |
|  \\    /   O peration     | Version:  v2006                                 |
|   \\  /    A nd           | Website:  www.openfoam.com                      |
|    \\/     M anipulation  |                                                 |
\*---------------------------------------------------------------------------*/
FoamFile
{
    version     2.0;
    format      ascii;
    class       volScalarField;
    location    "375";
    object      k;
}
// * * * * * * * * * * * * * * * * * * * * * * * * * * * * * * * * * * * * * //

dimensions      [0 2 -2 0 0 0 0];


internalField   nonuniform List<scalar> 
14231
(
1.92853e-05
1.85906e-05
1.92865e-05
2.03339e-05
6.92385e-05
3.23435e-05
3.08764e-05
1.97548e-05
1.92604e-05
7.08784e-05
4.66607e-05
4.66463e-05
7.08778e-05
3.08727e-05
6.92427e-05
1.97549e-05
1.926e-05
3.23458e-05
7.1373e-05
6.922e-05
6.30693e-05
6.26041e-05
7.13936e-05
7.15059e-05
3.20658e-05
7.25543e-05
3.93126e-05
7.26658e-05
3.88993e-05
7.14401e-05
7.09031e-05
3.82731e-05
2.40911e-05
4.63255e-05
6.69673e-05
2.40024e-05
6.69642e-05
3.85784e-05
3.81744e-05
2.40943e-05
4.63222e-05
6.69625e-05
6.69592e-05
2.39769e-05
3.85801e-05
7.4786e-05
7.28313e-05
7.28378e-05
7.27894e-05
7.27957e-05
7.55083e-05
7.09022e-05
6.9224e-05
7.15062e-05
3.20658e-05
3.93141e-05
7.25549e-05
3.88977e-05
7.26663e-05
7.14403e-05
2.28517e-05
1.86502e-05
1.91704e-05
1.91711e-05
1.92122e-05
1.92126e-05
2.2925e-05
2.07944e-05
1.87213e-05
1.98568e-05
3.0764e-05
2.5109e-05
2.50158e-05
1.9858e-05
1.86609e-05
1.83851e-05
1.92612e-05
2.07648e-05
1.81562e-05
2.07286e-05
1.82493e-05
1.82935e-05
1.98552e-05
3.07598e-05
1.98563e-05
1.83849e-05
1.92608e-05
1.81558e-05
2.07641e-05
1.82931e-05
1.8249e-05
2.07281e-05
1.85905e-05
1.92855e-05
1.92864e-05
1.84899e-05
1.90936e-05
1.90945e-05
2.03339e-05
6.92498e-05
6.92508e-05
3.25297e-05
7.08779e-05
7.08782e-05
4.66533e-05
4.66603e-05
6.92422e-05
3.23426e-05
3.08738e-05
1.97549e-05
1.92602e-05
6.92432e-05
3.08762e-05
7.08189e-05
7.08192e-05
4.68756e-05
4.6882e-05
3.11133e-05
3.11156e-05
1.95431e-05
1.9266e-05
6.92691e-05
7.14105e-05
6.33087e-05
6.92701e-05
7.1391e-05
6.37494e-05
7.12471e-05
3.2823e-05
3.96109e-05
7.23678e-05
7.1308e-05
4.00252e-05
7.22628e-05
7.09027e-05
7.09029e-05
3.82855e-05
2.40867e-05
4.63306e-05
6.69629e-05
6.69611e-05
2.39982e-05
3.85681e-05
3.83295e-05
2.40924e-05
4.63379e-05
6.69689e-05
6.69671e-05
2.40042e-05
3.8597e-05
7.50001e-05
7.28219e-05
7.28154e-05
7.28083e-05
7.28019e-05
7.53848e-05
7.13727e-05
6.92236e-05
6.3086e-05
7.1393e-05
6.26226e-05
7.15065e-05
3.20667e-05
7.25552e-05
3.93151e-05
7.14407e-05
7.26662e-05
3.89015e-05
6.92245e-05
7.07968e-05
7.07971e-05
3.92107e-05
2.42689e-05
6.69639e-05
4.71924e-05
3.89148e-05
6.69691e-05
2.43621e-05
3.92514e-05
2.42749e-05
6.697e-05
4.72005e-05
3.89558e-05
6.69753e-05
2.43683e-05
7.61442e-05
7.28213e-05
7.28148e-05
7.56279e-05
7.28453e-05
7.28387e-05
2.28571e-05
1.865e-05
1.91711e-05
1.91704e-05
1.92125e-05
1.92118e-05
2.29287e-05
2.31626e-05
1.91587e-05
1.91581e-05
1.84301e-05
2.30852e-05
1.91255e-05
1.91249e-05
2.07944e-05
2.11647e-05
2.07945e-05
2.11646e-05
1.87213e-05
1.98556e-05
3.07611e-05
2.51103e-05
1.98567e-05
2.50175e-05
1.86609e-05
1.83851e-05
1.9261e-05
2.07645e-05
1.81562e-05
2.07284e-05
1.82492e-05
1.82935e-05
1.98563e-05
3.07636e-05
1.98575e-05
1.86607e-05
1.98686e-05
3.12294e-05
1.98713e-05
1.85849e-05
1.98694e-05
2.53168e-05
3.12317e-05
2.54139e-05
1.86385e-05
1.98721e-05
1.816e-05
1.92706e-05
2.08475e-05
1.80825e-05
2.08892e-05
1.82471e-05
1.79911e-05
2.09865e-05
1.99011e-05
1.9901e-05
1.91812e-05
1.93147e-05
2.01179e-05
2.01177e-05
1.93147e-05
2.01188e-05
2.01175e-05
2.0119e-05
2.01178e-05
1.93144e-05
2.01189e-05
2.01188e-05
1.9314e-05
1.91818e-05
1.99002e-05
1.99e-05
1.91819e-05
1.99011e-05
1.98998e-05
1.99001e-05
1.91816e-05
1.9901e-05
2.12115e-05
2.12114e-05
2.12113e-05
2.12113e-05
3.14459e-05
6.91549e-05
3.0799e-05
6.91917e-05
7.12024e-05
7.10637e-05
3.14484e-05
6.91556e-05
3.07964e-05
6.91929e-05
2.09865e-05
2.09863e-05
2.09864e-05
1.92798e-05
2.97736e-05
2.04199e-05
1.96898e-05
1.93513e-05
3.01953e-05
2.01933e-05
7.12026e-05
7.10633e-05
1.92797e-05
2.04197e-05
2.9774e-05
1.96897e-05
1.93512e-05
2.01932e-05
3.01949e-05
4.4615e-05
4.46238e-05
1.89355e-05
4.55343e-05
4.55403e-05
7.12844e-05
7.12845e-05
4.43673e-05
4.43735e-05
6.91495e-05
3.06424e-05
6.91464e-05
6.91192e-05
3.06436e-05
2.95671e-05
2.06514e-05
1.93677e-05
2.03421e-05
2.95706e-05
2.06513e-05
2.9185e-05
1.93678e-05
7.12849e-05
7.14526e-05
1.95805e-05
4.43752e-05
4.43628e-05
4.34412e-05
4.34414e-05
7.12842e-05
7.14522e-05
6.91506e-05
3.06432e-05
2.9569e-05
2.06514e-05
1.93675e-05
6.9147e-05
3.06396e-05
2.06511e-05
2.95701e-05
1.93676e-05
1.94937e-05
2.03432e-05
2.95673e-05
2.06515e-05
2.91816e-05
2.08882e-05
1.93676e-05
3.00844e-05
6.91503e-05
6.91229e-05
3.0644e-05
1.94938e-05
2.06513e-05
2.95678e-05
2.0888e-05
1.93677e-05
3.00812e-05
6.9147e-05
3.0644e-05
7.12849e-05
4.43727e-05
4.43656e-05
7.12845e-05
2.06514e-05
2.95671e-05
1.93675e-05
2.06513e-05
2.95699e-05
1.93676e-05
6.91509e-05
3.06447e-05
6.91472e-05
3.06444e-05
4.43737e-05
4.43787e-05
7.1285e-05
7.12852e-05
7.12025e-05
7.10628e-05
7.12023e-05
7.1063e-05
4.46153e-05
4.46225e-05
1.89363e-05
4.55261e-05
4.55326e-05
7.09937e-05
7.09937e-05
1.88188e-05
4.57631e-05
4.57702e-05
3.14471e-05
6.91515e-05
3.07997e-05
6.91885e-05
1.92798e-05
2.97746e-05
2.04199e-05
1.96888e-05
1.93514e-05
3.01955e-05
2.01932e-05
1.928e-05
2.97771e-05
2.04198e-05
1.96885e-05
1.93515e-05
3.01989e-05
2.01931e-05
3.1616e-05
6.91987e-05
3.16172e-05
6.91952e-05
1.92748e-05
1.94839e-05
3.042e-05
1.99716e-05
1.92749e-05
1.94838e-05
3.04237e-05
1.99715e-05
4.46158e-05
4.46159e-05
1.89362e-05
4.55391e-05
4.55262e-05
7.12019e-05
7.10629e-05
7.09938e-05
1.88186e-05
4.57704e-05
4.57713e-05
7.09933e-05
1.92796e-05
2.97761e-05
2.04198e-05
1.96897e-05
1.93512e-05
3.01976e-05
2.01932e-05
3.14458e-05
6.9152e-05
3.07988e-05
6.91889e-05
1.92797e-05
2.04196e-05
2.97773e-05
1.96883e-05
1.93512e-05
2.01929e-05
3.0198e-05
3.1615e-05
6.91996e-05
1.92746e-05
1.94849e-05
3.04219e-05
1.99716e-05
3.16147e-05
6.91958e-05
1.92746e-05
1.94836e-05
1.99714e-05
3.04233e-05
3.14475e-05
6.91554e-05
3.08013e-05
6.91926e-05
1.92799e-05
2.04197e-05
2.97749e-05
1.96886e-05
1.93513e-05
2.01931e-05
3.01959e-05
3.14482e-05
6.9152e-05
3.07984e-05
6.91891e-05
1.92746e-05
1.94849e-05
3.042e-05
1.99717e-05
3.1619e-05
6.91993e-05
1.92747e-05
1.94838e-05
1.99715e-05
3.04206e-05
3.16168e-05
6.91957e-05
4.46207e-05
4.46165e-05
1.89359e-05
4.55334e-05
4.55266e-05
7.12021e-05
7.10631e-05
7.09942e-05
1.88184e-05
4.57743e-05
4.57691e-05
7.09937e-05
1.92798e-05
2.04197e-05
2.9777e-05
1.96896e-05
1.93513e-05
2.01931e-05
3.01982e-05
3.14495e-05
6.91558e-05
3.07971e-05
6.91931e-05
3.1449e-05
6.91522e-05
3.07964e-05
6.91893e-05
1.92746e-05
1.94848e-05
1.99715e-05
3.042e-05
1.92747e-05
1.94848e-05
1.99715e-05
3.0423e-05
3.16162e-05
6.91997e-05
3.16155e-05
6.91959e-05
7.12024e-05
7.10634e-05
7.12026e-05
7.10638e-05
1.88181e-05
4.57664e-05
4.57759e-05
7.09938e-05
7.09942e-05
7.19487e-05
3.12011e-05
7.31782e-05
3.79072e-05
7.33012e-05
3.75077e-05
7.18726e-05
7.1337e-05
6.03272e-05
6.91697e-05
7.13169e-05
6.08623e-05
7.21118e-05
3.10367e-05
7.36368e-05
3.68248e-05
7.21934e-05
7.3508e-05
3.72214e-05
7.13346e-05
6.16391e-05
6.91759e-05
6.11299e-05
7.13553e-05
7.11693e-05
7.10938e-05
7.19487e-05
3.12028e-05
3.79104e-05
7.3178e-05
3.75078e-05
7.33014e-05
7.18725e-05
7.1337e-05
6.03208e-05
6.91704e-05
7.13168e-05
6.08604e-05
7.21115e-05
3.10359e-05
3.68233e-05
7.36371e-05
7.21933e-05
3.72172e-05
7.35078e-05
7.13348e-05
6.16427e-05
6.91765e-05
6.11342e-05
7.13554e-05
7.1169e-05
7.10939e-05
7.31078e-05
7.27819e-05
7.27754e-05
7.27517e-05
7.27456e-05
7.37304e-05
3.64163e-05
2.3288e-05
6.70097e-05
4.49465e-05
3.61809e-05
2.33572e-05
6.69988e-05
3.64586e-05
2.32922e-05
6.7014e-05
4.49503e-05
3.61834e-05
2.33617e-05
6.70031e-05
7.24168e-05
7.27181e-05
7.27118e-05
7.18466e-05
7.27391e-05
7.27325e-05
3.68943e-05
6.69774e-05
4.51946e-05
2.35826e-05
2.35059e-05
6.69814e-05
3.71752e-05
3.69234e-05
6.69835e-05
4.52032e-05
2.35883e-05
2.35107e-05
6.69873e-05
3.72448e-05
7.13219e-05
7.13216e-05
3.5506e-05
2.3152e-05
4.40328e-05
6.7035e-05
6.70485e-05
2.30887e-05
3.57567e-05
3.55417e-05
2.31558e-05
4.4039e-05
6.70408e-05
6.70539e-05
2.30927e-05
3.57827e-05
7.08119e-05
7.27179e-05
7.27119e-05
7.27e-05
7.2694e-05
7.14525e-05
7.13014e-05
6.91371e-05
6.00272e-05
7.13201e-05
5.94757e-05
7.24542e-05
3.04325e-05
7.38496e-05
3.65464e-05
7.23663e-05
7.39838e-05
3.61648e-05
7.13029e-05
6.91337e-05
6.00154e-05
5.94627e-05
7.13216e-05
7.13083e-05
5.85771e-05
6.91297e-05
7.12919e-05
5.91462e-05
7.24536e-05
3.04318e-05
7.38486e-05
3.65479e-05
7.39834e-05
3.61636e-05
7.23657e-05
7.13219e-05
7.14119e-05
7.05922e-05
7.26773e-05
7.2683e-05
6.9735e-05
7.27037e-05
7.27095e-05
3.55922e-05
2.3158e-05
4.40366e-05
6.70399e-05
2.3095e-05
6.70553e-05
3.57985e-05
3.55489e-05
2.31534e-05
4.40368e-05
6.70337e-05
6.70507e-05
2.30908e-05
3.5769e-05
3.51677e-05
6.71025e-05
2.29127e-05
4.37913e-05
2.29707e-05
3.48886e-05
6.70872e-05
3.51781e-05
6.70991e-05
2.29079e-05
4.3779e-05
3.48476e-05
6.70835e-05
2.29666e-05
7.1026e-05
7.27043e-05
7.27099e-05
7.2698e-05
7.27039e-05
7.13608e-05
7.13215e-05
7.14112e-05
7.13016e-05
6.9138e-05
6.00281e-05
7.132e-05
5.94829e-05
7.24543e-05
3.04356e-05
3.65499e-05
7.38495e-05
7.23658e-05
3.61688e-05
7.3984e-05
7.13028e-05
6.91344e-05
6.00101e-05
5.94651e-05
7.13212e-05
7.24535e-05
3.04399e-05
7.38497e-05
3.65488e-05
7.39827e-05
3.61696e-05
7.23657e-05
7.26365e-05
3.55208e-05
7.4342e-05
3.02791e-05
7.27311e-05
3.58922e-05
7.42019e-05
7.13012e-05
6.91374e-05
6.00318e-05
5.94759e-05
7.13204e-05
7.13068e-05
5.85907e-05
6.91334e-05
7.12899e-05
5.9158e-05
7.24539e-05
3.04297e-05
3.65448e-05
7.38493e-05
3.61634e-05
7.39842e-05
7.23661e-05
7.26357e-05
7.43414e-05
3.55112e-05
3.02805e-05
7.27311e-05
7.4201e-05
3.58875e-05
7.1303e-05
6.91344e-05
6.00109e-05
5.94678e-05
7.13212e-05
7.13082e-05
6.91302e-05
5.91506e-05
7.24538e-05
3.04331e-05
7.38484e-05
3.6551e-05
7.39836e-05
3.61686e-05
7.23652e-05
7.1322e-05
3.5593e-05
2.31583e-05
4.40405e-05
6.70408e-05
2.3095e-05
6.70559e-05
3.58136e-05
3.55609e-05
2.31536e-05
4.40362e-05
6.70362e-05
6.70508e-05
2.30908e-05
3.57797e-05
7.10467e-05
7.27103e-05
7.27162e-05
7.27009e-05
7.27068e-05
7.15013e-05
7.13217e-05
7.13013e-05
6.91379e-05
6.00322e-05
5.94836e-05
7.13204e-05
7.24539e-05
3.0435e-05
3.65517e-05
7.38493e-05
3.61682e-05
7.3984e-05
7.2366e-05
7.13029e-05
6.91346e-05
6.00122e-05
5.94684e-05
7.13211e-05
7.24537e-05
3.04358e-05
3.65522e-05
7.38485e-05
3.61686e-05
7.39835e-05
7.23651e-05
7.03466e-05
7.26998e-05
7.26933e-05
3.55539e-05
2.31532e-05
4.40328e-05
6.70364e-05
3.57895e-05
2.30898e-05
6.70487e-05
3.55927e-05
2.31579e-05
4.40417e-05
6.70422e-05
3.58399e-05
2.3094e-05
6.7055e-05
3.50935e-05
4.37757e-05
2.29662e-05
6.70798e-05
7.10508e-05
7.27216e-05
7.27153e-05
7.15703e-05
7.27061e-05
7.27e-05
7.13221e-05
7.14115e-05
7.13223e-05
7.11687e-05
7.10935e-05
7.11688e-05
7.10933e-05
7.30033e-05
7.27657e-05
7.27594e-05
7.27506e-05
7.27443e-05
7.34853e-05
3.64948e-05
2.32871e-05
6.70088e-05
4.49529e-05
3.6187e-05
6.70005e-05
2.3358e-05
3.65227e-05
2.32916e-05
6.70146e-05
4.49596e-05
3.62276e-05
6.70061e-05
2.33624e-05
7.26661e-05
7.27238e-05
7.27177e-05
7.19636e-05
7.27501e-05
7.27439e-05
3.68765e-05
6.69773e-05
4.51989e-05
2.35823e-05
6.69828e-05
3.71309e-05
2.35066e-05
3.69131e-05
6.69829e-05
4.52049e-05
2.3587e-05
6.69884e-05
3.71591e-05
2.35113e-05
7.09663e-05
7.2772e-05
7.27657e-05
7.39143e-05
3.78575e-05
6.6965e-05
2.37414e-05
4.60926e-05
3.75347e-05
6.69638e-05
2.38243e-05
6.69711e-05
2.37467e-05
3.75786e-05
7.19482e-05
3.11999e-05
7.31772e-05
3.79068e-05
7.33008e-05
3.75052e-05
7.1872e-05
7.13381e-05
6.03122e-05
6.91663e-05
7.13181e-05
6.08439e-05
7.21111e-05
3.1037e-05
7.36364e-05
3.68259e-05
7.3507e-05
7.21928e-05
3.72211e-05
7.13355e-05
6.16257e-05
6.91722e-05
6.11135e-05
7.13564e-05
7.1649e-05
7.29775e-05
3.81939e-05
3.18869e-05
7.17199e-05
7.28604e-05
3.86042e-05
7.13745e-05
6.18951e-05
6.92164e-05
7.13536e-05
6.23872e-05
7.16484e-05
7.29771e-05
3.81951e-05
3.1887e-05
7.17193e-05
7.28594e-05
3.86056e-05
7.13752e-05
6.18808e-05
6.92128e-05
7.13543e-05
6.23701e-05
7.3213e-05
7.27753e-05
7.27813e-05
7.27555e-05
7.27618e-05
7.3754e-05
3.64556e-05
2.32915e-05
6.70115e-05
4.49606e-05
6.70031e-05
3.61908e-05
2.33614e-05
3.64573e-05
2.32848e-05
6.70067e-05
4.49473e-05
2.33552e-05
3.61055e-05
6.69987e-05
7.25047e-05
7.27063e-05
7.27122e-05
7.27414e-05
7.17357e-05
7.27474e-05
3.69456e-05
6.69837e-05
4.52003e-05
2.35885e-05
6.69875e-05
2.35112e-05
3.72157e-05
3.68996e-05
6.69796e-05
4.51998e-05
2.35881e-05
2.35023e-05
6.6984e-05
3.72229e-05
7.11685e-05
7.10933e-05
7.09667e-05
7.42871e-05
7.2768e-05
7.27741e-05
7.39814e-05
7.27786e-05
7.27844e-05
3.78386e-05
6.69731e-05
2.37502e-05
4.60999e-05
2.38313e-05
3.76259e-05
6.69679e-05
3.78237e-05
6.69671e-05
2.37376e-05
4.60879e-05
3.75518e-05
6.69615e-05
2.38317e-05
7.09658e-05
7.19483e-05
3.12069e-05
7.31781e-05
3.79091e-05
7.33002e-05
3.75091e-05
7.18719e-05
7.13379e-05
6.03065e-05
6.91666e-05
7.13178e-05
6.08442e-05
7.2111e-05
3.10329e-05
7.36358e-05
3.6824e-05
7.3508e-05
7.21927e-05
3.72161e-05
7.13354e-05
6.16224e-05
6.91729e-05
6.11155e-05
7.1356e-05
3.81965e-05
7.29777e-05
7.17197e-05
6.18933e-05
7.13536e-05
7.29765e-05
3.8195e-05
7.17193e-05
6.18762e-05
7.13541e-05
7.19486e-05
3.11979e-05
3.79039e-05
7.31778e-05
3.75061e-05
7.33016e-05
7.18722e-05
7.13371e-05
6.0326e-05
6.91702e-05
6.08566e-05
7.13166e-05
7.21114e-05
3.10355e-05
3.68282e-05
7.36372e-05
3.72212e-05
7.21932e-05
7.35077e-05
7.13343e-05
6.1643e-05
6.91761e-05
6.11279e-05
7.13556e-05
7.19482e-05
3.12009e-05
7.31769e-05
3.79098e-05
7.3301e-05
3.75069e-05
7.18719e-05
7.1338e-05
6.03053e-05
6.91667e-05
7.13179e-05
6.08448e-05
7.21109e-05
3.10357e-05
7.36366e-05
3.68235e-05
7.21928e-05
7.35068e-05
3.72152e-05
7.13356e-05
6.16238e-05
6.91727e-05
6.1117e-05
7.1356e-05
7.16487e-05
3.81978e-05
7.29779e-05
3.18859e-05
7.17198e-05
3.86063e-05
7.286e-05
7.13745e-05
6.18968e-05
6.92168e-05
7.13533e-05
6.23838e-05
7.16482e-05
7.29773e-05
3.81956e-05
3.18854e-05
7.17192e-05
7.28592e-05
3.86004e-05
7.1375e-05
6.18763e-05
6.92133e-05
7.13542e-05
6.23687e-05
7.30613e-05
7.27779e-05
7.27841e-05
7.27478e-05
7.27539e-05
7.37339e-05
3.64751e-05
2.32917e-05
6.70127e-05
4.49602e-05
6.70041e-05
3.61791e-05
2.33616e-05
3.6442e-05
2.32869e-05
6.70078e-05
4.49538e-05
2.33564e-05
3.61446e-05
6.69989e-05
7.24553e-05
7.27089e-05
7.27149e-05
7.27352e-05
7.17925e-05
7.27413e-05
3.69162e-05
6.69835e-05
4.52041e-05
2.35879e-05
6.69876e-05
2.35105e-05
3.7221e-05
3.68815e-05
6.69781e-05
4.51989e-05
2.35822e-05
2.35053e-05
6.69823e-05
3.71845e-05
7.11687e-05
7.10934e-05
7.27745e-05
7.27807e-05
7.40442e-05
6.69734e-05
2.37498e-05
3.76152e-05
3.78416e-05
6.69682e-05
2.37439e-05
4.60963e-05
3.75765e-05
6.69647e-05
2.38257e-05
7.09663e-05
7.19486e-05
3.12017e-05
3.791e-05
7.31778e-05
3.75061e-05
7.33014e-05
7.18722e-05
7.13371e-05
6.03203e-05
6.91704e-05
6.0856e-05
7.13163e-05
7.21113e-05
3.10344e-05
3.68261e-05
7.3637e-05
3.72148e-05
7.2193e-05
7.35076e-05
7.13343e-05
6.16448e-05
6.91764e-05
6.11325e-05
7.13557e-05
7.19481e-05
3.12029e-05
3.79109e-05
7.31771e-05
3.75068e-05
7.33009e-05
7.18718e-05
7.13379e-05
6.03049e-05
6.91668e-05
7.13178e-05
6.08437e-05
7.21107e-05
3.10354e-05
3.68238e-05
7.36366e-05
7.21926e-05
3.72155e-05
7.35069e-05
7.13356e-05
6.16255e-05
6.91729e-05
6.11176e-05
7.1356e-05
7.16485e-05
3.81991e-05
7.29777e-05
3.18843e-05
7.17197e-05
3.86018e-05
7.286e-05
7.13746e-05
6.18941e-05
6.92172e-05
7.13532e-05
6.23827e-05
7.16481e-05
3.81965e-05
7.29772e-05
3.18851e-05
7.17191e-05
3.86008e-05
7.28593e-05
7.13748e-05
6.1877e-05
6.92135e-05
7.13542e-05
6.23683e-05
7.11689e-05
7.10936e-05
7.11691e-05
7.10939e-05
7.43359e-05
7.27774e-05
7.27711e-05
7.39962e-05
7.27897e-05
7.27828e-05
3.77999e-05
6.69676e-05
2.37439e-05
4.60871e-05
3.7584e-05
2.3825e-05
6.69636e-05
3.78449e-05
6.69731e-05
2.37492e-05
4.60918e-05
3.75889e-05
2.38306e-05
6.6968e-05
7.09664e-05
7.09667e-05
2.14321e-05
2.14323e-05
2.07652e-05
2.12162e-05
2.12164e-05
2.15677e-05
2.17737e-05
2.23359e-05
1.94529e-05
1.94521e-05
1.91209e-05
2.2286e-05
1.93863e-05
1.93856e-05
2.21404e-05
1.93767e-05
1.94847e-05
1.94837e-05
1.95597e-05
1.95587e-05
2.21831e-05
2.21439e-05
1.93766e-05
1.94841e-05
1.9485e-05
1.95588e-05
1.95597e-05
2.2186e-05
2.21434e-05
1.93764e-05
1.94839e-05
1.94848e-05
1.95585e-05
1.95595e-05
2.21862e-05
2.21419e-05
1.9376e-05
1.94844e-05
1.94836e-05
2.21855e-05
1.95594e-05
1.95585e-05
2.23377e-05
1.94531e-05
1.94521e-05
1.91216e-05
2.22856e-05
1.93865e-05
1.93856e-05
2.23344e-05
1.94525e-05
1.94533e-05
1.91217e-05
1.93865e-05
2.22835e-05
1.93856e-05
2.23353e-05
1.94523e-05
1.94533e-05
1.91214e-05
1.93865e-05
2.22849e-05
1.93856e-05
2.16514e-05
2.16515e-05
2.19826e-05
2.16513e-05
2.16515e-05
2.19826e-05
2.16512e-05
2.16515e-05
2.19825e-05
2.16513e-05
2.16514e-05
2.19825e-05
2.14321e-05
2.14323e-05
2.07652e-05
2.12161e-05
2.12164e-05
2.15677e-05
2.17737e-05
2.1432e-05
2.14322e-05
2.07651e-05
2.1216e-05
2.12163e-05
2.15676e-05
2.17736e-05
2.1432e-05
2.14322e-05
2.0765e-05
2.12161e-05
2.12163e-05
2.15676e-05
2.17736e-05
2.0548e-05
2.10037e-05
2.10039e-05
2.13648e-05
2.05479e-05
2.10037e-05
2.10039e-05
2.13648e-05
2.05478e-05
2.10036e-05
2.10038e-05
2.13647e-05
2.05478e-05
2.10036e-05
2.10038e-05
2.13647e-05
1.86884e-05
1.93048e-05
2.05681e-05
1.85122e-05
2.05436e-05
1.86089e-05
1.85903e-05
1.8955e-05
1.99082e-05
2.42047e-05
2.98738e-05
1.90363e-05
1.98796e-05
2.4284e-05
1.87538e-05
1.93155e-05
2.04786e-05
1.88021e-05
1.88543e-05
2.0497e-05
1.87036e-05
1.892e-05
2.45444e-05
3.00902e-05
1.98568e-05
1.98756e-05
2.44598e-05
1.88458e-05
1.86883e-05
1.93047e-05
1.8512e-05
2.05678e-05
1.86088e-05
2.05434e-05
1.859e-05
1.89547e-05
1.99082e-05
2.42047e-05
2.98741e-05
1.9036e-05
1.98795e-05
2.42836e-05
1.87535e-05
1.93153e-05
1.8802e-05
2.04786e-05
1.88542e-05
1.87033e-05
2.04967e-05
1.89198e-05
2.4544e-05
3.00903e-05
1.98566e-05
1.98756e-05
2.446e-05
1.88455e-05
2.24543e-05
1.89954e-05
1.93012e-05
1.93006e-05
1.93595e-05
1.93588e-05
2.25137e-05
1.91636e-05
1.99171e-05
2.9472e-05
2.40406e-05
1.99546e-05
2.39669e-05
1.90754e-05
1.90298e-05
1.94145e-05
2.04445e-05
1.89039e-05
2.04324e-05
1.90045e-05
1.89273e-05
1.91636e-05
1.9918e-05
2.94751e-05
2.40402e-05
2.39661e-05
1.99552e-05
1.90755e-05
1.9207e-05
2.37455e-05
2.00153e-05
2.92763e-05
1.93021e-05
2.38141e-05
1.99689e-05
1.90297e-05
1.94146e-05
2.04449e-05
1.89039e-05
2.04325e-05
1.90045e-05
1.89273e-05
2.20536e-05
1.95159e-05
1.96784e-05
1.96789e-05
1.9595e-05
2.20154e-05
1.9596e-05
1.91634e-05
1.99174e-05
2.94734e-05
2.4041e-05
1.99549e-05
2.39669e-05
1.90752e-05
1.90296e-05
1.94143e-05
2.04444e-05
1.89037e-05
2.04322e-05
1.90043e-05
1.89269e-05
1.91632e-05
1.99176e-05
2.94745e-05
2.40394e-05
2.39658e-05
1.99549e-05
1.9075e-05
1.90294e-05
1.94143e-05
1.89037e-05
2.04446e-05
1.90041e-05
2.04325e-05
1.89269e-05
1.91105e-05
2.04042e-05
1.92155e-05
1.94363e-05
1.92149e-05
2.04104e-05
1.9113e-05
1.91635e-05
1.99172e-05
2.94717e-05
2.40404e-05
1.90754e-05
1.99544e-05
2.39662e-05
1.92069e-05
2.37456e-05
2.00146e-05
2.9273e-05
1.93021e-05
1.99682e-05
2.38141e-05
1.90297e-05
1.94143e-05
2.04444e-05
1.89038e-05
1.89272e-05
2.04321e-05
1.90043e-05
1.91104e-05
1.92154e-05
2.04042e-05
1.94363e-05
1.92147e-05
1.91129e-05
2.04104e-05
1.91632e-05
1.99171e-05
2.94719e-05
2.40391e-05
2.39651e-05
1.99545e-05
1.90751e-05
1.92066e-05
2.92737e-05
2.3813e-05
1.99682e-05
1.90294e-05
1.94143e-05
1.89037e-05
2.04447e-05
1.90042e-05
2.04323e-05
1.89271e-05
1.91633e-05
1.9917e-05
2.94715e-05
2.40402e-05
1.90751e-05
1.99544e-05
2.39664e-05
1.90296e-05
1.94142e-05
1.89036e-05
2.04444e-05
1.89269e-05
1.90042e-05
2.04321e-05
1.91633e-05
1.99178e-05
2.9474e-05
2.40397e-05
2.39656e-05
1.99551e-05
1.90751e-05
1.90294e-05
1.94143e-05
1.89035e-05
2.04448e-05
1.90042e-05
2.04324e-05
1.89269e-05
2.24556e-05
1.89959e-05
1.93017e-05
1.93008e-05
2.25127e-05
1.93598e-05
1.93589e-05
2.27086e-05
1.87593e-05
1.92797e-05
1.92788e-05
2.26424e-05
1.92297e-05
1.92289e-05
1.86885e-05
1.9305e-05
2.05682e-05
1.85123e-05
2.05439e-05
1.8609e-05
1.85905e-05
1.8955e-05
1.99082e-05
2.42054e-05
2.98745e-05
2.42846e-05
1.90363e-05
1.98797e-05
1.87539e-05
1.93155e-05
2.04788e-05
1.88022e-05
2.04971e-05
1.88544e-05
1.87037e-05
1.89201e-05
2.45448e-05
3.00915e-05
1.98568e-05
2.44608e-05
1.98759e-05
1.88459e-05
1.86885e-05
1.93051e-05
2.05685e-05
1.85123e-05
2.05441e-05
1.8609e-05
1.85904e-05
1.89551e-05
1.99091e-05
2.42044e-05
2.98773e-05
1.90363e-05
2.42838e-05
1.98805e-05
1.87539e-05
1.93157e-05
2.0479e-05
1.88023e-05
1.88543e-05
2.04974e-05
1.87037e-05
1.89201e-05
2.45439e-05
3.00939e-05
1.98578e-05
2.44595e-05
1.88459e-05
1.98767e-05
1.8437e-05
2.0627e-05
1.84247e-05
1.92607e-05
1.85322e-05
2.06572e-05
1.83298e-05
1.87478e-05
2.47317e-05
1.98576e-05
3.05284e-05
1.98495e-05
1.88151e-05
2.48203e-05
1.84369e-05
2.06273e-05
1.84247e-05
1.92609e-05
1.85321e-05
2.06577e-05
1.83298e-05
1.87479e-05
2.47305e-05
1.98586e-05
3.05321e-05
1.88151e-05
2.48194e-05
1.98508e-05
2.24546e-05
1.89958e-05
1.93006e-05
1.93015e-05
1.93595e-05
1.93588e-05
2.25147e-05
2.27102e-05
1.87595e-05
1.92788e-05
1.92795e-05
1.92293e-05
2.26472e-05
1.92301e-05
1.86883e-05
1.93048e-05
2.0568e-05
1.85121e-05
2.05437e-05
1.86089e-05
1.85901e-05
1.89549e-05
1.99086e-05
2.42051e-05
2.98767e-05
2.42847e-05
1.90361e-05
1.98802e-05
1.87535e-05
1.93153e-05
2.04786e-05
1.88021e-05
2.04968e-05
1.88542e-05
1.87035e-05
1.892e-05
2.45451e-05
3.00931e-05
1.98574e-05
2.44608e-05
1.98764e-05
1.88457e-05
1.86881e-05
1.93048e-05
1.85121e-05
2.05681e-05
1.86087e-05
2.05439e-05
1.859e-05
1.89546e-05
1.99088e-05
2.42038e-05
2.98769e-05
1.90359e-05
2.42829e-05
1.98802e-05
1.87535e-05
1.93154e-05
1.88019e-05
2.04788e-05
1.8854e-05
1.87035e-05
2.0497e-05
1.89197e-05
2.4543e-05
3.00935e-05
1.98574e-05
2.44591e-05
1.88454e-05
1.98764e-05
2.06271e-05
1.84246e-05
1.8532e-05
2.47318e-05
1.98582e-05
1.88151e-05
1.84244e-05
2.06272e-05
1.85318e-05
2.473e-05
1.98583e-05
1.88147e-05
1.86882e-05
1.93049e-05
1.85122e-05
2.05682e-05
1.86088e-05
2.05436e-05
1.85902e-05
1.89547e-05
1.99083e-05
2.4203e-05
2.98749e-05
1.98798e-05
1.90359e-05
2.42825e-05
1.87537e-05
1.93156e-05
1.8802e-05
2.04787e-05
1.87035e-05
1.88541e-05
2.0497e-05
1.89197e-05
2.45426e-05
3.00909e-05
1.98568e-05
1.98758e-05
2.44583e-05
1.88454e-05
1.84368e-05
2.06269e-05
1.84246e-05
1.92607e-05
1.85321e-05
2.06572e-05
1.83297e-05
1.87478e-05
2.47311e-05
1.98574e-05
3.05284e-05
1.88151e-05
1.98495e-05
2.482e-05
1.84367e-05
1.84245e-05
2.0627e-05
1.92607e-05
1.85319e-05
1.83296e-05
2.06573e-05
1.87474e-05
2.47291e-05
1.98576e-05
3.05291e-05
1.88147e-05
2.4818e-05
1.98496e-05
2.24537e-05
1.89957e-05
1.93004e-05
1.93013e-05
1.93596e-05
1.93587e-05
2.25132e-05
2.27107e-05
1.8759e-05
1.92786e-05
1.92794e-05
1.9229e-05
2.26465e-05
1.92298e-05
1.86881e-05
1.93049e-05
1.8512e-05
2.05683e-05
1.86087e-05
2.05437e-05
1.859e-05
1.89548e-05
1.9909e-05
2.42037e-05
2.98771e-05
1.98805e-05
1.9036e-05
2.4283e-05
1.87535e-05
1.93154e-05
1.8802e-05
2.04788e-05
1.87033e-05
1.8854e-05
2.04971e-05
1.89199e-05
2.45433e-05
3.00931e-05
1.98577e-05
1.98766e-05
2.44589e-05
1.88456e-05
1.84366e-05
1.84245e-05
2.0627e-05
1.92605e-05
1.8532e-05
1.83295e-05
2.06571e-05
1.87475e-05
2.47312e-05
1.98574e-05
3.05286e-05
1.88148e-05
1.98494e-05
2.48197e-05
1.84366e-05
1.84244e-05
2.06272e-05
1.92606e-05
1.85318e-05
1.83295e-05
2.06575e-05
1.87476e-05
2.47299e-05
1.98585e-05
3.05315e-05
1.88149e-05
2.48187e-05
1.98506e-05
2.27092e-05
1.87587e-05
1.92794e-05
1.92786e-05
2.26459e-05
1.92296e-05
1.9229e-05
1.92852e-05
1.85904e-05
1.92863e-05
2.03338e-05
3.23463e-05
1.97549e-05
1.926e-05
6.9239e-05
3.23443e-05
1.97547e-05
3.08762e-05
1.92601e-05
7.08783e-05
4.66547e-05
4.66483e-05
7.08779e-05
3.0873e-05
6.92432e-05
7.09665e-05
7.45831e-05
7.28041e-05
7.27976e-05
3.78942e-05
4.61e-05
6.69697e-05
2.38297e-05
7.16488e-05
3.18847e-05
3.86017e-05
7.28602e-05
7.13728e-05
6.30874e-05
7.13931e-05
6.26221e-05
7.13745e-05
6.92171e-05
6.23849e-05
7.15064e-05
3.20668e-05
3.93163e-05
7.25551e-05
7.14406e-05
3.88984e-05
7.26664e-05
7.16482e-05
3.18842e-05
7.28603e-05
3.86001e-05
7.1373e-05
6.92207e-05
6.30679e-05
6.26049e-05
7.13933e-05
7.1375e-05
6.92132e-05
6.23683e-05
7.1506e-05
3.20702e-05
7.25551e-05
3.93156e-05
7.26653e-05
3.89009e-05
7.144e-05
7.09031e-05
7.09666e-05
7.44433e-05
7.27856e-05
7.27919e-05
3.82556e-05
2.40911e-05
4.63327e-05
6.69672e-05
2.40026e-05
6.69651e-05
3.85801e-05
3.82151e-05
2.40844e-05
4.63269e-05
6.69618e-05
6.69597e-05
2.39964e-05
3.85414e-05
3.78799e-05
4.61022e-05
2.38316e-05
6.69697e-05
7.4762e-05
7.28206e-05
7.2827e-05
7.2789e-05
7.27953e-05
7.53961e-05
7.09025e-05
7.13723e-05
6.92244e-05
6.30871e-05
6.26203e-05
7.13933e-05
2.28534e-05
1.86499e-05
1.91703e-05
1.91711e-05
1.92119e-05
1.92127e-05
2.29255e-05
2.07946e-05
2.07943e-05
1.84366e-05
1.92605e-05
2.06572e-05
1.83296e-05
1.87212e-05
2.51107e-05
2.50175e-05
1.87476e-05
3.05306e-05
1.98502e-05
2.48206e-05
1.83849e-05
1.92609e-05
2.07643e-05
1.81559e-05
2.07282e-05
1.82491e-05
1.82932e-05
1.84366e-05
1.92606e-05
1.83296e-05
2.06573e-05
1.87209e-05
1.98564e-05
3.0764e-05
2.51081e-05
2.50155e-05
1.98576e-05
1.86604e-05
1.87473e-05
3.05316e-05
2.48185e-05
1.98504e-05
1.83848e-05
1.9261e-05
1.8156e-05
2.07644e-05
1.82489e-05
2.07284e-05
1.82932e-05
1.8721e-05
1.98554e-05
3.07606e-05
2.51095e-05
1.86605e-05
1.98566e-05
2.50167e-05
8.57653e-05
8.57704e-05
2.89464e-05
2.98168e-05
2.79756e-05
2.85539e-05
2.85538e-05
2.81226e-05
2.76353e-05
2.69867e-05
2.69867e-05
2.63906e-05
2.84254e-05
2.89623e-05
2.89621e-05
2.84254e-05
2.89628e-05
2.8962e-05
2.89629e-05
2.89622e-05
2.84252e-05
2.89628e-05
2.89626e-05
2.8425e-05
2.81228e-05
2.85537e-05
2.85535e-05
2.56272e-05
2.5627e-05
2.81227e-05
2.85537e-05
2.85534e-05
2.74473e-05
2.90168e-05
2.56264e-05
2.85535e-05
2.73683e-05
2.73678e-05
2.81227e-05
3.13868e-05
2.85537e-05
2.73682e-05
2.73683e-05
2.66737e-05
2.69866e-05
2.69868e-05
2.5414e-05
2.54137e-05
2.74064e-05
2.89469e-05
2.54137e-05
3.15633e-05
3.07541e-05
6.57283e-05
8.39123e-05
3.07539e-05
6.57298e-05
2.9398e-05
2.9398e-05
2.9398e-05
2.93979e-05
2.86009e-05
2.98006e-05
2.86753e-05
3.00688e-05
8.39132e-05
2.86006e-05
2.98005e-05
3.00687e-05
2.86749e-05
2.93482e-05
3.00358e-05
3.00359e-05
2.95188e-05
6.7319e-05
3.00011e-05
6.80352e-05
8.22132e-05
8.12217e-05
2.95186e-05
6.73211e-05
3.00009e-05
6.80364e-05
2.8121e-05
2.8121e-05
2.90329e-05
2.90329e-05
2.90328e-05
2.90329e-05
2.79756e-05
2.65679e-05
2.81232e-05
2.89027e-05
2.81521e-05
2.73169e-05
2.77818e-05
2.85257e-05
8.22132e-05
8.12219e-05
2.65677e-05
2.89027e-05
2.81229e-05
2.8152e-05
2.73169e-05
2.85256e-05
2.77814e-05
3.0443e-05
3.04434e-05
2.75328e-05
3.07846e-05
3.07856e-05
2.77955e-05
2.74759e-05
2.76353e-05
2.74079e-05
2.74286e-05
2.54136e-05
2.66125e-05
2.71906e-05
2.74076e-05
2.74286e-05
2.54138e-05
3.15616e-05
3.15625e-05
8.3913e-05
8.39124e-05
2.93485e-05
3.00356e-05
3.00353e-05
8.26253e-05
8.35477e-05
8.26239e-05
8.35486e-05
2.90408e-05
3.03206e-05
3.03195e-05
3.01089e-05
3.01081e-05
3.07538e-05
6.57293e-05
2.86008e-05
2.98001e-05
2.86757e-05
3.00687e-05
2.86006e-05
2.97999e-05
2.86758e-05
3.00686e-05
3.06429e-05
6.70862e-05
6.60709e-05
3.01e-05
3.06425e-05
6.70868e-05
6.60721e-05
3.00997e-05
2.83444e-05
2.93781e-05
2.81916e-05
2.92854e-05
2.85945e-05
2.96741e-05
2.75612e-05
2.83441e-05
2.93779e-05
2.81918e-05
2.92854e-05
2.85947e-05
2.96741e-05
2.7561e-05
2.93485e-05
3.00364e-05
3.0035e-05
8.39119e-05
8.26241e-05
8.35485e-05
2.90407e-05
3.03204e-05
3.03191e-05
3.01094e-05
3.01078e-05
8.26235e-05
8.35489e-05
2.86006e-05
2.98005e-05
2.86752e-05
3.00687e-05
3.07529e-05
6.57303e-05
2.86002e-05
2.97999e-05
3.00686e-05
2.86752e-05
3.06427e-05
6.70875e-05
6.60729e-05
3.00997e-05
2.83442e-05
2.93781e-05
2.81912e-05
2.92854e-05
2.85941e-05
2.96741e-05
2.75609e-05
3.06423e-05
6.70878e-05
6.60731e-05
3.00987e-05
2.8344e-05
2.93778e-05
2.92854e-05
2.81905e-05
2.9674e-05
2.8594e-05
2.75604e-05
3.07539e-05
6.57286e-05
2.86007e-05
2.98e-05
3.00687e-05
2.86751e-05
3.07537e-05
6.5729e-05
2.83442e-05
2.93782e-05
2.81912e-05
2.92855e-05
2.85941e-05
2.96741e-05
2.75612e-05
3.06427e-05
6.70862e-05
6.60724e-05
3.00998e-05
2.83439e-05
2.93779e-05
2.92854e-05
2.8191e-05
2.96741e-05
2.8594e-05
2.7561e-05
3.06424e-05
6.70866e-05
6.60724e-05
3.00995e-05
2.93484e-05
3.00359e-05
3.00351e-05
8.39128e-05
8.2624e-05
8.35487e-05
2.90407e-05
3.03197e-05
3.03191e-05
3.01087e-05
3.01078e-05
8.26243e-05
8.35492e-05
2.86005e-05
2.98003e-05
3.00687e-05
2.86754e-05
3.07539e-05
6.57295e-05
3.07535e-05
6.57303e-05
2.83442e-05
2.93782e-05
2.92854e-05
2.81908e-05
2.96741e-05
2.85938e-05
2.75609e-05
2.83438e-05
2.93781e-05
2.92854e-05
2.81913e-05
2.9674e-05
2.85942e-05
2.75608e-05
3.06427e-05
6.70872e-05
6.60724e-05
3.00998e-05
3.06422e-05
6.70878e-05
6.60738e-05
3.00994e-05
8.39125e-05
8.39122e-05
2.90406e-05
3.03212e-05
3.03218e-05
3.01085e-05
3.01086e-05
8.26242e-05
8.35492e-05
8.26236e-05
8.35493e-05
8.22122e-05
8.12237e-05
8.2213e-05
8.12214e-05
3.04411e-05
3.04444e-05
2.75332e-05
3.07838e-05
3.07796e-05
7.98382e-05
8.08034e-05
7.98347e-05
8.08046e-05
3.13944e-05
3.13887e-05
2.66741e-05
2.72389e-05
3.09268e-05
3.09312e-05
2.95186e-05
6.73196e-05
3.00008e-05
6.80353e-05
2.65679e-05
2.81236e-05
2.89027e-05
2.81514e-05
2.73171e-05
2.77822e-05
2.85256e-05
2.65677e-05
2.81238e-05
2.89026e-05
2.81512e-05
2.73168e-05
2.77818e-05
2.85255e-05
2.90176e-05
6.86605e-05
2.94337e-05
6.81818e-05
2.90181e-05
6.86593e-05
2.94333e-05
6.81817e-05
2.74485e-05
2.73678e-05
2.77887e-05
2.63383e-05
2.77565e-05
2.77272e-05
2.81543e-05
2.74472e-05
2.77886e-05
2.73679e-05