/*--------------------------------*- C++ -*----------------------------------*\
| =========                 |                                                 |
| \\      /  F ield         | OpenFOAM: The Open Source CFD Toolbox           |
|  \\    /   O peration     | Version:  v2006                                 |
|   \\  /    A nd           | Website:  www.openfoam.com                      |
|    \\/     M anipulation  |                                                 |
\*---------------------------------------------------------------------------*/
FoamFile
{
    version     2.0;
    format      ascii;
    class       surfaceScalarField;
    location    "375";
    object      phi;
}
// * * * * * * * * * * * * * * * * * * * * * * * * * * * * * * * * * * * * * //

dimensions      [0 3 -1 0 0 0 0];
oriented        oriented;


internalField   nonuniform List<scalar> 
40902
(
1.06693e-06
1.02927e-06
5.14568e-07
-1.56851e-06
6.29977e-08
-5.76336e-07
-1.34828e-06
-2.52529e-08
-6.80834e-07
6.32188e-07
-0.0011106
-1.03219e-06
-0.000270537
-1.3646e-08
-7.84708e-09
1.04099e-06
-1.53142e-06
6.0386e-08
-5.73534e-07
-2.50252e-08
-6.83607e-07
-0.00111105
5.33377e-07
-0.0011126
1.67888e-07
2.1807e-08
-0.000205424
-4.30128e-08
2.97558e-07
-0.000246318
-1.70319e-07
-2.30222e-08
-1.21943e-10
-6.68039e-08
1.35229e-07
-0.000261747
1.06189e-07
1.05215e-06
-1.42977e-06
4.80162e-07
-1.24206e-06
6.78885e-07
-3.91452e-09
-0.00110758
-0.000263203
-6.00943e-08
1.62731e-07
-2.10503e-09
6.81315e-08
-0.000102097
2.01543e-07
-0.000296574
1.57358e-08
-7.24328e-08
6.86343e-08
2.03514e-07
-0.000296707
1.76904e-08
-2.22096e-08
-0.000102109
-1.70048e-07
1.34763e-07
-0.000261848
-0.000205474
-1.42462e-06
4.77408e-07
6.7323e-07
-1.23943e-06
1.06864e-06
-0.00110741
-3.5694e-07
-2.977e-07
-0.000263225
1.65585e-07
-5.95195e-08
-0.000246355
-2.30396e-08
-1.70397e-07
7.45568e-08
8.23716e-05
-1.35247e-08
-8.24326e-05
-4.9506e-08
1.02287e-08
2.54087e-07
-0.000205639
-0.000281346
-3.70281e-08
2.65513e-08
2.06438e-07
2.78758e-08
3.26034e-07
-0.000281675
-1.23312e-08
-9.40015e-09
1.5811e-07
0.000150349
-0.000150511
-2.15728e-07
-2.26129e-08
4.32701e-07
7.05436e-11
-0.000246513
-0.000180279
7.58862e-09
-5.0841e-12
-0.00023972
-1.15667e-07
2.65606e-07
4.32618e-11
-0.000180504
3.98837e-07
-0.000239955
9.89679e-08
-0.000102185
2.68827e-07
-1.91722e-07
0.000237038
-1.92842e-07
3.31336e-07
-0.000237253
-0.000265573
-2.04527e-07
2.16293e-07
1.92232e-07
2.95358e-07
-4.24495e-09
1.1073e-07
-0.000296877
-0.000193326
1.39369e-07
-1.17088e-09
4.15372e-07
2.7205e-07
-0.000265697
-1.23729e-08
-0.000193509
-1.51059e-07
2.07019e-07
-1.89679e-07
2.69191e-07
0.000237118
-1.90281e-07
3.31026e-07
-0.000237338
-0.000265752
-2.05133e-07
2.18907e-07
1.92567e-07
-4.92995e-09
2.92866e-07
-9.89184e-08
1.08274e-07
-0.000297004
-0.000193392
1.41364e-07
-1.34402e-09
-1.26554e-08
-0.000193574
4.13057e-07
2.72175e-07
-0.000265875
-1.53665e-07
2.07669e-07
-5.45035e-08
-5.44267e-08
0.000228201
-0.000228475
-8.43526e-05
3.89906e-08
-8.43686e-05
3.87966e-08
-8.44195e-05
-8.44357e-05
-1.0324e-08
-0.000102198
2.54158e-07
-0.000205689
1.60377e-07
-9.44794e-09
0.000150421
-0.000150585
1.3328e-08
-2.23346e-08
-2.15838e-07
4.33e-07
-0.00024655
-0.000239822
-1.13682e-07
2.63489e-07
-2.64629e-08
-0.00018031
7.62016e-09
4.018e-07
-0.000240058
-2.77918e-08
-0.000180535
1.2504e-08
4.54719e-07
4.53751e-07
0.00025607
-0.000256317
-5.77401e-07
-5.82207e-07
-0.000272478
-0.00026899
-1.19188e-07
-0.000268619
-1.18638e-07
-0.000269273
-0.000268908
5.48217e-10
-0.00111699
-6.16414e-07
-1.84846e-07
0.000272216
1.26369e-07
-0.000272889
-0.000271379
1.6595e-07
1.23268e-07
4.95781e-07
-0.000262001
-0.000266653
9.54037e-08
9.98034e-08
1.05034e-07
-0.000266925
-0.000271477
1.11235e-07
-6.5795e-07
6.11081e-08
0.000270879
-0.000271585
-5.61733e-08
6.50095e-07
4.15455e-10
-0.000263364
-0.000263758
1.27192e-07
-0.000269806
-6.16412e-08
-6.32174e-09
-0.000263968
3.33665e-09
-0.000270341
-0.000271486
4.95808e-07
-0.000262104
-0.000271589
0.000270928
5.77513e-08
-6.61017e-07
-0.000271631
-1.17999e-07
6.47638e-07
-5.54435e-08
-0.000263383
-5.97762e-08
-0.000269809
1.24709e-07
-0.00026384
-9.94387e-08
-1.05566e-07
-0.000270336
-0.000264052
-1.02327e-07
-1.0702e-06
-1.02767e-06
0.000272662
-0.000270541
-1.79449e-08
-6.02019e-09
0.00111135
1.03415e-06
5.13793e-07
-1.57041e-06
6.93021e-08
-5.7801e-07
-1.34824e-06
-2.32849e-08
-6.83365e-07
6.34597e-07
-0.00111047
0.00111232
1.04012e-06
-1.52832e-06
6.07979e-08
-5.69935e-07
-2.54521e-08
-6.80655e-07
6.29074e-07
-0.00111144
5.07374e-07
-1.34542e-06
1.57083e-06
1.52591e-06
-5.69148e-07
-5.80261e-07
0.000270715
-5.76419e-07
1.07278e-06
6.95947e-08
-6.78306e-07
-2.29156e-08
4.94621e-07
-5.68295e-07
1.03018e-06
6.10122e-08
6.32853e-07
-6.78256e-07
-1.34473e-06
-2.27078e-08
5.38327e-07
-0.00111274
5.0679e-07
-0.00020534
9.92479e-09
2.48854e-07
0.000205129
-0.000205315
9.89422e-09
2.48767e-07
-4.82963e-08
0.000205104
4.27951e-07
0.000246054
-2.28779e-08
-2.0688e-07
-0.000246253
7.16448e-08
-2.15141e-08
0.000102068
-0.000102118
7.15547e-08
-2.14481e-08
0.000102051
-0.000102101
6.59048e-08
0.000296486
2.0522e-07
-0.000296698
1.2286e-08
6.59385e-08
0.000296405
2.00081e-07
-0.000296612
1.17809e-08
1.70866e-07
-0.000205489
-4.33032e-08
2.97627e-07
-0.000246363
-1.70407e-07
-2.26672e-08
0.000261845
1.36184e-07
-0.00026185
1.05575e-07
1.05216e-06
-1.42723e-06
4.80246e-07
-1.24213e-06
6.79038e-07
-0.00110764
-0.000263239
-5.91705e-08
1.62753e-07
1.70755e-07
-0.000205461
-4.58746e-08
0.000261806
1.33347e-07
-0.000261803
1.00356e-07
9.60626e-08
0.000101982
9.60171e-08
0.000101965
1.06991e-07
2.84332e-07
-7.62679e-09
0.000296199
1.04344e-07
2.89069e-07
-6.86543e-09
0.000296115
4.92022e-07
0.000261589
4.94429e-07
1.1996e-07
0.000261544
6.803e-07
-1.24112e-06
-1.42639e-06
4.81608e-07
-0.00110844
0.000263255
-5.46939e-08
6.44193e-07
-0.000263418
2.15507e-08
1.64233e-07
-8.23331e-05
3.61383e-08
-1.20616e-08
-7.40812e-08
0.000280917
2.7633e-08
3.19739e-07
-0.000281239
-4.15013e-08
2.15731e-08
1.64126e-07
-1.33952e-08
-8.23938e-05
2.62097e-08
2.00432e-07
-0.000150144
1.10314e-07
-8.07969e-09
-2.27992e-08
-1.61846e-07
2.90989e-07
-1.52781e-07
0.000239435
3.94649e-07
-0.000239672
1.00742e-08
0.000179915
-0.000180132
-0.0001503
2.5694e-07
9.94072e-08
-1.05854e-08
-0.000102207
9.93367e-08
-1.05089e-08
-0.00010219
-1.91522e-07
2.62548e-07
0.000237115
-1.80848e-07
3.28738e-07
-0.000237334
-0.000265732
-1.9953e-07
0.000265737
2.15972e-07
1.84707e-07
-9.045e-09
2.92347e-07
1.10175e-07
-0.000296992
-0.000193392
1.37554e-07
-6.31062e-09
0.000193273
-1.9774e-08
-0.000193573
4.15983e-07
2.72283e-07
-0.000265866
-1.47908e-07
0.000237003
1.97695e-07
-1.93465e-07
2.61887e-07
0.000237049
-1.80811e-07
3.29135e-07
-0.000237266
-0.00026562
-1.99102e-07
0.000265616
2.15694e-07
1.87259e-07
-8.58265e-09
2.97091e-07
1.10125e-07
-0.000296911
-0.000193328
1.35378e-07
-6.28341e-09
0.000193211
-1.97068e-08
-0.000193511
4.15369e-07
2.69324e-07
-0.000265746
-1.45638e-07
0.000236931
2.00583e-07
-4.95504e-08
-4.95943e-08
0.000228211
-0.000228473
-8.43683e-05
3.32534e-08
8.43287e-05
-8.43507e-05
3.32888e-08
8.43111e-05
-8.44376e-05
-8.442e-05
0.000227984
8.24194e-05
7.48035e-08
-1.36295e-08
-8.24805e-05
-5.00965e-08
2.55132e-07
-0.000205704
-3.7057e-08
-0.000281482
2.60785e-08
2.04401e-07
-1.24412e-08
2.78175e-08
3.28885e-07
-0.000281814
0.000150425
-9.52257e-09
1.5822e-07
-0.000150588
-2.15702e-07
-2.26057e-08
4.32706e-07
-0.000246557
7.65417e-09
-0.000180316
-1.15809e-07
-0.000239826
2.63294e-07
-0.000180541
4.01659e-07
-0.000240064
2.55041e-07
-4.72534e-08
-0.000205679
6.9231e-08
6.92283e-08
-0.000236783
-1.31582e-07
2.01667e-07
-1.5124e-07
1.97026e-07
-2.60003e-07
0.0002656
4.11758e-07
2.68622e-07
1.82753e-07
0.000193098
-1.57929e-08
1.75625e-08
1.96923e-07
6.34556e-08
-1.8043e-07
3.23239e-07
9.71846e-10
2.12171e-07
1.86019e-07
-0.000236717
-1.31858e-07
2.01662e-07
-1.49454e-07
2.00245e-07
-2.59842e-07
0.00026549
4.11314e-07
2.63386e-07
1.85027e-07
0.000193035
-1.58242e-08
1.78314e-08
1.94508e-07
6.58124e-08
-1.82991e-07
3.2209e-07
9.6681e-10
2.12167e-07
1.9158e-07
-0.000227721
-3.87225e-08
-3.87085e-08
5.01831e-08
8.42628e-05
5.01687e-08
8.42451e-05
4.51537e-07
4.49541e-07
0.000256079
-0.000256323
-5.70658e-07
-5.81615e-07
-0.000272487
-0.000268603
-1.12553e-07
0.000268983
-0.000269035
-1.15206e-07
0.000269421
-0.000268884
-0.000269322
0.00025625
-0.000256002
1.13339e-07
1.15942e-07
-4.4757e-07
0.000268696
-4.45332e-07
0.000269129
-1.28237e-08
-3.81552e-09
5.09568e-07
-0.00111701
-1.13293e-07
-0.00112408
-5.69605e-07
3.90097e-07
-0.0011168
-5.33814e-07
-0.00112368
-6.9983e-07
-1.83831e-07
-6.19263e-07
0.000272286
1.18228e-07
-0.000272949
-0.000271468
1.63975e-07
0.000271601
4.96538e-07
1.23247e-07
-0.000262104
-0.000266761
9.32007e-08
1.01952e-07
-0.000271566
1.02773e-07
-0.00026703
1.18218e-07
-6.58179e-07
5.94733e-08
0.000270932
-0.000271643
-5.61929e-08
6.50146e-07
-0.0002634
-0.000263846
1.27278e-07
-0.000269835
-6.01035e-08
-0.000264056
-0.000270364
-0.000271456
1.58623e-07
0.000271593
4.99028e-07
1.28329e-07
-0.000262065
1.89085e-07
-0.000271558
0.000273075
-0.000272299
-9.05647e-08
1.02382e-07
0.000271502
1.30651e-07
-8.50743e-08
-0.000272406
-1.61754e-07
1.05107e-07
1.84969e-07
0.000271487
0.000266582
6.18467e-07
1.00815e-07
-0.000266862
1.0265e-07
1.27798e-07
9.98911e-08
1.27967e-07
-1.19408e-07
-0.000271077
5.52579e-08
-5.70216e-08
1.6036e-07
0.000263796
6.57723e-07
-0.000264013
-5.86777e-08
0.000269987
-0.00027053
-0.000271776
-1.06154e-06
-1.05685e-06
-0.0011097
5.39707e-07
5.51278e-07
0.00111072
-0.00110836
-1.53e-06
1.05711e-06
5.20494e-07
0.00110926
-5.70449e-07
1.01923e-06
4.9796e-08
6.19063e-07
-6.8918e-07
-1.34924e-06
-3.20678e-08
-0.00110826
-1.52711e-06
1.05674e-06
5.25724e-07
0.00110917
-5.72951e-07
1.01678e-06
5.36177e-08
6.13281e-07
-6.89282e-07
-1.34659e-06
-3.47e-08
-0.000271896
1.5583e-06
1.51889e-06
-5.73821e-07
-5.84643e-07
0.000269978
-1.05623e-06
-1.01374e-06
0.000271942
-0.000269819
-3.21795e-08
-2.08996e-08
0.00110778
1.06149e-06
5.23243e-07
-1.56879e-06
5.75566e-08
-5.78141e-07
-1.35285e-06
-3.82954e-08
-6.91755e-07
6.14114e-07
-0.00110686
1.05413e-06
0.00110791
1.06098e-06
-0.00110699
5.22684e-07
-1.56599e-06
5.64649e-08
-5.7497e-07
-1.35517e-06
-3.60352e-08
-6.94273e-07
6.16629e-07
-1.01671e-06
0.00027193
-0.000269814
-2.58459e-08
-1.98187e-08
0.00110876
1.06222e-06
5.22234e-07
-1.52677e-06
4.89685e-08
-5.7004e-07
-1.34999e-06
-3.80797e-08
-6.91693e-07
6.11478e-07
-0.00110784
1.05141e-06
0.0011078
1.0611e-06
5.23108e-07
-1.56329e-06
5.61723e-08
-5.7545e-07
-1.35242e-06
-3.59886e-08
-6.94119e-07
6.14054e-07
-0.00110689
1.06192e-06
-0.00110744
5.21888e-07
-1.52899e-06
5.0887e-08
-5.69386e-07
-1.35261e-06
-3.84823e-08
6.11133e-07
-6.94383e-07
1.04594e-06
0.00110748
1.0557e-06
5.23028e-07
-1.55794e-06
5.61348e-08
-5.76454e-07
-1.34941e-06
-3.57603e-08
-6.93896e-07
6.11714e-07
-0.00110656
-1.01399e-06
0.000271918
-0.000269801
-2.84779e-08
-2.28656e-08
1.06166e-06
5.22071e-07
-1.52633e-06
5.34207e-08
-5.72548e-07
-1.34709e-06
-3.8439e-08
6.08547e-07
-6.91493e-07
-0.00110735
1.00608e-06
0.00110845
1.06189e-06
5.16699e-07
-1.51592e-06
4.75444e-08
-5.68427e-07
-1.34916e-06
-3.55807e-08
-6.93849e-07
6.11652e-07
-0.00110753
-0.000269793
-3.1381e-08
-1.98572e-08
1.56958e-06
1.52752e-06
-5.7468e-07
-5.85648e-07
0.000270005
5.21111e-07
0.00110868
-5.79563e-07
1.05983e-06
6.00582e-08
6.1905e-07
-6.88947e-07
-1.35184e-06
-3.47585e-08
-1.56707e-06
1.05636e-06
5.21499e-07
0.00110882
-5.7609e-07
1.05667e-06
5.5405e-08
6.21708e-07
-6.91869e-07
-1.35454e-06
-3.22253e-08
-5.80256e-07
-5.85143e-07
0.000269999
5.25489e-07
0.00110966
-5.71525e-07
1.01462e-06
5.14996e-08
6.16241e-07
-6.88943e-07
-1.34897e-06
-3.45574e-08
-1.56406e-06
1.05069e-06
5.10566e-07
0.00110873
-5.75821e-07
1.05428e-06
5.64351e-08
6.18834e-07
-6.91892e-07
-1.35195e-06
-3.22164e-08
1.056e-06
5.21204e-07
0.00110839
-5.7487e-07
1.04847e-06
5.62843e-08
6.15877e-07
-6.91868e-07
-3.25128e-08
-1.34918e-06
-5.77263e-07
-5.82009e-07
0.000269986
1.05667e-06
5.19966e-07
0.00110936
-5.66745e-07
1.01135e-06
5.06633e-08
6.15816e-07
-6.91877e-07
-3.22324e-08
-1.34893e-06
5.41919e-07
5.42638e-07
-0.00110866
0.00110952
5.41762e-07
5.42474e-07
-0.00110848
0.00110933
5.41797e-07
5.42476e-07
-0.0011083
0.00110936
5.41804e-07
5.3181e-07
-0.00110831
-2.15331e-10
3.11827e-07
0.000246854
-0.000246955
-1.88595e-07
-2.16122e-08
-0.000206853
9.52588e-09
2.75672e-07
-5.32569e-08
0.000206621
-0.000247438
2.21983e-10
4.55631e-07
0.000247247
-2.44514e-07
-2.03821e-08
2.1168e-08
1.79984e-07
0.000206077
-4.56323e-08
-0.000206233
-0.000102635
-9.35357e-09
1.06241e-07
0.000102538
-2.15319e-08
7.72308e-08
0.000102329
-0.000102385
3.09157e-07
2.38346e-11
0.000246849
-0.000246947
-2.16886e-08
-1.88595e-07
-0.000206828
9.60685e-09
2.73413e-07
-5.33596e-08
0.000206598
-0.000247431
4.55623e-07
3.71823e-10
0.00024724
-2.03595e-08
-2.4453e-07
2.10918e-08
1.82171e-07
0.000206052
-4.54833e-08
-0.00020621
5.39927e-07
5.40603e-07
0.00111056
5.34412e-07
5.45845e-07
0.00111036
5.397e-07
5.40432e-07
0.00111039
-3.14637e-07
-1.60533e-09
0.000263354
-0.000263154
-6.04024e-08
1.76554e-07
-0.000262863
-1.17878e-07
-2.73296e-07
5.0984e-07
1.31847e-07
0.000262612
0.00110547
-0.00110449
3.7806e-09
1.08096e-06
6.62248e-07
-1.24264e-06
-1.42962e-06
4.63735e-07
5.17695e-07
1.02359e-06
0.00111016
1.05117e-06
-1.35016e-06
-2.89846e-08
-6.88552e-07
6.23624e-07
-1.53037e-06
5.52226e-08
-5.71594e-07
-0.000263258
-4.53083e-07
1.89761e-09
0.000263107
-5.58186e-08
6.5774e-07
-7.49087e-08
-1.82802e-07
0.000262361
1.12027e-07
-0.000262361
1.4585e-07
-2.9258e-09
0.00110645
1.07474e-06
-1.4286e-06
4.6835e-07
-1.24136e-06
6.66899e-07
-0.000102627
-9.62579e-09
1.06519e-07
0.00010253
-2.16321e-08
7.46413e-08
0.000102325
-0.000102378
-1.01864e-10
-3.1183e-07
0.000263347
-0.00026315
1.76456e-07
-6.14325e-08
0.00110533
-0.00110435
1.02085e-08
1.08629e-06
6.59427e-07
-1.24263e-06
-1.42685e-06
4.63639e-07
-0.000262858
-1.2041e-07
-2.73735e-07
5.12782e-07
1.32071e-07
0.000262607
5.44929e-07
1.02596e-06
0.00111001
1.0672e-06
-1.34496e-06
-3.14535e-08
-6.88705e-07
6.1796e-07
-1.52217e-06
6.00735e-08
-5.71139e-07
-0.000263251
1.04582e-09
-4.55581e-07
0.000263103
6.57707e-07
-5.55266e-08
1.57435e-08
0.00110631
1.07998e-06
-1.42599e-06
4.68491e-07
-1.24143e-06
6.64208e-07
-7.28667e-08
-1.82124e-07
0.000262356
1.12224e-07
-0.000262356
1.42742e-07
-0.000298548
1.20113e-07
-1.06278e-07
3.12545e-07
-1.26732e-08
0.000298234
-0.000298457
1.17743e-07
-1.06211e-07
3.12239e-07
-1.29899e-08
0.000298146
-1.0526e-06
-1.01544e-06
0.000272262
-0.000270162
-1.93235e-08
-1.33818e-08
7.25519e-08
-7.70183e-08
0.00029748
9.41717e-09
-0.000297697
2.11475e-07
7.50289e-08
-7.70567e-08
0.000297389
9.46733e-09
-0.000297608
2.11593e-07
7.94398e-08
-2.0405e-08
0.000102656
-0.000102715
8.18283e-08
-2.04223e-08
0.000102639
-0.000102701
7.91864e-08
0.000298579
2.25607e-07
-0.000298814
9.3515e-09
8.16589e-08
0.000298498
2.20738e-07
-0.000298727
8.92535e-09
1.92293e-07
-0.000207018
-4.77374e-08
-3.15009e-11
3.26651e-07
-0.000247537
-2.08291e-07
-2.00953e-08
1.9503e-07
2.02643e-08
0.000206787
-0.000206954
-4.79345e-08
2.86494e-07
8.61236e-09
-5.51242e-08
0.000207362
-0.000207602
3.2666e-07
0.000247394
-0.000247493
-2.08256e-07
-1.99485e-08
0.000262863
1.55688e-07
-0.000262865
1.18179e-07
-3.13861e-09
0.0011047
1.08743e-06
-1.4332e-06
4.58994e-07
-1.24653e-06
6.57655e-07
-0.0011037
-9.2094e-10
0.000263263
-0.000263059
-6.07509e-08
1.85155e-07
-1.56634e-06
6.12904e-07
-6.96348e-07
-1.35577e-06
-3.8833e-08
1.05055e-06
-5.77884e-07
5.14163e-08
-0.00110606
5.25638e-07
1.06717e-06
-7.90976e-08
0.000262759
1.56262e-07
-0.00026276
1.18175e-07
0.00110466
1.08735e-06
-1.43293e-06
4.6172e-07
-1.24653e-06
6.60189e-07
-0.00110367
-1.28061e-07
1.38386e-07
5.18405e-07
0.000263004
-0.000263246
0.000263234
-0.000263034
-5.96587e-08
1.85177e-07
8.18258e-08
-0.000102696
1.12492e-07
0.000102862
-0.000102966
1.52937e-06
0.000269625
-5.83191e-07
-5.88191e-07
-0.00027155
0.000298458
2.23483e-07
-0.000298684
5.81643e-09
-8.17337e-08
8.17495e-08
0.000298589
2.23292e-07
-0.000298818
5.42612e-09
-1.30493e-08
3.23056e-07
0.000299234
-0.00029956
-1.12492e-07
1.25408e-07
-1.28303e-08
3.23182e-07
0.000299368
-0.000299691
-2.02937e-08
0.000102647
-0.000102708
-8.5126e-09
0.000102874
-0.000102978
1.94506e-07
-0.000206995
-4.76883e-08
3.26477e-07
-9.11524e-11
-0.000247529
-2.00517e-08
-2.08275e-07
0.000262823
1.52847e-07
-0.000262818
1.18338e-07
-1.23724e-09
0.00110456
1.08712e-06
-1.43039e-06
4.6459e-07
-1.24651e-06
6.5745e-07
-0.00110357
-1.67134e-09
0.000263254
-0.00026305
-6.02399e-08
1.8503e-07
1.94926e-07
2.04993e-08
0.000206772
-0.00020694
-4.79798e-08
3.2906e-07
0.000247386
-0.00024749
-2.06079e-07
-1.99663e-08
0.00110452
1.08725e-06
-1.43025e-06
4.6464e-07
-1.24653e-06
6.57591e-07
-0.00110353
-7.96242e-08
0.000262752
1.53593e-07
-0.00026275
1.18515e-07
0.000263224
-0.000263025
1.87768e-07
-5.97539e-08
-4.68462e-07
1.94319e-09
-5.59415e-08
6.64731e-07
0.000262996
-0.000263138
5.24654e-07
1.01314e-06
-5.72272e-07
4.57706e-08
6.10193e-07
-6.93631e-07
-1.35045e-06
-3.87159e-08
-0.00110651
1.068e-06
-1.95096e-07
1.56329e-07
-0.00026286
1.1815e-07
-0.00110349
-3.59871e-09
1.08179e-06
-1.43032e-06
4.58869e-07
6.57294e-07
-1.24377e-06
-2.86527e-07
1.38409e-07
5.184e-07
0.000263105
-0.000263349
3.17524e-09
6.52675e-07
-1.24499e-06
-1.43113e-06
4.54163e-07
-0.00110249
1.09362e-06
-3.29522e-07
-1.64404e-09
-0.000263055
-6.02238e-08
1.88038e-07
1.66033e-10
-1.82977e-08
-2.65601e-07
0.000247821
-0.000248006
0.000206837
-0.000207004
-4.79064e-08
-5.50215e-08
0.000207412
-0.000207652
1.08041e-10
0.000247434
-0.000247535
-2.01545e-08
-2.08443e-07
-4.6849e-07
6.62141e-07
-5.56658e-08
0.000262973
-0.000263109
-0.00110344
0.00110444
1.08177e-06
-1.42745e-06
4.59052e-07
-1.24372e-06
6.54892e-07
-1.95103e-07
-7.91837e-08
0.000262792
1.56135e-07
-0.000262792
1.18362e-07
6.49904e-07
-1.24508e-06
-1.42834e-06
4.54124e-07
-0.00110244
-5.25909e-07
1.09374e-06
-3.29214e-07
0.000263229
-0.000263032
1.90586e-07
-6.01539e-08
-2.65521e-07
-1.79741e-08
0.00024778
-0.000247964
2.04897e-08
0.000206782
-0.000206949
-4.80286e-08
0.000247393
-0.000247494
-2.08263e-07
-2.00203e-08
8.21196e-08
-0.000102689
0.000298457
2.24175e-07
-0.000298684
6.01853e-09
-8.19811e-08
7.96619e-08
0.000298588
2.21642e-07
-0.000298813
5.502e-09
-2.05313e-08
0.000102644
-0.000102705
-1.30117e-09
1.08163e-06
-1.42768e-06
4.59039e-07
6.54679e-07
-1.24376e-06
-0.00110336
-1.94891e-07
1.53604e-07
-0.000262856
1.18595e-07
-6.90923e-10
-3.26592e-07
-0.000263051
1.87883e-07
-6.05288e-08
0.00110429
1.08149e-06
-1.42458e-06
4.59046e-07
-1.24097e-06
6.54596e-07
-0.00110331
-1.95068e-07
-8.18078e-08
0.000262758
1.53475e-07
-0.000262753
1.18467e-07
-3.26468e-07
0.00026322
-0.000263023
1.87807e-07
-5.92479e-08
0.000206832
-0.000207
-4.78575e-08
3.58529e-11
0.000247431
-0.00024753
-2.00689e-08
-2.08349e-07
2.04992e-08
0.000206772
-0.00020694
-4.79707e-08
0.000247391
-0.000247489
-1.99445e-08
-2.08239e-07
-8.2003e-08
2.21724e-07
-0.000298772
4.81147e-09
-8.20259e-08
2.2178e-07
-0.000298683
4.63293e-09
0.000102635
-0.000102696
0.000102628
-0.000102689
1.09121e-07
0.000102556
7.39991e-08
0.000102351
-0.000102404
1.06767e-07
0.000102542
7.63756e-08
0.000102334
-0.000102389
1.20533e-07
3.08792e-07
-1.10187e-08
0.00029827
1.17931e-07
3.13685e-07
-1.04582e-08
0.000298184
0.000272307
-1.06313e-06
-1.01792e-06
-0.000270187
-2.50693e-08
-1.36312e-08
0.000297514
7.24246e-08
1.15188e-08
-0.000297736
2.12201e-07
0.000297433
7.48409e-08
1.11641e-08
-0.000297652
2.09707e-07
1.03686e-07
-9.93543e-09
0.000102257
1.01282e-07
-1.00511e-08
0.000102243
1.57038e-06
1.52827e-06
0.000270367
-5.74819e-07
-5.83268e-07
1.13619e-07
-7.94354e-09
2.98882e-07
0.000297213
1.1357e-07
-7.23552e-09
3.01322e-07
0.000297126
3.11835e-07
0.00024681
-0.000246912
-1.88562e-07
-2.17403e-08
2.73199e-07
-5.31799e-08
0.000206557
4.55593e-07
0.000247204
-2.44522e-07
-2.01574e-08
1.82798e-07
0.000206012
-4.59894e-08
-0.00020617
-1.21904e-09
0.000263359
-0.000263159
-6.03997e-08
1.73721e-07
5.09787e-07
1.32019e-07
0.000262617
0.00110568
3.57228e-09
1.08118e-06
6.65212e-07
-1.24543e-06
-1.42972e-06
4.69278e-07
5.18592e-07
0.00110958
1.05582e-06
-1.56953e-06
6.35829e-08
-5.77587e-07
-1.35076e-06
-3.18636e-08
-6.86469e-07
6.23015e-07
1.07109e-09
0.000263112
-5.54139e-08
6.60405e-07
0.00026236
1.11752e-07
-0.000262363
1.43002e-07
-3.69706e-09
0.00110666
1.08587e-06
-1.43156e-06
4.71175e-07
-1.24692e-06
6.67128e-07
0.00026333
-0.000263133
-5.96393e-08
1.73715e-07
-1.20389e-07
5.09821e-07
1.31856e-07
0.000262511
0.00110565
1.08113e-06
6.65069e-07
-1.24817e-06
-1.43218e-06
4.69261e-07
5.18498e-07
0.00110971
1.06105e-06
1.05028e-06
-1.35268e-06
-2.89944e-08
6.26357e-07
-6.88523e-07
-1.56741e-06
6.07994e-08
-5.77134e-07
0.000263086
-5.61836e-08
6.60381e-07
0.000262258
-7.24401e-08
1.12066e-07
-0.00026226
1.45835e-07
0.00110662
1.08032e-06
-1.43123e-06
4.73945e-07
-1.24689e-06
6.69741e-07
6.24059e-11
4.40458e-07
-2.24942e-07
-2.19073e-08
0.00024666
2.6291e-07
-5.09133e-08
0.000205855
4.40457e-07
-2.24994e-07
-2.1695e-08
0.000246616
2.6137e-07
9.88033e-09
-5.11996e-08
0.000205792
3.12381e-10
-5.50971e-08
6.53625e-07
0.0002632
5.1675e-07
1.04548e-06
1.0663e-06
-5.78693e-07
6.43989e-08
6.27699e-07
-6.86446e-07
-2.60892e-08
-1.35259e-06
1.25916e-07
5.03316e-07
0.000262108
-5.009e-09
1.06906e-06
6.71656e-07
-1.24603e-06
-1.43088e-06
4.78392e-07
-5.58548e-08
6.53615e-07
0.000263173
5.16131e-07
-1.5673e-06
1.04488e-06
6.29739e-07
-6.86586e-07
-1.35237e-06
-2.65871e-08
1.06386e-06
-5.73732e-07
6.34477e-08
-1.13033e-07
1.25752e-07
5.01532e-07
0.000262005
1.06897e-06
6.7691e-07
-1.24602e-06
-1.43063e-06
4.81091e-07
3.09706e-07
-1.1093e-08
0.000298145
-1.06192e-07
3.09542e-07
-1.10962e-08
0.000298279
0.0002723
-0.000270183
-1.91088e-08
-1.31682e-08
0.000297388
9.25372e-09
-0.000297606
2.14472e-07
-7.71487e-08
0.000297518
9.16218e-09
-0.000297739
2.14472e-07
-9.1862e-09
0.00010255
0.000102341
-2.1654e-08
-0.000102397
1.00942e-07
0.000102238
1.53016e-06
0.000270361
-5.76783e-07
-5.81678e-07
-1.27758e-08
2.99008e-07
0.000297089
-1.01004e-07
1.10717e-07
-1.32491e-08
2.99193e-07
0.000297222
-9.76664e-09
0.00010225
-1.07891e-09
0.000263347
-0.000263152
-6.05225e-08
1.76402e-07
5.12386e-07
1.32024e-07
0.00026257
0.00110554
1.06032e-08
1.08088e-06
6.62097e-07
-1.24814e-06
-1.42956e-06
4.66377e-07
5.28362e-07
0.00111055
1.051e-06
-1.52473e-06
5.50594e-08
-5.69492e-07
-1.34796e-06
-3.16346e-08
-6.86436e-07
6.20364e-07
2.17838e-09
0.000263106
-5.61588e-08
6.57701e-07
0.000262321
1.11818e-07
-0.000262319
1.42777e-07
1.76166e-08
0.00110651
1.07467e-06
-1.42878e-06
4.71221e-07
-1.24145e-06
6.66895e-07
3.11628e-07
0.000246805
-0.000246908
-1.86368e-07
-2.17567e-08
2.73573e-07
-5.35005e-08
0.000206543
4.52936e-07
0.0002472
-2.46598e-07
-1.98987e-08
1.79802e-07
0.000206
-4.57181e-08
-0.000206156
0.000263317
-0.000263127
1.79071e-07
-5.94006e-08
0.00110552
1.07563e-06
6.62254e-07
-1.2482e-06
-1.42952e-06
4.66395e-07
-1.20325e-07
5.12699e-07
1.31911e-07
0.000262502
4.8678e-07
0.00110968
1.04989e-06
1.03977e-06
-1.34752e-06
-2.8964e-08
6.20685e-07
-6.85967e-07
-1.56727e-06
5.71078e-08
-5.79437e-07
0.00026308
6.55047e-07
-5.57191e-08
0.00110648
1.07489e-06
-1.4286e-06
4.713e-07
-1.24147e-06
6.67032e-07
0.000262251
-7.53939e-08
1.1223e-07
-0.00026225
1.42662e-07
4.42935e-07
4.27102e-10
-2.21156e-08
-2.2498e-07
0.000246652
2.6051e-07
-4.81798e-08
0.00020583
2.47483e-09
-5.61604e-08
6.50824e-07
0.000263192
5.21134e-07
1.04604e-06
1.02375e-06
-5.7059e-07
5.58025e-08
-6.83727e-07
-1.34696e-06
6.24925e-07
-2.82898e-08
1.3117e-07
5.03216e-07
0.000262061
5.18374e-08
1.06857e-06
-1.24314e-06
-1.42796e-06
0.00110744
6.71398e-07
4.72819e-07
4.40301e-07
-2.27058e-07
-2.15034e-08
0.000246613
2.63558e-07
1.02586e-08
-5.13668e-08
0.000205778
6.4819e-07
-5.49004e-08
0.000263167
3.37492e-07
-1.59999e-06
8.97489e-07
-6.83718e-07
-1.34684e-06
9.83163e-07
-5.88572e-07
5.50446e-08
0.00111103
6.27232e-07
-2.38691e-08
1.09088e-06
-1.24323e-06
-1.42787e-06
0.00110731
6.71315e-07
4.72711e-07
-1.1095e-07
1.26105e-07
5.03877e-07
0.000261995
7.46609e-11
0.00024685
-0.000246954
-2.18546e-08
-1.88701e-07
-5.30613e-08
0.000206607
2.28248e-10
0.000247246
-2.03195e-08
-2.44625e-07
0.000206062
-4.60273e-08
-0.00020622
-3.14413e-07
0.000263325
-0.000263131
1.79167e-07
-6.00099e-08
0.00110543
1.08106e-06
6.59514e-07
-1.24267e-06
4.63674e-07
-1.42668e-06
-2.73678e-07
5.10211e-07
1.31729e-07
0.000262544
5.18758e-07
0.0011093
1.04495e-06
-1.55907e-06
6.05065e-08
-5.77116e-07
-1.34472e-06
-3.13934e-08
-6.85935e-07
6.18224e-07
-4.53017e-07
0.000263084
6.55071e-07
-5.56826e-08
0.00110641
1.06936e-06
-1.42309e-06
4.65714e-07
-1.23864e-06
6.6161e-07
-1.82511e-07
0.00026229
1.12051e-07
-0.000262293
1.45546e-07
0.000246809
-0.000246913
-1.88571e-07
-2.17988e-08
9.18945e-09
-5.33089e-08
0.000206552
0.000247205
-2.4453e-07
-1.9928e-08
0.000206007
2.1517e-08
-4.58797e-08
-0.000206165
-4.37967e-07
1.93878e-09
-5.54691e-08
6.51002e-07
0.000263195
5.15131e-07
1.04556e-06
1.02637e-06
-5.68113e-07
6.08345e-08
6.27046e-07
-6.86642e-07
-1.34978e-06
-2.64638e-08
-2.61509e-07
1.25799e-07
5.01759e-07
0.000262105
5.24056e-09
1.06875e-06
6.71329e-07
-1.24048e-06
-1.42805e-06
4.72783e-07
2.74529e-10
-2.18608e-08
-2.25103e-07
0.000246659
-5.11266e-08
0.000205841
-4.3783e-07
6.48268e-07
-5.55496e-08
0.000263172
5.16239e-07
-1.55889e-06
1.04483e-06
6.21554e-07
-6.83703e-07
-1.34416e-06
-2.8857e-08
1.0554e-06
-5.7381e-07
6.28403e-08
1.06883e-06
6.65951e-07
-1.23772e-06
-1.42233e-06
4.69993e-07
-2.61246e-07
-1.1314e-07
1.25756e-07
5.01295e-07
0.000262037
-2.24995e-07
-2.14833e-08
0.000246618
9.8191e-09
-5.11179e-08
0.000205787
3.10625e-07
-1.24507e-08
0.000298145
-1.06703e-07
3.13127e-07
-1.18027e-08
0.000298273
0.00027229
-0.000270175
-1.67623e-08
-2.23373e-08
0.000297383
1.16351e-08
-0.000297609
2.13889e-07
-7.69662e-08
0.000297519
1.10821e-08
-0.000297737
2.11374e-07
-9.57997e-09
0.000102547
0.000102339
-2.15565e-08
-0.000102394
1.03987e-07
0.000102231
1.50022e-06
0.000270351
-5.67078e-07
-5.94899e-07
-1.14788e-08
3.00067e-07
0.000297087
-1.01706e-07
1.13571e-07
-1.09141e-08
3.05163e-07
0.000297213
-1.03314e-08
0.000102247
-3.11707e-07
0.000263316
-0.000263123
1.76407e-07
-5.85584e-08
0.00110529
1.08626e-06
6.56406e-07
-1.24266e-06
4.60752e-07
-1.42656e-06
-2.73678e-07
5.12779e-07
1.31735e-07
0.000262505
5.12469e-07
0.00111026
1.0511e-06
-1.52241e-06
5.48223e-08
-5.7182e-07
-1.3473e-06
-2.88233e-08
-6.88565e-07
6.21007e-07
-4.55602e-07
0.000263076
6.57735e-07
-5.64932e-08
0.00110628
1.07454e-06
-1.42299e-06
4.65684e-07
-1.23866e-06
6.61337e-07
-1.82479e-07
0.000262256
1.12144e-07
-0.000262253
1.42873e-07
2.13153e-10
0.000246847
-0.000246949
-2.21134e-08
-1.88639e-07
-5.3516e-08
0.000206602
1.32481e-10
0.00024724
-2.01611e-08
-2.44546e-07
0.000206057
-4.56118e-08
-0.000206215
0.000246806
-0.000246908
-2.14379e-08
-1.8854e-07
9.15166e-09
-5.32775e-08
0.000206543
0.0002472
-2.01538e-08
-2.44526e-07
0.000205998
2.15357e-08
-4.58299e-08
-0.000206156
1.42639e-09
-4.40361e-07
6.50877e-07
-5.57274e-08
0.000263191
6.72168e-07
1.21999e-06
1.09413e-06
-5.63744e-07
6.94779e-08
6.24648e-07
-6.89142e-07
-1.34683e-06
-2.87586e-08
0.00111046
4.68755e-08
1.05204e-06
6.68796e-07
-1.24038e-06
-1.4252e-06
4.72833e-07
-2.61313e-07
1.26256e-07
5.06523e-07
0.000262098
-4.40369e-07
6.50898e-07
-5.63654e-08
0.000263164
4.98805e-07
-1.52216e-06
1.04548e-06
6.24391e-07
-6.86394e-07
-1.34669e-06
-2.62436e-08
1.01823e-06
-5.68393e-07
5.72248e-08
1.06865e-06
6.65625e-07
-1.23769e-06
-1.42222e-06
4.69878e-07
-2.6125e-07
-1.10752e-07
1.25771e-07
5.03907e-07
0.000261998
2.70903e-10
-2.17866e-08
-2.2502e-07
0.000246653
-5.13461e-08
0.000205837
-2.17185e-08
-2.24995e-07
0.000246613
9.77937e-09
-5.10716e-08
0.000205778
0.000102538
0.00010233
-0.000102385
0.000102531
0.000102323
-0.000102378
0.00027034
-5.76437e-07
-5.82129e-07
-1.01075e-07
-1.13346e-08
3.01352e-07
0.000297178
-1.01041e-07
-1.16667e-08
3.01174e-07
0.00029709
0.000102239
0.000102232
-7.47982e-09
1.69946e-07
0.000151017
-0.000151193
1.34406e-08
-2.3452e-07
-2.11864e-08
-0.000247147
-1.93394e-10
4.47706e-07
-0.000181155
5.87087e-09
3.54162e-11
0.000180961
-0.000240592
-1.2712e-07
-2.59478e-08
0.000240448
2.76059e-07
-0.000181397
5.86689e-12
-0.000240832
-2.73791e-08
4.15414e-07
1.24508e-08
0.000150884
-8.26823e-05
3.87145e-08
-1.20079e-08
8.26556e-05
-7.62829e-08
0.000283251
2.71141e-08
-0.000283604
3.49504e-07
-4.69224e-08
0.00020646
2.1412e-08
1.86062e-07
-1.29941e-08
-8.27456e-05
2.58153e-08
0.000282994
2.22832e-07
-0.000151334
-4.60594e-09
1.33309e-07
-1.98523e-07
-2.09491e-08
1.11594e-10
3.19571e-07
6.07914e-09
0.0001816
-0.000181851
-1.21806e-11
-1.76212e-07
0.000240976
-0.000241216
4.22412e-07
-0.000151517
-3.51676e-11
2.82719e-07
7.58625e-08
8.25932e-05
-0.000282647
-3.82233e-08
0.000282397
2.16897e-07
-5.25179e-08
9.92981e-09
2.70008e-07
3.42643e-07
8.25674e-05
0.000102479
-2.11404e-08
7.96848e-08
-1.04403e-08
1.04505e-07
1.70159e-07
-7.49158e-09
0.000151013
-0.000151189
1.33153e-08
-2.16258e-08
-2.34678e-07
-0.000247139
2.77596e-10
4.47935e-07
-0.000240583
-1.27137e-07
-2.61053e-08
0.000240438
2.76079e-07
-0.000181149
5.86344e-09
-2.78159e-11
0.000180955
-0.000240823
-2.74284e-08
4.15797e-07
-0.000181392
-1.19296e-11
1.23338e-08
0.000150879
-8.26814e-05
3.86787e-08
-1.2034e-08
8.26547e-05
-7.62305e-08
0.000283246
2.70721e-08
-0.000283598
3.4699e-07
-4.68857e-08
0.000206435
2.12678e-08
1.88332e-07
-1.29986e-08
-8.27446e-05
2.58749e-08
0.000282987
2.25607e-07
-0.000151329
1.3322e-07
-4.6004e-09
-2.09213e-08
-1.98499e-07
6.67167e-11
3.19733e-07
-1.7619e-07
0.000240967
-0.000241207
4.22238e-07
6.01198e-09
0.000181595
-0.000181845
3.68618e-11
-0.000151513
2.82838e-07
2.23844e-11
7.58095e-08
8.25922e-05
-0.000282643
-3.81286e-08
0.00028239
2.19121e-07
-5.23795e-08
9.9316e-09
2.67563e-07
3.40126e-07
8.25664e-05
0.000102475
-2.10616e-08
7.69998e-08
-9.87917e-09
1.06386e-07