/*--------------------------------*- C++ -*----------------------------------*\
| =========                 |                                                 |
| \\      /  F ield         | OpenFOAM: The Open Source CFD Toolbox           |
|  \\    /   O peration     | Version:  v2006                                 |
|   \\  /    A nd           | Website:  www.openfoam.com                      |
|    \\/     M anipulation  |                                                 |
\*---------------------------------------------------------------------------*/
FoamFile
{
    version     2.0;
    format      ascii;
    class       volScalarField;
    location    "1000";
    object      k;
}
// * * * * * * * * * * * * * * * * * * * * * * * * * * * * * * * * * * * * * //

dimensions      [0 2 -2 0 0 0 0];


internalField   nonuniform List<scalar> 
14314
(
4.24589e-05
5.273e-05
5.26881e-05
5.47065e-05
4.17361e-05
5.13875e-05
5.13807e-05
5.42032e-05
5.45264e-05
5.28161e-05
5.28557e-05
5.45922e-05
5.28046e-05
5.28092e-05
5.28527e-05
5.28923e-05
5.45553e-05
5.28009e-05
5.2875e-05
5.47079e-05
5.44894e-05
5.41792e-05
5.26722e-05
5.27173e-05
5.23475e-05
5.23746e-05
5.45605e-05
5.42364e-05
5.2661e-05
5.26763e-05
5.23395e-05
5.23512e-05
5.28193e-05
5.24105e-05
5.25311e-05
5.45273e-05
5.42172e-05
5.28075e-05
5.23915e-05
5.25272e-05
5.44175e-05
5.4005e-05
5.13441e-05
5.13569e-05
5.40472e-05
5.13392e-05
5.13458e-05
4.17631e-05
4.17441e-05
4.18463e-05
5.14785e-05
5.40357e-05
5.14774e-05
6.87316e-05
7.40608e-05
7.1839e-05
6.87296e-05
7.40631e-05
4.25344e-05
4.2562e-05
4.2527e-05
4.25408e-05
6.09772e-05
5.31285e-05
6.50381e-05
4.89194e-05
7.18405e-05
6.0945e-05
5.30921e-05
4.89025e-05
6.50368e-05
5.48168e-05
7.01899e-05
7.02048e-05
6.87032e-05
7.40206e-05
6.85026e-05
7.40915e-05
7.18416e-05
7.19424e-05
6.86708e-05
7.40206e-05
6.8494e-05
7.409e-05
4.24978e-05
4.24565e-05
4.25093e-05
4.18047e-05
4.18389e-05
4.18129e-05
4.19305e-05
6.07528e-05
6.50684e-05
4.86417e-05
5.26339e-05
6.07264e-05
6.49466e-05
4.84583e-05
7.1832e-05
7.19324e-05
6.07438e-05
4.85999e-05
6.50577e-05
5.26044e-05
6.07254e-05
4.8428e-05
6.49265e-05
7.03017e-05
7.03137e-05
5.46405e-05
7.03845e-05
7.03851e-05
6.45572e-05
7.37219e-05
6.86214e-05
7.44832e-05
7.1717e-05
6.59126e-05
6.45848e-05
7.37223e-05
6.86128e-05
7.44897e-05
2.98782e-05
3.62699e-05
3.62589e-05
4.30247e-05
3.02593e-05
3.7035e-05
3.70263e-05
6.04274e-05
6.47451e-05
4.81818e-05
4.99799e-05
6.06956e-05
6.59656e-05
4.62716e-05
7.1725e-05
6.59571e-05
6.04433e-05
4.81724e-05
6.47401e-05
4.99915e-05
6.06854e-05
4.62715e-05
6.6013e-05
7.00624e-05
7.00647e-05
5.34038e-05
7.02242e-05
7.02547e-05
7.18294e-05
7.18331e-05
5.49092e-05
7.00546e-05
7.00686e-05
7.18692e-05
7.17839e-05
7.18716e-05
7.17875e-05
5.48342e-05
7.00097e-05
7.00227e-05
7.00677e-05
7.00837e-05
6.87349e-05
7.40684e-05
6.10159e-05
5.31415e-05
6.50007e-05
4.8954e-05
6.10193e-05
5.31478e-05
6.50275e-05
4.89558e-05
6.85811e-05
7.40601e-05
7.40193e-05
6.85092e-05
6.85839e-05
7.40686e-05
7.40275e-05
6.85115e-05
6.0923e-05
5.30239e-05
6.48235e-05
4.87161e-05
6.50256e-05
4.89048e-05
6.06113e-05
6.09269e-05
5.30508e-05
6.4859e-05
4.87288e-05
6.50562e-05
4.89103e-05
6.06156e-05
5.49264e-05
7.01021e-05
7.0131e-05
7.18464e-05
7.18791e-05
7.17939e-05
5.48678e-05
7.00642e-05
7.01149e-05
7.01194e-05
7.01583e-05
7.18878e-05
7.18024e-05
6.09945e-05
5.31358e-05
6.49984e-05
4.89499e-05
6.87304e-05
7.40642e-05
6.09962e-05
5.31202e-05
4.89484e-05
6.50248e-05
6.85798e-05
7.40609e-05
7.40216e-05
6.85029e-05
6.09097e-05
5.30113e-05
6.48258e-05
4.86915e-05
6.50273e-05
4.88929e-05
6.06038e-05
6.85799e-05
7.40634e-05
7.40233e-05
6.85023e-05
6.09117e-05
5.30051e-05
4.86917e-05
6.48461e-05
4.88915e-05
6.50548e-05
6.06049e-05
6.87306e-05
7.40775e-05
6.09729e-05
5.30246e-05
4.88841e-05
6.50559e-05
6.87245e-05
7.40821e-05
6.09149e-05
5.3032e-05
6.49088e-05
4.87231e-05
6.5082e-05
4.8879e-05
6.07032e-05
6.86195e-05
7.40828e-05
7.40388e-05
6.85943e-05
6.09134e-05
5.29918e-05
4.87271e-05
6.49685e-05
4.88533e-05
6.51155e-05
6.07109e-05
6.8616e-05
7.40971e-05
7.40471e-05
6.85938e-05
5.4871e-05
7.013e-05
7.01644e-05
7.18493e-05
7.18717e-05
7.17937e-05
5.48185e-05
7.00633e-05
7.01225e-05
7.01435e-05
7.01892e-05
7.1882e-05
7.18038e-05
6.09424e-05
5.30111e-05
4.88701e-05
6.50482e-05
6.87269e-05
7.40737e-05
6.87218e-05
7.40842e-05
6.0893e-05
5.29751e-05
4.86725e-05
6.49022e-05
4.88452e-05
6.5082e-05
6.07023e-05
6.08931e-05
5.29743e-05
4.86913e-05
6.49745e-05
4.88285e-05
6.51141e-05
6.0713e-05
6.86201e-05
7.40803e-05
7.40359e-05
6.85989e-05
6.86178e-05
7.40999e-05
7.405e-05
6.86002e-05
7.18548e-05
7.1859e-05
5.48158e-05
7.01839e-05
7.01989e-05
7.02222e-05
7.0238e-05
7.18992e-05
7.18123e-05
7.19021e-05
7.18165e-05
7.18321e-05
7.19346e-05
7.18335e-05
7.19351e-05
7.01273e-05
7.0137e-05
5.4384e-05
7.02091e-05
7.02086e-05
7.18742e-05
7.18716e-05
7.18766e-05
7.18722e-05
5.43413e-05
7.00912e-05
7.00906e-05
7.03215e-05
7.03205e-05
6.8703e-05
7.40286e-05
6.85046e-05
7.40959e-05
6.06455e-05
6.49789e-05
4.86052e-05
5.25727e-05
6.06267e-05
6.48583e-05
4.84013e-05
6.06487e-05
6.50146e-05
4.86195e-05
5.26112e-05
6.0631e-05
6.48897e-05
4.84135e-05
6.874e-05
7.40578e-05
7.40238e-05
6.87962e-05
6.87396e-05
7.40557e-05
7.40266e-05
6.87959e-05
6.07256e-05
5.24199e-05
6.45727e-05
4.80464e-05
6.5077e-05
4.83628e-05
6.05889e-05
6.0728e-05
5.24606e-05
6.4591e-05
4.80521e-05
6.51061e-05
4.83736e-05
6.05896e-05
7.018e-05
7.02318e-05
5.44579e-05
7.02506e-05
7.03006e-05
7.18496e-05
7.19489e-05
7.18784e-05
7.18787e-05
5.44129e-05
7.01219e-05
7.01695e-05
7.03607e-05
7.04098e-05
7.18831e-05
7.18847e-05
6.06272e-05
6.49799e-05
4.85834e-05
5.25644e-05
6.06177e-05
6.4855e-05
4.83817e-05
6.86651e-05
7.40231e-05
6.8493e-05
7.40912e-05
6.06259e-05
4.85844e-05
6.49963e-05
5.25797e-05
6.06184e-05
4.83835e-05
6.48607e-05
6.87079e-05
7.40569e-05
7.40221e-05
6.87776e-05
6.07044e-05
5.24102e-05
6.45702e-05
4.80335e-05
6.50731e-05
4.83451e-05
6.05696e-05
6.87015e-05
7.40554e-05
7.40228e-05
6.87711e-05
6.07023e-05
5.24268e-05
4.80339e-05
6.45738e-05
4.83466e-05
6.50771e-05
6.05664e-05
6.87959e-05
7.40427e-05
6.85915e-05
7.41092e-05
6.07623e-05
4.86599e-05
6.51334e-05
5.27407e-05
6.07347e-05
4.84916e-05
6.5023e-05
6.87974e-05
7.40582e-05
6.85913e-05
7.41247e-05
6.08306e-05
5.24884e-05
6.46412e-05
4.81084e-05
6.51628e-05
4.84248e-05
6.06825e-05
6.88306e-05
7.40667e-05
7.40392e-05
6.88861e-05
6.08403e-05
5.26235e-05
4.81438e-05
6.47229e-05
4.84612e-05
6.52423e-05
6.06918e-05
6.88323e-05
7.40768e-05
7.40539e-05
6.88897e-05
7.01646e-05
7.02246e-05
5.44312e-05
7.01972e-05
7.02537e-05
7.18416e-05
7.19401e-05
7.18803e-05
7.18709e-05
5.43883e-05
7.00669e-05
7.01178e-05
7.03037e-05
7.03586e-05
7.18867e-05
7.1878e-05
6.07574e-05
4.86298e-05
6.51393e-05
5.27343e-05
6.07369e-05
4.8472e-05
6.5026e-05
6.87756e-05
7.404e-05
6.85949e-05
7.41071e-05
6.87818e-05
7.40603e-05
6.85968e-05
7.41249e-05
6.08187e-05
5.24576e-05
4.80956e-05
6.46324e-05
4.84001e-05
6.51425e-05
6.06708e-05
6.08325e-05
5.26167e-05
4.81363e-05
6.47263e-05
4.8446e-05
6.52448e-05
6.06832e-05
6.88077e-05
7.40688e-05
7.40379e-05
6.887e-05
6.88146e-05
7.4077e-05
7.40538e-05
6.8879e-05
7.18626e-05
7.19683e-05
7.18646e-05
7.19687e-05
5.46034e-05
7.02717e-05
7.02713e-05
7.05012e-05
7.05004e-05
7.19073e-05
7.19064e-05
7.19097e-05
7.19071e-05
7.17154e-05
6.59222e-05
7.1719e-05
6.59357e-05
6.9842e-05
6.98451e-05
5.336e-05
7.01348e-05
7.01584e-05
5.26808e-05
6.99742e-05
6.99978e-05
6.45564e-05
7.37178e-05
6.86211e-05
7.448e-05
6.03697e-05
6.46804e-05
4.81247e-05
4.99731e-05
6.06043e-05
6.59611e-05
4.62362e-05
6.03675e-05
6.46961e-05
4.81283e-05
4.99596e-05
6.06047e-05
6.59462e-05
4.62353e-05
5.9969e-05
4.935e-05
6.58498e-05
4.54353e-05
5.99651e-05
4.93207e-05
6.58296e-05
4.54319e-05
6.98765e-05
6.99304e-05
5.33514e-05
7.0118e-05
7.01362e-05
7.17222e-05
6.59204e-05
5.26434e-05
6.99527e-05
6.99654e-05
6.03761e-05
6.46786e-05
4.81137e-05
4.99715e-05
6.05867e-05
6.59726e-05
4.62306e-05
6.45837e-05
7.37194e-05
6.86075e-05
7.44886e-05
6.03739e-05
4.81132e-05
6.46828e-05
4.99672e-05
6.05836e-05
4.62292e-05
6.59842e-05
5.99874e-05
4.935e-05
6.58628e-05
4.54331e-05
5.99855e-05
4.93367e-05
4.54309e-05
6.58723e-05
2.98886e-05
3.62792e-05
3.63022e-05
4.30314e-05
3.02755e-05
3.70381e-05
3.7057e-05
2.98781e-05
3.62592e-05
3.62836e-05
4.30262e-05
3.02599e-05
3.70249e-05
3.70469e-05
2.98951e-05
3.63303e-05
3.6321e-05
4.30797e-05
3.02861e-05
3.70731e-05
3.70676e-05
2.97106e-05
4.34107e-05
3.73178e-05
3.73114e-05
2.97177e-05
4.3399e-05
3.73176e-05
3.73261e-05
2.97098e-05
4.34017e-05
3.73088e-05
3.73211e-05
2.97212e-05
4.34068e-05
3.73337e-05
3.73311e-05
6.46108e-05
7.3729e-05
6.87086e-05
7.44895e-05
6.04332e-05
4.8214e-05
6.48264e-05
5.00097e-05
6.07048e-05
4.62871e-05
6.60133e-05
6.46149e-05
7.37382e-05
6.87136e-05
7.45073e-05
5.99992e-05
4.9334e-05
6.58442e-05
4.54531e-05
6.00018e-05
4.93228e-05
4.54593e-05
6.58923e-05
6.98398e-05
6.98971e-05
5.33702e-05
7.02023e-05
7.02336e-05
7.17326e-05
6.59708e-05
5.26754e-05
7.00386e-05
7.00647e-05
6.04479e-05
4.82086e-05
6.48306e-05
5.00113e-05
6.06974e-05
4.62872e-05
6.60296e-05
6.4648e-05
7.37335e-05
6.8703e-05
7.45006e-05
6.46513e-05
7.37397e-05
6.87121e-05
7.45123e-05
6.00287e-05
4.93538e-05
4.54585e-05
6.58957e-05
6.0028e-05
4.93255e-05
4.54631e-05
6.59093e-05
7.17466e-05
6.59587e-05
7.17506e-05
6.59744e-05
5.26315e-05
7.0041e-05
7.0072e-05
6.59262e-05
6.59402e-05
6.44376e-05
7.40262e-05
6.44366e-05
7.40218e-05
6.59149e-05
6.59218e-05
6.44697e-05
7.40339e-05
6.4469e-05
7.4034e-05
6.448e-05
7.40299e-05
6.44838e-05
7.40485e-05
6.59607e-05
6.59737e-05
6.45233e-05
7.40446e-05
6.45258e-05
7.40548e-05
6.59572e-05
6.59733e-05
7.24986e-05
6.88306e-05
7.22644e-05
7.17203e-05
7.22979e-05
7.19242e-05
7.24969e-05
7.22656e-05
8.00417e-05
7.40465e-05
8.04301e-05
7.2463e-05
7.1805e-05
7.25007e-05
6.88222e-05
7.17222e-05
7.22662e-05
7.19153e-05
7.2299e-05
7.24989e-05
7.22658e-05
8.00411e-05
7.40482e-05
8.04267e-05
7.24631e-05
7.18073e-05
9.50987e-05
7.40454e-05
7.40403e-05
7.40426e-05
7.4038e-05
9.50236e-05
7.45402e-05
7.38479e-05
7.03036e-05
6.56172e-05
6.57251e-05
7.38237e-05
7.44137e-05
7.4574e-05
7.38578e-05
7.03055e-05
6.56163e-05
6.57104e-05
7.38324e-05
7.44561e-05
7.25294e-05
6.8575e-05
7.23016e-05
7.17784e-05
7.2294e-05
7.17513e-05
7.25643e-05
7.26273e-05
8.05039e-05
7.40779e-05
7.22414e-05
7.98813e-05
7.25249e-05
6.85442e-05
7.2259e-05
7.1659e-05
7.2497e-05
7.22615e-05
7.16621e-05
7.22279e-05
7.98457e-05
7.40286e-05
8.06513e-05
7.26947e-05
7.19163e-05
7.18698e-05
7.25244e-05
6.85544e-05
7.17551e-05
7.2295e-05
7.17299e-05
7.22878e-05
7.25589e-05
7.26259e-05
8.04962e-05
7.40772e-05
7.224e-05
7.98716e-05
7.25211e-05
6.85303e-05
7.16511e-05
7.22576e-05
7.24949e-05
7.16503e-05
7.22584e-05
7.22272e-05
7.98338e-05
7.40273e-05
8.06392e-05
7.26942e-05
7.19054e-05
7.18587e-05
9.65776e-05
7.4585e-05
7.458e-05
7.45786e-05
7.45741e-05
9.71874e-05
7.4687e-05
6.56554e-05
7.38976e-05
7.02821e-05
7.4642e-05
6.56191e-05
7.3984e-05
7.47305e-05
6.56643e-05
7.39063e-05
7.02897e-05
7.46861e-05
6.56264e-05
7.39917e-05
9.63487e-05
7.44171e-05
7.44126e-05
9.55704e-05
7.44781e-05
7.44699e-05
7.49714e-05
7.40345e-05
7.04241e-05
6.56647e-05
6.57358e-05
7.3951e-05
7.49518e-05
7.50145e-05
7.40411e-05
7.04275e-05
6.56688e-05
6.57416e-05
7.3958e-05
7.49954e-05
7.66871e-05
6.74247e-05
7.70612e-05
6.81197e-05
7.29706e-05
7.13951e-05
8.06453e-05
7.52839e-05
7.23826e-05
8.06896e-05
7.60734e-05
6.87408e-05
7.22842e-05
7.1629e-05
7.25034e-05
7.22143e-05
7.20987e-05
7.15065e-05
7.51603e-05
7.74534e-05
6.63989e-05
6.63851e-05
7.66926e-05
6.74296e-05
6.81478e-05
7.70646e-05
7.14082e-05
7.29747e-05
8.06442e-05
7.52871e-05
7.23864e-05
8.06939e-05
7.60781e-05
6.87383e-05
7.16281e-05
7.22832e-05
7.25051e-05
7.21078e-05
7.22162e-05
7.15245e-05
7.51652e-05
7.74635e-05
3.08543e-05
2.99669e-05
3.04001e-05
3.03932e-05
3.03368e-05
3.03294e-05
3.10403e-05
4.0524e-05
4.26231e-05
4.16047e-05
4.16005e-05
4.16494e-05
4.16459e-05
4.01662e-05
3.59157e-05
3.52792e-05
3.68349e-05
3.75218e-05
3.72002e-05
3.55047e-05
3.58062e-05
3.59077e-05
3.52706e-05
3.68262e-05
3.75141e-05
3.71921e-05
3.54954e-05
3.57992e-05
5.60491e-05
6.04237e-05
6.18086e-05
5.50097e-05
6.18795e-05
5.4934e-05
5.59424e-05
5.16728e-05
5.02372e-05
5.37364e-05
4.87717e-05
5.37047e-05
4.91836e-05
5.16101e-05
5.72095e-05
6.3921e-05
6.50177e-05
6.03507e-05
6.01486e-05
6.34712e-05
5.7313e-05
4.84695e-05
4.83668e-05
4.67035e-05
4.65414e-05
4.68926e-05
4.82205e-05
4.88691e-05
6.64207e-05
6.64113e-05
5.60508e-05
6.04325e-05
5.50169e-05
6.18287e-05
5.49371e-05
6.18926e-05
5.59539e-05
5.16743e-05
5.02441e-05
4.87795e-05
5.37536e-05
4.91875e-05
5.37151e-05
5.16178e-05
4.84642e-05
4.837e-05
4.67008e-05
4.65424e-05
4.68907e-05
4.82145e-05
4.88752e-05
5.72181e-05
6.39512e-05
6.50335e-05
6.03808e-05
6.01604e-05
6.34807e-05
5.73278e-05
9.39982e-05
7.68076e-05
7.68204e-05
7.5982e-05
7.5992e-05
8.48277e-05
7.38143e-05
6.5351e-05
7.39969e-05
6.95208e-05
7.46581e-05
6.44272e-05
7.3594e-05
7.38532e-05
6.53542e-05
7.40076e-05
6.95369e-05
7.47042e-05
6.44297e-05
7.36074e-05
6.51186e-05
5.34744e-05
5.86992e-05
5.8699e-05
5.8789e-05
5.87873e-05
6.47738e-05
9.648e-05
7.60832e-05
7.60899e-05
9.56952e-05
7.57023e-05
7.57117e-05
7.39239e-05
7.38306e-05
6.97082e-05
6.23577e-05
6.44911e-05
7.40362e-05
7.28197e-05
7.39607e-05
7.38431e-05
6.97287e-05
6.23685e-05
6.44969e-05
7.40495e-05
7.28529e-05
7.17962e-05
7.17992e-05
9.50133e-05
7.40212e-05
7.40141e-05
7.40201e-05
7.40134e-05
9.49143e-05
7.4539e-05
7.37973e-05
7.02715e-05
6.55536e-05
7.37801e-05
7.42866e-05
6.58047e-05
7.45766e-05
7.38079e-05
7.02721e-05
6.55542e-05
7.37901e-05
7.43314e-05
6.57959e-05
7.18006e-05
7.18383e-05
7.18034e-05
7.18418e-05
9.48148e-05
7.4036e-05
7.403e-05
9.47783e-05
7.40794e-05
7.40714e-05
7.42846e-05
6.5338e-05
7.00538e-05
7.38529e-05
7.37832e-05
6.53971e-05
7.42552e-05
7.43325e-05
6.53473e-05
7.00688e-05
7.38627e-05
7.37936e-05
6.5407e-05
7.43031e-05
7.42006e-05
7.37613e-05
6.55044e-05
6.99876e-05
7.42901e-05
7.38066e-05
6.53673e-05
7.42482e-05
7.37721e-05
6.55087e-05
7.00035e-05
7.43367e-05
7.38173e-05
6.53769e-05
9.48589e-05
7.42398e-05
7.42308e-05
7.41719e-05
7.41672e-05
9.52284e-05
7.25014e-05
6.88339e-05
7.22654e-05
7.17287e-05
7.22989e-05
7.19326e-05
7.24995e-05
7.22681e-05
8.00444e-05
7.40531e-05
8.04293e-05
7.24656e-05
7.24895e-05
7.22585e-05
7.16887e-05
6.85504e-05
7.24799e-05
7.2245e-05
7.16145e-05
7.22419e-05
7.40135e-05
7.9896e-05
7.25582e-05
8.04004e-05
7.24996e-05
8.03717e-05
7.4051e-05
7.2246e-05
7.9939e-05
7.24805e-05
6.84969e-05
7.22457e-05
7.16147e-05
7.24991e-05
7.225e-05
7.16377e-05
7.24918e-05
7.22594e-05
7.16963e-05
6.8553e-05
7.24823e-05
7.22459e-05
7.16208e-05
7.22443e-05
7.40224e-05
7.99044e-05
8.04086e-05
7.25606e-05
7.25022e-05
8.03771e-05
7.40596e-05
7.22485e-05
7.99462e-05
7.24827e-05
6.84992e-05
7.22465e-05
7.16202e-05
7.22508e-05
7.16435e-05
7.2501e-05
9.50664e-05
7.40317e-05
7.4041e-05
7.40292e-05
7.40391e-05
9.49791e-05
7.46151e-05
7.38238e-05
7.03048e-05
6.55993e-05
7.38052e-05
6.58288e-05
7.43897e-05
7.45537e-05
7.38249e-05
7.02888e-05
6.55831e-05
6.57874e-05
7.3804e-05
7.435e-05
7.18096e-05
7.18107e-05
7.18485e-05
9.48924e-05
7.4048e-05
7.40614e-05
9.48532e-05
7.40957e-05
7.41061e-05
7.44067e-05
6.54146e-05
7.01085e-05
7.38809e-05
6.54715e-05
7.38114e-05
7.43816e-05
7.43821e-05
6.54398e-05
7.01566e-05
7.38862e-05
7.38164e-05
6.54934e-05
7.43597e-05
7.43183e-05
7.37887e-05
6.55593e-05
7.00411e-05
6.54382e-05
7.44019e-05
7.38346e-05
7.42907e-05
7.37917e-05
6.55559e-05
7.00855e-05
7.43695e-05
7.38387e-05
6.54556e-05
9.49443e-05
7.42601e-05
7.42713e-05
7.41877e-05
7.42053e-05
9.53323e-05
7.18196e-05
7.18576e-05
7.25014e-05
6.88223e-05
7.2266e-05
7.17284e-05
7.22988e-05
7.19189e-05
7.24995e-05
7.22645e-05
8.00284e-05
7.40482e-05
8.04096e-05
7.24615e-05
7.24902e-05
7.16904e-05
7.226e-05
6.8548e-05
7.24812e-05
7.16126e-05
7.22457e-05
7.2241e-05
7.40149e-05
7.98915e-05
7.25568e-05
8.03981e-05
7.24991e-05
8.03718e-05
7.4053e-05
7.2246e-05
7.99387e-05
7.24803e-05
6.84917e-05
7.16088e-05
7.22452e-05
7.2498e-05
7.1634e-05
7.22501e-05
7.24908e-05
7.22598e-05
7.16955e-05
6.85482e-05
7.2482e-05
7.22455e-05
7.16158e-05
7.22381e-05
7.40174e-05
7.98881e-05
8.03931e-05
7.25536e-05
7.24967e-05
8.03622e-05
7.40552e-05
7.22441e-05
7.99317e-05
7.2481e-05
6.84912e-05
7.2245e-05
7.16101e-05
7.225e-05
7.16359e-05
7.24985e-05
7.2509e-05
6.87984e-05
7.17523e-05
7.22755e-05
7.18991e-05
7.2304e-05
7.25101e-05
7.22777e-05
8.00728e-05
7.4059e-05
8.04368e-05
7.24789e-05
7.25074e-05
6.87901e-05
7.22751e-05
7.17368e-05
7.23032e-05
7.18745e-05
7.25091e-05
7.2267e-05
8.00356e-05
7.4059e-05
8.03912e-05
7.24692e-05
7.25049e-05
7.17421e-05
7.22709e-05
6.8606e-05
7.24947e-05
7.16955e-05
7.2259e-05
7.22643e-05
7.40359e-05
7.99794e-05
8.04777e-05
7.2581e-05
7.25205e-05
8.04229e-05
7.40724e-05
7.22651e-05
8.00052e-05
7.24958e-05
6.85772e-05
7.17046e-05
7.2259e-05
7.17231e-05
7.22638e-05
7.2514e-05
7.25048e-05
7.22708e-05
7.17301e-05
6.86037e-05
7.24943e-05
7.22591e-05
7.16875e-05
7.22576e-05
7.4049e-05
7.99731e-05
8.04642e-05
7.25761e-05
7.25129e-05
8.03939e-05
7.40833e-05
7.2256e-05
7.99842e-05
7.24962e-05
6.85764e-05
7.22593e-05
7.16992e-05
7.2264e-05
7.17162e-05
7.25147e-05
9.52067e-05
7.40459e-05
7.40571e-05
7.40468e-05
7.40587e-05
9.512e-05
7.46363e-05
7.38293e-05
7.03208e-05
6.55958e-05
7.38128e-05
6.57992e-05
7.44232e-05
7.45743e-05
7.38317e-05
7.03078e-05
6.55779e-05
6.57528e-05
7.38128e-05
7.43847e-05
7.18128e-05
7.18057e-05
7.18459e-05
9.49706e-05
7.40524e-05
7.40656e-05
9.49499e-05
7.40795e-05
7.40923e-05
7.44097e-05
6.54001e-05
7.01188e-05
7.38693e-05
6.54636e-05
7.38046e-05
7.43654e-05
7.43872e-05
6.54296e-05
7.01753e-05
7.38759e-05
7.38111e-05
6.54896e-05
7.43454e-05
7.4335e-05
7.37909e-05
6.55591e-05
7.00596e-05
6.54359e-05
7.44289e-05
7.38325e-05
7.43093e-05
7.37954e-05
6.55555e-05
7.01117e-05
7.43983e-05
7.38383e-05
6.54564e-05
9.49674e-05
7.42135e-05
7.42253e-05
7.41559e-05
7.41718e-05
9.5209e-05
7.18163e-05
7.18568e-05
7.25105e-05
6.87881e-05
7.17518e-05
7.22789e-05
7.18779e-05
7.23053e-05
7.25121e-05
7.22742e-05
8.00563e-05
7.40535e-05
8.04134e-05
7.24757e-05
7.25115e-05
6.8781e-05
7.17423e-05
7.22792e-05
7.18601e-05
7.23051e-05
7.25136e-05
7.22679e-05
8.00354e-05
7.40596e-05
8.03847e-05
7.24705e-05
7.25064e-05
7.17443e-05
7.22743e-05
6.86084e-05
7.24967e-05
7.1699e-05
7.22619e-05
7.22603e-05
7.40335e-05
7.99738e-05
8.04711e-05
7.25766e-05
7.25169e-05
8.04112e-05
7.407e-05
7.2262e-05
7.99968e-05
7.24968e-05
6.85814e-05
7.17063e-05
7.22609e-05
7.17258e-05
7.22663e-05
7.25142e-05
7.25085e-05
7.17383e-05
7.22747e-05
6.86075e-05
7.24986e-05
7.16968e-05
7.22626e-05
7.2259e-05
7.40522e-05
7.99785e-05
8.04705e-05
7.25773e-05
7.25143e-05
8.03976e-05
7.40867e-05
7.22576e-05
7.99901e-05
7.24992e-05
6.85822e-05
7.17072e-05
7.22616e-05
7.1725e-05
7.2267e-05
7.25167e-05
7.18153e-05
7.18187e-05
9.49099e-05
7.40622e-05
7.40577e-05
9.48839e-05
7.41085e-05
7.41018e-05
7.44689e-05
6.5564e-05
7.02251e-05
7.39157e-05
7.44508e-05
6.5608e-05
7.3844e-05
7.45135e-05
6.55735e-05
7.02413e-05
7.39252e-05
7.44954e-05
6.56172e-05
7.38542e-05
7.43749e-05
7.38168e-05
6.56236e-05
7.01524e-05
7.44469e-05
6.55608e-05
7.38652e-05
7.4419e-05
7.38273e-05
6.56281e-05
7.01687e-05
7.44905e-05
6.55682e-05
7.38757e-05
9.49452e-05
7.42847e-05
7.42762e-05
9.53055e-05
7.42062e-05
7.4202e-05
7.18305e-05
7.18678e-05
7.1834e-05
7.18719e-05
7.19073e-05
7.18614e-05
7.19083e-05
7.18618e-05
9.63269e-05
7.4478e-05
7.44713e-05
7.44818e-05
7.44771e-05
9.67921e-05
7.44456e-05
6.54161e-05
7.38324e-05
7.0109e-05
7.44262e-05
7.3916e-05
6.53695e-05
7.4493e-05
6.54244e-05
7.38415e-05
7.01142e-05
7.44738e-05
7.39244e-05
6.53763e-05
9.61591e-05
7.43571e-05
7.43523e-05
9.54656e-05
7.44024e-05
7.43944e-05
7.46763e-05
7.39614e-05
7.02507e-05
6.54026e-05
7.388e-05
7.46385e-05
6.54776e-05
7.47234e-05
7.3969e-05
7.02526e-05
6.54064e-05
7.38879e-05
7.46857e-05
6.54829e-05
7.18499e-05
7.19385e-05
7.18514e-05
7.19398e-05
9.68613e-05
7.44991e-05
7.44952e-05
9.67192e-05
7.44496e-05
7.44445e-05
7.4701e-05
6.50646e-05
7.02359e-05
7.38758e-05
7.38475e-05
6.54065e-05
7.4366e-05
7.47486e-05
6.5066e-05
7.02348e-05
7.3885e-05
7.38563e-05
6.54085e-05
7.44108e-05
7.46375e-05
7.38916e-05
6.55038e-05
7.0213e-05
7.47872e-05
7.39611e-05
6.53497e-05
7.46851e-05
7.38994e-05
6.55067e-05
7.02116e-05
7.48345e-05
7.39693e-05
6.53519e-05
9.66426e-05
7.43974e-05
7.43959e-05
7.44621e-05
7.44606e-05
9.62067e-05
7.25297e-05
6.8576e-05
7.23015e-05
7.17777e-05
7.22941e-05
7.1752e-05
7.25634e-05
7.26296e-05
8.05119e-05
7.4085e-05
7.22435e-05
7.98881e-05
7.25258e-05
6.85459e-05
7.22597e-05
7.16639e-05
7.2262e-05
7.24987e-05
7.1666e-05
7.223e-05
7.9848e-05
7.40345e-05
8.06558e-05
7.26968e-05
7.25844e-05
7.23387e-05
7.18587e-05
6.88217e-05
7.25626e-05
7.23316e-05
7.18423e-05
7.21071e-05
7.39814e-05
7.92689e-05
7.27595e-05
8.08051e-05
7.27544e-05
8.07929e-05
7.40835e-05
7.21852e-05
7.97083e-05
7.25759e-05
6.87805e-05
7.23422e-05
7.17858e-05
7.2571e-05
7.23518e-05
7.184e-05
7.25826e-05
7.23383e-05
7.18552e-05
6.88211e-05
7.25613e-05
7.2331e-05
7.18386e-05
7.21081e-05
7.39804e-05
7.92564e-05
8.07965e-05
7.27599e-05
7.2756e-05
8.0792e-05
7.40846e-05
7.2187e-05
7.97039e-05
7.25742e-05
6.878e-05
7.23414e-05
7.17812e-05
7.2351e-05
7.18357e-05
7.25683e-05
9.64625e-05
7.45006e-05
7.45152e-05
7.45042e-05
7.45212e-05
9.69425e-05
7.45808e-05
6.54937e-05
7.386e-05
7.01577e-05
7.39428e-05
7.45579e-05
6.54464e-05
7.45651e-05
6.55218e-05
7.38654e-05
7.02094e-05
6.54766e-05
7.45393e-05
7.39479e-05
9.62885e-05
7.43769e-05
7.43948e-05
7.44249e-05
9.55795e-05
7.44387e-05
7.48143e-05
7.39857e-05
7.02959e-05
6.54741e-05
7.39058e-05
6.55525e-05
7.47747e-05
7.48024e-05
7.39901e-05
7.03465e-05
6.55068e-05
6.55844e-05
7.39105e-05
7.4763e-05
7.19238e-05
7.18766e-05
7.18553e-05
7.19449e-05
9.70236e-05
7.45214e-05
7.45376e-05
9.6876e-05
7.44708e-05
7.44832e-05
7.48326e-05
6.51135e-05
7.02721e-05
7.38917e-05
6.54665e-05
7.38661e-05
7.44913e-05
7.48197e-05
6.51496e-05
7.03216e-05
7.38952e-05
7.38693e-05
6.55009e-05
7.44789e-05
7.47697e-05
7.39143e-05
6.55712e-05
7.025e-05
6.5412e-05
7.49218e-05
7.39817e-05
7.47579e-05
7.39183e-05
6.5605e-05
7.02999e-05
7.49097e-05
7.39853e-05
6.54462e-05
9.68054e-05
7.44127e-05
7.44237e-05
7.44796e-05
7.44935e-05
9.63671e-05
7.18605e-05
7.19505e-05
7.25238e-05
6.85513e-05
7.22941e-05
7.17447e-05
7.22871e-05
7.17226e-05
7.25568e-05
7.26224e-05
8.04935e-05
7.40793e-05
7.22365e-05
7.9869e-05
7.25209e-05
6.85286e-05
7.22573e-05
7.1651e-05
7.22581e-05
7.24953e-05
7.16486e-05
7.22233e-05
7.98283e-05
7.40292e-05
8.06353e-05
7.26907e-05
7.25811e-05
7.18371e-05
7.23332e-05
6.87969e-05
7.25581e-05
7.18227e-05
7.23276e-05
7.211e-05
7.39802e-05
7.92666e-05
7.27627e-05
8.0798e-05
7.27558e-05
8.07812e-05
7.40821e-05
7.2186e-05
7.96992e-05
7.25727e-05
6.87599e-05
7.17716e-05
7.23401e-05
7.25705e-05
7.18226e-05
7.23489e-05
7.25778e-05
7.2332e-05
7.18204e-05
6.87899e-05
7.25556e-05
7.23263e-05
7.18054e-05
7.21065e-05
7.39794e-05
7.92447e-05
8.07808e-05
7.27599e-05
7.27526e-05
8.07722e-05
7.40822e-05
7.21822e-05
7.96863e-05
7.25697e-05
6.87531e-05
7.23387e-05
7.17518e-05
7.23476e-05
7.18038e-05
7.25662e-05
7.25406e-05
6.86704e-05
7.1877e-05
7.23071e-05
7.18511e-05
7.23005e-05
7.25738e-05
7.26501e-05
8.05916e-05
7.4099e-05
7.99693e-05
7.22648e-05
7.25374e-05
6.86384e-05
7.17526e-05
7.22712e-05
7.17585e-05
7.25111e-05
7.2272e-05
7.22504e-05
7.99298e-05
7.4048e-05
8.07389e-05
7.27152e-05
7.25422e-05
6.86713e-05
7.23074e-05
7.18787e-05
7.23009e-05
7.18514e-05
7.25754e-05
7.26486e-05
8.05914e-05
7.41148e-05
7.22611e-05
7.99742e-05
7.25387e-05
6.8639e-05
7.22715e-05
7.17483e-05
7.25122e-05
7.22723e-05
7.17559e-05
7.22505e-05
7.99415e-05
7.40642e-05
8.07478e-05
7.27175e-05
7.25941e-05
7.19541e-05
7.23435e-05
6.8911e-05
7.25721e-05
7.19368e-05
7.23372e-05
7.21202e-05
7.39916e-05
7.93275e-05
8.08739e-05
7.27679e-05
7.27705e-05
8.08743e-05
7.40964e-05
7.22046e-05
7.97831e-05
7.25858e-05
6.88705e-05
7.18781e-05
7.23488e-05
7.19337e-05
7.2358e-05
7.25813e-05
7.25951e-05
7.23438e-05
7.19577e-05
6.89138e-05
7.25736e-05
7.23373e-05
7.19412e-05
7.21261e-05
7.40031e-05
7.93346e-05
8.08842e-05
7.27744e-05
7.27755e-05
8.08868e-05
7.41097e-05
7.22079e-05
7.97947e-05
7.2587e-05
6.88736e-05
7.23487e-05
7.18834e-05
7.23581e-05
7.19382e-05
7.25813e-05
9.62084e-05
7.44751e-05
7.44899e-05
7.4471e-05
7.44868e-05
9.67463e-05
7.4519e-05
6.54715e-05
7.38441e-05
7.01265e-05
7.39241e-05
7.45185e-05
6.54167e-05
7.45025e-05
6.5504e-05
7.38504e-05
7.0186e-05
6.5451e-05
7.45001e-05
7.39299e-05
9.60228e-05
7.43298e-05
7.43452e-05
7.43772e-05
9.53917e-05
7.43904e-05
7.4725e-05
7.39678e-05
7.0251e-05
6.54354e-05
7.38862e-05
6.5517e-05
7.46904e-05
7.47111e-05
7.39724e-05
7.03088e-05
6.54713e-05
6.55525e-05
7.38914e-05
7.46769e-05
7.19143e-05
7.18669e-05
7.18536e-05
7.194e-05
9.68965e-05
7.45069e-05
7.45231e-05
9.67118e-05
7.44695e-05
7.44829e-05
7.47747e-05
6.50877e-05
7.02162e-05
7.38928e-05
6.54305e-05
7.38625e-05
7.44546e-05
7.47606e-05
6.51261e-05
7.02701e-05
7.38964e-05
7.38658e-05
6.54672e-05
7.44408e-05
7.47051e-05
7.38999e-05
6.5532e-05
7.0193e-05
6.53746e-05
7.48465e-05
7.39724e-05
7.46917e-05
7.3904e-05
6.55685e-05
7.02477e-05
7.48328e-05
7.39762e-05
6.54112e-05
9.67018e-05
7.44411e-05
7.44533e-05
7.44968e-05
7.45116e-05
9.63206e-05
7.18601e-05
7.19468e-05
7.2537e-05
6.86634e-05
7.18585e-05
7.23014e-05
7.18368e-05
7.22962e-05
7.25686e-05
7.26456e-05
8.05858e-05
7.40963e-05
7.99631e-05
7.22602e-05
7.25353e-05
6.86376e-05
7.17529e-05
7.22723e-05
7.17548e-05
7.25104e-05
7.22715e-05
7.22464e-05
7.99228e-05
7.40456e-05
8.0732e-05
7.27124e-05
7.25398e-05
6.86677e-05
7.18704e-05
7.23022e-05
7.18461e-05
7.2297e-05
7.25711e-05
7.265e-05
8.05953e-05
7.41162e-05
7.22623e-05
7.99762e-05
7.2538e-05
6.86408e-05
7.17551e-05
7.22731e-05
7.25131e-05
7.17592e-05
7.22723e-05
7.2252e-05
7.99405e-05
7.4065e-05
8.07479e-05
7.27197e-05
7.25903e-05
7.19314e-05
7.23374e-05
6.88898e-05
7.25674e-05
7.19143e-05
7.23322e-05
7.2122e-05
7.39929e-05
7.93274e-05
8.08705e-05
7.27715e-05
7.27705e-05
8.08671e-05
7.40963e-05
7.22029e-05
7.97773e-05
7.2582e-05
6.88526e-05
7.18586e-05
7.23458e-05
7.19121e-05
7.23543e-05
7.25801e-05
7.25921e-05
7.19475e-05
7.23381e-05
6.88981e-05
7.25697e-05
7.19317e-05
7.23328e-05
7.21308e-05
7.40029e-05
7.93399e-05
8.08868e-05
7.27799e-05
7.27792e-05
8.08858e-05
7.41095e-05
7.22109e-05
7.9795e-05
7.2584e-05
6.88613e-05
7.18773e-05
7.23461e-05
7.193e-05
7.23548e-05
7.2581e-05
7.19385e-05
7.18939e-05
7.19398e-05
7.18946e-05
9.7367e-05
7.46164e-05
7.46132e-05
9.71706e-05
7.45724e-05
7.45689e-05
7.50424e-05
6.53126e-05
7.04236e-05
7.39517e-05
7.47183e-05
6.56665e-05
7.39215e-05
7.50872e-05
6.53138e-05
7.04227e-05
7.39587e-05
7.4761e-05
6.56683e-05
7.39288e-05
7.49734e-05
7.3966e-05
6.57678e-05
7.03982e-05
7.51143e-05
6.56109e-05
7.40353e-05
7.50181e-05
7.39725e-05
6.57708e-05
7.03972e-05
7.51585e-05
6.5613e-05
7.40421e-05
9.71719e-05
7.45238e-05
7.45234e-05
9.67791e-05
7.45891e-05
7.45887e-05
7.18843e-05
7.19734e-05
7.18859e-05
7.19744e-05
6.63972e-05
6.6385e-05
6.64054e-05
6.63944e-05
9.34422e-05
7.68569e-05
7.68681e-05
7.59379e-05
7.59459e-05
8.45426e-05
7.35014e-05
6.51098e-05
7.39236e-05
6.93019e-05
7.43113e-05
7.35286e-05
6.42376e-05
7.35419e-05
6.51131e-05
7.39349e-05
6.93158e-05
7.4359e-05
7.35415e-05
6.42396e-05
6.49858e-05
5.33862e-05
5.86543e-05
5.8653e-05
6.46967e-05
5.86947e-05
5.86919e-05
9.58722e-05
7.59231e-05
7.5931e-05
9.5045e-05
7.56336e-05
7.56419e-05
7.36499e-05
7.38493e-05
6.95144e-05
6.23138e-05
7.3984e-05
7.266e-05
6.43447e-05
7.36867e-05
7.38596e-05
6.95316e-05
6.23218e-05
7.39967e-05
7.26918e-05
6.43494e-05
7.76889e-05
7.77016e-05
8.33874e-05
5.82019e-05
5.8203e-05
6.6157e-05
7.57614e-05
6.21115e-05
7.25941e-05
7.57684e-05
6.21208e-05
7.2624e-05
7.66874e-05
6.74245e-05
7.70611e-05
6.81078e-05
7.297e-05
7.13864e-05
8.06284e-05
7.52803e-05
7.23801e-05
8.06684e-05
7.60692e-05
6.87405e-05
7.22834e-05
7.16221e-05
7.22135e-05
7.25007e-05
7.20904e-05
7.14797e-05
7.51585e-05
7.74288e-05
5.5988e-05
6.03559e-05
6.17542e-05
5.49575e-05
6.18195e-05
5.48742e-05
5.58892e-05
5.16365e-05
5.02197e-05
5.3725e-05
4.87573e-05
4.91605e-05
5.36806e-05
5.15845e-05
5.71666e-05
6.39035e-05
6.49734e-05
6.03346e-05
6.34179e-05
6.01052e-05
5.72797e-05
4.84076e-05
4.83211e-05
4.66613e-05
4.65097e-05
4.68531e-05
4.81619e-05
4.8832e-05
5.59852e-05
6.03544e-05
6.17459e-05
5.49554e-05
6.18128e-05
5.4873e-05
5.5883e-05
5.16359e-05
5.02138e-05
5.37062e-05
4.87468e-05
5.15763e-05
5.36711e-05
4.91559e-05
5.71606e-05
6.38842e-05
6.4977e-05
6.03155e-05
6.34135e-05
5.7269e-05
6.01034e-05
4.84098e-05
4.83191e-05
4.66615e-05
4.65067e-05
4.81631e-05
4.88278e-05
4.68523e-05
6.23233e-05
5.46298e-05
5.58175e-05
5.35623e-05
4.79074e-05
5.10161e-05
6.38884e-05
6.02281e-05
5.71021e-05
4.82857e-05
4.58382e-05
4.88413e-05
6.23083e-05
5.46262e-05
5.58035e-05
5.35246e-05
4.78849e-05
5.09926e-05
6.38668e-05
6.02e-05
5.70782e-05
4.82822e-05
4.58303e-05
4.88315e-05
9.35004e-05
7.68163e-05
7.68421e-05
7.59202e-05
7.59342e-05
8.45141e-05
7.3576e-05
6.51521e-05
7.3942e-05
6.93214e-05
7.35366e-05
7.44196e-05
6.42569e-05
7.35734e-05
6.51938e-05
7.39434e-05
6.93713e-05
6.42895e-05
7.44193e-05
7.35383e-05
6.49818e-05
5.33921e-05
5.86301e-05
5.86481e-05
5.87058e-05
5.86859e-05
6.46691e-05
9.59496e-05
7.59344e-05
7.59487e-05
7.56226e-05
9.51696e-05
7.56344e-05
7.36908e-05
7.38319e-05
6.95249e-05
6.22854e-05
7.39879e-05
6.4347e-05
7.26486e-05
7.36857e-05
7.38297e-05
6.95688e-05
6.2308e-05
6.43757e-05
7.39891e-05
7.26379e-05
6.64124e-05
6.6398e-05
7.76488e-05
7.76804e-05
8.33376e-05
5.81472e-05
5.81593e-05
6.60945e-05
7.57339e-05
6.20756e-05
7.25649e-05
7.5735e-05
6.20955e-05
7.25524e-05
5.59804e-05
6.03551e-05
6.17606e-05
5.49552e-05
6.18217e-05
5.48687e-05
5.58862e-05
5.16312e-05
5.02174e-05
5.37227e-05
4.87547e-05
4.91571e-05
5.36771e-05
5.15807e-05
5.71617e-05
6.39118e-05
6.4976e-05
6.03356e-05
6.34142e-05
6.01017e-05
5.7277e-05
4.83975e-05
4.83163e-05
4.6654e-05
4.65041e-05
4.68459e-05
4.8153e-05