/*--------------------------------*- C++ -*----------------------------------*\
| =========                 |                                                 |
| \\      /  F ield         | OpenFOAM: The Open Source CFD Toolbox           |
|  \\    /   O peration     | Version:  v2006                                 |
|   \\  /    A nd           | Website:  www.openfoam.com                      |
|    \\/     M anipulation  |                                                 |
\*---------------------------------------------------------------------------*/
FoamFile
{
    version     2.0;
    format      ascii;
    class       volScalarField;
    location    "1000";
    object      nut;
}
// * * * * * * * * * * * * * * * * * * * * * * * * * * * * * * * * * * * * * //

dimensions      [0 2 -1 0 0 0 0];


internalField   nonuniform List<scalar> 
14314
(
0.000238028
0.000215422
0.000215098
0.000192413
0.000235451
0.000213706
0.000213663
0.000193367
0.000191272
0.000216017
0.000216396
0.000191757
0.000215953
0.000216025
0.0002164
0.000216826
0.000191527
0.000215984
0.000216709
0.000192643
0.000190791
0.000190587
0.00021485
0.000215285
0.000215452
0.000215674
0.000191309
0.000190932
0.000214791
0.00021497
0.000215418
0.000215522
0.00021629
0.000215979
0.000217042
0.000191112
0.000190828
0.00021622
0.00021587
0.000217047
0.000192167
0.000192104
0.000213379
0.000213462
0.000192341
0.000213359
0.000213376
0.000235751
0.000235539
0.00023676
0.000214458
0.000192255
0.000214475
0.000100336
5.09606e-05
2.40002e-05
0.000100328
5.09552e-05
0.000238829
0.000239208
0.000238812
0.000239089
0.000147677
0.000217976
0.000104568
0.000232838
2.39994e-05
0.000147503
0.00021765
0.000232661
0.000104564
0.000192968
7.79995e-05
7.80074e-05
0.000100242
5.09489e-05
9.97252e-05
5.0994e-05
2.40016e-05
2.40274e-05
0.000100159
5.09432e-05
9.97062e-05
5.0988e-05
0.000238551
0.000238086
0.000238853
0.000233722
0.000234148
0.000233889
0.000235349
0.000146994
0.000104431
0.000231375
0.000215065
0.000146674
0.000104484
0.000230266
2.39989e-05
2.40246e-05
0.000146978
0.000230973
0.00010441
0.000214861
0.00014668
0.000229993
0.000104435
7.812e-05
7.81262e-05
0.000192257
7.83085e-05
7.82957e-05
0.000108796
5.50664e-05
0.000101323
8.60746e-05
2.70245e-05
4.60699e-05
0.000108869
5.50609e-05
0.000101293
8.60765e-05
0.000250553
0.000243902
0.000243787
0.000233179
0.000252448
0.000242846
0.000242751
0.000150885
0.000106444
0.000232641
0.00021166
0.000148338
0.000107905
0.000229317
2.70249e-05
4.61179e-05
0.000150934
0.000232591
0.000106424
0.000211712
0.000148298
0.000229316
0.000108018
7.88379e-05
7.8816e-05
0.000194709
8.51634e-05
8.5216e-05
2.40013e-05
2.39991e-05
0.000193509
7.77844e-05
7.77873e-05
2.40077e-05
2.39935e-05
2.40059e-05
2.39913e-05
0.000192839
7.76462e-05
7.76509e-05
7.77681e-05
7.77749e-05
0.000100346
5.09583e-05
0.000147888
0.000217998
0.000104487
0.000233137
0.000147907
0.000218117
0.000104548
0.000233184
9.99522e-05
5.09608e-05
5.0946e-05
9.97339e-05
9.9961e-05
5.09598e-05
5.09444e-05
9.97411e-05
0.000147466
0.000217298
0.000104015
0.0002319
0.000104389
0.000233003
0.000146223
0.000147486
0.000217583
0.000104101
0.000232051
0.000104461
0.00023309
0.000146247
0.000193665
7.78432e-05
7.79069e-05
2.40026e-05
2.40071e-05
2.39928e-05
0.000193107
7.77204e-05
7.78304e-05
7.78348e-05
7.79165e-05
2.40103e-05
2.39951e-05
0.000147774
0.000217981
0.000104463
0.000233095
0.000100331
5.09534e-05
0.000147784
0.000217865
0.000233093
0.000104541
9.99475e-05
5.09554e-05
5.09409e-05
9.97207e-05
0.000147387
0.000217222
0.000104007
0.000231665
0.000104376
0.000232875
0.000146191
9.9951e-05
5.09541e-05
5.09395e-05
9.9724e-05
0.000147401
0.000217198
0.000231681
0.000104073
0.000232882
0.000104458
0.000146205
0.000100306
5.09619e-05
0.000147663
0.00021719
0.000232526
0.000104611
0.000100295
5.09612e-05
0.000147395
0.000217452
0.000104241
0.000232045
0.000104524
0.000232824
0.000146643
0.000100024
5.09651e-05
5.09486e-05
9.99392e-05
0.000147397
0.000217202
0.000232124
0.000104414
0.000232619
0.000104614
0.000146692
0.000100021
5.0968e-05
5.09489e-05
9.99441e-05
0.000193278
7.78964e-05
7.79702e-05
2.40028e-05
2.40049e-05
2.39917e-05
0.000192765
7.77263e-05
7.78507e-05
7.78818e-05
7.79755e-05
2.40088e-05
2.39951e-05
0.000147497
0.000217101
0.000232393
0.000104572
0.00010029
5.09599e-05
0.000100279
5.09596e-05
0.000147273
0.000216971
0.00023156
0.000104231
0.000232477
0.000104524
0.000146643
0.00014728
0.000217079
0.000231789
0.000104418
0.000232372
0.000104594
0.0001467
0.000100024
5.09635e-05
5.09471e-05
9.99556e-05
0.000100021
5.09668e-05
5.09477e-05
9.99622e-05
2.4003e-05
2.40023e-05
0.000192813
7.79451e-05
7.79557e-05
7.802e-05
7.80294e-05
2.40112e-05
2.39958e-05
2.40103e-05
2.39951e-05
2.40022e-05
2.40282e-05
2.40001e-05
2.40259e-05
7.78144e-05
7.78136e-05
0.000190394
7.7994e-05
7.79743e-05
2.47675e-05
2.4029e-05
2.47656e-05
2.40267e-05
0.000189809
7.90922e-05
7.90654e-05
7.81452e-05
7.81238e-05
0.000100241
5.09476e-05
9.97314e-05
5.09918e-05
0.000146486
0.000104191
0.000230918
0.000214505
0.000146212
0.000104241
0.000229613
0.000146504
0.000104278
0.000231083
0.00021485
0.000146235
0.000104315
0.000229755
0.000100428
5.21507e-05
5.09968e-05
0.000101502
0.000100427
5.21472e-05
5.0994e-05
0.0001015
0.000146696
0.000212864
0.000105732
0.000227714
0.000104568
0.000229566
0.000147778
0.000146708
0.000213212
0.000105777
0.000227776
0.000104637
0.000229681
0.000147781
7.78882e-05
7.79998e-05
0.000190898
7.805e-05
7.81613e-05
2.40046e-05
2.40298e-05
2.47666e-05
2.4028e-05
0.000190287
7.91398e-05
7.92417e-05
7.81974e-05
7.8306e-05
2.47678e-05
2.40302e-05
0.000146418
0.00010418
0.000230702
0.000214472
0.000146177
0.000104218
0.000229436
0.000100149
5.09419e-05
9.97083e-05
5.09866e-05
0.000146421
0.00023074
0.000104236
0.000214626
0.000146189
0.000229472
0.000104241
0.000100343
5.21447e-05
5.09906e-05
0.000101448
0.000146614
0.000212827
0.000105711
0.000227612
0.000104543
0.000229409
0.000147694
0.000100331
5.21431e-05
5.09889e-05
0.000101432
0.000146613
0.000212973
0.000227618
0.000105725
0.000229435
0.00010456
0.000147683
0.000100473
5.0953e-05
9.99419e-05
5.09969e-05
0.000147049
0.000231603
0.000104621
0.000216038
0.000146726
0.000230631
0.000104702
0.00010048
5.09562e-05
9.99457e-05
5.10005e-05
0.000147191
0.000213473
0.000105926
0.000228396
0.000104804
0.00023024
0.000148199
0.000100654
5.21494e-05
5.09984e-05
0.000101735
0.000147246
0.000214649
0.000228762
0.000106164
0.000230632
0.000105031
0.000148244
0.000100664
5.21526e-05
5.10018e-05
0.000101742
7.78684e-05
7.79944e-05
0.000190787
7.79568e-05
7.80805e-05
2.40026e-05
2.40283e-05
2.47657e-05
2.40256e-05
0.000190189
7.90215e-05
7.91279e-05
7.80969e-05
7.82175e-05
2.47681e-05
2.40293e-05
0.000147045
0.00023132
0.000104626
0.000216021
0.000146741
0.000230464
0.000104703
0.000100428
5.09514e-05
9.99583e-05
5.09961e-05
0.000100443
5.09548e-05
9.99639e-05
5.0998e-05
0.000147162
0.000213262
0.000228313
0.000105899
0.000230035
0.000104753
0.00014816
0.000147229
0.000214638
0.000228734
0.000106167
0.000230517
0.000105031
0.000148217
0.000100601
5.21499e-05
5.0998e-05
0.000101689
0.000100619
5.21505e-05
5.09998e-05
0.00010171
2.40058e-05
2.40323e-05
2.40047e-05
2.40306e-05
0.000191684
7.94339e-05
7.94128e-05
7.84697e-05
7.84538e-05
2.47717e-05
2.40329e-05
2.47707e-05
2.40316e-05
2.70252e-05
4.60759e-05
2.70239e-05
4.60884e-05
7.84122e-05
7.83865e-05
0.000194541
8.4943e-05
8.49756e-05
0.000196355
8.4955e-05
8.49893e-05
0.000108795
5.50634e-05
0.000101321
8.6085e-05
0.000150647
0.000106261
0.000232055
0.000211669
0.000147938
0.000107873
0.000229043
0.000150638
0.000106302
0.000232088
0.000211519
0.00014794
0.000107838
0.000229022
0.000156228
0.000211116
0.000106762
0.000227698
0.000156213
0.000210833
0.000106714
0.000227649
7.84685e-05
7.85791e-05
0.000194436
8.49102e-05
8.49673e-05
2.70255e-05
4.60924e-05
0.000196049
8.49131e-05
8.49616e-05
0.000150655
0.00010624
0.00023197
0.000211668
0.000147857
0.000107892
0.000228986
0.000108865
5.50595e-05
0.000101279
8.60869e-05
0.000150643
0.000231953
0.000106258
0.000211534
0.000147844
0.000228939
0.000107927
0.000156295
0.000211126
0.000106786
0.000227658
0.000156284
0.000210896
0.000227595
0.000106816
0.00025073
0.000244035
0.00024447
0.000233208
0.000252742
0.000242877
0.000243163
0.000250526
0.000243762
0.000244234
0.000233126
0.000252462
0.000242693
0.000243041
0.000250831
0.000244874
0.000244794
0.000233685
0.000252945
0.000243368
0.00024333
0.000249668
0.000231046
0.00024166
0.000241575
0.000249781
0.000230882
0.000241645
0.000241716
0.000249615
0.000230852
0.000241496
0.000241632
0.000249811
0.000230877
0.000241786
0.000241762
0.000108981
5.50644e-05
0.000101548
8.61175e-05
0.000150909
0.000232969
0.000106685
0.000211818
0.000148381
0.000229451
0.000108047
0.000108994
5.50678e-05
0.000101561
8.6163e-05
0.000156346
0.000210909
0.000106771
0.000227733
0.000156355
0.000210689
0.000227754
0.000106921
7.8383e-05
7.84994e-05
0.000194506
8.50714e-05
8.51549e-05
2.70271e-05
4.6147e-05
0.000196203
8.50812e-05
8.51578e-05
0.000150956
0.000232968
0.000106686
0.000211845
0.000148352
0.000229473
0.000108082
0.000109081
5.5066e-05
0.000101529
8.61164e-05
0.000109094
5.50663e-05
0.00010155
8.61576e-05
0.000156459
0.000211003
0.000227758
0.000106896
0.000156458
0.000210719
0.000227788
0.000106959
2.70299e-05
4.61493e-05
2.70293e-05
4.61642e-05
0.000195853
8.5138e-05
8.51933e-05
4.71232e-05
4.7137e-05
0.000108009
8.69194e-05
0.000108008
8.69277e-05
4.71153e-05
4.71378e-05
0.000108097
8.69245e-05
0.000108095
8.69398e-05
0.000108162
8.69725e-05
0.000108174
8.7038e-05
4.71668e-05
4.7197e-05
0.000108281
8.6988e-05
0.000108291
8.70403e-05
4.71934e-05
4.72099e-05
3.68789e-05
0.000100595
4.12389e-05
9.46417e-05
4.12489e-05
9.51028e-05
3.68783e-05
2.03993e-05
7.91277e-05
5.09559e-05
7.94689e-05
2.04271e-05
2.39947e-05
3.68784e-05
0.000100566
9.46418e-05
4.12384e-05
9.5076e-05
4.1248e-05
3.68778e-05
2.03991e-05
7.91221e-05
5.09501e-05
7.94579e-05
2.04268e-05
2.3994e-05
8.12504e-05
2.17905e-05
2.17872e-05
2.17902e-05
2.17871e-05
8.11044e-05
0.00010618
4.88469e-05
7.81877e-05
0.000131259
0.000131518
4.88393e-05
0.000105959
0.000106157
4.88361e-05
7.81693e-05
0.000131207
0.000131415
4.8828e-05
0.000105958
3.68925e-05
9.99264e-05
4.12638e-05
9.47405e-05
4.12546e-05
9.46941e-05
3.69073e-05
2.0452e-05
7.93427e-05
5.09717e-05
2.03965e-05
7.8886e-05
3.68884e-05
9.98154e-05
4.12393e-05
9.44591e-05
3.68798e-05
4.1242e-05
9.44706e-05
2.03972e-05
7.88289e-05
5.09606e-05
7.94461e-05
2.04661e-05
2.40153e-05
2.40102e-05
3.68906e-05
9.98766e-05
9.46863e-05
4.12608e-05
9.46446e-05
4.1252e-05
3.69052e-05
2.04514e-05
7.93316e-05
5.0966e-05
2.03963e-05
7.88718e-05
3.68866e-05
9.9784e-05
9.44422e-05
4.12376e-05
3.68783e-05
9.44459e-05
4.124e-05
2.03969e-05
7.88096e-05
5.09548e-05
7.94285e-05
2.0466e-05
2.40126e-05
2.40075e-05
8.31085e-05
2.18786e-05
2.18757e-05
2.1873e-05
2.18699e-05
8.39317e-05
0.000106555
0.000131328
4.88661e-05
7.81056e-05
0.00010633
0.000131371
4.88978e-05
0.000106553
0.000131319
4.88547e-05
7.81045e-05
0.00010633
0.000131359
4.88861e-05
8.26734e-05
2.1845e-05
2.18419e-05
8.16522e-05
2.18554e-05
2.18517e-05
0.000107149
4.89326e-05
7.83379e-05
0.00013165
0.000131616
4.88928e-05
0.000107321
0.000107146
4.89207e-05
7.83288e-05
0.000131628
0.000131599
4.88809e-05
0.00010732
9.66054e-06
0.000105945
1.07743e-05
0.000101798
2.05527e-05
0.000100345
7.97971e-05
9.17429e-05
2.03545e-05
8.25649e-05
1.03103e-05
0.000104749
4.26901e-05
9.62481e-05
3.61862e-05
4.34311e-05
9.7925e-05
9.11128e-05
9.03636e-05
8.55488e-05
3.41445e-05
3.70359e-05
9.66098e-06
0.000105947
0.000101866
1.07744e-05
0.000100364
2.05538e-05
7.9796e-05
9.17431e-05
2.03551e-05
8.25707e-05
1.03107e-05
0.000104732
9.62405e-05
4.26888e-05
3.6186e-05
9.79337e-05
4.34312e-05
9.11515e-05
9.03661e-05
8.55624e-05
0.000251285
0.00025101
0.000251152
0.000251044
0.000251325
0.000251212
0.00025131
0.000233468
0.000233119
0.000233605
0.000233562
0.000234452
0.000234413
0.000232845
0.000242086
0.000241205
0.000242565
0.000243038
0.000242531
0.000241817
0.000241557
0.000242
0.000241103
0.000242467
0.000242958
0.000242444
0.000241712
0.000241478
0.000183172
0.000151016
0.000147198
0.000188244
0.000143488
0.00018807
0.000183652
0.000212291
0.000212133
0.000204996
0.000214695
0.000207657
0.000214913
0.000211342
0.000174708
0.000127903
0.000111143
0.000165528
0.000161319
0.00013148
0.000174894
0.000228914
0.00022889
0.000230118
0.000228685
0.000229595
0.000230266
0.00022782
3.41564e-05
3.70484e-05
0.000183165
0.000151033
0.000188269
0.000147258
0.000188075
0.000143526
0.000183695
0.00021228
0.00021216
0.000214734
0.000205061
0.00021493
0.000207698
0.000211368
0.000228872
0.000228926
0.000230103
0.000228688
0.000229582
0.00023022
0.000227868
0.000174725
0.000127998
0.000111174
0.000165639
0.000161344
0.000131501
0.00017494
8.98126e-05
6.02307e-06
6.02347e-06
1.13492e-05
1.13499e-05
8.89877e-05
0.000114114
0.000133195
5.06764e-05
8.74651e-05
0.000109382
0.00013638
5.33563e-05
0.000114164
0.000133162
5.06688e-05
8.74846e-05
0.000109399
0.000136383
5.33557e-05
0.000145938
0.000195354
0.000173772
0.000173807
0.000174362
0.000174389
0.000147099
8.477e-05
2.32902e-05
2.32893e-05
8.62057e-05
1.21302e-05
1.21309e-05
0.00011186
2.63686e-05
8.58117e-05
0.000142745
0.00013947
2.43224e-05
0.000110015
0.000111912
2.63708e-05
8.58395e-05
0.000142801
0.000139495
2.43247e-05
0.000110073
2.39959e-05
2.39934e-05
8.11683e-05
2.17874e-05
2.17839e-05
2.17874e-05
2.1784e-05
8.09794e-05
0.00010625
4.88322e-05
7.8184e-05
0.000131074
4.8827e-05
0.000105688
0.000131875
0.000106227
4.88201e-05
7.81576e-05
0.00013102
4.88147e-05
0.000105683
0.000131788
2.3996e-05
2.40024e-05
2.39942e-05
2.40003e-05
8.07489e-05
2.1789e-05
2.17857e-05
8.07857e-05
2.17947e-05
2.17912e-05
0.000105551
0.000130335
7.77117e-05
4.8851e-05
4.88273e-05
0.000130417
0.000105556
0.000105554
0.000130319
7.77193e-05
4.88385e-05
4.88148e-05
0.000130402
0.00010556
0.000105469
4.882e-05
0.00013082
7.76394e-05
0.000105612
4.8835e-05
0.000130431
0.000105472
4.88079e-05
0.00013078
7.76477e-05
0.000105612
4.88227e-05
0.000130414
8.08044e-05
2.18185e-05
2.18148e-05
2.18083e-05
2.18051e-05
8.11911e-05
3.68774e-05
0.000100605
4.1239e-05
9.46609e-05
4.12489e-05
9.51217e-05
3.68766e-05
2.03982e-05
7.91271e-05
5.09533e-05
7.94634e-05
2.04259e-05
3.68763e-05
4.12373e-05
9.45486e-05
9.98582e-05
3.6874e-05
4.12333e-05
9.43828e-05
2.03956e-05
5.0944e-05
7.89055e-05
2.04405e-05
7.92769e-05
2.04321e-05
7.93104e-05
5.09569e-05
2.03964e-05
7.8967e-05
3.68738e-05
9.97173e-05
4.12343e-05
9.43718e-05
3.68792e-05
4.12349e-05
9.44169e-05
3.68748e-05
4.12371e-05
9.45668e-05
9.98669e-05
3.6872e-05
4.12334e-05
9.44002e-05
2.0395e-05
5.09429e-05
7.89181e-05
7.92891e-05
2.04399e-05
2.04312e-05
7.93153e-05
5.09555e-05
2.03952e-05
7.89754e-05
3.68728e-05
9.97249e-05
4.12343e-05
9.43876e-05
4.12352e-05
9.44344e-05
3.68779e-05
8.12204e-05
2.17864e-05
2.179e-05
2.17862e-05
2.17899e-05
8.10501e-05
0.000106309
4.88263e-05
7.82135e-05
0.000131185
4.88206e-05
0.000131906
0.000105819
0.000106247
4.88389e-05
7.8184e-05
0.000131151
0.000131783
4.88322e-05
0.000105813
2.39966e-05
2.39953e-05
2.40017e-05
8.08378e-05
2.17883e-05
2.17924e-05
8.08708e-05
2.1795e-05
2.17984e-05
0.000105731
0.000130561
7.77859e-05
4.88459e-05
0.000130635
4.88223e-05
0.000105744
0.000105763
0.000130687
7.78881e-05
4.88594e-05
4.88356e-05
0.000130747
0.000105785
0.000105638
4.88144e-05
0.000130964
7.7709e-05
0.000130636
0.000105764
4.88296e-05
0.000105662
4.88275e-05
0.000130977
7.7805e-05
0.000105777
4.88429e-05
0.000130731
8.09038e-05
2.18193e-05
2.18227e-05
2.18089e-05
2.18127e-05
8.13142e-05
2.39986e-05
2.40047e-05
3.68767e-05
0.000100566
4.12381e-05
9.46635e-05
4.12478e-05
9.50882e-05
3.6876e-05
2.03979e-05
7.91054e-05
5.09481e-05
7.94357e-05
2.04256e-05
3.68757e-05
9.45496e-05
4.12367e-05
9.98531e-05
3.6873e-05
9.43789e-05
4.12325e-05
2.03958e-05
5.09389e-05
7.88987e-05
2.04407e-05
7.92736e-05
2.0432e-05
7.93077e-05
5.09517e-05
2.03961e-05
7.89655e-05
3.68735e-05
9.97052e-05
9.43589e-05
4.12331e-05
3.68784e-05
9.44094e-05
4.12339e-05
3.68737e-05
4.12366e-05
9.45705e-05
9.98565e-05
3.68716e-05
4.12322e-05
9.43932e-05
2.03939e-05
5.09376e-05
7.88923e-05
7.92659e-05
2.04386e-05
2.04304e-05
7.92953e-05
5.09505e-05
2.03948e-05
7.89545e-05
3.68714e-05
9.97087e-05
4.1233e-05
9.43716e-05
4.12336e-05
9.44231e-05
3.68765e-05
3.6881e-05
0.00010048
9.46818e-05
4.12409e-05
9.50112e-05
4.12493e-05
3.68811e-05
2.04012e-05
7.91651e-05
5.09558e-05
7.94639e-05
2.04295e-05
3.68793e-05
0.000100463
4.12414e-05
9.46599e-05
4.12497e-05
9.49648e-05
3.68796e-05
2.03985e-05
7.91006e-05
5.09534e-05
7.93882e-05
2.0427e-05
3.68798e-05
9.46406e-05
4.12397e-05
9.99789e-05
3.68771e-05
9.45463e-05
4.12363e-05
2.0399e-05
5.09482e-05
7.90388e-05
7.93967e-05
2.0444e-05
2.04352e-05
7.93824e-05
5.09605e-05
2.03993e-05
7.90668e-05
3.68777e-05
9.99076e-05
9.45586e-05
4.1237e-05
9.45921e-05
4.12378e-05
3.68827e-05
3.68787e-05
4.12402e-05
9.46289e-05
9.99792e-05
3.68757e-05
4.12368e-05
9.45461e-05
2.03975e-05
5.09506e-05
7.90237e-05
7.93723e-05
2.04425e-05
2.04333e-05
7.93323e-05
5.09617e-05
2.03968e-05
7.90282e-05
3.68769e-05
9.99119e-05
4.12377e-05
9.45644e-05
4.12384e-05
9.4595e-05
3.68817e-05
8.14149e-05
2.17887e-05
2.17925e-05
2.17887e-05
2.17929e-05
8.12564e-05
0.000106347
4.88274e-05
7.82388e-05
0.000131164
4.88219e-05
0.000131779
0.000105898
0.00010629
4.88428e-05
7.82145e-05
0.000131122
0.000131636
4.88369e-05
0.000105901
2.39966e-05
2.39935e-05
2.40003e-05
8.09758e-05
2.17895e-05
2.17934e-05
8.10199e-05
2.17929e-05
2.17971e-05
0.000105758
0.000130528
7.78107e-05
4.8841e-05
0.00013062
4.88188e-05
0.000105732
0.000105801
0.000130671
7.79275e-05
4.8858e-05
4.88359e-05
0.000130746
0.000105784
0.000105689
4.88145e-05
0.000130961
7.77471e-05
0.000130634
0.000105835
4.88279e-05
0.000105725
4.88304e-05
0.000130972
7.78564e-05
0.000105857
4.88447e-05
0.000130739
8.09766e-05
2.18121e-05
2.18164e-05
2.18037e-05
2.18085e-05
8.11911e-05
2.39975e-05
2.40039e-05
3.68809e-05
0.000100446
9.46799e-05
4.12416e-05
9.49551e-05
4.12494e-05
3.68812e-05
2.04004e-05
7.91395e-05
5.09527e-05
7.94258e-05
2.04287e-05
3.68794e-05
0.000100429
9.46663e-05
4.1242e-05
9.49217e-05
4.12493e-05
3.68799e-05
2.03982e-05
7.90933e-05
5.09513e-05
7.937e-05
2.04267e-05
3.688e-05
9.46465e-05
4.12402e-05
9.99859e-05
3.68774e-05
9.45569e-05
4.12369e-05
2.03985e-05
5.09466e-05
7.90274e-05
7.93852e-05
2.04434e-05
2.04347e-05
7.9364e-05
5.09589e-05
2.03988e-05
7.90531e-05
3.68777e-05
9.99217e-05
9.45676e-05
4.12374e-05
9.46024e-05
4.12385e-05
3.68825e-05
3.68786e-05
9.46424e-05
4.12409e-05
9.99864e-05
3.68762e-05
9.45615e-05
4.12374e-05
2.0397e-05
5.09497e-05
7.90285e-05
7.93784e-05
2.04421e-05
2.04327e-05
7.93328e-05
5.09608e-05
2.03966e-05
7.90319e-05
3.68766e-05
9.99277e-05
9.45787e-05
4.12381e-05
9.46112e-05
4.1239e-05
3.68817e-05
2.39965e-05
2.39957e-05
8.08567e-05
2.17925e-05
2.17893e-05
8.09072e-05
2.17985e-05
2.17953e-05
0.000105975
0.000131158
7.80024e-05
4.88701e-05
0.000106006
0.000131178
4.88455e-05
0.000105979
0.00013115
7.80146e-05
4.8859e-05
0.000106009
0.000131167
4.88348e-05
0.000105865
4.88365e-05
0.000131217
7.79122e-05
0.000105962
0.000131121
4.88523e-05
0.000105869
4.88256e-05
0.000131186
7.79233e-05
0.000105964
0.000131103
4.88418e-05
8.0897e-05
2.18245e-05
2.18208e-05
8.12562e-05
2.18128e-05
2.18099e-05
2.39995e-05
2.40054e-05
2.39985e-05
2.40045e-05
2.40161e-05
2.40109e-05
2.4014e-05
2.40089e-05
8.28296e-05
2.18637e-05
2.18601e-05
2.18593e-05
2.18563e-05
8.34385e-05
0.000105997
0.000130454
4.88456e-05
7.78026e-05
0.000105832
4.88764e-05
0.000130458
0.000105999
0.000130435
4.8833e-05
7.77934e-05
0.000105834
4.88635e-05
0.000130436
8.24781e-05
2.18366e-05
2.18336e-05
8.15576e-05
2.18447e-05
2.18412e-05
0.000106453
4.89102e-05
7.80291e-05
0.000130698
4.8871e-05
0.000106584
0.000130675
0.000106453
4.88968e-05
7.80131e-05
0.000130667
4.88579e-05
0.000106584
0.000130648
2.41802e-05
2.40719e-05
2.41778e-05
2.40693e-05
8.36528e-05
2.18758e-05
2.18726e-05
8.35596e-05
2.18874e-05
2.18842e-05
0.000106949
0.000132276
7.77972e-05
4.96249e-05
4.91001e-05
0.000130987
0.000107822
0.000106953
0.000132242
7.77746e-05
4.96131e-05
4.90871e-05
0.000130949
0.000107839
0.000107021
4.89115e-05
0.00013092
7.8192e-05
0.000106872
4.89915e-05
0.000131031
0.000107026
4.88982e-05
0.000130884
7.81685e-05
0.000106873
4.89783e-05
0.000130994
8.39528e-05
2.21487e-05
2.21459e-05
2.19397e-05
2.19368e-05
8.17767e-05
3.68898e-05
9.99295e-05
4.12634e-05
9.47407e-05
4.12542e-05
9.46981e-05
3.69046e-05
2.04505e-05
7.93567e-05
5.09701e-05
2.03956e-05
7.88985e-05
3.68859e-05
9.98206e-05
4.12391e-05
9.44734e-05
4.12417e-05
3.68779e-05
9.44821e-05
2.03958e-05
7.88386e-05
5.09589e-05
7.9458e-05
2.0465e-05
3.69438e-05
4.12873e-05
9.51014e-05
0.000100819
3.69178e-05
4.13102e-05
9.50381e-05
2.04283e-05
5.12645e-05
7.823e-05
2.06407e-05
7.94965e-05
2.04874e-05
7.95123e-05
5.1081e-05
2.04001e-05
7.8649e-05
3.69982e-05
0.000100756
4.16602e-05
9.5315e-05
3.72125e-05
4.13881e-05
9.5538e-05
3.69414e-05
4.12869e-05
9.50952e-05
0.000100817
3.69153e-05
4.13101e-05
9.50295e-05
2.04277e-05
5.12607e-05
7.82202e-05
7.94947e-05
2.06405e-05
2.04863e-05
7.95198e-05
5.10776e-05
2.03989e-05
7.86518e-05
3.69962e-05
0.000100754
4.16596e-05
9.5303e-05
4.13878e-05
9.55287e-05
3.72107e-05
8.30007e-05
2.18644e-05
2.18686e-05
2.18601e-05
2.1865e-05
8.36336e-05
0.000106208
0.000130683
4.88402e-05
7.7869e-05
4.88705e-05
0.000106033
0.000130685
0.000106269
0.000130822
4.88544e-05
7.79819e-05
0.000130834
0.000106084
4.88853e-05
8.26389e-05
2.18371e-05
2.18418e-05
2.18454e-05
8.16953e-05
2.18499e-05
0.000106672
4.89034e-05
7.80908e-05
0.000130904
4.88647e-05
0.000130895
0.000106797
0.000106744
4.89176e-05
7.82016e-05
0.000131065
0.000131051
4.88792e-05
0.000106871
2.40181e-05
2.40127e-05
2.4179e-05
2.40705e-05
8.38699e-05
2.18765e-05
2.18808e-05
8.37673e-05
2.18881e-05
2.18919e-05
0.000107155
0.000132421
7.78448e-05
4.96175e-05
0.000131149
4.90918e-05
0.000108034
0.000107236
0.00013257
7.7955e-05
4.96289e-05
4.91057e-05
0.000131318
0.000108112
0.000107233
4.89042e-05
0.000131108
7.82429e-05
0.000131206
0.000107081
4.89837e-05
0.000107307
4.89188e-05
0.000131275
7.83548e-05
0.000107158
4.89981e-05
0.000131369
8.41805e-05
2.21491e-05
2.21523e-05
2.19399e-05
2.1944e-05
8.20001e-05
2.41806e-05
2.40725e-05
3.68886e-05
9.98741e-05
4.12604e-05
9.46728e-05
4.12516e-05
9.46395e-05
3.69029e-05
2.04499e-05
7.93284e-05
5.09646e-05
2.03945e-05
7.88682e-05
3.68847e-05
9.97841e-05
4.12376e-05
9.44537e-05
4.12397e-05
3.68765e-05
9.44525e-05
2.03955e-05
7.88058e-05
5.09535e-05
7.9426e-05
2.04646e-05
3.69421e-05
9.50483e-05
4.12847e-05
0.000100752
3.69159e-05
9.49879e-05
4.13081e-05
2.0429e-05
5.1258e-05
7.82272e-05
2.06417e-05
7.94849e-05
2.04873e-05
7.94937e-05
5.10745e-05
2.03999e-05
7.86341e-05
3.6997e-05
0.000100696
9.52759e-05
4.16586e-05
3.72123e-05
9.54917e-05
4.13862e-05
3.69397e-05
4.1284e-05
9.50202e-05
0.000100737
3.69132e-05
4.13076e-05
9.49561e-05
2.04276e-05
5.12562e-05
7.82021e-05
7.94709e-05
2.06404e-05
2.0486e-05
7.94884e-05
5.10728e-05
2.03985e-05
7.86225e-05
3.69949e-05
0.000100681
4.16584e-05
9.52342e-05
4.13859e-05
9.54553e-05
3.72099e-05
3.68954e-05
0.000100164
9.49559e-05
4.12643e-05
9.49112e-05
4.12557e-05
3.69098e-05
2.04554e-05
7.94848e-05
5.09756e-05
7.90325e-05
2.04001e-05
3.68916e-05
0.000100049
9.46571e-05
4.12418e-05
9.46765e-05
3.68831e-05
4.12442e-05
2.04008e-05
7.89711e-05
5.0964e-05
7.95934e-05
2.04695e-05
3.68935e-05
0.00010017
4.12645e-05
9.49745e-05
4.12559e-05
9.49272e-05
3.69083e-05
2.04537e-05
7.94831e-05
5.09789e-05
2.03982e-05
7.90378e-05
3.68896e-05
0.000100055
4.12422e-05
9.46641e-05
3.68814e-05
4.12444e-05
9.46868e-05
2.03994e-05
7.89958e-05
5.09678e-05
7.96104e-05
2.04686e-05
3.69468e-05
9.53129e-05
4.12878e-05
0.000101043
3.69206e-05
9.52471e-05
4.13112e-05
2.04309e-05
5.12636e-05
7.83372e-05
7.96161e-05
2.06427e-05
2.04903e-05
7.96506e-05
5.10811e-05
2.04033e-05
7.87791e-05
3.70012e-05
0.000100982
9.55287e-05
4.16615e-05
9.57524e-05
4.13891e-05
3.72159e-05
3.69451e-05
4.12882e-05
9.53323e-05
0.000101051
3.69192e-05
4.13116e-05
9.52659e-05
2.04309e-05
5.12668e-05
7.83656e-05
7.96506e-05
2.06432e-05
2.04897e-05
7.96818e-05
5.10845e-05
2.04025e-05
7.88109e-05
3.70003e-05
0.000100993
4.16616e-05
9.55433e-05
4.13895e-05
9.57685e-05
3.7215e-05
8.26523e-05
2.18605e-05
2.18648e-05
2.18554e-05
2.18598e-05
8.33616e-05
0.000106086
0.000130628
4.88343e-05
7.78193e-05
4.88642e-05
0.000105968
0.000130606
0.000106148
0.000130783
4.88514e-05
7.79472e-05
0.000130771
0.000106024
4.88812e-05
8.22845e-05
2.18301e-05
2.18347e-05
2.18385e-05
8.14735e-05
2.18429e-05
0.000106471
4.88973e-05
7.80157e-05
0.000130789
4.88583e-05
0.000130794
0.000106603
0.000106542
4.89131e-05
7.81404e-05
0.000130963
0.000130966
4.88745e-05
0.000106676
2.40161e-05
2.40111e-05
2.41776e-05
2.40687e-05
8.36803e-05
2.1874e-05
2.18789e-05
8.35289e-05
2.18875e-05
2.18919e-05
0.000107003
0.000132319
7.7744e-05
4.96177e-05
0.000131028
4.90904e-05
0.000107915
0.000107082
0.000132476
7.78614e-05
4.96303e-05
4.91056e-05
0.000131206
0.000107993
0.000107069
4.88994e-05
0.00013099
7.81376e-05
0.000131083
0.000106907
4.89805e-05
0.000107142
4.89151e-05
0.000131168
7.82574e-05
0.000106982
4.89961e-05
0.000131257
8.39855e-05
2.21524e-05
2.21564e-05
2.19418e-05
2.19466e-05
8.18857e-05
2.41803e-05
2.40721e-05
3.68946e-05
0.000100156
9.49187e-05
4.12631e-05
9.48853e-05
4.12547e-05
3.69082e-05
2.04547e-05
7.94733e-05
5.0974e-05
7.90189e-05
2.03994e-05
3.6891e-05
0.000100055
9.46648e-05
4.12419e-05
9.46756e-05
3.68827e-05
4.12439e-05
2.04002e-05
7.89571e-05
5.09628e-05
7.95795e-05
2.04687e-05
3.68928e-05
0.000100167
9.49511e-05
4.12629e-05
9.49123e-05
4.12545e-05
3.69069e-05
2.04538e-05
7.94869e-05
5.09773e-05
2.03981e-05
7.90405e-05
3.68891e-05
0.000100064
9.46775e-05
4.12422e-05
3.68813e-05
9.46931e-05
4.12437e-05
2.03996e-05
7.89947e-05
5.09655e-05
7.96099e-05
2.04689e-05
3.69458e-05
9.52648e-05
4.12863e-05
0.000100991
3.6919e-05
9.5198e-05
4.131e-05
2.04308e-05
5.12639e-05
7.83359e-05
7.96101e-05
2.06431e-05
2.049e-05
7.96379e-05
5.10812e-05
2.04027e-05
7.87678e-05
3.70003e-05
0.000100937
9.54807e-05
4.16608e-05
9.57019e-05
4.13882e-05
3.72156e-05
3.69441e-05
9.53037e-05
4.12863e-05
0.000101011
3.6918e-05
9.52368e-05
4.131e-05
2.04309e-05
5.12647e-05
7.83717e-05
7.96528e-05
2.06433e-05
2.04899e-05
7.96802e-05
5.10826e-05
2.0403e-05
7.88104e-05
3.69987e-05
0.000100957
9.55195e-05
4.16606e-05
9.57403e-05
4.1388e-05
3.72142e-05
2.40196e-05
2.40147e-05
2.40184e-05
2.40131e-05
8.43015e-05
2.18926e-05
2.18899e-05
8.41304e-05
2.19053e-05
2.19023e-05
0.000107755
0.000133167
7.81377e-05
4.96498e-05
0.000108671
0.000131913
4.91243e-05
0.000107759
0.00013314
7.81225e-05
4.96386e-05
0.000108688
0.000131883
4.91124e-05
0.000107815
4.89349e-05
0.000131873
7.85334e-05
0.000107644
0.000131968
4.90155e-05
0.000107818
4.89229e-05
0.000131847
7.8517e-05
0.000107643
0.00013194
4.90035e-05
8.46294e-05
2.21673e-05
2.21651e-05
8.25089e-05
2.19583e-05
2.19557e-05
2.41843e-05
2.40757e-05
2.41831e-05
2.40744e-05
3.41416e-05
3.70349e-05
3.41466e-05
3.70367e-05
8.88717e-05
6.02478e-06
6.02477e-06
1.13451e-05
1.13459e-05
8.83143e-05
0.000113284
0.00013233
5.06517e-05
8.69841e-05
0.000108533
5.33314e-05
0.000135682
0.000113332
0.000132291
5.06436e-05
8.69936e-05
0.00010855
5.33301e-05
0.000135675
0.000145424
0.000194871
0.00017359
0.000173614
0.000146774
0.000173903
0.00017392
8.39462e-05
2.32655e-05
2.32649e-05
8.53003e-05
1.2124e-05
1.21249e-05
0.00011115
2.63712e-05
8.54087e-05
0.000142547
2.43132e-05
0.000109496
0.000138901
0.000111192
2.63726e-05
8.54216e-05
0.000142586
2.43142e-05
0.000109548
0.000138917
5.66134e-06
5.66117e-06
8.77381e-05
0.000176527
0.000176559
0.000141586
1.19635e-05
0.000142405
0.000108842
1.19632e-05
0.000142449
0.000108889
9.66041e-06
0.000105945
1.07742e-05
0.000101777
2.05531e-05
0.000100327
7.97802e-05
9.17494e-05
2.03541e-05
8.2544e-05
1.03098e-05
0.000104748
4.26895e-05
9.62362e-05
4.34315e-05
3.61848e-05
9.79098e-05
9.10685e-05
9.0377e-05
8.55161e-05
0.000182848
0.000150732
0.000146972
0.000187986
0.000143252
0.000187755
0.000183382
0.000212071
0.00021205
0.000204965
0.000214644
0.000214773
0.000207545
0.000211215
0.000174507
0.000127835
0.000111011
0.000165466
0.000131279
0.000161128
0.000174748
0.000228382
0.000228554
0.000229746
0.000228445
0.000229251
0.00022976
0.000227563
0.00018284
0.000150726
0.000146952
0.000187971
0.000143237
0.000187745
0.000183354
0.00021205
0.000211963
0.000204837
0.000214514
0.000211134
0.000207468
0.000214701
0.000174481
0.00012779
0.000111022
0.000165382
0.000131284
0.000174696
0.000161129
0.000228402
0.000228527
0.00022974
0.000228401
0.000229767
0.00022752
0.000229231
0.000142147
0.000191363
0.000188824
0.000205336
0.000214472
0.000210833
0.000126995
0.000164304
0.000180607
0.000226487
0.000226844
0.000224714
0.000142104
0.000191338
0.000188745
0.000205072
0.000214225
0.000210631
0.000126944
0.000164175
0.000180475
0.000226448
0.000226748
0.000224628
8.89993e-05
6.02324e-06
6.02404e-06
1.13439e-05
1.1345e-05
8.83141e-05
0.000113447
0.000132475
5.06509e-05
8.70214e-05
5.33329e-05
0.000108741
0.000135753
0.000113479
0.000132587
5.06533e-05
8.71357e-05
0.000135863
0.000108777
5.33313e-05
0.000145407
0.000194865
0.000173481
0.000173523
0.00017393
0.00017388
0.000146669
8.40627e-05
2.32665e-05
2.3269e-05
1.21235e-05
8.54888e-05
1.21245e-05
0.000111227
2.63678e-05
8.54264e-05
0.000142441
2.43138e-05
0.000138916
0.00010948
0.000111252
2.63673e-05
8.5523e-05
0.000142532
0.000139026
2.43132e-05
0.000109491
3.41564e-05
3.7048e-05
5.65966e-06
5.66069e-06
8.76988e-05
0.00017624
0.000176258
0.000141374
1.19612e-05
0.000142266
0.000108781
1.19608e-05
0.000142347
0.000108786
0.000182798
0.000150708
0.000146983
0.000187954
0.000143249
0.000187705
0.000183357
0.000212046
0.000212044
0.000204962
0.000214632
0.000214755
0.000207536
0.000211199
0.000174484
0.000127856
0.000111004
0.00016548
0.000131259
0.000161119
0.000174737