/*--------------------------------*- C++ -*----------------------------------*\
| =========                 |                                                 |
| \\      /  F ield         | OpenFOAM: The Open Source CFD Toolbox           |
|  \\    /   O peration     | Version:  v2006                                 |
|   \\  /    A nd           | Website:  www.openfoam.com                      |
|    \\/     M anipulation  |                                                 |
\*---------------------------------------------------------------------------*/
FoamFile
{
    version     2.0;
    format      ascii;
    class       volScalarField;
    location    "1000";
    object      p;
}
// * * * * * * * * * * * * * * * * * * * * * * * * * * * * * * * * * * * * * //

dimensions      [0 2 -2 0 0 0 0];


internalField   nonuniform List<scalar> 
14314
(
3.4801e-05
3.42972e-05
3.43042e-05
3.61911e-05
6.04742e-06
7.00956e-06
7.01559e-06
5.30351e-06
4.1117e-05
4.31059e-05
4.31116e-05
4.1123e-05
4.3109e-05
4.31193e-05
4.31162e-05
4.31254e-05
4.11269e-05
4.31261e-05
4.31313e-05
4.11195e-05
3.61971e-05
8.63929e-06
3.42956e-05
3.42968e-05
1.16228e-05
1.16039e-05
3.6199e-05
8.6243e-06
3.42955e-05
3.43021e-05
1.1631e-05
1.1616e-05
3.42921e-05
1.16057e-05
1.15531e-05
3.62016e-05
8.63578e-06
3.42945e-05
1.16195e-05
1.15632e-05
8.59429e-06
5.34981e-06
7.04252e-06
7.02528e-06
5.3295e-06
7.04339e-06
7.0322e-06
6.01023e-06
6.01218e-06
5.93897e-06
6.9764e-06
5.33819e-06
6.97678e-06
5.89621e-05
5.90017e-05
5.88688e-05
5.8975e-05
5.90159e-05
4.3309e-05
4.33222e-05
4.33253e-05
4.33648e-05
5.89423e-05
6.10855e-05
5.90451e-05
6.11358e-05
5.88798e-05
5.89665e-05
6.11199e-05
6.11602e-05
5.90619e-05
5.91099e-05
5.90041e-05
5.90187e-05
2.21698e-05
3.60369e-05
3.61343e-05
2.16033e-05
3.63376e-05
2.10272e-05
2.21601e-05
3.60344e-05
3.61267e-05
2.16045e-05
3.48057e-05
3.48129e-05
3.48282e-05
1.17995e-05
1.17722e-05
1.17948e-05
1.17399e-05
2.26644e-05
3.59376e-05
3.45269e-05
2.57361e-05
3.62214e-05
2.21263e-05
2.60375e-05
3.63442e-05
2.10274e-05
2.26573e-05
3.45361e-05
3.59346e-05
2.57383e-05
3.62178e-05
2.60403e-05
2.21211e-05
3.5772e-05
3.57668e-05
2.35313e-05
2.18503e-05
2.18442e-05
3.22361e-06
4.6537e-06
4.02567e-06
1.21103e-07
2.05777e-06
-3.50789e-06
3.23259e-06
4.64755e-06
4.02201e-06
1.31827e-07
6.39333e-07
7.15238e-06
7.15686e-06
7.34736e-06
7.59163e-06
3.62757e-06
3.6339e-06
1.85284e-06
3.61324e-06
6.44527e-06
1.21912e-06
5.03352e-06
5.62546e-06
-2.11062e-06
2.03747e-06
-3.50761e-06
1.85595e-06
6.44339e-06
3.60819e-06
1.23252e-06
5.03807e-06
-2.10385e-06
5.61379e-06
9.56826e-07
9.58949e-07
7.05397e-07
3.67566e-06
3.68437e-06
5.88774e-05
5.8889e-05
5.90064e-05
5.90635e-05
5.90842e-05
4.04453e-05
5.45671e-05
4.04395e-05
5.45709e-05
5.40306e-05
4.08011e-05
4.07958e-05
5.42982e-05
5.43024e-05
5.89621e-05
5.89908e-05
5.89129e-05
6.10482e-05
5.90392e-05
6.10779e-05
5.89142e-05
6.10636e-05
5.9029e-05
6.10854e-05
5.44108e-05
4.08073e-05
5.43717e-05
4.07557e-05
5.44113e-05
4.08034e-05
5.43629e-05
4.07557e-05
5.42997e-05
5.20547e-05
4.09014e-05
4.31847e-05
5.42647e-05
5.21005e-05
4.08621e-05
5.43027e-05
5.20651e-05
4.09022e-05
4.31868e-05
5.4255e-05
5.21055e-05
4.08627e-05
5.90276e-05
5.9054e-05
5.90437e-05
5.88492e-05
4.04379e-05
5.45596e-05
5.40482e-05
4.07949e-05
4.07825e-05
5.42915e-05
5.4279e-05
4.04198e-05
5.45418e-05
5.89336e-05
6.10568e-05
5.90564e-05
6.10927e-05
5.89793e-05
5.89959e-05
5.89387e-05
6.10955e-05
6.1106e-05
5.90474e-05
5.44196e-05
4.08069e-05
5.4379e-05
4.07513e-05
5.4312e-05
5.20633e-05
4.09017e-05
4.31917e-05
5.42748e-05
5.21137e-05
4.08581e-05
5.44247e-05
4.07976e-05
5.43711e-05
4.07564e-05
5.43168e-05
5.20887e-05
4.31945e-05
4.08979e-05
5.21232e-05
5.42681e-05
4.08605e-05
5.89503e-05
5.89919e-05
5.89484e-05
6.11641e-05
6.11642e-05
5.90123e-05
5.89528e-05
5.89488e-05
5.43113e-05
5.20879e-05
4.08828e-05
4.3211e-05
5.42586e-05
5.21583e-05
4.08355e-05
5.43914e-05
4.07799e-05
5.4352e-05
4.07161e-05
5.43137e-05
5.21343e-05
4.3222e-05
4.08479e-05
5.21818e-05
5.42199e-05
4.08347e-05
5.4389e-05
4.0741e-05
5.43127e-05
4.0711e-05
5.90662e-05
5.90695e-05
5.90584e-05
5.886e-05
4.04488e-05
5.4577e-05
5.40807e-05
4.08078e-05
4.07918e-05
5.43102e-05
5.42956e-05
4.04236e-05
5.45561e-05
5.89684e-05
6.11746e-05
6.1183e-05
5.90261e-05
5.89638e-05
5.90005e-05
5.89587e-05
5.89584e-05
5.4329e-05
5.21148e-05
4.3224e-05
4.08828e-05
5.21804e-05
5.42681e-05
4.0837e-05
5.43284e-05
5.21452e-05
4.32335e-05
4.08501e-05
5.21992e-05
5.42294e-05
4.08335e-05
5.44031e-05
4.07725e-05
5.43578e-05
4.07175e-05
5.43976e-05
4.0743e-05
5.43192e-05
4.07103e-05
5.88103e-05
5.88198e-05
5.4108e-05
4.07373e-05
4.07368e-05
5.42375e-05
5.4243e-05
4.03811e-05
5.45024e-05
4.03814e-05
5.45059e-05
3.63451e-05
2.0997e-05
3.63373e-05
2.10052e-05
3.58368e-05
3.58307e-05
2.35757e-05
2.18861e-05
2.18826e-05
-4.74398e-06
1.69292e-05
-4.73186e-06
1.69244e-05
1.90075e-05
3.45388e-06
3.45058e-06
1.62619e-05
1.62551e-05
2.21701e-05
3.60343e-05
3.61338e-05
2.16241e-05
2.26977e-05
3.59561e-05
3.45222e-05
2.57478e-05
3.62522e-05
2.21386e-05
2.60526e-05
2.26982e-05
3.5958e-05
3.45231e-05
2.574e-05
3.62529e-05
2.21485e-05
2.60452e-05
1.75112e-05
3.42442e-06
1.61306e-05
5.89137e-06
1.75126e-05
3.43833e-06
1.61648e-05
5.89559e-06
1.83359e-05
1.79889e-05
5.37467e-06
1.15464e-05
1.68415e-05
1.83183e-05
7.08634e-06
1.83362e-05
1.79848e-05
5.38276e-06
1.15338e-05
1.68577e-05
1.83199e-05
7.08698e-06
3.58307e-05
3.582e-05
2.35678e-05
2.18982e-05
2.18787e-05
3.63222e-05
2.09968e-05
-4.7453e-06
1.69497e-05
1.89961e-05
3.4536e-06
3.465e-06
1.62696e-05
1.62566e-05
-4.7328e-06
1.69246e-05
2.26871e-05
3.59549e-05
3.45224e-05
2.57502e-05
3.6244e-05
2.21347e-05
2.60528e-05
2.2161e-05
3.60256e-05
3.61298e-05
2.16185e-05
2.26888e-05
3.45298e-05
3.59541e-05
2.57405e-05
3.62475e-05
2.60462e-05
2.2142e-05
1.7502e-05
3.41956e-06
1.61367e-05
5.8815e-06
1.83287e-05
1.79909e-05
5.3706e-06
1.1547e-05
1.68373e-05
1.83159e-05
7.08383e-06
1.75031e-05
3.42397e-06
1.61612e-05
5.88615e-06
1.83302e-05
1.79918e-05
1.15442e-05
5.37773e-06
1.83241e-05
1.68525e-05
7.0848e-06
2.21352e-05
3.60125e-05
3.60947e-05
2.1593e-05
2.26608e-05
3.45318e-05
3.59046e-05
2.56984e-05
3.62199e-05
2.60206e-05
2.21079e-05
2.21293e-05
3.59737e-05
3.60901e-05
2.15897e-05
1.83104e-05
1.79734e-05
5.36941e-06
1.15138e-05
1.68291e-05
1.82874e-05
7.06707e-06
1.74837e-05
3.42218e-06
1.61277e-05
5.87391e-06
1.83056e-05
1.79481e-05
1.14971e-05
5.37391e-06
1.82889e-05
1.68239e-05
7.06509e-06
1.7478e-05
3.43769e-06
1.61384e-05
5.87637e-06
3.58367e-05
3.58226e-05
2.35659e-05
2.18954e-05
2.18752e-05
3.63192e-05
2.10108e-05
-4.76844e-06
1.69423e-05
1.89924e-05
3.43147e-06
3.44105e-06
1.62613e-05
1.62541e-05
-4.76005e-06
1.69424e-05
2.2653e-05
3.45371e-05
3.59069e-05
2.5703e-05
3.62145e-05
2.60265e-05
2.21077e-05
2.21295e-05
3.60009e-05
3.60922e-05
2.15902e-05
2.21235e-05
3.59768e-05
3.60853e-05
2.15895e-05
1.83078e-05
1.79813e-05
1.15253e-05
5.36648e-06
1.8293e-05
1.68284e-05
7.0708e-06
1.83025e-05
1.79514e-05
1.14998e-05
5.37828e-06
1.82898e-05
1.6825e-05
7.0685e-06
1.74821e-05
3.41596e-06
1.61325e-05
5.87624e-06
1.74769e-05
3.448e-06
1.61435e-05
5.87882e-06
3.62839e-05
2.09833e-05
3.62822e-05
2.0979e-05
1.89542e-05
3.44248e-06
3.44368e-06
1.62269e-05
1.62228e-05
-4.74899e-06
1.69078e-05
-4.74697e-06
1.69051e-05
2.06657e-06
-3.50443e-06
2.06021e-06
-3.50213e-06
9.54831e-07
9.56655e-07
7.19023e-07
3.66751e-06
3.66988e-06
2.84982e-07
2.9301e-06
2.93103e-06
3.22404e-06
4.65673e-06
4.02681e-06
1.31881e-07
1.85322e-06
3.61456e-06
6.48647e-06
1.23258e-06
5.04287e-06
5.61456e-06
-2.09284e-06
1.85305e-06
3.6232e-06
6.47628e-06
1.21801e-06
5.04191e-06
5.61823e-06
-2.09316e-06
2.49097e-06
5.92394e-07
2.899e-06
-1.59648e-06
2.48974e-06
5.8796e-07
2.89793e-06
-1.59665e-06
9.54848e-07
9.70736e-07
7.09736e-07
3.673e-06
3.68716e-06
2.07273e-06
-3.47847e-06
2.83341e-07
2.92971e-06
2.94546e-06
1.86616e-06
3.6154e-06
6.49339e-06
1.2326e-06
5.04558e-06
5.61962e-06
-2.09109e-06
3.23251e-06
4.65051e-06
4.02427e-06
1.38749e-07
1.86401e-06
6.47481e-06
3.62237e-06
1.23332e-06
5.04509e-06
-2.08468e-06
5.62494e-06
2.49458e-06
5.92271e-07
2.90093e-06
-1.59714e-06
2.4929e-06
5.92115e-07
-1.59611e-06
2.90331e-06
6.32838e-07
7.13671e-06
7.11229e-06
7.32033e-06
7.57168e-06
3.62628e-06
3.60563e-06
6.36048e-07
7.14277e-06
7.11988e-06
7.35313e-06
7.57591e-06
3.63998e-06
3.62071e-06
6.24943e-07
7.08541e-06
7.0923e-06
7.29783e-06
7.55074e-06
3.6002e-06
3.60903e-06
-1.38804e-07
3.66049e-06
1.76413e-06
1.76692e-06
-1.3894e-07
3.64715e-06
1.76436e-06
1.75288e-06
-1.38014e-07
3.65752e-06
1.76969e-06
1.75863e-06
-1.40223e-07
3.62904e-06
1.74995e-06
1.75286e-06
3.22648e-06
4.65012e-06
4.02147e-06
1.44063e-07
1.85127e-06
6.41644e-06
3.6251e-06
1.20759e-06
5.0311e-06
-2.11458e-06
5.62392e-06
3.22669e-06
4.6693e-06
4.022e-06
1.55282e-07
2.49567e-06
5.86892e-07
2.90785e-06
-1.59798e-06
2.49444e-06
5.85037e-07
-1.60018e-06
2.90584e-06
9.34517e-07
9.4038e-07
7.19147e-07
3.67352e-06
3.66342e-06
2.03336e-06
-3.50891e-06
2.86356e-07
2.93247e-06
2.92691e-06
1.85683e-06
6.42418e-06
3.62925e-06
1.20621e-06
5.03524e-06
-2.11344e-06
5.63023e-06
3.21958e-06
4.64052e-06
4.02406e-06
1.27887e-07
3.21935e-06
4.67543e-06
4.02537e-06
1.63442e-07
2.49527e-06
5.90418e-07
-1.59848e-06
2.89696e-06
2.49438e-06
5.84482e-07
-1.60179e-06
2.90742e-06
2.06129e-06
-3.49094e-06
2.06101e-06
-3.49047e-06
2.87662e-07
2.93993e-06
2.94702e-06
-2.98386e-06
-2.97866e-06
2.63492e-07
1.62736e-06
2.64849e-07
1.62865e-06
-2.98502e-06
-2.958e-06
2.64925e-07
1.63069e-06
2.65439e-07
1.63755e-06
2.70192e-07
1.6383e-06
2.7021e-07
1.6469e-06
-2.98257e-06
-2.98218e-06
2.60305e-07
1.62538e-06
2.60258e-07
1.6467e-06
-2.9645e-06
-2.96351e-06
6.35206e-05
6.34605e-05
5.90188e-05
5.90523e-05
6.35342e-05
6.33939e-05
5.90094e-05
6.36507e-05
5.91026e-05
6.34534e-05
6.34307e-05
5.88858e-05
6.36394e-05
6.35345e-05
6.34789e-05
5.90651e-05
5.90294e-05
6.34127e-05
6.35476e-05
5.90213e-05
6.36593e-05
5.91094e-05
6.34672e-05
6.34392e-05
5.88924e-05
6.36513e-05
6.34564e-05
5.88765e-05
5.88711e-05
6.35084e-05
6.35074e-05
5.89019e-05
6.33262e-05
5.89126e-05
6.33841e-05
5.89289e-05
6.33759e-05
6.34154e-05
5.89328e-05
6.33262e-05
5.88998e-05
6.33899e-05
5.8936e-05
6.3387e-05
6.34152e-05
5.89348e-05
2.64849e-05
2.684e-05
2.18585e-05
2.2168e-05
2.66565e-05
2.65413e-05
2.15425e-05
3.09923e-05
3.58202e-05
3.1472e-05
3.64615e-05
3.1647e-05
3.13658e-05
3.15335e-05
3.60872e-05
3.59816e-05
3.60656e-05
3.14286e-05
3.16579e-05
2.72651e-05
2.20982e-05
2.64448e-05
2.6251e-05
2.10631e-05
3.09721e-05
2.69707e-05
2.64784e-05
2.68295e-05
2.21625e-05
2.18483e-05
2.65351e-05
2.66475e-05
2.154e-05
3.09753e-05
3.58107e-05
3.14693e-05
3.6453e-05
3.1635e-05
3.13598e-05
3.15234e-05
3.59781e-05
3.60818e-05
3.60638e-05
3.16527e-05
3.14214e-05
2.72487e-05
2.20912e-05
2.64429e-05
2.62388e-05
2.10667e-05
3.09765e-05
2.69721e-05
2.64339e-05
2.12308e-05
2.12286e-05
2.64478e-05
2.64478e-05
2.13893e-05
3.16169e-05
3.61202e-05
3.59342e-05
3.14533e-05
3.60027e-05
3.16009e-05
3.13053e-05
3.16157e-05
3.61163e-05
3.59328e-05
3.14365e-05
3.60019e-05
3.1594e-05
3.1303e-05
3.11507e-05
3.59349e-05
3.5934e-05
3.59439e-05
3.10168e-05
3.10149e-05
2.65772e-05
2.15237e-05
2.62361e-05
2.22978e-05
2.6866e-05
2.63893e-05
2.21133e-05
2.65769e-05
2.15268e-05
2.62273e-05
2.22957e-05
2.68612e-05
2.63914e-05
2.21154e-05
1.92485e-05
2.43425e-06
1.83616e-05
4.43581e-06
2.90614e-05
7.89524e-06
4.33926e-07
1.72206e-05
-4.70992e-06
8.45971e-06
2.81845e-05
3.60386e-06
3.2276e-06
2.29716e-06
1.21353e-05
8.87193e-06
3.22654e-06
1.65774e-06
4.59256e-06
8.56517e-06
5.65355e-06
-6.9865e-06
1.92837e-05
2.45092e-06
4.43971e-06
1.84089e-05
7.91386e-06
2.91008e-05
4.3782e-07
1.72369e-05
-4.71202e-06
8.4768e-06
2.8188e-05
3.61009e-06
2.29519e-06
3.20188e-06
1.21203e-05
3.23421e-06
8.86893e-06
1.66186e-06
4.605e-06
8.58327e-06
5.14059e-06
2.85359e-06
2.32195e-06
2.32412e-06
4.00323e-06
4.00627e-06
3.96851e-06
3.2687e-07
7.14658e-06
2.81078e-06
2.8067e-06
3.78432e-06
3.779e-06
-2.24523e-06
2.7227e-06
-1.03064e-06
4.63247e-06
5.2653e-06
5.77612e-06
1.49513e-06
7.08325e-07
2.72666e-06
-1.02608e-06
4.63822e-06
5.27065e-06
5.77833e-06
1.50201e-06
7.14331e-07
3.68704e-06
2.43344e-06
4.96986e-06
1.9927e-06
4.05594e-06
3.35671e-06
1.90089e-06
4.97127e-06
2.28878e-06
4.68268e-06
-2.45479e-06
7.58646e-06
-1.40594e-06
3.26176e-06
3.32178e-06
7.11655e-06
9.14594e-06
3.72717e-06
4.00421e-06
4.40147e-06
6.48157e-07
7.81776e-06
6.47251e-06
4.92168e-07
-4.01156e-07
1.75444e-06
6.86057e-06
7.78166e-06
5.64959e-06
-6.99203e-06
3.70063e-06
2.44092e-06
2.00291e-06
4.96875e-06
3.36934e-06
4.0615e-06
1.90997e-06
4.98463e-06
2.30956e-06
-2.44966e-06
4.69746e-06
-1.39606e-06
7.60989e-06
3.27231e-06
7.8404e-06
6.49289e-06
5.02814e-07
-3.85643e-07
1.77156e-06
6.87706e-06
7.80981e-06
3.32726e-06
7.11376e-06
9.1383e-06
3.72516e-06
4.01275e-06
4.39443e-06
6.49572e-07
-4.87123e-07
1.5069e-05
1.50898e-05
2.25925e-05
2.26274e-05
-1.34628e-06
3.55184e-06
3.39449e-06
3.76646e-06
3.46622e-06
2.65697e-06
3.36125e-06
1.03874e-05
3.55177e-06
3.39527e-06
3.76873e-06
3.47097e-06
2.65341e-06
3.36569e-06
1.03774e-05
2.89083e-06
1.94506e-06
1.08813e-06
1.09388e-06
3.32985e-06
3.33619e-06
4.17962e-06
3.6179e-07
6.82629e-07
6.9327e-07
8.40646e-07
2.90274e-05
2.90209e-05
6.31226e-06
1.11477e-05
5.20611e-06
-2.07922e-06
4.10613e-06
2.22599e-05
1.75447e-06
6.31927e-06
1.119e-05
5.22049e-06
-2.07193e-06
4.11382e-06
2.2277e-05
1.75219e-06
6.36502e-05
6.36558e-05
6.35269e-05
5.89434e-05
5.89352e-05
6.35804e-05
6.35779e-05
5.89625e-05
6.33657e-05
5.89857e-05
6.34378e-05
5.89215e-05
6.34901e-05
5.89861e-05
6.33458e-05
6.33662e-05
5.89643e-05
6.34441e-05
5.89301e-05
6.34895e-05
5.89859e-05
6.33564e-05
4.54905e-05
4.97006e-05
4.54886e-05
4.97006e-05
4.98288e-05
5.44496e-05
5.44483e-05
5.44069e-05
4.97786e-05
4.97774e-05
4.52261e-05
4.08346e-05
4.51202e-05
4.07182e-05
4.52434e-05
4.52966e-05
4.08804e-05
4.52278e-05
4.08334e-05
4.51186e-05
4.07173e-05
4.5243e-05
4.52962e-05
4.0881e-05
4.99462e-05
5.43746e-05
5.43404e-05
4.99549e-05
5.42991e-05
4.98762e-05
4.99081e-05
4.99482e-05
5.43741e-05
5.43401e-05
4.99539e-05
5.43062e-05
4.98774e-05
4.99106e-05
4.52686e-05
4.05218e-05
4.05183e-05
4.52856e-05
4.52844e-05
4.06224e-05
6.35146e-05
6.34612e-05
5.9019e-05
5.9046e-05
6.35344e-05
6.33864e-05
5.90047e-05
6.36473e-05
5.91006e-05
6.34412e-05
6.34265e-05
5.88835e-05
4.99028e-05
5.44436e-05
5.43211e-05
4.98908e-05
5.44329e-05
4.99055e-05
4.99995e-05
4.55503e-05
4.52623e-05
4.08841e-05
4.04468e-05
4.51139e-05
4.97107e-05
5.42975e-05
4.99337e-05
5.46062e-05
5.00085e-05
4.53112e-05
4.53111e-05
4.07328e-05
4.08922e-05
4.0737e-05
4.53082e-05
4.52008e-05
4.98999e-05
5.44439e-05
5.43167e-05
4.98913e-05
5.44289e-05
4.99057e-05
4.99951e-05
4.55518e-05
4.52594e-05
4.08833e-05
4.51126e-05
4.04499e-05
4.97105e-05
5.4298e-05
4.99285e-05
5.46062e-05
5.00109e-05
4.531e-05
4.53115e-05
4.07344e-05
4.08913e-05
4.53089e-05
4.51995e-05
4.07385e-05
6.35105e-05
5.8934e-05
5.89264e-05
6.35629e-05
6.35598e-05
5.89531e-05
6.33555e-05
5.89738e-05
6.34278e-05
5.89166e-05
6.34708e-05
6.33448e-05
5.8982e-05
6.33545e-05
5.89706e-05
6.34173e-05
5.89323e-05
6.33647e-05
6.34733e-05
5.89835e-05
6.36204e-05
4.54864e-05
4.96966e-05
4.9824e-05
5.44438e-05
5.44384e-05
5.44045e-05
4.97707e-05
4.97655e-05
4.52275e-05
4.08354e-05
4.51128e-05
4.0719e-05
4.52966e-05
4.5243e-05
4.08823e-05
4.52219e-05
4.08243e-05
4.51015e-05
4.07031e-05
4.52287e-05
4.52871e-05
4.08786e-05
4.99435e-05
5.43648e-05
5.43378e-05
4.99482e-05
4.99076e-05
5.42889e-05
4.98751e-05
4.99382e-05
5.43618e-05
5.43378e-05
4.99337e-05
5.4299e-05
4.98657e-05
4.99059e-05
4.52592e-05
4.05161e-05
4.05042e-05
4.52776e-05
4.52681e-05
4.06152e-05
4.54662e-05
4.96747e-05
6.35303e-05
6.34833e-05
5.9035e-05
5.90635e-05
6.35524e-05
6.34065e-05
5.90186e-05
6.36664e-05
5.91249e-05
6.34548e-05
6.34467e-05
5.89027e-05
4.9911e-05
5.43316e-05
5.44518e-05
4.9896e-05
5.44442e-05
5.00089e-05
4.99111e-05
4.55507e-05
4.52642e-05
4.08789e-05
4.04418e-05
4.51138e-05
4.97129e-05
5.4302e-05
4.99371e-05
5.46115e-05
5.00122e-05
4.53162e-05
4.53117e-05
4.08924e-05
4.07294e-05
4.07375e-05
4.52051e-05
4.53086e-05
4.99041e-05
5.44578e-05
5.43276e-05
4.99004e-05
5.44384e-05
4.99154e-05
4.99997e-05
4.55601e-05
4.52575e-05
4.08924e-05
4.51251e-05
4.045e-05
4.97229e-05
5.43139e-05
4.99319e-05
5.46213e-05
5.00238e-05
4.53072e-05
4.53175e-05
4.07348e-05
4.08857e-05
4.53146e-05
4.51987e-05
4.07302e-05
6.35088e-05
6.34618e-05
5.90442e-05
5.89927e-05
6.34001e-05
6.35134e-05
5.89864e-05
6.36268e-05
5.9078e-05
6.34434e-05
6.34114e-05
5.8856e-05
6.34903e-05
6.34625e-05
5.89915e-05
5.90233e-05
6.35148e-05
6.33773e-05
5.89699e-05
6.36146e-05
5.90564e-05
6.34071e-05
6.33938e-05
5.88402e-05
4.9872e-05
5.43033e-05
5.44107e-05
4.98636e-05
5.44042e-05
4.9976e-05
4.98676e-05
4.55149e-05
4.52373e-05
4.08515e-05
4.50854e-05
4.04083e-05
4.9677e-05
5.42709e-05
4.99125e-05
5.45735e-05
4.99812e-05
4.52749e-05
4.52766e-05
4.08575e-05
4.06898e-05
4.51698e-05
4.52674e-05
4.06991e-05
4.98555e-05
5.44082e-05
5.42856e-05
4.98608e-05
5.43891e-05
4.98653e-05
4.99538e-05
4.55034e-05
4.51995e-05
4.08324e-05
4.50643e-05
4.03965e-05
4.96606e-05
5.42509e-05
4.98754e-05
5.45576e-05
4.99614e-05
4.52658e-05
4.52732e-05
4.06885e-05
4.08426e-05
4.52644e-05
4.51514e-05
4.0691e-05
6.35207e-05
5.8948e-05
5.8942e-05
6.35785e-05
6.35743e-05
5.89652e-05
6.3371e-05
5.89839e-05
6.34426e-05
5.89424e-05
6.34826e-05
6.33748e-05
5.89891e-05
6.33739e-05
5.89807e-05
6.3431e-05
5.89548e-05
6.3392e-05
6.34832e-05
5.89914e-05
6.36303e-05
4.5498e-05
4.97137e-05
4.98395e-05
5.44595e-05
5.44547e-05
5.44174e-05
4.97913e-05
4.97854e-05
4.52142e-05
4.08329e-05
4.51289e-05
4.07123e-05
4.52982e-05
4.52406e-05
4.08649e-05
4.52091e-05
4.08204e-05
4.51158e-05
4.07035e-05
4.523e-05
4.5289e-05
4.08617e-05
4.99413e-05
5.43727e-05
5.43551e-05
4.99746e-05
4.99176e-05
5.42958e-05
4.98662e-05
4.99384e-05
5.43699e-05
5.43527e-05
4.99522e-05
5.43018e-05
4.98707e-05
4.99132e-05
4.52768e-05
4.0538e-05
4.05335e-05
4.53022e-05
4.52956e-05
4.06319e-05
4.54752e-05
4.96876e-05
6.35144e-05
6.34773e-05
5.90548e-05
5.90004e-05
6.34119e-05
6.352e-05
5.89922e-05
6.36373e-05
5.9088e-05
6.34553e-05
6.34236e-05
5.88637e-05
6.3489e-05
6.34739e-05
5.90304e-05
5.89918e-05
6.33866e-05
6.35147e-05
5.89691e-05
6.3619e-05
5.90606e-05
6.34178e-05
6.34004e-05
5.88435e-05
4.9874e-05
5.43127e-05
5.44186e-05
4.98734e-05
5.44107e-05
4.99804e-05
4.98757e-05
4.55243e-05
4.52352e-05
4.08619e-05
4.50978e-05
4.04144e-05
4.96853e-05
5.4284e-05
4.99147e-05
5.45833e-05
4.99932e-05
4.52741e-05
4.52832e-05
4.08535e-05
4.06916e-05
4.51701e-05
4.52735e-05
4.06956e-05
4.98653e-05
5.42943e-05
5.44147e-05
4.9869e-05
5.43964e-05
4.99615e-05
4.9875e-05
4.54978e-05
4.5203e-05
4.0829e-05
4.50626e-05
4.03883e-05
4.96601e-05
5.42556e-05
4.98829e-05
5.45604e-05
4.99624e-05
4.52727e-05
4.52779e-05
4.0844e-05
4.06923e-05
4.51563e-05
4.52715e-05
4.06944e-05
6.35817e-05
6.35863e-05
4.97831e-05
5.43888e-05
5.43872e-05
5.43579e-05
4.97247e-05
4.97192e-05
4.51712e-05
4.07931e-05
4.50541e-05
4.06546e-05
4.08297e-05
4.52529e-05
4.51797e-05
4.51728e-05
4.07917e-05
4.50554e-05
4.06528e-05
4.08304e-05
4.52535e-05
4.51813e-05
4.98887e-05
5.43057e-05
5.4318e-05
4.98916e-05
5.4239e-05
4.9873e-05
4.98129e-05
4.98911e-05
5.43046e-05
5.43203e-05
4.98945e-05
5.42448e-05
4.98777e-05
4.98171e-05
4.52163e-05
4.04527e-05
4.04514e-05
4.0568e-05
4.52228e-05
4.52215e-05
4.54253e-05
4.96311e-05
4.54271e-05
4.96297e-05
3.09802e-05
2.69589e-05
3.09722e-05
2.69697e-05
2.64915e-05
2.12903e-05
2.12915e-05
2.65087e-05
2.65093e-05
2.14404e-05
3.16497e-05
3.61575e-05
3.59948e-05
3.1504e-05
3.60472e-05
3.13515e-05
3.16345e-05
3.16515e-05
3.61532e-05
3.59938e-05
3.14976e-05
3.60477e-05
3.13547e-05
3.16294e-05
3.12166e-05
3.60092e-05
3.60066e-05
3.60052e-05
3.10783e-05
3.10818e-05
2.66033e-05
2.15541e-05
2.62848e-05
2.23329e-05
2.64279e-05
2.21322e-05
2.69006e-05
2.66042e-05
2.15591e-05
2.62807e-05
2.23325e-05
2.64359e-05
2.2133e-05
2.68959e-05
4.80067e-06
9.54554e-06
4.77287e-06
9.53318e-06
1.11247e-05
1.63898e-05
1.63834e-05
1.64846e-05
1.04488e-05
1.04449e-05
7.8298e-06
5.996e-06
6.21141e-06
3.64403e-06
6.5248e-06
9.06148e-06
5.10221e-06
7.82679e-06
5.99412e-06
6.20041e-06
3.6431e-06
6.52494e-06
9.05677e-06
5.10152e-06
1.26275e-05
1.63338e-05
1.75603e-05
1.18911e-05
1.68855e-05
1.13547e-05
1.326e-05
1.26273e-05
1.63338e-05
1.75587e-05
1.18806e-05
1.68851e-05
1.13523e-05
1.32585e-05
6.4337e-06
-1.06682e-06
-1.07268e-06
4.90811e-06
4.90473e-06
2.24058e-06
2.6481e-05
2.68403e-05
2.18547e-05
2.21737e-05
2.66597e-05
2.65418e-05
2.15576e-05
3.09887e-05
3.58171e-05
3.14724e-05
3.64676e-05
3.16446e-05
3.13704e-05
3.15337e-05
3.6083e-05
3.59821e-05
3.14284e-05
3.6076e-05
3.16573e-05
2.72379e-05
2.2103e-05
2.64496e-05
2.62465e-05
2.10791e-05
1.15666e-05
1.70011e-05
1.6922e-05
1.30966e-05
1.6425e-05
1.22696e-05
1.28989e-05
5.66623e-06
5.84387e-06
3.04002e-06
-8.36609e-06
5.29517e-06
9.67869e-06
1.60734e-05
1.10709e-05
1.76979e-05
1.19411e-05
7.45369e-06
9.09179e-06
4.40089e-06
5.43506e-06
6.52825e-06
7.76904e-06
8.15518e-06
1.158e-05
1.69969e-05
1.69316e-05
1.30999e-05
1.64481e-05
1.22772e-05
1.29065e-05
5.67479e-06
5.86143e-06
3.05363e-06
5.3047e-06
-8.30271e-06
9.69077e-06
1.60817e-05
1.11056e-05
1.77292e-05
1.19499e-05
7.46841e-06
9.09851e-06
4.41262e-06
5.44356e-06
7.78522e-06
8.16455e-06
6.54701e-06
2.64893e-05
2.12979e-05
2.12762e-05
2.65086e-05
2.65109e-05
2.14379e-05
3.16513e-05
3.61585e-05
3.59948e-05
3.15011e-05
3.13548e-05
3.60494e-05
3.16336e-05
3.16501e-05
3.61452e-05
3.59812e-05
3.14919e-05
3.1622e-05
3.60439e-05
3.13443e-05
3.12128e-05
3.60085e-05
3.59915e-05
3.10771e-05
3.60002e-05
3.1076e-05
2.66073e-05
2.15701e-05
2.6289e-05
2.23338e-05
2.64368e-05
2.68997e-05
2.21405e-05
2.66037e-05
2.15488e-05
2.6272e-05
2.23287e-05
2.68923e-05
2.64318e-05
2.21356e-05
3.09586e-05
2.69588e-05
4.80252e-06
9.56026e-06
1.11324e-05
1.63875e-05
1.63875e-05
1.64859e-05
1.04605e-05
1.04553e-05
7.84246e-06
5.99734e-06
6.21687e-06
3.66269e-06
9.07028e-06
6.54801e-06
5.10887e-06
7.83475e-06
5.99477e-06
6.21182e-06
3.65141e-06
6.53745e-06
9.05894e-06
5.10676e-06
1.26426e-05
1.63514e-05
1.75653e-05
1.18971e-05
1.32668e-05
1.68953e-05
1.1378e-05
1.26335e-05
1.63308e-05
1.75545e-05
1.18881e-05
1.68852e-05
1.13557e-05
1.32584e-05
6.44737e-06
-1.04323e-06
-1.0436e-06
4.92712e-06
4.92597e-06
2.24912e-06
4.78349e-06
9.54852e-06
2.65014e-05
2.68303e-05
2.18444e-05
2.21664e-05
2.66412e-05
2.65395e-05
2.15642e-05
3.0984e-05
3.58229e-05
3.14619e-05
3.64613e-05
3.16494e-05
3.1366e-05
3.15264e-05
3.60826e-05
3.59756e-05
3.14234e-05
3.60639e-05
3.16521e-05
2.72619e-05
2.21037e-05
2.64428e-05
2.62503e-05
2.10969e-05
1.15448e-05
1.69161e-05
1.69876e-05
1.30866e-05
1.64148e-05
1.28929e-05
1.22537e-05
5.61383e-06
5.82957e-06
3.02871e-06
-8.37557e-06
5.27175e-06
9.63496e-06
1.60646e-05
1.10697e-05
1.77002e-05
1.19252e-05
7.43998e-06
9.08246e-06
5.43248e-06
4.3818e-06
6.51518e-06
8.14864e-06
7.75355e-06
1.15542e-05
1.69815e-05
1.69211e-05
1.30876e-05
1.64376e-05
1.22564e-05
1.2892e-05
5.6657e-06
5.85201e-06
3.03566e-06
5.28496e-06
-8.34681e-06
9.66011e-06
1.60696e-05
1.11004e-05
1.77049e-05
1.19286e-05
7.44321e-06
9.08736e-06
4.3974e-06
5.43685e-06
7.76324e-06
8.15164e-06
6.52704e-06
2.64476e-05
2.67995e-05
2.21426e-05
2.18209e-05
2.65103e-05
2.66124e-05
2.15107e-05
3.09502e-05
3.57865e-05
3.14494e-05
3.16158e-05
3.64218e-05
3.13298e-05
3.1494e-05
3.59476e-05
3.60442e-05
3.16234e-05
3.60277e-05
3.13806e-05
2.72218e-05
2.208e-05
2.64269e-05
2.62226e-05
2.10462e-05
2.64565e-05
2.6793e-05
2.18059e-05
2.21375e-05
2.66049e-05
2.65017e-05
2.15261e-05
3.09147e-05
3.57613e-05
3.14177e-05
3.63917e-05
3.15898e-05
3.13201e-05
3.149e-05
3.60388e-05
3.5932e-05
3.6022e-05
3.13803e-05
3.1612e-05
2.72164e-05
2.20613e-05
2.64128e-05
2.61977e-05
2.10431e-05
1.15415e-05
1.69034e-05
1.69732e-05
1.30741e-05
1.63982e-05
1.28867e-05
1.22386e-05
5.62252e-06
5.83554e-06
3.02921e-06
5.27628e-06
-8.38636e-06
9.65601e-06
1.60641e-05
1.10662e-05
1.77066e-05
1.19329e-05
7.43985e-06
9.07345e-06
5.42668e-06
4.37198e-06
8.1448e-06
7.74209e-06
6.50628e-06
1.15503e-05
1.69503e-05
1.69004e-05
1.30708e-05
1.6421e-05
1.22414e-05
1.28777e-05
5.62834e-06
5.84948e-06
3.02927e-06
5.26524e-06
-8.34906e-06
9.64655e-06
1.60351e-05
1.10866e-05
1.7682e-05
1.19064e-05
7.43476e-06
9.07644e-06
4.38732e-06
5.4316e-06
7.75222e-06
8.14245e-06
6.52413e-06
2.6497e-05
2.12948e-05
2.12695e-05
2.65216e-05
2.65106e-05
2.14382e-05
3.16448e-05
3.61519e-05
3.5991e-05
3.15037e-05
3.13552e-05
3.60374e-05
3.16271e-05
3.16412e-05
3.61358e-05
3.59809e-05
3.14911e-05
3.16127e-05
3.60305e-05
3.13435e-05
3.12239e-05
3.60177e-05
3.60109e-05
3.10878e-05
3.60144e-05
3.10841e-05
2.66101e-05
2.15707e-05
2.62892e-05
2.23297e-05
2.64427e-05
2.68947e-05
2.21456e-05
2.66043e-05
2.15489e-05
2.62672e-05
2.2324e-05
2.68848e-05
2.64295e-05
2.21414e-05
3.09462e-05
2.69415e-05
4.80209e-06
9.55258e-06
1.11208e-05
1.63709e-05
1.63683e-05
1.64773e-05
1.04392e-05
1.04437e-05
7.84017e-06
6.00193e-06
6.20203e-06
3.6492e-06
9.06988e-06
6.53713e-06
5.11052e-06
7.83468e-06
5.99872e-06
6.20092e-06
3.63215e-06
6.53294e-06
9.06193e-06
5.10756e-06
1.26398e-05
1.63461e-05
1.75612e-05
1.18814e-05
1.32626e-05
1.68962e-05
1.13687e-05
1.2634e-05
1.6332e-05
1.75538e-05
1.18807e-05
1.68888e-05
1.13587e-05
1.32589e-05
6.43213e-06
-1.10474e-06
-1.10187e-06
4.90222e-06
4.90518e-06
2.21784e-06
4.7833e-06
9.56341e-06
2.64463e-05
2.67943e-05
2.21351e-05
2.18165e-05
2.65034e-05
2.66104e-05
2.15097e-05
3.09566e-05
3.57932e-05
3.14354e-05
3.16187e-05
3.64298e-05
3.13321e-05
3.14893e-05
3.59421e-05
3.60422e-05
3.16174e-05
3.60258e-05
3.13754e-05
2.72263e-05
2.20751e-05
2.6414e-05
2.62197e-05
2.1046e-05
2.64546e-05
2.67855e-05
2.21367e-05
2.18001e-05
2.65005e-05
2.65951e-05
2.15302e-05
3.09223e-05
3.57583e-05
3.1422e-05
3.63998e-05
3.15875e-05
3.13216e-05
3.14823e-05
3.59325e-05
3.60387e-05
3.60294e-05
3.16105e-05
3.13739e-05
2.71994e-05
2.20559e-05
2.64109e-05
2.61908e-05
2.10405e-05
1.15449e-05
1.68979e-05
1.697e-05
1.30746e-05
1.63923e-05
1.28828e-05
1.22448e-05
5.64298e-06
5.83966e-06
3.02219e-06
5.2768e-06
-8.39767e-06
9.66349e-06
1.6054e-05
1.10753e-05
1.76674e-05
1.19244e-05
7.44084e-06
9.078e-06
5.42808e-06
4.37764e-06
8.14682e-06
7.7499e-06
6.50204e-06
1.15632e-05
1.69051e-05
1.69524e-05
1.30736e-05
1.64314e-05
1.28821e-05
1.22493e-05
5.63009e-06
5.85987e-06
3.02395e-06
5.26573e-06
-8.37576e-06
9.65792e-06
1.6033e-05
1.10959e-05
1.76873e-05
1.19066e-05
7.44394e-06
9.08113e-06
5.43642e-06
4.3882e-06
8.14903e-06
7.75549e-06
6.5173e-06
3.09208e-05
2.69232e-05
3.09136e-05
2.69185e-05
1.10993e-05
1.63327e-05
1.63324e-05
1.64402e-05
1.04312e-05
1.04302e-05
7.83047e-06
5.99198e-06
6.19783e-06
3.656e-06
5.10609e-06
9.05397e-06
6.53791e-06
7.8299e-06
5.99298e-06
6.19387e-06
3.65999e-06
5.10824e-06
9.05291e-06
6.54313e-06
1.26184e-05
1.63115e-05
1.75289e-05
1.186e-05
1.68631e-05
1.32365e-05
1.13502e-05
1.26203e-05
1.6318e-05
1.75283e-05
1.18564e-05
1.6865e-05
1.32371e-05
1.13557e-05
6.42849e-06
-1.07177e-06
-1.06866e-06
2.22451e-06
4.91695e-06
4.91288e-06
4.7903e-06
9.52944e-06
4.78988e-06
9.52951e-06
5.64552e-06
-7.013e-06
5.66659e-06
-6.98281e-06
-4.37166e-07
1.50396e-05
1.5036e-05
2.257e-05
2.2588e-05
-1.30411e-06
3.55061e-06
3.39656e-06
3.76708e-06
3.43552e-06
2.65197e-06
1.0365e-05
3.36345e-06
3.55128e-06
3.39572e-06
3.76426e-06
3.44087e-06
2.6478e-06
1.0361e-05
3.36753e-06
2.89011e-06
1.96306e-06
1.09623e-06
1.09944e-06
4.19064e-06
3.33864e-06
3.34409e-06
4.05999e-07
7.41231e-07
7.33355e-07
8.57118e-07
2.89396e-05
2.8984e-05
6.30062e-06
1.11097e-05
5.14018e-06
-2.10766e-06
2.22678e-05
1.77115e-06
4.11511e-06
6.30376e-06
1.11145e-05
5.154e-06
-2.10285e-06
2.22647e-05
1.76137e-06
4.121e-06
1.26563e-05
1.26343e-05
-5.27826e-06
9.84096e-07
9.86003e-07
8.9573e-06
8.15704e-06
-5.1894e-06
1.71749e-07
8.15419e-06
-5.18655e-06
1.61055e-07
1.92477e-05
2.43265e-06
1.83432e-05
4.42563e-06
2.90656e-05
7.89729e-06
4.46492e-07
1.72318e-05
-4.68084e-06
8.46112e-06
2.81612e-05
3.59789e-06
3.2347e-06
2.31087e-06
8.87139e-06
1.2154e-05
3.23845e-06
1.65407e-06
4.59136e-06
8.56641e-06
3.69417e-06
2.43292e-06
4.96994e-06
1.99229e-06
4.05983e-06
3.36437e-06
1.90197e-06
4.99013e-06
2.31094e-06
4.70372e-06
-2.44959e-06
-1.38487e-06
7.61187e-06
3.2732e-06
3.32401e-06
7.1144e-06
9.12635e-06
3.7282e-06
4.39029e-06
4.01328e-06
6.46088e-07
7.83592e-06
6.48915e-06
5.2734e-07
-3.83935e-07
1.78407e-06
6.87857e-06
7.80206e-06
3.69011e-06
2.43165e-06
4.96361e-06
1.98982e-06
4.05525e-06
3.362e-06
1.8968e-06
4.97743e-06
2.29584e-06
4.68621e-06
-2.45476e-06
3.26212e-06
7.59399e-06
-1.39126e-06
3.31832e-06
7.11405e-06
9.13238e-06
3.72157e-06
4.38823e-06
6.41064e-07
4.009e-06
7.8228e-06
6.48488e-06
5.27205e-07
-4.00765e-07
6.87482e-06
7.78394e-06
1.77138e-06
7.79152e-06
9.56211e-07
8.73282e-07
2.62881e-06
-1.43032e-06
1.88236e-06
4.39689e-06
-2.40638e-07
7.54113e-07
3.00789e-06
-6.45116e-07
3.84787e-06
7.78453e-06
9.54549e-07
8.72699e-07
2.62343e-06
-1.43315e-06
1.87594e-06
4.40277e-06
-2.36411e-07
7.52348e-07
3.00533e-06
-6.49761e-07
3.84255e-06
-4.56886e-07
1.50635e-05
1.50412e-05
2.25718e-05
2.25966e-05
-1.36829e-06
3.54671e-06
3.39605e-06
3.77661e-06
3.44346e-06
1.03657e-05
2.65221e-06
3.35898e-06
3.54934e-06
3.38888e-06
3.77314e-06
3.46089e-06
3.3571e-06
2.64985e-06
1.03795e-05
2.88073e-06
1.94792e-06
1.08972e-06
1.09418e-06
3.33218e-06
3.32696e-06
4.17848e-06
4.04216e-07
7.39977e-07
7.43001e-07
2.90016e-05
8.699e-07
2.89817e-05
6.29298e-06
1.11472e-05
5.16107e-06
-2.09293e-06
2.2255e-05
4.11095e-06
1.74557e-06
6.29239e-06
1.121e-05
5.17201e-06
-2.09454e-06
4.11226e-06
2.227e-05
1.76019e-06
5.71369e-06
-6.95231e-06
1.26639e-05
1.26087e-05
-5.30684e-06
9.84149e-07
9.87032e-07
8.92532e-06
8.17195e-06
-5.16994e-06
1.47305e-07
8.15916e-06
-5.17317e-06
1.58354e-07
3.70318e-06
2.44653e-06
4.98137e-06
2.0059e-06
4.07065e-06
3.37684e-06
1.91068e-06
4.99608e-06
2.31091e-06
4.71133e-06
-2.44998e-06
-1.38613e-06
7.61885e-06
3.2823e-06
3.33043e-06
7.12779e-06
9.13674e-06