/*--------------------------------*- C++ -*----------------------------------*\
| =========                 |                                                 |
| \\      /  F ield         | OpenFOAM: The Open Source CFD Toolbox           |
|  \\    /   O peration     | Version:  v2006                                 |
|   \\  /    A nd           | Website:  www.openfoam.com                      |
|    \\/     M anipulation  |                                                 |
\*---------------------------------------------------------------------------*/
FoamFile
{
    version     2.0;
    format      ascii;
    class       surfaceScalarField;
    location    "1000";
    object      phi;
}
// * * * * * * * * * * * * * * * * * * * * * * * * * * * * * * * * * * * * * //

dimensions      [0 3 -1 0 0 0 0];
oriented        oriented;


internalField   nonuniform List<scalar> 
41864
(
9.70414e-07
9.57079e-07
-0.00117777
-8.46302e-07
-8.46546e-07
0.00117753
-0.00113202
-1.10195e-06
-9.41779e-07
-4.31451e-07
0.0011325
-1.2959e-07
1.36669e-06
3.02807e-07
9.9955e-07
-8.99097e-08
-7.3682e-07
2.8909e-07
-0.00113196
-1.09681e-06
-9.47589e-07
-4.2575e-07
0.00113242
-1.32853e-07
1.36603e-06
3.07266e-07
9.98566e-07
-8.80014e-08
-7.33012e-07
2.91115e-07
-0.000270529
1.14429e-06
1.10163e-06
-1.10728e-07
-1.20218e-07
0.000268514
5.44053e-06
5.42942e-06
-0.00116462
-1.16208e-05
-1.15895e-05
0.000283706
0.000285577
0.000285465
0.000285465
4.48186e-06
6.74634e-06
7.15358e-06
4.47607e-06
6.73983e-06
7.15246e-06
-0.000280702
5.3999e-06
-5.44411e-06
5.93651e-06
-3.41489e-06
0.000278224
-0.000280695
-5.43981e-06
5.39648e-06
-3.41366e-06
5.9329e-06
0.00027822
-0.000271539
-5.41257e-06
-5.43061e-06
5.76035e-06
5.74831e-06
0.000270873
-1.29518e-06
-1.25816e-06
0.000270615
-0.000268532
2.33497e-07
2.37239e-07
0.00113144
-4.24694e-07
-0.00113124
-1.62922e-07
-1.19954e-06
2.43914e-07
-1.82656e-07
-7.81637e-07
2.24903e-07
-1.26269e-07
9.07111e-07
1.28743e-06
0.00113155
-4.50861e-07
-0.00113133
-1.40034e-07
-1.20262e-06
2.42843e-07
-1.90001e-07
-7.84725e-07
2.28944e-07
-1.26931e-07
9.14039e-07
-1.26471e-06
0.000270596
-0.000268517
2.38376e-07
2.34337e-07
0.00113247
-4.14205e-07
-0.00113225
-1.89424e-07
-1.15086e-06
2.43247e-07
-1.74283e-07
-7.84847e-07
2.2243e-07
-1.29575e-07
9.0447e-07
1.28539e-06
0.00113149
-4.47707e-07
-0.00113127
-1.33926e-07
-1.19957e-06
2.41023e-07
-1.89041e-07
-7.82369e-07
2.27042e-07
-1.26486e-07
9.11471e-07
-3.7908e-07
-0.00113182
-2.08587e-07
-1.1483e-06
2.45966e-07
-1.70074e-07
-7.88659e-07
2.22848e-07
9.01055e-07
-1.37785e-07
1.27894e-06
0.00113102
-3.87493e-07
-0.00113086
-1.04247e-07
-1.19875e-06
2.34471e-07
-1.85616e-07
-7.82111e-07
2.19717e-07
-1.30946e-07
8.9519e-07
-1.2622e-06
0.000270587
-0.000268514
2.39261e-07
2.35896e-07
-3.73686e-07
-0.00113178
-2.08248e-07
-1.14538e-06
2.46262e-07
-1.66788e-07
-7.83489e-07
2.24127e-07
8.98719e-07
-1.34178e-07
1.24415e-06
0.00113201
-3.58021e-07
-0.00113187
-1.31018e-07
-1.14757e-06
2.35826e-07
-1.75082e-07
-7.87924e-07
2.20489e-07
-1.39211e-07
8.98127e-07
-0.000268462
2.26093e-07
2.3056e-07
1.14714e-06
1.1011e-06
-1.08912e-07
-1.19181e-07
0.000268595
-5.4367e-06
-5.48155e-06
0.000271577
-0.000269583
4.46542e-06
4.45968e-06
-4.04862e-07
0.00113192
-1.41308e-07
1.40028e-06
3.09426e-07
1.00427e-06
-8.79045e-08
-7.3385e-07
2.92856e-07
-1.14692e-06
-9.83358e-07
-3.95538e-07
0.00113203
-1.42617e-07
1.40169e-06
3.12085e-07
1.00412e-06
-8.78632e-08
-7.35787e-07
2.92225e-07
0.00028067
-1.4282e-05
-0.00113281
-6.76122e-06
1.38112e-06
4.18401e-06
2.0328e-06
2.22538e-06
6.08632e-06
2.86059e-06
6.58149e-06
0.000281281
0.000279416
0.000281695
5.45799e-06
0.000280676
-1.4231e-05
-0.00113293
-6.87615e-06
1.39748e-06
4.21684e-06
2.05539e-06
2.22795e-06
6.10515e-06
2.86701e-06
6.5856e-06
0.00028133
0.000279419
0.000281695
-1.13728e-07
-1.20089e-07
0.000268581
-5.45451e-06
0.000271566
-0.000269576
4.45786e-06
4.46514e-06
-4.10632e-07
0.00113292
-1.29984e-07
1.36621e-06
3.09171e-07
1.00058e-06
-8.93261e-08
-7.35111e-07
2.9192e-07
-1.14118e-06
-9.88677e-07
-3.96858e-07
0.00113196
-1.36817e-07
1.39649e-06
3.09035e-07
1.0053e-06
-8.37312e-08
-7.3249e-07
2.93704e-07
0.000280735
-1.41278e-05
-0.00113364
-6.54343e-06
1.45137e-06
4.21181e-06
2.05717e-06
2.23331e-06
6.10173e-06
2.86811e-06
6.59193e-06
0.000281375
0.000279467
0.000281741
5.45667e-06
0.000280672
-1.42346e-05
-0.00113289
-6.88556e-06
1.39405e-06
4.21308e-06
2.0519e-06
2.23041e-06
6.10631e-06
2.869e-06
6.58475e-06
0.00027941
0.000281327
0.000281692
-9.30332e-07
-3.85309e-07
0.00113147
-1.40753e-07
1.39195e-06
3.01872e-07
9.93441e-07
-9.2353e-08
2.8796e-07
-7.33669e-07
-1.41771e-05
-0.00113328
-6.54713e-06
1.43354e-06
4.18072e-06
2.03785e-06
2.22844e-06
6.07394e-06
6.57955e-06
2.85872e-06
0.000281297
0.000279449
0.000281705
5.44785e-06
0.000280621
-1.43117e-05
-0.00113246
-6.89194e-06
1.3934e-06
4.19561e-06
2.04273e-06
2.22527e-06
6.07834e-06
2.85682e-06
6.57202e-06
0.000279366
0.000281226
0.000281636
-1.10707e-07
-1.18774e-07
0.000268578
-5.45654e-06
0.000271558
-0.000269564
4.45794e-06
4.46186e-06
-9.29153e-07
-3.84075e-07
0.00113246
-1.35724e-07
1.35165e-06
3.00875e-07
9.95791e-07
-9.32059e-08
2.87577e-07
-7.39812e-07
-1.41823e-05
-0.00113323
-6.55744e-06
1.43045e-06
4.18047e-06
2.03496e-06
2.22783e-06
6.07418e-06
6.57798e-06
2.85482e-06
0.000279438
0.000281293
0.000281704
5.49331e-06
0.000280688
-1.4171e-05
-0.00113327
-6.68067e-06
1.46124e-06
4.22409e-06
2.06493e-06
2.22749e-06
6.09035e-06
2.86118e-06
6.58436e-06
0.000279422
0.00028132
0.000281681
-0.000269532
4.47306e-06
4.46141e-06
-5.40144e-06
-5.41593e-06
5.75424e-06
5.74036e-06
0.000270899
5.93179e-06
-3.42697e-06
0.000278204
5.42606e-06
-5.43508e-06
5.93726e-06
-3.45317e-06
0.000278201
5.71727e-06
5.77822e-06
0.000270896
5.93549e-06
-3.42261e-06
0.000278235
-5.43156e-06
5.42183e-06
-3.45134e-06
5.93458e-06
0.000278199
-0.00116455
-1.17318e-05
-1.15679e-05
0.000283703
0.000285572
0.00028546
0.000285462
4.48865e-06
6.75355e-06
7.16354e-06
4.47629e-06
6.74023e-06
7.15032e-06
-0.00116453
-1.1727e-05
-1.15741e-05
0.000283705
0.000285573
0.000285469
0.000285466
4.4845e-06
6.74797e-06
7.15827e-06
4.47579e-06
6.7387e-06
7.14611e-06
5.45348e-06
5.43617e-06
-0.00116439
-1.17423e-05
-1.17101e-05
0.000283687
0.000285559
0.000285448
0.000285452
4.49542e-06
6.75494e-06
7.16219e-06
4.48621e-06
6.74738e-06
7.16016e-06
-3.45076e-06
5.93742e-06
0.000278175
5.71451e-06
5.77448e-06
0.000270887
-3.4525e-06
5.93759e-06
0.000278208
-5.35571e-10
-3.22332e-08
0.000230734
-0.000230726
3.71834e-08
-1.26588e-08
-5.25293e-09
4.81801e-08
0.000194886
-2.14722e-09
-0.000194926
2.00837e-09
1.09316e-07
9.85608e-05
-9.86721e-05
-3.39912e-08
-3.45103e-09
0.000230729
-0.000230719
-9.6555e-09
3.70834e-08
-3.87512e-09
4.68588e-08
0.000194864
-4.4587e-09
-0.000194903
-0.00117789
-3.49058e-07
-3.61844e-07
0.00117755
-0.00117769
-2.99725e-07
-3.94131e-07
0.00117742
-0.00117754
-3.04612e-07
-3.96128e-07
0.00117735
-0.00117754
-2.69312e-07
-2.84782e-07
3.38947e-08
-1.2639e-08
0.000251317
-0.000251177
1.80818e-09
-1.62814e-07
-1.27919e-07
1.23393e-06
0.00113169
-1.39035e-07
-8.18938e-07
1.99553e-07
-1.64169e-07
8.6214e-07
-1.16469e-06
2.36164e-07
-1.86239e-07
-0.00113162
-1.75195e-08
-4.68937e-08
0.000246893
1.22184e-08
-0.000246792
-4.82604e-08
-8.07009e-08
0.00114959
-1.87299e-07
-9.03219e-07
7.87303e-07
-7.23038e-07
9.60726e-07
-0.00114957
6.14493e-09
1.06322e-07
9.8556e-05
-9.86685e-05
-6.09814e-09
3.1624e-08
0.000251313
-0.000251174
-1.6148e-07
-2.67152e-09
-1.14514e-07
1.23074e-06
0.00113165
-1.32942e-07
-8.2048e-07
1.9598e-07
-1.65343e-07
8.57942e-07
-1.16302e-06
2.36165e-07
-1.83984e-07
-0.00113159
-6.61573e-08
0.0011495
-1.87269e-07
-9.05484e-07
7.84663e-07
-7.25424e-07
9.58495e-07
-0.00114947
-2.14435e-08
-4.25287e-08
0.000246884
1.28649e-08
-0.000246781
-5.15599e-08
-1.23376e-06
-1.20087e-06
0.000270469
-0.00026845
2.09965e-07
2.06143e-07
1.95452e-08
-1.1229e-07
0.000279916
-1.2848e-09
-0.000279838
1.60544e-08
1.56432e-08
-1.12869e-07
0.000279833
9.85332e-10
-0.000279756
1.89861e-08
5.62917e-09
-2.30621e-07
0.00023099
-0.00023091
1.37178e-07
8.23129e-09
-0.000194893
6.75208e-08
-9.22042e-08
-5.17143e-08
0.000194969
-0.000230751
3.27547e-09
-4.20723e-08
0.000230793
-3.32971e-08
3.02068e-08
-8.28404e-08
2.22376e-08
0.000195062
4.64637e-08
-0.000195048
-9.85583e-05
-7.31156e-08
-1.68872e-07
9.88003e-05
7.59924e-08
2.2893e-07
9.85862e-05
-9.88911e-05
-2.28786e-07
5.87098e-09
0.000230984
-0.000230908
8.61559e-09
1.37661e-07
-0.000194868
6.58881e-08
-9.39374e-08
-5.13653e-08
0.000194948
-0.000230744
-4.43335e-08
2.11457e-09
0.000230791
3.10143e-08
-3.60806e-08
-8.38026e-08
2.41995e-08
0.000195038
4.86318e-08
-0.000195027
-8.20937e-07
-8.75573e-07
0.00117732
-8.24568e-07
-8.79706e-07
0.00117719
-8.03173e-07
-8.09533e-07
0.0011771
-0.00117358
-9.80073e-06
-9.65559e-06
-0.00117341
-9.85653e-06
-9.69554e-06
-0.00117335
-9.88162e-06
-9.71473e-06
-0.00117325
-9.87916e-06
-9.73939e-06
2.27482e-07
1.09973e-08
0.000251692
-0.00025142
4.73773e-08
-5.58481e-07
-0.00024694
8.56174e-08
9.64698e-08
-2.51813e-08
-5.57337e-08
0.000246838
0.00114999
-0.00114978
-2.02708e-08
-1.37452e-06
1.14837e-06
-6.07967e-07
-7.90745e-07
1.00044e-06
-1.19027e-06
1.7403e-06
0.0011332
-2.49047e-06
-5.34166e-07
6.03499e-07
9.01973e-08
1.37925e-06
-9.04901e-07
5.69489e-07
3.60599e-08
-0.000251377
4.02832e-08
7.3558e-09
0.000251283
1.7546e-08
2.87538e-08
1.95195e-08
-2.17254e-08
0.000247333
-8.0903e-08
-0.00024699
-2.60298e-07
6.6209e-09
0.00115002
-3.18177e-06
-5.93683e-07
1.41156e-06
-4.02112e-07
1.54017e-06
-9.85477e-05
-7.45033e-08
-1.66812e-07
9.87891e-05
7.05405e-08
2.32789e-07
9.85771e-05
-9.88804e-05
1.22801e-08
2.28384e-07
0.000251691
-0.000251417
-5.60361e-07
4.64743e-08
0.00114989
-0.00114967
-2.3004e-08
-1.37755e-06
1.14728e-06
-6.0253e-07
-7.84559e-07
9.98806e-07
-0.000246936
7.91545e-08
9.63468e-08
-2.46018e-08
-5.25563e-08
0.000246837
-1.19627e-06
1.73596e-06
0.00113313
-2.49714e-06
-5.29545e-07
6.05319e-07
9.22367e-08
1.38125e-06
-9.03578e-07
5.67517e-07
3.44309e-08
-0.00025137
7.7034e-09
4.04193e-08
0.000251277
2.86464e-08
1.56579e-08
-4.62006e-09
0.00114992
-3.19158e-06
-5.89052e-07
1.41347e-06
-4.00544e-07
1.54222e-06
2.11748e-08
-2.33758e-08
0.00024733
-8.20842e-08
-0.000246987
-2.58704e-07
-0.000280001
-1.00415e-07
1.65714e-07
-6.56701e-08
9.66778e-08
0.000279905
-0.000279917
-1.02673e-07
1.6504e-07
-6.56284e-08
9.65259e-08
0.000279824
-1.76562e-06
-1.73201e-06
0.000270951
-0.000268688
6.15192e-07
6.18874e-07
-3.84076e-08
-2.30563e-07
0.000280456
-5.13529e-08
-0.000280046
-8.93648e-08
-3.79224e-08
-2.26625e-07
0.000280376
-5.33664e-08
-0.000279969
-8.97414e-08
6.13604e-09
-1.66179e-06
5.90095e-05
-5.89583e-05
1.45465e-06
1.49816e-07
-0.000201335
8.60507e-06
-1.11125e-05
-2.78964e-06
0.000206632
-0.000232833
2.39644e-08
-4.19519e-06
0.000232594
3.6304e-06
7.79816e-07
2.33698e-07
-1.3426e-06
5.72556e-05
-4.83442e-07
-5.57263e-05
3.6376e-08
7.60791e-08
1.04466e-08
-6.9806e-08
-9.25449e-09
-9.61716e-08
1.15357e-07
-0.000105215
-8.60798e-06
-2.23883e-05
1.90323e-05
4.20922e-05
3.59009e-05
3.9186e-05
-2.33572e-07
-4.40634e-07
1.33691e-05
1.08933e-07
-1.295e-05
1.46165e-07
-1.66164e-06
6.62537e-09
5.90092e-05
-5.89577e-05
1.48926e-07
1.45458e-06
-0.000201316
8.59796e-06
-1.11163e-05
-2.78328e-06
0.000206617
-0.000232823
-4.1982e-06
2.87702e-08
0.000232589
7.75628e-07
3.62783e-06
2.33953e-07
-1.34319e-06
5.72508e-05
-4.82158e-07
-5.57219e-05
3.547e-08
7.5854e-08
1.01512e-08
-6.91854e-08
-9.13838e-09
-9.60949e-08
1.15475e-07
1.05741e-08
5.93734e-09
0.000290916
-0.000291677
3.74729e-07
3.70257e-07
-1.13333e-05
2.28457e-05
6.18992e-08
0.000288306
0.000288845
0.000289425
0.000287914
-0.00117768
-1.13239e-05
2.28354e-05
7.4933e-08
0.000288307
0.000288852
0.000289432
0.000287918
-0.00117768
3.11998e-06
3.11914e-06
0.000279106
-0.000281513
-1.91419e-06
-1.91881e-06
4.26372e-08
5.13479e-08
0.000293155
0.000292611
0.000292842
0.000292848
-0.00119421
2.32213e-06
1.21661e-08
0.000284876
-1.30926e-06
-0.000286435
5.33875e-07
2.31785e-06
7.22348e-09
0.00028488
-1.30451e-06
-0.00028644
5.39085e-07
1.66178e-06
2.91649e-08
0.00025087
-0.000253276
1.21523e-06
-5.79456e-06
1.6703e-06
1.83648e-06
1.78693e-06
-0.000249824
5.97659e-06
1.11145e-05
-8.38968e-06
-3.75166e-06
0.000244874
-0.00114428
-2.28747e-05
1.38514e-07
0.000281374
0.000279134
0.000280652
0.000281312
9.44659e-06
5.91062e-06
6.75184e-06
9.27751e-06
4.11609e-06
1.99481e-06
2.73679e-06
4.30839e-06
3.24781e-06
-3.1374e-06
0.000270788
-0.000272773
4.07459e-06
-2.20012e-06
-0.000253355
4.19142e-06
3.18299e-08
0.00025354
1.02707e-06
-5.43493e-06
7.94012e-07
1.34295e-06
6.07971e-05
-7.32e-07
-6.04871e-05
-1.71491e-06
-2.33168e-06
2.13331e-08
0.000276599
2.94816e-06
-0.000277879
6.42739e-07
-0.000105215
-8.61128e-06
-2.23864e-05
1.90341e-05
4.20913e-05
3.58997e-05
3.91874e-05
-2.33324e-07
-4.40611e-07
1.3369e-05
1.09187e-07
-1.29504e-05
1.4616e-07
2.45499e-08
1.66124e-06
0.000250861
-0.000253271
-5.79048e-06
1.22107e-06
1.66975e-06
1.83585e-06
1.78752e-06
-0.00114426
-2.28679e-05
1.32947e-07
0.000281377
0.000279131
0.000280645
0.000281313
9.44506e-06
5.91159e-06
6.74947e-06
9.27368e-06
4.11212e-06
1.99635e-06
2.73274e-06
4.30978e-06
-0.000249816
5.98192e-06
1.11133e-05
-8.38938e-06
-3.75718e-06
0.000244867
-3.13292e-06
3.25017e-06
0.000270781
-0.000272769
-2.19915e-06
4.07006e-06
-0.000253354
3.06385e-08
4.19104e-06
0.000253539
-5.43672e-06
1.02952e-06
-2.32623e-06
2.41602e-08
0.000276596
2.94545e-06
-0.00027788
6.40658e-07
7.9386e-07
1.34303e-06
6.07947e-05
-7.32377e-07
-6.04848e-05
-1.71446e-06
-0.000287002
-5.99679e-06
2.23926e-05
-7.0221e-06
-1.79576e-06
0.000279425
-0.000286939
-5.9957e-06
2.23984e-05
-7.04724e-06
-1.80066e-06
0.000279384
-3.27382e-06
-3.27965e-06
0.000264197
-0.000266017
4.18953e-06
4.18492e-06
-7.92879e-07
4.40802e-07
5.9683e-05
7.81986e-07
-5.88451e-05
-1.78081e-06
3.33265e-07
7.15275e-08
1.08139e-07
-7.90064e-07
4.40984e-07
5.96827e-05
7.8063e-07
-5.88466e-05
-1.78173e-06
3.33977e-07
7.17155e-08
1.08315e-07
1.08799e-07
9.85756e-05
-9.86897e-05
1.07739e-07
9.85653e-05
-9.86769e-05
0.000270525
-1.25358e-06
-1.2198e-06
-0.000268479
2.15413e-07
2.12167e-07
0.000279953
2.25386e-08
-5.62746e-09
-0.000279876
1.47683e-08
0.000279872
1.79745e-08
-7.33568e-11
-0.000279803
2.08772e-08
1.5989e-07
2.16321e-08
9.85716e-05
-9.87531e-05
-8.81886e-08
-4.87923e-08
9.87126e-05
1.60249e-07
2.13198e-08
9.85621e-05
-9.87437e-05
-8.48308e-08
-4.96839e-08
9.86998e-05
1.22326e-06
1.16973e-06
0.000268501
-1.79072e-07
-1.89518e-07
1.05416e-08
0.000280036
2.10269e-08
-0.000279895
-1.30476e-08
1.2364e-08
0.000279956
2.40535e-08
-0.000279822
-1.04065e-08
-5.11667e-08
5.94761e-08
-2.55167e-08
0.000279882
-5.22286e-08
6.11501e-08
-2.27836e-08
0.000279801
-3.2714e-08
0.000230697
-0.000230687
3.53197e-08
-1.31988e-08
4.60661e-08
0.000194831
-6.30895e-09
-0.000194869
-3.24907e-09
0.000251319
-0.000251173
-9.90927e-09
-1.64739e-07
-5.90431e-08
0.00113109
-1.79192e-07
-1.21838e-06
2.23955e-07
-2.06743e-07
-8.11061e-07
2.10111e-07
-1.55932e-07
8.73261e-07
-0.00113102
0.000246887
1.88935e-08
-0.000246781
-5.34497e-08
-1.98484e-08
0.00114976
-2.14438e-07
-9.00905e-07
8.00982e-07
-7.21724e-07
9.75085e-07
-0.00114974
0.000251292
-0.000251146
-1.33098e-08
-1.68086e-07
-2.38975e-08
0.00113118
1.2424e-06
-2.12143e-07
-8.12568e-07
2.16876e-07
8.8219e-07
-1.5422e-07
-1.22402e-06
2.13663e-07
-2.11686e-07
-0.00113109
0.00024679
-2.22238e-08
2.34385e-08
-0.000246689
-5.59397e-08
0.00114971
-2.25989e-07
-8.98943e-07
8.02113e-07
-7.17845e-07
9.795e-07
-0.00114969
3.94763e-10
2.24892e-09
-3.43536e-08
2.20527e-08
0.000230744
6.22183e-08
-0.00019494
6.50263e-09
-4.47649e-08
-4.8042e-08
0.00019493
2.29484e-09
-5.27522e-08
-0.000230759
6.60125e-08
-7.17876e-09
1.91233e-09
-3.46125e-08
2.26224e-08
0.000230707
6.50289e-08
-1.34139e-08
0.000194839
-0.00019489
-3.81863e-10
-4.61509e-08
5.28004e-08
-5.29616e-08
0.000194878
-5.29602e-08
0.000230714
-0.000230721
6.39109e-08
-2.2121e-09
-9.23517e-10
6.11376e-09
1.04485e-07
0.000251211
-5.69167e-08
-2.52493e-07
1.25594e-06
-2.09803e-07
2.183e-07
8.74495e-07
-1.51665e-07
2.01527e-07
-8.06037e-07
0.000246939
-5.3276e-08
-0.000246803
-9.817e-09
-0.00114988
-1.6829e-08
0.00115001
-6.02551e-07
-8.65144e-07
8.54623e-07
-6.82591e-07
1.01805e-06
-2.71731e-08
2.57963e-08
0.000246792
-1.65546e-08
-3.9035e-07
9.91785e-07
-7.02672e-07
-8.7992e-07
8.23297e-07
-6.58557e-10
0.000251397
-0.000251252
2.16778e-09
-1.98902e-07
1.37211e-09
1.06316e-07
0.000251185
-2.39903e-08
-1.22839e-06
-2.65365e-07
8.80038e-07
-1.47989e-07
-8.05277e-07
2.04645e-07
1.24307e-06
-2.13658e-07
2.0933e-07
-5.22578e-09
0.000246843
-5.03077e-08
-0.000246714
-8.2796e-09
-0.00114982
0.00114995
-6.16778e-07
-8.6631e-07
8.5546e-07
-6.81614e-07
1.02169e-06
5.06059e-08
-2.6468e-08
2.16305e-08
0.000246698
-3.92775e-07
9.98857e-07
-7.04215e-07
-8.8336e-07
8.272e-07
0.00025137
-0.000251226
3.92244e-09
-2.01903e-07
0.000270519
-0.00026847
2.22444e-07
2.05388e-07
0.000279837
-1.22754e-09
-0.000279762
1.35405e-08
-1.0622e-07
0.00027997
-6.61099e-09
-0.000279893
1.83322e-08
9.85755e-05
7.47742e-09
-9.86892e-05
1.66716e-07
-9.87384e-05
-8.41437e-08
9.86977e-05
1.1697e-06
0.000268488
-1.73073e-07
-1.94963e-07
0.000279919
2.6243e-08
-0.00027978
-3.26355e-09
-1.55373e-07
1.82622e-08
0.000280048
1.85762e-08
-0.000279909
-2.04269e-08
6.58529e-08
-2.57459e-08
0.000279763
9.18546e-08
-5.02329e-08
5.6263e-08
-2.16837e-08
0.000279894
2.62208e-08
9.85748e-05
-9.87564e-05
-4.51515e-08
9.87125e-05
-9.80525e-09
0.000251311
-0.00025117
-2.33681e-09
-1.62734e-07
-7.685e-08
0.00113211
-1.74307e-07
-1.17093e-06
2.27281e-07
-1.95602e-07
-8.1603e-07
2.04818e-07
-1.61561e-07
8.70711e-07
-0.00113204
0.000246847
1.51673e-08
-0.000246748
-4.99139e-08
-3.44101e-08
0.00114965
-2.21954e-07
-9.03897e-07
7.98179e-07
-7.24148e-07
9.74303e-07
-0.00114961
-3.23407e-08
0.000230688
-0.000230682
3.94673e-08
-1.58356e-08
4.43968e-08
0.000194818
-8.17073e-10
-0.000194855
0.000251282
-0.000251142
-1.64273e-07
-1.76423e-08
-1.84519e-08
0.00113114
1.23809e-06
-2.0457e-07
-8.08059e-07
2.10917e-07
8.75912e-07
-1.49694e-07
-1.22634e-06
2.15712e-07
-2.18574e-07
-0.00113105
0.00114961
-2.23961e-07
-8.97673e-07
7.9757e-07
-7.19355e-07
9.72486e-07
-0.00114959
0.000246784
-2.54802e-08
2.60543e-08
-0.000246682
-5.87859e-08
8.13148e-09
-1.77411e-09
2.37809e-08
-3.48632e-08
0.000230734
6.52459e-08
-0.000194918
5.46796e-09
-4.41308e-08
-4.90233e-08
0.000194908
-5.22595e-08
8.2124e-10
-0.000230752
-6.27194e-09
6.55043e-08
-4.4286e-09
1.05196e-08
1.06517e-07
0.000251207
-8.3316e-08
-2.35822e-07
1.21898e-06
-1.90634e-07
2.17754e-07
8.72525e-07
-1.595e-07
1.99829e-07
-8.13751e-07
0.0002469
-4.9874e-08
-0.000246764
-8.17135e-09
-0.00114976
-2.74493e-08
0.00114988
-5.96891e-07
-8.67877e-07
8.52508e-07
-6.85271e-07
1.01555e-06
-3.16784e-08
2.86275e-08
0.000246754
-3.25256e-08
-3.84882e-07
9.91133e-07
-7.05995e-07
-8.86237e-07
8.20286e-07
-3.1759e-09
0.000251387
-0.000251243
4.10298e-09
-1.97956e-07
5.00698e-09
-3.50162e-08
2.00691e-08
0.000230696
6.69434e-08
-1.38452e-08
0.000194825
-0.000194876
-2.52484e-09
-4.7589e-08
4.86061e-08
-4.82573e-08
0.000194865
-5.25393e-08
0.000230707
-0.000230715
6.56067e-08
-4.5448e-09
1.05191e-07
-1.71039e-09
0.000251179
-1.50422e-08
-1.22383e-06
-2.68254e-07
8.76745e-07
-1.48381e-07
-8.03588e-07
2.07427e-07
1.2403e-06
-2.1342e-07
2.12815e-07
-0.00114972
0.00114985
-6.10156e-07
-8.6481e-07
8.54237e-07
-6.83525e-07
1.01835e-06
-5.95379e-09
0.000246839
-5.6341e-08
-0.000246702
-7.46752e-09
-3.96856e-07
9.94738e-07
-7.03849e-07
-8.7987e-07
8.25256e-07
4.88815e-08
-2.34682e-08
2.57146e-08
0.000246686
0.00025136
-0.000251216
-2.01299e-07
1.9049e-09
1.21571e-11
0.000230731
-0.000230723
-1.20545e-08
3.77971e-08
0.000194874
1.40997e-09
-0.000194915
3.22072e-08
0.000251286
-0.000251148
-1.64731e-07
-1.78762e-08
2.50076e-08
0.00113079
-1.40571e-07
-1.22489e-06
2.12688e-07
-2.16018e-07
-8.11078e-07
2.06689e-07
-1.58423e-07
8.66318e-07
-0.00113078
0.00114955
-1.94603e-07
-8.99111e-07
7.89761e-07
-7.20434e-07
9.64338e-07
-0.00114954
-4.83405e-08
0.000246816
1.85441e-08
-0.000246713
-5.3381e-08
0.000230692
-0.000230687
3.77758e-08
-1.08075e-08
0.000194829
-1.31557e-09
-8.59877e-09
-0.000194867
-8.87643e-09
-5.29676e-09
1.23952e-08
1.09406e-07
0.000251209
-1.31935e-07
-1.89521e-07
1.23159e-06
-1.85479e-07
2.27249e-07
8.64868e-07
-1.63968e-07
-8.16383e-07
1.98485e-07
-6.25188e-08
-5.32496e-08
-0.0002468
-5.52997e-09
-0.00114967
-6.10755e-08
-5.45814e-07
-8.67908e-07
8.43395e-07
1.00742e-06
-6.88821e-07
4.87009e-08
-3.4598e-08
2.94835e-08
0.000246799
-7.72478e-08
-3.36394e-07
9.79627e-07
-7.06834e-07
-8.86847e-07
8.10963e-07
5.08478e-08
1.15588e-09
-0.000251234
1.01481e-10
-1.94653e-07
3.23312e-09
1.93396e-08
-3.4716e-08
0.000230735
0.000194878
-0.000194928
1.38803e-08
-4.18681e-08
0.000194919
8.17871e-09
0.000230744
-0.000230753
-1.41616e-08
6.53908e-08
-6.14814e-09
1.08117e-07
-8.88278e-10
0.00025118
8.54139e-09
-1.22196e-06
-1.86355e-07
8.65688e-07
-1.55813e-07
-8.08657e-07
1.96878e-07
1.23562e-06
-2.13417e-07
2.08839e-07
-0.0011496
0.00114969
-5.50647e-07
-8.66802e-07
8.43938e-07
-6.90759e-07
1.00513e-06
-6.96472e-08
-3.87128e-09
0.000246866
-5.01177e-08
-0.000246732
-1.02881e-08
-3.31634e-07
9.81757e-07
-7.02211e-07
-8.81408e-07
8.1265e-07
4.31173e-08
5.46583e-08
-2.88966e-08
2.66465e-08
0.00024672
5.04262e-08
0.000251349
-0.000251207
-1.97117e-07
5.78506e-09
-3.53455e-08
2.59216e-08
0.000230698
-1.12051e-08
0.000194837
-0.000194889
-6.97523e-09
5.32279e-08
-5.53409e-08
0.000194874
0.000230707
-0.000230715
6.48957e-08
2.44361e-09
0.000270513
-0.000268472
2.25225e-07
2.02315e-07
0.000279839
-3.16323e-09
-0.000279765
9.87624e-09
-1.0034e-07
0.000279962
-1.18153e-08
-0.000279888
1.65203e-08
9.85761e-05
1.20319e-08
-9.86885e-05
1.67487e-07
-9.87291e-05
-8.66817e-08
9.86913e-05
1.16715e-06
0.000268487
-1.69908e-07
-1.94729e-07
0.000279917
2.57417e-08
-0.00027978
-6.673e-10
-1.56763e-07
1.93371e-08
0.000280044
1.77438e-08
-0.000279903
-2.0795e-08
6.17542e-08
-2.21751e-08
0.000279762
9.24693e-08
-4.75975e-08
5.06426e-08
-2.35433e-08
0.00027989
2.60832e-08
9.85668e-05
-9.87497e-05
-4.04165e-08
9.8709e-05
3.20653e-08
0.000251282
-0.000251147
-1.62592e-07
-1.09658e-08
-6.21312e-09
0.00113181
-1.25916e-07
-1.17358e-06
2.16484e-07
-2.01379e-07
-8.19502e-07
2.03814e-07
-1.67122e-07
8.63066e-07
-0.0011318
0.00114943
-1.86543e-07
-9.02804e-07
7.88836e-07
-7.23785e-07
9.62946e-07
-0.00114944
-4.84046e-08
0.000246783
1.27012e-08
-0.000246678
-5.27918e-08
2.9558e-09
0.000230725
-0.000230717
-1.52054e-08
3.61552e-08
0.000194873
4.68585e-09
-0.000194908
0.000230685
-0.000230678
-8.38602e-09
3.62131e-08
0.000194823
-7.14938e-10
-9.6811e-09
-0.000194861
-1.75127e-09
-6.47466e-09
1.10906e-07
9.13302e-09
0.000251201
-1.3046e-07
-1.88608e-07
1.22927e-06
-1.87805e-07
2.27966e-07
8.6128e-07
-1.61743e-07
-8.15121e-07
1.95905e-07
-0.00114958
-5.02575e-08
-5.39302e-07
-8.66906e-07
8.38895e-07
1.00099e-06
-6.88603e-07
-6.21366e-08
-5.50106e-08
-0.000246797
-1.81092e-09
-6.11234e-08
-3.29943e-07
9.77631e-07
-7.10017e-07
-8.89491e-07
8.05502e-07
4.84437e-08
-3.08942e-08
3.06882e-08
0.000246788
3.74919e-09
5.06223e-08
-0.000251224
-1.96573e-07
-2.92507e-09
-6.55744e-09
1.0768e-07
3.95019e-09
0.000251175
-8.58374e-09
-1.17333e-06
-1.77506e-07
8.60816e-07
-1.61062e-07
-8.14013e-07
1.95269e-07
1.20165e-06
-1.99702e-07
2.10896e-07
-0.0011495
0.00114957
-5.33716e-07
-8.69872e-07
8.41355e-07
-6.91275e-07
1.00513e-06
-7.04146e-08
-6.06298e-09
0.000246831
-4.96076e-08
-0.000246692
-1.25787e-08
-3.27189e-07
9.77842e-07
-7.09056e-07
-8.88156e-07
8.06204e-07
4.30058e-08
5.47087e-08
-3.266e-08
3.12306e-08
0.000246686
5.00131e-08
0.000251338
-0.000251199
-1.93567e-07
7.65485e-09
5.46127e-09
1.6281e-08
-3.46256e-08
0.000230731
0.000194877
-0.000194927
1.38383e-08
-3.63123e-08
0.000194917
9.74589e-09
0.000230744
-0.000230749
-1.64402e-08
6.27355e-08
2.73682e-08
-3.5305e-08
0.000230692
-1.05149e-08
0.000194831
-0.000194883
-7.7507e-09
5.36909e-08
-5.59386e-08
0.000194868
0.000230705
-0.000230711
3.4644e-09
6.20873e-08
9.85635e-05
-9.86771e-05
9.85588e-05
-9.86724e-05
0.000268448
-1.80638e-07
-1.93895e-07
-1.69513e-07
2.49125e-08
-0.00027986
-4.609e-10
-1.7046e-07
2.50698e-08
-0.000279778
1.72533e-10
8.33331e-08
6.55557e-08
-2.40816e-08
0.000279845
8.26662e-08
6.63562e-08
-1.95203e-08
0.000279758
9.85639e-05
-9.87446e-05
9.87001e-05
9.85581e-05
-9.8739e-05
9.86952e-05
-1.75072e-07
9.88142e-05
2.23798e-07
9.86001e-05
-9.89068e-05
-1.75523e-07
9.88035e-05
2.22249e-07
9.85893e-05
-9.88953e-05
-9.02072e-08
-7.23511e-08
8.2657e-08
0.000279941
-9.02919e-08
-7.22939e-08
7.94702e-08
0.000279864
0.000271041
-1.77099e-06
-1.73827e-06
-0.000268766
6.15779e-07
6.18776e-07
0.000280482
-2.66388e-08
-5.98861e-08
-0.00028008
-9.20996e-08
0.000280406
-2.78262e-08
-6.01382e-08
-0.000280001
-9.48592e-08
-3.03812e-06
-1.40479e-06
0.000105223
-0.00010078
-3.95399e-07
-1.31428e-07
9.91269e-05
-3.04925e-06
-1.39959e-06
0.000105217
-0.000100768
-3.97805e-07
-1.2908e-07
9.91161e-05
3.55353e-07
3.07115e-07
0.000269129
6.27079e-07
6.22019e-07
-2.41288e-06
0.000286997
-3.74893e-06
-0.000283064
-8.08987e-07
-2.4098e-06
0.000286934
-3.75765e-06
-0.000282997
-8.19554e-07
-2.28162e-07
1.06849e-07
-4.09425e-07
0.000280617
-2.24552e-07
1.0065e-07
-4.07958e-07
0.00028054
-2.3013e-07
0.000230953
-0.000230874
1.37298e-07
1.97037e-08
-8.88715e-08
-6.14575e-08
0.000194916
-4.19536e-08
0.000230757
-3.39409e-08
3.6695e-08
2.82748e-08
0.000195008
3.81033e-08
-0.000194998
4.74178e-09
0.000251708
-0.000251441
5.48214e-08
-5.56805e-07
-2.67798e-08
-6.23027e-08
0.000246846
0.00115024
-1.95338e-09
-1.4068e-06
1.15782e-06
-6.05132e-07
-7.88733e-07
1.0076e-06
-1.19344e-06
0.00113266
-2.50505e-06
-9.47353e-07
5.7839e-07
2.81355e-08
-5.37756e-07
6.0427e-07
8.63738e-08
1.38039e-06
2.30662e-09
0.000251302
2.28142e-08
2.80459e-08
0.000247336
-8.97669e-08
-0.000246993
-2.5777e-07
2.98708e-09
0.00115029
-3.20759e-06
-5.96617e-07
1.41681e-06
-4.01518e-07
1.54783e-06
0.000251682
-0.000251415
6.70243e-08
-5.59021e-07
9.75093e-08
-2.48305e-08
-6.98926e-08
0.000246751
0.0011502
-1.41275e-06
1.15506e-06
-6.04565e-07
-7.90731e-07
1.00524e-06
-1.20521e-06
0.00113277
1.77643e-06
-2.51507e-06
-5.39252e-07
5.98468e-07
1.38065e-06
8.66737e-08
-9.43295e-07
5.82108e-07
3.52861e-08
0.000251278
2.45556e-08
2.78801e-08
0.000247248
3.50346e-08
-1.00519e-07
-0.000246901
-2.53376e-07
0.00115024
-3.21235e-06
-5.94298e-07
1.41647e-06
-3.98798e-07
1.54931e-06
7.305e-09
-3.92515e-07
3.49677e-08
7.10602e-08
0.000231269
-4.03228e-06
-0.000197077
-1.63084e-06
-2.99727e-07
-1.06521e-07
0.000195337
1.94377e-08
-2.35324e-06
-0.000232258
1.3229e-06
4.35422e-07
-3.89382e-07
3.65538e-08
8.47637e-08
0.000231229
-4.02895e-06
1.40826e-06
0.000201295
-0.000197026
-1.64793e-06
-2.97465e-07
1.35339e-07
-1.17265e-07
0.000195287
-2.34949e-06
0.000232797
-0.000232223
1.32099e-06
4.73612e-07
8.77166e-09
1.25856e-07
-6.44374e-07
0.000251825
-3.08868e-06
-6.42677e-06
2.79867e-06
4.81554e-07
1.4022e-06
2.58858e-06
6.43532e-07
1.71962e-06
8.62113e-08
0.000249838
-4.82175e-06
-0.000249346
-2.11615e-06
-0.00114923
5.36706e-08
0.00114435
-1.68623e-05
1.9182e-06
5.39074e-06
1.98816e-06
5.62758e-06
-2.31752e-07
-5.15966e-07
0.000247556
3.68047e-08
-7.81796e-06
2.7713e-06
2.66399e-07
8.75738e-08
2.62646e-06
2.01458e-08
0.000253368
-0.000252717
6.78623e-07
-3.70311e-06
1.40191e-07
-6.43672e-07
0.000251805
-3.1493e-06
-3.45474e-07
-6.41281e-06
2.58963e-06
6.44323e-07
8.31288e-08
1.72232e-06
2.80729e-06
4.89393e-07
1.41722e-06
2.42685e-06
0.000249781
-4.82211e-06
-0.000249271
-2.14364e-06
-0.0011492
0.00114431
-1.68593e-05
1.91799e-06
5.3916e-06
1.98679e-06
5.62909e-06
2.36507e-07
-2.45424e-07
-5.10708e-07
0.00024747
-7.81556e-06
2.77428e-06
2.63006e-07
8.08597e-08
2.6283e-06
0.000253347
-0.000252693
7.21303e-07
-3.70414e-06
-6.88804e-08
9.29903e-08
0.000279823
1.80719e-07
-7.34384e-08
7.37723e-08
0.000279953
0.000271033
-0.00026875
6.12378e-07
6.2145e-07
0.000280368
-5.25152e-08
-0.000279963
-8.89798e-08
-2.17938e-07
0.000280494
-7.05457e-08
-0.000280089
-9.65583e-08
-6.18793e-08
9.88174e-05
9.86015e-05
8.85819e-08
-9.8908e-05
-3.03651e-06
-0.00010077
-3.90921e-07
9.91125e-05
3.17356e-07
0.000269122
6.22354e-07
6.25572e-07
0.000286929
-3.76066e-06
-0.00028297
-8.08007e-07
3.05162e-06
-2.39892e-06
0.000287
-3.74694e-06
-0.000283074
-8.31259e-07
1.13396e-07
-4.01148e-07
0.000280502
4.00743e-07
-2.16175e-07
9.21597e-08
-4.14032e-07
0.000280631
-1.39324e-06
0.000105221
-0.000100776
-1.24192e-07
9.91264e-05
3.55385e-09
0.000251704
-0.000251431
5.54961e-08
-5.6045e-07
-2.60566e-08
-6.47852e-08
0.000246807
0.00115012
8.22535e-10
-1.40877e-06
1.15456e-06
-6.05916e-07
-7.89557e-07
1.00765e-06
-1.18542e-06
0.00113362
-2.49583e-06
-9.00281e-07
5.76935e-07
3.66627e-08
-5.34733e-07
6.04448e-07
8.63001e-08
1.38086e-06
1.94926e-09
0.000251292
2.27489e-08
2.5895e-08
0.000247301
-8.9419e-08
-0.000246957
-2.57794e-07
1.41074e-08
0.00115016
-3.21427e-06
-5.9083e-07
1.41485e-06
-3.98176e-07
1.54524e-06
-2.28508e-07
0.00023095
-0.000230871
1.3527e-07
2.03359e-08
-9.11432e-08
-6.25687e-08
0.000194905
-4.20437e-08
0.000230752
-3.62825e-08
3.51875e-08
2.97119e-08
0.000194995
2.69818e-08
-0.000194981
0.000251675
-0.000251406
-5.60426e-07
6.60308e-08
0.0011501
-1.41735e-06
1.15628e-06
-6.04693e-07
-7.87548e-07
1.00599e-06
9.34368e-08
-2.1285e-08
-6.72121e-08
0.000246743
-1.21315e-06
0.00113271
1.77291e-06
-2.51992e-06
-5.35163e-07
5.99872e-07
1.37938e-06
8.82146e-08
-9.38439e-07
5.83305e-07
3.17855e-08
0.000251269
2.78822e-08
2.29687e-08
0.00115015
-3.22253e-06
-5.90119e-07
1.4178e-06
-3.97736e-07
1.54806e-06
0.00024724
4.06377e-08
-1.03644e-07
-0.000246893
-2.54281e-07
-3.9306e-07
8.32626e-09
7.01794e-08
3.75892e-08
0.000231261
-4.03702e-06
-0.000197052
-1.62569e-06
-3.02671e-07
-1.0214e-07
0.000195314
-2.35164e-06
2.3569e-08
-0.000232253
4.31843e-07
1.32671e-06
8.89837e-09
1.25712e-07
-6.47855e-07
0.000251824
-3.05292e-06
-6.39369e-06
2.78073e-06
4.88625e-07
1.40996e-06