/*--------------------------------*- C++ -*----------------------------------*\
| =========                 |                                                 |
| \\      /  F ield         | OpenFOAM: The Open Source CFD Toolbox           |
|  \\    /   O peration     | Version:  v2012                                 |
|   \\  /    A nd           | Website:  www.openfoam.com                      |
|    \\/     M anipulation  |                                                 |
\*---------------------------------------------------------------------------*/
FoamFile
{
    version     2.0;
    format      ascii;
    class       volScalarField;
    location    "1012.5";
    object      epsilon;
}
// * * * * * * * * * * * * * * * * * * * * * * * * * * * * * * * * * * * * * //

dimensions      [0 2 -3 0 0 0 0];


internalField   nonuniform List<scalar> 
171728
(
1.66376e-09
6.00654e-09
3.76832e-09
4.93559e-09
1.63735e-09
5.52884e-09
3.52815e-09
4.44787e-09
1.56909e-09
4.78129e-09
3.28212e-09
4.0463e-09
1.50387e-09
4.01524e-09
3.06995e-09
3.70468e-09
1.43994e-09
3.52795e-09
2.88543e-09
3.42781e-09
1.37691e-09
3.24365e-09
2.72072e-09
3.18312e-09
1.31204e-09
3.0575e-09
2.58309e-09
2.99358e-09
1.24369e-09
2.94196e-09
2.47625e-09
2.83803e-09
1.17344e-09
2.8835e-09
2.39577e-09
2.66671e-09
1.1053e-09
2.88407e-09
2.34109e-09
2.55288e-09
1.0311e-09
2.9334e-09
2.31593e-09
2.47028e-09
9.53134e-10
3.05091e-09
2.32578e-09
2.39716e-09
8.88357e-10
3.23483e-09
2.37997e-09
2.35254e-09
8.31557e-10
3.42453e-09
2.49373e-09
2.36719e-09
7.82482e-10
3.70042e-09
2.68611e-09
2.46561e-09
7.44304e-10
4.14405e-09
2.99679e-09
2.69105e-09
7.13011e-10
4.81438e-09
3.48492e-09
3.1053e-09
6.85466e-10
5.7149e-09
4.22301e-09
3.86276e-09
6.62995e-10
6.88328e-09
5.34601e-09
5.15592e-09
6.53073e-10
8.40884e-09
7.04305e-09
7.41307e-09
6.51703e-10
1.05537e-08
9.46727e-09
1.22212e-08
6.6402e-10
1.37604e-08
1.30262e-08
1.68663e-08
6.78028e-10
1.81425e-08
1.76756e-08
3.26043e-08
7.11524e-10
2.51613e-08
2.48829e-08
4.93589e-08
7.8637e-10
3.22999e-08
3.30517e-08
7.59689e-08
9.0344e-10
4.59425e-08
4.4777e-08
1.0435e-07
1.06268e-09
5.64873e-08
5.87542e-08
1.67855e-07
1.30601e-09
7.47067e-08
7.59259e-08
2.02914e-07
1.66225e-09
9.5187e-08
9.49833e-08
2.92522e-07
2.19365e-09
1.19186e-07
1.18844e-07
3.7147e-07
2.8904e-09
1.42668e-07
1.44621e-07
4.41039e-07
3.82858e-09
1.7417e-07
1.74211e-07
5.17855e-07
5.12638e-09
2.03947e-07
2.06066e-07
5.88029e-07
6.8504e-09
2.41634e-07
2.42602e-07
6.53526e-07
9.12653e-09
2.8003e-07
2.80196e-07
7.08086e-07
1.17517e-08
3.19491e-07
3.23478e-07
7.57744e-07
1.56185e-08
3.62299e-07
3.69298e-07
7.979e-07
2.00871e-08
4.05625e-07
4.18772e-07
8.46083e-07
2.59379e-08
4.56061e-07
4.57867e-07
8.85967e-07
3.2806e-08
5.03775e-07
5.01698e-07
9.13551e-07
4.03361e-08
5.49284e-07
5.54887e-07
9.44239e-07
5.15812e-08
6.02542e-07
6.09992e-07
9.81769e-07
6.31731e-08
6.5028e-07
6.51061e-07
1.01046e-06
7.5766e-08
6.95049e-07
6.91114e-07
1.0304e-06
9.04748e-08
7.36715e-07
7.39403e-07
1.05918e-06
1.07716e-07
7.84514e-07
7.88188e-07
1.09437e-06
1.29838e-07
8.32137e-07
8.34488e-07
1.13448e-06
1.52078e-07
8.64282e-07
8.60564e-07
1.1469e-06
1.74818e-07
9.01887e-07
9.0014e-07
1.16408e-06
1.99411e-07
9.41716e-07
9.41449e-07
1.19416e-06
2.241e-07
9.6533e-07
9.68069e-07
1.21005e-06
2.51729e-07
9.97663e-07
9.9384e-07
1.23506e-06
2.88611e-07
1.0326e-06
1.03141e-06
1.26534e-06
3.25111e-07
1.05595e-06
1.06236e-06
1.29199e-06
3.4889e-07
1.07034e-06
1.07372e-06
1.29857e-06
3.75736e-07
1.09589e-06
1.09439e-06
1.30749e-06
4.10226e-07
1.12313e-06
1.11831e-06
1.33073e-06
4.43868e-07
1.14058e-06
1.14074e-06
1.35252e-06
4.7465e-07
1.15326e-06
1.15796e-06
1.36345e-06
5.0306e-07
1.17186e-06
1.17426e-06
1.37585e-06
5.28007e-07
1.19141e-06
1.19152e-06
1.39719e-06
5.50116e-07
1.2041e-06
1.19934e-06
1.40208e-06
5.76742e-07
1.21809e-06
1.21434e-06
1.41019e-06
6.03023e-07
1.23224e-06
1.23416e-06
1.43037e-06
6.20927e-07
1.24357e-06
1.25292e-06
1.45077e-06
6.38853e-07
1.25463e-06
1.25703e-06
1.45117e-06
6.6362e-07
1.26459e-06
1.25545e-06
1.45385e-06
6.83003e-07
1.27308e-06
1.26579e-06
1.46525e-06
6.89191e-07
1.28188e-06
1.28204e-06
1.47697e-06
6.9885e-07
1.28924e-06
1.29476e-06
1.487e-06
7.20728e-07
1.29465e-06
1.29644e-06
1.49422e-06
7.3863e-07
1.29747e-06
1.29595e-06
1.49407e-06
7.51379e-07
1.30455e-06
1.30545e-06
1.49968e-06
7.60449e-07
1.31346e-06
1.31391e-06
1.51277e-06
7.6581e-07
1.31766e-06
1.31538e-06
1.51778e-06
7.7066e-07
1.31315e-06
1.31109e-06
1.51248e-06
7.84815e-07
1.31447e-06
1.31557e-06
1.51174e-06
8.00055e-07
1.32171e-06
1.32484e-06
1.52188e-06
8.05908e-07
1.32459e-06
1.32878e-06
1.53498e-06
7.99506e-07
1.31909e-06
1.31952e-06
1.53193e-06
7.9933e-07
1.31968e-06
1.31515e-06
1.5219e-06
8.13385e-07
1.32551e-06
1.32193e-06
1.5233e-06
8.18848e-07
1.32359e-06
1.32452e-06
1.5299e-06
8.12505e-07
1.31172e-06
1.3168e-06
1.52711e-06
8.0752e-07
1.30644e-06
1.31134e-06
1.52299e-06
8.11134e-07
1.3114e-06
1.31064e-06
1.52631e-06
8.12808e-07
1.31164e-06
1.30698e-06
1.52674e-06
8.08759e-07
1.30392e-06
1.30218e-06
1.51963e-06
8.05136e-07
1.29958e-06
1.30065e-06
1.51719e-06
8.04285e-07
1.29679e-06
1.29773e-06
1.51803e-06
7.98891e-07
1.28554e-06
1.28654e-06
1.51079e-06
7.91766e-07
1.27668e-06
1.27783e-06
1.4994e-06
7.88271e-07
1.27317e-06
1.274e-06
1.49677e-06
7.8475e-07
1.26698e-06
1.26669e-06
1.49393e-06
7.61267e-07
1.20424e-06
1.20445e-06
1.44802e-06
5.19675e-09
4.13487e-09
3.60087e-09
4.95693e-09
4.58257e-09
4.25548e-09
1.62793e-09
1.51203e-09
1.43767e-09
1.45755e-09
3.98779e-09
3.89314e-09
5.24229e-09
3.82997e-09
3.89914e-09
4.96746e-09
5.15356e-09
4.71337e-09
5.24637e-09
3.95851e-09
4.96086e-09
3.59938e-09
4.92821e-09
4.48889e-09
5.22496e-09
9.72365e-09
5.01828e-09
8.08216e-09
4.66095e-09
5.68064e-09
4.41786e-09
5.20774e-09
4.78343e-09
5.15363e-09
3.59479e-09
4.93627e-09
4.51418e-09
4.64032e-09
4.30229e-09
4.85183e-09
3.4795e-09
4.56309e-09
3.15458e-09
4.45465e-09
4.05204e-09
4.94206e-09
7.40692e-09
4.74348e-09
5.65607e-09
4.32501e-09
4.98714e-09
4.05154e-09
4.74655e-09
4.32107e-09
4.84345e-09
3.34063e-09
4.57443e-09
4.1099e-09
4.24081e-09
3.96348e-09
4.47942e-09
3.05805e-09
4.25615e-09
2.81434e-09
4.0239e-09
3.67724e-09
4.68429e-09
5.21855e-09
4.52518e-09
4.28781e-09
3.96283e-09
4.18414e-09
3.70468e-09
4.28891e-09
3.89522e-09
4.48903e-09
3.12021e-09
4.24648e-09
3.75791e-09
3.91016e-09
3.68835e-09
4.19045e-09
2.74788e-09
4.01367e-09
2.58346e-09
3.65478e-09
3.36993e-09
4.47831e-09
4.07134e-09
4.35305e-09
3.59618e-09
3.62114e-09
3.62475e-09
3.38384e-09
3.86964e-09
3.53854e-09
4.17519e-09
2.92937e-09
3.96957e-09
3.45864e-09
3.64637e-09
3.47416e-09
3.96181e-09
2.54104e-09
3.82075e-09
2.44348e-09
3.35207e-09
3.10144e-09
4.31846e-09
3.47993e-09
4.24181e-09
3.21468e-09
3.31141e-09
3.30298e-09
3.11478e-09
3.5174e-09
3.2359e-09
3.90323e-09
2.75987e-09
3.73548e-09
3.20064e-09
3.4407e-09
3.29666e-09
3.7797e-09
2.41634e-09
3.67127e-09
2.34187e-09
3.08619e-09
2.87275e-09
4.22313e-09
3.14589e-09
4.1876e-09
2.97745e-09
3.05642e-09
3.09873e-09
2.90064e-09
3.21923e-09
2.98935e-09
3.69162e-09
2.61459e-09
3.6085e-09
3.00583e-09
3.27983e-09
3.15856e-09
3.63891e-09
2.3208e-09
3.55237e-09
2.26759e-09
2.86233e-09
2.69223e-09
4.18493e-09
2.93109e-09
4.19093e-09
2.8199e-09
2.85471e-09
2.96587e-09
2.7371e-09
2.97686e-09
2.78717e-09
3.59548e-09
2.50073e-09
3.57976e-09
2.8489e-09
3.14835e-09
3.06006e-09
3.52726e-09
2.25195e-09
3.46152e-09
2.21827e-09
2.6858e-09
2.55837e-09
4.19958e-09
2.79015e-09
4.24778e-09
2.71549e-09
2.7042e-09
2.89414e-09
2.62115e-09
2.77847e-09
2.62884e-09
3.57002e-09
2.41398e-09
3.48074e-09
2.67555e-09
3.05358e-09
2.98445e-09
3.44208e-09
2.20957e-09
3.38027e-09
2.19773e-09
2.55628e-09
2.46704e-09
4.267e-09
2.6966e-09
4.33558e-09
2.6559e-09
2.59805e-09
2.88077e-09
2.54036e-09
2.62463e-09
2.50909e-09
3.43379e-09
2.35323e-09
3.26967e-09
2.55514e-09
2.98037e-09
2.90759e-09
3.35678e-09
2.19781e-09
3.28374e-09
2.2069e-09
2.46892e-09
2.41714e-09
4.35776e-09
2.64917e-09
4.39012e-09
2.65176e-09
2.52503e-09
2.91637e-09
2.49004e-09
2.50916e-09
2.4285e-09
3.21634e-09
2.31954e-09
3.06664e-09
2.46881e-09
2.90261e-09
2.81249e-09
3.25987e-09
2.21438e-09
3.20019e-09
2.25095e-09
2.42418e-09
2.4051e-09
4.38679e-09
2.65787e-09
4.27096e-09
2.70038e-09
2.48188e-09
3.01411e-09
2.47251e-09
2.43232e-09
2.38532e-09
3.01831e-09
2.31988e-09
2.88014e-09
2.39296e-09
2.81514e-09
2.77522e-09
3.18395e-09
2.26886e-09
3.16767e-09
2.33766e-09
2.41914e-09
2.43051e-09
4.21638e-09
2.72185e-09
4.07231e-09
2.81702e-09
2.4736e-09
3.18588e-09
2.49355e-09
2.39568e-09
2.38159e-09
2.83787e-09
2.36141e-09
2.73677e-09
2.3394e-09
2.78834e-09
2.77229e-09
3.16955e-09
2.36647e-09
3.19126e-09
2.47093e-09
2.45249e-09
2.50484e-09
4.03924e-09
2.85913e-09
3.97918e-09
3.01011e-09
2.50657e-09
3.37815e-09
2.56755e-09
2.40112e-09
2.42664e-09
2.71056e-09
2.4592e-09
2.66267e-09
2.33939e-09
2.79316e-09
2.79265e-09
3.20278e-09
2.5171e-09
3.26403e-09
2.6889e-09
2.54129e-09
2.65646e-09
3.96244e-09
3.06355e-09
3.91821e-09
3.25486e-09
2.59876e-09
3.62096e-09
2.72841e-09
2.45931e-09
2.54038e-09
2.66451e-09
2.63113e-09
2.70491e-09
2.41522e-09
2.83167e-09
2.91274e-09
3.29541e-09
2.75402e-09
3.47098e-09
2.99988e-09
2.72352e-09
2.92343e-09
3.90242e-09
3.33103e-09
3.88346e-09
3.62006e-09
2.78655e-09
4.02134e-09
3.01039e-09
2.59701e-09
2.76744e-09
2.7369e-09
2.90726e-09
2.88528e-09
2.60079e-09
2.98829e-09
3.19165e-09
3.54134e-09
3.10579e-09
3.85542e-09
3.48147e-09
3.02981e-09
3.37883e-09
3.90663e-09
3.74734e-09
3.98228e-09
4.19089e-09
3.09985e-09
4.62892e-09
3.47631e-09
2.86303e-09
3.17548e-09
2.94742e-09
3.34352e-09
3.23158e-09
2.95529e-09
3.32943e-09
3.80346e-09
3.97727e-09
3.63953e-09
4.58632e-09
4.23336e-09
3.53454e-09
4.07157e-09
4.05633e-09
4.36922e-09
4.40501e-09
5.04766e-09
3.61895e-09
5.45339e-09
4.21058e-09
3.33217e-09
3.86469e-09
3.35066e-09
4.00464e-09
3.81265e-09
3.60026e-09
4.05454e-09
4.90449e-09
4.841e-09
4.48818e-09
5.59307e-09
5.36944e-09
4.34353e-09
5.21892e-09
4.58496e-09
5.3012e-09
5.38841e-09
6.20238e-09
4.43594e-09
6.55748e-09
5.32483e-09
4.12569e-09
5.03311e-09
4.02316e-09
5.02584e-09
4.76985e-09
4.71502e-09
5.30922e-09
6.98707e-09
5.92971e-09
5.71611e-09
7.29077e-09
7.10056e-09
5.63201e-09
7.17579e-09
5.7003e-09
6.58242e-09
7.09273e-09
7.8265e-09
5.70465e-09
7.97272e-09
6.89486e-09
5.43857e-09
7.03013e-09
5.08267e-09
6.55533e-09
6.24857e-09
6.75786e-09
7.70566e-09
1.04636e-08
7.65405e-09
7.68017e-09
9.39394e-09
9.91375e-09
7.91311e-09
1.09328e-08
7.74773e-09
8.27838e-09
9.55791e-09
9.89443e-09
7.43667e-09
1.0008e-08
9.47569e-09
7.74137e-09
1.03204e-08
6.63967e-09
8.73837e-09
8.53228e-09
1.08083e-08
1.17001e-08
1.65221e-08
1.01202e-08
1.08158e-08
1.25701e-08
1.42477e-08
1.19842e-08
1.71635e-08
1.04533e-08
1.05633e-08
1.36358e-08
1.27649e-08
1.02794e-08
1.27677e-08
1.31547e-08
1.15345e-08
1.63347e-08
9.36693e-09
1.20305e-08
1.14316e-08
1.53801e-08
1.84328e-08
2.56302e-08
1.35813e-08
1.55249e-08
1.67659e-08
2.04549e-08
1.91505e-08
2.79321e-08
1.48672e-08
1.36096e-08
1.82316e-08
1.67417e-08
1.40491e-08
1.71025e-08
1.85193e-08
1.80463e-08
2.4967e-08
1.22562e-08
1.63279e-08
1.6555e-08
2.84108e-08
2.8456e-08
4.60852e-08
1.8362e-08
2.19272e-08
2.39567e-08
2.78885e-08
3.09089e-08
4.63133e-08
1.95363e-08
1.80445e-08
2.53135e-08
2.30531e-08
2.05548e-08
2.30212e-08
2.51424e-08
2.78214e-08
4.38078e-08
1.81971e-08
2.30301e-08
2.24472e-08
4.57418e-08
5.02421e-08
6.06536e-08
2.55831e-08
3.06743e-08
3.09739e-08
3.66883e-08
5.20694e-08
6.61689e-08
2.69639e-08
2.48181e-08
3.15128e-08
3.06406e-08
2.69569e-08
3.04316e-08
3.49503e-08
4.84906e-08
6.49049e-08
2.41176e-08
3.07786e-08
3.11438e-08
6.98843e-08
6.54867e-08
9.93819e-08
3.34108e-08
3.83427e-08
4.21035e-08
4.69298e-08
7.00332e-08
1.09165e-07
3.37842e-08
3.2966e-08
4.37292e-08
4.14306e-08
3.73312e-08
4.22147e-08
4.42104e-08
7.02944e-08
9.92327e-08
3.33578e-08
4.14753e-08
4.02165e-08
9.63458e-08
1.09719e-07
1.5065e-07
4.54906e-08
5.09519e-08
5.62651e-08
5.99496e-08
1.23034e-07
1.4837e-07
4.71235e-08
4.46762e-08
5.71158e-08
5.50494e-08
4.70576e-08
5.37902e-08
5.90915e-08
1.08082e-07
1.47165e-07
4.36049e-08
5.50498e-08
5.57215e-08
1.58715e-07
1.60489e-07
2.04224e-07
5.98045e-08
6.27113e-08
7.11549e-08
7.40701e-08
1.53921e-07
1.93775e-07
6.09965e-08
5.87545e-08
7.30475e-08
7.13889e-08
6.2648e-08
6.93528e-08
7.23268e-08
1.57719e-07
2.06866e-07
5.89249e-08
7.13706e-08
6.88887e-08
1.93413e-07
2.16643e-07
2.71426e-07
7.54637e-08
7.91677e-08
8.97657e-08
9.53118e-08
2.10797e-07
2.79671e-07
7.68657e-08
7.59397e-08
8.96358e-08
8.96201e-08
7.59692e-08
8.96141e-08
9.24358e-08
2.20089e-07
2.72771e-07
7.3221e-08
8.98414e-08
9.00932e-08
2.72788e-07
2.86083e-07
3.49795e-07
9.52455e-08
1.0037e-07
1.12749e-07
1.15767e-07
2.9411e-07
3.53794e-07
9.48448e-08
9.47789e-08
1.1236e-07
1.12544e-07
9.96759e-08
1.13418e-07
1.18506e-07
2.86402e-07
3.48556e-07
9.60082e-08
1.12632e-07
1.13405e-07
3.57438e-07
3.66e-07
4.28504e-07
1.18512e-07
1.20845e-07
1.37556e-07
1.37004e-07
3.69245e-07
4.25541e-07
1.18341e-07
1.18802e-07
1.37276e-07
1.38221e-07
1.23453e-07
1.36125e-07
1.38618e-07
3.65288e-07
4.28697e-07
1.19008e-07
1.37979e-07
1.37288e-07
4.25658e-07
4.44512e-07
5.02924e-07
1.44612e-07
1.43452e-07
1.66309e-07
1.67078e-07
4.40893e-07
5.04752e-07
1.44432e-07
1.44901e-07
1.66023e-07
1.66658e-07
1.44863e-07
1.66106e-07
1.66437e-07
4.44422e-07
5.0356e-07
1.44096e-07
1.6635e-07
1.65317e-07
5.01776e-07
5.18162e-07
5.71527e-07
1.7352e-07
1.75085e-07
1.97104e-07
1.97454e-07
5.21179e-07
5.72145e-07
1.73052e-07
1.74509e-07
1.96787e-07
1.9792e-07
1.74353e-07
1.96595e-07
1.9908e-07
5.19263e-07
5.72638e-07
1.7334e-07
1.98049e-07
1.97958e-07
5.73109e-07
5.86541e-07
6.37627e-07
2.06066e-07
2.04868e-07
2.33082e-07
2.32097e-07
5.86204e-07
6.36396e-07
2.05687e-07
2.05843e-07
2.32685e-07
2.32436e-07
2.06703e-07
2.3094e-07
2.33906e-07
5.87243e-07
6.36437e-07
2.05574e-07
2.32603e-07
2.32876e-07
6.38927e-07
6.52076e-07
6.94889e-07
2.41787e-07
2.42801e-07
2.70532e-07
2.72281e-07
6.5131e-07
6.95828e-07
2.41875e-07
2.42279e-07
2.7004e-07
2.71453e-07
2.44797e-07
2.71495e-07
2.74726e-07
6.50776e-07
6.9473e-07
2.42877e-07
2.71514e-07
2.71031e-07
6.95854e-07
7.0755e-07
7.4413e-07
2.80633e-07
2.80632e-07
3.09497e-07
3.08761e-07
7.086e-07
7.44113e-07
2.80088e-07
2.80374e-07
3.09281e-07
3.10571e-07
2.84342e-07
3.07677e-07
3.14467e-07
7.07834e-07
7.46277e-07
2.80393e-07
3.11479e-07
3.10213e-07
7.46777e-07
7.55998e-07
7.90337e-07
3.19074e-07
3.20612e-07
3.52043e-07
3.52881e-07
7.55905e-07
7.89985e-07
3.19013e-07
3.21932e-07
3.5182e-07
3.55368e-07
3.24375e-07
3.52799e-07
3.54482e-07
7.58171e-07
7.92459e-07
3.20316e-07
3.58027e-07
3.52213e-07
7.85961e-07
8.01846e-07
8.32428e-07
3.63984e-07
3.62614e-07
3.98124e-07
3.95644e-07
8.00804e-07
8.29628e-07
3.63809e-07
3.66219e-07
3.97376e-07
4.01236e-07
3.65287e-07
3.93505e-07
3.99929e-07
8.03867e-07
8.36212e-07
3.63416e-07
4.06353e-07
3.97462e-07
8.34465e-07
8.42747e-07
8.71188e-07
4.09619e-07
4.07696e-07
4.45048e-07
4.4457e-07
8.40265e-07
8.70783e-07
4.08399e-07
4.14064e-07
4.45396e-07
4.4628e-07
4.11478e-07
4.43728e-07
4.50465e-07
8.46494e-07
8.68871e-07
4.09471e-07
4.48666e-07
4.51859e-07
8.7645e-07
8.80962e-07
9.04513e-07
4.56927e-07
4.56668e-07
4.93606e-07
4.92285e-07
8.80599e-07
9.04185e-07
4.57152e-07
4.55429e-07
4.91326e-07
4.87394e-07
4.64644e-07
4.91835e-07
4.97306e-07
8.77037e-07
9.00739e-07
4.64433e-07
4.89812e-07
4.95051e-07
9.05715e-07
9.13141e-07
9.36518e-07
5.0501e-07
5.04279e-07
5.37474e-07
5.38441e-07
9.13113e-07
9.373e-07
5.03183e-07
4.99971e-07
5.38346e-07
5.41664e-07
5.06842e-07
5.37563e-07
5.36764e-07
9.10274e-07
9.38641e-07
5.04724e-07
5.40536e-07
5.35621e-07
9.3524e-07
9.45402e-07
9.70374e-07
5.4987e-07
5.50258e-07
5.91256e-07
5.90023e-07
9.45882e-07
9.6838e-07
5.50836e-07
5.57442e-07
5.91489e-07
6.05366e-07
5.48044e-07
5.8933e-07
5.90407e-07
9.49478e-07
9.77221e-07
5.47799e-07
5.99012e-07
5.91313e-07
9.72239e-07
9.79008e-07
1.00095e-06
6.04423e-07
6.03039e-07
6.39919e-07
6.38929e-07
9.76897e-07
1.00063e-06
6.04828e-07
6.15776e-07
6.40482e-07
6.41659e-07
6.05073e-07
6.38742e-07
6.43945e-07
9.84007e-07
9.99459e-07
6.05572e-07
6.40114e-07
6.439e-07
1.00373e-06
1.00845e-06
1.02779e-06
6.50812e-07
6.50348e-07
6.85529e-07
6.85119e-07
1.0088e-06
1.02917e-06
6.50925e-07
6.51859e-07
6.8343e-07
6.83018e-07
6.55429e-07
6.84807e-07
6.82693e-07
1.00694e-06
1.02835e-06
6.53338e-07
6.81961e-07
6.75503e-07
1.02442e-06
1.03481e-06
1.05267e-06
6.97176e-07
6.95566e-07
7.28927e-07
7.26552e-07
1.03568e-06
1.05236e-06
6.94896e-07
6.92381e-07
7.28168e-07
7.25649e-07
6.91328e-07
7.25452e-07
7.23838e-07
1.03524e-06
1.05224e-06
6.84297e-07
7.26236e-07
7.24855e-07
1.05075e-06
1.05946e-06
1.08298e-06
7.39144e-07
7.37721e-07
7.73291e-07
7.72586e-07
1.0596e-06
1.08144e-06
7.38637e-07
7.39295e-07
7.7204e-07
7.77312e-07
7.37274e-07
7.72397e-07
7.75968e-07
1.0597e-06
1.08299e-06
7.40154e-07
7.76299e-07
7.83613e-07
1.08513e-06
1.09195e-06
1.11543e-06
7.86565e-07
7.84585e-07
8.20639e-07
8.21156e-07
1.0893e-06
1.11574e-06
7.85796e-07
7.89654e-07
8.22034e-07
8.25191e-07
7.8833e-07
8.21706e-07
8.27799e-07
1.091e-06
1.11808e-06
7.97827e-07
8.23739e-07
8.40495e-07
1.12817e-06
1.12176e-06
1.13962e-06
8.30398e-07
8.31003e-07
8.60612e-07
8.56107e-07
1.12303e-06
1.13819e-06
8.3133e-07
8.34883e-07
8.6034e-07
8.56414e-07
8.36243e-07
8.56047e-07
8.54668e-07
1.12535e-06
1.13719e-06
8.46387e-07
8.54271e-07
8.54069e-07
1.14246e-06
1.14642e-06
1.16322e-06
8.7032e-07
8.64888e-07
8.94102e-07
8.93075e-07
1.14358e-06
1.1579e-06
8.7085e-07
8.63216e-07
8.9689e-07
8.90346e-07
8.64301e-07
8.92066e-07
8.94305e-07
1.14153e-06
1.15582e-06
8.63406e-07
8.89302e-07
8.92578e-07
1.15815e-06
1.16882e-06
1.18732e-06
9.02098e-07
9.02503e-07
9.2946e-07
9.31777e-07
1.16418e-06
1.18928e-06
9.04486e-07
9.00595e-07
9.30759e-07
9.32119e-07
9.03826e-07
9.31958e-07
9.29532e-07
1.16256e-06
1.187e-06
9.02054e-07
9.31522e-07
9.27861e-07
1.18778e-06
1.19384e-06
1.2072e-06
9.37587e-07
9.40544e-07
9.58202e-07
9.5932e-07
1.19642e-06
1.20936e-06
9.39122e-07
9.4265e-07
9.59669e-07
9.64557e-07
9.36651e-07
9.59982e-07
9.51615e-07
1.19487e-06
1.21273e-06
9.3609e-07
9.64543e-07
9.54518e-07
1.20512e-06
1.21183e-06
1.22785e-06
9.66064e-07
9.65592e-07
9.91362e-07
9.89458e-07
1.2138e-06
1.22799e-06
9.66664e-07
9.68791e-07
9.89654e-07
9.85491e-07
9.58806e-07
9.88617e-07
9.88535e-07
1.21678e-06
1.22724e-06
9.61682e-07
9.84905e-07
9.90581e-07
1.22846e-06
1.2342e-06
1.25427e-06
9.9966e-07
9.98192e-07
1.02414e-06
1.02407e-06
1.23408e-06
1.255e-06
9.97726e-07
9.93945e-07
1.0226e-06
1.02139e-06
9.9902e-07
1.02404e-06
1.0268e-06
1.23288e-06
1.25123e-06
1.00074e-06
1.0227e-06
1.02784e-06
1.25744e-06
1.26134e-06
1.28172e-06
1.0322e-06
1.03267e-06
1.0524e-06
1.05121e-06
1.26228e-06
1.28089e-06
1.03102e-06
1.03017e-06
1.05295e-06
1.05541e-06
1.03586e-06
1.0525e-06
1.05565e-06
1.25766e-06
1.28192e-06
1.03648e-06
1.05585e-06
1.05532e-06
1.28753e-06
1.28653e-06
1.29376e-06
1.05696e-06
1.05503e-06
1.06857e-06
1.06599e-06
1.285e-06
1.29028e-06
1.05782e-06
1.06223e-06
1.06931e-06
1.07185e-06
1.05845e-06
1.06539e-06
1.06615e-06
1.28833e-06
1.29746e-06
1.05818e-06
1.07063e-06
1.06582e-06
1.29584e-06
1.29719e-06
1.30605e-06
1.0733e-06
1.07101e-06
1.0903e-06
1.08896e-06
1.29359e-06
1.3034e-06
1.07371e-06
1.07474e-06
1.09033e-06
1.08871e-06
1.07053e-06
1.08928e-06
1.08846e-06
1.30074e-06
1.30729e-06
1.07003e-06
1.08848e-06
1.08731e-06
1.30357e-06
1.31072e-06
1.32692e-06
1.09623e-06
1.09539e-06
1.11425e-06
1.116e-06
1.3086e-06
1.32864e-06
1.09616e-06
1.09453e-06
1.11323e-06
1.11251e-06
1.09484e-06
1.11608e-06
1.11395e-06
1.31118e-06
1.32356e-06
1.09358e-06
1.11266e-06
1.11251e-06
1.32357e-06
1.33312e-06
1.3479e-06
1.12057e-06
1.12311e-06
1.13615e-06
1.13637e-06
1.33575e-06
1.35099e-06
1.11941e-06
1.11801e-06
1.13641e-06
1.13587e-06
1.12021e-06
1.13805e-06
1.13572e-06
1.32935e-06
1.34662e-06
1.11867e-06
1.13572e-06
1.13415e-06
1.34857e-06
1.35221e-06
1.36053e-06
1.14076e-06
1.1394e-06
1.15442e-06
1.14998e-06
1.35457e-06
1.35971e-06
1.14125e-06
1.14128e-06
1.15465e-06
1.15499e-06
1.13867e-06
1.14921e-06
1.1502e-06
1.35161e-06
1.36146e-06
1.13747e-06
1.15381e-06
1.14992e-06
1.35986e-06
1.36437e-06
1.37624e-06
1.15867e-06
1.15417e-06
1.17131e-06
1.16693e-06
1.36282e-06
1.36903e-06
1.15855e-06
1.15908e-06
1.17032e-06
1.16995e-06
1.15535e-06
1.167e-06
1.17024e-06
1.36505e-06
1.37411e-06
1.15515e-06
1.16985e-06
1.17003e-06
1.37125e-06
1.38109e-06
1.38928e-06
1.1756e-06
1.17136e-06
1.18651e-06
1.18619e-06
1.37312e-06
1.38708e-06
1.17486e-06
1.17427e-06
1.18637e-06
1.18786e-06
1.17487e-06
1.18657e-06
1.1889e-06
1.37916e-06
1.39117e-06
1.17463e-06
1.18846e-06
1.18869e-06
1.39243e-06
1.39205e-06
1.3969e-06
1.18911e-06
1.19037e-06
1.19764e-06
1.19982e-06
1.39214e-06
1.40117e-06
1.18904e-06
1.19081e-06
1.197e-06
1.19702e-06
1.19288e-06
1.2013e-06
1.19715e-06
1.39434e-06
1.39721e-06
1.19221e-06
1.19704e-06
1.19575e-06
1.3999e-06
1.40107e-06
1.41216e-06
1.20207e-06
1.20334e-06
1.21612e-06
1.21503e-06
1.4047e-06
1.41237e-06
1.2011e-06
1.19973e-06
1.21536e-06
1.21202e-06
1.19867e-06
1.21434e-06
1.21161e-06
1.40015e-06
1.40847e-06
1.19735e-06
1.20982e-06
1.21037e-06
1.40634e-06
1.41591e-06
1.42561e-06
1.21991e-06
1.21886e-06
1.23012e-06
1.22989e-06
1.41622e-06
1.42672e-06
1.21918e-06
1.21618e-06
1.22912e-06
1.22898e-06
1.21659e-06
1.22883e-06
1.23106e-06
1.41253e-06
1.42333e-06
1.21545e-06
1.22916e-06
1.23054e-06
1.42414e-06
1.43051e-06
1.43869e-06
1.23365e-06
1.23312e-06
1.23984e-06
1.23918e-06
1.4311e-06
1.43782e-06
1.23265e-06
1.23357e-06
1.24047e-06
1.24719e-06
1.2354e-06
1.241e-06
1.24718e-06
1.42838e-06
1.44427e-06
1.23515e-06
1.24906e-06
1.24786e-06
1.44726e-06
1.44113e-06
1.44449e-06
1.2408e-06
1.24138e-06
1.25046e-06
1.2508e-06
1.44059e-06
1.44444e-06
1.24251e-06
1.25038e-06
1.25085e-06
1.25518e-06
1.24893e-06
1.25172e-06
1.25037e-06
1.44893e-06
1.45446e-06
1.24987e-06
1.25723e-06
1.25144e-06
1.4497e-06
1.44778e-06
1.4572e-06
1.25479e-06
1.2541e-06
1.26715e-06
1.26303e-06
1.44747e-06
1.45529e-06
1.25437e-06
1.25576e-06
1.26501e-06
1.25661e-06
1.25153e-06
1.26237e-06
1.26009e-06
1.45639e-06
1.45322e-06
1.25213e-06
1.25538e-06
1.25851e-06
1.45118e-06
1.46191e-06
1.47433e-06
1.27068e-06
1.26587e-06
1.27905e-06
1.274e-06
1.45956e-06
1.46829e-06
1.2681e-06
1.25776e-06
1.27554e-06
1.26653e-06
1.26286e-06
1.27109e-06
1.27029e-06
1.45464e-06
1.45551e-06
1.26063e-06
1.26214e-06
1.26649e-06
1.46118e-06
1.47757e-06
1.47558e-06
1.27996e-06
1.27553e-06
1.27686e-06
1.27863e-06
1.47117e-06
1.47365e-06
1.27659e-06
1.26981e-06
1.27666e-06
1.27921e-06
1.27255e-06
1.27966e-06
1.27988e-06
1.45858e-06
1.46831e-06
1.26928e-06
1.27809e-06
1.27852e-06
1.47368e-06
1.47681e-06
1.47361e-06
1.27585e-06
1.27973e-06
1.27784e-06
1.28412e-06
1.47604e-06
1.47954e-06
1.27663e-06
1.28244e-06
1.28273e-06
1.29106e-06
1.28198e-06
1.28754e-06
1.28773e-06
1.47322e-06
1.48619e-06
1.28118e-06
1.29273e-06
1.28908e-06
1.48342e-06
1.4757e-06
1.4811e-06
1.28118e-06
1.28593e-06
1.29109e-06
1.29154e-06
1.48256e-06
1.48808e-06
1.28557e-06
1.29237e-06
1.29353e-06
1.29435e-06
1.2896e-06
1.29377e-06
1.29456e-06
1.48986e-06
1.49315e-06
1.29175e-06
1.29665e-06
1.29628e-06
1.49226e-06
1.48516e-06
1.49691e-06
1.29409e-06
1.29342e-06
1.30227e-06
1.29897e-06
1.4909e-06
1.49398e-06
1.29577e-06
1.29507e-06
1.30196e-06
1.29677e-06
1.29532e-06
1.29664e-06
1.29609e-06
1.4952e-06
1.49437e-06
1.29645e-06
1.29573e-06
1.29605e-06
1.4922e-06
1.50056e-06
1.50468e-06
1.30417e-06
1.30051e-06
1.30777e-06
1.30473e-06
1.49636e-06
1.49907e-06
1.30293e-06
1.29733e-06
1.30636e-06
1.30416e-06
1.29718e-06
1.30231e-06
1.3028e-06
1.49606e-06
1.49735e-06
1.29646e-06
1.3029e-06
1.30265e-06
1.49645e-06
1.50717e-06
1.50943e-06
1.3087e-06
1.30629e-06
1.31108e-06
1.31139e-06
1.50177e-06
1.50661e-06
1.30784e-06
1.30639e-06
1.3109e-06
1.31199e-06
1.30505e-06
1.31141e-06
1.31215e-06
1.49993e-06
1.50676e-06
1.30497e-06
1.31222e-06
1.31198e-06
1.50879e-06
1.51177e-06
1.51048e-06
1.31168e-06
1.31296e-06
1.31175e-06
1.31633e-06
1.50978e-06
1.51499e-06
1.31145e-06
1.31331e-06
1.31065e-06
1.31485e-06
1.31448e-06
1.31755e-06
1.31751e-06
1.51072e-06
1.51529e-06
1.31419e-06
1.31632e-06
1.31704e-06
1.51644e-06
1.51166e-06
1.504e-06
1.31073e-06
1.31653e-06
1.30831e-06
1.31373e-06
1.51719e-06
1.51414e-06
1.30906e-06
1.3136e-06
1.30616e-06
1.30991e-06
1.31712e-06
1.31432e-06
1.31274e-06
1.51663e-06
1.50976e-06
1.3163e-06
1.31156e-06
1.31178e-06
1.51136e-06
1.50527e-06
1.50828e-06
1.30824e-06
1.31264e-06
1.31345e-06
1.31231e-06
1.51538e-06
1.51244e-06
1.30632e-06
1.30964e-06
1.31435e-06
1.31384e-06
1.31155e-06
1.31277e-06
1.31111e-06
1.5109e-06
1.51046e-06
1.31074e-06
1.31341e-06
1.3108e-06
1.50931e-06
1.51217e-06
1.52488e-06
1.31621e-06
1.31421e-06
1.32427e-06
1.3209e-06
1.51457e-06
1.51816e-06
1.31772e-06
1.31647e-06
1.32694e-06
1.32448e-06
1.31302e-06
1.32016e-06
1.32074e-06
1.51348e-06
1.52207e-06
1.31305e-06
1.32266e-06
1.32117e-06
1.51789e-06
1.53001e-06
1.53577e-06
1.32655e-06
1.32276e-06
1.32953e-06
1.32616e-06
1.52134e-06
1.52742e-06
1.3294e-06
1.32677e-06
1.33035e-06
1.32983e-06
1.3232e-06
1.32457e-06
1.32863e-06
1.52627e-06
1.53258e-06
1.32379e-06
1.32901e-06
1.32968e-06
1.53206e-06
1.53709e-06
1.52541e-06
1.32816e-06
1.32631e-06
1.32033e-06
1.3217e-06
1.52977e-06
1.5249e-06
1.32732e-06
1.32841e-06
1.31757e-06
1.31984e-06
1.32907e-06
1.3204e-06
1.32403e-06
1.53423e-06
1.52646e-06
1.33015e-06
1.32202e-06
1.32456e-06
1.53101e-06
1.52596e-06
1.51452e-06
1.31806e-06
1.32006e-06
1.31509e-06
1.31829e-06
1.52595e-06
1.52051e-06
1.31494e-06
1.31728e-06
1.31181e-06
1.31365e-06
1.32165e-06
1.31834e-06
1.31706e-06
1.52725e-06
1.51697e-06
1.32182e-06
1.31521e-06
1.31595e-06
1.52089e-06
1.51622e-06
1.52189e-06
1.31598e-06
1.3191e-06
1.32235e-06
1.32382e-06
1.52259e-06
1.52814e-06
1.31328e-06
1.31419e-06
1.32129e-06
1.32094e-06
1.31667e-06
1.3244e-06
1.3197e-06
1.51835e-06
1.52175e-06
1.31521e-06
1.32023e-06
1.31791e-06
1.52065e-06
1.52597e-06
1.53413e-06
1.32401e-06
1.32504e-06
1.32606e-06
1.32604e-06
1.53186e-06
1.5355e-06
1.32339e-06
1.32284e-06
1.32633e-06
1.32569e-06
1.32087e-06
1.32588e-06
1.32215e-06
1.52539e-06
1.53295e-06
1.31937e-06
1.32456e-06
1.32171e-06
1.5276e-06
1.5361e-06
1.5285e-06
1.32522e-06
1.32444e-06
1.31734e-06
1.31606e-06
1.53678e-06
1.52546e-06
1.32556e-06
1.3253e-06
1.31743e-06
1.31858e-06
1.3218e-06
1.3145e-06
1.31651e-06
1.53518e-06
1.5286e-06
1.3219e-06
1.31892e-06
1.31839e-06
1.52597e-06
1.52934e-06
1.5188e-06
1.31484e-06
1.31342e-06
1.30983e-06
1.30818e-06
1.52607e-06
1.51394e-06
1.31489e-06
1.31635e-06
1.30975e-06
1.31135e-06
1.31479e-06
1.30647e-06
1.31202e-06
1.5295e-06
1.52005e-06
1.31688e-06
1.31209e-06
1.31424e-06
1.52147e-06
1.52003e-06
1.51979e-06
1.30939e-06
1.30796e-06
1.31103e-06
1.31103e-06
1.51525e-06
1.51755e-06
1.30922e-06
1.31056e-06
1.31018e-06
1.30995e-06
1.31203e-06
1.31026e-06
1.31307e-06
1.52131e-06
1.5206e-06
1.31401e-06
1.31075e-06
1.3138e-06
1.52399e-06
1.52222e-06
1.52369e-06
1.31162e-06
1.31204e-06
1.31169e-06
1.31283e-06
1.52078e-06
1.52568e-06
1.31051e-06
1.30986e-06
1.30991e-06
1.30761e-06
1.31311e-06
1.31247e-06
1.31048e-06
1.5227e-06
1.5213e-06
1.31353e-06
1.30815e-06
1.30939e-06
1.52542e-06
1.52517e-06
1.51894e-06
1.31065e-06
1.31195e-06
1.30476e-06
1.30534e-06
1.52754e-06
1.52204e-06
1.30881e-06
1.30651e-06
1.3037e-06
1.30267e-06
1.30894e-06
1.30554e-06
1.30426e-06
1.52263e-06
1.51641e-06
1.30778e-06
1.30304e-06
1.3034e-06
1.5186e-06
1.52009e-06
1.5148e-06
1.30301e-06
1.30346e-06
1.29883e-06
1.29927e-06
1.5232e-06
1.51664e-06
1.30227e-06
1.30185e-06
1.29903e-06
1.30073e-06
1.30333e-06
1.3002e-06
1.30129e-06
1.51768e-06
1.51598e-06
1.30254e-06
1.30074e-06
1.30087e-06
1.51522e-06
1.51635e-06
1.51522e-06
1.29823e-06
1.29863e-06
1.29703e-06
1.29751e-06
1.51803e-06
1.51533e-06
1.29866e-06
1.3008e-06
1.29772e-06
1.30021e-06
1.30107e-06
1.29822e-06
1.2978e-06
1.51816e-06
1.5186e-06
1.3007e-06
1.29943e-06
1.29725e-06
1.5166e-06
1.51677e-06
1.51063e-06
1.29655e-06
1.29689e-06
1.28985e-06
1.28907e-06
1.51662e-06
1.50927e-06
1.29704e-06
1.29907e-06
1.2896e-06
1.28966e-06
1.29555e-06
1.28799e-06
1.28721e-06
1.51993e-06
1.51136e-06
1.2953e-06
1.28891e-06
1.28754e-06
1.50988e-06
1.5118e-06
1.50144e-06
1.28776e-06
1.2867e-06
1.28005e-06
1.27885e-06
1.51034e-06
1.49977e-06
1.28736e-06
1.28698e-06
1.2795e-06
1.27885e-06
1.28518e-06
1.27803e-06
1.27877e-06
1.51232e-06
1.50022e-06
1.28572e-06
1.27924e-06
1.27972e-06
1.49842e-06
1.50229e-06
1.49435e-06
1.27852e-06
1.27744e-06
1.27358e-06
1.27343e-06
1.5007e-06
1.49393e-06
1.27792e-06
1.27726e-06
1.27325e-06
1.27351e-06
1.27749e-06
1.27333e-06
1.27452e-06
1.50105e-06
1.49385e-06
1.27848e-06
1.27428e-06
1.2754e-06
1.49513e-06
1.49595e-06
1.49311e-06
1.27326e-06
1.27321e-06
1.26834e-06
1.26873e-06
1.49554e-06
1.49248e-06
1.27301e-06
1.27334e-06
1.26838e-06
1.26864e-06
1.27381e-06
1.26813e-06
1.26588e-06
1.49546e-06
1.49252e-06
1.27444e-06
1.26775e-06
1.26571e-06
1.49257e-06
1.49462e-06
1.47053e-06
1.26726e-06
1.26748e-06
1.24207e-06
1.24165e-06
1.49399e-06
1.47056e-06
1.26733e-06
1.26751e-06
1.24215e-06
1.242e-06
1.26509e-06
1.24168e-06
1.24136e-06
1.49404e-06
1.47062e-06
1.26483e-06
1.24165e-06
1.24102e-06
1.46882e-06
1.44941e-06
1.20451e-06
1.20406e-06
1.44963e-06
1.20457e-06
1.20453e-06
7.608e-07
7.61203e-07
7.60971e-07
1.20461e-06
1.44972e-06
1.20437e-06
2.22207e-10
2.87681e-09
2.14279e-10
3.23711e-10
5.15458e-09
4.36206e-09
1.06259e-08
1.3506e-09
5.52398e-09
3.82377e-09
1.13051e-09
3.19584e-09
5.13848e-09
4.83998e-09
6.68717e-09
7.34586e-09
1.75063e-07
5.98167e-09
2.75028e-07
1.62368e-06
3.18954e-06
8.79042e-09
2.95593e-07
7.36297e-09
3.4809e-07
1.54882e-09
1.48661e-09
1.49285e-09
1.65408e-09
1.54056e-09
1.46883e-09
1.4853e-09
4.6381e-09
9.68798e-08
4.15876e-09
5.92919e-09
4.80219e-09
7.38166e-08
4.06403e-09
1.51354e-06
3.22127e-06
4.78695e-09
2.96424e-09
7.30461e-08
3.72397e-09
5.0502e-09
2.93943e-09
5.25006e-08
2.1322e-07
2.15961e-07
4.74303e-09
1.83232e-07
1.84796e-07
1.67133e-08
4.89452e-07
1.21262e-08
6.92785e-07
7.15556e-06
1.0207e-05
1.79664e-08
4.56785e-07
1.3362e-08
6.56214e-07
1.5245e-09
1.44412e-09
1.47009e-09
1.58582e-09
1.4724e-09