/*--------------------------------*- C++ -*----------------------------------*\
| =========                 |                                                 |
| \\      /  F ield         | OpenFOAM: The Open Source CFD Toolbox           |
|  \\    /   O peration     | Version:  v2012                                 |
|   \\  /    A nd           | Website:  www.openfoam.com                      |
|    \\/     M anipulation  |                                                 |
\*---------------------------------------------------------------------------*/
FoamFile
{
    version     2.0;
    format      ascii;
    class       volScalarField;
    location    "1012.5";
    object      k;
}
// * * * * * * * * * * * * * * * * * * * * * * * * * * * * * * * * * * * * * //

dimensions      [0 2 -2 0 0 0 0];


internalField   nonuniform List<scalar> 
171728
(
1.77247e-07
3.72293e-07
2.62714e-07
3.51444e-07
1.76131e-07
3.62345e-07
2.50767e-07
3.33977e-07
1.72474e-07
3.51661e-07
2.39313e-07
3.17856e-07
1.69295e-07
3.34645e-07
2.29119e-07
3.0185e-07
1.66322e-07
3.10903e-07
2.21666e-07
2.86045e-07
1.63558e-07
2.74651e-07
2.16132e-07
2.71567e-07
1.60642e-07
2.47201e-07
2.11971e-07
2.60093e-07
1.5768e-07
2.32723e-07
2.09027e-07
2.50211e-07
1.53788e-07
2.22896e-07
2.06427e-07
2.42344e-07
1.50001e-07
2.15697e-07
2.02884e-07
2.42364e-07
1.45889e-07
2.10275e-07
1.99024e-07
2.45336e-07
1.42979e-07
2.09738e-07
1.9521e-07
2.45252e-07
1.4e-07
2.11035e-07
1.92074e-07
2.3887e-07
1.39664e-07
2.19613e-07
1.89737e-07
2.18826e-07
1.3952e-07
2.45437e-07
1.90364e-07
2.04754e-07
1.297e-07
2.90998e-07
1.95498e-07
1.98956e-07
1.18163e-07
3.61123e-07
2.05918e-07
2.01953e-07
1.12708e-07
4.35765e-07
2.22936e-07
2.16522e-07
1.11354e-07
5.0828e-07
2.55004e-07
2.46483e-07
1.08918e-07
5.58474e-07
3.07482e-07
3.24836e-07
1.08186e-07
5.73237e-07
3.79604e-07
5.3024e-07
1.08748e-07
5.84372e-07
5.01385e-07
5.91324e-07
1.10289e-07
7.32867e-07
6.1578e-07
1.09977e-06
1.08621e-07
1.01714e-06
9.4976e-07
2.02373e-06
1.00277e-07
1.1408e-06
1.20293e-06
3.03743e-06
1.02138e-07
1.77482e-06
1.60246e-06
3.17121e-06
1.09703e-07
2.22213e-06
2.12085e-06
7.35554e-06
1.19758e-07
2.52774e-06
2.82639e-06
6.97971e-06
1.29358e-07
3.35972e-06
3.44543e-06
9.09879e-06
1.54115e-07
4.66658e-06
4.40577e-06
1.3331e-05
1.87179e-07
5.05507e-06
5.36069e-06
1.48522e-05
2.42067e-07
6.82375e-06
6.57683e-06
1.72438e-05
2.89975e-07
7.56917e-06
7.71589e-06
1.93823e-05
3.85001e-07
9.02268e-06
9.07725e-06
2.16969e-05
5.27429e-07
1.07784e-05
1.05339e-05
2.31478e-05
6.51664e-07
1.17454e-05
1.24592e-05
2.57436e-05
8.57486e-07
1.43355e-05
1.34468e-05
2.66426e-05
1.07251e-06
1.47614e-05
1.53434e-05
2.7135e-05
1.41377e-06
1.72621e-05
1.90499e-05
2.96067e-05
1.90412e-06
1.92328e-05
1.94186e-05
3.12282e-05
2.10655e-06
2.03716e-05
1.90239e-05
3.137e-05
2.85744e-06
2.31333e-05
2.36508e-05
3.24282e-05
3.28556e-06
2.38946e-05
2.57251e-05
3.42788e-05
4.3966e-06
2.674e-05
2.59676e-05
3.60031e-05
5.20199e-06
2.8592e-05
2.81516e-05
3.58118e-05
5.24004e-06
2.83407e-05
2.88774e-05
3.51536e-05
7.09812e-06
3.12567e-05
3.1067e-05
4.01372e-05
8.3465e-06
3.40584e-05
3.43982e-05
4.10865e-05
9.19067e-06
3.34738e-05
3.38681e-05
3.90389e-05
1.09127e-05
3.49365e-05
3.38363e-05
4.20309e-05
1.25425e-05
3.7949e-05
3.81947e-05
4.30436e-05
1.33172e-05
3.77516e-05
3.86271e-05
4.20116e-05
1.4078e-05
3.78874e-05
3.8019e-05
4.27605e-05
1.63841e-05
4.12517e-05
4.03269e-05
4.6284e-05
1.98304e-05
4.2429e-05
4.292e-05
4.7132e-05
2.0469e-05
4.18611e-05
4.25922e-05
4.5869e-05
2.02183e-05
4.20406e-05
4.2305e-05
4.57771e-05
2.2717e-05
4.51597e-05
4.46384e-05
4.8735e-05
2.49319e-05
4.60875e-05
4.56345e-05
4.9093e-05
2.55313e-05
4.56155e-05
4.56097e-05
4.81175e-05
2.77852e-05
4.63637e-05
4.73963e-05
5.02477e-05
2.87155e-05
4.83696e-05
4.80984e-05
5.16534e-05
2.96965e-05
4.84337e-05
4.85193e-05
5.04567e-05
3.05221e-05
4.86873e-05
4.82653e-05
5.00924e-05
3.25046e-05
5.04629e-05
4.96085e-05
5.30795e-05
3.39349e-05
5.07686e-05
5.17746e-05
5.39439e-05
3.41361e-05
5.07481e-05
5.22591e-05
5.29053e-05
3.51222e-05
5.19705e-05
5.13491e-05
5.31104e-05
3.75639e-05
5.24586e-05
5.09221e-05
5.40002e-05
3.81751e-05
5.24841e-05
5.25031e-05
5.41566e-05
3.78333e-05
5.35259e-05
5.40761e-05
5.55851e-05
3.8191e-05
5.40377e-05
5.45515e-05
5.577e-05
4.02846e-05
5.3968e-05
5.37885e-05
5.49201e-05
4.11372e-05
5.39185e-05
5.3595e-05
5.53578e-05
4.2279e-05
5.51087e-05
5.56416e-05
5.69254e-05
4.28367e-05
5.61085e-05
5.60547e-05
5.73395e-05
4.23942e-05
5.57077e-05
5.51249e-05
5.66299e-05
4.2256e-05
5.49679e-05
5.48107e-05
5.56716e-05
4.42654e-05
5.61376e-05
5.62784e-05
5.70088e-05
4.60473e-05
5.72274e-05
5.76616e-05
5.88956e-05
4.5683e-05
5.63471e-05
5.69813e-05
5.82696e-05
4.43323e-05
5.57907e-05
5.55906e-05
5.67103e-05
4.4749e-05
5.73317e-05
5.65517e-05
5.75717e-05
4.7011e-05
5.82548e-05
5.78578e-05
5.87013e-05
4.69958e-05
5.68714e-05
5.71306e-05
5.77064e-05
4.59038e-05
5.58108e-05
5.66112e-05
5.72373e-05
4.59404e-05
5.68877e-05
5.73062e-05
5.88423e-05
4.69522e-05
5.77704e-05
5.73497e-05
5.87419e-05
4.69627e-05
5.71288e-05
5.66249e-05
5.72484e-05
4.65777e-05
5.67924e-05
5.67968e-05
5.79972e-05
4.6923e-05
5.74673e-05
5.76584e-05
5.91446e-05
4.72911e-05
5.73507e-05
5.73798e-05
5.78695e-05
4.65126e-05
5.59635e-05
5.59854e-05
5.67632e-05
4.62499e-05
5.61976e-05
5.63512e-05
5.81415e-05
4.64171e-05
5.57688e-05
5.57686e-05
5.79458e-05
3.64372e-07
3.29835e-07
3.17361e-07
3.46101e-07
3.26e-07
3.60398e-07
1.75387e-07
1.66824e-07
1.69239e-07
1.73411e-07
2.99095e-07
3.18449e-07
3.57007e-07
2.95411e-07
3.31954e-07
3.52464e-07
3.63111e-07
3.4468e-07
3.28352e-07
4.41024e-07
3.17967e-07
3.77183e-07
3.43698e-07
3.31256e-07
3.25853e-07
5.58926e-07
3.13319e-07
5.60489e-07
3.18605e-07
3.65295e-07
3.09364e-07
3.55991e-07
3.46932e-07
3.26085e-07
2.53844e-07
3.158e-07
3.35098e-07
3.43282e-07
3.25689e-07
3.13525e-07
3.55067e-07
3.00622e-07
3.0136e-07
3.28545e-07
3.15776e-07
3.08975e-07
5.58213e-07
2.97339e-07
5.51271e-07
3.05667e-07
3.54672e-07
2.94571e-07
3.44998e-07
3.37881e-07
3.12339e-07
2.42138e-07
3.0233e-07
3.18932e-07
3.24402e-07
3.0814e-07
2.96698e-07
2.87998e-07
2.85543e-07
2.53597e-07
3.14305e-07
3.01252e-07
2.93463e-07
5.42666e-07
2.82328e-07
4.80661e-07
2.90884e-07
3.39261e-07
2.80437e-07
3.35608e-07
3.13927e-07
2.99304e-07
2.31424e-07
2.9027e-07
3.03e-07
3.06989e-07
2.92378e-07
2.82141e-07
2.43689e-07
2.73038e-07
2.17082e-07
2.99932e-07
2.84933e-07
2.78838e-07
4.53285e-07
2.68427e-07
3.6668e-07
2.77147e-07
3.18169e-07
2.6776e-07
3.12032e-07
2.93149e-07
2.87223e-07
2.23344e-07
2.77778e-07
2.87226e-07
2.9126e-07
2.77568e-07
2.70764e-07
2.09247e-07
2.65181e-07
1.91069e-07
2.83594e-07
2.69868e-07
2.65387e-07
3.41629e-07
2.57769e-07
2.91623e-07
2.64783e-07
2.83798e-07
2.55812e-07
2.91526e-07
2.75312e-07
2.74629e-07
2.1733e-07
2.6748e-07
2.72504e-07
2.76429e-07
2.6427e-07
2.6359e-07
1.8689e-07
2.5985e-07
1.77985e-07
2.68932e-07
2.55552e-07
2.55557e-07
2.81128e-07
2.50539e-07
2.58389e-07
2.52813e-07
2.52562e-07
2.43706e-07
2.74332e-07
2.6023e-07
2.65646e-07
2.12892e-07
2.60268e-07
2.60872e-07
2.62679e-07
2.54176e-07
2.58767e-07
1.75991e-07
2.57851e-07
1.71576e-07
2.54714e-07
2.42574e-07
2.49726e-07
2.52378e-07
2.49261e-07
2.37629e-07
2.40646e-07
2.35631e-07
2.32342e-07
2.59355e-07
2.47182e-07
2.58699e-07
2.09628e-07
2.56428e-07
2.50896e-07
2.52833e-07
2.47536e-07
2.57916e-07
1.70201e-07
2.594e-07
1.66564e-07
2.4207e-07
2.32221e-07
2.493e-07
2.33516e-07
2.50312e-07
2.23408e-07
2.29872e-07
2.2516e-07
2.22966e-07
2.46582e-07
2.36725e-07
2.56391e-07
2.07132e-07
2.57595e-07
2.42823e-07
2.46706e-07
2.45661e-07
2.60501e-07
1.6561e-07
2.65098e-07
1.62942e-07
2.31911e-07
2.22868e-07
2.51272e-07
2.20833e-07
2.5749e-07
2.14083e-07
2.20898e-07
2.17299e-07
2.15382e-07
2.36275e-07
2.27646e-07
2.60065e-07
2.03887e-07
2.82443e-07
2.42155e-07
2.45601e-07
2.46577e-07
2.6659e-07
1.61999e-07
2.7124e-07
1.59346e-07
2.22627e-07
2.14199e-07
2.60452e-07
2.11787e-07
2.70254e-07
2.0519e-07
2.13701e-07
2.11213e-07
2.08908e-07
2.27281e-07
2.19471e-07
2.91482e-07
1.99918e-07
3.19352e-07
2.4494e-07
2.46676e-07
2.50312e-07
2.73021e-07
1.58459e-07
2.78565e-07
1.55514e-07
2.14009e-07
2.06074e-07
2.74452e-07
2.03337e-07
2.91218e-07
1.98133e-07
2.07505e-07
2.0968e-07
2.03451e-07
2.19179e-07
2.1196e-07
3.278e-07
1.96209e-07
3.46473e-07
2.45257e-07
2.50728e-07
2.58267e-07
2.805e-07
1.54474e-07
2.87381e-07
1.51984e-07
2.05967e-07
1.99358e-07
2.9758e-07
1.96465e-07
3.21187e-07
1.93773e-07
2.02046e-07
2.10662e-07
1.96801e-07
2.11772e-07
2.05541e-07
3.49694e-07
1.92748e-07
3.50987e-07
2.39957e-07
2.60185e-07
2.73627e-07
2.90096e-07
1.51266e-07
2.98231e-07
1.50563e-07
1.9944e-07
1.95663e-07
3.31931e-07
1.93742e-07
3.73933e-07
1.94456e-07
1.9458e-07
2.15729e-07
1.87634e-07
2.0557e-07
2.01366e-07
3.47296e-07
1.90194e-07
3.05032e-07
2.19876e-07
2.76685e-07
2.88582e-07
3.00849e-07
1.50687e-07
3.06029e-07
1.51921e-07
1.96369e-07
1.97081e-07
3.88864e-07
1.94992e-07
4.23756e-07
1.99149e-07
1.85465e-07
2.37192e-07
1.79943e-07
2.01625e-07
2.00278e-07
2.92202e-07
1.8996e-07
2.61091e-07
2.04806e-07
2.90661e-07
2.86654e-07
3.06475e-07
1.52539e-07
3.01972e-07
1.55932e-07
1.98752e-07
2.05049e-07
4.303e-07
2.03572e-07
4.33873e-07
2.22539e-07
1.77864e-07
2.78014e-07
1.76418e-07
2.01297e-07
2.05037e-07
2.52838e-07
1.9366e-07
2.3529e-07
1.97981e-07
2.84522e-07
2.51292e-07
2.96055e-07
1.57957e-07
2.86888e-07
1.67e-07
2.0812e-07
2.24976e-07
4.28383e-07
2.31055e-07
3.45788e-07
2.61675e-07
1.76833e-07
3.42127e-07
1.82997e-07
2.07632e-07
2.17677e-07
2.31063e-07
2.02537e-07
2.22648e-07
1.99274e-07
2.50905e-07
2.47448e-07
2.87134e-07
1.70263e-07
2.91307e-07
1.80983e-07
2.31005e-07
2.48043e-07
3.2056e-07
2.74022e-07
2.65735e-07
3.17766e-07
1.86299e-07
4.15812e-07
1.96308e-07
2.22644e-07
2.41554e-07
2.2042e-07
2.17929e-07
2.19141e-07
2.09943e-07
2.52529e-07
2.70941e-07
2.97191e-07
1.86597e-07
3.14042e-07
2.10767e-07
2.57854e-07
2.95356e-07
2.58438e-07
3.32936e-07
2.59153e-07
3.91273e-07
2.04776e-07
4.90852e-07
2.26032e-07
2.50475e-07
2.86056e-07
2.20646e-07
2.47603e-07
2.31587e-07
2.3769e-07
2.80576e-07
3.28549e-07
3.1945e-07
2.23372e-07
3.74936e-07
2.64589e-07
3.06764e-07
3.54794e-07
2.64878e-07
4.0879e-07
2.86321e-07
4.66644e-07
2.37533e-07
5.50017e-07
2.85868e-07
3.00027e-07
3.48342e-07
2.34748e-07
2.90285e-07
2.74383e-07
3.0645e-07
3.55733e-07
4.33385e-07
3.89155e-07
2.81907e-07
4.32654e-07
3.48545e-07
3.7211e-07
4.93589e-07
3.05636e-07
4.87891e-07
3.74049e-07
5.39243e-07
2.9819e-07
5.78676e-07
3.73677e-07
3.75123e-07
4.52951e-07
2.82072e-07
3.52887e-07
3.34914e-07
4.49064e-07
4.77084e-07
6.71575e-07
4.65988e-07
3.651e-07
5.31206e-07
5.14883e-07
5.22165e-07
6.52944e-07
4.21701e-07
5.58473e-07
5.34759e-07
5.99494e-07
4.10457e-07
5.74525e-07
4.9767e-07
4.88196e-07
6.98481e-07
3.79183e-07
4.66303e-07
4.33289e-07
5.91376e-07
7.28521e-07
9.39368e-07
5.51889e-07
5.49264e-07
5.84406e-07
8.02878e-07
7.29406e-07
1.0218e-06
6.00625e-07
6.09032e-07
7.28984e-07
6.60754e-07
5.06295e-07
6.96608e-07
6.38137e-07
7.53676e-07
8.97617e-07
4.36615e-07
5.90359e-07
5.56949e-07
8.73825e-07
9.81155e-07
1.95306e-06
6.14744e-07
8.78222e-07
9.86432e-07
1.10906e-06
1.13366e-06
1.69317e-06
7.53518e-07
6.80764e-07
1.10599e-06
8.78964e-07
7.65521e-07
8.77304e-07
9.95504e-07
9.49815e-07
1.60442e-06
6.46785e-07
8.59321e-07
8.47803e-07
1.93258e-06
2.30758e-06
2.31527e-06
1.07233e-06
1.3157e-06
1.12431e-06
1.59028e-06
1.95898e-06
2.6751e-06
1.2126e-06
9.56499e-07
1.26704e-06
1.12693e-06
1.03215e-06
1.14655e-06
1.40147e-06
1.86384e-06
2.48619e-06
8.82884e-07
1.14156e-06
1.19852e-06
2.68748e-06
2.30076e-06
3.05088e-06
1.14216e-06
1.58626e-06
1.42366e-06
1.71465e-06
2.61941e-06
3.15399e-06
1.26741e-06
1.19286e-06
1.48883e-06
1.46424e-06
1.49967e-06
1.38594e-06
1.56555e-06
2.57768e-06
3.39128e-06
1.28267e-06
1.46585e-06
1.35287e-06
3.16061e-06
3.5274e-06
5.61591e-06
1.58082e-06
2.07539e-06
2.14641e-06
2.60173e-06
4.33406e-06
6.71973e-06
1.65347e-06
1.59354e-06
2.05041e-06
1.98418e-06
1.60714e-06
2.22124e-06
2.60553e-06
3.70235e-06
5.16539e-06
1.4033e-06
1.99871e-06
2.23718e-06
6.66103e-06
5.96905e-06
7.25152e-06
2.30002e-06
2.5949e-06
2.65604e-06
2.51083e-06
6.66588e-06
5.62439e-06
2.2393e-06
2.11507e-06
2.91917e-06
2.63604e-06
2.85413e-06
2.29366e-06
2.86246e-06
5.49564e-06
7.19434e-06
2.42536e-06
2.62874e-06
2.52827e-06
7.13473e-06
7.63995e-06
9.32626e-06
2.78187e-06
2.56162e-06
3.2531e-06
3.57097e-06
6.02546e-06
9.71665e-06
3.06017e-06
2.84633e-06
3.34908e-06
3.29181e-06
2.71774e-06
3.12407e-06
2.75969e-06
7.7251e-06
9.67597e-06
2.54274e-06
3.29969e-06
3.10029e-06
8.03323e-06
9.7385e-06
1.17579e-05
3.45675e-06
3.92176e-06
4.18957e-06
4.80689e-06
1.02523e-05
1.24063e-05
3.49071e-06
3.42715e-06
4.13094e-06
4.11432e-06
3.13773e-06
4.41005e-06
4.85521e-06
9.99973e-06
1.1599e-05
3.41391e-06
4.13622e-06
4.2988e-06
1.28429e-05
1.22987e-05
1.4351e-05
4.3904e-06
4.93423e-06
5.05533e-06
5.03137e-06
1.3004e-05
1.42071e-05
4.34478e-06
4.38085e-06
5.0336e-06
5.11812e-06
5.13478e-06
4.93577e-06
5.37558e-06
1.21724e-05
1.44499e-05
4.53985e-06
5.12791e-06
5.1258e-06
1.4506e-05
1.49039e-05
1.71142e-05
5.37625e-06
5.10691e-06
6.34305e-06
6.3638e-06
1.44324e-05
1.6825e-05
5.36639e-06
5.35277e-06
6.39272e-06
6.222e-06
5.45818e-06
6.31426e-06
6.26374e-06
1.49138e-05
1.68263e-05
5.38243e-06
6.22329e-06
6.16704e-06
1.67034e-05
1.75804e-05
1.88769e-05
6.5929e-06
6.86994e-06
7.30412e-06
7.52668e-06
1.76524e-05
1.93288e-05
6.61147e-06
6.59258e-06
7.26776e-06
7.5425e-06
6.5579e-06
7.51344e-06
7.48954e-06
1.73878e-05
1.92138e-05
6.44519e-06
7.49295e-06
7.43291e-06
1.89673e-05
1.92789e-05
2.09556e-05
7.6389e-06
7.58295e-06
8.72844e-06
8.39281e-06
1.95234e-05
2.06582e-05
7.61837e-06
7.75315e-06
8.677e-06
8.68558e-06
7.72734e-06
8.34209e-06
8.64861e-06
1.96173e-05
2.09942e-05
7.65115e-06
8.65613e-06
8.74558e-06
2.11538e-05
2.14662e-05
2.32011e-05
9.03365e-06
9.06737e-06
1.02993e-05
1.06475e-05
2.12805e-05
2.32884e-05
9.05359e-06
9.07589e-06
1.02714e-05
1.01999e-05
9.23589e-06
1.06173e-05
1.03863e-05
2.14347e-05
2.28704e-05
9.33839e-06
1.02838e-05
1.02406e-05
2.28903e-05
2.36193e-05
2.46764e-05
1.0825e-05
1.08134e-05
1.18362e-05
1.12781e-05
2.36168e-05
2.45215e-05
1.07257e-05
1.05014e-05
1.18204e-05
1.18403e-05
1.04759e-05
1.11773e-05
1.15022e-05
2.32997e-05
2.49628e-05
1.03255e-05
1.18139e-05
1.15439e-05
2.50278e-05
2.49851e-05
2.60796e-05
1.20242e-05
1.19343e-05
1.31498e-05
1.38722e-05
2.49047e-05
2.65132e-05
1.20654e-05
1.24881e-05
1.31972e-05
1.3546e-05
1.23786e-05
1.40394e-05
1.45355e-05
2.53571e-05
2.59422e-05
1.22945e-05
1.33967e-05
1.42036e-05
2.65724e-05
2.64825e-05
2.75525e-05
1.3758e-05
1.40753e-05
1.50735e-05
1.46321e-05
2.68128e-05
2.726e-05
1.37269e-05
1.36017e-05
1.49789e-05
1.41138e-05
1.48073e-05
1.45636e-05
1.48724e-05
2.61453e-05
2.7401e-05
1.44206e-05
1.42582e-05
1.44761e-05
2.6808e-05
2.78336e-05
2.89287e-05
1.53293e-05
1.50115e-05
1.65417e-05
1.66736e-05
2.75191e-05
2.89552e-05
1.52376e-05
1.49657e-05
1.68278e-05
1.80358e-05
1.48722e-05
1.65072e-05
1.56012e-05
2.79969e-05
2.99245e-05
1.44976e-05
1.83626e-05
1.62087e-05
2.89473e-05
2.93517e-05
3.04129e-05
1.71392e-05
1.73785e-05
1.91495e-05
1.88868e-05
2.94212e-05
3.0261e-05
1.7482e-05
1.8752e-05
1.8819e-05
1.92101e-05
1.70014e-05
1.89364e-05
2.0123e-05
3.02085e-05
3.02029e-05
1.75767e-05
1.95049e-05
1.99702e-05
3.10614e-05
3.0636e-05
3.11904e-05
1.95857e-05
1.91628e-05
2.00369e-05
1.99749e-05
3.04554e-05
3.12919e-05
1.91779e-05
1.91126e-05
2.00716e-05
1.8694e-05
2.05171e-05
1.99824e-05
2.06873e-05
3.02291e-05
3.00631e-05
2.03035e-05
1.89577e-05
2.04698e-05
3.12698e-05
3.1449e-05
3.25477e-05
2.02891e-05
2.04101e-05
2.2308e-05
2.25918e-05
3.16605e-05
3.26854e-05
2.04415e-05
1.87764e-05
2.21912e-05
2.24e-05
2.06815e-05
2.25136e-05
2.14747e-05
3.04201e-05
3.3465e-05
2.04727e-05
2.24047e-05
2.1352e-05
3.20268e-05
3.28547e-05
3.36702e-05
2.28627e-05
2.31836e-05
2.37522e-05
2.37772e-05
3.28994e-05
3.33813e-05
2.27238e-05
2.37409e-05
2.39041e-05
2.58037e-05
2.2196e-05
2.3777e-05
2.37945e-05
3.39983e-05
3.44446e-05
2.19582e-05
2.5542e-05
2.4017e-05
3.38938e-05
3.39588e-05
3.53107e-05
2.41003e-05
2.38918e-05
2.62849e-05
2.57754e-05
3.36242e-05
3.52644e-05
2.43307e-05
2.61021e-05
2.64088e-05
2.6495e-05
2.44119e-05
2.57723e-05
2.65516e-05
3.44983e-05
3.4885e-05
2.48587e-05
2.59014e-05
2.71839e-05
3.57517e-05
3.56326e-05
3.58651e-05
2.70697e-05
2.67624e-05
2.79397e-05
2.84734e-05
3.57006e-05
3.63168e-05
2.71406e-05
2.65321e-05
2.786e-05
2.68239e-05
2.73449e-05
2.85266e-05
2.83537e-05
3.51521e-05
3.58555e-05
2.76535e-05
2.73533e-05
2.77127e-05
3.58554e-05
3.5896e-05
3.62998e-05
2.79399e-05
2.85224e-05
2.81214e-05
2.83511e-05
3.63583e-05
3.61045e-05
2.784e-05
2.74616e-05
2.78909e-05
2.84704e-05
2.83264e-05
2.83621e-05
2.76927e-05
3.61003e-05
3.63819e-05
2.74386e-05
2.88532e-05
2.66845e-05
3.50048e-05
3.67406e-05
3.84932e-05
2.8757e-05
2.83564e-05
3.10954e-05
3.02644e-05
3.62168e-05
3.80406e-05
2.83285e-05
2.86135e-05
3.13258e-05
3.06537e-05
2.7681e-05
2.98243e-05
3.01694e-05
3.64662e-05
3.80315e-05
2.67597e-05
2.97123e-05
3.15678e-05
3.92382e-05
3.86631e-05
3.9051e-05
3.15187e-05
3.14534e-05
3.2551e-05
3.36381e-05
3.87045e-05
4.01862e-05
3.17469e-05
3.1703e-05
3.24562e-05
3.39588e-05
3.21047e-05
3.39252e-05
3.432e-05
3.87088e-05
4.04792e-05
3.34816e-05
3.41542e-05
3.52642e-05
4.12166e-05
3.93113e-05
4.03127e-05
3.29715e-05
3.37504e-05
3.38866e-05
3.34933e-05
4.02369e-05
3.94183e-05
3.2881e-05
3.41513e-05
3.39961e-05
3.40139e-05
3.43047e-05
3.3648e-05
3.35139e-05
4.05379e-05
3.96766e-05
3.52173e-05
3.42073e-05
3.38615e-05
3.90294e-05
4.04664e-05
4.12124e-05
3.41442e-05
3.34335e-05
3.54745e-05
3.43047e-05
3.94207e-05
4.07695e-05
3.41599e-05
3.38035e-05
3.5308e-05
3.37615e-05
3.34568e-05
3.38533e-05
3.42689e-05
3.96435e-05
3.98622e-05
3.36762e-05
3.36524e-05
3.40699e-05
4.12421e-05
4.1522e-05
4.23437e-05
3.58826e-05
3.54651e-05
3.64116e-05
3.75596e-05
4.14524e-05
4.29958e-05
3.58394e-05
3.41258e-05
3.69111e-05
3.72573e-05
3.56695e-05
3.77054e-05
3.77005e-05
4.03109e-05
4.3115e-05
3.50958e-05
3.73271e-05
3.74368e-05
4.31098e-05
4.24546e-05
4.26833e-05
3.67376e-05
3.77434e-05
3.78405e-05
3.7692e-05
4.3037e-05
4.24828e-05
3.723e-05
3.802e-05
3.79572e-05
3.86617e-05
3.77242e-05
3.78981e-05
3.73497e-05
4.34735e-05
4.34392e-05
3.75997e-05
3.87075e-05
3.75579e-05
4.20041e-05
4.27273e-05
4.28209e-05
3.79266e-05
3.75828e-05
3.8012e-05
3.76349e-05
4.2485e-05
4.27424e-05
3.79674e-05
3.86214e-05
3.79375e-05
3.8035e-05
3.72135e-05
3.76942e-05
3.72238e-05
4.33865e-05
4.25765e-05
3.75053e-05
3.80352e-05
3.75762e-05
4.23614e-05
4.30422e-05
4.52361e-05
3.82063e-05
3.80408e-05
4.04034e-05
4.06057e-05
4.30954e-05
4.54948e-05
3.80518e-05
3.79968e-05
4.0144e-05
3.88963e-05
3.75182e-05
4.04798e-05
4.07416e-05
4.26006e-05
4.43251e-05
3.78925e-05
3.89906e-05
4.07475e-05
4.57751e-05
4.57e-05
4.6471e-05
4.11419e-05
4.1292e-05
4.22826e-05
4.22794e-05
4.59165e-05
4.64704e-05
4.09462e-05
4.02079e-05
4.24207e-05
4.2665e-05
4.15836e-05
4.24015e-05
4.27892e-05
4.50796e-05
4.68828e-05
4.15566e-05
4.27316e-05
4.28107e-05
4.71223e-05
4.64834e-05
4.58387e-05
4.23139e-05
4.22907e-05
4.20631e-05
4.18955e-05
4.64622e-05
4.55118e-05
4.25082e-05
4.28958e-05
4.23141e-05
4.28617e-05
4.28245e-05
4.20861e-05
4.24776e-05
4.69664e-05
4.64411e-05
4.28491e-05
4.28308e-05
4.24842e-05
4.59799e-05
4.58348e-05
4.62404e-05
4.19769e-05
4.17392e-05
4.21987e-05
4.18417e-05
4.54785e-05
4.57701e-05
4.21576e-05
4.26554e-05
4.21548e-05
4.23337e-05
4.21621e-05
4.17698e-05
4.18813e-05
4.63845e-05
4.59766e-05
4.21696e-05
4.22737e-05
4.18924e-05
4.54553e-05
4.66193e-05
4.81947e-05
4.28056e-05
4.24042e-05
4.45315e-05
4.45316e-05
4.62078e-05
4.84143e-05
4.24562e-05
4.23603e-05
4.44835e-05
4.39215e-05
4.1994e-05
4.45294e-05
4.43613e-05
4.61281e-05
4.78561e-05
4.19997e-05
4.39285e-05
4.42733e-05
4.83517e-05
4.83651e-05
4.83274e-05
4.48229e-05
4.50351e-05
4.50617e-05
4.58493e-05
4.874e-05
4.92342e-05
4.48932e-05
4.46229e-05
4.52383e-05
4.55471e-05
4.50711e-05
4.60748e-05
4.59064e-05
4.82123e-05
4.87249e-05
4.49778e-05
4.56204e-05
4.57999e-05
4.91229e-05
4.83416e-05
4.89733e-05
4.5099e-05
4.58666e-05
4.58017e-05
4.56795e-05
4.92446e-05
4.86179e-05
4.52465e-05
4.55626e-05
4.56279e-05
4.5565e-05
4.58989e-05
4.57307e-05
4.54249e-05
4.87326e-05
4.85687e-05
4.57904e-05
4.55677e-05
4.5358e-05
4.81143e-05
4.93166e-05
5.0292e-05
4.62529e-05
4.56591e-05
4.7322e-05
4.62965e-05
4.8617e-05
4.9247e-05
4.61671e-05
4.56834e-05
4.73413e-05
4.72345e-05
4.5366e-05
4.57928e-05
4.60047e-05
4.87334e-05
5.02327e-05
4.53256e-05
4.6969e-05
4.62194e-05
4.96235e-05
5.0353e-05
5.02465e-05
4.74537e-05
4.6858e-05
4.75516e-05
4.78437e-05
4.96298e-05
5.07219e-05
4.74676e-05
4.75317e-05
4.75362e-05
4.77585e-05
4.69674e-05
4.81094e-05
4.87004e-05
5.04476e-05
5.06023e-05
4.71585e-05
4.79464e-05
4.86824e-05
5.16284e-05
5.02923e-05
5.0704e-05
4.76365e-05
4.80285e-05
4.81719e-05
4.82078e-05
5.08073e-05
5.07077e-05
4.7584e-05
4.77972e-05
4.82471e-05
4.84129e-05
4.8798e-05
4.84749e-05
4.85445e-05
5.06371e-05
5.09195e-05
4.87536e-05
4.85168e-05
4.84781e-05
5.05959e-05
5.07212e-05
5.08653e-05
4.81975e-05
4.82176e-05
4.8388e-05
4.85928e-05
5.07172e-05
5.11707e-05
4.83078e-05
4.8515e-05
4.84157e-05
4.84771e-05
4.82346e-05
4.8475e-05
4.78797e-05
5.09625e-05
5.07051e-05
4.81613e-05
4.82971e-05
4.77806e-05
4.99054e-05
5.11735e-05
5.29601e-05
4.87941e-05
4.90441e-05
5.04777e-05
5.03823e-05
5.14825e-05
5.27845e-05
4.86444e-05
4.84791e-05
5.0293e-05
4.93248e-05
4.79193e-05
5.01024e-05
4.9761e-05
5.07186e-05
5.16487e-05
4.78181e-05
4.88919e-05
4.96712e-05
5.25794e-05
5.3143e-05
5.28161e-05
5.07792e-05
5.06235e-05
5.08663e-05
5.06927e-05
5.29019e-05
5.25912e-05
5.06473e-05
4.98143e-05
5.08391e-05
5.1072e-05
5.05412e-05
5.07804e-05
5.16189e-05
5.2005e-05
5.34475e-05
5.04799e-05
5.13601e-05
5.16893e-05
5.39548e-05
5.27369e-05
5.19936e-05
5.07464e-05
5.06021e-05
5.02195e-05
5.04458e-05
5.25538e-05
5.24182e-05
5.0776e-05
5.14107e-05
5.04842e-05
5.19319e-05
5.16396e-05
5.07105e-05
5.12369e-05
5.37108e-05
5.42183e-05
5.17341e-05
5.22642e-05
5.14469e-05
5.29679e-05
5.20166e-05
5.35786e-05
5.02124e-05
5.04837e-05
5.12196e-05
5.16563e-05
5.25883e-05
5.39149e-05
5.04915e-05
5.19369e-05
5.14136e-05
5.15668e-05
5.10409e-05
5.16401e-05
5.09686e-05
5.42243e-05
5.32985e-05
5.12572e-05
5.1662e-05
5.11493e-05
5.29154e-05
5.40762e-05
5.55311e-05
5.20753e-05
5.20699e-05
5.36289e-05
5.26869e-05
5.41249e-05
5.42912e-05
5.19774e-05
5.13514e-05
5.31555e-05
5.11964e-05
5.11089e-05
5.24464e-05
5.22777e-05
5.31999e-05
5.27142e-05
5.12206e-05
5.09157e-05
5.18765e-05
5.3952e-05
5.55973e-05
5.47656e-05
5.37503e-05
5.27689e-05
5.35597e-05
5.28578e-05
5.4295e-05
5.4192e-05
5.32754e-05
5.12938e-05
5.31535e-05
5.25908e-05
5.24234e-05
5.24519e-05
5.25029e-05
5.27961e-05
5.4109e-05
5.19211e-05
5.19587e-05
5.20431e-05
5.40357e-05
5.45783e-05
5.35682e-05
5.31215e-05
5.28552e-05
5.21499e-05
5.28455e-05
5.42383e-05
5.47883e-05
5.28607e-05
5.28937e-05
5.23924e-05
5.33602e-05
5.25495e-05
5.32503e-05
5.33908e-05
5.44005e-05
5.52958e-05
5.22754e-05
5.3752e-05
5.36413e-05
5.53522e-05
5.35831e-05
5.48892e-05
5.21022e-05
5.28729e-05
5.26223e-05
5.33892e-05
5.49261e-05
5.53837e-05
5.24008e-05
5.35566e-05
5.33818e-05
5.42491e-05
5.37441e-05
5.39943e-05
5.41692e-05
5.5479e-05
5.60742e-05
5.40001e-05
5.45488e-05
5.43773e-05
5.58006e-05
5.52266e-05
5.578e-05
5.32734e-05
5.36593e-05
5.44105e-05
5.42358e-05
5.54677e-05
5.55346e-05
5.38576e-05
5.43265e-05
5.43286e-05
5.41605e-05
5.41618e-05
5.40183e-05
5.37901e-05
5.60966e-05
5.52729e-05
5.43665e-05
5.40884e-05
5.38576e-05
5.49673e-05
5.57856e-05
5.57603e-05
5.4521e-05
5.42875e-05
5.46101e-05
5.42803e-05
5.55366e-05
5.53855e-05
5.43185e-05
5.39237e-05
5.42826e-05
5.37088e-05
5.3669e-05
5.38949e-05
5.36588e-05
5.51345e-05
5.48174e-05
5.36649e-05
5.35284e-05
5.35749e-05
5.51163e-05
5.58806e-05
5.71011e-05
5.46768e-05
5.42862e-05
5.53881e-05
5.47579e-05
5.54087e-05
5.61806e-05
5.43499e-05
5.37761e-05
5.5542e-05
5.52865e-05
5.38504e-05
5.47125e-05
5.50572e-05
5.50134e-05
5.69236e-05
5.37106e-05
5.51666e-05
5.51509e-05
5.67184e-05
5.72778e-05
5.71813e-05
5.56194e-05
5.50814e-05
5.57953e-05
5.58736e-05
5.64337e-05
5.72955e-05
5.58478e-05
5.57223e-05
5.59767e-05
5.60491e-05
5.54018e-05
5.60221e-05
5.60625e-05
5.71806e-05
5.73618e-05
5.55258e-05
5.60765e-05
5.60446e-05
5.73251e-05
5.70535e-05
5.55412e-05
5.57486e-05
5.59559e-05
5.49716e-05
5.58786e-05
5.73501e-05
5.69523e-05
5.58519e-05
5.60032e-05
5.46331e-05
5.51409e-05
5.61027e-05
5.59933e-05
5.58962e-05
5.72901e-05
5.61479e-05
5.60551e-05
5.53829e-05
5.57399e-05
5.67606e-05
5.5393e-05
5.52677e-05
5.46965e-05
5.56637e-05
5.44326e-05
5.49762e-05
5.68286e-05
5.59588e-05
5.43292e-05
5.4864e-05
5.41476e-05
5.45802e-05
5.55555e-05
5.4998e-05
5.47603e-05
5.60393e-05
5.57649e-05
5.54342e-05
5.4798e-05
5.47501e-05
5.56895e-05
5.55419e-05
5.78964e-05
5.45e-05
5.49319e-05
5.6128e-05
5.53693e-05
5.59527e-05
5.69581e-05
5.43227e-05
5.46231e-05
5.64816e-05
5.60038e-05
5.47066e-05
5.5512e-05
5.51853e-05
5.58727e-05
5.72965e-05
5.47017e-05
5.57546e-05
5.51832e-05
5.65954e-05
5.83059e-05
5.94425e-05
5.67758e-05
5.60324e-05
5.78497e-05
5.73063e-05
5.73541e-05
5.85471e-05
5.71738e-05
5.66129e-05
5.8221e-05
5.7844e-05
5.5853e-05
5.71945e-05
5.73771e-05
5.76422e-05
5.89508e-05
5.58174e-05
5.75335e-05
5.74397e-05
5.87511e-05
5.94481e-05
5.75894e-05
5.7874e-05
5.73705e-05
5.71321e-05
5.69699e-05
5.85663e-05
5.74261e-05
5.8228e-05
5.79139e-05
5.7089e-05
5.73681e-05
5.75657e-05
5.67566e-05
5.74981e-05
5.90121e-05
5.79845e-05
5.7691e-05
5.74598e-05
5.7698e-05
5.84971e-05
5.72244e-05
5.59139e-05
5.65102e-05
5.65085e-05
5.54529e-05
5.57979e-05
5.71935e-05
5.64782e-05
5.63083e-05
5.66485e-05
5.5053e-05
5.53243e-05
5.71745e-05
5.57827e-05
5.60225e-05
5.76603e-05
5.61819e-05
5.74347e-05
5.56898e-05
5.60281e-05
5.6764e-05
5.59264e-05
5.76155e-05
5.54208e-05
5.57944e-05
5.61577e-05
5.66082e-05
5.65428e-05
5.81694e-05
5.50255e-05
5.52728e-05
5.60316e-05
5.60199e-05
5.59065e-05
5.67651e-05
5.60993e-05
5.61776e-05
5.75204e-05
5.58347e-05
5.59255e-05
5.58902e-05
5.72486e-05
5.80332e-05
5.92804e-05
5.6848e-05
5.71757e-05
5.80686e-05
5.813e-05
5.85107e-05
5.94442e-05
5.6834e-05
5.67743e-05
5.81615e-05
5.79908e-05
5.65783e-05
5.82405e-05
5.765e-05
5.79282e-05
5.90802e-05
5.6231e-05
5.77969e-05
5.74626e-05
5.86749e-05
5.93053e-05
5.82834e-05
5.81283e-05
5.81567e-05
5.7692e-05
5.75441e-05
5.94521e-05
5.80488e-05
5.82177e-05
5.80322e-05
5.7723e-05
5.75422e-05
5.76999e-05
5.74629e-05
5.72862e-05
5.90926e-05
5.80984e-05
5.75487e-05
5.74983e-05
5.73084e-05
5.78872e-05
5.80589e-05
5.71889e-05
5.71971e-05
5.70043e-05
5.63218e-05
5.60299e-05
5.77697e-05
5.6678e-05
5.72251e-05
5.7134e-05
5.63987e-05
5.6571e-05
5.6846e-05
5.58504e-05
5.62464e-05
5.79227e-05
5.74214e-05
5.69761e-05
5.66109e-05
5.65373e-05
5.71636e-05
5.71977e-05
5.79535e-05
5.6283e-05
5.59824e-05
5.66204e-05
5.63827e-05
5.6683e-05
5.7701e-05
5.63672e-05
5.65689e-05
5.6708e-05
5.70111e-05
5.62541e-05
5.63498e-05
5.7133e-05
5.74812e-05
5.83097e-05
5.65503e-05
5.70974e-05
5.73442e-05
5.86255e-05
5.81508e-05
5.85082e-05
5.69808e-05
5.68632e-05
5.75234e-05
5.76952e-05
5.7987e-05
5.87774e-05
5.70176e-05
5.72102e-05
5.74062e-05
5.73207e-05
5.75341e-05
5.77412e-05
5.78257e-05
5.8427e-05
5.83141e-05
5.76389e-05
5.74151e-05
5.77798e-05
5.88999e-05
5.85035e-05
5.79955e-05
5.75361e-05
5.7737e-05
5.72902e-05
5.75035e-05
5.88009e-05
5.82591e-05
5.74054e-05
5.72668e-05
5.70766e-05
5.67205e-05
5.77574e-05
5.74159e-05
5.67694e-05
5.82378e-05
5.75092e-05
5.76601e-05
5.67239e-05
5.66239e-05
5.73182e-05
5.79364e-05
5.76691e-05
5.70838e-05
5.72186e-05
5.67173e-05
5.67373e-05
5.81514e-05
5.772e-05
5.69078e-05
5.66175e-05
5.66842e-05
5.66019e-05
5.65853e-05
5.67821e-05
5.65951e-05
5.74898e-05
5.77446e-05
5.64814e-05
5.66374e-05
5.65601e-05
5.77057e-05
5.76992e-05
5.83495e-05
5.67121e-05
5.67302e-05
5.70374e-05
5.70731e-05
5.77429e-05
5.83969e-05
5.66934e-05
5.67204e-05
5.7214e-05
5.75248e-05
5.68458e-05
5.72939e-05
5.7731e-05
5.79054e-05
5.87527e-05
5.68833e-05
5.75329e-05
5.77099e-05
5.91044e-05
5.85164e-05
5.86916e-05
5.7289e-05
5.7312e-05
5.74668e-05
5.74639e-05
5.85426e-05
5.86166e-05
5.74477e-05
5.77083e-05
5.75785e-05
5.77449e-05
5.77874e-05
5.74987e-05
5.74129e-05
5.88728e-05
5.87303e-05
5.77529e-05
5.76158e-05
5.73382e-05
5.81299e-05
5.85842e-05
5.71135e-05
5.7407e-05
5.73972e-05
5.63621e-05
5.63085e-05
5.84957e-05
5.70887e-05
5.74875e-05
5.75808e-05
5.6269e-05
5.61558e-05
5.69183e-05
5.61486e-05
5.59323e-05
5.85492e-05
5.69883e-05
5.6866e-05
5.61396e-05
5.59889e-05
5.67547e-05
5.70269e-05
5.73336e-05
5.61407e-05
5.60687e-05
5.6093e-05
5.59775e-05
5.69965e-05
5.71498e-05
5.60457e-05
5.59271e-05
5.60182e-05
5.58996e-05
5.5893e-05
5.59557e-05
5.63223e-05
5.69075e-05
5.72277e-05
5.59657e-05
5.60453e-05
5.6455e-05
5.7894e-05
5.75637e-05
5.81129e-05
5.62913e-05
5.6137e-05
5.6755e-05
5.67195e-05
5.73642e-05
5.80258e-05
5.62517e-05
5.61492e-05
5.67727e-05
5.67597e-05
5.66951e-05
5.67577e-05
5.69277e-05
5.74682e-05
5.80663e-05
5.67943e-05
5.68042e-05
5.69652e-05
5.82855e-05
5.79883e-05
5.57452e-05
5.57519e-05
5.79589e-05
5.57669e-05
5.57723e-05
4.64576e-05
4.64713e-05
4.64534e-05
5.57322e-05
5.79651e-05
5.57368e-05
1.04954e-07
2.57007e-07
6.54071e-08
8.57943e-08
2.55887e-07
3.1931e-07
3.32553e-07
1.75646e-07
2.75848e-07
2.84795e-07
1.36986e-07
1.21949e-07
3.57901e-07
3.89052e-07
3.64889e-07
3.07158e-07
5.17954e-06
2.63989e-07
6.8964e-06
1.40613e-05
2.16088e-05
3.61094e-07
7.33823e-06
3.2214e-07
8.09838e-06
1.69015e-07
1.71967e-07
1.75336e-07
1.77061e-07
1.67814e-07
1.7183e-07
1.74809e-07
2.35624e-07
8.00758e-07
3.16884e-07
3.70659e-07
2.42658e-07
7.79806e-07
3.15729e-07
1.33716e-05
2.17436e-05
2.57231e-07
2.27148e-07
5.03609e-07
2.59954e-07
2.63094e-07
2.26367e-07
4.96043e-07
1.86941e-06
1.9027e-06
3.43983e-07
1.8557e-06
1.87882e-06
5.00968e-07
1.01199e-05
4.13114e-07
1.27613e-05
3.70024e-05
4.68959e-05
5.52563e-07
9.66452e-06
4.6539e-07
1.23066e-05
1.66533e-07
1.70723e-07
1.73655e-07
1.73328e-07
1.62795e-07
1.67584e-07
1.70396e-07
2.2163e-07