/*--------------------------------*- C++ -*----------------------------------*\
| =========                 |                                                 |
| \\      /  F ield         | OpenFOAM: The Open Source CFD Toolbox           |
|  \\    /   O peration     | Version:  v2012                                 |
|   \\  /    A nd           | Website:  www.openfoam.com                      |
|    \\/     M anipulation  |                                                 |
\*---------------------------------------------------------------------------*/
FoamFile
{
    version     2.0;
    format      ascii;
    class       volScalarField;
    location    "1012.5";
    object      nut;
}
// * * * * * * * * * * * * * * * * * * * * * * * * * * * * * * * * * * * * * //

dimensions      [0 2 -1 0 0 0 0];


internalField   nonuniform List<scalar> 
171728
(
1.69945e-06
2.07676e-06
1.6484e-06
2.25225e-06
1.70519e-06
2.13724e-06
1.60412e-06
2.25696e-06
1.70625e-06
2.3278e-06
1.57044e-06
2.24722e-06
1.71522e-06
2.51014e-06
1.53898e-06
2.21347e-06
1.72902e-06
2.46588e-06
1.5326e-06
2.1483e-06
1.74857e-06
2.09301e-06
1.54524e-06
2.08518e-06
1.77016e-06
1.79878e-06
1.56551e-06
2.0338e-06
1.79922e-06
1.65685e-06
1.58801e-06
1.98536e-06
1.81397e-06
1.55071e-06
1.60078e-06
1.98212e-06
1.83212e-06
1.45186e-06
1.58241e-06
2.07086e-06
1.85775e-06
1.35658e-06
1.53932e-06
2.1929e-06
1.93035e-06
1.29768e-06
1.47462e-06
2.25824e-06
1.9857e-06
1.23908e-06
1.39511e-06
2.18287e-06
2.11115e-06
1.26752e-06
1.29926e-06
1.82056e-06
2.23894e-06
1.46512e-06
1.2142e-06
1.53032e-06
2.03408e-06
1.83906e-06
1.14782e-06
1.32384e-06
1.76243e-06
2.43788e-06
1.09506e-06
1.18206e-06
1.66787e-06
2.99047e-06
1.0592e-06
1.09232e-06
1.68324e-06
3.37794e-06
1.09473e-06
1.0605e-06
1.63486e-06
3.3382e-06
1.20815e-06
1.28107e-06
1.61636e-06
2.80225e-06
1.36987e-06
2.0705e-06
1.60288e-06
2.23352e-06
1.73687e-06
1.86584e-06
1.61457e-06
2.66437e-06
1.93072e-06
3.33864e-06
1.49238e-06
3.70062e-06
3.26264e-06
7.46763e-06
1.15085e-06
3.6263e-06
3.94028e-06
1.093e-05
1.03925e-06
6.1707e-06
5.16132e-06
8.6736e-06
1.01924e-06
7.86737e-06
6.89007e-06
2.90093e-05
9.88334e-07
7.69744e-06
9.46928e-06
2.16075e-05
9.06001e-07
1.06726e-05
1.12481e-05
2.54713e-05
9.74459e-07
1.64443e-05
1.46997e-05
4.30569e-05
1.09093e-06
1.61202e-05
1.78834e-05
4.50139e-05
1.37745e-06
2.40611e-05
2.23461e-05
5.16774e-05
1.47622e-06
2.52826e-05
2.60021e-05
5.74983e-05
1.94738e-06
3.03218e-05
3.05673e-05
6.48299e-05
2.74325e-06
3.73373e-05
3.5642e-05
6.81046e-05
3.25229e-06
3.88615e-05
4.31898e-05
7.87149e-05
4.237e-06
5.10507e-05
4.4066e-05
8.00659e-05
5.15378e-06
4.83471e-05
5.0595e-05
7.83227e-05
6.93534e-06
5.88042e-05
7.13326e-05
8.90442e-05
9.94664e-06
6.60833e-05
6.76449e-05
9.60733e-05
9.90131e-06
6.79979e-05
5.86999e-05
9.37969e-05
1.42464e-05
7.99338e-05
8.25299e-05
9.64003e-05
1.5379e-05
7.90205e-05
9.14818e-05
0.000104659
2.29615e-05
9.2587e-05
8.78123e-05
0.000113218
2.69186e-05
9.98695e-05
9.64642e-05
0.000108974
2.2942e-05
9.2143e-05
9.52202e-05
0.000101629
3.49242e-05
0.000105666
0.000104093
0.000127803
4.12273e-05
0.000120792
0.000123746
0.000132469
4.34861e-05
0.000111815
0.000114687
0.00011783
5.37478e-05
0.000116649
0.000109449
0.000133142
6.31782e-05
0.000134267
0.000135626
0.000137802
6.34062e-05
0.000128567
0.000135117
0.000128616
6.18035e-05
0.000125112
0.000126129
0.000130053
7.43117e-05
0.000145039
0.000137771
0.000149226
0.000101442
0.000151373
0.000154409
0.00015396
0.000100359
0.000143912
0.000149187
0.000144825
8.96822e-05
0.000141628
0.000144034
0.000141726
0.000104639
0.000160922
0.000157208
0.000158045
0.000117863
0.000165761
0.000161858
0.00015909
0.000116619
0.000159806
0.000159438
0.000151453
0.000131592
0.000162382
0.00016968
0.000162637
0.000134903
0.000174874
0.000173606
0.000171264
0.000137617
0.000173324
0.000174474
0.000162481
0.000139039
0.000173133
0.000169879
0.000157884
0.000153141
0.000184297
0.00017678
0.000174783
0.000162231
0.000184892
0.000191924
0.000180471
0.000158034
0.000183287
0.000195779
0.000173269
0.000162549
0.000190942
0.000187477
0.000173257
0.000184265
0.000193209
0.000182035
0.00017769
0.00018768
0.000192294
0.000191612
0.000177515
0.000178739
0.000199168
0.000203002
0.000186099
0.00017772
0.000202553
0.000206665
0.000187359
0.000194384
0.000200935
0.000199463
0.000181011
0.000200282
0.000199205
0.000196754
0.000182317
0.000210073
0.000207433
0.000211831
0.000192152
0.000214295
0.000215768
0.000215692
0.000195642
0.000206105
0.000212483
0.000207886
0.000190922
0.000200863
0.000205742
0.000204085
0.000183285
0.000218819
0.000214125
0.000214523
0.000190556
0.000238687
0.000223449
0.000226777
0.000203784
0.000234978
0.00021653
0.000222193
0.000200788
0.000217464
0.00021134
0.000210396
0.000190011
0.000220093
0.0002235
0.000217308
0.000194984
0.000244802
0.000232845
0.000228794
0.000203081
0.000246155
0.000222812
0.000224008
0.000196785
0.000233801
0.000213768
0.000220071
0.000193178
0.000233693
0.000222058
0.000226139
0.000204107
0.000245321
0.000230358
0.000227318
0.000204363
0.000246536
0.000226022
0.00022187
0.000194415
0.000242766
0.000223848
0.000223721
0.000199423
0.000248043
0.000231205
0.000232566
0.000208387
0.000254217
0.000231866
0.000231892
0.000201013
0.000247007
0.000221395
0.000221423
0.000193741
0.00024532
0.000224341
0.00022562
0.00020365
0.000254719
0.000232441
0.000232399
0.000208695
2.29933e-06
2.36796e-06
2.51734e-06
2.17488e-06
2.08721e-06
2.74701e-06
1.70061e-06
1.65652e-06
1.79301e-06
1.85684e-06
2.01896e-06
2.34434e-06
2.18814e-06
2.05069e-06
2.54348e-06
2.25081e-06
2.30258e-06
2.26852e-06
1.84954e-06
4.42217e-06
1.83422e-06
3.55728e-06
2.15729e-06
2.20005e-06
1.82895e-06
2.89149e-06
1.7606e-06
3.49824e-06
1.96008e-06
2.11414e-06
1.94972e-06
2.19013e-06
2.2646e-06
1.85691e-06
1.61325e-06
1.81831e-06
2.23876e-06
2.28558e-06
2.21896e-06
1.8234e-06
3.26097e-06
1.78249e-06
2.59103e-06
2.18082e-06
2.21476e-06
1.73852e-06
3.78621e-06
1.67745e-06
4.83569e-06
1.94425e-06
2.2701e-06
1.92754e-06
2.25683e-06
2.37781e-06
1.81277e-06
1.57957e-06
1.79832e-06
2.22745e-06
2.23337e-06
2.15607e-06
1.76868e-06
2.44105e-06
1.72412e-06
2.05662e-06
2.20952e-06
2.22116e-06
1.65464e-06
5.07876e-06
1.58531e-06
4.84937e-06
1.92166e-06
2.47573e-06
1.91056e-06
2.36352e-06
2.27702e-06
1.79604e-06
1.54481e-06
1.78574e-06
2.19877e-06
2.16917e-06
2.08593e-06
1.70968e-06
1.94499e-06
1.67166e-06
1.64168e-06
2.21528e-06
2.16824e-06
1.56255e-06
4.542e-06
1.48971e-06
3.36493e-06
1.90905e-06
2.51351e-06
1.90688e-06
2.26449e-06
2.18572e-06
1.7783e-06
1.53255e-06
1.74942e-06
2.14676e-06
2.09384e-06
1.99586e-06
1.66544e-06
1.55077e-06
1.65645e-06
1.34466e-06
2.15936e-06
2.11341e-06
1.46782e-06
3.01844e-06
1.40978e-06
2.38094e-06
1.90551e-06
2.1946e-06
1.89085e-06
2.17458e-06
2.10813e-06
1.73905e-06
1.54026e-06
1.72377e-06
2.0881e-06
1.99878e-06
1.90662e-06
1.65441e-06
1.30094e-06
1.65528e-06
1.21743e-06
2.10914e-06
2.04599e-06
1.39182e-06
2.26103e-06
1.34905e-06
2.01812e-06
1.88203e-06
1.85265e-06
1.84281e-06
2.10398e-06
2.03883e-06
1.72041e-06
1.56012e-06
1.68949e-06
2.03767e-06
1.89339e-06
1.84087e-06
1.6561e-06
1.20112e-06
1.68447e-06
1.1684e-06
2.03999e-06
1.96707e-06
1.34117e-06
1.95575e-06
1.33426e-06
1.80222e-06
1.82573e-06
1.68483e-06
1.77503e-06
2.03363e-06
1.97294e-06
1.67524e-06
1.58152e-06
1.65318e-06
1.98862e-06
1.82738e-06
1.80214e-06
1.69731e-06
1.15773e-06
1.74951e-06
1.12562e-06
1.96359e-06
1.89706e-06
1.33193e-06
1.75894e-06
1.32753e-06
1.65421e-06
1.75864e-06
1.57654e-06
1.70698e-06
1.96952e-06
1.91853e-06
1.65721e-06
1.59957e-06
1.71572e-06
1.9834e-06
1.79387e-06
1.81992e-06
1.77436e-06
1.11715e-06
1.87113e-06
1.08726e-06
1.89354e-06
1.81202e-06
1.3317e-06
1.62762e-06
1.37631e-06
1.55308e-06
1.69036e-06
1.4752e-06
1.64349e-06
1.91429e-06
1.85885e-06
1.77269e-06
1.58986e-06
2.19583e-06
2.06545e-06
1.82152e-06
1.88198e-06
1.90549e-06
1.07467e-06
2.01642e-06
1.03548e-06
1.80673e-06
1.70834e-06
1.40098e-06
1.52381e-06
1.49731e-06
1.42897e-06
1.62775e-06
1.37671e-06
1.57741e-06
1.85285e-06
1.78509e-06
2.37741e-06
1.55076e-06
2.99308e-06
2.18713e-06
1.88673e-06
2.005e-06
2.05795e-06
1.02053e-06
2.18233e-06
9.66975e-07
1.70037e-06
1.58912e-06
1.54536e-06
1.40004e-06
1.78711e-06
1.30838e-06
1.56141e-06
1.31279e-06
1.50669e-06
1.77755e-06
1.69514e-06
3.20403e-06
1.49353e-06
3.75118e-06
2.26229e-06
2.00978e-06
2.16313e-06
2.22403e-06
9.46556e-07
2.34649e-06
8.89316e-07
1.57826e-06
1.47167e-06
1.89021e-06
1.27628e-06
2.27991e-06
1.19961e-06
1.4853e-06
1.25368e-06
1.39791e-06
1.68481e-06
1.59652e-06
3.87817e-06
1.41595e-06
4.05121e-06
2.21515e-06
2.18505e-06
2.43064e-06
2.38962e-06
8.70205e-07
2.50834e-06
8.25693e-07
1.4597e-06
1.37557e-06
2.45492e-06
1.18156e-06
3.16254e-06
1.13059e-06
1.35943e-06
1.23988e-06
1.23409e-06
1.58398e-06
1.50386e-06
4.00482e-06
1.32386e-06
3.14497e-06
1.85992e-06
2.46672e-06
2.68389e-06
2.54339e-06
8.11883e-07
2.58235e-06
7.72506e-07
1.36563e-06
1.31592e-06
3.4346e-06
1.11699e-06
4.12464e-06
1.09665e-06
1.19124e-06
1.39836e-06
1.06807e-06
1.4877e-06
1.42105e-06
2.88398e-06
1.23431e-06
2.26815e-06
1.56305e-06
2.68517e-06
2.53896e-06
2.56521e-06
7.60385e-07
2.36442e-06
7.2947e-07
1.30538e-06
1.29439e-06
4.27023e-06
1.11969e-06
4.36263e-06
1.23123e-06
1.02176e-06
1.72984e-06
9.30474e-07
1.40425e-06
1.36718e-06
2.10217e-06
1.16102e-06
1.72688e-06
1.35638e-06
2.4381e-06
1.78068e-06
2.22751e-06
7.23019e-07
1.9213e-06
7.20966e-07
1.28664e-06
1.34819e-06
4.22771e-06
1.28218e-06
2.70229e-06
1.47048e-06
9.07881e-07
2.27582e-06
8.66989e-07
1.35521e-06
1.34295e-06
1.63028e-06
1.1042e-06
1.3806e-06
1.20932e-06
1.70173e-06
1.44888e-06
1.86564e-06
7.16864e-07
1.66525e-06
6.96361e-07
1.35879e-06
1.35998e-06
2.27996e-06
1.54671e-06
1.44276e-06
1.80039e-06
8.6314e-07
2.85345e-06
8.23711e-07
1.33887e-06
1.35881e-06
1.30501e-06
1.06735e-06
1.13361e-06
1.10182e-06
1.41554e-06
1.34709e-06
1.64202e-06
6.98203e-07
1.58697e-06
7.4459e-07
1.37768e-06
1.50436e-06
1.31106e-06
1.88187e-06
1.12174e-06
2.22149e-06
8.50776e-07
3.30679e-06
8.63532e-07
1.36859e-06
1.46322e-06
1.08909e-06
1.09786e-06
1.01197e-06
1.07841e-06
1.33448e-06
1.39042e-06
1.54887e-06
7.85597e-07
1.73533e-06
8.87344e-07
1.50379e-06
1.57879e-06
1.10773e-06
2.28485e-06
1.04025e-06
2.50407e-06
8.90149e-07
3.41498e-06
1.06672e-06
1.48963e-06
1.55342e-06
9.75784e-07
1.1569e-06
1.08437e-06
1.2507e-06
1.47803e-06
1.61551e-06
1.78073e-06
9.31289e-07
1.7934e-06
1.10287e-06
1.57485e-06
2.00559e-06
1.08512e-06
2.58787e-06
1.31746e-06
2.64497e-06
1.07609e-06
3.01139e-06
1.32625e-06
1.63596e-06
1.78915e-06
1.07849e-06
1.28258e-06
1.18316e-06
1.6792e-06
1.75082e-06
2.45678e-06
1.93109e-06
1.10919e-06
2.02036e-06
1.67462e-06
2.04762e-06
2.23557e-06
1.53108e-06
2.65733e-06
1.88746e-06
2.53393e-06
1.47506e-06
2.32673e-06
1.69451e-06
1.85965e-06
2.68806e-06
1.38147e-06
1.62665e-06
1.47806e-06
2.0465e-06
2.5914e-06
3.09858e-06
2.01838e-06
1.74894e-06
1.83335e-06
2.83625e-06
2.50036e-06
3.36411e-06
2.18384e-06
2.45289e-06
2.62333e-06
2.34705e-06
1.6421e-06
2.55365e-06
1.979e-06
2.83285e-06
2.90441e-06
1.39985e-06
1.92108e-06
1.68634e-06
2.41885e-06
3.0447e-06
7.44923e-06
1.85229e-06
3.16568e-06
3.65553e-06
3.9694e-06
3.74217e-06
5.57103e-06
2.61569e-06
2.31148e-06
4.34906e-06
3.01616e-06
2.56592e-06
3.00895e-06
3.5475e-06
2.91838e-06
5.28841e-06
2.069e-06
2.88574e-06
2.88185e-06
7.34857e-06
9.5387e-06
7.9541e-06
4.04529e-06
5.07905e-06
3.67301e-06
6.20384e-06
6.63317e-06
9.73348e-06
4.90791e-06
3.31775e-06
4.58497e-06
3.73026e-06
3.5568e-06
3.8878e-06
5.0578e-06
6.44765e-06
8.57107e-06
2.90881e-06
3.81062e-06
4.15109e-06
9.30153e-06
7.27497e-06
8.42915e-06
3.51405e-06
5.9062e-06
4.33247e-06
5.63825e-06
8.81749e-06
8.20121e-06
4.27922e-06
3.88468e-06
4.56208e-06
4.65743e-06
5.42201e-06
4.09515e-06
4.98944e-06
8.50707e-06
1.04308e-05
4.43887e-06
4.66262e-06
4.0959e-06
9.33152e-06
1.02063e-05
1.88415e-05
4.94408e-06
7.60818e-06
7.36934e-06
1.0162e-05
1.37406e-05
2.73904e-05
5.22153e-06
5.11553e-06
6.62471e-06
6.4365e-06
4.93992e-06
8.25524e-06
1.03397e-05
1.14142e-05
1.63171e-05
4.06453e-06
6.53107e-06
8.08394e-06
2.51598e-05
1.99806e-05
2.31736e-05
7.9611e-06
9.66357e-06
8.92292e-06
7.6601e-06
2.59812e-05
1.46925e-05
7.39878e-06
6.85251e-06
1.04992e-05
8.76021e-06
1.17026e-05
6.82709e-06
1.01958e-05
1.72344e-05
2.25183e-05
8.98452e-06
8.71401e-06
8.35103e-06
2.3687e-05
2.42481e-05
2.88407e-05
9.22953e-06
7.45974e-06
1.06103e-05
1.20412e-05
1.55009e-05
3.03829e-05
1.09648e-05
9.6016e-06
1.12619e-05
1.0882e-05
8.75027e-06
9.80184e-06
7.41518e-06
2.44035e-05
3.0891e-05
7.94712e-06
1.09072e-05
9.60183e-06
2.12911e-05
2.98356e-05
3.55704e-05
1.12911e-05
1.37912e-05
1.4011e-05
1.79632e-05
3.21644e-05
3.91539e-05
1.15626e-05
1.11531e-05
1.36688e-05
1.35367e-05
8.88962e-06
1.54329e-05
1.79027e-05
3.14227e-05
3.47382e-05
1.09254e-05
1.36706e-05
1.46658e-05
4.15303e-05
3.71943e-05
4.32566e-05
1.46382e-05
1.81323e-05
1.6721e-05
1.66296e-05
4.12174e-05
4.26887e-05
1.43563e-05
1.45391e-05
1.66114e-05
1.70565e-05
1.92214e-05
1.6107e-05
1.87617e-05
3.65058e-05
4.38349e-05
1.55865e-05
1.71519e-05
1.7224e-05
4.44914e-05
4.49735e-05
5.24146e-05
1.79886e-05
1.63626e-05
2.17732e-05
2.18151e-05
4.25192e-05
5.04749e-05
1.7945e-05
1.77962e-05
2.21537e-05
2.09063e-05
1.85088e-05
2.16025e-05
2.12158e-05
4.50425e-05
5.0602e-05
1.80945e-05
2.09536e-05
2.07052e-05
5.00426e-05
5.36826e-05
5.61137e-05
2.25448e-05
2.42605e-05
2.43604e-05
2.58216e-05
5.38102e-05
5.8769e-05
2.27332e-05
2.24148e-05
2.41573e-05
2.58692e-05
2.21994e-05
2.58433e-05
2.53585e-05
5.24013e-05
5.80215e-05
2.15683e-05
2.55138e-05
2.51182e-05
5.64958e-05
5.70308e-05
6.19834e-05
2.54857e-05
2.52607e-05
2.94175e-05
2.73142e-05
5.85197e-05
6.0353e-05
2.53956e-05
2.62822e-05
2.91214e-05
2.92104e-05
2.59989e-05
2.71202e-05
2.87803e-05
5.89799e-05
6.23285e-05
2.56288e-05
2.89918e-05
2.95594e-05
6.30329e-05
6.35998e-05
6.97178e-05
3.03764e-05
3.04757e-05
3.52893e-05
3.74729e-05
6.25776e-05
7.0149e-05
3.04995e-05
3.05989e-05
3.5162e-05
3.44938e-05
3.13613e-05
3.7369e-05
3.53401e-05
6.35396e-05
6.77599e-05
3.23147e-05
3.5056e-05
3.48237e-05
6.77682e-05
7.09608e-05
7.36472e-05
3.75803e-05
3.75002e-05
4.07388e-05
3.70756e-05
7.08406e-05
7.27275e-05
3.69658e-05
3.53994e-05
4.06585e-05
4.06265e-05
3.47365e-05
3.65443e-05
3.78643e-05
6.90261e-05
7.515e-05
3.42213e-05
4.03276e-05
3.86625e-05
7.54912e-05
7.43166e-05
7.74517e-05
4.07817e-05
3.99814e-05
4.42067e-05
4.90802e-05
7.38476e-05
8.00842e-05
4.10692e-05
4.35985e-05
4.45537e-05
4.64714e-05
4.2515e-05
5.0282e-05
5.36424e-05
7.63263e-05
7.6433e-05
4.24706e-05
4.5115e-05
5.15505e-05
8.08546e-05
7.87174e-05
8.20762e-05
4.68025e-05
4.91716e-05
5.13635e-05
4.87025e-05
8.07982e-05
8.06142e-05
4.66136e-05
4.54664e-05
5.08163e-05
4.46818e-05
5.40206e-05
4.85098e-05
4.97761e-05
7.65327e-05
8.08089e-05
5.14996e-05
4.50265e-05
4.74518e-05
7.7511e-05
8.27341e-05
8.64545e-05
5.16306e-05
4.97455e-05
5.53342e-05
5.62811e-05
8.11139e-05
8.66534e-05
5.11671e-05
4.86822e-05
5.72207e-05
6.56003e-05
4.83781e-05
5.52677e-05
4.86292e-05
8.3337e-05
9.27561e-05
4.61969e-05
6.76378e-05
5.23285e-05
8.60465e-05
8.80142e-05
9.20328e-05
5.78598e-05
5.95202e-05
6.68615e-05
6.52142e-05
8.8468e-05
9.11489e-05
6.01677e-05
6.94896e-05
6.48734e-05
6.81431e-05
5.59878e-05
6.56174e-05
7.32834e-05
9.36445e-05
9.11465e-05
5.98682e-05
6.99038e-05
7.25032e-05
9.58721e-05
9.25057e-05
9.34908e-05
6.83632e-05
6.55374e-05
6.72271e-05
6.66922e-05
9.14213e-05
9.40214e-05
6.57839e-05
6.57563e-05
6.73512e-05
5.80652e-05
7.47485e-05
6.6851e-05
7.17574e-05
9.03485e-05
8.66584e-05
7.35073e-05
5.98395e-05
7.04061e-05
9.40956e-05
9.41539e-05
9.82527e-05
6.73765e-05
6.81346e-05
7.57506e-05
7.78527e-05
9.53765e-05
9.92898e-05
6.82727e-05
5.69201e-05
7.49305e-05
7.45971e-05
7.02408e-05
7.74056e-05
7.0298e-05
8.77161e-05
0.000103141
6.8861e-05
7.54195e-05
6.93912e-05
9.49502e-05
9.92321e-05
0.000101935
7.78316e-05
8.02159e-05
7.93461e-05
7.96362e-05
9.97171e-05
0.000100225
7.68371e-05
8.23784e-05
8.02932e-05
9.33902e-05
7.32797e-05
7.96583e-05
7.91309e-05
0.000105721
0.000106837
7.16589e-05
9.17267e-05
8.06238e-05
0.000103007
0.000102918
0.000109182
8.03213e-05
7.89944e-05
9.07044e-05
8.72745e-05
0.000100866
0.00010875
8.18508e-05
9.40673e-05
9.18433e-05
9.24996e-05
8.18316e-05
8.72936e-05
9.29392e-05
0.000106373
0.000106507
8.51261e-05
8.8538e-05
9.8455e-05
0.000112295
0.000110427
0.000109975
9.45945e-05
9.26731e-05
9.6383e-05
0.000100428
0.000110755
0.000112796
9.54032e-05
9.15038e-05
9.59341e-05
8.924e-05
9.73444e-05
0.000100956
9.99587e-05
0.000107425
0.000109961
0.000100577
9.27224e-05
9.53564e-05
0.000110116
0.000109458
0.000109504
9.50523e-05
9.92485e-05
9.20396e-05
9.36341e-05
0.000112281
0.000108483
9.44387e-05
9.18073e-05
9.06836e-05
9.38504e-05
9.79484e-05
9.37302e-05
8.89466e-05
0.000110684
0.000109999
9.15468e-05
9.65162e-05
8.1782e-05
0.000101628
0.000111258
0.000119555
9.46227e-05
9.22367e-05
0.000106043
0.000100388
0.000108371
0.000116728
9.19134e-05
9.3314e-05
0.000107438
0.000102483
8.74777e-05
9.74238e-05
9.89583e-05
0.000109698
0.000116428
8.07786e-05
9.64551e-05
0.000106707
0.000122825
0.000119932
0.000120434
0.000107669
0.000107146
0.000110806
0.000118953
0.000120053
0.000127697
0.000109112
0.000108347
0.000110197
0.000121189
0.000110929
0.000121001
0.000124034
0.000119832
0.000129681
0.000119203
0.000122895
0.000131044
0.000133828
0.000121321
0.000125738
0.00011242
0.000118533
0.000115588
0.00011305
0.000127416
0.000120772
0.000111735
0.000121601
0.000115974
0.000116949
0.000122542
0.000114225
0.000113033
0.000129562
0.00012258
0.000129283
0.000118421
0.000115614
0.000118375
0.000126092
0.000128745
0.000116312
0.00011147
0.000121855
0.000113668
0.000120135
0.000125785
0.000116111
0.000114192
0.000120546
0.000110056
0.000111462
0.000110674
0.000113705
0.000121666
0.00012048
0.000113151
0.000109416
0.000112591
0.000128881
0.000129973
0.000133672
0.000123594
0.000120355
0.000124528
0.000132349
0.000129258
0.000137575
0.000123095
0.000111188
0.000127772
0.000129521
0.000122253
0.000133287
0.000134423
0.000122397
0.000137954
0.000118423
0.000130008
0.000132146
0.000138791
0.00013386
0.000133541
0.000125736
0.000132779
0.000129995
0.000129224
0.000137335
0.000132274
0.000129049
0.000134288
0.000131023
0.000136506
0.000133583
0.000130752
0.000127006
0.000139791
0.000138381
0.000132306
0.000136911
0.000128161
0.00012926
0.000133128
0.000131572
0.000129502
0.000127352
0.000126977
0.000124478
0.000131634
0.000131013
0.000130033
0.000135063
0.000126669
0.000127473
0.000124758
0.000124875
0.00012145
0.000137414
0.00013039
0.000126504
0.000127311
0.000123636
0.000128438
0.00013219
0.000143688
0.000127277
0.000126119
0.000139603
0.000141165
0.000132418
0.00014543
0.000126394
0.000126133
0.000137745
0.000129015
0.0001223
0.000140119
0.000141513
0.000129871
0.000137937
0.000124677
0.000129587
0.000141599
0.000146468
0.000146102
0.000150228
0.000144129
0.000145449
0.000150578
0.000150921
0.000147665
0.000150629
0.000142645
0.000136977
0.000151459
0.000152845
0.000147033
0.000151878
0.000154559
0.000141963
0.000152467
0.00014688
0.000153497
0.000154762
0.000154222
0.000149912
0.000144792
0.000150138
0.000150293
0.00014605
0.000145067
0.000150191
0.000143026
0.000151461
0.000154088
0.000147794
0.000151869
0.00015418
0.000146346
0.000149193
0.000152625
0.000148482
0.00015443
0.000151682
0.000149397
0.000145963
0.000144252
0.000145024
0.000144664
0.00014314
0.000143833
0.000141188
0.000142249
0.000141905
0.000145922
0.00014961
0.000143666
0.000144982
0.000146128
0.000140692
0.000141716
0.000147682
0.000143738
0.00014635
0.000144551
0.000141974
0.000140496
0.000146725
0.000155089
0.000147165
0.000144092
0.000157088
0.000157058
0.000143862
0.000156148
0.000144922
0.00014445
0.000156714
0.000152851
0.000141684
0.000156811
0.000155948
0.000144057
0.000153064
0.000141916
0.000152919
0.000155545
0.000156025
0.000155691
0.000154497
0.000158507
0.000160203
0.000158305
0.000164519
0.000157838
0.000160446
0.000158937
0.000157024
0.000159516
0.000161654
0.000160562
0.000166253
0.000164899
0.000154777
0.000156942
0.000160065
0.00016234
0.000164174
0.000159704
0.000154153
0.000156843
0.000157985
0.000164046
0.000161189
0.000160931
0.000160148
0.00015539
0.000159037
0.000161193
0.000160102
0.000159711
0.00016411
0.000161282
0.000158693
0.000156579
0.000154502
0.000163363
0.000159744
0.000158253
0.00015194
0.000158491
0.000163852
0.00016378
0.00016018
0.000169863
0.000162624
0.000154921
0.000157362
0.000163275
0.000159953
0.000170022
0.000169042
0.000157658
0.000159054
0.000160215
0.000154982
0.000163243
0.000157408
0.000167064
0.000161742
0.000159164
0.000163923
0.000162662
0.000170436
0.000166008
0.00016992
0.000171702
0.000159237
0.000165251
0.000170546
0.000170752
0.000169902
0.000171492
0.000166433
0.0001734
0.000178304
0.000164268
0.000164938
0.000167885
0.000172841
0.000178379
0.000171365
0.000162474
0.000163848
0.000169899
0.000172525
0.000171734
0.000172143
0.000165391
0.000163848
0.000169663
0.000171382
0.000172377
0.000174042
0.000178792
0.000174155
0.000175049
0.000164818
0.000165678
0.000178664
0.000175109
0.000174749
0.000163827
0.000163525
0.000163337
0.000171382
0.000171672
0.000171305
0.00017279
0.000163464
0.000165176
0.00017227
0.000174179
0.000171641
0.000172097
0.000172113
0.000172102
0.000167596
0.00016548
0.00016257
0.000171752
0.000170795
0.000166974
0.000157393
0.000164756
0.000175458
0.000173694
0.000175554
0.00018496
0.00018436
0.000166683
0.000174402
0.000172771
0.00017147
0.000183516
0.000175567
0.000167285
0.000182049
0.000178687
0.000162081
0.000166231
0.000166612
0.000172239
0.000177944
0.00017192
0.000176373
0.000173804
0.000187031
0.000185799
0.000186222
0.000184903
0.000174842
0.000172333
0.000185804
0.00017861
0.000185965
0.000187026
0.000184075
0.000185408
0.000191789
0.00016799
0.000176764
0.000183491
0.000188833
0.000192147
0.000180727
0.00017289
0.000166964
0.000184706
0.000183759
0.000179127
0.000181333
0.000171727
0.000169925
0.000184984
0.000189427
0.000181327
0.000193158
0.000191764
0.000183338
0.000187503
0.000178275
0.000182056
0.000192374
0.000195828
0.00018928
0.000173998
0.000166574
0.000175239
0.000178578
0.000181198
0.000184598
0.000188504
0.000170529
0.000178175
0.000180937
0.000193018
0.000186512
0.000188959
0.000185662
0.000188816
0.000184054
0.000181918
0.000175653
0.00018757
0.000190317
0.000185917
0.000172465
0.000178118
0.000188085
0.000190682
0.000191305
0.00020272
0.000195391
0.000179215
0.000180015
0.000190468
0.0001869
0.000199189
0.000184408
0.00018474
0.000193454
0.000192179
0.000174636
0.000170326
0.000186027
0.000182551
0.000189442
0.000177768
0.000188376
0.000183179
0.0002038
0.00019583
0.000202043
0.00019582
0.000179747
0.000178644
0.000200093
0.000184644
0.000198231
0.000192805
0.000192935
0.000192311
0.000192657
0.000170286
0.000177299
0.000189374
0.000187954
0.000189099
0.00017715
0.00018167
0.00017437
0.000198232
0.000195524
0.000189581
0.000194603
0.000178584
0.000181547
0.000195619
0.000194833
0.000190986
0.000197983
0.000192719
0.000197257
0.000198177
0.000178773
0.000184299
0.000190396
0.000200544
0.000199775
0.000184786
0.00017399
0.000181143
0.000188795
0.000194523
0.000191373
0.000197492
0.000182118
0.000184783
0.000190718
0.00019933
0.000196984
0.00020425
0.00020069
0.000202356
0.000203757
0.000185267
0.000189369
0.00020243
0.00020668
0.000205332
0.000187799
0.000182931
0.000186103
0.000195853
0.00019926
0.000203741
0.000202906
0.000185049
0.000185161
0.000200362
0.000204745
0.000203347
0.000202432
0.00020353
0.000201655
0.000199881
0.000189307
0.000183629
0.000205186
0.000202088
0.000200405
0.000181715
0.000185834
0.000185387
0.000204423
0.00020305
0.000204719
0.000202206
0.00018484
0.000183245
0.000203041
0.000200321
0.000202299
0.00019788
0.000198638
0.000199342
0.000197487
0.000182397
0.000179488
0.00019862
0.000196519
0.000196897
0.000181207
0.0001859
0.000194275
0.000205126
0.000202009
0.000210488
0.000205007
0.000183014
0.000187501
0.000202716
0.000198177
0.000211835
0.000209221
0.000198549
0.000204478
0.00020707
0.0001803
0.000192456
0.000197562
0.000208081
0.000207849
0.000190926
0.000195327
0.000195661
0.000212414
0.000207407
0.000214154
0.00021387
0.000188921
0.000195127
0.000214435
0.000212734
0.000215904
0.000215842
0.000209733
0.000214912
0.00021548
0.000194027
0.000196147
0.000210803
0.000215782
0.0002155
0.000195688
0.000194623
0.000184074
0.000213807
0.000214678
0.000207064
0.00021414
0.00019534
0.000193014
0.000214915
0.000215534
0.000204383
0.000208279
0.000215986
0.000214945
0.000214471
0.000195508
0.000187846
0.000215752
0.000210182
0.000213324
0.000192114
0.000182622
0.000180281
0.000204567
0.000212189
0.000201366
0.00020593
0.000191905
0.000185637
0.000201598
0.000205782
0.000198861
0.000202426
0.000211556
0.00020621
0.000204342
0.000186746
0.000183878
0.000210629
0.000204326
0.000204199
0.000183885
0.000181463
0.000196435
0.000201517
0.00020531
0.000213256
0.000208059
0.000185208
0.000191159
0.000199779
0.000202395
0.000215819
0.000212267
0.000203562
0.000209383
0.000206294
0.000184082
0.000192786
0.000203434
0.000210511
0.000206115
0.000188161
0.000199054
0.000208473
0.000218433
0.000213048
0.00022812
0.000223621
0.000193529
0.000202307
0.000221646
0.00021714
0.000231542
0.000228159
0.000211245
0.00022297
0.00022378
0.000194909
0.000204898
0.000210805
0.000225344
0.00022418
0.000202906
0.000208437
0.000197085
0.000228705
0.000224402
0.000223381
0.000221575
0.000202301
0.000195197
0.000232061
0.000229156
0.000223602
0.000225478
0.000225659
0.000219911
0.000225915
0.000205218
0.000199475
0.000226615
0.000225931
0.00022768
0.000202495
0.000194376
0.000184884
0.000218397
0.000217867
0.000209288
0.000211665
0.000193354
0.000187863
0.000217286
0.000219767
0.000206446
0.000208541
0.000223444
0.000211457
0.000214039
0.000197072
0.000186678
0.000225733
0.00021142
0.000214373
0.000190704
0.000184472
0.000194741
0.000208784
0.000211444
0.000214042
0.000217492
0.000187835
0.000198327
0.000205913
0.000207853
0.000213038
0.000213052
0.000212964
0.000218726
0.000214229
0.000186203
0.000194249
0.00021266
0.000212516
0.000212704
0.000193091
0.000197322
0.000206918
0.000219474
0.000222144
0.00023037
0.000231083
0.000200495
0.000208479
0.000219311
0.000218893
0.000231092
0.000229537
0.00021796
0.000232237
0.000227205
0.000196727
0.000205509
0.000215276
0.000227946
0.000225408
0.000203049
0.000206978
0.000201295
0.000231284
0.00023176
0.000228696
0.000227813
0.00020845
0.000200318
0.000231987
0.000230255
0.000228956
0.000227247
0.000227895
0.000227467
0.000225113
0.000205475
0.000199854
0.000226343
0.000226772
0.000224909
0.000198219
0.000199585
0.000193679
0.000224865
0.000223595
0.000217763
0.000215512
0.000198225
0.000190514
0.000225114
0.000224169
0.000218499
0.000219875
0.000221666
0.000214259
0.000216843
0.000198482
0.000195153
0.000222346
0.000220051
0.000218969
0.000192975
0.000193429
0.000198383
0.000217366
0.00021498
0.000219967
0.000217934
0.000190143
0.000196402
0.000218201
0.000219874
0.000220948
0.000223709
0.000216895
0.00021774
0.000224174
0.00019529
0.000201146
0.000219115
0.000224294
0.000226023
0.00020278
0.000199542
0.000202832
0.000222953
0.000221813
0.000228245
0.000229508
0.000198111
0.000204285
0.000223555
0.000225464
0.0002275
0.000227003
0.0002276
0.000229838
0.000230739
0.000201779
0.000201825
0.000228633
0.000227685
0.000230523
0.000205603
0.000202646
0.000199837
0.000228653
0.000230172
0.000227431
0.000229051
0.000204293
0.000201413
0.000227744
0.000226719
0.000225704
0.000222606
0.000230358
0.000228191
0.000222893
0.000201129
0.000196347
0.000229722
0.000222631
0.000221823
0.000195142
0.000199226
0.000197539
0.000225901
0.000226898
0.000223215
0.000223289
0.000200485
0.000197874
0.000224435
0.000221786
0.000222836
0.000221764
0.000221487
0.00022352
0.000222121
0.000195932
0.000197615
0.000220738
0.000222175
0.000221941
0.00019761
0.000197543
0.000202842
0.000223258
0.000223341
0.000226999
0.000227419
0.000197862
0.000203355
0.000223025
0.000222889
0.00022845
0.000230929
0.000224485
0.000229376
0.00023303
0.000198544
0.000205556
0.000224824
0.000231127
0.0002328
0.000208227
0.000203847
0.000206484
0.000229376
0.00022975
0.000232194
0.000232388
0.000204227
0.000206186
0.000230722
0.000232888
0.000233196
0.000234666
0.000233855
0.000232819
0.00023199
0.000206266
0.000206924
0.000233476
0.000233547
0.000231216
0.000202959
0.000205613
0.000196457
0.000231987
0.000232105
0.000224487
0.000224086
0.000205209
0.000196342
0.000232748
0.000233624
0.000223803
0.000222859
0.000228239
0.000222832
0.000220914
0.000205537
0.000195662
0.000227643
0.000222596
0.000221207
0.000193896
0.000195653
0.000198138
0.000222783
0.000222221
0.000223267
0.000222279
0.000195498
0.000196953
0.000222074
0.000221077
0.000222664
0.000221678
0.000220725
0.000222213
0.000225533
0.000194897
0.000197485
0.00022119
0.000222992
0.000226628
0.000202104
0.00019953
0.000206688
0.000225039
0.000223768
0.000233403
0.00023319
0.000198234
0.000206064
0.00022471
0.000223861
0.000233532
0.000233453
0.000228672
0.000233498
0.000234959
0.000198946
0.000206344
0.00022952
0.000233887
0.000235333
0.000208159
0.0002088
0.000232192
0.000232334
0.000208558
0.000232361
0.000232414
0.00025532
0.000255336
0.000255217
0.000232064
0.00020859
0.000232149
4.46151e-06
2.06644e-06
1.79686e-06
2.04646e-06
1.14326e-06
2.10366e-06
9.36692e-07
2.05587e-06
1.23974e-06
1.90904e-06
1.49389e-06
4.18809e-07
2.24354e-06
2.81458e-06
1.79193e-06
1.15591e-06
1.37921e-05
1.04856e-06
1.55636e-05
1.09596e-05
1.31758e-05
1.33498e-06
1.63958e-05
1.26847e-06
1.69569e-05
1.65994e-06
1.79034e-06
1.85339e-06
1.70582e-06
1.64521e-06
1.80914e-06
1.85164e-06
1.07731e-06
5.95677e-07
2.1731e-06
2.08544e-06
1.10355e-06
7.41416e-07
2.20757e-06
1.0632e-05
1.32093e-05
1.24402e-06
1.56655e-06
3.12487e-07
1.63316e-06
1.23355e-06
1.56894e-06
4.21809e-07
1.4751e-06
1.50871e-06
2.24523e-06
1.69144e-06
1.71919e-06
1.35145e-06
1.88313e-05
1.26665e-06
2.11559e-05
1.7221e-05
1.93916e-05
1.52948e-06
1.84031e-05
1.45883e-06
2.07717e-05
1.63725e-06
1.81645e-06
1.84618e-06
1.70501e-06