/*--------------------------------*- C++ -*----------------------------------*\
| =========                 |                                                 |
| \\      /  F ield         | OpenFOAM: The Open Source CFD Toolbox           |
|  \\    /   O peration     | Version:  v2006                                 |
|   \\  /    A nd           | Website:  www.openfoam.com                      |
|    \\/     M anipulation  |                                                 |
\*---------------------------------------------------------------------------*/
FoamFile
{
    version     2.0;
    format      ascii;
    class       volScalarField;
    location    "875";
    object      epsilon;
}
// * * * * * * * * * * * * * * * * * * * * * * * * * * * * * * * * * * * * * //

dimensions      [0 2 -3 0 0 0 0];


internalField   nonuniform List<scalar> 
14310
(
9.37736e-07
6.25968e-07
6.25764e-07
9.03979e-06
4.03138e-06
9.04103e-06
4.03147e-06
1.82871e-05
1.82897e-05
5.37946e-06
5.38106e-06
4.03126e-06
3.3584e-06
3.59597e-07
1.95171e-06
3.59548e-07
1.95159e-06
3.35889e-06
3.59609e-07
1.95177e-06
4.03151e-06
3.59626e-07
1.95171e-06
2.19795e-05
7.07674e-06
9.04178e-06
2.19769e-05
7.07607e-06
1.21306e-05
4.03195e-06
1.0757e-05
4.6969e-06
1.21297e-05
1.07578e-05
4.69745e-06
2.198e-05
7.077e-06
9.04293e-06
2.19775e-05
7.07627e-06
1.21309e-05
4.032e-06
4.69695e-06
1.07575e-05
1.213e-05
4.69746e-06
1.07582e-05
1.82898e-05
1.82924e-05
4.43435e-06
2.66827e-06
9.34075e-06
5.38008e-06
4.43379e-06
9.34339e-06
2.67141e-06
4.44066e-06
2.66955e-06
9.34571e-06
5.38164e-06
4.44014e-06
9.34832e-06
2.67261e-06
9.68042e-06
2.16093e-05
2.16086e-05
9.68258e-06
2.16108e-05
2.16101e-05
2.19813e-05
7.0757e-06
2.19786e-05
7.07517e-06
1.21311e-05
4.69671e-06
4.03192e-06
1.07569e-05
1.07577e-05
1.21302e-05
4.69735e-06
2.19805e-05
2.19777e-05
7.07495e-06
1.2131e-05
4.03182e-06
1.07573e-05
4.69682e-06
1.0758e-05
1.21301e-05
4.69712e-06
2.52318e-06
1.5816e-06
1.58191e-06
9.37439e-07
2.52189e-06
1.58276e-06
1.58308e-06
1.41118e-06
2.73626e-06
1.41084e-06
2.73759e-06
1.41153e-06
1.84835e-06
2.73691e-06
3.35937e-06
2.73797e-06
1.4112e-06
1.84986e-06
1.18552e-06
1.95449e-06
2.22123e-06
1.04368e-06
2.22415e-06
1.18534e-06
1.0447e-06
1.18532e-06
2.22093e-06
1.95445e-06
1.0436e-06
1.18513e-06
2.22394e-06
1.04463e-06
1.41156e-06
1.84872e-06
2.73689e-06
3.35987e-06
2.73817e-06
1.41125e-06
1.85024e-06
1.18557e-06
1.95458e-06
2.22128e-06
1.04375e-06
2.22421e-06
1.1854e-06
1.04478e-06
1.41128e-06
2.73738e-06
1.18543e-06
1.95445e-06
1.04372e-06
2.221e-06
1.18527e-06
1.04474e-06
2.22389e-06
2.20568e-05
2.2062e-05
1.22051e-05
1.08308e-05
1.08285e-05
1.22077e-05
1.08274e-05
2.20545e-05
2.206e-05
1.22041e-05
1.08307e-05
1.08283e-05
1.22068e-05
1.22042e-05
1.08276e-05
2.20572e-05
8.68581e-07
1.15383e-06
8.6848e-07
8.68678e-07
8.68493e-07
1.15403e-06
3.22865e-07
3.22894e-07
9.16397e-06
9.15731e-06
8.6252e-07
2.03684e-06
3.47353e-06
1.8432e-05
1.8423e-05
1.14959e-06
5.46386e-06
5.46257e-06
5.46137e-06
5.45993e-06
1.84309e-05
1.84219e-05
2.10264e-06
4.08969e-06
2.10424e-06
8.62412e-07
1.62112e-06
5.62369e-07
3.47329e-06
5.56443e-07
1.41993e-06
4.09064e-06
9.16451e-06
9.15793e-06
4.09377e-06
2.10418e-06
8.62583e-07
5.62411e-07
2.03678e-06
5.56481e-07
3.47319e-06
1.41987e-06
4.09053e-06
9.16463e-06
9.15765e-06
4.09367e-06
5.62399e-07
2.03712e-06
1.41988e-06
9.16539e-06
4.09371e-06
5.46316e-06
5.46479e-06
1.84327e-05
1.84349e-05
2.20566e-05
9.16127e-06
7.08698e-06
7.08684e-06
2.20616e-05
2.20571e-05
7.08572e-06
9.16005e-06
2.20521e-05
7.0859e-06
1.84278e-05
1.84272e-05
9.73349e-06
2.17224e-05
2.17232e-05
9.73346e-06
2.17263e-05
2.1727e-05
4.546e-06
2.81589e-06
5.46346e-06
9.507e-06
2.81441e-06
9.50414e-06
4.54631e-06
4.53991e-06
2.81498e-06
5.462e-06
9.50302e-06
9.50019e-06
2.81325e-06
4.54031e-06
4.54444e-06
9.50003e-06
2.81144e-06
5.4618e-06
2.81301e-06
4.54395e-06
9.50295e-06
4.53844e-06
9.49609e-06
2.81027e-06
5.46054e-06
4.53787e-06
9.49899e-06
2.8121e-06
9.734e-06
2.17293e-05
2.173e-05
2.17257e-05
2.17264e-05
9.73352e-06
1.84267e-05
1.84261e-05
1.21978e-05
4.0885e-06
1.08243e-05
4.74192e-06
1.08221e-05
4.74083e-06
1.22004e-05
1.22036e-05
4.74307e-06
1.08255e-05
4.0918e-06
1.2201e-05
4.74378e-06
1.08278e-05
2.20546e-05
9.16184e-06
7.08796e-06
7.08806e-06
2.20599e-05
2.20555e-05
7.08705e-06
9.16065e-06
2.20502e-05
7.08698e-06
1.22044e-05
4.09263e-06
4.74543e-06
1.0831e-05
4.74475e-06
1.08287e-05
1.2207e-05
1.22038e-05
1.08252e-05
4.74259e-06
4.09168e-06
1.22013e-05
1.08275e-05
4.74365e-06
2.20557e-05
9.16182e-06
7.08672e-06
7.08657e-06
2.20608e-05
2.20562e-05
7.08541e-06
9.16056e-06
2.20511e-05
7.0856e-06
1.22047e-05
4.09253e-06
1.08307e-05
4.74536e-06
1.08284e-05
4.74431e-06
1.22072e-05
9.16251e-06
7.08723e-06
7.08703e-06
4.0925e-06
4.74552e-06
4.74438e-06
4.54086e-06
2.81531e-06
5.46256e-06
9.50374e-06
2.81375e-06
9.5009e-06
4.54113e-06
4.54693e-06
2.81654e-06
5.46416e-06
9.50857e-06
2.81487e-06
9.50571e-06
4.54721e-06
9.73581e-06
2.17315e-05
2.1731e-05
2.17282e-05
2.17278e-05
9.73522e-06
1.84284e-05
1.84305e-05
1.77301e-06
1.77309e-06
2.67189e-06
2.67133e-06
1.15456e-06
1.77286e-06
1.77277e-06
1.77351e-06
2.67243e-06
1.77326e-06
2.67187e-06
1.15473e-06
1.77299e-06
1.77325e-06
1.6817e-07
8.05522e-08
1.68205e-07
3.18896e-07
1.66067e-07
1.66036e-07
7.99967e-08
1.68226e-07
8.05578e-08
1.6819e-07
3.18933e-07
1.66098e-07
1.66064e-07
8.0011e-08
1.62104e-06
3.47691e-06
2.86215e-06
1.62136e-06
3.47633e-06
2.86143e-06
2.03628e-06
1.61644e-06
2.85844e-06
2.03233e-06
3.47414e-06
1.61674e-06
2.85921e-06
2.03292e-06
2.66905e-06
1.14888e-06
1.7689e-06
1.7688e-06
1.76917e-06
2.6684e-06
1.76909e-06
1.4099e-06
2.10038e-06
1.27228e-06
2.36173e-06
1.27212e-06
2.35968e-06
1.40938e-06
1.41475e-06
2.3634e-06
1.27764e-06
2.10647e-06
1.41529e-06
2.3654e-06
1.27777e-06
2.03666e-06
2.86232e-06
3.47671e-06
1.62145e-06
3.47609e-06
2.0361e-06
2.86176e-06
1.61651e-06
2.8588e-06
2.03214e-06
3.47395e-06
1.61683e-06
2.03274e-06
2.85939e-06
1.28316e-06
2.11017e-06
2.36881e-06
1.42048e-06
2.10797e-06
2.36684e-06
1.28304e-06
1.41466e-06
1.27761e-06
2.36322e-06
2.10639e-06
1.4152e-06
1.27774e-06
2.36524e-06
1.62108e-06
3.47687e-06
2.86209e-06
1.62139e-06
3.47619e-06
2.8614e-06
2.03618e-06
1.61641e-06
2.85832e-06
2.03209e-06
3.47393e-06
1.61669e-06
2.85907e-06
2.03273e-06
1.28313e-06
2.11011e-06
2.3687e-06
1.42042e-06
2.10793e-06
1.28302e-06
2.36672e-06
1.62112e-06
3.47733e-06
2.86228e-06
1.62142e-06
3.47663e-06
2.86154e-06
2.03653e-06
1.28313e-06
2.11012e-06
2.36874e-06
1.42044e-06
2.10789e-06
1.283e-06
2.36671e-06
9.59375e-07
6.48378e-07
6.4818e-07
6.48539e-07
9.59693e-07
6.48376e-07
1.82942e-05
5.38427e-06
9.44885e-07
4.03348e-06
9.04452e-06
4.0335e-06
9.04566e-06
2.11566e-07
2.11625e-07
1.8292e-05
1.82945e-05
9.44821e-07
5.3822e-06
5.38372e-06
1.82966e-05
1.82915e-05
1.82992e-05
1.8294e-05
9.52447e-07
5.38658e-06
5.38816e-06
5.38369e-06
5.38522e-06
9.04473e-06
4.03346e-06
1.95985e-06
6.33455e-07
3.36318e-06
3.64956e-07
3.36366e-06
6.33433e-07
1.95982e-06
3.64909e-07
4.03439e-06
9.05016e-06
9.04531e-06
4.03652e-06
4.03432e-06
4.03646e-06
1.96232e-06
6.40913e-07
3.37073e-06
3.7577e-07
3.36596e-06
3.70329e-07
1.97035e-06
1.96226e-06
1.9703e-06
1.95988e-06
6.33257e-07
3.36363e-06
3.64944e-07
4.03444e-06
9.05152e-06
9.04648e-06
4.03664e-06
1.96236e-06
6.40705e-07
3.37122e-06
3.75756e-07
3.36641e-06
3.70337e-07
1.97039e-06
4.03456e-06
9.05143e-06
9.04643e-06
4.03653e-06
1.96228e-06
6.41018e-07
3.75798e-07
3.3719e-06
3.70366e-07
3.36702e-06
1.97038e-06
1.83008e-05
1.82957e-05
9.52665e-07
5.38948e-06
5.38805e-06
5.38704e-06
5.38539e-06
1.82991e-05
1.82939e-05
1.96241e-06
6.40848e-07
3.37158e-06
3.70371e-07
3.36659e-06
4.03458e-06
9.05154e-06
9.04644e-06
1.8291e-05
4.44392e-06
5.38323e-06
2.67876e-06
9.35308e-06
9.34955e-06
4.44565e-06
2.67509e-06
9.68812e-06
2.16158e-05
2.1617e-05
2.16147e-05
2.16164e-05
9.6858e-06
4.44074e-06
9.34764e-06
1.21305e-05
4.03289e-06
1.07587e-05
4.69843e-06
1.07578e-05
4.69788e-06
1.21314e-05
2.19763e-05
7.07547e-06
9.04256e-06
7.0761e-06
2.1979e-05
1.21307e-05
4.0329e-06
4.69844e-06
1.0759e-05
4.69782e-06
1.07582e-05
1.21316e-05
2.19768e-05
7.07575e-06
9.0437e-06
7.07627e-06
2.19796e-05
1.82893e-05
1.82919e-05
9.68007e-06
2.161e-05
2.16093e-05
2.1608e-05
2.16073e-05
9.67921e-06
4.43601e-06
9.34672e-06
5.38165e-06
2.67627e-06
9.34434e-06
4.43678e-06
2.67321e-06
4.44235e-06
9.35161e-06
5.38319e-06
2.67746e-06
9.34925e-06
4.44309e-06
2.67446e-06
1.82938e-05
1.82942e-05
1.82963e-05
1.82967e-05
9.6815e-06
2.16084e-05
2.16077e-05
9.6802e-06
2.16119e-05
2.16112e-05
4.444e-06
2.68673e-06
5.38589e-06
9.35571e-06
9.35207e-06
2.6834e-06
4.44559e-06
4.45028e-06
2.68792e-06
5.38746e-06
9.36063e-06
9.35697e-06
2.68465e-06
4.45183e-06
4.44056e-06
9.34778e-06
2.67813e-06
5.38426e-06
4.43914e-06
9.35061e-06
2.68136e-06
4.44682e-06
9.35266e-06
2.6794e-06
5.3858e-06
4.44546e-06
9.3555e-06
2.68255e-06
9.68563e-06
2.16165e-05
2.16159e-05
2.16119e-05
2.16112e-05
9.68687e-06
2.19781e-05
9.04254e-06
7.07461e-06
7.07519e-06
2.19807e-05
1.21309e-05
4.69837e-06
4.03279e-06
1.07586e-05
1.07578e-05
4.69774e-06
1.21318e-05
1.21322e-05
1.07588e-05
4.69886e-06
4.035e-06
1.21313e-05
1.07596e-05
4.69941e-06
2.19755e-05
9.0481e-06
7.07453e-06
7.07503e-06
2.19783e-05
2.19786e-05
7.07551e-06
9.04727e-06
2.19759e-05
7.07495e-06
1.21322e-05
4.03587e-06
1.07606e-05
4.70042e-06
1.07597e-05
4.69982e-06
1.21331e-05
1.21327e-05
4.69875e-06
1.07587e-05
4.03498e-06
1.21317e-05
1.07595e-05
4.69934e-06
1.21326e-05
4.70029e-06
4.03582e-06
1.07605e-05
1.07596e-05
4.69972e-06
1.21335e-05
1.21325e-05
4.69883e-06
1.07591e-05
4.03506e-06
1.21315e-05
4.6995e-06
1.076e-05
2.19764e-05
9.04939e-06
7.07512e-06
7.0755e-06
2.19793e-05
2.19794e-05
7.0758e-06
9.04853e-06
2.19766e-05
7.07541e-06
1.21325e-05
4.03603e-06
4.70059e-06
1.0761e-05
4.69993e-06
1.07601e-05
1.21335e-05
1.21327e-05
1.07589e-05
4.69896e-06
4.03496e-06
1.21317e-05
1.07598e-05
4.69933e-06
2.19766e-05
9.04949e-06
7.07338e-06
7.07407e-06
2.19793e-05
2.19797e-05
7.07468e-06
9.04866e-06
2.1977e-05
7.07405e-06
1.21326e-05
4.03615e-06
1.07608e-05
4.70032e-06
1.07599e-05
4.7e-06
1.21336e-05
1.82982e-05
1.82987e-05
9.68692e-06
2.16185e-05
2.16189e-05
9.69057e-06
2.16186e-05
2.1619e-05
4.4509e-06
2.68848e-06
5.38922e-06
9.36163e-06
2.68574e-06
9.36006e-06
4.45116e-06
4.44457e-06
2.68717e-06
5.38767e-06
9.35688e-06
9.35528e-06
2.68456e-06
4.4448e-06
4.45002e-06
9.35689e-06
2.68104e-06
5.38754e-06
2.68407e-06
4.44978e-06
9.35946e-06
4.44365e-06
9.35206e-06
2.67987e-06
5.38606e-06
4.44346e-06
9.35467e-06
2.68276e-06
9.68512e-06
2.16138e-05
2.16142e-05
2.16137e-05
2.16141e-05
9.68238e-06
1.82965e-05
1.82969e-05
1.2132e-05
4.69918e-06
1.07589e-05
4.03504e-06
1.2131e-05
4.69936e-06
1.07598e-05
2.19753e-05
9.04957e-06
7.07468e-06
7.07558e-06
2.19783e-05
2.19787e-05
7.0761e-06
9.04874e-06
2.19756e-05
7.07537e-06
2.53776e-06
9.59703e-07
1.60337e-06
1.60368e-06
1.60219e-06
1.60249e-06
2.53944e-06
2.53864e-06
9.60023e-07
1.60419e-06
1.60399e-06
1.60318e-06
1.60299e-06
2.53967e-06
2.52833e-06
9.45143e-07
1.59055e-06
1.59009e-06
1.58903e-06
2.52976e-06
1.58905e-06
2.06009e-07
1.14895e-07
1.14872e-07
7.13516e-08
2.08768e-07
1.16952e-07
1.16928e-07
1.15908e-07
1.15889e-07
7.13604e-08
7.13804e-08
2.08802e-07
1.16969e-07
1.16953e-07
1.15922e-07
1.15908e-07
7.13669e-08
7.13878e-08
2.52673e-06
9.45139e-07
1.58961e-06
1.58993e-06
2.52807e-06
1.58849e-06
1.58879e-06
2.53347e-06
9.52126e-07
1.59529e-06
1.59559e-06
2.53187e-06
1.59646e-06
1.59677e-06
1.19372e-06
1.95705e-06
2.22909e-06
1.05303e-06
2.22621e-06
1.05204e-06
1.19388e-06
1.41878e-06
2.74216e-06
3.36223e-06
1.85671e-06
2.74112e-06
1.85525e-06
1.41909e-06
1.41856e-06
3.36253e-06
1.8571e-06
2.74201e-06
1.85545e-06
2.74067e-06
1.41891e-06
1.19357e-06
2.22897e-06
1.95695e-06
1.05297e-06
2.22599e-06
1.05198e-06
1.19373e-06
1.20213e-06
2.23113e-06
1.06031e-06
1.96514e-06
1.20201e-06
2.23397e-06
1.06128e-06
1.43359e-06
1.87013e-06
3.36973e-06
2.75043e-06
1.86868e-06
2.74935e-06
1.43384e-06
1.42651e-06
2.74525e-06
1.86199e-06
3.36691e-06
1.86342e-06
1.42624e-06
2.74629e-06
1.21018e-06
1.96752e-06
2.23882e-06
1.06945e-06
2.23597e-06
1.0685e-06
1.21029e-06
1.20203e-06
2.23097e-06
1.06027e-06
1.96511e-06
1.20191e-06
2.23388e-06
1.06124e-06
1.21013e-06
2.23871e-06
1.96748e-06
1.06941e-06
2.23586e-06
1.06846e-06
1.21023e-06
1.19377e-06
1.95707e-06
2.22911e-06
1.05309e-06
2.2262e-06
1.05209e-06
1.19391e-06
1.41882e-06
2.74233e-06
3.3627e-06
1.85707e-06
2.74107e-06
1.85561e-06
1.41909e-06
1.20214e-06
2.2311e-06
1.06036e-06
1.96515e-06
1.20205e-06
2.23398e-06
1.06132e-06
1.4336e-06
1.87048e-06
3.37021e-06
2.75066e-06
1.86902e-06
2.74936e-06
1.43384e-06
1.42651e-06
2.74521e-06
1.86233e-06
3.36737e-06
1.86377e-06
1.42626e-06
2.74649e-06
1.21022e-06
1.96761e-06
2.23885e-06
1.06948e-06
2.23599e-06
1.06854e-06
1.2103e-06
1.20208e-06
1.06032e-06
2.23101e-06
1.96514e-06
1.20193e-06
1.0613e-06
2.23395e-06
1.43374e-06
1.87102e-06
3.37108e-06
2.75042e-06
2.74945e-06
1.86965e-06
1.43399e-06
1.42652e-06
2.74517e-06
1.86275e-06
3.36804e-06
1.4262e-06
2.74626e-06
1.86427e-06
1.21018e-06
1.96753e-06
1.06947e-06
2.23882e-06
1.06851e-06
2.23596e-06
1.21029e-06
2.53553e-06
9.52378e-07
1.59648e-06
1.59629e-06
1.59762e-06
2.53438e-06
1.59742e-06
1.20217e-06
1.0604e-06
2.23114e-06
1.9652e-06
1.20203e-06
1.06138e-06
2.23406e-06
1.43377e-06
1.87069e-06
3.37069e-06
2.75066e-06
1.86932e-06
2.74976e-06
1.43402e-06
1.42654e-06
2.74544e-06
1.86241e-06
3.36767e-06
1.42622e-06
1.86393e-06
2.74649e-06
7.14195e-08
6.55705e-07
6.55817e-07
9.66879e-07
2.26284e-07
6.85216e-07
6.85253e-07
9.95087e-07
2.38879e-07
7.14322e-07
7.14487e-07
1.02181e-06
2.52135e-07
7.43046e-07
7.4308e-07
1.04756e-06
2.66057e-07
7.70935e-07
7.71071e-07
1.07204e-06
2.80532e-07
7.98185e-07
7.98227e-07
1.09545e-06
2.95557e-07
8.24433e-07
8.24613e-07
1.11792e-06
3.11058e-07
8.50025e-07
8.50053e-07
1.13922e-06
9.66908e-07
9.87505e-07
6.5584e-07
6.55876e-07
6.78044e-07
6.78043e-07
9.67049e-07
9.87608e-07
6.55633e-07
6.55976e-07
6.77845e-07
6.78081e-07
6.55833e-07
6.77854e-07
6.78079e-07
9.67182e-07
9.87539e-07
6.55684e-07
6.77915e-07
6.77925e-07
9.87766e-07
9.94737e-07
1.01476e-06
6.85361e-07
6.85401e-07
7.07335e-07
7.07258e-07
9.94883e-07
1.01454e-06
6.85145e-07
6.85413e-07
7.07128e-07
7.07358e-07
6.85478e-07
7.07086e-07
7.07382e-07
9.94783e-07
1.01474e-06
6.85318e-07
7.07212e-07
7.07215e-07
1.01481e-06
1.0219e-06
1.04048e-06
7.14635e-07
7.14494e-07
7.36092e-07
7.36071e-07
1.02158e-06
1.04065e-06
7.14419e-07
7.14634e-07
7.35894e-07
7.36135e-07
7.14615e-07
7.35894e-07
7.36123e-07
1.02182e-06
1.04062e-06
7.14446e-07
7.35984e-07
7.35953e-07
1.04073e-06
1.04717e-06
1.06556e-06
7.43116e-07
7.43217e-07
7.6425e-07
7.64222e-07
1.04755e-06
1.06536e-06
7.429e-07
7.43224e-07
7.64048e-07
7.64287e-07
7.43246e-07
7.64071e-07
7.64304e-07
1.04744e-06
1.06548e-06
7.43071e-07
7.6416e-07
7.64118e-07
1.06554e-06
1.07225e-06
1.08882e-06
7.71264e-07
7.71087e-07
7.91567e-07
7.91585e-07
1.07184e-06
1.08911e-06
7.71042e-07
7.712e-07
7.91378e-07
7.91658e-07
7.71198e-07
7.91433e-07
7.91608e-07
1.07203e-06
1.08909e-06
7.71013e-07
7.91525e-07
7.91424e-07
1.08907e-06
1.09506e-06
1.11177e-06
7.98231e-07
7.9833e-07
8.18147e-07
8.18069e-07
1.09549e-06
1.11146e-06
7.98009e-07
7.98353e-07
8.17957e-07
8.1818e-07
7.9835e-07
8.17945e-07
8.18263e-07
1.0954e-06
1.11169e-06
7.98164e-07
8.18071e-07
8.18066e-07
1.11186e-06
1.11796e-06
1.13317e-06
8.24777e-07
8.24558e-07
8.43816e-07
8.43829e-07
1.11757e-06
1.13333e-06
8.24548e-07
8.24721e-07
8.43641e-07
8.43897e-07
8.24757e-07
8.43711e-07
8.43873e-07
1.11787e-06
1.13326e-06
8.24568e-07
8.43788e-07
8.4368e-07
1.13328e-06
1.13907e-06
1.1538e-06
8.50171e-07
8.50143e-07
8.68562e-07
1.13929e-06
8.49937e-07
8.50157e-07
8.68372e-07
8.5016e-07
1.13915e-06
8.4997e-07
4.03955e-06
9.05103e-06
9.05618e-06
4.03738e-06
1.82984e-05
1.83038e-05
4.03972e-06
9.05241e-06
9.05748e-06
4.03758e-06
2.14437e-07
7.14275e-08
2.14465e-07
2.23247e-07
2.23254e-07
2.23295e-07
2.23292e-07
1.98061e-06
1.44093e-06
3.81245e-07
6.63091e-07
1.21833e-06
3.37824e-06
3.8675e-07
1.83001e-05
1.83046e-05
1.98058e-06
3.81299e-07
1.44108e-06
6.63204e-07
3.86809e-07
3.37841e-06
1.97287e-06
5.38769e-06
5.38924e-06
9.73617e-07
5.39055e-06
5.39206e-06
4.04582e-06
9.06261e-06
4.04345e-06
9.06783e-06
1.831e-05
1.83165e-05
4.04583e-06
9.06398e-06
4.04355e-06
9.06919e-06
2.26287e-07
2.26325e-07
2.26334e-07
2.35641e-07
2.35644e-07
2.35693e-07
2.35709e-07
2.00032e-06
3.38848e-06
4.03486e-07
6.92539e-07
1.99256e-06
3.39302e-06
4.09137e-07
1.83103e-05
1.8317e-05
2.0002e-06
4.03543e-07
3.38839e-06
6.92581e-07
1.99268e-06
4.09192e-07
3.3929e-06
5.39841e-06
5.39988e-06
1.00151e-06
5.40113e-06
5.40265e-06
4.05263e-06
9.07573e-06
4.04993e-06
9.08163e-06
1.83227e-05
1.83304e-05
4.05278e-06
9.07721e-06
4.05008e-06
9.08319e-06
2.3885e-07
2.38909e-07
2.38919e-07
2.48742e-07
2.48747e-07
2.48805e-07
2.48803e-07
2.01912e-06
3.40259e-06
4.26277e-07
7.2153e-07
2.01169e-06
3.40691e-06
4.32045e-07
1.83244e-05
1.83317e-05
2.0191e-06
4.26343e-07
3.40304e-06
7.21708e-07
2.01183e-06
4.32122e-07
3.40739e-06
5.40685e-06
5.40839e-06
1.02786e-06
5.41003e-06
5.41161e-06
4.05943e-06
9.08866e-06
4.05674e-06
9.09437e-06
1.8339e-05
1.83467e-05
4.05939e-06
9.09007e-06
4.05684e-06
9.09574e-06
2.52132e-07
2.5218e-07
2.52184e-07
2.62474e-07
2.62509e-07
2.62556e-07
2.6256e-07
2.03732e-06
3.41673e-06
4.49506e-07
7.5014e-07
2.03004e-06
3.42124e-06
4.55376e-07
1.83386e-05
1.83471e-05
2.03719e-06
4.49577e-07
3.41649e-06
7.50156e-07
2.03015e-06
4.55438e-07
3.42091e-06
5.41682e-06
5.41837e-06
1.05335e-06
5.42012e-06
5.42165e-06
4.06692e-06
9.10379e-06
4.06399e-06
9.10987e-06
1.83538e-05
1.83617e-05
4.06706e-06
9.10526e-06
4.06411e-06
9.11141e-06
2.66034e-07
2.66092e-07
2.6609e-07
2.7682e-07
2.76838e-07
2.769e-07
2.76891e-07
2.05461e-06
3.42971e-06
4.73081e-07
7.77775e-07
2.04782e-06
3.43349e-06
4.78995e-07
1.83559e-05
1.83635e-05
2.05463e-06
4.73144e-07
3.43009e-06
7.77938e-07
2.04788e-06
4.7907e-07
3.43399e-06
5.42621e-06
5.42778e-06
1.07736e-06
5.42872e-06
5.43035e-06
4.07412e-06
9.11709e-06
4.07115e-06
9.12361e-06
1.83735e-05
1.83813e-05
4.07406e-06
9.11852e-06
4.07127e-06
9.12496e-06
2.80511e-07
2.80571e-07
2.80566e-07
2.91665e-07
2.91713e-07
2.91776e-07
2.91785e-07
2.0714e-06
3.4431e-06
4.96817e-07
8.04847e-07
2.06468e-06
3.44702e-06
5.02783e-07
1.83735e-05
1.83821e-05
2.07129e-06
4.96898e-07
3.44285e-06
8.04876e-07
2.06475e-06
5.02855e-07
3.44661e-06
5.43565e-06
5.43723e-06
1.10066e-06
5.43923e-06
5.44079e-06
4.08202e-06
9.13362e-06
4.07886e-06
9.14019e-06
1.83903e-05
1.8401e-05
4.08215e-06
9.13511e-06
4.07903e-06
9.14177e-06
2.95505e-07
2.95579e-07
2.95588e-07
3.07047e-07
3.07086e-07
3.07157e-07
3.07148e-07
2.08734e-06
3.45479e-06
5.20683e-07
8.30894e-07
2.08105e-06
3.45868e-06
5.2665e-07
1.83932e-05
1.84031e-05
2.0874e-06
5.20757e-07
3.45535e-06
8.31083e-07
2.08108e-06
5.26738e-07
3.45928e-06
5.44546e-06
5.44706e-06
1.12264e-06
5.44796e-06
5.44963e-06
4.08961e-06
9.14843e-06
4.08648e-06
9.15536e-06
1.84131e-05
1.84224e-05
4.08944e-06
9.14982e-06
4.0866e-06
9.15667e-06
3.11001e-07
3.11069e-07
3.11052e-07
3.22781e-07
2.10272e-06
3.46746e-06
5.44546e-07
8.56263e-07
2.09663e-06
3.47111e-06
5.50504e-07
1.84128e-05
1.8423e-05
2.10262e-06
5.44629e-07
3.46708e-06
8.56273e-07
2.09664e-06
5.50572e-07
3.47069e-06
5.45455e-06
5.45614e-06
1.14383e-06
5.45819e-06
5.45975e-06
1.82964e-05
1.83022e-05
1.8299e-05
1.83048e-05
5.38843e-06
5.39006e-06
9.73663e-07
5.39182e-06
5.39347e-06
1.83072e-05
1.8302e-05
1.831e-05
1.83046e-05
9.81033e-07
5.3957e-06
5.39735e-06
5.39351e-06
5.39514e-06
4.03947e-06
9.05118e-06
9.05593e-06
4.03731e-06
1.98053e-06
3.37364e-06
3.81232e-07
6.63291e-07
3.37854e-06
3.86758e-07
1.0766e-06
1.98047e-06
1.87589e-06
3.81231e-07
6.63275e-07
3.37853e-06
3.86738e-07
1.21824e-06
4.04047e-06
9.06175e-06
9.05702e-06
4.04271e-06
4.04038e-06
9.06217e-06
9.05679e-06
4.04266e-06
1.98276e-06
6.7069e-07
3.38562e-06
3.97889e-07
3.38132e-06
3.92298e-07
1.99045e-06
1.98269e-06
6.70664e-07
3.38602e-06
3.97861e-07
3.38129e-06
3.92286e-07
1.9904e-06
5.38971e-06
5.38865e-06
9.73686e-07
5.39235e-06
5.39115e-06
1.82972e-05
1.83022e-05
1.831e-05
1.83035e-05
9.81066e-07
5.39727e-06
5.3959e-06
5.39405e-06
5.39277e-06
1.8308e-05
1.83019e-05
1.98063e-06
3.37415e-06
3.8124e-07
6.63094e-07
3.37907e-06
3.86742e-07
1.97278e-06
4.03953e-06
9.05217e-06
9.05675e-06
4.03768e-06
1.98059e-06
3.81289e-07
3.3746e-06
6.63369e-07
3.86788e-07
3.37878e-06
1.97269e-06
4.04057e-06
9.06313e-06
9.0583e-06
4.04275e-06
1.98285e-06
6.70482e-07
3.38615e-06
3.97875e-07
3.38185e-06
3.9231e-07
1.99053e-06
4.04067e-06
9.06266e-06
9.05758e-06
4.04258e-06
1.98273e-06
6.70729e-07
3.97911e-07
3.38596e-06
3.92348e-07
3.38143e-06
1.99049e-06
4.03963e-06
9.05178e-06
4.03756e-06
9.05633e-06
1.98057e-06
3.81273e-07
1.87517e-06
6.63234e-07
1.21826e-06
3.86775e-07
3.37793e-06
4.03953e-06
9.0513e-06
4.03744e-06
9.05607e-06
1.98269e-06
6.70478e-07
3.38569e-06
3.97867e-07
3.38097e-06
3.92291e-07
1.99053e-06
4.04038e-06
9.0625e-06
9.05718e-06
4.04276e-06
1.98263e-06
6.70658e-07
3.979e-07
3.38583e-06
3.92319e-07
3.38082e-06
1.99051e-06
4.04027e-06
9.0626e-06
9.05699e-06
4.04269e-06
5.39075e-06
5.38924e-06
9.73785e-07
5.39256e-06
5.3911e-06
1.82984e-05
1.83026e-05
1.83102e-05
1.83042e-05
9.81089e-07
5.39714e-06
5.39572e-06
5.394e-06
5.39255e-06
1.83083e-05
1.83022e-05
1.98056e-06
3.81265e-07
1.87564e-06
6.63088e-07
3.86771e-07
3.37846e-06
1.2183e-06
4.03954e-06
9.05225e-06
9.05662e-06
4.0378e-06
4.03958e-06
9.05213e-06
9.05682e-06
4.03756e-06
1.98286e-06
6.70565e-07
3.97929e-07
3.38562e-06
3.92352e-07
3.38107e-06
1.99045e-06
1.98278e-06
6.70505e-07
3.97897e-07
3.3863e-06
3.92314e-07
3.38131e-06
1.99046e-06
4.04064e-06
9.06261e-06
9.05743e-06
4.04258e-06
4.04039e-06
9.0633e-06
9.05772e-06
4.04268e-06
1.82971e-05
1.83025e-05
1.82992e-05
1.83046e-05
9.81058e-07
5.39649e-06
5.39796e-06
5.39262e-06
5.39409e-06
1.83097e-05
1.83025e-05
1.83117e-05
1.83046e-05
1.8307e-05
1.83132e-05
1.83097e-05
1.8316e-05
5.39715e-06
5.3986e-06
1.00112e-06
5.39995e-06
5.4015e-06
1.83212e-05
1.83133e-05
1.83245e-05
1.83164e-05
1.00836e-06
5.40594e-06
5.4076e-06
5.40195e-06
5.40352e-06
4.04578e-06
9.06311e-06
4.0434e-06
9.06837e-06
2.00013e-06
3.38825e-06
4.03495e-07
6.92681e-07
1.99259e-06
3.39254e-06
4.09143e-07
2.00009e-06
3.38881e-06
4.0348e-07
6.92721e-07
1.99253e-06
3.39327e-06
4.09125e-07
4.04658e-06
9.07467e-06
9.06879e-06
4.04913e-06
4.04651e-06
9.07474e-06
9.0693e-06
4.04908e-06
2.00218e-06
7.00004e-07
3.40008e-06
4.20533e-07
3.39528e-06
4.14822e-07
2.00968e-06
2.00214e-06
7.00005e-07
3.40026e-06
4.20511e-07
3.39592e-06
4.14805e-07
2.00961e-06
5.39902e-06
5.39769e-06
1.00124e-06
5.40206e-06
5.40081e-06
1.83081e-05
1.83145e-05
1.83226e-05
1.83164e-05
1.00837e-06
5.40639e-06
5.40505e-06
5.40374e-06
5.4024e-06
1.83207e-05
1.83145e-05
2.00017e-06
3.38868e-06
4.03501e-07
6.92475e-07
1.99263e-06
3.39302e-06
4.09127e-07
4.04563e-06
9.06355e-06
4.0437e-06
9.06882e-06
2.00013e-06
4.03539e-07
3.3887e-06
6.92736e-07
1.99252e-06
4.09167e-07
3.39314e-06
4.04664e-06
9.07612e-06
9.07018e-06
4.04919e-06
2.0022e-06
6.99785e-07
3.4006e-06
4.20519e-07
3.39576e-06
4.14821e-07
2.00972e-06
4.0468e-06
9.07564e-06
9.06979e-06
4.04896e-06
2.0021e-06
7.00049e-07
4.20556e-07
3.40049e-06
4.14859e-07
3.39585e-06
2.00968e-06
4.04607e-06
9.06345e-06
4.04357e-06
9.06889e-06
2.0003e-06
4.03526e-07
3.38873e-06
6.92823e-07
1.99251e-06
4.09182e-07
3.39319e-06
4.04599e-06
9.06357e-06
4.04348e-06
9.06895e-06
2.00226e-06
6.99831e-07
3.40001e-06
4.20533e-07
3.39566e-06
4.14822e-07
2.00983e-06
4.04683e-06
9.07511e-06
9.0698e-06
4.04929e-06
2.00221e-06
7.00124e-07
4.20588e-07
3.40005e-06
4.14873e-07
3.3958e-06
2.00981e-06
4.04674e-06
9.07505e-06
9.06984e-06
4.0492e-06
5.39897e-06
5.3976e-06
1.0012e-06
5.402e-06
5.40072e-06
1.83085e-05
1.83152e-05
1.83241e-05
1.8317e-05
1.00841e-06
5.40706e-06
5.40573e-06
5.4037e-06
5.40244e-06
1.83223e-05
1.83153e-05
2.00023e-06
4.03519e-07
3.38918e-06
6.92659e-07
1.99263e-06
4.09175e-07
3.39366e-06
4.04584e-06
9.06354e-06
4.0438e-06
9.06897e-06
4.04595e-06
9.06428e-06
4.04355e-06
9.06965e-06
2.00235e-06
6.99901e-07
4.20592e-07
3.40025e-06
4.14875e-07
3.39563e-06
2.00975e-06
2.00231e-06
6.99957e-07
4.20578e-07
3.40054e-06
4.14863e-07
3.39625e-06
2.00975e-06
4.04704e-06
9.0756e-06
9.06993e-06
4.04909e-06
4.04677e-06
9.0758e-06
9.07054e-06
4.0492e-06
1.83098e-05
1.83159e-05
1.83118e-05
1.83179e-05
1.00863e-06
5.40518e-06
5.40672e-06
5.40256e-06
5.40409e-06
1.83217e-05
1.83157e-05
1.83238e-05
1.83178e-05
1.83215e-05
1.83281e-05
1.83248e-05
1.83315e-05
5.40801e-06
5.40968e-06
1.02798e-06
5.41101e-06
5.41273e-06
1.83341e-05
1.83281e-05
1.83374e-05
1.83315e-05
1.03483e-06
5.41426e-06
5.41601e-06
5.41238e-06
5.41413e-06
4.05256e-06
9.07574e-06
4.04985e-06
9.08144e-06
2.0191e-06
3.40295e-06
4.26288e-07
7.21875e-07
2.01166e-06
3.40755e-06
4.3206e-07
2.01901e-06
3.40295e-06
4.26256e-07
7.21706e-07
2.01162e-06
3.40726e-06
4.32027e-07
4.05341e-06
9.08777e-06
9.08258e-06
4.05602e-06
4.05331e-06
9.08846e-06
9.08249e-06
4.05598e-06
2.02102e-06
7.29026e-07
3.41384e-06
4.43682e-07
3.41011e-06
4.3787e-07
2.02824e-06
2.02095e-06
7.28901e-07
3.41436e-06
4.43649e-07
3.40993e-06
4.3783e-07
2.02817e-06
5.40822e-06
5.40661e-06
1.02765e-06
5.41132e-06
5.40981e-06
1.83209e-05
1.83285e-05
1.83387e-05
1.83307e-05
1.03463e-06
5.41681e-06
5.41529e-06
5.41343e-06
5.41169e-06
1.83369e-05
1.83289e-05
2.0192e-06
3.40348e-06
4.26287e-07
7.21675e-07
2.01172e-06
3.40811e-06
4.32052e-07
4.05255e-06
9.07669e-06
4.05026e-06
9.08243e-06
2.01914e-06
4.26323e-07
3.4033e-06
7.21859e-07
2.01162e-06
4.3209e-07
3.4077e-06
4.05362e-06
9.08919e-06
9.08413e-06
4.05609e-06
2.02112e-06
7.28813e-07
3.4144e-06
4.43679e-07
3.41067e-06
4.37874e-07
2.02831e-06
4.05379e-06
9.08883e-06
9.08338e-06
4.05587e-06
2.021e-06
7.29017e-07
4.43716e-07
3.41422e-06
4.37911e-07
3.41021e-06
2.02826e-06
4.05259e-06
9.07606e-06
4.05002e-06
9.08175e-06
2.01909e-06
4.26332e-07
3.40268e-06
7.21811e-07
2.01164e-06
4.32099e-07
3.40698e-06
4.0525e-06
9.076e-06
4.04993e-06
9.08165e-06
2.02093e-06
7.28722e-07
3.41401e-06
4.43659e-07
3.40951e-06
4.37842e-07
2.02826e-06
4.05334e-06
9.08883e-06
9.08279e-06
4.05605e-06
2.02088e-06
7.28982e-07
4.43708e-07
3.41394e-06
4.37892e-07
3.4096e-06
2.02822e-06
4.05324e-06
9.08857e-06
9.08267e-06
4.05596e-06
5.40902e-06
5.40765e-06
1.02787e-06
5.41215e-06
5.41072e-06
1.83225e-05
1.83297e-05
1.83383e-05
1.83318e-05
1.03476e-06
5.41616e-06
5.41474e-06
5.41362e-06
5.4122e-06
1.83364e-05
1.83298e-05
2.0191e-06
4.26323e-07
3.40315e-06
7.21643e-07
2.01177e-06
4.32093e-07
3.4075e-06
4.05248e-06
9.07661e-06
4.05034e-06
9.08232e-06
4.0526e-06
9.07678e-06
4.05004e-06
9.0825e-06
2.02111e-06
7.28865e-07
4.43739e-07
3.41392e-06
4.37922e-07
3.40989e-06
2.02821e-06
2.02104e-06
7.28813e-07
4.43706e-07
3.41444e-06
4.37889e-07
3.4101e-06
2.02822e-06
4.05373e-06
9.0888e-06
9.08327e-06
4.05584e-06
4.05342e-06
9.08929e-06
9.08351e-06
4.05598e-06
1.83218e-05
1.83293e-05
1.8324e-05
1.83315e-05
1.03478e-06
5.41501e-06
5.41659e-06
5.41183e-06
5.4134e-06
1.83373e-05
1.83296e-05
1.83393e-05
1.83318e-05
1.83342e-05
1.83421e-05
1.83375e-05
1.83453e-05
5.41542e-06
5.41716e-06
1.05289e-06
5.41842e-06
5.42013e-06
1.83534e-05
1.83429e-05
1.83567e-05
1.83462e-05
1.05971e-06
5.42561e-06
5.42738e-06
5.42064e-06
5.42234e-06
4.05944e-06
9.08955e-06
4.05669e-06
9.09558e-06
2.03713e-06
3.41609e-06
4.49526e-07
7.50138e-07
2.03006e-06
3.42005e-06
4.55367e-07
2.03712e-06
3.41713e-06
4.49496e-07
7.50301e-07
2.03002e-06
3.42152e-06
4.55357e-07
4.0602e-06
9.10257e-06
9.09557e-06
4.06318e-06
4.06018e-06
9.10232e-06
9.09663e-06
4.06312e-06
2.03892e-06
7.57201e-07
3.42764e-06
4.6714e-07
3.42272e-06
4.61251e-07
2.046e-06
2.03892e-06
7.57308e-07
3.42776e-06
4.6714e-07
3.42409e-06
4.61246e-07
2.04594e-06
5.41892e-06
5.41723e-06
1.05333e-06
5.42196e-06
5.42053e-06
1.83373e-05
1.83451e-05
1.83537e-05
1.83469e-05
1.05998e-06
5.42574e-06
5.42439e-06
5.42375e-06
5.42214e-06
1.83521e-05
1.83454e-05
2.03713e-06
3.41663e-06
4.4953e-07
7.49937e-07
2.03012e-06
3.42056e-06
4.55359e-07
4.05921e-06
9.08985e-06
4.05704e-06
9.09587e-06
2.03711e-06
4.49568e-07
3.41677e-06
7.50293e-07
2.03002e-06
4.55406e-07
3.42114e-06
4.06023e-06
9.10403e-06
9.09695e-06
4.0632e-06
2.03892e-06
7.56978e-07
3.42818e-06
4.67125e-07
3.42322e-06
4.61246e-07
2.046e-06
4.06046e-06
9.10319e-06
9.09698e-06
4.06296e-06
2.03885e-06
7.57317e-07
4.67183e-07
3.42791e-06
4.61301e-07
3.42379e-06
2.04595e-06
4.05974e-06
9.08994e-06
4.05684e-06
9.09614e-06
2.03727e-06
4.49554e-07
3.41659e-06
7.50324e-07
2.02999e-06
4.55421e-07
3.42096e-06
4.05963e-06
9.08964e-06
4.05673e-06
9.09579e-06
2.03908e-06
7.57154e-07
3.42752e-06
4.67172e-07
3.42377e-06
4.6127e-07
2.04614e-06
4.06054e-06
9.10282e-06
9.09718e-06
4.06335e-06
2.03901e-06
7.57353e-07
4.67215e-07
3.4276e-06
4.61312e-07
3.42355e-06
2.04609e-06
4.06042e-06
9.10287e-06
9.09688e-06
4.06327e-06
5.41785e-06
5.41645e-06
1.05323e-06
5.42141e-06
5.42005e-06
1.83367e-05
1.83453e-05
1.83556e-05
1.83477e-05
1.05993e-06
5.42642e-06
5.42505e-06
5.42339e-06
5.42204e-06
1.83537e-05
1.83458e-05
2.03721e-06
4.4955e-07
3.41706e-06
7.50145e-07
2.0301e-06
4.55413e-07
3.42141e-06
4.05937e-06
9.08984e-06
4.0571e-06
9.096e-06
4.05955e-06
9.09034e-06
4.0568e-06
9.09645e-06
2.0391e-06
7.57187e-07
4.67228e-07
3.42769e-06
4.61324e-07
3.42358e-06
2.04605e-06
2.03905e-06
7.57168e-07
4.67199e-07
3.42806e-06
4.613e-07
3.42397e-06
2.04606e-06
4.06073e-06
9.10324e-06
9.09712e-06
4.06307e-06
4.06041e-06
9.10361e-06
9.09755e-06
4.06324e-06
1.83376e-05
1.83456e-05
1.83397e-05
1.83476e-05
1.06003e-06
5.42475e-06
5.42631e-06
5.42192e-06
5.42343e-06
1.83534e-05
1.83459e-05
1.83555e-05
1.8348e-05
1.8354e-05
1.83609e-05
1.83573e-05
1.83642e-05
5.42786e-06
5.42964e-06
1.07759e-06
5.43023e-06
5.43205e-06
1.83669e-05
1.83608e-05
1.83701e-05
1.83641e-05
1.08389e-06
5.43244e-06
5.43423e-06
5.43111e-06
5.43293e-06
4.06682e-06
9.10334e-06
4.06387e-06
9.10929e-06
2.05469e-06
3.4305e-06
4.73077e-07
7.78139e-07
2.04776e-06
3.4346e-06