/*--------------------------------*- C++ -*----------------------------------*\
| =========                 |                                                 |
| \\      /  F ield         | OpenFOAM: The Open Source CFD Toolbox           |
|  \\    /   O peration     | Version:  v2006                                 |
|   \\  /    A nd           | Website:  www.openfoam.com                      |
|    \\/     M anipulation  |                                                 |
\*---------------------------------------------------------------------------*/
FoamFile
{
    version     2.0;
    format      ascii;
    class       surfaceScalarField;
    location    "875";
    object      phi;
}
// * * * * * * * * * * * * * * * * * * * * * * * * * * * * * * * * * * * * * //

dimensions      [0 3 -1 0 0 0 0];
oriented        oriented;


internalField   nonuniform List<scalar> 
41142
(
1.35345e-06
1.31345e-06
-2.85969e-07
-2.96285e-07
0.000271184
1.89124e-07
-3.11102e-07
1.2422e-06
2.10567e-07
8.21998e-07
-3.10807e-07
-9.76281e-07
1.58087e-07
0.00114495
2.00186e-07
-3.0573e-07
1.19919e-06
2.023e-07
8.2499e-07
-3.10624e-07
-9.75846e-07
1.58483e-07
0.00114598
-2.49444e-09
4.72787e-08
-1.17901e-08
0.000192407
-5.85856e-10
7.24786e-08
0.000229252
-2.26485e-08
2.68579e-09
-2.5508e-09
4.72591e-08
-1.17128e-08
0.000192387
7.01458e-08
-4.64685e-10
0.000229249
2.39185e-09
-2.27514e-08
1.54835e-08
9.71457e-05
1.54539e-08
9.7135e-05
1.4605e-08
5.08915e-08
-6.81115e-09
0.000277074
1.23671e-08
5.29277e-08
-6.36543e-09
0.000276999
6.98587e-08
9.70855e-10
0.000229215
-2.25702e-08
1.51482e-07
6.1332e-09
0.00024533
-4.87051e-08
9.01435e-07
-9.21162e-07
-1.09538e-06
7.16251e-07
0.00116374
-2.68372e-10
0.00025169
-2.36961e-10
2.5332e-07
9.01606e-07
-9.20976e-07
-1.09465e-06
7.13573e-07
0.00116371
-3.36067e-09
0.000251666
2.50557e-07
1.49006e-07
6.44348e-09
0.000245294
2.96452e-09
9.01363e-07
-9.21084e-07
-1.09512e-06
7.13531e-07
0.00116362
1.85065e-09
0.00025168
-1.77445e-09
2.48214e-07
7.24351e-08
0.00022921
-2.46531e-08
9.1746e-10
9.04744e-07
-9.21077e-07
-1.09756e-06
7.13696e-07
0.00116362
0.000251656
2.50671e-07
-1.84063e-09
-7.85965e-05
-9.65317e-09
-1.49057e-09
7.86076e-05
-1.97836e-08
0.000261999
-3.29173e-09
5.88286e-08
-7.30056e-09
5.77849e-09
-9.48503e-09
0.000192418
-2.06146e-09
-5.37188e-09
-2.46167e-08
0.000262012
-0.000142379
-1.51644e-09
-7.23093e-09
0.000142387
7.84519e-09
3.42394e-09
-6.52022e-10
-2.00629e-08
0.000229261
3.07527e-09
0.000169998
-3.09169e-10
-2.32128e-08
0.000222939
7.35148e-08
-2.14792e-10
0.000170004
-2.37932e-08
0.000222953
-7.8596e-05
-9.67833e-09
-1.48146e-09
7.86071e-05
-1.97506e-08
0.000261996
-3.15434e-09
5.62905e-08
-7.30921e-09
5.78044e-09
-9.46609e-09
0.000192398
-2.00345e-09
-5.26905e-09
-2.24159e-08
0.000262006
-0.000142377
-7.18316e-09
-1.76096e-09
0.000142384
3.70245e-09
7.83206e-09
-8.81449e-10
-1.75604e-08
0.000229256
-2.33107e-08
0.000222938
6.8637e-08
3.11453e-09
0.000169994
-4.39141e-10
-1.88263e-08
0.000222948
-3.5945e-10
0.00017
-5.41823e-09
9.71569e-05
-5.44264e-09
9.71462e-05
-0.000221611
6.00978e-09
-4.28577e-09
4.71209e-09
-2.12033e-08
0.000221625
-3.72051e-08
0.000251245
1.09968e-07
5.64462e-08
2.94443e-08
0.000182005
-7.11254e-09
7.157e-09
-7.36147e-09
-1.2729e-08
0.000277082
-2.11634e-08
5.96734e-08
3.34555e-09
0.000182015
-3.63423e-08
-8.28891e-09
0.000251278
-0.00022154
7.96865e-09
-4.21302e-09
2.7123e-09
-2.35828e-08
0.000221557
-3.72358e-08
0.000251135
1.09654e-07
5.40558e-08
3.12909e-08
0.000181944
-7.10612e-09
6.66459e-09
-9.74519e-09
-1.02955e-08
0.000277007
-1.91597e-08
6.17899e-08
3.36457e-09
0.000181955
-3.63318e-08
-3.32276e-09
0.00025116
-0.00021279
3.99532e-09
3.94556e-09
0.000212789
8.33451e-09
7.99998e-05
8.3056e-09
7.99821e-05
8.00071e-05
7.99894e-05
-7.85511e-05
-9.75908e-09
-1.31229e-09
7.85621e-05
-1.87425e-08
0.000261882
-3.82267e-10
5.54336e-08
-3.65619e-10
-4.63434e-09
-2.2993e-08
0.000261892
-1.16038e-09
-0.00014231
-7.46822e-09
0.000142317
-2.29098e-08
0.000222852
6.79321e-08
7.905e-09
2.1856e-09
-1.77234e-08
0.000229222
0.000169964
2.3319e-09
0.000169971
-1.95156e-08
0.000222861
-7.8552e-05
-1.00918e-08
-1.06439e-09
7.85631e-05
-1.28698e-09
-3.93612e-09
-2.60194e-08
0.000261887
-9.13607e-10
-0.000142304
-9.6463e-09
0.000142314
9.91605e-09
1.60961e-09
-2.01748e-08
0.000229218
0.000169957
2.18228e-09
-2.47729e-08
0.000222842
7.27388e-08
0.000169966
-2.47199e-08
0.000222855
-0.000243606
-8.83871e-08
-8.35764e-08
0.000243733
-1.48968e-07
0.000262651
-1.44339e-07
0.000263064
2.01074e-07
2.11617e-07
0.000273212
0.000262938
0.000263358
-0.000266132
1.47106e-07
1.68826e-08
0.00026681
2.28732e-07
0.000251241
7.62324e-09
3.84065e-08
1.86141e-10
0.000251358
1.48538e-07
-0.000266187
-1.45035e-08
1.49775e-08
0.000266859
2.58189e-08
0.000261738
0.000251323
2.32467e-07
4.27329e-09
-6.88382e-09
-6.64567e-08
0.000245381
-3.22177e-09
0.000251443
1.86277e-08
0.000261807
1.52987e-07
-0.000268235
7.77723e-09
0.00026899
8.88671e-10
-1.33524e-07
-7.24418e-10
0.000251803
0.000250705
2.64556e-07
-5.17266e-09
0.000268743
-4.71175e-09
0.000250832
1.3837e-09
0.000269332
-0.000268177
1.51235e-07
1.11722e-08
0.000268933
2.61205e-07
0.000250628
-1.45279e-09
-1.31161e-07
0.00025178
-1.3811e-08
0.000268737
0.000250759
0.000269332
1.46501e-07
-0.000266196
-9.68407e-09
4.66156e-09
0.00026688
3.10699e-08
0.000261721
0.000251308
2.29718e-07
4.64344e-09
-6.76315e-09
-6.42393e-08
0.000245346
-6.26192e-10
0.000251426
3.21014e-08
0.000261802
1.50547e-07
-0.000268227
5.13684e-09
0.000268977
1.12657e-09
-1.28463e-07
-8.01605e-10
0.000251791
0.000250693
2.61944e-07
-1.0362e-08
0.00026874
7.75518e-09
0.000250825
-4.70811e-09
0.000269334
1.4793e-07
1.9725e-08
0.000266789
8.53985e-10
0.000251334
-0.000268166
9.746e-09
1.5155e-07
0.000268929
-1.31199e-07
-8.44426e-10
0.000251767
-8.08002e-09
0.000268726
2.61184e-07
0.000250619
0.000269314
0.000250745
7.84872e-05
-1.34436e-09
-7.84995e-05
1.3675e-08
-8.95992e-10
-1.33656e-08
-2.1728e-09
0.00014209
-0.000142103
1.36915e-08
-0.000169655
7.43292e-10
-2.11269e-11
-1.53131e-08
-5.2179e-11
-0.000169669
1.22959e-08
-1.40687e-08
0.000169704
1.14086e-10
6.35034e-10
-0.000169688
-1.73642e-08
7.853e-05
-1.18225e-09
1.57938e-08
-7.85446e-05
-1.11629e-09
-1.53707e-08
-2.08064e-09
0.000142158
-0.000142175
1.7598e-08
-0.000169688
7.80086e-10
-1.73469e-08
1.42814e-08
-1.80493e-08
-8.1752e-10
9.31828e-10
-0.000142089
-1.40729e-08
-0.000169655
-1.53111e-08
-7.84852e-05
-1.33768e-08
1.25794e-06
2.25421e-07
-0.00114005
1.97736e-07
2.34674e-07
-1.28608e-06
-2.59753e-07
8.58312e-07
-9.0778e-07
-2.48703e-07
7.26083e-08
-1.22053e-06
2.28814e-07
2.26464e-07
-0.000269515
2.253e-07
-0.00114056
8.5307e-07
7.24539e-08
2.26457e-07
-1.24863e-06
-2.51467e-07
1.97847e-07
-9.02333e-07
-2.48622e-07
1.24896e-06
2.2672e-07
-0.00113966
7.63347e-08
1.97552e-07
2.31385e-07
-1.27831e-06
-2.57309e-07
8.5547e-07
-9.05046e-07
-2.48813e-07
1.20928e-06
2.26685e-07
7.45372e-08
1.97651e-07
2.26372e-07
-1.2382e-06
-2.51662e-07
8.52778e-07
-9.02177e-07
-2.48805e-07
-0.00114066
2.31178e-07
2.235e-07
-0.000269495
1.96182e-07
1.95771e-07
-0.00119088
1.91321e-07
1.97121e-07
-0.00119085
3.4716e-09
-0.000192026
-1.83122e-09
-2.43791e-08
3.30867e-08
-5.12472e-09
-5.59549e-09
0.000192026
-0.000192048
-1.28231e-06
2.32439e-07
8.57652e-07
-2.50093e-07
-9.09371e-07
1.96977e-07
1.25719e-06
-2.5843e-07
2.33605e-07
-0.0011402
7.186e-08
1.99363e-08
-6.58044e-10
8.38074e-08
-0.000260306
-1.05513e-08
3.74536e-09
1.08533e-07
0.000244346
-0.000244414
-1.35309e-08
-9.70817e-05
9.41407e-09
9.70793e-05
-9.70938e-05
1.25022e-06
0.000269551
-2.37335e-07
-2.3984e-07
-0.000271607
-2.71216e-08
-0.00027632
5.00117e-09
-1.04236e-08
1.1368e-08
-2.49958e-08
-0.000276445
5.55223e-09
-1.04605e-08
-8.00955e-09
3.01024e-08
0.000276324
-0.000276348
-7.21806e-09
1.06759e-08
-8.57131e-09
2.78993e-08
0.00027645
-0.000276473
-3.46966e-09
-9.70947e-05
5.17343e-09
9.70923e-05
-9.71047e-05
3.72397e-08
0.000250286
-0.000250163
-1.58487e-07
-3.80286e-10
-9.67134e-10
0.000228353
-0.000228333
1.5124e-08
1.97373e-09
7.07938e-11
-4.37965e-08
1.95912e-09
1.00244e-09
1.89738e-07
0.000250164
-0.000250313
7.69029e-08
2.21319e-07
1.21986e-06
-2.52808e-07
2.25467e-07
8.52313e-07
-2.50094e-07
-9.04018e-07
1.97014e-07
-0.00114069
-3.98166e-09
6.05938e-10
1.67764e-07
-0.000264567
-0.001162
9.33679e-07
-4.45264e-09
3.26672e-07
7.54282e-07
-1.00668e-06
-8.32205e-07
-3.08666e-08
3.78635e-09
1.10923e-07
0.00024444
-0.000244514
6.54619e-09
3.16078e-07
9.38352e-07
-8.34139e-07
-1.00855e-06
7.58941e-07
-0.0011621
2.99326e-09
1.76746e-07
-0.000266535
6.69147e-11
1.84204e-09
-1.25496e-08
0.000228358
-0.000228391
-0.000192073
-1.80055e-09
-2.2263e-08
-5.43683e-09
0.000192073
-0.000192093
-2.39255e-10
-0.000228346
2.28362e-09
1.52016e-08
-3.77493e-08
-4.37118e-08
1.92243e-07
-2.0165e-10
0.000250139
7.96013e-08
2.04808e-07
8.54981e-07
-2.44681e-07
-9.0106e-07
1.969e-07
-0.00113979
-1.28001e-06
1.24826e-06
-2.58881e-07
2.30398e-07
-0.00116197
9.39229e-07
3.26976e-07
7.5708e-07
-1.00941e-06
-8.32237e-07
2.20804e-08
7.70942e-11
8.14505e-08
-0.000260339
2.98492e-07
9.38485e-07
-8.34113e-07
-1.00841e-06
7.56227e-07
-0.00116204
-3.06781e-08
4.05596e-09
1.08306e-07
0.000244377
-0.000244446
-1.29277e-08
-7.19311e-09
4.5788e-09
1.79331e-07
-0.000266476
-1.25177e-08
1.43489e-09
0.00022832
3.39172e-09
-0.000192024
-1.8012e-09
-2.22792e-08
-5.55733e-09
0.000192023
-0.000192044
-4.91932e-09
-0.000228308
1.5205e-08
2.20092e-09
-4.02228e-08
9.36175e-07
3.20972e-07
7.54255e-07
-1.00642e-06
-8.29327e-07
-2.22448e-09
-0.00116172
1.99578e-08
-3.49946e-10
8.61953e-08
-0.000260323
1.11938e-08
-3.63295e-10
1.7673e-07
-0.000266467
3.50704e-09
-0.000192017
-1.97741e-09
-2.22932e-08
-0.000228304
2.46747e-09
-3.78796e-08
-3.08532e-10
1.14061e-08
-2.49157e-08
-0.000276407
4.58301e-09
-1.26363e-08
1.13015e-08
-2.7036e-08
-0.000276325
4.88583e-09
-1.05451e-08
-9.70845e-05
-9.70791e-05
1.36262e-08
7.84864e-05
-7.84987e-05
-1.24797e-09
-5.65258e-09
-0.000192049
-4.91299e-09
3.2916e-08
-0.00026128
1.34514e-08
-3.57366e-08
-4.08164e-09
-0.000261308
3.78097e-08
-2.23762e-09
-7.92646e-10
-7.84845e-05
-1.33673e-08
-8.679e-10
-1.37235e-08
0.000261283
3.81226e-08
-0.000261311
-2.23595e-09
-1.82563e-09
3.34606e-09
-2.42762e-08
-7.84969e-05
-1.30429e-09
-3.55402e-08
-4.1158e-09
-9.70962e-05
9.53779e-09
-1.35602e-08
-0.000212354
5.64497e-09
5.66909e-09
-1.21203e-08
-1.0018e-08
0.000212364
5.2216e-09
7.98893e-05
5.13813e-09
-7.98996e-05
5.2177e-09
7.9902e-05
5.18891e-09
-7.99124e-05
1.24732e-08
1.03383e-08
-0.000212366
-4.86695e-09
7.98998e-05
-4.89478e-09
7.99126e-05
2.34253e-08
-1.6582e-08
0.000220854
-0.000220883
-1.16171e-08
3.41703e-08
-0.000250023
1.58701e-08
-6.50832e-08
3.00508e-08
-7.62361e-09
-0.000276343
1.01611e-08
-0.000181643
-1.82691e-08
4.66592e-09
-0.00025008
7.16691e-08
3.86734e-08
-0.000181662
-5.1525e-09
1.3101e-08
-3.90402e-08
-1.46846e-08
2.34457e-08
0.000220926
-0.000220962
-9.51553e-09
3.63851e-08
-0.000250196
1.59046e-08
-6.51476e-08
-1.7471e-08
-8.20034e-09
2.78142e-08
-0.000276468
-7.36094e-09
1.03421e-08
-0.000181698
-1.64267e-08
4.72589e-09
-0.000181716
-5.19788e-09
-0.000250252
7.17181e-08
3.61529e-08
1.09956e-08
-4.12816e-08
-1.46857e-08
-0.00022086
1.8189e-08
-3.84044e-08
1.6433e-08
0.000181644
-0.000181663
0.000250038
-2.43989e-08
3.95758e-08
7.22402e-08
-0.000250096
-2.71038e-08
4.91578e-09
-1.01009e-08
-1.8866e-08
-6.46094e-08
3.46285e-08
-0.00022089
-0.000220933
1.63342e-08
-1.47504e-08
-4.06068e-08
1.45575e-08
0.000181699
-0.000181717
-2.43508e-08
0.000250211
7.23794e-08
3.69523e-08
-0.000250268
5.42727e-09
-2.49412e-08
1.14216e-08
-1.01438e-08
3.69025e-08
-0.000220969
-6.45851e-08
-1.64692e-08
-5.04095e-09
-5.04415e-09
0.000212353
-7.98896e-05
-6.13223e-09
-7.99023e-05
-6.13154e-09
-9.7107e-05
4.94117e-09
-3.30915e-09
-1.96506e-09
1.3913e-08
0.000142091
-0.000142105
1.14102e-09
-1.26606e-08
1.39329e-09
4.41716e-08
2.38351e-10
-0.000228366
-0.000169657
5.85977e-10
0.000169672
8.79096e-11
-0.000222127
1.39854e-08
0.000222149
-3.73194e-08
3.75336e-09
1.2998e-10
-0.000169672
4.44391e-08
-0.000222158
1.845e-09
0.000142105
7.44983e-10
-0.000142158
-1.5879e-08
-6.87195e-10
9.42708e-10
0.000142174
-1.59327e-08
0.000222211
2.08821e-09
4.42518e-08
-0.00022224
2.14012e-09
0.000169688
-4.70523e-11
-0.000169703
2.54922e-09
1.51404e-08
0.000228378
-1.53947e-10
-3.74662e-08
1.02018e-09
-0.000142173
3.96005e-09
0.000222231
-3.72529e-08
0.000169703
-2.87046e-11
1.56992e-08
7.85299e-05
-7.85446e-05
-1.01618e-09
-5.5177e-09
-0.000192094
3.07024e-08
-0.000261412
1.55624e-08
-3.97524e-09
-3.57169e-08
-0.000261437
-2.08311e-09
3.76845e-08
-9.31327e-10
-7.85281e-05
-1.55232e-08
-1.57582e-08
0.000261415
3.80074e-08
-0.000261441
-1.72872e-09
-2.2177e-08
-7.85428e-05
-3.55284e-08
1.58027e-08
-2.08358e-09
0.000142159
1.57395e-09
-1.24274e-08
-1.11906e-10
4.3338e-08
-0.000222203
1.59574e-08
-3.75393e-08
-0.000169688
6.26722e-10
3.83081e-11
4.38494e-08
8.53529e-12
-0.000142092
-6.53392e-10
-1.39935e-08
7.94866e-10
0.000142106
2.01621e-09
0.000169657
-1.38182e-08
0.000222118
1.91598e-09
4.40622e-08
1.51739e-08
2.07256e-09
0.000228343
-3.99881e-08
1.18607e-09
0.000169671
3.84064e-09
0.000222142
-3.9971e-08
1.36257e-08
7.84889e-05
-7.85013e-05
-1.24213e-09
-5.55547e-09
-0.000192044
-4.9614e-09
3.06281e-08
-0.00026129
1.3375e-08
-3.94961e-09
-3.57681e-08
-0.000261317
-2.02012e-09
3.76745e-08
-8.48359e-10
-7.8487e-05
-1.34366e-08
-1.35966e-08
0.000261293
3.7793e-08
-0.000261321
-1.78442e-09
-2.23236e-08
3.4007e-09
-7.84995e-05
-3.57573e-08
-2.085e-09
1.37619e-08
0.000142093
-1.24198e-08
1.52741e-09
4.5748e-08
-0.000169657
7.28969e-10
-0.000222109
1.39921e-08
-4.01135e-08
4.61851e-08
-5.78021e-09
-4.82562e-09
3.06664e-08
-0.000192037
-0.000261284
-4.20594e-09
-3.57092e-08
-2.2943e-09
3.77374e-08
-0.000261311
1.86952e-09
4.31529e-08
-1.66305e-10
-0.000228336
-0.000222104
-3.77198e-08
4.37033e-08
-0.000222135
2.34529e-08
-1.6383e-08
0.000220918
-1.186e-08
3.38529e-08
-0.000220947
-0.000250149
1.55026e-08
-6.25922e-08
2.79298e-08
-8.19169e-09
-7.30809e-09
1.29132e-08
-0.000276433
-0.000181697
-1.83562e-08
4.38059e-09
6.93791e-08
4.14244e-08
-0.000250208
-5.5956e-09
-0.000181716
1.27086e-08
-3.90725e-08
2.31531e-08
-1.65633e-08
0.000220851
-1.16171e-08
3.41334e-08
-0.00022088
-0.000250036
1.58336e-08
-6.23823e-08
3.02214e-08
-7.88919e-09
-7.39168e-09
1.01758e-08
-0.00027635
-0.00018164
-1.82358e-08
4.55654e-09
6.93486e-08
3.85853e-08
-0.000250091
-5.46743e-09
-0.000181659
1.2971e-08
-3.89352e-08
-4.84217e-09
-5.06464e-09
0.000212348
-0.000212362
-7.99038e-05
-6.0308e-09
-7.98877e-05
-5.9415e-09
-7.99142e-05
-7.98982e-05
-9.70968e-05
-9.70914e-05
1.02939e-07
-0.000261299
1.03113e-07
-0.000261649
-0.000242548
1.05982e-07
1.05771e-07
-0.000242689
-2.36345e-07
-2.38734e-07
-0.000271574
-0.000261968
-0.000261612
1.03137e-07
-0.00026166
-1.0274e-07
-0.000242531
-0.000261241
1.05768e-07
1.05633e-07
-0.000242674
-2.33785e-07
-2.4172e-07
-0.000271536
-0.000261557
-0.000261978
2.53049e-07
-0.00121551
2.38478e-09
-2.53037e-07
-0.00123712
1.36975e-08
-1.52201e-08
-0.00121497
-3.15161e-07
-1.51263e-08
1.88712e-07
2.0067e-07
-0.00119081
2.5622e-07
-3.3363e-07
-0.0012147
-7.75406e-09
2.20577e-07
8.21531e-09
-0.00121522
1.35557e-08
-0.00123665
-7.32317e-09
2.53009e-07
-0.0012148
-2.41251e-07
-0.00123634
-4.28274e-09
-0.00121489
-1.43066e-09
2.00349e-07
3.57183e-08
-2.32493e-07
-0.00119065
8.28477e-08
-0.00121438
2.49613e-07
-3.3304e-07
-0.00121477
-6.06618e-10
-0.00123599
-3.00412e-09
1.62717e-07
-0.000264476
3.67097e-09
-8.04739e-09
-0.000244334
-0.000250036
-3.47538e-09
-1.81301e-07
-1.49929e-08
-0.000265198
1.03599e-08
3.49941e-09
1.07868e-07
-0.000244403
-0.000250177
6.22738e-10
-0.000260423
-0.000264507
1.62468e-07
-2.29224e-10
4.32874e-09
1.82145e-07
0.000250054
-0.000250196
8.77633e-10
1.56417e-08
0.000260329
-0.000260447
-7.83477e-09
-8.36184e-08
-0.000265229
1.10078e-08
-3.28395e-09
-1.02253e-07
-0.000242564
-1.02139e-07
2.25884e-07
2.28154e-07
0.000261675
-1.06954e-07
-0.000261992
-1.06671e-07
0.000261325
-0.000261639
-0.000242706
4.05961e-09
-2.10331e-07
0.000266544
1.01296e-06
-0.000267341
-9.27574e-09
1.93419e-07
-3.55868e-10
-6.30327e-11
-0.000250312
-0.000266989
-7.15655e-09
0.000267593
-7.55357e-07
4.26536e-10
-0.000249286
-1.78707e-07
0.000249424
2.54789e-09
8.3317e-07
-3.28456e-09
-0.000267621
-0.000249451
-1.53614e-09
0.000267304
-9.37761e-07
-8.1157e-09
-0.000266566
1.76263e-07
1.06635e-10
3.48109e-09
0.000267324
2.07025e-07
0.000249337
-9.20028e-10
-0.000249498
-3.68712e-09
0.000266975
7.57971e-09
-0.000267623
2.5285e-09
-1.58926e-07
0.000250284
-4.81698e-10
-1.87318e-08
-0.000267352
3.21029e-09
0.000249475
0.000267579
-3.75353e-09
8.63142e-08
-0.000260413
7.92865e-09
-0.000250138
-3.33727e-09
-0.000244429
-1.502e-08
-1.86211e-07
-0.000265286
1.82439e-08
1.10211e-07
3.64283e-09
-0.000244502
-0.00026053
-0.000250284
8.0021e-10
-0.000264598
-1.83823e-10
1.67477e-07
1.87119e-07
0.000250157
-0.000250303
1.5534e-08
0.000260436
-0.000260554
-8.60846e-08
-7.76445e-09
-0.000265318
1.59373e-07
-0.000266941
-6.88674e-09
8.45224e-10
-0.000250136
-1.92375e-09
-0.000249313
-2.05905e-07
6.62864e-09
-6.28026e-10
1.91144e-07
8.8867e-12
3.40516e-09
-0.00026651
4.05834e-09
1.79036e-07
-7.76068e-09
0.000267273
-3.85094e-09
0.000266962
2.0926e-07
0.00024926
-1.48803e-09
-1.6151e-07
8.64395e-10
0.000250259
-9.03229e-09
0.000267557
2.64635e-09
0.000249398
1.65244e-07
-0.000264483
-7.69379e-09
-0.000244368
-0.000250049
-2.89585e-09
-1.83626e-07
-1.55748e-08
-0.000265197
8.57475e-09
3.89914e-09
1.05454e-07
-0.000244434
-0.000250192
1.28682e-09
-0.000260457
-0.000264514
1.65157e-07
-7.35763e-10
1.84284e-07
0.000250068
-0.000250211
1.62876e-08
0.000260366
-4.22287e-08
-0.000260476
-7.52136e-09
-8.3777e-08
1.25266e-08
-0.000265224
2.12802e-08
1.61923e-07
-0.000266926
7.97057e-10
-0.000250112
-0.000249237
4.20604e-09
-2.0829e-07
1.93675e-07
-3.37411e-10
1.65116e-07
-0.000264485
-8.07679e-09
-0.000244331
-0.000250035
-5.70931e-09
-1.83602e-07
-1.5289e-08
2.64651e-08
-0.000265215
3.5184e-09
1.10245e-07
-0.000244404
3.33893e-09
-0.000250181
-0.000260438
1.59451e-07
-0.000266921
-4.31747e-09
2.22991e-09
-0.000250102
-9.81622e-10
-0.000249226
7.31221e-09
-2.05637e-07
-0.000267249
1.90984e-07
-6.24676e-10
1.09476e-10
-0.00025025
3.13578e-09
-0.000267555
-0.000249386
-1.24308e-06
-1.20027e-06
-0.000271007
2.00012e-07
2.07794e-07
0.000273043
4.37801e-07
-0.0011447
1.90184e-07
-1.34909e-06
2.10099e-07
-3.09439e-07
-9.68504e-07
1.62669e-07
-3.03482e-07
8.25289e-07
0.00114456
4.3208e-07
-0.00114572
1.89072e-07
-1.30623e-06
2.02063e-07
-3.01128e-07
-9.71037e-07
1.62864e-07
-3.03406e-07
8.25332e-07
0.00114559
1.23969e-06
4.44194e-07
-0.00114473
1.88616e-07
-1.34316e-06
2.12e-07
-3.03604e-07
-9.71479e-07
1.63998e-07
-3.07565e-07
8.27305e-07
0.00114458
-1.19916e-06
-0.000270991
2.04818e-07
2.09776e-07
0.000273016
4.32676e-07
-0.00114521
-1.30832e-06
2.09238e-07
-3.03623e-07
-9.68682e-07
1.61387e-07
-3.07558e-07
8.21913e-07
0.00114508
2.00389e-07
-4.75139e-09
-6.32463e-09
-9.71299e-05
9.71409e-05
-1.27038e-08
-0.000276958
-5.48592e-09
1.1253e-08
0.00027696
-1.24077e-06
-0.000271107
1.92864e-07
2.03024e-07
-1.19514e-06
0.000273147
-4.65321e-10
-2.07152e-08
0.000229221
-0.00022921
8.07968e-09
2.885e-09
4.83876e-09
-1.048e-08
0.000192398
-6.15347e-09
-0.000192386
-1.8313e-08
0.000229215
-0.000229207
3.05398e-09
8.15407e-09
-7.46964e-10
4.86075e-09
-1.04636e-08
0.000192378
-6.2365e-09
-0.000192366
-0.00118578
2.91996e-07
2.92526e-07
0.00118607
-0.0011854
2.93521e-07
3.06263e-07
0.00118568
-6.50187e-09
9.71506e-05
-9.71392e-05
-6.52944e-09
9.71399e-05
-9.71285e-05
0.000273155
-1.2439e-06
-1.20093e-06
-0.000271126
2.02835e-07
2.13358e-07
0.000277048
-9.27583e-09
6.19585e-09
-0.000277042
-9.32932e-09
0.000276974
-9.42949e-09
5.84881e-09
-0.000276965
-1.16938e-08
-5.72586e-09
-5.69225e-09
-9.7127e-05
9.71384e-05
1.34508e-08
4.08978e-09
9.7133e-05
-5.81337e-09
-5.65182e-09
-9.71163e-05
9.71278e-05
1.34402e-08
4.107e-09
9.71223e-05
1.35011e-06
1.30733e-06
0.000271064
-2.80666e-07
-2.85885e-07
-9.62874e-09
-1.03705e-08
-0.000276975
9.40601e-09
0.00027698
-9.75538e-09
-1.26491e-08
-0.000276898
8.98552e-09
0.000276906
1.37784e-08
-8.27269e-09
4.69434e-08
0.000277009
1.36108e-08
-7.57096e-09
4.9129e-08
0.000276932
-1.00833e-08
-0.000192337
-7.35491e-09
0.000192348
-1.83075e-08
0.000229181
2.53044e-09
-0.000229174
8.0809e-09
-1.93997e-09
0.000251742
-0.000251626
-4.15533e-10
-1.34424e-07
1.88119e-07
0.00114483
4.43246e-07
-1.35241e-06
2.12317e-07
-3.10152e-07
-9.73857e-07
1.59587e-07
-3.08627e-07
8.22912e-07
0.000245337
-6.54953e-09
-0.000245285
-6.53073e-08
-3.08673e-08
0.0011638
5.57004e-07
-1.09532e-06
7.14891e-07
-9.20903e-07
8.99966e-07
-0.000245212
-6.28196e-08
-6.4136e-09
0.000245258
2.4822e-07
-1.35297e-06
2.14179e-07
-3.25604e-07
-9.89464e-07
1.5659e-07
-3.51493e-07
8.2565e-07
0.00114488
4.53128e-07
0.000251715
-9.80898e-10
-0.0002516
-1.34576e-07
-1.09748e-06
7.14979e-07
-9.17939e-07
9.02817e-07
0.00116375
5.69355e-07
-4.16558e-11
7.06728e-08
-2.19755e-08
2.13919e-09
0.00022917
-1.17262e-08
-0.000192348
-6.17314e-09
0.00019236
4.52108e-08
-9.82257e-09
0.000192366
2.04024e-10
-1.96427e-08
-0.00022913
8.55502e-09
1.91946e-09
0.000229139
6.81826e-08
1.85481e-09
-2.20279e-08
0.000229133
-1.95426e-08
2.56321e-09
-0.000229093
8.50236e-09
0.000229102
1.07135e-10
8.90527e-11
2.49229e-07
0.000251564
1.8566e-07
4.37244e-07
1.24382e-06
-3.09009e-07
2.11326e-07
8.24063e-07
-3.06084e-07
1.6128e-07
-9.71308e-07
-6.76289e-08
-0.000245204
-8.34197e-09
0.000245259
-0.00116383
5.5054e-07
-1.08643e-06
7.17924e-07
-9.14746e-07
9.02968e-07
0.00116386
-8.67316e-09
6.60799e-09
1.45315e-07
0.000245244
5.45142e-07
9.01422e-07
-9.15099e-07
-1.08961e-06
7.16357e-07
-7.41833e-09
-1.05096e-09
-0.000251502
-1.55427e-09
-1.31355e-07
0.000251617
-2.4444e-09
2.49134e-07
0.000251537
-5.44858e-10
-0.000251476
-1.31272e-07
0.000251587
0.00025173
-0.000251617
1.32247e-10
-1.29431e-07
-2.67004e-09
1.93316e-07
0.00114585
4.42638e-07
-1.30971e-06
2.04113e-07
-3.02003e-07
-9.76099e-07
1.59943e-07
-3.08411e-07
8.2592e-07
0.000245304
-6.68152e-09
-0.000245252
-6.54182e-08
0.00116366
5.6191e-07
-1.09498e-06
7.15022e-07
-9.17914e-07
9.02674e-07
-8.98553e-09
6.81359e-08
-2.31677e-11
2.08027e-09
-2.18904e-08
0.000229167
-1.18101e-08
-0.000192328
-6.05711e-09
0.00019234
4.52412e-08
-9.88833e-09
0.000192347
-2.21349e-08
3.43076e-10
-0.000229125
2.11789e-09
8.55676e-09
0.000229136
9.53971e-10
-6.13979e-10
2.46563e-07
0.000251552
1.90388e-07
4.36916e-07
1.20093e-06
-3.00739e-07
2.03227e-07
8.26919e-07
-3.05916e-07
1.6155e-07
-9.73663e-07
-6.76946e-08
-0.000245171
-6.02162e-09
0.000245223
-0.00116369
-5.30131e-09
5.38504e-07
-1.08912e-06
7.17829e-07
-9.11958e-07
9.02668e-07
0.00116372
6.4126e-09
1.45252e-07
0.000245211
-7.58421e-10
5.50236e-07
9.04029e-07
-9.14945e-07
-1.09208e-06
7.16398e-07
-1.67711e-09
-0.000251493
-7.43411e-10
-1.33871e-07
0.000251607
7.04216e-08
-2.39574e-08
1.90009e-09
0.000229129
-0.000229177
-1.27279e-08
4.82163e-09
-0.000192276
-6.41907e-09
0.00019229
4.8405e-08
-1.99333e-09
-1.19675e-08
0.000192296
-0.000192331
-1.94633e-08
-0.000229089
1.04966e-08
3.20482e-09
0.000229095
2.46436e-07
-2.3903e-09
0.00025153
-0.000251703
1.9786e-07
-1.34817e-06
4.52112e-07
8.23944e-07
-3.06586e-07
-9.73486e-07
1.6005e-07
1.23656e-06
-3.09246e-07
2.08433e-07
-0.00114487
-0.00116367
5.44559e-07
-1.08654e-06
7.17749e-07
-9.12051e-07
9.02407e-07
0.00116368
1.18398e-08
-6.7843e-08
-0.000245102
-6.97123e-09
0.000245152
5.56581e-07
9.01363e-07
-9.17674e-07
-1.09459e-06
7.16452e-07
-0.00116363
-1.40646e-08
6.37328e-09
1.48757e-07
0.000245143
-0.000245236
-0.000251468
-1.3117e-07
-1.21707e-10
0.000251579
-8.81428e-09
-9.71057e-05
9.71193e-05
1.79661e-08
9.71121e-05
-9.71321e-05
1.31324e-06
0.000271052
-2.8919e-07
-2.88898e-07
-0.000273135
-9.4318e-09
-0.000276858
5.21157e-09
0.000276865
6.56134e-09
-1.17911e-08
-1.17533e-08
-0.000276975
4.67252e-09
0.000276988
-6.52998e-09
5.02819e-08
0.00027689
-0.00027693
-1.56122e-08
1.406e-08
-5.97129e-09
5.25745e-08
0.000277007
-0.000277052
-4.68662e-09
-9.71206e-05
9.71319e-05
1.99041e-09
9.71271e-05
-9.71447e-05
-6.79581e-08
2.49066e-07
-2.10118e-09
0.000251553
1.94705e-09
2.08683e-07
4.40903e-07
1.19886e-06
-3.06383e-07
2.05771e-07
8.23968e-07
-3.09244e-07
-9.70714e-07
1.62844e-07
-0.00114535
1.05799e-08
-6.79255e-08
-0.0002452
-6.78407e-09
0.000245252
5.50519e-07
8.95661e-07
-9.12039e-07
-1.08355e-06
7.10765e-07
0.00116348
2.40188e-08
-4.60803e-08
6.37767e-09
1.46303e-07
0.000245244
-0.000245337
1.74576e-09
-2.18286e-08
0.000229166
6.74657e-10
-0.00019233
-6.21717e-09
0.000192342
-1.18095e-08
0.00019235
-0.000192382
1.77227e-08
2.43985e-09
-4.95135e-08
0.000221525
7.145e-08
4.39427e-11
8.54646e-08
-5.41227e-09
8.63207e-08
1.47584e-08
1.08161e-08
-0.000251077
-3.5319e-08
-9.1823e-09
0.000251105
-0.000181942
-5.69203e-09
6.29201e-09
0.000181953
-6.10018e-09
1.7141e-08
-2.64188e-08
0.000221539
2.66401e-07
6.80517e-08
-5.60949e-09
-7.81922e-09
0.000212743
-7.56111e-08
-7.99808e-05
-2.50085e-09
7.99896e-05
-7.99842e-05
-4.11158e-09
-4.77089e-09
7.99931e-05
-7.33036e-10
-6.86675e-09
0.00021276
-2.18839e-08
1.70755e-08
1.18722e-08
0.000221564
4.61375e-09
0.000181972
-2.81606e-09
2.28998e-08
0.000142365
1.75299e-09
-2.23056e-08
2.38907e-09
-6.88552e-10
7.15911e-08
-0.000169979
1.17994e-09
7.18462e-11
0.000169986
-0.000222903
7.5032e-09
4.86266e-09
0.000222918
-2.44445e-08
-6.98466e-11
3.067e-09
7.27783e-08
1.16716e-09
0.000142372
1.92771e-08
7.85901e-05
-0.000261965
1.00867e-08
0.000261979
-2.5266e-08
-1.0756e-08
-3.58145e-09
4.64127e-08
5.81884e-08
7.86014e-05
2.29277e-08
-2.75568e-09
0.000142363
1.7796e-09
2.11258e-09
-2.22769e-08
6.90821e-08
-7.26589e-10
-0.000222902
7.50583e-09
4.90462e-09
0.000222912
-1.94642e-08
-0.000169975
1.25452e-09
0.000169982
1.27423e-11
3.13926e-09
6.78755e-08
-1.64061e-10
1.18572e-09
0.00014237
1.92474e-08
7.85897e-05
-0.000261962
1.0135e-08
0.000261974
-2.29793e-08
-1.0841e-08
-3.58606e-09
4.64635e-08
5.57143e-08
7.8601e-05
1.41237e-08
1.41269e-08
-7.5367e-09
-7.59921e-09
0.000212764
2.15116e-08
1.93959e-08
-7.99921e-05
-3.98636e-09
-3.82996e-09
7.99999e-05
-7.99744e-05
-3.8586e-09
-3.92337e-09
7.99822e-05
7.50066e-09
7.39807e-09
-3.71248e-09
-1.84356e-09
0.000212761
-2.71302e-08
0.000221579
3.73632e-08
5.73542e-08
-0.000181987
-7.74051e-09
0.000181997
-8.63124e-09
4.89887e-08
1.30154e-08
2.94213e-09
-0.000251201
0.000251232
-3.8214e-08
-5.67262e-09
0.000221593
-2.25433e-08
1.07866e-07
5.53829e-08
-2.9051e-08
0.000221509
3.73207e-08
5.95127e-08
-0.000181925
-9.62039e-09
0.000181937
-8.01809e-09
5.10944e-08
1.29814e-08
2.99795e-09
-0.000251088
0.000251115
-3.8168e-08
-3.28555e-09
0.000221525
-2.48203e-08
1.0748e-07
5.29001e-08
-9.71444e-05
1.39091e-08
3.51739e-09
-6.51252e-09
-4.86438e-09
-9.71338e-05
1.38735e-08
3.57468e-09
-6.57312e-09
-4.85774e-09
-0.000212735
2.5477e-09
2.41946e-09
-2.53144e-09
-7.10869e-10
0.000212733
8.375e-09
7.99854e-05
6.09169e-09
8.47155e-09
7.99678e-05
5.95395e-09
2.28318e-08
2.06194e-08
-5.64119e-09
7.99936e-05
-5.72983e-09
7.99759e-05
-2.69383e-08
3.97409e-08
0.000221512
-0.000221559
-2.30843e-08
5.76854e-08
-0.000251111
1.97267e-09
-3.97561e-08
-3.67871e-09
0.000251142
-6.20678e-09
4.62624e-08
-0.000277015
1.34512e-08
-0.00018195
-6.27621e-09
6.16726e-09
0.000181959
-0.000181978
-4.58612e-09
-0.000251188
1.04877e-07
5.77821e-08
3.39606e-09
-2.1036e-08
0.000221525
-2.89251e-08
3.94742e-08
0.000221442
-0.000221491
-2.08442e-08
6.00197e-08
-0.000250999
2.19493e-09
-3.95483e-08
-1.51494e-09
0.000251025
-5.55736e-09
4.84982e-08
-0.00027694
1.3311e-08
-0.000181888
-8.15678e-09
6.19916e-09
0.000181899
-0.000181918
-4.48031e-09
-0.00025107
1.04671e-07
5.50314e-08
1.51704e-09
-2.31941e-08
0.000221457
-0.000221546
7.66132e-09
-1.28677e-09
-2.18116e-08
2.60658e-08
0.000181968
-3.90779e-08
0.000251156
1.05899e-07
5.64989e-08
7.67117e-09
-1.06797e-08
-8.92844e-09
5.68647e-08
-3.9435e-08
-4.11093e-09
-0.000221476
9.50809e-09
-1.48166e-09
-2.39957e-08
2.80583e-08
0.000181907
-3.89062e-08
0.000251044
1.0561e-07
5.38361e-08
7.33781e-09
-1.29765e-08
-9.13908e-09
5.91427e-08
-3.92969e-08
-1.89422e-09
-9.6914e-09
-9.75431e-09
0.000212709
-7.99794e-05
-1.79371e-09
7.99873e-05
-7.99617e-05
-1.71867e-09
7.99696e-05
0.00021271
1.94846e-08
7.85445e-05
-1.89226e-09
-1.1378e-08
4.8008e-08
-0.000261848
9.57022e-09
-4.98247e-09
-2.29775e-08
0.000261859
-2.7535e-09
5.52419e-08
-1.51549e-09
7.85556e-05
-2.75422e-09
2.27296e-08
0.000142295
-0.000222815
7.52873e-09
0.000222825
-1.98904e-08
-2.2282e-08
1.22256e-09
6.89986e-08
-0.000169946
1.43652e-09
0.000169952
6.72309e-08
0.000142303
-0.000142351
-1.1799e-09
-7.79267e-09
1.04575e-09
0.000142359
2.53725e-09
0.000169962
2.00383e-10
-2.25261e-08
0.000222868
2.51946e-09
7.18067e-08
8.32496e-09
2.58859e-09
0.00022918
1.56522e-10
-2.14316e-08
1.48139e-09
0.000169968
2.30689e-10
4.3594e-09
0.000222884
-2.53e-08
1.87695e-08
7.85781e-05
-7.85953e-05
-1.53189e-09
-9.85276e-09
-0.000192379
4.44045e-08
-0.000261903
1.01409e-08
-4.36328e-09
-2.65304e-08
0.000261917
-0.000261948
-2.2182e-09
5.64365e-08
-1.24126e-09
7.85895e-05
-7.8584e-05
-1.02824e-08
-1.88479e-08
0.000261933
5.72879e-08
-5.65313e-09
-1.1458e-08
-2.60331e-08
-2.52559e-09
2.21859e-08
0.000142338
-2.16519e-08
1.71826e-09
1.78958e-10
6.97256e-08
-0.000169944
1.17866e-09
8.46254e-11
0.000169951
-0.000222835
8.01532e-09
-2.36101e-08
0.000222848
1.88443e-10
7.06737e-08
0.000142346
-0.000142281
-1.54612e-09
-7.59642e-09
0.000142289
1.54284e-09
-2.25976e-08
0.00022278
6.67297e-08
3.07487e-09
2.96822e-09
0.000169927
8.26682e-09
2.90823e-09
0.000229141
-1.89033e-08
2.03553e-09
0.000169934
0.00022279
-2.01849e-08
5.18206e-09
-2.96178e-09
2.23912e-08
0.000142267
1.93605e-09
-0.000222743
7.79845e-09
-2.06193e-08
0.000222753
5.00355e-09
-2.17171e-08
2.1338e-09
6.73394e-08
-0.00016991
1.2213e-09
0.000169917
6.85437e-08
3.10262e-09
0.000142275
1.34417e-09
-0.000142349
-7.80632e-09
-1.15692e-09
1.00088e-09
0.000142357
-2.25157e-08
0.000222867
2.6285e-09