/*--------------------------------*- C++ -*----------------------------------*\
| =========                 |                                                 |
| \\      /  F ield         | OpenFOAM: The Open Source CFD Toolbox           |
|  \\    /   O peration     | Version:  v2006                                 |
|   \\  /    A nd           | Website:  www.openfoam.com                      |
|    \\/     M anipulation  |                                                 |
\*---------------------------------------------------------------------------*/
FoamFile
{
    version     2.0;
    format      ascii;
    class       volVectorField;
    location    "875";
    object      U;
}
// * * * * * * * * * * * * * * * * * * * * * * * * * * * * * * * * * * * * * //

dimensions      [0 1 -1 0 0 0 0];


internalField   nonuniform List<vector> 
14310
(
(7.26269e-05 7.26421e-05 0.105368)
(2.71857e-05 4.28267e-05 0.108771)
(4.26834e-05 2.71716e-05 0.108772)
(-1.76686e-06 9.69577e-06 0.0817029)
(-9.62649e-07 1.2255e-05 0.091341)
(9.71566e-06 -1.75956e-06 0.0817035)
(1.22958e-05 -9.72514e-07 0.0913408)
(2.88254e-06 3.71821e-06 0.0709013)
(3.73539e-06 2.91374e-06 0.070901)
(5.44718e-06 8.87249e-06 0.0871839)
(8.82256e-06 5.48068e-06 0.0871816)
(5.62333e-07 1.22104e-05 0.0913414)
(3.70753e-06 2.41173e-05 0.0929534)
(1.02001e-05 5.50224e-05 0.110992)
(-1.73434e-07 3.02073e-05 0.0991408)
(-1.05527e-05 5.50901e-05 0.110992)
(-1.40086e-07 3.01396e-05 0.0991412)
(2.41136e-05 3.78569e-06 0.0929535)
(5.49485e-05 1.02297e-05 0.110992)
(3.02429e-05 -1.39958e-08 0.0991405)
(1.22265e-05 4.84594e-07 0.0913403)
(5.50133e-05 -1.03638e-05 0.110991)
(3.01906e-05 5.83761e-08 0.0991405)
(-4.28305e-07 -2.58046e-06 0.0678609)
(-2.10228e-06 8.36371e-06 0.0854063)
(-3.59127e-06 -5.56422e-06 0.081745)
(-2.12128e-06 4.22141e-06 0.0678131)
(-2.79906e-06 -5.003e-06 0.0854526)
(-4.30828e-07 -1.97255e-06 0.0763676)
(-9.81316e-07 -3.91033e-06 0.0913754)
(-1.10086e-06 5.41427e-06 0.0781492)
(-1.14936e-06 1.20244e-05 0.0897123)
(-1.90882e-06 6.05284e-06 0.0763347)
(-8.00331e-07 -2.36761e-06 0.0781764)
(-1.3326e-06 -3.95224e-06 0.0897527)
(-2.57154e-06 -4.11381e-07 0.0678606)
(8.32803e-06 -2.05231e-06 0.0854069)
(-5.54796e-06 -3.60522e-06 0.0817452)
(4.23517e-06 -2.08931e-06 0.0678132)
(-5.03751e-06 -2.78739e-06 0.0854522)
(-1.94389e-06 -4.47861e-07 0.0763676)
(-3.91538e-06 -1.05915e-06 0.0913751)
(1.20403e-05 -1.06957e-06 0.0897126)
(5.44166e-06 -1.14907e-06 0.078149)
(6.09277e-06 -1.89285e-06 0.0763348)
(-3.95372e-06 -1.31302e-06 0.0897523)
(-2.35376e-06 -8.54453e-07 0.0781764)
(-1.20006e-06 -3.1181e-06 0.0709438)
(-3.11035e-06 -1.19538e-06 0.0709433)
(-7.35564e-07 -4.60228e-06 0.0915804)
(1.71112e-05 2.57196e-05 0.0964738)
(2.51775e-06 7.83558e-06 0.0810888)
(-3.07024e-06 2.42705e-07 0.0872215)
(7.86496e-06 1.53808e-05 0.0915424)
(-1.62052e-06 -3.53952e-07 0.0811234)
(1.41013e-06 -2.33077e-06 0.0965208)
(-4.63983e-06 -7.50652e-07 0.0915734)
(2.56151e-05 1.71636e-05 0.0964704)
(7.80894e-06 2.50611e-06 0.0810826)
(1.92075e-07 -3.07601e-06 0.0872196)
(1.52834e-05 7.86221e-06 0.0915348)
(-3.29762e-07 -1.62493e-06 0.0811181)
(-2.3806e-06 1.48063e-06 0.0965177)
(-1.13042e-06 -1.12253e-06 0.0832645)
(3.0612e-06 1.90171e-06 0.0678538)
(1.9125e-06 3.06118e-06 0.0678476)
(5.22014e-06 5.26609e-06 0.083234)
(-1.24976e-06 -1.67611e-06 0.067889)
(-1.64373e-06 -1.26301e-06 0.0678831)
(4.06123e-07 -2.55013e-06 0.0678628)
(1.79238e-06 8.20832e-06 0.0854081)
(1.95364e-06 4.17619e-06 0.0678155)
(2.60116e-06 -5.11409e-06 0.0854535)
(2.6289e-07 -1.9905e-06 0.0763675)
(7.22062e-07 1.18599e-05 0.0897132)
(5.91033e-07 -3.96392e-06 0.0913754)
(8.47297e-07 5.39613e-06 0.0781494)
(6.41864e-07 -2.37238e-06 0.0781765)
(1.61999e-06 5.99563e-06 0.0763348)
(9.52291e-07 -4.12942e-06 0.0897526)
(-2.58143e-06 2.93276e-07 0.0678631)
(4.12799e-06 1.74807e-06 0.0678146)
(-5.21669e-06 2.32771e-06 0.0854539)
(-2.00949e-06 9.54152e-08 0.0763685)
(-3.93654e-06 4.16755e-07 0.0913757)
(5.34479e-06 7.678e-07 0.0781478)
(1.18003e-05 4.39316e-07 0.0897116)
(-2.3378e-06 5.57641e-07 0.0781772)
(5.89227e-06 1.42658e-06 0.0763327)
(-4.1871e-06 6.49127e-07 0.0897535)
(-4.84839e-06 -4.79922e-06 0.0978985)
(6.56183e-05 2.96838e-05 0.102161)
(2.96168e-05 6.55761e-05 0.102158)
(-3.71555e-05 -3.70741e-05 0.105556)
(2.22408e-05 2.22784e-05 0.0978346)
(-3.74419e-05 1.89882e-07 0.102257)
(1.30046e-07 -3.73836e-05 0.102254)
(-6.98917e-06 -4.08404e-05 0.102301)
(-2.15343e-06 2.40846e-05 0.0958262)
(-9.55336e-06 8.32737e-05 0.102149)
(6.17113e-07 -4.14524e-06 0.0959021)
(6.13749e-06 -4.04756e-05 0.1023)
(1.24519e-05 7.69585e-05 0.100043)
(1.79815e-06 2.45408e-05 0.0958246)
(-4.09697e-06 6.42683e-07 0.0930108)
(-1.01161e-06 -3.74882e-06 0.095901)
(8.86043e-06 8.36789e-05 0.102148)
(4.75485e-06 -3.64401e-05 0.100122)
(5.65688e-06 -3.47927e-05 0.104007)
(-3.26446e-07 8.05346e-07 0.0992062)
(1.18337e-06 2.95141e-05 0.0980098)
(1.22217e-06 9.15172e-05 0.104627)
(3.78416e-07 -6.91269e-08 0.0980863)
(5.47124e-06 8.92438e-05 0.103833)
(1.85488e-06 -3.20323e-05 0.10477)
(-6.19071e-06 -3.5018e-05 0.104008)
(-1.5282e-06 2.92431e-05 0.0980109)
(-1.02804e-07 7.35007e-07 0.0992064)
(-1.49094e-06 9.14503e-05 0.104628)
(-5.83107e-06 8.90488e-05 0.103833)
(-8.1134e-07 -3.82693e-07 0.0980867)
(-2.31115e-06 -3.21092e-05 0.10477)
(-4.06142e-05 6.21867e-06 0.1023)
(7.68743e-05 1.25083e-05 0.100042)
(2.44662e-05 1.92686e-06 0.0958249)
(6.41314e-07 -4.07251e-06 0.0930104)
(-3.87134e-06 -9.30054e-07 0.0959008)
(8.35629e-05 8.92507e-06 0.102148)
(-3.65292e-05 4.80104e-06 0.100121)
(-3.48114e-05 5.82469e-06 0.104007)
(7.99224e-07 -2.46158e-07 0.0992055)
(2.95005e-05 1.34491e-06 0.0980098)
(9.15301e-05 1.40163e-06 0.104627)
(-8.33529e-08 4.84412e-07 0.0980858)
(8.92418e-05 5.61694e-06 0.103832)
(-3.2055e-05 1.97587e-06 0.104769)
(-4.10846e-05 -7.21877e-06 0.1023)
(-4.46411e-06 2.7104e-07 0.0959023)
(-3.51545e-05 -6.10816e-06 0.104006)
(7.45295e-07 -6.70521e-08 0.0992056)
(9.14898e-05 -1.1594e-06 0.104627)
(2.92095e-05 -1.4572e-06 0.0980097)
(8.90155e-05 -5.47529e-06 0.103832)
(-3.21407e-05 -2.12319e-06 0.104769)
(-4.86856e-07 -9.48041e-07 0.0980864)
(1.43697e-06 -3.3474e-06 0.0677595)
(-9.23393e-08 2.96384e-06 0.0678059)
(1.34285e-06 -4.16755e-06 0.0762175)
(5.10616e-07 3.71022e-06 0.0780363)
(7.78218e-07 -3.54997e-06 0.0780082)
(-1.41814e-08 3.32535e-06 0.0762505)
(-4.54314e-07 3.68751e-06 0.0780372)
(-1.49615e-06 -3.279e-06 0.0677537)
(7.44223e-08 2.86284e-06 0.0678058)
(-1.32901e-06 -4.04879e-06 0.076214)
(-5.00306e-07 3.67002e-06 0.0780373)
(-7.34465e-07 -3.48829e-06 0.0780066)
(3.32507e-09 3.23294e-06 0.076253)
(1.25638e-08 3.32734e-06 0.07625)
(5.48934e-07 3.71893e-06 0.0780363)
(-7.66193e-08 2.96362e-06 0.0678043)
(-1.03212e-05 1.74729e-05 0.108279)
(4.31324e-05 -4.3104e-05 0.104894)
(-1.74228e-05 1.02909e-05 0.108282)
(-1.75697e-05 -1.06583e-05 0.10828)
(-1.05165e-05 -1.75096e-05 0.108281)
(4.30279e-05 4.29678e-05 0.104893)
(-2.45359e-05 2.4549e-05 0.113146)
(-2.46745e-05 -2.46769e-05 0.113146)
(1.90586e-06 -7.36427e-06 0.0816089)
(-3.53475e-08 6.57703e-06 0.0815653)
(-1.09274e-05 1.8136e-05 0.108293)
(5.9911e-07 -4.41886e-05 0.099603)
(-2.94846e-06 1.46945e-05 0.0926153)
(6.00823e-07 -3.79797e-06 0.0709106)
(-3.51446e-06 2.34552e-06 0.0708636)
(-4.88977e-05 4.88161e-05 0.104747)
(3.27399e-06 -3.66076e-06 0.08702)
(3.72841e-06 -3.30118e-06 0.0870197)
(-4.87184e-06 3.90988e-06 0.0869815)
(-3.93088e-06 4.90333e-06 0.0869844)
(3.86737e-06 -6.57625e-07 0.0709085)
(-2.41329e-06 3.58336e-06 0.0708659)
(9.17669e-06 2.02563e-07 0.0986131)
(8.38602e-06 5.03574e-07 0.0910235)
(-1.7066e-05 -4.28232e-07 0.0985418)
(-1.81232e-05 1.08682e-05 0.108296)
(4.80307e-05 1.306e-06 0.101662)
(-2.58684e-05 3.52166e-06 0.110841)
(-1.46966e-05 2.9849e-06 0.0926164)
(-2.66124e-05 3.78198e-06 0.110851)
(4.53498e-05 2.27163e-06 0.103339)
(-6.11907e-06 -7.00336e-07 0.0909845)
(7.40578e-06 -1.92016e-06 0.0816085)
(-6.57674e-06 8.40771e-08 0.0815663)
(8.43384e-06 -6.33476e-07 0.0910133)
(-1.70418e-05 1.47231e-07 0.0985417)
(-1.82031e-05 -1.11566e-05 0.108294)
(-2.58951e-05 -3.85745e-06 0.11084)
(4.4153e-05 4.35368e-07 0.0996039)
(-2.66115e-05 -3.9741e-06 0.11085)
(-1.46031e-05 -2.9828e-06 0.0926161)
(4.53705e-05 -2.60235e-06 0.103339)
(-6.09174e-06 5.13187e-07 0.0909845)
(7.41919e-06 1.89484e-06 0.0816086)
(-6.52836e-06 2.94246e-08 0.0815666)
(8.43922e-06 5.7898e-07 0.0910132)
(-3.68507e-06 -2.58945e-05 0.11084)
(5.3229e-07 4.41509e-05 0.0996034)
(-2.39673e-06 4.53524e-05 0.103339)
(1.93682e-06 7.43374e-06 0.0816091)
(6.84622e-07 8.49049e-06 0.0910137)
(3.69655e-06 3.19173e-06 0.0870204)
(3.29016e-06 3.65709e-06 0.0870187)
(3.8788e-06 6.14804e-07 0.0709096)
(6.66686e-07 3.869e-06 0.0709097)
(1.37859e-06 3.34309e-06 0.0677589)
(1.9128e-08 6.53421e-06 0.0815656)
(1.95173e-06 -7.28275e-06 0.0852582)
(1.30411e-06 4.94921e-06 0.0852134)
(-1.56672e-07 -2.97184e-06 0.0678053)
(-1.23381e-07 -2.96111e-06 0.0678038)
(1.30405e-06 4.99777e-06 0.0852143)
(1.87381e-06 -7.33815e-06 0.0816088)
(1.39825e-06 3.3597e-06 0.0677572)
(1.96934e-06 -7.24531e-06 0.0852593)
(-3.40644e-06 2.32717e-06 0.0708654)
(5.40466e-07 -3.76785e-06 0.0709089)
(3.116e-06 -3.10143e-06 0.0830948)
(-1.91312e-06 1.5405e-06 0.0677671)
(-1.54154e-06 1.92794e-06 0.0677734)
(-2.72529e-06 2.72876e-06 0.0830636)
(2.13323e-06 -1.59124e-06 0.0678028)
(1.59636e-06 -2.14066e-06 0.0678084)
(-4.04071e-06 7.64664e-06 0.0912534)
(3.89443e-06 -1.16434e-05 0.0961084)
(-4.69551e-06 4.00113e-06 0.0869802)
(1.73829e-06 -3.25129e-06 0.0809836)
(-1.03655e-05 1.33027e-05 0.0960626)
(-2.26848e-06 3.83785e-06 0.0809471)
(4.14779e-06 -9.85636e-06 0.0912916)
(-7.6689e-06 4.04052e-06 0.091261)
(1.16824e-05 -3.91051e-06 0.0961108)
(-4.02069e-06 4.7348e-06 0.0869831)
(3.3038e-06 -1.76956e-06 0.0809873)
(-3.88292e-06 2.29628e-06 0.0809533)
(-1.33053e-05 1.03648e-05 0.0960663)
(9.90314e-06 -4.14518e-06 0.091298)
(3.74787e-06 -9.77845e-06 0.0912942)
(-2.29788e-06 3.67257e-06 0.0809475)
(-1.07246e-05 1.34244e-05 0.0960685)
(3.13739e-06 -3.71328e-06 0.0870214)
(3.4302e-06 -1.15773e-05 0.0961143)
(-4.39704e-06 7.66929e-06 0.0912563)
(1.81294e-06 -3.28418e-06 0.0809839)
(9.81436e-06 -3.7549e-06 0.0913007)
(-3.71708e-06 2.32285e-06 0.0809537)
(-1.34516e-05 1.06935e-05 0.0960722)
(3.77831e-06 -3.15515e-06 0.0870211)
(-7.71136e-06 4.37414e-06 0.0912638)
(3.33737e-06 -1.82981e-06 0.0809877)
(1.15916e-05 -3.46414e-06 0.0961167)
(-2.46338e-06 2.46901e-06 0.0830633)
(2.06573e-06 -1.69075e-06 0.0678031)
(1.68593e-06 -2.08587e-06 0.0678088)
(-1.9254e-06 1.56263e-06 0.0677674)
(-1.56945e-06 1.93384e-06 0.0677736)
(3.45445e-06 -3.44754e-06 0.0830949)
(-2.40277e-06 3.46322e-06 0.0708677)
(3.84584e-06 -5.79599e-07 0.0709068)
(-4.21856e-06 1.23649e-06 0.0762164)
(-6.18157e-06 5.04166e-07 0.0909896)
(3.67305e-06 4.57344e-07 0.0780362)
(8.05917e-06 8.17276e-07 0.0894602)
(-3.62175e-06 6.91999e-07 0.0780086)
(-6.4576e-06 6.70009e-07 0.0894211)
(3.29884e-06 -9.87297e-08 0.0762494)
(3.23279e-06 6.68127e-08 0.0762512)
(-6.4374e-06 -8.18381e-07 0.0894168)
(-3.60093e-06 -7.80449e-07 0.0780082)
(8.39646e-06 -6.63713e-07 0.0910183)
(-4.17174e-06 -1.28997e-06 0.0762152)
(7.98653e-06 -9.24549e-07 0.0894571)
(3.66931e-06 -5.15427e-07 0.0780361)
(-3.26236e-06 -1.3956e-06 0.0677542)
(-6.54864e-06 2.29247e-08 0.0815665)
(7.2552e-06 -1.91524e-06 0.0852586)
(-4.8916e-06 -1.27139e-06 0.0852118)
(2.88821e-06 2.03655e-07 0.0678052)
(2.88289e-06 2.02566e-07 0.0678037)
(-4.93613e-06 -1.26785e-06 0.0852128)
(7.39539e-06 -1.87296e-06 0.0816084)
(-3.27135e-06 -1.38889e-06 0.0677526)
(7.22643e-06 -1.91204e-06 0.0852597)
(-4.14699e-06 -1.27135e-06 0.0762158)
(-6.04429e-06 -6.7446e-07 0.0909796)
(8.03073e-06 -9.22604e-07 0.0894536)
(3.68094e-06 -4.79992e-07 0.0780361)
(-6.35697e-06 -8.08809e-07 0.0894133)
(-3.58117e-06 -7.48642e-07 0.0780082)
(3.25077e-06 8.46486e-08 0.0762516)
(3.29529e-06 -7.01171e-08 0.0762498)
(-3.60236e-06 7.16827e-07 0.0780085)
(-6.39079e-06 6.9116e-07 0.0894174)
(8.41865e-06 5.30943e-07 0.0910183)
(-4.20653e-06 1.25688e-06 0.0762168)
(3.67645e-06 4.8775e-07 0.078036)
(8.06904e-06 8.50947e-07 0.0894565)
(-3.35484e-06 1.39213e-06 0.0677592)
(-6.53853e-06 -4.29087e-09 0.0815669)
(7.27507e-06 1.95145e-06 0.0852582)
(-4.92523e-06 1.26662e-06 0.0852135)
(2.95181e-06 -1.12618e-07 0.0678055)
(2.95625e-06 -1.39981e-07 0.067804)
(-4.91588e-06 1.22886e-06 0.0852145)
(7.45616e-06 1.92175e-06 0.0816084)
(-3.35702e-06 1.36572e-06 0.0677575)
(7.30254e-06 1.91886e-06 0.0852592)
(-4.19702e-06 1.28707e-06 0.0762174)
(-6.03201e-06 5.52828e-07 0.0909796)
(3.68023e-06 5.21746e-07 0.078036)
(8.06945e-06 9.01605e-07 0.0894529)
(-3.58724e-06 7.51137e-07 0.0780085)
(-6.35561e-06 7.36638e-07 0.089414)
(3.29573e-06 -3.73484e-08 0.0762502)
(5.16823e-08 -6.53216e-06 0.0815674)
(2.02495e-06 7.2709e-06 0.0852587)
(1.35873e-06 -4.93922e-06 0.0852139)
(6.75736e-07 -5.97545e-06 0.0909795)
(1.01812e-06 8.10007e-06 0.0894532)
(8.6178e-07 -6.33041e-06 0.0894143)
(-7.55899e-06 -4.09931e-06 0.0912594)
(1.16319e-05 3.8128e-06 0.0961104)
(-4.04738e-06 -4.80286e-06 0.086982)
(3.30593e-06 1.58524e-06 0.0809888)
(-1.33465e-05 -1.03216e-05 0.096065)
(-3.74202e-06 -2.49376e-06 0.0809522)
(9.90864e-06 3.94395e-06 0.0912981)
(-3.98141e-06 -7.63647e-06 0.0912528)
(3.96277e-06 1.15751e-05 0.0961072)
(-4.70772e-06 -4.08478e-06 0.0869811)
(1.66293e-06 3.25439e-06 0.0809833)
(-1.02212e-05 -1.33537e-05 0.0960625)
(-2.42257e-06 -3.83208e-06 0.0809478)
(4.07193e-06 9.8345e-06 0.0912908)
(-2.42212e-06 -2.51102e-06 0.0830622)
(1.66179e-06 1.98384e-06 0.0678097)
(2.04898e-06 1.64796e-06 0.0678029)
(-1.48542e-06 -2.05316e-06 0.0677721)
(-2.01695e-06 -1.56403e-06 0.0677669)
(3.37643e-06 3.31365e-06 0.0830953)
(-2.3785e-06 -3.49962e-06 0.0708681)
(-3.44471e-06 -2.38192e-06 0.0708685)
(1.16787e-05 -4.2413e-05 0.101715)
(4.24065e-05 -1.1645e-05 0.101712)
(1.25638e-05 -1.253e-05 0.0974701)
(-1.13425e-05 1.13025e-05 0.0974125)
(-4.83709e-05 4.83228e-05 0.104733)
(-4.56832e-05 1.4474e-05 0.101629)
(-1.45239e-05 4.56711e-05 0.101633)
(4.24318e-05 1.1559e-05 0.101711)
(1.25842e-05 1.24889e-05 0.0974689)
(1.16156e-05 4.23482e-05 0.101714)
(-1.11843e-05 -1.12886e-05 0.0974115)
(-4.84622e-05 -4.8525e-05 0.104734)
(-1.45359e-05 -4.57446e-05 0.101632)
(-4.56101e-05 -1.45625e-05 0.101629)
(-3.35436e-05 1.12409e-05 0.115031)
(-1.28096e-05 1.28286e-05 0.116393)
(-1.12325e-05 3.35622e-05 0.11503)
(-2.51425e-05 2.51365e-05 0.113141)
(-1.14936e-05 3.40538e-05 0.115004)
(-3.40534e-05 1.14779e-05 0.115005)
(-1.29532e-05 1.29611e-05 0.116345)
(-3.35693e-05 -1.13543e-05 0.11503)
(-1.28281e-05 -1.28336e-05 0.116393)
(-1.13124e-05 -3.35702e-05 0.115031)
(-2.52188e-05 -2.51507e-05 0.11314)
(-3.40547e-05 -1.1464e-05 0.115004)
(-1.14999e-05 -3.39942e-05 0.115005)
(-1.2952e-05 -1.29022e-05 0.116345)
(-1.30303e-06 -4.79957e-05 0.10166)
(4.17203e-06 -6.92401e-06 0.0926657)
(1.98907e-06 -1.11079e-05 0.095443)
(-4.12179e-06 5.84881e-05 0.101527)
(-2.84385e-06 1.45983e-05 0.092611)
(-3.81728e-07 1.477e-05 0.0953735)
(-6.5378e-06 5.47571e-05 0.0995321)
(-1.56304e-06 -4.78937e-05 0.101672)
(-4.71005e-07 1.49416e-05 0.0953804)
(-6.81457e-06 5.51735e-05 0.0995408)
(4.07752e-06 -6.8671e-06 0.09267)
(-4.37081e-06 5.89718e-05 0.101538)
(1.91845e-06 -1.10042e-05 0.0954501)
(2.6943e-07 -4.40989e-05 0.0996118)
(1.21925e-05 -1.21798e-05 0.0974765)
(4.29232e-05 -4.29281e-05 0.104908)
(-4.61307e-05 1.47535e-05 0.101639)
(-1.48369e-05 4.6088e-05 0.101643)
(4.21261e-05 -1.13698e-05 0.101723)
(-1.16392e-05 1.15709e-05 0.0974189)
(1.13707e-05 -4.21605e-05 0.101726)
(-6.06538e-05 -2.70418e-06 0.103211)
(-1.73049e-05 1.99883e-07 0.0985529)
(4.32801e-05 -9.58723e-07 0.104089)
(9.5284e-06 2.39501e-07 0.0975571)
(-6.11705e-05 -3.79601e-07 0.103961)
(-1.73872e-05 -2.86648e-07 0.0974872)
(4.5119e-05 -2.80742e-06 0.103366)
(4.51747e-05 2.43115e-06 0.103353)
(-1.7243e-05 4.55275e-08 0.0974776)
(-6.05578e-05 1.90434e-07 0.103947)
(9.34134e-06 -4.57077e-07 0.0986017)
(-6.01631e-05 2.39404e-06 0.103197)
(9.56388e-06 -5.11298e-07 0.0975473)
(4.34426e-05 6.78319e-07 0.104074)
(4.42285e-05 -5.95534e-07 0.0996049)
(1.11118e-05 -1.94602e-06 0.0954435)
(6.98778e-06 -4.15219e-06 0.092666)
(-5.8453e-05 4.12121e-06 0.101528)
(-1.45913e-05 2.9116e-06 0.0926122)
(-5.47298e-05 6.57601e-06 0.0995342)
(-1.4736e-05 4.43915e-07 0.0953734)
(4.79006e-05 1.52705e-06 0.101674)
(-1.49185e-05 4.88298e-07 0.0953803)
(-5.51723e-05 6.81167e-06 0.0995428)
(6.92556e-06 -4.07044e-06 0.0926704)
(-5.89689e-05 4.3089e-06 0.10154)
(4.41152e-05 -3.01154e-07 0.0996138)
(1.10056e-05 -1.89593e-06 0.0954506)
(4.36198e-05 6.05941e-07 0.10406)
(9.51158e-06 -4.53804e-07 0.0985907)
(9.73206e-06 -5.48217e-07 0.097538)
(-5.95706e-05 2.23939e-06 0.103185)
(-1.68126e-05 -4.42451e-07 0.0985311)
(-1.70162e-05 3.73136e-09 0.0974684)
(-5.99385e-05 8.78765e-08 0.103933)
(4.52515e-05 -2.73897e-06 0.103352)
(-6.05396e-05 -4.33282e-07 0.103947)
(-1.71547e-05 -2.93228e-07 0.0974777)
(9.35613e-06 1.87942e-07 0.0986018)
(-6.00844e-05 -2.68002e-06 0.103198)
(4.34598e-05 -9.73823e-07 0.104074)
(9.66878e-06 2.61795e-07 0.0975473)
(4.80015e-05 -1.56192e-06 0.10166)
(6.97751e-06 4.079e-06 0.0926656)
(1.11277e-05 1.81936e-06 0.0954431)
(-5.84574e-05 -4.41959e-06 0.101528)
(-1.45572e-05 -2.951e-06 0.0926117)
(-1.47124e-05 -5.79644e-07 0.0953737)
(-5.47824e-05 -6.70829e-06 0.0995335)
(4.79695e-05 -1.84741e-06 0.101673)
(-1.48095e-05 -6.67774e-07 0.0953808)
(-5.51201e-05 -7.00322e-06 0.0995425)
(6.9795e-06 4.04616e-06 0.0926701)
(-5.88656e-05 -4.65151e-06 0.10154)
(1.10815e-05 1.72e-06 0.0954504)
(4.41174e-05 1.10651e-07 0.0996131)
(4.36209e-05 -9.28288e-07 0.104059)
(9.50919e-06 2.34894e-07 0.0985906)
(9.77971e-06 3.49214e-07 0.0975377)
(-5.95422e-05 -2.57883e-06 0.103185)
(-1.6807e-05 1.67418e-07 0.098531)
(-5.99334e-05 -4.20076e-07 0.103933)
(-1.69677e-05 -2.32936e-07 0.0974685)
(-1.40642e-06 4.80002e-05 0.101661)
(4.21574e-06 6.98357e-06 0.0926658)
(1.98287e-06 1.10969e-05 0.0954437)
(-4.24596e-06 -5.84318e-05 0.101528)
(-2.82614e-06 -1.45876e-05 0.0926118)
(-4.33545e-07 -1.47445e-05 0.0953739)
(-6.62989e-06 -5.47767e-05 0.0995327)
(-7.53325e-07 4.36443e-05 0.10406)
(4.12209e-07 9.55271e-06 0.098591)
(5.16691e-07 9.80043e-06 0.097538)
(-2.40222e-06 -5.95383e-05 0.103185)
(3.40506e-07 -1.67545e-05 0.0985309)
(-2.7707e-07 -5.98872e-05 0.103933)
(-8.71582e-08 -1.69318e-05 0.0974685)
(-3.74052e-05 -3.74004e-05 0.105488)
(2.59216e-05 4.05155e-05 0.108734)
(4.04385e-05 2.58294e-05 0.108735)
(4.04535e-05 -2.5464e-05 0.108733)
(-3.82323e-05 3.82956e-05 0.105487)
(2.54707e-05 -4.03992e-05 0.108735)
(1.59271e-06 -2.95469e-06 0.0709406)
(3.1798e-06 3.64968e-07 0.0872096)
(3.66548e-05 -3.66968e-05 0.105534)
(-8.83783e-07 -4.06351e-06 0.0913587)
(-3.1503e-06 -5.70962e-06 0.0817362)
(-4.11109e-06 -9.86304e-07 0.0913587)
(-5.70454e-06 -3.17519e-06 0.0817364)
(3.85981e-05 3.86108e-05 0.112656)
(3.88049e-05 -3.87525e-05 0.112656)
(-8.55828e-07 -3.14015e-06 0.0709391)
(-3.14762e-06 -8.53981e-07 0.0709385)
(-3.78342e-05 -3.77608e-05 0.105533)
(-2.60879e-06 -5.49749e-07 0.0872109)
(-5.78243e-07 -2.65326e-06 0.087209)
(-1.41935e-06 -3.00529e-06 0.0709301)
(3.44849e-06 3.62451e-06 0.070892)
(-3.03227e-06 -1.40079e-06 0.0709295)
(3.62322e-06 3.47559e-06 0.0708918)
(7.013e-05 7.01416e-05 0.105324)
(-3.10239e-06 -3.82428e-07 0.0871894)
(-4.10491e-07 -3.13114e-06 0.0871875)
(6.14897e-06 7.47053e-06 0.0871627)
(7.46196e-06 6.11239e-06 0.0871605)
(3.67932e-06 -5.58202e-06 0.0817374)
(7.11615e-07 -4.09324e-06 0.0913587)
(-3.77782e-07 4.88663e-07 0.0991808)
(2.64051e-05 4.19665e-05 0.108759)
(-3.82536e-06 8.44962e-08 0.0929944)
(9.82131e-06 5.41129e-05 0.110996)
(3.9565e-06 2.21594e-07 0.0929948)
(-2.75351e-05 4.22956e-05 0.108759)
(-5.94437e-08 4.42824e-07 0.099181)
(-1.04771e-05 5.41802e-05 0.110997)
(-7.87706e-07 1.18267e-05 0.0913083)
(-3.30696e-06 -5.82048e-06 0.0817199)
(-1.01396e-06 9.34065e-06 0.0816855)
(-6.14877e-07 -4.40613e-06 0.0913266)
(7.85819e-07 1.18287e-05 0.0913085)
(9.35958e-07 -4.37619e-06 0.0913267)
(-2.6757e-07 2.93525e-05 0.099091)
(2.61324e-05 4.1248e-05 0.108746)
(-3.6395e-06 -7.31824e-07 0.0929637)
(9.67935e-06 5.23229e-05 0.111003)
(4.09683e-06 2.2973e-05 0.0929215)
(9.67864e-06 5.32361e-05 0.111)
(-1.05449e-07 -2.12067e-07 0.0991313)
(-5.3793e-08 2.93373e-05 0.0990913)
(2.80547e-07 -1.68032e-07 0.0991316)
(4.53717e-07 -4.50225e-07 0.0991804)
(4.18234e-05 2.63723e-05 0.10876)
(8.80745e-08 -3.89186e-06 0.0929942)
(5.40401e-05 9.82595e-06 0.110996)
(1.17787e-05 -8.59418e-07 0.0913082)
(-5.87282e-06 -3.2868e-06 0.0817201)
(9.34049e-06 -1.03141e-06 0.0816861)
(-4.40583e-06 -5.9696e-07 0.0913267)
(2.93261e-05 -3.80635e-07 0.0990908)
(4.11342e-05 2.60576e-05 0.108748)
(-7.40018e-07 -3.70406e-06 0.0929635)
(5.23147e-05 9.6313e-06 0.111003)
(2.29868e-05 4.01251e-06 0.0929216)
(5.31795e-05 9.65032e-06 0.111)
(-2.06292e-07 -1.5216e-07 0.0991313)
(1.17407e-05 6.99437e-07 0.091308)
(-5.69395e-06 3.16623e-06 0.0817197)
(9.42927e-06 1.96942e-06 0.0816858)
(-4.34767e-06 9.93471e-07 0.0913268)
(2.9285e-05 -2.67242e-07 0.0990913)
(4.13949e-05 -2.66446e-05 0.108746)
(5.23333e-05 -9.82284e-06 0.111003)
(9.55711e-08 3.98049e-06 0.0929622)
(5.32178e-05 -1.02698e-05 0.111)
(2.36085e-05 -3.6188e-06 0.0929203)
(-1.4623e-07 2.54229e-07 0.099131)
(-3.16859e-06 7.38739e-07 0.0709301)
(3.60914e-06 -2.6527e-06 0.070892)
(7.16804e-05 -7.17052e-05 0.105324)
(-3.68562e-07 2.57444e-06 0.0871869)
(-2.57668e-06 4.0607e-07 0.0871894)
(9.11997e-06 -5.1828e-06 0.0871586)
(5.17875e-06 -9.1313e-06 0.0871606)
(-7.24726e-07 3.19931e-06 0.0709302)
(2.6967e-06 -3.59855e-06 0.0708925)
(2.37441e-07 -2.93061e-05 0.0990911)
(2.6593e-05 -4.13534e-05 0.108748)
(-3.92478e-06 -4.66895e-08 0.0929633)
(1.02738e-05 -5.31962e-05 0.111)
(3.60298e-06 -2.3576e-05 0.0929215)
(-6.05488e-07 -1.17314e-05 0.0913079)
(-3.13876e-06 5.74968e-06 0.0817198)
(-1.93142e-06 -9.38507e-06 0.0816857)
(-2.67851e-06 3.82238e-06 0.0708975)
(-8.12897e-06 1.5066e-05 0.0915217)
(-5.48513e-06 8.55282e-06 0.0871718)
(-1.99813e-06 -2.71345e-06 0.0964988)
(2.23444e-06 3.30921e-07 0.0811116)
(-2.10004e-06 7.86297e-06 0.0810764)
(6.39238e-07 -4.4991e-06 0.0915587)
(-1.76224e-05 2.5077e-05 0.0964534)
(-5.6738e-06 5.42869e-06 0.0832216)
(1.66206e-06 -1.07902e-06 0.0678796)
(1.02213e-06 -1.75187e-06 0.0678828)
(-2.76751e-06 2.42128e-06 0.0678438)
(-2.4954e-06 2.63356e-06 0.0678475)
(6.09917e-07 -7.6087e-07 0.0832532)
(-1.51827e-05 8.18789e-06 0.0915255)
(-7.78082e-06 2.10635e-06 0.0810798)
(-1.75177e-06 5.98312e-06 0.0763269)
(-9.42557e-07 1.20436e-05 0.0913245)
(-6.80219e-07 -2.40698e-06 0.0781678)
(-1.17448e-06 -4.11499e-06 0.0897381)
(-9.94587e-07 5.35051e-06 0.0781407)
(-1.10504e-06 1.18421e-05 0.0896978)
(-2.46517e-07 -2.02555e-06 0.0763597)
(-1.92878e-06 4.14479e-06 0.0678076)
(-2.58839e-06 -5.15177e-06 0.0854417)
(-1.33693e-06 9.50993e-06 0.0816938)
(-1.95829e-06 8.19249e-06 0.0853953)
(-2.39079e-07 -2.63049e-06 0.0678554)
(5.99471e-06 -1.79145e-06 0.0763269)
(1.20204e-05 -1.0416e-06 0.0913243)
(-4.12269e-06 -1.21759e-06 0.0897379)
(-2.41861e-06 -7.10513e-07 0.078168)
(1.18461e-05 -1.12332e-06 0.089698)
(5.3474e-06 -1.04632e-06 0.0781405)
(-2.02463e-06 -2.81984e-07 0.0763599)
(4.13453e-06 -1.92069e-06 0.0678078)
(-5.1592e-06 -2.61371e-06 0.0854413)
(9.53659e-06 -1.36287e-06 0.0816944)
(8.18782e-06 -1.97538e-06 0.0853959)
(-2.64745e-06 -2.22874e-07 0.0678552)
(3.35471e-06 3.59006e-06 0.0708965)
(3.60299e-06 3.37459e-06 0.0708963)
(5.05225e-06 5.04934e-06 0.0832242)
(-1.51039e-06 -1.68101e-06 0.0678826)
(-1.63228e-06 -1.54432e-06 0.0678766)
(3.08485e-06 1.61025e-06 0.0678471)
(1.64635e-06 3.05171e-06 0.067841)
(-9.68231e-07 -1.00915e-06 0.0832536)
(8.24535e-06 1.44836e-05 0.0915296)
(-1.71887e-06 -1.12191e-06 0.0811152)
(5.91226e-06 8.10486e-06 0.087173)
(1.71134e-06 -3.08873e-06 0.0965031)
(2.85573e-06 6.79631e-06 0.0810805)
(-1.21985e-07 -5.33107e-06 0.0915673)
(1.68355e-05 2.50469e-05 0.0964559)
(1.44194e-05 8.20829e-06 0.0915221)
(-1.06442e-06 -1.76215e-06 0.0811099)
(8.0796e-06 5.89982e-06 0.0871708)
(-3.11724e-06 1.72958e-06 0.0965)
(6.81132e-06 2.79869e-06 0.0810743)
(-5.31592e-06 -1.79498e-07 0.0915603)
(2.49468e-05 1.68644e-05 0.0964525)
(3.09086e-06 3.69391e-06 0.0708875)
(-1.0106e-06 -3.04414e-06 0.0709346)
(3.68545e-06 3.12977e-06 0.0708874)
(-3.06657e-06 -1.00034e-06 0.070934)
(-3.35386e-07 -3.93773e-07 0.0832422)
(2.57939e-06 1.88284e-06 0.0678413)
(1.91875e-06 2.53929e-06 0.0678352)
(5.50867e-06 5.47109e-06 0.083213)
(-2.09674e-06 -1.24791e-06 0.0678771)
(-1.20761e-06 -2.1249e-06 0.0678711)
(8.71535e-06 1.41973e-05 0.0915022)
(2.55695e-06 -3.96402e-06 0.0964683)
(5.80873e-06 7.56941e-06 0.0871521)
(-2.89975e-06 -9.27293e-08 0.0810985)
(1.54251e-06 7.06217e-06 0.0810642)
(1.79929e-05 2.35706e-05 0.0964217)
(-2.91696e-07 -4.94292e-06 0.0915388)
(1.41957e-05 8.60056e-06 0.0914947)
(-3.93155e-06 2.51224e-06 0.0964652)
(7.56106e-06 5.78639e-06 0.0871499)
(-6.41697e-08 -2.92054e-06 0.0810931)
(7.08124e-06 1.47636e-06 0.081058)
(2.35475e-05 1.79341e-05 0.0964184)
(-4.90285e-06 -4.02764e-07 0.0915318)
(2.18941e-07 -5.37591e-06 0.0915532)
(2.30906e-06 6.45821e-06 0.0810725)
(1.74767e-05 2.41348e-05 0.0964388)
(-2.64059e-06 -8.36412e-07 0.0872003)
(8.81517e-06 1.39833e-05 0.0915163)
(-2.53123e-06 -9.28383e-07 0.081107)
(2.51139e-06 -3.80368e-06 0.0964858)
(-5.3268e-06 1.17543e-07 0.0915462)
(6.49179e-06 2.22865e-06 0.0810663)
(2.40781e-05 1.74498e-05 0.0964355)
(-8.58342e-07 -2.69054e-06 0.0871985)
(1.39736e-05 8.73457e-06 0.0915088)
(-8.72735e-07 -2.57662e-06 0.0811017)
(-3.78754e-06 2.48038e-06 0.0964828)
(5.95624e-06 5.92251e-06 0.0832023)
(-2.19252e-06 -8.84009e-07 0.0678719)
(-8.62255e-07 -2.19763e-06 0.0678659)
(2.13524e-06 2.35089e-06 0.0678362)
(2.36808e-06 2.10851e-06 0.0678301)
(-3.46339e-07 -3.85362e-07 0.0832324)
(2.07962e-06 4.21033e-06 0.0678099)
(1.68966e-06 9.58079e-06 0.0816953)
(2.73225e-06 -5.11541e-06 0.0854424)
(1.94194e-06 8.15786e-06 0.0853972)
(5.10154e-07 -2.50717e-06 0.0678571)
(1.75283e-06 5.981e-06 0.0763271)
(1.10044e-06 -4.20494e-06 0.0897381)
(6.27627e-07 1.201e-05 0.0913248)
(7.63684e-07 -2.38614e-06 0.078168)
(9.63386e-07 5.35843e-06 0.0781409)
(8.492e-07 1.16988e-05 0.0896987)
(3.91275e-07 -1.97751e-06 0.0763596)
(-1.52033e-07 -2.06292e-06 0.0763522)
(-8.89834e-07 5.29506e-06 0.0781324)
(-8.83378e-07 1.16087e-05 0.0896838)
(-7.05989e-07 -4.23442e-06 0.0913424)
(-1.58734e-06 5.91972e-06 0.0763194)
(-6.19061e-07 -2.43673e-06 0.0781596)
(-9.45436e-07 -4.31302e-06 0.089724)
(-1.84705e-06 4.11889e-06 0.0677973)
(-1.12026e-06 9.24183e-06 0.0816775)
(-2.45298e-06 -5.326e-06 0.0854212)
(-1.66956e-06 7.89317e-06 0.0853749)
(-3.363e-07 -2.57884e-06 0.0678449)
(-1.96672e-07 -2.62763e-06 0.0678501)
(-1.74114e-06 8.01407e-06 0.0853849)
(-3.02747e-06 -5.7974e-06 0.0817279)
(-1.79212e-06 4.10297e-06 0.0678023)
(-2.419e-06 -5.27212e-06 0.0854313)
(-1.58108e-06 5.87319e-06 0.0763122)
(-6.32076e-07 1.1602e-05 0.0912926)
(-6.75902e-07 -2.45797e-06 0.0781516)
(-8.81782e-07 -4.49023e-06 0.0897103)
(-8.87576e-07 5.25219e-06 0.0781244)
(-7.13475e-07 1.1366e-05 0.0896703)
(-2.38319e-07 -2.0764e-06 0.076345)
(4.37989e-07 -1.98483e-06 0.076352)
(1.00335e-06 1.15916e-05 0.0896846)
(1.06544e-06 5.32704e-06 0.0781325)
(8.72422e-07 -4.22287e-06 0.0913425)
(1.85235e-06 5.97026e-06 0.0763194)
(8.20527e-07 -2.40587e-06 0.0781597)
(1.23202e-06 -4.25984e-06 0.0897239)
(1.82911e-06 5.92457e-06 0.076312)
(1.24155e-06 -4.36907e-06 0.08971)
(9.12896e-07 1.16302e-05 0.0912927)
(7.65269e-07 -2.44605e-06 0.0781516)
(1.06334e-06 5.27711e-06 0.0781245)
(1.08833e-06 1.14688e-05 0.0896707)
(3.51144e-07 -2.03753e-06 0.0763446)
(-2.06688e-06 -1.43767e-07 0.0763525)
(1.16067e-05 -9.22693e-07 0.0896839)
(5.28112e-06 -9.02594e-07 0.0781323)
(-4.26918e-06 -7.48341e-07 0.0913426)
(5.91404e-06 -1.61098e-06 0.0763195)
(-4.32151e-06 -9.71754e-07 0.089724)
(-2.44685e-06 -6.0746e-07 0.0781598)
(4.09351e-06 -1.78695e-06 0.0677976)
(9.21084e-06 -1.11165e-06 0.0816782)
(-5.36683e-06 -2.41674e-06 0.0854208)
(7.8735e-06 -1.65384e-06 0.0853754)
(-2.5881e-06 -2.54278e-07 0.0678449)
(-2.65114e-06 -1.4924e-07 0.06785)
(8.01916e-06 -1.76231e-06 0.0853855)
(-5.82882e-06 -3.02999e-06 0.0817282)
(4.07283e-06 -1.7662e-06 0.0678026)
(-5.28434e-06 -2.42172e-06 0.085431)
(5.87932e-06 -1.54611e-06 0.0763123)
(1.15772e-05 -6.3482e-07 0.0912924)
(-4.48286e-06 -8.61127e-07 0.0897103)
(-2.45418e-06 -6.29798e-07 0.0781518)
(1.13604e-05 -7.13657e-07 0.0896702)
(5.25043e-06 -8.58862e-07 0.0781244)
(-2.0615e-06 -1.70488e-07 0.0763453)
(-1.95586e-06 4.70841e-07 0.0763532)
(5.25671e-06 1.06871e-06 0.0781311)
(1.14899e-05 9.84004e-07 0.0896834)
(-4.24143e-06 8.37924e-07 0.0913428)
(5.89134e-06 1.88242e-06 0.0763176)
(-2.37072e-06 8.46749e-07 0.0781605)
(-4.27142e-06 1.2836e-06 0.0897246)
(4.18108e-06 2.0809e-06 0.0677986)
(9.39875e-06 1.4464e-06 0.0816772)
(-5.22503e-06 2.77395e-06 0.0854215)
(7.99761e-06 2.12188e-06 0.0853749)
(-2.57443e-06 3.84141e-07 0.0678467)
(-2.50506e-06 5.53837e-07 0.067852)
(8.04465e-06 2.10998e-06 0.0853853)
(-5.64287e-06 3.75716e-06 0.0817283)
(4.24207e-06 2.19057e-06 0.0678038)
(-5.18496e-06 2.91147e-06 0.0854318)
(5.8782e-06 1.88001e-06 0.0763102)
(1.15793e-05 9.54798e-07 0.0912921)
(-2.3932e-06 8.26474e-07 0.0781525)
(-4.31799e-06 1.32205e-06 0.0897108)
(5.22375e-06 1.11466e-06 0.0781231)
(1.14324e-05 1.17956e-06 0.0896695)
(-1.98138e-06 3.85256e-07 0.0763458)
(3.50912e-06 -3.35095e-06 0.0708877)
(-3.13618e-06 1.28658e-06 0.0709351)
(-1.37076e-06 1.34404e-06 0.0832454)
(2.02208e-06 -3.1644e-06 0.0678373)
(3.15689e-06 -2.02377e-06 0.0678434)
(5.12829e-06 -5.15168e-06 0.0832143)
(-1.60663e-06 1.00414e-06 0.0678718)
(-1.00675e-06 1.60508e-06 0.0678782)
(1.41888e-05 -7.65319e-06 0.0914945)
(-3.32075e-06 -7.51489e-07 0.0964626)
(8.33251e-06 -5.78609e-06 0.0871486)
(-1.03828e-06 1.1596e-06 0.0810927)
(2.4571e-05 -1.58903e-05 0.0964157)
(7.01334e-06 -3.35282e-06 0.0810585)
(-5.56315e-06 5.86009e-07 0.0915323)
(7.62782e-06 -1.41791e-05 0.0915013)
(7.53802e-07 3.32368e-06 0.0964669)
(5.79118e-06 -8.32444e-06 0.0871504)
(-1.14344e-06 1.06303e-06 0.081099)