/*--------------------------------*- C++ -*----------------------------------*\
| =========                 |                                                 |
| \\      /  F ield         | OpenFOAM: The Open Source CFD Toolbox           |
|  \\    /   O peration     | Version:  v2012                                 |
|   \\  /    A nd           | Website:  www.openfoam.com                      |
|    \\/     M anipulation  |                                                 |
\*---------------------------------------------------------------------------*/
FoamFile
{
    version     2.0;
    format      ascii;
    class       volScalarField;
    location    "1350";
    object      epsilon;
}
// * * * * * * * * * * * * * * * * * * * * * * * * * * * * * * * * * * * * * //

dimensions      [0 2 -3 0 0 0 0];


internalField   nonuniform List<scalar> 
171728
(
1.63374e-09
3.33612e-09
4.54297e-09
5.24314e-09
1.58401e-09
3.06493e-09
4.20527e-09
5.61918e-09
1.48111e-09
2.80001e-09
3.89653e-09
5.20761e-09
1.38281e-09
2.57097e-09
3.64263e-09
4.14764e-09
1.27102e-09
2.37466e-09
3.43487e-09
3.48854e-09
1.16779e-09
2.2085e-09
3.27508e-09
3.1831e-09
1.07938e-09
2.07383e-09
3.15066e-09
2.98154e-09
9.89504e-10
1.96848e-09
3.05596e-09
2.79866e-09
9.0654e-10
1.89533e-09
2.98473e-09
2.62973e-09
8.40569e-10
1.8549e-09
2.88736e-09
2.49904e-09
7.89473e-10
1.84966e-09
2.7588e-09
2.42448e-09
7.42072e-10
1.87433e-09
2.67135e-09
2.40185e-09
6.99664e-10
1.94289e-09
2.6635e-09
2.41356e-09
6.58721e-10
2.05584e-09
2.68211e-09
2.45426e-09
6.30198e-10
2.23302e-09
2.70165e-09
2.61851e-09
6.1113e-10
2.51188e-09
2.80997e-09
2.94398e-09
5.92946e-10
2.94816e-09
3.11148e-09
3.4108e-09
5.7534e-10
3.67124e-09
3.77874e-09
3.98804e-09
5.62999e-10
4.7923e-09
4.95385e-09
5.1498e-09
5.55245e-10
6.59359e-09
6.43674e-09
7.53794e-09
5.58329e-10
8.88489e-09
9.04724e-09
1.09194e-08
5.67712e-10
1.24956e-08
1.22611e-08
1.77928e-08
5.97964e-10
1.78371e-08
1.71679e-08
2.7992e-08
6.32306e-10
2.35236e-08
2.3866e-08
4.67284e-08
7.19746e-10
3.31869e-08
3.25005e-08
7.16453e-08
8.42966e-10
4.40955e-08
4.46175e-08
1.08713e-07
9.84082e-10
5.87243e-08
5.77051e-08
1.58869e-07
1.28786e-09
7.50049e-08
7.6655e-08
2.16515e-07
1.64352e-09
9.47341e-08
9.70071e-08
2.93069e-07
2.07386e-09
1.16344e-07
1.14438e-07
3.6116e-07
2.96918e-09
1.52648e-07
1.45615e-07
4.42517e-07
3.80129e-09
1.71335e-07
1.80219e-07
5.3229e-07
4.94852e-09
1.9509e-07
2.02759e-07
5.67349e-07
6.96954e-09
2.47883e-07
2.40307e-07
6.49463e-07
8.92383e-09
2.78634e-07
2.77618e-07
7.15348e-07
1.20134e-08
3.20347e-07
3.23984e-07
7.56826e-07
1.62037e-08
3.67315e-07
3.66493e-07
8.00481e-07
1.8727e-08
3.99537e-07
4.04273e-07
8.44939e-07
2.61415e-08
4.58914e-07
4.60973e-07
8.76439e-07
3.40852e-08
5.06792e-07
5.03278e-07
9.10747e-07
3.96214e-08
5.47397e-07
5.49824e-07
9.51118e-07
5.04564e-08
6.03624e-07
6.05295e-07
9.78155e-07
6.31622e-08
6.45151e-07
6.50358e-07
1.00374e-06
7.41451e-08
6.92628e-07
6.8979e-07
1.03465e-06
8.97585e-08
7.42814e-07
7.48887e-07
1.06667e-06
1.11573e-07
7.86157e-07
7.83405e-07
1.0901e-06
1.24458e-07
8.25494e-07
8.21925e-07
1.11322e-06
1.49563e-07
8.63221e-07
8.77142e-07
1.14835e-06
1.73477e-07
9.09338e-07
9.0297e-07
1.17482e-06
1.94631e-07
9.36208e-07
9.27996e-07
1.18277e-06
2.2724e-07
9.62177e-07
9.68682e-07
1.20574e-06
2.54061e-07
1.0051e-06
1.00364e-06
1.24724e-06
2.8792e-07
1.03344e-06
1.03174e-06
1.26851e-06
3.20766e-07
1.04606e-06
1.04633e-06
1.28049e-06
3.45158e-07
1.07826e-06
1.07953e-06
1.29025e-06
3.79078e-07
1.1035e-06
1.10247e-06
1.30571e-06
4.14378e-07
1.11371e-06
1.11141e-06
1.33451e-06
4.36323e-07
1.13887e-06
1.13966e-06
1.36028e-06
4.74893e-07
1.16119e-06
1.16357e-06
1.36846e-06
5.05034e-07
1.16929e-06
1.17292e-06
1.3659e-06
5.23464e-07
1.18826e-06
1.18776e-06
1.3853e-06
5.49881e-07
1.20581e-06
1.21046e-06
1.41557e-06
5.79424e-07
1.22015e-06
1.22057e-06
1.42793e-06
6.07437e-07
1.23458e-06
1.22094e-06
1.42192e-06
6.19193e-07
1.23728e-06
1.23438e-06
1.42444e-06
6.36255e-07
1.25059e-06
1.25675e-06
1.45428e-06
6.57203e-07
1.27275e-06
1.27559e-06
1.48045e-06
6.82209e-07
1.27917e-06
1.27573e-06
1.47287e-06
6.95724e-07
1.27268e-06
1.26914e-06
1.45193e-06
7.02236e-07
1.28023e-06
1.28096e-06
1.46771e-06
7.16261e-07
1.30402e-06
1.3028e-06
1.50953e-06
7.38104e-07
1.31017e-06
1.30706e-06
1.51747e-06
7.56813e-07
1.3039e-06
1.3038e-06
1.4998e-06
7.6093e-07
1.30354e-06
1.30702e-06
1.49618e-06
7.59273e-07
1.30924e-06
1.31033e-06
1.50744e-06
7.70992e-07
1.31292e-06
1.31968e-06
1.5174e-06
7.94429e-07
1.32623e-06
1.32499e-06
1.52981e-06
8.01531e-07
1.33123e-06
1.3158e-06
1.52776e-06
7.94379e-07
1.31032e-06
1.31328e-06
1.51065e-06
7.95035e-07
1.30797e-06
1.32497e-06
1.52062e-06
8.11161e-07
1.33118e-06
1.32574e-06
1.53876e-06
8.1686e-07
1.32644e-06
1.31888e-06
1.53188e-06
8.11768e-07
1.31288e-06
1.31692e-06
1.52088e-06
8.0978e-07
1.31559e-06
1.31753e-06
1.52405e-06
8.12411e-07
1.31671e-06
1.31462e-06
1.52671e-06
8.12838e-07
1.31374e-06
1.31233e-06
1.53058e-06
8.12461e-07
1.30994e-06
1.30808e-06
1.52922e-06
8.09555e-07
1.29575e-06
1.30176e-06
1.51141e-06
8.04956e-07
1.29712e-06
1.30154e-06
1.51524e-06
8.03687e-07
1.3083e-06
1.30068e-06
1.53148e-06
8.01817e-07
1.28525e-06
1.28591e-06
1.50842e-06
7.8884e-07
1.26027e-06
1.26637e-06
1.47628e-06
7.84891e-07
1.27873e-06
1.27393e-06
1.50629e-06
7.93724e-07
1.29308e-06
1.2925e-06
1.53403e-06
7.65948e-07
1.20139e-06
1.20287e-06
1.4423e-06
5.1288e-09
5.72017e-09
2.81107e-09
4.05418e-09
4.11073e-09
3.97888e-09
1.58942e-09
1.22661e-09
1.39261e-09
2.12844e-09
3.4445e-09
3.46072e-09
4.54891e-09
3.76144e-09
1.11114e-08
5.32436e-09
5.06914e-09
4.73023e-09
6.94376e-09
4.29918e-09
6.67686e-09
4.02337e-09
4.03181e-09
3.65765e-09
5.7231e-09
6.67258e-09
5.43917e-09
6.26208e-09
4.32368e-09
3.13747e-09
4.18695e-09
4.50397e-09
4.15244e-09
3.88857e-08
4.29416e-09
3.72712e-08
5.71291e-09
4.66086e-09
4.39873e-09
6.56896e-09
3.92204e-09
6.26599e-09
3.63754e-09
3.62766e-09
3.26991e-09
5.33804e-09
6.10823e-09
5.06414e-09
5.68289e-09
4.13302e-09
2.86256e-09
3.99375e-09
4.08373e-09
3.80084e-09
3.62768e-08
3.96794e-09
2.93457e-08
5.48647e-09
4.3378e-09
4.1111e-09
6.17071e-09
3.54553e-09
5.89648e-09
3.2845e-09
3.24323e-09
2.93869e-09
4.9797e-09
5.54944e-09
4.7434e-09
5.17352e-09
3.95443e-09
2.62512e-09
3.84791e-09
3.74366e-09
3.49514e-09
2.57202e-08
3.70171e-09
1.44034e-08
4.30768e-09
4.05692e-09
3.85862e-09
5.81107e-09
3.20731e-09
5.55731e-09
3.02417e-09
2.91681e-09
2.67421e-09
4.66706e-09
5.04737e-09
4.4529e-09
4.66742e-09
3.81535e-09
2.42082e-09
3.71742e-09
3.44203e-09
3.22249e-09
1.13882e-08
3.48185e-09
6.05486e-09
3.54478e-09
3.80878e-09
3.62672e-09
5.47035e-09
2.97995e-09
5.19653e-09
2.88737e-09
2.65776e-09
2.47248e-09
4.38863e-09
4.5471e-09
4.21777e-09
4.17855e-09
3.68094e-09
2.2469e-09
3.533e-09
3.17934e-09
2.98721e-09
5.18233e-09
3.31252e-09
3.89114e-09
3.20074e-09
3.58264e-09
3.41306e-09
5.10284e-09
2.8691e-09
4.7923e-09
2.83828e-09
2.46096e-09
2.32911e-09
4.16976e-09
4.04598e-09
4.05069e-09
3.63775e-09
3.46828e-09
2.10458e-09
3.22761e-09
2.96402e-09
2.78775e-09
3.70036e-09
3.17829e-09
3.38339e-09
2.99602e-09
3.37986e-09
3.10714e-09
4.67296e-09
2.8315e-09
4.21764e-09
2.8289e-09
2.32304e-09
2.2312e-09
4.01713e-09
3.501e-09
3.90154e-09
3.09477e-09
3.13095e-09
1.99128e-09
2.82796e-09
2.77218e-09
2.61671e-09
3.31999e-09
3.07686e-09
3.20545e-09
2.81121e-09
3.07683e-09
2.8435e-09
4.03479e-09
2.83166e-09
3.45865e-09
2.85977e-09
2.22913e-09
2.16624e-09
3.85048e-09
2.96655e-09
3.67694e-09
2.61777e-09
2.7227e-09
1.91053e-09
2.4525e-09
2.60399e-09
2.44432e-09
3.1827e-09
3.00361e-09
3.13809e-09
2.63647e-09
2.82817e-09
2.64518e-09
3.28679e-09
2.87176e-09
2.84304e-09
2.90166e-09
2.16647e-09
2.11402e-09
3.62103e-09
2.5144e-09
3.47552e-09
2.24444e-09
2.37147e-09
1.86323e-09
2.11983e-09
2.43391e-09
2.28919e-09
3.13426e-09
2.91508e-09
3.13687e-09
2.49979e-09
2.63437e-09
2.46608e-09
2.70758e-09
2.90884e-09
2.44031e-09
2.92314e-09
2.11706e-09
2.0823e-09
3.43863e-09
2.16823e-09
3.35826e-09
1.99982e-09
2.06664e-09
1.84857e-09
1.94853e-09
2.28435e-09
2.17205e-09
3.14233e-09
2.79182e-09
3.19948e-09
2.41942e-09
2.46148e-09
2.3295e-09
2.37997e-09
2.92362e-09
2.1516e-09
2.8937e-09
2.08962e-09
2.06509e-09
3.34262e-09
1.96065e-09
3.32027e-09
1.89353e-09
1.90927e-09
1.86641e-09
1.86125e-09
2.17343e-09
2.10256e-09
3.23297e-09
2.6852e-09
3.38415e-09
2.38744e-09
2.33039e-09
2.2068e-09
2.08727e-09
2.87311e-09
2.02112e-09
2.83328e-09
2.07685e-09
2.06788e-09
3.30364e-09
1.88927e-09
3.2007e-09
1.89716e-09
1.86304e-09
1.9272e-09
1.92866e-09
2.11091e-09
2.07706e-09
3.44603e-09
2.65959e-09
3.65521e-09
2.39371e-09
2.21304e-09
2.15105e-09
2.02566e-09
2.83348e-09
2.04703e-09
2.85323e-09
2.08773e-09
2.11017e-09
3.14826e-09
1.91518e-09
3.00023e-09
2.01493e-09
1.94861e-09
2.02489e-09
1.99927e-09
2.09334e-09
2.08229e-09
3.72381e-09
2.67566e-09
3.92219e-09
2.42255e-09
2.17401e-09
2.18742e-09
2.02354e-09
2.88275e-09
1.99773e-09
3.02262e-09
2.14221e-09
2.22318e-09
2.96446e-09
2.05525e-09
2.96087e-09
2.22404e-09
2.02326e-09
2.18465e-09
2.14009e-09
2.10751e-09
2.14007e-09
3.99517e-09
2.69175e-09
4.23795e-09
2.55205e-09
2.23612e-09
2.38494e-09
2.01039e-09
3.0992e-09
2.24956e-09
3.40405e-09
2.27855e-09
2.43653e-09
2.97672e-09
2.29487e-09
3.13622e-09
2.54161e-09
2.1983e-09
2.43238e-09
2.39008e-09
2.18528e-09
2.29935e-09
4.34564e-09
2.77804e-09
4.66339e-09
2.83821e-09
2.48073e-09
2.78096e-09
2.35883e-09
3.53256e-09
2.73296e-09
3.99161e-09
2.53074e-09
2.81997e-09
3.21499e-09
2.64395e-09
3.56984e-09
2.98946e-09
2.47878e-09
2.82357e-09
2.8324e-09
2.38062e-09
2.62761e-09
4.79528e-09
3.02065e-09
5.31414e-09
3.25883e-09
2.93682e-09
3.43615e-09
2.87454e-09
4.16944e-09
3.41832e-09
4.91622e-09
2.97313e-09
3.50416e-09
3.7102e-09
3.1451e-09
4.23352e-09
3.6741e-09
2.96868e-09
3.47198e-09
3.4506e-09
2.77337e-09
3.25618e-09
5.44762e-09
3.55895e-09
5.87818e-09
3.78285e-09
3.69257e-09
4.54162e-09
3.63637e-09
5.19928e-09
4.43568e-09
6.20903e-09
3.77089e-09
4.71043e-09
4.45997e-09
3.84748e-09
5.21636e-09
4.71029e-09
3.65085e-09
4.5045e-09
4.48502e-09
3.50093e-09
4.30621e-09
6.08649e-09
4.59378e-09
6.54102e-09
4.74427e-09
4.95466e-09
6.43113e-09
4.77979e-09
6.61728e-09
5.99811e-09
7.96026e-09
5.13831e-09
6.73533e-09
5.48305e-09
5.04246e-09
6.56816e-09
5.94501e-09
4.81416e-09
6.01732e-09
5.98566e-09
4.7051e-09
6.06968e-09
6.62641e-09
5.98244e-09
7.73942e-09
6.78548e-09
7.11743e-09
9.97545e-09
6.48098e-09
8.56652e-09
8.2652e-09
1.07193e-08
7.47786e-09
1.03913e-08
6.99055e-09
6.52264e-09
8.685e-09
8.34538e-09
6.46967e-09
8.2555e-09
8.15204e-09
6.75908e-09
9.70988e-09
8.34549e-09
8.35632e-09
1.02324e-08
9.91441e-09
1.11661e-08
1.54902e-08
8.96107e-09
1.13725e-08
1.15028e-08
1.38485e-08
1.1647e-08
1.61756e-08
9.48153e-09
8.9357e-09
1.19145e-08
1.15882e-08
8.85251e-09
1.14645e-08
1.14826e-08
1.08286e-08
1.56555e-08
1.08565e-08
1.13242e-08
1.2853e-08
1.59069e-08
1.72649e-08
2.55656e-08
1.252e-08
1.5211e-08
1.59724e-08
1.88361e-08
1.77137e-08
2.72403e-08
1.27897e-08
1.2532e-08
1.62431e-08
1.6495e-08
1.24812e-08
1.63128e-08
1.60158e-08
1.74516e-08
2.44782e-08
1.36169e-08
1.56873e-08
1.67832e-08
2.51265e-08
2.84141e-08
4.13276e-08
1.74429e-08
2.04399e-08
2.23225e-08
2.55589e-08
3.09573e-08
4.27218e-08
1.77192e-08
1.84482e-08
2.22715e-08
2.41679e-08
1.73645e-08
2.19537e-08
2.22294e-08
2.7576e-08
4.24999e-08
1.81083e-08
2.21383e-08
2.29846e-08
4.23268e-08
4.57966e-08
6.55739e-08
2.40689e-08
2.69887e-08
3.05443e-08
3.36226e-08
4.58974e-08
6.5983e-08
2.39185e-08
2.5852e-08
3.00918e-08
3.17116e-08
2.41268e-08
3.04173e-08
3.03291e-08
4.62166e-08
6.34124e-08
2.486e-08
3.01625e-08
3.08566e-08
6.56936e-08
7.13751e-08
1.00045e-07
3.30901e-08
3.67809e-08
4.13973e-08
4.44708e-08
7.3461e-08
1.03711e-07
3.25323e-08
3.45361e-08
4.10904e-08
4.57203e-08
3.26436e-08
4.14513e-08
4.1482e-08
6.97095e-08
1.00774e-07
3.30969e-08
4.10643e-08
4.191e-08
9.99691e-08
1.08637e-07
1.47081e-07
4.44606e-08
4.69365e-08
5.48258e-08
5.57965e-08
1.10654e-07
1.43471e-07
4.43272e-08
5.02219e-08
5.47677e-08
6.04282e-08
4.47422e-08
5.4317e-08
5.45812e-08
1.10055e-07
1.51286e-07
4.51929e-08
5.48806e-08
5.47696e-08
1.48623e-07
1.57851e-07
2.04748e-07
5.8509e-08
5.94955e-08
7.04107e-08
7.27691e-08
1.54939e-07
2.09786e-07
5.83753e-08
6.35599e-08
7.01401e-08
7.71491e-08
5.82738e-08
7.09955e-08
7.05264e-08
1.60919e-07
2.05019e-07
5.83646e-08
7.08238e-08
7.07487e-08
2.03347e-07
2.16764e-07
2.7324e-07
7.49087e-08
7.7932e-08
9.13917e-08
9.45044e-08
2.22388e-07
2.69231e-07
7.45491e-08
8.23993e-08
9.01801e-08
9.66839e-08
7.50795e-08
8.98203e-08
9.11678e-08
2.20538e-07
2.88575e-07
7.53363e-08
9.33381e-08
9.13236e-08
2.77605e-07
2.89237e-07
3.49109e-07
9.69938e-08
9.86666e-08
1.1059e-07
1.13526e-07
2.82816e-07
3.44076e-07
9.571e-08
9.95874e-08
1.10309e-07
1.06848e-07
9.71188e-08
1.09244e-07
1.10794e-07
3.01053e-07
3.29024e-07
9.71871e-08
1.09442e-07
1.10823e-07
3.48739e-07
3.62557e-07
4.23599e-07
1.15507e-07
1.22547e-07
1.37693e-07
1.54491e-07
3.60775e-07
4.49995e-07
1.1539e-07
1.12855e-07
1.36941e-07
1.43532e-07
1.15199e-07
1.43584e-07
1.36905e-07
3.43159e-07
4.27989e-07
1.15264e-07
1.36245e-07
1.36525e-07
4.21299e-07
4.42324e-07
5.06484e-07
1.46807e-07
1.64158e-07
1.69005e-07
1.75537e-07
4.70298e-07
5.052e-07
1.45474e-07
1.56187e-07
1.67513e-07
1.86071e-07
1.46537e-07
1.69284e-07
1.73583e-07
4.51328e-07
5.22905e-07
1.46079e-07
1.73295e-07
1.73585e-07
5.19393e-07
5.19499e-07
5.62246e-07
1.73507e-07
1.74218e-07
1.91813e-07
1.7714e-07
5.07875e-07
5.31159e-07
1.73868e-07
1.9121e-07
1.94739e-07
1.98815e-07
1.79323e-07
1.84137e-07
1.90084e-07
5.35139e-07
5.66206e-07
1.7964e-07
1.95877e-07
1.91138e-07
5.56806e-07
5.77623e-07
6.37897e-07
2.00647e-07
1.90623e-07
2.33844e-07
2.4485e-07
5.52042e-07
6.46609e-07
2.02468e-07
2.01667e-07
2.29895e-07
2.25554e-07
1.97462e-07
2.34864e-07
2.3002e-07
5.76912e-07
6.28786e-07
1.98063e-07
2.30562e-07
2.29104e-07
6.30332e-07
6.53629e-07
6.93559e-07
2.45341e-07
2.60759e-07
2.71596e-07
2.86989e-07
6.65346e-07
6.97963e-07
2.40334e-07
2.36329e-07
2.69705e-07
2.70576e-07
2.41806e-07
2.72461e-07
2.74279e-07
6.45512e-07
6.94158e-07
2.40603e-07
2.68433e-07
2.7385e-07
7.0347e-07
7.05393e-07
7.46657e-07
2.79076e-07
2.91292e-07
3.08875e-07
3.1224e-07
7.06792e-07
7.42849e-07
2.78517e-07
2.82178e-07
3.09094e-07
3.17133e-07
2.82936e-07
3.0739e-07
3.10912e-07
7.06925e-07
7.46514e-07
2.83244e-07
3.11115e-07
3.11917e-07
7.45565e-07
7.60094e-07
7.93127e-07
3.21786e-07
3.23037e-07
3.59135e-07
3.57237e-07
7.57202e-07
7.93509e-07
3.21633e-07
3.29221e-07
3.58264e-07
3.61385e-07
3.21471e-07
3.58183e-07
3.52101e-07
7.59951e-07
7.93921e-07
3.22071e-07
3.57941e-07
3.51612e-07
7.88916e-07
8.02168e-07
8.22975e-07
3.68125e-07
3.6697e-07
3.89614e-07
3.90598e-07
8.02923e-07
8.24184e-07
3.67266e-07
3.69615e-07
3.89119e-07
3.93917e-07
3.62017e-07
3.894e-07
3.96964e-07
8.03479e-07
8.27286e-07
3.61692e-07
3.92579e-07
3.97698e-07
8.3435e-07
8.33089e-07
8.70344e-07
3.99085e-07
4.00664e-07
4.41914e-07
4.42892e-07
8.34386e-07
8.70267e-07
3.98711e-07
4.0457e-07
4.41297e-07
4.45581e-07
4.10742e-07
4.43053e-07
4.4735e-07
8.37882e-07
8.7154e-07
4.11619e-07
4.47471e-07
4.48111e-07
8.6849e-07
8.82078e-07
9.08464e-07
4.58572e-07
4.58244e-07
5.00626e-07
4.97686e-07
8.818e-07
9.0834e-07
4.5753e-07
4.59667e-07
4.97875e-07
4.96948e-07
4.56375e-07
4.97568e-07
4.84357e-07
8.82291e-07
9.06844e-07
4.56619e-07
4.9312e-07
4.82478e-07
9.00224e-07
9.15745e-07
9.3374e-07
5.09855e-07
5.0783e-07
5.36506e-07
5.37693e-07
9.15826e-07
9.34597e-07
5.07071e-07
5.08101e-07
5.3476e-07
5.38725e-07
4.97497e-07
5.35533e-07
5.44601e-07
9.1467e-07
9.3437e-07
4.9506e-07
5.37155e-07
5.43654e-07
9.41669e-07
9.42371e-07
9.687e-07
5.47826e-07
5.49109e-07
5.87782e-07
5.89714e-07
9.43409e-07
9.6974e-07
5.46253e-07
5.49082e-07
5.85826e-07
5.88084e-07
5.60208e-07
5.89604e-07
5.93383e-07
9.43204e-07
9.71205e-07
5.61002e-07
5.91211e-07
6.0085e-07
9.71428e-07
9.77835e-07
1.00021e-06
6.01155e-07
6.03575e-07
6.38331e-07
6.36636e-07
9.78426e-07
9.97474e-07
5.99606e-07
6.04003e-07
6.40535e-07
6.47813e-07
6.01834e-07
6.36268e-07
6.32327e-07
9.80516e-07
1.00181e-06
6.09403e-07
6.41423e-07
6.33026e-07
9.96074e-07
1.00744e-06
1.02484e-06
6.50324e-07
6.45717e-07
6.81981e-07
6.79574e-07
1.00425e-06
1.02465e-06
6.52246e-07
6.57963e-07
6.79194e-07
6.82528e-07
6.44341e-07
6.78567e-07
6.82843e-07
1.00828e-06
1.02509e-06
6.42308e-07
6.77336e-07
6.77907e-07
1.0263e-06
1.03205e-06
1.0568e-06
6.9193e-07
6.93617e-07
7.29131e-07
7.32882e-07
1.03303e-06
1.05726e-06
6.88662e-07
6.92424e-07
7.28496e-07
7.28501e-07
6.95764e-07
7.32159e-07
7.34343e-07
1.03284e-06
1.05606e-06
6.91881e-07
7.34656e-07
7.34877e-07
1.059e-06
1.0655e-06
1.08597e-06
7.43671e-07
7.43306e-07
7.79627e-07
7.74241e-07
1.06472e-06
1.08416e-06
7.43735e-07
7.40027e-07
7.79323e-07
7.6837e-07
7.46474e-07
7.74505e-07
7.75981e-07
1.06341e-06
1.07996e-06
7.47605e-07
7.77416e-07
7.76617e-07
1.08452e-06
1.09131e-06
1.1057e-06
7.87489e-07
7.85868e-07
8.10585e-07
8.17788e-07
1.09118e-06
1.11018e-06
7.86491e-07
7.77652e-07
8.0962e-07
8.17176e-07
7.8426e-07
8.17515e-07
8.12185e-07
1.08589e-06
1.10774e-06
7.84313e-07
8.08754e-07
8.098e-07
1.10595e-06
1.11314e-06
1.13956e-06
8.21429e-07
8.26073e-07
8.59768e-07
8.53101e-07
1.11633e-06
1.13368e-06
8.21113e-07
8.33425e-07
8.61124e-07
8.7761e-07
8.23133e-07
8.51632e-07
8.58894e-07
1.117e-06
1.14897e-06
8.20628e-07
8.6463e-07
8.59458e-07
1.14011e-06
1.14678e-06
1.16083e-06
8.70967e-07
8.64801e-07
8.93407e-07
8.99559e-07
1.14099e-06
1.16521e-06
8.72837e-07
8.87377e-07
8.95021e-07
9.02239e-07
8.71134e-07
8.99521e-07
9.04709e-07
1.15663e-06
1.16824e-06
8.72663e-07
8.9933e-07
9.0474e-07
1.16968e-06
1.16534e-06
1.18142e-06
8.99952e-07
9.08487e-07
9.27049e-07
9.28788e-07
1.17191e-06
1.18547e-06
9.0055e-07
9.04226e-07
9.24134e-07
9.17002e-07
9.12963e-07
9.30552e-07
9.26084e-07
1.1708e-06
1.17583e-06
9.11428e-07
9.18618e-07
9.221e-07
1.17997e-06
1.18857e-06
1.21017e-06
9.37477e-07
9.35085e-07
9.6379e-07
9.5589e-07
1.18983e-06
1.20342e-06
9.34139e-07
9.25857e-07
9.6253e-07
9.5776e-07
9.29472e-07
9.54193e-07
9.51023e-07
1.18125e-06
1.20519e-06
9.25572e-07
9.59407e-07
9.49233e-07
1.19701e-06
1.21613e-06
1.23117e-06
9.70153e-07
9.64303e-07
9.89781e-07
9.94915e-07
1.20985e-06
1.23461e-06
9.69913e-07
9.67643e-07
9.90246e-07
9.95425e-07
9.61993e-07
9.93986e-07
9.97841e-07
1.213e-06
1.23652e-06
9.6176e-07
9.95134e-07
1.00168e-06
1.23937e-06
1.23722e-06
1.25802e-06
9.98369e-07
1.00527e-06
1.02711e-06
1.02813e-06
1.24208e-06
1.25948e-06
9.98559e-07
1.00379e-06
1.02682e-06
1.02774e-06
1.00874e-06
1.02925e-06
1.0327e-06
1.24288e-06
1.25918e-06
1.01251e-06
1.02675e-06
1.03144e-06
1.2641e-06
1.26396e-06
1.275e-06
1.03482e-06
1.03237e-06
1.04811e-06
1.04133e-06
1.26343e-06
1.26882e-06
1.03457e-06
1.03406e-06
1.04831e-06
1.04573e-06
1.03812e-06
1.04163e-06
1.04914e-06
1.26378e-06
1.27075e-06
1.03479e-06
1.04142e-06
1.04563e-06
1.27693e-06
1.27853e-06
1.28948e-06
1.05144e-06
1.04597e-06
1.06691e-06
1.06962e-06
1.27287e-06
1.29116e-06
1.05178e-06
1.0493e-06
1.06693e-06
1.06848e-06
1.05243e-06
1.06934e-06
1.06386e-06
1.27473e-06
1.29232e-06
1.05087e-06
1.07085e-06
1.06894e-06
1.28681e-06
1.29526e-06
1.31298e-06
1.07382e-06
1.07871e-06
1.09598e-06
1.10035e-06
1.29826e-06
1.31673e-06
1.07362e-06
1.07683e-06
1.09583e-06
1.09903e-06
1.06831e-06
1.09974e-06
1.08561e-06
1.29909e-06
1.31538e-06
1.07412e-06
1.0992e-06
1.08699e-06
1.3004e-06
1.31821e-06
1.32727e-06
1.10241e-06
1.10399e-06
1.11422e-06
1.11032e-06
1.32087e-06
1.32525e-06
1.10249e-06
1.10371e-06
1.11515e-06
1.11104e-06
1.09293e-06
1.11011e-06
1.11758e-06
1.31917e-06
1.3235e-06
1.09169e-06
1.10797e-06
1.11018e-06
1.32722e-06
1.33054e-06
1.33943e-06
1.11647e-06
1.11347e-06
1.12846e-06
1.12977e-06
1.32874e-06
1.34161e-06
1.11708e-06
1.1141e-06
1.12798e-06
1.1321e-06
1.12579e-06
1.13186e-06
1.14548e-06
1.32724e-06
1.3435e-06
1.11746e-06
1.13166e-06
1.13938e-06
1.35502e-06
1.34505e-06
1.36433e-06
1.13531e-06
1.13663e-06
1.15742e-06
1.15661e-06
1.3473e-06
1.36273e-06
1.13492e-06
1.13956e-06
1.15756e-06
1.15831e-06
1.14968e-06
1.15725e-06
1.15534e-06
1.35001e-06
1.36598e-06
1.14559e-06
1.15925e-06
1.1583e-06
1.36681e-06
1.36976e-06
1.37556e-06
1.16323e-06
1.16143e-06
1.17138e-06
1.16938e-06
1.36704e-06
1.37259e-06
1.16356e-06
1.16227e-06
1.17194e-06
1.16869e-06
1.15579e-06
1.16695e-06
1.15721e-06
1.36999e-06
1.37332e-06
1.1605e-06
1.17081e-06
1.16461e-06
1.3639e-06
1.37754e-06
1.38298e-06
1.17285e-06
1.17174e-06
1.18202e-06
1.18333e-06
1.37569e-06
1.38512e-06
1.17304e-06
1.17119e-06
1.18156e-06
1.18254e-06
1.15952e-06
1.18261e-06
1.17975e-06
1.37626e-06
1.38469e-06
1.16646e-06
1.18283e-06
1.17788e-06
1.37837e-06
1.38693e-06
1.39726e-06
1.18593e-06
1.1882e-06
1.19729e-06
1.20009e-06
1.38994e-06
1.40157e-06
1.18496e-06
1.18712e-06
1.19632e-06
1.20247e-06
1.18826e-06
1.20277e-06
1.21145e-06
1.38951e-06
1.40442e-06
1.18383e-06
1.20513e-06
1.20544e-06
1.40929e-06
1.40178e-06
1.41634e-06
1.20136e-06
1.20261e-06
1.21742e-06
1.21402e-06
1.4052e-06
1.41313e-06
1.20127e-06
1.20744e-06
1.21917e-06
1.21747e-06
1.21697e-06
1.21565e-06
1.22381e-06
1.40949e-06
1.41733e-06
1.2124e-06
1.21973e-06
1.22524e-06
1.42589e-06
1.42181e-06
1.43179e-06
1.22337e-06
1.21966e-06
1.23564e-06
1.23438e-06
1.41767e-06
1.42889e-06
1.22468e-06
1.21908e-06
1.23402e-06
1.2245e-06
1.2242e-06
1.23216e-06
1.22419e-06
1.41943e-06
1.41739e-06
1.22642e-06
1.2207e-06
1.22441e-06
1.4209e-06
1.43407e-06
1.4322e-06
1.23723e-06
1.23721e-06
1.23815e-06
1.23925e-06
1.43232e-06
1.43224e-06
1.23494e-06
1.2278e-06
1.23612e-06
1.23951e-06
1.22431e-06
1.23684e-06
1.22956e-06
1.41984e-06
1.42785e-06
1.22336e-06
1.23003e-06
1.22392e-06
1.42033e-06
1.43474e-06
1.44269e-06
1.2384e-06
1.23929e-06
1.24769e-06
1.2458e-06
1.43416e-06
1.44193e-06
1.23788e-06
1.24275e-06
1.24944e-06
1.24898e-06
1.23307e-06
1.24571e-06
1.24942e-06
1.4323e-06
1.44489e-06
1.22775e-06
1.25039e-06
1.25295e-06
1.4462e-06
1.44675e-06
1.45634e-06
1.25077e-06
1.2504e-06
1.26124e-06
1.26636e-06
1.44699e-06
1.46297e-06
1.25207e-06
1.25157e-06
1.26086e-06
1.2648e-06
1.25644e-06
1.26792e-06
1.27439e-06
1.44994e-06
1.46443e-06
1.26161e-06
1.27255e-06
1.28043e-06
1.47623e-06
1.4606e-06
1.47138e-06
1.26584e-06
1.27113e-06
1.2782e-06
1.27837e-06
1.468e-06
1.4736e-06
1.26507e-06
1.26949e-06
1.27726e-06
1.27768e-06
1.27771e-06
1.27928e-06
1.27909e-06
1.46901e-06
1.47193e-06
1.28265e-06
1.27751e-06
1.27764e-06
1.47287e-06
1.47492e-06
1.47376e-06
1.28045e-06
1.27858e-06
1.28102e-06
1.2752e-06
1.47485e-06
1.46541e-06
1.27971e-06
1.27819e-06
1.28094e-06
1.2763e-06
1.27598e-06
1.27376e-06
1.26648e-06
1.47304e-06
1.46476e-06
1.27228e-06
1.26991e-06
1.26036e-06
1.45134e-06
1.47499e-06
1.47399e-06
1.27986e-06
1.27446e-06
1.27929e-06
1.27688e-06
1.46648e-06
1.46999e-06
1.28012e-06
1.27593e-06
1.28008e-06
1.27981e-06
1.26491e-06
1.2745e-06
1.2692e-06
1.46602e-06
1.4723e-06
1.25851e-06
1.27432e-06
1.26593e-06
1.45923e-06
1.47679e-06
1.48416e-06
1.28075e-06
1.28174e-06
1.29019e-06
1.29671e-06
1.47537e-06
1.4942e-06
1.28158e-06
1.28377e-06
1.2878e-06
1.29442e-06
1.27839e-06
1.29915e-06
1.30436e-06
1.47783e-06
1.49386e-06
1.27643e-06
1.29854e-06
1.30392e-06
1.50193e-06
1.4883e-06
1.49941e-06
1.2939e-06
1.30082e-06
1.30459e-06
1.30693e-06
1.49961e-06
1.50575e-06
1.29093e-06
1.29732e-06
1.30318e-06
1.30299e-06
1.31068e-06
1.31053e-06
1.31747e-06
1.4984e-06
1.50177e-06
1.31039e-06
1.30746e-06
1.31631e-06
1.51672e-06
1.50371e-06
1.51124e-06
1.3073e-06
1.3071e-06
1.31201e-06
1.30573e-06
1.50705e-06
1.50051e-06
1.30726e-06
1.30414e-06
1.31525e-06
1.30647e-06
1.31574e-06
1.30497e-06
1.30283e-06
1.50315e-06
1.50006e-06
1.31386e-06
1.30411e-06
1.30248e-06
1.49933e-06
1.51376e-06
1.508e-06
1.31247e-06
1.30552e-06
1.31066e-06
1.307e-06
1.50174e-06
1.5004e-06
1.31604e-06
1.30719e-06
1.31249e-06
1.30874e-06
1.29999e-06
1.30302e-06
1.297e-06
1.50171e-06
1.50243e-06
1.30037e-06
1.30555e-06
1.29954e-06
1.49325e-06
1.50867e-06
1.49494e-06
1.30861e-06
1.30797e-06
1.30333e-06
1.30915e-06
1.50252e-06
1.50454e-06
1.30884e-06
1.30885e-06
1.30016e-06
1.30827e-06
1.29812e-06
1.30806e-06
1.30765e-06
1.5045e-06
1.50553e-06
1.30235e-06
1.30944e-06
1.3105e-06
1.50385e-06
1.49586e-06
1.50117e-06
1.30248e-06
1.30915e-06
1.30577e-06
1.30885e-06
1.50682e-06
1.50878e-06
1.29876e-06
1.30824e-06
1.3032e-06
1.31466e-06
1.31006e-06
1.31164e-06
1.31567e-06
1.50804e-06
1.51681e-06
1.31202e-06
1.3169e-06
1.31469e-06
1.51402e-06
1.50783e-06
1.52991e-06
1.3116e-06
1.30943e-06
1.32698e-06
1.32229e-06
1.51161e-06
1.52269e-06
1.3106e-06
1.31879e-06
1.32845e-06
1.32696e-06
1.31771e-06
1.32249e-06
1.3249e-06
1.5215e-06
1.52932e-06
1.31614e-06
1.32488e-06
1.32428e-06
1.52619e-06
1.5352e-06
1.5329e-06
1.33039e-06
1.32684e-06
1.33179e-06
1.33339e-06
1.52785e-06
1.53577e-06
1.33206e-06
1.32757e-06
1.33194e-06
1.32037e-06
1.32679e-06
1.33181e-06
1.32753e-06
1.53086e-06
1.51602e-06
1.32623e-06
1.31834e-06
1.32615e-06
1.52727e-06
1.53311e-06
1.51195e-06
1.32782e-06
1.33267e-06
1.31426e-06
1.31533e-06
1.53682e-06
1.51371e-06
1.32636e-06
1.31674e-06
1.31229e-06
1.31088e-06
1.32452e-06
1.31509e-06
1.31203e-06
1.5164e-06
1.50808e-06
1.3224e-06
1.3126e-06
1.31215e-06
1.50997e-06
1.51245e-06
1.51304e-06
1.31149e-06
1.31041e-06
1.31085e-06
1.30544e-06
1.51372e-06
1.50496e-06
1.30967e-06
1.31087e-06
1.31029e-06
1.31969e-06
1.30957e-06
1.30539e-06
1.31033e-06
1.51148e-06
1.52517e-06
1.31051e-06
1.32283e-06
1.31407e-06
1.51464e-06
1.5182e-06
1.53142e-06
1.31533e-06
1.30821e-06
1.32739e-06
1.32795e-06
1.51005e-06
1.53232e-06
1.31512e-06
1.32239e-06
1.32562e-06
1.32582e-06
1.31599e-06
1.32757e-06
1.32891e-06
1.52975e-06
1.5323e-06
1.31911e-06
1.32695e-06
1.3287e-06
1.53539e-06
1.535e-06
1.53162e-06
1.32947e-06
1.33158e-06
1.3284e-06
1.33207e-06
1.53773e-06
1.53645e-06
1.32739e-06
1.32546e-06
1.32626e-06
1.32061e-06
1.33091e-06
1.33166e-06
1.3278e-06
1.53338e-06
1.5238e-06
1.32989e-06
1.32015e-06
1.32532e-06
1.53132e-06
1.53254e-06
1.52357e-06
1.325e-06
1.32694e-06
1.31696e-06
1.31527e-06
1.5368e-06
1.52032e-06
1.32372e-06
1.31946e-06
1.31783e-06
1.3179e-06
1.32356e-06
1.31461e-06
1.31458e-06
1.5249e-06
1.52319e-06
1.32208e-06
1.31691e-06
1.31502e-06
1.5197e-06
1.52478e-06
1.52321e-06
1.31535e-06
1.3135e-06
1.31409e-06
1.3141e-06
1.52124e-06
1.52153e-06
1.31667e-06
1.318e-06
1.31556e-06
1.31852e-06
1.31314e-06
1.31387e-06
1.31382e-06
1.52552e-06
1.52768e-06
1.31392e-06
1.31757e-06
1.31457e-06
1.52154e-06
1.52512e-06
1.52383e-06
1.31473e-06
1.31566e-06
1.31549e-06
1.31679e-06
1.5245e-06
1.52675e-06
1.31552e-06
1.31843e-06
1.3146e-06
1.31544e-06
1.31513e-06
1.317e-06
1.31645e-06
1.52958e-06
1.52533e-06
1.3153e-06
1.31553e-06
1.31567e-06
1.52507e-06
1.52519e-06
1.52178e-06
1.31534e-06
1.31635e-06
1.31233e-06
1.31289e-06
1.5283e-06
1.52461e-06
1.31353e-06
1.31417e-06
1.31083e-06
1.31117e-06
1.31649e-06
1.3141e-06
1.31651e-06
1.52658e-06
1.52238e-06
1.31545e-06
1.31268e-06
1.31553e-06
1.52799e-06
1.52337e-06
1.52271e-06
1.31161e-06
1.31231e-06
1.30971e-06
1.3106e-06
1.52623e-06
1.52385e-06
1.31041e-06
1.31059e-06
1.30958e-06
1.30879e-06
1.31678e-06
1.31215e-06
1.31541e-06
1.52398e-06
1.52118e-06
1.3159e-06
1.30987e-06
1.31476e-06
1.52854e-06
1.52437e-06
1.51966e-06
1.30892e-06
1.3088e-06
1.3043e-06
1.2998e-06
1.52489e-06
1.51166e-06
1.3093e-06
1.30786e-06
1.30568e-06
1.30418e-06
1.31168e-06
1.29847e-06
1.29765e-06
1.52243e-06
1.517e-06
1.31135e-06
1.3027e-06
1.29863e-06
1.51083e-06
1.52096e-06
1.51697e-06
1.30285e-06
1.29757e-06
1.29943e-06
1.29583e-06
1.51245e-06
1.5109e-06
1.30442e-06
1.30341e-06
1.29995e-06
1.30156e-06
1.29467e-06
1.29385e-06
1.29309e-06
1.51845e-06
1.51925e-06
1.29616e-06
1.30109e-06
1.29529e-06
1.51009e-06
1.51858e-06
1.51579e-06
1.29907e-06
1.29827e-06
1.29861e-06
1.30642e-06
1.51574e-06
1.52923e-06
1.29905e-06
1.30121e-06
1.29568e-06
1.29809e-06
1.29702e-06
1.30739e-06
1.30696e-06
1.52154e-06
1.51952e-06
1.29884e-06
1.30141e-06
1.30585e-06
1.52842e-06
1.51724e-06
1.50963e-06
1.29853e-06
1.30715e-06
1.29333e-06
1.29533e-06
1.53264e-06
1.51356e-06
1.29516e-06
1.29724e-06
1.29132e-06
1.29096e-06
1.30769e-06
1.29505e-06
1.29319e-06
1.52077e-06
1.50853e-06
1.30614e-06
1.29067e-06
1.291e-06
1.51005e-06
1.51032e-06
1.49246e-06
1.28898e-06
1.28637e-06
1.27262e-06
1.26467e-06
1.51195e-06
1.47785e-06
1.28862e-06
1.28762e-06
1.27528e-06
1.27304e-06
1.28355e-06
1.26308e-06
1.26239e-06
1.5089e-06
1.48803e-06
1.28245e-06
1.26958e-06
1.26284e-06
1.47565e-06
1.49304e-06
1.49221e-06
1.2691e-06
1.26152e-06
1.26699e-06
1.26719e-06
1.47827e-06
1.49133e-06
1.27211e-06
1.2697e-06
1.26909e-06
1.26728e-06
1.26008e-06
1.26917e-06
1.27229e-06
1.48854e-06
1.48976e-06
1.2606e-06
1.26633e-06
1.27167e-06
1.49577e-06
1.49826e-06
1.5158e-06
1.27234e-06
1.2767e-06
1.28614e-06
1.29126e-06
1.50081e-06
1.52435e-06
1.27248e-06
1.27199e-06
1.28413e-06
1.28743e-06
1.28233e-06
1.29236e-06
1.29615e-06
1.4971e-06
1.52068e-06
1.28182e-06
1.29069e-06
1.29647e-06
1.53179e-06
1.51897e-06
1.47377e-06
1.28759e-06
1.2924e-06
1.25052e-06
1.25043e-06
1.52715e-06
1.47671e-06
1.28532e-06
1.28919e-06
1.24805e-06
1.25139e-06
1.29649e-06
1.24785e-06
1.24471e-06
1.52477e-06
1.47875e-06
1.29706e-06
1.25187e-06
1.24541e-06
1.4724e-06
1.44544e-06
1.20306e-06
1.20336e-06
1.44801e-06
1.20123e-06
1.20296e-06
7.6613e-07
7.66744e-07
7.62287e-07
1.19756e-06
1.44859e-06
1.19766e-06
8.26931e-11
2.91221e-09
1.2755e-10
1.97914e-10
5.6158e-09
3.46524e-09
2.80309e-09
9.58945e-10
5.46589e-09
4.04633e-09
1.09453e-09
1.11163e-08
5.41442e-09
8.41424e-09
2.05546e-08
7.45694e-09
1.68236e-07
6.09052e-09
2.65743e-07
1.60654e-06
3.11333e-06
8.7323e-09
1.77316e-07
7.29585e-09
2.78442e-07
1.25123e-09
1.43486e-09
2.30705e-09
1.60921e-09
1.23911e-09
1.42248e-09
2.24895e-09
4.76266e-09
7.38736e-08
2.70754e-09
3.28212e-09
4.99873e-09
5.30121e-08
2.67981e-09
1.63899e-06
3.2448e-06
4.75946e-09
3.23901e-09
8.28503e-08
4.47861e-09
5.01431e-09
3.21481e-09
6.16171e-08
2.15124e-07
2.29465e-07
5.35746e-09
1.84077e-07
2.34132e-07
1.6696e-08
4.9238e-07
1.21489e-08
6.75314e-07
6.9527e-06
9.98766e-06
1.79864e-08
4.89864e-07
1.32245e-08
7.11426e-07
1.22543e-09
1.40341e-09
2.17485e-09
1.50801e-09
1.18536e-09
1.34568e-09
1.91789e-09