/*--------------------------------*- C++ -*----------------------------------*\
| =========                 |                                                 |
| \\      /  F ield         | OpenFOAM: The Open Source CFD Toolbox           |
|  \\    /   O peration     | Version:  v2012                                 |
|   \\  /    A nd           | Website:  www.openfoam.com                      |
|    \\/     M anipulation  |                                                 |
\*---------------------------------------------------------------------------*/
FoamFile
{
    version     2.0;
    format      ascii;
    class       volScalarField;
    location    "1350";
    object      p;
}
// * * * * * * * * * * * * * * * * * * * * * * * * * * * * * * * * * * * * * //

dimensions      [0 2 -2 0 0 0 0];


internalField   nonuniform List<scalar> 
171728
(
0.00351996
0.00351888
0.00351897
0.00351968
0.00348437
0.00348283
0.00348298
0.00348521
0.00344579
0.00344388
0.00344395
0.00344612
0.00340161
0.00339997
0.00340002
0.00340224
0.00335351
0.00335209
0.00335208
0.00335442
0.00330461
0.00330329
0.00330324
0.0033055
0.00325634
0.00325516
0.00325513
0.00325753
0.00320905
0.00320799
0.00320798
0.00321046
0.00316271
0.00316182
0.00316181
0.00316419
0.00311737
0.00311661
0.0031166
0.00311897
0.00307292
0.00307226
0.00307227
0.00307463
0.00302919
0.00302866
0.00302864
0.0030311
0.00298622
0.00298564
0.00298573
0.00298807
0.0029434
0.00294317
0.00294311
0.00294548
0.0029011
0.00290093
0.00290082
0.00290324
0.002859
0.00285879
0.0028587
0.00286116
0.00281737
0.00281728
0.00281713
0.0028194
0.00277597
0.00277584
0.00277584
0.00277812
0.00273502
0.00273484
0.00273501
0.00273684
0.00269434
0.0026945
0.00269439
0.00269637
0.00265401
0.00265416
0.00265405
0.00265584
0.00261403
0.00261415
0.0026143
0.00261586
0.00257429
0.0025747
0.00257446
0.00257602
0.00253485
0.00253502
0.00253521
0.0025368
0.00249557
0.00249607
0.00249591
0.00249755
0.00245665
0.00245715
0.002457
0.00245869
0.00241796
0.00241833
0.00241843
0.00242024
0.00237931
0.00237996
0.00237973
0.00238153
0.00234117
0.0023416
0.00234191
0.00234371
0.00230277
0.00230332
0.00230321
0.0023053
0.00226513
0.00226604
0.00226577
0.00226733
0.00222739
0.00222805
0.00222805
0.00223028
0.00218913
0.00218962
0.00218985
0.00219162
0.002152
0.00215284
0.00215259
0.00215447
0.00211456
0.00211509
0.00211523
0.00211716
0.00207715
0.00207787
0.00207792
0.00207965
0.00204022
0.00204069
0.00204061
0.00204251
0.00200281
0.00200333
0.0020034
0.0020055
0.00196618
0.00196684
0.00196675
0.00196839
0.00192969
0.00192975
0.00192977
0.0019319
0.00189259
0.0018931
0.00189314
0.00189529
0.00185651
0.00185675
0.00185676
0.00185841
0.00182007
0.00182005
0.00182009
0.00182232
0.0017837
0.00178392
0.00178377
0.00178596
0.00174759
0.0017477
0.00174791
0.00174979
0.00171202
0.0017118
0.00171151
0.00171372
0.00167567
0.00167575
0.00167592
0.00167792
0.00164031
0.00164012
0.00164035
0.00164232
0.00160484
0.00160473
0.00160425
0.00160654
0.00156883
0.00156861
0.0015688
0.00157071
0.00153352
0.00153315
0.00153353
0.00153542
0.00149823
0.0014984
0.00149802
0.00150037
0.00146345
0.00146291
0.0014629
0.00146474
0.0014282
0.00142759
0.00142769
0.00142977
0.00139263
0.00139282
0.00139293
0.00139473
0.00135779
0.00135752
0.0013573
0.00135942
0.00132325
0.00132254
0.00132254
0.00132472
0.00128795
0.00128819
0.00128831
0.00129012
0.00125356
0.00125312
0.00125321
0.00125493
0.0012189
0.00121832
0.00121818
0.00122008
0.00118388
0.00118403
0.00118393
0.00118598
0.00114932
0.00114919
0.00114934
0.00115137
0.00111485
0.00111438
0.00111452
0.00111628
0.00108056
0.00108023
0.00107981
0.00108169
0.00104549
0.00104535
0.00104557
0.00104739
0.00101096
0.00101097
0.00101119
0.00101326
0.000976676
0.000976621
0.000976575
0.000978473
0.000942661
0.000942113
0.000941838
0.00094365
0.000907657
0.000907264
0.000907304
0.000909111
0.000872887
0.000873048
0.000873208
0.000875246
0.000838645
0.000839045
0.000838969
0.000841173
0.000804353
0.000803901
0.000803858
0.00080569
0.000769983
0.000769292
0.000769388
0.000770962
0.000735185
0.000735273
0.000735282
0.000737237
0.000700371
0.000700793
0.000700705
0.000702953
0.000665847
0.000665751
0.000665859
0.000667784
0.000631655
0.000631105
0.00063107
0.000632896
0.000596757
0.00059679
0.000596479
0.000598536
0.000561588
0.000561466
0.000561853
0.000563597
0.000526913
0.000526828
0.000527274
0.000529086
0.000492689
0.000492965
0.000492173
0.000494542
0.000457559
0.000457217
0.000457261
0.000459131
0.000422196
0.000421915
0.000422392
0.00042413
0.000387274
0.000387494
0.000387326
0.000389435
0.000352472
0.000352479
0.000352293
0.000354376
0.000317365
0.000317229
0.00031737
0.000319273
0.000282057
0.000281997
0.000281999
0.000283957
0.000246551
0.000246307
0.000246369
0.000248225
0.000211281
0.000211347
0.00021139
0.00021342
0.000176135
0.000176501
0.000176118
0.00017841
0.000140533
0.000140082
0.000140289
0.000142073
0.000104119
0.00010382
0.000104123
0.000105968
6.86597e-05
6.93015e-05
6.88836e-05
7.1241e-05
3.51048e-05
3.43945e-05
3.44882e-05
3.60786e-05
6.5867e-06
7.05044e-06
7.24476e-06
4.86603e-06
0.00352446
0.00352202
0.00352187
0.00352435
0.00352203
0.00352198
0.00352834
0.00352835
0.00352839
0.0035283
0.00352181
0.00352181
0.00352443
0.00352196
0.00352233
0.00352504
0.00351967
0.00349064
0.00351894
0.00351894
0.00349239
0.00349237
0.00351962
0.00349058
0.0035189
0.00351897
0.00349244
0.0034924
0.00351889
0.00349252
0.00349241
0.00351969
0.00349054
0.0035191
0.00349244
0.00349218
0.00348993
0.00348582
0.00345176
0.00348298
0.00348294
0.00345404
0.00345406
0.00348576
0.00345178
0.00348289
0.00348296
0.00345424
0.00345407
0.0034829
0.00345411
0.00345414
0.00348579
0.00345178
0.00348268
0.00345401
0.00345415
0.00345164
0.00344624
0.00340837
0.00344403
0.00344395
0.00341136
0.00341139
0.00344623
0.00340839
0.00344391
0.00344394
0.00341148
0.00341146
0.00344388
0.00341142
0.00341144
0.00344624
0.0034084
0.00344389
0.00341141
0.00341147
0.00340837
0.00340221
0.00336087
0.00340004
0.00339999
0.00336419
0.00336427
0.0034022
0.00336087
0.00339995
0.00339995
0.00336426
0.00336421
0.00340009
0.00336423
0.00336418
0.00340221
0.00336086
0.00340025
0.0033642
0.00336455
0.00336087
0.00335442
0.00331219
0.00335214
0.00335205
0.00331558
0.00331552
0.00335439
0.00331211
0.00335212
0.00335208
0.00331549
0.00331544
0.00335214
0.00331546
0.00331553
0.00335438
0.00331211
0.00335223
0.00331545
0.00331563
0.00331195
0.00330575
0.00326389
0.00330324
0.00330327
0.0032671
0.00326714
0.00330564
0.00326385
0.00330338
0.00330331
0.00326715
0.00326711
0.00330315
0.00326712
0.003267
0.00330564
0.00326384
0.00330333
0.0032671
0.00326704
0.0032638
0.0032576
0.00321656
0.00325529
0.00325518
0.00321977
0.00321972
0.00325751
0.00321655
0.0032552
0.00325516
0.00321971
0.00321968
0.0032552
0.00321973
0.0032198
0.00325752
0.00321656
0.00325512
0.00321969
0.00321956
0.00321666
0.0032104
0.00317021
0.00320795
0.00320799
0.00317321
0.00317328
0.00321035
0.00317024
0.00320804
0.00320799
0.0031733
0.00317332
0.00320811
0.00317327
0.0031733
0.00321037
0.00317025
0.0032079
0.00317331
0.00317334
0.00317025
0.00316416
0.00312485
0.00316188
0.00316182
0.00312782
0.00312784
0.00316418
0.00312488
0.00316185
0.00316181
0.00312783
0.00312786
0.00316184
0.00312781
0.00312772
0.0031642
0.00312488
0.00316185
0.00312782
0.00312789
0.00312489
0.00311895
0.00308034
0.00311673
0.00311659
0.00308326
0.00308327
0.00311898
0.0030804
0.0031166
0.00311661
0.00308326
0.00308328
0.00311656
0.00308326
0.00308324
0.00311897
0.00308042
0.00311665
0.00308326
0.00308327
0.00308045
0.00307456
0.00303662
0.00307236
0.00307227
0.00303932
0.00303949
0.00307461
0.0030367
0.00307224
0.00307227
0.00303951
0.00303953
0.00307221
0.00303951
0.00303959
0.00307464
0.00303672
0.00307229
0.00303954
0.00303955
0.00303681
0.00303087
0.0029939
0.00302849
0.00302868
0.00299675
0.00299649
0.00303103
0.00299359
0.00302854
0.00302864
0.00299663
0.00299636
0.00302871
0.00299644
0.00299641
0.00303103
0.00299367
0.00302867
0.00299638
0.00299642
0.00299362
0.00298827
0.00295067
0.00298586
0.00298568
0.00295341
0.00295374
0.00298798
0.00295101
0.00298585
0.00298575
0.00295348
0.00295377
0.0029857
0.00295377
0.00295378
0.00298805
0.00295092
0.00298579
0.00295375
0.00295377
0.002951
0.00294524
0.00290864
0.00294299
0.00294315
0.00291146
0.00291141
0.00294545
0.00290857
0.00294303
0.00294308
0.00291146
0.00291138
0.00294326
0.00291136
0.00291145
0.00294534
0.00290866
0.00294322
0.00291142
0.00291146
0.00290869
0.00290313
0.00286651
0.00290071
0.00290091
0.00286937
0.0028693
0.00290313
0.00286644
0.00290075
0.00290081
0.00286944
0.00286933
0.00290088
0.00286934
0.0028694
0.00290317
0.00286664
0.00290095
0.00286933
0.00286937
0.00286654
0.00286105
0.00282482
0.00285881
0.00285882
0.00282768
0.00282767
0.00286099
0.00282496
0.00285882
0.00285876
0.00282766
0.0028277
0.00285891
0.00282763
0.0028277
0.00286115
0.00282493
0.0028589
0.00282762
0.00282767
0.00282474
0.00281946
0.00278328
0.00281726
0.00281732
0.00278627
0.00278616
0.00281952
0.00278349
0.00281728
0.00281722
0.00278625
0.00278625
0.00281735
0.00278603
0.00278605
0.00281951
0.00278326
0.00281735
0.00278609
0.00278602
0.00278333
0.00277799
0.00274242
0.00277593
0.00277588
0.00274525
0.00274526
0.0027782
0.00274235
0.00277589
0.00277588
0.00274534
0.00274539
0.00277601
0.00274516
0.00274511
0.00277793
0.00274229
0.00277604
0.00274523
0.00274507
0.00274217
0.0027372
0.00270152
0.00273512
0.00273485
0.00270445
0.00270466
0.00273707
0.0027014
0.00273512
0.00273513
0.00270445
0.00270437
0.0027348
0.00270457
0.00270458
0.00273702
0.00270165
0.00273471
0.00270442
0.00270466
0.0027015
0.00269634
0.00266107
0.00269435
0.00269446
0.00266422
0.0026641
0.0026963
0.0026611
0.00269443
0.00269447
0.00266415
0.00266415
0.00269444
0.00266399
0.00266411
0.00269647
0.00266103
0.00269452
0.00266423
0.0026641
0.00266102
0.00265594
0.00262095
0.00265421
0.00265422
0.00262407
0.00262421
0.0026559
0.0026208
0.0026542
0.00265412
0.00262405
0.00262416
0.002654
0.00262422
0.00262419
0.00265588
0.00262086
0.00265397
0.00262421
0.00262421
0.00262088
0.00261581
0.0025812
0.0026142
0.0026142
0.00258437
0.00258433
0.00261577
0.00258113
0.00261412
0.00261429
0.00258447
0.00258421
0.00261421
0.00258444
0.00258433
0.00261591
0.00258113
0.00261421
0.00258425
0.00258432
0.00258106
0.00257618
0.00254169
0.00257461
0.00257465
0.00254486
0.00254493
0.00257626
0.0025417
0.00257463
0.00257437
0.00254487
0.00254512
0.00257448
0.00254495
0.002545
0.00257598
0.00254194
0.00257448
0.00254507
0.00254502
0.00254176
0.00253671
0.00250251
0.00253503
0.00253496
0.0025058
0.00250565
0.00253657
0.00250244
0.00253508
0.00253516
0.00250574
0.00250547
0.0025352
0.00250577
0.00250568
0.0025369
0.00250232
0.00253522
0.00250559
0.00250567
0.00250249
0.00249749
0.00246371
0.00249596
0.00249598
0.00246685
0.00246689
0.00249755
0.00246405
0.00249587
0.00249579
0.00246693
0.00246685
0.00249599
0.0024668
0.00246673
0.00249744
0.00246362
0.00249597
0.00246671
0.00246672
0.00246363
0.00245883
0.00242491
0.0024571
0.0024571
0.002428
0.00242786
0.00245912
0.00242458
0.00245721
0.00245704
0.00242796
0.00242805
0.00245706
0.00242794
0.00242808
0.00245865
0.00242539
0.00245706
0.0024281
0.00242809
0.00242518
0.00241998
0.00238679
0.00241839
0.00241836
0.00238955
0.00238953
0.00241968
0.00238706
0.00241834
0.00241839
0.00238949
0.00238929
0.00241839
0.00238955
0.00238947
0.00242047
0.00238602
0.00241839
0.00238925
0.00238945
0.00238643
0.00238187
0.00234831
0.00237996
0.00237999
0.00235121
0.00235112
0.00238217
0.00234817
0.00237992
0.00237977
0.00235126
0.00235139
0.00237992
0.00235116
0.00235123
0.00238107
0.00234945
0.00237991
0.00235145
0.00235127
0.00234857
0.00234343
0.00231033
0.00234164
0.00234156
0.00231297
0.00231298
0.00234319
0.0023103
0.00234173
0.00234184
0.00231294
0.00231272
0.0023417
0.00231296
0.00231302
0.00234464
0.00230972
0.00234173
0.00231277
0.00231298
0.00231024
0.00230539
0.00227226
0.00230334
0.00230335
0.00227502
0.00227508
0.00230534
0.00227255
0.00230335
0.00230312
0.00227506
0.00227514
0.00230345
0.00227525
0.00227499
0.00230467
0.00227263
0.00230343
0.00227512
0.00227496
0.00227222
0.0022675
0.00223518
0.00226584
0.00226606
0.00223799
0.00223793
0.00226789
0.00223523
0.00226583
0.00226593
0.00223771
0.00223766
0.00226575
0.00223772
0.0022377
0.00226799
0.00223497
0.0022657
0.00223757
0.00223766
0.00223522
0.00223018
0.00219643
0.00222831
0.00222809
0.00219894
0.00219867
0.0022301
0.00219604
0.00222812
0.00222799
0.0021993
0.00219929
0.0022281
0.00219904
0.00219921
0.00222997
0.0021967
0.00222809
0.0021994
0.00219929
0.00219658
0.00219148
0.00215936
0.00218944
0.00218941
0.00216202
0.0021623
0.00219113
0.00215991
0.00218982
0.0021898
0.00216182
0.00216175
0.00218972
0.00216208
0.00216197
0.00219176
0.00215909
0.00218978
0.00216182
0.0021619
0.00215923
0.00215456
0.00212196
0.00215291
0.0021531
0.0021247
0.00212451
0.00215509
0.00212179
0.00215255
0.00215252
0.00212463
0.00212469
0.00215277
0.00212457
0.00212472
0.00215428
0.00212206
0.00215269
0.00212464
0.0021247
0.00212209
0.00211703
0.00208466
0.00211518
0.00211501
0.00208707
0.00208697
0.00211686
0.00208457
0.00211526
0.0021153
0.00208723
0.00208721
0.00211525
0.00208705
0.00208705
0.00211716
0.00208467
0.00211525
0.00208719
0.00208712
0.00208453
0.0020798
0.00204735
0.00207783
0.00207779
0.00205
0.00205008
0.00207975
0.00204745
0.00207795
0.00207789
0.00205001
0.00204995
0.00207777
0.00205009
0.00204994
0.00207978
0.00204734
0.00207783
0.00204999
0.00204989
0.00204737
0.00204241
0.00201014
0.00204065
0.00204073
0.00201258
0.00201259
0.00204248
0.00201015
0.00204064
0.00204061
0.00201256
0.00201262
0.00204065
0.00201257
0.00201281
0.00204241
0.00201023
0.00204058
0.00201261
0.00201282
0.00201041
0.00200534
0.00197369
0.00200333
0.00200333
0.00197598
0.00197594
0.00200533
0.00197367
0.00200332
0.00200339
0.00197598
0.00197591
0.00200356
0.00197597
0.00197577
0.0020054
0.00197352
0.00200359
0.00197595
0.00197578
0.00197324
0.00196883
0.00193649
0.00196686
0.00196682
0.0019391
0.0019391
0.00196881
0.00193652
0.00196685
0.00196673
0.00193908
0.00193909
0.00196653
0.00193906
0.00193898
0.00196864
0.00193662
0.00196651
0.001939
0.00193894
0.00193669
0.00193162
0.00189993
0.00192978
0.0019298
0.00190213
0.00190217
0.00193165
0.00189994
0.00192977
0.00192986
0.00190215
0.00190216
0.00192988
0.00190218
0.00190248
0.00193178
0.0018999
0.00192985
0.00190223
0.00190254
0.00190021
0.00189513
0.00186357
0.00189305
0.00189306
0.00186586
0.00186585
0.00189514
0.0018636
0.00189305
0.00189299
0.00186583
0.00186585
0.00189326
0.00186589
0.00186558
0.00189508
0.00186364
0.00189332
0.00186588
0.00186556
0.00186321
0.00185873
0.00182708
0.00185674
0.00185675
0.0018293
0.00182924
0.00185874
0.00182692
0.00185673
0.00185683
0.00182938
0.00182934
0.00185643
0.00182921
0.00182932
0.0018588
0.00182695
0.0018564
0.00182927
0.00182925
0.00182713
0.00182223
0.00179059
0.00182019
0.00182007
0.00179284
0.00179291
0.0018221
0.00179082
0.00182024
0.00182009
0.00179275
0.00179267
0.00182029
0.00179291
0.00179296
0.00182209
0.00179062
0.00182021
0.00179272
0.00179299
0.00179079
0.00178579
0.00175476
0.00178373
0.00178392
0.0017568
0.00175678
0.00178602
0.00175453
0.00178365
0.00178373
0.00175687
0.00175692
0.00178386
0.00175679
0.0017567
0.00178586
0.00175479
0.00178391
0.001757
0.00175675
0.00175457
0.00174997
0.00171845
0.00174788
0.00174769
0.00172078
0.00172071
0.00174972
0.00171866
0.00174797
0.00174787
0.00172071
0.00172055
0.00174773
0.00172072
0.00172071
0.00174994
0.00171837
0.00174775
0.00172055
0.00172066
0.00171853
0.00171363
0.00168268
0.00171167
0.0017118
0.00168463
0.00168482
0.00171388
0.00168261
0.00171156
0.00171157
0.00168461
0.00168496
0.00171164
0.0016848
0.00168475
0.00171359
0.00168284
0.00171161
0.00168476
0.00168471
0.00168268
0.00167796
0.00164717
0.00167576
0.00167577
0.00164925
0.00164893
0.0016778
0.00164697
0.00167582
0.00167609
0.00164939
0.00164914
0.00167584
0.00164891
0.00164911
0.00167811
0.00164708
0.00167581
0.00164934
0.00164923
0.00164708
0.00164234
0.00161114
0.00164032
0.00164014
0.00161331
0.00161364
0.00164227
0.00161146
0.00164039
0.00164009
0.00161318
0.00161306
0.00164019
0.00161368
0.00161353
0.00164227
0.00161107
0.00164033
0.00161317
0.00161344
0.00161132
0.00160639
0.00157572
0.00160437
0.00160466
0.0015778
0.0015776
0.00160666
0.00157556
0.00160421
0.0016042
0.00157768
0.00157772
0.00160461
0.00157761
0.00157759
0.00160631
0.00157565
0.00160446
0.00157765
0.00157752
0.00157551
0.00157097
0.00154014
0.00156894
0.00156868
0.00154214
0.00154204
0.00157077
0.00154
0.00156889
0.00156889
0.00154234
0.00154243
0.00156857
0.00154194
0.00154195
0.0015709
0.00154039
0.00156854
0.00154234
0.00154205
0.00154008
0.00153537
0.00150477
0.00153316
0.00153321
0.00150672
0.00150699
0.00153528
0.00150501
0.00153339
0.00153358
0.00150671
0.00150678
0.00153325
0.0015071
0.00150728
0.00153567
0.00150481
0.00153338
0.0015069
0.0015074
0.00150516
0.00150008
0.00146984
0.00149806
0.00149829
0.00147201
0.00147184
0.00150031
0.00146972
0.00149796
0.00149787
0.00147192
0.00147178
0.00149844
0.00147186
0.0014717
0.00150009
0.00146962
0.00149846
0.00147174
0.00147138
0.00146947
0.00146511
0.00143443
0.00146321
0.00146296
0.0014365
0.00143641
0.00146496
0.00143437
0.00146316
0.00146305
0.00143653
0.00143654
0.00146284
0.00143634
0.00143644
0.00146487
0.00143442
0.00146255
0.00143643
0.00143647
0.00143446
0.00142967
0.00139935
0.00142759
0.00142764
0.00140132
0.00140152
0.00142965
0.0013995
0.00142763
0.00142767
0.00140132
0.00140143
0.00142767
0.00140151
0.00140132
0.00142974
0.00139959
0.00142784
0.00140166
0.00140161
0.00139948
0.00139467
0.00136434
0.00139264
0.00139282
0.00136643
0.0013664
0.0013948
0.00136427
0.00139262
0.00139274
0.0013664
0.00136638
0.00139253
0.00136644
0.00136634
0.00139487
0.00136413
0.00139273
0.00136625
0.00136608
0.00136413
0.00135958
0.0013292
0.00135762
0.00135747
0.00133131
0.00133115
0.00135951
0.00132916
0.00135762
0.0013575
0.00133135
0.00133119
0.00135763
0.00133117
0.00133153
0.00135934
0.00132913
0.00135733
0.00133111
0.00133144
0.00132939
0.0013245
0.00129461
0.0013226
0.00132252
0.00129659
0.00129675
0.00132449
0.00129476
0.00132262
0.00132255
0.00129655
0.00129675
0.00132289
0.00129681
0.0012968
0.0013245
0.00129484
0.00132287
0.00129692
0.00129693
0.0012948
0.00128996
0.00126006
0.00128797
0.00128813
0.00126209
0.00126205
0.00129011
0.00125984
0.00128793
0.00128815
0.00126215
0.00126209
0.00128803
0.00126195
0.00126158
0.00129018
0.00125995
0.00128817
0.0012621
0.00126177
0.00125969
0.00125531
0.00122488
0.00125335
0.00125328
0.00122704
0.00122701
0.0012551
0.00122489
0.00125342
0.00125328
0.00122701
0.00122691
0.00125282
0.00122693
0.00122691
0.00125519
0.00122478
0.00125297
0.00122682
0.00122683
0.00122474
0.00122016
0.00119045
0.00121833
0.00121833
0.00119248
0.00119247
0.00122021
0.00119057
0.00121829
0.00121828
0.00119245
0.00119255
0.00121836
0.00119262
0.00119273
0.00122008
0.00119046
0.0012182
0.0011925
0.00119249
0.00119059
0.00118582
0.0011558
0.00118389
0.00118387
0.00115786
0.00115785
0.00118593
0.00115582
0.00118386
0.00118397
0.00115785
0.00115794
0.00118416
0.001158
0.00115818
0.00118582
0.00115596
0.00118394
0.00115803
0.00115821
0.00115611
0.00115106
0.00112113
0.00114909
0.0011491
0.00112312
0.00112309
0.00115107
0.00112097
0.00114911
0.00114918
0.0011232
0.00112312
0.00114932
0.00112296
0.00112292
0.00115125
0.00112111
0.00114956
0.00112319
0.00112324
0.001121
0.00111649
0.00108673
0.0011146
0.00111456
0.00108891
0.00108898
0.00111632
0.00108681
0.00111466
0.0011145
0.00108878
0.00108865
0.00111427
0.00108884
0.00108852
0.00111641
0.00108646
0.00111448
0.00108847
0.00108832
0.00108637
0.00108203
0.00105192
0.00108023
0.00108029
0.00105393
0.00105395
0.00108212
0.00105195
0.00108009
0.00108001
0.001054
0.00105413
0.00107994
0.00105406
0.00105406
0.00108176
0.00105212
0.00107967
0.0010541
0.00105396
0.00105204
0.00104721
0.00101751
0.00104521
0.00104521
0.00101946
0.00101937
0.00104722
0.00101751
0.00104536
0.00104553
0.00101956
0.00101957
0.00104542
0.00101952
0.00101973
0.00104747
0.00101771
0.00104544
0.00101983
0.00101992
0.00101789
0.00101286
0.000983108
0.00101094
0.00101087
0.000985188
0.000985325
0.00101288
0.000983254
0.00101094
0.00101091
0.000985003
0.000985181
0.0010112
0.000985234
0.000985371
0.00101303
0.000983153
0.00101142
0.000985253
0.000985364
0.000983213
0.000978462
0.000948884
0.000976583
0.000976735
0.000950943
0.000950865
0.000978565
0.000948704
0.000976453
0.000976657
0.000950988
0.000950821
0.00097669
0.000950788
0.000950595
0.000978455
0.000948538
0.000976597
0.000950509
0.000950389
0.000948375
0.000944186
0.000914015
0.000942319
0.000942184
0.000916079
0.000915976
0.000943995
0.000913904
0.000942399
0.000942134
0.000916132
0.000915973
0.000941872
0.00091595
0.000915757
0.000943834
0.000913918
0.000941683
0.000915898
0.000915732
0.000913764
0.000909271
0.000879533
0.000907342
0.000907268
0.000881457
0.000881478
0.000909177
0.000879627
0.000907374
0.000907284
0.000881462
0.000881547
0.000907131
0.000881534
0.000881604
0.000909224
0.000879746
0.000907174
0.000881706
0.000881731
0.000879831
0.000874907
0.000845349
0.00087293
0.000872982
0.000847332
0.000847502
0.000875017
0.000845623
0.000872928
0.000873047
0.000847244
0.000847416
0.000873181
0.000847616
0.000847872
0.000875134
0.000845544
0.000873298
0.000847645
0.000847911
0.000845891
0.000840656
0.00081072
0.000838738
0.000838936
0.000812753
0.000812823
0.000840939
0.000810618
0.000838621
0.00083876
0.000812753
0.000812754
0.000839299
0.0008127
0.000812745
0.000840806
0.000810569
0.00083928
0.000812612
0.000812681
0.000810507
0.000806024
0.000776239
0.000804102
0.000804081
0.000778254
0.000778032
0.000805846
0.000775915
0.000804171
0.000804116
0.000778368
0.000778217
0.000803896
0.000777856
0.000777656
0.000805834
0.000776039
0.000803819
0.000777933
0.000777639
0.000775626
0.000771542
0.000741752
0.000769653
0.000769414
0.000743763
0.000743719
0.000771242
0.000741829
0.000769734
0.000769582
0.000743746
0.000743704
0.000769051
0.000743796
0.000743632
0.000771366
0.000741829
0.00076906
0.000743852
0.000743676
0.000741848
0.000737043
0.000707109
0.000735106
0.000735165
0.000709091
0.000709326
0.000737181
0.00070746
0.000735055
0.000735069
0.000709
0.000709171
0.000735193
0.000709468
0.000709597
0.000737153
0.000707336
0.000735236
0.000709401
0.00070961
0.000707676
0.000702403
0.000672612
0.00070043
0.000700651
0.000674512
0.000674506
0.000702733
0.000672542
0.000700362
0.000700528
0.000674557
0.000674626
0.00070097
0.000674549
0.000674694
0.000702611
0.000672631
0.000700946
0.000674563
0.000674619
0.000672579
0.000667916
0.000638073
0.000665912
0.000665791
0.000640102
0.000639832
0.00066777
0.00063773
0.000665974
0.000665994
0.000640171
0.000639954
0.000665859
0.000639657
0.000639641
0.000667897
0.000637771
0.000665813
0.00063974
0.000639673
0.000637589
0.000633299
0.000603147
0.00063142
0.000631267
0.000605252
0.000605475
0.000633046
0.000603368
0.000631438
0.000631208
0.000605166
0.000605088
0.000631042
0.000605455
0.000605275
0.000633025
0.000603078
0.000631078
0.000605126
0.000605246
0.000603241
0.000598417
0.000568246
0.000596545
0.00059677
0.000570249
0.000570259
0.000598647
0.000568289
0.000596447
0.000596411
0.000570256
0.000570393
0.000596623
0.00057035
0.000570326
0.000598359
0.000568498
0.00059656
0.000570504
0.000570375
0.000568375
0.000563489
0.000533766
0.000561489
0.000561383
0.000535575
0.000535287
0.000563452
0.000533504
0.000561562
0.000561761
0.00053569
0.000535899
0.000561514
0.000535309
0.000535572
0.000563772
0.000534007
0.000561634
0.000535938
0.000535699
0.000533758
0.000529093
0.000499372
0.000527039
0.000526822
0.000501418
0.000501559
0.000528878
0.000499603
0.000527111
0.000527274
0.0005013
0.000501075
0.000527062
0.000501532
0.000501486
0.000529304
0.00049898
0.000527125
0.000500967
0.000501293
0.000499332
0.000494604
0.000464005
0.000492737
0.000492999
0.00046613
0.000466264
0.000494906
0.000464064
0.000492582
0.000492276
0.000466096
0.000465986
0.000492753
0.000466232
0.000466049
0.000494197
0.000463928
0.000492518
0.000465963
0.00046603
0.000463947
0.000459175
0.000428869
0.00045724
0.000457229
0.000430814
0.000430591
0.000459167
0.000428615
0.000457277
0.000457259
0.000430933
0.000431093
0.000457168
0.000430604
0.000430771
0.00045916
0.000429117
0.000457221
0.000431133
0.000430915
0.000428872
0.000424109
0.000394083
0.000422085
0.000421897
0.000396027
0.00039609
0.000423888
0.000394178
0.000422184
0.000422351
0.000396018
0.000396071
0.000422074
0.000396117
0.000396127
0.000424343
0.000394114
0.000422197
0.000396096
0.000396121
0.000394177
0.000389338
0.000359173
0.000387351
0.00038747
0.000361227
0.000361322
0.000389454
0.000359286
0.000387309
0.000387304
0.000361147
0.000361031
0.000387463
0.000361316
0.000361258
0.000389337
0.000359032
0.00038742
0.000361028
0.000361185
0.000359182
0.000354385
0.000324062
0.000352463
0.0003525
0.000326067
0.000326009
0.000354464
0.000323996
0.000352399
0.000352305
0.000326088
0.000326115
0.000352439
0.000326006
0.000326056
0.000354265
0.000324113
0.000352385
0.000326115
0.000326082
0.000324054
0.000319268
0.00028884
0.000317273
0.000317223
0.000290834
0.000290841
0.000319204
0.000288808
0.000317311
0.000317364
0.000290875
0.000290914
0.000317288
0.000290848
0.000290864
0.000319335
0.000288873
0.000317326
0.000290906
0.000290884
0.000288819
0.000284006
0.0002533
0.000281986
0.000282001
0.00025534
0.000255283
0.000283969
0.000253211
0.000282016
0.000282027
0.000255342
0.000255289
0.000281968
0.000255232
0.000255137
0.000284013
0.000253212
0.000281968
0.000255226
0.000255132
0.000253086
0.000248458
0.000218066
0.000246469
0.000246367
0.000220037
0.000219972
0.000248348
0.000218054
0.000246476
0.000246426
0.00022004
0.000220073
0.000246212
0.000219976
0.000220029
0.000248376
0.000218126
0.000246227
0.000220108
0.000220062
0.000218136
0.000213283
0.000182922
0.000211285
0.000211306
0.000184977
0.000185247
0.00021333
0.000183277
0.00021127
0.000211316
0.000184889
0.000184897
0.000211419
0.000185361
0.000185402
0.000213356
0.000182925
0.000211432
0.000185007
0.000185292
0.000183293
0.000178097
0.000147287
0.000176149
0.000176413
0.000149375
0.000149314
0.000178417
0.000147128
0.000176067
0.000176045
0.000149406
0.000149351
0.000176502
0.000149252
0.000149218
0.00017808
0.000147215
0.000176397
0.000149278
0.000149221
0.000147064
0.000142362
0.000111134
0.000140374
0.000140181
0.000113112
0.00011275
0.000142129
0.000110751
0.000140443
0.000140401
0.000113248
0.000113247
0.000140042
0.000112657
0.00011266
0.000142296
0.00011117
0.000140098
0.000113127
0.000112784
0.000110797
0.000106161
7.55696e-05
0.000104052
0.000103854
7.7477e-05
7.77291e-05
0.000105908
7.59617e-05
0.000104152
0.000104178
7.73927e-05
7.74106e-05
0.000103849
7.78569e-05
7.78955e-05
0.000106216
7.56114e-05
0.00010393
7.75328e-05
7.78043e-05
7.60077e-05
7.07807e-05
4.1005e-05
6.88248e-05
6.91609e-05
4.30668e-05
4.32416e-05
7.12017e-05
4.11016e-05
6.87076e-05
6.87282e-05
4.3001e-05
4.30282e-05
6.93244e-05
4.32496e-05
4.32504e-05
7.0828e-05
4.10273e-05
6.92202e-05
4.30892e-05
4.32381e-05
4.10651e-05
3.6162e-05
8.63429e-06
3.44796e-05
3.44519e-05
1.189e-05
1.1629e-05
3.61293e-05
8.29569e-06
3.44633e-05
3.45031e-05
1.19761e-05
1.19531e-05
3.43749e-05
1.15079e-05
1.14116e-05
3.61684e-05
8.55871e-06
3.44111e-05
1.18269e-05
1.14956e-05
8.17009e-06
5.26295e-06
7.35178e-06
7.17432e-06
4.9921e-06
7.44244e-06
7.4235e-06
6.32338e-06
6.50611e-06
6.19747e-06
6.98672e-06
5.18872e-06
7.02411e-06
0.0035315
0.0035341
0.00353278
0.00353299
0.00356001
0.00353387
0.00356351
0.00353434
0.00356022
0.00353402
0.00353436
0.0035636
0.00354526
0.00356692
0.00356675
0.003504
0.00351772
0.00352166
0.00349631
0.00349437
0.0034997
0.00350402
0.00351759
0.00352147
0.00349637
0.00351999
0.00352001
0.00352004
0.00349346
0.00349357
0.00349351
0.00349366
0.0035037
0.0035153
0.00352055
0.00351133
0.00352267
0.00350087
0.00351159
0.00349439
0.00349967
0.00350392
0.00352063
0.0035154
0.00351128
0.00352278
0.00351159
0.00350091
0.00352169
0.00352095
0.00350977
0.00350105
0.00350059
0.00347638
0.00349066
0.00349054
0.00347439
0.00348787
0.00347346
0.00347634
0.00349069
0.00349041
0.0034744
0.00348444
0.0034844
0.0034844
0.0034559
0.00345597
0.00345589
0.00345572
0.00347415
0.00348916
0.00348289
0.00347349
0.00348766
0.00347468
0.00347345
0.0034878
0.00347343
0.00347402
0.0034829
0.00348919
0.00347344
0.00348758
0.00347337
0.00347464
0.00349088
0.00349084
0.0034714
0.00347472
0.0034746
0.00343376
0.00344851
0.00344946
0.00343243
0.00344735
0.00343161
0.00343376
0.00344861
0.00344938
0.00343236
0.00344584
0.00344577
0.00344565
0.00341317
0.00341323
0.0034132
0.00341312
0.00343247
0.00344806
0.00344391
0.00343345
0.00344704
0.00343295
0.00343341
0.00344738
0.00343153
0.00343246
0.00344394
0.00344806
0.0034334
0.00344705
0.00343346
0.00343296
0.00344872
0.00344877
0.0034307
0.00343266
0.0034326
0.00338738
0.00340378
0.00340526
0.00338599
0.00340314
0.00338546
0.00338739
0.00340369
0.00340516
0.00338598
0.00340167
0.00340164
0.00340157
0.00336571
0.00336578
0.00336571
0.00336566
0.00338652
0.0034036
0.00339996
0.00338821
0.00340308
0.00338667
0.00338825
0.00340313
0.00338541
0.00338656
0.00340005
0.00340372
0.0033882
0.00340308
0.00338824
0.00338661
0.00340382
0.00340379
0.00338492
0.00338612
0.00338617
0.00333846
0.0033556
0.00335689
0.00333717
0.00335519
0.00333691
0.00333845
0.00335555
0.00335683
0.00333725
0.00335357
0.00335352
0.00335347
0.00331681
0.00331684
0.00331679
0.00331672
0.003338
0.00335557
0.00335211
0.00333984
0.00335521
0.00333796
0.0033399
0.00335511
0.0033369
0.00333796
0.00335214
0.00335557
0.00333986
0.00335522
0.0033399
0.00333787
0.0033556
0.00335561
0.00333644
0.00333734
0.00333741
0.0032893
0.00330659
0.00330759
0.00328843
0.00330631
0.00328822
0.00328931
0.00330663
0.00330754
0.00328848
0.00330464
0.00330459
0.00330452
0.00326831
0.00326833
0.00326833
0.0032683
0.0032892
0.00330663
0.00330334
0.0032912