/*--------------------------------*- C++ -*----------------------------------*\
| =========                 |                                                 |
| \\      /  F ield         | OpenFOAM: The Open Source CFD Toolbox           |
|  \\    /   O peration     | Version:  v2012                                 |
|   \\  /    A nd           | Website:  www.openfoam.com                      |
|    \\/     M anipulation  |                                                 |
\*---------------------------------------------------------------------------*/
FoamFile
{
    version     2.0;
    format      ascii;
    class       volScalarField;
    location    "1287.5";
    object      nut;
}
// * * * * * * * * * * * * * * * * * * * * * * * * * * * * * * * * * * * * * //

dimensions      [0 2 -1 0 0 0 0];


internalField   nonuniform List<scalar> 
171728
(
1.55563e-06
1.53747e-06
2.18858e-06
2.05472e-06
1.59795e-06
1.36457e-06
1.36215e-06
2.16096e-06
1.5814e-06
1.27075e-06
1.16701e-06
2.23274e-06
1.55776e-06
1.31804e-06
1.19482e-06
2.00149e-06
1.53119e-06
1.42319e-06
1.26675e-06
2.07706e-06
1.56536e-06
1.53073e-06
1.32884e-06
2.08815e-06
1.57981e-06
1.59434e-06
1.33444e-06
2.05764e-06
1.57763e-06
1.59581e-06
1.31525e-06
2.01012e-06
1.57254e-06
1.55715e-06
1.27908e-06
1.97836e-06
1.56594e-06
1.49808e-06
1.26838e-06
1.92545e-06
1.55558e-06
1.43972e-06
1.27725e-06
1.8221e-06
1.54495e-06
1.37674e-06
1.26612e-06
1.71197e-06
1.53623e-06
1.3033e-06
1.23615e-06
1.60061e-06
1.52715e-06
1.22889e-06
1.20778e-06
1.48079e-06
1.52038e-06
1.1553e-06
1.16886e-06
1.35253e-06
1.51377e-06
1.05864e-06
1.11759e-06
1.24364e-06
1.4963e-06
9.82692e-07
1.06289e-06
1.17691e-06
1.48591e-06
9.38096e-07
1.07065e-06
1.04356e-06
1.47469e-06
9.71981e-07
1.05036e-06
1.06601e-06
1.45108e-06
1.01585e-06
1.17301e-06
1.44896e-06
1.40103e-06
1.19614e-06
1.30566e-06
1.43523e-06
1.34418e-06
1.68617e-06
1.79056e-06
2.325e-06
1.27143e-06
1.84756e-06
2.12336e-06
3.46264e-06
1.21044e-06
2.81755e-06
2.81831e-06
5.65593e-06
1.11883e-06
4.31862e-06
4.16766e-06
8.3445e-06
1.00976e-06
4.55652e-06
5.11485e-06
1.08336e-05
9.7472e-07
7.46223e-06
7.23329e-06
2.39907e-05
9.32675e-07
8.77659e-06
8.88386e-06
1.78492e-05
9.26363e-07
1.1399e-05
1.19389e-05
3.36726e-05
9.5119e-07
1.4556e-05
1.39464e-05
3.90848e-05
1.09738e-06
1.85942e-05
1.99715e-05
4.45204e-05
1.28953e-06
2.1063e-05
1.97575e-05
5.10676e-05
1.43289e-06
2.65309e-05
2.8969e-05
5.81946e-05
2.16435e-06
2.97319e-05
3.21136e-05
6.5264e-05
2.31551e-06
3.73958e-05
3.35336e-05
6.82015e-05
3.57124e-06
3.99007e-05
4.09266e-05
7.32074e-05
4.51398e-06
4.69046e-05
5.04593e-05
7.92116e-05
5.07614e-06
5.34422e-05
5.0646e-05
8.7303e-05
7.24871e-06
5.88337e-05
5.98688e-05
8.60167e-05
8.58239e-06
6.18431e-05
6.29745e-05
8.99473e-05
1.06387e-05
7.36553e-05
7.2348e-05
9.49494e-05
1.41572e-05
7.7176e-05
7.7905e-05
9.9407e-05
1.65338e-05
7.88452e-05
7.80814e-05
0.000107103
1.93301e-05
9.29702e-05
9.4261e-05
0.000106962
2.60356e-05
9.33106e-05
9.50681e-05
0.000105949
2.59994e-05
9.85402e-05
9.57186e-05
0.000114074
3.54913e-05
0.000108555
0.000109492
0.00012254
3.82412e-05
0.000108868
0.000112983
0.000122875
4.4734e-05
0.000117075
0.000110695
0.000123877
5.44812e-05
0.000122584
0.000119017
0.000125899
5.17801e-05
0.000121728
0.000130521
0.000134243
6.59173e-05
0.000133841
0.00013141
0.000138026
7.27593e-05
0.000135348
0.000137293
0.000139091
7.90909e-05
0.000137619
0.000136129
0.000135775
8.40738e-05
0.000138971
0.000143014
0.000141987
9.23579e-05
0.000152266
0.000151229
0.000153956
9.98606e-05
0.000154207
0.00015507
0.000155309
0.000110957
0.000154313
0.0001528
0.00014966
0.000113873
0.000154254
0.000157201
0.000148052
0.000113804
0.00016552
0.000167032
0.000161408
0.00012676
0.000168462
0.000168326
0.000164044
0.000132337
0.000171376
0.000169269
0.000162678
0.000144826
0.000174138
0.000173331
0.000166118
0.000148714
0.000178723
0.000173
0.000167102
0.000143034
0.000175746
0.00018376
0.00016612
0.000155338
0.000182706
0.000187804
0.000176518
0.000169072
0.000194046
0.000184271
0.000177666
0.000170842
0.000188962
0.000185148
0.000172471
0.000169665
0.000185813
0.000195026
0.000176379
0.000176881
0.00019828
0.000196042
0.000182974
0.000185048
0.000200577
0.000195259
0.000183274
0.000191607
0.000198747
0.000200799
0.000184619
0.000194805
0.000201202
0.000203399
0.0001848
0.000198322
0.000203712
0.000203523
0.000182546
0.000202539
0.000209319
0.000209224
0.000192273
0.000207375
0.000212349
0.000208364
0.000193125
0.000210868
0.000205291
0.000206768
0.000184286
0.000215203
0.000207022
0.000213038
0.000189456
0.000220571
0.000224699
0.000220127
0.000205732
0.00022511
0.000221524
0.000221112
0.0001966
0.000221783
0.000207491
0.000209116
0.000180728
0.000222665
0.000215619
0.000210906
0.000196648
0.000239956
0.000229281
0.000232513
0.000211639
0.000239498
0.000224824
0.000226477
0.000197562
0.000230903
0.000218535
0.000213979
0.000188986
0.000237158
0.000221122
0.000222313
0.000197722
0.000246156
0.000226899
0.0002308
0.000203434
0.000240275
0.000229135
0.000225093
0.000203767
0.000239202
0.000230997
0.000223889
0.000206769
0.00025153
0.000226292
0.000230531
0.000201148
0.00025105
0.000212341
0.000224717
0.000186346
0.000239934
0.000212412
0.000216329
0.000186658
0.00024705
0.000241835
0.000229757
0.000210422
0.000265818
0.00025735
0.00024457
0.000228898
0.000261524
0.000230559
0.00023023
0.000206856
1.87849e-06
1.53172e-06
2.06705e-06
1.89009e-06
2.68168e-06
1.41107e-06
1.55141e-06
1.55934e-06
1.639e-06
1.79006e-06
1.69946e-06
1.57527e-06
1.84261e-06
1.63689e-06
4.32539e-06
2.07203e-06
1.87881e-06
1.91821e-06
1.10859e-06
1.83894e-06
1.10966e-06
2.03926e-06
1.88061e-06
1.86897e-06
2.42309e-06
1.18998e-06
2.76026e-06
1.24258e-06
1.30842e-06
1.40463e-06
1.27197e-06
1.84144e-06
1.83012e-06
4.35002e-06
1.50214e-06
7.14347e-06
2.17363e-06
1.9228e-06
2.03543e-06
1.11884e-06
2.12996e-06
1.15607e-06
2.44472e-06
1.87024e-06
1.85773e-06
2.93515e-06
1.25034e-06
3.481e-06
1.22036e-06
1.26174e-06
1.27941e-06
1.2484e-06
1.83137e-06
1.81365e-06
8.30022e-06
1.1815e-06
8.87081e-06
2.31235e-06
2.04322e-06
2.16907e-06
1.17309e-06
2.571e-06
1.23223e-06
3.12426e-06
1.85833e-06
2.01637e-06
3.62784e-06
1.20885e-06
3.37397e-06
1.1575e-06
1.25131e-06
1.29925e-06
1.28504e-06
1.82002e-06
1.81752e-06
7.87479e-06
1.18075e-06
4.65392e-06
2.00422e-06
2.1685e-06
2.12719e-06
1.25813e-06
3.37261e-06
1.34402e-06
4.16166e-06
2.0236e-06
2.21766e-06
3.12807e-06
1.13608e-06
2.44061e-06
1.08713e-06
1.30299e-06
1.39461e-06
1.36724e-06
1.82059e-06
1.75959e-06
3.91302e-06
1.2473e-06
2.84037e-06
2.07807e-06
2.11966e-06
2.06006e-06
1.37241e-06
4.42149e-06
1.45086e-06
4.99823e-06
2.21811e-06
2.38977e-06
2.26382e-06
1.07167e-06
1.90396e-06
1.01902e-06
1.39131e-06
1.50604e-06
1.4629e-06
1.75712e-06
1.69748e-06
2.73196e-06
1.31819e-06
2.62104e-06
2.08961e-06
2.0585e-06
2.02472e-06
1.47393e-06
5.04467e-06
1.51055e-06
4.83756e-06
2.3782e-06
2.42828e-06
1.82505e-06
1.00808e-06
1.68223e-06
1.08074e-06
1.48541e-06
1.5852e-06
1.54642e-06
1.69508e-06
1.66018e-06
2.60186e-06
1.33517e-06
2.47997e-06
2.0644e-06
2.01845e-06
1.95396e-06
1.51358e-06
4.78794e-06
1.50918e-06
4.7571e-06
2.41151e-06
2.51039e-06
1.65498e-06
1.16493e-06
1.58832e-06
1.48678e-06
1.56066e-06
1.6007e-06
1.58515e-06
1.66856e-06
1.8365e-06
2.41109e-06
1.32268e-06
2.18934e-06
2.01508e-06
1.94888e-06
1.91252e-06
1.50454e-06
4.77896e-06
1.4827e-06
4.74645e-06
2.5016e-06
2.53619e-06
1.57121e-06
1.64167e-06
1.53075e-06
2.24923e-06
1.58589e-06
1.56909e-06
1.57205e-06
1.8586e-06
2.08331e-06
2.12654e-06
1.28559e-06
1.95709e-06
1.98217e-06
1.90854e-06
1.86634e-06
1.4732e-06
4.6629e-06
1.44209e-06
3.98323e-06
2.51103e-06
2.20807e-06
1.51862e-06
2.5126e-06
1.48155e-06
3.36136e-06
1.56397e-06
1.51293e-06
1.53107e-06
2.10465e-06
2.39853e-06
1.90378e-06
1.26854e-06
1.76461e-06
1.93329e-06
1.86247e-06
1.79746e-06
1.43329e-06
3.61193e-06
1.40526e-06
2.58013e-06
2.16765e-06
1.89368e-06
1.46867e-06
3.67441e-06
1.425e-06
4.76861e-06
1.51982e-06
1.45262e-06
1.47631e-06
2.41338e-06
2.66415e-06
1.72644e-06
1.27408e-06
1.62314e-06
1.83256e-06
1.79213e-06
1.71723e-06
1.39387e-06
2.37096e-06
1.35482e-06
2.15573e-06
1.87679e-06
1.8179e-06
1.40841e-06
5.07967e-06
1.35753e-06
5.66987e-06
1.4567e-06
1.39367e-06
1.39471e-06
2.66306e-06
2.72994e-06
1.58758e-06
1.27288e-06
1.47786e-06
1.72294e-06
1.70855e-06
1.62462e-06
1.33732e-06
2.14922e-06
1.27878e-06
2.24317e-06
1.81014e-06
1.80727e-06
1.34074e-06
5.80405e-06
1.28478e-06
4.53333e-06
1.37102e-06
1.3205e-06
1.29459e-06
2.68701e-06
2.04568e-06
1.43951e-06
1.24327e-06
1.32752e-06
1.61433e-06
1.61215e-06
1.52042e-06
1.25869e-06
2.48688e-06
1.18991e-06
3.38057e-06
1.8075e-06
1.99487e-06
1.26573e-06
4.00113e-06
1.20133e-06
2.88674e-06
1.27056e-06
1.24372e-06
1.19159e-06
1.99904e-06
1.74852e-06
1.29618e-06
1.21334e-06
1.19873e-06
1.49802e-06
1.50344e-06
1.40329e-06
1.16625e-06
3.63875e-06
1.09507e-06
4.20629e-06
2.02287e-06
2.1283e-06
1.17806e-06
2.64265e-06
1.10862e-06
2.3748e-06
1.16728e-06
1.16916e-06
1.09455e-06
1.72614e-06
1.63884e-06
1.17121e-06
1.18045e-06
1.09089e-06
1.37477e-06
1.38224e-06
1.28233e-06
1.07791e-06
4.28769e-06
1.01634e-06
4.13356e-06
2.11911e-06
1.97918e-06
1.08794e-06
2.37126e-06
1.01952e-06
2.55192e-06
1.07068e-06
1.09286e-06
1.01512e-06
1.61873e-06
1.59432e-06
1.06987e-06
1.12853e-06
1.01415e-06
1.27058e-06
1.25639e-06
1.17537e-06
1.00426e-06
3.76693e-06
9.32278e-07
1.64337e-06
1.90139e-06
1.38784e-06
1.00498e-06
2.61812e-06
9.39136e-07
2.51411e-06
9.979e-07
9.99259e-07
9.47398e-07
1.57844e-06
1.43338e-06
9.95333e-07
1.09158e-06
9.28957e-07
1.18645e-06
1.15349e-06
1.0992e-06
9.24799e-07
1.33853e-06
9.14279e-07
1.20855e-06
1.31851e-06
1.11043e-06
9.30884e-07
2.29568e-06
8.87274e-07
1.63263e-06
9.48382e-07
9.3618e-07
8.90123e-07
1.38649e-06
1.30897e-06
9.23509e-07
1.072e-06
8.77412e-07
1.06717e-06
1.08382e-06
1.10764e-06
9.13775e-07
1.29329e-06
9.7364e-07
1.83473e-06
1.12434e-06
1.28911e-06
8.7102e-07
1.413e-06
9.16396e-07
1.1272e-06
8.81415e-07
9.37132e-07
8.90612e-07
1.25481e-06
1.0806e-06
8.75948e-07
9.97685e-07
8.84844e-07
1.0384e-06
1.12436e-06
1.19553e-06
9.50879e-07
1.8488e-06
1.04438e-06
1.37278e-06
1.30746e-06
1.20486e-06
9.1028e-07
1.11069e-06
1.02975e-06
1.34028e-06
9.04032e-07
9.93222e-07
1.06749e-06
1.13595e-06
1.53969e-06
9.00814e-07
1.16607e-06
1.09627e-06
1.41584e-06
1.22701e-06
1.42805e-06
1.06129e-06
1.2329e-06
1.11353e-06
1.10509e-06
1.21513e-06
1.37815e-06
1.04772e-06
1.36492e-06
1.11286e-06
1.3317e-06
1.08528e-06
1.16799e-06
1.10123e-06
1.51452e-06
1.34396e-06
1.14003e-06
1.24678e-06
1.23141e-06
1.34409e-06
1.56955e-06
1.98729e-06
1.25581e-06
1.16137e-06
1.39389e-06
1.49881e-06
1.39999e-06
2.22735e-06
1.24774e-06
1.30579e-06
1.35651e-06
1.60962e-06
1.18319e-06
1.45004e-06
1.4702e-06
1.40339e-06
2.43525e-06
1.30578e-06
1.6765e-06
1.63882e-06
2.2412e-06
2.1782e-06
3.52871e-06
1.48005e-06
1.72889e-06
2.05393e-06
1.88082e-06
2.64363e-06
3.32073e-06
1.46046e-06
1.6946e-06
2.05764e-06
1.83453e-06
1.54331e-06
1.867e-06
1.84365e-06
2.72736e-06
3.01728e-06
1.7333e-06
1.96842e-06
2.10727e-06
3.12898e-06
3.4582e-06
3.59791e-06
2.0391e-06
1.85023e-06
2.18267e-06
2.51926e-06
3.18468e-06
4.36509e-06
2.03833e-06
1.98322e-06
2.12558e-06
2.40476e-06
2.01173e-06
2.51105e-06
2.62454e-06
3.101e-06
4.70569e-06
2.3184e-06
2.61078e-06
2.96122e-06
5.20087e-06
4.66761e-06
1.10907e-05
2.89276e-06
2.80803e-06
4.03996e-06
3.86796e-06
5.25931e-06
9.62782e-06
2.83064e-06
2.6802e-06
3.9372e-06
3.84938e-06
2.77314e-06
3.92519e-06
3.7215e-06
5.20429e-06
8.76406e-06
3.10694e-06
3.95302e-06
4.1802e-06
7.84591e-06
1.09212e-05
1.08609e-05
4.03567e-06
4.26161e-06
4.99311e-06
4.68066e-06
1.0468e-05
1.14446e-05
3.91515e-06
4.05177e-06
4.94683e-06
4.67164e-06
3.87873e-06
4.59727e-06
4.17289e-06
9.71974e-06
1.06417e-05
4.403e-06
4.72532e-06
4.67296e-06
9.8174e-06
1.18891e-05
1.40274e-05
5.13783e-06
4.66992e-06
5.72115e-06
6.49831e-06
1.12002e-05
1.48461e-05
5.14251e-06
5.14328e-06
5.79261e-06
6.09089e-06
5.09064e-06
6.52208e-06
7.73717e-06
1.10746e-05
1.62199e-05
5.63539e-06
6.62398e-06
9.27512e-06
2.39098e-05
1.4798e-05
2.68161e-05
6.7536e-06
7.36105e-06
9.2236e-06
8.30811e-06
1.71016e-05
2.4635e-05
6.75282e-06
6.71262e-06
8.97952e-06
8.4598e-06
7.67485e-06
8.41461e-06
7.18506e-06
1.73953e-05
2.30729e-05
9.29691e-06
8.47978e-06
8.01185e-06
1.80912e-05
2.81138e-05
2.68442e-05
9.20418e-06
8.74146e-06
1.05667e-05
1.09001e-05
2.48451e-05
2.80962e-05
9.08564e-06
8.88011e-06
1.06762e-05
1.14589e-05
7.90497e-06
1.07319e-05
1.12442e-05
2.44821e-05
2.96853e-05
7.79468e-06
1.13433e-05
1.12174e-05
3.0613e-05
2.80456e-05
3.74713e-05
1.14987e-05
1.15359e-05
1.3915e-05
1.35524e-05
3.00396e-05
3.63008e-05
1.1498e-05
1.19017e-05
1.34652e-05
1.18629e-05
1.20448e-05
1.35176e-05
1.40147e-05
3.07449e-05
3.46023e-05
1.25577e-05
1.32528e-05
1.52406e-05
3.84278e-05
3.87889e-05
4.32596e-05
1.46488e-05
1.45508e-05
1.69704e-05
1.80942e-05
3.77511e-05
4.5693e-05
1.40905e-05
1.28029e-05
1.71401e-05
1.86164e-05
1.47039e-05
1.80883e-05
1.70472e-05
3.5967e-05
4.50435e-05
1.57389e-05
1.85608e-05
1.74475e-05
4.32186e-05
4.51464e-05
5.12292e-05
1.79103e-05
1.85895e-05
2.14548e-05
1.97565e-05
4.69841e-05
4.92816e-05
1.84561e-05
1.99735e-05
2.13423e-05
2.06408e-05
1.78728e-05
1.97417e-05
2.04099e-05
4.68379e-05
4.97629e-05
1.80973e-05
2.00679e-05
2.02317e-05
4.96771e-05
5.19843e-05
5.47541e-05
2.22576e-05
2.10758e-05
2.36529e-05
2.59609e-05
5.06011e-05
5.74308e-05
2.15284e-05
2.13766e-05
2.31739e-05
3.03422e-05
2.13648e-05
2.5762e-05
2.47565e-05
5.00944e-05
5.90319e-05
2.12913e-05
2.51048e-05
2.47077e-05
5.66291e-05
5.63172e-05
6.37331e-05
2.48788e-05
2.67632e-05
3.06369e-05
2.84697e-05
5.87204e-05
6.18822e-05
2.51407e-05
3.34917e-05
3.12553e-05
3.32825e-05
2.61696e-05
2.83662e-05
3.02285e-05
6.26885e-05
6.61375e-05
2.61014e-05
3.29248e-05
3.02451e-05
6.40041e-05
6.50012e-05
6.77129e-05
3.20634e-05
2.97176e-05
3.38547e-05
3.56852e-05
6.31266e-05
6.92744e-05
3.20904e-05
3.18619e-05
3.28848e-05
2.86863e-05
3.10553e-05
3.58169e-05
3.51012e-05
6.53483e-05
6.2622e-05
3.11733e-05
3.25621e-05
3.50514e-05
6.76108e-05
6.88867e-05
7.42373e-05
3.48801e-05
3.7273e-05
4.04091e-05
3.92823e-05
7.06625e-05
7.30228e-05
3.40368e-05
2.99984e-05
4.06164e-05
4.19088e-05
3.60854e-05
3.92463e-05
3.77809e-05
6.3694e-05
7.4678e-05
3.58155e-05
3.77739e-05
3.73292e-05
7.18615e-05
7.55642e-05
7.8382e-05
4.25773e-05
4.0063e-05
4.68342e-05
4.54239e-05
7.37098e-05
7.75322e-05
4.28616e-05
4.53013e-05
4.7063e-05
5.14493e-05
3.95919e-05
4.49631e-05
4.55576e-05
7.65304e-05
7.97945e-05
3.92676e-05
4.99558e-05
4.63289e-05
7.77518e-05
7.89766e-05
8.16456e-05
4.73051e-05
4.72601e-05
4.95343e-05
5.15729e-05
7.89644e-05
8.32879e-05
4.7503e-05
5.14551e-05
4.94593e-05
5.12371e-05
4.77972e-05
5.15534e-05
5.26469e-05
8.03551e-05
8.20773e-05
4.87186e-05
4.96471e-05
5.2485e-05
8.66354e-05
8.29534e-05
8.75822e-05
5.20799e-05
5.33376e-05
5.82745e-05
5.80066e-05
8.41592e-05
8.62392e-05
5.19691e-05
5.24086e-05
5.82496e-05
5.77046e-05
5.42087e-05
5.8242e-05
6.05248e-05
8.29571e-05
8.72771e-05
5.39634e-05
5.73862e-05
5.96377e-05
8.6116e-05
8.83174e-05
9.00109e-05
5.96845e-05
5.85419e-05
6.26755e-05
6.04627e-05
8.67766e-05
8.91538e-05
5.95772e-05
5.92122e-05
6.26998e-05
6.26377e-05
6.07559e-05
6.0021e-05
5.86118e-05
8.82391e-05
8.9618e-05
5.94849e-05
6.26021e-05
5.74921e-05
8.83032e-05
9.07046e-05
9.43171e-05
6.35896e-05
6.24491e-05
6.84072e-05
7.11117e-05
9.04109e-05
9.66938e-05
6.36069e-05
6.33781e-05
6.83624e-05
6.85863e-05
5.89723e-05
7.10339e-05
6.93252e-05
9.01702e-05
9.47677e-05
5.88281e-05
6.91428e-05
7.07544e-05
9.42715e-05
9.54463e-05
9.91325e-05
7.05671e-05
7.35085e-05
7.6302e-05
7.74319e-05
9.7689e-05
9.84245e-05
7.06883e-05
7.09874e-05
7.63409e-05
7.75273e-05
7.30763e-05
7.76587e-05
7.65008e-05
9.63372e-05
9.98122e-05
7.42007e-05
7.82686e-05
7.59632e-05
9.78715e-05
9.97827e-05
0.000101786
7.71693e-05
7.72547e-05
8.092e-05
7.70716e-05
9.84795e-05
9.99897e-05
7.70007e-05
7.93202e-05
8.11091e-05
7.89961e-05
7.72075e-05
7.66338e-05
8.30504e-05
0.000100011
9.97793e-05
7.50774e-05
7.6768e-05
7.86017e-05
0.000105942
0.00010257
0.00010613
8.24876e-05
7.93169e-05
8.70654e-05
8.98177e-05
0.000101233
0.000108393
8.27703e-05
7.89326e-05
8.68249e-05
8.77933e-05
8.61291e-05
9.02763e-05
9.27137e-05
0.00010035
0.000107767
8.45589e-05
8.9963e-05
9.56302e-05
0.000107502
0.000106897
0.000110287
8.85817e-05
9.23152e-05
9.47661e-05
9.36946e-05
0.000109398
0.000109574
8.82243e-05
9.1708e-05
9.50437e-05
9.52403e-05
9.19997e-05
9.35461e-05
8.70386e-05
0.000109603
0.000111061
9.67793e-05
9.64763e-05
9.45251e-05
0.000105469
0.000111166
0.000112903
9.58514e-05
9.37008e-05
9.62838e-05
9.69869e-05
0.000109607
0.000112733
9.62792e-05
9.44574e-05
9.63647e-05
9.63305e-05
8.56957e-05
9.6566e-05
9.49677e-05
0.000110626
0.000110322
9.28784e-05
9.28353e-05
8.9638e-05
0.000112174
0.000113372
0.000117618
9.83543e-05
9.87836e-05
0.000106257
0.000106065
0.000114019
0.000118626
9.81032e-05
9.85104e-05
0.000105912
0.000104937
0.000101139
0.000106425
0.000113104
0.000111758
0.000119818
9.09299e-05
0.000106506
0.000107153
0.000121713
0.0001185
0.000120784
0.000107286
0.000108089
0.000108467
0.000109346
0.000119275
0.000120154
0.000107174
0.000106918
0.000108966
0.000111941
0.000114336
0.000109339
0.000112628
0.000120801
0.000121612
0.000111421
0.000113561
0.000116399
0.000123118
0.000121461
0.000126016
0.00010963
0.000109119
0.000116794
0.000113774
0.000120387
0.000124251
0.000110178
0.000112432
0.000116715
0.00011307
0.000111513
0.000113427
0.000111413
0.000121533
0.000122404
0.000115806
0.000110198
0.000114381
0.000122813
0.000126873
0.000127703
0.0001192
0.000117345
0.000120466
0.000122997
0.000125735
0.000129613
0.00011877
0.000114313
0.000119847
0.000119386
0.000114851
0.000123028
0.000117125
0.00012326
0.000127136
0.000115223
0.000116373
0.000114686
0.000125734
0.000127701
0.000129592
0.000119832
0.000122485
0.000121348
0.000120662
0.000129422
0.000128563
0.000119576
0.000121642
0.000122315
0.000127687
0.000118098
0.000120827
0.000125739
0.00012792
0.000132902
0.000115528
0.000128428
0.000126114
0.00013242
0.000130672
0.000136578
0.000123597
0.000121451
0.000132007
0.000132618
0.000129189
0.000137565
0.000124691
0.000128016
0.000131994
0.000127251
0.000127929
0.000132508
0.000130956
0.000133979
0.000135367
0.00012973
0.000131554
0.000134267
0.000137839
0.000137179
0.000137118
0.000133339
0.000134371
0.000133089
0.000134307
0.000138545
0.00013822
0.000132717
0.000128163
0.00013218
0.000136283
0.000131619
0.000133928
0.000136325
0.000135473
0.000139138
0.000134875
0.000135841
0.000136751
0.000139067
0.000137234
0.000142043
0.000133398
0.000134966
0.000139744
0.0001376
0.000138112
0.000139914
0.00013279
0.000138413
0.000140361
0.000138916
0.000137498
0.000138183
0.000136197
0.000140067
0.000140165
0.000135915
0.00013672
0.00013173
0.000136317
0.000142834
0.0001426
0.000141102
0.00013723
0.000140757
0.000137762
0.000139806
0.000140123
0.000141437
0.000138232
0.000140711
0.000139535
0.000135286
0.000136714
0.000136348
0.000139797
0.00014219
0.000130646
0.000140064
0.000135318
0.000139383
0.000142525
0.000147225
0.000140888
0.000140747
0.000146506
0.000150374
0.000141564
0.000150677
0.000140805
0.000142402
0.000147162
0.000148046
0.000140977
0.000150648
0.000151582
0.000143981
0.000149617
0.000140088
0.000149608
0.000153083
0.0001527
0.000148395
0.000150571
0.000148383
0.000151681
0.000151476
0.000152322
0.000151429
0.000151428
0.000149005
0.00014926
0.00015119
0.000152301
0.000153721
0.000153438
0.000157077
0.000150082
0.000151075
0.000156191
0.000154757
0.00015954
0.000155613
0.000150803
0.000153733
0.000152859
0.000153098
0.000156869
0.000154499
0.000151404
0.000151531
0.000152188
0.000152971
0.000157577
0.000153611
0.000157661
0.000154968
0.000155315
0.000151132
0.000150592
0.000158805
0.000153425
0.000153887
0.000150447
0.000154096
0.000153969
0.000156952
0.000154101
0.000155946
0.000154785
0.000151195
0.000151198
0.000158572
0.000153711
0.00015817
0.000156607
0.000153763
0.000153227
0.000149877
0.000150477
0.000153215
0.000151959
0.00015482
0.000149555
0.000147101
0.000153967
0.000156952
0.000156235
0.000156435
0.000161907
0.000163999
0.000152198
0.000159745
0.000157778
0.000158414
0.000160427
0.000164354
0.000149533
0.000162718
0.000160105
0.000154498
0.000160334
0.000150765
0.000165133
0.000164322
0.000159496
0.000157452
0.000157941
0.000163862
0.00016613
0.00016625
0.000167673
0.000160828
0.00016134
0.000161705
0.000165966
0.000162666
0.000167639
0.000164831
0.000168148
0.000172715
0.000160988
0.0001614
0.000167726
0.000168549
0.000171064
0.000164296
0.000158082
0.000164689
0.000166237
0.000167252
0.000169411
0.000168226
0.00016104
0.00016265
0.000163347
0.000167513
0.000171012
0.000168322
0.000173092
0.000170979
0.000171661
0.000161217
0.000162405
0.000170596
0.000168035
0.000168851
0.000162702
0.000166648
0.000170665
0.000171939
0.000169522
0.000177989
0.000174795
0.000163373
0.000166085
0.000174472
0.000170325
0.000180768
0.000174538
0.00017118
0.000172756
0.000171497
0.000163284
0.000165249
0.000168596
0.000173466
0.000173577
0.000165402
0.000170275
0.000164834
0.000178155
0.000176631
0.000175705
0.000178332
0.000166764
0.000168916
0.000180403
0.000174302
0.0001759
0.000172483
0.000173396
0.000178601
0.000177044
0.000164789
0.000162663
0.000175277
0.000172412
0.000176928
0.00016748
0.000164126
0.000163611
0.000174477
0.000177641
0.000173299
0.000175127
0.000168543
0.000165557
0.000173815
0.000172294
0.000171403
0.000177647
0.000176868
0.000176361
0.000175669
0.000162967
0.000171226
0.000176474
0.000181219
0.000175566
0.000165735
0.000164954
0.000175869
0.00017504
0.000174746
0.000184873
0.000180011
0.000165172
0.000170167
0.000171842
0.000180959
0.000185233
0.000189511
0.000175894
0.000178265
0.000183674
0.000173215
0.000178129
0.000176274
0.000188077
0.000184241
0.000174789
0.000177397
0.000178206
0.000187386
0.000183699
0.000190472
0.000192907
0.000172506
0.000181733
0.00018904
0.000189994
0.000191933
0.000187579
0.000186707
0.000193148
0.000191212
0.00017782
0.000172504
0.000186928
0.000185218
0.000190245
0.000178263
0.000177681
0.000173964
0.000190085
0.000193677
0.000187655
0.000190937
0.00018178
0.000175925
0.000191306
0.000186177
0.000187947
0.000184822
0.000190738
0.000191358
0.000187497
0.000171816
0.000171726
0.000189665
0.000183607
0.000186691
0.000172885
0.00017363
0.000176031
0.000187078
0.000188704
0.000187212
0.000185863
0.000174818
0.00017165
0.000187427
0.000185303
0.000187833
0.000193338
0.000186573
0.00018581
0.000186021
0.000173055
0.000181519
0.000186096
0.000193505
0.000186707
0.000174877
0.000177176
0.000181121
0.000189334
0.00018589
0.00019529
0.000194678
0.000172239
0.000182926
0.000190147
0.000195214
0.000195534
0.000196467
0.000187665
0.000194824
0.000196199
0.000182067
0.000181158
0.000189688
0.000196317
0.000196555
0.000182633
0.000181208
0.000181615
0.00019625
0.000197784
0.000198155
0.000200234
0.000184311
0.000184256
0.000196106
0.000196054
0.000196282
0.000194785
0.00019803
0.000201021
0.000200337
0.000180773
0.000179534
0.000197604
0.000195216
0.000198568
0.00018337
0.000181834
0.000184287
0.000198927
0.000199813
0.00019995
0.000198502
0.000183722
0.000181726
0.000196684
0.000194633
0.000199713
0.000198258
0.000200429
0.000198916
0.000200434
0.000179596
0.000183683
0.00019859
0.00019923
0.000199997
0.00018431
0.000184499
0.000185648
0.000199891
0.000198357
0.000200958
0.000200212
0.000181676
0.000184775
0.000200932
0.000200116
0.00020373
0.00020375
0.000200397
0.000199702
0.000200912
0.000184422
0.000186087
0.000201266
0.000203349
0.000202801
0.000185165
0.000185843
0.000186537
0.000202093
0.000201876
0.000204566
0.000204504
0.000185425
0.000186288
0.000204078
0.000204099
0.00020381
0.00020412
0.000201024
0.000203514
0.000200601
0.00018596
0.000186097
0.000202345
0.000203282
0.000200636
0.000182678
0.000186498
0.000188197
0.000205054
0.00020481
0.000206659
0.000207401
0.000186193
0.000189425
0.000203696
0.000204242
0.000205223
0.00020714
0.000200765
0.000206981
0.000207222
0.000186373
0.000190292
0.000200634
0.000207955
0.000207256
0.000190687
0.000188542
0.00018894
0.000207235
0.000209087
0.000208234
0.000211535
0.00019064
0.000193383
0.00020656
0.000208061
0.000208217
0.000208002
0.000210179
0.000212599
0.000213314
0.000190474
0.000188638
0.000210493
0.000209066
0.000212928
0.000193961
0.000188748
0.000190104
0.00020841
0.000211217
0.000209459
0.000206659
0.000192837
0.000185864
0.000208243
0.000207611
0.000209083
0.000207284
0.000212928
0.000206952
0.000206711
0.000188128
0.000187385
0.000212118
0.00020679
0.000205603
0.000185114
0.000190728
0.000192994
0.000210071
0.000205389
0.000211487
0.000205484
0.000184949
0.000186037
0.000210554
0.000207969
0.000214008
0.000213213
0.00020508
0.000204949
0.000205049
0.000187947
0.00019293
0.000204512
0.000211156
0.00020572
0.000186961
0.000193003
0.000194398
0.000212054
0.00020803
0.000215614
0.000221338
0.000188153
0.000202481
0.000214456
0.000214293
0.000215245
0.000216641
0.000207559
0.000222099
0.00022376
0.000193466
0.000196418
0.000209917
0.000218558
0.000224375
0.000204865
0.00019482
0.000196214
0.000217406
0.000223715
0.000219478
0.000224044
0.000203542
0.000200537
0.000215456
0.00021765
0.000216461
0.00021899
0.000226152
0.000224687
0.000224968
0.000196903
0.000198697
0.000226167
0.000221566
0.000224422
0.000199736
0.000195786
0.000189755
0.000219222
0.000221631
0.000213217
0.000209971
0.000198212
0.000185324
0.000216083
0.000218795
0.000212971
0.000213114
0.00022019
0.000208783
0.000205889
0.00019822
0.000189389
0.000219371
0.000211849
0.000205609
0.000181387
0.000188986
0.000193092
0.000211533
0.000208442
0.000211757
0.000209619
0.000184599
0.000191591
0.000212338
0.00021104
0.000214562
0.000210656
0.000204799
0.000209946
0.000209636
0.000187888
0.000187969
0.00020445
0.000208262
0.000208913
0.000192605
0.000195669
0.000207434
0.000214719
0.000213999
0.000228399
0.000227165
0.000194486
0.000205501
0.000219234
0.000213302
0.000229852
0.000229739
0.000217607
0.000228219
0.000232741
0.000190718
0.000208177
0.000216999
0.000229958
0.000233502
0.000211645
0.000207495
0.00019879
0.00022973
0.000228659
0.000227441
0.000228146
0.000205542
0.000200525
0.000230421
0.000231663
0.000225202
0.000229518
0.000233622
0.000227647
0.000228283
0.000208909
0.000202645
0.000234597
0.000231357
0.000229342
0.000200186
0.000196509
0.000190123
0.000223252
0.000225567
0.00021619
0.000219442
0.000199198
0.000194891
0.000220464
0.000224251
0.00021431
0.000214075
0.000223338
0.000219086
0.000214666
0.000199946
0.000189541
0.000223696
0.000214716
0.000213788
0.000189299
0.00019024
0.00020213
0.000216117
0.000218871
0.000222545
0.000219863
0.000194686
0.000197796
0.00021444
0.000213711
0.000223912
0.000219485
0.0002141
0.000219295
0.00021692
0.000189227
0.000197946
0.00021319
0.000217541
0.000216634
0.000196047
0.000203934
0.000207017
0.000226456
0.000221972
0.000230545
0.000226882
0.000198636
0.000201567
0.000228127
0.000224445
0.000232064
0.000231563
0.000220293
0.000226025
0.000227505
0.000200071
0.000206537
0.000220572
0.000230432
0.000228577
0.000203404
0.00020584
0.000194783
0.000230274
0.000227509
0.00022267
0.000228342
0.000201503
0.000202184
0.000231607
0.000231713
0.000221728
0.000225753
0.00022852
0.000228753
0.000230623
0.000206341
0.000199134
0.000229575
0.000227522
0.000231011
0.000203973
0.000193543
0.000194582
0.000220675
0.000227895
0.000220618
0.000228132
0.00020208
0.000204266
0.000219132
0.000222764
0.000218184
0.000220294
0.00023092
0.000230619
0.000232879
0.000197821
0.000196166
0.000230543
0.000223083
0.0002308
0.000206569
0.000196399
0.000207844
0.00022246
0.00022834
0.000231396
0.000227003
0.000204379
0.000201587
0.000220001
0.000221195
0.000232585
0.000230741
0.000233389
0.000228669
0.000230104
0.000196903
0.000205928
0.000231019
0.000229748
0.000228181
0.000202982
0.00020825
0.000203123
0.00023211
0.000225466
0.000228981
0.000216865
0.000200186
0.000189517
0.000234425
0.000232609
0.000233661
0.00023227
0.000226784
0.000215174
0.000213512
0.000206396
0.000202629
0.000226089
0.000228554
0.000216111
0.000188139
0.000200912
0.000190997
0.000224724
0.000214675
0.000217603
0.000213547
0.000188
0.000187264
0.000229764
0.00022906
0.00021817
0.000217303
0.000210294
0.000210381
0.000207769
0.000200589
0.000190149
0.000213478
0.000216633
0.000211319
0.000184629
0.000190653
0.000200495
0.00021755
0.000215619
0.000226452
0.000235247
0.00018946
0.00021007
0.000217331
0.000216293
0.000221271
0.000219794
0.00020976
0.000233975
0.000231565
0.000189648
0.00019847
0.000212801
0.000223069
0.00023081
0.000207002
0.000203328
0.000216498
0.000232675
0.000242103
0.000244247
0.000253704
0.000213338
0.000228116
0.000227394
0.000226159
0.000240835
0.000241439
0.000239997
0.000256208
0.000257267
0.000201485
0.000216813
0.000238038
0.000243558
0.000252929
0.000228602
0.000216582
0.000204905
0.000245035
0.000254476
0.000236252
0.000238111
0.000228108
0.000207047
0.000241892
0.000242694
0.000237616
0.00023895
0.000258822
0.000241892
0.000245594
0.000217039
0.000206218
0.000254228
0.000238282
0.000242827
0.000210962
0.000203176
0.000228173
0.000227924
0.000203537
0.00022998
0.000231196
0.000263831
0.000263751
0.000268675
0.000233546
0.000204365
0.000232042
2.96822e-06
1.93638e-06
1.25785e-06
1.30975e-06
1.27127e-06
1.65603e-06
6.12713e-07
1.27396e-06
1.27051e-06
1.7988e-06
1.24455e-06
5.40148e-06
2.08727e-06
1.29319e-06
1.51357e-06
1.1301e-06
1.39352e-05
1.00034e-06
1.53013e-05
1.09342e-05
1.31688e-05
1.34305e-06
1.48758e-05
1.2338e-06
1.66089e-05
1.54553e-06
1.65402e-06
1.7879e-06
1.58713e-06
1.55715e-06
1.67819e-06
1.8429e-06
1.32868e-06
3.29679e-07
1.55065e-06
1.49087e-06
1.26638e-06
4.3731e-07
1.55609e-06
1.05109e-05
1.28052e-05
1.21001e-06
1.48881e-06
1.31551e-06
1.93379e-06
1.22199e-06
1.46483e-06
1.48357e-06
1.33003e-06
1.57908e-06
2.07591e-06
1.54343e-06
1.77361e-06
1.35512e-06
1.82015e-05
1.26227e-06
2.06138e-05
1.72279e-05
1.93114e-05
1.51501e-06
1.96467e-05
1.42137e-06
2.19973e-05
1.56088e-06
1.68548e-06
1.86271e-06
1.5906e-06
1.59185e-06
1.71947e-06