/*--------------------------------*- C++ -*----------------------------------*\
| =========                 |                                                 |
| \\      /  F ield         | OpenFOAM: The Open Source CFD Toolbox           |
|  \\    /   O peration     | Version:  v2012                                 |
|   \\  /    A nd           | Website:  www.openfoam.com                      |
|    \\/     M anipulation  |                                                 |
\*---------------------------------------------------------------------------*/
FoamFile
{
    version     2.0;
    format      ascii;
    class       volScalarField;
    location    "1962.5";
    object      k;
}
// * * * * * * * * * * * * * * * * * * * * * * * * * * * * * * * * * * * * * //

dimensions      [0 2 -2 0 0 0 0];


internalField   nonuniform List<scalar> 
171728
(
1.45509e-07
2.96096e-07
3.21544e-07
3.56135e-07
1.44342e-07
2.7609e-07
2.66377e-07
3.39675e-07
1.42147e-07
2.55509e-07
2.39129e-07
3.28712e-07
1.38482e-07
2.42321e-07
2.26871e-07
3.19936e-07
1.34709e-07
2.36173e-07
2.17198e-07
3.11025e-07
1.30456e-07
2.27789e-07
2.06943e-07
2.92499e-07
1.26131e-07
2.16691e-07
1.97101e-07
2.70155e-07
1.21968e-07
2.08117e-07
1.88511e-07
2.52955e-07
1.17865e-07
1.99074e-07
1.81162e-07
2.41858e-07
1.14672e-07
1.83239e-07
1.75019e-07
2.33705e-07
1.12242e-07
1.62783e-07
1.69877e-07
2.27821e-07
1.09963e-07
1.48246e-07
1.66324e-07
2.22747e-07
1.07706e-07
1.39325e-07
1.63817e-07
2.16791e-07
1.05558e-07
1.36738e-07
1.62194e-07
2.11152e-07
1.03687e-07
1.37184e-07
1.6194e-07
2.07699e-07
1.01249e-07
1.41033e-07
1.64263e-07
2.07306e-07
9.9615e-08
1.49531e-07
1.7091e-07
2.11445e-07
9.75695e-08
1.69384e-07
1.86998e-07
2.27341e-07
9.59732e-08
1.97969e-07
2.18076e-07
2.6253e-07
9.59553e-08
2.39018e-07
2.66343e-07
3.35651e-07
9.69859e-08
3.33754e-07
3.3671e-07
4.42072e-07
9.8238e-08
4.5101e-07
4.70694e-07
6.75147e-07
9.96496e-08
5.88581e-07
6.07014e-07
1.18096e-06
1.00984e-07
9.70982e-07
8.47224e-07
1.60174e-06
1.04263e-07
1.21703e-06
1.22852e-06
2.48574e-06
1.08753e-07
1.78296e-06
1.49882e-06
3.75497e-06
1.2125e-07
2.73246e-06
2.25893e-06
5.96842e-06
1.31374e-07
2.95414e-06
2.62238e-06
7.5086e-06
1.42307e-07
3.24216e-06
3.53819e-06
9.59108e-06
1.73531e-07
5.15638e-06
4.30984e-06
1.22092e-05
2.16948e-07
5.7163e-06
5.33878e-06
1.53075e-05
2.48085e-07
7.09633e-06
6.56306e-06
1.77733e-05
3.98622e-07
6.85843e-06
7.73958e-06
1.85464e-05
4.94494e-07
9.29476e-06
8.96784e-06
2.24076e-05
5.35589e-07
1.44425e-05
1.06478e-05
2.32795e-05
8.40411e-07
1.21432e-05
1.22947e-05
2.50223e-05
9.28545e-07
1.14406e-05
1.35667e-05
2.65559e-05
1.00266e-06
1.73075e-05
1.56513e-05
2.76481e-05
1.41851e-06
1.97168e-05
1.71659e-05
2.97385e-05
2.00887e-06
1.96254e-05
1.91689e-05
3.05761e-05
2.19472e-06
1.97184e-05
2.09358e-05
3.13006e-05
2.54492e-06
2.33375e-05
2.24927e-05
3.31103e-05
3.7581e-06
2.48645e-05
2.50981e-05
3.37409e-05
3.93015e-06
2.56847e-05
2.57014e-05
3.52492e-05
4.96216e-06
2.78627e-05
2.79298e-05
3.63052e-05
6.17312e-06
3.00854e-05
2.99e-05
3.66402e-05
6.40682e-06
3.04905e-05
3.08844e-05
3.86755e-05
8.21078e-06
3.2936e-05
3.2865e-05
3.95211e-05
9.96395e-06
3.50607e-05
3.47279e-05
4.01779e-05
1.00633e-05
3.48665e-05
3.49794e-05
4.11649e-05
1.07611e-05
3.63932e-05
3.66035e-05
4.18405e-05
1.49929e-05
3.88651e-05
3.87824e-05
4.34887e-05
1.58817e-05
3.92335e-05
3.90786e-05
4.36982e-05
1.61247e-05
3.94299e-05
4.04069e-05
4.49984e-05
1.81267e-05
4.19358e-05
4.17268e-05
4.59825e-05
1.86251e-05
4.33408e-05
4.21722e-05
4.63183e-05
2.08848e-05
4.31283e-05
4.30807e-05
4.62124e-05
2.42571e-05
4.3243e-05
4.48194e-05
4.9414e-05
2.61463e-05
4.60279e-05
4.61097e-05
4.90659e-05
2.61093e-05
4.67123e-05
4.54957e-05
4.73343e-05
2.55627e-05
4.63563e-05
4.55063e-05
4.82363e-05
2.69403e-05
4.65642e-05
4.83894e-05
5.23019e-05
3.07477e-05
4.92493e-05
4.95406e-05
5.32379e-05
3.271e-05
5.02003e-05
4.95444e-05
5.1143e-05
3.27032e-05
5.01671e-05
4.95949e-05
5.04714e-05
3.26446e-05
4.99869e-05
5.0441e-05
5.26536e-05
3.36192e-05
5.06624e-05
5.06538e-05
5.42178e-05
3.49936e-05
5.17289e-05
5.20922e-05
5.42401e-05
3.79104e-05
5.2196e-05
5.26451e-05
5.3412e-05
3.87067e-05
5.36388e-05
5.24986e-05
5.39833e-05
3.73258e-05
5.36976e-05
5.3192e-05
5.52946e-05
3.72117e-05
5.28211e-05
5.42125e-05
5.53125e-05
4.13035e-05
5.3695e-05
5.42738e-05
5.54644e-05
4.29509e-05
5.54183e-05
5.42583e-05
5.6097e-05
4.17156e-05
5.54416e-05
5.49768e-05
5.65429e-05
4.11629e-05
5.4979e-05
5.54503e-05
5.6448e-05
4.19425e-05
5.46845e-05
5.54184e-05
5.64985e-05
4.37927e-05
5.62861e-05
5.55496e-05
5.74547e-05
4.5204e-05
5.69588e-05
5.63832e-05
5.71918e-05
4.48983e-05
5.61068e-05
5.62942e-05
5.65758e-05
4.43456e-05
5.60042e-05
5.63115e-05
5.75755e-05
4.48059e-05
5.65192e-05
5.6591e-05
5.7797e-05
4.59256e-05
5.70763e-05
5.70695e-05
5.83623e-05
4.65002e-05
5.73951e-05
5.77598e-05
5.96574e-05
4.67339e-05
5.75128e-05
5.76698e-05
5.86146e-05
4.64226e-05
5.69987e-05
5.59713e-05
5.52159e-05
4.559e-05
5.59685e-05
5.53692e-05
5.51593e-05
4.598e-05
5.69771e-05
5.80773e-05
6.07195e-05
4.7912e-05
5.851e-05
5.95694e-05
6.2137e-05
4.78475e-05
5.76014e-05
5.73877e-05
5.73529e-05
4.64903e-05
5.61143e-05
5.53093e-05
5.53598e-05
4.62314e-05
5.60729e-05
5.54991e-05
5.70995e-05
4.60861e-05
5.60672e-05
5.65356e-05
5.81721e-05
4.64446e-05
5.72315e-05
5.78263e-05
5.89197e-05
4.75324e-05
5.69181e-05
5.6653e-05
5.84668e-05
3.03549e-07
2.91838e-07
3.12524e-07
3.04648e-07
2.59646e-07
2.94159e-07
1.42506e-07
1.40164e-07
1.41213e-07
1.67173e-07
2.54079e-07
2.9961e-07
3.67927e-07
3.03771e-07
3.45779e-07
3.57348e-07
3.02504e-07
2.87008e-07
3.51257e-07
3.15731e-07
2.88733e-07
3.0527e-07
3.02629e-07
2.91359e-07
2.48925e-07
2.56384e-07
2.42505e-07
2.47646e-07
2.83283e-07
2.8166e-07
2.76743e-07
3.66859e-07
3.43004e-07
4.91285e-07
2.77008e-07
4.93911e-07
3.42388e-07
2.85948e-07
2.70805e-07
2.75894e-07
3.01612e-07
2.56088e-07
2.90379e-07
2.89619e-07
2.78285e-07
2.39972e-07
2.44593e-07
2.34395e-07
2.35771e-07
2.74683e-07
2.60105e-07
2.68597e-07
3.41806e-07
3.19351e-07
4.94164e-07
2.43767e-07
4.95461e-07
3.30711e-07
2.69926e-07
2.57741e-07
2.53884e-07
2.86413e-07
2.4982e-07
2.74313e-07
2.77071e-07
2.64192e-07
2.32994e-07
2.32959e-07
2.28969e-07
2.24788e-07
2.66544e-07
2.44697e-07
2.60606e-07
3.18441e-07
3.00644e-07
4.95407e-07
2.29453e-07
4.88755e-07
3.21951e-07
2.57024e-07
2.46985e-07
2.48413e-07
2.70401e-07
2.43571e-07
2.59894e-07
2.6296e-07
2.53415e-07
2.27769e-07
2.22143e-07
2.24732e-07
2.14285e-07
2.58678e-07
2.37439e-07
2.53265e-07
2.99761e-07
2.83573e-07
4.87105e-07
2.19614e-07
4.6762e-07
3.13486e-07
2.46305e-07
2.37653e-07
2.42095e-07
2.5658e-07
2.37185e-07
2.46778e-07
2.52785e-07
2.45054e-07
2.23745e-07
2.11681e-07
2.20109e-07
2.03814e-07
2.51487e-07
2.30426e-07
2.46275e-07
2.82716e-07
2.66861e-07
4.51422e-07
2.09531e-07
3.83944e-07
2.95476e-07
2.37071e-07
2.2999e-07
2.35414e-07
2.43415e-07
2.30593e-07
2.33181e-07
2.44342e-07
2.35834e-07
2.18761e-07
2.01237e-07
2.1422e-07
1.93965e-07
2.44644e-07
2.19282e-07
2.39703e-07
2.66097e-07
2.5112e-07
3.59678e-07
1.99455e-07
2.9554e-07
2.71766e-07
2.29531e-07
2.23939e-07
2.29275e-07
2.30031e-07
2.25286e-07
2.21468e-07
2.35258e-07
2.27559e-07
2.12629e-07
1.91728e-07
2.08466e-07
1.85566e-07
2.37961e-07
2.10112e-07
2.3234e-07
2.50544e-07
2.37016e-07
2.78168e-07
1.90516e-07
2.4064e-07
2.53773e-07
2.23612e-07
2.18814e-07
2.23641e-07
2.19014e-07
2.17576e-07
2.13571e-07
2.26973e-07
2.18767e-07
2.07347e-07
1.83692e-07
2.04752e-07
1.78625e-07
2.30312e-07
2.01645e-07
2.23887e-07
2.3662e-07
2.24857e-07
2.32723e-07
1.82905e-07
2.20373e-07
2.4233e-07
2.18507e-07
2.12439e-07
2.15274e-07
2.1227e-07
2.07827e-07
2.08842e-07
2.18257e-07
2.10574e-07
2.03948e-07
1.77129e-07
2.00188e-07
1.73091e-07
2.21799e-07
1.88039e-07
2.15725e-07
2.24577e-07
2.14216e-07
2.19219e-07
1.76448e-07
2.18958e-07
2.34e-07
2.11897e-07
2.01437e-07
2.05317e-07
2.08024e-07
1.98759e-07
2.06982e-07
2.10029e-07
1.99042e-07
1.98325e-07
1.71934e-07
1.92202e-07
1.68833e-07
2.13754e-07
1.67572e-07
2.08469e-07
2.14021e-07
2.0515e-07
2.19441e-07
1.70977e-07
2.23349e-07
2.27992e-07
2.00571e-07
1.88893e-07
1.97104e-07
2.06492e-07
1.93377e-07
2.05176e-07
1.98316e-07
1.88469e-07
1.90173e-07
1.67844e-07
1.84156e-07
1.65169e-07
2.0689e-07
1.51211e-07
2.02291e-07
2.05094e-07
1.97642e-07
2.24597e-07
1.67025e-07
2.27612e-07
2.22895e-07
1.88124e-07
1.77152e-07
1.92324e-07
2.0518e-07
1.88894e-07
2.05955e-07
1.88279e-07
1.81911e-07
1.82113e-07
1.64305e-07
1.77888e-07
1.62216e-07
2.00665e-07
1.40948e-07
1.96346e-07
1.97701e-07
1.91261e-07
2.28172e-07
1.64487e-07
2.28208e-07
2.1691e-07
1.76387e-07
1.64679e-07
1.87827e-07
2.0667e-07
1.85577e-07
2.08748e-07
1.81865e-07
1.75789e-07
1.77099e-07
1.6159e-07
1.74986e-07
1.60153e-07
1.95412e-07
1.369e-07
1.92984e-07
1.91419e-07
1.85685e-07
2.26988e-07
1.62597e-07
2.21006e-07
2.11027e-07
1.64107e-07
1.54555e-07
1.85072e-07
2.10327e-07
1.85384e-07
2.22457e-07
1.76058e-07
1.75606e-07
1.74395e-07
1.59723e-07
1.71344e-07
1.59932e-07
1.92944e-07
1.36859e-07
1.94046e-07
1.85984e-07
1.81485e-07
2.18872e-07
1.61857e-07
2.11159e-07
2.07228e-07
1.54603e-07
1.51541e-07
1.85991e-07
2.29221e-07
1.90425e-07
2.56482e-07
1.76906e-07
1.81127e-07
1.70239e-07
1.60421e-07
1.66866e-07
1.63745e-07
1.95337e-07
1.39961e-07
1.99173e-07
1.82175e-07
1.80762e-07
2.08556e-07
1.63582e-07
2.02795e-07
2.06111e-07
1.5273e-07
1.5558e-07
1.92818e-07
2.67152e-07
2.01141e-07
3.01624e-07
1.83679e-07
1.92147e-07
1.65686e-07
1.6492e-07
1.65763e-07
1.73021e-07
2.00239e-07
1.4742e-07
2.0333e-07
1.82298e-07
1.85714e-07
2.00697e-07
1.6895e-07
1.99044e-07
2.08462e-07
1.58438e-07
1.69431e-07
2.04411e-07
3.12651e-07
2.17394e-07
3.4206e-07
1.9603e-07
2.06956e-07
1.66515e-07
1.75715e-07
1.74237e-07
1.89792e-07
2.06149e-07
1.62479e-07
2.16181e-07
1.88856e-07
1.98001e-07
1.999e-07
1.81991e-07
2.07968e-07
2.214e-07
1.74861e-07
1.9879e-07
2.21299e-07
3.50244e-07
2.42967e-07
3.61924e-07
2.13921e-07
2.31016e-07
1.77408e-07
1.95342e-07
1.98874e-07
2.17079e-07
2.21814e-07
1.8554e-07
2.4662e-07
2.04822e-07
2.25208e-07
2.12047e-07
2.07174e-07
2.3454e-07
2.5063e-07
2.10209e-07
2.5716e-07
2.51393e-07
3.67705e-07
2.85401e-07
3.82414e-07
2.41532e-07
2.72977e-07
2.06797e-07
2.2778e-07
2.38071e-07
2.63151e-07
2.55499e-07
2.28771e-07
3.09064e-07
2.37193e-07
2.88222e-07
2.40849e-07
2.49549e-07
2.78732e-07
3.10274e-07
2.77211e-07
3.61184e-07
3.01493e-07
3.86591e-07
3.53502e-07
4.47497e-07
2.86435e-07
4.03439e-07
2.53844e-07
2.81971e-07
3.05923e-07
3.33488e-07
3.29698e-07
3.08959e-07
3.81236e-07
3.10934e-07
3.9249e-07
2.96593e-07
3.20573e-07
3.31361e-07
4.06963e-07
3.93539e-07
5.80239e-07
3.75475e-07
4.75065e-07
4.73707e-07
5.73796e-07
4.48972e-07
5.87737e-07
3.25746e-07
3.4935e-07
4.23404e-07
4.51091e-07
4.18743e-07
3.96507e-07
5.20935e-07
4.18388e-07
6.11207e-07
3.6144e-07
4.30336e-07
4.50394e-07
6.48358e-07
6.45649e-07
8.88144e-07
5.09834e-07
6.23659e-07
6.08514e-07
7.40331e-07
6.51677e-07
9.18402e-07
4.53606e-07
4.94351e-07
5.50325e-07
5.78129e-07
5.32496e-07
5.60295e-07
6.55565e-07
6.87516e-07
9.10777e-07
4.6238e-07
5.55084e-07
5.98046e-07
9.77086e-07
1.00166e-06
1.54806e-06
6.78064e-07
7.63598e-07
8.61181e-07
1.02229e-06
9.67628e-07
1.68425e-06
6.20672e-07
6.26697e-07
7.93089e-07
8.30183e-07
7.48631e-07
8.87327e-07
8.54202e-07
9.79428e-07
1.55203e-06
6.73471e-07
7.96135e-07
7.93505e-07
1.55164e-06
1.62427e-06
2.27369e-06
8.88421e-07
1.11816e-06
1.1544e-06
1.20438e-06
1.91869e-06
2.22936e-06
8.25351e-07
8.87786e-07
1.0719e-06
1.14391e-06
8.66424e-07
1.09651e-06
1.0507e-06
1.71722e-06
2.39367e-06
8.46189e-07
1.13165e-06
1.0875e-06
2.23449e-06
2.60181e-06
3.60218e-06
1.29174e-06
1.23699e-06
1.52806e-06
1.54975e-06
2.3186e-06
3.73001e-06
1.19758e-06
1.23524e-06
1.47326e-06
1.42387e-06
1.16115e-06
1.69341e-06
1.4596e-06
2.61232e-06
3.35654e-06
1.17205e-06
1.39589e-06
1.45955e-06
3.46871e-06
3.71011e-06
4.98283e-06
1.5633e-06
1.67318e-06
2.08403e-06
2.29442e-06
4.14878e-06
5.86176e-06
1.51703e-06
1.54372e-06
1.96445e-06
2.13224e-06
1.58308e-06
2.48793e-06
2.12612e-06
3.56555e-06
5.49871e-06
1.59831e-06
2.07863e-06
2.05269e-06
5.51838e-06
5.63974e-06
7.71108e-06
2.32936e-06
2.43086e-06
2.7086e-06
2.53305e-06
6.34985e-06
7.11207e-06
2.18766e-06
2.28489e-06
2.62553e-06
2.51332e-06
2.2853e-06
2.95173e-06
2.62306e-06
6.01995e-06
7.07123e-06
2.21461e-06
2.50492e-06
2.62365e-06
7.27498e-06
7.86966e-06
8.73531e-06
2.81234e-06
2.54405e-06
3.13371e-06
3.01114e-06
7.14849e-06
8.05641e-06
2.74674e-06
2.67295e-06
3.18472e-06
3.40403e-06
2.71359e-06
3.03614e-06
3.23618e-06
7.26403e-06
9.36551e-06
2.72312e-06
3.36022e-06
3.24288e-06
9.06882e-06
9.27057e-06
1.19849e-05
3.41681e-06
3.48593e-06
4.24106e-06
4.61326e-06
8.84738e-06
1.29688e-05
3.38862e-06
3.5725e-06
4.17367e-06
4.04587e-06
3.52241e-06
4.83321e-06
4.149e-06
1.0012e-05
1.17434e-05
3.52497e-06
4.0105e-06
4.14848e-06
1.17198e-05
1.25405e-05
1.46146e-05
4.43923e-06
4.82884e-06
5.32962e-06
5.13413e-06
1.36793e-05
1.50892e-05
4.43509e-06
4.35162e-06
5.23483e-06
5.20811e-06
4.31018e-06
5.5449e-06
5.48508e-06
1.21232e-05
1.43408e-05
4.2503e-06
5.16378e-06
5.26575e-06
1.46224e-05
1.50959e-05
1.62314e-05
5.62904e-06
5.33118e-06
6.06606e-06
6.67191e-06
1.54138e-05
1.77237e-05
5.53158e-06
5.33477e-06
6.14701e-06
6.18423e-06
6.00988e-06
6.97658e-06
7.05583e-06
1.49097e-05
1.67997e-05
5.74905e-06
6.12118e-06
6.56943e-06
1.75393e-05
1.65843e-05
1.95569e-05
6.22753e-06
6.88284e-06
7.74744e-06
7.00797e-06
1.80417e-05
1.74479e-05
6.24731e-06
6.65437e-06
7.48271e-06
7.684e-06
7.18435e-06
6.89821e-06
7.32631e-06
1.7321e-05
1.93033e-05
6.64717e-06
7.59579e-06
6.98686e-06
1.81786e-05
2.0277e-05
2.14743e-05
8.3549e-06
7.03356e-06
9.35098e-06
7.77603e-06
1.74985e-05
2.01969e-05
8.32109e-06
7.81353e-06
9.91065e-06
8.40948e-06
7.40058e-06
7.53466e-06
8.59783e-06
1.96769e-05
2.06529e-05
7.48835e-06
8.49779e-06
1.0257e-05
2.18106e-05
2.16876e-05
2.24276e-05
9.45207e-06
9.12877e-06
9.73388e-06
1.18008e-05
2.18579e-05
2.55054e-05
1.00648e-05
8.93293e-06
1.02453e-05
1.04593e-05
9.16083e-06
1.41991e-05
1.08338e-05
2.10864e-05
2.31519e-05
1.05801e-05
1.0394e-05
1.07021e-05
2.30367e-05
2.28786e-05
2.53343e-05
1.00062e-05
1.19975e-05
1.29654e-05
1.19632e-05
2.55724e-05
2.41457e-05
1.0337e-05
1.06954e-05
1.20329e-05
1.18347e-05
1.13106e-05
1.33105e-05
1.2528e-05
2.36284e-05
2.4704e-05
1.07056e-05
1.17365e-05
1.10261e-05
2.45181e-05
2.58254e-05
2.61823e-05
1.35665e-05
1.19118e-05
1.39393e-05
1.1998e-05
2.4089e-05
2.42723e-05
1.28525e-05
1.23723e-05
1.39227e-05
1.3413e-05
1.27965e-05
1.13094e-05
1.31237e-05
2.50461e-05
2.61445e-05
1.1781e-05
1.33143e-05
1.44154e-05
2.63417e-05
2.63178e-05
2.69686e-05
1.39367e-05
1.22809e-05
1.40451e-05
1.47335e-05
2.49408e-05
2.83302e-05
1.40165e-05
1.36246e-05
1.48267e-05
1.49598e-05
1.32022e-05
1.57889e-05
1.47009e-05
2.64796e-05
2.75999e-05
1.47528e-05
1.49853e-05
1.52629e-05
2.72537e-05
2.73916e-05
2.9281e-05
1.43758e-05
1.57904e-05
1.69354e-05
1.81985e-05
2.8931e-05
2.99768e-05
1.54685e-05
1.56486e-05
1.67353e-05
1.70076e-05
1.55485e-05
1.9525e-05
1.72061e-05
2.79708e-05
2.89292e-05
1.5608e-05
1.70083e-05
1.68998e-05
2.93669e-05
2.96951e-05
3.05632e-05
1.76576e-05
1.85571e-05
1.95523e-05
1.88495e-05
3.01272e-05
3.00431e-05
1.72208e-05
1.71844e-05
1.9173e-05
1.85236e-05
1.77194e-05
1.97357e-05
1.92203e-05
2.92183e-05
3.0275e-05
1.74743e-05
1.84553e-05
1.91206e-05
3.03995e-05
3.07402e-05
3.09742e-05
1.99082e-05
1.8865e-05
2.0291e-05
1.91843e-05
3.01156e-05
3.07029e-05
1.96481e-05
1.91138e-05
2.02122e-05
2.04478e-05
1.95181e-05
1.96086e-05
1.99121e-05
3.05916e-05
3.12982e-05
1.94323e-05
2.07286e-05
1.98424e-05
3.1036e-05
3.11823e-05
3.26142e-05
2.03666e-05
1.96985e-05
2.15803e-05
2.23015e-05
3.11006e-05
3.29628e-05
2.0306e-05
2.07354e-05
2.17283e-05
2.22312e-05
2.01017e-05
2.23513e-05
2.24388e-05
3.15217e-05
3.2616e-05
2.00841e-05
2.16875e-05
2.24212e-05
3.2773e-05
3.31199e-05
3.40389e-05
2.2715e-05
2.32629e-05
2.48556e-05
2.49673e-05
3.3405e-05
3.40938e-05
2.27786e-05
2.29817e-05
2.47576e-05
2.46419e-05
2.31939e-05
2.4606e-05
2.41812e-05
3.3023e-05
3.40129e-05
2.30883e-05
2.47251e-05
2.3934e-05
3.35879e-05
3.41409e-05
3.43353e-05
2.50891e-05
2.51382e-05
2.53261e-05
2.53072e-05
3.41921e-05
3.4387e-05
2.49801e-05
2.48675e-05
2.52368e-05
2.51648e-05
2.42735e-05
2.54183e-05
2.52329e-05
3.41602e-05
3.43808e-05
2.40395e-05
2.55149e-05
2.55389e-05
3.47857e-05
3.45652e-05
3.62783e-05
2.54739e-05
2.5435e-05
2.75603e-05
2.68921e-05
3.45825e-05
3.58755e-05
2.53956e-05
2.53196e-05
2.76943e-05
2.7725e-05
2.61973e-05
2.71989e-05
2.81535e-05
3.45619e-05
3.61656e-05
2.64453e-05
2.75212e-05
2.81228e-05
3.62103e-05
3.66366e-05
3.70239e-05
2.83421e-05
2.77827e-05
2.95216e-05
3.01031e-05
3.62894e-05
3.74631e-05
2.85155e-05
2.8612e-05
2.96162e-05
3.00162e-05
2.83873e-05
2.97317e-05
2.86298e-05
3.6558e-05
3.72818e-05
2.83061e-05
2.93812e-05
2.85255e-05
3.64457e-05
3.7088e-05
3.76555e-05
2.96227e-05
3.0394e-05
3.01792e-05
3.05406e-05
3.75791e-05
3.73868e-05
2.96921e-05
3.01873e-05
2.99701e-05
3.04442e-05
2.87667e-05
3.04333e-05
3.08348e-05
3.74443e-05
3.78094e-05
2.87027e-05
3.07403e-05
3.0779e-05
3.82883e-05
3.80508e-05
3.96239e-05
3.08379e-05
3.0564e-05
3.29568e-05
3.12317e-05
3.74247e-05
3.90353e-05
3.03952e-05
3.06012e-05
3.26682e-05
3.21409e-05
3.16394e-05
3.1557e-05
3.29333e-05
3.79585e-05
3.92019e-05
3.15116e-05
3.21627e-05
3.2813e-05
3.94128e-05
3.98723e-05
4.02337e-05
3.35113e-05
3.26125e-05
3.42425e-05
3.51864e-05
3.98835e-05
4.13937e-05
3.33061e-05
3.29113e-05
3.43241e-05
3.45122e-05
3.30853e-05
3.50151e-05
3.34442e-05
3.95947e-05
4.04789e-05
3.29608e-05
3.44934e-05
3.36243e-05
3.99139e-05
4.02793e-05
4.01636e-05
3.42629e-05
3.52317e-05
3.42209e-05
3.47995e-05
4.13333e-05
3.99487e-05
3.44111e-05
3.47052e-05
3.44892e-05
3.48711e-05
3.39179e-05
3.48684e-05
3.54449e-05
4.05569e-05
4.0587e-05
3.41953e-05
3.49372e-05
3.52012e-05
4.10718e-05
4.02524e-05
4.20356e-05
3.42318e-05
3.47665e-05
3.5641e-05
3.51946e-05
3.9973e-05
4.17226e-05
3.45578e-05
3.49246e-05
3.63877e-05
3.60067e-05
3.56235e-05
3.54009e-05
3.58796e-05
4.06977e-05
4.18564e-05
3.52879e-05
3.57938e-05
3.57719e-05
4.15421e-05
4.26351e-05
4.40474e-05
3.69741e-05
3.61611e-05
3.9395e-05
3.87043e-05
4.24174e-05
4.37532e-05
3.72081e-05
3.67965e-05
3.86009e-05
3.85049e-05
3.61053e-05
3.85598e-05
3.81358e-05
4.22867e-05
4.34962e-05
3.64671e-05
3.84878e-05
3.83094e-05
4.33312e-05
4.4099e-05
4.36919e-05
3.96147e-05
3.9061e-05
3.95995e-05
3.94111e-05
4.38045e-05
4.37945e-05
3.87227e-05
3.87563e-05
3.87967e-05
3.89692e-05
3.86047e-05
3.92063e-05
3.91293e-05
4.36165e-05
4.36469e-05
3.85693e-05
3.90483e-05
3.87987e-05
4.36145e-05
4.37141e-05
4.46546e-05
3.9538e-05
3.94263e-05
3.96203e-05
3.94411e-05
4.38625e-05
4.39107e-05
3.88412e-05
3.89964e-05
4.0142e-05
3.97258e-05
3.91844e-05
3.93151e-05
3.99024e-05
4.36783e-05
4.46462e-05
3.88535e-05
3.97498e-05
3.98803e-05
4.46573e-05
4.49948e-05
4.51849e-05
3.99066e-05
3.94736e-05
4.09047e-05
4.09741e-05
4.39824e-05
4.56406e-05
4.07253e-05
4.04453e-05
4.12686e-05
4.17296e-05
4.03926e-05
4.12494e-05
4.13994e-05
4.50626e-05
4.58038e-05
4.04825e-05
4.15918e-05
4.1636e-05
4.58358e-05
4.51464e-05
4.48814e-05
4.10158e-05
4.17699e-05
4.11772e-05
4.31113e-05
4.614e-05
4.73059e-05
4.12553e-05
4.18507e-05
4.1185e-05
4.19051e-05
4.16926e-05
4.32393e-05
4.23977e-05
4.5859e-05
4.58756e-05
4.19054e-05
4.19507e-05
4.23974e-05
4.62908e-05
4.5109e-05
4.74799e-05
4.13093e-05
4.32523e-05
4.33156e-05
4.32698e-05
4.73687e-05
4.68367e-05
4.12432e-05
4.19147e-05
4.31006e-05
4.2667e-05
4.24738e-05
4.3233e-05
4.25899e-05
4.59556e-05
4.66776e-05
4.24121e-05
4.2922e-05
4.24739e-05
4.61505e-05
4.79431e-05
4.9096e-05
4.40089e-05
4.32449e-05
4.53627e-05
4.32849e-05
4.67951e-05
4.65312e-05
4.38312e-05
4.3155e-05
4.53837e-05
4.4649e-05
4.27065e-05
4.31285e-05
4.4798e-05
4.69186e-05
4.82113e-05
4.25996e-05
4.41902e-05
4.48439e-05
4.89893e-05
4.92643e-05
4.93235e-05
4.5648e-05
4.3398e-05
4.5982e-05
4.52748e-05
4.66992e-05
4.89002e-05
4.57334e-05
4.5197e-05
4.61349e-05
4.6089e-05
4.54745e-05
4.53988e-05
4.59693e-05
4.85825e-05
4.93557e-05
4.54909e-05
4.60606e-05
4.59273e-05
4.92309e-05
4.92944e-05
4.82496e-05
4.59773e-05
4.58507e-05
4.55929e-05
4.663e-05
4.92835e-05
4.9734e-05
4.61299e-05
4.61059e-05
4.56074e-05
4.55823e-05
4.59126e-05
4.66996e-05
4.50183e-05
4.93606e-05
4.81681e-05
4.58525e-05
4.57246e-05
4.49038e-05
4.73538e-05
4.82029e-05
4.79565e-05
4.54737e-05
4.66651e-05
4.53963e-05
4.65009e-05
4.97507e-05
4.91982e-05
4.53474e-05
4.52969e-05
4.51019e-05
4.51602e-05
4.48815e-05
4.64615e-05
4.48951e-05
4.80946e-05
4.81532e-05
4.47728e-05
4.54026e-05
4.48159e-05
4.77987e-05
4.80951e-05
5.0201e-05
4.54405e-05
4.639e-05
4.68335e-05
4.63791e-05
4.91711e-05
4.91988e-05
4.51369e-05
4.52952e-05
4.6984e-05
4.77625e-05
4.51262e-05
4.63609e-05
4.79725e-05
4.85027e-05
5.10662e-05
4.51019e-05
4.76685e-05
4.8239e-05
5.16994e-05
5.07461e-05
5.22987e-05
4.75543e-05
4.65264e-05
4.94198e-05
4.85508e-05
4.94863e-05
5.14462e-05
4.78963e-05
4.8482e-05
4.96641e-05
4.94598e-05
4.89387e-05
4.87278e-05
5.03614e-05
5.14613e-05
5.19273e-05
4.91805e-05
4.9445e-05
5.03683e-05
5.32784e-05
5.24375e-05
5.23222e-05
4.97944e-05
4.9101e-05
5.01283e-05
5.00331e-05
5.1752e-05
5.23916e-05
4.99154e-05
4.95321e-05
5.00546e-05
4.95337e-05
5.04006e-05
5.00976e-05
4.98174e-05
5.19343e-05
5.16727e-05
5.03817e-05
4.95748e-05
4.96209e-05
5.13619e-05
5.22776e-05
5.16575e-05
5.01106e-05
5.02125e-05
4.97232e-05
5.03704e-05
5.24842e-05
5.25627e-05
4.99769e-05
4.95156e-05
4.95169e-05
4.95592e-05
4.93107e-05
5.0227e-05
4.86465e-05
5.1683e-05
5.19211e-05
4.91142e-05
4.95384e-05
4.85258e-05
5.03947e-05
5.16712e-05
5.21718e-05
4.96806e-05
5.03599e-05
4.98426e-05
5.00973e-05
5.25697e-05
5.21291e-05
4.95047e-05
4.97022e-05
4.99786e-05
5.0411e-05
4.86393e-05
4.99847e-05
4.94864e-05
5.20867e-05
5.25886e-05
4.85297e-05
5.03028e-05
4.97168e-05
5.21741e-05
5.23064e-05
5.22857e-05
5.00739e-05
5.00381e-05
5.03198e-05
5.00294e-05
5.21257e-05
5.22245e-05
5.02443e-05
5.04754e-05
5.04628e-05
5.0517e-05
5.02146e-05
5.03625e-05
5.17603e-05
5.25996e-05
5.24017e-05
5.04354e-05
5.05954e-05
5.1787e-05
5.40542e-05
5.23011e-05
5.34101e-05
5.03539e-05
5.01156e-05
5.10398e-05
5.12035e-05
5.24015e-05
5.33826e-05
5.04859e-05
5.05427e-05
5.09651e-05
5.12898e-05
5.20531e-05
5.15449e-05
5.23161e-05
5.24374e-05
5.3733e-05
5.20105e-05
5.16432e-05
5.22192e-05
5.42785e-05
5.3965e-05
5.5936e-05
5.1898e-05
5.15617e-05
5.39006e-05
5.26083e-05
5.35618e-05
5.41172e-05
5.17167e-05
5.18754e-05
5.36693e-05
5.28516e-05
5.22959e-05
5.20029e-05
5.18599e-05
5.4079e-05
5.45682e-05
5.2213e-05
5.26405e-05
5.19398e-05
5.34196e-05
5.60547e-05
5.52561e-05
5.41207e-05
5.29925e-05
5.40173e-05
5.37167e-05
5.43142e-05
5.54053e-05
5.39074e-05
5.29175e-05
5.38789e-05
5.28581e-05
5.1807e-05
5.33415e-05
5.19173e-05
5.45606e-05
5.4088e-05
5.18809e-05
5.25082e-05
5.19066e-05
5.37303e-05
5.48873e-05
5.22591e-05
5.35469e-05
5.37393e-05
5.11777e-05
5.32754e-05
5.5509e-05
5.50239e-05
5.35599e-05
5.27811e-05
5.16488e-05
5.27539e-05
5.22627e-05
5.37882e-05
5.35434e-05
5.40887e-05
5.45302e-05
5.20582e-05
5.2737e-05
5.32838e-05
5.51618e-05
5.21766e-05
5.34684e-05
5.09283e-05
5.27777e-05
5.11914e-05
5.21925e-05
5.48528e-05
5.38528e-05
5.14332e-05
5.28302e-05
5.16315e-05
5.36639e-05
5.37157e-05
5.28835e-05
5.3786e-05
5.4791e-05
5.57159e-05
5.35777e-05
5.4109e-05
5.39352e-05
5.53094e-05
5.43031e-05
5.81451e-05
5.21132e-05
5.22143e-05
5.61792e-05
5.38978e-05
5.38606e-05
5.54015e-05
5.23778e-05
5.39319e-05
5.56487e-05
5.44522e-05
5.37479e-05
5.30878e-05
5.37429e-05
5.57996e-05
5.57634e-05
5.39551e-05
5.42805e-05
5.39997e-05
5.53562e-05
5.84216e-05
5.79159e-05
5.68142e-05
5.48011e-05
5.70858e-05
5.6004e-05
5.58897e-05
5.70755e-05
5.61279e-05
5.4511e-05
5.62863e-05
5.45119e-05
5.3808e-05
5.52524e-05
5.45661e-05
5.57559e-05
5.55703e-05
5.40692e-05
5.42477e-05
5.44417e-05
5.60154e-05
5.75673e-05
5.50776e-05
5.68511e-05
5.60349e-05
5.44542e-05
5.55554e-05
5.70924e-05
5.65591e-05
5.60291e-05
5.44832e-05
5.42826e-05
5.44894e-05
5.47771e-05
5.5477e-05
5.52634e-05
5.55831e-05
5.59971e-05
5.45652e-05
5.47678e-05
5.50749e-05
5.6475e-05
5.49438e-05
5.50165e-05
5.39498e-05
5.52015e-05
5.35291e-05
5.44308e-05
5.65186e-05
5.60316e-05
5.40498e-05
5.4562e-05
5.40236e-05
5.51498e-05
5.53384e-05
5.5164e-05
5.53492e-05
5.61283e-05
5.66355e-05
5.52063e-05
5.5393e-05
5.53172e-05
5.6463e-05
5.52237e-05
5.6206e-05
5.35476e-05
5.42528e-05
5.43714e-05
5.41275e-05
5.59629e-05
5.55429e-05
5.42674e-05
5.53613e-05
5.51927e-05
5.55826e-05
5.52774e-05
5.46795e-05
5.51516e-05
5.67198e-05
5.66786e-05
5.53126e-05
5.54525e-05
5.53033e-05
5.63957e-05
5.63675e-05
5.75408e-05
5.47477e-05
5.42074e-05
5.62839e-05
5.60365e-05
5.55667e-05
5.7422e-05
5.53291e-05
5.55793e-05
5.60242e-05
5.55884e-05
5.51694e-05
5.56453e-05
5.59152e-05
5.6665e-05
5.66313e-05
5.53438e-05
5.54343e-05
5.59326e-05
5.73384e-05
5.78295e-05
5.84299e-05
5.67906e-05
5.66669e-05
5.73831e-05
5.73099e-05
5.77955e-05
5.83792e-05
5.63699e-05
5.56649e-05
5.69253e-05
5.63629e-05
5.61838e-05
5.69702e-05
5.63464e-05
5.67573e-05
5.75267e-05
5.6092e-05
5.63045e-05
5.61888e-05
5.72946e-05
5.84224e-05
5.70647e-05
5.73709e-05
5.72928e-05
5.64382e-05
5.64267e-05
5.83158e-05
5.70884e-05
5.69262e-05
5.64372e-05
5.6373e-05
5.63818e-05
5.62809e-05
5.63034e-05
5.57903e-05
5.75614e-05
5.72995e-05
5.61339e-05
5.63551e-05
5.57802e-05
5.65671e-05
5.68956e-05
5.65851e-05
5.60282e-05
5.61417e-05
5.56366e-05
5.58996e-05
5.70118e-05
5.69916e-05
5.60628e-05
5.62869e-05
5.57702e-05
5.62216e-05
5.57662e-05
5.59783e-05
5.6077e-05
5.72826e-05
5.73262e-05
5.57676e-05
5.62672e-05
5.61273e-05
5.7395e-05
5.66924e-05
5.75335e-05
5.56468e-05
5.59083e-05
5.62478e-05
5.63081e-05
5.70803e-05
5.75037e-05
5.57847e-05
5.62482e-05
5.63786e-05
5.66383e-05
5.63731e-05
5.64051e-05
5.67488e-05
5.74125e-05
5.76942e-05
5.63896e-05
5.65663e-05
5.6682e-05
5.77935e-05
5.76782e-05
5.80776e-05
5.64995e-05
5.64691e-05
5.70465e-05
5.69175e-05
5.75741e-05
5.79207e-05
5.6603e-05
5.67156e-05
5.70118e-05
5.68082e-05
5.67725e-05
5.69326e-05
5.69914e-05
5.77117e-05
5.77895e-05
5.67034e-05
5.68486e-05
5.70428e-05
5.80829e-05
5.81618e-05
5.8502e-05
5.71864e-05
5.70384e-05
5.74638e-05
5.71998e-05
5.80172e-05
5.82439e-05
5.7113e-05
5.68709e-05
5.74305e-05
5.73598e-05
5.73264e-05
5.73346e-05
5.81886e-05
5.78892e-05
5.85591e-05
5.74725e-05
5.76763e-05
5.84204e-05
5.9592e-05
5.8559e-05
5.85884e-05
5.75153e-05
5.72613e-05
5.75544e-05
5.75306e-05
5.82824e-05
5.85031e-05
5.75156e-05
5.74985e-05
5.75822e-05
5.75982e-05
5.82544e-05
5.75127e-05
5.81108e-05
5.86475e-05
5.86357e-05
5.84863e-05
5.77581e-05
5.82939e-05
5.89747e-05
5.85772e-05
5.76882e-05
5.75433e-05
5.75598e-05
5.71259e-05
5.74944e-05
5.85363e-05
5.8299e-05
5.75679e-05
5.75777e-05
5.70038e-05
5.6869e-05
5.77444e-05
5.7329e-05
5.55041e-05
5.85684e-05
5.73018e-05
5.78205e-05
5.64471e-05
5.52017e-05
5.55536e-05
5.74817e-05
5.66736e-05
5.67334e-05
5.73238e-05
5.59661e-05
5.62335e-05
5.81471e-05
5.69786e-05
5.6579e-05
5.64367e-05
5.58689e-05
5.57696e-05
5.49489e-05
5.60407e-05
5.45254e-05
5.70867e-05
5.64073e-05
5.45671e-05
5.53538e-05
5.40944e-05
5.47952e-05
5.66859e-05
5.80562e-05
5.59363e-05
5.60912e-05
5.64272e-05
5.61683e-05
5.69483e-05
5.7511e-05
5.58565e-05
5.57667e-05
5.65708e-05
5.67187e-05
5.46446e-05
5.63011e-05
5.78793e-05
5.64427e-05
5.84986e-05
5.42324e-05
5.70224e-05
5.79935e-05
5.9981e-05
5.84615e-05
5.96581e-05
5.70951e-05
5.65126e-05
5.8339e-05
5.80604e-05
5.78788e-05
5.93517e-05
5.73034e-05
5.75897e-05
5.85223e-05
5.89519e-05
5.90611e-05
5.84169e-05
6.02946e-05
5.90175e-05
6.04486e-05
5.93705e-05
5.95487e-05
6.08293e-05
6.22126e-05
5.96794e-05
5.85105e-05
5.84073e-05
5.8232e-05
5.80515e-05
5.816e-05
5.94208e-05
5.88115e-05
5.8569e-05
5.89929e-05
5.80339e-05
5.82938e-05
6.02634e-05
5.81967e-05
5.79401e-05
6.04617e-05
5.8649e-05
6.07982e-05
5.84046e-05
5.81737e-05
5.80352e-05
5.82224e-05
5.72779e-05
5.75097e-05
5.78484e-05
5.64929e-05
5.6616e-05
5.85772e-05
5.73793e-05
5.73932e-05
5.74866e-05
5.63102e-05
5.59097e-05
5.67409e-05
5.6263e-05
5.49353e-05
5.82238e-05
5.65788e-05
5.67649e-05
5.54971e-05
5.45855e-05
5.53505e-05
5.72981e-05
5.77307e-05
5.6439e-05
5.64412e-05
5.64609e-05
5.6245e-05
5.73597e-05
5.73191e-05
5.62668e-05
5.57512e-05
5.63913e-05
5.57126e-05
5.48666e-05
5.6047e-05
5.53965e-05
5.65551e-05
5.6769e-05
5.44837e-05
5.52895e-05
5.49898e-05
5.67603e-05
5.77468e-05
5.70019e-05
5.64543e-05
5.61779e-05
5.60318e-05
5.58649e-05
5.73178e-05
5.69022e-05
5.64018e-05
5.58191e-05
5.61231e-05
5.60332e-05
5.59496e-05
5.60581e-05
5.67271e-05
5.68713e-05
5.72212e-05
5.56519e-05
5.62021e-05
5.68265e-05
5.80519e-05
5.69489e-05
5.7364e-05
5.59431e-05
5.58602e-05
5.60705e-05
5.6395e-05
5.69066e-05
5.79964e-05
5.60568e-05
5.6158e-05
5.6197e-05
5.71912e-05
5.6902e-05
5.67244e-05
5.73933e-05
5.735e-05
5.8734e-05
5.71337e-05
5.75989e-05
5.77539e-05
5.8831e-05
5.77549e-05
5.92175e-05
5.65262e-05
5.70615e-05
5.79066e-05
5.79969e-05
5.83549e-05
5.92902e-05
5.66478e-05
5.75356e-05
5.77818e-05
5.78131e-05
5.75373e-05
5.7858e-05
5.75997e-05
5.8941e-05
5.90731e-05
5.78372e-05
5.79065e-05
5.76768e-05
5.87029e-05
5.92018e-05
5.70101e-05
5.7051e-05
5.92399e-05
5.6876e-05
5.66921e-05
4.76299e-05
4.75547e-05
4.74593e-05
5.64855e-05
5.88188e-05
5.64104e-05
1.95735e-08
2.04839e-07
3.95115e-08
4.75423e-08
2.8028e-07
2.6295e-07
3.43349e-07
1.40948e-07
2.75101e-07
3.10867e-07
1.13031e-07
1.12853e-06
3.64715e-07
2.2056e-07
2.93456e-07
2.92528e-07
5.72808e-06
2.50066e-07
7.57865e-06
1.34002e-05
2.07753e-05
3.59411e-07
4.94416e-06
3.20623e-07
6.30406e-06
1.43502e-07
1.43718e-07
1.70849e-07
1.45077e-07
1.43033e-07
1.43016e-07
1.70603e-07
2.62957e-07
7.20678e-07
2.57702e-07
2.92143e-07
2.70023e-07
6.90233e-07
2.56566e-07
1.30563e-05
2.03926e-05
2.49276e-07
2.19359e-07
1.35929e-06
3.04291e-07
2.57995e-07
2.17102e-07
1.24562e-06
1.85505e-06
1.8987e-06
3.50106e-07
1.82745e-06
1.87403e-06
4.9948e-07
1.09367e-05
4.0548e-07
1.39479e-05
3.57867e-05
4.58925e-05
5.49963e-07
9.67363e-06
4.64358e-07
1.29719e-05
1.41909e-07
1.41946e-07
1.69288e-07
1.43018e-07
1.38471e-07