/*--------------------------------*- C++ -*----------------------------------*\
| =========                 |                                                 |
| \\      /  F ield         | OpenFOAM: The Open Source CFD Toolbox           |
|  \\    /   O peration     | Version:  v2012                                 |
|   \\  /    A nd           | Website:  www.openfoam.com                      |
|    \\/     M anipulation  |                                                 |
\*---------------------------------------------------------------------------*/
FoamFile
{
    version     2.0;
    format      ascii;
    class       volScalarField;
    location    "1687.5";
    object      nut;
}
// * * * * * * * * * * * * * * * * * * * * * * * * * * * * * * * * * * * * * //

dimensions      [0 2 -1 0 0 0 0];


internalField   nonuniform List<scalar> 
171728
(
1.91531e-06
1.74116e-06
2.17129e-06
2.2707e-06
1.97449e-06
1.7235e-06
2.1444e-06
2.22502e-06
1.96095e-06
1.72282e-06
2.12514e-06
2.17919e-06
1.97535e-06
1.72352e-06
2.11707e-06
2.13559e-06
1.96647e-06
1.71605e-06
2.12244e-06
2.08536e-06
2.16286e-06
1.69459e-06
2.11662e-06
2.02811e-06
2.51996e-06
1.66256e-06
2.08667e-06
1.97578e-06
2.35125e-06
1.61287e-06
2.03262e-06
1.93002e-06
1.89693e-06
1.54484e-06
1.97922e-06
1.886e-06
1.70357e-06
1.46778e-06
1.89932e-06
1.82794e-06
1.67001e-06
1.38949e-06
1.79959e-06
1.74666e-06
1.66567e-06
1.3142e-06
1.7035e-06
1.66073e-06
1.65735e-06
1.24507e-06
1.61058e-06
1.59383e-06
1.64139e-06
1.17558e-06
1.51148e-06
1.52793e-06
1.62163e-06
1.09718e-06
1.40355e-06
1.43408e-06
1.60123e-06
1.01267e-06
1.29471e-06
1.29556e-06
1.58135e-06
9.453e-07
1.20043e-06
1.17986e-06
1.55616e-06
9.13638e-07
1.147e-06
1.17516e-06
1.52754e-06
9.34477e-07
1.12529e-06
1.3099e-06
1.49318e-06
1.08815e-06
1.24926e-06
1.54829e-06
1.45592e-06
1.26244e-06
1.46092e-06
1.84238e-06
1.40873e-06
1.48997e-06
1.55116e-06
2.97738e-06
1.3598e-06
2.04277e-06
2.36448e-06
5.01497e-06
1.28768e-06
2.89462e-06
2.95889e-06
4.23747e-06
1.22268e-06
4.10905e-06
3.84659e-06
1.05065e-05
1.16193e-06
4.99571e-06
5.31455e-06
1.32308e-05
1.08233e-06
6.79309e-06
7.30847e-06
1.95655e-05
1.00421e-06
9.41459e-06
9.20342e-06
2.46847e-05
1.0666e-06
1.09755e-05
1.12925e-05
3.11137e-05
1.07269e-06
1.53866e-05
1.53953e-05
3.97905e-05
1.14014e-06
1.70331e-05
1.70693e-05
4.48435e-05
1.55723e-06
2.30891e-05
2.33873e-05
5.08968e-05
1.56036e-06
2.57193e-05
2.52426e-05
5.87783e-05
2.36809e-06
3.21228e-05
3.23501e-05
6.46902e-05
2.47809e-06
3.32399e-05
3.49739e-05
6.88173e-05
3.27927e-06
4.41333e-05
4.37512e-05
7.63245e-05
4.51849e-06
4.56328e-05
4.56797e-05
7.80006e-05
5.38717e-06
5.35447e-05
5.29311e-05
8.30068e-05
6.9665e-06
5.85958e-05
5.90597e-05
8.89884e-05
8.75776e-06
6.3917e-05
6.33009e-05
9.02977e-05
1.14481e-05
7.21089e-05
7.233e-05
9.59746e-05
1.2736e-05
7.45448e-05
7.56745e-05
9.96324e-05
1.78692e-05
8.53417e-05
8.43447e-05
0.000102818
1.86627e-05
8.54648e-05
8.71016e-05
0.00010717
2.60171e-05
9.81922e-05
9.63679e-05
0.000111164
2.64471e-05
9.75364e-05
9.796e-05
0.000113003
3.60389e-05
0.000107322
0.000109267
0.000119797
3.79077e-05
0.000109138
0.000109657
0.000120263
4.5325e-05
0.000116447
0.000116753
0.000126213
5.20719e-05
0.000124983
0.000123382
0.000130709
5.74987e-05
0.000122918
0.000125833
0.000129241
6.23242e-05
0.000130771
0.000127197
0.000134607
7.33077e-05
0.00013631
0.000137828
0.000142754
7.63968e-05
0.000141851
0.000139397
0.000141324
8.90493e-05
0.000140278
0.000141638
0.000140492
8.9731e-05
0.000147528
0.000148139
0.000149861
9.91198e-05
0.000155144
0.000153902
0.000154038
0.000112244
0.000154283
0.000155387
0.000149063
0.000109059
0.000160066
0.000156331
0.000155582
0.000121675
0.000163295
0.000165717
0.000160799
0.00012908
0.000168828
0.000169053
0.000160326
0.000131534
0.000169681
0.000168003
0.000159995
0.000135775
0.000172502
0.000175766
0.000167026
0.000149407
0.000179869
0.000174554
0.00016856
0.000150296
0.00017765
0.000180816
0.000169866
0.000154026
0.000184015
0.000189138
0.000171842
0.000168315
0.000191815
0.000186207
0.000176367
0.000170912
0.000188835
0.000183295
0.0001762
0.000167862
0.000185483
0.000192086
0.000177478
0.000174398
0.00019695
0.000197097
0.000178258
0.000189055
0.00020219
0.000200355
0.000184828
0.000195521
0.000199898
0.00020031
0.000183538
0.000194032
0.000198153
0.000199395
0.00018179
0.000190439
0.000205207
0.000205358
0.000193521
0.000203943
0.000208414
0.000207933
0.000180423
0.000210815
0.000206503
0.000205492
0.000184218
0.000211031
0.000215015
0.000214398
0.000205898
0.000219387
0.000219005
0.000219326
0.000196619
0.000220796
0.000210294
0.000211764
0.000180339
0.000217063
0.000206984
0.000206298
0.000180901
0.000220392
0.000218094
0.000217958
0.000203532
0.000232645
0.000228222
0.000229183
0.000215949
0.000239317
0.000229436
0.000230767
0.000202776
0.00023932
0.000215873
0.00021475
0.000181447
0.00022961
0.000211375
0.000209404
0.000181392
0.000224095
0.000223092
0.000224433
0.000207629
0.000245665
0.0002352
0.00023554
0.000217407
0.000258971
0.000233866
0.000235245
0.000201689
0.000245484
0.000218014
0.000220974
0.000193185
0.000233015
0.000216026
0.000215554
0.000193569
0.000244366
0.000231123
0.000225845
0.000198831
0.000258963
0.000235279
0.000233037
0.000205634
0.00025282
0.000226384
0.000231571
0.000209279
0.000244081
0.000224345
0.000227982
0.000198843
0.000248422
0.000226436
0.000224027
0.000195123
2.17948e-06
1.70932e-06
2.11024e-06
2.259e-06
2.11465e-06
2.65554e-06
1.9176e-06
1.60508e-06
1.64955e-06
1.56599e-06
1.99776e-06
2.05466e-06
2.21858e-06
2.38293e-06
2.38016e-06
2.27582e-06
2.1845e-06
2.14455e-06
1.9517e-06
1.76791e-06
2.01956e-06
1.75684e-06
2.25646e-06
2.21165e-06
1.75638e-06
2.42553e-06
1.7452e-06
2.55724e-06
1.74899e-06
1.72505e-06
1.73386e-06
2.19638e-06
2.19679e-06
1.89218e-06
2.14919e-06
1.86407e-06
2.22808e-06
2.13681e-06
2.07656e-06
2.0564e-06
1.75416e-06
2.2783e-06
1.75482e-06
2.20853e-06
2.16486e-06
1.74339e-06
2.61449e-06
1.74108e-06
2.84095e-06
1.73085e-06
1.72131e-06
1.72069e-06
2.1845e-06
2.23295e-06
1.85957e-06
2.13015e-06
1.84397e-06
2.18223e-06
2.07459e-06
2.08675e-06
2.39181e-06
1.75566e-06
2.84367e-06
1.7547e-06
2.16222e-06
2.1282e-06
1.74141e-06
2.95361e-06
1.74225e-06
3.3826e-06
1.71678e-06
1.72277e-06
1.70999e-06
2.21815e-06
2.29791e-06
1.83864e-06
2.11764e-06
1.8107e-06
2.13848e-06
2.09366e-06
2.25828e-06
3.02799e-06
1.75149e-06
3.63861e-06
1.73993e-06
2.12422e-06
2.08379e-06
1.74425e-06
3.58436e-06
1.74579e-06
4.12337e-06
1.70725e-06
1.71892e-06
1.69632e-06
2.28904e-06
2.40825e-06
1.79756e-06
2.11998e-06
1.7346e-06
2.0889e-06
2.28612e-06
3.1172e-06
3.97666e-06
1.73496e-06
6.39558e-06
1.71414e-06
2.07886e-06
2.04394e-06
1.74767e-06
4.1498e-06
1.75217e-06
3.62324e-06
1.69246e-06
1.69973e-06
1.67699e-06
2.40355e-06
2.3441e-06
1.71419e-06
2.12008e-06
1.6503e-06
2.03158e-06
3.2336e-06
4.29322e-06
7.79849e-06
1.70293e-06
1.31725e-05
1.66572e-06
2.04001e-06
2.01048e-06
1.75577e-06
3.33308e-06
1.75874e-06
2.44443e-06
1.67085e-06
1.67074e-06
1.65084e-06
2.32648e-06
2.22312e-06
1.63425e-06
2.09873e-06
1.59852e-06
1.97877e-06
4.28313e-06
4.35231e-06
1.49223e-05
1.65107e-06
1.75323e-05
1.60456e-06
2.00579e-06
1.97183e-06
1.7548e-06
2.20354e-06
1.70498e-06
1.6912e-06
1.64245e-06
1.6258e-06
1.61441e-06
2.2076e-06
2.077e-06
1.58815e-06
2.04606e-06
1.56984e-06
1.93286e-06
3.80781e-06
2.51328e-06
1.55012e-05
1.58699e-06
9.03818e-06
1.52982e-06
1.96691e-06
1.92277e-06
1.67877e-06
1.58213e-06
1.61975e-06
1.39721e-06
1.60305e-06
1.56336e-06
1.56666e-06
2.06583e-06
1.96912e-06
1.56423e-06
1.99421e-06
1.54379e-06
1.89024e-06
2.44579e-06
2.08991e-06
7.18596e-06
1.50743e-06
3.59006e-06
1.44236e-06
1.91784e-06
1.8559e-06
1.60492e-06
1.36712e-06
1.56129e-06
1.31373e-06
1.55167e-06
1.48774e-06
1.50493e-06
1.9622e-06
1.889e-06
1.53519e-06
1.92129e-06
1.50934e-06
1.83461e-06
2.06523e-06
1.88361e-06
2.99663e-06
1.42232e-06
2.12249e-06
1.35331e-06
1.84988e-06
1.76501e-06
1.54602e-06
1.30165e-06
1.49156e-06
1.26978e-06
1.48916e-06
1.40721e-06
1.43902e-06
1.88178e-06
1.80613e-06
1.49702e-06
1.82402e-06
1.43328e-06
1.75481e-06
1.86783e-06
1.76136e-06
1.97979e-06
1.33066e-06
1.72711e-06
1.26798e-06
1.75808e-06
1.66987e-06
1.47034e-06
1.25902e-06
1.40588e-06
1.22738e-06
1.41987e-06
1.3304e-06
1.36703e-06
1.7983e-06
1.71737e-06
1.41065e-06
1.72712e-06
1.38325e-06
1.66964e-06
1.74938e-06
1.658e-06
1.67337e-06
1.2492e-06
1.55092e-06
1.19818e-06
1.6604e-06
1.57683e-06
1.38376e-06
1.21527e-06
1.31496e-06
1.18272e-06
1.34906e-06
1.25925e-06
1.29424e-06
1.7074e-06
1.62621e-06
1.37783e-06
1.63467e-06
1.36794e-06
1.60541e-06
1.64352e-06
1.55146e-06
1.51664e-06
1.18236e-06
1.41502e-06
1.12807e-06
1.56396e-06
1.47961e-06
1.29343e-06
1.17192e-06
1.22366e-06
1.13808e-06
1.27454e-06
1.19032e-06
1.21741e-06
1.61354e-06
1.53571e-06
1.3783e-06
1.53624e-06
1.43326e-06
1.54253e-06
1.53334e-06
1.43918e-06
1.38571e-06
1.10811e-06
1.29737e-06
1.04933e-06
1.46294e-06
1.37142e-06
1.20334e-06
1.12595e-06
1.13477e-06
1.09163e-06
1.19776e-06
1.1166e-06
1.13678e-06
1.5192e-06
1.44109e-06
1.44627e-06
1.43014e-06
1.45221e-06
1.45684e-06
1.4177e-06
1.32162e-06
1.2662e-06
1.02866e-06
1.17612e-06
9.71244e-07
1.34929e-06
1.25707e-06
1.11526e-06
1.07874e-06
1.04954e-06
1.04665e-06
1.1174e-06
1.03248e-06
1.0513e-06
1.42086e-06
1.34525e-06
1.43112e-06
1.32127e-06
1.30489e-06
1.3176e-06
1.30132e-06
1.21179e-06
1.15586e-06
9.52977e-07
1.08798e-06
9.04999e-07
1.22976e-06
1.15676e-06
1.03409e-06
1.03157e-06
9.80318e-07
1.00591e-06
1.03677e-06
9.59694e-07
9.7222e-07
1.3225e-06
1.25446e-06
1.26787e-06
1.22148e-06
1.15902e-06
1.18616e-06
1.18005e-06
1.16336e-06
1.06659e-06
8.89887e-07
1.03037e-06
8.59108e-07
1.12684e-06
1.0922e-06
9.67285e-07
9.93538e-07
9.3392e-07
9.7855e-07
9.70543e-07
9.17654e-07
9.39893e-07
1.23823e-06
1.18976e-06
1.17346e-06
1.154e-06
1.13e-06
1.19443e-06
1.14267e-06
1.12497e-06
1.01602e-06
8.53396e-07
1.01615e-06
8.8923e-07
1.08045e-06
1.08765e-06
9.2367e-07
9.79634e-07
9.41084e-07
9.86689e-07
9.30457e-07
9.46983e-07
9.40092e-07
1.18244e-06
1.18394e-06
1.10335e-06
1.12963e-06
1.35985e-06
1.20724e-06
1.13873e-06
1.242e-06
1.01951e-06
8.76017e-07
1.09472e-06
9.65433e-07
1.09778e-06
1.15749e-06
9.49211e-07
9.89372e-07
1.02856e-06
1.11797e-06
9.59855e-07
1.02897e-06
1.04819e-06
1.20286e-06
1.30761e-06
1.56108e-06
1.23586e-06
2.24015e-06
1.52942e-06
1.28849e-06
1.47505e-06
1.09673e-06
1.02665e-06
1.23139e-06
1.11328e-06
1.32526e-06
1.45813e-06
1.03644e-06
1.13831e-06
1.1807e-06
1.21905e-06
1.09821e-06
1.16611e-06
1.12052e-06
1.38812e-06
1.41006e-06
2.43719e-06
1.29772e-06
2.71054e-06
1.84984e-06
1.63551e-06
2.04697e-06
1.31934e-06
1.18822e-06
1.46072e-06
1.34949e-06
1.447e-06
2.09135e-06
1.26623e-06
1.38264e-06
1.41057e-06
1.50472e-06
1.24635e-06
1.38069e-06
1.58751e-06
1.63098e-06
2.22261e-06
2.94352e-06
1.58809e-06
3.44239e-06
2.98957e-06
2.14533e-06
3.36292e-06
1.52082e-06
1.46626e-06
2.08179e-06
1.90847e-06
2.08264e-06
3.74422e-06
1.48604e-06
1.48487e-06
2.01328e-06
2.20059e-06
1.5486e-06
1.91234e-06
2.15949e-06
2.14991e-06
3.97785e-06
3.33207e-06
2.2532e-06
3.70979e-06
4.24651e-06
3.76523e-06
4.42213e-06
2.20867e-06
2.03448e-06
2.43694e-06
2.68643e-06
4.03272e-06
5.36758e-06
2.13373e-06
2.30223e-06
2.42647e-06
2.63318e-06
2.41253e-06
2.82936e-06
2.35151e-06
4.51664e-06
4.44923e-06
3.98372e-06
2.65189e-06
3.97053e-06
4.57691e-06
4.73019e-06
8.59759e-06
2.78509e-06
2.73116e-06
3.69836e-06
3.59649e-06
6.00758e-06
6.41703e-06
2.80508e-06
2.97295e-06
3.58325e-06
3.47997e-06
2.48956e-06
3.43333e-06
3.60458e-06
4.75927e-06
8.03981e-06
3.73347e-06
3.4753e-06
4.41213e-06
9.52033e-06
9.09662e-06
1.08064e-05
3.7886e-06
4.17131e-06
4.99778e-06
4.58585e-06
7.65911e-06
1.25617e-05
3.6608e-06
3.84159e-06
5.002e-06
5.19031e-06
4.1066e-06
4.67054e-06
5.34102e-06
8.2252e-06
1.26575e-05
5.15034e-06
5.26505e-06
6.44902e-06
1.3078e-05
1.21353e-05
1.6406e-05
5.41831e-06
4.90038e-06
6.34002e-06
6.47096e-06
1.24122e-05
1.72167e-05
5.38189e-06
5.28302e-06
6.22178e-06
6.60543e-06
5.29623e-06
6.51351e-06
6.24466e-06
1.39545e-05
1.49192e-05
6.34929e-06
6.65213e-06
7.39427e-06
1.52143e-05
1.68084e-05
2.37704e-05
7.08024e-06
6.79456e-06
8.53516e-06
8.8308e-06
1.91223e-05
2.1711e-05
6.99407e-06
7.20385e-06
8.4848e-06
8.76586e-06
7.69836e-06
8.67565e-06
9.05507e-06
1.63438e-05
2.39115e-05
8.57466e-06
8.45814e-06
9.61099e-06
2.55539e-05
2.51398e-05
2.7382e-05
8.69685e-06
9.52757e-06
1.15282e-05
1.04008e-05
2.32675e-05
3.00367e-05
8.50017e-06
9.39458e-06
1.13631e-05
1.08899e-05
8.78925e-06
1.05839e-05
1.0686e-05
2.44634e-05
2.91169e-05
9.33064e-06
1.09095e-05
1.00624e-05
2.60997e-05
2.95946e-05
3.76414e-05
1.24722e-05
1.08477e-05
1.30545e-05
1.42746e-05
3.02053e-05
3.65998e-05
1.22095e-05
1.15472e-05
1.33521e-05
1.41801e-05
1.23438e-05
1.40029e-05
1.34972e-05
3.07247e-05
3.66066e-05
1.15028e-05
1.41839e-05
1.37762e-05
3.96068e-05
3.76802e-05
4.47581e-05
1.44077e-05
1.56135e-05
1.82094e-05
1.70481e-05
3.94586e-05
4.40622e-05
1.47307e-05
1.52154e-05
1.67861e-05
1.72672e-05
1.37789e-05
1.71836e-05
1.7923e-05
3.79352e-05
4.4735e-05
1.47421e-05
1.68392e-05
1.89603e-05
4.29841e-05
4.71805e-05
4.9408e-05
1.82028e-05
1.68951e-05
2.18677e-05
2.09977e-05
4.43997e-05
4.89029e-05
1.73749e-05
1.75286e-05
2.19015e-05
2.13848e-05
1.84898e-05
2.0735e-05
1.99625e-05
4.56093e-05
4.90727e-05
1.9747e-05
2.13973e-05
1.97216e-05
4.97517e-05
5.10047e-05
5.73917e-05
2.37676e-05
2.3314e-05
2.47226e-05
2.58458e-05
5.11914e-05
5.93456e-05
2.29121e-05
2.34205e-05
2.35762e-05
2.56324e-05
2.1663e-05
2.59654e-05
2.50176e-05
5.18795e-05
5.84586e-05
2.11161e-05
2.54378e-05
2.51208e-05
5.67641e-05
5.79388e-05
6.45664e-05
2.50072e-05
2.56058e-05
3.25504e-05
3.01882e-05
5.97484e-05
6.15825e-05
2.55172e-05
2.5527e-05
3.11753e-05
3.03854e-05
2.59211e-05
2.99416e-05
3.11214e-05
5.86505e-05
6.30402e-05
2.59744e-05
2.97828e-05
3.09731e-05
6.41325e-05
6.6402e-05
6.78287e-05
3.38009e-05
3.23099e-05
3.42e-05
3.3514e-05
6.34175e-05
6.81386e-05
3.18861e-05
3.28259e-05
3.37053e-05
3.53881e-05
3.26096e-05
3.34211e-05
3.29715e-05
6.49653e-05
6.84691e-05
3.25592e-05
3.52777e-05
3.31472e-05
6.77229e-05
6.83719e-05
7.2999e-05
3.5098e-05
3.33712e-05
3.9207e-05
4.13222e-05
6.87146e-05
7.41754e-05
3.50044e-05
3.51332e-05
3.95293e-05
4.15181e-05
3.32882e-05
4.12993e-05
4.24661e-05
6.93691e-05
7.38591e-05
3.33301e-05
4.07857e-05
4.21995e-05
7.47478e-05
7.45603e-05
7.86231e-05
4.10243e-05
4.41581e-05
4.67485e-05
4.62971e-05
7.60959e-05
7.79634e-05
4.12665e-05
4.43911e-05
4.62271e-05
4.63059e-05
4.40684e-05
4.62028e-05
4.4995e-05
7.54781e-05
7.84473e-05
4.41668e-05
4.57904e-05
4.45633e-05
7.76211e-05
7.94699e-05
8.18388e-05
4.8054e-05
4.5795e-05
5.07948e-05
5.04605e-05
7.81537e-05
8.2314e-05
4.72077e-05
4.61999e-05
5.04064e-05
5.23549e-05
4.55234e-05
5.04953e-05
4.94602e-05
7.89149e-05
8.22623e-05
4.53426e-05
5.15908e-05
5.0037e-05
8.13473e-05
8.28294e-05
8.68752e-05
5.24629e-05
5.37765e-05
5.72266e-05
5.8336e-05
8.42411e-05
8.70384e-05
5.22829e-05
5.37318e-05
5.73898e-05
5.6796e-05
5.16657e-05
5.7955e-05
5.90165e-05
8.36187e-05
8.67733e-05
5.14983e-05
5.67608e-05
5.85878e-05
8.81416e-05
8.77423e-05
9.03823e-05
5.85804e-05
5.87097e-05
6.29477e-05
6.15025e-05
8.74085e-05
8.98871e-05
5.88345e-05
5.89962e-05
6.28657e-05
6.42301e-05
6.11944e-05
6.15882e-05
6.31099e-05
8.76808e-05
9.07758e-05
6.11557e-05
6.30659e-05
6.36091e-05
9.00337e-05
9.12801e-05
9.48084e-05
6.42551e-05
6.37805e-05
6.99243e-05
7.16624e-05
9.12359e-05
9.5559e-05
6.43176e-05
6.47497e-05
6.95057e-05
7.07778e-05
6.27054e-05
7.13849e-05
6.80643e-05
9.1457e-05
9.47715e-05
6.30886e-05
6.98784e-05
6.74926e-05
9.4129e-05
9.56895e-05
9.80484e-05
7.17883e-05
7.26357e-05
7.41286e-05
7.22235e-05
9.60564e-05
9.68654e-05
7.14349e-05
7.30925e-05
7.44061e-05
7.39718e-05
7.18446e-05
7.20698e-05
7.68699e-05
9.59718e-05
9.81558e-05
7.16893e-05
7.48461e-05
7.75153e-05
9.94366e-05
9.87523e-05
0.000102943
7.53084e-05
7.43144e-05
8.28965e-05
8.40221e-05
9.77848e-05
0.000103718
7.57433e-05
7.46788e-05
8.25422e-05
8.22086e-05
7.65307e-05
8.40189e-05
8.16019e-05
9.86218e-05
0.000102914
7.71597e-05
8.19413e-05
8.1175e-05
0.000101566
0.000103823
0.000105391
8.45909e-05
8.53738e-05
8.57483e-05
8.47547e-05
0.000104296
0.000104737
8.40603e-05
8.43579e-05
8.55958e-05
8.77101e-05
8.32839e-05
8.45976e-05
8.60967e-05
0.000104117
0.000105985
8.29505e-05
8.66965e-05
8.58974e-05
0.00010627
0.00010601
0.000111021
8.72449e-05
8.61338e-05
9.51324e-05
9.63441e-05
0.000105415
0.000111997
8.75014e-05
8.81117e-05
9.53129e-05
9.347e-05
8.85972e-05
9.62819e-05
9.59702e-05
0.000106311
0.000110032
8.83748e-05
9.41462e-05
9.62357e-05
0.000110901
0.000111671
0.000112348
9.64995e-05
9.76893e-05
9.6655e-05
9.71351e-05
0.000112587
0.000112427
9.61811e-05
9.57799e-05
9.6275e-05
9.77656e-05
9.65239e-05
9.79781e-05
9.54996e-05
0.00011121
0.000113127
9.70746e-05
9.712e-05
9.59057e-05
0.000111918
0.000112972
0.000119014
9.82824e-05
9.80643e-05
0.000106845
0.000104812
0.000112585
0.000118256
9.83371e-05
9.88221e-05
0.000106948
0.000107
9.71395e-05
0.000104916
0.00010695
0.000113574
0.000119219
9.63275e-05
0.000106897
0.000106389
0.000119207
0.000119645
0.000119498
0.000108473
0.000106792
0.000108188
0.000109922
0.000119239
0.000120245
0.000108373
0.000109163
0.000107862
0.000110008
0.000109198
0.000109379
0.000110515
0.000120191
0.000120207
0.000108818
0.000110412
0.000110338
0.000120032
0.000119567
0.000126149
0.00010782
0.000110079
0.000116572
0.000113013
0.000120356
0.000124219
0.000107667
0.000109227
0.000116615
0.00011269
0.000109969
0.000113165
0.000112356
0.000119876
0.000124104
0.00010981
0.000112084
0.000112646
0.000124569
0.000127341
0.000127829
0.000118723
0.000115773
0.000119826
0.000123922
0.000125689
0.000130613
0.000118938
0.000117236
0.000119886
0.000123359
0.000116165
0.000124274
0.000124069
0.000126445
0.000130032
0.000116351
0.000123452
0.000124702
0.000130542
0.000127773
0.000131537
0.000120484
0.000125032
0.000124695
0.0001245
0.000130841
0.000129694
0.00011952
0.000123203
0.000125233
0.000123778
0.00012478
0.000123864
0.000123787
0.000129919
0.000130462
0.000125558
0.000124613
0.000124574
0.000129553
0.000132518
0.000134066
0.000125592
0.000123697
0.000128676
0.000125959
0.000129371
0.000133565
0.000126769
0.00012588
0.000127809
0.000126999
0.00012296
0.000127181
0.000125222
0.000131702
0.000133369
0.00012368
0.000126105
0.000124196
0.000132668
0.000134604
0.000138621
0.000130742
0.000130219
0.000134337
0.000135183
0.000135525
0.000139452
0.000129183
0.000127968
0.000135465
0.00013583
0.000128783
0.000134895
0.000138684
0.000133487
0.000139576
0.000128271
0.000135593
0.000138499
0.000142231
0.000138959
0.000140319
0.000134342
0.000136219
0.000138123
0.000140849
0.000139911
0.000142656
0.000136391
0.000137497
0.000136652
0.000137756
0.000140391
0.000141202
0.00014091
0.000140592
0.000140754
0.000140358
0.000139254
0.000141049
0.000141541
0.000141264
0.000144987
0.000140513
0.000141821
0.000144423
0.000141589
0.00014281
0.000141562
0.000138327
0.000137811
0.000144477
0.000143062
0.000140403
0.000140972
0.000138701
0.00014055
0.000143909
0.000140504
0.000141316
0.000138087
0.000139941
0.000145046
0.000144345
0.000144415
0.000141016
0.000142937
0.000143271
0.000141286
0.000146321
0.000145194
0.000143442
0.000144429
0.000145704
0.000139267
0.000143743
0.000145274
0.000144458
0.000146165
0.000137324
0.000145691
0.0001465
0.000147989
0.000144819
0.000151937
0.000143599
0.000146904
0.000153506
0.000154041
0.000148221
0.000151822
0.000144122
0.000147684
0.00015227
0.000151297
0.00014857
0.000154513
0.000155593
0.000147106
0.000150913
0.00015088
0.000153228
0.000157342
0.000154144
0.00015273
0.000152538
0.00015518
0.000154751
0.000155829
0.000154391
0.000151799
0.000151014
0.000154695
0.000152051
0.000156712
0.000155928
0.000155945
0.00015469
0.000154199
0.000151139
0.000152167
0.000157459
0.00015519
0.000154357
0.000149527
0.000152295
0.000152349
0.000155368
0.000154068
0.000154298
0.00015844
0.000151088
0.000155861
0.000156442
0.000156864
0.000154555
0.000156841
0.000153363
0.000157491
0.000153961
0.000152602
0.000153367
0.00015323
0.000155481
0.000152706
0.00015327
0.000153711
0.000160222
0.000157555
0.000160542
0.000164906
0.000162563
0.000156811
0.00015777
0.000155172
0.000156446
0.000164912
0.000162584
0.000158373
0.000163291
0.000166007
0.000153437
0.000158868
0.000156836
0.000163191
0.000165182
0.000160574
0.000160409
0.000159618
0.000165486
0.000162554
0.000165369
0.000167463
0.000157753
0.000161745
0.000166311
0.000165382
0.000166611
0.000169084
0.000166791
0.000167236
0.000167009
0.000160173
0.000161894
0.000166654
0.000169063
0.000167862
0.000160481
0.000159587
0.000161843
0.000166559
0.000169232
0.00016949
0.000170427
0.000162456
0.000162123
0.000166652
0.000169117
0.000167395
0.000168174
0.000166728
0.000170039
0.000165286
0.000161781
0.000161296
0.000167631
0.000167905
0.000165902
0.000159186
0.000161852
0.000165369
0.000169396
0.000170088
0.000170402
0.000168811
0.000161799
0.000163478
0.000167697
0.000168394
0.00017377
0.000174924
0.000166502
0.000169064
0.000173086
0.000162061
0.000167217
0.000166041
0.000174957
0.000174299
0.000166629
0.0001669
0.000169151
0.000173436
0.000171439
0.000179453
0.00017953
0.000165406
0.000170673
0.000176054
0.000175588
0.000178288
0.000174759
0.000174279
0.000179603
0.000178496
0.00016724
0.000164356
0.000175599
0.000175224
0.00017629
0.000168056
0.000168916
0.000167358
0.000179809
0.00017992
0.000179156
0.000178654
0.000170406
0.000166494
0.000178138
0.000174002
0.000176425
0.000175396
0.000179749
0.000178444
0.000180648
0.000163829
0.000169239
0.000177254
0.000176599
0.000180357
0.000170062
0.000167593
0.000173314
0.000178725
0.000177844
0.00018007
0.00017893
0.000165949
0.000172089
0.000176201
0.000180989
0.000185032
0.000190575
0.000180344
0.000179536
0.000178965
0.000171784
0.000179143
0.000180414
0.00018848
0.000180817
0.000170465
0.000174682
0.000177614
0.000183585
0.000183643
0.000190135
0.000191917
0.000174397
0.000179878
0.000187525
0.000191405
0.00019009
0.000189108
0.000181025
0.000191254
0.000188888
0.000179218
0.000173541
0.000183246
0.000187884
0.000188489
0.000176392
0.000177336
0.000174325
0.00019056
0.000192627
0.000189638
0.000191244
0.000179757
0.000175543
0.000190155
0.000186256
0.000186755
0.00018221
0.000189748
0.000190504
0.000190124
0.000172504
0.000169916
0.000188991
0.000183637
0.000188907
0.000176122
0.000174005
0.000175632
0.00018895
0.000188784
0.000187917
0.000185021
0.000174771
0.000171513
0.000186113
0.000181487
0.000186788
0.00018672
0.000190043
0.000186156
0.000190391
0.00017043
0.000177285
0.000188771
0.0001901
0.000190974
0.000177533
0.000175925
0.000179074
0.000187596
0.000184099
0.000190835
0.000193014
0.000171511
0.000181813
0.000188459
0.000189973
0.000193991
0.00019816
0.000190366
0.000193438
0.000190289
0.000178324
0.000182823
0.000191554
0.000195988
0.000191527
0.000177512
0.000180574
0.000186087
0.000194416
0.000197326
0.000201704
0.000202788
0.000183597
0.000186899
0.000196582
0.000200108
0.000201717
0.00020229
0.000192391
0.000201833
0.000199661
0.000183544
0.000185224
0.000192289
0.000199931
0.00019891
0.00018439
0.000186126
0.000184491
0.000202427
0.000203207
0.000202727
0.000201208
0.000186515
0.000183084
0.000202189
0.000202433
0.000201705
0.00020003
0.000200779
0.000200781
0.000201621
0.000184988
0.000183226
0.000200346
0.000200505
0.000201467
0.000184205
0.000184214
0.0001834
0.000201861
0.000200237
0.000200168
0.000198668
0.000182823
0.000182092
0.000200911
0.000199432
0.000199721
0.000198629
0.000200616
0.000198557
0.000198668
0.000183078
0.000182867
0.000200726
0.000199674
0.000198952
0.000180958
0.00018325
0.000182893
0.000199841
0.000198358
0.000198944
0.000200127
0.000181932
0.000185384
0.000199561
0.000198427
0.00019925
0.000201116
0.000198872
0.000202899
0.000208098
0.000182677
0.000185582
0.000199223
0.000203218
0.000208112
0.000193085
0.00018327
0.000190129
0.000199731
0.000203026
0.000207952
0.000208948
0.000186586
0.00019052
0.000200529
0.000203696
0.000207908
0.000208675
0.000209177
0.000208213
0.000204101
0.000186761
0.000190407
0.000209192
0.000207865
0.000203912
0.000182433
0.00019076
0.000191287
0.000209556
0.000209589
0.000211017
0.00020908
0.000190491
0.000188474
0.000209435
0.000209177
0.000210788
0.000208073
0.000201179
0.000207153
0.000196939
0.000190271
0.000187436
0.000201079
0.000206197
0.000196984
0.000180379
0.000190938
0.000189642
0.00021068
0.000208763
0.000209682
0.000209249
0.000187969
0.000192261
0.000210403
0.000207692
0.000209318
0.000208444
0.000201019
0.000212169
0.000222329
0.000186902
0.000191833
0.000201241
0.000211339
0.000221857
0.000205116
0.000189991
0.000195317
0.000209987
0.000212269
0.000214955
0.000216451
0.000193498
0.0001972
0.000209647
0.000211908
0.000215293
0.000217266
0.000224807
0.000218517
0.000226708
0.000193208
0.000197722
0.000224238
0.000218491
0.000226039
0.000200132
0.000195432
0.000192539
0.000215601
0.000217197
0.000214899
0.00021342
0.000196556
0.000190482
0.000215983
0.00021814
0.000215605
0.000215271
0.000220493
0.000212377
0.000204303
0.000197645
0.000191911
0.000220573
0.000214735
0.000205369
0.000181662
0.000191528
0.000189316
0.000213144
0.000211843
0.000210948
0.000210045
0.000189721
0.00018863
0.00021359
0.000212804
0.000210948
0.000209446
0.000201434
0.000207655
0.000197247
0.000190594
0.000187232
0.000202224
0.000207294
0.000197655
0.000179015
0.000189526
0.000195359
0.000210468
0.000209646
0.000215602
0.000214641
0.000188912
0.000194577
0.000210403
0.000208729
0.000215121
0.000214045
0.000198103
0.000214443
0.000219598
0.00018721
0.000194744
0.000197498
0.000213333
0.000218725
0.000200671
0.000196212
0.000199549
0.000217745
0.00021692
0.000222409
0.000223456
0.000195562
0.000201411
0.000217441
0.000217026
0.000222615
0.000224015
0.000226496
0.000226839
0.000238243
0.000196147
0.000201814
0.000226243
0.000227692
0.000239189
0.000215461
0.000199835
0.000201058
0.000223329
0.000224925
0.000224919
0.000227552
0.000202048
0.000204375
0.000223668
0.000225508
0.000225494
0.000228308
0.000240394
0.000230934
0.000236619
0.000202411
0.000205237
0.000241528
0.000232133
0.000238102
0.000207109
0.000200751
0.000198641
0.0002253
0.000228041
0.000224102
0.000222347
0.000203139
0.000195409
0.000225919
0.000228982
0.000223434
0.000221568
0.000228802
0.000218673
0.000208716
0.000204064
0.000194808
0.000229644
0.000218127
0.000208029
0.000183333
0.000198104
0.000194176
0.000223126
0.000219914
0.000217729
0.000214819
0.00019419
0.000190742
0.000222156
0.00021851
0.000217399
0.000213847
0.000204964
0.000212122
0.000199916
0.000193242
0.000189198
0.000203995
0.000210352
0.000198557
0.00017893
0.000193412
0.000190827
0.00021613
0.000214258
0.000213441
0.000214052
0.000190323
0.000195495
0.000216177
0.000213199
0.00021397
0.000217345
0.000200749
0.000218545
0.00022555
0.000188965
0.000197601
0.000199288
0.000219467
0.000225115
0.000204683
0.000191276
0.000204423
0.000213264
0.00021842
0.000228292
0.00023135
0.000197139
0.000207273
0.000214115
0.000221413
0.000227888
0.000230586
0.000232498
0.000233691
0.000242232
0.000199314
0.000206492
0.00023257
0.000234194
0.000243314
0.000217551
0.000206054
0.000212387
0.000232299
0.000233605
0.000238302
0.000237773
0.000208052
0.000209022
0.000231629
0.000232144
0.000237318
0.000235133
0.000243908
0.00023784
0.00023453
0.000206931
0.000207993
0.000245174
0.000237829
0.000236395
0.000204489
0.000211442
0.000197638
0.000239426
0.000236888
0.000225188
0.000222434
0.000206755
0.000194732
0.000238622
0.000235437
0.000226622
0.000226505
0.000228985
0.000220429
0.000218702
0.000206786
0.000198692
0.000230519
0.000224197
0.000219283
0.000193616
0.000195251
0.000189469
0.000220468
0.000219139
0.000214833
0.000215484
0.000193454
0.00019146
0.000221883
0.000223103
0.000215808
0.000217522
0.000217369
0.000215526
0.0002165
0.000197029
0.000192151
0.000217578
0.00021625
0.000215909
0.000193429
0.000189375
0.000202951
0.000213707
0.000214894
0.000226286
0.00022735
0.000192305
0.000203998
0.000214658
0.000216899
0.00022445
0.000221439
0.000216946
0.000228273
0.000223392
0.000191551
0.000199295
0.000215666
0.000221684
0.000220884
0.000197895
0.0002048
0.000210646
0.000231057
0.000231294
0.000237504
0.000236623
0.000205282
0.000209107
0.000229209
0.000225688
0.000235607
0.000231995
0.000225733
0.000235062
0.000231529
0.000200822
0.000205834
0.00022386
0.000232265
0.000231861
0.000204849
0.000209709
0.000199719
0.000238593
0.000237407
0.000228312
0.000227792
0.000207918
0.000199301
0.000236732
0.000232802
0.000229485
0.000231195
0.000232833
0.000228085
0.000235912
0.000205722
0.000202922
0.000233684
0.000232575
0.00023754
0.000209514
0.00019826
0.000195633
0.000224822
0.000224952
0.000220693
0.00022198
0.000198335
0.000197481
0.000226476
0.000229833
0.000222686
0.000228152
0.00023623
0.000224515
0.000228403
0.000202432
0.000202119
0.000238166
0.000229602
0.000229286
0.000201009
0.000195701
0.000201226
0.000220539
0.000222016
0.00022749
0.000227716
0.000197661
0.000201011
0.000222647
0.000227423
0.000227581
0.000228379
0.000225033
0.000227472
0.000221471
0.000201789
0.00020025
0.000225294
0.000226149
0.000220245
0.000193317
0.000203929
0.000227475
0.000227244
0.000203517
0.000227182
0.000226129
0.000248418
0.000247961
0.000241337
0.000219595
0.00020183
0.000218429
1.8689e-06
2.28522e-06
1.006e-06
1.0285e-06
1.34411e-06
1.89849e-06
5.89428e-07
1.22548e-06
1.23553e-06
2.31221e-06
1.38611e-06
1.77628e-06
2.28553e-06
1.76771e-06
1.63308e-06
1.12693e-06
1.38901e-05
1.04642e-06
1.562e-05
1.05216e-05
1.27713e-05
1.3355e-06
1.33534e-05
1.2613e-06
1.51387e-05
1.64519e-06
1.68596e-06
1.58887e-06
1.96925e-06
1.67439e-06
1.71065e-06
1.60454e-06
1.31984e-06
3.26174e-07
1.60376e-06
1.73135e-06
1.34779e-06
4.3153e-07
1.60856e-06
1.08439e-05
1.31256e-05
1.22334e-06
1.79e-06
5.51103e-07
2.16398e-06
1.21618e-06
1.79537e-06
6.75719e-07
1.45845e-06
1.48616e-06
2.25038e-06
1.67076e-06
1.69117e-06
1.31293e-06
1.89732e-05
1.24784e-06
2.17868e-05
1.68146e-05
1.90603e-05
1.52099e-06
1.83328e-05
1.45265e-06
2.07363e-05
1.67444e-06
1.7102e-06
1.60254e-06
1.96383e-06
1.67117e-06