/*--------------------------------*- C++ -*----------------------------------*\
| =========                 |                                                 |
| \\      /  F ield         | OpenFOAM: The Open Source CFD Toolbox           |
|  \\    /   O peration     | Version:  v2012                                 |
|   \\  /    A nd           | Website:  www.openfoam.com                      |
|    \\/     M anipulation  |                                                 |
\*---------------------------------------------------------------------------*/
FoamFile
{
    version     2.0;
    format      ascii;
    class       volScalarField;
    location    "1387.5";
    object      epsilon;
}
// * * * * * * * * * * * * * * * * * * * * * * * * * * * * * * * * * * * * * //

dimensions      [0 2 -3 0 0 0 0];


internalField   nonuniform List<scalar> 
171728
(
1.56193e-09
3.37732e-09
4.22022e-09
5.04104e-09
1.52331e-09
3.1167e-09
3.81636e-09
4.6478e-09
1.44002e-09
2.85649e-09
3.44097e-09
4.32573e-09
1.3718e-09
2.62793e-09
3.1391e-09
4.02064e-09
1.30772e-09
2.42891e-09
2.88426e-09
3.8252e-09
1.24547e-09
2.2587e-09
2.66277e-09
3.73987e-09
1.18556e-09
2.11954e-09
2.48355e-09
3.74373e-09
1.12739e-09
2.01277e-09
2.3552e-09
3.82028e-09
1.07252e-09
1.94031e-09
2.27882e-09
3.9112e-09
1.02091e-09
1.90264e-09
2.24175e-09
3.94653e-09
9.69238e-10
1.89552e-09
2.23842e-09
3.29405e-09
9.12691e-10
1.91939e-09
2.27703e-09
3.04309e-09
8.60851e-10
1.98777e-09
2.35657e-09
2.80185e-09
8.14453e-10
2.11253e-09
2.4949e-09
2.60118e-09
7.64461e-10
2.32098e-09
2.71994e-09
2.59279e-09
7.17187e-10
2.63487e-09
3.05551e-09
2.74269e-09
6.80812e-10
3.11886e-09
3.57009e-09
3.10659e-09
6.60441e-10
3.86948e-09
4.34147e-09
3.8491e-09
6.30559e-10
4.96531e-09
5.56877e-09
5.05247e-09
6.26176e-10
6.67889e-09
7.35373e-09
7.21308e-09
6.08433e-10
9.04304e-09
1.00596e-08
1.09464e-08
5.87388e-10
1.24799e-08
1.38289e-08
1.71624e-08
6.29171e-10
1.77981e-08
1.88551e-08
2.93397e-08
6.47623e-10
2.39294e-08
2.56944e-08
4.54152e-08
7.10953e-10
3.24706e-08
3.45318e-08
7.12626e-08
8.29858e-10
4.44574e-08
4.43393e-08
1.12123e-07
1.04477e-09
5.77328e-08
5.83349e-08
1.63306e-07
1.26914e-09
7.49332e-08
7.69583e-08
2.13942e-07
1.61799e-09
9.49538e-08
9.40604e-08
2.91801e-07
2.16915e-09
1.18529e-07
1.19272e-07
3.66399e-07
2.83118e-09
1.43357e-07
1.4518e-07
4.43542e-07
3.76416e-09
1.75142e-07
1.70611e-07
5.15421e-07
5.1762e-09
2.04001e-07
2.0621e-07
5.89148e-07
6.69243e-09
2.39747e-07
2.38491e-07
6.4968e-07
8.91171e-09
2.79064e-07
2.80437e-07
7.06642e-07
1.20387e-08
3.19031e-07
3.17919e-07
7.56506e-07
1.52447e-08
3.68155e-07
3.64051e-07
8.00031e-07
2.09086e-08
4.06089e-07
4.19983e-07
8.47885e-07
2.4629e-08
4.40981e-07
4.46595e-07
8.69326e-07
3.23936e-08
5.13952e-07
4.93795e-07
9.1469e-07
4.3485e-08
5.66527e-07
5.64269e-07
9.57634e-07
4.95079e-08
5.89527e-07
6.06816e-07
9.7248e-07
6.08976e-08
6.43085e-07
6.44505e-07
1.00237e-06
7.45827e-08
6.9546e-07
6.8662e-07
1.03675e-06
9.00099e-08
7.43428e-07
7.45432e-07
1.06397e-06
1.13692e-07
7.91739e-07
7.91912e-07
1.09137e-06
1.29214e-07
8.20886e-07
8.23648e-07
1.1197e-06
1.44782e-07
8.64484e-07
8.68823e-07
1.14384e-06
1.74784e-07
9.05341e-07
9.04846e-07
1.16359e-06
2.00462e-07
9.34164e-07
9.32041e-07
1.19087e-06
2.20936e-07
9.74489e-07
9.75836e-07
1.22309e-06
2.57353e-07
1.00049e-06
1.00487e-06
1.23899e-06
2.87153e-07
1.02403e-06
1.02323e-06
1.25296e-06
3.11627e-07
1.05183e-06
1.05442e-06
1.28171e-06
3.51868e-07
1.08093e-06
1.0756e-06
1.30123e-06
3.81322e-07
1.09736e-06
1.09276e-06
1.3075e-06
4.09363e-07
1.1134e-06
1.12478e-06
1.33084e-06
4.44662e-07
1.14453e-06
1.14728e-06
1.36411e-06
4.70945e-07
1.16076e-06
1.15278e-06
1.36761e-06
4.98403e-07
1.16239e-06
1.16161e-06
1.36118e-06
5.2128e-07
1.18761e-06
1.18785e-06
1.38192e-06
5.53746e-07
1.21058e-06
1.20922e-06
1.41474e-06
5.84127e-07
1.2184e-06
1.21751e-06
1.43239e-06
5.99782e-07
1.23188e-06
1.2336e-06
1.43183e-06
6.20112e-07
1.24605e-06
1.2461e-06
1.42678e-06
6.43191e-07
1.25145e-06
1.24996e-06
1.43698e-06
6.55528e-07
1.26264e-06
1.26073e-06
1.46579e-06
6.74903e-07
1.27772e-06
1.27669e-06
1.48284e-06
6.98019e-07
1.28259e-06
1.28381e-06
1.47615e-06
7.09153e-07
1.28581e-06
1.28501e-06
1.47083e-06
7.14539e-07
1.29139e-06
1.29828e-06
1.48985e-06
7.32308e-07
1.30279e-06
1.30968e-06
1.51321e-06
7.53459e-07
1.3121e-06
1.30677e-06
1.51167e-06
7.64334e-07
1.30689e-06
1.29802e-06
1.4918e-06
7.65421e-07
1.30233e-06
1.30205e-06
1.49364e-06
7.70863e-07
1.31917e-06
1.32429e-06
1.53033e-06
7.90136e-07
1.33221e-06
1.33275e-06
1.54862e-06
8.01278e-07
1.31956e-06
1.31595e-06
1.51913e-06
7.98063e-07
1.30762e-06
1.30633e-06
1.49294e-06
7.94335e-07
1.31882e-06
1.31769e-06
1.51692e-06
8.03653e-07
1.33088e-06
1.32706e-06
1.54465e-06
8.19927e-07
1.3278e-06
1.32553e-06
1.54155e-06
8.23724e-07
1.32091e-06
1.31891e-06
1.52846e-06
8.08849e-07
1.31254e-06
1.31057e-06
1.5193e-06
8.00843e-07
1.30251e-06
1.31231e-06
1.51391e-06
8.13414e-07
1.31276e-06
1.32095e-06
1.53005e-06
8.22672e-07
1.32622e-06
1.31294e-06
1.54091e-06
8.11019e-07
1.30198e-06
1.29766e-06
1.51756e-06
7.98206e-07
1.28272e-06
1.29388e-06
1.50219e-06
7.99474e-07
1.294e-06
1.29524e-06
1.51533e-06
8.03e-07
1.2972e-06
1.29035e-06
1.51981e-06
7.97813e-07
1.28158e-06
1.28192e-06
1.50762e-06
7.89246e-07
1.27175e-06
1.274e-06
1.49604e-06
7.81882e-07
1.26413e-06
1.26573e-06
1.48691e-06
7.59636e-07
1.20708e-06
1.20599e-06
1.45138e-06
5.21219e-09
4.46728e-09
3.51856e-09
4.70904e-09
4.01069e-09
3.91169e-09
1.52138e-09
1.21594e-09
1.32482e-09
2.10247e-09
3.64951e-09
3.81468e-09
4.74804e-09
3.58183e-09
4.87698e-09
5.09752e-09
5.17953e-09
4.72692e-09
6.08007e-09
4.58058e-09
5.58736e-09
4.31606e-09
4.68361e-09
4.23285e-09
4.79147e-09
5.24236e-09
4.51755e-09
4.98038e-09
7.92173e-09
3.18709e-09
6.45075e-09
4.72213e-09
4.32071e-09
6.35743e-09
3.92273e-09
6.24771e-09
4.71772e-09
4.68967e-09
4.29101e-09
5.36883e-09
4.2079e-09
4.73901e-09
3.89862e-09
4.20177e-09
3.79219e-09
4.41595e-09
4.88111e-09
4.12752e-09
4.59511e-09
5.92588e-09
2.91862e-09
4.60517e-09
4.2883e-09
3.91087e-09
6.21307e-09
3.52645e-09
6.15498e-09
4.38343e-09
4.26194e-09
3.92371e-09
4.56118e-09
3.79968e-09
4.14253e-09
3.51477e-09
3.76498e-09
3.40733e-09
4.03716e-09
4.50415e-09
3.78312e-09
4.24937e-09
4.25329e-09
2.68217e-09
3.47876e-09
3.88186e-09
3.5563e-09
6.14989e-09
3.21003e-09
6.15979e-09
4.07037e-09
3.89682e-09
3.60524e-09
4.03528e-09
3.42316e-09
3.77584e-09
3.16438e-09
3.38397e-09
3.07349e-09
3.7042e-09
4.17157e-09
3.48711e-09
3.95559e-09
3.30668e-09
2.47594e-09
2.95671e-09
3.53184e-09
3.25976e-09
6.17031e-09
2.94441e-09
6.24677e-09
3.85422e-09
3.58288e-09
3.33575e-09
3.70509e-09
3.08481e-09
3.5277e-09
2.86321e-09
3.0539e-09
2.79354e-09
3.42146e-09
3.88923e-09
3.24377e-09
3.70295e-09
2.87723e-09
2.29852e-09
2.70904e-09
3.23953e-09
3.01097e-09
6.27889e-09
2.71454e-09
6.40076e-09
3.75305e-09
3.31728e-09
3.11251e-09
3.47542e-09
2.79533e-09
3.33264e-09
2.60851e-09
2.77871e-09
2.56383e-09
3.19034e-09
3.64517e-09
3.04895e-09
3.49344e-09
2.66838e-09
2.15111e-09
2.5777e-09
2.99438e-09
2.79926e-09
6.46191e-09
2.52396e-09
6.75354e-09
3.74631e-09
3.09871e-09
2.93026e-09
3.2889e-09
2.55215e-09
3.17652e-09
2.40029e-09
2.55296e-09
2.37432e-09
3.00751e-09
3.4478e-09
2.89874e-09
3.32257e-09
2.55718e-09
2.03626e-09
2.50602e-09
2.78644e-09
2.62238e-09
6.88387e-09
2.38266e-09
7.37978e-09
3.81803e-09
2.92047e-09
2.78246e-09
3.14508e-09
2.35591e-09
3.07364e-09
2.23867e-09
2.36727e-09
2.2206e-09
2.86731e-09
3.28404e-09
2.78984e-09
3.17598e-09
2.49222e-09
1.95548e-09
2.45705e-09
2.61302e-09
2.47841e-09
7.57487e-09
2.29386e-09
8.19628e-09
3.91066e-09
2.77637e-09
2.66718e-09
3.05584e-09
2.20536e-09
3.01571e-09
2.12004e-09
2.21727e-09
2.09849e-09
2.77027e-09
3.14583e-09
2.72736e-09
3.07229e-09
2.44713e-09
1.9099e-09
2.42072e-09
2.4732e-09
2.37261e-09
8.38249e-09
2.2477e-09
8.71367e-09
3.95474e-09
2.66565e-09
2.58769e-09
3.00655e-09
2.09732e-09
2.99821e-09
2.04871e-09
2.09868e-09
2.00156e-09
2.71836e-09
3.05254e-09
2.70593e-09
3.00055e-09
2.4127e-09
1.89456e-09
2.41284e-09
2.3717e-09
2.29654e-09
8.72839e-09
2.23582e-09
8.11443e-09
3.33222e-09
2.5902e-09
2.54496e-09
3.0009e-09
2.03705e-09
3.02968e-09
2.03021e-09
2.00454e-09
1.93307e-09
2.70743e-09
2.98797e-09
2.72822e-09
2.96157e-09
2.41843e-09
1.91177e-09
2.46823e-09
2.29884e-09
2.24843e-09
7.67016e-09
2.26375e-09
6.39352e-09
3.04923e-09
2.55436e-09
2.54188e-09
3.04488e-09
2.03387e-09
3.11487e-09
2.07178e-09
1.94031e-09
1.90406e-09
2.7413e-09
2.95171e-09
2.79316e-09
2.9366e-09
2.49e-09
1.96993e-09
2.57163e-09
2.25631e-09
2.23104e-09
6.07052e-09
2.33287e-09
5.36191e-09
2.81538e-09
2.5604e-09
2.58521e-09
3.14382e-09
2.09242e-09
3.25232e-09
2.17711e-09
1.92114e-09
1.93226e-09
2.82001e-09
2.93447e-09
2.92325e-09
2.9495e-09
2.60481e-09
2.0788e-09
2.70551e-09
2.24755e-09
2.25695e-09
5.14909e-09
2.45405e-09
4.53771e-09
2.59261e-09
2.61583e-09
2.68617e-09
3.29439e-09
2.2169e-09
3.42794e-09
2.36587e-09
1.96341e-09
2.03432e-09
2.96871e-09
2.96403e-09
3.12718e-09
3.04247e-09
2.751e-09
2.26308e-09
2.93668e-09
2.28599e-09
2.3476e-09
4.35511e-09
2.65272e-09
3.90113e-09
2.5535e-09
2.73834e-09
2.89227e-09
3.47677e-09
2.43124e-09
3.68511e-09
2.66238e-09
2.08876e-09
2.2363e-09
3.1983e-09
3.08705e-09
3.44289e-09
3.28019e-09
3.01298e-09
2.54278e-09
3.29145e-09
2.39836e-09
2.54067e-09
3.77716e-09
2.96153e-09
3.47006e-09
2.66766e-09
2.98595e-09
3.28715e-09
3.75714e-09
2.76115e-09
4.1204e-09
3.11513e-09
2.32712e-09
2.59357e-09
3.54401e-09
3.36631e-09
3.95712e-09
3.72122e-09
3.40616e-09
2.98237e-09
3.7749e-09
2.6299e-09
2.9083e-09
3.41893e-09
3.41403e-09
3.40099e-09
2.96565e-09
3.44807e-09
4.00425e-09
4.2599e-09
3.26955e-09
4.8519e-09
3.83214e-09
2.74394e-09
3.2431e-09
4.10391e-09
3.86428e-09
4.74608e-09
4.42324e-09
3.93364e-09
3.65825e-09
4.5523e-09
3.05631e-09
3.52554e-09
3.45623e-09
4.11212e-09
3.93343e-09
3.59828e-09
4.27485e-09
5.25176e-09
5.14995e-09
4.07153e-09
6.1041e-09
4.92864e-09
3.49332e-09
4.35805e-09
5.00695e-09
4.64326e-09
5.97826e-09
5.40609e-09
4.76642e-09
4.65837e-09
5.3356e-09
3.76861e-09
4.63035e-09
4.11697e-09
5.2307e-09
4.90179e-09
4.62933e-09
5.68945e-09
7.18904e-09
6.32374e-09
5.25285e-09
7.54394e-09
6.60572e-09
4.76721e-09
6.29748e-09
6.31897e-09
5.67614e-09
7.53638e-09
6.63962e-09
5.71887e-09
6.22444e-09
6.84631e-09
5.03162e-09
6.50344e-09
5.22702e-09
6.84158e-09
6.34969e-09
6.51518e-09
7.91284e-09
1.14616e-08
8.38052e-09
7.1679e-09
1.05923e-08
8.96531e-09
7.00055e-09
9.72011e-09
8.2159e-09
7.0463e-09
1.04982e-08
8.59334e-09
7.22303e-09
8.26007e-09
8.91536e-09
7.19542e-09
9.73211e-09
6.7998e-09
9.24711e-09
8.57852e-09
9.98442e-09
1.27861e-08
1.96469e-08
1.11459e-08
9.70037e-09
1.29764e-08
1.20519e-08
1.09127e-08
1.52247e-08
1.11725e-08
9.26561e-09
1.40236e-08
1.17033e-08
9.51554e-09
1.15567e-08
1.1987e-08
1.08272e-08
1.58641e-08
9.27467e-09
1.27574e-08
1.17959e-08
1.51382e-08
2.10293e-08
2.42807e-08
1.34546e-08
1.29321e-08
1.66904e-08
1.71435e-08
1.6996e-08
2.70564e-08
1.49046e-08
1.2665e-08
1.75097e-08
1.58575e-08
1.31569e-08
1.64252e-08
1.7055e-08
1.79181e-08
2.55069e-08
1.29039e-08
1.75728e-08
1.6844e-08
2.64916e-08
2.69216e-08
4.48699e-08
1.83249e-08
1.84945e-08
2.4561e-08
2.25847e-08
2.99373e-08
4.09998e-08
1.87981e-08
1.71311e-08
2.41945e-08
2.20289e-08
1.83844e-08
2.19373e-08
2.24856e-08
2.77771e-08
4.06906e-08
1.83246e-08
2.36295e-08
2.35546e-08
4.14467e-08
4.97092e-08
6.57025e-08
2.62566e-08
2.46854e-08
3.08093e-08
3.13091e-08
4.54864e-08
6.53788e-08
2.60348e-08
2.39711e-08
3.2052e-08
3.06141e-08
2.42766e-08
3.03592e-08
3.03915e-08
4.58235e-08
6.63523e-08
2.5691e-08
3.23199e-08
3.27618e-08
6.48821e-08
7.06112e-08
9.80065e-08
3.27722e-08
3.35524e-08
4.02872e-08
4.25475e-08
7.08962e-08
1.01467e-07
3.43542e-08
3.28088e-08
4.20101e-08
4.01676e-08
3.26349e-08
4.13052e-08
4.13808e-08
7.18472e-08
9.80537e-08
3.52329e-08
4.14477e-08
4.55016e-08
1.0277e-07
1.07159e-07
1.46293e-07
4.35221e-08
4.56311e-08
5.43709e-08
5.50257e-08
1.1088e-07
1.44665e-07
4.52018e-08
4.3392e-08
5.6325e-08
5.46116e-08
4.47081e-08
5.37231e-08
5.47344e-08
1.05783e-07
1.42112e-07
4.94968e-08
5.4371e-08
6.16577e-08
1.5276e-07
1.56644e-07
2.0734e-07
5.82163e-08
5.94413e-08
7.06514e-08
7.34959e-08
1.54288e-07
2.07132e-07
6.03294e-08
5.85541e-08
7.30338e-08
7.25563e-08
5.80999e-08
7.06889e-08
7.00784e-08
1.54178e-07
2.12787e-07
6.5174e-08
7.28714e-08
7.5092e-08
2.03147e-07
2.20605e-07
2.69901e-07
7.50088e-08
7.79702e-08
8.89979e-08
9.28452e-08
2.21312e-07
2.74187e-07
7.73364e-08
7.63747e-08
9.04705e-08
8.8336e-08
7.48776e-08
8.94226e-08
9.0103e-08
2.25434e-07
2.68085e-07
7.86081e-08
8.89495e-08
9.15773e-08
2.74248e-07
2.83232e-07
3.48825e-07
9.42328e-08
9.85101e-08
1.12315e-07
1.17443e-07
2.88349e-07
3.52313e-07
9.50948e-08
9.37017e-08
1.11989e-07
1.13449e-07
9.58023e-08
1.12774e-07
1.11764e-07
2.80473e-07
3.47545e-07
9.74951e-08
1.1273e-07
1.17173e-07
3.52527e-07
3.66336e-07
4.2739e-07
1.18608e-07
1.23418e-07
1.3708e-07
1.40119e-07
3.68389e-07
4.27303e-07
1.18367e-07
1.20314e-07
1.37281e-07
1.38207e-07
1.16997e-07
1.36536e-07
1.36612e-07
3.6627e-07
4.3112e-07
1.23795e-07
1.38999e-07
1.43706e-07
4.26997e-07
4.42151e-07
4.98373e-07
1.43543e-07
1.4664e-07
1.64725e-07
1.69433e-07
4.41663e-07
5.04529e-07
1.44023e-07
1.43508e-07
1.65601e-07
1.63401e-07
1.43611e-07
1.66945e-07
1.64707e-07
4.45785e-07
4.9474e-07
1.49591e-07
1.63154e-07
1.66969e-07
5.00468e-07
5.14365e-07
5.73557e-07
1.72486e-07
1.77711e-07
1.97809e-07
2.0188e-07
5.2098e-07
5.73701e-07
1.73108e-07
1.72435e-07
1.98603e-07
2.04023e-07
1.72568e-07
1.97192e-07
1.98448e-07
5.09968e-07
5.72549e-07
1.73984e-07
1.97511e-07
1.99134e-07
5.7331e-07
5.89113e-07
6.35084e-07
2.06505e-07
2.09033e-07
2.31881e-07
2.33653e-07
5.86729e-07
6.32657e-07
2.07632e-07
2.14143e-07
2.31831e-07
2.33182e-07
2.0685e-07
2.29849e-07
2.31461e-07
5.88848e-07
6.31915e-07
2.07576e-07
2.30402e-07
2.32004e-07
6.36461e-07
6.4764e-07
6.90059e-07
2.40024e-07
2.43915e-07
2.68299e-07
2.78575e-07
6.47296e-07
6.94221e-07
2.39085e-07
2.39836e-07
2.65538e-07
2.68947e-07
2.39976e-07
2.69724e-07
2.68972e-07
6.45158e-07
6.92762e-07
2.40396e-07
2.68916e-07
2.69171e-07
6.92872e-07
7.04488e-07
7.46325e-07
2.79402e-07
2.88611e-07
3.1176e-07
3.12854e-07
7.0712e-07
7.41773e-07
2.76668e-07
2.80402e-07
3.10907e-07
3.13019e-07
2.80055e-07
3.07793e-07
3.11268e-07
7.06374e-07
7.39862e-07
2.80254e-07
3.09169e-07
3.11271e-07
7.45479e-07
7.57809e-07
7.88444e-07
3.21383e-07
3.21617e-07
3.49995e-07
3.55788e-07
7.54225e-07
7.94977e-07
3.21094e-07
3.23972e-07
3.49935e-07
3.62053e-07
3.20515e-07
3.55629e-07
3.49236e-07
7.50941e-07
7.91263e-07
3.2037e-07
3.50484e-07
3.48962e-07
7.87209e-07
8.00188e-07
8.33986e-07
3.61362e-07
3.68269e-07
4.01701e-07
3.99801e-07
8.06175e-07
8.24986e-07
3.61133e-07
3.76552e-07
4.01006e-07
4.17718e-07
3.60922e-07
3.99767e-07
4.03071e-07
8.05021e-07
8.39579e-07
3.6072e-07
4.07205e-07
4.02928e-07
8.37594e-07
8.44632e-07
8.65601e-07
4.14554e-07
4.05373e-07
4.39803e-07
4.23504e-07
8.30293e-07
8.51145e-07
4.13531e-07
4.27664e-07
4.40848e-07
4.40365e-07
4.16741e-07
4.27518e-07
4.41666e-07
8.48341e-07
8.58373e-07
4.16617e-07
4.41206e-07
4.41519e-07
8.62298e-07
8.73651e-07
8.99008e-07
4.48393e-07
4.4092e-07
4.86478e-07
5.07106e-07
8.6515e-07
9.15188e-07
4.49759e-07
4.42864e-07
4.84184e-07
4.77061e-07
4.48831e-07
4.95144e-07
4.85808e-07
8.64491e-07
8.94085e-07
4.48455e-07
4.78064e-07
4.84362e-07
9.01887e-07
9.09488e-07
9.4118e-07
5.01938e-07
5.28375e-07
5.49848e-07
5.75079e-07
9.27606e-07
9.49204e-07
4.98587e-07
4.96223e-07
5.45792e-07
5.57085e-07
5.02355e-07
5.59536e-07
5.53666e-07
9.072e-07
9.47543e-07
5.00669e-07
5.47212e-07
5.52157e-07
9.49739e-07
9.50114e-07
9.65909e-07
5.61992e-07
5.79991e-07
5.85947e-07
5.84247e-07
9.53246e-07
9.60267e-07
5.58988e-07
5.76999e-07
5.86628e-07
6.12713e-07
5.68045e-07
5.8055e-07
5.91286e-07
9.57721e-07
9.76102e-07
5.67022e-07
5.98199e-07
5.9217e-07
9.66697e-07
9.72742e-07
9.93079e-07
5.94556e-07
5.87184e-07
6.30041e-07
6.25382e-07
9.67407e-07
9.92974e-07
5.95414e-07
6.18807e-07
6.30571e-07
6.36936e-07
5.98451e-07
6.28803e-07
6.29773e-07
9.8241e-07
9.97148e-07
5.99245e-07
6.3511e-07
6.2821e-07
9.93398e-07
1.00131e-06
1.02487e-06
6.43077e-07
6.41428e-07
6.80666e-07
6.8845e-07
1.00188e-06
1.02751e-06
6.43705e-07
6.43439e-07
6.79635e-07
6.68349e-07
6.42072e-07
6.8327e-07
6.81334e-07
1.00325e-06
1.01833e-06
6.39869e-07
6.74939e-07
6.79677e-07
1.02827e-06
1.03302e-06
1.05899e-06
6.92656e-07
7.03397e-07
7.3013e-07
7.39636e-07
1.03625e-06
1.0613e-06
6.90287e-07
6.80417e-07
7.28398e-07
7.28763e-07
6.95473e-07
7.30653e-07
7.33422e-07
1.02608e-06
1.05646e-06
6.94445e-07
7.29504e-07
7.33659e-07
1.05708e-06
1.06789e-06
1.09175e-06
7.44158e-07
7.5102e-07
7.86053e-07
7.84758e-07
1.06949e-06
1.08936e-06
7.43464e-07
7.4665e-07
7.8676e-07
7.8851e-07
7.44665e-07
7.81485e-07
7.74798e-07
1.06631e-06
1.09135e-06
7.44579e-07
7.83928e-07
7.73339e-07
1.08415e-06
1.09791e-06
1.10828e-06
7.96527e-07
7.93702e-07
8.14626e-07
8.13632e-07
1.09509e-06
1.10685e-06
7.9651e-07
7.97317e-07
8.14469e-07
8.17614e-07
7.84625e-07
8.13259e-07
8.18024e-07
1.09713e-06
1.10908e-06
7.83206e-07
8.13954e-07
8.18243e-07
1.11258e-06
1.11342e-06
1.13254e-06
8.20705e-07
8.20636e-07
8.5064e-07
8.50418e-07
1.11245e-06
1.13252e-06
8.20944e-07
8.25067e-07
8.51719e-07
8.54992e-07
8.30379e-07
8.52391e-07
8.61317e-07
1.11504e-06
1.1367e-06
8.30762e-07
8.57304e-07
8.62224e-07
1.13827e-06
1.14023e-06
1.16441e-06
8.63265e-07
8.62618e-07
8.98388e-07
8.96979e-07
1.14011e-06
1.16312e-06
8.63713e-07
8.66878e-07
8.97636e-07
9.01525e-07
8.68393e-07
8.97027e-07
8.89133e-07
1.14439e-06
1.16526e-06
8.69356e-07
8.98406e-07
8.8699e-07
1.15785e-06
1.17151e-06
1.18551e-06
9.08643e-07
9.05972e-07
9.29329e-07
9.27017e-07
1.16966e-06
1.18476e-06
9.07426e-07
9.09877e-07
9.26149e-07
9.27831e-07
8.9805e-07
9.25755e-07
9.30026e-07
1.17053e-06
1.1829e-06
8.94077e-07
9.2339e-07
9.23906e-07
1.18355e-06
1.19018e-06
1.20697e-06
9.3522e-07
9.35114e-07
9.59073e-07
9.64614e-07
1.1906e-06
1.21107e-06
9.31874e-07
9.34112e-07
9.57032e-07
9.60071e-07
9.40539e-07
9.64718e-07
9.6863e-07
1.18859e-06
1.20946e-06
9.35691e-07
9.64686e-07
9.70804e-07
1.21631e-06
1.21404e-06
1.23554e-06
9.69176e-07
9.74178e-07
9.97723e-07
9.94905e-07
1.21787e-06
1.23489e-06
9.67848e-07
9.70429e-07
9.99382e-07
1.00053e-06
9.75553e-07
9.95469e-07
9.91456e-07
1.21652e-06
1.23706e-06
9.80738e-07
1.0006e-06
9.9815e-07
1.2355e-06
1.24124e-06
1.25227e-06
1.0042e-06
1.00003e-06
1.01751e-06
1.01803e-06
1.23944e-06
1.25032e-06
1.0068e-06
1.0086e-06
1.02068e-06
1.02727e-06
9.96321e-07
1.01773e-06
1.01478e-06
1.24266e-06
1.25604e-06
1.00139e-06
1.01698e-06
1.01381e-06
1.24757e-06
1.25665e-06
1.2719e-06
1.02267e-06
1.02455e-06
1.04527e-06
1.04488e-06
1.25524e-06
1.27155e-06
1.02532e-06
1.03276e-06
1.04528e-06
1.04888e-06
1.02303e-06
1.04441e-06
1.05121e-06
1.26108e-06
1.27429e-06
1.02082e-06
1.04674e-06
1.04717e-06
1.27471e-06
1.27793e-06
1.29539e-06
1.05388e-06
1.05214e-06
1.07586e-06
1.07372e-06
1.27788e-06
1.29462e-06
1.05309e-06
1.05334e-06
1.07346e-06
1.06106e-06
1.05952e-06
1.07402e-06
1.07573e-06
1.27894e-06
1.287e-06
1.05571e-06
1.07236e-06
1.07554e-06
1.29785e-06
1.30034e-06
1.31011e-06
1.08042e-06
1.08032e-06
1.09115e-06
1.09334e-06
1.29987e-06
1.31143e-06
1.07796e-06
1.06275e-06
1.08888e-06
1.07879e-06
1.07893e-06
1.09505e-06
1.08686e-06
1.28952e-06
1.29785e-06
1.07894e-06
1.08652e-06
1.08549e-06
1.30424e-06
1.31462e-06
1.3282e-06
1.09584e-06
1.09597e-06
1.11357e-06
1.10889e-06
1.31496e-06
1.32311e-06
1.09406e-06
1.08833e-06
1.11456e-06
1.12081e-06
1.09013e-06
1.1072e-06
1.10934e-06
1.3042e-06
1.3325e-06
1.08885e-06
1.11685e-06
1.11041e-06
1.32313e-06
1.33349e-06
1.34688e-06
1.11933e-06
1.1155e-06
1.13446e-06
1.13765e-06
1.32823e-06
1.34689e-06
1.12153e-06
1.13082e-06
1.13926e-06
1.1509e-06
1.11877e-06
1.13698e-06
1.14633e-06
1.341e-06
1.36187e-06
1.12023e-06
1.14373e-06
1.14729e-06
1.35783e-06
1.35086e-06
1.35865e-06
1.1388e-06
1.14461e-06
1.15253e-06
1.15688e-06
1.35322e-06
1.3643e-06
1.14343e-06
1.15323e-06
1.15442e-06
1.15561e-06
1.15316e-06
1.15936e-06
1.16003e-06
1.36552e-06
1.36312e-06
1.1537e-06
1.15219e-06
1.1581e-06
1.36666e-06
1.3624e-06
1.36992e-06
1.15717e-06
1.15833e-06
1.16813e-06
1.16082e-06
1.36648e-06
1.36555e-06
1.15805e-06
1.15621e-06
1.16667e-06
1.15989e-06
1.15928e-06
1.16131e-06
1.15747e-06
1.36436e-06
1.3619e-06
1.15625e-06
1.1575e-06
1.1547e-06
1.35876e-06
1.37313e-06
1.37993e-06
1.17016e-06
1.16339e-06
1.17765e-06
1.18116e-06
1.36866e-06
1.3827e-06
1.1682e-06
1.16244e-06
1.17632e-06
1.17719e-06
1.15866e-06
1.18042e-06
1.17499e-06
1.36508e-06
1.37979e-06
1.15708e-06
1.18091e-06
1.17805e-06
1.37512e-06
1.38481e-06
1.40226e-06
1.18314e-06
1.18826e-06
1.20293e-06
1.20688e-06
1.389e-06
1.40703e-06
1.18189e-06
1.18381e-06
1.20221e-06
1.20366e-06
1.18226e-06
1.20616e-06
1.20652e-06
1.38635e-06
1.40554e-06
1.18551e-06
1.20565e-06
1.20739e-06
1.40774e-06
1.40831e-06
1.41936e-06
1.20915e-06
1.21094e-06
1.22099e-06
1.2159e-06
1.41166e-06
1.41494e-06
1.2087e-06
1.20882e-06
1.22083e-06
1.21731e-06
1.21432e-06
1.21675e-06
1.22896e-06
1.41036e-06
1.41554e-06
1.2135e-06
1.21512e-06
1.22567e-06
1.42916e-06
1.42183e-06
1.4244e-06
1.22239e-06
1.21705e-06
1.2266e-06
1.22684e-06
1.41714e-06
1.42334e-06
1.22232e-06
1.2192e-06
1.2266e-06
1.2281e-06
1.23097e-06
1.22771e-06
1.23162e-06
1.41822e-06
1.42514e-06
1.22838e-06
1.22923e-06
1.23299e-06
1.43061e-06
1.4277e-06
1.43705e-06
1.22976e-06
1.23157e-06
1.24215e-06
1.24431e-06
1.4276e-06
1.43862e-06
1.22965e-06
1.23217e-06
1.24191e-06
1.24325e-06
1.23061e-06
1.24313e-06
1.2297e-06
1.42925e-06
1.43891e-06
1.23354e-06
1.24373e-06
1.23411e-06
1.4254e-06
1.44124e-06
1.4482e-06
1.24589e-06
1.24758e-06
1.2537e-06
1.25253e-06
1.44273e-06
1.44735e-06
1.24562e-06
1.24611e-06
1.25343e-06
1.25106e-06
1.2303e-06
1.25053e-06
1.24152e-06
1.44253e-06
1.44558e-06
1.23444e-06
1.24918e-06
1.24054e-06
1.43183e-06
1.45029e-06
1.45148e-06
1.25462e-06
1.25295e-06
1.2565e-06
1.25696e-06
1.4495e-06
1.45345e-06
1.25441e-06
1.25202e-06
1.25656e-06
1.25855e-06
1.24763e-06
1.25871e-06
1.26856e-06
1.44778e-06
1.45285e-06
1.24435e-06
1.25678e-06
1.26093e-06
1.45895e-06
1.45488e-06
1.46586e-06
1.25916e-06
1.26029e-06
1.2722e-06
1.27233e-06
1.45712e-06
1.46691e-06
1.25939e-06
1.26234e-06
1.27209e-06
1.27431e-06
1.27465e-06
1.27452e-06
1.28413e-06
1.45683e-06
1.46779e-06
1.26688e-06
1.27315e-06
1.27981e-06
1.48021e-06
1.47057e-06
1.48076e-06
1.27631e-06
1.27597e-06
1.28583e-06
1.28351e-06
1.47102e-06
1.47671e-06
1.27617e-06
1.27763e-06
1.28559e-06
1.28365e-06
1.2843e-06
1.28231e-06
1.27782e-06
1.47206e-06
1.47772e-06
1.28174e-06
1.28322e-06
1.28157e-06
1.47535e-06
1.48362e-06
1.48206e-06
1.28738e-06
1.28472e-06
1.2883e-06
1.28748e-06
1.47888e-06
1.48012e-06
1.2871e-06
1.28421e-06
1.28766e-06
1.28477e-06
1.27581e-06
1.28409e-06
1.2742e-06
1.47956e-06
1.47845e-06
1.28016e-06
1.2844e-06
1.27835e-06
1.46846e-06
1.48333e-06
1.47924e-06
1.28781e-06
1.2883e-06
1.28663e-06
1.2899e-06
1.48241e-06
1.48446e-06
1.28676e-06
1.28532e-06
1.28562e-06
1.29207e-06
1.27589e-06
1.28985e-06
1.29192e-06
1.48087e-06
1.48823e-06
1.27859e-06
1.29433e-06
1.29035e-06
1.48359e-06
1.48157e-06
1.49147e-06
1.28686e-06
1.29032e-06
1.29662e-06
1.296e-06
1.48699e-06
1.49335e-06
1.28632e-06
1.29485e-06
1.29829e-06
1.30222e-06
1.29734e-06
1.29954e-06
1.31052e-06
1.49243e-06
1.50244e-06
1.29632e-06
1.3077e-06
1.31125e-06
1.50849e-06
1.49646e-06
1.5086e-06
1.301e-06
1.29992e-06
1.31174e-06
1.3105e-06
1.49743e-06
1.50716e-06
1.30231e-06
1.30428e-06
1.31113e-06
1.3078e-06
1.3129e-06
1.31091e-06
1.31293e-06
1.50578e-06
1.50514e-06
1.31445e-06
1.30932e-06
1.31377e-06
1.51118e-06
1.51172e-06
1.51019e-06
1.31388e-06
1.31283e-06
1.31472e-06
1.31285e-06
1.51036e-06
1.50618e-06
1.31233e-06
1.30823e-06
1.31246e-06
1.30771e-06
1.30987e-06
1.30941e-06
1.30004e-06
1.50634e-06
1.49811e-06
1.30853e-06
1.29972e-06
1.29516e-06
1.49153e-06
1.51142e-06
1.50489e-06
1.31326e-06
1.31017e-06
1.30799e-06
1.30471e-06
1.50703e-06
1.49885e-06
1.31173e-06
1.30659e-06
1.30843e-06
1.30463e-06
1.29751e-06
1.30238e-06
1.29552e-06
1.49907e-06
1.49618e-06
1.29237e-06
1.2979e-06
1.2929e-06
1.48808e-06
1.50606e-06
1.50641e-06
1.30675e-06
1.30433e-06
1.30739e-06
1.31234e-06
1.50063e-06
1.51187e-06
1.30749e-06
1.30471e-06
1.30792e-06
1.31361e-06
1.29867e-06
1.31387e-06
1.32026e-06
1.49955e-06
1.51442e-06
1.30022e-06
1.31925e-06
1.32509e-06
1.52207e-06
1.51034e-06
1.52252e-06
1.31151e-06
1.31727e-06
1.32378e-06
1.32837e-06
1.51766e-06
1.53201e-06
1.3113e-06
1.31781e-06
1.32261e-06
1.32711e-06
1.3266e-06
1.33086e-06
1.33842e-06
1.52024e-06
1.53221e-06
1.33187e-06
1.33294e-06
1.34215e-06
1.5472e-06
1.52697e-06
1.52904e-06
1.32677e-06
1.33014e-06
1.32913e-06
1.32543e-06
1.53511e-06
1.52441e-06
1.32546e-06
1.3282e-06
1.32841e-06
1.32345e-06
1.33846e-06
1.32435e-06
1.32074e-06
1.53423e-06
1.52168e-06
1.34114e-06
1.3204e-06
1.31867e-06
1.52039e-06
1.5301e-06
1.51904e-06
1.32697e-06
1.32142e-06
1.31803e-06
1.3124e-06
1.52468e-06
1.5086e-06
1.32722e-06
1.3205e-06
1.31892e-06
1.31389e-06
1.31366e-06
1.30901e-06
1.2992e-06
1.52207e-06
1.50899e-06
1.31116e-06
1.30697e-06
1.29638e-06
1.49188e-06
1.51981e-06
1.51158e-06
1.31557e-06
1.31098e-06
1.31146e-06
1.31436e-06
1.50969e-06
1.51553e-06
1.31616e-06
1.31283e-06
1.31011e-06
1.31421e-06
1.29805e-06
1.31428e-06
1.31198e-06
1.5104e-06
1.51603e-06
1.29556e-06
1.31408e-06
1.31103e-06
1.50927e-06
1.51306e-06
1.5176e-06
1.31146e-06
1.31758e-06
1.31708e-06
1.32497e-06
1.52021e-06
1.53178e-06
1.30945e-06
1.31599e-06
1.31377e-06
1.32155e-06
1.31922e-06
1.32894e-06
1.33485e-06
1.52003e-06
1.5286e-06
1.31799e-06
1.32569e-06
1.33263e-06
1.53999e-06
1.52197e-06
1.5359e-06
1.32021e-06
1.32662e-06
1.32967e-06
1.32765e-06
1.5353e-06
1.53502e-06
1.31809e-06
1.32338e-06
1.3306e-06
1.32675e-06
1.3374e-06
1.32996e-06
1.33335e-06
1.53164e-06
1.53273e-06
1.33475e-06
1.32651e-06
1.33033e-06
1.54082e-06
1.54074e-06
1.54451e-06
1.33198e-06
1.32695e-06
1.33343e-06
1.32456e-06
1.53633e-06
1.53052e-06
1.33382e-06
1.32713e-06
1.33622e-06
1.32519e-06
1.32926e-06
1.32224e-06
1.31957e-06
1.53433e-06
1.52878e-06
1.3271e-06
1.32104e-06
1.31985e-06
1.52769e-06
1.5453e-06
1.52186e-06
1.33132e-06
1.32379e-06
1.31514e-06
1.31722e-06
1.53171e-06
1.52277e-06
1.3335e-06
1.32207e-06
1.31396e-06
1.31231e-06
1.31733e-06
1.31523e-06
1.31161e-06
1.52969e-06
1.51811e-06
1.3183e-06
1.31221e-06
1.31335e-06
1.51836e-06
1.52155e-06
1.50254e-06
1.31e-06
1.31371e-06
1.29956e-06
1.3036e-06
1.52349e-06
1.51009e-06
1.3082e-06
1.30983e-06
1.29749e-06
1.30734e-06
1.30979e-06
1.3041e-06
1.30541e-06
1.519e-06
1.51784e-06
1.31151e-06
1.30983e-06
1.30725e-06
1.5121e-06
1.5042e-06
1.51984e-06
1.29895e-06
1.3017e-06
1.3103e-06
1.30587e-06
1.51098e-06
1.51648e-06
1.29727e-06
1.30932e-06
1.31115e-06
1.31945e-06
1.30515e-06
1.30638e-06
1.31328e-06
1.522e-06
1.53404e-06
1.30706e-06
1.31974e-06
1.31453e-06
1.52468e-06
1.52651e-06
1.54154e-06
1.31559e-06
1.31258e-06
1.32472e-06
1.32539e-06
1.52316e-06
1.54164e-06
1.31631e-06
1.3213e-06
1.32458e-06
1.32026e-06
1.3173e-06
1.32512e-06
1.3238e-06
1.53797e-06
1.53199e-06
1.31769e-06
1.31771e-06
1.32189e-06
1.53972e-06
1.54359e-06
1.52329e-06
1.32488e-06
1.32654e-06
1.30879e-06
1.31096e-06
1.54547e-06
1.52561e-06
1.32437e-06
1.31529e-06
1.3078e-06
1.3013e-06
1.32333e-06
1.3104e-06
1.30465e-06
1.53223e-06
1.51188e-06
1.32074e-06
1.30053e-06
1.30321e-06
1.51775e-06
1.52308e-06
1.50291e-06
1.30253e-06
1.30255e-06
1.28908e-06
1.28514e-06
1.52464e-06
1.49773e-06
1.30201e-06
1.29798e-06
1.28932e-06
1.29252e-06
1.29845e-06
1.2846e-06
1.2864e-06
1.51237e-06
1.507e-06
1.29807e-06
1.29361e-06
1.28828e-06
1.50031e-06
1.50402e-06
1.50731e-06
1.28753e-06
1.28318e-06
1.29122e-06
1.29014e-06
1.49857e-06
1.50604e-06
1.28776e-06
1.29248e-06
1.28984e-06
1.2933e-06
1.28581e-06
1.29014e-06
1.29335e-06
1.50966e-06
1.51367e-06
1.28797e-06
1.29516e-06
1.29396e-06
1.51108e-06
1.51085e-06
1.51475e-06
1.29355e-06
1.29395e-06
1.29581e-06
1.29798e-06
1.51104e-06
1.51898e-06
1.29155e-06
1.29332e-06
1.29307e-06
1.29045e-06
1.29604e-06
1.29797e-06
1.2982e-06
1.51594e-06
1.51108e-06
1.29592e-06
1.29181e-06
1.29706e-06
1.51873e-06
1.51624e-06
1.50722e-06
1.29534e-06
1.29733e-06
1.28558e-06
1.28476e-06
1.52036e-06
1.50682e-06
1.29269e-06
1.28919e-06
1.28506e-06
1.28302e-06
1.29681e-06
1.28422e-06
1.28463e-06
1.51219e-06
1.50341e-06
1.29551e-06
1.28323e-06
1.28476e-06
1.50688e-06
1.5082e-06
1.49828e-06
1.28347e-06
1.28214e-06
1.27454e-06
1.27366e-06
1.50751e-06
1.49572e-06
1.28348e-06
1.28194e-06
1.27564e-06
1.27625e-06
1.28244e-06
1.27295e-06
1.27274e-06
1.50459e-06
1.4987e-06
1.28288e-06
1.27526e-06
1.27347e-06
1.49513e-06
1.49939e-06
1.49073e-06
1.27318e-06
1.27252e-06
1.26615e-06
1.26587e-06
1.4969e-06
1.48942e-06
1.27428e-06
1.27511e-06
1.26621e-06
1.26771e-06
1.27094e-06
1.26477e-06
1.26257e-06
1.49997e-06
1.49273e-06
1.27153e-06
1.26651e-06
1.26269e-06
1.4857e-06
1.49186e-06
1.46774e-06
1.2652e-06
1.26507e-06
1.24079e-06
1.24225e-06
1.49069e-06
1.4706e-06
1.265e-06
1.2667e-06
1.2397e-06
1.24184e-06
1.26213e-06
1.24259e-06
1.2422e-06
1.49397e-06
1.47078e-06
1.26217e-06
1.24272e-06
1.24181e-06
1.46957e-06
1.44744e-06
1.20383e-06
1.2062e-06
1.45141e-06
1.20277e-06
1.20468e-06
7.62006e-07
7.6119e-07
7.62958e-07
1.20764e-06
1.45037e-06
1.20706e-06
7.53534e-11
2.67142e-09
1.32811e-10
2.01277e-10
5.58522e-09
3.58183e-09
3.7497e-09
9.71416e-10
5.4984e-09
3.81595e-09
1.09433e-09
1.09406e-08
5.27358e-09
7.90053e-09
3.94294e-09
7.36866e-09
1.84006e-07
5.89756e-09
2.91254e-07
1.53785e-06
3.06924e-06
8.6973e-09
1.66518e-07
7.37437e-09
2.64904e-07
1.23947e-09
1.35725e-09
2.15137e-09
1.54409e-09
1.21775e-09
1.3451e-09
2.13343e-09
4.7765e-09
7.42105e-08
2.7128e-09
3.32679e-09
5.02322e-09
5.30543e-08
2.68621e-09
1.54985e-06
3.06945e-06
4.75924e-09
2.97075e-09
8.4066e-08
4.13655e-09
5.02514e-09
2.93654e-09
6.22796e-08
2.19227e-07
2.17522e-07
4.90459e-09
1.88136e-07
1.86743e-07
1.72824e-08
5.22409e-07
1.2011e-08
7.51911e-07
6.86375e-06
1.00211e-05
1.7896e-08
4.72515e-07
1.33501e-08
6.80211e-07
1.19955e-09
1.32855e-09
2.11107e-09
1.45934e-09
1.14548e-09
1.27909e-09