/*--------------------------------*- C++ -*----------------------------------*\
| =========                 |                                                 |
| \\      /  F ield         | OpenFOAM: The Open Source CFD Toolbox           |
|  \\    /   O peration     | Version:  v2012                                 |
|   \\  /    A nd           | Website:  www.openfoam.com                      |
|    \\/     M anipulation  |                                                 |
\*---------------------------------------------------------------------------*/
FoamFile
{
    version     2.0;
    format      ascii;
    class       volScalarField;
    location    "1387.5";
    object      k;
}
// * * * * * * * * * * * * * * * * * * * * * * * * * * * * * * * * * * * * * //

dimensions      [0 2 -2 0 0 0 0];


internalField   nonuniform List<scalar> 
171728
(
1.64699e-07
2.58228e-07
2.84929e-07
3.59356e-07
1.63095e-07
2.46442e-07
2.69084e-07
3.46237e-07
1.58164e-07
2.35234e-07
2.53376e-07
3.36213e-07
1.53249e-07
2.24905e-07
2.40655e-07
3.15675e-07
1.50082e-07
2.1535e-07
2.29949e-07
2.95011e-07
1.47886e-07
2.06745e-07
2.20857e-07
2.75899e-07
1.44777e-07
1.99063e-07
2.0853e-07
2.63081e-07
1.41135e-07
1.92219e-07
1.96483e-07
2.5405e-07
1.37849e-07
1.85976e-07
1.88225e-07
2.53793e-07
1.34963e-07
1.80494e-07
1.8374e-07
2.59058e-07
1.32448e-07
1.76035e-07
1.80345e-07
2.84157e-07
1.30077e-07
1.71907e-07
1.77334e-07
3.40427e-07
1.27965e-07
1.68112e-07
1.76238e-07
3.80335e-07
1.25896e-07
1.65632e-07
1.76099e-07
3.44349e-07
1.23998e-07
1.65548e-07
1.78606e-07
2.39596e-07
1.21748e-07
1.69788e-07
1.85892e-07
2.16945e-07
1.1905e-07
1.7901e-07
1.9856e-07
2.15579e-07
1.17215e-07
1.95663e-07
2.22111e-07
2.28219e-07
1.16723e-07
2.28677e-07
2.61605e-07
2.62993e-07
1.14835e-07
2.76974e-07
3.25635e-07
3.04324e-07
1.13575e-07
3.59521e-07
4.10194e-07
4.95999e-07
1.05474e-07
4.37861e-07
5.38786e-07
5.70949e-07
1.00033e-07
6.75658e-07
7.50629e-07
1.11704e-06
9.65243e-08
8.52504e-07
9.61974e-07
1.72103e-06
9.34933e-08
1.16416e-06
1.26724e-06
2.45821e-06
9.47506e-08
1.63086e-06
1.78188e-06
3.85462e-06
1.02692e-07
2.10725e-06
1.98903e-06
5.49665e-06
1.18015e-07
2.63458e-06
2.89792e-06
8.38676e-06
1.26772e-07
3.62535e-06
3.60555e-06
8.74434e-06
1.52037e-07
4.1299e-06
4.10932e-06
1.33477e-05
1.77647e-07
5.68143e-06
5.72327e-06
1.44035e-05
2.31555e-07
6.03166e-06
6.39378e-06
1.76766e-05
2.82365e-07
8.2832e-06
7.4943e-06
1.9102e-05
4.0777e-07
8.67365e-06
9.43078e-06
2.18913e-05
4.82928e-07
1.08327e-05
1.00767e-05
2.31162e-05
6.38928e-07
1.1941e-05
1.24504e-05
2.51586e-05
8.99913e-07
1.35187e-05
1.36301e-05
2.64594e-05
9.83433e-07
1.59761e-05
1.51545e-05
2.76978e-05
1.60465e-06
1.73681e-05
1.85171e-05
2.98797e-05
1.69618e-06
1.73163e-05
1.84591e-05
2.95644e-05
2.06288e-06
2.22176e-05
1.94555e-05
3.19335e-05
3.21727e-06
2.38659e-05
2.39737e-05
3.36551e-05
3.27849e-06
2.36477e-05
2.46791e-05
3.36044e-05
3.90699e-06
2.58749e-05
2.62702e-05
3.47199e-05
5.00673e-06
2.81442e-05
2.68976e-05
3.62066e-05
5.39194e-06
2.94203e-05
2.99983e-05
3.74732e-05
7.6518e-06
3.19968e-05
3.19128e-05
3.80012e-05
8.40837e-06
3.23652e-05
3.20319e-05
3.96426e-05
8.37088e-06
3.38731e-05
3.44937e-05
4.05689e-05
1.1151e-05
3.5951e-05
3.57898e-05
4.0692e-05
1.23e-05
3.61591e-05
3.59568e-05
4.21999e-05
1.27072e-05
3.8625e-05
3.86262e-05
4.38143e-05
1.53815e-05
3.93477e-05
3.9808e-05
4.40212e-05
1.70563e-05
4.01121e-05
3.98058e-05
4.40771e-05
1.73143e-05
4.11747e-05
4.17044e-05
4.62004e-05
2.02761e-05
4.28803e-05
4.26599e-05
4.67211e-05
2.16413e-05
4.35645e-05
4.26493e-05
4.64103e-05
2.23016e-05
4.3507e-05
4.46847e-05
4.74705e-05
2.48962e-05
4.59284e-05
4.63117e-05
4.99655e-05
2.57897e-05
4.66512e-05
4.63102e-05
4.95506e-05
2.72467e-05
4.62874e-05
4.59425e-05
4.86173e-05
2.78071e-05
4.72632e-05
4.76039e-05
4.98674e-05
2.97298e-05
4.91781e-05
4.91054e-05
5.17312e-05
3.18289e-05
4.94308e-05
4.92785e-05
5.24791e-05
3.23582e-05
4.95701e-05
4.98124e-05
5.25938e-05
3.31663e-05
5.08359e-05
5.09501e-05
5.19997e-05
3.485e-05
5.11791e-05
5.11088e-05
5.20954e-05
3.54605e-05
5.13912e-05
5.11595e-05
5.40957e-05
3.60294e-05
5.26749e-05
5.25885e-05
5.51846e-05
3.79278e-05
5.30077e-05
5.31831e-05
5.46217e-05
3.89261e-05
5.3041e-05
5.30771e-05
5.39166e-05
3.88408e-05
5.34587e-05
5.35305e-05
5.49212e-05
3.94215e-05
5.42091e-05
5.49498e-05
5.67615e-05
4.12634e-05
5.51707e-05
5.50984e-05
5.69036e-05
4.23621e-05
5.50715e-05
5.42561e-05
5.52764e-05
4.23747e-05
5.43921e-05
5.39835e-05
5.47678e-05
4.21686e-05
5.54158e-05
5.60497e-05
5.76427e-05
4.35952e-05
5.70096e-05
5.71447e-05
5.91844e-05
4.49237e-05
5.65755e-05
5.62734e-05
5.72206e-05
4.48685e-05
5.53525e-05
5.52797e-05
5.53006e-05
4.43641e-05
5.58546e-05
5.60002e-05
5.68879e-05
4.44113e-05
5.73679e-05
5.71414e-05
5.89474e-05
4.61999e-05
5.75605e-05
5.73515e-05
5.8765e-05
4.7078e-05
5.71843e-05
5.72248e-05
5.79773e-05
4.65283e-05
5.69049e-05
5.65584e-05
5.76661e-05
4.53907e-05
5.61018e-05
5.64449e-05
5.70016e-05
4.57637e-05
5.66081e-05
5.78657e-05
5.84597e-05
4.77292e-05
5.85744e-05
5.79754e-05
5.95546e-05
4.75909e-05
5.76632e-05
5.66049e-05
5.78418e-05
4.62145e-05
5.58485e-05
5.64314e-05
5.68931e-05
4.61703e-05
5.66726e-05
5.71482e-05
5.8226e-05
4.71204e-05
5.75277e-05
5.71856e-05
5.86443e-05
4.71869e-05
5.68886e-05
5.67392e-05
5.79082e-05
4.67568e-05
5.63435e-05
5.65103e-05
5.7568e-05
4.6071e-05
5.50232e-05
5.52045e-05
5.68222e-05
3.62737e-07
3.25702e-07
3.33047e-07
3.47124e-07
3.17855e-07
3.26143e-07
1.62225e-07
1.42559e-07
1.48981e-07
1.83734e-07
2.86228e-07
3.63786e-07
3.41495e-07
2.83116e-07
3.08187e-07
3.61939e-07
3.61609e-07
3.46523e-07
4.10302e-07
3.24415e-07
3.95421e-07
3.16756e-07
3.46077e-07
3.27717e-07
3.15681e-07
3.30827e-07
3.06026e-07
3.22597e-07
5.48233e-07
2.49418e-07
5.38537e-07
3.40823e-07
3.25929e-07
3.2889e-07
2.73394e-07
3.1559e-07
3.48834e-07
3.45169e-07
3.29549e-07
3.86731e-07
3.13827e-07
3.59966e-07
3.04575e-07
3.26596e-07
3.10291e-07
3.02634e-07
3.19569e-07
2.92745e-07
3.11214e-07
5.31494e-07
2.37924e-07
5.1679e-07
3.24952e-07
3.08788e-07
3.1088e-07
2.56997e-07
2.98459e-07
3.38587e-07
3.28311e-07
3.13531e-07
3.50622e-07
3.01423e-07
3.23454e-07
2.91325e-07
3.09376e-07
2.95245e-07
2.89531e-07
3.08383e-07
2.7982e-07
2.99344e-07
5.05276e-07
2.27391e-07
4.34129e-07
3.07701e-07
2.91986e-07
2.9526e-07
2.43622e-07
2.87585e-07
3.19128e-07
3.12403e-07
2.98214e-07
3.14663e-07
2.87823e-07
2.90764e-07
2.7653e-07
2.94402e-07
2.80915e-07
2.76596e-07
2.96579e-07
2.67133e-07
2.88957e-07
4.03451e-07
2.17592e-07
3.16889e-07
2.90952e-07
2.77148e-07
2.85485e-07
2.32422e-07
2.80785e-07
2.96633e-07
2.97185e-07
2.83604e-07
2.83851e-07
2.72437e-07
2.66146e-07
2.60117e-07
2.80087e-07
2.66993e-07
2.64033e-07
2.86731e-07
2.55023e-07
2.79834e-07
2.94686e-07
2.08732e-07
2.52433e-07
2.76152e-07
2.63839e-07
2.79552e-07
2.23302e-07
2.76563e-07
2.77124e-07
2.82614e-07
2.69733e-07
2.61657e-07
2.56088e-07
2.52887e-07
2.42843e-07
2.66216e-07
2.53948e-07
2.52184e-07
2.77563e-07
2.44534e-07
2.70927e-07
2.43933e-07
2.0086e-07
2.29651e-07
2.62953e-07
2.51339e-07
2.75875e-07
2.11772e-07
2.74624e-07
2.63871e-07
2.68846e-07
2.57324e-07
2.50612e-07
2.38043e-07
2.43462e-07
2.22923e-07
2.53244e-07
2.40992e-07
2.42182e-07
2.68656e-07
2.35612e-07
2.64419e-07
2.27191e-07
1.93863e-07
2.21921e-07
2.50472e-07
2.39217e-07
2.74612e-07
1.99212e-07
2.82267e-07
2.54567e-07
2.56593e-07
2.46342e-07
2.40667e-07
2.17637e-07
2.32648e-07
2.03235e-07
2.40291e-07
2.2637e-07
2.33502e-07
2.63124e-07
2.27459e-07
2.59223e-07
2.20711e-07
1.87441e-07
2.17055e-07
2.38461e-07
2.28101e-07
2.88734e-07
1.89913e-07
3.12593e-07
2.53631e-07
2.45747e-07
2.36805e-07
2.30365e-07
1.98949e-07
2.24801e-07
1.86853e-07
2.25474e-07
2.11429e-07
2.25751e-07
2.57698e-07
2.20763e-07
2.51794e-07
2.15606e-07
1.81762e-07
2.11002e-07
2.27434e-07
2.18798e-07
3.26188e-07
1.84779e-07
3.74942e-07
2.58543e-07
2.36296e-07
2.28106e-07
2.23551e-07
1.82989e-07
2.20414e-07
1.72444e-07
2.10826e-07
2.00211e-07
2.19038e-07
2.50263e-07
2.15023e-07
2.45969e-07
2.09182e-07
1.77114e-07
2.0251e-07
2.1837e-07
2.12018e-07
3.88903e-07
1.8114e-07
4.54996e-07
2.81065e-07
2.2772e-07
2.21349e-07
2.19193e-07
1.69464e-07
2.17444e-07
1.62136e-07
1.99841e-07
1.8962e-07
2.13966e-07
2.4468e-07
2.11765e-07
2.41901e-07
2.00798e-07
1.72888e-07
1.99664e-07
2.11719e-07
2.05593e-07
4.9695e-07
1.77742e-07
6.69024e-07
3.36437e-07
2.21178e-07
2.1757e-07
2.1747e-07
1.6001e-07
2.18509e-07
1.54436e-07
1.89187e-07
1.78013e-07
2.11731e-07
2.40858e-07
2.12385e-07
2.38744e-07
1.99805e-07
1.6891e-07
2.01743e-07
2.05356e-07
2.001e-07
7.25899e-07
1.76305e-07
8.33592e-07
3.80207e-07
2.17685e-07
2.16712e-07
2.1941e-07
1.52753e-07
2.24937e-07
1.48489e-07
1.77575e-07
1.67028e-07
2.12785e-07
2.38445e-07
2.13955e-07
2.34687e-07
2.02973e-07
1.66064e-07
2.07284e-07
2.00065e-07
1.95954e-07
8.45312e-07
1.75989e-07
8.33077e-07
3.64861e-07
2.17233e-07
2.18815e-07
2.279e-07
1.4766e-07
2.36613e-07
1.45504e-07
1.6692e-07
1.60246e-07
2.14718e-07
2.33281e-07
2.17626e-07
2.3309e-07
2.08757e-07
1.65315e-07
2.16663e-07
1.96095e-07
1.93202e-07
7.78345e-07
1.77587e-07
5.08247e-07
2.432e-07
2.20167e-07
2.2527e-07
2.40708e-07
1.45563e-07
2.55304e-07
1.47771e-07
1.60673e-07
1.59613e-07
2.19152e-07
2.33966e-07
2.25664e-07
2.38234e-07
2.21855e-07
1.68237e-07
2.44971e-07
1.93763e-07
1.94251e-07
4.41668e-07
1.83086e-07
3.08984e-07
2.16553e-07
2.28112e-07
2.39353e-07
2.62131e-07
1.49364e-07
2.84393e-07
1.57577e-07
1.61115e-07
1.65343e-07
2.29166e-07
2.42071e-07
2.45558e-07
2.60696e-07
2.54326e-07
1.76164e-07
2.85259e-07
1.95927e-07
2.02111e-07
2.81261e-07
1.94525e-07
2.27971e-07
2.13693e-07
2.44467e-07
2.63433e-07
2.90689e-07
1.61003e-07
3.27844e-07
1.74577e-07
1.68376e-07
1.79542e-07
2.4957e-07
2.68424e-07
2.78369e-07
2.94537e-07
2.96356e-07
1.91632e-07
3.17201e-07
2.06485e-07
2.2174e-07
2.1561e-07
2.15829e-07
2.03815e-07
2.22359e-07
2.72329e-07
3.04932e-07
3.35779e-07
1.8022e-07
3.7465e-07
2.09338e-07
1.86346e-07
2.13962e-07
2.86545e-07
3.01502e-07
3.20969e-07
3.2658e-07
3.24427e-07
2.20914e-07
3.46318e-07
2.278e-07
2.5595e-07
2.04234e-07
2.51033e-07
2.13311e-07
2.50419e-07
3.20368e-07
3.80794e-07
4.00224e-07
2.21213e-07
4.30437e-07
2.69879e-07
2.28603e-07
2.73983e-07
3.426e-07
3.33597e-07
3.81643e-07
3.42629e-07
3.49237e-07
2.62273e-07
3.42996e-07
2.67674e-07
3.06948e-07
2.26559e-07
3.05896e-07
2.53625e-07
2.9319e-07
4.06132e-07
4.62471e-07
4.48389e-07
2.88813e-07
4.94529e-07
3.42087e-07
2.93621e-07
3.85521e-07
4.07245e-07
3.47196e-07
4.73044e-07
3.6651e-07
3.43057e-07
3.25995e-07
4.06166e-07
3.29342e-07
4.174e-07
2.6039e-07
3.8811e-07
3.35278e-07
4.49028e-07
4.68619e-07
9.68875e-07
4.98623e-07
3.85113e-07
6.59137e-07
4.82791e-07
4.3109e-07
6.01449e-07
4.81144e-07
3.76379e-07
6.51731e-07
4.31521e-07
4.21925e-07
4.25253e-07
4.30658e-07
4.45203e-07
5.66462e-07
3.5774e-07
4.97474e-07
4.04107e-07
5.40351e-07
1.16485e-06
1.00378e-06
7.11179e-07
4.89911e-07
6.4004e-07
6.33282e-07
6.18284e-07
9.8271e-07
7.38176e-07
4.68738e-07
7.85905e-07
6.13597e-07
4.42201e-07
6.15771e-07
6.27895e-07
6.35745e-07
1.09611e-06
4.44002e-07
7.13511e-07
5.86545e-07
9.93437e-07
9.741e-07
1.49161e-06
6.06523e-07
7.06115e-07
7.97058e-07
8.08175e-07
1.18142e-06
1.46178e-06
7.80025e-07
6.48181e-07
8.96668e-07
7.29704e-07
6.83744e-07
7.66203e-07
8.4401e-07
1.17278e-06
1.2898e-06
6.26322e-07
8.64933e-07
8.50527e-07
1.58405e-06
1.81291e-06
2.72428e-06
1.00482e-06
8.99316e-07
1.31886e-06
1.13303e-06
1.5434e-06
2.56957e-06
9.86611e-07
8.10759e-07
1.27001e-06
1.13278e-06
9.14262e-07
1.13405e-06
1.08988e-06
1.43653e-06
2.57928e-06
9.16017e-07
1.22968e-06
1.14654e-06
2.27958e-06
2.86099e-06
3.21707e-06
1.32961e-06
1.16313e-06
1.36907e-06
1.56223e-06
2.70957e-06
3.25135e-06
1.34239e-06
1.1962e-06
1.47834e-06
1.47469e-06
1.13664e-06
1.47466e-06
1.53555e-06
2.75821e-06
3.53194e-06
1.24051e-06
1.61051e-06
1.67946e-06
3.49582e-06
3.4738e-06
5.39258e-06
1.47758e-06
1.73568e-06
1.99624e-06
1.97677e-06
3.73067e-06
5.45421e-06
1.62608e-06
1.63136e-06
2.09129e-06
1.8518e-06
1.64335e-06
1.95949e-06
1.87436e-06
3.88894e-06
4.87849e-06
1.8004e-06
1.9578e-06
2.09449e-06
5.19381e-06
5.70314e-06
6.801e-06
2.05437e-06
2.10479e-06
2.53883e-06
2.54867e-06
5.57259e-06
6.86962e-06
2.13856e-06
1.91885e-06
2.62628e-06
2.75346e-06
2.11062e-06
2.49217e-06
2.75372e-06
4.98004e-06
7.08187e-06
2.35439e-06
2.6666e-06
3.2221e-06
8.18186e-06
7.37766e-06
1.00713e-05
2.83851e-06
2.72849e-06
3.29778e-06
3.58462e-06
7.4549e-06
9.64373e-06
2.96448e-06
2.96097e-06
3.49975e-06
3.33172e-06
2.792e-06
3.4336e-06
2.97637e-06
7.97377e-06
1.00538e-05
3.31136e-06
3.3685e-06
3.38097e-06
8.30484e-06
1.02966e-05
1.11389e-05
3.35721e-06
3.77851e-06
4.08639e-06
4.04329e-06
1.01798e-05
1.1741e-05
3.54402e-06
3.53137e-06
4.16598e-06
3.95613e-06
3.36768e-06
3.88861e-06
4.40836e-06
1.01751e-05
1.12793e-05
3.50037e-06
4.00138e-06
4.22707e-06
1.29376e-05
1.18147e-05
1.48199e-05
4.4175e-06
4.27425e-06
5.11152e-06
5.71961e-06
1.19474e-05
1.50446e-05
4.50347e-06
4.14215e-06
4.94973e-06
5.2243e-06
4.47986e-06
5.48323e-06
4.93046e-06
1.1895e-05
1.4294e-05
4.36686e-06
5.23922e-06
5.38312e-06
1.38977e-05
1.52591e-05
1.66552e-05
5.3499e-06
5.98751e-06
6.22276e-06
6.143e-06
1.57966e-05
1.63906e-05
5.19587e-06
5.70935e-06
6.41702e-06
6.44821e-06
5.29774e-06
5.85438e-06
6.23969e-06
1.50299e-05
1.73759e-05
5.83837e-06
6.32624e-06
6.67596e-06
1.73016e-05
1.71375e-05
1.88611e-05
6.49732e-06
6.22513e-06
7.23693e-06
7.85319e-06
1.66013e-05
1.95929e-05
6.62375e-06
6.45666e-06
7.19539e-06
6.6592e-06
6.46115e-06
7.87098e-06
7.23103e-06
1.75467e-05
1.81172e-05
6.76976e-06
7.16152e-06
7.26552e-06
1.85903e-05
1.93227e-05
2.13205e-05
7.56997e-06
8.35402e-06
8.95466e-06
8.85727e-06
2.03088e-05
2.10279e-05
7.60632e-06
7.26121e-06
9.03322e-06
9.65264e-06
7.60623e-06
8.59333e-06
9.03823e-06
1.87754e-05
2.16862e-05
7.61802e-06
9.04315e-06
9.09677e-06
2.14404e-05
2.18373e-05
2.27997e-05
9.29241e-06
8.96227e-06
1.00742e-05
1.01149e-05
2.12573e-05
2.27903e-05
9.4036e-06
1.0026e-05
1.01393e-05
1.01989e-05
9.34102e-06
1.01205e-05
9.94223e-06
2.1988e-05
2.24671e-05
9.42083e-06
9.81709e-06
9.9495e-06
2.27815e-05
2.3067e-05
2.44938e-05
1.03737e-05
1.066e-05
1.1506e-05
1.249e-05
2.33887e-05
2.48234e-05
1.0309e-05
1.02013e-05
1.12741e-05
1.12072e-05
1.03255e-05
1.17365e-05
1.16701e-05
2.28281e-05
2.48395e-05
1.03073e-05
1.1748e-05
1.17086e-05
2.4684e-05
2.50439e-05
2.63583e-05
1.21599e-05
1.29606e-05
1.37744e-05
1.33497e-05
2.51132e-05
2.58148e-05
1.19736e-05
1.22736e-05
1.38113e-05
1.37473e-05
1.21958e-05
1.30328e-05
1.36734e-05
2.52579e-05
2.59034e-05
1.2253e-05
1.35777e-05
1.36685e-05
2.62646e-05
2.65742e-05
2.7226e-05
1.38994e-05
1.34293e-05
1.43347e-05
1.53056e-05
2.61289e-05
2.83506e-05
1.39718e-05
1.38251e-05
1.43425e-05
1.48717e-05
1.3819e-05
1.53897e-05
1.43361e-05
2.6137e-05
2.75792e-05
1.37928e-05
1.41709e-05
1.42953e-05
2.71312e-05
2.77031e-05
2.94062e-05
1.50291e-05
1.61664e-05
1.75199e-05
1.72907e-05
2.87718e-05
2.86408e-05
1.49363e-05
1.61295e-05
1.75321e-05
1.85984e-05
1.50564e-05
1.7327e-05
1.75484e-05
2.82209e-05
2.98848e-05
1.50367e-05
1.80433e-05
1.75678e-05
2.96889e-05
2.966e-05
2.97928e-05
1.81037e-05
1.7261e-05
1.84283e-05
1.68991e-05
2.86582e-05
2.86511e-05
1.81139e-05
1.88107e-05
1.84623e-05
1.85993e-05
1.81829e-05
1.72444e-05
1.85841e-05
3.00141e-05
2.9358e-05
1.82004e-05
1.86207e-05
1.86049e-05
2.95055e-05
2.98902e-05
3.11228e-05
1.83912e-05
1.69836e-05
1.9288e-05
2.15973e-05
2.91873e-05
3.28984e-05
1.84422e-05
1.82367e-05
1.93465e-05
1.82119e-05
1.85371e-05
2.09245e-05
1.90486e-05
2.93906e-05
3.06034e-05
1.85525e-05
1.86152e-05
1.89725e-05
3.11749e-05
3.17697e-05
3.31142e-05
2.07227e-05
2.32542e-05
2.35173e-05
2.48848e-05
3.34533e-05
3.33638e-05
2.05116e-05
1.90041e-05
2.31772e-05
2.39349e-05
2.03545e-05
2.38236e-05
2.35927e-05
3.1341e-05
3.35662e-05
2.01627e-05
2.32554e-05
2.3503e-05
3.35583e-05
3.32609e-05
3.33273e-05
2.38538e-05
2.48893e-05
2.38989e-05
2.38572e-05
3.33666e-05
3.30081e-05
2.35381e-05
2.46977e-05
2.37144e-05
2.57029e-05
2.40768e-05
2.36799e-05
2.43958e-05
3.37802e-05
3.41626e-05
2.40435e-05
2.46339e-05
2.44836e-05
3.34998e-05
3.3481e-05
3.46439e-05
2.38636e-05
2.35799e-05
2.48315e-05
2.3922e-05
3.31935e-05
3.44456e-05
2.37864e-05
2.58254e-05
2.56415e-05
2.58529e-05
2.43828e-05
2.45699e-05
2.46933e-05
3.43348e-05
3.47309e-05
2.44774e-05
2.57335e-05
2.46829e-05
3.4303e-05
3.50745e-05
3.56936e-05
2.60507e-05
2.51829e-05
2.76645e-05
2.84203e-05
3.49635e-05
3.60826e-05
2.63948e-05
2.58134e-05
2.71729e-05
2.59949e-05
2.55297e-05
2.79863e-05
2.73683e-05
3.48619e-05
3.50987e-05
2.53169e-05
2.67227e-05
2.72385e-05
3.5977e-05
3.58209e-05
3.70315e-05
2.77428e-05
2.88061e-05
2.86295e-05
2.95296e-05
3.62683e-05
3.71847e-05
2.72611e-05
2.6472e-05
2.88933e-05
2.91426e-05
2.77838e-05
2.86807e-05
2.95906e-05
3.5311e-05
3.72467e-05
2.78008e-05
2.91252e-05
2.97221e-05
3.72354e-05
3.75463e-05
3.87939e-05
2.96195e-05
3.00201e-05
3.17962e-05
3.16602e-05
3.75367e-05
3.8615e-05
2.98111e-05
3.00644e-05
3.18229e-05
3.20002e-05
3.00839e-05
3.15537e-05
3.0597e-05
3.77313e-05
3.87069e-05
3.01105e-05
3.17521e-05
3.046e-05
3.78309e-05
3.89152e-05
3.88803e-05
3.22081e-05
3.20466e-05
3.24898e-05
3.2342e-05
3.87552e-05
3.88095e-05
3.22136e-05
3.22476e-05
3.24693e-05
3.23156e-05
3.08188e-05
3.23631e-05
3.23705e-05
3.87913e-05
3.86923e-05
3.06625e-05
3.19595e-05
3.24557e-05
3.93116e-05
3.89115e-05
3.95294e-05
3.24545e-05
3.23352e-05
3.26452e-05
3.28095e-05
3.88637e-05
3.96997e-05
3.24438e-05
3.2319e-05
3.27865e-05
3.34162e-05
3.29232e-05
3.29186e-05
3.43762e-05
3.87962e-05
4.02328e-05
3.30586e-05
3.38685e-05
3.44024e-05
4.04424e-05
4.00166e-05
4.16323e-05
3.33613e-05
3.372e-05
3.59014e-05
3.57738e-05
4.01738e-05
4.14608e-05
3.36897e-05
3.41097e-05
3.57627e-05
3.5869e-05
3.46539e-05
3.57842e-05
3.48274e-05
4.06009e-05
4.14138e-05
3.47045e-05
3.56946e-05
3.49557e-05
4.06479e-05
4.17591e-05
4.1783e-05
3.62038e-05
3.59837e-05
3.63927e-05
3.60944e-05
4.15602e-05
4.16114e-05
3.60877e-05
3.62091e-05
3.63415e-05
3.64182e-05
3.48632e-05
3.60364e-05
3.63617e-05
4.1518e-05
4.15908e-05
3.49494e-05
3.58307e-05
3.54183e-05
4.17108e-05
4.18503e-05
4.26899e-05
3.64722e-05
3.62198e-05
3.74442e-05
3.80433e-05
4.17372e-05
4.32819e-05
3.63659e-05
3.64214e-05
3.71956e-05
3.71548e-05
3.70972e-05
3.80339e-05
3.82656e-05
4.16893e-05
4.29683e-05
3.63e-05
3.79652e-05
3.8521e-05
4.36346e-05
4.30463e-05
4.43074e-05
3.79612e-05
3.86149e-05
3.94912e-05
3.92732e-05
4.36088e-05
4.40223e-05
3.78322e-05
3.78381e-05
3.95864e-05
3.95906e-05
3.84971e-05
3.93279e-05
3.90556e-05
4.33439e-05
4.42676e-05
3.90147e-05
3.97393e-05
3.96684e-05
4.40042e-05
4.44545e-05
4.44279e-05
3.97679e-05
3.92909e-05
3.98939e-05
3.96468e-05
4.40466e-05
4.42506e-05
3.99392e-05
3.98952e-05
4.02038e-05
4.04025e-05
3.91044e-05
3.96645e-05
3.93944e-05
4.43696e-05
4.45572e-05
3.96678e-05
3.9787e-05
3.95247e-05
4.39062e-05
4.44487e-05
4.52809e-05
3.98951e-05
4.01355e-05
4.08141e-05
4.09643e-05
4.45443e-05
4.53644e-05
4.02056e-05
4.06503e-05
4.06989e-05
4.15276e-05
3.97835e-05
4.09153e-05
4.15076e-05
4.468e-05
4.58264e-05
3.9546e-05
4.1098e-05
4.10733e-05
4.58345e-05
4.56821e-05
4.66257e-05
4.14989e-05
4.12069e-05
4.28068e-05
4.24406e-05
4.54922e-05
4.64552e-05
4.13321e-05
4.17964e-05
4.26383e-05
4.19729e-05
4.1987e-05
4.24239e-05
4.26751e-05
4.60671e-05
4.60875e-05
4.17454e-05
4.26272e-05
4.28405e-05
4.66953e-05
4.66968e-05
4.66364e-05
4.29416e-05
4.28863e-05
4.29628e-05
4.34084e-05
4.67322e-05
4.71473e-05
4.27845e-05
4.19046e-05
4.28237e-05
4.17072e-05
4.28016e-05
4.35678e-05
4.28793e-05
4.60605e-05
4.56704e-05
4.29303e-05
4.26256e-05
4.2853e-05
4.6405e-05
4.66988e-05
4.79224e-05
4.29786e-05
4.33967e-05
4.40789e-05
4.33992e-05
4.71586e-05
4.7e-05
4.2842e-05
4.18287e-05
4.40397e-05
4.45205e-05
4.28488e-05
4.3446e-05
4.31187e-05
4.58552e-05
4.82496e-05
4.27722e-05
4.39726e-05
4.30226e-05
4.69767e-05
4.82263e-05
4.86532e-05
4.45954e-05
4.36461e-05
4.53012e-05
4.54499e-05
4.72008e-05
4.88909e-05
4.46492e-05
4.53203e-05
4.56585e-05
4.65048e-05
4.37915e-05
4.53408e-05
4.61046e-05
4.87425e-05
4.96747e-05
4.38068e-05
4.61217e-05
4.62779e-05
4.97282e-05
4.86832e-05
4.89761e-05
4.53502e-05
4.58643e-05
4.58587e-05
4.64765e-05
4.91761e-05
4.95172e-05
4.57435e-05
4.66112e-05
4.6115e-05
4.66138e-05
4.65486e-05
4.66468e-05
4.6814e-05
4.97158e-05
4.92576e-05
4.66433e-05
4.63785e-05
4.67701e-05
4.96384e-05
4.91859e-05
4.96188e-05
4.6212e-05
4.64886e-05
4.68402e-05
4.62929e-05
4.95234e-05
4.90148e-05
4.63321e-05
4.65154e-05
4.66829e-05
4.61314e-05
4.67424e-05
4.63606e-05
4.61262e-05
4.92241e-05
4.87718e-05
4.66213e-05
4.59534e-05
4.59081e-05
4.8611e-05
4.96362e-05
4.95448e-05
4.68411e-05
4.6248e-05
4.67927e-05
4.67317e-05
4.90176e-05
4.98646e-05
4.66726e-05
4.60835e-05
4.66489e-05
4.65367e-05
4.60347e-05
4.65835e-05
4.62049e-05
4.87998e-05
4.98941e-05
4.58488e-05
4.68935e-05
4.63823e-05
4.94617e-05
4.97228e-05
5.13592e-05
4.68943e-05
4.74382e-05
4.85801e-05
4.89512e-05
5.03136e-05
5.16692e-05
4.68216e-05
4.71804e-05
4.8566e-05
4.87424e-05
4.67337e-05
4.89009e-05
4.8662e-05
5.03092e-05
5.15427e-05
4.71547e-05
4.89088e-05
4.88373e-05
5.14701e-05
5.16189e-05
5.19125e-05
4.9022e-05
4.92083e-05
4.96496e-05
4.93744e-05
5.17679e-05
5.1566e-05
4.89996e-05
4.90705e-05
4.96539e-05
4.94711e-05
4.91768e-05
4.94326e-05
5.01222e-05
5.16514e-05
5.15943e-05
4.91638e-05
4.92729e-05
4.97552e-05
5.23721e-05
5.19243e-05
5.17997e-05
4.96743e-05
4.93519e-05
4.96241e-05
4.93437e-05
5.15578e-05
5.16306e-05
4.96883e-05
4.94801e-05
4.96488e-05
4.95096e-05
5.02587e-05
4.94563e-05
5.03186e-05
5.15986e-05
5.17917e-05
4.99076e-05
4.94537e-05
5.02852e-05
5.25984e-05
5.18444e-05
5.27753e-05
4.9628e-05
4.94558e-05
5.04066e-05
5.06916e-05
5.18364e-05
5.29734e-05
4.96517e-05
4.96135e-05
5.03815e-05
5.06573e-05
5.02562e-05
5.05886e-05
4.98708e-05
5.20169e-05
5.30215e-05
5.03431e-05
5.07967e-05
5.03144e-05
5.20318e-05
5.30278e-05
5.32908e-05
5.08117e-05
5.09653e-05
5.13801e-05
5.13119e-05
5.31107e-05
5.31752e-05
5.07869e-05
5.09086e-05
5.13763e-05
5.12139e-05
4.97988e-05
5.11692e-05
4.98589e-05
5.31175e-05
5.30406e-05
5.02342e-05
5.11114e-05
5.01347e-05
5.19057e-05
5.32903e-05
5.30874e-05
5.13932e-05
5.13164e-05
5.13146e-05
5.1294e-05
5.31809e-05
5.3174e-05
5.13947e-05
5.12157e-05
5.13383e-05
5.12198e-05
5.01498e-05
5.12379e-05
5.18079e-05
5.30395e-05
5.30531e-05
5.0183e-05
5.10997e-05
5.12206e-05
5.37022e-05
5.3127e-05
5.40365e-05
5.13143e-05
5.1315e-05
5.19375e-05
5.21397e-05
5.32985e-05
5.42625e-05
5.13396e-05
5.12854e-05
5.19453e-05
5.23097e-05
5.23428e-05
5.24513e-05
5.32469e-05
5.32006e-05
5.43413e-05
5.17205e-05
5.22612e-05
5.29373e-05
5.5135e-05
5.43047e-05
5.49451e-05
5.23852e-05
5.24813e-05
5.32199e-05
5.30394e-05
5.4419e-05
5.46085e-05
5.23849e-05
5.26163e-05
5.32269e-05
5.31262e-05
5.32944e-05
5.29893e-05
5.31039e-05
5.45297e-05
5.47682e-05
5.31298e-05
5.31256e-05
5.32291e-05
5.46817e-05
5.50225e-05
5.50205e-05
5.33597e-05
5.30991e-05
5.34679e-05
5.32325e-05
5.46331e-05
5.47538e-05
5.33705e-05
5.31837e-05
5.34646e-05
5.31615e-05
5.28959e-05
5.30154e-05
5.24231e-05
5.47759e-05
5.45228e-05
5.3195e-05
5.31365e-05
5.27989e-05
5.39321e-05
5.50016e-05
5.44617e-05
5.34524e-05
5.33408e-05
5.31543e-05
5.34786e-05
5.48284e-05
5.4999e-05
5.3431e-05
5.31189e-05
5.30551e-05
5.31942e-05
5.23877e-05
5.34135e-05
5.29009e-05
5.45223e-05
5.49662e-05
5.26831e-05
5.31751e-05
5.27223e-05
5.45492e-05
5.44598e-05
5.53057e-05
5.31016e-05
5.34559e-05
5.33911e-05
5.35009e-05
5.50044e-05
5.52388e-05
5.30335e-05
5.34565e-05
5.36879e-05
5.43456e-05
5.34898e-05
5.38861e-05
5.47795e-05
5.52351e-05
5.61748e-05
5.30728e-05
5.473e-05
5.48718e-05
5.65436e-05
5.5642e-05
5.647e-05
5.39103e-05
5.37479e-05
5.50051e-05
5.49673e-05
5.54796e-05
5.6505e-05
5.41726e-05
5.4544e-05
5.49642e-05
5.48436e-05
5.50761e-05
5.50418e-05
5.54037e-05
5.62685e-05
5.62999e-05
5.52529e-05
5.51333e-05
5.55757e-05
5.69919e-05
5.65298e-05
5.65429e-05
5.51905e-05
5.51891e-05
5.53793e-05
5.53127e-05
5.66011e-05
5.64297e-05
5.50764e-05
5.488e-05
5.52295e-05
5.48778e-05
5.53793e-05
5.51855e-05
5.4647e-05
5.62935e-05
5.58467e-05
5.55067e-05
5.44794e-05
5.4341e-05
5.54459e-05
5.65467e-05
5.61845e-05
5.53744e-05
5.52581e-05
5.50465e-05
5.46873e-05
5.63705e-05
5.55936e-05
5.52312e-05
5.4847e-05
5.50787e-05
5.45592e-05
5.43564e-05
5.44693e-05
5.38304e-05
5.58038e-05
5.53902e-05
5.39661e-05
5.3946e-05
5.35159e-05
5.46621e-05
5.61283e-05
5.59722e-05
5.48701e-05
5.45761e-05
5.47245e-05
5.4721e-05
5.55704e-05
5.63583e-05
5.49339e-05
5.45249e-05
5.48019e-05
5.49412e-05
5.38353e-05
5.4766e-05
5.52776e-05
5.54217e-05
5.67762e-05
5.35742e-05
5.54959e-05
5.5672e-05
5.71909e-05
5.61507e-05
5.74609e-05
5.48289e-05
5.51937e-05
5.61511e-05
5.66191e-05
5.6753e-05
5.80984e-05
5.48891e-05
5.5479e-05
5.60908e-05
5.66138e-05
5.60368e-05
5.68238e-05
5.74947e-05
5.71172e-05
5.81245e-05
5.64204e-05
5.70732e-05
5.7784e-05
5.91296e-05
5.7625e-05
5.78201e-05
5.64616e-05
5.68251e-05
5.67678e-05
5.68267e-05
5.81908e-05
5.76867e-05
5.63826e-05
5.67359e-05
5.67219e-05
5.66449e-05
5.76139e-05
5.69338e-05
5.71019e-05
5.81648e-05
5.74171e-05
5.78625e-05
5.67413e-05
5.70431e-05
5.76179e-05
5.78112e-05
5.72879e-05
5.67578e-05
5.6597e-05
5.63122e-05
5.57685e-05
5.75051e-05
5.64186e-05
5.67234e-05
5.64166e-05
5.64382e-05
5.58845e-05
5.63831e-05
5.55019e-05
5.48394e-05
5.7253e-05
5.64892e-05
5.62437e-05
5.53647e-05
5.46631e-05
5.53697e-05
5.72451e-05
5.68579e-05
5.61442e-05
5.56395e-05
5.58502e-05
5.56598e-05
5.63837e-05
5.68707e-05
5.62638e-05
5.58084e-05
5.58627e-05
5.5826e-05
5.46451e-05
5.54461e-05
5.48742e-05
5.64872e-05
5.70363e-05
5.44947e-05
5.55296e-05
5.48413e-05
5.63826e-05
5.68488e-05
5.69609e-05
5.5825e-05
5.58916e-05
5.59949e-05
5.6854e-05
5.71516e-05
5.81774e-05
5.57707e-05
5.5974e-05
5.57513e-05
5.65737e-05
5.55895e-05
5.71379e-05
5.75394e-05
5.726e-05
5.79406e-05
5.56376e-05
5.69828e-05
5.74608e-05
5.87956e-05
5.71174e-05
5.83506e-05
5.62846e-05
5.70555e-05
5.72327e-05
5.73188e-05
5.82872e-05
5.83873e-05
5.59302e-05
5.67688e-05
5.72537e-05
5.72244e-05
5.7853e-05
5.75718e-05
5.80258e-05
5.80224e-05
5.82362e-05
5.77273e-05
5.73317e-05
5.78431e-05
5.8859e-05
5.85606e-05
5.92819e-05
5.74904e-05
5.73318e-05
5.79745e-05
5.73334e-05
5.83848e-05
5.81889e-05
5.75932e-05
5.73444e-05
5.81852e-05
5.74926e-05
5.79351e-05
5.72388e-05
5.71567e-05
5.82879e-05
5.83831e-05
5.77374e-05
5.7321e-05
5.7146e-05
5.7999e-05
5.93087e-05
5.80643e-05
5.79943e-05
5.73422e-05
5.74514e-05
5.73021e-05
5.81947e-05
5.81418e-05
5.81994e-05
5.74787e-05
5.74225e-05
5.68688e-05
5.70127e-05
5.70479e-05
5.67209e-05
5.83603e-05
5.75073e-05
5.70609e-05
5.67369e-05
5.68297e-05
5.77089e-05
5.77892e-05
5.64514e-05
5.69577e-05
5.71464e-05
5.5891e-05
5.6265e-05
5.8068e-05
5.70866e-05
5.68614e-05
5.65852e-05
5.57552e-05
5.62383e-05
5.66061e-05
5.6279e-05
5.61506e-05
5.73926e-05
5.71616e-05
5.67048e-05
5.63784e-05
5.62736e-05
5.70155e-05
5.64214e-05
5.77167e-05
5.57836e-05
5.6054e-05
5.61977e-05
5.60735e-05
5.69717e-05
5.72176e-05
5.568e-05
5.62712e-05
5.63335e-05
5.742e-05
5.61087e-05
5.61546e-05
5.67378e-05
5.73411e-05
5.89196e-05
5.62499e-05
5.75656e-05
5.69376e-05
5.81319e-05
5.81468e-05
5.96255e-05
5.69079e-05
5.64961e-05
5.83492e-05
5.83336e-05
5.76473e-05
5.96323e-05
5.70639e-05
5.78199e-05
5.83679e-05
5.81623e-05
5.73143e-05
5.83536e-05
5.83675e-05
5.91258e-05
5.91371e-05
5.74334e-05
5.80657e-05
5.82346e-05
5.95347e-05
5.96695e-05
5.84757e-05
5.84583e-05
5.85678e-05
5.80161e-05
5.83503e-05
5.97863e-05
5.89527e-05
5.84407e-05
5.81069e-05
5.78739e-05
5.69932e-05
5.84176e-05
5.83359e-05
5.77231e-05
5.89716e-05
5.74794e-05
5.82488e-05
5.68681e-05
5.74252e-05
5.81188e-05
5.81956e-05
5.70925e-05
5.74011e-05
5.76976e-05
5.62229e-05
5.60261e-05
5.85684e-05
5.67111e-05
5.72989e-05
5.66793e-05
5.62703e-05
5.63721e-05
5.70872e-05
5.59925e-05
5.60089e-05
5.73705e-05
5.73961e-05
5.6918e-05
5.63887e-05
5.61249e-05
5.68776e-05
5.70894e-05
5.77142e-05
5.61353e-05
5.58767e-05
5.63643e-05
5.61387e-05
5.66646e-05
5.75534e-05
5.61946e-05
5.63926e-05
5.63922e-05
5.6887e-05
5.5969e-05
5.61427e-05
5.65131e-05
5.75471e-05
5.82505e-05
5.61095e-05
5.70107e-05
5.66854e-05
5.7994e-05
5.79203e-05
5.83702e-05
5.67278e-05
5.66497e-05
5.73136e-05
5.74794e-05
5.78732e-05
5.87257e-05
5.66962e-05
5.70271e-05
5.71709e-05
5.71098e-05
5.69519e-05
5.75026e-05
5.75065e-05
5.83208e-05
5.81772e-05
5.70344e-05
5.72221e-05
5.74443e-05
5.86564e-05
5.83825e-05
5.80316e-05
5.73428e-05
5.75082e-05
5.71315e-05
5.7131e-05
5.87383e-05
5.79862e-05
5.71951e-05
5.70821e-05
5.70366e-05
5.67737e-05
5.75102e-05
5.71101e-05
5.70507e-05
5.81438e-05
5.77497e-05
5.74431e-05
5.6794e-05
5.70039e-05
5.79567e-05
5.79955e-05
5.77162e-05
5.69732e-05
5.69111e-05
5.65785e-05
5.64761e-05
5.79031e-05
5.7531e-05
5.69378e-05
5.67358e-05
5.66677e-05
5.66222e-05
5.68836e-05
5.64386e-05
5.64627e-05
5.77511e-05
5.77266e-05
5.68749e-05
5.6576e-05
5.6522e-05
5.7608e-05
5.77004e-05
5.7333e-05
5.64767e-05
5.63848e-05
5.61843e-05
5.61151e-05
5.75176e-05
5.72028e-05
5.65879e-05
5.6585e-05
5.62557e-05
5.63336e-05
5.63322e-05
5.60358e-05
5.58619e-05
5.77317e-05
5.74089e-05
5.63884e-05
5.62212e-05
5.59028e-05
5.693e-05
5.72379e-05
5.51598e-05
5.50929e-05
5.7113e-05
5.51946e-05
5.52836e-05
4.59466e-05
4.61207e-05
4.57772e-05
5.4835e-05
5.73194e-05
5.48674e-05
4.68209e-08
2.48474e-07
4.10355e-08
5.33849e-08
2.85024e-07
2.77808e-07
1.5142e-07
1.17721e-07
2.73964e-07
2.83627e-07
1.31827e-07
4.40907e-07
3.68563e-07
3.14035e-07
3.76324e-07
2.96313e-07
5.35344e-06
2.54501e-07
7.16478e-06
1.35681e-05
2.10715e-05
3.60226e-07
5.00846e-06
3.19946e-07
6.72577e-06
1.45106e-07
1.50792e-07
1.86403e-07
1.64272e-07
1.44735e-07
1.50191e-07
1.86164e-07
2.67759e-07
5.20419e-07
2.21675e-07
2.55481e-07
2.72537e-07
5.05921e-07
2.20908e-07
1.36307e-05
2.1062e-05
2.53542e-07
2.36558e-07
6.77938e-07
2.81735e-07
2.60127e-07
2.35352e-07
6.52263e-07
1.92013e-06
1.91329e-06
3.54235e-07
1.89897e-06
1.89131e-06
4.91964e-07
1.05675e-05
3.98534e-07
1.34754e-05
3.60008e-05
4.63278e-05
5.51569e-07
9.88677e-06
4.63743e-07
1.26025e-05
1.43465e-07
1.49121e-07
1.85039e-07
1.59289e-07