/*--------------------------------*- C++ -*----------------------------------*\
| =========                 |                                                 |
| \\      /  F ield         | OpenFOAM: The Open Source CFD Toolbox           |
|  \\    /   O peration     | Version:  v2012                                 |
|   \\  /    A nd           | Website:  www.openfoam.com                      |
|    \\/     M anipulation  |                                                 |
\*---------------------------------------------------------------------------*/
FoamFile
{
    version     2.0;
    format      ascii;
    class       volScalarField;
    location    "1387.5";
    object      nut;
}
// * * * * * * * * * * * * * * * * * * * * * * * * * * * * * * * * * * * * * //

dimensions      [0 2 -1 0 0 0 0];


internalField   nonuniform List<scalar> 
171728
(
1.56302e-06
1.77695e-06
1.73134e-06
2.30554e-06
1.57159e-06
1.75378e-06
1.70753e-06
2.32135e-06
1.56347e-06
1.74345e-06
1.67916e-06
2.35186e-06
1.54079e-06
1.73233e-06
1.66045e-06
2.23063e-06
1.55019e-06
1.71839e-06
1.64995e-06
2.04769e-06
1.58038e-06
1.70316e-06
1.64866e-06
1.83183e-06
1.59117e-06
1.68261e-06
1.57583e-06
1.66386e-06
1.59014e-06
1.65212e-06
1.47525e-06
1.5205e-06
1.59458e-06
1.60429e-06
1.39922e-06
1.48215e-06
1.60576e-06
1.54103e-06
1.35538e-06
1.53046e-06
1.62894e-06
1.47134e-06
1.3077e-06
2.20612e-06
1.66848e-06
1.38569e-06
1.24296e-06
3.42748e-06
1.71198e-06
1.27959e-06
1.1862e-06
4.64654e-06
1.75145e-06
1.16876e-06
1.11867e-06
4.10271e-06
1.81015e-06
1.06272e-06
1.05554e-06
1.99266e-06
1.8601e-06
9.8469e-07
1.01784e-06
1.54441e-06
1.87359e-06
9.24698e-07
9.93906e-07
1.34639e-06
1.87229e-06
8.90443e-07
1.0227e-06
1.21783e-06
1.9446e-06
9.47849e-07
1.10605e-06
1.23205e-06
1.89536e-06
1.03375e-06
1.29777e-06
1.15557e-06
1.90809e-06
1.2864e-06
1.50536e-06
2.02271e-06
1.70455e-06
1.38262e-06
1.88925e-06
1.70946e-06
1.43141e-06
2.30846e-06
2.68946e-06
3.82755e-06
1.29477e-06
2.7334e-06
3.24139e-06
5.86972e-06
1.10653e-06
3.75647e-06
4.18544e-06
7.63167e-06
9.7365e-07
5.38436e-06
6.44482e-06
1.19264e-05
9.08432e-07
6.92233e-06
6.10372e-06
1.66508e-05
9.87669e-07
8.33665e-06
9.82107e-06
2.95893e-05
8.93949e-07
1.24575e-05
1.24388e-05
2.35836e-05
9.59072e-07
1.29509e-05
1.27422e-05
4.37627e-05
1.00321e-06
2.02646e-05
2.0306e-05
4.20962e-05
1.28198e-06
1.8695e-05
2.1565e-05
5.45607e-05
1.38629e-06
3.02697e-05
2.45128e-05
5.57411e-05
2.23609e-06
2.82419e-05
3.35634e-05
6.63875e-05
2.3553e-06
3.78455e-05
3.25867e-05
6.80577e-05
3.05188e-06
4.02243e-05
4.38824e-05
7.53013e-05
4.78105e-06
4.46766e-05
4.59284e-05
7.87584e-05
4.16302e-06
5.65668e-05
4.92149e-05
8.14323e-05
9.40923e-06
6.15642e-05
6.90995e-05
9.24297e-05
7.99334e-06
5.25088e-05
6.21038e-05
8.60018e-05
8.80743e-06
7.84184e-05
6.03726e-05
9.58379e-05
1.88167e-05
8.69553e-05
8.52426e-05
0.000104825
1.58851e-05
7.82625e-05
8.50501e-05
0.000101393
1.84199e-05
8.66419e-05
9.04592e-05
0.000104647
2.50646e-05
9.58916e-05
8.73498e-05
0.00011089
2.30147e-05
9.83911e-05
0.000102273
0.000115801
4.07812e-05
0.000112247
0.000111283
0.000116074
4.39492e-05
0.000109054
0.000106286
0.000123652
3.60814e-05
0.000114062
0.000118344
0.0001273
5.58263e-05
0.000124521
0.000123687
0.000125141
6.16294e-05
0.000120754
0.000119241
0.000131041
5.64695e-05
0.000134205
0.000133628
0.000139445
7.41524e-05
0.000136072
0.000139383
0.000139196
8.40186e-05
0.000137673
0.000135245
0.00013642
7.66785e-05
0.000141158
0.000145531
0.000147632
9.70329e-05
0.000150802
0.000149885
0.000150254
0.000102968
0.00015341
0.000145546
0.000145661
0.000100666
0.000148845
0.000156635
0.000148675
0.000118451
0.000163555
0.000167447
0.000164293
0.000120103
0.000168506
0.000166163
0.000162339
0.000128174
0.000162365
0.000159924
0.000153936
0.000125674
0.000166072
0.000168664
0.000158198
0.000136181
0.000178647
0.000178249
0.000168146
0.000152017
0.000178513
0.000177167
0.00017311
0.000151964
0.000177479
0.000179211
0.000174484
0.000153921
0.000185853
0.000186912
0.000169354
0.000166746
0.000186702
0.000186471
0.000166637
0.000167684
0.000186031
0.000184506
0.000177613
0.000167374
0.000194699
0.000193876
0.000185672
0.000182565
0.000196673
0.0001981
0.000182562
0.000190853
0.000196069
0.000195295
0.000175608
0.000185407
0.000197427
0.000196916
0.000179401
0.00018563
0.000201567
0.000207958
0.00019182
0.000200488
0.000209614
0.000210493
0.000195349
0.000211007
0.000209593
0.000203476
0.000184109
0.000209642
0.000201843
0.000198053
0.000176404
0.000202544
0.00020746
0.000212149
0.000193102
0.000213469
0.000221671
0.000223334
0.000207521
0.000227592
0.000220302
0.000218171
0.00019738
0.000228098
0.00020909
0.000208718
0.000181443
0.000220413
0.000210971
0.000212682
0.00018856
0.000216498
0.000223074
0.000221695
0.000202868
0.000233208
0.000225744
0.000224449
0.000203342
0.000246611
0.000224225
0.00022488
0.00019912
0.000243293
0.000223748
0.000219381
0.00019769
0.000227964
0.000215779
0.000217074
0.000191122
0.000229117
0.000217462
0.000229531
0.000199609
0.000252801
0.000237167
0.000233115
0.000210343
0.000255373
0.000233296
0.000222873
0.000200448
0.000240434
0.000216935
0.000221275
0.000192244
0.00023892
0.000222834
0.000227792
0.000200764
0.000250472
0.000232408
0.00022959
0.000205306
0.000253906
0.000229029
0.000227426
0.000201734
0.000251646
0.000226015
0.000227068
0.000200596
0.000251474
0.000225735
0.00022743
0.000200215
2.27198e-06
2.13718e-06
2.83719e-06
2.30292e-06
2.26715e-06
2.44735e-06
1.55683e-06
1.50424e-06
1.50783e-06
1.44508e-06
2.02038e-06
3.12231e-06
2.21053e-06
2.01403e-06
1.75275e-06
2.31289e-06
2.27212e-06
2.28627e-06
2.49196e-06
2.06788e-06
2.51857e-06
2.09221e-06
2.30148e-06
2.28354e-06
1.87185e-06
1.87896e-06
1.86577e-06
1.88061e-06
3.41471e-06
1.75673e-06
4.04634e-06
2.21392e-06
2.21275e-06
1.53131e-06
1.71487e-06
1.43472e-06
2.32139e-06
2.28647e-06
2.27784e-06
2.50715e-06
2.10648e-06
2.46081e-06
2.14151e-06
2.28471e-06
2.28502e-06
1.86661e-06
1.88302e-06
1.86867e-06
1.897e-06
4.29029e-06
1.74559e-06
5.21945e-06
2.21613e-06
2.19427e-06
1.39998e-06
1.68563e-06
1.30252e-06
2.3538e-06
2.27617e-06
2.25479e-06
2.42574e-06
2.15203e-06
2.27302e-06
2.17321e-06
2.28798e-06
2.30246e-06
1.86878e-06
1.90025e-06
1.86273e-06
1.89784e-06
5.40226e-06
1.73501e-06
4.87592e-06
2.19513e-06
2.15759e-06
1.27581e-06
1.66406e-06
1.2084e-06
2.25184e-06
2.25405e-06
2.22005e-06
2.20831e-06
2.17804e-06
2.01517e-06
2.1749e-06
2.30513e-06
2.31079e-06
1.85884e-06
1.89768e-06
1.84176e-06
1.89975e-06
4.43029e-06
1.72103e-06
3.05667e-06
2.15717e-06
2.12071e-06
1.18878e-06
1.6512e-06
1.13589e-06
2.05469e-06
2.21852e-06
2.17006e-06
1.95716e-06
2.16543e-06
1.80714e-06
2.1268e-06
2.31192e-06
2.29662e-06
1.83377e-06
1.90251e-06
1.80448e-06
1.90325e-06
2.71635e-06
1.70597e-06
2.11699e-06
2.11864e-06
2.08072e-06
1.12017e-06
1.65323e-06
1.07547e-06
1.84164e-06
2.16694e-06
2.10378e-06
1.77297e-06
2.11148e-06
1.72705e-06
2.0347e-06
2.29545e-06
2.26382e-06
1.79408e-06
1.90216e-06
1.7651e-06
1.891e-06
2.00695e-06
1.68798e-06
1.8414e-06
2.07823e-06
2.03104e-06
1.06e-06
1.59917e-06
1.00505e-06
1.67271e-06
2.09928e-06
2.03375e-06
1.71868e-06
1.99824e-06
1.67941e-06
1.86332e-06
2.26088e-06
2.20145e-06
1.75517e-06
1.88406e-06
1.72357e-06
1.89389e-06
1.81663e-06
1.66112e-06
1.76871e-06
2.02635e-06
1.96396e-06
9.85937e-07
1.49904e-06
9.71669e-07
1.5276e-06
2.02899e-06
1.96287e-06
1.65746e-06
1.80946e-06
1.58485e-06
1.66054e-06
2.19518e-06
2.07687e-06
1.71139e-06
1.89738e-06
1.66904e-06
1.90419e-06
1.75916e-06
1.61703e-06
1.72572e-06
1.95855e-06
1.8894e-06
9.90523e-07
1.4151e-06
1.07297e-06
1.48046e-06
1.95768e-06
1.89223e-06
1.56295e-06
1.61528e-06
1.50816e-06
1.48217e-06
2.06356e-06
1.91719e-06
1.65569e-06
1.8999e-06
1.60824e-06
1.85725e-06
1.70966e-06
1.55681e-06
1.65527e-06
1.88231e-06
1.81595e-06
1.14237e-06
1.36712e-06
1.45201e-06
1.52121e-06
1.88518e-06
1.80969e-06
1.49599e-06
1.43691e-06
1.45834e-06
1.30634e-06
1.9061e-06
1.8024e-06
1.58845e-06
1.84661e-06
1.53779e-06
1.81468e-06
1.63225e-06
1.49018e-06
1.5297e-06
1.80954e-06
1.76163e-06
1.55952e-06
1.32079e-06
2.29615e-06
2.13365e-06
1.80182e-06
1.73267e-06
1.44094e-06
1.26881e-06
1.40456e-06
1.16536e-06
1.79308e-06
1.67402e-06
1.52185e-06
1.80327e-06
1.47936e-06
1.77827e-06
1.50047e-06
1.40714e-06
1.45364e-06
1.7549e-06
1.69192e-06
2.89777e-06
1.25601e-06
6.30065e-06
3.34088e-06
1.72362e-06
1.67605e-06
1.39788e-06
1.13295e-06
1.37956e-06
1.03609e-06
1.66017e-06
1.49784e-06
1.47182e-06
1.76885e-06
1.45343e-06
1.74687e-06
1.44297e-06
1.30348e-06
1.42439e-06
1.68213e-06
1.61521e-06
7.81213e-06
1.19917e-06
1.16635e-05
4.62108e-06
1.66568e-06
1.63498e-06
1.37815e-06
1.00363e-06
1.40014e-06
9.11481e-07
1.47722e-06
1.29944e-06
1.44502e-06
1.74377e-06
1.40935e-06
1.68062e-06
1.42345e-06
1.19394e-06
1.42931e-06
1.60278e-06
1.53119e-06
1.24895e-05
1.13587e-06
1.3765e-05
4.62126e-06
1.62362e-06
1.60421e-06
1.41892e-06
8.85158e-07
1.4699e-06
8.05375e-07
1.27717e-06
1.13606e-06
1.3977e-06
1.65242e-06
1.36305e-06
1.60717e-06
1.42571e-06
1.08685e-06
1.43865e-06
1.51392e-06
1.43101e-06
1.25195e-05
1.06997e-06
5.95939e-06
2.08466e-06
1.59317e-06
1.5791e-06
1.49985e-06
7.84361e-07
1.59187e-06
7.38162e-07
1.11234e-06
1.0253e-06
1.35149e-06
1.5959e-06
1.3312e-06
1.55722e-06
1.47023e-06
1.00178e-06
1.64091e-06
1.40887e-06
1.33666e-06
4.64803e-06
1.01868e-06
2.47616e-06
1.58212e-06
1.5684e-06
1.56856e-06
1.64597e-06
7.27182e-07
1.76661e-06
7.17385e-07
1.00391e-06
9.48673e-07
1.33367e-06
1.56666e-06
1.37142e-06
1.64371e-06
1.70906e-06
9.36514e-07
1.94007e-06
1.31368e-06
1.26411e-06
2.08244e-06
9.9753e-07
1.3753e-06
1.38581e-06
1.55993e-06
1.55977e-06
1.78525e-06
7.13545e-07
1.99372e-06
7.15771e-07
9.29879e-07
8.9457e-07
1.36593e-06
1.67809e-06
1.46943e-06
1.76515e-06
2.00944e-06
9.03455e-07
1.98921e-06
1.25552e-06
1.25518e-06
1.21054e-06
1.01952e-06
9.50485e-07
1.23668e-06
1.56138e-06
1.59347e-06
1.97037e-06
7.17941e-07
2.06954e-06
8.00225e-07
8.94637e-07
9.45415e-07
1.47589e-06
1.76197e-06
1.55094e-06
1.77557e-06
1.98739e-06
9.42874e-07
2.02307e-06
1.23928e-06
1.27333e-06
9.11841e-07
1.08429e-06
8.35436e-07
1.21916e-06
1.62356e-06
1.81531e-06
2.27968e-06
8.38435e-07
2.21036e-06
9.92337e-07
9.86603e-07
1.07281e-06
1.67175e-06
1.76455e-06
1.73938e-06
1.59128e-06
1.91943e-06
9.94605e-07
1.54655e-06
1.28158e-06
1.30386e-06
8.83793e-07
1.23093e-06
9.11746e-07
1.18745e-06
1.87606e-06
1.67944e-06
2.15914e-06
1.04733e-06
2.07796e-06
1.17476e-06
1.10837e-06
1.37616e-06
1.81676e-06
1.53968e-06
1.91837e-06
1.40686e-06
1.46641e-06
1.15793e-06
1.66537e-06
1.35669e-06
1.61117e-06
8.97417e-07
1.46604e-06
1.17934e-06
1.81747e-06
1.54577e-06
4.30016e-06
2.00757e-06
1.37604e-06
3.01327e-06
1.74063e-06
1.53266e-06
2.13841e-06
1.86485e-06
1.376e-06
2.72597e-06
1.43198e-06
1.68376e-06
1.40834e-06
1.3925e-06
1.64756e-06
1.82041e-06
1.24188e-06
1.74591e-06
1.24596e-06
1.73589e-06
5.80704e-06
3.73474e-06
3.38322e-06
1.67035e-06
2.20898e-06
2.10542e-06
2.02429e-06
3.21235e-06
3.29034e-06
1.56134e-06
3.1747e-06
2.13685e-06
1.3376e-06
2.07765e-06
2.08049e-06
2.03009e-06
4.23931e-06
1.37497e-06
2.60736e-06
1.83823e-06
3.35286e-06
3.17211e-06
4.46271e-06
1.80674e-06
2.42634e-06
2.32796e-06
2.60279e-06
4.19605e-06
4.69057e-06
2.91303e-06
2.20724e-06
2.99081e-06
2.17542e-06
2.28865e-06
2.4085e-06
2.85124e-06
4.45644e-06
3.67953e-06
1.92665e-06
2.8494e-06
2.76403e-06
5.44868e-06
5.95054e-06
1.01663e-05
3.46085e-06
2.94867e-06
5.08108e-06
3.69023e-06
4.71323e-06
9.08919e-06
3.36497e-06
2.46796e-06
4.52898e-06
3.77233e-06
3.09881e-06
3.81255e-06
3.51759e-06
4.05304e-06
9.02367e-06
2.93946e-06
4.21074e-06
3.61119e-06
7.20823e-06
1.04328e-05
9.50404e-06
4.85492e-06
3.62892e-06
4.1872e-06
5.16249e-06
9.32011e-06
9.37656e-06
4.72087e-06
3.92521e-06
4.68208e-06
4.87267e-06
3.56291e-06
4.73827e-06
5.12827e-06
9.52987e-06
1.145e-05
3.93089e-06
5.63209e-06
5.57896e-06
1.07022e-05
1.0135e-05
1.78901e-05
4.51478e-06
5.94184e-06
6.59629e-06
6.39131e-06
1.1297e-05
1.85073e-05
5.26465e-06
5.51991e-06
6.98829e-06
5.65127e-06
5.43648e-06
6.43233e-06
5.77682e-06
1.28674e-05
1.50724e-05
5.89388e-06
6.34469e-06
6.40341e-06
1.5893e-05
1.86877e-05
2.00773e-05
6.52465e-06
6.70765e-06
8.21089e-06
7.95441e-06
1.81144e-05
2.0505e-05
6.82268e-06
5.65936e-06
8.49967e-06
9.40426e-06
6.90064e-06
7.90765e-06
9.73863e-06
1.44772e-05
2.12126e-05
7.65461e-06
8.78217e-06
1.2443e-05
2.96576e-05
2.22057e-05
3.38231e-05
9.66742e-06
8.59331e-06
1.09978e-05
1.24557e-05
2.26007e-05
3.05272e-05
1.02272e-05
1.03315e-05
1.21846e-05
1.13095e-05
9.36959e-06
1.18658e-05
8.84868e-06
2.53834e-05
3.39334e-05
1.25542e-05
1.14808e-05
1.12341e-05
2.2634e-05
3.36887e-05
3.20123e-05
1.07646e-05
1.30437e-05
1.33809e-05
1.25281e-05
3.23446e-05
3.52149e-05
1.18872e-05
1.19779e-05
1.39476e-05
1.24161e-05
1.06544e-05
1.20677e-05
1.56494e-05
3.32225e-05
3.29455e-05
1.13107e-05
1.27827e-05
1.37245e-05
4.27326e-05
3.42934e-05
4.62499e-05
1.48074e-05
1.33224e-05
1.71542e-05
2.10126e-05
3.48723e-05
4.76723e-05
1.54207e-05
1.28344e-05
1.60618e-05
1.77733e-05
1.54382e-05
1.98185e-05
1.60151e-05
3.4767e-05
4.26531e-05
1.38636e-05
1.77732e-05
1.81483e-05
4.07103e-05
4.73947e-05
5.00945e-05
1.79454e-05
2.20031e-05
2.11567e-05
2.0045e-05
5.08487e-05
4.79232e-05
1.68705e-05
2.04428e-05
2.23793e-05
2.29017e-05
1.75887e-05
1.8477e-05
2.12744e-05
4.56069e-05
5.49236e-05
2.05078e-05
2.20768e-05
2.40234e-05
5.38317e-05
5.13884e-05
5.58214e-05
2.20271e-05
1.96257e-05
2.38289e-05
2.74941e-05
4.76107e-05
6.02217e-05
2.28103e-05
2.17587e-05
2.3462e-05
1.95617e-05
2.17722e-05
2.82755e-05
2.37136e-05
5.43365e-05
5.15956e-05
2.37071e-05
2.33701e-05
2.38577e-05
5.42535e-05
5.70398e-05
6.44176e-05
2.49746e-05
3.00482e-05
3.11226e-05
3.02184e-05
6.32667e-05
6.2902e-05
2.50782e-05
2.21593e-05
3.16779e-05
3.59617e-05
2.51724e-05
2.89149e-05
3.17637e-05
5.38789e-05
6.69807e-05
2.51622e-05
3.19445e-05
3.21013e-05
6.50035e-05
6.62684e-05
6.77975e-05
3.23775e-05
2.96375e-05
3.40446e-05
3.30543e-05
6.28285e-05
6.73355e-05
3.32873e-05
3.77206e-05
3.48446e-05
3.48079e-05
3.27238e-05
3.41766e-05
3.30753e-05
6.74448e-05
6.55769e-05
3.32271e-05
3.22546e-05
3.30991e-05
6.74146e-05
6.79751e-05
7.23481e-05
3.46642e-05
3.54363e-05
3.82184e-05
4.48773e-05
6.96245e-05
7.47642e-05
3.45714e-05
3.34021e-05
3.67942e-05
3.61131e-05
3.42629e-05
4.02773e-05
3.93783e-05
6.6397e-05
7.50545e-05
3.41179e-05
4.01765e-05
3.96383e-05
7.35595e-05
7.44881e-05
7.9306e-05
4.14079e-05
4.70059e-05
4.87894e-05
4.50809e-05
7.52569e-05
7.54442e-05
4.01846e-05
4.18486e-05
4.90596e-05
4.69789e-05
4.17652e-05
4.29856e-05
4.81811e-05
7.64596e-05
7.63197e-05
4.21768e-05
4.73395e-05
4.81841e-05
7.88666e-05
7.94272e-05
7.99927e-05
4.81162e-05
4.40741e-05
4.6038e-05
5.27354e-05
7.62177e-05
8.76843e-05
4.86496e-05
4.56831e-05
4.61681e-05
4.76522e-05
4.7619e-05
5.33208e-05
4.58905e-05
7.63741e-05
8.15352e-05
4.74652e-05
4.43835e-05
4.56459e-05
7.90943e-05
8.17769e-05
8.9909e-05
4.90374e-05
5.80252e-05
6.28131e-05
6.35347e-05
8.97315e-05
8.67378e-05
4.85535e-05
5.47493e-05
6.27508e-05
7.06939e-05
4.89576e-05
6.32026e-05
6.27511e-05
8.44919e-05
9.36414e-05
4.88438e-05
6.64098e-05
6.29113e-05
9.19967e-05
9.06247e-05
8.88589e-05
6.57835e-05
6.08153e-05
6.28279e-05
5.06841e-05
8.54378e-05
8.0726e-05
6.56581e-05
7.19086e-05
6.33583e-05
6.52625e-05
6.62955e-05
5.40515e-05
6.39828e-05
9.3785e-05
8.67595e-05
6.64789e-05
6.52755e-05
6.43173e-05
8.6875e-05
8.84106e-05
9.2625e-05
6.06472e-05
4.91314e-05
6.08939e-05
7.29983e-05
8.26545e-05
0.00010262
6.13944e-05
6.03196e-05
6.17189e-05
5.35838e-05
6.15622e-05
7.04246e-05
5.8982e-05
8.56953e-05
8.89578e-05
6.18722e-05
5.69929e-05
5.86715e-05
9.20976e-05
9.56078e-05
0.000102173
6.8771e-05
8.39116e-05
8.49494e-05
9.53925e-05
0.000105661
0.000104328
6.77387e-05
5.63329e-05
8.24143e-05
8.41488e-05
6.5642e-05
8.79869e-05
8.47227e-05
9.23057e-05
0.000103884
6.45264e-05
8.13663e-05
8.39542e-05
0.000104846
0.000102356
0.000100661
8.61324e-05
9.49495e-05
8.15882e-05
8.19097e-05
0.000103575
9.87519e-05
8.37465e-05
8.87156e-05
8.0266e-05
9.33495e-05
8.71787e-05
8.02578e-05
8.50525e-05
0.000104538
0.000105338
8.68226e-05
8.59922e-05
8.5879e-05
0.000101672
0.000100756
0.000105397
7.96986e-05
7.80148e-05
8.15294e-05
7.48111e-05
9.89763e-05
0.000103926
7.91068e-05
9.32887e-05
8.70667e-05
9.00032e-05
8.33348e-05
7.95163e-05
8.05453e-05
0.000105755
0.000106607
8.42721e-05
8.83029e-05
8.06734e-05
0.000102991
0.000107181
0.000108276
8.81787e-05
8.11435e-05
9.43382e-05
9.82841e-05
0.000106172
0.000110408
9.08345e-05
8.81373e-05
9.12314e-05
8.34512e-05
8.43442e-05
9.64767e-05
9.19147e-05
0.000106601
0.000104948
8.30663e-05
8.81001e-05
9.10155e-05
0.0001102
0.00010814
0.000113048
9.30846e-05
9.94395e-05
9.38463e-05
0.000100005
0.000110693
0.000114235
8.99643e-05
8.44692e-05
9.54982e-05
9.69375e-05
9.32965e-05
9.47332e-05
0.000101709
0.00010524
0.000114407
9.34214e-05
9.7388e-05
0.000102809
0.000115098
0.00011556
0.000122213
9.91283e-05
0.00010219
0.000111695
0.000110877
0.000115799
0.000121246
0.000100417
0.000102028
0.000111904
0.000112719
0.000103812
0.000110183
0.000102999
0.000116786
0.000121578
0.000104184
0.000111477
0.000102052
0.000115772
0.000122411
0.000120129
0.000113759
0.00011263
0.000111684
0.000110699
0.000121513
0.000119694
0.000113765
0.000113436
0.000111402
0.000109927
0.000102943
0.000110587
0.000109491
0.000121456
0.000118534
0.000101855
0.000107228
0.000109952
0.000122192
0.00011951
0.000120775
0.000109812
0.000109088
0.000106762
0.000108009
0.000119229
0.000121953
0.000109682
0.000108443
0.000107779
0.000111475
0.000112339
0.000108723
0.000119617
0.000118372
0.00012502
0.000113139
0.000114911
0.000120089
0.000127134
0.000123021
0.000131583
0.000110239
0.000112954
0.000124823
0.000124247
0.000124185
0.000130584
0.00011257
0.000115084
0.000124286
0.000124799
0.00012035
0.000124488
0.000117379
0.000126746
0.000130492
0.000121238
0.000124183
0.000119028
0.000125641
0.000131866
0.00013018
0.000126135
0.00012462
0.000124285
0.000121554
0.000130566
0.000128675
0.000125777
0.000126322
0.0001242
0.00012433
0.000116306
0.000121151
0.00012285
0.000130522
0.00012872
0.000117487
0.000119775
0.000116297
0.000128734
0.000129839
0.000132751
0.000123528
0.000121199
0.000126474
0.000130923
0.000128732
0.00013653
0.000122977
0.000123025
0.000124593
0.000124178
0.000126962
0.000130784
0.000132919
0.00012858
0.000134322
0.000120921
0.000129644
0.000133795
0.000138696
0.000134356
0.00014109
0.000129152
0.000134196
0.000137945
0.000136356
0.000138092
0.000139497
0.000127944
0.000127756
0.00013818
0.000137322
0.000133875
0.000136777
0.000135281
0.000136065
0.000140414
0.000136802
0.000139756
0.000139693
0.00013969
0.000141534
0.000139669
0.000139178
0.000135611
0.000137034
0.000135391
0.000139104
0.000138595
0.000140018
0.000138703
0.000139169
0.000140066
0.000134526
0.000135574
0.000132868
0.000140499
0.00014022
0.00013873
0.000136108
0.000134265
0.000136107
0.000139141
0.000142454
0.000135922
0.000137793
0.00013935
0.000140657
0.000139746
0.000143064
0.00013815
0.000141189
0.000138874
0.000146277
0.000134443
0.000140282
0.000144143
0.000140481
0.000146857
0.000133322
0.000141756
0.000141168
0.000145681
0.000144437
0.000149343
0.000143458
0.000141459
0.000151142
0.000148269
0.00014329
0.000148104
0.000142631
0.000147941
0.000150266
0.000146975
0.000147055
0.000147921
0.000150806
0.000148114
0.000147294
0.000145365
0.000150515
0.000152168
0.000150464
0.000149285
0.000147376
0.000151444
0.000151036
0.00014918
0.000152932
0.000149473
0.000151203
0.000150583
0.000145214
0.000148084
0.00013968
0.000151246
0.000154294
0.000149167
0.000146405
0.000140879
0.000152336
0.000146415
0.000148841
0.000146476
0.000147185
0.000153459
0.000148521
0.000151946
0.00015414
0.000149004
0.000150693
0.000147607
0.000147289
0.00013925
0.000153217
0.000154998
0.000147699
0.000149413
0.00014597
0.000141121
0.000153849
0.00014698
0.000152153
0.000145199
0.000146273
0.000154953
0.000156804
0.000157173
0.000149788
0.000160254
0.000160701
0.000148174
0.000157685
0.000156914
0.000160293
0.000162526
0.000168433
0.00014967
0.000159589
0.000164916
0.000156589
0.000162922
0.000149704
0.000166161
0.000166435
0.00016285
0.000156566
0.000157585
0.000159957
0.000163441
0.000162029
0.000167473
0.000159275
0.000161602
0.000162619
0.000169116
0.000164051
0.000168599
0.000168216
0.000168632
0.000170406
0.000163044
0.00016034
0.000169344
0.000167245
0.000170494
0.000163207
0.000158567
0.000160575
0.000164251
0.00016719
0.000167674
0.000163291
0.000161275
0.000156376
0.000165382
0.000167519
0.000166737
0.000162701
0.00016971
0.000163871
0.000162969
0.00015975
0.000155155
0.000169063
0.000160939
0.000161012
0.000154657
0.000160122
0.000157547
0.000166902
0.000162001
0.000163817
0.000162855
0.000155684
0.000159046
0.000165878
0.000161455
0.000162909
0.000161931
0.000161325
0.000161921
0.000159253
0.000154598
0.000159404
0.000159585
0.000164152
0.000160361
0.000156408
0.000158
0.000167258
0.000163682
0.000167253
0.000173959
0.000177366
0.000161392
0.000169812
0.000163237
0.000165731
0.00017388
0.000175653
0.000161871
0.000176878
0.000173414
0.000161513
0.00016891
0.000164913
0.000177173
0.000175134
0.000166829
0.00016866
0.000170277
0.000176935
0.000179065
0.000180872
0.000178837
0.000170197
0.000168136
0.000176785
0.000177749
0.000180903
0.000179354
0.000176813
0.000179133
0.00018358
0.000169303
0.000168108
0.000177092
0.000177757
0.000180701
0.000172553
0.00016996
0.000168045
0.000180587
0.000177989
0.000178423
0.000176107
0.000167581
0.000166767
0.000180704
0.000178827
0.000178637
0.000177445
0.000184732
0.00017708
0.000185311
0.000167653
0.000167776
0.000181729
0.000176976
0.000184403
0.000174682
0.000167845
0.000173092
0.000177916
0.000176445
0.0001824
0.00018464
0.000167621
0.000174496
0.000178125
0.000177781
0.000182257
0.000184608
0.000184761
0.000184185
0.000180295
0.000168813
0.000175027
0.000184779
0.000185904
0.000183661
0.000170172
0.0001745
0.000176091
0.000185207
0.000186577
0.00018909
0.00018852
0.000175142
0.000175089
0.000185058
0.0001863
0.000189053
0.000187563
0.000178894
0.000187213
0.000176366
0.000175394
0.000174276
0.000182516
0.000187076
0.000179402
0.0001662
0.000175676
0.000173035
0.000188787
0.000188055
0.000186281
0.000186113
0.000174686
0.000173475
0.000188765
0.000187013
0.00018647
0.000185286
0.000177578
0.000185386
0.000188116
0.000173793
0.000172584
0.000178905
0.000184586
0.000184496
0.00017535
0.000172738
0.000177473
0.000185678
0.000185733
0.000188808
0.000190625
0.000173801
0.000179451
0.000185883
0.000185279
0.000188901
0.00019185
0.000191994
0.000193091
0.000199692
0.000173041
0.00017985
0.000187831
0.000191558
0.000196798
0.000185439
0.000178894
0.00018333
0.000191846
0.000192949
0.000197867
0.000196653
0.000180223
0.000181328
0.000191886
0.00019402
0.000198018
0.000197713
0.000200364
0.0001968
0.000199186
0.000180874
0.000182597
0.000198452
0.000197765
0.000199475
0.000183258
0.00018369
0.000184185
0.000198983
0.00019697
0.000199975
0.000197716
0.000181212
0.000181762
0.000199227
0.000198057
0.000200108
0.000196857
0.000197367
0.000196114
0.000191448
0.00018235
0.000179775
0.000199182
0.000196329
0.00019444
0.000176451
0.000183769
0.000178982
0.000199824
0.000198456
0.000196114
0.000198608
0.000181947
0.000182301
0.000199747
0.00019612
0.00019513
0.000195563
0.000190391
0.000197586
0.000192187
0.000179265
0.000180982
0.000192696
0.000194604
0.000190787
0.000177533
0.000178374
0.000182478
0.000195066
0.000197841
0.000195583
0.000196575
0.00018184
0.00018221
0.000194369
0.000197185
0.000197856
0.000203249
0.000196133
0.000199353
0.000205701
0.000182353
0.00018869
0.00019286
0.000205896
0.000206264
0.000190412
0.000184321
0.00019004
0.000199082
0.000198041
0.000207117
0.000207127
0.000183412
0.000190783
0.000201261
0.00020467
0.000207165
0.000207005
0.000208421
0.000208235
0.000212502
0.000189168
0.000190421
0.000209976
0.000210486
0.000214628
0.000195991
0.000190288
0.000191203
0.000208746
0.000209228
0.000211025
0.000211047
0.000191325
0.000191205
0.000208127
0.000207458
0.000209814
0.000207753
0.000212729
0.000210452
0.000207459
0.000190256
0.000187609
0.000214559
0.00020581
0.000205557
0.000185932
0.000191079
0.000188596
0.000211187
0.000210692
0.000208593
0.000205101
0.000190578
0.000183983
0.000209977
0.000207507
0.00020875
0.000203945
0.00020476
0.000203233
0.000197532
0.0001869
0.000182332
0.000201589
0.000198534
0.00019452
0.000176677
0.000187729
0.000185193
0.000206606
0.000203503
0.000203605
0.000202877
0.000183127
0.000186593
0.000207119
0.000203039
0.000204362
0.000204707
0.000196624
0.00020283
0.00020547
0.000181841
0.000189346
0.000193951
0.000207947
0.000207832
0.000190261
0.000185832
0.000194343
0.000203922
0.000206121
0.000213497
0.000217676
0.000188835
0.000199282
0.000204573
0.000208562
0.000213154
0.000217961
0.000211147
0.000219431
0.000225259
0.000191375
0.000199819
0.000213619
0.000222025
0.000227888
0.000206965
0.000195319
0.000198076
0.000216216
0.000219928
0.00022005
0.000221453
0.000199882
0.000198526
0.000215571
0.000219392
0.000219547
0.000219789
0.000227412
0.000222864
0.000225875
0.000200046
0.000196624
0.000229817
0.000221705
0.0002259
0.000200274
0.000197914
0.000195405
0.000220384
0.000219904
0.000217617
0.000212963
0.000197137
0.000189026
0.000220018
0.000218197
0.000218817
0.000213876
0.00022042
0.000210946
0.0002063
0.00019532
0.000189437
0.000219752
0.000209935
0.000205125
0.000182818
0.000194922
0.000191719
0.000216321
0.000211461
0.000213147
0.000210436
0.000188211
0.00019003
0.000217576
0.000213004
0.000213779
0.000212242
0.000203716
0.000208199
0.000203024
0.000188926
0.000191537
0.000202786
0.000209338
0.000203119
0.000185786
0.000191108
0.000190122
0.000212449
0.000211929
0.000212224
0.00021912
0.000191473
0.000198444
0.000212377
0.000213074
0.000210235
0.000217111
0.000207955
0.000220929
0.000223475
0.000192659
0.000197125
0.000208727
0.000220302
0.00022337
0.00020192
0.000190568
0.0001984
0.000214055
0.000220792
0.000221087
0.000223237
0.000199023
0.000200466
0.000211075
0.00021855
0.000220785
0.000222395
0.000226613
0.000225606
0.000229643
0.000197476
0.000199657
0.000225997
0.000223931
0.00022815
0.000204095
0.000199729
0.000207832
0.000223436
0.000223468
0.000230009
0.000224594
0.000200293
0.000200119
0.000223869
0.000223856
0.000231891
0.000226688
0.000229315
0.000224193
0.000224166
0.000199892
0.000202075
0.000227585
0.000225355
0.000223786
0.000199393
0.000208061
0.000201945
0.000231069
0.000225264
0.000228584
0.000226694
0.000200064
0.000201473
0.000233027
0.000227008
0.000228719
0.00022264
0.000223349
0.000224601
0.000221811
0.0002018
0.000196094
0.000223434
0.000221186
0.000222349
0.00019822
0.000199815
0.000188709
0.000224779
0.000225792
0.000214563
0.000218181
0.000200843
0.000193409
0.00022431
0.000220092
0.000213384
0.000215731
0.000220958
0.000218207
0.00021607
0.000194778
0.000191697
0.000221405
0.00021676
0.000216811
0.000191889
0.000187685
0.000194487
0.000212881
0.000215441
0.000214564
0.000213508
0.000191786
0.000191126
0.000211974
0.000215682
0.000215624
0.000224755
0.000215088
0.000214169
0.000218859
0.00019241
0.000203942
0.000216109
0.000226334
0.000220722
0.000197528
0.000197135
0.000210051
0.000219994
0.00021655
0.000234121
0.00023361
0.000193526
0.000209779
0.000221287
0.000228757
0.000234449
0.000233964
0.000223408
0.00023387
0.000235012
0.00020534
0.000208184
0.000224778
0.000233324
0.000234201
0.000210176
0.00021039
0.000204767
0.000236129
0.000237009
0.000234996
0.00023844
0.000210998
0.000208841
0.00023608
0.000234115
0.000233801
0.000226179
0.000236539
0.000238422
0.000233112
0.000206953
0.000197312
0.000235244
0.000224997
0.000230377
0.000202625
0.000202661
0.000194625
0.000230317
0.000233491
0.000220327
0.000218971
0.000206012
0.000192196
0.000229456
0.000223701
0.000220936
0.000221143
0.000228109
0.000218708
0.000218293
0.000196218
0.000195873
0.000226379
0.000220954
0.000219095
0.00019268
0.000194148
0.000197909
0.000219246
0.000217162
0.000220653
0.000218524
0.000191245
0.000196261
0.000220049
0.000221299
0.000221338
0.000225699
0.00021753
0.000218557
0.00022141
0.000196611
0.000202095
0.000218644
0.000226443
0.000222959
0.00019931
0.00019913
0.000203446
0.000223588
0.000222631
0.000229963
0.000231443
0.000198266
0.000205986
0.000223798
0.000227033
0.000228912
0.000228787
0.000225104
0.000231728
0.000231686
0.000202434
0.000202615
0.000225983
0.00022965
0.000231161
0.000205492
0.000203399
0.000202292
0.000230575
0.000232149
0.000230484
0.000230639
0.00020598
0.000202321
0.000229388
0.000228758
0.00022952
0.000227302
0.00023211
0.000230598
0.000230156
0.000202223
0.000200276
0.00023149
0.000227639
0.000229649
0.000202195
0.00020189
0.000201113
0.000229453
0.000229071
0.000227542
0.000226769
0.000201583
0.0002
0.00022897
0.0002272
0.000228249
0.000227613
0.000229135
0.000226664
0.000227254
0.000200116
0.000200916
0.000228959
0.000227458
0.000227709
0.000201037
0.00020085
0.000201559
0.000226894
0.00022618
0.000228967
0.000228135
0.000199737
0.000200254
0.000227823
0.000227495
0.000229751
0.000229992
0.000226283
0.000227429
0.00022609
0.000200784
0.000201675
0.000226727
0.000228912
0.000226492
0.000198489
0.000203708
0.000227468
0.000226472
0.000202266
0.000227956
0.00022833
0.000249339
0.000251501
0.000247195
0.000224088
0.000203877
0.000224461
2.6183e-06
2.07999e-06
1.14112e-06
1.27434e-06
1.30908e-06
1.93923e-06
5.50317e-07
1.28394e-06
1.22855e-06
1.89729e-06
1.42924e-06
1.59917e-06
2.31826e-06
1.12342e-06
3.23256e-06
1.0724e-06
1.40176e-05
9.88439e-07
1.58627e-05
1.07737e-05
1.30197e-05
1.34279e-06
1.35578e-05
1.24931e-06
1.53688e-05
1.52889e-06
1.50779e-06
1.45356e-06
1.57288e-06
1.54821e-06
1.5093e-06
1.46204e-06
1.35089e-06
3.28461e-07
1.63027e-06
1.76578e-06
1.33079e-06
4.34197e-07
1.63503e-06
1.07892e-05
1.30071e-05
1.21564e-06
1.69533e-06
4.92041e-07
1.72697e-06
1.2119e-06
1.69762e-06
6.14811e-07
1.51359e-06
1.51461e-06
2.30262e-06
1.72508e-06
1.72394e-06
1.26039e-06
1.92388e-05
1.19013e-06
2.17349e-05
1.69944e-05
1.92757e-05
1.52998e-06
1.86181e-05
1.44982e-06
2.10141e-05
1.54426e-06
1.50639e-06
1.45971e-06
1.5648e-06