/*--------------------------------*- C++ -*----------------------------------*\
| =========                 |                                                 |
| \\      /  F ield         | OpenFOAM: The Open Source CFD Toolbox           |
|  \\    /   O peration     | Version:  v2006                                 |
|   \\  /    A nd           | Website:  www.openfoam.com                      |
|    \\/     M anipulation  |                                                 |
\*---------------------------------------------------------------------------*/
FoamFile
{
    version     2.0;
    format      ascii;
    class       surfaceScalarField;
    location    "625";
    object      phi;
}
// * * * * * * * * * * * * * * * * * * * * * * * * * * * * * * * * * * * * * //

dimensions      [0 3 -1 0 0 0 0];
oriented        oriented;


internalField   nonuniform List<scalar> 
41137
(
-1.50527e-06
3.90337e-07
0.00113933
8.18369e-07
1.14006e-06
-4.84179e-07
1.34596e-07
7.3029e-07
-5.18848e-07
5.92932e-08
-1.22149e-06
-0.00113887
1.5293e-06
1.49744e-06
0.000274419
-4.76679e-07
-4.84301e-07
-0.000276485
-8.02463e-07
-8.02878e-07
-0.00115249
4.34901e-07
4.28501e-07
0.00115323
-0.00114058
-1.49931e-06
4.16362e-07
0.00114096
-4.74104e-07
1.13669e-06
1.36257e-07
8.02802e-07
7.39392e-07
-5.0542e-07
-1.20647e-06
6.84024e-08
-1.49093e-06
3.99652e-07
-5.05374e-07
0.00114087
-0.00114048
-4.71254e-07
1.13409e-06
1.36349e-07
8.08209e-07
-1.20382e-06
7.36625e-07
6.84244e-08
-0.0002765
1.52852e-06
1.48e-06
-4.70889e-07
-4.60155e-07
0.000274422
-7.80153e-07
-7.80341e-07
-0.00115544
4.1859e-07
4.1927e-07
0.00115617
-0.00114207
-1.48355e-06
7.80257e-07
3.92035e-07
0.00114241
-4.55347e-07
1.14185e-06
1.38226e-07
7.4566e-07
-4.89353e-07
-1.18859e-06
7.47931e-08
-0.00114198
-1.48098e-06
7.80011e-07
3.92262e-07
0.00114232
-4.5849e-07
1.13894e-06
1.40847e-07
7.40256e-07
-4.8653e-07
-1.18288e-06
7.21115e-08
-0.000276451
1.51268e-06
1.46969e-06
-4.46024e-07
-4.5678e-07
0.000274371
-7.57897e-07
-7.57921e-07
-0.0011583
4.08828e-07
4.09623e-07
0.00115899
-0.00114337
-1.47277e-06
7.5799e-07
3.84885e-07
0.00114367
-4.42897e-07
1.14636e-06
1.42493e-07
7.51934e-07
-4.73703e-07
-1.17043e-06
8.12245e-08
-0.00114328
-1.46999e-06
7.57892e-07
3.84922e-07
0.00114357
-4.45829e-07
1.14355e-06
1.45099e-07
7.46472e-07
-4.70918e-07
-1.16485e-06
7.85832e-08
-0.000276352
1.5019e-06
1.45886e-06
-4.32113e-07
-4.42839e-07
0.000274266
-7.34957e-07
-7.35411e-07
-0.00116105
3.99507e-07
3.99917e-07
0.00116172
-0.00114448
-1.46078e-06
7.35211e-07
3.76261e-07
0.00114472
-4.30228e-07
1.15126e-06
1.47262e-07
7.5831e-07
-4.58467e-07
-1.15235e-06
8.77434e-08
-0.00114438
-1.4581e-06
7.35076e-07
3.76739e-07
0.00114463
-4.33157e-07
1.14834e-06
1.49816e-07
7.52722e-07
-4.5574e-07
-1.14685e-06
8.50282e-08
-0.000276204
1.48978e-06
1.4467e-06
-4.17747e-07
-4.28461e-07
0.000274114
-7.12788e-07
-7.12539e-07
-0.00116369
3.90212e-07
3.91005e-07
0.00116433
-0.00114539
-1.44838e-06
7.1244e-07
3.66452e-07
0.00114559
-4.18217e-07
1.15595e-06
1.51685e-07
7.64621e-07
-4.43663e-07
-1.13466e-06
9.43205e-08
-0.0011453
-1.44542e-06
7.12072e-07
3.66634e-07
0.0011455
-4.20751e-07
1.1533e-06
1.54575e-07
7.59027e-07
-4.40956e-07
-1.12913e-06
9.1587e-08
-0.000276019
1.47773e-06
1.43471e-06
-4.04258e-07
-4.1491e-07
0.000273926
-6.89246e-07
-6.88791e-07
-0.00116622
3.74721e-07
3.81598e-07
0.00116685
-0.00114612
-1.43557e-06
6.89988e-07
3.56613e-07
0.00114628
-4.06455e-07
1.16046e-06
1.55915e-07
7.70858e-07
-4.29316e-07
-1.11742e-06
1.00932e-07
-0.00114603
-1.43266e-06
6.89136e-07
3.55814e-07
0.00114618
-4.08908e-07
1.15808e-06
1.59365e-07
7.65355e-07
-4.26637e-07
-1.11179e-06
9.81559e-08
-0.000275803
1.46438e-06
1.42133e-06
-3.90194e-07
-4.00866e-07
0.000273708
1.53768e-06
0.000274445
-4.79141e-07
-4.84036e-07
-0.000276524
-1.13816e-06
0.000276545
-1.17362e-06
-0.000274457
1.09626e-07
1.14774e-07
4.25216e-07
0.00113844
8.3514e-07
1.17203e-06
-4.84266e-07
1.36815e-07
7.27379e-07
-5.18775e-07
5.63823e-08
-1.21889e-06
-0.00113804
-0.00114018
4.12653e-07
-1.50152e-06
1.37716e-07
-4.77365e-07
-1.21096e-06
6.69249e-08
7.37891e-07
-5.09426e-07
8.08048e-07
1.16794e-06
0.00113968
-0.00113927
4.08178e-07
-1.53072e-06
1.37811e-07
-4.79752e-07
-1.20843e-06
6.66751e-08
-5.0952e-07
7.34821e-07
8.07573e-07
-1.12186e-06
-0.000274429
1.14956e-07
1.0451e-07
1.53406e-06
1.49111e-06
-0.000276545
-4.62732e-07
-4.68247e-07
0.00027445
-1.18144e-06
-1.13805e-06
0.000276501
-0.000274416
1.12814e-07
1.20742e-07
-5.05641e-07
4.00809e-07
0.00114037
-0.00113998
-4.76667e-07
1.17769e-06
1.41932e-07
-1.20693e-06
7.39142e-07
6.80963e-08
-1.53168e-06
-5.02736e-07
4.00753e-07
0.0011405
-0.00114013
-4.76961e-07
1.17493e-06
1.41785e-07
8.30253e-07
-1.20935e-06
7.39286e-07
6.53951e-08
0.00114147
7.85462e-07
-0.00114112
3.94979e-07
-1.52663e-06
1.45366e-07
-4.67001e-07
-1.19599e-06
7.30228e-08
-4.9344e-07
7.46809e-07
1.17593e-06
0.00114159
7.85358e-07
-0.00114124
3.95061e-07
-1.52129e-06
1.45401e-07
-4.66991e-07
-1.19582e-06
7.30742e-08
-4.93424e-07
7.46797e-07
-4.65921e-07
-4.70727e-07
0.00027445
-1.14063e-06
0.000276491
-0.000274415
1.18175e-07
1.23183e-07
-5.02746e-07
3.99749e-07
0.00114137
-0.00114098
-4.68353e-07
1.13428e-06
1.33538e-07
-1.20386e-06
7.36566e-07
6.55607e-08
-1.52876e-06
4.06088e-07
-1.20656e-06
0.00114039
-0.00114
-4.74169e-07
1.17217e-06
1.38962e-07
8.0213e-07
-5.05324e-07
7.39415e-07
6.83769e-08
0.00114248
7.85861e-07
-0.00114213
3.93815e-07
-1.48362e-06
1.37008e-07
-4.58695e-07
-1.19022e-06
7.04716e-08
-4.90606e-07
7.41463e-07
1.17583e-06
0.00114149
7.85753e-07
-0.00114114
3.95301e-07
-1.52125e-06
1.4221e-07
-4.64377e-07
-1.19332e-06
7.30627e-08
-4.93452e-07
7.43858e-07
4.11969e-07
0.00114006
-4.7392e-07
1.1719e-06
1.38859e-07
8.02499e-07
7.36356e-07
-5.0539e-07
6.82395e-08
-1.20386e-06
7.86135e-07
-0.00114171
3.93914e-07
-1.48614e-06
1.37123e-07
-4.58487e-07
-1.19323e-06
7.31297e-08
7.43988e-07
-4.93399e-07
1.17037e-06
0.00114116
7.8536e-07
-0.0011408
3.94573e-07
-1.51538e-06
1.42865e-07
-4.6395e-07
-1.19029e-06
7.2985e-08
-4.93383e-07
7.41209e-07
-0.000276522
-4.67988e-07
-4.63209e-07
0.000274434
-1.13765e-06
0.000276476
-0.000274399
1.15351e-07
1.20497e-07
3.99569e-07
-5.05164e-07
0.00114107
-0.00114068
-4.65602e-07
1.12297e-06
1.30492e-07
8.08109e-07
-1.20353e-06
7.36587e-07
6.58517e-08
7.85801e-07
-0.00114161
3.94443e-07
-1.48347e-06
1.39507e-07
-4.61536e-07
-1.19035e-06
7.04608e-08
7.38534e-07
-4.93339e-07
1.12693e-06
0.00114216
7.85505e-07
-0.00114181
3.93435e-07
-1.47248e-06
1.34496e-07
-4.5571e-07
-1.18984e-06
7.33547e-08
-4.93154e-07
7.41317e-07
-0.00027439
1.12796e-07
1.23412e-07
1.52395e-06
1.48093e-06
-4.46185e-07
-4.54308e-07
0.000274397
-1.18347e-06
-1.14287e-06
0.000276402
-0.000274325
1.20817e-07
1.28763e-07
3.93277e-07
0.00114181
-4.63712e-07
1.1827e-06
1.46546e-07
7.48193e-07
-4.8958e-07
-1.19158e-06
7.45057e-08
-1.51866e-06
7.79748e-07
3.92958e-07
0.00114194
-4.638e-07
1.17719e-06
1.46562e-07
7.48344e-07
-4.89451e-07
-1.19127e-06
7.46645e-08
0.00114277
7.63135e-07
-0.00114247
3.87164e-07
-1.51304e-06
1.49906e-07
-4.54217e-07
-1.17797e-06
7.94457e-08
-4.77736e-07
7.5299e-07
1.18072e-06
0.00114289
7.63352e-07
-0.00114259
3.87339e-07
-1.5105e-06
1.49897e-07
-4.54276e-07
-1.17778e-06
7.9471e-08
-4.77718e-07
7.52965e-07
-4.51842e-07
-4.56708e-07
0.000274397
-1.14526e-06
0.000276391
-0.000274322
1.26009e-07
1.31184e-07
3.91971e-07
0.00114283
-4.55397e-07
1.13933e-06
1.38199e-07
7.4291e-07
-4.86692e-07
-1.18574e-06
7.20063e-08
-1.51874e-06
7.79937e-07
3.93105e-07
0.00114184
-4.61325e-07
1.17711e-06
1.43524e-07
7.45613e-07
-4.89351e-07
-1.18858e-06
7.47312e-08
0.00114378
7.63269e-07
-0.00114348
3.86189e-07
-1.47284e-06
1.41553e-07
-4.45939e-07
-1.17216e-06
7.69432e-08
-4.74854e-07
7.4767e-07
1.18066e-06
0.00114279
7.63152e-07
-0.00114249
3.87598e-07
-1.5104e-06
1.46887e-07
-4.5146e-07
-1.17508e-06
7.95691e-08
-4.7764e-07
7.50226e-07
7.79597e-07
3.92705e-07
0.0011415
-4.60564e-07
1.17157e-06
1.43862e-07
7.42665e-07
-4.89437e-07
7.45667e-08
-1.18587e-06
7.63383e-07
-0.00114307
3.86542e-07
-1.47552e-06
1.41481e-07
-4.45943e-07
-1.17485e-06
7.96312e-08
7.50432e-07
-4.77528e-07
1.17506e-06
0.00114246
7.62911e-07
-0.00114215
3.87377e-07
-1.50473e-06
1.47342e-07
-4.51289e-07
-1.17211e-06
7.94058e-08
-4.77566e-07
7.47511e-07
-4.4949e-07
-4.54173e-07
0.00027438
-1.14256e-06
0.000276377
-0.000274306
1.23494e-07
1.28542e-07
7.79722e-07
3.91355e-07
0.00114251
-4.5225e-07
1.12822e-06
1.3558e-07
7.42679e-07
-4.8927e-07
7.49102e-08
-1.18548e-06
7.63405e-07
-0.00114297
3.86755e-07
-1.47255e-06
1.44248e-07
-4.48572e-07
-1.16952e-06
7.68639e-08
7.44748e-07
-4.74927e-07
1.13169e-06
0.00114347
7.63178e-07
-0.00114316
3.86024e-07
-1.46173e-06
1.39039e-07
-4.42981e-07
-1.17164e-06
7.97894e-08
-4.77351e-07
7.47654e-07
-0.000274297
1.20764e-07
1.31357e-07
1.51022e-06
1.46998e-06
-4.32217e-07
-4.40306e-07
0.000274294
-1.18785e-06
-1.14738e-06
0.000276255
-0.000274184
1.28471e-07
1.3633e-07
3.85633e-07
0.00114307
-4.51128e-07
1.18455e-06
1.50879e-07
7.54505e-07
-4.73891e-07
-1.17351e-06
8.10472e-08
-1.50777e-06
7.5795e-07
3.85731e-07
0.00114319
-4.51264e-07
1.18177e-06
1.50855e-07
7.54528e-07
-4.7384e-07
-1.17327e-06
8.10994e-08
0.00114388
7.40751e-07
-0.00114362
3.79984e-07
-1.50174e-06
1.54119e-07
-4.42031e-07
-1.15975e-06
8.59289e-08
-4.62364e-07
7.59418e-07
1.18537e-06
0.001144
7.40607e-07
-0.00114374
3.79309e-07
-1.49899e-06
1.54419e-07
-4.41839e-07
-1.15954e-06
8.6041e-08
-4.62272e-07
7.59424e-07
-4.38013e-07
-4.4274e-07
0.000274291
-1.15002e-06
0.000276244
-0.000274182
1.33851e-07
1.38931e-07
3.84528e-07
0.00114408
-4.42808e-07
1.144e-06
1.42575e-07
7.49225e-07
-4.70992e-07
-1.16767e-06
7.85579e-08
-1.50785e-06
7.57547e-07
3.85853e-07
0.00114309
-4.48736e-07
1.18162e-06
1.47714e-07
7.51928e-07
-4.73641e-07
-1.17041e-06
8.12611e-08
0.00114489
7.41292e-07
-0.00114463
3.78632e-07
-1.46144e-06
1.45878e-07
-4.33677e-07
-1.15405e-06
8.33111e-08
-4.59587e-07
7.5397e-07
1.18537e-06
0.0011439
7.41072e-07
-0.00114364
3.79769e-07
-1.49888e-06
1.51562e-07
-4.38961e-07
-1.15704e-06
8.59282e-08
-4.62367e-07
7.56448e-07
7.57631e-07
3.86089e-07
0.00114275
-4.48145e-07
1.176e-06
1.47917e-07
7.48889e-07
-4.7384e-07
8.10194e-08
-1.16783e-06
7.40891e-07
-0.00114422
3.784e-07
-1.46392e-06
1.46081e-07
-4.33432e-07
-1.15675e-06
8.61262e-08
7.56806e-07
-4.62187e-07
1.17987e-06
0.00114356
7.40234e-07
-0.00114331
3.79089e-07
-1.49311e-06
1.5205e-07
-4.38633e-07
-1.15399e-06
8.58861e-08
-4.62228e-07
7.53845e-07
-4.35414e-07
-4.40205e-07
0.000274275
-1.14719e-06
0.00027623
-0.000274165
1.31227e-07
1.36364e-07
7.57995e-07
3.84554e-07
0.00114376
-4.39799e-07
1.13267e-06
1.39669e-07
7.48987e-07
-4.73655e-07
8.13488e-08
-1.16736e-06
7.41089e-07
-0.00114413
3.79033e-07
-1.4611e-06
1.48837e-07
-4.36152e-07
-1.15135e-06
8.33437e-08
7.51125e-07
-4.59552e-07
1.13656e-06
0.00114457
7.40591e-07
-0.00114431
3.77675e-07
-1.45003e-06
1.43797e-07
-4.30286e-07
-1.15362e-06
8.61757e-08
-4.62117e-07
7.53878e-07
-0.000274156
1.28747e-07
1.39307e-07
1.4985e-06
1.45814e-06
-4.18158e-07
-4.26283e-07
0.000274143
-1.19282e-06
-1.15223e-06
0.00027607
-0.000274005
1.36012e-07
1.43959e-07
3.77447e-07
0.00114412
-4.38716e-07
1.18922e-06
1.55435e-07
7.60889e-07
-4.5867e-07
-1.15538e-06
8.75191e-08
-1.49585e-06
7.34986e-07
3.77183e-07
0.00114424
-4.38618e-07
1.18662e-06
1.55607e-07
7.60905e-07
-4.58575e-07
-1.15515e-06
8.76146e-08
0.00114479
7.18075e-07
-0.00114458
3.70131e-07
-1.48907e-06
1.58797e-07
-4.29454e-07
-1.14214e-06
9.24664e-08
-4.47512e-07
7.65524e-07
1.18997e-06
0.00114491
7.17767e-07
-0.0011447
3.7011e-07
-1.48669e-06
1.5868e-07
-4.29752e-07
-1.14187e-06
9.25807e-08
-4.47411e-07
7.65634e-07
-4.23772e-07
-4.28559e-07
0.00027414
-1.15465e-06
0.000276059
-0.000274002
1.41209e-07
1.46275e-07
3.75842e-07
0.00114514
-4.30296e-07
1.1488e-06
1.47262e-07
7.55464e-07
-4.5588e-07
-1.1497e-06
8.49524e-08
-1.49586e-06
7.35286e-07
3.77391e-07
0.00114414
-4.3595e-07
1.18651e-06
1.52541e-07
7.58014e-07
-4.58582e-07
-1.15258e-06
8.75797e-08
0.0011458
7.18003e-07
-0.00114559
3.69349e-07
-1.44889e-06
1.50437e-07
-4.2123e-07
-1.13627e-06
8.99516e-08
-4.44639e-07
7.6027e-07
1.19024e-06
0.00114481
7.17434e-07
-0.0011446
3.69753e-07
-1.48641e-06
1.56225e-07
-4.2662e-07
-1.1391e-06
9.26244e-08
-4.47336e-07
7.62937e-07
7.34523e-07
3.76951e-07
0.00114381
-4.35357e-07
1.18104e-06
1.52807e-07
7.55276e-07
-4.58582e-07
8.75697e-08
-1.14977e-06
7.18229e-07
-0.00114518
3.69166e-07
-1.45163e-06
1.50356e-07
-4.21358e-07
-1.13905e-06
9.26818e-08
7.63045e-07
-4.47295e-07
1.18436e-06
0.00114448
7.18151e-07
-0.00114427
3.70493e-07
-1.48084e-06
1.56005e-07
-4.26712e-07
-1.1363e-06
9.24479e-08
-4.47348e-07
7.60087e-07
-4.21233e-07
-4.25929e-07
0.000274123
-1.15215e-06
0.000276045
-0.000273985
1.38824e-07
1.43882e-07
7.34741e-07
3.75321e-07
0.00114482
-4.2699e-07
1.13771e-06
1.44577e-07
7.55355e-07
-4.58424e-07
8.79323e-08
-1.14937e-06
7.17675e-07
-0.00114509
3.68846e-07
-1.44858e-06
1.53574e-07
-4.23774e-07
-1.1335e-06
8.9995e-08
7.5753e-07
-4.44568e-07
1.14094e-06
0.00114549
7.1786e-07
-0.00114528
3.69572e-07
-1.43787e-06
1.47683e-07
-4.18456e-07
-1.13582e-06
9.28015e-08
-4.47157e-07
7.60216e-07
-0.000273976
1.359e-07
1.46552e-07
1.48598e-06
1.44577e-06
-4.04341e-07
-4.1231e-07
0.000273955
-1.19759e-06
-1.15702e-06
0.000275854
-0.000273794
1.4335e-07
1.51255e-07
3.68367e-07
0.00114499
-4.26648e-07
1.19381e-06
1.59613e-07
7.66998e-07
-4.43928e-07
-1.13789e-06
9.40605e-08
-1.48346e-06
7.11861e-07
3.67366e-07
0.00114511
-4.26608e-07
1.19125e-06
1.60008e-07
7.67261e-07
-4.43749e-07
-1.13745e-06
9.42425e-08
0.00114552
6.95043e-07
-0.00114535
3.59536e-07
-1.47634e-06
1.63603e-07
-4.17448e-07
-1.1246e-06
9.90519e-08
-4.33043e-07
7.71921e-07
1.19473e-06
0.00114564
6.94938e-07
-0.00114547
3.60051e-07
-1.47376e-06
1.63236e-07
-4.17612e-07
-1.12446e-06
9.91661e-08
-4.32996e-07
7.71887e-07
-4.09962e-07
-4.14767e-07
0.000273952
-1.15948e-06
0.000275843
-0.000273791
1.48531e-07
1.53572e-07
3.67105e-07
0.001146
-4.18359e-07
1.15329e-06
1.51348e-07
7.61777e-07
-4.4103e-07
-1.132e-06
9.16146e-08
-1.48327e-06
7.11922e-07
3.67541e-07
0.00114501
-4.23632e-07
1.19135e-06
1.57194e-07
7.64443e-07
-4.43699e-07
-1.13473e-06
9.42393e-08
0.00114653
6.94806e-07
-0.00114637
3.59001e-07
-1.43622e-06
1.55253e-07
-4.09254e-07
-1.11874e-06
9.65201e-08
-4.30186e-07
7.66644e-07
1.19447e-06
0.00114554
6.94686e-07
-0.00114537
3.60531e-07
-1.47409e-06
1.60245e-07
-4.15261e-07
-1.12158e-06
9.92463e-08
-4.32813e-07
7.6932e-07
7.12892e-07
3.6891e-07
0.00114467
-4.23869e-07
1.18525e-06
1.56662e-07
7.61547e-07
-4.43833e-07
9.4053e-08
-1.13212e-06
6.95185e-07
-0.00114596
3.58964e-07
-1.43866e-06
1.54983e-07
-4.09174e-07
-1.12169e-06
9.92851e-08
7.69268e-07
-4.32858e-07
1.18948e-06
0.0011452
6.94432e-07
-0.00114504
3.58959e-07
-1.4677e-06
1.61083e-07
-4.14245e-07
-1.11894e-06
9.90436e-08
-4.3293e-07
7.66309e-07
-4.07144e-07
-4.11936e-07
0.000273935
-1.1565e-06
0.000275828
-0.000273774
1.45759e-07
1.5072e-07
7.12508e-07
3.67529e-07
0.00114568
-4.15537e-07
1.14188e-06
1.48436e-07
7.61701e-07
-4.43628e-07
9.44566e-08
-1.13164e-06
6.9532e-07
-0.00114586
3.59322e-07
-1.43619e-06
1.5768e-07
-4.12327e-07
-1.11611e-06
9.65421e-08
7.63812e-07
-4.30149e-07
1.14613e-06
0.00114621
6.94676e-07
-0.00114605
3.5805e-07
-1.42466e-06
1.52782e-07
-4.05969e-07
-1.11857e-06
9.93325e-08
-4.3283e-07
7.66337e-07
-0.000273765
1.43465e-07
1.54099e-07
1.47279e-06
1.43257e-06
-3.90387e-07
-3.98337e-07
0.000273737
3.51017e-07
0.00114568
-4.14219e-07
1.19891e-06
1.64779e-07
7.73328e-07
-4.29593e-07
-1.12048e-06
1.00662e-07
-1.4707e-06
6.89303e-07
3.57961e-07
0.00114579
-4.14938e-07
1.19567e-06
1.64122e-07
7.73505e-07
-4.29405e-07
-1.12017e-06
1.00881e-07
1.1965e-06
6.60859e-07
-0.00114607
3.54816e-07
-1.46089e-06
1.65084e-07
-4.05999e-07
-1.10484e-06
1.05677e-07
-4.19076e-07
7.78021e-07
0.0011462
-3.96311e-07
-4.01122e-07
0.000273734
-1.1697e-06
-0.000273556
1.58081e-07
1.57871e-07
0.000275606
3.55524e-07
0.00114669
-4.05916e-07
1.15848e-06
1.56574e-07
7.68027e-07
-4.26729e-07
-1.11465e-06
9.81832e-08
-1.47056e-06
6.83154e-07
3.57146e-07
0.0011457
-4.11828e-07
1.19606e-06
1.61963e-07
7.70754e-07
-4.29338e-07
-1.11733e-06
1.00803e-07
6.89481e-07
3.56997e-07
0.00114536
-4.11439e-07
1.19043e-06
1.61724e-07
7.6776e-07
-4.29484e-07
1.00687e-07
-1.1149e-06
6.6722e-07
-0.00114654
3.8102e-07
-1.4257e-06
1.65272e-07
-3.97511e-07
-1.10217e-06
1.05664e-07
7.7254e-07
-4.19057e-07
0.00114662
1.1935e-06
6.66898e-07
-0.00114564
3.37886e-07
-1.45524e-06
1.6203e-07
-4.00632e-07
-1.09936e-06
1.02705e-07
-4.16368e-07
7.69582e-07
0.00114578
-3.93581e-07
-3.98442e-07
0.000273717
6.88987e-07
3.55885e-07
0.00114637
-4.03143e-07
1.14708e-06
1.53473e-07
7.67857e-07
-4.29273e-07
1.01133e-07
-1.11447e-06
1.15569e-06
6.7271e-07
-0.00114664
3.42632e-07
-1.41779e-06
1.59357e-07
-3.97975e-07
-1.10178e-06
1.05865e-07
-4.18837e-07
7.72642e-07
0.00114677
-0.00027353
1.54934e-07
1.60507e-07
0.000275564
3.95162e-08
9.8668e-05
2.69943e-09
-9.87103e-05
1.44854e-08
9.86131e-05
-9.86195e-05
-8.05252e-09
-8.39268e-08
-1.77583e-09
0.000259332
-1.52835e-08
-8.11157e-09
-0.000259223
-3.60321e-08
-9.98474e-08
3.0162e-07
0.00025186
3.60521e-08
-0.000252062
0.00114159
-8.57347e-09
7.95286e-07
-1.17199e-06
5.93869e-07
-1.34144e-06
8.74159e-07
-0.00114094
3.99307e-07
-1.50568e-06
0.00113976
-1.21719e-06
6.36455e-08
-5.14923e-07
7.3451e-07
1.13873e-06
1.35933e-07
-4.83318e-07
8.18416e-07
-4.84817e-09
-2.74659e-08
0.000251694
1.71672e-08
-0.000251677
-1.67559e-09
-9.62966e-09
0.00114224
-1.33771e-06
5.95829e-07
-1.16861e-06
7.9709e-07
8.70114e-07
-1.92718e-07
1.09539e-09
0.000259395
-1.64163e-08
4.91318e-07
-0.000259678
3.84807e-08
-3.96925e-08
1.38637e-07
0.000283277
-8.70465e-09
-0.000283406
-3.97818e-08
1.38633e-07
0.00028319
-5.93634e-09
3.5944e-08
-0.000283319
1.53541e-06
1.48987e-06
-0.000276498
-4.78639e-07
0.000274427
-4.75758e-07
2.25421e-09
-1.44665e-08
0.000283029
1.16699e-08
-0.000283087
5.7665e-08
-1.4383e-08
0.000282943
1.17008e-08
-0.000283002
5.77117e-08
4.49029e-09
-9.66933e-11
6.93401e-08
0.000234407
-0.000234453
-1.84508e-08
-5.11262e-09
-2.92364e-09
-7.8598e-09
0.000195845
-0.000195928
9.40649e-08
3.81122e-11
0.000234617
-5.64049e-08
-5.8851e-09
-0.000234736
1.81023e-07
7.91656e-09
2.23968e-08
0.000195707
-3.02728e-09
-0.000195735
-9.85205e-05
2.81199e-09
3.69352e-08
9.84807e-05
-7.87692e-09
1.23173e-08
9.84322e-05
-9.84366e-05
6.92955e-08
-2.23555e-10
0.000234401
-0.000234447
-4.8554e-09
-1.83324e-08
-2.86234e-09
-7.89233e-09
0.000195824
-0.000195907
9.39812e-08
1.95328e-10
0.000234611
-6.18487e-09
-5.65217e-08
-0.000234729
1.81051e-07
7.95764e-09
2.23542e-08
0.000195687
-3.03024e-09
-0.000195714
-1.54297e-07
-0.00116835
3.03077e-09
-5.8516e-07
-4.43557e-07
0.00116953
-8.58627e-07
-0.00115919
6.73733e-09
4.48801e-07
-4.3971e-07
0.00116003
-0.00116824
2.13862e-10
-4.88725e-07
-4.49026e-07
0.00116903
-0.00115471
4.20896e-07
4.21492e-07
0.00115527
-0.00115454
4.21044e-07
4.21534e-07
0.00115506
-0.00115434
4.20999e-07
4.21744e-07
0.00115508
-0.00115435
4.20741e-07
4.2146e-07
-7.18351e-08
-1.77714e-09
0.000258643
-0.000258536
-1.32389e-08
-1.99365e-08
-0.00025134
-3.32985e-08
-9.41414e-08
2.86198e-07
3.21436e-08
0.000251149
0.0011442
-0.00114354
-2.03345e-08
8.58709e-07
8.02237e-07
-1.15792e-06
-1.32636e-06
6.01473e-07
4.0326e-07
1.13812e-06
0.00114135
7.97439e-07
-1.20212e-06
6.98434e-08
-5.01501e-07
7.40824e-07
-1.49404e-06
1.34831e-07
-4.67811e-07
-0.000258986
-1.78538e-07
1.38472e-09
0.000258707
-1.47195e-08
4.70791e-07
-2.91552e-09
-2.23358e-08
0.000251001
1.35393e-08
-0.000250979
-1.00915e-08
-1.29653e-08
0.00114483
8.55105e-07
-1.32263e-06
6.03216e-07
-1.15434e-06
8.03768e-07
2.78772e-09
3.69818e-08
9.84731e-05
-9.85129e-05
-7.76828e-09
1.22272e-08
9.84245e-05
-9.8429e-05
-7.26519e-10
-6.93349e-08
0.000258636
-0.000258532
-2.00052e-08
-1.35818e-08
-1.32378e-06
0.00114408
4.14127e-09
-0.00114348
8.69816e-07
-1.16086e-06
7.99365e-07
6.0144e-07
-1.32346e-07
-0.000268098
9.88243e-08
-2.86212e-07
0.000267912
3.97787e-07
1.13551e-06
0.00114125
7.97106e-07
-1.19933e-06
6.98864e-08
-5.01454e-07
7.38075e-07
-1.48839e-06
1.37861e-07
-4.67668e-07
-0.00027404
-8.21086e-08
-4.65663e-07
3.73939e-08
0.000273227
-3.48194e-09
0.0011447
8.54782e-07
-1.31992e-06
6.03293e-07
-1.15433e-06
8.00996e-07
-9.10788e-10
-2.22854e-08
0.000250993
1.37589e-08
-0.000250974
-1.00674e-08
-0.00028267
3.59321e-08
-3.70379e-08
1.29575e-07
-6.43586e-09
0.000282548
-0.000282584
-3.70102e-08
1.29482e-07
-6.49756e-09
0.000282464
3.3567e-08
-1.1676e-06
-1.12414e-06
0.000276481
-0.000274414
1.08406e-07
1.16436e-07
5.19595e-10
-1.24685e-08
0.000282327
1.147e-08
-0.000282377
5.01205e-08
2.78888e-09
-1.25053e-08
0.000282241
1.15712e-08
-0.000282293
5.0139e-08
-9.07674e-11
5.84326e-08
0.000233798
-0.000233839
-1.36942e-08
-3.75019e-09
-0.000195497
-2.74445e-09
8.86539e-08
-8.39212e-09
0.00019542
-0.000234095
1.12222e-10
1.68206e-07
0.000233987
-5.55212e-08
-5.04736e-09
7.89305e-09
1.83058e-08
0.000195297
-3.68405e-09
-0.00019532
-9.8348e-05
2.68382e-09
3.48171e-08
9.83105e-05
-7.86898e-09
1.05381e-08
9.82678e-05
-9.82705e-05
5.83839e-08
-7.70589e-11
0.000233792
-0.00023383
-3.90443e-09
-1.57732e-08
-0.000195477
-2.77899e-09
8.85922e-08
-8.31919e-09
0.000195399
-0.000234089
1.68257e-07
3.01609e-10
0.000233979
-5.12398e-09
-5.34607e-08
7.85832e-09
1.81969e-08
0.000195277
-3.55957e-09
-0.000195299
4.18366e-07
4.19127e-07
0.00115599
4.18376e-07
4.19191e-07
0.00115579
4.18097e-07
4.18836e-07
0.0011558
-0.00115759
4.10971e-07
4.11712e-07
0.00115812
-0.00115742
4.11053e-07
4.11907e-07
0.00115792
-0.00115721
4.11154e-07
4.11828e-07
0.00115793
-0.00115723
4.10988e-07
4.11607e-07
-6.07797e-08
-1.78434e-09
0.000257967
-0.000257862
-1.10226e-08
-3.17596e-08
-0.000250673
-3.13711e-08
-8.85677e-08
2.7432e-07
2.89903e-08
0.000250489
0.00114661
-0.00114603
3.04543e-09
8.43385e-07
8.08703e-07
-1.14284e-06
-1.31085e-06
6.08848e-07
3.9007e-07
1.14304e-06
0.00114275
7.74451e-07
-1.18396e-06
7.64531e-08
-4.8535e-07
7.47321e-07
-1.48088e-06
1.39359e-07
-4.52172e-07
-0.000258302
-1.6582e-07
1.76044e-09
0.000258028
-1.27094e-08
4.50669e-07
-1.46735e-09
-1.82747e-08
0.000250358
1.087e-08
-0.000250333
-1.61724e-08
-4.23009e-09
0.00114719
8.39435e-07
-1.30673e-06
6.10791e-07
-1.13877e-06
8.10407e-07
-9.83403e-05
2.60067e-09
3.48774e-08
9.83028e-05
-7.68363e-09
1.0365e-08
9.82602e-05
-9.82628e-05
-8.16201e-10
-5.84416e-08
0.00025796
-0.000257858
-3.15209e-08
-1.15276e-08
0.00114648
-0.0011459
4.00634e-09
8.48615e-07
8.05936e-07
-1.14277e-06
-1.30803e-06
6.08862e-07
-0.000250665
-3.34152e-08
-8.85951e-08
2.74299e-07
2.87912e-08
0.000250484
3.90002e-07
1.14045e-06
0.00114265
7.74359e-07
-1.17836e-06
7.35878e-08
-4.82664e-07
7.41715e-07
-1.47809e-06
1.42475e-07
-4.54885e-07
-0.000258295
7.89597e-10
-1.68275e-07
0.000258024
4.50622e-07
-1.21451e-08
-3.50888e-09
0.00114705
8.39234e-07
-1.30408e-06
6.10633e-07
-1.1389e-06
8.07491e-07
8.30863e-10
-1.81996e-08
0.00025035
1.07461e-08
-0.000250327
-1.60236e-08
-0.000282
3.40491e-08
-3.47431e-08
1.21296e-07
-6.98036e-09
0.000281886
-0.000281914
3.1582e-08
-3.46619e-08
1.2123e-07
-6.95165e-09
0.000281803
-1.17259e-06
-1.12925e-06
0.000276408
-0.00027435
1.16703e-07
1.27252e-07
-1.10735e-09
-1.06824e-08
0.000281687
1.10978e-08
-0.00028173
4.34082e-08
1.20944e-09
-1.07086e-08
0.000281602
1.12233e-08
-0.000281647
4.34228e-08
-5.73393e-11
4.85833e-08
0.000233246
-0.000233281
-1.13622e-08
-2.93716e-09
-0.000195107
-2.67522e-09
8.37145e-08
-8.80928e-09
0.000195035
-0.000233515
9.96414e-11
1.57036e-07
0.000233415
-5.26561e-08
-4.19916e-09
8.00662e-09
1.48213e-08
0.000194927
-4.54132e-09
-0.000194945
-9.81913e-05
2.62126e-09
3.27951e-08
9.81559e-05
-8.00154e-09
9.05618e-09
9.81185e-05
-9.81195e-05
4.85503e-08
-1.84436e-10
0.00023324
-0.000233272
-2.89179e-09
-1.34545e-08
-0.000195087
-2.57592e-09
8.37238e-08
-8.93654e-09
0.000195015
-0.000233509
1.57118e-07
1.67364e-10
0.000233407
-4.16496e-09
-5.06206e-08
8.06496e-09
1.48074e-08
0.000194906
-4.5949e-09
-0.000194924
4.08768e-07
4.09653e-07
0.00115882
4.0882e-07
4.09403e-07
0.00115861
4.08927e-07
4.09456e-07
0.00115863
-0.00116037
4.01917e-07
4.02292e-07
0.00116087
-0.00116019
4.01605e-07
4.02356e-07
0.00116067
-0.00115999
4.0188e-07
4.02671e-07
0.00116068
-0.00116001
4.01517e-07
4.01985e-07
-5.1012e-08
-1.65606e-09
0.000257315
-0.00025721
-9.45342e-09
-4.27443e-08
-0.000250055
-2.91646e-08
-8.36839e-08
2.61118e-07
2.5937e-08
0.000249881
0.00114886
-0.00114832
3.09107e-09
8.27908e-07
8.15045e-07
-1.12669e-06
-1.29461e-06
6.16162e-07
3.82828e-07
1.14748e-06
0.00114395
7.52376e-07
-1.1659e-06
8.28892e-08
-4.69824e-07
7.53581e-07
-1.46992e-06
1.43575e-07
-4.39816e-07
-0.000257638
-1.54674e-07
1.80439e-09
0.000257371
-1.09699e-08
4.30888e-07
-1.91102e-12
-1.47184e-08
0.000249764
8.34587e-09
-0.000249736
-2.16934e-08
-4.38918e-09
0.0011494
8.24036e-07
-1.29049e-06
6.18056e-07
-1.12251e-06
8.16688e-07
-9.81836e-05
2.46635e-09
3.29378e-08
9.81482e-05
-7.94099e-09
9.01174e-09
9.81108e-05
-9.81119e-05
-7.94993e-10
-4.85778e-08
0.000257308
-0.000257206
-4.26925e-08
-9.90482e-09
0.00114872
-0.00114818
3.84718e-09
8.27868e-07
8.12253e-07
-1.12669e-06
-1.29191e-06
6.16166e-07
-0.000250047
-3.15501e-08
-8.36754e-08
2.60962e-07
2.59906e-08
0.000249876
3.82818e-07
1.1448e-06
0.00114386
7.52373e-07
-1.16025e-06
8.01682e-08
-4.67047e-07
7.48074e-07
-1.46714e-06
1.46395e-07
-4.42724e-07
-0.00025763
9.26071e-10
-1.57113e-07
0.000257366
4.30816e-07
-1.04951e-08
-3.69614e-09
0.00114926
8.24011e-07
-1.28776e-06
6.18003e-07
-1.12256e-06
8.13879e-07
2.59766e-09
-1.47936e-08
0.000249756
8.30296e-09
-0.000249731
-2.16392e-08
-0.00028139
3.19741e-08
-3.28927e-08
1.13738e-07
-6.82906e-09
0.000281284
-0.000281304
2.94659e-08
-3.29268e-08
1.13659e-07
-6.73831e-09
0.000281201
-1.1768e-06
-1.13346e-06
0.000276283
-0.000274232
1.24175e-07
1.34734e-07
-3.04876e-09
-9.17891e-09
0.000281105
1.11559e-08
-0.000281142
3.74883e-08
-6.4654e-10
-9.21064e-09
0.00028102
1.12849e-08
-0.000281058
3.75247e-08
-3.5993e-11
4.0036e-08
0.000232746
-0.000232774
-9.11345e-09
-2.02338e-09
-0.000194754
-2.33571e-09
7.97346e-08
-9.83513e-09
0.000194687
-0.00023299
9.78263e-11
1.4661e-07
0.000232897
-4.9896e-08
-3.22157e-09
7.69043e-09
1.20174e-08
0.00019459
-5.20213e-09
-0.000194605
-9.80491e-05
2.45845e-09
3.10334e-08
9.80156e-05
-7.90097e-09
7.51859e-09
9.7983e-05
-9.79826e-05
3.99997e-08
-1.49247e-10
0.000232739
-0.000232766
-2.03906e-09
-1.12344e-08
-0.000194734
-2.37227e-09
7.96923e-08
-9.7508e-09
0.000194667
-0.000232984
1.46733e-07
3.15367e-10
0.000232888
-3.36361e-09
-4.78379e-08
7.69435e-09
1.18919e-08
0.00019457
-5.09433e-09
-0.000194585
3.99238e-07
4.00026e-07
0.00116154
3.99214e-07
4.00141e-07
0.00116134
3.99064e-07
3.996e-07
0.00116135
-0.00116304
3.92169e-07
3.93051e-07
0.00116351
-0.00116286
3.92321e-07
3.92874e-07
0.00116331
-0.00116266
3.92036e-07
3.92596e-07
0.00116333
-0.00116267
3.92233e-07
3.93245e-07
-4.2418e-08
-1.66971e-09
0.000256694
-0.000256588
-8.14754e-09
-5.31436e-08
-0.000249485
-2.72841e-08
-7.95681e-08
2.48948e-07
2.34291e-08
0.000249319
0.00115095
-0.00115045
3.28151e-09
8.11781e-07
8.21426e-07
-1.10977e-06
-1.27799e-06
6.23607e-07
3.73989e-07
1.15236e-06
0.00114496
7.29406e-07
-1.14792e-06
8.94221e-08
-4.54703e-07
7.59891e-07
-1.45771e-06
1.48255e-07
-4.27184e-07
-0.000257
-1.44176e-07
1.84811e-09
0.000256741
-9.58147e-09
4.11511e-07
1.32088e-09
-1.18297e-08
0.000249217
6.30247e-09
-0.000249186
-2.674e-08
-4.10243e-09
0.00115145
8.07598e-07
-1.27381e-06
6.25452e-07
-1.1055e-06
8.23036e-07
-9.80414e-05
2.38536e-09
3.10855e-08
9.80079e-05
-7.94875e-09
7.58884e-09
9.79753e-05
-9.79749e-05
-7.39514e-10
-4.00185e-08
0.000256686
-0.000256584
-5.31188e-08
-8.67463e-09
0.00115081
-0.00115031
4.12166e-09
8.11679e-07
8.18619e-07
-1.10984e-06
-1.27529e-06
6.23563e-07
-0.000249477
-2.98112e-08
-7.94522e-08
2.48801e-07
2.35042e-08
0.000249314
3.74092e-07
1.14961e-06
0.00114486
7.29137e-07
-1.14238e-06
8.67039e-08
-4.5196e-07
7.54316e-07
-1.45499e-06
1.50971e-07
-4.30147e-07
-0.000256993
9.00313e-10
-1.46575e-07
0.000256736
4.11537e-07
-9.10021e-09
-3.29892e-09
0.00115131
8.07348e-07
-1.27108e-06
6.25455e-07
-1.10554e-06
8.20235e-07
3.96476e-09
-1.19717e-08
0.000249209
6.27659e-09
-0.000249181
-2.66315e-08
-0.000280834
3.00992e-08
-3.09811e-08
1.06976e-07
-7.17711e-09
0.000280735
-0.000280748
2.76303e-08
-3.10403e-08
1.06861e-07
-7.13503e-09
0.000280652
-1.18189e-06
-1.1385e-06
0.000276116
-0.00027407
1.32004e-07
1.42665e-07
-4.11785e-09
-7.48691e-09
0.000280575
1.04807e-08
-0.000280606
3.19538e-08
-1.76914e-09
-7.60851e-09
0.000280489
1.07127e-08
-0.000280523
3.19762e-08
-9.39517e-11
3.22854e-08
0.00023229
-0.000232313
-6.97993e-09
-1.38982e-09
-0.000194435
-2.15886e-09
7.58267e-08
-1.05224e-08
0.000194372
-0.000232512
1.3388e-10
1.36989e-07
0.000232425
-4.72172e-08
-2.24421e-09
8.05246e-09
9.574e-09
0.000194286
-6.38725e-09
-0.000194297
-9.79201e-05
2.21258e-09
2.94451e-08
9.78885e-05
-7.60267e-09
5.91787e-09
9.78603e-05
-9.78587e-05
3.22912e-08
-2.33588e-10
0.000232283
-0.000232305
-1.13257e-09
-9.10756e-09
-0.000194415
-2.14894e-09
7.58497e-08
-1.05343e-08
0.000194351
-0.000232506
1.37058e-07
3.38807e-10
0.000232416
-2.58372e-09
-4.51669e-08
8.01757e-09
9.46153e-09
0.000194266
-6.27631e-09
-0.000194277
3.89846e-07
3.90354e-07
0.00116416
3.89723e-07
3.90364e-07
0.00116395
3.90335e-07
3.91253e-07
0.00116397
-0.0011656
3.82865e-07
3.8395e-07
0.00116604
-0.00116542
3.83333e-07
3.83951e-07
0.00116584
-0.00116522
3.83439e-07
3.83703e-07
0.00116586
-0.00116524
3.82901e-07
3.83688e-07
-3.4734e-08
-1.71956e-09
0.000256106
-0.000256
-6.98981e-09
-6.28465e-08
-0.00024896
-2.51592e-08
-7.59143e-08
2.37608e-07
2.09795e-08
0.000248803
0.00115288
-0.00115242
2.71775e-09
7.95229e-07
8.27755e-07
-1.0925e-06
-1.26126e-06
6.31048e-07
3.63792e-07
1.15721e-06
0.00114578
7.06373e-07
-1.13027e-06
9.59874e-08
-4.40013e-07
7.66203e-07
-1.44508e-06
1.52968e-07
-4.15013e-07
-0.000256396
-1.34568e-07
1.84996e-09
0.000256144
-8.42405e-09
3.93091e-07
2.71316e-09