/*--------------------------------*- C++ -*----------------------------------*\
| =========                 |                                                 |
| \\      /  F ield         | OpenFOAM: The Open Source CFD Toolbox           |
|  \\    /   O peration     | Version:  v2012                                 |
|   \\  /    A nd           | Website:  www.openfoam.com                      |
|    \\/     M anipulation  |                                                 |
\*---------------------------------------------------------------------------*/
FoamFile
{
    version     2.0;
    format      ascii;
    class       volScalarField;
    location    "1825";
    object      p;
}
// * * * * * * * * * * * * * * * * * * * * * * * * * * * * * * * * * * * * * //

dimensions      [0 2 -2 0 0 0 0];


internalField   nonuniform List<scalar> 
171728
(
0.00352003
0.00351921
0.00351894
0.00352005
0.00348401
0.00348283
0.00348253
0.00348523
0.00344494
0.00344237
0.00344303
0.00344518
0.00340053
0.00339797
0.00339891
0.00340104
0.00335262
0.00335095
0.00335111
0.00335338
0.00330378
0.00330243
0.00330246
0.00330477
0.00325552
0.00325436
0.00325432
0.00325666
0.0032082
0.00320712
0.00320714
0.0032095
0.00316186
0.00316091
0.00316094
0.00316326
0.0031165
0.00311571
0.00311574
0.00311805
0.00307204
0.00307137
0.00307139
0.00307367
0.00302837
0.00302781
0.00302777
0.00303016
0.00298531
0.00298476
0.00298491
0.00298716
0.00294258
0.00294234
0.00294235
0.00294454
0.00290022
0.00290005
0.00290001
0.00290228
0.00285816
0.00285824
0.00285801
0.00286027
0.00281644
0.0028164
0.00281655
0.00281851
0.00277501
0.00277513
0.00277509
0.00277722
0.00273414
0.0027341
0.00273403
0.00273619
0.00269344
0.00269386
0.00269338
0.00269554
0.00265306
0.00265306
0.00265308
0.002655
0.00261315
0.00261308
0.00261347
0.00261493
0.00257349
0.00257392
0.00257353
0.00257528
0.00253387
0.0025343
0.00253424
0.00253567
0.00249481
0.00249517
0.00249518
0.00249693
0.00245579
0.00245623
0.00245619
0.00245765
0.00241707
0.00241754
0.00241751
0.00241929
0.00237846
0.00237904
0.00237897
0.00238101
0.00234015
0.00234061
0.00234064
0.00234204
0.00230207
0.00230274
0.00230282
0.00230522
0.00226412
0.00226475
0.00226466
0.00226666
0.00222619
0.00222676
0.00222683
0.00222828
0.00218856
0.00218935
0.00218925
0.00219134
0.002151
0.00215159
0.00215168
0.0021535
0.00211363
0.00211428
0.00211424
0.00211614
0.00207632
0.00207701
0.002077
0.00207888
0.00203934
0.0020398
0.00203985
0.00204155
0.00200218
0.0020027
0.00200264
0.0020048
0.00196527
0.00196595
0.00196585
0.0019677
0.00192865
0.00192876
0.00192913
0.001931
0.00189248
0.00189262
0.00189227
0.00189437
0.00185564
0.00185597
0.00185601
0.00185797
0.00181897
0.00181921
0.00181937
0.00182146
0.00178299
0.00178319
0.00178309
0.00178515
0.00174721
0.00174698
0.001747
0.00174901
0.00171098
0.00171095
0.00171097
0.00171311
0.00167512
0.00167528
0.00167519
0.00167718
0.00163939
0.00163907
0.00163908
0.00164122
0.0016036
0.00160347
0.00160359
0.00160582
0.0015684
0.00156851
0.00156829
0.00157015
0.00153297
0.00153233
0.00153247
0.00153458
0.0014976
0.00149756
0.00149757
0.00149958
0.00146233
0.0014621
0.00146211
0.00146415
0.00142681
0.00142667
0.00142646
0.00142845
0.00139231
0.00139163
0.00139184
0.00139376
0.00135709
0.00135705
0.00135716
0.00135947
0.00132264
0.00132228
0.00132219
0.00132404
0.00128746
0.00128718
0.00128712
0.00128877
0.00125241
0.00125214
0.00125206
0.00125414
0.0012177
0.00121748
0.00121767
0.00121993
0.00118293
0.00118276
0.00118275
0.00118453
0.00114855
0.00114831
0.00114834
0.00115007
0.0011147
0.00111435
0.00111419
0.00111619
0.00107955
0.00107929
0.00107924
0.00108122
0.00104429
0.00104427
0.00104453
0.00104645
0.00101037
0.0010102
0.00101027
0.00101198
0.000975958
0.000975588
0.00097533
0.000977292
0.000941274
0.000941053
0.000940978
0.00094324
0.000906737
0.00090682
0.000906989
0.000908641
0.000872611
0.00087251
0.000872585
0.000874286
0.000838065
0.000837719
0.000837693
0.000839821
0.00080324
0.00080306
0.000803067
0.000804989
0.000768574
0.000768652
0.000768638
0.000770565
0.000734354
0.000734353
0.000734129
0.000736209
0.000699805
0.000699528
0.000699625
0.000701437
0.000665297
0.000665055
0.000665337
0.000667082
0.00063025
0.000630194
0.000630133
0.000632254
0.000595053
0.000595098
0.000594898
0.000596977
0.00056142
0.00056194
0.00056156
0.000563781
0.000527338
0.000526595
0.000527031
0.000528608
0.000490652
0.000489972
0.000490247
0.000491977
0.000455476
0.000456266
0.000455931
0.000458314
0.000422435
0.000423035
0.000422765
0.000424837
0.00038777
0.000386508
0.000386793
0.000388211
0.000350365
0.000350313
0.000350374
0.000352535
0.000315961
0.00031656
0.000316523
0.000319015
0.000282281
0.000282056
0.000282054
0.000283676
0.000245717
0.00024544
0.000245126
0.00024707
0.000209631
0.00020968
0.000209914
0.000212044
0.0001753
0.00017556
0.000175466
0.000177533
0.000139645
0.000139367
0.00013955
0.000141315
0.00010398
0.000103681
0.000104027
0.000105705
6.85153e-05
6.91647e-05
6.79644e-05
7.08214e-05
3.20009e-05
3.15354e-05
3.17118e-05
3.36858e-05
4.79062e-06
4.95861e-06
6.30264e-06
3.60642e-06
0.00352452
0.00352199
0.00352216
0.00352455
0.003522
0.00352195
0.00352848
0.00352863
0.00352842
0.00352869
0.00352179
0.00352187
0.00352442
0.00352196
0.00352222
0.00352435
0.00351972
0.00349023
0.00351891
0.00351915
0.00349251
0.00349226
0.00351998
0.00349054
0.00351902
0.00351889
0.00349237
0.00349215
0.00351903
0.00349309
0.00349274
0.00351965
0.00349025
0.00351925
0.00349209
0.00349244
0.00349013
0.00348536
0.00345075
0.00348251
0.00348264
0.00345303
0.00345318
0.00348555
0.00345041
0.00348251
0.00348249
0.00345305
0.00345327
0.00348279
0.00345347
0.00345338
0.0034854
0.003451
0.00348234
0.00345328
0.00345298
0.00345078
0.0034453
0.00340715
0.0034434
0.00344289
0.00341026
0.00341015
0.0034447
0.00340744
0.00344301
0.00344309
0.00341035
0.00341041
0.00344277
0.00340993
0.00341031
0.00344541
0.0034074
0.00344258
0.00341047
0.00341025
0.00340721
0.003401
0.00336
0.00339934
0.00339879
0.00336297
0.00336316
0.00340137
0.00336008
0.00339898
0.00339899
0.00336321
0.00336329
0.00339883
0.00336292
0.00336316
0.00340121
0.00335991
0.0033988
0.00336327
0.00336322
0.00335986
0.00335353
0.00331129
0.00335091
0.00335113
0.00331457
0.0033146
0.00335354
0.00331123
0.00335113
0.0033511
0.00331462
0.00331458
0.00335104
0.0033146
0.00331462
0.00335344
0.00331124
0.00335109
0.0033146
0.00331459
0.00331122
0.00330483
0.00326301
0.00330245
0.00330248
0.0032663
0.0032663
0.00330478
0.00326302
0.00330244
0.00330251
0.00326629
0.00326634
0.00330243
0.00326629
0.00326627
0.00330481
0.00326304
0.00330247
0.00326625
0.00326628
0.003263
0.00325668
0.00321569
0.00325432
0.00325436
0.00321884
0.00321885
0.00325669
0.00321568
0.00325432
0.00325423
0.00321882
0.00321876
0.00325432
0.00321886
0.00321886
0.00325671
0.00321572
0.0032543
0.00321884
0.00321885
0.00321568
0.00320952
0.00316934
0.00320715
0.00320713
0.00317239
0.00317243
0.0032095
0.00316932
0.00320715
0.00320705
0.00317238
0.00317226
0.00320714
0.00317244
0.00317244
0.00320954
0.00316936
0.00320716
0.00317244
0.00317246
0.00316932
0.00316331
0.00312397
0.00316095
0.00316091
0.00312694
0.00312699
0.00316328
0.00312397
0.00316095
0.00316089
0.00312692
0.00312685
0.00316092
0.00312699
0.003127
0.0031633
0.00312399
0.00316092
0.00312699
0.00312702
0.00312399
0.00311807
0.0030795
0.00311572
0.0031157
0.00308241
0.00308244
0.00311804
0.00307956
0.00311573
0.00311561
0.00308242
0.00308252
0.00311572
0.00308243
0.00308244
0.00311808
0.00307959
0.00311572
0.00308239
0.00308239
0.00307947
0.00307372
0.00303584
0.00307136
0.00307137
0.00303858
0.00303863
0.00307374
0.0030358
0.00307136
0.00307144
0.00303855
0.0030385
0.00307132
0.00303863
0.00303863
0.00307375
0.00303576
0.00307134
0.00303858
0.00303861
0.00303585
0.00303016
0.00299276
0.00302784
0.00302782
0.00299565
0.00299557
0.00303011
0.00299276
0.00302782
0.00302773
0.00299568
0.00299563
0.00302785
0.00299557
0.00299564
0.00303014
0.00299292
0.00302792
0.00299552
0.00299562
0.00299278
0.00298714
0.00295004
0.00298482
0.00298479
0.00295285
0.00295281
0.00298715
0.00295006
0.00298487
0.00298494
0.00295283
0.00295267
0.00298484
0.00295281
0.0029528
0.00298729
0.00295009
0.00298485
0.00295272
0.00295273
0.00295006
0.00294448
0.00290764
0.00294229
0.00294234
0.00291065
0.00291057
0.00294453
0.00290762
0.00294225
0.00294227
0.00291062
0.00291052
0.00294217
0.00291059
0.00291047
0.00294456
0.00290776
0.00294224
0.0029105
0.0029105
0.00290774
0.00290214
0.00286571
0.00290001
0.00290004
0.00286865
0.00286844
0.00290214
0.00286579
0.00290001
0.00290004
0.00286868
0.00286847
0.00290009
0.00286847
0.00286855
0.00290227
0.00286548
0.00290008
0.00286847
0.00286852
0.00286572
0.00286024
0.00282408
0.00285804
0.00285823
0.00282676
0.00282666
0.00286036
0.00282388
0.00285805
0.00285799
0.00282675
0.00282689
0.00285803
0.00282663
0.00282659
0.00286011
0.00282398
0.00285803
0.00282686
0.00282659
0.00282387
0.00281863
0.00278231
0.00281625
0.00281639
0.00278516
0.0027853
0.00281854
0.00278249
0.00281628
0.00281655
0.00278514
0.00278505
0.00281627
0.00278536
0.00278518
0.00281858
0.00278244
0.0028163
0.00278506
0.00278518
0.00278248
0.00277707
0.00274137
0.00277471
0.00277506
0.00274435
0.00274427
0.00277717
0.00274122
0.00277472
0.00277509
0.00274433
0.00274408
0.00277511
0.00274428
0.0027442
0.00277714
0.00274152
0.00277504
0.00274409
0.00274424
0.00274141
0.00273613
0.00270049
0.0027341
0.00273413
0.00270349
0.0027038
0.00273607
0.00270076
0.00273411
0.00273407
0.00270344
0.0027035
0.00273411
0.00270377
0.00270357
0.00273625
0.00270074
0.00273411
0.00270353
0.0027036
0.00270074
0.00269518
0.00266017
0.0026935
0.00269387
0.00266307
0.0026631
0.00269556
0.00266004
0.00269349
0.00269343
0.00266307
0.0026632
0.00269348
0.00266308
0.00266313
0.00269552
0.00266005
0.00269345
0.00266322
0.00266317
0.00266015
0.00265499
0.0026201
0.00265311
0.00265307
0.00262304
0.00262308
0.00265492
0.00262011
0.00265314
0.00265307
0.00262305
0.00262332
0.00265313
0.00262307
0.00262314
0.00265495
0.00261997
0.00265311
0.00262335
0.00262318
0.00262007
0.00261488
0.00258042
0.00261301
0.00261308
0.00258382
0.00258374
0.00261494
0.00258026
0.00261304
0.00261349
0.00258383
0.00258337
0.00261324
0.00258377
0.0025836
0.00261502
0.0025802
0.00261322
0.00258339
0.00258363
0.00258022
0.0025753
0.00254058
0.00257369
0.00257389
0.00254401
0.002544
0.0025753
0.00254074
0.00257369
0.00257354
0.00254402
0.00254406
0.00257379
0.00254401
0.00254395
0.0025751
0.00254081
0.00257377
0.00254406
0.00254401
0.0025407
0.00253618
0.00250168
0.00253446
0.00253427
0.00250498
0.00250481
0.00253581
0.00250155
0.00253449
0.00253424
0.00250496
0.00250482
0.00253428
0.00250482
0.00250486
0.00253581
0.00250172
0.00253431
0.00250486
0.0025049
0.00250182
0.00249649
0.00246328
0.00249503
0.00249514
0.00246606
0.00246593
0.00249659
0.00246303
0.00249503
0.00249513
0.00246605
0.00246586
0.00249519
0.0024659
0.00246583
0.00249685
0.00246281
0.00249521
0.00246584
0.00246583
0.00246264
0.0024587
0.00242421
0.00245638
0.00245626
0.00242714
0.00242709
0.00245802
0.00242364
0.00245642
0.0024562
0.00242715
0.00242715
0.00245605
0.00242709
0.00242726
0.00245781
0.00242437
0.0024561
0.00242715
0.00242728
0.0024243
0.00241905
0.00238516
0.00241747
0.00241752
0.00238866
0.00238867
0.00241885
0.00238645
0.00241746
0.00241749
0.0023886
0.00238862
0.00241765
0.0023887
0.00238868
0.00241944
0.00238554
0.00241764
0.00238864
0.00238863
0.00238612
0.00238047
0.00234761
0.00237906
0.00237903
0.00235022
0.00235021
0.00238148
0.00234701
0.002379
0.00237897
0.00235025
0.00235021
0.00237878
0.00235016
0.00234997
0.00238059
0.00234743
0.00237876
0.00235018
0.00235006
0.0023468
0.00234263
0.00230932
0.00234063
0.00234065
0.00231211
0.0023121
0.00234207
0.0023093
0.00234068
0.00234067
0.00231216
0.00231223
0.00234064
0.00231217
0.00231282
0.00234257
0.00230944
0.00234074
0.00231226
0.00231281
0.00231028
0.00230446
0.00227171
0.00230265
0.00230267
0.0022743
0.00227438
0.00230456
0.00227161
0.00230266
0.00230277
0.00227429
0.00227418
0.00230307
0.00227439
0.00227392
0.00230455
0.00227171
0.00230301
0.0022742
0.00227386
0.00227173
0.00226677
0.00223361
0.00226481
0.00226476
0.00223629
0.00223621
0.00226656
0.00223369
0.00226481
0.00226465
0.0022363
0.00223628
0.00226437
0.00223615
0.00223627
0.00226676
0.0022335
0.00226434
0.00223624
0.00223628
0.00223314
0.00222871
0.00219591
0.00222681
0.00222682
0.0021986
0.00219877
0.00222886
0.00219597
0.00222683
0.00222688
0.0021986
0.00219865
0.00222695
0.00219878
0.00219864
0.00222862
0.002196
0.00222698
0.00219865
0.00219864
0.00219614
0.00219102
0.00215842
0.00218924
0.00218933
0.00216107
0.00216099
0.00219101
0.00215842
0.00218922
0.00218924
0.00216108
0.00216107
0.00218926
0.00216101
0.00216107
0.00219113
0.00215844
0.00218922
0.00216107
0.00216106
0.00215845
0.00215353
0.00212097
0.00215168
0.00215158
0.0021236
0.00212357
0.00215355
0.00212094
0.00215169
0.00215167
0.0021236
0.00212357
0.00215169
0.0021236
0.00212359
0.00215352
0.00212094
0.0021517
0.00212358
0.00212359
0.00212098
0.00211607
0.00208373
0.00211426
0.00211426
0.00208624
0.00208631
0.00211604
0.00208381
0.00211425
0.00211423
0.00208628
0.00208627
0.00211427
0.00208628
0.00208636
0.00211606
0.00208375
0.00211426
0.00208629
0.00208636
0.00208379
0.00207888
0.00204662
0.00207696
0.00207704
0.0020492
0.00204915
0.00207897
0.00204653
0.002077
0.00207698
0.00204917
0.00204917
0.00207703
0.00204915
0.00204899
0.00207888
0.00204663
0.00207703
0.00204914
0.00204902
0.00204641
0.00204173
0.00200952
0.0020399
0.0020398
0.00201195
0.00201193
0.00204162
0.00200948
0.00203987
0.00203988
0.00201199
0.00201191
0.0020397
0.00201191
0.002012
0.00204174
0.00200942
0.0020397
0.00201191
0.00201196
0.00200963
0.00200463
0.00197242
0.00200266
0.00200271
0.00197481
0.00197518
0.00200464
0.00197279
0.00200272
0.00200262
0.0019749
0.00197498
0.00200281
0.00197522
0.00197512
0.00200456
0.00197261
0.0020028
0.001975
0.00197514
0.00197259
0.00196757
0.00193595
0.00196557
0.00196591
0.00193828
0.00193796
0.00196786
0.00193552
0.00196565
0.00196583
0.00193816
0.00193836
0.00196584
0.00193797
0.00193814
0.00196779
0.00193597
0.00196584
0.00193838
0.00193812
0.00193582
0.00193115
0.0018994
0.00192926
0.00192874
0.00190191
0.00190165
0.0019307
0.00189947
0.00192908
0.00192912
0.0019018
0.0019014
0.00192899
0.00190161
0.00190158
0.00193105
0.00189903
0.00192899
0.0019014
0.00190161
0.00189921
0.00189451
0.00186258
0.00189265
0.00189271
0.00186475
0.00186533
0.00189472
0.00186287
0.0018926
0.00189226
0.00186492
0.00186506
0.00189242
0.00186522
0.00186504
0.00189425
0.00186289
0.00189244
0.00186507
0.00186501
0.0018628
0.00185775
0.0018262
0.00185556
0.001856
0.00182826
0.00182822
0.00185794
0.00182605
0.00185575
0.001856
0.00182838
0.00182857
0.00185595
0.00182832
0.00182853
0.00185808
0.00182627
0.0018559
0.00182857
0.00182852
0.00182628
0.00182139
0.00179009
0.00181923
0.00181913
0.00179224
0.00179213
0.00182125
0.00179004
0.00181931
0.00181939
0.00179221
0.00179209
0.00181938
0.00179216
0.00179214
0.00182142
0.00178992
0.0018194
0.00179209
0.00179218
0.00178996
0.00178529
0.0017539
0.00178326
0.00178317
0.00175624
0.00175617
0.00178525
0.00175385
0.00178321
0.00178306
0.00175609
0.00175606
0.00178311
0.00175609
0.00175599
0.00178513
0.00175386
0.00178312
0.00175604
0.00175594
0.0017538
0.00174909
0.00171773
0.00174712
0.00174705
0.0017198
0.00171988
0.00174905
0.00171783
0.00174701
0.00174703
0.00171989
0.00171991
0.00174693
0.00171988
0.00172001
0.00174906
0.00171782
0.00174692
0.00171995
0.00172003
0.0017179
0.00171295
0.00168208
0.0017108
0.00171093
0.00168411
0.00168423
0.00171307
0.00168213
0.00171089
0.00171092
0.0016841
0.00168415
0.00171104
0.00168425
0.00168413
0.00171304
0.00168207
0.00171105
0.00168415
0.00168409
0.00168199
0.00167732
0.00164611
0.00167523
0.00167527
0.0016483
0.00164816
0.00167735
0.001646
0.00167522
0.00167522
0.0016483
0.00164819
0.00167513
0.00164814
0.00164806
0.00167728
0.00164599
0.0016751
0.00164815
0.00164804
0.00164596
0.00164128
0.00161024
0.00163925
0.00163911
0.00161226
0.00161223
0.00164115
0.00161023
0.00163921
0.00163912
0.00161224
0.00161233
0.0016391
0.0016122
0.00161253
0.00164118
0.00161036
0.00163908
0.00161235
0.00161258
0.00161057
0.00160552
0.00157515
0.00160341
0.00160347
0.00157718
0.00157733
0.00160559
0.00157532
0.00160341
0.00160356
0.00157721
0.0015772
0.00160373
0.00157742
0.00157714
0.00160566
0.00157512
0.00160381
0.00157725
0.00157713
0.00157493
0.00157042
0.00153941
0.00156841
0.00156844
0.00154154
0.00154139
0.00157049
0.00153922
0.00156841
0.00156828
0.00154151
0.00154145
0.00156815
0.0015413
0.00154127
0.00157032
0.00153932
0.00156808
0.00154135
0.00154124
0.0015393
0.0015346
0.00150401
0.00153251
0.00153242
0.00150597
0.00150614
0.00153446
0.0015042
0.00153249
0.00153254
0.00150602
0.00150616
0.00153246
0.00150617
0.00150634
0.00153456
0.00150422
0.00153244
0.00150623
0.00150638
0.00150431
0.00149934
0.00146915
0.0014973
0.00149748
0.00147118
0.0014711
0.00149955
0.00146899
0.00149735
0.00149746
0.00147116
0.00147111
0.00149761
0.00147109
0.00147104
0.00149956
0.00146901
0.00149766
0.0014711
0.00147102
0.00146894
0.00146439
0.00143327
0.00146233
0.00146216
0.00143535
0.00143542
0.00146416
0.00143337
0.0014623
0.00146219
0.00143534
0.00143533
0.00146209
0.00143546
0.00143527
0.00146418
0.00143322
0.00146203
0.00143528
0.00143516
0.00143322
0.0014285
0.00139848
0.00142648
0.0014266
0.00140052
0.00140042
0.00142866
0.00139836
0.00142645
0.00142647
0.00140053
0.00140045
0.00142644
0.00140035
0.0014004
0.0014285
0.00139846
0.00142636
0.00140044
0.00140046
0.00139835
0.00139383
0.0013637
0.00139188
0.00139173
0.00136569
0.00136563
0.00139366
0.00136368
0.00139188
0.00139184
0.00136573
0.00136582
0.00139183
0.00136565
0.00136609
0.00139382
0.00136381
0.00139194
0.00136584
0.00136622
0.00136418
0.00135898
0.00132876
0.00135696
0.00135696
0.0013309
0.00133103
0.00135904
0.0013289
0.00135696
0.00135708
0.00133085
0.00133079
0.00135742
0.00133114
0.00133086
0.00135912
0.00132878
0.00135753
0.00133096
0.0013309
0.00132879
0.00132407
0.00129395
0.00132219
0.00132228
0.001296
0.00129607
0.00132415
0.00129392
0.00132216
0.0013221
0.00129598
0.00129614
0.00132202
0.00129591
0.00129572
0.00132406
0.0012939
0.001322
0.00129587
0.00129556
0.00129354
0.00128924
0.00125897
0.00128726
0.00128733
0.00126104
0.00126098
0.00128922
0.00125889
0.00128723
0.00128742
0.00126098
0.00126093
0.00128697
0.0012609
0.00126085
0.00128917
0.00125879
0.00128676
0.00126079
0.00126063
0.00125876
0.00125423
0.00122406
0.00125232
0.00125214
0.0012261
0.00122591
0.00125413
0.001224
0.00125226
0.00125208
0.00122618
0.00122604
0.00125226
0.00122611
0.00122649
0.00125407
0.00122419
0.00125215
0.00122626
0.00122669
0.00122461
0.00121938
0.00118932
0.00121738
0.00121728
0.00119136
0.00119152
0.00121934
0.00118942
0.00121749
0.00121744
0.00119136
0.00119145
0.00121781
0.00119151
0.00119137
0.00121955
0.00118937
0.00121808
0.00119151
0.00119148
0.00118929
0.00118462
0.00115474
0.00118271
0.00118287
0.00115679
0.0011569
0.00118469
0.00115479
0.00118268
0.00118272
0.00115678
0.00115685
0.00118253
0.00115682
0.0011567
0.00118463
0.00115481
0.00118254
0.00115685
0.00115667
0.00115466
0.00115014
0.00112101
0.00114827
0.00114838
0.001123
0.00112294
0.00115017
0.0011209
0.00114827
0.00114838
0.001123
0.00112298
0.00114827
0.00112293
0.00112296
0.0011502
0.00112078
0.00114822
0.00112282
0.00112282
0.00112084
0.00111642
0.00108603
0.00111458
0.00111436
0.00108822
0.00108811
0.00111627
0.00108603
0.00111453
0.00111435
0.00108816
0.00108802
0.00111439
0.00108814
0.0010881
0.00111612
0.00108595
0.00111423
0.001088
0.00108806
0.00108597
0.00108119
0.00105075
0.00107925
0.00107926
0.00105271
0.00105288
0.00108123
0.00105084
0.00107922
0.00107921
0.00105278
0.00105301
0.00107925
0.0010529
0.00105307
0.00108118
0.00105107
0.00107929
0.00105313
0.00105322
0.00105114
0.0010461
0.00101679
0.00104411
0.00104427
0.00101876
0.00101871
0.00104616
0.00101674
0.0010442
0.00104441
0.00101881
0.00101887
0.00104445
0.00101872
0.00101867
0.00104641
0.00101683
0.00104461
0.00101889
0.00101872
0.00101668
0.00101218
0.000982375
0.00101029
0.0010102
0.000984533
0.000984363
0.00101213
0.000982271
0.00101034
0.0010103
0.000984401
0.000984158
0.00101002
0.00098429
0.000984042
0.00101217
0.000982058
0.00101002
0.000984071
0.000983944
0.000981954
0.00097763
0.000947518
0.000975792
0.000975672
0.000949581
0.000949625
0.000977554
0.000947603
0.000975653
0.000975401
0.000949547
0.000949433
0.000975434
0.000949639
0.000949896
0.000977314
0.000947465
0.00097533
0.000949469
0.000949866
0.000947868
0.000942818
0.000913177
0.000940919
0.000940998
0.000915128
0.000915264
0.000942923
0.000913288
0.00094093
0.000940904
0.000915221
0.000915437
0.000941417
0.000915371
0.000915396
0.000942839
0.000913483
0.000941407
0.000915532
0.000915474
0.000913357
0.000908539
0.000879199
0.000906584
0.000906728
0.000881098
0.000881153
0.000908638
0.000879148
0.000906687
0.000906939
0.000881165
0.000881313
0.000906672
0.000881133
0.00088088
0.000908844
0.000879217
0.000906734
0.000881206
0.000880894
0.000878913
0.000874551
0.000844613
0.000872574
0.000872576
0.00084671
0.000846557
0.000874473
0.000844488
0.000872603
0.000872701
0.000846596
0.000846502
0.000872369
0.000846419
0.00084663
0.000874536
0.000844416
0.000872372
0.000846431
0.000846566
0.000844566
0.000839842
0.000809634
0.000837978
0.000837828
0.000811722
0.000811656
0.000839749
0.000809666
0.000837844
0.000837714
0.000811703
0.000811531
0.00083793
0.0008117
0.000811673
0.000839653
0.000809644
0.000837874
0.000811675
0.000811727
0.000809708
0.000804913
0.000775121
0.000803023
0.000802969
0.000777067
0.000777089
0.000804943
0.000775179
0.000803044
0.000802901
0.000777125
0.000777161
0.000802955
0.000777222
0.000777182
0.000804955
0.000775242
0.00080304
0.000777253
0.0007772
0.000775222
0.000770457
0.000740967
0.00076848
0.000768555
0.0007429
0.000743083
0.000770528
0.000741026
0.000768527
0.000768605
0.000742889
0.000742917
0.000768663
0.000742988
0.000742998
0.000770561
0.00074084
0.000768647
0.000742752
0.000742934
0.000740921
0.000736288
0.000706224
0.000734333
0.000734479
0.000708281
0.000708274
0.000736322
0.000706204
0.000734314
0.000734285
0.000708282
0.000708219
0.000734337
0.000708249
0.000708151
0.000736144
0.000706216
0.000734291
0.000708226
0.000708183
0.000706161
0.000701475
0.000671785
0.000699577
0.00069952
0.000673754
0.000673605
0.000701447
0.000671683
0.000699585
0.00069957
0.000673779
0.00067389
0.000699444
0.000673621
0.000673643
0.000701515
0.000671929
0.000699493
0.000673935
0.000673686
0.00067174
0.000667121
0.000637056
0.00066519
0.000665058
0.000639093
0.000639039
0.000667023
0.000637047
0.000665212
0.000665342
0.000639072
0.000639039
0.000665125
0.000639034
0.000639154
0.000667242
0.000637006
0.000665142
0.000639022
0.000639105
0.000637095
0.000632223
0.000601714
0.000630222
0.000630195
0.000603678
0.000603654
0.000632213
0.000601688
0.000630197
0.000630137
0.000603695
0.000603562
0.000630281
0.000603666
0.000603634
0.000632166
0.000601595
0.000630242
0.000603546
0.000603642
0.000601656
0.000596983
0.000567789
0.000595016
0.000595082
0.000569717
0.000570104
0.00059701
0.000568278
0.000595023
0.000594904
0.000569626
0.000569697
0.000595036
0.000570167
0.000570112
0.000596887
0.000567867
0.000595044
0.000569802
0.000570081
0.000568265
0.000563268
0.000533848
0.000561412
0.00056188
0.00053592
0.000535762
0.000563785
0.000533586
0.0005613
0.000561425
0.000536017
0.000536167
0.000561906
0.000535705
0.000535672
0.000563365
0.000533953
0.000561878
0.000536082
0.000535734
0.000533571
0.000528994
0.000497622
0.00052702
0.000526669
0.000499698
0.00049912
0.000528642
0.000496948
0.000527168
0.00052719
0.000499786
0.00049958
0.000526542
0.000498988
0.000498883
0.000529029
0.000497347
0.000526603
0.000499391
0.000498927
0.000496821
0.000492616
0.000462168
0.00049056
0.000490069
0.000464032
0.000464355
0.000492052
0.000462602
0.000490642
0.000490411
0.00046399
0.000464097
0.000489957
0.000464481
0.00046469
0.000492349
0.000462348
0.000489978
0.000464225
0.000464641
0.000462812
0.000457551
0.000428832
0.000455573
0.000456067
0.00043074
0.00043139
0.000458074
0.000429564
0.000455498
0.000455719
0.000430614
0.000430921
0.000456489
0.000431623
0.000431741
0.000457786
0.000429194
0.000456424
0.000431199
0.000431646
0.000429639
0.00042437
0.000394473
0.000422521
0.000422948
0.000396668
0.00039605
0.00042488
0.000393715
0.000422397
0.000422619
0.000396724
0.000396325
0.000422947
0.000395737
0.000395378
0.000424624
0.000393991
0.000422889
0.000396003
0.000395435
0.000393254
0.000389443
0.000357251
0.000387455
0.000386814
0.00035939
0.000359163
0.000388694
0.00035711
0.000387552
0.000387139
0.000359479
0.000359374
0.000386128
0.00035909
0.000359086
0.000388974
0.000357217
0.000386193
0.000359269
0.000359142
0.000357217
0.000352205
0.000322466
0.000350145
0.000350216
0.00032429
0.000324658
0.000352293
0.000322955
0.000350207
0.000350271
0.000324247
0.000324531
0.000350572
0.000324941
0.000325412
0.000352331
0.000322843
0.000350605
0.000324845
0.000325407
0.000323585
0.000317973
0.000289071
0.00031606
0.000316325
0.00029103
0.000291008
0.000318401
0.000288922
0.000316017
0.000316249
0.000291055
0.000291133
0.000317041
0.000290942
0.00029071
0.000318331
0.000289018
0.00031704
0.000291035
0.000290697
0.000288596
0.000284276
0.000252713
0.000282297
0.000282216
0.000254888
0.000254789
0.000284069
0.000252573
0.000282323
0.000282264
0.000254845
0.000254583
0.000281628
0.000254631
0.000254218
0.000284119
0.000252309
0.000281605
0.00025439
0.000254132
0.000252025
0.000247644
0.000216382
0.000245643
0.000245568
0.000218339
0.00021827
0.000247537
0.000216372
0.000245583
0.000245296
0.000218365
0.000218362
0.000245127
0.000218354
0.000218693
0.000247238
0.000216526
0.000245032
0.000218465
0.00021872
0.000216764
0.000211611
0.000182015
0.000209576
0.000209551
0.000183889
0.000184015
0.00021164
0.000182181
0.000209634
0.000209765
0.000183928
0.000184063
0.000210069
0.000184121
0.00018427
0.000211834
0.000182191
0.000210136
0.000184198
0.000184331
0.000182336
0.000177341
0.000146537
0.000175354
0.000175509
0.000148667
0.000148644
0.000177515
0.000146472
0.000175331
0.000175393
0.000148617
0.000148643
0.000175501
0.000148548
0.000148394
0.000177436
0.000146468
0.000175521
0.000148565
0.000148378
0.00014629
0.00014156
0.000110595
0.000139553
0.000139448
0.000112535
0.000112295
0.000141441
0.000110293
0.000139562
0.000139643
0.000112694
0.000112911
0.000139295
0.000112289
0.000112404
0.000141539
0.000110902
0.000139314
0.000112844
0.000112488
0.000110469
0.000105822
7.56464e-05
0.00010383
0.000103668
7.77188e-05
7.79526e-05
0.000105569
7.60566e-05
0.000103961
0.000104095
7.75342e-05
7.70301e-05
0.000103745
7.79872e-05
7.77931e-05
0.000106052
7.50704e-05
0.000103792
7.70755e-05
7.75833e-05
7.57339e-05
7.0633e-05
3.84874e-05
6.87477e-05
6.91113e-05
4.0666e-05
4.08918e-05
7.11445e-05
3.87571e-05
6.84461e-05
6.78736e-05
4.05421e-05
4.04129e-05
6.89587e-05
4.09188e-05
4.09602e-05
7.00347e-05
3.84191e-05
6.8682e-05
4.05228e-05
4.09183e-05
3.88368e-05
3.33553e-05
6.65391e-06
3.14569e-05
3.14897e-05
9.31291e-06
8.78635e-06
3.34854e-05
6.07878e-06
3.14393e-05
3.16351e-05
9.77369e-06
1.06754e-05
3.17655e-05
8.80104e-06
9.20191e-06
3.34813e-05
7.51325e-06
3.18102e-05
1.05827e-05
9.5521e-06
6.48538e-06
3.80518e-06
5.43313e-06
5.04168e-06
3.30579e-06
5.81475e-06
6.51083e-06
4.14912e-06
5.46727e-06
4.431e-06
5.25192e-06
4.47972e-06
5.52155e-06
0.00353165
0.0035341
0.00353291
0.00353304
0.00356067
0.00353423
0.00356483
0.00353471
0.00356041
0.00353408
0.00353449
0.00356374
0.00354548
0.00357036
0.00356736
0.00350407
0.00351744
0.00352169
0.0034964
0.00349463
0.00349996
0.00350386
0.00351735
0.00352172
0.00349639
0.00352022
0.00351999
0.00352033
0.00349333
0.00349341
0.00349326
0.0034931
0.00350413
0.00351669
0.0035207
0.00351187
0.00352314
0.00350193
0.0035118
0.00349446
0.0034997
0.00350359
0.00352059
0.00351541
0.00351113
0.00352279
0.00351149
0.0035007
0.00352385
0.00352193
0.00350814
0.00349973
0.0035008
0.00347578
0.00349009
0.00349018
0.00347408
0.00348747
0.00347303
0.00347586
0.00349009
0.00349004
0.00347372
0.00348406
0.00348402
0.00348381
0.00345512
0.00345489
0.00345516
0.003455
0.00347367
0.00348904
0.00348294
0.00347281
0.00348737
0.00347585
0.00347283
0.00348749
0.00347281
0.00347356
0.00348245
0.00348879
0.00347292
0.00348722
0.00347297
0.00347402
0.00348966
0.0034903
0.00347117
0.00347453
0.00347448
0.00343279
0.00344704
0.00344845
0.00343164
0.00344616
0.00343018
0.0034328
0.00344738
0.00344852
0.00343161
0.00344471
0.00344495
0.00344485
0.00341214
0.00341203
0.00341218
0.00341209
0.00343096
0.0034474
0.00344267
0.00343225
0.00344594
0.00343202
0.003432
0.00344647
0.00343057
0.00343144
0.00344296
0.00344726
0.00343253
0.00344611
0.00343247
0.00343189
0.00344793
0.00344675
0.00342969
0.00343172
0.00343141
0.00338628
0.00340226
0.00340422
0.00338375
0.00340195
0.00338449
0.00338635
0.00340266
0.00340426
0.00338489
0.00340067
0.00340063
0.00340058
0.00336476
0.00336491
0.00336473
0.00336478
0.00338536
0.00339953
0.00339871
0.00338622
0.00340174
0.00338438
0.00338696
0.00340207
0.00338448
0.00338551
0.00339892
0.00340262
0.00338727
0.00340202
0.00338725
0.00338558
0.00340284
0.00340316
0.00338388
0.0033852
0.00338518
0.00333754
0.00335492
0.00335595
0.00333663
0.00335425
0.00333602
0.00333748
0.00335463
0.00335592
0.00333628
0.0033527
0.00335256
0.0033526
0.00331597
0.00331598
0.00331591
0.00331594
0.00333707
0.00335431
0.0033511
0.00333885
0.00335419
0.00333686
0.00333897
0.00335422
0.00333594
0.00333707
0.00335116
0.00335458
0.00333897
0.00335426
0.00333901
0.00333701
0.00335462
0.00335463
0.00333554
0.00333638
0.00333637
0.00328846
0.00330573
0.00330677
0.00328755
0.00330545
0.00328735
0.00328841
0.00330573
0.00330673
0.00328757
0.00330379
0.00330374
0.00330376
0.0032675
0.00326752
0.00326748
0.00326749
0.00328838
0.00330571
0.0033025
0.00329037
0.00330552