/*--------------------------------*- C++ -*----------------------------------*\
| =========                 |                                                 |
| \\      /  F ield         | OpenFOAM: The Open Source CFD Toolbox           |
|  \\    /   O peration     | Version:  v2012                                 |
|   \\  /    A nd           | Website:  www.openfoam.com                      |
|    \\/     M anipulation  |                                                 |
\*---------------------------------------------------------------------------*/
FoamFile
{
    version     2.0;
    format      ascii;
    class       volScalarField;
    location    "0.305";
    object      p;
}
// * * * * * * * * * * * * * * * * * * * * * * * * * * * * * * * * * * * * * //

dimensions      [0 2 -2 0 0 0 0];


internalField   nonuniform List<scalar> 
247104
(
1.86006e-06
1.86001e-06
1.86015e-06
1.8601e-06
1.86e-06
1.86013e-06
1.86014e-06
1.85994e-06
1.86001e-06
1.86007e-06
1.86012e-06
1.85996e-06
1.85986e-06
1.85999e-06
1.86013e-06
1.86004e-06
1.86015e-06
1.86012e-06
1.85981e-06
1.85945e-06
1.8593e-06
1.85948e-06
1.85986e-06
1.86014e-06
1.86015e-06
1.8601e-06
1.85996e-06
1.85944e-06
1.85896e-06
1.85878e-06
1.859e-06
1.85952e-06
1.86001e-06
1.8601e-06
1.86006e-06
1.86e-06
1.85986e-06
1.8593e-06
1.85878e-06
1.8586e-06
1.85883e-06
1.85938e-06
1.85991e-06
1.85998e-06
1.86012e-06
1.85999e-06
1.85948e-06
1.859e-06
1.85883e-06
1.85905e-06
1.85955e-06
1.86003e-06
1.86013e-06
1.86013e-06
1.86013e-06
1.85986e-06
1.85952e-06
1.85938e-06
1.85955e-06
1.85991e-06
1.86015e-06
1.86013e-06
1.85994e-06
1.86004e-06
1.86014e-06
1.86001e-06
1.85991e-06
1.86003e-06
1.86015e-06
1.86001e-06
1.86015e-06
1.8601e-06
1.85998e-06
1.86013e-06
1.86014e-06
1.82673e-06
1.82472e-06
1.82423e-06
1.82303e-06
1.82304e-06
1.82297e-06
1.82297e-06
1.82425e-06
1.82456e-06
1.82422e-06
1.82217e-06
1.81946e-06
1.81942e-06
1.81942e-06
1.81946e-06
1.82257e-06
1.82279e-06
1.82303e-06
1.81946e-06
1.8194e-06
1.81946e-06
1.81946e-06
1.8194e-06
1.81946e-06
1.82295e-06
1.82411e-06
1.82673e-06
1.82304e-06
1.81942e-06
1.81946e-06
1.81956e-06
1.81956e-06
1.81946e-06
1.81942e-06
1.82292e-06
1.82455e-06
1.82472e-06
1.82297e-06
1.81942e-06
1.81946e-06
1.81956e-06
1.81956e-06
1.81946e-06
1.81942e-06
1.8231e-06
1.82308e-06
1.82297e-06
1.81946e-06
1.8194e-06
1.81946e-06
1.81946e-06
1.8194e-06
1.81946e-06
1.82286e-06
1.82398e-06
1.82426e-06
1.82256e-06
1.81946e-06
1.81942e-06
1.81942e-06
1.81946e-06
1.82276e-06
1.82296e-06
1.82439e-06
1.82456e-06
1.82279e-06
1.82295e-06
1.82291e-06
1.8231e-06
1.82286e-06
1.82296e-06
1.82476e-06
1.82411e-06
1.82455e-06
1.82308e-06
1.82398e-06
1.82439e-06
1.80661e-06
1.80643e-06
1.80626e-06
1.80413e-06
1.80404e-06
1.80401e-06
1.80411e-06
1.80624e-06
1.80648e-06
1.80626e-06
1.8034e-06
1.80045e-06
1.80036e-06
1.80036e-06
1.80044e-06
1.80395e-06
1.80458e-06
1.80412e-06
1.80043e-06
1.80014e-06
1.80017e-06
1.80017e-06
1.80014e-06
1.80045e-06
1.80478e-06
1.80675e-06
1.80661e-06
1.80403e-06
1.80035e-06
1.80016e-06
1.8002e-06
1.8002e-06
1.80017e-06
1.80036e-06
1.80482e-06
1.80649e-06
1.80643e-06
1.804e-06
1.80035e-06
1.80016e-06
1.8002e-06
1.8002e-06
1.80017e-06
1.80036e-06
1.80476e-06
1.8047e-06
1.8041e-06
1.80043e-06
1.80014e-06
1.80017e-06
1.80017e-06
1.80014e-06
1.80044e-06
1.80482e-06
1.80683e-06
1.80624e-06
1.80395e-06
1.80045e-06
1.80036e-06
1.80035e-06
1.80043e-06
1.80443e-06
1.80471e-06
1.80673e-06
1.80648e-06
1.80457e-06
1.80477e-06
1.80482e-06
1.80476e-06
1.80482e-06
1.80471e-06
1.80665e-06
1.80675e-06
1.80649e-06
1.8047e-06
1.80683e-06
1.80673e-06
1.78755e-06
1.78737e-06
1.78723e-06
1.78504e-06
1.78495e-06
1.78485e-06
1.78505e-06
1.78719e-06
1.78746e-06
1.78722e-06
1.78426e-06
1.78132e-06
1.78128e-06
1.78128e-06
1.78132e-06
1.78481e-06
1.78558e-06
1.78503e-06
1.78132e-06
1.78118e-06
1.78119e-06
1.78119e-06
1.78118e-06
1.78132e-06
1.78572e-06
1.78768e-06
1.78753e-06
1.78494e-06
1.78128e-06
1.78119e-06
1.78119e-06
1.78119e-06
1.78119e-06
1.78128e-06
1.78578e-06
1.78741e-06
1.78736e-06
1.78485e-06
1.78128e-06
1.78119e-06
1.78119e-06
1.78119e-06
1.78119e-06
1.78128e-06
1.78576e-06
1.78568e-06
1.78504e-06
1.78132e-06
1.78118e-06
1.78119e-06
1.78119e-06
1.78119e-06
1.78132e-06
1.78577e-06
1.78774e-06
1.78718e-06
1.7848e-06
1.78132e-06
1.78128e-06
1.78128e-06
1.78132e-06
1.78552e-06
1.78571e-06
1.7877e-06
1.78745e-06
1.78557e-06
1.78572e-06
1.78578e-06
1.78575e-06
1.78577e-06
1.78571e-06
1.78771e-06
1.78768e-06
1.78741e-06
1.78568e-06
1.78774e-06
1.7877e-06
1.76843e-06
1.76826e-06
1.76809e-06
1.76589e-06
1.76579e-06
1.76568e-06
1.76589e-06
1.76806e-06
1.76832e-06
1.76809e-06
1.76512e-06
1.76216e-06
1.76215e-06
1.76215e-06
1.76216e-06
1.76563e-06
1.76645e-06
1.76589e-06
1.76216e-06
1.76212e-06
1.76212e-06
1.76212e-06
1.76212e-06
1.76216e-06
1.7666e-06
1.76856e-06
1.76843e-06
1.76579e-06
1.76215e-06
1.76212e-06
1.76212e-06
1.76212e-06
1.76212e-06
1.76215e-06
1.76671e-06
1.76832e-06
1.76826e-06
1.76568e-06
1.76215e-06
1.76212e-06
1.76212e-06
1.76212e-06
1.76212e-06
1.76215e-06
1.76669e-06
1.76659e-06
1.76589e-06
1.76216e-06
1.76212e-06
1.76212e-06
1.76212e-06
1.76212e-06
1.76216e-06
1.76667e-06
1.76865e-06
1.76806e-06
1.76563e-06
1.76216e-06
1.76215e-06
1.76215e-06
1.76216e-06
1.76646e-06
1.7666e-06
1.76857e-06
1.76831e-06
1.76645e-06
1.7666e-06
1.7667e-06
1.76669e-06
1.76666e-06
1.7666e-06
1.76855e-06
1.76856e-06
1.76832e-06
1.76659e-06
1.76865e-06
1.76857e-06
1.7493e-06
1.74913e-06
1.74895e-06
1.74675e-06
1.74665e-06
1.74654e-06
1.74675e-06
1.74892e-06
1.74918e-06
1.74895e-06
1.74599e-06
1.74302e-06
1.74302e-06
1.74302e-06
1.74302e-06
1.74647e-06
1.74731e-06
1.74675e-06
1.74302e-06
1.74301e-06
1.74301e-06
1.74301e-06
1.74301e-06
1.74302e-06
1.74747e-06
1.74943e-06
1.7493e-06
1.74665e-06
1.74302e-06
1.74301e-06
1.74301e-06
1.74301e-06
1.74301e-06
1.74302e-06
1.74758e-06
1.7492e-06
1.74913e-06
1.74654e-06
1.74302e-06
1.74301e-06
1.74301e-06
1.74301e-06
1.74301e-06
1.74302e-06
1.74756e-06
1.74747e-06
1.74675e-06
1.74302e-06
1.74301e-06
1.74301e-06
1.74301e-06
1.74301e-06
1.74302e-06
1.74754e-06
1.74953e-06
1.74892e-06
1.74647e-06
1.74302e-06
1.74302e-06
1.74302e-06
1.74302e-06
1.74735e-06
1.74748e-06
1.74943e-06
1.74918e-06
1.74731e-06
1.74746e-06
1.74758e-06
1.74757e-06
1.74754e-06
1.74748e-06
1.74942e-06
1.74943e-06
1.7492e-06
1.74747e-06
1.74952e-06
1.74943e-06
1.73017e-06
1.73e-06
1.72982e-06
1.72762e-06
1.72752e-06
1.72741e-06
1.72762e-06
1.72979e-06
1.73004e-06
1.72982e-06
1.72686e-06
1.72389e-06
1.72389e-06
1.72389e-06
1.72389e-06
1.72733e-06
1.72817e-06
1.72762e-06
1.72389e-06
1.72388e-06
1.72388e-06
1.72388e-06
1.72388e-06
1.72389e-06
1.72833e-06
1.73029e-06
1.73017e-06
1.72752e-06
1.72389e-06
1.72388e-06
1.72389e-06
1.72389e-06
1.72388e-06
1.72389e-06
1.72845e-06
1.73007e-06
1.73e-06
1.72741e-06
1.72389e-06
1.72388e-06
1.72388e-06
1.72389e-06
1.72388e-06
1.72389e-06
1.72844e-06
1.72834e-06
1.72762e-06
1.72389e-06
1.72388e-06
1.72388e-06
1.72388e-06
1.72388e-06
1.72389e-06
1.72841e-06
1.7304e-06
1.72979e-06
1.72733e-06
1.72389e-06
1.72389e-06
1.72389e-06
1.72389e-06
1.72822e-06
1.72835e-06
1.7303e-06
1.73004e-06
1.72818e-06
1.72833e-06
1.72845e-06
1.72844e-06
1.7284e-06
1.72835e-06
1.73028e-06
1.73029e-06
1.73007e-06
1.72834e-06
1.7304e-06
1.7303e-06
1.71104e-06
1.71087e-06
1.71069e-06
1.70849e-06
1.70839e-06
1.70828e-06
1.70848e-06
1.71066e-06
1.71091e-06
1.71069e-06
1.70773e-06
1.70476e-06
1.70476e-06
1.70476e-06
1.70476e-06
1.7082e-06
1.70904e-06
1.70849e-06
1.70476e-06
1.70476e-06
1.70476e-06
1.70476e-06
1.70476e-06
1.70476e-06
1.7092e-06
1.71116e-06
1.71104e-06
1.70839e-06
1.70476e-06
1.70476e-06
1.70476e-06
1.70476e-06
1.70476e-06
1.70476e-06
1.70932e-06
1.71094e-06
1.71087e-06
1.70828e-06
1.70476e-06
1.70476e-06
1.70476e-06
1.70476e-06
1.70476e-06
1.70476e-06
1.70931e-06
1.70921e-06
1.70848e-06
1.70476e-06
1.70476e-06
1.70476e-06
1.70476e-06
1.70475e-06
1.70476e-06
1.70927e-06
1.71127e-06
1.71066e-06
1.7082e-06
1.70476e-06
1.70476e-06
1.70476e-06
1.70476e-06
1.70909e-06
1.70922e-06
1.71117e-06
1.71091e-06
1.70904e-06
1.7092e-06
1.70932e-06
1.70931e-06
1.70927e-06
1.70922e-06
1.71114e-06
1.71116e-06
1.71094e-06
1.70921e-06
1.71127e-06
1.71117e-06
1.69191e-06
1.69174e-06
1.69156e-06
1.68936e-06
1.68926e-06
1.68915e-06
1.68935e-06
1.69153e-06
1.69178e-06
1.69156e-06
1.6886e-06
1.68563e-06
1.68563e-06
1.68563e-06
1.68563e-06
1.68907e-06
1.68991e-06
1.68936e-06
1.68563e-06
1.68563e-06
1.68563e-06
1.68563e-06
1.68563e-06
1.68563e-06
1.69007e-06
1.69203e-06
1.69191e-06
1.68926e-06
1.68563e-06
1.68563e-06
1.68563e-06
1.68563e-06
1.68563e-06
1.68563e-06
1.69019e-06
1.69181e-06
1.69174e-06
1.68915e-06
1.68563e-06
1.68563e-06
1.68563e-06
1.68563e-06
1.68563e-06
1.68563e-06
1.69018e-06
1.69008e-06
1.68935e-06
1.68563e-06
1.68563e-06
1.68563e-06
1.68563e-06
1.68563e-06
1.68563e-06
1.69014e-06
1.69214e-06
1.69153e-06
1.68907e-06
1.68563e-06
1.68563e-06
1.68563e-06
1.68563e-06
1.68996e-06
1.69009e-06
1.69204e-06
1.69178e-06
1.68991e-06
1.69007e-06
1.69019e-06
1.69018e-06
1.69014e-06
1.69009e-06
1.69201e-06
1.69203e-06
1.69181e-06
1.69008e-06
1.69214e-06
1.69204e-06
1.67278e-06
1.67261e-06
1.67243e-06
1.67023e-06
1.67013e-06
1.67002e-06
1.67022e-06
1.6724e-06
1.67265e-06
1.67243e-06
1.66947e-06
1.66649e-06
1.66649e-06
1.66649e-06
1.66649e-06
1.66994e-06
1.67078e-06
1.67023e-06
1.66649e-06
1.66649e-06
1.66649e-06
1.66649e-06
1.66649e-06
1.66649e-06
1.67094e-06
1.6729e-06
1.67278e-06
1.67012e-06
1.66649e-06
1.66649e-06
1.66649e-06
1.66649e-06
1.66649e-06
1.66649e-06
1.67106e-06
1.67268e-06
1.67261e-06
1.67002e-06
1.66649e-06
1.66649e-06
1.66649e-06
1.66649e-06
1.66649e-06
1.66649e-06
1.67105e-06
1.67095e-06
1.67022e-06
1.66649e-06
1.66649e-06
1.66649e-06
1.66649e-06
1.66649e-06
1.66649e-06
1.67101e-06
1.67301e-06
1.6724e-06
1.66994e-06
1.66649e-06
1.66649e-06
1.66649e-06
1.66649e-06
1.67083e-06
1.67096e-06
1.67291e-06
1.67265e-06
1.67078e-06
1.67094e-06
1.67106e-06
1.67105e-06
1.67101e-06
1.67096e-06
1.67288e-06
1.6729e-06
1.67268e-06
1.67095e-06
1.67301e-06
1.67291e-06
1.65365e-06
1.65348e-06
1.6533e-06
1.6511e-06
1.65099e-06
1.65089e-06
1.65109e-06
1.65327e-06
1.65352e-06
1.6533e-06
1.65034e-06
1.64736e-06
1.64736e-06
1.64736e-06
1.64736e-06
1.65081e-06
1.65165e-06
1.65109e-06
1.64736e-06
1.64736e-06
1.64736e-06
1.64736e-06
1.64736e-06
1.64736e-06
1.65181e-06
1.65377e-06
1.65365e-06
1.65099e-06
1.64736e-06
1.64736e-06
1.64736e-06
1.64736e-06
1.64736e-06
1.64736e-06
1.65193e-06
1.65355e-06
1.65348e-06
1.65089e-06
1.64736e-06
1.64736e-06
1.64736e-06
1.64736e-06
1.64736e-06
1.64736e-06
1.65192e-06
1.65182e-06
1.65109e-06
1.64736e-06
1.64736e-06
1.64736e-06
1.64736e-06
1.64736e-06
1.64736e-06
1.65188e-06
1.65388e-06
1.65327e-06
1.65081e-06
1.64736e-06
1.64736e-06
1.64736e-06
1.64736e-06
1.6517e-06
1.65183e-06
1.65378e-06
1.65352e-06
1.65165e-06
1.65181e-06
1.65193e-06
1.65192e-06
1.65188e-06
1.65183e-06
1.65375e-06
1.65377e-06
1.65355e-06
1.65182e-06
1.65388e-06
1.65378e-06
1.63452e-06
1.63435e-06
1.63416e-06
1.63196e-06
1.63186e-06
1.63176e-06
1.63196e-06
1.63414e-06
1.63439e-06
1.63416e-06
1.6312e-06
1.62823e-06
1.62823e-06
1.62823e-06
1.62823e-06
1.63168e-06
1.63252e-06
1.63196e-06
1.62823e-06
1.62823e-06
1.62823e-06
1.62823e-06
1.62823e-06
1.62823e-06
1.63268e-06
1.63464e-06
1.63452e-06
1.63186e-06
1.62823e-06
1.62823e-06
1.62823e-06
1.62823e-06
1.62823e-06
1.62823e-06
1.6328e-06
1.63442e-06
1.63435e-06
1.63176e-06
1.62823e-06
1.62823e-06
1.62823e-06
1.62823e-06
1.62823e-06
1.62823e-06
1.63278e-06
1.63269e-06
1.63196e-06
1.62823e-06
1.62823e-06
1.62823e-06
1.62823e-06
1.62823e-06
1.62823e-06
1.63275e-06
1.63474e-06
1.63414e-06
1.63168e-06
1.62823e-06
1.62823e-06
1.62823e-06
1.62823e-06
1.63257e-06
1.6327e-06
1.63465e-06
1.63439e-06
1.63252e-06
1.63268e-06
1.6328e-06
1.63278e-06
1.63275e-06
1.6327e-06
1.63462e-06
1.63464e-06
1.63442e-06
1.63269e-06
1.63474e-06
1.63465e-06
1.61539e-06
1.61522e-06
1.61504e-06
1.61283e-06
1.61273e-06
1.61263e-06
1.61283e-06
1.61501e-06
1.61526e-06
1.61503e-06
1.61207e-06
1.6091e-06
1.6091e-06
1.6091e-06
1.6091e-06
1.61255e-06
1.61339e-06
1.61283e-06
1.6091e-06
1.6091e-06
1.6091e-06
1.6091e-06
1.6091e-06
1.6091e-06
1.61355e-06
1.61551e-06
1.61539e-06
1.61273e-06
1.6091e-06
1.6091e-06
1.6091e-06
1.6091e-06
1.6091e-06
1.6091e-06
1.61367e-06
1.61529e-06
1.61522e-06
1.61263e-06
1.6091e-06
1.6091e-06
1.6091e-06
1.6091e-06
1.6091e-06
1.6091e-06
1.61365e-06
1.61355e-06
1.61283e-06
1.6091e-06
1.6091e-06
1.6091e-06
1.6091e-06
1.6091e-06
1.6091e-06
1.61362e-06
1.61561e-06
1.61501e-06
1.61255e-06
1.6091e-06
1.6091e-06
1.6091e-06
1.6091e-06
1.61344e-06
1.61357e-06
1.61551e-06
1.61526e-06
1.61339e-06
1.61354e-06
1.61366e-06
1.61365e-06
1.61362e-06
1.61357e-06
1.61549e-06
1.61551e-06
1.61529e-06
1.61355e-06
1.61561e-06
1.61551e-06
1.59625e-06
1.59609e-06
1.5959e-06
1.5937e-06
1.5936e-06
1.5935e-06
1.5937e-06
1.59588e-06
1.59613e-06
1.5959e-06
1.59294e-06
1.58997e-06
1.58997e-06
1.58997e-06
1.58997e-06
1.59341e-06
1.59426e-06
1.5937e-06
1.58997e-06
1.58997e-06
1.58997e-06
1.58997e-06
1.58997e-06
1.58997e-06
1.59441e-06
1.59638e-06
1.59626e-06
1.5936e-06
1.58997e-06
1.58997e-06
1.58997e-06
1.58997e-06
1.58997e-06
1.58997e-06
1.59453e-06
1.59616e-06
1.59609e-06
1.5935e-06
1.58997e-06
1.58997e-06
1.58997e-06
1.58997e-06
1.58997e-06
1.58997e-06
1.59452e-06
1.59442e-06
1.5937e-06
1.58997e-06
1.58997e-06
1.58997e-06
1.58997e-06
1.58997e-06
1.58997e-06
1.59449e-06
1.59648e-06
1.59588e-06
1.59342e-06
1.58997e-06
1.58997e-06
1.58997e-06
1.58997e-06
1.59431e-06
1.59444e-06
1.59638e-06
1.59613e-06
1.59426e-06
1.59441e-06
1.59453e-06
1.59452e-06
1.59449e-06
1.59444e-06
1.59636e-06
1.59638e-06
1.59616e-06
1.59442e-06
1.59648e-06
1.59638e-06
1.57712e-06
1.57695e-06
1.57677e-06
1.57457e-06
1.57447e-06
1.57436e-06
1.57457e-06
1.57675e-06
1.577e-06
1.57677e-06
1.57381e-06
1.57084e-06
1.57084e-06
1.57084e-06
1.57084e-06
1.57428e-06
1.57513e-06
1.57457e-06
1.57084e-06
1.57084e-06
1.57084e-06
1.57084e-06
1.57084e-06
1.57084e-06
1.57528e-06
1.57725e-06
1.57713e-06
1.57447e-06
1.57084e-06
1.57084e-06
1.57084e-06
1.57084e-06
1.57084e-06
1.57084e-06
1.5754e-06
1.57703e-06
1.57695e-06
1.57436e-06
1.57084e-06
1.57084e-06
1.57084e-06
1.57084e-06
1.57084e-06
1.57084e-06
1.57539e-06
1.57529e-06
1.57457e-06
1.57084e-06
1.57084e-06
1.57084e-06
1.57084e-06
1.57084e-06
1.57084e-06
1.57536e-06
1.57735e-06
1.57675e-06
1.57429e-06
1.57084e-06
1.57084e-06
1.57084e-06
1.57084e-06
1.57518e-06
1.57531e-06
1.57725e-06
1.577e-06
1.57513e-06
1.57528e-06
1.5754e-06
1.57539e-06
1.57536e-06
1.57531e-06
1.57723e-06
1.57725e-06
1.57703e-06
1.57529e-06
1.57735e-06
1.57725e-06
1.55799e-06
1.55782e-06
1.55764e-06
1.55544e-06
1.55534e-06
1.55523e-06
1.55544e-06
1.55762e-06
1.55787e-06
1.55764e-06
1.55468e-06
1.55171e-06
1.55171e-06
1.55171e-06
1.55171e-06
1.55515e-06
1.556e-06
1.55544e-06
1.55171e-06
1.55171e-06
1.55171e-06
1.55171e-06
1.55171e-06
1.55171e-06
1.55615e-06
1.55812e-06
1.558e-06
1.55534e-06
1.55171e-06
1.55171e-06
1.55171e-06
1.55171e-06
1.55171e-06
1.55171e-06
1.55627e-06
1.5579e-06
1.55782e-06
1.55523e-06
1.55171e-06
1.55171e-06
1.55171e-06
1.55171e-06
1.55171e-06
1.55171e-06
1.55626e-06
1.55616e-06
1.55544e-06
1.55171e-06
1.55171e-06
1.55171e-06
1.55171e-06
1.55171e-06
1.55171e-06
1.55623e-06
1.55822e-06
1.55762e-06
1.55516e-06
1.55171e-06
1.55171e-06
1.55171e-06
1.55171e-06
1.55605e-06
1.55617e-06
1.55812e-06
1.55787e-06
1.556e-06
1.55615e-06
1.55627e-06
1.55626e-06
1.55623e-06
1.55617e-06
1.5581e-06
1.55812e-06
1.5579e-06
1.55616e-06
1.55822e-06
1.55812e-06
1.53886e-06
1.53869e-06
1.53851e-06
1.53631e-06
1.53621e-06
1.5361e-06
1.53631e-06
1.53848e-06
1.53874e-06
1.53851e-06
1.53555e-06
1.53258e-06
1.53258e-06
1.53258e-06
1.53258e-06
1.53602e-06
1.53687e-06
1.53631e-06
1.53258e-06
1.53258e-06
1.53258e-06
1.53258e-06
1.53258e-06
1.53258e-06
1.53702e-06
1.53899e-06
1.53887e-06
1.53621e-06
1.53258e-06
1.53258e-06
1.53258e-06
1.53258e-06
1.53258e-06
1.53258e-06
1.53714e-06
1.53877e-06
1.53869e-06
1.5361e-06
1.53258e-06
1.53258e-06
1.53258e-06
1.53258e-06
1.53258e-06
1.53258e-06
1.53713e-06
1.53703e-06
1.53631e-06
1.53258e-06
1.53258e-06
1.53258e-06
1.53258e-06
1.53258e-06
1.53258e-06
1.5371e-06
1.53909e-06
1.53849e-06
1.53603e-06
1.53258e-06
1.53258e-06
1.53258e-06
1.53258e-06
1.53692e-06
1.53704e-06
1.53899e-06
1.53874e-06
1.53687e-06
1.53702e-06
1.53714e-06
1.53713e-06
1.5371e-06
1.53704e-06
1.53897e-06
1.53899e-06
1.53877e-06
1.53703e-06
1.53909e-06
1.53899e-06
1.51973e-06
1.51956e-06
1.51938e-06
1.51718e-06
1.51708e-06
1.51697e-06
1.51718e-06
1.51935e-06
1.5196e-06
1.51938e-06
1.51642e-06
1.51345e-06
1.51345e-06
1.51345e-06
1.51345e-06
1.51689e-06
1.51774e-06
1.51718e-06
1.51345e-06
1.51345e-06
1.51345e-06
1.51345e-06
1.51345e-06
1.51345e-06
1.51789e-06
1.51986e-06
1.51973e-06
1.51708e-06
1.51345e-06
1.51345e-06
1.51345e-06
1.51345e-06
1.51345e-06
1.51345e-06
1.51801e-06
1.51964e-06
1.51956e-06
1.51697e-06
1.51345e-06
1.51345e-06
1.51345e-06
1.51345e-06
1.51345e-06
1.51345e-06
1.518e-06
1.5179e-06
1.51718e-06
1.51345e-06
1.51345e-06
1.51345e-06
1.51345e-06
1.51345e-06
1.51345e-06
1.51797e-06
1.51996e-06
1.51936e-06
1.5169e-06
1.51345e-06
1.51345e-06
1.51345e-06
1.51345e-06
1.51779e-06
1.51791e-06
1.51986e-06
1.51961e-06
1.51774e-06
1.51789e-06
1.51801e-06
1.518e-06
1.51797e-06
1.51791e-06
1.51984e-06
1.51986e-06
1.51964e-06
1.5179e-06
1.51996e-06
1.51986e-06
1.5006e-06
1.50043e-06
1.50025e-06
1.49805e-06
1.49795e-06
1.49784e-06
1.49805e-06
1.50022e-06
1.50047e-06
1.50025e-06
1.49729e-06
1.49432e-06
1.49432e-06
1.49432e-06
1.49432e-06
1.49776e-06
1.49861e-06
1.49805e-06
1.49432e-06
1.49432e-06
1.49432e-06
1.49432e-06
1.49432e-06
1.49432e-06
1.49876e-06
1.50073e-06
1.5006e-06
1.49795e-06
1.49432e-06
1.49432e-06
1.49432e-06
1.49432e-06
1.49432e-06
1.49432e-06
1.49888e-06
1.50051e-06
1.50043e-06
1.49784e-06
1.49432e-06
1.49432e-06
1.49432e-06
1.49432e-06
1.49432e-06
1.49432e-06
1.49887e-06
1.49877e-06
1.49805e-06
1.49432e-06
1.49432e-06
1.49432e-06
1.49432e-06
1.49432e-06
1.49432e-06
1.49884e-06
1.50083e-06
1.50022e-06
1.49776e-06
1.49432e-06
1.49432e-06
1.49432e-06
1.49432e-06
1.49865e-06
1.49878e-06
1.50073e-06
1.50047e-06
1.49861e-06
1.49876e-06
1.49888e-06
1.49887e-06
1.49883e-06
1.49878e-06
1.50071e-06
1.50073e-06
1.50051e-06
1.49877e-06
1.50083e-06
1.50073e-06
1.48147e-06
1.4813e-06
1.48112e-06
1.47892e-06
1.47882e-06
1.47871e-06
1.47892e-06
1.48109e-06
1.48134e-06
1.48112e-06
1.47816e-06
1.47519e-06
1.47519e-06
1.47519e-06
1.47519e-06
1.47863e-06
1.47948e-06
1.47892e-06
1.47519e-06
1.47519e-06
1.47519e-06
1.47519e-06
1.47519e-06
1.47519e-06
1.47963e-06
1.4816e-06
1.48147e-06
1.47882e-06
1.47519e-06
1.47519e-06
1.47519e-06
1.47519e-06
1.47519e-06
1.47519e-06
1.47975e-06
1.48138e-06
1.4813e-06
1.47871e-06
1.47519e-06
1.47519e-06
1.47519e-06
1.47519e-06
1.47519e-06
1.47519e-06
1.47974e-06
1.47964e-06
1.47892e-06
1.47519e-06
1.47519e-06
1.47519e-06
1.47519e-06
1.47519e-06
1.47519e-06
1.47971e-06
1.4817e-06
1.48109e-06
1.47863e-06
1.47519e-06
1.47519e-06
1.47519e-06
1.47519e-06
1.47952e-06
1.47965e-06
1.4816e-06
1.48134e-06
1.47948e-06
1.47963e-06
1.47975e-06
1.47974e-06
1.4797e-06
1.47965e-06
1.48158e-06
1.48159e-06
1.48138e-06
1.47964e-06
1.4817e-06
1.4816e-06
1.46234e-06
1.46217e-06
1.46199e-06
1.45979e-06
1.45969e-06
1.45958e-06
1.45979e-06
1.46196e-06
1.46221e-06
1.46199e-06
1.45903e-06
1.45606e-06
1.45606e-06
1.45606e-06
1.45606e-06
1.4595e-06
1.46034e-06
1.45979e-06
1.45606e-06
1.45606e-06
1.45606e-06
1.45606e-06
1.45606e-06
1.45606e-06
1.4605e-06
1.46246e-06
1.46234e-06
1.45969e-06
1.45606e-06
1.45606e-06
1.45606e-06
1.45606e-06
1.45606e-06
1.45606e-06
1.46062e-06
1.46225e-06
1.46217e-06
1.45958e-06
1.45606e-06
1.45606e-06
1.45606e-06
1.45606e-06
1.45606e-06
1.45606e-06
1.46061e-06
1.46051e-06
1.45979e-06
1.45606e-06
1.45606e-06
1.45606e-06
1.45606e-06
1.45606e-06
1.45606e-06
1.46058e-06
1.46257e-06
1.46196e-06
1.4595e-06
1.45606e-06
1.45606e-06
1.45606e-06
1.45606e-06
1.46039e-06
1.46052e-06
1.46247e-06
1.46221e-06
1.46035e-06
1.4605e-06
1.46062e-06
1.46061e-06
1.46057e-06
1.46052e-06
1.46245e-06
1.46246e-06
1.46225e-06
1.46051e-06
1.46257e-06
1.46247e-06
1.44321e-06
1.44304e-06
1.44286e-06
1.44066e-06
1.44056e-06
1.44045e-06
1.44066e-06
1.44283e-06
1.44308e-06
1.44286e-06
1.4399e-06
1.43693e-06
1.43693e-06
1.43693e-06
1.43693e-06
1.44037e-06
1.44121e-06
1.44066e-06
1.43693e-06
1.43693e-06
1.43693e-06
1.43693e-06
1.43693e-06
1.43693e-06
1.44137e-06
1.44333e-06
1.44321e-06
1.44056e-06
1.43693e-06
1.43693e-06
1.43693e-06
1.43693e-06
1.43693e-06
1.43693e-06
1.44149e-06
1.44312e-06
1.44304e-06
1.44045e-06
1.43693e-06
1.43693e-06
1.43693e-06
1.43693e-06
1.43693e-06
1.43693e-06
1.44148e-06
1.44138e-06
1.44065e-06
1.43693e-06
1.43693e-06
1.43693e-06
1.43693e-06
1.43693e-06
1.43693e-06
1.44145e-06
1.44344e-06
1.44283e-06
1.44037e-06
1.43693e-06
1.43693e-06
1.43693e-06
1.43693e-06
1.44126e-06
1.44139e-06
1.44334e-06
1.44308e-06
1.44121e-06
1.44137e-06
1.44149e-06
1.44148e-06
1.44144e-06
1.44139e-06
1.44331e-06
1.44333e-06
1.44312e-06
1.44138e-06
1.44344e-06
1.44334e-06
1.42408e-06
1.42391e-06
1.42373e-06
1.42153e-06
1.42143e-06
1.42132e-06
1.42152e-06
1.4237e-06
1.42395e-06
1.42373e-06
1.42077e-06
1.41779e-06
1.41779e-06
1.41779e-06
1.41779e-06
1.42124e-06
1.42208e-06
1.42153e-06
1.41779e-06
1.41779e-06
1.41779e-06
1.41779e-06
1.41779e-06
1.41779e-06
1.42224e-06
1.4242e-06
1.42408e-06
1.42143e-06
1.41779e-06
1.41779e-06
1.41779e-06
1.41779e-06
1.41779e-06
1.41779e-06
1.42236e-06
1.42398e-06
1.42391e-06
1.42132e-06
1.41779e-06
1.41779e-06
1.41779e-06
1.41779e-06
1.41779e-06
1.41779e-06
1.42235e-06
1.42225e-06
1.42152e-06
1.41779e-06
1.41779e-06
1.41779e-06
1.41779e-06
1.41779e-06
1.41779e-06
1.42231e-06
1.42431e-06
1.4237e-06
1.42124e-06
1.41779e-06
1.41779e-06
1.41779e-06
1.41779e-06
1.42213e-06
1.42226e-06
1.42421e-06
1.42395e-06
1.42208e-06
1.42224e-06
1.42236e-06
1.42235e-06
1.42231e-06
1.42226e-06
1.42418e-06
1.4242e-06
1.42398e-06
1.42225e-06
1.42431e-06
1.42421e-06
1.40495e-06
1.40478e-06
1.40459e-06
1.4024e-06
1.40229e-06
1.40219e-06
1.40239e-06
1.40457e-06
1.40482e-06
1.40459e-06
1.40164e-06
1.39866e-06
1.39866e-06
1.39866e-06
1.39866e-06
1.40211e-06
1.40295e-06
1.40239e-06
1.39866e-06
1.39866e-06
1.39866e-06
1.39866e-06
1.39866e-06
1.39866e-06
1.40311e-06
1.40507e-06
1.40495e-06
1.40229e-06
1.39866e-06
1.39866e-06
1.39866e-06
1.39866e-06
1.39866e-06
1.39866e-06
1.40323e-06
1.40485e-06
1.40478e-06
1.40219e-06
1.39866e-06
1.39866e-06
1.39866e-06
1.39866e-06
1.39866e-06
1.39866e-06
1.40322e-06
1.40312e-06
1.40239e-06
1.39866e-06
1.39866e-06
1.39866e-06
1.39866e-06
1.39866e-06
1.39866e-06
1.40318e-06
1.40518e-06
1.40457e-06
1.40211e-06
1.39866e-06
1.39866e-06
1.39866e-06
1.39866e-06
1.403e-06
1.40313e-06
1.40508e-06
1.40482e-06
1.40295e-06
1.40311e-06
1.40323e-06
1.40322e-06
1.40318e-06
1.40313e-06
1.40505e-06
1.40507e-06
1.40485e-06
1.40312e-06
1.40517e-06
1.40508e-06
1.38582e-06
1.38565e-06
1.38546e-06
1.38327e-06
1.38316e-06
1.38306e-06
1.38326e-06
1.38544e-06
1.38569e-06
1.38546e-06
1.38251e-06
1.37953e-06
1.37953e-06
1.37953e-06
1.37953e-06
1.38298e-06
1.38382e-06
1.38326e-06
1.37953e-06
1.37953e-06
1.37953e-06
1.37953e-06
1.37953e-06
1.37953e-06
1.38398e-06
1.38594e-06
1.38582e-06
1.38316e-06
1.37953e-06
1.37953e-06
1.37953e-06
1.37953e-06
1.37953e-06
1.37953e-06
1.3841e-06
1.38572e-06
1.38565e-06
1.38306e-06
1.37953e-06
1.37953e-06
1.37953e-06
1.37953e-06
1.37953e-06
1.37953e-06
1.38409e-06
1.38399e-06
1.38326e-06
1.37953e-06
1.37953e-06
1.37953e-06
1.37953e-06
1.37953e-06
1.37953e-06
1.38405e-06
1.38605e-06
1.38544e-06
1.38298e-06
1.37953e-06
1.37953e-06
1.37953e-06
1.37953e-06
1.38387e-06
1.384e-06
1.38595e-06
1.38569e-06
1.38382e-06
1.38398e-06
1.3841e-06
1.38408e-06
1.38405e-06
1.384e-06
1.38592e-06
1.38594e-06
1.38572e-06
1.38399e-06
1.38604e-06
1.38595e-06
1.36669e-06
1.36652e-06
1.36633e-06
1.36413e-06
1.36403e-06
1.36393e-06
1.36413e-06
1.36631e-06
1.36656e-06
1.36633e-06
1.36337e-06
1.3604e-06
1.3604e-06
1.3604e-06
1.3604e-06
1.36385e-06
1.36469e-06
1.36413e-06
1.3604e-06
1.3604e-06
1.3604e-06
1.3604e-06
1.3604e-06
1.3604e-06
1.36485e-06
1.36681e-06
1.36669e-06
1.36403e-06
1.3604e-06
1.3604e-06
1.3604e-06
1.3604e-06
1.3604e-06
1.3604e-06
1.36497e-06
1.36659e-06
1.36652e-06
1.36393e-06
1.3604e-06
1.3604e-06
1.3604e-06
1.3604e-06
1.3604e-06
1.3604e-06
1.36495e-06
1.36485e-06
1.36413e-06
1.3604e-06
1.3604e-06
1.3604e-06
1.3604e-06
1.3604e-06
1.3604e-06
1.36492e-06
1.36691e-06
1.36631e-06
1.36385e-06
1.3604e-06
1.3604e-06
1.3604e-06
1.3604e-06
1.36474e-06
1.36487e-06
1.36681e-06
1.36656e-06
1.36469e-06
1.36485e-06
1.36496e-06
1.36495e-06
1.36492e-06
1.36487e-06
1.36679e-06
1.36681e-06
1.36659e-06
1.36485e-06
1.36691e-06
1.36682e-06
1.34755e-06
1.34739e-06
1.3472e-06
1.345e-06
1.3449e-06
1.3448e-06
1.345e-06
1.34718e-06
1.34743e-06
1.3472e-06
1.34424e-06
1.34127e-06
1.34127e-06
1.34127e-06
1.34127e-06
1.34472e-06
1.34556e-06
1.345e-06
1.34127e-06
1.34127e-06
1.34127e-06
1.34127e-06
1.34127e-06
1.34127e-06
1.34571e-06
1.34768e-06
1.34756e-06
1.3449e-06
1.34127e-06
1.34127e-06
1.34127e-06
1.34127e-06
1.34127e-06
1.34127e-06
1.34584e-06
1.34746e-06
1.34739e-06
1.3448e-06
1.34127e-06
1.34127e-06
1.34127e-06
1.34127e-06
1.34127e-06
1.34127e-06
1.34582e-06
1.34572e-06
1.345e-06
1.34127e-06
1.34127e-06
1.34127e-06
1.34127e-06
1.34127e-06
1.34127e-06
1.34579e-06
1.34778e-06
1.34718e-06
1.34472e-06
1.34127e-06
1.34127e-06
1.34127e-06
1.34127e-06
1.34561e-06
1.34574e-06
1.34768e-06
1.34743e-06
1.34556e-06
1.34571e-06
1.34583e-06
1.34582e-06
1.34579e-06
1.34574e-06
1.34766e-06
1.34768e-06
1.34746e-06
1.34572e-06
1.34778e-06
1.34768e-06
1.32842e-06
1.32825e-06
1.32807e-06
1.32587e-06
1.32577e-06
1.32566e-06
1.32587e-06
1.32804e-06
1.3283e-06
1.32807e-06
1.32511e-06
1.32214e-06
1.32214e-06
1.32214e-06
1.32214e-06
1.32559e-06
1.32643e-06
1.32587e-06
1.32214e-06
1.32214e-06
1.32214e-06
1.32214e-06
1.32214e-06
1.32214e-06
1.32658e-06
1.32855e-06
1.32843e-06
1.32577e-06
1.32214e-06
1.32214e-06
1.32214e-06
1.32214e-06
1.32214e-06
1.32214e-06
1.3267e-06
1.32833e-06
1.32825e-06
1.32566e-06
1.32214e-06
1.32214e-06
1.32214e-06
1.32214e-06
1.32214e-06
1.32214e-06
1.32669e-06
1.32659e-06
1.32587e-06
1.32214e-06
1.32214e-06
1.32214e-06
1.32214e-06
1.32214e-06
1.32214e-06
1.32666e-06
1.32865e-06
1.32805e-06
1.32559e-06
1.32214e-06
1.32214e-06
1.32214e-06
1.32214e-06
1.32648e-06
1.32661e-06
1.32855e-06
1.3283e-06
1.32643e-06
1.32658e-06
1.3267e-06
1.32669e-06
1.32666e-06
1.32661e-06
1.32853e-06
1.32855e-06
1.32833e-06
1.32659e-06
1.32865e-06
1.32855e-06
1.30929e-06
1.30912e-06
1.30894e-06
1.30674e-06
1.30664e-06
1.30653e-06
1.30674e-06
1.30891e-06
1.30916e-06
1.30894e-06
1.30598e-06
1.30301e-06
1.30301e-06
1.30301e-06
1.30301e-06
1.30645e-06
1.3073e-06
1.30674e-06
1.30301e-06
1.30301e-06
1.30301e-06
1.30301e-06
1.30301e-06
1.30301e-06
1.30745e-06
1.30942e-06
1.30929e-06
1.30664e-06
1.30301e-06
1.30301e-06
1.30301e-06
1.30301e-06
1.30301e-06
1.30301e-06
1.30757e-06
1.3092e-06
1.30912e-06
1.30653e-06
1.30301e-06
1.30301e-06
1.30301e-06
1.30301e-06
1.30301e-06
1.30301e-06
1.30756e-06
1.30746e-06
1.30674e-06
1.30301e-06
1.30301e-06
1.30301e-06
1.30301e-06
1.30301e-06
1.30301e-06
1.30753e-06
1.30952e-06
1.30892e-06
1.30646e-06
1.30301e-06
1.30301e-06
1.30301e-06
1.30301e-06
1.30735e-06
1.30747e-06
1.30942e-06
1.30917e-06
1.3073e-06
1.30745e-06
1.30757e-06
1.30756e-06
1.30753e-06
1.30747e-06
1.3094e-06
1.30942e-06
1.3092e-06
1.30746e-06
1.30952e-06
1.30942e-06
1.29016e-06
1.28999e-06
1.28981e-06
1.28761e-06
1.28751e-06
1.2874e-06
1.28761e-06
1.28978e-06
1.29003e-06
1.28981e-06
1.28685e-06
1.28388e-06
1.28388e-06
1.28388e-06
1.28388e-06
1.28732e-06
1.28817e-06
1.28761e-06
1.28388e-06
1.28388e-06
1.28388e-06
1.28388e-06
1.28388e-06
1.28388e-06
1.28832e-06
1.29029e-06
1.29016e-06
1.28751e-06
1.28388e-06
1.28388e-06
1.28388e-06
1.28388e-06
1.28388e-06
1.28388e-06
1.28844e-06
1.29007e-06
1.28999e-06
1.2874e-06
1.28388e-06
1.28388e-06
1.28388e-06
1.28388e-06
1.28388e-06
1.28388e-06
1.28843e-06
1.28833e-06
1.28761e-06
1.28388e-06
1.28388e-06
1.28388e-06
1.28388e-06
1.28388e-06
1.28388e-06
1.2884e-06
1.29039e-06
1.28978e-06
1.28732e-06
1.28388e-06
1.28388e-06
1.28388e-06
1.28388e-06
1.28821e-06
1.28834e-06
1.29029e-06
1.29003e-06
1.28817e-06
1.28832e-06
1.28844e-06
1.28843e-06
1.28839e-06
1.28834e-06
1.29027e-06
1.29029e-06
1.29007e-06
1.28833e-06
1.29039e-06
1.29029e-06
1.27103e-06
1.27086e-06
1.27068e-06
1.26848e-06
1.26838e-06
1.26827e-06
1.26848e-06
1.27065e-06
1.2709e-06
1.27068e-06
1.26772e-06
1.26475e-06
1.26475e-06
1.26475e-06
1.26475e-06
1.26819e-06
1.26904e-06
1.26848e-06
1.26475e-06
1.26475e-06
1.26475e-06
1.26475e-06
1.26475e-06
1.26475e-06
1.26919e-06
1.27116e-06
1.27103e-06
1.26838e-06
1.26475e-06
1.26475e-06
1.26475e-06
1.26475e-06
1.26475e-06
1.26475e-06
1.26931e-06
1.27094e-06
1.27086e-06
1.26827e-06
1.26475e-06
1.26475e-06
1.26475e-06
1.26475e-06
1.26475e-06
1.26475e-06
1.2693e-06
1.2692e-06
1.26848e-06
1.26475e-06
1.26475e-06
1.26475e-06
1.26475e-06
1.26475e-06
1.26475e-06
1.26927e-06
1.27126e-06
1.27065e-06
1.26819e-06
1.26475e-06
1.26475e-06
1.26475e-06
1.26475e-06
1.26908e-06
1.26921e-06
1.27116e-06
1.2709e-06
1.26904e-06
1.26919e-06
1.26931e-06
1.2693e-06
1.26926e-06
1.26921e-06
1.27114e-06
1.27115e-06
1.27094e-06
1.2692e-06
1.27126e-06
1.27116e-06
1.2519e-06
1.25173e-06
1.25155e-06
1.24935e-06
1.24925e-06
1.24914e-06
1.24935e-06
1.25152e-06
1.25177e-06
1.25155e-06
1.24859e-06
1.24562e-06
1.24562e-06
1.24562e-06
1.24562e-06
1.24906e-06
1.2499e-06
1.24935e-06
1.24562e-06
1.24562e-06
1.24562e-06
1.24562e-06
1.24562e-06
1.24562e-06
1.25006e-06
1.25202e-06
1.2519e-06
1.24925e-06
1.24562e-06
1.24562e-06
1.24562e-06
1.24562e-06
1.24562e-06
1.24562e-06
1.25018e-06
1.25181e-06
1.25173e-06
1.24914e-06
1.24562e-06
1.24562e-06
1.24562e-06
1.24562e-06
1.24562e-06
1.24562e-06
1.25017e-06
1.25007e-06
1.24935e-06
1.24562e-06
1.24562e-06
1.24562e-06
1.24562e-06
1.24562e-06
1.24562e-06
1.25014e-06
1.25213e-06
1.25152e-06
1.24906e-06
1.24562e-06
1.24562e-06
1.24562e-06
1.24562e-06
1.24995e-06
1.25008e-06