/*--------------------------------*- C++ -*----------------------------------*\
| =========                 |                                                 |
| \\      /  F ield         | OpenFOAM: The Open Source CFD Toolbox           |
|  \\    /   O peration     | Version:  v2006                                 |
|   \\  /    A nd           | Website:  www.openfoam.com                      |
|    \\/     M anipulation  |                                                 |
\*---------------------------------------------------------------------------*/
FoamFile
{
    version     2.0;
    format      ascii;
    class       volScalarField;
    location    "625";
    object      k;
}
// * * * * * * * * * * * * * * * * * * * * * * * * * * * * * * * * * * * * * //

dimensions      [0 2 -2 0 0 0 0];


internalField   nonuniform List<scalar> 
14404
(
5.16533e-05
5.16844e-05
5.37716e-05
3.91071e-05
7.12118e-05
6.49244e-05
7.34711e-05
6.86773e-05
4.69977e-05
6.49251e-05
6.08003e-05
7.00428e-05
7.00528e-05
7.1216e-05
7.34798e-05
7.98425e-05
7.17057e-05
7.16432e-05
7.16876e-05
7.18737e-05
6.54187e-05
7.33145e-05
7.43432e-05
7.43079e-05
6.54064e-05
7.33125e-05
7.00605e-05
6.54275e-05
7.42967e-05
7.33192e-05
7.3514e-05
7.35237e-05
9.51082e-05
7.12247e-05
7.34877e-05
7.98763e-05
6.61263e-05
5.9698e-05
5.96922e-05
5.37702e-05
5.96982e-05
6.61108e-05
5.97016e-05
3.20735e-05
5.75846e-05
6.05629e-05
6.49433e-05
6.05726e-05
6.43608e-05
6.0577e-05
6.43496e-05
5.7606e-05
5.52592e-05
6.24801e-05
5.65278e-05
6.87073e-05
7.34809e-05
7.34813e-05
7.12171e-05
7.12215e-05
5.38307e-05
6.99915e-05
6.99974e-05
6.08485e-05
5.17763e-05
6.49236e-05
4.71218e-05
5.17506e-05
6.49156e-05
7.18856e-05
6.8707e-05
7.16634e-05
7.17136e-05
7.16562e-05
7.17146e-05
7.18926e-05
7.1714e-05
7.98629e-05
7.34758e-05
7.98673e-05
7.17232e-05
7.34756e-05
7.12205e-05
7.12089e-05
7.12128e-05
9.50063e-05
7.35147e-05
7.35109e-05
7.35068e-05
7.35023e-05
9.49905e-05
7.42525e-05
7.32982e-05
7.00024e-05
6.54048e-05
7.32944e-05
7.42411e-05
6.54136e-05
7.42996e-05
7.33097e-05
7.00063e-05
6.54049e-05
7.33044e-05
7.42891e-05
6.54126e-05
7.17159e-05
7.34779e-05
7.98454e-05
7.1882e-05
6.868e-05
7.16513e-05
7.16912e-05
7.43473e-05
7.00432e-05
7.33201e-05
6.54299e-05
9.51092e-05
7.35217e-05
7.35321e-05
6.61161e-05
5.3844e-05
5.97273e-05
5.97218e-05
6.61052e-05
5.97405e-05
5.97348e-05
5.65979e-05
6.08448e-05
6.25222e-05
5.53266e-05
6.25192e-05
5.53339e-05
5.65844e-05
5.76653e-05
6.43772e-05
6.49297e-05
6.05989e-05
6.4381e-05
6.0609e-05
5.76558e-05
6.49208e-05
6.0585e-05
6.05945e-05
5.76032e-05
6.49304e-05
6.43576e-05
6.05798e-05
5.65191e-05
6.08092e-05
5.52553e-05
6.24891e-05
5.28069e-05
5.00304e-05
4.99837e-05
5.28063e-05
4.99695e-05
3.62891e-05
7.29951e-05
7.08203e-05
7.08517e-05
7.08107e-05
7.0838e-05
5.27929e-05
7.01856e-05
7.00847e-05
7.02798e-05
7.02144e-05
6.81186e-05
7.30435e-05
7.3075e-05
6.81704e-05
6.7905e-05
7.27892e-05
6.79873e-05
5.96942e-05
4.99901e-05
6.48315e-05
4.43381e-05
6.48306e-05
4.4241e-05
5.97817e-05
5.9462e-05
4.82413e-05
4.36134e-05
6.34886e-05
4.34673e-05
5.95633e-05
7.05943e-05
5.07151e-05
6.87001e-05
6.88887e-05
7.06498e-05
6.80174e-05
7.30121e-05
7.30457e-05
6.79519e-05
5.9591e-05
4.99633e-05
6.4719e-05
4.42043e-05
6.47557e-05
4.41945e-05
5.95278e-05
6.77932e-05
7.2573e-05
6.76702e-05
5.93602e-05
4.81909e-05
4.34468e-05
4.34727e-05
6.32235e-05
5.92318e-05
5.89745e-05
4.79467e-05
6.35108e-05
4.24066e-05
6.7605e-05
7.28121e-05
5.89991e-05
4.80349e-05
4.25014e-05
6.36872e-05
6.76356e-05
7.29334e-05
7.03936e-05
5.05933e-05
6.82229e-05
6.83561e-05
7.04554e-05
5.88288e-05
4.79134e-05
4.2622e-05
6.31927e-05
5.88528e-05
4.80591e-05
4.2646e-05
6.35723e-05
6.73832e-05
7.25834e-05
6.74346e-05
7.2892e-05
5.07857e-05
6.91191e-05
6.90203e-05
7.076e-05
7.0742e-05
7.08006e-05
7.07952e-05
7.01001e-05
7.00041e-05
6.46449e-05
7.13022e-05
7.96675e-05
7.96477e-05
7.13123e-05
7.13107e-05
7.95784e-05
7.2989e-05
7.13067e-05
7.95566e-05
7.08275e-05
7.08463e-05
7.0816e-05
7.08331e-05
9.57471e-05
7.33067e-05
7.32899e-05
9.57601e-05
7.32952e-05
7.32798e-05
7.46703e-05
6.53897e-05
7.02499e-05
7.29962e-05
7.30212e-05
6.54065e-05
7.46105e-05
7.46366e-05
6.53203e-05
7.01509e-05
7.29764e-05
7.29981e-05
6.53492e-05
7.45845e-05
7.46862e-05
7.30783e-05
6.53821e-05
7.02789e-05
7.46785e-05
7.30609e-05
6.54069e-05
7.46513e-05
7.30518e-05
6.53423e-05
7.02044e-05
7.46427e-05
7.30353e-05
6.53553e-05
9.56729e-05
7.32452e-05
7.32359e-05
7.32603e-05
7.32486e-05
9.55576e-05
7.1409e-05
7.11215e-05
7.13887e-05
6.815e-05
7.14017e-05
7.11324e-05
7.14161e-05
7.13332e-05
7.30523e-05
7.9759e-05
7.13353e-05
7.97671e-05
7.13408e-05
7.97557e-05
7.30685e-05
7.13344e-05
7.97683e-05
7.141e-05
6.81572e-05
7.11457e-05
7.14242e-05
7.14144e-05
7.11364e-05
7.14203e-05
7.13215e-05
7.10898e-05
7.07799e-05
6.79376e-05
7.1301e-05
7.11051e-05
7.08038e-05
7.11451e-05
7.88983e-05
7.28311e-05
7.11159e-05
7.89237e-05
7.13308e-05
6.79531e-05
7.11264e-05
7.08774e-05
7.11117e-05
7.0825e-05
7.13519e-05
7.06349e-05
9.36431e-05
7.2894e-05
7.29251e-05
9.35259e-05
7.29393e-05
7.29736e-05
7.27601e-05
7.25518e-05
6.35548e-05
6.87759e-05
6.35865e-05
7.26962e-05
7.2607e-05
7.28012e-05
7.26061e-05
6.35625e-05
6.89754e-05
7.2698e-05
7.26596e-05
6.36394e-05
7.06846e-05
7.13727e-05
7.12795e-05
7.10763e-05
6.80032e-05
7.13659e-05
7.12795e-05
7.10856e-05
7.131e-05
7.30207e-05
7.96237e-05
7.13145e-05
7.96446e-05
7.13163e-05
7.96693e-05
7.30381e-05
7.13093e-05
7.96672e-05
7.13743e-05
6.79686e-05
7.12531e-05
7.11007e-05
7.13807e-05
7.1266e-05
7.10898e-05
7.12292e-05
7.10292e-05
7.06312e-05
6.77575e-05
7.12184e-05
7.10396e-05
7.05663e-05
7.10007e-05
7.86729e-05
7.25874e-05
7.09911e-05
7.85886e-05
7.12358e-05
6.77e-05
7.106e-05
7.0444e-05
7.10453e-05
7.04867e-05
7.12547e-05
7.13396e-05
7.06492e-05
7.10834e-05
6.76879e-05
7.13122e-05
7.07245e-05
7.11097e-05
7.11946e-05
7.89217e-05
7.28533e-05
7.11634e-05
7.89903e-05
7.138e-05
7.10967e-05
7.07418e-05
6.77293e-05
7.13525e-05
7.11231e-05
7.08465e-05
7.1276e-05
7.90672e-05
7.29749e-05
7.12433e-05
7.91702e-05
7.04221e-05
9.26347e-05
7.26318e-05
7.26705e-05
9.27933e-05
7.26503e-05
7.26943e-05
7.20776e-05
7.22007e-05
6.32424e-05
6.81038e-05
6.30756e-05
7.22521e-05
7.22112e-05
7.20695e-05
7.2248e-05
6.32367e-05
6.82677e-05
7.22299e-05
7.22692e-05
6.30838e-05
7.0486e-05
7.12324e-05
7.03983e-05
7.10014e-05
6.73622e-05
7.12109e-05
7.03515e-05
7.10257e-05
7.10493e-05
7.86226e-05
7.26045e-05
7.10311e-05
7.85672e-05
7.13289e-05
7.05497e-05
7.10307e-05
6.74381e-05
7.13e-05
7.05989e-05
7.10574e-05
7.1243e-05
7.89088e-05
7.29334e-05
7.12066e-05
7.89904e-05
9.41187e-05
7.30897e-05
7.30691e-05
9.39664e-05
7.31344e-05
7.31163e-05
7.31556e-05
7.28076e-05
6.37699e-05
6.924e-05
7.29973e-05
6.39412e-05
7.2862e-05
7.31352e-05
7.27814e-05
6.37011e-05
6.91382e-05
7.29729e-05
6.38588e-05
7.28383e-05
7.07941e-05
7.07789e-05
7.07948e-05
7.07919e-05
7.43951e-05
6.53144e-05
7.29531e-05
7.00289e-05
7.44866e-05
7.29304e-05
6.52348e-05
7.43851e-05
6.52262e-05
7.29384e-05
6.99377e-05
7.44684e-05
7.29198e-05
6.51502e-05
9.53208e-05
7.32083e-05
7.3204e-05
9.54413e-05
7.31948e-05
7.31933e-05
6.61144e-05
5.28312e-05
5.92003e-05
5.91777e-05
5.92137e-05
5.91946e-05
6.60916e-05
6.5907e-05
5.91759e-05
5.91459e-05
5.27075e-05
6.60063e-05
5.90689e-05
5.90306e-05
3.60464e-05
2.80592e-05
2.80506e-05
2.7591e-05
2.76344e-05
1.74296e-05
1.8063e-05
3.38833e-05
2.70366e-05
2.67508e-05
2.59744e-05
1.70988e-05
1.74001e-05
3.406e-05
2.70871e-05
2.69157e-05
2.62833e-05
1.72443e-05
1.7544e-05
3.34202e-05
2.55915e-05
2.58709e-05
1.67105e-05
1.70038e-05
6.61146e-05
5.27897e-05
5.91773e-05
5.91675e-05
6.60931e-05
5.91959e-05
5.91808e-05
5.51059e-05
6.1689e-05
5.35039e-05
5.97362e-05
5.51074e-05
6.17313e-05
5.35097e-05
5.67049e-05
6.00787e-05
6.4845e-05
6.39497e-05
6.00847e-05
6.39518e-05
5.66971e-05
5.66622e-05
6.39196e-05
6.00448e-05
6.48468e-05
6.00658e-05
5.66567e-05
6.39477e-05
5.51678e-05
5.97523e-05
6.17511e-05
5.35724e-05
6.17398e-05
5.35724e-05
5.51581e-05
5.44061e-05
6.10378e-05
5.32315e-05
5.9497e-05
5.44099e-05
6.10654e-05
5.3235e-05
5.5458e-05
6.28692e-05
5.85471e-05
6.35345e-05
5.54535e-05
6.29023e-05
5.85608e-05
5.44839e-05
5.95184e-05
6.11594e-05
5.33109e-05
6.10938e-05
5.3302e-05
5.44975e-05
6.414e-05
5.07121e-05
5.72508e-05
5.72203e-05
5.72624e-05
6.4103e-05
5.72379e-05
5.65171e-05
6.38206e-05
6.37841e-05
5.65293e-05
5.5009e-05
6.15818e-05
5.34131e-05
5.95784e-05
5.50263e-05
6.15832e-05
5.33864e-05
5.65964e-05
5.99794e-05
6.47487e-05
6.38038e-05
5.99985e-05
6.38238e-05
5.65706e-05
5.6578e-05
6.38306e-05
5.9985e-05
6.47601e-05
5.99919e-05
5.65829e-05
6.38338e-05
5.50297e-05
5.95468e-05
6.15589e-05
5.33458e-05
6.15721e-05
5.3391e-05
5.49862e-05
5.42087e-05
5.31651e-05
6.09017e-05
5.93281e-05
5.43154e-05
5.30988e-05
6.08416e-05
5.51993e-05
6.2678e-05
5.83732e-05
6.31089e-05
5.53483e-05
6.25806e-05
5.82233e-05
5.41961e-05
5.92648e-05
5.30225e-05
6.07038e-05
5.30914e-05
6.07502e-05
5.41037e-05
5.39858e-05
6.07373e-05
5.25572e-05
5.90922e-05
5.39441e-05
6.08403e-05
5.26164e-05
5.52652e-05
6.27474e-05
5.84568e-05
6.36022e-05
5.52272e-05
5.85017e-05
6.28391e-05
5.4103e-05
5.25787e-05
6.08183e-05
5.91357e-05
5.40296e-05
5.26529e-05
6.09678e-05
5.54435e-05
6.28822e-05
5.8616e-05
6.38214e-05
5.53531e-05
6.30284e-05
5.87309e-05
6.36058e-05
5.03922e-05
5.70425e-05
5.70173e-05
5.68667e-05
6.37849e-05
5.68455e-05
5.37932e-05
5.25246e-05
6.05563e-05
5.88026e-05
5.38919e-05
5.24809e-05
6.04994e-05
5.49762e-05
6.25017e-05
5.82709e-05
6.30911e-05
5.51131e-05
5.81313e-05
6.2412e-05
5.39704e-05
5.2515e-05
6.06693e-05
5.88568e-05
5.39564e-05
5.2512e-05
6.07227e-05
5.53126e-05
6.27358e-05
5.85329e-05
6.36883e-05
5.52596e-05
6.2833e-05
5.86137e-05
6.4468e-05
5.08987e-05
5.7368e-05
5.73531e-05
6.43007e-05
5.75036e-05
5.74767e-05
5.64877e-05
5.99471e-05
6.37518e-05
6.45988e-05
6.37188e-05
5.65621e-05
5.98571e-05
6.80369e-05
7.0387e-05
4.81138e-05
6.33382e-05
5.96021e-05
4.41201e-05
6.78532e-05
7.25721e-05
5.94201e-05
4.84006e-05
4.34763e-05
6.33799e-05
5.06703e-05
6.83907e-05
6.84872e-05
7.04464e-05
7.25798e-05
7.13563e-05
6.8041e-05
7.12804e-05
7.10728e-05
7.12633e-05
7.10644e-05
7.13639e-05
7.03813e-05
7.12132e-05
6.78816e-05
7.10256e-05
7.07338e-05
7.10181e-05
7.08043e-05
7.12165e-05
7.09959e-05
7.25742e-05
7.87958e-05
7.89039e-05
7.0997e-05
9.32939e-05
7.26348e-05
7.26703e-05
7.26384e-05
7.26698e-05
9.30178e-05
7.27307e-05
6.85782e-05
7.22052e-05
6.34609e-05
7.22182e-05
6.36659e-05
7.2487e-05
7.26783e-05
6.86404e-05
7.22475e-05
6.34407e-05
6.36326e-05
7.2253e-05
7.24494e-05
7.04371e-05
7.25803e-05
2.6998e-05
3.4102e-05
2.66394e-05
6.34789e-05
5.8407e-05
5.85716e-05
5.49895e-05
5.96038e-05
6.15828e-05
5.33961e-05
6.15609e-05
5.34072e-05
5.49824e-05
5.44489e-05
5.94498e-05
5.31699e-05
6.10091e-05
5.32279e-05
6.10655e-05
5.43333e-05
5.55812e-05
6.3525e-05
6.28188e-05
5.85136e-05
6.29269e-05
5.54144e-05
5.86853e-05
6.42276e-05
5.09071e-05
5.72055e-05
5.71776e-05
5.73753e-05
5.74086e-05
6.40085e-05
3.63789e-05
4.83971e-05
4.76796e-05
5.15741e-05
3.61294e-05
4.97194e-05
4.85912e-05
5.27331e-05
3.59502e-05
5.01555e-05
5.05049e-05
5.29647e-05
3.65093e-05
5.02169e-05
5.08663e-05
5.25037e-05
3.71281e-05
5.02082e-05
5.05464e-05
5.22671e-05
3.75037e-05
5.05497e-05
5.03716e-05
5.28218e-05
4.83504e-05
5.08806e-05
4.80188e-05
4.80574e-05
4.84969e-05
5.01785e-05
4.77591e-05
4.84129e-05
5.12967e-05
5.21524e-05
5.00282e-05
4.86283e-05
4.96979e-05
4.94395e-05
5.11037e-05
5.20756e-05
4.791e-05
4.95554e-05
4.79885e-05
4.89252e-05
4.94818e-05
4.99186e-05
5.01513e-05
5.06834e-05
4.87593e-05
4.79515e-05
4.97416e-05
5.25722e-05
5.21366e-05
5.19658e-05
4.95898e-05
4.96059e-05
4.95005e-05
4.98905e-05
5.22255e-05
5.24999e-05
4.94673e-05
4.83798e-05
4.94392e-05
4.99999e-05
5.01303e-05
5.00957e-05
5.03966e-05
5.10811e-05
5.27456e-05
5.00009e-05
5.01995e-05
5.04152e-05
5.29583e-05
5.20187e-05
5.24583e-05
4.95172e-05
4.99761e-05
4.99811e-05
5.02025e-05
5.25521e-05
5.26061e-05
4.9503e-05
5.0351e-05
5.01121e-05
5.0837e-05
5.0398e-05
5.02193e-05
5.02194e-05
5.2967e-05
5.33073e-05
5.04359e-05
5.08634e-05
5.03293e-05
5.25247e-05
5.25282e-05
5.26206e-05
5.01036e-05
5.02297e-05
5.02959e-05
5.02527e-05
5.26228e-05
5.25553e-05
5.02244e-05
5.08533e-05
5.03487e-05
5.07009e-05
5.01277e-05
5.01941e-05
4.99792e-05
5.3322e-05
5.29121e-05
5.02349e-05
5.06503e-05
5.00495e-05
5.22422e-05
5.26702e-05
5.28002e-05
5.03695e-05
5.02848e-05
5.05523e-05
5.05058e-05
5.25905e-05
5.27778e-05
5.03885e-05
5.06003e-05
5.051e-05
5.04142e-05
4.9981e-05
5.04734e-05
5.03582e-05
5.28939e-05
5.26318e-05
5.00416e-05
5.03785e-05
5.02911e-05
5.26903e-05
5.28276e-05
5.28853e-05
5.05706e-05
5.05603e-05
5.06579e-05
5.06972e-05
5.28311e-05
5.29454e-05
5.05244e-05
5.03971e-05
5.06418e-05
5.05177e-05
5.05347e-05
5.07578e-05
5.09682e-05
5.26424e-05
5.28419e-05
5.04746e-05
5.05898e-05
5.0943e-05
5.32209e-05
5.29668e-05
5.34607e-05
5.07559e-05
5.06834e-05
5.123e-05
5.11569e-05
5.29559e-05
3.40014e-05
3.39819e-05
3.39548e-05
6.81618e-05
7.30236e-05
6.81696e-05
7.2992e-05
7.07055e-05
7.07797e-05
6.78662e-05
6.79156e-05
7.29739e-05
3.42681e-05
3.3918e-05
3.44615e-05
3.62786e-05
3.5367e-05
3.39265e-05
3.57756e-05
5.96849e-05
6.38568e-05
4.31447e-05
4.88108e-05
5.93653e-05
6.41406e-05
4.3544e-05
7.05153e-05
7.06736e-05
5.90407e-05
4.26052e-05
6.29527e-05
4.76687e-05
5.87867e-05
4.2632e-05
6.31631e-05
6.95461e-05
6.94532e-05
5.20172e-05
6.9815e-05
6.97542e-05
6.80592e-05
7.29703e-05
6.80726e-05
7.29947e-05
7.08357e-05
7.086e-05
6.80574e-05
7.29759e-05
6.78976e-05
7.30135e-05
3.57021e-05
3.41104e-05
3.61229e-05
3.5948e-05
3.63559e-05
3.60008e-05
3.67905e-05
6.01132e-05
6.44173e-05
4.45377e-05
4.98925e-05
5.99999e-05
6.4505e-05
4.47494e-05
7.0858e-05
7.094e-05
6.005e-05
4.37005e-05
6.39298e-05
4.92458e-05
5.96876e-05
4.42276e-05
6.43635e-05
7.01123e-05
7.0134e-05
5.28867e-05
7.01557e-05
7.02192e-05
6.82663e-05
7.30538e-05
6.81784e-05
7.30756e-05
7.08732e-05
7.08797e-05
6.84108e-05
7.30669e-05
6.83148e-05
7.30841e-05
3.64879e-05
3.65321e-05
3.68894e-05
3.62737e-05
3.67871e-05
3.74876e-05
3.69486e-05
6.01626e-05
6.45359e-05
4.5086e-05
5.01962e-05
6.01661e-05
6.45224e-05
4.51337e-05
7.09798e-05
7.09773e-05
6.04174e-05
4.53323e-05
6.48045e-05
5.07086e-05
6.03513e-05
4.55151e-05
6.49334e-05
6.99351e-05
7.00148e-05
5.27913e-05
6.97369e-05
6.97845e-05
6.82417e-05
7.30891e-05
6.82687e-05
7.31065e-05
7.08778e-05
7.08899e-05
6.83283e-05
7.30953e-05
6.83951e-05
7.31106e-05
3.68484e-05
3.76079e-05
3.69368e-05
3.70034e-05
3.69549e-05
3.76503e-05
3.68422e-05
5.99909e-05
6.44301e-05
4.51545e-05
5.02051e-05
6.0057e-05
6.43782e-05
4.51424e-05
7.09299e-05
7.09166e-05
6.02208e-05
4.56664e-05
6.48577e-05
5.08485e-05
6.03317e-05
4.56601e-05
6.47103e-05
6.94187e-05
6.94152e-05
5.2317e-05
6.93438e-05
6.93147e-05
6.82807e-05
7.3153e-05
6.82212e-05
7.31814e-05
7.09237e-05
7.09532e-05
6.82363e-05
7.31521e-05
6.82341e-05
7.31833e-05
3.70137e-05
3.76075e-05
3.68358e-05
3.74354e-05
3.73178e-05
3.7427e-05
3.70444e-05
6.00644e-05
6.43732e-05
4.51492e-05
5.02733e-05
5.99613e-05
6.44479e-05
4.52201e-05
7.09089e-05
7.09267e-05
6.00291e-05
4.54783e-05
6.44738e-05
5.04651e-05
6.0048e-05
4.54328e-05
6.43964e-05
6.94388e-05
6.93932e-05
5.23598e-05
6.95575e-05
6.95257e-05
6.82823e-05
7.32062e-05
6.83026e-05
7.32359e-05
7.0984e-05
7.10168e-05
6.82597e-05
7.32092e-05
6.82609e-05
7.32402e-05
3.74277e-05
3.74031e-05
3.72786e-05
3.77179e-05
3.05236e-05
2.11214e-05
2.11852e-05
6.0289e-05
6.44972e-05
4.56337e-05
5.0617e-05
6.02246e-05
6.44957e-05
4.57517e-05
7.09684e-05
7.10121e-05
6.02237e-05
4.54235e-05
6.43665e-05
5.03805e-05
6.01126e-05
4.54823e-05
6.44238e-05
6.97253e-05
6.97257e-05
5.29913e-05
6.98269e-05
6.98408e-05
6.84429e-05
7.3323e-05
6.83164e-05
7.33866e-05
7.10749e-05
7.11189e-05
7.28939e-05
6.37099e-05
7.06907e-05
6.89652e-05
6.91446e-05
7.07302e-05
7.2642e-05
6.29468e-05
6.37806e-05
4.2757e-05
5.92921e-05
7.29134e-05
6.78225e-05
4.2936e-05
6.40464e-05
5.93464e-05
7.30326e-05
6.78709e-05
7.04888e-05
6.79859e-05
6.81992e-05
7.05493e-05
4.26053e-05
6.29675e-05
5.87778e-05
4.28177e-05
6.38948e-05
5.89089e-05
7.26687e-05
6.73554e-05
7.29948e-05
6.75003e-05
6.94537e-05
6.93549e-05
7.08337e-05
7.0824e-05
7.07744e-05
7.07793e-05
5.25104e-05
6.98634e-05
6.97934e-05
7.07566e-05
7.0762e-05
7.07754e-05
7.07724e-05
5.24613e-05
6.95511e-05
6.95689e-05
6.9774e-05
6.97216e-05
6.80515e-05
7.29132e-05
6.79998e-05
7.29925e-05
5.98045e-05
6.47735e-05
4.43772e-05
4.99875e-05
5.97896e-05
6.45778e-05
4.43834e-05
5.96819e-05
6.37809e-05
4.37736e-05
4.89363e-05
5.95856e-05
6.40463e-05
4.39388e-05
6.81437e-05
7.29702e-05
7.29802e-05
6.80965e-05
6.80541e-05
7.30481e-05
7.30038e-05
6.80644e-05
5.97993e-05
4.9847e-05
6.43098e-05
4.43574e-05
6.44946e-05
4.43786e-05
5.97829e-05
5.96951e-05
4.92138e-05
6.42863e-05
4.42207e-05
6.41043e-05
4.40932e-05
5.97435e-05
6.90528e-05
6.92248e-05
5.15354e-05
6.93322e-05
6.94744e-05
7.07421e-05
7.08009e-05
7.08323e-05
7.07884e-05
5.17687e-05
6.95917e-05
6.96947e-05
6.94061e-05
6.95372e-05
7.08398e-05
7.08072e-05
5.94354e-05
4.41907e-05
4.98799e-05
5.94889e-05
6.44806e-05
4.41239e-05
6.76044e-05
7.26686e-05
6.76315e-05
7.28262e-05
5.91349e-05
4.33783e-05
6.29123e-05
4.78743e-05
5.91805e-05
4.3325e-05
6.30213e-05
6.78546e-05
7.29713e-05
7.2968e-05
6.78775e-05
5.94255e-05
4.96972e-05
6.42755e-05
4.39637e-05
6.44125e-05
4.40206e-05
5.94571e-05
6.76113e-05
7.30285e-05
7.28685e-05
6.77517e-05
5.91382e-05
4.78856e-05
4.33176e-05
6.36255e-05
4.33085e-05
6.31384e-05
5.92754e-05
6.80833e-05
7.29328e-05
6.78675e-05
7.30098e-05
5.97423e-05
4.33609e-05
6.41372e-05
4.93121e-05
5.94225e-05
4.3764e-05
6.44311e-05
6.81289e-05
7.30503e-05
6.79167e-05
7.3112e-05
5.97458e-05
4.91762e-05
6.43876e-05
4.42616e-05
6.42027e-05
4.39248e-05
5.99682e-05
6.81165e-05
7.30653e-05
7.30213e-05
6.82512e-05
5.98019e-05
4.96457e-05
4.44471e-05
6.46984e-05
4.41308e-05
6.44968e-05
6.00199e-05
6.81605e-05
7.31468e-05
7.31203e-05
6.82904e-05
6.79818e-05
6.82064e-05
5.00783e-05
6.82943e-05
6.85324e-05
7.05733e-05
7.07118e-05
7.08386e-05
7.07025e-05
5.0175e-05
6.89925e-05
6.91406e-05
6.84441e-05
6.86652e-05
7.08505e-05
7.07359e-05
5.92698e-05
4.30133e-05
6.39868e-05
4.9104e-05
5.89506e-05
4.32571e-05
6.43269e-05
6.76349e-05
7.27e-05
6.73765e-05
7.28633e-05
6.78209e-05
7.30159e-05
6.75426e-05
7.30947e-05
5.9139e-05
4.77137e-05
4.31444e-05
6.37851e-05
4.27562e-05
6.32892e-05
5.95808e-05
5.93634e-05
4.94374e-05
4.39101e-05
6.46763e-05
4.35604e-05
6.44127e-05
5.97622e-05
6.7702e-05
7.30552e-05
7.29053e-05
6.80213e-05
6.78836e-05
7.31484e-05
7.31076e-05
6.81593e-05
7.08425e-05
7.08856e-05
7.08349e-05
7.08883e-05
5.22504e-05
7.00749e-05
7.00787e-05
6.98863e-05
6.984e-05
7.09041e-05
7.08887e-05
7.09171e-05
7.08935e-05
7.07547e-05
7.07789e-05
7.0776e-05
7.08019e-05
6.94934e-05
6.95384e-05
5.19924e-05
6.94228e-05
6.95189e-05
7.08221e-05
7.07841e-05
7.08303e-05
7.08054e-05
5.19992e-05
6.95103e-05
6.96021e-05
6.94227e-05
6.95301e-05
6.80923e-05
7.30533e-05
6.8064e-05
7.30762e-05
5.9763e-05
6.42482e-05
4.43331e-05
4.95255e-05
5.97702e-05
6.41671e-05
4.43221e-05
5.97847e-05
6.43164e-05
4.43126e-05
4.97227e-05
5.97491e-05
6.44183e-05
4.43746e-05
6.80638e-05
7.30477e-05
7.30028e-05
6.81554e-05
6.81056e-05
7.30934e-05
7.30791e-05
6.8205e-05
5.97646e-05
4.95012e-05
6.42311e-05
4.43282e-05
6.41609e-05
4.43214e-05
5.98359e-05
5.97971e-05
4.98104e-05
6.44966e-05
4.44948e-05
6.44332e-05
4.44266e-05
5.98945e-05
6.96327e-05
6.97265e-05
5.23659e-05
6.97281e-05
6.97898e-05
7.08415e-05
7.08563e-05
7.08745e-05
7.08608e-05
5.24435e-05
6.97944e-05
6.97964e-05
6.97492e-05
6.97965e-05
7.08628e-05
7.08555e-05
5.96694e-05
6.4237e-05
4.39506e-05
4.94303e-05
5.94825e-05
6.42086e-05
4.39582e-05
6.80627e-05
7.30622e-05
6.77971e-05
7.31648e-05
5.96607e-05
4.33865e-05
6.37787e-05
4.90021e-05
5.93315e-05
4.36359e-05
6.42683e-05
6.80972e-05
7.30623e-05
7.30223e-05
6.82848e-05
5.97231e-05
4.94263e-05
6.43229e-05
4.41392e-05
6.4214e-05
4.40007e-05
5.99954e-05
6.81196e-05
7.32249e-05
7.31811e-05
6.83399e-05
5.97435e-05
4.95498e-05
4.44592e-05
6.47205e-05
4.4054e-05
6.43905e-05
6.0065e-05
6.83384e-05
7.30704e-05
6.82678e-05
7.30909e-05
6.0165e-05
4.47044e-05
6.47385e-05
5.02791e-05
6.00511e-05
4.48998e-05
6.48283e-05
6.83803e-05
7.31478e-05
6.8307e-05
7.31443e-05
6.01258e-05
5.00127e-05
6.45372e-05
4.50111e-05
6.45141e-05
4.49033e-05
6.01665e-05
6.83456e-05
7.30989e-05
7.30926e-05
6.8369e-05
6.01774e-05
5.03647e-05
4.51231e-05
6.47924e-05
4.50372e-05
6.48316e-05
6.02109e-05
6.83875e-05
7.3105e-05
7.31346e-05
6.84061e-05
6.91616e-05
6.92815e-05
5.18602e-05
6.96337e-05
6.96783e-05
7.08662e-05
7.0936e-05
7.09807e-05
7.09483e-05
5.22371e-05
7.00605e-05
7.00483e-05
6.97571e-05
6.97816e-05
7.09729e-05
7.0943e-05
6.01478e-05
4.42747e-05
6.47328e-05
5.02041e-05
5.985e-05
4.4619e-05
6.48681e-05
6.83153e-05
7.3086e-05
6.80815e-05
7.31787e-05
6.83913e-05
7.31526e-05
6.82059e-05
7.31578e-05
6.0116e-05
4.97831e-05
4.50582e-05
6.47452e-05
4.4688e-05
6.44651e-05
6.03235e-05
6.01982e-05
5.03428e-05
4.51428e-05
6.48667e-05
4.49143e-05
6.48803e-05
6.0351e-05
6.83519e-05
7.32333e-05
7.31933e-05
6.84927e-05
6.84187e-05
7.31251e-05
7.31521e-05
6.85154e-05
7.09008e-05
7.08913e-05
7.09153e-05
7.09088e-05
5.2955e-05
7.00058e-05
7.00938e-05
7.01452e-05
7.02185e-05
7.08533e-05
7.08778e-05
7.08643e-05
7.0895e-05
7.08252e-05
7.08455e-05
7.0831e-05
7.08434e-05
6.95386e-05
6.96146e-05
5.2172e-05
6.95896e-05
6.96275e-05
7.08616e-05
7.0846e-05
7.08543e-05
7.08426e-05
5.23096e-05
6.95768e-05
6.95744e-05
6.95912e-05
6.96233e-05
6.82947e-05
7.30947e-05
6.82239e-05
7.30998e-05
6.00165e-05
6.42658e-05
4.43597e-05
4.95965e-05
5.98649e-05
6.43696e-05
4.44666e-05
6.00551e-05
6.45057e-05
4.45984e-05
5.00658e-05
5.99219e-05
6.45272e-05
4.47374e-05
6.82703e-05
7.30873e-05
7.30772e-05
6.82752e-05
6.82963e-05
7.31001e-05
7.30994e-05
6.82968e-05
6.0041e-05
4.98002e-05
6.43891e-05
4.48996e-05
6.43801e-05
4.46928e-05
6.01019e-05
6.00741e-05
5.01464e-05
6.45011e-05
4.50281e-05
6.45254e-05
4.48902e-05
6.01198e-05
6.98007e-05
6.97848e-05
5.25788e-05
6.97994e-05
6.97433e-05
7.08604e-05
7.08654e-05
7.08802e-05
7.08763e-05
5.26126e-05
6.97198e-05
6.96578e-05
6.97847e-05
6.97188e-05
7.0871e-05
7.0863e-05
6.02328e-05
6.43492e-05
4.44355e-05
4.97008e-05
6.00511e-05
6.44192e-05
4.47428e-05
6.84938e-05
7.32283e-05
6.83798e-05
7.32284e-05
6.0327e-05
4.48315e-05
6.47902e-05
5.06048e-05
6.01302e-05
4.51484e-05
6.49403e-05
6.84157e-05
7.30939e-05
7.30854e-05
6.84155e-05
6.02532e-05
4.99347e-05
6.44192e-05
4.52384e-05
6.44221e-05
4.50185e-05
6.02865e-05
6.85018e-05
7.31888e-05
7.32189e-05
6.8499e-05
6.03497e-05
5.07631e-05
4.55619e-05
6.49365e-05
4.53946e-05
6.49531e-05
6.0383e-05
6.83475e-05
7.30985e-05
6.8367e-05
7.3098e-05
6.01861e-05
4.51656e-05
6.47351e-05
5.03814e-05
6.02089e-05
4.51766e-05
6.45761e-05
6.8359e-05
7.30865e-05
6.84015e-05
7.30549e-05
6.01482e-05
5.02159e-05
6.44577e-05
4.51576e-05
6.45048e-05
4.51548e-05
6.00913e-05
6.83227e-05
7.30942e-05
7.3096e-05
6.82608e-05
6.01562e-05
5.03162e-05
4.51636e-05
6.43343e-05
4.5175e-05
6.45013e-05
6.00793e-05
6.83239e-05
7.30282e-05
7.30417e-05
6.82449e-05
7.01263e-05
7.01072e-05
5.31917e-05
7.02277e-05
7.02008e-05
7.0972e-05
7.09708e-05
7.09434e-05
7.09663e-05
5.32798e-05
7.01388e-05
7.01089e-05
7.02294e-05
7.02018e-05
7.09396e-05
7.09608e-05
6.03838e-05
4.52998e-05
6.48176e-05
5.04333e-05
6.03652e-05
4.53899e-05
6.46429e-05
6.85471e-05
7.3236e-05
6.85113e-05
7.32333e-05
6.85192e-05
7.31058e-05
6.8522e-05
7.30681e-05
6.04158e-05
5.08215e-05
4.56598e-05
6.49155e-05
4.5618e-05
6.49427e-05
6.03778e-05
6.03724e-05
5.04075e-05
4.54288e-05
6.4374e-05
4.54251e-05
6.45589e-05
6.02913e-05
6.85411e-05
7.31888e-05
7.32221e-05
6.8472e-05
6.84909e-05
7.30366e-05
7.30526e-05
6.83917e-05
7.08392e-05
7.08233e-05
7.08462e-05
7.08232e-05
5.27679e-05
6.94713e-05
6.9478e-05
6.96608e-05
6.96968e-05
7.08178e-05
7.08158e-05
7.08115e-05
7.08131e-05
7.08634e-05
7.08923e-05
7.08558e-05
7.08838e-05
6.95671e-05
6.95572e-05
5.2561e-05
6.95679e-05
6.9543e-05
7.09332e-05
7.08974e-05
7.09284e-05
7.08891e-05
5.25982e-05
6.96694e-05
6.96304e-05
6.95848e-05
6.95485e-05
6.82532e-05
7.30992e-05
6.82876e-05
7.31053e-05
6.00951e-05
6.43843e-05
4.50585e-05
5.01792e-05
6.00992e-05
6.43736e-05
4.5168e-05
6.0107e-05
6.44778e-05
4.51331e-05
5.02376e-05
6.01164e-05
6.44223e-05
4.52027e-05
6.82253e-05
7.31461e-05
7.31115e-05
6.82183e-05
6.82334e-05
7.31328e-05
7.31081e-05
6.82199e-05
6.00876e-05
5.02368e-05
6.44137e-05
4.53147e-05
6.43731e-05
4.52464e-05
6.00847e-05
6.00969e-05
5.02421e-05
6.43913e-05
4.52968e-05
6.4403e-05
4.52506e-05
6.00883e-05
6.96936e-05
6.96341e-05
5.25731e-05
6.96313e-05
6.95917e-05
7.08707e-05
7.08895e-05
7.09199e-05
7.08917e-05
5.25843e-05
6.96188e-05
6.96091e-05
6.96201e-05
6.95862e-05
7.09248e-05
7.08926e-05
6.02438e-05
6.44084e-05
4.5391e-05
5.02854e-05
6.0282e-05
6.43829e-05
4.54785e-05
6.83844e-05
7.31707e-05
6.84708e-05
7.31436e-05
6.03148e-05
4.56533e-05
6.48847e-05
5.08465e-05
6.03764e-05
4.56849e-05
6.4735e-05
6.82935e-05
7.31454e-05
7.31148e-05
6.82476e-05
6.02099e-05
5.0318e-05
6.43923e-05
4.55258e-05
6.43763e-05
4.55163e-05
6.01476e-05
6.83411e-05
7.3127e-05
7.31338e-05
6.82773e-05
6.0269e-05
5.0805e-05
4.5675e-05
6.45422e-05
4.56863e-05
6.46675e-05
6.01877e-05
6.81563e-05
7.30933e-05
6.82239e-05
7.3102e-05
5.99564e-05
4.51292e-05
6.42708e-05
5.00504e-05
6.00368e-05
4.50907e-05
6.41624e-05
6.81192e-05
7.30265e-05
6.82003e-05
7.30452e-05
5.99645e-05
5.01946e-05
6.43639e-05
4.51337e-05
6.43627e-05
4.51335e-05
5.99542e-05
6.81352e-05
7.31364e-05
7.31058e-05
6.81352e-05
5.99248e-05
4.99992e-05
4.50591e-05
6.41606e-05
4.50662e-05
6.41427e-05
5.99118e-05
6.80972e-05
7.31086e-05
7.30534e-05
6.81003e-05
7.00776e-05
7.00473e-05
5.31767e-05
6.99212e-05
6.98937e-05
7.09271e-05
7.09159e-05
7.09105e-05
7.091e-05
5.31527e-05
6.97297e-05
6.97111e-05
6.98645e-05
6.98382e-05
7.09126e-05
7.09101e-05
6.01223e-05
4.54226e-05
6.43042e-05
5.015e-05
6.02358e-05
4.53972e-05
6.41774e-05
6.83188e-05
7.31702e-05
6.84194e-05
7.31436e-05
6.82319e-05
7.30339e-05
6.83353e-05
7.3048e-05
6.01668e-05
5.07712e-05
4.55473e-05
6.45217e-05
4.56269e-05
6.46453e-05
6.00796e-05
6.00693e-05
5.00852e-05
4.52946e-05
6.41415e-05
4.53418e-05
6.41481e-05
5.99942e-05
6.82712e-05
7.31275e-05
7.3134e-05
6.82001e-05
6.81855e-05
7.31056e-05
7.30551e-05
6.81307e-05
7.08185e-05
7.08522e-05
7.08112e-05
7.08429e-05
5.23155e-05
6.9412e-05
6.9363e-05
6.93405e-05
6.93059e-05
7.09109e-05
7.08592e-05
7.0905e-05
7.08502e-05
7.09367e-05
7.09611e-05
7.09328e-05
7.09607e-05
6.969e-05
6.96538e-05
5.27221e-05
6.97173e-05
6.96913e-05
7.09791e-05
7.09624e-05
7.09823e-05
7.09625e-05
5.27754e-05
6.96515e-05
6.96432e-05
6.97161e-05
6.96911e-05
6.82699e-05
7.31391e-05
6.82203e-05
7.31741e-05
6.01398e-05
6.44338e-05
4.53915e-05
5.04453e-05
6.00866e-05
6.44973e-05
4.54779e-05
6.01289e-05
6.43945e-05
4.5358e-05
5.03574e-05
6.00868e-05
6.4446e-05
4.54381e-05
6.82918e-05
7.32027e-05
7.31846e-05
6.8308e-05
6.82813e-05
7.32049e-05
7.31795e-05
6.83021e-05
6.01554e-05
5.05112e-05
6.4485e-05
4.5643e-05
6.44991e-05
4.55666e-05
6.02127e-05
6.01444e-05
5.04368e-05
6.44717e-05
4.56129e-05
6.44573e-05
4.55277e-05
6.02071e-05
6.9633e-05
6.96269e-05
5.2642e-05
6.96677e-05
6.96802e-05
7.09292e-05
7.09602e-05
7.09813e-05
7.09557e-05
5.27111e-05
6.96554e-05
6.96876e-05
6.96691e-05
6.96869e-05
7.09885e-05
7.09631e-05
6.01141e-05
6.44049e-05
4.55263e-05
5.04375e-05
6.01255e-05
6.4471e-05
4.55268e-05
6.82345e-05
7.31263e-05
6.82529e-05
7.31395e-05
6.01185e-05
4.56336e-05
6.44919e-05
5.0517e-05
6.0155e-05
4.55858e-05
6.44084e-05
6.82393e-05
7.32054e-05
7.31867e-05
6.82631e-05
6.01118e-05
5.04804e-05
6.44666e-05
4.55537e-05
6.44745e-05
4.55325e-05
6.0135e-05
6.82312e-05
7.31776e-05
7.31443e-05
6.82402e-05
6.01098e-05
5.04546e-05
4.5537e-05
6.4353e-05
4.55539e-05
6.43804e-05
6.0112e-05
6.82341e-05
7.31438e-05
6.81453e-05
7.31819e-05
6.00386e-05
4.50649e-05
6.41842e-05
5.00167e-05
5.99205e-05
4.51083e-05
6.43277e-05
6.82169e-05
7.3121e-05
6.81136e-05
7.31812e-05
6.00916e-05
5.03816e-05
6.44982e-05
4.55069e-05
6.44605e-05
4.5367e-05
6.02087e-05
6.82492e-05
7.32158e-05
7.31878e-05
6.83127e-05
6.00694e-05
5.01576e-05
4.54521e-05
6.44826e-05
4.52586e-05
6.43553e-05
6.02029e-05
6.82347e-05
7.32394e-05
7.31912e-05
6.83111e-05
6.96867e-05
6.96719e-05
5.27247e-05
6.9596e-05
6.95966e-05
7.09118e-05
7.09317e-05
7.0963e-05
7.09297e-05
5.27233e-05
6.9542e-05
6.95664e-05
6.9573e-05
6.95798e-05
7.09686e-05
7.0935e-05
5.99808e-05
4.52673e-05
6.41568e-05
5.00523e-05
5.99736e-05
4.52607e-05
6.42888e-05
6.8174e-05
7.31272e-05
6.81784e-05
7.31439e-05
6.81508e-05
7.31178e-05
6.81217e-05
7.31803e-05
6.00302e-05
5.04083e-05
4.54109e-05
6.43629e-05
4.54126e-05
6.43747e-05
6.00919e-05
5.99946e-05
5.01169e-05
4.53139e-05
6.44632e-05
4.52681e-05
6.43185e-05
6.01066e-05
6.81791e-05
7.31868e-05
7.31495e-05
6.82397e-05
6.81661e-05
7.32427e-05
7.31911e-05
6.82544e-05
7.09187e-05
7.0966e-05
7.09139e-05
7.09662e-05
5.24788e-05
6.9695e-05
6.96893e-05
6.95845e-05
6.95589e-05
7.10155e-05
7.09725e-05
7.10199e-05
7.09736e-05
7.09814e-05
7.10164e-05
7.0985e-05
7.10213e-05
6.96173e-05
6.96144e-05
5.28196e-05
6.95681e-05
6.95791e-05
7.10807e-05
7.1024e-05
7.10848e-05
7.1029e-05
5.28462e-05
6.96722e-05
6.96977e-05
6.95677e-05
6.95812e-05
6.82815e-05
7.32094e-05
6.82975e-05
7.32382e-05
6.02114e-05
6.44635e-05
4.57016e-05
5.05826e-05
6.02118e-05
6.44184e-05
4.57447e-05
6.0212e-05
6.44673e-05
4.56848e-05
5.06021e-05
6.02084e-05
6.44511e-05
4.57424e-05
6.8272e-05
7.33056e-05
7.32451e-05
6.82846e-05
6.82726e-05
7.32921e-05
7.32455e-05
6.82836e-05
6.02068e-05
5.06061e-05
5.99168e-05
4.58459e-05
6.44121e-05
4.5787e-05
5.57837e-05
6.02085e-05
5.06438e-05
5.69152e-05
4.58569e-05
6.44458e-05
4.57953e-05
5.57937e-05
6.96385e-05
6.96798e-05
5.28632e-05
6.96068e-05
6.96539e-05
7.09912e-05
7.10202e-05
7.10683e-05
7.10223e-05
5.29059e-05
6.96393e-05
6.96615e-05
6.96037e-05
6.96488e-05
7.10648e-05
7.10249e-05
6.01635e-05
6.445e-05
4.55858e-05
5.05391e-05
6.01404e-05
6.44174e-05
4.56242e-05
6.82458e-05
7.31854e-05
6.82402e-05