/*--------------------------------*- C++ -*----------------------------------*\
| =========                 |                                                 |
| \\      /  F ield         | OpenFOAM: The Open Source CFD Toolbox           |
|  \\    /   O peration     | Version:  v2006                                 |
|   \\  /    A nd           | Website:  www.openfoam.com                      |
|    \\/     M anipulation  |                                                 |
\*---------------------------------------------------------------------------*/
FoamFile
{
    version     2.0;
    format      ascii;
    class       volScalarField;
    location    "625";
    object      p;
}
// * * * * * * * * * * * * * * * * * * * * * * * * * * * * * * * * * * * * * //

dimensions      [0 2 -2 0 0 0 0];


internalField   nonuniform List<scalar> 
14404
(
0.000749644
0.000749622
0.000751636
0.00074973
0.000751828
0.000751794
0.000751823
0.000751817
0.000749642
0.000751778
0.000751754
0.00075182
0.00075182
0.000751826
0.000751832
0.000751823
0.000751828
0.000751833
0.000751816
0.000751831
0.000751807
0.000751821
0.000751808
0.000747421
0.000751812
0.000751826
0.000747409
0.000747416
0.000751809
0.000747419
0.000751827
0.000751827
0.000751824
0.000747421
0.000747422
0.000747412
0.0007475
0.000751731
0.000751754
0.000747587
0.000747509
0.000751718
0.000747499
0.000749771
0.000747501
0.000751815
0.000747445
0.000747455
0.000747462
0.000751799
0.000751766
0.000751739
0.000751735
0.000751756
0.00075173
0.000738553
0.00073857
0.000738579
0.000738581
0.000738584
0.000738704
0.000738567
0.000738569
0.000738592
0.000740737
0.000738583
0.000740754
0.000740748
0.000738592
0.000742969
0.00074295
0.000738557
0.000738556
0.000742967
0.000742955
0.000738559
0.000742973
0.000738562
0.000742974
0.000742969
0.000738579
0.000742986
0.000747428
0.000742985
0.000742989
0.000742989
0.000738585
0.000738585
0.000742993
0.000742993
0.000738573
0.000742959
0.000738575
0.000742978
0.000738556
0.000742982
0.000738573
0.000742947
0.000742964
0.000738579
0.000742981
0.000738561
0.000742988
0.000738578
0.000742951
0.000747434
0.000747423
0.000747418
0.000747424
0.000747422
0.000747425
0.000747421
0.000747422
0.000747413
0.000747418
0.000747416
0.000747411
0.000747425
0.000747423
0.000742858
0.000742748
0.000738634
0.000738638
0.000738644
0.000742871
0.000742871
0.000742858
0.000742883
0.000738594
0.000738632
0.00074289
0.00074286
0.000738645
0.000742866
0.00073859
0.000742926
0.000738581
0.000742903
0.000742934
0.000738616
0.000742937
0.00073859
0.000742948
0.000747487
0.000747438
0.000747454
0.000747443
0.000747518
0.000747464
0.000747507
0.000747462
0.00103945
0.00104137
0.00104138
0.00103476
0.00103277
0.00104145
0.00103518
0.00103939
0.00105217
0.00103947
0.00105222
0.00105202
0.00103936
0.00103941
0.00105214
0.00105218
0.00105238
0.00103936
0.00105221
0.0010394
0.00105246
0.00105265
0.00103943
0.00105232
0.00104998
0.00103935
0.0010415
0.00105214
0.00105016
0.00103944
0.00105241
0.00105058
0.00104169
0.00105263
0.00105038
0.0010395
0.00105271
0.00105262
0.00105273
0.00105284
0.00105283
0.00105249
0.00103949
0.00105231
0.0010396
0.00105237
0.00104997
0.00103944
0.00104149
0.0010522
0.00105009
0.00103959
0.00105261
0.00105291
0.00103968
0.00105247
0.00105047
0.00104165
0.00105025
0.00105284
0.00103967
0.00105281
0.00105084
0.00105287
0.00105093
0.00105281
0.00105287
0.00105278
0.00105075
0.00105094
0.00105267
0.00105278
0.00105268
0.00105307
0.00105252
0.00105308
0.00105319
0.0010532
0.00105289
0.00105071
0.00105073
0.0010531
0.00105286
0.00105072
0.0010508
0.00105275
0.00105301
0.00105318
0.00105295
0.0010528
0.00105272
0.00105265
0.00105269
0.00105264
0.00105272
0.00103508
0.00103517
0.00103507
0.00103512
0.00103507
0.00106091
0.00105661
0.00106088
0.00105666
0.00103093
0.00103518
0.0010309
0.00103521
0.0010309
0.00104363
0.00104792
0.00104371
0.001048
0.00104788
0.00105214
0.00105215
0.00105212
0.00104792
0.00104793
0.00104355
0.00103931
0.00104361
0.00103937
0.00104361
0.00104356
0.00103933
0.00104359
0.00103935
0.00104366
0.00103944
0.00104367
0.0010436
0.00103936
0.00104787
0.00105213
0.00105214
0.00104789
0.00105209
0.00104789
0.00104788
0.0010479
0.00105219
0.00105218
0.00104794
0.00105213
0.00104795
0.00104793
0.00104361
0.00103942
0.00103944
0.00104365
0.00104366
0.00103938
0.00104803
0.00105238
0.00105232
0.00104807
0.00105234
0.00104807
0.00104803
0.00104365
0.00104362
0.00103937
0.00103938
0.00104364
0.00104798
0.00105223
0.00104794
0.00105224
0.00104796
0.00104369
0.00104371
0.0010394
0.00103939
0.00103939
0.00104372
0.00104368
0.00104816
0.00105246
0.00105251
0.00104814
0.00105251
0.00104813
0.00104817
0.00104825
0.00105263
0.00104827
0.00105261
0.00104825
0.00104378
0.00104375
0.00103942
0.00103943
0.00104376
0.00104378
0.00103943
0.00104831
0.00104838
0.00105277
0.00105281
0.00105281
0.00104835
0.00104838
0.00104842
0.00105274
0.00105278
0.00104833
0.0010484
0.0010528
0.00104833
0.00104844
0.00105284
0.00105286
0.00104841
0.00105284
0.00104841
0.00104847
0.0010484
0.00104818
0.00105243
0.00105253
0.00104822
0.00105247
0.00104816
0.00104824
0.00104379
0.00104375
0.0010395
0.00103954
0.00104376
0.0010481
0.00105231
0.00104805
0.00105234
0.00104806
0.00104387
0.00104388
0.00103956
0.00103963
0.00103958
0.00104384
0.00104392
0.00104841
0.00105265
0.0010527
0.00104832
0.00105271
0.00104835
0.00104839
0.00104858
0.0010529
0.0010486
0.0010529
0.00104857
0.00104406
0.00104398
0.0010397
0.00103974
0.00104401
0.00104404
0.00103975
0.00104841
0.00105284
0.00105281
0.00104841
0.00105283
0.00104843
0.00104839
0.00104842
0.00105284
0.00104844
0.00105284
0.00104842
0.00104835
0.00105277
0.00105276
0.00104838
0.00105276
0.00104836
0.00104836
0.0010483
0.00105269
0.00104828
0.0010527
0.00104828
0.00104873
0.00104883
0.0010532
0.00105324
0.0010532
0.00104884
0.00104887
0.00104875
0.00105308
0.0010529
0.00104872
0.0010486
0.00105305
0.00104876
0.00104878
0.00105322
0.00105299
0.00104882
0.00105309
0.00104886
0.00104868
0.00104884
0.00104872
0.00105307
0.00105304
0.00104866
0.00105309
0.00104872
0.00104867
0.0010488
0.00105314
0.00104882
0.00105315
0.00104878
0.00104856
0.0010529
0.00105298
0.0010486
0.00105294
0.00104855
0.0010486
0.00104847
0.0010528
0.00104843
0.00105283
0.00104843
0.00104824
0.00105262
0.00105264
0.00105264
0.00104823
0.00104825
0.00104829
0.00105263
0.00105272
0.00104825
0.00105267
0.00104834
0.00104823
0.00104833
0.00105269
0.00105276
0.0010483
0.0010527
0.00104839
0.0010483
0.00104825
0.00104834
0.00103082
0.0010309
0.00103079
0.00103499
0.00103508
0.00103081
0.00103502
0.00103081
0.00103074
0.00103082
0.00103503
0.00103514
0.00103086
0.00103506
0.00103088
0.00103078
0.00103084
0.00103513
0.00103515
0.00103511
0.00103087
0.00103089
0.00104343
0.00104341
0.00103939
0.00103937
0.00104349
0.00104349
0.00103936
0.00103081
0.00103491
0.00103489
0.00103082
0.00103488
0.00103081
0.00103078
0.00105012
0.00104175
0.00104166
0.00105054
0.00105043
0.00105106
0.00104221
0.00105079
0.00104196
0.0010507
0.00105095
0.00105094
0.00104218
0.00105053
0.00104177
0.00105049
0.00105071
0.00105085
0.00104207
0.00105103
0.00105108
0.00105094
0.00105097
0.00104224
0.00104793
0.00104807
0.00105206
0.00105206
0.001052
0.00104796
0.00104796
0.00104815
0.00105226
0.00105231
0.00104812
0.00105228
0.00104807
0.00104817
0.00104354
0.00103931
0.00104356
0.00103937
0.00104355
0.00104356
0.0010394
0.00104802
0.00105218
0.00105215
0.00104793
0.00104792
0.00105217
0.00104798
0.00104362
0.00104364
0.00103943
0.00103949
0.00104363
0.00104364
0.00103949
0.00104833
0.00105246
0.00105246
0.00104821
0.00105247
0.00104824
0.00104831
0.00104842
0.00105258
0.00105273
0.00104832
0.00105263
0.00104832
0.00104842
0.00104376
0.00104372
0.0010395
0.00103959
0.00104374
0.00104376
0.0010396
0.00104857
0.00104861
0.00105269
0.00105286
0.00104849
0.00105276
0.00104864
0.00106081
0.00105664
0.00106082
0.00105667
0.0010482
0.00105232
0.00105234
0.00104821
0.00105229
0.00104815
0.00104822
0.0010436
0.00103938
0.00104364
0.00103948
0.00104361
0.00104365
0.00103947
0.00104807
0.00105223
0.00105221
0.001048
0.00104798
0.0010522
0.00104806
0.00104368
0.00104376
0.00103955
0.00103959
0.00104372
0.00104371
0.00103958
0.00104838
0.00105247
0.00105255
0.0010483
0.00105249
0.00104835
0.00104837
0.00104851
0.00105271
0.00105279
0.00104859
0.00105267
0.00104851
0.00104854
0.00104386
0.00104385
0.00103972
0.00103973
0.00104384
0.00104391
0.00103975
0.00104863
0.00105283
0.00105284
0.00104853
0.00105284
0.00104854
0.00104861
0.00104858
0.00105284
0.00105292
0.00104851
0.00105282
0.00104857
0.00104852
0.00104858
0.0010528
0.00105276
0.0010485
0.00105279
0.00104857
0.00104847
0.00104848
0.0010527
0.00105275
0.00104834
0.00105273
0.0010484
0.0010484
0.00104875
0.00104857
0.00105273
0.00105287
0.00104859
0.00105286
0.00104873
0.00104872
0.00105285
0.00105293
0.00104867
0.00105286
0.00104868
0.00104871
0.00104867
0.00105299
0.00105298
0.00104882
0.00105284
0.00104871
0.00104874
0.00104866
0.00105283
0.00105284
0.00104863
0.00105283
0.00104866
0.00104859
0.00104856
0.00105278
0.00105281
0.00104844
0.00105277
0.00104851
0.00104849
0.00104844
0.00104868
0.00105273
0.00105269
0.00105264
0.00104851
0.00104847
0.00103086
0.00103502
0.00103507
0.00103087
0.00103088
0.00103499
0.0010308
0.00105683
0.00105744
0.00105938
0.00105755
0.00105682
0.00105871
0.00105695
0.00105723
0.00105693
0.00105909
0.00105888
0.00105725
0.00105722
0.00105745
0.00105758
0.00105761
0.00105758
0.00106108
0.0010611
0.00105675
0.00105684
0.00106102
0.00106111
0.00105679
0.00106175
0.00106129
0.00106123
0.00105699
0.00105703
0.00106129
0.00106132
0.00105704
0.00106159
0.00106159
0.00105729
0.00106158
0.00105729
0.00106191
0.00105759
0.00105764
0.00106193
0.00106197
0.00105757
0.00106171
0.00106176
0.00105747
0.00105727
0.00106181
0.00106155
0.00105743
0.00106178
0.00106191
0.00105762
0.00105736
0.00106167
0.00106196
0.00105749
0.00106195
0.00106192
0.00105936
0.00105922
0.00105927
0.00106182
0.00105741
0.00106167
0.00106092
0.00106099
0.00105675
0.00105684
0.00106092
0.00106096
0.00105681
0.00106112
0.0010611
0.00105698
0.00105701
0.0010611
0.00106118
0.00105701
0.00106131
0.00106148
0.00105716
0.00105717
0.00106136
0.00105715
0.00106142
0.00106151
0.00106118
0.00105726
0.00105739
0.00106156
0.0010614
0.00105742
0.00103279
0.00103316
0.00103336
0.00103512
0.000998009
0.000997658
0.000998019
0.000999739
0.000962739
0.000962356
0.000962156
0.00096424
0.000926874
0.000926828
0.000926599
0.000928801
0.000891168
0.000891244
0.000891208
0.000893346
0.000855689
0.00085566
0.000855812
0.000857718
0.00104186
0.00103982
0.00104186
0.00104202
0.00104191
0.00103993
0.00104205
0.00104194
0.00103988
0.00100482
0.00103273
0.00103307
0.00100677
0.0010066
0.00103504
0.00100451
0.00103324
0.00100688
0.00100709
0.00103308
0.00100651
0.00100656
0.00103524
0.00100489
0.00103317
0.001007
0.00100668
0.00100455
0.00100006
0.000969485
0.000998053
0.000997797
0.000971604
0.000971336
0.000999739
0.000969236
0.000998144
0.00099817
0.000971577
0.000971231
0.000997715
0.000971198
0.000971155
0.00100005
0.000969073
0.000997804
0.000971078
0.000971113
0.000969059
0.000964638
0.000933588
0.000962702
0.000962471
0.000935734
0.000935731
0.00096443
0.000933683
0.000962638
0.000962277
0.000935647
0.000935474
0.000962287
0.000935725
0.000935678
0.000964238
0.000933448
0.000962223
0.000935475
0.000935604
0.000933613
0.000928735
0.000897955
0.000926755
0.000926799
0.000899982
0.000900071
0.000928845
0.000898069
0.000926681
0.000926569
0.000899965
0.000899984
0.000926809
0.00090014
0.000900185
0.00092862
0.000898023
0.00092674
0.000900045
0.000900162
0.000898155
0.000893141
0.000862494
0.00089109
0.000891178
0.00086448
0.000864521
0.00089324
0.000862488
0.000891097
0.000891151
0.000864526
0.00086464
0.000891306
0.000864541
0.00086457
0.000893219
0.000862627
0.0008913
0.000864667
0.000864626
0.000862542
0.000857698
0.000827212
0.000855644
0.000855658
0.000829233
0.000829184
0.000857674
0.000827135
0.00085569
0.000855801
0.000829249
0.000829273
0.000855674
0.000829149
0.000829112
0.000857823
0.000827186
0.000855727
0.000829235
0.00082913
0.000827083
0.000822424
0.000791854
0.000820444
0.000820417
0.000793913
0.000793888
0.000822381
0.00104209
0.00104187
0.00104223
0.00102203
0.00103504
0.00103504
0.00102211
0.00103503
0.00102185
0.00102226
0.00103526
0.00102225
0.00103335
0.00103322
0.00103342
0.00100672
0.00100681
0.00100715
0.00100688
0.00102196
0.00103508
0.00103328
0.00102427
0.0010351
0.00102188
0.0010244
0.00103553
0.00102226
0.00102229
0.00103337
0.00103554
0.00102464
0.0010354
0.00102466
0.0010223
0.001035
0.00103507
0.00102224
0.0010218
0.00102186
0.00098696
0.00100027
0.00100014
0.000987059
0.000999897
0.000986737
0.000986904
0.00100032
0.00100023
0.000987029
0.000997947
0.000998393
0.000998002
0.000971622
0.000971364
0.000971539
0.000971279
0.000986673
0.000999744
0.000997755
0.000988836
0.000999753
0.000986631
0.000988901
0.000999887
0.000986497
0.000986628
0.000998102
0.000999792
0.000989008
0.000999854
0.000989121
0.00098648
0.00099976
0.000999773
0.000986808
0.000986582
0.000986565
0.000951347
0.00096477
0.000964723
0.000951367
0.000964622
0.00095133
0.000951154
0.000964639
0.000964516
0.000951238
0.000962496
0.000962541
0.000962366
0.000935877
0.000935776
0.00093559
0.000935637
0.000951339
0.000964507
0.000962345
0.000953495
0.000964473
0.000951323
0.000953474
0.000964248
0.000951005
0.000951138
0.000962206
0.000964208
0.00095325
0.000964292
0.000953298
0.000951028
0.000964564
0.000964518
0.000951326
0.000951342
0.000951297
0.000915643
0.000928983
0.000928992
0.000915619
0.000929059
0.00091572
0.000915585
0.000928905
0.000928871
0.000915583
0.000926853
0.000926666
0.000926748
0.000900061
0.00090014
0.000899983
0.000900144
0.000915819
0.000929049
0.000926821
0.000917931
0.000929016
0.000915788
0.000917938
0.000928892
0.00091566
0.000915723
0.000926631
0.00092886
0.000917734
0.00092886
0.000917768
0.000915698
0.000929154
0.000929122
0.00091589
0.000915816
0.000915799
0.000880039
0.000893314
0.000893344
0.000880031
0.000893403
0.000880086
0.000880127
0.000893351
0.000893387
0.000880086
0.000891264
0.000891125
0.000891283
0.000864533
0.000864609
0.000864623
0.000864725
0.00088017
0.000893418
0.000891284
0.000882343
0.000893418
0.000880126
0.000882392
0.000893507
0.000880246
0.000880261
0.000891218
0.000893482
0.000882366
0.000893435
0.000882373
0.000880265
0.00089348
0.000893493
0.000880374
0.000880099
0.000880125
0.000844672
0.000857917
0.000857883
0.000844697
0.000857915
0.000844681
0.000844725
0.000857967
0.000857963
0.000844729
0.000855736
0.000855794
0.000855848
0.000829315
0.000829274
0.00082931
0.000829341
0.000844643
0.000857836
0.000855696
0.000846801
0.000857789
0.000844645
0.000846829
0.000858047
0.000844756
0.000844719
0.000855822
0.000857977
0.000846959
0.000857904
0.000846966
0.00084473
0.000857821
0.000857841
0.000844778
0.00084455
0.00084456
0.000809315
0.000822556
0.000822564
0.000809299
0.00082254
0.000809289
0.00103946
0.00103951
0.00103946
0.00103946
0.00103951
0.00103951
0.00103989
0.00103989
0.00103961
0.00104213
0.00103967
0.00103955
0.00103955
0.0010421
0.0010395
0.00103965
0.00103944
0.00103953
0.00103996
0.00103995
0.00104002
0.00104002
0.00104206
0.00104004
0.00103992
0.00104207
0.00103963
0.00103987
0.00104
0.00103987
0.00103961
0.0010398
0.00103943
0.00103949
0.00103942
0.00103953
0.00102219
0.00102226
0.0010222
0.00102219
0.00102223
0.00100476
0.00101783
0.00100479
0.0010179
0.0010175
0.00100475
0.00100479
0.00101783
0.00101788
0.001022
0.00103505
0.00103505
0.00102191
0.00102206
0.00103497
0.00103282
0.00102409
0.00103496
0.00102212
0.00102413
0.00102205
0.00103502
0.00103298
0.00102425
0.001035
0.00102194
0.00102422
0.00101764
0.00100468
0.00101775
0.00100456
0.0010176
0.00100438
0.00101751
0.00100451
0.00101756
0.00101544
0.0010047
0.0010067
0.0010177
0.00101542
0.00100459
0.00101754
0.00101543
0.00100439
0.00100668
0.00101746
0.00101546
0.00100455
0.00103502
0.00103505
0.00102215
0.00102183
0.0010218
0.00103504
0.0010218
0.00100431
0.00101744
0.00101738
0.00100427
0.0010042
0.00101742
0.00101737
0.0010042
0.00101736
0.00102228
0.00103288
0.00102417
0.00103514
0.00102223
0.00102426
0.00102228
0.00103549
0.00103532
0.0010223
0.00102233
0.00103304
0.00103544
0.00102458
0.00103521
0.0010244
0.00102236
0.00101786
0.00100476
0.00101788
0.00100469
0.00101778
0.00101554
0.00100479
0.0010069
0.00101781
0.0010156
0.00100476
0.00101787
0.0010045
0.00101784
0.00100465
0.00101782
0.00101588
0.00100703
0.00100456
0.00101573
0.00101784
0.00100476
0.00102185
0.00103508
0.00103509
0.00102182
0.00102196
0.00103324
0.001035
0.00102424
0.00103509
0.00102436
0.00102185
0.00102185
0.001035
0.00103508
0.0010218
0.0010174
0.00101538
0.00100423
0.00100663
0.00101737
0.00101551
0.0010043
0.00101741
0.00100419
0.00101738
0.00100421
0.0010174
0.0010154
0.0010066
0.00100423
0.00101548
0.00101735
0.0010043
0.00101741
0.00100419
0.00101737
0.00100422
0.00103553
0.00103558
0.00102258
0.00102226
0.00102223
0.00103557
0.00102221
0.00100439
0.00101778
0.00101785
0.00100438
0.00100429
0.00101778
0.00101774
0.00100426
0.0010177
0.00102223
0.00103332
0.00103514
0.00102437
0.00103534
0.00102455
0.00102199
0.00102214
0.00103555
0.00103542
0.0010222
0.00102209
0.00103518
0.00103536
0.00102194
0.0010177
0.00101587
0.00100704
0.00100437
0.00101588
0.00101774
0.00100446
0.00101765
0.00101554
0.00100687
0.00100429
0.00101574
0.00101748
0.00100443
0.00101766
0.00100427
0.0010177
0.00100431
0.00101762
0.00100424
0.00101749
0.0010043
0.00103499
0.0010218
0.0010351
0.00102187
0.00101746
0.00100418
0.0010042
0.00101738
0.00101742
0.00100419
0.00101737
0.00100421
0.00101743
0.00100034
0.000987095
0.00100036
0.000987071
0.00100034
0.00100036
0.000987242
0.000987093
0.000987087
0.000969263
0.000982626
0.000969194
0.000982584
0.000982434
0.000969262
0.000969214
0.00098263
0.000982613
0.00098691
0.000999972
0.00100009
0.000986802
0.000987018
0.00100023
0.000997955
0.000989281
0.00100007
0.000987093
0.000989188
0.000986968
0.000999914
0.000997896
0.000988989
0.00100002
0.000986811
0.000989107
0.000982508
0.000969262
0.000982602
0.000969225
0.00098246
0.000969106
0.000982376
0.000969167
0.000982465
0.000980462
0.000969313
0.000971549
0.000982576
0.000980388
0.000969307
0.000982416
0.000980172
0.000969133
0.000971472
0.000982319
0.000980303
0.000969259
0.000999864
0.000999787
0.000986894
0.000986705
0.000986628
0.000999778
0.000986628
0.000969075
0.000982297
0.000982117
0.00096906
0.00096901
0.000982284
0.000982213
0.000969018
0.000982206
0.000987022
0.0010003
0.000998153
0.00098934
0.0010002
0.000987095
0.000989347
0.000986827
0.001
0.00100018
0.000986614
0.000986959
0.000998246
0.001
0.000989181
0.00100019
0.000989379
0.000986664
0.000982406
0.000969142
0.00098254
0.000969018
0.000982422
0.000980482
0.000969212
0.000971591
0.000982554
0.000980492
0.00096914
0.000982327
0.000968787
0.000982127
0.000968952
0.000982349
0.000980195
0.000971484
0.00096883
0.000980442
0.00098211
0.000969071
0.000986606
0.000999768
0.00099978
0.0009866
0.000986674
0.000997734
0.000999737
0.000988866
0.000999757
0.000988876
0.000986619
0.000986606
0.000999764
0.000999783
0.000986596
0.000982127
0.000980023
0.000969008
0.000971203
0.000982145
0.00098006
0.000969029
0.000982172
0.000968985
0.000982177
0.00096898
0.000982125
0.000980015
0.000971174
0.000969003
0.000980015
0.000982129
0.000969026
0.000982172
0.000969
0.000982174
0.000968979
0.000999876
0.000999781
0.00098695
0.000986475
0.000986402
0.000999755
0.000986394
0.000968716
0.000982016
0.00098211
0.000968696
0.000968655
0.000982002
0.000981936
0.000968661
0.000981925
0.000986637
0.000997964
0.000999783
0.000988905
0.00099984
0.000989029
0.000986599
0.000986506
0.000999768
0.000999817
0.000986414
0.000986527
0.00099979
0.000999819
0.000986549
0.000982042
0.00098003
0.00097117
0.000968723
0.000980141
0.000981945
0.000968865
0.000982056
0.000980007
0.000971149
0.000968914
0.000980089
0.000982091
0.000968887
0.000982038
0.000968682
0.000981949
0.000968779
0.000982063
0.000968886
0.000982106
0.000968811
0.000999763
0.000986598
0.000999767
0.00098656
0.000981994
0.000968986
0.000968941
0.000982164
0.000982137
0.00096901
0.000982176
0.000968943
0.000982126
0.000964763
0.000951351
0.000964689
0.000951282
0.000964764
0.000964712
0.000951549
0.000951337
0.000951288
0.000933456
0.000946846
0.000933407
0.00094678
0.000946669
0.000933438
0.000933402
0.000946839
0.000946792
0.000951338
0.000964643
0.000964691
0.000951328
0.000951429
0.000964752
0.000962677
0.000953744
0.000964708
0.000951398
0.000953766
0.000951408
0.000964609
0.000962605
0.000953577
0.000964667
0.000951358
0.000953697
0.000946847
0.000933474
0.000946866
0.000933485
0.000946844
0.000933513
0.000946851
0.000933492
0.00094681
0.000944732
0.000933493
0.000935813
0.000946829
0.000944804
0.000933536
0.0009468
0.000944659
0.000933535
0.00093579
0.000946818
0.00094475
0.00093354
0.000964614
0.000964574
0.000951491
0.000951322
0.000951313
0.000964576
0.000951328
0.000933537
0.000946859
0.000946659
0.000933531
0.000933552
0.000946857
0.000946859
0.000933576
0.00094687
0.000951238
0.000964639
0.000962638
0.000953658
0.00096452
0.000951283
0.000953643
0.00095111
0.000964316
0.000964456
0.000951029
0.000951194
0.000962508
0.000964294
0.000953324
0.000964457
0.000953516
0.000951057
0.000946673
0.000933385
0.000946746
0.000933346
0.000946632
0.000944648
0.000933407
0.000935631
0.000946722
0.000944628
0.000933391
0.000946634
0.000933322
0.000946574
0.000933332
0.000946594
0.000944387
0.000935562
0.000933324
0.000944528
0.000946536
0.000933361
0.000951306
0.00096455
0.000964535
0.000951314
0.000951337
0.000962315
0.000964511
0.000953418
0.000964469
0.000953445
0.000951353
0.000951311
0.000964573
0.000964536
0.000951355
0.000946769
0.000944616
0.00093358
0.000935704
0.000946806
0.000944591
0.000933598
0.000946849
0.000933578
0.000946861
0.000933577
0.000946769
0.000944549
0.000935695
0.000933628
0.000944571
0.000946841
0.0009336
0.000946856
0.00093363
0.000946907
0.000933584
0.000964243
0.000964212
0.000951241
0.000950989
0.000950979
0.000964214
0.000951
0.000933335
0.000946558
0.000946409
0.000933317
0.000933331
0.000946551
0.000946545
0.000933367
0.000946561
0.000951165
0.000962232
0.000964412
0.000953344
0.000964316
0.000953334
0.000951248
0.000951092
0.000964237
0.000964323
0.000951017
0.000951127
0.000964452
0.000964358
0.000951237
0.00094657
0.000944351
0.000935508
0.000933358
0.000944406
0.000946523
0.000933424
0.000946598
0.000944472
0.000935557
0.000933542
0.000944443
0.00094674
0.000933455
0.000946641
0.000933376
0.000946581
0.000933415
0.000946678
0.000933534
0.000946793
0.000933446
0.00096458
0.000951366
0.000964511
0.000951302
0.000946516
0.000933616
0.000933581
0.000946898
0.000946857
0.000933638
0.000946915
0.000933591
0.000946854
0.000928962
0.000915596
0.00092892
0.000915581
0.000928952
0.000928918
0.000915734
0.000915582
0.000915566
0.000897775
0.000911105
0.000897793
0.000911103
0.000910906
0.000897765
0.000897775
0.000911104
0.000911095
0.000915657
0.000929035
0.000929
0.000915694
0.000915685
0.000928939
0.000926825
0.000917808
0.000928931
0.000915635
0.00091787
0.000915697
0.000928992
0.00092683
0.000917873
0.000928937
0.000915712
0.000917894
0.000911156
0.000897788
0.000911137
0.000897825
0.00091117
0.000897867
0.000911213
0.00089784
0.000911089
0.000908885
0.000897812
0.000900036
0.000911092
0.000908943
0.000897872
0.000911103
0.00090897
0.000897892
0.000900058
0.000911171
0.000908967
0.000897887
0.000929059
0.000929086
0.000915868
0.000915714
0.000915747
0.000929102
0.000915769
0.000897887
0.000911236
0.000911038
0.000897884
0.000897915
0.000911237
0.000911272
0.000897928
0.000911285
0.000915607
0.000928857
0.000926663
0.00091775
0.000928802
0.000915594
0.000917736
0.000915592
0.000928875
0.000928862
0.000915627
0.000915606
0.000926616
0.000928814
0.000917685
0.00092878
0.000917708
0.000915629
0.00091112
0.000897813
0.000911114
0.00089785
0.000911034
0.000908847
0.000897827
0.000899964
0.000911063
0.000908836
0.000897879
0.000911129
0.000897921
0.000911177
0.000897866
0.000911036
0.000908826
0.000899961
0.000897927
0.000908825
0.000911118
0.000897889
0.000915792
0.00092911
0.000929105
0.000915781
0.000915826
0.000926821
0.000929101
0.000917939
0.000929017
0.000917948
0.000915843
0.000915798
0.000929163
0.000929112
0.000915829
0.000911233
0.000909036
0.000897964
0.000900169
0.000911248
0.000909055
0.000898014
0.000911307
0.000897942
0.0009113
0.00089796
0.00091124
0.000909065
0.000900192
0.000898007
0.000909071
0.000911301
0.000898023
0.000911314
0.000897972
0.000911345
0.000897966
0.000928883
0.000928904
0.000915701
0.000915648
0.000915679
0.00092893
0.000915708
0.00089796
0.00091121
0.000910898
0.00089795
0.000897983
0.000911206
0.00091124
0.000898006
0.00091126
0.000915745
0.000926684
0.000929023
0.000917883
0.000928889
0.000917822
0.000915799
0.000915718
0.000928941
0.000928964
0.000915709
0.000915734
0.000929082
0.000928991
0.000915791
0.000911158
0.000908885
0.000900062
0.000897998
0.000908912
0.000911191
0.000898007
0.000911176
0.000909025
0.000900113
0.000898014
0.000908967
0.000911267
0.000898018
0.000911258
0.000897999
0.000911262
0.000897986
0.00091127
0.000897992
0.00091132
0.000897986
0.000929166
0.000915829
0.000929128
0.00091581
0.000911079
0.000897968
0.000897974
0.000911339
0.000911327
0.00089797
0.000911342
0.000897984
0.000911332
0.000893305
0.000880041
0.000893328
0.000880074
0.000893302
0.000893316
0.000880206
0.00088003
0.00088005
0.000862381
0.000875594
0.000862411
0.000875628
0.000875399
0.000862363
0.000862385
0.000875591
0.000875613
0.00088005
0.000893387
0.000893358
0.000880065
0.000880094
0.000893277
0.000891143
0.000882199
0.000893287
0.000880046
0.000882255
0.000880106
0.000893351
0.000891163
0.000882289
0.000893301
0.000880088
0.000882275
0.000875572
0.000862354
0.000875582
0.00086233
0.000875583
0.00086235
0.000875606
0.000862331
0.000875516
0.000873333
0.000862357
0.0008645
0.000875533
0.00087337
0.00086236
0.000875528
0.000873401
0.000862358
0.000864514
0.000875562
0.00087339
0.000862365
0.000893407
0.000893435
0.000880268
0.000880075
0.000880088
0.00089344
0.0008801
0.000862363
0.00087562
0.00087544
0.000862345
0.000862337
0.000875616
0.000875624
0.000862347
0.000875628
0.000880165
0.000893304
0.000891105
0.000882235
0.000893312
0.000880093
0.000882254
0.000880148
0.00089347
0.000893405
0.000880204
0.000880183
0.000891112
0.000893415
0.000882317
0.000893324
0.000882271
0.000880219
0.000875668
0.000862408
0.00087564
0.000862417
0.000875599
0.000873375
0.000862407
0.000864566
0.000875583
0.000873408
0.000862452
0.000875689
0.000862485
0.000875753
0.000862437
0.000875618
0.000873479
0.000864598
0.0008625
0.000873434
0.000875705
0.000862474
0.000880101
0.000893454
0.000893465
0.000880099
0.000880175
0.000891314
0.000893452
0.000882409
0.000893428
0.000882428
0.000880131
0.000880101
0.000893476
0.00089347
0.000880096
0.000875573
0.000873439
0.000862354
0.000864585
0.000875589
0.000873491
0.000862364
0.000875614
0.000862334
0.000875626
0.00086231
0.000875575
0.000873494
0.000864607
0.000862313
0.000873522
0.000875582
0.000862361
0.000875612
0.000862287
0.000875611
0.000862303
0.000893504
0.000893534
0.00088033
0.000880233
0.000880251
0.000893547
0.000880264
0.000862507
0.000875784
0.000875524
0.000862496
0.000862493
0.000875781
0.000875795
0.000862498
0.000875799
0.000880258
0.00089126
0.000893476
0.000882429
0.000893443
0.000882408
0.000880187
0.000880216
0.000893541
0.000893516
0.00088025
0.000880203
0.000893511
0.000893513
0.00088016
0.000875682
0.000873519
0.000864674
0.000862506
0.000873525
0.000875742
0.000862486
0.000875675
0.000873535
0.000864683
0.000862369
0.00087355
0.000875643
0.000862465
0.000875739
0.000862478
0.000875784
0.000862425
0.000875722
0.000862346
0.000875679
0.000862401
0.000893476
0.000880102
0.000893497
0.000880141
0.000875541
0.000862281
0.000862304
0.000875618
0.000875646
0.000862288
0.000875615
0.000862321
0.000875655
0.000857941
0.000844714
0.000857968
0.000844731
0.000857932
0.000857952
0.000844832
0.0008447
0.000844714
0.000827002
0.000840266
0.000827003
0.000840278
0.000840046
0.000826994
0.000826996
0.00084026
0.000840271
0.000844669
0.000857906
0.000857883
0.00084468
0.000844695
0.000857856
0.000855649
0.000846828
0.000857801
0.000844703
0.000846822
0.000844693
0.000857849
0.000855655
0.000846815
0.000857803
0.000844683
0.00084682
0.00084023
0.000827008
0.000840256
0.000827016
0.000840227
0.00082701
0.00084024
0.000827013
0.000840148
0.000838025
0.000827064
0.000829225
0.000840204
0.000838016
0.000827119
0.000840145
0.000837992
0.000827066
0.000829209
0.000840183
0.000838006
0.000827105
0.000857903
0.00085789
0.000844775
0.000844659
0.000844638
0.000857894
0.000844649
0.000826999
0.000840236
0.000839983
0.000826984
0.000826964
0.000840222
0.0008402
0.000826973
0.000840202
0.00084476
0.000857905
0.000855732
0.000846866
0.000857888
0.000844737
0.000846906
0.000844733
0.000858031
0.00085798
0.000844755
0.000844773
0.000855765
0.000857985
0.000846966
0.000857909
0.000846941
0.000844773
0.000840272
0.000827012
0.00084028
0.000827022
0.000840202
0.000838053
0.000827042
0.000829283
0.000840232
0.000838092
0.000827082
0.000840277
0.000827013
0.000840295
0.000827021
0.000840213
0.000838126
0.000829295
0.000827038
0.00083812
0.000840253
0.00082708
0.000844597
0.00085788
0.000857845
0.000844629
0.000844637
0.000855703
0.000857787
0.000846803
0.000857786
0.000846831
0.000844586
0.000844588
0.000857825
0.000857838
0.000844565
0.000840086
0.000837964
0.000826981
0.000829161
0.00084014
0.000837985
0.00082704
0.000840148
0.000826958
0.000840185
0.000826937
0.00084008
0.000837949
0.000829143
0.000826937
0.000837979
0.00084008
0.000827021
0.000840139
0.000826919
0.000840122
0.00082693
0.000858041
0.000858032
0.000844918
0.000844741
0.000844718
0.000858028
0.00084472
0.000826999
0.000840289
0.000840111
0.000826986
0.000826965
0.000840282
0.000840256
0.000826971
0.000840251
0.000844698
0.000855803
0.000857839
0.000846846
0.000857881
0.000846926
0.000844616