/*--------------------------------*- C++ -*----------------------------------*\
| =========                 |                                                 |
| \\      /  F ield         | OpenFOAM: The Open Source CFD Toolbox           |
|  \\    /   O peration     | Version:  v2006                                 |
|   \\  /    A nd           | Website:  www.openfoam.com                      |
|    \\/     M anipulation  |                                                 |
\*---------------------------------------------------------------------------*/
FoamFile
{
    version     2.0;
    format      ascii;
    class       volVectorField;
    location    "500";
    object      U;
}
// * * * * * * * * * * * * * * * * * * * * * * * * * * * * * * * * * * * * * //

dimensions      [0 1 -1 0 0 0 0];


internalField   nonuniform List<vector> 
14314
(
(-1.48916e-05 -1.72551e-05 0.111934)
(5.30024e-06 2.72345e-06 0.107467)
(3.69969e-06 2.91166e-06 0.107461)
(-2.39823e-05 -2.6246e-05 0.104431)
(-3.77273e-05 -3.38293e-05 0.112007)
(9.18018e-05 -5.542e-05 0.107742)
(-6.20267e-05 9.5583e-05 0.107741)
(4.22002e-05 4.5565e-05 0.104758)
(-2.32527e-05 -2.54555e-05 0.104419)
(-2.27834e-06 -1.10895e-05 0.10743)
(8.14429e-06 -1.00869e-05 0.107435)
(2.72026e-05 -2.19447e-05 0.10443)
(-9.10921e-06 -5.35761e-06 0.107432)
(-7.7426e-06 4.13351e-06 0.107431)
(1.62524e-05 -1.54334e-06 0.107436)
(1.68264e-05 1.12804e-06 0.107444)
(-2.00835e-05 2.43853e-05 0.104419)
(1.54285e-06 1.29106e-05 0.107431)
(5.08658e-06 1.37389e-05 0.107446)
(2.28116e-05 1.95914e-05 0.104448)
(2.05359e-05 1.90254e-05 0.104406)
(-6.50431e-05 -6.19957e-05 0.104406)
(2.43384e-06 -3.01924e-06 0.10746)
(-2.01019e-06 -3.15901e-06 0.107465)
(-5.11479e-05 -6.99448e-05 0.107483)
(3.79005e-05 -7.02381e-05 0.107481)
(-1.89499e-05 2.14186e-05 0.104416)
(5.36198e-05 -6.15532e-05 0.104399)
(-1.79129e-06 8.20488e-07 0.107462)
(-1.18463e-06 -3.48707e-06 0.107459)
(-7.22206e-05 -4.74621e-05 0.107485)
(-7.31059e-05 4.50142e-05 0.10748)
(4.72191e-06 -9.43937e-06 0.107475)
(6.36203e-05 -4.71739e-05 0.107486)
(6.18791e-05 3.99031e-05 0.107481)
(2.25234e-05 -2.0669e-05 0.104404)
(-6.73177e-05 5.9695e-05 0.104401)
(-7.34278e-06 2.81668e-06 0.107476)
(-5.40156e-05 6.67563e-05 0.107484)
(3.59443e-05 6.45483e-05 0.107481)
(5.2607e-05 5.61088e-05 0.104386)
(-5.2193e-05 -4.92289e-05 0.104781)
(-5.95434e-05 -9.82945e-05 0.107741)
(4.76471e-05 -9.79381e-05 0.107738)
(4.15398e-05 -4.8571e-05 0.104772)
(-0.000100732 -5.58929e-05 0.107742)
(-0.000101526 5.44559e-05 0.107738)
(2.4987e-05 -3.29805e-05 0.112008)
(-3.90146e-05 3.10448e-05 0.112007)
(2.43656e-05 2.83862e-05 0.112008)
(9.04929e-05 5.18501e-05 0.107735)
(-5.43044e-05 4.75054e-05 0.104777)
(4.79767e-05 9.32823e-05 0.107735)
(8.27497e-06 -6.16922e-06 0.0919885)
(-1.13204e-06 2.63693e-05 0.0832717)
(-1.6153e-05 4.78182e-05 0.0722625)
(-6.37237e-06 5.85067e-06 0.0919908)
(2.65015e-05 -1.83866e-06 0.0832741)
(-7.86427e-07 -3.09218e-06 0.111855)
(8.80448e-06 -2.00212e-06 0.111855)
(1.26116e-06 4.61804e-06 0.111854)
(9.84758e-06 6.63285e-06 0.111856)
(1.40021e-05 7.35122e-06 0.0989485)
(1.89555e-05 -4.45982e-06 0.107431)
(3.80947e-06 1.94421e-05 0.0936655)
(1.1191e-05 2.86042e-06 0.109643)
(4.8548e-05 -1.51873e-05 0.0722678)
(1.12292e-05 1.41254e-05 0.0989524)
(1.15667e-07 1.64334e-05 0.107434)
(7.58709e-06 9.88772e-06 0.109645)
(1.916e-05 4.08227e-06 0.0936662)
(4.60085e-05 4.2445e-05 0.10446)
(2.60152e-06 -2.36069e-05 0.0883231)
(-2.1773e-05 1.28351e-06 0.0883229)
(1.38239e-06 -3.96953e-06 0.0921297)
(-1.62584e-05 -4.04637e-05 0.0820218)
(-1.20284e-05 -6.30091e-06 0.0918244)
(1.47792e-05 5.50581e-05 0.0837963)
(4.57121e-05 -8.23996e-05 0.0717067)
(-7.1424e-05 0.000111227 0.0724156)
(-3.39413e-06 5.24293e-06 0.0921278)
(-4.14838e-05 -1.41432e-05 0.0820221)
(-5.80726e-06 -1.03254e-05 0.0918249)
(5.36988e-05 1.79167e-05 0.0837957)
(2.05338e-05 -1.67295e-05 0.111934)
(-1.36237e-05 1.69338e-05 0.111933)
(1.91611e-05 1.62205e-05 0.111936)
(-3.9229e-05 -3.7231e-05 0.111852)
(2.92018e-05 -3.6398e-05 0.111853)
(-4.01235e-05 3.30738e-05 0.111852)
(2.56409e-05 2.78655e-05 0.111854)
(1.65607e-05 -4.49675e-06 0.0989402)
(1.4765e-05 -2.66907e-05 0.0933497)
(2.32753e-05 -7.2184e-06 0.109686)
(2.64783e-05 -3.31457e-05 0.107444)
(1.21163e-05 -7.18747e-06 0.0990032)
(-1.51721e-05 -3.76139e-06 0.0938007)
(1.66121e-05 -7.21556e-06 0.109639)
(-8.06198e-05 4.92536e-05 0.0717049)
(0.000111501 -6.97463e-05 0.0724094)
(-7.47515e-06 1.51373e-05 0.0989361)
(-4.71858e-06 2.03922e-05 0.109685)
(-2.89791e-05 1.17318e-05 0.0933451)
(-3.45313e-05 2.54143e-05 0.107437)
(-7.49264e-06 1.06963e-05 0.0990003)
(-8.13419e-06 1.52288e-05 0.109637)
(-6.03958e-06 -1.88947e-05 0.093794)
(1.49466e-05 4.27069e-05 0.0877538)
(4.06005e-05 1.5971e-05 0.0877524)
(3.25169e-05 3.30156e-05 0.104402)
(-2.80814e-05 -3.20404e-05 0.088597)
(-3.5109e-05 -2.6123e-05 0.0885961)
(-5.69565e-06 -5.66152e-05 0.0938097)
(-0.000123921 -0.000200364 0.0816758)
(-1.82822e-05 -9.24919e-05 0.0917218)
(-0.000261288 -0.000110973 0.0864532)
(0.000251669 -0.000434384 0.0722728)
(0.000141803 -0.000199766 0.0809946)
(-5.79426e-05 -7.53065e-06 0.0938106)
(-0.000200554 -0.000123697 0.0816746)
(-9.31101e-05 -1.6265e-05 0.0917186)
(-0.00010996 -0.00026381 0.086455)
(-1.79084e-05 -1.44942e-05 0.116239)
(-2.23803e-05 -4.69685e-05 0.114102)
(-5.04655e-05 -1.80847e-05 0.114103)
(-3.60209e-05 -3.26522e-05 0.111442)
(-2.16798e-05 -1.81196e-05 0.116208)
(-1.66861e-05 -4.27163e-05 0.113801)
(-4.61168e-05 -1.27587e-05 0.113802)
(5.75839e-05 1.30293e-05 0.0991416)
(0.000133078 -2.922e-05 0.0936204)
(8.40686e-05 -2.9994e-06 0.109806)
(3.02725e-05 5.27815e-06 0.1079)
(9.2788e-05 -1.60969e-05 0.0993383)
(0.000112777 -4.98477e-05 0.0937245)
(7.97219e-05 -3.27038e-06 0.110321)
(-0.000436329 0.000246887 0.0722719)
(-0.000203595 0.000136328 0.0809959)
(1.19911e-05 5.93536e-05 0.0991421)
(-9.58756e-06 8.7348e-05 0.109803)
(-2.89049e-05 0.000133644 0.0936197)
(1.18265e-06 3.45008e-05 0.107904)
(-2.01023e-05 9.30293e-05 0.0993357)
(-7.64465e-06 8.30999e-05 0.110319)
(-4.58378e-05 0.000117007 0.0937336)
(0.000275901 6.60355e-05 0.0878437)
(6.51675e-05 0.000276687 0.0878418)
(2.83838e-05 3.1338e-05 0.105002)
(0.000107537 -2.85347e-05 0.0908054)
(-2.70215e-05 0.000106962 0.0908056)
(1.49945e-05 4.90447e-05 0.0722663)
(4.90653e-05 1.42295e-05 0.0722679)
(-3.40084e-05 -3.65915e-05 0.104442)
(1.7558e-05 7.26435e-06 0.0883146)
(8.27076e-06 1.61169e-05 0.0883136)
(1.0446e-05 7.85486e-05 0.0723164)
(-2.69056e-05 -4.34469e-05 0.0717633)
(7.75471e-05 1.2038e-05 0.072318)
(-4.35561e-05 -2.72556e-05 0.0717631)
(2.7098e-05 2.4481e-05 0.104378)
(8.93503e-06 3.39238e-05 0.0884053)
(3.35627e-05 9.75708e-06 0.0884047)
(-1.92023e-05 -1.43797e-05 0.0878602)
(-1.38035e-05 -2.01878e-05 0.0878586)
(-5.40549e-06 -6.11669e-06 0.0919892)
(-5.65085e-07 2.55228e-05 0.0832698)
(6.59237e-06 -1.22708e-05 0.0989575)
(-3.63184e-06 -1.29216e-05 0.107432)
(1.47229e-05 -7.86942e-07 0.0936648)
(3.55287e-06 -6.3282e-06 0.109648)
(1.76348e-06 -1.19552e-05 0.0989582)
(1.44228e-05 -1.21168e-05 0.107432)
(-1.21792e-05 -1.12951e-07 0.093668)
(8.03787e-06 -5.9325e-06 0.109647)
(-5.35225e-06 -3.03045e-06 0.0918584)
(-1.25344e-05 4.68936e-05 0.0834877)
(-3.17863e-06 -2.71136e-05 0.0822583)
(3.7761e-06 -2.78867e-06 0.0920488)
(6.1657e-06 -3.0555e-06 0.0918589)
(6.9279e-06 4.36978e-05 0.0834863)
(7.66288e-07 -2.86145e-05 0.0822561)
(-8.65269e-06 -3.2215e-06 0.0920491)
(1.43895e-06 -5.24029e-06 0.0989482)
(8.05556e-06 -4.93039e-06 0.107453)
(9.77571e-07 1.85633e-05 0.0937195)
(5.93025e-06 -6.75338e-06 0.10964)
(-3.38297e-06 -2.01845e-05 0.0933894)
(4.43102e-07 -2.04513e-05 0.109679)
(2.87719e-06 -9.45477e-06 0.0989625)
(4.95675e-06 -5.04293e-06 0.098949)
(1.30498e-06 -3.73324e-06 0.107456)
(-3.9726e-06 1.52867e-05 0.0937233)
(1.38766e-06 -6.4367e-06 0.10964)
(5.08734e-06 -2.06228e-05 0.0933937)
(1.00815e-05 -1.99359e-05 0.109679)
(-3.7752e-06 -9.70192e-06 0.0989636)
(4.31395e-05 -3.34535e-05 0.104448)
(-1.7489e-05 5.96975e-06 0.0883148)
(-3.87507e-06 1.97402e-05 0.0883152)
(-4.97524e-05 1.54859e-05 0.0722581)
(-1.65305e-05 7.54355e-05 0.07232)
(2.49934e-05 -4.53664e-05 0.0717617)
(-1.93501e-05 2.89122e-05 0.104387)
(-1.30891e-05 2.90916e-05 0.0884072)
(-3.21774e-05 7.64181e-06 0.0884094)
(1.89112e-05 -1.62315e-05 0.0878613)
(1.67425e-05 -1.88285e-05 0.0878604)
(-7.85622e-05 1.00161e-05 0.0723186)
(4.30539e-05 -2.76675e-05 0.0717558)
(-1.23227e-05 2.65279e-06 0.0989599)
(-1.13707e-05 -6.50495e-06 0.107434)
(3.34801e-07 1.20582e-05 0.0936658)
(-5.36548e-06 1.64064e-07 0.109649)
(-6.59049e-06 -7.45696e-06 0.091991)
(2.55236e-05 2.64563e-07 0.0832746)
(-1.2413e-05 -2.02874e-06 0.0989605)
(-1.04777e-05 9.13237e-06 0.107434)
(-5.15952e-06 3.28621e-06 0.109649)
(-1.08766e-06 -1.27678e-05 0.0936685)
(-3.10145e-06 -7.10296e-06 0.0918602)
(4.62141e-05 -1.1009e-05 0.083489)
(-2.71572e-05 -3.49968e-06 0.0822603)
(-2.4133e-06 4.49755e-06 0.0920497)
(-5.0915e-06 -2.03904e-06 0.0989502)
(-3.07598e-06 4.89613e-06 0.107455)
(1.89498e-05 7.52589e-07 0.0937203)
(-5.32239e-06 2.35508e-06 0.109641)
(-1.92576e-05 -5.55346e-06 0.0933905)
(-1.87627e-05 -3.62232e-06 0.10968)
(-8.82108e-06 1.61803e-06 0.098963)
(-3.26318e-06 4.77749e-06 0.0918607)
(4.54215e-05 1.0201e-05 0.0834891)
(-2.80107e-05 2.213e-06 0.0822608)
(-2.59686e-06 -7.62267e-06 0.0920496)
(-5.21386e-06 1.64744e-06 0.0989508)
(-1.59614e-06 -4.15044e-06 0.107455)
(-4.98647e-06 -2.83485e-06 0.109641)
(1.75914e-05 -2.12802e-06 0.0937202)
(-1.83283e-05 4.97972e-06 0.10968)
(-2.08259e-05 4.82498e-06 0.0933932)
(-8.94964e-06 -4.80296e-06 0.0989634)
(6.23744e-06 8.24181e-06 0.0919846)
(-2.764e-05 -3.27095e-07 0.0832657)
(1.40326e-05 1.17261e-06 0.0989487)
(2.16506e-05 1.66844e-05 0.107431)
(1.18558e-05 1.08358e-05 0.109641)
(6.95223e-06 -2.11697e-05 0.0936726)
(6.54706e-06 -8.11876e-06 0.0919854)
(-2.57219e-05 -5.92307e-06 0.0832644)
(8.15299e-06 1.74518e-06 0.0989434)
(1.15493e-05 8.46607e-06 0.107455)
(-1.61635e-05 2.38392e-07 0.093726)
(1.30651e-05 5.02604e-06 0.109637)
(2.31532e-05 -4.68957e-07 0.0933919)
(2.76977e-05 1.78719e-07 0.109674)
(1.33077e-05 1.3004e-06 0.09897)
(4.08901e-06 -6.30569e-06 0.0918576)
(-4.68082e-05 -1.34999e-05 0.0834875)
(2.59786e-05 -3.85664e-06 0.0822529)
(5.7273e-06 1.41923e-06 0.092057)
(8.49681e-06 3.48857e-06 0.0989444)
(1.34503e-05 -1.54116e-06 0.10746)
(1.38307e-05 -1.71024e-06 0.109638)
(-9.7261e-06 -4.65942e-06 0.0937366)
(2.85967e-05 9.86765e-06 0.109674)
(2.75448e-05 -2.04849e-06 0.0934018)
(1.42837e-05 -7.14141e-06 0.0989724)
(4.62554e-06 3.07634e-06 0.0918589)
(-4.35686e-05 9.99962e-06 0.0834903)
(2.83964e-05 -2.02871e-06 0.0822518)
(6.68834e-06 -1.1292e-05 0.0920583)
(-3.06087e-05 3.90153e-05 0.104447)
(6.90535e-06 -1.69012e-05 0.0883149)
(1.8716e-05 -5.30395e-06 0.0883154)
(1.44821e-05 -5.02096e-05 0.0722645)
(7.70777e-05 -1.27017e-05 0.0723186)
(-4.3983e-05 2.63984e-05 0.0717651)
(3.11443e-05 -2.30312e-05 0.104382)
(3.29029e-05 -1.02951e-05 0.088403)
(5.39529e-06 -3.56787e-05 0.0884047)
(-1.4935e-05 1.97816e-05 0.0878604)
(-1.97845e-05 1.51977e-05 0.0878598)
(6.79829e-06 -8.00991e-05 0.0723178)
(-2.89388e-05 4.19913e-05 0.0717604)
(5.27455e-06 1.3802e-05 0.0989528)
(2.02749e-05 1.94144e-05 0.107433)
(1.43816e-05 1.05201e-05 0.109643)
(-1.74816e-05 5.38081e-06 0.0936742)
(1.01305e-05 6.77348e-06 0.0919863)
(-1.33198e-06 -2.70642e-05 0.0832708)
(-5.52847e-06 6.90011e-06 0.0919877)
(-5.16763e-06 -2.55732e-05 0.0832671)
(5.085e-06 7.77293e-06 0.0989459)
(1.28876e-05 8.04297e-06 0.107454)
(8.87343e-06 1.02251e-05 0.109638)
(-1.37614e-06 -1.83579e-05 0.0937218)
(5.07192e-06 2.48e-05 0.109676)
(-8.35004e-07 2.28981e-05 0.0933912)
(2.09892e-06 1.19126e-05 0.0989682)
(7.15788e-06 7.92547e-06 0.0989475)
(2.71108e-06 1.03818e-05 0.107462)
(2.21393e-06 1.10208e-05 0.10964)
(-4.62897e-06 -1.00411e-05 0.0937368)
(1.42732e-05 2.57078e-05 0.109676)
(9.07985e-07 2.63647e-05 0.0934025)
(-5.8922e-06 1.3021e-05 0.0989715)
(-5.08038e-06 4.18589e-06 0.091859)
(-1.633e-05 -4.84077e-05 0.0834907)
(-4.97491e-06 2.59415e-05 0.0822581)
(3.1812e-07 4.72938e-06 0.0920554)
(4.84007e-06 4.67711e-06 0.0918608)
(7.87173e-06 -4.25324e-05 0.0834918)
(-1.99908e-06 2.87958e-05 0.0822541)
(-1.21395e-05 5.93813e-06 0.0920572)
(-4.79647e-05 -2.08798e-05 0.0722539)
(-2.01891e-05 -4.77515e-05 0.0722562)
(-1.89638e-05 -2.27642e-05 0.104402)
(-2.79049e-05 -9.56087e-06 0.0884153)
(-1.085e-05 -2.72834e-05 0.0884148)
(2.32357e-05 1.58913e-05 0.0878698)
(1.6931e-05 2.24485e-05 0.0878686)
(-7.70328e-05 -1.25466e-05 0.0723204)
(4.50341e-05 2.2655e-05 0.0717536)
(-1.4605e-05 -7.58773e-05 0.0723224)
(2.27446e-05 4.54548e-05 0.0717554)
(-5.21636e-05 -7.89659e-05 0.0717028)
(6.70855e-05 0.000112501 0.0724092)
(-8.01288e-05 -5.01615e-05 0.0717021)
(0.000111406 7.00453e-05 0.0724095)
(-4.27327e-05 -9.86512e-06 0.0877448)
(-1.08151e-05 -4.12141e-05 0.0877435)
(-4.26785e-05 -4.23612e-05 0.104394)
(3.61258e-05 2.79011e-05 0.0885939)
(2.64149e-05 3.87902e-05 0.0885929)
(0.000103953 0.000141328 0.0727579)
(-4.45785e-05 -0.000163007 0.0717003)
(0.000141095 0.000104742 0.0727575)
(-0.00016396 -4.18626e-05 0.071698)
(-2.66144e-05 -2.54622e-05 0.104496)
(5.48284e-05 -3.7428e-05 0.0890686)
(-3.87201e-05 5.66823e-05 0.0890667)
(-3.48233e-05 -7.04512e-05 0.0876311)
(-7.23763e-05 -3.19268e-05 0.0876292)
(-1.04351e-05 -4.77628e-06 0.0921299)
(9.66948e-06 -4.41356e-05 0.0820208)
(5.34106e-06 -6.77031e-06 0.0918245)
(-1.91332e-05 5.23387e-05 0.0837994)
(-3.06153e-06 -1.46881e-05 0.0989284)
(-2.55587e-05 -1.22015e-05 0.0933431)
(-5.18357e-06 -1.83689e-05 0.109686)
(-3.40811e-05 -2.71177e-05 0.107436)
(-5.31405e-06 -8.84183e-06 0.0989929)
(-1.52234e-06 1.71673e-05 0.0937923)
(-6.4323e-06 -1.62211e-05 0.109635)
(-5.28296e-06 -1.54751e-05 0.098929)
(2.06626e-05 -1.66393e-05 0.093347)
(8.0332e-06 -1.86101e-05 0.109687)
(2.92673e-05 -2.76935e-05 0.107441)
(1.88312e-06 -9.22591e-06 0.0989939)
(-5.12808e-06 1.16172e-05 0.0937954)
(1.65103e-06 -1.65458e-05 0.109637)
(-1.55508e-05 -2.379e-05 0.0917417)
(3.35024e-05 3.63623e-05 0.0843892)
(-5.73159e-06 -8.68432e-05 0.0816886)
(-6.33779e-06 -5.1823e-05 0.0923629)
(6.46632e-06 -2.41978e-05 0.0917417)
(-2.9294e-05 3.79798e-05 0.0843962)
(2.36789e-06 -8.86385e-05 0.0816934)
(1.97725e-06 -5.18556e-05 0.0923632)
(-1.39495e-05 -3.09714e-05 0.0990598)
(-2.88774e-05 -3.18792e-05 0.10749)
(-1.74279e-05 -7.13304e-05 0.0940714)
(-1.51797e-05 -5.08123e-05 0.109659)
(-2.38051e-05 -4.22337e-05 0.093304)
(-1.85221e-05 -3.9255e-05 0.109693)
(-8.48999e-06 -6.5732e-05 0.0988998)
(3.89445e-06 -3.17018e-05 0.0990604)
(1.68798e-05 -3.23046e-05 0.107491)
(1.42079e-05 -7.30899e-05 0.0940705)
(1.40298e-06 -5.11072e-05 0.10966)
(1.7288e-05 -4.74887e-05 0.0933073)
(9.95722e-06 -3.9756e-05 0.109694)
(-5.66669e-07 -6.60414e-05 0.0988999)
(3.73955e-05 -1.58693e-05 0.0877474)
(1.20437e-05 -4.39635e-05 0.0877479)
(3.75109e-05 -4.17628e-05 0.1044)
(-3.98498e-05 2.2924e-05 0.0885952)
(-2.74443e-05 3.33101e-05 0.0885993)
(7.94149e-05 -5.25346e-05 0.0717046)
(-0.000112981 6.6876e-05 0.0724187)
(-9.87473e-05 0.000144772 0.0727593)
(4.18284e-05 -0.000162682 0.0717049)
(1.86092e-05 -2.46819e-05 0.104499)
(-5.23782e-05 -3.41019e-05 0.0890632)
(3.31487e-05 5.19322e-05 0.0890677)
(3.16321e-05 -7.35901e-05 0.0876337)
(7.00573e-05 -3.75338e-05 0.087635)
(-0.000142825 0.000100982 0.0727633)
(0.000161897 -4.56932e-05 0.0717051)
(-1.38116e-05 -5.00504e-07 0.098927)
(-1.22092e-05 -2.49391e-05 0.0933438)
(-1.65133e-05 -7.81203e-06 0.109687)
(-2.66139e-05 -3.43177e-05 0.107438)
(-8.15551e-06 -5.49687e-06 0.0989935)
(1.61346e-05 1.21838e-06 0.0937924)
(-1.52624e-05 -6.41156e-06 0.109636)
(-3.42089e-06 -6.30549e-06 0.0921275)
(-4.21018e-05 1.32844e-05 0.0820222)
(-5.90476e-06 7.37813e-06 0.0918248)
(5.37165e-05 -1.74067e-05 0.0837962)
(-1.38737e-05 -2.23981e-06 0.0989265)
(-1.6389e-05 5.24296e-06 0.109686)
(-1.34332e-05 2.33544e-05 0.0933431)
(-2.65181e-05 3.07424e-05 0.107434)
(-8.25663e-06 1.96482e-06 0.0989935)
(-1.5213e-05 2.43785e-06 0.109635)
(1.55745e-05 -2.41114e-06 0.0937898)
(-2.298e-05 -1.13407e-05 0.091739)
(3.60075e-05 3.48113e-05 0.0843883)
(-8.83023e-05 -2.8545e-06 0.081687)
(-5.18943e-05 -3.06524e-06 0.0923605)
(-3.01864e-05 -1.03317e-05 0.0990576)
(-3.26443e-05 -2.70508e-05 0.107492)
(-7.31082e-05 -1.3873e-05 0.0940709)
(-5.18309e-05 -1.10122e-05 0.109658)
(-4.35792e-05 -2.05409e-05 0.0933039)
(-3.92788e-05 -1.66181e-05 0.109693)
(-6.61519e-05 -3.90535e-06 0.0988969)
(-2.29016e-05 1.08373e-05 0.0917386)
(3.73914e-05 -3.21019e-05 0.0843895)
(-8.77773e-05 3.45282e-06 0.081688)
(-5.17422e-05 4.78061e-06 0.0923603)
(-3.02188e-05 8.00067e-06 0.0990572)
(-3.31407e-05 2.27994e-05 0.107486)
(-5.20239e-05 7.22731e-06 0.109658)
(-7.20771e-05 1.47351e-05 0.0940688)
(-3.95194e-05 1.30123e-05 0.109692)
(-4.38315e-05 1.95999e-05 0.0933018)
(-6.6061e-05 4.13663e-06 0.0988964)
(6.36377e-06 2.11615e-06 0.0921396)
(4.13071e-05 -1.67251e-05 0.0820236)
(9.20502e-06 -1.40069e-05 0.0918329)
(-5.4596e-05 1.43092e-05 0.0838044)
(1.69692e-05 -6.864e-06 0.0989413)
(2.34344e-05 2.64546e-06 0.109688)
(2.08662e-05 2.20469e-05 0.0933591)
(2.46085e-05 2.18897e-05 0.107448)
(1.30249e-05 -1.34984e-06 0.0990056)
(1.62799e-05 -2.97506e-06 0.109641)
(-1.2525e-05 8.01812e-07 0.0938024)
(6.5697e-06 -8.74077e-06 0.0921395)
(4.41954e-05 1.42378e-05 0.0820274)
(1.003e-05 3.70646e-06 0.0918341)
(-5.48633e-05 -1.24819e-05 0.0838093)
(3.20206e-05 -1.41191e-05 0.0990714)
(2.74349e-05 -2.52578e-05 0.107495)
(7.05257e-05 -1.90811e-05 0.0940734)
(4.58154e-05 -1.23362e-05 0.109664)
(4.39895e-05 -2.623e-05 0.0933111)
(3.6953e-05 -1.86591e-05 0.109698)
(6.40667e-05 -5.43023e-06 0.0989053)
(2.57605e-05 -1.37148e-05 0.0917505)
(-3.66934e-05 3.1422e-05 0.0843979)
(8.72707e-05 -6.74748e-06 0.081698)
(5.11589e-05 -2.70082e-06 0.0923667)
(3.22392e-05 3.90053e-06 0.0990718)
(2.48968e-05 1.29634e-05 0.107493)
(4.49206e-05 1.70428e-06 0.109664)
(6.62906e-05 2.231e-05 0.0940651)
(3.6388e-05 6.80882e-06 0.109699)
(4.51242e-05 2.4301e-05 0.0933106)
(6.36981e-05 3.47646e-06 0.0989042)
(2.58221e-05 9.38435e-06 0.0917505)
(-3.98524e-05 -2.51723e-05 0.0843987)
(8.58824e-05 9.89074e-06 0.0817028)
(5.05535e-05 7.07723e-06 0.0923657)
(-1.14148e-05 4.04465e-05 0.0877427)
(-4.64359e-05 7.95924e-06 0.0877436)
(-4.34879e-05 3.9517e-05 0.10439)
(2.60461e-05 -3.91743e-05 0.0885906)
(3.28418e-05 -3.00723e-05 0.0885946)
(-5.56689e-05 7.79036e-05 0.071703)
(6.4942e-05 -0.000112995 0.0724124)
(0.000142696 -0.000102236 0.072756)
(-0.000163151 4.2577e-05 0.0716999)
(-2.79994e-05 2.23296e-05 0.104491)
(-3.6737e-05 -5.48182e-05 0.0890645)
(5.41589e-05 3.57635e-05 0.089069)
(-7.175e-05 3.19923e-05 0.0876289)
(-3.76735e-05 6.82273e-05 0.0876313)
(0.000104204 -0.00014082 0.0727607)
(-4.64251e-05 0.000162323 0.0717003)
(-9.52547e-06 1.6166e-05 0.098938)
(5.43046e-06 2.0775e-05 0.109688)
(2.10099e-05 2.0929e-05 0.0933586)
(2.20829e-05 2.40273e-05 0.107449)
(-1.22027e-06 1.18466e-05 0.0990037)
(-2.98824e-06 1.5106e-05 0.109641)
(-2.55344e-06 -1.12792e-05 0.0938017)
(-1.80895e-06 4.93539e-06 0.0921364)
(-1.98988e-05 3.93479e-05 0.0820248)
(-1.59885e-05 8.00125e-06 0.0918316)
(1.21092e-05 -5.59456e-05 0.0838009)
(-1.263e-05 5.84865e-06 0.0921368)
(1.15196e-05 4.5298e-05 0.0820277)
(1.851e-06 9.14331e-06 0.091833)
(-1.5495e-05 -5.34971e-05 0.0838084)
(-1.81029e-05 3.08225e-05 0.0990667)
(-3.08323e-05 2.85962e-05 0.10749)
(-1.79732e-05 4.70121e-05 0.109662)
(-1.96309e-05 6.94061e-05 0.0940716)
(-2.16211e-05 3.70569e-05 0.109695)
(-2.81672e-05 4.04287e-05 0.0933054)
(-9.95214e-06 6.40648e-05 0.098902)
(2.01447e-07 3.16767e-05 0.099068)
(1.07948e-05 2.60429e-05 0.107494)
(-2.52883e-06 4.63393e-05 0.109663)
(1.88014e-05 6.80788e-05 0.0940645)
(4.81911e-06 3.67137e-05 0.109698)
(2.05307e-05 4.65777e-05 0.0933097)
(-1.09778e-06 6.41868e-05 0.0989014)
(-1.78958e-05 2.44778e-05 0.0917472)
(3.36985e-05 -3.62279e-05 0.0843912)
(-7.92173e-06 8.6206e-05 0.0816925)
(-5.506e-06 5.08089e-05 0.0923638)
(5.156e-06 2.50004e-05 0.0917472)
(-2.60317e-05 -3.97068e-05 0.0843974)
(7.05986e-06 8.7141e-05 0.0817014)
(3.88651e-06 5.05451e-05 0.0923634)
(8.03357e-05 5.10162e-05 0.0717099)
(-0.000114656 -6.37776e-05 0.0724215)
(4.8489e-05 8.16385e-05 0.0717103)
(-6.66991e-05 -0.000113488 0.0724213)
(1.40873e-05 1.56307e-05 0.104496)
(2.71298e-05 -4.702e-05 0.0890577)
(-4.86144e-05 2.8449e-05 0.0890564)
(6.71662e-05 4.04422e-05 0.0876333)
(3.7256e-05 6.91163e-05 0.0876316)
(-0.00014503 -9.51961e-05 0.0727632)
(0.000159417 5.03509e-05 0.071708)
(-9.57624e-05 -0.000145222 0.072762)
(4.76699e-05 0.000160435 0.0717072)
(-0.00024439 -0.000437761 0.0722727)
(-0.00013261 -0.000205944 0.0809939)
(-0.000436909 -0.000243981 0.0722702)
(-0.00020497 -0.000135 0.0809937)
(-6.08606e-05 -0.000287898 0.0878508)
(-0.000288921 -5.97915e-05 0.0878484)
(-2.68453e-05 -2.3923e-05 0.105023)
(3.22163e-05 -0.000111987 0.0908242)
(-0.000111332 3.07035e-05 0.0908237)
(-1.94374e-05 -1.77553e-05 0.105461)
(9.63901e-06 -0.000111524 0.0902853)
(-0.000110731 7.81423e-06 0.0902845)
(1.35965e-05 -5.6064e-05 0.09381)
(0.000130171 -0.000197689 0.0816825)
(1.72533e-05 -9.20829e-05 0.091722)
(0.000271141 -0.000105203 0.0864543)
(9.72087e-06 -6.1685e-05 0.0991479)
(-2.7773e-05 -0.000135083 0.0936205)
(-7.9168e-06 -9.13161e-05 0.109801)
(3.45701e-06 -3.49785e-05 0.107905)
(-1.95069e-05 -9.48572e-05 0.099336)
(-4.78289e-05 -0.000117119 0.0937389)
(-7.5528e-06 -8.54295e-05 0.110319)
(-9.08181e-06 -6.12105e-05 0.0991474)
(2.70271e-05 -0.000134486 0.0936197)
(-5.09222e-06 -9.11624e-05 0.109801)
(-9.06975e-06 -3.4721e-05 0.107898)
(1.18935e-05 -9.49794e-05 0.0993363)
(5.5153e-05 -0.000111204 0.0937282)
(5.35342e-07 -8.51137e-05 0.110318)
(3.12202e-05 -6.10112e-05 0.100149)
(1.04619e-05 -4.04327e-05 0.108055)
(-5.36735e-05 -8.65089e-05 0.0931389)
(2.44945e-06 -6.41662e-05 0.110471)
(-2.55465e-05 -6.03631e-05 0.100148)
(-1.0255e-05 -4.08467e-05 0.10805)
(6.16833e-05 -8.00965e-05 0.0931288)
(-3.61324e-06 -6.39639e-05 0.110471)
(6.4677e-05 -0.000281791 0.0878479)
(0.000282303 -6.32837e-05 0.0878478)
(2.23911e-05 -2.60379e-05 0.105011)
(-2.44061e-05 -0.000105621 0.0908104)
(0.000108275 3.01755e-05 0.0908095)
(0.000436437 -0.000248349 0.0722714)
(0.000202976 -0.000134473 0.0809949)
(2.00158e-05 -2.05058e-05 0.105452)
(-1.71922e-06 -0.000104886 0.0902731)
(0.000107649 7.99008e-06 0.0902724)
(-6.34518e-05 1.12916e-05 0.0991475)
(-0.000136639 -2.49501e-05 0.0936199)
(-9.43266e-05 -2.5145e-06 0.1098)
(-3.79535e-05 6.86023e-06 0.107905)
(-9.54854e-05 -1.53593e-05 0.0993335)
(-0.000117064 -4.84107e-05 0.0937398)
(-8.8547e-05 -3.42771e-06 0.110317)
(-5.77283e-05 1.12343e-05 0.0938107)
(-0.000199046 0.000126603 0.081676)
(-9.26904e-05 1.86496e-05 0.0917189)
(-0.000108467 0.000265415 0.0864552)
(-6.32276e-05 -8.08236e-06 0.0991475)
(-9.44672e-05 1.62731e-06 0.109799)
(-0.000135213 2.65692e-05 0.0936188)
(-3.90156e-05 -5.00981e-06 0.107903)
(-9.53272e-05 1.61019e-05 0.0993334)
(-8.86114e-05 4.96063e-06 0.110317)
(-0.000115443 5.10796e-05 0.0937376)
(-6.26019e-05 3.06404e-05 0.100151)
(-4.24242e-05 1.23644e-05 0.108056)
(-8.64415e-05 -5.46668e-05 0.0931397)
(-6.66068e-05 4.5996e-06 0.11047)
(-6.24247e-05 -2.67728e-05 0.100151)
(-4.33682e-05 -9.13661e-06 0.108055)
(-6.66752e-05 -1.574e-06 0.11047)
(-8.48007e-05 5.73402e-05 0.0931379)
(9.47507e-06 -1.45302e-05 0.11624)
(1.0385e-05 -4.697e-05 0.114103)
(3.93077e-05 -1.85894e-05 0.114105)
(2.78632e-05 -3.27164e-05 0.11144)
(1.08671e-05 -1.83231e-05 0.116208)
(8.03786e-06 -4.26315e-05 0.113802)
(3.72715e-05 -1.28047e-05 0.113804)
(-1.80546e-05 1.29797e-05 0.116239)
(-5.08478e-05 1.54221e-05 0.114102)
(-2.35964e-05 4.32304e-05 0.114105)
(-3.73902e-05 3.24964e-05 0.111441)
(-2.20536e-05 1.45786e-05 0.116208)
(-4.63227e-05 1.23552e-05 0.113801)
(-1.71017e-05 4.09463e-05 0.113803)
(9.41303e-06 1.28383e-05 0.116241)
(3.88868e-05 1.37197e-05 0.114105)
(9.42649e-06 4.24703e-05 0.114106)
(2.98975e-05 3.32986e-05 0.111437)
(1.04268e-05 1.39981e-05 0.116209)
(3.73615e-05 1.23393e-05 0.113804)
(8.44607e-06 4.07766e-05 0.113804)
(-7.38779e-06 -4.82973e-06 0.116215)
(-3.29737e-05 -3.07427e-05 0.111245)
(-5.1315e-06 -4.2122e-05 0.113669)
(-4.4676e-05 -2.52488e-06 0.113669)
(2.37669e-06 -4.79341e-06 0.116216)
(2.97051e-05 -3.14732e-05 0.111242)
(1.08875e-06 -4.21031e-05 0.113669)
(3.93925e-05 -2.2886e-06 0.113671)
(-7.42071e-06 4.98986e-06 0.116215)
(-3.41025e-05 3.23054e-05 0.111244)
(-4.48201e-05 3.85304e-06 0.113668)
(-5.04802e-06 4.20919e-05 0.11367)
(2.45626e-06 5.02094e-06 0.116216)
(3.24742e-05 3.46987e-05 0.111239)
(3.96756e-05 4.68489e-06 0.113671)
(2.10267e-06 4.22248e-05 0.11367)
(5.33453e-05 -5.59483e-06 0.0938031)
(0.000199623 -0.000126432 0.081683)
(9.09843e-05 -1.52326e-05 0.0917234)
(0.000107883 -0.000263812 0.0864501)
(5.69477e-05 -4.30278e-06 0.09914)
(8.37087e-05 4.11799e-08 0.109804)
(0.000128158 3.3465e-05 0.0936123)
(3.22456e-05 -1.76517e-07 0.107893)
(9.21981e-05 1.65812e-05 0.0993369)
(7.97361e-05 6.55605e-06 0.11032)
(0.000109745 5.38519e-05 0.0937155)
(5.29032e-05 1.41869e-05 0.0938028)
(0.000196478 0.000131831 0.0816831)
(9.00066e-05 2.17967e-05 0.091723)
(0.00010559 0.000264905 0.0864478)
(5.79295e-05 3.24565e-05 0.100139)
(3.91562e-05 1.00078e-05 0.108051)
(8.1604e-05 -5.56807e-05 0.093125)
(6.09801e-05 5.078e-06 0.110472)
(5.75723e-05 -2.30989e-05 0.100138)
(4.18006e-05 -3.03053e-06 0.108045)
(6.12039e-05 8.99363e-07 0.11047)
(7.87676e-05 5.94196e-05 0.0931171)
(-0.000286445 6.13678e-05 0.087849)
(-6.00608e-05 0.000286513 0.0878499)
(-2.91864e-05 2.54597e-05 0.105022)
(-0.000110376 -2.87355e-05 0.0908225)
(3.46317e-05 0.00011322 0.0908212)
(-0.000243709 0.000438369 0.0722709)
(-0.00012896 0.000206987 0.0809963)
(-2.11848e-05 2.06158e-05 0.105462)
(-0.000109891 -5.99476e-06 0.0902837)
(1.23992e-05 0.000112869 0.090283)
(-5.7741e-06 5.85502e-05 0.0991402)
(-5.3634e-06 8.68539e-05 0.109802)
(3.08197e-05 0.000129514 0.0936114)
(-3.58072e-06 3.52688e-05 0.107893)
(1.24896e-05 9.28302e-05 0.0993347)
(2.47653e-06 8.28029e-05 0.110318)
(5.46348e-05 0.000109712 0.0937165)
(-3.33535e-06 5.48281e-05 0.0938044)
(-0.00012292 0.000200797 0.0816764)
(-1.66957e-05 9.13521e-05 0.0917207)
(-0.00025822 0.000111432 0.0864511)
(1.60084e-05 5.40946e-05 0.0938042)
(0.000132018 0.000196353 0.0816819)
(1.98189e-05 9.04771e-05 0.0917202)
(0.000267148 0.000104731 0.0864492)
(3.35798e-05 5.98261e-05 0.100142)
(8.84503e-06 4.16271e-05 0.108056)
(3.04677e-06 6.35928e-05 0.11047)
(-5.13949e-05 8.63634e-05 0.093134)
(-2.24961e-05 5.90312e-05 0.10014)
(-4.89434e-06 4.37639e-05 0.108045)
(-1.22754e-06 6.35761e-05 0.110469)
(6.05557e-05 7.87436e-05 0.0931182)
(0.000435158 0.000253091 0.0722732)
(0.000201386 0.000134175 0.0810002)
(0.00025321 0.000434723 0.0722723)
(0.000136727 0.000200412 0.0810003)
(2.55285e-05 2.71633e-05 0.105447)
(0.000107207 -6.79106e-06 0.0902697)
(-4.99e-06 0.000106561 0.0902697)
(-0.00013753 -0.000190051 0.0808833)
(-0.000188999 -0.000140145 0.0808831)
(-1.12359e-05 -2.07879e-05 0.093248)
(-0.000261037 -0.000197383 0.0873217)
(2.04413e-05 -2.01923e-05 0.0932482)
(0.000270793 -0.000191793 0.0873201)
(0.000146567 -0.000183957 0.080888)
(0.000187068 -0.000139161 0.0808886)
(-2.22363e-05 -1.36569e-05 0.0932484)
(-0.000196281 -0.000263785 0.0873238)
(-2.20385e-05 1.75351e-05 0.0932486)
(-0.000195033 0.000265271 0.0873235)
(1.73065e-05 -1.17657e-05 0.0932425)
(0.000194479 -0.000263276 0.0873145)
(1.69134e-05 2.028e-05 0.0932425)
(0.000192706 0.000263985 0.087312)
(-0.000187796 0.000141262 0.0808856)
(-0.000133768 0.000191191 0.080887)
(-8.93804e-06 1.89778e-05 0.0932435)
(-0.000257857 0.000198071 0.0873184)
(2.26651e-05 1.82482e-05 0.0932435)
(0.000266471 0.000191781 0.087314)
(0.000185811 0.00013839 0.0808948)
(0.000141068 0.000184828 0.080895)
(1.58964e-05 -3.18378e-05 0.0773235)
(-2.2041e-06 6.30948e-08 0.0918593)
(1.04253e-05 -2.50067e-05 0.0791645)
(1.16355e-05 1.14217e-06 0.0905181)
(-1.15546e-05 2.1924e-05 0.0792274)
(1.92038e-06 -9.28351e-06 0.0903869)
(-1.39592e-05 3.64515e-05 0.077508)
(-5.23484e-05 -6.69343e-05 0.068016)
(2.1332e-05 2.75151e-06 0.0866023)
(6.22036e-06 -2.44668e-05 0.0823345)
(-1.51846e-05 -5.43533e-06 0.0861904)
(5.62574e-05 8.04662e-05 0.0698265)
(9.37351e-06 -3.74128e-05 0.0717945)
(-3.20468e-05 1.46291e-05 0.0773257)
(-3.50677e-07 -5.21502e-06 0.0918615)
(1.4513e-06 9.03183e-06 0.0905203)
(-2.50666e-05 1.04457e-05 0.0791672)
(-9.0204e-06 -1.30005e-06 0.0903887)
(2.17944e-05 -1.23536e-05 0.07923)
(3.63749e-05 -1.433e-05 0.0775106)
(-6.68821e-05 -5.34907e-05 0.0680183)
(2.93152e-06 1.99056e-05 0.0866039)
(-2.41861e-05 4.83054e-06 0.0823365)
(-5.16166e-06 -1.73101e-05 0.0861918)
(8.04238e-05 5.57981e-05 0.0698284)
(-3.73455e-05 9.76759e-06 0.0717993)
(6.79946e-07 -1.92905e-06 0.0841697)
(-9.13011e-06 4.46666e-06 0.0687363)
(5.10747e-06 -9.03424e-06 0.0687283)
(1.02259e-05 4.39814e-06 0.0686917)
(5.52673e-06 9.48988e-06 0.0686892)
(7.09833e-06 5.23015e-06 0.0840475)
(1.74052e-05 -1.49888e-05 0.0921514)
(-2.62272e-05 -4.5953e-06 0.0825031)
(2.93766e-05 7.67682e-07 0.0879117)
(1.19518e-05 -1.46364e-05 0.0968065)
(1.74273e-05 -8.07649e-06 0.0967202)
(4.38816e-05 6.63405e-06 0.0816751)
(6.62283e-06 -1.29602e-05 0.0922903)
(-1.1657e-05 1.41075e-05 0.0921451)
(-3.70224e-06 -2.73362e-05 0.0824992)
(3.25502e-06 2.76569e-05 0.0879106)
(-1.08893e-05 9.33895e-06 0.0968049)
(-4.29613e-06 1.48316e-05 0.096718)
(8.25442e-06 4.20951e-05 0.0816715)
(-1.00133e-05 3.61105e-06 0.0922847)
(2.32335e-05 -7.72829e-05 0.0773083)
(-1.44472e-05 -1.05459e-05 0.0917861)
(2.21794e-05 -5.6608e-05 0.0790789)
(-6.69654e-06 2.38839e-07 0.0906156)
(-2.6159e-05 4.3521e-05 0.0793253)
(-1.84161e-05 -1.51558e-05 0.0903421)
(-2.6047e-05 7.59712e-05 0.0775512)
(0.000105357 0.000193283 0.0706878)
(-4.32543e-05 7.30491e-06 0.0861234)
(-3.78593e-06 5.39024e-05 0.0836194)
(-0.000108403 -0.000163371 0.0672336)
(2.71718e-05 -5.06379e-06 0.0866854)
(-3.19259e-05 6.51567e-05 0.0775342)
(2.26541e-06 -1.2794e-07 0.0920817)
(-2.34832e-05 3.71946e-05 0.079295)
(-1.68081e-05 -1.04984e-05 0.0903617)
(1.29121e-05 -5.96445e-05 0.0773057)