/*--------------------------------*- C++ -*----------------------------------*\
| =========                 |                                                 |
| \\      /  F ield         | OpenFOAM: The Open Source CFD Toolbox           |
|  \\    /   O peration     | Version:  v2006                                 |
|   \\  /    A nd           | Website:  www.openfoam.com                      |
|    \\/     M anipulation  |                                                 |
\*---------------------------------------------------------------------------*/
FoamFile
{
    version     2.0;
    format      ascii;
    class       volScalarField;
    location    "750";
    object      k;
}
// * * * * * * * * * * * * * * * * * * * * * * * * * * * * * * * * * * * * * //

dimensions      [0 2 -2 0 0 0 0];


internalField   nonuniform List<scalar> 
171728
(
1.62922e-05
1.87287e-05
1.43382e-05
1.65204e-05
1.65208e-05
1.94282e-05
1.4108e-05
1.68358e-05
1.68363e-05
2.02206e-05
1.39234e-05
1.72356e-05
1.7236e-05
2.10949e-05
1.37844e-05
1.77157e-05
1.77163e-05
2.20353e-05
1.36907e-05
1.8273e-05
1.82738e-05
2.3031e-05
1.36422e-05
1.89017e-05
1.8903e-05
2.40649e-05
1.87283e-05
1.92757e-05
1.62924e-05
1.64548e-05
1.64553e-05
1.92766e-05
1.94273e-05
2.00489e-05
1.65206e-05
1.6521e-05
1.6749e-05
1.67494e-05
1.94275e-05
2.00491e-05
1.65207e-05
1.65213e-05
1.67492e-05
1.675e-05
1.6521e-05
1.67487e-05
1.67494e-05
1.94278e-05
2.00495e-05
1.65212e-05
1.67493e-05
1.67498e-05
2.00504e-05
2.02192e-05
2.09063e-05
1.68363e-05
1.68367e-05
1.71285e-05
1.71289e-05
2.02197e-05
2.09064e-05
1.6836e-05
1.6837e-05
1.71284e-05
1.71294e-05
1.68367e-05
1.71279e-05
1.71289e-05
2.022e-05
2.09071e-05
1.68367e-05
1.71284e-05
1.71291e-05
2.0908e-05
2.10931e-05
2.18326e-05
1.72363e-05
1.72368e-05
1.75891e-05
1.75894e-05
2.10936e-05
2.18328e-05
1.72357e-05
1.7237e-05
1.75887e-05
1.75901e-05
1.72369e-05
1.75882e-05
1.75895e-05
2.10939e-05
2.18335e-05
1.72367e-05
1.75889e-05
1.75893e-05
2.18346e-05
2.20335e-05
2.28164e-05
1.77168e-05
1.77171e-05
1.8128e-05
1.81285e-05
2.2034e-05
2.28164e-05
1.7716e-05
1.77176e-05
1.81272e-05
1.8129e-05
1.77172e-05
1.8127e-05
1.81286e-05
2.20346e-05
2.28173e-05
1.77169e-05
1.81275e-05
1.8128e-05
2.28186e-05
2.30288e-05
2.38413e-05
1.82744e-05
1.82746e-05
1.87398e-05
1.874e-05
2.30292e-05
2.38412e-05
1.82735e-05
1.82753e-05
1.87384e-05
1.87408e-05
1.8275e-05
1.87384e-05
1.87406e-05
2.30299e-05
2.38425e-05
1.82746e-05
1.87392e-05
1.87393e-05
2.38439e-05
2.40625e-05
1.89035e-05
1.89036e-05
1.94204e-05
2.40626e-05
2.48959e-05
1.89026e-05
1.89047e-05
1.89041e-05
1.94187e-05
1.94209e-05
2.40638e-05
1.89038e-05
1.94188e-05
2.4898e-05
6.95567e-05
6.95373e-05
3.11001e-05
4.6424e-05
1.47401e-05
1.63406e-05
4.6834e-05
1.47068e-05
3.05296e-05
5.96692e-05
5.96778e-05
1.88942e-05
5.99229e-05
5.99316e-05
5.5957e-05
7.01476e-05
5.55222e-05
7.01682e-05
6.94899e-05
6.94724e-05
5.59572e-05
7.01492e-05
5.55227e-05
7.01698e-05
1.45208e-05
1.42535e-05
1.45208e-05
1.41611e-05
1.41609e-05
1.41612e-05
1.41612e-05
3.27771e-05
4.75409e-05
1.46376e-05
1.65909e-05
3.22104e-05
4.79235e-05
1.46214e-05
6.94903e-05
6.94728e-05
3.27748e-05
1.46378e-05
3.04455e-05
1.65915e-05
2.11851e-05
1.46216e-05
4.79233e-05
6.02553e-05
6.02639e-05
1.96523e-05
6.04819e-05
6.04906e-05
5.68724e-05
7.01931e-05
5.65092e-05
7.02112e-05
6.9429e-05
6.94132e-05
5.68727e-05
7.01948e-05
5.65095e-05
7.02129e-05
1.41081e-05
1.41081e-05
1.41082e-05
1.39652e-05
1.3965e-05
1.39653e-05
1.39654e-05
3.43917e-05
4.85624e-05
1.46049e-05
1.69279e-05
3.38381e-05
4.89206e-05
1.46074e-05
6.94293e-05
6.94135e-05
3.43897e-05
1.46052e-05
4.8564e-05
1.69285e-05
3.38411e-05
1.46076e-05
4.89206e-05
6.07796e-05
6.07881e-05
2.04694e-05
6.09836e-05
6.09921e-05
5.76414e-05
7.02329e-05
5.7335e-05
7.0249e-05
6.93736e-05
6.93597e-05
5.76416e-05
7.02346e-05
5.73353e-05
7.02506e-05
1.39236e-05
1.39236e-05
1.39237e-05
1.38146e-05
1.38144e-05
1.38148e-05
1.38148e-05
3.59228e-05
4.94975e-05
1.46401e-05
1.73481e-05
3.5389e-05
4.98333e-05
1.466e-05
6.93738e-05
6.93599e-05
3.5921e-05
1.46404e-05
4.94989e-05
1.73486e-05
3.53918e-05
1.46603e-05
4.98332e-05
6.12519e-05
6.12603e-05
2.13637e-05
6.1436e-05
6.14444e-05
5.82956e-05
7.02682e-05
5.80334e-05
7.02828e-05
6.9324e-05
6.93119e-05
5.82957e-05
7.02699e-05
5.80336e-05
7.02845e-05
1.37845e-05
1.37846e-05
1.37846e-05
1.37095e-05
1.37094e-05
1.37098e-05
1.37098e-05
3.7358e-05
5.03545e-05
1.47453e-05
1.78481e-05
3.68479e-05
5.06712e-05
1.47823e-05
6.93241e-05
6.93121e-05
3.73565e-05
1.47457e-05
5.03562e-05
1.78487e-05
3.68503e-05
1.47829e-05
5.0671e-05
6.16797e-05
6.1688e-05
2.23202e-05
6.18484e-05
6.18567e-05
5.88604e-05
7.03004e-05
5.86327e-05
7.03141e-05
6.92799e-05
6.92697e-05
5.88606e-05
7.03021e-05
5.86328e-05
7.03158e-05
1.36908e-05
1.36909e-05
1.36911e-05
1.36496e-05
1.36494e-05
1.365e-05
1.365e-05
3.86927e-05
5.11428e-05
1.49194e-05
1.84239e-05
3.82084e-05
5.14421e-05
1.49733e-05
6.92801e-05
6.92699e-05
3.86916e-05
1.49199e-05
5.11445e-05
1.84245e-05
3.82104e-05
1.4974e-05
5.14422e-05
6.20715e-05
6.20797e-05
2.33272e-05
6.22259e-05
6.2234e-05
5.93561e-05
7.03307e-05
5.9155e-05
7.03439e-05
6.92418e-05
6.92336e-05
5.9356e-05
7.03324e-05
5.9155e-05
7.03457e-05
1.36423e-05
1.36426e-05
1.36427e-05
1.3636e-05
1.36365e-05
3.99281e-05
5.18707e-05
1.51612e-05
1.90706e-05
3.94699e-05
5.21543e-05
1.52318e-05
6.92418e-05
6.92338e-05
3.99274e-05
1.51617e-05
5.18722e-05
1.90709e-05
3.94716e-05
1.52326e-05
5.21544e-05
6.24316e-05
6.24396e-05
2.43682e-05
6.2575e-05
6.25828e-05
5.96765e-05
5.96702e-05
1.88936e-05
5.99308e-05
5.99246e-05
6.95553e-05
6.95358e-05
6.95041e-05
6.95226e-05
1.90966e-05
6.02177e-05
6.02115e-05
5.99785e-05
5.99722e-05
6.95026e-05
6.95211e-05
5.48595e-05
7.0096e-05
7.01194e-05
5.43376e-05
3.11004e-05
1.474e-05
4.64252e-05
1.63409e-05
1.47067e-05
4.68318e-05
3.05284e-05
5.48582e-05
7.00927e-05
7.01161e-05
5.43363e-05
3.13748e-05
1.63952e-05
4.73908e-05
1.46554e-05
4.69948e-05
1.46802e-05
3.19448e-05
5.49573e-05
7.01448e-05
7.01229e-05
5.54337e-05
3.13733e-05
1.63956e-05
1.46553e-05
4.73888e-05
1.468e-05
4.6996e-05
3.19452e-05
5.49559e-05
7.01417e-05
7.01197e-05
5.54323e-05
6.95553e-05
6.9536e-05
6.95572e-05
6.95379e-05
1.90975e-05
6.02101e-05
6.02188e-05
5.99708e-05
5.99795e-05
6.95027e-05
6.95212e-05
6.95047e-05
6.95232e-05
6.94884e-05
6.94708e-05
6.94903e-05
6.94728e-05
6.02577e-05
6.02657e-05
1.96512e-05
6.04843e-05
6.04919e-05
6.94406e-05
6.94572e-05
6.94425e-05
6.94591e-05
1.98123e-05
6.0742e-05
6.07495e-05
6.05268e-05
6.05346e-05
5.59556e-05
7.01447e-05
5.55208e-05
7.01653e-05
3.27734e-05
3.04456e-05
1.46374e-05
1.65911e-05
2.11842e-05
4.79248e-05
1.46211e-05
3.27737e-05
3.04516e-05
1.46373e-05
1.65915e-05
2.11839e-05
4.79262e-05
1.46211e-05
5.60382e-05
7.01904e-05
7.01711e-05
5.64352e-05
5.60369e-05
7.01876e-05
7.01683e-05
5.64338e-05
3.30354e-05
1.66677e-05
4.84345e-05
1.46045e-05
4.80624e-05
1.46122e-05
3.35901e-05
3.30334e-05
1.66681e-05
4.84357e-05
1.46045e-05
4.8065e-05
1.46122e-05
3.35906e-05
6.02628e-05
6.02565e-05
1.96511e-05
6.04896e-05
6.04833e-05
6.94885e-05
6.94709e-05
6.94421e-05
6.94587e-05
1.98125e-05
6.0747e-05
6.07407e-05
6.05323e-05
6.05259e-05
6.94406e-05
6.94572e-05
3.27753e-05
3.04514e-05
1.46376e-05
1.65916e-05
2.11853e-05
4.79271e-05
1.46214e-05
5.59561e-05
7.01452e-05
5.55214e-05
7.01659e-05
3.2776e-05
1.46374e-05
2.45705e-05
1.65921e-05
2.11844e-05
1.46212e-05
4.79257e-05
5.60384e-05
7.01921e-05
7.01728e-05
5.64355e-05
3.30348e-05
1.66675e-05
4.84367e-05
1.46047e-05
4.80661e-05
1.46124e-05
3.3592e-05
5.60372e-05
7.01882e-05
7.01688e-05
5.64343e-05
3.30331e-05
1.66683e-05
1.46046e-05
4.84352e-05
1.46123e-05
4.80663e-05
3.35926e-05
5.59575e-05
7.0148e-05
5.55226e-05
7.01686e-05
3.27776e-05
1.46374e-05
4.75416e-05
1.65916e-05
3.22087e-05
1.46212e-05
4.79219e-05
5.59562e-05
7.01449e-05
5.55213e-05
7.01655e-05
3.30326e-05
1.66674e-05
4.84332e-05
1.46048e-05
4.8063e-05
1.46124e-05
3.35938e-05
5.60385e-05
7.01908e-05
7.01715e-05
5.64357e-05
3.3031e-05
1.66681e-05
1.46046e-05
4.84313e-05
1.46123e-05
4.80637e-05
3.35942e-05
5.60372e-05
7.01878e-05
7.01685e-05
5.64344e-05
6.02646e-05
6.02593e-05
1.96517e-05
6.04907e-05
6.04853e-05
6.94891e-05
6.94715e-05
6.94425e-05
6.94591e-05
1.98129e-05
6.07483e-05
6.0743e-05
6.05334e-05
6.05281e-05
6.94412e-05
6.94579e-05
3.27751e-05
1.46378e-05
3.04522e-05
1.6592e-05
2.11844e-05
1.46216e-05
4.79265e-05
5.59574e-05
7.01483e-05
5.55229e-05
7.01689e-05
5.59562e-05
7.01459e-05
5.55217e-05
7.01666e-05
3.30357e-05
1.66677e-05
1.4605e-05
4.8433e-05
1.46126e-05
4.80644e-05
3.35916e-05
3.30342e-05
1.66682e-05
1.4605e-05
4.84359e-05
1.46127e-05
4.80658e-05
3.35918e-05
5.60385e-05
7.01911e-05
7.01718e-05
5.64357e-05
5.60374e-05
7.01889e-05
7.01695e-05
5.64346e-05
6.94885e-05
6.9471e-05
6.94905e-05
6.9473e-05
1.98135e-05
6.07391e-05
6.07476e-05
6.05247e-05
6.05332e-05
6.94407e-05
6.94573e-05
6.94427e-05
6.94593e-05
6.94274e-05
6.94116e-05
6.94293e-05
6.94136e-05
6.07824e-05
6.079e-05
2.0468e-05
6.09864e-05
6.09937e-05
6.93841e-05
6.9399e-05
6.9386e-05
6.94009e-05
2.0647e-05
6.12183e-05
6.12255e-05
6.10245e-05
6.1032e-05
5.68709e-05
7.01903e-05
5.65078e-05
7.02084e-05
3.43882e-05
4.85621e-05
1.46047e-05
1.69283e-05
3.38407e-05
4.8922e-05
1.46071e-05
3.43886e-05
4.85643e-05
1.46046e-05
1.69287e-05
3.38388e-05
4.89229e-05
1.46071e-05
5.694e-05
7.02306e-05
7.02136e-05
5.72732e-05
5.69386e-05
7.02279e-05
7.02108e-05
5.72717e-05
3.46267e-05
1.70261e-05
4.93883e-05
1.46244e-05
4.90399e-05
1.46131e-05
3.51654e-05
3.46248e-05
1.70265e-05
4.93894e-05
1.46243e-05
4.90419e-05
1.46131e-05
3.51657e-05
6.07874e-05
6.0781e-05
2.04681e-05
6.09912e-05
6.09848e-05
6.94274e-05
6.94116e-05
6.93858e-05
6.94006e-05
2.06473e-05
6.12232e-05
6.12169e-05
6.10295e-05
6.1023e-05
6.93841e-05
6.9399e-05
3.43901e-05
4.85656e-05
1.46049e-05
1.69284e-05
3.38402e-05
4.89243e-05
1.46073e-05
5.68716e-05
7.01909e-05
5.65082e-05
7.0209e-05
3.43905e-05
1.46048e-05
4.85657e-05
1.69293e-05
3.38386e-05
1.46072e-05
4.89225e-05
5.69403e-05
7.02323e-05
7.02153e-05
5.72734e-05
3.46264e-05
1.70257e-05
4.93906e-05
1.46246e-05
4.90432e-05
1.46134e-05
3.51671e-05
5.6939e-05
7.02285e-05
7.02114e-05
5.72723e-05
3.46248e-05
1.70268e-05
1.46245e-05
4.93885e-05
1.46133e-05
4.90436e-05
3.51674e-05
5.6873e-05
7.01934e-05
5.65095e-05
7.02115e-05
3.43921e-05
1.46048e-05
4.8563e-05
1.69287e-05
3.38366e-05
1.46072e-05
4.8919e-05
5.68717e-05
7.01905e-05
5.65082e-05
7.02087e-05
3.46244e-05
1.70254e-05
4.93871e-05
1.46246e-05
4.90402e-05
1.46134e-05
3.51687e-05
5.69404e-05
7.02309e-05
7.02139e-05
5.72737e-05
3.46229e-05
1.70265e-05
1.46245e-05
4.93855e-05
1.46132e-05
4.90407e-05
3.5169e-05
5.69391e-05
7.02281e-05
7.02111e-05
5.72724e-05
6.07888e-05
6.07835e-05
2.04687e-05
6.09925e-05
6.09872e-05
6.9428e-05
6.94123e-05
6.9386e-05
6.94008e-05
2.06478e-05
6.12241e-05
6.12189e-05
6.10308e-05
6.10256e-05
6.93847e-05
6.93996e-05
3.43898e-05
1.46052e-05
4.85651e-05
1.69289e-05
3.38396e-05
1.46076e-05
4.89234e-05
5.68728e-05
7.01938e-05
5.65097e-05
7.02118e-05
5.68717e-05
7.01916e-05
5.65085e-05
7.02097e-05
3.46272e-05
1.7026e-05
1.46249e-05
4.93868e-05
1.46137e-05
4.90419e-05
3.51668e-05
3.46257e-05
1.70264e-05
1.46249e-05
4.93898e-05
1.46137e-05
4.90429e-05
3.51668e-05
5.69404e-05
7.02313e-05
7.02143e-05
5.72736e-05
5.69392e-05
7.02292e-05
7.02122e-05
5.72725e-05
6.94275e-05
6.94118e-05
6.94295e-05
6.94138e-05
2.06484e-05
6.12154e-05
6.12239e-05
6.1022e-05
6.10304e-05
6.93842e-05
6.93991e-05
6.93863e-05
6.94012e-05
6.9372e-05
6.93581e-05
6.93739e-05
6.936e-05
6.12546e-05
6.12619e-05
2.13616e-05
6.1439e-05
6.14462e-05
6.93335e-05
6.93465e-05
6.93354e-05
6.93483e-05
2.15557e-05
6.16498e-05
6.16569e-05
6.14735e-05
6.14808e-05
5.764e-05
7.02301e-05
5.73336e-05
7.02462e-05
3.59196e-05
4.94972e-05
1.46398e-05
1.73488e-05
3.53913e-05
4.98345e-05
1.46598e-05
3.59199e-05
4.9499e-05
1.46398e-05
1.73492e-05
3.53894e-05
4.98354e-05
1.46597e-05
5.76982e-05
7.02663e-05
7.0251e-05
5.7981e-05
5.76968e-05
7.02636e-05
7.02482e-05
5.79796e-05
3.61326e-05
1.74666e-05
5.02623e-05
1.47124e-05
4.99347e-05
1.46838e-05
3.66498e-05
3.61307e-05
1.7467e-05
5.02632e-05
1.47122e-05
4.99362e-05
1.46838e-05
3.66499e-05
6.12596e-05
6.12532e-05
2.13619e-05
6.14436e-05
6.14373e-05
6.93719e-05
6.9358e-05
6.93351e-05
6.9348e-05
2.15562e-05
6.16545e-05
6.16482e-05
6.14782e-05
6.14718e-05
6.93334e-05
6.93463e-05
3.59213e-05
4.95002e-05
1.46401e-05
1.73486e-05
3.5391e-05
4.9837e-05
1.466e-05
5.76405e-05
7.02307e-05
5.7334e-05
7.02468e-05
3.59213e-05
1.464e-05
4.95005e-05
1.73498e-05
3.53895e-05
1.46599e-05
4.98346e-05
5.76984e-05
7.0268e-05
7.02527e-05
5.79813e-05
3.61324e-05
1.74659e-05
5.02649e-05
1.47126e-05
4.99376e-05
1.4684e-05
3.66513e-05
5.76972e-05
7.02642e-05
7.02489e-05
5.79801e-05
3.6131e-05
1.74674e-05
1.47125e-05
5.0262e-05
1.4684e-05
4.99383e-05
3.66512e-05
5.7642e-05
7.02332e-05
5.73354e-05
7.02492e-05
3.59231e-05
1.464e-05
4.94979e-05
1.73494e-05
3.53876e-05
1.46599e-05
4.98318e-05
5.76407e-05
7.02304e-05
5.73341e-05
7.02465e-05
3.61306e-05
1.74657e-05
5.02612e-05
1.47125e-05
4.99349e-05
1.46841e-05
3.66528e-05
5.76986e-05
7.02666e-05
7.02513e-05
5.79816e-05
3.61292e-05
1.74671e-05
1.47124e-05
5.02596e-05
1.4684e-05
4.99351e-05
3.66529e-05
5.76973e-05
7.02639e-05
7.02485e-05
5.79803e-05
6.12604e-05
6.12553e-05
2.13623e-05
6.14448e-05
6.14396e-05
6.93725e-05
6.93587e-05
6.93353e-05
6.93483e-05
2.15564e-05
6.16556e-05
6.16505e-05
6.14795e-05
6.14744e-05
6.9334e-05
6.9347e-05
3.5921e-05
1.46404e-05
4.95e-05
1.73493e-05
3.53903e-05
1.46603e-05
4.9836e-05
5.76417e-05
7.02335e-05
5.73354e-05
7.02495e-05
5.76406e-05
7.02315e-05
5.73343e-05
7.02475e-05
3.61331e-05
1.74662e-05
1.4713e-05
5.02609e-05
1.46844e-05
4.99368e-05
3.66511e-05
3.61316e-05
1.74669e-05
1.47129e-05
5.02636e-05
1.46844e-05
4.99372e-05
3.6651e-05
5.76985e-05
7.02669e-05
7.02516e-05
5.79813e-05
5.76973e-05
7.02649e-05
7.02496e-05
5.79803e-05
6.9372e-05
6.93581e-05
6.93742e-05
6.93602e-05
2.15577e-05
6.16465e-05
6.16549e-05
6.14707e-05
6.1479e-05
6.93335e-05
6.93464e-05
6.93356e-05
6.93486e-05
6.93224e-05
6.93103e-05
6.93242e-05
6.93122e-05
6.16828e-05
6.16901e-05
2.23183e-05
6.18514e-05
6.18584e-05
6.92884e-05
6.92996e-05
6.92904e-05
6.93015e-05
2.25254e-05
6.20442e-05
6.20513e-05
6.18828e-05
6.189e-05
5.82941e-05
7.02655e-05
5.80319e-05
7.02801e-05
3.73553e-05
5.03543e-05
1.4745e-05
1.78491e-05
3.68497e-05
5.06724e-05
1.47822e-05
3.73552e-05
5.03555e-05
1.4745e-05
1.78494e-05
3.68478e-05
5.06731e-05
1.4782e-05
5.8344e-05
7.02987e-05
7.02846e-05
5.85878e-05
5.83425e-05
7.0296e-05
7.02819e-05
5.85863e-05
3.75422e-05
1.79864e-05
5.10658e-05
1.48693e-05
5.07564e-05
1.48235e-05
3.80355e-05
3.75404e-05
1.79866e-05
5.10666e-05
1.48691e-05
5.07575e-05
1.48235e-05
3.80353e-05
6.16876e-05
6.16812e-05
2.23184e-05
6.18558e-05
6.18496e-05
6.93222e-05
6.93101e-05
6.92901e-05
6.93012e-05
2.25258e-05
6.20488e-05
6.20426e-05
6.18874e-05
6.1881e-05
6.92883e-05
6.92995e-05
3.73566e-05
5.03569e-05
1.47453e-05
1.78485e-05
3.68498e-05
5.0675e-05
1.47824e-05
5.82945e-05
7.02661e-05
5.80324e-05
7.02807e-05
3.73563e-05
1.47453e-05
5.03577e-05
1.78501e-05
3.68484e-05
1.47824e-05
5.06718e-05
5.83441e-05
7.03004e-05
7.02863e-05
5.85879e-05
3.75424e-05
1.79855e-05
5.10685e-05
1.48694e-05
5.07589e-05
1.48238e-05
3.80365e-05
5.83428e-05
7.02966e-05
7.02825e-05
5.85867e-05
3.75411e-05
1.79872e-05
1.48694e-05
5.10651e-05
1.48238e-05
5.07599e-05
3.8036e-05
5.82961e-05
7.02685e-05
5.80337e-05
7.02831e-05
3.7358e-05
1.47453e-05
5.03543e-05
1.78495e-05
3.68465e-05
1.47823e-05
5.06699e-05
5.82948e-05
7.02658e-05
5.80325e-05
7.02804e-05
3.75406e-05
1.79851e-05
5.10649e-05
1.48694e-05
5.07565e-05
1.48238e-05
3.80379e-05
5.83443e-05
7.0299e-05
7.02848e-05
5.85883e-05
3.75393e-05
1.79868e-05
1.48694e-05
5.10636e-05
1.48237e-05
5.07564e-05
3.80378e-05
5.83431e-05
7.02963e-05
7.02822e-05
5.8587e-05
6.16886e-05
6.16836e-05
2.23192e-05
6.18568e-05
6.18519e-05
6.93228e-05
6.93108e-05
6.92903e-05
6.93014e-05
2.25264e-05
6.20498e-05
6.2045e-05
6.18885e-05
6.18836e-05
6.9289e-05
6.93001e-05
3.73563e-05
1.47456e-05
5.03565e-05
1.78491e-05
3.68488e-05
1.47827e-05
5.06738e-05
5.82959e-05
7.02687e-05
5.80336e-05
7.02834e-05
5.82947e-05
7.02669e-05
5.80326e-05
7.02815e-05
3.75428e-05
1.79858e-05
1.48699e-05
5.10647e-05
1.48242e-05
5.07585e-05
3.80367e-05
3.75414e-05
1.79865e-05
1.48698e-05
5.10671e-05
1.48241e-05
5.07587e-05
3.80364e-05
5.83442e-05
7.02992e-05
7.02851e-05
5.85881e-05
5.83431e-05
7.02975e-05
7.02833e-05
5.8587e-05
6.93223e-05
6.93103e-05
6.93245e-05
6.93124e-05
2.25273e-05
6.20412e-05
6.20494e-05
6.188e-05
6.18883e-05
6.92885e-05
6.92996e-05
6.92906e-05
6.93018e-05
6.92783e-05
6.9268e-05
6.92802e-05
6.927e-05
6.20743e-05
6.20815e-05
2.33246e-05
6.22288e-05
6.22359e-05
6.92492e-05
6.92584e-05
6.92512e-05
6.92603e-05
2.35417e-05
6.24066e-05
6.24137e-05
6.22576e-05
6.22648e-05
5.88589e-05
7.02977e-05
5.86312e-05
7.03113e-05
3.86905e-05
5.11426e-05
1.4919e-05
1.8425e-05
3.82097e-05
5.14431e-05
1.49733e-05
3.86901e-05
5.11437e-05
1.4919e-05
1.84254e-05
3.8208e-05
5.14436e-05
1.4973e-05
5.89023e-05
7.03291e-05
7.03157e-05
5.91157e-05
5.89008e-05
7.03264e-05
7.0313e-05
5.91142e-05
3.88524e-05
1.85801e-05
5.1806e-05
1.50941e-05
5.15133e-05
1.50314e-05
3.93204e-05
3.88507e-05
1.85802e-05
5.18062e-05
1.50938e-05
5.15142e-05
1.50314e-05
3.93198e-05
6.2079e-05
6.20727e-05
2.33248e-05
6.22332e-05
6.2227e-05
6.92782e-05
6.92679e-05
6.92509e-05
6.926e-05
2.35421e-05
6.24109e-05
6.24047e-05
6.22621e-05
6.22558e-05
6.92491e-05
6.92582e-05
3.86913e-05
5.1145e-05
1.49194e-05
1.8424e-05
3.82101e-05
5.14458e-05
1.49735e-05
5.88592e-05
7.02983e-05
5.86315e-05
7.0312e-05
3.86905e-05
1.49194e-05
5.11459e-05
1.8426e-05
3.82089e-05
1.49735e-05
5.14423e-05
5.89024e-05
7.03308e-05
7.03174e-05
5.91157e-05
3.8853e-05
1.85792e-05
5.18086e-05
1.50944e-05
5.15157e-05
1.50318e-05
3.9321e-05
5.8901e-05
7.0327e-05
7.03135e-05
5.91143e-05
3.8852e-05
1.85813e-05
1.50944e-05
5.18051e-05
1.50318e-05
5.15167e-05
3.93199e-05
5.8861e-05
7.03006e-05
5.86331e-05
7.03143e-05
3.86925e-05
1.49193e-05
5.11424e-05
1.84258e-05
3.82071e-05
1.49734e-05
5.1441e-05
5.88597e-05
7.0298e-05
5.86318e-05
7.03116e-05
3.88514e-05
1.85784e-05
5.18049e-05
1.50942e-05
5.15133e-05
1.50318e-05
3.93223e-05
5.89027e-05
7.03294e-05
7.03159e-05
5.91164e-05
3.88502e-05
1.85808e-05
1.50944e-05
5.18041e-05
1.50318e-05
5.15129e-05
3.93219e-05
5.89014e-05
7.03267e-05
7.03132e-05
5.91151e-05
6.208e-05
6.20753e-05
2.33257e-05
6.22342e-05
6.22296e-05
6.92788e-05
6.92686e-05
6.92511e-05
6.92602e-05
2.35428e-05
6.24121e-05
6.24075e-05
6.22633e-05
6.22586e-05
6.92498e-05
6.92589e-05
3.86913e-05
1.49198e-05
5.11449e-05
1.84248e-05
3.8209e-05
1.49738e-05
5.14443e-05
5.88607e-05
7.03009e-05
5.8633e-05
7.03146e-05
5.88596e-05
7.02991e-05
5.86319e-05
7.03128e-05
3.88532e-05
1.85797e-05
1.50949e-05
5.18054e-05
1.50324e-05
5.15152e-05
3.93215e-05
3.88518e-05
1.85804e-05
1.50948e-05
5.1807e-05
1.50323e-05
5.15155e-05
3.93211e-05
5.89026e-05
7.03297e-05
7.03162e-05
5.91161e-05
5.89014e-05
7.03279e-05
7.03144e-05
5.91149e-05
6.92783e-05
6.92681e-05
6.92805e-05
6.92702e-05
2.35441e-05
6.24036e-05
6.24115e-05
6.22548e-05
6.22629e-05
6.92493e-05
6.92584e-05
6.92514e-05
6.92606e-05
6.92401e-05
6.92319e-05
6.9242e-05
6.92338e-05
6.24346e-05
6.24417e-05
2.43657e-05
6.25781e-05
6.25852e-05
6.92232e-05
6.92251e-05
2.45906e-05
6.26047e-05
6.26118e-05
5.93546e-05
7.0328e-05
5.91535e-05
7.03413e-05
3.99264e-05
5.18707e-05
1.51608e-05
1.90718e-05
3.94707e-05
5.21549e-05
1.52318e-05
3.99256e-05
5.18716e-05
1.51607e-05
1.90722e-05
3.94691e-05
5.21553e-05
1.52315e-05
5.9393e-05
7.03455e-05
5.9583e-05
5.93915e-05
7.0356e-05
7.03428e-05
5.95815e-05
4.00658e-05
1.92436e-05
1.53861e-05
5.22147e-05
1.53068e-05
4.05088e-05
4.00644e-05
1.92436e-05
5.24903e-05
1.53858e-05
5.22157e-05
1.53067e-05
4.05075e-05
6.2439e-05
6.24327e-05
2.43657e-05
6.25827e-05
6.25766e-05
6.924e-05
6.92318e-05
6.92176e-05
6.92248e-05
2.4591e-05
6.27467e-05
6.27407e-05
6.26094e-05
6.26032e-05
6.92158e-05
6.9223e-05
3.9927e-05
5.18731e-05
1.51611e-05
1.90701e-05
3.94713e-05
5.21576e-05
1.5232e-05
5.93546e-05
7.03285e-05
5.91537e-05
7.03418e-05
3.99255e-05
1.51612e-05
5.18738e-05
1.90726e-05
3.94705e-05
1.52321e-05
5.21538e-05
5.9393e-05
7.03472e-05
4.00662e-05
1.92428e-05
5.2217e-05
1.53071e-05
5.93916e-05
7.03434e-05
4.00656e-05
1.92446e-05
1.53071e-05
5.22173e-05
5.93568e-05
7.03309e-05
5.91554e-05
7.03442e-05
3.99273e-05
1.51611e-05
5.18699e-05
1.90725e-05
3.94689e-05
1.52321e-05
5.2153e-05
5.93555e-05
7.03283e-05
5.91541e-05
7.03415e-05
4.00653e-05
1.92417e-05
5.24896e-05
1.53861e-05
5.22148e-05
1.53072e-05
4.05097e-05
5.93934e-05
7.0359e-05
7.03457e-05
5.95835e-05
4.00645e-05
1.9244e-05
1.53863e-05
5.24887e-05
1.53071e-05
5.22136e-05
4.05089e-05
5.93921e-05
7.03563e-05
7.0343e-05
5.95822e-05
6.24401e-05
6.24355e-05
2.43668e-05
6.2583e-05
6.25785e-05
6.92406e-05
6.92324e-05
6.92248e-05
2.45915e-05
6.26099e-05
6.26053e-05
6.92236e-05
3.99269e-05
1.51616e-05
5.18729e-05
1.90709e-05
3.94702e-05
1.52325e-05
5.21558e-05
5.93565e-05
7.03312e-05
5.91553e-05
7.03445e-05
5.93553e-05
7.03295e-05
5.91541e-05
7.03428e-05
4.00667e-05
1.92428e-05
1.53869e-05
1.53077e-05
5.22158e-05
4.05095e-05
4.00653e-05
1.92438e-05
1.53868e-05
5.24915e-05
1.53075e-05
5.22166e-05
4.0509e-05
5.93933e-05
7.0346e-05
5.95832e-05
5.93921e-05
7.03576e-05
7.03443e-05
5.95821e-05
6.92401e-05
6.9232e-05
6.92423e-05
6.92341e-05
2.4593e-05
6.27398e-05
6.27473e-05
6.26017e-05
6.26096e-05
6.92161e-05
6.92231e-05
6.92182e-05
6.92253e-05
6.95544e-05
6.95395e-05
8.78539e-05
7.23294e-05
7.23233e-05
7.2332e-05
7.23262e-05
8.79188e-05
5.8164e-05
4.04851e-05
5.97727e-05
6.89354e-05
4.07003e-05
6.89589e-05
5.79939e-05
5.82299e-05
4.05027e-05
5.97815e-05
6.8947e-05
6.89705e-05
5.80601e-05
4.07195e-05
5.82504e-05
6.89913e-05
5.98221e-05
4.10634e-05
4.08507e-05
6.89685e-05
5.84166e-05
5.83166e-05
6.9003e-05
5.98308e-05
4.10826e-05
6.89802e-05
5.84823e-05
4.08681e-05
8.78254e-05
7.23531e-05
7.23473e-05
7.23504e-05
7.23443e-05
8.77586e-05
6.99182e-05
5.5786e-05
6.93389e-05
6.13112e-05
6.93244e-05
6.11855e-05
6.99248e-05
7.08248e-05
7.46935e-05
7.01565e-05
7.4742e-05
7.08266e-05
6.99177e-05
5.5701e-05
6.93041e-05
6.09933e-05
6.93192e-05
6.11244e-05
6.99107e-05
7.08057e-05
7.48048e-05
7.01595e-05
7.47587e-05
7.08038e-05
6.94881e-05
6.94742e-05
6.99183e-05
5.57864e-05
6.13108e-05
6.9339e-05
6.11851e-05
6.93246e-05
6.99248e-05
7.08251e-05
7.46943e-05
7.01581e-05
7.47429e-05
7.0827e-05
6.99178e-05
5.57014e-05
6.0993e-05
6.93042e-05
6.11241e-05
6.93193e-05
6.99107e-05
7.08061e-05
7.48057e-05
7.01612e-05
7.47594e-05
7.08041e-05
6.94885e-05
6.94745e-05
8.82023e-05
7.22484e-05
7.22422e-05
7.22505e-05
7.22447e-05
8.82591e-05
5.91341e-05
4.19084e-05
6.9062e-05
6.03478e-05
5.89794e-05
4.21145e-05
6.9083e-05
5.91995e-05
4.19252e-05
6.90737e-05
6.03565e-05
5.90447e-05
4.21336e-05
6.90947e-05
8.81779e-05
7.22702e-05
7.22645e-05
8.8119e-05
7.22681e-05
7.22619e-05
5.92109e-05
6.91118e-05
6.03918e-05
4.24532e-05
4.225e-05
6.90915e-05
5.93615e-05
5.92761e-05
6.91236e-05
6.04004e-05
4.24723e-05
4.22666e-05
6.91032e-05
5.94267e-05
6.99402e-05
5.67293e-05
6.94075e-05
6.19838e-05
6.93959e-05
6.1877e-05
6.99447e-05
7.07409e-05
7.49341e-05
7.0201e-05
7.07429e-05
7.49739e-05
6.99409e-05
5.66586e-05
6.93796e-05
6.17149e-05
6.99359e-05
6.9392e-05
6.1826e-05
7.0722e-05
7.50246e-05
7.02035e-05
7.49866e-05
7.072e-05
6.94275e-05
6.94146e-05
6.99402e-05
5.67296e-05
6.19833e-05
6.94076e-05
6.18766e-05
6.9396e-05
6.99447e-05
7.07412e-05
7.49349e-05
7.02027e-05
7.07432e-05
7.49748e-05
6.99409e-05
5.66589e-05
6.17144e-05
6.93797e-05
6.9936e-05
6.18255e-05
6.93921e-05
7.07223e-05
7.50254e-05
7.02052e-05
7.49873e-05
7.07203e-05
6.94278e-05
6.94149e-05
8.85115e-05
7.21734e-05
7.21672e-05
7.21751e-05
7.21693e-05
8.85626e-05
6.00122e-05
4.32373e-05
6.91752e-05
6.08629e-05
5.98712e-05
4.3434e-05
6.91942e-05
6.00769e-05
4.32533e-05
6.91869e-05
6.08714e-05
5.99357e-05
4.34528e-05
6.92059e-05
8.84899e-05
7.21934e-05
7.21877e-05
8.84367e-05
7.21917e-05
7.21855e-05
6.00821e-05
6.92203e-05
6.09024e-05
4.37501e-05
4.35561e-05
6.92018e-05
6.02195e-05
6.01464e-05
6.9232e-05
6.09108e-05
4.37687e-05
4.3572e-05
6.92135e-05
6.0284e-05
6.995e-05
5.75204e-05
6.94586e-05
6.25556e-05
6.94499e-05
6.24639e-05
6.99532e-05
7.06579e-05
7.51289e-05
7.02399e-05
7.06598e-05
7.5162e-05
6.9952e-05
5.74611e-05
6.9438e-05
6.23258e-05
6.99486e-05
6.94474e-05
6.24209e-05
7.06393e-05
7.52035e-05
7.02421e-05
7.51717e-05
7.06375e-05
6.93725e-05
6.93606e-05
6.99501e-05
5.75205e-05
6.2555e-05
6.94587e-05
6.24633e-05
6.945e-05
6.99532e-05
7.06582e-05
7.51296e-05
7.02416e-05
7.06602e-05
7.51628e-05
6.99521e-05
5.74613e-05
6.23252e-05
6.94381e-05
6.99486e-05
6.24203e-05
6.94475e-05
7.06397e-05
7.52043e-05
7.02438e-05
7.51724e-05
7.06378e-05
6.93728e-05
6.93609e-05
8.87838e-05
7.21039e-05
7.20977e-05
7.21051e-05
7.20993e-05
8.8829e-05
6.08108e-05
4.44775e-05
6.92774e-05
6.13271e-05
6.0683e-05
4.46649e-05
6.92947e-05
6.08748e-05
4.44929e-05
6.92891e-05
6.13355e-05
6.07467e-05
4.4683e-05
6.93064e-05
8.87653e-05
7.21219e-05
7.21162e-05
8.87189e-05
7.21206e-05
7.21144e-05
6.0874e-05
6.93185e-05
6.13626e-05
4.49586e-05
4.47738e-05
6.93015e-05
6.09988e-05
6.09376e-05
6.93302e-05
6.1371e-05
4.49765e-05
4.47891e-05
6.93132e-05
6.10625e-05
6.99501e-05
5.81916e-05
6.94933e-05
6.30474e-05
6.94872e-05
6.29677e-05
6.99521e-05
7.05771e-05
7.52888e-05
7.02747e-05
7.05789e-05
7.53169e-05
6.99531e-05
5.81413e-05
6.94794e-05
6.28485e-05
6.99509e-05
6.9486e-05
6.2931e-05
7.05591e-05
7.53515e-05
7.02765e-05
7.53244e-05
7.05574e-05
6.93233e-05
6.93124e-05
6.99502e-05
5.81917e-05
6.30468e-05
6.94934e-05
6.2967e-05
6.94873e-05
6.99521e-05
7.05774e-05
7.52895e-05
7.02764e-05
7.05792e-05
7.53177e-05
6.99532e-05
5.81414e-05
6.28479e-05
6.94794e-05
6.99509e-05
6.29304e-05
6.94862e-05
7.05595e-05
7.53523e-05
7.02782e-05
7.53251e-05
7.05577e-05
6.93235e-05
6.93126e-05
8.90332e-05
7.20415e-05
7.20352e-05
7.20423e-05
7.20365e-05
8.90748e-05
6.15418e-05
4.56328e-05
6.93714e-05
6.17487e-05
6.14235e-05
4.58121e-05
6.93877e-05
6.16049e-05
4.56478e-05
6.93831e-05
6.1757e-05
6.14864e-05
4.58294e-05
6.93993e-05
8.90162e-05
7.20575e-05
7.20518e-05
8.89729e-05
7.20567e-05
7.20504e-05
6.16002e-05
6.94098e-05
6.17811e-05
4.60871e-05
4.59103e-05
6.93939e-05
6.17157e-05
6.16629e-05
6.94214e-05
6.17894e-05
4.61041e-05
4.59253e-05
6.94056e-05
6.17786e-05
6.99426e-05
5.87697e-05
6.95143e-05
6.34761e-05
6.95103e-05
6.34058e-05
6.99438e-05
7.04997e-05
7.54225e-05
7.03064e-05
7.05012e-05
7.54469e-05
6.99464e-05
5.87264e-05
6.95057e-05
6.33016e-05
6.99451e-05
6.95102e-05
6.33741e-05
7.04824e-05
7.54764e-05
7.03081e-05
7.54528e-05
7.0481e-05
6.92797e-05
6.92698e-05
6.99427e-05
5.87698e-05
6.34755e-05
6.95144e-05
6.34051e-05
6.95104e-05
6.99438e-05
7.05e-05
7.54233e-05
7.03081e-05
7.05016e-05
7.54478e-05
6.99465e-05
5.87265e-05
6.3301e-05
6.95058e-05
6.99451e-05
6.33735e-05
6.95103e-05
7.04828e-05
7.54773e-05
7.03098e-05
7.54535e-05
7.04813e-05
6.92799e-05
6.92699e-05
8.92567e-05
7.19847e-05
7.19784e-05
7.19849e-05
7.19792e-05
8.92946e-05
6.22151e-05
4.67142e-05
6.94589e-05
6.21346e-05
6.21064e-05
4.68847e-05
6.94741e-05
6.22772e-05
4.67291e-05
6.94705e-05
6.21428e-05
6.21684e-05
4.69007e-05
6.94856e-05
8.92416e-05
7.19987e-05
7.19929e-05
8.92028e-05
7.19982e-05
7.1992e-05
6.22686e-05
6.94949e-05
6.21642e-05
4.71408e-05
4.69731e-05
6.94799e-05
6.2375e-05
6.23303e-05
6.95064e-05
6.21723e-05
4.71565e-05
4.69881e-05
6.94915e-05
6.24368e-05
6.993e-05
5.92757e-05
6.95247e-05
6.38552e-05
6.95219e-05
6.37923e-05
6.99306e-05
7.04266e-05
7.55372e-05
7.03366e-05
7.04277e-05
7.55588e-05
6.99342e-05
5.92376e-05
6.95199e-05
6.36998e-05
6.99335e-05
6.95228e-05
6.37644e-05
7.04101e-05
7.55846e-05
7.03381e-05
7.55635e-05
7.04091e-05
6.92421e-05
6.92331e-05
6.993e-05
5.92757e-05
6.38546e-05
6.95248e-05
6.37916e-05
6.95221e-05
6.99306e-05
7.04269e-05
7.5538e-05
7.03383e-05
7.04281e-05
7.55598e-05
6.99343e-05
5.92376e-05
6.36991e-05
6.952e-05
6.99336e-05
6.37638e-05
6.95229e-05
7.04105e-05
7.55856e-05
7.03398e-05
7.55643e-05
7.04094e-05
6.92423e-05
6.92331e-05
8.94635e-05
7.19341e-05
7.19278e-05
7.19341e-05
7.19282e-05
8.94977e-05
6.28387e-05
4.77257e-05
6.95417e-05
6.24904e-05
6.27372e-05
4.78869e-05
6.95562e-05
6.28998e-05
4.77403e-05
6.95531e-05
6.24982e-05
6.27982e-05
4.79019e-05
6.95676e-05
8.94501e-05
7.19464e-05
7.19406e-05
8.94145e-05
7.19463e-05
7.194e-05
6.28882e-05
6.95761e-05
6.25177e-05
4.81272e-05
4.79691e-05
6.95617e-05
6.29872e-05
6.2949e-05
6.95874e-05
6.25257e-05
4.81422e-05
4.79838e-05
6.95732e-05
6.30481e-05
8.78518e-05
7.23236e-05
7.23293e-05
7.23266e-05
7.23324e-05
8.79194e-05
5.82283e-05
4.05006e-05
5.97806e-05
6.89465e-05
6.89702e-05
5.80568e-05
4.07177e-05
5.81645e-05
4.04832e-05
5.97745e-05
6.89357e-05
4.07017e-05
6.89594e-05
5.79917e-05
5.83149e-05
6.90026e-05
5.983e-05
4.10806e-05
6.89799e-05
5.84811e-05
4.08666e-05
5.82499e-05
6.89917e-05
5.98237e-05
4.10646e-05
4.08493e-05
6.89691e-05
5.84171e-05
8.78215e-05
7.2347e-05
7.23528e-05
7.23444e-05
7.235e-05
8.77524e-05
6.9553e-05
6.9538e-05
6.95061e-05
6.95205e-05
8.80059e-05
7.23053e-05
7.23111e-05
8.79461e-05
7.23022e-05
7.23079e-05
5.88049e-05
4.17863e-05
6.01226e-05
6.90644e-05
6.90428e-05
5.8963e-05
4.15766e-05
5.87407e-05
4.17704e-05
6.01162e-05
6.90535e-05
6.90319e-05
4.15595e-05
5.8899e-05
5.87248e-05
6.90118e-05
4.12247e-05
6.00762e-05
5.85634e-05
6.90338e-05
4.14361e-05
5.86611e-05
6.9001e-05
4.12075e-05
6.007e-05
5.8499e-05
6.90229e-05
4.14202e-05
8.80304e-05
7.22815e-05
7.22872e-05
7.22841e-05
7.229e-05
8.80882e-05
6.95046e-05
6.9519e-05
6.98831e-05
6.05121e-05
6.9255e-05
5.46545e-05
6.03629e-05
6.92385e-05
6.98917e-05
7.09081e-05
7.0106e-05
7.43914e-05
7.44507e-05
7.09094e-05
7.08886e-05
7.45289e-05
7.01097e-05
7.44727e-05
7.08872e-05
6.98816e-05
5.45521e-05
6.01337e-05
6.92156e-05
6.02896e-05
6.92323e-05
6.98725e-05
6.98818e-05
6.92544e-05
6.05082e-05
5.46531e-05
6.92379e-05
6.03588e-05
6.98905e-05
7.09068e-05
7.01027e-05
7.43755e-05