/*--------------------------------*- C++ -*----------------------------------*\
| =========                 |                                                 |
| \\      /  F ield         | OpenFOAM: The Open Source CFD Toolbox           |
|  \\    /   O peration     | Version:  v2012                                 |
|   \\  /    A nd           | Website:  www.openfoam.com                      |
|    \\/     M anipulation  |                                                 |
\*---------------------------------------------------------------------------*/
FoamFile
{
    version     2.0;
    format      ascii;
    class       volScalarField;
    location    "625";
    object      epsilon;
}
// * * * * * * * * * * * * * * * * * * * * * * * * * * * * * * * * * * * * * //

dimensions      [0 2 -3 0 0 0 0];


internalField   nonuniform List<scalar> 
171728
(
4.95567e-07
4.97331e-07
4.97331e-07
4.99575e-07
4.45573e-07
4.53736e-07
4.53738e-07
4.63711e-07
4.03752e-07
4.18514e-07
4.18515e-07
4.39411e-07
3.68363e-07
3.88554e-07
3.88556e-07
4.1767e-07
3.38014e-07
3.62105e-07
3.62107e-07
3.96085e-07
3.11645e-07
3.38275e-07
3.38278e-07
3.74584e-07
2.88472e-07
3.1664e-07
3.16643e-07
3.53714e-07
2.67922e-07
2.97024e-07
2.97027e-07
3.34151e-07
2.49579e-07
2.79373e-07
2.79375e-07
3.16487e-07
2.33136e-07
2.63681e-07
2.63684e-07
3.01165e-07
2.18365e-07
2.49957e-07
2.4996e-07
2.88496e-07
2.05089e-07
2.38201e-07
2.38204e-07
2.78699e-07
1.93171e-07
2.28413e-07
2.28418e-07
2.71882e-07
1.82497e-07
2.20602e-07
2.20608e-07
2.68169e-07
1.72978e-07
2.14774e-07
2.14782e-07
2.67651e-07
1.6454e-07
2.10941e-07
2.10948e-07
2.705e-07
1.5712e-07
2.09114e-07
2.09118e-07
2.76699e-07
1.50666e-07
2.09305e-07
2.09309e-07
2.86284e-07
1.45134e-07
2.11563e-07
2.11565e-07
2.99234e-07
1.40488e-07
2.15905e-07
2.15904e-07
3.15613e-07
1.367e-07
2.22346e-07
2.22348e-07
3.3537e-07
1.33745e-07
2.30908e-07
2.30911e-07
3.5841e-07
1.31601e-07
2.41575e-07
2.41578e-07
3.84543e-07
1.30254e-07
2.5432e-07
2.54327e-07
4.13526e-07
1.2969e-07
2.69107e-07
2.69118e-07
4.45002e-07
1.29919e-07
2.85896e-07
2.85905e-07
4.78659e-07
1.30909e-07
3.04563e-07
3.04576e-07
5.14048e-07
1.32663e-07
3.25021e-07
3.25039e-07
5.50667e-07
1.35185e-07
3.4711e-07
3.47133e-07
5.88039e-07
1.38479e-07
3.70784e-07
3.70816e-07
6.25826e-07
1.42556e-07
3.95852e-07
3.95878e-07
6.63712e-07
1.47377e-07
4.22077e-07
4.2209e-07
7.01201e-07
1.52975e-07
4.49373e-07
4.49425e-07
7.38009e-07
1.59429e-07
4.77644e-07
4.77712e-07
7.74115e-07
1.66679e-07
5.06431e-07
5.06426e-07
8.08922e-07
1.74496e-07
5.35589e-07
5.35652e-07
8.42412e-07
1.83107e-07
5.65429e-07
5.65478e-07
8.75489e-07
1.92992e-07
5.95694e-07
5.95639e-07
9.07275e-07
2.03466e-07
6.2567e-07
6.26303e-07
9.37355e-07
2.14266e-07
6.55047e-07
6.55661e-07
9.66466e-07
2.26788e-07
6.85755e-07
6.84511e-07
9.94655e-07
2.38821e-07
7.12873e-07
7.13927e-07
1.0176e-06
2.47459e-07
7.28379e-07
7.38646e-07
1.02852e-06
2.58645e-07
7.49799e-07
7.55113e-07
1.04526e-06
2.85893e-07
7.94395e-07
7.74741e-07
1.0994e-06
3.07485e-07
8.55987e-07
8.25522e-07
1.15394e-06
3.20499e-07
9.07001e-07
9.05076e-07
1.17188e-06
3.40478e-07
9.00271e-07
9.36096e-07
1.17509e-06
3.53728e-07
8.56992e-07
8.95089e-07
1.18674e-06
3.41051e-07
8.98741e-07
8.73326e-07
1.19022e-06
3.3078e-07
9.41507e-07
9.0008e-07
1.1907e-06
3.69708e-07
9.15324e-07
9.13039e-07
1.1775e-06
4.24214e-07
9.54517e-07
9.65668e-07
1.21525e-06
4.55986e-07
1.04335e-06
1.05399e-06
1.30162e-06
4.57081e-07
1.03797e-06
1.07696e-06
1.29685e-06
4.52806e-07
1.03017e-06
1.01844e-06
1.26795e-06
4.73009e-07
1.03262e-06
9.95545e-07
1.32111e-06
4.82356e-07
1.02503e-06
1.04972e-06
1.3431e-06
4.90529e-07
1.0857e-06
1.09313e-06
1.30484e-06
5.22131e-07
1.12595e-06
1.09999e-06
1.30581e-06
5.47402e-07
1.11327e-06
1.11058e-06
1.36232e-06
5.52373e-07
1.10218e-06
1.12318e-06
1.37916e-06
5.53119e-07
1.11135e-06
1.12114e-06
1.362e-06
5.64088e-07
1.12853e-06
1.11816e-06
1.35636e-06
5.83148e-07
1.13853e-06
1.1362e-06
1.37107e-06
5.98751e-07
1.14953e-06
1.15761e-06
1.38797e-06
6.07439e-07
1.16241e-06
1.16196e-06
1.39698e-06
6.14065e-07
1.16684e-06
1.16049e-06
1.39807e-06
6.2261e-07
1.16744e-06
1.16769e-06
1.40036e-06
6.33037e-07
1.17327e-06
1.17809e-06
1.40926e-06
6.43088e-07
1.1811e-06
1.18095e-06
1.41605e-06
6.49718e-07
1.18545e-06
1.1817e-06
1.41704e-06
6.55242e-07
1.18756e-06
1.188e-06
1.41807e-06
6.61995e-07
1.19018e-06
1.19321e-06
1.42246e-06
6.68607e-07
1.19393e-06
1.19388e-06
1.42723e-06
6.71749e-07
1.19521e-06
1.19328e-06
1.42745e-06
6.74742e-07
1.19581e-06
1.19545e-06
1.42624e-06
6.7999e-07
1.19615e-06
1.19858e-06
1.42964e-06
6.84679e-07
1.19837e-06
1.19867e-06
1.43206e-06
6.86981e-07
1.19885e-06
1.19698e-06
1.43051e-06
6.8889e-07
1.19726e-06
1.19809e-06
1.43109e-06
6.89966e-07
1.19714e-06
1.19789e-06
1.43142e-06
6.89881e-07
1.19542e-06
1.19449e-06
1.42904e-06
6.91242e-07
1.192e-06
1.19336e-06
1.42695e-06
6.94885e-07
1.19329e-06
1.19332e-06
1.4286e-06
6.95647e-07
1.19421e-06
1.19223e-06
1.42895e-06
6.92551e-07
1.18853e-06
1.19021e-06
1.42659e-06
6.88012e-07
1.18178e-06
1.18211e-06
1.42016e-06
6.92987e-07
1.18116e-06
1.18423e-06
1.42542e-06
7.0171e-07
1.18672e-06
1.18379e-06
1.41909e-06
6.81087e-07
1.17081e-06
1.16361e-06
1.39564e-06
6.77077e-07
1.16625e-06
1.18664e-06
1.41476e-06
7.04677e-07
1.19367e-06
1.2063e-06
1.44982e-06
6.72749e-07
1.14797e-06
1.13135e-06
1.38407e-06
6.37477e-07
1.06894e-06
1.06395e-06
1.29929e-06
5.06417e-07
5.05584e-07
5.05582e-07
5.06417e-07
5.05583e-07
5.05583e-07
5.09649e-07
5.09649e-07
5.09649e-07
5.09649e-07
5.05584e-07
5.05584e-07
5.06417e-07
5.05584e-07
5.05583e-07
5.06418e-07
4.99575e-07
4.67236e-07
4.97331e-07
4.97335e-07
4.63713e-07
4.63721e-07
4.99575e-07
4.67237e-07
4.97334e-07
4.97335e-07
4.63718e-07
4.63723e-07
4.97332e-07
4.6371e-07
4.63715e-07
4.99575e-07
4.67239e-07
4.97334e-07
4.63711e-07
4.63719e-07
4.67243e-07
4.63708e-07
4.41422e-07
4.53739e-07
4.53748e-07
4.26738e-07
4.26747e-07
4.63709e-07
4.41422e-07
4.53743e-07
4.5375e-07
4.26738e-07
4.26749e-07
4.53743e-07
4.26732e-07
4.26742e-07
4.6371e-07
4.41428e-07
4.53745e-07
4.26734e-07
4.26742e-07
4.41434e-07
4.39404e-07
4.19278e-07
4.18521e-07
4.1853e-07
3.95675e-07
3.95684e-07
4.39408e-07
4.19279e-07
4.18521e-07
4.18533e-07
3.9567e-07
3.95686e-07
4.18526e-07
3.95665e-07
3.9568e-07
4.39409e-07
4.19285e-07
4.18525e-07
3.95668e-07
3.95675e-07
4.19293e-07
4.17658e-07
3.9764e-07
3.88564e-07
3.88573e-07
3.6846e-07
3.68468e-07
4.1766e-07
3.97641e-07
3.88558e-07
3.88576e-07
3.6845e-07
3.6847e-07
3.8857e-07
3.68447e-07
3.68466e-07
4.17664e-07
3.97647e-07
3.88564e-07
3.68449e-07
3.68456e-07
3.97655e-07
3.96071e-07
3.7608e-07
3.62118e-07
3.62126e-07
3.44031e-07
3.44038e-07
3.96074e-07
3.76081e-07
3.62108e-07
3.62129e-07
3.44017e-07
3.44041e-07
3.62124e-07
3.44016e-07
3.44037e-07
3.96078e-07
3.76087e-07
3.62113e-07
3.44018e-07
3.44023e-07
3.76096e-07
3.7457e-07
3.55106e-07
3.38291e-07
3.38298e-07
3.21873e-07
3.21879e-07
3.74573e-07
3.55107e-07
3.38277e-07
3.38301e-07
3.21856e-07
3.21881e-07
3.38297e-07
3.21856e-07
3.21879e-07
3.74577e-07
3.55113e-07
3.38283e-07
3.21858e-07
3.21862e-07
3.55122e-07
3.53699e-07
3.3539e-07
3.16658e-07
3.16664e-07
3.01762e-07
3.01767e-07
3.53702e-07
3.35391e-07
3.16641e-07
3.16666e-07
3.01742e-07
3.01769e-07
3.16664e-07
3.01743e-07
3.01767e-07
3.53706e-07
3.35396e-07
3.16647e-07
3.01745e-07
3.01748e-07
3.35407e-07
3.34137e-07
3.17527e-07
2.97043e-07
2.97048e-07
2.83622e-07
2.83626e-07
3.34139e-07
3.17529e-07
2.97024e-07
2.9705e-07
2.83601e-07
2.83628e-07
2.97048e-07
2.83602e-07
2.83627e-07
3.34143e-07
3.17534e-07
2.97029e-07
2.83604e-07
2.83606e-07
3.17545e-07
3.16473e-07
3.01969e-07
2.79393e-07
2.79397e-07
2.67441e-07
2.67445e-07
3.16476e-07
3.01971e-07
2.79372e-07
2.79399e-07
2.67418e-07
2.67446e-07
2.79398e-07
2.6742e-07
2.67445e-07
3.16479e-07
3.01977e-07
2.79377e-07
2.67422e-07
2.67423e-07
3.01987e-07
3.01151e-07
2.89034e-07
2.63703e-07
2.63707e-07
2.53225e-07
2.5323e-07
3.01153e-07
2.89037e-07
2.6368e-07
2.63708e-07
2.53201e-07
2.53231e-07
2.63707e-07
2.53204e-07
2.5323e-07
3.01156e-07
2.89042e-07
2.63685e-07
2.53206e-07
2.53207e-07
2.89053e-07
2.88481e-07
2.78943e-07
2.4998e-07
2.49984e-07
2.40979e-07
2.40983e-07
2.88484e-07
2.78945e-07
2.49955e-07
2.49986e-07
2.40953e-07
2.40984e-07
2.49984e-07
2.40956e-07
2.40983e-07
2.88487e-07
2.78951e-07
2.49961e-07
2.40958e-07
2.40958e-07
2.78964e-07
2.78683e-07
2.71823e-07
2.38226e-07
2.38231e-07
2.307e-07
2.30705e-07
2.78686e-07
2.71827e-07
2.382e-07
2.38232e-07
2.30673e-07
2.30706e-07
2.3823e-07
2.30675e-07
2.30704e-07
2.78689e-07
2.7183e-07
2.38205e-07
2.30677e-07
2.30678e-07
2.71844e-07
2.71863e-07
2.67856e-07
2.28441e-07
2.28446e-07
2.22396e-07
2.22403e-07
2.71868e-07
2.6786e-07
2.28413e-07
2.28447e-07
2.22368e-07
2.22404e-07
2.28445e-07
2.22371e-07
2.22401e-07
2.71869e-07
2.67864e-07
2.28419e-07
2.22372e-07
2.22372e-07
2.67879e-07
2.68149e-07
2.66975e-07
2.20634e-07
2.2064e-07
2.16075e-07
2.16083e-07
2.68154e-07
2.6698e-07
2.20603e-07
2.20641e-07
2.16044e-07
2.16085e-07
2.20638e-07
2.16048e-07
2.1608e-07
2.68155e-07
2.66985e-07
2.20609e-07
2.16047e-07
2.1605e-07
2.67001e-07
2.67628e-07
2.69144e-07
2.14811e-07
2.14819e-07
2.11742e-07
2.11754e-07
2.67635e-07
2.69153e-07
2.14779e-07
2.1482e-07
2.11709e-07
2.11756e-07
2.14816e-07
2.11711e-07
2.11749e-07
2.67636e-07
2.69155e-07
2.14785e-07
2.11711e-07
2.11716e-07
2.69177e-07
2.70472e-07
2.74645e-07
2.10979e-07
2.10991e-07
2.09408e-07
2.09425e-07
2.70481e-07
2.74654e-07
2.10946e-07
2.10993e-07
2.09374e-07
2.09427e-07
2.10986e-07
2.09374e-07
2.09418e-07
2.7048e-07
2.74657e-07
2.10953e-07
2.09375e-07
2.09383e-07
2.74681e-07
2.76669e-07
2.83528e-07
2.09152e-07
2.09169e-07
2.09121e-07
2.09141e-07
2.76678e-07
2.83537e-07
2.09118e-07
2.09171e-07
2.09086e-07
2.09144e-07
2.09161e-07
2.09082e-07
2.09132e-07
2.76677e-07
2.8354e-07
2.09126e-07
2.09083e-07
2.09095e-07
2.83568e-07
2.86253e-07
2.95792e-07
2.09348e-07
2.0937e-07
2.10842e-07
2.10866e-07
2.86263e-07
2.95803e-07
2.09311e-07
2.09372e-07
2.10804e-07
2.10871e-07
2.09359e-07
2.10798e-07
2.10855e-07
2.86259e-07
2.95805e-07
2.09322e-07
2.108e-07
2.10815e-07
2.95837e-07
2.99199e-07
3.11476e-07
2.11608e-07
2.11635e-07
2.14662e-07
2.14694e-07
2.9921e-07
3.1149e-07
2.11569e-07
2.11638e-07
2.14624e-07
2.14698e-07
2.11621e-07
2.14618e-07
2.14678e-07
2.99205e-07
3.11493e-07
2.11582e-07
2.14617e-07
2.14636e-07
3.11526e-07
3.15571e-07
3.30539e-07
2.15951e-07
2.15985e-07
2.20586e-07
2.20623e-07
3.15586e-07
3.30551e-07
2.15911e-07
2.15987e-07
2.20544e-07
2.20628e-07
2.15967e-07
2.20536e-07
2.20604e-07
3.15584e-07
3.30559e-07
2.15924e-07
2.20537e-07
2.20559e-07
3.30597e-07
3.35317e-07
3.52892e-07
2.224e-07
2.22436e-07
2.28632e-07
2.2867e-07
3.35335e-07
3.52909e-07
2.22354e-07
2.2244e-07
2.2858e-07
2.28675e-07
2.22416e-07
2.28571e-07
2.28648e-07
3.35336e-07
3.52918e-07
2.22371e-07
2.28574e-07
2.28599e-07
3.52963e-07
3.58339e-07
3.78364e-07
2.30972e-07
2.31011e-07
2.38781e-07
2.38821e-07
3.58369e-07
3.78388e-07
2.30917e-07
2.31015e-07
2.38719e-07
2.38829e-07
2.30988e-07
2.3871e-07
2.38797e-07
3.5837e-07
3.78401e-07
2.30938e-07
2.38716e-07
2.38745e-07
3.78453e-07
3.84455e-07
4.06738e-07
2.41646e-07
2.41688e-07
2.51026e-07
2.51067e-07
3.84492e-07
4.06768e-07
2.41581e-07
2.41693e-07
2.50957e-07
2.51073e-07
2.41662e-07
2.50944e-07
2.51043e-07
3.84496e-07
4.06775e-07
2.41608e-07
2.50949e-07
2.50983e-07
4.06836e-07
4.13433e-07
4.37667e-07
2.54409e-07
2.54448e-07
2.65311e-07
2.65356e-07
4.13468e-07
4.37697e-07
2.54335e-07
2.54453e-07
2.65234e-07
2.65366e-07
2.54426e-07
2.6522e-07
2.65331e-07
4.13467e-07
4.37714e-07
2.54365e-07
2.6523e-07
2.65267e-07
4.37777e-07
4.44899e-07
4.70848e-07
2.69202e-07
2.69246e-07
2.81615e-07
2.81661e-07
4.44943e-07
4.70879e-07
2.69119e-07
2.69254e-07
2.81528e-07
2.81671e-07
2.69215e-07
2.81518e-07
2.81626e-07
4.4495e-07
4.70894e-07
2.6915e-07
2.81527e-07
2.81555e-07
4.70946e-07
4.78564e-07
5.05831e-07
2.85999e-07
2.86041e-07
2.99835e-07
2.99878e-07
4.78607e-07
5.05855e-07
2.85906e-07
2.86051e-07
2.99739e-07
2.99892e-07
2.86007e-07
2.99726e-07
2.99854e-07
4.78612e-07
5.05873e-07
2.85933e-07
2.99735e-07
2.99773e-07
5.05948e-07
5.13932e-07
5.42097e-07
3.04677e-07
3.0472e-07
3.19853e-07
3.19912e-07
5.13971e-07
5.42148e-07
3.04576e-07
3.04733e-07
3.19751e-07
3.19927e-07
3.04697e-07
3.19745e-07
3.19892e-07
5.13979e-07
5.42174e-07
3.04614e-07
3.19761e-07
3.19803e-07
5.42259e-07
5.50505e-07
5.7925e-07
3.25129e-07
3.25191e-07
3.41568e-07
3.41616e-07
5.50577e-07
5.79293e-07
3.25018e-07
3.25203e-07
3.41455e-07
3.41632e-07
3.2517e-07
3.4144e-07
3.41599e-07
5.5059e-07
5.79315e-07
3.25077e-07
3.41457e-07
3.41499e-07
5.79414e-07
5.87894e-07
6.16911e-07
3.47251e-07
3.47289e-07
3.64865e-07
3.64917e-07
5.87936e-07
6.16939e-07
3.47131e-07
3.47309e-07
3.64733e-07
3.64936e-07
3.47273e-07
3.64727e-07
3.64876e-07
5.87948e-07
6.16977e-07
3.47171e-07
3.64748e-07
3.64768e-07
6.1704e-07
6.25706e-07
6.54669e-07
3.70921e-07
3.70973e-07
3.89598e-07
3.89645e-07
6.2576e-07
6.54716e-07
3.70781e-07
3.71003e-07
3.89466e-07
3.89666e-07
3.70923e-07
3.89461e-07
3.89634e-07
6.25787e-07
6.54757e-07
3.70815e-07
3.8949e-07
3.89515e-07
6.54833e-07
6.63549e-07
6.92115e-07
3.95997e-07
3.96037e-07
4.15566e-07
4.15595e-07
6.63602e-07
6.92133e-07
3.95863e-07
3.96055e-07
4.15434e-07
4.15634e-07
3.96032e-07
4.15409e-07
4.15637e-07
6.63629e-07
6.92189e-07
3.95909e-07
4.1544e-07
4.15501e-07
6.92328e-07
7.00946e-07
7.28853e-07
4.22211e-07
4.22278e-07
4.42556e-07
4.42673e-07
7.01011e-07
7.29041e-07
4.22062e-07
4.22294e-07
4.42394e-07
4.42708e-07
4.22321e-07
4.42464e-07
4.42675e-07
7.01052e-07
7.29056e-07
4.2218e-07
4.42498e-07
4.42543e-07
7.29216e-07
7.37703e-07
7.65268e-07
4.4949e-07
4.49584e-07
4.7068e-07
4.70708e-07
7.37884e-07
7.65223e-07
4.49323e-07
4.49627e-07
4.70507e-07
4.70731e-07
4.49566e-07
4.70498e-07
4.70684e-07
7.37894e-07
7.65274e-07
4.4944e-07
4.70553e-07
4.70542e-07
7.65371e-07
7.74047e-07
8.00638e-07
4.77851e-07
4.7785e-07
4.99603e-07
4.99394e-07
7.73995e-07
8.00285e-07
4.77674e-07
4.77871e-07
4.99429e-07
4.99437e-07
4.77843e-07
4.99225e-07
4.99425e-07
7.74026e-07
8.00337e-07
4.77698e-07
4.99279e-07
4.99248e-07
8.00418e-07
8.09206e-07
8.34141e-07
5.06896e-07
5.066e-07
5.28597e-07
5.28364e-07
8.08791e-07
8.33914e-07
5.06707e-07
5.06613e-07
5.2843e-07
5.28471e-07
5.06641e-07
5.28199e-07
5.28472e-07
8.08831e-07
8.33983e-07
5.06446e-07
5.28254e-07
5.28283e-07
8.34055e-07
8.42377e-07
8.66528e-07
5.35803e-07
5.35765e-07
5.57765e-07
5.58153e-07
8.42307e-07
8.66947e-07
5.3565e-07
5.35884e-07
5.57602e-07
5.58213e-07
5.35808e-07
5.57924e-07
5.58176e-07
8.42381e-07
8.6695e-07
5.35612e-07
5.57947e-07
5.58e-07
8.67184e-07
8.74792e-07
8.99207e-07
5.65277e-07
5.65676e-07
5.88366e-07
5.88378e-07
8.75217e-07
8.99065e-07
5.65094e-07
5.65695e-07
5.88107e-07
5.88199e-07
5.65765e-07
5.8814e-07
5.8839e-07
8.75173e-07
8.99022e-07
5.6562e-07
5.88024e-07
5.8823e-07
8.99326e-07
9.07387e-07
9.3013e-07
5.96159e-07
5.95918e-07
6.18828e-07
6.18425e-07
9.07082e-07
9.29551e-07
5.95881e-07
5.95798e-07
6.18629e-07
6.18834e-07
5.95869e-07
6.18291e-07
6.18451e-07
9.07109e-07
9.30262e-07
5.95697e-07
6.18775e-07
6.18324e-07
9.29691e-07
9.37712e-07
9.58846e-07
6.26089e-07
6.25798e-07
6.47801e-07
6.47723e-07
9.37213e-07
9.58464e-07
6.25915e-07
6.26341e-07
6.47719e-07
6.48475e-07
6.25899e-07
6.47511e-07
6.48088e-07
9.38052e-07
9.59402e-07
6.25728e-07
6.48294e-07
6.47862e-07
9.58888e-07
9.66462e-07
9.88137e-07
6.55388e-07
6.55337e-07
6.78889e-07
6.785e-07
9.66036e-07
9.87107e-07
6.55323e-07
6.55882e-07
6.78814e-07
6.77927e-07
6.55631e-07
6.78194e-07
6.78327e-07
9.66767e-07
9.86524e-07
6.55448e-07
6.77468e-07
6.78171e-07
9.87454e-07
9.95439e-07
1.01205e-06
6.86555e-07
6.8593e-07
7.07502e-07
7.06565e-07
9.94223e-07
1.01049e-06
6.86395e-07
6.84998e-07
7.06986e-07
7.06882e-07
6.85822e-07
7.06767e-07
7.07398e-07
9.93545e-07
1.01237e-06
6.85638e-07
7.06617e-07
7.07122e-07
1.01206e-06
1.01743e-06
1.02594e-06
7.13544e-07
7.12589e-07
7.27541e-07
7.25646e-07
1.01582e-06
1.02262e-06
7.12865e-07
7.1402e-07
7.26778e-07
7.32721e-07
7.1383e-07
7.25978e-07
7.27563e-07
1.019e-06
1.03352e-06
7.13487e-07
7.33233e-07
7.27292e-07
1.02504e-06
1.03017e-06
1.04406e-06
7.31004e-07
7.28214e-07
7.46754e-07
7.41545e-07
1.02593e-06
1.03463e-06
7.30472e-07
7.38053e-07
7.47142e-07
7.51241e-07
7.30414e-07
7.41121e-07
7.43321e-07
1.03862e-06
1.04609e-06
7.30303e-07
7.51434e-07
7.4289e-07
1.03779e-06
1.05301e-06
1.09539e-06
7.5654e-07
7.50456e-07
7.94969e-07
7.85068e-07
1.0421e-06
1.07965e-06
7.57122e-07
7.55332e-07
7.95938e-07
7.7047e-07
7.51519e-07
7.82542e-07
7.87963e-07
1.0499e-06
1.05898e-06
7.50779e-07
7.68475e-07
7.87853e-07
1.08612e-06
1.10675e-06
1.13316e-06
8.0731e-07
7.97204e-07
8.3479e-07
8.38438e-07
1.09143e-06
1.14061e-06
8.08171e-07
7.76893e-07
8.34648e-07
8.07607e-07
8.02288e-07
8.38761e-07
8.42904e-07
1.06509e-06
1.09974e-06
8.02844e-07
8.08034e-07
8.4389e-07
1.14459e-06
1.13938e-06
1.15586e-06
8.40972e-07
8.54097e-07
8.59851e-07
8.94989e-07
1.15524e-06
1.20345e-06
8.40462e-07
8.23895e-07
8.56949e-07
8.84789e-07
8.53463e-07
8.98859e-07
8.72681e-07
1.11462e-06
1.18829e-06
8.53785e-07
8.87271e-07
8.70012e-07
1.16896e-06
1.16345e-06
1.18802e-06
8.68385e-07
9.03373e-07
8.9689e-07
9.0898e-07
1.2119e-06
1.20145e-06
8.64658e-07
9.03279e-07
8.94851e-07
9.35231e-07
8.76025e-07
9.10724e-07
8.84071e-07
1.20516e-06
1.24169e-06
8.72578e-07
9.34439e-07
8.81018e-07
1.1714e-06
1.19492e-06
1.20137e-06
9.04266e-07
9.01215e-07
9.14069e-07
8.65336e-07
1.19774e-06
1.13098e-06
9.03792e-07
9.37444e-07
9.17465e-07
9.12084e-07
8.87412e-07
8.62016e-07
8.98199e-07
1.24501e-06
1.19072e-06
8.85771e-07
9.08909e-07
9.02755e-07
1.18303e-06
1.20237e-06
1.15478e-06
9.13548e-07
8.60578e-07
8.8812e-07
8.76599e-07
1.13055e-06
1.15265e-06
9.17543e-07
8.97884e-07
8.91775e-07
8.74957e-07
9.00653e-07
8.74013e-07
9.06993e-07
1.18679e-06
1.14242e-06
9.06815e-07
8.73982e-07
9.12101e-07
1.18802e-06
1.15251e-06
1.12503e-06
8.80131e-07
8.99118e-07
8.71477e-07
9.34987e-07
1.17093e-06
1.21255e-06
8.81996e-07
8.73577e-07
8.69784e-07
8.88516e-07
9.10583e-07
9.39296e-07
9.20573e-07
1.14373e-06
1.15251e-06
9.13438e-07
8.93394e-07
9.17929e-07
1.18922e-06
1.12961e-06
1.18646e-06
8.74684e-07
9.36668e-07
9.24924e-07
9.19076e-07
1.21537e-06
1.17228e-06
8.71611e-07
8.94799e-07
9.23374e-07
9.06028e-07
9.22179e-07
9.21068e-07
9.20826e-07
1.1569e-06
1.16256e-06
9.18792e-07
9.1059e-07
9.18777e-07
1.1765e-06
1.20214e-06
1.25872e-06
9.40233e-07
9.14934e-07
9.83308e-07
9.29028e-07
1.17229e-06
1.1978e-06
9.41298e-07
9.09668e-07
9.86493e-07
9.49375e-07
9.19745e-07
9.24942e-07
9.28982e-07
1.16688e-06
1.21048e-06
9.18664e-07
9.43052e-07
9.31594e-07
1.19755e-06
1.27213e-06
1.3085e-06
9.98055e-07
9.60204e-07
1.03092e-06
1.03251e-06
1.22173e-06
1.30719e-06
1.00011e-06
9.71692e-07
1.02948e-06
1.03902e-06
9.51361e-07
1.0306e-06
1.01898e-06
1.22967e-06
1.31385e-06
9.54307e-07
1.03628e-06
1.01758e-06
1.28924e-06
1.31396e-06
1.28844e-06
1.03614e-06
1.04429e-06
1.03192e-06
1.04492e-06
1.31845e-06
1.30054e-06
1.03432e-06
1.0553e-06
1.03324e-06
1.07562e-06
1.03302e-06
1.04682e-06
1.04433e-06
1.32941e-06
1.35081e-06
1.03168e-06
1.07787e-06
1.04576e-06
1.29865e-06
1.28729e-06
1.26931e-06
1.02483e-06
1.03608e-06
1.01941e-06
1.02891e-06
1.29952e-06
1.28493e-06
1.02771e-06
1.07427e-06
1.0226e-06
1.03234e-06
1.03651e-06
1.02912e-06
1.01975e-06
1.35072e-06
1.28546e-06
1.04067e-06
1.03282e-06
1.02268e-06
1.2657e-06
1.27572e-06
1.29967e-06
1.02387e-06
1.03147e-06
1.05137e-06
1.03695e-06
1.28936e-06
1.28738e-06
1.02498e-06
1.01917e-06
1.0452e-06
9.98203e-07
1.01984e-06
1.03404e-06
1.05499e-06
1.28162e-06
1.23838e-06
1.02189e-06
9.96085e-07
1.04774e-06
1.30883e-06
1.30379e-06
1.2958e-06
1.05428e-06
1.0349e-06
1.05001e-06
1.02258e-06
1.28676e-06
1.25716e-06
1.04809e-06
9.97426e-07
1.04911e-06
1.02777e-06
1.06743e-06
1.02467e-06
1.08205e-06
1.23955e-06
1.27079e-06
1.06092e-06
1.03212e-06
1.08067e-06
1.34205e-06
1.29689e-06
1.30233e-06
1.04721e-06
1.02253e-06
1.04931e-06
1.06334e-06
1.25862e-06
1.31136e-06
1.04849e-06
1.04415e-06
1.05382e-06
1.08358e-06
1.08051e-06
1.0662e-06
1.05625e-06
1.28451e-06
1.33042e-06
1.08098e-06
1.08676e-06
1.0608e-06
1.30494e-06
1.31095e-06
1.34301e-06
1.0598e-06
1.08544e-06
1.09732e-06
1.12612e-06
1.32994e-06
1.38141e-06
1.06359e-06
1.0919e-06
1.09432e-06
1.10348e-06
1.05217e-06
1.12143e-06
1.05498e-06
1.33902e-06
1.35255e-06
1.05556e-06
1.09965e-06
1.05399e-06
1.29698e-06
1.3503e-06
1.3614e-06
1.10618e-06
1.13108e-06
1.11916e-06
1.1212e-06
1.38805e-06
1.37097e-06
1.10256e-06
1.10458e-06
1.11638e-06
1.10879e-06
1.06846e-06
1.11924e-06
1.1139e-06
1.35538e-06
1.35809e-06
1.06241e-06
1.10603e-06
1.11035e-06
1.35254e-06
1.36337e-06
1.35537e-06
1.11959e-06
1.11333e-06
1.11427e-06
1.10061e-06
1.3703e-06
1.34241e-06
1.11759e-06
1.11123e-06
1.11586e-06
1.11885e-06
1.12357e-06
1.10324e-06
1.1346e-06
1.36129e-06
1.36331e-06
1.12128e-06
1.1215e-06
1.13541e-06
1.37792e-06
1.35659e-06
1.35041e-06
1.11278e-06
1.09948e-06
1.11153e-06
1.10613e-06
1.34299e-06
1.34056e-06
1.11484e-06
1.12031e-06
1.11372e-06
1.12113e-06
1.13306e-06
1.10655e-06
1.1193e-06
1.36515e-06
1.35773e-06
1.13497e-06
1.12305e-06
1.12132e-06
1.36126e-06
1.35244e-06
1.35838e-06
1.11232e-06
1.1117e-06
1.12306e-06
1.12637e-06
1.34518e-06
1.35863e-06
1.11397e-06
1.12031e-06
1.1214e-06
1.11841e-06
1.11683e-06
1.12474e-06
1.11562e-06
1.35886e-06
1.35255e-06
1.11825e-06
1.11809e-06
1.11536e-06
1.35345e-06
1.36278e-06
1.37521e-06
1.12732e-06
1.13015e-06
1.13985e-06
1.13751e-06
1.36363e-06
1.37307e-06
1.12511e-06
1.11861e-06
1.13802e-06
1.13048e-06
1.1182e-06
1.13658e-06
1.13254e-06
1.35488e-06
1.366e-06
1.11642e-06
1.12962e-06
1.13063e-06
1.36608e-06
1.38014e-06
1.38925e-06
1.14356e-06
1.13918e-06
1.15199e-06
1.14631e-06
1.37649e-06
1.38238e-06
1.14241e-06
1.13693e-06
1.15302e-06
1.15424e-06
1.13703e-06
1.14616e-06
1.14877e-06
1.37243e-06
1.38945e-06
1.13574e-06
1.15378e-06
1.14948e-06
1.38358e-06
1.39245e-06
1.39343e-06
1.15391e-06
1.14959e-06
1.1578e-06
1.15941e-06
1.3862e-06
1.394e-06
1.1553e-06
1.15794e-06
1.15876e-06
1.16192e-06
1.1521e-06
1.15976e-06
1.15987e-06
1.39414e-06
1.39655e-06
1.15323e-06
1.16205e-06
1.16054e-06
1.39433e-06
1.39511e-06
1.39341e-06
1.15872e-06
1.16193e-06
1.16157e-06
1.16593e-06
1.39747e-06
1.39997e-06
1.15919e-06
1.16174e-06
1.16034e-06
1.16023e-06
1.16162e-06
1.16647e-06
1.1641e-06
1.39798e-06
1.39261e-06
1.16171e-06
1.16052e-06
1.1629e-06
1.39653e-06
1.39568e-06
1.3977e-06
1.16268e-06
1.16637e-06
1.16651e-06
1.16725e-06
1.40193e-06
1.39966e-06
1.16125e-06
1.16022e-06
1.16552e-06
1.16494e-06
1.16433e-06
1.16715e-06
1.16527e-06
1.39416e-06
1.39703e-06
1.16298e-06
1.16468e-06
1.16429e-06
1.39763e-06
1.40057e-06
1.40507e-06
1.16798e-06
1.1679e-06
1.1732e-06
1.17152e-06
1.40174e-06
1.40345e-06
1.16738e-06
1.16797e-06
1.17379e-06
1.17623e-06
1.16668e-06
1.17141e-06
1.1735e-06
1.40069e-06
1.40795e-06
1.16633e-06
1.17612e-06
1.17411e-06
1.40579e-06
1.40819e-06
1.41188e-06
1.17516e-06
1.17327e-06
1.18051e-06
1.17915e-06
1.40625e-06
1.41024e-06
1.17591e-06
1.17811e-06
1.18075e-06
1.18064e-06
1.17597e-06
1.17933e-06
1.18177e-06
1.4112e-06
1.41245e-06
1.17668e-06
1.18079e-06
1.182e-06
1.41365e-06
1.41441e-06
1.41496e-06
1.18182e-06
1.18092e-06
1.18425e-06
1.18462e-06
1.41312e-06
1.4154e-06
1.18171e-06
1.18079e-06
1.18345e-06
1.18107e-06
1.18291e-06
1.1847e-06
1.18448e-06
1.41402e-06
1.41165e-06
1.18283e-06
1.18118e-06
1.18375e-06
1.4154e-06
1.41691e-06
1.41707e-06
1.18478e-06
1.18542e-06
1.18643e-06
1.18719e-06
1.41764e-06
1.41783e-06
1.18395e-06
1.18168e-06
1.18594e-06
1.18642e-06
1.18468e-06
1.18708e-06
1.18539e-06
1.41394e-06
1.41686e-06
1.1839e-06
1.18629e-06
1.18493e-06
1.41596e-06
1.41932e-06
1.4211e-06
1.18713e-06
1.18769e-06
1.1902e-06
1.18947e-06
1.41988e-06
1.42027e-06
1.18685e-06
1.18817e-06
1.19052e-06
1.19251e-06
1.18596e-06
1.18933e-06
1.18918e-06
1.41985e-06
1.42341e-06
1.1857e-06
1.19236e-06
1.18949e-06
1.41978e-06
1.42363e-06
1.42493e-06
1.19145e-06
1.1903e-06
1.19428e-06
1.19314e-06
1.42251e-06
1.42356e-06
1.19182e-06
1.19333e-06
1.19431e-06
1.19401e-06
1.19063e-06
1.19313e-06
1.19451e-06
1.42582e-06
1.42476e-06
1.19102e-06
1.19397e-06
1.19456e-06
1.42497e-06
1.42693e-06
1.42446e-06
1.19467e-06
1.19386e-06
1.19459e-06
1.19485e-06
1.42573e-06
1.4253e-06
1.19456e-06
1.19387e-06
1.19409e-06
1.19315e-06
1.19525e-06
1.19505e-06
1.19575e-06
1.42627e-06
1.42303e-06
1.19512e-06
1.19329e-06
1.19531e-06
1.42595e-06
1.426e-06
1.42388e-06
1.19425e-06
1.19499e-06
1.194e-06
1.19567e-06
1.42706e-06
1.42605e-06
1.19374e-06
1.19313e-06
1.19351e-06
1.19459e-06
1.19546e-06
1.19571e-06
1.19455e-06
1.42462e-06
1.42481e-06
1.1949e-06
1.19463e-06
1.19412e-06
1.42447e-06
1.42607e-06
1.4272e-06
1.19433e-06
1.19584e-06
1.19666e-06
1.19605e-06
1.42794e-06
1.42685e-06
1.19392e-06
1.19548e-06
1.19677e-06
1.19808e-06
1.19454e-06
1.19597e-06
1.19654e-06
1.42716e-06
1.42889e-06
1.19415e-06
1.19801e-06
1.19666e-06
1.42727e-06
1.42957e-06
1.43021e-06
1.19746e-06
1.1962e-06
1.19904e-06
1.19779e-06
1.42867e-06
1.42868e-06
1.19767e-06
1.19863e-06
1.19908e-06
1.19897e-06
1.19742e-06
1.19783e-06
1.19886e-06
1.43114e-06
1.43013e-06
1.19762e-06
1.19896e-06
1.19895e-06
1.43022e-06
1.43215e-06
1.43009e-06
1.19921e-06
1.19836e-06
1.19903e-06
1.19902e-06
1.43078e-06
1.43045e-06
1.19914e-06
1.19867e-06
1.19849e-06
1.19725e-06
1.19892e-06
1.19895e-06
1.19807e-06
1.4316e-06
1.42806e-06
1.19895e-06
1.19717e-06
1.19766e-06
1.42896e-06
1.43176e-06
1.43041e-06
1.19885e-06
1.19894e-06
1.19846e-06
1.19765e-06
1.43221e-06
1.42908e-06
1.19829e-06
1.19708e-06
1.19816e-06
1.19782e-06
1.19778e-06
1.19752e-06
1.19758e-06
1.42963e-06
1.42931e-06
1.19732e-06
1.19766e-06
1.1973e-06
1.42919e-06
1.43222e-06
1.4287e-06
1.19833e-06
1.19737e-06
1.19704e-06
1.19707e-06
1.43067e-06
1.429e-06
1.19813e-06
1.19822e-06
1.19722e-06
1.1983e-06
1.19774e-06
1.19713e-06
1.19775e-06
1.43138e-06
1.43017e-06
1.19763e-06
1.19826e-06
1.19777e-06
1.42988e-06
1.43016e-06
1.42547e-06
1.19641e-06
1.19704e-06
1.19413e-06
1.19613e-06
1.43089e-06
1.42811e-06
1.19641e-06
1.19781e-06
1.1938e-06
1.19494e-06
1.19759e-06
1.19644e-06
1.19577e-06
1.4316e-06
1.42689e-06
1.19758e-06
1.19518e-06
1.19542e-06
1.42756e-06
1.42692e-06
1.42453e-06
1.19346e-06
1.19512e-06
1.19256e-06
1.19244e-06
1.42953e-06
1.42477e-06
1.19315e-06
1.19424e-06
1.19243e-06
1.1933e-06
1.19503e-06
1.19251e-06
1.19306e-06
1.42835e-06
1.42589e-06
1.19469e-06
1.1934e-06
1.193e-06
1.42534e-06
1.42687e-06
1.4288e-06
1.19273e-06
1.19203e-06
1.19498e-06
1.19262e-06
1.42628e-06
1.42598e-06
1.19274e-06
1.19333e-06
1.19483e-06
1.19364e-06
1.19276e-06
1.19229e-06
1.19296e-06
1.4279e-06
1.42736e-06
1.19277e-06
1.19338e-06
1.1929e-06
1.4266e-06
1.43114e-06
1.42866e-06
1.19535e-06
1.19354e-06
1.19484e-06
1.19447e-06
1.42842e-06
1.42919e-06
1.19508e-06
1.19361e-06
1.19421e-06
1.19267e-06
1.19332e-06
1.19435e-06
1.19346e-06
1.42923e-06
1.42635e-06
1.19306e-06
1.19248e-06
1.19298e-06
1.42743e-06
1.43007e-06
1.42244e-06
1.19394e-06
1.19434e-06
1.18898e-06
1.19045e-06
1.4309e-06
1.42406e-06
1.19351e-06
1.19242e-06
1.18912e-06
1.1914e-06
1.19328e-06
1.19016e-06
1.19088e-06
1.42794e-06
1.42529e-06
1.19276e-06
1.19119e-06
1.1912e-06
1.42525e-06
1.42348e-06
1.41243e-06
1.18666e-06
1.18875e-06
1.17992e-06
1.18231e-06
1.42522e-06
1.41638e-06
1.18668e-06
1.19042e-06
1.17941e-06
1.18286e-06
1.18946e-06
1.18306e-06
1.18478e-06
1.42665e-06
1.41699e-06
1.18966e-06
1.18357e-06
1.1844e-06
1.4188e-06
1.41366e-06
1.41774e-06
1.17887e-06
1.18069e-06
1.1813e-06
1.17899e-06
1.41764e-06
1.41513e-06
1.17831e-06
1.18106e-06
1.18171e-06
1.18054e-06
1.18408e-06
1.18035e-06
1.18508e-06
1.41811e-06
1.41742e-06
1.18367e-06
1.18195e-06
1.18546e-06
1.42221e-06
1.42425e-06
1.43883e-06
1.18729e-06
1.18013e-06
1.19699e-06
1.18882e-06
1.41824e-06
1.42445e-06
1.18831e-06
1.18351e-06
1.19751e-06
1.18765e-06
1.18609e-06
1.18636e-06
1.18474e-06
1.42143e-06
1.42352e-06
1.18683e-06
1.18587e-06
1.18523e-06
1.41925e-06
1.4413e-06
1.39772e-06
1.19694e-06
1.18959e-06
1.16882e-06
1.17747e-06
1.42697e-06
1.40933e-06
1.19712e-06
1.18662e-06
1.16572e-06
1.1651e-06
1.18031e-06
1.17662e-06
1.1655e-06
1.42414e-06
1.39486e-06
1.17951e-06
1.16593e-06
1.16258e-06
1.39475e-06
1.39576e-06
1.38671e-06
1.15881e-06
1.16924e-06
1.15225e-06
1.16048e-06
1.40894e-06
1.39784e-06
1.15639e-06
1.16102e-06
1.15259e-06
1.16666e-06
1.1634e-06
1.16396e-06
1.16524e-06
1.3953e-06
1.41212e-06
1.16068e-06
1.17264e-06
1.1666e-06
1.40509e-06
1.40166e-06
1.45326e-06
1.16256e-06
1.16361e-06
1.20184e-06
1.19225e-06
1.40496e-06
1.43832e-06
1.16637e-06
1.18293e-06
1.20502e-06
1.20792e-06
1.17447e-06
1.19087e-06
1.19792e-06
1.42632e-06
1.46099e-06
1.17842e-06
1.20644e-06
1.20035e-06
1.44491e-06
1.4571e-06
1.36817e-06
1.20347e-06
1.19478e-06
1.15224e-06
1.16241e-06
1.44284e-06
1.38435e-06
1.20606e-06
1.20779e-06
1.149e-06
1.14795e-06
1.20046e-06
1.1679e-06
1.17119e-06
1.46284e-06
1.3693e-06
1.20212e-06
1.15126e-06
1.16584e-06
1.39186e-06
1.35977e-06
1.31658e-06
1.13014e-06
1.14269e-06
1.08676e-06
1.0948e-06
1.37782e-06
1.32295e-06
1.1267e-06
1.12735e-06
1.08461e-06
1.0843e-06
1.14787e-06
1.09645e-06
1.08784e-06
1.36138e-06
1.31243e-06
1.14319e-06
1.08564e-06
1.08525e-06
1.31207e-06
1.31329e-06
1.06875e-06
1.06973e-06
1.31314e-06
1.06807e-06
1.06477e-06
6.42816e-07
6.35895e-07
6.3386e-07
1.05921e-06
1.30711e-06
1.05817e-06
5.35663e-07
5.35601e-07
5.35655e-07
5.35655e-07
5.34573e-07
5.35516e-07
5.33634e-07
5.35654e-07
5.34573e-07
5.35517e-07
5.35654e-07
5.33634e-07
5.35256e-07
5.35987e-07
5.35987e-07
1.10717e-06
3.88067e-06
9.33917e-07
4.60585e-06
1.26086e-05
1.66015e-05
1.10712e-06
3.8812e-06
9.3393e-07
4.60638e-06
4.95567e-07
4.95567e-07
4.95567e-07
4.57231e-07
4.57231e-07
4.57232e-07
4.57232e-07
5.43136e-07
1.22024e-06
4.95565e-07
4.85523e-07
5.25345e-07
1.20948e-06
4.82301e-07
1.26098e-05
1.6603e-05
5.43156e-07
4.95565e-07
1.22026e-06
4.85523e-07
5.25333e-07
4.82301e-07
1.2095e-06
2.52183e-06
2.52237e-06
4.84192e-07
2.37257e-06
2.37281e-06
1.43088e-06
5.59293e-06
1.32969e-06
6.13611e-06
2.12849e-05
2.31113e-05
1.43097e-06
5.59371e-06
1.3298e-06
6.1369e-06
4.45573e-07
4.45573e-07
4.45573e-07