/*--------------------------------*- C++ -*----------------------------------*\
| =========                 |                                                 |
| \\      /  F ield         | OpenFOAM: The Open Source CFD Toolbox           |
|  \\    /   O peration     | Version:  v2012                                 |
|   \\  /    A nd           | Website:  www.openfoam.com                      |
|    \\/     M anipulation  |                                                 |
\*---------------------------------------------------------------------------*/
FoamFile
{
    version     2.0;
    format      ascii;
    class       volScalarField;
    location    "625";
    object      nut;
}
// * * * * * * * * * * * * * * * * * * * * * * * * * * * * * * * * * * * * * //

dimensions      [0 2 -1 0 0 0 0];


internalField   nonuniform List<scalar> 
171728
(
2.57456e-06
1.81441e-06
3.11013e-06
2.29201e-06
2.55893e-06
1.80131e-06
2.46035e-06
2.26981e-06
2.57967e-06
1.7868e-06
1.89342e-06
2.2358e-06
2.62883e-06
1.75959e-06
1.5278e-06
2.31582e-06
2.69474e-06
1.70473e-06
1.45793e-06
2.49102e-06
2.7402e-06
1.6374e-06
1.48517e-06
2.74026e-06
2.74665e-06
1.56612e-06
1.53493e-06
2.34337e-06
2.81627e-06
1.49426e-06
1.5788e-06
2.04644e-06
2.89785e-06
1.43533e-06
1.58845e-06
2.15575e-06
2.84031e-06
1.38034e-06
1.54799e-06
2.06634e-06
2.74132e-06
1.316e-06
1.48022e-06
1.69322e-06
2.74013e-06
1.23818e-06
1.40944e-06
1.6418e-06
2.7849e-06
1.13808e-06
1.36891e-06
1.68536e-06
2.88453e-06
1.04014e-06
1.31297e-06
1.95423e-06
2.88799e-06
9.64269e-07
1.2449e-06
2.38939e-06
2.69252e-06
9.06154e-07
1.1705e-06
2.65302e-06
2.54382e-06
8.67149e-07
1.03969e-06
2.54106e-06
2.47691e-06
8.2417e-07
9.89774e-07
1.8844e-06
2.4509e-06
8.86975e-07
9.88719e-07
1.40118e-06
2.42541e-06
1.01183e-06
1.14267e-06
1.54785e-06
2.39404e-06
1.05448e-06
1.3017e-06
2.10304e-06
2.36013e-06
1.6668e-06
1.64747e-06
2.72038e-06
2.28525e-06
2.01505e-06
2.57479e-06
2.91469e-06
2.19145e-06
2.69432e-06
3.59681e-06
7.10408e-06
2.09562e-06
3.73398e-06
4.10017e-06
7.46112e-06
1.94189e-06
5.36308e-06
6.59834e-06
1.38023e-05
1.83047e-06
6.88062e-06
8.0629e-06
1.54127e-05
1.72563e-06
8.92859e-06
8.40232e-06
2.44813e-05
1.57327e-06
1.16915e-05
1.39404e-05
3.13743e-05
1.68617e-06
1.3497e-05
1.46343e-05
4.11989e-05
1.69279e-06
2.0346e-05
2.00464e-05
4.51678e-05
1.79925e-06
1.99308e-05
2.17661e-05
4.51314e-05
2.17543e-06
2.70416e-05
2.6178e-05
6.64561e-05
2.43541e-06
3.17041e-05
3.10682e-05
6.26831e-05
3.03967e-06
3.57449e-05
3.69789e-05
7.02771e-05
3.97515e-06
4.11607e-05
4.00379e-05
7.42629e-05
4.4102e-06
4.30728e-05
4.82877e-05
7.85705e-05
6.37612e-06
5.99588e-05
5.28003e-05
8.31123e-05
7.48514e-06
6.02349e-05
5.94668e-05
8.95623e-05
9.3418e-06
5.73696e-05
5.87284e-05
9.00579e-05
1.08217e-05
7.52743e-05
7.51756e-05
9.51344e-05
1.48765e-05
7.37847e-05
8.23743e-05
0.000100149
1.70667e-05
8.54209e-05
7.89047e-05
0.00010705
2.21865e-05
9.10068e-05
8.84933e-05
0.000105492
2.39768e-05
9.33502e-05
9.55703e-05
0.000100981
2.8007e-05
9.03284e-05
9.38444e-05
0.000123979
3.29111e-05
0.000117626
0.000113108
0.000129014
4.12282e-05
0.000116626
0.00011785
0.000120436
5.26701e-05
0.000102042
0.000108389
0.000109395
4.48915e-05
0.000129571
0.000114714
0.000131652
5.70971e-05
0.000141484
0.000136216
0.000147498
7.76789e-05
0.000128435
0.00013745
0.00013745
7.09365e-05
0.000114927
0.000128079
0.000127776
6.30066e-05
0.000142944
0.000134118
0.000144657
9.23849e-05
0.000159777
0.000150638
0.000151034
0.000105662
0.000153879
0.000150848
0.000144476
9.57215e-05
0.000145
0.000145159
0.000145495
9.52444e-05
0.000155669
0.00015985
0.000160956
0.000122274
0.000164407
0.000164501
0.000160095
0.000127979
0.000160301
0.000156214
0.000147044
0.000117429
0.000167443
0.000164863
0.000163218
0.000131926
0.000175272
0.000181668
0.000174011
0.000149459
0.000170352
0.000173193
0.000162224
0.00014485
0.000167812
0.00016613
0.000157141
0.000141212
0.000192553
0.000185378
0.000177075
0.000165185
0.000196729
0.000193362
0.000185012
0.000171273
0.000176638
0.000186773
0.000170537
0.000163019
0.000169011
0.00017863
0.000163798
0.000159924
0.000199077
0.00018899
0.00018059
0.000184419
0.000215387
0.000202761
0.000190401
0.000197285
0.000202879
0.0002061
0.000184321
0.000193607
0.000188861
0.000199234
0.000178452
0.000186101
0.000193457
0.000197979
0.000184034
0.000190881
0.000208367
0.000201163
0.00018751
0.000204347
0.000212093
0.000204367
0.000188186
0.000212046
0.000207423
0.000212514
0.000190664
0.000211397
0.000207226
0.000213563
0.000189686
0.000215166
0.000217357
0.000212273
0.00019295
0.000221614
0.000218815
0.000214476
0.000195843
0.000221806
0.00021249
0.000215491
0.000193066
0.000223416
0.000213099
0.000217554
0.000193575
0.000229507
0.000222012
0.000220905
0.00019828
0.000233327
0.000223235
0.000219748
0.00019722
0.000233174
0.000219341
0.000220678
0.00019639
0.000235176
0.000221475
0.000224225
0.000200142
0.000239867
0.000226616
0.000223228
0.00019974
0.00024183
0.000224871
0.000222738
0.000197579
0.000242051
0.000221998
0.000225607
0.000199949
0.00024185
0.00022453
0.000226966
0.000201898
0.000246412
0.000229573
0.000226026
0.000199527
0.000249163
0.000230161
0.000225503
0.000199525
0.000248853
0.000223037
0.000227839
0.000202188
0.000246274
0.00022091
0.000227561
0.000199994
0.000248043
0.000231041
0.000225222
0.000199286
0.000256047
0.000235644
0.000227393
0.00020484
2.21515e-06
2.02845e-06
2.23362e-06
2.27058e-06
2.67716e-06
2.09085e-06
2.61732e-06
2.31754e-06
2.4248e-06
2.55572e-06
2.26554e-06
2.58038e-06
2.28814e-06
2.37819e-06
2.44417e-06
2.30671e-06
2.21291e-06
2.21557e-06
1.86275e-06
1.68678e-06
1.81805e-06
1.64508e-06
2.26921e-06
2.24314e-06
2.43005e-06
2.23834e-06
2.60329e-06
2.16342e-06
7.56405e-06
1.80459e-06
5.8346e-06
2.28225e-06
2.29556e-06
2.28042e-06
2.61907e-06
2.4333e-06
2.28421e-06
2.22257e-06
2.28821e-06
1.80191e-06
1.63167e-06
1.76612e-06
1.60445e-06
2.24208e-06
2.21388e-06
2.67594e-06
2.09894e-06
2.94586e-06
1.84543e-06
4.7994e-06
1.79167e-06
2.6057e-06
2.29394e-06
2.24384e-06
2.50108e-06
2.02668e-06
2.76303e-06
2.2405e-06
2.30324e-06
2.45355e-06
1.75405e-06
1.59225e-06
1.70072e-06
1.53604e-06
2.21173e-06
2.17676e-06
3.05444e-06
1.76919e-06
3.47359e-06
1.61128e-06
2.2639e-06
1.7694e-06
1.80065e-06
2.23941e-06
2.17381e-06
2.87766e-06
1.58723e-06
3.27536e-06
2.2985e-06
2.47635e-06
2.61512e-06
1.67838e-06
1.51492e-06
1.61439e-06
1.46049e-06
2.17309e-06
2.12682e-06
3.65549e-06
1.57511e-06
4.30436e-06
1.48491e-06
1.7432e-06
1.72015e-06
1.6714e-06
2.17151e-06
2.11595e-06
3.39819e-06
1.45921e-06
3.74672e-06
2.46702e-06
2.61893e-06
2.66258e-06
1.59632e-06
1.44636e-06
1.53348e-06
1.41299e-06
2.12163e-06
2.0677e-06
4.52769e-06
1.46089e-06
5.10721e-06
1.40969e-06
1.65998e-06
1.65407e-06
1.63191e-06
2.1135e-06
2.04422e-06
3.91393e-06
1.47464e-06
4.47253e-06
2.75905e-06
2.63867e-06
2.41737e-06
1.51098e-06
1.40197e-06
1.46624e-06
1.36782e-06
2.06184e-06
2.02023e-06
5.16059e-06
1.39436e-06
5.00857e-06
1.34914e-06
1.62034e-06
1.58407e-06
1.57234e-06
2.04078e-06
1.96849e-06
4.49422e-06
1.5219e-06
3.82613e-06
2.44198e-06
2.34454e-06
2.30719e-06
1.46288e-06
1.35801e-06
1.46858e-06
1.32805e-06
2.01356e-06
1.97101e-06
5.02673e-06
1.33543e-06
5.52032e-06
1.31584e-06
1.55485e-06
1.51089e-06
1.50913e-06
1.96326e-06
1.88985e-06
3.50453e-06
1.56954e-06
2.76094e-06
2.05064e-06
2.30327e-06
2.42158e-06
1.47076e-06
1.31864e-06
1.51173e-06
1.29208e-06
1.96474e-06
1.92066e-06
5.72019e-06
1.31258e-06
6.53533e-06
1.29843e-06
1.49878e-06
1.44942e-06
1.47545e-06
1.88441e-06
1.81265e-06
2.64298e-06
1.59198e-06
2.60701e-06
2.14347e-06
2.41711e-06
2.36841e-06
1.54249e-06
1.28287e-06
1.65359e-06
1.25554e-06
1.91511e-06
1.85414e-06
6.83781e-06
1.2937e-06
7.29106e-06
1.30317e-06
1.46761e-06
1.39482e-06
1.4283e-06
1.80627e-06
1.74351e-06
2.67045e-06
1.56152e-06
2.92663e-06
2.10557e-06
2.29942e-06
2.25331e-06
1.69381e-06
1.24694e-06
1.90365e-06
1.22103e-06
1.85013e-06
1.77062e-06
6.6385e-06
1.32039e-06
4.44956e-06
1.37541e-06
1.41347e-06
1.33284e-06
1.37785e-06
1.73718e-06
1.70772e-06
2.92492e-06
1.49973e-06
2.13445e-06
1.71175e-06
2.22713e-06
2.19701e-06
2.01813e-06
1.2122e-06
2.49147e-06
1.18235e-06
1.76552e-06
1.67432e-06
3.75611e-06
1.40159e-06
2.15534e-06
1.58804e-06
1.37028e-06
1.25685e-06
1.35098e-06
1.70641e-06
1.75485e-06
1.93991e-06
1.42393e-06
1.64266e-06
1.64486e-06
2.18399e-06
2.19648e-06
2.68604e-06
1.17395e-06
3.35901e-06
1.14733e-06
1.66559e-06
1.56755e-06
1.83805e-06
1.6984e-06
1.36859e-06
2.2904e-06
1.34329e-06
1.16047e-06
1.32287e-06
1.76787e-06
1.9462e-06
1.59655e-06
1.37966e-06
1.55896e-06
1.67086e-06
2.19339e-06
2.24363e-06
3.59048e-06
1.14008e-06
4.18369e-06
1.1169e-06
1.55507e-06
1.46076e-06
1.30138e-06
2.60032e-06
1.18796e-06
3.91066e-06
1.31814e-06
1.05769e-06
1.3004e-06
1.98972e-06
2.31157e-06
1.6403e-06
1.32714e-06
2.30912e-06
1.90329e-06
2.23654e-06
2.23244e-06
4.32824e-06
1.11142e-06
4.53632e-06
1.09192e-06
1.44462e-06
1.35985e-06
1.16227e-06
4.43643e-06
1.09099e-06
5.89652e-06
1.29845e-06
9.79254e-07
1.26083e-06
2.37446e-06
2.71966e-06
2.59406e-06
1.26478e-06
3.64e-06
2.32364e-06
2.20806e-06
1.80688e-06
4.53742e-06
1.08673e-06
3.65953e-06
1.0827e-06
1.34149e-06
1.26775e-06
1.0672e-06
6.2687e-06
9.89521e-07
6.81635e-06
1.24999e-06
9.19345e-07
1.24841e-06
2.75412e-06
2.81812e-06
3.9898e-06
1.19466e-06
4.92416e-06
2.6419e-06
1.72854e-06
1.31661e-06
3.11041e-06
1.07834e-06
1.89948e-06
1.0595e-06
1.24726e-06
1.18444e-06
9.71468e-07
6.81796e-06
9.37524e-07
6.01541e-06
1.23134e-06
8.64798e-07
1.20474e-06
2.78748e-06
2.1723e-06
5.15819e-06
1.06784e-06
5.29012e-06
2.60864e-06
1.2709e-06
1.15482e-06
1.64546e-06
1.0692e-06
1.14229e-06
1.02999e-06
1.16675e-06
1.11844e-06
9.2549e-07
4.93399e-06
9.23934e-07
2.70038e-06
1.21407e-06
8.24925e-07
1.15515e-06
2.02923e-06
1.41327e-06
5.2452e-06
9.96526e-07
4.47835e-06
1.97074e-06
1.13406e-06
1.10513e-06
1.06732e-06
1.02967e-06
9.29001e-07
1.07237e-06
1.11015e-06
1.10137e-06
9.26311e-07
2.26475e-06
9.66732e-07
1.47331e-06
1.12717e-06
8.78996e-07
1.13506e-06
1.3585e-06
1.25262e-06
3.79119e-06
9.96022e-07
2.41821e-06
1.4654e-06
1.11558e-06
1.19314e-06
9.07238e-07
1.07092e-06
9.30643e-07
1.15433e-06
1.11152e-06
1.31791e-06
9.87486e-07
1.35448e-06
1.04815e-06
1.15142e-06
1.13195e-06
9.66997e-07
1.21291e-06
1.23939e-06
1.24893e-06
2.24616e-06
1.07624e-06
2.09694e-06
1.46047e-06
1.24493e-06
1.45416e-06
9.69695e-07
1.19002e-06
1.0832e-06
1.14669e-06
1.36435e-06
1.20344e-06
1.08321e-06
1.10835e-06
1.20376e-06
1.15589e-06
1.22538e-06
1.00825e-06
1.36966e-06
1.27566e-06
1.49691e-06
2.35838e-06
1.21611e-06
3.04512e-06
1.93257e-06
1.51843e-06
2.18056e-06
1.13879e-06
1.2017e-06
1.43258e-06
1.70582e-06
1.22889e-06
2.69544e-06
1.24612e-06
1.194e-06
1.52415e-06
1.46303e-06
1.46854e-06
1.5492e-06
1.77284e-06
1.56491e-06
2.28793e-06
3.17525e-06
1.66114e-06
2.7702e-06
2.76923e-06
2.37215e-06
3.38151e-06
1.53608e-06
1.83401e-06
1.94222e-06
2.12036e-06
3.11278e-06
3.60022e-06
1.61009e-06
1.55982e-06
2.01797e-06
1.88878e-06
1.81008e-06
1.96213e-06
1.84783e-06
2.44858e-06
3.23295e-06
2.54953e-06
2.40949e-06
2.21897e-06
2.58925e-06
3.65197e-06
4.76742e-06
2.03942e-06
2.16733e-06
2.57625e-06
2.50892e-06
3.66353e-06
4.15034e-06
2.12423e-06
2.0257e-06
2.65976e-06
2.66826e-06
2.04568e-06
2.36737e-06
3.09516e-06
3.61221e-06
4.96727e-06
2.42602e-06
3.02209e-06
3.39629e-06
6.42544e-06
5.23391e-06
7.7204e-06
2.80154e-06
2.83639e-06
3.55189e-06
3.76603e-06
4.63066e-06
8.57241e-06
2.86684e-06
2.97939e-06
3.56886e-06
3.34407e-06
3.22188e-06
3.60003e-06
3.57402e-06
5.54856e-06
7.90255e-06
3.44444e-06
4.02187e-06
3.38311e-06
7.06415e-06
8.40812e-06
1.1882e-05
3.90351e-06
3.88009e-06
4.90929e-06
5.00798e-06
9.05231e-06
1.08796e-05
3.93918e-06
3.55383e-06
4.98651e-06
5.29851e-06
3.99052e-06
4.86028e-06
5.14235e-06
7.98641e-06
1.24667e-05
3.95984e-06
6.07939e-06
5.57621e-06
1.29512e-05
1.28179e-05
1.62019e-05
5.25358e-06
5.56922e-06
6.61e-06
6.56258e-06
1.22116e-05
1.78644e-05
5.32978e-06
5.72732e-06
6.57645e-06
6.47011e-06
5.34379e-06
6.37522e-06
6.63175e-06
1.44014e-05
1.69845e-05
5.52925e-06
7.54154e-06
6.61376e-06
1.43943e-05
1.71263e-05
2.28775e-05
7.05139e-06
7.02841e-06
8.42281e-06
8.39067e-06
1.82279e-05
2.19956e-05
7.05949e-06
6.91844e-06
8.41363e-06
7.98385e-06
7.02878e-06
8.43246e-06
8.59449e-06
1.68104e-05
2.13018e-05
6.81246e-06
8.51181e-06
8.58602e-06
2.3472e-05
2.40866e-05
2.89643e-05
9.2121e-06
8.91398e-06
1.09907e-05
1.14407e-05
2.38707e-05
2.92953e-05
9.10403e-06
8.41444e-06
1.09226e-05
1.16308e-05
9.79053e-06
1.10633e-05
1.11719e-05
2.29873e-05
2.97447e-05
9.56716e-06
1.19063e-05
1.01929e-05
2.99301e-05
3.06441e-05
3.62012e-05
1.13231e-05
1.21508e-05
1.38375e-05
1.26983e-05
3.03708e-05
3.56305e-05
1.14176e-05
1.27558e-05
1.40638e-05
1.32134e-05
1.09577e-05
1.26368e-05
1.46115e-05
3.20704e-05
3.77096e-05
1.08372e-05
1.51048e-05
1.66976e-05
3.71635e-05
3.75329e-05
4.60728e-05
1.51677e-05
1.35026e-05
1.78469e-05
1.90519e-05
3.69138e-05
4.58515e-05
1.52254e-05
1.32091e-05
1.73783e-05
1.75539e-05
1.71352e-05
1.91533e-05
1.8478e-05
3.74113e-05
4.2259e-05
1.90745e-05
1.76391e-05
1.86262e-05
4.6997e-05
4.70679e-05
4.86275e-05
1.82291e-05
2.04609e-05
2.02701e-05
2.0488e-05
4.84871e-05
5.10699e-05
1.78511e-05
1.97683e-05
2.04737e-05
2.19125e-05
1.74086e-05
1.99017e-05
1.6782e-05
4.5691e-05
5.38524e-05
1.72863e-05
2.18803e-05
1.63658e-05
4.06873e-05
5.01359e-05
5.81134e-05
2.15316e-05
2.02787e-05
2.55901e-05
2.44879e-05
5.06881e-05
5.49806e-05
2.18535e-05
2.14347e-05
2.57191e-05
2.34446e-05
2.06984e-05
2.45773e-05
3.05318e-05
5.37849e-05
5.36525e-05
2.07348e-05
2.42419e-05
3.16499e-05
6.60957e-05
5.95688e-05
6.30488e-05
2.68856e-05
2.70373e-05
2.97465e-05
3.10079e-05
5.78973e-05
6.48684e-05
2.67528e-05
2.5767e-05
2.95961e-05
3.09998e-05
3.08475e-05
3.10708e-05
2.90137e-05
5.53459e-05
6.47352e-05
3.20432e-05
3.01332e-05
3.00125e-05
6.28212e-05
6.41094e-05
6.82497e-05
3.07718e-05
3.16808e-05
3.47582e-05
3.38539e-05
6.55867e-05
6.98702e-05
3.0773e-05
3.15597e-05
3.47981e-05
3.49978e-05
2.94174e-05
3.35973e-05
3.51744e-05
6.62229e-05
6.85971e-05
3.00093e-05
3.56634e-05
3.61412e-05
6.85729e-05
6.9446e-05
7.37268e-05
3.58432e-05
3.60038e-05
4.04129e-05
4.20935e-05
7.11694e-05
7.1374e-05
3.58711e-05
3.64269e-05
4.01382e-05
3.9334e-05
3.59227e-05
4.17809e-05
3.86244e-05
6.93304e-05
7.30625e-05
3.66433e-05
3.90645e-05
3.7673e-05
7.31955e-05
7.48529e-05
7.8004e-05
4.23562e-05
4.15137e-05
4.46619e-05
3.98271e-05
7.12248e-05
7.60842e-05
4.18905e-05
4.0689e-05
4.518e-05
4.59904e-05
4.13157e-05
3.96153e-05
4.67969e-05
7.42267e-05
7.80359e-05
4.01566e-05
4.65944e-05
4.72355e-05
7.80722e-05
7.8906e-05
8.26325e-05
4.56653e-05
4.31446e-05
5.25983e-05
5.69133e-05
7.90418e-05
8.81604e-05
4.63513e-05
4.75638e-05
5.20451e-05
5.0391e-05
4.66218e-05
5.65737e-05
4.85828e-05
7.91895e-05
8.35865e-05
4.74769e-05
5.06212e-05
4.85147e-05
8.14006e-05
8.37386e-05
8.72654e-05
5.37826e-05
6.0398e-05
5.70367e-05
6.17081e-05
8.86609e-05
8.62612e-05
5.3214e-05
5.25842e-05
5.72484e-05
6.09556e-05
5.06364e-05
6.17422e-05
6.06842e-05
8.47204e-05
8.67958e-05
5.01858e-05
5.98724e-05
6.03704e-05
8.88859e-05
8.83079e-05
9.06856e-05
6.01333e-05
6.00222e-05
6.40511e-05
5.5863e-05
8.58942e-05
8.80507e-05
5.96903e-05
6.1018e-05
6.37478e-05
5.77524e-05
6.33813e-05
5.61855e-05
6.2702e-05
8.68112e-05
8.72915e-05
6.34318e-05
5.65853e-05
6.32611e-05
8.97221e-05
9.10608e-05
9.30396e-05
6.33747e-05
5.7742e-05
6.65099e-05
7.28003e-05
8.97134e-05
9.62441e-05
6.40459e-05
5.88887e-05
6.74102e-05
7.08765e-05
6.15552e-05
7.24847e-05
6.78574e-05
8.89152e-05
9.77879e-05
6.2168e-05
7.12443e-05
6.78869e-05
9.36581e-05
9.43343e-05
0.00010025
6.94224e-05
7.62652e-05
7.80498e-05
7.64724e-05
9.68704e-05
9.78226e-05
6.95886e-05
7.51322e-05
7.67646e-05
8.08658e-05
7.20989e-05
7.42661e-05
7.62148e-05
9.89571e-05
0.000100087
7.12391e-05
8.26027e-05
7.46227e-05
9.89333e-05
0.00010103
0.000102213
7.95981e-05
7.48068e-05
8.03669e-05
7.57107e-05
9.827e-05
0.000102118
7.88486e-05
7.994e-05
8.19072e-05
7.69132e-05
7.70294e-05
8.0966e-05
8.40247e-05
0.000100012
0.000100306
7.57885e-05
7.89773e-05
8.40049e-05
0.000106193
0.000102747
0.000106943
8.17955e-05
8.0844e-05
8.97206e-05
9.3263e-05
0.000103911
0.000109027
8.24379e-05
7.89032e-05
8.84003e-05
8.9103e-05
8.66337e-05
9.11878e-05
9.25714e-05
0.000101164
0.000107458
8.67526e-05
8.6719e-05
9.37106e-05
0.000106431
0.000107936
0.000109512
9.21383e-05
9.63875e-05
9.26091e-05
9.83644e-05
0.000109598
0.000110027
9.08226e-05
9.04856e-05
9.23274e-05
9.3921e-05
9.1244e-05
9.42811e-05
8.36065e-05
0.000108222
0.000109871
9.28482e-05
9.53164e-05
8.37376e-05
0.000100455
0.000109803
0.000113055
9.18845e-05
9.63404e-05
9.77721e-05
8.8422e-05
0.000109436
0.000106009
9.28239e-05
9.49872e-05
9.92071e-05
9.53167e-05
8.18603e-05
8.86513e-05
9.9943e-05
0.000110182
0.000110472
8.1263e-05
9.24857e-05
9.59101e-05
0.000119848
0.000114156
0.000116712
0.000100637
8.7835e-05
0.000103969
0.000110584
0.000107409
0.000127159
0.000100397
9.61307e-05
0.000100927
0.000105395
0.000107753
0.000112954
0.000117913
0.000111279
0.000120837
0.000107381
0.000108599
0.000125328
0.000129481
0.000117568
0.000124713
0.000105429
0.000116142
0.000113493
0.000118995
0.000129247
0.000124244
0.000103138
0.000109366
0.000114366
0.0001182
0.000118493
0.000119199
0.000117016
0.000123005
0.000126064
0.000126233
0.000118406
0.000119361
0.000121303
0.000125839
0.000125331
0.000116474
0.000117083
0.000117508
0.000106154
0.000122263
0.000111476
0.000117775
0.000118434
0.00011993
0.000112739
0.00011465
0.000103817
0.000102348
0.000125643
0.000119242
0.000114273
0.000110903
9.657e-05
0.000110637
0.000124547
0.000122497
0.000115644
0.000104366
0.000110874
0.000118195
0.000112159
0.000134518
0.000118339
0.000110311
0.000112752
0.000109789
9.99387e-05
0.00012021
0.00011318
0.000118288
0.000123391
9.35678e-05
0.000107006
0.0001063
0.000126351
0.00012387
0.00013645
0.000112662
0.000126407
0.000130519
0.000137849
0.000138311
0.000143856
0.000112393
0.000116725
0.00012743
0.000131883
0.000123967
0.000141284
0.000140377
0.000127105
0.000138633
0.000120025
0.000133256
0.000144403
0.00014718
0.000137915
0.000137711
0.000133991
0.000138275
0.000136071
0.000134651
0.000143429
0.000133505
0.00013171
0.000134548
0.000135833
0.00013591
0.000141224
0.000133717
0.000136847
0.000139344
0.000138115
0.000147266
0.000138119
0.000146246
0.000139
0.000137092
0.000131654
0.000134946
0.000130607
0.000128059
0.000120673
0.000131989
0.000122031
0.000134924
0.000134923
0.000129235
0.000128405
0.000132801
0.000116692
0.000123112
0.000137569
0.000131875
0.000141752
0.000130106
0.000128135
0.000128139
0.00013119
0.000139945
0.000126442
0.000119057
0.000132417
0.000133798
0.000121641
0.000142145
0.000127732
0.000126713
0.000132975
0.00013071
0.000121553
0.000133262
0.000134439
0.000131185
0.000137089
0.000126111
0.000128524
0.000130874
0.000141319
0.000142706
0.000150001
0.000138524
0.0001422
0.000150237
0.000155427
0.000146315
0.000156803
0.000137864
0.00013592
0.000148664
0.000148744
0.000141646
0.000158646
0.000152394
0.000139767
0.000149786
0.000137903
0.000147992
0.000150023
0.000151155
0.000150397
0.000147925
0.000151676
0.000156228
0.000151084
0.000153574
0.000156963
0.000150466
0.000150682
0.000151141
0.000151231
0.000152296
0.000153007
0.000157167
0.00014988
0.00015064
0.000149054
0.00015125
0.000152134
0.000149049
0.000145415
0.000147204
0.000143407
0.00014943
0.00015069
0.000144377
0.000145252
0.000149393
0.000143675
0.000150104
0.000150947
0.000145021
0.000145762
0.000147485
0.000146179
0.000143428
0.000148294
0.000144117
0.000147209
0.000145872
0.000143864
0.000143601
0.000143791
0.000153878
0.000143582
0.000144434
0.000153713
0.00015333
0.000143641
0.000153132
0.000144054
0.000145035
0.000153157
0.000154835
0.000143883
0.000150605
0.000157802
0.000144569
0.000155743
0.00014515
0.000155685
0.000160417
0.000159329
0.000156
0.000160437
0.00015799
0.000157272
0.000165095
0.000163411
0.000155221
0.000158392
0.000157693
0.000158807
0.000165202
0.000164345
0.000161773
0.000164308
0.000165834
0.000157563
0.000159035
0.000163874
0.000164636
0.00016644
0.000160991
0.000160347
0.000155441
0.000165562
0.000163004
0.000162717
0.00015963
0.000158015
0.000153938
0.000165714
0.000164256
0.000163045
0.000159371
0.000165531
0.000161202
0.000156855
0.000158576
0.000151532
0.000165691
0.000158319
0.000155405
0.000148112
0.000154504
0.000154937
0.000160473
0.000158835
0.000157701
0.000164385
0.000153567
0.000161734
0.000160737
0.000157465
0.000157729
0.000157621
0.000154833
0.000163204
0.00015793
0.000150532
0.00015683
0.000153619
0.000157162
0.000159444
0.000158843
0.000157243
0.000168803
0.000160216
0.000168108
0.000174792
0.000174582
0.000164073
0.000167264
0.000159973
0.000164211
0.000175331
0.000179938
0.00016592
0.000174814
0.000180318
0.000160923
0.000174568
0.000167848
0.000180669
0.000180332
0.000174326
0.000169364
0.000166767
0.000176952
0.00017504
0.000177797
0.000172427
0.000166945
0.000161374
0.000177541
0.000181349
0.000178061
0.000178396
0.000181082
0.000172593
0.000177539
0.000174675
0.000165071
0.000180582
0.000177271
0.000174416
0.000163851
0.000165955
0.000161512
0.000176822
0.00017023
0.000171347
0.000166537
0.000160265
0.00015896
0.000176628
0.000174501
0.000170754
0.000166433
0.000174182
0.000166442
0.000166439
0.000163148
0.000156621
0.000170891
0.00016653
0.000165605
0.00015628
0.000161617
0.00017212
0.000170439
0.000168313
0.000178525
0.000187283
0.00016109
0.000181224
0.000169875
0.00016561
0.000178452
0.000178682
0.00016538
0.000186906
0.000178219
0.000157482
0.000173179
0.000165879
0.000180501
0.000182977
0.000174012
0.0001744
0.000178861
0.000183362
0.000192716
0.000190872
0.000197965
0.000183738
0.000185298
0.000183253
0.000184359
0.000190682
0.000193151
0.000184716
0.000198107
0.000195388
0.000175793
0.000181415
0.000188176
0.000192923
0.000196645
0.00018558
0.000178557
0.00017313
0.000191285
0.000196444
0.000188086
0.000181358
0.000182985
0.000164571
0.000191099
0.000193608
0.0001885
0.000189523
0.000196036
0.000181937
0.00018953
0.000181103
0.000173805
0.000197151
0.000189288
0.000188305
0.000172437
0.000172378
0.000169417
0.000185926
0.000176114
0.000180626
0.000168632
0.000162108
0.000157722
0.00018662
0.000186932
0.000181846
0.00018122
0.000185928
0.000168737
0.000177633
0.000172753
0.00016826
0.000184128
0.000179804
0.000174733
0.000163543
0.000169418
0.000175942
0.000179682
0.000169309
0.000186854
0.000192271
0.000159807
0.000182747
0.000180929
0.000180347
0.000186451
0.000186217
0.000176584
0.000191983
0.00018746
0.000168186
0.000175527
0.00017355
0.000184419
0.000185844
0.000177695
0.000177732
0.000186495
0.000190898
0.000198955
0.000201309
0.000213133
0.000186302
0.000199428
0.000190073
0.000189673
0.000199853
0.000198666
0.000193065
0.000213897
0.000204746
0.000177345
0.000184917
0.00019201
0.000200086
0.000205004
0.000190166
0.000187448
0.000187759
0.000203897
0.000214641
0.000206186
0.00020852
0.000199592
0.000187377
0.000202253
0.00020086
0.00020471
0.000204186
0.000206221
0.000208151
0.00020472
0.000185914
0.000188276
0.000206835
0.000206207
0.000206326
0.000185592
0.000186848
0.00018046
0.000204922
0.000203479
0.000197575
0.000191796
0.000185001
0.000174279
0.000204202
0.000204386
0.000198894
0.000201149
0.000201666
0.000190836
0.000194708
0.000187909
0.000183276
0.00020333
0.000200726
0.000196662
0.000178842
0.000179849
0.000180481
0.0001957
0.000189503
0.000193751
0.000187858
0.000173311
0.000175962
0.00019741
0.000199903
0.000195696
0.000197813
0.000193859
0.000188854
0.00019627
0.000182772
0.000181988
0.000195842
0.000197642
0.000196973
0.000182806
0.000181343
0.000186533
0.000195027
0.000191584
0.000203
0.000204602
0.000178063
0.000188718
0.000196293
0.000197705
0.000202505
0.000200944
0.000199223
0.000205291
0.000204969
0.000182312
0.000184565
0.000199221
0.000201274
0.000203971
0.000187349
0.000187121
0.000189169
0.000204909
0.000207962
0.000208561
0.000212385
0.000190217
0.000193675
0.000204047
0.000201327
0.000206572
0.000203098
0.000206056
0.000212099
0.000207364
0.000184307
0.000185122
0.000204635
0.000202436
0.000205056
0.000188061
0.000189398
0.000190956
0.000209355
0.000212429
0.000210544
0.000209229
0.000193358
0.000188396
0.000207373
0.000204826
0.000210178
0.000210862
0.00020775
0.000208749
0.000209526
0.000186086
0.000192508
0.000205823
0.000211009
0.000209691
0.000190544
0.000190898
0.000190277
0.000210507
0.000207841
0.000209243
0.000206498
0.000187563
0.000187231
0.00021078
0.000212308
0.000211044
0.00021358
0.000209782
0.000206128
0.000208806
0.000193017
0.00019334
0.0002106
0.000213697
0.000210933
0.000190011
0.00019004
0.00019246
0.000209034
0.000207414
0.00021225
0.000215339
0.000188334
0.00019648
0.000210992
0.000213531
0.000212393
0.000212638
0.000208534
0.000215337
0.000212031
0.000193089
0.000191925
0.000210643
0.000212447
0.00021157
0.000192114
0.000193007
0.000194721
0.00021382
0.000217224
0.000216451
0.000218851
0.000197101
0.000197174
0.000213165
0.000212437
0.000215126
0.000213045
0.000213921
0.000219271
0.000217584
0.000191713
0.000192823
0.000212944
0.000213324
0.000216301
0.000195944
0.000194579
0.000193332
0.000216591
0.000218271
0.000215495
0.000213564
0.000196412
0.000190808
0.000215303
0.000214077
0.000214953
0.000215083
0.000217849
0.000213926
0.000216144
0.000193208
0.000193864
0.000216655
0.000215605
0.000216079
0.000193607
0.000193043
0.000194528
0.000214845
0.000212262
0.000214447
0.000211557
0.000190107
0.000191435
0.000214856
0.000215067
0.000216713
0.00021703
0.000214959
0.000211483
0.00021357
0.000193619
0.000195033
0.000215288
0.000216183
0.00021459
0.000192898
0.000195019
0.000197435
0.000215605
0.000213527
0.000219939
0.00022087
0.000192678
0.000198925
0.000217732
0.000218186
0.000219905
0.000220562
0.00021416
0.000220468
0.000220035
0.000195627
0.000198025
0.000215512
0.000220646
0.000220501
0.000198196
0.000197488
0.000197986
0.000220934
0.000222416
0.000222096
0.000223936
0.000199285
0.000199805
0.000220363
0.000220695
0.000220877
0.000219741
0.00022112
0.00022352
0.000221785
0.00019791
0.000196259
0.000221192
0.000220246
0.000221292
0.000197625
0.000197802
0.000196724
0.00022207
0.000223492
0.00022033
0.000219694
0.000199385
0.000195697
0.00022077
0.00021931
0.000220295
0.000219724
0.00022137
0.000220074
0.000220205
0.000195902
0.000196858
0.000220648
0.000219759
0.000219778
0.000196232
0.00019649
0.000198266
0.000219946
0.000218804
0.000220613
0.000219024
0.000195187
0.000196675
0.000220357
0.000221065
0.000222485
0.00022402
0.00022024
0.000219706
0.000222869
0.00019752
0.000200389
0.000219962
0.000223911
0.000223514
0.000199944
0.000198643
0.000199923
0.000221947
0.000220905
0.000224605
0.000226001
0.000197658
0.000201945
0.000223201
0.000224259
0.000224105
0.000223562
0.000223917
0.000226072
0.000225075
0.000200281
0.000198711
0.00022428
0.000223811
0.000224825
0.000200099
0.000199786
0.000200083
0.000224957
0.00022664
0.000225532
0.00022635
0.00020194
0.00020047
0.000224203
0.000223042
0.000224444
0.000222672
0.000224947
0.000225867
0.000223149
0.000198331
0.000198018
0.000224279
0.000222614
0.000222673
0.000197809
0.000199953
0.00019967
0.000225484
0.000225346
0.000224483
0.000222592
0.000199993
0.000197146
0.000224624
0.00022289
0.000224924
0.0002251
0.000222913
0.000222363
0.000223411
0.000198195
0.000200372
0.000222605
0.000225018
0.000224097
0.000199527
0.000199376
0.000198747
0.000223992
0.000222019
0.000223501
0.000222352
0.000196758
0.000198394
0.00022474
0.000225449
0.000224415
0.000226254
0.000224383
0.00022304
0.000226664
0.00020038
0.00020107
0.000225268
0.000226758
0.000227304
0.000202018
0.000198854
0.000201259
0.000223765
0.000223861
0.000226835
0.000228552
0.000199142
0.000203311
0.000224564
0.000226406
0.000226481
0.000226525
0.00022693
0.000228588
0.000226472
0.000200942
0.000200672
0.000227531
0.000226465
0.000225953
0.00019999
0.000201259
0.000201825
0.000227394
0.000229697
0.000228651
0.000231614
0.000203575
0.000204696
0.000226813
0.000226337
0.000227705
0.000225872
0.00022595
0.000231229
0.000225722
0.000200421
0.000199787
0.000225233
0.00022534
0.000224728
0.000199212
0.000201648
0.000201043
0.000228626
0.000230676
0.000227113
0.00022481
0.000203979
0.000198077
0.000227789
0.00022597
0.000227516
0.000227197
0.000226107
0.000224811
0.00022772
0.000199705
0.000201379
0.000225151
0.000227416
0.000228198
0.000202253
0.000200724
0.000198548
0.0002264
0.00022292
0.000224107
0.000220158
0.00019691
0.000193817
0.000227145
0.000227477
0.000225209
0.000227449
0.000227838
0.000220525
0.000226106
0.000201362
0.000201111
0.000228592
0.0002282
0.000227667
0.000200347
0.000198266
0.00020001
0.000223949
0.000220484
0.000225683
0.000228633
0.000194421
0.000203855
0.000224939
0.00022702
0.000225492
0.000225722
0.000225724
0.000228869
0.000225935
0.000200773
0.000199461
0.000226858
0.00022566
0.000225394
0.000199384
0.000200359
0.000204711
0.000227052
0.000230993
0.000233702
0.00023854
0.000204784
0.000209743
0.00022624
0.000225415
0.000231734
0.000228641
0.000226183
0.000238142
0.000230924
0.000199186
0.000200852
0.000225288
0.00022817
0.000229001
0.000202123
0.000207265
0.000232541
0.000235998
0.000210976
0.000230972
0.000227778
0.000262124
0.000250504
0.000252972
0.000230088
0.000203474
0.000228427
9.36569e-06
2.24563e-06
3.78059e-06
3.94513e-06
5.17378e-07
2.13632e-06
5.64401e-07
1.66838e-06
5.95639e-07
2.51617e-06
1.20104e-06
3.87789e-06
2.3385e-06
5.64829e-07
1.25281e-06
1.11808e-06
1.39711e-05
1.03563e-06
1.57498e-05
1.05646e-05
1.28026e-05
1.29746e-06
1.39643e-05
1.27721e-06
1.55448e-05
2.3091e-06
2.40594e-06
2.55423e-06
2.5559e-06
2.29917e-06
2.39032e-06
2.52797e-06
6.20803e-07
3.34856e-07
1.20824e-06
1.81421e-06
5.89661e-07
4.42951e-07
1.1994e-06
1.46525e-05
1.2629e-05
6.839e-07
1.41213e-06
1.11729e-06
2.95618e-06
6.2208e-07
1.36264e-06
1.30617e-06
1.52566e-06
1.50843e-06
2.29902e-06
1.77668e-06
1.72083e-06
1.33889e-06
1.90062e-05
1.23995e-06
2.14387e-05
1.68907e-05
1.90333e-05
1.37702e-06
1.9046e-05
1.32822e-06
2.15207e-05
2.2979e-06
2.38729e-06
2.5146e-06
2.57326e-06
2.29564e-06
2.37907e-06
2.48161e-06