/*--------------------------------*- C++ -*----------------------------------*\
| =========                 |                                                 |
| \\      /  F ield         | OpenFOAM: The Open Source CFD Toolbox           |
|  \\    /   O peration     | Version:  v2006                                 |
|   \\  /    A nd           | Website:  www.openfoam.com                      |
|    \\/     M anipulation  |                                                 |
\*---------------------------------------------------------------------------*/
FoamFile
{
    version     2.0;
    format      ascii;
    class       volScalarField;
    location    "625";
    object      nut;
}
// * * * * * * * * * * * * * * * * * * * * * * * * * * * * * * * * * * * * * //

dimensions      [0 2 -1 0 0 0 0];


internalField   nonuniform List<scalar> 
171728
(
0.000233973
0.000233116
0.000233116
0.000233423
0.000232532
0.000227802
0.000227801
0.000223866
0.000230516
0.000220319
0.000220318
0.000209109
0.000227799
0.000211664
0.000211662
0.000193784
0.000224433
0.000202648
0.000202645
0.000179707
0.000220552
0.00019377
0.000193767
0.000167336
0.000216305
0.000185273
0.00018527
0.000156583
0.000211821
0.000177231
0.000177228
0.000147202
0.000207208
0.000169686
0.000169683
0.000138946
0.000202546
0.000162609
0.000162605
0.00013161
0.000197891
0.000155947
0.000155943
0.000124949
0.000193277
0.000149645
0.00014964
0.000118811
0.000188684
0.000143664
0.000143658
0.000113163
0.000184152
0.000137951
0.000137945
0.000107927
0.000179708
0.000132461
0.000132455
0.000103049
0.00017534
0.000127189
0.000127184
9.84322e-05
0.000171038
0.000122147
0.000122144
9.42518e-05
0.000166787
0.000117367
0.000117365
9.06547e-05
0.000162589
0.000112881
0.00011288
8.77293e-05
0.000158418
0.000108749
0.00010875
8.53824e-05
0.000154267
0.000105018
0.000105019
8.36614e-05
0.000150145
0.000101704
0.000101704
8.25737e-05
0.000146068
9.88902e-05
9.88919e-05
8.2096e-05
0.000142049
9.65814e-05
9.65808e-05
8.21504e-05
0.000138122
9.47928e-05
9.47953e-05
8.26956e-05
0.000134292
9.35014e-05
9.35073e-05
8.36561e-05
0.000130631
9.27404e-05
9.27456e-05
8.49957e-05
0.000127149
9.24615e-05
9.24604e-05
8.66924e-05
0.000123903
9.26424e-05
9.26515e-05
8.86449e-05
0.000120911
9.32283e-05
9.32271e-05
9.08e-05
0.000118172
9.42186e-05
9.42216e-05
9.30863e-05
0.000115787
9.55793e-05
9.55875e-05
9.55524e-05
0.000113763
9.72378e-05
9.72406e-05
9.81281e-05
0.000112009
9.91835e-05
9.91855e-05
0.000100727
0.000110706
0.000101351
0.000101375
0.000103387
0.000109833
0.000103924
0.000103952
0.000106256
0.000109151
0.000106264
0.000106254
0.000108686
0.000108393
0.000108932
0.000108842
0.000111332
0.000108823
0.000111885
0.000111807
0.000114377
0.000110178
0.000115201
0.000115354
0.000116972
0.000109363
0.000117381
0.000117794
0.00011942
0.000111017
0.000121327
0.000121539
0.000122923
0.000116319
0.000127343
0.000124827
0.000127624
0.000119069
0.000129718
0.000128742
0.000128615
0.000106486
0.000120694
0.000128212
0.000121742
9.56648e-05
0.000125068
0.000124202
0.000124786
0.000132137
0.000131904
0.000132635
0.000139129
0.000154257
0.000153745
0.000147962
0.000146271
0.000147749
0.00017579
0.000155615
0.000147435
0.000117143
0.000155574
0.000157282
0.00015524
0.000122607
0.000132185
0.000140138
0.000139763
0.000141979
0.000140812
0.000145508
0.000121822
0.000118427
0.000132451
0.00018208
0.000153822
0.00010578
0.00016379
0.000149794
0.00017097
0.000174607
0.000191954
0.000118447
0.000152768
0.000189123
0.000156649
0.000168829
0.000143111
0.00014846
0.000151738
0.000206406
0.000147905
0.000140697
0.000183081
0.000184354
0.000157831
0.000166815
0.000168259
0.000152027
0.00017672
0.000168257
0.000162146
0.000159435
0.000176911
0.000165529
0.000184241
0.000184332
0.000156135
0.000167439
0.000184103
0.000186505
0.000156219
0.00017071
0.00018018
0.000184426
0.000173042
0.000177698
0.000183664
0.000184569
0.000175371
0.000183993
0.000187316
0.000182761
0.000171159
0.000185217
0.000184212
0.000180053
0.00016851
0.00018588
0.000183491
0.000190309
0.000172471
0.00018909
0.000192334
0.000194817
0.000176762
0.000194523
0.000196422
0.000193477
0.000178001
0.000196158
0.000195922
0.00019119
0.000176636
0.000196989
0.000194365
0.000197022
0.000178388
0.000201671
0.000197505
0.000199981
0.000181109
0.00020534
0.000200031
0.000199126
0.000181986
0.000206919
0.000201228
0.000199509
0.000181774
0.000208348
0.000201645
0.000202525
0.000181864
0.000212472
0.000203556
0.000204834
0.000184303
0.0002153
0.000205099
0.000204855
0.000185671
0.000214702
0.000205706
0.000204057
0.000184836
0.000216127
0.000205913
0.000206461
0.000184997
0.000219852
0.000207441
0.000208623
0.00018717
0.000222008
0.000208965
0.000208388
0.00018726
0.000223529
0.000209093
0.00020866
0.000187167
0.000225495
0.000210132
0.000210541
0.000188511
0.000225889
0.000211193
0.000210487
0.000188656
0.000224454
0.000210099
0.00021024
0.000187755
0.000227898
0.00021012
0.000211599
0.000188542
0.00023166
0.000213424
0.000212198
0.000189623
0.000234098
0.000214625
0.000214118
0.000190812
0.000229872
0.000212162
0.00021231
0.000188373
0.000224157
0.000209184
0.000210062
0.000188088
0.000242068
0.000216673
0.000218991
0.000196988
0.000244998
0.00021791
0.000209127
0.000185443
0.00021839
0.000203193
0.000200022
0.000176341
0.000243173
0.000223331
0.000236649
0.000203062
0.00026392
0.000233659
0.00023476
0.000216346
0.000234266
0.000234448
0.000234449
0.000234267
0.000234448
0.000234449
0.000234274
0.000234274
0.000234274
0.000234274
0.000234448
0.000234448
0.000234266
0.000234448
0.000234448
0.000234266
0.000233423
0.000226205
0.000233116
0.000233114
0.000229361
0.000229357
0.000233422
0.000226204
0.000233114
0.000233114
0.000229359
0.000229356
0.000233116
0.000229364
0.00022936
0.000233423
0.000226203
0.000233114
0.000229363
0.000229359
0.000226201
0.000223868
0.000212232
0.000227799
0.000227794
0.000222332
0.000222326
0.000223867
0.000212232
0.000227797
0.000227793
0.000222333
0.000222325
0.000227797
0.000222337
0.000222329
0.000223867
0.000212229
0.000227796
0.000222336
0.000222331
0.000212225
0.000209113
0.000197064
0.000220313
0.000220307
0.00021388
0.000213873
0.00020911
0.000197063
0.000220314
0.000220305
0.000213885
0.000213871
0.00022031
0.000213889
0.000213876
0.00020911
0.000197059
0.000220312
0.000213886
0.000213881
0.000197053
0.000193791
0.00018288
0.000211654
0.000211647
0.00020489
0.000204883
0.000193789
0.00018288
0.00021166
0.000211645
0.000204899
0.000204881
0.00021165
0.000204903
0.000204885
0.000193787
0.000182875
0.000211656
0.0002049
0.000204895
0.000182867
0.000179716
0.000170272
0.000202634
0.000202627
0.000195943
0.000195936
0.000179714
0.000170271
0.000202644
0.000202625
0.000195956
0.000195933
0.000202629
0.000195959
0.000195938
0.000179711
0.000170266
0.00020264
0.000195957
0.000195951
0.000170259
0.000167347
0.000159247
0.000193753
0.000193746
0.000187337
0.00018733
0.000167346
0.000159246
0.000193767
0.000193743
0.000187354
0.000187327
0.000193748
0.000187356
0.000187331
0.000167342
0.000159241
0.000193762
0.000187353
0.000187348
0.000159233
0.000156595
0.000149617
0.000185253
0.000185246
0.000179173
0.000179166
0.000156594
0.000149616
0.00018527
0.000185242
0.000179193
0.000179163
0.000185247
0.000179195
0.000179168
0.00015659
0.000149611
0.000185265
0.000179192
0.000179188
0.000149603
0.000147215
0.000141111
0.000177208
0.000177202
0.000171501
0.000171494
0.000147214
0.00014111
0.000177229
0.000177198
0.000171524
0.000171491
0.000177203
0.000171526
0.000171496
0.00014721
0.000141105
0.000177224
0.000171523
0.000171519
0.000141095
0.000138959
0.000133551
0.00016966
0.000169653
0.000164309
0.000164302
0.000138958
0.00013355
0.000169684
0.00016965
0.000164335
0.000164299
0.000169655
0.000164337
0.000164304
0.000138954
0.000133545
0.000169679
0.000164334
0.00016433
0.000133535
0.000131624
0.00012669
0.000162581
0.000162574
0.000157547
0.00015754
0.000131623
0.000126689
0.000162607
0.00016257
0.000157575
0.000157537
0.000162576
0.000157576
0.000157542
0.000131619
0.000126683
0.000162602
0.000157573
0.00015757
0.000126672
0.000124963
0.000120366
0.000155917
0.00015591
0.000151158
0.000151151
0.000124962
0.000120365
0.000155945
0.000155906
0.000151188
0.000151148
0.000155912
0.000151188
0.000151153
0.000124958
0.000120359
0.00015594
0.000151186
0.000151183
0.000120348
0.000118825
0.000114429
0.000149612
0.000149605
0.000145096
0.000145089
0.000118824
0.000114428
0.000149643
0.000149602
0.000145128
0.000145086
0.000149607
0.000145128
0.000145092
0.00011882
0.000114423
0.000149638
0.000145125
0.000145123
0.000114411
0.000113177
0.000108839
0.000143629
0.000143622
0.000139319
0.000139312
0.000113175
0.000108838
0.000143661
0.000143619
0.000139352
0.000139309
0.000143625
0.000139351
0.000139315
0.000113171
0.000108834
0.000143657
0.000139349
0.000139348
0.000108821
0.000107942
0.000103704
0.000137915
0.000137908
0.000133775
0.000133768
0.000107939
0.000103703
0.000137948
0.000137905
0.000133809
0.000133765
0.00013791
0.000133808
0.000133771
0.000107936
0.000103698
0.000137944
0.000133806
0.000133805
0.000103687
0.000103065
9.91317e-05
0.000132424
0.000132417
0.000128446
0.000128438
0.000103063
9.91294e-05
0.000132457
0.000132414
0.000128479
0.000128435
0.000132419
0.00012848
0.000128441
0.000103059
9.91255e-05
0.000132453
0.000128478
0.000128475
9.91151e-05
9.8447e-05
9.4996e-05
0.000127152
0.000127144
0.000123347
0.000123337
9.8445e-05
9.49951e-05
0.000127185
0.000127141
0.000123379
0.000123334
0.000127148
0.000123381
0.000123342
9.84419e-05
9.49918e-05
0.000127181
0.000123378
0.000123375
9.49825e-05
9.42639e-05
9.14391e-05
0.000122114
0.000122104
0.000118479
0.000118469
9.42628e-05
9.14365e-05
0.000122145
0.000122101
0.000118509
0.000118466
0.000122108
0.000118512
0.000118473
9.42601e-05
9.14333e-05
0.000122141
0.00011851
0.000118505
9.1423e-05
9.06679e-05
8.83801e-05
0.000117333
0.000117322
0.000113924
0.000113913
9.06662e-05
8.83787e-05
0.000117364
0.000117319
0.000113953
0.00011391
0.000117327
0.000113956
0.000113919
9.06646e-05
8.83767e-05
0.000117359
0.000113955
0.00011395
8.83679e-05
8.77389e-05
8.59136e-05
0.00011285
0.000112837
0.000109696
0.000109682
8.77369e-05
8.59099e-05
0.000112879
0.000112834
0.000109722
0.000109679
0.000112844
0.000109724
0.00010969
8.77361e-05
8.59079e-05
0.000112875
0.000109724
0.000109719
8.5902e-05
8.53926e-05
8.4071e-05
0.00010872
0.000108706
0.000105851
0.000105837
8.53888e-05
8.40686e-05
0.000108747
0.000108704
0.000105877
0.000105835
0.000108714
0.000105879
0.000105844
8.53877e-05
8.40675e-05
0.000108744
0.000105879
0.000105873
8.40577e-05
8.36739e-05
8.28594e-05
0.00010499
0.000104977
0.000102453
0.000102441
8.36706e-05
8.28581e-05
0.000105017
0.000104975
0.00010248
0.000102438
0.000104983
0.000102483
0.000102449
8.367e-05
8.28553e-05
0.000105012
0.000102482
0.000102477
8.2849e-05
8.25825e-05
8.22656e-05
0.000101675
0.000101663
9.95176e-05
9.95056e-05
8.25809e-05
8.22619e-05
0.000101701
0.00010166
9.9546e-05
9.95031e-05
0.00010167
9.95463e-05
9.95139e-05
8.25785e-05
8.22603e-05
0.000101698
9.95468e-05
9.95408e-05
8.22531e-05
8.21091e-05
8.22145e-05
9.88642e-05
9.88508e-05
9.70804e-05
9.70707e-05
8.21031e-05
8.22105e-05
9.88913e-05
9.88495e-05
9.71081e-05
9.70701e-05
9.88598e-05
9.71083e-05
9.70787e-05
8.21025e-05
8.22133e-05
9.88862e-05
9.71095e-05
9.71043e-05
8.22047e-05
8.21594e-05
8.26529e-05
9.65538e-05
9.6543e-05
9.51603e-05
9.5154e-05
8.21555e-05
8.2653e-05
9.65795e-05
9.65406e-05
9.51877e-05
9.51535e-05
9.65492e-05
9.51939e-05
9.5161e-05
8.21569e-05
8.26524e-05
9.6575e-05
9.51942e-05
9.51875e-05
8.26486e-05
8.26963e-05
8.35353e-05
9.4763e-05
9.47558e-05
9.37594e-05
9.37438e-05
8.26962e-05
8.35252e-05
9.47898e-05
9.47541e-05
9.37845e-05
9.37444e-05
9.4767e-05
9.37745e-05
9.37614e-05
8.26967e-05
8.35275e-05
9.4792e-05
9.37802e-05
9.37822e-05
8.3532e-05
8.36628e-05
8.47998e-05
9.34858e-05
9.34714e-05
9.28569e-05
9.28486e-05
8.36519e-05
8.4797e-05
9.35089e-05
9.34718e-05
9.28817e-05
9.28502e-05
9.34845e-05
9.28827e-05
9.28514e-05
8.36542e-05
8.48001e-05
9.35051e-05
9.28877e-05
9.28751e-05
8.4785e-05
8.50085e-05
8.64263e-05
9.27153e-05
9.27053e-05
9.24637e-05
9.24549e-05
8.50059e-05
8.64215e-05
9.27397e-05
9.27084e-05
9.2485e-05
9.24563e-05
9.27078e-05
9.24891e-05
9.24636e-05
8.50096e-05
8.64245e-05
9.27314e-05
9.24907e-05
9.24826e-05
8.64212e-05
8.66965e-05
8.83128e-05
9.24359e-05
9.24278e-05
9.25251e-05
9.25243e-05
8.66935e-05
8.83161e-05
9.24562e-05
9.24263e-05
9.25505e-05
9.25275e-05
9.24357e-05
9.25525e-05
9.25329e-05
8.66946e-05
8.83181e-05
9.24536e-05
9.256e-05
9.25546e-05
8.83138e-05
8.86416e-05
9.04457e-05
9.26175e-05
9.26152e-05
9.30432e-05
9.30276e-05
8.8646e-05
9.0428e-05
9.2641e-05
9.26197e-05
9.30646e-05
9.30257e-05
9.26276e-05
9.30578e-05
9.30412e-05
8.86494e-05
9.04245e-05
9.26465e-05
9.30548e-05
9.30582e-05
9.04373e-05
9.0809e-05
9.26885e-05
9.32217e-05
9.31986e-05
9.39149e-05
9.39077e-05
9.07872e-05
9.26816e-05
9.32425e-05
9.31975e-05
9.3935e-05
9.39092e-05
9.32202e-05
9.39254e-05
9.39179e-05
9.07833e-05
9.26932e-05
9.32378e-05
9.39348e-05
9.39338e-05
9.26871e-05
9.3086e-05
9.51044e-05
9.41872e-05
9.42005e-05
9.51584e-05
9.51812e-05
9.30936e-05
9.51441e-05
9.42009e-05
9.42039e-05
9.51642e-05
9.51848e-05
9.4191e-05
9.52043e-05
9.51669e-05
9.31049e-05
9.51408e-05
9.4204e-05
9.52134e-05
9.51839e-05
9.51163e-05
9.55496e-05
9.77093e-05
9.55508e-05
9.5554e-05
9.68165e-05
9.67627e-05
9.55729e-05
9.76583e-05
9.55614e-05
9.556e-05
9.68516e-05
9.67801e-05
9.55557e-05
9.67966e-05
9.67847e-05
9.55716e-05
9.76713e-05
9.55747e-05
9.68211e-05
9.67997e-05
9.768e-05
9.8149e-05
0.000100212
9.72413e-05
9.72029e-05
9.86283e-05
9.86538e-05
9.81064e-05
0.000100244
9.72734e-05
9.72018e-05
9.86345e-05
9.86464e-05
9.72373e-05
9.86746e-05
9.8699e-05
9.81138e-05
0.000100239
9.72449e-05
9.86589e-05
9.8701e-05
0.000100271
0.000100677
0.00010296
9.91453e-05
9.91673e-05
0.000100814
0.000100763
0.000100711
0.000102916
9.9157e-05
9.91676e-05
0.000100826
0.000100778
9.91891e-05
0.00010077
0.000100723
0.000100702
0.000102936
9.92007e-05
0.00010078
0.000100745
0.000102896
0.000103433
0.000105732
0.000101367
0.000101351
0.00010323
0.000103272
0.000103398
0.000105745
0.000101374
0.000101372
0.000103251
0.000103285
0.00010133
0.000103282
0.000103293
0.000103419
0.000105748
0.000101349
0.000103337
0.000103313
0.000105777
0.000106249
0.00010838
0.000103908
0.0001039
0.000105824
0.000105615
0.00010623
0.000108259
0.000103924
0.000103908
0.000105816
0.000105617
0.000103887
0.000105665
0.000105707
0.000106242
0.000108264
0.000103887
0.000105642
0.000105702
0.000108247
0.000108782
0.000110636
0.000106336
0.0001062
0.00010796
0.000108166
0.000108692
0.000110876
0.000106348
0.00010621
0.000108002
0.000108178
0.00010632
0.000108212
0.00010809
0.000108696
0.00011086
0.000106328
0.000108168
0.00010807
0.000110829
0.000111111
0.000113767
0.000108645
0.000108905
0.000111047
0.000111117
0.000111388
0.000113745
0.000108673
0.000108877
0.000111058
0.000111009
0.00010883
0.000111101
0.000111266
0.000111341
0.000113623
0.00010881
0.00011106
0.00011129
0.000113853
0.00011438
0.00011699
0.000111919
0.000111911
0.000114865
0.00011439
0.000114263
0.000116641
0.000111906
0.000111754
0.000114825
0.000114365
0.000111941
0.000114398
0.000114272
0.000114151
0.000116696
0.000111944
0.000114379
0.000114288
0.00011651
0.000117421
0.000118457
0.000115627
0.000115153
0.000116475
0.000116763
0.000117106
0.000118844
0.000115605
0.000115292
0.000116479
0.000117198
0.000115117
0.00011683
0.000116858
0.000117239
0.00011932
0.000115176
0.00011728
0.000116867
0.000118984
0.00011873
0.000121989
0.000116852
0.000117349
0.000119806
0.000120203
0.000119257
0.00012225
0.000116859
0.000117767
0.000119976
0.000120589
0.000117546
0.000120094
0.000120312
0.000119731
0.000122211
0.000117519
0.000120578
0.00012035
0.000122174
0.000123054
0.000127846
0.000121227
0.000121448
0.000126262
0.000125742
0.000123118
0.000127257
0.000121469
0.0001216
0.000126344
0.000123868
0.000121274
0.000125832
0.000125131
0.000122843
0.000125345
0.00012136
0.000123747
0.000125159
0.000126804
0.000128676
0.000130417
0.000127955
0.000127167
0.000131049
0.000130173
0.000128021
0.00012941
0.000127912
0.000124878
0.000130841
0.000128059
0.000126699
0.00013035
0.000129905
0.00012589
0.000128189
0.000126661
0.000128126
0.000129796
0.00012902
0.000129956
0.000120369
0.000130794
0.000129629
0.000122953
0.000122961
0.000129024
0.000122059
0.000130505
0.000128745
0.00012266
0.00012876
0.000129427
0.000123082
0.000123923
0.000128465
0.000128204
0.000129412
0.000128883
0.000124084
0.000122969
0.000118264
0.000117548
0.000118968
0.000120493
0.000113663
0.000121317
0.000120632
0.000122791
0.000118799
0.000127942
0.000113849
0.000124703
0.000121721
0.000121319
0.000121847
0.000127855
0.000125036
0.000121798
0.000124681
0.000120911
0.000123115
0.000121119
0.000142966
0.000119778
0.00012549
0.000142857
0.000130408
0.000125066
0.000130222
0.000120151
0.000124504
0.000143289
0.000128957
0.000124843
0.000129649
0.000136618
0.000124676
0.00012922
0.000123897
0.000129106
0.000137492
0.000136671
0.000146187
0.000157985
0.000148441
0.000132215
0.00015973
0.00014782
0.000130618
0.000143878
0.000148975
0.000132113
0.000160657
0.000144398
0.000140711
0.000148244
0.000149026
0.0001312
0.000142075
0.000142266
0.000144723
0.000150473
0.000146006
0.000158413
0.000147491
0.000161383
0.000153327
0.000157765
0.000172355
0.000147631
0.000170015
0.000161877
0.000148187
0.000155516
0.000155354
0.00015033
0.00017215
0.000153256
0.00014398
0.000149867
0.000151053
0.000154244
0.000151528
0.000147079
0.000145445
0.00012928
0.000152739
0.000175899
0.000136788
0.00016523
0.000171653
0.000153076
0.000150544
0.000156971
0.000136103
0.000157912
0.000154221
0.000166893
0.000159687
0.000150544
0.000152307
0.000152073
0.000158006
0.000157157
0.000154812
0.000128235
0.000144887
0.000134421
0.000153558
0.000140874
0.000132717
0.000148142
0.000128282
0.000134531
0.000155935
0.000144315
0.000142332
0.000160204
0.000134117
0.000148881
0.000151586
0.000136632
0.000158147
0.000145373
0.000151348
0.000142637
0.00014965
0.000163724
0.000149927
0.000131548
0.000162566
0.000140225
0.000127939
0.000140218
0.000152418
0.000138486
0.000161013
0.000140972
0.000143209
0.0001353
0.000128518
0.000133772
0.00013861
0.00014609
0.000137789
0.000128484
0.00012275
0.000161915
0.000127224
0.000161858
0.000145251
0.000138231
0.000137683
0.000142339
0.000129944
0.000160075
0.000151027
0.000139886
0.000179102
0.000126725
0.000135195
0.000147352
0.000145019
0.000182618
0.000126542
0.000178405
0.000149298
0.000148922
0.000122501
0.000128842
0.000130043
0.000133358
0.000125932
0.000142926
0.000126971
0.000145867
0.000133425
0.00018126
0.000130175
0.000158933
0.00015627
0.000150802
0.000173855
0.000183968
0.000146504
0.000160622
0.000164545
0.000177527
0.000170756
0.000137515
0.000180198
0.00013935
0.000157871
0.000187553
0.000192482
0.000153837
0.000188628
0.000141598
0.000144439
0.000178444
0.000120409
0.000175858
0.000190938
0.000172134
0.000138327
0.000108872
0.000177959
0.000120789
0.000163339
0.000155338
0.000183075
0.000173027
0.000195098
0.00019458
0.000193372
0.000173071
0.000188886
0.00015122
0.000184998
0.000119006
0.000186593
0.000158629
0.000166289
0.000167731
0.000155
0.000108718
0.000155568
0.000156773
0.000153227
0.000149391
0.000143293
0.000167767
0.000144088
0.000181408
0.000159622
0.00015315
0.000148105
0.000145112
0.000138833
0.000180207
0.000172525
0.000158927
0.000200912
0.000152888
0.000148203
0.000147144
0.000162547
0.000193661
0.000149276
0.000202302
0.000157895
0.00014774
0.000143122
0.000156602
0.000150944
0.000150806
0.000160253
0.000180207
0.000144854
0.000178038
0.000156686
0.000204731
0.000161208
0.000196509
0.00014788
0.000180566
0.00016471
0.000195209
0.000177825
0.00015855
0.000197022
0.00016572
0.000154206
0.000160089
0.000165373
0.000168919
0.000183222
0.000178259
0.000175697
0.000178798
0.000158827
0.000167605
0.000184106
0.000175947
0.000156504
0.000172048
0.000175471
0.000187985
0.000172206
0.000142987
0.000171104
0.000156444
0.000184871
0.000174811
0.000164927
0.000163539
0.000178119
0.000167641
0.000174481
0.000158759
0.000154572
0.000146556
0.000175956
0.000151483
0.000173537
0.000148657
0.000190989
0.000160733
0.000191704
0.000140436
0.000145416
0.000188336
0.000150884
0.000190447
0.000179545
0.000163801
0.000165587
0.000173772
0.000159992
0.000174944
0.000181519
0.000150004
0.000172289
0.000173019
0.000156415
0.000175151
0.000181366
0.00018678
0.000181178
0.000171008
0.000150653
0.000170745
0.000187013
0.000181179
0.000171127
0.000158204
0.000165664
0.000164535
0.0001762
0.000185598
0.000177575
0.000187375
0.000173763
0.000172704
0.000176137
0.000185564
0.000177399
0.000188795
0.000167501
0.000185289
0.000163876
0.000172421
0.000174644
0.000167506
0.000186845
0.000163951
0.000153438
0.000164099
0.000164937
0.000177325
0.000186059
0.000177231
0.000180495
0.000171873
0.000167633
0.000177352
0.000188509
0.000177931
0.000184523
0.000166418
0.000180696
0.000182816
0.000174335
0.000171388
0.000166742
0.000184694
0.000183355
0.000171519
0.000165604
0.00017055
0.000178001
0.000179677
0.000182684
0.000180005
0.000167267
0.000168874
0.000178802
0.00018381
0.000183264
0.000183353
0.000185921
0.000181599
0.000189056
0.000171218
0.000170833
0.000186463
0.000184373
0.000189365
0.000175623
0.000171326
0.000172849
0.000184428
0.000182359
0.000187474
0.000187183
0.000169959
0.000173078
0.000184814
0.000183505
0.000187062
0.000183811
0.000189042
0.000187142
0.000186835
0.000170755
0.000169422
0.000189302
0.000183905
0.000186566
0.000171672
0.000172677
0.000172403
0.000187636
0.000187613
0.000187375
0.000186193
0.000173018
0.000170769
0.000186955
0.000182897
0.000186512
0.000180313
0.000185837
0.000185393
0.000183256
0.000168717
0.000166451
0.000185432
0.000179801
0.000182628
0.000168684
0.000172466
0.000173743
0.000187408
0.000185022
0.000187776
0.000182749
0.000170119
0.000168934
0.000186784
0.000180827
0.000188259
0.000188164
0.000182663
0.00018223
0.000184859
0.000167031
0.000174195
0.000182054
0.000187888
0.000185294
0.000171692
0.000173859
0.00017515
0.000187996
0.000183423
0.000189873
0.000190045
0.000169604
0.000175506
0.000188791
0.000190414
0.000190748
0.000194247
0.000186414
0.000190382
0.000191084
0.000175447
0.00017877
0.000187144
0.000194453
0.000191883
0.000176282
0.000175493
0.000177398
0.000190913
0.00019198
0.000193841
0.000195712
0.000176425
0.000179293
0.000191556
0.00019459
0.000193584
0.000193989
0.000192432
0.000195973
0.000194984
0.000178749
0.000177107
0.000193037
0.000194296
0.000194802
0.000178153
0.000177481
0.000177537
0.000194431
0.00019624
0.000194692
0.000196336
0.000179379
0.000179039
0.000193892
0.000193211
0.000193778
0.000191288
0.000195221
0.000196367
0.000194256
0.000176624
0.000174755
0.000194704
0.000191396
0.000193382
0.000176945
0.000177349
0.000177845
0.000194477
0.00019596
0.00019448
0.000194618
0.000178756
0.000177698
0.000193685
0.000191169
0.000194623
0.000195554
0.000193844
0.000194567
0.000194347
0.000174812
0.000179149
0.000192987
0.000195469
0.000194535
0.000177904
0.000178101
0.000180351
0.000194965
0.000194383
0.00019744
0.000196414
0.000177593
0.00017937
0.00019541
0.000197031
0.000198081
0.000199583
0.000195233
0.000196546
0.000198106
0.000179886
0.000181888
0.000195662
0.000199682
0.000198707
0.000180892
0.000180626
0.00018162
0.000198233
0.00019737
0.000199807
0.0001995
0.000179772
0.000181504
0.00019873
0.000199874
0.000199749
0.000199321
0.000198879
0.000199597
0.000200302
0.000181841
0.000180945
0.000199361
0.000199451
0.000200276
0.00018204
0.000181609
0.000181909
0.000200139
0.000199954
0.000200635
0.000200974
0.000181585
0.000182296
0.000199957
0.000199008
0.000200323
0.000198865
0.000200551
0.000201006
0.000200688
0.000180639
0.000180693
0.000200401
0.000198865
0.000200381
0.000181973
0.0001818
0.00018231
0.000200651
0.000201199
0.000201027
0.000201523
0.000182291
0.000182726
0.000200365
0.000199517
0.000201022
0.000201767
0.000200571
0.000201508
0.000200457
0.000180937
0.000183079
0.000200279
0.000201732
0.000200432
0.000181793
0.000182506
0.000184587
0.000201531
0.000201693
0.000203677
0.000203042
0.000182716
0.000183846
0.000201653
0.000202572
0.000203958
0.000204538
0.000200775
0.000202936
0.000202974
0.000183415
0.000185124
0.000200892
0.000204462
0.000203263
0.000183965
0.000184762
0.000185534
0.000204365
0.000203643
0.000205361
0.000204829
0.00018402
0.000185026
0.000204633
0.000204881
0.000205408
0.000204991
0.000203788
0.000204897
0.00020564
0.000185148
0.000184929
0.000204049
0.000205014
0.000205676
0.000185718
0.00018536
0.000184536
0.000205363
0.000204956
0.000204813
0.000205345
0.000184957
0.00018524
0.000205389
0.000204779
0.000204631
0.000203948
0.000205836
0.000205537
0.000205622
0.000184663
0.000183916
0.000205798
0.00020411
0.000205411
0.000185119
0.000184298
0.000185055
0.000204641
0.000205562
0.00020521
0.00020589
0.000185205
0.000185612
0.000204415
0.000203893
0.000205093
0.000205737
0.000205258
0.000205856
0.000204905
0.00018387
0.000185617
0.000205021
0.000205735
0.000204791
0.000184766
0.000185287
0.000186893
0.000205774
0.000205956
0.000207483
0.000206875
0.000185528
0.000186253
0.000205813
0.000206476
0.000207786
0.000208329
0.000205403
0.000206909
0.000207595
0.000185933
0.000187533
0.000205478
0.000208354
0.000207878
0.000187079
0.000186965
0.000187363
0.000207963
0.000207393
0.000208613
0.000208703
0.000186376
0.000187507
0.000208236
0.000208582
0.000208633
0.000208534
0.000208153
0.000208769
0.000208722
0.000187505
0.000187139
0.000208399
0.0002086
0.000208761
0.000187483
0.00018722
0.000187903
0.000208708
0.000208914
0.000209319
0.0002091
0.000187466
0.000187693
0.000208632
0.000208331
0.000209117
0.000208339
0.000208694
0.000209072
0.000208583
0.000186918
0.00018714
0.000208668
0.000208329
0.000208463
0.000187114
0.000187958
0.000188942
0.000209659
0.000209151
0.000210471
0.000209772
0.000187554
0.000188133
0.000209581
0.000208751
0.000210595
0.000210328
0.000208726
0.000209706
0.000210051
0.00018729
0.000188674
0.000208602
0.00021029
0.000210178
0.000188507
0.000188834
0.000188393
0.000210622
0.000210159
0.000210501
0.000210966
0.000188143
0.000189051
0.000210741
0.000210535
0.000210464
0.000210561
0.000210421
0.000211084
0.000210949
0.000188622
0.00018839
0.000210534
0.000210656
0.00021093
0.000188819
0.000188109
0.000186926
0.000210245
0.000211052
0.000209169
0.000210371
0.00018896
0.000188132
0.000210175
0.000210351
0.00020916
0.000209985
0.000210956
0.000210593
0.000210288
0.000188157
0.00018788
0.000210876
0.000210196
0.000210251
0.000187972
0.000186693
0.000188784
0.000209035
0.0002099
0.000210641
0.00020961
0.000187792
0.000187451
0.00020908
0.000210033
0.000210903
0.000211314
0.000210077
0.000209647
0.000210269
0.00018788
0.000189143
0.000210138
0.000211293
0.000210588
0.000188379
0.000189175
0.000190911
0.000211577
0.00021025
0.000213401
0.000212866
0.000187761
0.000190429
0.000211759
0.000211665
0.000213205
0.00021212
0.000210873
0.000212873
0.000212283
0.000189162
0.0001895
0.000211086
0.000212075
0.000212091
0.000189656
0.000190875
0.000192014
0.000213906
0.000213392
0.000215363
0.000214674
0.000190522
0.000191442
0.000213677
0.000212226
0.000215328
0.000213708
0.000212674
0.000214529
0.000213869
0.000189339
0.000190666
0.000212406
0.0002136
0.000213853
0.000190865
0.000191846
0.00018859
0.000215238
0.000214885
0.000212106
0.000213094
0.000191266
0.000189395
0.000215391
0.000214317
0.000212181
0.000213992
0.000214064
0.00021295
0.00021265
0.000190806
0.000190193
0.000214106
0.000213799
0.000212798
0.000189088
0.000187522
0.00018163
0.000210398
0.00021219
0.00020563
0.000208317
0.000188857
0.000185928
0.000210141
0.000212366
0.00020539
0.000208746
0.000211639
0.000209391
0.000210778
0.000189231
0.000185521
0.000211511
0.000209767
0.000210549
0.000187293
0.000181517
0.000197768
0.000205746
0.000207928
0.000218327
0.000213258
0.000185586
0.000191801
0.000205692
0.000208933
0.0002197
0.000217978
0.000211395
0.000213566
0.00021783
0.000185797
0.000196729
0.000211379
0.000217697
0.000218867
0.000196862
0.000200301
0.000201217
0.000223989
0.000217659
0.000226927
0.000221912
0.000193128
0.000196161
0.000224985
0.000220326
0.000226368
0.000217643
0.000218679
0.000219581
0.000214628
0.000197344
0.000189161
0.000219641
0.000214728
0.000213892
0.000187881
0.000196126
0.000169069
0.000221148
0.00021997
0.000196674
0.000203023
0.000194166
0.000178288
0.00021921
0.000211196
0.00019554
0.000197834
0.000211248
0.000204616
0.000201151
0.000185338
0.000172324
0.000209509
0.000199363
0.00019993
0.00017623
0.000168094
0.000204753
0.000195413
0.00020149
0.000217593
0.000213878
0.000177295
0.000197562
0.000194636
0.000198114
0.000220286
0.000226367
0.000200416
0.000212996
0.000215181
0.000173334
0.000210459
0.000199674
0.000225899
0.000217871
0.000198392
0.000211635
0.00021784
0.000232024
0.000225244
0.000246761
0.000241596
0.00020249
0.000214275
0.000234772
0.000238186
0.000248123
0.00024812
0.000225986
0.000241315
0.000247394
0.000215875
0.000216251
0.000228881
0.000247576
0.000248596
0.000221027
0.000208707
0.000234563
0.000232869
0.000208641
0.000234899
0.0002344
0.000258527
0.000265559
0.000269635
0.000239926
0.00020765
0.000240018
0.00023473
0.000234746
0.000234729
0.000234729
0.000235118
0.000234798
0.000234702
0.000234727
0.000235118
0.000234798
0.000234727
0.000234701
0.000234867
0.000233566
0.000233566
0.000104652
3.8741e-05
0.000129114
3.98253e-05
2.16828e-05
2.28306e-05
0.000104655
3.87377e-05
0.000129112
3.98212e-05
0.000233973
0.000233973
0.000233973
0.000232935
0.000232935
0.000232935
0.000232935
0.0002062
9.36746e-05
0.000233969
0.000231994
0.000222612
8.72277e-05
0.000233611
2.16821e-05
2.28301e-05
0.000206193
0.000233969
9.36718e-05
0.000231994
0.000222617
0.000233611
8.72249e-05
4.77979e-05
4.77899e-05
0.000231344
4.40179e-05
4.40107e-05
7.25719e-05
4.2435e-05
8.14006e-05
4.37645e-05
2.47747e-05
2.54626e-05
7.25665e-05
4.24308e-05
8.13942e-05
4.37602e-05
0.000232532
0.000232532
0.000232532
0.000231084
0.000231084
0.000231084