/*--------------------------------*- C++ -*----------------------------------*\
| =========                 |                                                 |
| \\      /  F ield         | OpenFOAM: The Open Source CFD Toolbox           |
|  \\    /   O peration     | Version:  v2006                                 |
|   \\  /    A nd           | Website:  www.openfoam.com                      |
|    \\/     M anipulation  |                                                 |
\*---------------------------------------------------------------------------*/
FoamFile
{
    version     2.0;
    format      ascii;
    class       volScalarField;
    location    "625";
    object      p;
}
// * * * * * * * * * * * * * * * * * * * * * * * * * * * * * * * * * * * * * //

dimensions      [0 2 -2 0 0 0 0];


internalField   nonuniform List<scalar> 
171728
(
0.0036028
0.00360313
0.00360313
0.00360619
0.00354745
0.00354787
0.00354786
0.00355086
0.0034967
0.00349667
0.00349667
0.00349942
0.00344431
0.00344432
0.00344432
0.0034471
0.00339296
0.00339297
0.00339297
0.00339572
0.00334299
0.003343
0.003343
0.00334572
0.00329447
0.00329448
0.00329448
0.00329716
0.00324724
0.00324727
0.00324727
0.00324991
0.00320112
0.00320115
0.00320114
0.00320376
0.0031559
0.00315592
0.00315592
0.00315851
0.0031114
0.00311143
0.00311142
0.00311399
0.0030675
0.00306752
0.00306752
0.00307007
0.00302412
0.00302414
0.00302414
0.00302666
0.00298121
0.00298123
0.00298123
0.00298372
0.00293873
0.00293874
0.00293874
0.00294124
0.00289666
0.00289666
0.00289666
0.00289915
0.00285497
0.00285496
0.00285496
0.00285744
0.00281363
0.00281363
0.00281363
0.0028161
0.00277263
0.00277262
0.00277262
0.00277508
0.00273195
0.00273193
0.00273193
0.00273438
0.00269156
0.00269152
0.00269152
0.00269398
0.00265143
0.00265139
0.00265139
0.00265384
0.00261156
0.00261151
0.00261151
0.00261395
0.00257192
0.00257187
0.00257187
0.0025743
0.00253251
0.00253245
0.00253245
0.00253487
0.00249332
0.00249326
0.00249326
0.00249566
0.00245433
0.00245428
0.00245428
0.00245666
0.00241554
0.0024155
0.0024155
0.00241786
0.00237695
0.00237691
0.00237691
0.00237926
0.00233855
0.00233851
0.00233851
0.00234083
0.00230033
0.00230029
0.00230029
0.0023026
0.00226228
0.00226225
0.00226225
0.00226453
0.0022244
0.00222437
0.00222437
0.00222663
0.00218668
0.00218666
0.00218666
0.0021889
0.00214912
0.00214911
0.00214911
0.00215133
0.0021117
0.00211169
0.00211169
0.00211389
0.00207443
0.00207442
0.00207442
0.00207661
0.00203734
0.00203732
0.00203732
0.00203949
0.00200038
0.00200035
0.00200036
0.00200251
0.0019635
0.00196348
0.00196348
0.00196563
0.00192681
0.00192679
0.00192679
0.00192892
0.00189025
0.00189018
0.00189015
0.00189229
0.00185348
0.00185339
0.00185344
0.00185552
0.00181657
0.00181658
0.00181674
0.00181883
0.00178062
0.00178091
0.00178065
0.00178297
0.00174634
0.00174568
0.00174577
0.00174768
0.00171045
0.00171026
0.00171026
0.00171208
0.00167349
0.00167369
0.00167339
0.00167557
0.00163575
0.00163539
0.00163628
0.00163845
0.00159946
0.00159904
0.00159879
0.00160091
0.00156375
0.00156429
0.00156354
0.00156547
0.00152725
0.00152783
0.00152919
0.00153153
0.00149374
0.00149401
0.00149157
0.00149468
0.00146043
0.00145851
0.00145831
0.00145939
0.00142227
0.00142103
0.00142559
0.00142552
0.00138663
0.00138817
0.00138671
0.00139019
0.00135259
0.00135359
0.00135013
0.00135389
0.00131649
0.00131484
0.00131607
0.00131781
0.00128011
0.00128018
0.00128158
0.00128199
0.00124522
0.00124567
0.00124523
0.00124691
0.00120971
0.00120904
0.00120898
0.001212
0.00117415
0.00117421
0.00117412
0.00117652
0.00113895
0.00113893
0.00113877
0.00114037
0.00110329
0.00110308
0.00110307
0.00110494
0.00106755
0.00106739
0.00106762
0.00106965
0.00103229
0.00103232
0.00103249
0.00103448
0.000997227
0.000997263
0.000996973
0.000999088
0.00096206
0.000961806
0.000961687
0.000963727
0.000926553
0.000926357
0.000926532
0.000928429
0.000891087
0.000891024
0.000891222
0.00089314
0.000855804
0.000855763
0.000855602
0.000857703
0.000820366
0.000820301
0.000820169
0.000822217
0.000784858
0.000784763
0.000784842
0.000786798
0.000749399
0.000749309
0.000749396
0.000751376
0.000713984
0.0007139
0.000713859
0.000715921
0.000678407
0.000678354
0.000678291
0.000680329
0.000642767
0.000642723
0.000642745
0.000644729
0.000607223
0.000607145
0.000607214
0.000609207
0.000571703
0.000571621
0.000571601
0.000573654
0.00053604
0.000536
0.000535934
0.000537964
0.000500361
0.000500291
0.000500334
0.000502341
0.00046464
0.00046459
0.00046461
0.000466646
0.000428826
0.000428808
0.000428763
0.000430813
0.000393015
0.000392953
0.000393
0.000395019
0.000357318
0.000357249
0.000357249
0.000359286
0.000321536
0.000321528
0.000321441
0.000323497
0.00028559
0.000285491
0.000285573
0.000287586
0.000249428
0.000249442
0.000249463
0.000251518
0.000213378
0.00021349
0.00021342
0.000215537
0.000178149
0.00017781
0.000177928
0.000179839
0.000141452
0.00014148
0.000141139
0.000143232
0.000104364
0.000104825
0.000105259
0.000107435
7.11092e-05
7.04672e-05
7.0805e-05
7.23725e-05
3.4328e-05
3.38936e-05
3.30234e-05
3.53283e-05
3.35349e-06
4.46652e-06
4.31227e-06
2.49565e-06
0.00361621
0.00361643
0.00361643
0.00361621
0.00361644
0.00361644
0.0036172
0.0036172
0.0036172
0.0036172
0.00361644
0.00361644
0.00361621
0.00361644
0.00361644
0.00361621
0.00360618
0.00355743
0.00360313
0.00360313
0.00355971
0.00355971
0.00360619
0.00355743
0.00360313
0.00360313
0.0035597
0.00355971
0.00360313
0.0035597
0.00355971
0.00360619
0.00355743
0.00360314
0.0035597
0.0035597
0.00355743
0.00355086
0.00350635
0.00354787
0.00354787
0.00350979
0.00350979
0.00355086
0.00350635
0.00354787
0.00354787
0.00350979
0.00350979
0.00354787
0.00350979
0.00350979
0.00355086
0.00350635
0.00354786
0.00350979
0.00350979
0.00350635
0.00349942
0.00345398
0.00349667
0.00349667
0.00345734
0.00345734
0.00349942
0.00345398
0.00349667
0.00349667
0.00345734
0.00345734
0.00349667
0.00345734
0.00345734
0.00349942
0.00345398
0.00349667
0.00345734
0.00345734
0.00345398
0.0034471
0.00340243
0.00344432
0.00344432
0.00340569
0.00340569
0.0034471
0.00340243
0.00344432
0.00344432
0.00340569
0.00340569
0.00344432
0.00340569
0.00340569
0.0034471
0.00340243
0.00344432
0.00340569
0.00340569
0.00340243
0.00339572
0.00335222
0.00339297
0.00339297
0.00335535
0.00335535
0.00339572
0.00335222
0.00339297
0.00339297
0.00335535
0.00335535
0.00339297
0.00335535
0.00335535
0.00339572
0.00335222
0.00339297
0.00335535
0.00335535
0.00335222
0.00334572
0.00330346
0.003343
0.003343
0.00330648
0.00330648
0.00334572
0.00330346
0.003343
0.003343
0.00330648
0.00330648
0.003343
0.00330648
0.00330648
0.00334572
0.00330346
0.003343
0.00330648
0.00330648
0.00330347
0.00329716
0.00325604
0.00329448
0.00329448
0.00325896
0.00325896
0.00329716
0.00325604
0.00329448
0.00329448
0.00325896
0.00325896
0.00329449
0.00325896
0.00325896
0.00329716
0.00325604
0.00329448
0.00325896
0.00325896
0.00325604
0.00324991
0.00320975
0.00324726
0.00324726
0.00321258
0.00321258
0.00324992
0.00320975
0.00324726
0.00324726
0.00321258
0.00321258
0.00324727
0.00321258
0.00321258
0.00324991
0.00320975
0.00324727
0.00321258
0.00321258
0.00320976
0.00320376
0.00316438
0.00320114
0.00320114
0.00316716
0.00316715
0.00320377
0.00316439
0.00320114
0.00320114
0.00316716
0.00316715
0.00320114
0.00316715
0.00316715
0.00320376
0.00316438
0.00320114
0.00316715
0.00316715
0.00316439
0.00315851
0.00311977
0.00315592
0.00315592
0.00312249
0.00312249
0.00315852
0.00311977
0.00315592
0.00315592
0.00312249
0.00312249
0.00315592
0.00312249
0.00312249
0.00315851
0.00311977
0.00315592
0.00312249
0.00312249
0.00311977
0.00311399
0.00307576
0.00311142
0.00311143
0.00307845
0.00307845
0.00311399
0.00307576
0.00311142
0.00311142
0.00307845
0.00307845
0.00311143
0.00307845
0.00307845
0.00311399
0.00307576
0.00311143
0.00307845
0.00307845
0.00307577
0.00307006
0.00303229
0.00306752
0.00306753
0.00303494
0.00303495
0.00307007
0.00303228
0.00306752
0.00306752
0.00303494
0.00303495
0.00306753
0.00303494
0.00303494
0.00307007
0.00303229
0.00306753
0.00303495
0.00303494
0.00303229
0.00302665
0.00298929
0.00302414
0.00302414
0.00299191
0.00299192
0.00302665
0.00298929
0.00302414
0.00302414
0.00299191
0.00299191
0.00302414
0.00299192
0.00299192
0.00302666
0.00298929
0.00302414
0.00299191
0.00299192
0.00298929
0.00298373
0.00294675
0.00298123
0.00298123
0.00294932
0.00294932
0.00298373
0.00294675
0.00298123
0.00298123
0.00294933
0.00294932
0.00298122
0.00294932
0.00294932
0.00298373
0.00294675
0.00298122
0.00294932
0.00294932
0.00294675
0.00294124
0.00290461
0.00293874
0.00293874
0.00290714
0.00290714
0.00294124
0.00290461
0.00293874
0.00293874
0.00290714
0.00290714
0.00293874
0.00290714
0.00290714
0.00294124
0.00290461
0.00293874
0.00290714
0.00290714
0.00290461
0.00289915
0.00286285
0.00289666
0.00289666
0.00286535
0.00286535
0.00289915
0.00286286
0.00289666
0.00289666
0.00286535
0.00286535
0.00289666
0.00286535
0.00286535
0.00289915
0.00286285
0.00289666
0.00286535
0.00286535
0.00286285
0.00285744
0.00282147
0.00285496
0.00285496
0.00282393
0.00282393
0.00285744
0.00282146
0.00285496
0.00285496
0.00282393
0.00282393
0.00285496
0.00282393
0.00282393
0.00285744
0.00282146
0.00285496
0.00282393
0.00282393
0.00282146
0.0028161
0.00278041
0.00281363
0.00281363
0.00278284
0.00278284
0.00281609
0.00278041
0.00281363
0.00281363
0.00278284
0.00278284
0.00281363
0.00278284
0.00278284
0.0028161
0.00278041
0.00281363
0.00278284
0.00278284
0.00278041
0.00277508
0.00273967
0.00277262
0.00277262
0.00274207
0.00274207
0.00277508
0.00273967
0.00277262
0.00277262
0.00274207
0.00274207
0.00277262
0.00274207
0.00274207
0.00277508
0.00273967
0.00277262
0.00274207
0.00274207
0.00273967
0.00273438
0.00269923
0.00273193
0.00273193
0.0027016
0.0027016
0.00273438
0.00269923
0.00273193
0.00273193
0.0027016
0.0027016
0.00273193
0.0027016
0.0027016
0.00273438
0.00269923
0.00273193
0.0027016
0.0027016
0.00269923
0.00269398
0.00265906
0.00269152
0.00269152
0.0026614
0.0026614
0.00269398
0.00265906
0.00269152
0.00269152
0.0026614
0.0026614
0.00269152
0.0026614
0.0026614
0.00269398
0.00265906
0.00269152
0.0026614
0.0026614
0.00265906
0.00265384
0.00261915
0.00265139
0.00265139
0.00262146
0.00262146
0.00265384
0.00261915
0.00265139
0.00265139
0.00262146
0.00262146
0.00265139
0.00262146
0.00262146
0.00265384
0.00261915
0.00265139
0.00262146
0.00262146
0.00261915
0.00261395
0.00257947
0.00261151
0.00261151
0.00258176
0.00258176
0.00261395
0.00257947
0.00261151
0.00261151
0.00258176
0.00258176
0.00261151
0.00258176
0.00258176
0.00261395
0.00257947
0.00261151
0.00258176
0.00258176
0.00257947
0.0025743
0.00254002
0.00257187
0.00257187
0.00254229
0.00254229
0.0025743
0.00254002
0.00257187
0.00257187
0.00254229
0.00254229
0.00257187
0.00254229
0.00254229
0.0025743
0.00254002
0.00257187
0.00254229
0.00254229
0.00254002
0.00253487
0.00250078
0.00253245
0.00253245
0.00250304
0.00250304
0.00253487
0.00250078
0.00253245
0.00253245
0.00250304
0.00250304
0.00253245
0.00250304
0.00250304
0.00253487
0.00250078
0.00253245
0.00250304
0.00250304
0.00250078
0.00249566
0.00246176
0.00249326
0.00249326
0.002464
0.002464
0.00249566
0.00246176
0.00249326
0.00249326
0.002464
0.002464
0.00249326
0.002464
0.002464
0.00249566
0.00246176
0.00249326
0.002464
0.002464
0.00246176
0.00245666
0.00242294
0.00245428
0.00245428
0.00242517
0.00242517
0.00245666
0.00242294
0.00245428
0.00245428
0.00242517
0.00242517
0.00245428
0.00242517
0.00242517
0.00245666
0.00242294
0.00245428
0.00242517
0.00242517
0.00242294
0.00241786
0.00238431
0.0024155
0.0024155
0.00238654
0.00238654
0.00241786
0.00238431
0.0024155
0.0024155
0.00238654
0.00238654
0.0024155
0.00238654
0.00238654
0.00241786
0.00238431
0.0024155
0.00238654
0.00238654
0.00238431
0.00237926
0.00234587
0.00237691
0.00237691
0.00234809
0.00234809
0.00237925
0.00234587
0.00237691
0.00237691
0.00234809
0.00234809
0.00237691
0.00234809
0.00234809
0.00237926
0.00234587
0.00237691
0.00234809
0.00234809
0.00234587
0.00234083
0.00230762
0.00233851
0.00233851
0.00230983
0.00230983
0.00234083
0.00230762
0.00233851
0.00233851
0.00230983
0.00230983
0.00233851
0.00230983
0.00230983
0.00234083
0.00230762
0.00233851
0.00230983
0.00230983
0.00230762
0.00230259
0.00226954
0.00230029
0.00230029
0.00227174
0.00227174
0.0023026
0.00226953
0.00230029
0.00230029
0.00227174
0.00227174
0.00230029
0.00227174
0.00227174
0.00230259
0.00226953
0.00230029
0.00227174
0.00227174
0.00226953
0.00226453
0.00223162
0.00226225
0.00226225
0.00223383
0.00223383
0.00226453
0.00223162
0.00226225
0.00226225
0.00223382
0.00223383
0.00226225
0.00223383
0.00223383
0.00226453
0.00223162
0.00226225
0.00223383
0.00223383
0.00223162
0.00222663
0.00219388
0.00222437
0.00222437
0.00219608
0.00219608
0.00222663
0.00219388
0.00222437
0.00222437
0.00219608
0.00219607
0.00222437
0.00219607
0.00219607
0.00222663
0.00219388
0.00222437
0.00219607
0.00219607
0.00219387
0.0021889
0.00215629
0.00218666
0.00218666
0.00215848
0.00215848
0.0021889
0.00215629
0.00218666
0.00218666
0.00215848
0.00215848
0.00218666
0.00215848
0.00215848
0.0021889
0.00215629
0.00218666
0.00215848
0.00215848
0.00215629
0.00215133
0.00211884
0.00214911
0.00214911
0.00212103
0.00212103
0.00215133
0.00211884
0.00214911
0.00214911
0.00212103
0.00212103
0.00214911
0.00212103
0.00212103
0.00215133
0.00211884
0.00214911
0.00212103
0.00212103
0.00211884
0.00211389
0.00208154
0.00211169
0.00211169
0.00208372
0.00208373
0.00211389
0.00208154
0.00211169
0.00211169
0.00208372
0.00208373
0.00211169
0.00208373
0.00208372
0.00211389
0.00208154
0.00211169
0.00208373
0.00208372
0.00208154
0.00207661
0.00204441
0.00207442
0.00207443
0.00204658
0.00204659
0.00207661
0.00204441
0.00207442
0.00207443
0.00204658
0.00204658
0.00207442
0.00204659
0.00204659
0.00207661
0.00204441
0.00207442
0.00204658
0.00204659
0.00204441
0.00203949
0.00200741
0.00203733
0.00203732
0.00200959
0.00200958
0.00203949
0.00200741
0.00203732
0.00203732
0.00200959
0.00200959
0.00203732
0.00200958
0.00200958
0.00203949
0.00200741
0.00203732
0.00200959
0.00200958
0.00200741
0.00200251
0.00197051
0.00200036
0.00200035
0.00197267
0.00197268
0.0020025
0.00197052
0.00200036
0.00200036
0.00197267
0.00197268
0.00200035
0.00197269
0.00197269
0.00200251
0.00197052
0.00200035
0.00197269
0.00197269
0.00197052
0.00196562
0.00193382
0.00196347
0.00196348
0.00193596
0.00193596
0.00196563
0.00193381
0.00196347
0.00196348
0.00193596
0.00193595
0.00196349
0.00193595
0.00193595
0.00196562
0.0019338
0.00196348
0.00193595
0.00193595
0.0019338
0.00192894
0.00189717
0.0019268
0.0019268
0.00189935
0.00189934
0.00192893
0.00189717
0.0019268
0.00192679
0.00189935
0.0018993
0.00192679
0.00189934
0.00189932
0.00192892
0.00189715
0.00192679
0.0018993
0.00189931
0.00189716
0.00189228
0.00186041
0.00189018
0.00189018
0.0018626
0.00186261
0.00189229
0.00186043
0.00189018
0.00189015
0.00186259
0.00186264
0.00189017
0.00186261
0.00186263
0.00189228
0.00186047
0.00189016
0.00186265
0.00186264
0.00186045
0.0018555
0.00182364
0.00185338
0.00185338
0.00182573
0.00182574
0.00185551
0.00182364
0.00185338
0.00185343
0.00182575
0.00182587
0.0018534
0.00182574
0.00182577
0.00185555
0.00182373
0.00185341
0.00182587
0.00182578
0.00182369
0.00181874
0.00178772
0.00181654
0.00181658
0.00178965
0.00178967
0.00181875
0.00178772
0.00181657
0.00181673
0.00178964
0.00178956
0.00181665
0.00178968
0.00178969
0.00181885
0.00178756
0.00181666
0.00178957
0.00178967
0.00178771
0.00178305
0.00175264
0.00178095
0.00178092
0.00175491
0.00175462
0.00178302
0.00175245
0.00178092
0.00178066
0.00175488
0.00175448
0.00178086
0.00175457
0.00175452
0.00178281
0.00175246
0.00178082
0.00175444
0.00175453
0.00175237
0.00174784
0.00171667
0.00174598
0.00174573
0.00171887
0.00171903
0.00174772
0.00171687
0.00174598
0.00174579
0.00171891
0.00171927
0.0017457
0.00171909
0.00171909
0.00174781
0.00171704
0.00174576
0.0017193
0.0017191
0.00171689
0.00171186
0.00168033
0.00170986
0.00171019
0.00168251
0.00168301
0.00171213
0.00168066
0.00170986
0.00171023
0.00168242
0.00168267
0.00171012
0.00168301
0.0016827
0.00171219
0.00168036
0.00171007
0.00168267
0.00168262
0.00168049
0.00167537
0.00164335
0.00167323
0.00167368
0.00164534
0.001645
0.00167566
0.00164281
0.00167315
0.00167337
0.00164543
0.00164551
0.0016735
0.00164505
0.00164568
0.00167538
0.0016434
0.00167344
0.00164558
0.00164578
0.0016435
0.00163835
0.00160676
0.00163608
0.00163536
0.00160882
0.00160783
0.00163768
0.00160612
0.00163625
0.00163621
0.00160888
0.00160821
0.0016363
0.00160768
0.00160793
0.00163841
0.00160614
0.00163646
0.00160811
0.00160807
0.0016059
0.00160192
0.00157039
0.0015999
0.00159927
0.00157274
0.00157333
0.00160147
0.00157115
0.00159986
0.00159899
0.00157245
0.00157222
0.00159862
0.00157311
0.0015719
0.00160116
0.00157016
0.00159864
0.00157196
0.00157161
0.00157002
0.00156543
0.00153381
0.00156336
0.00156439
0.00153572
0.00153645
0.00156633
0.00153448
0.00156312
0.00156369
0.00153589
0.00153771
0.00156335
0.00153694
0.00153809
0.00156558
0.00153554
0.00156305
0.00153822
0.00153828
0.00153616
0.00152914
0.00150058
0.00152688
0.00152729
0.00150234
0.00150213
0.00152968
0.0015003
0.00152716
0.00152854
0.0015026
0.00150076
0.00152949
0.00150224
0.00150212
0.00153068
0.0014988
0.00152979
0.0015009
0.00150203
0.00149962
0.00149608
0.0014664
0.00149449
0.00149423
0.00146925
0.00146866
0.00149592
0.00146578
0.0014942
0.00149182
0.0014687
0.00146683
0.00149293
0.00146785
0.00146625
0.00149404
0.001465
0.00149266
0.00146615
0.0014658
0.00146403
0.00146127
0.00142872
0.00145961
0.00145918
0.00143036
0.00143004
0.0014607
0.00142795
0.00145939
0.00145885
0.0014313
0.00143427
0.00145741
0.00143019
0.0014314
0.00146065
0.00143198
0.00145717
0.00143422
0.0014323
0.00143013
0.00142381
0.00139343
0.00142102
0.00142063
0.00139497
0.00139552
0.00142301
0.0013943
0.0014221
0.0014253
0.00139524
0.00139584
0.00142293
0.00139609
0.00139713
0.00142723
0.00139366
0.001424
0.00139652
0.0013974
0.00139502
0.00138901
0.00135988
0.00138695
0.00138783
0.00136247
0.00136311
0.00138998
0.00136079
0.00138674
0.00138632
0.00136147
0.00135926
0.0013882
0.0013629
0.00136144
0.00138858
0.00135724
0.00138812
0.00135901
0.00136033
0.00135871
0.00135509
0.00132294
0.00135373
0.00135388
0.00132549
0.00132448
0.00135572
0.0013222
0.00135272
0.00135049
0.0013254
0.00132453
0.00135247
0.00132421
0.00132508
0.00135254
0.00132285
0.00135135
0.00132433
0.00132498
0.00132276
0.00131783
0.00128669
0.00131577
0.00131497
0.00128827
0.00128846
0.0013172
0.00128669
0.00131597
0.00131615
0.0012888
0.00129028
0.00131579
0.0012885
0.00128847
0.00131826
0.00128822
0.00131598
0.00129037
0.00128897
0.00128674
0.00128209
0.00125228
0.00127967
0.00128022
0.00125415
0.00125482
0.00128213
0.00125259
0.0012801
0.0012815
0.00125419
0.0012547
0.00127956
0.00125466
0.00125333
0.0012834
0.00125219
0.00127999
0.00125453
0.00125336
0.00125155
0.00124752
0.00121628
0.00124545
0.00124583
0.0012186
0.00121791
0.00124768
0.00121591
0.00124538
0.00124541
0.00121846
0.0012177
0.00124477
0.00121794
0.00121896
0.00124721
0.00121578
0.0012447
0.00121778
0.00121885
0.0012168
0.00121136
0.00118069
0.00120954
0.00120888
0.00118278
0.00118265
0.00121114
0.00118087
0.00120946
0.00120881
0.00118277
0.00118263
0.00121023
0.00118289
0.0011837
0.00121105
0.00118081
0.00121015
0.00118286
0.00118369
0.00118143
0.00117597
0.0011457
0.001174
0.00117403
0.00114772
0.00114793
0.00117617
0.00114577
0.00117398
0.00117395
0.00114768
0.00114777
0.00117463
0.00114783
0.00114719
0.00117606
0.00114562
0.00117461
0.00114768
0.00114713
0.00114515
0.00114093
0.00111001
0.00113888
0.00113908
0.0011121
0.00111223
0.00114094
0.00110998
0.00113884
0.00113893
0.00111208
0.00111212
0.00113825
0.00111209
0.00111173
0.00114078
0.00110995
0.00113821
0.00111199
0.00111172
0.00110974
0.00110515
0.00107428
0.00110312
0.00110317
0.0010763
0.00107619
0.0011051
0.00107421
0.00110312
0.00110315
0.00107636
0.00107639
0.00110291
0.00107624
0.00107645
0.00110512
0.00107441
0.00110291
0.00107643
0.0010765
0.00107445
0.00106947
0.00103903
0.00106742
0.00106731
0.001041
0.00104098
0.00106942
0.00103906
0.00106749
0.00106757
0.00104106
0.00104123
0.00106762
0.00104105
0.00104121
0.00106964
0.00103925
0.00106768
0.00104131
0.00104127
0.00103924
0.00103427
0.00100388
0.00103223
0.00103226
0.00100595
0.00100609
0.00103432
0.00100403
0.00103227
0.00103242
0.00100589
0.00100585
0.00103243
0.00100609
0.00100599
0.00103446
0.00100376
0.00103247
0.00100585
0.00100593
0.00100388
0.000999118
0.000968656
0.000997178
0.000997285
0.000970769
0.00097072
0.000999235
0.000968598
0.000997106
0.000996993
0.00097071
0.000970523
0.000997156
0.000970676
0.000970634
0.00099896
0.000968469
0.000997081
0.000970481
0.000970577
0.00096852
0.00096386
0.000933263
0.000961921
0.000961848
0.000935291
0.000935229
0.000963796
0.000933177
0.000961886
0.000961727
0.000935336
0.00093535
0.000961778
0.00093521
0.000935224
0.000963702
0.000933323
0.000961746
0.000935329
0.000935264
0.000933214
0.000928461
0.000897881
0.000926418
0.000926366
0.000899862
0.000899829
0.000928373
0.00089783
0.000926477
0.000926545
0.000899922
0.000900062
0.000926383
0.000899842
0.000899903
0.000928543
0.000898039
0.000926435
0.000900075
0.000899963
0.000897929
0.000893085
0.000862504
0.000891032
0.000891008
0.000864565
0.000864577
0.000893044
0.000862561
0.000891078
0.000891203
0.000864539
0.00086449
0.000891087
0.000864587
0.0008646
0.000893228
0.000862421
0.000891135
0.0008645
0.000864569
0.000862518
0.000857698
0.000827054
0.000855729
0.000855759
0.000829141
0.000829196
0.000857769
0.000827118
0.00085568
0.000855599
0.000829086
0.000829012
0.00085574
0.000829188
0.000829112
0.000857602
0.000826973
0.000855682
0.000829005
0.00082906
0.000827026
0.000822242
0.00079161
0.000820262
0.00082031
0.000793637
0.000793641
0.000822295
0.000791591
0.000820225
0.000820177
0.000793654
0.000793684
0.000820236
0.000793638
0.00079363
0.000822176
0.000791657
0.000820201
0.000793681
0.000793645
0.000791605
0.0007868
0.000756179
0.000784771
0.000784763
0.000758194
0.000758164
0.000786773
0.000756137
0.000784798
0.000784843
0.000758222
0.000758268
0.000784767
0.000758167
0.000758198
0.000786855
0.000756222
0.000784792
0.000758272
0.000758226
0.000756185
0.000751368
0.000720723
0.00074934
0.000749306
0.000722774
0.00072275
0.000751328
0.000720722
0.000749363
0.000749389
0.000722771
0.000722743
0.000749346
0.000722754
0.000722787
0.0007514
0.000720692
0.000749368
0.000722747
0.000722785
0.000720739
0.000715898
0.000685144
0.000713903
0.000713895
0.000687215
0.000687252
0.000715911
0.000685194
0.00071389
0.000713853
0.000687191
0.000687175
0.000713925
0.00068726
0.000687248
0.000715867
0.000685131
0.000713912
0.000687181
0.000687223
0.000685169
0.000680309
0.000649582
0.000678309
0.000678348
0.000651614
0.000651634
0.000680355
0.000649584
0.000678291
0.000678286
0.000651616
0.000651635
0.000678332
0.000651627
0.000651594
0.000680302
0.000649595
0.000678312
0.000651629
0.000651598
0.000649559
0.000644754
0.000614058
0.000642724
0.000642733
0.000616074
0.000616043
0.000644748
0.000614008
0.000642731
0.000642754
0.000616091
0.000616106
0.000642694
0.000616032
0.00061604
0.000644768
0.000614074
0.000642702
0.000616095
0.000616056
0.000614026
0.00060923
0.00057847
0.000607193
0.000607152
0.000580525
0.000580496
0.000609179
0.000578466
0.000607211
0.00060722
0.000580528
0.000580511
0.00060717
0.000580503
0.000580547
0.000609246
0.000578457
0.000607187
0.000580518
0.00058055
0.000578497
0.000573627
0.000542811
0.00057162
0.000571613
0.000544877
0.000544921
0.000573637
0.000542861
0.000571613
0.000571593
0.000544854
0.000544842
0.000571648
0.000544922
0.000544878
0.000573613
0.000542793
0.000571639
0.000544843
0.000544855
0.000542807
0.00053797
0.000507191
0.000535963
0.000536002
0.000509226
0.000509219
0.00053801
0.000507171
0.000535945
0.000535936
0.000509233
0.000509237
0.000535955
0.000509216
0.000509214
0.000537952
0.0005072
0.000535937
0.000509234
0.000509219
0.000507179
0.000502345
0.000471474
0.000500311
0.000500292
0.000473523
0.000473511
0.000502322
0.000471471
0.000500323
0.000500335
0.000473537
0.00047356
0.000500306
0.000473517
0.000473551
0.000502363
0.000471509
0.000500318
0.000473565
0.000473563
0.00047151
0.000466609
0.000435673
0.000464577
0.000464582
0.00043773
0.000437762
0.000466618
0.000435705
0.000464583
0.000464603
0.000437718
0.000437717
0.00046461
0.000437766
0.000437741
0.000466638
0.000435661
0.000464615
0.00043772
0.000437729
0.000435676
0.000430807
0.000399901
0.00042878
0.000428808
0.000401938
0.000401916
0.000430832
0.00039987
0.000428766
0.000428761
0.000401943
0.000401938
0.000428786
0.000401911
0.000401922
0.000430795
0.000399898
0.000428774
0.000401932
0.000401927
0.000399882
0.000395041
0.000364183
0.000392994
0.000392961
0.000366216
0.000366165
0.000395004
0.000364135
0.000393007
0.000393008
0.000366222
0.000366204
0.000392971
0.000366152
0.000366165
0.000395043
0.000364162
0.000392984
0.000366192
0.000366172
0.000364135
0.000359329
0.000328342
0.000357294
0.00035726
0.000330433
0.000330488
0.000359292
0.00032843
0.00035729
0.000357261
0.000330409
0.000330387
0.000357247
0.000330497
0.000330448
0.0003593
0.00032833
0.000357243
0.000330395
0.000330422
0.000328373
0.00032346
0.000292413
0.000321446
0.000321514
0.00029448
0.000294499
0.000323547
0.000292426
0.000321428
0.000321428
0.000294495
0.000294539
0.00032148
0.000294506
0.000294525
0.000323463
0.000292483
0.00032146
0.000294547
0.000294539
0.000292465
0.000287531
0.00025642
0.000285495
0.000285485
0.000258457
0.000258441
0.000287526
0.000256372
0.000285519
0.000285567
0.000258473
0.000258521
0.000285543
0.000258443
0.000258498
0.000287604
0.000256446
0.000285565
0.000258526
0.000258516
0.000256442
0.000251506
0.000220381
0.000249422
0.000249436
0.000222409
0.000222446
0.000251481
0.000220448
0.000249422
0.000249458
0.00022237
0.000222308
0.00024946
0.000222462
0.000222426
0.000251515
0.000220306
0.000249458
0.000222328
0.000222395
0.000220377
0.000215518
0.0001849
0.000213457
0.000213471
0.000186933
0.000186775
0.000215563
0.000184728
0.000213441
0.000213393
0.000186921
0.00018691
0.000213505
0.000186718
0.000186772
0.000215471
0.000184872
0.000213497
0.000186857
0.00018682
0.000184755
0.000180087
0.000148419
0.000178084
0.000177897
0.000150663
0.000150766
0.000179893
0.000148509
0.00017811
0.000178015
0.00015057
0.000150444
0.000177779
0.00015069
0.00015037
0.000180015
0.000148221
0.000177817
0.000150376
0.000150278
0.000148199
0.00014329
0.000111332
0.000141241
0.000141473
0.000113171
0.000113524
0.000143446
0.000111655
0.000141134
0.000141122
0.000113217
0.000113657
0.000141239
0.000113794
0.00011418
0.000143163
0.000111908
0.000141132
0.000113944
0.000114222
0.000112286
0.00010666
7.79047e-05
0.000104488
0.000104598
7.97078e-05
7.92036e-05
0.000106811
7.72965e-05
0.000104606
0.000105025
7.98595e-05
7.97568e-05
0.000105317
7.90151e-05
7.91001e-05
0.000107197
7.77652e-05
0.000105437
7.95648e-05
7.92591e-05
7.72031e-05
7.31522e-05
4.06064e-05
7.12312e-05
7.0717e-05
4.33409e-05
4.35258e-05
7.25732e-05
4.1004e-05
7.1329e-05
7.10937e-05
4.31404e-05
4.28093e-05
7.03303e-05
4.3451e-05
4.31451e-05
7.29328e-05
4.02692e-05
7.04093e-05
4.27652e-05
4.29307e-05
4.06303e-05
3.49894e-05
5.19337e-06
3.31918e-05
3.3757e-05
8.04881e-06
8.83285e-06
3.55731e-05
5.77859e-06
3.29471e-05
3.28694e-05
7.89998e-06
8.26256e-06
3.37483e-05
9.10031e-06
8.87519e-06
3.48019e-05
5.51964e-06
3.34889e-05
8.52524e-06
8.70688e-06
5.67749e-06
2.4342e-06
4.12016e-06
4.46244e-06
2.55337e-06
4.15752e-06
4.2845e-06
3.63474e-06
3.44518e-06
3.45446e-06
4.39994e-06
2.57758e-06
4.45846e-06
0.00362459
0.00363435
0.00362915
0.00362915
0.00365153
0.00363831
0.00366692
0.00363236
0.00365153
0.00363832
0.00363236
0.00366693
0.00364288
0.00367066
0.00367066
0.00357994
0.00359907
0.00360829
0.00357202
0.00357276
0.00357551
0.00357993
0.00359907
0.00360827
0.00357201
0.0036028
0.0036028
0.00360281
0.0035594
0.0035594
0.0035594
0.0035594
0.00357745
0.00360327
0.0036032
0.00358627
0.00360629
0.00357635
0.00358715
0.00357288
0.00357552
0.00357745
0.0036032
0.00360327
0.00358627
0.0036063
0.00358715
0.00357635
0.00360915
0.00360914
0.00358067
0.00357599
0.00357599
0.00353332
0.00355259
0.00355395
0.00353185
0.00355151
0.00353141
0.00353331
0.00355259
0.00355395
0.00353185
0.00354745
0.00354745
0.00354744
0.00350986
0.00350986
0.00350986
0.00350986
0.0035319
0.00355267
0.00354745
0.00353558
0.00355145
0.00353244
0.00353531
0.00355149
0.0035314
0.0035319
0.00354744
0.00355266
0.00353557
0.00355145
0.0035353
0.00353243
0.00355368
0.00355368
0.00353212
0.00353277
0.00353277
0.00348105
0.00349985
0.00350093
0.00348003
0.00349949
0.00347975
0.00348105
0.00349985
0.00350093
0.00348003
0.0034967
0.00349669
0.00349669
0.00345732
0.00345732
0.00345732
0.00345731
0.00348015
0.00350025
0.00349657
0.00348353
0.00349969
0.00348051
0.00348343
0.00349949
0.00347974
0.00348015
0.00349657
0.00350025
0.00348353
0.00349969
0.00348343
0.00348051
0.00350049
0.00350049
0.00348014
0.00348058
0.00348058
0.00342852
0.00344718
0.00344804
0.00342775
0.00344697
0.00342758
0.00342852
0.00344718
0.00344804
0.00342775
0.00344431
0.00344431
0.00344431
0.00340568
0.00340568
0.00340568
0.00340568
0.00342802
0.00344758
0.00344427
0.00343137
0.0034473
0.0034282
0.00343134
0.00344697
0.00342758
0.00342801
0.00344427
0.00344759
0.00343137
0.0034473
0.00343133
0.0034282
0.00344762
0.00344762
0.00342806
0.00342814
0.00342814
0.00337733
0.00339568
0.00339632
0.00337677
0.00339554
0.00337664
0.00337733
0.00339568
0.00339632
0.00337677
0.00339296
0.00339296
0.00339296
0.00335534
0.00335534
0.00335534
0.00335534
0.00337706
0.00339603
0.00339294
0.00338034
0.00339586
0.00337717
0.00338031
0.00339554
0.00337664
0.00337706
0.00339294
0.00339603
0.00338034
0.00339586
0.00338031
0.00337717
0.00339602
0.00339602
0.00337714
0.00337708
0.00337708
0.00332769
0.00334564
0.00334609
0.0033273
0.00334552
0.00332718
0.00332769
0.00334563
0.00334609
0.00332729
0.00334299
0.00334299
0.00334299
0.00330647
0.00330647
0.00330647
0.00330647
0.00332757
0.00334594
0.00334297
0.00333074
0.00334582