/*--------------------------------*- C++ -*----------------------------------*\
| =========                 |                                                 |
| \\      /  F ield         | OpenFOAM: The Open Source CFD Toolbox           |
|  \\    /   O peration     | Version:  v2012                                 |
|   \\  /    A nd           | Website:  www.openfoam.com                      |
|    \\/     M anipulation  |                                                 |
\*---------------------------------------------------------------------------*/
FoamFile
{
    version     2.0;
    format      ascii;
    class       volScalarField;
    location    "737.5";
    object      epsilon;
}
// * * * * * * * * * * * * * * * * * * * * * * * * * * * * * * * * * * * * * //

dimensions      [0 2 -3 0 0 0 0];


internalField   nonuniform List<scalar> 
171728
(
2.1066e-09
3.4176e-09
6.17362e-09
4.82193e-09
2.06281e-09
3.16479e-09
3.76765e-09
4.36548e-09
1.90425e-09
2.91614e-09
3.09355e-09
3.95955e-09
1.79476e-09
2.70337e-09
2.83222e-09
3.61066e-09
1.72219e-09
2.52206e-09
2.6737e-09
3.31064e-09
1.65853e-09
2.37227e-09
2.55409e-09
3.05575e-09
1.60079e-09
2.25718e-09
2.465e-09
2.83776e-09
1.53091e-09
2.17924e-09
2.39453e-09
2.65531e-09
1.46318e-09
2.13284e-09
2.33882e-09
2.50789e-09
1.36212e-09
2.12194e-09
2.30201e-09
2.39481e-09
1.22679e-09
2.14292e-09
2.28999e-09
2.31499e-09
1.10358e-09
2.18964e-09
2.3134e-09
2.27313e-09
1.00399e-09
2.26536e-09
2.38414e-09
2.27185e-09
9.27402e-10
2.38545e-09
2.51677e-09
2.32262e-09
8.76776e-10
2.58179e-09
2.73187e-09
2.44686e-09
8.46394e-10
2.87405e-09
3.05872e-09
2.68606e-09
8.26381e-10
3.30631e-09
3.56001e-09
3.12652e-09
8.11189e-10
4.00914e-09
4.3295e-09
3.85507e-09
8.00402e-10
5.09933e-09
5.49064e-09
5.08911e-09
7.95621e-10
6.68918e-09
7.23389e-09
7.32358e-09
7.98358e-10
9.01789e-09
9.77481e-09
1.11671e-08
8.10433e-10
1.24433e-08
1.34605e-08
1.77799e-08
8.37112e-10
1.73585e-08
1.84066e-08
2.89086e-08
8.87361e-10
2.40314e-08
2.53294e-08
4.65379e-08
9.65803e-10
3.2737e-08
3.43102e-08
7.30571e-08
1.08759e-09
4.42888e-08
4.53377e-08
1.10198e-07
1.2783e-09
5.82119e-08
6.17795e-08
1.58509e-07
1.54578e-09
7.52792e-08
7.63469e-08
2.22555e-07
1.93277e-09
9.49718e-08
9.61654e-08
2.9412e-07
2.4847e-09
1.18142e-07
1.19941e-07
3.62918e-07
3.23768e-09
1.4356e-07
1.44136e-07
4.50955e-07
4.26415e-09
1.73294e-07
1.73139e-07
5.20366e-07
5.65399e-09
2.05367e-07
2.06423e-07
5.8553e-07
7.39933e-09
2.40686e-07
2.40887e-07
6.50684e-07
9.83882e-09
2.78442e-07
2.80466e-07
7.10474e-07
1.26373e-08
3.19702e-07
3.2149e-07
7.57195e-07
1.61215e-08
3.62871e-07
3.61781e-07
8.00261e-07
2.18468e-08
4.08263e-07
4.10523e-07
8.47953e-07
2.66609e-08
4.56284e-07
4.56862e-07
8.83322e-07
3.39119e-08
5.0158e-07
5.03056e-07
9.1402e-07
4.10443e-08
5.51867e-07
5.55528e-07
9.46427e-07
5.15581e-08
6.0231e-07
5.96718e-07
9.83275e-07
6.49595e-08
6.46e-07
6.5341e-07
1.00965e-06
7.74052e-08
6.98373e-07
7.00006e-07
1.03024e-06
9.05109e-08
7.37034e-07
7.3706e-07
1.06646e-06
1.07399e-07
7.84167e-07
7.89924e-07
1.10039e-06
1.31463e-07
8.35615e-07
8.24406e-07
1.11752e-06
1.49146e-07
8.64434e-07
8.69281e-07
1.14086e-06
1.71553e-07
9.0048e-07
9.04113e-07
1.17553e-06
2.00208e-07
9.40441e-07
9.3714e-07
1.19523e-06
2.27896e-07
9.72068e-07
9.76644e-07
1.216e-06
2.55152e-07
9.99507e-07
9.97754e-07
1.23918e-06
2.83772e-07
1.02699e-06
1.02423e-06
1.25792e-06
3.16042e-07
1.05243e-06
1.05992e-06
1.2849e-06
3.53918e-07
1.08465e-06
1.08037e-06
1.29937e-06
3.78617e-07
1.09723e-06
1.09551e-06
1.30751e-06
4.07714e-07
1.1142e-06
1.1165e-06
1.335e-06
4.46345e-07
1.14576e-06
1.14367e-06
1.36294e-06
4.73064e-07
1.15838e-06
1.15788e-06
1.36301e-06
5.00009e-07
1.16503e-06
1.16893e-06
1.37088e-06
5.26144e-07
1.18854e-06
1.19005e-06
1.39282e-06
5.54649e-07
1.2146e-06
1.20917e-06
1.40722e-06
5.81738e-07
1.22316e-06
1.21792e-06
1.4258e-06
6.01772e-07
1.22353e-06
1.22665e-06
1.43017e-06
6.14765e-07
1.23691e-06
1.24517e-06
1.43116e-06
6.40473e-07
1.25886e-06
1.26057e-06
1.4557e-06
6.66721e-07
1.27387e-06
1.26533e-06
1.47541e-06
6.79389e-07
1.27795e-06
1.26997e-06
1.46363e-06
6.89447e-07
1.27106e-06
1.27216e-06
1.45303e-06
6.98569e-07
1.28233e-06
1.28843e-06
1.4907e-06
7.24037e-07
1.30981e-06
1.31096e-06
1.52516e-06
7.47194e-07
1.3011e-06
1.30349e-06
1.49324e-06
7.45462e-07
1.28842e-06
1.28553e-06
1.45923e-06
7.4587e-07
1.31502e-06
1.30366e-06
1.50576e-06
7.71582e-07
1.3325e-06
1.33649e-06
1.55569e-06
7.87199e-07
1.30548e-06
1.32847e-06
1.53441e-06
7.80163e-07
1.28925e-06
1.30116e-06
1.49245e-06
7.79741e-07
1.32013e-06
1.30595e-06
1.50411e-06
8.01561e-07
1.34516e-06
1.32958e-06
1.53542e-06
8.09647e-07
1.32584e-06
1.32677e-06
1.53186e-06
8.00946e-07
1.3046e-06
1.31426e-06
1.51959e-06
8.03028e-07
1.31151e-06
1.31755e-06
1.52911e-06
8.12e-07
1.3166e-06
1.31651e-06
1.5262e-06
8.09637e-07
1.30904e-06
1.30674e-06
1.5085e-06
8.08568e-07
1.31417e-06
1.31772e-06
1.52604e-06
8.15696e-07
1.31843e-06
1.32412e-06
1.54293e-06
8.0854e-07
1.29837e-06
1.29946e-06
1.51651e-06
7.99258e-07
1.29229e-06
1.28873e-06
1.50094e-06
8.06682e-07
1.31243e-06
1.30796e-06
1.53155e-06
8.11323e-07
1.30463e-06
1.31058e-06
1.53886e-06
7.92153e-07
1.26295e-06
1.27295e-06
1.49239e-06
7.76492e-07
1.25273e-06
1.25312e-06
1.46603e-06
7.86741e-07
1.28967e-06
1.27658e-06
1.50346e-06
7.99678e-07
1.30218e-06
1.29483e-06
1.53331e-06
7.67493e-07
1.20071e-06
1.21114e-06
1.45904e-06
5.18672e-09
5.19708e-09
3.82092e-09
4.96312e-09
5.04543e-09
4.06332e-09
2.01447e-09
1.19632e-09
1.4931e-09
1.47515e-09
3.40461e-09
4.11999e-09
5.23867e-09
3.88326e-09
4.14306e-09
4.85118e-09
5.11503e-09
4.95588e-09
1.60306e-08
3.28258e-09
1.42666e-08
3.10901e-09
4.93962e-09
4.43805e-09
6.98113e-09
5.00376e-09
6.77748e-09
4.71379e-09
4.73605e-09
3.23286e-09
4.41369e-09
5.20257e-09
4.70327e-09
4.74148e-09
4.13784e-09
4.41004e-09
4.39959e-09
4.86825e-09
4.52425e-09
1.30119e-08
3.03873e-09
8.55351e-09
2.84266e-09
4.40952e-09
3.97256e-09
6.69352e-09
4.6097e-09
6.49052e-09
4.31537e-09
4.29702e-09
2.97494e-09
3.97223e-09
4.66579e-09
4.20171e-09
4.28507e-09
3.19612e-09
3.93771e-09
3.98876e-09
4.44654e-09
4.13147e-09
7.21123e-09
2.78241e-09
4.50425e-09
2.61492e-09
3.95061e-09
3.58863e-09
6.43522e-09
4.22201e-09
6.32181e-09
3.95983e-09
3.87279e-09
2.75359e-09
3.59665e-09
4.17614e-09
3.85573e-09
3.83538e-09
2.8822e-09
3.56412e-09
3.6353e-09
4.06662e-09
3.83888e-09
3.99368e-09
2.56267e-09
3.13898e-09
2.41639e-09
3.5716e-09
3.27009e-09
6.30343e-09
3.87896e-09
6.2881e-09
3.66041e-09
3.51158e-09
2.56414e-09
3.27601e-09
3.83423e-09
3.53149e-09
3.48242e-09
2.70902e-09
3.25754e-09
3.33103e-09
3.80892e-09
3.71495e-09
2.98282e-09
2.37152e-09
2.69202e-09
2.24905e-09
3.25705e-09
3.00134e-09
6.29069e-09
3.59584e-09
6.34247e-09
3.4268e-09
3.20386e-09
2.4068e-09
3.0067e-09
3.51142e-09
3.25249e-09
3.18912e-09
2.5807e-09
3.00135e-09
3.07247e-09
3.69862e-09
3.62553e-09
2.63069e-09
2.21219e-09
2.50196e-09
2.11245e-09
2.99138e-09
2.76537e-09
6.36968e-09
3.37821e-09
6.49742e-09
3.24667e-09
2.94739e-09
2.28254e-09
2.78785e-09
3.23673e-09
3.01411e-09
2.94423e-09
2.48481e-09
2.78888e-09
2.85049e-09
3.62071e-09
3.59169e-09
2.46925e-09
2.08288e-09
2.39031e-09
2.00606e-09
2.75842e-09
2.56374e-09
6.55155e-09
3.20752e-09
6.75e-09
3.10453e-09
2.74053e-09
2.195e-09
2.61603e-09
3.00224e-09
2.81844e-09
2.74299e-09
2.41031e-09
2.61872e-09
2.66416e-09
3.59635e-09
3.57501e-09
2.37058e-09
1.98406e-09
2.3255e-09
1.92981e-09
2.55975e-09
2.40421e-09
6.83239e-09
3.07507e-09
7.10829e-09
3.00653e-09
2.58102e-09
2.14244e-09
2.48824e-09
2.81023e-09
2.66179e-09
2.58296e-09
2.35197e-09
2.49294e-09
2.51265e-09
3.57911e-09
3.52288e-09
2.31472e-09
1.91609e-09
2.2898e-09
1.8842e-09
2.40401e-09
2.28788e-09
7.19433e-09
2.9904e-09
7.36743e-09
2.95995e-09
2.46157e-09
2.12132e-09
2.39672e-09
2.65737e-09
2.54336e-09
2.46915e-09
2.30969e-09
2.40832e-09
2.39538e-09
3.51596e-09
3.21965e-09
2.28293e-09
1.87885e-09
2.27132e-09
1.87364e-09
2.2906e-09
2.20941e-09
7.38778e-09
2.95543e-09
7.29511e-09
2.95202e-09
2.37948e-09
2.13464e-09
2.34587e-09
2.54317e-09
2.46233e-09
2.39247e-09
2.2895e-09
2.36055e-09
2.31172e-09
3.19491e-09
2.9795e-09
2.27205e-09
1.87593e-09
2.2856e-09
1.8981e-09
2.21542e-09
2.16724e-09
7.08516e-09
2.9535e-09
6.26161e-09
2.96448e-09
2.34025e-09
2.17831e-09
2.33844e-09
2.4656e-09
2.41409e-09
2.35521e-09
2.30341e-09
2.35493e-09
2.26367e-09
2.97164e-09
2.75451e-09
2.29486e-09
1.90982e-09
2.33562e-09
1.96483e-09
2.17949e-09
2.16023e-09
5.9617e-09
2.97231e-09
5.19215e-09
3.01133e-09
2.34251e-09
2.24661e-09
2.37599e-09
2.42352e-09
2.40602e-09
2.35931e-09
2.36173e-09
2.39057e-09
2.25306e-09
2.75065e-09
2.58802e-09
2.35505e-09
1.99005e-09
2.43362e-09
2.08593e-09
2.18109e-09
2.20055e-09
4.98706e-09
3.03009e-09
4.41969e-09
3.11982e-09
2.39382e-09
2.35564e-09
2.46749e-09
2.425e-09
2.4485e-09
2.40639e-09
2.47724e-09
2.47553e-09
2.29036e-09
2.60029e-09
2.56607e-09
2.47109e-09
2.12653e-09
2.61161e-09
2.27985e-09
2.23413e-09
2.30368e-09
4.23209e-09
3.16037e-09
3.75133e-09
3.31735e-09
2.50082e-09
2.53185e-09
2.6317e-09
2.48086e-09
2.55588e-09
2.50757e-09
2.66746e-09
2.63459e-09
2.39238e-09
2.60543e-09
2.67385e-09
2.67313e-09
2.34112e-09
2.90164e-09
2.57628e-09
2.35853e-09
2.50071e-09
3.62966e-09
3.38487e-09
3.47012e-09
3.62486e-09
2.68539e-09
2.78742e-09
2.88936e-09
2.60979e-09
2.76217e-09
2.68731e-09
2.96273e-09
2.90335e-09
2.59346e-09
2.74814e-09
2.98111e-09
2.99342e-09
2.6704e-09
3.33472e-09
3.01808e-09
2.58955e-09
2.84995e-09
3.47109e-09
3.71992e-09
3.53852e-09
4.05993e-09
2.9815e-09
3.20259e-09
3.30672e-09
2.85437e-09
3.12473e-09
2.99519e-09
3.41972e-09
3.32611e-09
2.97265e-09
3.12982e-09
3.61227e-09
3.47979e-09
3.16461e-09
3.99744e-09
3.70025e-09
2.9991e-09
3.46513e-09
3.61556e-09
4.20773e-09
4.02635e-09
4.73341e-09
3.42972e-09
3.79055e-09
3.93649e-09
3.27695e-09
3.77084e-09
3.46372e-09
4.10206e-09
3.97669e-09
3.60475e-09
3.86124e-09
4.71404e-09
4.20805e-09
3.91185e-09
5.00951e-09
4.70356e-09
3.7139e-09
4.55001e-09
4.21489e-09
4.96772e-09
4.96106e-09
5.78038e-09
4.15618e-09
4.79622e-09
4.95683e-09
4.03031e-09
4.92719e-09
4.18448e-09
5.15056e-09
4.94982e-09
4.67871e-09
5.13524e-09
6.67015e-09
5.34438e-09
5.02252e-09
6.52853e-09
6.21965e-09
4.96927e-09
6.53843e-09
5.27424e-09
6.10492e-09
6.44751e-09
7.41923e-09
5.27399e-09
6.23845e-09
6.45376e-09
5.35765e-09
6.95432e-09
5.26349e-09
6.71874e-09
6.43519e-09
6.62741e-09
7.37316e-09
1.0082e-08
7.01544e-09
6.70018e-09
8.77397e-09
8.45665e-09
7.24948e-09
1.00048e-08
6.9107e-09
7.94478e-09
8.63058e-09
1.00044e-08
6.93271e-09
8.35104e-09
8.69606e-09
7.67431e-09
1.05358e-08
6.90308e-09
9.02319e-09
8.62578e-09
1.00409e-08
1.12288e-08
1.59602e-08
9.46919e-09
9.14739e-09
1.1982e-08
1.1605e-08
1.11783e-08
1.58546e-08
9.32572e-09
1.08787e-08
1.17933e-08
1.37883e-08
9.39157e-09
1.1459e-08
1.19677e-08
1.17559e-08
1.68129e-08
9.29983e-09
1.23961e-08
1.18251e-08
1.59575e-08
1.78002e-08
2.59219e-08
1.29782e-08
1.25904e-08
1.65037e-08
1.61052e-08
1.77006e-08
2.5786e-08
1.27817e-08
1.48397e-08
1.63287e-08
1.92054e-08
1.29627e-08
1.59627e-08
1.66279e-08
1.86856e-08
2.71105e-08
1.27855e-08
1.69818e-08
1.62698e-08
2.5991e-08
2.88428e-08
4.19448e-08
1.791e-08
1.74966e-08
2.27505e-08
2.23594e-08
2.87137e-08
4.22736e-08
1.76668e-08
2.08141e-08
2.2427e-08
2.55611e-08
1.80594e-08
2.21975e-08
2.30578e-08
3.02398e-08
4.35177e-08
1.76501e-08
2.33567e-08
2.24692e-08
4.2088e-08
4.62566e-08
6.6143e-08
2.4617e-08
2.42078e-08
3.10995e-08
3.05305e-08
4.66866e-08
6.61021e-08
2.43495e-08
2.76938e-08
3.07768e-08
3.40128e-08
2.49613e-08
3.03154e-08
3.18129e-08
4.77949e-08
6.77682e-08
2.43526e-08
3.1904e-08
3.08744e-08
6.69284e-08
7.22596e-08
1.01227e-07
3.35593e-08
3.29527e-08
4.19399e-08
4.14024e-08
7.20925e-08
1.01487e-07
3.31727e-08
3.61875e-08
4.1607e-08
4.41179e-08
3.43636e-08
4.11715e-08
4.3211e-08
7.39286e-08
1.02254e-07
3.32591e-08
4.23361e-08
4.15687e-08
1.01533e-07
1.09688e-07
1.47388e-07
4.50643e-08
4.4535e-08
5.54071e-08
5.46749e-08
1.1027e-07
1.47841e-07
4.46762e-08
4.67095e-08
5.50829e-08
5.74992e-08
4.66824e-08
5.44237e-08
5.7568e-08
1.09184e-07
1.46398e-07
4.47409e-08
5.72913e-08
5.49382e-08
1.47914e-07
1.58009e-07
2.06304e-07
5.92244e-08
5.84686e-08
7.1775e-08
7.10444e-08
1.58206e-07
2.07011e-07
5.90001e-08
6.24181e-08
7.16596e-08
7.46153e-08
6.16784e-08
7.0854e-08
7.53897e-08
1.61314e-07
2.16026e-07
5.88194e-08
7.28426e-08
7.16043e-08
2.09302e-07
2.19287e-07
2.74535e-07
7.63195e-08
7.54397e-08
9.07846e-08
8.98276e-08
2.20086e-07
2.74204e-07
7.60915e-08
7.77077e-08
9.06455e-08
8.99082e-08
8.02634e-08
8.95981e-08
9.61868e-08
2.24643e-07
2.64374e-07
7.6218e-08
9.03449e-08
9.16458e-08
2.78498e-07
2.88995e-07
3.51019e-07
9.60489e-08
9.52159e-08
1.13133e-07
1.12456e-07
2.8871e-07
3.52172e-07
9.60142e-08
9.56412e-08
1.13326e-07
1.14875e-07
1.01198e-07
1.12236e-07
1.15117e-07
2.79835e-07
3.53629e-07
9.68026e-08
1.14112e-07
1.11945e-07
3.4961e-07
3.66902e-07
4.28784e-07
1.19203e-07
1.18381e-07
1.38648e-07
1.37012e-07
3.68227e-07
4.27674e-07
1.19532e-07
1.20526e-07
1.39199e-07
1.37282e-07
1.20728e-07
1.36784e-07
1.42048e-07
3.70199e-07
4.25952e-07
1.18132e-07
1.37721e-07
1.40846e-07
4.31805e-07
4.44663e-07
5.03538e-07
1.45442e-07
1.43763e-07
1.66727e-07
1.6582e-07
4.43167e-07
5.03245e-07
1.46106e-07
1.4397e-07
1.6816e-07
1.66793e-07
1.4922e-07
1.65621e-07
1.68546e-07
4.40396e-07
5.00059e-07
1.48164e-07
1.65515e-07
1.68153e-07
5.07416e-07
5.19264e-07
5.73761e-07
1.74448e-07
1.73541e-07
1.98725e-07
1.97506e-07
5.19295e-07
5.74145e-07
1.75993e-07
1.74528e-07
2.01213e-07
1.98787e-07
1.7528e-07
1.97014e-07
1.98252e-07
5.16689e-07
5.73398e-07
1.75177e-07
1.97654e-07
2.00053e-07
5.7008e-07
5.88456e-07
6.36166e-07
2.06864e-07
2.05896e-07
2.32684e-07
2.3213e-07
5.88963e-07
6.37399e-07
2.09753e-07
2.07426e-07
2.34792e-07
2.33185e-07
2.06252e-07
2.31612e-07
2.31582e-07
5.88286e-07
6.36762e-07
2.09041e-07
2.32403e-07
2.34986e-07
6.3662e-07
6.50152e-07
6.95601e-07
2.4209e-07
2.41201e-07
2.71369e-07
2.69204e-07
6.51387e-07
6.94053e-07
2.43791e-07
2.41765e-07
2.75115e-07
2.70663e-07
2.41098e-07
2.68761e-07
2.70968e-07
6.50795e-07
6.95574e-07
2.44169e-07
2.69626e-07
2.76416e-07
6.96714e-07
7.09073e-07
7.45691e-07
2.81323e-07
2.78893e-07
3.11851e-07
3.0969e-07
7.07076e-07
7.45867e-07
2.85842e-07
2.81344e-07
3.13918e-07
3.12691e-07
2.81011e-07
3.09012e-07
3.11408e-07
7.09045e-07
7.47072e-07
2.87579e-07
3.12068e-07
3.15963e-07
7.46478e-07
7.56894e-07
7.88757e-07
3.21851e-07
3.20432e-07
3.51453e-07
3.5291e-07
7.58172e-07
7.91794e-07
3.22532e-07
3.22304e-07
3.52509e-07
3.52175e-07
3.2111e-07
3.52218e-07
3.49218e-07
7.58727e-07
7.90477e-07
3.23444e-07
3.50577e-07
3.49357e-07
7.88393e-07
8.005e-07
8.34853e-07
3.62383e-07
3.63534e-07
4.00258e-07
3.96901e-07
8.0281e-07
8.3301e-07
3.64765e-07
3.63456e-07
4.05884e-07
3.99535e-07
3.60463e-07
3.96239e-07
4.01056e-07
8.01609e-07
8.34009e-07
3.61383e-07
3.98552e-07
4.06185e-07
8.36523e-07
8.45613e-07
8.71949e-07
4.1291e-07
4.0898e-07
4.45485e-07
4.4576e-07
8.43623e-07
8.71776e-07
4.1874e-07
4.11464e-07
4.49382e-07
4.46811e-07
4.13972e-07
4.44822e-07
4.46722e-07
8.44943e-07
8.72129e-07
4.21187e-07
4.45279e-07
4.53028e-07
8.74781e-07
8.81175e-07
9.06474e-07
4.56178e-07
4.57225e-07
4.94517e-07
4.90447e-07
8.81206e-07
9.04751e-07
4.58974e-07
4.58488e-07
4.93517e-07
4.9269e-07
4.57599e-07
4.89576e-07
4.92783e-07
8.81387e-07
9.06268e-07
4.6185e-07
4.91074e-07
4.92045e-07
9.05282e-07
9.15624e-07
9.37596e-07
5.07963e-07
5.02504e-07
5.41145e-07
5.40595e-07
9.13721e-07
9.38814e-07
5.05747e-07
5.04665e-07
5.38808e-07
5.44458e-07
5.04498e-07
5.394e-07
5.38366e-07
9.15525e-07
9.39886e-07
5.03296e-07
5.42798e-07
5.39307e-07
9.3732e-07
9.45613e-07
9.69597e-07
5.50916e-07
5.53001e-07
5.88018e-07
5.90756e-07
9.48037e-07
9.70556e-07
5.49826e-07
5.57154e-07
5.89109e-07
5.87277e-07
5.50456e-07
5.90064e-07
5.93104e-07
9.484e-07
9.6838e-07
5.51988e-07
5.86395e-07
5.93609e-07
9.74149e-07
9.78834e-07
1.00329e-06
6.02933e-07
6.0294e-07
6.44949e-07
6.35607e-07
9.7827e-07
9.98967e-07
6.03065e-07
5.96966e-07
6.40436e-07
6.37183e-07
6.0822e-07
6.34747e-07
6.45663e-07
9.76019e-07
1.00052e-06
6.08308e-07
6.37626e-07
6.46926e-07
1.00351e-06
1.01077e-06
1.02962e-06
6.56664e-07
6.47046e-07
6.88486e-07
6.8699e-07
1.00691e-06
1.02954e-06
6.51599e-07
6.54061e-07
6.85698e-07
6.99672e-07
6.54321e-07
6.85401e-07
6.7636e-07
1.01017e-06
1.03583e-06
6.56708e-07
6.91442e-07
6.80867e-07
1.02334e-06
1.03682e-06
1.05533e-06
6.98788e-07
7.00047e-07
7.28386e-07
7.29936e-07
1.03737e-06
1.05548e-06
6.97092e-07
7.10119e-07
7.28089e-07
7.33534e-07
6.85937e-07
7.28496e-07
7.26963e-07
1.04234e-06
1.05609e-06
6.9006e-07
7.25632e-07
7.28605e-07
1.05665e-06
1.062e-06
1.08283e-06
7.38241e-07
7.38118e-07
7.7294e-07
7.69983e-07
1.06173e-06
1.08276e-06
7.37864e-07
7.41828e-07
7.71953e-07
7.73038e-07
7.43556e-07
7.70113e-07
7.85043e-07
1.06263e-06
1.08464e-06
7.44531e-07
7.77591e-07
7.9084e-07
1.09406e-06
1.09113e-06
1.11597e-06
7.86446e-07
7.83843e-07
8.24125e-07
8.26615e-07
1.0914e-06
1.11858e-06
7.85059e-07
7.84883e-07
8.21536e-07
8.17753e-07
7.93995e-07
8.25757e-07
8.14626e-07
1.09258e-06
1.11181e-06
8.01335e-07
8.15853e-07
8.22137e-07
1.11242e-06
1.12269e-06
1.13673e-06
8.33495e-07
8.37163e-07
8.56211e-07
8.59122e-07
1.1255e-06
1.13929e-06
8.30944e-07
8.27841e-07
8.55339e-07
8.60666e-07
8.22239e-07
8.57158e-07
8.5344e-07
1.11777e-06
1.13787e-06
8.2844e-07
8.57568e-07
8.53658e-07
1.1336e-06
1.1423e-06
1.16181e-06
8.6446e-07
8.66024e-07
8.93808e-07
8.90725e-07
1.14427e-06
1.15917e-06
8.6423e-07
8.71258e-07
8.94079e-07
8.96718e-07
8.65371e-07
8.904e-07
9.00647e-07
1.14552e-06
1.16534e-06
8.64041e-07
8.97017e-07
8.99046e-07
1.16836e-06
1.16914e-06
1.18993e-06
9.04321e-07
9.00451e-07
9.33798e-07
9.31333e-07
1.16579e-06
1.18822e-06
9.04256e-07
9.03961e-07
9.32808e-07
9.29822e-07
9.09397e-07
9.31057e-07
9.30907e-07
1.17064e-06
1.18564e-06
9.09892e-07
9.27455e-07
9.32793e-07
1.19013e-06
1.19619e-06
1.21271e-06
9.42303e-07
9.41129e-07
9.64632e-07
9.66895e-07
1.19479e-06
1.2136e-06
9.41319e-07
9.40294e-07
9.64683e-07
9.69519e-07
9.37703e-07
9.65283e-07
9.60636e-07
1.19235e-06
1.21502e-06
9.39462e-07
9.67884e-07
9.633e-07
1.21021e-06
1.21815e-06
1.23254e-06
9.71621e-07
9.73414e-07
9.93571e-07
9.91501e-07
1.21953e-06
1.23259e-06
9.72072e-07
9.76516e-07
9.9369e-07
9.90727e-07
9.69715e-07
9.91999e-07
9.95552e-07
1.22122e-06
1.23265e-06
9.72449e-07
9.93678e-07
9.958e-07
1.23368e-06
1.23787e-06
1.25298e-06
1.00094e-06
9.98811e-07
1.02022e-06
1.02185e-06
1.23744e-06
1.2533e-06
1.00033e-06
9.95695e-07
1.0185e-06
1.01868e-06
1.00189e-06
1.02119e-06
1.0194e-06
1.23638e-06
1.24896e-06
1.0011e-06
1.01585e-06
1.01769e-06
1.25226e-06
1.25849e-06
1.276e-06
1.0263e-06
1.02809e-06
1.04843e-06
1.04511e-06
1.25911e-06
1.2732e-06
1.02528e-06
1.02822e-06
1.05044e-06
1.05413e-06
1.02681e-06
1.04472e-06
1.05095e-06
1.25564e-06
1.28063e-06
1.02531e-06
1.05197e-06
1.05155e-06
1.27871e-06
1.28233e-06
1.2981e-06
1.05677e-06
1.0524e-06
1.07628e-06
1.07781e-06
1.27867e-06
1.29881e-06
1.05874e-06
1.0595e-06
1.07521e-06
1.07221e-06
1.05768e-06
1.07799e-06
1.07191e-06
1.28688e-06
1.29735e-06
1.05927e-06
1.07613e-06
1.07455e-06
1.29626e-06
1.302e-06
1.30812e-06
1.0801e-06
1.08475e-06
1.09029e-06
1.09595e-06
1.30497e-06
1.31502e-06
1.07828e-06
1.07716e-06
1.08921e-06
1.09312e-06
1.07533e-06
1.0953e-06
1.08642e-06
1.30099e-06
1.31088e-06
1.0777e-06
1.09173e-06
1.08647e-06
1.30372e-06
1.31218e-06
1.3271e-06
1.09488e-06
1.09785e-06
1.11313e-06
1.10791e-06
1.31761e-06
1.32184e-06
1.09465e-06
1.09777e-06
1.11455e-06
1.11056e-06
1.09171e-06
1.10795e-06
1.11466e-06
1.31509e-06
1.32413e-06
1.09093e-06
1.11021e-06
1.11231e-06
1.32679e-06
1.3331e-06
1.34881e-06
1.11998e-06
1.11387e-06
1.13804e-06
1.13687e-06
1.32639e-06
1.3479e-06
1.12126e-06
1.11599e-06
1.13741e-06
1.13604e-06
1.1237e-06
1.13788e-06
1.14495e-06
1.32908e-06
1.34692e-06
1.12132e-06
1.13763e-06
1.14568e-06
1.35863e-06
1.35326e-06
1.35996e-06
1.14236e-06
1.14468e-06
1.15273e-06
1.15706e-06
1.35506e-06
1.36592e-06
1.14113e-06
1.1424e-06
1.15146e-06
1.15531e-06
1.14855e-06
1.1576e-06
1.15249e-06
1.35252e-06
1.36325e-06
1.14999e-06
1.15564e-06
1.15452e-06
1.36165e-06
1.36337e-06
1.37322e-06
1.15646e-06
1.15817e-06
1.16886e-06
1.16276e-06
1.36789e-06
1.36753e-06
1.1557e-06
1.1578e-06
1.16913e-06
1.16605e-06
1.15347e-06
1.16166e-06
1.16389e-06
1.36646e-06
1.37107e-06
1.15522e-06
1.1652e-06
1.16358e-06
1.36631e-06
1.37782e-06
1.38717e-06
1.17284e-06
1.16591e-06
1.18409e-06
1.18141e-06
1.37045e-06
1.38264e-06
1.17303e-06
1.17004e-06
1.1847e-06
1.18497e-06
1.16908e-06
1.18135e-06
1.18543e-06
1.37466e-06
1.38689e-06
1.16812e-06
1.18433e-06
1.18327e-06
1.38742e-06
1.39134e-06
1.40358e-06
1.18849e-06
1.18831e-06
1.20303e-06
1.20877e-06
1.38915e-06
1.41051e-06
1.18917e-06
1.19019e-06
1.20262e-06
1.20451e-06
1.19013e-06
1.20947e-06
1.2008e-06
1.39222e-06
1.40531e-06
1.1883e-06
1.20533e-06
1.20081e-06
1.40293e-06
1.40818e-06
1.41814e-06
1.20775e-06
1.21403e-06
1.22044e-06
1.22228e-06
1.41623e-06
1.42345e-06
1.20685e-06
1.20855e-06
1.21932e-06
1.21755e-06
1.20531e-06
1.22253e-06
1.22176e-06
1.4095e-06
1.41557e-06
1.20551e-06
1.21638e-06
1.22134e-06
1.42106e-06
1.42196e-06
1.42589e-06
1.2237e-06
1.22298e-06
1.22887e-06
1.22326e-06
1.42493e-06
1.41832e-06
1.22287e-06
1.2195e-06
1.22897e-06
1.22448e-06
1.22613e-06
1.22321e-06
1.23116e-06
1.41802e-06
1.42012e-06
1.22556e-06
1.2236e-06
1.23134e-06
1.42894e-06
1.42769e-06
1.42956e-06
1.22942e-06
1.22383e-06
1.234e-06
1.23282e-06
1.41968e-06
1.42538e-06
1.22972e-06
1.22695e-06
1.23501e-06
1.23903e-06
1.23116e-06
1.23221e-06
1.23176e-06
1.42318e-06
1.43488e-06
1.2316e-06
1.24001e-06
1.2327e-06
1.42777e-06
1.43342e-06
1.4495e-06
1.23773e-06
1.23743e-06
1.25326e-06
1.25355e-06
1.43051e-06
1.4497e-06
1.23874e-06
1.244e-06
1.25362e-06
1.25751e-06
1.23474e-06
1.25321e-06
1.25335e-06
1.44061e-06
1.45569e-06
1.23576e-06
1.25797e-06
1.25363e-06
1.44847e-06
1.45556e-06
1.46619e-06
1.25892e-06
1.25888e-06
1.26992e-06
1.27002e-06
1.45575e-06
1.46814e-06
1.25889e-06
1.26023e-06
1.26879e-06
1.26431e-06
1.26023e-06
1.27118e-06
1.27512e-06
1.45952e-06
1.46084e-06
1.26043e-06
1.26441e-06
1.27522e-06
1.47281e-06
1.46866e-06
1.46927e-06
1.27153e-06
1.27256e-06
1.27491e-06
1.27791e-06
1.47161e-06
1.47491e-06
1.27027e-06
1.26555e-06
1.27375e-06
1.27139e-06
1.27611e-06
1.27797e-06
1.27029e-06
1.46233e-06
1.46282e-06
1.27613e-06
1.26895e-06
1.26906e-06
1.46336e-06
1.47123e-06
1.47112e-06
1.2759e-06
1.27855e-06
1.27751e-06
1.27625e-06
1.47666e-06
1.46834e-06
1.27489e-06
1.2735e-06
1.27719e-06
1.27769e-06
1.2674e-06
1.27253e-06
1.26298e-06
1.46511e-06
1.4677e-06
1.26583e-06
1.27142e-06
1.26172e-06
1.45037e-06
1.47276e-06
1.47231e-06
1.27766e-06
1.27491e-06
1.27823e-06
1.27561e-06
1.46919e-06
1.4679e-06
1.27752e-06
1.2784e-06
1.27828e-06
1.28078e-06
1.26359e-06
1.27422e-06
1.28492e-06
1.47019e-06
1.47649e-06
1.2631e-06
1.28239e-06
1.28792e-06
1.48018e-06
1.47568e-06
1.49206e-06
1.28049e-06
1.28064e-06
1.29717e-06
1.29985e-06
1.47331e-06
1.49845e-06
1.28044e-06
1.28441e-06
1.29768e-06
1.30198e-06
1.29395e-06
1.30479e-06
1.31554e-06
1.48167e-06
1.50272e-06
1.29708e-06
1.30736e-06
1.3168e-06
1.52187e-06
1.49866e-06
1.51045e-06
1.30271e-06
1.30477e-06
1.31146e-06
1.30744e-06
1.50521e-06
1.50274e-06
1.30362e-06
1.30746e-06
1.31343e-06
1.31266e-06
1.31723e-06
1.30777e-06
1.30105e-06
1.50851e-06
1.50845e-06
1.31756e-06
1.30948e-06
1.29844e-06
1.49569e-06
1.51169e-06
1.49603e-06
1.31084e-06
1.30278e-06
1.29949e-06
1.2918e-06
1.50251e-06
1.48137e-06
1.31287e-06
1.30957e-06
1.29971e-06
1.2934e-06
1.29251e-06
1.28895e-06
1.27671e-06
1.50859e-06
1.48347e-06
1.28958e-06
1.28821e-06
1.27198e-06
1.4578e-06
1.49646e-06
1.492e-06
1.29686e-06
1.29101e-06
1.2966e-06
1.30495e-06
1.48273e-06
1.50349e-06
1.2963e-06
1.29017e-06
1.29411e-06
1.29266e-06
1.27663e-06
1.30665e-06
1.30319e-06
1.48373e-06
1.48816e-06
1.27161e-06
1.29368e-06
1.29936e-06
1.4929e-06
1.49666e-06
1.51625e-06
1.30186e-06
1.31262e-06
1.31979e-06
1.32964e-06
1.51244e-06
1.53678e-06
1.29834e-06
1.3013e-06
1.31813e-06
1.32518e-06
1.31422e-06
1.33202e-06
1.33895e-06
1.49597e-06
1.52825e-06
1.3121e-06
1.33051e-06
1.34321e-06
1.55033e-06
1.52227e-06
1.52526e-06
1.32425e-06
1.33096e-06
1.32664e-06
1.31665e-06
1.5393e-06
1.51154e-06
1.32319e-06
1.33101e-06
1.32751e-06
1.33292e-06
1.34091e-06
1.31352e-06
1.32581e-06
1.53549e-06
1.53522e-06
1.34696e-06
1.33633e-06
1.33451e-06
1.53637e-06
1.52577e-06
1.50636e-06
1.32197e-06
1.30907e-06
1.30704e-06
1.29335e-06
1.50979e-06
1.48062e-06
1.32376e-06
1.32629e-06
1.30837e-06
1.30658e-06
1.31716e-06
1.28969e-06
1.29697e-06
1.53493e-06
1.50426e-06
1.32438e-06
1.30632e-06
1.29906e-06
1.49253e-06
1.50684e-06
1.50768e-06
1.30411e-06
1.29243e-06
1.30591e-06
1.3092e-06
1.48213e-06
1.50812e-06
1.30529e-06
1.30239e-06
1.30566e-06
1.3023e-06
1.29448e-06
1.31041e-06
1.3053e-06
1.50408e-06
1.49994e-06
1.29433e-06
1.29952e-06
1.29797e-06
1.49677e-06
1.51338e-06
1.53283e-06
1.31242e-06
1.31793e-06
1.32925e-06
1.33901e-06
1.51861e-06
1.55237e-06
1.3116e-06
1.30895e-06
1.32824e-06
1.3274e-06
1.31314e-06
1.3429e-06
1.33202e-06
1.50568e-06
1.52852e-06
1.30574e-06
1.32516e-06
1.32448e-06
1.53027e-06
1.53781e-06
1.53372e-06
1.33277e-06
1.34158e-06
1.33101e-06
1.33262e-06
1.55695e-06
1.54102e-06
1.33188e-06
1.33159e-06
1.33117e-06
1.33223e-06
1.3348e-06
1.33346e-06
1.32857e-06
1.53446e-06
1.53525e-06
1.32831e-06
1.33109e-06
1.32683e-06
1.53136e-06
1.53406e-06
1.51658e-06
1.32576e-06
1.3258e-06
1.31369e-06
1.3096e-06
1.54003e-06
1.50937e-06
1.32598e-06
1.32732e-06
1.31386e-06
1.3151e-06
1.32317e-06
1.30742e-06
1.31155e-06
1.53585e-06
1.52044e-06
1.32242e-06
1.31598e-06
1.31398e-06
1.51822e-06
1.51749e-06
1.52097e-06
1.31183e-06
1.30716e-06
1.31569e-06
1.31066e-06
1.50976e-06
1.51054e-06
1.31192e-06
1.31293e-06
1.31509e-06
1.31413e-06
1.31022e-06
1.30811e-06
1.31507e-06
1.52134e-06
1.52215e-06
1.31328e-06
1.31577e-06
1.31775e-06
1.52548e-06
1.5252e-06
1.5319e-06
1.31896e-06
1.31383e-06
1.32377e-06
1.31863e-06
1.51471e-06
1.52267e-06
1.31826e-06
1.31647e-06
1.32291e-06
1.31897e-06
1.31733e-06
1.3167e-06
1.31855e-06
1.52537e-06
1.52587e-06
1.31935e-06
1.31863e-06
1.31875e-06
1.52583e-06
1.53324e-06
1.52023e-06
1.3234e-06
1.31846e-06
1.3134e-06
1.31144e-06
1.5245e-06
1.51817e-06
1.32259e-06
1.31801e-06
1.31302e-06
1.3096e-06
1.31562e-06
1.31027e-06
1.30543e-06
1.52674e-06
1.51339e-06
1.3147e-06
1.30788e-06
1.30437e-06
1.50757e-06
1.52093e-06
1.5195e-06
1.31077e-06
1.30991e-06
1.30925e-06
1.31087e-06
1.51953e-06
1.52462e-06
1.31054e-06
1.30829e-06
1.30957e-06
1.31317e-06
1.30401e-06
1.31115e-06
1.31023e-06
1.51444e-06
1.52311e-06
1.30302e-06
1.31329e-06
1.31043e-06
1.51921e-06
1.52378e-06
1.53463e-06
1.31213e-06
1.31382e-06
1.31965e-06
1.31878e-06
1.52911e-06
1.53568e-06
1.31277e-06
1.31758e-06
1.32002e-06
1.32471e-06
1.31484e-06
1.31894e-06
1.32267e-06
1.52932e-06
1.54251e-06
1.3151e-06
1.32476e-06
1.32273e-06
1.54135e-06
1.53708e-06
1.52148e-06
1.32012e-06
1.31849e-06
1.30875e-06
1.30427e-06
1.53681e-06
1.51491e-06
1.32033e-06
1.32428e-06
1.30809e-06
1.30607e-06
1.32228e-06
1.30338e-06
1.30422e-06
1.54397e-06
1.51854e-06
1.32213e-06
1.30565e-06
1.30394e-06
1.5174e-06
1.52146e-06
1.50476e-06
1.30329e-06
1.29931e-06
1.29263e-06
1.29194e-06
1.5147e-06
1.5029e-06
1.30261e-06
1.29967e-06
1.29177e-06
1.288e-06
1.29793e-06
1.29107e-06
1.28741e-06
1.51766e-06
1.49774e-06
1.29797e-06
1.28853e-06
1.28834e-06
1.49778e-06
1.50672e-06
1.51933e-06
1.29236e-06
1.29301e-06
1.30233e-06
1.30822e-06
1.5072e-06
1.52976e-06
1.29146e-06
1.28804e-06
1.30131e-06
1.30203e-06
1.28794e-06
1.30831e-06
1.3049e-06
1.50024e-06
1.51974e-06
1.28901e-06
1.30305e-06
1.3054e-06
1.52379e-06
1.52496e-06
1.52987e-06
1.30603e-06
1.31212e-06
1.3093e-06
1.31212e-06
1.53646e-06
1.53434e-06
1.30513e-06
1.30705e-06
1.30917e-06
1.31302e-06
1.31019e-06
1.31292e-06
1.31504e-06
1.52707e-06
1.53673e-06
1.31036e-06
1.3134e-06
1.31454e-06
1.53895e-06
1.53046e-06
1.49972e-06
1.30609e-06
1.30371e-06
1.28114e-06
1.27171e-06
1.53306e-06
1.4836e-06
1.30681e-06
1.31077e-06
1.28291e-06
1.28369e-06
1.31066e-06
1.27193e-06
1.27862e-06
1.5373e-06
1.5012e-06
1.3098e-06
1.28196e-06
1.27761e-06
1.49491e-06
1.49852e-06
1.47469e-06
1.27348e-06
1.26293e-06
1.25786e-06
1.2512e-06
1.48134e-06
1.4613e-06
1.27532e-06
1.27503e-06
1.25851e-06
1.25597e-06
1.26916e-06
1.2508e-06
1.25216e-06
1.49926e-06
1.46995e-06
1.26808e-06
1.25391e-06
1.25071e-06
1.46372e-06
1.47619e-06
1.49223e-06
1.25742e-06
1.25316e-06
1.27107e-06
1.28003e-06
1.46636e-06
1.50548e-06
1.2576e-06
1.2549e-06
1.26866e-06
1.26689e-06
1.25225e-06
1.27993e-06
1.27216e-06
1.47126e-06
1.48872e-06
1.25077e-06
1.26778e-06
1.2712e-06
1.4932e-06
1.50021e-06
1.52259e-06
1.27878e-06
1.28971e-06
1.29241e-06
1.30317e-06
1.51738e-06
1.54203e-06
1.27617e-06
1.27501e-06
1.29002e-06
1.29073e-06
1.28109e-06
1.3031e-06
1.29593e-06
1.49733e-06
1.5232e-06
1.28056e-06
1.29348e-06
1.29686e-06
1.53063e-06
1.52564e-06
1.4873e-06
1.29314e-06
1.30235e-06
1.25361e-06
1.24962e-06
1.5434e-06
1.48381e-06
1.29109e-06
1.29212e-06
1.25444e-06
1.25657e-06
1.29624e-06
1.2491e-06
1.25248e-06
1.52683e-06
1.49079e-06
1.29747e-06
1.25753e-06
1.25475e-06
1.4884e-06
1.45938e-06
1.20748e-06
1.20107e-06
1.45175e-06
1.20871e-06
1.21078e-06
7.62229e-07
7.70223e-07
7.66642e-07
1.20614e-06
1.46303e-06
1.20804e-06
6.20664e-10
3.34292e-09
4.25144e-10
5.89799e-10
7.44433e-09
3.38007e-09
2.9037e-09
2.61763e-09
2.59812e-09
4.78277e-09
7.20982e-10
7.68542e-08
5.02505e-09
3.78251e-09
9.07806e-09
7.21685e-09
2.04015e-07
5.77484e-09
3.24798e-07
1.47016e-06
2.95053e-06
8.7214e-09
1.64259e-07
7.41273e-09
2.57572e-07
1.21353e-09
1.52941e-09
1.50407e-09
2.10072e-09
1.19874e-09
1.51093e-09
1.48947e-09
6.59347e-09
7.4092e-08
4.66413e-09
3.36845e-09
6.89691e-09
5.31868e-08
4.66257e-09
1.52355e-06
3.02045e-06
2.34916e-09
1.78425e-09
1.45245e-07
5.33869e-09
2.43566e-09
1.71787e-09
1.20852e-07
2.15096e-07
2.18574e-07
4.62749e-09
1.8331e-07
1.87548e-07
1.65163e-08
5.89376e-07
1.18379e-08
8.61357e-07
6.70678e-06
9.70084e-06
1.79035e-08
4.74209e-07
1.3349e-08
6.64903e-07
1.18574e-09
1.49522e-09
1.47302e-09
1.94086e-09
1.14686e-09