/*--------------------------------*- C++ -*----------------------------------*\
| =========                 |                                                 |
| \\      /  F ield         | OpenFOAM: The Open Source CFD Toolbox           |
|  \\    /   O peration     | Version:  v2012                                 |
|   \\  /    A nd           | Website:  www.openfoam.com                      |
|    \\/     M anipulation  |                                                 |
\*---------------------------------------------------------------------------*/
FoamFile
{
    version     2.0;
    format      ascii;
    class       volScalarField;
    location    "737.5";
    object      p;
}
// * * * * * * * * * * * * * * * * * * * * * * * * * * * * * * * * * * * * * //

dimensions      [0 2 -2 0 0 0 0];


internalField   nonuniform List<scalar> 
171728
(
0.00351818
0.00351707
0.0035172
0.00351784
0.00348255
0.00348121
0.00348124
0.00348399
0.00344406
0.0034422
0.00344213
0.00344453
0.00339995
0.00339831
0.00339824
0.00340054
0.00335185
0.00335045
0.00335034
0.00335275
0.00330301
0.00330171
0.00330171
0.00330409
0.00325479
0.00325361
0.0032536
0.00325596
0.00320751
0.00320643
0.00320644
0.00320881
0.00316119
0.00316026
0.00316028
0.00316264
0.00311582
0.00311502
0.00311504
0.0031174
0.00307138
0.0030707
0.0030707
0.00307306
0.00302769
0.00302712
0.00302716
0.00302947
0.00298458
0.00298413
0.00298409
0.00298648
0.00294192
0.00294156
0.00294162
0.00294388
0.00289951
0.00289926
0.00289929
0.00290155
0.00285748
0.00285729
0.00285724
0.00285954
0.00281579
0.00281562
0.00281567
0.00281783
0.00277445
0.0027744
0.00277438
0.00277655
0.00273344
0.00273334
0.00273337
0.00273545
0.00269278
0.00269277
0.00269275
0.00269472
0.00265246
0.00265252
0.00265252
0.00265425
0.00261244
0.00261257
0.0026126
0.00261417
0.00257271
0.00257292
0.00257295
0.00257453
0.00253329
0.00253354
0.00253357
0.00253515
0.00249404
0.00249437
0.00249432
0.00249601
0.00245511
0.00245549
0.00245546
0.0024572
0.00241635
0.00241678
0.00241688
0.00241844
0.00237784
0.00237833
0.00237821
0.00238023
0.0023395
0.00234004
0.00234006
0.00234201
0.00230135
0.00230191
0.0023019
0.00230357
0.00226341
0.00226399
0.00226399
0.00226611
0.00222559
0.00222624
0.00222622
0.002228
0.00218794
0.00218857
0.0021886
0.00219038
0.00215039
0.00215104
0.00215099
0.00215292
0.00211306
0.00211365
0.0021137
0.0021155
0.00207577
0.00207637
0.00207636
0.00207817
0.00203854
0.00203912
0.00203906
0.00204107
0.00200184
0.00200221
0.00200222
0.00200402
0.00196471
0.00196521
0.00196522
0.00196715
0.00192814
0.00192841
0.00192837
0.00193036
0.00189139
0.00189177
0.00189178
0.00189374
0.00185508
0.00185522
0.00185519
0.00185732
0.00181884
0.00181892
0.00181908
0.00182077
0.00178257
0.00178268
0.00178246
0.00178472
0.0017464
0.00174631
0.00174652
0.00174879
0.00171043
0.0017107
0.00171057
0.0017123
0.00167491
0.00167452
0.00167449
0.00167664
0.00163881
0.00163874
0.00163897
0.00164109
0.00160329
0.00160331
0.00160301
0.00160516
0.00156787
0.00156758
0.00156771
0.0015696
0.00153245
0.00153216
0.00153229
0.00153436
0.00149714
0.00149689
0.00149666
0.00149882
0.00146169
0.00146155
0.00146165
0.00146363
0.0014269
0.00142653
0.00142675
0.0014286
0.00139192
0.00139166
0.0013913
0.0013934
0.00135678
0.00135639
0.00135656
0.00135849
0.00132183
0.00132157
0.00132174
0.00132388
0.00128715
0.00128717
0.00128682
0.00128872
0.00125247
0.00125196
0.00125211
0.00125383
0.00121777
0.00121732
0.00121739
0.00121945
0.00118267
0.00118286
0.00118274
0.00118476
0.00114838
0.00114814
0.00114809
0.0011499
0.00111402
0.00111351
0.00111352
0.00111551
0.00107927
0.00107893
0.00107906
0.00108086
0.00104445
0.0010446
0.00104468
0.00104641
0.0010103
0.00101025
0.00100996
0.00101222
0.000975952
0.000975567
0.000975458
0.000977417
0.000941436
0.000941219
0.000941351
0.000942968
0.000906849
0.000906497
0.000906805
0.000908598
0.000872005
0.000872285
0.000872321
0.000874638
0.000838222
0.00083834
0.000837908
0.00083983
0.000803831
0.000802796
0.000802893
0.000804385
0.00076817
0.000768234
0.000768195
0.000770325
0.000734244
0.000735141
0.000734974
0.00073742
0.000700972
0.000700506
0.000701021
0.000702546
0.000665784
0.000664697
0.00066488
0.000666469
0.000629835
0.000630076
0.000629553
0.0006318
0.000595881
0.000596739
0.000596368
0.000598642
0.000562604
0.000562241
0.00056269
0.000564402
0.000526926
0.000526236
0.000526539
0.000528293
0.000491
0.000491057
0.000490897
0.000492954
0.00045699
0.000457321
0.000457032
0.000459154
0.000422704
0.000422518
0.000422427
0.000424394
0.000386663
0.000386522
0.000386643
0.000388613
0.000351516
0.000351546
0.000351816
0.000353764
0.000317287
0.00031695
0.000316881
0.00031875
0.000281613
0.000281452
0.000281319
0.000283283
0.000245857
0.000246146
0.000246154
0.00024826
0.000211197
0.000211359
0.000211358
0.000213419
0.000176016
0.000175515
0.000175613
0.000177446
0.000139323
0.000139
0.000139054
0.000140977
0.000103043
0.000103582
0.000103398
0.000105648
6.85425e-05
6.89072e-05
6.87509e-05
7.08516e-05
3.50381e-05
3.37116e-05
3.40214e-05
3.54066e-05
6.44837e-06
7.05485e-06
7.26639e-06
5.0029e-06
0.0035227
0.00352024
0.00352004
0.00352252
0.00352032
0.00352025
0.00352655
0.00352652
0.00352658
0.00352655
0.00352004
0.00352014
0.00352269
0.00352025
0.00352016
0.00352262
0.00351794
0.00348879
0.00351718
0.00351706
0.00349071
0.00349067
0.00351774
0.00348879
0.00351721
0.0035172
0.00349054
0.00349056
0.00351711
0.00349058
0.00349064
0.00351792
0.0034888
0.00351714
0.00349072
0.00349065
0.00348877
0.00348402
0.00345008
0.00348116
0.00348108
0.00345248
0.00345236
0.00348402
0.00345009
0.00348123
0.00348124
0.00345242
0.00345237
0.00348108
0.00345237
0.00345247
0.00348404
0.00345009
0.00348109
0.00345241
0.00345237
0.00345006
0.00344454
0.00340673
0.00344216
0.00344214
0.00340978
0.00340984
0.00344452
0.00340673
0.0034423
0.00344225
0.00340981
0.00340977
0.00344221
0.00340983
0.00340984
0.00344455
0.00340671
0.00344224
0.00340968
0.00340979
0.00340671
0.00340055
0.00335918
0.00339838
0.00339831
0.00336266
0.0033626
0.00340054
0.00335923
0.00339833
0.00339827
0.00336262
0.00336257
0.00339827
0.00336262
0.00336262
0.00340052
0.00335923
0.00339832
0.00336247
0.00336257
0.00335922
0.00335273
0.00331048
0.00335054
0.00335042
0.00331386
0.00331385
0.00335275
0.0033105
0.00335044
0.0033504
0.00331387
0.00331388
0.00335044
0.00331388
0.00331387
0.00335277
0.00331056
0.00335043
0.00331381
0.00331387
0.00331054
0.00330408
0.00326233
0.00330183
0.0033017
0.00326545
0.00326551
0.00330405
0.00326228
0.00330173
0.00330174
0.00326557
0.00326557
0.00330175
0.00326552
0.00326555
0.00330411
0.00326229
0.00330174
0.00326554
0.00326552
0.00326228
0.003256
0.00321503
0.00325358
0.00325361
0.00321809
0.00321812
0.00325596
0.00321498
0.00325363
0.00325362
0.00321818
0.00321816
0.00325363
0.00321814
0.00321816
0.00325597
0.003215
0.0032536
0.00321816
0.00321814
0.00321499
0.00320886
0.00316871
0.0032064
0.00320643
0.00317174
0.00317173
0.0032088
0.00316869
0.00320648
0.00320647
0.00317176
0.00317175
0.00320648
0.00317173
0.00317175
0.00320882
0.00316869
0.00320644
0.00317175
0.00317173
0.00316868
0.00316266
0.00312332
0.00316028
0.00316026
0.00312628
0.00312624
0.00316263
0.00312332
0.00316033
0.00316029
0.0031263
0.00312628
0.0031603
0.00312626
0.00312628
0.00316265
0.00312331
0.00316028
0.00312627
0.00312627
0.0031233
0.00311742
0.00307887
0.00311505
0.00311504
0.00308172
0.00308169
0.0031174
0.00307886
0.00311507
0.00311504
0.00308177
0.00308171
0.00311506
0.0030817
0.00308173
0.0031174
0.00307886
0.00311505
0.0030817
0.00308172
0.00307886
0.00307309
0.00303515
0.0030707
0.0030707
0.00303797
0.00303796
0.00307307
0.00303516
0.00307071
0.0030707
0.00303802
0.00303799
0.00307072
0.00303796
0.00303798
0.00307307
0.00303517
0.00307072
0.00303798
0.00303798
0.00303516
0.00302946
0.00299207
0.00302709
0.00302714
0.00299488
0.00299485
0.00302948
0.00299209
0.00302713
0.00302714
0.00299487
0.00299489
0.00302715
0.00299485
0.00299487
0.00302949
0.0029921
0.00302715
0.0029949
0.00299487
0.00299209
0.00298643
0.0029495
0.0029841
0.00298413
0.00295228
0.00295217
0.00298648
0.00294943
0.00298414
0.00298411
0.00295221
0.00295207
0.00298417
0.00295215
0.00295219
0.00298646
0.00294942
0.00298416
0.00295208
0.00295217
0.00294941
0.00294395
0.00290692
0.00294162
0.00294155
0.00290975
0.00290978
0.00294388
0.00290702
0.00294155
0.00294161
0.00290974
0.00290984
0.00294156
0.00290977
0.00290978
0.00294393
0.00290711
0.00294155
0.00290984
0.00290976
0.00290702
0.00290146
0.00286504
0.00289926
0.00289925
0.00286779
0.00286777
0.00290154
0.00286503
0.0028992
0.0028993
0.00286778
0.0028677
0.00289927
0.00286776
0.00286784
0.00290162
0.00286499
0.00289925
0.00286769
0.00286784
0.002865
0.00285958
0.00282321
0.00285727
0.00285729
0.00282602
0.00282597
0.00285958
0.00282324
0.00285731
0.00285718
0.00282601
0.00282582
0.00285728
0.00282596
0.00282595
0.00285957
0.00282318
0.00285726
0.00282592
0.00282595
0.0028232
0.00281786
0.0027818
0.00281565
0.00281566
0.00278465
0.00278462
0.00281788
0.00278187
0.00281564
0.00281566
0.00278463
0.00278456
0.0028156
0.00278463
0.00278466
0.00281789
0.00278185
0.00281558
0.00278465
0.00278463
0.00278182
0.00277649
0.00274071
0.00277436
0.00277437
0.00274363
0.00274358
0.00277657
0.00274073
0.00277435
0.00277447
0.0027436
0.0027436
0.00277442
0.00274354
0.00274362
0.00277659
0.00274075
0.00277437
0.00274364
0.0027436
0.00274071
0.00273548
0.00269995
0.00273342
0.00273339
0.00270292
0.00270292
0.00273549
0.00269995
0.00273341
0.00273349
0.00270291
0.00270291
0.00273336
0.0027029
0.00270293
0.00273547
0.00269994
0.00273334
0.00270296
0.00270289
0.00269991
0.00269477
0.00265945
0.00269281
0.00269279
0.00266255
0.00266259
0.00269476
0.0026594
0.00269281
0.00269289
0.00266254
0.00266247
0.00269277
0.00266258
0.00266256
0.00269473
0.00265947
0.00269275
0.00266261
0.00266252
0.00265936
0.00265433
0.00261929
0.00265252
0.00265252
0.00262252
0.00262253
0.00265427
0.00261927
0.00265252
0.00265264
0.00262248
0.00262236
0.00265248
0.00262254
0.00262253
0.00265434
0.00261929
0.0026525
0.00262254
0.00262253
0.00261922
0.00261423
0.00257952
0.00261256
0.00261256
0.00258279
0.0025828
0.0026142
0.00257954
0.00261253
0.00261254
0.00258278
0.00258274
0.00261253
0.00258281
0.00258282
0.00261421
0.00257959
0.00261256
0.00258274
0.00258284
0.0025795
0.00257448
0.00254012
0.00257291
0.00257292
0.00254335
0.00254336
0.0025745
0.00254011
0.00257285
0.00257291
0.00254336
0.00254329
0.00257291
0.00254337
0.00254337
0.00257451
0.00254016
0.00257292
0.0025433
0.00254339
0.0025401
0.00253514
0.00250096
0.00253353
0.00253354
0.00250412
0.00250414
0.00253512
0.00250094
0.00253355
0.00253352
0.00250409
0.00250411
0.00253353
0.00250414
0.00250415
0.00253517
0.00250095
0.00253354
0.00250409
0.00250416
0.00250095
0.002496
0.00246209
0.00249435
0.00249437
0.00246519
0.00246519
0.00249596
0.00246211
0.00249433
0.00249435
0.00246516
0.00246523
0.00249439
0.00246518
0.00246514
0.00249597
0.00246236
0.00249439
0.00246525
0.00246516
0.00246209
0.00245716
0.0024234
0.00245548
0.0024555
0.00242641
0.00242642
0.00245719
0.00242338
0.00245545
0.00245541
0.00242643
0.00242645
0.00245549
0.00242642
0.00242635
0.00245725
0.0024232
0.00245549
0.00242649
0.00242636
0.00242336
0.00241849
0.00238505
0.00241678
0.00241679
0.00238791
0.00238794
0.00241844
0.00238508
0.00241678
0.00241689
0.0023879
0.00238793
0.00241673
0.00238795
0.0023879
0.00241865
0.0023853
0.00241673
0.00238786
0.00238792
0.00238521
0.00238014
0.00234676
0.00237831
0.00237832
0.00234954
0.00234957
0.00238017
0.00234673
0.00237827
0.00237824
0.00234955
0.00234948
0.00237828
0.00234957
0.00234956
0.00238013
0.0023464
0.00237825
0.00234958
0.00234959
0.00234681
0.00234184
0.00230872
0.00233999
0.00234004
0.00231143
0.00231144
0.00234182
0.00230875
0.00233998
0.00233998
0.00231144
0.00231149
0.00234003
0.00231143
0.0023113
0.00234163
0.00230893
0.00234005
0.00231142
0.0023113
0.00230859
0.0023038
0.00227079
0.0023019
0.00230192
0.00227346
0.00227345
0.00230385
0.00227072
0.00230192
0.00230194
0.00227344
0.00227338
0.00230182
0.00227345
0.00227351
0.00230401
0.00227073
0.00230184
0.00227343
0.00227352
0.00227094
0.00226589
0.00223298
0.002264
0.00226399
0.00223563
0.00223568
0.00226581
0.00223298
0.002264
0.00226395
0.00223563
0.00223569
0.00226404
0.00223568
0.00223562
0.00226581
0.002233
0.00226404
0.00223568
0.0022356
0.00223297
0.00222809
0.00219531
0.0022262
0.00222624
0.00219797
0.00219797
0.00222808
0.00219531
0.00222617
0.00222623
0.00219799
0.00219796
0.00222616
0.00219796
0.00219796
0.00222811
0.00219532
0.00222612
0.00219796
0.00219798
0.00219525
0.00219041
0.00215779
0.00218857
0.00218858
0.00216038
0.00216042
0.00219042
0.00215776
0.00218862
0.00218859
0.00216034
0.0021604
0.00218857
0.00216041
0.00216038
0.00219043
0.00215777
0.00218864
0.00216042
0.00216036
0.00215781
0.0021529
0.00212037
0.00215103
0.00215105
0.00212298
0.00212298
0.00215287
0.00212037
0.00215095
0.00215098
0.00212303
0.00212298
0.00215102
0.00212299
0.00212301
0.00215287
0.0021204
0.00215095
0.00212297
0.00212302
0.00212039
0.00211549
0.0020831
0.00211364
0.00211365
0.00208568
0.00208569
0.00211549
0.00208311
0.00211371
0.00211371
0.00208564
0.00208572
0.00211367
0.00208568
0.00208567
0.00211553
0.00208311
0.00211372
0.00208575
0.00208566
0.00208307
0.00207821
0.00204589
0.00207634
0.00207638
0.00204836
0.00204842
0.00207823
0.00204587
0.00207628
0.00207634
0.00204836
0.00204834
0.00207633
0.00204842
0.00204835
0.00207821
0.00204586
0.00207626
0.00204831
0.0020483
0.00204592
0.00204103
0.00200893
0.0020391
0.00203912
0.00201144
0.00201141
0.00204099
0.00200895
0.00203911
0.00203909
0.00201148
0.00201144
0.00203911
0.00201141
0.00201148
0.00204099
0.00200894
0.00203909
0.00201145
0.00201153
0.00200891
0.00200405
0.00197201
0.00200219
0.0020022
0.0019744
0.00197449
0.0020041
0.001972
0.00200222
0.00200222
0.00197437
0.00197445
0.0020022
0.00197448
0.00197441
0.0020041
0.00197201
0.00200224
0.00197447
0.00197439
0.001972
0.00196717
0.00193526
0.00196519
0.00196522
0.00193766
0.00193757
0.00196712
0.00193524
0.00196514
0.0019652
0.00193763
0.00193757
0.00196519
0.00193757
0.0019376
0.00196713
0.00193522
0.00196518
0.00193753
0.00193756
0.00193522
0.00193038
0.00189852
0.00192845
0.00192841
0.0019008
0.00190092
0.00193039
0.00189858
0.00192843
0.0019284
0.00190083
0.00190094
0.00192839
0.00190091
0.00190084
0.00193039
0.00189857
0.00192836
0.00190097
0.00190086
0.00189855
0.00189372
0.00186218
0.00189166
0.00189177
0.00186445
0.00186435
0.00189376
0.00186204
0.00189171
0.00189176
0.00186445
0.00186422
0.00189172
0.00186436
0.00186448
0.0018937
0.00186201
0.00189174
0.00186424
0.00186446
0.00186217
0.00185733
0.00182568
0.00185536
0.00185522
0.00182795
0.00182796
0.00185718
0.00182577
0.00185532
0.00185516
0.00182793
0.00182817
0.00185535
0.00182795
0.00182788
0.00185724
0.00182596
0.00185534
0.00182816
0.0018279
0.0018256
0.00182088
0.00178953
0.00181883
0.00181894
0.00179168
0.00179181
0.001821
0.00178956
0.00181885
0.00181912
0.00179175
0.00179163
0.00181874
0.00179179
0.0017916
0.00182111
0.00178932
0.00181877
0.00179159
0.00179161
0.00178948
0.00178472
0.0017533
0.00178265
0.00178269
0.00175548
0.0017553
0.0017847
0.00175316
0.00178271
0.00178248
0.00175546
0.00175534
0.00178264
0.00175531
0.00175576
0.00178449
0.00175335
0.00178264
0.00175544
0.00175575
0.00175363
0.00174849
0.00171739
0.00174642
0.00174627
0.00171946
0.0017196
0.0017484
0.00171755
0.0017464
0.00174639
0.00171947
0.00171956
0.0017467
0.00171964
0.00171926
0.00174859
0.00171741
0.0017467
0.00171964
0.00171927
0.00171708
0.00171262
0.00168145
0.00171055
0.0017107
0.00168366
0.00168367
0.00171277
0.00168138
0.00171055
0.0017106
0.00168363
0.00168353
0.0017102
0.0016836
0.00168349
0.00171259
0.0016814
0.00171021
0.00168338
0.00168345
0.00168139
0.00167665
0.00164563
0.00167461
0.00167458
0.00164764
0.00164754
0.00167658
0.00164556
0.0016746
0.00167458
0.00164769
0.00164781
0.00167462
0.00164759
0.00164793
0.00167665
0.00164574
0.00167454
0.0016479
0.00164786
0.00164585
0.00164086
0.00161005
0.00163876
0.00163866
0.00161214
0.00161219
0.00164082
0.00161015
0.00163881
0.00163883
0.00161211
0.00161194
0.00163898
0.00161221
0.00161206
0.00164095
0.00160988
0.00163898
0.00161196
0.00161223
0.00160995
0.0016053
0.00157443
0.00160326
0.00160334
0.00157652
0.00157654
0.00160539
0.00157442
0.0016032
0.00160305
0.0015765
0.00157657
0.00160308
0.00157649
0.0015764
0.00160512
0.00157449
0.00160313
0.00157649
0.00157627
0.00157432
0.00156967
0.00153898
0.0015676
0.00156762
0.00154101
0.00154103
0.00156965
0.00153895
0.0015676
0.00156777
0.00154105
0.00154114
0.00156754
0.00154102
0.0015411
0.00156976
0.00153906
0.0015675
0.00154119
0.00154118
0.00153911
0.00153425
0.00150363
0.00153217
0.00153214
0.00150574
0.0015056
0.00153421
0.00150365
0.00153221
0.00153219
0.00150571
0.00150548
0.00153231
0.00150567
0.00150576
0.0015343
0.0015035
0.00153237
0.00150554
0.00150569
0.00150357
0.00149888
0.00146835
0.00149693
0.00149685
0.00147035
0.00147054
0.00149891
0.00146837
0.00149686
0.0014967
0.00147031
0.00147053
0.00149683
0.00147044
0.00147031
0.00149876
0.00146841
0.00149674
0.00147033
0.00147027
0.00146833
0.00146364
0.0014333
0.0014615
0.00146164
0.0014353
0.00143514
0.00146362
0.0014332
0.00146156
0.0014618
0.00143543
0.00143539
0.00146158
0.00143519
0.00143534
0.00146372
0.00143336
0.00146159
0.00143561
0.00143552
0.00143332
0.00142858
0.00139816
0.00142662
0.00142647
0.00140034
0.00140047
0.00142851
0.00139833
0.00142665
0.00142647
0.00140016
0.00140007
0.0014265
0.00140046
0.00140021
0.00142861
0.00139803
0.00142667
0.00139999
0.0014001
0.00139812
0.00139344
0.00136324
0.00139151
0.00139168
0.0013652
0.00136522
0.00139362
0.00136314
0.00139136
0.00139146
0.00136529
0.00136545
0.0013915
0.00136518
0.00136532
0.00139334
0.00136329
0.00139136
0.00136529
0.00136526
0.0013632
0.00135854
0.00132838
0.0013565
0.00135641
0.00133041
0.00133013
0.0013584
0.00132819
0.00135663
0.00135665
0.00133048
0.0013303
0.00135657
0.00133021
0.00133044
0.00135857
0.00132838
0.00135655
0.00133044
0.00133053
0.00132852
0.00132366
0.00129343
0.0013217
0.00132148
0.00129556
0.00129583
0.00132353
0.00129376
0.0013217
0.00132156
0.00129544
0.00129552
0.00132178
0.00129583
0.00129561
0.00132368
0.00129344
0.00132189
0.00129555
0.00129559
0.00129347
0.00128874
0.00125874
0.00128684
0.00128723
0.00126076
0.00126083
0.00128906
0.00125865
0.00128674
0.00128687
0.00126081
0.00126091
0.00128681
0.00126075
0.00126068
0.00128874
0.00125871
0.00128674
0.00126079
0.00126065
0.00125851
0.00125408
0.00122416
0.00125217
0.00125204
0.00122625
0.00122597
0.00125392
0.00122397
0.00125224
0.00125222
0.00122625
0.00122608
0.00125201
0.00122593
0.00122608
0.00125404
0.00122408
0.001252
0.00122606
0.00122608
0.0012241
0.00121944
0.0011892
0.00121749
0.00121731
0.00119121
0.00119136
0.00121931
0.0011894
0.00121745
0.00121736
0.00119122
0.00119131
0.00121746
0.00119149
0.00119155
0.00121937
0.00118932
0.00121746
0.00119142
0.00119157
0.0011895
0.00118451
0.00115471
0.00118257
0.00118275
0.0011568
0.0011569
0.00118471
0.00115475
0.00118258
0.00118265
0.00115674
0.00115674
0.00118281
0.00115681
0.0011566
0.00118463
0.00115466
0.00118284
0.00115674
0.0011566
0.00115457
0.00115005
0.00112021
0.00114818
0.00114824
0.00112228
0.0011222
0.00115008
0.0011201
0.00114813
0.00114813
0.00112231
0.00112224
0.00114799
0.00112217
0.00112232
0.00114998
0.00112013
0.00114798
0.00112216
0.0011223
0.00112018
0.00111552
0.00108556
0.00111363
0.00111351
0.00108762
0.00108753
0.0011154
0.00108545
0.00111369
0.00111358
0.00108767
0.00108763
0.00111369
0.00108754
0.00108761
0.00111546
0.0010856
0.00111368
0.00108766
0.00108768
0.00108556
0.00108087
0.00105112
0.00107898
0.00107891
0.0010531
0.00105316
0.00108077
0.00105121
0.00107899
0.00107903
0.00105309
0.00105328
0.00107893
0.00105315
0.00105301
0.00108093
0.00105127
0.001079
0.0010533
0.00105303
0.00105106
0.00104647
0.00101682
0.00104453
0.0010446
0.00101884
0.00101887
0.00104657
0.00101687
0.0010445
0.00104469
0.00101878
0.00101868
0.00104444
0.00101889
0.00101885
0.00104661
0.00101664
0.00104443
0.00101864
0.00101877
0.00101687
0.00101212
0.000981974
0.00101021
0.00101023
0.000984103
0.000984156
0.00101216
0.000982067
0.00101014
0.00100995
0.000984081
0.000983979
0.00101033
0.000984196
0.000984329
0.00101192
0.000981937
0.00101024
0.000984029
0.000984329
0.000982134
0.000977281
0.000947858
0.000975466
0.000975537
0.000949838
0.00094988
0.000977362
0.000947782
0.000975479
0.000975422
0.000949887
0.000949947
0.000975604
0.000949813
0.000949646
0.000977269
0.000947889
0.000975622
0.000949878
0.000949669
0.000947634
0.000943244
0.000913514
0.000941326
0.000941306
0.000915488
0.000915298
0.000943129
0.000913283
0.000941372
0.000941445
0.000915538
0.000915603
0.000941033
0.000915204
0.000915183
0.000943261
0.000913545
0.00094105
0.000915497
0.000915224
0.00091328
0.000908752
0.000878542
0.000906744
0.000906556
0.00088054
0.000880542
0.000908547
0.000878732
0.000906795
0.000906843
0.000880498
0.000880585
0.000906583
0.00088071
0.000881037
0.00090881
0.000878802
0.000906654
0.000880883
0.000881129
0.000879212
0.000873864
0.000844728
0.000871952
0.000872058
0.000846687
0.000846954
0.000874115
0.000844948
0.000871888
0.000871994
0.000846617
0.000846677
0.000872612
0.000847025
0.000846889
0.000874143
0.000844554
0.000872668
0.00084659
0.000846683
0.000844594
0.000840162
0.000810008
0.000838275
0.000838471
0.000812141
0.000811954
0.00084025
0.000809647
0.000838245
0.000838192
0.000812219
0.000812016
0.000838074
0.000811662
0.00081141
0.000839873
0.000809709
0.000837896
0.000811688
0.000811424
0.000809242
0.00080516
0.000774651
0.000803255
0.000803022
0.000776705
0.000776612
0.000804807
0.000774711
0.000803322
0.000803105
0.000776686
0.000776521
0.000802498
0.000776673
0.000776583
0.00080489
0.000774695
0.000802558
0.000776715
0.000776646
0.000774862
0.000769944
0.000741007
0.000768041
0.000768062
0.000742792
0.000743112
0.000770112
0.000741509
0.000767993
0.000767926
0.000742731
0.000742911
0.000768275
0.000743408
0.000743681
0.000770068
0.000741347
0.000768309
0.000743223
0.000743638
0.000741901
0.000736517
0.000707611
0.000734536
0.000734862
0.000709509
0.000709505
0.000737014
0.000707308
0.000734498
0.000734715
0.000709605
0.00070988
0.000735422
0.00070941
0.000709612
0.000736862
0.000707724
0.000735415
0.000709809
0.000709734
0.000707395
0.000702912
0.000672061
0.000700944
0.000700732
0.000674274
0.000673928
0.000702505
0.000671577
0.000701066
0.000701274
0.000674308
0.000674283
0.000700658
0.000673632
0.000673655
0.000702941
0.000671814
0.000700778
0.000673948
0.000673608
0.000671371
0.000667103
0.000636367
0.000665221
0.000664914
0.000638458
0.000638427
0.000666655
0.000636637
0.000665199
0.000665133
0.000638343
0.000638092
0.000664671
0.00063854
0.000638261
0.000666846
0.000636178
0.000664578
0.000638201
0.000638055
0.00063639
0.000631689
0.000602763
0.000629803
0.000629894
0.000604527
0.000604831
0.000632009
0.000603202
0.000629689
0.000629412
0.00060445
0.00060439
0.000629787
0.000605032
0.000604907
0.000631522
0.000602814
0.0006296
0.000604585
0.000604824
0.000603157
0.00059825
0.000569126
0.000596238
0.000596547
0.000571092
0.000571114
0.000598699
0.000568959
0.000596187
0.000596185
0.000571182
0.000571276
0.000596628
0.00057111
0.000571255
0.000598323
0.000569332
0.000596592
0.000571346
0.000571429
0.000569216
0.00056437
0.000533422
0.000562425
0.000562299
0.000535572
0.000535397
0.000564154
0.000533129
0.00056256
0.000562676
0.000535661
0.000535783
0.000562458
0.000535249
0.000535419
0.000564586
0.000533493
0.000562667
0.000535677
0.000535542
0.000533245
0.000528466
0.0004977
0.000526517
0.000526373
0.000499721
0.00049967
0.000528197
0.000497753
0.000526556
0.00052666
0.000499633
0.000499659
0.000526374
0.000499628
0.000499665
0.000528507
0.000497585
0.000526415
0.000499599
0.000499562
0.000497643
0.00049299
0.000463738
0.000491036
0.000491064
0.000465621
0.0004657
0.000493075
0.000463886
0.00049094
0.000490932
0.000465532
0.00046545
0.000491016
0.000465756
0.000465621
0.000492862
0.000463605
0.000490892
0.000465454
0.000465488
0.00046374
0.000459148
0.000429345
0.000457203
0.000457271
0.000431417
0.000431431
0.000459283
0.000429339
0.000457129
0.000457031
0.000431416
0.000431308
0.000457192
0.000431426
0.000431295
0.000459017
0.000429261
0.000457075
0.000431268
0.000431252
0.000429237
0.000424499
0.000393434
0.000422531
0.000422524
0.000395481
0.000395471
0.00042448
0.000393424
0.000422557
0.000422463
0.000395546
0.000395532
0.000422412
0.000395492
0.000395466
0.00042443
0.000393507
0.000422406
0.000395554
0.000395544
0.000393464
0.000388526
0.000358215
0.000386487
0.000386491
0.00036011
0.000360115
0.000388527
0.000358218
0.000386551
0.000386585
0.000360175
0.000360348
0.000386564
0.00036016
0.000360356
0.00038864
0.000358454
0.000386656
0.000360434
0.000360463
0.000358462
0.000353522
0.000323735
0.000351516
0.000351512
0.000325836
0.000325745
0.000353527
0.000323626
0.000351573
0.000351747
0.000325813
0.000325792
0.000351741
0.000325682
0.000325699
0.000353752
0.000323611
0.000351835
0.000325713
0.000325659
0.000323545
0.000318958
0.000288352
0.000317119
0.000317032
0.000290469
0.000290449
0.000318863
0.000288316
0.000317064
0.000316978
0.00029041
0.0002903
0.000316891
0.000290405
0.000290292
0.000318808
0.000288172
0.000316818
0.000290249
0.000290222
0.000288166
0.000283457
0.000252913
0.000281489
0.000281473
0.000254771
0.00025484
0.000283424
0.000252978
0.000281443
0.000281337
0.000254779
0.000254815
0.000281344
0.00025488
0.000254872
0.000283284
0.00025299
0.000281303
0.000254875
0.000254897
0.000253031
0.000248134
0.000218036
0.000246025
0.000246098
0.000219961
0.000220057
0.000248201
0.000218135
0.00024604
0.000246095
0.000219977
0.000220036
0.000246161
0.000220095
0.000220116
0.000248214
0.000218126
0.000246187
0.000220058
0.000220124
0.000218186
0.000213284
0.000182445
0.000211271
0.000211344
0.000184654
0.000184594
0.000213348
0.000182367
0.000211289
0.000211349
0.000184671
0.000184678
0.000211411
0.000184569
0.000184612
0.000213376
0.000182441
0.000211409
0.000184647
0.000184622
0.000182384
0.000177519
0.000146143
0.00017563
0.000175547
0.000148278
0.000148121
0.000177426
0.000145975
0.000175649
0.000175646
0.000148294
0.000148262
0.000175552
0.000148085
0.000148122
0.000177513
0.000146075
0.000175567
0.000148223
0.000148126
0.000145962
0.00014115
0.00011041
0.000139132
0.000139033
0.000112254
0.00011235
0.000141041
0.000110543
0.000139118
0.000139082
0.000112191
0.00011216
0.000138979
0.000112368
0.000112304
0.000141061
0.00011038
0.000138969
0.000112185
0.000112248
0.000110486
0.000105553
7.5407e-05
0.000103426
0.00010355
7.72991e-05
7.74938e-05
0.0001057
7.56671e-05
0.000103366
0.000103358
7.72524e-05
7.72698e-05
0.000103526
7.75334e-05
7.74738e-05
0.000105534
7.54501e-05
0.000103474
7.73288e-05
7.74446e-05
7.56044e-05
7.06502e-05
4.04431e-05
6.8707e-05
6.88784e-05
4.26269e-05
4.24591e-05
7.08887e-05
4.01995e-05
6.86784e-05
6.86989e-05
4.27424e-05
4.27871e-05
6.8892e-05
4.24185e-05
4.25206e-05
7.07032e-05
4.05005e-05
6.88577e-05
4.27386e-05
4.26273e-05
4.03073e-05
3.55558e-05
8.41489e-06
3.39338e-05
3.37607e-05
1.1601e-05
1.14215e-05
3.53114e-05
8.14621e-06
3.4033e-05
3.40693e-05
1.16747e-05
1.16836e-05
3.37809e-05
1.13795e-05
1.14303e-05
3.56028e-05
8.42821e-06
3.38729e-05
1.16338e-05
1.14946e-05
8.24083e-06
5.159e-06
7.27908e-06
7.06472e-06
4.89271e-06
7.27011e-06
7.30199e-06
6.26634e-06
6.466e-06
6.33014e-06
7.15149e-06
5.16814e-06
7.11366e-06
0.00352968
0.00353231
0.00353095
0.00353117
0.00355774
0.00353212
0.00356172
0.00353257
0.00355872
0.00353221
0.00353242
0.00356189
0.00354324
0.00356503
0.00356509
0.00350233
0.00351581
0.00351974
0.00349455
0.00349262
0.00349785
0.00350215
0.00351588
0.00351973
0.00349448
0.00351815
0.00351821
0.00351818
0.00349168
0.00349174
0.0034917
0.00349172
0.00350179
0.00351346
0.00351866
0.00350942
0.00352079
0.00349893
0.00350964
0.00349283
0.0034979
0.00350194
0.00351878
0.00351376
0.00350947
0.00352093
0.00350978
0.00349918
0.00351957
0.00351962
0.00350674
0.00349873
0.00349888
0.0034746
0.0034888
0.00348868
0.00347253
0.00348616
0.00347158
0.00347454
0.00348882
0.00348868
0.00347267
0.00348266
0.00348259
0.00348259
0.00345415
0.00345427
0.0034542
0.00345419
0.0034723
0.00348748
0.00348114
0.00347166
0.00348588
0.00347288
0.00347177
0.00348606
0.00347167
0.0034724
0.00348107
0.00348745
0.00347174
0.0034858
0.00347165
0.0034729
0.00348905
0.00348908
0.00347012
0.0034731
0.00347326
0.00343208
0.00344673
0.00344772
0.00343065
0.00344561
0.00343
0.00343207
0.00344687
0.00344771
0.00343072
0.00344417
0.00344409
0.0034441
0.0034115
0.0034116
0.00341154
0.00341155
0.00343077
0.00344637
0.00344228
0.00343181
0.00344539
0.00343136
0.00343183
0.00344563
0.00342987
0.00343085
0.00344214
0.00344635
0.00343189
0.00344529
0.00343173
0.00343128
0.00344694
0.00344707
0.0034291
0.00343129
0.0034311
0.00338575
0.00340209
0.00340357
0.00338428
0.00340153
0.00338376
0.00338569
0.00340209
0.00340356
0.00338427
0.00340004
0.00339997
0.00339999
0.00336404
0.00336412
0.00336408
0.00336408
0.00338483
0.003402
0.00339834
0.0033866
0.0034014
0.00338497
0.00338663
0.00340139
0.00338372
0.00338485
0.00339827
0.00340188
0.00338662
0.00340138
0.00338656
0.0033848
0.00340206
0.00340224
0.00338332
0.00338457
0.00338444
0.00333678
0.00335391
0.00335529
0.00333549
0.0033535
0.00333527
0.00333676
0.00335399
0.00335521
0.00333544
0.00335193
0.0033519
0.00335189
0.00331517
0.00331523
0.00331522
0.00331522
0.00333633
0.00335393
0.00335052
0.00333827
0.00335362
0.00333632
0.00333834
0.00335348
0.00333527
0.00333641
0.00335041
0.00335379
0.00333817
0.00335353
0.00333824
0.00333627
0.00335399
0.00335392
0.00333488
0.00333569
0.00333572
0.00328768
0.00330479
0.00330599
0.00328693
0.00330469
0.0032866
0.00328767
0.00330508
0.003306
0.00328693
0.00330304
0.00330305
0.00330304
0.00326677
0.0032668
0.00326676
0.00326676
0.00328757
0.00330502
0.00330181
0.00328959
0.00330482