/*--------------------------------*- C++ -*----------------------------------*\
| =========                 |                                                 |
| \\      /  F ield         | OpenFOAM: The Open Source CFD Toolbox           |
|  \\    /   O peration     | Version:  v2012                                 |
|   \\  /    A nd           | Website:  www.openfoam.com                      |
|    \\/     M anipulation  |                                                 |
\*---------------------------------------------------------------------------*/
FoamFile
{
    version     2.0;
    format      ascii;
    class       volScalarField;
    location    "1175";
    object      k;
}
// * * * * * * * * * * * * * * * * * * * * * * * * * * * * * * * * * * * * * //

dimensions      [0 2 -2 0 0 0 0];


internalField   nonuniform List<scalar> 
171728
(
1.55451e-07
2.54438e-07
3.39893e-07
3.59267e-07
1.55155e-07
2.43108e-07
3.26742e-07
3.36863e-07
1.51715e-07
2.32575e-07
3.1215e-07
3.15761e-07
1.48332e-07
2.2307e-07
2.96838e-07
2.97633e-07
1.45029e-07
2.14439e-07
2.81962e-07
2.81975e-07
1.41674e-07
2.06442e-07
2.66741e-07
2.68012e-07
1.38132e-07
1.99372e-07
2.49479e-07
2.5535e-07
1.34883e-07
1.92708e-07
2.31701e-07
2.44245e-07
1.31774e-07
1.85444e-07
2.17468e-07
2.34985e-07
1.2866e-07
1.77236e-07
2.05722e-07
2.28108e-07
1.25562e-07
1.70085e-07
1.99334e-07
2.24873e-07
1.22548e-07
1.64703e-07
1.90429e-07
2.23855e-07
1.19685e-07
1.61228e-07
1.84599e-07
2.22938e-07
1.17092e-07
1.59782e-07
1.81847e-07
2.20244e-07
1.14467e-07
1.60585e-07
1.8325e-07
2.16391e-07
1.12145e-07
1.65134e-07
1.88845e-07
2.22594e-07
1.09918e-07
1.75179e-07
1.96677e-07
2.27113e-07
1.07972e-07
1.94202e-07
2.266e-07
2.55921e-07
1.0654e-07
2.25875e-07
2.84531e-07
2.8632e-07
1.04874e-07
2.74526e-07
4.09481e-07
3.19616e-07
1.03899e-07
3.50227e-07
5.96027e-07
4.78292e-07
1.02949e-07
4.65186e-07
8.25874e-07
6.95542e-07
1.02987e-07
6.38736e-07
1.05755e-06
1.1134e-06
1.04769e-07
8.52459e-07
1.21681e-06
1.62794e-06
1.05758e-07
1.21842e-06
1.37304e-06
2.7338e-06
1.09323e-07
1.56246e-06
1.88072e-06
3.74372e-06
1.17154e-07
2.15665e-06
2.08642e-06
5.89146e-06
1.27831e-07
2.74568e-06
2.88505e-06
7.75307e-06
1.4734e-07
3.52006e-06
3.46187e-06
9.88014e-06
1.65722e-07
4.29078e-06
4.40988e-06
1.21983e-05
2.08781e-07
5.46868e-06
5.41012e-06
1.51963e-05
2.54136e-07
6.49668e-06
6.47159e-06
1.73437e-05
3.24611e-07
7.85611e-06
7.83591e-06
1.97555e-05
4.16149e-07
8.86813e-06
8.80801e-06
2.1337e-05
5.26291e-07
1.07657e-05
1.10618e-05
2.34359e-05
6.82517e-07
1.20366e-05
1.16095e-05
2.51114e-05
8.42368e-07
1.38402e-05
1.42557e-05
2.65014e-05
1.25593e-06
1.54707e-05
1.5275e-05
2.7872e-05
1.41266e-06
1.72081e-05
1.69812e-05
2.9449e-05
1.78677e-06
1.91532e-05
1.90762e-05
3.01939e-05
2.23837e-06
2.06802e-05
2.08608e-05
3.18277e-05
2.94852e-06
2.25994e-05
2.30577e-05
3.32316e-05
3.40834e-06
2.51628e-05
2.34166e-05
3.35113e-05
3.87549e-06
2.55989e-05
2.6967e-05
3.51534e-05
5.30462e-06
2.80483e-05
2.82129e-05
3.65246e-05
5.71298e-06
3.01788e-05
2.88412e-05
3.69155e-05
6.7851e-06
3.08492e-05
3.15603e-05
3.84566e-05
8.21708e-06
3.26986e-05
3.25924e-05
3.93443e-05
9.35129e-06
3.4518e-05
3.40816e-05
4.03041e-05
1.03945e-05
3.49215e-05
3.56315e-05
4.09991e-05
1.23674e-05
3.74867e-05
3.7081e-05
4.27441e-05
1.32923e-05
3.83316e-05
3.76074e-05
4.2907e-05
1.49977e-05
3.84023e-05
3.9539e-05
4.38607e-05
1.72293e-05
4.07978e-05
4.06075e-05
4.49802e-05
1.76911e-05
4.20329e-05
4.10311e-05
4.62517e-05
1.98671e-05
4.22954e-05
4.29808e-05
4.606e-05
2.14434e-05
4.23533e-05
4.31081e-05
4.6042e-05
2.23604e-05
4.51819e-05
4.37968e-05
4.90739e-05
2.52114e-05
4.57434e-05
4.62748e-05
4.93079e-05
2.65126e-05
4.55733e-05
4.61055e-05
4.82444e-05
2.65772e-05
4.69884e-05
4.60463e-05
4.94447e-05
2.85115e-05
4.82318e-05
4.84722e-05
5.12308e-05
3.08714e-05
4.84406e-05
4.89977e-05
5.12634e-05
3.10297e-05
4.92277e-05
4.88725e-05
5.15482e-05
3.12327e-05
5.02706e-05
4.99589e-05
5.28156e-05
3.40838e-05
5.0421e-05
5.1063e-05
5.24003e-05
3.51242e-05
5.03702e-05
5.09075e-05
5.19055e-05
3.51227e-05
5.1478e-05
5.1049e-05
5.37779e-05
3.62868e-05
5.33206e-05
5.29397e-05
5.50999e-05
3.81891e-05
5.37418e-05
5.33407e-05
5.52989e-05
3.84624e-05
5.28171e-05
5.26996e-05
5.44859e-05
3.83913e-05
5.25465e-05
5.31064e-05
5.38042e-05
4.01175e-05
5.42771e-05
5.49896e-05
5.60935e-05
4.18551e-05
5.56142e-05
5.46927e-05
5.73015e-05
4.17668e-05
5.53132e-05
5.40087e-05
5.59532e-05
4.16193e-05
5.45396e-05
5.5592e-05
5.52021e-05
4.31807e-05
5.52815e-05
5.70812e-05
5.77616e-05
4.4388e-05
5.67607e-05
5.61631e-05
5.84927e-05
4.38858e-05
5.58531e-05
5.39424e-05
5.52467e-05
4.32876e-05
5.49738e-05
5.4965e-05
5.56228e-05
4.53649e-05
5.77963e-05
5.93576e-05
6.07367e-05
4.74048e-05
5.85791e-05
5.88596e-05
5.93248e-05
4.58215e-05
5.5849e-05
5.45219e-05
5.49939e-05
4.42061e-05
5.54323e-05
5.46289e-05
5.65486e-05
4.55029e-05
5.72818e-05
5.84879e-05
5.93597e-05
4.72374e-05
5.75765e-05
5.86304e-05
5.89027e-05
4.71309e-05
5.73026e-05
5.6886e-05
5.82972e-05
4.73063e-05
5.80542e-05
5.73263e-05
5.92991e-05
4.74078e-05
5.78249e-05
5.76925e-05
5.82414e-05
4.57334e-05
5.51067e-05
5.54226e-05
5.5081e-05
4.50557e-05
5.51999e-05
5.49405e-05
5.63092e-05
4.7166e-05
5.86233e-05
5.82082e-05
6.0544e-05
4.84849e-05
5.8612e-05
5.88572e-05
6.00538e-05
4.71005e-05
5.55196e-05
5.6175e-05
5.65161e-05
4.51981e-05
5.43078e-05
5.42576e-05
5.64253e-05
3.67381e-07
3.09035e-07
3.02664e-07
3.53268e-07
2.96364e-07
4.25137e-07
1.53386e-07
1.47668e-07
1.84813e-07
1.62892e-07
2.8663e-07
2.88472e-07
3.56689e-07
3.13549e-07
3.22203e-07
3.60314e-07
3.66465e-07
3.44445e-07
2.58095e-07
2.51165e-07
2.49352e-07
2.44005e-07
3.52413e-07
3.31424e-07
2.71674e-07
7.32837e-07
2.64463e-07
7.79298e-07
2.62079e-07
2.45986e-07
2.5594e-07
3.53798e-07
3.5268e-07
2.95952e-07
3.30134e-07
2.79207e-07
3.3815e-07
3.43167e-07
3.22441e-07
2.45877e-07
2.40837e-07
2.35955e-07
2.31573e-07
3.30285e-07
3.10162e-07
2.61959e-07
7.93302e-07
2.54977e-07
8.40465e-07
2.53669e-07
2.35072e-07
2.46943e-07
3.51209e-07
3.61158e-07
2.76498e-07
3.15955e-07
2.69558e-07
3.16917e-07
3.21263e-07
3.0289e-07
2.32954e-07
2.28584e-07
2.24819e-07
2.19903e-07
3.09162e-07
2.91775e-07
2.52929e-07
8.54402e-07
2.47315e-07
8.66622e-07
2.44647e-07
2.25369e-07
2.37808e-07
3.5972e-07
3.65447e-07
2.67148e-07
3.00735e-07
2.59798e-07
2.98635e-07
3.01837e-07
2.85333e-07
2.22311e-07
2.17184e-07
2.15201e-07
2.09107e-07
2.90949e-07
2.76181e-07
2.45514e-07
8.56625e-07
2.40487e-07
6.49698e-07
2.35509e-07
2.16443e-07
2.28547e-07
3.61775e-07
3.19216e-07
2.57444e-07
2.85499e-07
2.50019e-07
2.82827e-07
2.84421e-07
2.69805e-07
2.12896e-07
2.06442e-07
2.06054e-07
1.98831e-07
2.75401e-07
2.61454e-07
2.38956e-07
5.63706e-07
2.34831e-07
3.49557e-07
2.26394e-07
2.08388e-07
2.19968e-07
3.12044e-07
2.8229e-07
2.47233e-07
2.70857e-07
2.38409e-07
2.6877e-07
2.69052e-07
2.56769e-07
2.03868e-07
1.96554e-07
1.97749e-07
1.90522e-07
2.60762e-07
2.48216e-07
2.33595e-07
3.04536e-07
2.30082e-07
2.26737e-07
2.17924e-07
2.01038e-07
2.1214e-07
2.79734e-07
2.56382e-07
2.35541e-07
2.53847e-07
2.27225e-07
2.55975e-07
2.56171e-07
2.45876e-07
1.95845e-07
1.88698e-07
1.90137e-07
1.83315e-07
2.47668e-07
2.36651e-07
2.28817e-07
2.14746e-07
2.24931e-07
2.01104e-07
2.10194e-07
1.94372e-07
2.04979e-07
2.55263e-07
2.42197e-07
2.2483e-07
2.36006e-07
2.19428e-07
2.44698e-07
2.4541e-07
2.36592e-07
1.88309e-07
1.81479e-07
1.82843e-07
1.76419e-07
2.36241e-07
2.25942e-07
2.23611e-07
1.98881e-07
2.19574e-07
1.92754e-07
2.03454e-07
1.87356e-07
1.98935e-07
2.4146e-07
2.31251e-07
2.18275e-07
2.20902e-07
2.17063e-07
2.35284e-07
2.3627e-07
2.28001e-07
1.81135e-07
1.74928e-07
1.76244e-07
1.71258e-07
2.25587e-07
2.14956e-07
2.183e-07
1.91169e-07
2.14375e-07
1.88659e-07
1.97891e-07
1.7926e-07
1.96395e-07
2.3093e-07
2.23014e-07
2.17073e-07
2.07943e-07
2.18081e-07
2.28202e-07
2.27746e-07
2.1909e-07
1.74681e-07
1.70293e-07
1.70771e-07
1.68171e-07
2.14654e-07
2.04541e-07
2.13095e-07
1.88178e-07
2.09315e-07
1.87217e-07
1.95823e-07
1.71664e-07
1.94845e-07
2.22778e-07
2.15505e-07
2.19513e-07
2.01212e-07
2.26664e-07
2.24769e-07
2.18886e-07
2.10833e-07
1.69554e-07
1.67744e-07
1.66225e-07
1.66879e-07
2.04374e-07
1.96095e-07
2.08152e-07
1.87028e-07
2.04975e-07
1.86392e-07
1.94862e-07
1.65859e-07
1.95433e-07
2.15305e-07
2.08008e-07
2.30258e-07
1.9244e-07
2.42512e-07
2.23603e-07
2.10736e-07
2.03527e-07
1.65103e-07
1.66735e-07
1.62123e-07
1.66765e-07
1.96079e-07
1.89486e-07
2.04001e-07
1.86241e-07
2.0095e-07
1.85905e-07
1.95746e-07
1.6182e-07
1.98675e-07
2.07849e-07
2.01358e-07
2.46735e-07
1.85719e-07
2.56833e-07
2.22792e-07
2.03564e-07
1.97651e-07
1.61307e-07
1.66949e-07
1.59919e-07
1.68259e-07
1.89626e-07
1.84782e-07
2.00123e-07
1.85801e-07
1.97647e-07
1.85224e-07
2.00806e-07
1.59971e-07
2.10832e-07
2.0139e-07
1.96245e-07
2.58705e-07
1.82022e-07
2.60092e-07
2.20145e-07
1.97903e-07
1.94058e-07
1.59936e-07
1.68868e-07
1.6087e-07
1.72084e-07
1.85139e-07
1.82407e-07
1.97363e-07
1.85105e-07
1.96167e-07
1.85366e-07
2.1487e-07
1.60211e-07
2.28698e-07
1.96464e-07
1.92959e-07
2.59141e-07
1.8252e-07
2.4308e-07
2.16018e-07
1.94735e-07
1.93847e-07
1.61579e-07
1.73426e-07
1.65114e-07
1.78623e-07
1.83227e-07
1.83642e-07
1.96215e-07
1.85742e-07
1.97935e-07
1.87857e-07
2.33447e-07
1.63725e-07
2.47424e-07
1.93533e-07
1.92366e-07
2.40781e-07
1.86849e-07
2.37974e-07
2.20165e-07
1.95414e-07
1.98604e-07
1.6667e-07
1.80666e-07
1.73278e-07
1.8889e-07
1.85379e-07
1.89892e-07
1.98761e-07
1.89411e-07
2.03212e-07
1.94714e-07
2.51108e-07
1.7259e-07
2.60485e-07
1.93703e-07
1.96088e-07
2.36846e-07
1.9429e-07
2.39262e-07
2.24639e-07
2.01752e-07
2.13417e-07
1.75814e-07
1.91954e-07
1.8868e-07
2.05615e-07
1.93495e-07
2.04636e-07
2.05565e-07
1.983e-07
2.17325e-07
2.10052e-07
2.63608e-07
1.8829e-07
2.69782e-07
1.9937e-07
2.11701e-07
2.44964e-07
2.16867e-07
2.9783e-07
2.48467e-07
2.19595e-07
2.44486e-07
1.93071e-07
2.11328e-07
2.15194e-07
2.33824e-07
2.11673e-07
2.36532e-07
2.22143e-07
2.15589e-07
2.46082e-07
2.37285e-07
2.69525e-07
2.16619e-07
2.71324e-07
2.18135e-07
2.4811e-07
3.14005e-07
2.65689e-07
3.6011e-07
2.72889e-07
2.57651e-07
3.01508e-07
2.22798e-07
2.44314e-07
2.5744e-07
2.79562e-07
2.48878e-07
2.987e-07
2.54852e-07
2.46914e-07
2.93052e-07
2.7995e-07
2.77087e-07
2.6111e-07
2.92174e-07
2.61339e-07
3.21559e-07
3.69881e-07
3.67053e-07
3.70521e-07
3.0924e-07
3.25349e-07
4.13839e-07
2.67524e-07
2.92349e-07
3.325e-07
3.4742e-07
3.18721e-07
4.09259e-07
3.04296e-07
2.98354e-07
3.66865e-07
3.4943e-07
2.97668e-07
3.27718e-07
3.52034e-07
3.44203e-07
4.78677e-07
3.69934e-07
5.49661e-07
3.95229e-07
4.28094e-07
4.60461e-07
5.87233e-07
3.56012e-07
3.70513e-07
4.13308e-07
4.57097e-07
4.48095e-07
6.23928e-07
3.90584e-07
3.6787e-07
4.50049e-07
4.77076e-07
3.7959e-07
4.36187e-07
4.46411e-07
5.10185e-07
7.55331e-07
4.20226e-07
7.85197e-07
4.8172e-07
6.43714e-07
6.53525e-07
9.89802e-07
4.68883e-07
4.85106e-07
5.81522e-07
6.10608e-07
6.8321e-07
9.60232e-07
5.03004e-07
5.01077e-07
6.24944e-07
6.09969e-07
4.75909e-07
5.89453e-07
6.07256e-07
8.35774e-07
1.03275e-06
5.02609e-07
9.7781e-07
6.65142e-07
1.01732e-06
1.02762e-06
1.54563e-06
5.97566e-07
6.60252e-07
8.25452e-07
8.10035e-07
1.06496e-06
1.48834e-06
6.40717e-07
6.72498e-07
8.62144e-07
8.5989e-07
6.39949e-07
7.90689e-07
7.90561e-07
1.16805e-06
1.73116e-06
6.9595e-07
1.20395e-06
8.57023e-07
1.44253e-06
1.8405e-06
2.42272e-06
9.34131e-07
8.72507e-07
1.07051e-06
1.13671e-06
1.61584e-06
2.4525e-06
9.80046e-07
9.0441e-07
1.11297e-06
1.05139e-06
8.78744e-07
1.1182e-06
1.14902e-06
1.79569e-06
2.21593e-06
9.83798e-07
1.27826e-06
1.22476e-06
2.60586e-06
2.4705e-06
3.64644e-06
1.1256e-06
1.23646e-06
1.50594e-06
1.49942e-06
2.70059e-06
3.58352e-06
1.16509e-06
1.20427e-06
1.55644e-06
1.63939e-06
1.18972e-06
1.47506e-06
1.45723e-06
2.46297e-06
4.28109e-06
1.3037e-06
1.83107e-06
1.64443e-06
3.34839e-06
4.0227e-06
5.03752e-06
1.59793e-06
1.58773e-06
1.95486e-06
2.01397e-06
3.7833e-06
5.14939e-06
1.6101e-06
1.68788e-06
2.03754e-06
1.86232e-06
1.65421e-06
1.99116e-06
2.00804e-06
4.45239e-06
4.50522e-06
1.8183e-06
1.96751e-06
2.31452e-06
5.66909e-06
5.41082e-06
7.42669e-06
2.11751e-06
2.1808e-06
2.62903e-06
2.63098e-06
5.60337e-06
7.36485e-06
2.22643e-06
2.06934e-06
2.65193e-06
2.7414e-06
2.07045e-06
2.59668e-06
2.66763e-06
4.7588e-06
7.71638e-06
2.40343e-06
2.66067e-06
2.9227e-06
7.08493e-06
7.77419e-06
9.12848e-06
2.75049e-06
2.77049e-06
3.24322e-06
3.32383e-06
7.70305e-06
9.36638e-06
2.76492e-06
2.92981e-06
3.25406e-06
3.2534e-06
2.88259e-06
3.29644e-06
3.30686e-06
8.23358e-06
9.43657e-06
3.15408e-06
3.32666e-06
3.57727e-06
9.71127e-06
9.62083e-06
1.21648e-05
3.51242e-06
3.55317e-06
4.15902e-06
4.16702e-06
9.88371e-06
1.1927e-05
3.54876e-06
3.42489e-06
4.20836e-06
4.16615e-06
3.49295e-06
4.12276e-06
4.09151e-06
9.73853e-06
1.15936e-05
3.65418e-06
4.15112e-06
4.06773e-06
1.15029e-05
1.26744e-05
1.42936e-05
4.33979e-06
4.33657e-06
5.15169e-06
5.1538e-06
1.23601e-05
1.43416e-05
4.35109e-06
4.41156e-06
5.25424e-06
5.19255e-06
4.37369e-06
5.13003e-06
5.38547e-06
1.22109e-05
1.45592e-05
4.3956e-06
5.15002e-06
5.47755e-06
1.47326e-05
1.47697e-05
1.68518e-05
5.41333e-06
5.49954e-06
6.15162e-06
6.31729e-06
1.49458e-05
1.71051e-05
5.56015e-06
5.43824e-06
6.26666e-06
6.24486e-06
5.5893e-06
6.28318e-06
6.24429e-06
1.50341e-05
1.67841e-05
5.67928e-06
6.20115e-06
6.21338e-06
1.6858e-05
1.73697e-05
1.9095e-05
6.49677e-06
6.53398e-06
7.51701e-06
7.45725e-06
1.75324e-05
1.89815e-05
6.5519e-06
6.55378e-06
7.51701e-06
7.62432e-06
6.70617e-06
7.44325e-06
8.0382e-06
1.72999e-05
1.91188e-05
6.54642e-06
7.53867e-06
7.51237e-06
1.9254e-05
1.95528e-05
2.10939e-05
7.78637e-06
7.85997e-06
8.68565e-06
8.6843e-06
1.94534e-05
2.10225e-05
7.90121e-06
7.91643e-06
9.09503e-06
8.47777e-06
8.25354e-06
8.6111e-06
8.77295e-06
1.95332e-05
2.0829e-05
7.72404e-06
8.39579e-06
8.58832e-06
2.09823e-05
2.15063e-05
2.29093e-05
9.01834e-06
8.93655e-06
1.01641e-05
1.03805e-05
2.14377e-05
2.30222e-05
9.32961e-06
8.90049e-06
1.01414e-05
1.08347e-05
9.08221e-06
1.0336e-05
1.02821e-05
2.13207e-05
2.33528e-05
9.003e-06
1.06459e-05
1.02085e-05
2.29534e-05
2.33895e-05
2.47144e-05
1.06896e-05
1.08281e-05
1.19365e-05
1.16992e-05
2.34773e-05
2.46511e-05
1.06411e-05
1.12717e-05
1.19297e-05
1.16935e-05
1.06949e-05
1.16823e-05
1.20954e-05
2.37502e-05
2.43868e-05
1.0558e-05
1.14845e-05
1.17821e-05
2.4763e-05
2.49885e-05
2.5963e-05
1.2113e-05
1.20719e-05
1.3042e-05
1.33645e-05
2.49909e-05
2.62139e-05
1.20902e-05
1.18031e-05
1.29884e-05
1.37256e-05
1.24964e-05
1.33654e-05
1.33883e-05
2.4656e-05
2.62905e-05
1.21858e-05
1.35019e-05
1.32026e-05
2.61639e-05
2.64189e-05
2.79802e-05
1.3569e-05
1.38377e-05
1.53947e-05
1.52267e-05
2.66007e-05
2.76315e-05
1.36533e-05
1.45787e-05
1.59133e-05
1.57126e-05
1.38428e-05
1.51382e-05
1.50411e-05
2.68496e-05
2.76695e-05
1.37065e-05
1.5196e-05
1.4992e-05
2.75339e-05
2.82985e-05
2.88592e-05
1.59075e-05
1.5582e-05
1.67764e-05
1.66525e-05
2.7935e-05
2.89124e-05
1.64167e-05
1.57817e-05
1.69453e-05
1.60637e-05
1.5248e-05
1.66093e-05
1.68873e-05
2.78282e-05
2.85038e-05
1.52088e-05
1.62645e-05
1.68408e-05
2.90927e-05
2.90765e-05
3.00671e-05
1.69667e-05
1.72409e-05
1.84617e-05
1.88938e-05
2.92655e-05
3.03233e-05
1.70135e-05
1.65823e-05
1.82189e-05
1.89597e-05
1.76292e-05
1.88644e-05
1.8729e-05
2.89163e-05
3.03591e-05
1.75935e-05
1.88451e-05
1.87501e-05
3.00302e-05
3.04783e-05
3.14874e-05
1.91505e-05
1.92071e-05
2.03923e-05
2.02713e-05
3.05695e-05
3.12069e-05
1.90281e-05
1.92797e-05
2.04551e-05
2.03528e-05
1.88167e-05
2.02019e-05
1.9726e-05
3.06032e-05
3.14123e-05
1.88381e-05
2.00895e-05
1.96165e-05
3.13256e-05
3.17323e-05
3.2746e-05
2.06791e-05
2.07758e-05
2.24739e-05
2.21313e-05
3.14814e-05
3.26624e-05
2.07564e-05
2.10867e-05
2.26497e-05
2.29198e-05
2.0544e-05
2.20084e-05
2.31203e-05
3.17877e-05
3.27722e-05
2.04448e-05
2.28207e-05
2.30866e-05
3.30666e-05
3.30772e-05
3.35824e-05
2.31402e-05
2.26987e-05
2.40211e-05
2.47437e-05
3.30101e-05
3.40803e-05
2.32833e-05
2.31353e-05
2.40304e-05
2.33273e-05
2.36115e-05
2.47211e-05
2.40405e-05
3.29147e-05
3.31368e-05
2.36002e-05
2.32633e-05
2.40514e-05
3.33576e-05
3.37182e-05
3.47271e-05
2.41076e-05
2.51659e-05
2.55078e-05
2.55335e-05
3.42695e-05
3.44455e-05
2.40963e-05
2.34814e-05
2.52895e-05
2.61101e-05
2.40754e-05
2.55424e-05
2.4824e-05
3.33657e-05
3.52573e-05
2.40849e-05
2.60427e-05
2.47531e-05
3.46332e-05
3.52133e-05
3.62533e-05
2.64585e-05
2.5611e-05
2.7897e-05
2.7286e-05
3.4572e-05
3.59086e-05
2.62862e-05
2.70441e-05
2.81817e-05
2.8317e-05
2.60417e-05
2.69684e-05
2.83447e-05
3.56899e-05
3.62105e-05
2.59372e-05
2.8154e-05
2.84012e-05
3.6415e-05
3.63669e-05
3.67141e-05
2.81031e-05
2.82804e-05
2.90135e-05
2.9938e-05
3.64356e-05
3.7492e-05
2.83566e-05
2.8392e-05
2.8802e-05
2.86029e-05
2.85595e-05
2.99759e-05
2.88631e-05
3.62665e-05
3.65116e-05
2.86411e-05
2.84193e-05
2.88571e-05
3.67105e-05
3.69629e-05
3.81239e-05
2.93795e-05
3.00544e-05
3.07997e-05
3.05405e-05
3.75833e-05
3.77549e-05
2.9189e-05
2.89733e-05
3.07632e-05
3.10253e-05
2.92374e-05
3.06227e-05
3.08932e-05
3.68003e-05
3.83618e-05
2.90392e-05
3.10235e-05
3.08644e-05
3.82251e-05
3.84119e-05
3.92337e-05
3.13404e-05
3.07999e-05
3.24081e-05
3.19729e-05
3.79317e-05
3.89958e-05
3.13417e-05
3.1614e-05
3.25227e-05
3.25609e-05
3.12353e-05
3.20489e-05
3.23439e-05
3.86453e-05
3.91563e-05
3.12463e-05
3.23759e-05
3.23587e-05
3.90907e-05
3.94093e-05
4.01147e-05
3.27011e-05
3.26383e-05
3.39523e-05
3.4396e-05
3.93343e-05
4.04704e-05
3.28198e-05
3.2776e-05
3.39068e-05
3.37865e-05
3.28354e-05
3.4311e-05
3.39682e-05
3.9287e-05
3.99796e-05
3.28588e-05
3.37342e-05
3.3923e-05
4.01777e-05
4.03335e-05
4.10549e-05
3.4292e-05
3.4644e-05
3.50964e-05
3.48574e-05
4.05932e-05
4.07079e-05
3.41836e-05
3.40766e-05
3.50498e-05
3.51336e-05
3.41932e-05
3.47422e-05
3.48015e-05
4.02252e-05
4.11188e-05
3.40897e-05
3.51192e-05
3.47317e-05
4.07362e-05
4.12815e-05
4.2259e-05
3.5493e-05
3.49704e-05
3.68452e-05
3.66794e-05
4.08355e-05
4.23507e-05
3.55424e-05
3.56885e-05
3.69041e-05
3.69275e-05
3.51879e-05
3.68101e-05
3.69426e-05
4.13857e-05
4.22975e-05
3.52426e-05
3.69057e-05
3.71004e-05
4.24919e-05
4.24171e-05
4.26107e-05
3.71136e-05
3.73676e-05
3.74415e-05
3.83034e-05
4.27406e-05
4.32635e-05
3.70904e-05
3.70507e-05
3.7316e-05
3.73521e-05
3.74103e-05
3.83227e-05
3.79115e-05
4.23972e-05
4.25359e-05
3.74648e-05
3.74021e-05
3.77408e-05
4.28847e-05
4.27397e-05
4.41794e-05
3.76702e-05
3.83267e-05
3.92037e-05
3.83208e-05
4.32737e-05
4.30367e-05
3.7532e-05
3.7617e-05
3.93786e-05
3.91359e-05
3.79562e-05
3.8311e-05
3.86995e-05
4.26827e-05
4.40219e-05
3.77564e-05
3.89667e-05
3.84868e-05
4.3521e-05
4.4495e-05
4.47521e-05
3.96562e-05
3.83995e-05
4.02333e-05
4.04001e-05
4.319e-05
4.51296e-05
3.98778e-05
3.96987e-05
4.04183e-05
4.05383e-05
3.91004e-05
4.03666e-05
4.00424e-05
4.43584e-05
4.49362e-05
3.91152e-05
4.05303e-05
4.02375e-05
4.47945e-05
4.47671e-05
4.51353e-05
4.02742e-05
4.0855e-05
4.07626e-05
4.16093e-05
4.54261e-05
4.59749e-05
4.04358e-05
4.05808e-05
4.07158e-05
4.07013e-05
4.03759e-05
4.17369e-05
4.17713e-05
4.49743e-05
4.50557e-05
4.05333e-05
4.07748e-05
4.17262e-05
4.60432e-05
4.5471e-05
4.64577e-05
4.13651e-05
4.18917e-05
4.2737e-05
4.23703e-05
4.61348e-05
4.61746e-05
4.11092e-05
4.09389e-05
4.21494e-05
4.258e-05
4.21354e-05
4.23153e-05
4.23967e-05
4.52705e-05
4.6687e-05
4.20303e-05
4.26748e-05
4.22575e-05
4.60974e-05
4.65454e-05
4.65949e-05
4.28823e-05
4.23803e-05
4.29135e-05
4.23826e-05
4.61564e-05
4.59013e-05
4.24203e-05
4.29319e-05
4.30355e-05
4.32168e-05
4.23504e-05
4.22388e-05
4.22217e-05
4.68743e-05
4.67455e-05
4.22349e-05
4.31372e-05
4.21928e-05
4.57964e-05
4.66663e-05
4.78732e-05
4.29144e-05
4.24746e-05
4.36103e-05
4.43337e-05
4.61273e-05
4.84396e-05
4.32255e-05
4.32146e-05
4.42613e-05
4.33764e-05
4.23038e-05
4.45602e-05
4.46026e-05
4.67463e-05
4.71505e-05
4.23064e-05
4.3268e-05
4.45099e-05
4.86309e-05
4.83045e-05
4.91511e-05
4.44412e-05
4.49418e-05
4.59141e-05
4.57387e-05
4.87895e-05
4.88663e-05
4.47782e-05
4.38683e-05
4.58289e-05
4.59793e-05
4.53523e-05
4.57545e-05
4.60682e-05
4.76031e-05
4.93984e-05
4.52244e-05
4.60254e-05
4.60955e-05
4.93752e-05
4.91618e-05
4.85192e-05
4.60291e-05
4.57675e-05
4.59791e-05
4.57535e-05
4.88262e-05
4.83974e-05
4.58876e-05
4.62301e-05
4.56951e-05
4.62266e-05
4.60527e-05
4.55667e-05
4.5625e-05
4.9501e-05
4.89327e-05
4.6099e-05
4.62804e-05
4.57177e-05
4.82428e-05
4.85185e-05
4.91412e-05
4.59231e-05
4.57631e-05
4.59919e-05
4.63986e-05
4.84594e-05
4.97768e-05
4.56212e-05
4.60358e-05
4.57914e-05
4.58872e-05
4.55867e-05
4.63461e-05
4.58336e-05
4.88745e-05
4.87445e-05
4.563e-05
4.59647e-05
4.57088e-05
4.90157e-05
4.95795e-05
5.13742e-05
4.6255e-05
4.68904e-05
4.81592e-05
4.80524e-05
5.01751e-05
5.08839e-05
4.63252e-05
4.59798e-05
4.84853e-05
4.80033e-05
4.6409e-05
4.81015e-05
4.80251e-05
4.90263e-05
5.11385e-05
4.60142e-05
4.79301e-05
4.802e-05
5.1067e-05
5.15145e-05
5.11422e-05
4.85518e-05
4.82767e-05
4.8859e-05
4.85631e-05
5.09136e-05
5.07988e-05
4.88138e-05
4.85626e-05
4.89658e-05
4.90715e-05
4.83392e-05
4.84001e-05
4.87806e-05
5.14091e-05
5.14029e-05
4.84713e-05
4.89976e-05
4.89908e-05
5.12566e-05
5.10813e-05
5.0535e-05
4.88371e-05
4.85988e-05
4.85607e-05
4.89403e-05
5.083e-05
5.14996e-05
4.88767e-05
4.9067e-05
4.84049e-05
4.88314e-05
4.88238e-05
4.89188e-05
4.89549e-05
5.13718e-05
5.09945e-05
4.90133e-05
4.88719e-05
4.9032e-05
5.13579e-05
5.05839e-05
5.20535e-05
4.85583e-05
4.9128e-05
4.93738e-05
4.9876e-05
5.17447e-05
5.24049e-05
4.83935e-05
4.88129e-05
4.90246e-05
4.91007e-05
4.91368e-05
5.00938e-05
5.03061e-05
5.10363e-05
5.20212e-05
4.90631e-05
4.94401e-05
4.98879e-05
5.26762e-05
5.25219e-05
5.34691e-05
5.00887e-05
5.00665e-05
5.11472e-05
5.02038e-05
5.24552e-05
5.2164e-05
4.98004e-05
4.9641e-05
5.12694e-05
5.10193e-05
5.05279e-05
5.04236e-05
5.06118e-05
5.23429e-05
5.31639e-05
5.02409e-05
5.09543e-05
5.05072e-05
5.24637e-05
5.34868e-05
5.28535e-05
5.11845e-05
5.01921e-05
5.0902e-05
5.01775e-05
5.21533e-05
5.21768e-05
5.14015e-05
5.12361e-05
5.13418e-05
5.13308e-05
5.0542e-05
5.03626e-05
5.01e-05
5.32287e-05
5.29796e-05
5.0483e-05
5.10277e-05
5.02724e-05
5.18615e-05
5.28255e-05
5.29843e-05
5.07926e-05
5.02459e-05
5.08672e-05
5.13859e-05
5.23411e-05
5.35308e-05
5.11848e-05
5.12409e-05
5.10661e-05
5.10099e-05
5.0084e-05
5.10247e-05
5.06597e-05
5.29478e-05
5.28326e-05
5.02773e-05
5.08729e-05
5.11287e-05
5.33308e-05
5.3226e-05
5.46183e-05
5.12214e-05
5.18403e-05
5.27644e-05
5.31026e-05
5.38118e-05
5.50292e-05
5.11183e-05
5.10341e-05
5.23475e-05
5.22143e-05
5.13791e-05
5.29312e-05
5.29502e-05
5.3017e-05
5.44597e-05
5.1775e-05
5.25771e-05
5.29839e-05
5.49742e-05
5.48235e-05
5.4884e-05
5.30687e-05
5.33877e-05
5.33271e-05
5.36171e-05
5.52312e-05
5.53103e-05
5.27629e-05
5.27205e-05
5.32308e-05
5.34284e-05
5.32924e-05
5.37522e-05
5.38242e-05
5.47232e-05
5.51001e-05
5.31845e-05
5.33472e-05
5.34387e-05
5.52832e-05
5.4841e-05
5.40875e-05
5.33047e-05
5.35824e-05
5.27262e-05
5.28049e-05
5.52602e-05
5.41942e-05
5.32266e-05
5.34404e-05
5.28448e-05
5.30248e-05
5.38443e-05
5.3088e-05
5.34788e-05
5.50912e-05
5.41971e-05
5.34427e-05
5.28352e-05
5.31369e-05
5.46362e-05
5.4079e-05
5.45125e-05
5.26106e-05
5.25983e-05
5.26541e-05
5.24652e-05
5.41307e-05
5.40349e-05
5.2745e-05
5.28352e-05
5.27724e-05
5.27919e-05
5.30462e-05
5.25269e-05
5.2377e-05
5.41382e-05
5.44559e-05
5.28802e-05
5.27503e-05
5.25407e-05
5.37706e-05
5.47723e-05
5.62164e-05
5.29404e-05
5.25628e-05
5.44637e-05
5.40448e-05
5.41827e-05
5.5652e-05
5.29955e-05
5.30119e-05
5.45198e-05
5.4733e-05
5.23713e-05
5.36923e-05
5.34759e-05
5.48238e-05
5.66026e-05
5.25612e-05
5.47749e-05
5.39556e-05
5.56361e-05
5.64596e-05
5.67475e-05
5.48749e-05
5.45824e-05
5.53735e-05
5.55139e-05
5.60183e-05
5.70163e-05
5.49027e-05
5.4981e-05
5.52617e-05
5.49904e-05
5.42671e-05
5.54851e-05
5.569e-05
5.67071e-05
5.59751e-05
5.46226e-05
5.49665e-05
5.55836e-05
5.72735e-05
5.67055e-05
5.55799e-05
5.5367e-05
5.55638e-05
5.47389e-05
5.52851e-05
5.70551e-05
5.63979e-05
5.52359e-05
5.47349e-05
5.44993e-05
5.40694e-05
5.57942e-05
5.55562e-05
5.55487e-05
5.57571e-05
5.48933e-05
5.56037e-05
5.4018e-05
5.49738e-05
5.61861e-05
5.55023e-05
5.56691e-05
5.44892e-05
5.494e-05
5.43336e-05
5.44454e-05
5.62578e-05
5.56015e-05
5.43396e-05
5.40648e-05
5.43622e-05
5.50055e-05
5.50869e-05
5.45928e-05
5.43228e-05
5.49362e-05
5.68548e-05
5.4543e-05
5.48563e-05
5.41325e-05
5.51597e-05
5.59273e-05
5.74823e-05
5.44179e-05
5.44403e-05
5.58405e-05
5.50782e-05
5.56123e-05
5.64473e-05
5.46512e-05
5.57184e-05
5.62004e-05
5.68869e-05
5.43137e-05
5.47583e-05
5.52587e-05
5.7304e-05
5.85027e-05
5.4181e-05
5.69762e-05
5.60228e-05
5.73258e-05
5.76959e-05
5.79599e-05
5.62652e-05
5.56231e-05
5.67347e-05
5.67149e-05
5.67833e-05
5.79783e-05
5.64967e-05
5.6945e-05
5.66977e-05
5.65263e-05
5.60327e-05
5.66556e-05
5.69622e-05
5.85257e-05
5.72252e-05
5.66666e-05
5.67961e-05
5.71982e-05
5.85612e-05
5.78987e-05
5.62141e-05
5.67225e-05
5.67963e-05
5.58217e-05
5.64969e-05
5.80366e-05
5.71636e-05
5.66241e-05
5.58798e-05
5.52226e-05
5.42044e-05
5.6946e-05
5.64552e-05
5.54839e-05
5.68544e-05
5.47003e-05
5.7115e-05
5.42014e-05
5.49265e-05
5.5605e-05
5.59836e-05
5.55732e-05
5.53283e-05
5.59058e-05
5.47912e-05
5.49299e-05
5.68534e-05
5.57209e-05
5.48206e-05
5.39955e-05
5.45702e-05
5.42405e-05
5.48338e-05
5.49596e-05
5.43887e-05
5.461e-05
5.585e-05
5.43376e-05
5.41406e-05
5.41081e-05
5.50309e-05
5.58202e-05
5.89722e-05
5.48331e-05
5.4931e-05
5.69724e-05
5.65631e-05
5.57501e-05
5.84887e-05
5.47414e-05
5.50971e-05
5.7636e-05
5.87778e-05
5.45848e-05
5.68395e-05
5.80851e-05
5.65958e-05
6.05518e-05
5.45122e-05
5.87728e-05
5.85948e-05
6.03302e-05
5.94603e-05
6.02106e-05
5.79243e-05
5.75962e-05
5.88688e-05
5.86541e-05
5.903e-05
5.98897e-05
5.84675e-05
5.94052e-05
5.91505e-05
5.95901e-05
5.88783e-05
5.86556e-05
5.91659e-05
6.08759e-05
6.02414e-05
5.92788e-05
5.94373e-05
5.93522e-05
6.00133e-05
6.00152e-05
5.67815e-05
5.88161e-05
5.86071e-05
5.66807e-05
5.66462e-05
5.97013e-05
5.68557e-05
5.9038e-05
5.91385e-05
5.63117e-05
5.53408e-05
5.87227e-05
5.64654e-05
5.53942e-05
5.96335e-05
5.53799e-05
5.86451e-05
5.51666e-05
5.48998e-05
5.51986e-05
5.64062e-05
5.57765e-05
5.58711e-05
5.59536e-05
5.50786e-05
5.53589e-05
5.65764e-05
5.63203e-05
5.54784e-05
5.45892e-05
5.47589e-05
5.42015e-05
5.48656e-05
5.53677e-05
5.47415e-05
5.50585e-05
5.52868e-05
5.43815e-05
5.42623e-05
5.43627e-05
5.59636e-05
5.59959e-05
5.82191e-05
5.5116e-05
5.54107e-05
5.67319e-05
5.68688e-05
5.65654e-05
5.82611e-05
5.48311e-05
5.44949e-05
5.68868e-05
5.76929e-05
5.51449e-05
5.68891e-05
5.75125e-05
5.58775e-05
5.9387e-05
5.49842e-05
5.78792e-05
5.78941e-05
5.91902e-05
5.84706e-05
5.86384e-05
5.72727e-05
5.72807e-05
5.77282e-05
5.75873e-05
5.84328e-05
5.84067e-05
5.74567e-05
5.82955e-05
5.78895e-05
5.85805e-05
5.79025e-05
5.7601e-05
5.80892e-05
5.96814e-05
5.95346e-05
5.83569e-05
5.88135e-05
5.8581e-05
5.90509e-05
5.85647e-05
5.81952e-05
5.77032e-05
5.75537e-05
5.74001e-05
5.72866e-05
5.83453e-05
5.80632e-05
5.7844e-05
5.83674e-05
5.73402e-05
5.69812e-05
5.79643e-05
5.72998e-05
5.74308e-05
5.9267e-05
5.76616e-05
5.84284e-05
5.70789e-05
5.74458e-05
5.82651e-05
5.82391e-05
5.92382e-05
5.7402e-05
5.72945e-05
5.7916e-05
5.78935e-05
5.81229e-05
5.92144e-05
5.73289e-05
5.68585e-05
5.7799e-05
5.71137e-05
5.74285e-05
5.78492e-05
5.78958e-05
5.76284e-05
5.83506e-05
5.73824e-05
5.69818e-05
5.76212e-05
5.91929e-05
5.94027e-05
5.91791e-05
5.81138e-05
5.80885e-05
5.81308e-05
5.80856e-05
5.9372e-05
5.90736e-05
5.80446e-05
5.75427e-05
5.81332e-05
5.79746e-05
5.80311e-05
5.80722e-05
5.79224e-05
5.86279e-05
5.91695e-05
5.774e-05
5.77338e-05
5.76521e-05
5.86332e-05
5.88782e-05
5.61325e-05
5.78902e-05
5.78154e-05
5.56458e-05
5.55829e-05
5.87502e-05
5.6032e-05
5.79573e-05
5.79298e-05
5.5772e-05
5.61824e-05
5.75113e-05
5.55608e-05
5.50216e-05
5.91109e-05
5.66215e-05
5.73143e-05
5.60633e-05
5.50427e-05
5.52888e-05
5.58766e-05
5.57883e-05
5.5155e-05
5.51505e-05
5.48708e-05
5.49802e-05
5.58183e-05
5.60518e-05
5.5217e-05
5.54921e-05
5.48218e-05
5.48356e-05
5.45905e-05
5.49191e-05
5.45077e-05
5.62696e-05
5.55939e-05
5.46275e-05
5.4855e-05
5.45371e-05
5.56786e-05
5.61739e-05
5.91542e-05
5.5058e-05
5.52578e-05
5.75933e-05
5.79647e-05
5.65383e-05
5.96973e-05
5.49542e-05
5.49009e-05
5.73964e-05
5.71847e-05
5.49519e-05
5.80434e-05
5.83506e-05
5.58212e-05
5.89538e-05
5.49484e-05
5.73924e-05
5.82965e-05
6.01704e-05
5.95159e-05
5.99384e-05
5.8233e-05
5.85187e-05
5.86966e-05
5.87698e-05
6.00067e-05
5.98762e-05
5.81072e-05
5.80144e-05
5.87051e-05
5.87947e-05
5.90058e-05
5.88758e-05
5.93018e-05
5.94082e-05
6.01771e-05
5.89802e-05
5.89178e-05
5.93368e-05
6.04792e-05
5.97458e-05
5.74731e-05
5.86016e-05
5.85348e-05
5.66773e-05
5.60898e-05
5.95049e-05
5.66289e-05
5.86479e-05
5.87553e-05
5.68731e-05
5.69711e-05
5.90176e-05
5.60118e-05
5.61608e-05
6.007e-05
5.75613e-05
5.91011e-05
5.68464e-05
5.63072e-05
5.67689e-05
5.72129e-05
5.64377e-05
5.61104e-05
5.55986e-05
5.52898e-05
5.51491e-05
5.64167e-05
5.63059e-05
5.62454e-05
5.62853e-05
5.52685e-05
5.52467e-05
5.56061e-05
5.51191e-05
5.51298e-05
5.72525e-05
5.63855e-05
5.57069e-05
5.5232e-05
5.5119e-05
5.62993e-05
5.63982e-05
5.43157e-05
5.43083e-05
5.64457e-05
5.42758e-05
5.42526e-05
4.51822e-05
4.5147e-05
4.51076e-05
5.42841e-05
5.6354e-05
5.42455e-05
7.18911e-08
2.37653e-07
5.2345e-08
6.78627e-08
2.81504e-07
2.75582e-07
1.31459e-07
1.24678e-07
2.68893e-07
3.21811e-07
1.56018e-07
3.63962e-07
3.67331e-07
2.15193e-07
5.94841e-07
3.04888e-07
4.85421e-06
2.61809e-07
6.47511e-06
1.29319e-05
2.02657e-05
3.60236e-07
4.85151e-06
3.22355e-07
6.49222e-06
1.49405e-07
1.89453e-07
1.64583e-07
1.55968e-07
1.49765e-07
1.8884e-07
1.65475e-07
2.64904e-07
5.1555e-07
2.21292e-07
2.51799e-07
2.71684e-07
4.98479e-07
2.20633e-07
1.40857e-05
2.19328e-05
2.49567e-07
2.76094e-07
7.61368e-07
3.37034e-07
2.55985e-07
2.75196e-07
7.28749e-07
1.8433e-06
1.97736e-06
3.49888e-07
1.81755e-06
1.95852e-06
5.03403e-07
9.54877e-06
4.11166e-07
1.21882e-05
3.55059e-05
4.52067e-05
5.51933e-07
9.60447e-06
4.66211e-07
1.23314e-05
1.48977e-07
1.86923e-07
1.64561e-07
1.52579e-07
1.46505e-07