/*--------------------------------*- C++ -*----------------------------------*\
| =========                 |                                                 |
| \\      /  F ield         | OpenFOAM: The Open Source CFD Toolbox           |
|  \\    /   O peration     | Version:  v2012                                 |
|   \\  /    A nd           | Website:  www.openfoam.com                      |
|    \\/     M anipulation  |                                                 |
\*---------------------------------------------------------------------------*/
FoamFile
{
    version     2.0;
    format      ascii;
    class       volScalarField;
    location    "0.05";
    object      p;
}
// * * * * * * * * * * * * * * * * * * * * * * * * * * * * * * * * * * * * * //

dimensions      [0 2 -2 0 0 0 0];


internalField   nonuniform List<scalar> 
247104
(
2.13826e-06
2.1398e-06
2.13945e-06
2.13921e-06
2.13881e-06
2.13927e-06
2.1395e-06
2.13973e-06
2.13978e-06
2.13993e-06
2.13997e-06
2.1397e-06
2.13949e-06
2.13975e-06
2.13999e-06
2.1399e-06
2.13945e-06
2.13997e-06
2.13974e-06
2.13932e-06
2.13914e-06
2.13937e-06
2.1398e-06
2.13996e-06
2.13934e-06
2.13919e-06
2.13969e-06
2.13932e-06
2.13883e-06
2.13865e-06
2.13889e-06
2.13939e-06
2.13971e-06
2.13904e-06
2.13824e-06
2.13879e-06
2.13948e-06
2.13913e-06
2.13865e-06
2.13847e-06
2.1387e-06
2.1392e-06
2.13947e-06
2.13861e-06
2.13925e-06
2.13974e-06
2.13937e-06
2.13889e-06
2.1387e-06
2.13894e-06
2.13944e-06
2.13975e-06
2.13909e-06
2.13951e-06
2.13999e-06
2.13979e-06
2.13939e-06
2.1392e-06
2.13944e-06
2.13985e-06
2.13998e-06
2.13941e-06
2.13971e-06
2.1399e-06
2.13996e-06
2.13971e-06
2.13948e-06
2.13975e-06
2.13998e-06
2.13987e-06
2.13934e-06
2.13904e-06
2.13862e-06
2.13909e-06
2.13941e-06
2.10538e-06
2.10288e-06
2.10567e-06
2.10372e-06
2.10221e-06
2.10246e-06
2.10238e-06
2.10701e-06
2.10629e-06
2.10569e-06
2.10239e-06
2.09765e-06
2.09723e-06
2.09724e-06
2.09766e-06
2.10257e-06
2.1033e-06
2.10372e-06
2.09765e-06
2.09749e-06
2.09742e-06
2.09743e-06
2.09749e-06
2.09766e-06
2.10335e-06
2.10763e-06
2.10538e-06
2.1022e-06
2.09723e-06
2.09742e-06
2.09758e-06
2.09758e-06
2.09743e-06
2.09724e-06
2.10225e-06
2.10635e-06
2.10287e-06
2.10245e-06
2.09723e-06
2.09743e-06
2.09758e-06
2.09758e-06
2.09743e-06
2.09724e-06
2.10246e-06
2.10201e-06
2.10237e-06
2.09766e-06
2.09749e-06
2.09743e-06
2.09743e-06
2.0975e-06
2.09767e-06
2.10252e-06
2.10473e-06
2.10702e-06
2.10257e-06
2.09766e-06
2.09724e-06
2.09724e-06
2.09766e-06
2.10219e-06
2.10355e-06
2.10783e-06
2.10629e-06
2.10332e-06
2.10334e-06
2.10225e-06
2.10246e-06
2.10252e-06
2.10353e-06
2.10914e-06
2.10763e-06
2.10634e-06
2.10202e-06
2.10477e-06
2.1078e-06
2.08518e-06
2.08516e-06
2.08457e-06
2.08237e-06
2.08232e-06
2.08226e-06
2.08238e-06
2.08536e-06
2.08523e-06
2.08458e-06
2.08211e-06
2.07901e-06
2.0788e-06
2.0788e-06
2.07901e-06
2.08384e-06
2.08298e-06
2.08236e-06
2.07901e-06
2.07845e-06
2.07839e-06
2.07839e-06
2.07846e-06
2.07903e-06
2.08441e-06
2.08604e-06
2.0852e-06
2.0823e-06
2.07879e-06
2.07839e-06
2.07831e-06
2.07831e-06
2.0784e-06
2.07881e-06
2.08388e-06
2.08504e-06
2.08515e-06
2.08225e-06
2.07879e-06
2.07839e-06
2.07831e-06
2.07831e-06
2.0784e-06
2.07882e-06
2.08355e-06
2.08243e-06
2.08238e-06
2.079e-06
2.07845e-06
2.07839e-06
2.07839e-06
2.07846e-06
2.07903e-06
2.08422e-06
2.08558e-06
2.08535e-06
2.08384e-06
2.07902e-06
2.0788e-06
2.0788e-06
2.07901e-06
2.08438e-06
2.0838e-06
2.08567e-06
2.08521e-06
2.08298e-06
2.0844e-06
2.08387e-06
2.08354e-06
2.08421e-06
2.0838e-06
2.08596e-06
2.08605e-06
2.08503e-06
2.08243e-06
2.0856e-06
2.08569e-06
2.06251e-06
2.06246e-06
2.06241e-06
2.0601e-06
2.06002e-06
2.05987e-06
2.06019e-06
2.06332e-06
2.06309e-06
2.06241e-06
2.05965e-06
2.05638e-06
2.05628e-06
2.05628e-06
2.05638e-06
2.06208e-06
2.06104e-06
2.0601e-06
2.05638e-06
2.05624e-06
2.05622e-06
2.05622e-06
2.05624e-06
2.05637e-06
2.06283e-06
2.06376e-06
2.06248e-06
2.06001e-06
2.05628e-06
2.05622e-06
2.05621e-06
2.05621e-06
2.05622e-06
2.05628e-06
2.06252e-06
2.06252e-06
2.06246e-06
2.05986e-06
2.05628e-06
2.05622e-06
2.05621e-06
2.05621e-06
2.05622e-06
2.05628e-06
2.0622e-06
2.06005e-06
2.06019e-06
2.05638e-06
2.05624e-06
2.05622e-06
2.05622e-06
2.05624e-06
2.05638e-06
2.06279e-06
2.06308e-06
2.06332e-06
2.06209e-06
2.05638e-06
2.05628e-06
2.05628e-06
2.05638e-06
2.06337e-06
2.06207e-06
2.06355e-06
2.06311e-06
2.06106e-06
2.06283e-06
2.06252e-06
2.0622e-06
2.06279e-06
2.06207e-06
2.06369e-06
2.06376e-06
2.06251e-06
2.06007e-06
2.06309e-06
2.06354e-06
2.0408e-06
2.0408e-06
2.04062e-06
2.03818e-06
2.0381e-06
2.03789e-06
2.0383e-06
2.04154e-06
2.04123e-06
2.04057e-06
2.03705e-06
2.03379e-06
2.03377e-06
2.03377e-06
2.03378e-06
2.03986e-06
2.03922e-06
2.03817e-06
2.03379e-06
2.03377e-06
2.03377e-06
2.03377e-06
2.03377e-06
2.03378e-06
2.04117e-06
2.04207e-06
2.04083e-06
2.0381e-06
2.03378e-06
2.03377e-06
2.03378e-06
2.03378e-06
2.03377e-06
2.03377e-06
2.04119e-06
2.04085e-06
2.0408e-06
2.03791e-06
2.03378e-06
2.03377e-06
2.03378e-06
2.03378e-06
2.03377e-06
2.03378e-06
2.04091e-06
2.03841e-06
2.03831e-06
2.03379e-06
2.03377e-06
2.03377e-06
2.03377e-06
2.03377e-06
2.03379e-06
2.04133e-06
2.04143e-06
2.04155e-06
2.03987e-06
2.03379e-06
2.03378e-06
2.03378e-06
2.03379e-06
2.04169e-06
2.04028e-06
2.04182e-06
2.04122e-06
2.03923e-06
2.04118e-06
2.04121e-06
2.04092e-06
2.04132e-06
2.04027e-06
2.04187e-06
2.04208e-06
2.04085e-06
2.03842e-06
2.04143e-06
2.04183e-06
2.01888e-06
2.0189e-06
2.01863e-06
2.01614e-06
2.01605e-06
2.01581e-06
2.01628e-06
2.01955e-06
2.01924e-06
2.01857e-06
2.01477e-06
2.01149e-06
2.01148e-06
2.01148e-06
2.01148e-06
2.01767e-06
2.01724e-06
2.01614e-06
2.01149e-06
2.01148e-06
2.01148e-06
2.01148e-06
2.01148e-06
2.01148e-06
2.0192e-06
2.02013e-06
2.0189e-06
2.01605e-06
2.01148e-06
2.01148e-06
2.01148e-06
2.01148e-06
2.01148e-06
2.01148e-06
2.01936e-06
2.01891e-06
2.01889e-06
2.01581e-06
2.01148e-06
2.01148e-06
2.01148e-06
2.01148e-06
2.01148e-06
2.01148e-06
2.01904e-06
2.01649e-06
2.01628e-06
2.01148e-06
2.01148e-06
2.01148e-06
2.01148e-06
2.01148e-06
2.01148e-06
2.01942e-06
2.0195e-06
2.01958e-06
2.01768e-06
2.01148e-06
2.01148e-06
2.01148e-06
2.01148e-06
2.01971e-06
2.0183e-06
2.01986e-06
2.01925e-06
2.01726e-06
2.01921e-06
2.01936e-06
2.01905e-06
2.01941e-06
2.01829e-06
2.01988e-06
2.02014e-06
2.01892e-06
2.0165e-06
2.0195e-06
2.01987e-06
1.99677e-06
1.99681e-06
1.99644e-06
1.99398e-06
1.9939e-06
1.99365e-06
1.99413e-06
1.99744e-06
1.99712e-06
1.99643e-06
1.99254e-06
1.98926e-06
1.98925e-06
1.98925e-06
1.98925e-06
1.99547e-06
1.99512e-06
1.99398e-06
1.98926e-06
1.98926e-06
1.98926e-06
1.98926e-06
1.98925e-06
1.98926e-06
1.99707e-06
1.99801e-06
1.99682e-06
1.9939e-06
1.98926e-06
1.98926e-06
1.98926e-06
1.98926e-06
1.98925e-06
1.98925e-06
1.99726e-06
1.9968e-06
1.99679e-06
1.99365e-06
1.98926e-06
1.98926e-06
1.98926e-06
1.98926e-06
1.98925e-06
1.98925e-06
1.99695e-06
1.9944e-06
1.99413e-06
1.98926e-06
1.98926e-06
1.98926e-06
1.98925e-06
1.98925e-06
1.98925e-06
1.99729e-06
1.99739e-06
1.99745e-06
1.99549e-06
1.98926e-06
1.98926e-06
1.98925e-06
1.98925e-06
1.99758e-06
1.99617e-06
1.99774e-06
1.99713e-06
1.99513e-06
1.99708e-06
1.99727e-06
1.99695e-06
1.99731e-06
1.99616e-06
1.99777e-06
1.99802e-06
1.99681e-06
1.99441e-06
1.99739e-06
1.99774e-06
1.9746e-06
1.97463e-06
1.97427e-06
1.97181e-06
1.97172e-06
1.97146e-06
1.97195e-06
1.97526e-06
1.97494e-06
1.97432e-06
1.97033e-06
1.96705e-06
1.96705e-06
1.96705e-06
1.96705e-06
1.97328e-06
1.97294e-06
1.9718e-06
1.96705e-06
1.96705e-06
1.96705e-06
1.96705e-06
1.96705e-06
1.96705e-06
1.9749e-06
1.97584e-06
1.97465e-06
1.97172e-06
1.96705e-06
1.96705e-06
1.96705e-06
1.96705e-06
1.96705e-06
1.96705e-06
1.9751e-06
1.97464e-06
1.97463e-06
1.97147e-06
1.96705e-06
1.96705e-06
1.96705e-06
1.96705e-06
1.96705e-06
1.96705e-06
1.97478e-06
1.97222e-06
1.97195e-06
1.96705e-06
1.96705e-06
1.96705e-06
1.96705e-06
1.96705e-06
1.96706e-06
1.97512e-06
1.97521e-06
1.97528e-06
1.97328e-06
1.96705e-06
1.96705e-06
1.96705e-06
1.96705e-06
1.97541e-06
1.974e-06
1.97556e-06
1.97495e-06
1.97294e-06
1.9749e-06
1.9751e-06
1.97479e-06
1.97514e-06
1.97398e-06
1.97559e-06
1.97585e-06
1.97464e-06
1.97224e-06
1.97522e-06
1.97558e-06
1.95241e-06
1.95245e-06
1.95207e-06
1.94961e-06
1.94952e-06
1.94928e-06
1.94976e-06
1.95309e-06
1.95276e-06
1.95213e-06
1.94814e-06
1.94485e-06
1.94485e-06
1.94485e-06
1.94485e-06
1.95108e-06
1.95074e-06
1.94961e-06
1.94485e-06
1.94485e-06
1.94485e-06
1.94485e-06
1.94485e-06
1.94486e-06
1.95271e-06
1.95365e-06
1.95244e-06
1.94953e-06
1.94485e-06
1.94485e-06
1.94485e-06
1.94485e-06
1.94485e-06
1.94485e-06
1.95291e-06
1.95245e-06
1.95244e-06
1.94927e-06
1.94485e-06
1.94485e-06
1.94485e-06
1.94485e-06
1.94485e-06
1.94485e-06
1.9526e-06
1.95005e-06
1.94977e-06
1.94485e-06
1.94485e-06
1.94485e-06
1.94485e-06
1.94485e-06
1.94485e-06
1.95294e-06
1.95304e-06
1.95309e-06
1.95109e-06
1.94485e-06
1.94485e-06
1.94485e-06
1.94485e-06
1.95323e-06
1.95182e-06
1.95338e-06
1.95276e-06
1.95076e-06
1.95271e-06
1.95292e-06
1.95261e-06
1.95296e-06
1.95181e-06
1.95341e-06
1.95367e-06
1.95245e-06
1.95005e-06
1.95304e-06
1.95339e-06
1.93022e-06
1.93025e-06
1.92988e-06
1.92742e-06
1.92733e-06
1.92708e-06
1.92757e-06
1.93089e-06
1.93057e-06
1.92993e-06
1.92594e-06
1.92266e-06
1.92266e-06
1.92266e-06
1.92266e-06
1.92888e-06
1.92855e-06
1.92741e-06
1.92266e-06
1.92266e-06
1.92266e-06
1.92266e-06
1.92266e-06
1.92266e-06
1.93052e-06
1.93146e-06
1.93024e-06
1.92733e-06
1.92266e-06
1.92266e-06
1.92266e-06
1.92266e-06
1.92266e-06
1.92266e-06
1.93072e-06
1.93026e-06
1.93024e-06
1.92708e-06
1.92266e-06
1.92266e-06
1.92266e-06
1.92266e-06
1.92266e-06
1.92266e-06
1.93041e-06
1.92786e-06
1.92757e-06
1.92266e-06
1.92266e-06
1.92266e-06
1.92266e-06
1.92266e-06
1.92266e-06
1.93075e-06
1.93084e-06
1.93089e-06
1.92889e-06
1.92266e-06
1.92266e-06
1.92266e-06
1.92266e-06
1.93103e-06
1.92962e-06
1.93118e-06
1.93057e-06
1.92856e-06
1.93052e-06
1.93073e-06
1.93042e-06
1.93076e-06
1.92962e-06
1.93121e-06
1.93146e-06
1.93025e-06
1.92786e-06
1.93084e-06
1.9312e-06
1.90803e-06
1.90806e-06
1.90769e-06
1.90522e-06
1.90514e-06
1.90489e-06
1.90538e-06
1.9087e-06
1.90836e-06
1.90773e-06
1.90375e-06
1.90046e-06
1.90046e-06
1.90046e-06
1.90046e-06
1.90669e-06
1.90635e-06
1.90522e-06
1.90046e-06
1.90046e-06
1.90046e-06
1.90046e-06
1.90046e-06
1.90046e-06
1.90833e-06
1.90927e-06
1.90805e-06
1.90514e-06
1.90046e-06
1.90046e-06
1.90046e-06
1.90046e-06
1.90046e-06
1.90046e-06
1.90853e-06
1.90806e-06
1.90805e-06
1.90489e-06
1.90046e-06
1.90046e-06
1.90046e-06
1.90046e-06
1.90046e-06
1.90046e-06
1.90822e-06
1.90566e-06
1.90538e-06
1.90046e-06
1.90046e-06
1.90046e-06
1.90046e-06
1.90046e-06
1.90046e-06
1.90855e-06
1.90865e-06
1.9087e-06
1.90669e-06
1.90046e-06
1.90046e-06
1.90046e-06
1.90046e-06
1.90884e-06
1.90743e-06
1.90899e-06
1.90838e-06
1.90637e-06
1.90833e-06
1.90854e-06
1.90823e-06
1.90857e-06
1.90742e-06
1.90902e-06
1.90927e-06
1.90806e-06
1.90567e-06
1.90865e-06
1.90901e-06
1.88583e-06
1.88587e-06
1.88555e-06
1.88303e-06
1.88294e-06
1.8827e-06
1.88319e-06
1.88651e-06
1.88617e-06
1.88554e-06
1.88156e-06
1.87827e-06
1.87827e-06
1.87827e-06
1.87827e-06
1.8845e-06
1.88416e-06
1.88303e-06
1.87827e-06
1.87827e-06
1.87827e-06
1.87827e-06
1.87827e-06
1.87827e-06
1.88613e-06
1.88707e-06
1.88586e-06
1.88295e-06
1.87827e-06
1.87827e-06
1.87827e-06
1.87827e-06
1.87827e-06
1.87827e-06
1.88633e-06
1.88587e-06
1.88586e-06
1.88269e-06
1.87827e-06
1.87827e-06
1.87827e-06
1.87827e-06
1.87827e-06
1.87827e-06
1.88603e-06
1.88347e-06
1.88319e-06
1.87827e-06
1.87827e-06
1.87827e-06
1.87827e-06
1.87827e-06
1.87827e-06
1.88636e-06
1.88646e-06
1.88651e-06
1.8845e-06
1.87827e-06
1.87827e-06
1.87827e-06
1.87827e-06
1.88664e-06
1.88524e-06
1.8868e-06
1.88618e-06
1.88417e-06
1.88614e-06
1.88634e-06
1.88603e-06
1.88638e-06
1.88523e-06
1.88683e-06
1.88708e-06
1.88587e-06
1.88348e-06
1.88646e-06
1.88681e-06
1.86364e-06
1.86367e-06
1.8633e-06
1.86084e-06
1.86075e-06
1.8605e-06
1.86099e-06
1.86432e-06
1.86397e-06
1.86336e-06
1.85937e-06
1.85608e-06
1.85608e-06
1.85608e-06
1.85608e-06
1.8623e-06
1.86198e-06
1.86083e-06
1.85608e-06
1.85608e-06
1.85608e-06
1.85608e-06
1.85608e-06
1.85608e-06
1.86394e-06
1.86488e-06
1.86366e-06
1.86075e-06
1.85608e-06
1.85608e-06
1.85608e-06
1.85608e-06
1.85608e-06
1.85608e-06
1.86414e-06
1.86368e-06
1.86366e-06
1.8605e-06
1.85608e-06
1.85608e-06
1.85608e-06
1.85608e-06
1.85608e-06
1.85608e-06
1.86383e-06
1.86127e-06
1.86099e-06
1.85608e-06
1.85608e-06
1.85608e-06
1.85608e-06
1.85608e-06
1.85608e-06
1.86417e-06
1.86426e-06
1.86431e-06
1.86231e-06
1.85608e-06
1.85608e-06
1.85608e-06
1.85608e-06
1.86445e-06
1.86304e-06
1.8646e-06
1.86399e-06
1.86198e-06
1.86394e-06
1.86415e-06
1.86384e-06
1.86419e-06
1.86304e-06
1.86463e-06
1.86488e-06
1.86367e-06
1.86128e-06
1.86426e-06
1.86462e-06
1.84145e-06
1.84148e-06
1.84115e-06
1.83865e-06
1.83856e-06
1.8383e-06
1.8388e-06
1.84212e-06
1.84178e-06
1.84116e-06
1.83717e-06
1.83388e-06
1.83388e-06
1.83388e-06
1.83388e-06
1.84011e-06
1.83978e-06
1.83864e-06
1.83388e-06
1.83388e-06
1.83388e-06
1.83388e-06
1.83388e-06
1.83388e-06
1.84175e-06
1.84268e-06
1.84149e-06
1.83856e-06
1.83388e-06
1.83388e-06
1.83388e-06
1.83388e-06
1.83388e-06
1.83388e-06
1.84195e-06
1.84148e-06
1.84147e-06
1.83831e-06
1.83388e-06
1.83388e-06
1.83388e-06
1.83388e-06
1.83388e-06
1.83388e-06
1.84164e-06
1.83908e-06
1.8388e-06
1.83388e-06
1.83388e-06
1.83388e-06
1.83388e-06
1.83388e-06
1.83388e-06
1.84197e-06
1.84207e-06
1.84212e-06
1.84011e-06
1.83388e-06
1.83388e-06
1.83388e-06
1.83388e-06
1.84226e-06
1.84085e-06
1.84241e-06
1.8418e-06
1.83979e-06
1.84175e-06
1.84195e-06
1.84164e-06
1.84199e-06
1.84084e-06
1.84244e-06
1.84269e-06
1.84148e-06
1.83909e-06
1.84207e-06
1.84243e-06
1.81925e-06
1.81929e-06
1.81895e-06
1.81645e-06
1.81637e-06
1.81611e-06
1.81661e-06
1.81993e-06
1.81959e-06
1.81897e-06
1.81498e-06
1.81169e-06
1.81169e-06
1.81169e-06
1.81169e-06
1.81791e-06
1.81759e-06
1.81645e-06
1.81169e-06
1.81169e-06
1.81169e-06
1.81169e-06
1.81169e-06
1.81169e-06
1.81955e-06
1.82049e-06
1.8193e-06
1.81637e-06
1.81169e-06
1.81169e-06
1.81169e-06
1.81169e-06
1.81169e-06
1.81169e-06
1.81975e-06
1.81929e-06
1.81928e-06
1.81611e-06
1.81169e-06
1.81169e-06
1.81169e-06
1.81169e-06
1.81169e-06
1.81169e-06
1.81944e-06
1.81689e-06
1.8166e-06
1.81169e-06
1.81169e-06
1.81169e-06
1.81169e-06
1.81169e-06
1.81169e-06
1.81978e-06
1.81988e-06
1.81993e-06
1.81792e-06
1.81169e-06
1.81169e-06
1.81169e-06
1.81169e-06
1.82006e-06
1.81866e-06
1.82022e-06
1.8196e-06
1.81759e-06
1.81956e-06
1.81976e-06
1.81945e-06
1.8198e-06
1.81865e-06
1.82025e-06
1.8205e-06
1.81929e-06
1.8169e-06
1.81988e-06
1.82023e-06
1.79706e-06
1.79709e-06
1.79676e-06
1.79425e-06
1.79417e-06
1.79392e-06
1.79441e-06
1.79773e-06
1.79739e-06
1.79677e-06
1.79278e-06
1.7895e-06
1.7895e-06
1.7895e-06
1.7895e-06
1.79572e-06
1.7954e-06
1.79425e-06
1.7895e-06
1.7895e-06
1.7895e-06
1.7895e-06
1.7895e-06
1.7895e-06
1.79736e-06
1.7983e-06
1.79711e-06
1.79417e-06
1.7895e-06
1.7895e-06
1.7895e-06
1.7895e-06
1.7895e-06
1.7895e-06
1.79756e-06
1.7971e-06
1.79709e-06
1.79392e-06
1.7895e-06
1.7895e-06
1.7895e-06
1.7895e-06
1.7895e-06
1.7895e-06
1.79725e-06
1.79469e-06
1.79441e-06
1.7895e-06
1.7895e-06
1.7895e-06
1.7895e-06
1.7895e-06
1.7895e-06
1.79759e-06
1.79768e-06
1.79773e-06
1.79573e-06
1.7895e-06
1.7895e-06
1.7895e-06
1.7895e-06
1.79787e-06
1.79646e-06
1.79802e-06
1.79741e-06
1.7954e-06
1.79736e-06
1.79757e-06
1.79726e-06
1.79761e-06
1.79646e-06
1.79805e-06
1.7983e-06
1.79709e-06
1.7947e-06
1.79768e-06
1.79804e-06
1.77486e-06
1.7749e-06
1.77457e-06
1.77206e-06
1.77198e-06
1.77172e-06
1.77222e-06
1.77554e-06
1.7752e-06
1.77459e-06
1.77059e-06
1.7673e-06
1.7673e-06
1.7673e-06
1.7673e-06
1.77353e-06
1.77321e-06
1.77206e-06
1.7673e-06
1.7673e-06
1.7673e-06
1.7673e-06
1.7673e-06
1.7673e-06
1.77517e-06
1.77611e-06
1.77491e-06
1.77198e-06
1.7673e-06
1.7673e-06
1.7673e-06
1.7673e-06
1.7673e-06
1.7673e-06
1.77537e-06
1.7749e-06
1.77489e-06
1.77173e-06
1.7673e-06
1.7673e-06
1.7673e-06
1.7673e-06
1.7673e-06
1.7673e-06
1.77506e-06
1.7725e-06
1.77222e-06
1.7673e-06
1.7673e-06
1.7673e-06
1.7673e-06
1.7673e-06
1.7673e-06
1.77539e-06
1.77549e-06
1.77554e-06
1.77353e-06
1.7673e-06
1.7673e-06
1.7673e-06
1.7673e-06
1.77568e-06
1.77427e-06
1.77583e-06
1.77522e-06
1.77321e-06
1.77517e-06
1.77538e-06
1.77506e-06
1.77541e-06
1.77426e-06
1.77586e-06
1.77611e-06
1.7749e-06
1.77251e-06
1.77549e-06
1.77585e-06
1.75267e-06
1.75271e-06
1.75237e-06
1.74986e-06
1.74977e-06
1.74954e-06
1.75002e-06
1.75335e-06
1.75302e-06
1.75239e-06
1.7484e-06
1.74511e-06
1.74511e-06
1.74511e-06
1.74511e-06
1.75134e-06
1.75101e-06
1.74987e-06
1.74511e-06
1.74511e-06
1.74511e-06
1.74511e-06
1.74511e-06
1.74511e-06
1.75298e-06
1.75391e-06
1.75272e-06
1.74979e-06
1.74511e-06
1.74511e-06
1.74511e-06
1.74511e-06
1.74511e-06
1.74511e-06
1.75318e-06
1.75271e-06
1.7527e-06
1.74953e-06
1.74511e-06
1.74511e-06
1.74511e-06
1.74511e-06
1.74511e-06
1.74511e-06
1.75287e-06
1.75031e-06
1.75003e-06
1.74511e-06
1.74511e-06
1.74511e-06
1.74511e-06
1.74511e-06
1.74511e-06
1.7532e-06
1.7533e-06
1.75335e-06
1.75134e-06
1.74511e-06
1.74511e-06
1.74511e-06
1.74511e-06
1.75349e-06
1.75208e-06
1.75364e-06
1.75302e-06
1.75102e-06
1.75298e-06
1.75318e-06
1.75287e-06
1.75322e-06
1.75207e-06
1.75367e-06
1.75392e-06
1.75271e-06
1.75032e-06
1.7533e-06
1.75365e-06
1.73048e-06
1.73052e-06
1.73018e-06
1.72767e-06
1.72758e-06
1.72734e-06
1.72783e-06
1.73116e-06
1.73082e-06
1.73019e-06
1.72621e-06
1.72292e-06
1.72292e-06
1.72292e-06
1.72292e-06
1.72915e-06
1.72882e-06
1.72767e-06
1.72292e-06
1.72292e-06
1.72292e-06
1.72292e-06
1.72292e-06
1.72292e-06
1.73078e-06
1.73172e-06
1.73053e-06
1.7276e-06
1.72292e-06
1.72292e-06
1.72292e-06
1.72292e-06
1.72292e-06
1.72292e-06
1.73098e-06
1.73052e-06
1.73051e-06
1.72734e-06
1.72292e-06
1.72292e-06
1.72292e-06
1.72292e-06
1.72292e-06
1.72292e-06
1.73067e-06
1.72812e-06
1.72783e-06
1.72292e-06
1.72292e-06
1.72292e-06
1.72292e-06
1.72292e-06
1.72292e-06
1.73101e-06
1.7311e-06
1.73115e-06
1.72915e-06
1.72292e-06
1.72292e-06
1.72292e-06
1.72292e-06
1.73129e-06
1.72989e-06
1.73144e-06
1.73083e-06
1.72882e-06
1.73078e-06
1.73099e-06
1.73068e-06
1.73103e-06
1.72988e-06
1.73147e-06
1.73172e-06
1.73052e-06
1.72812e-06
1.7311e-06
1.73146e-06
1.70829e-06
1.70832e-06
1.70799e-06
1.70548e-06
1.70539e-06
1.70515e-06
1.70564e-06
1.70897e-06
1.70862e-06
1.708e-06
1.70401e-06
1.70073e-06
1.70073e-06
1.70073e-06
1.70073e-06
1.70695e-06
1.70663e-06
1.70548e-06
1.70073e-06
1.70073e-06
1.70073e-06
1.70073e-06
1.70073e-06
1.70073e-06
1.70859e-06
1.70953e-06
1.70833e-06
1.7054e-06
1.70073e-06
1.70073e-06
1.70073e-06
1.70073e-06
1.70073e-06
1.70073e-06
1.70879e-06
1.70833e-06
1.70832e-06
1.70515e-06
1.70073e-06
1.70073e-06
1.70073e-06
1.70073e-06
1.70073e-06
1.70073e-06
1.70848e-06
1.70592e-06
1.70564e-06
1.70073e-06
1.70073e-06
1.70073e-06
1.70073e-06
1.70073e-06
1.70073e-06
1.70882e-06
1.70891e-06
1.70896e-06
1.70696e-06
1.70073e-06
1.70073e-06
1.70073e-06
1.70073e-06
1.7091e-06
1.70769e-06
1.70925e-06
1.70864e-06
1.70663e-06
1.70859e-06
1.7088e-06
1.70849e-06
1.70884e-06
1.70769e-06
1.70928e-06
1.70953e-06
1.70832e-06
1.70593e-06
1.70891e-06
1.70927e-06
1.6861e-06
1.68613e-06
1.6858e-06
1.68329e-06
1.6832e-06
1.68296e-06
1.68345e-06
1.68678e-06
1.68644e-06
1.68581e-06
1.68182e-06
1.67854e-06
1.67854e-06
1.67854e-06
1.67853e-06
1.68476e-06
1.68444e-06
1.68329e-06
1.67854e-06
1.67854e-06
1.67854e-06
1.67854e-06
1.67854e-06
1.67854e-06
1.6864e-06
1.68734e-06
1.68614e-06
1.68321e-06
1.67854e-06
1.67854e-06
1.67854e-06
1.67854e-06
1.67854e-06
1.67854e-06
1.6866e-06
1.68614e-06
1.68612e-06
1.68296e-06
1.67854e-06
1.67854e-06
1.67854e-06
1.67854e-06
1.67854e-06
1.67854e-06
1.68629e-06
1.68373e-06
1.68345e-06
1.67854e-06
1.67854e-06
1.67854e-06
1.67854e-06
1.67854e-06
1.67854e-06
1.68663e-06
1.68672e-06
1.68677e-06
1.68477e-06
1.67854e-06
1.67854e-06
1.67854e-06
1.67854e-06
1.68691e-06
1.6855e-06
1.68706e-06
1.68645e-06
1.68443e-06
1.6864e-06
1.68661e-06
1.6863e-06
1.68665e-06
1.6855e-06
1.68709e-06
1.68734e-06
1.68613e-06
1.68374e-06
1.68672e-06
1.68708e-06
1.66391e-06
1.66394e-06
1.66361e-06
1.6611e-06
1.66101e-06
1.66077e-06
1.66126e-06
1.66458e-06
1.66424e-06
1.66362e-06
1.65963e-06
1.65635e-06
1.65635e-06
1.65635e-06
1.65635e-06
1.66257e-06
1.66225e-06
1.6611e-06
1.65635e-06
1.65635e-06
1.65635e-06
1.65635e-06
1.65635e-06
1.65635e-06
1.66421e-06
1.66515e-06
1.66395e-06
1.66102e-06
1.65635e-06
1.65635e-06
1.65635e-06
1.65635e-06
1.65635e-06
1.65635e-06
1.66441e-06
1.66395e-06
1.66393e-06
1.66077e-06
1.65635e-06
1.65635e-06
1.65635e-06
1.65635e-06
1.65635e-06
1.65635e-06
1.6641e-06
1.66154e-06
1.66126e-06
1.65635e-06
1.65635e-06
1.65635e-06
1.65635e-06
1.65635e-06
1.65635e-06
1.66444e-06
1.66453e-06
1.66458e-06
1.66258e-06
1.65635e-06
1.65635e-06
1.65635e-06
1.65635e-06
1.66472e-06
1.66331e-06
1.66487e-06
1.66426e-06
1.66224e-06
1.66421e-06
1.66442e-06
1.6641e-06
1.66446e-06
1.66331e-06
1.6649e-06
1.66515e-06
1.66394e-06
1.66155e-06
1.66453e-06
1.66489e-06
1.64172e-06
1.64175e-06
1.64142e-06
1.63891e-06
1.63882e-06
1.63858e-06
1.63907e-06
1.64239e-06
1.64205e-06
1.64143e-06
1.63744e-06
1.63415e-06
1.63415e-06
1.63415e-06
1.63415e-06
1.64038e-06
1.64006e-06
1.63891e-06
1.63415e-06
1.63415e-06
1.63415e-06
1.63415e-06
1.63415e-06
1.63415e-06
1.64202e-06
1.64296e-06
1.64176e-06
1.63883e-06
1.63415e-06
1.63415e-06
1.63415e-06
1.63415e-06
1.63415e-06
1.63415e-06
1.64222e-06
1.64175e-06
1.64174e-06
1.63858e-06
1.63415e-06
1.63415e-06
1.63415e-06
1.63415e-06
1.63415e-06
1.63415e-06
1.64191e-06
1.63935e-06
1.63907e-06
1.63415e-06
1.63415e-06
1.63415e-06
1.63415e-06
1.63415e-06
1.63415e-06
1.64224e-06
1.64234e-06
1.64239e-06
1.64038e-06
1.63415e-06
1.63415e-06
1.63415e-06
1.63415e-06
1.64253e-06
1.64112e-06
1.64268e-06
1.64207e-06
1.64005e-06
1.64202e-06
1.64223e-06
1.64191e-06
1.64226e-06
1.64111e-06
1.64271e-06
1.64296e-06
1.64175e-06
1.63936e-06
1.64234e-06
1.6427e-06
1.61953e-06
1.61956e-06
1.61923e-06
1.61672e-06
1.61663e-06
1.61639e-06
1.61687e-06
1.6202e-06
1.61986e-06
1.61924e-06
1.61525e-06
1.61196e-06
1.61196e-06
1.61196e-06
1.61196e-06
1.61819e-06
1.61787e-06
1.61672e-06
1.61196e-06
1.61196e-06
1.61196e-06
1.61196e-06
1.61196e-06
1.61196e-06
1.61983e-06
1.62076e-06
1.61957e-06
1.61664e-06
1.61196e-06
1.61196e-06
1.61196e-06
1.61196e-06
1.61196e-06
1.61196e-06
1.62003e-06
1.61956e-06
1.61955e-06
1.61639e-06
1.61196e-06
1.61196e-06
1.61196e-06
1.61196e-06
1.61196e-06
1.61196e-06
1.61972e-06
1.61716e-06
1.61688e-06
1.61196e-06
1.61196e-06
1.61196e-06
1.61196e-06
1.61196e-06
1.61196e-06
1.62005e-06
1.62015e-06
1.6202e-06
1.61819e-06
1.61196e-06
1.61196e-06
1.61196e-06
1.61196e-06
1.62034e-06
1.61893e-06
1.62049e-06
1.61988e-06
1.61786e-06
1.61983e-06
1.62004e-06
1.61972e-06
1.62007e-06
1.61892e-06
1.62052e-06
1.62077e-06
1.61956e-06
1.61717e-06
1.62015e-06
1.62051e-06
1.59733e-06
1.59737e-06
1.59704e-06
1.59453e-06
1.59444e-06
1.5942e-06
1.59468e-06
1.59801e-06
1.59767e-06
1.59705e-06
1.59306e-06
1.58977e-06
1.58977e-06
1.58977e-06
1.58977e-06
1.596e-06
1.59568e-06
1.59453e-06
1.58977e-06
1.58977e-06
1.58977e-06
1.58977e-06
1.58977e-06
1.58977e-06
1.59764e-06
1.59857e-06
1.59736e-06
1.59445e-06
1.58977e-06
1.58977e-06
1.58977e-06
1.58977e-06
1.58977e-06
1.58977e-06
1.59784e-06
1.59737e-06
1.59736e-06
1.5942e-06
1.58977e-06
1.58977e-06
1.58977e-06
1.58977e-06
1.58977e-06
1.58977e-06
1.59753e-06
1.59497e-06
1.59469e-06
1.58977e-06
1.58977e-06
1.58977e-06
1.58977e-06
1.58977e-06
1.58977e-06
1.59786e-06
1.59796e-06
1.59801e-06
1.596e-06
1.58977e-06
1.58977e-06
1.58977e-06
1.58977e-06
1.59815e-06
1.59674e-06
1.5983e-06
1.59769e-06
1.59567e-06
1.59764e-06
1.59784e-06
1.59753e-06
1.59788e-06
1.59673e-06
1.59833e-06
1.59858e-06
1.59737e-06
1.59498e-06
1.59796e-06
1.59832e-06
1.57514e-06
1.57518e-06
1.57485e-06
1.57235e-06
1.57225e-06
1.57201e-06
1.5725e-06
1.57581e-06
1.57548e-06
1.57487e-06
1.57087e-06
1.56758e-06
1.56758e-06
1.56758e-06
1.56758e-06
1.57381e-06
1.57349e-06
1.57234e-06
1.56758e-06
1.56758e-06
1.56758e-06
1.56758e-06
1.56758e-06
1.56758e-06
1.57545e-06
1.57638e-06
1.57517e-06
1.57226e-06
1.56758e-06
1.56758e-06
1.56758e-06
1.56758e-06
1.56758e-06
1.56758e-06
1.57565e-06
1.57518e-06
1.57517e-06
1.572e-06
1.56758e-06
1.56758e-06
1.56758e-06
1.56758e-06
1.56758e-06
1.56758e-06
1.57534e-06
1.57278e-06
1.5725e-06
1.56758e-06
1.56758e-06
1.56758e-06
1.56758e-06
1.56758e-06
1.56758e-06
1.57567e-06
1.57577e-06
1.57582e-06
1.57381e-06
1.56758e-06
1.56758e-06
1.56758e-06
1.56758e-06
1.57596e-06
1.57455e-06
1.57611e-06
1.5755e-06
1.57348e-06
1.57545e-06
1.57565e-06
1.57534e-06
1.57569e-06
1.57454e-06
1.57614e-06
1.57639e-06
1.57518e-06
1.57279e-06
1.57577e-06
1.57613e-06
1.55295e-06
1.55299e-06
1.55266e-06
1.55016e-06
1.55006e-06
1.54981e-06
1.5503e-06
1.55362e-06
1.5533e-06
1.55267e-06
1.54868e-06
1.54539e-06
1.54539e-06
1.54539e-06
1.54539e-06
1.55162e-06
1.5513e-06
1.55015e-06
1.54539e-06
1.54539e-06
1.54539e-06
1.54539e-06
1.54539e-06
1.54539e-06
1.55326e-06
1.55419e-06
1.55298e-06
1.55007e-06
1.54539e-06
1.54539e-06
1.54539e-06
1.54539e-06
1.54539e-06
1.54539e-06
1.55346e-06
1.55299e-06
1.55298e-06
1.54981e-06
1.54539e-06
1.54539e-06
1.54539e-06
1.54539e-06
1.54539e-06
1.54539e-06
1.55315e-06
1.55059e-06
1.55031e-06
1.54539e-06
1.54539e-06
1.54539e-06
1.54539e-06
1.54539e-06
1.54539e-06
1.55348e-06
1.55358e-06
1.55363e-06
1.55162e-06
1.54539e-06
1.54539e-06
1.54539e-06
1.54539e-06
1.55377e-06
1.55236e-06
1.55392e-06
1.5533e-06
1.55129e-06
1.55325e-06
1.55346e-06
1.55315e-06
1.5535e-06
1.55235e-06
1.55395e-06
1.5542e-06
1.55299e-06
1.5506e-06
1.55358e-06
1.55393e-06
1.53076e-06
1.5308e-06
1.53047e-06
1.52796e-06
1.52786e-06
1.52762e-06
1.52811e-06
1.53142e-06
1.5311e-06
1.53048e-06
1.52649e-06
1.5232e-06
1.5232e-06
1.5232e-06
1.5232e-06
1.52943e-06
1.5291e-06
1.52796e-06
1.5232e-06
1.5232e-06
1.5232e-06
1.5232e-06
1.5232e-06
1.5232e-06
1.53107e-06
1.532e-06
1.53079e-06
1.52788e-06
1.5232e-06
1.5232e-06
1.5232e-06
1.5232e-06
1.5232e-06
1.5232e-06
1.53127e-06
1.5308e-06
1.53079e-06
1.52762e-06
1.5232e-06
1.5232e-06
1.5232e-06
1.5232e-06
1.5232e-06
1.5232e-06
1.53096e-06
1.5284e-06
1.52811e-06
1.5232e-06
1.5232e-06
1.5232e-06
1.5232e-06
1.5232e-06
1.5232e-06
1.53129e-06
1.53139e-06
1.53144e-06
1.52943e-06
1.5232e-06
1.5232e-06
1.5232e-06
1.5232e-06
1.53158e-06
1.53017e-06
1.53173e-06
1.53111e-06
1.52909e-06
1.53106e-06
1.53127e-06
1.53096e-06
1.53131e-06
1.53016e-06
1.53176e-06
1.532e-06
1.5308e-06
1.5284e-06
1.53139e-06
1.53174e-06
1.50857e-06
1.5086e-06
1.50828e-06
1.50578e-06
1.50569e-06
1.50543e-06
1.50592e-06
1.50924e-06
1.50891e-06
1.50829e-06
1.5043e-06
1.50101e-06
1.50101e-06
1.50101e-06
1.50101e-06
1.50724e-06
1.50691e-06
1.50576e-06
1.50101e-06
1.50101e-06
1.50101e-06
1.50101e-06
1.50101e-06
1.50101e-06
1.50887e-06
1.50981e-06
1.50859e-06
1.50569e-06
1.50101e-06
1.50101e-06
1.50101e-06
1.50101e-06
1.50101e-06
1.50101e-06
1.50907e-06
1.50861e-06
1.50859e-06
1.50543e-06
1.50101e-06
1.50101e-06
1.50101e-06
1.50101e-06
1.50101e-06
1.50101e-06
1.50876e-06
1.50621e-06
1.50592e-06
1.50101e-06
1.50101e-06
1.50101e-06
1.50101e-06
1.50101e-06
1.50101e-06
1.5091e-06
1.50919e-06
1.50925e-06
1.50724e-06
1.50101e-06
1.50101e-06
1.50101e-06
1.50101e-06
1.50938e-06
1.50798e-06
1.50953e-06
1.50892e-06
1.5069e-06
1.50887e-06
1.50908e-06
1.50876e-06
1.50912e-06
1.50797e-06
1.50956e-06
1.50981e-06
1.50861e-06
1.50621e-06
1.5092e-06
1.50955e-06
1.48638e-06
1.48642e-06
1.48609e-06
1.48358e-06
1.48348e-06
1.48324e-06
1.48373e-06
1.48705e-06
1.48671e-06
1.48609e-06
1.4821e-06
1.47882e-06
1.47882e-06
1.47882e-06
1.47882e-06
1.48505e-06
1.48472e-06
1.48357e-06
1.47882e-06
1.47882e-06
1.47882e-06
1.47882e-06
1.47882e-06
1.47882e-06
1.48668e-06
1.48762e-06
1.4864e-06
1.48349e-06
1.47882e-06
1.47882e-06
1.47882e-06
1.47882e-06
1.47882e-06
1.47882e-06
1.48688e-06
1.48642e-06
1.4864e-06
1.48324e-06
1.47882e-06
1.47882e-06
1.47882e-06
1.47882e-06
1.47882e-06
1.47882e-06
1.48657e-06
1.48401e-06
1.48373e-06
1.47882e-06
1.47882e-06
1.47882e-06
1.47882e-06
1.47882e-06
1.47882e-06
1.48691e-06
1.487e-06
1.48705e-06
1.48505e-06
1.47882e-06
1.47882e-06
1.47882e-06
1.47882e-06
1.48719e-06
1.48578e-06
1.48734e-06
1.48673e-06
1.48471e-06
1.48668e-06
1.48689e-06
1.48657e-06
1.48693e-06
1.48578e-06
1.48737e-06
1.48762e-06
1.48641e-06
1.48402e-06
1.487e-06
1.48736e-06
1.46419e-06
1.46422e-06
1.4639e-06
1.46139e-06
1.46129e-06
1.46105e-06
1.46154e-06
1.46486e-06
1.46452e-06
1.4639e-06
1.45991e-06
1.45662e-06
1.45662e-06
1.45662e-06
1.45662e-06
1.46286e-06
1.46253e-06
1.46138e-06
1.45662e-06
1.45662e-06
1.45662e-06
1.45662e-06
1.45662e-06
1.45662e-06
1.46449e-06
1.46543e-06
1.46421e-06
1.4613e-06
1.45662e-06
1.45662e-06
1.45662e-06
1.45662e-06
1.45662e-06
1.45662e-06
1.46469e-06
1.46422e-06
1.46421e-06
1.46105e-06
1.45662e-06
1.45662e-06
1.45662e-06
1.45662e-06
1.45662e-06
1.45662e-06
1.46438e-06
1.46182e-06
1.46154e-06
1.45662e-06
1.45662e-06
1.45662e-06
1.45662e-06
1.45662e-06
1.45662e-06
1.46472e-06
1.46481e-06
1.46486e-06
1.46285e-06
1.45662e-06
1.45662e-06
1.45662e-06
1.45662e-06
1.465e-06
1.46359e-06
1.46515e-06
1.46454e-06
1.46252e-06
1.46449e-06
1.46469e-06
1.46438e-06
1.46473e-06
1.46358e-06
1.46518e-06
1.46543e-06
1.46422e-06
1.46183e-06
1.46481e-06
1.46517e-06
1.44199e-06
1.44203e-06
1.44169e-06
1.4392e-06
1.4391e-06
1.43886e-06
1.43934e-06
1.44266e-06
1.44233e-06
1.4417e-06
1.43771e-06
1.43443e-06
1.43443e-06
1.43443e-06
1.43443e-06
1.44067e-06
1.44034e-06
1.43919e-06
1.43443e-06
1.43443e-06
1.43443e-06
1.43443e-06
1.43443e-06
1.43443e-06
1.4423e-06
1.44323e-06
1.44202e-06
1.43911e-06
1.43443e-06
1.43443e-06
1.43443e-06
1.43443e-06
1.43443e-06
1.43443e-06
1.4425e-06
1.44203e-06
1.44202e-06
1.43885e-06
1.43443e-06
1.43443e-06
1.43443e-06
1.43443e-06
1.43443e-06
1.43443e-06
1.44219e-06
1.43963e-06
1.43935e-06
1.43443e-06
1.43443e-06
1.43443e-06
1.43443e-06
1.43443e-06
1.43443e-06
1.44252e-06
1.44262e-06
1.44267e-06
1.44066e-06
1.43443e-06
1.43443e-06
1.43443e-06
1.43443e-06
1.44281e-06
1.4414e-06
1.44296e-06
1.44234e-06