/*--------------------------------*- C++ -*----------------------------------*\
| =========                 |                                                 |
| \\      /  F ield         | OpenFOAM: The Open Source CFD Toolbox           |
|  \\    /   O peration     | Version:  v2012                                 |
|   \\  /    A nd           | Website:  www.openfoam.com                      |
|    \\/     M anipulation  |                                                 |
\*---------------------------------------------------------------------------*/
FoamFile
{
    version     2.0;
    format      ascii;
    class       volScalarField;
    location    "550";
    object      p;
}
// * * * * * * * * * * * * * * * * * * * * * * * * * * * * * * * * * * * * * //

dimensions      [0 2 -2 0 0 0 0];


internalField   nonuniform List<scalar> 
171728
(
0.00351916
0.0035181
0.00351824
0.00351913
0.00348349
0.00348208
0.00348208
0.00348505
0.00344504
0.00344309
0.00344316
0.00344544
0.00340092
0.00339923
0.0033992
0.00340147
0.00335278
0.0033513
0.00335135
0.00335367
0.00330389
0.00330253
0.00330244
0.00330492
0.0032557
0.00325449
0.00325451
0.00325685
0.00320841
0.00320736
0.00320732
0.00320973
0.00316207
0.00316116
0.00316104
0.00316353
0.00311668
0.00311588
0.00311585
0.00311824
0.00307224
0.00307155
0.00307154
0.00307394
0.00302857
0.00302801
0.003028
0.00303042
0.00298545
0.002985
0.00298504
0.00298718
0.00294276
0.00294239
0.00294242
0.0029449
0.00290036
0.00289996
0.00290011
0.00290223
0.00285832
0.002858
0.00285804
0.0028604
0.00281661
0.00281638
0.0028163
0.0028186
0.00277528
0.00277518
0.00277503
0.00277734
0.00273432
0.00273435
0.00273409
0.00273625
0.00269364
0.00269351
0.00269352
0.00269553
0.00265333
0.00265346
0.00265338
0.00265518
0.00261336
0.00261336
0.0026134
0.00261509
0.00257364
0.00257378
0.00257373
0.0025754
0.00253407
0.00253443
0.00253438
0.00253588
0.00249504
0.00249519
0.00249527
0.00249702
0.00245591
0.00245635
0.00245621
0.0024578
0.00241729
0.00241768
0.00241771
0.00242031
0.00237871
0.00237902
0.00237899
0.00238034
0.00234026
0.00234077
0.00234077
0.00234207
0.00230236
0.00230275
0.00230293
0.00230517
0.00226448
0.00226545
0.00226535
0.00226773
0.00222658
0.00222687
0.00222697
0.00222852
0.00218861
0.00218882
0.00218906
0.00219102
0.00215156
0.00215269
0.00215235
0.0021542
0.00211417
0.00211472
0.00211469
0.00211664
0.00207652
0.00207659
0.00207712
0.00207887
0.0020394
0.00203995
0.00203986
0.00204184
0.00200259
0.00200327
0.00200305
0.00200501
0.00196586
0.00196603
0.00196623
0.00196804
0.00192871
0.00192901
0.00192899
0.00193105
0.00189224
0.00189273
0.00189262
0.00189474
0.00185608
0.00185607
0.00185625
0.00185799
0.00181959
0.00181964
0.00181939
0.00182156
0.00178297
0.00178319
0.0017833
0.00178519
0.00174727
0.00174757
0.00174751
0.00174994
0.00171184
0.00171103
0.00171134
0.00171297
0.00167507
0.00167544
0.00167467
0.00167706
0.00163928
0.00163944
0.00163979
0.00164206
0.00160491
0.00160454
0.00160485
0.00160645
0.00156925
0.00156851
0.00156824
0.00157049
0.00153294
0.00153275
0.00153285
0.00153492
0.00149751
0.00149777
0.00149783
0.00149976
0.00146243
0.00146267
0.00146222
0.00146451
0.00142823
0.00142721
0.00142753
0.0014293
0.00139296
0.0013923
0.00139256
0.00139444
0.00135744
0.00135749
0.00135743
0.00135954
0.00132273
0.0013225
0.00132237
0.00132437
0.0012877
0.00128759
0.00128735
0.00128932
0.00125299
0.00125269
0.00125291
0.00125484
0.00121832
0.00121783
0.00121809
0.00121989
0.00118354
0.0011836
0.00118318
0.00118522
0.00114924
0.00114897
0.00114901
0.00115102
0.00111455
0.00111416
0.00111434
0.0011161
0.00107989
0.00107963
0.00107964
0.00108154
0.00104555
0.0010455
0.00104541
0.0010474
0.00101087
0.0010107
0.00101069
0.00101258
0.000976448
0.000976159
0.000976068
0.000977992
0.000941881
0.000941705
0.000942012
0.000943832
0.000907572
0.000907475
0.000907342
0.0009093
0.000872869
0.000872705
0.000872549
0.000874505
0.00083849
0.0008382
0.000838421
0.000840246
0.000803857
0.000803871
0.000803851
0.000805869
0.000769289
0.000769222
0.000769152
0.000771075
0.000734933
0.000734765
0.000734637
0.000736583
0.000700286
0.000700165
0.000700236
0.000702208
0.000665585
0.000665289
0.000665549
0.000667398
0.000630819
0.000630983
0.000630817
0.00063278
0.000596445
0.000596592
0.000596212
0.000598327
0.000561616
0.000561164
0.000561445
0.000563282
0.000526711
0.000526666
0.000526948
0.000528789
0.000491975
0.000491925
0.00049182
0.000493816
0.000456933
0.000457023
0.00045657
0.000458779
0.000422195
0.000422178
0.000422253
0.00042418
0.00038713
0.000386847
0.00038735
0.000389092
0.000351456
0.000351327
0.000351136
0.000353174
0.000317347
0.000317608
0.000317097
0.000319183
0.000281764
0.000281501
0.000282211
0.000283967
0.000244959
0.000245081
0.000244844
0.000247029
0.000210797
0.000210936
0.000210506
0.000212563
0.000176926
0.00017632
0.000176863
0.000178558
0.000139516
0.000139213
0.000139614
0.000141591
0.000102621
0.000103441
0.000102693
0.000105118
6.86494e-05
6.88879e-05
6.85487e-05
7.06065e-05
3.47012e-05
3.32087e-05
3.43053e-05
3.54263e-05
6.12124e-06
6.85747e-06
7.2341e-06
5.05425e-06
0.00352358
0.00352113
0.00352111
0.00352354
0.00352117
0.00352133
0.00352754
0.00352752
0.00352766
0.00352756
0.00352109
0.00352135
0.00352382
0.00352141
0.00352154
0.00352378
0.00351885
0.00348968
0.00351802
0.00351809
0.00349151
0.00349152
0.00351879
0.00348974
0.00351808
0.00351813
0.00349148
0.00349148
0.00351826
0.00349154
0.00349142
0.00351882
0.00348962
0.00351853
0.00349141
0.00349188
0.00349008
0.00348494
0.00345102
0.00348212
0.00348211
0.00345322
0.00345328
0.00348497
0.00345099
0.00348212
0.00348222
0.00345325
0.00345319
0.00348208
0.00345329
0.00345314
0.00348489
0.00345095
0.00348182
0.00345324
0.00345325
0.00345089
0.00344549
0.00340768
0.00344316
0.00344313
0.00341074
0.00341072
0.00344545
0.00340765
0.0034432
0.00344317
0.00341075
0.00341069
0.00344305
0.00341073
0.0034107
0.00344544
0.00340766
0.00344295
0.00341073
0.00341089
0.00340767
0.00340149
0.00336014
0.00339921
0.00339923
0.00336352
0.00336352
0.00340147
0.00336012
0.00339924
0.00339925
0.00336353
0.00336349
0.00339928
0.00336352
0.00336353
0.00340149
0.00336012
0.00339903
0.00336357
0.00336359
0.00336016
0.00335366
0.00331139
0.00335131
0.00335131
0.00331474
0.00331475
0.00335365
0.00331137
0.00335132
0.00335133
0.00331476
0.00331476
0.00335133
0.00331476
0.00331471
0.00335366
0.0033114
0.00335101
0.00331472
0.00331481
0.00331136
0.00330494
0.00326316
0.00330258
0.00330255
0.00326643
0.00326643
0.00330491
0.00326316
0.00330258
0.00330257
0.00326641
0.00326645
0.00330261
0.0032664
0.00326643
0.00330495
0.00326316
0.00330247
0.00326618
0.00326638
0.00326316
0.00325686
0.00321589
0.0032545
0.00325449
0.00321904
0.00321904
0.00325684
0.00321587
0.00325451
0.00325449
0.00321904
0.00321908
0.00325447
0.00321904
0.00321906
0.00325684
0.00321592
0.00325444
0.00321879
0.00321899
0.00321592
0.00320971
0.00316956
0.00320733
0.00320736
0.00317261
0.00317261
0.0032097
0.00316954
0.00320736
0.00320738
0.0031726
0.00317262
0.00320735
0.0031726
0.00317263
0.00320973
0.00316963
0.00320739
0.00317261
0.0031727
0.0031696
0.00316351
0.00312413
0.00316114
0.00316113
0.00312709
0.0031271
0.0031635
0.00312415
0.00316117
0.00316119
0.00312708
0.00312704
0.00316114
0.00312709
0.00312707
0.00316355
0.00312409
0.00316111
0.00312715
0.00312717
0.00312417
0.00311822
0.00307965
0.00311586
0.00311586
0.00308252
0.00308252
0.00311824
0.00307968
0.00311589
0.00311588
0.00308253
0.00308255
0.00311583
0.00308252
0.0030825
0.00311824
0.00307975
0.00311578
0.00308259
0.00308262
0.00307973
0.00307389
0.00303599
0.00307154
0.00307155
0.00303878
0.00303876
0.00307392
0.00303601
0.00307155
0.00307159
0.00303878
0.00303876
0.00307151
0.00303878
0.00303876
0.00307398
0.003036
0.00307151
0.00303883
0.00303879
0.00303607
0.00303031
0.00299289
0.00302799
0.00302802
0.00299568
0.00299563
0.00303036
0.00299291
0.00302797
0.00302797
0.00299569
0.00299581
0.00302802
0.00299562
0.00299555
0.00303033
0.00299297
0.00302804
0.00299577
0.00299558
0.00299274
0.00298727
0.00295026
0.00298492
0.002985
0.00295306
0.00295294
0.00298733
0.00295019
0.00298492
0.00298502
0.00295307
0.00295296
0.00298494
0.00295293
0.00295308
0.00298736
0.00295019
0.00298497
0.00295301
0.00295306
0.00295046
0.0029447
0.00290785
0.00294237
0.00294239
0.00291056
0.00291066
0.0029447
0.00290784
0.00294236
0.00294239
0.00291055
0.00291065
0.00294255
0.00291066
0.00291046
0.00294468
0.00290794
0.00294257
0.00291057
0.00291041
0.00290767
0.0029024
0.00286584
0.00290008
0.0029
0.00286855
0.00286865
0.00290232
0.00286575
0.00290009
0.0029002
0.00286855
0.00286863
0.00289988
0.0028686
0.00286857
0.00290246
0.00286577
0.00289985
0.00286864
0.00286858
0.00286584
0.00286041
0.00282407
0.00285811
0.00285799
0.00282677
0.002827
0.0028603
0.00282397
0.00285812
0.00285802
0.00282676
0.00282685
0.00285808
0.00282695
0.00282672
0.00286031
0.00282398
0.00285807
0.00282678
0.00282667
0.00282399
0.00281872
0.00278269
0.00281648
0.00281629
0.00278539
0.00278564
0.00281856
0.00278259
0.00281649
0.00281632
0.00278538
0.00278541
0.00281633
0.00278562
0.00278537
0.00281857
0.00278252
0.00281633
0.00278537
0.00278539
0.00278263
0.00277742
0.00274164
0.00277522
0.00277503
0.0027444
0.00274443
0.00277726
0.0027417
0.00277524
0.00277503
0.0027444
0.0027444
0.00277518
0.00274439
0.00274429
0.00277719
0.00274148
0.00277523
0.00274433
0.00274432
0.00274148
0.00273642
0.00270086
0.0027343
0.00273418
0.00270377
0.00270386
0.00273649
0.00270057
0.00273428
0.00273411
0.00270375
0.00270376
0.00273416
0.00270378
0.00270376
0.00273623
0.0027008
0.00273412
0.00270374
0.0027037
0.00270075
0.00269565
0.00266035
0.00269361
0.00269339
0.00266345
0.00266353
0.00269539
0.00266034
0.00269363
0.00269356
0.00266337
0.00266346
0.00269355
0.00266336
0.00266346
0.00269559
0.00266033
0.00269352
0.00266345
0.00266338
0.00266026
0.00265515
0.00262025
0.00265335
0.00265344
0.00262339
0.00262344
0.00265513
0.00262013
0.00265337
0.00265345
0.00262332
0.00262328
0.00265337
0.00262338
0.00262333
0.00265523
0.00262024
0.00265333
0.00262334
0.00262328
0.00262021
0.00261514
0.00258048
0.00261348
0.00261346
0.00258359
0.00258369
0.00261508
0.00258043
0.00261343
0.00261338
0.00258365
0.00258376
0.0026134
0.0025837
0.00258379
0.00261506
0.00258036
0.00261338
0.0025837
0.00258376
0.00258039
0.00257547
0.00254095
0.00257373
0.00257382
0.0025442
0.0025442
0.00257544
0.00254082
0.00257374
0.00257381
0.00254418
0.00254401
0.00257384
0.00254415
0.00254405
0.00257536
0.00254091
0.00257388
0.00254401
0.00254403
0.00254088
0.00253599
0.00250172
0.0025343
0.00253448
0.00250493
0.00250488
0.00253594
0.00250183
0.00253435
0.00253435
0.00250497
0.00250508
0.00253436
0.00250497
0.00250504
0.00253592
0.00250206
0.0025344
0.00250511
0.00250503
0.00250205
0.00249674
0.00246311
0.00249513
0.00249505
0.00246613
0.00246614
0.00249672
0.00246282
0.00249521
0.00249526
0.00246607
0.00246603
0.00249519
0.00246604
0.00246608
0.00249706
0.0024628
0.00249519
0.00246595
0.00246601
0.00246282
0.00245815
0.0024243
0.00245641
0.00245651
0.00242732
0.00242727
0.00245802
0.00242457
0.00245631
0.00245628
0.00242729
0.00242731
0.00245629
0.00242731
0.00242747
0.00245779
0.00242431
0.00245626
0.00242734
0.00242747
0.00242506
0.00241941
0.00238585
0.00241765
0.00241765
0.00238868
0.00238869
0.0024196
0.00238574
0.00241768
0.00241769
0.00238869
0.00238866
0.0024178
0.00238865
0.00238855
0.00241951
0.00238584
0.00241779
0.00238864
0.00238857
0.00238554
0.00238089
0.00234757
0.00237908
0.00237906
0.00235032
0.00235034
0.00238082
0.00234757
0.00237908
0.00237903
0.00235035
0.00235035
0.00237889
0.00235032
0.0023502
0.00238079
0.00234751
0.00237888
0.00235029
0.00235012
0.00234655
0.00234269
0.00230962
0.00234076
0.00234079
0.00231234
0.00231224
0.00234265
0.00230945
0.00234078
0.00234081
0.00231232
0.00231229
0.00234076
0.00231224
0.00231228
0.00234267
0.00230965
0.00234062
0.00231232
0.00231226
0.00231004
0.00230472
0.00227186
0.00230289
0.00230272
0.00227444
0.00227466
0.00230455
0.00227207
0.00230284
0.00230284
0.00227442
0.00227462
0.00230307
0.00227469
0.00227477
0.00230474
0.00227206
0.0023031
0.00227475
0.00227519
0.00227266
0.00226693
0.00223395
0.002265
0.00226541
0.00223676
0.00223668
0.00226734
0.0022341
0.00226499
0.0022652
0.00223678
0.00223666
0.00226518
0.00223665
0.00223637
0.0022672
0.00223399
0.00226559
0.00223666
0.00223622
0.0022336
0.00222906
0.00219606
0.00222725
0.00222694
0.00219859
0.00219816
0.00222898
0.00219552
0.00222727
0.00222712
0.00219866
0.00219857
0.00222682
0.00219796
0.00219857
0.00222899
0.00219583
0.00222645
0.00219834
0.00219809
0.00219578
0.00219111
0.00215872
0.00218913
0.00218895
0.00216134
0.00216177
0.00219072
0.00215952
0.00218922
0.00218918
0.00216134
0.00216139
0.00218916
0.00216189
0.0021613
0.00219098
0.00215889
0.00218902
0.00216163
0.00216177
0.00215904
0.00215393
0.00212162
0.00215218
0.00215251
0.00212432
0.00212427
0.00215472
0.0021215
0.00215212
0.00215213
0.0021242
0.00212417
0.00215212
0.00212434
0.00212444
0.00215405
0.00212152
0.00215245
0.00212407
0.00212409
0.00212158
0.00211669
0.00208389
0.00211488
0.00211477
0.00208645
0.00208622
0.00211656
0.00208372
0.0021148
0.00211478
0.00208653
0.00208654
0.00211501
0.00208602
0.00208633
0.0021166
0.0020839
0.00211463
0.00208653
0.00208636
0.00208381
0.00207895
0.00204658
0.00207701
0.0020768
0.00204905
0.00204906
0.00207879
0.00204676
0.00207712
0.00207714
0.00204909
0.0020491
0.00207684
0.00204904
0.00204902
0.00207897
0.00204664
0.00207698
0.00204912
0.00204911
0.00204668
0.00204172
0.00200984
0.00203985
0.00203989
0.0020123
0.00201245
0.00204194
0.0020099
0.00203985
0.00203984
0.00201226
0.00201224
0.00203989
0.00201256
0.00201237
0.00204176
0.00200978
0.00203992
0.00201221
0.00201232
0.00200985
0.00200502
0.00197292
0.00200312
0.00200321
0.00197545
0.00197535
0.00200499
0.00197279
0.00200309
0.00200308
0.00197545
0.00197545
0.00200318
0.00197532
0.0019755
0.00200497
0.00197299
0.00200311
0.0019755
0.00197541
0.00197295
0.00196802
0.00193599
0.00196616
0.00196604
0.0019383
0.00193824
0.00196791
0.00193595
0.00196616
0.00196619
0.00193831
0.00193833
0.00196617
0.00193818
0.00193816
0.00196811
0.00193589
0.00196611
0.00193828
0.00193822
0.00193587
0.00193112
0.00189932
0.00192908
0.00192907
0.00190161
0.00190179
0.00193114
0.00189949
0.00192909
0.00192904
0.00190161
0.00190157
0.00192897
0.00190182
0.00190177
0.00193099
0.00189939
0.00192902
0.00190159
0.0019018
0.00189957
0.00189452
0.00186303
0.00189251
0.00189269
0.00186534
0.00186518
0.00189464
0.00186287
0.0018925
0.00189258
0.00186535
0.00186547
0.00189274
0.0018652
0.0018653
0.00189463
0.00186308
0.00189276
0.00186547
0.00186527
0.00186283
0.00185819
0.00182648
0.00185625
0.00185605
0.00182879
0.00182882
0.00185807
0.00182653
0.00185627
0.00185627
0.00182877
0.00182851
0.0018561
0.00182881
0.00182869
0.00185818
0.00182623
0.00185608
0.00182854
0.00182876
0.00182642
0.00182163
0.00178998
0.00181961
0.00181965
0.0017921
0.00179217
0.00182164
0.00179009
0.00181959
0.00181937
0.00179214
0.00179236
0.00181957
0.00179215
0.00179207
0.00182143
0.00179028
0.0018196
0.0017923
0.00179196
0.00178998
0.00178518
0.00175431
0.00178303
0.00178322
0.00175641
0.00175656
0.00178535
0.0017543
0.00178307
0.00178341
0.00175637
0.00175636
0.001783
0.00175659
0.00175655
0.00178548
0.0017542
0.00178295
0.00175641
0.00175679
0.0017546
0.00174957
0.00171818
0.00174759
0.00174748
0.00172051
0.00172003
0.00174944
0.0017179
0.00174753
0.00174732
0.00172054
0.00172038
0.00174785
0.00172009
0.00172039
0.0017494
0.00171822
0.00174809
0.00172053
0.00172017
0.00171787
0.00171332
0.00168196
0.00171132
0.00171105
0.00168395
0.00168443
0.00171315
0.00168233
0.00171139
0.00171144
0.00168398
0.00168403
0.00171104
0.00168434
0.0016838
0.0017134
0.0016818
0.00171072
0.00168379
0.0016836
0.00168176
0.00167719
0.00164651
0.00167502
0.00167551
0.00164854
0.0016484
0.00167752
0.00164635
0.00167499
0.00167488
0.00164844
0.00164828
0.00167496
0.00164841
0.00164862
0.00167696
0.00164643
0.00167492
0.00164834
0.00164896
0.00164677
0.00164178
0.00161087
0.00163971
0.0016394
0.00161304
0.0016131
0.00164157
0.00161105
0.00163964
0.00163965
0.00161313
0.00161358
0.00163981
0.00161323
0.00161341
0.00164183
0.00161151
0.00164019
0.00161381
0.0016134
0.00161126
0.00160617
0.00157565
0.00160412
0.00160441
0.00157769
0.00157763
0.00160639
0.00157549
0.00160424
0.00160468
0.00157771
0.00157739
0.00160457
0.00157761
0.00157747
0.00160666
0.00157523
0.00160436
0.00157726
0.00157719
0.00157526
0.00157089
0.00153998
0.00156889
0.0015686
0.00154209
0.0015417
0.00157067
0.00153972
0.00156887
0.00156841
0.00154202
0.0015418
0.00156854
0.00154158
0.00154179
0.00157045
0.00153975
0.00156832
0.00154165
0.00154173
0.00153972
0.00153515
0.00150408
0.00153307
0.00153284
0.00150608
0.00150645
0.00153497
0.00150442
0.00153302
0.001533
0.00150619
0.00150658
0.00153285
0.00150651
0.00150624
0.001535
0.00150456
0.00153287
0.00150658
0.00150649
0.00150443
0.00149934
0.00146909
0.00149716
0.00149765
0.00147108
0.00147132
0.00149967
0.00146924
0.00149726
0.00149769
0.00147099
0.00147078
0.0014975
0.00147146
0.00147135
0.00149982
0.00146893
0.00149776
0.00147115
0.00147139
0.00146927
0.00146442
0.00143431
0.00146251
0.0014626
0.00143652
0.00143619
0.00146454
0.0014341
0.00146236
0.00146201
0.00143649
0.00143633
0.00146257
0.00143603
0.00143618
0.00146421
0.00143422
0.00146248
0.00143612
0.00143598
0.00143399
0.00142961
0.00139912
0.00142771
0.00142738
0.00140111
0.00140101
0.00142938
0.00139898
0.00142775
0.00142776
0.00140126
0.00140141
0.00142741
0.001401
0.00140111
0.00142956
0.00139921
0.00142732
0.00140137
0.00140128
0.00139915
0.00139436
0.00136407
0.00139228
0.00139225
0.00136605
0.00136609
0.00139426
0.00136414
0.00139242
0.00139251
0.0013661
0.00136607
0.00139237
0.00136621
0.00136627
0.00139449
0.00136416
0.00139255
0.00136619
0.00136631
0.00136425
0.0013594
0.00132924
0.0013574
0.00135741
0.00133139
0.0013313
0.00135945
0.00132923
0.0013574
0.00135736
0.00133132
0.00133118
0.00135758
0.00133127
0.00133125
0.00135944
0.00132909
0.00135757
0.00133114
0.00133117
0.00132913
0.00132447
0.00129398
0.00132257
0.00132253
0.00129603
0.00129632
0.00132449
0.00129418
0.0013225
0.0013224
0.00129598
0.00129605
0.00132242
0.0012963
0.00129604
0.00132436
0.00129398
0.00132235
0.00129606
0.00129601
0.001294
0.00128929
0.00125947
0.00128734
0.00128761
0.00126156
0.00126144
0.00128946
0.00125938
0.00128727
0.00128733
0.00126148
0.00126148
0.00128736
0.00126144
0.00126162
0.00128927
0.00125945
0.00128732
0.0012615
0.00126154
0.00125951
0.0012548
0.00122464
0.00125293
0.00125269
0.00122663
0.00122648
0.00125469
0.00122447
0.0012529
0.00125288
0.00122684
0.00122693
0.00125296
0.00122649
0.00122662
0.0012548
0.00122483
0.00125294
0.00122691
0.0012268
0.00122462
0.00121991
0.00118985
0.00121784
0.00121782
0.00119188
0.00119215
0.00121976
0.00119007
0.00121807
0.00121815
0.00119184
0.00119185
0.00121782
0.00119215
0.00119191
0.00122009
0.00118976
0.00121801
0.00119184
0.00119186
0.00118986
0.00118521
0.0011557
0.00118338
0.0011836
0.00115785
0.00115767
0.00118543
0.00115563
0.00118323
0.00118318
0.00115767
0.00115751
0.00118341
0.00115767
0.0011578
0.00118506
0.0011555
0.00118327
0.00115754
0.00115765
0.00115568
0.00115103
0.00112078
0.00114918
0.00114897
0.00112281
0.00112284
0.00115096
0.00112076
0.00114908
0.00114898
0.00112291
0.00112308
0.00114915
0.00112285
0.00112287
0.00115088
0.00112099
0.00114907
0.0011231
0.00112296
0.00112083
0.00111606
0.00108627
0.00111407
0.00111414
0.00108825
0.00108822
0.00111602
0.00108614
0.00111418
0.00111433
0.00108834
0.00108826
0.00111412
0.00108821
0.0010882
0.00111625
0.00108622
0.00111423
0.00108824
0.00108827
0.00108619
0.00108164
0.00105203
0.00107975
0.00107965
0.00105411
0.00105406
0.0010815
0.0010521
0.00107981
0.00107968
0.00105401
0.00105401
0.00107966
0.00105404
0.00105407
0.00108157
0.00105197
0.0010797
0.00105397
0.001054
0.00105205
0.00104733
0.00101726
0.00104544
0.0010455
0.00101931
0.00101943
0.00104748
0.00101733
0.00104529
0.00104542
0.00101928
0.00101934
0.0010455
0.00101946
0.0010194
0.00104731
0.00101729
0.0010454
0.00101942
0.0010194
0.00101732
0.00101255
0.000982738
0.00101064
0.0010107
0.000984801
0.000984749
0.00101259
0.000982706
0.00101067
0.00101062
0.000984823
0.000984683
0.00101066
0.00098475
0.000984703
0.00101257
0.000982641
0.00101071
0.000984655
0.000984695
0.000982653
0.000978065
0.000948413
0.000976184
0.000976141
0.000950341
0.000950266
0.000978035
0.000948295
0.000976198
0.000976118
0.000950449
0.000950576
0.000976125
0.000950307
0.000950444
0.000977975
0.000948589
0.000976087
0.000950527
0.00095047
0.000948476
0.000943755
0.000914005
0.00094176
0.000941671
0.000916055
0.000916052
0.000943625
0.000914071
0.000941882
0.000942032
0.000916
0.000916004
0.00094187
0.000916037
0.000916048
0.000943969
0.000913955
0.000941943
0.000916086
0.000916077
0.000914021
0.000909289
0.000879289
0.000907434
0.000907503
0.000881374
0.000881459
0.000909417
0.000879345
0.000907294
0.000907271
0.00088127
0.000881202
0.000907396
0.00088144
0.000881329
0.000909204
0.000879164
0.000907345
0.000881176
0.000881223
0.000879218
0.000874593
0.00084496
0.000872701
0.000872729
0.00084689
0.000846782
0.000874598
0.000844787
0.000872674
0.000872604
0.000847019
0.000846992
0.000872633
0.000846756
0.000846789
0.000874481
0.00084503
0.000872583
0.00084694
0.000846887
0.000844879
0.000840288
0.0008104
0.000838311
0.00083821
0.000812411
0.000812437
0.000840135
0.000810498
0.000838427
0.000838438
0.000812409
0.000812461
0.000838262
0.000812513
0.00081261
0.000840393
0.000810467
0.000838367
0.000812561
0.000812618
0.000810604
0.000805679
0.000775853
0.000803746
0.000803801
0.000777845
0.000777889
0.000805788
0.000775891
0.00080372
0.000803775
0.000777798
0.000777836
0.00080395
0.000777864
0.000777853
0.00080573
0.000775793
0.00080392
0.000777791
0.000777793
0.000775792
0.000771172
0.000741401
0.000769252
0.000769286
0.000743447
0.000743458
0.000771195
0.00074138
0.000769206
0.000769219
0.000743399
0.000743335
0.000769177
0.000743395
0.000743241
0.000771095
0.000741311
0.000769126
0.000743275
0.000743199
0.000741262
0.000736684
0.000706789
0.00073477
0.000734791
0.000708765
0.000708778
0.000736675
0.000706802
0.000734753
0.000734671
0.000708838
0.000708779
0.000734631
0.000708833
0.000708867
0.00073661
0.00070685
0.000734606
0.000708832
0.000708932
0.000706906
0.000702076
0.000672148
0.000700128
0.000700112
0.000674161
0.000674016
0.000702081
0.000672042
0.000700206
0.000700177
0.000674176
0.000674258
0.000700261
0.000674015
0.000674209
0.000702158
0.000672211
0.000700341
0.000674272
0.000674245
0.000672164
0.000667401
0.00063748
0.000665451
0.000665304
0.000639429
0.000639454
0.000667284
0.000637526
0.000665449
0.000665556
0.000639401
0.00063948
0.000665449
0.000639447
0.000639405
0.000667457
0.000637492
0.000665461
0.000639461
0.000639367
0.000637455
0.000632796
0.000603097
0.000630834
0.00063098
0.000605099
0.000605366
0.000632896
0.00060335
0.000630795
0.000630835
0.000605032
0.000604912
0.00063083
0.000605371
0.000605094
0.000632791
0.000602942
0.000630771
0.000604897
0.000605005
0.000603074
0.000598365
0.000568054
0.000596442
0.000596605
0.000570102
0.000569935
0.000598543
0.000567872
0.000596393
0.000596229
0.00057016
0.000570107
0.000596409
0.000569918
0.000570052
0.000598202
0.000568099
0.000596344
0.000570099
0.000570123
0.00056803
0.000563286
0.000533374
0.000561344
0.000561171
0.000535301
0.000535241
0.000563116
0.000533297
0.000561418
0.000561439
0.000535362
0.000535548
0.000561325
0.000535276
0.000535439
0.000563372
0.000533576
0.000561417
0.000535601
0.000535527
0.000533499
0.000528662
0.000498695
0.000526646
0.000526625
0.000500668
0.000500661
0.000528593
0.000498697
0.000526711
0.000526901
0.00050068
0.000500695
0.000526796
0.000500648
0.000500617
0.000528857
0.000498649
0.000526869
0.000500659
0.000500599
0.000498614
0.000493929
0.000463624
0.000491982
0.000491963
0.000465717
0.000465771
0.000493936
0.000463763
0.000491945
0.000491868
0.000465571
0.000465357
0.000491842
0.00046574
0.000465578
0.00049383
0.000463345
0.000491792
0.000465326
0.000465441
0.000463535
0.000458821
0.000428755
0.000456912
0.000457033
0.000430723
0.000430837
0.000459002
0.000428796
0.000456766
0.000456579
0.000430722
0.000430772
0.000456867
0.000430874
0.000430852
0.000458569
0.000428839
0.000456726
0.000430786
0.000430838
0.00042887
0.000424061
0.00039391
0.000422081
0.000422146
0.000395893
0.0003958
0.000424057
0.000393757
0.000422134
0.000422235
0.000396036
0.000396275
0.000422218
0.000395811
0.000396
0.00042417
0.00039419
0.000422258
0.000396314
0.00039618
0.000393982
0.000389042
0.000358191
0.000386995
0.000386846
0.000360184
0.000360008
0.000388875
0.000358053
0.00038712
0.000387326
0.000360195
0.000360159
0.000387055
0.000359959
0.000360021
0.000389292
0.000358097
0.000387213
0.00036011
0.000360042
0.000357997
0.000353427
0.000323991
0.000351485
0.000351398
0.000325954
0.000326077
0.000353348
0.000324158
0.000351413
0.000351224
0.000325783
0.000325518
0.000351187
0.00032604
0.000325724
0.000353216
0.000323595
0.000351101
0.000325463
0.000325546
0.000323765
0.000319359
0.000288553
0.000317443
0.000317623
0.000290653
0.000290644
0.000319549
0.000288529
0.000317306
0.000317096
0.000290787
0.0002912
0.000317305
0.000290765
0.000291148
0.000319006
0.000289062
0.000317171
0.000291358
0.000291339
0.000288993
0.000283553
0.000252023
0.000281489
0.0002814
0.000253996
0.00025393
0.000283508
0.000251973
0.000281638
0.000282047
0.000254003
0.0002541
0.000281951
0.00025392
0.000254102
0.00028405
0.00025201
0.00028218
0.000254131
0.000254159
0.000252012
0.000247185
0.000217551
0.00024513
0.000245144
0.000219449
0.000219549
0.00024718
0.000217612
0.000245044
0.000244908
0.000219317
0.000218959
0.000244987
0.000219426
0.000218963
0.000246987
0.000217127
0.000244906
0.00021878
0.000218765
0.000217132
0.000212936
0.00018311
0.000210973
0.000211051
0.000185272
0.000185173
0.000212965
0.000183025
0.000210885
0.000210642
0.000185389
0.000185481
0.00021058
0.000185237
0.000185346
0.000212571
0.000183429
0.000210462
0.000185524
0.000185446
0.000183344
0.000178217
0.000146355
0.000176333
0.000176184
0.000148563
0.0001485
0.000178144
0.000146301
0.000176501
0.000176741
0.000148667
0.000148963
0.000176663
0.000148619
0.000148999
0.000178626
0.000146712
0.000176822
0.000149099
0.000149116
0.000146745
0.000141225
0.000110129
0.000139201
0.000139111
0.000111879
0.000112107
0.000141124
0.000110318
0.000139265
0.000139524
0.000111724
0.000111594
0.000139577
0.000112045
0.000111737
0.000141549
0.000109775
0.000139631
0.000111537
0.000111595
0.000109891
0.00010538
7.56508e-05
0.000103275
0.000103529
7.75635e-05
7.76856e-05
0.000105561
7.58142e-05
0.000103076
0.000102786
7.74454e-05
7.71448e-05
0.000102985
7.75973e-05
7.72597e-05
0.00010497
7.53249e-05
0.000102782
7.7029e-05
7.71176e-05
7.53684e-05
7.08742e-05
4.01881e-05
6.89044e-05
6.89492e-05
4.23292e-05
4.19863e-05
7.09958e-05
3.98118e-05
6.88485e-05
6.86311e-05
4.25969e-05
4.28293e-05
6.86482e-05
4.20327e-05
4.24504e-05
7.06112e-05
4.07008e-05
6.85823e-05
4.28676e-05
4.27043e-05
4.03574e-05
3.523e-05
8.03868e-06
3.3471e-05
3.31311e-05
1.11109e-05
1.10345e-05
3.48726e-05
7.96092e-06
3.377e-05
3.42359e-05
1.12732e-05
1.16939e-05
3.37023e-05
1.11096e-05
1.13499e-05
3.58056e-05
8.35972e-06
3.40061e-05
1.17758e-05
1.15332e-05
8.24881e-06
4.88847e-06
7.0001e-06
6.79583e-06
4.8386e-06
6.88111e-06
7.15473e-06
6.078e-06
6.34701e-06
6.30671e-06
7.17224e-06
5.03279e-06
7.07475e-06
0.00353069
0.00353323
0.00353193
0.00353216
0.00355964
0.00353309
0.0035626
0.00353338
0.00355982
0.00353342
0.00353356
0.00356307
0.00354438
0.00356623
0.00356608
0.00350324
0.00351616
0.00352069
0.003495
0.00349371
0.00349885
0.00350305
0.00351683
0.00352076
0.00349541
0.00351917
0.00351922
0.00351924
0.0034926
0.00349268
0.00349245
0.00349261
0.00350292
0.00351444
0.00351975
0.00351043
0.0035219
0.0035
0.00351075
0.00349322
0.00349857
0.00350305
0.00351988
0.0035147
0.00351036
0.00352207
0.00351074
0.00350001
0.00352071
0.00352098
0.00350765
0.00349988
0.00349993
0.00347552
0.0034898
0.00348962
0.00347358
0.00348706
0.00347259
0.00347535
0.00348978
0.00348959
0.0034735
0.00348357
0.0034833
0.00348324
0.00345515
0.0034552
0.003455
0.0034549
0.00347333
0.00348833
0.00348195
0.00347259
0.00348676
0.00347384
0.00347256
0.00348721
0.0034726
0.00347329
0.00348198
0.00348832
0.00347258
0.00348677
0.00347268
0.00347378
0.00349005
0.00349088
0.00347052
0.00347405
0.00347339
0.00343301
0.0034478
0.00344864
0.00343171
0.00344655
0.00343084
0.00343296
0.00344775
0.0034486
0.00343169
0.00344508
0.00344492
0.00344489
0.0034125
0.00341252
0.00341243
0.00341244
0.00343176
0.00344733
0.00344303
0.00343272
0.00344621
0.00343219
0.00343264
0.00344648
0.00343081
0.00343162
0.00344305
0.00344733
0.00343262
0.00344609
0.00343258
0.00343204
0.0034479
0.00344741
0.00343009
0.00343195
0.003432
0.0033866
0.00340311
0.00340457
0.00338518
0.00340237
0.00338474
0.00338659
0.00340308
0.00340451
0.00338517
0.00340096
0.00340088
0.0034009
0.003365
0.00336502
0.00336494
0.00336497
0.00338585
0.00340298
0.00339924
0.00338751
0.00340232
0.00338591
0.00338749
0.00340232
0.00338471
0.00338582
0.00339919
0.00340293
0.0033876
0.00340227
0.00338752
0.00338579
0.00340312
0.00340334
0.0033842
0.00338538
0.00338514
0.0033377
0.0033548
0.00335619
0.00333649
0.00335445
0.00333616
0.00333763
0.00335478
0.00335607
0.00333645
0.0033528
0.00335275
0.00335276
0.00331608
0.00331609
0.00331604
0.00331606
0.0033373
0.00335482
0.00335132
0.00333915
0.00335446
0.00333722
0.00333913
0.0033544
0.00333613
0.00333727
0.0033513
0.00335478
0.00333905
0.00335444
0.0033391
0.00333721
0.00335487
0.00335518
0.00333572
0.00333653
0.00333612
0.00328858
0.00330585
0.00330688
0.00328771
0.00330556
0.00328747
0.00328855
0.00330584
0.00330685
0.0032877
0.0033039
0.00330386
0.00330389
0.00326766
0.00326767
0.00326763
0.00326764
0.00328853
0.0033059
0.0033026
0.00329045
0.00330564
0.00328834