/*--------------------------------*- C++ -*----------------------------------*\
| =========                 |                                                 |
| \\      /  F ield         | OpenFOAM: The Open Source CFD Toolbox           |
|  \\    /   O peration     | Version:  v2006                                 |
|   \\  /    A nd           | Website:  www.openfoam.com                      |
|    \\/     M anipulation  |                                                 |
\*---------------------------------------------------------------------------*/
FoamFile
{
    version     2.0;
    format      ascii;
    class       volScalarField;
    location    "875";
    object      nut;
}
// * * * * * * * * * * * * * * * * * * * * * * * * * * * * * * * * * * * * * //

dimensions      [0 2 -1 0 0 0 0];


internalField   nonuniform List<scalar> 
43024
(
0.000233973
0.000233116
0.000233116
0.000233423
0.000232532
0.000227802
0.000227801
0.000223866
0.000230516
0.000220319
0.000220318
0.000209109
0.000227799
0.000211664
0.000211662
0.000193784
0.000224433
0.000202648
0.000202645
0.000179707
0.000220552
0.00019377
0.000193767
0.000167336
0.000216305
0.000185273
0.00018527
0.000156583
0.000211821
0.000177232
0.000177228
0.000147203
0.000207208
0.000169686
0.000169682
0.000138944
0.000202546
0.000162609
0.000162606
0.000131614
0.000197891
0.000155946
0.000155944
0.000124945
0.000193277
0.000149645
0.000149642
0.000118814
0.000188684
0.000143664
0.000143661
0.000113138
0.000184152
0.000137956
0.000137945
0.000107918
0.000179708
0.000132462
0.000132451
0.000102997
0.000175344
0.000127232
0.000127208
9.85947e-05
0.000171037
0.000122053
0.000122062
9.42211e-05
0.00016678
0.000117441
0.000117519
9.05601e-05
0.000162603
0.000112898
0.000112853
8.77108e-05
0.000158404
0.000108753
0.000108814
8.57277e-05
0.000154268
0.000104974
0.000105061
8.34939e-05
0.000234266
0.000234448
0.000234449
0.000234267
0.000234448
0.000234449
0.000234274
0.000234274
0.000234274
0.000234274
0.000234448
0.000234448
0.000234266
0.000234448
0.000234448
0.000234266
0.000233423
0.000226205
0.000233116
0.000233114
0.000229361
0.000229357
0.000233423
0.000226204
0.000233114
0.000233114
0.000229359
0.000229356
0.000233116
0.000229364
0.00022936
0.000233423
0.000226203
0.000233114
0.000229363
0.000229359
0.000226201
0.000223868
0.000212232
0.000227799
0.000227794
0.000222332
0.000222326
0.000223867
0.000212233
0.000227797
0.000227793
0.000222333
0.000222325
0.000227797
0.000222337
0.000222329
0.000223867
0.000212229
0.000227796
0.000222336
0.000222331
0.000212225
0.000209113
0.000197064
0.000220313
0.000220307
0.00021388
0.000213873
0.00020911
0.000197064
0.000220315
0.000220305
0.000213885
0.000213871
0.00022031
0.000213889
0.000213876
0.00020911
0.000197059
0.000220312
0.000213886
0.000213881
0.000197053
0.000193791
0.00018288
0.000211654
0.000211647
0.00020489
0.000204883
0.000193789
0.000182879
0.00021166
0.000211645
0.000204899
0.000204881
0.00021165
0.000204903
0.000204886
0.000193787
0.000182875
0.000211656
0.000204901
0.000204895
0.000182868
0.000179715
0.000170272
0.000202634
0.000202627
0.000195943
0.000195936
0.000179713
0.000170271
0.000202644
0.000202625
0.000195956
0.000195933
0.000202629
0.000195959
0.000195938
0.00017971
0.000170267
0.00020264
0.000195957
0.000195951
0.000170259
0.000167348
0.000159246
0.000193753
0.000193746
0.000187337
0.00018733
0.000167345
0.000159246
0.000193767
0.000193743
0.000187354
0.000187327
0.000193747
0.000187356
0.000187331
0.000167342
0.00015924
0.000193762
0.000187354
0.000187348
0.000159233
0.000156596
0.000149616
0.000185253
0.000185246
0.000179173
0.000179166
0.000156594
0.000149614
0.00018527
0.000185242
0.000179193
0.000179163
0.000185247
0.000179195
0.000179168
0.000156591
0.000149611
0.000185265
0.000179192
0.000179188
0.000149603
0.000147213
0.000141113
0.000177208
0.000177202
0.000171501
0.000171494
0.000147213
0.000141113
0.000177229
0.000177198
0.000171525
0.000171491
0.000177203
0.000171526
0.000171496
0.000147208
0.000141108
0.000177223
0.000171523
0.000171519
0.000141093
0.000138961
0.000133546
0.00016966
0.000169653
0.000164309
0.000164302
0.000138955
0.000133546
0.000169684
0.00016965
0.000164335
0.000164299
0.000169655
0.000164336
0.000164305
0.000138956
0.00013354
0.000169679
0.000164334
0.00016433
0.000133538
0.000131618
0.000126688
0.000162582
0.000162574
0.000157547
0.00015754
0.000131625
0.000126694
0.000162608
0.000162571
0.000157576
0.000157537
0.000162576
0.000157576
0.000157542
0.000131617
0.000126686
0.000162602
0.000157574
0.00015757
0.000126673
0.000124966
0.000120366
0.000155917
0.000155909
0.000151158
0.000151151
0.000124963
0.000120365
0.000155946
0.000155906
0.000151187
0.000151147
0.000155912
0.000151189
0.000151154
0.000124964
0.000120357
0.000155941
0.000151186
0.000151184
0.000120349
0.000118822
0.000114429
0.000149613
0.000149606
0.000145096
0.00014509
0.000118826
0.000114434
0.000149644
0.000149603
0.000145128
0.000145086
0.000149608
0.000145128
0.000145091
0.000118822
0.000114428
0.000149638
0.000145127
0.000145123
0.000114407
0.000113181
0.000108855
0.000143627
0.000143623
0.000139317
0.000139309
0.000113169
0.000108797
0.000143661
0.000143619
0.000139349
0.000139305
0.000143623
0.00013935
0.000139313
0.00011316
0.000108793
0.000143656
0.000139345
0.000139344
0.000108782
0.000107925
0.000103672
0.000137912
0.000137913
0.000133768
0.000133769
0.000107902
0.000103651
0.000137943
0.000137906
0.000133802
0.000133768
0.000137914
0.000133805
0.00013376
0.000107897
0.00010367
0.000137946
0.000133802
0.000133794
0.000103638
0.000102984
9.91207e-05
0.00013241
0.000132423
0.000128444
0.000128458
0.000103043
9.91653e-05
0.000132445
0.000132416
0.000128478
0.00012845
0.000132411
0.00012851
0.000128489
0.000103052
9.91871e-05
0.000132444
0.000128501
0.000128522
9.92714e-05
9.84606e-05
9.52802e-05
0.000127167
0.000127175
0.000123413
0.000123244
9.85187e-05
9.46003e-05
0.000127203
0.000127157
0.000123448
0.000123301
0.000127197
0.000123285
0.000123344
9.8523e-05
9.47923e-05
0.000127231
0.00012334
0.000123377
9.49079e-05
9.44711e-05
9.14223e-05
0.000122097
0.00012202
0.000118486
0.000118549
9.38658e-05
9.17758e-05
0.000122126
0.000122026
0.000118512
0.000118535
0.000122134
0.000118592
0.00011843
9.40179e-05
9.16149e-05
0.000122166
0.000118579
0.000118461
9.1257e-05
9.07218e-05
8.86204e-05
0.0001173
0.00011739
0.000114043
0.000113957
9.10201e-05
8.86407e-05
0.000117328
0.000117471
0.000114075
0.000113927
0.000117334
0.000114004
0.000113979
9.11145e-05
8.83798e-05
0.000117367
0.000113974
0.000114014
8.85963e-05
8.80531e-05
8.5508e-05
0.000112927
0.000112855
0.000109617
0.000109782
8.79359e-05
8.61828e-05
0.000112957
0.000112807
0.00010964
0.00010961
0.000112729
0.000109821
0.000109736
8.75969e-05
8.56633e-05
0.00011276
0.000109656
0.000109764
8.58258e-05
8.51494e-05
8.43735e-05
0.000108638
0.000108715
0.000105939
0.00010575
8.5538e-05
8.35672e-05
0.000108664
0.000108769
0.000105967
0.000105954
0.000108832
0.000105791
0.000105836
8.53467e-05
8.45283e-05
0.00010886
0.000105999
0.000105865
8.38671e-05
8.3942e-05
0.000104993
0.000104932
8.33706e-05
0.00010502
0.000105016
0.000104984
8.39232e-05
0.000105013
0.00023473
0.000234746
0.000234729
0.000234729
0.000235117
0.000234798
0.000234702
0.000234727
0.000235118
0.000234798
0.000234727
0.000234701
0.000234867
0.000233566
0.000233566
0.000104652
3.87412e-05
0.000129114
3.9825e-05
2.16828e-05
2.28306e-05
0.000104655
3.87378e-05
0.000129112
3.98209e-05
0.000233973
0.000233973
0.000233973
0.000232935
0.000232935
0.000232935
0.000232935
0.000206199
9.36753e-05
0.000233969
0.000231994
0.000222612
8.72272e-05
0.000233611
2.16821e-05
2.28301e-05
0.000206193
0.000233969
9.36724e-05
0.000231994
0.000222617
0.000233611
8.72244e-05
4.77979e-05
4.77899e-05
0.000231344
4.40179e-05
4.40106e-05
7.25722e-05
4.24353e-05
8.14008e-05
4.37643e-05
2.47747e-05
2.54626e-05
7.25669e-05
4.24312e-05
8.13945e-05
4.376e-05
0.000232532
0.000232532
0.000232532
0.000231084
0.000231084
0.000231084
0.000231084
0.000167493
7.94355e-05
0.000232081
0.000226096
0.00018021
7.4512e-05
0.000231376
2.47736e-05
2.54619e-05
0.00016749
0.00023208
7.94336e-05
0.000226095
0.000180206
0.000231376
7.45102e-05
3.91613e-05
3.91538e-05
0.000219591
3.65747e-05
3.65663e-05
5.62837e-05
4.55477e-05
6.1131e-05
4.64129e-05
2.60125e-05
2.61164e-05
5.628e-05
4.55439e-05
6.11267e-05
4.64089e-05
0.000230515
0.000230515
0.000230515
0.000228543
0.000228543
0.000228542
0.000228542
0.000138601
6.74243e-05
0.000228643
0.000218229
0.000148065
6.3518e-05
0.000227537
2.60117e-05
2.61152e-05
0.000138597
0.000228642
6.74229e-05
0.000218227
0.000148059
0.000227536
6.35164e-05
3.32164e-05
3.321e-05
0.000204609
3.19909e-05
3.1984e-05
4.69668e-05
4.75019e-05
4.9913e-05
4.80055e-05
2.60461e-05
2.5938e-05
4.69641e-05
4.74974e-05
4.99086e-05
4.8e-05
0.000227798
0.000227798
0.000227797
0.000225329
0.000225328
0.000225327
0.000225327
0.000117549
5.82056e-05
0.00022372
0.000209418
0.000124601
5.54856e-05
0.000222309
2.6045e-05
2.59369e-05
0.000117544
0.000223719
5.82045e-05
0.000209416
0.000124598
0.000222308
5.54844e-05
3.06164e-05
3.06107e-05
0.000189774
3.03034e-05
3.02978e-05
4.14296e-05
4.85841e-05
4.32476e-05
4.88396e-05
2.56745e-05
2.55188e-05
4.1426e-05
4.85824e-05
4.32441e-05
4.88354e-05
0.000224433
0.000224431
0.000224431
0.000221563
0.000221562
0.00022156
0.00022156
0.000102117
5.18772e-05
0.00021777
0.000200402
0.000107376
5.00747e-05
0.00021618
2.56732e-05
2.55177e-05
0.00010211
0.000217768
5.18762e-05
0.0002004
0.000107376
0.000216178
5.00751e-05
3.01797e-05
3.01835e-05
0.000176365
3.04118e-05
3.0401e-05
3.81569e-05
4.90974e-05
3.92441e-05
4.92007e-05
2.52368e-05
2.50931e-05
3.81543e-05
4.90939e-05
3.92421e-05
4.91962e-05
0.000220551
0.00022055
0.000220549
0.000217393
0.000217392
0.00021739
0.00021739
9.05006e-05
4.77391e-05
0.000211268
0.000191605
9.44554e-05
4.66137e-05
0.000209602
2.52355e-05
2.50919e-05
9.04926e-05
0.000211266
4.7736e-05
0.000191602
9.44573e-05
0.0002096
4.66118e-05
3.09393e-05
3.09411e-05
0.000164556
3.14619e-05
3.14461e-05
3.63768e-05
4.92774e-05
3.69424e-05
4.93001e-05
2.48477e-05
2.47316e-05
3.63731e-05
4.92752e-05
3.69402e-05
4.92943e-05
0.000216303
0.000216301
0.000216301
0.000212958
0.000212956
0.000212954
0.000212953
8.15923e-05
4.51704e-05
0.000204578
0.000183217
8.46683e-05
4.45608e-05
0.000202906
2.48464e-05
2.47306e-05
8.15861e-05
0.000204575
4.51691e-05
0.000183214
8.46678e-05
0.000202904
4.45531e-05
3.26159e-05
3.26235e-05
0.000154263
3.32623e-05
3.3248e-05
3.56761e-05
4.92962e-05
3.58245e-05
4.92847e-05
2.4534e-05
2.4446e-05
3.56754e-05
4.92901e-05
3.58215e-05
4.92807e-05
0.00021182
0.000211817
0.000211817
0.000208368
0.000208366
0.000208364
0.000208363
7.46446e-05
4.37714e-05
0.000197937
0.000175298
7.7112e-05
4.35224e-05
0.000196303
2.45328e-05
2.44451e-05
7.46483e-05
0.000197934
4.37763e-05
0.000175295
7.71138e-05
0.0001963
4.35171e-05
3.46152e-05
3.46231e-05
0.000145213
3.56456e-05
3.56538e-05
3.57535e-05
4.92627e-05
3.5647e-05
4.92451e-05
2.42933e-05
2.42284e-05
3.57536e-05
4.92571e-05
3.56442e-05
4.92415e-05
0.000207206
0.000207203
0.000207203
0.000203712
0.00020371
0.000203707
0.000203707
6.91843e-05
4.32438e-05
0.000191482
0.000167875
7.11916e-05
4.32399e-05
0.0001899
2.42923e-05
2.42272e-05
6.91715e-05
0.000191478
4.32458e-05
0.000167872
7.12012e-05
0.000189897
4.32343e-05
3.69222e-05
3.69623e-05
0.000137214
3.8087e-05
3.8068e-05
3.65753e-05
4.92286e-05
3.61977e-05
4.92262e-05
2.41148e-05
2.40673e-05
3.65702e-05
4.92243e-05
3.61981e-05
4.92198e-05
0.000202544
0.000202541
0.000202541
0.000199051
0.000199048
0.000199045
0.000199045
6.48613e-05
4.33986e-05
0.000185239
0.000160906
6.65126e-05
4.35537e-05
0.000183716
2.41139e-05
2.4066e-05
6.48676e-05
0.000185235
4.33931e-05
0.000160903
6.6503e-05
0.000183713
4.3561e-05
3.94836e-05
3.95157e-05
0.000130024
4.0549e-05
4.05116e-05
3.8145e-05
4.9226e-05
3.73845e-05
4.92314e-05
2.39854e-05
2.39515e-05
3.81867e-05
4.92202e-05
3.73141e-05
4.9228e-05
0.000197889
0.000197885
0.000197885
0.000194423
0.00019442
0.000194417
0.000194417
6.14924e-05
4.40692e-05
0.000179253
0.000154339
6.27582e-05
4.44038e-05
0.000177801
2.39841e-05
2.39502e-05
6.15089e-05
0.00017925
4.40653e-05
0.000154336
6.27538e-05
0.000177798
4.44122e-05
4.21791e-05
4.21649e-05
0.000123453
4.26758e-05
4.26572e-05
4.00707e-05
4.92459e-05
3.92334e-05
4.9252e-05
2.3893e-05
2.38702e-05
4.01383e-05
4.92387e-05
3.91807e-05
4.9251e-05
0.000193275
0.000193271
0.000193271
0.000189832
0.000189829
0.000189825
0.000189825
5.90105e-05
4.51975e-05
0.000173548
0.000148119
5.98468e-05
4.56638e-05
0.000172163
2.38916e-05
2.38695e-05
5.90061e-05
0.000173545
4.51944e-05
0.000148115
5.98482e-05
0.000172159
4.56719e-05
4.44191e-05
4.44163e-05
0.000117333
4.53862e-05
4.53735e-05
4.25947e-05
4.9274e-05
4.14468e-05
4.92917e-05
2.38297e-05
2.38123e-05
4.26811e-05
4.9274e-05
4.1427e-05
4.9289e-05
0.000188682
0.000188678
0.000188678
0.000185275
0.000185273
0.000185269
0.000185269
5.72178e-05
4.6693e-05
0.000168096
0.00014221
5.77102e-05
4.72914e-05
0.000166768
2.3829e-05
2.3811e-05
5.72278e-05
0.000168094
4.6705e-05
0.00014221
5.77255e-05
0.000166767
4.72962e-05
4.6986e-05
4.69705e-05
0.000111581
4.74882e-05
4.74892e-05
4.56173e-05
4.9319e-05
4.41808e-05
4.93336e-05
2.37837e-05
2.37725e-05
4.55663e-05
4.93167e-05
4.42201e-05
4.93219e-05
0.000184151
0.000184146
0.000184146
0.000180809
0.000180807
0.000180803
0.000180802
5.60327e-05
4.84983e-05
0.000162861
0.000136558
5.63468e-05
4.91759e-05
0.000161582
2.37822e-05
2.37713e-05
5.60343e-05
0.000162856
4.84677e-05
0.000136555
5.6316e-05
0.000161578
4.91709e-05
4.88427e-05
4.87989e-05
0.000106204
4.99953e-05
5.0017e-05
4.87872e-05
4.93563e-05
4.74033e-05
4.93663e-05
2.37517e-05
2.37413e-05
4.87407e-05
4.93552e-05
4.74538e-05
4.93559e-05
0.000179705
0.000179701
0.0001797
0.000176424
0.000176426
0.000176419
0.000176425
5.54956e-05
5.05265e-05
0.000157808
0.000131113
5.55831e-05
5.12068e-05
0.000156574
2.37497e-05
2.37411e-05
5.55159e-05
0.000157804
5.05077e-05
0.000131112
5.55702e-05
0.000156571
5.12245e-05
5.11493e-05
5.11271e-05
0.000101363
5.17493e-05
5.17628e-05
5.22142e-05
4.93971e-05
5.08184e-05
4.94033e-05
2.37249e-05
2.372e-05
5.23082e-05
4.9399e-05
5.08354e-05
4.9404e-05
0.000175343
0.000175335
0.00017534
0.000172115
0.000172091
0.000172094
0.000172102
5.57067e-05
5.27945e-05
0.000152923
0.00012592
5.56014e-05
5.35333e-05
0.000151721
2.37246e-05
2.37184e-05
5.56706e-05
0.000152916
5.27303e-05
0.000125913
5.55654e-05
0.000151715
5.34838e-05
5.31695e-05
5.31683e-05
9.71018e-05
5.34526e-05
5.34623e-05
5.56226e-05
4.94194e-05
5.41959e-05
4.94316e-05
2.37048e-05
2.37002e-05
5.55918e-05
4.94088e-05
5.41974e-05
4.94253e-05
0.000171025
0.000171019
0.000171034
0.000167838
0.000167855
0.000167847
0.000167832
5.63171e-05
5.48358e-05
0.000148158
0.000120891
5.60002e-05
5.56624e-05
0.000146994
2.37039e-05
2.3697e-05
5.63573e-05
0.000148156
5.49634e-05
0.000120813
5.60237e-05
0.000146992
5.56431e-05
5.48623e-05
5.48865e-05
9.32509e-05
5.51806e-05
5.51438e-05
5.91622e-05
4.94555e-05
5.76343e-05
4.94667e-05
2.36886e-05
2.36804e-05
5.91893e-05
4.94509e-05
5.76397e-05
4.94633e-05
0.000166802
0.000166803
0.000166784
0.000163647
0.000163633
0.00016363
0.000163625
5.77405e-05
5.72637e-05
0.000143551
0.000116312
5.72103e-05
5.79857e-05
0.000142417
2.36863e-05
2.36796e-05
5.77132e-05
0.000143546
5.72827e-05
0.00011635
5.71762e-05
0.00014241
5.80317e-05
5.59291e-05
5.59234e-05
9.00732e-05
5.71797e-05
5.71764e-05
6.22162e-05
4.94784e-05
6.09381e-05
4.94902e-05
2.36694e-05
2.36661e-05
6.21966e-05
4.94725e-05
6.09601e-05
4.94843e-05
0.000162593
0.000162577
0.000162561
0.000159442
0.000159467
0.000159439
0.000159453
5.94603e-05
5.94457e-05
0.000139012
0.000111836
5.88397e-05
6.01362e-05
0.0001379
2.36687e-05
2.36646e-05
5.94932e-05
0.000139006
5.94918e-05
0.000111718
5.88548e-05
0.000137894
6.02823e-05
5.72532e-05
5.72549e-05
8.64898e-05
5.84877e-05
5.84823e-05
6.5125e-05
4.95067e-05
6.39691e-05
4.95181e-05
2.36539e-05
2.36509e-05
6.51717e-05
4.95014e-05
6.38948e-05
4.95135e-05
0.000158413
0.000158425
0.000158429
0.000155317
0.000155272
0.000155309
0.000155298
6.17428e-05
6.17051e-05
0.000134589
0.000107649
6.09525e-05
6.24367e-05
0.000133503
2.36557e-05
2.36486e-05
6.17484e-05
0.000134596
6.16647e-05
0.000107913
6.09312e-05
0.000133525
6.24164e-05
5.89126e-05
5.88993e-05
8.52808e-05
5.94933e-05
5.95023e-05
6.77584e-05
4.95316e-05
6.66609e-05
4.95414e-05
2.36429e-05
2.36365e-05
6.77657e-05
4.95268e-05
6.66669e-05
4.9537e-05
0.000154259
0.000154272
0.000154274
6.43084e-05
6.38192e-05
0.000130295
0.000104198
6.33921e-05
6.45226e-05
0.000129261
2.36402e-05
2.36349e-05
6.43137e-05
0.000130304
6.3851e-05
0.000104167
6.34065e-05
0.00012926
6.44189e-05
6.03047e-05
6.02967e-05
8.34605e-05
6.0533e-05
6.05414e-05
0.000234867
0.000233565
0.000233566
2.32577e-05
0.00021417
2.32565e-05
0.00021417
0.000234435
5.13279e-05
5.13243e-05
0.00022999
0.000229992
0.000235118
0.000234798
0.000234701
0.000234727
0.000235118
0.000234798
0.000234701
0.000234727
0.000234477
4.02628e-05
0.000218815
0.000147826
0.000234477
4.02614e-05
0.000218815
0.000147819
0.000233889
0.000234474
0.000100091
0.00023427
0.000233359
0.000234597
0.000228477
0.000233889
0.000234474
0.000100093
0.000234271
0.000233359
0.000234597
0.000228477
0.000234867
0.000233565
0.000233566
2.32567e-05
0.00021417
0.000234435
5.13256e-05
5.13236e-05
0.000229992
0.000229991
2.32571e-05
0.000214168
0.000235118
0.000234798
0.000234702
0.000234727
0.000235117
0.000234798
0.000234727
0.000234702
0.000234477
4.02592e-05
0.000218816
0.000147825
0.000233889
0.000234474
0.00010007
0.00023427
0.000233359
0.000234597
0.000228475
0.000234477
4.0259e-05
0.000218816
0.000147837
0.000233889
0.000234474
0.000234271
0.00010008
0.000234597
0.000233359
0.000228477
0.00023473
0.000234746
0.000234729
0.000234729
0.00023473
0.000234746
0.000234729
0.000234729
0.00023473
0.000234746
0.000234729
0.000234729
0.000234591
0.000234574
0.000234253
0.000234253
0.000234592
0.000234592
0.000234252
0.000234591
0.000234574
0.000234253
0.000234253
0.000234592
0.000234592
0.000234253
0.000234591
0.000234574
0.000234253
0.000234253
0.000234592
0.000234592
0.000234253
0.000234591
0.000234574
0.000234253
0.000234253
0.000234592
0.000234592
0.000234253
0.000235118
0.000234798
0.000234727
0.000234702
0.000233889
0.000234474
0.000100082
0.000234271
0.000233359
0.000234597
0.000228476
0.000234477
4.02597e-05
0.000218816
0.00014784
0.000233889
0.000234474
0.000234271
0.000100085
0.000234597
0.000233359
0.000228479
0.000234477
4.02592e-05
0.000218817
0.000147838
0.000234867
0.000233566
0.000233566
2.32564e-05
0.000214168
0.000234435
5.13218e-05
5.13261e-05
0.000229992
0.000229992
2.32571e-05
0.000214169
0.000235118
0.000234798
0.000234727
0.000234702
0.000233889
0.000234474
0.000234271
0.000100075
0.000234597
0.000233359
0.000228475
0.000233889
0.000234474
0.000234271
0.00010008
0.000234597
0.000233359
0.000228475
0.000234477
4.02596e-05
0.000218816
0.000147817
0.000234477
4.02585e-05
0.000218816
0.000147824
0.000234435
5.13286e-05
5.13202e-05
0.000229992
0.000229992
2.3257e-05
0.000214168
2.32563e-05
0.000214168
2.16841e-05
2.28328e-05
2.16825e-05
2.28308e-05
4.78059e-05
4.77918e-05
0.000231346
4.40175e-05
4.40085e-05
2.4482e-05
2.33057e-05
2.44798e-05
2.33038e-05
0.000229667
4.00648e-05
4.00552e-05
4.31053e-05
4.30897e-05
0.000104646
3.87398e-05
0.000129132
3.98226e-05
0.000206201
9.36849e-05
0.000233969
0.000231993
0.000222609
8.72308e-05
0.000233611
0.0002062
9.36736e-05
0.000233969
0.00023199
0.000222611
8.72202e-05
0.000233611
9.84289e-05
4.19631e-05
4.03785e-05
8.55812e-05
9.8429e-05
4.19603e-05
4.03762e-05
8.55712e-05
0.000200084
0.000230759
8.0808e-05
0.000232683
8.56716e-05
0.000233189
0.000185639
0.000200082
0.000230755
8.07985e-05
0.000232682
8.56557e-05
0.000233188
0.000185634
4.77954e-05
4.77952e-05
0.000231346
4.40138e-05
4.40132e-05
2.16832e-05
2.2832e-05
2.448e-05
2.33035e-05
0.000229667
4.00593e-05
4.00619e-05
4.30923e-05
4.30979e-05
2.44814e-05
2.33051e-05
0.000206195
9.36606e-05
0.000233969
0.00023199
0.000222609
8.72119e-05
0.000233611
0.000104644
3.87375e-05
0.000129126
3.98198e-05
0.000206195
0.000233969
9.3668e-05
0.000231989
0.000222613
0.000233611
8.72126e-05
9.841e-05
4.1959e-05
4.03745e-05
8.55753e-05
0.000200081
0.000230756
8.07936e-05
0.000232682
8.56495e-05
0.000233189
0.000185633
9.84187e-05
4.19577e-05
4.0374e-05
8.55752e-05
0.00020008
0.000230754
0.000232682
8.07907e-05
0.000233188
8.56512e-05
0.00018563
0.000104656
3.87384e-05
0.000129108
3.98221e-05
0.000206201
0.000233969
9.36726e-05
0.000231992
0.000222614
0.000233611
8.72223e-05
0.000104655
3.87377e-05
0.00012913
3.98217e-05
0.000200083
0.00023076
8.0807e-05
0.000232683
8.5667e-05
0.000233189
0.000185635
9.84118e-05
4.19603e-05
4.03761e-05
8.55762e-05
0.000200082
0.000230758
0.000232682
8.08036e-05
0.000233189
8.56645e-05
0.000185635
9.84189e-05
4.19596e-05
4.03749e-05
8.55763e-05
4.77951e-05
4.77994e-05
0.000231345
4.40082e-05
4.4018e-05
2.16834e-05
2.28323e-05
2.44789e-05
2.33031e-05
0.000229667
4.00509e-05
4.00621e-05
4.30899e-05
4.30958e-05
2.44807e-05
2.33052e-05
0.000206194
0.000233969
9.3665e-05
0.00023199
0.000222615
0.000233611
8.72156e-05
0.000104644
3.87384e-05
0.000129126
3.98221e-05
0.000104639
3.87368e-05
0.000129125
3.98203e-05
0.000200083
0.000230759
0.000232683
8.08042e-05
0.000233189
8.56622e-05
0.000185632
0.000200077
0.000230756
0.000232682
8.07939e-05
0.000233188
8.5652e-05
0.000185628
9.84202e-05
4.19599e-05
4.0376e-05
8.55682e-05
9.84183e-05
4.1958e-05
4.03736e-05
8.55698e-05
2.16831e-05
2.28313e-05
2.16821e-05
2.283e-05
0.000229667
4.00655e-05
4.00558e-05
4.30961e-05
4.30854e-05
2.44805e-05
2.33044e-05
2.44793e-05
2.3303e-05
2.47766e-05
2.54649e-05
2.47747e-05
2.54626e-05
3.91728e-05
3.91556e-05
0.000219597
3.65745e-05
3.65676e-05
2.59552e-05
2.56201e-05
2.59527e-05
2.56179e-05
0.000216777
3.385e-05
3.38422e-05
3.57341e-05
3.57184e-05
7.25609e-05
4.24329e-05
8.14018e-05
4.37612e-05
0.000167496
7.944e-05
0.000232081
0.000226093
0.000180212
7.45136e-05
0.000231376
0.000167491
7.94258e-05
0.00023208
0.000226087
0.000180207
7.45043e-05
0.000231375
6.96327e-05
4.52383e-05
4.41518e-05
6.32389e-05
6.96355e-05
4.5236e-05
4.41494e-05
6.32374e-05
0.000162886
0.000224265
6.86729e-05
0.000229654
7.31555e-05
0.000230568
0.000151905
0.000162882
0.000224259
6.86622e-05
0.000229653
7.31437e-05
0.000230566
0.000151901
3.91596e-05
3.91626e-05
0.000219597
3.65691e-05
3.65725e-05
2.47761e-05
2.54638e-05
2.59529e-05
2.56178e-05
0.000216776
3.38444e-05
3.38484e-05
3.57219e-05
3.57266e-05
2.59542e-05
2.56191e-05
0.00016749
7.94236e-05
0.00023208
0.000226091
0.000180206
7.45009e-05
0.000231375
7.25727e-05
4.24302e-05
8.13935e-05
4.37589e-05
0.000167483
0.00023208
7.94244e-05
0.000226086
0.000180204
0.000231375
7.44956e-05
6.96282e-05
4.52345e-05
4.4148e-05
6.32348e-05
0.00016288
0.000224264
6.86607e-05
0.000229654
7.31421e-05
0.000230566
0.000151899
6.96191e-05
4.52335e-05
4.41469e-05
6.32326e-05
0.000162878
0.000224258
0.000229653
6.86569e-05
0.000230565
7.31431e-05
0.000151894
7.25671e-05
4.24326e-05
8.13961e-05
4.37611e-05
0.00016749
0.00023208
7.94323e-05
0.00022609
0.000180206
0.000231375
7.45086e-05
7.25662e-05
4.24315e-05
8.13953e-05
4.37599e-05
0.000162883
0.000224269
6.86719e-05
0.000229655
7.31546e-05
0.000230567
0.000151902
6.963e-05
4.52359e-05
4.41495e-05
6.32346e-05
0.00016288
0.000224262
0.000229654
6.86679e-05
0.000230566
7.31498e-05
0.000151898
6.96276e-05
4.52344e-05
4.4148e-05
6.32334e-05
3.9158e-05
3.91627e-05
0.000219595
3.6562e-05
3.65743e-05
2.47756e-05
2.54636e-05
2.5952e-05
2.5617e-05
0.000216775
3.3839e-05
3.38489e-05
3.57195e-05
3.57255e-05
2.59538e-05
2.56189e-05
0.000167485
0.00023208
7.94236e-05
0.00022609
0.000180201
0.000231375
7.45006e-05
7.25661e-05
4.2432e-05
8.14003e-05
4.37608e-05
7.25673e-05
4.24303e-05
8.13963e-05
4.37586e-05
0.000162879
0.000224268
0.000229655
6.86692e-05
0.000230567
7.31511e-05
0.000151898
0.000162875
0.000224263
0.000229654
6.86595e-05
0.000230565
7.3141e-05
0.000151894
6.9627e-05
4.52351e-05
4.41488e-05
6.32339e-05
6.96233e-05
4.52333e-05
4.41468e-05
6.32312e-05
2.47752e-05
2.54629e-05
2.4774e-05
2.54616e-05
0.000216774
3.38489e-05
3.38414e-05
3.57245e-05
3.57174e-05
2.59533e-05
2.56181e-05
2.59519e-05
2.56168e-05
2.60147e-05
2.61187e-05
2.60123e-05
2.61162e-05
3.32239e-05
3.32106e-05
0.000204618
3.19932e-05
3.19846e-05
2.60843e-05
2.61194e-05
2.60816e-05
2.61168e-05
0.000201352
3.08802e-05
3.08712e-05
3.15714e-05
3.15611e-05
5.62823e-05
4.55452e-05
6.11289e-05
4.64104e-05
0.000138604
6.74267e-05
0.000228644
0.000218223
0.000148065
6.35195e-05
0.000227536
0.000138601
6.74145e-05
0.000228641
0.000218216
0.00014806
6.35083e-05
0.000227534
5.47708e-05
4.73226e-05
4.66528e-05
5.10071e-05
5.47679e-05
4.7319e-05
4.66494e-05
5.10054e-05
0.000135414
0.000216075
5.9135e-05
0.000225066
6.24242e-05
0.000226343
0.000127253
0.000135409
0.000216068
5.91244e-05
0.000225065
6.24136e-05
0.00022634
0.00012725
3.32126e-05
3.3218e-05
0.000204619
3.19861e-05
3.19908e-05
2.60139e-05
2.61178e-05
2.60817e-05
2.61169e-05
0.000201349
3.08729e-05
3.08775e-05
3.15643e-05
3.1568e-05
2.60833e-05
2.61184e-05
0.000138597
6.74144e-05
0.000228642
0.000218225
0.000148059
6.35083e-05
0.000227535
5.62733e-05
4.55425e-05
6.11273e-05
4.64075e-05
0.000138592
0.00022864
6.7412e-05
0.000218214
0.000148057
0.000227534
6.35064e-05
5.4766e-05
4.7318e-05
4.66485e-05
5.10035e-05
0.000135406
0.000216078
5.91248e-05
0.000225066
6.24136e-05
0.000226341
0.000127246
5.47665e-05
4.73163e-05
4.66467e-05
5.10019e-05
0.000135405
0.000216066
0.000225064
5.91228e-05
0.000226339
6.24111e-05
0.000127242
5.62819e-05
4.55461e-05
6.11302e-05
4.64113e-05
0.000138597
0.000228642
6.74213e-05
0.000218219
0.00014806
0.000227535
6.35146e-05
5.62797e-05
4.55441e-05
6.11272e-05
4.64088e-05
0.000135412
0.000216082
5.91333e-05
0.000225067
6.24222e-05
0.000226342
0.000127252
5.47697e-05
4.73217e-05
4.66509e-05
5.10065e-05
0.000135409
0.00021607
0.000225065
5.91303e-05
0.000226341
6.24193e-05
0.000127248
5.47674e-05
4.73182e-05
4.6649e-05
5.10039e-05
3.32092e-05
3.32168e-05
0.000204614
3.19824e-05
3.19904e-05
2.60134e-05
2.61173e-05
2.60806e-05
2.61158e-05
0.000201348
3.08697e-05
3.08767e-05
3.15601e-05
3.15669e-05
2.60828e-05
2.61179e-05
0.000138594
0.00022864
6.74126e-05
0.000218222
0.000148054
0.000227534
6.35065e-05
5.62795e-05
4.55447e-05
6.11264e-05
4.64098e-05
5.62775e-05
4.55426e-05
6.11232e-05
4.64076e-05
0.000135407
0.000216081
0.000225066
5.91316e-05
0.000226341
6.24207e-05
0.000127247
0.000135402
0.000216074
0.000225065
5.91228e-05
0.000226339
6.24117e-05
0.000127243
5.47667e-05
4.73191e-05
4.66497e-05
5.10034e-05
5.47637e-05
4.73162e-05
4.66469e-05
5.10016e-05
2.60129e-05
2.61168e-05
2.60115e-05
2.61153e-05
0.000201346
3.08768e-05
3.08708e-05
3.15664e-05
3.15605e-05
2.60823e-05
2.61175e-05
2.60808e-05
2.6116e-05
2.60486e-05
2.59408e-05
2.60461e-05
2.59378e-05
3.06202e-05
3.0611e-05
0.000189786
3.0306e-05
3.02979e-05
2.5741e-05
2.58844e-05
2.57379e-05
2.5882e-05
0.000186553
3.01714e-05
3.01639e-05
3.02074e-05
3.01994e-05
4.69657e-05
4.74982e-05
4.99104e-05
4.80006e-05
0.000117551
5.82077e-05
0.000223721
0.000209408
0.000124604
5.54875e-05
0.000222308
0.000117548
5.81988e-05
0.000223718
0.000209401
0.000124599
5.54778e-05
0.000222306
4.61582e-05
4.85005e-05
4.81336e-05
4.38457e-05
4.61565e-05
4.84943e-05
4.81303e-05
4.38439e-05
0.000115372
0.000207151
5.2498e-05
0.000219325
5.47238e-05
0.000220843
0.000109277
0.000115368
0.000207144
5.24903e-05
0.000219323
5.47161e-05
0.000220839
0.000109272
3.06133e-05
3.06177e-05
0.000189785
3.02995e-05
3.03041e-05
2.60477e-05
2.59395e-05
2.57381e-05
2.58821e-05
0.00018655
3.01651e-05
3.01697e-05
3.02012e-05
3.02057e-05
2.57397e-05
2.58836e-05
0.000117544
5.81985e-05
0.000223719
0.000209414
0.000124596
5.5478e-05
0.000222307
4.69629e-05
4.74951e-05
4.99055e-05
4.79976e-05
0.000117539
0.000223716
5.81962e-05
0.000209398
0.000124595
0.000222305
5.54759e-05
4.61549e-05
4.84936e-05
4.81293e-05
4.38423e-05
0.000115364
0.000207158
5.24898e-05
0.000219324
5.47157e-05
0.00022084
0.000109268
4.61524e-05
4.84915e-05
4.81272e-05
4.38407e-05
0.000115363
0.000207141
0.000219322
5.24881e-05
0.000220837
5.47135e-05
0.000109263
4.6965e-05
4.74991e-05
4.99115e-05
4.80043e-05
0.000117546
0.000223718
5.82031e-05
0.000209403
0.000124599
0.000222307
5.54836e-05
4.69635e-05
4.7498e-05
4.991e-05
4.80005e-05
0.000115367
0.000207162
5.24959e-05
0.000219326
5.47219e-05
0.000220842
0.000109272
4.61569e-05
4.84979e-05
4.81297e-05
4.38438e-05
0.000115366
0.000207146
0.000219324
5.24953e-05
0.000220839
5.47197e-05
0.00010927
4.61552e-05
4.84946e-05
4.81296e-05
4.38426e-05
3.06099e-05
3.06166e-05
0.000189781
3.02967e-05
3.03033e-05
2.60471e-05
2.59391e-05
2.5737e-05
2.58809e-05
0.000186548
3.01627e-05
3.01698e-05
3.01982e-05
3.02046e-05
2.57392e-05
2.58831e-05
0.000117541
0.000223716
5.81967e-05
0.000209411
0.000124593
0.000222306
5.54763e-05
4.69636e-05
4.74987e-05
4.99093e-05
4.80014e-05
4.69625e-05
4.74955e-05
4.99068e-05
4.79978e-05
0.000115366
0.00020716
0.000219325
5.24957e-05
0.00022084
5.47211e-05
0.000109268
0.000115361
0.000207154
0.000219324
5.24887e-05
0.000220837
5.4714e-05
0.000109265
4.61549e-05
4.84954e-05
4.81305e-05
4.38426e-05
4.61534e-05
4.84914e-05
4.81274e-05
4.38412e-05
2.60467e-05
2.59387e-05
2.60452e-05
2.5937e-05
0.000186545
3.01788e-05
3.01644e-05
3.02042e-05
3.01989e-05
2.57387e-05
2.58826e-05
2.57371e-05
2.58811e-05
2.56767e-05
2.55217e-05
2.56743e-05
2.55185e-05
3.01971e-05
3.01895e-05
0.000176376
3.03744e-05
3.03637e-05
2.5303e-05
2.54559e-05
2.52999e-05
2.54534e-05
0.000173317
3.08331e-05
3.08485e-05
3.0489e-05
3.04807e-05
4.14277e-05
4.85835e-05
4.32457e-05
4.88363e-05
0.000102118
5.1879e-05
0.000217771
0.000200388
0.00010738
5.00766e-05
0.000216179
0.000102115
5.18723e-05
0.000217767
0.000200381
0.000107378
5.00703e-05
0.000216177
4.09869e-05
4.90627e-05
4.88943e-05
3.95699e-05
4.09858e-05
4.90605e-05
4.8894e-05
3.95683e-05
0.000100457
0.000198157