/*--------------------------------*- C++ -*----------------------------------*\
| =========                 |                                                 |
| \\      /  F ield         | OpenFOAM: The Open Source CFD Toolbox           |
|  \\    /   O peration     | Version:  v2006                                 |
|   \\  /    A nd           | Website:  www.openfoam.com                      |
|    \\/     M anipulation  |                                                 |
\*---------------------------------------------------------------------------*/
FoamFile
{
    version     2.0;
    format      ascii;
    class       surfaceScalarField;
    location    "875";
    object      phi;
}
// * * * * * * * * * * * * * * * * * * * * * * * * * * * * * * * * * * * * * //

dimensions      [0 3 -1 0 0 0 0];
oriented        oriented;


internalField   nonuniform List<scalar> 
124908
(
-0.00104223
-1.45853e-05
-1.44545e-05
9.30208e-06
9.17293e-06
0.00105279
-0.00026145
-5.64161e-06
1.44815e-05
6.83423e-06
0.00105937
-4.53257e-06
-1.62224e-06
-2.21533e-06
-2.5781e-06
-6.5915e-06
-7.04683e-06
-3.1663e-06
-0.000263298
-0.000259722
-0.000262822
-0.00026145
-5.64168e-06
1.44963e-05
6.86599e-06
0.00105933
-4.53278e-06
-1.62737e-06
-2.21807e-06
-2.58064e-06
-6.59142e-06
-7.04688e-06
-3.16625e-06
-0.00025972
-0.000263298
-0.000262822
-0.000260559
5.61725e-06
5.65981e-06
-4.88072e-06
-4.8719e-06
0.000259035
-1.62176e-06
-1.62825e-06
-0.00106082
8.98315e-07
8.9409e-07
0.00106228
-0.0010626
-1.60653e-06
1.63333e-06
8.17945e-07
0.00106389
-6.53791e-07
7.84511e-07
-1.48117e-07
3.7533e-07
-8.03462e-07
-1.39759e-06
-2.9064e-07
-0.00106252
-1.60414e-06
1.63376e-06
8.2871e-07
0.0010638
-6.53992e-07
7.81635e-07
-1.48297e-07
3.7273e-07
-8.03379e-07
-1.39489e-06
-2.90579e-07
-0.000261521
1.63672e-06
1.59916e-06
-7.08221e-07
-7.16444e-07
0.000259709
-1.36146e-06
-1.36754e-06
-0.00106647
6.87332e-07
6.83181e-07
0.00106783
-0.00106783
-1.55709e-06
1.36737e-06
6.90433e-07
0.00106918
-6.24546e-07
8.38541e-07
-1.0655e-07
4.27138e-07
-7.80483e-07
-1.35733e-06
-2.42678e-07
-0.00106774
-1.55712e-06
1.36762e-06
6.90478e-07
0.00106909
-6.24523e-07
8.35838e-07
-1.04124e-07
4.24474e-07
-7.80482e-07
-1.35474e-06
-2.42595e-07
-0.00026275
1.58726e-06
1.54949e-06
-6.74938e-07
-6.8054e-07
0.000260969
-1.34128e-06
-1.34209e-06
-0.00107194
6.64304e-07
6.65429e-07
0.00107329
-0.00107319
-1.55549e-06
1.34194e-06
6.67258e-07
0.00107451
-6.17166e-07
8.63625e-07
-8.41084e-08
4.38156e-07
-7.79412e-07
-1.36901e-06
-2.20443e-07
-0.0010731
-1.55279e-06
1.342e-06
6.67339e-07
0.00107441
-6.19798e-07
8.61031e-07
-8.15386e-08
4.38747e-07
-7.79416e-07
-1.36687e-06
-2.1761e-07
-0.000264031
1.58313e-06
1.54248e-06
-6.59331e-07
-6.70094e-07
0.000262235
-1.29629e-06
-1.29679e-06
-0.00107729
6.42155e-07
6.43318e-07
0.00107859
-0.00107837
-1.54743e-06
1.29692e-06
6.34036e-07
0.00107963
-6.04714e-07
8.91721e-07
-5.83744e-08
4.59345e-07
-7.68326e-07
-1.37123e-06
-1.89381e-07
-0.00107828
-1.54472e-06
1.29674e-06
6.34059e-07
0.00107954
-6.07472e-07
8.88841e-07
-5.61588e-08
4.5851e-07
-7.67953e-07
-1.36882e-06
-1.88956e-07
-0.00026525
1.57517e-06
1.53423e-06
-6.42247e-07
-6.53139e-07
0.000263436
-1.24884e-06
-1.24927e-06
-0.00108244
6.20361e-07
6.21507e-07
0.0010837
-0.00108331
-1.53937e-06
1.24924e-06
6.04306e-07
0.0010845
-5.93301e-07
9.17482e-07
-3.60887e-08
4.83994e-07
-7.53893e-07
-1.36816e-06
-1.58511e-07
-0.00108322
-1.53649e-06
1.24906e-06
6.04522e-07
0.00108441
-5.95708e-07
9.14247e-07
-3.45896e-08
4.83992e-07
-7.53584e-07
-1.36667e-06
-1.57832e-07
-0.000266396
1.56674e-06
1.52552e-06
-6.24946e-07
-6.35954e-07
0.000264564
-1.20481e-06
-1.20466e-06
-0.00108739
6.00716e-07
6.02003e-07
0.0010886
-0.00108799
-1.53245e-06
1.20479e-06
5.8062e-07
0.00108913
-5.83347e-07
9.38816e-07
-1.96539e-08
5.11631e-07
-7.393e-07
-1.36435e-06
-1.29975e-07
-0.0010879
-1.5291e-06
1.20493e-06
5.80822e-07
0.00108903
-5.84387e-07
9.36831e-07
-1.64309e-08
5.06591e-07
-7.40188e-07
-1.3631e-06
-1.29819e-07
-0.000267467
1.56091e-06
1.5196e-06
-6.11939e-07
-6.22993e-07
0.000265622
-1.16532e-06
-1.16659e-06
-0.00109215
5.8421e-07
5.85356e-07
0.00109331
-0.00109245
-1.52646e-06
1.16571e-06
5.61668e-07
0.00109352
-5.73979e-07
9.60679e-07
-1.43597e-09
5.34864e-07
-7.27243e-07
-1.36318e-06
-1.05533e-07
-0.00109235
-1.52501e-06
1.16657e-06
5.62084e-07
0.00109343
-5.79188e-07
9.5869e-07
1.31995e-09
5.26932e-07
-7.27964e-07
-1.35742e-06
-1.05865e-07
-0.000268469
1.55652e-06
1.5149e-06
-5.98819e-07
-6.09842e-07
0.000266606
-1.1323e-06
-1.13372e-06
-0.00109674
5.70618e-07
5.71337e-07
0.00109787
-0.00109669
-1.52703e-06
1.13502e-06
5.50031e-07
0.00109772
-5.75079e-07
9.76698e-07
1.02604e-08
5.53243e-07
-7.17726e-07
-1.35996e-06
-8.25907e-08
-0.0010966
-1.52389e-06
1.13289e-06
5.49211e-07
0.00109763
-5.75308e-07
9.72975e-07
1.25656e-08
5.54866e-07
-7.17551e-07
-1.3538e-06
-8.29215e-08
-0.000269412
1.55453e-06
1.51313e-06
-5.89916e-07
-6.00542e-07
0.000267535
-1.10378e-06
-1.10436e-06
-0.00110118
5.58701e-07
5.5953e-07
0.00110227
-0.00110075
-1.52555e-06
1.10265e-06
5.36733e-07
0.00110173
-5.67418e-07
9.91945e-07
3.05581e-08
5.78845e-07
-7.08258e-07
-1.3529e-06
-6.51306e-08
-0.00110065
-1.52371e-06
1.10377e-06
5.36935e-07
0.00110164
-5.73792e-07
9.91385e-07
3.65002e-08
5.71313e-07
-7.08286e-07
-1.35355e-06
-6.55001e-08
-0.000270291
1.55474e-06
1.51253e-06
-5.82446e-07
-5.93729e-07
0.0002684
-1.07883e-06
-1.0802e-06
-0.0011055
5.49097e-07
5.49701e-07
0.00110656
-0.00110463
-1.52839e-06
1.07874e-06
5.28488e-07
0.00110557
-5.72589e-07
1.00612e-06
3.88063e-08
6.00985e-07
-6.98184e-07
-1.35007e-06
-4.78023e-08
-0.00110454
-1.52577e-06
1.07868e-06
5.28645e-07
0.00110548
-5.75224e-07
1.00361e-06
4.16753e-08
5.95877e-07
-6.98485e-07
-1.34774e-06
-4.84129e-08
-0.00027112
1.55611e-06
1.51459e-06
-5.79034e-07
-5.89698e-07
0.000269218
-1.05454e-06
-1.05611e-06
-0.0011097
5.39608e-07
5.40014e-07
0.00111073
-0.00110836
-1.52843e-06
1.05733e-06
5.19049e-07
0.00110926
-5.64751e-07
1.01979e-06
5.56312e-08
6.10557e-07
-6.89847e-07
-1.35075e-06
-3.6616e-08
-0.00110827
-1.52502e-06
1.05485e-06
5.18012e-07
0.00110917
-5.66494e-07
1.01679e-06
5.89247e-08
6.13243e-07
-6.88584e-07
-1.34772e-06
-3.57337e-08
-0.000271892
1.55857e-06
1.51616e-06
-5.73046e-07
-5.84286e-07
0.000269974
-1.03241e-06
-1.03448e-06
-0.00111379
5.30414e-07
5.30513e-07
0.00111479
-0.00111193
-1.53254e-06
1.0381e-06
5.13461e-07
0.00111282
-5.7304e-07
1.03111e-06
5.05017e-08
6.3387e-07
-6.78676e-07
-1.3478e-06
-1.93075e-08
-0.00111184
-1.52993e-06
1.03724e-06
5.13775e-07
0.00111272
-5.75936e-07
1.02781e-06
5.19519e-08
6.33147e-07
-6.78891e-07
-1.34371e-06
-1.86907e-08
-0.000272612
1.56245e-06
1.51947e-06
-5.74076e-07
-5.86005e-07
0.00027069
-1.018e-06
-1.01743e-06
-0.00111778
5.24021e-07
5.25213e-07
0.00111876
-0.00111537
-1.53717e-06
1.01478e-06
5.04044e-07
0.00111621
-5.81031e-07
1.04468e-06
6.51928e-08
6.54477e-07
-6.60015e-07
-1.33242e-06
-8.70618e-09
-0.00111527
-1.53446e-06
1.01581e-06
5.04749e-07
0.00111611
-5.83046e-07
1.04223e-06
6.86441e-08
6.4941e-07
-6.61466e-07
-1.33247e-06
-9.72448e-09
-0.000273288
1.56179e-06
1.51906e-06
-5.65774e-07
-5.76835e-07
0.00027135
-9.89077e-07
-9.88134e-07
-0.00112167
5.10023e-07
5.11535e-07
0.00112263
-0.00111865
-1.53294e-06
9.92292e-07
4.84066e-07
0.00111943
-5.63897e-07
1.06284e-06
8.95097e-08
6.66567e-07
-6.50042e-07
-1.32698e-06
-6.06275e-10
-0.00111855
-1.52753e-06
9.92808e-07
4.83942e-07
0.00111933
-5.59071e-07
1.06009e-06
9.32647e-08
6.56352e-07
-6.5182e-07
-1.3289e-06
-4.7309e-09
-0.000273898
1.56334e-06
1.52102e-06
-5.57554e-07
-5.68123e-07
0.000271939
-9.83993e-07
-9.88076e-07
-0.00112547
5.15808e-07
5.12961e-07
0.00112641
-0.00112179
-1.53154e-06
9.588e-07
4.63952e-07
0.00112254
-5.57415e-07
1.07888e-06
1.084e-07
6.79189e-07
-6.33035e-07
-1.31701e-06
8.15576e-09
-0.00112168
-1.53199e-06
9.72527e-07
4.84369e-07
0.00112244
-5.62117e-07
1.06663e-06
8.81675e-08
6.72072e-07
-6.3762e-07
-1.31913e-06
6.0323e-09
-0.000274456
1.56133e-06
1.51854e-06
-5.50833e-07
-5.61915e-07
0.000272489
-9.42358e-07
-9.39274e-07
-0.00112916
4.84133e-07
4.89144e-07
0.00113007
-0.00112471
-1.53856e-06
9.62816e-07
4.90744e-07
0.00112543
-5.63478e-07
1.07158e-06
7.7929e-08
6.8789e-07
-6.18961e-07
-1.31056e-06
2.15783e-08
-0.00112463
-1.52247e-06
9.45007e-07
4.5964e-07
0.00112533
-5.40118e-07
1.08362e-06
1.03272e-07
6.83183e-07
-6.19623e-07
-1.308e-06
1.95207e-08
-0.00027495
1.56258e-06
1.52063e-06
-5.46424e-07
-5.57182e-07
0.000272971
-9.3005e-07
-9.31858e-07
-0.00113277
4.85451e-07
4.80174e-07
0.00113367
-0.00112752
-1.52532e-06
9.31842e-07
4.52166e-07
0.0011282
-5.353e-07
1.09194e-06
1.00547e-07
6.94408e-07
-6.08194e-07
-1.30463e-06
2.86511e-08
-0.00112746
-1.53025e-06
9.282e-07
4.46353e-07
0.00112813
-5.45253e-07
1.09511e-06
1.16572e-07
6.91346e-07
-6.02747e-07
-1.29446e-06
2.37592e-08
-0.000275378
1.57514e-06
1.53229e-06
-5.47968e-07
-5.59108e-07
0.000273378
-8.90127e-07
-8.86793e-07
-0.0011363
4.59888e-07
4.66084e-07
0.00113715
-0.00113014
-1.53027e-06
9.15355e-07
4.62726e-07
0.00113078
-5.41976e-07
1.09241e-06
9.37855e-08
7.06896e-07
-5.87285e-07
-1.29015e-06
4.0325e-08
-0.00113008
-1.52275e-06
8.94248e-07
4.27508e-07
0.0011307
-5.30471e-07
1.10683e-06
1.2391e-07
7.03563e-07
-5.83275e-07
-1.27926e-06
3.43931e-08
-0.000275751
1.53561e-06
1.4937e-06
-5.00072e-07
-5.10281e-07
0.000273732
-8.91462e-07
-8.98776e-07
-0.00113972
4.76582e-07
4.67045e-07
0.00114056
-0.00113263
-1.51255e-06
8.68128e-07
4.03197e-07
0.0011332
-5.0124e-07
1.12287e-06
1.3349e-07
7.13013e-07
-5.72732e-07
-1.27501e-06
4.20104e-08
-0.00113252
-1.53497e-06
9.00824e-07
4.60721e-07
0.00113312
-5.41799e-07
1.09825e-06
1.04166e-07
7.10227e-07
-5.66695e-07
-1.26437e-06
4.15071e-08
-0.000276034
1.54769e-06
1.50301e-06
-5.03918e-07
-5.15959e-07
0.000274004
-8.54838e-07
-8.51929e-07
-0.00114305
4.44347e-07
4.50205e-07
0.00114386
-0.0011349
-1.52828e-06
8.75327e-07
4.3967e-07
0.00113544
-5.16981e-07
1.11416e-06
1.16616e-07
7.21696e-07
-5.537e-07
-1.25414e-06
4.92034e-08
-0.0011348
-1.50906e-06
8.60389e-07
4.09945e-07
0.00113534
-5.03826e-07
1.12174e-06
1.28836e-07
7.14504e-07
-5.52451e-07
-1.25338e-06
4.75759e-08
-0.000276252
1.54891e-06
1.50697e-06
-5.01989e-07
-5.12386e-07
0.000274211
5.2165e-06
5.22983e-06
0.000260577
-0.000259171
-5.93213e-06
-5.92035e-06
5.0792e-06
0.000261425
-0.000258697
-5.96238e-06
3.37175e-06
-5.22657e-06
5.07642e-06
0.000261427
-0.000258689
-5.96967e-06
3.38174e-06
5.22193e-06
0.000260567
-0.000259166
-5.90053e-06
-5.94896e-06
5.06716e-06
0.000261481
-0.000258714
-5.96768e-06
3.36396e-06
5.07643e-06
-5.23168e-06
0.000261427
-0.000258686
3.38431e-06
-5.9697e-06
1.06709e-05
1.06176e-05
-0.000252649
-0.000256081
-0.000255118
-0.000255118
-6.415e-06
-4.12538e-06
-6.6599e-06
-6.41778e-06
-4.12093e-06
-6.66524e-06
-5.07456e-06
0.00104219
1.07162e-05
1.06223e-05
-0.000252649
-0.000256074
-0.000255118
-0.000255116
-6.41719e-06
-4.1252e-06
-6.66491e-06
-6.42017e-06
-4.12596e-06
-6.66277e-06
-5.07462e-06
0.00104215
1.07287e-05
1.06429e-05
-0.000252646
-0.000256079
-0.000255113
-0.000255118
-6.4199e-06
-4.12775e-06
-6.66486e-06
-6.41776e-06
-4.12333e-06
-6.66519e-06
-5.08391e-06
-5.07435e-06
0.00104213
1.07311e-05
1.06754e-05
-0.000252646
-0.000256074
-0.000255113
-0.000255118
-6.41974e-06
-4.13031e-06
-6.66751e-06
-6.41742e-06
-4.12575e-06
-6.66766e-06
-0.000258704
-5.95991e-06
3.36138e-06
-5.22384e-06
0.000261404
-0.000258679
3.37909e-06
-5.96448e-06
5.22202e-06
0.000260564
-0.000259168
-5.90055e-06
-5.94905e-06
-0.000258707
3.36654e-06
-5.9625e-06
-5.23465e-06
0.000261458
-0.000258707
3.37654e-06
-5.96724e-06
-0.000259166
-5.9318e-06
-5.92003e-06
5.61239e-06
5.65507e-06
-4.87347e-06
-4.86966e-06
0.000259053
-7.85856e-07
-7.42111e-07
0.000261556
-0.000259472
-2.82098e-07
-2.747e-07
7.02672e-06
0.00105893
-4.52754e-06
-1.57318e-06
-2.20763e-06
-2.57741e-06
-6.60923e-06
-7.05157e-06
-3.17125e-06
-0.000263277
-0.000259697
-0.000262814
-5.6305e-06
1.45484e-05
7.09957e-06
0.00105906
-4.55432e-06
-1.57833e-06
-2.221e-06
-2.58667e-06
-6.63154e-06
-7.06033e-06
-3.18853e-06
-0.00026332
-0.000259694
-0.000262811
0.00106206
2.03431e-06
-0.00106101
9.68546e-07
-1.72569e-06
-1.66535e-07
-6.92105e-07
-1.4684e-06
-3.07757e-07
-8.2828e-07
3.4597e-07
7.83248e-07
0.00106218
2.02913e-06
-0.00106113
9.73822e-07
-1.72078e-06
-1.6416e-07
-6.95051e-07
-1.47069e-06
-3.07588e-07
-8.28241e-07
3.48596e-07
-4.87875e-06
-4.87165e-06
0.000259045
-7.473e-07
0.000261557
-0.000259469
-2.82141e-07
-2.74658e-07
6.80835e-06
0.00105969
-4.55199e-06
-1.63779e-06
-2.22902e-06
-2.58571e-06
-6.61977e-06
-7.06239e-06
-3.17903e-06
-0.000263364
-0.00025974
-0.00026285
-5.62802e-06
1.45638e-05
7.12315e-06
0.00105901
-4.54922e-06
-1.58093e-06
-2.22103e-06
-2.58693e-06
-6.63414e-06
-7.06063e-06
-3.18593e-06
-0.000259692
-0.000263323
-0.000262809
0.00106299
2.03642e-06
-0.00106192
9.6703e-07
-1.68818e-06
-1.71576e-07
-6.92462e-07
-1.46837e-06
-3.1006e-07
-8.25641e-07
3.43047e-07
7.77893e-07
0.0010621
2.03439e-06
-0.00106104
9.79234e-07
-1.72092e-06
-1.69332e-07
-6.95266e-07
-1.46826e-06
-3.09946e-07
-8.28048e-07
3.43118e-07
1.46119e-05
7.11499e-06
0.00105874
-4.52978e-06
-1.58068e-06
-2.21255e-06
-2.58192e-06
-6.60588e-06
-3.17326e-06
-7.04765e-06
-0.000259676
-0.000263259
-0.00026278
2.02605e-06
-0.00106154
9.67284e-07
-1.68792e-06
-1.71388e-07
-6.86886e-07
-1.46585e-06
-3.05191e-07
3.42922e-07
-8.28283e-07
7.75093e-07
0.00106178
2.0293e-06
-0.00106073
9.84194e-07
-1.71814e-06
-1.69161e-07
-6.92281e-07
-1.46294e-06
-3.07524e-07
-8.28032e-07
3.3781e-07
-4.87872e-06
-4.86923e-06
0.000259043
-7.41797e-07
0.000261536
-0.000259462
-2.79935e-07
-2.74791e-07
1.4486e-05
6.90001e-06
0.00105949
-4.55692e-06
-1.64276e-06
-2.23138e-06
-2.58752e-06
-6.61887e-06
-3.17854e-06
-7.05832e-06
-0.000259722
-0.000263341
-0.000262821
2.03666e-06
-0.00106147
9.67722e-07
-1.68807e-06
-1.69096e-07
-6.92338e-07
-1.46327e-06
-3.07657e-07
3.4035e-07
-8.25764e-07
7.39174e-07
0.0010627
2.03679e-06
-0.00106164
9.72598e-07
-1.68065e-06
-1.71674e-07
-6.89967e-07
-1.46551e-06
-3.07487e-07
-8.28175e-07
3.40234e-07
-0.000259444
-2.85147e-07
-2.77596e-07
1.64439e-06
1.60422e-06
-7.10478e-07
-7.16376e-07
0.000259735
-8.69016e-07
-8.30338e-07
0.000262791
-0.000260674
-2.12619e-07
-2.05007e-07
8.24372e-07
0.00106334
-6.58999e-07
8.25723e-07
-1.40782e-07
3.80942e-07
-8.00814e-07
-1.40009e-06
-2.90674e-07
-1.64206e-06
1.63194e-06
8.24494e-07
0.00106346
-6.59302e-07
8.20499e-07
-1.43393e-07
3.83652e-07
-8.03319e-07
-1.40244e-06
-2.88023e-07
0.00106729
1.38328e-06
-0.00106596
7.02133e-07
-1.59694e-06
-1.05943e-07
-6.28627e-07
-1.3549e-06
-2.49188e-07
-7.76992e-07
4.22492e-07
8.69069e-07
0.00106741
1.37796e-06
-0.00106607
7.02306e-07
-1.59456e-06
-1.06086e-07
-6.26215e-07
-1.36002e-06
-2.46586e-07
-7.79597e-07
4.27813e-07
-7.08398e-07
-7.18487e-07
0.000259735
-8.32834e-07
0.000262784
-0.000260664
-2.10059e-07
-2.07542e-07
8.22928e-07
0.00106427
-6.54098e-07
7.8459e-07
-1.4827e-07
3.78031e-07
-8.00866e-07
-1.3949e-06
-2.90568e-07
-1.63698e-06
1.6321e-06
8.30015e-07
0.00106337
-6.56807e-07
8.15173e-07
-1.43512e-07
3.80758e-07
-8.00601e-07
-1.39997e-06
-2.90382e-07
0.00106822
1.37898e-06
-0.00106689
7.06325e-07
-1.55919e-06
-1.08477e-07
-6.26362e-07
-1.35497e-06
-2.49048e-07
-7.77083e-07
4.25115e-07
8.61149e-07
0.00106731
1.37766e-06
-0.00106597
7.02364e-07
-1.58934e-06
-1.06074e-07
-6.28898e-07
-1.35477e-06
-2.48861e-07
-7.76808e-07
4.22543e-07
1.64255e-06
8.24638e-07
0.00106305
-6.56446e-07
8.15017e-07
-1.45839e-07
3.72775e-07
-8.00538e-07
-2.92923e-07
-1.3921e-06
1.37896e-06
-0.0010665
7.01293e-07
-1.56157e-06
-1.08376e-07
-6.26079e-07
-1.35227e-06
-2.46634e-07
4.22214e-07
-7.77032e-07
8.63579e-07
0.00106699
1.37776e-06
-0.00106566
7.07383e-07
-1.58915e-06
-1.06021e-07
-6.28631e-07
-1.35199e-06
-2.51443e-07
-7.76655e-07
4.22389e-07
-7.13788e-07
-7.16007e-07
0.000259725
-8.301e-07
0.000262771
-0.000260662
-2.10205e-07
-2.07548e-07
1.63368e-06
8.28536e-07
0.00106398
-6.54143e-07
7.71143e-07
-1.50849e-07
3.75318e-07
-8.00695e-07
-2.90426e-07
-1.39461e-06
1.37908e-06
-0.00106641
7.06574e-07
-1.5564e-06
-1.08411e-07
-6.26148e-07
-1.35222e-06
-2.4657e-07
4.22327e-07
-7.76951e-07
8.2484e-07
0.00106792
1.38421e-06
-0.00106659
7.01195e-07
-1.55137e-06
-1.11041e-07
-6.23659e-07
-1.35207e-06
-2.51444e-07
-7.76894e-07
4.22303e-07
-0.000260644
-2.10167e-07
-2.0771e-07
1.59508e-06
1.5547e-06
-6.72245e-07
-6.80508e-07
0.000260994
-8.95773e-07
-8.54237e-07
0.000264078
-0.00026195
-1.94359e-07
-1.84024e-07
6.96457e-07
0.00106863
-6.29682e-07
8.77403e-07
-9.92265e-08
4.24626e-07
-7.7792e-07
-1.35483e-06
-2.4519e-07
-1.5927e-06
1.36665e-06
6.91413e-07
0.00106875
-6.29949e-07
8.74867e-07
-9.9265e-08
4.29792e-07
-7.80496e-07
-1.3598e-06
-2.42722e-07
0.00107264
1.34997e-06
-0.00107131
6.75933e-07
-1.59507e-06
-8.31744e-08
-6.27513e-07
-1.37245e-06
-2.25171e-07
-7.83617e-07
4.38943e-07
8.93222e-07
0.00107276
1.34981e-06
-0.00107143
6.76e-07
-1.59275e-06
-8.31771e-08
-6.2797e-07
-1.37201e-06
-2.25034e-07
-7.83435e-07
4.39133e-07
-6.75298e-07
-6.80108e-07
0.000260989
-8.56864e-07
0.000264068
-0.000261945
-1.89059e-07
-1.83884e-07
6.90235e-07
0.00106957
-6.24781e-07
8.36059e-07
-1.06655e-07
4.24436e-07
-7.78007e-07
-1.35743e-06
-2.45138e-07
-1.59015e-06
1.36633e-06
6.91457e-07
0.00106866
-6.29972e-07
8.72189e-07
-1.01758e-07
4.24536e-07
-7.77675e-07
-1.35462e-06
-2.45029e-07
0.00107358
1.35068e-06
-0.00107225
6.7495e-07
-1.5545e-06
-9.06332e-08
-6.1992e-07
-1.36969e-06
-2.25097e-07
-7.83667e-07
4.36313e-07
8.90515e-07
0.00107266
1.34946e-06
-0.00107133
6.76066e-07
-1.59006e-06
-8.57394e-08
-6.2517e-07
-1.36945e-06
-2.24952e-07
-7.83292e-07
4.3656e-07
1.36639e-06
6.91266e-07
0.00106834
-6.26979e-07
8.66689e-07
-1.04194e-07
4.21876e-07
-7.77591e-07
-2.44999e-07
-1.35455e-06
1.35061e-06
-0.00107187
6.75037e-07
-1.55693e-06
-9.0371e-08
-6.19807e-07
-1.36759e-06
-2.27456e-07
4.3379e-07
-7.81012e-07
8.85146e-07
0.00107234
1.34963e-06
-0.00107102
6.75927e-07
-1.58459e-06
-8.5383e-08
-6.24902e-07
-1.36688e-06
-2.25063e-07
-7.83268e-07
4.33553e-07
-6.75411e-07
-6.77546e-07
0.000260976
-8.54112e-07
0.000264055
-0.000261932
-1.91816e-07
-1.86608e-07
1.36235e-06
6.95538e-07
0.00106927
-6.22063e-07
8.27923e-07
-1.09159e-07
4.21609e-07
-7.778e-07
-2.45054e-07
-1.35448e-06
1.35074e-06
-0.00107177
6.75125e-07
-1.5543e-06
-8.8036e-08
-6.22405e-07
-1.36703e-06
-2.2756e-07
4.30797e-07
-7.83545e-07
8.43569e-07
0.00107328
1.35055e-06
-0.00107196
6.7493e-07
-1.54404e-06
-9.28716e-08
-6.17331e-07
-1.36664e-06
-2.25052e-07
-7.83387e-07
4.33545e-07
-0.000261924
-1.94349e-07
-1.83941e-07
1.59368e-06
1.55303e-06
-6.59355e-07
-6.70147e-07
0.000262261
-9.23844e-07
-8.82192e-07
0.000265297
-0.000263168
-1.66595e-07
-1.56213e-07
6.68192e-07
0.00107395
-6.25107e-07
9.02738e-07
-7.6652e-08
4.44295e-07
-7.81998e-07
-1.37481e-06
-2.17786e-07
-1.59116e-06
1.34121e-06
6.68268e-07
0.00107407
-6.25098e-07
9.00152e-07
-7.68084e-08
4.44023e-07
-7.82166e-07
-1.37491e-06
-2.17517e-07
0.00107781
1.30845e-06
-0.00107654
6.43393e-07
-1.58786e-06
-5.77601e-08
-6.15767e-07
-1.37812e-06
-1.94208e-07
-7.74403e-07
4.59857e-07
9.2129e-07
0.00107793
1.30831e-06
-0.00107666
6.4337e-07
-1.58558e-06
-5.77385e-08
-6.16267e-07
-1.37687e-06
-1.94461e-07
-7.74279e-07
4.58966e-07
-6.64916e-07
-6.69586e-07
0.000262255
-8.84633e-07
0.000265287
-0.000263163
-1.61518e-07
-1.56162e-07
6.67241e-07
0.00107489
-6.17455e-07
8.61273e-07
-8.39798e-08
4.41274e-07
-7.82241e-07
-1.37244e-06
-2.17667e-07
-1.58856e-06
1.34089e-06
6.68337e-07
0.00107397
-6.22535e-07
8.97594e-07
-7.91227e-08
4.41347e-07
-7.81998e-07
-1.37232e-06
-2.17499e-07
0.00107876
1.30917e-06
-0.00107748
6.42392e-07
-1.54719e-06
-6.50579e-08
-6.08232e-07
-1.37455e-06
-1.9449e-07
-7.7451e-07
4.56156e-07
9.18633e-07
0.00107784
1.30803e-06
-0.00107656
6.43473e-07
-1.5829e-06
-6.024e-08
-6.13462e-07
-1.37421e-06
-1.94385e-07
-7.74246e-07
4.56238e-07
1.34095e-06
6.68179e-07
0.00107366
-6.2228e-07
8.91839e-07
-7.94777e-08
4.38997e-07
-7.81751e-07
-2.17474e-07
-1.36924e-06
1.30889e-06
-0.0010771
6.42289e-07
-1.54949e-06
-6.50502e-08
-6.07983e-07
-1.37268e-06
-1.9661e-07
4.54984e-07
-7.71646e-07
9.13305e-07
0.00107752
1.30809e-06
-0.00107625
6.43347e-07
-1.57733e-06
-5.96425e-08
-6.13043e-07
-1.37211e-06
-1.94366e-07
-7.74297e-07
4.5375e-07
-6.62372e-07
-6.67002e-07
0.000262243
-8.82057e-07
0.000265274
-0.00026315
-1.64032e-07
-1.58749e-07
1.342e-06
6.67256e-07
0.0010746
-6.14637e-07
8.50357e-07
-8.68185e-08
4.38518e-07
-7.82108e-07
-2.17423e-07
-1.36952e-06
1.30915e-06
-0.00107701
6.42554e-07
-1.54691e-06
-6.2561e-08
-6.10647e-07
-1.36947e-06
-1.96845e-07
4.50862e-07
-7.71842e-07
8.71564e-07
0.00107846
1.30896e-06
-0.00107719
6.42272e-07
-1.53664e-06
-6.70448e-08
-6.05491e-07
-1.37137e-06
-1.94561e-07
-7.74387e-07
4.53339e-07
-0.000263143
-1.66425e-07
-1.5594e-07
1.58589e-06
1.54489e-06
-6.42453e-07
-6.53487e-07
0.000263462
-9.50278e-07
-9.08733e-07
0.000266442
-0.000264315
-1.39133e-07
-1.28931e-07
6.35068e-07
0.00107907
-6.12855e-07
9.30801e-07
-5.13121e-08
4.65302e-07
-7.7074e-07
-1.37646e-06
-1.86683e-07
-1.58323e-06
1.29588e-06
6.2959e-07
0.00107919
-6.12607e-07
9.28195e-07
-5.13304e-08
4.66837e-07
-7.70628e-07
-1.37712e-06
-1.86221e-07
0.00108274
1.26044e-06
-0.00108153
6.12181e-07
-1.57928e-06
-3.41945e-08
-6.02777e-07
-1.37454e-06
-1.64012e-07
-7.60095e-07
4.8268e-07
9.47602e-07
0.00108286
1.26067e-06
-0.00108166
6.17795e-07
-1.57694e-06
-3.47127e-08
-6.03152e-07
-1.37557e-06
-1.63449e-07
-7.6055e-07
4.82385e-07
-6.48186e-07
-6.52793e-07
0.000263457
-9.10685e-07
0.000266432
-0.000264309
-1.34992e-07
-1.29474e-07
6.33956e-07
0.00108002
-6.04999e-07
8.89024e-07
-5.87226e-08
4.64093e-07
-7.70854e-07
-1.3747e-06
-1.86281e-07
-1.58066e-06
1.29569e-06
6.3502e-07
0.00107909
-6.10198e-07
9.25513e-07
-5.37966e-08
4.64074e-07
-7.70473e-07
-1.37434e-06
-1.86321e-07
0.00108369
1.26121e-06
-0.00108248
6.1135e-07
-1.53823e-06
-4.12025e-08
-5.94961e-07
-1.37316e-06
-1.63742e-07
-7.60647e-07
4.79527e-07
9.45062e-07
0.00108277
1.25988e-06
-0.00108156
6.1225e-07
-1.57391e-06
-3.67756e-08
-5.99975e-07
-1.37379e-06
-1.63017e-07
-7.60224e-07
4.81929e-07
1.29584e-06
6.34965e-07
0.00107877
-6.09908e-07
9.19633e-07
-5.43623e-08
4.61266e-07
-7.70249e-07
-1.86444e-07
-1.37107e-06
1.26095e-06
-0.0010821
6.11331e-07
-1.54057e-06
-4.20381e-08
-5.94731e-07
-1.37167e-06
-1.65631e-07
4.79467e-07
-7.57558e-07
9.3975e-07
0.00108245
1.26037e-06
-0.00108124
6.12456e-07
-1.56897e-06
-3.67525e-08
-6.00893e-07
-1.37076e-06
-1.6283e-07
-7.60128e-07
4.77607e-07
-6.45631e-07
-6.50253e-07
0.000263444
-9.08524e-07
0.000266418
-0.000264297
-1.36641e-07
-1.31589e-07
1.29673e-06
6.34018e-07
0.00107972
-6.0212e-07
8.78005e-07
-6.16316e-08
4.61252e-07
-7.70568e-07
-1.8615e-07
-1.37191e-06
1.26129e-06
-0.001082
6.11508e-07
-1.53798e-06
-3.89062e-08
-5.97422e-07
-1.36777e-06
-1.66137e-07
4.73679e-07
-7.57926e-07
8.97824e-07
0.0010834
1.26106e-06
-0.00108219
6.11302e-07
-1.52818e-06
-4.40587e-08
-5.93381e-07
-1.36934e-06
-1.63117e-07
-7.60289e-07
4.76924e-07
-0.000264289
-1.39595e-07
-1.28999e-07
1.57772e-06
1.53677e-06
-6.26081e-07
-6.36782e-07
0.00026459
-9.74694e-07
-9.32967e-07
0.000267515
-0.00026539
-1.13998e-07
-1.0362e-07
6.05534e-07
0.00108394
-6.00883e-07
9.56326e-07
-2.9962e-08
4.91273e-07
-7.56472e-07
-1.37518e-06
-1.55285e-07
-1.57526e-06
1.24825e-06
5.99823e-07
0.00108406
-6.01166e-07
9.54022e-07
-2.92044e-08
4.9173e-07
-7.55952e-07
-1.37407e-06
-1.55547e-07
0.00108742
1.21515e-06
-0.00108628
5.86883e-07
-1.57277e-06
-1.38863e-08
-5.93394e-07
-1.37286e-06
-1.34767e-07
-7.46277e-07
5.09899e-07
9.72142e-07
0.00108754
1.21501e-06
-0.0010864
5.92147e-07
-1.56971e-06
-1.36897e-08
-5.91901e-07
-1.36999e-06
-1.34773e-07
-7.46933e-07
5.07595e-07
-6.31934e-07
-6.36493e-07
0.000264586
-9.35337e-07
0.000267503
-0.000265384
-1.08511e-07
-1.03332e-07
6.04384e-07
0.00108489
-5.93228e-07
9.1433e-07
-3.72305e-08
4.88582e-07
-7.56482e-07
-1.37167e-06
-1.5545e-07
-1.57292e-06
1.24863e-06
6.05659e-07
0.00108396
-5.98795e-07
9.51274e-07
-3.20624e-08
4.86274e-07
-7.56437e-07
-1.37084e-06
-1.55926e-07
0.00108838
1.21585e-06
-0.00108723
5.86129e-07
-1.53163e-06
-2.0655e-08
-5.85652e-07
-1.37035e-06
-1.34938e-07
-7.46645e-07
5.04966e-07
9.69425e-07
0.00108745
1.21432e-06
-0.0010863
5.86659e-07
-1.56713e-06
-1.59924e-08
-5.90182e-07
-1.37021e-06
-1.34619e-07
-7.45763e-07
5.07366e-07
1.24817e-06
6.05152e-07
0.00108364
-5.97006e-07
9.45625e-07
-3.13782e-08
4.85197e-07
-7.56379e-07
-1.56412e-07
-1.36823e-06
1.21562e-06
-0.00108684
5.85907e-07
-1.53349e-06
-2.05299e-08
-5.83839e-07
-1.36736e-06
-1.37795e-07
5.01068e-07
-7.44345e-07
9.62333e-07
0.00108713
1.21495e-06
-0.00108598
5.87125e-07
-1.56172e-06
-1.86611e-08
-5.90165e-07
-1.36733e-06
-1.33985e-07
-7.45594e-07
5.04504e-07
-6.29203e-07
-6.34237e-07
0.000264572
-9.32665e-07
0.000267491
-0.000265371
-1.11311e-07
-1.06189e-07
1.24891e-06
6.04199e-07
0.00108459
-5.89091e-07
9.03854e-07
-3.85279e-08
4.85752e-07
-7.56604e-07
-1.56055e-07
-1.3697e-06
1.21567e-06
-0.00108675
5.85924e-07
-1.5313e-06
-1.8122e-08
-5.87887e-07
-1.36334e-06
-1.37892e-07
4.98967e-07
-7.4375e-07
9.20544e-07
0.00108808
1.21581e-06
-0.00108693
5.86219e-07
-1.52072e-06
-2.55677e-08
-5.82576e-07
-1.36695e-06
-1.34175e-07
-7.4604e-07
5.02428e-07
-0.000265361
-1.16725e-07
-1.0633e-07
1.57066e-06
1.52939e-06
-6.09287e-07
-6.20222e-07
0.000265644
-9.94563e-07
-9.52373e-07
0.000268518
-0.000266392
-9.4936e-08
-8.41217e-08
5.81668e-07
0.00108856
-5.89793e-07
9.78893e-07
-1.16238e-08
5.12887e-07
-7.42742e-07
-1.36928e-06
-1.2824e-07
-1.56883e-06
1.20476e-06
5.76505e-07
0.00108869
-5.91652e-07
9.75923e-07
-1.26265e-08
5.12098e-07
-7.42044e-07
-1.36913e-06
-1.27727e-07
0.00109188
1.17553e-06
-0.00109078
5.68105e-07
-1.56797e-06
-1.77411e-09
-5.85619e-07
-1.37023e-06
-1.07755e-07
-7.34123e-07
5.347e-07
9.92607e-07
0.001092
1.17473e-06
-0.00109091
5.72648e-07
-1.56587e-06
-3.79228e-10
-5.87196e-07
-1.36799e-06
-1.08081e-07
-7.33503e-07
5.35941e-07
-6.16361e-07
-6.21366e-07
0.000265639
-9.55754e-07
0.000268509
-0.000266389
-8.82953e-08
-8.3103e-08
5.80373e-07
0.00108952
-5.81918e-07
9.36709e-07
-1.86374e-08
5.12103e-07
-7.42719e-07
-1.36663e-06
-1.27977e-07
-1.56588e-06
1.20427e-06
5.81746e-07
0.00108858
-5.87658e-07
9.73596e-07
-1.43036e-08
5.1082e-07
-7.43044e-07
-1.36614e-06
-1.27882e-07
0.00109284
1.1761e-06
-0.00109174
5.67131e-07
-1.52667e-06
-7.95022e-09
-5.77918e-07
-1.3669e-06
-1.08012e-07
-7.34424e-07
5.31452e-07
9.89409e-07
0.0010919
1.1755e-06
-0.00109081
5.6818e-07
-1.56308e-06
-3.28625e-09
-5.84053e-07
-1.36707e-06
-1.08598e-07
-7.33623e-07
5.30705e-07
1.20437e-06
5.81494e-07
0.00108826
-5.88813e-07
9.69448e-07
-1.21288e-08
5.07977e-07
-7.42844e-07
-1.28278e-07
-1.36353e-06
1.17645e-06
-0.00109135
5.67034e-07
-1.53002e-06
-6.58168e-09
-5.79733e-07
-1.36095e-06
-1.11796e-07
5.249e-07
-7.31754e-07
9.84934e-07
0.00109158
1.17438e-06
-0.00109049
5.66876e-07
-1.55622e-06
9.62248e-11
-5.8113e-07
-1.36396e-06
-1.09348e-07
-7.33231e-07
5.28308e-07
-6.1271e-07
-6.17906e-07
0.000265627
-9.51705e-07
0.000268496
-0.000266374
-9.32063e-08
-8.71447e-08
1.20454e-06
5.80185e-07
0.00108922
-5.80947e-07
9.27242e-07
-1.91922e-08
5.09229e-07
-7.42781e-07
-1.28138e-07
-1.3633e-06
1.17542e-06
-0.00109126
5.66892e-07
-1.52678e-06
-5.77042e-09
-5.81372e-07
-1.35889e-06
-1.11293e-07
5.28157e-07
-7.30527e-07
9.4275e-07
0.00109253
1.17478e-06
-0.00109144
5.65905e-07
-1.515e-06
-6.388e-09
-5.73489e-07
-1.36315e-06
-1.09593e-07
-7.33543e-07
5.2819e-07
-0.000266367
-9.21951e-08
-8.15204e-08
1.56751e-06
1.52569e-06
-5.99388e-07
-6.10359e-07
0.000266635
-1.01407e-06
-9.71793e-07
0.000269453
-0.000267335
-7.02914e-08
-6.18433e-08
5.62685e-07
0.00109296
-5.8609e-07
9.99754e-07
7.12105e-09
5.38027e-07
-7.2965e-07
-1.36318e-06
-1.04315e-07
-1.56405e-06
1.16526e-06
5.57178e-07
0.00109308
-5.83363e-07
9.97368e-07
8.10842e-09
5.35687e-07
-7.30388e-07
-1.36472e-06
-1.04179e-07
0.00109612
1.13941e-06
-0.00109508
5.51605e-07
-1.56492e-06
2.29882e-08
-5.80061e-07
-1.36403e-06
-8.87906e-08
-7.20564e-07
5.5158e-07
1.01089e-06
0.00109624
1.13979e-06
-0.0010952
5.5209e-07
-1.56211e-06
2.17665e-08
-5.78046e-07
-1.3682e-06
-8.72271e-08
-7.24512e-07
5.54196e-07
-6.02054e-07
-6.0794e-07
0.000266628
-9.72115e-07
0.000269445
-0.000267328
-7.06608e-08
-6.3804e-08
5.62402e-07
0.00109392
-5.7786e-07
9.57962e-07
-1.99935e-09
5.34544e-07
-7.29982e-07
-1.36158e-06
-1.04136e-07
-1.56153e-06
1.1644e-06
5.62269e-07
0.00109298
-5.8198e-07
9.95087e-07
4.43748e-09
5.36132e-07
-7.29957e-07
-1.36092e-06
-1.03206e-07
0.00109708
1.14038e-06
-0.00109604
5.50795e-07
-1.52315e-06
1.38466e-08
-5.71684e-07
-1.36417e-06
-8.5896e-08
-7.23109e-07
5.53083e-07
1.00841e-06
0.00109614
1.13962e-06
-0.0010951
5.52238e-07
-1.56016e-06
2.03181e-08
-5.77334e-07
-1.36361e-06
-8.79413e-08
-7.23465e-07
5.50779e-07
1.16588e-06
5.63854e-07
0.00109266
-5.81475e-07
9.8753e-07
-1.15148e-09
5.32888e-07
-7.30658e-07
-1.02846e-07
-1.35872e-06
1.14005e-06
-0.00109565
5.51092e-07
-1.52632e-06
1.07759e-08
-5.70324e-07
-1.35615e-06
-9.06912e-08
5.51766e-07
-7.20749e-07
1.0012e-06
0.00109582
1.14041e-06
-0.00109478
5.53605e-07
-1.55576e-06
1.23204e-08
-5.80617e-07
-1.35979e-06
-8.57718e-08
-7.22872e-07
5.52717e-07
-6.01679e-07
-6.0611e-07
0.000266617
-9.71251e-07
0.000269433
-0.000267316
-7.16435e-08
-6.59467e-08
1.16686e-06
5.6299e-07
0.00109362
-5.73508e-07
9.45712e-07
-7.13054e-09
5.31406e-07
-7.31007e-07
-1.02719e-07
-1.36004e-06
1.14049e-06
-0.00109555
5.51234e-07
-1.52318e-06
1.73637e-08
-5.74033e-07
-1.35936e-06
-8.99972e-08
5.46734e-07
-7.2068e-07
9.59382e-07
0.00109678
1.14204e-06
-0.00109574
5.52894e-07
-1.51392e-06
2.6943e-09
-5.72224e-07
-1.36116e-06
-8.52285e-08
-7.22906e-07
5.52422e-07
-0.000267307
-7.73655e-08
-6.67215e-08
1.56596e-06
1.52459e-06
-5.93381e-07
-6.01155e-07
0.000267557
-1.02669e-06
-9.84571e-07
0.000270336
-0.000268214
-5.94458e-08
-5.12325e-08
5.50522e-07
0.00109715
-5.80364e-07
1.01454e-06
1.89376e-08
5.60279e-07
-7.17932e-07
-1.35913e-06
-8.50671e-08
-1.56403e-06
1.13169e-06
5.50378e-07
0.00109727