/*--------------------------------*- C++ -*----------------------------------*\
| =========                 |                                                 |
| \\      /  F ield         | OpenFOAM: The Open Source CFD Toolbox           |
|  \\    /   O peration     | Version:  v2006                                 |
|   \\  /    A nd           | Website:  www.openfoam.com                      |
|    \\/     M anipulation  |                                                 |
\*---------------------------------------------------------------------------*/
FoamFile
{
    version     2.0;
    format      ascii;
    class       volVectorField;
    location    "875";
    object      U;
}
// * * * * * * * * * * * * * * * * * * * * * * * * * * * * * * * * * * * * * //

dimensions      [0 1 -1 0 0 0 0];


internalField   nonuniform List<vector> 
43024
(
(0.000107945 0.0001079 0.100299)
(-0.000190207 0.000119268 0.100385)
(0.000119318 -0.000190207 0.100385)
(-0.000239583 -0.000239573 0.100397)
(9.42514e-05 9.42323e-05 0.10086)
(-0.000158955 9.67961e-05 0.100942)
(9.68111e-05 -0.000159001 0.100942)
(-0.000201066 -0.000201152 0.100968)
(9.54058e-05 9.54328e-05 0.10137)
(-0.000155799 9.34706e-05 0.101449)
(9.34513e-05 -0.000155825 0.101449)
(-0.000201999 -0.000202057 0.101471)
(9.38592e-05 9.39044e-05 0.101892)
(-0.000152065 9.0104e-05 0.101957)
(9.00932e-05 -0.000152056 0.101957)
(-0.000198871 -0.000198965 0.101964)
(9.10967e-05 9.11614e-05 0.102398)
(-0.000146311 8.55652e-05 0.102446)
(8.55727e-05 -0.000146292 0.102446)
(-0.000193459 -0.000193597 0.102432)
(8.81323e-05 8.81995e-05 0.102885)
(-0.000140638 8.15761e-05 0.102912)
(8.1608e-05 -0.000140609 0.102912)
(-0.000187925 -0.00018811 0.102871)
(8.52794e-05 8.53879e-05 0.103353)
(-0.00013555 7.84924e-05 0.103354)
(7.84626e-05 -0.000135508 0.103354)
(-0.000183832 -0.000184008 0.103281)
(8.28117e-05 8.28512e-05 0.103803)
(-0.000131079 7.59921e-05 0.103774)
(7.58283e-05 -0.000131024 0.103774)
(-0.000180132 -0.000180339 0.103663)
(8.06909e-05 8.06403e-05 0.104237)
(-0.000127359 7.41994e-05 0.104174)
(7.43324e-05 -0.000127338 0.104174)
(-0.000177974 -0.000177969 0.104024)
(7.87303e-05 7.87385e-05 0.104658)
(-0.000124196 7.29726e-05 0.104557)
(7.27212e-05 -0.000123992 0.104558)
(-0.000176332 -0.000176527 0.104358)
(7.71935e-05 7.71399e-05 0.105066)
(-0.000121225 7.17106e-05 0.104924)
(7.16046e-05 -0.000121089 0.104925)
(-0.000176188 -0.000176059 0.104674)
(7.55693e-05 7.54814e-05 0.105464)
(-0.000118967 7.07368e-05 0.105276)
(7.08549e-05 -0.000118796 0.105277)
(-0.000175478 -0.000175699 0.104965)
(7.40673e-05 7.39489e-05 0.105851)
(-0.000116136 6.93698e-05 0.105615)
(6.95561e-05 -0.000116118 0.105615)
(-0.000176785 -0.000177247 0.105238)
(7.30271e-05 7.31314e-05 0.106229)
(-0.000113764 6.83404e-05 0.105939)
(6.84737e-05 -0.00011381 0.105939)
(-0.000175289 -0.000175468 0.105493)
(7.09827e-05 7.10882e-05 0.106597)
(-0.000111291 6.63069e-05 0.106248)
(6.6682e-05 -0.00011171 0.106247)
(-0.000174713 -0.000174643 0.105718)
(7.10714e-05 7.07207e-05 0.106958)
(-0.000108224 6.41768e-05 0.106545)
(6.6831e-05 -0.000109696 0.106544)
(-0.000173806 -0.000173908 0.105927)
(6.69768e-05 6.73541e-05 0.107306)
(-0.000108671 6.83956e-05 0.10682)
(6.44151e-05 -0.00010721 0.106821)
(-0.000174385 -0.00017426 0.106109)
(6.66406e-05 6.657e-05 0.107649)
(-0.000105862 6.42195e-05 0.107085)
(6.25305e-05 -0.000105018 0.107089)
(-0.00017671 -0.000176858 0.106263)
(6.33758e-05 6.38265e-05 0.107982)
(-0.000104273 6.52498e-05 0.107332)
(5.98561e-05 -0.000101795 0.107335)
(-0.000158205 -0.000157971 0.106397)
(6.48092e-05 6.40185e-05 0.108306)
(-0.000100012 5.75474e-05 0.107566)
(6.4713e-05 -0.000102407 0.107565)
(-0.000162832 -0.000163443 0.106497)
(6.07616e-05 6.11661e-05 0.108621)
(-9.99901e-05 6.25674e-05 0.10778)
(5.89679e-05 -9.91925e-05 0.107779)
(-0.00016323 -0.000163018 0.106572)
(0.00013495 0.000134977 0.100282)
(0.000124244 0.000152885 0.100229)
(-0.000124248 0.000152835 0.100229)
(-0.000134972 0.000134902 0.100282)
(0.000152887 0.00012422 0.100229)
(0.00015286 -0.000124246 0.100229)
(9.07999e-05 9.07621e-05 0.100151)
(-9.08032e-05 9.07439e-05 0.100151)
(9.07753e-05 -9.08058e-05 0.100151)
(-9.07737e-05 -9.0787e-05 0.100151)
(-0.000152906 0.000124181 0.100229)
(-0.00015287 -0.000124189 0.100229)
(0.000134935 -0.00013499 0.100282)
(0.000124211 -0.000152915 0.100229)
(-0.000124187 -0.000152862 0.100229)
(-0.000134958 -0.000134921 0.100282)
(0.000239615 0.000239634 0.100397)
(0.000111256 0.000111146 0.100892)
(0.000119381 0.000190143 0.100385)
(-0.000119365 0.00019009 0.100385)
(8.90582e-05 0.00014718 0.100823)
(-8.90788e-05 0.00014718 0.100823)
(-0.000239669 0.00023954 0.100397)
(-0.000111288 0.000111121 0.100892)
(0.000190205 0.000119299 0.100385)
(0.000190145 -0.000119347 0.100385)
(0.000147157 8.90356e-05 0.100823)
(0.000147211 -8.91245e-05 0.100823)
(-0.000190142 -0.000119353 0.100385)
(-0.000147179 8.90516e-05 0.100823)
(-0.000147223 -8.91126e-05 0.100823)
(0.000239562 -0.000239693 0.100397)
(0.000111238 -0.000111315 0.100892)
(-0.000119338 -0.000190167 0.100385)
(8.90854e-05 -0.000147237 0.100823)
(-8.90738e-05 -0.000147205 0.100823)
(-0.000111269 -0.000111334 0.100892)
(0.000201089 0.000200948 0.100967)
(0.000105705 0.000105636 0.101395)
(9.67827e-05 0.00015897 0.100941)
(-9.68083e-05 0.000158955 0.100941)
(9.41716e-05 0.000156659 0.10132)
(-9.42145e-05 0.000156663 0.10132)
(-0.000201136 0.000200911 0.100967)
(-0.000105707 0.000105648 0.101395)
(0.00015895 9.67895e-05 0.100942)
(0.00015899 -9.68516e-05 0.100942)
(0.000156623 9.42133e-05 0.10132)
(0.000156655 -9.42191e-05 0.10132)
(-0.000159002 -9.68285e-05 0.100942)
(-0.000156623 9.42068e-05 0.10132)
(-0.00015667 -9.42014e-05 0.10132)
(0.000201041 -0.000201157 0.100968)
(0.000105696 -0.000105711 0.101395)
(-9.68154e-05 -0.000158969 0.100942)
(9.41933e-05 -0.000156654 0.10132)
(-9.42168e-05 -0.000156636 0.10132)
(-0.000105717 -0.000105749 0.101395)
(0.000202027 0.00020193 0.101471)
(9.66369e-05 9.65873e-05 0.101893)
(9.34261e-05 0.000155839 0.101449)
(-9.3464e-05 0.00015585 0.101449)
(9.1109e-05 0.000153327 0.101832)
(-9.11356e-05 0.000153325 0.101832)
(-0.000202054 0.000201934 0.101471)
(-9.66307e-05 9.65572e-05 0.101893)
(0.000155801 9.34771e-05 0.101449)
(0.000155832 -9.34737e-05 0.101449)
(0.000153273 9.11785e-05 0.101832)
(0.000153303 -9.1159e-05 0.101832)
(-0.000155847 -9.34611e-05 0.101449)
(-0.000153285 9.11558e-05 0.101832)
(-0.000153313 -9.11258e-05 0.101832)
(0.000201979 -0.000202063 0.101471)
(9.6603e-05 -9.66379e-05 0.101893)
(-9.34798e-05 -0.00015581 0.101449)
(9.11395e-05 -0.000153289 0.101832)
(-9.11726e-05 -0.000153278 0.101832)
(-9.65997e-05 -9.66213e-05 0.101893)
(0.000198934 0.000198828 0.101964)
(8.6062e-05 8.59995e-05 0.102366)
(9.00645e-05 0.000152101 0.101957)
(-9.00812e-05 0.000152089 0.101957)
(8.66618e-05 0.000147822 0.102326)
(-8.6662e-05 0.000147815 0.102326)
(-0.000198913 0.000198855 0.101964)
(-8.60631e-05 8.6069e-05 0.102366)
(0.000152043 9.01268e-05 0.101957)
(0.000152073 -9.01055e-05 0.101957)
(0.000147774 8.67197e-05 0.102326)
(0.000147804 -8.66987e-05 0.102326)
(-0.000152082 -9.00829e-05 0.101957)
(-0.000147784 8.66993e-05 0.102326)
(-0.000147798 -8.66601e-05 0.102326)
(0.00019884 -0.000198913 0.101964)
(8.60207e-05 -8.60344e-05 0.102366)
(-9.01248e-05 -0.000152047 0.101957)
(8.66865e-05 -0.000147779 0.102326)
(-8.67077e-05 -0.000147774 0.102326)
(-8.59679e-05 -8.59833e-05 0.102366)
(0.00019365 0.000193458 0.102432)
(7.60538e-05 7.58727e-05 0.102811)
(8.5534e-05 0.000146339 0.102446)
(-8.5557e-05 0.000146322 0.102446)
(8.24983e-05 0.00014207 0.102797)
(-8.25109e-05 0.000142059 0.102797)
(-0.000193541 0.000193542 0.102432)
(-7.6132e-05 7.62006e-05 0.102811)
(0.000146278 8.56047e-05 0.102446)
(0.00014631 -8.55829e-05 0.102446)
(0.00014201 8.25595e-05 0.102798)
(0.00014203 -8.25532e-05 0.102798)
(-0.000146331 -8.55724e-05 0.102446)
(-0.000142024 8.2562e-05 0.102798)
(-0.000142012 -8.24752e-05 0.102798)
(0.000193512 -0.000193569 0.102432)
(7.5926e-05 -7.60191e-05 0.102811)
(-8.5624e-05 -0.000146293 0.102446)
(8.25198e-05 -0.000142018 0.102798)
(-8.2528e-05 -0.000141992 0.102798)
(-7.60025e-05 -7.60017e-05 0.102812)
(0.000188283 0.000188224 0.10287)
(6.67568e-05 6.65923e-05 0.10323)
(8.15714e-05 0.000140674 0.102912)
(-8.15615e-05 0.000140646 0.102912)
(7.90594e-05 0.000136744 0.103245)
(-7.90815e-05 0.000136755 0.103245)
(-0.000188301 0.00018835 0.102871)
(-6.67083e-05 6.66591e-05 0.103229)
(0.000140622 8.16366e-05 0.102912)
(0.000140655 -8.15857e-05 0.102912)
(0.000136692 7.91212e-05 0.103245)
(0.000136706 -7.91063e-05 0.103245)
(-0.000140667 -8.15942e-05 0.102912)
(-0.000136733 7.91152e-05 0.103245)
(-0.000136749 -7.91395e-05 0.103245)
(0.00018822 -0.000188472 0.10287)
(6.6667e-05 -6.67107e-05 0.10323)
(-8.16556e-05 -0.000140631 0.102912)
(7.90718e-05 -0.000136699 0.103245)
(-7.91923e-05 -0.000136726 0.103245)
(-6.74111e-05 -6.75451e-05 0.103229)
(0.000183364 0.000183208 0.103281)
(5.93935e-05 5.938e-05 0.103621)
(7.84134e-05 0.000135603 0.103354)
(-7.84215e-05 0.000135574 0.103354)
(7.64762e-05 0.000132124 0.103671)
(-7.63887e-05 0.000132067 0.103671)
(-0.00018376 0.00018357 0.10328)
(-5.91225e-05 5.90673e-05 0.103621)
(0.000135534 7.85087e-05 0.103354)
(0.000135562 -7.84489e-05 0.103354)
(0.000132097 7.65733e-05 0.103671)
(0.000132089 -7.64654e-05 0.103671)
(-0.000135507 -7.83057e-05 0.103354)
(-0.000132084 7.63864e-05 0.103671)
(-0.000132097 -7.64284e-05 0.103671)
(0.000183234 -0.000183566 0.10328)
(5.96677e-05 -5.93358e-05 0.103621)
(-7.8391e-05 -0.000135482 0.103354)
(7.65202e-05 -0.00013206 0.103671)
(-7.65262e-05 -0.00013209 0.103671)
(-5.86465e-05 -5.86732e-05 0.10362)
(0.000180472 0.000180235 0.103665)
(5.17395e-05 5.18151e-05 0.103988)
(7.58957e-05 0.000131106 0.103774)
(-7.59373e-05 0.000131155 0.103774)
(7.4637e-05 0.000128269 0.104076)
(-7.46697e-05 0.000128252 0.104076)
(-0.000179927 0.000179248 0.103665)
(-5.20253e-05 5.28906e-05 0.103987)
(0.000131041 7.59289e-05 0.103774)
(0.000131053 -7.59027e-05 0.103774)
(0.000128194 7.45989e-05 0.104076)
(0.00012822 -7.46425e-05 0.104076)
(-0.000131108 -7.59717e-05 0.103774)
(-0.000128287 7.46589e-05 0.104076)
(-0.000128205 -7.46691e-05 0.104076)
(0.000180049 -0.00018004 0.103665)
(5.19978e-05 -5.19236e-05 0.103988)
(-7.60466e-05 -0.000131083 0.103774)
(7.45931e-05 -0.000128165 0.104076)
(-7.45947e-05 -0.00012813 0.104076)
(-5.27497e-05 -5.2875e-05 0.103988)
(0.000178105 0.000178209 0.104021)
(4.76124e-05 4.75442e-05 0.104332)
(7.44464e-05 0.000127453 0.104174)
(-7.44315e-05 0.000127418 0.104174)
(7.33226e-05 0.000124984 0.104463)
(-7.31102e-05 0.000124859 0.104463)
(-0.000178508 0.000178415 0.104022)
(-4.67421e-05 4.65176e-05 0.104334)
(0.00012739 7.43637e-05 0.104174)
(0.000127395 -7.43621e-05 0.104174)
(0.000124906 7.32448e-05 0.104463)
(0.000124898 -7.31873e-05 0.104463)
(-0.000127352 -7.41912e-05 0.104175)
(-0.000124758 7.30527e-05 0.104463)
(-0.000124844 -7.31032e-05 0.104463)
(0.000178003 -0.000177975 0.104022)
(4.77291e-05 -4.72514e-05 0.104333)
(-7.42047e-05 -0.000127328 0.104174)
(7.32732e-05 -0.000124828 0.104463)
(-7.30969e-05 -0.000124838 0.104463)
(-4.63817e-05 -4.59715e-05 0.104333)
(0.000176937 0.000176941 0.104359)
(4.09897e-05 4.11234e-05 0.104658)
(7.28807e-05 0.000124093 0.104558)
(-7.2966e-05 0.000124175 0.104557)
(7.21371e-05 0.000122073 0.104834)
(-7.20731e-05 0.000121999 0.104834)
(-0.000175902 0.000176023 0.10436)
(-4.15333e-05 4.1663e-05 0.104656)
(0.000124029 7.28571e-05 0.104558)
(0.000124034 -7.28411e-05 0.104558)
(0.000122055 7.21278e-05 0.104834)
(0.000121979 -7.21819e-05 0.104834)
(-0.000124134 -7.31219e-05 0.104557)
(-0.000121914 7.2028e-05 0.104834)
(-0.000121917 -7.20567e-05 0.104834)
(0.000176743 -0.00017627 0.10436)
(4.12905e-05 -4.15735e-05 0.104656)
(-7.29607e-05 -0.000124087 0.104557)
(7.20011e-05 -0.000121927 0.104834)
(-7.20198e-05 -0.000121884 0.104834)
(-4.20852e-05 -4.22266e-05 0.104657)
(0.000176462 0.000176553 0.104672)
(3.7352e-05 3.73225e-05 0.104961)
(7.18465e-05 0.00012131 0.104924)
(-7.1726e-05 0.00012126 0.104924)
(7.10715e-05 0.000119376 0.10519)
(-7.07222e-05 0.000119264 0.10519)
(-0.000176695 0.000176358 0.104673)
(-3.52324e-05 3.61621e-05 0.104963)
(0.000121224 7.17323e-05 0.104924)
(0.000121201 -7.15888e-05 0.104924)
(0.00011934 7.10491e-05 0.10519)
(0.000119329 -7.08342e-05 0.10519)
(-0.000121297 -7.1746e-05 0.104924)
(-0.000119285 7.08818e-05 0.10519)
(-0.000119433 -7.0953e-05 0.10519)
(0.000176468 -0.000176916 0.104673)
(3.55467e-05 -3.54953e-05 0.104963)
(-7.16858e-05 -0.000121289 0.104924)
(7.07624e-05 -0.000119224 0.10519)
(-7.0858e-05 -0.00011943 0.10519)
(-3.51498e-05 -3.50653e-05 0.104961)
(0.000176095 0.00017595 0.104968)
(3.03761e-05 3.0374e-05 0.105248)
(7.06746e-05 0.000118723 0.105277)
(-7.10525e-05 0.000118976 0.105276)
(6.95168e-05 0.000116742 0.105532)
(-7.00919e-05 0.000117138 0.105531)
(-0.000174649 0.000174953 0.104967)
(-3.11184e-05 3.12607e-05 0.105244)
(0.000118658 7.05246e-05 0.105277)
(0.000118988 -7.08999e-05 0.105276)
(0.000116798 6.93538e-05 0.105532)
(0.000117202 -7.01615e-05 0.10553)
(-0.000118958 -7.10918e-05 0.105276)
(-0.000117117 6.99463e-05 0.105531)
(-0.000116879 -6.99207e-05 0.105531)
(0.000174475 -0.000174671 0.104967)
(3.09041e-05 -3.13549e-05 0.105244)
(-7.09803e-05 -0.000118864 0.105276)
(6.98978e-05 -0.00011723 0.105531)
(-6.9728e-05 -0.000116991 0.105531)
(-3.21354e-05 -3.21924e-05 0.105243)
(0.000173936 0.000173641 0.10524)
(2.51115e-05 2.50878e-05 0.10551)
(6.96314e-05 0.00011643 0.105614)
(-6.95475e-05 0.000116156 0.105614)
(6.87353e-05 0.00011492 0.105858)
(-6.91232e-05 0.000114755 0.105858)
(-0.000176664 0.000176359 0.105238)
(-2.92697e-05 2.87718e-05 0.105509)
(0.000116412 6.94515e-05 0.105614)
(0.00011624 -6.95418e-05 0.105614)
(0.000114682 6.8703e-05 0.105858)
(0.000114766 -6.92561e-05 0.105858)
(-0.00011603 -6.92768e-05 0.105615)
(-0.000114644 6.90328e-05 0.105858)
(-0.000114612 -6.89133e-05 0.105859)
(0.000176298 -0.000176608 0.105238)
(2.87953e-05 -2.89661e-05 0.105508)
(-6.91206e-05 -0.000115953 0.105615)
(6.91506e-05 -0.000114707 0.105858)
(-6.89501e-05 -0.000114623 0.105859)
(-2.83178e-05 -2.83046e-05 0.105511)
(0.000175934 0.000175673 0.105488)
(2.12659e-05 2.11194e-05 0.105754)
(6.87574e-05 0.000114179 0.105938)
(-6.81049e-05 0.000113857 0.105939)
(6.70712e-05 0.000111931 0.106171)
(-6.70535e-05 0.000111733 0.106171)
(-0.000177972 0.000177739 0.105491)
(-2.29418e-05 2.32221e-05 0.105755)
(0.000114035 6.87967e-05 0.105938)
(0.000114031 -6.83908e-05 0.105939)
(0.000111868 6.69518e-05 0.106172)
(0.00011184 -6.71126e-05 0.106172)
(-0.000113767 -6.80534e-05 0.105939)
(-0.000111483 6.70772e-05 0.106172)
(-0.000112084 -6.7312e-05 0.106171)
(0.000177763 -0.000177896 0.10549)
(2.17518e-05 -2.16426e-05 0.105756)
(-6.78018e-05 -0.000113782 0.105939)
(6.69732e-05 -0.000111851 0.106172)
(-6.72593e-05 -0.000111996 0.106171)
(-2.00639e-05 -1.97452e-05 0.105755)
(0.000174944 0.000174773 0.10572)
(1.87837e-05 1.86238e-05 0.105976)
(6.66493e-05 0.000111113 0.106248)
(-6.65437e-05 0.000111188 0.106248)
(6.86718e-05 0.000111298 0.106469)
(-6.71484e-05 0.000110194 0.106472)
(-0.000174473 0.000174716 0.105722)
(-1.9639e-05 1.94147e-05 0.105979)
(0.00011087 6.66352e-05 0.106248)
(0.000111395 -6.71613e-05 0.106247)
(0.000111459 6.83888e-05 0.106469)
(0.000110644 -6.7219e-05 0.10647)
(-0.000112233 -6.84847e-05 0.106246)
(-0.000110276 6.70288e-05 0.106472)
(-0.000109618 -6.58561e-05 0.106471)
(0.000172976 -0.000173227 0.105722)
(1.7054e-05 -1.69786e-05 0.105978)
(-6.82807e-05 -0.000112168 0.106246)
(6.72685e-05 -0.000110519 0.106471)
(-6.57702e-05 -0.000109557 0.106471)
(-1.76127e-05 -1.74818e-05 0.105976)
(0.000176062 0.000175669 0.105925)
(4.74129e-06 5.21662e-06 0.106178)
(6.98767e-05 0.000111238 0.106542)
(-6.37756e-05 0.000108515 0.106545)
(6.23501e-05 0.000107052 0.106754)
(-6.62672e-05 0.000108579 0.106752)
(-0.00017316 0.000173278 0.10593)
(-1.18685e-05 1.21749e-05 0.106176)
(0.000111443 6.94173e-05 0.106542)
(0.000110124 -6.63765e-05 0.106543)
(0.000106658 6.26653e-05 0.106755)
(0.000106109 -6.19018e-05 0.106754)
(-0.000108581 -6.46187e-05 0.106544)
(-0.000108184 6.61272e-05 0.106752)
(-0.000107703 -6.6018e-05 0.106753)
(0.000173934 -0.000173767 0.105926)
(7.95103e-06 -7.91467e-06 0.106178)
(-6.43044e-05 -0.000108604 0.106544)
(6.16248e-05 -0.000105921 0.106754)
(-6.61485e-05 -0.000107529 0.106754)
(-1.68054e-05 -1.66217e-05 0.106174)
(0.000164837 0.000165171 0.106107)
(3.62129e-06 3.44552e-06 0.106354)
(6.45468e-05 0.000107742 0.106819)
(-6.84122e-05 0.000108831 0.10682)
(6.24451e-05 0.000105313 0.107023)
(-6.49864e-05 0.000106257 0.107021)
(-0.000173918 0.000174063 0.106107)
(-4.44133e-06 4.11682e-06 0.106347)
(0.000107347 6.49274e-05 0.10682)
(0.000107193 -6.46186e-05 0.10682)
(0.000105428 6.19694e-05 0.107023)
(0.000106726 -6.74548e-05 0.107022)
(-0.000106058 -6.24205e-05 0.106823)
(-0.000106567 6.4244e-05 0.107021)
(-0.000107983 -6.83084e-05 0.10702)
(0.00016869 -0.000168861 0.10611)
(1.38117e-05 -1.40264e-05 0.106348)
(-6.26876e-05 -0.000105815 0.106824)
(6.68929e-05 -0.000106847 0.107023)
(-6.78875e-05 -0.00010801 0.10702)
(-1.38581e-05 -1.39589e-05 0.106349)
(0.000165248 0.000165044 0.106267)
(2.58816e-07 6.38705e-07 0.106501)
(6.56148e-05 0.000106862 0.107084)
(-6.47307e-05 0.000105637 0.107084)
(6.04681e-05 0.000102925 0.107276)
(-6.3301e-05 0.00010467 0.107272)
(-0.000168015 0.000167575 0.10626)
(-2.40428e-07 8.01914e-07 0.106496)
(0.000106942 6.54258e-05 0.107085)
(0.000104981 -6.29116e-05 0.107088)
(0.000102606 6.07498e-05 0.107277)
(0.000103164 -6.11317e-05 0.107274)
(-0.000107868 -6.89838e-05 0.107086)
(-0.000104199 6.38434e-05 0.107273)
(-0.000101681 -5.66396e-05 0.107275)
(0.000172555 -0.000172851 0.106263)
(4.91486e-06 -4.48218e-06 0.106497)
(-6.88772e-05 -0.000107851 0.107086)
(6.15255e-05 -0.000102787 0.107274)
(-5.68292e-05 -0.000101387 0.107276)
(5.79477e-06 6.12403e-06 0.106501)
(0.000160469 0.000160714 0.106396)
(2.26863e-06 1.76696e-06 0.106624)
(5.94051e-05 0.000102699 0.107334)
(-6.51642e-05 0.00010459 0.107332)
(6.3928e-05 0.000102373 0.107509)
(-5.8484e-05 0.000100565 0.107509)
(-0.000168685 0.000169011 0.10639)
(3.71192e-06 -3.783e-06 0.106618)
(0.00010236 5.98082e-05 0.107334)
(0.000102037 -5.98534e-05 0.107335)
(0.000102624 6.30428e-05 0.107509)
(0.000103523 -6.66453e-05 0.107507)
(-0.000103448 -6.07207e-05 0.107332)
(-0.000100594 5.81867e-05 0.10751)
(-0.000102117 -6.38166e-05 0.10751)
(0.000168834 -0.000168619 0.106395)
(8.19712e-06 -8.26866e-06 0.106617)
(-6.10276e-05 -0.000103128 0.107332)
(6.63728e-05 -0.000103527 0.107508)
(-6.29468e-05 -0.000102343 0.10751)
(-2.96379e-06 -3.40116e-06 0.10662)
(0.000166365 0.000165693 0.106499)
(-7.5189e-06 -7.13865e-06 0.106713)
(6.53112e-05 0.000102701 0.107564)
(-5.74839e-05 0.000100027 0.107565)
(5.80356e-05 9.91167e-05 0.107728)
(-6.47923e-05 0.000101081 0.107727)
(-0.000161991 0.000161929 0.106496)
(-4.41881e-06 4.37801e-06 0.106716)
(0.000103104 6.42596e-05 0.107564)
(0.000102512 -6.46599e-05 0.107565)
(9.89568e-05 5.829e-05 0.107728)
(9.94283e-05 -5.90667e-05 0.107726)
(-0.000100893 -6.07962e-05 0.107565)
(-0.000101008 6.43612e-05 0.107727)
(-0.000101094 -6.27088e-05 0.107725)
(0.000172307 -0.000172399 0.106495)
(-5.13982e-06 5.10665e-06 0.106709)
(-5.97663e-05 -0.000101249 0.107566)
(5.87104e-05 -9.93726e-05 0.107727)
(-6.29816e-05 -0.000100904 0.107726)
(2.46828e-06 2.72493e-06 0.106712)
(0.000155393 0.00015576 0.106573)
(5.87873e-05 9.93102e-05 0.107778)
(-6.29959e-05 9.99727e-05 0.107779)
(-0.000167472 0.000167282 0.106575)
(9.90225e-05 5.91816e-05 0.107778)
(9.91625e-05 -5.93783e-05 0.107778)
(-9.99864e-05 -6.19536e-05 0.107778)
(0.000160271 -0.00016051 0.106571)
(-6.23654e-05 -9.96812e-05 0.107778)
(-3.34705e-07 -3.36874e-07 0.0999988)
(1.68267e-05 1.6824e-05 0.100003)
(-4.50179e-07 1.39329e-05 0.1)
(1.39393e-05 -4.53636e-07 0.1)
(-4.6598e-05 5.73191e-06 0.100009)
(-1.52715e-05 1.5586e-05 0.0999999)
(-0.000127874 6.04437e-05 0.100058)
(-1.31108e-05 -8.63695e-07 0.0999958)
(5.73665e-06 -4.65876e-05 0.100009)
(1.55921e-05 -1.52732e-05 0.0999999)
(-8.60373e-07 -1.31109e-05 0.0999958)
(6.04518e-05 -0.00012794 0.100058)
(-1.87295e-05 -1.87312e-05 0.100003)
(-0.000134951 -8.10873e-05 0.100055)
(-8.10847e-05 -0.000134953 0.100055)
(-3.48932e-05 0.0001358 0.100724)
(0.000176665 0.000389389 0.0994171)
(2.31792e-06 0.000305475 0.100517)
(-8.43687e-05 0.000243803 0.0991475)
(-0.000303301 0.000837511 0.0977722)
(-0.000129132 0.000304574 0.0957184)
(0.000135817 -3.49454e-05 0.100724)
(0.000388997 0.000175815 0.0994172)
(0.000306007 2.2914e-06 0.100517)
(0.000243419 -8.40179e-05 0.0991472)
(-0.000107953 0.000107878 0.100299)
(0.000107918 -0.000107956 0.100299)
(-0.000107922 -0.000107932 0.100299)
(9.17259e-05 9.16776e-05 0.100739)
(-9.17353e-05 9.16868e-05 0.100739)
(9.17157e-05 -9.17618e-05 0.100739)
(-9.17244e-05 -9.17887e-05 0.100739)
(-0.000280743 6.4467e-06 0.100754)
(-0.00039902 0.000229271 0.100526)
(-0.000175285 3.73823e-05 0.100332)
(-0.000153251 9.44841e-05 0.100558)
(-0.000358989 1.5625e-05 0.100479)
(-0.000148751 0.000198748 0.100739)
(-0.000152725 3.32777e-05 0.100497)
(0.000837018 -0.000301658 0.0977707)
(0.000304778 -0.000128565 0.0957185)
(6.39475e-06 -0.000280742 0.100754)
(3.74136e-05 -0.00017528 0.100332)
(0.00022924 -0.000399141 0.100526)
(9.44951e-05 -0.000153256 0.100558)
(1.56611e-05 -0.000358952 0.100479)
(3.32993e-05 -0.000152737 0.100497)
(0.000198699 -0.000149019 0.100739)
(-0.000372835 -0.000141981 0.100361)
(-0.000141895 -0.000372781 0.100361)
(-0.000111968 -0.000112074 0.100655)
(1.093e-05 -7.89934e-05 0.10059)
(-7.88939e-05 1.09793e-05 0.10059)
(-1.6673e-05 0.000198237 0.100867)
(-5.49589e-05 0.000288378 0.0983205)
(-2.04523e-05 0.000208678 0.100777)
(-4.4905e-05 0.00027125 0.097945)
(-0.000150285 0.00031339 0.0926213)
(-0.000137157 0.000273051 0.0909993)
(0.00019828 -1.67165e-05 0.100867)
(0.000288206 -5.48397e-05 0.0983206)
(0.000208746 -2.04773e-05 0.100777)
(0.000271105 -4.47481e-05 0.0979444)
(-9.42629e-05 9.42399e-05 0.10086)
(9.42646e-05 -9.42946e-05 0.10086)
(-9.4277e-05 -9.43095e-05 0.10086)
(9.61785e-05 9.62009e-05 0.101239)
(-9.61915e-05 9.62032e-05 0.101239)
(9.61951e-05 -9.62042e-05 0.101239)
(-9.62034e-05 -9.62089e-05 0.101239)
(-0.000263625 1.33019e-05 0.101153)
(-0.000219107 0.000214233 0.100819)
(-0.000164533 3.10458e-05 0.100897)
(-0.000160215 9.74207e-05 0.101064)
(-0.000298005 1.41309e-05 0.100977)
(-0.000183266 0.000197854 0.100945)
(-0.000168739 3.24861e-05 0.101019)
(0.000313464 -0.000150024 0.0926206)
(0.000273151 -0.000136901 0.0909995)
(1.32945e-05 -0.000263622 0.101153)
(3.10712e-05 -0.000164554 0.100897)
(0.000214277 -0.000219143 0.100819)
(9.74175e-05 -0.000160245 0.101064)
(1.41247e-05 -0.000297995 0.100977)
(3.25064e-05 -0.000168753 0.101019)
(0.000197844 -0.000183268 0.100945)
(-8.39496e-05 -9.72605e-05 0.100438)
(-9.72058e-05 -8.39177e-05 0.100438)
(-0.00011249 -0.000112527 0.101144)
(-8.67445e-05 -8.27527e-05 0.10043)
(-8.26528e-05 -8.67134e-05 0.10043)
(-9.4344e-06 0.000210685 0.100956)
(-2.20849e-05 0.000281967 0.0971372)
(-1.16723e-05 0.000230454 0.100903)
(-1.25161e-05 0.000257375 0.0967125)
(-0.000117428 0.000226053 0.0883854)
(-9.69072e-05 0.000187324 0.0870645)
(0.000210737 -9.49778e-06 0.100956)
(0.00028181 -2.19515e-05 0.0971373)
(0.000230483 -1.17087e-05 0.100903)
(0.000257061 -1.231e-05 0.0967117)
(-9.54161e-05 9.54383e-05 0.10137)
(9.54243e-05 -9.54322e-05 0.10137)
(-9.54307e-05 -9.54331e-05 0.10137)
(9.43295e-05 9.43779e-05 0.101763)
(-9.43379e-05 9.43761e-05 0.101763)
(9.43579e-05 -9.43622e-05 0.101763)
(-9.43707e-05 -9.4349e-05 0.101763)
(-0.000251019 1.22439e-05 0.10158)
(-0.00022255 0.000190588 0.101028)
(-0.000167325 3.27884e-05 0.101407)
(-0.000155169 9.28791e-05 0.101577)
(-0.000290198 1.20906e-05 0.101414)
(-0.00018224 0.000169242 0.101123)
(-0.000167161 3.27245e-05 0.101537)
(0.000225976 -0.000117112 0.0883845)
(0.000187327 -9.6686e-05 0.0870641)
(1.22373e-05 -0.00025101 0.10158)
(3.27882e-05 -0.000167329 0.101407)
(0.000190447 -0.000222627 0.101028)
(9.28606e-05 -0.000155186 0.101577)
(1.21078e-05 -0.000290209 0.101414)
(3.27257e-05 -0.000167166 0.101537)
(0.000169252 -0.000182268 0.101123)
(-0.000116198 -9.15397e-05 0.100182)
(-9.1491e-05 -0.000116173 0.100182)
(-0.000101482 -0.000101519 0.101646)
(-0.000112095 -7.23439e-05 0.100086)
(-7.23221e-05 -0.000112012 0.100086)
(-6.84078e-06 0.000209972 0.100952)
(5.55134e-06 0.000258057 0.095858)
(-7.93993e-06 0.00023629 0.100928)
(1e-05 0.000229982 0.0954231)
(-7.73738e-05 0.000149992 0.0849775)
(-5.91721e-05 0.000118928 0.0839651)
(0.000210057 -6.95627e-06 0.100952)
(0.000258403 5.40939e-06 0.0958581)
(0.000236297 -7.89016e-06 0.100927)
(0.000230153 9.94798e-06 0.095422)
(-9.38667e-05 9.39079e-05 0.101892)
(9.38899e-05 -9.3885e-05 0.101892)
(-9.39014e-05 -9.38813e-05 0.101892)
(9.18631e-05 9.19092e-05 0.102273)
(-9.18497e-05 9.19119e-05 0.102273)
(9.18974e-05 -9.18907e-05 0.102273)
(-9.19054e-05 -9.18711e-05 0.102273)
(-0.000238561 1.1088e-05 0.101978)
(-0.000219832 0.000163286 0.101142)
(-0.000165102 3.20977e-05 0.101923)
(-0.000150707 8.89834e-05 0.102081)
(-0.000282648 1.09257e-05 0.101822)
(-0.000174845 0.000141383 0.101213)
(-0.000163805 3.17552e-05 0.10205)
(0.000150008 -7.72418e-05 0.0849765)
(0.000118952 -5.90704e-05 0.0839646)
(1.12368e-05 -0.000238588 0.101978)
(3.20934e-05 -0.000165098 0.101923)
(0.000162597 -0.000219957 0.101142)
(8.89752e-05 -0.000150708 0.102081)
(1.10111e-05 -0.000282723 0.101822)
(3.17726e-05 -0.000163805 0.10205)
(0.000140544 -0.00017509 0.101214)
(-0.000133146 -7.94741e-05 0.0997188)
(-7.93267e-05 -0.000133189 0.0997186)
(-9.13087e-05 -9.13201e-05 0.102133)
(-0.000124185 -6.02149e-05 0.0995709)
(-6.00608e-05 -0.000124132 0.0995699)
(-6.88268e-06 0.000202207 0.100851)
(1.91831e-05 0.000226817 0.0945608)
(-7.2118e-06 0.000231406 0.100853)
(1.85935e-05 0.000197512 0.0941435)
(-4.5423e-05 9.52704e-05 0.0823437)
(-3.13994e-05 7.18212e-05 0.0815906)
(0.000202051 -6.3192e-06 0.100851)
(0.000226477 1.9193e-05 0.0945616)
(0.000231303 -6.87603e-06 0.100853)
(0.000197843 1.80807e-05 0.0941424)
(-9.11146e-05 9.11436e-05 0.102398)
(9.11348e-05 -9.11256e-05 0.102398)
(-9.11563e-05 -9.11157e-05 0.102398)
(8.88793e-05 8.8933e-05 0.102765)
(-8.88723e-05 8.89539e-05 0.102765)
(8.89035e-05 -8.89216e-05 0.102765)
(-8.89464e-05 -8.88961e-05 0.102765)
(-0.000223527 1.00101e-05 0.102335)
(-0.000210928 0.000138348 0.101161)
(-0.000159037 3.06793e-05 0.102424)
(-0.000144845 8.45308e-05 0.102565)
(-0.000270962 9.85475e-06 0.102189)
(-0.000163741 0.000118162 0.101212)
(-0.000157338 3.03032e-05 0.102546)
(9.52185e-05 -4.5328e-05 0.0823425)
(7.17883e-05 -3.1235e-05 0.0815898)
(1.03423e-05 -0.000223676 0.102335)
(3.06654e-05 -0.000159032 0.102424)
(0.000137935 -0.000210742 0.101162)
(8.45102e-05 -0.000144845 0.102565)
(9.81904e-06 -0.000271088 0.102189)
(3.0334e-05 -0.000157339 0.102546)
(0.000115764 -0.000164181 0.101213)
(-0.000137471 -6.85486e-05 0.0991151)
(-6.85552e-05 -0.000137595 0.0991148)
(-8.08098e-05 -8.08141e-05 0.102593)
(-0.000125022 -5.08232e-05 0.098933)
(-5.0662e-05 -0.000125069 0.0989315)
(-6.02244e-06 0.000190487 0.100664)
(2.08327e-05 0.000194427 0.0933112)
(-6.39426e-06 0.000221021 0.100689)
(1.72191e-05 0.000165931 0.0929284)
(-2.41727e-05 6.04314e-05 0.0803375)
(-1.36721e-05 4.24625e-05 0.0797845)
(0.000190397 -5.77721e-06 0.100664)
(0.000194053 2.11542e-05 0.093312)
(0.000221062 -6.56927e-06 0.100689)
(0.000165528 1.68869e-05 0.092927)
(-8.81287e-05 8.81687e-05 0.102885)
(8.81985e-05 -8.81479e-05 0.102885)
(-8.81782e-05 -8.81216e-05 0.102885)
(8.59789e-05 8.60335e-05 0.103238)
(-8.59732e-05 8.60345e-05 0.103238)
(8.59925e-05 -8.6009e-05 0.103238)
(-8.60594e-05 -8.6009e-05 0.103238)
(-0.000207827 9.678e-06 0.102649)
(-0.000199469 0.000117333 0.101097)
(-0.000152214 2.93285e-05 0.102904)
(-0.000139301 8.07459e-05 0.103024)
(-0.000257401 9.18351e-06 0.102514)
(-0.000152303 9.75843e-05 0.101131)
(-0.00015051 2.90183e-05 0.103021)
(6.02238e-05 -2.39949e-05 0.0803364)
(4.19582e-05 -1.29449e-05 0.0797835)
(9.91428e-06 -0.000207985 0.102649)
(2.93225e-05 -0.000152207 0.102904)
(0.000117012 -0.000199062 0.101097)
(8.07134e-05 -0.000139291 0.103024)
(9.11175e-06 -0.000257578 0.102514)
(2.90274e-05 -0.000150512 0.103021)
(9.60607e-05 -0.000152564 0.101132)
(-0.000136958 -6.10199e-05 0.098417)
(-6.10954e-05 -0.000137017 0.0984167)
(-7.158e-05 -7.16357e-05 0.103024)
(-0.00012148 -4.47366e-05 0.0982159)
(-4.46367e-05 -0.000121481 0.0982144)
(-5.11143e-06 0.000177131 0.100405)
(1.64605e-05 0.000164524 0.0921452)
(-6.27809e-06 0.000208286 0.100449)
(1.23335e-05 0.00013613 0.0918045)
(-1.15994e-05 3.91533e-05 0.078805)
(-3.25241e-06 2.52441e-05 0.0784002)
(0.000176878 -4.91504e-06 0.100405)
(0.000164513 1.69222e-05 0.092147)
(0.000208379 -6.07376e-06 0.100449)
(0.000136736 1.14095e-05 0.0918032)
(-8.52925e-05 8.53963e-05 0.103353)
(8.53639e-05 -8.53268e-05 0.103353)
(-8.53717e-05 -8.52797e-05 0.103353)
(8.3428e-05 8.35083e-05 0.103692)
(-8.34664e-05 8.3461e-05 0.103692)
(8.35146e-05 -8.34344e-05 0.103692)
(-8.34358e-05 -8.33453e-05 0.103692)
(-0.000192658 1.00669e-05 0.102923)
(-0.000186882 0.000100077 0.10096)
(-0.000145584 2.82256e-05 0.103363)
(-0.000134322 7.76492e-05 0.103461)
(-0.000243678 8.73133e-06 0.102796)
(-0.000141074 7.93626e-05 0.10098)
(-0.000144006 2.80347e-05 0.103474)
(3.94553e-05 -1.16576e-05 0.0788046)
(2.45487e-05 -2.49927e-06 0.0784008)
(9.57087e-06 -0.000192399 0.102923)
(2.82387e-05 -0.000145573 0.103363)
(9.98192e-05 -0.000187364 0.100959)
(7.7701e-05 -0.00013431 0.103461)
(8.8291e-06 -0.000243658 0.102796)
(2.80106e-05 -0.000144014 0.103474)
(8.3319e-05 -0.000140364 0.10098)
(-0.000130384 -5.61288e-05 0.09766)
(-5.63417e-05 -0.000130444 0.0976594)
(-6.31341e-05 -6.32735e-05 0.103427)
(-0.00011462 -3.95608e-05 0.0974514)
(-3.97092e-05 -0.000114962 0.0974496)
(-3.0729e-06 0.000162601 0.100086)
(8.55707e-06 0.000138481 0.0910829)
(-4.85224e-06 0.00019414 0.100146)
(4.68655e-06 0.000112136 0.0907824)