/*--------------------------------*- C++ -*----------------------------------*\
| =========                 |                                                 |
| \\      /  F ield         | OpenFOAM: The Open Source CFD Toolbox           |
|  \\    /   O peration     | Version:  v2006                                 |
|   \\  /    A nd           | Website:  www.openfoam.com                      |
|    \\/     M anipulation  |                                                 |
\*---------------------------------------------------------------------------*/
FoamFile
{
    version     2.0;
    format      ascii;
    class       volScalarField;
    location    "875";
    object      epsilon;
}
// * * * * * * * * * * * * * * * * * * * * * * * * * * * * * * * * * * * * * //

dimensions      [0 2 -3 0 0 0 0];


internalField   nonuniform List<scalar> 
14258
(
3.97269e-06
8.97347e-06
3.97191e-06
8.97397e-06
1.82958e-05
1.82978e-05
6.33707e-07
5.30098e-06
5.30238e-06
1.69167e-06
3.76725e-07
3.18413e-06
2.10641e-07
1.69129e-06
3.76541e-07
3.18438e-06
2.10649e-07
3.97171e-06
1.69118e-06
2.10663e-07
1.21474e-05
3.97189e-06
1.07557e-05
4.67075e-06
1.07554e-05
4.66994e-06
1.21474e-05
2.2127e-05
7.1446e-06
8.9714e-06
7.14675e-06
2.21266e-05
1.21469e-05
3.97121e-06
4.66988e-06
1.07555e-05
4.66926e-06
1.07552e-05
1.21469e-05
2.21258e-05
7.14397e-06
8.97199e-06
7.14618e-06
2.21254e-05
1.82938e-05
1.82958e-05
9.6932e-06
2.16663e-05
2.16656e-05
2.16588e-05
2.16581e-05
9.69629e-06
4.2775e-06
9.20447e-06
5.29896e-06
2.42156e-06
9.19656e-06
4.28378e-06
2.41314e-06
4.28428e-06
9.20947e-06
5.30023e-06
2.42259e-06
9.20147e-06
4.29048e-06
2.41492e-06
1.2147e-05
3.97111e-06
1.07554e-05
4.66913e-06
1.07551e-05
4.6688e-06
1.21471e-05
2.21254e-05
7.1414e-06
7.14318e-06
2.21256e-05
2.24792e-06
6.32977e-07
1.24613e-06
1.24656e-06
2.25434e-06
1.24215e-06
1.24258e-06
8.28185e-07
1.68829e-06
1.98333e-06
7.00003e-07
1.97966e-06
6.97885e-07
8.29744e-07
1.07001e-06
2.53797e-06
3.18135e-06
1.51433e-06
2.53541e-06
1.51031e-06
1.07185e-06
8.28307e-07
1.68807e-06
1.983e-06
7.00047e-07
1.97941e-06
6.98e-07
8.2978e-07
1.07013e-06
2.53776e-06
3.18161e-06
1.51475e-06
2.53515e-06
1.51077e-06
1.07191e-06
8.28381e-07
1.688e-06
7.00045e-07
1.98221e-06
6.98012e-07
1.97916e-06
8.29757e-07
1.06991e-06
2.53598e-06
2.53393e-06
1.07134e-06
6.25822e-07
3.59623e-07
9.37783e-07
3.54363e-07
4.03049e-06
6.18247e-07
9.30057e-07
1.82892e-05
6.25653e-07
3.59587e-07
3.35833e-06
9.37503e-07
5.37969e-06
1.8288e-05
9.04042e-06
6.25975e-07
3.5963e-07
1.95179e-06
5.38005e-06
5.37745e-06
1.82881e-05
1.94923e-06
3.35517e-06
4.03058e-06
9.03954e-06
1.94919e-06
6.18689e-07
3.35539e-06
9.03949e-06
3.35523e-06
9.03944e-06
5.3777e-06
5.37779e-06
1.82892e-05
3.5964e-07
3.35829e-06
1.95172e-06
4.03142e-06
9.04023e-06
4.03136e-06
1.82887e-05
4.44159e-06
5.38072e-06
9.34752e-06
2.67203e-06
1.21293e-05
1.07572e-05
4.69623e-06
4.02996e-06
1.21301e-05
1.07566e-05
4.69576e-06
1.82864e-05
1.8291e-05
9.68878e-06
2.16166e-05
2.16191e-05
4.44048e-06
9.34307e-06
2.66964e-06
5.38066e-06
2.67215e-06
9.34693e-06
4.43768e-06
1.82909e-05
2.19797e-05
7.07705e-06
9.04253e-06
7.07633e-06
2.19767e-05
4.44101e-06
2.66875e-06
9.34224e-06
5.38043e-06
4.43791e-06
2.67194e-06
9.34652e-06
4.69645e-06
1.07575e-05
1.21299e-05
7.07686e-06
2.19803e-05
2.19783e-05
7.07539e-06
9.03758e-06
2.19808e-05
7.076e-06
2.19795e-05
9.03772e-06
7.07559e-06
7.07646e-06
2.19818e-05
4.43291e-06
2.66708e-06
5.37685e-06
9.34115e-06
4.43566e-06
2.66386e-06
9.33685e-06
4.43315e-06
2.66596e-06
5.37714e-06
9.34041e-06
4.43581e-06
2.66263e-06
9.33684e-06
9.68244e-06
2.16133e-05
2.16091e-05
9.68451e-06
2.16077e-05
2.16036e-05
1.82866e-05
1.21303e-05
4.03181e-06
4.69686e-06
1.07573e-05
4.69702e-06
1.21294e-05
1.0758e-05
2.19809e-05
7.07554e-06
9.04234e-06
2.19784e-05
7.07506e-06
1.21311e-05
4.0319e-06
4.69667e-06
1.07574e-05
1.21303e-05
4.69724e-06
1.07581e-05
1.82916e-05
2.52421e-06
9.37388e-07
1.58245e-06
1.5813e-06
1.58312e-06
2.52241e-06
1.58249e-06
2.51585e-06
1.57633e-06
9.30321e-07
1.57509e-06
2.51808e-06
1.57494e-06
1.57376e-06
1.41141e-06
1.84844e-06
2.73675e-06
3.3594e-06
1.84992e-06
2.7379e-06
1.41109e-06
2.52427e-06
1.58129e-06
1.58221e-06
9.37221e-07
1.5831e-06
2.5224e-06
1.58245e-06
1.18551e-06
1.9545e-06
1.04379e-06
2.2211e-06
1.18535e-06
1.04481e-06
2.22396e-06
1.03638e-06
2.21911e-06
1.17706e-06
1.84266e-06
2.73352e-06
1.4037e-06
1.1769e-06
1.03638e-06
2.21903e-06
1.94637e-06
1.17713e-06
1.03533e-06
2.21611e-06
1.40353e-06
2.73338e-06
1.84308e-06
3.35438e-06
1.40388e-06
2.73216e-06
1.84149e-06
1.40334e-06
1.84247e-06
3.35425e-06
2.73326e-06
2.73209e-06
1.84095e-06
1.40365e-06
1.41128e-06
1.84806e-06
2.73626e-06
3.35935e-06
1.84967e-06
1.41095e-06
2.73761e-06
1.18547e-06
1.95452e-06
1.04376e-06
2.22102e-06
1.04479e-06
1.18529e-06
2.22398e-06
4.03134e-06
1.95173e-06
4.03148e-06
1.95169e-06
3.35833e-06
9.04024e-06
5.37957e-06
1.82886e-05
1.21308e-05
1.07573e-05
4.69662e-06
4.03198e-06
1.0758e-05
4.69726e-06
1.21299e-05
1.21306e-05
4.69705e-06
1.07575e-05
4.03207e-06
4.69742e-06
1.07582e-05
1.21297e-05
2.19801e-05
7.07543e-06
9.0423e-06
7.07493e-06
2.19775e-05
4.44039e-06
2.66968e-06
5.3806e-06
9.34287e-06
2.67222e-06
4.43825e-06
9.34622e-06
9.68932e-06
2.16129e-05
2.16093e-05
9.68669e-06
2.16161e-05
2.16137e-05
1.82912e-05
1.18549e-06
1.04374e-06
2.22117e-06
1.9546e-06
2.22413e-06
1.04477e-06
1.18532e-06
1.18551e-06
1.04375e-06
2.22106e-06
1.95456e-06
1.04477e-06
2.22402e-06
1.18536e-06
1.41145e-06
2.7364e-06
1.84865e-06
3.3594e-06
2.73765e-06
1.85001e-06
1.41116e-06
1.82935e-05
1.82955e-05
6.42905e-07
5.30289e-06
5.30419e-06
3.97459e-06
8.97393e-06
3.97442e-06
8.9722e-06
1.69927e-06
3.82959e-07
3.19e-06
2.13623e-07
1.69919e-06
3.8297e-07
3.18739e-06
2.13648e-07
1.82897e-05
6.43573e-07
5.2976e-06
5.29704e-06
1.82888e-05
3.9738e-06
8.97453e-06
1.69883e-06
3.82891e-07
3.19022e-06
2.13627e-07
3.97366e-06
8.97179e-06
1.69863e-06
3.82299e-07
2.13604e-07
3.18606e-06
3.82801e-07
3.18782e-06
8.9737e-06
1.82889e-05
6.40124e-07
5.29716e-06
5.29611e-06
1.82877e-05
1.69931e-06
3.82137e-07
2.13609e-07
3.18601e-06
3.97468e-06
8.97275e-06
1.82937e-05
1.82958e-05
9.69046e-06
2.16627e-05
2.1662e-05
9.69623e-06
2.16606e-05
2.16599e-05
4.28936e-06
5.30272e-06
9.2076e-06
2.42729e-06
4.28829e-06
9.21005e-06
2.43304e-06
4.29598e-06
5.30411e-06
9.21244e-06
2.42904e-06
4.29494e-06
9.21497e-06
2.43388e-06
1.21463e-05
3.97538e-06
1.07552e-05
4.67129e-06
1.21462e-05
1.07556e-05
4.67191e-06
2.21185e-05
8.97492e-06
7.1436e-06
2.2119e-05
7.14092e-06
1.21464e-05
3.97521e-06
1.07551e-05
4.67071e-06
1.21464e-05
1.07555e-05
4.67145e-06
2.212e-05
8.97315e-06
7.14137e-06
2.21199e-05
7.13941e-06
1.829e-05
9.64371e-06
2.16081e-05
2.16094e-05
9.6426e-06
2.16148e-05
2.16165e-05
4.27519e-06
5.29822e-06
9.1973e-06
2.42073e-06
2.42516e-06
4.27321e-06
9.19777e-06
4.26808e-06
5.29697e-06
9.1935e-06
2.41986e-06
4.26694e-06
9.19452e-06
2.42392e-06
1.82895e-05
1.21459e-05
3.97466e-06
4.67042e-06
1.0755e-05
1.21458e-05
4.67125e-06
1.07554e-05
2.21181e-05
8.97578e-06
7.14302e-06
2.21183e-05
7.14073e-06
1.21462e-05
3.97447e-06
1.07549e-05
4.67021e-06
1.21459e-05
1.07554e-05
4.67081e-06
2.21196e-05
8.97378e-06
7.14082e-06
2.21192e-05
7.13937e-06
2.21195e-05
8.97467e-06
7.14375e-06
2.21197e-05
7.14121e-06
1.82914e-05
9.67752e-06
2.16328e-05
2.16332e-05
9.66473e-06
2.16596e-05
2.16601e-05
4.28584e-06
5.29906e-06
9.19273e-06
2.41757e-06
2.42648e-06
4.27591e-06
9.2047e-06
4.27912e-06
9.18812e-06
2.41638e-06
5.29805e-06
4.26934e-06
9.20009e-06
2.42509e-06
1.829e-05
4.67129e-06
1.07554e-05
1.21461e-05
7.1434e-06
2.21195e-05
1.4038e-07
9.85665e-08
9.85571e-08
8.06849e-08
1.40376e-07
9.8569e-08
9.85619e-08
8.06855e-08
1.40512e-07
9.85836e-08
9.85735e-08
8.06885e-08
1.40333e-07
9.85698e-08
9.85633e-08
8.06881e-08
2.26778e-06
6.43767e-07
1.2576e-06
1.25799e-06
2.26402e-06
1.26105e-06
1.26143e-06
8.41292e-07
1.70268e-06
1.99e-06
7.08661e-07
8.39727e-07
1.99354e-06
7.10781e-07
1.08402e-06
3.19157e-06
2.54464e-06
1.52485e-06
1.52846e-06
1.08219e-06
2.54671e-06
8.4141e-07
1.70255e-06
1.98959e-06
7.08694e-07
8.3995e-07
1.99308e-06
7.1079e-07
1.08412e-06
3.18897e-06
2.54334e-06
1.52415e-06
1.0826e-06
2.54533e-06
1.52698e-06
2.25549e-06
6.43864e-07
1.25532e-06
1.25531e-06
1.25785e-06
2.25275e-06
1.25759e-06
8.41223e-07
1.70225e-06
1.98959e-06
7.08599e-07
8.39703e-07
1.99319e-06
7.10687e-07
1.084e-06
3.19179e-06
2.54434e-06
1.5252e-06
1.52879e-06
1.0822e-06
2.54649e-06
8.4091e-07
1.70197e-06
7.08542e-07
1.98894e-06
8.39441e-07
7.10616e-07
1.99231e-06
1.08277e-06
3.18838e-06
2.54219e-06
1.52067e-06
1.08106e-06
2.54452e-06
1.5246e-06
1.08428e-06
3.18929e-06
2.54422e-06
1.524e-06
1.08276e-06
1.52686e-06
2.54614e-06
2.25706e-06
6.40849e-07
1.25004e-06
1.24975e-06
1.25426e-06
2.24937e-06
1.25398e-06
7.08777e-07
1.98955e-06
8.3966e-07
2.54291e-06
1.52033e-06
1.08113e-06
1.8283e-05
1.82852e-05
6.81488e-07
5.31016e-06
5.31176e-06
3.98449e-06
8.98008e-06
8.85668e-07
4.08508e-07
3.21377e-06
2.26499e-07
3.98451e-06
7.51885e-07
2.2653e-07
1.82847e-05
1.82869e-05
9.69109e-06
2.16468e-05
2.16449e-05
2.16595e-05
2.16588e-05
9.68338e-06
4.31056e-06
9.21879e-06
2.46103e-06
5.3113e-06
9.22508e-06
4.3053e-06
2.46724e-06
4.3164e-06
9.22195e-06
2.46224e-06
5.31277e-06
9.22953e-06
2.4687e-06
4.30995e-06
1.21426e-05
4.67554e-06
1.07555e-05
3.98517e-06
4.67625e-06
1.07559e-05
1.21425e-05
2.20933e-05
7.132e-06
8.9817e-06
7.13028e-06
2.20931e-05
1.21429e-05
1.07555e-05
3.98507e-06
4.67568e-06
1.07559e-05
4.67587e-06
1.21428e-05
1.41401e-07
1.71328e-06
1.71316e-06
3.19671e-06
3.97749e-06
1.7129e-06
3.88969e-07
2.1682e-07
3.97816e-06
6.51346e-07
2.16684e-07
3.89781e-07
6.5622e-07
1.82916e-05
6.61391e-07
9.85438e-08
3.9547e-07
1.72025e-06
1.72011e-06
3.20033e-06
3.97963e-06
1.72017e-06
3.97952e-06
9.8533e-08
9.85499e-08
9.8527e-08
1.82908e-05
3.95291e-07
3.20106e-06
1.82888e-05
1.82912e-05
5.30221e-06
5.30365e-06
6.53807e-07
3.97786e-06
8.9753e-06
3.97776e-06
8.97462e-06
3.19644e-06
3.89371e-07
2.16719e-07
3.19457e-06
2.16714e-07
3.88997e-07
1.82884e-05
5.30052e-06
6.52729e-07
5.29978e-06
1.82886e-05
8.97632e-06
3.97757e-06
1.71306e-06
3.89142e-07
2.16697e-07
8.97655e-06
3.88734e-07
2.1667e-07
3.19626e-06
2.16736e-07
3.19478e-06
1.71359e-06
8.97575e-06
3.97827e-06
3.90091e-07
1.71362e-06
3.19709e-06
8.97595e-06
1.82925e-05
5.30414e-06
5.3029e-06
1.8291e-05
3.88573e-07
3.19607e-06
2.168e-07
8.97659e-06
5.30344e-06
5.30714e-06
5.30576e-06
1.82892e-05
8.977e-06
3.97951e-06
8.97529e-06
3.98244e-06
8.97807e-06
1.82865e-05
1.82907e-05
8.97642e-06
3.9795e-06
3.9828e-06
8.97944e-06
9.85387e-08
9.85645e-08
2.19898e-07
3.19918e-06
1.72036e-06
4.02078e-07
3.20995e-06
1.82848e-05
1.82847e-05
1.82874e-05
1.82869e-05
5.30246e-06
5.30389e-06
6.62841e-07
6.72602e-07
5.30725e-06
5.3081e-06
3.97945e-06
8.97493e-06
3.98242e-06
8.97914e-06
3.19998e-06
3.95642e-07
2.19878e-07
1.73349e-06
4.0213e-07
3.20832e-06
2.23154e-07
3.1991e-06
2.19871e-07
3.95373e-07
1.73344e-06
4.02184e-07
3.21e-06
2.23143e-07
3.98417e-06
8.97873e-06
3.98418e-06
1.74015e-06
4.08648e-07
3.2133e-06
2.26486e-07
1.74014e-06
2.26513e-07
5.30344e-06
6.61661e-07
5.30275e-06
6.72851e-07
5.31312e-06
5.31234e-06
1.8287e-05
1.82902e-05
1.72014e-06
3.95574e-07
2.19875e-07
8.75669e-07
4.0187e-07
3.20864e-06
2.23139e-07
8.97709e-06
8.97994e-06
3.98276e-06
3.95453e-07
2.19855e-07
3.20139e-06
1.119e-06
4.023e-07
7.43109e-07
2.23143e-07
8.97605e-06
3.97964e-06
8.97989e-06
1.72039e-06
9.68257e-06
2.16446e-05
2.1644e-05
2.16487e-05
2.1648e-05
9.67327e-06
9.65446e-06
2.16453e-05
2.16494e-05
2.16216e-05
2.16244e-05
9.67214e-06
1.21452e-05
1.07556e-05
4.67253e-06
3.9767e-06
1.0755e-05
4.67202e-06
1.21456e-05
1.21452e-05
1.07558e-05
4.67261e-06
3.97763e-06
1.07556e-05
4.67237e-06
1.21451e-05
1.82914e-05
9.6663e-06
2.1635e-05
2.16343e-05
9.66865e-06
2.16362e-05
2.16356e-05
9.70334e-06
2.16573e-05
2.16619e-05
9.69143e-06
2.1677e-05
2.16807e-05
1.21449e-05
1.07553e-05
4.6736e-06
3.9803e-06
1.21446e-05
1.07558e-05
4.67387e-06
1.21439e-05
1.07553e-05
4.6729e-06
3.98006e-06
1.21439e-05
1.07556e-05
4.67318e-06
1.82925e-05
1.82895e-05
1.82917e-05
4.29011e-06
9.21027e-06
2.44034e-06
5.30288e-06
9.21008e-06
2.43616e-06
4.28982e-06
4.29671e-06
9.21521e-06
2.44093e-06
5.30422e-06
9.21496e-06
2.43803e-06
4.29643e-06
1.21451e-05
1.07556e-05
4.67272e-06
3.9772e-06
1.07552e-05
4.67233e-06
1.21451e-05
2.21109e-05
7.1372e-06
8.97483e-06
7.13982e-06
2.21107e-05
1.21453e-05
1.07554e-05
4.67265e-06
3.97704e-06
1.0755e-05
4.67193e-06
1.21455e-05
2.21136e-05
7.13682e-06
8.97348e-06
7.13869e-06
2.21136e-05
1.82873e-05
4.27927e-06
9.20433e-06
2.43463e-06
5.29951e-06
2.42897e-06
9.19874e-06
4.28587e-06
4.27676e-06
9.20445e-06
2.43667e-06
5.29902e-06
9.1974e-06
2.4293e-06
4.28652e-06
1.82872e-05
2.21113e-05
7.13759e-06
8.97578e-06
7.13974e-06
2.21112e-05
1.21449e-05
4.67254e-06
1.07556e-05
3.97672e-06
4.67178e-06
1.07551e-05
1.21451e-05
2.21133e-05
7.13721e-06
8.97461e-06
7.13884e-06
2.21136e-05
2.21121e-05
7.13784e-06
8.97494e-06
7.14037e-06
2.2112e-05
1.21455e-05
4.67286e-06
1.07562e-05
3.97775e-06
4.67284e-06
1.07559e-05
1.21455e-05
2.21112e-05
7.13586e-06
8.97519e-06
7.13831e-06
2.2111e-05
1.82902e-05
4.29528e-06
2.44124e-06
5.30293e-06
9.21843e-06
2.43363e-06
9.21016e-06
4.30115e-06
4.2888e-06
2.43986e-06
5.30154e-06
9.21382e-06
9.2055e-06
2.43245e-06
4.2945e-06
9.6879e-06
2.1676e-05
2.16765e-05
2.1665e-05
2.16654e-05
9.69341e-06
1.82887e-05
1.21462e-05
3.97541e-06
4.67158e-06
1.07558e-05
2.21125e-05
8.97502e-06
7.13825e-06
7.14062e-06
2.21125e-05
2.21196e-05
8.97445e-06
7.14121e-06
4.28897e-06
2.43964e-06
5.30348e-06
9.21193e-06
4.28977e-06
2.43681e-06
9.211e-06
4.31283e-06
2.44694e-06
5.30808e-06
9.2215e-06
9.22739e-06
4.30799e-06
2.45351e-06
4.30616e-06
2.44575e-06
9.21688e-06
5.30684e-06
2.45211e-06
4.30151e-06
9.22276e-06
9.70449e-06
2.16762e-05
2.16767e-05
2.16807e-05
9.70044e-06
2.16812e-05
1.82909e-05
2.21054e-05
7.13763e-06
8.97825e-06
7.13521e-06
2.21054e-05
1.2144e-05
1.07551e-05
4.67308e-06
3.98014e-06
1.21439e-05
1.07555e-05
4.6735e-06
2.21041e-05
7.13633e-06
8.97602e-06
2.21039e-05
7.13414e-06
1.2143e-05
3.98175e-06
1.07555e-05
4.67473e-06
1.07551e-05
4.67406e-06
1.21431e-05
2.20981e-05
8.97645e-06
7.13195e-06
7.13369e-06
2.20986e-05
1.82887e-05
1.82879e-05
2.21051e-05
7.13682e-06
8.97731e-06
2.21049e-05
7.13491e-06
1.21443e-05
4.67303e-06
1.07553e-05
3.98029e-06
1.2144e-05
4.67376e-06
1.07558e-05
1.21433e-05
3.98209e-06
4.67504e-06
1.07559e-05
4.67427e-06
1.07555e-05
1.21435e-05
2.20989e-05
8.97779e-06
7.1326e-06
7.13433e-06
2.20992e-05
1.82854e-05
1.8283e-05
1.82877e-05
1.82852e-05
4.29081e-06
9.20989e-06
2.44276e-06
5.30258e-06
4.29003e-06
9.21023e-06
2.44738e-06
4.29727e-06
9.21479e-06
2.44467e-06
5.30419e-06
4.2967e-06
9.21507e-06
2.44749e-06
9.66759e-06
2.16429e-05
2.16407e-05
2.16354e-05
2.16344e-05
9.67234e-06
4.29255e-06
5.30501e-06
9.21574e-06
2.45728e-06
9.21116e-06
2.45026e-06
4.30002e-06
4.30098e-06
5.30665e-06
9.21884e-06
2.4562e-06
9.2157e-06
2.45267e-06
4.30145e-06
1.21446e-05
1.0755e-05
4.67305e-06
3.9801e-06
1.21444e-05
1.07554e-05
4.67364e-06
2.21069e-05
7.136e-06
8.97636e-06
2.21071e-05
7.1341e-06
1.21435e-05
3.98174e-06
1.07554e-05
4.67476e-06
1.0755e-05
4.67409e-06
1.21436e-05
2.21001e-05
8.9771e-06
7.13143e-06
7.13334e-06
2.21e-05
1.21423e-05
1.07551e-05
4.67535e-06
3.98492e-06
1.21421e-05
1.07555e-05
4.67612e-06
2.20929e-05
7.13162e-06
8.98043e-06
2.20924e-05
7.12997e-06
1.21427e-05
1.0755e-05
4.67529e-06
3.98492e-06
1.21425e-05
1.07554e-05
4.67607e-06
4.30531e-06
9.21013e-06
2.44191e-06
5.30546e-06
4.29859e-06
9.21979e-06
2.44903e-06
4.3076e-06
9.21072e-06
2.44233e-06
5.30557e-06
4.29697e-06
2.45083e-06
9.22035e-06
9.71165e-06
2.16845e-05
2.16852e-05
2.16799e-05
2.16821e-05
9.71371e-06
4.31673e-06
5.31068e-06
9.23384e-06
2.46456e-06
9.22628e-06
2.45706e-06
4.32219e-06
4.3134e-06
5.31027e-06
9.23116e-06
2.4629e-06
2.45604e-06
9.22542e-06
4.31756e-06
1.8289e-05
1.82879e-05
2.2107e-05
7.13647e-06
8.97846e-06
2.21071e-05
7.13438e-06
2.21e-05
8.97881e-06
7.13132e-06
7.13352e-06
2.20997e-05
1.21438e-05
3.98219e-06
4.67488e-06
1.07559e-05
1.07555e-05
4.67475e-06
1.2144e-05
2.2105e-05
7.13728e-06
8.97718e-06
2.21049e-05
7.13496e-06
1.21442e-05
4.6734e-06
1.07556e-05
3.98019e-06
1.21442e-05
4.6735e-06
1.07559e-05
2.20981e-05
8.97785e-06
7.13256e-06
7.13456e-06
2.20984e-05
1.3052e-06
2.30087e-06
1.30522e-06
6.8206e-07
1.30816e-06
2.3054e-06
1.30845e-06
7.51879e-07
1.74031e-06
2.02701e-06
8.8708e-07
1.74363e-06
2.03054e-06
7.53948e-07
1.12853e-06
1.57271e-06
2.57449e-06
1.13007e-06
3.21547e-06
1.57598e-06
2.57637e-06
1.74031e-06
8.8572e-07
2.02711e-06
8.87193e-07
1.74365e-06
7.53972e-07
2.03053e-06
9.85299e-08
9.85195e-08
8.01427e-08
8.51322e-07
2.00302e-06
7.21583e-07
1.71001e-06
1.99973e-06
7.19481e-07
8.5285e-07
8.51268e-07
2.00256e-06
7.21542e-07
1.70984e-06
1.99908e-06
7.19458e-07
8.52703e-07
1.09424e-06
2.55395e-06
1.54126e-06
3.19558e-06
1.53822e-06
2.55213e-06
1.09589e-06
8.50844e-07
7.21373e-07
2.00243e-06
1.70953e-06
7.19256e-07
1.99902e-06
8.52387e-07
2.26974e-06
1.27083e-06
6.50226e-07
1.27055e-06
1.26654e-06
1.26627e-06
2.27556e-06
2.27245e-06
1.2752e-06
6.56123e-07
1.27398e-06
2.27419e-06
1.27312e-06
1.27225e-06
2.29048e-06
1.28263e-06
6.62557e-07
1.28237e-06
1.2861e-06
2.28587e-06
1.28638e-06
1.43613e-07
1.42483e-07
9.8537e-08
9.85227e-08
9.8557e-08
7.91111e-08
7.96173e-08
8.64288e-07
2.00882e-06
7.30278e-07
1.72347e-06
8.62824e-07
2.01215e-06
7.32355e-07
8.64028e-07
2.00829e-06
7.30222e-07
1.72336e-06
8.62581e-07
2.0118e-06
7.32294e-07
1.1074e-06
2.55922e-06
1.54977e-06
3.20193e-06
1.10585e-06
2.56111e-06
1.55261e-06
8.6401e-07
7.30116e-07
2.00882e-06
1.72349e-06
8.6248e-07
7.32229e-07
2.01214e-06
1.41404e-07
9.85261e-08
8.01441e-08
1.41534e-07
9.85387e-08
8.01471e-08
1.41362e-07
9.85343e-08
8.01457e-08
1.10703e-06
1.54903e-06
2.5595e-06
3.20285e-06
1.10525e-06
1.55263e-06
2.56145e-06
2.27411e-06
1.27366e-06
1.27403e-06
6.53107e-07
1.27104e-06
1.27141e-06
2.27607e-06
1.09425e-06
2.55404e-06
1.54095e-06
3.19535e-06
1.53791e-06
2.55233e-06
1.09593e-06
1.09376e-06
2.55282e-06
1.53826e-06
3.19313e-06
2.55095e-06
1.5352e-06
1.09525e-06
2.26323e-06
1.26908e-06
1.27044e-06
6.52228e-07
1.26604e-06
1.26708e-06
2.26878e-06
8.5126e-07
2.00284e-06
7.21461e-07
1.70965e-06
1.99938e-06
7.19355e-07
8.52757e-07
1.09302e-06
2.55324e-06
1.53912e-06
3.19424e-06
2.55101e-06
1.5352e-06
1.09486e-06
1.09403e-06
1.53877e-06
2.55336e-06
3.19332e-06
1.5355e-06
2.55157e-06
1.09555e-06
8.51593e-07
7.21829e-07
2.00292e-06
1.71034e-06
1.9997e-06
7.19753e-07
8.5302e-07
8.51911e-07
7.21886e-07
2.00315e-06
1.71034e-06
7.19799e-07
1.99986e-06
8.53365e-07
1.0952e-06
1.54176e-06
2.55387e-06
3.19577e-06
2.55205e-06
1.53904e-06
1.09668e-06
8.41138e-07
1.70262e-06
7.10865e-07
1.99289e-06
1.09308e-06
1.53877e-06
3.19401e-06
2.55355e-06
1.0949e-06
1.53486e-06
2.55141e-06
1.08285e-06
3.18834e-06
1.52426e-06
2.54514e-06
1.42495e-07
9.85312e-08
1.43652e-07
9.85611e-08
9.85543e-08
7.91126e-08
7.96181e-08
9.85328e-08
1.42473e-07
9.8541e-08
9.85559e-08
1.43648e-07
7.9114e-08
7.9621e-08
1.10692e-06
1.54799e-06
2.55865e-06
3.20138e-06
1.10532e-06
1.55155e-06
2.56063e-06
8.64289e-07
7.30475e-07
2.00865e-06
1.7236e-06
8.62878e-07
2.01199e-06
7.32518e-07
1.11689e-06
3.20741e-06
2.56885e-06
1.56487e-06
1.56126e-06
2.56651e-06
1.11858e-06
2.28275e-06
1.28225e-06
1.2826e-06
6.63352e-07
2.28078e-06
1.28461e-06
1.28496e-06
1.29631e-06
2.29207e-06
1.29552e-06
2.28863e-06
6.72153e-07
1.29283e-06
1.29366e-06
1.1074e-06
2.5592e-06
1.54943e-06
3.20151e-06
1.10586e-06
2.561e-06
1.5523e-06
8.74231e-07
1.73023e-06
2.02132e-06
7.43105e-07
2.01783e-06
7.41047e-07
8.7566e-07
1.5639e-06
1.11719e-06
3.20622e-06
2.56862e-06
2.56657e-06
1.56066e-06
1.11874e-06
1.10667e-06
2.55825e-06
1.54747e-06
3.20123e-06
1.10504e-06
2.56028e-06
1.55106e-06
8.73995e-07
1.73012e-06
2.02127e-06
7.43056e-07
2.01752e-06
7.40984e-07
8.75482e-07
1.11678e-06
3.20732e-06
2.56861e-06
1.56508e-06
2.5662e-06
1.11854e-06
1.56124e-06
8.87023e-07
2.02689e-06
7.51823e-07
1.74346e-06
8.85614e-07
2.03039e-06
7.53884e-07
1.57266e-06
1.57577e-06
3.21503e-06
1.13004e-06
2.57429e-06
1.12852e-06
2.57621e-06
8.87045e-07
2.02693e-06
7.51795e-07
1.74352e-06
8.85564e-07
2.03076e-06
7.53866e-07
2.28688e-06
1.27958e-06
1.28074e-06
6.62444e-07
2.28044e-06
1.2846e-06
1.2832e-06
2.2975e-06
6.7195e-07
1.29884e-06
1.29844e-06
1.29499e-06
1.29504e-06
2.30259e-06
8.64248e-07
2.0087e-06
7.30186e-07
1.72352e-06
8.62784e-07
2.01218e-06
7.32286e-07
7.43117e-07
1.73371e-06
2.02148e-06
8.74242e-07
1.73035e-06
2.01792e-06
7.41029e-07
1.1187e-06
1.56387e-06
2.56876e-06
1.11722e-06
3.20675e-06
2.56679e-06
1.56107e-06
1.10704e-06
2.55932e-06
1.54941e-06
3.20312e-06
1.10525e-06
1.55302e-06
2.56129e-06
2.56883e-06
3.20969e-06
1.1173e-06
3.20788e-06
1.56609e-06
1.56272e-06
2.56692e-06
1.7337e-06
8.75631e-07
2.02141e-06
8.7413e-07
1.7304e-06
7.41008e-07
2.01811e-06
8.64556e-07
7.30523e-07
2.00879e-06
1.72359e-06
8.63187e-07
7.32561e-07
2.01199e-06
5.38018e-06
1.47391e-07
4.22424e-07
4.22483e-07
7.02183e-07
1.53025e-07
4.49202e-07
4.4931e-07
7.37556e-07
1.59382e-07
4.7756e-07
4.77509e-07
7.73602e-07
1.66578e-07
5.06526e-07
5.06472e-07
8.08793e-07
1.74579e-07
5.35951e-07
5.36001e-07
8.43007e-07
1.83369e-07
5.65706e-07
5.65735e-07
8.75567e-07
2.00617e-07
5.9576e-07
5.95879e-07
9.07492e-07
2.03278e-07
6.25725e-07
6.91922e-07
4.15301e-07
4.15962e-07
7.01314e-07
7.29915e-07
4.2232e-07
4.22625e-07
4.42893e-07
4.42584e-07
7.02496e-07
7.28615e-07
4.2221e-07
4.22657e-07
4.42772e-07
4.42652e-07
4.22566e-07
4.42387e-07
4.42658e-07
7.0263e-07
7.28675e-07
4.22427e-07
4.42466e-07
4.42518e-07
7.2902e-07
7.38372e-07
7.64724e-07
4.49679e-07
4.49423e-07
4.70492e-07
4.70626e-07
7.37233e-07
7.6518e-07
4.49546e-07
4.495e-07
4.70347e-07
4.70529e-07
4.49463e-07
4.70426e-07
4.70484e-07
7.37339e-07
7.6479e-07
4.49328e-07
4.70339e-07
4.70336e-07
7.64758e-07
7.7349e-07
8.00176e-07
4.77627e-07
4.77771e-07
4.99315e-07
4.99491e-07
7.74051e-07
8.00522e-07
4.77473e-07
4.77698e-07
4.99151e-07
4.99388e-07
4.77657e-07
4.99284e-07
4.99309e-07
7.7361e-07
8.00257e-07
4.77512e-07
4.99198e-07
4.9915e-07
8.00202e-07
8.08752e-07
8.3435e-07
5.06578e-07
5.06729e-07
5.28684e-07
5.28704e-07
8.09082e-07
8.34344e-07
5.06407e-07
5.06662e-07
5.28509e-07
5.2876e-07
5.06607e-07
5.28485e-07
5.28727e-07
8.08822e-07
8.34521e-07
5.0645e-07
5.28569e-07
5.28564e-07
8.34559e-07
8.42795e-07
8.6737e-07
5.36099e-07
5.36138e-07
5.58436e-07
5.58427e-07
8.42819e-07
8.67319e-07
5.35916e-07
5.36193e-07
5.58258e-07
5.58526e-07
5.36134e-07
5.58193e-07
5.58499e-07
8.43001e-07
8.6741e-07
5.35967e-07
5.58341e-07
5.58333e-07
8.67455e-07
8.7559e-07
8.99165e-07
5.65914e-07
5.65857e-07
5.88402e-07
5.88527e-07
8.7557e-07
8.99299e-07
5.65725e-07
5.65926e-07
5.88204e-07
5.88486e-07
5.65869e-07
5.88246e-07
5.885e-07
8.75503e-07
8.99377e-07
5.657e-07
5.88303e-07
5.88318e-07
8.99437e-07
9.0714e-07
9.29947e-07
5.95898e-07
5.95847e-07
6.18467e-07
3.355e-06
9.07162e-07
5.37797e-06
5.95695e-07
5.96063e-07
6.18271e-07
6.1843e-07
5.95975e-07
6.18195e-07
9.07454e-07
9.29762e-07
5.95782e-07
6.18256e-07
3.35818e-06
6.25892e-07
9.37555e-07
1.82879e-05
3.99171e-06
8.98273e-06
3.98904e-06
8.986e-06
1.82827e-05
1.82807e-05
3.99184e-06
8.98391e-06
3.98907e-06
8.98734e-06
7.76922e-08
1.47437e-07
1.47433e-07
1.51563e-07
1.51523e-07
1.51546e-07
1.51547e-07
1.77197e-06
1.15176e-06
2.33496e-07
4.29073e-07
9.08618e-07
3.23366e-06
2.37088e-07
1.82852e-05
1.8282e-05
1.77202e-06
2.33517e-07
1.59828e-06
4.29104e-07
2.37111e-07
3.23378e-06
9.08734e-07
5.31814e-06
5.31956e-06
7.11731e-07
5.31741e-06
5.31892e-06
3.99839e-06
8.98815e-06
3.99655e-06
8.99092e-06
1.82741e-05
1.82756e-05
3.99855e-06
8.98935e-06
3.99651e-06
8.99223e-06
1.52993e-07
1.53008e-07
1.5299e-07
1.5771e-07
1.57717e-07
1.57721e-07
1.57728e-07
1.80562e-06
3.24733e-06
2.48246e-07
4.56196e-07
1.7943e-06
3.25473e-06
2.52121e-07
1.82758e-05
1.82764e-05
1.80573e-06
2.48275e-07
3.24883e-06
4.56243e-07
1.79438e-06
2.52146e-07
3.25568e-06
5.32548e-06
5.32698e-06
7.46665e-07
5.32596e-06
5.32749e-06
4.00502e-06
8.99513e-06
4.00313e-06
8.99852e-06
1.82727e-05
1.82728e-05
4.00508e-06
8.9963e-06
4.00299e-06
8.99974e-06
1.594e-07
1.59401e-07
1.59381e-07
1.64707e-07
1.64737e-07
1.64738e-07
1.64746e-07
1.83663e-06
3.26969e-06
2.64206e-07
4.84753e-07
1.82603e-06
3.27509e-06
2.68393e-07
1.82729e-05
1.82748e-05
1.83665e-06
2.64224e-07
3.26961e-06
4.84728e-07
1.826e-06
2.68404e-07
3.27665e-06
5.33525e-06
5.33679e-06
7.8276e-07
5.33691e-06
5.3385e-06
4.01097e-06
9.00261e-06
4.00928e-06
9.00608e-06
1.8272e-05
1.82717e-05
4.01095e-06
9.00392e-06
4.00923e-06
9.00722e-06
1.66603e-07
1.66614e-07
1.66587e-07
1.72507e-07
1.72514e-07
1.72536e-07
1.72561e-07
1.86495e-06
3.29023e-06
2.81322e-07
5.13766e-07
1.85503e-06
3.29459e-06
2.85776e-07
1.82718e-05
1.8274e-05
1.86485e-06
2.81351e-07
3.28919e-06
5.13799e-07
1.85507e-06
2.85795e-07
3.29533e-06
5.34284e-06
5.34433e-06
8.17498e-07
5.34652e-06
5.3481e-06
4.01672e-06
9.01095e-06
4.0149e-06
9.01466e-06
1.82736e-05
1.82754e-05
4.01672e-06
9.01238e-06
4.01497e-06
9.01584e-06
1.74591e-07
1.74621e-07
1.74589e-07
1.81101e-07
1.81098e-07
1.81132e-07
1.81164e-07
1.89117e-06
3.30881e-06
2.99475e-07
5.43372e-07
1.88165e-06
3.31412e-06
3.04205e-07
1.82739e-05
1.82764e-05
1.89104e-06
2.99527e-07
3.30812e-06
5.43466e-07
1.88182e-06
3.04235e-07
3.31382e-06
5.35154e-06
5.35317e-06
8.51275e-07
5.35562e-06
5.35707e-06
4.02208e-06
9.01967e-06
4.02036e-06
9.02377e-06
1.82749e-05
1.82799e-05
4.02214e-06
9.02105e-06
4.02051e-06
9.02505e-06
1.83371e-07
1.83396e-07
1.83358e-07
1.90472e-07
1.90483e-07
1.90508e-07
1.90555e-07
1.91537e-06
3.32495e-06
3.18626e-07
5.73209e-07
1.9065e-06
3.33109e-06
3.23592e-07
1.82765e-05
1.82794e-05
1.91532e-06
3.18694e-07
3.32566e-06
5.73178e-07
1.90672e-06
3.2362e-07
3.33018e-06
5.36005e-06
5.36179e-06
8.83403e-07
5.36267e-06
5.36437e-06
4.02771e-06
9.02941e-06
4.02597e-06
9.03364e-06
1.82809e-05
1.8284e-05
4.02795e-06
9.03057e-06
4.02599e-06
9.03509e-06
1.12984e-07
1.9294e-07
1.9295e-07
1.92988e-07
1.92932e-07
2.00639e-07
2.00664e-07
1.93837e-06
3.34248e-06
3.38691e-07
6.03109e-07
1.9299e-06
3.34691e-06
3.43892e-07
1.8284e-05
1.82867e-05
1.93842e-06
3.38754e-07
3.34338e-06
6.03391e-07
1.9299e-06
3.43924e-07
3.34808e-06
5.3712e-06
5.37266e-06
9.14982e-07
5.37305e-06
5.37499e-06
1.13925e-07
2.03302e-07
2.033e-07
1.82885e-05
3.35753e-06
1.8284e-05
1.82866e-05
5.31445e-06
5.31605e-06
8.98346e-06
3.98746e-06
3.22177e-06
2.29942e-07
1.75327e-06
8.98359e-06
3.98735e-06
8.98035e-06
4.09164e-07
2.29982e-07
1.58749e-06
1.75334e-06
1.57859e-06
1.82818e-05
1.82817e-05
1.82844e-05
1.82843e-05
5.31686e-06
5.31843e-06
7.1178e-07
5.32134e-06
5.32302e-06
1.82761e-05
1.82789e-05
1.82786e-05
1.82815e-05
7.20795e-07
5.32326e-06
5.32478e-06
5.32273e-06
5.32441e-06
3.99155e-06
8.98261e-06
3.98893e-06
8.98495e-06
1.7718e-06
1.59705e-06
2.33463e-07
4.29244e-07
9.08373e-07
3.23489e-06
2.37095e-07
1.77171e-06
1.59849e-06
2.33502e-07
4.2926e-07
9.08561e-07
3.23397e-06
2.37091e-07
3.9932e-06
8.98796e-06
8.98626e-06
3.99533e-06
3.99308e-06
8.98811e-06
8.98551e-06
3.99529e-06
1.77758e-06
4.36104e-07
3.24489e-06
2.44508e-07
3.23906e-06
2.40747e-07
1.78925e-06
1.77744e-06
4.35902e-07
3.24488e-06
2.4447e-07
3.23889e-06
2.40749e-07
1.78925e-06
5.31713e-06
5.31583e-06
7.11508e-07
5.32019e-06
5.31873e-06
1.82811e-05
1.82789e-05
1.82768e-05
1.82784e-05
7.19899e-07
5.3232e-06
5.32193e-06
5.32264e-06
5.32132e-06
1.82752e-05
1.82767e-05
1.77196e-06
3.22659e-06
2.33483e-07
4.29135e-07
1.75945e-06
3.23545e-06
2.37085e-07
3.99167e-06
8.9839e-06
3.98905e-06
8.98584e-06
1.77191e-06
2.33523e-07
1.59875e-06
4.29278e-07
1.75945e-06
2.37109e-07
3.23407e-06
3.99327e-06
8.98918e-06
8.98762e-06
3.99537e-06
1.77768e-06
4.35984e-07
3.24533e-06
2.44497e-07
3.23965e-06
2.40772e-07
1.78927e-06
3.99315e-06
8.98873e-06
8.98603e-06
3.99527e-06
1.77749e-06
4.35914e-07
2.44487e-07
3.24485e-06
2.40777e-07
3.23768e-06
1.78925e-06
3.99184e-06
8.98319e-06
3.98929e-06
8.98554e-06
1.77197e-06
2.33506e-07
1.59834e-06
4.29248e-07
9.08556e-07
2.37099e-07
3.23302e-06
3.99175e-06
8.98396e-06
3.98926e-06
8.98505e-06
1.77743e-06
4.35693e-07
3.24449e-06
2.44458e-07
3.23868e-06
2.40734e-07
1.78926e-06
3.99308e-06
8.98844e-06
8.98609e-06
3.99522e-06
1.77731e-06
4.35926e-07
2.44469e-07
3.24522e-06
2.40747e-07
3.23671e-06
1.78925e-06
3.99293e-06
8.98853e-06
8.98519e-06
3.9951e-06
5.31934e-06
5.31791e-06
7.11502e-07
5.32e-06
5.31863e-06
1.82832e-05
1.82799e-05
1.82779e-05
1.82788e-05
7.19867e-07
5.32395e-06
5.32232e-06
5.32082e-06
5.31939e-06
1.82757e-05
1.82767e-05
1.77198e-06
2.33507e-07
1.59881e-06
4.29108e-07
2.37101e-07
3.23352e-06
9.08611e-07
3.99189e-06
8.98392e-06
8.98583e-06
3.98928e-06
3.99184e-06
8.98458e-06
8.98573e-06
3.98927e-06
1.7776e-06
4.35735e-07
2.44482e-07
3.24435e-06
2.40765e-07
3.23733e-06
1.7891e-06
1.77752e-06
4.35792e-07
2.44472e-07
3.24565e-06
2.40755e-07
3.23723e-06
1.78911e-06
3.9931e-06
8.98841e-06
8.98596e-06
3.99509e-06
3.99304e-06
8.98919e-06
8.98589e-06
3.99507e-06
1.82842e-05
1.8279e-05
1.8286e-05
1.8281e-05
7.20256e-07
5.32375e-06
5.32533e-06
5.31823e-06
5.31983e-06
1.82765e-05
1.82759e-05
1.82785e-05
1.82779e-05
1.82731e-05
1.82726e-05
1.82755e-05
1.82751e-05
5.32392e-06
5.32541e-06
7.4705e-07
5.32683e-06
5.32843e-06
1.82718e-05
1.82707e-05
1.82742e-05
1.82732e-05
7.55628e-07
5.33204e-06
5.33357e-06
5.32907e-06
5.33075e-06
3.99832e-06
8.98818e-06
3.9965e-06
8.9909e-06
1.80549e-06
3.24837e-06
2.48282e-07
4.56521e-07
1.79449e-06
3.25515e-06
2.52171e-07
1.80544e-06
3.24785e-06
2.48269e-07
4.56402e-07
1.79441e-06
3.25518e-06
2.52134e-07
3.99967e-06
8.99467e-06
8.99141e-06
4.00184e-06
3.99962e-06
8.99543e-06
8.99166e-06
4.00182e-06
1.81046e-06
4.63458e-07
3.26573e-06
2.60128e-07
3.25921e-06
2.56086e-07
1.82139e-06
1.81037e-06
4.63508e-07
3.26707e-06
2.60114e-07
3.26032e-06
2.56087e-07
1.82145e-06
5.32359e-06
5.3222e-06
7.46624e-07
5.32929e-06
5.32754e-06
1.82723e-05
1.82736e-05
1.82753e-05
1.82745e-05
7.55609e-07
5.33454e-06
5.33345e-06
5.3327e-06
5.33125e-06
1.82739e-05