/*--------------------------------*- C++ -*----------------------------------*\
| =========                 |                                                 |
| \\      /  F ield         | OpenFOAM: The Open Source CFD Toolbox           |
|  \\    /   O peration     | Version:  v2006                                 |
|   \\  /    A nd           | Website:  www.openfoam.com                      |
|    \\/     M anipulation  |                                                 |
\*---------------------------------------------------------------------------*/
FoamFile
{
    version     2.0;
    format      ascii;
    class       volScalarField;
    location    "875";
    object      k;
}
// * * * * * * * * * * * * * * * * * * * * * * * * * * * * * * * * * * * * * //

dimensions      [0 2 -2 0 0 0 0];


internalField   nonuniform List<scalar> 
14258
(
5.97986e-05
7.03762e-05
5.97875e-05
7.03741e-05
6.92013e-05
6.92021e-05
2.53618e-05
6.2877e-05
6.28813e-05
4.10732e-05
1.97794e-05
5.2786e-05
1.55641e-05
4.10755e-05
1.97797e-05
5.27868e-05
1.55695e-05
5.97849e-05
4.10757e-05
1.5577e-05
6.99137e-05
5.97324e-05
6.95272e-05
6.41938e-05
6.95257e-05
6.41397e-05
6.99137e-05
7.03426e-05
7.56854e-05
7.03653e-05
7.56634e-05
7.03416e-05
6.99107e-05
5.97317e-05
6.41813e-05
6.95249e-05
6.41364e-05
6.95238e-05
6.99108e-05
7.03391e-05
7.56729e-05
7.03638e-05
7.56583e-05
7.03383e-05
6.91964e-05
6.91971e-05
8.94533e-05
7.18963e-05
7.18901e-05
7.18789e-05
7.18725e-05
8.96917e-05
6.30548e-05
6.96544e-05
6.27531e-05
4.87936e-05
6.96139e-05
6.33597e-05
4.85775e-05
6.31202e-05
6.9665e-05
6.27594e-05
4.88108e-05
6.9624e-05
6.34246e-05
4.8599e-05
6.99086e-05
5.97292e-05
6.95243e-05
6.41708e-05
6.9523e-05
6.4127e-05
6.99089e-05
7.0336e-05
7.5639e-05
7.56262e-05
7.03363e-05
4.79051e-05
2.53635e-05
3.55419e-05
3.55524e-05
4.8071e-05
3.54677e-05
3.54788e-05
2.84358e-05
4.09261e-05
4.44033e-05
2.61546e-05
4.42617e-05
2.6084e-05
2.84912e-05
3.23351e-05
4.9166e-05
5.2657e-05
3.86277e-05
4.90585e-05
3.85389e-05
3.2391e-05
2.84529e-05
4.09381e-05
4.44038e-05
2.61729e-05
4.42691e-05
2.61065e-05
2.85045e-05
3.23466e-05
4.91644e-05
5.26597e-05
3.86387e-05
4.90584e-05
3.8552e-05
3.23997e-05
2.84763e-05
4.09406e-05
2.61782e-05
4.4404e-05
2.61122e-05
4.42804e-05
2.85245e-05
3.24004e-05
4.91524e-05
4.90777e-05
3.2437e-05
2.78897e-05
2.08787e-05
3.45024e-05
2.06769e-05
6.24815e-05
2.76417e-05
3.42892e-05
6.91795e-05
2.7896e-05
2.08763e-05
5.71136e-05
3.44749e-05
6.51204e-05
6.91794e-05
7.0722e-05
2.79003e-05
2.08806e-05
4.82641e-05
6.51259e-05
6.50974e-05
6.91797e-05
4.82026e-05
5.70781e-05
6.24828e-05
7.07174e-05
4.82027e-05
2.76507e-05
5.70872e-05
7.07145e-05
5.70896e-05
7.07161e-05
6.5102e-05
6.51092e-05
6.91817e-05
2.08803e-05
5.71212e-05
4.82628e-05
6.25037e-05
7.07202e-05
6.25034e-05
6.91805e-05
6.75034e-05
6.51712e-05
7.03703e-05
5.52819e-05
6.98424e-05
6.95331e-05
6.63155e-05
6.24381e-05
6.98455e-05
6.95303e-05
6.62794e-05
6.91729e-05
6.91886e-05
9.11648e-05
7.17821e-05
7.17862e-05
6.74812e-05
7.03435e-05
5.51746e-05
6.51678e-05
5.52816e-05
7.03634e-05
6.73838e-05
6.91873e-05
7.00295e-05
7.64113e-05
7.07332e-05
7.64308e-05
7.00233e-05
6.74992e-05
5.51818e-05
7.03462e-05
6.51665e-05
6.73907e-05
5.52862e-05
7.03657e-05
6.6319e-05
6.95335e-05
6.98461e-05
7.64052e-05
7.00309e-05
7.00247e-05
7.63892e-05
7.07048e-05
7.003e-05
7.63724e-05
7.00262e-05
7.07069e-05
7.63939e-05
7.63791e-05
7.00311e-05
6.7243e-05
5.51339e-05
6.50731e-05
7.0329e-05
6.73248e-05
5.50475e-05
7.03086e-05
6.72695e-05
5.51313e-05
6.50793e-05
7.03374e-05
6.73453e-05
5.50414e-05
7.03183e-05
9.09675e-05
7.17744e-05
7.17692e-05
9.10571e-05
7.17624e-05
7.1756e-05
6.91753e-05
6.98479e-05
6.25458e-05
6.63336e-05
6.95332e-05
6.63691e-05
6.98444e-05
6.95362e-05
7.00292e-05
7.63982e-05
7.07309e-05
7.00238e-05
7.64157e-05
6.98482e-05
6.25458e-05
6.63329e-05
6.95333e-05
6.9845e-05
6.63689e-05
6.95362e-05
6.91877e-05
5.52241e-05
3.45227e-05
4.45035e-05
4.44951e-05
4.45554e-05
5.51213e-05
4.45505e-05
5.49476e-05
4.43541e-05
3.42672e-05
4.43433e-05
5.50414e-05
4.43008e-05
4.42903e-05
4.16625e-05
4.69997e-05
5.46465e-05
5.71849e-05
4.7057e-05
5.47292e-05
4.16199e-05
5.52192e-05
4.44734e-05
4.44812e-05
3.45002e-05
4.45394e-05
5.51129e-05
4.45327e-05
3.84697e-05
4.83689e-05
3.61554e-05
5.09734e-05
3.84336e-05
3.62072e-05
5.10676e-05
3.59476e-05
5.09148e-05
3.82157e-05
4.68602e-05
5.46009e-05
4.14407e-05
3.81813e-05
3.59483e-05
5.0916e-05
4.80953e-05
3.82194e-05
3.58956e-05
5.08184e-05
4.14096e-05
5.46032e-05
4.6883e-05
5.70261e-05
4.14518e-05
5.45243e-05
4.68296e-05
4.14063e-05
4.68774e-05
5.70274e-05
5.4604e-05
5.45248e-05
4.68242e-05
4.14484e-05
4.16687e-05
4.70096e-05
5.46476e-05
5.71869e-05
4.70653e-05
4.16268e-05
5.47272e-05
3.84669e-05
4.83684e-05
3.61539e-05
5.09699e-05
3.62059e-05
3.84299e-05
5.10666e-05
6.25006e-05
4.82599e-05
6.2502e-05
4.82599e-05
5.71188e-05
7.07189e-05
6.51193e-05
6.91785e-05
6.9848e-05
6.95332e-05
6.63302e-05
6.2545e-05
6.95363e-05
6.63685e-05
6.98447e-05
6.98487e-05
6.63341e-05
6.95336e-05
6.25465e-05
6.63723e-05
6.95367e-05
6.98452e-05
7.00286e-05
7.63949e-05
7.073e-05
7.64155e-05
7.0023e-05
6.74788e-05
5.51842e-05
6.51599e-05
7.03385e-05
5.5281e-05
6.73776e-05
7.03593e-05
9.11708e-05
7.17731e-05
7.17686e-05
9.11147e-05
7.17792e-05
7.17752e-05
6.91859e-05
3.84633e-05
3.61515e-05
5.0968e-05
4.83662e-05
5.10661e-05
3.62032e-05
3.84265e-05
3.84666e-05
3.61526e-05
5.09683e-05
4.83658e-05
3.62041e-05
5.10652e-05
3.84303e-05
4.16701e-05
5.46466e-05
4.70138e-05
5.71838e-05
5.47262e-05
4.70667e-05
4.16291e-05
6.91956e-05
6.91963e-05
2.55311e-05
6.29601e-05
6.29614e-05
5.98297e-05
7.03786e-05
5.98284e-05
7.03671e-05
4.11893e-05
1.9953e-05
5.28785e-05
1.56508e-05
4.11924e-05
1.99836e-05
5.2872e-05
1.56526e-05
6.91831e-05
2.56961e-05
6.29031e-05
6.29031e-05
6.91827e-05
5.98158e-05
7.03771e-05
4.11843e-05
1.99541e-05
5.28773e-05
1.56539e-05
5.98132e-05
7.03609e-05
4.11831e-05
1.99439e-05
1.56565e-05
5.27929e-05
1.99809e-05
5.28866e-05
7.03745e-05
6.91783e-05
2.55611e-05
6.27874e-05
6.279e-05
6.91787e-05
4.11964e-05
1.99415e-05
1.56556e-05
5.27998e-05
5.98332e-05
7.03687e-05
6.91963e-05
6.91972e-05
8.9854e-05
7.18889e-05
7.18825e-05
8.98019e-05
7.18845e-05
7.18781e-05
6.37443e-05
6.30245e-05
6.96708e-05
4.9018e-05
6.35785e-05
6.96836e-05
4.92504e-05
6.38053e-05
6.30282e-05
6.96805e-05
4.90331e-05
6.3639e-05
6.96937e-05
4.92624e-05
6.99092e-05
5.9898e-05
6.95251e-05
6.42177e-05
6.9909e-05
6.95267e-05
6.42741e-05
7.03245e-05
7.0384e-05
7.56897e-05
7.03256e-05
7.57073e-05
6.99074e-05
5.9895e-05
6.95245e-05
6.42092e-05
6.99071e-05
6.95261e-05
6.42617e-05
7.0324e-05
7.03724e-05
7.56564e-05
7.03238e-05
7.56759e-05
6.91845e-05
8.91501e-05
7.17633e-05
7.17695e-05
8.91993e-05
7.17779e-05
7.17837e-05
6.34462e-05
6.29203e-05
6.96062e-05
4.91071e-05
4.91541e-05
6.34587e-05
6.96098e-05
6.3388e-05
6.29336e-05
6.95975e-05
4.90959e-05
6.34021e-05
6.96011e-05
4.91428e-05
6.9184e-05
6.99069e-05
5.98801e-05
6.42029e-05
6.95228e-05
6.99064e-05
6.42566e-05
6.95247e-05
7.03227e-05
7.03837e-05
7.56759e-05
7.03231e-05
7.56948e-05
6.99057e-05
5.98772e-05
6.95222e-05
6.4192e-05
6.99047e-05
6.95242e-05
6.42454e-05
7.03236e-05
7.03712e-05
7.56431e-05
7.03227e-05
7.56672e-05
7.03264e-05
7.03792e-05
7.56896e-05
7.03266e-05
7.57083e-05
6.91845e-05
8.93385e-05
7.18146e-05
7.18209e-05
8.89597e-05
7.18749e-05
7.18814e-05
6.32085e-05
6.28619e-05
6.95796e-05
4.8672e-05
4.88149e-05
6.29164e-05
6.96403e-05
6.31484e-05
6.95705e-05
4.86572e-05
6.28653e-05
6.28538e-05
6.96313e-05
4.88056e-05
6.91845e-05
6.42157e-05
6.95252e-05
6.99085e-05
7.56795e-05
7.03262e-05
1.36587e-05
1.25868e-05
1.25874e-05
1.2304e-05
1.36574e-05
1.25863e-05
1.25859e-05
1.23036e-05
1.36635e-05
1.25865e-05
1.2587e-05
1.23036e-05
1.36647e-05
1.25888e-05
1.25884e-05
1.23043e-05
4.86289e-05
2.55683e-05
3.57832e-05
3.57922e-05
4.8386e-05
3.59097e-05
3.59181e-05
2.87871e-05
4.13394e-05
4.45066e-05
2.63799e-05
2.87285e-05
4.46555e-05
2.64504e-05
3.26837e-05
5.29946e-05
4.92818e-05
3.88551e-05
3.89669e-05
3.26158e-05
4.93949e-05
2.88043e-05
4.13396e-05
4.45137e-05
2.63826e-05
2.87457e-05
4.46537e-05
2.64535e-05
3.27365e-05
5.29608e-05
4.92845e-05
3.89836e-05
3.26781e-05
4.93838e-05
3.90465e-05
4.85124e-05
2.57176e-05
3.60228e-05
3.60206e-05
3.60667e-05
4.85e-05
3.60611e-05
2.87904e-05
4.13288e-05
4.45001e-05
2.63898e-05
2.87353e-05
4.46458e-05
2.6456e-05
3.26851e-05
5.29923e-05
4.92735e-05
3.88617e-05
3.89719e-05
3.26195e-05
4.9388e-05
2.87944e-05
4.13238e-05
2.63932e-05
4.44926e-05
2.87455e-05
2.64581e-05
4.46254e-05
3.26675e-05
5.28949e-05
4.92412e-05
3.87693e-05
3.26201e-05
4.93354e-05
3.88445e-05
3.2739e-05
5.29754e-05
4.93055e-05
3.89802e-05
3.26775e-05
3.90463e-05
4.94046e-05
4.80055e-05
2.55474e-05
3.5621e-05
3.56148e-05
3.567e-05
4.79011e-05
3.5665e-05
2.63891e-05
4.45078e-05
2.87437e-05
4.92596e-05
3.87652e-05
3.26198e-05
6.91691e-05
6.91714e-05
2.67046e-05
6.31918e-05
6.31993e-05
6.02237e-05
7.04067e-05
2.99565e-05
2.07291e-05
5.34599e-05
1.60471e-05
6.02243e-05
2.75757e-05
1.60444e-05
6.91735e-05
6.91758e-05
8.97929e-05
7.18512e-05
7.18453e-05
7.18802e-05
7.18747e-05
8.96289e-05
6.40699e-05
6.97224e-05
4.98876e-05
6.32646e-05
6.97574e-05
6.39479e-05
5.0023e-05
6.41258e-05
6.97331e-05
4.98946e-05
6.32737e-05
6.97679e-05
5.00482e-05
6.39923e-05
6.98944e-05
6.45199e-05
6.9525e-05
6.02898e-05
6.45747e-05
6.95267e-05
6.98936e-05
7.02702e-05
7.57702e-05
7.04149e-05
7.57937e-05
7.02697e-05
6.98931e-05
6.95247e-05
6.02891e-05
6.45213e-05
6.95264e-05
6.45709e-05
6.98927e-05
1.36642e-05
4.1607e-05
4.1604e-05
5.31391e-05
5.99823e-05
4.15849e-05
2.01469e-05
1.57531e-05
6.00103e-05
2.57116e-05
1.57427e-05
2.02236e-05
2.61533e-05
6.91867e-05
2.59447e-05
1.24797e-05
2.03195e-05
4.17187e-05
4.17153e-05
5.31801e-05
6.00173e-05
4.17001e-05
6.00379e-05
1.2549e-05
1.25507e-05
1.25497e-05
6.91832e-05
2.02857e-05
5.31542e-05
6.91842e-05
6.91858e-05
6.30704e-05
6.30738e-05
2.58713e-05
5.99993e-05
7.0386e-05
5.9996e-05
7.03809e-05
5.3143e-05
2.01493e-05
1.57435e-05
5.3088e-05
1.57443e-05
2.01447e-05
6.91815e-05
6.29758e-05
2.59228e-05
6.29734e-05
6.91797e-05
7.03866e-05
5.99848e-05
4.15921e-05
2.01462e-05
1.57441e-05
7.03858e-05
2.00985e-05
1.57414e-05
5.30826e-05
1.57459e-05
5.30945e-05
4.16227e-05
7.03838e-05
6.00124e-05
2.02276e-05
4.1623e-05
5.31576e-05
7.03832e-05
6.91874e-05
6.30116e-05
6.30107e-05
6.91868e-05
2.00972e-05
5.30884e-05
1.5754e-05
7.03888e-05
6.30796e-05
6.30519e-05
6.30505e-05
6.91825e-05
7.0391e-05
6.00306e-05
7.03859e-05
6.01902e-05
7.04002e-05
6.91771e-05
6.9186e-05
7.03871e-05
6.00187e-05
6.01931e-05
7.04033e-05
1.2513e-05
1.24787e-05
1.58422e-05
5.31341e-05
4.17301e-05
2.05123e-05
5.33925e-05
6.91739e-05
6.91735e-05
6.9176e-05
6.91757e-05
6.30752e-05
6.30786e-05
2.61425e-05
2.64794e-05
6.31509e-05
6.31543e-05
6.00277e-05
7.0383e-05
6.01896e-05
7.04036e-05
5.31838e-05
2.03457e-05
1.58408e-05
4.21157e-05
2.05397e-05
5.33974e-05
1.59422e-05
5.31309e-05
1.58393e-05
2.0316e-05
4.21121e-05
2.05119e-05
5.33944e-05
1.59394e-05
6.02194e-05
7.04037e-05
6.0219e-05
4.22184e-05
2.07317e-05
5.34556e-05
1.60475e-05
4.22153e-05
1.60462e-05
6.2999e-05
2.6109e-05
6.29905e-05
2.63923e-05
6.32081e-05
6.32049e-05
6.91751e-05
6.91853e-05
4.17043e-05
2.03446e-05
1.584e-05
2.97068e-05
2.05346e-05
5.33994e-05
1.59412e-05
7.03887e-05
7.04036e-05
6.01937e-05
2.02865e-05
1.58341e-05
5.31507e-05
3.35758e-05
2.04996e-05
2.73408e-05
1.59355e-05
7.03851e-05
6.00401e-05
7.04063e-05
4.17311e-05
8.98514e-05
7.18494e-05
7.18431e-05
7.18586e-05
7.18522e-05
8.98054e-05
8.91356e-05
7.18471e-05
7.18529e-05
7.17935e-05
7.17999e-05
8.91928e-05
6.99019e-05
6.95251e-05
6.43333e-05
5.99101e-05
6.95227e-05
6.42715e-05
6.99033e-05
6.99034e-05
6.9527e-05
6.4351e-05
5.99478e-05
6.9526e-05
6.43039e-05
6.99032e-05
6.91868e-05
8.96205e-05
7.18276e-05
7.18213e-05
8.96833e-05
7.183e-05
7.18239e-05
8.97528e-05
7.18747e-05
7.18805e-05
8.94265e-05
7.19188e-05
7.19233e-05
6.99006e-05
6.95238e-05
6.43607e-05
6.00911e-05
6.98995e-05
6.95261e-05
6.44217e-05
6.98986e-05
6.95246e-05
6.43703e-05
6.00979e-05
6.98984e-05
6.95259e-05
6.44171e-05
6.91875e-05
6.91859e-05
6.91871e-05
6.38266e-05
6.9685e-05
4.95422e-05
6.30529e-05
6.96839e-05
4.93969e-05
6.38748e-05
6.38847e-05
6.96952e-05
4.95533e-05
6.30532e-05
6.96938e-05
4.94084e-05
6.39342e-05
6.99045e-05
6.95265e-05
6.43515e-05
5.993e-05
6.95248e-05
6.42977e-05
6.99047e-05
7.03085e-05
7.57198e-05
7.03835e-05
7.57073e-05
7.0308e-05
6.99031e-05
6.9526e-05
6.43424e-05
5.99267e-05
6.95242e-05
6.42855e-05
6.99037e-05
7.03104e-05
7.5707e-05
7.03745e-05
7.56825e-05
7.03106e-05
6.91781e-05
6.34275e-05
6.9651e-05
4.92414e-05
6.2936e-05
4.91764e-05
6.9619e-05
6.34407e-05
6.33921e-05
6.96407e-05
4.92647e-05
6.29507e-05
6.96108e-05
4.9186e-05
6.34144e-05
6.9177e-05
7.03083e-05
7.57145e-05
7.03838e-05
7.56977e-05
7.03082e-05
6.99028e-05
6.43384e-05
6.95254e-05
5.99128e-05
6.4281e-05
6.95232e-05
6.99036e-05
7.03103e-05
7.57059e-05
7.03756e-05
7.56764e-05
7.03109e-05
7.03106e-05
7.57255e-05
7.038e-05
7.57111e-05
7.03104e-05
6.99058e-05
6.4359e-05
6.95278e-05
5.9949e-05
6.43093e-05
6.95267e-05
6.99057e-05
7.03068e-05
7.57035e-05
7.03799e-05
7.56906e-05
7.03063e-05
6.91815e-05
6.34719e-05
4.92839e-05
6.29174e-05
6.97103e-05
4.90296e-05
6.96682e-05
6.37151e-05
6.3412e-05
4.9275e-05
6.29172e-05
6.97013e-05
6.96589e-05
4.90215e-05
6.36576e-05
8.95241e-05
7.19123e-05
7.19187e-05
7.18872e-05
7.18936e-05
8.97096e-05
6.91812e-05
6.9909e-05
5.9901e-05
6.42717e-05
6.95268e-05
7.03114e-05
7.03806e-05
7.57258e-05
7.57063e-05
7.03114e-05
7.03265e-05
7.03776e-05
7.57012e-05
6.38777e-05
4.95822e-05
6.30465e-05
6.96813e-05
6.38582e-05
4.95264e-05
6.96809e-05
6.40168e-05
4.94483e-05
6.31275e-05
6.97259e-05
6.97558e-05
6.38566e-05
4.96503e-05
6.39604e-05
4.94399e-05
6.97168e-05
6.31261e-05
4.96418e-05
6.37992e-05
6.97467e-05
8.99141e-05
7.19128e-05
7.19192e-05
7.19228e-05
8.9792e-05
7.19292e-05
6.91867e-05
7.02963e-05
7.57297e-05
7.03976e-05
7.57468e-05
7.02962e-05
6.99005e-05
6.95246e-05
6.4373e-05
6.00972e-05
6.99002e-05
6.95263e-05
6.44229e-05
7.02939e-05
7.57201e-05
7.03896e-05
7.02935e-05
7.57333e-05
6.98963e-05
6.01266e-05
6.95262e-05
6.44935e-05
6.95244e-05
6.44435e-05
6.98969e-05
7.02805e-05
7.03918e-05
7.5757e-05
7.57365e-05
7.02815e-05
6.91825e-05
6.91801e-05
7.02951e-05
7.5717e-05
7.03918e-05
7.02947e-05
7.57349e-05
6.99005e-05
6.43624e-05
6.9524e-05
6.00916e-05
6.98997e-05
6.44183e-05
6.95262e-05
6.98967e-05
6.01239e-05
6.44966e-05
6.95267e-05
6.44416e-05
6.95247e-05
6.98975e-05
7.0282e-05
7.03945e-05
7.57633e-05
7.57403e-05
7.02828e-05
6.91752e-05
6.91693e-05
6.91774e-05
6.91714e-05
6.38924e-05
6.9683e-05
4.96094e-05
6.30847e-05
6.38859e-05
6.96844e-05
4.96975e-05
6.39496e-05
6.96932e-05
4.96242e-05
6.30895e-05
6.39435e-05
6.9695e-05
4.97031e-05
8.95865e-05
7.18427e-05
7.18361e-05
7.18275e-05
7.18214e-05
8.95883e-05
6.38913e-05
6.30994e-05
6.97072e-05
4.98332e-05
6.9688e-05
4.97399e-05
6.39155e-05
6.39496e-05
6.31041e-05
6.97176e-05
4.98165e-05
6.9699e-05
4.97445e-05
6.39488e-05
6.99002e-05
6.95242e-05
6.43659e-05
6.00955e-05
6.98996e-05
6.9526e-05
6.44205e-05
7.02963e-05
7.5712e-05
7.03902e-05
7.02966e-05
7.57318e-05
6.9896e-05
6.01253e-05
6.95259e-05
6.44935e-05
6.95242e-05
6.44423e-05
6.98965e-05
7.02819e-05
7.03936e-05
7.57527e-05
7.57351e-05
7.02816e-05
6.98937e-05
6.95244e-05
6.45156e-05
6.0284e-05
6.98929e-05
6.95262e-05
6.45696e-05
7.02695e-05
7.57637e-05
7.04126e-05
7.02685e-05
7.57887e-05
6.98929e-05
6.95241e-05
6.45154e-05
6.02836e-05
6.98924e-05
6.95258e-05
6.45681e-05
6.37552e-05
6.96809e-05
4.93331e-05
6.30507e-05
6.35188e-05
6.97287e-05
4.95059e-05
6.37608e-05
6.96709e-05
4.93443e-05
6.30354e-05
6.35073e-05
4.95153e-05
6.97207e-05
8.99599e-05
7.19327e-05
7.1937e-05
7.19239e-05
7.19282e-05
9.013e-05
6.39972e-05
6.31108e-05
6.97905e-05
4.98779e-05
6.97568e-05
4.96665e-05
6.42242e-05
6.39652e-05
6.31013e-05
6.97853e-05
4.98582e-05
4.96509e-05
6.9751e-05
6.41868e-05
6.91809e-05
6.9179e-05
7.02969e-05
7.57131e-05
7.03958e-05
7.02971e-05
7.57362e-05
7.02821e-05
7.03977e-05
7.57552e-05
7.57395e-05
7.02815e-05
6.98965e-05
6.01244e-05
6.45e-05
6.95265e-05
6.95245e-05
6.4446e-05
6.98971e-05
7.02954e-05
7.57268e-05
7.03913e-05
7.02952e-05
7.57396e-05
6.99009e-05
6.43784e-05
6.95255e-05
6.01002e-05
6.99008e-05
6.44248e-05
6.95267e-05
7.02809e-05
7.03952e-05
7.57616e-05
7.57429e-05
7.02815e-05
3.71065e-05
4.93855e-05
3.71079e-05
2.67352e-05
3.71763e-05
4.95032e-05
3.71813e-05
2.75785e-05
4.22206e-05
4.54427e-05
3.00157e-05
4.23701e-05
4.55873e-05
2.76511e-05
3.3833e-05
4.00438e-05
5.00471e-05
3.38938e-05
5.35615e-05
4.01237e-05
5.0157e-05
4.22208e-05
2.99473e-05
4.54431e-05
3.001e-05
4.23695e-05
2.76492e-05
4.55842e-05
1.2549e-05
1.25492e-05
1.22379e-05
2.90325e-05
4.4902e-05
2.67488e-05
4.14557e-05
4.47574e-05
2.66775e-05
2.90937e-05
2.90473e-05
4.48906e-05
2.67514e-05
4.14537e-05
4.47477e-05
2.66809e-05
2.9104e-05
3.29271e-05
4.95881e-05
3.93211e-05
5.30553e-05
3.92208e-05
4.94873e-05
3.29968e-05
2.90218e-05
2.67422e-05
4.48664e-05
4.14362e-05
2.66746e-05
4.4723e-05
2.90766e-05
4.8312e-05
3.60086e-05
2.56857e-05
3.60052e-05
3.58787e-05
3.58752e-05
4.85937e-05
4.90748e-05
3.65999e-05
2.61268e-05
3.65898e-05
4.90841e-05
3.65567e-05
3.65509e-05
4.9071e-05
3.63307e-05
2.60099e-05
3.63276e-05
3.64672e-05
4.88651e-05
3.64704e-05
1.36934e-05
1.36772e-05
1.25132e-05
1.25131e-05
1.24799e-05
1.21098e-05
1.2173e-05
2.94045e-05
4.49932e-05
2.69785e-05
4.18663e-05
2.93437e-05
4.51311e-05
2.70501e-05
2.9402e-05
4.49808e-05
2.69797e-05
4.18629e-05
2.93454e-05
4.51192e-05
2.70503e-05
3.33078e-05
4.96709e-05
3.95401e-05
5.32556e-05
3.3242e-05
4.97681e-05
3.96198e-05
2.93777e-05
2.69661e-05
4.49682e-05
4.18518e-05
2.93175e-05
2.70369e-05
4.51142e-05
1.36659e-05
1.2549e-05
1.22377e-05
1.36801e-05
1.25511e-05
1.2238e-05
1.36657e-05
1.25496e-05
1.2238e-05
3.32583e-05
3.94087e-05
4.96629e-05
5.32619e-05
3.31872e-05
3.95184e-05
4.97655e-05
4.88555e-05
3.63325e-05
3.63392e-05
2.58137e-05
3.62167e-05
3.62239e-05
4.89931e-05
3.29291e-05
4.95962e-05
3.93201e-05
5.30587e-05
3.92187e-05
4.94979e-05
3.30004e-05
3.29563e-05
4.95713e-05
3.92612e-05
5.30084e-05
4.94742e-05
3.91977e-05
3.30108e-05
4.85403e-05
3.6234e-05
3.62504e-05
2.59087e-05
3.6189e-05
3.62011e-05
4.85878e-05
2.90306e-05
4.48895e-05
2.67444e-05
4.14417e-05
4.47445e-05
2.66757e-05
2.90895e-05
3.28779e-05
4.95462e-05
3.91576e-05
5.2966e-05
4.94383e-05
3.90493e-05
3.29409e-05
3.29653e-05
3.92742e-05
4.95867e-05
5.30237e-05
3.92073e-05
4.94974e-05
3.30216e-05
2.90564e-05
2.67622e-05
4.49096e-05
4.14743e-05
4.47705e-05
2.66894e-05
2.9115e-05
2.90656e-05
2.67644e-05
4.49129e-05
4.14743e-05
2.66908e-05
4.47719e-05
2.91273e-05
3.30123e-05
3.94277e-05
4.96074e-05
5.30707e-05
4.95073e-05
3.93606e-05
3.30745e-05
2.87961e-05
4.13433e-05
2.64582e-05
4.46455e-05
3.28838e-05
3.91585e-05
5.29721e-05
4.95592e-05
3.29475e-05
3.90499e-05
4.94565e-05
3.26696e-05
5.29035e-05
3.88423e-05
4.93532e-05
1.36758e-05
1.25134e-05
1.36905e-05
1.24795e-05
1.248e-05
1.21098e-05
1.2173e-05
1.2513e-05
1.36703e-05
1.25126e-05
1.24793e-05
1.36822e-05
1.21097e-05
1.21731e-05
3.32955e-05
3.94408e-05
4.96652e-05
5.32107e-05
3.32395e-05
3.95204e-05
4.97526e-05
2.94142e-05
2.69932e-05
4.49959e-05
4.18744e-05
2.93585e-05
4.51292e-05
2.70634e-05
3.35164e-05
5.32758e-05
4.99424e-05
3.98122e-05
3.97162e-05
4.98361e-05
3.35783e-05
4.91571e-05
3.65963e-05
3.66021e-05
2.61933e-05
4.91087e-05
3.66763e-05
3.66822e-05
3.69384e-05
4.92729e-05
3.693e-05
4.92201e-05
2.64441e-05
3.68689e-05
3.68787e-05
3.33132e-05
4.96801e-05
3.95402e-05
5.32592e-05
3.32469e-05
4.97732e-05
3.96206e-05
2.96538e-05
4.19712e-05
4.53551e-05
2.73519e-05
4.52164e-05
2.72809e-05
2.97128e-05
3.98742e-05
3.35485e-05
5.3303e-05
4.99593e-05
4.98563e-05
3.9801e-05
3.36098e-05
3.3285e-05
4.96521e-05
3.94275e-05
5.32147e-05
3.32277e-05
4.97474e-05
3.95092e-05
2.96442e-05
4.19677e-05
4.53435e-05
2.73498e-05
4.52041e-05
2.72793e-05
2.97019e-05
3.35096e-05
5.32784e-05
4.99401e-05
3.98137e-05
4.98306e-05
3.35736e-05
3.97136e-05
3.00181e-05
4.54413e-05
2.75827e-05
4.23651e-05
2.996e-05
4.55831e-05
2.76537e-05
4.00456e-05
4.01224e-05
5.35575e-05
3.38962e-05
5.00462e-05
3.38366e-05
5.01521e-05
3.00083e-05
4.54323e-05
2.75798e-05
4.23632e-05
2.99482e-05
4.55805e-05
2.7651e-05
4.89034e-05
3.63953e-05
3.64096e-05
2.61331e-05
4.87224e-05
3.64936e-05
3.64755e-05
4.91401e-05
2.63485e-05
3.6833e-05
3.68277e-05
3.67172e-05
3.67181e-05
4.93524e-05
2.93975e-05
4.49808e-05
2.69704e-05
4.18552e-05
2.93373e-05
4.51219e-05
2.70415e-05
2.73448e-05
4.21142e-05
4.53536e-05
2.96472e-05
4.19641e-05
4.52102e-05
2.72724e-05
3.36042e-05
3.98691e-05
4.996e-05
3.35435e-05
5.33016e-05
4.98525e-05
3.98007e-05
3.32517e-05
4.96512e-05
3.94075e-05
5.32584e-05
3.31801e-05
3.95175e-05
4.97585e-05
4.99568e-05
5.34162e-05
3.35033e-05
5.33156e-05
3.98632e-05
3.97617e-05
4.98544e-05
4.2114e-05
2.96918e-05
4.53534e-05
2.96292e-05
4.19639e-05
2.72679e-05
4.52109e-05
2.94324e-05
2.69965e-05
4.5003e-05
4.18762e-05
2.93754e-05
2.70672e-05
4.51389e-05
6.51224e-05
1.37645e-05
2.11886e-05
2.11944e-05
2.72989e-05
1.39112e-05
2.20323e-05
2.20386e-05
2.83726e-05
1.40841e-05
2.29361e-05
2.29281e-05
2.93931e-05
1.43113e-05
2.38929e-05
2.3881e-05
3.04716e-05
1.45864e-05
2.48535e-05
2.48553e-05
3.1518e-05
1.49081e-05
2.58494e-05
2.58637e-05
3.25407e-05
1.5579e-05
2.68768e-05
2.68711e-05
3.35257e-05
1.56849e-05
2.78958e-05
2.69972e-05
2.09335e-05
2.09649e-05
2.72404e-05
2.82024e-05
2.11544e-05
2.11916e-05
2.18426e-05
2.18305e-05
2.73385e-05
2.81524e-05
2.11528e-05
2.11958e-05
2.18412e-05
2.18287e-05
2.11918e-05
2.1829e-05
2.18309e-05
2.73627e-05
2.81478e-05
2.11895e-05
2.18268e-05
2.18288e-05
2.81631e-05
2.84352e-05
2.91794e-05
2.20612e-05
2.2036e-05
2.27092e-05
2.27074e-05
2.83627e-05
2.91724e-05
2.20594e-05
2.20408e-05
2.2707e-05
2.27003e-05
2.2043e-05
2.27054e-05
2.26963e-05
2.83546e-05
2.91697e-05
2.20412e-05
2.2698e-05
2.26941e-05
2.91596e-05
2.94078e-05
3.02446e-05
2.29341e-05
2.29396e-05
2.36443e-05
2.36521e-05
2.94226e-05
3.02587e-05
2.29316e-05
2.29303e-05
2.36416e-05
2.36445e-05
2.29303e-05
2.36503e-05
2.36388e-05
2.94033e-05
3.02502e-05
2.29284e-05
2.36425e-05
2.36363e-05
3.0244e-05
3.04793e-05
3.12809e-05
2.38818e-05
2.38966e-05
2.46099e-05
2.46057e-05
3.04945e-05
3.12799e-05
2.38788e-05
2.3883e-05
2.4607e-05
2.4612e-05
2.38783e-05
2.46044e-05
2.46108e-05
3.04824e-05
3.12859e-05
2.3876e-05
2.461e-05
2.4608e-05
3.12883e-05
3.15136e-05
3.23067e-05
2.48583e-05
2.48571e-05
2.56055e-05
2.56054e-05
3.15062e-05
3.231e-05
2.48552e-05
2.48573e-05
2.56026e-05
2.56156e-05
2.48555e-05
2.56043e-05
2.56139e-05
3.15186e-05
3.23197e-05
2.48533e-05
2.56141e-05
2.56105e-05
3.2318e-05
3.25314e-05
3.33071e-05
2.58567e-05
2.58521e-05
2.66193e-05
2.66219e-05
3.25283e-05
3.3317e-05
2.58538e-05
2.58654e-05
2.6616e-05
2.66092e-05
2.58611e-05
2.662e-05
2.66138e-05
3.2543e-05
3.32927e-05
2.58588e-05
2.66074e-05
2.66102e-05
3.32972e-05
3.35271e-05
3.42804e-05
2.68738e-05
2.68789e-05
2.76422e-05
5.70755e-05
3.3541e-05
6.51008e-05
2.687e-05
2.68729e-05
2.7639e-05
2.76482e-05
2.68731e-05
2.76344e-05
3.35224e-05
3.42868e-05
2.68698e-05
2.76469e-05
5.71106e-05
2.7897e-05
3.44923e-05
6.91807e-05
6.05695e-05
7.04247e-05
6.04123e-05
7.04418e-05
6.9165e-05
6.91599e-05
6.05686e-05
7.04261e-05
6.04131e-05
7.04441e-05
1.19285e-05
1.37711e-05
1.37754e-05
1.38722e-05
1.38712e-05
1.38719e-05
1.38718e-05
4.31143e-05
3.44514e-05
1.62802e-05
2.14111e-05
3.05809e-05
5.39942e-05
1.64021e-05
6.91687e-05
6.91605e-05
4.31173e-05
1.62805e-05
4.06942e-05
2.14127e-05
1.64026e-05
5.40303e-05
3.05843e-05
6.34596e-05
6.34668e-05
2.76543e-05
6.35035e-05
6.351e-05
6.09011e-05
7.04531e-05
6.0768e-05
7.04675e-05
6.91432e-05
6.91468e-05
6.0901e-05
7.04547e-05
6.07679e-05
7.04696e-05
1.39063e-05
1.39082e-05
1.39073e-05
1.40366e-05
1.40345e-05
1.40337e-05
1.40328e-05
4.40178e-05
5.43317e-05
1.67797e-05
2.22461e-05
4.36604e-05
5.44988e-05
1.69114e-05
6.91449e-05
6.91464e-05
4.40196e-05
1.67813e-05
5.43104e-05
2.22554e-05
4.3657e-05
1.69133e-05
5.45503e-05
6.36712e-05
6.36793e-05
2.86444e-05
6.37566e-05
6.37637e-05
6.12193e-05
7.04895e-05
6.10849e-05
7.05072e-05
6.91397e-05
6.91399e-05
6.12173e-05
7.04909e-05
6.10861e-05
7.05088e-05
1.40834e-05
1.40827e-05
1.40821e-05
1.42504e-05
1.42531e-05
1.42505e-05
1.42497e-05
4.48749e-05
5.48789e-05
1.73312e-05
2.3168e-05
4.45277e-05
5.50361e-05
1.74791e-05
6.91375e-05
6.91423e-05
4.48712e-05
1.73316e-05
5.48357e-05
2.31649e-05
4.4526e-05
1.74792e-05
5.50637e-05
6.39235e-05
6.39307e-05
2.97062e-05
6.40516e-05
6.40589e-05
6.152e-05
7.05286e-05
6.13937e-05
7.05467e-05
6.91381e-05
6.91372e-05
6.15189e-05
7.05307e-05
6.13969e-05
7.05479e-05
1.43154e-05
1.43125e-05
1.4311e-05
1.45129e-05
1.4513e-05
1.45143e-05
1.45143e-05
4.56815e-05
5.53745e-05
1.79451e-05
2.41304e-05
4.53517e-05
5.55506e-05
1.81065e-05
6.91349e-05
6.91403e-05
4.56775e-05
1.79448e-05
5.53508e-05
2.41221e-05
4.53552e-05
1.81062e-05
5.55382e-05
6.41538e-05
6.41616e-05
3.07604e-05
6.42999e-05
6.43058e-05
6.18058e-05
7.05721e-05
6.16832e-05
7.05915e-05
6.91419e-05
6.91468e-05
6.18074e-05
7.05749e-05
6.1686e-05
7.0593e-05
1.45865e-05
1.45869e-05
1.45861e-05
1.48236e-05
1.48243e-05
1.48272e-05
1.48272e-05
4.64415e-05
5.58135e-05
1.86062e-05
2.51084e-05
4.61295e-05
5.60322e-05
1.87814e-05
6.91401e-05
6.91463e-05
4.64427e-05
1.86085e-05
5.58283e-05
2.51047e-05
4.61331e-05
1.87823e-05
5.60117e-05
6.44199e-05
6.44301e-05
3.18038e-05
6.4535e-05
6.45399e-05
6.2079e-05
7.06176e-05
6.19659e-05
7.0639e-05
6.91453e-05
6.91579e-05
6.2083e-05
7.06201e-05
6.19672e-05
7.0641e-05
1.49075e-05
1.4912e-05
1.49099e-05
1.51795e-05
1.51796e-05
1.51776e-05
1.51797e-05
4.71678e-05
5.62641e-05
1.93204e-05
2.61018e-05
4.6876e-05
5.64476e-05
1.95056e-05
6.91466e-05
6.91539e-05
4.71723e-05
1.93245e-05
5.62885e-05
2.61076e-05
4.68757e-05
1.95091e-05
5.64513e-05
6.46764e-05
6.4685e-05
3.28035e-05
6.47438e-05
6.47546e-05
6.23516e-05
7.06685e-05
6.22379e-05
7.06906e-05
6.91605e-05
6.91687e-05
6.23525e-05
7.06698e-05
6.22354e-05
7.06934e-05
1.24438e-05
1.52754e-05
1.52767e-05
1.52752e-05
1.52745e-05
1.55801e-05
1.5584e-05
4.78673e-05
5.67225e-05
2.00782e-05
2.71297e-05
4.75803e-05
5.68833e-05
2.02763e-05
6.91655e-05
6.91731e-05
4.78654e-05
2.00782e-05
5.67079e-05
2.71366e-05
4.75765e-05
2.02763e-05
5.69085e-05
6.49187e-05
6.49208e-05
3.38096e-05
6.50181e-05
6.50269e-05
1.24749e-05
1.56879e-05
1.56888e-05
6.91774e-05
5.71151e-05
6.91718e-05
6.91739e-05
6.33508e-05
6.33585e-05
7.04238e-05
6.0384e-05
5.37058e-05
1.61584e-05
4.26204e-05
7.04225e-05
6.03819e-05
7.04057e-05
2.07289e-05
1.61594e-05
4.04027e-05
4.262e-05
4.01861e-05
6.91663e-05
6.91662e-05
6.91683e-05
6.91683e-05
6.33774e-05
6.33844e-05
2.75996e-05
6.35426e-05
6.35499e-05
6.9152e-05
6.9159e-05
6.91538e-05
6.91611e-05
2.78655e-05
6.36637e-05
6.36694e-05
6.35746e-05
6.35836e-05
6.05663e-05
7.04215e-05
6.04111e-05
7.04336e-05
4.31074e-05
4.06043e-05
1.62748e-05
2.13847e-05
3.05731e-05
5.40265e-05
1.63968e-05
4.31057e-05
4.07046e-05
1.62786e-05
2.14129e-05
3.05795e-05
5.39967e-05
1.64004e-05
6.0597e-05
7.04521e-05
7.04432e-05
6.07423e-05
6.05937e-05
7.04503e-05
7.04366e-05
6.07407e-05
4.32014e-05
2.16168e-05
5.43037e-05
1.66514e-05
5.40849e-05
1.65222e-05
4.35792e-05
4.31977e-05
2.16264e-05
5.42952e-05
1.66507e-05
5.40613e-05
1.65246e-05
4.35778e-05
6.34297e-05
6.34277e-05
2.76772e-05
6.34875e-05
6.34747e-05
6.91633e-05
6.91577e-05
6.91503e-05
6.91542e-05
2.79011e-05
6.36434e-05
6.36428e-05
6.35376e-05
6.35284e-05
6.91484e-05
6.91522e-05
4.3108e-05
5.37569e-05
1.62751e-05
2.13833e-05
4.27192e-05
5.40294e-05
1.63969e-05
6.05666e-05
7.04241e-05
6.04112e-05
7.04343e-05
4.31094e-05
1.62788e-05
4.0698e-05
2.14141e-05
4.27196e-05
1.64009e-05
5.40281e-05
6.05969e-05
7.04538e-05
7.04456e-05
6.07429e-05
4.32032e-05
2.16152e-05
5.43062e-05
1.66519e-05
5.40896e-05
1.6523e-05
4.35806e-05
6.05948e-05
7.04493e-05
7.04353e-05
6.07401e-05
4.32022e-05
2.16219e-05
1.66517e-05
5.42644e-05
1.65253e-05
5.40674e-05
4.35764e-05
6.05735e-05
7.04245e-05
6.04123e-05
7.04366e-05
4.31171e-05
1.62817e-05
4.06607e-05
2.14084e-05
3.05745e-05
1.64023e-05
5.40174e-05
6.05739e-05
7.04265e-05
6.04102e-05
7.04322e-05
4.32047e-05
2.16233e-05
5.42963e-05
1.66517e-05
5.40625e-05
1.65259e-05
4.35763e-05
6.05999e-05
7.0452e-05
7.04395e-05
6.07388e-05
4.32058e-05
2.16203e-05
1.66514e-05
5.42711e-05
1.65256e-05
5.40512e-05
4.35721e-05
6.05998e-05
7.04502e-05
7.04329e-05
6.07359e-05
6.34377e-05
6.34335e-05
2.76834e-05
6.35271e-05
6.35252e-05
6.91674e-05
6.91592e-05
6.91501e-05
6.91525e-05
2.79042e-05
6.36112e-05
6.36052e-05
6.35372e-05
6.35351e-05
6.91484e-05
6.9151e-05
4.31167e-05
1.62816e-05
4.06644e-05
2.1406e-05
1.64024e-05
5.40206e-05
3.05755e-05
6.05736e-05
7.04272e-05
7.04373e-05
6.04115e-05
6.05729e-05
7.04277e-05
7.04338e-05
6.04108e-05
4.32104e-05
2.16204e-05
1.66528e-05
5.42623e-05
1.65268e-05
5.40696e-05
4.35743e-05
4.32088e-05
2.16184e-05
1.6652e-05
5.42747e-05
1.6526e-05
5.40549e-05
4.35726e-05
6.06009e-05
7.04506e-05
7.04379e-05
6.0738e-05
6.05998e-05
7.04517e-05
7.04346e-05
6.07365e-05
6.91692e-05
6.91562e-05
6.91711e-05
6.91583e-05
2.78963e-05
6.36263e-05
6.36366e-05
6.3506e-05
6.3513e-05
6.91497e-05
6.91483e-05
6.9152e-05
6.91506e-05
6.91443e-05
6.91431e-05
6.9146e-05
6.9145e-05
6.36733e-05
6.36784e-05
2.86955e-05
6.37483e-05
6.3754e-05
6.9141e-05
6.91383e-05
6.91428e-05
6.91402e-05
2.89066e-05
6.39032e-05
6.39096e-05
6.37746e-05
6.3782e-05
6.08997e-05
7.04507e-05
6.07668e-05
7.04646e-05
4.40195e-05
5.43418e-05
1.6782e-05
2.22759e-05
4.36658e-05
5.45351e-05
1.69154e-05
4.40169e-05
5.43318e-05
1.67796e-05
2.22486e-05
4.36649e-05
5.45055e-05
1.69114e-05
6.0925e-05
7.04871e-05
7.047e-05
6.10595e-05
6.09234e-05
7.04885e-05
7.04686e-05
6.10586e-05
4.40978e-05
2.24909e-05
5.48038e-05
1.71892e-05
5.45802e-05
1.70503e-05
4.44491e-05
4.40939e-05
2.2476e-05
5.48313e-05
1.71871e-05
5.45687e-05
1.70473e-05
4.44486e-05
6.36487e-05
6.36476e-05
2.86299e-05
6.37238e-05
6.37034e-05
6.91412e-05
6.91442e-05
6.91465e-05
6.91443e-05
2.88568e-05
6.39491e-05