/*--------------------------------*- C++ -*----------------------------------*\
| =========                 |                                                 |
| \\      /  F ield         | OpenFOAM: The Open Source CFD Toolbox           |
|  \\    /   O peration     | Version:  v2006                                 |
|   \\  /    A nd           | Website:  www.openfoam.com                      |
|    \\/     M anipulation  |                                                 |
\*---------------------------------------------------------------------------*/
FoamFile
{
    version     2.0;
    format      ascii;
    class       volScalarField;
    location    "875";
    object      p;
}
// * * * * * * * * * * * * * * * * * * * * * * * * * * * * * * * * * * * * * //

dimensions      [0 2 -2 0 0 0 0];


internalField   nonuniform List<scalar> 
14258
(
0.00233345
0.0023334
0.00233344
0.00233339
0.00233337
0.00233337
0.00233376
0.0023334
0.0023334
0.00233361
0.00233596
0.00233351
0.00233598
0.0023336
0.00233595
0.00233351
0.00233596
0.00233344
0.0023336
0.00233595
0.00233816
0.0023382
0.0023334
0.00233344
0.00233816
0.00233819
0.0023334
0.00233816
0.00233342
0.00233816
0.00233819
0.00233341
0.00233815
0.00233818
0.00233343
0.00233339
0.00233818
0.00233815
0.00233339
0.00233815
0.00233341
0.00233815
0.00233818
0.0023334
0.00233816
0.00233816
0.00233816
0.0023333
0.0023333
0.00233809
0.00233809
0.00233332
0.00233829
0.00233336
0.0023382
0.00233358
0.00233817
0.00233347
0.00233835
0.00233828
0.00233335
0.0023382
0.00233358
0.00233816
0.00233347
0.00233834
0.00233815
0.00233818
0.0023334
0.00233343
0.00233815
0.00233817
0.00233339
0.00233814
0.00233343
0.00233818
0.00233341
0.00233826
0.00233825
0.00233371
0.00233371
0.00233375
0.00233825
0.00233825
0.00233829
0.00233821
0.0023336
0.00233366
0.0023382
0.00233832
0.00233365
0.00233832
0.00233357
0.00233819
0.00233356
0.0023382
0.00233828
0.00233367
0.00233827
0.00233819
0.00233359
0.00233365
0.00233818
0.00233829
0.00233364
0.00233831
0.00233356
0.00233818
0.00233355
0.00233819
0.00233827
0.00233365
0.00233825
0.00233819
0.00233365
0.00233358
0.0023383
0.00233817
0.00233362
0.00233828
0.00233356
0.00233817
0.00233364
0.00200722
0.00200725
0.00200937
0.00201649
0.00201396
0.00201644
0.00201428
0.00201394
0.00200721
0.00200725
0.00200929
0.00200938
0.00200931
0.00200928
0.00200928
0.00200721
0.00200725
0.00200931
0.0020093
0.00201395
0.00201393
0.0020141
0.00201402
0.00201396
0.00201393
0.0020141
0.00201645
0.00201401
0.00201393
0.00201401
0.00201393
0.00201395
0.00201395
0.00201393
0.00200725
0.00200929
0.00200931
0.00200931
0.00200928
0.0020093
0.00200928
0.00200472
0.00200471
0.00200469
0.00200478
0.00201853
0.00201394
0.00201395
0.00201855
0.00201393
0.00201854
0.00201854
0.00201853
0.00200469
0.00200469
0.00200468
0.00200468
0.00200473
0.00200929
0.00200936
0.00200471
0.00200478
0.00200469
0.00200931
0.00200469
0.00200471
0.0020093
0.00200469
0.00200471
0.00200929
0.00200472
0.00200934
0.00200928
0.0020047
0.0020093
0.00200476
0.00200469
0.00201395
0.00201394
0.00201393
0.00201394
0.00201394
0.00201853
0.00201394
0.00201852
0.00201394
0.00201854
0.00201852
0.00201852
0.00201394
0.00201854
0.00201394
0.00201857
0.00201404
0.00201855
0.00201394
0.00201399
0.0020186
0.00201854
0.00201856
0.00201401
0.00201855
0.00201393
0.00201398
0.0020186
0.00201853
0.00201856
0.00201392
0.00201392
0.00201393
0.00201853
0.00201852
0.00201853
0.0020047
0.00200472
0.0020093
0.00200929
0.00200472
0.00200929
0.0020047
0.0020047
0.0020093
0.00200469
0.00200928
0.0020047
0.00200469
0.00200472
0.0020093
0.00200929
0.00200929
0.00200471
0.0020047
0.00200469
0.0020049
0.00200504
0.00200935
0.00200929
0.00200493
0.00200927
0.00200486
0.00201852
0.00201416
0.00201861
0.00201412
0.00201416
0.00201856
0.00201856
0.00200489
0.00200933
0.0020093
0.00200477
0.00200476
0.00200483
0.00200937
0.0020049
0.00200932
0.00200933
0.00200506
0.00200491
0.00200927
0.00200491
0.00200487
0.00200486
0.00200935
0.0020093
0.00200932
0.00200489
0.00200484
0.00201413
0.00201408
0.00201411
0.00201402
0.00201406
0.00201413
0.00201856
0.00201413
0.00201408
0.00201856
0.00201411
0.0020186
0.00201854
0.0020186
0.00201406
0.00201401
0.00201853
0.00201413
0.00201854
0.00201856
0.00201859
0.00201397
0.00201852
0.00201406
0.00201854
0.00201855
0.00201411
0.00200487
0.00200928
0.0020093
0.00200478
0.00200473
0.00200934
0.00200482
0.00200486
0.00200486
0.00200935
0.0020093
0.00200489
0.00200931
0.00200484
0.00200931
0.00200932
0.00200931
0.00200932
0.00200928
0.00200928
0.00200931
0.00200929
0.0020047
0.0020093
0.0020093
0.00200472
0.0020047
0.00200471
0.00200929
0.0020047
0.0020093
0.0020093
0.00200472
0.00200472
0.0020047
0.00200929
0.00200471
0.0020093
0.00200469
0.00200471
0.00200929
0.00200473
0.00200938
0.00200471
0.00200928
0.00200479
0.00200931
0.00200468
0.00200467
0.00200926
0.00200926
0.00200928
0.00200467
0.00200467
0.00200469
0.00200487
0.00200936
0.0020093
0.00200487
0.00200485
0.00200489
0.00200932
0.00200487
0.00200936
0.0020093
0.00200486
0.00200489
0.00200484
0.00200932
0.00200489
0.0020093
0.00200934
0.00200477
0.00200482
0.00200477
0.00200937
0.00232854
0.00232854
0.00232875
0.00232857
0.00232857
0.00232863
0.00232858
0.00232863
0.00232858
0.00232865
0.00232643
0.0023286
0.00232642
0.00232865
0.00232639
0.00232859
0.00232641
0.00232859
0.00232871
0.00232864
0.00232864
0.00232859
0.00232863
0.00232858
0.00232864
0.00232643
0.00232859
0.00232641
0.00232863
0.0023286
0.00232864
0.00232639
0.00232641
0.00232862
0.00232641
0.0023286
0.00232858
0.00232864
0.00232867
0.00232867
0.00232867
0.00232864
0.00232865
0.00232639
0.00232642
0.00232863
0.00232863
0.00232861
0.00232379
0.00232379
0.00232375
0.00232848
0.00232848
0.0023285
0.00232374
0.00232374
0.00232382
0.00232381
0.00232853
0.00232872
0.00232857
0.00232378
0.00232394
0.00232382
0.00232381
0.00232852
0.00232871
0.00232857
0.00232378
0.00232394
0.00232384
0.00232389
0.0023286
0.00232862
0.00232859
0.00232384
0.00232387
0.00232384
0.00232383
0.0023286
0.00232858
0.00232385
0.00232384
0.00232389
0.0023286
0.00232861
0.00232859
0.00232384
0.00232387
0.00232384
0.00232382
0.00232861
0.00232858
0.00232386
0.00232385
0.00232399
0.00232865
0.00232865
0.00232871
0.00232392
0.00232392
0.00232394
0.00232389
0.00232861
0.0023287
0.00232399
0.00232863
0.00232389
0.00232395
0.0023239
0.00232862
0.00232868
0.00232864
0.0023239
0.00232396
0.00232385
0.00232384
0.00232389
0.00232862
0.0023286
0.00232859
0.00232387
0.00232384
0.00232384
0.00232383
0.0023286
0.00232858
0.00232385
0.00232384
0.0023239
0.0023286
0.00232862
0.00232859
0.00232385
0.00232389
0.00232386
0.00232386
0.00232862
0.00232859
0.00232387
0.00232384
0.00232383
0.00232861
0.00232858
0.00232386
0.00232386
0.00232383
0.00232858
0.00232858
0.00232868
0.00232378
0.00232378
0.00232399
0.00232388
0.00232865
0.00232879
0.00232405
0.00232877
0.00232385
0.00232399
0.00232865
0.00232879
0.00232388
0.00232878
0.00232385
0.00232405
0.00232386
0.00232862
0.0023286
0.0023286
0.00232863
0.00232859
0.00232645
0.00232644
0.00232643
0.00232641
0.00232645
0.00232644
0.00232644
0.00232642
0.00232645
0.00232644
0.00232644
0.00232642
0.00232645
0.00232643
0.00232643
0.00232641
0.00232407
0.00232423
0.00232872
0.00232872
0.00232862
0.00232411
0.00232411
0.00232408
0.00232405
0.00232864
0.00232875
0.00232873
0.00232403
0.0023241
0.00232409
0.00232392
0.00232862
0.0023287
0.00232396
0.00232875
0.002324
0.00232407
0.00232405
0.00232862
0.00232875
0.00232871
0.00232403
0.00232411
0.00232409
0.00232394
0.00232862
0.00232866
0.00232874
0.002324
0.00232394
0.00232407
0.00232417
0.00232862
0.00232859
0.00232406
0.00232854
0.00232402
0.00232408
0.00232406
0.00232863
0.00232874
0.00232872
0.00232403
0.0023241
0.00232409
0.00232392
0.00232862
0.0023287
0.00232396
0.00232875
0.002324
0.00232409
0.00232406
0.00232874
0.00232863
0.00232871
0.0023241
0.00232404
0.00232411
0.00232396
0.00232863
0.00232871
0.00232875
0.00232402
0.00232401
0.00232409
0.00232395
0.00232863
0.00232865
0.00232874
0.00232392
0.002324
0.00232425
0.0023242
0.00232868
0.00232868
0.00232416
0.00232873
0.00232417
0.00232875
0.00232864
0.00232872
0.00232864
0.00232872
0.00232876
0.00229044
0.00229044
0.00229058
0.00229048
0.00229048
0.00229049
0.00229044
0.00229057
0.00228829
0.00229046
0.00228831
0.00229049
0.00229061
0.00228831
0.00228572
0.00228571
0.00228575
0.00229045
0.00229044
0.00228569
0.00228569
0.00229052
0.00228581
0.00229046
0.0022906
0.00228574
0.00228572
0.00229052
0.00228588
0.00228581
0.00229046
0.00229057
0.00228574
0.00228572
0.00228586
0.00229052
0.00228572
0.00229048
0.00229046
0.00228577
0.00228575
0.00228572
0.00229045
0.00228573
0.00229047
0.00228572
0.00228574
0.00229044
0.00228572
0.00229046
0.00228577
0.00229048
0.00228572
0.00228575
0.00229046
0.0023169
0.0023145
0.00231451
0.00231437
0.00231435
0.00231452
0.00231685
0.00231686
0.00231434
0.00231472
0.00231688
0.00231685
0.00231461
0.00231428
0.00230971
0.00229783
0.00230733
0.00230955
0.00230955
0.00230949
0.00230954
0.00230957
0.00230953
0.00231689
0.00231688
0.00231689
0.00230948
0.00230737
0.00230951
0.00231426
0.00231427
0.00231429
0.00231429
0.00231467
0.00231434
0.00231428
0.00231434
0.0023143
0.00231437
0.00231688
0.00231687
0.0023144
0.00231687
0.00231684
0.00231432
0.00231435
0.00231464
0.00231435
0.00231432
0.00231428
0.00231435
0.00231451
0.00231688
0.00231687
0.00231431
0.0023169
0.00231688
0.00231441
0.00231687
0.0023144
0.0023145
0.0023143
0.00231434
0.00231685
0.0023145
0.00231438
0.00231427
0.00231429
0.0023143
0.0023143
0.00231429
0.0023169
0.00231441
0.00231687
0.00231431
0.00231432
0.00230951
0.00230951
0.00230948
0.0023095
0.00230953
0.00230948
0.00229529
0.00229523
0.00230952
0.00229521
0.00230949
0.00230954
0.00229529
0.00229523
0.00230735
0.00229783
0.00230734
0.00230951
0.00230955
0.00229782
0.00229534
0.00230948
0.00229523
0.00230948
0.00229523
0.00230951
0.00230952
0.00230965
0.00229559
0.00229527
0.00229527
0.00230954
0.0023095
0.00229529
0.00229524
0.00230949
0.00230733
0.00230733
0.00229545
0.0022978
0.00229534
0.00229782
0.00230952
0.00230734
0.00230733
0.00229545
0.00229783
0.00229535
0.00229783
0.00229049
0.00229044
0.00229049
0.00229051
0.0022883
0.00229046
0.00228831
0.00229051
0.00228831
0.00230955
0.00230963
0.00230955
0.00229565
0.00229524
0.00229524
0.00230952
0.00229521
0.00230956
0.00230733
0.00230734
0.00229547
0.0022978
0.00229534
0.00229782
0.0023095
0.00229523
0.00229529
0.00230738
0.00230735
0.00230951
0.00229549
0.00229784
0.0022955
0.00229783
0.00230951
0.00230953
0.00229524
0.00230955
0.00231898
0.00231426
0.00231426
0.00231896
0.00231896
0.00231427
0.0023192
0.00231432
0.00231433
0.0023191
0.00231911
0.00231442
0.00231905
0.0023143
0.00231434
0.00231908
0.00231905
0.00231908
0.0023143
0.00231904
0.00231429
0.00231432
0.00231907
0.00231904
0.00231906
0.00231429
0.002319
0.0023048
0.00230949
0.00230949
0.00230952
0.00230478
0.00230478
0.00230474
0.00230946
0.00230947
0.00230956
0.00230469
0.00230469
0.00230476
0.00230951
0.00230953
0.00230481
0.00230951
0.00230476
0.0023048
0.00230475
0.0023095
0.00230951
0.00230481
0.0023095
0.00230476
0.00230479
0.00230475
0.00231899
0.00231899
0.00231899
0.00231426
0.00231436
0.00231902
0.00231898
0.0023191
0.00231428
0.00231899
0.00231426
0.00231437
0.00231902
0.00231898
0.0023191
0.00231428
0.00231904
0.00231429
0.00231432
0.00231907
0.00231904
0.00231906
0.00231429
0.00231902
0.0023143
0.00231902
0.00231904
0.00231429
0.00231904
0.00231429
0.00231433
0.00231908
0.00231904
0.00231906
0.00231429
0.00231903
0.00231432
0.00231903
0.00231906
0.0023143
0.00231906
0.00231914
0.00231435
0.00231445
0.0023191
0.00231919
0.00231909
0.00231442
0.00231915
0.00231436
0.00231446
0.0023191
0.0023191
0.00231916
0.00231445
0.00231906
0.00231902
0.0023143
0.00231902
0.00231905
0.00231429
0.00231904
0.00231433
0.0023143
0.00231908
0.00231906
0.00231905
0.00231429
0.00231904
0.00231432
0.00231905
0.00231907
0.00231431
0.00231903
0.00231432
0.00231903
0.00231906
0.0023143
0.00231904
0.00231433
0.00231429
0.00231907
0.00231906
0.00231904
0.00231429
0.00231902
0.0023143
0.00231901
0.00231904
0.00231429
0.00231903
0.0023191
0.00231446
0.00231906
0.00231427
0.00231922
0.00231902
0.00231435
0.0023191
0.00231446
0.00231906
0.00231427
0.00231902
0.00231922
0.00231435
0.00231901
0.00231423
0.00231423
0.00231896
0.00231896
0.00231426
0.00231903
0.00232385
0.00232389
0.00232389
0.00232384
0.00231904
0.00231906
0.00231432
0.00231907
0.00231431
0.00232386
0.00232386
0.00232388
0.00231904
0.0023144
0.00231906
0.00231431
0.00231436
0.0023191
0.00231903
0.00230481
0.00230963
0.00230477
0.00230947
0.00230474
0.00230952
0.00230489
0.00230481
0.00230963
0.00230947
0.00230477
0.00230489
0.00230952
0.00230474
0.00230474
0.00230944
0.00230944
0.00230471
0.00230949
0.00230471
0.00230475
0.00230477
0.00230953
0.00230476
0.00230478
0.0023095
0.00230476
0.0023095
0.00230952
0.00230481
0.0023095
0.00230476
0.00230479
0.00230476
0.00230951
0.00230475
0.00230948
0.00230477
0.00229997
0.00230001
0.00229524
0.00229527
0.00229998
0.00229999
0.00229524
0.00229996
0.00229996
0.00229525
0.00229998
0.00229524
0.00230477
0.00229996
0.00230476
0.00230951
0.00230475
0.00230949
0.00230478
0.00230476
0.00230952
0.00230951
0.00230481
0.0023095
0.00230479
0.00230476
0.00229997
0.00230001
0.00229527
0.00229524
0.0023
0.00229998
0.00229524
0.00229996
0.00229996
0.00229525
0.00229999
0.00229524
0.00230475
0.00229996
0.00230476
0.00229997
0.00230481
0.00230948
0.00230956
0.00230479
0.00230949
0.00230477
0.00230485
0.00230481
0.00230949
0.00230957
0.00230479
0.00230949
0.00230477
0.00230487
0.00230005
0.00229526
0.00229526
0.00229999
0.00229999
0.00229531
0.00230002
0.00230001
0.00229526
0.00229537
0.00229999
0.00230007
0.00229533
0.00230001
0.00230001
0.00229526
0.00229536
0.00229999
0.00230007
0.00229533
0.00230476
0.0023095
0.00230953
0.00230481
0.0023095
0.00230476
0.0023048
0.00230477
0.00230953
0.00230477
0.00230949
0.00230479
0.00229998
0.00230001
0.00229524
0.00229527
0.00229998
0.0023
0.00229524
0.00229997
0.00229997
0.00229526
0.0023
0.00229525
0.00228572
0.00229046
0.00229048
0.00228577
0.00229045
0.00228573
0.00228576
0.00228573
0.00229047
0.00228572
0.00229044
0.00228574
0.00228572
0.00229046
0.00229048
0.00228577
0.00229046
0.00228572
0.00228575
0.00230488
0.00230952
0.00230964
0.00230479
0.00230961
0.00230476
0.00230492
0.00230488
0.00230953
0.00230969
0.00230479
0.00230962
0.00230497
0.00230476
0.00229993
0.00229515
0.00229514
0.00229988
0.00229988
0.00229516
0.00230003
0.00229999
0.0022952
0.00229538
0.00229995
0.0023001
0.00229529
0.00230002
0.00229999
0.00229519
0.0022954
0.00230016
0.00229994
0.00229527
0.00230478
0.00229996
0.00230477
0.00230953
0.00230476
0.0023095
0.00230478
0.00229997
0.00229997
0.00229526
0.00229999
0.00229525
0.00229998
0.00230001
0.00229527
0.00229524
0.00229998
0.0023
0.00229524
0.00230478
0.00230953
0.00230478
0.0023095
0.00230479
0.00230476
0.00230952
0.0023095
0.00230481
0.0023095
0.0023048
0.00230476
0.00229997
0.00229998
0.00229526
0.0023
0.00229525
0.00229052
0.00229046
0.0022905
0.00228609
0.00228599
0.00228601
0.00228595
0.00229061
0.00229051
0.00229049
0.00228596
0.00228593
0.00228591
0.00228599
0.0022906
0.00229052
0.00229048
0.00228597
0.00228582
0.00228583
0.00228588
0.00229051
0.00229057
0.00229049
0.00228596
0.00228593
0.00228598
0.00228591
0.00231689
0.00231689
0.00231687
0.00231916
0.00231448
0.00231455
0.00231909
0.00231908
0.0023192
0.00231452
0.00231916
0.00231448
0.00231456
0.0023191
0.00231908
0.0023192
0.00231453
0.00231918
0.00231445
0.00231438
0.00231902
0.00231911
0.00231906
0.00231453
0.00231918
0.00231457
0.0023145
0.00231911
0.0023192
0.00231909
0.00231455
0.00231914
0.00231463
0.00231922
0.00231463
0.00231921
0.00231921
0.00231461
0.00231894
0.00231446
0.00231915
0.00231445
0.00231449
0.00231901
0.00231903
0.00230502
0.00230963
0.0023052
0.00230963
0.00230505
0.00230952
0.00230505
0.00229784
0.00230736
0.00230735
0.00230735
0.00229783
0.00229781
0.00230733
0.00230499
0.00230953
0.00230965
0.00230497
0.00230961
0.00230494
0.00230502
0.002305
0.00230954
0.00230965
0.00230497
0.00230962
0.00230495
0.00230502
0.002305
0.00230952
0.00230955
0.00230485
0.00230964
0.00230492
0.00230484
0.00230502
0.00230967
0.00230955
0.00230498
0.00230964
0.00230503
0.00230496
0.0023169
0.00231688
0.00231687
0.00231689
0.00231689
0.00231687
0.00231692
0.00231689
0.00231687
0.00230503
0.00230962
0.00230954
0.00230486
0.00230967
0.0023049
0.00230493
0.00231897
0.0023145
0.00231451
0.0023192
0.0023191
0.0023191
0.00231447
0.00231918
0.00231444
0.00231437
0.00231902
0.00231911
0.00231906
0.00231453
0.00231919
0.00231446
0.00231441
0.00231905
0.00231907
0.00231912
0.00231454
0.00231905
0.00231454
0.00231455
0.00231915
0.00231909
0.00231906
0.0023146
0.00231916
0.00231448
0.00231456
0.0023191
0.00231908
0.0023192
0.00231453
0.00231922
0.00231447
0.00231446
0.00231907
0.00231909
0.00231919
0.00231457
0.00231919
0.00231442
0.00231446
0.00231906
0.00231911
0.00231907
0.00231455
0.00231916
0.00231456
0.00231448
0.00231909
0.00231908
0.0023192
0.00231453
0.00231915
0.00231455
0.00231447
0.00231909
0.00231919
0.00231907
0.00231452
0.00231917
0.00231437
0.00231444
0.00231904
0.00231906
0.00231908
0.00231453
0.00232409
0.00232406
0.00232411
0.00232404
0.00231922
0.00231446
0.00231907
0.00231447
0.00231457
0.00231919
0.00231909
0.00232411
0.00232397
0.00232402
0.00232402
0.00230738
0.00230735
0.00229786
0.00229783
0.00229783
0.00229781
0.00230733
0.00230736
0.00230739
0.00230736
0.00229783
0.00229786
0.00229781
0.00230733
0.00230503
0.00230962
0.00230953
0.00230487
0.00230966
0.00230493
0.00230492
0.00230501
0.00230965
0.00230953
0.00230497
0.00230963
0.00230495
0.00230502
0.00230014
0.00229999
0.0022954
0.00229538
0.00230011
0.00230001
0.0022955
0.00230495
0.00230951
0.00230952
0.00230512
0.00230941
0.00230494
0.00230496
0.00229544
0.00229547
0.00229547
0.00229992
0.0023001
0.00229999
0.00230001
0.00230499
0.00230952
0.00230954
0.00230485
0.00230963
0.00230491
0.00230483
0.00230008
0.00230002
0.00229542
0.0022955
0.0023
0.00230012
0.00229547
0.00229533
0.00230011
0.00229998
0.0022954
0.0023
0.00230003
0.00229548
0.00230501
0.00230953
0.00230958
0.00230488
0.00230964
0.00230493
0.00230488
0.00230009
0.00230003
0.00229543
0.0022955
0.00230002
0.00230012
0.00229548
0.00230012
0.00229999
0.00229541
0.00229537
0.00230001
0.00229549
0.00230007
0.00228596
0.00229049
0.00229061
0.00228594
0.00229057
0.00228591
0.00228599
0.00229054
0.00228585
0.00228582
0.00228598
0.00229048
0.0022906
0.00228588
0.00228596
0.0022905
0.00229061
0.00228594
0.00229058
0.00228591
0.00228598
0.00230511
0.00230957
0.00230962
0.00230515
0.00230958
0.00230509
0.00230503
0.00230004
0.00230015
0.00229552
0.00229554
0.00230012
0.00230006
0.00229553
0.00230499
0.00230954
0.00230966
0.00230498
0.00230962
0.00230495
0.00230503
0.0022955
0.00229545
0.00229543
0.00230009
0.00230003
0.00230001
0.00230013
0.00229548
0.00229533
0.0022954
0.00230012
0.00229998
0.0023
0.00230003
0.00230503
0.00230954
0.00230962
0.00230486
0.00230967
0.0023049
0.00230493
0.0022954
0.00229533
0.00230013
0.00229997
0.00229535
0.00230007
0.00230001
0.00229545
0.00229548
0.00229543
0.0023001
0.00230003
0.00230013
0.00230002
0.00230499
0.00230965
0.00230952
0.00230496
0.00230961
0.00230502
0.00230494
0.0020093
0.00226933
0.00226927
0.00226928
0.00227159
0.00223139
0.00223136
0.00223137
0.00223363
0.00219366
0.00219365
0.00219364
0.00219589
0.00215608
0.00215607
0.00215606
0.00215829
0.00211865
0.00211865
0.00211864
0.00212084
0.00208137
0.00208136
0.00208135
0.00208354
0.00201647
0.00204421
0.00204422
0.0020464
0.00200723
0.00200721
0.0022766
0.0022788
0.0022788
0.00227159
0.00223861
0.0022693
0.00226928
0.00224082
0.00224082
0.00227156
0.0022386
0.0022693
0.00226928
0.00224082
0.00224081
0.0022693
0.00224082
0.00224081
0.00227157
0.00223861
0.0022693
0.00224081
0.00224081
0.00223861
0.00223361
0.00220085
0.00223135
0.00223136
0.00220305
0.00220307
0.0022336
0.00220087
0.00223135
0.00223137
0.00220305
0.00220305
0.00223137
0.00220307
0.00220306
0.00223363
0.00220086
0.00223137
0.00220305
0.00220306
0.00220087
0.00219588
0.00216325
0.00219364
0.00219365
0.00216545
0.00216545
0.00219588
0.00216325
0.00219364
0.00219364
0.00216545
0.00216544
0.00219365
0.00216545
0.00216544
0.00219588
0.00216324
0.00219365
0.00216544
0.00216544
0.00216325
0.00215828
0.0021258
0.00215606
0.00215607
0.00212799
0.00212798
0.00215829
0.0021258
0.00215606
0.00215606
0.00212799
0.00212799
0.00215607
0.00212798
0.00212798
0.00215828
0.0021258
0.00215607
0.00212799
0.00212798
0.00212579
0.00212085
0.00208848
0.00211864
0.00211865
0.00209067
0.00209066
0.00212085
0.00208848
0.00211864
0.00211864
0.00209067
0.00209066
0.00211864
0.00209066
0.00209066
0.00212084
0.00208847
0.00211864
0.00209066
0.00209066
0.00208847
0.00208355
0.00205131
0.00208136
0.00208136
0.00205349
0.00205349
0.00208355
0.0020513
0.00208136
0.00208135
0.00205349
0.0020535
0.00208135
0.00205349
0.0020535
0.00208354
0.00205132
0.00208135
0.0020535
0.0020535
0.00205132
0.00204639
0.00201428
0.00204422
0.00204421
0.00201645
0.00201402
0.00204638
0.00201395
0.00204422
0.00204422
0.00201645
0.00201644
0.00204422
0.00201646
0.0020464
0.00201427
0.00204422
0.00201644
0.00200929
0.00200721
0.00200937
0.00200928
0.00225726
0.00227143
0.00227147
0.0022572
0.00227141
0.0022572
0.00225726
0.00227143
0.00227147
0.00225721
0.00226928
0.00226931
0.00226931
0.00224086
0.00224085
0.00224085
0.00224085
0.00225741
0.00227155
0.00226929
0.00225976
0.00227153
0.00225731
0.00225979
0.00227139
0.00225721
0.00225741
0.00226929
0.00227147
0.00225977
0.00225979
0.0022573
0.00227154
0.00227142
0.00227142
0.00225756
0.00225724
0.00225724
0.0022194
0.00223349
0.00223353
0.00221935
0.00223351
0.00221935
0.0022194
0.00223349
0.00223354
0.00221935
0.00223139
0.00223139
0.00223139
0.00220307
0.00220308
0.00220308
0.00220308
0.00221955
0.0022335
0.00223137
0.00222191
0.00223355
0.00221946
0.00222193
0.00223349
0.00221934
0.00221956
0.00223138
0.00223351
0.00222192
0.00223355
0.00222193
0.00221945
0.00223352
0.00223352
0.0022197
0.00221938
0.00221938
0.00218171
0.00219575
0.00219579
0.00218167
0.00219575
0.00218168
0.00218171
0.00219575
0.00219579
0.00218167
0.00219366
0.00219366
0.00219366
0.00216546
0.00216546
0.00216546
0.00216546
0.00218187
0.00219575
0.00219366
0.00218422
0.00219581
0.00218177
0.00218425
0.00219575
0.00218165
0.00218187
0.00219366
0.00219576
0.00218424
0.00219581
0.00218425
0.00218176
0.00219577
0.00219577
0.00218203
0.00218169
0.00218169
0.00214418
0.00215816
0.0021582
0.00214414
0.00215815
0.00214416
0.00214418
0.00215816
0.0021582
0.00214414
0.00215608
0.00215608
0.00215608
0.002128
0.002128
0.002128
0.002128
0.00214433
0.00215817
0.00215608
0.00214669
0.00215822
0.00214423
0.00214672
0.00215817
0.00214414
0.00214433
0.00215609
0.00215818
0.0021467
0.00215821
0.00214672
0.00214424
0.0021582
0.0021582
0.00214451
0.00214416
0.00214416
0.0021068
0.00212073
0.00212077
0.00210676
0.00212071
0.00210675
0.0021068
0.00212073
0.00212077
0.00210676
0.00211866
0.00211866
0.00211865
0.00209068
0.00209068
0.00209068
0.00209068
0.00210695
0.00212074
0.00211867
0.00210931
0.00212078
0.00210684
0.00210933
0.00212073
0.00210676
0.00210695
0.00211867
0.00212074
0.00210931
0.00212078
0.00210933
0.00210685
0.00212076
0.00212076
0.00210712
0.00210677
0.00210677
0.00206956
0.00208344
0.00208347
0.00206952
0.00208345
0.00206951
0.00206956
0.00208344
0.00208347
0.00206952
0.00208137
0.00208137
0.00208137
0.0020535
0.0020535
0.00205351
0.00205351
0.0020697
0.00208345
0.00208139
0.00207206
0.00208348
0.00206961
0.00207209
0.00208344
0.00206954
0.0020697
0.00208139
0.00208344
0.00207206
0.00208348
0.00207209
0.00206961
0.00208347
0.00208347
0.00206988
0.00206955
0.00206955
0.00203246
0.00204629
0.00204632
0.00203242
0.00204628
0.00203244
0.00203246
0.00204629
0.00204632
0.00203242
0.00201645
0.00204423
0.00204423
0.00204423
0.00204423
0.00201647
0.00201647
0.0020326
0.00204629
0.00204425
0.00203495
0.00204633
0.00203251
0.00203499
0.00204627
0.00203241
0.0020326
0.00204425
0.0020463
0.00203495
0.00204633
0.00203499
0.0020325
0.00204631
0.00204631
0.00203277
0.00203244
0.00203244
0.00200722
0.00200723
0.00200723
0.0020093
0.00200929
0.00227621
0.00227621
0.00227623
0.00227623
0.00227621
0.00227626
0.00227631
0.0022788
0.00227642
0.00227619
0.00227626
0.00229044
0.00228831
0.0022788
0.002281
0.00227642
0.00228582
0.00227142
0.00225719
0.00227142
0.00225719
0.00227145
0.00227145
0.0022576
0.00225722
0.00225722
0.00223825
0.00225241
0.00223825
0.00225241
0.00225259
0.00223828
0.00223828
0.00225245
0.00225245
0.00225726
0.00227141
0.00227147
0.0022572
0.00225742
0.00227151
0.0022693
0.00225981
0.00227155
0.00225731
0.0022598
0.00225742
0.00227147
0.00226929
0.00225976
0.00227154
0.00225731
0.00225979
0.00225248
0.00223825
0.00225243
0.0022383
0.00225248
0.00223825
0.00225243
0.0022383
0.0022525
0.00225031
0.00223835
0.00224084
0.00225245
0.00225031
0.00223846
0.0022525
0.00225029
0.00223835
0.00224083
0.00225245
0.00225031
0.00223846
0.00227144
0.00227144
0.00225756
0.00225724
0.00225724
0.0022714
0.0022572
0.00223826
0.00225242
0.00225256
0.00223829
0.00223828
0.00225247
0.00225247
0.00223826
0.00225242
0.00225742
0.00227144
0.0022693
0.00225981
0.00227149
0.00225731
0.0022598
0.00225726
0.00227141
0.00227147
0.0022572
0.00225742
0.00226929
0.00227148
0.00225978
0.00227149
0.00225979
0.0022573
0.00225248
0.00223825
0.00225243
0.0022383
0.0022525
0.00225031
0.00223835
0.00224084
0.00225245
0.00225031
0.00223846
0.00225248
0.00223826
0.00225243
0.0022383
0.0022525
0.00225028
0.00224084
0.00223836
0.00225031
0.00225245
0.00223846
0.00225725
0.00227141
0.00227146
0.0022572
0.00225741
0.00226929
0.00227149
0.00225978
0.00227154
0.00225979
0.0022573
0.00225725
0.00227141
0.00227146
0.0022572
0.00225249
0.00225029
0.00223835
0.00224083
0.00225245
0.0022503
0.00223846
0.00225247
0.00223825
0.00225243
0.0022383
0.00225249
0.00225028
0.00224083
0.00223836
0.0022503
0.00225244
0.00223846
0.00225247
0.00223825
0.00225243
0.0022383
0.00227143
0.00227143
0.00225755
0.00225724
0.00225724
0.00227139
0.0022572
0.00223826
0.00225244
0.00225254
0.00223829
0.00223829
0.00225248
0.00225248
0.00223826
0.00225244
0.00225741
0.00226929
0.00227149
0.00225978
0.00225979
0.0022573
0.00227155
0.00225725
0.00227141
0.0022572
0.00227147
0.00225725
0.00227141
0.0022572
0.00227147
0.00225249
0.00225028
0.00224083
0.00223836
0.0022503
0.00225244
0.00223846
0.00225249
0.00225027
0.00224083
0.00223836
0.0022503
0.00225244
0.00223846
0.00225247
0.00223826
0.00225243
0.0022383
0.00225247
0.00223825
0.00225243
0.0022383
0.00227139
0.00225721
0.00227139
0.00225721
0.00225255
0.00223828
0.00223828
0.00225248
0.00225248
0.00223824
0.00225244
0.00223824
0.00225244
0.0022335
0.00221935
0.0022335
0.00221935
0.00223353
0.00223353
0.0022197
0.00221938
0.00221938
0.00220049
0.0022146
0.00220049
0.0022146
0.00221473
0.00220052
0.00220051
0.00221463
0.00221463
0.0022194
0.0022335
0.00223353
0.00221936
0.00221955
0.0022335
0.00223137
0.00222191
0.00223355
0.00221945
0.00222193
0.00221955
0.0022335
0.00223137
0.00222191
0.00223355
0.00221946
0.00222193
0.00221464
0.00220049
0.0022146
0.00220054
0.00221464
0.00220048
0.00221461
0.00220054
0.00221466
0.00221248
0.00220059
0.00220307
0.00221462
0.00221249
0.00220069
0.00221466
0.00221249
0.00220058
0.00220307
0.00221462
0.0022125
0.00220069
0.00223354
0.00223354
0.00221973
0.00221938
0.00221938
0.00223351
0.00221936
0.00220048
0.00221459
0.00221475
0.0022005
0.0022005
0.00221463
0.00221463
0.00220048
0.00221459
0.00221955
0.0022335
0.00223137
0.00222191
0.00223355
0.00221945
0.00222193
0.0022194
0.0022335
0.00223354
0.00221935
0.00221955
0.00223138
0.00223351
0.00222192
0.00223355
0.00222193
0.00221945
0.00221464
0.00220049
0.0022146
0.00220053
0.00221466
0.00221248
0.00220058
0.00220307
0.00221462
0.00221249
0.00220069
0.00221464
0.00220049
0.0022146
0.00220053
0.00221466
0.00221248
0.00220307
0.00220059
0.00221249
0.00221461
0.00220069
0.0022194
0.0022335
0.00223354
0.00221936
0.00221955
0.00223137
0.00223351
0.00222192
0.00223355
0.00222193
0.00221944
0.0022194
0.00223349
0.00223353
0.00221935
0.00221466
0.00221249
0.00220058
0.00220307
0.00221463
0.0022125
0.0022007
0.00221464
0.00220048
0.00221461
0.00220054
0.00221466
0.00221247
0.00220307
0.00220059
0.0022125
0.00221461
0.0022007
0.00221464
0.00220049
0.00221461
0.00220054
0.00223353
0.00223353
0.00221972
0.00221937
0.00221937
0.00223349
0.00221934
0.00220049
0.0022146
0.00221473
0.00220052
0.00220052
0.00221463
0.00221463
0.0022005
0.0022146
0.00221955
0.00223137
0.00223351
0.00222192
0.00223355
0.00222193
0.00221944
0.0022194
0.0022335
0.00223354
0.00221935
0.0022194
0.00223349
0.00223354
0.00221935
0.00221466
0.00221248
0.00220307
0.00220059
0.00221249
0.00221461
0.00220069
0.00221466
0.00221247
0.00220307
0.00220059
0.00221249
0.00221461
0.00220069
0.00221464
0.00220049
0.0022146
0.00220054
0.00221464
0.00220049
0.0022146
0.00220054
0.00223348
0.00221936
0.00223348
0.00221936
0.00221472
0.00220051
0.00220051
0.00221464
0.00221464
0.00220048
0.00221461
0.00220048
0.00221461
0.00219575
0.00218166
0.00219575
0.00218166
0.00219578
0.00219578
0.00218204
0.00218169
0.00218169
0.00216288
0.00217693
0.00216288
0.00217693
0.00217707
0.00216291
0.00216291
0.00217696
0.00217696
0.00218171
0.00219575
0.00219579
0.00218167
0.00218187
0.00219576
0.00219365
0.00218423
0.00219581
0.00218176
0.00218425
0.00218187
0.00219575
0.00219366
0.00218422
0.00219581
0.00218177
0.00218425
0.00217698
0.00216288
0.00217694
0.00216293
0.00217698
0.00216288
0.00217694
0.00216293
0.00217699
0.00217484
0.00216298
0.00216546
0.00217695
0.00217485
0.00216308
0.00217699
0.00217483
0.00216298
0.00216546
0.00217696
0.00217485
0.00216308
0.00219578
0.00219578
0.00218203
0.00218171
0.00218171
0.00219575
0.00218168
0.00216286
0.00217694
0.00217706
0.00216289
0.00216289
0.00217697
0.00217698
0.00216286
0.00217694
0.00218187
0.00219576
0.00219365
0.00218423
0.0021958
0.00218176
0.00218425
0.00218171