/*--------------------------------*- C++ -*----------------------------------*\
| =========                 |                                                 |
| \\      /  F ield         | OpenFOAM: The Open Source CFD Toolbox           |
|  \\    /   O peration     | Version:  v2012                                 |
|   \\  /    A nd           | Website:  www.openfoam.com                      |
|    \\/     M anipulation  |                                                 |
\*---------------------------------------------------------------------------*/
FoamFile
{
    version     2.0;
    format      ascii;
    class       volScalarField;
    location    "650";
    object      nut;
}
// * * * * * * * * * * * * * * * * * * * * * * * * * * * * * * * * * * * * * //

dimensions      [0 2 -1 0 0 0 0];


internalField   nonuniform List<scalar> 
171728
(
2.38938e-06
1.74392e-06
2.4598e-06
2.29543e-06
2.38477e-06
1.71404e-06
2.58614e-06
2.21903e-06
2.40416e-06
1.70247e-06
2.88694e-06
2.13827e-06
2.41883e-06
1.69747e-06
3.26285e-06
2.12973e-06
2.4307e-06
1.69381e-06
3.50807e-06
2.24877e-06
2.4434e-06
1.68649e-06
3.52592e-06
2.61336e-06
2.46161e-06
1.66575e-06
3.14705e-06
2.76298e-06
2.48088e-06
1.6285e-06
2.45368e-06
2.32235e-06
2.51821e-06
1.57534e-06
1.80565e-06
2.20847e-06
2.59231e-06
1.5007e-06
1.37327e-06
2.2451e-06
2.68149e-06
1.4005e-06
1.21002e-06
2.45223e-06
2.74152e-06
1.29383e-06
1.16591e-06
2.54918e-06
2.73715e-06
1.18598e-06
1.17865e-06
2.04058e-06
2.81239e-06
1.08189e-06
1.17592e-06
1.62785e-06
2.92122e-06
9.98252e-07
1.15011e-06
1.57577e-06
2.89516e-06
9.29928e-07
1.09251e-06
1.47568e-06
2.75396e-06
8.81597e-07
1.04128e-06
1.25489e-06
2.6617e-06
8.58563e-07
1.00998e-06
1.16675e-06
2.66544e-06
8.72648e-07
1.03955e-06
1.19242e-06
2.72734e-06
9.83634e-07
1.13995e-06
1.48542e-06
2.74157e-06
1.19005e-06
1.3866e-06
2.05044e-06
2.52863e-06
1.45009e-06
1.62099e-06
2.60665e-06
2.26318e-06
2.02801e-06
2.17565e-06
4.34427e-06
2.07274e-06
2.89021e-06
2.81735e-06
6.50488e-06
1.93213e-06
3.55572e-06
3.976e-06
9.02683e-06
1.81135e-06
5.64864e-06
5.0408e-06
1.10512e-05
1.66303e-06
5.98809e-06
7.24389e-06
1.87067e-05
1.57138e-06
9.55217e-06
9.37188e-06
2.66613e-05
1.51358e-06
1.17167e-05
1.12751e-05
2.72442e-05
1.4828e-06
1.42804e-05
1.5472e-05
4.00514e-05
1.61e-06
1.78058e-05
1.82007e-05
4.54361e-05
1.75868e-06
2.19203e-05
2.24263e-05
5.26374e-05
1.98741e-06
2.64179e-05
2.82787e-05
5.75047e-05
2.44474e-06
3.06354e-05
3.0015e-05
6.49063e-05
2.84765e-06
3.62194e-05
3.68049e-05
6.78641e-05
3.79102e-06
3.95233e-05
4.23565e-05
7.75111e-05
4.84631e-06
4.96435e-05
4.8251e-05
7.80525e-05
5.51909e-06
5.12102e-05
5.26998e-05
8.15531e-05
7.58703e-06
5.82696e-05
5.8574e-05
9.02711e-05
9.45092e-06
6.5212e-05
6.45328e-05
9.21906e-05
1.09365e-05
7.20355e-05
7.22707e-05
9.54042e-05
1.49367e-05
7.72753e-05
7.60275e-05
9.95128e-05
1.65107e-05
7.77631e-05
8.28161e-05
0.000102899
2.06587e-05
9.3484e-05
9.02407e-05
0.000106104
2.51812e-05
9.83139e-05
9.64279e-05
0.000112727
3.01451e-05
9.73754e-05
9.50632e-05
0.000114236
3.1485e-05
0.000106453
0.000106764
0.000116954
4.05755e-05
0.000109866
0.000115627
0.000121529
4.46633e-05
0.000115707
0.000115696
0.000129132
5.28199e-05
0.000125485
0.00012162
0.000129869
6.05479e-05
0.000126584
0.000126357
0.000125888
6.23864e-05
0.000122324
0.000124142
0.000134659
6.7781e-05
0.000141591
0.000139874
0.00014834
8.03752e-05
0.000146061
0.000146374
0.000147656
9.38271e-05
0.000138231
0.000141318
0.000135302
9.33226e-05
0.000144412
0.000137097
0.000139386
8.87499e-05
0.000163173
0.000155827
0.000159916
0.000115534
0.000163404
0.000164153
0.000160453
0.00011943
0.000150716
0.000159785
0.000151994
0.00011464
0.000150614
0.000155798
0.000153966
0.00011958
0.000175686
0.000168876
0.000164963
0.00014256
0.000180382
0.000174637
0.000164407
0.000143798
0.000174619
0.000173411
0.000162331
0.000138864
0.000172679
0.00017679
0.000171315
0.000150455
0.000182603
0.000184187
0.000175563
0.000163559
0.000183702
0.000181702
0.000168174
0.000161943
0.000184884
0.000180329
0.000171825
0.000163147
0.000192398
0.000195169
0.000182362
0.000177886
0.000191515
0.000194849
0.000178962
0.000182064
0.000188128
0.000190217
0.000173202
0.000178828
0.000202248
0.000196335
0.00018272
0.000190526
0.000211237
0.000206601
0.000192155
0.00020149
0.000201583
0.000208152
0.000187437
0.000199602
0.000192758
0.000199299
0.000179551
0.000194511
0.000200674
0.000197151
0.000183098
0.00020241
0.000220258
0.000211155
0.000195217
0.000220757
0.000224529
0.000217817
0.000196462
0.000224122
0.000210385
0.000216288
0.000191265
0.000218115
0.000206358
0.000213666
0.000190997
0.000215194
0.000214462
0.00021309
0.000193665
0.000221928
0.000220525
0.000212775
0.000194959
0.000230574
0.000219785
0.000220483
0.000196979
0.000233106
0.000218186
0.000222787
0.000196764
0.000233499
0.000223316
0.000222321
0.000197694
0.000238054
0.000226626
0.000222724
0.000200213
0.000239645
0.000223055
0.000223369
0.000198945
0.00023916
0.000221154
0.000223485
0.00019789
0.000241837
0.000225341
0.000225886
0.000200422
0.000245612
0.000228122
0.000225956
0.000200802
0.000246002
0.000225674
0.000225526
0.000199657
0.000245819
0.000224987
0.000227025
0.000200857
0.000248183
0.000227754
0.000227192
0.000201513
0.000250197
0.000228782
0.000226123
0.000199747
0.000250214
0.000225303
0.000226522
0.000199828
0.000250845
0.00022643
0.000229018
0.000204956
2.29805e-06
2.24721e-06
2.20709e-06
2.27955e-06
1.98939e-06
3.22121e-06
2.4158e-06
2.27216e-06
2.45141e-06
2.44594e-06
2.16873e-06
1.9678e-06
2.28863e-06
2.71783e-06
1.96219e-06
2.30017e-06
2.29559e-06
2.24733e-06
1.90747e-06
1.77373e-06
1.8931e-06
1.74623e-06
2.27902e-06
2.23963e-06
1.90334e-06
3.86695e-06
1.84143e-06
4.58004e-06
1.97111e-06
1.71915e-06
2.03009e-06
2.28291e-06
2.40605e-06
1.85392e-06
2.54832e-06
1.80951e-06
2.23194e-06
2.25735e-06
2.19128e-06
1.88942e-06
1.739e-06
1.89302e-06
1.71758e-06
2.23783e-06
2.20586e-06
1.82696e-06
4.9693e-06
1.79934e-06
5.22254e-06
2.06971e-06
1.70456e-06
2.20943e-06
2.41331e-06
2.46977e-06
1.78792e-06
2.79299e-06
1.73818e-06
2.14612e-06
2.19068e-06
2.13388e-06
1.89873e-06
1.70991e-06
1.90957e-06
1.6867e-06
2.20423e-06
2.16722e-06
1.79389e-06
4.83347e-06
1.80018e-06
3.42434e-06
2.27994e-06
1.69927e-06
2.52809e-06
2.43142e-06
2.39519e-06
1.72898e-06
3.17239e-06
1.72753e-06
2.12838e-06
2.12741e-06
2.08341e-06
1.90359e-06
1.67812e-06
1.8719e-06
1.6522e-06
2.16382e-06
2.12936e-06
1.80902e-06
3.05246e-06
1.84111e-06
2.46529e-06
2.60836e-06
1.69473e-06
3.02862e-06
2.36719e-06
2.36553e-06
1.73338e-06
3.46655e-06
1.7526e-06
2.22196e-06
2.07769e-06
2.05645e-06
1.86092e-06
1.64275e-06
1.83574e-06
1.6092e-06
2.12534e-06
2.08886e-06
1.85254e-06
2.40409e-06
1.90714e-06
2.37298e-06
3.32209e-06
1.68883e-06
4.89007e-06
2.34418e-06
2.38912e-06
1.76263e-06
3.5561e-06
1.81235e-06
2.59169e-06
2.04788e-06
2.0731e-06
1.82792e-06
1.59788e-06
1.79169e-06
1.55408e-06
2.08373e-06
2.06232e-06
1.93309e-06
2.3901e-06
2.02947e-06
2.43025e-06
5.58899e-06
1.67153e-06
7.67159e-06
2.36714e-06
2.39894e-06
1.83122e-06
3.28666e-06
1.90826e-06
2.77714e-06
2.0692e-06
2.13275e-06
1.77451e-06
1.53725e-06
1.71542e-06
1.49012e-06
2.0565e-06
2.03604e-06
2.07154e-06
2.41361e-06
2.23229e-06
2.22594e-06
8.22723e-06
1.6395e-06
6.26763e-06
2.3567e-06
2.22227e-06
1.94007e-06
2.63136e-06
2.04507e-06
2.42295e-06
2.13432e-06
2.22886e-06
1.69508e-06
1.47635e-06
1.63303e-06
1.42581e-06
2.02983e-06
2.00072e-06
2.29222e-06
2.11831e-06
2.52624e-06
1.78274e-06
5.24475e-06
1.59013e-06
2.97927e-06
2.20396e-06
2.04464e-06
2.09644e-06
1.95384e-06
2.33586e-06
2.24634e-06
2.23631e-06
2.38166e-06
1.60908e-06
1.40557e-06
1.53253e-06
1.33045e-06
1.9943e-06
1.93164e-06
2.63523e-06
1.68974e-06
3.05582e-06
1.48634e-06
2.52607e-06
1.5205e-06
1.77857e-06
2.0274e-06
1.8773e-06
2.42891e-06
1.45101e-06
2.70678e-06
2.24336e-06
2.38615e-06
2.47427e-06
1.50388e-06
1.30382e-06
1.4316e-06
1.22948e-06
1.92525e-06
1.82358e-06
3.22355e-06
1.43339e-06
3.7513e-06
1.30552e-06
1.65595e-06
1.42725e-06
1.46986e-06
1.86736e-06
1.75771e-06
2.81405e-06
1.22865e-06
3.27337e-06
2.44557e-06
2.47113e-06
2.44263e-06
1.40527e-06
1.20849e-06
1.3126e-06
1.14708e-06
1.81597e-06
1.70081e-06
3.8993e-06
1.27677e-06
4.23498e-06
1.20521e-06
1.44014e-06
1.31799e-06
1.37164e-06
1.75179e-06
1.65926e-06
3.43115e-06
1.17625e-06
3.78557e-06
2.55961e-06
2.42087e-06
2.12476e-06
1.28169e-06
1.12725e-06
1.22127e-06
1.07242e-06
1.69044e-06
1.57234e-06
4.31833e-06
1.18177e-06
4.17325e-06
1.11759e-06
1.34808e-06
1.20969e-06
1.2589e-06
1.65103e-06
1.55385e-06
3.86383e-06
1.17403e-06
3.51417e-06
2.11045e-06
2.08733e-06
1.93121e-06
1.20442e-06
1.05428e-06
1.17487e-06
1.00358e-06
1.5587e-06
1.44648e-06
4.10746e-06
1.10433e-06
4.14994e-06
1.06725e-06
1.2263e-06
1.10261e-06
1.15258e-06
1.54168e-06
1.45314e-06
3.16375e-06
1.17953e-06
2.44451e-06
1.64564e-06
1.91877e-06
1.92169e-06
1.16363e-06
9.86517e-07
1.16811e-06
9.4298e-07
1.42934e-06
1.32869e-06
4.16133e-06
1.05833e-06
4.29726e-06
1.02202e-06
1.13943e-06
1.01637e-06
1.07937e-06
1.4377e-06
1.36038e-06
2.30237e-06
1.16044e-06
2.14678e-06
1.58976e-06
1.91161e-06
1.87318e-06
1.18232e-06
9.29481e-07
1.21638e-06
8.91393e-07
1.30868e-06
1.22211e-06
4.33022e-06
1.01028e-06
4.37388e-06
1.00666e-06
1.06456e-06
9.44385e-07
1.01694e-06
1.34117e-06
1.27413e-06
2.10258e-06
1.10848e-06
2.15512e-06
1.50405e-06
1.83932e-06
1.65709e-06
1.2333e-06
8.80205e-07
1.32991e-06
8.55339e-07
1.20061e-06
1.12885e-06
4.36056e-06
1.00905e-06
3.20018e-06
1.0348e-06
1.00051e-06
8.88196e-07
9.58673e-07
1.25466e-06
1.21221e-06
2.16081e-06
1.05728e-06
1.92977e-06
1.28998e-06
1.60988e-06
1.49724e-06
1.38154e-06
8.53128e-07
1.5729e-06
8.44264e-07
1.10974e-06
1.06675e-06
2.7133e-06
1.05022e-06
1.6684e-06
1.15133e-06
9.53368e-07
8.58911e-07
9.50134e-07
1.20196e-06
1.2003e-06
1.72716e-06
1.01511e-06
1.41857e-06
1.18425e-06
1.46559e-06
1.40593e-06
1.64428e-06
8.50083e-07
1.87709e-06
8.80982e-07
1.05944e-06
1.07096e-06
1.43163e-06
1.20665e-06
1.15212e-06
1.46574e-06
9.60406e-07
8.73021e-07
9.45037e-07
1.20174e-06
1.27417e-06
1.33935e-06
1.02828e-06
1.2569e-06
1.17794e-06
1.41013e-06
1.53728e-06
1.98137e-06
8.88211e-07
2.23714e-06
9.9902e-07
1.08153e-06
1.18477e-06
1.12183e-06
1.5821e-06
1.12343e-06
2.14821e-06
9.77669e-07
9.5799e-07
1.09901e-06
1.30986e-06
1.5328e-06
1.25577e-06
1.12528e-06
1.65529e-06
1.44058e-06
1.56912e-06
1.80251e-06
2.3191e-06
1.02782e-06
2.5309e-06
1.17259e-06
1.24495e-06
1.46535e-06
1.1437e-06
2.34261e-06
1.20179e-06
2.93044e-06
1.0976e-06
1.10757e-06
1.28839e-06
1.61347e-06
1.96261e-06
1.74742e-06
1.29764e-06
2.24872e-06
1.78893e-06
1.8661e-06
2.56192e-06
2.57749e-06
1.26037e-06
2.71544e-06
1.44817e-06
1.56379e-06
2.09913e-06
1.23568e-06
3.19526e-06
1.51997e-06
3.59015e-06
1.39776e-06
1.36626e-06
1.51152e-06
2.13486e-06
2.66695e-06
2.5362e-06
1.51119e-06
3.06227e-06
2.60491e-06
2.73255e-06
3.03227e-06
2.73236e-06
1.54345e-06
2.57461e-06
2.03262e-06
2.23222e-06
3.28259e-06
1.58285e-06
3.68835e-06
1.82645e-06
4.09784e-06
1.58586e-06
1.9309e-06
2.10311e-06
2.73547e-06
4.21221e-06
3.13518e-06
2.15341e-06
3.83222e-06
3.92004e-06
3.2393e-06
5.31437e-06
2.57474e-06
2.13529e-06
2.95409e-06
2.65925e-06
3.63883e-06
4.88584e-06
1.99517e-06
4.14042e-06
2.5971e-06
3.82463e-06
2.20946e-06
2.52848e-06
2.77306e-06
4.41889e-06
4.65636e-06
3.9835e-06
2.52734e-06
4.45491e-06
5.79011e-06
5.78065e-06
7.72973e-06
3.16663e-06
3.02302e-06
3.8023e-06
3.45565e-06
5.36913e-06
7.74064e-06
2.82129e-06
3.75873e-06
3.54221e-06
4.41799e-06
3.12325e-06
3.33983e-06
3.75635e-06
5.06166e-06
8.42078e-06
4.82556e-06
3.70296e-06
5.33102e-06
8.91908e-06
8.33665e-06
1.14982e-05
4.00987e-06
3.67702e-06
4.9155e-06
5.32298e-06
7.99145e-06
1.28119e-05
3.82661e-06
4.71632e-06
4.8982e-06
5.5706e-06
3.92351e-06
5.14836e-06
4.82373e-06
9.13295e-06
1.16135e-05
5.27008e-06
4.84177e-06
4.86315e-06
1.00319e-05
1.2394e-05
1.63686e-05
5.27674e-06
5.82565e-06
6.35353e-06
6.12509e-06
1.42502e-05
1.5318e-05
5.27217e-06
5.74024e-06
6.40291e-06
6.60493e-06
5.15225e-06
5.95432e-06
6.4762e-06
1.23533e-05
1.62999e-05
4.91714e-06
6.72124e-06
8.51258e-06
1.70831e-05
1.71907e-05
2.22182e-05
6.7385e-06
6.12621e-06
8.38291e-06
8.60245e-06
1.50656e-05
2.25534e-05
6.81788e-06
7.00639e-06
8.43144e-06
8.50288e-06
7.16679e-06
8.50034e-06
9.425e-06
1.73348e-05
2.29391e-05
9.57582e-06
8.55989e-06
1.09851e-05
2.60183e-05
2.37125e-05
3.02727e-05
9.09635e-06
9.65068e-06
1.10952e-05
1.18512e-05
2.54241e-05
3.31497e-05
9.11404e-06
9.19455e-06
1.10875e-05
1.06856e-05
9.86808e-06
1.16278e-05
9.94032e-06
2.42869e-05
2.93424e-05
1.10427e-05
1.08078e-05
1.04355e-05
2.66422e-05
3.15955e-05
3.63068e-05
1.17159e-05
1.19413e-05
1.365e-05
1.34073e-05
3.36685e-05
3.50069e-05
1.17025e-05
1.11969e-05
1.37473e-05
1.42073e-05
1.07613e-05
1.32867e-05
1.45203e-05
3.05456e-05
3.6771e-05
1.05945e-05
1.45422e-05
1.54684e-05
3.76515e-05
3.75234e-05
4.35272e-05
1.43553e-05
1.44069e-05
1.71101e-05
1.72168e-05
3.61973e-05
4.38536e-05
1.44547e-05
1.50642e-05
1.7028e-05
1.66864e-05
1.52056e-05
1.70409e-05
1.73572e-05
3.83369e-05
4.40177e-05
1.60206e-05
1.73425e-05
1.71235e-05
4.46429e-05
4.50748e-05
5.09901e-05
1.8073e-05
1.79873e-05
2.09707e-05
2.09204e-05
4.55296e-05
5.04821e-05
1.80159e-05
1.74988e-05
2.10233e-05
2.11221e-05
1.82265e-05
2.08307e-05
2.13149e-05
4.52065e-05
5.0453e-05
1.81596e-05
2.11581e-05
2.17906e-05
5.10373e-05
5.24017e-05
5.72497e-05
2.20956e-05
2.20382e-05
2.5222e-05
2.57539e-05
5.181e-05
5.78631e-05
2.20897e-05
2.23502e-05
2.52395e-05
2.59304e-05
2.24524e-05
2.5276e-05
2.47362e-05
5.21745e-05
5.85905e-05
2.27685e-05
2.68719e-05
2.49736e-05
5.65504e-05
5.8459e-05
6.29956e-05
2.61392e-05
2.67712e-05
2.97777e-05
2.92357e-05
5.92423e-05
6.27832e-05
2.62327e-05
2.68939e-05
2.97479e-05
2.85073e-05
2.55256e-05
2.93354e-05
3.0279e-05
5.96035e-05
6.15256e-05
2.58924e-05
3.02601e-05
3.05278e-05
6.34134e-05
6.42747e-05
6.80393e-05
3.12078e-05
3.0572e-05
3.45193e-05
3.56834e-05
6.3944e-05
6.87592e-05
3.09988e-05
2.94721e-05
3.43018e-05
3.52214e-05
3.23351e-05
3.54065e-05
3.37529e-05
6.2629e-05
6.8806e-05
3.16221e-05
3.40099e-05
3.17831e-05
6.66731e-05
6.90191e-05
7.372e-05
3.53649e-05
3.66913e-05
3.97914e-05
3.80171e-05
6.96421e-05
7.20882e-05
3.53723e-05
3.7422e-05
4.01085e-05
3.99101e-05
3.40833e-05
3.77593e-05
4.14948e-05
7.03442e-05
7.3625e-05
3.3737e-05
4.23569e-05
4.36021e-05
7.64135e-05
7.50453e-05
7.86425e-05
4.17484e-05
3.94986e-05
4.66039e-05
4.71702e-05
7.34023e-05
7.97983e-05
4.19342e-05
3.97485e-05
4.61664e-05
4.51958e-05
4.39678e-05
4.73951e-05
4.77747e-05
7.43061e-05
7.82337e-05
4.58914e-05
4.56604e-05
4.83417e-05
7.79477e-05
7.94578e-05
8.18422e-05
4.77413e-05
4.96129e-05
5.03287e-05
5.21691e-05
8.0882e-05
8.23062e-05
4.7129e-05
4.79996e-05
5.03993e-05
5.34436e-05
4.81896e-05
5.15018e-05
4.69216e-05
7.98628e-05
8.31184e-05
4.85272e-05
5.2244e-05
4.68376e-05
8.01265e-05
8.27434e-05
8.70262e-05
5.17549e-05
5.18624e-05
5.75531e-05
5.53921e-05
8.26714e-05
8.5803e-05
5.20562e-05
5.33917e-05
5.76657e-05
5.53024e-05
4.83021e-05
5.52877e-05
6.03873e-05
8.35566e-05
8.55293e-05
4.7462e-05
5.66016e-05
6.04184e-05
8.92933e-05
8.80413e-05
9.08711e-05
5.90913e-05
5.8204e-05
6.36332e-05
6.43147e-05
8.73081e-05
9.14255e-05
5.90953e-05
5.75104e-05
6.34746e-05
6.38459e-05
6.30726e-05
6.44637e-05
6.45116e-05
8.67356e-05
9.13073e-05
6.35459e-05
6.3143e-05
6.50546e-05
9.15971e-05
9.17301e-05
9.45328e-05
6.54378e-05
6.5144e-05
6.85441e-05
6.9858e-05
9.21774e-05
9.57005e-05
6.52008e-05
6.53169e-05
6.88491e-05
7.01929e-05
6.58313e-05
6.97841e-05
6.91143e-05
9.21638e-05
9.50516e-05
6.62566e-05
7.07588e-05
7.0376e-05
9.47473e-05
9.5318e-05
9.89856e-05
6.993e-05
7.21536e-05
7.68383e-05
7.70907e-05
9.65737e-05
9.79597e-05
7.02689e-05
7.17248e-05
7.61023e-05
7.46474e-05
6.97714e-05
7.68736e-05
7.49969e-05
9.58639e-05
9.81508e-05
7.08179e-05
7.43216e-05
7.4192e-05
9.83885e-05
9.98063e-05
0.000102052
7.79387e-05
7.75699e-05
8.06207e-05
7.61283e-05
9.80472e-05
9.95409e-05
7.74289e-05
7.63752e-05
8.11695e-05
8.1851e-05
7.7418e-05
7.59059e-05
8.24157e-05
9.88601e-05
0.000102457
7.64029e-05
8.17983e-05
8.26375e-05
0.00010248
0.000102799
0.000106332
8.26289e-05
7.77229e-05
8.71326e-05
9.05202e-05
0.000101189
0.00010976
8.28921e-05
8.26747e-05
8.72596e-05
8.71141e-05
8.28764e-05
9.01456e-05
8.47079e-05
0.000103278
0.000106949
8.34085e-05
8.77548e-05
8.46541e-05
0.000104917
0.000107119
0.000110964
8.83133e-05
9.38364e-05
9.47594e-05
9.77486e-05
0.000110742
0.00011181
8.85118e-05
8.9756e-05
9.43402e-05
9.60806e-05
8.6963e-05
9.77855e-05
9.55227e-05
0.000108087
0.000110884
8.66143e-05
9.56864e-05
9.51814e-05
0.000111864
0.000111954
0.000113858
9.70245e-05
9.81355e-05
9.99751e-05
9.76246e-05
0.000111904
0.000112578
9.64568e-05
9.70789e-05
9.97381e-05
9.6785e-05
9.78183e-05
9.81123e-05
0.000100463
0.000111146
0.000111101
9.7776e-05
9.56211e-05
0.00010066
0.000114077
0.000114055
0.000115816
9.97133e-05
9.69298e-05
0.000101772
0.000104088
0.000112827
0.000117439
0.000100032
9.61753e-05
0.000102316
0.000103541
0.000100065
0.000103313
0.000102298
0.00011145
0.000117967
0.000100319
0.000103145
0.000102578
0.000116031
0.000116932
0.000122373
0.000104193
0.000107275
0.000111794
0.000111735
0.000118829
0.000121074
0.000104148
0.000107134
0.000111507
0.000113984
0.000104584
0.000110339
0.000109306
0.000119609
0.000123578
0.000104353
0.000114427
0.00010847
0.000120559
0.000122983
0.000124059
0.000113008
0.000111971
0.000113964
0.000110683
0.000121229
0.000122908
0.000113182
0.000114864
0.000114335
0.000114099
0.000110628
0.000113219
0.000118091
0.000123913
0.000124239
0.000109723
0.000115987
0.000117712
0.000127976
0.000124572
0.000129551
0.000115044
0.000111126
0.000121528
0.000122749
0.000124002
0.00013123
0.000115222
0.000114101
0.000121664
0.000119766
0.000120683
0.000123696
0.000123607
0.000124404
0.000128316
0.000120602
0.00011934
0.000124195
0.000130158
0.000130476
0.000131754
0.000123707
0.000125974
0.000126154
0.000129252
0.000132236
0.000132894
0.000123058
0.00012194
0.000125163
0.000126484
0.000123406
0.000126765
0.000122122
0.000129377
0.000131802
0.000124188
0.000125987
0.000122136
0.000126439
0.000131914
0.000133511
0.000126143
0.000129133
0.000128253
0.000127495
0.000132674
0.000129481
0.000126128
0.000127021
0.000129051
0.000126275
0.000121075
0.000124632
0.000120682
0.000131942
0.000131194
0.000121267
0.000125459
0.000117728
0.000131035
0.000133988
0.000136217
0.000128766
0.000125716
0.000130784
0.000132795
0.000128771
0.000142352
0.000129214
0.000125533
0.000129449
0.000132636
0.000126852
0.000136213
0.000142203
0.000131224
0.000139863
0.000124718
0.000134645
0.00014614
0.000147555
0.000137327
0.000144634
0.000133268
0.000138483
0.000142929
0.000144624
0.000144541
0.000146257
0.000131606
0.000136768
0.000142413
0.00014488
0.000145175
0.000146763
0.000147589
0.000142108
0.000146329
0.000149089
0.00014583
0.000152047
0.000148512
0.00014528
0.000145194
0.000144461
0.000144853
0.00014543
0.000140564
0.000145056
0.000138054
0.000144907
0.000145448
0.000146941
0.00014425
0.000147784
0.00013926
0.000137924
0.000146253
0.000142105
0.00015145
0.000142676
0.000135557
0.00013575
0.000145045
0.000143249
0.000144796
0.000139709
0.000143089
0.000137667
0.000137363
0.000143464
0.000146496
0.000143121
0.000145059
0.000140734
0.000136814
0.000137083
0.000132088
0.000141879
0.000140676
0.000133665
0.000138609
0.000128315
0.000135885
0.000143211
0.000151103
0.000141546
0.000142899
0.000150103
0.000158281
0.000146903
0.000158578
0.000143847
0.000139525
0.000147587
0.000150634
0.000136424
0.000161128
0.000158861
0.000141257
0.000152751
0.000129893
0.000150252
0.000156397
0.000158394
0.000153146
0.000156513
0.000154764
0.000161116
0.00016067
0.000163595
0.00015926
0.00015827
0.000152519
0.000155268
0.000160166
0.000161679
0.000162265
0.000165637
0.000166025
0.000154751
0.000158191
0.000162334
0.000163667
0.000168567
0.000161127
0.000156396
0.000153123
0.000161183
0.000162878
0.000158546
0.00015398
0.000156787
0.00014711
0.00016065
0.000162076
0.000158977
0.000159268
0.000165521
0.000151892
0.000156864
0.000158072
0.000153706
0.00016936
0.000161855
0.000161873
0.000152381
0.000152894
0.000152863
0.000157745
0.000152993
0.000155303
0.000149607
0.000146673
0.000148935
0.000158158
0.000157867
0.000156105
0.000155505
0.000155778
0.000146796
0.000152131
0.000153366
0.000151911
0.000159737
0.000157195
0.000156663
0.000152434
0.000153785
0.000163645
0.000154974
0.000152789
0.00016786
0.000170809
0.000151946
0.000167025
0.000155577
0.000154367
0.000167021
0.000165937
0.000154058
0.000171511
0.000169352
0.000152407
0.00016242
0.000156083
0.000164686
0.000166849
0.000164109
0.000164866
0.000166333
0.000171271
0.000174488
0.000174984
0.000178155
0.000168408
0.000169645
0.000170569
0.000169937
0.000174774
0.00017486
0.000172321
0.000179968
0.000174914
0.000164078
0.00016636
0.00016995
0.000174355
0.000173145
0.000164725
0.000166053
0.000163331
0.000175228
0.000178314
0.0001729
0.000174447
0.000169202
0.000164601
0.000175066
0.000175168
0.000172987
0.0001737
0.000174752
0.000175536
0.000173056
0.000166102
0.000163878
0.000173109
0.000173747
0.000171962
0.00016242
0.000162958
0.000164676
0.00017252
0.000173891
0.000170604
0.000171759
0.000164284
0.000165069
0.000172626
0.000173404
0.000170677
0.000172197
0.000172298
0.000172224
0.000174054
0.000163536
0.000166682
0.000170956
0.000172908
0.000176241
0.000169341
0.000166235
0.000173675
0.000173154
0.000173732
0.000183236
0.000181594
0.000166258
0.000171989
0.000172965
0.000175383
0.000183267
0.000183097
0.000178247
0.000181343
0.000184583
0.000168526
0.000173694
0.000180352
0.000183475
0.000185577
0.000175939
0.000173983
0.000172404
0.00018452
0.00018261
0.000185408
0.000183451
0.000172066
0.000171278
0.000184615
0.00018377
0.000185626
0.00018307
0.000185574
0.000183709
0.000182199
0.000173672
0.000169781
0.000186594
0.00018249
0.000181812
0.000168688
0.000172011
0.000170475
0.000184429
0.000183421
0.000182818
0.000182589
0.000170909
0.000172915
0.000184538
0.000182258
0.000182813
0.000179571
0.000181478
0.000182827
0.000178272
0.000169396
0.000168889
0.000181041
0.000178626
0.000178044
0.000169364
0.000170683
0.000178702
0.000181783
0.000184517
0.000189383
0.000191462
0.000174246
0.000179621
0.000181663
0.000179897
0.000189915
0.000193421
0.000180907
0.000191755
0.000193579
0.000170544
0.000182165
0.000181975
0.000193735
0.000193662
0.000182041
0.000179637
0.000180765
0.000191989
0.000192199
0.000195039
0.000193077
0.000179672
0.00017732
0.000192434
0.000195247
0.000195449
0.00019828
0.000194948
0.000193166
0.000197595
0.000182672
0.00018125
0.000194752
0.000197446
0.000195968
0.000180364
0.000180307
0.000177339
0.000195465
0.000191542
0.000192973
0.000189527
0.000176518
0.000173377
0.000195712
0.000196161
0.000192861
0.000190874
0.000195488
0.000189388
0.000190023
0.000179841
0.000174982
0.000193187
0.000190897
0.00018971
0.000174012
0.000176882
0.000180127
0.00019266
0.000188293
0.00019197
0.000196931
0.000173096
0.000185556
0.000192534
0.000190262
0.00019151
0.000189923
0.000189446
0.000196493
0.000189257
0.00017434
0.000179552
0.000188903
0.000191543
0.000192229
0.000180119
0.000182002
0.000188292
0.000196132
0.000202512
0.000204371
0.000209496
0.000187963
0.000194671
0.000195391
0.00019487
0.00020397
0.000204995
0.000195545
0.000209578
0.000207103
0.000181734
0.000189403
0.000198107
0.000205579
0.00020805
0.000191876
0.000188372
0.000187846
0.000205272
0.000211204
0.000207546
0.000206378
0.000194293
0.0001852
0.00020498
0.000206151
0.000207317
0.00020866
0.000208211
0.000206899
0.000210711
0.000189629
0.000189212
0.000209093
0.000209212
0.000211402
0.000189496
0.000187037
0.000183073
0.000205884
0.000201175
0.000200289
0.000193486
0.000182575
0.000175272
0.00020663
0.000207679
0.000201515
0.00020152
0.000206999
0.000193543
0.000198598
0.000188122
0.000182773
0.000207201
0.000200465
0.000197666
0.000180085
0.000182769
0.000182463
0.000199636
0.000192687
0.000197693
0.000193803
0.000174337
0.000182163
0.000200739
0.000200614
0.000199153
0.000199165
0.000197885
0.000193437
0.000195628
0.000182415
0.000182201
0.000196766
0.000197442
0.000194166
0.000181219
0.000183067
0.000192176
0.000198648
0.000200698
0.000210213
0.000217287
0.000185084
0.000199208
0.000198903
0.000198946
0.000208571
0.000207122
0.000199098
0.000217683
0.000212574
0.000182639
0.000190511
0.000196922
0.000207631
0.000211344
0.000194292
0.000193402
0.0001968
0.000213366
0.000219992
0.000217629
0.000223978
0.000200094
0.000201644
0.000211735
0.000210236
0.000216368
0.000215973
0.000215132
0.000224416
0.000218635
0.00019189
0.000196229
0.000214406
0.000216929
0.000218246
0.000197086
0.00019661
0.000193106
0.000218581
0.000224454
0.000215798
0.000214024
0.000200245
0.000190659
0.000217198
0.000216758
0.000216182
0.000217544
0.000219172
0.000213241
0.000213327
0.000196252
0.000194765
0.000218988
0.000217652
0.000214727
0.000191696
0.000192374
0.000190644
0.000213778
0.000210931
0.000210771
0.000207137
0.000189361
0.000186524
0.000214686
0.000216332
0.000212106
0.000213892
0.000211975
0.000207132
0.00021062
0.000194236
0.00019269
0.00021347
0.000213932
0.000212214
0.000190882
0.000190393
0.000192092
0.000210524
0.000206532
0.000211397
0.000210334
0.000186196
0.000192133
0.000211902
0.000213495
0.000212015
0.000212856
0.000210306
0.000211416
0.000213931
0.000192536
0.000192104
0.000212034
0.000213265
0.000213973
0.000193492
0.00019256
0.000195194
0.000213021
0.000213706
0.000217393
0.000219557
0.000193459
0.000197965
0.00021294
0.000212748
0.000215652
0.000212604
0.000214983
0.000219651
0.000217346
0.000191909
0.000191516
0.000214383
0.000212781
0.00021536
0.00019473
0.000195577
0.000197422
0.000218499
0.000220515
0.000220454
0.000220971
0.00019805
0.000196904
0.000216804
0.00021315
0.000219912
0.000219141
0.000218151
0.00022073
0.000219675
0.000191854
0.000197293
0.000216139
0.00021893
0.000219372
0.000196959
0.000197401
0.00019736
0.000220753
0.00022004
0.000220426
0.000218877
0.000196391
0.000194931
0.000220474
0.000220561
0.000221224
0.000222482
0.000219965
0.000218623
0.000219777
0.000197783
0.000199139
0.000220007
0.000222487
0.000220822
0.000196955
0.000197167
0.000197736
0.000220294
0.000218439
0.00022039
0.000221593
0.000194726
0.000199217
0.000221214
0.000222771
0.000221303
0.000222514
0.000219646
0.000221419
0.000219591
0.000198989
0.000198495
0.000220769
0.000222442
0.000220651
0.000197199
0.000198047
0.000199636
0.000221627
0.000223319
0.000223684
0.000225664
0.000199854
0.000202164
0.00022179
0.000222351
0.000223076
0.000222391
0.000221206
0.00022583
0.000224266
0.000198329
0.000198584
0.000221154
0.000222466
0.000223564
0.000200226
0.00019953
0.000198894
0.000224163
0.000226412
0.000224155
0.000224041
0.000201861
0.000198435
0.000223401
0.000222587
0.000223568
0.000223162
0.000224817
0.000224448
0.000225225
0.000198519
0.000198783
0.000223992
0.000223491
0.000224649
0.000199426
0.00019866
0.000198498
0.000223545
0.000222757
0.000222724
0.000221234
0.000197776
0.000196547
0.000223388
0.000223126
0.000223268
0.000223229
0.000224128
0.000221318
0.000222522
0.000198606
0.000198786
0.000223965
0.00022326
0.000222982
0.00019796
0.000198483
0.000200281
0.000222714
0.00022105
0.000224686
0.000224071
0.000196496
0.000200153
0.00022337
0.000223758
0.000225158
0.000225583
0.000222432
0.000223814
0.000224328
0.000199
0.000200861
0.000222925
0.000225514
0.000224908
0.000200267
0.000200392
0.000201394
0.000225587
0.000225615
0.000227039
0.00022774
0.000200659
0.000202647
0.000225566
0.000225969
0.000226708
0.000226156
0.000225209
0.000227449
0.000226759
0.000200821
0.000200246
0.000225471
0.000226441
0.000226856
0.00020111
0.000201186
0.000200034
0.000227475
0.000228464
0.000226195
0.000226429
0.000202458
0.000199921
0.000226809
0.000225717
0.000225878
0.000225362
0.000226995
0.000226487
0.000225875
0.000199941
0.00019971
0.000226687
0.000225449
0.000225616
0.000199862
0.000199843
0.000200045
0.000225689
0.000225477
0.000225314
0.000224534
0.000199495
0.000198988
0.000225718
0.000225476
0.000225946
0.000226762
0.000225713
0.000224902
0.00022606
0.000199791
0.000201301
0.000225583
0.000226745
0.000226366
0.000200789
0.000200039
0.000200964
0.000225399
0.000224539
0.00022677
0.000227085
0.000199149
0.000201599
0.00022615
0.000227032
0.000226929
0.000227442
0.000226556
0.000227275
0.000227759
0.000201257
0.000200973
0.000226755
0.000227657
0.000227964
0.000201764
0.000200878
0.000201356
0.000227119
0.000227645
0.00022815
0.000229287
0.000201659
0.00020242
0.000227075
0.000227041
0.000227442
0.00022625
0.000227969
0.000229306
0.000226879
0.000200656
0.000199995
0.000227927
0.000226153
0.000226355
0.000199965
0.000201216
0.000200519
0.000228238
0.000229168
0.000227336
0.00022623
0.000201975
0.000199266
0.000227475
0.000226235
0.000227308
0.000226596
0.00022649
0.000225983
0.000226086
0.000199843
0.000200337
0.000226117
0.00022652
0.000226208
0.000199879
0.000200011
0.000200971
0.000226253
0.000225357
0.000228292
0.000227229
0.000198796
0.000199978
0.000226526
0.0002265
0.000228842
0.00022982
0.000226022
0.000227471
0.000229553
0.000200217
0.000202232
0.000226294
0.000230111
0.000230186
0.000202438
0.000203375
0.000227061
0.000226166
0.000202421
0.000227533
0.000228696
0.00024945
0.000252434
0.000252221
0.000228598
0.0002047
0.000229175
8.9966e-06
2.01953e-06
3.3419e-06
3.97505e-06
5.34746e-07
2.03293e-06
5.99784e-07
1.51036e-06
5.90055e-07
2.67131e-06
1.28704e-06
1.49749e-06
2.29742e-06
1.46872e-06
1.72445e-06
1.05979e-06
1.383e-05
9.61955e-07
1.55965e-05
1.05835e-05
1.28247e-05
1.32669e-06
1.34933e-05
1.27346e-06
1.52557e-05
2.26834e-06
2.40821e-06
2.41954e-06
2.38028e-06
2.2636e-06
2.39797e-06
2.40316e-06
5.29343e-07
3.34339e-07
1.16433e-06
1.73381e-06
5.19497e-07
4.45013e-07
1.16029e-06
1.10636e-05
1.322e-05
5.78559e-07
1.57711e-06
6.98767e-07
2.48549e-06
5.74157e-07
1.58851e-06
8.54268e-07
1.50107e-06
1.50232e-06
2.27668e-06
1.71355e-06
1.7035e-06
1.31116e-06
1.87941e-05
1.20261e-06
2.13004e-05
1.68794e-05
1.90355e-05
1.51303e-06
1.84865e-05
1.45176e-06
2.10377e-05
2.26391e-06
2.40794e-06
2.4023e-06
2.39945e-06