/*--------------------------------*- C++ -*----------------------------------*\
| =========                 |                                                 |
| \\      /  F ield         | OpenFOAM: The Open Source CFD Toolbox           |
|  \\    /   O peration     | Version:  v2006                                 |
|   \\  /    A nd           | Website:  www.openfoam.com                      |
|    \\/     M anipulation  |                                                 |
\*---------------------------------------------------------------------------*/
FoamFile
{
    version     2.0;
    format      ascii;
    class       volScalarField;
    location    "750";
    object      epsilon;
}
// * * * * * * * * * * * * * * * * * * * * * * * * * * * * * * * * * * * * * //

dimensions      [0 2 -3 0 0 0 0];


internalField   nonuniform List<scalar> 
14231
(
2.30718e-07
2.71825e-07
2.3066e-07
1.9603e-07
8.75734e-06
2.27827e-06
1.84789e-06
2.07299e-07
5.75182e-07
1.89663e-05
4.20563e-06
4.20398e-06
1.89651e-05
1.84749e-06
8.75805e-06
2.07297e-07
5.75191e-07
2.27834e-06
2.26168e-05
8.75388e-06
6.38667e-06
6.35235e-06
2.26266e-05
1.25654e-05
2.2679e-06
1.14657e-05
3.0259e-06
1.14922e-05
3.00136e-06
1.25481e-05
1.89764e-05
2.60241e-06
9.97979e-07
4.18476e-06
8.67964e-06
9.91403e-07
8.6792e-06
2.62101e-06
2.59749e-06
9.9729e-07
4.18374e-06
8.67627e-06
8.6758e-06
9.90588e-07
2.61921e-06
8.84716e-06
2.20894e-05
2.20897e-05
2.2077e-05
2.20773e-05
8.89428e-06
1.8975e-05
8.75451e-06
1.2565e-05
2.26799e-06
3.02553e-06
1.14662e-05
3.00166e-06
1.14926e-05
1.25476e-05
8.12268e-07
2.73279e-07
4.01297e-07
4.01238e-07
4.00772e-07
4.00704e-07
8.17908e-07
1.89277e-07
3.93178e-07
5.4016e-07
1.84016e-06
1.16491e-06
1.15792e-06
5.3895e-07
3.93035e-07
3.17285e-07
5.73928e-07
7.09197e-07
2.91141e-07
7.05752e-07
2.9272e-07
3.16406e-07
5.39974e-07
1.83967e-06
5.3876e-07
3.17278e-07
5.7394e-07
2.91147e-07
7.0915e-07
3.16397e-07
2.92724e-07
7.05735e-07
2.71823e-07
2.307e-07
2.30674e-07
2.71862e-07
2.28439e-07
2.28414e-07
1.96029e-07
8.75882e-06
8.75996e-06
2.29926e-06
1.89641e-05
1.89665e-05
4.20445e-06
4.20603e-06
8.75737e-06
2.27823e-06
1.84743e-06
2.07297e-07
5.75169e-07
8.75853e-06
1.84785e-06
1.89405e-05
1.89429e-05
4.22938e-06
4.23084e-06
1.86568e-06
1.86609e-06
2.04496e-07
5.78775e-07
8.76248e-06
2.26332e-05
6.41835e-06
8.76362e-06
2.2624e-05
6.45106e-06
1.24969e-05
2.31064e-06
3.05621e-06
1.14219e-05
1.25129e-05
3.08151e-06
1.1397e-05
1.8974e-05
1.89764e-05
2.59846e-06
9.9729e-07
4.18311e-06
8.67598e-06
8.67549e-06
9.90639e-07
2.61816e-06
2.60272e-06
9.9794e-07
4.18478e-06
8.67984e-06
8.67935e-06
9.91337e-07
2.62201e-06
8.84812e-06
2.20902e-05
2.20896e-05
2.20771e-05
2.20766e-05
8.89554e-06
2.26149e-05
8.75382e-06
6.38824e-06
2.26246e-05
6.35353e-06
1.25649e-05
2.26787e-06
1.1466e-05
3.02573e-06
1.25476e-05
1.14923e-05
3.00134e-06
8.75499e-06
1.89316e-05
1.8934e-05
2.67148e-06
1.01157e-06
8.67631e-06
4.25012e-06
2.65334e-06
8.67739e-06
1.01835e-06
2.67581e-06
1.01226e-06
8.68018e-06
4.25181e-06
2.65775e-06
8.68129e-06
1.01904e-06
8.96896e-06
2.20895e-05
2.2089e-05
8.92789e-06
2.20959e-05
2.20953e-05
8.12257e-07
2.73276e-07
4.01234e-07
4.01287e-07
4.00708e-07
4.00758e-07
8.17904e-07
8.36635e-07
4.03703e-07
4.03754e-07
2.70543e-07
8.30842e-07
4.04351e-07
4.04408e-07
1.89277e-07
1.858e-07
1.89276e-07
1.858e-07
3.9315e-07
5.3999e-07
1.83961e-06
1.16493e-06
5.38783e-07
1.15799e-06
3.93003e-07
3.1727e-07
5.73917e-07
7.09145e-07
2.9114e-07
7.05712e-07
2.92718e-07
3.16391e-07
5.40107e-07
1.84005e-06
5.38908e-07
3.93016e-07
5.4418e-07
1.87365e-06
5.4553e-07
3.94982e-07
5.44304e-07
1.18134e-06
1.87406e-06
1.18843e-06
3.9508e-07
5.45651e-07
3.15998e-07
5.80231e-07
7.17526e-07
2.90891e-07
7.21185e-07
3.16715e-07
2.89441e-07
2.05089e-07
2.38209e-07
2.38208e-07
2.787e-07
2.78944e-07
2.40978e-07
2.40991e-07
2.78944e-07
2.40955e-07
2.40988e-07
2.40947e-07
2.40985e-07
2.78952e-07
2.40953e-07
2.40957e-07
2.78964e-07
2.78682e-07
2.38224e-07
2.38223e-07
2.78686e-07
2.38201e-07
2.3823e-07
2.38227e-07
2.78689e-07
2.38207e-07
2.08275e-07
2.08276e-07
2.08278e-07
2.08278e-07
2.21879e-06
8.74087e-06
2.18274e-06
8.74786e-06
1.90967e-05
1.90409e-05
2.21888e-06
8.74192e-06
2.18285e-06
8.74895e-06
2.05091e-07
2.05093e-07
2.05093e-07
5.66961e-07
1.76533e-06
2.16238e-07
2.35557e-07
5.63095e-07
1.79688e-06
2.13166e-07
1.90978e-05
1.90414e-05
5.66965e-07
2.16241e-07
1.76543e-06
2.35566e-07
5.63117e-07
2.13166e-07
1.79685e-06
4.0384e-06
4.04005e-06
2.75014e-07
4.10955e-06
4.11076e-06
1.91277e-05
1.91298e-05
4.01009e-06
4.01186e-06
8.73985e-06
2.16567e-06
8.73994e-06
8.73475e-06
2.16571e-06
1.74882e-06
2.19399e-07
5.6112e-07
2.43856e-07
1.74926e-06
2.19402e-07
1.71967e-06
5.61128e-07
1.91299e-05
1.91974e-05
2.8322e-07
4.01219e-06
4.01006e-06
3.93894e-06
3.93822e-06
1.91285e-05
1.9196e-05
8.74095e-06
2.16577e-06
1.7492e-06
2.19399e-07
5.61142e-07
8.74063e-06
2.16571e-06
2.19404e-07
1.74925e-06
5.61154e-07
5.5882e-07
2.43837e-07
1.74888e-06
2.19397e-07
1.71927e-06
2.22653e-07
5.61133e-07
2.13408e-06
8.74051e-06
8.7353e-06
2.16573e-06
5.58823e-07
2.194e-07
1.74896e-06
2.22654e-07
5.61138e-07
2.13409e-06
8.74026e-06
2.16574e-06
1.91308e-05
4.0121e-06
4.01093e-06
1.9129e-05
2.19398e-07
1.74885e-06
5.61138e-07
2.19399e-07
1.74925e-06
5.61148e-07
8.74076e-06
2.16575e-06
8.74066e-06
2.16578e-06
4.01096e-06
4.01214e-06
1.91295e-05
1.91307e-05
1.90947e-05
1.90386e-05
1.90967e-05
1.90408e-05
4.03842e-06
4.0396e-06
2.74995e-07
4.10907e-06
4.11069e-06
1.90108e-05
1.90129e-05
2.74889e-07
4.13566e-06
4.13702e-06
2.21882e-06
8.74089e-06
2.18278e-06
8.74791e-06
5.66945e-07
1.76536e-06
2.16238e-07
2.35593e-07
5.631e-07
1.79682e-06
2.13167e-07
5.66955e-07
1.76574e-06
2.1624e-07
2.35608e-07
5.63109e-07
1.79728e-06
2.1317e-07
2.23792e-06
8.74917e-06
2.23796e-06
8.74917e-06
5.69711e-07
2.33085e-07
1.81431e-06
2.10189e-07
5.69724e-07
2.33082e-07
1.8147e-06
2.1019e-07
4.03936e-06
4.03857e-06
2.74997e-07
4.1108e-06
4.10884e-06
1.90953e-05
1.90394e-05
1.90128e-05
2.74892e-07
4.13695e-06
4.13604e-06
1.90115e-05
5.66958e-07
1.76566e-06
2.16239e-07
2.35568e-07
5.63118e-07
1.79722e-06
2.13167e-07
2.21882e-06
8.7416e-06
2.18292e-06
8.74854e-06
5.66971e-07
2.16241e-07
1.76588e-06
2.35603e-07
5.63114e-07
2.13172e-07
1.79724e-06
2.23802e-06
8.75026e-06
5.69732e-07
2.33061e-07
1.81465e-06
2.10189e-07
2.23808e-06
8.74986e-06
5.69727e-07
2.33088e-07
2.10189e-07
1.81477e-06
2.21885e-06
8.74148e-06
2.18279e-06
8.74853e-06
5.66967e-07
2.1624e-07
1.7655e-06
2.356e-07
5.63099e-07
2.13168e-07
1.79696e-06
2.21885e-06
8.74122e-06
2.1828e-06
8.74823e-06
5.69709e-07
2.33071e-07
1.81428e-06
2.10188e-07
2.23797e-06
8.74979e-06
5.69713e-07
2.33087e-07
2.10189e-07
1.8144e-06
2.23798e-06
8.7495e-06
4.04038e-06
4.03868e-06
2.75004e-07
4.11057e-06
4.10947e-06
1.9096e-05
1.90399e-05
1.90137e-05
2.74898e-07
4.13791e-06
4.13619e-06
1.90121e-05
5.66976e-07
2.1624e-07
1.7658e-06
2.3557e-07
5.63127e-07
2.13168e-07
1.79727e-06
2.21888e-06
8.74174e-06
2.18284e-06
8.74877e-06
2.21891e-06
8.74163e-06
2.18287e-06
8.74864e-06
5.69729e-07
2.3307e-07
2.10192e-07
1.81432e-06
5.6974e-07
2.33068e-07
2.10189e-07
1.81471e-06
2.23801e-06
8.75004e-06
2.23804e-06
8.7499e-06
1.90964e-05
1.90404e-05
1.90976e-05
1.90416e-05
2.74906e-07
4.13589e-06
4.13757e-06
1.90125e-05
1.90138e-05
1.26817e-05
2.20953e-06
1.16139e-05
2.91659e-06
1.16432e-05
2.89328e-06
1.26615e-05
2.25979e-05
6.13438e-06
8.74362e-06
2.25884e-05
6.17551e-06
1.27248e-05
2.19142e-06
1.17233e-05
2.84054e-06
1.27464e-05
1.16926e-05
2.86317e-06
2.25969e-05
6.25074e-06
8.7448e-06
6.21174e-06
2.26067e-05
1.90834e-05
1.90529e-05
1.26819e-05
2.20963e-06
2.91681e-06
1.16142e-05
2.89327e-06
1.16436e-05
1.26617e-05
2.25983e-05
6.13454e-06
8.74472e-06
2.25888e-05
6.17577e-06
1.2725e-05
2.19153e-06
2.8406e-06
1.17237e-05
1.27466e-05
2.86335e-06
1.16928e-05
2.25972e-05
6.25107e-06
8.74585e-06
6.21186e-06
2.26071e-05
1.90839e-05
1.90536e-05
8.64447e-06
2.2064e-05
2.20635e-05
2.20518e-05
2.20514e-05
8.70668e-06
2.44844e-06
9.32949e-07
8.68523e-06
4.06056e-06
2.43071e-06
9.3866e-07
8.68351e-06
2.45207e-06
9.33491e-07
8.68886e-06
4.06169e-06
2.43415e-06
9.39231e-07
8.68711e-06
8.59568e-06
2.20421e-05
2.20418e-05
8.53477e-06
2.20506e-05
2.20501e-05
2.48545e-06
8.67889e-06
4.08744e-06
9.57371e-07
9.51336e-07
8.67989e-06
2.50417e-06
2.48878e-06
8.68244e-06
4.08911e-06
9.57968e-07
9.51896e-07
8.68346e-06
2.50902e-06
1.91428e-05
1.91448e-05
2.37559e-06
9.20752e-07
3.98882e-06
8.69015e-06
8.69281e-06
9.15297e-07
2.39285e-06
2.37909e-06
9.21273e-07
3.98989e-06
8.69394e-06
8.69655e-06
9.15854e-07
2.39627e-06
8.41403e-06
2.20375e-05
2.20372e-05
2.20309e-05
2.20306e-05
8.4743e-06
2.25811e-05
8.73747e-06
6.09585e-06
2.259e-05
6.05285e-06
1.28155e-05
2.15758e-06
1.17742e-05
2.81077e-06
1.27922e-05
1.18063e-05
2.78899e-06
2.25835e-05
8.7375e-06
6.09463e-06
6.05179e-06
2.25924e-05
2.2586e-05
5.96593e-06
8.73674e-06
2.25782e-05
6.01056e-06
1.28161e-05
2.1576e-06
1.17739e-05
2.81101e-06
1.18062e-05
2.78907e-06
1.27927e-05
1.91448e-05
1.9181e-05
8.36392e-06
2.20222e-05
2.20222e-05
8.29116e-06
2.20316e-05
2.20317e-05
2.37923e-06
9.21331e-07
3.98948e-06
8.69381e-06
9.15868e-07
8.69632e-06
2.39671e-06
2.37526e-06
9.20736e-07
3.98887e-06
8.69033e-06
8.69316e-06
9.15294e-07
2.39267e-06
2.34279e-06
8.70584e-06
8.99154e-07
3.96197e-06
9.04355e-07
2.32483e-06
8.7027e-06
2.34093e-06
8.7026e-06
8.98563e-07
3.96003e-06
2.32155e-06
8.6995e-06
9.03808e-07
8.41374e-06
2.20374e-05
2.20375e-05
2.20308e-05
2.2031e-05
8.47454e-06
1.91435e-05
1.91795e-05
2.25815e-05
8.73851e-06
6.09618e-06
2.25903e-05
6.05298e-06
1.28158e-05
2.15767e-06
2.81095e-06
1.17744e-05
1.27924e-05
2.78902e-06
1.18066e-05
2.25831e-05
8.73821e-06
6.0945e-06
6.05151e-06
2.2592e-05
1.28162e-05
2.15774e-06
1.17746e-05
2.81053e-06
1.18064e-05
2.78958e-06
1.2793e-05
1.28641e-05
2.73907e-06
1.18924e-05
2.14161e-06
1.28892e-05
2.75916e-06
1.18588e-05
2.25811e-05
8.73808e-06
6.09505e-06
6.0535e-06
2.25902e-05
2.25837e-05
5.96765e-06
8.73731e-06
2.25757e-05
6.01106e-06
1.28156e-05
2.15763e-06
2.81037e-06
1.17744e-05
2.78942e-06
1.18067e-05
1.27923e-05
1.28644e-05
1.18921e-05
2.73875e-06
2.14162e-06
1.28898e-05
1.18585e-05
2.7597e-06
2.25833e-05
8.73783e-06
6.09453e-06
6.05139e-06
2.25921e-05
2.25858e-05
8.73706e-06
6.01045e-06
1.28161e-05
2.15762e-06
1.1774e-05
2.81093e-06
1.18064e-05
2.78901e-06
1.27926e-05
1.91456e-05
2.37806e-06
9.21371e-07
3.99013e-06
8.69369e-06
9.15823e-07
8.69604e-06
2.39821e-06
2.37462e-06
9.20752e-07
3.98857e-06
8.69002e-06
8.69241e-06
9.15249e-07
2.39459e-06
8.41687e-06
2.20416e-05
2.20418e-05
2.20295e-05
2.20297e-05
8.48804e-06
1.91439e-05
2.2581e-05
8.73833e-06
6.0951e-06
6.05347e-06
2.25902e-05
1.28155e-05
2.15765e-06
2.81035e-06
1.17744e-05
2.78939e-06
1.18066e-05
1.27923e-05
2.25833e-05
8.73824e-06
6.09465e-06
6.05152e-06
2.25921e-05
1.28163e-05
2.15768e-06
2.81104e-06
1.17743e-05
2.78909e-06
1.18067e-05
1.27928e-05
8.35495e-06
2.20296e-05
2.20289e-05
2.37547e-06
9.20822e-07
3.98846e-06
8.69018e-06
2.39367e-06
9.15356e-07
8.69267e-06
2.37872e-06
9.21353e-07
3.99011e-06
8.69371e-06
2.39773e-06
9.15845e-07
8.69612e-06
2.33869e-06
3.96036e-06
9.03815e-07
8.69935e-06
8.41602e-06
2.20417e-05
2.20411e-05
8.48667e-06
2.20306e-05
2.203e-05
1.91444e-05
1.91805e-05
1.91456e-05
1.90811e-05
1.90509e-05
1.90833e-05
1.9053e-05
8.65155e-06
2.20634e-05
2.20629e-05
2.20549e-05
2.20545e-05
8.70045e-06
2.44962e-06
9.32749e-07
8.68479e-06
4.06014e-06
2.42868e-06
8.68315e-06
9.38586e-07
2.45302e-06
9.3334e-07
8.68862e-06
4.06195e-06
2.43239e-06
8.68694e-06
9.3915e-07
8.60208e-06
2.2039e-05
2.20387e-05
8.5333e-06
2.20524e-05
2.2052e-05
2.48688e-06
8.67891e-06
4.08785e-06
9.57379e-07
8.67982e-06
2.50474e-06
9.51352e-07
2.49068e-06
8.68268e-06
4.08909e-06
9.57959e-07
8.68362e-06
2.50844e-06
9.51949e-07
1.89997e-05
2.2063e-05
2.20625e-05
8.74253e-06
2.55988e-06
8.67662e-06
9.7051e-07
4.15716e-06
2.53992e-06
8.67616e-06
9.76829e-07
8.68043e-06
9.71133e-07
2.54396e-06
1.26822e-05
2.20956e-06
1.16137e-05
2.9168e-06
1.16432e-05
2.89332e-06
1.26621e-05
2.26002e-05
6.13331e-06
8.74369e-06
2.25907e-05
6.17411e-06
1.27253e-05
2.19146e-06
1.17232e-05
2.84064e-06
1.16923e-05
1.27469e-05
2.86336e-06
2.2599e-05
6.2494e-06
8.7448e-06
6.21055e-06
2.26089e-05
1.26025e-05
1.15662e-05
2.9469e-06
2.24773e-06
1.26212e-05
1.15384e-05
2.97079e-06
2.26158e-05
6.2847e-06
8.75249e-06
2.26059e-05
6.32159e-06
1.2603e-05
1.15661e-05
2.94699e-06
2.24777e-06
1.26217e-05
1.15381e-05
2.97102e-06
2.26179e-05
6.28362e-06
8.75251e-06
2.26079e-05
6.3201e-06
8.6516e-06
2.20637e-05
2.20639e-05
2.2055e-05
2.20553e-05
8.70191e-06
2.45212e-06
9.33429e-07
8.68852e-06
4.06214e-06
8.68683e-06
2.43337e-06
9.39227e-07
2.45027e-06
9.32743e-07
8.68509e-06
4.06002e-06
9.38579e-07
2.42869e-06
8.68345e-06
8.60268e-06
2.20389e-05
2.20391e-05
2.20525e-05
8.53311e-06
2.20527e-05
2.49053e-06
8.68252e-06
4.08874e-06
9.58007e-07
8.68341e-06
9.5197e-07
2.50856e-06
2.48641e-06
8.67924e-06
4.08807e-06
9.57378e-07
9.51315e-07
8.68017e-06
2.50507e-06
1.90819e-05
1.90516e-05
1.9002e-05
8.80107e-06
2.20633e-05
2.20636e-05
8.74379e-06
2.20734e-05
2.20737e-05
2.56375e-06
8.68031e-06
9.71235e-07
4.15887e-06
9.77534e-07
2.54535e-06
8.67989e-06
2.56129e-06
8.67692e-06
9.7045e-07
4.15674e-06
2.53935e-06
8.67644e-06
9.76794e-07
1.90005e-05
1.26824e-05
2.2097e-06
1.16143e-05
2.91634e-06
1.16434e-05
2.89385e-06
1.26622e-05
2.25998e-05
6.13312e-06
8.74433e-06
2.25903e-05
6.1741e-06
1.27255e-05
2.19147e-06
1.17234e-05
2.8412e-06
1.16929e-05
1.27471e-05
2.86295e-06
2.25986e-05
6.24926e-06
8.7455e-06
6.2103e-06
2.26085e-05
2.9469e-06
1.15666e-05
1.26214e-05
6.28487e-06
2.26063e-05
1.15664e-05
2.94743e-06
1.2622e-05
6.28333e-06
2.26075e-05
1.26817e-05
2.20959e-06
2.91626e-06
1.16142e-05
2.89366e-06
1.16437e-05
1.26615e-05
2.25981e-05
6.13502e-06
8.74428e-06
6.17475e-06
2.25883e-05
1.27248e-05
2.19149e-06
2.84093e-06
1.17237e-05
2.8628e-06
1.27464e-05
1.16928e-05
2.25968e-05
6.24998e-06
8.74541e-06
6.21236e-06
2.26069e-05
1.26822e-05
2.20958e-06
1.16138e-05
2.91673e-06
1.16434e-05
2.89325e-06
1.2662e-05
2.25999e-05
6.13296e-06
8.74401e-06
2.25905e-05
6.17407e-06
1.27252e-05
2.1915e-06
1.17234e-05
2.84062e-06
1.27469e-05
1.16924e-05
2.86334e-06
2.25988e-05
6.24931e-06
8.74514e-06
6.21014e-06
2.26086e-05
1.26025e-05
2.94722e-06
1.15666e-05
2.2478e-06
1.26213e-05
2.97053e-06
1.15386e-05
2.26159e-05
6.28533e-06
8.75314e-06
2.26058e-05
6.32085e-06
1.2603e-05
1.15663e-05
2.9469e-06
2.24782e-06
1.26217e-05
1.15383e-05
2.97104e-06
2.26175e-05
6.2832e-06
8.75284e-06
2.26077e-05
6.3201e-06
8.64251e-06
2.20629e-05
2.20632e-05
2.20502e-05
2.20505e-05
8.70598e-06
2.45217e-06
9.33537e-07
8.68892e-06
4.06144e-06
8.68719e-06
2.43467e-06
9.3927e-07
2.44847e-06
9.3293e-07
8.68525e-06
4.0604e-06
9.3862e-07
2.43104e-06
8.68351e-06
8.59136e-06
2.20425e-05
2.20427e-05
2.20494e-05
8.53764e-06
2.20496e-05
2.48798e-06
8.68234e-06
4.08926e-06
9.57965e-07
8.68337e-06
9.51877e-07
2.50836e-06
2.4842e-06
8.6787e-06
4.08751e-06
9.57275e-07
9.51244e-07
8.67976e-06
2.50444e-06
1.90825e-05
1.9052e-05
2.20663e-05
2.20667e-05
8.7553e-06
8.68032e-06
9.71326e-07
2.54686e-06
2.56132e-06
8.67663e-06
9.70637e-07
4.15757e-06
2.54286e-06
8.67648e-06
9.76954e-07
1.90011e-05
1.26817e-05
2.20963e-06
2.91622e-06
1.16142e-05
2.89366e-06
1.16436e-05
1.26615e-05
2.25982e-05
6.13525e-06
8.74456e-06
6.17479e-06
2.25883e-05
1.27248e-05
2.19153e-06
2.84105e-06
1.17237e-05
2.86286e-06
1.27464e-05
1.16928e-05
2.25968e-05
6.24995e-06
8.74568e-06
6.21235e-06
2.26069e-05
1.26824e-05
2.20965e-06
2.91684e-06
1.16141e-05
2.89336e-06
1.16436e-05
1.26622e-05
2.25999e-05
6.1331e-06
8.74442e-06
2.25905e-05
6.17422e-06
1.27254e-05
2.19155e-06
2.84071e-06
1.17237e-05
1.27471e-05
2.86346e-06
1.16927e-05
2.25988e-05
6.24943e-06
8.74555e-06
6.21029e-06
2.26086e-05
1.26025e-05
2.94728e-06
1.15666e-05
2.24784e-06
1.26213e-05
2.97063e-06
1.15386e-05
2.2616e-05
6.28551e-06
8.75341e-06
2.26058e-05
6.32095e-06
1.26032e-05
2.947e-06
1.15666e-05
2.24787e-06
1.26219e-05
2.97112e-06
1.15386e-05
2.26175e-05
6.28333e-06
8.75325e-06
2.26077e-05
6.32028e-06
1.90829e-05
1.90525e-05
1.90841e-05
1.90537e-05
8.80216e-06
2.2066e-05
2.20656e-05
8.75035e-06
2.20762e-05
2.20757e-05
2.56053e-06
8.67677e-06
9.70675e-07
4.15751e-06
2.54243e-06
9.76953e-07
8.67648e-06
2.56498e-06
8.68035e-06
9.71277e-07
4.15877e-06
2.54582e-06
9.77592e-07
8.68007e-06
1.90015e-05
1.90028e-05
1.98532e-07
1.9853e-07
2.01987e-07
1.95369e-07
1.95367e-07
1.91932e-07
1.95115e-07
7.66881e-07
3.94245e-07
3.94278e-07
2.76895e-07
7.62267e-07
3.94388e-07
3.94427e-07
7.47549e-07
2.80858e-07
3.92901e-07
3.92946e-07
3.92883e-07
3.92925e-07
7.51805e-07
7.47534e-07
2.8086e-07
3.92953e-07
3.92905e-07
3.92936e-07
3.92881e-07
7.51823e-07
7.47429e-07
2.80864e-07
3.92964e-07
3.92911e-07
3.92936e-07
3.92887e-07
7.51875e-07
7.47522e-07
2.80875e-07
3.92931e-07
3.92969e-07
7.51899e-07
3.9291e-07
3.92938e-07
7.66827e-07
3.94218e-07
3.94262e-07
2.76879e-07
7.6207e-07
3.94366e-07
3.94413e-07
7.66864e-07
3.94275e-07
3.94217e-07
2.7688e-07
3.94372e-07
7.62119e-07
3.94422e-07
7.66887e-07
3.94278e-07
3.94226e-07
2.76882e-07
3.94365e-07
7.62309e-07
3.9442e-07
2.01775e-07
2.01773e-07
1.98381e-07
2.01775e-07
2.01773e-07
1.98381e-07
2.01776e-07
2.01774e-07
1.98381e-07
2.01776e-07
2.01774e-07
1.98381e-07
1.98532e-07
1.9853e-07
2.01987e-07
1.9537e-07
1.95367e-07
1.91932e-07
1.95115e-07
1.98533e-07
1.98532e-07
2.01988e-07
1.9537e-07
1.95368e-07
1.91933e-07
1.95116e-07
1.98533e-07
1.98531e-07
2.01989e-07
1.9537e-07
1.95368e-07
1.91933e-07
1.95116e-07
1.98968e-07
1.92285e-07
1.92283e-07
1.88828e-07
1.98969e-07
1.92286e-07
1.92283e-07
1.88828e-07
1.98972e-07
1.92286e-07
1.92285e-07
1.88828e-07
1.98971e-07
1.92286e-07
1.92284e-07
1.88828e-07
3.19128e-07
5.66104e-07
6.87328e-07
2.95157e-07
6.84356e-07
2.96985e-07
3.17921e-07
3.8884e-07
5.25448e-07
1.09065e-06
1.77247e-06
3.89164e-07
5.2621e-07
1.09722e-06
3.19038e-07
5.63752e-07
6.74794e-07
2.99414e-07
3.20408e-07
6.77518e-07
2.97463e-07
3.90196e-07
1.11934e-06
1.78948e-06
5.30328e-07
5.29415e-07
1.11261e-06
3.89935e-07
3.19133e-07
5.66125e-07
2.95162e-07
6.87322e-07
2.9699e-07
6.84376e-07
3.17927e-07
3.88844e-07
5.2547e-07
1.0907e-06
1.77255e-06
3.89172e-07
5.2621e-07
1.09722e-06
3.19043e-07
5.63758e-07
2.9942e-07
6.74814e-07
3.20412e-07
2.97469e-07
6.77519e-07
3.90206e-07
1.11931e-06
1.78951e-06
5.3032e-07
5.29437e-07
1.11265e-06
3.8994e-07
7.77883e-07
2.76709e-07
3.96261e-07
3.96304e-07
3.95991e-07
3.96025e-07
7.829e-07
3.88434e-07
5.22578e-07
1.74202e-06
1.07564e-06
5.21972e-07
1.06926e-06
3.88054e-07
3.2193e-07
5.60677e-07
6.68452e-07
2.99962e-07
6.65985e-07
3.02036e-07
3.20387e-07
3.88465e-07
5.22721e-07
1.74238e-06
1.07565e-06
1.06923e-06
5.22112e-07
3.88088e-07
3.87569e-07
1.04829e-06
5.19072e-07
1.72632e-06
3.88004e-07
1.05456e-06
5.19534e-07
3.21947e-07
5.60685e-07
6.6851e-07
2.99964e-07
6.6602e-07
3.0204e-07
3.20403e-07
7.37898e-07
2.81195e-07
3.91952e-07
3.91903e-07
3.91875e-07
7.33836e-07
3.9183e-07
3.88452e-07
5.22678e-07
1.74232e-06
1.07571e-06
5.22076e-07
1.0693e-06
3.88064e-07
3.21944e-07
5.60695e-07
6.68479e-07
2.99967e-07
6.66014e-07
3.02041e-07
3.20398e-07
3.88465e-07
5.22719e-07
1.74237e-06
1.07559e-06
1.06922e-06
5.22119e-07
3.88079e-07
3.21949e-07
5.60691e-07
2.99972e-07
6.68504e-07
3.02044e-07
6.6604e-07
3.20406e-07
3.22003e-07
6.57901e-07
3.04848e-07
5.5909e-07
3.23699e-07
6.60142e-07
3.02658e-07
3.88419e-07
5.22567e-07
1.742e-06
1.07562e-06
3.88043e-07
5.21952e-07
1.0692e-06
3.87518e-07
1.04826e-06
5.18916e-07
1.72594e-06
3.87959e-07
5.19383e-07
1.05452e-06
3.21934e-07
5.60671e-07
6.68463e-07
2.99965e-07
3.2039e-07
6.65977e-07
3.02037e-07
3.22019e-07
3.0485e-07
6.5793e-07
5.59095e-07
3.23706e-07
3.02663e-07
6.60179e-07
3.88433e-07
5.22608e-07
1.74206e-06
1.07554e-06
1.06911e-06
5.22001e-07
3.88059e-07
3.87542e-07
1.72607e-06
1.05446e-06
5.19425e-07
3.21941e-07
5.60673e-07
2.9997e-07
6.68494e-07
3.02039e-07
6.66001e-07
3.20401e-07
3.88427e-07
5.22563e-07
1.74196e-06
1.07559e-06
3.88041e-07
5.21967e-07
1.06922e-06
3.21939e-07
5.60692e-07
2.9997e-07
6.68453e-07
3.20393e-07
3.02042e-07
6.65992e-07
3.88456e-07
5.22704e-07
1.74234e-06
1.07561e-06
1.06919e-06
5.22101e-07
3.88072e-07
3.21957e-07
5.60701e-07
2.99974e-07
6.68521e-07
3.02046e-07
6.66035e-07
3.20412e-07
7.78008e-07
2.76693e-07
3.96237e-07
3.96286e-07
7.82956e-07
3.95971e-07
3.96016e-07
7.99779e-07
2.73303e-07
3.9812e-07
3.98167e-07
7.94462e-07
3.9852e-07
3.98571e-07
3.19123e-07
5.66108e-07
6.87317e-07
2.95153e-07
6.84365e-07
2.96984e-07
3.17919e-07
3.88857e-07
5.2547e-07
1.09072e-06
1.77241e-06
1.09724e-06
3.8918e-07
5.26222e-07
3.19036e-07
5.63737e-07
6.74801e-07
2.99415e-07
6.7751e-07
3.20403e-07
2.9746e-07
3.90213e-07
1.11936e-06
1.78953e-06
5.30338e-07
1.11268e-06
5.29449e-07
3.89947e-07
3.19141e-07
5.66117e-07
6.87372e-07
2.95156e-07
6.84402e-07
2.96988e-07
3.17935e-07
3.8889e-07
5.25617e-07
1.09068e-06
1.77288e-06
3.8921e-07
1.09725e-06
5.26374e-07
3.19053e-07
5.63747e-07
6.7484e-07
2.99418e-07
3.2042e-07
6.77566e-07
2.97462e-07
3.90242e-07
1.11935e-06
1.78991e-06
5.30494e-07
1.11263e-06
3.89981e-07
5.29589e-07
3.17037e-07
6.94673e-07
2.94752e-07
5.70752e-07
3.18078e-07
6.9786e-07
2.93045e-07
3.91331e-07
1.13512e-06
5.33883e-07
1.8218e-06
5.34924e-07
3.91537e-07
1.14193e-06
3.17051e-07
6.94711e-07
2.94755e-07
5.70761e-07
3.18096e-07
6.97918e-07
2.93047e-07
3.91363e-07
1.13506e-06
5.34029e-07
1.82227e-06
3.91566e-07
1.14191e-06
5.35088e-07
7.78009e-07
2.76696e-07
3.96295e-07
3.96244e-07
3.9597e-07
3.96029e-07
7.82963e-07
7.99833e-07
2.73304e-07
3.98185e-07
3.98118e-07
3.98583e-07
7.94527e-07
3.98523e-07
3.19139e-07
5.66134e-07
6.87346e-07
2.95159e-07
6.84396e-07
2.96988e-07
3.1793e-07
3.88868e-07
5.25576e-07
1.09075e-06
1.77281e-06
1.09732e-06
3.89199e-07
5.26326e-07
3.19048e-07
5.63759e-07
6.74833e-07
2.99417e-07
6.77539e-07
3.20419e-07
2.97465e-07
3.90232e-07
1.11944e-06
1.78984e-06
5.30446e-07
1.11272e-06
5.29548e-07
3.8996e-07
3.19143e-07
5.6613e-07
2.95164e-07
6.87368e-07
2.9699e-07
6.84427e-07
3.17937e-07
3.88883e-07
5.25626e-07
1.09068e-06
1.77292e-06
3.8921e-07
1.0972e-06
5.26375e-07
3.19056e-07
5.63772e-07
2.99419e-07
6.74861e-07
3.20422e-07
2.97471e-07
6.77568e-07
3.90243e-07
1.11929e-06
1.78996e-06
5.30493e-07
1.11263e-06
3.89973e-07
5.29597e-07
6.9471e-07
2.94754e-07
3.18094e-07
1.13518e-06
5.33991e-07
3.91558e-07
2.94756e-07
6.94727e-07
3.18097e-07
1.13505e-06
5.34039e-07
3.91564e-07
3.19134e-07
5.66107e-07
2.95162e-07
6.87354e-07
2.96987e-07
6.84382e-07
3.17931e-07
3.88857e-07
5.25502e-07
1.09057e-06
1.77263e-06
5.26257e-07
3.89177e-07
1.09714e-06
3.19049e-07
5.63759e-07
2.99417e-07
6.74822e-07
2.97469e-07
3.20413e-07
6.77553e-07
3.90209e-07
1.11923e-06
1.78959e-06
5.3037e-07
5.29467e-07
1.11251e-06
3.89947e-07
3.17036e-07
6.94665e-07
2.94752e-07
5.70767e-07
3.18082e-07
6.9787e-07
2.93048e-07
3.9131e-07
1.13505e-06
5.3385e-07
1.82186e-06
3.91519e-07
5.34906e-07
1.1419e-06
3.17049e-07
2.94754e-07
6.94687e-07
5.70775e-07
3.18089e-07
2.93054e-07
6.97901e-07
3.91326e-07
1.13493e-06
5.33904e-07
1.82199e-06
3.9153e-07
1.14179e-06
5.34957e-07
7.77795e-07
2.76698e-07
3.96295e-07
3.96239e-07
3.95972e-07
3.96023e-07
7.82821e-07
7.99988e-07
2.73312e-07
3.98197e-07
3.98142e-07
3.98595e-07
7.94694e-07
3.98533e-07
3.19151e-07
5.66136e-07
2.95166e-07
6.87387e-07
2.96994e-07
6.84419e-07
3.17945e-07
3.88876e-07
5.25607e-07
1.09065e-06
1.77294e-06
5.26358e-07
3.89201e-07
1.09722e-06
3.19063e-07
5.63768e-07
2.99423e-07
6.74856e-07
2.97473e-07
3.20429e-07
6.77584e-07
3.90233e-07
1.11931e-06
1.78989e-06
5.30475e-07
5.29575e-07
1.1126e-06
3.89966e-07
3.17044e-07
2.94757e-07
6.94684e-07
5.70773e-07
3.18088e-07
2.93054e-07
6.9787e-07
3.91318e-07
1.13509e-06
5.33874e-07
1.82191e-06
3.91529e-07
5.34917e-07
1.14189e-06
3.17062e-07
2.94761e-07
6.94726e-07
5.70783e-07
3.18106e-07
2.93058e-07
6.97932e-07
3.91346e-07
1.13502e-06
5.34017e-07
1.82232e-06
3.91555e-07
1.14188e-06
5.35069e-07
7.99939e-07
2.73319e-07
3.98154e-07
3.98192e-07
7.94679e-07
3.98548e-07
3.98594e-07
2.30704e-07
2.71831e-07
2.30679e-07
1.96031e-07
2.27833e-06
2.07297e-07
5.75182e-07
8.75804e-06
2.27828e-06
2.07299e-07
1.84792e-06
5.75196e-07
1.89671e-05
4.20566e-06
4.20443e-06
1.89656e-05
1.84752e-06
8.75831e-06
1.90019e-05
8.79986e-06
2.20731e-05
2.20726e-05
2.56367e-06
4.1588e-06
8.67999e-06
9.77443e-07
1.26027e-05
2.24784e-06
2.97109e-06
1.15386e-05
2.26153e-05
6.38853e-06
2.2625e-05
6.35366e-06
2.26161e-05
8.7536e-06
6.32187e-06
1.25651e-05
2.26798e-06
3.02605e-06
1.14662e-05
1.25478e-05
3.00125e-06
1.14926e-05
1.26032e-05
2.24778e-06
1.15387e-05
2.97066e-06
2.26165e-05
8.75457e-06
6.38667e-06
6.35206e-06
2.26261e-05
2.26174e-05
8.75315e-06
6.32014e-06
1.25657e-05
2.26804e-06
1.14663e-05
3.02558e-06
1.14924e-05
3.0018e-06
1.25483e-05
1.89771e-05
1.90026e-05
8.80175e-06
2.20767e-05
2.20771e-05
2.60066e-06
9.97931e-07
4.18488e-06
8.67961e-06
9.91379e-07
8.67936e-06
2.6197e-06
2.59655e-06
9.97191e-07
4.18321e-06
8.67591e-06
8.67573e-06
9.90682e-07
2.61543e-06
2.56537e-06
4.15866e-06
9.77631e-07
8.68007e-06
8.83816e-06
2.20839e-05
2.20843e-05
2.20759e-05
2.20763e-05
8.88754e-06
1.89755e-05
2.26148e-05
8.75478e-06
6.3875e-06
6.35422e-06
2.26248e-05
8.12201e-07
2.73285e-07
4.01289e-07
4.01231e-07
4.00773e-07
4.00707e-07
8.17742e-07
1.89275e-07
1.89277e-07
3.17047e-07
5.70774e-07
6.97892e-07
2.93051e-07
3.93173e-07
1.16502e-06
1.15804e-06
3.91343e-07
1.82219e-06
5.35035e-07
1.14201e-06
3.17285e-07
5.73948e-07
7.09173e-07
2.91144e-07
7.05752e-07
2.92722e-07
3.16402e-07
3.17053e-07
5.70787e-07
2.93056e-07
6.97911e-07
3.93178e-07
5.40151e-07
1.84022e-06
1.16485e-06
1.15793e-06
5.38961e-07
3.93024e-07
3.91349e-07
1.82231e-06
1.14186e-06
5.35084e-07
3.17288e-07
5.73943e-07
2.91149e-07
7.09194e-07
2.92724e-07
7.05774e-07
3.16411e-07
3.93144e-07
5.39979e-07
1.83977e-06
1.1649e-06
3.9299e-07
5.38792e-07
1.15798e-06
2.82292e-05
2.82344e-05
1.31783e-06
4.31968e-07
3.17911e-07
3.62112e-07
3.62114e-07
3.96085e-07
3.11646e-07
3.38303e-07
3.38302e-07
3.74583e-07
3.9764e-07
3.68467e-07
3.68473e-07
3.97641e-07
3.68443e-07
3.68476e-07
3.68441e-07
3.68466e-07
3.97647e-07
3.68444e-07
3.68456e-07
3.97655e-07
3.96071e-07
3.6211e-07
3.62119e-07
6.16286e-07
6.16282e-07
3.96074e-07
3.62116e-07
3.62122e-07
1.40864e-06
1.91512e-06
6.16285e-07
3.62124e-07
3.44033e-07
3.44038e-07
3.96078e-07
2.8714e-06
3.62113e-07
3.44036e-07
3.44023e-07
3.76093e-07
3.38294e-07
3.38282e-07
6.15371e-07
6.15365e-07
1.41622e-06
1.9218e-06
6.15381e-07
2.89532e-06
1.81238e-06
8.09934e-06
2.44318e-05
1.81248e-06
8.10045e-06
3.45192e-07
3.45193e-07
3.45193e-07
3.45195e-07
6.26306e-07
3.81654e-07
1.33377e-06
3.66029e-07
2.44333e-05
6.26311e-07
3.81657e-07
3.66031e-07
1.33376e-06
4.08477e-07
2.67938e-06
2.67989e-06
1.8929e-06
8.39514e-06
1.87311e-06
8.5295e-06
2.36934e-05
2.32659e-05
1.89299e-06
8.39641e-06
1.87321e-06
8.53065e-06
3.13475e-07
3.13475e-07
3.38014e-07
3.38015e-07
3.38017e-07
3.38016e-07
3.17916e-07
6.22129e-07
1.37212e-06
3.4524e-07
3.55916e-07
6.25449e-07
1.38715e-06
3.38765e-07
2.36943e-05
2.32671e-05
6.22131e-07
3.45241e-07
1.37212e-06
3.5592e-07
6.25462e-07
3.38767e-07
1.38714e-06
2.76352e-06
2.76407e-06
3.86843e-07
2.80532e-06
2.80591e-06
3.07019e-07
3.00778e-07
3.11646e-07
1.41637e-06
3.20496e-07
6.15396e-07
3.32677e-07
1.4276e-06
1.41634e-06
3.20494e-07
6.15414e-07
2.89511e-06
2.89571e-06
2.44296e-05
2.4432e-05
4.08461e-07
2.67907e-06
2.67973e-06
2.38694e-05
2.42702e-05
2.38714e-05
2.42732e-05
4.06871e-07
2.74213e-06
2.7428e-06
2.70096e-06
2.70153e-06
1.8124e-06
8.10013e-06
6.26284e-07
3.81674e-07
1.33376e-06
3.6603e-07
6.26289e-07
3.81682e-07
1.33399e-06
3.66032e-07
1.83083e-06
8.35165e-06
8.16276e-06
1.85972e-06
1.83085e-06
8.35236e-06
8.16358e-06
1.85974e-06
6.26728e-07
3.74967e-07
1.3625e-06
3.51931e-07
1.34472e-06
3.58853e-07
6.25634e-07
6.26732e-07
3.74976e-07
1.36274e-06
3.51933e-07
1.34494e-06
3.58856e-07
6.25637e-07
4.08462e-07
2.67979e-06
2.67913e-06
2.44301e-05
2.38713e-05
2.4273e-05
4.06873e-07
2.74287e-06
2.74219e-06
2.70163e-06
2.70093e-06
2.38696e-05
2.42718e-05
6.26313e-07
3.81657e-07
1.33393e-06
3.66031e-07
1.81243e-06
8.10088e-06
6.26322e-07
3.81685e-07
3.66033e-07
1.33397e-06
1.83093e-06
8.35279e-06
8.16399e-06
1.85981e-06
6.26754e-07
3.7497e-07
1.36268e-06
3.51932e-07
1.34489e-06
3.58856e-07
6.2565e-07
1.831e-06
8.35312e-06
8.16436e-06
1.85974e-06
6.26752e-07
3.74979e-07
3.51934e-07
1.36268e-06
3.58858e-07
1.34493e-06
6.25656e-07
1.81245e-06
8.0999e-06
6.26307e-07
3.81676e-07
3.66032e-07
1.33381e-06
1.81246e-06
8.10028e-06
6.26739e-07
3.74966e-07
1.36252e-06
3.5193e-07
1.34472e-06
3.58854e-07
6.25659e-07
1.83089e-06
8.35219e-06
8.1635e-06
1.85979e-06
6.2674e-07
3.74978e-07
3.51933e-07
1.36256e-06
3.58855e-07
1.34478e-06
6.25659e-07
1.8309e-06
8.35258e-06
8.16389e-06
1.85979e-06
4.08469e-07
2.67995e-06
2.67922e-06
2.44311e-05
2.38721e-05
2.42743e-05
4.06877e-07
2.74287e-06
2.74227e-06
2.70174e-06
2.70101e-06
2.38705e-05
2.42724e-05
6.26316e-07
3.81667e-07
3.66032e-07
1.33399e-06
1.81248e-06
8.10024e-06
1.81249e-06
8.10087e-06
6.26753e-07
3.74968e-07
3.51932e-07
1.36251e-06
3.58855e-07
1.34472e-06
6.2566e-07
6.26758e-07
3.7497e-07
3.51933e-07
1.36275e-06
3.58858e-07
1.34495e-06
6.25664e-07
1.83093e-06
8.3526e-06
8.16374e-06
1.85982e-06
1.83094e-06
8.35316e-06
8.16449e-06
1.85982e-06
2.44314e-05
2.44327e-05
4.06884e-07
2.74242e-06
2.74296e-06
2.70117e-06
2.70168e-06
2.38709e-05
2.42728e-05
2.38721e-05
2.42743e-05
2.36906e-05
2.32647e-05
2.36935e-05
2.32661e-05
2.76332e-06
2.76398e-06
3.86827e-07
2.80505e-06
2.80578e-06
2.26719e-05
2.30843e-05
2.26726e-05
2.30872e-05
2.87149e-06
2.87213e-06
3.7608e-07
3.85283e-07
2.82695e-06
2.82763e-06
1.89292e-06
8.39589e-06
1.87313e-06
8.53011e-06
6.22102e-07
1.37211e-06
3.45239e-07
3.55948e-07
6.25439e-07
1.38716e-06
3.38766e-07
6.221e-07
1.37233e-06
3.45241e-07
3.55954e-07
6.25442e-07
1.38739e-06
3.38768e-07
1.91513e-06
8.64734e-06
1.90237e-06
8.55705e-06
1.91523e-06
8.64745e-06
1.90231e-06
8.55757e-06
1.40848e-06
3.44046e-07
3.26404e-07
6.21489e-07
3.499e-07
1.39557e-06
3.3249e-07
1.40837e-06