/*--------------------------------*- C++ -*----------------------------------*\
| =========                 |                                                 |
| \\      /  F ield         | OpenFOAM: The Open Source CFD Toolbox           |
|  \\    /   O peration     | Version:  v2006                                 |
|   \\  /    A nd           | Website:  www.openfoam.com                      |
|    \\/     M anipulation  |                                                 |
\*---------------------------------------------------------------------------*/
FoamFile
{
    version     2.0;
    format      ascii;
    class       surfaceScalarField;
    location    "750";
    object      phi;
}
// * * * * * * * * * * * * * * * * * * * * * * * * * * * * * * * * * * * * * //

dimensions      [0 3 -1 0 0 0 0];
oriented        oriented;


internalField   nonuniform List<scalar> 
40902
(
1.06739e-06
1.02885e-06
5.14017e-07
-1.56828e-06
6.51018e-08
-5.75981e-07
-1.34804e-06
-2.54271e-08
-6.80645e-07
6.31983e-07
-0.0011106
-1.03266e-06
-0.000270538
-1.26037e-08
-6.94617e-09
1.04053e-06
-1.53111e-06
6.24433e-08
-5.73177e-07
-2.52974e-08
-6.83359e-07
-0.00111105
5.33163e-07
-0.0011126
1.68257e-07
2.12778e-08
-0.000205424
-4.29373e-08
2.97756e-07
-0.000246318
-1.70382e-07
-2.28236e-08
-3.06204e-10
-6.65481e-08
1.35739e-07
-0.000261747
1.05816e-07
1.05216e-06
-1.42973e-06
4.80087e-07
-1.24206e-06
6.78833e-07
-4.27665e-09
-0.00110758
-0.000263203
-5.99504e-08
1.6286e-07
-2.18351e-09
6.75129e-08
-0.000102096
2.00689e-07
-0.000296573
1.25756e-08
-7.19172e-08
6.83863e-08
2.03277e-07
-0.000296706
1.44454e-08
-2.16727e-08
-0.000102109
-1.70451e-07
1.35515e-07
-0.000261848
-0.000205473
-1.42459e-06
4.77302e-07
6.73166e-07
-1.23942e-06
1.06864e-06
-0.00110741
-3.56592e-07
-2.97847e-07
-0.000263225
1.65682e-07
-5.93684e-08
-0.000246355
-2.28304e-08
-1.70441e-07
7.46044e-08
8.23716e-05
-1.35604e-08
-8.24326e-05
-4.98053e-08
1.03014e-08
2.54699e-07
-0.000205639
-0.000281346
-3.70263e-08
2.63111e-08
2.06726e-07
2.7747e-08
3.26243e-07
-0.000281675
-1.23163e-08
-9.40159e-09
1.5811e-07
0.000150349
-0.000150511
-2.1573e-07
-2.25147e-08
4.32775e-07
4.38224e-11
-0.000246513
-0.000180279
7.59525e-09
-1.60406e-13
-0.00023972
-1.15729e-07
2.65839e-07
2.89864e-11
-0.000180504
3.98878e-07
-0.000239955
9.91484e-08
-0.000102185
2.64526e-07
-1.92417e-07
0.000237037
-1.8684e-07
3.29721e-07
-0.000237252
-0.000265573
-2.01114e-07
2.15972e-07
1.89065e-07
2.96138e-07
-6.90731e-09
1.10344e-07
-0.000296873
-0.000193324
1.36944e-07
-4.34138e-09
4.15301e-07
2.70316e-07
-0.000265698
-1.65494e-08
-0.000193507
-1.47494e-07
2.02935e-07
-1.91146e-07
2.65804e-07
0.000237117
-1.85007e-07
3.30648e-07
-0.000237337
-0.000265751
-2.01752e-07
2.18713e-07
1.89449e-07
-7.11285e-09
2.94083e-07
-9.91479e-08
1.07498e-07
-0.000297001
-0.000193391
1.3929e-07
-4.48374e-09
-1.69337e-08
-0.000193572
4.13666e-07
2.71178e-07
-0.000265876
-1.50341e-07
2.03123e-07
-5.17012e-08
-5.15437e-08
0.000228205
-0.000228474
-8.43512e-05
3.56105e-08
-8.43672e-05
3.53964e-08
-8.44195e-05
-8.44357e-05
-1.04571e-08
-0.000102198
2.54661e-07
-0.000205689
1.60362e-07
-9.40568e-09
0.000150421
-0.000150585
1.33452e-08
-2.22103e-08
-2.15826e-07
4.32939e-07
-0.00024655
-0.000239822
-1.13627e-07
2.63425e-07
-2.62431e-08
-0.00018031
7.5609e-09
4.01664e-07
-0.000240058
-2.7677e-08
-0.000180535
1.25189e-08
4.53748e-07
4.52456e-07
0.000256071
-0.000256317
-5.76827e-07
-5.82022e-07
-0.000272478
-0.000268991
-1.15208e-07
-0.00026862
-1.14766e-07
-0.000269274
-0.000268909
4.52006e-10
-0.00111699
-6.1638e-07
-1.84209e-07
0.000272216
1.26236e-07
-0.00027289
-0.00027138
1.64585e-07
1.23208e-07
4.96186e-07
-0.000262001
-0.000266653
9.57562e-08
9.94914e-08
1.05188e-07
-0.000266925
-0.000271479
1.10652e-07
-6.5795e-07
6.10536e-08
0.000270879
-0.000271585
-5.62606e-08
6.50107e-07
5.27672e-10
-0.000263364
-0.000263758
1.27336e-07
-0.000269806
-6.13609e-08
-6.49514e-09
-0.000263969
3.31982e-09
-0.000270341
-0.000271487
4.96033e-07
-0.000262105
-0.00027159
0.000270928
5.77114e-08
-6.60996e-07
-0.000271631
-1.17826e-07
6.4761e-07
-5.55073e-08
-0.000263383
-5.963e-08
-0.000269809
1.24744e-07
-0.00026384
-9.92689e-08
-1.05209e-07
-0.000270336
-0.000264053
-1.02513e-07
-1.06994e-06
-1.02739e-06
0.000272663
-0.00027054
-1.86657e-08
-6.72637e-09
0.00111135
1.03451e-06
5.14228e-07
-1.57074e-06
6.77359e-08
-5.78814e-07
-1.34838e-06
-2.30177e-08
-6.83388e-07
6.34845e-07
-0.00111047
0.00111232
1.04049e-06
-1.52863e-06
5.91992e-08
-5.70751e-07
-2.52059e-08
-6.80691e-07
6.29328e-07
-0.00111144
5.07811e-07
-1.34552e-06
1.57066e-06
1.52575e-06
-5.69133e-07
-5.80126e-07
0.000270716
-5.7663e-07
1.07328e-06
7.12768e-08
-6.78032e-07
-2.29867e-08
4.94164e-07
-5.6851e-07
1.03069e-06
6.27337e-08
6.32884e-07
-6.77978e-07
-1.34442e-06
-2.27672e-08
5.38499e-07
-0.00111274
5.06956e-07
-0.00020534
1.02386e-08
2.49141e-07
0.000205129
-0.000205315
1.01532e-08
2.49061e-07
-4.85102e-08
0.000205104
4.28117e-07
0.000246054
-2.30234e-08
-2.06951e-07
-0.000246253
7.2016e-08
-2.18326e-08
0.000102068
-0.000102118
7.19303e-08
-2.1754e-08
0.000102051
-0.000102101
6.59934e-08
0.000296484
2.05812e-07
-0.000296698
1.45063e-08
6.60594e-08
0.000296403
2.00655e-07
-0.000296612
1.38006e-08
1.70525e-07
-0.000205489
-4.32748e-08
2.97835e-07
-0.000246363
-1.70507e-07
-2.28278e-08
0.000261845
1.35657e-07
-0.00026185
1.05755e-07
1.05218e-06
-1.42725e-06
4.8019e-07
-1.24217e-06
6.79015e-07
-0.00110764
-0.000263239
-5.91983e-08
1.62856e-07
1.70486e-07
-0.000205461
-4.59154e-08
0.000261806
1.32904e-07
-0.000261803
1.00544e-07
9.65165e-08
0.000101982
9.63976e-08
0.000101965
1.06913e-07
2.85664e-07
-8.62805e-09
0.000296197
1.04332e-07
2.90233e-07
-8.01294e-09
0.000296113
4.92114e-07
0.000261589
4.94545e-07
1.20065e-07
0.000261545
6.80301e-07
-1.24114e-06
-1.42639e-06
4.81648e-07
-0.00110844
0.000263255
-5.48065e-08
6.44287e-07
-0.000263418
2.14406e-08
1.64787e-07
-8.23331e-05
3.62064e-08
-1.21166e-08
-7.41111e-08
0.000280917
2.77021e-08
3.19775e-07
-0.000281239
-4.16471e-08
2.14512e-08
1.64631e-07
-1.33993e-08
-8.23938e-05
2.61563e-08
2.00653e-07
-0.000150144
1.10421e-07
-8.19299e-09
-2.28444e-08
-1.61833e-07
2.90901e-07
-1.52852e-07
0.000239435
3.94848e-07
-0.000239673
1.01363e-08
0.000179915
-0.000180132
-0.0001503
2.57117e-07
9.92136e-08
-1.04814e-08
-0.000102207
9.92366e-08
-1.04681e-08
-0.00010219
-1.90852e-07
2.65919e-07
0.000237115
-1.8528e-07
3.3037e-07
-0.000237336
-0.000265733
-2.01913e-07
0.000265737
2.16267e-07
1.87093e-07
-6.78471e-09
2.9154e-07
1.10314e-07
-0.000296994
-0.000193393
1.39784e-07
-4.46041e-09
0.000193272
-1.62233e-08
-0.000193574
4.15883e-07
2.73865e-07
-0.000265865
-1.50058e-07
0.000237002
2.01237e-07
-1.92962e-07
2.65497e-07
0.000237049
-1.8556e-07
3.30909e-07
-0.000237267
-0.000265621
-2.01269e-07
0.000265617
2.1587e-07
1.89492e-07
-6.24605e-09
2.96475e-07
1.10214e-07
-0.000296913
-0.000193329
1.37419e-07
-4.39548e-09
0.00019321
-1.62136e-08
-0.000193512
4.15439e-07
2.7109e-07
-0.000265745
-1.47683e-07
0.000236929
2.03674e-07
-5.21783e-08
-5.21557e-08
0.000228208
-0.000228474
-8.43695e-05
3.56705e-08
8.43293e-05
-8.43518e-05
3.57257e-08
8.43117e-05
-8.44379e-05
-8.44202e-05
0.000227981
8.24194e-05
7.4749e-08
-1.36103e-08
-8.24805e-05
-4.98733e-08
2.5464e-07
-0.000205704
-3.70174e-08
-0.000281483
2.62358e-08
2.04201e-07
-1.23923e-08
2.78083e-08
3.28852e-07
-0.000281814
0.000150425
-9.46773e-09
1.5815e-07
-0.000150588
-2.15694e-07
-2.25604e-08
4.32798e-07
-0.000246557
7.63819e-09
-0.000180316
-1.1582e-07
-0.000239826
2.63379e-07
-0.000180541
4.01586e-07
-0.000240064
2.54576e-07
-4.70746e-08
-0.000205679
6.91589e-08
6.91191e-08
-0.000236782
-1.30805e-07
1.97709e-07
-1.468e-07
1.93722e-07
-2.57917e-07
0.0002656
4.12051e-07
2.68606e-07
1.84935e-07
0.000193097
-1.83334e-08
1.45421e-08
1.97228e-07
6.32813e-08
-1.77194e-07
3.2393e-07
-2.59854e-09
2.12033e-07
1.83404e-07
-0.000236716
-1.31094e-07
1.97655e-07
-1.44892e-07
1.97096e-07
-2.57439e-07
0.00026549
4.11392e-07
2.63133e-07
1.86986e-07
0.000193033
-1.82976e-08
1.48639e-08
1.9475e-07
6.56725e-08
-1.79444e-07
3.22432e-07
-2.60131e-09
2.11968e-07
1.88953e-07
-0.000227723
-3.54876e-08
-3.54886e-08
4.91122e-08
8.42619e-05
4.91604e-08
8.42443e-05
4.5331e-07
4.5127e-07
0.000256079
-0.000256322
-5.71144e-07
-5.82217e-07
-0.000272486
-0.000268602
-1.1547e-07
0.000268983
-0.000269035
-1.18265e-07
0.000269421
-0.000268883
-0.000269321
0.00025625
-0.000256003
1.10199e-07
1.12717e-07
-4.47773e-07
0.000268697
-4.45633e-07
0.00026913
-1.19547e-08
-2.80796e-09
5.09585e-07
-0.00111701
-1.13279e-07
-0.00112408
-5.6963e-07
3.90069e-07
-0.0011168
-5.33678e-07
-0.00112368
-6.99816e-07
-1.84383e-07
-6.19288e-07
0.000272286
1.18392e-07
-0.000272949
-0.000271467
1.64964e-07
0.000271602
4.96114e-07
1.2316e-07
-0.000262104
-0.00026676
9.29101e-08
1.02027e-07
-0.000271565
1.02607e-07
-0.00026703
1.18637e-07
-6.58134e-07
5.95323e-08
0.000270932
-0.000271642
-5.60329e-08
6.5017e-07
-0.0002634
-0.000263846
1.27297e-07
-0.000269835
-6.0309e-08
-0.000264056
-0.000270364
-0.000271456
1.59578e-07
0.000271594
4.98624e-07
1.28366e-07
-0.000262065
1.89801e-07
-0.000271557
0.000273075
-0.000272299
-9.0283e-08
1.02807e-07
0.000271503
1.31261e-07
-8.52596e-08
-0.000272406
-1.60673e-07
1.0471e-07
1.84921e-07
0.000271488
0.000266583
6.18321e-07
1.00963e-07
-0.000266862
1.02529e-07
1.28362e-07
9.9914e-08
1.28031e-07
-1.19509e-07
-0.000271077
5.50849e-08
-5.71652e-08
1.60349e-07
0.000263796
6.578e-07
-0.000264013
-5.87123e-08
0.000269987
-0.00027053
-0.000271776
-1.06171e-06
-1.05699e-06
-0.0011097
5.39791e-07
5.51371e-07
0.00111072
-0.00110836
-1.52997e-06
1.05693e-06
5.20325e-07
0.00110926
-5.70684e-07
1.01954e-06
5.07667e-08
6.19012e-07
-6.89022e-07
-1.34907e-06
-3.21525e-08
-0.00110827
-1.52685e-06
1.05625e-06
5.25177e-07
0.00110917
-5.72826e-07
1.01735e-06
5.58666e-08
6.13188e-07
-6.88893e-07
-1.34616e-06
-3.49486e-08
-0.000271897
1.55829e-06
1.51887e-06
-5.73898e-07
-5.84883e-07
0.000269978
-1.05652e-06
-1.01404e-06
0.000271942
-0.000269819
-3.1624e-08
-2.02739e-08
0.00110778
1.06126e-06
5.22959e-07
-1.56867e-06
5.87293e-08
-5.78057e-07
-1.35275e-06
-3.84469e-08
-6.91654e-07
6.14049e-07
-0.00110686
1.05395e-06
0.00110791
1.06117e-06
-0.00110699
5.22933e-07
-1.56619e-06
5.55167e-08
-5.75516e-07
-1.35513e-06
-3.58342e-08
-6.94174e-07
6.16863e-07
-1.01653e-06
0.000271931
-0.000269814
-2.63008e-08
-2.0279e-08
0.00110876
1.06203e-06
5.21911e-07
-1.52666e-06
5.01766e-08
-5.69965e-07
-1.3499e-06
-3.82205e-08
-6.9163e-07
6.1132e-07
-0.00110784
1.05097e-06
0.00110781
1.06171e-06
5.2384e-07
-1.56388e-06
5.362e-08
-5.77059e-07
-1.35265e-06
-3.54288e-08
-6.94155e-07
6.14573e-07
-0.00110689
1.06211e-06
-0.00110744
5.2209e-07
-1.52917e-06
4.99372e-08
-5.69923e-07
-1.35255e-06
-3.82476e-08
6.11403e-07
-6.94314e-07
1.04551e-06
0.00110748
1.05607e-06
5.2342e-07
-1.55814e-06
5.441e-08
-5.76663e-07
-1.34975e-06
-3.55987e-08
-6.94059e-07
6.11778e-07
-0.00110656
-1.01354e-06
0.000271919
-0.0002698
-2.96405e-08
-2.40352e-08
1.06229e-06
5.22773e-07
-1.52693e-06
5.08481e-08
-5.74172e-07
-1.34725e-06
-3.78854e-08
6.09031e-07
-6.91531e-07
-0.00110735
1.00566e-06
0.00110845
1.06226e-06
5.17055e-07
-1.51612e-06
4.57932e-08
-5.68624e-07
-1.34948e-06
-3.53878e-08
-6.94015e-07
6.11715e-07
-0.00110753
-0.000269793
-3.22102e-08
-2.08395e-08
1.56956e-06
1.52749e-06
-5.74423e-07
-5.8548e-07
0.000270005
5.21343e-07
0.00110868
-5.7897e-07
1.05945e-06
5.89887e-08
6.18944e-07
-6.89187e-07
-1.35203e-06
-3.47298e-08
-1.567e-06
1.05617e-06
5.21262e-07
0.00110882
-5.76314e-07
1.05699e-06
5.63614e-08
6.217e-07
-6.91721e-07
-1.35434e-06
-3.22844e-08
-5.80284e-07
-5.851e-07
0.000269999
5.25722e-07
0.00110966
-5.70912e-07
1.01424e-06
5.0407e-08
6.16219e-07
-6.89141e-07
-1.34918e-06
-3.45245e-08
-1.56382e-06
1.05019e-06
5.10001e-07
0.00110873
-5.75706e-07
1.05483e-06
5.86573e-08
6.18728e-07
-6.91499e-07
-1.35145e-06
-3.24693e-08
1.05571e-06
5.20904e-07
0.00110839
-5.75411e-07
1.04896e-06
5.78685e-08
6.1603e-07
-6.91589e-07
-3.25202e-08
-1.34877e-06
-5.77041e-07
-5.81767e-07
0.000269987
1.05636e-06
5.19699e-07
0.00110936
-5.67312e-07
1.01184e-06
5.22535e-08
6.15965e-07
-6.91566e-07
-3.22765e-08
-1.34853e-06
5.41817e-07
5.4252e-07
-0.00110866
0.00110952
5.41875e-07
5.42565e-07
-0.00110848
0.00110933
5.42056e-07
5.42712e-07
-0.0011083
0.00110936
5.41932e-07
5.31931e-07
-0.00110831
-1.3392e-10
3.12074e-07
0.000246854
-0.000246955
-1.88737e-07
-2.16487e-08
-0.000206853
9.28658e-09
2.75747e-07
-5.31976e-08
0.000206621
-0.000247438
1.114e-10
4.55508e-07
0.000247247
-2.44502e-07
-2.03383e-08
2.14576e-08
1.80243e-07
0.000206077
-4.58333e-08
-0.000206233
-0.000102635
-9.52159e-09
1.06486e-07
0.000102538
-2.12415e-08
7.68671e-08
0.000102329
-0.000102385
3.09496e-07
7.62654e-12
0.000246848
-0.000246947
-2.1644e-08
-1.88711e-07
-0.000206827
9.33644e-09
2.73357e-07
-5.31508e-08
0.000206598
-0.000247431
4.55578e-07
3.10068e-10
0.00024724
-2.03961e-08
-2.44587e-07
2.1314e-08
1.82499e-07
0.000206052
-4.57404e-08
-0.00020621
5.39818e-07
5.40517e-07
0.00111056
5.34214e-07
5.45661e-07
0.00111036
5.39587e-07
5.40328e-07
0.00111039
-3.14644e-07
-1.66307e-09
0.000263354
-0.000263154
-6.02562e-08
1.76555e-07
-0.000262863
-1.18012e-07
-2.73399e-07
5.09859e-07
1.31969e-07
0.000262612
0.00110547
-0.00110449
3.81731e-09
1.08093e-06
6.62203e-07
-1.24261e-06
-1.42955e-06
4.63708e-07
5.17631e-07
1.02339e-06
0.00111016
1.05115e-06
-1.35042e-06
-2.91644e-08
-6.88815e-07
6.23359e-07
-1.53018e-06
5.52376e-08
-5.7054e-07
-0.000263258
-4.53013e-07
1.75877e-09
0.000263108
-5.5813e-08
6.57712e-07
-7.49834e-08
-1.82455e-07
0.000262361
1.11915e-07
-0.000262361
1.45666e-07
-2.97734e-09
0.00110645
1.07478e-06
-1.42869e-06
4.68327e-07
-1.24142e-06
6.66871e-07
-0.000102627
-9.85277e-09
1.06917e-07
0.00010253
-2.14664e-08
7.44292e-08
0.000102325
-0.000102378
-1.42931e-10
-3.12049e-07
0.000263347
-0.00026315
1.76543e-07
-6.12133e-08
0.00110533
-0.00110435
1.01645e-08
1.08621e-06
6.59412e-07
-1.24259e-06
-1.42683e-06
4.637e-07
-0.000262858
-1.20571e-07
-2.73938e-07
5.12846e-07
1.32197e-07
0.000262608
5.45096e-07
1.02554e-06
0.00111001
1.06738e-06
-1.34543e-06
-3.15739e-08
-6.89234e-07
6.17662e-07
-1.52207e-06
5.91278e-08
-5.6999e-07
-0.000263251
1.10087e-09
-4.55596e-07
0.000263104
6.57744e-07
-5.57764e-08
1.57383e-08
0.00110631
1.08006e-06
-1.42604e-06
4.68387e-07
-1.24148e-06
6.6416e-07
-7.27198e-08
-1.81792e-07
0.000262356
1.12038e-07
-0.000262356
1.42402e-07
-0.000298546
1.20518e-07
-1.06886e-07
3.13972e-07
-1.28897e-08
0.000298232
-0.000298455
1.17913e-07
-1.06847e-07
3.13853e-07
-1.29179e-08
0.000298143
-1.05214e-06
-1.01497e-06
0.000272262
-0.000270161
-2.0011e-08
-1.40524e-08
7.27144e-08
-7.6884e-08
0.000297481
1.22422e-08
-0.0002977
2.10813e-07
7.51263e-08
-7.68483e-08
0.000297389
1.24466e-08
-0.000297611
2.10656e-07
7.94744e-08
-2.04119e-08
0.000102656
-0.000102715
8.17464e-08
-2.0335e-08
0.000102639
-0.000102701
7.92444e-08
0.00029858
2.2584e-07
-0.000298813
7.24644e-09
8.16124e-08
0.000298499
2.20779e-07
-0.000298726
6.81626e-09
1.92633e-07
-0.000207018
-4.78628e-08
-8.65734e-11
3.26883e-07
-0.000247537
-2.08429e-07
-1.99715e-08
1.94759e-07
2.0361e-08
0.000206787
-0.000206954
-4.78074e-08
2.86712e-07
8.47075e-09
-5.51687e-08
0.000207362
-0.000207602
3.26816e-07
0.000247394
-0.000247493
-2.08354e-07
-1.99893e-08
0.000262863
1.5615e-07
-0.000262865
1.18207e-07
-3.29554e-09
0.0011047
1.08742e-06
-1.43321e-06
4.58946e-07
-1.24654e-06
6.57624e-07
-0.0011037
-9.34788e-10
0.000263263
-0.000263059
-6.06598e-08
1.85274e-07
-1.56623e-06
6.12676e-07
-6.96618e-07
-1.35602e-06
-3.89686e-08
1.05043e-06
-5.77192e-07
5.15263e-08
-0.00110606
5.25644e-07
1.06718e-06
-7.91672e-08
0.00026276
1.55878e-07
-0.00026276
1.1826e-07
0.00110466
1.08736e-06
-1.43292e-06
4.61705e-07
-1.24653e-06
6.60221e-07
-0.00110367
-1.2809e-07
1.38364e-07
5.18786e-07
0.000263004
-0.000263246
0.000263234
-0.000263034
-5.96321e-08
1.85236e-07
8.19627e-08
-0.000102696
1.12336e-07
0.000102862
-0.000102966
1.52926e-06
0.000269625
-5.8277e-07
-5.87887e-07
-0.00027155
0.000298456
2.23559e-07
-0.000298685
7.64483e-09
-8.17833e-08
8.17792e-08
0.000298587
2.23205e-07
-0.000298818
7.31744e-09
-1.47964e-08
3.22878e-07
0.000299235
-0.000299559
-1.12335e-07
1.25204e-07
-1.41677e-08
3.23139e-07
0.000299369
-0.000299691
-2.03191e-08
0.000102647
-0.000102708
-8.38697e-09
0.000102874
-0.000102978
1.9485e-07
-0.000206995
-4.77972e-08
3.26897e-07
-2.097e-10
-0.000247529
-1.99409e-08
-2.08425e-07
0.000262823
1.5329e-07
-0.000262818
1.18127e-07
-1.5678e-09
0.00110456
1.08718e-06
-1.43037e-06
4.64469e-07
-1.24654e-06
6.57346e-07
-0.00110357
-1.73066e-09
0.000263254
-0.00026305
-6.01288e-08
1.85263e-07
1.94335e-07
2.07793e-08
0.000206773
-0.00020694
-4.77994e-08
3.29488e-07
0.000247386
-0.00024749
-2.06255e-07
-2.01174e-08
0.00110452
1.08731e-06
-1.43029e-06
4.64571e-07
-1.24658e-06
6.57611e-07
-0.00110353
-7.96188e-08
0.000262753
1.52623e-07
-0.00026275
1.18633e-07
0.000263224
-0.000263025
1.87939e-07
-5.97423e-08
-4.68487e-07
1.81852e-09
-5.58407e-08
6.64784e-07
0.000262996
-0.000263138
5.24681e-07
1.01304e-06
-5.71596e-07
4.58654e-08
6.09935e-07
-6.93841e-07
-1.35073e-06
-3.88815e-08
-0.00110651
1.06801e-06
-1.94823e-07
1.55885e-07
-0.00026286
1.18187e-07
-0.00110349
-3.66386e-09
1.08181e-06
-1.43034e-06
4.58921e-07
6.57384e-07
-1.24375e-06
-2.86663e-07
1.38288e-07
5.18618e-07
0.000263104
-0.00026335
3.32151e-09
6.5259e-07
-1.24503e-06
-1.43117e-06
4.54123e-07
-0.00110249
1.09365e-06
-3.29463e-07
-1.77168e-09
-0.000263055
-6.01411e-08
1.87974e-07
2.83652e-10
-1.83144e-08
-2.65599e-07
0.000247821
-0.000248006
0.000206837
-0.000207004
-4.77875e-08
-5.5066e-08
0.000207412
-0.000207652
-2.15854e-10
0.000247435
-0.000247535
-1.9992e-08
-2.084e-07
-4.68471e-07
6.62137e-07
-5.57678e-08
0.000262973
-0.000263109
-0.00110344
0.00110444
1.08183e-06
-1.42747e-06
4.59015e-07
-1.24376e-06
6.54842e-07
-1.94489e-07
-7.96574e-08
0.000262792
1.5551e-07
-0.000262792
1.18549e-07
6.49958e-07
-1.24505e-06
-1.42833e-06
4.54146e-07
-0.00110244
-5.25498e-07
1.09369e-06
-3.29424e-07
0.000263229
-0.000263032
1.90661e-07
-6.02412e-08
-2.65584e-07
-1.79001e-08
0.00024778
-0.000247964
2.07573e-08
0.000206782
-0.00020695
-4.78686e-08
0.000247393
-0.000247494
-2.08368e-07
-2.03092e-08
8.25128e-08
-0.000102689
0.000298454
2.24619e-07
-0.000298686
9.86849e-09
-8.23746e-08
7.95675e-08
0.000298585
2.22128e-07
-0.000298814
9.35987e-09
-2.08099e-08
0.000102644
-0.000102705
-1.2433e-09
1.08171e-06
-1.42765e-06
4.59005e-07
6.54732e-07
-1.24377e-06
-0.00110335
-1.94369e-07
1.52671e-07
-0.000262855
1.18602e-07
-6.66911e-10
-3.26876e-07
-0.000263051
1.87961e-07
-6.05371e-08
0.00110429
1.08158e-06
-1.42459e-06
4.58961e-07
-1.24102e-06
6.54547e-07
-0.00110331
-1.94462e-07
-8.20244e-08
0.000262758
1.52762e-07
-0.000262753
1.18562e-07
-3.26829e-07
0.00026322
-0.000263023
1.87949e-07
-5.91687e-08
0.000206832
-0.000207
-4.77892e-08
5.04146e-11
0.000247431
-0.00024753
-2.02117e-08
-2.08414e-07
2.07829e-08
0.000206773
-0.00020694
-4.7866e-08
0.000247391
-0.000247489
-2.00263e-08
-2.0836e-07
-8.2317e-08
2.22015e-07
-0.000298774
8.23566e-09
-8.23445e-08
2.22042e-07
-0.000298685
8.43623e-09
0.000102635
-0.000102697
0.000102628
-0.000102689
1.08799e-07
0.000102556
7.44091e-08
0.000102351
-0.000102404
1.06407e-07
0.000102542
7.67013e-08
0.000102334
-0.000102389
1.20426e-07
3.07776e-07
-1.14046e-08
0.000298272
1.17754e-07
3.1268e-07
-1.05987e-08
0.000298185
0.000272308
-1.06344e-06
-1.01821e-06
-0.000270188
-2.48421e-08
-1.32157e-08
0.000297512
7.2514e-08
1.01825e-08
-0.000297734
2.1347e-07
0.000297431
7.4987e-08
9.5565e-09
-0.00029765
2.10787e-07
1.03626e-07
-9.85377e-09
0.000102257
1.0113e-07
-9.9089e-09
0.000102243
1.57005e-06
1.52794e-06
0.000270366
-5.7413e-07
-5.82526e-07
1.13448e-07
-1.03359e-08
2.98896e-07
0.000297214
1.13395e-07
-9.56752e-09
3.01185e-07
0.000297128
3.12006e-07
0.00024681
-0.000246912
-1.88643e-07
-2.16739e-08
2.73329e-07
-5.32737e-08
0.000206557
4.55481e-07
0.000247204
-2.4452e-07
-2.02976e-08
1.82447e-07
0.000206012
-4.5701e-08
-0.00020617
-1.0779e-09
0.000263359
-0.000263159
-6.04733e-08
1.73846e-07
5.09947e-07
1.31857e-07
0.000262617
0.00110568
3.7901e-09
1.08116e-06
6.65225e-07
-1.24541e-06
-1.42972e-06
4.69318e-07
5.18535e-07
0.00110958
1.05581e-06
-1.56972e-06
6.39396e-08
-5.78761e-07
-1.35056e-06
-3.1711e-08
-6.86175e-07
6.23306e-07
9.63996e-10
0.000263112
-5.53169e-08
6.60365e-07
0.00026236
1.11953e-07
-0.000262363
1.43201e-07
-3.7879e-09
0.00110666
1.08588e-06
-1.43156e-06
4.71133e-07
-1.24696e-06
6.67122e-07
0.00026333
-0.000263133
-5.94428e-08
1.73814e-07
-1.2043e-07
5.09835e-07
1.31994e-07
0.000262512
0.00110565
1.08112e-06
6.65071e-07
-1.24813e-06
-1.43214e-06
4.69293e-07
5.18489e-07
0.00110971
1.06084e-06
1.05026e-06
-1.35296e-06
-2.91736e-08
6.26054e-07
-6.88786e-07
-1.56727e-06
6.0835e-08
-5.76096e-07
0.000263086
-5.63179e-08
6.60333e-07
0.000262258
-7.26257e-08
1.11951e-07
-0.00026226
1.45652e-07
0.00110662
1.08035e-06
-1.43129e-06
4.73884e-07
-1.24695e-06
6.69689e-07
-6.19527e-11
4.40331e-07
-2.24938e-07
-2.1858e-08
0.00024666
2.63396e-07
-5.10784e-08
0.000205855
4.40331e-07
-2.24984e-07
-2.18844e-08
0.000246616
2.6085e-07
1.00708e-08
-5.10387e-08
0.000205792
3.08321e-10
-5.51379e-08
6.53584e-07
0.0002632
5.16523e-07
1.04526e-06
1.06624e-06
-5.77364e-07
6.5086e-08
6.27338e-07
-6.86648e-07
-2.63659e-08
-1.35266e-06
1.25848e-07
5.03849e-07
0.000262107
-5.11673e-09
1.06902e-06
6.71659e-07
-1.24599e-06
-1.43088e-06
4.78437e-07
-5.59002e-08
6.53548e-07
0.000263173
5.16484e-07
-1.5676e-06
1.04516e-06
6.30163e-07
-6.86449e-07
-1.35227e-06
-2.62642e-08
1.06373e-06
-5.74885e-07
6.20809e-08
-1.13353e-07
1.25931e-07
5.00969e-07
0.000262005
1.06896e-06
6.77e-07
-1.24597e-06
-1.43061e-06
4.81181e-07
3.10447e-07
-1.13183e-08
0.000298143
-1.06457e-07
3.10412e-07
-1.14379e-08
0.000298277
0.0002723
-0.000270183
-1.92574e-08
-1.3436e-08
0.000297389
1.03456e-08
-0.000297609
2.13293e-07
-7.67715e-08
0.00029752
1.04318e-08
-0.000297742
2.13367e-07
-9.37041e-09
0.000102549
0.000102341
-2.13151e-08
-0.000102397
1.01124e-07
0.000102238
1.53052e-06
0.000270361
-5.77548e-07
-5.8224e-07
-9.6664e-09
2.98939e-07
0.000297088
-1.01178e-07
1.11221e-07
-1.03663e-08
2.98948e-07
0.000297221
-9.93804e-09
0.00010225
-1.01198e-09
0.000263347
-0.000263152
-6.05096e-08
1.76576e-07
5.12425e-07
1.31843e-07
0.00026257
0.00110554
1.08604e-08
1.08085e-06
6.62172e-07
-1.24812e-06
-1.4296e-06
4.66495e-07
5.28314e-07
0.00111055
1.05101e-06
-1.52493e-06
5.54222e-08
-5.70694e-07
-1.34773e-06
-3.14988e-08
-6.8618e-07
6.20599e-07
2.043e-09
0.000263106
-5.60771e-08
6.57724e-07
0.000262321
1.11889e-07
-0.000262319
1.43048e-07
1.74706e-08
0.00110651
1.07469e-06
-1.42872e-06
4.71122e-07
-1.24145e-06
6.66866e-07
3.12095e-07
0.000246804
-0.000246908
-1.86549e-07
-2.17089e-08
2.73808e-07
-5.35729e-08
0.000206543
4.52866e-07
0.0002472
-2.46662e-07
-2.01153e-08
1.79403e-07
0.000206
-4.54968e-08
-0.000206155
0.000263317
-0.000263126
1.79294e-07
-5.91421e-08
0.00110552
1.07554e-06
6.62288e-07
-1.24813e-06
-1.42944e-06
4.66504e-07
-1.20511e-07
5.12747e-07
1.32171e-07
0.000262502
4.86964e-07
0.00110968
1.04949e-06
1.03995e-06
-1.34805e-06
-2.90788e-08
6.20381e-07
-6.86499e-07
-1.56718e-06
5.61862e-08
-5.78287e-07
0.00026308
6.55034e-07
-5.59557e-08
0.00110648
1.07497e-06
-1.42868e-06
4.71145e-07
-1.24154e-06
6.66929e-07
0.000262251
-7.53173e-08
1.12048e-07
-0.00026225
1.42307e-07
4.43001e-07
3.93871e-10
-2.21652e-08
-2.2504e-07
0.000246652
2.60926e-07
-4.82583e-08
0.00020583
2.47379e-09
-5.61881e-08
6.50904e-07
0.000263192
5.20882e-07
1.04581e-06
1.02372e-06
-5.69235e-07
5.65079e-08
-6.83902e-07
-1.34708e-06
6.24585e-07
-2.85442e-08
1.30985e-07
5.03675e-07
0.000262061
5.17751e-08
1.06855e-06
-1.24316e-06
-1.42802e-06
0.00110744
6.71389e-07
4.72894e-07
4.40275e-07
-2.27106e-07
-2.17466e-08
0.000246613
2.63109e-07
1.03449e-08
-5.11448e-08
0.000205778
6.48192e-07
-5.49668e-08
0.000263167
3.37706e-07
-1.60028e-06
8.97618e-07
-6.83328e-07
-1.34653e-06
9.83239e-07
-5.90047e-07
5.45207e-08
0.00111103
6.27708e-07
-2.35293e-08
1.09084e-06
-1.24319e-06
-1.42784e-06
0.00110731
6.71448e-07
4.72882e-07
-1.11031e-07
1.26184e-07
5.03228e-07
0.000261995
-1.61929e-10
0.00024685
-0.000246954
-2.17035e-08
-1.88691e-07
-5.3194e-08
0.000206607
2.04377e-10
0.000247246
-2.03209e-08
-2.44594e-07
0.000206062
-4.57293e-08
-0.00020622
-3.14605e-07
0.000263325
-0.000263131
1.79272e-07
-5.99336e-08
0.00110543
1.08099e-06
6.59583e-07
-1.24261e-06
4.63738e-07
-1.42666e-06
-2.73844e-07
5.10195e-07
1.32112e-07
0.000262544
5.1887e-07
0.0011093
1.04508e-06
-1.5589e-06
5.94494e-08
-5.75841e-07
-1.34513e-06
-3.15441e-08
-6.86256e-07
6.17853e-07
-4.52998e-07
0.000263084
6.55043e-07
-5.58862e-08
0.00110641
1.06942e-06
-1.42311e-06
4.65608e-07
-1.23871e-06
6.61509e-07
-1.81913e-07
0.00026229
1.12022e-07
-0.000262292
1.45132e-07
0.000246809
-0.000246913
-1.88651e-07
-2.19287e-08
9.67569e-09
-5.35199e-08
0.000206552
0.000247205
-2.44592e-07
-2.00704e-08
0.000206007
2.14658e-08
-4.56283e-08
-0.000206165
-4.37839e-07
1.78553e-09
-5.54015e-08
6.50917e-07
0.000263195
5.15512e-07
1.04585e-06
1.02624e-06
-5.69282e-07
5.94934e-08
6.27438e-07
-6.86519e-07
-1.34972e-06
-2.609e-08
-2.61035e-07
1.25983e-07
5.0127e-07
0.000262106
5.34883e-09
1.06873e-06
6.71417e-07
-1.24042e-06
-1.42798e-06
4.72853e-07
1.59211e-10
-2.18457e-08
-2.25044e-07
0.000246659
-5.10387e-08
0.000205842
-4.37826e-07
6.48231e-07
-5.57145e-08
0.000263172
5.16311e-07
-1.5592e-06
1.04486e-06
6.2207e-07
-6.83426e-07
-1.34387e-06
-2.85664e-08
1.05573e-06
-5.75475e-07
6.31452e-08
1.0688e-06
6.66076e-07
-1.23766e-06
-1.42233e-06
4.7013e-07
-2.60955e-07
-1.13671e-07
1.26149e-07
5.00899e-07
0.000262038
-2.25047e-07
-2.17036e-08
0.000246618
1.03129e-08
-5.11868e-08
0.000205787
3.12036e-07
-1.3804e-08
0.000298142
-1.07068e-07
3.14551e-07
-1.32382e-08
0.00029827
0.000272289
-0.000270174
-1.73568e-08
-2.29401e-08
0.000297384
1.38472e-08
-0.000297612
2.12895e-07
-7.67698e-08
0.00029752
1.33679e-08
-0.00029774
2.10409e-07
-9.76174e-09
0.000102547
0.000102339
-2.14129e-08
-0.000102394
1.04129e-07
0.000102231
1.5005e-06
0.000270352
-5.67793e-07
-5.95618e-07
-8.90137e-09
3.00061e-07
0.000297086
-1.01835e-07
1.13575e-07
-8.33809e-09
3.05192e-07
0.000297212
-1.04019e-08
0.000102247
-3.12009e-07
0.000263316
-0.000263123
1.76547e-07
-5.83843e-08
0.00110529
1.08617e-06
6.5648e-07
-1.24259e-06
4.60862e-07
-1.42653e-06
-2.73824e-07
5.12727e-07
1.32048e-07
0.000262505
5.12563e-07
0.00111026
1.05125e-06
-1.52224e-06
5.37724e-08
-5.70518e-07
-1.3477e-06
-2.8944e-08
-6.8894e-07
6.20644e-07
-4.55552e-07
0.000263076
6.57731e-07
-5.66409e-08
0.00110628
1.07461e-06
-1.42302e-06
4.65546e-07
-1.23873e-06
6.61234e-07
-1.81882e-07
0.000262256
1.12056e-07
-0.000262253
1.42365e-07
1.57259e-10
0.000246847
-0.000246948
-2.203e-08
-1.88687e-07
-5.35419e-08
0.000206602
2.16491e-10
0.000247241
-2.04191e-08
-2.446e-07
0.000206057
-4.55008e-08
-0.000206215
0.000246806
-0.000246908
-2.14377e-08
-1.88644e-07
9.64296e-09
-5.34837e-08
0.000206543
0.0002472
-2.03142e-08
-2.44566e-07
0.000205998
2.14514e-08
-4.55899e-08
-0.000206156
1.42032e-09
-4.40387e-07
6.50873e-07
-5.5792e-08
0.000263191
6.72364e-07
1.22012e-06
1.09423e-06
-5.65224e-07
6.89926e-08
6.25095e-07
-6.88754e-07
-1.34658e-06
-2.84129e-08
0.00111046
4.69345e-08
1.05202e-06
6.68876e-07
-1.24035e-06
-1.42517e-06
4.72954e-07
-2.60873e-07
1.26214e-07
5.05894e-07
0.000262098
-4.40357e-07
6.50879e-07
-5.64604e-08
0.000263164
4.98889e-07
-1.52247e-06
1.04551e-06
6.24895e-07
-6.86057e-07
-1.34639e-06
-2.59645e-08
1.01857e-06
-5.70082e-07
5.75057e-08
1.06862e-06
6.65748e-07
-1.23765e-06
-1.42221e-06
4.70031e-07
-2.60918e-07
-1.10952e-07
1.26077e-07
5.03374e-07
0.000261998
3.18645e-10
-2.20162e-08
-2.25034e-07
0.000246653
-5.11586e-08
0.000205837
-2.19115e-08
-2.25012e-07
0.000246613
1.02915e-08
-5.11554e-08
0.000205778
0.000102538
0.00010233
-0.000102385
0.000102531
0.000102323
-0.000102378
0.000270341
-5.77155e-07
-5.83037e-07
-1.01663e-07
-9.18438e-09
3.02349e-07
0.000297176
-1.01635e-07
-8.99994e-09
3.02277e-07
0.000297087
0.000102239
0.000102232
-7.45228e-09
1.69919e-07
0.000151017
-0.000151193
1.34276e-08
-2.34532e-07
-2.12574e-08
-0.000247147
-4.78753e-11
4.47843e-07
-0.000181155
5.86367e-09
-5.73487e-12
0.000180961
-0.000240593
-1.27192e-07
-2.59575e-08
0.000240448
2.76217e-07
-0.000181397
-4.88376e-12
-0.000240832
-2.74658e-08
4.15427e-07
1.23956e-08
0.000150884
-8.26823e-05
3.87068e-08
-1.20793e-08
8.26557e-05
-7.62638e-08
0.000283251
2.70666e-08
-0.000283604
3.49474e-07
-4.67364e-08
0.000206461
2.12803e-08
1.85676e-07
-1.3002e-08
-8.27455e-05
2.58947e-08
0.000282994
2.22861e-07
-0.000151334
-4.63355e-09
1.33232e-07
-1.98377e-07
-2.10085e-08
1.16494e-10
3.19325e-07
6.08957e-09
0.0001816
-0.000181851
9.64129e-12
-1.76207e-07
0.000240976
-0.000241216
4.22341e-07
-0.000151517
6.7492e-13
2.82565e-07
7.58537e-08
8.25932e-05
-0.000282647
-3.82419e-08
0.000282397
2.16826e-07
-5.24841e-08
1.01579e-08
2.69696e-07
3.42602e-07
8.25674e-05
0.000102479
-2.11768e-08
7.9747e-08
-1.01699e-08
1.04174e-07
1.70013e-07
-7.41541e-09
0.000151013
-0.000151189
1.3365e-08
-2.15966e-08
-2.34623e-07
-0.00024714
3.48591e-10
4.4793e-07
-0.000240583
-1.27133e-07
-2.60426e-08
0.000240438
2.76233e-07
-0.00018115
5.85236e-09
-1.62084e-11
0.000180955
-0.000240823
-2.748e-08
4.15495e-07
-0.000181392
1.80563e-11
1.23558e-08
0.000150879
-8.26813e-05
3.86264e-08
-1.20228e-08
8.26547e-05
-7.62013e-08
0.000283246
2.70705e-08
-0.000283597
3.46849e-07
-4.66754e-08
0.000206435
2.12214e-08
1.87906e-07
-1.29109e-08
-8.27446e-05
2.59986e-08
0.000282987
2.25271e-07
-0.000151329
1.33172e-07
-4.58734e-09
-2.1006e-08
-1.98363e-07
1.39106e-10
3.19341e-07
-1.7632e-07
0.000240967
-0.000241207
4.22439e-07
6.04402e-09
0.000181595
-0.000181845
3.42521e-11
-0.000151513
2.82525e-07
3.06984e-11
7.58042e-08
8.25923e-05
-0.000282643
-3.81805e-08
0.00028239
2.19335e-07
-5.24697e-08
1.02074e-08
2.67358e-07
3.40074e-07
8.25664e-05
0.000102474
-2.09927e-08
7.69085e-08
-9.63688e-09
1.0601e-07