/*--------------------------------*- C++ -*----------------------------------*\
| =========                 |                                                 |
| \\      /  F ield         | OpenFOAM: The Open Source CFD Toolbox           |
|  \\    /   O peration     | Version:  v2012                                 |
|   \\  /    A nd           | Website:  www.openfoam.com                      |
|    \\/     M anipulation  |                                                 |
\*---------------------------------------------------------------------------*/
FoamFile
{
    version     2.0;
    format      ascii;
    class       volScalarField;
    location    "0.37";
    object      p;
}
// * * * * * * * * * * * * * * * * * * * * * * * * * * * * * * * * * * * * * //

dimensions      [0 2 -2 0 0 0 0];


internalField   nonuniform List<scalar> 
247104
(
1.84621e-06
1.8461e-06
1.84625e-06
1.84623e-06
1.84614e-06
1.84625e-06
1.84624e-06
1.84603e-06
1.84611e-06
1.84617e-06
1.84622e-06
1.84607e-06
1.84598e-06
1.84609e-06
1.84623e-06
1.84614e-06
1.84625e-06
1.84622e-06
1.84592e-06
1.84556e-06
1.84541e-06
1.84559e-06
1.84597e-06
1.84624e-06
1.84626e-06
1.84623e-06
1.84607e-06
1.84556e-06
1.84507e-06
1.8449e-06
1.84512e-06
1.84563e-06
1.84612e-06
1.84623e-06
1.84621e-06
1.84614e-06
1.84598e-06
1.84541e-06
1.8449e-06
1.84472e-06
1.84495e-06
1.84549e-06
1.84603e-06
1.84613e-06
1.84625e-06
1.84609e-06
1.84559e-06
1.84512e-06
1.84495e-06
1.84517e-06
1.84566e-06
1.84614e-06
1.84625e-06
1.84624e-06
1.84623e-06
1.84597e-06
1.84563e-06
1.84549e-06
1.84566e-06
1.84601e-06
1.84625e-06
1.84624e-06
1.84604e-06
1.84614e-06
1.84624e-06
1.84612e-06
1.84603e-06
1.84614e-06
1.84625e-06
1.8461e-06
1.84625e-06
1.84623e-06
1.84613e-06
1.84625e-06
1.84624e-06
1.81322e-06
1.81123e-06
1.81064e-06
1.80941e-06
1.80943e-06
1.80937e-06
1.80937e-06
1.81068e-06
1.81092e-06
1.81063e-06
1.80858e-06
1.80594e-06
1.80592e-06
1.80592e-06
1.80595e-06
1.80896e-06
1.80922e-06
1.80941e-06
1.80594e-06
1.80589e-06
1.80595e-06
1.80595e-06
1.80589e-06
1.80595e-06
1.80934e-06
1.81063e-06
1.81323e-06
1.80943e-06
1.80592e-06
1.80595e-06
1.80605e-06
1.80605e-06
1.80595e-06
1.80592e-06
1.80933e-06
1.81097e-06
1.81123e-06
1.80937e-06
1.80592e-06
1.80595e-06
1.80605e-06
1.80605e-06
1.80595e-06
1.80592e-06
1.80951e-06
1.80957e-06
1.80937e-06
1.80594e-06
1.80589e-06
1.80595e-06
1.80595e-06
1.80589e-06
1.80595e-06
1.80928e-06
1.81054e-06
1.81068e-06
1.80896e-06
1.80594e-06
1.80592e-06
1.80592e-06
1.80595e-06
1.80919e-06
1.80937e-06
1.81083e-06
1.81093e-06
1.80922e-06
1.80934e-06
1.80933e-06
1.80951e-06
1.80928e-06
1.80937e-06
1.81098e-06
1.81063e-06
1.81097e-06
1.80957e-06
1.81053e-06
1.81083e-06
1.7931e-06
1.79293e-06
1.79276e-06
1.79065e-06
1.79054e-06
1.7905e-06
1.79062e-06
1.79271e-06
1.79297e-06
1.79276e-06
1.78994e-06
1.787e-06
1.78695e-06
1.78695e-06
1.787e-06
1.79043e-06
1.79109e-06
1.79065e-06
1.787e-06
1.78675e-06
1.78678e-06
1.78678e-06
1.78675e-06
1.787e-06
1.79123e-06
1.79319e-06
1.7931e-06
1.79055e-06
1.78695e-06
1.78678e-06
1.78682e-06
1.78682e-06
1.78678e-06
1.78694e-06
1.79128e-06
1.79294e-06
1.79293e-06
1.7905e-06
1.78694e-06
1.78678e-06
1.78682e-06
1.78682e-06
1.78679e-06
1.78695e-06
1.79123e-06
1.79122e-06
1.79063e-06
1.787e-06
1.78675e-06
1.78678e-06
1.78678e-06
1.78675e-06
1.78701e-06
1.79128e-06
1.79328e-06
1.79271e-06
1.79043e-06
1.787e-06
1.78694e-06
1.78695e-06
1.787e-06
1.7909e-06
1.7912e-06
1.79319e-06
1.79297e-06
1.79109e-06
1.79123e-06
1.79128e-06
1.79123e-06
1.79128e-06
1.7912e-06
1.79308e-06
1.79319e-06
1.79294e-06
1.79122e-06
1.79328e-06
1.79319e-06
1.77414e-06
1.77397e-06
1.77383e-06
1.77168e-06
1.77157e-06
1.77149e-06
1.77167e-06
1.77377e-06
1.77405e-06
1.77383e-06
1.77095e-06
1.76799e-06
1.76796e-06
1.76796e-06
1.76799e-06
1.77141e-06
1.77218e-06
1.77168e-06
1.76799e-06
1.76788e-06
1.76789e-06
1.76789e-06
1.76788e-06
1.76799e-06
1.77228e-06
1.77423e-06
1.77414e-06
1.77157e-06
1.76796e-06
1.76789e-06
1.7679e-06
1.7679e-06
1.76789e-06
1.76796e-06
1.77234e-06
1.77398e-06
1.77397e-06
1.77149e-06
1.76796e-06
1.76789e-06
1.7679e-06
1.76789e-06
1.76789e-06
1.76796e-06
1.77231e-06
1.7723e-06
1.77168e-06
1.76799e-06
1.76788e-06
1.76789e-06
1.76789e-06
1.76788e-06
1.76799e-06
1.77232e-06
1.7743e-06
1.77378e-06
1.77141e-06
1.76799e-06
1.76796e-06
1.76796e-06
1.76799e-06
1.77206e-06
1.77229e-06
1.77426e-06
1.77405e-06
1.77218e-06
1.77228e-06
1.77234e-06
1.77231e-06
1.77232e-06
1.77229e-06
1.77428e-06
1.77423e-06
1.77398e-06
1.7723e-06
1.7743e-06
1.77426e-06
1.75518e-06
1.75501e-06
1.75484e-06
1.75268e-06
1.75257e-06
1.75248e-06
1.75267e-06
1.75479e-06
1.75506e-06
1.75484e-06
1.75196e-06
1.74898e-06
1.74897e-06
1.74897e-06
1.74898e-06
1.75238e-06
1.7532e-06
1.75268e-06
1.74898e-06
1.74895e-06
1.74895e-06
1.74895e-06
1.74895e-06
1.74898e-06
1.7533e-06
1.75525e-06
1.75518e-06
1.75257e-06
1.74897e-06
1.74895e-06
1.74895e-06
1.74895e-06
1.74895e-06
1.74897e-06
1.75338e-06
1.75503e-06
1.75501e-06
1.75248e-06
1.74897e-06
1.74895e-06
1.74895e-06
1.74895e-06
1.74895e-06
1.74897e-06
1.75336e-06
1.75335e-06
1.75267e-06
1.74898e-06
1.74895e-06
1.74895e-06
1.74895e-06
1.74895e-06
1.74898e-06
1.75335e-06
1.75536e-06
1.75479e-06
1.75238e-06
1.74898e-06
1.74897e-06
1.74897e-06
1.74898e-06
1.75312e-06
1.75333e-06
1.75528e-06
1.75506e-06
1.7532e-06
1.7533e-06
1.75338e-06
1.75336e-06
1.75335e-06
1.75333e-06
1.75527e-06
1.75526e-06
1.75503e-06
1.75335e-06
1.75535e-06
1.75528e-06
1.73619e-06
1.73602e-06
1.73585e-06
1.73369e-06
1.73357e-06
1.73349e-06
1.73367e-06
1.7358e-06
1.73606e-06
1.73585e-06
1.73297e-06
1.72998e-06
1.72998e-06
1.72998e-06
1.72998e-06
1.73337e-06
1.7342e-06
1.73369e-06
1.72998e-06
1.72997e-06
1.72998e-06
1.72997e-06
1.72997e-06
1.72998e-06
1.73431e-06
1.73627e-06
1.73619e-06
1.73357e-06
1.72998e-06
1.72998e-06
1.72998e-06
1.72998e-06
1.72998e-06
1.72998e-06
1.7344e-06
1.73605e-06
1.73602e-06
1.73349e-06
1.72998e-06
1.72998e-06
1.72998e-06
1.72998e-06
1.72998e-06
1.72998e-06
1.73438e-06
1.73436e-06
1.73368e-06
1.72998e-06
1.72997e-06
1.72998e-06
1.72998e-06
1.72997e-06
1.72998e-06
1.73437e-06
1.73637e-06
1.73579e-06
1.73337e-06
1.72998e-06
1.72998e-06
1.72998e-06
1.72998e-06
1.73414e-06
1.73435e-06
1.73629e-06
1.73606e-06
1.7342e-06
1.73431e-06
1.7344e-06
1.73438e-06
1.73437e-06
1.73435e-06
1.73628e-06
1.73627e-06
1.73605e-06
1.73437e-06
1.73637e-06
1.73629e-06
1.7172e-06
1.71703e-06
1.71685e-06
1.71469e-06
1.71458e-06
1.71449e-06
1.71468e-06
1.7168e-06
1.71707e-06
1.71685e-06
1.71398e-06
1.71099e-06
1.71099e-06
1.71099e-06
1.71099e-06
1.71437e-06
1.7152e-06
1.71469e-06
1.71099e-06
1.71099e-06
1.71099e-06
1.71099e-06
1.71099e-06
1.71099e-06
1.71531e-06
1.71728e-06
1.7172e-06
1.71458e-06
1.71099e-06
1.71099e-06
1.71099e-06
1.71099e-06
1.71099e-06
1.71099e-06
1.71541e-06
1.71706e-06
1.71703e-06
1.71449e-06
1.71099e-06
1.71099e-06
1.71099e-06
1.71099e-06
1.71099e-06
1.71099e-06
1.71539e-06
1.71538e-06
1.71468e-06
1.71099e-06
1.71099e-06
1.71099e-06
1.71099e-06
1.71099e-06
1.71099e-06
1.71538e-06
1.71738e-06
1.71681e-06
1.71437e-06
1.71099e-06
1.71099e-06
1.71099e-06
1.71099e-06
1.71515e-06
1.71536e-06
1.7173e-06
1.71707e-06
1.71521e-06
1.71531e-06
1.71541e-06
1.71539e-06
1.71538e-06
1.71536e-06
1.71729e-06
1.71727e-06
1.71706e-06
1.71538e-06
1.71738e-06
1.7173e-06
1.69821e-06
1.69804e-06
1.69786e-06
1.6957e-06
1.69559e-06
1.6955e-06
1.69569e-06
1.69781e-06
1.69808e-06
1.69786e-06
1.69499e-06
1.692e-06
1.692e-06
1.692e-06
1.692e-06
1.69538e-06
1.69621e-06
1.6957e-06
1.692e-06
1.692e-06
1.692e-06
1.692e-06
1.692e-06
1.692e-06
1.69632e-06
1.69828e-06
1.69821e-06
1.69559e-06
1.692e-06
1.692e-06
1.692e-06
1.692e-06
1.692e-06
1.692e-06
1.69642e-06
1.69807e-06
1.69804e-06
1.6955e-06
1.692e-06
1.692e-06
1.692e-06
1.692e-06
1.692e-06
1.692e-06
1.6964e-06
1.69639e-06
1.69569e-06
1.692e-06
1.692e-06
1.692e-06
1.692e-06
1.692e-06
1.692e-06
1.69639e-06
1.69839e-06
1.69781e-06
1.69538e-06
1.692e-06
1.692e-06
1.692e-06
1.692e-06
1.69616e-06
1.69637e-06
1.69831e-06
1.69808e-06
1.69621e-06
1.69632e-06
1.69642e-06
1.6964e-06
1.69639e-06
1.69637e-06
1.69829e-06
1.69828e-06
1.69808e-06
1.69639e-06
1.69839e-06
1.69831e-06
1.67922e-06
1.67905e-06
1.67887e-06
1.67671e-06
1.6766e-06
1.67651e-06
1.6767e-06
1.67882e-06
1.67909e-06
1.67887e-06
1.676e-06
1.67301e-06
1.67301e-06
1.67301e-06
1.67301e-06
1.67639e-06
1.67722e-06
1.67671e-06
1.67301e-06
1.67301e-06
1.67301e-06
1.67301e-06
1.67301e-06
1.67301e-06
1.67733e-06
1.67929e-06
1.67922e-06
1.6766e-06
1.67301e-06
1.67301e-06
1.67301e-06
1.67301e-06
1.67301e-06
1.67301e-06
1.67743e-06
1.67909e-06
1.67905e-06
1.67651e-06
1.67301e-06
1.67301e-06
1.67301e-06
1.67301e-06
1.67301e-06
1.67301e-06
1.67741e-06
1.6774e-06
1.6767e-06
1.67301e-06
1.67301e-06
1.67301e-06
1.67301e-06
1.67301e-06
1.67301e-06
1.6774e-06
1.6794e-06
1.67882e-06
1.67639e-06
1.67301e-06
1.67301e-06
1.67301e-06
1.67301e-06
1.67717e-06
1.67738e-06
1.67932e-06
1.67909e-06
1.67722e-06
1.67733e-06
1.67743e-06
1.67741e-06
1.6774e-06
1.67738e-06
1.6793e-06
1.67929e-06
1.67909e-06
1.6774e-06
1.6794e-06
1.67932e-06
1.66023e-06
1.66006e-06
1.65988e-06
1.65772e-06
1.65761e-06
1.65752e-06
1.65771e-06
1.65983e-06
1.6601e-06
1.65988e-06
1.65701e-06
1.65402e-06
1.65402e-06
1.65402e-06
1.65402e-06
1.6574e-06
1.65823e-06
1.65772e-06
1.65402e-06
1.65402e-06
1.65402e-06
1.65402e-06
1.65402e-06
1.65402e-06
1.65834e-06
1.6603e-06
1.66023e-06
1.65761e-06
1.65402e-06
1.65402e-06
1.65402e-06
1.65402e-06
1.65402e-06
1.65402e-06
1.65843e-06
1.66009e-06
1.66006e-06
1.65752e-06
1.65402e-06
1.65402e-06
1.65402e-06
1.65402e-06
1.65402e-06
1.65402e-06
1.65842e-06
1.65841e-06
1.65771e-06
1.65402e-06
1.65402e-06
1.65402e-06
1.65402e-06
1.65402e-06
1.65402e-06
1.65841e-06
1.66041e-06
1.65983e-06
1.6574e-06
1.65402e-06
1.65402e-06
1.65402e-06
1.65402e-06
1.65818e-06
1.65839e-06
1.66033e-06
1.6601e-06
1.65823e-06
1.65834e-06
1.65843e-06
1.65842e-06
1.65841e-06
1.65839e-06
1.66031e-06
1.6603e-06
1.66009e-06
1.65841e-06
1.66041e-06
1.66033e-06
1.64124e-06
1.64107e-06
1.64089e-06
1.63873e-06
1.63862e-06
1.63853e-06
1.63872e-06
1.64084e-06
1.6411e-06
1.64089e-06
1.63802e-06
1.63503e-06
1.63503e-06
1.63503e-06
1.63503e-06
1.63841e-06
1.63924e-06
1.63873e-06
1.63503e-06
1.63503e-06
1.63503e-06
1.63503e-06
1.63503e-06
1.63503e-06
1.63935e-06
1.64131e-06
1.64124e-06
1.63862e-06
1.63503e-06
1.63503e-06
1.63503e-06
1.63503e-06
1.63503e-06
1.63503e-06
1.63944e-06
1.6411e-06
1.64107e-06
1.63853e-06
1.63503e-06
1.63503e-06
1.63503e-06
1.63503e-06
1.63503e-06
1.63503e-06
1.63943e-06
1.63941e-06
1.63872e-06
1.63503e-06
1.63503e-06
1.63503e-06
1.63503e-06
1.63503e-06
1.63503e-06
1.63941e-06
1.64142e-06
1.64084e-06
1.63841e-06
1.63503e-06
1.63503e-06
1.63503e-06
1.63503e-06
1.63919e-06
1.6394e-06
1.64133e-06
1.6411e-06
1.63924e-06
1.63935e-06
1.63944e-06
1.63942e-06
1.63941e-06
1.6394e-06
1.64132e-06
1.64131e-06
1.6411e-06
1.63941e-06
1.64142e-06
1.64133e-06
1.62225e-06
1.62208e-06
1.6219e-06
1.61974e-06
1.61963e-06
1.61954e-06
1.61973e-06
1.62185e-06
1.62211e-06
1.6219e-06
1.61903e-06
1.61604e-06
1.61604e-06
1.61604e-06
1.61604e-06
1.61942e-06
1.62025e-06
1.61974e-06
1.61604e-06
1.61604e-06
1.61604e-06
1.61604e-06
1.61604e-06
1.61604e-06
1.62036e-06
1.62232e-06
1.62225e-06
1.61963e-06
1.61604e-06
1.61604e-06
1.61604e-06
1.61604e-06
1.61604e-06
1.61604e-06
1.62045e-06
1.62211e-06
1.62208e-06
1.61954e-06
1.61604e-06
1.61604e-06
1.61604e-06
1.61604e-06
1.61604e-06
1.61604e-06
1.62043e-06
1.62042e-06
1.61973e-06
1.61604e-06
1.61604e-06
1.61604e-06
1.61604e-06
1.61604e-06
1.61604e-06
1.62042e-06
1.62243e-06
1.62185e-06
1.61942e-06
1.61604e-06
1.61604e-06
1.61604e-06
1.61604e-06
1.6202e-06
1.62041e-06
1.62234e-06
1.62211e-06
1.62025e-06
1.62036e-06
1.62045e-06
1.62043e-06
1.62042e-06
1.6204e-06
1.62233e-06
1.62232e-06
1.62211e-06
1.62042e-06
1.62243e-06
1.62234e-06
1.60325e-06
1.60308e-06
1.60291e-06
1.60075e-06
1.60064e-06
1.60055e-06
1.60074e-06
1.60286e-06
1.60312e-06
1.60291e-06
1.60003e-06
1.59704e-06
1.59704e-06
1.59704e-06
1.59704e-06
1.60043e-06
1.60126e-06
1.60075e-06
1.59704e-06
1.59704e-06
1.59704e-06
1.59704e-06
1.59704e-06
1.59704e-06
1.60136e-06
1.60333e-06
1.60325e-06
1.60064e-06
1.59704e-06
1.59704e-06
1.59704e-06
1.59704e-06
1.59704e-06
1.59704e-06
1.60146e-06
1.60312e-06
1.60308e-06
1.60055e-06
1.59704e-06
1.59704e-06
1.59704e-06
1.59704e-06
1.59704e-06
1.59704e-06
1.60144e-06
1.60143e-06
1.60074e-06
1.59704e-06
1.59704e-06
1.59704e-06
1.59704e-06
1.59704e-06
1.59704e-06
1.60143e-06
1.60344e-06
1.60286e-06
1.60043e-06
1.59704e-06
1.59704e-06
1.59704e-06
1.59704e-06
1.60121e-06
1.60141e-06
1.60335e-06
1.60312e-06
1.60126e-06
1.60136e-06
1.60146e-06
1.60144e-06
1.60143e-06
1.60141e-06
1.60334e-06
1.60333e-06
1.60312e-06
1.60143e-06
1.60344e-06
1.60335e-06
1.58426e-06
1.58409e-06
1.58391e-06
1.58176e-06
1.58164e-06
1.58156e-06
1.58174e-06
1.58387e-06
1.58413e-06
1.58391e-06
1.58104e-06
1.57805e-06
1.57805e-06
1.57805e-06
1.57805e-06
1.58143e-06
1.58227e-06
1.58175e-06
1.57805e-06
1.57805e-06
1.57805e-06
1.57805e-06
1.57805e-06
1.57805e-06
1.58237e-06
1.58434e-06
1.58426e-06
1.58164e-06
1.57805e-06
1.57805e-06
1.57805e-06
1.57805e-06
1.57805e-06
1.57805e-06
1.58247e-06
1.58413e-06
1.58409e-06
1.58156e-06
1.57805e-06
1.57805e-06
1.57805e-06
1.57805e-06
1.57805e-06
1.57805e-06
1.58245e-06
1.58244e-06
1.58174e-06
1.57805e-06
1.57805e-06
1.57805e-06
1.57805e-06
1.57805e-06
1.57805e-06
1.58244e-06
1.58445e-06
1.58387e-06
1.58143e-06
1.57805e-06
1.57805e-06
1.57805e-06
1.57805e-06
1.58222e-06
1.58242e-06
1.58436e-06
1.58413e-06
1.58227e-06
1.58237e-06
1.58247e-06
1.58245e-06
1.58244e-06
1.58242e-06
1.58435e-06
1.58434e-06
1.58413e-06
1.58244e-06
1.58445e-06
1.58436e-06
1.56527e-06
1.5651e-06
1.56492e-06
1.56276e-06
1.56265e-06
1.56256e-06
1.56275e-06
1.56487e-06
1.56514e-06
1.56492e-06
1.56205e-06
1.55906e-06
1.55906e-06
1.55906e-06
1.55906e-06
1.56244e-06
1.56327e-06
1.56276e-06
1.55906e-06
1.55906e-06
1.55906e-06
1.55906e-06
1.55906e-06
1.55906e-06
1.56338e-06
1.56535e-06
1.56527e-06
1.56265e-06
1.55906e-06
1.55906e-06
1.55906e-06
1.55906e-06
1.55906e-06
1.55906e-06
1.56348e-06
1.56514e-06
1.5651e-06
1.56256e-06
1.55906e-06
1.55906e-06
1.55906e-06
1.55906e-06
1.55906e-06
1.55906e-06
1.56346e-06
1.56345e-06
1.56275e-06
1.55906e-06
1.55906e-06
1.55906e-06
1.55906e-06
1.55906e-06
1.55906e-06
1.56345e-06
1.56545e-06
1.56487e-06
1.56244e-06
1.55906e-06
1.55906e-06
1.55906e-06
1.55906e-06
1.56322e-06
1.56343e-06
1.56537e-06
1.56514e-06
1.56327e-06
1.56338e-06
1.56348e-06
1.56346e-06
1.56345e-06
1.56343e-06
1.56536e-06
1.56534e-06
1.56514e-06
1.56345e-06
1.56545e-06
1.56537e-06
1.54628e-06
1.54611e-06
1.54593e-06
1.54377e-06
1.54366e-06
1.54357e-06
1.54376e-06
1.54588e-06
1.54614e-06
1.54593e-06
1.54306e-06
1.54007e-06
1.54007e-06
1.54007e-06
1.54007e-06
1.54345e-06
1.54428e-06
1.54377e-06
1.54007e-06
1.54007e-06
1.54007e-06
1.54007e-06
1.54007e-06
1.54007e-06
1.54439e-06
1.54635e-06
1.54628e-06
1.54366e-06
1.54007e-06
1.54007e-06
1.54007e-06
1.54007e-06
1.54007e-06
1.54007e-06
1.54448e-06
1.54614e-06
1.54611e-06
1.54357e-06
1.54007e-06
1.54007e-06
1.54007e-06
1.54007e-06
1.54007e-06
1.54007e-06
1.54447e-06
1.54445e-06
1.54376e-06
1.54007e-06
1.54007e-06
1.54007e-06
1.54007e-06
1.54007e-06
1.54007e-06
1.54445e-06
1.54646e-06
1.54588e-06
1.54345e-06
1.54007e-06
1.54007e-06
1.54007e-06
1.54007e-06
1.54423e-06
1.54444e-06
1.54637e-06
1.54614e-06
1.54428e-06
1.54439e-06
1.54448e-06
1.54446e-06
1.54445e-06
1.54444e-06
1.54636e-06
1.54635e-06
1.54614e-06
1.54445e-06
1.54646e-06
1.54637e-06
1.52728e-06
1.52711e-06
1.52694e-06
1.52478e-06
1.52466e-06
1.52458e-06
1.52476e-06
1.52689e-06
1.52715e-06
1.52694e-06
1.52406e-06
1.52107e-06
1.52107e-06
1.52107e-06
1.52107e-06
1.52446e-06
1.52529e-06
1.52478e-06
1.52107e-06
1.52107e-06
1.52107e-06
1.52107e-06
1.52107e-06
1.52107e-06
1.52539e-06
1.52736e-06
1.52728e-06
1.52466e-06
1.52107e-06
1.52107e-06
1.52107e-06
1.52107e-06
1.52107e-06
1.52107e-06
1.52549e-06
1.52715e-06
1.52711e-06
1.52458e-06
1.52107e-06
1.52107e-06
1.52107e-06
1.52107e-06
1.52107e-06
1.52107e-06
1.52547e-06
1.52546e-06
1.52476e-06
1.52107e-06
1.52107e-06
1.52107e-06
1.52107e-06
1.52107e-06
1.52107e-06
1.52546e-06
1.52747e-06
1.52689e-06
1.52446e-06
1.52107e-06
1.52107e-06
1.52107e-06
1.52107e-06
1.52524e-06
1.52544e-06
1.52738e-06
1.52715e-06
1.52529e-06
1.52539e-06
1.52549e-06
1.52547e-06
1.52546e-06
1.52544e-06
1.52737e-06
1.52736e-06
1.52715e-06
1.52546e-06
1.52747e-06
1.52738e-06
1.50829e-06
1.50812e-06
1.50794e-06
1.50578e-06
1.50567e-06
1.50559e-06
1.50577e-06
1.50789e-06
1.50816e-06
1.50794e-06
1.50507e-06
1.50208e-06
1.50208e-06
1.50208e-06
1.50208e-06
1.50546e-06
1.50629e-06
1.50578e-06
1.50208e-06
1.50208e-06
1.50208e-06
1.50208e-06
1.50208e-06
1.50208e-06
1.5064e-06
1.50837e-06
1.50829e-06
1.50567e-06
1.50208e-06
1.50208e-06
1.50208e-06
1.50208e-06
1.50208e-06
1.50208e-06
1.5065e-06
1.50816e-06
1.50812e-06
1.50559e-06
1.50208e-06
1.50208e-06
1.50208e-06
1.50208e-06
1.50208e-06
1.50208e-06
1.50648e-06
1.50647e-06
1.50577e-06
1.50208e-06
1.50208e-06
1.50208e-06
1.50208e-06
1.50208e-06
1.50208e-06
1.50647e-06
1.50847e-06
1.5079e-06
1.50546e-06
1.50208e-06
1.50208e-06
1.50208e-06
1.50208e-06
1.50625e-06
1.50645e-06
1.50839e-06
1.50816e-06
1.5063e-06
1.5064e-06
1.5065e-06
1.50648e-06
1.50647e-06
1.50645e-06
1.50838e-06
1.50837e-06
1.50816e-06
1.50647e-06
1.50847e-06
1.50839e-06
1.4893e-06
1.48913e-06
1.48895e-06
1.48679e-06
1.48668e-06
1.48659e-06
1.48678e-06
1.4889e-06
1.48916e-06
1.48895e-06
1.48608e-06
1.48309e-06
1.48309e-06
1.48309e-06
1.48309e-06
1.48647e-06
1.4873e-06
1.48679e-06
1.48309e-06
1.48309e-06
1.48309e-06
1.48309e-06
1.48309e-06
1.48309e-06
1.48741e-06
1.48937e-06
1.4893e-06
1.48668e-06
1.48309e-06
1.48309e-06
1.48309e-06
1.48309e-06
1.48309e-06
1.48309e-06
1.4875e-06
1.48916e-06
1.48913e-06
1.48659e-06
1.48309e-06
1.48309e-06
1.48309e-06
1.48309e-06
1.48309e-06
1.48309e-06
1.48749e-06
1.48747e-06
1.48678e-06
1.48309e-06
1.48309e-06
1.48309e-06
1.48309e-06
1.48309e-06
1.48309e-06
1.48747e-06
1.48948e-06
1.4889e-06
1.48647e-06
1.48309e-06
1.48309e-06
1.48309e-06
1.48309e-06
1.48725e-06
1.48746e-06
1.48939e-06
1.48916e-06
1.4873e-06
1.48741e-06
1.4875e-06
1.48748e-06
1.48747e-06
1.48746e-06
1.48938e-06
1.48937e-06
1.48916e-06
1.48747e-06
1.48948e-06
1.48939e-06
1.4703e-06
1.47013e-06
1.46996e-06
1.4678e-06
1.46769e-06
1.4676e-06
1.46779e-06
1.46991e-06
1.47017e-06
1.46996e-06
1.46708e-06
1.46409e-06
1.46409e-06
1.46409e-06
1.46409e-06
1.46748e-06
1.46831e-06
1.4678e-06
1.46409e-06
1.46409e-06
1.46409e-06
1.46409e-06
1.46409e-06
1.46409e-06
1.46841e-06
1.47038e-06
1.4703e-06
1.46769e-06
1.46409e-06
1.46409e-06
1.46409e-06
1.46409e-06
1.46409e-06
1.46409e-06
1.46851e-06
1.47017e-06
1.47013e-06
1.4676e-06
1.46409e-06
1.46409e-06
1.46409e-06
1.46409e-06
1.46409e-06
1.46409e-06
1.46849e-06
1.46848e-06
1.46779e-06
1.46409e-06
1.46409e-06
1.46409e-06
1.46409e-06
1.46409e-06
1.46409e-06
1.46848e-06
1.47049e-06
1.46991e-06
1.46748e-06
1.46409e-06
1.46409e-06
1.46409e-06
1.46409e-06
1.46826e-06
1.46846e-06
1.4704e-06
1.47017e-06
1.46831e-06
1.46841e-06
1.46851e-06
1.46849e-06
1.46848e-06
1.46846e-06
1.47039e-06
1.47038e-06
1.47017e-06
1.46848e-06
1.47049e-06
1.4704e-06
1.45131e-06
1.45114e-06
1.45096e-06
1.44881e-06
1.44869e-06
1.44861e-06
1.44879e-06
1.45092e-06
1.45118e-06
1.45096e-06
1.44809e-06
1.4451e-06
1.4451e-06
1.4451e-06
1.4451e-06
1.44848e-06
1.44932e-06
1.44881e-06
1.4451e-06
1.4451e-06
1.4451e-06
1.4451e-06
1.4451e-06
1.4451e-06
1.44942e-06
1.45139e-06
1.45131e-06
1.44869e-06
1.4451e-06
1.4451e-06
1.4451e-06
1.4451e-06
1.4451e-06
1.4451e-06
1.44952e-06
1.45118e-06
1.45114e-06
1.44861e-06
1.4451e-06
1.4451e-06
1.4451e-06
1.4451e-06
1.4451e-06
1.4451e-06
1.4495e-06
1.44949e-06
1.44879e-06
1.4451e-06
1.4451e-06
1.4451e-06
1.4451e-06
1.4451e-06
1.4451e-06
1.44949e-06
1.4515e-06
1.45092e-06
1.44848e-06
1.4451e-06
1.4451e-06
1.4451e-06
1.4451e-06
1.44927e-06
1.44947e-06
1.45141e-06
1.45118e-06
1.44932e-06
1.44942e-06
1.44952e-06
1.4495e-06
1.44949e-06
1.44947e-06
1.4514e-06
1.45139e-06
1.45118e-06
1.44949e-06
1.4515e-06
1.45141e-06
1.43232e-06
1.43215e-06
1.43197e-06
1.42981e-06
1.4297e-06
1.42961e-06
1.4298e-06
1.43192e-06
1.43219e-06
1.43197e-06
1.4291e-06
1.42611e-06
1.42611e-06
1.42611e-06
1.42611e-06
1.42949e-06
1.43032e-06
1.42981e-06
1.42611e-06
1.42611e-06
1.42611e-06
1.42611e-06
1.42611e-06
1.42611e-06
1.43043e-06
1.4324e-06
1.43232e-06
1.4297e-06
1.42611e-06
1.42611e-06
1.42611e-06
1.42611e-06
1.42611e-06
1.42611e-06
1.43053e-06
1.43219e-06
1.43215e-06
1.42962e-06
1.42611e-06
1.42611e-06
1.42611e-06
1.42611e-06
1.42611e-06
1.42611e-06
1.43051e-06
1.4305e-06
1.4298e-06
1.42611e-06
1.42611e-06
1.42611e-06
1.42611e-06
1.42611e-06
1.42611e-06
1.4305e-06
1.4325e-06
1.43193e-06
1.42949e-06
1.42611e-06
1.42611e-06
1.42611e-06
1.42611e-06
1.43028e-06
1.43048e-06
1.43242e-06
1.43219e-06
1.43033e-06
1.43043e-06
1.43053e-06
1.43051e-06
1.4305e-06
1.43048e-06
1.43241e-06
1.4324e-06
1.43219e-06
1.4305e-06
1.4325e-06
1.43242e-06
1.41333e-06
1.41316e-06
1.41298e-06
1.41082e-06
1.41071e-06
1.41062e-06
1.41081e-06
1.41293e-06
1.4132e-06
1.41298e-06
1.41011e-06
1.40712e-06
1.40712e-06
1.40712e-06
1.40712e-06
1.4105e-06
1.41133e-06
1.41082e-06
1.40712e-06
1.40712e-06
1.40712e-06
1.40712e-06
1.40712e-06
1.40712e-06
1.41144e-06
1.4134e-06
1.41333e-06
1.41071e-06
1.40712e-06
1.40712e-06
1.40712e-06
1.40712e-06
1.40712e-06
1.40712e-06
1.41153e-06
1.41319e-06
1.41316e-06
1.41062e-06
1.40712e-06
1.40712e-06
1.40712e-06
1.40712e-06
1.40712e-06
1.40712e-06
1.41152e-06
1.4115e-06
1.41081e-06
1.40712e-06
1.40712e-06
1.40712e-06
1.40712e-06
1.40712e-06
1.40712e-06
1.41151e-06
1.41351e-06
1.41293e-06
1.4105e-06
1.40712e-06
1.40712e-06
1.40712e-06
1.40712e-06
1.41128e-06
1.41149e-06
1.41343e-06
1.41319e-06
1.41133e-06
1.41144e-06
1.41153e-06
1.41151e-06
1.41151e-06
1.41149e-06
1.41341e-06
1.4134e-06
1.41319e-06
1.4115e-06
1.41351e-06
1.41343e-06
1.39433e-06
1.39416e-06
1.39399e-06
1.39183e-06
1.39172e-06
1.39163e-06
1.39182e-06
1.39394e-06
1.3942e-06
1.39399e-06
1.39112e-06
1.38812e-06
1.38812e-06
1.38812e-06
1.38812e-06
1.39151e-06
1.39234e-06
1.39183e-06
1.38812e-06
1.38812e-06
1.38812e-06
1.38812e-06
1.38812e-06
1.38812e-06
1.39244e-06
1.39441e-06
1.39433e-06
1.39172e-06
1.38812e-06
1.38812e-06
1.38812e-06
1.38812e-06
1.38812e-06
1.38812e-06
1.39254e-06
1.3942e-06
1.39416e-06
1.39163e-06
1.38812e-06
1.38812e-06
1.38812e-06
1.38812e-06
1.38812e-06
1.38812e-06
1.39252e-06
1.39251e-06
1.39182e-06
1.38812e-06
1.38812e-06
1.38812e-06
1.38812e-06
1.38812e-06
1.38812e-06
1.39251e-06
1.39452e-06
1.39394e-06
1.39151e-06
1.38812e-06
1.38812e-06
1.38812e-06
1.38812e-06
1.39229e-06
1.39249e-06
1.39443e-06
1.3942e-06
1.39234e-06
1.39244e-06
1.39254e-06
1.39252e-06
1.39251e-06
1.39249e-06
1.39442e-06
1.39441e-06
1.3942e-06
1.39251e-06
1.39452e-06
1.39443e-06
1.37534e-06
1.37517e-06
1.37499e-06
1.37284e-06
1.37272e-06
1.37264e-06
1.37282e-06
1.37494e-06
1.37521e-06
1.37499e-06
1.37212e-06
1.36913e-06
1.36913e-06
1.36913e-06
1.36913e-06
1.37251e-06
1.37335e-06
1.37283e-06
1.36913e-06
1.36913e-06
1.36913e-06
1.36913e-06
1.36913e-06
1.36913e-06
1.37345e-06
1.37542e-06
1.37534e-06
1.37272e-06
1.36913e-06
1.36913e-06
1.36913e-06
1.36913e-06
1.36913e-06
1.36913e-06
1.37355e-06
1.37521e-06
1.37517e-06
1.37264e-06
1.36913e-06
1.36913e-06
1.36913e-06
1.36913e-06
1.36913e-06
1.36913e-06
1.37353e-06
1.37352e-06
1.37282e-06
1.36913e-06
1.36913e-06
1.36913e-06
1.36913e-06
1.36913e-06
1.36913e-06
1.37352e-06
1.37553e-06
1.37495e-06
1.37251e-06
1.36913e-06
1.36913e-06
1.36913e-06
1.36913e-06
1.3733e-06
1.3735e-06
1.37544e-06
1.37521e-06
1.37335e-06
1.37345e-06
1.37355e-06
1.37353e-06
1.37352e-06
1.3735e-06
1.37543e-06
1.37542e-06
1.37521e-06
1.37352e-06
1.37553e-06
1.37544e-06
1.35635e-06
1.35618e-06
1.356e-06
1.35384e-06
1.35373e-06
1.35364e-06
1.35383e-06
1.35595e-06
1.35622e-06
1.356e-06
1.35313e-06
1.35014e-06
1.35014e-06
1.35014e-06
1.35014e-06
1.35352e-06
1.35435e-06
1.35384e-06
1.35014e-06
1.35014e-06
1.35014e-06
1.35014e-06
1.35014e-06
1.35014e-06
1.35446e-06
1.35642e-06
1.35635e-06
1.35373e-06
1.35014e-06
1.35014e-06
1.35014e-06
1.35014e-06
1.35014e-06
1.35014e-06
1.35456e-06
1.35622e-06
1.35618e-06
1.35364e-06
1.35014e-06
1.35014e-06
1.35014e-06
1.35014e-06
1.35014e-06
1.35014e-06
1.35454e-06
1.35453e-06
1.35383e-06
1.35014e-06
1.35014e-06
1.35014e-06
1.35014e-06
1.35014e-06
1.35014e-06
1.35453e-06
1.35653e-06
1.35595e-06
1.35352e-06
1.35014e-06
1.35014e-06
1.35014e-06
1.35014e-06
1.3543e-06
1.35451e-06
1.35645e-06
1.35622e-06
1.35435e-06
1.35446e-06
1.35455e-06
1.35454e-06
1.35453e-06
1.35451e-06
1.35643e-06
1.35642e-06
1.35621e-06
1.35453e-06
1.35653e-06
1.35645e-06
1.33736e-06
1.33719e-06
1.33701e-06
1.33485e-06
1.33474e-06
1.33465e-06
1.33484e-06
1.33696e-06
1.33722e-06
1.33701e-06
1.33414e-06
1.33115e-06
1.33115e-06
1.33115e-06
1.33115e-06
1.33453e-06
1.33536e-06
1.33485e-06
1.33115e-06
1.33115e-06
1.33115e-06
1.33115e-06
1.33115e-06
1.33115e-06
1.33547e-06
1.33743e-06
1.33736e-06
1.33474e-06
1.33115e-06
1.33115e-06
1.33115e-06
1.33115e-06
1.33115e-06
1.33115e-06
1.33556e-06
1.33722e-06
1.33719e-06
1.33465e-06
1.33115e-06
1.33115e-06
1.33115e-06
1.33115e-06
1.33115e-06
1.33115e-06
1.33554e-06
1.33553e-06
1.33484e-06
1.33115e-06
1.33115e-06
1.33115e-06
1.33115e-06
1.33115e-06
1.33115e-06
1.33553e-06
1.33754e-06
1.33696e-06
1.33453e-06
1.33115e-06
1.33115e-06
1.33115e-06
1.33115e-06
1.33531e-06
1.33552e-06
1.33745e-06
1.33722e-06
1.33536e-06
1.33547e-06
1.33556e-06
1.33554e-06
1.33553e-06
1.33551e-06
1.33744e-06
1.33743e-06
1.33722e-06
1.33553e-06
1.33754e-06
1.33745e-06
1.31836e-06
1.31819e-06
1.31802e-06
1.31586e-06
1.31574e-06
1.31566e-06
1.31585e-06
1.31797e-06
1.31823e-06
1.31802e-06
1.31514e-06
1.31215e-06
1.31215e-06
1.31215e-06
1.31215e-06
1.31554e-06
1.31637e-06
1.31586e-06
1.31215e-06
1.31215e-06
1.31215e-06
1.31215e-06
1.31215e-06
1.31215e-06
1.31647e-06
1.31844e-06
1.31836e-06
1.31574e-06
1.31215e-06
1.31215e-06
1.31215e-06
1.31215e-06
1.31215e-06
1.31215e-06
1.31657e-06
1.31823e-06
1.31819e-06
1.31566e-06
1.31215e-06
1.31215e-06
1.31215e-06
1.31215e-06
1.31215e-06
1.31215e-06
1.31655e-06
1.31654e-06
1.31584e-06
1.31215e-06
1.31215e-06
1.31215e-06
1.31215e-06
1.31215e-06
1.31215e-06
1.31654e-06
1.31855e-06
1.31797e-06
1.31554e-06
1.31215e-06
1.31215e-06
1.31215e-06
1.31215e-06
1.31632e-06
1.31652e-06
1.31846e-06
1.31823e-06
1.31637e-06
1.31647e-06
1.31657e-06
1.31655e-06
1.31654e-06
1.31652e-06
1.31845e-06
1.31844e-06
1.31823e-06
1.31654e-06
1.31855e-06
1.31846e-06
1.29937e-06
1.2992e-06
1.29902e-06
1.29686e-06
1.29675e-06
1.29667e-06
1.29685e-06
1.29897e-06
1.29924e-06
1.29902e-06
1.29615e-06
1.29316e-06
1.29316e-06
1.29316e-06
1.29316e-06
1.29654e-06
1.29738e-06
1.29686e-06
1.29316e-06
1.29316e-06
1.29316e-06
1.29316e-06
1.29316e-06
1.29316e-06
1.29748e-06
1.29945e-06
1.29937e-06
1.29675e-06
1.29316e-06
1.29316e-06
1.29316e-06
1.29316e-06
1.29316e-06
1.29316e-06
1.29758e-06
1.29924e-06
1.2992e-06
1.29667e-06
1.29316e-06
1.29316e-06
1.29316e-06
1.29316e-06
1.29316e-06
1.29316e-06
1.29756e-06
1.29755e-06
1.29685e-06
1.29316e-06
1.29316e-06
1.29316e-06
1.29316e-06
1.29316e-06
1.29316e-06
1.29755e-06
1.29955e-06
1.29898e-06
1.29654e-06
1.29316e-06
1.29316e-06
1.29316e-06
1.29316e-06
1.29733e-06
1.29753e-06
1.29947e-06
1.29924e-06
1.29738e-06
1.29748e-06
1.29758e-06
1.29756e-06
1.29755e-06
1.29753e-06
1.29946e-06
1.29945e-06
1.29924e-06
1.29755e-06
1.29955e-06
1.29947e-06
1.28038e-06
1.28021e-06
1.28003e-06
1.27787e-06
1.27776e-06
1.27767e-06
1.27786e-06
1.27998e-06
1.28025e-06
1.28003e-06
1.27716e-06
1.27417e-06
1.27417e-06
1.27417e-06
1.27417e-06
1.27755e-06
1.27838e-06
1.27787e-06
1.27417e-06
1.27417e-06
1.27417e-06
1.27417e-06
1.27417e-06
1.27417e-06
1.27849e-06
1.28045e-06
1.28038e-06
1.27776e-06
1.27417e-06
1.27417e-06
1.27417e-06
1.27417e-06
1.27417e-06
1.27417e-06
1.27858e-06
1.28024e-06
1.28021e-06
1.27767e-06
1.27417e-06
1.27417e-06
1.27417e-06
1.27417e-06
1.27417e-06
1.27417e-06
1.27857e-06
1.27856e-06
1.27786e-06
1.27417e-06
1.27417e-06
1.27417e-06
1.27417e-06
1.27417e-06
1.27417e-06
1.27856e-06
1.28056e-06
1.27998e-06
1.27755e-06
1.27417e-06
1.27417e-06
1.27417e-06
1.27417e-06
1.27833e-06
1.27854e-06
1.28048e-06
1.28025e-06
1.27838e-06
1.27849e-06
1.27858e-06
1.27857e-06
1.27856e-06
1.27854e-06
1.28046e-06
1.28045e-06
1.28024e-06
1.27856e-06
1.28056e-06
1.28048e-06
1.26138e-06
1.26121e-06
1.26104e-06
1.25888e-06
1.25877e-06
1.25868e-06
1.25887e-06
1.26099e-06
1.26125e-06
1.26104e-06
1.25817e-06
1.25518e-06
1.25518e-06
1.25518e-06
1.25518e-06
1.25856e-06
1.25939e-06
1.25888e-06
1.25518e-06
1.25518e-06
1.25518e-06
1.25518e-06
1.25518e-06
1.25518e-06
1.25949e-06
1.26146e-06
1.26138e-06
1.25877e-06
1.25518e-06
1.25518e-06
1.25518e-06
1.25518e-06
1.25518e-06
1.25518e-06
1.25959e-06
1.26125e-06
1.26122e-06
1.25868e-06
1.25518e-06
1.25518e-06
1.25518e-06
1.25518e-06
1.25518e-06
1.25518e-06
1.25957e-06
1.25956e-06
1.25887e-06
1.25518e-06
1.25518e-06
1.25518e-06
1.25518e-06
1.25518e-06
1.25518e-06
1.25956e-06
1.26157e-06
1.26099e-06
1.25856e-06
1.25518e-06
1.25518e-06
1.25518e-06
1.25518e-06
1.25934e-06
1.25954e-06
1.26148e-06
1.26125e-06
1.25939e-06
1.25949e-06
1.25959e-06
1.25957e-06
1.25956e-06
1.25954e-06
1.26147e-06
1.26146e-06
1.26125e-06
1.25956e-06
1.26157e-06
1.26148e-06
1.24239e-06
1.24222e-06
1.24204e-06
1.23989e-06
1.23977e-06
1.23969e-06
1.23987e-06
1.242e-06
1.24226e-06
1.24204e-06
1.23917e-06
1.23618e-06
1.23618e-06
1.23618e-06
1.23618e-06
1.23956e-06
1.2404e-06
1.23988e-06
1.23618e-06
1.23618e-06
1.23618e-06
1.23618e-06
1.23618e-06
1.23618e-06
1.2405e-06
1.24247e-06
1.24239e-06
1.23977e-06
1.23618e-06
1.23618e-06
1.23618e-06
1.23618e-06
1.23618e-06
1.23618e-06
1.2406e-06
1.24226e-06
1.24222e-06
1.23969e-06
1.23618e-06
1.23618e-06
1.23618e-06
1.23618e-06
1.23618e-06
1.23618e-06
1.24058e-06
1.24057e-06
1.23987e-06
1.23618e-06
1.23618e-06
1.23618e-06
1.23618e-06
1.23618e-06
1.23618e-06
1.24057e-06
1.24258e-06
1.242e-06
1.23956e-06
1.23618e-06
1.23618e-06
1.23618e-06
1.23618e-06
1.24035e-06
1.24055e-06
1.24249e-06