/*--------------------------------*- C++ -*----------------------------------*\
| =========                 |                                                 |
| \\      /  F ield         | OpenFOAM: The Open Source CFD Toolbox           |
|  \\    /   O peration     | Version:  v2012                                 |
|   \\  /    A nd           | Website:  www.openfoam.com                      |
|    \\/     M anipulation  |                                                 |
\*---------------------------------------------------------------------------*/
FoamFile
{
    version     2.0;
    format      ascii;
    class       volScalarField;
    location    "0.11";
    object      p;
}
// * * * * * * * * * * * * * * * * * * * * * * * * * * * * * * * * * * * * * //

dimensions      [0 2 -2 0 0 0 0];


internalField   nonuniform List<scalar> 
247104
(
1.98726e-06
1.98806e-06
1.98797e-06
1.98773e-06
1.98746e-06
1.98778e-06
1.98798e-06
1.98798e-06
1.98805e-06
1.98813e-06
1.98817e-06
1.98792e-06
1.98775e-06
1.98795e-06
1.98818e-06
1.9881e-06
1.98797e-06
1.98817e-06
1.98789e-06
1.98749e-06
1.98732e-06
1.98753e-06
1.98794e-06
1.98817e-06
1.98792e-06
1.98774e-06
1.98792e-06
1.98749e-06
1.98701e-06
1.98683e-06
1.98705e-06
1.98756e-06
1.98794e-06
1.98766e-06
1.98727e-06
1.98747e-06
1.98775e-06
1.98732e-06
1.98683e-06
1.98664e-06
1.98688e-06
1.98739e-06
1.98777e-06
1.98738e-06
1.98779e-06
1.98796e-06
1.98753e-06
1.98706e-06
1.98688e-06
1.9871e-06
1.9876e-06
1.98798e-06
1.98771e-06
1.98798e-06
1.98818e-06
1.98794e-06
1.98756e-06
1.98739e-06
1.9876e-06
1.98799e-06
1.98818e-06
1.98795e-06
1.98798e-06
1.9881e-06
1.98817e-06
1.98794e-06
1.98777e-06
1.98798e-06
1.98818e-06
1.98807e-06
1.98792e-06
1.98766e-06
1.98737e-06
1.98771e-06
1.98795e-06
1.95359e-06
1.95147e-06
1.95192e-06
1.95074e-06
1.95016e-06
1.95019e-06
1.95014e-06
1.95237e-06
1.95253e-06
1.95193e-06
1.94969e-06
1.94622e-06
1.94597e-06
1.94597e-06
1.94622e-06
1.95008e-06
1.95033e-06
1.95073e-06
1.94621e-06
1.9461e-06
1.94609e-06
1.94609e-06
1.9461e-06
1.94622e-06
1.95066e-06
1.9519e-06
1.95359e-06
1.95015e-06
1.94597e-06
1.94609e-06
1.94622e-06
1.94622e-06
1.94609e-06
1.94597e-06
1.95025e-06
1.95249e-06
1.95146e-06
1.95019e-06
1.94597e-06
1.94609e-06
1.94622e-06
1.94622e-06
1.94609e-06
1.94597e-06
1.95036e-06
1.94994e-06
1.95013e-06
1.94621e-06
1.9461e-06
1.94609e-06
1.94609e-06
1.9461e-06
1.94622e-06
1.95035e-06
1.95138e-06
1.95238e-06
1.95007e-06
1.94622e-06
1.94597e-06
1.94597e-06
1.94622e-06
1.95003e-06
1.95062e-06
1.95246e-06
1.95253e-06
1.95033e-06
1.95066e-06
1.95026e-06
1.95036e-06
1.95034e-06
1.95062e-06
1.95372e-06
1.9519e-06
1.95249e-06
1.94995e-06
1.9514e-06
1.95243e-06
1.9334e-06
1.93321e-06
1.933e-06
1.93075e-06
1.93073e-06
1.93073e-06
1.93075e-06
1.9333e-06
1.93333e-06
1.93299e-06
1.9302e-06
1.92697e-06
1.92674e-06
1.92673e-06
1.92696e-06
1.93124e-06
1.93122e-06
1.93074e-06
1.92696e-06
1.92644e-06
1.9264e-06
1.9264e-06
1.92644e-06
1.92697e-06
1.93198e-06
1.9339e-06
1.93341e-06
1.93072e-06
1.92673e-06
1.9264e-06
1.92639e-06
1.9264e-06
1.9264e-06
1.92674e-06
1.93187e-06
1.93333e-06
1.93321e-06
1.93073e-06
1.92673e-06
1.9264e-06
1.92639e-06
1.9264e-06
1.9264e-06
1.92674e-06
1.93172e-06
1.93106e-06
1.93075e-06
1.92696e-06
1.92643e-06
1.9264e-06
1.9264e-06
1.92644e-06
1.92697e-06
1.93199e-06
1.93378e-06
1.93331e-06
1.93125e-06
1.92697e-06
1.92673e-06
1.92673e-06
1.92696e-06
1.93174e-06
1.93165e-06
1.93373e-06
1.93333e-06
1.93122e-06
1.93197e-06
1.93186e-06
1.93172e-06
1.93198e-06
1.93165e-06
1.93385e-06
1.9339e-06
1.93333e-06
1.93106e-06
1.93379e-06
1.93374e-06
1.91296e-06
1.91279e-06
1.91276e-06
1.91035e-06
1.91036e-06
1.91025e-06
1.91044e-06
1.91305e-06
1.91306e-06
1.91276e-06
1.90943e-06
1.90643e-06
1.90635e-06
1.90634e-06
1.90642e-06
1.91079e-06
1.9111e-06
1.91034e-06
1.90642e-06
1.90623e-06
1.90622e-06
1.90622e-06
1.90623e-06
1.90643e-06
1.91179e-06
1.91357e-06
1.91295e-06
1.91036e-06
1.90634e-06
1.90622e-06
1.90621e-06
1.90621e-06
1.90622e-06
1.90635e-06
1.91188e-06
1.91288e-06
1.91279e-06
1.91025e-06
1.90634e-06
1.90622e-06
1.90621e-06
1.90621e-06
1.90622e-06
1.90635e-06
1.91178e-06
1.91081e-06
1.91044e-06
1.90642e-06
1.90623e-06
1.90622e-06
1.90622e-06
1.90623e-06
1.90643e-06
1.91191e-06
1.91334e-06
1.91305e-06
1.91079e-06
1.90642e-06
1.90635e-06
1.90634e-06
1.90643e-06
1.91181e-06
1.9115e-06
1.91348e-06
1.91308e-06
1.91108e-06
1.91179e-06
1.91188e-06
1.91178e-06
1.91191e-06
1.91149e-06
1.91337e-06
1.91356e-06
1.91288e-06
1.91081e-06
1.91334e-06
1.91348e-06
1.89263e-06
1.89249e-06
1.89234e-06
1.88987e-06
1.88988e-06
1.88968e-06
1.88999e-06
1.89264e-06
1.89269e-06
1.89235e-06
1.88867e-06
1.88582e-06
1.8858e-06
1.8858e-06
1.88581e-06
1.89015e-06
1.89072e-06
1.88987e-06
1.88582e-06
1.88577e-06
1.88576e-06
1.88576e-06
1.88577e-06
1.88582e-06
1.89144e-06
1.89322e-06
1.89264e-06
1.88988e-06
1.8858e-06
1.88576e-06
1.88576e-06
1.88576e-06
1.88576e-06
1.8858e-06
1.8917e-06
1.89262e-06
1.89249e-06
1.88969e-06
1.8858e-06
1.88576e-06
1.88576e-06
1.88576e-06
1.88576e-06
1.8858e-06
1.89162e-06
1.89059e-06
1.88999e-06
1.88582e-06
1.88577e-06
1.88577e-06
1.88576e-06
1.88577e-06
1.88582e-06
1.89164e-06
1.89306e-06
1.89263e-06
1.89016e-06
1.88582e-06
1.8858e-06
1.8858e-06
1.88582e-06
1.89157e-06
1.89115e-06
1.89312e-06
1.89268e-06
1.89073e-06
1.89145e-06
1.8917e-06
1.89162e-06
1.89164e-06
1.89115e-06
1.89304e-06
1.89322e-06
1.89262e-06
1.89059e-06
1.89306e-06
1.89312e-06
1.8722e-06
1.87207e-06
1.87187e-06
1.86938e-06
1.8694e-06
1.86915e-06
1.8695e-06
1.87216e-06
1.87221e-06
1.87187e-06
1.86811e-06
1.86528e-06
1.86528e-06
1.86527e-06
1.86528e-06
1.8696e-06
1.87027e-06
1.86938e-06
1.86528e-06
1.86527e-06
1.86527e-06
1.86527e-06
1.86527e-06
1.86528e-06
1.87099e-06
1.87277e-06
1.8722e-06
1.8694e-06
1.86527e-06
1.86527e-06
1.86527e-06
1.86527e-06
1.86527e-06
1.86527e-06
1.8713e-06
1.8722e-06
1.87206e-06
1.86915e-06
1.86527e-06
1.86527e-06
1.86527e-06
1.86527e-06
1.86527e-06
1.86527e-06
1.87122e-06
1.87018e-06
1.8695e-06
1.86528e-06
1.86527e-06
1.86527e-06
1.86527e-06
1.86527e-06
1.86528e-06
1.87121e-06
1.87264e-06
1.87216e-06
1.8696e-06
1.86528e-06
1.86527e-06
1.86527e-06
1.86528e-06
1.87116e-06
1.87071e-06
1.87266e-06
1.87221e-06
1.87027e-06
1.87099e-06
1.8713e-06
1.87122e-06
1.87121e-06
1.8707e-06
1.87258e-06
1.87277e-06
1.8722e-06
1.87019e-06
1.87264e-06
1.87267e-06
1.85172e-06
1.85159e-06
1.85137e-06
1.84887e-06
1.8489e-06
1.84863e-06
1.849e-06
1.85166e-06
1.85172e-06
1.85137e-06
1.84759e-06
1.84476e-06
1.84476e-06
1.84476e-06
1.84476e-06
1.84907e-06
1.84977e-06
1.84887e-06
1.84476e-06
1.84476e-06
1.84476e-06
1.84476e-06
1.84476e-06
1.84476e-06
1.8505e-06
1.85228e-06
1.85172e-06
1.8489e-06
1.84476e-06
1.84476e-06
1.84476e-06
1.84476e-06
1.84476e-06
1.84476e-06
1.85082e-06
1.85172e-06
1.85158e-06
1.84863e-06
1.84476e-06
1.84476e-06
1.84476e-06
1.84476e-06
1.84476e-06
1.84476e-06
1.85075e-06
1.84971e-06
1.849e-06
1.84476e-06
1.84476e-06
1.84476e-06
1.84476e-06
1.84476e-06
1.84476e-06
1.85072e-06
1.85216e-06
1.85166e-06
1.84908e-06
1.84476e-06
1.84476e-06
1.84476e-06
1.84476e-06
1.85068e-06
1.85022e-06
1.85217e-06
1.85171e-06
1.84977e-06
1.8505e-06
1.85082e-06
1.85075e-06
1.85073e-06
1.85022e-06
1.85208e-06
1.85228e-06
1.85172e-06
1.84971e-06
1.85216e-06
1.85218e-06
1.83121e-06
1.83109e-06
1.83086e-06
1.82837e-06
1.8284e-06
1.82812e-06
1.82849e-06
1.83116e-06
1.83121e-06
1.83086e-06
1.82707e-06
1.82425e-06
1.82425e-06
1.82425e-06
1.82425e-06
1.82856e-06
1.82927e-06
1.82837e-06
1.82425e-06
1.82425e-06
1.82425e-06
1.82425e-06
1.82425e-06
1.82426e-06
1.82999e-06
1.83177e-06
1.83122e-06
1.82839e-06
1.82425e-06
1.82425e-06
1.82425e-06
1.82425e-06
1.82425e-06
1.82426e-06
1.83032e-06
1.83122e-06
1.83108e-06
1.82813e-06
1.82425e-06
1.82425e-06
1.82425e-06
1.82425e-06
1.82425e-06
1.82425e-06
1.83025e-06
1.82921e-06
1.82849e-06
1.82425e-06
1.82425e-06
1.82425e-06
1.82425e-06
1.82425e-06
1.82426e-06
1.83022e-06
1.83166e-06
1.83116e-06
1.82856e-06
1.82425e-06
1.82425e-06
1.82425e-06
1.82425e-06
1.83018e-06
1.82971e-06
1.83166e-06
1.83121e-06
1.82927e-06
1.82999e-06
1.83033e-06
1.83025e-06
1.83023e-06
1.82971e-06
1.83157e-06
1.83178e-06
1.83122e-06
1.82921e-06
1.83166e-06
1.83167e-06
1.81071e-06
1.81058e-06
1.81036e-06
1.80786e-06
1.80789e-06
1.80762e-06
1.80798e-06
1.81065e-06
1.8107e-06
1.81036e-06
1.80657e-06
1.80375e-06
1.80375e-06
1.80375e-06
1.80375e-06
1.80805e-06
1.80876e-06
1.80786e-06
1.80375e-06
1.80375e-06
1.80375e-06
1.80375e-06
1.80375e-06
1.80375e-06
1.80949e-06
1.81127e-06
1.81072e-06
1.80789e-06
1.80375e-06
1.80375e-06
1.80375e-06
1.80375e-06
1.80375e-06
1.80375e-06
1.80982e-06
1.81072e-06
1.81058e-06
1.80762e-06
1.80375e-06
1.80375e-06
1.80375e-06
1.80375e-06
1.80375e-06
1.80375e-06
1.80975e-06
1.80871e-06
1.80798e-06
1.80375e-06
1.80375e-06
1.80375e-06
1.80375e-06
1.80375e-06
1.80375e-06
1.80971e-06
1.81115e-06
1.81065e-06
1.80805e-06
1.80375e-06
1.80375e-06
1.80375e-06
1.80375e-06
1.80969e-06
1.80921e-06
1.81116e-06
1.8107e-06
1.80876e-06
1.80949e-06
1.80982e-06
1.80975e-06
1.80972e-06
1.80921e-06
1.81107e-06
1.81127e-06
1.81072e-06
1.80871e-06
1.81115e-06
1.81117e-06
1.7902e-06
1.79007e-06
1.78985e-06
1.78735e-06
1.78738e-06
1.78711e-06
1.78747e-06
1.79015e-06
1.7902e-06
1.78985e-06
1.78606e-06
1.78324e-06
1.78324e-06
1.78324e-06
1.78324e-06
1.78754e-06
1.78825e-06
1.78735e-06
1.78324e-06
1.78324e-06
1.78324e-06
1.78324e-06
1.78324e-06
1.78324e-06
1.78898e-06
1.79076e-06
1.79021e-06
1.78738e-06
1.78324e-06
1.78324e-06
1.78324e-06
1.78324e-06
1.78324e-06
1.78324e-06
1.78931e-06
1.79021e-06
1.79007e-06
1.78711e-06
1.78324e-06
1.78324e-06
1.78324e-06
1.78324e-06
1.78324e-06
1.78324e-06
1.78924e-06
1.7882e-06
1.78747e-06
1.78324e-06
1.78324e-06
1.78324e-06
1.78324e-06
1.78324e-06
1.78324e-06
1.78921e-06
1.79065e-06
1.79014e-06
1.78754e-06
1.78324e-06
1.78324e-06
1.78324e-06
1.78324e-06
1.78918e-06
1.7887e-06
1.79065e-06
1.79019e-06
1.78825e-06
1.78898e-06
1.78931e-06
1.78924e-06
1.78921e-06
1.7887e-06
1.79056e-06
1.79076e-06
1.79021e-06
1.7882e-06
1.79064e-06
1.79066e-06
1.76969e-06
1.76956e-06
1.76934e-06
1.76684e-06
1.76687e-06
1.7666e-06
1.76697e-06
1.76964e-06
1.7697e-06
1.76934e-06
1.76555e-06
1.76273e-06
1.76273e-06
1.76273e-06
1.76273e-06
1.76703e-06
1.76774e-06
1.76684e-06
1.76273e-06
1.76273e-06
1.76273e-06
1.76273e-06
1.76273e-06
1.76273e-06
1.76847e-06
1.77025e-06
1.7697e-06
1.76687e-06
1.76273e-06
1.76273e-06
1.76273e-06
1.76273e-06
1.76273e-06
1.76273e-06
1.7688e-06
1.7697e-06
1.76956e-06
1.7666e-06
1.76273e-06
1.76273e-06
1.76273e-06
1.76273e-06
1.76273e-06
1.76273e-06
1.76873e-06
1.76769e-06
1.76697e-06
1.76273e-06
1.76273e-06
1.76273e-06
1.76273e-06
1.76273e-06
1.76273e-06
1.7687e-06
1.77014e-06
1.76963e-06
1.76703e-06
1.76273e-06
1.76273e-06
1.76273e-06
1.76273e-06
1.76867e-06
1.76819e-06
1.77014e-06
1.76968e-06
1.76774e-06
1.76847e-06
1.7688e-06
1.76874e-06
1.7687e-06
1.76819e-06
1.77005e-06
1.77026e-06
1.7697e-06
1.76769e-06
1.77014e-06
1.77015e-06
1.74918e-06
1.74906e-06
1.74883e-06
1.74634e-06
1.74636e-06
1.74609e-06
1.74646e-06
1.74913e-06
1.74918e-06
1.74883e-06
1.74504e-06
1.74222e-06
1.74222e-06
1.74222e-06
1.74222e-06
1.74652e-06
1.74724e-06
1.74633e-06
1.74222e-06
1.74222e-06
1.74222e-06
1.74222e-06
1.74222e-06
1.74222e-06
1.74796e-06
1.74974e-06
1.74919e-06
1.74636e-06
1.74222e-06
1.74222e-06
1.74222e-06
1.74222e-06
1.74222e-06
1.74222e-06
1.7483e-06
1.74919e-06
1.74905e-06
1.74609e-06
1.74222e-06
1.74222e-06
1.74222e-06
1.74222e-06
1.74222e-06
1.74222e-06
1.74823e-06
1.74718e-06
1.74646e-06
1.74222e-06
1.74222e-06
1.74222e-06
1.74222e-06
1.74222e-06
1.74222e-06
1.74819e-06
1.74963e-06
1.74912e-06
1.74653e-06
1.74222e-06
1.74222e-06
1.74222e-06
1.74222e-06
1.74816e-06
1.74769e-06
1.74963e-06
1.74917e-06
1.74724e-06
1.74796e-06
1.74829e-06
1.74823e-06
1.74819e-06
1.74769e-06
1.74954e-06
1.74975e-06
1.74919e-06
1.74718e-06
1.74963e-06
1.74964e-06
1.72868e-06
1.72855e-06
1.72832e-06
1.72583e-06
1.72585e-06
1.72558e-06
1.72595e-06
1.72862e-06
1.72867e-06
1.72832e-06
1.72453e-06
1.72171e-06
1.72171e-06
1.72171e-06
1.72171e-06
1.72601e-06
1.72673e-06
1.72583e-06
1.72171e-06
1.72171e-06
1.72171e-06
1.72171e-06
1.72171e-06
1.72171e-06
1.72745e-06
1.72924e-06
1.72868e-06
1.72585e-06
1.72171e-06
1.72171e-06
1.72171e-06
1.72171e-06
1.72171e-06
1.72171e-06
1.72779e-06
1.72869e-06
1.72854e-06
1.72559e-06
1.72171e-06
1.72171e-06
1.72171e-06
1.72171e-06
1.72171e-06
1.72171e-06
1.72772e-06
1.72667e-06
1.72595e-06
1.72171e-06
1.72171e-06
1.72171e-06
1.72171e-06
1.72171e-06
1.72171e-06
1.72768e-06
1.72912e-06
1.72862e-06
1.72602e-06
1.72171e-06
1.72171e-06
1.72171e-06
1.72171e-06
1.72765e-06
1.72718e-06
1.72913e-06
1.72867e-06
1.72673e-06
1.72745e-06
1.72779e-06
1.72772e-06
1.72768e-06
1.72718e-06
1.72903e-06
1.72924e-06
1.72868e-06
1.72667e-06
1.72912e-06
1.72914e-06
1.70817e-06
1.70804e-06
1.70781e-06
1.70532e-06
1.70535e-06
1.70507e-06
1.70544e-06
1.70812e-06
1.70816e-06
1.70782e-06
1.70402e-06
1.7012e-06
1.7012e-06
1.7012e-06
1.7012e-06
1.70551e-06
1.70622e-06
1.70532e-06
1.7012e-06
1.7012e-06
1.7012e-06
1.7012e-06
1.7012e-06
1.7012e-06
1.70695e-06
1.70873e-06
1.70817e-06
1.70535e-06
1.7012e-06
1.7012e-06
1.7012e-06
1.7012e-06
1.7012e-06
1.7012e-06
1.70728e-06
1.70818e-06
1.70803e-06
1.70508e-06
1.7012e-06
1.7012e-06
1.7012e-06
1.7012e-06
1.7012e-06
1.7012e-06
1.70721e-06
1.70617e-06
1.70544e-06
1.7012e-06
1.7012e-06
1.7012e-06
1.7012e-06
1.7012e-06
1.7012e-06
1.70717e-06
1.70861e-06
1.70811e-06
1.70551e-06
1.7012e-06
1.7012e-06
1.7012e-06
1.7012e-06
1.70714e-06
1.70667e-06
1.70862e-06
1.70816e-06
1.70622e-06
1.70695e-06
1.70728e-06
1.70721e-06
1.70718e-06
1.70667e-06
1.70853e-06
1.70873e-06
1.70818e-06
1.70617e-06
1.70861e-06
1.70863e-06
1.68766e-06
1.68753e-06
1.6873e-06
1.68481e-06
1.68484e-06
1.68456e-06
1.68493e-06
1.68761e-06
1.68765e-06
1.68731e-06
1.68351e-06
1.68069e-06
1.68069e-06
1.68069e-06
1.68069e-06
1.685e-06
1.68571e-06
1.68481e-06
1.68069e-06
1.68069e-06
1.68069e-06
1.68069e-06
1.68069e-06
1.68069e-06
1.68644e-06
1.68822e-06
1.68767e-06
1.68484e-06
1.68069e-06
1.68069e-06
1.68069e-06
1.68069e-06
1.68069e-06
1.68069e-06
1.68677e-06
1.68767e-06
1.68753e-06
1.68457e-06
1.68069e-06
1.68069e-06
1.68069e-06
1.68069e-06
1.68069e-06
1.68069e-06
1.6867e-06
1.68566e-06
1.68493e-06
1.68069e-06
1.68069e-06
1.68069e-06
1.68069e-06
1.68069e-06
1.68069e-06
1.68666e-06
1.6881e-06
1.6876e-06
1.685e-06
1.68069e-06
1.68069e-06
1.68069e-06
1.68069e-06
1.68664e-06
1.68616e-06
1.68811e-06
1.68765e-06
1.68571e-06
1.68644e-06
1.68677e-06
1.6867e-06
1.68667e-06
1.68616e-06
1.68802e-06
1.68822e-06
1.68767e-06
1.68566e-06
1.6881e-06
1.68812e-06
1.66715e-06
1.66702e-06
1.66679e-06
1.6643e-06
1.66433e-06
1.66406e-06
1.66442e-06
1.66709e-06
1.66714e-06
1.6668e-06
1.66301e-06
1.66019e-06
1.66019e-06
1.66018e-06
1.66018e-06
1.66449e-06
1.6652e-06
1.6643e-06
1.66019e-06
1.66018e-06
1.66018e-06
1.66018e-06
1.66018e-06
1.66018e-06
1.66593e-06
1.66771e-06
1.66716e-06
1.66433e-06
1.66018e-06
1.66018e-06
1.66018e-06
1.66018e-06
1.66018e-06
1.66018e-06
1.66626e-06
1.66716e-06
1.66702e-06
1.66406e-06
1.66018e-06
1.66018e-06
1.66018e-06
1.66018e-06
1.66018e-06
1.66018e-06
1.66619e-06
1.66515e-06
1.66442e-06
1.66018e-06
1.66018e-06
1.66018e-06
1.66018e-06
1.66018e-06
1.66018e-06
1.66615e-06
1.66759e-06
1.66709e-06
1.66449e-06
1.66018e-06
1.66018e-06
1.66018e-06
1.66018e-06
1.66613e-06
1.66565e-06
1.6676e-06
1.66714e-06
1.6652e-06
1.66593e-06
1.66626e-06
1.66619e-06
1.66616e-06
1.66565e-06
1.66751e-06
1.66771e-06
1.66716e-06
1.66515e-06
1.66759e-06
1.66761e-06
1.64664e-06
1.64651e-06
1.64628e-06
1.64379e-06
1.64382e-06
1.64355e-06
1.64391e-06
1.64658e-06
1.64663e-06
1.64629e-06
1.6425e-06
1.63968e-06
1.63968e-06
1.63968e-06
1.63968e-06
1.64398e-06
1.64469e-06
1.64379e-06
1.63968e-06
1.63968e-06
1.63968e-06
1.63968e-06
1.63968e-06
1.63968e-06
1.64542e-06
1.6472e-06
1.64665e-06
1.64382e-06
1.63968e-06
1.63968e-06
1.63968e-06
1.63968e-06
1.63968e-06
1.63968e-06
1.64575e-06
1.64665e-06
1.64651e-06
1.64355e-06
1.63968e-06
1.63968e-06
1.63968e-06
1.63968e-06
1.63968e-06
1.63968e-06
1.64568e-06
1.64464e-06
1.64391e-06
1.63968e-06
1.63968e-06
1.63968e-06
1.63968e-06
1.63968e-06
1.63968e-06
1.64564e-06
1.64708e-06
1.64658e-06
1.64398e-06
1.63968e-06
1.63968e-06
1.63968e-06
1.63968e-06
1.64562e-06
1.64514e-06
1.64709e-06
1.64663e-06
1.64469e-06
1.64542e-06
1.64575e-06
1.64568e-06
1.64565e-06
1.64514e-06
1.647e-06
1.6472e-06
1.64665e-06
1.64464e-06
1.64708e-06
1.6471e-06
1.62613e-06
1.626e-06
1.62577e-06
1.62328e-06
1.62331e-06
1.62304e-06
1.62341e-06
1.62607e-06
1.62612e-06
1.62578e-06
1.62199e-06
1.61917e-06
1.61917e-06
1.61917e-06
1.61917e-06
1.62347e-06
1.62418e-06
1.62328e-06
1.61917e-06
1.61917e-06
1.61917e-06
1.61917e-06
1.61917e-06
1.61917e-06
1.62491e-06
1.62669e-06
1.62614e-06
1.62331e-06
1.61917e-06
1.61917e-06
1.61917e-06
1.61917e-06
1.61917e-06
1.61917e-06
1.62524e-06
1.62614e-06
1.626e-06
1.62304e-06
1.61917e-06
1.61917e-06
1.61917e-06
1.61917e-06
1.61917e-06
1.61917e-06
1.62517e-06
1.62413e-06
1.6234e-06
1.61917e-06
1.61917e-06
1.61917e-06
1.61917e-06
1.61917e-06
1.61917e-06
1.62514e-06
1.62658e-06
1.62607e-06
1.62347e-06
1.61917e-06
1.61917e-06
1.61917e-06
1.61917e-06
1.62511e-06
1.62463e-06
1.62658e-06
1.62612e-06
1.62418e-06
1.62491e-06
1.62524e-06
1.62517e-06
1.62514e-06
1.62463e-06
1.62649e-06
1.62669e-06
1.62614e-06
1.62413e-06
1.62657e-06
1.62659e-06
1.60562e-06
1.60549e-06
1.60526e-06
1.60277e-06
1.6028e-06
1.60253e-06
1.6029e-06
1.60556e-06
1.60561e-06
1.60527e-06
1.60148e-06
1.59866e-06
1.59866e-06
1.59866e-06
1.59866e-06
1.60296e-06
1.60367e-06
1.60277e-06
1.59866e-06
1.59866e-06
1.59866e-06
1.59866e-06
1.59866e-06
1.59866e-06
1.6044e-06
1.60618e-06
1.60563e-06
1.6028e-06
1.59866e-06
1.59866e-06
1.59866e-06
1.59866e-06
1.59866e-06
1.59866e-06
1.60473e-06
1.60563e-06
1.60549e-06
1.60253e-06
1.59866e-06
1.59866e-06
1.59866e-06
1.59866e-06
1.59866e-06
1.59866e-06
1.60466e-06
1.60362e-06
1.60289e-06
1.59866e-06
1.59866e-06
1.59866e-06
1.59866e-06
1.59866e-06
1.59866e-06
1.60463e-06
1.60607e-06
1.60556e-06
1.60296e-06
1.59866e-06
1.59866e-06
1.59866e-06
1.59866e-06
1.6046e-06
1.60412e-06
1.60607e-06
1.60561e-06
1.60367e-06
1.6044e-06
1.60473e-06
1.60466e-06
1.60463e-06
1.60412e-06
1.60598e-06
1.60618e-06
1.60563e-06
1.60362e-06
1.60606e-06
1.60608e-06
1.58511e-06
1.58498e-06
1.58475e-06
1.58226e-06
1.58229e-06
1.58202e-06
1.58239e-06
1.58505e-06
1.5851e-06
1.58476e-06
1.58097e-06
1.57815e-06
1.57815e-06
1.57815e-06
1.57815e-06
1.58245e-06
1.58316e-06
1.58226e-06
1.57815e-06
1.57815e-06
1.57815e-06
1.57815e-06
1.57815e-06
1.57815e-06
1.58389e-06
1.58567e-06
1.58512e-06
1.58229e-06
1.57815e-06
1.57815e-06
1.57815e-06
1.57815e-06
1.57815e-06
1.57815e-06
1.58422e-06
1.58512e-06
1.58498e-06
1.58202e-06
1.57815e-06
1.57815e-06
1.57815e-06
1.57815e-06
1.57815e-06
1.57815e-06
1.58415e-06
1.58311e-06
1.58238e-06
1.57815e-06
1.57815e-06
1.57815e-06
1.57815e-06
1.57815e-06
1.57815e-06
1.58411e-06
1.58556e-06
1.58505e-06
1.58245e-06
1.57815e-06
1.57815e-06
1.57815e-06
1.57815e-06
1.58409e-06
1.58361e-06
1.58556e-06
1.5851e-06
1.58316e-06
1.58389e-06
1.58422e-06
1.58415e-06
1.58412e-06
1.58361e-06
1.58547e-06
1.58567e-06
1.58512e-06
1.58311e-06
1.58555e-06
1.58557e-06
1.5646e-06
1.56447e-06
1.56424e-06
1.56175e-06
1.56178e-06
1.56151e-06
1.56188e-06
1.56454e-06
1.56459e-06
1.56425e-06
1.56046e-06
1.55764e-06
1.55764e-06
1.55764e-06
1.55764e-06
1.56194e-06
1.56265e-06
1.56175e-06
1.55764e-06
1.55764e-06
1.55764e-06
1.55764e-06
1.55764e-06
1.55764e-06
1.56338e-06
1.56516e-06
1.56461e-06
1.56178e-06
1.55764e-06
1.55764e-06
1.55764e-06
1.55764e-06
1.55764e-06
1.55764e-06
1.56371e-06
1.56461e-06
1.56447e-06
1.56151e-06
1.55764e-06
1.55764e-06
1.55764e-06
1.55764e-06
1.55764e-06
1.55764e-06
1.56364e-06
1.5626e-06
1.56187e-06
1.55764e-06
1.55764e-06
1.55764e-06
1.55764e-06
1.55764e-06
1.55764e-06
1.5636e-06
1.56505e-06
1.56454e-06
1.56194e-06
1.55764e-06
1.55764e-06
1.55764e-06
1.55764e-06
1.56358e-06
1.5631e-06
1.56505e-06
1.56459e-06
1.56265e-06
1.56338e-06
1.56371e-06
1.56364e-06
1.56361e-06
1.5631e-06
1.56496e-06
1.56516e-06
1.56461e-06
1.5626e-06
1.56504e-06
1.56506e-06
1.54409e-06
1.54396e-06
1.54373e-06
1.54124e-06
1.54127e-06
1.541e-06
1.54137e-06
1.54403e-06
1.54408e-06
1.54374e-06
1.53995e-06
1.53713e-06
1.53713e-06
1.53713e-06
1.53713e-06
1.54143e-06
1.54214e-06
1.54124e-06
1.53713e-06
1.53713e-06
1.53713e-06
1.53713e-06
1.53713e-06
1.53713e-06
1.54287e-06
1.54465e-06
1.5441e-06
1.54127e-06
1.53713e-06
1.53713e-06
1.53713e-06
1.53713e-06
1.53713e-06
1.53713e-06
1.5432e-06
1.5441e-06
1.54396e-06
1.541e-06
1.53713e-06
1.53713e-06
1.53713e-06
1.53713e-06
1.53713e-06
1.53713e-06
1.54313e-06
1.54209e-06
1.54136e-06
1.53713e-06
1.53713e-06
1.53713e-06
1.53713e-06
1.53713e-06
1.53713e-06
1.5431e-06
1.54454e-06
1.54403e-06
1.54143e-06
1.53713e-06
1.53713e-06
1.53713e-06
1.53713e-06
1.54307e-06
1.54259e-06
1.54454e-06
1.54408e-06
1.54214e-06
1.54287e-06
1.5432e-06
1.54313e-06
1.5431e-06
1.54259e-06
1.54445e-06
1.54465e-06
1.5441e-06
1.54209e-06
1.54453e-06
1.54455e-06
1.52358e-06
1.52345e-06
1.52322e-06
1.52073e-06
1.52076e-06
1.52049e-06
1.52086e-06
1.52352e-06
1.52357e-06
1.52323e-06
1.51944e-06
1.51662e-06
1.51662e-06
1.51662e-06
1.51662e-06
1.52092e-06
1.52163e-06
1.52073e-06
1.51662e-06
1.51662e-06
1.51662e-06
1.51662e-06
1.51662e-06
1.51662e-06
1.52236e-06
1.52414e-06
1.52359e-06
1.52076e-06
1.51662e-06
1.51662e-06
1.51662e-06
1.51662e-06
1.51662e-06
1.51662e-06
1.52269e-06
1.52359e-06
1.52345e-06
1.52049e-06
1.51662e-06
1.51662e-06
1.51662e-06
1.51662e-06
1.51662e-06
1.51662e-06
1.52262e-06
1.52158e-06
1.52085e-06
1.51662e-06
1.51662e-06
1.51662e-06
1.51662e-06
1.51662e-06
1.51662e-06
1.52259e-06
1.52403e-06
1.52352e-06
1.52092e-06
1.51662e-06
1.51662e-06
1.51662e-06
1.51662e-06
1.52256e-06
1.52208e-06
1.52403e-06
1.52357e-06
1.52163e-06
1.52236e-06
1.52269e-06
1.52263e-06
1.52259e-06
1.52208e-06
1.52394e-06
1.52414e-06
1.52359e-06
1.52158e-06
1.52403e-06
1.52404e-06
1.50307e-06
1.50295e-06
1.50271e-06
1.50023e-06
1.50025e-06
1.49998e-06
1.50035e-06
1.50302e-06
1.50306e-06
1.50272e-06
1.49893e-06
1.49611e-06
1.49611e-06
1.49611e-06
1.49611e-06
1.50042e-06
1.50113e-06
1.50022e-06
1.49611e-06
1.49611e-06
1.49611e-06
1.49611e-06
1.49611e-06
1.49611e-06
1.50185e-06
1.50363e-06
1.50308e-06
1.50025e-06
1.49611e-06
1.49611e-06
1.49611e-06
1.49611e-06
1.49611e-06
1.49611e-06
1.50219e-06
1.50308e-06
1.50294e-06
1.49998e-06
1.49611e-06
1.49611e-06
1.49611e-06
1.49611e-06
1.49611e-06
1.49611e-06
1.50212e-06
1.50107e-06
1.50035e-06
1.49611e-06
1.49611e-06
1.49611e-06
1.49611e-06
1.49611e-06
1.49611e-06
1.50208e-06
1.50352e-06
1.50301e-06
1.50041e-06
1.49611e-06
1.49611e-06
1.49611e-06
1.49611e-06
1.50205e-06
1.50158e-06
1.50352e-06
1.50306e-06
1.50112e-06
1.50185e-06
1.50218e-06
1.50212e-06
1.50208e-06
1.50158e-06
1.50343e-06
1.50364e-06
1.50308e-06
1.50108e-06
1.50352e-06
1.50353e-06
1.48257e-06
1.48244e-06
1.4822e-06
1.47972e-06
1.47974e-06
1.47947e-06
1.47984e-06
1.48251e-06
1.48256e-06
1.48221e-06
1.47842e-06
1.4756e-06
1.4756e-06
1.4756e-06
1.4756e-06
1.47991e-06
1.48062e-06
1.47971e-06
1.4756e-06
1.4756e-06
1.4756e-06
1.4756e-06
1.4756e-06
1.4756e-06
1.48134e-06
1.48312e-06
1.48257e-06
1.47974e-06
1.4756e-06
1.4756e-06
1.4756e-06
1.4756e-06
1.4756e-06
1.4756e-06
1.48168e-06
1.48257e-06
1.48243e-06
1.47947e-06
1.4756e-06
1.4756e-06
1.4756e-06
1.4756e-06
1.4756e-06
1.4756e-06
1.48161e-06
1.48056e-06
1.47984e-06
1.4756e-06
1.4756e-06
1.4756e-06
1.4756e-06
1.4756e-06
1.4756e-06
1.48157e-06
1.48301e-06
1.4825e-06
1.4799e-06
1.4756e-06
1.4756e-06
1.4756e-06
1.4756e-06
1.48154e-06
1.48107e-06
1.48301e-06
1.48255e-06
1.48061e-06
1.48134e-06
1.48167e-06
1.48161e-06
1.48157e-06
1.48107e-06
1.48292e-06
1.48313e-06
1.48257e-06
1.48057e-06
1.48301e-06
1.48302e-06
1.46206e-06
1.46193e-06
1.4617e-06
1.45921e-06
1.45923e-06
1.45896e-06
1.45933e-06
1.462e-06
1.46205e-06
1.4617e-06
1.45791e-06
1.45509e-06
1.45509e-06
1.45509e-06
1.45509e-06
1.4594e-06
1.46011e-06
1.4592e-06
1.45509e-06
1.45509e-06
1.45509e-06
1.45509e-06
1.45509e-06
1.45509e-06
1.46083e-06
1.46261e-06
1.46206e-06
1.45923e-06
1.45509e-06
1.45509e-06
1.45509e-06
1.45509e-06
1.45509e-06
1.45509e-06
1.46117e-06
1.46206e-06
1.46192e-06
1.45896e-06
1.45509e-06
1.45509e-06
1.45509e-06
1.45509e-06
1.45509e-06
1.45509e-06
1.4611e-06
1.46005e-06
1.45933e-06
1.45509e-06
1.45509e-06
1.45509e-06
1.45509e-06
1.45509e-06
1.45509e-06
1.46106e-06
1.4625e-06
1.46199e-06
1.45939e-06
1.45509e-06
1.45509e-06
1.45509e-06
1.45509e-06
1.46103e-06
1.46056e-06
1.4625e-06
1.46204e-06
1.4601e-06
1.46083e-06
1.46117e-06
1.4611e-06
1.46106e-06
1.46056e-06
1.46241e-06
1.46262e-06
1.46206e-06
1.46006e-06
1.4625e-06
1.46251e-06
1.44155e-06
1.44142e-06
1.44118e-06
1.4387e-06
1.43872e-06
1.43845e-06
1.43882e-06
1.44149e-06
1.44154e-06
1.44119e-06
1.4374e-06
1.43458e-06
1.43458e-06
1.43458e-06
1.43458e-06
1.43889e-06
1.4396e-06
1.43869e-06
1.43458e-06
1.43458e-06
1.43458e-06
1.43458e-06
1.43458e-06
1.43458e-06
1.44032e-06
1.4421e-06
1.44155e-06
1.43872e-06
1.43458e-06
1.43458e-06
1.43458e-06
1.43458e-06
1.43458e-06
1.43458e-06
1.44066e-06
1.44155e-06
1.44141e-06
1.43845e-06
1.43458e-06
1.43458e-06
1.43458e-06
1.43458e-06
1.43458e-06
1.43458e-06
1.44059e-06
1.43954e-06
1.43882e-06
1.43458e-06
1.43458e-06
1.43458e-06
1.43458e-06
1.43458e-06
1.43458e-06
1.44055e-06
1.44199e-06
1.44148e-06
1.43888e-06
1.43458e-06
1.43458e-06
1.43458e-06
1.43458e-06
1.44052e-06
1.44005e-06
1.44199e-06
1.44153e-06
1.43959e-06
1.44032e-06
1.44066e-06
1.44059e-06
1.44055e-06
1.44005e-06
1.4419e-06
1.44211e-06
1.44156e-06
1.43955e-06
1.44199e-06
1.442e-06
1.42104e-06
1.42091e-06
1.42068e-06
1.41819e-06
1.41821e-06
1.41794e-06
1.41831e-06
1.42098e-06
1.42103e-06
1.42068e-06
1.41689e-06
1.41407e-06
1.41407e-06
1.41407e-06
1.41407e-06
1.41838e-06
1.41909e-06
1.41819e-06
1.41407e-06
1.41407e-06
1.41407e-06
1.41407e-06
1.41407e-06
1.41407e-06
1.41981e-06
1.4216e-06
1.42104e-06
1.41821e-06
1.41407e-06
1.41407e-06
1.41407e-06
1.41407e-06
1.41407e-06
1.41407e-06
1.42015e-06
1.42105e-06
1.4209e-06
1.41795e-06
1.41407e-06
1.41407e-06
1.41407e-06
1.41407e-06
1.41407e-06
1.41407e-06
1.42008e-06
1.41903e-06
1.41831e-06
1.41407e-06
1.41407e-06
1.41407e-06
1.41407e-06
1.41407e-06
1.41407e-06
1.42004e-06
1.42148e-06
1.42098e-06
1.41838e-06
1.41407e-06
1.41407e-06
1.41407e-06
1.41407e-06
1.42001e-06
1.41954e-06
1.42149e-06
1.42103e-06
1.41909e-06
1.41981e-06
1.42015e-06
1.42008e-06
1.42004e-06
1.41954e-06
1.4214e-06
1.4216e-06
1.42105e-06
1.41904e-06
1.42148e-06
1.4215e-06
1.40053e-06
1.4004e-06
1.40017e-06
1.39768e-06
1.39771e-06
1.39743e-06
1.3978e-06
1.40047e-06
1.40052e-06
1.40018e-06
1.39638e-06
1.39356e-06
1.39356e-06
1.39356e-06
1.39356e-06
1.39787e-06
1.39858e-06
1.39768e-06
1.39356e-06
1.39356e-06
1.39356e-06
1.39356e-06
1.39356e-06
1.39356e-06
1.39931e-06
1.40109e-06
1.40053e-06
1.39771e-06
1.39356e-06
1.39356e-06
1.39356e-06
1.39356e-06
1.39356e-06
1.39356e-06
1.39964e-06
1.40054e-06
1.40039e-06
1.39744e-06
1.39356e-06
1.39356e-06
1.39356e-06
1.39356e-06
1.39356e-06
1.39356e-06
1.39957e-06
1.39853e-06
1.3978e-06
1.39356e-06
1.39356e-06
1.39356e-06
1.39356e-06
1.39356e-06
1.39356e-06
1.39953e-06
1.40097e-06
1.40047e-06
1.39787e-06
1.39356e-06
1.39356e-06
1.39356e-06
1.39356e-06
1.39951e-06
1.39903e-06
1.40098e-06
1.40052e-06
1.39858e-06
1.39931e-06
1.39964e-06
1.39957e-06
1.39954e-06
1.39903e-06
1.40089e-06
1.40109e-06
1.40054e-06
1.39853e-06
1.40097e-06
1.40099e-06
1.38002e-06
1.37989e-06
1.37966e-06
1.37717e-06
1.3772e-06
1.37693e-06
1.37729e-06
1.37996e-06
1.38001e-06
1.37967e-06
1.37588e-06
1.37306e-06
1.37306e-06
1.37306e-06
1.37306e-06
1.37737e-06
1.37807e-06
1.37717e-06
1.37306e-06
1.37305e-06
1.37305e-06
1.37306e-06
1.37306e-06
1.37306e-06
1.3788e-06
1.38058e-06
1.38003e-06
1.3772e-06
1.37305e-06
1.37305e-06
1.37305e-06
1.37305e-06
1.37305e-06
1.37306e-06
1.37913e-06
1.38003e-06
1.37989e-06
1.37693e-06
1.37305e-06
1.37305e-06
1.37305e-06
1.37305e-06
1.37305e-06
1.37305e-06
1.37906e-06
1.37802e-06
1.37729e-06
1.37305e-06
1.37305e-06
1.37305e-06
1.37305e-06
1.37305e-06
1.37305e-06
1.37902e-06
1.38046e-06
1.37996e-06
1.37736e-06
1.37305e-06
1.37305e-06
1.37305e-06
1.37305e-06
1.379e-06
1.37852e-06
1.38047e-06
1.38001e-06
1.37807e-06
1.3788e-06
1.37913e-06
1.37906e-06
1.37903e-06
1.37852e-06
1.38038e-06
1.38058e-06
1.38003e-06
1.37802e-06
1.38046e-06
1.38048e-06
1.35951e-06
1.35938e-06
1.35915e-06
1.35666e-06
1.35669e-06
1.35642e-06
1.35679e-06
1.35945e-06
1.3595e-06
1.35916e-06
1.35537e-06
1.35255e-06
1.35255e-06
1.35255e-06
1.35255e-06
1.35686e-06
1.35756e-06
1.35666e-06
1.35255e-06
1.35255e-06
1.35255e-06
1.35255e-06
1.35255e-06
1.35255e-06
1.35829e-06
1.36007e-06
1.35952e-06
1.35669e-06
1.35255e-06
1.35255e-06
1.35255e-06
1.35255e-06
1.35255e-06
1.35255e-06
1.35862e-06
1.35952e-06
1.35938e-06
1.35642e-06
1.35255e-06
1.35255e-06
1.35255e-06
1.35255e-06
1.35255e-06
1.35255e-06
1.35855e-06
1.35751e-06
1.35678e-06
1.35255e-06
1.35255e-06
1.35255e-06
1.35255e-06
1.35255e-06
1.35255e-06
1.35852e-06
1.35996e-06
1.35945e-06
1.35685e-06
1.35255e-06
1.35255e-06
1.35255e-06
1.35255e-06
1.35849e-06
1.35801e-06
1.35996e-06
1.3595e-06
1.35756e-06
1.35829e-06
1.35862e-06
1.35855e-06
1.35852e-06
1.35801e-06
1.35987e-06
1.36007e-06
1.35952e-06
1.35751e-06
1.35995e-06
1.35997e-06
1.339e-06
1.33887e-06
1.33864e-06
1.33615e-06
1.33618e-06
1.33591e-06
1.33628e-06
1.33894e-06
1.33899e-06
1.33865e-06
1.33486e-06
1.33204e-06
1.33204e-06
1.33204e-06
1.33204e-06
1.33635e-06
1.33705e-06
1.33615e-06
1.33204e-06
1.33204e-06
1.33204e-06
1.33204e-06
1.33204e-06
1.33204e-06
1.33778e-06
1.33956e-06
1.33901e-06
1.33618e-06
1.33204e-06
1.33204e-06
1.33204e-06
1.33204e-06
1.33204e-06
1.33204e-06
1.33811e-06
1.33901e-06
1.33887e-06
1.33591e-06
1.33204e-06
1.33204e-06
1.33204e-06
1.33204e-06
1.33204e-06
1.33204e-06
1.33804e-06
1.337e-06
1.33627e-06
1.33204e-06
1.33204e-06
1.33204e-06
1.33204e-06
1.33204e-06
1.33204e-06
1.33801e-06
1.33945e-06
1.33894e-06
1.33634e-06
1.33204e-06
1.33204e-06
1.33204e-06
1.33204e-06
1.33798e-06
1.3375e-06