/*--------------------------------*- C++ -*----------------------------------*\
| =========                 |                                                 |
| \\      /  F ield         | OpenFOAM: The Open Source CFD Toolbox           |
|  \\    /   O peration     | Version:  v2012                                 |
|   \\  /    A nd           | Website:  www.openfoam.com                      |
|    \\/     M anipulation  |                                                 |
\*---------------------------------------------------------------------------*/
FoamFile
{
    version     2.0;
    format      ascii;
    class       volScalarField;
    location    "312.5";
    object      epsilon;
}
// * * * * * * * * * * * * * * * * * * * * * * * * * * * * * * * * * * * * * //

dimensions      [0 2 -3 0 0 0 0];


internalField   nonuniform List<scalar> 
171728
(
3.58109e-09
3.57006e-09
4.49203e-09
4.91465e-09
3.55129e-09
3.29492e-09
4.10746e-09
4.45725e-09
3.51302e-09
3.03936e-09
3.75082e-09
4.05569e-09
3.47902e-09
2.8174e-09
3.44165e-09
3.71551e-09
3.45065e-09
2.62481e-09
3.17446e-09
3.42604e-09
3.42574e-09
2.46553e-09
2.95154e-09
3.18054e-09
3.40529e-09
2.33913e-09
2.76926e-09
2.97196e-09
3.38883e-09
2.24646e-09
2.62932e-09
2.7991e-09
3.37486e-09
2.18639e-09
2.52775e-09
2.65836e-09
3.36671e-09
2.15893e-09
2.46261e-09
2.54679e-09
3.36598e-09
2.16319e-09
2.43482e-09
2.468e-09
3.37087e-09
2.20334e-09
2.44394e-09
2.42671e-09
3.38164e-09
2.28798e-09
2.5e-09
2.42554e-09
3.39812e-09
2.42381e-09
2.61479e-09
2.47662e-09
3.4194e-09
2.63909e-09
2.81516e-09
2.60636e-09
3.44705e-09
2.97238e-09
3.12889e-09
2.86434e-09
3.48068e-09
3.46601e-09
3.62621e-09
3.31554e-09
3.52106e-09
4.22776e-09
4.3712e-09
4.11171e-09
3.56923e-09
5.37811e-09
5.50656e-09
5.49758e-09
3.62707e-09
7.11967e-09
7.2244e-09
7.81765e-09
3.69794e-09
9.51782e-09
9.72273e-09
1.14756e-08
3.78642e-09
1.2721e-08
1.32972e-08
1.85206e-08
3.89887e-09
1.83844e-08
1.83157e-08
3.1182e-08
4.04694e-09
2.31232e-08
2.47531e-08
4.59957e-08
4.2427e-09
3.5259e-08
3.3893e-08
7.23809e-08
4.50585e-09
4.46031e-08
4.53444e-08
1.20408e-07
4.85157e-09
5.84458e-08
5.87436e-08
1.52877e-07
5.33644e-09
7.68797e-08
7.76956e-08
2.33672e-07
5.95196e-09
9.36544e-08
9.48558e-08
2.97209e-07
6.78783e-09
1.20859e-07
1.1997e-07
3.63492e-07
7.75939e-09
1.43054e-07
1.44274e-07
4.60696e-07
9.40442e-09
1.75088e-07
1.77301e-07
5.22318e-07
1.09938e-08
2.0386e-07
2.04273e-07
5.95597e-07
1.35773e-08
2.47146e-07
2.43456e-07
6.61226e-07
1.57148e-08
2.79213e-07
2.84617e-07
7.15662e-07
1.96846e-08
3.18878e-07
3.21907e-07
7.67198e-07
2.47391e-08
3.73383e-07
3.65291e-07
8.13948e-07
2.99457e-08
4.15373e-07
4.17888e-07
8.54081e-07
3.56779e-08
4.44366e-07
4.52665e-07
8.90522e-07
4.39974e-08
5.23046e-07
5.07744e-07
9.25604e-07
5.4095e-08
5.72059e-07
5.5418e-07
9.61651e-07
6.3797e-08
5.99436e-07
6.08501e-07
9.89497e-07
7.72394e-08
6.49184e-07
6.53634e-07
1.02097e-06
8.93014e-08
7.04558e-07
6.98e-07
1.04903e-06
1.10028e-07
7.40198e-07
7.41876e-07
1.07815e-06
1.23283e-07
7.95277e-07
7.957e-07
1.10365e-06
1.49547e-07
8.36039e-07
8.38023e-07
1.14022e-06
1.70717e-07
8.62736e-07
8.63133e-07
1.15594e-06
1.89673e-07
9.15372e-07
9.14616e-07
1.18464e-06
2.19413e-07
9.43661e-07
9.45476e-07
1.21028e-06
2.45922e-07
9.79872e-07
9.79824e-07
1.23076e-06
2.73655e-07
1.00261e-06
1.00116e-06
1.25404e-06
3.01714e-07
1.03498e-06
1.03159e-06
1.27481e-06
3.34755e-07
1.05226e-06
1.05802e-06
1.29001e-06
3.61797e-07
1.08863e-06
1.08539e-06
1.31574e-06
3.97523e-07
1.10298e-06
1.1045e-06
1.32591e-06
4.24235e-07
1.11641e-06
1.12071e-06
1.34472e-06
4.53165e-07
1.14728e-06
1.14359e-06
1.36501e-06
4.81661e-07
1.15729e-06
1.16367e-06
1.37237e-06
5.09918e-07
1.16872e-06
1.16604e-06
1.38613e-06
5.28577e-07
1.18456e-06
1.18204e-06
1.39814e-06
5.56534e-07
1.19975e-06
1.20395e-06
1.40832e-06
5.7948e-07
1.20802e-06
1.20942e-06
1.41843e-06
5.97184e-07
1.22267e-06
1.21737e-06
1.43083e-06
6.14644e-07
1.221e-06
1.2188e-06
1.42717e-06
6.2457e-07
1.22541e-06
1.22675e-06
1.43111e-06
6.54238e-07
1.25671e-06
1.25802e-06
1.47305e-06
6.67861e-07
1.25065e-06
1.25062e-06
1.46737e-06
6.50017e-07
1.20151e-06
1.20131e-06
1.40644e-06
6.28372e-07
1.17132e-06
1.17113e-06
1.36385e-06
6.43237e-07
1.20132e-06
1.2011e-06
1.40851e-06
7.04051e-07
1.26792e-06
1.26787e-06
1.49217e-06
7.54018e-07
1.32475e-06
1.32489e-06
1.56472e-06
7.73032e-07
1.34859e-06
1.34876e-06
1.59912e-06
7.50078e-07
1.30489e-06
1.30502e-06
1.54416e-06
6.8627e-07
1.21013e-06
1.21024e-06
1.42028e-06
6.37423e-07
1.14466e-06
1.14476e-06
1.33601e-06
6.22314e-07
1.12482e-06
1.1249e-06
1.31871e-06
6.39526e-07
1.1388e-06
1.13888e-06
1.34751e-06
6.65321e-07
1.15711e-06
1.1572e-06
1.37921e-06
6.72419e-07
1.16573e-06
1.16583e-06
1.39923e-06
6.72204e-07
1.16795e-06
1.16805e-06
1.40886e-06
6.71165e-07
1.16819e-06
1.16829e-06
1.41278e-06
6.70459e-07
1.16799e-06
1.16809e-06
1.41424e-06
6.69962e-07
1.16772e-06
1.16782e-06
1.41448e-06
6.69749e-07
1.16757e-06
1.16767e-06
1.4143e-06
6.69745e-07
1.16764e-06
1.16773e-06
1.41466e-06
6.69707e-07
1.16759e-06
1.16769e-06
1.41452e-06
6.69697e-07
1.16759e-06
1.16769e-06
1.41443e-06
6.69707e-07
1.16762e-06
1.16772e-06
1.41463e-06
6.69702e-07
1.16761e-06
1.1677e-06
1.41436e-06
6.69713e-07
1.16765e-06
1.16775e-06
1.41459e-06
6.6971e-07
1.16767e-06
1.16777e-06
1.41444e-06
6.69469e-07
1.1674e-06
1.16749e-06
1.4142e-06
6.51435e-07
1.11219e-06
1.11225e-06
1.37261e-06
5.02047e-09
4.24271e-09
5.16134e-09
4.84514e-09
4.26264e-09
4.26946e-09
3.57511e-09
3.55576e-09
3.56237e-09
3.5962e-09
4.27988e-09
4.22917e-09
5.02236e-09
4.23986e-09
4.1115e-09
4.94315e-09
4.99398e-09
4.56774e-09
4.73312e-09
8.79672e-09
4.41466e-09
8.4373e-09
4.8093e-09
4.53223e-09
4.81842e-09
4.77044e-09
4.48674e-09
4.45501e-09
4.77359e-09
3.3649e-09
4.45417e-09
4.99796e-09
4.56817e-09
4.77359e-09
4.20501e-09
4.51727e-09
4.49127e-09
4.53451e-09
4.15217e-09
4.30722e-09
8.25721e-09
4.00848e-09
7.71657e-09
4.47435e-09
4.28007e-09
4.37398e-09
4.34785e-09
4.06204e-09
4.04961e-09
4.34577e-09
3.09997e-09
4.04381e-09
4.53592e-09
4.15141e-09
4.42599e-09
3.83524e-09
4.17044e-09
4.08491e-09
4.12382e-09
3.79598e-09
3.91614e-09
7.50799e-09
3.65802e-09
6.58163e-09
4.22763e-09
3.96715e-09
3.9661e-09
3.95696e-09
3.70045e-09
3.69787e-09
3.9503e-09
2.87015e-09
3.68812e-09
4.12402e-09
3.79445e-09
4.09135e-09
3.51498e-09
3.87219e-09
3.74047e-09
3.77172e-09
3.48876e-09
3.5777e-09
6.17848e-09
3.35417e-09
4.85244e-09
3.9008e-09
3.49614e-09
3.61873e-09
3.61789e-09
3.39306e-09
3.3963e-09
3.60712e-09
2.67011e-09
3.38204e-09
3.77083e-09
3.48602e-09
3.80464e-09
3.23637e-09
3.61574e-09
3.4472e-09
3.46824e-09
3.22355e-09
3.28564e-09
4.43008e-09
3.09862e-09
3.41332e-09
3.47097e-09
3.15335e-09
3.32363e-09
3.32844e-09
3.13472e-09
3.14257e-09
3.31288e-09
2.50212e-09
3.12301e-09
3.4656e-09
3.22238e-09
3.55726e-09
3.00341e-09
3.39699e-09
3.19782e-09
3.20672e-09
2.99431e-09
3.04141e-09
3.16874e-09
2.88828e-09
2.65173e-09
3.12833e-09
2.82269e-09
3.07692e-09
3.08552e-09
2.92273e-09
2.93159e-09
3.06545e-09
2.36704e-09
2.91106e-09
3.20634e-09
2.99347e-09
3.3482e-09
2.8106e-09
3.22137e-09
2.98511e-09
2.98123e-09
2.8006e-09
2.84279e-09
2.53396e-09
2.7248e-09
2.29387e-09
2.81003e-09
2.61764e-09
2.87676e-09
2.88544e-09
2.75751e-09
2.76383e-09
2.86448e-09
2.26629e-09
2.74432e-09
2.98082e-09
2.79999e-09
3.18426e-09
2.66061e-09
3.09022e-09
2.80837e-09
2.79143e-09
2.64365e-09
2.6898e-09
2.24547e-09
2.604e-09
2.15665e-09
2.612e-09
2.45546e-09
2.72315e-09
2.72814e-09
2.6358e-09
2.63746e-09
2.70918e-09
2.19836e-09
2.62178e-09
2.79121e-09
2.64236e-09
3.06242e-09
2.55016e-09
2.99075e-09
2.66391e-09
2.63853e-09
2.52182e-09
2.5801e-09
2.14376e-09
2.52516e-09
2.1338e-09
2.45373e-09
2.33791e-09
2.61179e-09
2.61194e-09
2.55392e-09
2.55096e-09
2.59692e-09
2.16324e-09
2.53845e-09
2.63743e-09
2.51871e-09
2.96944e-09
2.47634e-09
2.91848e-09
2.54838e-09
2.52105e-09
2.43427e-09
2.51047e-09
2.13559e-09
2.4843e-09
2.15478e-09
2.33971e-09
2.26364e-09
2.53954e-09
2.53535e-09
2.50966e-09
2.50525e-09
2.52318e-09
2.15965e-09
2.49314e-09
2.51797e-09
2.42979e-09
2.9053e-09
2.43892e-09
2.88295e-09
2.4655e-09
2.43741e-09
2.38081e-09
2.4788e-09
2.16575e-09
2.48205e-09
2.21216e-09
2.26897e-09
2.22628e-09
2.50505e-09
2.49956e-09
2.5052e-09
2.50098e-09
2.48781e-09
2.19234e-09
2.48869e-09
2.4328e-09
2.37523e-09
2.87921e-09
2.43833e-09
2.88499e-09
2.41775e-09
2.38967e-09
2.3653e-09
2.48821e-09
2.23133e-09
2.52561e-09
2.30616e-09
2.23784e-09
2.2257e-09
2.50984e-09
2.50588e-09
2.54335e-09
2.54263e-09
2.49381e-09
2.26657e-09
2.52942e-09
2.38407e-09
2.35947e-09
2.89245e-09
2.4811e-09
2.93011e-09
2.40701e-09
2.3837e-09
2.39944e-09
2.54428e-09
2.33934e-09
2.62607e-09
2.4571e-09
2.24603e-09
2.27435e-09
2.56103e-09
2.56085e-09
2.63909e-09
2.63991e-09
2.54855e-09
2.38886e-09
2.62814e-09
2.37826e-09
2.39262e-09
2.94748e-09
2.58015e-09
3.0206e-09
2.44434e-09
2.43169e-09
2.50163e-09
2.66258e-09
2.50366e-09
2.79969e-09
2.67158e-09
2.30883e-09
2.38876e-09
2.67333e-09
2.67524e-09
2.81031e-09
2.81408e-09
2.663e-09
2.58121e-09
2.80079e-09
2.42517e-09
2.4949e-09
3.05384e-09
2.75583e-09
3.18416e-09
2.55097e-09
2.55588e-09
2.70738e-09
2.85701e-09
2.74159e-09
3.08135e-09
2.99667e-09
2.44584e-09
2.61165e-09
2.86708e-09
2.87255e-09
3.08477e-09
3.08977e-09
2.86046e-09
2.88379e-09
3.08654e-09
2.54827e-09
2.69991e-09
3.24316e-09
3.03761e-09
3.47079e-09
2.76934e-09
2.80077e-09
3.08281e-09
3.17365e-09
3.09762e-09
3.52182e-09
3.47023e-09
2.70519e-09
2.99786e-09
3.17615e-09
3.181e-09
3.52845e-09
3.53709e-09
3.18057e-09
3.33093e-09
3.52636e-09
2.79222e-09
3.06723e-09
3.56587e-09
3.48206e-09
3.9323e-09
3.16029e-09
3.24112e-09
3.74586e-09
3.66696e-09
3.61683e-09
4.2034e-09
4.17862e-09
3.15159e-09
3.68283e-09
3.67393e-09
3.68079e-09
4.20202e-09
4.19946e-09
3.67082e-09
4.02103e-09
4.21771e-09
3.22477e-09
3.71429e-09
4.08099e-09
4.15151e-09
4.63148e-09
3.84487e-09
3.998e-09
4.92226e-09
4.4211e-09
4.39822e-09
5.25137e-09
5.23582e-09
3.93203e-09
4.85956e-09
4.41749e-09
4.41681e-09
5.24859e-09
5.24402e-09
4.43588e-09
5.0562e-09
5.25851e-09
3.96445e-09
4.88198e-09
4.86309e-09
5.19259e-09
5.72025e-09
5.0255e-09
5.35791e-09
6.93526e-09
5.57508e-09
5.56462e-09
6.79569e-09
6.79856e-09
5.312e-09
6.8278e-09
5.56738e-09
5.56365e-09
6.80036e-09
6.8149e-09
5.59588e-09
6.57761e-09
6.79316e-09
5.28622e-09
6.96311e-09
6.06668e-09
6.76313e-09
7.24694e-09
7.00673e-09
7.68653e-09
1.04459e-08
7.27899e-09
7.36054e-09
9.06001e-09
9.03895e-09
7.71038e-09
1.02435e-08
7.28241e-09
7.28493e-09
9.0317e-09
9.08258e-09
7.31909e-09
8.72037e-09
8.99604e-09
7.65872e-09
1.0499e-08
7.77412e-09
9.02725e-09
9.41256e-09
1.03736e-08
1.16786e-08
1.64707e-08
9.7923e-09
9.85762e-09
1.22881e-08
1.22395e-08
1.13466e-08
1.67546e-08
9.75299e-09
9.75959e-09
1.22572e-08
1.2406e-08
9.79635e-09
1.1841e-08
1.23009e-08
1.16963e-08
1.66895e-08
1.01606e-08
1.23214e-08
1.26649e-08
1.70959e-08
1.83089e-08
2.70142e-08
1.32897e-08
1.31484e-08
1.69391e-08
1.75587e-08
1.80936e-08
2.91929e-08
1.32405e-08
1.3399e-08
1.68523e-08
1.67515e-08
1.31109e-08
1.7022e-08
1.71025e-08
1.87997e-08
2.5798e-08
1.33964e-08
1.66872e-08
1.71891e-08
2.6953e-08
3.00456e-08
4.28328e-08
1.8286e-08
1.89143e-08
2.30322e-08
2.21738e-08
3.28795e-08
3.98433e-08
1.81747e-08
1.84123e-08
2.30838e-08
2.31264e-08
1.87046e-08
2.15996e-08
2.27537e-08
2.90618e-08
4.43323e-08
1.87358e-08
2.30504e-08
2.27054e-08
4.20649e-08
4.77152e-08
6.79782e-08
2.50655e-08
2.37713e-08
3.11693e-08
3.32574e-08
4.25857e-08
7.47078e-08
2.51248e-08
2.48443e-08
3.09675e-08
3.1729e-08
2.515e-08
3.24589e-08
3.06982e-08
4.73716e-08
7.02692e-08
2.48406e-08
3.1561e-08
3.04016e-08
6.87901e-08
7.31598e-08
1.05002e-07
3.35278e-08
3.60056e-08
4.25065e-08
4.19624e-08
8.50133e-08
1.03696e-07
3.32999e-08
3.40593e-08
4.24528e-08
4.18908e-08
3.25315e-08
4.12254e-08
4.40517e-08
7.66284e-08
1.03774e-07
3.22454e-08
4.2142e-08
4.32217e-08
1.07535e-07
1.14926e-07
1.50199e-07
4.55775e-08
4.53376e-08
5.55368e-08
5.65572e-08
1.09082e-07
1.61276e-07
4.55737e-08
4.52584e-08
5.52272e-08
5.60395e-08
4.68146e-08
5.59879e-08
5.45593e-08
1.13023e-07
1.51433e-07
4.63379e-08
5.53588e-08
5.37532e-08
1.45551e-07
1.60195e-07
2.11105e-07
5.92898e-08
5.90861e-08
7.149e-08
7.26296e-08
1.70301e-07
2.02113e-07
5.90268e-08
5.91104e-08
7.12888e-08
7.27139e-08
5.95582e-08
7.06893e-08
7.21264e-08
1.6337e-07
2.08093e-07
5.79901e-08
7.23964e-08
7.11373e-08
2.21252e-07
2.24893e-07
2.78611e-07
7.61834e-08
7.89959e-08
9.14958e-08
9.06556e-08
2.20735e-07
2.87654e-07
7.58991e-08
7.82671e-08
9.12031e-08
9.01922e-08
7.59688e-08
9.03291e-08
9.23221e-08
2.22738e-07
2.86457e-07
7.58e-08
9.01151e-08
9.11973e-08
2.7969e-07
2.95299e-07
3.59948e-07
9.63069e-08
9.41234e-08
1.13607e-07
1.14386e-07
2.95981e-07
3.49581e-07
9.61426e-08
9.48086e-08
1.13399e-07
1.1492e-07
9.65321e-08
1.12133e-07
1.12321e-07
2.96457e-07
3.56198e-07
9.53411e-08
1.14276e-07
1.11534e-07
3.48385e-07
3.73579e-07
4.33542e-07
1.20526e-07
1.22678e-07
1.37519e-07
1.39174e-07
3.72249e-07
4.42139e-07
1.1999e-07
1.20631e-07
1.36786e-07
1.36275e-07
1.19954e-07
1.38947e-07
1.39326e-07
3.76401e-07
4.33461e-07
1.18756e-07
1.35987e-07
1.38402e-07
4.4669e-07
4.5003e-07
5.07716e-07
1.43228e-07
1.43602e-07
1.69798e-07
1.68903e-07
4.52904e-07
5.00994e-07
1.42595e-07
1.44339e-07
1.69289e-07
1.70952e-07
1.45143e-07
1.65026e-07
1.66962e-07
4.47039e-07
5.16274e-07
1.44575e-07
1.71365e-07
1.6484e-07
5.04288e-07
5.24623e-07
5.85862e-07
1.78339e-07
1.78827e-07
1.97726e-07
1.98355e-07
5.21943e-07
5.84364e-07
1.77994e-07
1.76897e-07
1.96994e-07
1.95964e-07
1.74788e-07
1.97216e-07
1.97483e-07
5.3387e-07
5.73945e-07
1.72736e-07
1.94246e-07
1.99077e-07
5.8154e-07
5.9893e-07
6.50595e-07
2.06499e-07
2.05876e-07
2.39151e-07
2.39965e-07
5.95669e-07
6.47184e-07
2.05463e-07
2.06411e-07
2.40117e-07
2.35191e-07
2.06419e-07
2.3518e-07
2.35972e-07
5.86598e-07
6.51352e-07
2.06153e-07
2.35119e-07
2.3244e-07
6.47603e-07
6.66308e-07
6.96614e-07
2.47767e-07
2.49637e-07
2.69198e-07
2.67988e-07
6.63787e-07
7.03358e-07
2.48442e-07
2.44075e-07
2.67179e-07
2.74419e-07
2.44363e-07
2.71804e-07
2.70463e-07
6.6864e-07
7.03413e-07
2.43132e-07
2.75487e-07
2.70736e-07
7.02143e-07
7.07017e-07
7.54302e-07
2.77073e-07
2.76135e-07
3.08714e-07
3.11747e-07
7.1391e-07
7.45412e-07
2.75097e-07
2.83349e-07
3.08003e-07
3.1162e-07
2.80706e-07
3.09802e-07
3.10894e-07
7.15446e-07
7.54754e-07
2.80241e-07
3.10719e-07
3.11104e-07
7.54538e-07
7.68562e-07
8.04091e-07
3.23075e-07
3.22304e-07
3.60878e-07
3.61689e-07
7.59352e-07
8.1483e-07
3.22148e-07
3.23063e-07
3.61194e-07
3.54826e-07
3.21623e-07
3.56955e-07
3.58861e-07
7.65604e-07
8.00555e-07
3.20382e-07
3.53767e-07
3.55634e-07
8.02975e-07
8.16097e-07
8.44819e-07
3.70265e-07
3.77279e-07
4.04135e-07
4.11041e-07
8.28674e-07
8.42292e-07
3.70241e-07
3.65175e-07
4.01873e-07
4.05393e-07
3.69842e-07
4.09287e-07
3.97724e-07
8.13772e-07
8.47021e-07
3.69743e-07
4.05214e-07
4.00465e-07
8.43651e-07
8.53689e-07
8.77151e-07
4.16899e-07
4.16966e-07
4.45764e-07
4.34981e-07
8.46103e-07
8.59598e-07
4.15152e-07
4.19192e-07
4.4751e-07
4.47063e-07
4.09856e-07
4.33634e-07
4.50714e-07
8.57075e-07
8.7886e-07
4.0933e-07
4.45306e-07
4.48758e-07
8.80955e-07
8.86751e-07
9.15753e-07
4.53784e-07
4.45594e-07
4.92911e-07
5.02149e-07
8.71424e-07
9.29699e-07
4.55675e-07
4.54156e-07
4.92233e-07
4.91155e-07
4.60821e-07
5.00886e-07
4.90463e-07
8.87055e-07
9.14054e-07
4.60708e-07
4.90401e-07
4.9016e-07
9.15707e-07
9.26458e-07
9.52685e-07
5.10855e-07
5.24841e-07
5.50405e-07
5.6698e-07
9.42031e-07
9.59026e-07
5.09541e-07
5.09281e-07
5.48378e-07
5.49422e-07
5.05677e-07
5.64036e-07
5.51655e-07
9.25472e-07
9.52719e-07
5.04313e-07
5.45904e-07
5.49107e-07
9.53646e-07
9.6054e-07
9.82025e-07
5.58652e-07
5.74994e-07
5.90332e-07
5.94232e-07
9.64807e-07
9.79367e-07
5.57197e-07
5.57182e-07
5.93978e-07
5.88062e-07
5.61368e-07
5.91657e-07
5.895e-07
9.5998e-07
9.80827e-07
5.58684e-07
5.91677e-07
5.88122e-07
9.804e-07
9.90466e-07
1.01065e-06
6.05781e-07
6.01748e-07
6.44085e-07
6.34118e-07
9.86393e-07
1.0094e-06
6.08778e-07
6.04603e-07
6.40854e-07
6.49401e-07
6.03947e-07
6.34892e-07
6.46743e-07
9.90744e-07
1.01576e-06
6.03363e-07
6.46136e-07
6.45011e-07
1.0143e-06
1.01806e-06
1.04346e-06
6.53024e-07
6.48085e-07
6.87491e-07
6.93205e-07
1.01968e-06
1.04352e-06
6.49301e-07
6.58202e-07
6.85795e-07
6.83033e-07
6.55769e-07
6.92409e-07
6.83316e-07
1.02188e-06
1.03706e-06
6.53435e-07
6.83003e-07
6.82763e-07
1.03975e-06
1.05206e-06
1.06927e-06
7.02246e-07
7.06335e-07
7.37982e-07
7.34181e-07
1.05024e-06
1.06785e-06
7.01544e-07
6.95736e-07
7.39242e-07
7.37029e-07
6.97226e-07
7.31182e-07
7.40122e-07
1.04539e-06
1.07144e-06
6.98053e-07
7.33581e-07
7.4127e-07
1.07259e-06
1.07566e-06
1.09939e-06
7.46399e-07
7.4239e-07
7.74516e-07
7.79575e-07
1.07571e-06
1.10202e-06
7.48065e-07
7.4599e-07
7.74422e-07
7.78898e-07
7.49383e-07
7.80222e-07
7.73921e-07
1.0782e-06
1.10037e-06
7.50117e-07
7.80131e-07
7.73479e-07
1.09457e-06
1.10816e-06
1.13125e-06
7.8804e-07
7.94931e-07
8.30886e-07
8.29942e-07
1.11047e-06
1.12918e-06
7.86412e-07
7.93815e-07
8.28865e-07
8.30399e-07
7.85629e-07
8.29082e-07
8.30242e-07
1.10986e-06
1.131e-06
7.84629e-07
8.3092e-07
8.28923e-07
1.1337e-06
1.13736e-06
1.14935e-06
8.40839e-07
8.37086e-07
8.60355e-07
8.54937e-07
1.13417e-06
1.14543e-06
8.39681e-07
8.37989e-07
8.60439e-07
8.56068e-07
8.41922e-07
8.54215e-07
8.62814e-07
1.13566e-06
1.14548e-06
8.412e-07
8.55431e-07
8.63192e-07
1.15097e-06
1.15465e-06
1.17664e-06
8.66735e-07
8.6317e-07
8.96832e-07
9.02462e-07
1.15165e-06
1.18142e-06
8.66918e-07
8.63904e-07
8.9789e-07
9.01443e-07
8.68646e-07
9.02411e-07
8.96812e-07
1.15158e-06
1.18072e-06
8.68886e-07
9.00534e-07
8.95798e-07
1.17596e-06
1.18563e-06
1.20385e-06
9.09424e-07
9.15712e-07
9.3701e-07
9.38167e-07
1.1903e-06
1.2056e-06
9.10757e-07
9.15326e-07
9.35948e-07
9.39866e-07
9.10035e-07
9.37833e-07
9.38034e-07
1.18996e-06
1.20698e-06
9.08936e-07
9.39485e-07
9.3922e-07
1.20563e-06
1.2087e-06
1.22599e-06
9.44597e-07
9.43886e-07
9.68283e-07
9.70023e-07
1.21006e-06
1.22761e-06
9.42824e-07
9.4557e-07
9.6792e-07
9.70095e-07
9.44064e-07
9.70439e-07
9.68548e-07
1.21158e-06
1.22862e-06
9.4508e-07
9.71259e-07
9.65585e-07
1.2242e-06
1.23229e-06
1.24629e-06
9.76021e-07
9.79016e-07
9.9779e-07
9.95272e-07
1.23472e-06
1.2466e-06
9.76091e-07
9.78863e-07
9.97183e-07
9.98075e-07
9.77361e-07
9.96855e-07
9.97236e-07
1.2354e-06
1.24717e-06
9.74547e-07
9.95572e-07
1.00043e-06
1.24861e-06
1.25152e-06
1.26753e-06
1.00469e-06
1.00105e-06
1.02564e-06
1.02657e-06
1.25066e-06
1.26814e-06
1.00383e-06
1.00398e-06
1.02466e-06
1.0239e-06
1.00404e-06
1.02808e-06
1.02957e-06
1.25119e-06
1.2657e-06
1.00773e-06
1.02451e-06
1.02641e-06
1.26959e-06
1.27327e-06
1.28886e-06
1.03291e-06
1.03414e-06
1.05265e-06
1.04831e-06
1.27442e-06
1.28391e-06
1.03194e-06
1.03064e-06
1.0528e-06
1.05167e-06
1.0363e-06
1.04707e-06
1.04854e-06
1.27166e-06
1.2865e-06
1.03145e-06
1.05056e-06
1.04848e-06
1.28512e-06
1.29381e-06
1.30472e-06
1.05752e-06
1.05348e-06
1.07311e-06
1.07819e-06
1.28797e-06
1.31031e-06
1.05815e-06
1.05855e-06
1.07277e-06
1.07666e-06
1.05355e-06
1.07941e-06
1.07767e-06
1.29221e-06
1.30962e-06
1.05637e-06
1.07994e-06
1.08026e-06
1.30994e-06
1.3101e-06
1.32822e-06
1.08072e-06
1.08673e-06
1.10231e-06
1.10154e-06
1.31817e-06
1.32933e-06
1.0795e-06
1.0826e-06
1.10109e-06
1.10126e-06
1.0855e-06
1.10169e-06
1.0982e-06
1.31488e-06
1.32658e-06
1.08542e-06
1.09945e-06
1.09463e-06
1.32302e-06
1.33299e-06
1.33992e-06
1.10648e-06
1.10353e-06
1.11622e-06
1.11248e-06
1.33129e-06
1.33246e-06
1.10621e-06
1.10652e-06
1.1174e-06
1.11661e-06
1.10061e-06
1.11086e-06
1.11406e-06
1.33099e-06
1.3396e-06
1.09867e-06
1.11741e-06
1.118e-06
1.33799e-06
1.34389e-06
1.35677e-06
1.121e-06
1.11823e-06
1.13828e-06
1.13979e-06
1.33737e-06
1.36076e-06
1.12146e-06
1.1193e-06
1.13598e-06
1.13433e-06
1.12135e-06
1.14057e-06
1.1422e-06
1.34295e-06
1.3536e-06
1.12437e-06
1.13602e-06
1.13879e-06
1.3609e-06
1.36155e-06
1.37135e-06
1.14324e-06
1.14486e-06
1.15469e-06
1.15466e-06
1.36622e-06
1.37181e-06
1.14091e-06
1.14185e-06
1.15531e-06
1.16093e-06
1.1467e-06
1.15601e-06
1.15351e-06
1.36001e-06
1.3776e-06
1.14317e-06
1.16148e-06
1.15368e-06
1.36973e-06
1.37542e-06
1.38508e-06
1.15877e-06
1.15768e-06
1.17228e-06
1.16834e-06
1.37437e-06
1.37953e-06
1.16038e-06
1.16404e-06
1.17325e-06
1.16703e-06
1.15561e-06
1.16449e-06
1.16878e-06
1.38104e-06
1.37805e-06
1.15623e-06
1.16503e-06
1.16813e-06
1.38069e-06
1.38854e-06
1.39113e-06
1.17538e-06
1.17211e-06
1.18064e-06
1.18159e-06
1.38331e-06
1.39182e-06
1.1754e-06
1.16789e-06
1.17906e-06
1.17511e-06
1.17474e-06
1.18108e-06
1.18422e-06
1.37945e-06
1.38507e-06
1.17314e-06
1.17648e-06
1.18191e-06
1.39578e-06
1.39413e-06
1.40798e-06
1.18345e-06
1.18476e-06
1.19903e-06
1.19661e-06
1.39567e-06
1.40554e-06
1.1817e-06
1.17971e-06
1.19808e-06
1.19912e-06
1.18543e-06
1.19641e-06
1.19479e-06
1.39046e-06
1.4094e-06
1.18375e-06
1.19984e-06
1.19564e-06
1.40355e-06
1.41348e-06
1.41803e-06
1.20384e-06
1.19986e-06
1.20949e-06
1.20512e-06
1.40947e-06
1.4132e-06
1.20387e-06
1.20463e-06
1.21086e-06
1.21165e-06
1.19969e-06
1.20558e-06
1.20801e-06
1.41469e-06
1.41964e-06
1.20039e-06
1.20887e-06
1.20758e-06
1.4159e-06
1.41961e-06
1.42384e-06
1.21035e-06
1.20731e-06
1.21808e-06
1.219e-06
1.41605e-06
1.42698e-06
1.21147e-06
1.21212e-06
1.21726e-06
1.2161e-06
1.21005e-06
1.21994e-06
1.22069e-06
1.42133e-06
1.42265e-06
1.20926e-06
1.21471e-06
1.21893e-06
1.42684e-06
1.42808e-06
1.42703e-06
1.22154e-06
1.22192e-06
1.22384e-06
1.22235e-06
1.4311e-06
1.4264e-06
1.22011e-06
1.21821e-06
1.22213e-06
1.21968e-06
1.22332e-06
1.22275e-06
1.22328e-06
1.42581e-06
1.42279e-06
1.22156e-06
1.21959e-06
1.22183e-06
1.42651e-06
1.4278e-06
1.42502e-06
1.22225e-06
1.22065e-06
1.22116e-06
1.22075e-06
1.42708e-06
1.42566e-06
1.2207e-06
1.21874e-06
1.22011e-06
1.2202e-06
1.22124e-06
1.22098e-06
1.22049e-06
1.42363e-06
1.42519e-06
1.22007e-06
1.22054e-06
1.22005e-06
1.42487e-06
1.43077e-06
1.46419e-06
1.22424e-06
1.22531e-06
1.24871e-06
1.25121e-06
1.43223e-06
1.4679e-06
1.22374e-06
1.22611e-06
1.24888e-06
1.25234e-06
1.22419e-06
1.25117e-06
1.24985e-06
1.43273e-06
1.46936e-06
1.22462e-06
1.25309e-06
1.25093e-06
1.46633e-06
1.47089e-06
1.46667e-06
1.25437e-06
1.25676e-06
1.25549e-06
1.25728e-06
1.47453e-06
1.46886e-06
1.25449e-06
1.25736e-06
1.25554e-06
1.25721e-06
1.25561e-06
1.25728e-06
1.25664e-06
1.47558e-06
1.46914e-06
1.25649e-06
1.25765e-06
1.25715e-06
1.46846e-06
1.46572e-06
1.41022e-06
1.24941e-06
1.25061e-06
1.21536e-06
1.21563e-06
1.46763e-06
1.40993e-06
1.24946e-06
1.25033e-06
1.21538e-06
1.21537e-06
1.25038e-06
1.21565e-06
1.21579e-06
1.46788e-06
1.40998e-06
1.25067e-06
1.21548e-06
1.21588e-06
1.41064e-06
1.40611e-06
1.36311e-06
1.2014e-06
1.2015e-06
1.17357e-06
1.17367e-06
1.40573e-06
1.36259e-06
1.20137e-06
1.20123e-06
1.1734e-06
1.17339e-06
1.20169e-06
1.17364e-06
1.1737e-06
1.40576e-06
1.36244e-06
1.20173e-06
1.17345e-06
1.17371e-06
1.36312e-06
1.36385e-06
1.39292e-06
1.17123e-06
1.17135e-06
1.18585e-06
1.18613e-06
1.36335e-06
1.3931e-06
1.17102e-06
1.17106e-06
1.18551e-06
1.18584e-06
1.17135e-06
1.18612e-06
1.18601e-06
1.36319e-06
1.3928e-06
1.17135e-06
1.18591e-06
1.18597e-06
1.39308e-06
1.4083e-06
1.47666e-06
1.201e-06
1.20133e-06
1.25193e-06
1.25225e-06
1.40861e-06
1.47723e-06
1.20065e-06
1.20104e-06
1.25162e-06
1.25213e-06
1.20121e-06
1.2523e-06
1.25231e-06
1.40829e-06
1.47707e-06
1.20115e-06
1.25219e-06
1.25215e-06
1.47716e-06
1.49167e-06
1.55089e-06
1.26759e-06
1.26787e-06
1.3118e-06
1.31191e-06
1.49225e-06
1.55128e-06
1.26731e-06
1.26782e-06
1.31158e-06
1.31205e-06
1.26798e-06
1.31197e-06
1.31211e-06
1.49212e-06
1.55139e-06
1.2678e-06
1.31208e-06
1.31191e-06
1.55134e-06
1.56434e-06
1.5957e-06
1.32465e-06
1.3247e-06
1.34754e-06
1.34743e-06
1.56467e-06
1.59573e-06
1.32444e-06
1.32487e-06
1.34736e-06
1.34765e-06
1.32491e-06
1.34749e-06
1.34768e-06
1.56481e-06
1.59596e-06
1.32471e-06
1.34766e-06
1.34747e-06
1.5959e-06
1.59897e-06
1.55169e-06
1.34867e-06
1.34853e-06
1.32436e-06
1.32411e-06
1.59894e-06
1.55142e-06
1.3485e-06
1.34876e-06
1.32423e-06
1.32432e-06
1.34879e-06
1.32418e-06
1.3244e-06
1.59918e-06
1.55163e-06
1.34858e-06
1.32432e-06
1.3242e-06
1.5517e-06
1.54417e-06
1.42844e-06
1.30505e-06
1.30481e-06
1.23302e-06
1.23282e-06
1.54389e-06
1.42824e-06
1.30493e-06
1.305e-06
1.23289e-06
1.23295e-06
1.30509e-06
1.23288e-06
1.23307e-06
1.54409e-06
1.42836e-06
1.3049e-06
1.23299e-06
1.23289e-06
1.42848e-06
1.42025e-06
1.33844e-06
1.21024e-06
1.21006e-06
1.15672e-06
1.15657e-06
1.42006e-06
1.33835e-06
1.2101e-06
1.21018e-06
1.15655e-06
1.15666e-06
1.21029e-06
1.15661e-06
1.15675e-06
1.42016e-06
1.33842e-06
1.21012e-06
1.15671e-06
1.15658e-06
1.3385e-06
1.33596e-06
1.31578e-06
1.14478e-06
1.14463e-06
1.12625e-06
1.12612e-06
1.33587e-06
1.31574e-06
1.14459e-06
1.14472e-06
1.12605e-06
1.1262e-06
1.1448e-06
1.12612e-06
1.12627e-06
1.33593e-06
1.3158e-06
1.14462e-06
1.12621e-06
1.12608e-06
1.31586e-06
1.31863e-06
1.33939e-06
1.12495e-06
1.12482e-06
1.13297e-06
1.13286e-06
1.3186e-06
1.33937e-06
1.12474e-06
1.1249e-06
1.13277e-06
1.13294e-06
1.12496e-06
1.13283e-06
1.13299e-06
1.31865e-06
1.33944e-06
1.12477e-06
1.13291e-06
1.1328e-06
1.33951e-06
1.34742e-06
1.37248e-06
1.13893e-06
1.13883e-06
1.15351e-06
1.1534e-06
1.3474e-06
1.37244e-06
1.13874e-06
1.13891e-06
1.15334e-06
1.1535e-06
1.13895e-06
1.15338e-06
1.15353e-06
1.34746e-06
1.37252e-06
1.13877e-06
1.15347e-06
1.15335e-06
1.37257e-06
1.37913e-06
1.39466e-06
1.15724e-06
1.15713e-06
1.1645e-06
1.16439e-06
1.37909e-06
1.39463e-06
1.15706e-06
1.15723e-06
1.16433e-06
1.1645e-06
1.15725e-06
1.16437e-06
1.16451e-06
1.37917e-06
1.39472e-06
1.15708e-06
1.16447e-06
1.16435e-06
1.39474e-06
1.39917e-06
1.40585e-06
1.16585e-06
1.16574e-06
1.16779e-06
1.16768e-06
1.39913e-06
1.40582e-06
1.16568e-06
1.16585e-06
1.16762e-06
1.1678e-06
1.16586e-06
1.16767e-06
1.16781e-06
1.39922e-06
1.40591e-06
1.1657e-06
1.16777e-06
1.16765e-06
1.40593e-06
1.40879e-06
1.41051e-06
1.16807e-06
1.16797e-06
1.1683e-06
1.1682e-06
1.40877e-06
1.41049e-06
1.1679e-06
1.16808e-06
1.16813e-06
1.16831e-06
1.16809e-06
1.16819e-06
1.16833e-06
1.40885e-06
1.41058e-06
1.16793e-06
1.16829e-06
1.16817e-06
1.4106e-06
1.41271e-06
1.41226e-06
1.1683e-06
1.1682e-06
1.16815e-06
1.16805e-06
1.41269e-06
1.41223e-06
1.16813e-06
1.16831e-06
1.16798e-06
1.16816e-06
1.16833e-06
1.16803e-06
1.16817e-06
1.41277e-06
1.41232e-06
1.16817e-06
1.16813e-06
1.16802e-06
1.41234e-06
1.41417e-06
1.41257e-06
1.16811e-06
1.16801e-06
1.16788e-06
1.16777e-06
1.41414e-06
1.41254e-06
1.16794e-06
1.16812e-06
1.16771e-06
1.16789e-06
1.16813e-06
1.16776e-06
1.1679e-06
1.41423e-06
1.41263e-06
1.16797e-06
1.16786e-06
1.16774e-06
1.41265e-06
1.41441e-06
1.41243e-06
1.16785e-06
1.16774e-06
1.16768e-06
1.16757e-06
1.41439e-06
1.41241e-06
1.16768e-06
1.16785e-06
1.16751e-06
1.16769e-06
1.16786e-06
1.16756e-06
1.1677e-06
1.41447e-06
1.4125e-06
1.1677e-06
1.16765e-06
1.16754e-06
1.41251e-06
1.41424e-06
1.4127e-06
1.16769e-06
1.16759e-06
1.16772e-06
1.16762e-06
1.41421e-06
1.41269e-06
1.16752e-06
1.1677e-06
1.16755e-06
1.16773e-06
1.16771e-06
1.1676e-06
1.16774e-06
1.41429e-06
1.41277e-06
1.16755e-06
1.1677e-06
1.16758e-06
1.41281e-06
1.41458e-06
1.41268e-06
1.16776e-06
1.16765e-06
1.16771e-06
1.1676e-06
1.41456e-06
1.41265e-06
1.16759e-06
1.16777e-06
1.16754e-06
1.16772e-06
1.16778e-06
1.16759e-06
1.16773e-06
1.41464e-06
1.41274e-06
1.16762e-06
1.16769e-06
1.16757e-06
1.41275e-06
1.41447e-06
1.41248e-06
1.16772e-06
1.16761e-06
1.16766e-06
1.16755e-06
1.41444e-06
1.41246e-06
1.16755e-06
1.16773e-06
1.16749e-06
1.16767e-06
1.16773e-06
1.16754e-06
1.16768e-06
1.41452e-06
1.41255e-06
1.16757e-06
1.16763e-06
1.16752e-06
1.41258e-06
1.41435e-06
1.41274e-06
1.16771e-06
1.16761e-06
1.16769e-06
1.16758e-06
1.41433e-06
1.41272e-06
1.16754e-06
1.16772e-06
1.16752e-06
1.1677e-06
1.16773e-06
1.16757e-06
1.16771e-06
1.41441e-06
1.41281e-06
1.16757e-06
1.16766e-06
1.16755e-06
1.41282e-06
1.41456e-06
1.4125e-06
1.16775e-06
1.16764e-06
1.16765e-06
1.16754e-06
1.41454e-06
1.41247e-06
1.16758e-06
1.16775e-06
1.16748e-06
1.16766e-06
1.16776e-06
1.16753e-06
1.16767e-06
1.41462e-06
1.41256e-06
1.1676e-06
1.16762e-06
1.1675e-06
1.41257e-06
1.4143e-06
1.41265e-06
1.16773e-06
1.16762e-06
1.16765e-06
1.16754e-06
1.41428e-06
1.41263e-06
1.16756e-06
1.16774e-06
1.16748e-06
1.16766e-06
1.16775e-06
1.16753e-06
1.16767e-06
1.41436e-06
1.41272e-06
1.16758e-06
1.16763e-06
1.16751e-06
1.41275e-06
1.4145e-06
1.41262e-06
1.16777e-06
1.16767e-06
1.16763e-06
1.16752e-06
1.41448e-06
1.41259e-06
1.1676e-06
1.16778e-06
1.16745e-06
1.16764e-06
1.16779e-06
1.16751e-06
1.16764e-06
1.41456e-06
1.41268e-06
1.16763e-06
1.1676e-06
1.16748e-06
1.41267e-06
1.41439e-06
1.41238e-06
1.16779e-06
1.16769e-06
1.16724e-06
1.16714e-06
1.41437e-06
1.41236e-06
1.16762e-06
1.1678e-06
1.16707e-06
1.16724e-06
1.16781e-06
1.16712e-06
1.16725e-06
1.41445e-06
1.41244e-06
1.16764e-06
1.16721e-06
1.16709e-06
1.41248e-06
1.41411e-06
1.39381e-06
1.16752e-06
1.16742e-06
1.14711e-06
1.14696e-06
1.4141e-06
1.39377e-06
1.16734e-06
1.16752e-06
1.147e-06
1.14702e-06
1.16753e-06
1.14706e-06
1.14706e-06
1.41418e-06
1.39383e-06
1.16737e-06
1.14712e-06
1.14695e-06
1.3938e-06
1.37265e-06
1.11222e-06
1.11207e-06
1.37261e-06
1.11214e-06
1.11213e-06
6.51385e-07
6.5143e-07
6.51379e-07
1.11215e-06
1.37266e-06
1.11208e-06
8.91336e-09
2.6749e-09
5.481e-09
5.47852e-09
1.78238e-09
4.15611e-09
3.13095e-09
2.84614e-09
1.77073e-09
4.34594e-09
2.96204e-09
9.38227e-09
5.11064e-09
7.62417e-09
6.37515e-09
7.59234e-09
1.64592e-07
6.03051e-09
2.60964e-07
1.57727e-06
3.15572e-06
7.59546e-09
1.64917e-07
6.10036e-09
2.61753e-07
3.57118e-09
3.56742e-09
3.60257e-09
3.56185e-09
3.54929e-09
3.54773e-09
3.58675e-09
1.61862e-09
7.65236e-08
1.85112e-09
3.50836e-09
1.67794e-09
5.54052e-08
1.83327e-09
1.62873e-06
3.21069e-06
1.74794e-09
2.16021e-09
8.26517e-08
4.40477e-09
1.77781e-09
2.12967e-09
6.10389e-08
2.19334e-07
2.14507e-07
4.71795e-09
1.88559e-07
1.84207e-07
1.69423e-08
4.65807e-07
1.18929e-08
6.81289e-07
7.08799e-06
1.01503e-05
1.73987e-08
4.66763e-07
1.17252e-08
6.82631e-07
3.53243e-09
3.53798e-09
3.57775e-09
3.52249e-09
3.48321e-09