/*--------------------------------*- C++ -*----------------------------------*\
| =========                 |                                                 |
| \\      /  F ield         | OpenFOAM: The Open Source CFD Toolbox           |
|  \\    /   O peration     | Version:  v2012                                 |
|   \\  /    A nd           | Website:  www.openfoam.com                      |
|    \\/     M anipulation  |                                                 |
\*---------------------------------------------------------------------------*/
FoamFile
{
    version     2.0;
    format      ascii;
    class       volScalarField;
    location    "225";
    object      nut;
}
// * * * * * * * * * * * * * * * * * * * * * * * * * * * * * * * * * * * * * //

dimensions      [0 2 -1 0 0 0 0];


internalField   nonuniform List<scalar> 
171728
(
1.32744e-05
1.94317e-06
2.41902e-06
2.31218e-06
1.31738e-05
1.93207e-06
2.43687e-06
2.30418e-06
1.34878e-05
1.951e-06
2.46309e-06
2.27617e-06
1.38079e-05
1.9781e-06
2.48605e-06
2.25248e-06
1.41288e-05
2.01803e-06
2.50603e-06
2.23184e-06
1.44549e-05
2.07443e-06
2.52405e-06
2.2095e-06
1.47706e-05
2.14773e-06
2.53443e-06
2.19394e-06
1.50833e-05
2.18365e-06
2.54565e-06
2.17056e-06
1.53989e-05
2.19599e-06
2.56069e-06
2.14122e-06
1.57099e-05
2.21195e-06
2.56147e-06
2.09892e-06
1.60003e-05
2.22545e-06
2.5605e-06
2.05124e-06
1.62971e-05
2.19473e-06
2.56069e-06
1.98779e-06
1.65861e-05
2.14168e-06
2.53952e-06
1.91867e-06
1.68642e-05
2.06699e-06
2.50048e-06
1.84874e-06
1.71303e-05
2.04572e-06
2.45241e-06
1.76853e-06
1.73913e-05
1.98868e-06
2.39614e-06
1.67979e-06
1.77341e-05
1.96616e-06
2.34471e-06
1.60112e-06
1.79711e-05
2.03015e-06
2.31863e-06
1.54333e-06
1.83259e-05
1.92535e-06
2.33455e-06
1.5057e-06
1.8564e-05
2.10324e-06
2.38325e-06
1.74953e-06
1.88444e-05
2.3694e-06
2.49282e-06
1.9414e-06
1.90859e-05
2.55671e-06
2.73215e-06
2.99765e-06
1.93254e-05
3.51414e-06
3.66505e-06
3.97125e-06
1.95042e-05
3.60891e-06
4.20243e-06
5.43493e-06
1.96345e-05
6.17681e-06
4.75385e-06
9.29621e-06
1.97464e-05
5.47838e-06
6.66946e-06
1.67149e-05
1.97373e-05
9.15001e-06
8.68317e-06
1.51975e-05
1.983e-05
1.07167e-05
1.0958e-05
3.02471e-05
1.96711e-05
1.20544e-05
1.20032e-05
3.27644e-05
1.95763e-05
1.70142e-05
1.72709e-05
3.79996e-05
1.95231e-05
1.88527e-05
1.8923e-05
4.71174e-05
1.9579e-05
2.4235e-05
2.39908e-05
5.32127e-05
1.95979e-05
2.77451e-05
2.86587e-05
6.01067e-05
1.99056e-05
3.3671e-05
3.30605e-05
6.60345e-05
2.02795e-05
3.72719e-05
3.81724e-05
7.15079e-05
2.08615e-05
4.40254e-05
4.37475e-05
7.62962e-05
2.19519e-05
5.16601e-05
4.97511e-05
8.11522e-05
2.30923e-05
5.43801e-05
5.57059e-05
8.50488e-05
2.48773e-05
6.32211e-05
6.12097e-05
9.02917e-05
2.70027e-05
6.89349e-05
6.97305e-05
9.39219e-05
2.95728e-05
7.55727e-05
7.54583e-05
9.77424e-05
3.24086e-05
8.1056e-05
8.081e-05
0.000102729
3.53799e-05
8.78928e-05
8.79595e-05
0.000106261
4.04774e-05
9.3788e-05
9.4811e-05
0.000110762
4.35668e-05
0.000100136
0.000100883
0.000115142
5.10549e-05
0.000107188
0.000107398
0.000119438
5.35801e-05
0.000109109
0.000109551
0.000120021
6.14099e-05
0.000121074
0.000121216
0.000129074
8.04551e-05
0.000137285
0.000137311
0.000140355
9.19834e-05
0.000141609
0.000141671
0.000143761
9.07924e-05
0.000136483
0.000136607
0.000139099
7.15152e-05
0.000123181
0.000123259
0.000128881
5.95026e-05
0.000117524
0.000117555
0.000124571
6.0245e-05
0.000120053
0.000120057
0.000125099
7.86386e-05
0.000133949
0.000133959
0.000134119
0.0001127
0.000154004
0.000154013
0.000148018
0.000147932
0.000170624
0.00017063
0.000159336
0.000172684
0.000180595
0.000180603
0.000166002
0.000185742
0.000185261
0.000185272
0.000169022
0.000191506
0.000187237
0.000187247
0.000170307
0.000193841
0.00018803
0.000188038
0.000170836
0.000194412
0.000188169
0.000188178
0.000171007
0.000194426
0.000188103
0.000188114
0.000170856
0.000194562
0.000188208
0.000188218
0.000170995
0.000194547
0.000188171
0.000188179
0.000170989
0.000194523
0.000188153
0.000188164
0.000170892
0.000194546
0.000188193
0.000188201
0.000171031
0.000194531
0.000188155
0.000188166
0.000170881
0.000194537
0.000188184
0.000188192
0.000171025
0.000194532
0.000188165
0.000188178
0.000170895
0.000194533
0.000188171
0.00018818
0.000170998
0.000194533
0.00018817
0.00018818
0.000170953
0.000194534
0.00018817
0.00018818
0.000170927
0.000194533
0.000188171
0.000188181
0.000171007
0.000194534
0.000188173
0.000188184
0.000170974
0.000194536
0.000188174
0.000188185
0.000170902
0.000194534
0.000188171
0.000188181
0.000170948
0.000194535
0.000188175
0.000188183
0.000171008
0.000194536
0.000188181
0.000188189
0.000170964
0.000194537
0.000188172
0.000188187
0.000170904
0.000194536
0.000188174
0.000188183
0.000170969
0.000194537
0.000188177
0.000188189
0.000171013
0.000194536
0.000188176
0.000188181
0.000170935
0.000194535
0.000188176
0.000188184
0.000170925
0.000194534
0.000188178
0.000188182
0.000171008
0.000194534
0.000188171
0.000188181
0.000170967
0.000194534
0.000188174
0.000188183
0.000170907
0.000194535
0.000188175
0.000188184
0.000170955
0.000194535
0.000188171
0.000188183
0.000171013
0.000194535
0.000188176
0.000188185
0.000170973
0.000194534
0.000188175
0.000188186
0.000170906
0.000194535
0.000188179
0.00018819
0.000170939
0.000194535
0.000188185
0.000188195
0.000170989
0.000194618
0.000188145
0.000188154
0.000170982
0.000195708
0.000188588
0.000188598
0.000173379
2.32296e-06
2.53798e-06
2.49888e-06
2.17315e-06
2.50276e-06
2.51001e-06
1.37352e-05
1.35096e-05
1.36635e-05
1.36553e-05
1.74926e-06
2.47237e-06
2.24959e-06
2.52298e-06
2.28817e-06
2.31912e-06
2.30261e-06
2.29477e-06
2.43386e-06
2.41245e-06
2.43335e-06
2.40724e-06
2.15755e-06
2.17723e-06
2.44497e-06
2.44051e-06
2.43746e-06
2.435e-06
2.431e-06
1.93008e-06
2.42893e-06
2.22742e-06
2.22598e-06
2.77842e-06
2.42957e-06
2.4687e-06
2.3076e-06
2.26991e-06
2.26556e-06
2.43667e-06
2.40748e-06
2.44627e-06
2.41382e-06
2.16295e-06
2.19859e-06
2.43827e-06
2.43719e-06
2.44045e-06
2.44248e-06
2.43258e-06
1.94549e-06
2.44433e-06
2.20359e-06
2.21414e-06
2.36404e-06
2.45667e-06
2.11026e-06
2.28887e-06
2.24317e-06
2.25161e-06
2.45119e-06
2.41452e-06
2.4679e-06
2.38139e-06
2.18284e-06
2.20048e-06
2.44353e-06
2.44543e-06
2.45156e-06
2.45425e-06
2.44915e-06
1.97048e-06
2.46306e-06
2.1938e-06
2.20694e-06
2.05317e-06
2.48077e-06
1.96419e-06
2.27151e-06
2.23053e-06
2.24427e-06
2.47552e-06
2.3653e-06
2.50101e-06
2.33267e-06
2.18324e-06
2.20055e-06
2.45545e-06
2.45768e-06
2.47094e-06
2.46916e-06
2.46862e-06
2.00689e-06
2.48381e-06
2.18749e-06
2.20151e-06
1.95278e-06
2.50014e-06
1.94568e-06
2.25139e-06
2.22499e-06
2.24786e-06
2.51152e-06
2.3403e-06
2.54779e-06
2.41775e-06
2.18597e-06
2.21418e-06
2.47642e-06
2.47362e-06
2.48862e-06
2.48748e-06
2.49031e-06
2.05896e-06
2.50305e-06
2.18082e-06
2.1943e-06
1.94432e-06
2.52065e-06
1.93722e-06
2.22952e-06
2.23326e-06
2.27438e-06
2.55982e-06
2.43773e-06
2.60406e-06
2.5012e-06
2.1985e-06
2.23953e-06
2.49562e-06
2.49363e-06
2.5116e-06
2.5034e-06
2.50876e-06
2.13127e-06
2.52447e-06
2.17505e-06
2.19476e-06
1.93205e-06
2.53449e-06
1.90596e-06
2.21401e-06
2.26515e-06
2.32269e-06
2.62157e-06
2.52105e-06
2.67477e-06
2.60687e-06
2.22339e-06
2.26619e-06
2.51605e-06
2.50412e-06
2.52214e-06
2.50511e-06
2.52818e-06
2.18001e-06
2.52904e-06
2.18059e-06
2.21416e-06
1.89648e-06
2.54364e-06
1.87158e-06
2.19074e-06
2.31107e-06
2.34699e-06
2.6917e-06
2.64335e-06
2.73519e-06
2.75227e-06
2.24987e-06
2.2617e-06
2.52158e-06
2.50446e-06
2.51868e-06
2.50901e-06
2.526e-06
2.19343e-06
2.52389e-06
2.20234e-06
2.24062e-06
1.87259e-06
2.55607e-06
1.87857e-06
2.16041e-06
2.33113e-06
2.34899e-06
2.75227e-06
2.79835e-06
2.79187e-06
2.95172e-06
2.24325e-06
2.25499e-06
2.51838e-06
2.50876e-06
2.51715e-06
2.51158e-06
2.52243e-06
2.20478e-06
2.51443e-06
2.22833e-06
2.24451e-06
1.88371e-06
2.56138e-06
1.90799e-06
2.11764e-06
2.33089e-06
2.32435e-06
2.79629e-06
2.99864e-06
2.80814e-06
3.1009e-06
2.23995e-06
2.2482e-06
2.51749e-06
2.50996e-06
2.51992e-06
2.50592e-06
2.50931e-06
2.22253e-06
2.49917e-06
2.22569e-06
2.20038e-06
1.92033e-06
2.56057e-06
1.94417e-06
2.06217e-06
2.30653e-06
2.28645e-06
2.81026e-06
3.11968e-06
2.79268e-06
3.1261e-06
2.23095e-06
2.18782e-06
2.51864e-06
2.50365e-06
2.51812e-06
2.49646e-06
2.49406e-06
2.20372e-06
2.47626e-06
2.17823e-06
2.13204e-06
1.95496e-06
2.55884e-06
1.98885e-06
2.00305e-06
2.27008e-06
2.19909e-06
2.77836e-06
3.11134e-06
2.69862e-06
2.99439e-06
2.16695e-06
2.05598e-06
2.51543e-06
2.49623e-06
2.50609e-06
2.48349e-06
2.47252e-06
2.14945e-06
2.46127e-06
2.11515e-06
2.06198e-06
1.9986e-06
2.55055e-06
2.03393e-06
1.93728e-06
2.17101e-06
2.04003e-06
2.64954e-06
2.93505e-06
2.52706e-06
2.72728e-06
2.02752e-06
1.8883e-06
2.49949e-06
2.47872e-06
2.46975e-06
2.45987e-06
2.45544e-06
2.0853e-06
2.44397e-06
2.04035e-06
1.96727e-06
2.04317e-06
2.51656e-06
2.06244e-06
1.86932e-06
2.0066e-06
1.8572e-06
2.49025e-06
2.67116e-06
2.38261e-06
2.55546e-06
1.85196e-06
1.74618e-06
2.46087e-06
2.44915e-06
2.43617e-06
2.42765e-06
2.4411e-06
2.05699e-06
2.41839e-06
1.94334e-06
1.8529e-06
2.07452e-06
2.45791e-06
2.08311e-06
1.79384e-06
1.81595e-06
1.71948e-06
2.34722e-06
2.50799e-06
2.29264e-06
2.37989e-06
1.71074e-06
1.60715e-06
2.41972e-06
2.41804e-06
2.4012e-06
2.38455e-06
2.40696e-06
1.99937e-06
2.38326e-06
1.82561e-06
1.76369e-06
2.09131e-06
2.41206e-06
2.11441e-06
1.70984e-06
1.67993e-06
1.56667e-06
2.26811e-06
2.34952e-06
2.20962e-06
2.39618e-06
1.57434e-06
1.53262e-06
2.38459e-06
2.37156e-06
2.34928e-06
2.36076e-06
2.36776e-06
1.99571e-06
2.33738e-06
1.72297e-06
1.68113e-06
2.10925e-06
2.35364e-06
2.12433e-06
1.62907e-06
1.57266e-06
1.46762e-06
2.20749e-06
2.36135e-06
2.16859e-06
2.22081e-06
1.48826e-06
1.29893e-06
2.35562e-06
2.34268e-06
2.2947e-06
2.31958e-06
2.33213e-06
1.91451e-06
2.29876e-06
1.66163e-06
1.56889e-06
2.13161e-06
2.32467e-06
2.11829e-06
1.54643e-06
1.41691e-06
1.5201e-06
2.15471e-06
2.35338e-06
2.194e-06
2.38131e-06
1.45285e-06
1.57679e-06
2.27657e-06
2.31379e-06
2.3209e-06
2.32537e-06
2.30665e-06
2.00903e-06
2.27383e-06
1.58518e-06
1.57627e-06
2.14e-06
2.33618e-06
2.16225e-06
1.52502e-06
1.55573e-06
1.40289e-06
2.24947e-06
2.29489e-06
2.12455e-06
2.33061e-06
1.47177e-06
1.5627e-06
2.37464e-06
2.324e-06
2.22894e-06
2.3594e-06
2.26873e-06
2.11921e-06
2.37146e-06
1.6169e-06
1.61323e-06
2.15162e-06
2.34169e-06
2.26355e-06
1.69919e-06
1.29495e-06
2.47595e-06
2.1018e-06
2.26792e-06
2.48943e-06
2.43822e-06
1.57069e-06
1.66311e-06
2.19127e-06
2.38797e-06
2.57456e-06
2.45312e-06
2.39846e-06
2.11075e-06
2.39458e-06
1.72e-06
1.94847e-06
2.29012e-06
2.44229e-06
2.36325e-06
1.86168e-06
2.41856e-06
2.47175e-06
2.43054e-06
2.68914e-06
2.73959e-06
2.72813e-06
2.22158e-06
2.7565e-06
2.52519e-06
2.52444e-06
2.74292e-06
2.83504e-06
2.47258e-06
2.67254e-06
2.8281e-06
2.00264e-06
2.84655e-06
2.39502e-06
2.77014e-06
2.80328e-06
2.83358e-06
3.02189e-06
3.26466e-06
2.81549e-06
2.62027e-06
2.95447e-06
3.29909e-06
2.54521e-06
3.73667e-06
2.79789e-06
2.78555e-06
3.17665e-06
3.34106e-06
2.77002e-06
2.96176e-06
3.2167e-06
3.06242e-06
3.42266e-06
2.80445e-06
3.36261e-06
3.16951e-06
3.40397e-06
3.78397e-06
6.13063e-06
3.21753e-06
3.72726e-06
4.18182e-06
3.81065e-06
4.82508e-06
5.57704e-06
3.39973e-06
3.60998e-06
4.05794e-06
3.85799e-06
3.51656e-06
3.84426e-06
3.74867e-06
4.47511e-06
5.31515e-06
3.48775e-06
3.64282e-06
3.61431e-06
5.43176e-06
6.2927e-06
6.12782e-06
4.20294e-06
3.60475e-06
4.00921e-06
5.54558e-06
5.10763e-06
1.09767e-05
4.06444e-06
4.36943e-06
4.2959e-06
4.66752e-06
4.1564e-06
5.27123e-06
4.83285e-06
5.17274e-06
9.45215e-06
4.03684e-06
4.78112e-06
4.90858e-06
9.39608e-06
7.13887e-06
1.69826e-05
5.01908e-06
6.32815e-06
7.23333e-06
5.93519e-06
1.35849e-05
1.11644e-05
5.30241e-06
4.72909e-06
7.19932e-06
6.8872e-06
4.73354e-06
5.86884e-06
6.90819e-06
8.99916e-06
1.50792e-05
4.78467e-06
6.70316e-06
6.81641e-06
1.37643e-05
1.66646e-05
1.13249e-05
7.00198e-06
5.58423e-06
6.28677e-06
8.61812e-06
1.00619e-05
2.11911e-05
6.98045e-06
6.84636e-06
6.40503e-06
7.48366e-06
7.62963e-06
8.62922e-06
7.27503e-06
1.61173e-05
1.3898e-05
7.63334e-06
7.63977e-06
7.31e-06
1.6373e-05
1.34138e-05
3.058e-05
7.81461e-06
9.22895e-06
1.07438e-05
1.00211e-05
2.45184e-05
2.48038e-05
7.84012e-06
8.69779e-06
1.09894e-05
1.03105e-05
7.07199e-06
9.80709e-06
1.07521e-05
1.61325e-05
2.82799e-05
7.04772e-06
1.03593e-05
1.07694e-05
2.59207e-05
3.10779e-05
2.91899e-05
1.08542e-05
1.08013e-05
1.23601e-05
1.2089e-05
2.45202e-05
3.01863e-05
1.12217e-05
1.0934e-05
1.22897e-05
1.19977e-05
1.19889e-05
1.18483e-05
1.25418e-05
2.81287e-05
2.87275e-05
1.19018e-05
1.17934e-05
1.24794e-05
3.35619e-05
3.01403e-05
3.67109e-05
1.29552e-05
1.2327e-05
1.47691e-05
1.56295e-05
3.09688e-05
3.71412e-05
1.28187e-05
1.21502e-05
1.49802e-05
1.58102e-05
1.25631e-05
1.56619e-05
1.51083e-05
2.99863e-05
3.7399e-05
1.25053e-05
1.57728e-05
1.51558e-05
3.54888e-05
3.82543e-05
4.54842e-05
1.58308e-05
1.70798e-05
1.89492e-05
1.88873e-05
3.96691e-05
4.60283e-05
1.60766e-05
1.73065e-05
1.91158e-05
1.8796e-05
1.62415e-05
1.85096e-05
1.89705e-05
3.9951e-05
4.62248e-05
1.64212e-05
1.85921e-05
1.87409e-05
4.59979e-05
4.69534e-05
5.19451e-05
1.96498e-05
1.92247e-05
2.26551e-05
2.25381e-05
4.64222e-05
5.08732e-05
1.98013e-05
1.91896e-05
2.26945e-05
2.23496e-05
1.98563e-05
2.24261e-05
2.27425e-05
4.6398e-05
5.05618e-05
1.95778e-05
2.24394e-05
2.28889e-05
5.17432e-05
5.34075e-05
5.89804e-05
2.39507e-05
2.40431e-05
2.70323e-05
2.76797e-05
5.30827e-05
5.99773e-05
2.40254e-05
2.38989e-05
2.73751e-05
2.79215e-05
2.37963e-05
2.73724e-05
2.72128e-05
5.27446e-05
6.01892e-05
2.37899e-05
2.77658e-05
2.68697e-05
5.88164e-05
6.01824e-05
6.44831e-05
2.80486e-05
2.8673e-05
3.20523e-05
3.1866e-05
6.08283e-05
6.42409e-05
2.83326e-05
2.85872e-05
3.20205e-05
3.22412e-05
2.83035e-05
3.16632e-05
3.18539e-05
6.12385e-05
6.43545e-05
2.82774e-05
3.17382e-05
3.22575e-05
6.47452e-05
6.57929e-05
7.02454e-05
3.33084e-05
3.31371e-05
3.68436e-05
3.74115e-05
6.5658e-05
7.03572e-05
3.33131e-05
3.39392e-05
3.70983e-05
3.66393e-05
3.33293e-05
3.68325e-05
3.75306e-05
6.55819e-05
7.03298e-05
3.3329e-05
3.68879e-05
3.66243e-05
7.04618e-05
7.13711e-05
7.51744e-05
3.82999e-05
3.87242e-05
4.24206e-05
4.20474e-05
7.13214e-05
7.48976e-05
3.85876e-05
3.78578e-05
4.2648e-05
4.31279e-05
3.86471e-05
4.16047e-05
4.23244e-05
7.13737e-05
7.51442e-05
3.80058e-05
4.2343e-05
4.29661e-05
7.51173e-05
7.61661e-05
7.97835e-05
4.36168e-05
4.33989e-05
4.81795e-05
4.92245e-05
7.6168e-05
8.0802e-05
4.37583e-05
4.41378e-05
4.81526e-05
4.80117e-05
4.38587e-05
5.04578e-05
4.87191e-05
7.63114e-05
8.02255e-05
4.45965e-05
4.82761e-05
4.87784e-05
8.02289e-05
8.09324e-05
8.44564e-05
4.97946e-05
5.10086e-05
5.39814e-05
5.36048e-05
8.17361e-05
8.37442e-05
4.98093e-05
5.01831e-05
5.41096e-05
5.51143e-05
5.00745e-05
5.33422e-05
5.35231e-05
8.13062e-05
8.45987e-05
4.99451e-05
5.40743e-05
5.36323e-05
8.40389e-05
8.53662e-05
8.88802e-05
5.55471e-05
5.45086e-05
6.04806e-05
6.00937e-05
8.44529e-05
8.89412e-05
5.5624e-05
5.62016e-05
6.04133e-05
6.02254e-05
5.5016e-05
6.08835e-05
6.05671e-05
8.55307e-05
8.89449e-05
5.5273e-05
5.99764e-05
6.08073e-05
8.92417e-05
8.98604e-05
9.30642e-05
6.19918e-05
6.21424e-05
6.682e-05
6.66172e-05
9.02601e-05
9.33641e-05
6.19196e-05
6.17511e-05
6.66757e-05
6.73669e-05
6.23522e-05
6.77334e-05
6.7189e-05
8.98866e-05
9.3529e-05
6.25163e-05
6.72446e-05
6.72958e-05
9.31574e-05
9.39972e-05
9.72326e-05
6.83845e-05
6.80335e-05
7.30083e-05
7.34004e-05
9.41134e-05
9.76263e-05
6.82335e-05
6.95736e-05
7.29856e-05
7.51232e-05
6.85538e-05
7.38769e-05
7.24441e-05
9.46624e-05
9.79124e-05
6.87498e-05
7.46033e-05
7.28597e-05
9.68078e-05
9.81088e-05
0.000101294
7.47538e-05
7.51439e-05
7.95297e-05
7.9397e-05
9.85862e-05
0.000101264
7.47111e-05
7.63005e-05
7.92673e-05
7.88715e-05
7.40918e-05
7.95892e-05
7.97787e-05
9.8526e-05
0.000100668
7.44043e-05
7.89922e-05
7.98878e-05
0.000101772
0.000102068
0.000105285
8.08469e-05
8.09837e-05
8.51602e-05
8.63769e-05
0.000102049
0.000105886
8.06052e-05
8.007e-05
8.51854e-05
8.50671e-05
8.14947e-05
8.61333e-05
8.54129e-05
0.000101505
0.000105332
8.17814e-05
8.62182e-05
8.62938e-05
0.000105521
0.000106322
0.000110328
8.71051e-05
8.81869e-05
9.28929e-05
9.27091e-05
0.000106849
0.000109823
8.71441e-05
8.70739e-05
9.2894e-05
9.26756e-05
8.69278e-05
9.24436e-05
9.23739e-05
0.000106297
0.000110024
8.77062e-05
9.31569e-05
9.23675e-05
0.000109835
0.000111118
0.000114082
9.43423e-05
9.40384e-05
9.79448e-05
9.83797e-05
0.000110528
0.000113939
9.44137e-05
9.4272e-05
9.82716e-05
9.86795e-05
9.40318e-05
9.8048e-05
9.81581e-05
0.000110917
0.000114504
9.39265e-05
9.90667e-05
9.84143e-05
0.000114201
0.000115037
0.000119181
9.99294e-05
0.000100497
0.000107013
0.000106626
0.00011497
0.00011876
0.000100228
0.00010071
0.000106988
0.000106725
0.000100179
0.000106364
0.000107034
0.000115444
0.000118878
0.000100459
0.00010654
0.000106714
0.000119006
0.000119652
0.000119896
0.000108231
0.000107398
0.000109456
0.000108205
0.000119146
0.000119346
0.000108104
0.000107528
0.000109259
0.000108463
0.000108158
0.000108125
0.000109254
0.000119272
0.000119552
0.00010756
0.00010858
0.000108418
0.000119672
0.000120213
0.000127103
0.000110311
0.000109161
0.000117479
0.000116924
0.000119761
0.000127007
0.000110129
0.000109419
0.000117244
0.000117029
0.000110069
0.000116847
0.000117166
0.000119961
0.000127014
0.000109347
0.000117064
0.00011676
0.00012693
0.000129228
0.000138881
0.000121502
0.000121178
0.000134167
0.000134304
0.000129199
0.000139076
0.000121243
0.000121219
0.000133947
0.000134257
0.00012122
0.000134196
0.000134106
0.000129173
0.000139036
0.000120879
0.000134221
0.000133906
0.000138914
0.000140299
0.000143635
0.000137198
0.000137372
0.000141164
0.000141285
0.000140496
0.000143775
0.000137021
0.000137338
0.00014108
0.00014132
0.000137202
0.000141256
0.000141245
0.000140474
0.00014383
0.000137027
0.000141324
0.000141075
0.000143702
0.000143697
0.000140112
0.000141486
0.000141638
0.000140362
0.000140292
0.000143829
0.000140004
0.000141403
0.000141668
0.000140358
0.000140392
0.00014159
0.000140297
0.000140439
0.00014389
0.000140118
0.000141417
0.000140424
0.000140274
0.000140089
0.000139131
0.000129493
0.000136607
0.000136473
0.000125976
0.000125803
0.000139009
0.000129347
0.000136614
0.000136576
0.000125971
0.000125882
0.000136645
0.000125803
0.00012594
0.000139121
0.000129416
0.000136499
0.000125892
0.000125838
0.000129425
0.000128951
0.000124946
0.000123352
0.000123183
0.000118465
0.000118331
0.00012881
0.000124847
0.000123344
0.000123251
0.000118449
0.000118365
0.000123303
0.00011832
0.000118398
0.000128873
0.00012487
0.000123213
0.000118359
0.000118341
0.000124876
0.00012464
0.000124614
0.00011766
0.000117535
0.000118479
0.000118445
0.000124545
0.000124586
0.000117643
0.000117563
0.00011846
0.000118434
0.000117593
0.00011843
0.000118456
0.000124564
0.000124584
0.000117541
0.000118427
0.000118435
0.000124606
0.000125103
0.000132015
0.000120096
0.000120066
0.000129471
0.000129453
0.000125081
0.000132008
0.000120078
0.000120061
0.000129452
0.000129455
0.000120081
0.000129452
0.000129456
0.000125079
0.000132012
0.000120058
0.000129461
0.000129439
0.000132002
0.000134133
0.000145799
0.000133966
0.00013395
0.000149046
0.000149028
0.000134127
0.000145791
0.000133949
0.000133954
0.000149035
0.000149035
0.000133951
0.000149038
0.000149031
0.000134131
0.000145797
0.000133936
0.000149047
0.000149023
0.000145783
0.000148034
0.000157832
0.000154013
0.000153994
0.00016707
0.000167049
0.000148026
0.000157823
0.000154003
0.000154001
0.000167069
0.000167057
0.000153998
0.000167071
0.00016706
0.000148032
0.000157829
0.000153992
0.000167077
0.00016706
0.000157819
0.000159348
0.00016524
0.000170621
0.0001706
0.00017869
0.000178668
0.00015934
0.000165232
0.000170623
0.000170608
0.000178697
0.000178678
0.000170613
0.0001787
0.000178688
0.000159346
0.000165239
0.000170616
0.000178707
0.000178695
0.000165233
0.000166009
0.000168751
0.000180585
0.000180562
0.000184427
0.000184403
0.000166001
0.000168741
0.000180593
0.000180573
0.000184437
0.000184416
0.000180583
0.000184439
0.000184422
0.000166008
0.000168752
0.000180591
0.00018445
0.000184434
0.000168742
0.000169031
0.000170244
0.000185248
0.000185224
0.000186872
0.00018685
0.000169022
0.000170237
0.000185259
0.000185237
0.000186884
0.000186861
0.000185242
0.000186887
0.000186865
0.000169033
0.000170246
0.000185255
0.000186898
0.00018688
0.000170234
0.000170316
0.000170882
0.00018722
0.000187199
0.00018789
0.000187871
0.000170308
0.000170876
0.000187232
0.000187209
0.000187903
0.000187879
0.000187214
0.000187908
0.000187886
0.000170318
0.000170883
0.000187229
0.000187917
0.000187901
0.000170874
0.000170842
0.0001711
0.000188012
0.000187992
0.00018815
0.000188128
0.000170837
0.000171095
0.000188025
0.000188001
0.000188162
0.000188137
0.000188008
0.000188166
0.000188144
0.000170843
0.0001711
0.000188023
0.000188175
0.00018816
0.000171092
0.000171014
0.000170989
0.000188153
0.000188131
0.000188095
0.000188072
0.000171009
0.000170978
0.000188165
0.00018814
0.000188108
0.000188083
0.000188147
0.00018811
0.00018809
0.000171014
0.000170988
0.000188162
0.000188121
0.000188105
0.000170976
0.000170867
0.000171077
0.000188088
0.000188065
0.000188173
0.000188152
0.000170856
0.000171072
0.000188101
0.000188076
0.000188186
0.000188163
0.000188083
0.00018819
0.000188168
0.000170867
0.000171079
0.000188098
0.0001882
0.000188184
0.00017107
0.000171001
0.000171124
0.000188192
0.00018817
0.000188178
0.000188155
0.000170996
0.000171114
0.000188205
0.000188181
0.000188191
0.000188166
0.000188185
0.000188195
0.000188169
0.000171003
0.000171121
0.000188201
0.000188204
0.000188184
0.000171104
0.000171007
0.000170986
0.000188154
0.000188131
0.000188135
0.000188113
0.000170998
0.000170979
0.000188167
0.000188141
0.000188147
0.000188123
0.000188147
0.000188151
0.000188131
0.000171005
0.000170987
0.000188161
0.00018816
0.000188145
0.000170979
0.000170893
0.000171132
0.000188137
0.000188116
0.000188173
0.000188151
0.000170887
0.000171126
0.00018815
0.000188126
0.000188186
0.000188161
0.000188134
0.00018819
0.000188167
0.000170896
0.000171133
0.00018815
0.000188199
0.000188182
0.000171126
0.000171042
0.000171007
0.000188174
0.000188153
0.000188141
0.000188119
0.000171035
0.000170998
0.000188187
0.000188163
0.000188154
0.00018813
0.000188168
0.000188157
0.000188136
0.000171042
0.000171005
0.000188183
0.000188167
0.000188151
0.000170988
0.000170892
0.000171117
0.00018814
0.000188119
0.000188166
0.000188145
0.000170883
0.000171113
0.000188153
0.000188129
0.000188178
0.000188154
0.000188135
0.000188183
0.000188162
0.000170891
0.000171119
0.000188151
0.000188192
0.000188177
0.000171117
0.00017103
0.000171006
0.000188165
0.000188144
0.000188149
0.000188126
0.000171025
0.000170994
0.000188177
0.000188153
0.000188162
0.000188137
0.000188161
0.000188162
0.000188142
0.000171032
0.000171003
0.000188174
0.000188175
0.000188159
0.000170987
0.000170898
0.000171124
0.000188152
0.000188129
0.000188156
0.000188135
0.000170889
0.000171118
0.000188164
0.000188141
0.000188169
0.000188144
0.000188145
0.000188176
0.000188153
0.000170899
0.000171125
0.000188164
0.000188183
0.000188166
0.000171111
0.000171023
0.000171013
0.000188154
0.000188133
0.000188156
0.000188133
0.000171015
0.000171002
0.000188166
0.000188141
0.000188168
0.000188143
0.000188148
0.000188169
0.000188151
0.00017102
0.000171015
0.000188163
0.00018818
0.000188167
0.000171019
0.000170945
0.000171061
0.000188157
0.000188134
0.000188153
0.000188132
0.000170931
0.000171064
0.000188169
0.000188144
0.000188166
0.000188141
0.000188152
0.00018817
0.000188148
0.000170949
0.00017106
0.000188167
0.00018818
0.000188164
0.000171046
0.00017094
0.000171108
0.000188154
0.000188132
0.000188156
0.000188135
0.000170942
0.000171093
0.000188166
0.000188142
0.000188168
0.000188144
0.000188149
0.000188171
0.00018815
0.000170939
0.000171108
0.000188164
0.000188182
0.000188166
0.000171098
0.000171018
0.000171033
0.000188153
0.000188132
0.000188158
0.000188135
0.00017101
0.000171005
0.000188166
0.000188142
0.00018817
0.000188145
0.000188149
0.000188173
0.000188154
0.000171019
0.000171025
0.000188164
0.000188183
0.000188169
0.000171038
0.000170969
0.000171017
0.000188158
0.000188137
0.000188151
0.00018813
0.000170935
0.000171032
0.00018817
0.000188145
0.000188164
0.000188141
0.000188153
0.000188171
0.000188146
0.00017096
0.000171027
0.000188169
0.000188182
0.000188162
0.000170998
0.000170911
0.000171074
0.000188156
0.000188132
0.000188152
0.000188134
0.000170912
0.000171101
0.000188169
0.000188145
0.000188164
0.00018814
0.000188153
0.000188172
0.000188148
0.000170915
0.00017108
0.000188169
0.000188181
0.000188164
0.000171073
0.000170948
0.000171111
0.000188149
0.000188129
0.000188161
0.000188139
0.000170978
0.000171087
0.000188162
0.000188139
0.000188173
0.000188147
0.000188147
0.000188177
0.000188155
0.000170954
0.00017111
0.000188163
0.000188186
0.00018817
0.000171096
0.000171018
0.00017104
0.000188159
0.000188139
0.000188153
0.000188132
0.000171004
0.000171021
0.000188169
0.000188144
0.000188167
0.000188145
0.000188151
0.000188177
0.000188153
0.000171009
0.000171074
0.000188166
0.000188188
0.00018817
0.000171025
0.000170974
0.000171015
0.000188159
0.000188138
0.000188157
0.000188136
0.00017096
0.000171018
0.000188171
0.000188147
0.000188168
0.000188144
0.000188159
0.00018817
0.000188147
0.000171
0.000171015
0.000188174
0.000188182
0.000188163
0.000171018
0.000170915
0.000171085
0.000188158
0.000188134
0.000188157
0.000188137
0.000170901
0.000171113
0.00018817
0.000188146
0.000188168
0.000188143
0.000188148
0.000188176
0.000188154
0.00017094
0.000171055
0.000188166
0.000188185
0.000188171
0.000171094
0.000170959
0.000171081
0.000188156
0.000188136
0.000188159
0.000188135
0.000170992
0.000171074
0.000188167
0.000188144
0.000188171
0.000188146
0.000188153
0.000188175
0.000188154
0.000170936
0.000171094
0.000188169
0.000188187
0.00018817
0.000171095
0.000171004
0.000171033
0.000188163
0.000188137
0.000188155
0.000188134
0.000171002
0.000170992
0.000188174
0.000188148
0.000188168
0.000188144
0.000188154
0.000188172
0.00018815
0.000170987
0.000171087
0.000188171
0.000188182
0.000188166
0.000171001
0.000170917
0.000171112
0.000188154
0.000188136
0.000188158
0.000188139
0.000170897
0.000171105
0.000188167
0.000188142
0.00018817
0.000188144
0.000188153
0.000188179
0.000188153
0.000170958
0.000171097
0.000188169
0.000188183
0.000188167
0.000171045
0.000171019
0.000171016
0.000188157
0.000188136
0.000188152
0.000188134
0.000170978
0.000171052
0.00018817
0.000188145
0.000188166
0.00018814
0.000188151
0.000188174
0.000188151
0.000171016
0.000171005
0.000188166
0.000188178
0.000188168
0.000171103
0.000170947
0.000171048
0.000188156
0.000188137
0.000188152
0.000188131
0.00017098
0.000171027
0.000188169
0.000188142
0.000188164
0.000188141
0.000188153
0.000188169
0.000188149
0.000170909
0.000171087
0.000188169
0.000188179
0.000188165
0.000171032
0.000170928
0.000171116
0.000188154
0.000188134
0.000188153
0.000188134
0.000170909
0.000171116
0.000188167
0.000188143
0.000188165
0.000188141
0.000188151
0.000188174
0.000188149
0.000170962
0.000171104
0.000188169
0.00018818
0.000188163
0.000171015
0.000171007
0.000171071
0.000188155
0.000188135
0.000188154
0.000188131
0.000171015
0.000171019
0.000188167
0.000188144
0.000188165
0.000188141
0.000188152
0.000188168
0.000188147
0.000171017
0.000171031
0.000188166
0.000188179
0.000188163
0.000171079
0.000171001
0.000171008
0.000188158
0.000188137
0.000188152
0.00018813
0.000170959
0.000171029
0.000188169
0.000188145
0.000188163
0.00018814
0.000188151
0.000188168
0.000188148
0.000170971
0.000171023
0.000188164
0.000188178
0.000188164
0.0001711
0.000170931
0.000171034
0.000188157
0.000188133
0.000188152
0.000188133
0.000170914
0.000171101
0.000188169
0.000188144
0.000188163
0.000188141
0.00018815
0.00018817
0.000188146
0.000170913
0.000171084
0.000188167
0.00018818
0.000188161
0.000171028
0.000170919
0.000171082
0.000188159
0.000188138
0.00018815
0.000188129
0.000170996
0.000171066
0.000188168
0.000188145
0.000188163
0.00018814
0.000188154
0.000188166
0.000188142
0.000170962
0.000171105
0.000188168
0.000188178
0.000188159
0.000171002
0.000170957
0.000171107
0.000188158
0.000188138
0.000188152
0.000188131
0.000170984
0.00017107
0.00018817
0.000188147
0.000188163
0.00018814
0.000188152
0.000188169
0.000188144
0.000170997
0.00017109
0.000188168
0.000188178
0.00018816
0.000171054
0.000170998
0.000171088
0.000188161
0.000188141
0.000188154
0.000188132
0.000170995
0.00017102
0.000188174
0.000188151
0.000188165
0.000188139
0.000188154
0.000188169
0.000188148
0.000171011
0.00017102
0.00018817
0.000188178
0.000188162
0.000171089
0.000171007
0.000171044
0.000188169
0.000188148
0.000188168
0.000188147
0.000170952
0.000171027
0.00018818
0.000188156
0.00018818
0.000188155
0.000188163
0.000188183
0.000188162
0.000170951
0.000171036
0.000188177
0.000188194
0.000188177
0.000171059
0.000170966
0.000171987
0.000188134
0.000188112
0.000190404
0.000190385
0.000170925
0.000171993
0.000188141
0.00018812
0.000190417
0.000190396
0.000188128
0.000190417
0.0001904
0.000170931
0.000172009
0.000188138
0.000190429
0.000190415
0.000171992
0.000173375
0.000188578
0.000188559
0.000173361
0.00018859
0.000188569
0.000195699
0.000195713
0.000195711
0.000188573
0.000173374
0.000188587
3.99163e-05
4.22501e-06
2.55709e-05
2.55812e-05
7.39149e-07
1.72501e-06
1.64687e-06
1.39888e-05
7.00691e-07
2.52017e-06
1.40823e-05
1.75673e-06
2.31817e-06
1.89203e-06
2.24752e-06
1.03051e-06
1.34847e-05
9.61148e-07
1.52817e-05
1.08919e-05
1.31655e-05
1.07556e-06
1.34896e-05
1.00848e-06
1.527e-05
1.30349e-05
1.32003e-05
1.3218e-05
1.31028e-05
1.28546e-05
1.30265e-05
1.30414e-05
7.87596e-07
4.0284e-07
5.70766e-06
1.93408e-06
7.82069e-07
5.11374e-07
5.63648e-06
1.09361e-05
1.32137e-05
6.9947e-07
5.776e-06
5.30475e-07
2.41801e-06
6.83835e-07
5.72602e-06
6.5236e-07
1.52048e-06
1.53419e-06
2.30715e-06
1.73166e-06
1.74171e-06
1.36e-06
1.8569e-05
1.19079e-06
2.09392e-05
1.71853e-05
1.93518e-05
1.36055e-06
1.85509e-05
1.20367e-06
2.0985e-05
1.29265e-05
1.30968e-05
1.31111e-05
1.34087e-05