/*--------------------------------*- C++ -*----------------------------------*\
| =========                 |                                                 |
| \\      /  F ield         | OpenFOAM: The Open Source CFD Toolbox           |
|  \\    /   O peration     | Version:  v2012                                 |
|   \\  /    A nd           | Website:  www.openfoam.com                      |
|    \\/     M anipulation  |                                                 |
\*---------------------------------------------------------------------------*/
FoamFile
{
    version     2.0;
    format      ascii;
    class       volScalarField;
    location    "0.335";
    object      p;
}
// * * * * * * * * * * * * * * * * * * * * * * * * * * * * * * * * * * * * * //

dimensions      [0 2 -2 0 0 0 0];


internalField   nonuniform List<scalar> 
247104
(
1.85289e-06
1.8528e-06
1.85295e-06
1.85292e-06
1.85282e-06
1.85294e-06
1.85293e-06
1.85274e-06
1.85281e-06
1.85286e-06
1.85292e-06
1.85277e-06
1.85267e-06
1.85279e-06
1.85293e-06
1.85284e-06
1.85295e-06
1.85292e-06
1.85261e-06
1.85225e-06
1.8521e-06
1.85229e-06
1.85266e-06
1.85294e-06
1.85295e-06
1.85292e-06
1.85277e-06
1.85225e-06
1.85176e-06
1.85159e-06
1.85181e-06
1.85232e-06
1.85281e-06
1.85292e-06
1.85289e-06
1.85282e-06
1.85267e-06
1.85211e-06
1.85159e-06
1.85141e-06
1.85164e-06
1.85218e-06
1.85272e-06
1.85281e-06
1.85294e-06
1.85279e-06
1.85229e-06
1.85181e-06
1.85164e-06
1.85186e-06
1.85236e-06
1.85283e-06
1.85294e-06
1.85294e-06
1.85293e-06
1.85266e-06
1.85232e-06
1.85218e-06
1.85236e-06
1.85271e-06
1.85295e-06
1.85294e-06
1.85274e-06
1.85284e-06
1.85294e-06
1.85281e-06
1.85272e-06
1.85283e-06
1.85295e-06
1.8528e-06
1.85295e-06
1.85291e-06
1.8528e-06
1.85294e-06
1.85293e-06
1.81972e-06
1.81772e-06
1.81718e-06
1.81597e-06
1.81598e-06
1.81591e-06
1.81591e-06
1.81722e-06
1.81749e-06
1.81717e-06
1.81512e-06
1.81244e-06
1.81241e-06
1.81241e-06
1.81244e-06
1.81551e-06
1.81575e-06
1.81596e-06
1.81244e-06
1.81238e-06
1.81245e-06
1.81245e-06
1.81238e-06
1.81244e-06
1.81588e-06
1.81711e-06
1.81972e-06
1.81598e-06
1.81241e-06
1.81245e-06
1.81254e-06
1.81254e-06
1.81245e-06
1.81241e-06
1.81586e-06
1.8175e-06
1.81771e-06
1.81591e-06
1.81241e-06
1.81245e-06
1.81254e-06
1.81254e-06
1.81245e-06
1.81241e-06
1.81604e-06
1.81607e-06
1.81591e-06
1.81244e-06
1.81238e-06
1.81245e-06
1.81245e-06
1.81238e-06
1.81244e-06
1.81581e-06
1.817e-06
1.81721e-06
1.81551e-06
1.81244e-06
1.81241e-06
1.81241e-06
1.81244e-06
1.81572e-06
1.8159e-06
1.81735e-06
1.81748e-06
1.81575e-06
1.81588e-06
1.81586e-06
1.81604e-06
1.81581e-06
1.81591e-06
1.81759e-06
1.81712e-06
1.8175e-06
1.81607e-06
1.817e-06
1.81736e-06
1.79959e-06
1.79942e-06
1.79925e-06
1.79713e-06
1.79703e-06
1.79699e-06
1.79711e-06
1.79921e-06
1.79946e-06
1.79925e-06
1.79641e-06
1.79346e-06
1.79339e-06
1.7934e-06
1.79347e-06
1.79693e-06
1.79757e-06
1.79713e-06
1.79347e-06
1.79318e-06
1.79322e-06
1.79322e-06
1.79319e-06
1.79347e-06
1.79774e-06
1.7997e-06
1.7996e-06
1.79703e-06
1.79339e-06
1.79322e-06
1.79325e-06
1.79325e-06
1.79322e-06
1.7934e-06
1.79779e-06
1.79945e-06
1.79942e-06
1.797e-06
1.7934e-06
1.79322e-06
1.79325e-06
1.79325e-06
1.79322e-06
1.7934e-06
1.79774e-06
1.79769e-06
1.79711e-06
1.79347e-06
1.79319e-06
1.79322e-06
1.79322e-06
1.79319e-06
1.79347e-06
1.79779e-06
1.79979e-06
1.79922e-06
1.79693e-06
1.79347e-06
1.7934e-06
1.7934e-06
1.79347e-06
1.79741e-06
1.79769e-06
1.79969e-06
1.79947e-06
1.79757e-06
1.79774e-06
1.79779e-06
1.79774e-06
1.79779e-06
1.79769e-06
1.7996e-06
1.7997e-06
1.79945e-06
1.7977e-06
1.79979e-06
1.7997e-06
1.78058e-06
1.7804e-06
1.78026e-06
1.77809e-06
1.77799e-06
1.7779e-06
1.77809e-06
1.78021e-06
1.78047e-06
1.78026e-06
1.77734e-06
1.77439e-06
1.77435e-06
1.77435e-06
1.77439e-06
1.77784e-06
1.7786e-06
1.77809e-06
1.77439e-06
1.77426e-06
1.77427e-06
1.77427e-06
1.77426e-06
1.77439e-06
1.77873e-06
1.78068e-06
1.78058e-06
1.77799e-06
1.77435e-06
1.77427e-06
1.77428e-06
1.77428e-06
1.77427e-06
1.77435e-06
1.77879e-06
1.78042e-06
1.78041e-06
1.7779e-06
1.77435e-06
1.77427e-06
1.77428e-06
1.77428e-06
1.77427e-06
1.77435e-06
1.77876e-06
1.77871e-06
1.77809e-06
1.77439e-06
1.77426e-06
1.77427e-06
1.77427e-06
1.77426e-06
1.77439e-06
1.77877e-06
1.78075e-06
1.78021e-06
1.77784e-06
1.77439e-06
1.77435e-06
1.77435e-06
1.77439e-06
1.77851e-06
1.77872e-06
1.7807e-06
1.78048e-06
1.7786e-06
1.77873e-06
1.77879e-06
1.77876e-06
1.77877e-06
1.77872e-06
1.78072e-06
1.78068e-06
1.78042e-06
1.77871e-06
1.78075e-06
1.7807e-06
1.76153e-06
1.76136e-06
1.7612e-06
1.75902e-06
1.75891e-06
1.75881e-06
1.75901e-06
1.76115e-06
1.76142e-06
1.7612e-06
1.75828e-06
1.7553e-06
1.75529e-06
1.75529e-06
1.7553e-06
1.75873e-06
1.75955e-06
1.75902e-06
1.7553e-06
1.75527e-06
1.75527e-06
1.75527e-06
1.75527e-06
1.7553e-06
1.75968e-06
1.76163e-06
1.76154e-06
1.75891e-06
1.75529e-06
1.75527e-06
1.75527e-06
1.75527e-06
1.75527e-06
1.75529e-06
1.75977e-06
1.76141e-06
1.76136e-06
1.75881e-06
1.75529e-06
1.75527e-06
1.75527e-06
1.75527e-06
1.75527e-06
1.75529e-06
1.75975e-06
1.7597e-06
1.75901e-06
1.7553e-06
1.75527e-06
1.75527e-06
1.75527e-06
1.75527e-06
1.7553e-06
1.75974e-06
1.76173e-06
1.76115e-06
1.75873e-06
1.7553e-06
1.75529e-06
1.75529e-06
1.7553e-06
1.75952e-06
1.7597e-06
1.76166e-06
1.76142e-06
1.75955e-06
1.75968e-06
1.75977e-06
1.75975e-06
1.75974e-06
1.7597e-06
1.76164e-06
1.76164e-06
1.76141e-06
1.7597e-06
1.76173e-06
1.76166e-06
1.74247e-06
1.74231e-06
1.74213e-06
1.73995e-06
1.73984e-06
1.73975e-06
1.73994e-06
1.74209e-06
1.74235e-06
1.74213e-06
1.73921e-06
1.73623e-06
1.73623e-06
1.73623e-06
1.73623e-06
1.73965e-06
1.74048e-06
1.73995e-06
1.73623e-06
1.73622e-06
1.73622e-06
1.73622e-06
1.73622e-06
1.73623e-06
1.74062e-06
1.74258e-06
1.74248e-06
1.73984e-06
1.73623e-06
1.73622e-06
1.73623e-06
1.73623e-06
1.73622e-06
1.73623e-06
1.74072e-06
1.74236e-06
1.74231e-06
1.73975e-06
1.73623e-06
1.73622e-06
1.73623e-06
1.73623e-06
1.73622e-06
1.73623e-06
1.7407e-06
1.74065e-06
1.73994e-06
1.73623e-06
1.73622e-06
1.73622e-06
1.73622e-06
1.73622e-06
1.73623e-06
1.74068e-06
1.74268e-06
1.74209e-06
1.73965e-06
1.73623e-06
1.73623e-06
1.73623e-06
1.73623e-06
1.74047e-06
1.74064e-06
1.74259e-06
1.74235e-06
1.74048e-06
1.74062e-06
1.74072e-06
1.7407e-06
1.74068e-06
1.74064e-06
1.74258e-06
1.74258e-06
1.74236e-06
1.74065e-06
1.74268e-06
1.74259e-06
1.72342e-06
1.72325e-06
1.72307e-06
1.72089e-06
1.72078e-06
1.72069e-06
1.72088e-06
1.72303e-06
1.72329e-06
1.72307e-06
1.72015e-06
1.71717e-06
1.71717e-06
1.71717e-06
1.71717e-06
1.72058e-06
1.72142e-06
1.72089e-06
1.71717e-06
1.71717e-06
1.71717e-06
1.71717e-06
1.71717e-06
1.71717e-06
1.72155e-06
1.72352e-06
1.72342e-06
1.72078e-06
1.71717e-06
1.71717e-06
1.71717e-06
1.71717e-06
1.71717e-06
1.71717e-06
1.72166e-06
1.7233e-06
1.72325e-06
1.72069e-06
1.71717e-06
1.71717e-06
1.71717e-06
1.71717e-06
1.71717e-06
1.71717e-06
1.72164e-06
1.72159e-06
1.72088e-06
1.71717e-06
1.71717e-06
1.71717e-06
1.71717e-06
1.71717e-06
1.71717e-06
1.72162e-06
1.72362e-06
1.72303e-06
1.72058e-06
1.71717e-06
1.71717e-06
1.71717e-06
1.71717e-06
1.72142e-06
1.72158e-06
1.72353e-06
1.72329e-06
1.72142e-06
1.72155e-06
1.72166e-06
1.72164e-06
1.72162e-06
1.72158e-06
1.72351e-06
1.72352e-06
1.7233e-06
1.72159e-06
1.72362e-06
1.72353e-06
1.70436e-06
1.70419e-06
1.70401e-06
1.70183e-06
1.70172e-06
1.70163e-06
1.70182e-06
1.70397e-06
1.70423e-06
1.70401e-06
1.70109e-06
1.69811e-06
1.69811e-06
1.69811e-06
1.69811e-06
1.70152e-06
1.70236e-06
1.70183e-06
1.69811e-06
1.69811e-06
1.69811e-06
1.69811e-06
1.69811e-06
1.69811e-06
1.70249e-06
1.70446e-06
1.70436e-06
1.70172e-06
1.69811e-06
1.69811e-06
1.69811e-06
1.69811e-06
1.69811e-06
1.69811e-06
1.7026e-06
1.70424e-06
1.70419e-06
1.70163e-06
1.69811e-06
1.69811e-06
1.69811e-06
1.69811e-06
1.69811e-06
1.69811e-06
1.70258e-06
1.70253e-06
1.70182e-06
1.69811e-06
1.69811e-06
1.69811e-06
1.69811e-06
1.69811e-06
1.69811e-06
1.70256e-06
1.70456e-06
1.70397e-06
1.70152e-06
1.69811e-06
1.69811e-06
1.69811e-06
1.69811e-06
1.70236e-06
1.70253e-06
1.70447e-06
1.70423e-06
1.70236e-06
1.70249e-06
1.7026e-06
1.70258e-06
1.70256e-06
1.70253e-06
1.70445e-06
1.70446e-06
1.70424e-06
1.70253e-06
1.70456e-06
1.70447e-06
1.6853e-06
1.68513e-06
1.68495e-06
1.68277e-06
1.68266e-06
1.68257e-06
1.68276e-06
1.68491e-06
1.68517e-06
1.68495e-06
1.68204e-06
1.67905e-06
1.67905e-06
1.67905e-06
1.67905e-06
1.68246e-06
1.6833e-06
1.68277e-06
1.67905e-06
1.67905e-06
1.67905e-06
1.67905e-06
1.67905e-06
1.67905e-06
1.68343e-06
1.6854e-06
1.6853e-06
1.68266e-06
1.67905e-06
1.67905e-06
1.67905e-06
1.67905e-06
1.67905e-06
1.67905e-06
1.68354e-06
1.68519e-06
1.68513e-06
1.68257e-06
1.67905e-06
1.67905e-06
1.67905e-06
1.67905e-06
1.67905e-06
1.67905e-06
1.68353e-06
1.68347e-06
1.68276e-06
1.67905e-06
1.67905e-06
1.67905e-06
1.67905e-06
1.67905e-06
1.67905e-06
1.6835e-06
1.68551e-06
1.68491e-06
1.68246e-06
1.67905e-06
1.67905e-06
1.67905e-06
1.67905e-06
1.6833e-06
1.68347e-06
1.68541e-06
1.68517e-06
1.6833e-06
1.68343e-06
1.68354e-06
1.68353e-06
1.6835e-06
1.68347e-06
1.68539e-06
1.6854e-06
1.68519e-06
1.68347e-06
1.6855e-06
1.68541e-06
1.66624e-06
1.66607e-06
1.66589e-06
1.66371e-06
1.6636e-06
1.66351e-06
1.6637e-06
1.66585e-06
1.66611e-06
1.66589e-06
1.66298e-06
1.65999e-06
1.65999e-06
1.65999e-06
1.65999e-06
1.66341e-06
1.66424e-06
1.66371e-06
1.65999e-06
1.65999e-06
1.65999e-06
1.65999e-06
1.65999e-06
1.65999e-06
1.66437e-06
1.66634e-06
1.66624e-06
1.6636e-06
1.65999e-06
1.65999e-06
1.65999e-06
1.65999e-06
1.65999e-06
1.65999e-06
1.66448e-06
1.66613e-06
1.66607e-06
1.66351e-06
1.65999e-06
1.65999e-06
1.65999e-06
1.65999e-06
1.65999e-06
1.65999e-06
1.66447e-06
1.66441e-06
1.6637e-06
1.65999e-06
1.65999e-06
1.65999e-06
1.65999e-06
1.65999e-06
1.65999e-06
1.66445e-06
1.66645e-06
1.66585e-06
1.66341e-06
1.65999e-06
1.65999e-06
1.65999e-06
1.65999e-06
1.66424e-06
1.66441e-06
1.66635e-06
1.66611e-06
1.66425e-06
1.66437e-06
1.66448e-06
1.66447e-06
1.66444e-06
1.66441e-06
1.66634e-06
1.66634e-06
1.66613e-06
1.66441e-06
1.66645e-06
1.66635e-06
1.64718e-06
1.64701e-06
1.64683e-06
1.64465e-06
1.64455e-06
1.64445e-06
1.64464e-06
1.64679e-06
1.64705e-06
1.64683e-06
1.64392e-06
1.64094e-06
1.64094e-06
1.64094e-06
1.64094e-06
1.64435e-06
1.64518e-06
1.64465e-06
1.64094e-06
1.64094e-06
1.64094e-06
1.64094e-06
1.64094e-06
1.64094e-06
1.64531e-06
1.64728e-06
1.64718e-06
1.64454e-06
1.64094e-06
1.64094e-06
1.64094e-06
1.64094e-06
1.64094e-06
1.64094e-06
1.64542e-06
1.64707e-06
1.64701e-06
1.64445e-06
1.64094e-06
1.64094e-06
1.64094e-06
1.64094e-06
1.64094e-06
1.64094e-06
1.64541e-06
1.64535e-06
1.64464e-06
1.64094e-06
1.64094e-06
1.64094e-06
1.64094e-06
1.64094e-06
1.64094e-06
1.64539e-06
1.64739e-06
1.64679e-06
1.64435e-06
1.64094e-06
1.64094e-06
1.64094e-06
1.64094e-06
1.64518e-06
1.64535e-06
1.64729e-06
1.64705e-06
1.64519e-06
1.64531e-06
1.64542e-06
1.64541e-06
1.64538e-06
1.64535e-06
1.64728e-06
1.64728e-06
1.64707e-06
1.64535e-06
1.64739e-06
1.64729e-06
1.62812e-06
1.62795e-06
1.62777e-06
1.62559e-06
1.62549e-06
1.62539e-06
1.62559e-06
1.62773e-06
1.62799e-06
1.62777e-06
1.62486e-06
1.62188e-06
1.62188e-06
1.62188e-06
1.62188e-06
1.62529e-06
1.62613e-06
1.62559e-06
1.62188e-06
1.62188e-06
1.62188e-06
1.62188e-06
1.62188e-06
1.62188e-06
1.62626e-06
1.62822e-06
1.62812e-06
1.62549e-06
1.62188e-06
1.62188e-06
1.62188e-06
1.62188e-06
1.62188e-06
1.62188e-06
1.62636e-06
1.62801e-06
1.62795e-06
1.62539e-06
1.62188e-06
1.62188e-06
1.62188e-06
1.62188e-06
1.62188e-06
1.62188e-06
1.62635e-06
1.62629e-06
1.62559e-06
1.62188e-06
1.62188e-06
1.62188e-06
1.62188e-06
1.62188e-06
1.62188e-06
1.62633e-06
1.62833e-06
1.62773e-06
1.62529e-06
1.62188e-06
1.62188e-06
1.62188e-06
1.62188e-06
1.62612e-06
1.62629e-06
1.62823e-06
1.62799e-06
1.62613e-06
1.62625e-06
1.62636e-06
1.62635e-06
1.62632e-06
1.62629e-06
1.62822e-06
1.62822e-06
1.62801e-06
1.6263e-06
1.62833e-06
1.62823e-06
1.60906e-06
1.60889e-06
1.60872e-06
1.60653e-06
1.60643e-06
1.60633e-06
1.60653e-06
1.60868e-06
1.60893e-06
1.60871e-06
1.6058e-06
1.60282e-06
1.60282e-06
1.60282e-06
1.60282e-06
1.60623e-06
1.60707e-06
1.60653e-06
1.60282e-06
1.60282e-06
1.60282e-06
1.60282e-06
1.60282e-06
1.60282e-06
1.6072e-06
1.60916e-06
1.60906e-06
1.60643e-06
1.60282e-06
1.60282e-06
1.60282e-06
1.60282e-06
1.60282e-06
1.60282e-06
1.60731e-06
1.60895e-06
1.60889e-06
1.60633e-06
1.60282e-06
1.60282e-06
1.60282e-06
1.60282e-06
1.60282e-06
1.60282e-06
1.60729e-06
1.60724e-06
1.60653e-06
1.60282e-06
1.60282e-06
1.60282e-06
1.60282e-06
1.60282e-06
1.60282e-06
1.60727e-06
1.60927e-06
1.60868e-06
1.60623e-06
1.60282e-06
1.60282e-06
1.60282e-06
1.60282e-06
1.60707e-06
1.60723e-06
1.60918e-06
1.60893e-06
1.60707e-06
1.6072e-06
1.6073e-06
1.60729e-06
1.60727e-06
1.60723e-06
1.60916e-06
1.60916e-06
1.60895e-06
1.60724e-06
1.60927e-06
1.60918e-06
1.59001e-06
1.58984e-06
1.58966e-06
1.58748e-06
1.58737e-06
1.58727e-06
1.58747e-06
1.58962e-06
1.58988e-06
1.58966e-06
1.58674e-06
1.58376e-06
1.58376e-06
1.58376e-06
1.58376e-06
1.58717e-06
1.58801e-06
1.58748e-06
1.58376e-06
1.58376e-06
1.58376e-06
1.58376e-06
1.58376e-06
1.58376e-06
1.58814e-06
1.5901e-06
1.59001e-06
1.58737e-06
1.58376e-06
1.58376e-06
1.58376e-06
1.58376e-06
1.58376e-06
1.58376e-06
1.58825e-06
1.58989e-06
1.58984e-06
1.58727e-06
1.58376e-06
1.58376e-06
1.58376e-06
1.58376e-06
1.58376e-06
1.58376e-06
1.58823e-06
1.58818e-06
1.58747e-06
1.58376e-06
1.58376e-06
1.58376e-06
1.58376e-06
1.58376e-06
1.58376e-06
1.58821e-06
1.59021e-06
1.58962e-06
1.58717e-06
1.58376e-06
1.58376e-06
1.58376e-06
1.58376e-06
1.58801e-06
1.58818e-06
1.59012e-06
1.58988e-06
1.58801e-06
1.58814e-06
1.58825e-06
1.58823e-06
1.58821e-06
1.58817e-06
1.5901e-06
1.5901e-06
1.58989e-06
1.58818e-06
1.59021e-06
1.59012e-06
1.57095e-06
1.57078e-06
1.5706e-06
1.56842e-06
1.56831e-06
1.56822e-06
1.56841e-06
1.57056e-06
1.57082e-06
1.5706e-06
1.56768e-06
1.5647e-06
1.5647e-06
1.5647e-06
1.5647e-06
1.56811e-06
1.56895e-06
1.56842e-06
1.5647e-06
1.5647e-06
1.5647e-06
1.5647e-06
1.5647e-06
1.5647e-06
1.56908e-06
1.57105e-06
1.57095e-06
1.56831e-06
1.5647e-06
1.5647e-06
1.5647e-06
1.5647e-06
1.5647e-06
1.5647e-06
1.56919e-06
1.57083e-06
1.57078e-06
1.56822e-06
1.5647e-06
1.5647e-06
1.5647e-06
1.5647e-06
1.5647e-06
1.5647e-06
1.56917e-06
1.56912e-06
1.56841e-06
1.5647e-06
1.5647e-06
1.5647e-06
1.5647e-06
1.5647e-06
1.5647e-06
1.56915e-06
1.57115e-06
1.57056e-06
1.56811e-06
1.5647e-06
1.5647e-06
1.5647e-06
1.5647e-06
1.56895e-06
1.56912e-06
1.57106e-06
1.57082e-06
1.56895e-06
1.56908e-06
1.56919e-06
1.56917e-06
1.56915e-06
1.56912e-06
1.57104e-06
1.57105e-06
1.57083e-06
1.56912e-06
1.57115e-06
1.57106e-06
1.55189e-06
1.55172e-06
1.55154e-06
1.54936e-06
1.54925e-06
1.54916e-06
1.54935e-06
1.5515e-06
1.55176e-06
1.55154e-06
1.54863e-06
1.54564e-06
1.54564e-06
1.54564e-06
1.54564e-06
1.54905e-06
1.54989e-06
1.54936e-06
1.54564e-06
1.54564e-06
1.54564e-06
1.54564e-06
1.54564e-06
1.54564e-06
1.55002e-06
1.55199e-06
1.55189e-06
1.54925e-06
1.54564e-06
1.54564e-06
1.54564e-06
1.54564e-06
1.54564e-06
1.54564e-06
1.55013e-06
1.55178e-06
1.55172e-06
1.54916e-06
1.54564e-06
1.54564e-06
1.54564e-06
1.54564e-06
1.54564e-06
1.54564e-06
1.55012e-06
1.55006e-06
1.54935e-06
1.54564e-06
1.54564e-06
1.54564e-06
1.54564e-06
1.54564e-06
1.54564e-06
1.55009e-06
1.5521e-06
1.5515e-06
1.54906e-06
1.54564e-06
1.54564e-06
1.54564e-06
1.54564e-06
1.54989e-06
1.55006e-06
1.552e-06
1.55176e-06
1.54989e-06
1.55002e-06
1.55013e-06
1.55012e-06
1.55009e-06
1.55006e-06
1.55198e-06
1.55199e-06
1.55178e-06
1.55006e-06
1.55209e-06
1.552e-06
1.53283e-06
1.53266e-06
1.53248e-06
1.5303e-06
1.53019e-06
1.5301e-06
1.53029e-06
1.53244e-06
1.5327e-06
1.53248e-06
1.52957e-06
1.52659e-06
1.52659e-06
1.52659e-06
1.52659e-06
1.53e-06
1.53083e-06
1.5303e-06
1.52659e-06
1.52659e-06
1.52659e-06
1.52659e-06
1.52659e-06
1.52659e-06
1.53096e-06
1.53293e-06
1.53283e-06
1.53019e-06
1.52659e-06
1.52659e-06
1.52659e-06
1.52659e-06
1.52659e-06
1.52659e-06
1.53107e-06
1.53272e-06
1.53266e-06
1.5301e-06
1.52659e-06
1.52659e-06
1.52659e-06
1.52659e-06
1.52659e-06
1.52659e-06
1.53106e-06
1.531e-06
1.53029e-06
1.52659e-06
1.52659e-06
1.52659e-06
1.52659e-06
1.52659e-06
1.52659e-06
1.53104e-06
1.53304e-06
1.53244e-06
1.53e-06
1.52659e-06
1.52659e-06
1.52659e-06
1.52659e-06
1.53083e-06
1.531e-06
1.53294e-06
1.5327e-06
1.53084e-06
1.53096e-06
1.53107e-06
1.53106e-06
1.53103e-06
1.531e-06
1.53293e-06
1.53293e-06
1.53272e-06
1.531e-06
1.53304e-06
1.53294e-06
1.51377e-06
1.5136e-06
1.51342e-06
1.51124e-06
1.51114e-06
1.51104e-06
1.51124e-06
1.51338e-06
1.51364e-06
1.51342e-06
1.51051e-06
1.50753e-06
1.50753e-06
1.50753e-06
1.50753e-06
1.51094e-06
1.51178e-06
1.51124e-06
1.50753e-06
1.50753e-06
1.50753e-06
1.50753e-06
1.50753e-06
1.50753e-06
1.51191e-06
1.51387e-06
1.51377e-06
1.51114e-06
1.50753e-06
1.50753e-06
1.50753e-06
1.50753e-06
1.50753e-06
1.50753e-06
1.51201e-06
1.51366e-06
1.5136e-06
1.51104e-06
1.50753e-06
1.50753e-06
1.50753e-06
1.50753e-06
1.50753e-06
1.50753e-06
1.512e-06
1.51195e-06
1.51124e-06
1.50753e-06
1.50753e-06
1.50753e-06
1.50753e-06
1.50753e-06
1.50753e-06
1.51198e-06
1.51398e-06
1.51339e-06
1.51094e-06
1.50753e-06
1.50753e-06
1.50753e-06
1.50753e-06
1.51178e-06
1.51194e-06
1.51388e-06
1.51364e-06
1.51178e-06
1.51191e-06
1.51201e-06
1.512e-06
1.51197e-06
1.51194e-06
1.51387e-06
1.51387e-06
1.51366e-06
1.51195e-06
1.51398e-06
1.51389e-06
1.49472e-06
1.49455e-06
1.49437e-06
1.49219e-06
1.49208e-06
1.49198e-06
1.49218e-06
1.49433e-06
1.49459e-06
1.49437e-06
1.49145e-06
1.48847e-06
1.48847e-06
1.48847e-06
1.48847e-06
1.49188e-06
1.49272e-06
1.49219e-06
1.48847e-06
1.48847e-06
1.48847e-06
1.48847e-06
1.48847e-06
1.48847e-06
1.49285e-06
1.49482e-06
1.49472e-06
1.49208e-06
1.48847e-06
1.48847e-06
1.48847e-06
1.48847e-06
1.48847e-06
1.48847e-06
1.49296e-06
1.4946e-06
1.49455e-06
1.49198e-06
1.48847e-06
1.48847e-06
1.48847e-06
1.48847e-06
1.48847e-06
1.48847e-06
1.49294e-06
1.49289e-06
1.49218e-06
1.48847e-06
1.48847e-06
1.48847e-06
1.48847e-06
1.48847e-06
1.48847e-06
1.49292e-06
1.49492e-06
1.49433e-06
1.49188e-06
1.48847e-06
1.48847e-06
1.48847e-06
1.48847e-06
1.49272e-06
1.49289e-06
1.49483e-06
1.49459e-06
1.49272e-06
1.49285e-06
1.49296e-06
1.49294e-06
1.49292e-06
1.49289e-06
1.49481e-06
1.49481e-06
1.4946e-06
1.49289e-06
1.49492e-06
1.49483e-06
1.47566e-06
1.47549e-06
1.47531e-06
1.47313e-06
1.47302e-06
1.47293e-06
1.47312e-06
1.47527e-06
1.47553e-06
1.47531e-06
1.4724e-06
1.46942e-06
1.46942e-06
1.46942e-06
1.46942e-06
1.47283e-06
1.47366e-06
1.47313e-06
1.46942e-06
1.46942e-06
1.46942e-06
1.46942e-06
1.46942e-06
1.46942e-06
1.47379e-06
1.47576e-06
1.47566e-06
1.47302e-06
1.46942e-06
1.46942e-06
1.46942e-06
1.46942e-06
1.46942e-06
1.46942e-06
1.4739e-06
1.47555e-06
1.47549e-06
1.47293e-06
1.46942e-06
1.46942e-06
1.46942e-06
1.46942e-06
1.46942e-06
1.46942e-06
1.47389e-06
1.47383e-06
1.47312e-06
1.46942e-06
1.46942e-06
1.46942e-06
1.46942e-06
1.46942e-06
1.46942e-06
1.47387e-06
1.47587e-06
1.47527e-06
1.47283e-06
1.46942e-06
1.46942e-06
1.46942e-06
1.46942e-06
1.47366e-06
1.47383e-06
1.47577e-06
1.47553e-06
1.47367e-06
1.47379e-06
1.4739e-06
1.47389e-06
1.47386e-06
1.47383e-06
1.47576e-06
1.47576e-06
1.47555e-06
1.47383e-06
1.47587e-06
1.47577e-06
1.4566e-06
1.45643e-06
1.45625e-06
1.45407e-06
1.45397e-06
1.45387e-06
1.45407e-06
1.45621e-06
1.45647e-06
1.45625e-06
1.45334e-06
1.45036e-06
1.45036e-06
1.45036e-06
1.45036e-06
1.45377e-06
1.45461e-06
1.45407e-06
1.45036e-06
1.45036e-06
1.45036e-06
1.45036e-06
1.45036e-06
1.45036e-06
1.45474e-06
1.4567e-06
1.4566e-06
1.45397e-06
1.45036e-06
1.45036e-06
1.45036e-06
1.45036e-06
1.45036e-06
1.45036e-06
1.45485e-06
1.45649e-06
1.45643e-06
1.45387e-06
1.45036e-06
1.45036e-06
1.45036e-06
1.45036e-06
1.45036e-06
1.45036e-06
1.45483e-06
1.45478e-06
1.45407e-06
1.45036e-06
1.45036e-06
1.45036e-06
1.45036e-06
1.45036e-06
1.45036e-06
1.45481e-06
1.45681e-06
1.45622e-06
1.45377e-06
1.45036e-06
1.45036e-06
1.45036e-06
1.45036e-06
1.45461e-06
1.45477e-06
1.45672e-06
1.45647e-06
1.45461e-06
1.45474e-06
1.45484e-06
1.45483e-06
1.45481e-06
1.45477e-06
1.4567e-06
1.4567e-06
1.45649e-06
1.45478e-06
1.45681e-06
1.45672e-06
1.43755e-06
1.43738e-06
1.43719e-06
1.43502e-06
1.43491e-06
1.43481e-06
1.43501e-06
1.43716e-06
1.43741e-06
1.4372e-06
1.43428e-06
1.4313e-06
1.4313e-06
1.4313e-06
1.4313e-06
1.43471e-06
1.43555e-06
1.43502e-06
1.4313e-06
1.4313e-06
1.4313e-06
1.4313e-06
1.4313e-06
1.4313e-06
1.43568e-06
1.43764e-06
1.43755e-06
1.43491e-06
1.4313e-06
1.4313e-06
1.4313e-06
1.4313e-06
1.4313e-06
1.4313e-06
1.43579e-06
1.43743e-06
1.43738e-06
1.43481e-06
1.4313e-06
1.4313e-06
1.4313e-06
1.4313e-06
1.4313e-06
1.4313e-06
1.43577e-06
1.43572e-06
1.43501e-06
1.4313e-06
1.4313e-06
1.4313e-06
1.4313e-06
1.4313e-06
1.4313e-06
1.43575e-06
1.43775e-06
1.43716e-06
1.43471e-06
1.4313e-06
1.4313e-06
1.4313e-06
1.4313e-06
1.43555e-06
1.43572e-06
1.43766e-06
1.43741e-06
1.43555e-06
1.43568e-06
1.43579e-06
1.43577e-06
1.43575e-06
1.43571e-06
1.43764e-06
1.43764e-06
1.43743e-06
1.43572e-06
1.43775e-06
1.43766e-06
1.41849e-06
1.41832e-06
1.41814e-06
1.41596e-06
1.41585e-06
1.41576e-06
1.41595e-06
1.4181e-06
1.41836e-06
1.41814e-06
1.41522e-06
1.41224e-06
1.41224e-06
1.41224e-06
1.41224e-06
1.41565e-06
1.41649e-06
1.41596e-06
1.41224e-06
1.41224e-06
1.41224e-06
1.41224e-06
1.41224e-06
1.41224e-06
1.41662e-06
1.41859e-06
1.41849e-06
1.41585e-06
1.41224e-06
1.41224e-06
1.41224e-06
1.41224e-06
1.41224e-06
1.41224e-06
1.41673e-06
1.41837e-06
1.41832e-06
1.41576e-06
1.41224e-06
1.41224e-06
1.41224e-06
1.41224e-06
1.41224e-06
1.41224e-06
1.41672e-06
1.41666e-06
1.41595e-06
1.41224e-06
1.41224e-06
1.41224e-06
1.41224e-06
1.41224e-06
1.41224e-06
1.41669e-06
1.41869e-06
1.4181e-06
1.41565e-06
1.41224e-06
1.41224e-06
1.41224e-06
1.41224e-06
1.41649e-06
1.41666e-06
1.4186e-06
1.41836e-06
1.41649e-06
1.41662e-06
1.41673e-06
1.41671e-06
1.41669e-06
1.41666e-06
1.41858e-06
1.41859e-06
1.41837e-06
1.41666e-06
1.41869e-06
1.4186e-06
1.39943e-06
1.39926e-06
1.39908e-06
1.3969e-06
1.39679e-06
1.3967e-06
1.39689e-06
1.39904e-06
1.3993e-06
1.39908e-06
1.39617e-06
1.39318e-06
1.39318e-06
1.39318e-06
1.39318e-06
1.3966e-06
1.39743e-06
1.3969e-06
1.39318e-06
1.39318e-06
1.39318e-06
1.39318e-06
1.39318e-06
1.39318e-06
1.39756e-06
1.39953e-06
1.39943e-06
1.39679e-06
1.39318e-06
1.39318e-06
1.39318e-06
1.39318e-06
1.39318e-06
1.39318e-06
1.39767e-06
1.39932e-06
1.39926e-06
1.3967e-06
1.39318e-06
1.39318e-06
1.39318e-06
1.39318e-06
1.39318e-06
1.39318e-06
1.39766e-06
1.3976e-06
1.39689e-06
1.39318e-06
1.39318e-06
1.39318e-06
1.39318e-06
1.39318e-06
1.39318e-06
1.39764e-06
1.39964e-06
1.39904e-06
1.3966e-06
1.39318e-06
1.39318e-06
1.39318e-06
1.39318e-06
1.39743e-06
1.3976e-06
1.39954e-06
1.3993e-06
1.39744e-06
1.39756e-06
1.39767e-06
1.39766e-06
1.39763e-06
1.3976e-06
1.39953e-06
1.39953e-06
1.39932e-06
1.3976e-06
1.39964e-06
1.39954e-06
1.38037e-06
1.3802e-06
1.38002e-06
1.37784e-06
1.37774e-06
1.37764e-06
1.37784e-06
1.37998e-06
1.38024e-06
1.38002e-06
1.37711e-06
1.37413e-06
1.37413e-06
1.37413e-06
1.37413e-06
1.37754e-06
1.37838e-06
1.37784e-06
1.37413e-06
1.37413e-06
1.37413e-06
1.37413e-06
1.37413e-06
1.37413e-06
1.37851e-06
1.38047e-06
1.38037e-06
1.37774e-06
1.37413e-06
1.37413e-06
1.37413e-06
1.37413e-06
1.37413e-06
1.37413e-06
1.37861e-06
1.38026e-06
1.3802e-06
1.37764e-06
1.37413e-06
1.37413e-06
1.37413e-06
1.37413e-06
1.37413e-06
1.37413e-06
1.3786e-06
1.37855e-06
1.37784e-06
1.37413e-06
1.37413e-06
1.37413e-06
1.37413e-06
1.37413e-06
1.37413e-06
1.37858e-06
1.38058e-06
1.37998e-06
1.37754e-06
1.37413e-06
1.37413e-06
1.37413e-06
1.37413e-06
1.37837e-06
1.37854e-06
1.38048e-06
1.38024e-06
1.37838e-06
1.37851e-06
1.37861e-06
1.3786e-06
1.37857e-06
1.37854e-06
1.38047e-06
1.38047e-06
1.38026e-06
1.37854e-06
1.38058e-06
1.38048e-06
1.36131e-06
1.36114e-06
1.36096e-06
1.35878e-06
1.35868e-06
1.35858e-06
1.35878e-06
1.36092e-06
1.36118e-06
1.36096e-06
1.35805e-06
1.35507e-06
1.35507e-06
1.35507e-06
1.35507e-06
1.35848e-06
1.35932e-06
1.35878e-06
1.35507e-06
1.35507e-06
1.35507e-06
1.35507e-06
1.35507e-06
1.35507e-06
1.35945e-06
1.36141e-06
1.36131e-06
1.35868e-06
1.35507e-06
1.35507e-06
1.35507e-06
1.35507e-06
1.35507e-06
1.35507e-06
1.35956e-06
1.3612e-06
1.36114e-06
1.35858e-06
1.35507e-06
1.35507e-06
1.35507e-06
1.35507e-06
1.35507e-06
1.35507e-06
1.35954e-06
1.35949e-06
1.35878e-06
1.35507e-06
1.35507e-06
1.35507e-06
1.35507e-06
1.35507e-06
1.35507e-06
1.35952e-06
1.36152e-06
1.36093e-06
1.35848e-06
1.35507e-06
1.35507e-06
1.35507e-06
1.35507e-06
1.35932e-06
1.35948e-06
1.36143e-06
1.36118e-06
1.35932e-06
1.35945e-06
1.35955e-06
1.35954e-06
1.35951e-06
1.35948e-06
1.36141e-06
1.36141e-06
1.3612e-06
1.35949e-06
1.36152e-06
1.36143e-06
1.34225e-06
1.34208e-06
1.3419e-06
1.33973e-06
1.33962e-06
1.33952e-06
1.33972e-06
1.34187e-06
1.34212e-06
1.3419e-06
1.33899e-06
1.33601e-06
1.33601e-06
1.33601e-06
1.33601e-06
1.33942e-06
1.34026e-06
1.33972e-06
1.33601e-06
1.33601e-06
1.33601e-06
1.33601e-06
1.33601e-06
1.33601e-06
1.34039e-06
1.34235e-06
1.34225e-06
1.33962e-06
1.33601e-06
1.33601e-06
1.33601e-06
1.33601e-06
1.33601e-06
1.33601e-06
1.3405e-06
1.34214e-06
1.34208e-06
1.33952e-06
1.33601e-06
1.33601e-06
1.33601e-06
1.33601e-06
1.33601e-06
1.33601e-06
1.34048e-06
1.34043e-06
1.33972e-06
1.33601e-06
1.33601e-06
1.33601e-06
1.33601e-06
1.33601e-06
1.33601e-06
1.34046e-06
1.34246e-06
1.34187e-06
1.33942e-06
1.33601e-06
1.33601e-06
1.33601e-06
1.33601e-06
1.34026e-06
1.34042e-06
1.34237e-06
1.34212e-06
1.34026e-06
1.34039e-06
1.3405e-06
1.34048e-06
1.34046e-06
1.34042e-06
1.34235e-06
1.34235e-06
1.34214e-06
1.34043e-06
1.34246e-06
1.34237e-06
1.3232e-06
1.32303e-06
1.32285e-06
1.32067e-06
1.32056e-06
1.32046e-06
1.32066e-06
1.32281e-06
1.32307e-06
1.32285e-06
1.31993e-06
1.31695e-06
1.31695e-06
1.31695e-06
1.31695e-06
1.32036e-06
1.3212e-06
1.32067e-06
1.31695e-06
1.31695e-06
1.31695e-06
1.31695e-06
1.31695e-06
1.31695e-06
1.32133e-06
1.3233e-06
1.3232e-06
1.32056e-06
1.31695e-06
1.31695e-06
1.31695e-06
1.31695e-06
1.31695e-06
1.31695e-06
1.32144e-06
1.32308e-06
1.32303e-06
1.32046e-06
1.31695e-06
1.31695e-06
1.31695e-06
1.31695e-06
1.31695e-06
1.31695e-06
1.32142e-06
1.32137e-06
1.32066e-06
1.31695e-06
1.31695e-06
1.31695e-06
1.31695e-06
1.31695e-06
1.31695e-06
1.3214e-06
1.3234e-06
1.32281e-06
1.32036e-06
1.31695e-06
1.31695e-06
1.31695e-06
1.31695e-06
1.3212e-06
1.32137e-06
1.32331e-06
1.32307e-06
1.3212e-06
1.32133e-06
1.32144e-06
1.32142e-06
1.3214e-06
1.32137e-06
1.32329e-06
1.32329e-06
1.32308e-06
1.32137e-06
1.3234e-06
1.32331e-06
1.30414e-06
1.30397e-06
1.30379e-06
1.30161e-06
1.3015e-06
1.30141e-06
1.3016e-06
1.30375e-06
1.30401e-06
1.30379e-06
1.30087e-06
1.29789e-06
1.29789e-06
1.29789e-06
1.29789e-06
1.3013e-06
1.30214e-06
1.30161e-06
1.29789e-06
1.29789e-06
1.29789e-06
1.29789e-06
1.29789e-06
1.29789e-06
1.30227e-06
1.30424e-06
1.30414e-06
1.3015e-06
1.29789e-06
1.29789e-06
1.29789e-06
1.29789e-06
1.29789e-06
1.29789e-06
1.30238e-06
1.30402e-06
1.30397e-06
1.30141e-06
1.29789e-06
1.29789e-06
1.29789e-06
1.29789e-06
1.29789e-06
1.29789e-06
1.30237e-06
1.30231e-06
1.3016e-06
1.29789e-06
1.29789e-06
1.29789e-06
1.29789e-06
1.29789e-06
1.29789e-06
1.30234e-06
1.30434e-06
1.30375e-06
1.30131e-06
1.29789e-06
1.29789e-06
1.29789e-06
1.29789e-06
1.30214e-06
1.30231e-06
1.30425e-06
1.30401e-06
1.30214e-06
1.30227e-06
1.30238e-06
1.30237e-06
1.30234e-06
1.30231e-06
1.30423e-06
1.30424e-06
1.30402e-06
1.30231e-06
1.30434e-06
1.30425e-06
1.28508e-06
1.28491e-06
1.28473e-06
1.28255e-06
1.28245e-06
1.28235e-06
1.28254e-06
1.28469e-06
1.28495e-06
1.28473e-06
1.28182e-06
1.27884e-06
1.27884e-06
1.27884e-06
1.27884e-06
1.28225e-06
1.28309e-06
1.28255e-06
1.27884e-06
1.27884e-06
1.27884e-06
1.27884e-06
1.27884e-06
1.27884e-06
1.28321e-06
1.28518e-06
1.28508e-06
1.28244e-06
1.27884e-06
1.27884e-06
1.27884e-06
1.27884e-06
1.27884e-06
1.27884e-06
1.28332e-06
1.28497e-06
1.28491e-06
1.28235e-06
1.27884e-06
1.27884e-06
1.27884e-06
1.27884e-06
1.27884e-06
1.27884e-06
1.28331e-06
1.28325e-06
1.28254e-06
1.27884e-06
1.27884e-06
1.27884e-06
1.27884e-06
1.27884e-06
1.27884e-06
1.28329e-06
1.28529e-06
1.28469e-06
1.28225e-06
1.27884e-06
1.27884e-06
1.27884e-06
1.27884e-06
1.28308e-06
1.28325e-06
1.28519e-06
1.28495e-06
1.28309e-06
1.28321e-06
1.28332e-06
1.28331e-06
1.28328e-06
1.28325e-06
1.28518e-06
1.28518e-06
1.28497e-06
1.28325e-06
1.28529e-06
1.28519e-06
1.26602e-06
1.26585e-06
1.26567e-06
1.2635e-06
1.26339e-06
1.26329e-06
1.26349e-06
1.26563e-06
1.26589e-06
1.26567e-06
1.26276e-06
1.25978e-06
1.25978e-06
1.25978e-06
1.25978e-06
1.26319e-06
1.26403e-06
1.26349e-06
1.25978e-06
1.25978e-06
1.25978e-06
1.25978e-06
1.25978e-06
1.25978e-06
1.26416e-06
1.26612e-06
1.26602e-06
1.26339e-06
1.25978e-06
1.25978e-06
1.25978e-06
1.25978e-06
1.25978e-06
1.25978e-06
1.26427e-06
1.26591e-06
1.26585e-06
1.26329e-06
1.25978e-06
1.25978e-06
1.25978e-06
1.25978e-06
1.25978e-06
1.25978e-06
1.26425e-06
1.2642e-06
1.26349e-06
1.25978e-06
1.25978e-06
1.25978e-06
1.25978e-06
1.25978e-06
1.25978e-06
1.26423e-06
1.26623e-06
1.26564e-06
1.26319e-06
1.25978e-06
1.25978e-06
1.25978e-06
1.25978e-06
1.26403e-06
1.26419e-06
1.26614e-06
1.26589e-06
1.26403e-06
1.26416e-06
1.26426e-06
1.26425e-06
1.26423e-06
1.26419e-06
1.26612e-06
1.26612e-06
1.26591e-06
1.2642e-06
1.26623e-06
1.26614e-06
1.24697e-06
1.2468e-06
1.24661e-06
1.24444e-06
1.24433e-06
1.24423e-06
1.24443e-06
1.24658e-06
1.24683e-06
1.24662e-06
1.2437e-06
1.24072e-06
1.24072e-06
1.24072e-06
1.24072e-06
1.24413e-06
1.24497e-06
1.24444e-06
1.24072e-06
1.24072e-06
1.24072e-06
1.24072e-06
1.24072e-06
1.24072e-06
1.2451e-06
1.24706e-06
1.24697e-06
1.24433e-06
1.24072e-06
1.24072e-06
1.24072e-06
1.24072e-06
1.24072e-06
1.24072e-06
1.24521e-06
1.24685e-06
1.2468e-06
1.24423e-06
1.24072e-06
1.24072e-06
1.24072e-06
1.24072e-06
1.24072e-06
1.24072e-06
1.24519e-06
1.24514e-06
1.24443e-06
1.24072e-06
1.24072e-06
1.24072e-06
1.24072e-06
1.24072e-06
1.24072e-06
1.24517e-06
1.24717e-06
1.24658e-06
1.24413e-06
1.24072e-06
1.24072e-06
1.24072e-06
1.24072e-06
1.24497e-06