/*--------------------------------*- C++ -*----------------------------------*\
| =========                 |                                                 |
| \\      /  F ield         | OpenFOAM: The Open Source CFD Toolbox           |
|  \\    /   O peration     | Version:  v2012                                 |
|   \\  /    A nd           | Website:  www.openfoam.com                      |
|    \\/     M anipulation  |                                                 |
\*---------------------------------------------------------------------------*/
FoamFile
{
    version     2.0;
    format      ascii;
    class       volScalarField;
    location    "425";
    object      nut;
}
// * * * * * * * * * * * * * * * * * * * * * * * * * * * * * * * * * * * * * //

dimensions      [0 2 -1 0 0 0 0];


internalField   nonuniform List<scalar> 
171728
(
4.12948e-06
3.5527e-06
1.80807e-06
2.39721e-06
4.13732e-06
5.0166e-06
1.80366e-06
2.60656e-06
4.18913e-06
1.0333e-05
1.82992e-06
2.31896e-06
4.23904e-06
1.86859e-05
1.85075e-06
2.1675e-06
4.28723e-06
1.2525e-05
1.88417e-06
2.10867e-06
4.3347e-06
4.36804e-06
1.92357e-06
2.04572e-06
4.38066e-06
2.28003e-06
1.97418e-06
1.96524e-06
4.42615e-06
1.92323e-06
2.02066e-06
1.87798e-06
4.46654e-06
1.81779e-06
2.07714e-06
1.78112e-06
4.50626e-06
1.73271e-06
2.11016e-06
1.68416e-06
4.54789e-06
1.64871e-06
2.08633e-06
1.57658e-06
4.59096e-06
1.56042e-06
1.98099e-06
1.48014e-06
4.63334e-06
1.46879e-06
1.81411e-06
1.47808e-06
4.67554e-06
1.37035e-06
1.61631e-06
1.60984e-06
4.71828e-06
1.27112e-06
1.45005e-06
1.76613e-06
4.76184e-06
1.16617e-06
1.28179e-06
2.03118e-06
4.80164e-06
1.09263e-06
1.16355e-06
2.45017e-06
4.83667e-06
1.04058e-06
1.18685e-06
2.35653e-06
4.86623e-06
1.14471e-06
1.16032e-06
2.15718e-06
4.88231e-06
1.0598e-06
1.20679e-06
1.08082e-06
4.88005e-06
1.55841e-06
1.34678e-06
2.27836e-06
4.86833e-06
1.45938e-06
1.74198e-06
2.31846e-06
4.79434e-06
2.78248e-06
2.27228e-06
2.99911e-06
4.72862e-06
2.4621e-06
2.77091e-06
5.49121e-06
4.59885e-06
3.91471e-06
4.0752e-06
9.4072e-06
4.43115e-06
5.35138e-06
5.28089e-06
1.20239e-05
4.28029e-06
6.93026e-06
7.08356e-06
1.7173e-05
3.99929e-06
9.01816e-06
8.85202e-06
2.40944e-05
3.85056e-06
1.18325e-05
1.2456e-05
3.08112e-05
3.73842e-06
1.44553e-05
1.41592e-05
3.86712e-05
3.63074e-06
1.80052e-05
1.90652e-05
4.48622e-05
3.71455e-06
2.19688e-05
2.09959e-05
5.22244e-05
3.92109e-06
2.81279e-05
2.70223e-05
5.88603e-05
4.06006e-06
2.65004e-05
3.04754e-05
6.43785e-05
4.84282e-06
3.89307e-05
3.62841e-05
6.97583e-05
5.42347e-06
4.14941e-05
4.06105e-05
7.46117e-05
6.21031e-06
4.42996e-05
4.79437e-05
7.94769e-05
7.64131e-06
5.61335e-05
5.13594e-05
8.36757e-05
8.99026e-06
5.55085e-05
6.05478e-05
8.7735e-05
1.09923e-05
6.59349e-05
6.24049e-05
9.1835e-05
1.30777e-05
7.06774e-05
7.2838e-05
9.54554e-05
1.60012e-05
7.60993e-05
7.64666e-05
0.000100151
1.82229e-05
8.36949e-05
8.31595e-05
0.000102892
2.26686e-05
8.96122e-05
8.82064e-05
0.000107285
2.69166e-05
9.30127e-05
9.57555e-05
0.000111144
3.00213e-05
0.000101102
9.88767e-05
0.000114432
3.57399e-05
0.000107849
0.000108676
0.000119378
4.19322e-05
0.000108464
0.000108312
0.000119587
4.44151e-05
0.000119634
0.000118639
0.000127816
5.77398e-05
0.000117704
0.000121716
0.000129796
5.45874e-05
0.000126197
0.000126159
0.00012948
7.07381e-05
0.000135726
0.000130654
0.000137833
7.12776e-05
0.000132366
0.000136259
0.00013612
8.28096e-05
0.000140724
0.000138768
0.000143753
8.17322e-05
0.000142728
0.000145876
0.00014218
0.000100127
0.000149475
0.000146313
0.000148914
9.89286e-05
0.000151971
0.000152817
0.000150152
0.000109807
0.000156217
0.000158547
0.000153527
0.000112739
0.00015467
0.000156173
0.00015377
0.000126215
0.000169673
0.000165053
0.000161377
0.00012953
0.000166101
0.000170679
0.000160882
0.000124407
0.000164369
0.000166716
0.000161802
0.000144247
0.00018068
0.000175289
0.000166474
0.000154929
0.000179525
0.000182378
0.00017085
0.00015166
0.000172528
0.000178352
0.000167982
0.000146758
0.000185675
0.000179366
0.000170745
0.000165896
0.000195015
0.000189225
0.000177192
0.000176949
0.00018923
0.000193371
0.000178263
0.000175305
0.000188221
0.000194264
0.000177285
0.000175631
0.000196116
0.000189674
0.000179255
0.000186076
0.000195981
0.000198019
0.000182617
0.000190388
0.000202803
0.000205685
0.000183319
0.000196827
0.000204325
0.000203721
0.000188404
0.000201883
0.000202973
0.000201814
0.000186749
0.000200597
0.000203944
0.000203976
0.000185374
0.000207704
0.000211809
0.000211838
0.00019119
0.000216801
0.000213677
0.000213614
0.000192269
0.000216918
0.000212079
0.000212222
0.000193024
0.000216371
0.000212838
0.000210772
0.00019116
0.000221381
0.000213905
0.000216319
0.000193627
0.000225593
0.000220305
0.00022047
0.000197285
0.000232461
0.000220283
0.000220764
0.000195692
0.000232965
0.000218655
0.000217735
0.000196667
0.000231502
0.000221737
0.000222461
0.00019904
0.000238196
0.000223884
0.000225846
0.000198167
0.000240427
0.000222049
0.000220317
0.000197327
0.000238018
0.000222846
0.000220484
0.000197804
0.000240107
0.000224077
0.00022604
0.000198963
0.000247349
0.000226892
0.000228746
0.000201561
0.000251855
0.000231035
0.000229004
0.00020482
0.000242335
0.000219701
0.000217979
0.000192969
0.000239222
0.000218889
0.00022054
0.000194175
0.000261524
0.000239434
0.000241126
0.000212187
0.000274701
0.000247458
0.000248019
0.00021666
0.000238706
0.000209657
0.000208988
0.000185946
2.2802e-06
2.53093e-06
2.50749e-06
2.32643e-06
2.55915e-06
2.54065e-06
4.16276e-06
4.4823e-06
4.13628e-06
3.80319e-06
4.09564e-06
2.6992e-06
2.31409e-06
2.43158e-06
3.67178e-06
2.40412e-06
2.27605e-06
2.26403e-06
2.29329e-06
2.26512e-06
2.25997e-06
2.23245e-06
2.32103e-06
2.37553e-06
2.34212e-06
2.31053e-06
2.30277e-06
2.27266e-06
2.30949e-06
4.4188e-06
2.28071e-06
2.31309e-06
2.29415e-06
1.58047e-05
1.79704e-06
1.2371e-05
2.63273e-06
2.26205e-06
2.25376e-06
2.25307e-06
2.2216e-06
2.23392e-06
2.18601e-06
2.38578e-06
2.84656e-06
2.29718e-06
2.26405e-06
2.27651e-06
2.24012e-06
2.27266e-06
8.53367e-06
2.24432e-06
2.29269e-06
2.26804e-06
9.42367e-06
1.82461e-06
3.34253e-06
2.34754e-06
2.25226e-06
2.24262e-06
2.22687e-06
2.17998e-06
2.20795e-06
2.14975e-06
2.85761e-06
3.35503e-06
2.26914e-06
2.23215e-06
2.25007e-06
2.21446e-06
2.23501e-06
1.67866e-05
2.21146e-06
2.26644e-06
2.23933e-06
2.55883e-06
1.8457e-06
1.68668e-06
2.15705e-06
2.24068e-06
2.2272e-06
2.20105e-06
2.13336e-06
2.18106e-06
2.09405e-06
3.31452e-06
3.22566e-06
2.24307e-06
2.20871e-06
2.22449e-06
2.18887e-06
2.20451e-06
1.52254e-05
2.18767e-06
2.23774e-06
2.21361e-06
1.59331e-06
1.87443e-06
1.45422e-06
2.1004e-06
2.22378e-06
2.20618e-06
2.17415e-06
2.08533e-06
2.15576e-06
2.07027e-06
2.94615e-06
2.27066e-06
2.21867e-06
2.18187e-06
2.20111e-06
2.15736e-06
2.18185e-06
5.67622e-06
2.16022e-06
2.21208e-06
2.19395e-06
1.43366e-06
1.91366e-06
1.38865e-06
2.0471e-06
2.20246e-06
2.18337e-06
2.14702e-06
2.06277e-06
2.1202e-06
2.03839e-06
2.20845e-06
2.05938e-06
2.19534e-06
2.14955e-06
2.16984e-06
2.12441e-06
2.15262e-06
2.52112e-06
2.1228e-06
2.19183e-06
2.17519e-06
1.36678e-06
1.95945e-06
1.28065e-06
1.97166e-06
2.17901e-06
2.15684e-06
2.10849e-06
2.02929e-06
2.07169e-06
1.98964e-06
2.04449e-06
1.99558e-06
2.15993e-06
2.11512e-06
2.12552e-06
2.08254e-06
2.11187e-06
1.96563e-06
2.07311e-06
2.17218e-06
2.15241e-06
1.25171e-06
2.00805e-06
1.17684e-06
1.88554e-06
2.15117e-06
2.11648e-06
2.05702e-06
1.97718e-06
2.00724e-06
1.94394e-06
1.98798e-06
1.95807e-06
2.11102e-06
2.07018e-06
2.06447e-06
2.03308e-06
2.06017e-06
1.8394e-06
2.01528e-06
2.1478e-06
2.12214e-06
1.15444e-06
2.0639e-06
1.10455e-06
1.78994e-06
2.10884e-06
2.05658e-06
1.99012e-06
1.93177e-06
1.93379e-06
1.89444e-06
1.95127e-06
1.92322e-06
2.04776e-06
2.01808e-06
1.99204e-06
1.96808e-06
1.99828e-06
1.75415e-06
1.93676e-06
2.11554e-06
2.08372e-06
1.09139e-06
2.10433e-06
1.05309e-06
1.69349e-06
2.04643e-06
1.97979e-06
1.91421e-06
1.87944e-06
1.8552e-06
1.81034e-06
1.91545e-06
1.86234e-06
1.97297e-06
1.94889e-06
1.91314e-06
1.8948e-06
1.91527e-06
1.6679e-06
1.8444e-06
2.0751e-06
2.02918e-06
1.04174e-06
2.10095e-06
1.01407e-06
1.58806e-06
1.96868e-06
1.89738e-06
1.83509e-06
1.77715e-06
1.77291e-06
1.68661e-06
1.85218e-06
1.77093e-06
1.89238e-06
1.87292e-06
1.82665e-06
1.80811e-06
1.8202e-06
1.57965e-06
1.74613e-06
2.01774e-06
1.94455e-06
1.00577e-06
2.01584e-06
9.88237e-07
1.48932e-06
1.88483e-06
1.80804e-06
1.75046e-06
1.6622e-06
1.68133e-06
1.59318e-06
1.75776e-06
1.67351e-06
1.80273e-06
1.78459e-06
1.72774e-06
1.71473e-06
1.72363e-06
1.48821e-06
1.65123e-06
1.93039e-06
1.84452e-06
9.99225e-07
1.86151e-06
1.02048e-06
1.4759e-06
1.79169e-06
1.70581e-06
1.6573e-06
1.56804e-06
1.58101e-06
1.48057e-06
1.65867e-06
1.5802e-06
1.69956e-06
1.68823e-06
1.61398e-06
1.60855e-06
1.63107e-06
1.39178e-06
1.55881e-06
1.82628e-06
1.73329e-06
1.05543e-06
1.66629e-06
1.33381e-06
1.58761e-06
1.68485e-06
1.59019e-06
1.55255e-06
1.44755e-06
1.47017e-06
1.34979e-06
1.56073e-06
1.4793e-06
1.58434e-06
1.58007e-06
1.49736e-06
1.49377e-06
1.53716e-06
1.2924e-06
1.46327e-06
1.71269e-06
1.59997e-06
1.4671e-06
1.4816e-06
1.85677e-06
1.75212e-06
1.56424e-06
1.47643e-06
1.44244e-06
1.3194e-06
1.36071e-06
1.23377e-06
1.45806e-06
1.35951e-06
1.46896e-06
1.46539e-06
1.38541e-06
1.38064e-06
1.44001e-06
1.19093e-06
1.36656e-06
1.57712e-06
1.48192e-06
2.04715e-06
1.32483e-06
3.11889e-06
1.99087e-06
1.4452e-06
1.36784e-06
1.33164e-06
1.20007e-06
1.26552e-06
1.14673e-06
1.32797e-06
1.27789e-06
1.35458e-06
1.35599e-06
1.2873e-06
1.28047e-06
1.35012e-06
1.11547e-06
1.31948e-06
1.44967e-06
1.35506e-06
3.63723e-06
1.17556e-06
5.06759e-06
2.4406e-06
1.33681e-06
1.28981e-06
1.2373e-06
1.11592e-06
1.20216e-06
1.0879e-06
1.25791e-06
1.17834e-06
1.25692e-06
1.25569e-06
1.2231e-06
1.21144e-06
1.28826e-06
1.07244e-06
1.30372e-06
1.32784e-06
1.28546e-06
5.41175e-06
1.1811e-06
5.87013e-06
2.4775e-06
1.28153e-06
1.24915e-06
1.18014e-06
1.06261e-06
1.18922e-06
1.10312e-06
1.1683e-06
1.23347e-06
1.20165e-06
1.19845e-06
1.19426e-06
1.17368e-06
1.2613e-06
1.1109e-06
1.27272e-06
1.26725e-06
1.23801e-06
5.60405e-06
1.15802e-06
4.644e-06
2.0857e-06
1.28878e-06
1.28572e-06
1.19563e-06
1.13738e-06
1.21322e-06
1.04066e-06
1.3012e-06
1.06774e-06
1.2053e-06
1.18388e-06
1.22956e-06
1.21694e-06
1.32894e-06
1.02433e-06
1.14271e-06
1.2376e-06
1.34748e-06
4.23808e-06
1.18526e-06
2.17052e-06
1.21088e-06
1.34938e-06
1.56841e-06
1.24382e-06
1.12169e-06
1.39432e-06
1.28559e-06
1.08217e-06
1.73876e-06
1.25719e-06
1.24664e-06
1.3988e-06
1.3468e-06
1.09998e-06
1.35398e-06
1.47995e-06
1.37173e-06
1.67111e-06
1.83212e-06
1.32976e-06
1.69879e-06
2.24539e-06
1.73197e-06
2.07834e-06
1.49523e-06
1.56207e-06
1.56333e-06
1.68999e-06
2.21472e-06
2.35592e-06
1.48494e-06
1.3542e-06
1.6076e-06
1.72912e-06
1.44983e-06
1.59921e-06
1.6186e-06
1.7123e-06
2.40044e-06
1.77235e-06
1.69104e-06
1.93746e-06
2.02758e-06
2.17393e-06
3.50733e-06
1.81482e-06
1.50782e-06
2.02826e-06
2.39855e-06
2.04333e-06
5.71261e-06
1.85196e-06
1.78107e-06
2.00647e-06
2.05527e-06
1.79079e-06
2.41977e-06
2.03584e-06
2.80277e-06
2.92508e-06
2.02107e-06
2.0393e-06
1.90675e-06
2.98207e-06
3.27332e-06
6.485e-06
1.9846e-06
2.92558e-06
2.96514e-06
2.82048e-06
7.15813e-06
4.94013e-06
1.96772e-06
2.284e-06
2.97307e-06
2.68388e-06
2.23445e-06
2.59511e-06
2.66873e-06
3.38215e-06
5.28752e-06
1.96919e-06
2.63946e-06
2.46983e-06
5.4075e-06
7.21206e-06
7.6108e-06
2.98561e-06
2.60431e-06
4.04562e-06
3.44887e-06
4.43915e-06
7.49539e-06
2.99687e-06
2.8218e-06
4.03591e-06
3.85723e-06
2.85644e-06
3.5378e-06
3.81928e-06
5.33722e-06
8.13071e-06
2.72059e-06
3.81199e-06
3.59456e-06
8.44631e-06
9.2684e-06
9.41239e-06
4.23912e-06
3.89232e-06
4.73168e-06
4.87466e-06
8.70254e-06
1.1965e-05
4.21977e-06
4.08744e-06
4.71222e-06
5.02622e-06
3.95542e-06
4.94992e-06
5.00938e-06
9.349e-06
1.12308e-05
3.66883e-06
4.9166e-06
4.91515e-06
1.05059e-05
9.75092e-06
1.91184e-05
5.45698e-06
5.33572e-06
6.57134e-06
6.51131e-06
1.27752e-05
1.67011e-05
5.38281e-06
5.41534e-06
6.62228e-06
6.50406e-06
5.45421e-06
6.43516e-06
6.63782e-06
1.20401e-05
1.65841e-05
5.34468e-06
6.56401e-06
6.39296e-06
1.68088e-05
1.90238e-05
2.40582e-05
7.23838e-06
6.92764e-06
8.74003e-06
8.55166e-06
1.76266e-05
2.28e-05
7.3163e-06
7.11191e-06
8.65641e-06
8.49576e-06
7.13343e-06
8.60217e-06
8.60121e-06
1.7721e-05
2.21157e-05
6.90906e-06
8.4384e-06
8.52549e-06
2.3087e-05
2.54991e-05
2.66625e-05
8.91158e-06
9.05407e-06
1.07565e-05
1.11386e-05
2.40267e-05
2.99303e-05
8.73639e-06
8.88013e-06
1.08259e-05
1.1817e-05
9.20357e-06
1.10196e-05
1.08428e-05
2.37435e-05
2.96031e-05
9.08689e-06
1.1742e-05
1.07139e-05
2.93439e-05
2.88291e-05
3.91247e-05
1.17472e-05
1.18232e-05
1.43262e-05
1.35067e-05
3.15029e-05
3.64391e-05
1.19027e-05
1.25643e-05
1.42847e-05
1.26391e-05
1.16022e-05
1.33831e-05
1.41579e-05
3.0398e-05
3.69632e-05
1.14586e-05
1.26295e-05
1.4023e-05
3.70723e-05
4.00273e-05
4.28678e-05
1.48994e-05
1.46491e-05
1.69108e-05
1.80718e-05
3.85933e-05
4.41253e-05
1.48269e-05
1.40721e-05
1.69416e-05
1.92547e-05
1.49446e-05
1.80127e-05
1.71218e-05
3.67878e-05
4.74026e-05
1.46616e-05
1.90211e-05
1.71352e-05
4.36264e-05
4.43974e-05
5.11793e-05
1.79877e-05
1.80878e-05
2.11872e-05
1.98268e-05
4.50164e-05
4.97904e-05
1.7975e-05
1.93731e-05
2.11682e-05
1.83983e-05
1.81438e-05
1.96388e-05
2.10288e-05
4.94222e-05
4.67314e-05
1.79967e-05
1.84556e-05
2.08785e-05
5.08823e-05
5.24326e-05
5.7558e-05
2.20979e-05
2.21897e-05
2.5206e-05
2.82808e-05
5.18202e-05
6.03646e-05
2.20486e-05
2.04976e-05
2.50373e-05
2.68892e-05
2.21708e-05
2.79614e-05
2.52673e-05
4.73108e-05
6.12256e-05
2.18611e-05
2.67326e-05
2.5226e-05
5.75986e-05
5.88951e-05
6.30103e-05
2.64959e-05
2.84287e-05
2.96082e-05
2.63139e-05
6.08198e-05
5.83429e-05
2.64502e-05
2.73e-05
2.98612e-05
2.96509e-05
2.64206e-05
2.59585e-05
2.97531e-05
6.25352e-05
6.23453e-05
2.61605e-05
2.95166e-05
2.98226e-05
6.30627e-05
6.42377e-05
6.85842e-05
3.04034e-05
2.72128e-05
3.5162e-05
3.87571e-05
5.91482e-05
7.22773e-05
3.05478e-05
3.05834e-05
3.47537e-05
3.41877e-05
3.08643e-05
3.73778e-05
3.49593e-05
6.291e-05
6.83336e-05
3.07481e-05
3.4149e-05
3.49368e-05
6.85407e-05
6.99223e-05
7.37817e-05
3.68436e-05
4.03041e-05
4.00645e-05
4.15769e-05
7.43091e-05
7.45486e-05
3.64269e-05
3.62786e-05
4.00667e-05
4.0298e-05
3.65975e-05
4.09313e-05
3.95347e-05
6.98146e-05
7.40244e-05
3.64535e-05
4.00326e-05
3.943e-05
7.36526e-05
7.4566e-05
7.80256e-05
4.11319e-05
4.18377e-05
4.4943e-05
4.2422e-05
7.44881e-05
7.59384e-05
4.11964e-05
4.08295e-05
4.51129e-05
4.60481e-05
4.09831e-05
4.22971e-05
4.62732e-05
7.48561e-05
7.81377e-05
4.09567e-05
4.6077e-05
4.59913e-05
7.85129e-05
7.91965e-05
8.31112e-05
4.66537e-05
4.45353e-05
5.20863e-05
5.47571e-05
7.75094e-05
8.48088e-05
4.68401e-05
4.79898e-05
5.16895e-05
5.03479e-05
4.69586e-05
5.44061e-05
5.15001e-05
7.93615e-05
8.23514e-05
4.66315e-05
5.00043e-05
5.15123e-05
8.24932e-05
8.4063e-05
8.65394e-05
5.35282e-05
5.64743e-05
5.69577e-05
5.53517e-05
8.56244e-05
8.54321e-05
5.30297e-05
5.18524e-05
5.71054e-05
5.84782e-05
5.38635e-05
5.50822e-05
5.63253e-05
8.31938e-05
8.75664e-05
5.34144e-05
5.87353e-05
5.68841e-05
8.69474e-05
8.73184e-05
9.10833e-05
5.82113e-05
5.56153e-05
6.33481e-05
6.4589e-05
8.58167e-05
9.17339e-05
5.83818e-05
6.03267e-05
6.32154e-05
6.19759e-05
5.84366e-05
6.4325e-05
6.34545e-05
8.84898e-05
8.99033e-05
5.87387e-05
6.19415e-05
6.33394e-05
9.09516e-05
9.20931e-05
9.48208e-05
6.52181e-05
6.60838e-05
6.96504e-05
6.87738e-05
9.28137e-05
9.45484e-05
6.51326e-05
6.24918e-05
6.93924e-05
7.00001e-05
6.40599e-05
6.89958e-05
7.02106e-05
9.04455e-05
9.55598e-05
6.45037e-05
6.95521e-05
6.93282e-05
9.46085e-05
9.55546e-05
9.86644e-05
7.06233e-05
7.03915e-05
7.53587e-05
7.49038e-05
9.52038e-05
9.85482e-05
7.03642e-05
7.30257e-05
7.56991e-05
7.62152e-05
7.11635e-05
7.45289e-05
7.50321e-05
9.70335e-05
9.92214e-05
7.06426e-05
7.64889e-05
7.55508e-05
9.91032e-05
9.96718e-05
0.000102542
7.75333e-05
7.66629e-05
8.15029e-05
8.2118e-05
9.93739e-05
0.00010297
7.7719e-05
7.65714e-05
8.1045e-05
8.15107e-05
7.82791e-05
8.27056e-05
8.1725e-05
9.94891e-05
0.000101944
7.80162e-05
8.12426e-05
8.1865e-05
0.000102509
0.000103114
0.000106366
8.24265e-05
8.29965e-05
8.74514e-05
8.78471e-05
0.000103838
0.000106396
8.23695e-05
8.29913e-05
8.76567e-05
8.66936e-05
8.16597e-05
8.69326e-05
8.68553e-05
0.000103013
0.000106216
8.18236e-05
8.62251e-05
8.71759e-05
0.000105983
0.000107397
0.000110419
8.94635e-05
9.04801e-05
9.39252e-05
9.26949e-05
0.000107219
0.000109671
8.90929e-05
8.90397e-05
9.38182e-05
9.42279e-05
8.95114e-05
9.35013e-05
9.45008e-05
0.000107015
0.000110877
8.97589e-05
9.50078e-05
9.38866e-05
0.00011076
0.00011093
0.000113497
9.47516e-05
9.22813e-05
9.85495e-05
9.82633e-05
0.000110031
0.000113512
9.5195e-05
9.51886e-05
9.84161e-05
9.82517e-05
9.49547e-05
9.74284e-05
9.79664e-05
0.000111489
0.000112916
9.5091e-05
9.74829e-05
9.83199e-05
0.000113385
0.000114376
0.000118061
0.000100531
0.000101996
0.000105075
0.000107492
0.000115036
0.000118732
9.96647e-05
9.92059e-05
0.000105099
0.000105863
9.98799e-05
0.000107983
0.000107068
0.000113617
0.000118873
9.95205e-05
0.000106509
0.000106597
0.000118867
0.000118837
0.000120945
0.000106605
0.000106962
0.000109776
0.000105833
0.000118726
0.000119743
0.000107516
0.000108433
0.000110049
0.000109924
0.000108482
0.000105967
0.000107477
0.00011984
0.000120445
0.00010853
0.000108892
0.000108364
0.000119487
0.000121154
0.000124606
0.000110082
0.000109885
0.000114865
0.000119291
0.000121364
0.000126977
0.00010954
0.000109174
0.00011397
0.000114175
0.000107087
0.000118683
0.000116196
0.000120426
0.000124803
0.000107706
0.000115187
0.00011519
0.000126015
0.000126096
0.00012963
0.000117769
0.000119756
0.000122357
0.000117691
0.000126969
0.000125432
0.000117425
0.000117862
0.000123329
0.000123063
0.000119814
0.000118131
0.000123468
0.000126556
0.000129684
0.000119099
0.000122395
0.000124248
0.000130099
0.000129494
0.000128672
0.000121923
0.000117071
0.000120564
0.000123131
0.000125753
0.000131653
0.000123054
0.0001226
0.000120614
0.000121595
0.000122809
0.000122921
0.000119862
0.00012948
0.000129717
0.000123806
0.000122224
0.000120537
0.000128117
0.000130135
0.00013769
0.000124138
0.000126711
0.000133405
0.00013511
0.000133101
0.000138916
0.000122759
0.000125204
0.000132993
0.000131625
0.000121817
0.000134972
0.000133109
0.000131676
0.000136092
0.000121113
0.000131146
0.000133047
0.000137642
0.000137779
0.000135578
0.000133875
0.000135621
0.000132057
0.000133152
0.000139172
0.00013594
0.000133479
0.000131315
0.00013183
0.000131351
0.000133842
0.000133619
0.000132079
0.000135842
0.000136683
0.000134198
0.000132904
0.00013258
0.000135897
0.000136231
0.000142426
0.000132546
0.000131866
0.00013977
0.000137064
0.000135248
0.00014185
0.000133125
0.000135089
0.000139929
0.000140363
0.000132217
0.000136531
0.000140608
0.00013894
0.000142415
0.000132108
0.000139235
0.000140362
0.000143385
0.00014231
0.000142055
0.000139911
0.000141197
0.000140008
0.000143591
0.000143633
0.000144155
0.00013977
0.00014005
0.000139577
0.000142909
0.000141601
0.000143263
0.000140506
0.000142158
0.000144716
0.000141913
0.000143371
0.000141579
0.000142282
0.000144291
0.000149558
0.000143513
0.00014321
0.000150101
0.000147394
0.000143704
0.000148023
0.000143454
0.000145136
0.000150298
0.000146273
0.000140365
0.000147857
0.000148088
0.000146092
0.000146019
0.000141572
0.000147117
0.000147044
0.000147998
0.000149403
0.000146722
0.000150104
0.000148038
0.000148066
0.000150708
0.0001489
0.000149744
0.000150241
0.00014554
0.000148014
0.00014989
0.000149886
0.000150211
0.000150759
0.000145525
0.000150047
0.000148619
0.00014832
0.000150661
0.00015006
0.000147522
0.000153951
0.00014863
0.000152921
0.000156778
0.000156569
0.000150492
0.000153154
0.000148063
0.000153718
0.000156608
0.000158181
0.000151457
0.000156337
0.000156063
0.000152312
0.000154984
0.000151051
0.000158605
0.000155586
0.000152803
0.000153978
0.000154198
0.000157203
0.000156229
0.000156435
0.000153735
0.00015288
0.000150556
0.000157325
0.000157884
0.000157074
0.000155672
0.00015683
0.000153803
0.000155952
0.000154695
0.000151985
0.000157403
0.000156843
0.000158515
0.000153942
0.000155793
0.000162354
0.000158543
0.000155249
0.000166694
0.000168157
0.000152232
0.000164763
0.000159384
0.000155433
0.000166702
0.00016425
0.000155971
0.000168197
0.000165636
0.000152395
0.000159728
0.000157976
0.000161551
0.000161771
0.000160016
0.000162189
0.000156298
0.00016715
0.000169301
0.000164976
0.00016706
0.000165102
0.000157605
0.00016707
0.00016682
0.000164743
0.000169262
0.000167931
0.000168075
0.00016865
0.000161026
0.000163126
0.000165145
0.000170603
0.000169446
0.000161375
0.000155542
0.000160558
0.000163868
0.000165084
0.000163931
0.000161524
0.00015641
0.000157243
0.000163598
0.000169052
0.000163414
0.00016575
0.000167676
0.000162405
0.000165753
0.000162901
0.000158912
0.000169208
0.000167879
0.000167832
0.000160441
0.000163258
0.000170173
0.000168222
0.000164357
0.000178015
0.000179733
0.000160416
0.000173026
0.000168266
0.000164766
0.000178336
0.000173714
0.00016761
0.000178877
0.000174064
0.000158194
0.000166511
0.000168246
0.000170213
0.000171747
0.000166279
0.000170548
0.000171012
0.000179656
0.000181559
0.000181024
0.000182396
0.000173384
0.000169915
0.000179751
0.000177592
0.000180851
0.000182153
0.000175079
0.000181448
0.000179915
0.00016882
0.000173163
0.000173488
0.000182142
0.000180155
0.000170456
0.000170634
0.000165383
0.000180888
0.000180092
0.000176687
0.000173681
0.000168723
0.000161222
0.000180685
0.000182305
0.000177114
0.00017895
0.000180697
0.000173874
0.000180025
0.000172744
0.000166925
0.000181149
0.00017951
0.000180655
0.000168581
0.000164708
0.000169534
0.000175481
0.000172238
0.000176239
0.000179007
0.000160275
0.00017371
0.000176054
0.000177739
0.000176459
0.000176242
0.00017892
0.000179204
0.000176882
0.000166342
0.000168786
0.000179605
0.000176846
0.000177869
0.000169096
0.000171927
0.000178104
0.000181171
0.000185718
0.000190604
0.000194626
0.000176864
0.000183463
0.000180879
0.000179123
0.000189867
0.000188578
0.000179106
0.000194483
0.000188985
0.000170429
0.000176413
0.000179859
0.00018805
0.000188573
0.000176925
0.000178323
0.000178631
0.000191922
0.000195153
0.000192931
0.000190824
0.000182811
0.000174654
0.000191156
0.000189789
0.000192313
0.000192302
0.000190586
0.000190738
0.000192359
0.000176733
0.000179144
0.000189578
0.00019234
0.000191146
0.000178156
0.000178502
0.000176547
0.000192785
0.000189285
0.000190338
0.000187156
0.000173893
0.000174674
0.000192301
0.000193169
0.00019125
0.000194122
0.000192397
0.000187271
0.000191034
0.000179652
0.000180286
0.000191918
0.000194495
0.000192585
0.000177632
0.000176131
0.000179374
0.000189683
0.000187781
0.00019285
0.000195099
0.00017587
0.000181373
0.00019075
0.000193873
0.000190741
0.000190657
0.000190391
0.000195179
0.000191431
0.000179854
0.000175407
0.000192336
0.000190719
0.000191171
0.000178246
0.000180559
0.000182675
0.0001954
0.000196293
0.000198468
0.000196645
0.000181444
0.000180468
0.00019304
0.000189661
0.000198367
0.000194309
0.000194164
0.00019605
0.000198304
0.000174699
0.000180986
0.000191492
0.000193453
0.000197664
0.000182716
0.000182441
0.00018257
0.000198432
0.000196624
0.000197654
0.000200509
0.000180362
0.000185943
0.000198998
0.000198515
0.000199177
0.000204823
0.000198426
0.000201046
0.000197906
0.000183068
0.000189193
0.000198788
0.000205024
0.000199363
0.000182611
0.000183275
0.000188009
0.000198558
0.000202073
0.000204461
0.000203867
0.000186668
0.000186697
0.000200146
0.000205387
0.00020438
0.000204323
0.000199273
0.000204495
0.000205122
0.000189233
0.000186282
0.000200363
0.00020468
0.000204734
0.000188347
0.000188038
0.000186368
0.000205206
0.000203844
0.000205108
0.000202988
0.00018631
0.000184575
0.000204979
0.000203467
0.000204908
0.000201967
0.000205809
0.000203109
0.000205829
0.00018581
0.000183809
0.000205377
0.000202112
0.00020558
0.000187059
0.000185991
0.000185426
0.000204541
0.000202844
0.00020331
0.000203506
0.000184533
0.0001861
0.000204412
0.000201661
0.000203279
0.000202927
0.000205172
0.00020317
0.000203725
0.000183568
0.000185631
0.00020501
0.000202073
0.000203702
0.000185358
0.000185866
0.00019121
0.00020336
0.000204436
0.00020971
0.000210227
0.000186327
0.000191677
0.000203486
0.000204748
0.000209543
0.000210267
0.000203336
0.000209996
0.000208436
0.000186466
0.000191828
0.000203432
0.000210448
0.000208474
0.000190466
0.000191911
0.000193428
0.000211466
0.0002119
0.000213653
0.000213791
0.000192486
0.000193413
0.000211172
0.00021156
0.000213348
0.000213358
0.000210521
0.000213807
0.000212904
0.000192358
0.000193349
0.000210246
0.000213441
0.000212597
0.000192405
0.000193076
0.000190485
0.000213692
0.000213661
0.000211571
0.000211921
0.000192873
0.000191191
0.00021349
0.000213607
0.000211738
0.000212326
0.000212993
0.000212124
0.000213112
0.000193171
0.000191582
0.000212952
0.000212836
0.000213751
0.000193057
0.000190169
0.00019305
0.000211267
0.000211844
0.000212902
0.000212688
0.000191202
0.000192295
0.000211412
0.000211619
0.00021237
0.000210801
0.000213242
0.000212738
0.000213002
0.000191213
0.000190103
0.000213942
0.000211032
0.000212389
0.00019159
0.000193433
0.000193465
0.000213997
0.000212941
0.000214893
0.000212967
0.000192133
0.000191471
0.000213741
0.000211342
0.000215224
0.000214837
0.000212783
0.000212771
0.000212574
0.00019036
0.000194047
0.000211991
0.000214632
0.000212725
0.000192546
0.000193108
0.000195369
0.000214829
0.000213723
0.000216791
0.000219135
0.000192098
0.000198033
0.000215238
0.000215627
0.000216905
0.000219194
0.000214243
0.000219379
0.000218936
0.000194445
0.000197389
0.000215294
0.000219782
0.000219355
0.000197369
0.000196119
0.000198294
0.000218457
0.00022013
0.000220903
0.000221282
0.000198267
0.000197487
0.000218519
0.000220156
0.000221062
0.000221925
0.000219588
0.000221174
0.000219747
0.00019778
0.000198733
0.00021974
0.000221608
0.000219455
0.000195985
0.000198106
0.000196611
0.000221214
0.000220609
0.000220308
0.000218902
0.000196913
0.000195086
0.000221428
0.000221643
0.000220119
0.000218193
0.000219303
0.00021877
0.000219059
0.000197943
0.000194097
0.000219112
0.000218046
0.000219019
0.000196184
0.000196305
0.000195495
0.000219794
0.000218802
0.000219199
0.000219787
0.000194915
0.000197483
0.000219432
0.0002178
0.000218638
0.000219117
0.000219554
0.000220693
0.000222147
0.000193606
0.000197638
0.000219651
0.00022065
0.000222304
0.000199188
0.000195779
0.000200295
0.000219399
0.000221023
0.000223305
0.000223496
0.000197995
0.000199863
0.000219048
0.000221454
0.00022378
0.000225355
0.000222489
0.000223589
0.000222861
0.000198623
0.000202338
0.000222653
0.000225481
0.000223093
0.000198353
0.000200425
0.00019865
0.000224175
0.0002239
0.000224244
0.000223091
0.000199664
0.000197723
0.000224726
0.000226002
0.000224327
0.00022228
0.000222809
0.000222472
0.000222106
0.000201881
0.00019627
0.000222942
0.000221396
0.000221758
0.000197545
0.000197911
0.000196438
0.000222944
0.00022244
0.000221356
0.000222167
0.000197433
0.000197989
0.00022275
0.000220811
0.000220902
0.000219446
0.00022182
0.000222184
0.000221813
0.000195546
0.000195294
0.000221392
0.000219496
0.000221356
0.0001975
0.00019654
0.0001989
0.000221382
0.000222474
0.000223158
0.000223639
0.000198241
0.000198932
0.000220862
0.000219766
0.000223215
0.000224513
0.000222335
0.000224064
0.000223878
0.000196065
0.000200407
0.00022207
0.000225196
0.000224361
0.00019918
0.000199058
0.000201204
0.000223922
0.00022372
0.000226548
0.000225665
0.000198661
0.00020025
0.000224172
0.000225606
0.000227032
0.000228192
0.000223995
0.000225409
0.000226108
0.000200659
0.000202678
0.0002246
0.000227989
0.000226558
0.000200815
0.000201833
0.000205705
0.000227591
0.000226971
0.000230775
0.000230508
0.000201113
0.000205764
0.000228083
0.000229054
0.000231226
0.000231506
0.00022734
0.000230577
0.000230867
0.000203088
0.000204396
0.000227541
0.000231098
0.000230772
0.000205877
0.000204569
0.000194375
0.000230981
0.000230928
0.000221589
0.000221649
0.000204982
0.000194484
0.000231039
0.000229353
0.00022108
0.00021932
0.00023119
0.000221677
0.000221445
0.000202488
0.000192468
0.000230755
0.0002193
0.000220874
0.000194151
0.000193245
0.000192398
0.000219738
0.000219714
0.000217188
0.000217017
0.000193284
0.000192168
0.000219327
0.000217946
0.000216885
0.000216107
0.00021948
0.000216949
0.000216756
0.00019142
0.00019293
0.000219107
0.000216224
0.000216602
0.000192092
0.000194394
0.000210072
0.000219227
0.000219017
0.000235684
0.000235714
0.000194155
0.000210176
0.000219355
0.000220295
0.000236003
0.000237322
0.000218813
0.000235688
0.000235746
0.000195355
0.000211712
0.000219264
0.000237516
0.000236267
0.000210313
0.000211923
0.000220612
0.000239362
0.000239437
0.000248763
0.000248928
0.000212047
0.000220624
0.000239674
0.000240945
0.000249074
0.000250312
0.000239505
0.000248953
0.000249027
0.000213511
0.000221094
0.00023998
0.000250481
0.000249462
0.000220832
0.000216493
0.000188077
0.00024735
0.000247392
0.000217038
0.000216783
0.000216465
0.000187796
0.000247529
0.000247958
0.000216961
0.000216221
0.000247573
0.000216839
0.000216952
0.000216642
0.000187254
0.000247745
0.000216162
0.000216763
0.000187917
0.000186124
0.000209858
0.000209614
0.000185852
0.000209779
0.000209038
0.000238573
0.000237739
0.000238511
0.000209732
0.000185298
0.000209564
1.68767e-05
2.25952e-06
9.64318e-06
9.70219e-06
6.12391e-07
3.64274e-06
1.57525e-06
4.34399e-06
7.7959e-07
2.21553e-06
4.54228e-06
7.93909e-07
2.39797e-06
1.85531e-06
8.13928e-07
1.12443e-06
1.35285e-05
1.01721e-06
1.53064e-05
1.07989e-05
1.30888e-05
1.20187e-06
1.5471e-05
1.2512e-06
1.70814e-05
4.41342e-06
4.09436e-06
3.83667e-06
4.12518e-06
4.35683e-06
4.08142e-06
3.79967e-06
5.71256e-07
1.07444e-06
3.59423e-06
3.78692e-06
5.99783e-07
1.27949e-06
3.70297e-06
1.09422e-05
1.322e-05
7.96631e-07
1.88792e-06
4.23101e-07
1.79223e-06
7.95254e-07
1.87348e-06
5.42673e-07
1.52647e-06
1.78906e-06
2.54721e-06
1.73131e-06
2.09326e-06
1.32567e-06
1.8568e-05
1.26649e-06
2.10125e-05
1.70371e-05
1.92642e-05
1.50698e-06
2.03203e-05
1.46308e-06
2.17808e-05
4.37325e-06
4.09268e-06
3.75001e-06
4.17636e-06
4.49768e-06