/*--------------------------------*- C++ -*----------------------------------*\
| =========                 |                                                 |
| \\      /  F ield         | OpenFOAM: The Open Source CFD Toolbox           |
|  \\    /   O peration     | Version:  v2012                                 |
|   \\  /    A nd           | Website:  www.openfoam.com                      |
|    \\/     M anipulation  |                                                 |
\*---------------------------------------------------------------------------*/
FoamFile
{
    version     2.0;
    format      ascii;
    class       volScalarField;
    location    "425";
    object      p;
}
// * * * * * * * * * * * * * * * * * * * * * * * * * * * * * * * * * * * * * //

dimensions      [0 2 -2 0 0 0 0];


internalField   nonuniform List<scalar> 
171728
(
0.00352152
0.0035205
0.0035205
0.00352136
0.00348579
0.00348448
0.00348442
0.00348742
0.0034473
0.00344542
0.00344536
0.00344747
0.00340301
0.00340138
0.00340129
0.00340347
0.00335477
0.00335336
0.0033533
0.00335572
0.00330588
0.00330447
0.0033045
0.00330691
0.00325773
0.00325637
0.00325652
0.00325887
0.00321051
0.00320938
0.00320944
0.00321181
0.00316417
0.00316322
0.0031632
0.00316559
0.00311878
0.00311796
0.00311785
0.00312034
0.00307439
0.00307366
0.00307363
0.00307601
0.00303074
0.00303015
0.00303008
0.00303244
0.00298759
0.00298709
0.00298696
0.0029894
0.00294487
0.00294439
0.00294431
0.00294677
0.00290249
0.00290215
0.00290222
0.00290433
0.00286042
0.00286013
0.00286024
0.00286235
0.00281871
0.00281841
0.00281837
0.00282077
0.00277735
0.00277701
0.00277724
0.0027793
0.00273635
0.00273613
0.00273626
0.00273805
0.00269579
0.00269575
0.00269572
0.00269785
0.00265551
0.00265564
0.00265535
0.00265723
0.0026154
0.0026152
0.00261544
0.00261721
0.00257567
0.00257588
0.00257574
0.00257737
0.00253614
0.00253627
0.00253624
0.00253782
0.00249696
0.00249725
0.00249713
0.00249877
0.00245799
0.00245832
0.00245819
0.00246016
0.00241922
0.00241961
0.00241951
0.00242127
0.00238069
0.00238109
0.00238105
0.00238288
0.00234237
0.0023428
0.00234279
0.00234471
0.00230421
0.00230466
0.00230472
0.00230662
0.00226623
0.00226669
0.00226661
0.00226863
0.00222844
0.00222901
0.00222905
0.00223087
0.00219073
0.00219111
0.0021912
0.00219311
0.00215324
0.00215399
0.00215379
0.00215565
0.00211584
0.00211628
0.00211639
0.00211825
0.00207853
0.00207899
0.00207904
0.00208089
0.0020415
0.00204204
0.00204191
0.00204383
0.00200445
0.00200477
0.00200492
0.00200679
0.00196759
0.00196804
0.00196787
0.00196982
0.00193089
0.00193112
0.00193124
0.00193314
0.00189427
0.00189451
0.00189446
0.00189654
0.00185785
0.001858
0.001858
0.0018599
0.00182149
0.00182156
0.00182158
0.00182368
0.00178531
0.00178531
0.00178536
0.00178734
0.00174918
0.00174928
0.00174918
0.00175126
0.00171334
0.00171314
0.0017133
0.00171532
0.0016775
0.0016774
0.00167723
0.00167934
0.0016416
0.00164159
0.0016417
0.0016438
0.00160643
0.00160594
0.00160593
0.00160789
0.00157048
0.00157063
0.00157045
0.00157251
0.00153553
0.00153508
0.00153514
0.00153732
0.00150003
0.00149959
0.00149982
0.00150168
0.00146483
0.00146474
0.00146453
0.00146679
0.0014296
0.00142928
0.00142945
0.00143129
0.00139499
0.00139456
0.00139428
0.00139653
0.00135953
0.00135944
0.00135967
0.00136146
0.00132503
0.00132453
0.00132447
0.0013265
0.00129007
0.00128981
0.0012897
0.00129173
0.00125552
0.0012556
0.00125539
0.00125729
0.00122031
0.00121972
0.00122034
0.00122206
0.00118611
0.00118597
0.00118542
0.00118758
0.00115184
0.00115184
0.00115164
0.00115349
0.00111678
0.00111622
0.00111672
0.00111855
0.001082
0.00108182
0.00108173
0.00108376
0.00104787
0.0010482
0.00104773
0.00104971
0.00101378
0.00101326
0.00101338
0.00101528
0.000978885
0.000978164
0.000978717
0.000980401
0.000944498
0.000944664
0.000944549
0.000946446
0.000910046
0.000910227
0.00090967
0.000911978
0.000875566
0.000875132
0.000875537
0.000877231
0.000840933
0.000840835
0.000840934
0.000842637
0.000806747
0.000806508
0.000806277
0.000808578
0.000771917
0.000771884
0.000771841
0.000773692
0.000737226
0.000737237
0.000737271
0.00073912
0.000703201
0.000703107
0.000703139
0.000705124
0.00066849
0.000668222
0.000668204
0.000670122
0.000633277
0.00063327
0.000633324
0.000635316
0.000598906
0.000598899
0.000598766
0.000600756
0.000564158
0.000564043
0.00056423
0.000566079
0.000529432
0.00052945
0.000529289
0.000531302
0.000494635
0.000494364
0.000494411
0.000496275
0.000459418
0.000459428
0.000459351
0.000461466
0.000424611
0.000424735
0.000424811
0.000426715
0.000389828
0.000389527
0.000389554
0.000391423
0.000354069
0.000354053
0.00035386
0.000356073
0.000318828
0.000318951
0.000318987
0.000320957
0.000284042
0.000283872
0.000284077
0.000285908
0.000248907
0.000248776
0.000248715
0.000250695
0.000213439
0.000213479
0.000213336
0.000215452
0.000176882
0.000176804
0.000176872
0.000178864
0.000142033
0.000142015
0.000142103
0.000144009
0.000108402
0.000108268
0.000108213
0.000110105
7.19542e-05
7.17832e-05
7.17281e-05
7.37496e-05
3.27947e-05
3.228e-05
3.22813e-05
3.44388e-05
4.19099e-06
5.26537e-06
5.28273e-06
3.68098e-06
0.00352605
0.00352354
0.00352352
0.00352602
0.00352359
0.00352354
0.00352993
0.0035299
0.00352996
0.00353002
0.00352369
0.00352368
0.00352598
0.00352355
0.00352387
0.0035262
0.00352122
0.00349197
0.00352044
0.00352044
0.00349387
0.00349388
0.00352122
0.00349202
0.00352048
0.00352044
0.00349389
0.00349391
0.00352056
0.00349386
0.00349395
0.00352121
0.00349202
0.00352069
0.00349388
0.00349428
0.00349219
0.00348721
0.00345318
0.00348434
0.00348436
0.00345546
0.00345548
0.00348728
0.0034532
0.00348435
0.00348434
0.00345546
0.00345549
0.00348438
0.00345557
0.00345543
0.00348725
0.00345317
0.00348471
0.00345543
0.00345526
0.00345295
0.00344766
0.00340974
0.00344536
0.00344537
0.00341278
0.0034128
0.00344768
0.00340976
0.00344537
0.00344532
0.00341279
0.00341278
0.00344533
0.00341288
0.00341265
0.00344764
0.00340969
0.00344564
0.00341268
0.00341226
0.00340955
0.00340357
0.00336212
0.00340134
0.00340134
0.00336544
0.00336544
0.00340357
0.00336211
0.00340134
0.00340129
0.00336545
0.00336543
0.00340117
0.00336553
0.00336545
0.00340351
0.00336209
0.00340117
0.00336538
0.00336514
0.00336222
0.00335565
0.00331336
0.00335333
0.00335331
0.00331668
0.00331667
0.00335563
0.00331332
0.00335334
0.00335334
0.00331669
0.00331669
0.00335331
0.00331663
0.00331669
0.00335563
0.00331336
0.00335323
0.00331667
0.00331657
0.00331335
0.00330692
0.00326518
0.00330454
0.00330451
0.00326842
0.00326844
0.00330686
0.00326518
0.00330454
0.00330454
0.00326844
0.00326843
0.00330453
0.00326834
0.00326841
0.00330691
0.00326518
0.00330442
0.00326842
0.00326842
0.00326518
0.00325888
0.00321797
0.00325652
0.00325651
0.00322111
0.00322112
0.00325888
0.00321799
0.00325651
0.00325652
0.00322113
0.00322114
0.00325649
0.00322105
0.00322111
0.00325888
0.00321797
0.00325652
0.00322111
0.00322115
0.00321797
0.0032118
0.00317164
0.00320945
0.00320945
0.00317468
0.00317471
0.00321181
0.00317164
0.00320944
0.00320944
0.0031747
0.0031747
0.00320945
0.00317468
0.00317468
0.0032118
0.00317163
0.00320946
0.0031747
0.0031747
0.00317164
0.00316559
0.00312623
0.00316321
0.00316322
0.00312916
0.00312917
0.0031656
0.00312623
0.00316321
0.00316321
0.00312916
0.00312917
0.00316323
0.00312916
0.00312919
0.00316557
0.00312622
0.00316322
0.00312917
0.00312919
0.00312625
0.00312032
0.0030818
0.00311793
0.00311794
0.00308463
0.00308466
0.00312033
0.00308179
0.00311794
0.00311793
0.00308466
0.00308465
0.00311796
0.00308465
0.00308468
0.00312029
0.00308179
0.00311796
0.00308457
0.00308469
0.00308181
0.00307604
0.00303817
0.00307369
0.00307366
0.00304095
0.00304098
0.00307601
0.00303816
0.00307367
0.00307363
0.00304096
0.00304096
0.00307368
0.00304096
0.00304103
0.00307601
0.0030381
0.00307371
0.00304085
0.00304102
0.00303813
0.00303249
0.00299502
0.00303014
0.00303014
0.00299781
0.00299781
0.00303249
0.00299501
0.00303013
0.00303006
0.00299778
0.00299781
0.00303012
0.00299781
0.00299788
0.00303242
0.00299496
0.00303016
0.00299771
0.00299791
0.00299504
0.00298939
0.0029523
0.00298703
0.0029871
0.00295504
0.00295515
0.0029894
0.00295226
0.00298706
0.00298701
0.00295505
0.00295518
0.00298705
0.00295513
0.00295505
0.00298935
0.00295227
0.00298706
0.00295514
0.00295503
0.00295231
0.00294678
0.00291
0.00294449
0.0029444
0.00291272
0.0029128
0.0029467
0.00290999
0.00294448
0.00294443
0.00291272
0.00291285
0.00294448
0.00291279
0.00291257
0.00294668
0.00291008
0.00294448
0.00291292
0.00291256
0.00290982
0.00290451
0.00286783
0.00290217
0.00290213
0.00287055
0.00287049
0.00290446
0.0028678
0.00290218
0.00290223
0.00287055
0.00287064
0.00290215
0.00287048
0.00287047
0.00290455
0.00286786
0.00290216
0.00287068
0.0028705
0.00286775
0.00286241
0.00282607
0.0028601
0.00286011
0.00282884
0.00282875
0.00286238
0.00282603
0.00286013
0.00286018
0.00282888
0.00282885
0.0028602
0.00282875
0.00282861
0.00286246
0.0028261
0.0028603
0.00282874
0.00282853
0.00282611
0.00282069
0.00278462
0.0028184
0.00281839
0.00278752
0.00278732
0.00282062
0.00278468
0.00281842
0.00281851
0.00278754
0.00278747
0.00281851
0.0027874
0.00278727
0.00282075
0.00278472
0.00281852
0.00278749
0.00278724
0.00278466
0.00277928
0.00274353
0.0027771
0.00277697
0.00274655
0.00274652
0.00277931
0.00274351
0.00277707
0.0027772
0.00274655
0.00274646
0.00277692
0.00274652
0.00274686
0.00277941
0.00274365
0.00277689
0.00274644
0.00274679
0.00274326
0.0027383
0.00270284
0.0027362
0.00273605
0.00270586
0.00270599
0.00273825
0.00270285
0.00273624
0.00273633
0.00270587
0.0027058
0.00273614
0.00270593
0.00270574
0.00273839
0.00270289
0.00273609
0.00270577
0.00270589
0.00270314
0.00269771
0.00266233
0.0026957
0.00269565
0.0026656
0.0026658
0.00269769
0.00266225
0.00269572
0.00269572
0.0026656
0.00266551
0.00269592
0.00266578
0.00266553
0.00269772
0.00266247
0.002696
0.00266551
0.0026656
0.00266238
0.00265728
0.00262213
0.00265551
0.00265571
0.00262546
0.00262516
0.0026573
0.00262242
0.0026555
0.00265535
0.00262544
0.00262558
0.00265544
0.00262517
0.00262546
0.00265726
0.00262227
0.0026554
0.00262558
0.00262553
0.00262222
0.00261715
0.00258242
0.00261556
0.00261524
0.00258552
0.00258592
0.00261697
0.0025825
0.00261553
0.00261541
0.00258548
0.00258567
0.00261558
0.00258593
0.00258557
0.0026172
0.00258247
0.00261559
0.00258566
0.00258558
0.0025823
0.00257717
0.00254308
0.00257563
0.00257588
0.00254624
0.00254581
0.00257752
0.00254265
0.00257563
0.00257571
0.00254625
0.00254609
0.0025758
0.00254585
0.00254606
0.00257749
0.00254286
0.00257583
0.00254607
0.00254611
0.00254285
0.0025379
0.00250408
0.00253623
0.00253627
0.00250709
0.00250701
0.00253762
0.00250399
0.00253623
0.00253621
0.00250708
0.00250701
0.00253624
0.00250703
0.00250699
0.00253782
0.00250394
0.00253628
0.00250699
0.002507
0.00250385
0.00249904
0.00246491
0.00249721
0.00249729
0.00246803
0.00246797
0.00249899
0.00246492
0.00249722
0.0024971
0.002468
0.00246797
0.0024971
0.00246798
0.00246809
0.00249889
0.0024649
0.00249712
0.00246794
0.00246809
0.0024651
0.00246029
0.00242598
0.0024584
0.00245833
0.00242915
0.00242919
0.00245999
0.00242622
0.00245842
0.0024582
0.00242914
0.00242921
0.00245833
0.0024292
0.00242922
0.00245997
0.00242626
0.00245833
0.00242922
0.00242921
0.0024261
0.00242109
0.0023878
0.00241954
0.0024196
0.00239063
0.00239065
0.00242132
0.00238782
0.00241955
0.00241951
0.00239062
0.00239071
0.0024196
0.00239064
0.00239065
0.00242132
0.00238796
0.00241961
0.00239071
0.00239065
0.00238779
0.00238274
0.00234978
0.002381
0.00238109
0.00235241
0.00235232
0.0023829
0.00234962
0.00238101
0.00238106
0.00235242
0.00235237
0.0023811
0.00235232
0.00235233
0.00238304
0.00234958
0.0023811
0.00235238
0.00235232
0.00234962
0.00234491
0.00231142
0.00234283
0.0023428
0.00231417
0.00231419
0.00234468
0.00231159
0.00234283
0.00234278
0.00231416
0.00231425
0.00234282
0.00231417
0.00231418
0.00234477
0.00231122
0.00234281
0.00231424
0.00231418
0.00231153
0.00230648
0.00227356
0.00230467
0.00230467
0.0022762
0.00227616
0.00230665
0.00227348
0.00230466
0.00230473
0.0022762
0.0022761
0.00230467
0.00227617
0.00227619
0.00230638
0.00227368
0.00230468
0.0022761
0.00227619
0.00227352
0.00226868
0.00223574
0.00226675
0.00226669
0.00223836
0.00223849
0.00226861
0.00223584
0.00226674
0.0022666
0.00223836
0.0022385
0.00226674
0.0022385
0.00223838
0.00226866
0.00223573
0.00226674
0.0022385
0.00223837
0.00223576
0.00223085
0.00219803
0.00222894
0.002229
0.00220067
0.00220053
0.0022309
0.00219795
0.00222895
0.00222906
0.0022007
0.00220066
0.00222896
0.00220053
0.00220067
0.00223091
0.00219812
0.00222897
0.00220065
0.00220068
0.00219803
0.0021931
0.00216054
0.00219124
0.00219111
0.00216314
0.00216333
0.00219306
0.0021607
0.00219125
0.00219121
0.00216312
0.00216312
0.00219125
0.00216331
0.00216314
0.00219313
0.00216046
0.00219126
0.00216313
0.00216313
0.00216053
0.00215565
0.00212314
0.0021538
0.002154
0.00212576
0.0021257
0.00215581
0.00212314
0.00215377
0.00215379
0.00212575
0.00212574
0.00215379
0.00212573
0.00212575
0.00215562
0.00212314
0.00215377
0.00212574
0.00212573
0.00212314
0.00211825
0.00208577
0.00211638
0.00211626
0.00208829
0.00208823
0.00211821
0.00208567
0.00211639
0.00211639
0.00208832
0.00208835
0.00211637
0.00208824
0.00208834
0.00211824
0.00208582
0.00211637
0.00208835
0.00208836
0.00208578
0.0020809
0.00204869
0.00207901
0.00207898
0.00205123
0.00205133
0.00208085
0.00204879
0.00207903
0.00207903
0.00205121
0.0020512
0.00207903
0.00205131
0.00205118
0.00208092
0.00204865
0.00207905
0.00205119
0.00205118
0.00204869
0.00204381
0.00201164
0.00204195
0.00204206
0.00201412
0.00201405
0.00204388
0.00201155
0.00204194
0.00204192
0.00201412
0.00201415
0.00204192
0.00201405
0.00201414
0.0020438
0.00201169
0.00204192
0.00201416
0.00201412
0.00201164
0.00200677
0.00197474
0.00200485
0.00200477
0.00197714
0.00197719
0.00200672
0.00197483
0.00200486
0.0020049
0.00197715
0.00197712
0.00200486
0.00197719
0.00197716
0.0020068
0.00197467
0.00200487
0.00197711
0.00197715
0.00197471
0.00196989
0.00193795
0.00196795
0.00196803
0.00194034
0.00194032
0.00196996
0.00193793
0.00196795
0.00196787
0.00194034
0.00194037
0.00196793
0.00194033
0.00194035
0.00196982
0.00193805
0.00196792
0.00194037
0.00194034
0.00193799
0.00193309
0.00190136
0.00193114
0.00193112
0.00190365
0.00190365
0.0019331
0.00190132
0.00193114
0.00193125
0.00190367
0.00190366
0.00193118
0.00190365
0.00190364
0.00193321
0.00190125
0.00193116
0.00190367
0.00190367
0.00190135
0.00189652
0.00186479
0.00189452
0.00189452
0.0018671
0.00186711
0.00189649
0.00186483
0.00189453
0.00189445
0.00186708
0.00186707
0.00189453
0.00186713
0.0018671
0.00189641
0.00186484
0.00189455
0.00186707
0.00186708
0.00186475
0.00185996
0.00182845
0.00185796
0.00185798
0.00183067
0.00183066
0.00185998
0.00182844
0.00185795
0.001858
0.00183069
0.00183067
0.00185792
0.00183064
0.00183066
0.00186001
0.00182844
0.00185792
0.00183067
0.00183066
0.00182849
0.00182362
0.00179218
0.00182161
0.00182159
0.00179439
0.00179435
0.00182363
0.00179211
0.00182161
0.00182159
0.00179439
0.00179441
0.00182163
0.00179438
0.0017944
0.00182364
0.00179217
0.00182163
0.00179443
0.00179439
0.00179215
0.00178737
0.00175605
0.00178533
0.00178528
0.00175818
0.00175828
0.00178731
0.00175617
0.00178535
0.00178532
0.00175818
0.0017582
0.00178531
0.00175824
0.00175819
0.00178734
0.00175604
0.0017853
0.00175816
0.00175821
0.00175605
0.00175125
0.00172009
0.00174918
0.00174931
0.00172225
0.00172217
0.00175137
0.00171996
0.00174916
0.00174919
0.00172224
0.00172224
0.00174918
0.00172222
0.00172228
0.00175126
0.00172014
0.00174917
0.00172227
0.00172226
0.00172011
0.00171531
0.00168416
0.00171325
0.00171307
0.0016863
0.00168631
0.00171517
0.00168424
0.00171327
0.0017133
0.00168633
0.00168628
0.00171328
0.00168628
0.0016862
0.00171536
0.0016841
0.00171329
0.00168625
0.00168623
0.0016841
0.00167937
0.00164848
0.00167732
0.00167744
0.00165053
0.00165061
0.00167948
0.00164844
0.0016773
0.00167724
0.00165047
0.00165051
0.00167722
0.00165062
0.00165063
0.00167932
0.00164851
0.00167723
0.00165054
0.00165057
0.00164857
0.00164373
0.00161278
0.00164166
0.00164152
0.0016149
0.00161469
0.00164361
0.00161267
0.00164165
0.00164168
0.001615
0.00161493
0.00164177
0.00161471
0.00161479
0.00164376
0.00161277
0.00164172
0.00161492
0.00161493
0.00161267
0.00160801
0.00157725
0.00160594
0.00160595
0.00157928
0.00157955
0.00160797
0.00157753
0.001606
0.00160596
0.00157918
0.00157926
0.00160573
0.0015795
0.00157928
0.00160801
0.00157724
0.00160589
0.00157927
0.00157914
0.00157723
0.00157251
0.00154202
0.00157047
0.00157065
0.00154411
0.00154394
0.00157275
0.00154182
0.00157038
0.00157043
0.00154416
0.00154406
0.00157049
0.00154397
0.00154413
0.00157249
0.00154194
0.00157038
0.00154405
0.00154422
0.0015421
0.00153725
0.0015064
0.00153523
0.00153504
0.00150841
0.00150841
0.00153708
0.00150639
0.00153531
0.00153515
0.00150842
0.00150853
0.00153528
0.00150842
0.00150845
0.00153718
0.00150654
0.00153538
0.00150858
0.00150838
0.0015064
0.00150167
0.00147151
0.00149961
0.00149958
0.0014735
0.00147341
0.00150163
0.00147146
0.00149966
0.00149981
0.00147354
0.00147355
0.00149963
0.00147338
0.00147347
0.00150183
0.00147136
0.0014996
0.00147344
0.00147353
0.0014715
0.00146678
0.00143603
0.00146476
0.00146478
0.00143809
0.00143831
0.00146682
0.00143606
0.00146469
0.00146457
0.00143803
0.00143804
0.00146477
0.00143832
0.00143805
0.00146658
0.00143612
0.00146476
0.00143816
0.00143801
0.001436
0.00143134
0.00140128
0.00142936
0.00142926
0.00140337
0.00140311
0.00143125
0.00140116
0.00142939
0.00142939
0.00140344
0.00140325
0.00142921
0.0014031
0.00140324
0.00143143
0.00140107
0.00142925
0.00140313
0.00140319
0.00140121
0.0013965
0.00136595
0.00139451
0.00139451
0.00136798
0.00136825
0.00139652
0.00136616
0.00139451
0.00139439
0.00136795
0.00136815
0.00139462
0.00136825
0.00136824
0.00139632
0.00136623
0.00139452
0.00136826
0.00136826
0.00136617
0.00136128
0.00133153
0.00135932
0.00135947
0.00133353
0.0013333
0.00136144
0.00133123
0.00135931
0.00135953
0.00133358
0.00133348
0.0013594
0.00133326
0.00133323
0.00136158
0.00133128
0.00135948
0.00133344
0.00133326
0.00133121
0.0013268
0.00129633
0.00132482
0.00132452
0.00129838
0.00129838
0.00132651
0.00129633
0.00132487
0.00132457
0.00129836
0.00129827
0.00132456
0.00129838
0.00129848
0.00132649
0.00129625
0.00132459
0.00129827
0.0012985
0.00129641
0.00129167
0.00126205
0.00128977
0.00128984
0.00126412
0.0012643
0.00129171
0.0012623
0.00128974
0.0012897
0.00126406
0.00126411
0.0012898
0.0012643
0.00126403
0.00129161
0.00126207
0.00128977
0.001264
0.00126384
0.00126193
0.0012573
0.00122653
0.00125534
0.00125554
0.00122862
0.00122852
0.00125755
0.00122643
0.00125529
0.00125544
0.00122867
0.00122893
0.00125541
0.00122857
0.00122883
0.0012574
0.0012269
0.00125526
0.00122918
0.00122916
0.00122686
0.00122177
0.00119252
0.00121986
0.0012197
0.00119446
0.00119434
0.00122163
0.00119235
0.00121993
0.00122013
0.0011945
0.00119417
0.00121999
0.00119426
0.00119423
0.00122213
0.00119207
0.0012203
0.00119402
0.00119414
0.00119215
0.00118798
0.00115828
0.00118609
0.00118606
0.00116045
0.00116067
0.00118787
0.0011586
0.00118608
0.00118565
0.00116037
0.00116023
0.00118585
0.00116064
0.00116033
0.00118745
0.00115818
0.00118563
0.00116005
0.00116012
0.0011582
0.0011535
0.00112298
0.00115159
0.00115183
0.00112506
0.00112492
0.00115377
0.00112286
0.0011515
0.0011517
0.00112509
0.00112536
0.00115154
0.001125
0.00112522
0.00115357
0.00112331
0.00115148
0.00112563
0.00112543
0.00112327
0.00111824
0.00108835
0.00111635
0.00111614
0.00109039
0.00109025
0.00111809
0.00108827
0.00111641
0.0011165
0.00109046
0.0010904
0.00111657
0.00109032
0.0010906
0.00111853
0.0010883
0.00111677
0.00109037
0.00109057
0.00108846
0.00108371
0.00105453
0.00108183
0.00108179
0.00105649
0.00105665
0.00108368
0.00105478
0.00108187
0.0010818
0.00105635
0.00105629
0.00108192
0.00105657
0.00105626
0.00108362
0.00105434
0.00108186
0.00105621
0.00105616
0.00105428
0.00104995
0.00102002
0.00104803
0.00104829
0.00102218
0.00102226
0.00105026
0.00101999
0.0010479
0.0010478
0.00102218
0.0010221
0.0010478
0.00102224
0.00102214
0.00104974
0.00101999
0.00104769
0.00102207
0.00102209
0.00102005
0.00101522
0.000984968
0.0010133
0.00101321
0.000987022
0.000986704
0.00101513
0.000984609
0.00101337
0.00101337
0.000987132
0.000987207
0.00101337
0.000986741
0.000987104
0.00101524
0.000985184
0.00101338
0.000987264
0.000987216
0.000985069
0.000980297
0.000951029
0.000978452
0.000978143
0.000952988
0.000953063
0.000979957
0.000951158
0.000978561
0.00097867
0.000953024
0.000953154
0.00097854
0.000953066
0.000953031
0.00098053
0.000951122
0.000978665
0.000953157
0.000953126
0.000951071
0.000946418
0.00091677
0.000944485
0.000944666
0.00091881
0.000918997
0.000946585
0.000916992
0.000944471
0.000944549
0.00091861
0.000918405
0.000944501
0.000918971
0.000918761
0.00094646
0.000916379
0.000944525
0.00091838
0.000918534
0.000916685
0.000912067
0.000881915
0.000910182
0.000910267
0.000883903
0.000883831
0.000912225
0.000881765
0.000909978
0.000909707
0.000884081
0.000884004
0.000910126
0.000883836
0.000883947
0.000911657
0.000882101
0.000909884
0.000883989
0.000884089
0.00088198
0.000877156
0.000847251
0.000875109
0.000875103
0.000849225
0.000849291
0.000877019
0.000847346
0.000875367
0.000875529
0.000849316
0.000849675
0.000875154
0.000849347
0.000849236
0.000877496
0.000847516
0.000875428
0.000849739
0.000849361
0.000847278
0.000842609
0.000813271
0.000840758
0.000840788
0.000815348
0.000815164
0.000842722
0.000813155
0.000840725
0.000840895
0.000815158
0.000814903
0.000840773
0.000815132
0.000815365
0.000842728
0.000812897
0.00084075
0.000814884
0.000815166
0.000813275
0.000808585
0.00077848
0.00080674
0.000806551
0.000780484
0.000780544
0.000808483
0.000778504
0.000806596
0.000806302
0.00078053
0.00078049
0.000806737
0.000780523
0.000780459
0.00080824
0.000778533
0.000806604
0.000780477
0.000780515
0.000778456
0.000773707
0.000743807
0.000771713
0.000771864
0.000745732
0.000745853
0.00077376
0.000743888
0.00077178
0.000771842
0.00074577
0.000745883
0.000771695
0.000745862
0.00074571
0.000773799
0.000743909
0.000771772
0.000745874
0.000745737
0.000743786
0.000739148
0.00070976
0.000737186
0.000737236
0.000711709
0.000711599
0.000739208
0.000709667
0.000737215
0.000737289
0.000711711
0.000711677
0.000737141
0.000711607
0.000711669
0.00073924
0.00070971
0.000737162
0.000711706
0.000711679
0.000709762
0.000705084
0.00067494
0.000703162
0.00070308
0.000677041
0.000677047
0.000705028
0.000674965
0.00070314
0.000703089
0.000677023
0.000676999
0.000703185
0.000677063
0.000677074
0.000705035
0.000674916
0.000703169
0.000676991
0.000677034
0.000674931
0.00067014
0.000639863
0.000668224
0.000668222
0.000641848
0.000641869
0.000670145
0.000639876
0.000668231
0.000668234
0.000641886
0.000641973
0.00066823
0.000641872
0.000641973
0.000670127
0.000639979
0.000668222
0.000641992
0.000642035
0.000640015
0.00063516
0.00060566
0.000633201
0.00063326
0.000607577
0.000607581
0.000635199
0.000605652
0.00063321
0.000633279
0.000607528
0.000607434
0.000633349
0.000607557
0.000607469
0.000635254
0.000605484
0.000633385
0.000607392
0.000607389
0.000605487
0.000600985
0.000570764
0.000599003
0.000598944
0.000572793
0.000572746
0.000600934
0.000570718
0.000598962
0.000598854
0.000572845
0.000572903
0.000598785
0.000572743
0.000572733
0.000600792
0.000570924
0.0005987
0.000572887
0.000572793
0.000570795
0.000565958
0.000535948
0.00056399
0.000564012
0.000537951
0.000538069
0.000565961
0.000536118
0.000564031
0.000564152
0.000537923
0.000537948
0.000564089
0.000538108
0.000538146
0.000566164
0.000535946
0.000564177
0.000538004
0.000538133
0.000536085
0.000531261
0.000501264
0.000529356
0.000529448
0.000503316
0.000503192
0.000531394
0.00050113
0.000529317
0.000529299
0.000503325
0.000503246
0.000529409
0.000503152
0.000503102
0.000531214
0.000501186
0.000529339
0.000503162
0.000503065
0.000501048
0.000496462
0.000466076
0.000494501
0.000494394
0.000468087
0.000468089
0.000496335
0.00046611
0.000494521
0.000494465
0.000468086
0.000468015
0.000494335
0.0004681
0.000468162
0.000496402
0.000466032
0.000494326
0.00046806
0.000468196
0.000466205
0.0004613
0.000431325
0.000459344
0.0004594
0.000433274
0.00043338
0.000461378
0.000431456
0.000459324
0.000459281
0.000433268
0.000433396
0.000459488
0.000433428
0.000433463
0.000461287
0.000431472
0.00045951
0.000433445
0.000433458
0.000431487
0.000426609
0.000396568
0.000424615
0.0004247
0.000398557
0.000398446
0.000426716
0.000396365
0.000424629
0.000424783
0.000398606
0.000398576
0.000424717
0.000398379
0.0003983
0.000426763
0.000396459
0.000424714
0.000398471
0.0003983
0.000396248
0.000391747
0.000360831
0.000389767
0.000389599
0.000362924
0.000362917
0.000391538
0.000360857
0.000389792
0.000389648
0.000362881
0.00036276
0.000389465
0.00036291
0.000362944
0.000391595
0.00036067
0.000389462
0.000362756
0.000362912
0.0003609
0.000355952
0.000325562
0.000353983
0.000354026
0.000327506
0.000327627
0.000356014
0.000325693
0.000353931
0.000353817
0.000327494
0.000327579
0.000354097
0.000327682
0.000327684
0.000355811
0.00032567
0.000354063
0.000327646
0.000327682
0.000325711
0.000320845
0.000290832
0.000318844
0.000318915
0.000292788
0.000292708
0.000320931
0.000290685
0.000318853
0.000318943
0.000292837
0.000292922
0.000318951
0.000292684
0.000292719
0.000320947
0.000290911
0.000318966
0.000292902
0.000292774
0.000290727
0.00028604
0.000255523
0.000284023
0.000283913
0.00025758
0.000257528
0.000285878
0.000255495
0.000284072
0.000284126
0.00025758
0.000257545
0.000283908
0.000257506
0.000257508
0.000286089
0.000255478
0.000283954
0.000257508
0.000257494
0.000255472
0.000250714
0.000220297
0.000248772
0.000248776
0.000222369
0.000222451
0.000250723
0.000220401
0.000248758
0.000248729
0.000222332
0.000222287
0.000248759
0.000222476
0.000222439
0.000250674
0.000220241
0.000248731
0.000222303
0.000222391
0.000220359
0.000215396
0.000183855
0.000213401
0.000213462
0.000185977
0.000185993
0.000215489
0.000183853
0.000213364
0.000213316
0.00018595
0.00018589
0.000213448
0.000185988
0.000185968
0.00021534
0.000183849
0.000213413
0.000185904
0.000185965
0.000183845
0.000178884
0.000148667
0.000176823
0.000176813
0.000150542
0.000150517
0.000178852
0.000148629
0.000176837
0.000176868
0.000150573
0.000150625
0.0001768
0.000150514
0.000150537
0.000178937
0.000148728
0.000176827
0.000150623
0.000150569
0.000148663
0.000144007
0.000114822
0.000142032
0.000142014
0.000116813
0.00011682
0.000143974
0.000114843
0.000142056
0.000142103
0.000116814
0.000116844
0.000142037
0.000116826
0.000116841
0.00014407
0.000114805
0.00014206
0.000116846
0.000116838
0.000114845
0.000110085
7.89599e-05
0.000108247
0.000108262
8.11943e-05
8.12028e-05
0.000110113
7.89715e-05
0.000108232
0.000108215
8.11803e-05
8.11426e-05
0.000108271
8.12021e-05
8.11888e-05
0.000110046
7.89142e-05
0.000108249
8.11398e-05
8.11707e-05
7.89489e-05
7.37625e-05
3.9843e-05
7.17786e-05
7.17855e-05
4.21157e-05
4.21066e-05
7.37718e-05
3.9831e-05
7.17696e-05
7.17325e-05
4.21098e-05
4.2067e-05
7.17669e-05
4.21011e-05
4.20935e-05
7.37161e-05
3.98168e-05
7.17543e-05
4.20603e-05
4.20864e-05
3.98189e-05
3.44569e-05
6.66652e-06
3.22954e-05
3.22863e-05
9.38222e-06
9.38066e-06
3.44477e-05
6.66282e-06
3.22919e-05
3.22856e-05
9.39117e-06
9.40118e-06
3.2274e-05
9.37968e-06
9.37709e-06
3.44589e-05
6.68206e-06
3.22774e-05
9.40318e-06
9.38864e-06
6.66494e-06
3.68179e-06
5.26344e-06
5.26225e-06
3.6791e-06
5.27673e-06
5.27729e-06
4.18707e-06
4.20971e-06
4.19292e-06
5.26027e-06
3.69307e-06
5.276e-06
0.00353308
0.00353561
0.00353435
0.00353451
0.00356211
0.00353562
0.00356522
0.0035359
0.00356209
0.00353561
0.0035359
0.00356518
0.0035468
0.00356849
0.00356875
0.00350568
0.0035192
0.00352308
0.00349791
0.00349598
0.00350129
0.00350549
0.00351831
0.0035232
0.00349782
0.00352151
0.00352154
0.00352159
0.00349489
0.0034949
0.00349492
0.00349491
0.00350527
0.00351703
0.0035221
0.0035126
0.00352424
0.00350228
0.003513
0.00349596
0.00350128
0.00350532
0.0035222
0.0035169
0.0035128
0.00352436
0.00351313
0.00350244
0.00352321
0.00352338
0.00351011
0.00350237
0.00350251
0.00347787
0.0034921
0.00349206
0.00347583
0.00348942
0.00347485
0.00347779
0.00349208
0.00349211
0.00347586
0.00348577
0.00348583
0.00348571
0.00345738
0.00345735
0.00345733
0.00345722
0.00347561
0.00349081
0.00348434
0.00347504
0.00348909
0.00347605
0.00347485
0.00348932
0.00347478
0.00347568
0.00348439
0.00349066
0.00347488
0.00348916
0.00347493
0.00347612
0.00349245
0.00349262
0.00347327
0.0034766
0.00347662
0.0034352
0.00344991
0.00345099
0.00343384
0.00344878
0.0034329
0.00343513
0.00344985
0.00345092
0.00343379
0.00344721
0.00344723
0.00344714
0.00341459
0.00341453
0.00341453
0.00341447
0.00343382
0.0034496
0.00344529
0.00343487
0.00344845
0.00343426
0.00343476
0.00344877
0.00343287
0.00343371
0.00344536
0.0034494
0.00343475
0.00344844
0.00343477
0.0034343
0.00345022
0.00345023
0.00343181
0.00343387
0.00343315
0.0033887
0.00340511
0.00340669
0.0033873
0.0034044
0.00338674
0.00338867
0.00340509
0.00340659
0.00338726
0.00340294
0.00340296
0.00340295
0.00336698
0.00336693
0.00336696
0.00336701
0.00338783
0.00340504
0.00340124
0.0033896
0.00340433
0.00338797
0.00338946
0.00340435
0.00338668
0.00338778
0.0034012
0.00340491
0.00338942
0.00340422
0.00338943
0.00338792
0.0034051
0.00340401
0.00338634
0.00338737
0.00338784
0.00333967
0.00335682
0.00335819
0.00333845
0.00335636
0.00333814
0.00333955
0.00335681
0.00335819
0.00333844
0.00335471
0.00335475
0.00335478
0.00331806
0.00331804
0.00331806
0.00331805
0.00333924
0.00335686
0.00335327
0.00334119
0.0033564
0.00333921
0.00334104
0.00335635
0.00333813
0.00333925
0.0033533
0.0033568
0.00334107
0.00335641
0.00334108
0.00333912
0.00335681
0.00335679
0.00333772
0.00333857
0.00333854
0.00329048
0.00330785
0.00330893
0.00328967
0.00330754
0.00328942
0.00329053
0.00330783
0.00330878
0.00328968
0.00330586
0.00330587
0.00330588
0.00326968
0.0032697
0.00326968
0.00326969
0.00329046
0.00330774
0.00330449
0.00329244
0.00330755
0.00329019