/*--------------------------------*- C++ -*----------------------------------*\
| =========                 |                                                 |
| \\      /  F ield         | OpenFOAM: The Open Source CFD Toolbox           |
|  \\    /   O peration     | Version:  v2012                                 |
|   \\  /    A nd           | Website:  www.openfoam.com                      |
|    \\/     M anipulation  |                                                 |
\*---------------------------------------------------------------------------*/
FoamFile
{
    version     2.0;
    format      ascii;
    class       volScalarField;
    location    "0.21";
    object      p;
}
// * * * * * * * * * * * * * * * * * * * * * * * * * * * * * * * * * * * * * //

dimensions      [0 2 -2 0 0 0 0];


internalField   nonuniform List<scalar> 
247104
(
1.89576e-06
1.89595e-06
1.89604e-06
1.89593e-06
1.89577e-06
1.89596e-06
1.89603e-06
1.89588e-06
1.89595e-06
1.89601e-06
1.89606e-06
1.89587e-06
1.89575e-06
1.8959e-06
1.89607e-06
1.89598e-06
1.89604e-06
1.89606e-06
1.89575e-06
1.89537e-06
1.89522e-06
1.89541e-06
1.8958e-06
1.89607e-06
1.89603e-06
1.89593e-06
1.89587e-06
1.89537e-06
1.89488e-06
1.8947e-06
1.89493e-06
1.89544e-06
1.89591e-06
1.89591e-06
1.89576e-06
1.89576e-06
1.89574e-06
1.89521e-06
1.8947e-06
1.89451e-06
1.89475e-06
1.89529e-06
1.89579e-06
1.89572e-06
1.89596e-06
1.8959e-06
1.89541e-06
1.89493e-06
1.89475e-06
1.89497e-06
1.89548e-06
1.89593e-06
1.89594e-06
1.89603e-06
1.89607e-06
1.8958e-06
1.89544e-06
1.89529e-06
1.89548e-06
1.89585e-06
1.89608e-06
1.89602e-06
1.89588e-06
1.89598e-06
1.89607e-06
1.89591e-06
1.89579e-06
1.89593e-06
1.89608e-06
1.89594e-06
1.89603e-06
1.89591e-06
1.89573e-06
1.89594e-06
1.89602e-06
1.86198e-06
1.85992e-06
1.85974e-06
1.85859e-06
1.85848e-06
1.8584e-06
1.85841e-06
1.85981e-06
1.86018e-06
1.85975e-06
1.85768e-06
1.85476e-06
1.85467e-06
1.85467e-06
1.85476e-06
1.85809e-06
1.85829e-06
1.85859e-06
1.85476e-06
1.85469e-06
1.85473e-06
1.85473e-06
1.85469e-06
1.85476e-06
1.85852e-06
1.85945e-06
1.86198e-06
1.85848e-06
1.85467e-06
1.85473e-06
1.85484e-06
1.85484e-06
1.85473e-06
1.85467e-06
1.8584e-06
1.86005e-06
1.85992e-06
1.8584e-06
1.85467e-06
1.85473e-06
1.85484e-06
1.85484e-06
1.85473e-06
1.85467e-06
1.85855e-06
1.85834e-06
1.85841e-06
1.85476e-06
1.85469e-06
1.85473e-06
1.85473e-06
1.85469e-06
1.85476e-06
1.85838e-06
1.85927e-06
1.85981e-06
1.85809e-06
1.85476e-06
1.85467e-06
1.85467e-06
1.85476e-06
1.85821e-06
1.8585e-06
1.85989e-06
1.86018e-06
1.85829e-06
1.85852e-06
1.8584e-06
1.85855e-06
1.85838e-06
1.8585e-06
1.86072e-06
1.85945e-06
1.86005e-06
1.85834e-06
1.85926e-06
1.85989e-06
1.84189e-06
1.84169e-06
1.84154e-06
1.83935e-06
1.83929e-06
1.83928e-06
1.83934e-06
1.8416e-06
1.8418e-06
1.84155e-06
1.83865e-06
1.83565e-06
1.83548e-06
1.83548e-06
1.83564e-06
1.83935e-06
1.83981e-06
1.83935e-06
1.83563e-06
1.83524e-06
1.83524e-06
1.83523e-06
1.83523e-06
1.83564e-06
1.84016e-06
1.84213e-06
1.84189e-06
1.83929e-06
1.83548e-06
1.83524e-06
1.83525e-06
1.83525e-06
1.83524e-06
1.83548e-06
1.84019e-06
1.84181e-06
1.84169e-06
1.83928e-06
1.83548e-06
1.83524e-06
1.83525e-06
1.83525e-06
1.83524e-06
1.83548e-06
1.84011e-06
1.83983e-06
1.83934e-06
1.83564e-06
1.83524e-06
1.83524e-06
1.83524e-06
1.83524e-06
1.83565e-06
1.84022e-06
1.84217e-06
1.8416e-06
1.83936e-06
1.83564e-06
1.83548e-06
1.83548e-06
1.83563e-06
1.83984e-06
1.84002e-06
1.84207e-06
1.84178e-06
1.83982e-06
1.84016e-06
1.84019e-06
1.84011e-06
1.84022e-06
1.84002e-06
1.84214e-06
1.84214e-06
1.84181e-06
1.83984e-06
1.84218e-06
1.84209e-06
1.82245e-06
1.82227e-06
1.82216e-06
1.81988e-06
1.81983e-06
1.81973e-06
1.81992e-06
1.82219e-06
1.8224e-06
1.82216e-06
1.81902e-06
1.8161e-06
1.81605e-06
1.81604e-06
1.8161e-06
1.8198e-06
1.8205e-06
1.81988e-06
1.8161e-06
1.81594e-06
1.81593e-06
1.81593e-06
1.81593e-06
1.8161e-06
1.82076e-06
1.82271e-06
1.82245e-06
1.81983e-06
1.81605e-06
1.81593e-06
1.81593e-06
1.81593e-06
1.81593e-06
1.81604e-06
1.82086e-06
1.82235e-06
1.82227e-06
1.81973e-06
1.81605e-06
1.81593e-06
1.81593e-06
1.81593e-06
1.81593e-06
1.81605e-06
1.82082e-06
1.82051e-06
1.81992e-06
1.8161e-06
1.81593e-06
1.81593e-06
1.81593e-06
1.81593e-06
1.8161e-06
1.82084e-06
1.82271e-06
1.82219e-06
1.8198e-06
1.8161e-06
1.81604e-06
1.81604e-06
1.8161e-06
1.82063e-06
1.82068e-06
1.8227e-06
1.8224e-06
1.8205e-06
1.82076e-06
1.82086e-06
1.82082e-06
1.82084e-06
1.82068e-06
1.82268e-06
1.82271e-06
1.82235e-06
1.82051e-06
1.82271e-06
1.82269e-06
1.80299e-06
1.80282e-06
1.80264e-06
1.80036e-06
1.8003e-06
1.80015e-06
1.8004e-06
1.8027e-06
1.80291e-06
1.80264e-06
1.79946e-06
1.79655e-06
1.79653e-06
1.79653e-06
1.79655e-06
1.80022e-06
1.80102e-06
1.80036e-06
1.79655e-06
1.79651e-06
1.7965e-06
1.7965e-06
1.7965e-06
1.79655e-06
1.8013e-06
1.80324e-06
1.803e-06
1.8003e-06
1.79654e-06
1.7965e-06
1.7965e-06
1.7965e-06
1.7965e-06
1.79653e-06
1.80146e-06
1.80295e-06
1.80282e-06
1.80015e-06
1.79653e-06
1.7965e-06
1.7965e-06
1.7965e-06
1.7965e-06
1.79654e-06
1.80144e-06
1.80111e-06
1.8004e-06
1.79655e-06
1.79651e-06
1.7965e-06
1.7965e-06
1.79651e-06
1.79655e-06
1.80141e-06
1.8033e-06
1.80269e-06
1.80022e-06
1.79655e-06
1.79654e-06
1.79654e-06
1.79655e-06
1.80125e-06
1.80124e-06
1.80322e-06
1.80289e-06
1.80102e-06
1.80131e-06
1.80146e-06
1.80144e-06
1.80141e-06
1.80124e-06
1.80314e-06
1.80325e-06
1.80295e-06
1.80111e-06
1.80329e-06
1.80322e-06
1.7835e-06
1.78333e-06
1.78314e-06
1.78085e-06
1.78079e-06
1.78063e-06
1.78088e-06
1.78319e-06
1.78339e-06
1.78314e-06
1.77995e-06
1.77703e-06
1.77703e-06
1.77703e-06
1.77703e-06
1.78068e-06
1.7815e-06
1.78085e-06
1.77703e-06
1.77702e-06
1.77702e-06
1.77702e-06
1.77702e-06
1.77703e-06
1.78181e-06
1.78375e-06
1.7835e-06
1.78079e-06
1.77703e-06
1.77702e-06
1.77702e-06
1.77702e-06
1.77702e-06
1.77703e-06
1.78198e-06
1.78347e-06
1.78333e-06
1.78063e-06
1.77703e-06
1.77702e-06
1.77702e-06
1.77702e-06
1.77702e-06
1.77703e-06
1.78197e-06
1.78163e-06
1.78088e-06
1.77703e-06
1.77702e-06
1.77702e-06
1.77702e-06
1.77702e-06
1.77703e-06
1.78191e-06
1.78381e-06
1.78319e-06
1.78068e-06
1.77703e-06
1.77703e-06
1.77703e-06
1.77703e-06
1.78179e-06
1.78175e-06
1.78372e-06
1.78339e-06
1.7815e-06
1.7818e-06
1.78198e-06
1.78197e-06
1.78192e-06
1.78175e-06
1.78367e-06
1.78375e-06
1.78347e-06
1.78163e-06
1.78381e-06
1.78372e-06
1.764e-06
1.76383e-06
1.76364e-06
1.76134e-06
1.76128e-06
1.76112e-06
1.76137e-06
1.76369e-06
1.7639e-06
1.76364e-06
1.76044e-06
1.75752e-06
1.75752e-06
1.75752e-06
1.75752e-06
1.76116e-06
1.76199e-06
1.76134e-06
1.75752e-06
1.75752e-06
1.75752e-06
1.75752e-06
1.75752e-06
1.75752e-06
1.7623e-06
1.76424e-06
1.764e-06
1.76128e-06
1.75752e-06
1.75752e-06
1.75752e-06
1.75752e-06
1.75752e-06
1.75752e-06
1.76248e-06
1.76397e-06
1.76383e-06
1.76112e-06
1.75752e-06
1.75752e-06
1.75752e-06
1.75752e-06
1.75752e-06
1.75752e-06
1.76247e-06
1.76213e-06
1.76137e-06
1.75752e-06
1.75752e-06
1.75752e-06
1.75752e-06
1.75752e-06
1.75752e-06
1.76241e-06
1.76431e-06
1.76368e-06
1.76116e-06
1.75752e-06
1.75752e-06
1.75752e-06
1.75752e-06
1.76229e-06
1.76225e-06
1.76421e-06
1.7639e-06
1.762e-06
1.7623e-06
1.76248e-06
1.76247e-06
1.76241e-06
1.76225e-06
1.76416e-06
1.76424e-06
1.76397e-06
1.76213e-06
1.76431e-06
1.76421e-06
1.74449e-06
1.74433e-06
1.74413e-06
1.74184e-06
1.74177e-06
1.74161e-06
1.74187e-06
1.74418e-06
1.74439e-06
1.74413e-06
1.74093e-06
1.73802e-06
1.73802e-06
1.73802e-06
1.73802e-06
1.74165e-06
1.74248e-06
1.74183e-06
1.73802e-06
1.73802e-06
1.73802e-06
1.73802e-06
1.73801e-06
1.73802e-06
1.74279e-06
1.74474e-06
1.7445e-06
1.74177e-06
1.73802e-06
1.73802e-06
1.73802e-06
1.73802e-06
1.73801e-06
1.73802e-06
1.74298e-06
1.74447e-06
1.74433e-06
1.74161e-06
1.73802e-06
1.73802e-06
1.73802e-06
1.73802e-06
1.73801e-06
1.73802e-06
1.74297e-06
1.74263e-06
1.74187e-06
1.73802e-06
1.73801e-06
1.73802e-06
1.73801e-06
1.73801e-06
1.73802e-06
1.7429e-06
1.74481e-06
1.74418e-06
1.74165e-06
1.73802e-06
1.73802e-06
1.73802e-06
1.73802e-06
1.74279e-06
1.74274e-06
1.74471e-06
1.74439e-06
1.74249e-06
1.74279e-06
1.74298e-06
1.74297e-06
1.7429e-06
1.74274e-06
1.74465e-06
1.74474e-06
1.74447e-06
1.74263e-06
1.74481e-06
1.74471e-06
1.72499e-06
1.72482e-06
1.72462e-06
1.72233e-06
1.72226e-06
1.7221e-06
1.72236e-06
1.72467e-06
1.72488e-06
1.72462e-06
1.72143e-06
1.71851e-06
1.71851e-06
1.71851e-06
1.71851e-06
1.72214e-06
1.72297e-06
1.72233e-06
1.71851e-06
1.71851e-06
1.71851e-06
1.71851e-06
1.71851e-06
1.71851e-06
1.72329e-06
1.72523e-06
1.72499e-06
1.72226e-06
1.71851e-06
1.71851e-06
1.71851e-06
1.71851e-06
1.71851e-06
1.71851e-06
1.72347e-06
1.72496e-06
1.72482e-06
1.7221e-06
1.71851e-06
1.71851e-06
1.71851e-06
1.71851e-06
1.71851e-06
1.71851e-06
1.72347e-06
1.72312e-06
1.72236e-06
1.71851e-06
1.71851e-06
1.71851e-06
1.71851e-06
1.71851e-06
1.71851e-06
1.7234e-06
1.72531e-06
1.72467e-06
1.72215e-06
1.71851e-06
1.71851e-06
1.71851e-06
1.71851e-06
1.72329e-06
1.72324e-06
1.7252e-06
1.72489e-06
1.72298e-06
1.72329e-06
1.72347e-06
1.72347e-06
1.7234e-06
1.72324e-06
1.72515e-06
1.72523e-06
1.72496e-06
1.72312e-06
1.7253e-06
1.7252e-06
1.70548e-06
1.70532e-06
1.70512e-06
1.70282e-06
1.70276e-06
1.7026e-06
1.70285e-06
1.70517e-06
1.70538e-06
1.70512e-06
1.70192e-06
1.699e-06
1.699e-06
1.699e-06
1.699e-06
1.70264e-06
1.70347e-06
1.70282e-06
1.699e-06
1.699e-06
1.699e-06
1.699e-06
1.699e-06
1.699e-06
1.70378e-06
1.70573e-06
1.70548e-06
1.70276e-06
1.699e-06
1.699e-06
1.699e-06
1.699e-06
1.699e-06
1.699e-06
1.70397e-06
1.70545e-06
1.70531e-06
1.7026e-06
1.699e-06
1.699e-06
1.699e-06
1.699e-06
1.699e-06
1.699e-06
1.70396e-06
1.70362e-06
1.70285e-06
1.699e-06
1.699e-06
1.699e-06
1.699e-06
1.699e-06
1.699e-06
1.70389e-06
1.7058e-06
1.70517e-06
1.70264e-06
1.699e-06
1.699e-06
1.699e-06
1.699e-06
1.70378e-06
1.70373e-06
1.7057e-06
1.70538e-06
1.70348e-06
1.70378e-06
1.70397e-06
1.70396e-06
1.70389e-06
1.70373e-06
1.70564e-06
1.70573e-06
1.70545e-06
1.70362e-06
1.7058e-06
1.7057e-06
1.68597e-06
1.68581e-06
1.68561e-06
1.68332e-06
1.68325e-06
1.68309e-06
1.68335e-06
1.68566e-06
1.68587e-06
1.68561e-06
1.68241e-06
1.6795e-06
1.6795e-06
1.6795e-06
1.6795e-06
1.68313e-06
1.68396e-06
1.68332e-06
1.6795e-06
1.6795e-06
1.6795e-06
1.6795e-06
1.6795e-06
1.6795e-06
1.68427e-06
1.68622e-06
1.68598e-06
1.68325e-06
1.6795e-06
1.6795e-06
1.6795e-06
1.6795e-06
1.6795e-06
1.6795e-06
1.68446e-06
1.68595e-06
1.68581e-06
1.68309e-06
1.6795e-06
1.6795e-06
1.6795e-06
1.6795e-06
1.6795e-06
1.6795e-06
1.68445e-06
1.68411e-06
1.68335e-06
1.6795e-06
1.6795e-06
1.6795e-06
1.6795e-06
1.6795e-06
1.6795e-06
1.68439e-06
1.68629e-06
1.68566e-06
1.68314e-06
1.6795e-06
1.6795e-06
1.6795e-06
1.6795e-06
1.68428e-06
1.68423e-06
1.68619e-06
1.68587e-06
1.68397e-06
1.68428e-06
1.68446e-06
1.68445e-06
1.68438e-06
1.68423e-06
1.68614e-06
1.68622e-06
1.68595e-06
1.68411e-06
1.68629e-06
1.68619e-06
1.66647e-06
1.6663e-06
1.6661e-06
1.66381e-06
1.66374e-06
1.66358e-06
1.66384e-06
1.66616e-06
1.66636e-06
1.6661e-06
1.66291e-06
1.65999e-06
1.65999e-06
1.65999e-06
1.65999e-06
1.66363e-06
1.66446e-06
1.66381e-06
1.65999e-06
1.65999e-06
1.65999e-06
1.65999e-06
1.65999e-06
1.65999e-06
1.66477e-06
1.66672e-06
1.66647e-06
1.66374e-06
1.65999e-06
1.65999e-06
1.65999e-06
1.65999e-06
1.65999e-06
1.65999e-06
1.66495e-06
1.66644e-06
1.6663e-06
1.66359e-06
1.65999e-06
1.65999e-06
1.65999e-06
1.65999e-06
1.65999e-06
1.65999e-06
1.66495e-06
1.6646e-06
1.66384e-06
1.65999e-06
1.65999e-06
1.65999e-06
1.65999e-06
1.65999e-06
1.65999e-06
1.66488e-06
1.66679e-06
1.66615e-06
1.66363e-06
1.65999e-06
1.65999e-06
1.65999e-06
1.65999e-06
1.66477e-06
1.66472e-06
1.66668e-06
1.66637e-06
1.66446e-06
1.66477e-06
1.66495e-06
1.66495e-06
1.66488e-06
1.66472e-06
1.66663e-06
1.66672e-06
1.66644e-06
1.66461e-06
1.66679e-06
1.66669e-06
1.64696e-06
1.6468e-06
1.6466e-06
1.6443e-06
1.64424e-06
1.64408e-06
1.64434e-06
1.64665e-06
1.64686e-06
1.6466e-06
1.6434e-06
1.64048e-06
1.64048e-06
1.64048e-06
1.64048e-06
1.64412e-06
1.64495e-06
1.6443e-06
1.64048e-06
1.64048e-06
1.64048e-06
1.64048e-06
1.64048e-06
1.64048e-06
1.64526e-06
1.64721e-06
1.64697e-06
1.64424e-06
1.64048e-06
1.64048e-06
1.64048e-06
1.64048e-06
1.64048e-06
1.64048e-06
1.64545e-06
1.64694e-06
1.6468e-06
1.64408e-06
1.64048e-06
1.64048e-06
1.64048e-06
1.64048e-06
1.64048e-06
1.64048e-06
1.64544e-06
1.6451e-06
1.64433e-06
1.64048e-06
1.64048e-06
1.64048e-06
1.64048e-06
1.64048e-06
1.64048e-06
1.64537e-06
1.64728e-06
1.64665e-06
1.64412e-06
1.64048e-06
1.64048e-06
1.64048e-06
1.64048e-06
1.64526e-06
1.64522e-06
1.64718e-06
1.64686e-06
1.64496e-06
1.64526e-06
1.64545e-06
1.64544e-06
1.64537e-06
1.64521e-06
1.64712e-06
1.64721e-06
1.64694e-06
1.6451e-06
1.64728e-06
1.64718e-06
1.62745e-06
1.62729e-06
1.62709e-06
1.6248e-06
1.62473e-06
1.62457e-06
1.62483e-06
1.62714e-06
1.62735e-06
1.62709e-06
1.6239e-06
1.62098e-06
1.62098e-06
1.62098e-06
1.62098e-06
1.62461e-06
1.62544e-06
1.6248e-06
1.62098e-06
1.62098e-06
1.62098e-06
1.62098e-06
1.62098e-06
1.62098e-06
1.62575e-06
1.6277e-06
1.62746e-06
1.62473e-06
1.62098e-06
1.62098e-06
1.62098e-06
1.62098e-06
1.62098e-06
1.62098e-06
1.62594e-06
1.62743e-06
1.62729e-06
1.62457e-06
1.62098e-06
1.62098e-06
1.62098e-06
1.62098e-06
1.62098e-06
1.62098e-06
1.62594e-06
1.62559e-06
1.62483e-06
1.62098e-06
1.62098e-06
1.62098e-06
1.62098e-06
1.62098e-06
1.62098e-06
1.62587e-06
1.62777e-06
1.62714e-06
1.62462e-06
1.62098e-06
1.62098e-06
1.62098e-06
1.62098e-06
1.62576e-06
1.62571e-06
1.62767e-06
1.62735e-06
1.62545e-06
1.62576e-06
1.62594e-06
1.62593e-06
1.62586e-06
1.62571e-06
1.62762e-06
1.6277e-06
1.62743e-06
1.62559e-06
1.62777e-06
1.62767e-06
1.60795e-06
1.60778e-06
1.60758e-06
1.60529e-06
1.60523e-06
1.60506e-06
1.60532e-06
1.60764e-06
1.60784e-06
1.60758e-06
1.60439e-06
1.60147e-06
1.60147e-06
1.60147e-06
1.60147e-06
1.60511e-06
1.60594e-06
1.60529e-06
1.60147e-06
1.60147e-06
1.60147e-06
1.60147e-06
1.60147e-06
1.60147e-06
1.60625e-06
1.6082e-06
1.60795e-06
1.60522e-06
1.60147e-06
1.60147e-06
1.60147e-06
1.60147e-06
1.60147e-06
1.60147e-06
1.60643e-06
1.60792e-06
1.60778e-06
1.60507e-06
1.60147e-06
1.60147e-06
1.60147e-06
1.60147e-06
1.60147e-06
1.60147e-06
1.60643e-06
1.60608e-06
1.60532e-06
1.60147e-06
1.60147e-06
1.60147e-06
1.60147e-06
1.60147e-06
1.60147e-06
1.60636e-06
1.60827e-06
1.60763e-06
1.60511e-06
1.60147e-06
1.60147e-06
1.60147e-06
1.60147e-06
1.60625e-06
1.6062e-06
1.60816e-06
1.60785e-06
1.60594e-06
1.60625e-06
1.60643e-06
1.60643e-06
1.60636e-06
1.6062e-06
1.60811e-06
1.6082e-06
1.60792e-06
1.60609e-06
1.60827e-06
1.60817e-06
1.58844e-06
1.58828e-06
1.58808e-06
1.58578e-06
1.58572e-06
1.58556e-06
1.58581e-06
1.58813e-06
1.58834e-06
1.58808e-06
1.58488e-06
1.58197e-06
1.58196e-06
1.58196e-06
1.58196e-06
1.5856e-06
1.58643e-06
1.58578e-06
1.58196e-06
1.58196e-06
1.58196e-06
1.58196e-06
1.58196e-06
1.58196e-06
1.58674e-06
1.58869e-06
1.58845e-06
1.58572e-06
1.58196e-06
1.58196e-06
1.58196e-06
1.58196e-06
1.58196e-06
1.58196e-06
1.58693e-06
1.58842e-06
1.58828e-06
1.58556e-06
1.58196e-06
1.58196e-06
1.58196e-06
1.58196e-06
1.58196e-06
1.58196e-06
1.58692e-06
1.58658e-06
1.58581e-06
1.58196e-06
1.58196e-06
1.58196e-06
1.58196e-06
1.58196e-06
1.58196e-06
1.58685e-06
1.58876e-06
1.58813e-06
1.5856e-06
1.58196e-06
1.58196e-06
1.58196e-06
1.58196e-06
1.58674e-06
1.5867e-06
1.58866e-06
1.58834e-06
1.58644e-06
1.58674e-06
1.58693e-06
1.58692e-06
1.58685e-06
1.58669e-06
1.5886e-06
1.58869e-06
1.58842e-06
1.58658e-06
1.58876e-06
1.58866e-06
1.56893e-06
1.56877e-06
1.56857e-06
1.56628e-06
1.56621e-06
1.56605e-06
1.56631e-06
1.56862e-06
1.56883e-06
1.56857e-06
1.56538e-06
1.56246e-06
1.56246e-06
1.56246e-06
1.56246e-06
1.56609e-06
1.56692e-06
1.56628e-06
1.56246e-06
1.56246e-06
1.56246e-06
1.56246e-06
1.56246e-06
1.56246e-06
1.56723e-06
1.56918e-06
1.56894e-06
1.56621e-06
1.56246e-06
1.56246e-06
1.56246e-06
1.56246e-06
1.56246e-06
1.56246e-06
1.56742e-06
1.56891e-06
1.56877e-06
1.56605e-06
1.56246e-06
1.56246e-06
1.56246e-06
1.56246e-06
1.56246e-06
1.56246e-06
1.56742e-06
1.56707e-06
1.56631e-06
1.56246e-06
1.56246e-06
1.56246e-06
1.56246e-06
1.56246e-06
1.56246e-06
1.56735e-06
1.56925e-06
1.56862e-06
1.5661e-06
1.56246e-06
1.56246e-06
1.56246e-06
1.56246e-06
1.56724e-06
1.56719e-06
1.56915e-06
1.56884e-06
1.56693e-06
1.56724e-06
1.56742e-06
1.56742e-06
1.56735e-06
1.56719e-06
1.5691e-06
1.56918e-06
1.56891e-06
1.56707e-06
1.56925e-06
1.56915e-06
1.54943e-06
1.54927e-06
1.54906e-06
1.54677e-06
1.54671e-06
1.54655e-06
1.5468e-06
1.54912e-06
1.54933e-06
1.54907e-06
1.54587e-06
1.54295e-06
1.54295e-06
1.54295e-06
1.54295e-06
1.54659e-06
1.54742e-06
1.54677e-06
1.54295e-06
1.54295e-06
1.54295e-06
1.54295e-06
1.54295e-06
1.54295e-06
1.54773e-06
1.54968e-06
1.54943e-06
1.54671e-06
1.54295e-06
1.54295e-06
1.54295e-06
1.54295e-06
1.54295e-06
1.54295e-06
1.54792e-06
1.5494e-06
1.54926e-06
1.54655e-06
1.54295e-06
1.54295e-06
1.54295e-06
1.54295e-06
1.54295e-06
1.54295e-06
1.54791e-06
1.54757e-06
1.5468e-06
1.54295e-06
1.54295e-06
1.54295e-06
1.54295e-06
1.54295e-06
1.54295e-06
1.54784e-06
1.54975e-06
1.54912e-06
1.54659e-06
1.54295e-06
1.54295e-06
1.54295e-06
1.54295e-06
1.54773e-06
1.54768e-06
1.54965e-06
1.54933e-06
1.54743e-06
1.54773e-06
1.54791e-06
1.54791e-06
1.54784e-06
1.54768e-06
1.54959e-06
1.54968e-06
1.5494e-06
1.54757e-06
1.54975e-06
1.54965e-06
1.52992e-06
1.52976e-06
1.52956e-06
1.52727e-06
1.5272e-06
1.52704e-06
1.5273e-06
1.52961e-06
1.52982e-06
1.52956e-06
1.52637e-06
1.52345e-06
1.52345e-06
1.52345e-06
1.52345e-06
1.52709e-06
1.52791e-06
1.52727e-06
1.52345e-06
1.52345e-06
1.52345e-06
1.52345e-06
1.52345e-06
1.52345e-06
1.52822e-06
1.53017e-06
1.52993e-06
1.5272e-06
1.52345e-06
1.52345e-06
1.52345e-06
1.52345e-06
1.52345e-06
1.52345e-06
1.52841e-06
1.5299e-06
1.52976e-06
1.52704e-06
1.52345e-06
1.52345e-06
1.52345e-06
1.52345e-06
1.52345e-06
1.52345e-06
1.52841e-06
1.52806e-06
1.5273e-06
1.52345e-06
1.52345e-06
1.52345e-06
1.52345e-06
1.52345e-06
1.52345e-06
1.52834e-06
1.53024e-06
1.52961e-06
1.52709e-06
1.52345e-06
1.52345e-06
1.52345e-06
1.52345e-06
1.52823e-06
1.52818e-06
1.53014e-06
1.52982e-06
1.52792e-06
1.52823e-06
1.52841e-06
1.5284e-06
1.52833e-06
1.52818e-06
1.53009e-06
1.53017e-06
1.5299e-06
1.52806e-06
1.53024e-06
1.53014e-06
1.51042e-06
1.51026e-06
1.51005e-06
1.50776e-06
1.5077e-06
1.50753e-06
1.50779e-06
1.51011e-06
1.51031e-06
1.51005e-06
1.50686e-06
1.50394e-06
1.50394e-06
1.50394e-06
1.50394e-06
1.50758e-06
1.50841e-06
1.50776e-06
1.50394e-06
1.50394e-06
1.50394e-06
1.50394e-06
1.50394e-06
1.50394e-06
1.50872e-06
1.51067e-06
1.51042e-06
1.50769e-06
1.50394e-06
1.50394e-06
1.50394e-06
1.50394e-06
1.50394e-06
1.50394e-06
1.50891e-06
1.51039e-06
1.51025e-06
1.50754e-06
1.50394e-06
1.50394e-06
1.50394e-06
1.50394e-06
1.50394e-06
1.50394e-06
1.5089e-06
1.50856e-06
1.50779e-06
1.50394e-06
1.50394e-06
1.50394e-06
1.50394e-06
1.50394e-06
1.50394e-06
1.50883e-06
1.51074e-06
1.51011e-06
1.50758e-06
1.50394e-06
1.50394e-06
1.50394e-06
1.50394e-06
1.50872e-06
1.50867e-06
1.51064e-06
1.51032e-06
1.50842e-06
1.50872e-06
1.5089e-06
1.5089e-06
1.50883e-06
1.50867e-06
1.51058e-06
1.51067e-06
1.51039e-06
1.50856e-06
1.51074e-06
1.51064e-06
1.49091e-06
1.49075e-06
1.49055e-06
1.48826e-06
1.48819e-06
1.48803e-06
1.48829e-06
1.4906e-06
1.49081e-06
1.49055e-06
1.48735e-06
1.48444e-06
1.48444e-06
1.48444e-06
1.48444e-06
1.48807e-06
1.4889e-06
1.48825e-06
1.48444e-06
1.48444e-06
1.48444e-06
1.48444e-06
1.48444e-06
1.48444e-06
1.48921e-06
1.49116e-06
1.49092e-06
1.48819e-06
1.48444e-06
1.48444e-06
1.48444e-06
1.48444e-06
1.48444e-06
1.48444e-06
1.4894e-06
1.49089e-06
1.49075e-06
1.48803e-06
1.48444e-06
1.48444e-06
1.48444e-06
1.48444e-06
1.48444e-06
1.48444e-06
1.48939e-06
1.48905e-06
1.48829e-06
1.48444e-06
1.48444e-06
1.48444e-06
1.48444e-06
1.48444e-06
1.48444e-06
1.48933e-06
1.49123e-06
1.4906e-06
1.48807e-06
1.48444e-06
1.48444e-06
1.48444e-06
1.48444e-06
1.48922e-06
1.48917e-06
1.49113e-06
1.49081e-06
1.48891e-06
1.48921e-06
1.4894e-06
1.48939e-06
1.48932e-06
1.48916e-06
1.49108e-06
1.49116e-06
1.49089e-06
1.48905e-06
1.49123e-06
1.49113e-06
1.47141e-06
1.47124e-06
1.47104e-06
1.46875e-06
1.46868e-06
1.46852e-06
1.46878e-06
1.47109e-06
1.4713e-06
1.47104e-06
1.46785e-06
1.46493e-06
1.46493e-06
1.46493e-06
1.46493e-06
1.46857e-06
1.4694e-06
1.46875e-06
1.46493e-06
1.46493e-06
1.46493e-06
1.46493e-06
1.46493e-06
1.46493e-06
1.46971e-06
1.47165e-06
1.47141e-06
1.46868e-06
1.46493e-06
1.46493e-06
1.46493e-06
1.46493e-06
1.46493e-06
1.46493e-06
1.46989e-06
1.47138e-06
1.47124e-06
1.46852e-06
1.46493e-06
1.46493e-06
1.46493e-06
1.46493e-06
1.46493e-06
1.46493e-06
1.46989e-06
1.46954e-06
1.46878e-06
1.46493e-06
1.46493e-06
1.46493e-06
1.46493e-06
1.46493e-06
1.46493e-06
1.46982e-06
1.47173e-06
1.47109e-06
1.46857e-06
1.46493e-06
1.46493e-06
1.46493e-06
1.46493e-06
1.46971e-06
1.46966e-06
1.47162e-06
1.47131e-06
1.4694e-06
1.46971e-06
1.46989e-06
1.46989e-06
1.46982e-06
1.46966e-06
1.47157e-06
1.47165e-06
1.47138e-06
1.46954e-06
1.47172e-06
1.47162e-06
1.4519e-06
1.45174e-06
1.45153e-06
1.44924e-06
1.44918e-06
1.44902e-06
1.44927e-06
1.45159e-06
1.4518e-06
1.45154e-06
1.44834e-06
1.44542e-06
1.44542e-06
1.44542e-06
1.44542e-06
1.44906e-06
1.44989e-06
1.44924e-06
1.44542e-06
1.44542e-06
1.44542e-06
1.44542e-06
1.44542e-06
1.44542e-06
1.4502e-06
1.45215e-06
1.4519e-06
1.44918e-06
1.44542e-06
1.44542e-06
1.44542e-06
1.44542e-06
1.44542e-06
1.44542e-06
1.45039e-06
1.45187e-06
1.45173e-06
1.44902e-06
1.44542e-06
1.44542e-06
1.44542e-06
1.44542e-06
1.44542e-06
1.44542e-06
1.45038e-06
1.45004e-06
1.44927e-06
1.44542e-06
1.44542e-06
1.44542e-06
1.44542e-06
1.44542e-06
1.44542e-06
1.45031e-06
1.45222e-06
1.45159e-06
1.44906e-06
1.44542e-06
1.44542e-06
1.44542e-06
1.44542e-06
1.4502e-06
1.45015e-06
1.45212e-06
1.4518e-06
1.4499e-06
1.4502e-06
1.45038e-06
1.45038e-06
1.45031e-06
1.45015e-06
1.45206e-06
1.45215e-06
1.45187e-06
1.45004e-06
1.45222e-06
1.45212e-06
1.43239e-06
1.43223e-06
1.43203e-06
1.42974e-06
1.42967e-06
1.42951e-06
1.42977e-06
1.43208e-06
1.43229e-06
1.43203e-06
1.42883e-06
1.42592e-06
1.42592e-06
1.42592e-06
1.42592e-06
1.42955e-06
1.43038e-06
1.42973e-06
1.42592e-06
1.42592e-06
1.42592e-06
1.42592e-06
1.42592e-06
1.42592e-06
1.43069e-06
1.43264e-06
1.4324e-06
1.42967e-06
1.42592e-06
1.42592e-06
1.42592e-06
1.42592e-06
1.42592e-06
1.42592e-06
1.43088e-06
1.43237e-06
1.43223e-06
1.42951e-06
1.42592e-06
1.42592e-06
1.42592e-06
1.42592e-06
1.42592e-06
1.42592e-06
1.43087e-06
1.43053e-06
1.42976e-06
1.42592e-06
1.42592e-06
1.42592e-06
1.42592e-06
1.42592e-06
1.42592e-06
1.43081e-06
1.43271e-06
1.43208e-06
1.42955e-06
1.42592e-06
1.42592e-06
1.42592e-06
1.42592e-06
1.4307e-06
1.43065e-06
1.43261e-06
1.43229e-06
1.43039e-06
1.43069e-06
1.43088e-06
1.43087e-06
1.4308e-06
1.43064e-06
1.43256e-06
1.43264e-06
1.43237e-06
1.43053e-06
1.43271e-06
1.43261e-06
1.41289e-06
1.41272e-06
1.41252e-06
1.41023e-06
1.41016e-06
1.41e-06
1.41026e-06
1.41257e-06
1.41278e-06
1.41252e-06
1.40933e-06
1.40641e-06
1.40641e-06
1.40641e-06
1.40641e-06
1.41005e-06
1.41087e-06
1.41023e-06
1.40641e-06
1.40641e-06
1.40641e-06
1.40641e-06
1.40641e-06
1.40641e-06
1.41119e-06
1.41313e-06
1.41289e-06
1.41016e-06
1.40641e-06
1.40641e-06
1.40641e-06
1.40641e-06
1.40641e-06
1.40641e-06
1.41137e-06
1.41286e-06
1.41272e-06
1.41e-06
1.40641e-06
1.40641e-06
1.40641e-06
1.40641e-06
1.40641e-06
1.40641e-06
1.41137e-06
1.41102e-06
1.41026e-06
1.40641e-06
1.40641e-06
1.40641e-06
1.40641e-06
1.40641e-06
1.40641e-06
1.4113e-06
1.41321e-06
1.41257e-06
1.41005e-06
1.40641e-06
1.40641e-06
1.40641e-06
1.40641e-06
1.41119e-06
1.41114e-06
1.4131e-06
1.41279e-06
1.41088e-06
1.41119e-06
1.41137e-06
1.41137e-06
1.4113e-06
1.41114e-06
1.41305e-06
1.41313e-06
1.41286e-06
1.41102e-06
1.4132e-06
1.4131e-06
1.39338e-06
1.39322e-06
1.39301e-06
1.39072e-06
1.39066e-06
1.3905e-06
1.39075e-06
1.39307e-06
1.39327e-06
1.39301e-06
1.38982e-06
1.3869e-06
1.3869e-06
1.3869e-06
1.3869e-06
1.39054e-06
1.39137e-06
1.39072e-06
1.3869e-06
1.3869e-06
1.3869e-06
1.3869e-06
1.3869e-06
1.3869e-06
1.39168e-06
1.39363e-06
1.39338e-06
1.39066e-06
1.3869e-06
1.3869e-06
1.3869e-06
1.3869e-06
1.3869e-06
1.3869e-06
1.39187e-06
1.39335e-06
1.39321e-06
1.3905e-06
1.3869e-06
1.3869e-06
1.3869e-06
1.3869e-06
1.3869e-06
1.3869e-06
1.39186e-06
1.39152e-06
1.39075e-06
1.3869e-06
1.3869e-06
1.3869e-06
1.3869e-06
1.3869e-06
1.3869e-06
1.39179e-06
1.3937e-06
1.39307e-06
1.39054e-06
1.3869e-06
1.3869e-06
1.3869e-06
1.3869e-06
1.39168e-06
1.39163e-06
1.3936e-06
1.39328e-06
1.39138e-06
1.39168e-06
1.39186e-06
1.39186e-06
1.39179e-06
1.39163e-06
1.39354e-06
1.39363e-06
1.39335e-06
1.39152e-06
1.3937e-06
1.3936e-06
1.37387e-06
1.37371e-06
1.37351e-06
1.37122e-06
1.37115e-06
1.37099e-06
1.37125e-06
1.37356e-06
1.37377e-06
1.37351e-06
1.37031e-06
1.3674e-06
1.3674e-06
1.3674e-06
1.3674e-06
1.37103e-06
1.37186e-06
1.37121e-06
1.3674e-06
1.3674e-06
1.3674e-06
1.3674e-06
1.3674e-06
1.3674e-06
1.37217e-06
1.37412e-06
1.37388e-06
1.37115e-06
1.3674e-06
1.3674e-06
1.3674e-06
1.3674e-06
1.3674e-06
1.3674e-06
1.37236e-06
1.37385e-06
1.37371e-06
1.37099e-06
1.3674e-06
1.3674e-06
1.3674e-06
1.3674e-06
1.3674e-06
1.3674e-06
1.37235e-06
1.37201e-06
1.37125e-06
1.3674e-06
1.3674e-06
1.3674e-06
1.3674e-06
1.3674e-06
1.3674e-06
1.37229e-06
1.37419e-06
1.37356e-06
1.37103e-06
1.3674e-06
1.3674e-06
1.3674e-06
1.3674e-06
1.37218e-06
1.37213e-06
1.37409e-06
1.37377e-06
1.37187e-06
1.37217e-06
1.37236e-06
1.37235e-06
1.37228e-06
1.37212e-06
1.37404e-06
1.37412e-06
1.37385e-06
1.37201e-06
1.37419e-06
1.37409e-06
1.35437e-06
1.3542e-06
1.354e-06
1.35171e-06
1.35164e-06
1.35148e-06
1.35174e-06
1.35405e-06
1.35426e-06
1.354e-06
1.35081e-06
1.34789e-06
1.34789e-06
1.34789e-06
1.34789e-06
1.35153e-06
1.35236e-06
1.35171e-06
1.34789e-06
1.34789e-06
1.34789e-06
1.34789e-06
1.34789e-06
1.34789e-06
1.35267e-06
1.35461e-06
1.35437e-06
1.35164e-06
1.34789e-06
1.34789e-06
1.34789e-06
1.34789e-06
1.34789e-06
1.34789e-06
1.35285e-06
1.35434e-06
1.3542e-06
1.35148e-06
1.34789e-06
1.34789e-06
1.34789e-06
1.34789e-06
1.34789e-06
1.34789e-06
1.35285e-06
1.3525e-06
1.35174e-06
1.34789e-06
1.34789e-06
1.34789e-06
1.34789e-06
1.34789e-06
1.34789e-06
1.35278e-06
1.35469e-06
1.35405e-06
1.35153e-06
1.34789e-06
1.34789e-06
1.34789e-06
1.34789e-06
1.35267e-06
1.35262e-06
1.35458e-06
1.35427e-06
1.35236e-06
1.35267e-06
1.35285e-06
1.35285e-06
1.35278e-06
1.35262e-06
1.35453e-06
1.35462e-06
1.35434e-06
1.3525e-06
1.35469e-06
1.35459e-06
1.33486e-06
1.3347e-06
1.3345e-06
1.3322e-06
1.33214e-06
1.33198e-06
1.33224e-06
1.33455e-06
1.33476e-06
1.3345e-06
1.3313e-06
1.32838e-06
1.32838e-06
1.32838e-06
1.32838e-06
1.33202e-06
1.33285e-06
1.3322e-06
1.32838e-06
1.32838e-06
1.32838e-06
1.32838e-06
1.32838e-06
1.32838e-06
1.33316e-06
1.33511e-06
1.33487e-06
1.33214e-06
1.32838e-06
1.32838e-06
1.32838e-06
1.32838e-06
1.32838e-06
1.32838e-06
1.33335e-06
1.33484e-06
1.3347e-06
1.33198e-06
1.32838e-06
1.32838e-06
1.32838e-06
1.32838e-06
1.32838e-06
1.32838e-06
1.33334e-06
1.333e-06
1.33223e-06
1.32838e-06
1.32838e-06
1.32838e-06
1.32838e-06
1.32838e-06
1.32838e-06
1.33327e-06
1.33518e-06
1.33455e-06
1.33202e-06
1.32838e-06
1.32838e-06
1.32838e-06
1.32838e-06
1.33316e-06
1.33312e-06
1.33508e-06
1.33476e-06
1.33286e-06
1.33316e-06
1.33335e-06
1.33334e-06
1.33327e-06
1.33311e-06
1.33502e-06
1.33511e-06
1.33484e-06
1.333e-06
1.33518e-06
1.33508e-06
1.31535e-06
1.31519e-06
1.31499e-06
1.3127e-06
1.31263e-06
1.31247e-06
1.31273e-06
1.31504e-06
1.31525e-06
1.31499e-06
1.3118e-06
1.30888e-06
1.30888e-06
1.30888e-06
1.30888e-06
1.31252e-06
1.31334e-06
1.3127e-06
1.30888e-06
1.30888e-06
1.30888e-06
1.30888e-06
1.30888e-06
1.30888e-06
1.31365e-06
1.3156e-06
1.31536e-06
1.31263e-06
1.30888e-06
1.30888e-06
1.30888e-06
1.30888e-06
1.30888e-06
1.30888e-06
1.31384e-06
1.31533e-06
1.31519e-06
1.31247e-06
1.30888e-06
1.30888e-06
1.30888e-06
1.30888e-06
1.30888e-06
1.30888e-06
1.31384e-06
1.31349e-06
1.31273e-06
1.30888e-06
1.30888e-06
1.30888e-06
1.30888e-06
1.30888e-06
1.30888e-06
1.31377e-06
1.31567e-06
1.31504e-06
1.31252e-06
1.30888e-06
1.30888e-06
1.30888e-06
1.30888e-06
1.31366e-06
1.31361e-06
1.31557e-06
1.31525e-06
1.31335e-06
1.31366e-06
1.31384e-06
1.31384e-06
1.31376e-06
1.31361e-06
1.31552e-06
1.3156e-06
1.31533e-06
1.31349e-06
1.31567e-06
1.31557e-06
1.29585e-06
1.29568e-06
1.29548e-06
1.29319e-06
1.29312e-06
1.29296e-06
1.29322e-06
1.29554e-06
1.29574e-06
1.29548e-06
1.29229e-06
1.28937e-06
1.28937e-06
1.28937e-06
1.28937e-06
1.29301e-06
1.29384e-06
1.29319e-06
1.28937e-06
1.28937e-06
1.28937e-06
1.28937e-06
1.28937e-06
1.28937e-06
1.29415e-06
1.2961e-06
1.29585e-06
1.29312e-06
1.28937e-06
1.28937e-06
1.28937e-06
1.28937e-06
1.28937e-06
1.28937e-06
1.29433e-06
1.29582e-06
1.29568e-06
1.29297e-06
1.28937e-06
1.28937e-06
1.28937e-06
1.28937e-06
1.28937e-06
1.28937e-06
1.29433e-06
1.29398e-06
1.29322e-06
1.28937e-06
1.28937e-06
1.28937e-06
1.28937e-06
1.28937e-06
1.28937e-06
1.29426e-06
1.29617e-06
1.29553e-06
1.29301e-06
1.28937e-06
1.28937e-06
1.28937e-06
1.28937e-06
1.29415e-06
1.2941e-06
1.29606e-06
1.29575e-06
1.29385e-06
1.29415e-06
1.29433e-06
1.29433e-06
1.29426e-06
1.2941e-06
1.29601e-06
1.2961e-06
1.29582e-06
1.29399e-06
1.29617e-06
1.29607e-06
1.27634e-06
1.27618e-06
1.27598e-06
1.27368e-06
1.27362e-06
1.27346e-06
1.27371e-06
1.27603e-06
1.27624e-06
1.27598e-06
1.27278e-06
1.26986e-06
1.26986e-06
1.26986e-06
1.26986e-06
1.2735e-06
1.27433e-06
1.27368e-06
1.26986e-06
1.26986e-06
1.26986e-06
1.26986e-06
1.26986e-06
1.26986e-06
1.27464e-06
1.27659e-06
1.27635e-06
1.27362e-06
1.26986e-06
1.26986e-06
1.26986e-06
1.26986e-06
1.26986e-06
1.26986e-06
1.27483e-06
1.27632e-06
1.27618e-06
1.27346e-06
1.26986e-06
1.26986e-06
1.26986e-06
1.26986e-06
1.26986e-06
1.26986e-06
1.27482e-06
1.27448e-06
1.27371e-06
1.26986e-06
1.26986e-06
1.26986e-06
1.26986e-06
1.26986e-06
1.26986e-06
1.27475e-06
1.27666e-06
1.27603e-06
1.2735e-06
1.26986e-06
1.26986e-06
1.26986e-06
1.26986e-06
1.27464e-06
1.2746e-06
1.27656e-06
1.27624e-06
1.27434e-06
1.27464e-06
1.27483e-06
1.27482e-06
1.27475e-06
1.27459e-06
1.2765e-06
1.27659e-06