/*--------------------------------*- C++ -*----------------------------------*\
| =========                 |                                                 |
| \\      /  F ield         | OpenFOAM: The Open Source CFD Toolbox           |
|  \\    /   O peration     | Version:  v2012                                 |
|   \\  /    A nd           | Website:  www.openfoam.com                      |
|    \\/     M anipulation  |                                                 |
\*---------------------------------------------------------------------------*/
FoamFile
{
    version     2.0;
    format      ascii;
    class       volScalarField;
    location    "662.5";
    object      nut;
}
// * * * * * * * * * * * * * * * * * * * * * * * * * * * * * * * * * * * * * //

dimensions      [0 2 -1 0 0 0 0];


internalField   nonuniform List<scalar> 
171728
(
2.27704e-06
1.7734e-06
2.13286e-06
2.30014e-06
2.26426e-06
1.73253e-06
2.1858e-06
2.25797e-06
2.27264e-06
1.71158e-06
2.25268e-06
2.17786e-06
2.28769e-06
1.68361e-06
2.33475e-06
2.09622e-06
2.31068e-06
1.65485e-06
2.54041e-06
2.01498e-06
2.33095e-06
1.63049e-06
2.83724e-06
1.95991e-06
2.35186e-06
1.60862e-06
3.19216e-06
2.01586e-06
2.36609e-06
1.58316e-06
3.47934e-06
2.30572e-06
2.38539e-06
1.54799e-06
3.48331e-06
2.62392e-06
2.41521e-06
1.49709e-06
3.10737e-06
2.87973e-06
2.44511e-06
1.43224e-06
2.40284e-06
2.39727e-06
2.49691e-06
1.35704e-06
1.70551e-06
2.13432e-06
2.57524e-06
1.26603e-06
1.22936e-06
2.061e-06
2.67525e-06
1.15713e-06
1.01963e-06
2.09701e-06
2.74351e-06
1.0483e-06
9.37333e-07
2.0862e-06
2.72646e-06
9.51622e-07
9.54163e-07
1.72497e-06
2.77535e-06
8.80309e-07
9.60519e-07
1.37348e-06
2.90265e-06
8.59164e-07
9.58576e-07
1.23561e-06
2.92595e-06
8.87033e-07
1.00745e-06
1.29492e-06
2.73569e-06
9.82313e-07
1.10785e-06
1.39925e-06
2.52418e-06
1.19678e-06
1.27637e-06
1.65834e-06
2.46955e-06
1.47624e-06
1.63145e-06
2.11964e-06
2.44231e-06
2.00789e-06
2.0909e-06
3.95763e-06
2.40644e-06
2.86411e-06
3.00376e-06
6.02443e-06
2.24492e-06
3.70497e-06
3.89897e-06
8.22967e-06
1.87367e-06
4.98546e-06
5.47437e-06
1.26155e-05
1.6696e-06
7.37364e-06
6.46001e-06
1.82379e-05
1.54154e-06
8.01165e-06
9.94181e-06
2.8787e-05
1.48506e-06
1.35229e-05
1.10724e-05
2.54458e-05
1.39009e-06
1.2512e-05
1.44613e-05
3.82484e-05
1.51725e-06
1.88774e-05
1.90496e-05
5.13037e-05
1.77995e-06
2.27632e-05
2.10031e-05
4.77218e-05
1.90336e-06
2.57813e-05
2.72004e-05
5.93755e-05
2.29654e-06
3.05362e-05
3.08414e-05
6.50815e-05
2.98782e-06
3.55257e-05
3.50968e-05
6.97428e-05
3.61481e-06
4.18234e-05
4.54527e-05
7.45182e-05
4.86083e-06
4.68329e-05
4.59487e-05
7.94619e-05
5.42394e-06
5.33733e-05
5.28404e-05
8.07161e-05
7.23872e-06
5.4785e-05
5.8823e-05
9.1493e-05
1.0206e-05
6.9684e-05
6.70762e-05
9.07401e-05
1.06093e-05
6.95449e-05
7.03954e-05
9.31313e-05
1.36289e-05
7.61632e-05
7.72793e-05
0.000101565
1.84276e-05
8.27572e-05
8.21374e-05
0.000104578
1.90263e-05
9.149e-05
9.04555e-05
0.000106963
2.5979e-05
9.63255e-05
9.46371e-05
0.000111077
2.85113e-05
9.19396e-05
9.88318e-05
0.000114126
3.27888e-05
0.000108771
0.000107289
0.000116277
4.03747e-05
0.000117555
0.000115564
0.000124462
4.94464e-05
0.000114711
0.000111117
0.000126044
4.58387e-05
0.000121695
0.000119205
0.00012681
5.99147e-05
0.000124209
0.000131202
0.000129571
6.30729e-05
0.000126974
0.000130195
0.000140667
7.21443e-05
0.000142005
0.000136879
0.000144016
8.54141e-05
0.000143669
0.000141937
0.000134474
8.56881e-05
0.00013273
0.000134088
0.000134817
8.28586e-05
0.000153461
0.000150033
0.000158522
0.000100402
0.000162966
0.000163332
0.000166448
0.000120336
0.000149162
0.000158391
0.000144861
0.000116891
0.00014678
0.000147231
0.000138766
0.000105828
0.000174893
0.000161078
0.000165719
0.000132746
0.000182198
0.000178951
0.000173598
0.000144997
0.00016461
0.000176498
0.000162175
0.000135806
0.000155491
0.000166383
0.000158046
0.000130244
0.000181007
0.000175229
0.000171585
0.000157964
0.000191518
0.000185816
0.000173657
0.000165378
0.000186458
0.000182809
0.000167425
0.00015888
0.000183064
0.000184455
0.000176269
0.000164911
0.000191766
0.000195674
0.000185418
0.000179948
0.000191281
0.000189833
0.000173413
0.000178334
0.000191533
0.000186011
0.000173907
0.000180631
0.00020347
0.00020534
0.000190239
0.000193434
0.000202406
0.00020609
0.000188405
0.000196013
0.000191258
0.000195446
0.000175039
0.000190411
0.00020323
0.000197811
0.000182071
0.000204814
0.000223482
0.000214925
0.000199656
0.00021881
0.000217823
0.000220329
0.000198774
0.000215701
0.000196945
0.000208203
0.000183786
0.000204716
0.000195255
0.000200049
0.000180713
0.000208714
0.00022225
0.000212301
0.000196881
0.000230874
0.000232734
0.000223767
0.000202337
0.000237192
0.000220953
0.000223754
0.000196658
0.000230102
0.000211218
0.000220761
0.000194135
0.000224824
0.00021571
0.000218355
0.00019587
0.000228838
0.000224563
0.000215738
0.000196828
0.000237775
0.000224187
0.000222394
0.000199358
0.000240214
0.0002202
0.000225597
0.000198144
0.000239992
0.000224005
0.000225178
0.000198333
0.000244274
0.000230272
0.000226134
0.000202351
0.000246091
0.000226958
0.000225621
0.00020095
0.000244003
0.000222309
0.000224797
0.000198326
0.000244747
0.000225025
0.000227386
0.000200846
0.000249907
0.000229694
0.000227376
0.000201695
0.000250232
0.000226837
0.000226104
0.000199509
0.000248589
0.000225029
0.000227362
0.000200385
0.000251374
0.000229198
0.000229156
0.000205748
2.299e-06
2.3569e-06
2.25309e-06
2.28792e-06
2.17369e-06
2.74036e-06
2.30026e-06
2.24001e-06
2.42768e-06
2.30458e-06
2.21304e-06
1.89777e-06
2.23863e-06
2.6837e-06
2.0029e-06
2.29352e-06
2.29794e-06
2.27371e-06
1.95325e-06
1.7955e-06
1.94104e-06
1.77581e-06
2.28738e-06
2.25403e-06
1.94987e-06
2.43556e-06
1.89318e-06
2.60097e-06
1.72431e-06
1.73897e-06
1.68775e-06
2.23002e-06
2.22621e-06
1.88093e-06
2.16949e-06
1.81829e-06
2.26138e-06
2.27311e-06
2.24153e-06
1.93436e-06
1.76874e-06
1.90788e-06
1.74839e-06
2.25278e-06
2.21659e-06
1.87789e-06
2.67946e-06
1.82662e-06
2.98587e-06
1.67478e-06
1.71709e-06
1.65591e-06
2.22923e-06
2.30101e-06
1.80539e-06
2.23609e-06
1.75801e-06
2.18556e-06
2.24131e-06
2.20451e-06
1.89673e-06
1.7407e-06
1.85889e-06
1.71961e-06
2.21478e-06
2.17665e-06
1.80985e-06
3.14375e-06
1.75712e-06
3.8446e-06
1.65804e-06
1.69048e-06
1.66749e-06
2.31569e-06
2.52957e-06
1.73703e-06
2.30765e-06
1.69846e-06
2.10475e-06
2.20316e-06
2.1595e-06
1.84597e-06
1.71251e-06
1.81741e-06
1.68826e-06
2.17317e-06
2.13368e-06
1.73682e-06
4.19469e-06
1.68064e-06
5.52527e-06
1.67321e-06
1.66201e-06
1.7234e-06
2.555e-06
2.77575e-06
1.6875e-06
2.47355e-06
1.63204e-06
2.02587e-06
2.15333e-06
2.09094e-06
1.81308e-06
1.67991e-06
1.81792e-06
1.65065e-06
2.12949e-06
2.09052e-06
1.66382e-06
5.98383e-06
1.61778e-06
6.08851e-06
1.74824e-06
1.63614e-06
1.87397e-06
2.78996e-06
2.82833e-06
1.60853e-06
2.75617e-06
1.54673e-06
1.96223e-06
2.07926e-06
2.02248e-06
1.82195e-06
1.63915e-06
1.81789e-06
1.60213e-06
2.08519e-06
2.06089e-06
1.60721e-06
5.51025e-06
1.60162e-06
3.73883e-06
1.93906e-06
1.61416e-06
2.17003e-06
2.70565e-06
2.51223e-06
1.53181e-06
3.1056e-06
1.51916e-06
1.99739e-06
2.01518e-06
1.9624e-06
1.80965e-06
1.58918e-06
1.77316e-06
1.54786e-06
2.05481e-06
2.03173e-06
1.60548e-06
3.28065e-06
1.61024e-06
2.53653e-06
2.29687e-06
1.58936e-06
3.05446e-06
2.46693e-06
2.4231e-06
1.51889e-06
3.43433e-06
1.51955e-06
2.28553e-06
1.95716e-06
1.9179e-06
1.76009e-06
1.53253e-06
1.72489e-06
1.48294e-06
2.02542e-06
1.99572e-06
1.61362e-06
2.43918e-06
1.6452e-06
2.40871e-06
3.51206e-06
1.55722e-06
5.50094e-06
2.39815e-06
2.44445e-06
1.5228e-06
3.51077e-06
1.54332e-06
2.61523e-06
1.9143e-06
1.89903e-06
1.71291e-06
1.46512e-06
1.66492e-06
1.40124e-06
1.98938e-06
1.93823e-06
1.65884e-06
2.42106e-06
1.73135e-06
2.42107e-06
6.23561e-06
1.51133e-06
7.96881e-06
2.42021e-06
2.36302e-06
1.5554e-06
3.24857e-06
1.62265e-06
2.89221e-06
1.8974e-06
1.91928e-06
1.64447e-06
1.37968e-06
1.57132e-06
1.31889e-06
1.93255e-06
1.84698e-06
1.76632e-06
2.38992e-06
1.89348e-06
2.14788e-06
8.38516e-06
1.44741e-06
6.98297e-06
2.32526e-06
2.12975e-06
1.64362e-06
2.58576e-06
1.70266e-06
2.51165e-06
1.92168e-06
1.97458e-06
1.54535e-06
1.30116e-06
1.46685e-06
1.24356e-06
1.84032e-06
1.74294e-06
1.94667e-06
2.02827e-06
2.17663e-06
1.68311e-06
5.79785e-06
1.37477e-06
3.26908e-06
2.10286e-06
1.87412e-06
1.74146e-06
1.86807e-06
1.92894e-06
2.15723e-06
1.97828e-06
2.04557e-06
1.4391e-06
1.21967e-06
1.34822e-06
1.13831e-06
1.73291e-06
1.62461e-06
2.2842e-06
1.586e-06
2.65502e-06
1.33954e-06
2.73312e-06
1.2871e-06
1.74323e-06
1.84639e-06
1.62269e-06
2.00299e-06
1.31776e-06
2.27067e-06
2.06366e-06
2.04978e-06
2.08585e-06
1.32063e-06
1.11024e-06
1.245e-06
1.03309e-06
1.61043e-06
1.49514e-06
2.79013e-06
1.27652e-06
3.21829e-06
1.12736e-06
1.56941e-06
1.18339e-06
1.29529e-06
1.60291e-06
1.46333e-06
2.38848e-06
1.05124e-06
2.816e-06
2.10099e-06
2.07987e-06
2.04934e-06
1.21853e-06
1.00699e-06
1.11178e-06
9.43341e-07
1.47715e-06
1.36055e-06
3.35285e-06
1.0983e-06
3.60617e-06
1.02122e-06
1.24611e-06
1.0708e-06
1.15703e-06
1.44697e-06
1.34653e-06
2.96161e-06
9.50564e-07
3.26896e-06
2.10249e-06
2.02592e-06
1.77587e-06
1.08415e-06
9.24196e-07
1.01958e-06
8.77291e-07
1.3377e-06
1.23398e-06
3.62389e-06
1.00056e-06
3.44582e-06
9.4516e-07
1.12052e-06
9.72235e-07
1.02616e-06
1.32696e-06
1.243e-06
3.32357e-06
9.52819e-07
3.20327e-06
1.80638e-06
1.72435e-06
1.60154e-06
1.01717e-06
8.62751e-07
9.63368e-07
8.22764e-07
1.2102e-06
1.12245e-06
3.38577e-06
9.29736e-07
3.2726e-06
9.15235e-07
1.0048e-06
8.91079e-07
9.46007e-07
1.22122e-06
1.1565e-06
2.90727e-06
9.55958e-07
2.20801e-06
1.40561e-06
1.57087e-06
1.50218e-06
9.55989e-07
8.18657e-07
9.8904e-07
8.16185e-07
1.10205e-06
1.05616e-06
3.15622e-06
9.0896e-07
3.04898e-06
8.84567e-07
9.16816e-07
8.58614e-07
9.12074e-07
1.13977e-06
1.10276e-06
2.05261e-06
9.57171e-07
1.73314e-06
1.25611e-06
1.49769e-06
1.55288e-06
9.94706e-07
8.17622e-07
1.07798e-06
8.3618e-07
1.04922e-06
1.05861e-06
3.14248e-06
8.89316e-07
3.27939e-06
9.24602e-07
9.07208e-07
8.7012e-07
9.4484e-07
1.09506e-06
1.10436e-06
1.69697e-06
9.90336e-07
1.88009e-06
1.28412e-06
1.54753e-06
1.5765e-06
1.09498e-06
8.61501e-07
1.24202e-06
9.28479e-07
1.07324e-06
1.15263e-06
3.25524e-06
9.54992e-07
2.99628e-06
1.04409e-06
9.59121e-07
9.47286e-07
9.86113e-07
1.11095e-06
1.24429e-06
1.96332e-06
1.07712e-06
1.94684e-06
1.32704e-06
1.6382e-06
1.82397e-06
1.31791e-06
9.6338e-07
1.54044e-06
1.12016e-06
1.19331e-06
1.45663e-06
2.75169e-06
1.0947e-06
1.89172e-06
1.30032e-06
1.05061e-06
1.12301e-06
1.23158e-06
1.28367e-06
1.55766e-06
1.91135e-06
1.22988e-06
1.67021e-06
1.63353e-06
1.85148e-06
2.12676e-06
1.62122e-06
1.19253e-06
1.98733e-06
1.40167e-06
1.54665e-06
2.13118e-06
1.77767e-06
1.35698e-06
1.70451e-06
1.70327e-06
1.2564e-06
1.38913e-06
1.38915e-06
1.61775e-06
2.22076e-06
1.55656e-06
1.52896e-06
1.60169e-06
1.91038e-06
2.36106e-06
3.66354e-06
2.15187e-06
1.49056e-06
2.7137e-06
1.90605e-06
2.23225e-06
3.25649e-06
1.82689e-06
1.87809e-06
2.2336e-06
2.51244e-06
1.55481e-06
1.87892e-06
2.03939e-06
2.40329e-06
3.49978e-06
1.95079e-06
2.01654e-06
2.2964e-06
3.94212e-06
3.93221e-06
4.79066e-06
2.92308e-06
2.05005e-06
3.36151e-06
2.66374e-06
3.6647e-06
4.98615e-06
2.36374e-06
2.68582e-06
2.59001e-06
3.77015e-06
2.02677e-06
2.62947e-06
2.77601e-06
3.80417e-06
5.13887e-06
2.30939e-06
2.80313e-06
3.48765e-06
4.86798e-06
5.10846e-06
9.30348e-06
3.63718e-06
2.90342e-06
5.05514e-06
3.4233e-06
5.41333e-06
7.60867e-06
2.80545e-06
4.15503e-06
3.90036e-06
4.716e-06
3.22011e-06
3.33543e-06
3.5322e-06
5.88693e-06
7.7504e-06
3.90117e-06
3.41068e-06
4.43508e-06
8.56442e-06
1.03414e-05
1.01792e-05
5.31564e-06
3.79248e-06
5.36108e-06
4.89756e-06
7.92489e-06
1.17842e-05
4.09873e-06
5.17452e-06
4.47429e-06
7.51114e-06
3.72962e-06
4.79614e-06
4.85443e-06
7.98841e-06
1.4634e-05
4.77474e-06
5.42376e-06
6.05806e-06
1.13051e-05
1.0532e-05
1.70581e-05
5.53903e-06
5.08414e-06
6.89651e-06
6.84871e-06
1.28911e-05
1.63305e-05
4.87545e-06
7.75416e-06
6.50966e-06
7.14151e-06
5.01375e-06
6.70255e-06
6.53615e-06
1.58914e-05
1.42556e-05
6.11938e-06
5.944e-06
7.8404e-06
1.6334e-05
1.85155e-05
2.2762e-05
7.46974e-06
7.51001e-06
8.98159e-06
7.69756e-06
1.75765e-05
2.21844e-05
6.99078e-06
7.28727e-06
8.35464e-06
9.44061e-06
7.50233e-06
7.61709e-06
9.33112e-06
1.46984e-05
2.3849e-05
9.30893e-06
9.18575e-06
1.23016e-05
2.88699e-05
2.37309e-05
2.97982e-05
9.45861e-06
8.12465e-06
1.13143e-05
1.25653e-05
2.23435e-05
3.19648e-05
8.9389e-06
1.04057e-05
1.11222e-05
1.23313e-05
9.55914e-06
1.23431e-05
1.04753e-05
2.57978e-05
3.01919e-05
1.19905e-05
1.0401e-05
9.82062e-06
2.47763e-05
3.13638e-05
3.67484e-05
1.20164e-05
1.37774e-05
1.36302e-05
1.32163e-05
3.57631e-05
3.65481e-05
1.18452e-05
1.27919e-05
1.36669e-05
1.41148e-05
1.08798e-05
1.29609e-05
1.29786e-05
3.11059e-05
3.61235e-05
9.31534e-06
1.38528e-05
1.4906e-05
3.54003e-05
3.77496e-05
4.25165e-05
1.4102e-05
1.27326e-05
1.6762e-05
1.63865e-05
3.50633e-05
3.9742e-05
1.41877e-05
1.4536e-05
1.68589e-05
1.76559e-05
1.45365e-05
1.6402e-05
1.98787e-05
3.76506e-05
4.42288e-05
1.77385e-05
1.80372e-05
2.26547e-05
5.03966e-05
4.43919e-05
5.18151e-05
1.79322e-05
1.88852e-05
2.15057e-05
2.30348e-05
4.39945e-05
5.60176e-05
1.80118e-05
1.86897e-05
2.13366e-05
2.02115e-05
2.01944e-05
2.27414e-05
1.90813e-05
4.58553e-05
5.03724e-05
2.23246e-05
1.99202e-05
1.98392e-05
4.79349e-05
5.31969e-05
5.69211e-05
2.2506e-05
2.30788e-05
2.4818e-05
2.46087e-05
5.64875e-05
5.6085e-05
2.23519e-05
2.11436e-05
2.49717e-05
2.59633e-05
2.00179e-05
2.4483e-05
2.56011e-05
5.14452e-05
5.74579e-05
1.96846e-05
2.59098e-05
2.68404e-05
5.67947e-05
5.79198e-05
6.2513e-05
2.58071e-05
2.58181e-05
2.94504e-05
2.96764e-05
5.68822e-05
6.24218e-05
2.59302e-05
2.72051e-05
2.939e-05
2.91412e-05
2.71038e-05
2.93252e-05
2.98734e-05
5.89133e-05
6.32072e-05
2.79295e-05
3.02121e-05
2.97871e-05
6.43317e-05
6.38742e-05
6.86311e-05
3.0594e-05
3.08023e-05
3.47674e-05
3.40468e-05
6.3955e-05
6.8294e-05
3.05643e-05
3.00204e-05
3.4722e-05
3.38267e-05
3.09163e-05
3.41743e-05
3.55508e-05
6.41659e-05
6.74889e-05
3.09111e-05
3.35747e-05
3.58078e-05
6.85283e-05
6.98269e-05
7.36934e-05
3.632e-05
3.56975e-05
4.00429e-05
4.12515e-05
6.93431e-05
7.39601e-05
3.6189e-05
3.57534e-05
4.01736e-05
4.2313e-05
3.71272e-05
4.06118e-05
3.86732e-05
6.90085e-05
7.52536e-05
3.72009e-05
4.26979e-05
3.91794e-05
7.33313e-05
7.47162e-05
7.8396e-05
4.10109e-05
4.23264e-05
4.5955e-05
4.43122e-05
7.51589e-05
7.82778e-05
4.13771e-05
4.34513e-05
4.59425e-05
4.35989e-05
3.93262e-05
4.45332e-05
4.79515e-05
7.60476e-05
7.71999e-05
4.11195e-05
4.7033e-05
4.84615e-05
7.90244e-05
7.94283e-05
8.17424e-05
4.79303e-05
4.63776e-05
5.0741e-05
5.37967e-05
7.93752e-05
8.2822e-05
4.74582e-05
4.3901e-05
5.02804e-05
5.22461e-05
4.97178e-05
5.33855e-05
4.81568e-05
7.79683e-05
8.25572e-05
4.83145e-05
4.81103e-05
4.52498e-05
7.90536e-05
8.25131e-05
8.68619e-05
5.14585e-05
5.42234e-05
5.61532e-05
5.33819e-05
8.32028e-05
8.45766e-05
5.12843e-05
5.57202e-05
5.6952e-05
5.68954e-05
4.88874e-05
5.29424e-05
5.85896e-05
8.39644e-05
8.64669e-05
4.68489e-05
5.9275e-05
6.09094e-05
9.06625e-05
8.81776e-05
9.16308e-05
5.86167e-05
5.47311e-05
6.57722e-05
6.54574e-05
8.59429e-05
9.30565e-05
5.94047e-05
5.6205e-05
6.49968e-05
6.21784e-05
6.19923e-05
6.61666e-05
6.83272e-05
8.70475e-05
9.1364e-05
6.44575e-05
6.3993e-05
6.94763e-05
9.08814e-05
9.22262e-05
9.38302e-05
6.67051e-05
6.92796e-05
6.79256e-05
7.15783e-05
9.4118e-05
9.46128e-05
6.56688e-05
6.65511e-05
6.79039e-05
7.25024e-05
6.7971e-05
7.0828e-05
6.38938e-05
9.29408e-05
9.53342e-05
6.88345e-05
7.04838e-05
6.42251e-05
9.21889e-05
9.46007e-05
9.8701e-05
6.96238e-05
7.03953e-05
7.47857e-05
7.26893e-05
9.46255e-05
9.71855e-05
6.98522e-05
7.17213e-05
7.52041e-05
7.30087e-05
6.36786e-05
7.237e-05
7.71924e-05
9.54256e-05
9.72231e-05
6.34199e-05
7.5117e-05
7.69355e-05
0.000100403
9.9614e-05
0.000102914
7.61923e-05
7.6141e-05
8.33669e-05
8.15262e-05
9.87053e-05
0.000102596
7.66188e-05
7.55001e-05
8.27084e-05
8.10701e-05
7.96701e-05
8.17769e-05
8.48014e-05
9.85097e-05
0.000102824
7.98746e-05
8.01342e-05
8.45601e-05
0.000103826
0.000103717
0.000105847
8.44362e-05
8.25935e-05
8.57588e-05
8.83509e-05
0.000103386
0.000108411
8.3963e-05
8.29545e-05
8.65833e-05
8.9314e-05
8.63655e-05
8.84849e-05
8.73838e-05
0.000103543
0.000107113
8.65265e-05
8.98684e-05
8.95405e-05
0.000106607
0.000106627
0.000110783
8.83742e-05
9.13907e-05
9.49733e-05
9.73687e-05
0.000109494
0.000110342
8.85189e-05
8.99974e-05
9.41463e-05
9.28839e-05
8.76008e-05
9.71158e-05
9.27715e-05
0.000107845
0.000109549
8.93305e-05
9.26115e-05
9.17349e-05
0.000109849
0.000111453
0.000113104
9.54353e-05
9.65839e-05
9.86418e-05
9.20423e-05
0.000109802
0.000108709
9.51636e-05
9.5115e-05
9.89845e-05
9.86385e-05
9.58793e-05
9.19082e-05
0.000100805
0.000110189
0.000113177
9.46611e-05
9.819e-05
0.000101158
0.000114121
0.000113716
0.000117016
0.000100081
9.20144e-05
0.000102852
0.00010571
0.000110031
0.000120302
0.000100431
9.88848e-05
0.000103142
0.000103436
0.00010015
0.000105201
0.000100439
0.000113791
0.000118135
0.000100833
0.00010444
0.000100344
0.000115125
0.000117821
0.000122826
0.000104115
0.000109324
0.000112445
0.000116222
0.000121761
0.000124431
0.000104386
0.000106235
0.000111831
0.000114769
0.000102512
0.000116302
0.000112475
0.00011949
0.000123623
0.000102024
0.000114851
0.000112034
0.000123225
0.00012401
0.000125306
0.000115438
0.000117119
0.000117172
0.000115153
0.000124744
0.000124484
0.000114425
0.000116
0.000117008
0.000113616
0.000115612
0.00011585
0.000117845
0.000123765
0.000121936
0.000115336
0.000112516
0.000117908
0.00012615
0.000125023
0.000125526
0.000116054
0.000114054
0.000115152
0.00011765
0.000124186
0.000127179
0.000116185
0.000112235
0.000115894
0.000115887
0.000116957
0.000117494
0.000117444
0.000121644
0.000126293
0.000117187
0.000115407
0.000118598
0.000126304
0.00012683
0.000133157
0.000118347
0.000121375
0.000127433
0.000128173
0.000128949
0.000131922
0.000118218
0.000120101
0.000127719
0.000129825
0.000119206
0.000125101
0.000121519
0.000128243
0.000134791
0.00011977
0.000129201
0.000120546
0.000128637
0.000133527
0.000132995
0.000128239
0.000128045
0.000127075
0.000124302
0.00013168
0.000130718
0.00012863
0.000130889
0.000127296
0.000129086
0.000123018
0.000124358
0.000132737
0.000135358
0.000134871
0.000121765
0.000130965
0.000132244
0.000138677
0.00013336
0.000139897
0.000127544
0.000123496
0.000135221
0.000135135
0.000131551
0.000141898
0.000128208
0.000128265
0.000135555
0.000133111
0.000135957
0.000138954
0.00014097
0.000134687
0.000138584
0.000136194
0.000133899
0.000141978
0.000144246
0.000141137
0.000142989
0.000137981
0.000139852
0.000141726
0.000145734
0.0001439
0.000145797
0.000137278
0.000136149
0.000140589
0.000142966
0.000140834
0.000144394
0.000137042
0.000140041
0.000143152
0.000142051
0.000142378
0.00013659
0.000135922
0.000143032
0.000142179
0.000142569
0.000145497
0.00014177
0.000138605
0.000145131
0.000135529
0.000141963
0.000142935
0.000142856
0.000138441
0.000134558
0.000134423
0.000129576
0.000142868
0.000137746
0.000133046
0.000135812
0.000127257
0.000132197
0.000141721
0.000142023
0.000140463
0.000136953
0.000138705
0.000142543
0.000134626
0.000149574
0.000141645
0.000136752
0.000137915
0.000139848
0.00013075
0.000145073
0.000151583
0.000136946
0.000145977
0.000128856
0.000142288
0.000154601
0.000155452
0.000143744
0.00015527
0.000142678
0.000149758
0.000157095
0.000160133
0.000153478
0.000159872
0.000139301
0.000146218
0.000155615
0.000159783
0.000157732
0.000163096
0.000166862
0.000149479
0.000158734
0.000161214
0.000162329
0.000170997
0.000167084
0.000156403
0.000155976
0.000159691
0.000160321
0.000161169
0.000154726
0.000159076
0.000146617
0.00015922
0.000161601
0.000162299
0.000161589
0.000167129
0.000152886
0.000155196
0.000158936
0.000154146
0.000171399
0.000161068
0.000156671
0.00014761
0.000155433
0.000150078
0.000160427
0.000151652
0.000153627
0.000146646
0.000145132
0.000143932
0.000162015
0.00015966
0.000156022
0.000151831
0.000149598
0.00014434
0.00014138
0.000153148
0.000146002
0.000150242
0.000149077
0.00013872
0.000136769
0.000149361
0.000155704
0.000152095
0.000147291
0.000155879
0.000166087
0.000146516
0.000165978
0.000154245
0.000150242
0.00015384
0.000154982
0.000141612
0.000169437
0.000165242
0.000145394
0.000156107
0.000137472
0.000152889
0.000158141
0.000162202
0.000158838
0.000167332
0.000162535
0.00017178
0.000174338
0.000179648
0.000168816
0.000175187
0.000159779
0.000161869
0.000173387
0.000175564
0.000171751
0.000182181
0.000180733
0.000159674
0.000169704
0.000167015
0.000176858
0.000181818
0.000173849
0.000167481
0.000163617
0.000175481
0.000179821
0.000174568
0.000170541
0.000174145
0.000157849
0.000174968
0.000177207
0.000174778
0.00017646
0.000181082
0.000169665
0.000173735
0.000170018
0.000165874
0.000182918
0.000179054
0.000179262
0.000163658
0.00016273
0.000157702
0.000172304
0.000166302
0.000165718
0.000159072
0.000155589
0.000149881
0.000172934
0.000173896
0.000166433
0.000165751
0.000169885
0.000156079
0.000163042
0.000164826
0.000157627
0.000175742
0.000167846
0.000168252
0.000157327
0.000157722
0.000168303
0.000164664
0.000158575
0.000173385
0.000175319
0.000151534
0.000170184
0.00016529
0.00016442
0.00017232
0.000170621
0.00016237
0.000174571
0.00017523
0.000157087
0.000166313
0.000167358
0.00016958
0.000173261
0.000169605
0.000170763
0.000175931
0.000178566
0.000181085
0.000186654
0.000189536
0.000173056
0.000179184
0.000177683
0.000176401
0.000186435
0.000185819
0.000179776
0.00019092
0.000186053
0.000169074
0.000175042
0.000177485
0.000184969
0.00018428
0.000174081
0.000175807
0.000171329
0.000187156
0.000189901
0.000185423
0.000187077
0.000178991
0.000173331
0.00018701
0.000186524
0.000185452
0.00018517
0.000186253
0.0001889
0.000183002
0.000174934
0.000170979
0.000184296
0.000184256
0.000180826
0.000168175
0.000170496
0.000169201
0.000183264
0.000184974
0.000180155
0.000182272
0.000172523
0.000171431
0.000183352
0.000183523
0.000180187
0.000181539
0.000181644
0.000183047
0.000181786
0.000170299
0.000171696
0.000179734
0.000181616
0.000182503
0.000173355
0.000170361
0.000180766
0.000180574
0.000182601
0.000191736
0.000190533
0.000172357
0.000178957
0.000180514
0.000182869
0.000191787
0.000193552
0.000186154
0.000190219
0.000196127
0.000173475
0.000182803
0.000188027
0.000194812
0.00019748
0.000185631
0.00018156
0.000180128
0.000194074
0.000192018
0.000195393
0.000192553
0.000179172
0.000176706
0.000194251
0.000194928
0.000195607
0.00019382
0.00019663
0.000192211
0.000192302
0.000182912
0.000176522
0.000197878
0.000192995
0.000192015
0.00017518
0.000179352
0.000174908
0.000194763
0.000191694
0.000190309
0.000189998
0.000176063
0.000176915
0.000194817
0.000191077
0.000189887
0.000185782
0.000189213
0.000189789
0.000185264
0.000174847
0.000171038
0.000188664
0.000185103
0.000185097
0.000171648
0.000174897
0.000184125
0.000189671
0.000191107
0.000196452
0.000200714
0.00017832
0.000187827
0.000189277
0.000186018
0.000197199
0.000200906
0.000186398
0.000201464
0.000201431
0.000172715
0.0001888
0.000187014
0.000201839
0.000202608
0.000188998
0.000185714
0.000188096
0.000200002
0.00020285
0.000204727
0.000204023
0.000188371
0.000186138
0.00020075
0.000204996
0.000205116
0.000208557
0.000205088
0.000204348
0.000208429
0.000190215
0.000190195
0.000205617
0.000207777
0.000207378
0.000189894
0.000187587
0.000181035
0.000204808
0.000202331
0.000199769
0.000193271
0.000184836
0.000174068
0.000205126
0.000207382
0.00020005
0.000198307
0.000207127
0.000193115
0.000196491
0.000188872
0.000179109
0.000205056
0.000197689
0.00019515
0.000176615
0.000180039
0.000181761
0.000197605
0.000191465
0.000195792
0.000196491
0.000172887
0.000183999
0.000197956
0.000195751
0.000195746
0.000193343
0.000193315
0.00019586
0.00019105
0.000177875
0.00017946
0.000192554
0.00019366
0.000191735
0.00017869
0.000183848
0.000193904
0.000199356
0.000203706
0.00021169
0.000220418
0.000187531
0.000203735
0.000198415
0.000196624
0.000210486
0.000210666
0.000196379
0.000220371
0.000214331
0.000181981
0.000194314
0.000198161
0.000211508
0.000215412
0.000198348
0.000194624
0.000196504
0.000214554
0.00022339
0.000218166
0.000223546
0.000204589
0.000199389
0.000213341
0.000213972
0.000217309
0.000218586
0.0002184
0.000224096
0.000222718
0.000195468
0.000198501
0.000219536
0.000220101
0.000224278
0.00020088
0.000195779
0.000188908
0.000217718
0.000217274
0.00020947
0.000201259
0.000196055
0.000178949
0.000217461
0.000218782
0.000211041
0.000211492
0.000220835
0.00020135
0.000207687
0.000197612
0.000189343
0.000222431
0.000211115
0.000208135
0.000185587
0.000187709
0.000182523
0.000206857
0.000197007
0.000200963
0.000192278
0.000176731
0.0001758
0.000208812
0.000209207
0.000202892
0.000203327
0.000203979
0.00019211
0.000198336
0.000188137
0.000182937
0.000204209
0.00020113
0.00019746
0.000179626
0.000182301
0.000192389
0.000200314
0.00019531
0.000211046
0.000216309
0.000178846
0.000198335
0.000201993
0.00020232
0.000209384
0.000207731
0.000198641
0.000216889
0.000213784
0.000182398
0.000190295
0.000197163
0.000207652
0.000211642
0.000194956
0.000194317
0.000201421
0.000215341
0.000221518
0.000224358
0.000231311
0.000200659
0.000209156
0.000213654
0.000211855
0.000222553
0.000221168
0.000218167
0.000231719
0.000225626
0.00019222
0.000199917
0.000216414
0.000222213
0.000224627
0.000202555
0.000201545
0.000199528
0.000225632
0.000232448
0.000225272
0.000226066
0.000209039
0.000199809
0.00022387
0.000222839
0.00022457
0.000224434
0.000226296
0.000224978
0.000222052
0.000200234
0.000200121
0.000225353
0.000224898
0.000222826
0.000197427
0.000198615
0.00019449
0.000222663
0.000221878
0.00021683
0.000212741
0.000197977
0.00018987
0.000222878
0.000223855
0.000218443
0.000221108
0.000219821
0.00021244
0.000215902
0.00019961
0.000197871
0.000220993
0.000221161
0.000217971
0.000194334
0.000194081
0.000193925
0.000215647
0.00021122
0.000214667
0.000211424
0.000189081
0.00019183
0.000217588
0.000220513
0.000216469
0.000218643
0.000215552
0.000212401
0.000216972
0.000197681
0.000196084
0.000217756
0.000219161
0.000218206
0.000195704
0.000194139
0.00019676
0.000215452
0.000214698
0.000220125
0.000223093
0.000193338
0.000200313
0.000216393
0.000217868
0.000218482
0.000215794
0.000218093
0.000223367
0.000220702
0.000195572
0.000192796
0.000218396
0.000215971
0.000218581
0.00019662
0.000197208
0.000199637
0.000221603
0.000224439
0.000224174
0.000225202
0.000200658
0.000200165
0.000219672
0.000215668
0.000223214
0.000220792
0.000221655
0.000225185
0.000223673
0.000192554
0.000197828
0.000219137
0.000220411
0.000222607
0.000199336
0.000199614
0.000199008
0.000224404
0.000224297
0.000223535
0.00022098
0.000199543
0.000195769
0.000223868
0.000222604
0.000224336
0.000225441
0.000223879
0.00022072
0.000222855
0.000198582
0.00020077
0.000223401
0.000225403
0.00022385
0.000198559
0.000198709
0.000198919
0.000223051
0.000220524
0.000222852
0.000222151
0.000195322
0.000198789
0.000224131
0.000225645
0.000223994
0.000225478
0.000222177
0.000221758
0.000221648
0.000200668
0.000200437
0.000223511
0.000225307
0.000223052
0.000197908
0.000199204
0.000201587
0.000223464
0.000224252
0.000226781
0.000229335
0.000199872
0.000204825
0.000224222
0.000225318
0.000226084
0.000225776
0.000222447
0.000229493
0.000227329
0.000200279
0.000200879
0.000223276
0.000225835
0.000226578
0.000202239
0.000201531
0.000200712
0.000227328
0.000230044
0.000227475
0.000228465
0.000204834
0.000201585
0.000226436
0.000226007
0.000226481
0.000225744
0.000228238
0.000228986
0.000228757
0.000200777
0.000200194
0.000227306
0.000226182
0.000227795
0.00020158
0.000200339
0.000198947
0.000226458
0.000226548
0.000224149
0.000222572
0.000200657
0.000196918
0.000225906
0.000225287
0.000224736
0.000224719
0.000227309
0.000222801
0.000224085
0.000199854
0.000199046
0.000226712
0.000224701
0.000224423
0.000198525
0.000198757
0.000200329
0.000223955
0.000222104
0.00022471
0.000223307
0.000196559
0.000198964
0.000224701
0.000224865
0.000225818
0.000227014
0.000223855
0.000223263
0.000224787
0.000199104
0.00020158
0.000224331
0.00022687
0.000225763
0.000200494
0.00020064
0.000202369
0.000225958
0.000225174
0.000228744
0.000229633
0.000199794
0.000203661
0.000226591
0.000227438
0.000228296
0.000227808
0.000225979
0.000229221
0.000228137
0.000201626
0.000201141
0.000226689
0.000227982
0.000228227
0.000201989
0.000202191
0.000200441
0.000229065
0.000230153
0.00022766
0.000228274
0.000203631
0.000200858
0.000228388
0.000227169
0.000226977
0.000225993
0.000228268
0.000228073
0.000226663
0.000200724
0.000199573
0.000228127
0.00022604
0.000226278
0.000199733
0.000200138
0.000199668
0.0002269
0.000226852
0.000225548
0.000224682
0.000200202
0.000198452
0.00022668
0.000226082
0.000226221
0.000227162
0.000226265
0.000225011
0.00022634
0.000199498
0.000201071
0.000226085
0.000227177
0.000226671
0.000200356
0.0001995
0.000201779
0.000225407
0.000224648
0.000229026
0.000229162
0.000198324
0.000202188
0.000226093
0.000227313
0.000229507
0.000230539
0.000226526
0.000229621
0.000230857
0.000201031
0.000202682
0.000226883
0.000230763
0.000231084
0.000203397
0.000204327
0.00022822
0.000228821
0.00020499
0.000228469
0.00022899
0.000251815
0.000252986
0.000253336
0.00022983
0.000204835
0.00022977
8.68521e-06
1.95474e-06
3.11134e-06
3.94477e-06
1.18187e-05
2.07047e-06
5.65649e-07
1.46751e-06
4.85536e-07
2.47953e-06
1.26772e-06
1.10827e-06
2.28296e-06
1.68044e-06
2.86254e-06
1.00618e-06
1.37721e-05
8.72042e-07
1.55473e-05
1.05498e-05
1.2801e-05
1.33811e-06
1.34321e-05
1.25442e-06
1.5176e-05
2.23497e-06
2.3848e-06
2.28733e-06
2.26371e-06
2.23226e-06
2.37465e-06
2.292e-06
4.00601e-05
3.08046e-07
1.96175e-06
1.75903e-06
2.27639e-05
4.11838e-07
1.73159e-06
1.09617e-05
1.3259e-05
6.25966e-07
1.4014e-06
5.68014e-07
2.14101e-06
5.64755e-07
1.40489e-06
7.03716e-07
1.50513e-06
1.52454e-06
2.28268e-06
1.70835e-06
1.74302e-06
1.38241e-06
1.88526e-05
1.23648e-06
2.11928e-05
1.68268e-05
1.90666e-05
1.53021e-06
1.84505e-05
1.45559e-06
2.08487e-05
2.23265e-06
2.3761e-06
2.29634e-06
2.26969e-06
2.23301e-06