/*--------------------------------*- C++ -*----------------------------------*\
| =========                 |                                                 |
| \\      /  F ield         | OpenFOAM: The Open Source CFD Toolbox           |
|  \\    /   O peration     | Version:  v2006                                 |
|   \\  /    A nd           | Website:  www.openfoam.com                      |
|    \\/     M anipulation  |                                                 |
\*---------------------------------------------------------------------------*/
FoamFile
{
    version     2.0;
    format      ascii;
    class       volScalarField;
    location    "375";
    object      p;
}
// * * * * * * * * * * * * * * * * * * * * * * * * * * * * * * * * * * * * * //

dimensions      [0 2 -2 0 0 0 0];


internalField   nonuniform List<scalar> 
14457
(
0.00344148
0.0034415
0.00344427
0.0034415
0.0034415
0.0034415
0.00344427
0.00344435
0.00344521
0.00344435
0.00344521
0.00344148
0.00344415
0.00344476
0.00344415
0.00344415
0.0034448
0.0034448
0.00344476
0.00344145
0.00344448
0.00344476
0.00344145
0.00344448
0.00344435
0.00344521
0.00344145
0.00344476
0.00344448
0.0034448
0.0034448
0.00344415
0.00344435
0.00343792
0.00344458
0.00343789
0.00344439
0.00343809
0.00343795
0.00343871
0.00344447
0.003445
0.00344443
0.00343799
0.00343851
0.00343792
0.00344458
0.00343788
0.00344439
0.00343809
0.00343795
0.00343871
0.003445
0.00344447
0.00344443
0.00343851
0.00343799
0.00343769
0.00343769
0.00343769
0.00343806
0.00344437
0.00344418
0.0034383
0.00344451
0.00343772
0.00343791
0.00343806
0.00344437
0.00344418
0.0034383
0.00344451
0.00343772
0.00343791
0.00343805
0.00344415
0.00344415
0.00344455
0.0034377
0.00343792
0.00344458
0.00343788
0.00344439
0.00343809
0.00343795
0.00343871
0.00344447
0.003445
0.00343799
0.00344443
0.00343851
0.00343806
0.00344437
0.00344418
0.0034383
0.00343772
0.00344451
0.00343791
0.00343806
0.00344437
0.00344418
0.0034383
0.00343791
0.00344451
0.00343772
0.00343805
0.00344416
0.00344416
0.00344455
0.00343769
0.00343769
0.00343792
0.00344458
0.00343788
0.00343809
0.00344439
0.00344155
0.00344155
0.00344155
0.0034382
0.00344449
0.00344449
0.00343816
0.00344447
0.00343822
0.00343822
0.0034382
0.00344449
0.00344449
0.00343816
0.00343822
0.00344447
0.00343822
0.00344155
0.00344155
0.00344155
0.00343819
0.00344446
0.00344443
0.00343834
0.00344454
0.00343806
0.00343806
0.00343819
0.00344446
0.00344443
0.00343806
0.00344454
0.00343806
0.00343832
0.00343813
0.0034445
0.00344469
0.00343814
0.00344462
0.00343838
0.00343819
0.00344446
0.00344443
0.00343835
0.00343806
0.00344454
0.00343805
0.00343832
0.00343813
0.0034445
0.00344469
0.00343814
0.00344462
0.00343838
0.00343819
0.00344446
0.00344443
0.00343834
0.00344454
0.00343806
0.00343806
0.00343832
0.00343813
0.00344469
0.0034445
0.00344462
0.00343814
0.00359998
0.00360031
0.00360031
0.00360336
0.00354462
0.00354504
0.00354504
0.00354803
0.00361339
0.00361361
0.00361361
0.00361338
0.00361361
0.00361361
0.00361437
0.00361437
0.00361438
0.00361438
0.00361361
0.00361361
0.00361339
0.00361361
0.00361361
0.00361339
0.00360336
0.0035546
0.0036003
0.0036003
0.00355688
0.00355688
0.00360336
0.0035546
0.00360031
0.00360031
0.00355688
0.00355688
0.00360031
0.00355688
0.00355688
0.00360336
0.0035546
0.00360031
0.00355688
0.00355688
0.0035546
0.00354803
0.00354505
0.00354504
0.00354803
0.00354504
0.00354504
0.00354504
0.00354803
0.00354504
0.00362176
0.00363152
0.00362632
0.00362632
0.00364871
0.00363549
0.00366409
0.00362953
0.00364871
0.00363549
0.00362954
0.0036641
0.00364006
0.00366783
0.00366783
0.00357711
0.00359625
0.00360546
0.00356919
0.00356994
0.00357269
0.0035771
0.00359624
0.00360545
0.00356918
0.00359998
0.00359998
0.00359998
0.00355658
0.00355658
0.00355657
0.00355657
0.00357462
0.00360044
0.00360038
0.00358345
0.00360347
0.00357353
0.00358433
0.00357005
0.00357269
0.00357463
0.00360038
0.00360044
0.00358345
0.00360347
0.00358433
0.00357353
0.00360632
0.00360632
0.00357784
0.00357316
0.00357317
0.00353049
0.00354977
0.00355113
0.00352903
0.00354869
0.00352858
0.00353049
0.00354977
0.00355113
0.00352902
0.00354462
0.00354462
0.00354462
0.00352907
0.00354984
0.00354462
0.00353275
0.00354863
0.00352961
0.00353248
0.00354867
0.00352858
0.00352907
0.00354462
0.00354984
0.00353275
0.00354863
0.00353248
0.00352961
0.00355086
0.00355086
0.0035293
0.00352994
0.00352995
0.00364005
0.00366783
0.00366783
0.00363215
0.00366737
0.00363215
0.00366737
0.00363691
0.00362395
0.00362397
0.00366264
0.00366264
0.00364869
0.00363549
0.00366409
0.00362953
0.00364869
0.00363549
0.00366408
0.00362953
0.00365321
0.00362423
0.0036645
0.00361907
0.00365321
0.00362424
0.00366449
0.00361906
0.00364429
0.00363301
0.00361543
0.00361583
0.00365936
0.00362797
0.00361606
0.00364429
0.00363301
0.00361543
0.00361583
0.00365936
0.00362797
0.00361605
0.00364005
0.00366782
0.00366783
0.00363215
0.00366735
0.00363691
0.00362395
0.00362398
0.00366264
0.00366265
0.00363216
0.00366737
0.0036487
0.00363549
0.00366409
0.00362953
0.0036487
0.00363549
0.00362953
0.00366409
0.00365323
0.00362425
0.0036645
0.00361907
0.00364431
0.00363301
0.00361543
0.00361584
0.00365937
0.00362797
0.00361606
0.00365323
0.00362427
0.0036645
0.00361906
0.0036443
0.00363302
0.00361584
0.00361543
0.00362797
0.00365937
0.00361606
0.00362176
0.00363152
0.00362632
0.00362632
0.00362176
0.00363153
0.00362633
0.00362633
0.00362176
0.00363153
0.00362633
0.00362633
0.00362053
0.00362961
0.00361249
0.00361249
0.00362489
0.00362489
0.00361067
0.00362053
0.00362961
0.00361249
0.00361249
0.00362489
0.00362489
0.00361067
0.00362053
0.00362961
0.00361249
0.0036125
0.00362489
0.00362489
0.00361067
0.00362053
0.00362961
0.00361249
0.0036125
0.00362489
0.00362489
0.00361067
0.00364871
0.00363549
0.00362953
0.00366409
0.00364431
0.00363301
0.00361543
0.00361584
0.00365937
0.00362797
0.00361607
0.00365323
0.00362424
0.0036645
0.00361907
0.00364431
0.00363302
0.00361584
0.00361543
0.00362797
0.00365937
0.00361606
0.00365323
0.00362427
0.0036645
0.00361906
0.00364006
0.00366783
0.00366784
0.00363216
0.00366737
0.00363691
0.00362397
0.00362396
0.00366264
0.00366265
0.00363212
0.00366738
0.00364871
0.00363549
0.00362954
0.00366409
0.00364431
0.00363302
0.00361584
0.00361543
0.00362798
0.00365937
0.00361607
0.00364431
0.00363301
0.00361584
0.00361544
0.00362798
0.00365937
0.00361607
0.00365323
0.00362426
0.00366451
0.00361908
0.00365323
0.00362425
0.0036645
0.00361907
0.00363691
0.00362398
0.00362398
0.00366264
0.00366264
0.00363217
0.00366737
0.00363216
0.00366737
0.00356994
0.00357269
0.00357005
0.00357265
0.00360627
0.00360631
0.00357786
0.00357315
0.00357315
0.00355545
0.00357236
0.00355546
0.00357232
0.0035712
0.00355805
0.00355806
0.00357131
0.0035713
0.00357712
0.00359625
0.00360546
0.00356921
0.00357463
0.00360044
0.00360038
0.00358344
0.00360347
0.00357353
0.00358433
0.00357464
0.00360045
0.00360038
0.00358344
0.00360347
0.00357353
0.00358433
0.00357257
0.00355718
0.0035701
0.00355793
0.00357257
0.00355718
0.0035701
0.00355793
0.00356961
0.00356914
0.00355687
0.00355662
0.00357069
0.00356955
0.00355521
0.00356962
0.00356914
0.00355687
0.00355662
0.00357069
0.00356955
0.0035552
0.00360628
0.00360632
0.00357786
0.00357315
0.00357316
0.00357005
0.00357268
0.00355546
0.00357233
0.0035712
0.00355806
0.00355806
0.0035713
0.0035713
0.00355546
0.00357234
0.00357462
0.00360045
0.00360038
0.00358345
0.00360347
0.00357352
0.00358433
0.00357711
0.00359627
0.00360544
0.0035692
0.00357463
0.00360038
0.00360044
0.00358344
0.00360347
0.00358433
0.00357352
0.00357256
0.00355718
0.00357009
0.00355793
0.0035696
0.00356914
0.00355687
0.00355661
0.00357068
0.00356955
0.00355521
0.00357257
0.00355718
0.0035701
0.00355793
0.00356961
0.00356914
0.00355661
0.00355686
0.00356955
0.00357068
0.00355521
0.0035771
0.00359624
0.00360544
0.00356919
0.00357463
0.00360038
0.00360045
0.00358344
0.00360346
0.00358433
0.00357352
0.00357711
0.00359627
0.00360544
0.0035692
0.0035696
0.00356914
0.00355686
0.00355661
0.00357068
0.00356955
0.00355521
0.00357257
0.00355718
0.0035701
0.00355792
0.00356961
0.00356914
0.00355661
0.00355686
0.00356955
0.00357068
0.00355521
0.00357257
0.00355718
0.00357009
0.00355793
0.00360631
0.00360631
0.00357786
0.00357316
0.00357317
0.00357003
0.0035727
0.00355545
0.00357235
0.0035712
0.00355806
0.00355805
0.00357131
0.00357132
0.00355543
0.00357237
0.00357463
0.00360038
0.00360045
0.00358345
0.00360347
0.00358433
0.00357353
0.00357711
0.00359626
0.00360545
0.00356921
0.00357711
0.00359627
0.00360545
0.0035692
0.0035696
0.00356914
0.00355661
0.00355686
0.00356955
0.00357069
0.0035552
0.00356961
0.00356914
0.00355661
0.00355686
0.00356955
0.00357069
0.0035552
0.00357257
0.00355717
0.00357011
0.00355792
0.00357257
0.00355717
0.0035701
0.00355792
0.00357008
0.00357269
0.00357008
0.00357269
0.0035712
0.00355805
0.00355805
0.00357131
0.00357131
0.00355545
0.00357234
0.00355544
0.00357234
0.00354868
0.00352859
0.00354869
0.00352858
0.00355086
0.00355087
0.0035293
0.00352995
0.00352995
0.00352216
0.00352215
0.00352251
0.00352349
0.00352349
0.00353049
0.00354976
0.00355113
0.00352903
0.00352908
0.00354985
0.00354462
0.00353276
0.00354863
0.00352962
0.00353248
0.00352908
0.00354985
0.00354462
0.00353275
0.00354863
0.00352962
0.00353248
0.00352396
0.00352265
0.00352396
0.00352265
0.00352254
0.00351999
0.00352317
0.00351985
0.00352254
0.00351999
0.00352317
0.00351985
0.00355087
0.00355087
0.0035293
0.00352995
0.00352995
0.00354868
0.00352858
0.00352216
0.00352251
0.00352349
0.00352349
0.00352215
0.00352907
0.00354985
0.00354462
0.00353275
0.00354863
0.00352961
0.00353248
0.00353049
0.00354976
0.00355113
0.00352902
0.00352907
0.00354462
0.00354984
0.00353275
0.00354863
0.00353248
0.00352961
0.00352396
0.00352265
0.00352254
0.00351999
0.00352316
0.00351985
0.00352396
0.00352265
0.00352254
0.00351999
0.00351985
0.00352316
0.00353049
0.00354976
0.00355112
0.00352902
0.00352907
0.00354462
0.00354984
0.00353275
0.00354863
0.00353248
0.00352961
0.00353049
0.00354976
0.00355113
0.00352902
0.00352254
0.00351999
0.00352316
0.00351985
0.00352396
0.00352265
0.00352254
0.00351999
0.00351985
0.00352316
0.00352396
0.00352264
0.00355086
0.00355085
0.0035293
0.00352994
0.00352994
0.00354866
0.00352858
0.00352215
0.0035225
0.00352348
0.00352349
0.00352215
0.00352907
0.00354462
0.00354984
0.00353275
0.00354863
0.00353248
0.00352961
0.00353048
0.00354975
0.00355112
0.00352902
0.00353048
0.00354976
0.00355112
0.00352902
0.00351999
0.00352316
0.00351999
0.00352316
0.00352265
0.00352265
0.00354867
0.00352858
0.00354867
0.00352858
0.0035225
0.00352348
0.00352349
0.00352215
0.00352215
0.00365678
0.00367115
0.00367151
0.0036568
0.00367116
0.00367153
0.00367153
0.00367153
0.00365678
0.00367114
0.00367153
0.0036568
0.00367116
0.00365681
0.00367116
0.00365681
0.00367116
0.00367154
0.0036568
0.00367117
0.0036568
0.00367116
0.00367153
0.00367153
0.00362251
0.00362251
0.00362327
0.0036288
0.0036288
0.00362629
0.00362397
0.00362714
0.00362475
0.00362398
0.00362714
0.00362475
0.00365301
0.00364017
0.00364168
0.00364125
0.00363233
0.00363735
0.00365525
0.00364826
0.00364441
0.00363403
0.00363042
0.00363509
0.00364017
0.00365301
0.00364168
0.00363233
0.00364126
0.00363735
0.00363403
0.00363043
0.00363509
0.00365526
0.00364826
0.00364441
0.00367666
0.00367664
0.00366888
0.00364664
0.00364664
0.00365762
0.00368041
0.00365127
0.00366322
0.00368041
0.00365127
0.00366322
0.0035717
0.00358369
0.00357008
0.0035753
0.00357208
0.00358021
0.00357201
0.00354998
0.00360607
0.00357655
0.00356103
0.00358481
0.00357627
0.00359336
0.00359283
0.00360229
0.0035924
0.00357909
0.0035891
0.00356724
0.00357175
0.00356891
0.00357382
0.00357504
0.00355676
0.0035664
0.00357167
0.00358367
0.00357529
0.00357007
0.00358019
0.00357205
0.00357199
0.00355
0.00360606
0.00357655
0.00356094
0.0035848
0.0035762
0.00359334
0.00360228
0.00359279
0.00359235
0.00358908
0.00357903
0.00356721
0.00357174
0.00356891
0.00357382
0.003575
0.00355681
0.00356642
0.00357558
0.00357356
0.00357355
0.00356925
0.00356924
0.0035734
0.00358712
0.00360419
0.00359519
0.00358883
0.00360218
0.00358976
0.00357929
0.00358712
0.00360419
0.00359519
0.00358883
0.00360218
0.00358976
0.00357929
0.00358422
0.00357497
0.003575
0.00360152
0.00356221
0.00356222
0.00357726
0.00357074
0.00357774
0.00357233
0.00357845
0.00357211
0.00357296
0.00357725
0.00357074
0.00357775
0.00357232
0.00357845
0.00357211
0.00357295
0.00353566
0.00353714
0.00352887
0.00353012
0.00353544
0.0035367
0.00352909
0.00354235
0.00355061
0.0035425
0.00354904
0.00354331
0.00354252
0.00354413
0.00354948
0.00355057
0.00354951
0.00354237
0.0035436
0.00353551
0.00352971
0.00353555
0.00353632
0.00352891
0.00354191
0.00353512
0.00353565
0.00353714
0.00353011
0.00352887
0.0035367
0.00353543
0.00352908
0.00354234
0.00355062
0.0035425
0.00354903
0.00354331
0.00354251
0.00354412
0.00355057
0.00354948
0.0035495
0.0035436
0.00354236
0.0035355
0.00352971
0.00353555
0.00353632
0.00352891
0.0035419
0.00353512
0.00353637
0.00352866
0.00352866
0.00353519
0.00353519
0.00352977
0.0035425
0.00354875
0.00354952
0.0035436
0.00354941
0.00354197
0.00354242
0.0035425
0.00354874
0.00354952
0.0035436
0.00354941
0.00354197
0.00354242
0.00354328
0.00354877
0.00354877
0.00355044
0.00354198
0.00354198
0.00353573
0.00352893
0.00353658
0.00352892
0.00353533
0.00353549
0.00352929
0.00353573
0.00352893
0.00353658
0.00352892
0.00353533
0.00353549
0.00352929
0.00367661
0.00367666
0.00366887
0.00364663
0.00364664
0.00365761
0.00368042
0.00365127
0.00366321
0.00368046
0.00365127
0.00366321
0.00364731
0.00364916
0.00364729
0.00364916
0.00364346
0.00367687
0.00367692
0.00366359
0.0036228
0.0036228
0.00363981
0.00363087
0.00364241
0.00364241
0.00364881
0.00363493
0.00363493
0.00363084
0.00361689
0.00363435
0.00361697
0.00363186
0.00362747
0.00361762
0.00363085
0.00361689
0.00363434
0.00361702
0.00363183
0.00362747
0.00361762
0.0036427
0.00367479
0.00364865
0.00364483
0.0036588
0.00363632
0.0036404
0.0036427
0.00367478
0.00364865
0.00364482
0.0036588
0.00363629
0.0036404
0.00363485
0.00363238
0.00363243
0.00362868
0.00362865
0.00362311
0.003653
0.00364016
0.00364167
0.00364125
0.00363233
0.00363734
0.00365524
0.00364826
0.0036444
0.00363402
0.00363042
0.00363509
0.00365299
0.00364015
0.00364166
0.00364125
0.00363233
0.00363734
0.00365524
0.00364825
0.0036444
0.00363402
0.00363042
0.00363509
0.00364287
0.00365861
0.00365509
0.00364106
0.00363762
0.00364152
0.00364097
0.00362921
0.00365338
0.00364067
0.00365666
0.00364919
0.00364599
0.00360777
0.0036333
0.00361227
0.00361751
0.00362125
0.00363395
0.00363057
0.0036428
0.0036586
0.00365508
0.00364106
0.00363762
0.00364153
0.00364096
0.00362919
0.00364065
0.0036533
0.00365666
0.00364918
0.00364598
0.00360785
0.00363329
0.00361226
0.00361753
0.00363395
0.0036306
0.00362121
0.00363149
0.00364582
0.00363721
0.0036374
0.00363822
0.00363768
0.00363099
0.00362878
0.00362762
0.00363775
0.00363031
0.0036314
0.00363458
0.00362538
0.00363327
0.00365171
0.00364468
0.00364432
0.00363625
0.00364056
0.00364005
0.00362712
0.00363195
0.00362873
0.00362399
0.00363282
0.00362657
0.00362441
0.00363149
0.00364582
0.00363721
0.0036374
0.00363822
0.00363768
0.00363099
0.00362878
0.00362762
0.00363775
0.0036303
0.00363458
0.0036314
0.00362538
0.00363327
0.0036517
0.00364468
0.00364432
0.00364056
0.00364005
0.00363625
0.00362712
0.00363195
0.00362872
0.00362399
0.00363282
0.00362657
0.00362441
0.00367664
0.00367665
0.00366886
0.00364663
0.00364664
0.00365761
0.00368045
0.00365126
0.00366321
0.00368046
0.00365127
0.00366321
0.00364732
0.00364916
0.00364345
0.00367688
0.00367684
0.00366359
0.00362278
0.0036227
0.0036398
0.00363087
0.00364241
0.00364241
0.00363493
0.00364881
0.00363493
0.00363084
0.00361689
0.00363434
0.00361697
0.00362747
0.00363185
0.00361762
0.00363084
0.00361689
0.00363433
0.00361702
0.00363183
0.00362747
0.00361761
0.00364269
0.00367479
0.00364864
0.00364483
0.00364039
0.0036588
0.00363631
0.0036427
0.00367478
0.00364865
0.00364481
0.0036588
0.00363626
0.0036404
0.00363484
0.00363237
0.00363242
0.00362867
0.00362862
0.00362311
0.00364729
0.00364915
0.00365301
0.00364016
0.00364167
0.00364125
0.00363233
0.00363735
0.00365525
0.00364826
0.00364441
0.00363403
0.00363042
0.00363509
0.00364016
0.00365301
0.00364167
0.00363233
0.00364125
0.00363735
0.00363403
0.00363043
0.00363509
0.00365525
0.00364826
0.00364441
0.00364293
0.0036551
0.00365869
0.00364109
0.00364155
0.00363767
0.00364097
0.00362922
0.00365346
0.0036407
0.00365667
0.00364919
0.00364601
0.00360784
0.00363333
0.00361751
0.00361228
0.0036213
0.0036306
0.00363403
0.0036315
0.00364583
0.00363722
0.00363742
0.00363822
0.00363769
0.003631
0.00362878
0.00362762
0.00363775
0.00363031
0.0036314
0.00363458
0.00362538
0.00363328
0.00365172
0.00364468
0.00364432
0.00363626
0.00364057
0.00364006
0.00362713
0.00363196
0.00362873
0.003624
0.00363282
0.00362658
0.00362441
0.00364289
0.00365868
0.00365509
0.00364108
0.00363766
0.00364155
0.00364097
0.00362921
0.00364068
0.00365344
0.00365667
0.00364919
0.003646
0.00360775
0.00363332
0.00361228
0.00361753
0.00363403
0.00363061
0.0036213
0.0036315
0.00363722
0.00364583
0.00363741
0.00363822
0.003631
0.00363769
0.00362878
0.00362762
0.00363031
0.00363775
0.00363458
0.00362538
0.0036314
0.00362713
0.00363196
0.00362873
0.003624
0.00363282
0.00362658
0.00362441
0.00363328
0.00365172
0.00364468
0.00364432
0.00364057
0.00364005
0.00363626
0.00362251
0.00362251
0.00362327
0.00362879
0.0036288
0.00362629
0.00362397
0.00362714
0.00362475
0.00362398
0.00362714
0.00362475
0.00362251
0.00362251
0.00362327
0.0036288
0.0036288
0.00362629
0.00362398
0.00362714
0.00362476
0.00362398
0.00362714
0.00362476
0.00362251
0.00362251
0.00362327
0.0036288
0.0036288
0.00362629
0.00362398
0.00362714
0.00362476
0.00362398
0.00362714
0.00362476
0.00361866
0.00362123
0.00362123
0.00361757
0.00362195
0.00361812
0.00361812
0.00362152
0.00362472
0.00362717
0.00362717
0.00362494
0.00362304
0.00362304
0.0036201
0.00362269
0.00362562
0.00362119
0.00362342
0.00362171
0.00361955
0.0036201
0.00362269
0.00362563
0.00362119
0.00362342
0.00362171
0.00361955
0.00361866
0.00362123
0.00362123
0.00361758
0.00362195
0.00361812
0.00361812
0.00362152
0.00362472
0.00362717
0.00362717
0.00362304
0.00362494
0.00362304
0.0036201
0.00362269
0.00362562
0.00362119
0.00362171
0.00362342
0.00361955
0.0036201
0.00362269
0.00362563
0.00362119
0.00362342
0.00361955
0.00362171
0.00361867
0.00362123
0.00362123
0.00361758
0.00362195
0.00361812
0.00361812
0.00362152
0.00362472
0.00362718
0.00362718
0.00362304
0.00362494
0.00362304
0.0036201
0.00362269
0.00362563
0.00362119
0.00362171
0.00362343
0.00361955
0.0036201
0.00362269
0.00362563
0.00362119
0.00362343
0.00361955
0.00362171
0.00361867
0.00362123
0.00362123
0.00361758
0.00362195
0.00361812
0.00361812
0.00362152
0.00362472
0.00362718
0.00362718
0.00362494
0.00362304
0.00362304
0.0036201
0.00362269
0.00362563
0.00362119
0.00362343
0.00361955
0.00362171
0.0036201
0.00362269
0.00362563
0.00362119
0.00362343
0.00361955
0.00362171
0.00364017
0.00365301
0.00364168
0.00363233
0.00364125
0.00363735
0.00363403
0.00363043
0.00363509
0.00365525
0.00364826
0.00364441
0.0036315
0.00364583
0.00363722
0.00363742
0.00363823
0.00363769
0.003631
0.00362878
0.00362762
0.00363775
0.00363031
0.00363458
0.0036314
0.00362538
0.00363328
0.00365172
0.00364468
0.00364432
0.00364057
0.00363626
0.00364006
0.00362713
0.00363196
0.00362873
0.003624
0.00363282
0.00362441
0.00362658
0.00364297
0.0036551
0.0036587
0.00364109
0.00364154
0.00363769
0.00364097
0.00362922
0.00364069
0.00365347
0.00365668
0.00364919
0.00364601
0.00360782
0.00363333
0.00361751
0.00361227
0.00363059
0.00363406
0.00362128
0.0036315
0.00363722
0.00364583
0.00363742
0.00363823
0.003631
0.00363769
0.00362878
0.00362762
0.00363031
0.00363775
0.00362538
0.00363458
0.0036314
0.00362713
0.00363196
0.00362873
0.003624
0.00362441
0.00363283
0.00362658
0.00363328
0.00365172
0.00364468
0.00364432
0.00364057
0.00364006
0.00363626
0.00364287
0.00365867
0.0036551
0.00364109
0.0036377
0.00364155
0.00364096
0.00362921
0.00364067
0.00365346
0.00365667
0.00364918
0.003646
0.00360791
0.00363333
0.00361227
0.00361754
0.00363405
0.00363062
0.00362126
0.0036767
0.00367677
0.00366888
0.00364664
0.00364664
0.00365762
0.00368047
0.00365127
0.00366322
0.00368051
0.00365127
0.00366322
0.00364729
0.00364916
0.00364347
0.0036769
0.00367693
0.0036636
0.00362285
0.00362275
0.00363981
0.00363088
0.00364242
0.00364242
0.00363493
0.00364882
0.00363493
0.00363085
0.00361689
0.00363434
0.00361701
0.00362747
0.00363185
0.00361762
0.00363085
0.00361689
0.00363433
0.00361701
0.00363185
0.00362747
0.00361761
0.00364271
0.00367476
0.00364865
0.00364482
0.0036404
0.00365881
0.00363632
0.00364271
0.00367481
0.00364865
0.00364482
0.00365881
0.00363628
0.0036404
0.00363487
0.00363244
0.00363242
0.00362868
0.00362868
0.00362311
0.00364729
0.00364915
0.00364017
0.00365301
0.00364168
0.00363233
0.00364125
0.00363735
0.00363403
0.00363043
0.00363509
0.00365525
0.00364826
0.00364441
0.0036315
0.00363723
0.00364583
0.00363742
0.00363823
0.003631
0.00363769
0.00362878
0.00362763
0.00363031
0.00363775
0.00363458
0.00362539
0.00363141
0.00362713
0.00363196
0.00362873
0.003624
0.00363283
0.00362441
0.00362658
0.00363328
0.00365172
0.00364469
0.00364433
0.00364057
0.00363626
0.00364006
0.0036315
0.00363722
0.00364583
0.00363742
0.00363823
0.003631
0.00363769
0.00362878
0.00362762
0.00363031
0.00363775
0.00362538
0.00363458
0.0036314
0.00362713
0.00363196
0.00362873
0.003624
0.00362441
0.00363283
0.00362658
0.00363328
0.00365172
0.00364468
0.00364432
0.00364057
0.00364006
0.00363626
0.00364298
0.0036551
0.0036587
0.00364109
0.00364155
0.00363765
0.00364097
0.00362922
0.0036407
0.00365348
0.00365668
0.00364919
0.00364601
0.00360783
0.00363333
0.00361751
0.00361229
0.0036306
0.00363404
0.00362129
0.00364286
0.0036551
0.00365869
0.00364108
0.00364155
0.00363765
0.00364096
0.00362921
0.00364067
0.00365346
0.00365667
0.00364918
0.003646
0.00360783
0.00363332
0.00361754
0.00361229
0.00363062
0.00363404
0.0036213
0.00364346
0.00367692
0.00367684
0.0036636
0.00362273
0.00362273
0.00363981
0.00363088
0.00364242
0.00364242
0.00364882
0.00363493
0.00363493
0.00363084
0.00361689
0.00363433
0.00361702
0.00361761
0.00362747
0.00363183
0.00363084
0.00361689
0.00363433
0.00361701
0.00361761
0.00362747
0.00363184
0.0036427
0.00367479
0.00364865
0.00364481
0.00365881
0.00364039
0.00363629
0.0036427
0.00367478
0.00364865
0.00364481
0.00365881
0.0036404
0.00363628
0.00363485
0.00363245
0.00363241
0.00362311
0.00362865
0.00362869
0.00364728
0.00364915
0.00364728
0.00364914
0.00355673
0.00356637
0.00355686
0.00356639
0.00357557
0.00357352
0.00357351
0.00356922
0.0035692
0.00357338
0.00358713
0.00360419
0.00359516
0.00358879
0.00360219
0.00357927
0.00358975
0.00358711
0.00360419
0.00359522
0.00358882
0.00360218
0.0035793
0.00358976
0.00358423
0.00357504
0.00357505
0.00360154
0.00356222
0.00356221
0.00357726
0.00357073
0.00357772
0.00357231
0.0035721
0.00357295
0.00357843
0.00357724
0.00357071
0.00357774
0.00357231
0.00357209
0.00357293
0.00357844
0.00356196
0.00356803
0.00356197
0.00356802
0.00356941
0.00357228
0.0035723
0.00357226
0.00356775
0.00356777
0.00356277
0.00355549
0.00356428
0.00355664
0.00356294
0.00356149
0.00355646
0.00356277
0.00355549
0.00356428
0.00355664
0.00356295
0.00356148
0.00355645
0.00356773
0.00357009
0.00356919
0.0035688
0.0035707
0.0035677
0.00356611
0.00356772
0.00357008
0.00356918
0.00356879
0.00357069
0.0035677
0.0035661
0.00356429
0.00355552
0.00355551
0.00356187
0.00356187
0.00355769
0.00357173
0.00358369
0.0035701
0.00357531
0.0035721
0.00358021
0.00357204
0.00355009
0.00360608
0.00357656
0.00356104
0.00358484
0.00357627
0.00359336
0.00359283
0.00360231
0.0035791
0.00359236
0.00358911
0.00356726
0.00357177
0.00356894
0.00357385
0.00357504
0.00356824
0.00356918
0.00357202
0.00356862
0.00357132
0.00356695
0.00356846
0.00356165
0.00356376
0.00355804
0.00355552
0.00356469
0.00356779
0.0035716
0.00356844
0.00357312
0.0035695
0.00356297
0.0035638
0.0035565
0.00355745
0.00355652
0.00356256
0.00356353
0.00356824
0.00356918
0.00357202
0.00356862
0.00357133
0.00356695
0.00356846
0.00356165
0.00356375
0.00355804
0.00356468
0.0035555
0.00356781
0.0035716
0.00356844
0.00357313
0.0035695
0.00356297
0.0035638
0.0035565
0.00355744
0.00356256
0.00356353
0.00355651
0.00357558
0.00357351
0.00357352
0.00356923
0.00356923
0.00357339
0.00358713
0.00360419
0.00359518
0.00358879
0.0035793
0.0036022
0.00358976
0.00358712
0.00360419
0.00359521
0.00358883
0.00358976
0.00360218
0.0035793
0.00358424
0.00357507
0.00357505
0.00356225
0.00360155
0.00356224
0.00357726
0.00357073
0.00357773
0.00357231
0.00357211
0.00357844
0.00357295
0.00357726
0.00357072
0.00357774
0.00357232
0.00357845
0.0035721
0.00357294
0.00355684
0.00356639
0.00356196
0.00356801
0.00356941
0.00357228
0.0035723
0.00357227
0.00356776
0.00356775
0.00356277
0.00355549
0.00356428
0.00355664
0.00356148
0.00356294
0.00355646
0.00356277
0.00355549
0.00356428
0.00355664
0.00356295
0.00356149
0.00355645
0.00356773
0.00357008
0.00356918
0.00356879
0.00356611
0.0035707
0.00356769
0.00356772
0.00357008
0.00356919
0.0035688
0.00357069
0.00356769
0.00356611
0.00356429
0.00355552
0.00355552
0.00356186
0.00356187
0.00355769
0.00356197
0.00356803
0.00357169
0.00358367
0.00357007
0.00357529
0.00357206
0.00358019
0.00357201
0.00355001
0.00360607
0.00357656
0.00356096
0.00358482
0.00357622
0.00359334
0.00359281
0.00360228
0.00357906
0.00359236
0.00358908
0.00356727
0.00357177
0.00356892
0.00357384
0.00357505
0.00356825
0.00357201
0.00356917
0.00356862
0.00357131
0.00356846
0.00356695
0.00356168
0.00356376
0.00355805
0.00355552
0.00356469
0.00356781
0.00357159
0.00356844
0.00357312
0.0035695
0.00356298
0.0035638
0.00355745
0.0035565
0.00355652
0.00356353
0.00356257
0.00356825
0.00356918
0.00357201
0.00356862
0.00357132
0.00356695
0.00356846
0.00356168
0.00356376
0.00355804
0.00356469
0.00355551
0.00356782
0.00357161
0.00356844
0.00357312
0.0035695
0.00356298
0.0035638
0.0035565
0.00355744
0.00356257
0.00356353
0.00355652
0.00357167
0.00358367
0.0035753
0.00357006
0.00358019
0.00357204
0.00357199
0.00354996
0.00360606
0.00357654
0.00358481
0.00356095
0.00357622
0.00359334
0.00360228
0.00359278
0.00358909
0.00359236
0.00357902
0.00356722
0.00357175
0.00356891
0.00357382
0.00357504
0.00357167
0.00358367
0.00357008
0.0035753
0.00357205
0.00358019
0.00357202
0.00354998
0.00360608
0.00357657
0.00356098
0.00358482
0.00357619
0.00359334
0.00359278
0.00360229
0.00359233
0.00357904
0.00358908
0.00356724
0.00357176
0.00356893
0.00357384
0.00357506
0.00356824
0.00357201
0.00356918
0.00356862
0.00357132
0.00356846
0.00356695
0.00356165
0.00356376
0.00355804
0.00356469
0.0035555
0.00356781
0.0035716
0.00356844
0.00357315
0.0035695
0.00356297
0.0035638
0.00355744
0.0035565
0.00356352
0.00356257
0.00355651
0.00356825
0.00356918
0.00357202
0.00356862
0.00357134
0.00356695
0.00356846
0.00356168
0.00356376
0.00355804
0.00356469
0.00355551
0.00356782
0.00357161
0.00356844
0.00357315
0.00356951
0.00356298
0.0035638
0.0035565
0.00355744
0.00356257
0.00356353
0.00355652
0.00357556
0.00357353
0.00357354
0.00356921
0.00356922
0.00357339
0.00358711
0.00360419
0.00359519
0.00358881
0.00357928
0.00360218
0.00358976
0.00358711
0.00360419
0.00359519
0.00358882
0.00358976
0.00360218
0.00357927
0.0035842
0.00357498
0.00357497
0.00356218
0.00360151
0.00356219
0.00357725
0.00357073
0.00357773
0.00357232
0.0035721
0.00357844
0.00357294
0.00357725
0.00357073
0.00357774
0.00357232
0.00357844
0.00357209
0.00357295
0.00355682
0.0035664
0.00356196
0.00356804
0.00356942
0.00357231
0.00357231
0.00357228
0.00356778
0.00356777
0.00356277
0.00355549
0.00356428
0.00355664
0.00356149
0.00356296
0.00355645
0.00356277
0.00355549
0.00356428
0.00355663
0.00356295
0.00356149
0.00355645
0.00356774
0.0035701
0.00356919
0.00356881
0.00356612
0.0035707
0.00356772
0.00356774
0.0035701
0.00356919
0.00356881
0.00357071
0.00356771
0.00356612
0.0035643
0.00355551
0.00355552
0.00356189
0.00356188
0.00355769
0.00356196
0.00356805
0.00357168
0.00358367
0.0035753
0.00357007
0.0035802
0.00357205
0.00357201
0.00354994
0.00360606
0.00357656
0.0035848
0.00356098
0.00357621
0.00359335
0.00360228
0.0035928
0.00358909
0.00359235
0.00357904
0.00356725
0.00357176
0.00356892
0.00357382
0.00357506
0.00357168
0.00358367
0.0035753
0.00357007
0.00358019
0.00357206
0.00357201
0.00354999
0.00360608
0.00357657
0.00356099
0.00358483
0.00357621
0.00359334
0.00360229
0.00359281
0.00359236
0.00358909
0.00357906
0.00356726
0.00357177
0.00356893
0.00357384
0.00357506
0.00356824
0.00357202
0.00356918
0.00356862
0.00357131
0.00356846
0.00356695
0.00356166
0.00356375
0.00355804
0.00356468
0.00355551
0.00356779
0.0035716
0.00356845
0.0035731
0.0035695
0.00356297
0.0035638
0.00355744
0.0035565
0.00356352
0.00356256
0.00355652
0.00356824
0.00357201
0.00356918
0.00356862
0.00357132
0.00356846
0.00356695
0.00356166
0.00356375
0.00355804
0.00356468
0.0035555
0.00356781
0.00357161
0.00356844
0.00357312
0.0035695
0.00356297
0.0035638
0.00355744
0.0035565
0.00356352
0.00356257
0.00355651
0.00355684
0.00356643
0.00355685
0.00356643
0.00356942
0.00357231
0.00357231
0.00357228
0.00356776
0.00356776
0.00356277
0.00355549
0.00356428
0.00355663
0.00355645
0.00356149
0.00356294
0.00356277
0.00355549
0.00356428
0.00355663
0.00355645
0.00356149
0.00356294
0.00356773
0.0035701
0.00356919
0.0035688
0.00357071
0.00356612
0.00356771
0.00356773
0.0035701
0.00356919
0.0035688
0.0035707
0.00356611
0.00356771
0.00356429
0.00355551
0.00355551
0.00355768
0.00356186
0.00356186
0.00356196
0.00356803
0.00356196
0.00356803
0.0035419
0.00353512
0.00354191
0.00353512
0.00353637
0.00352867
0.00352867
0.0035352
0.0035352
0.00352977
0.00354251
0.00354875
0.00354953
0.00354361
0.00354942
0.00354243
0.00354198
0.0035425
0.00354875
0.00354953
0.00354361
0.00354942
0.00354243
0.00354198
0.00354329
0.00354878
0.00354878
0.00355045
0.00354199
0.00354199
0.00353573
0.00352894
0.00353659
0.00352892
0.0035355
0.0035293
0.00353533
0.00353573