/*--------------------------------*- C++ -*----------------------------------*\
| =========                 |                                                 |
| \\      /  F ield         | OpenFOAM: The Open Source CFD Toolbox           |
|  \\    /   O peration     | Version:  v2012                                 |
|   \\  /    A nd           | Website:  www.openfoam.com                      |
|    \\/     M anipulation  |                                                 |
\*---------------------------------------------------------------------------*/
FoamFile
{
    version     2.0;
    format      ascii;
    class       volScalarField;
    location    "137.5";
    object      k;
}
// * * * * * * * * * * * * * * * * * * * * * * * * * * * * * * * * * * * * * //

dimensions      [0 2 -2 0 0 0 0];


internalField   nonuniform List<scalar> 
171728
(
3.12913e-06
4.1865e-07
4.93502e-07
3.70887e-07
3.15748e-06
4.39687e-07
5.03676e-07
3.57202e-07
3.26083e-06
4.71567e-07
5.23411e-07
3.47771e-07
3.36302e-06
5.05684e-07
5.48262e-07
3.38808e-07
3.46357e-06
5.42667e-07
5.78761e-07
3.28613e-07
3.56363e-06
5.84317e-07
6.13781e-07
3.19056e-07
3.66156e-06
6.34826e-07
6.58157e-07
3.14289e-07
3.75917e-06
6.93152e-07
7.08098e-07
3.17128e-07
3.85496e-06
7.6458e-07
7.72002e-07
3.30997e-07
3.94798e-06
8.44562e-07
8.42967e-07
3.53831e-07
4.03922e-06
9.2987e-07
9.17558e-07
3.84881e-07
4.12857e-06
1.03845e-06
1.0078e-06
4.21382e-07
4.21751e-06
1.15133e-06
1.10977e-06
4.61084e-07
4.30434e-06
1.26616e-06
1.21903e-06
5.02834e-07
4.39101e-06
1.3667e-06
1.3374e-06
5.53379e-07
4.47829e-06
1.45201e-06
1.47084e-06
6.19099e-07
4.56701e-06
1.55646e-06
1.62571e-06
7.00466e-07
4.65257e-06
1.68587e-06
1.81769e-06
8.05243e-07
4.75112e-06
1.86683e-06
2.0276e-06
9.48673e-07
4.85581e-06
2.08378e-06
2.23488e-06
1.17151e-06
4.97006e-06
2.35999e-06
2.47937e-06
1.53957e-06
5.11283e-06
2.74262e-06
2.82709e-06
2.11105e-06
5.25968e-06
3.23053e-06
3.27908e-06
2.95605e-06
5.4516e-06
3.85986e-06
3.89307e-06
4.14579e-06
5.66135e-06
4.62948e-06
4.66653e-06
5.77983e-06
5.94995e-06
5.59419e-06
5.65674e-06
7.8501e-06
6.30242e-06
6.7806e-06
6.84289e-06
1.02636e-05
6.75805e-06
8.24739e-06
8.28996e-06
1.30611e-05
7.35816e-06
1.01739e-05
1.01956e-05
1.62592e-05
8.23251e-06
1.27394e-05
1.27442e-05
1.9538e-05
9.56547e-06
1.59786e-05
1.59783e-05
2.28887e-05
1.12303e-05
1.93167e-05
1.93173e-05
2.59241e-05
1.30499e-05
2.22276e-05
2.22293e-05
2.83334e-05
1.4662e-05
2.42852e-05
2.42872e-05
2.99412e-05
1.56447e-05
2.52706e-05
2.52725e-05
3.05967e-05
1.60669e-05
2.56218e-05
2.56238e-05
3.08187e-05
1.62037e-05
2.57222e-05
2.57241e-05
3.0883e-05
1.62392e-05
2.57473e-05
2.57492e-05
3.09045e-05
1.6246e-05
2.57498e-05
2.57517e-05
3.09025e-05
1.62473e-05
2.57499e-05
2.57518e-05
3.08983e-05
1.62477e-05
2.5751e-05
2.57529e-05
3.09066e-05
1.62477e-05
2.57503e-05
2.57522e-05
3.08966e-05
1.62478e-05
2.57507e-05
2.57525e-05
3.09052e-05
1.6248e-05
2.57506e-05
2.57524e-05
3.09037e-05
1.62481e-05
2.57509e-05
2.57529e-05
3.09014e-05
1.62482e-05
2.57508e-05
2.57527e-05
3.09009e-05
1.62483e-05
2.5751e-05
2.57527e-05
3.09043e-05
1.62483e-05
2.57508e-05
2.57526e-05
3.09039e-05
1.62484e-05
2.57509e-05
2.57526e-05
3.08994e-05
1.62484e-05
2.57512e-05
2.57529e-05
3.09005e-05
1.62485e-05
2.57513e-05
2.57529e-05
3.09071e-05
1.62485e-05
2.57509e-05
2.57526e-05
3.09045e-05
1.62485e-05
2.57509e-05
2.57527e-05
3.08983e-05
1.62485e-05
2.57511e-05
2.57528e-05
3.09054e-05
1.62485e-05
2.5751e-05
2.57527e-05
3.09064e-05
1.62485e-05
2.57511e-05
2.57528e-05
3.08976e-05
1.62485e-05
2.5751e-05
2.57528e-05
3.08988e-05
1.62485e-05
2.57509e-05
2.57527e-05
3.09075e-05
1.62485e-05
2.57511e-05
2.57526e-05
3.09075e-05
1.62485e-05
2.57509e-05
2.57526e-05
3.09052e-05
1.62485e-05
2.57509e-05
2.57528e-05
3.09017e-05
1.62485e-05
2.5751e-05
2.57528e-05
3.08987e-05
1.62485e-05
2.57511e-05
2.57528e-05
3.08978e-05
1.62485e-05
2.57509e-05
2.57527e-05
3.0898e-05
1.62485e-05
2.57507e-05
2.57527e-05
3.08981e-05
1.62486e-05
2.57507e-05
2.57526e-05
3.0898e-05
1.62485e-05
2.57507e-05
2.57526e-05
3.08974e-05
1.62485e-05
2.57507e-05
2.57526e-05
3.08972e-05
1.62485e-05
2.57507e-05
2.57526e-05
3.08976e-05
1.62485e-05
2.57507e-05
2.57526e-05
3.08981e-05
1.62485e-05
2.57506e-05
2.57526e-05
3.08986e-05
1.62485e-05
2.57506e-05
2.57526e-05
3.08986e-05
1.62485e-05
2.57506e-05
2.57526e-05
3.08984e-05
1.62485e-05
2.57506e-05
2.57526e-05
3.08983e-05
1.62485e-05
2.57506e-05
2.57526e-05
3.08983e-05
1.62485e-05
2.57505e-05
2.57526e-05
3.08987e-05
1.62485e-05
2.57505e-05
2.57526e-05
3.08987e-05
1.62485e-05
2.57505e-05
2.57526e-05
3.08984e-05
1.62485e-05
2.57505e-05
2.57526e-05
3.08985e-05
1.62485e-05
2.57505e-05
2.57526e-05
3.08985e-05
1.62485e-05
2.57505e-05
2.57526e-05
3.08984e-05
1.62485e-05
2.57505e-05
2.57527e-05
3.08986e-05
1.62485e-05
2.57506e-05
2.57528e-05
3.08987e-05
1.62485e-05
2.57506e-05
2.57528e-05
3.08982e-05
1.62485e-05
2.57507e-05
2.57529e-05
3.08982e-05
1.62485e-05
2.57509e-05
2.57531e-05
3.08986e-05
1.62485e-05
2.57511e-05
2.57533e-05
3.08985e-05
1.62485e-05
2.57513e-05
2.57535e-05
3.0898e-05
1.62486e-05
2.57516e-05
2.57539e-05
3.08976e-05
1.62486e-05
2.57521e-05
2.57543e-05
3.08979e-05
1.62487e-05
2.57529e-05
2.57551e-05
3.08987e-05
1.62488e-05
2.57541e-05
2.57563e-05
3.08991e-05
1.62488e-05
2.5756e-05
2.57582e-05
3.08983e-05
1.62363e-05
2.57501e-05
2.57522e-05
3.08916e-05
1.5928e-05
2.47782e-05
2.47795e-05
3.00991e-05
3.51761e-07
3.51794e-07
4.03267e-07
3.54618e-07
3.98672e-07
4.21113e-07
3.20264e-06
3.20894e-06
3.22139e-06
3.20677e-06
3.41119e-07
4.05493e-07
3.82045e-07
4.08717e-07
4.06217e-07
3.73947e-07
3.48761e-07
3.3715e-07
4.32657e-07
4.9591e-07
4.41637e-07
5.02057e-07
3.51325e-07
3.38798e-07
4.90146e-07
5.13845e-07
4.9658e-07
5.20263e-07
4.9144e-07
4.32786e-07
4.98306e-07
3.79096e-07
3.68458e-07
5.11714e-07
5.00039e-07
5.17934e-07
3.59931e-07
3.3431e-07
3.26694e-07
4.46848e-07
5.06304e-07
4.62798e-07
5.20654e-07
3.35884e-07
3.28515e-07
5.01103e-07
5.24221e-07
5.16944e-07
5.38741e-07
5.02886e-07
4.63204e-07
5.18467e-07
3.65639e-07
3.5764e-07
5.21694e-07
5.1826e-07
5.35388e-07
3.50452e-07
3.24035e-07
3.1719e-07
4.68115e-07
5.26207e-07
4.84511e-07
5.44184e-07
3.25908e-07
3.19515e-07
5.23043e-07
5.44051e-07
5.42616e-07
5.62166e-07
5.24608e-07
4.96381e-07
5.43345e-07
3.54402e-07
3.46185e-07
5.40506e-07
5.41699e-07
5.57438e-07
3.4171e-07
3.14408e-07
3.08338e-07
4.90927e-07
5.51259e-07
5.11056e-07
5.73663e-07
3.16895e-07
3.12577e-07
5.50021e-07
5.6853e-07
5.73462e-07
5.90872e-07
5.498e-07
5.33284e-07
5.68834e-07
3.4313e-07
3.3705e-07
5.64194e-07
5.71422e-07
5.82794e-07
3.31869e-07
3.05706e-07
3.02598e-07
5.18866e-07
5.82317e-07
5.4458e-07
6.0959e-07
3.10432e-07
3.09497e-07
5.8209e-07
5.98625e-07
6.10958e-07
6.26577e-07
5.76079e-07
5.74015e-07
6.00988e-07
3.34427e-07
3.32043e-07
5.90477e-07
6.05379e-07
6.10735e-07
3.2207e-07
3.00796e-07
3.04461e-07
5.54127e-07
6.19135e-07
5.87936e-07
6.49632e-07
3.07872e-07
3.12343e-07
6.20913e-07
6.3643e-07
6.55884e-07
6.70444e-07
6.09916e-07
6.22737e-07
6.40762e-07
3.30254e-07
3.32858e-07
6.18259e-07
6.45782e-07
6.46182e-07
3.16342e-07
3.0332e-07
3.16207e-07
5.9953e-07
6.602e-07
6.41333e-07
6.9643e-07
3.11355e-07
3.27641e-07
6.67656e-07
6.82913e-07
7.08072e-07
7.22371e-07
6.51285e-07
6.77606e-07
6.88342e-07
3.3149e-07
3.40864e-07
6.54755e-07
6.95392e-07
6.91167e-07
3.18469e-07
3.15414e-07
3.35716e-07
6.55812e-07
7.08306e-07
7.04243e-07
7.501e-07
3.26987e-07
3.48496e-07
7.22085e-07
7.36385e-07
7.65559e-07
7.83847e-07
7.01305e-07
7.47387e-07
7.42979e-07
3.39705e-07
3.5612e-07
7.04105e-07
7.56849e-07
7.45941e-07
3.31918e-07
3.35217e-07
3.6119e-07
7.21541e-07
7.64188e-07
7.73698e-07
8.09037e-07
3.47799e-07
3.7149e-07
7.80993e-07
7.99258e-07
8.27486e-07
8.51673e-07
7.58765e-07
8.23162e-07
8.07679e-07
3.55203e-07
3.79703e-07
7.62431e-07
8.24337e-07
8.169e-07
3.5436e-07
3.60805e-07
3.89963e-07
7.91969e-07
8.26187e-07
8.51186e-07
8.77658e-07
3.70918e-07
4.01037e-07
8.42994e-07
8.71554e-07
8.92145e-07
9.29138e-07
8.23999e-07
9.07037e-07
8.77424e-07
3.79331e-07
4.14945e-07
8.36159e-07
8.97474e-07
8.93493e-07
3.85132e-07
3.89595e-07
4.20575e-07
8.7169e-07
8.96274e-07
9.35814e-07
9.57293e-07
4.00681e-07
4.3738e-07
9.09183e-07
9.49756e-07
9.61301e-07
1.014e-06
8.96704e-07
1.01079e-06
9.53514e-07
4.14965e-07
4.5632e-07
9.13923e-07
9.85752e-07
9.81729e-07
4.21467e-07
4.20153e-07
4.53138e-07
9.58729e-07
9.77775e-07
1.03045e-06
1.0454e-06
4.3741e-07
4.81527e-07
9.79437e-07
1.03616e-06
1.04022e-06
1.10644e-06
9.73609e-07
1.12329e-06
1.03861e-06
4.56541e-07
5.02221e-07
1.00569e-06
1.08366e-06
1.08245e-06
4.6109e-07
4.52821e-07
4.90475e-07
1.0543e-06
1.06964e-06
1.12976e-06
1.14394e-06
4.81837e-07
5.27133e-07
1.06148e-06
1.12921e-06
1.12917e-06
1.20596e-06
1.05932e-06
1.23927e-06
1.12734e-06
5.02701e-07
5.51285e-07
1.10681e-06
1.19184e-06
1.17515e-06
5.02369e-07
4.90623e-07
5.38887e-07
1.15761e-06
1.17031e-06
1.24238e-06
1.25659e-06
5.27249e-07
5.71761e-07
1.15486e-06
1.23403e-06
1.23981e-06
1.31759e-06
1.15302e-06
1.34537e-06
1.23539e-06
5.52112e-07
6.05797e-07
1.19848e-06
1.30594e-06
1.26868e-06
5.51955e-07
5.4024e-07
6.03057e-07
1.26989e-06
1.28651e-06
1.36478e-06
1.38773e-06
5.72216e-07
6.25552e-07
1.26798e-06
1.34889e-06
1.36118e-06
1.44345e-06
1.26291e-06
1.43072e-06
1.35668e-06
6.07354e-07
6.69136e-07
1.29337e-06
1.4399e-06
1.38396e-06
6.16003e-07
6.05983e-07
6.83686e-07
1.3969e-06
1.42215e-06
1.50011e-06
1.5317e-06
6.27856e-07
7.05027e-07
1.39411e-06
1.46966e-06
1.49936e-06
1.5614e-06
1.38977e-06
1.52559e-06
1.49085e-06
6.71326e-07
7.41832e-07
1.41601e-06
1.58082e-06
1.51812e-06
6.95683e-07
6.88653e-07
7.83248e-07
1.54023e-06
1.57347e-06
1.65042e-06
1.69328e-06
7.10356e-07
8.09946e-07
1.54011e-06
1.59827e-06
1.65603e-06
1.69704e-06
1.53051e-06
1.64968e-06
1.64449e-06
7.4691e-07
8.43592e-07
1.55917e-06
1.76695e-06
1.67429e-06
7.89069e-07
8.01123e-07
9.29912e-07
1.69201e-06
1.73818e-06
1.83547e-06
1.88588e-06
8.28351e-07
9.58872e-07
1.69723e-06
1.73367e-06
1.84406e-06
1.87456e-06
1.68573e-06
1.82201e-06
1.83033e-06
8.61835e-07
9.84753e-07
1.71366e-06
1.97938e-06
1.84421e-06
9.22227e-07
9.591e-07
1.14989e-06
1.88392e-06
1.93441e-06
2.05585e-06
2.0985e-06
9.88276e-07
1.1768e-06
1.89483e-06
1.92356e-06
2.06391e-06
2.07073e-06
1.87954e-06
2.02331e-06
2.05219e-06
1.01176e-06
1.17906e-06
1.88661e-06
2.18029e-06
2.03669e-06
1.12659e-06
1.1962e-06
1.48811e-06
2.12179e-06
2.16028e-06
2.33749e-06
2.35695e-06
1.22285e-06
1.50898e-06
2.12944e-06
2.12735e-06
2.348e-06
2.34371e-06
2.11997e-06
2.28544e-06
2.34114e-06
1.21682e-06
1.47536e-06
2.09693e-06
2.41438e-06
2.29325e-06
1.46402e-06
1.56242e-06
2.00722e-06
2.41919e-06
2.42951e-06
2.70678e-06
2.69393e-06
1.5823e-06
2.01937e-06
2.42904e-06
2.42863e-06
2.7139e-06
2.71307e-06
2.42393e-06
2.63562e-06
2.71471e-06
1.54918e-06
2.00938e-06
2.36673e-06
2.72498e-06
2.63816e-06
1.99195e-06
2.12452e-06
2.7939e-06
2.81781e-06
2.79817e-06
3.17953e-06
3.14157e-06
2.13606e-06
2.80332e-06
2.82307e-06
2.81918e-06
3.17904e-06
3.16325e-06
2.82527e-06
3.09886e-06
3.18313e-06
2.12859e-06
2.79278e-06
2.74619e-06
3.16106e-06
3.09991e-06
2.78212e-06
2.96798e-06
3.91156e-06
3.31221e-06
3.26921e-06
3.77977e-06
3.71469e-06
2.97844e-06
3.91996e-06
3.31005e-06
3.29016e-06
3.77066e-06
3.74034e-06
3.31438e-06
3.68956e-06
3.77694e-06
2.96252e-06
3.88048e-06
3.22969e-06
3.71994e-06
3.68294e-06
3.90171e-06
4.15463e-06
5.46078e-06
3.95664e-06
3.88303e-06
4.53284e-06
4.44062e-06
4.16166e-06
5.44059e-06
3.94585e-06
3.91223e-06
4.52424e-06
4.47688e-06
3.95294e-06
4.42321e-06
4.52857e-06
4.12166e-06
5.42486e-06
3.85432e-06
4.4593e-06
4.41711e-06
5.4506e-06
5.79268e-06
7.4912e-06
4.7463e-06
4.64676e-06
5.47343e-06
5.34559e-06
5.76356e-06
7.40354e-06
4.73737e-06
4.68355e-06
5.45825e-06
5.38113e-06
4.74053e-06
5.33189e-06
5.46013e-06
5.75319e-06
7.42584e-06
4.62367e-06
5.38721e-06
5.32248e-06
7.44933e-06
7.89563e-06
9.83232e-06
5.74016e-06
5.60755e-06
6.58399e-06
6.4761e-06
7.80333e-06
9.78612e-06
5.72486e-06
5.6415e-06
6.58096e-06
6.50097e-06
5.72548e-06
6.46573e-06
6.57049e-06
7.83164e-06
9.83809e-06
5.58371e-06
6.53196e-06
6.44732e-06
9.79929e-06
1.02899e-05
1.25264e-05
6.88272e-06
6.79219e-06
7.9036e-06
7.85595e-06
1.0261e-05
1.25278e-05
6.88417e-06
6.81346e-06
7.90787e-06
7.86812e-06
6.86989e-06
7.84238e-06
7.88844e-06
1.03157e-05
1.2585e-05
6.76267e-06
7.88999e-06
7.83269e-06
1.25197e-05
1.30681e-05
1.56759e-05
8.30297e-06
8.2625e-06
9.69103e-06
9.66048e-06
1.3066e-05
1.56454e-05
8.3048e-06
8.27147e-06
9.68595e-06
9.66007e-06
8.28572e-06
9.64561e-06
9.66936e-06
1.31207e-05
1.56767e-05
8.2429e-06
9.6725e-06
9.64855e-06
1.56578e-05
1.62779e-05
1.89388e-05
1.02166e-05
1.01893e-05
1.20479e-05
1.2035e-05
1.62462e-05
1.89192e-05
1.02106e-05
1.01862e-05
1.20439e-05
1.20273e-05
1.01949e-05
1.20225e-05
1.20316e-05
1.62721e-05
1.8925e-05
1.01779e-05
1.20305e-05
1.20224e-05
1.89259e-05
1.9549e-05
2.22779e-05
1.27598e-05
1.27515e-05
1.51437e-05
1.51437e-05
1.95339e-05
2.22767e-05
1.27563e-05
1.27432e-05
1.51409e-05
1.51374e-05
1.27461e-05
1.51355e-05
1.51371e-05
1.95365e-05
2.22736e-05
1.27385e-05
1.51356e-05
1.51322e-05
2.22759e-05
2.28901e-05
2.53962e-05
1.59855e-05
1.59863e-05
1.85084e-05
1.85094e-05
2.28903e-05
2.53965e-05
1.59823e-05
1.59811e-05
1.85048e-05
1.85075e-05
1.59805e-05
1.85043e-05
1.85068e-05
2.28871e-05
2.53961e-05
1.59759e-05
1.85045e-05
1.85027e-05
2.53973e-05
2.59232e-05
2.79257e-05
1.9321e-05
1.93216e-05
2.15659e-05
2.15655e-05
2.59237e-05
2.79255e-05
1.93172e-05
1.93205e-05
2.15623e-05
2.15665e-05
1.932e-05
2.15624e-05
2.15661e-05
2.59234e-05
2.79267e-05
1.9316e-05
2.15638e-05
2.15625e-05
2.79275e-05
2.83318e-05
2.96842e-05
2.22311e-05
2.22306e-05
2.38791e-05
2.38784e-05
2.83319e-05
2.96842e-05
2.22275e-05
2.22318e-05
2.3876e-05
2.38799e-05
2.22315e-05
2.38762e-05
2.38798e-05
2.8333e-05
2.96854e-05
2.2228e-05
2.38782e-05
2.38767e-05
2.96858e-05
2.99399e-05
3.04854e-05
2.42881e-05
2.42872e-05
2.51066e-05
2.51054e-05
2.994e-05
3.04845e-05
2.42851e-05
2.42887e-05
2.51041e-05
2.51072e-05
2.42888e-05
2.5104e-05
2.51074e-05
2.99411e-05
3.04865e-05
2.42858e-05
2.51059e-05
2.51049e-05
3.04871e-05
3.05951e-05
3.07578e-05
2.5273e-05
2.52718e-05
2.55709e-05
2.55696e-05
3.05945e-05
3.07571e-05
2.52706e-05
2.52736e-05
2.55687e-05
2.55714e-05
2.52738e-05
2.55685e-05
2.55717e-05
3.05962e-05
3.07588e-05
2.52713e-05
2.55705e-05
2.55693e-05
3.07592e-05
3.08172e-05
3.08401e-05
2.56241e-05
2.56228e-05
2.57101e-05
2.57089e-05
3.08168e-05
3.08396e-05
2.56218e-05
2.56246e-05
2.5708e-05
2.57107e-05
2.56248e-05
2.57079e-05
2.57108e-05
3.08183e-05
3.08411e-05
2.56225e-05
2.57099e-05
2.57086e-05
3.08414e-05
3.08816e-05
3.08659e-05
2.57243e-05
2.57231e-05
2.57462e-05
2.57451e-05
3.08813e-05
3.08656e-05
2.57221e-05
2.57248e-05
2.57442e-05
2.57468e-05
2.57249e-05
2.57442e-05
2.57468e-05
3.08827e-05
3.08669e-05
2.57227e-05
2.5746e-05
2.57447e-05
3.0867e-05
3.09034e-05
3.08666e-05
2.57493e-05
2.57482e-05
2.5752e-05
2.57508e-05
3.09034e-05
3.08661e-05
2.57472e-05
2.57498e-05
2.57499e-05
2.57525e-05
2.57498e-05
2.57498e-05
2.57525e-05
3.09045e-05
3.08675e-05
2.57477e-05
2.57517e-05
2.57503e-05
3.08677e-05
3.09014e-05
3.08612e-05
2.5752e-05
2.57507e-05
2.57519e-05
2.57507e-05
3.09011e-05
3.08606e-05
2.57498e-05
2.57524e-05
2.57498e-05
2.57524e-05
2.57524e-05
2.57497e-05
2.57524e-05
3.09024e-05
3.08622e-05
2.57502e-05
2.57516e-05
2.57502e-05
3.08622e-05
3.08974e-05
3.08687e-05
2.5752e-05
2.57508e-05
2.57532e-05
2.57521e-05
3.08969e-05
3.08685e-05
2.57499e-05
2.57525e-05
2.57511e-05
2.57537e-05
2.57524e-05
2.57511e-05
2.57536e-05
3.08984e-05
3.08699e-05
2.57502e-05
2.57529e-05
2.57515e-05
3.08702e-05
3.09055e-05
3.08601e-05
2.57532e-05
2.5752e-05
2.57527e-05
2.57514e-05
3.09054e-05
3.08593e-05
2.5751e-05
2.57536e-05
2.57505e-05
2.57531e-05
2.57535e-05
2.57503e-05
2.5753e-05
3.09065e-05
3.08609e-05
2.57513e-05
2.57522e-05
2.57509e-05
3.08609e-05
3.08955e-05
3.08702e-05
2.57526e-05
2.57514e-05
2.57528e-05
2.57517e-05
3.08946e-05
3.08703e-05
2.57504e-05
2.57531e-05
2.57507e-05
2.57532e-05
2.5753e-05
2.57507e-05
2.57532e-05
3.08963e-05
3.08711e-05
2.57509e-05
2.57524e-05
2.57511e-05
3.08707e-05
3.09052e-05
3.08643e-05
2.57528e-05
2.57516e-05
2.57529e-05
2.57516e-05
3.09057e-05
3.08625e-05
2.57506e-05
2.57532e-05
2.57507e-05
2.57533e-05
2.57531e-05
2.57506e-05
2.57532e-05
3.09058e-05
3.08659e-05
2.5751e-05
2.57525e-05
2.57511e-05
3.08658e-05
3.09029e-05
3.08618e-05
2.57528e-05
2.57516e-05
2.57529e-05
2.57516e-05
3.09012e-05
3.08622e-05
2.57507e-05
2.57532e-05
2.57507e-05
2.57534e-05
2.57532e-05
2.57507e-05
2.57532e-05
3.09043e-05
3.08632e-05
2.5751e-05
2.57527e-05
2.57512e-05
3.08642e-05
3.08996e-05
3.08623e-05
2.5753e-05
2.57516e-05
2.5753e-05
2.57517e-05
3.08996e-05
3.08625e-05
2.5751e-05
2.57535e-05
2.57506e-05
2.57533e-05
2.57533e-05
2.57507e-05
2.57533e-05
3.09017e-05
3.08615e-05
2.57513e-05
2.57525e-05
2.57511e-05
3.08648e-05
3.08979e-05
3.08649e-05
2.5753e-05
2.57517e-05
2.57531e-05
2.57517e-05
3.09001e-05
3.08616e-05
2.57507e-05
2.57534e-05
2.57508e-05
2.57534e-05
2.57533e-05
2.57508e-05
2.57534e-05
3.08982e-05
3.08634e-05
2.57511e-05
2.57526e-05
2.57513e-05
3.08675e-05
3.08998e-05
3.08646e-05
2.57532e-05
2.57519e-05
2.5753e-05
2.57516e-05
3.08999e-05
3.08594e-05
2.57508e-05
2.57535e-05
2.57508e-05
2.57534e-05
2.57534e-05
2.57507e-05
2.57534e-05
3.08982e-05
3.08647e-05
2.57512e-05
2.57526e-05
2.57513e-05
3.08652e-05
3.08985e-05
3.08679e-05
2.5753e-05
2.57516e-05
2.57534e-05
2.57519e-05
3.08973e-05
3.08601e-05
2.57506e-05
2.57533e-05
2.57511e-05
2.57538e-05
2.57534e-05
2.5751e-05
2.57535e-05
3.08982e-05
3.0867e-05
2.57512e-05
2.57528e-05
2.57513e-05
3.08615e-05
3.09004e-05
3.08699e-05
2.57531e-05
2.57517e-05
2.57534e-05
2.57518e-05
3.08966e-05
3.08604e-05
2.57508e-05
2.57535e-05
2.57509e-05
2.57536e-05
2.57534e-05
2.57511e-05
2.57535e-05
3.08998e-05
3.08681e-05
2.57513e-05
2.57529e-05
2.57514e-05
3.08655e-05
3.09037e-05
3.08689e-05
2.57534e-05
2.57519e-05
2.57532e-05
2.57515e-05
3.08972e-05
3.0859e-05
2.57509e-05
2.57537e-05
2.57508e-05
2.57535e-05
2.57535e-05
2.57509e-05
2.57535e-05
3.09012e-05
3.0867e-05
2.57514e-05
2.57527e-05
2.57514e-05
3.08697e-05
3.09034e-05
3.08695e-05
2.57533e-05
2.57517e-05
2.57533e-05
2.57515e-05
3.08958e-05
3.08601e-05
2.57508e-05
2.57535e-05
2.57507e-05
2.57535e-05
2.57535e-05
2.57508e-05
2.57535e-05
3.09003e-05
3.08684e-05
2.57514e-05
2.57526e-05
2.57513e-05
3.08643e-05
3.0903e-05
3.08712e-05
2.57531e-05
2.57515e-05
2.57536e-05
2.57516e-05
3.08946e-05
3.08636e-05
2.57506e-05
2.57534e-05
2.5751e-05
2.57537e-05
2.57535e-05
2.5751e-05
2.57536e-05
3.09012e-05
3.08682e-05
2.57513e-05
2.57529e-05
2.57513e-05
3.08616e-05
3.09072e-05
3.08636e-05
2.57533e-05
2.57515e-05
2.57535e-05
2.57516e-05
3.08972e-05
3.08608e-05
2.57506e-05
2.57535e-05
2.57509e-05
2.57536e-05
2.57535e-05
2.57511e-05
2.57536e-05
3.09029e-05
3.08629e-05
2.57512e-05
2.57528e-05
2.57515e-05
3.0869e-05
3.09025e-05
3.08623e-05
2.57534e-05
2.57515e-05
2.57534e-05
2.57515e-05
3.08959e-05
3.08603e-05
2.57508e-05
2.57536e-05
2.57508e-05
2.57536e-05
2.57536e-05
2.57509e-05
2.57535e-05
3.08971e-05
3.08654e-05
2.57513e-05
2.57528e-05
2.57515e-05
3.08666e-05
3.08962e-05
3.08688e-05
2.57534e-05
2.57515e-05
2.57533e-05
2.57516e-05
3.08942e-05
3.08687e-05
2.57507e-05
2.57535e-05
2.57508e-05
2.57537e-05
2.57535e-05
2.5751e-05
2.57536e-05
3.08978e-05
3.08733e-05
2.57516e-05
2.57528e-05
2.57512e-05
3.08598e-05
3.09008e-05
3.08714e-05
2.57533e-05
2.57515e-05
2.57534e-05
2.57514e-05
3.09023e-05
3.0866e-05
2.57507e-05
2.57535e-05
2.57508e-05
2.57536e-05
2.57535e-05
2.5751e-05
2.57534e-05
3.09073e-05
3.08687e-05
2.57514e-05
2.57527e-05
2.57512e-05
3.08657e-05
3.09073e-05
3.08664e-05
2.57533e-05
2.57514e-05
2.57536e-05
2.57513e-05
3.0905e-05
3.08601e-05
2.57507e-05
2.57537e-05
2.57507e-05
2.57534e-05
2.57534e-05
2.5751e-05
2.57535e-05
3.09078e-05
3.08601e-05
2.57511e-05
2.57526e-05
2.57514e-05
3.0872e-05
3.0906e-05
3.08595e-05
2.57534e-05
2.57513e-05
2.57536e-05
2.57514e-05
3.09011e-05
3.08577e-05
2.57507e-05
2.57535e-05
2.57507e-05
2.57535e-05
2.57534e-05
2.5751e-05
2.57536e-05
3.09005e-05
3.08605e-05
2.57512e-05
2.57526e-05
2.57514e-05
3.08689e-05
3.09002e-05
3.08588e-05
2.57537e-05
2.57513e-05
2.57533e-05
2.57513e-05
3.08953e-05
3.08612e-05
2.57507e-05
2.57535e-05
2.57507e-05
2.57537e-05
2.57535e-05
2.57508e-05
2.57536e-05
3.08953e-05
3.08665e-05
2.57512e-05
2.57528e-05
2.57514e-05
3.08645e-05
3.08948e-05
3.08625e-05
2.57535e-05
2.57512e-05
2.57534e-05
2.57514e-05
3.08948e-05
3.08677e-05
2.57507e-05
2.57535e-05
2.57507e-05
2.57537e-05
2.57535e-05
2.57509e-05
2.57536e-05
3.08989e-05
3.08717e-05
2.57513e-05
2.57528e-05
2.57514e-05
3.08613e-05
3.08958e-05
3.08669e-05
2.57534e-05
2.57511e-05
2.57536e-05
2.57514e-05
3.09026e-05
3.08622e-05
2.57506e-05
2.57536e-05
2.57508e-05
2.57536e-05
2.57535e-05
2.5751e-05
2.57535e-05
3.0906e-05
3.08657e-05
2.57514e-05
2.57526e-05
2.57513e-05
3.08606e-05
3.08993e-05
3.08675e-05
2.57535e-05
2.57514e-05
2.57535e-05
2.5751e-05
3.09021e-05
3.08582e-05
2.57507e-05
2.57536e-05
2.57508e-05
2.57535e-05
2.57535e-05
2.57509e-05
2.57535e-05
3.09031e-05
3.08606e-05
2.57513e-05
2.57527e-05
2.57513e-05
3.08613e-05
3.09001e-05
3.08665e-05
2.57535e-05
2.57513e-05
2.57534e-05
2.5751e-05
3.08979e-05
3.08582e-05
2.57507e-05
2.57536e-05
2.57508e-05
2.57536e-05
2.57535e-05
2.57506e-05
2.57535e-05
3.08972e-05
3.08616e-05
2.57513e-05
2.57527e-05
2.57513e-05
3.08616e-05
3.08989e-05
3.08662e-05
2.57533e-05
2.5751e-05
2.57537e-05
2.57513e-05
3.0894e-05
3.08611e-05
2.57507e-05
2.57536e-05
2.57507e-05
2.57536e-05
2.57535e-05
2.57507e-05
2.57535e-05
3.08963e-05
3.08633e-05
2.57513e-05
2.57526e-05
2.57513e-05
3.08612e-05
3.08985e-05
3.08672e-05
2.57534e-05
2.57511e-05
2.57536e-05
2.57512e-05
3.08947e-05
3.0864e-05
2.57506e-05
2.57536e-05
2.57507e-05
2.57536e-05
2.57535e-05
2.57507e-05
2.57535e-05
3.08969e-05
3.08648e-05
2.57513e-05
2.57526e-05
2.57513e-05
3.08608e-05
3.08993e-05
3.08688e-05
2.57536e-05
2.57512e-05
2.57535e-05
2.5751e-05
3.08967e-05
3.0865e-05
2.57506e-05
2.57536e-05
2.57507e-05
2.57536e-05
2.57535e-05
2.57507e-05
2.57535e-05
3.08977e-05
3.08665e-05
2.57513e-05
2.57526e-05
2.57514e-05
3.08606e-05
3.0901e-05
3.087e-05
2.57535e-05
2.5751e-05
2.57536e-05
2.57512e-05
3.08974e-05
3.08658e-05
2.57506e-05
2.57535e-05
2.57508e-05
2.57536e-05
2.57535e-05
2.57507e-05
2.57535e-05
3.08989e-05
3.08685e-05
2.57514e-05
2.57526e-05
2.57513e-05
3.08611e-05
3.09034e-05
3.08698e-05
2.57534e-05
2.5751e-05
2.57537e-05
2.57513e-05
3.0898e-05
3.08672e-05
2.57506e-05
2.57535e-05
2.57507e-05
2.57536e-05
2.57535e-05
2.57507e-05
2.57536e-05
3.09006e-05
3.08695e-05
2.57513e-05
2.57526e-05
2.57513e-05
3.08615e-05
3.09043e-05
3.08691e-05
2.57535e-05
2.57511e-05
2.57536e-05
2.57512e-05
3.08995e-05
3.08676e-05
2.57506e-05
2.57535e-05
2.57507e-05
2.57536e-05
2.57535e-05
2.57507e-05
2.57535e-05
3.09018e-05
3.08698e-05
2.57513e-05
2.57526e-05
2.57513e-05
3.08615e-05
3.09032e-05
3.08688e-05
2.57535e-05
2.57511e-05
2.57535e-05
2.57511e-05
3.09003e-05
3.08679e-05
2.57506e-05
2.57535e-05
2.57507e-05
2.57536e-05
2.57535e-05
2.57506e-05
2.57535e-05
3.09023e-05
3.08701e-05
2.57513e-05
2.57526e-05
2.57514e-05
3.08611e-05
3.09016e-05
3.08688e-05
2.57534e-05
2.5751e-05
2.57536e-05
2.57512e-05
3.09008e-05
3.08679e-05
2.57506e-05
2.57535e-05
2.57507e-05
2.57536e-05
2.57535e-05
2.57506e-05
2.57535e-05
3.09029e-05
3.08699e-05
2.57514e-05
2.57526e-05
2.57514e-05
3.08607e-05
3.09014e-05
3.0869e-05
2.57535e-05
2.5751e-05
2.57536e-05
2.57511e-05
3.0901e-05
3.0867e-05
2.57506e-05
2.57535e-05
2.57507e-05
2.57536e-05
2.57535e-05
2.57506e-05
2.57535e-05
3.09028e-05
3.08698e-05
2.57514e-05
2.57526e-05
2.57513e-05
3.08608e-05
3.09017e-05
3.08698e-05
2.57535e-05
2.57511e-05
2.57536e-05
2.5751e-05
3.08997e-05
3.08664e-05
2.57505e-05
2.57534e-05
2.57508e-05
2.57537e-05
2.57536e-05
2.57506e-05
2.57534e-05
3.09024e-05
3.087e-05
2.57513e-05
2.57526e-05
2.57513e-05
3.08607e-05
3.0903e-05
3.08698e-05
2.57535e-05
2.5751e-05
2.57535e-05
2.5751e-05
3.08986e-05
3.08667e-05
2.57506e-05
2.57535e-05
2.57507e-05
2.57536e-05
2.57535e-05
2.57505e-05
2.57534e-05
3.09026e-05
3.08703e-05
2.57513e-05
2.57525e-05
2.57513e-05
3.08609e-05
3.0904e-05
3.08692e-05
2.57535e-05
2.57509e-05
2.57535e-05
2.5751e-05
3.08989e-05
3.08678e-05
2.57507e-05
2.57536e-05
2.57506e-05
2.57535e-05
2.57534e-05
2.57505e-05
2.57535e-05
3.09032e-05
3.08707e-05
2.57513e-05
2.57525e-05
2.57513e-05
3.08611e-05
3.09035e-05
3.08691e-05
2.57534e-05
2.57509e-05
2.57534e-05
2.5751e-05
3.09001e-05
3.08685e-05
2.57506e-05
2.57535e-05
2.57506e-05
2.57536e-05
2.57535e-05
2.57505e-05
2.57535e-05
3.09041e-05
3.08704e-05
2.57513e-05
2.57525e-05
2.57512e-05
3.08608e-05
3.09026e-05
3.08687e-05
2.57534e-05
2.5751e-05
2.57534e-05
2.57509e-05
3.09014e-05
3.08683e-05
2.57505e-05
2.57535e-05
2.57506e-05
2.57535e-05
2.57536e-05
2.57504e-05
2.57533e-05
3.09042e-05
3.08698e-05
2.57513e-05
2.57524e-05
2.57512e-05
3.08607e-05
3.09018e-05
3.08682e-05
2.57534e-05
2.57509e-05
2.57533e-05
2.57509e-05
3.09015e-05
3.08683e-05
2.57506e-05
2.57535e-05
2.57505e-05
2.57534e-05
2.57535e-05
2.57503e-05
2.57532e-05
3.09031e-05
3.08697e-05
2.57512e-05
2.57524e-05
2.57512e-05
3.08608e-05
3.09008e-05
3.08681e-05
2.57533e-05
2.57509e-05
2.57532e-05
2.57508e-05
3.09014e-05
3.08683e-05
2.57505e-05
2.57534e-05
2.57504e-05
2.57533e-05
2.57533e-05
2.57503e-05
2.57532e-05
3.09024e-05
3.08697e-05
2.57513e-05
2.57524e-05
2.57511e-05
3.08607e-05
3.09004e-05
3.08685e-05
2.57533e-05
2.57508e-05
2.57532e-05
2.57507e-05
3.09015e-05
3.08686e-05
2.57505e-05
2.57534e-05
2.57503e-05
2.57532e-05
2.57533e-05
2.57502e-05
2.57531e-05
3.09024e-05
3.08696e-05
2.57512e-05
2.57523e-05
2.57511e-05
3.08607e-05
3.0901e-05
3.08688e-05
2.57533e-05
2.57508e-05
2.57531e-05
2.57507e-05
3.09019e-05
3.0869e-05
2.57504e-05
2.57534e-05
2.57503e-05
2.57532e-05
2.57533e-05
2.57502e-05
2.57531e-05
3.09022e-05
3.08697e-05
2.57512e-05
2.57524e-05
2.57511e-05
3.08609e-05
3.09016e-05
3.08689e-05
2.57533e-05
2.57508e-05
2.57531e-05
2.57506e-05
3.09031e-05
3.08684e-05
2.57505e-05
2.57534e-05
2.57502e-05
2.57531e-05
2.57533e-05
2.57502e-05
2.5753e-05
3.09023e-05
3.08699e-05
2.57514e-05
2.57523e-05
2.57509e-05
3.08606e-05
3.09017e-05
3.08691e-05
2.57534e-05
2.57509e-05
2.5753e-05
2.57505e-05
3.09032e-05
3.08675e-05
2.57505e-05
2.57534e-05
2.57501e-05
2.57531e-05
2.57534e-05
2.57501e-05
2.57529e-05
3.09027e-05
3.08701e-05
2.57514e-05
2.57523e-05
2.57509e-05
3.08604e-05
3.09021e-05
3.08691e-05
2.57534e-05
2.57509e-05
2.5753e-05
2.57505e-05
3.09009e-05
3.08667e-05
2.57505e-05
2.57534e-05
2.57501e-05
2.5753e-05
2.57534e-05
2.575e-05
2.57529e-05
3.09032e-05
3.08699e-05
2.57514e-05
2.57522e-05
2.57509e-05
3.08607e-05
3.09026e-05
3.08686e-05
2.57535e-05
2.5751e-05
2.57529e-05
2.57504e-05
3.0899e-05
3.08672e-05
2.57506e-05
2.57536e-05
2.575e-05
2.57529e-05
2.57535e-05
2.575e-05
2.57529e-05
3.09031e-05
3.087e-05
2.57515e-05
2.57521e-05
2.57508e-05
3.08607e-05
3.0902e-05
3.08679e-05
2.57537e-05
2.57512e-05
2.57528e-05
2.57503e-05
3.08997e-05
3.08674e-05
2.57508e-05
2.57537e-05
2.57499e-05
2.57528e-05
2.57537e-05
2.57499e-05
2.57528e-05
3.09031e-05
3.087e-05
2.57517e-05
2.57521e-05
2.57507e-05
3.08603e-05
3.09007e-05
3.08679e-05
2.57538e-05
2.57514e-05
2.57527e-05
2.57502e-05
3.09002e-05
3.08676e-05
2.57509e-05
2.57539e-05
2.57498e-05
2.57527e-05
2.57539e-05
2.57498e-05
2.57527e-05
3.09033e-05
3.08695e-05
2.57518e-05
2.5752e-05
2.57506e-05
3.08602e-05
3.09004e-05
3.08686e-05
2.5754e-05
2.57515e-05
2.57526e-05
2.57502e-05
3.09004e-05
3.08682e-05
2.57512e-05
2.57541e-05
2.57497e-05
2.57527e-05
2.57541e-05
2.57497e-05
2.57526e-05
3.09026e-05
3.08691e-05
2.57521e-05
2.57519e-05
2.57505e-05
3.08603e-05
3.09014e-05
3.0869e-05
2.57544e-05
2.5752e-05
2.57526e-05
2.57501e-05
3.09014e-05
3.08683e-05
2.57515e-05
2.57544e-05
2.57497e-05
2.57526e-05
2.57544e-05
2.57497e-05
2.57525e-05
3.09017e-05
3.08694e-05
2.57524e-05
2.57519e-05
2.57504e-05
3.08607e-05
3.09024e-05
3.08692e-05
2.57549e-05
2.57525e-05
2.57526e-05
2.57501e-05
3.09022e-05
3.08677e-05
2.5752e-05
2.57549e-05
2.57498e-05
2.57527e-05
2.57549e-05
2.57497e-05
2.57527e-05
3.09021e-05
3.08697e-05
2.57528e-05
2.5752e-05
2.57505e-05
3.0861e-05
3.09028e-05
3.08697e-05
2.57557e-05
2.57532e-05
2.5753e-05
2.57505e-05
3.09015e-05
3.08676e-05
2.57527e-05
2.57557e-05
2.57501e-05
2.5753e-05
2.57557e-05
2.575e-05
2.5753e-05
3.09026e-05
3.08701e-05
2.57536e-05
2.57523e-05
2.57508e-05
3.08609e-05
3.09033e-05
3.08704e-05
2.57569e-05
2.57545e-05
2.57537e-05
2.57513e-05
3.09003e-05
3.08694e-05
2.5754e-05
2.57569e-05
2.57508e-05
2.57538e-05
2.5757e-05
2.57509e-05
2.57537e-05
3.09029e-05
3.08716e-05
2.57548e-05
2.57531e-05
2.57516e-05
3.08609e-05
3.09037e-05
3.0867e-05
2.57587e-05
2.57563e-05
2.57477e-05
2.57454e-05
3.09015e-05
3.08674e-05
2.57559e-05
2.57588e-05
2.57449e-05
2.57477e-05
2.57588e-05
2.57449e-05
2.57476e-05
3.0904e-05
3.08688e-05
2.57566e-05
2.5747e-05
2.57454e-05
3.08575e-05
3.08972e-05
3.05056e-05
2.57528e-05
2.57505e-05
2.53434e-05
2.534e-05
3.08978e-05
3.05049e-05
2.57499e-05
2.57527e-05
2.53416e-05
2.53414e-05
2.57527e-05
2.5342e-05
2.53417e-05
3.0899e-05
3.05064e-05
2.57506e-05
2.53434e-05
2.53406e-05
3.05045e-05
3.00983e-05
2.47791e-05
2.47758e-05
3.00978e-05
2.47779e-05
2.47772e-05
1.5927e-05
1.59275e-05
1.59269e-05
2.47774e-05
3.00991e-05
2.47769e-05
7.67635e-06
1.38024e-06
5.27066e-06
5.27378e-06
9.76269e-08
3.44763e-07
2.82366e-07
3.29043e-06
8.70401e-08
4.13651e-07
3.28785e-06
4.71398e-07
3.8253e-07
4.21128e-07
4.04904e-07
2.75645e-07
5.01956e-06
2.39789e-07
6.69541e-06
1.41975e-05
2.18007e-05
2.81354e-07
5.00136e-06
2.46306e-07
6.51064e-06
3.13565e-06
3.14884e-06
3.13351e-06
3.13302e-06
3.13922e-06
3.15208e-06
3.13555e-06
9.39178e-08
5.99209e-07
1.51877e-06
4.2057e-07
9.51277e-08
5.84807e-07
1.5098e-06
1.42084e-05
2.19231e-05
9.23975e-08
1.47745e-06
7.31436e-07
4.93833e-07
9.10941e-08
1.46908e-06
6.99449e-07
1.91865e-06
1.90021e-06
3.65452e-07
1.89927e-06
1.87683e-06
4.7635e-07
9.89479e-06
3.78519e-07
1.26875e-05
3.71589e-05
4.69148e-05
4.84674e-07
9.9449e-06
3.71526e-07
1.24118e-05
3.16383e-06