/*--------------------------------*- C++ -*----------------------------------*\
| =========                 |                                                 |
| \\      /  F ield         | OpenFOAM: The Open Source CFD Toolbox           |
|  \\    /   O peration     | Version:  v2006                                 |
|   \\  /    A nd           | Website:  www.openfoam.com                      |
|    \\/     M anipulation  |                                                 |
\*---------------------------------------------------------------------------*/
FoamFile
{
    version     2.0;
    format      ascii;
    class       volScalarField;
    location    "1000";
    object      epsilon;
}
// * * * * * * * * * * * * * * * * * * * * * * * * * * * * * * * * * * * * * //

dimensions      [0 2 -3 0 0 0 0];


internalField   nonuniform List<scalar> 
14298
(
1.84805e-05
1.84831e-05
3.46349e-07
5.11136e-06
5.11324e-06
3.59935e-06
8.90188e-06
3.59935e-06
1.08801e-06
2.26408e-07
2.7579e-06
1.58448e-07
1.08803e-06
1.58448e-07
3.60125e-06
8.90363e-06
1.08831e-06
2.2634e-07
2.75853e-06
1.58442e-07
3.60104e-06
8.90277e-06
1.08822e-06
2.26422e-07
1.5845e-07
2.75856e-06
2.26402e-07
2.75819e-06
8.90323e-06
1.84834e-05
3.46319e-07
5.11321e-06
5.1116e-06
1.84814e-05
1.08814e-06
2.2633e-07
1.58446e-07
2.75813e-06
1.08815e-06
2.26366e-07
1.58449e-07
2.75861e-06
3.59943e-06
8.90377e-06
3.59948e-06
8.90349e-06
3.46365e-07
5.11132e-06
5.11311e-06
1.84814e-05
1.84835e-05
1.84795e-05
1.8482e-05
9.72396e-06
2.19345e-05
2.19338e-05
9.71842e-06
2.19371e-05
2.19365e-05
3.92836e-06
9.01765e-06
1.88203e-06
5.11557e-06
3.91948e-06
9.02476e-06
1.89221e-06
3.93528e-06
9.02303e-06
1.88383e-06
5.11724e-06
3.92674e-06
9.02991e-06
1.89371e-06
1.21199e-05
1.06521e-05
4.43175e-06
3.61249e-06
1.21166e-05
1.06556e-05
4.44291e-06
2.24524e-05
7.20654e-06
8.90455e-06
2.24524e-05
7.20881e-06
1.21203e-05
1.06521e-05
4.432e-06
3.6123e-06
1.21176e-05
1.06554e-05
4.44278e-06
1.21216e-05
4.43395e-06
1.06538e-05
3.61382e-06
1.21192e-05
4.44424e-06
1.06568e-05
2.24563e-05
7.20791e-06
8.90683e-06
2.24559e-05
7.21044e-06
1.21212e-05
1.06534e-05
4.43316e-06
3.613e-06
1.21185e-05
1.06564e-05
4.44315e-06
2.24559e-05
7.20556e-06
8.90612e-06
2.2455e-05
7.2085e-06
8.90514e-06
1.84825e-05
9.71561e-06
2.19267e-05
2.1927e-05
9.71568e-06
2.19261e-05
2.19264e-05
3.93316e-06
9.02237e-06
1.8835e-06
5.11701e-06
1.89336e-06
3.92532e-06
9.02794e-06
3.92585e-06
9.01755e-06
1.88193e-06
5.11557e-06
3.91828e-06
9.02301e-06
1.89149e-06
1.84803e-05
1.21197e-05
4.43262e-06
1.06525e-05
3.61272e-06
1.21173e-05
4.44229e-06
1.06558e-05
2.24532e-05
7.20826e-06
8.90563e-06
2.2454e-05
7.20869e-06
1.21208e-05
4.43203e-06
1.06526e-05
3.61306e-06
1.21178e-05
4.44309e-06
1.06561e-05
2.24544e-05
7.20622e-06
8.90581e-06
2.24551e-05
7.20807e-06
9.71671e-06
2.19294e-05
2.19289e-05
9.71842e-06
2.19274e-05
2.19268e-05
3.92452e-06
9.01813e-06
1.88221e-06
5.11523e-06
3.91884e-06
1.89132e-06
9.0223e-06
3.93169e-06
9.02309e-06
1.88373e-06
5.11705e-06
3.92571e-06
1.8931e-06
9.02731e-06
1.84803e-05
1.84823e-05
1.35115e-07
1.20017e-07
1.20012e-07
1.13904e-07
1.20018e-07
1.13904e-07
1.35118e-07
1.20019e-07
1.20016e-07
1.13905e-07
1.35119e-07
1.20017e-07
1.13905e-07
1.69498e-06
3.46922e-07
7.37645e-07
7.37949e-07
1.68771e-06
7.41593e-07
7.41902e-07
4.52232e-07
1.40162e-06
3.66849e-07
1.0947e-06
4.50864e-07
1.40853e-06
3.68187e-07
6.33028e-07
2.03049e-06
9.67395e-07
2.76394e-06
9.72249e-07
6.30867e-07
2.03695e-06
4.52238e-07
1.4017e-06
3.66839e-07
1.0947e-06
4.50872e-07
1.4086e-06
3.68184e-07
4.52249e-07
1.40196e-06
3.66843e-07
1.09492e-06
4.50893e-07
1.40881e-06
3.68185e-07
6.33084e-07
2.03077e-06
9.6777e-07
2.76457e-06
9.72636e-07
6.30928e-07
2.03731e-06
4.52245e-07
3.66843e-07
1.4018e-06
1.09487e-06
4.50871e-07
3.68196e-07
1.40868e-06
6.33102e-07
2.03046e-06
9.67832e-07
2.76449e-06
6.30955e-07
2.03693e-06
9.7264e-07
9.67473e-07
2.76402e-06
9.72241e-07
1.6945e-06
3.46892e-07
7.37843e-07
7.37551e-07
7.4178e-07
1.68738e-06
7.41477e-07
4.52268e-07
3.66872e-07
1.40182e-06
1.0948e-06
4.50914e-07
3.6822e-07
1.40863e-06
6.3304e-07
2.03079e-06
9.67363e-07
2.76399e-06
6.30915e-07
9.72147e-07
2.03709e-06
4.52303e-07
3.66885e-07
1.40175e-06
1.09483e-06
4.50937e-07
3.68236e-07
1.40865e-06
6.33099e-07
2.03051e-06
9.67862e-07
2.76449e-06
6.30956e-07
2.03695e-06
9.72653e-07
1.69452e-06
3.46946e-07
7.37659e-07
7.37959e-07
1.68757e-06
7.41562e-07
7.41883e-07
2.2843e-07
2.7188e-07
2.30708e-07
2.30675e-07
2.71841e-07
2.71865e-07
2.28439e-07
1.96032e-07
1.89427e-05
1.86569e-06
2.04495e-07
5.78741e-07
4.22968e-06
4.23148e-06
2.07295e-07
5.7515e-07
2.27775e-06
2.07298e-07
1.8476e-06
5.75204e-07
8.75828e-06
2.27856e-06
2.07296e-07
1.84793e-06
5.75201e-07
8.75846e-06
2.27849e-06
4.20473e-06
4.20611e-06
1.89661e-05
1.89673e-05
4.23083e-06
4.22997e-06
1.89414e-05
8.75882e-06
2.29881e-06
2.04496e-07
1.86584e-06
5.7876e-07
8.75964e-06
2.2992e-06
1.89425e-05
1.89439e-05
1.8934e-05
1.01163e-06
8.67634e-06
2.65427e-06
1.01227e-06
8.67999e-06
2.65802e-06
2.20887e-05
2.20887e-05
8.93953e-06
2.26135e-05
6.38326e-06
6.35241e-06
2.26224e-05
1.25649e-05
2.26781e-06
3.02318e-06
1.14662e-05
3.00068e-06
1.14927e-05
1.25473e-05
2.26177e-05
8.75403e-06
6.38755e-06
6.35477e-06
2.26273e-05
1.25655e-05
2.26801e-06
1.14658e-05
3.02692e-06
1.14924e-05
3.00206e-06
1.25482e-05
2.26171e-05
8.75444e-06
6.38794e-06
6.35334e-06
2.26271e-05
1.25656e-05
2.26766e-06
3.02678e-06
1.14661e-05
3.00106e-06
1.14927e-05
1.25483e-05
2.59696e-06
9.97234e-07
4.18321e-06
8.67599e-06
2.61503e-06
9.90701e-07
8.67577e-06
2.59991e-06
9.97874e-07
4.18466e-06
8.6796e-06
2.61971e-06
9.91313e-07
8.67939e-06
8.83793e-06
2.20818e-05
2.20811e-05
8.88249e-06
2.20752e-05
2.20748e-05
1.89759e-05
1.89771e-05
2.67598e-06
1.0123e-06
8.68003e-06
4.25209e-06
8.68117e-06
2.65826e-06
1.01911e-06
2.67284e-06
1.01146e-06
8.67665e-06
4.25011e-06
1.01825e-06
2.6513e-06
8.67767e-06
8.96348e-06
2.20887e-05
2.20891e-05
2.20925e-05
8.92774e-06
2.20927e-05
1.89327e-05
2.26356e-05
6.42093e-06
8.76381e-06
6.45263e-06
2.26237e-05
1.24968e-05
2.31121e-06
3.05646e-06
1.1422e-05
3.08298e-06
1.25126e-05
1.1397e-05
2.26335e-05
6.41667e-06
8.76263e-06
2.26253e-05
6.44705e-06
1.24971e-05
2.31034e-06
1.14216e-05
3.05605e-06
1.25132e-05
1.13966e-05
3.08033e-06
4.03737e-07
4.03777e-07
8.30866e-07
8.12156e-07
2.7329e-07
4.01247e-07
4.01296e-07
8.17703e-07
4.00718e-07
4.00758e-07
8.36599e-07
4.03758e-07
4.03688e-07
2.70546e-07
4.04353e-07
8.30754e-07
4.04417e-07
1.89275e-07
1.858e-07
1.89277e-07
1.89275e-07
1.858e-07
3.94956e-07
5.44155e-07
1.18135e-06
1.87368e-06
3.95046e-07
5.45506e-07
1.18848e-06
3.15995e-07
5.80246e-07
7.17486e-07
2.90889e-07
3.16703e-07
7.2124e-07
2.89441e-07
3.93128e-07
1.16471e-06
3.92986e-07
1.15773e-06
3.17271e-07
5.73909e-07
7.09034e-07
2.91141e-07
3.16391e-07
7.05646e-07
2.92718e-07
3.9315e-07
5.40019e-07
1.83982e-06
1.16489e-06
1.15794e-06
5.38814e-07
3.93005e-07
3.17282e-07
5.73933e-07
2.91147e-07
7.09243e-07
2.92722e-07
7.05778e-07
3.16409e-07
3.93172e-07
5.40138e-07
1.84014e-06
1.16495e-06
1.15796e-06
5.38933e-07
3.93022e-07
3.17297e-07
5.73933e-07
2.91152e-07
7.09232e-07
2.92727e-07
7.05742e-07
3.16419e-07
3.94963e-07
5.44225e-07
1.18105e-06
1.87381e-06
5.45565e-07
3.95054e-07
1.18809e-06
3.16002e-07
5.8022e-07
2.90894e-07
7.17502e-07
2.89444e-07
3.16714e-07
7.21139e-07
2.20653e-07
4.40395e-06
4.48415e-06
1.9416e-07
2.43884e-06
2.17485e-07
1.89506e-07
8.79047e-06
1.85052e-07
2.2842e-07
1.8001e-07
2.20608e-07
2.6817e-07
2.67856e-07
2.28432e-07
2.22398e-07
1.95523e-06
4.38205e-06
2.28445e-07
2.22369e-07
2.22404e-07
2.22386e-07
1.96614e-07
2.41581e-06
2.71871e-07
2.67864e-07
2.28422e-07
2.22373e-07
2.2236e-07
2.67879e-07
1.88519e-05
2.68151e-07
2.20632e-07
1.97468e-06
2.03142e-06
2.20604e-07
2.20641e-07
2.68156e-07
2.20608e-07
1.88075e-05
2.67486e-07
1.87928e-05
1.88336e-05
1.88073e-05
1.9416e-07
6.04404e-07
1.97503e-06
2.18965e-07
1.91789e-07
6.14935e-07
2.01173e-06
2.68155e-07
4.40465e-06
4.46372e-06
2.67051e-07
4.4638e-06
1.8835e-05
1.88079e-05
1.87923e-05
2.67477e-07
4.48466e-06
1.87934e-05
2.43823e-06
8.78191e-06
2.49245e-06
8.78948e-06
6.04439e-07
1.91789e-07
2.20645e-07
2.18996e-07
2.01156e-06
1.97478e-06
6.14896e-07
8.78893e-06
8.78028e-06
2.49174e-06
1.89505e-07
6.21067e-07
2.03157e-06
2.5154e-06
8.7914e-06
2.17483e-07
2.03141e-06
6.21061e-07
2.51521e-06
2.34322e-06
2.29935e-06
8.76767e-06
1.89043e-05
2.34428e-06
8.76903e-06
1.77961e-07
1.9317e-07
1.93171e-07
1.93173e-07
1.93174e-07
1.85053e-07
1.85056e-07
5.85891e-07
2.26257e-07
1.9004e-06
2.01779e-07
1.89437e-05
1.89052e-05
5.85902e-07
2.04496e-07
1.86569e-06
2.26278e-07
5.78755e-07
2.0178e-07
1.90047e-06
2.69474e-07
4.29535e-06
4.2968e-06
2.49247e-06
8.7801e-06
2.43796e-06
8.78846e-06
2.49327e-06
8.78053e-06
2.43796e-06
8.7907e-06
1.75302e-07
1.82496e-07
1.82499e-07
1.8836e-05
1.88091e-05
6.149e-07
1.94158e-07
1.97466e-06
2.18963e-07
6.04432e-07
1.91787e-07
2.0115e-06
2.67064e-07
4.46296e-06
4.40406e-06
4.40547e-06
4.46442e-06
1.89019e-05
1.89044e-05
2.69457e-07
4.29511e-06
4.29679e-06
1.88497e-05
1.88819e-05
1.88521e-05
1.88844e-05
2.69621e-07
4.3812e-06
4.38284e-06
4.31903e-06
4.3205e-06
2.34338e-06
8.75864e-06
2.29916e-06
8.76733e-06
5.85833e-07
2.04495e-07
2.26302e-07
5.78772e-07
1.90031e-06
2.0178e-07
5.85851e-07
1.86618e-06
2.04497e-07
2.26319e-07
5.78777e-07
1.90079e-06
2.01783e-07
2.3658e-06
8.7786e-06
8.76917e-06
2.4153e-06
8.77831e-06
2.36535e-06
8.76871e-06
2.41595e-06
5.90265e-07
2.24288e-07
1.9551e-06
1.96612e-07
1.91931e-06
1.99154e-07
5.99095e-07
2.22392e-07
5.90238e-07
2.24273e-07
1.96613e-07
1.9196e-06
1.99156e-07
5.99116e-07
2.69459e-07
4.29651e-06
4.29478e-06
1.89029e-05
1.88511e-05
1.88838e-05
2.67863e-07
4.38252e-06
2.69622e-07
4.32003e-06
4.31922e-06
1.88522e-05
1.8883e-05
5.85897e-07
2.26275e-07
1.90074e-06
2.01781e-07
2.34377e-06
8.75923e-06
2.29949e-06
8.76851e-06
5.85903e-07
2.045e-07
1.8662e-06
2.26307e-07
5.78783e-07
2.01783e-07
1.9009e-06
2.36586e-06
8.7789e-06
8.77063e-06
2.41611e-06
5.90306e-07
2.24261e-07
1.95556e-06
1.96613e-07
1.91969e-06
1.99154e-07
5.99139e-07
2.36629e-06
8.77954e-06
8.76988e-06
2.41572e-06
5.90307e-07
2.24295e-07
1.96616e-07
1.95577e-06
1.99159e-07
1.91976e-06
5.99153e-07
2.34396e-06
8.76885e-06
5.85899e-07
2.26311e-07
2.01782e-07
1.90052e-06
2.34455e-06
8.76794e-06
1.96612e-07
5.99143e-07
1.95561e-06
5.90279e-07
2.24289e-07
1.91949e-06
1.99155e-07
2.41601e-06
8.78028e-06
2.36562e-06
8.76991e-06
5.99112e-07
2.22416e-07
1.9555e-06
5.90339e-07
2.2429e-07
1.99155e-07
1.91939e-06
8.77864e-06
2.36636e-06
8.76967e-06
4.23145e-06
4.22952e-06
2.69464e-07
4.297e-06
4.29565e-06
1.89419e-05
1.89036e-05
1.88533e-05
1.88853e-05
2.69628e-07
4.38335e-06
4.38179e-06
4.32068e-06
4.31909e-06
1.88514e-05
1.88835e-05
5.85887e-07
2.04496e-07
1.86615e-06
2.26275e-07
5.78804e-07
2.0178e-07
1.90088e-06
2.34449e-06
8.75917e-06
2.29889e-06
8.76943e-06
2.34432e-06
8.75998e-06
2.29961e-06
8.76806e-06
5.90297e-07
2.24266e-07
1.96612e-07
1.95526e-06
1.99154e-07
1.91931e-06
5.99141e-07
5.90359e-07
2.2427e-07
1.96613e-07
1.95558e-06
1.99156e-07
1.91973e-06
5.9911e-07
2.3659e-06
8.77972e-06
8.77048e-06
2.41637e-06
2.36648e-06
8.77943e-06
8.76995e-06
2.41581e-06
1.89038e-05
1.8905e-05
4.38203e-06
2.69638e-07
4.38283e-06
4.31931e-06
4.32074e-06
1.88839e-05
1.88526e-05
1.88853e-05
1.88327e-05
1.88055e-05
1.8835e-05
1.88084e-05
4.40371e-06
4.40503e-06
2.67039e-07
4.46227e-06
4.46442e-06
8.77957e-06
8.78901e-06
2.49337e-06
2.4375e-06
6.14918e-07
1.97453e-06
1.94159e-07
2.18989e-07
6.04311e-07
2.01141e-06
1.91788e-07
2.20593e-07
2.0116e-06
2.18996e-07
6.14945e-07
1.94158e-07
6.04315e-07
1.91788e-07
8.79061e-06
2.51555e-06
2.17441e-07
6.21045e-07
1.89503e-07
6.14967e-07
1.97493e-06
1.94159e-07
2.18959e-07
6.04376e-07
2.01192e-06
1.91788e-07
2.4926e-06
8.78092e-06
2.43847e-06
8.78924e-06
6.14969e-07
1.94164e-07
1.97514e-06
2.18996e-07
6.04382e-07
1.91791e-07
2.01201e-06
2.5158e-06
6.21098e-07
1.89503e-07
2.51616e-06
8.79106e-06
6.21102e-07
2.17483e-07
1.89509e-07
2.03185e-06
4.40526e-06
4.40374e-06
2.67049e-07
4.46475e-06
4.46325e-06
1.88343e-05
1.88073e-05
1.87944e-05
2.67472e-07
4.48514e-06
4.48361e-06
1.87925e-05
2.18965e-07
6.14909e-07
1.94159e-07
1.97515e-06
6.04434e-07
1.91789e-07
2.01194e-06
2.49216e-06
8.78151e-06
2.43884e-06
8.78938e-06
2.49197e-06
8.78078e-06
2.43869e-06
8.78959e-06
2.17448e-07
2.03133e-06
8.79128e-06
1.88347e-05
1.88358e-05
1.88089e-05
4.48381e-06
4.48539e-06
1.87943e-05
2.89224e-06
8.69449e-06
1.10207e-06
4.42307e-06
8.69939e-06
2.87599e-06
1.10958e-06
2.99849e-06
1.1514e-06
4.50142e-06
8.71092e-06
2.98233e-06
8.71724e-06
1.15923e-06
1.23309e-05
1.11714e-05
3.27923e-06
2.45404e-06
1.11525e-05
3.30513e-06
1.2342e-05
2.26617e-05
8.79459e-06
6.72618e-06
2.26555e-05
6.74908e-06
2.82125e-06
8.69235e-06
1.08573e-06
4.3629e-06
2.83905e-06
1.07833e-06
8.68857e-06
1.23791e-05
1.12086e-05
3.24884e-06
2.40122e-06
1.23669e-05
1.1229e-05
3.22174e-06
1.88584e-05
1.88127e-05
1.87881e-05
1.88281e-05
1.88123e-05
9.22867e-06
2.21223e-05
2.21273e-05
2.21256e-05
2.21301e-05
9.20978e-06
2.89914e-06
8.69695e-06
1.10312e-06
4.42356e-06
1.11132e-06
8.70202e-06
2.87449e-06
2.93044e-06
4.44536e-06
1.1346e-06
8.70858e-06
8.70299e-06
2.94653e-06
1.12726e-06
9.25836e-06
2.21345e-05
2.21378e-05
2.2125e-05
2.21284e-05
9.29017e-06
2.92386e-06
4.44468e-06
1.1351e-06
8.70938e-06
1.12629e-06
8.70351e-06
2.95083e-06
1.8829e-05
1.8813e-05
1.87874e-05
9.33926e-06
2.21364e-05
2.21402e-05
9.32205e-06
2.21413e-05
2.21449e-05
3.00601e-06
1.15209e-06
8.71326e-06
4.50269e-06
2.98187e-06
8.72032e-06
1.16098e-06
1.87886e-05
1.23303e-05
3.27793e-06
1.11716e-05
2.45348e-06
3.30368e-06
1.11528e-05
1.23416e-05
2.26558e-05
6.64001e-06
8.78504e-06
6.66189e-06
2.26501e-05
1.23072e-05
2.47653e-06
3.36015e-06
1.10999e-05
3.33357e-06
1.11173e-05
1.22974e-05
2.26518e-05
8.78612e-06
6.70732e-06
6.68408e-06
2.26587e-05
2.26532e-05
8.78568e-06
6.70509e-06
6.68274e-06
2.26589e-05
2.26571e-05
6.63789e-06
8.78428e-06
6.66188e-06
2.26506e-05
1.23077e-05
2.47617e-06
3.35852e-06
1.10996e-05
1.1117e-05
3.33263e-06
1.22975e-05
1.22677e-05
3.38893e-06
1.10664e-05
2.53235e-06
1.22767e-05
3.41447e-06
1.10503e-05
2.26611e-05
6.72973e-06
8.79586e-06
2.26553e-05
6.75027e-06
1.2268e-05
3.38806e-06
1.10661e-05
2.53292e-06
1.22767e-05
1.10501e-05
3.41591e-06
1.24644e-05
2.33237e-06
1.13307e-05
3.13593e-06
1.1354e-05
3.1116e-06
1.24494e-05
2.26333e-05
6.41899e-06
2.2624e-05
6.45111e-06
1.24968e-05
2.31101e-06
1.14216e-05
3.05697e-06
1.25127e-05
1.13967e-05
3.0818e-06
2.26317e-05
6.50874e-06
8.76413e-06
6.4788e-06
2.26402e-05
1.89124e-05
1.24646e-05
2.33217e-06
3.13721e-06
1.13311e-05
3.1119e-06
1.13544e-05
1.24499e-05
2.26321e-05
6.50984e-06
8.765e-06
6.47949e-06
2.26409e-05
1.89347e-05
1.8913e-05
9.01224e-06
2.21045e-05
2.21034e-05
2.21023e-05
2.21016e-05
9.03819e-06
2.67405e-06
4.2504e-06
1.01847e-06
8.67771e-06
2.68017e-06
4.25181e-06
1.01921e-06
8.68144e-06
8.97994e-06
2.21047e-05
2.21042e-05
2.71064e-06
8.68088e-06
4.27487e-06
1.04029e-06
1.03333e-06
8.67877e-06
2.72752e-06
2.71312e-06
8.68443e-06
4.27618e-06
1.04101e-06
1.034e-06
8.68233e-06
2.73291e-06
1.23072e-05
2.47721e-06
1.10995e-05
3.35924e-06
1.1117e-05
3.33389e-06
1.22971e-05
2.26554e-05
6.63866e-06
8.78365e-06
2.26491e-05
6.66315e-06
1.23301e-05
2.45291e-06
1.11713e-05
3.27808e-06
1.23413e-05
1.11525e-05
3.30436e-06
2.26516e-05
6.7071e-06
8.78504e-06
6.68434e-06
2.26574e-05
1.23077e-05
2.47663e-06
3.36104e-06
1.11e-05
3.33429e-06
1.11174e-05
1.22977e-05
2.26563e-05
6.63827e-06
8.78479e-06
2.26488e-05
6.66408e-06
1.23304e-05
2.45317e-06
3.27743e-06
1.11716e-05
1.23414e-05
3.3044e-06
1.11528e-05
2.26534e-05
6.7088e-06
8.78669e-06
6.68677e-06
2.26587e-05
1.88301e-05
1.88143e-05
2.92778e-06
1.13444e-06
4.44412e-06
8.70731e-06
1.12642e-06
8.70134e-06
2.94659e-06
2.89061e-06
1.10221e-06
4.42294e-06
8.69444e-06
1.10984e-06
2.87265e-06
8.69878e-06
9.26745e-06
2.21405e-05
2.214e-05
2.21302e-05
2.21296e-05
9.29462e-06
2.89585e-06
1.10301e-06
8.69742e-06
4.42439e-06
2.87689e-06
1.11073e-06
8.70217e-06
9.23141e-06
2.2123e-05
2.21218e-05
9.20329e-06
2.2128e-05
2.21269e-05
2.93278e-06
1.13551e-06
8.71098e-06
4.44562e-06
1.1274e-06
8.70488e-06
2.95218e-06
1.89098e-05
1.89124e-05
9.00917e-06
2.21141e-05
2.21135e-05
2.2095e-05
2.20944e-05
9.05622e-06
2.70857e-06
8.68056e-06
4.27452e-06
1.04025e-06
8.67807e-06
2.7305e-06
1.03307e-06
2.713e-06
8.68453e-06
4.27624e-06
1.04099e-06
8.68202e-06
2.73478e-06
1.03381e-06
1.88562e-05
1.88748e-05
1.88587e-05
1.88772e-05
9.115e-06
2.21151e-05
2.21144e-05
9.08973e-06
2.21176e-05
2.2117e-05
2.81762e-06
1.08591e-06
4.36168e-06
8.691e-06
8.68724e-06
1.07835e-06
2.83801e-06
2.82249e-06
1.08673e-06
4.36339e-06
8.69501e-06
8.69122e-06
1.07917e-06
2.8426e-06
2.7834e-06
8.68218e-06
1.05568e-06
4.339e-06
2.7663e-06
8.68564e-06
1.06287e-06
2.78802e-06
8.68615e-06
1.05643e-06
4.34082e-06
2.77101e-06
8.68959e-06
1.06364e-06
9.14035e-06
2.21209e-05
2.21203e-05
2.2114e-05
2.21134e-05
9.17613e-06
1.24649e-05
2.33234e-06
1.13306e-05
3.13548e-06
1.13539e-05
3.11186e-06
1.24501e-05
2.26355e-05
6.4196e-06
8.7629e-06
2.26263e-05
6.44971e-06
1.24973e-05
2.31131e-06
1.14215e-05
3.05704e-06
1.13965e-05
1.25132e-05
3.08259e-06
2.26331e-05
6.50507e-06
8.76436e-06
6.47783e-06
2.26411e-05
1.24062e-05
1.12898e-05
3.16708e-06
2.37939e-06
1.24196e-05
1.1268e-05
3.19325e-06
2.26449e-05
8.77464e-06
6.6159e-06
2.26523e-05
6.58931e-06
2.26471e-05
6.53536e-06
8.773e-06
2.26386e-05
6.56446e-06
1.2379e-05
2.40255e-06
1.12086e-05
3.24842e-06
1.23666e-05
1.12288e-05
3.22342e-06
2.26464e-05
8.77451e-06
6.61288e-06
6.58944e-06
2.26531e-05
1.24066e-05
1.12898e-05
3.16649e-06
2.37968e-06
1.242e-05
1.12679e-05
3.19352e-06
2.26486e-05
8.77274e-06
6.5346e-06
2.26398e-05
6.56285e-06
1.23796e-05
3.2484e-06
2.40266e-06
1.12084e-05
1.12288e-05
3.22437e-06
1.23672e-05
9.01315e-06
2.2112e-05
2.21132e-05
2.20963e-05
2.20969e-05
9.05317e-06
2.71384e-06
8.68414e-06
4.27627e-06
1.04106e-06
8.68199e-06
1.03388e-06
2.73297e-06
2.70787e-06
8.68123e-06
4.27533e-06
1.04026e-06
1.03308e-06
8.6787e-06
2.73258e-06
1.89111e-05
1.88578e-05
1.88764e-05
9.14954e-06
2.21229e-05
2.2128e-05
9.18251e-06
2.21138e-05
2.21184e-05
2.81996e-06
8.69456e-06
1.08723e-06
4.3631e-06
2.8458e-06
8.68998e-06
1.0795e-06
9.11172e-06
2.21113e-05
2.21131e-05
9.08448e-06
2.21145e-05
2.21175e-05
2.78631e-06
4.34008e-06
8.68547e-06
1.05643e-06
1.06298e-06
2.77092e-06
8.68774e-06
2.78745e-06
4.33913e-06
8.68289e-06
1.0555e-06
2.76263e-06
8.68712e-06
1.06352e-06
1.88582e-05
1.8876e-05
1.24652e-05
2.33245e-06
1.13311e-05
3.13618e-06
1.13542e-05
3.11203e-06
1.24503e-05
2.2635e-05
6.4178e-06
8.76334e-06
2.26255e-05
6.45004e-06
1.24975e-05
2.31058e-06
1.14217e-05
3.05727e-06
1.13971e-05
1.25134e-05
3.0819e-06
2.26333e-05
6.50667e-06
8.76499e-06
6.47778e-06
2.26413e-05
1.24065e-05
3.16694e-06
1.12902e-05
2.3796e-06
1.242e-05
3.1933e-06
1.12684e-05
2.26437e-05
8.7756e-06
6.61401e-06
2.26509e-05
6.58824e-06
2.26464e-05
6.53646e-06
8.77428e-06
2.26389e-05
6.56391e-06
1.2379e-05
2.40203e-06
3.24866e-06
1.12089e-05
1.23667e-05
3.22295e-06
1.12292e-05
1.2407e-05
1.129e-05
3.16724e-06
2.37924e-06
1.24204e-05
1.12684e-05
3.19321e-06
2.26463e-05
8.77546e-06
6.61452e-06
6.58841e-06
2.26535e-05
2.26483e-05
6.53355e-06
8.77366e-06
2.26396e-05
6.56294e-06
1.23797e-05
2.40236e-06
1.1209e-05
3.24876e-06
1.12291e-05
3.22391e-06
1.23674e-05
1.24648e-05
2.33246e-06
3.13585e-06
1.1331e-05
3.11323e-06
1.13544e-05
1.24498e-05
2.26335e-05
6.50674e-06
8.76578e-06
6.48247e-06
2.26399e-05
1.24646e-05
2.33187e-06
1.13307e-05
3.13784e-06
1.13541e-05
3.11124e-06
1.24501e-05
2.26327e-05
6.50815e-06
8.76401e-06
6.47731e-06
2.26419e-05
1.23791e-05
3.24961e-06
1.12089e-05
2.40207e-06
1.2367e-05
3.22418e-06
1.12292e-05
2.26454e-05
6.61708e-06
8.77521e-06
2.26538e-05
6.59131e-06
1.2406e-05
2.37952e-06
3.1657e-06
1.12902e-05
1.24194e-05
3.19275e-06
1.12683e-05
2.26461e-05
8.77292e-06
6.53397e-06
2.26371e-05
6.56227e-06
2.26452e-05
6.61362e-06
8.77501e-06
2.2653e-05
6.58653e-06
1.24068e-05
2.37933e-06
1.12899e-05
3.16773e-06
1.24204e-05
1.1268e-05
3.19245e-06
2.26476e-05
8.77349e-06
6.53491e-06
2.26402e-05
6.56158e-06
9.00564e-06
2.21053e-05
2.21058e-05
2.20983e-05
2.20987e-05
9.04484e-06
2.67765e-06
1.01232e-06
8.68004e-06
4.25179e-06
8.68132e-06
2.65882e-06
1.01918e-06
2.67323e-06
1.01156e-06
8.67631e-06
4.25049e-06
1.01839e-06
2.65445e-06
8.67754e-06
8.97216e-06
2.20883e-05
2.20887e-05
2.20994e-05
8.93591e-06
2.20999e-05
2.7131e-06
8.68432e-06
4.27638e-06
1.041e-06
8.68214e-06
1.03392e-06
2.73215e-06
2.70872e-06
8.68066e-06
4.27511e-06
1.0402e-06
1.03318e-06
8.67842e-06
2.72749e-06
1.8933e-05
1.89116e-05
1.88598e-05
1.88782e-05
9.12245e-06
2.21089e-05
2.21093e-05
9.08826e-06
2.21206e-05
2.21211e-05
2.82478e-06
1.08698e-06
4.36383e-06
8.69539e-06
1.07951e-06
8.69129e-06
2.84236e-06
2.82002e-06
1.08606e-06
4.36216e-06
8.6915e-06
8.68745e-06
1.07864e-06
2.83736e-06
2.79015e-06
8.68577e-06
1.05632e-06
4.3408e-06
1.06375e-06
2.77001e-06
8.68937e-06
2.78529e-06
8.68209e-06
1.05552e-06
4.33909e-06
2.76541e-06
8.68556e-06
1.06287e-06
9.14893e-06
2.21212e-05
2.21217e-05
2.21184e-05
2.21188e-05
9.17262e-06
1.88577e-05
1.88762e-05
1.24647e-05
2.33227e-06
3.13708e-06
1.1331e-05
3.11328e-06
1.13544e-05
1.24498e-05
2.26341e-05
6.41872e-06
8.76326e-06
6.45122e-06
2.26227e-05
1.24966e-05
2.31075e-06
3.05557e-06
1.14219e-05
3.08175e-06
1.25125e-05
1.1397e-05
2.26333e-05
6.50829e-06
8.76534e-06
6.48285e-06
2.26408e-05
1.24648e-05
2.33163e-06
3.13708e-06
1.1331e-05
3.11072e-06
1.13544e-05
1.24502e-05
2.2634e-05
6.41758e-06
8.76329e-06
2.26257e-05
6.44811e-06
1.24974e-05
2.31062e-06
3.05693e-06
1.14219e-05
1.25135e-05
3.08118e-06
1.13969e-05
2.26325e-05
6.50757e-06
8.76452e-06
6.47617e-06
2.26419e-05
1.24061e-05
3.16618e-06
1.12901e-05
2.37919e-06
1.24196e-05
3.19179e-06
1.12683e-05
2.26444e-05
8.77506e-06
6.61641e-06
6.59039e-06
2.26529e-05
2.26459e-05
6.53491e-06
8.77327e-06
2.26377e-05
6.56155e-06
1.23788e-05
2.4016e-06
3.24996e-06
1.12089e-05
3.22334e-06
1.12292e-05
1.23667e-05
1.24071e-05
3.1679e-06
1.12902e-05
2.37974e-06
1.24206e-05
3.19371e-06
1.12683e-05
2.26468e-05
8.77592e-06
6.61413e-06
6.5882e-06
2.26535e-05
2.26494e-05
6.53531e-06
8.77436e-06
2.2641e-05
6.56399e-06
1.23796e-05
2.40141e-06
3.24871e-06
1.12089e-05
3.22257e-06
1.12292e-05
1.23672e-05
1.89336e-05
1.89117e-05
1.89349e-05
1.89129e-05
2.8249e-06
1.08662e-06
4.36256e-06
8.69296e-06
2.84054e-06
1.07966e-06
8.68856e-06
9.12224e-06
2.21049e-05
2.21039e-05
9.07969e-06
2.21201e-05
2.21189e-05
2.82328e-06
1.08671e-06
4.36304e-06
8.69459e-06
2.8429e-06
1.07866e-06
8.69e-06
2.78266e-06
4.33885e-06
8.68219e-06
1.05567e-06
2.76406e-06
1.06279e-06
8.68547e-06
2.79171e-06
8.68569e-06
1.05599e-06
4.34063e-06
2.76633e-06
1.06369e-06
8.689e-06
9.15848e-06
2.2128e-05
2.21259e-05
9.17956e-06
2.21237e-05
2.21216e-05
1.88767e-05
1.88591e-05
1.88779e-05
1.88269e-05
1.88109e-05
1.88294e-05
1.88138e-05
9.264e-06
2.21362e-05
2.21356e-05
2.21329e-05
2.21323e-05
9.28755e-06
2.89362e-06
1.10223e-06
8.69339e-06
4.42295e-06
2.87414e-06
8.69884e-06
1.11002e-06
2.89833e-06
1.10306e-06
8.69739e-06
4.42468e-06
2.87926e-06
8.70283e-06
1.11086e-06
9.24215e-06
2.21241e-05
2.21235e-05
9.2102e-06
2.21354e-05
2.21347e-05
2.92671e-06
8.70705e-06
4.44409e-06
1.13432e-06
8.70152e-06
2.94516e-06
1.12648e-06
2.93201e-06
8.71126e-06
4.44607e-06
1.13524e-06
8.70559e-06
2.95015e-06
1.12738e-06
2.26566e-05
8.78281e-06
6.63626e-06
2.26496e-05
6.66023e-06
2.2654e-05
8.78459e-06
6.70732e-06
6.68459e-06
2.26605e-05
1.23079e-05
3.36097e-06
2.47691e-06
1.10995e-05
1.1117e-05
3.33462e-06
1.2298e-05
1.23304e-05
3.277e-06
2.45274e-06
1.11712e-05
1.11524e-05
1.23416e-05
3.30337e-06
2.26605e-05
8.79391e-06
6.72766e-06
2.2656e-05
6.74704e-06
1.22677e-05
3.38837e-06
2.5312e-06
1.10659e-05
1.22771e-05
1.10498e-05
3.41287e-06
1.23079e-05
2.47684e-06
1.11e-05
3.35993e-06
1.11173e-05
3.33378e-06
1.2298e-05
2.26561e-05
6.63674e-06
8.78413e-06
2.26499e-05
6.66079e-06
1.23308e-05
2.45288e-06
1.11715e-05
3.27811e-06
1.11529e-05
1.2342e-05
3.30361e-06
2.26526e-05
6.70613e-06
8.7855e-06
6.68208e-06
2.26592e-05
1.22674e-05
2.53165e-06
3.38808e-06
1.10663e-05
1.22766e-05
3.41317e-06
1.10502e-05
1.22682e-05
2.53171e-06
1.10663e-05
3.38899e-06
1.22773e-05
1.10503e-05
3.4143e-06
2.26614e-05
6.72681e-06
8.7953e-06
2.26557e-05
6.74899e-06
9.27067e-06
2.21374e-05
2.2138e-05
2.21331e-05
2.21336e-05
9.29069e-06
2.898e-06
1.10292e-06
8.69745e-06
4.42434e-06
8.7023e-06
2.87723e-06
1.11077e-06
2.89284e-06
1.10205e-06
8.6936e-06
4.42284e-06
1.10983e-06
2.87232e-06
8.69847e-06
9.23997e-06
2.21207e-05
2.21212e-05
2.21312e-05
9.20505e-06
2.21317e-05
2.93339e-06
8.71133e-06
4.44602e-06
1.13553e-06
8.70514e-06
1.12752e-06
2.95176e-06
2.92831e-06
8.70745e-06
4.44453e-06
1.13453e-06
1.12659e-06
8.70132e-06
2.94647e-06
1.88284e-05
1.88125e-05
1.87895e-05
9.32762e-06
2.21324e-05
2.21329e-05
9.30823e-06
2.21347e-05
2.21353e-05
3.00122e-06
8.71416e-06
1.15223e-06
4.50293e-06
1.16025e-06
2.98327e-06
8.72004e-06
2.99576e-06
8.71027e-06
1.15126e-06
4.50137e-06
2.97806e-06
8.71609e-06
1.15922e-06
1.87877e-05
1.2307e-05
2.47584e-06
3.35944e-06
1.10999e-05
3.33268e-06
1.11173e-05
1.22971e-05
2.26554e-05
6.64052e-06
8.785e-06
6.66167e-06
2.26495e-05
1.23303e-05
2.45356e-06
3.27909e-06
1.11716e-05
3.30337e-06
1.23416e-05
1.11528e-05
2.26515e-05
6.7067e-06
8.78612e-06
6.68433e-06
2.26584e-05
1.2308e-05
2.47624e-06
3.35934e-06
1.10999e-05
3.33314e-06
1.11173e-05
1.22979e-05
2.26566e-05
6.63652e-06
8.78414e-06
2.26501e-05
6.66144e-06
1.23309e-05
2.45411e-06
3.2784e-06
1.11716e-05
1.2342e-05
3.30515e-06
1.11528e-05
2.26531e-05
6.70648e-06
8.7857e-06
6.68278e-06
2.26593e-05
2.26612e-05
6.73019e-06
8.79581e-06
2.26552e-05
6.75059e-06
1.88288e-05
1.88301e-05
1.88141e-05
2.99616e-06
1.15142e-06
4.50168e-06
8.71042e-06
1.15938e-06
2.98011e-06
8.71667e-06
9.33114e-06
2.21372e-05
2.21368e-05
9.31568e-06
2.21389e-05
2.21382e-05
3.00155e-06
1.15252e-06
8.71411e-06
4.50331e-06
2.98511e-06
1.16047e-06
8.72046e-06
1.87896e-05
1.77958e-07
1.87686e-07
1.7796e-07
1.80686e-07
1.80685e-07
1.77149e-07
1.74402e-07
8.36852e-07
2.70563e-07
4.04389e-07
4.04445e-07
9.20366e-07
2.67373e-07
4.1995e-07
4.20039e-07
4.21109e-07
9.13457e-07
4.21237e-07
8.91439e-07
2.68786e-07
4.1628e-07
4.16344e-07
4.15226e-07
4.15299e-07
8.98212e-07
4.02461e-07
5.64881e-07
1.94686e-06
1.26048e-06
1.25315e-06
5.63131e-07
4.02554e-07
8.36753e-07
4.03777e-07
4.03717e-07
2.70552e-07
4.0436e-07
8.3085e-07
4.04422e-07
8.9181e-07
2.68793e-07
4.16366e-07
4.16286e-07
4.15323e-07
4.15249e-07
8.98356e-07
8.91995e-07
4.16405e-07
2.68805e-07
4.16285e-07
8.98565e-07
4.15726e-07
4.14897e-07
9.20625e-07
4.19953e-07
4.20033e-07
2.67349e-07
9.13686e-07
4.21128e-07
4.21197e-07
4.05684e-07
5.70374e-07
1.98319e-06
1.27761e-06
5.72303e-07
4.05493e-07
1.28509e-06
4.12839e-07
5.86336e-07
2.04011e-06
1.32781e-06
5.88539e-07
4.125e-07
1.33534e-06
9.20473e-07
4.20023e-07
4.19947e-07
2.6736e-07
4.21128e-07
9.13426e-07
4.2121e-07
9.66839e-07
4.30652e-07
2.66952e-07
4.30799e-07
4.32057e-07
9.59702e-07
4.32209e-07
3.16714e-07
2.85677e-07
7.71716e-07
6.0669e-07
7.76256e-07
2.848e-07
3.17036e-07
4.05783e-07
5.70653e-07
1.27809e-06
1.98361e-06
5.726e-07
1.28549e-06
4.05601e-07
3.17755e-07
6.12424e-07
2.84189e-07
7.91797e-07
7.86977e-07
2.84914e-07
3.17486e-07
4.08928e-07
2.00306e-06
5.80406e-07
1.31042e-06
5.7828e-07
1.30282e-06
4.09201e-07
9.20482e-07
4.19639e-07
4.20347e-07
2.67354e-07
4.2152e-07
9.13646e-07
4.20796e-07
9.36076e-07
2.67712e-07
4.2621e-07
4.26635e-07
4.24981e-07
9.43288e-07
4.25267e-07
9.67041e-07
4.30437e-07
2.66938e-07
4.30992e-07
9.59692e-07
4.32442e-07
4.31818e-07
3.16708e-07
2.85677e-07
7.71805e-07
6.06733e-07
2.848e-07
7.76335e-07
3.17028e-07
4.08883e-07
5.80277e-07
2.0029e-06
1.31008e-06
1.30259e-06
4.09148e-07
5.78207e-07
4.05727e-07
1.2778e-06
5.7049e-07
1.98331e-06
1.28521e-06
5.72404e-07
4.05547e-07
3.17742e-07
6.12397e-07
2.84191e-07
7.9166e-07
2.84914e-07
7.86912e-07
3.1748e-07
3.18508e-07
2.84366e-07
8.02933e-07
6.23798e-07
3.18729e-07
8.07892e-07
2.83797e-07
4.12927e-07
5.86558e-07
1.32813e-06
2.04041e-06
4.12589e-07
5.888e-07
1.33576e-06
4.1288e-07
5.86414e-07
2.04015e-06
1.32777e-06
4.12536e-07
1.3354e-06
5.88618e-07
3.1851e-07
2.84366e-07
8.02872e-07
6.23833e-07
3.1872e-07
2.83802e-07
8.07917e-07
1.85055e-07
1.87688e-07
1.77959e-07
1.80687e-07
1.80685e-07
1.7715e-07
1.74403e-07
1.86342e-07
1.8634e-07
1.90389e-07
1.83479e-07
1.83477e-07
1.79963e-07
1.82846e-07
1.86342e-07
1.8634e-07
1.90388e-07
1.83479e-07
1.83477e-07
1.79963e-07
1.82846e-07
1.86343e-07
1.86341e-07
1.90391e-07
1.8348e-07
1.83478e-07
1.79963e-07
1.82846e-07
1.86343e-07
1.86341e-07
1.90391e-07
1.8348e-07
1.83478e-07
1.79963e-07
1.82846e-07
1.87683e-07
1.7796e-07
1.77958e-07
1.80686e-07
1.80684e-07
1.77149e-07
1.74402e-07
1.87687e-07
1.77961e-07
1.77959e-07
1.80687e-07
1.80685e-07
1.7715e-07
1.74403e-07
3.16379e-07
5.84271e-07
7.33909e-07
2.87944e-07
7.30115e-07
2.89264e-07
3.15834e-07
3.9725e-07
1.2121e-06
1.8923e-06
5.51525e-07
5.50028e-07
1.20508e-06
3.97212e-07
3.16382e-07
5.84253e-07
2.87946e-07
7.33936e-07
2.8927e-07
7.30109e-07
3.15832e-07
3.94956e-07
5.44175e-07
1.18118e-06
1.87368e-06
3.95051e-07
5.45512e-07
1.18835e-06
3.15995e-07
5.8023e-07
2.90894e-07
7.17417e-07
3.16707e-07
2.89445e-07
7.21158e-07
3.9725e-07
1.21215e-06
1.89231e-06
5.51522e-07
5.50035e-07
1.20511e-06
3.9721e-07
8.50389e-07
2.70661e-07
4.07926e-07
4.07976e-07
4.07146e-07
4.0719e-07
8.56388e-07
1.72707e-07
1.825e-07
1.80014e-07
1.753e-07
1.72705e-07
1.69101e-07
1.71721e-07
1.75301e-07
1.75299e-07
1.80011e-07
1.72706e-07
1.72704e-07
1.69101e-07
1.7172e-07
1.75302e-07
1.753e-07
1.80014e-07
1.72707e-07
1.72705e-07
1.69101e-07
1.71721e-07
3.1774e-07
6.12376e-07
2.84188e-07
7.91693e-07
2.84912e-07
7.86876e-07
3.17472e-07
4.05717e-07
5.70422e-07
1.27801e-06
1.9832e-06
4.05535e-07
5.72356e-07
1.28534e-06
3.16697e-07
6.06702e-07
2.85674e-07
7.71763e-07
3.17019e-07
2.84796e-07
7.76232e-07
4.08883e-07
1.31028e-06
2.00281e-06
5.80244e-07
5.78165e-07
1.30273e-06
4.09146e-07