/*--------------------------------*- C++ -*----------------------------------*\
| =========                 |                                                 |
| \\      /  F ield         | OpenFOAM: The Open Source CFD Toolbox           |
|  \\    /   O peration     | Version:  v2006                                 |
|   \\  /    A nd           | Website:  www.openfoam.com                      |
|    \\/     M anipulation  |                                                 |
\*---------------------------------------------------------------------------*/
FoamFile
{
    version     2.0;
    format      ascii;
    class       volScalarField;
    location    "1000";
    object      k;
}
// * * * * * * * * * * * * * * * * * * * * * * * * * * * * * * * * * * * * * //

dimensions      [0 2 -2 0 0 0 0];


internalField   nonuniform List<scalar> 
14298
(
6.96665e-05
6.96688e-05
1.78895e-05
5.86422e-05
5.8661e-05
5.20912e-05
7.00014e-05
5.21075e-05
2.79713e-05
1.612e-05
4.45495e-05
1.50229e-05
2.79771e-05
1.50233e-05
5.21923e-05
7.00058e-05
2.79827e-05
1.61204e-05
4.45558e-05
1.50231e-05
5.21718e-05
6.99993e-05
2.79805e-05
1.61207e-05
1.50232e-05
4.45595e-05
1.61202e-05
4.4564e-05
7.00039e-05
6.96676e-05
1.78893e-05
5.86557e-05
5.86523e-05
6.96663e-05
2.79838e-05
1.61212e-05
1.50236e-05
4.45635e-05
2.79773e-05
1.61203e-05
1.50232e-05
4.45619e-05
5.2116e-05
7.00078e-05
5.21029e-05
7.00032e-05
1.78888e-05
5.86482e-05
5.86599e-05
6.96655e-05
6.9668e-05
6.96641e-05
6.96659e-05
8.72243e-05
7.24885e-05
7.24821e-05
8.70192e-05
7.24943e-05
7.24879e-05
5.65265e-05
6.87093e-05
3.81559e-05
5.87793e-05
5.62806e-05
6.87454e-05
3.84048e-05
5.65958e-05
6.87222e-05
3.81824e-05
5.8792e-05
5.63509e-05
6.87571e-05
3.84279e-05
6.9808e-05
6.90795e-05
5.84927e-05
5.23541e-05
6.97951e-05
6.90949e-05
5.87021e-05
7.10305e-05
7.37743e-05
7.00154e-05
7.10305e-05
7.38708e-05
6.98069e-05
6.90799e-05
5.85246e-05
5.23578e-05
6.97968e-05
6.90939e-05
5.87201e-05
6.98137e-05
5.85824e-05
6.90858e-05
5.24504e-05
6.98041e-05
5.87873e-05
6.90993e-05
7.10378e-05
7.37891e-05
7.00227e-05
7.10369e-05
7.3908e-05
6.98099e-05
6.9084e-05
5.85358e-05
5.2423e-05
6.97991e-05
6.90972e-05
5.87435e-05
7.10346e-05
7.37482e-05
7.00169e-05
7.10326e-05
7.38656e-05
7.0014e-05
6.96652e-05
8.70893e-05
7.24663e-05
7.24725e-05
8.70697e-05
7.24649e-05
7.2471e-05
5.65197e-05
6.87192e-05
3.81874e-05
5.87805e-05
3.84047e-05
5.63489e-05
6.87474e-05
5.64511e-05
6.87087e-05
3.81708e-05
5.87733e-05
5.62807e-05
6.87364e-05
3.8384e-05
6.96636e-05
6.98068e-05
5.85368e-05
6.90806e-05
5.23671e-05
6.97976e-05
5.87185e-05
6.90946e-05
7.10319e-05
7.38185e-05
7.00175e-05
7.10334e-05
7.38848e-05
6.98081e-05
5.85099e-05
6.90803e-05
5.23763e-05
6.97964e-05
5.87196e-05
6.90956e-05
7.10312e-05
7.37831e-05
7.00154e-05
7.10327e-05
7.38723e-05
8.71317e-05
7.2477e-05
7.24709e-05
8.71372e-05
7.24723e-05
7.2466e-05
5.64174e-05
6.87109e-05
3.81961e-05
5.87671e-05
5.63223e-05
3.83886e-05
6.8732e-05
5.64884e-05
6.87229e-05
3.82142e-05
5.87812e-05
5.63902e-05
3.84121e-05
6.87442e-05
6.96628e-05
6.9665e-05
1.51165e-05
1.52734e-05
1.52736e-05
1.56566e-05
1.52735e-05
1.56566e-05
1.5117e-05
1.52734e-05
1.52737e-05
1.56565e-05
1.51163e-05
1.52735e-05
1.56564e-05
3.70745e-05
1.7909e-05
2.43344e-05
2.43403e-05
3.69292e-05
2.44214e-05
2.44275e-05
1.91228e-05
3.21561e-05
1.7565e-05
2.81075e-05
1.90844e-05
3.22928e-05
1.75985e-05
2.1922e-05
3.88108e-05
2.69564e-05
4.46758e-05
2.70607e-05
2.18636e-05
3.89322e-05
1.91268e-05
3.21686e-05
1.75663e-05
2.81131e-05
1.90876e-05
3.23058e-05
1.76002e-05
1.91252e-05
3.21669e-05
1.75656e-05
2.81276e-05
1.90855e-05
3.23141e-05
1.76003e-05
2.19239e-05
3.88122e-05
2.69626e-05
4.46849e-05
2.70676e-05
2.18644e-05
3.894e-05
1.91249e-05
1.75656e-05
3.21634e-05
2.81215e-05
1.90856e-05
1.76001e-05
3.23035e-05
2.19246e-05
3.88082e-05
2.69668e-05
4.4678e-05
2.18657e-05
3.89326e-05
2.70685e-05
2.69662e-05
4.46809e-05
2.7068e-05
3.70719e-05
1.79083e-05
2.43426e-05
2.43392e-05
2.4426e-05
3.69457e-05
2.44223e-05
1.91306e-05
1.75688e-05
3.2181e-05
2.81192e-05
1.9092e-05
1.76026e-05
3.23149e-05
2.1931e-05
3.88387e-05
2.69634e-05
4.46812e-05
2.18724e-05
2.70649e-05
3.89568e-05
1.91253e-05
1.7567e-05
3.2163e-05
2.81145e-05
1.90866e-05
1.76008e-05
3.23007e-05
2.19251e-05
3.88162e-05
2.69705e-05
4.46816e-05
2.1866e-05
3.89388e-05
2.70726e-05
3.70853e-05
1.79088e-05
2.43441e-05
2.4349e-05
3.69658e-05
2.44277e-05
2.44331e-05
1.90945e-05
1.84893e-05
1.92854e-05
1.92864e-05
1.85899e-05
1.84897e-05
1.90934e-05
2.03338e-05
7.08193e-05
3.11126e-05
1.95433e-05
1.92648e-05
4.68828e-05
4.6898e-05
1.97551e-05
1.92596e-05
3.2314e-05
1.97549e-05
3.08739e-05
1.92602e-05
6.9242e-05
3.23529e-05
1.97549e-05
3.08763e-05
1.92599e-05
6.92409e-05
3.23397e-05
4.6656e-05
4.66603e-05
7.08783e-05
7.08786e-05
4.68762e-05
4.68773e-05
7.08187e-05
6.92467e-05
3.24986e-05
1.9543e-05
3.1114e-05
1.92664e-05
6.92492e-05
3.25385e-05
7.08197e-05
7.08203e-05
7.07975e-05
2.42677e-05
6.69636e-05
3.89254e-05
2.42671e-05
6.69693e-05
3.89377e-05
7.28273e-05
7.28216e-05
7.57742e-05
7.13695e-05
6.29439e-05
6.26173e-05
7.13882e-05
7.15059e-05
3.20852e-05
3.92208e-05
7.2555e-05
3.89318e-05
7.26666e-05
7.14391e-05
7.13752e-05
6.92195e-05
6.31157e-05
6.26513e-05
7.13956e-05
7.15062e-05
3.20624e-05
7.2554e-05
3.93573e-05
7.26661e-05
3.88975e-05
7.14406e-05
7.1374e-05
6.92198e-05
6.30992e-05
6.26113e-05
7.13951e-05
7.15055e-05
3.20491e-05
3.93201e-05
7.25541e-05
3.88683e-05
7.26662e-05
7.144e-05
3.82609e-05
2.40849e-05
4.63249e-05
6.69618e-05
3.84745e-05
2.39983e-05
6.69607e-05
3.82781e-05
2.40908e-05
4.63252e-05
6.69673e-05
3.8518e-05
2.40042e-05
6.69663e-05
7.4845e-05
7.28124e-05
7.28053e-05
7.51329e-05
7.27986e-05
7.27921e-05
7.09027e-05
7.0903e-05
3.92493e-05
2.42781e-05
6.69698e-05
4.72134e-05
6.69757e-05
3.90391e-05
2.43713e-05
3.92013e-05
2.42587e-05
6.69646e-05
4.72019e-05
2.43725e-05
3.8947e-05
6.69699e-05
7.60108e-05
7.28232e-05
7.28295e-05
7.2831e-05
7.58173e-05
7.28371e-05
7.07969e-05
7.1416e-05
6.32942e-05
6.92729e-05
6.38031e-05
7.13908e-05
7.12475e-05
3.28397e-05
3.9543e-05
7.23682e-05
4.00692e-05
7.13074e-05
7.22625e-05
7.14085e-05
6.33231e-05
6.9265e-05
7.13913e-05
6.36797e-05
7.12463e-05
3.28199e-05
7.23674e-05
3.96345e-05
7.13076e-05
7.22618e-05
3.99959e-05
1.91583e-05
1.91576e-05
2.30816e-05
2.28569e-05
1.86494e-05
1.91707e-05
1.91702e-05
2.29255e-05
1.92122e-05
1.92115e-05
2.31665e-05
1.9158e-05
1.91588e-05
1.84302e-05
1.91257e-05
2.30904e-05
1.91251e-05
2.07946e-05
2.11647e-05
2.07943e-05
2.07945e-05
2.11647e-05
1.85847e-05
1.98682e-05
2.53116e-05
3.12289e-05
1.86384e-05
1.9871e-05
2.54116e-05
1.816e-05
1.92701e-05
2.08436e-05
1.80825e-05
1.8247e-05
2.08872e-05
1.7991e-05
1.87213e-05
2.51076e-05
1.86609e-05
2.5018e-05
1.83853e-05
1.92617e-05
2.07646e-05
1.81562e-05
1.82937e-05
2.0731e-05
1.82492e-05
1.87207e-05
1.98555e-05
3.07613e-05
2.51087e-05
2.50139e-05
1.98567e-05
1.86604e-05
1.83846e-05
1.92607e-05
1.81559e-05
2.07643e-05
1.82489e-05
2.07269e-05
1.82932e-05
1.8721e-05
1.98566e-05
3.07636e-05
2.51086e-05
2.50142e-05
1.98577e-05
1.86606e-05
1.83847e-05
1.92606e-05
1.81558e-05
2.07641e-05
1.8249e-05
2.07273e-05
1.82931e-05
1.85846e-05
1.98686e-05
2.53164e-05
3.12302e-05
1.98713e-05
1.86381e-05
2.54117e-05
1.81601e-05
1.92708e-05
1.80825e-05
2.08488e-05
1.79911e-05
1.82471e-05
2.08898e-05
1.83883e-05
4.89631e-05
4.99494e-05
1.87437e-05
3.46156e-05
1.80718e-05
1.83723e-05
6.94115e-05
1.95181e-05
1.90944e-05
1.91335e-05
1.83881e-05
1.79329e-05
1.79979e-05
1.90933e-05
1.85546e-05
3.23565e-05
4.87775e-05
1.90933e-05
1.85555e-05
1.85543e-05
1.85557e-05
1.89365e-05
3.43721e-05
1.84896e-05
1.79976e-05
1.90944e-05
1.85555e-05
1.85555e-05
1.79973e-05
7.0593e-05
1.79332e-05
1.83872e-05
3.2621e-05
3.34217e-05
1.83881e-05
1.8387e-05
1.79331e-05
1.83881e-05
7.04827e-05
1.77039e-05
7.0446e-05
7.055e-05
7.04837e-05
1.8744e-05
1.94499e-05
3.26227e-05
1.8227e-05
1.8556e-05
1.95664e-05
3.3148e-05
1.79331e-05
4.89762e-05
4.97724e-05
1.77516e-05
4.97612e-05
7.05505e-05
7.04828e-05
7.04461e-05
1.77044e-05
4.9956e-05
7.04465e-05
3.46053e-05
6.93665e-05
3.55321e-05
6.94063e-05
1.9449e-05
1.85558e-05
1.83871e-05
1.8226e-05
3.31472e-05
3.26205e-05
1.95667e-05
6.94035e-05
6.93576e-05
3.55014e-05
1.83726e-05
1.96372e-05
3.34211e-05
3.57547e-05
6.94164e-05
1.80706e-05
3.34205e-05
1.96358e-05
3.57249e-05
3.33081e-05
3.25214e-05
6.92965e-05
7.07236e-05
3.33319e-05
6.92986e-05
1.99895e-05
2.01242e-05
2.01241e-05
2.01239e-05
2.0124e-05
1.95181e-05
1.95179e-05
1.92986e-05
1.89087e-05
3.15957e-05
1.93363e-05
7.082e-05
7.07235e-05
1.92979e-05
1.95431e-05
3.11132e-05
1.89085e-05
1.92656e-05
1.93362e-05
3.15956e-05
1.82771e-05
4.77324e-05
4.77344e-05
3.55625e-05
6.93625e-05
3.45837e-05
6.94065e-05
3.5555e-05
6.93592e-05
3.46035e-05
6.94128e-05
1.97962e-05
1.93239e-05
1.93237e-05
7.05507e-05
7.04836e-05
1.95657e-05
1.87438e-05
3.26197e-05
1.82269e-05
1.94503e-05
1.85559e-05
3.31467e-05
1.7751e-05
4.975e-05
4.89776e-05
4.89844e-05
4.97557e-05
7.07228e-05
7.07233e-05
1.82777e-05
4.77271e-05
4.77369e-05
7.05927e-05
7.06731e-05
7.05929e-05
7.06735e-05
1.81946e-05
4.87614e-05
4.87707e-05
4.79494e-05
4.79521e-05
3.33146e-05
6.92452e-05
3.25131e-05
6.92914e-05
1.92979e-05
1.95432e-05
1.89076e-05
1.92657e-05
3.15954e-05
1.93362e-05
1.92985e-05
3.11169e-05
1.95431e-05
1.89075e-05
1.92656e-05
3.15992e-05
1.93362e-05
3.34941e-05
6.93546e-05
6.93044e-05
3.44098e-05
6.9351e-05
3.34854e-05
6.9299e-05
3.44291e-05
1.93239e-05
1.8728e-05
3.23558e-05
1.89367e-05
3.1849e-05
1.91341e-05
1.94008e-05
1.85544e-05
1.93236e-05
1.87278e-05
1.89367e-05
3.18515e-05
1.9134e-05
1.94011e-05
1.82779e-05
4.77382e-05
4.77286e-05
7.07229e-05
7.05935e-05
7.06731e-05
1.7998e-05
4.87799e-05
1.81946e-05
4.79433e-05
4.79423e-05
7.05933e-05
7.06724e-05
1.92977e-05
1.89086e-05
3.15979e-05
1.93362e-05
3.33248e-05
6.92452e-05
3.25287e-05
6.9294e-05
1.92978e-05
1.95428e-05
3.11169e-05
1.89074e-05
1.92658e-05
1.9336e-05
3.15991e-05
3.35177e-05
6.93507e-05
6.93071e-05
3.44119e-05
1.93249e-05
1.87289e-05
3.23584e-05
1.89366e-05
3.18511e-05
1.9134e-05
1.94003e-05
3.35185e-05
6.9352e-05
6.93012e-05
3.44078e-05
1.93248e-05
1.87277e-05
1.89364e-05
3.23598e-05
1.91337e-05
3.18519e-05
1.94006e-05
3.33306e-05
6.92997e-05
1.92973e-05
1.89075e-05
1.93361e-05
3.15963e-05
3.33279e-05
6.92928e-05
1.89367e-05
1.94001e-05
3.23581e-05
1.9325e-05
1.8729e-05
3.185e-05
1.91341e-05
3.44074e-05
6.93578e-05
3.3504e-05
6.93047e-05
1.93992e-05
1.85545e-05
3.23568e-05
1.93258e-05
1.87279e-05
1.91339e-05
3.1849e-05
6.93486e-05
3.35467e-05
6.9302e-05
4.6894e-05
4.68768e-05
1.82775e-05
4.77395e-05
4.77408e-05
7.08188e-05
7.07235e-05
7.05939e-05
7.06738e-05
1.81945e-05
4.87825e-05
4.87744e-05
4.79561e-05
4.79518e-05
7.0593e-05
7.06733e-05
1.92971e-05
1.95431e-05
3.11165e-05
1.89085e-05
1.92666e-05
1.93362e-05
3.1599e-05
3.33404e-05
6.92477e-05
3.25164e-05
6.93018e-05
3.33118e-05
6.9249e-05
3.2547e-05
6.92915e-05
1.93254e-05
1.87288e-05
1.89367e-05
3.23556e-05
1.9134e-05
3.18488e-05
1.93993e-05
1.93251e-05
1.87288e-05
1.89367e-05
3.23584e-05
1.9134e-05
3.18516e-05
1.93999e-05
3.35307e-05
6.93558e-05
6.93074e-05
3.43989e-05
3.35379e-05
6.93519e-05
6.93014e-05
3.43755e-05
7.0723e-05
7.07233e-05
4.8769e-05
1.81943e-05
4.87715e-05
4.79528e-05
4.79606e-05
7.06734e-05
7.05936e-05
7.06741e-05
7.05501e-05
7.04823e-05
7.05501e-05
7.04837e-05
4.89687e-05
4.89676e-05
1.77515e-05
4.97477e-05
4.977e-05
6.93577e-05
6.94069e-05
3.55716e-05
3.45955e-05
1.95667e-05
3.26197e-05
1.87438e-05
1.82261e-05
1.94493e-05
3.31473e-05
1.85559e-05
1.83869e-05
3.3148e-05
1.82259e-05
1.95664e-05
1.87438e-05
1.94501e-05
1.85559e-05
6.94155e-05
3.58015e-05
1.80705e-05
1.96398e-05
1.83724e-05
1.95662e-05
3.26212e-05
1.87438e-05
1.82269e-05
1.94493e-05
3.31497e-05
1.85559e-05
3.55421e-05
6.93594e-05
3.46055e-05
6.9403e-05
1.95661e-05
1.87435e-05
3.2624e-05
1.82257e-05
1.94495e-05
1.85556e-05
3.315e-05
3.57949e-05
1.96392e-05
1.83724e-05
3.57805e-05
6.94126e-05
1.96383e-05
1.80704e-05
1.83721e-05
3.34236e-05
4.89776e-05
4.89713e-05
1.77512e-05
4.97707e-05
4.97662e-05
7.05504e-05
7.04831e-05
7.04467e-05
1.7704e-05
4.99561e-05
4.99511e-05
7.0446e-05
1.8227e-05
1.95666e-05
1.87438e-05
3.26242e-05
1.94494e-05
1.85559e-05
3.31499e-05
3.54989e-05
6.93653e-05
3.46336e-05
6.94067e-05
3.55074e-05
6.93589e-05
3.46084e-05
6.94049e-05
1.80716e-05
3.34201e-05
6.94167e-05
7.05506e-05
7.0551e-05
7.04834e-05
4.99498e-05
4.99566e-05
7.04469e-05
4.19931e-05
6.70566e-05
2.55177e-05
4.92602e-05
6.70807e-05
4.17709e-05
2.56296e-05
4.33985e-05
2.62213e-05
5.02238e-05
6.71397e-05
4.31025e-05
6.71722e-05
2.63597e-05
7.06134e-05
7.13065e-05
4.25134e-05
3.49781e-05
7.12259e-05
4.29615e-05
7.06558e-05
7.14677e-05
6.94331e-05
6.66627e-05
7.14546e-05
6.70147e-05
4.10711e-05
6.70454e-05
2.52913e-05
4.84747e-05
4.13119e-05
2.51834e-05
6.70247e-05
7.07972e-05
7.14649e-05
4.2161e-05
3.40472e-05
7.07507e-05
7.15513e-05
4.17261e-05
7.06093e-05
7.04957e-05
7.04342e-05
7.05356e-05
7.04963e-05
7.89198e-05
7.29011e-05
7.29077e-05
7.2908e-05
7.29144e-05
7.87515e-05
4.2105e-05
6.70563e-05
2.55032e-05
4.9267e-05
2.56776e-05
6.70833e-05
4.17549e-05
4.24295e-05
4.94687e-05
2.59861e-05
6.71247e-05
6.70961e-05
4.26564e-05
2.58716e-05
7.90959e-05
7.29261e-05
7.29315e-05
7.29056e-05
7.29112e-05
7.95247e-05
4.23134e-05
4.94567e-05
2.60042e-05
6.71242e-05
2.58357e-05
6.70941e-05
4.26893e-05
7.05356e-05
7.04955e-05
7.0434e-05
8.03187e-05
7.29313e-05
7.29366e-05
7.99845e-05
7.29427e-05
7.29473e-05
4.35143e-05
2.62003e-05
6.71411e-05
5.02424e-05
4.30808e-05
6.71774e-05
2.63989e-05
7.04346e-05
7.06128e-05
4.24942e-05
7.13068e-05
3.49389e-05
4.28817e-05
7.12267e-05
7.06559e-05
7.14578e-05
6.57578e-05
6.93832e-05
6.60434e-05
7.14458e-05
7.05247e-05
3.51763e-05
4.36443e-05
7.10014e-05
4.31854e-05
7.10757e-05
7.04871e-05
7.14492e-05
6.93888e-05
6.65163e-05
6.61906e-05
7.14638e-05
7.14499e-05
6.93864e-05
6.65002e-05
6.62088e-05
7.14619e-05
7.14581e-05
6.57044e-05
6.9379e-05
6.60547e-05
7.14444e-05
7.05248e-05
3.51878e-05
4.35773e-05
7.10006e-05
7.10749e-05
4.3208e-05
7.04858e-05
7.03737e-05
4.39433e-05
7.08583e-05
3.61116e-05
7.04082e-05
4.43583e-05
7.07897e-05
7.14689e-05
6.6721e-05
6.94398e-05
7.14565e-05
6.70582e-05
7.03729e-05
4.3878e-05
7.08579e-05
3.61206e-05
7.04062e-05
7.07894e-05
4.43704e-05
7.11246e-05
3.30475e-05
7.19838e-05
4.07198e-05
7.20823e-05
4.03412e-05
7.10681e-05
7.14113e-05
6.3322e-05
7.13918e-05
6.37657e-05
7.12478e-05
3.28537e-05
7.23678e-05
3.96136e-05
7.13083e-05
7.22627e-05
4.00656e-05
7.14079e-05
6.43625e-05
6.92779e-05
6.3969e-05
7.14258e-05
7.07438e-05
7.11245e-05
3.30325e-05
4.0754e-05
7.19837e-05
4.0341e-05
7.20824e-05
7.10685e-05
7.14082e-05
6.43866e-05
6.92774e-05
6.39604e-05
7.14266e-05
7.07974e-05
7.07434e-05
7.67167e-05
7.28624e-05
7.28551e-05
7.28575e-05
7.28511e-05
7.68645e-05
3.92868e-05
4.71948e-05
2.43628e-05
6.69706e-05
3.93762e-05
4.72052e-05
2.43775e-05
6.69768e-05
7.64167e-05
7.28631e-05
7.28565e-05
3.97237e-05
6.69865e-05
4.74133e-05
2.46597e-05
2.45618e-05
6.69758e-05
3.99285e-05
3.97463e-05
6.69922e-05
4.7415e-05
2.46725e-05
2.45672e-05
6.69814e-05
3.99879e-05
7.05258e-05
3.51882e-05
7.10014e-05
4.36399e-05
7.10758e-05
4.32277e-05
7.04872e-05
7.14578e-05
6.57159e-05
6.93812e-05
7.14446e-05
6.60607e-05
7.06132e-05
3.49183e-05
7.13068e-05
4.24736e-05
7.06558e-05
7.12269e-05
4.29129e-05
7.14498e-05
6.65359e-05
6.93885e-05
6.622e-05
7.1462e-05
7.05261e-05
3.51625e-05
4.36861e-05
7.10017e-05
4.32178e-05
7.10759e-05
7.04881e-05
7.14589e-05
6.56709e-05
6.93816e-05
7.1443e-05
6.60518e-05
7.06129e-05
3.49208e-05
4.24605e-05
7.13067e-05
7.06551e-05
4.28819e-05
7.12269e-05
7.14528e-05
6.65891e-05
6.93916e-05
6.62655e-05
7.14641e-05
7.0536e-05
7.04964e-05
4.23602e-05
2.6e-05
4.94557e-05
6.71226e-05
2.58472e-05
6.70918e-05
4.27504e-05
4.1952e-05
2.55116e-05
4.92712e-05
6.70549e-05
2.56326e-05
4.16957e-05
6.70783e-05
7.92407e-05
7.29411e-05
7.29349e-05
7.29181e-05
7.29118e-05
7.97298e-05
4.19887e-05
2.55195e-05
6.70603e-05
4.92805e-05
4.17323e-05
2.56398e-05
6.70836e-05
7.88151e-05
7.29025e-05
7.28962e-05
7.86077e-05
7.29135e-05
7.29067e-05
4.2404e-05
2.60138e-05
6.71286e-05
4.94648e-05
2.58504e-05
6.70973e-05
4.28052e-05
7.07427e-05
7.07432e-05
7.63496e-05
7.2884e-05
7.28773e-05
7.2842e-05
7.28354e-05
7.70757e-05
3.95498e-05
6.69862e-05
4.74161e-05
2.46559e-05
6.69734e-05
3.99889e-05
2.45506e-05
3.95923e-05
6.69926e-05
4.74304e-05
2.46628e-05
6.69798e-05
4.00274e-05
2.45579e-05
7.06089e-05
7.06552e-05
7.06093e-05
7.06556e-05
7.77781e-05
7.28867e-05
7.288e-05
7.75393e-05
7.28926e-05
7.28859e-05
4.09665e-05
2.52911e-05
4.84653e-05
6.70399e-05
6.70207e-05
2.5171e-05
4.12837e-05
4.10165e-05
2.53e-05
4.84778e-05
6.70466e-05
6.70271e-05
2.51796e-05
4.13313e-05
4.06881e-05
6.69946e-05
2.48665e-05
4.82625e-05
4.04267e-05
6.70124e-05
2.49787e-05
4.07284e-05
6.70009e-05
2.48733e-05
4.827e-05
4.0471e-05
6.70188e-05
2.49852e-05
7.79037e-05
7.28993e-05
7.28925e-05
7.28845e-05
7.28777e-05
7.82088e-05
7.11241e-05
3.30642e-05
7.19829e-05
4.07119e-05
7.20818e-05
4.03676e-05
7.10675e-05
7.14123e-05
6.33325e-05
6.92677e-05
7.13929e-05
6.37732e-05
7.12472e-05
3.28508e-05
7.23675e-05
3.9595e-05
7.22618e-05
7.13075e-05
4.00798e-05
7.14074e-05
6.43006e-05
6.92755e-05
6.39708e-05
7.14241e-05
7.09034e-05
7.18104e-05
4.10181e-05
3.38487e-05
7.09544e-05
7.1718e-05
4.14805e-05
7.14358e-05
6.93337e-05
6.55432e-05
7.14513e-05
6.51633e-05
7.14402e-05
6.45586e-05
6.93248e-05
7.14223e-05
6.49655e-05
7.07996e-05
3.40992e-05
7.14655e-05
4.22e-05
7.07523e-05
7.15516e-05
4.17965e-05
7.1436e-05
6.93305e-05
6.55194e-05
6.51889e-05
7.14501e-05
7.09025e-05
7.181e-05
4.09818e-05
3.38295e-05
7.09532e-05
7.17173e-05
4.14645e-05
7.14405e-05
6.93205e-05
6.45201e-05
7.14214e-05
6.49562e-05
7.07995e-05
4.22288e-05
3.4106e-05
7.14648e-05
7.15512e-05
4.18277e-05
7.07521e-05
7.64639e-05
7.28742e-05
7.28807e-05
7.2839e-05
7.28453e-05
7.71066e-05
3.96851e-05
6.69917e-05
4.74308e-05
2.46647e-05
6.69801e-05
2.4565e-05
3.99596e-05
3.9576e-05
6.69871e-05
4.74265e-05
2.46818e-05
2.4528e-05
6.69746e-05
4.00221e-05
7.07433e-05
7.06099e-05
7.06555e-05
7.79472e-05
7.29023e-05
7.2909e-05
7.84486e-05
7.2882e-05
7.2889e-05
4.09861e-05
6.7044e-05
2.5323e-05
4.84739e-05
4.14023e-05
6.70218e-05
2.51608e-05
7.76264e-05
7.28734e-05
7.28801e-05
7.74081e-05
7.28817e-05
7.28885e-05
4.0649e-05
4.82612e-05
6.69998e-05
2.48723e-05
2.49702e-05
4.04408e-05
6.7016e-05
4.06787e-05
4.82548e-05
6.69944e-05
2.48495e-05
4.03616e-05
6.70116e-05
2.50003e-05
7.06092e-05
7.06545e-05
7.11242e-05
3.30299e-05
7.19837e-05
4.0728e-05
7.20814e-05
4.03459e-05
7.10677e-05
7.14119e-05
6.32952e-05
6.92668e-05
7.13918e-05
6.37569e-05
7.12471e-05
3.28363e-05
7.23669e-05
3.96057e-05
7.22628e-05
7.13076e-05
4.00621e-05
7.14083e-05
6.4337e-05
6.92756e-05
6.3971e-05
7.14252e-05
7.09032e-05
4.10378e-05
7.18104e-05
3.38414e-05
7.09545e-05
4.14709e-05
7.1718e-05
7.14325e-05
6.93334e-05
6.54853e-05
7.14476e-05
6.51469e-05
7.14382e-05
6.45937e-05
6.93264e-05
7.14225e-05
6.4972e-05
7.07985e-05
3.40751e-05
4.21971e-05
7.14655e-05
7.07516e-05
4.1784e-05
7.15517e-05
7.09027e-05
7.18094e-05
4.10168e-05
3.38468e-05
7.09537e-05
7.17179e-05
4.147e-05
7.14356e-05
6.93305e-05
6.55338e-05
6.51615e-05
7.14508e-05
7.14398e-05
6.45299e-05
6.9321e-05
7.14215e-05
6.49383e-05
7.07989e-05
3.40745e-05
7.14655e-05
4.22161e-05
7.15508e-05
4.17963e-05
7.07518e-05
7.11257e-05
3.30571e-05
4.07572e-05
7.19835e-05
4.04185e-05
7.20824e-05
7.10685e-05
7.14116e-05
6.43689e-05
6.92835e-05
6.40747e-05
7.14252e-05
7.1123e-05
3.30093e-05
7.19828e-05
4.0756e-05
7.20821e-05
4.02883e-05
7.10675e-05
7.14067e-05
6.43638e-05
6.92722e-05
6.39145e-05
7.14261e-05
7.07992e-05
4.22463e-05
7.14654e-05
3.40776e-05
7.07528e-05
4.18004e-05
7.15518e-05
7.14366e-05
6.55781e-05
6.93314e-05
7.14536e-05
6.51732e-05
7.0902e-05
3.38364e-05
4.09774e-05
7.18105e-05
7.0953e-05
4.14245e-05
7.17178e-05
7.14379e-05
6.93199e-05
6.45276e-05
7.14191e-05
6.48793e-05
7.1433e-05
6.54835e-05
6.93296e-05
7.14493e-05
6.51154e-05
7.09029e-05
3.38581e-05
7.18098e-05
4.10849e-05
7.09546e-05
7.17169e-05
4.14744e-05
7.14382e-05
6.9322e-05
6.45886e-05
7.14226e-05
6.49405e-05
7.6494e-05
7.28592e-05
7.28657e-05
7.28441e-05
7.28506e-05
7.68585e-05
3.93403e-05
2.42754e-05
6.69697e-05
4.7202e-05
6.69763e-05
3.89908e-05
2.43718e-05
3.92977e-05
2.42688e-05
6.69642e-05
4.7192e-05
2.43631e-05
3.89451e-05
6.69705e-05
7.62906e-05
7.28218e-05
7.28281e-05
7.28465e-05
7.58303e-05
7.28529e-05
3.96848e-05
6.69917e-05
4.7421e-05
2.46639e-05
6.69805e-05
2.45644e-05
3.9946e-05
3.96405e-05
6.69866e-05
4.74207e-05
2.46564e-05
2.45581e-05
6.69751e-05
3.9906e-05
7.07968e-05
7.07433e-05
7.06101e-05
7.0656e-05
7.78591e-05
7.28669e-05
7.28734e-05
7.73402e-05
7.2893e-05
7.28995e-05
4.11329e-05
2.53153e-05
4.84761e-05
6.70487e-05
2.51921e-05
6.70276e-05
4.13821e-05
4.10838e-05
2.53031e-05
4.84656e-05
6.70424e-05
6.70215e-05
2.51846e-05
4.13359e-05
4.07428e-05
6.69992e-05
2.48597e-05
4.82641e-05
2.49855e-05
4.03556e-05
6.70177e-05
4.06989e-05
6.69939e-05
2.48559e-05
4.8254e-05
4.03107e-05
6.70117e-05
2.49729e-05
7.81095e-05
7.28945e-05
7.29011e-05
7.28883e-05
7.28948e-05
7.82841e-05
7.06089e-05
7.06551e-05
7.11252e-05
3.30314e-05
4.07927e-05
7.19834e-05
4.03802e-05
7.20823e-05
7.10688e-05
7.14127e-05
6.32515e-05
6.9269e-05
6.37484e-05
7.13888e-05
7.12466e-05
3.28234e-05
3.95459e-05
7.23679e-05
4.00152e-05
7.13068e-05
7.22626e-05
7.14112e-05
6.44037e-05
6.92801e-05
6.40528e-05
7.1427e-05
7.1123e-05
3.30083e-05
4.07169e-05
7.19829e-05
4.02932e-05
7.2082e-05
7.10672e-05
7.14096e-05
6.33371e-05
6.92666e-05
7.13922e-05
6.37183e-05
7.12467e-05
3.28379e-05
3.96466e-05
7.23674e-05
7.13078e-05
4.00396e-05
7.22618e-05
7.14065e-05
6.43199e-05
6.9273e-05
6.39115e-05
7.1426e-05
7.09022e-05
4.10254e-05
7.18101e-05
3.38358e-05
7.09538e-05
4.14123e-05
7.17178e-05
7.14351e-05
6.93313e-05
6.55616e-05
6.51442e-05
7.1453e-05
7.14376e-05
6.45654e-05
6.9322e-05
7.14205e-05
6.48849e-05
7.07982e-05
3.40473e-05
4.22368e-05
7.14655e-05
4.17476e-05
7.15517e-05
7.07524e-05
7.09033e-05
4.10568e-05
7.18098e-05
3.38688e-05
7.09543e-05
4.15013e-05
7.17171e-05
7.14365e-05
6.93334e-05
6.55226e-05
6.51695e-05
7.14507e-05
7.14419e-05
6.45658e-05
6.93249e-05
7.14242e-05
6.49818e-05
7.07983e-05
3.40606e-05
4.21771e-05
7.1465e-05
4.17743e-05
7.15512e-05
7.07512e-05
7.07973e-05
7.07427e-05
7.07978e-05
7.0743e-05
4.11166e-05
2.53057e-05
4.8462e-05
6.70442e-05
4.14117e-05
2.51871e-05
6.70216e-05
7.77047e-05
7.28627e-05
7.2856e-05
7.71066e-05
7.28952e-05
7.28889e-05
4.11184e-05
2.53225e-05
4.84646e-05
6.70491e-05
4.14565e-05
2.51832e-05
6.70254e-05
4.05945e-05
4.82549e-05
6.69929e-05
2.48626e-05
4.02806e-05
2.49649e-05
6.70087e-05
4.06922e-05
6.69989e-05
2.48489e-05
4.82685e-05
4.02711e-05
2.49785e-05
6.70169e-05
7.82234e-05
7.29129e-05
7.29062e-05
7.84982e-05
7.29028e-05
7.28962e-05
7.06553e-05
7.06099e-05
7.06562e-05
7.05357e-05
7.04957e-05
7.05361e-05
7.04971e-05
7.93419e-05
7.29333e-05
7.29265e-05
7.2926e-05
7.29192e-05
7.96129e-05
4.20701e-05
2.55053e-05
6.70522e-05
4.92777e-05
4.17046e-05
6.70802e-05
2.56496e-05
4.21142e-05
2.55138e-05
6.70588e-05
4.92783e-05
4.1757e-05
6.70867e-05
2.56564e-05
7.91235e-05
7.29061e-05
7.28994e-05
7.86258e-05
7.29311e-05
7.29243e-05
4.24091e-05
6.71225e-05
4.94699e-05
2.59966e-05
6.7094e-05
4.26963e-05
2.58578e-05
4.24586e-05
6.71301e-05
4.94831e-05
2.60075e-05
6.71009e-05
4.27446e-05
2.58661e-05
7.14573e-05
6.93744e-05
6.56727e-05
7.14427e-05
6.59858e-05
7.14518e-05
6.93837e-05
6.65697e-05
6.62021e-05
7.14656e-05
7.05256e-05
4.36963e-05
3.51675e-05
7.1001e-05
7.10755e-05
4.32094e-05
7.04879e-05
7.06119e-05
4.2449e-05
3.48938e-05
7.13063e-05
7.12262e-05
7.06546e-05
4.28511e-05
7.14657e-05
6.9433e-05
6.67331e-05
7.14562e-05
6.70077e-05
7.03723e-05
4.39633e-05
3.60917e-05
7.08577e-05
7.04081e-05
7.07889e-05
4.43081e-05
7.05248e-05
3.51638e-05
7.10015e-05
4.36396e-05
7.10751e-05
4.31894e-05
7.04869e-05
7.14563e-05
6.56997e-05
6.93763e-05
7.14433e-05
6.60201e-05
7.06122e-05
3.49296e-05
7.13059e-05
4.24799e-05
7.12267e-05
7.0655e-05
4.28857e-05
7.14488e-05
6.65081e-05
6.93835e-05
6.61764e-05
7.14627e-05
7.03722e-05
3.61116e-05
4.39577e-05
7.08581e-05
7.04076e-05
4.4312e-05
7.07893e-05
7.03731e-05
3.61173e-05
7.08577e-05
4.39373e-05
7.04078e-05
7.07893e-05
4.43493e-05
7.14675e-05
6.66847e-05
6.9435e-05
7.14553e-05
6.70272e-05
7.94198e-05
7.29302e-05
7.29369e-05
7.29203e-05
7.29269e-05
7.97311e-05
4.20354e-05
2.55068e-05
6.70593e-05
4.9269e-05
6.70841e-05
4.16931e-05
2.56436e-05
4.19879e-05
2.55012e-05
6.70532e-05
4.92631e-05
2.56321e-05
4.16431e-05
6.70782e-05
7.89929e-05
7.28931e-05
7.28997e-05
7.29158e-05
7.85051e-05
7.29225e-05
4.24747e-05
6.71305e-05
4.94684e-05
2.60234e-05
6.70987e-05
2.5861e-05
4.28218e-05
4.24229e-05
6.71243e-05
4.94636e-05
2.60102e-05
2.58539e-05
6.70928e-05
4.27731e-05
7.05358e-05
7.0496e-05
7.04346e-05
7.99789e-05
7.29191e-05
7.29257e-05
7.98457e-05
7.29241e-05
7.29307e-05
4.33598e-05
6.71451e-05
2.62285e-05
5.02318e-05
2.63723e-05
4.3122e-05
6.71754e-05
4.33097e-05
6.71389e-05
2.62208e-05
5.02252e-05
4.30695e-05
6.71688e-05
2.63593e-05
7.0434e-05
7.05241e-05
3.51582e-05
4.35977e-05
7.10015e-05
4.3156e-05
7.10754e-05
7.04863e-05
7.14584e-05
6.57617e-05
6.93839e-05
6.60535e-05
7.14459e-05
7.06134e-05
3.49646e-05
4.25411e-05
7.13066e-05
4.29131e-05
7.06567e-05
7.12265e-05
7.14495e-05
6.65055e-05
6.93898e-05
6.61972e-05
7.14639e-05
7.05249e-05
3.5187e-05
4.3609e-05
7.10008e-05
4.32143e-05
7.1075e-05
7.04864e-05
7.1457e-05
6.56877e-05
6.93763e-05
7.14435e-05
6.60242e-05
7.06127e-05
3.49732e-05
4.24845e-05
7.13064e-05
7.06549e-05
4.29352e-05
7.12261e-05
7.14498e-05
6.6531e-05
6.93845e-05
6.61904e-05
7.14628e-05
7.14697e-05
6.67216e-05
6.94406e-05
7.1457e-05
6.70704e-05
7.05359e-05
7.05364e-05
7.04964e-05
4.33636e-05
2.62239e-05
5.02387e-05
6.71387e-05
2.63683e-05
4.31171e-05
6.71709e-05
8.01285e-05
7.29341e-05
7.29282e-05
7.99718e-05
7.29377e-05
7.29313e-05
4.34153e-05
2.62368e-05
6.71447e-05
5.02485e-05
4.31718e-05
2.63853e-05
6.71774e-05
7.04351e-05
1.99899e-05
1.9716e-05
1.99897e-05
2.01861e-05
2.01863e-05
2.05814e-05
2.03925e-05
2.31635e-05
1.84293e-05
1.9125e-05
1.91247e-05
2.43005e-05
1.78701e-05
1.90769e-05
1.90777e-05
1.9076e-05
2.4203e-05
1.90769e-05
2.38943e-05
1.80598e-05
1.90698e-05
1.90695e-05
1.90759e-05
1.90756e-05
2.39876e-05
1.84549e-05
1.99974e-05
3.22313e-05
2.63921e-05
2.62844e-05
1.99822e-05
1.84211e-05
2.31648e-05
1.91578e-05
1.91586e-05
1.84297e-05
1.91252e-05
2.30851e-05
1.91247e-05
2.39008e-05
1.80595e-05
1.90701e-05
1.90703e-05
1.90756e-05
1.9076e-05
2.39956e-05
2.38964e-05
1.90699e-05
1.80592e-05
1.90701e-05
2.39958e-05
1.90792e-05
1.90725e-05
2.42997e-05
1.90771e-05
1.90768e-05
1.78703e-05
2.41944e-05
1.90765e-05
1.90761e-05
1.83879e-05
2.00464e-05
3.27485e-05
2.66279e-05
2.00661e-05
1.84152e-05
2.67367e-05
1.83576e-05
2.02143e-05
3.35538e-05
2.73492e-05
2.02423e-05
1.83689e-05
2.74642e-05
2.42974e-05
1.90771e-05
1.90774e-05
1.78704e-05
1.90766e-05
2.41965e-05
1.90763e-05
2.49739e-05
1.91166e-05
1.76406e-05
1.91176e-05
1.91233e-05
2.4864e-05
1.91245e-05
1.77246e-05
1.75023e-05
2.14976e-05
1.94754e-05
2.15601e-05
1.74205e-05
1.77882e-05
1.83891e-05
2.00477e-05
2.66376e-05
3.27507e-05
2.00681e-05
2.67469e-05
1.84163e-05
1.76972e-05
1.95352e-05
1.73e-05
2.17662e-05
2.1697e-05
1.73781e-05
1.76394e-05
1.83873e-05
3.30179e-05
2.01489e-05
2.70979e-05
2.01245e-05
2.69862e-05
1.83677e-05
2.43006e-05
1.90743e-05
1.90799e-05
1.78705e-05
1.90792e-05
2.41996e-05
1.90734e-05
2.45166e-05
1.78147e-05
1.90917e-05
1.90947e-05
1.90882e-05
2.46228e-05
1.90923e-05
2.49716e-05
1.91146e-05
1.76411e-05
1.91181e-05
2.48556e-05
1.91258e-05
1.91213e-05
1.77242e-05
1.7502e-05
2.14945e-05
1.94756e-05
1.74203e-05
2.15593e-05
1.77878e-05
1.83861e-05
2.01478e-05
3.30171e-05
2.7094e-05
2.69827e-05
1.83666e-05
2.01237e-05
1.83877e-05
2.66277e-05
2.00468e-05
3.27484e-05
2.67383e-05
2.00663e-05
1.8415e-05
1.76968e-05
1.95363e-05
1.73001e-05
2.17658e-05
1.7378e-05
2.16989e-05
1.76391e-05
1.75638e-05
1.72621e-05
2.19174e-05
1.96738e-05
1.76157e-05
2.19917e-05
1.71887e-05
1.83581e-05
2.0215e-05
2.73482e-05
3.35541e-05
1.83695e-05
2.02438e-05
2.74658e-05
1.83572e-05
2.02147e-05
3.35529e-05
2.73424e-05
1.83685e-05
2.7459e-05
2.02426e-05
1.75634e-05
1.72619e-05
2.1913e-05
1.96729e-05
1.76152e-05
1.71886e-05
2.19884e-05
1.95179e-05
1.9716e-05
1.99898e-05
2.0186e-05
2.01862e-05
2.05813e-05
2.03923e-05
2.05885e-05
2.05887e-05
1.99181e-05
2.03857e-05
2.03859e-05
2.07731e-05
2.09676e-05
2.05885e-05
2.05887e-05
1.99182e-05
2.03857e-05
2.03859e-05
2.07731e-05
2.09676e-05
2.05884e-05
2.05886e-05
1.9918e-05
2.03856e-05
2.03858e-05
2.0773e-05
2.09675e-05
2.05884e-05
2.05886e-05
1.9918e-05
2.03856e-05
2.03858e-05
2.0773e-05
2.09675e-05
1.97162e-05
1.99897e-05
1.99899e-05
2.01862e-05
2.01863e-05
2.05815e-05
2.03924e-05
1.9716e-05
1.99895e-05
1.99898e-05
2.0186e-05
2.01862e-05
2.05814e-05
2.03923e-05
1.81183e-05
1.92889e-05
2.10346e-05
1.78353e-05
2.09873e-05
1.79246e-05
1.80372e-05
1.85667e-05
2.57341e-05
3.14762e-05
1.98996e-05
1.98922e-05
2.56345e-05
1.85202e-05
1.8118e-05
1.92878e-05
1.7835e-05
2.10329e-05
1.79245e-05
2.09847e-05
1.80367e-05
1.85845e-05
1.98684e-05
2.53121e-05
3.1229e-05
1.86384e-05
1.98711e-05
2.54099e-05
1.81598e-05
1.92703e-05
1.80825e-05
2.08454e-05
1.82471e-05
1.79909e-05
2.08873e-05
1.85664e-05
2.57317e-05
3.14757e-05
1.98999e-05
1.98929e-05
2.56307e-05
1.85196e-05
2.3343e-05
1.83374e-05
1.90929e-05
1.90925e-05
1.91176e-05
1.91172e-05
2.34254e-05
1.96058e-05
1.93237e-05
1.91333e-05
1.97964e-05
1.96061e-05
2.00221e-05
2.02059e-05
1.97963e-05
1.97965e-05
1.91334e-05
1.9606e-05
1.96062e-05
2.00222e-05
2.02061e-05
1.97962e-05
1.97964e-05
1.91332e-05
1.96058e-05
1.96061e-05
2.00221e-05
2.02059e-05
1.7697e-05
1.95353e-05
1.72999e-05
2.17646e-05
1.73781e-05
2.16968e-05
1.76391e-05
1.83884e-05
2.00462e-05
2.66351e-05
3.27476e-05
1.84156e-05
2.00658e-05
2.67444e-05
1.77243e-05
1.94762e-05
1.75021e-05
2.14981e-05
1.77879e-05
1.74203e-05
2.15608e-05
1.83867e-05
2.70967e-05
3.30162e-05
2.01478e-05
2.01234e-05