/*--------------------------------*- C++ -*----------------------------------*\
| =========                 |                                                 |
| \\      /  F ield         | OpenFOAM: The Open Source CFD Toolbox           |
|  \\    /   O peration     | Version:  v2006                                 |
|   \\  /    A nd           | Website:  www.openfoam.com                      |
|    \\/     M anipulation  |                                                 |
\*---------------------------------------------------------------------------*/
FoamFile
{
    version     2.0;
    format      ascii;
    class       volScalarField;
    location    "1000";
    object      nut;
}
// * * * * * * * * * * * * * * * * * * * * * * * * * * * * * * * * * * * * * //

dimensions      [0 2 -1 0 0 0 0];


internalField   nonuniform List<scalar> 
14298
(
2.36361e-05
2.36343e-05
8.31616e-05
6.05517e-05
6.05684e-05
6.78494e-05
4.95421e-05
6.7892e-05
6.47191e-05
0.000103296
6.47664e-05
0.000128193
6.47455e-05
0.000128199
6.80774e-05
4.95386e-05
6.47548e-05
0.000103332
6.477e-05
0.000128201
6.80279e-05
4.95342e-05
6.47496e-05
0.000103298
0.000128195
6.478e-05
0.000103301
6.48016e-05
4.95381e-05
2.36331e-05
8.31672e-05
6.05578e-05
6.05697e-05
2.36349e-05
6.47696e-05
0.000103346
0.000128206
6.48018e-05
6.47389e-05
0.000103319
0.000128197
6.47857e-05
6.79128e-05
4.95406e-05
6.78775e-05
4.95357e-05
8.3152e-05
6.05647e-05
6.05676e-05
2.36344e-05
2.36334e-05
2.36357e-05
2.36338e-05
7.04165e-05
2.15602e-05
2.1557e-05
7.01256e-05
2.15611e-05
2.15579e-05
7.32041e-05
4.71173e-05
6.96208e-05
6.07853e-05
7.2733e-05
4.71297e-05
7.01528e-05
7.32548e-05
4.71068e-05
6.96511e-05
6.07916e-05
7.27801e-05
4.71188e-05
7.01817e-05
3.6187e-05
4.03187e-05
6.94816e-05
6.82869e-05
3.61837e-05
4.03232e-05
6.98043e-05
2.02241e-05
6.79714e-05
4.95471e-05
2.02241e-05
6.81278e-05
3.61849e-05
4.03189e-05
6.95536e-05
6.83001e-05
3.61823e-05
4.0323e-05
6.98491e-05
3.6188e-05
6.96604e-05
4.03197e-05
6.85132e-05
3.61853e-05
6.9986e-05
4.03238e-05
2.02247e-05
6.79858e-05
4.95446e-05
2.02246e-05
6.8181e-05
3.61851e-05
4.0319e-05
6.95619e-05
6.84572e-05
3.61822e-05
4.0323e-05
6.98991e-05
2.02233e-05
6.79325e-05
4.95404e-05
2.0223e-05
6.81212e-05
4.95417e-05
2.36327e-05
7.0259e-05
2.15547e-05
2.1558e-05
7.0227e-05
2.15544e-05
2.15577e-05
7.30972e-05
4.71062e-05
6.96813e-05
6.07705e-05
7.01098e-05
7.28012e-05
4.71157e-05
7.30557e-05
4.7117e-05
6.96792e-05
6.07727e-05
7.27555e-05
4.71264e-05
7.01036e-05
2.36345e-05
3.61865e-05
6.9573e-05
4.03182e-05
6.83164e-05
3.61841e-05
6.98531e-05
4.03223e-05
2.02241e-05
6.80366e-05
4.9544e-05
2.02244e-05
6.81548e-05
3.61845e-05
6.95181e-05
4.03177e-05
6.83339e-05
3.61815e-05
6.98431e-05
4.03221e-05
2.02227e-05
6.79905e-05
4.95401e-05
2.02229e-05
6.81376e-05
7.03195e-05
2.15584e-05
2.15553e-05
7.0316e-05
2.15576e-05
2.15544e-05
7.29932e-05
4.7117e-05
6.9761e-05
6.07639e-05
7.28528e-05
7.01265e-05
4.71241e-05
7.30435e-05
4.71075e-05
6.97708e-05
6.07715e-05
7.29006e-05
7.01462e-05
4.71147e-05
2.36339e-05
2.36329e-05
0.00015221
0.000174931
0.000174944
0.000193687
0.000174933
0.000193685
0.000152215
0.000174931
0.000174941
0.000193682
0.0001522
0.000174936
0.000193681
7.29844e-05
8.3206e-05
7.22498e-05
7.22549e-05
7.27252e-05
7.23801e-05
7.23862e-05
7.27753e-05
6.63956e-05
7.56927e-05
6.49521e-05
7.2703e-05
6.66327e-05
7.57055e-05
6.83253e-05
6.67646e-05
6.76024e-05
6.49918e-05
6.77862e-05
6.81945e-05
6.69701e-05
7.28049e-05
6.64431e-05
7.57059e-05
6.4978e-05
7.27262e-05
6.66832e-05
7.57202e-05
7.27913e-05
6.64238e-05
7.56987e-05
6.50322e-05
7.27073e-05
6.67072e-05
7.57209e-05
6.83308e-05
6.67603e-05
6.76074e-05
6.50034e-05
6.7794e-05
6.81928e-05
6.6985e-05
7.27895e-05
7.5699e-05
6.6417e-05
6.50069e-05
7.2711e-05
7.57173e-05
6.66697e-05
6.83331e-05
6.67565e-05
6.76242e-05
6.4985e-05
6.81982e-05
6.6972e-05
6.77985e-05
6.76462e-05
6.50046e-05
6.78234e-05
7.29945e-05
8.32061e-05
7.22791e-05
7.22876e-05
7.23888e-05
7.28044e-05
7.23967e-05
7.28289e-05
7.57206e-05
6.64887e-05
6.5e-05
7.2753e-05
7.57334e-05
6.67196e-05
6.83796e-05
6.68508e-05
6.76399e-05
6.50065e-05
6.82439e-05
6.78147e-05
6.70502e-05
7.27832e-05
7.5702e-05
6.64178e-05
6.49762e-05
7.27081e-05
7.5715e-05
6.66596e-05
6.83365e-05
6.67826e-05
6.76405e-05
6.49957e-05
6.81998e-05
6.69929e-05
6.78179e-05
7.30465e-05
8.31981e-05
7.23061e-05
7.23058e-05
7.28754e-05
7.24201e-05
7.24211e-05
0.000143651
0.000113163
0.00014509
0.000145125
0.000114415
0.000113175
0.000143629
0.000189826
2.38289e-05
4.66956e-05
0.000168095
5.77147e-05
4.67695e-05
4.67799e-05
0.000169438
5.80437e-05
4.12589e-05
0.000169432
4.6432e-05
5.8042e-05
4.92677e-05
4.13438e-05
0.000169433
4.6431e-05
5.80407e-05
4.92652e-05
4.13111e-05
4.65929e-05
4.65863e-05
2.38392e-05
2.38378e-05
4.67436e-05
4.67552e-05
2.38301e-05
4.92714e-05
4.13494e-05
0.00016809
4.66959e-05
5.77222e-05
4.92704e-05
4.14438e-05
2.38293e-05
2.3828e-05
2.38252e-05
5.23934e-05
4.6514e-05
5.13764e-05
5.23581e-05
4.65024e-05
5.13362e-05
2.16103e-05
2.16069e-05
5.78057e-05
2.02722e-05
5.58609e-05
5.55511e-05
2.02748e-05
3.66243e-05
4.08549e-05
4.57944e-05
4.13197e-05
4.54601e-05
4.13514e-05
3.66071e-05
2.02716e-05
4.92597e-05
5.61284e-05
5.55909e-05
2.02746e-05
3.66226e-05
4.07934e-05
4.132e-05
4.60566e-05
4.13519e-05
4.53593e-05
3.66058e-05
2.02714e-05
4.92577e-05
5.60957e-05
5.55322e-05
2.02745e-05
3.66218e-05
4.07659e-05
4.59718e-05
4.1319e-05
4.53063e-05
4.13509e-05
3.6605e-05
5.07328e-05
5.23522e-05
4.61702e-05
4.65134e-05
5.09463e-05
5.23191e-05
4.6513e-05
5.07206e-05
5.23443e-05
4.61547e-05
4.65017e-05
5.09701e-05
5.23125e-05
4.65013e-05
5.7045e-05
2.16082e-05
2.16047e-05
5.71963e-05
2.16064e-05
2.1603e-05
2.38433e-05
2.38419e-05
5.18113e-05
5.24038e-05
4.65028e-05
4.71814e-05
4.65049e-05
5.15994e-05
5.24541e-05
5.17453e-05
5.23632e-05
4.65137e-05
4.71804e-05
5.25037e-05
5.14911e-05
4.65155e-05
5.80119e-05
2.16078e-05
2.16112e-05
2.16088e-05
5.79479e-05
2.16122e-05
2.38265e-05
2.02787e-05
5.61528e-05
4.92806e-05
5.67793e-05
2.02751e-05
3.65579e-05
4.19953e-05
4.6043e-05
4.12664e-05
4.68699e-05
3.65733e-05
4.12363e-05
2.02764e-05
5.62416e-05
4.92761e-05
2.0274e-05
5.66088e-05
3.6556e-05
4.19606e-05
4.12668e-05
4.62625e-05
3.65718e-05
4.12367e-05
4.67387e-05
8.18196e-05
8.18059e-05
5.77087e-05
5.78945e-05
0.000114537
8.24339e-05
8.24194e-05
5.78476e-05
8.29005e-05
8.28864e-05
5.77359e-05
8.18133e-05
8.18335e-05
0.000112995
8.14172e-05
5.7761e-05
8.13988e-05
0.000205614
0.000216981
0.000205605
0.000205611
0.000216979
7.87054e-05
6.52886e-05
4.88096e-05
4.68449e-05
7.91429e-05
6.5145e-05
4.89009e-05
9.39273e-05
5.7597e-05
5.44974e-05
0.000101166
9.46179e-05
5.44407e-05
0.000100646
8.0238e-05
4.87116e-05
7.97497e-05
4.86565e-05
9.58859e-05
5.81821e-05
5.47296e-05
0.000101903
9.51962e-05
5.48145e-05
0.000102395
8.02288e-05
6.57045e-05
4.62887e-05
4.87088e-05
4.86316e-05
6.58593e-05
7.97415e-05
9.58754e-05
5.81734e-05
0.000101898
5.4712e-05
0.000102391
5.47829e-05
9.51857e-05
8.0227e-05
6.5697e-05
4.62878e-05
4.87058e-05
4.8632e-05
6.58514e-05
7.97402e-05
9.5872e-05
5.8173e-05
0.000101895
5.47115e-05
0.000102389
5.47877e-05
9.51823e-05
7.87029e-05
6.52827e-05
4.88403e-05
4.68453e-05
6.51401e-05
7.91387e-05
4.89169e-05
9.39269e-05
5.76036e-05
0.000101163
5.45231e-05
0.000100646
9.46158e-05
5.44617e-05
0.000137917
4.89935e-05
5.00752e-05
0.000162852
4.42185e-05
0.000135151
0.000160305
4.9328e-05
0.000185278
0.000143655
0.000183035
0.000137941
0.000107928
0.000108839
0.000143632
0.000139321
4.81912e-05
4.88658e-05
0.000143622
0.000139352
0.000139312
0.000139344
0.000164145
4.40141e-05
0.000113171
0.000108833
0.000143653
0.000139349
0.000139357
0.000108823
2.37909e-05
0.000107939
0.000137913
4.84998e-05
4.94881e-05
0.000137944
0.000137904
0.000107937
0.000137942
2.37726e-05
0.000105458
2.37664e-05
2.3785e-05
2.37735e-05
0.000162856
5.63313e-05
4.84965e-05
0.000136552
0.00016158
5.6032e-05
4.91574e-05
0.000107936
4.90119e-05
4.99485e-05
0.0001062
4.9925e-05
2.37836e-05
2.37722e-05
2.37672e-05
0.000105467
5.00828e-05
2.3766e-05
4.4203e-05
4.9312e-05
4.55887e-05
4.93261e-05
5.63227e-05
0.000161576
0.000137904
0.000136517
4.91589e-05
4.8496e-05
5.6037e-05
4.93253e-05
4.93086e-05
4.55229e-05
0.00016031
5.58812e-05
4.94824e-05
4.57407e-05
4.93296e-05
0.000135134
4.94848e-05
5.58733e-05
4.56677e-05
4.26118e-05
4.13976e-05
4.92926e-05
2.38128e-05
4.26533e-05
4.92879e-05
0.00020208
0.000188686
0.000188683
0.000188678
0.000188678
0.000185276
0.00018527
5.72107e-05
0.000142221
4.72773e-05
0.000166769
2.38281e-05
2.38116e-05
5.72054e-05
0.000168092
4.66971e-05
0.000142205
5.77181e-05
0.000166765
4.72751e-05
0.000111569
4.77388e-05
4.77265e-05
4.56666e-05
4.93165e-05
4.41529e-05
4.93322e-05
4.56324e-05
4.93094e-05
4.42036e-05
4.93286e-05
0.000201195
0.000184152
0.000184145
2.37825e-05
2.37711e-05
5.60313e-05
0.000162856
4.84965e-05
0.000136551
5.63309e-05
0.00016158
4.91589e-05
0.000106188
4.99122e-05
4.90212e-05
4.90192e-05
4.99073e-05
2.38153e-05
2.38125e-05
0.000111583
4.77308e-05
4.77317e-05
2.37934e-05
2.38069e-05
2.37905e-05
2.38041e-05
0.000110504
4.8843e-05
4.88433e-05
4.79095e-05
4.78987e-05
4.26253e-05
4.92703e-05
4.138e-05
4.92872e-05
5.7212e-05
0.000168093
0.000142176
5.77172e-05
4.72785e-05
0.000166765
5.7214e-05
4.66962e-05
0.00016809
0.000142163
5.77163e-05
4.72782e-05
0.000166763
4.26778e-05
4.93137e-05
4.92953e-05
4.41199e-05
4.93102e-05
4.26636e-05
4.92903e-05
4.41576e-05
5.69354e-05
0.000140741
4.81924e-05
0.00016415
4.75652e-05
0.00016545
5.65442e-05
0.00013932
5.69368e-05
0.000140747
0.000164148
4.75655e-05
0.000165447
5.65437e-05
0.000111584
4.77373e-05
4.77376e-05
2.3814e-05
2.37923e-05
2.38046e-05
0.000108837
4.88653e-05
0.000110503
4.78862e-05
4.78933e-05
2.37908e-05
2.38053e-05
5.72047e-05
0.000142208
4.72756e-05
0.000166765
4.26445e-05
4.9267e-05
4.14138e-05
4.92843e-05
5.72048e-05
0.000168083
4.66958e-05
0.000142169
5.77169e-05
0.000166759
4.7275e-05
4.27369e-05
4.93065e-05
4.92909e-05
4.41106e-05
5.69378e-05
0.00014077
4.81887e-05
0.000164148
4.75621e-05
0.000165449
5.6537e-05
4.27312e-05
4.93048e-05
4.92868e-05
4.41073e-05
5.69371e-05
0.000140731
0.000164142
4.81879e-05
0.000165441
4.75627e-05
5.65371e-05
4.2656e-05
4.92905e-05
5.72019e-05
0.00014217
0.000166763
4.72762e-05
4.26381e-05
4.92858e-05
0.00016415
5.65351e-05
4.81866e-05
5.69407e-05
0.000140756
4.75635e-05
0.000165451
4.4101e-05
4.93088e-05
4.2706e-05
4.92916e-05
5.65329e-05
0.000139308
4.81854e-05
5.69398e-05
0.000140737
0.000165447
4.75632e-05
4.93049e-05
4.28017e-05
4.92891e-05
4.67722e-05
4.67593e-05
0.000111577
4.77346e-05
4.77521e-05
2.38296e-05
2.38136e-05
2.37897e-05
2.38032e-05
0.000110499
4.88612e-05
4.88624e-05
4.79048e-05
4.79137e-05
2.37916e-05
2.38051e-05
5.72022e-05
0.000168091
4.66956e-05
0.000142207
5.77192e-05
0.000166765
4.72754e-05
4.26713e-05
4.92709e-05
4.13932e-05
4.92902e-05
4.26011e-05
4.92682e-05
4.14583e-05
4.92832e-05
5.69417e-05
0.000140767
0.000164149
4.81879e-05
0.00016545
4.75646e-05
5.65309e-05
5.6934e-05
0.000140764
0.000164149
4.81881e-05
0.000165448
4.75625e-05
5.65375e-05
4.27691e-05
4.93091e-05
4.92922e-05
4.40725e-05
4.27773e-05
4.93053e-05
4.92867e-05
4.40227e-05
2.38131e-05
2.38117e-05
4.88489e-05
0.000110492
4.88449e-05
4.79133e-05
4.7913e-05
2.38047e-05
2.37904e-05
2.38034e-05
2.37862e-05
2.37748e-05
2.37833e-05
2.37721e-05
4.90072e-05
4.89904e-05
0.000106203
4.99152e-05
4.99359e-05
4.93126e-05
4.93297e-05
4.56733e-05
4.41912e-05
5.60353e-05
4.84996e-05
0.000162856
0.000136523
5.63363e-05
4.91629e-05
0.00016158
0.000137933
4.91604e-05
0.000136517
5.60307e-05
0.000162856
5.63409e-05
0.000161579
4.93328e-05
4.58576e-05
0.000135157
5.58975e-05
0.000160309
5.6028e-05
4.84944e-05
0.000162855
0.000136555
5.63303e-05
4.91576e-05
0.000161579
4.56118e-05
4.93075e-05
4.41994e-05
4.93228e-05
5.60268e-05
0.000162846
4.84973e-05
0.000136514
5.6331e-05
0.000161571
4.91564e-05
4.58361e-05
5.58893e-05
0.000160309
4.57927e-05
4.93262e-05
5.58839e-05
0.000135131
0.000160299
4.94833e-05
4.90079e-05
4.90121e-05
0.000106195
4.99336e-05
4.99413e-05
2.37844e-05
2.37731e-05
2.37649e-05
0.000105465
5.00775e-05
5.00847e-05
2.37668e-05
0.000136552
5.60352e-05
0.000162855
4.84978e-05
5.63254e-05
0.000161578
4.91578e-05
4.5509e-05
4.93126e-05
4.42644e-05
4.93273e-05
4.55342e-05
4.93075e-05
4.42026e-05
4.93235e-05
0.000135169
4.94854e-05
4.93308e-05
2.3784e-05
2.3783e-05
2.37713e-05
5.00799e-05
5.00758e-05
2.37651e-05
5.48736e-05
4.65459e-05
5.31759e-05
4.93754e-05
4.65532e-05
5.46012e-05
5.32804e-05
5.65314e-05
5.37434e-05
5.04328e-05
4.65734e-05
5.6065e-05
4.65847e-05
5.39451e-05
3.63933e-05
4.09632e-05
4.96046e-05
4.48699e-05
4.094e-05
5.02589e-05
3.64042e-05
2.02848e-05
4.93356e-05
5.9462e-05
2.02829e-05
5.98878e-05
5.38113e-05
4.65418e-05
5.30228e-05
4.84726e-05
5.41029e-05
5.29324e-05
4.65333e-05
3.64406e-05
4.10087e-05
4.92421e-05
4.34483e-05
3.64286e-05
4.10334e-05
4.8637e-05
2.37936e-05
2.37748e-05
2.37644e-05
2.37823e-05
2.37756e-05
6.07401e-05
2.16212e-05
2.16202e-05
2.16221e-05
2.16214e-05
6.06053e-05
5.50351e-05
4.65323e-05
5.30649e-05
4.93836e-05
5.33962e-05
4.65426e-05
5.45881e-05
5.52897e-05
4.95446e-05
5.35649e-05
4.65651e-05
4.65552e-05
5.55778e-05
5.34396e-05
6.08159e-05
2.16241e-05
2.16241e-05
2.16212e-05
2.16212e-05
6.12665e-05
5.51115e-05
4.95282e-05
5.36163e-05
4.65601e-05
5.33372e-05
4.65497e-05
5.55824e-05
2.37811e-05
2.37743e-05
2.37651e-05
6.21675e-05
2.16254e-05
2.16248e-05
6.1765e-05
2.16273e-05
2.16266e-05
5.66912e-05
5.3625e-05
4.65628e-05
5.04558e-05
5.60171e-05
4.65754e-05
5.40245e-05
2.3764e-05
3.63946e-05
4.95794e-05
4.09627e-05
4.47794e-05
5.00942e-05
4.09397e-05
3.64057e-05
2.02844e-05
5.86095e-05
4.93182e-05
5.89255e-05
2.02827e-05
3.63718e-05
4.49676e-05
5.10198e-05
4.08749e-05
5.03508e-05
4.08963e-05
3.63621e-05
2.02832e-05
4.93201e-05
5.93677e-05
5.89921e-05
2.02852e-05
2.02823e-05
4.93192e-05
5.93586e-05
5.90364e-05
2.0284e-05
2.02834e-05
5.85331e-05
4.93165e-05
5.89459e-05
2.02815e-05
3.63705e-05
4.50035e-05
5.08879e-05
4.08752e-05
4.08966e-05
5.04177e-05
3.63604e-05
3.63329e-05
5.12821e-05
4.08337e-05
4.6346e-05
3.63418e-05
5.18644e-05
4.08139e-05
2.0286e-05
5.95346e-05
4.9338e-05
2.02842e-05
5.99549e-05
3.63312e-05
5.11429e-05
4.08341e-05
4.63586e-05
3.63398e-05
4.08144e-05
5.18707e-05
3.65268e-05
4.21428e-05
4.1158e-05
4.7587e-05
4.1186e-05
4.70712e-05
3.65125e-05
2.02782e-05
5.62192e-05
2.02754e-05
5.67259e-05
3.65584e-05
4.20348e-05
4.12674e-05
4.61998e-05
3.65739e-05
4.12375e-05
4.68793e-05
2.02777e-05
5.72812e-05
4.92859e-05
5.68444e-05
2.02802e-05
2.38162e-05
3.6526e-05
4.21082e-05
4.76473e-05
4.11567e-05
4.70663e-05
4.11849e-05
3.65116e-05
2.02774e-05
5.73144e-05
4.92804e-05
5.68229e-05
2.028e-05
2.38243e-05
2.38152e-05
5.87745e-05
2.16156e-05
2.16124e-05
2.16149e-05
2.16118e-05
5.88318e-05
5.19477e-05
4.7163e-05
5.24504e-05
4.65164e-05
5.20652e-05
4.7168e-05
5.24756e-05
4.65049e-05
5.85256e-05
2.16159e-05
2.16125e-05
5.23926e-05
4.65214e-05
4.73282e-05
5.26095e-05
5.2544e-05
4.65178e-05
5.26064e-05
5.24043e-05
4.65104e-05
4.73171e-05
5.26278e-05
5.25332e-05
4.65066e-05
5.26593e-05
3.63729e-05
4.49855e-05
4.08762e-05
5.10234e-05
4.08976e-05
5.04446e-05
3.6363e-05
2.02848e-05
5.85467e-05
4.93232e-05
2.02829e-05
5.89454e-05
3.63955e-05
4.4737e-05
4.0964e-05
4.95291e-05
3.64064e-05
4.09411e-05
5.01571e-05
2.02836e-05
5.94046e-05
4.93258e-05
5.90421e-05
2.02853e-05
3.6372e-05
4.49306e-05
5.1104e-05
4.0875e-05
5.04157e-05
4.08963e-05
3.63622e-05
2.02846e-05
5.847e-05
4.93173e-05
2.02823e-05
5.89211e-05
3.63944e-05
4.47387e-05
4.95085e-05
4.09627e-05
3.64053e-05
5.00837e-05
4.09397e-05
2.02838e-05
5.94845e-05
4.93209e-05
5.91018e-05
2.02854e-05
2.378e-05
2.37733e-05
5.51594e-05
5.36296e-05
4.95323e-05
4.65689e-05
5.33788e-05
4.65581e-05
5.58218e-05
5.47972e-05
5.3144e-05
4.9399e-05
4.65438e-05
5.32803e-05
5.4468e-05
4.6553e-05
6.09789e-05
2.16271e-05
2.1624e-05
2.16236e-05
2.16205e-05
6.15534e-05
5.47937e-05
5.31384e-05
4.65353e-05
4.94014e-05
5.44836e-05
5.32679e-05
4.65423e-05
6.05611e-05
2.16214e-05
2.16188e-05
6.04269e-05
2.1623e-05
2.162e-05
5.51793e-05
5.36363e-05
4.65575e-05
4.95338e-05
5.33454e-05
4.65468e-05
5.5859e-05
2.38187e-05
2.38159e-05
5.82333e-05
2.16191e-05
2.16157e-05
2.16129e-05
2.16095e-05
5.90379e-05
5.19746e-05
4.65227e-05
4.73377e-05
5.25951e-05
4.65184e-05
5.27083e-05
5.25092e-05
5.20014e-05
4.65104e-05
4.73471e-05
5.25872e-05
4.6506e-05
5.27273e-05
5.25034e-05
2.37962e-05
2.38039e-05
2.37933e-05
2.38011e-05
5.97311e-05
2.16198e-05
2.16164e-05
5.95299e-05
2.16208e-05
2.16174e-05
5.36066e-05
5.30133e-05
4.84676e-05
4.65415e-05
4.65348e-05
5.28788e-05
5.40488e-05
5.36447e-05
5.30106e-05
4.84736e-05
4.65292e-05
4.65225e-05
5.28748e-05
5.40862e-05
5.35306e-05
4.65257e-05
5.27158e-05
4.8314e-05
5.31715e-05
4.6532e-05
5.28326e-05
5.35478e-05
4.65133e-05
5.27073e-05
4.83087e-05
5.31977e-05
4.65196e-05
5.2822e-05
5.9758e-05
2.16215e-05
2.16181e-05
2.16195e-05
2.16161e-05
5.9992e-05
3.65247e-05
4.2186e-05
4.11576e-05
4.75754e-05
4.11858e-05
4.71289e-05
3.65101e-05
2.02768e-05
5.62326e-05
4.92784e-05
2.0274e-05
5.67517e-05
3.65562e-05
4.20218e-05
4.12674e-05
4.61555e-05
4.12372e-05
3.65717e-05
4.69007e-05
2.02761e-05
5.72032e-05
4.92812e-05
5.6856e-05
2.02784e-05
3.64702e-05
4.11084e-05
4.78117e-05
4.33371e-05
3.64833e-05
4.1082e-05
4.8495e-05
2.02816e-05
4.93062e-05
5.84398e-05
2.02838e-05
5.79973e-05
2.02823e-05
5.73959e-05
4.93028e-05
2.02797e-05
5.78641e-05
3.64435e-05
4.35571e-05
4.10096e-05
4.93395e-05
3.64313e-05
4.10343e-05
4.8776e-05
2.02804e-05
4.93024e-05
5.84241e-05
5.80419e-05
2.02825e-05
3.64679e-05
4.11081e-05
4.7736e-05
4.32828e-05
3.64807e-05
4.10816e-05
4.84534e-05
2.0281e-05
4.92982e-05
5.73343e-05
2.0278e-05
5.78617e-05
3.64414e-05
4.94071e-05
4.35724e-05
4.10092e-05
4.1034e-05
4.88343e-05
3.64293e-05
5.8382e-05
2.16153e-05
2.16181e-05
2.16098e-05
2.1613e-05
5.91051e-05
5.22293e-05
4.65112e-05
4.73476e-05
5.2592e-05
4.65066e-05
5.25298e-05
5.25836e-05
5.20568e-05
4.65204e-05
4.73495e-05
5.27052e-05
5.24126e-05
4.65165e-05
5.27558e-05
2.38175e-05
2.37948e-05
2.3802e-05
5.97647e-05
2.16213e-05
2.16203e-05
6.03186e-05
2.16181e-05
2.16178e-05
5.36135e-05
4.6528e-05
5.30827e-05
4.8469e-05
5.42109e-05
4.65217e-05
5.27795e-05
5.95197e-05
2.16156e-05
2.16177e-05
5.93629e-05
2.16174e-05
2.16184e-05
5.33718e-05
4.82994e-05
4.65153e-05
5.27026e-05
5.27913e-05
5.31201e-05
4.65256e-05
5.34279e-05
4.82971e-05
4.65216e-05
5.26528e-05
5.3071e-05
4.65228e-05
5.28917e-05
2.37939e-05
2.38019e-05
3.65241e-05
4.20964e-05
4.11564e-05
4.76024e-05
4.11844e-05
4.70758e-05
3.65096e-05
2.0277e-05
5.6182e-05
4.92746e-05
2.02741e-05
5.67198e-05
3.65556e-05
4.19982e-05
4.12659e-05
4.61769e-05
4.12362e-05
3.65711e-05
4.68696e-05
2.02765e-05
5.72538e-05
4.92778e-05
5.68568e-05
2.02789e-05
3.64691e-05
4.78598e-05
4.11071e-05
4.33147e-05
3.64823e-05
4.84718e-05
4.10807e-05
2.02809e-05
4.93003e-05
5.83533e-05
2.0283e-05
5.79778e-05
2.02817e-05
5.74486e-05
4.92979e-05
2.02795e-05
5.78805e-05
3.64422e-05
4.3505e-05
4.93292e-05
4.10083e-05
3.64301e-05
4.87538e-05
4.1033e-05
3.64671e-05
4.11066e-05
4.78062e-05
4.3335e-05
3.64803e-05
4.10804e-05
4.84711e-05
2.02803e-05
4.92971e-05
5.84353e-05
5.80022e-05
2.02825e-05
2.02809e-05
5.73607e-05
4.92937e-05
2.02783e-05
5.7829e-05
3.64404e-05
4.34975e-05
4.1008e-05
4.93721e-05
4.10325e-05
4.8768e-05
3.64283e-05
3.65267e-05
4.21655e-05
4.76756e-05
4.11566e-05
4.7227e-05
4.11849e-05
3.65121e-05
2.02782e-05
5.73102e-05
4.92846e-05
5.7e-05
2.02801e-05
3.65244e-05
4.20541e-05
4.1157e-05
4.76425e-05
4.11854e-05
4.69533e-05
3.65101e-05
2.02761e-05
5.72887e-05
4.92786e-05
5.67605e-05
2.02789e-05
3.64427e-05
4.94297e-05
4.10083e-05
4.35106e-05
3.64306e-05
4.87735e-05
4.1033e-05
2.02816e-05
5.84917e-05
4.92999e-05
2.02838e-05
5.79974e-05
3.64692e-05
4.33034e-05
4.77377e-05
4.11071e-05
3.64824e-05
4.83719e-05
4.10806e-05
2.02818e-05
4.92963e-05
5.7353e-05
2.02792e-05
5.77298e-05
2.02799e-05
5.83534e-05
4.92983e-05
2.02822e-05
5.79367e-05
3.64678e-05
4.33625e-05
4.11075e-05
4.79579e-05
3.64811e-05
4.10809e-05
4.84929e-05
2.02806e-05
4.9296e-05
5.74532e-05
2.02784e-05
5.78449e-05
5.84766e-05
2.1613e-05
2.16164e-05
2.16109e-05
2.16143e-05
5.87795e-05
5.20192e-05
5.2391e-05
4.65027e-05
4.71618e-05
4.6505e-05
5.14609e-05
5.24523e-05
5.19923e-05
5.24017e-05
4.6515e-05
4.71562e-05
5.24556e-05
5.1425e-05
4.65172e-05
5.83831e-05
2.16074e-05
2.16108e-05
2.16112e-05
5.79148e-05
2.16146e-05
5.22426e-05
4.65103e-05
4.73268e-05
5.25911e-05
4.65064e-05
5.25249e-05
5.25635e-05
5.22104e-05
4.65228e-05
4.73402e-05
5.25996e-05
5.2536e-05
4.65188e-05
5.25481e-05
2.38259e-05
2.38169e-05
2.37925e-05
2.38002e-05
5.98068e-05
2.16141e-05
2.16175e-05
5.92341e-05
2.16181e-05
2.16215e-05
5.39059e-05
5.30627e-05
4.84651e-05
4.65301e-05
5.29106e-05
4.65227e-05
5.42236e-05
5.38683e-05
5.30561e-05
4.84629e-05
4.65422e-05
4.65349e-05
5.29218e-05
5.41979e-05
5.35447e-05
4.65129e-05
5.26547e-05
4.82971e-05
5.28172e-05
5.29137e-05
4.65193e-05
5.35227e-05
4.65253e-05
5.26785e-05
4.8296e-05
5.28841e-05
4.65315e-05
5.28081e-05
6.00178e-05
2.16184e-05
2.16218e-05
2.16175e-05
2.16209e-05
6.01307e-05
2.37943e-05
2.38021e-05
3.65265e-05
4.21034e-05
4.77401e-05
4.11566e-05
4.71368e-05
4.11848e-05
3.65121e-05
2.02782e-05
5.60966e-05
4.92782e-05
5.66943e-05
2.02748e-05
3.65577e-05
4.19621e-05
4.60631e-05
4.12664e-05
4.67621e-05
3.65731e-05
4.12363e-05
2.02781e-05
5.73585e-05
4.92822e-05
5.69578e-05
2.02804e-05
3.65237e-05
4.20562e-05
4.75626e-05
4.1156e-05
4.69726e-05
4.11843e-05
3.65094e-05
2.02766e-05
5.62585e-05
4.92745e-05
2.02741e-05
5.6668e-05
3.65555e-05
4.20015e-05
4.62775e-05
4.12658e-05
3.65712e-05
4.68279e-05
4.12357e-05
2.02761e-05
5.72155e-05
4.92768e-05
5.67652e-05
2.02788e-05
3.64693e-05
4.78424e-05
4.1107e-05
4.33079e-05
3.64826e-05
4.83578e-05
4.10806e-05
2.02817e-05
4.93005e-05
5.84682e-05
5.7954e-05
2.02843e-05
2.02818e-05
5.7412e-05
4.92973e-05
2.02794e-05
5.77462e-05
3.64427e-05
4.34419e-05
4.94023e-05
4.10083e-05
4.8663e-05
4.1033e-05
3.64309e-05
3.64673e-05
4.78896e-05
4.11065e-05
4.33822e-05
3.64804e-05
4.85367e-05
4.10799e-05
2.02804e-05
4.92986e-05
5.84187e-05
5.80183e-05
2.02824e-05
2.02811e-05
5.74093e-05
4.92953e-05
2.02786e-05
5.78971e-05
3.64403e-05
4.34791e-05
4.92817e-05
4.10077e-05
4.87369e-05
4.10324e-05
3.64282e-05
2.38256e-05
2.38164e-05
2.38243e-05
2.3815e-05
5.3861e-05
5.30396e-05
4.84512e-05
4.65369e-05
5.4336e-05
5.28822e-05
4.6529e-05
5.9571e-05
2.16155e-05
2.16125e-05
5.89325e-05
2.16199e-05
2.16173e-05
5.38967e-05
5.31059e-05
4.8451e-05
4.65349e-05
5.44085e-05
5.29151e-05
4.65266e-05
5.32988e-05
4.83004e-05
4.65234e-05
5.26998e-05
5.28308e-05
5.27781e-05
4.65277e-05
5.33818e-05
4.65129e-05
5.26256e-05
4.83078e-05
5.27626e-05
5.27914e-05
4.65202e-05
6.01302e-05
2.16226e-05
2.16208e-05
6.04144e-05
2.16209e-05
2.16191e-05
2.38017e-05
2.37932e-05
2.38007e-05
2.37838e-05
2.37771e-05
2.3781e-05
2.37744e-05
6.11575e-05
2.16267e-05
2.16233e-05
2.16256e-05
2.16222e-05
6.14198e-05
5.50487e-05
5.3117e-05
4.65457e-05
4.94117e-05
5.44632e-05
4.65554e-05
5.33423e-05
5.50747e-05
5.31121e-05
4.65334e-05
4.93937e-05
5.45029e-05
4.6543e-05
5.33303e-05
6.0965e-05
2.16224e-05
2.1619e-05
6.04093e-05
2.16263e-05
2.16229e-05
5.5307e-05
4.65702e-05
4.95612e-05
5.36218e-05
4.65602e-05
5.57076e-05
5.34197e-05
5.53359e-05
4.65582e-05
4.95655e-05
5.36229e-05
4.6548e-05
5.57393e-05
5.34116e-05
2.02834e-05
4.93182e-05
5.8491e-05
2.02814e-05
5.88374e-05
2.02826e-05
4.93215e-05
5.9463e-05
5.90081e-05
2.02846e-05
3.63708e-05
5.11289e-05
4.49381e-05
4.08759e-05
4.08974e-05
5.03909e-05
3.63611e-05
3.63931e-05
4.94881e-05
4.46774e-05
4.09637e-05
4.09407e-05
3.64042e-05
5.00274e-05
2.02847e-05
4.93392e-05
5.95747e-05
2.02833e-05
5.98933e-05
3.63314e-05
5.13374e-05
4.63161e-05
4.08346e-05
3.63406e-05
4.08148e-05
5.17714e-05
3.63698e-05
4.49299e-05
4.08747e-05
5.10121e-05
4.08959e-05
5.03571e-05
3.63601e-05
2.02833e-05
5.85348e-05
4.93135e-05
2.02815e-05
5.88938e-05
3.63924e-05
4.47667e-05
4.09622e-05
4.95435e-05
4.09395e-05
3.64034e-05
5.01047e-05
2.02822e-05
5.93635e-05
4.9316e-05
5.89844e-05
2.02842e-05
3.63324e-05
4.63588e-05
5.13285e-05
4.08336e-05
3.63415e-05
5.17758e-05
4.08138e-05
3.63307e-05
4.63725e-05
4.08333e-05
5.12672e-05
3.63397e-05
4.08136e-05
5.18459e-05
2.02849e-05
5.94958e-05
4.93342e-05
2.02831e-05
5.99109e-05
6.12335e-05
2.16237e-05
2.16271e-05
2.1622e-05
2.16255e-05
6.15815e-05
5.48749e-05
5.30895e-05
4.65338e-05
4.9379e-05
4.65423e-05
5.43745e-05
5.32815e-05
5.48487e-05
5.31084e-05
4.65459e-05
4.93838e-05
5.32789e-05
5.43371e-05
4.65545e-05
6.07783e-05
2.1618e-05
2.16215e-05
2.16213e-05
6.02576e-05
2.16247e-05
5.53521e-05
4.65584e-05
4.95365e-05
5.36754e-05
4.65474e-05
5.33837e-05
5.59102e-05
5.53128e-05
4.65705e-05
4.95436e-05
5.36676e-05
5.33985e-05
4.65595e-05
5.58833e-05
2.3782e-05
2.37752e-05
2.37629e-05
6.17195e-05
2.1622e-05
2.16255e-05
6.16423e-05
2.16227e-05
2.16261e-05
5.63793e-05
4.65636e-05
5.37342e-05
5.04317e-05
5.39496e-05
5.60981e-05
4.65741e-05
5.63515e-05
4.65756e-05
5.37475e-05
5.0436e-05
5.60596e-05
4.65861e-05
5.39441e-05
2.37648e-05
3.63719e-05
4.49337e-05
5.09218e-05
4.08749e-05
5.02958e-05
4.08962e-05
3.63621e-05
2.02851e-05
5.86119e-05
4.93194e-05
5.89456e-05
2.02833e-05
3.63952e-05
4.48439e-05
4.96714e-05
4.09626e-05
5.01725e-05
3.64063e-05
4.09396e-05
2.02835e-05
5.93539e-05
4.93215e-05
5.90016e-05
2.02855e-05
3.63698e-05
4.50003e-05
5.09497e-05
4.08743e-05
5.04248e-05
4.08956e-05
3.63599e-05
2.02833e-05
5.85154e-05
4.93135e-05
2.02814e-05
5.88953e-05
3.63925e-05
4.48557e-05
4.95498e-05
4.09621e-05
3.64033e-05
5.0197e-05
4.09391e-05
2.02822e-05
5.94012e-05
4.93163e-05
5.90032e-05
2.02841e-05
2.02864e-05
5.95317e-05
4.93393e-05
2.02845e-05
5.99739e-05
2.37816e-05
2.37802e-05
2.37735e-05
5.64844e-05
5.37533e-05
5.04596e-05
4.65745e-05
5.39739e-05
5.61448e-05
4.65858e-05
6.19273e-05
2.16262e-05
2.16231e-05
6.17876e-05
2.16268e-05
2.16236e-05
5.65175e-05
5.37548e-05
4.65632e-05
5.04612e-05
5.61929e-05
5.39924e-05
4.65746e-05
2.37631e-05
0.00020209
0.000186402
0.000202085
0.000202965
0.000202971
0.000215205
0.0002146
5.77037e-05
0.000112978
8.14038e-05
8.13902e-05
5.77448e-05
0.000107493
7.79943e-05
7.79843e-05
7.77718e-05
5.77156e-05
7.77558e-05
5.76423e-05
0.00010921
7.86228e-05
7.86079e-05
7.88731e-05
7.88564e-05
5.7655e-05
7.61626e-05
6.37139e-05
4.80247e-05
4.9734e-05
4.96176e-05
6.38148e-05
7.5866e-05
5.7717e-05
8.18076e-05
8.18262e-05
0.000112987
8.14118e-05
5.77276e-05
8.13945e-05
5.76493e-05
0.000109203
7.86088e-05
7.86263e-05
7.88517e-05
7.88692e-05
5.76842e-05
5.76163e-05
7.86004e-05
0.000109195
7.86242e-05
5.76717e-05
7.88056e-05
7.8907e-05
5.77246e-05
7.79947e-05
7.7978e-05
0.000107505
5.76603e-05
7.7772e-05
7.77569e-05
7.50097e-05
6.34096e-05
4.867e-05
4.99481e-05
6.33199e-05
7.52682e-05
5.0064e-05
7.34676e-05
6.27209e-05
4.96676e-05
5.06988e-05
6.26596e-05
7.36178e-05
5.08374e-05
5.77235e-05
7.79817e-05
7.79987e-05
0.000107501
7.77729e-05
5.76867e-05
7.77554e-05
5.8058e-05
7.6373e-05
0.000104915
7.63546e-05
7.61778e-05
5.79761e-05
7.61601e-05
8.9275e-05
9.65064e-05
5.38973e-05
5.62663e-05
5.38936e-05
9.59007e-05
8.98254e-05
7.50017e-05
6.33871e-05
4.99657e-05
4.86663e-05
6.32998e-05
5.00864e-05
7.52569e-05
8.87077e-05
5.60824e-05
9.47824e-05
5.3851e-05
5.3837e-05
9.53963e-05
8.82034e-05
7.44102e-05
4.89833e-05
6.29524e-05
5.04315e-05
6.30312e-05
5.03085e-05
7.42023e-05
5.77381e-05
7.80305e-05
7.79446e-05
0.000107504
7.77223e-05
5.76875e-05
7.78086e-05
5.77899e-05
0.000106692
7.69676e-05
7.69153e-05
7.71624e-05
5.78457e-05
7.71432e-05
5.8035e-05
7.63945e-05
0.000104926
7.63244e-05
5.79375e-05
7.61299e-05
7.62038e-05
8.9272e-05
9.65031e-05
5.38755e-05
5.62634e-05
9.58988e-05
5.38843e-05
8.98234e-05
7.44082e-05
6.29594e-05
4.89848e-05
5.04303e-05
5.03044e-05
7.4203e-05
6.30338e-05
7.50002e-05
4.99396e-05
6.33991e-05
4.86667e-05
5.00653e-05
6.33104e-05
7.52568e-05
8.87068e-05
5.60912e-05
9.47823e-05
5.38585e-05
9.53953e-05
5.38507e-05
8.82022e-05
8.71684e-05
9.43091e-05
5.38446e-05
5.5844e-05
8.76231e-05
5.38776e-05
9.36965e-05
7.34553e-05
6.27014e-05
5.06826e-05
4.96611e-05
7.36074e-05
6.26409e-05
5.08274e-05
7.34566e-05
6.2715e-05
4.96636e-05
5.06748e-05
7.36085e-05
5.08159e-05
6.2653e-05
8.71637e-05
9.43066e-05
5.38271e-05
5.58358e-05
8.7621e-05
9.36928e-05
5.38595e-05
0.000185272
0.000186399
0.000202087
0.000202962
0.00020297
0.000215204
0.000214597
0.000204731
0.000204736
0.000187541
0.000203848
0.000203855
0.000215806
0.000216399
0.00020473
0.000204736
0.000187543
0.000203849
0.000203855
0.000215806
0.000216399
0.000204726
0.000204732
0.000187536
0.000203845
0.000203852
0.000215803
0.000216396
0.000204726
0.000204733
0.000187537
0.000203846
0.000203852
0.000215804
0.000216396
0.000186407
0.000202083
0.000202089
0.000202967
0.000202973
0.000215207
0.000214599
0.0001864
0.000202079
0.000202086
0.000202963
0.00020297
0.000215204
0.000214596
9.33831e-05
5.73117e-05
5.42587e-05
9.94248e-05
5.42957e-05
9.99645e-05
9.27087e-05
7.80993e-05
4.91726e-05
4.71211e-05
6.46201e-05
6.47473e-05
4.9077e-05
7.77159e-05
9.33799e-05
5.73067e-05
9.94206e-05
5.42479e-05
9.99614e-05
5.42825e-05
9.27041e-05
7.87034e-05
6.52876e-05
4.88183e-05
4.68452e-05
7.91421e-05
6.51449e-05
4.88995e-05
9.39258e-05
5.75993e-05
0.000101164
5.45118e-05
9.46177e-05
0.000100643
5.44472e-05
7.80968e-05
4.91615e-05
4.71196e-05
6.46219e-05
6.47511e-05
4.9061e-05
7.77113e-05
5.76682e-05
0.000111814
8.04279e-05
8.04145e-05
8.07901e-05
8.0778e-05
5.76694e-05
0.00020031
0.000184145
0.000183028
0.000201203
0.000200318
0.000213361
0.000213982
0.0002012
0.000201206
0.000183033
0.000200314
0.00020032
0.000213363
0.000213986
0.000201195
0.000201202
0.000183026
0.00020031
0.000200317
0.000213361
0.000213982
8.87091e-05
5.60872e-05
9.47813e-05
5.38504e-05
9.53971e-05
5.3843e-05
8.82039e-05
7.50076e-05
6.34027e-05
4.99595e-05
4.86669e-05
7.52635e-05
6.33127e-05
5.00829e-05
8.92764e-05
5.62699e-05
9.65054e-05
5.38962e-05
8.9827e-05
9.59001e-05
5.38992e-05
7.44135e-05
5.04324e-05
4.89844e-05
6.29629e-05
6.30369e-05
5.03089e-05