/*--------------------------------*- C++ -*----------------------------------*\
| =========                 |                                                 |
| \\      /  F ield         | OpenFOAM: The Open Source CFD Toolbox           |
|  \\    /   O peration     | Version:  v2006                                 |
|   \\  /    A nd           | Website:  www.openfoam.com                      |
|    \\/     M anipulation  |                                                 |
\*---------------------------------------------------------------------------*/
FoamFile
{
    version     2.0;
    format      ascii;
    class       volScalarField;
    location    "1000";
    object      p;
}
// * * * * * * * * * * * * * * * * * * * * * * * * * * * * * * * * * * * * * //

dimensions      [0 2 -2 0 0 0 0];


internalField   nonuniform List<scalar> 
14298
(
0.00267595
0.00267595
0.00267613
0.00267603
0.00267603
0.00267606
0.00267598
0.00267606
0.00267618
0.00267368
0.00267606
0.00267371
0.00267618
0.00267371
0.00267605
0.00267597
0.00267619
0.00267369
0.00267606
0.00267372
0.00267605
0.00267597
0.00267618
0.00267368
0.00267372
0.00267606
0.00267367
0.00267605
0.00267597
0.00267595
0.00267612
0.00267604
0.00267604
0.00267595
0.00267618
0.00267367
0.0026737
0.00267605
0.00267618
0.00267367
0.0026737
0.00267606
0.00267606
0.00267597
0.00267606
0.00267597
0.00267612
0.00267604
0.00267604
0.00267595
0.00267595
0.00267096
0.00267096
0.00267101
0.00267592
0.00267592
0.00267602
0.00267093
0.00267093
0.00267112
0.00267598
0.00267617
0.00267104
0.00267609
0.00267099
0.00267119
0.00267112
0.00267598
0.00267617
0.00267104
0.00267609
0.00267099
0.00267119
0.00267097
0.00267597
0.00267604
0.00267109
0.00267597
0.00267097
0.00267106
0.00267097
0.00267601
0.00267099
0.00267594
0.00267102
0.00267098
0.00267597
0.00267604
0.00267108
0.00267597
0.00267098
0.00267106
0.00267097
0.00267603
0.00267595
0.00267107
0.00267595
0.00267105
0.00267097
0.00267096
0.00267601
0.00267099
0.00267593
0.00267102
0.00267097
0.00267595
0.00267604
0.00267107
0.00267596
0.00267097
0.00267106
0.00267096
0.00267601
0.00267099
0.00267593
0.00267102
0.00267099
0.00267097
0.00267104
0.00267596
0.00267596
0.00267604
0.00267097
0.00267097
0.00267111
0.00267599
0.00267615
0.00267105
0.00267118
0.00267606
0.002671
0.00267111
0.00267598
0.00267615
0.00267105
0.00267606
0.002671
0.00267118
0.00267097
0.00267098
0.00267604
0.00267597
0.00267108
0.00267597
0.00267106
0.00267098
0.00267097
0.00267601
0.00267099
0.00267594
0.00267102
0.00267097
0.00267604
0.00267597
0.00267108
0.00267596
0.00267106
0.00267097
0.00267097
0.00267601
0.00267099
0.00267594
0.00267102
0.00267106
0.00267597
0.00267597
0.00267606
0.00267099
0.00267099
0.00267111
0.00267599
0.00267614
0.00267105
0.00267605
0.00267117
0.00267101
0.00267111
0.00267599
0.00267614
0.00267105
0.00267605
0.00267117
0.00267101
0.00267097
0.00267097
0.00267372
0.0026737
0.0026737
0.0026737
0.0026737
0.0026737
0.00267372
0.0026737
0.0026737
0.0026737
0.00267372
0.0026737
0.0026737
0.00267136
0.00267134
0.00267613
0.00267613
0.00267608
0.00267131
0.00267131
0.00267127
0.00267615
0.00267617
0.00267136
0.00267617
0.00267133
0.00267126
0.00267128
0.0026761
0.00267618
0.00267118
0.00267121
0.00267619
0.00267126
0.00267127
0.00267615
0.00267617
0.00267135
0.00267617
0.00267132
0.00267126
0.00267127
0.00267616
0.00267617
0.00267134
0.00267617
0.00267132
0.00267126
0.00267128
0.00267611
0.00267618
0.00267118
0.00267121
0.00267619
0.00267126
0.00267127
0.00267617
0.00267616
0.00267134
0.00267617
0.00267126
0.00267132
0.00267128
0.00267611
0.00267616
0.00267118
0.00267619
0.00267126
0.0026712
0.00267615
0.00267117
0.00267119
0.00267135
0.00267133
0.00267611
0.00267611
0.00267129
0.00267604
0.00267129
0.00267127
0.00267616
0.00267614
0.00267135
0.00267616
0.00267126
0.00267131
0.00267127
0.0026761
0.00267616
0.00267117
0.00267618
0.0026712
0.00267125
0.00267127
0.00267617
0.00267615
0.00267135
0.00267616
0.00267126
0.00267132
0.00267127
0.0026761
0.00267616
0.00267118
0.00267618
0.00267126
0.00267119
0.00267135
0.00267132
0.0026761
0.0026761
0.00267602
0.00267127
0.00267128
0.00302653
0.00302906
0.00303733
0.00303733
0.00303468
0.00302904
0.00302654
0.00303732
0.00302888
0.00302915
0.00302652
0.00302915
0.00302911
0.00302911
0.00303731
0.00303468
0.00303452
0.00303732
0.00303468
0.00303468
0.0030344
0.00303452
0.00303732
0.00303468
0.00303468
0.0030344
0.00303453
0.00303454
0.00303454
0.00303432
0.00303432
0.00302912
0.00302912
0.00302889
0.00302896
0.0030291
0.00302652
0.00302915
0.00302914
0.00302896
0.00302909
0.00302889
0.00302889
0.00302352
0.00302921
0.00302899
0.00302923
0.00302922
0.00302898
0.00302924
0.00302884
0.00302884
0.0030291
0.00303966
0.00303451
0.00303988
0.00303428
0.00303973
0.00303989
0.00303454
0.00303434
0.00303989
0.00303972
0.00303436
0.0030396
0.00303977
0.00303449
0.00303987
0.00303425
0.00303971
0.0030399
0.00303433
0.00303453
0.00303971
0.00303992
0.00303432
0.00303961
0.00303977
0.00303449
0.00303988
0.00303425
0.00303972
0.0030399
0.00303454
0.00303433
0.00303991
0.00303972
0.00303432
0.00303998
0.00303465
0.00303993
0.00303442
0.00303467
0.00304001
0.00303979
0.00303997
0.00303465
0.00303993
0.00303442
0.00303467
0.00304
0.00303979
0.00303994
0.00303434
0.00303434
0.00303458
0.00303974
0.00303974
0.0030397
0.0030397
0.00302385
0.0030292
0.00302897
0.00302374
0.00302362
0.00302916
0.00302385
0.00302385
0.00302919
0.00302899
0.00302375
0.00302384
0.00302915
0.00302363
0.00302376
0.00302892
0.00302893
0.00302356
0.00302911
0.00302356
0.00302353
0.00302343
0.00302906
0.0030236
0.00302369
0.00302879
0.00302351
0.00302374
0.00302911
0.0030289
0.00302375
0.0030289
0.00302352
0.00302349
0.00302906
0.00302361
0.00302884
0.0030237
0.00302355
0.00302373
0.0030289
0.00302909
0.00302891
0.00302354
0.00302374
0.00302914
0.00302915
0.00302916
0.00303991
0.00303985
0.00303472
0.00303472
0.00303479
0.00303994
0.00303994
0.00302399
0.00302913
0.00302913
0.00302388
0.00302392
0.00302911
0.00302393
0.00303732
0.00303733
0.00303732
0.00303732
0.00303733
0.00302383
0.00302913
0.00302919
0.00302388
0.00302912
0.0030238
0.00302392
0.00302383
0.0030239
0.00302918
0.0030291
0.0030291
0.00302392
0.00302383
0.00303993
0.00303472
0.00303463
0.00303996
0.00303991
0.00303994
0.0030347
0.00303462
0.00303462
0.00303995
0.00303991
0.00303993
0.0030346
0.00303996
0.0030347
0.00303998
0.00303994
0.00303463
0.00303991
0.00303995
0.00303462
0.0030347
0.00303991
0.00303998
0.00303462
0.00303993
0.0030346
0.00303996
0.00303471
0.00303999
0.00303994
0.00303463
0.00303991
0.00303995
0.00303462
0.00303471
0.00303991
0.00303997
0.00303462
0.00302383
0.00302915
0.00302916
0.00302388
0.0030238
0.00302912
0.00302392
0.00302383
0.00302389
0.0030291
0.00302915
0.00302383
0.0030291
0.00302391
0.0029836
0.00298613
0.00296481
0.00298359
0.00298613
0.0029623
0.00296229
0.00296469
0.00299428
0.00302654
0.00297292
0.00298359
0.0029861
0.00299167
0.00302653
0.00299428
0.00299165
0.00299151
0.00302654
0.00299428
0.0029943
0.00299429
0.00299428
0.00299152
0.00302905
0.00299166
0.00302654
0.0029943
0.0029943
0.0029917
0.00299131
0.00298611
0.00298361
0.00298617
0.00296486
0.00298361
0.00298359
0.0029861
0.00298358
0.00296998
0.00296479
0.00296462
0.00298594
0.00296998
0.00298359
0.0029862
0.00298618
0.00297292
0.00297293
0.00297036
0.00297031
0.00298609
0.00298614
0.00297016
0.00297037
0.00297017
0.00298594
0.00296998
0.00296463
0.00296481
0.00296482
0.00296463
0.00298613
0.002986
0.00297017
0.00297004
0.0029862
0.00297292
0.00298359
0.00297294
0.00297031
0.00298618
0.00297035
0.00297005
0.002986
0.00297017
0.00296229
0.00296489
0.00296486
0.00296482
0.00296469
0.0029623
0.00296486
0.0029649
0.00296482
0.00301295
0.0030291
0.00301284
0.00301276
0.00301296
0.00301284
0.00299428
0.00302651
0.00302651
0.00302651
0.00302651
0.00299427
0.00299428
0.00301312
0.00301576
0.00301311
0.00301575
0.00302889
0.00301276
0.00301312
0.00302652
0.00302915
0.00301575
0.00302915
0.00301575
0.00301311
0.0030131
0.00301297
0.00301298
0.00297017
0.002986
0.00298613
0.00297004
0.00297017
0.002986
0.00298612
0.00297004
0.00298359
0.00298359
0.00298358
0.00298594
0.00296998
0.00297036
0.00298359
0.00298618
0.00297294
0.0029862
0.00297292
0.00297032
0.00297033
0.00297016
0.00298614
0.00298614
0.00297016
0.00301277
0.00301277
0.00301311
0.00301297
0.00301297
0.00299132
0.00300736
0.00299132
0.00300736
0.00300751
0.00299151
0.00299151
0.00300757
0.00300757
0.00301295
0.00302896
0.0030291
0.00301283
0.00301312
0.00302652
0.00301576
0.00302915
0.00301311
0.00301574
0.00301312
0.00302915
0.00302652
0.00301575
0.00302915
0.00301311
0.00301574
0.00300756
0.00299138
0.00300743
0.0029915
0.00299138
0.00300756
0.00300742
0.0029915
0.00300762
0.00300502
0.00299165
0.00299429
0.00300761
0.003005
0.00299168
0.00299429
0.00300762
0.003005
0.00299429
0.00300761
0.00300499
0.00299167
0.00301313
0.00301297
0.00301297
0.00301277
0.00299132
0.00300736
0.00299166
0.00299151
0.00300753
0.00300757
0.00300757
0.00299132
0.00300736
0.00301312
0.00301576
0.00301311
0.00301575
0.00301296
0.00302896
0.00302909
0.00301284
0.00301313
0.00302652
0.00302915
0.00301575
0.00302914
0.00301574
0.00301311
0.00300755
0.00299138
0.00300743
0.00299151
0.00300762
0.00300502
0.00299165
0.00299428
0.00300761
0.003005
0.00299168
0.00300755
0.00299138
0.00300743
0.00299151
0.00300762
0.00300501
0.00299429
0.00299166
0.003005
0.00300761
0.00299168
0.00301295
0.00301284
0.00301313
0.00301576
0.00301574
0.00301311
0.00301296
0.00301283
0.00299429
0.00299169
0.00299166
0.00300762
0.003005
0.00300761
0.00300499
0.00299151
0.00299138
0.00300755
0.00300743
0.00299169
0.0029943
0.00299166
0.00300761
0.003005
0.003005
0.00300761
0.00299139
0.00300755
0.00300742
0.00302911
0.00302911
0.00301311
0.00301297
0.00301297
0.0030289
0.00301276
0.00299131
0.00300736
0.00300752
0.00299152
0.00299152
0.00300757
0.00300756
0.00299131
0.00300736
0.00301313
0.00302652
0.00302915
0.00301575
0.00302914
0.00301574
0.00301311
0.00301296
0.00302896
0.00302909
0.00301284
0.00301297
0.00302896
0.00302909
0.00301283
0.00300761
0.00300501
0.00299428
0.00299166
0.00300499
0.0030076
0.00299169
0.00300762
0.00300501
0.00299428
0.00299166
0.003005
0.00300761
0.00299169
0.00300755
0.00299138
0.00300743
0.00299152
0.00300755
0.00299139
0.00300742
0.00299152
0.00301276
0.00301276
0.00299152
0.00300752
0.00299152
0.00300756
0.00300757
0.00300736
0.00299132
0.00300736
0.00298594
0.00296998
0.00298594
0.00296998
0.00298614
0.00298614
0.00297034
0.00297017
0.00297017
0.002986
0.00297004
0.00297017
0.00298612
0.00297035
0.00298618
0.00298359
0.00297293
0.00298619
0.00297031
0.00297293
0.0029836
0.00297032
0.00297293
0.00297036
0.00298358
0.00298619
0.00297294
0.00296469
0.0029648
0.00296231
0.00296488
0.00296229
0.00297036
0.00298618
0.00298359
0.00297294
0.00298619
0.00297031
0.00297293
0.00297017
0.002986
0.00298612
0.00297004
0.00297036
0.00298359
0.00298617
0.00297295
0.00298619
0.00297293
0.00297032
0.00296481
0.00296488
0.00296229
0.00296481
0.00296468
0.00296489
0.00296229
0.00296229
0.00296486
0.00298613
0.00298614
0.00297034
0.00297017
0.00297017
0.00298594
0.00296998
0.00296462
0.00296479
0.00296482
0.00296482
0.00296462
0.00297294
0.00297036
0.00298359
0.00298618
0.0029862
0.00297293
0.00297031
0.00297018
0.002986
0.00298613
0.00297004
0.00297017
0.002986
0.00298613
0.00297004
0.00296229
0.00296486
0.00296468
0.00298593
0.00298593
0.00296998
0.00296482
0.00296482
0.00296462
0.0029809
0.00298602
0.00298623
0.00298083
0.00298071
0.00298619
0.00298094
0.00295961
0.00296493
0.00295953
0.00296471
0.00296491
0.00295943
0.00295964
0.00298063
0.00298594
0.00298613
0.00298082
0.00298062
0.00298082
0.00298593
0.00295929
0.00295941
0.00296476
0.00296457
0.00295947
0.00299693
0.00299141
0.00299162
0.00299684
0.00299162
0.00299695
0.00299672
0.00299666
0.00299132
0.00299152
0.00299683
0.00299132
0.00299665
0.00299683
0.00299664
0.00297527
0.00295935
0.00298063
0.00297526
0.0029808
0.00298593
0.00298592
0.00298065
0.00298065
0.00298608
0.00298089
0.00298601
0.00298623
0.00298083
0.00298093
0.00298071
0.00298619
0.00297554
0.00297547
0.00297028
0.00297007
0.00297535
0.0029703
0.00297557
0.00297548
0.00296995
0.00296995
0.00297528
0.00297528
0.00297016
0.00297555
0.00297546
0.0029703
0.00297007
0.00297558
0.00297535
0.0029703
0.00298063
0.00297527
0.00295935
0.00295945
0.00296458
0.00296458
0.00296476
0.00295933
0.00295933
0.0029596
0.00296494
0.0029647
0.00295953
0.00296491
0.00295942
0.00295965
0.00295935
0.00298064
0.00298612
0.00298595
0.00298083
0.00298083
0.00298063
0.00298596
0.0029806
0.00298608
0.0029807
0.00298077
0.00298589
0.00297527
0.00297546
0.00297017
0.00296997
0.00297546
0.00297527
0.00296997
0.00297522
0.00297533
0.00297011
0.00297541
0.00296993
0.00297522
0.00297533
0.00297012
0.00297541
0.00296995
0.00298058
0.00298608
0.0029807
0.00298077
0.00298587
0.00297529
0.00297545
0.00297017
0.00296998
0.00297528
0.00297545
0.00296999
0.00295935
0.00296481
0.00296463
0.00295954
0.00296463
0.00295954
0.00295934
0.0029593
0.00296476
0.00295941
0.00296456
0.00295948
0.00295933
0.00296482
0.00296463
0.00295955
0.00296463
0.00295933
0.00295954
0.00301813
0.0030183
0.00301278
0.00301297
0.00301812
0.00301831
0.00301278
0.00302347
0.00302906
0.00302881
0.00302369
0.00302353
0.00302373
0.0030289
0.0030291
0.0030289
0.00302352
0.00302374
0.00301805
0.00301292
0.00301818
0.00301827
0.00301272
0.0030181
0.00301812
0.0030183
0.00301297
0.00301277
0.00301831
0.00301812
0.00301277
0.00301804
0.00301292
0.00301818
0.00301827
0.00301271
0.00302353
0.00301811
0.00301828
0.00301281
0.00301281
0.00301812
0.00301811
0.00301298
0.00302385
0.00302374
0.00302384
0.00302362
0.00302385
0.00302374
0.00302384
0.00302362
0.00302367
0.00302348
0.00302348
0.00301837
0.00301285
0.00301833
0.00301307
0.00301841
0.0030182
0.00301305
0.00301836
0.00301285
0.00301833
0.00301307
0.0030184
0.0030182
0.00301305
0.00297527
0.00297547
0.00296997
0.00297016
0.00297526
0.00297545
0.00296998
0.00298059
0.00298608
0.0029807
0.00298588
0.00298077
0.00298063
0.00298084
0.00298596
0.00298613
0.00298595
0.00298063
0.00298083
0.00297521
0.00297012
0.00297533
0.00297541
0.00296994
0.00297526
0.00297547
0.00297016
0.00296996
0.00297546
0.00297527
0.00296996
0.00298058
0.00298609
0.0029807
0.00298588
0.00298077
0.00298064
0.00298083
0.00298613
0.00298595
0.00298596
0.00298084
0.00298064
0.0029752
0.00297011
0.00297533
0.0029754
0.00296993
0.00298064
0.00297527
0.00297557
0.00297029
0.00297546
0.00297006
0.00297559
0.00297535
0.00297027
0.00298094
0.00298623
0.00298082
0.00298602
0.00298095
0.00298619
0.00298072
0.00297543
0.00296994
0.00296994
0.00297523
0.00297523
0.00297009
0.00298094
0.00298623
0.00298603
0.00298082
0.00298618
0.00298094
0.00298072
0.00298083
0.00298597
0.00298597
0.00298615
0.00298064
0.00298064
0.00297557
0.00297029
0.00297006
0.00297546
0.00297558
0.00297535
0.00297027
0.00301811
0.00301811
0.00301833
0.0030127
0.0030127
0.00301809
0.00301809
0.00301291
0.00301845
0.00301285
0.00301832
0.00301309
0.0030182
0.00301311
0.00301844
0.00301845
0.00301285
0.00301832
0.00301309
0.0030182
0.00301311
0.00301844
0.00299663
0.00300202
0.00299663
0.00300202
0.00300221
0.00300733
0.00300733
0.00300751
0.00300205
0.00300205
0.0029969
0.00299163
0.00299684
0.0029914
0.00299672
0.00299693
0.00299163
0.0029969
0.00299163
0.00299684
0.0029914
0.00299672
0.00299693
0.00299163
0.00300229
0.00300744
0.00300766
0.00300223
0.00300763
0.00300212
0.00300232
0.00300229
0.00300744
0.00300766
0.00300223
0.00300763
0.00300211
0.00300232
0.00299685
0.00299131
0.00299131
0.00299666
0.00299666
0.0029915
0.00301813
0.0030183
0.00301278
0.00301296
0.00301812
0.0030183
0.00301279
0.00302346
0.00302906
0.0030236
0.0030288
0.00302369
0.00302352
0.00302373
0.0030289
0.00302911
0.00302352
0.0030289
0.00302374
0.00301806
0.00301292
0.00301818
0.00301827
0.00301273
0.00300202
0.00300737
0.00300756
0.00300223
0.00300737
0.00300202
0.00300223
0.00299657
0.0029967
0.00299146
0.00299127
0.00299679
0.00300197
0.00300751
0.0030021
0.00300729
0.00300218
0.00299664
0.00299683
0.00299132
0.00299151
0.00299132
0.00299663
0.00299683
0.00299656
0.0029967
0.00299146
0.00299678
0.00299128
0.00300201
0.00300738
0.00300756
0.00300224
0.00300738
0.00300202
0.00300224
0.00300195
0.00300209
0.00300751
0.00300729
0.00300217
0.00299663
0.0029915
0.00299683
0.00299132
0.00299663
0.00299683
0.00299132
0.00301831
0.00301271
0.00301272
0.00301807
0.00301808
0.00301291
0.00301843
0.00301285
0.00301832
0.00301307
0.0030182
0.00301842
0.00301308
0.00301844
0.00301285
0.00301832
0.00301308
0.00301843
0.0030182
0.00301308
0.00301811
0.00299663
0.00300202
0.00299684
0.00299128
0.00299129
0.00299147
0.00299662
0.00299663
0.00299693
0.0029914
0.00299163
0.00299684
0.00299162
0.00299673
0.00299695
0.00300222
0.00300735
0.00300736
0.00300753
0.00300204
0.00300205
0.00300233
0.00300223
0.00300744
0.00300766
0.00300234
0.00300762
0.00300211
0.00300232
0.00300223
0.00300744
0.00300766
0.00300762
0.00300212
0.00300233
0.00299663
0.00300203
0.00301813
0.0030183
0.00301277
0.00301297
0.00301812
0.00301831
0.00301278
0.00302346
0.00302906
0.0030236
0.0030288
0.00302369
0.00302353
0.00302373
0.0030289
0.0030291
0.00302353
0.0030289
0.00302374
0.00301805
0.00301292
0.00301818
0.00301827
0.00301272
0.00300203
0.00300756
0.00300737
0.00300223
0.00300737
0.00300223
0.00300203
0.00299658
0.0029967
0.00299146
0.00299127
0.00299678
0.00300198
0.00300751
0.0030021
0.00300729
0.00300218
0.00299664
0.00299683
0.00299151
0.00299131
0.00299132
0.00299683
0.00299664
0.00300202
0.00300737
0.00300756
0.00300223
0.00300737
0.00300202
0.00300223
0.00299656
0.0029967
0.00299146
0.00299678
0.00299127
0.00300196
0.00300752
0.0030021
0.0030073
0.00300218
0.00299664
0.00299683
0.00299131
0.00299151
0.00299664
0.00299683
0.00299132
0.00301811
0.0030183
0.00301295
0.00301277
0.0030183
0.00301812
0.00301279
0.00301804
0.00301292
0.00301818
0.00301827
0.00301274
0.00301813
0.00301831
0.00301276
0.00301297
0.00301812
0.00301832
0.00301276
0.00301804
0.00301292
0.00301818
0.00301827
0.00301269
0.00299663
0.00299151
0.00299132
0.00299683
0.00299131
0.00299684
0.00299664
0.00299655
0.00299146
0.0029967
0.00299126
0.00299678
0.00300202
0.00300223
0.00300756
0.00300738
0.00300739
0.00300224
0.00300202
0.00300197
0.0030021
0.00300752
0.00300732
0.00300218
0.00299658
0.00299146
0.0029967
0.00299126
0.00299679
0.00300204
0.00300222
0.00300737
0.00300755
0.00300736
0.00300203
0.00300222
0.00300199
0.0030021
0.00300751
0.00300729
0.00300218
0.00301832
0.00301276
0.00301276
0.00301812
0.00301812
0.00301298
0.00302383
0.00302921
0.00302898
0.00302375
0.00302362
0.00302921
0.00302383
0.00302383
0.00302921
0.00302898
0.00302375
0.00302384
0.00302921
0.00302362
0.00302369
0.00302886
0.00302886
0.00302352
0.00302908
0.00302352
0.00301838
0.00301286
0.00301833
0.00301308
0.0030182
0.00301841
0.00301309
0.00301838
0.00301286
0.00301833
0.00301308
0.00301842
0.0030182
0.00301309
0.00302353
0.00301811
0.00299663
0.00300203
0.00300216
0.00300732
0.00300732
0.00300755
0.00300199
0.00300199
0.00299688
0.00299161
0.00299684
0.0029914
0.00299693
0.00299672
0.00299159
0.00299688
0.00299161
0.00299684
0.0029914
0.00299672
0.00299693
0.00299159
0.00300233
0.00300745
0.00300768
0.00300223
0.00300234
0.00300768
0.00300212
0.00300233
0.00300745
0.00300768
0.00300223
0.00300767
0.00300212
0.00300234
0.0029968
0.00299134
0.00299134
0.00299663
0.00299663
0.00299151
0.00299663
0.00300203
0.00301811
0.00301831
0.00301296
0.00301277
0.00301831
0.00301812
0.00301277
0.00302344
0.00302907
0.0030236
0.00302369
0.00302882
0.00302353
0.00302373
0.0030291
0.0030289
0.00302375
0.00302892
0.00302353
0.00301803
0.00301292
0.00301818
0.00301826
0.00301272
0.00301814
0.0030183
0.00301298
0.00301277
0.00301831
0.00301813
0.00301277
0.00302349
0.00302906
0.00302361
0.00302882
0.0030237
0.00302354
0.00302373
0.00302909
0.0030289
0.0030289
0.00302373
0.00302353
0.00301805
0.00301292
0.00301818
0.00301828
0.0030127
0.00300204
0.00300755
0.00300737
0.00300222
0.00300739
0.00300223
0.00300203
0.00299655
0.0029967
0.00299146
0.00299678
0.00299125
0.00300198
0.00300752
0.0030021
0.00300732
0.00300218
0.00299664
0.00299683
0.00299152
0.00299131
0.00299684
0.00299664
0.0029913
0.00300202
0.00300756
0.00300736
0.00300222
0.00300736
0.00300223
0.00300202
0.00299658
0.0029967
0.00299146
0.00299679
0.00299127
0.00300197
0.00300751
0.0030021
0.00300728
0.00300218
0.00299665
0.00299683
0.00299152
0.00299132
0.00299683
0.00299665
0.00299132
0.00302354
0.00301811
0.00302354
0.00301811
0.00299691
0.00299161
0.00299684
0.0029914
0.00299158
0.00299693
0.00299672
0.00300219
0.00300736
0.00300736
0.0030076
0.00300198
0.00300198
0.00299692
0.00299161
0.00299684
0.0029914
0.00299158
0.00299694
0.00299671
0.00300237
0.00300222
0.00300745
0.00300767
0.00300767
0.00300234
0.00300212
0.00300237
0.00300745
0.00300768
0.00300222
0.00300767
0.00300235
0.00300212
0.00299677
0.00299132
0.00299132
0.00299146
0.00299659
0.00299659
0.00300203
0.00299664
0.00300203
0.00298063
0.00297527
0.00298063
0.00297527
0.00297544
0.00296999
0.00296999
0.00297527
0.00297527
0.00297014
0.00298093
0.00298625
0.00298602
0.00298082
0.00298623
0.00298072
0.00298094
0.00298093
0.00298625
0.00298602
0.00298083
0.00298623
0.00298072
0.00298094
0.00298078
0.0029859
0.0029859
0.0029861
0.00298061
0.00298061
0.00297552
0.00297006
0.00297546
0.00297027
0.00297535
0.00297025
0.00297556
0.00297552
0.00297006
0.00297547
0.00297027
0.00297535
0.00297025
0.00297556
0.00298059
0.0029807
0.00298609
0.0029859
0.00298077
0.00297519
0.00297533
0.00297011
0.0029754
0.00296992
0.00297526
0.00297016
0.00297547
0.00296996
0.00297526
0.00297547
0.00296996
0.00298064
0.00298612
0.00298084
0.00298596
0.00298064
0.00298597
0.00298084
0.00295932
0.00295941
0.00296476
0.00296458
0.00295948
0.00295937
0.0029648
0.00295953
0.00296463
0.00296464
0.00295936
0.00295953
0.00297527
0.00297547
0.00296997
0.00297017
0.00297527
0.00297546
0.00296997
0.0029806
0.00298608
0.0029807
0.00298589
0.00298077
0.00298064
0.00298083
0.00298595
0.00298612
0.00298064
0.00298595
0.00298083
0.00297522
0.00297011
0.00297533
0.00297541
0.00296993
0.00295936
0.00295953
0.0029648
0.00296463
0.00296463
0.00295952
0.00295935
0.00295935
0.00295953
0.00296463
0.00296481
0.00296463
0.00295935
0.00295953
0.0029593
0.00296476
0.0029594
0.00296456
0.00295947
0.0029754
0.00296997
0.00296997
0.00297523
0.00297523
0.0029701
0.00298096
0.00298624
0.00298602
0.00298082
0.00298072
0.00298622
0.00298095
0.00298096
0.00298624
0.00298602
0.00298082
0.00298095
0.00298622
0.00298072
0.0029808
0.00298594
0.00298594
0.0029806
0.00298615
0.0029806
0.00297555
0.00297006
0.00297546
0.00297027
0.00297534
0.00297558
0.00297024
0.00297555
0.00297006
0.00297546
0.00297027
0.00297558
0.00297534
0.00297024
0.00298064
0.00297527
0.00295935
0.00295953
0.00296465
0.00296465
0.0029648
0.00295937
0.00295937
0.00295962
0.00296471
0.00296491
0.00295953
0.00295964
0.00296485
0.00295943
0.00295962
0.00296471
0.00296491
0.00295953
0.00296485
0.00295943
0.00295964
0.00295935
0.00297529
0.00297545
0.00297018
0.00296998
0.00297546
0.00297528
0.00296997
0.0029806
0.00298608
0.0029807
0.00298078
0.00298588
0.00298065
0.00298082
0.00298612
0.00298594
0.00298082
0.00298594
0.00298063
0.00297523
0.00297011
0.00297533
0.00297541
0.00296993
0.00297528
0.00297545
0.00297017
0.00296998
0.00297545
0.00297528
0.00296999
0.00298059
0.00298608
0.0029807
0.00298588
0.00298077
0.00298063
0.00298082
0.00298613
0.00298594
0.00298594
0.00298082
0.00298063
0.00297521
0.00297011
0.00297533
0.00297541
0.00296994
0.00295929
0.00296476
0.00295941
0.00296455
0.00295947
0.00298063
0.00298063
0.00297527
0.0029596
0.00296492
0.00295953
0.0029647
0.00295964
0.00296486
0.00295943
0.00295951
0.00296462
0.00296462
0.00296477
0.00295937
0.00295937
0.0029596
0.00296491
0.0029647
0.00295953
0.00296486
0.00295963
0.00295943
0.00295934
0.00299428
0.00300499
0.00299428
0.00300499
0.00300499
0.003005
0.00299429
0.003024
0.00302389
0.00302392
0.00302392
0.00298111
0.00298098
0.00298617
0.00298616
0.00298104
0.00298615
0.00298101
0.00299686
0.00299679
0.00299171
0.00299171
0.00299687
0.00299687
0.0029918
0.00299686
0.00299158
0.00299688
0.00299169
0.0029969
0.00299689
0.00299161
0.00302399
0.00302913
0.00302914
0.00302387
0.00302393
0.00302915
0.00302391
0.00299686
0.00299679
0.0029917
0.0029917
0.00299687
0.00299687
0.00299176
0.00299689
0.00299168
0.00299682
0.00299169
0.00299176
0.00299686
0.00299689
0.0029811
0.00298618
0.00298618
0.00298099
0.00298619
0.00298102
0.00298102
0.00298093
0.00298618
0.00298097
0.0029862
0.0029809
0.00298616
0.00298102
0.00295965
0.00296488
0.00295968
0.00296488
0.00295962
0.00296486
0.00295972
0.00298112
0.00298618
0.00298617
0.00298099
0.00298103
0.00298617
0.00298103
0.00295979
0.00296486
0.0029597
0.00296485
0.00295973
0.00296484
0.00295972
0.00298093
0.00298614
0.00298621
0.00298101
0.00298103
0.00298092
0.00298614
0.00298093
0.00298617
0.0029862
0.00298097
0.00298089
0.00298101
0.00298616
0.00297548
0.00297553
0.00297027
0.00297038
0.00297555
0.00297547
0.00297027
0.0029755
0.00297551
0.00297027
0.00297036
0.00297552
0.00297553
0.00297029
0.00298108
0.00298618
0.00298617
0.00298099
0.00298102
0.00298616
0.00298101
0.0029755
0.00297545
0.00297035
0.00297037
0.00297552
0.00297047
0.00297549
0.00295981
0.00296486
0.00295971
0.00296487
0.00296488
0.00295973
0.00295973
0.00298092
0.00298614
0.00298622
0.002981
0.00298092
0.00298102
0.00298614
0.0029755
0.00297025
0.0029755
0.00297036
0.00297553
0.00297028
0.00297553
0.00298093
0.0029862
0.00298618
0.00298097
0.00298101
0.0029809
0.00298616
0.00297547
0.00297552
0.00297027
0.00297038
0.00297547
0.00297553
0.00297027
0.00295964
0.00296483
0.00296491
0.00295973
0.00296484
0.00295975
0.00295964
0.00295965
0.00296489
0.00296489
0.00295968
0.00296486
0.00295962
0.00295973
0.00295964
0.00296487
0.00295968
0.00296489
0.00296485
0.00295973
0.0029596
0.00295964
0.00296484
0.00296492
0.00295974
0.00296484
0.00295964
0.00295976
0.00299428
0.00300499
0.00299428
0.003005
0.003005
0.003005
0.00299429
0.00302652
0.00302652
0.00301574
0.00301574
0.00301574
0.00301575
0.00302653
0.00302652
0.00302652
0.00301574
0.00301574
0.00301574
0.00301575
0.00302653
0.00302652
0.00302652
0.00301574
0.00301574
0.00301574
0.00301575
0.00302653
0.00302652
0.00302652
0.00301574
0.00301574
0.00301574
0.00301575
0.00302653
0.00300499
0.00299428
0.00299428
0.003005
0.003005
0.003005
0.00299429
0.00300499
0.00299428
0.00299428
0.003005
0.00300499
0.003005
0.00299429
0.00301832
0.00301836
0.00301313
0.00301306
0.00301837
0.00301832
0.00301306
0.00301834
0.00301313
0.00301836
0.00301304
0.00301837
0.00301837
0.00301307
0.00301832
0.00301836
0.00301306
0.00301314
0.00301832
0.00301838
0.00301306
0.00302383
0.00302914
0.00302918
0.00302388
0.00302912
0.0030238
0.00302393
0.00302383
0.00302389
0.0030291
0.00302917
0.0030291
0.00302383
0.00302393
0.00301834
0.00301313
0.00301836
0.00301304
0.00301836
0.00301838
0.00301306
0.00301833
0.00301826
0.00301315
0.00301316
0.00301834
0.00301835
0.0030132
0.00297292
0.00298358
0.00297292
0.00298359
0.00297292
0.00297293
0.00298359
0.00298359
0.00298359
0.00297292
0.00297292
0.00297292
0.00297293
0.00298359
0.00298359
0.00298359
0.00297292
0.00297292
0.00297292
0.00297293
0.00298359
0.00297548
0.00297553
0.00297027
0.00297039
0.00297547
0.00297555
0.00297027
0.00298094
0.00298619
0.0029862
0.00298097
0.00298616
0.00298091
0.00298101
0.00298093
0.002981
0.00298614
0.0029862
0.00298614
0.00298093
0.00298101
0.0029755
0.00297036
0.00297551
0.00297024
0.00297552
0.00297553
0.00297027
0.00297553
0.00297543
0.00297038
0.00297036
0.00297553
0.00297551
0.00297046
0.00301838
0.00301827
0.00301316
0.00301316
0.00301326
0.00301836
0.00301836
0.00300246
0.00300236
0.0030076
0.0030076
0.00300759
0.00300242
0.00300241
0.00301831
0.00301835
0.00301315
0.00301306
0.00301837
0.00301831
0.00301306
0.00302383
0.00302917
0.00302391
0.00302912
0.00302382
0.00302389
0.00302917
0.0030291
0.00302391
0.0030291
0.00302383
0.00301834
0.00301315
0.00301836
0.00301304
0.00301838
0.00301837
0.00301307
0.00301831
0.00301835
0.00301314
0.00301306
0.00301837
0.00301831
0.00301306
0.00302383
0.00302913
0.00302917
0.00302388
0.00302912
0.00302391
0.0030238
0.00302383
0.00302389
0.00302918
0.0030291
0.0030291
0.00302391
0.00302383
0.00301834
0.00301315
0.00301836
0.00301303
0.00301837
0.00301306
0.00301836
0.00300232
0.00300764
0.00300757
0.0030024
0.00300757
0.00300242
0.00300232
0.00299686
0.00299159
0.00299688
0.00299169
0.00299688
0.0029969
0.00299162
0.00300232
0.00300763
0.00300761
0.00300237
0.00300229
0.00300759
0.00300241
0.00299684
0.00299689
0.0029917
0.00299161
0.00299691
0.00299684
0.00299161
0.00300232
0.00300764
0.00300756
0.00300241
0.00300757
0.00300243
0.00300232
0.00300233
0.00300237
0.00300764
0.00300761
0.00300759
0.00300241
0.0030023
0.00299684
0.00299169
0.00299689
0.00299161
0.00299691
0.00299684
0.00299161
0.00301837
0.00301827
0.00301315
0.00301315
0.00301836
0.00301836
0.00301324
0.00299688
0.00299172
0.00299171
0.0029968
0.00299179
0.00299687
0.00299687
0.00300249
0.00300241
0.00300758
0.00300759
0.00300239
0.00300759
0.00300241
0.00301832
0.00301836
0.00301315
0.00301306
0.00301838
0.00301832
0.00301306
0.00301834
0.00301315
0.00301836
0.00301304
0.00301839
0.00301837
0.00301307
0.00301831
0.00301836
0.00301306
0.00301315
0.00301832
0.00301837
0.00301306
0.00302383
0.00302914
0.00302917
0.00302388
0.00302912
0.00302391
0.0030238
0.00302383
0.00302389
0.0030291
0.00302917
0.0030291
0.00302383
0.00302391
0.00301834
0.00301314
0.00301836
0.00301304
0.00301838
0.00301307
0.00301835
0.00300232
0.00300763
0.00300756
0.0030024
0.00300756
0.00300242
0.00300232
0.00299686
0.00299159
0.00299688
0.00299169
0.00299688
0.0029969
0.00299162
0.00300232
0.00300763
0.00300761
0.00300237
0.00300229
0.00300759
0.0030024
0.00299684
0.00299689
0.0029917
0.00299161
0.00299691
0.00299684
0.00299161
0.00300232
0.00300756
0.00300764
0.0030024
0.00300757
0.00300232
0.00300242
0.00299686
0.00299158