/*--------------------------------*- C++ -*----------------------------------*\
| =========                 |                                                 |
| \\      /  F ield         | OpenFOAM: The Open Source CFD Toolbox           |
|  \\    /   O peration     | Version:  v2006                                 |
|   \\  /    A nd           | Website:  www.openfoam.com                      |
|    \\/     M anipulation  |                                                 |
\*---------------------------------------------------------------------------*/
FoamFile
{
    version     2.0;
    format      ascii;
    class       volVectorField;
    location    "1000";
    object      U;
}
// * * * * * * * * * * * * * * * * * * * * * * * * * * * * * * * * * * * * * //

dimensions      [0 1 -1 0 0 0 0];


internalField   nonuniform List<vector> 
14298
(
(1.62165e-06 7.04096e-06 0.0722562)
(6.92806e-06 2.02412e-06 0.0722556)
(0.000160835 0.000160556 0.106599)
(1.25009e-05 2.98924e-05 0.0895373)
(2.96761e-05 1.25363e-05 0.0895344)
(2.35225e-06 4.65425e-05 0.0942429)
(-1.79947e-06 2.06119e-05 0.08371)
(-1.88055e-06 4.60547e-05 0.0942428)
(5.35091e-06 0.000108988 0.102585)
(6.05051e-05 9.86456e-05 0.107878)
(1.69863e-05 6.28001e-05 0.0958745)
(1.905e-05 0.000101778 0.108487)
(-5.36368e-06 0.000108876 0.102585)
(-1.90408e-05 0.000101814 0.108487)
(4.64453e-05 2.14544e-06 0.0942407)
(2.06939e-05 -1.53904e-06 0.0837102)
(0.000110066 5.75889e-06 0.102584)
(9.85307e-05 6.0317e-05 0.107879)
(6.28469e-05 1.65839e-05 0.0958742)
(0.000101691 1.90592e-05 0.108487)
(4.60451e-05 -2.45354e-06 0.0942408)
(2.04809e-05 1.33585e-06 0.0837095)
(0.000109777 -4.92672e-06 0.102584)
(9.86581e-05 -6.0089e-05 0.107878)
(0.000101803 -1.88194e-05 0.108487)
(6.31809e-05 -1.71655e-05 0.0958727)
(-9.86232e-05 -6.04249e-05 0.107878)
(-6.3603e-05 -1.79083e-05 0.095874)
(-2.02395e-05 1.18053e-06 0.0837109)
(6.70275e-06 -2.08776e-06 0.0722545)
(0.000159773 -0.000159637 0.1066)
(2.994e-05 -1.33377e-05 0.0895338)
(1.3507e-05 -3.00421e-05 0.0895361)
(1.84239e-06 -6.91804e-06 0.0722554)
(4.77835e-06 -0.000109021 0.102584)
(6.01898e-05 -9.83651e-05 0.107879)
(1.88088e-05 -0.000101679 0.108487)
(1.77885e-05 -6.32898e-05 0.0958742)
(-5.66737e-06 -0.000109312 0.102585)
(-6.03046e-05 -9.84689e-05 0.107878)
(-1.89e-05 -0.000101684 0.108487)
(-1.75911e-05 -6.34881e-05 0.0958737)
(1.94491e-06 -4.63796e-05 0.0942429)
(-1.53688e-06 -2.0504e-05 0.0837104)
(-2.0518e-06 -4.69403e-05 0.0942426)
(1.57673e-06 -2.05588e-05 0.0837109)
(-0.00015959 -0.000159617 0.1066)
(-3.02978e-05 -1.41431e-05 0.0895357)
(-1.36357e-05 -3.05287e-05 0.0895339)
(-6.69527e-06 -2.03377e-06 0.0722554)
(-1.73777e-06 -6.88847e-06 0.0722555)
(-3.50844e-06 -1.6489e-06 0.0722983)
(-1.6911e-06 -3.26123e-06 0.0722976)
(1.25223e-05 1.2581e-05 0.085343)
(3.83287e-06 6.13022e-06 0.0692972)
(6.07604e-06 3.88694e-06 0.0692904)
(2.04602e-05 2.05956e-05 0.0853243)
(-1.45839e-06 1.99858e-06 0.0693296)
(1.94895e-06 -1.39135e-06 0.0693232)
(2.338e-05 2.2274e-05 0.0941842)
(1.76402e-06 2.43236e-05 0.083048)
(5.597e-05 7.92193e-05 0.0994681)
(7.79187e-07 1.99274e-05 0.0895669)
(3.49954e-05 4.9429e-05 0.0941548)
(-3.03485e-06 1.52777e-05 0.0830741)
(3.44378e-05 3.96788e-05 0.0995137)
(2.20627e-05 2.34987e-05 0.0941763)
(2.41996e-05 1.89757e-06 0.083041)
(7.93761e-05 5.5599e-05 0.0994635)
(1.96264e-05 1.21937e-06 0.0895648)
(4.93295e-05 3.50068e-05 0.0941458)
(1.51604e-05 -2.94038e-06 0.0830687)
(3.96341e-05 3.41712e-05 0.09951)
(2.54579e-06 -5.45066e-07 0.0778564)
(1.00985e-06 6.01212e-06 0.0796352)
(4.45707e-06 3.95629e-05 0.0923438)
(2.12736e-06 2.53701e-05 0.0942615)
(4.96742e-07 9.05968e-06 0.0778257)
(1.58011e-06 -3.17263e-06 0.079662)
(4.19391e-06 1.84229e-05 0.0923714)
(4.1467e-06 -2.49967e-06 0.0691574)
(4.82835e-06 2.35471e-05 0.0876438)
(-4.06568e-06 1.0559e-06 0.0837428)
(1.98517e-06 5.88289e-06 0.0691075)
(3.89804e-06 6.30535e-06 0.0876801)
(-1.97707e-06 -2.12082e-07 0.0778561)
(-7.94561e-07 6.23343e-06 0.0796351)
(-4.15796e-06 3.91152e-05 0.0923439)
(-1.81167e-06 2.48615e-05 0.0942616)
(7.81287e-08 9.4133e-06 0.0778258)
(-1.20836e-06 -3.00697e-06 0.0796619)
(-3.68776e-06 1.79235e-05 0.0923708)
(3.9301e-07 1.57916e-06 0.0778566)
(3.94175e-05 4.73494e-06 0.0923421)
(6.79942e-06 1.04134e-06 0.0796361)
(2.35739e-05 1.89152e-06 0.0942602)
(9.6555e-06 -1.82848e-07 0.0778269)
(1.76117e-05 4.06937e-06 0.0923703)
(-1.90583e-06 1.59739e-06 0.0796612)
(-2.28102e-06 3.40127e-06 0.0691591)
(2.40802e-05 4.91564e-06 0.0876436)
(1.07111e-06 -3.76239e-06 0.0837429)
(5.90925e-06 1.39702e-06 0.0691096)
(6.93154e-06 3.86737e-06 0.0876788)
(1.56453e-07 -1.35018e-06 0.0778576)
(6.7047e-06 -7.85655e-07 0.0796344)
(3.91322e-05 -4.67164e-06 0.0923417)
(2.3864e-05 -2.43063e-06 0.0942607)
(9.44849e-06 4.14504e-07 0.077824)
(-2.06369e-06 -8.45208e-07 0.0796622)
(1.80643e-05 -4.18881e-06 0.0923712)
(-2.37866e-06 -3.33485e-06 0.0691612)
(2.40456e-05 -4.68009e-06 0.0876434)
(1.05403e-06 3.7246e-06 0.0837434)
(5.87347e-06 -1.24927e-06 0.0691102)
(6.99493e-06 -3.70998e-06 0.0876801)
(-9.81792e-07 3.80867e-06 0.0837433)
(-1.64637e-06 3.44428e-06 0.0722983)
(1.11052e-05 -1.11748e-05 0.0853429)
(6.24757e-06 -4.91756e-06 0.0692869)
(4.80429e-06 -6.38035e-06 0.0692933)
(1.85684e-05 -1.85384e-05 0.0853241)
(2.06382e-06 9.8955e-07 0.0693189)
(-1.19846e-06 -2.3175e-06 0.0693257)
(2.11611e-05 -2.35105e-05 0.094177)
(2.50213e-05 -3.10935e-06 0.0830399)
(7.93851e-05 -5.43776e-05 0.0994641)
(1.96351e-05 -1.34011e-06 0.0895645)
(3.94549e-05 -3.33863e-05 0.0995106)
(4.84483e-05 -3.48067e-05 0.0941473)
(1.52339e-05 2.7362e-06 0.0830664)
(2.35753e-05 -2.10446e-05 0.0941865)
(3.01045e-06 -2.48846e-05 0.0830452)
(5.44322e-05 -7.90654e-05 0.0994677)
(1.2915e-06 -1.97597e-05 0.0895672)
(3.48714e-05 -4.81856e-05 0.0941552)
(-2.94101e-06 -1.52712e-05 0.0830734)
(3.34976e-05 -3.91439e-05 0.0995158)
(-3.79732e-06 1.499e-06 0.072298)
(2.62786e-06 1.86873e-07 0.0778583)
(4.21926e-06 -3.9066e-05 0.0923429)
(1.18648e-06 -6.41815e-06 0.0796354)
(2.10597e-06 -2.51634e-05 0.0942611)
(5.86594e-07 -9.48086e-06 0.0778243)
(4.07839e-06 -1.80507e-05 0.0923728)
(1.5281e-06 2.93017e-06 0.0796614)
(4.00844e-06 2.20717e-06 0.0691604)
(4.47619e-06 -2.34033e-05 0.0876428)
(-4.07069e-06 -1.03841e-06 0.0837439)
(1.78278e-06 -6.07992e-06 0.0691056)
(3.64805e-06 -6.26093e-06 0.0876822)
(-2.37621e-06 2.89888e-07 0.0778557)
(-4.46745e-06 -3.95691e-05 0.0923437)
(-7.49361e-07 -6.23975e-06 0.0796359)
(-1.76583e-06 -2.54836e-05 0.0942603)
(-4.1866e-07 -9.38597e-06 0.0778256)
(-4.12976e-06 -1.82831e-05 0.0923703)
(-1.35077e-06 2.97036e-06 0.0796612)
(-3.81922e-06 2.29359e-06 0.0691588)
(-4.50984e-06 -2.35031e-05 0.087645)
(4.05606e-06 -1.38648e-06 0.0837432)
(-1.75635e-06 -6.11583e-06 0.06911)
(-3.55809e-06 -6.41769e-06 0.0876801)
(-1.05613e-05 -1.06863e-05 0.0853437)
(-5.86125e-06 -5.37951e-06 0.0692924)
(-5.21669e-06 -6.05321e-06 0.0692871)
(-1.75286e-05 -1.78011e-05 0.0853229)
(-2.04049e-06 7.61858e-07 0.0693268)
(9.40118e-07 -2.10846e-06 0.0693198)
(-2.02483e-05 -2.37461e-05 0.0941873)
(-2.52645e-05 -3.83053e-06 0.0830432)
(-7.93021e-05 -5.34036e-05 0.0994663)
(-1.97338e-05 -1.96563e-06 0.0895669)
(-4.7545e-05 -3.44535e-05 0.0941535)
(-3.90949e-05 -3.26608e-05 0.099515)
(-1.50104e-05 2.63915e-06 0.0830729)
(-2.34635e-05 -2.0506e-05 0.0941783)
(-3.62292e-06 -2.57287e-05 0.083039)
(-5.33815e-05 -7.93924e-05 0.0994629)
(-1.43071e-06 -1.99554e-05 0.0895641)
(-3.41947e-05 -4.7822e-05 0.0941457)
(-3.24791e-05 -3.92889e-05 0.0995103)
(2.71358e-06 -1.52815e-05 0.0830671)
(1.54832e-06 3.77611e-06 0.0722979)
(3.85568e-06 1.46857e-06 0.0722974)
(6.16099e-05 6.16089e-05 0.108776)
(2.13785e-05 6.44268e-05 0.108989)
(6.44497e-05 2.14131e-05 0.108989)
(2.18091e-05 2.18537e-05 0.109108)
(-2.14156e-05 6.4436e-05 0.108989)
(-2.18292e-05 2.18616e-05 0.109108)
(6.15071e-05 -6.13818e-05 0.108776)
(6.44529e-05 -2.13707e-05 0.108989)
(2.13817e-05 -6.42808e-05 0.108989)
(2.18158e-05 -2.17773e-05 0.109108)
(-6.13981e-05 -6.13692e-05 0.108776)
(-2.14008e-05 -6.43472e-05 0.108989)
(-2.18353e-05 -2.17927e-05 0.109108)
(3.90596e-05 3.91576e-05 0.100777)
(-4.57288e-06 -4.8194e-06 0.106764)
(0.000152032 9.93557e-05 0.10449)
(9.94989e-05 0.000151681 0.104488)
(7.69028e-05 7.68112e-05 0.100696)
(-9.15994e-06 5.8074e-05 0.104609)
(5.80712e-05 -9.47358e-06 0.104607)
(2.54907e-05 8.04715e-06 0.106059)
(1.1719e-05 9.89011e-05 0.101335)
(9.68582e-06 0.000212981 0.106428)
(5.34564e-06 6.64214e-05 0.102662)
(2.46253e-05 0.000207367 0.105888)
(1.06157e-05 5.686e-05 0.101423)
(1.10523e-05 1.6759e-05 0.106567)
(3.9678e-05 -5.22307e-06 0.104894)
(1.66862e-05 8.08692e-05 0.0989783)
(5.03364e-05 0.000173881 0.102921)
(5.18631e-06 3.15633e-05 0.0959426)
(4.0858e-05 -6.1177e-06 0.103025)
(4.14574e-05 0.000197534 0.104717)
(1.264e-05 4.18925e-05 0.0990724)
(-2.57568e-05 7.74462e-06 0.106058)
(-1.23187e-05 9.88294e-05 0.101334)
(-1.02e-05 0.00021284 0.106428)
(-4.82558e-06 6.61766e-05 0.102661)
(-2.51217e-05 0.000207253 0.105887)
(-1.09495e-05 5.67329e-05 0.101422)
(-1.12266e-05 1.65117e-05 0.106566)
(8.12226e-06 2.57586e-05 0.106059)
(9.96552e-05 1.21592e-05 0.101333)
(0.000214086 9.93618e-06 0.106428)
(6.6313e-05 5.64875e-06 0.10266)
(0.000208477 2.44523e-05 0.105887)
(5.69761e-05 1.19357e-05 0.101421)
(1.65345e-05 1.13405e-05 0.106566)
(-4.84881e-06 3.95601e-05 0.104895)
(8.12932e-05 1.67466e-05 0.0989782)
(0.000174202 4.98466e-05 0.10292)
(3.15539e-05 5.4095e-06 0.0959419)
(-6.12861e-06 4.04422e-05 0.103024)
(0.000198235 4.10195e-05 0.104717)
(4.23126e-05 1.35657e-05 0.099071)
(8.04103e-06 -2.53534e-05 0.106059)
(0.000213816 -9.4172e-06 0.106428)
(9.9461e-05 -1.20691e-05 0.101333)
(6.6286e-05 -5.41559e-06 0.10266)
(0.000208018 -2.42219e-05 0.105888)
(1.65195e-05 -1.08393e-05 0.106566)
(5.70659e-05 -1.16505e-05 0.101422)
(-4.48455e-06 -3.88911e-05 0.104894)
(8.16684e-05 -1.67738e-05 0.0989775)
(0.000174382 -4.89372e-05 0.102919)
(3.1532e-05 -5.85471e-06 0.0959425)
(0.000198222 -4.0529e-05 0.104716)
(4.24873e-05 -1.31016e-05 0.0990721)
(-5.79496e-06 -3.98088e-05 0.103024)
(-0.000174409 -4.86356e-05 0.102921)
(-3.17379e-05 -6.65394e-06 0.0959428)
(5.62753e-06 -3.94596e-05 0.103025)
(3.81347e-05 -3.79982e-05 0.100778)
(-5.44314e-06 5.78145e-06 0.106764)
(9.87538e-05 -0.000149855 0.104489)
(0.000150035 -9.85741e-05 0.104491)
(5.75079e-05 1.08824e-05 0.104607)
(7.57124e-05 -7.55525e-05 0.100698)
(-1.06768e-05 -5.72248e-05 0.10461)
(2.53785e-05 -7.75582e-06 0.106059)
(9.72468e-06 -0.000213008 0.106428)
(1.19124e-05 -9.8854e-05 0.101333)
(4.49613e-06 -6.63105e-05 0.102661)
(2.46096e-05 -0.000207349 0.105887)
(1.08498e-05 -1.66178e-05 0.106566)
(1.06e-05 -5.6668e-05 0.101423)
(3.91442e-05 5.19332e-06 0.104894)
(1.72017e-05 -8.12793e-05 0.0989768)
(4.92257e-05 -0.000174129 0.102921)
(6.16082e-06 -3.15975e-05 0.0959434)
(4.09927e-05 -0.000197551 0.104716)
(4.00621e-05 6.0456e-06 0.103026)
(1.29383e-05 -4.20851e-05 0.0990723)
(-2.52705e-05 -8.28451e-06 0.106059)
(-9.87514e-06 -0.000213304 0.106428)
(-1.20664e-05 -9.92271e-05 0.101334)
(-5.39532e-06 -6.6622e-05 0.102661)
(-2.45513e-05 -0.000207728 0.105888)
(-1.10681e-05 -1.69436e-05 0.106566)
(-1.09044e-05 -5.70304e-05 0.101422)
(-3.87464e-05 4.7109e-06 0.104894)
(-1.69853e-05 -8.15021e-05 0.0989786)
(-4.87172e-05 -0.000174417 0.10292)
(-6.09328e-06 -3.1772e-05 0.0959421)
(-4.07714e-05 -0.000197643 0.104717)
(-1.28688e-05 -4.23015e-05 0.0990718)
(-3.9376e-05 5.45574e-06 0.103024)
(-3.72603e-05 -3.75484e-05 0.100778)
(5.91413e-06 5.89908e-06 0.106763)
(-9.83862e-05 -0.000149075 0.10449)
(-0.000149024 -9.848e-05 0.104489)
(-7.48302e-05 -7.50749e-05 0.100696)
(-5.69372e-05 1.1795e-05 0.104609)
(1.17593e-05 -5.70977e-05 0.104607)
(-0.000116298 6.94363e-05 0.105614)
(-0.000175771 -0.000175918 0.105239)
(-0.000116967 -6.98197e-05 0.105531)
(-6.98282e-05 -0.000116894 0.105531)
(-3.13658e-05 -3.13446e-05 0.105246)
(-0.000175348 0.000175338 0.10524)
(-0.000116288 -6.94725e-05 0.105614)
(-7.45021e-05 -7.44939e-05 0.105755)
(1.03576e-06 1.12771e-05 0.0744357)
(-0.000124751 4.50702e-05 0.0991159)
(-0.000119327 2.49253e-05 0.105779)
(-0.00017941 1.17224e-05 0.103699)
(-7.15726e-05 -3.12271e-05 0.0932207)
(-3.10696e-05 -7.1446e-05 0.09322)
(-0.000120136 2.50391e-05 0.105687)
(-0.000129569 1.13069e-05 0.103767)
(-0.000102537 4.69228e-06 0.0981865)
(-0.000120109 -2.50864e-05 0.105687)
(-8.6809e-05 -3.39741e-05 0.0992893)
(-0.000130162 -1.25392e-05 0.103767)
(-4.73875e-05 1.41066e-05 0.0872785)
(-0.000103781 -5.2691e-06 0.0981843)
(-2.50548e-05 -0.000120091 0.105687)
(-3.35854e-05 -8.6898e-05 0.0992882)
(-1.25427e-05 -0.000130288 0.103767)
(1.41142e-05 -4.73441e-05 0.0872781)
(-5.74148e-06 -0.000104107 0.0981849)
(-6.20547e-05 -1.87658e-05 0.0933815)
(-1.89653e-05 -6.22643e-05 0.0933776)
(-2.79929e-06 6.86648e-06 0.0745634)
(6.84258e-06 -2.66563e-06 0.0745625)
(-3.09865e-05 7.27587e-05 0.0932174)
(-7.29602e-05 3.15044e-05 0.0932233)
(-1.10435e-05 -9.62441e-07 0.074438)
(-6.55585e-05 -1.1981e-05 0.0871304)
(-0.000126654 6.22713e-06 0.0980539)
(-0.00011933 -2.49323e-05 0.105779)
(-0.000123919 -4.63433e-05 0.0991145)
(-0.000179089 -1.03136e-05 0.103699)
(-6.56714e-05 1.20583e-05 0.0871299)
(-0.000125602 -3.73262e-06 0.0980531)
(-1.17217e-05 1.15678e-06 0.0744375)
(1.1218e-06 -1.17255e-05 0.0744371)
(6.59698e-06 2.65133e-06 0.0744662)
(-0.000136588 -0.000105882 0.101983)
(-4.56382e-05 1.95371e-06 0.0860498)
(-9.81703e-05 -8.37881e-05 0.0978257)
(-0.000105982 -0.000136628 0.101986)
(1.94305e-06 -4.55198e-05 0.0860466)
(-8.40971e-05 -9.8695e-05 0.0978257)
(-3.48685e-06 -9.96032e-06 0.0714809)
(-1.01539e-05 -3.47171e-06 0.0714761)
(-5.03662e-05 -5.04824e-05 0.0891038)
(8.3118e-07 -6.35907e-06 0.0711083)
(-5.77949e-05 8.27342e-06 0.0917825)
(-7.2804e-05 9.01968e-06 0.0917902)
(1.01275e-05 -3.86867e-06 0.0711645)
(-2.11283e-05 -1.12739e-05 0.0806703)
(-0.00012779 3.17652e-06 0.0981728)
(-8.61413e-05 1.06105e-05 0.0965348)
(-3.14321e-05 2.13514e-06 0.082888)
(-0.000108098 9.60778e-06 0.0965295)
(-4.24855e-05 2.84418e-06 0.0829262)
(-9.53524e-06 -1.05015e-05 0.0806603)
(1.16906e-06 5.72338e-06 0.0711155)
(-6.78576e-05 1.18196e-05 0.0872839)
(-5.55787e-05 -8.40354e-06 0.0917786)
(-7.58588e-05 -9.00161e-06 0.0917889)
(8.71919e-06 3.10674e-06 0.0711642)
(-1.97541e-05 1.20331e-05 0.0806724)
(-0.000129336 -6.05548e-06 0.0981728)
(-3.17656e-05 -2.05109e-06 0.0828878)
(-8.75886e-05 -1.07222e-05 0.096529)
(-4.19473e-05 -1.1632e-06 0.0829266)
(-0.000112859 -1.09112e-05 0.0965288)
(-1.0604e-05 9.23377e-06 0.0806583)
(5.96592e-06 1.40026e-06 0.0711151)
(1.20835e-05 -6.7867e-05 0.0872834)
(-8.37957e-06 -5.66203e-05 0.0917781)
(-8.92066e-06 -7.60253e-05 0.0917895)
(3.05407e-06 9.09221e-06 0.0711649)
(1.21561e-05 -1.97007e-05 0.0806719)
(-5.25619e-06 -0.000128773 0.098173)
(-1.09018e-05 -8.83564e-05 0.0965295)
(-1.74351e-06 -3.15273e-05 0.0828877)
(-1.05739e-05 -0.000111734 0.0965298)
(-1.57097e-06 -4.18619e-05 0.0829262)
(9.58005e-06 -1.00024e-05 0.0806584)
(-9.81325e-05 -8.2542e-05 0.0979642)
(-9.00363e-05 -7.93602e-05 0.102095)
(-7.45726e-05 -3.21281e-05 0.0933799)
(-3.69378e-05 5.81461e-06 0.0861855)
(-6.75387e-05 -7.16739e-05 0.0979835)
(-0.000139422 -0.000103717 0.102033)
(-4.88178e-05 -2.15019e-06 0.0861812)
(-8.21418e-05 -9.75125e-05 0.0979637)
(-7.9099e-05 -8.98254e-05 0.102089)
(-3.23869e-05 -7.48048e-05 0.093379)
(6.03658e-06 -3.67912e-05 0.0861771)
(-7.12049e-05 -6.71636e-05 0.0979719)
(-0.000103585 -0.000139314 0.102035)
(-2.30153e-06 -4.91968e-05 0.0861773)
(-4.50643e-05 -4.49441e-05 0.0893027)
(2.60353e-06 -4.90376e-06 0.0715915)
(-4.88682e-06 2.65917e-06 0.0715826)
(-4.16341e-05 -4.17544e-05 0.0892665)
(-1.28435e-06 -1.28691e-05 0.0715672)
(-1.28545e-05 -1.39722e-06 0.071562)
(-1.14543e-05 1.21494e-06 0.074538)
(1.20492e-06 -1.13836e-05 0.0745375)
(-6.95057e-05 6.57242e-05 0.0978413)
(-0.000102567 0.000137561 0.101978)
(-1.96432e-06 4.76161e-05 0.0860425)
(-1.78588e-05 6.0497e-05 0.093223)
(5.4966e-06 3.63171e-05 0.0860487)
(-8.08924e-05 9.67144e-05 0.0978169)
(-7.78109e-05 8.85688e-05 0.102044)
(-6.52483e-05 6.90774e-05 0.0978365)
(-0.000137376 0.000102339 0.10199)
(-4.8168e-05 2.1707e-06 0.0860516)
(-6.01785e-05 1.79709e-05 0.0932215)
(-8.82068e-05 7.74473e-05 0.102037)
(-9.56689e-05 8.0147e-05 0.097835)
(-3.59899e-05 -5.77547e-06 0.0860503)
(-3.89846e-05 3.88313e-05 0.0890769)
(-1.28376e-05 2.74843e-06 0.0714714)
(-2.8368e-06 1.27129e-05 0.0714791)
(-4.90615e-06 -1.46797e-06 0.0714922)
(-4.28923e-05 4.29517e-05 0.0891104)
(1.49423e-06 5.03286e-06 0.0714983)
(-2.45632e-06 -6.61389e-06 0.0744642)
(8.23045e-06 -2.63353e-06 0.0710924)
(-7.50134e-05 8.81682e-06 0.0916045)
(-4.50325e-05 -1.37928e-05 0.0871277)
(-5.49334e-05 8.38931e-06 0.0915969)
(1.24488e-06 -5.56984e-06 0.0710388)
(-8.46831e-06 -9.74957e-06 0.0805146)
(-0.000101515 6.21906e-06 0.0980646)
(-0.00011089 1.12072e-05 0.0963761)
(-3.7546e-05 5.8139e-07 0.0827432)
(-8.69438e-05 1.13873e-05 0.0963762)
(-1.69977e-05 -1.2736e-05 0.0805221)
(-2.79991e-05 1.14996e-06 0.0827085)
(8.57976e-06 3.28123e-06 0.0710898)
(-7.11218e-05 -8.8491e-06 0.0916062)
(-4.51554e-05 1.4411e-05 0.0871267)
(-2.16457e-07 5.64819e-06 0.0710401)
(-5.43377e-05 -8.12247e-06 0.0915985)
(-8.49555e-06 9.92837e-06 0.0805113)
(-9.98872e-05 -4.40268e-06 0.0980655)
(-3.83075e-05 -2.25335e-06 0.082743)
(-0.000107146 -1.00385e-05 0.0963753)
(-1.90572e-05 1.12738e-05 0.0805217)
(-2.80624e-05 -2.06453e-06 0.0827079)
(-8.36853e-05 -1.05625e-05 0.0963783)
(-0.000142359 -0.00018437 0.104523)
(-0.00018419 -0.000142465 0.104525)
(-0.000132492 -0.000132711 0.102817)
(-0.000130789 -0.000130718 0.102848)
(-0.000175331 -0.000175369 0.105173)
(-9.915e-05 -1.56075e-05 0.10457)
(-1.55957e-05 -9.90473e-05 0.104568)
(-8.69466e-05 -8.693e-05 0.10293)
(-0.00014264 -0.000182425 0.104487)
(-0.000182359 -0.000142543 0.104488)
(-8.50501e-05 8.52308e-05 0.1029)
(-0.00018243 0.000141913 0.104522)
(-0.000141731 0.000182471 0.104526)
(-3.00154e-05 3.00425e-05 0.105314)
(-9.78412e-05 1.43002e-05 0.104605)
(-0.000129315 0.000129474 0.102818)
(-1.44751e-05 9.82477e-05 0.104609)
(-7.51409e-05 2.48077e-05 0.105791)
(-2.52069e-05 2.52023e-05 0.105796)
(-7.51972e-05 -2.48124e-05 0.105791)
(-2.48038e-05 -7.51854e-05 0.105791)
(-2.52131e-05 -2.52206e-05 0.105796)
(-3.19851e-05 5.55846e-05 0.104665)
(-0.000238799 7.93578e-05 0.103768)
(-0.000153068 4.60484e-05 0.101652)
(-8.49381e-05 3.19926e-05 0.0991905)
(-0.000246417 5.70719e-05 0.104551)
(-2.44993e-05 6.90895e-05 0.103868)
(-0.000104102 4.40453e-05 0.101746)
(-4.99242e-05 3.27037e-05 0.105068)
(-0.000128627 1.30657e-05 0.103779)
(-0.000172373 3.06887e-05 0.103136)
(-0.000237323 1.25304e-05 0.105144)
(-0.000241137 3.19213e-05 0.104975)
(-0.000121552 3.2192e-05 0.103223)
(-5.68156e-05 1.37707e-05 0.105221)
(-0.000245373 5.83364e-05 0.104512)
(-0.000105744 4.61339e-05 0.101806)
(-3.2709e-05 5.66217e-05 0.104623)
(-0.000154091 4.85373e-05 0.101713)
(-0.000239891 3.20846e-05 0.104919)
(-0.000180853 9.91231e-06 0.103689)
(-0.000121666 3.23452e-05 0.103236)
(-5.796e-05 1.34081e-05 0.105155)
(-5.0416e-05 3.29543e-05 0.105009)
(-0.000172828 3.00061e-05 0.10315)
(-0.00023684 1.23404e-05 0.10508)
(-0.000246752 -5.73534e-05 0.104512)
(-2.59174e-05 -7.01202e-05 0.103856)
(-0.000126736 -4.7009e-05 0.0992137)
(-0.000105598 -4.56122e-05 0.101807)
(-0.000155184 -4.71338e-05 0.101713)
(-0.000239974 -8.01154e-05 0.103754)
(-3.30776e-05 -5.61524e-05 0.104623)
(-0.000241144 -3.1963e-05 0.104919)
(-0.000181464 -1.19314e-05 0.103689)
(-5.81092e-05 -1.37306e-05 0.105154)
(-0.000122717 -3.21902e-05 0.103236)
(-0.000237346 -1.26223e-05 0.10508)
(-0.000174513 -3.09487e-05 0.10315)
(-5.09243e-05 -3.28122e-05 0.105009)
(-5.74035e-05 -0.000246576 0.104511)
(-6.99703e-05 -2.5945e-05 0.103855)
(-4.69399e-05 -0.000126876 0.0992133)
(-4.54349e-05 -0.000105823 0.101806)
(-4.74792e-05 -0.000155181 0.101713)
(-8.00014e-05 -0.000239942 0.103754)
(-5.60719e-05 -3.3306e-05 0.104623)
(-3.19728e-05 -0.000240906 0.104918)
(-1.1203e-05 -0.000181258 0.103688)
(-1.36996e-05 -5.8322e-05 0.105155)
(-3.22969e-05 -0.000122865 0.103236)
(-1.24858e-05 -0.000237305 0.105079)
(-3.08982e-05 -0.000174064 0.10315)
(-3.28142e-05 -5.12055e-05 0.105009)
(-3.09202e-05 -5.63531e-05 0.104665)
(-0.000238517 -8.06746e-05 0.103765)
(-0.000152084 -4.71077e-05 0.101652)
(-8.49573e-05 -3.23047e-05 0.0991903)
(-2.39714e-05 -6.99245e-05 0.10387)
(-0.000245389 -5.77959e-05 0.10455)
(-0.000103602 -4.50108e-05 0.101746)
(-4.87716e-05 -3.28264e-05 0.105068)
(-0.00012788 -1.10908e-05 0.103779)
(-0.000236893 -1.24369e-05 0.105144)
(-0.000171343 -2.97996e-05 0.103135)
(-5.64183e-05 -1.34069e-05 0.105221)
(-0.000240122 -3.19847e-05 0.104975)
(-0.000119974 -3.16959e-05 0.103222)
(-0.000113924 6.82808e-05 0.105938)
(-2.74482e-05 6.4747e-05 0.092615)
(-2.59523e-05 6.07552e-05 0.0923325)
(-0.000116405 -2.44182e-05 0.106138)
(-0.000115132 -6.04534e-06 0.0975678)
(-0.00011278 6.77724e-05 0.106095)
(-0.000115041 -2.41331e-05 0.106314)
(-5.2762e-05 1.06403e-05 0.0862856)
(-7.3128e-05 7.30381e-05 0.106135)
(6.94175e-05 -0.000116228 0.105615)
(-7.2407e-05 7.23852e-05 0.106322)
(6.82744e-05 -0.000113897 0.105938)
(-0.000174467 -0.000174761 0.105491)
(2.65617e-05 2.67065e-05 0.105511)
(-6.95509e-05 0.000116389 0.105614)
(6.86331e-05 0.000114571 0.105858)
(-2.90328e-05 7.93435e-05 0.0988892)
(-1.53647e-05 5.49198e-05 0.0927701)
(0.000116292 -6.9492e-05 0.105614)
(0.000114508 6.85967e-05 0.105859)
(0.000114529 -6.85976e-05 0.105859)
(-0.000114586 6.86094e-05 0.105859)
(-0.000117118 -2.45391e-05 0.106049)
(-9.23005e-05 -6.35318e-06 0.0977008)
(0.000175734 -0.000175645 0.105239)
(2.61544e-05 -2.61438e-05 0.105512)
(-6.94157e-05 -0.000116211 0.105615)
(6.84911e-05 -0.000114479 0.105859)
(-6.8638e-05 -0.000114453 0.105859)
(-2.59615e-05 -2.62509e-05 0.105511)
(-1.65554e-06 6.52123e-06 0.0741872)
(0.000175462 0.000175516 0.105491)
(6.83307e-05 0.00011395 0.105938)
(-4.0953e-05 0.0001159 0.0987112)
(-3.88247e-05 0.000111297 0.0985065)
(0.00011385 6.82395e-05 0.105938)
(0.000113951 -6.83312e-05 0.105938)
(0.000175017 -0.000175192 0.105491)
(-6.84432e-05 -0.000113993 0.105938)
(-1.43753e-06 6.28809e-06 0.0740162)
(-0.000174677 -0.000174715 0.105609)
(-1.03581e-05 4.16208e-07 0.0739009)
(7.42405e-07 1.0677e-05 0.074067)
(6.13204e-06 1.92647e-06 0.0740176)
(-0.000116428 2.43298e-05 0.106138)
(-0.00017059 1.0188e-05 0.103718)
(-0.000115771 4.12876e-05 0.098712)
(-0.000113441 6.81921e-05 0.106017)
(-0.000115749 2.42876e-05 0.106226)
(-0.000117949 1.2483e-05 0.103797)
(-7.525e-05 2.59671e-05 0.0986834)
(-0.000175208 0.000174893 0.105491)
(-6.48956e-05 2.73765e-05 0.0926176)
(-1.3612e-05 5.10697e-05 0.0924832)
(-2.39721e-05 2.39275e-05 0.105636)
(-5.08435e-05 1.35109e-05 0.0924793)
(-1.08615e-05 -8.48024e-07 0.0740684)
(-1.75692e-06 -6.19156e-06 0.0740153)
(5.14406e-07 1.06711e-05 0.0738988)
(-0.000175158 0.000174747 0.105608)
(-6.08004e-05 2.55039e-05 0.0923346)
(-1.06901e-05 -5.4132e-07 0.0739006)
(-0.000113651 4.65845e-06 0.0975686)
(-5.67972e-05 -1.1339e-05 0.0865528)
(-8.62158e-05 5.96055e-06 0.0974545)
(-3.43254e-05 -1.30713e-05 0.0864224)
(-0.000171207 -1.1719e-05 0.103718)
(-0.000115747 -2.43293e-05 0.106226)
(-0.000114004 -6.83672e-05 0.105938)
(-0.000113353 -6.80354e-05 0.106017)
(-7.56459e-05 -2.61402e-05 0.0986841)
(-0.000116059 -4.08723e-05 0.0987117)
(-0.000117519 -1.1489e-05 0.103797)
(-3.4011e-05 1.32611e-05 0.0864221)
(-5.68617e-05 1.12175e-05 0.0865529)
(-8.55374e-05 -5.64208e-06 0.0974553)
(-0.000115062 2.4064e-05 0.106314)
(-0.000166529 1.08412e-05 0.103712)
(-0.000111014 3.83069e-05 0.0985074)
(-0.000107891 5.02243e-06 0.0973227)
(-5.30058e-05 -1.05898e-05 0.0862854)
(-0.000112788 -6.7684e-05 0.106095)
(-0.000111869 -3.82105e-05 0.0985068)
(-0.000166725 -1.13794e-05 0.103712)
(-0.000108902 -6.18795e-06 0.0973232)
(5.75216e-06 9.66993e-05 0.0979463)
(4.74172e-06 0.000126693 0.0980526)
(-1.40515e-05 4.26946e-05 0.0869791)
(6.55012e-06 2.22222e-06 0.0743702)
(9.71774e-05 5.40857e-06 0.0979447)
(4.26509e-05 -1.39538e-05 0.0869787)
(-7.38598e-05 -2.44972e-05 0.106186)
(7.40939e-05 7.41039e-05 0.105851)
(-7.41711e-05 7.41053e-05 0.105851)
(7.41565e-05 -7.42043e-05 0.105851)
(-7.41918e-05 -7.41777e-05 0.105851)
(7.30627e-05 7.3096e-05 0.106135)
(7.30469e-05 -7.30963e-05 0.106135)
(-0.000125454 1.09789e-05 0.103788)
(-0.000115744 6.92009e-05 0.105697)
(-8.29133e-05 3.1776e-05 0.0990902)
(-0.000118587 2.47717e-05 0.10587)
(1.14586e-05 1.00621e-06 0.0744368)
(2.31367e-06 6.62239e-06 0.0743678)
(1.16126e-05 -0.000125935 0.103788)
(2.49686e-05 -0.000119321 0.105779)
(4.5231e-05 -0.000124154 0.0991152)
(6.91998e-05 -0.000115693 0.105697)
(1.08103e-05 -0.000179106 0.103699)
(2.479e-05 -0.000118567 0.10587)
(3.16949e-05 -8.31497e-05 0.0990911)
(-2.86447e-05 -2.86455e-05 0.105381)
(-5.88804e-05 -1.69852e-05 0.0930689)
(-1.71534e-05 -5.90856e-05 0.0930649)
(5.31853e-06 8.61078e-05 0.0974554)
(-1.12486e-05 5.67185e-05 0.0865531)
(5.97144e-06 0.000113436 0.0975683)
(-1.31447e-05 3.4236e-05 0.0864227)
(8.7316e-05 5.47329e-06 0.0974542)
(5.67798e-05 -1.13279e-05 0.0865529)
(0.000113195 5.60761e-06 0.0975683)
(3.42058e-05 -1.30101e-05 0.0864221)
(-7.35269e-05 -2.44243e-05 0.106283)
(7.27813e-05 7.27694e-05 0.106229)
(7.27694e-05 -7.27564e-05 0.106229)
(1.1068e-05 6.83187e-07 0.0740677)
(1.41035e-06 6.1174e-06 0.0740151)
(1.24968e-05 -0.000117953 0.103798)
(2.4412e-05 -0.00011639 0.106138)
(4.12322e-05 -0.000115738 0.0987124)
(6.78595e-05 -0.000113223 0.106017)
(1.06279e-05 -0.000170995 0.103718)
(2.43028e-05 -0.000115707 0.106226)
(2.58617e-05 -7.59266e-05 0.0986849)
(-2.41456e-05 -2.41342e-05 0.105636)
(-5.18558e-05 -1.35173e-05 0.0924817)
(-6.47791e-05 -2.76409e-05 0.092617)
(-2.78643e-05 -6.48824e-05 0.0926153)
(-1.33405e-05 -5.18203e-05 0.0924789)
(-6.67892e-06 2.13608e-06 0.0743694)
(2.16401e-06 -6.63378e-06 0.0743677)
(2.93656e-05 2.92321e-05 0.105381)
(1.66723e-05 5.85583e-05 0.0930685)
(5.83297e-05 1.66231e-05 0.0930653)
(-6.44791e-06 1.99227e-06 0.0741875)
(-9.80174e-07 1.08865e-05 0.0742478)
(1.99236e-06 -6.28901e-06 0.0741856)
(1.09126e-05 -1.08435e-06 0.0742466)
(0.000175498 0.000175305 0.105368)
(1.49346e-05 5.44005e-05 0.09277)
(5.42694e-05 1.47625e-05 0.0927667)
(2.94725e-05 6.91022e-05 0.0929128)
(6.90552e-05 2.95193e-05 0.0929105)
(-5.05599e-06 9.60953e-05 0.0979455)
(1.18114e-05 6.5497e-05 0.087129)
(-5.26211e-06 0.00012676 0.0980531)
(1.42443e-05 4.28436e-05 0.0869789)
(1.23081e-05 0.000125303 0.103788)
(2.4853e-05 0.000119339 0.105779)
(6.92318e-05 0.000115741 0.105697)
(1.0982e-05 0.000179592 0.103699)
(3.10057e-05 8.27096e-05 0.0990911)
(2.48955e-05 0.000118602 0.105869)
(-1.18398e-05 0.000125137 0.103788)
(-4.56418e-05 0.00012455 0.0991132)
(-2.48865e-05 0.000119332 0.105779)
(-6.92683e-05 0.000115734 0.105697)
(-1.11567e-05 0.000179588 0.103699)
(-3.11224e-05 8.31073e-05 0.0990902)
(-2.48285e-05 0.000118613 0.105869)
(5.31407e-06 0.000120242 0.0978119)
(-1.35778e-05 3.83117e-05 0.086694)
(-1.18222e-05 6.0961e-05 0.0868344)
(5.98299e-06 9.08239e-05 0.0977019)
(1.374e-05 3.84083e-05 0.0866939)
(-5.31702e-06 0.000119775 0.0978128)
(1.18271e-05 6.1005e-05 0.0868331)
(-5.28563e-06 9.07746e-05 0.0977006)
(1.12555e-05 0.000174815 0.103713)
(6.88026e-05 0.000115126 0.105778)
(2.84615e-05 7.91939e-05 0.0988895)
(2.45661e-05 0.000117122 0.106049)
(4.33264e-05 0.00012002 0.0989145)
(2.46335e-05 0.000117848 0.10596)
(1.21127e-05 0.000121575 0.103799)
(-6.86299e-05 0.000114554 0.105859)
(-1.09889e-05 0.000174638 0.103713)
(-6.89475e-05 0.000115173 0.105778)
(-2.45153e-05 0.000117119 0.106049)
(-4.28436e-05 0.000120122 0.0989131)
(-2.46306e-05 0.000117857 0.10596)
(-1.19332e-05 0.000121606 0.103799)
(-2.91355e-05 2.90496e-05 0.105381)
(-1.70839e-05 5.87615e-05 0.0930676)
(-5.86757e-05 1.67065e-05 0.0930657)
(-2.31347e-06 -6.73577e-06 0.0743685)
(6.36254e-06 2.06717e-06 0.0741885)
(9.41959e-07 1.08146e-05 0.0742453)
(-2.6427e-05 2.62327e-05 0.105512)
(-5.46434e-05 1.5008e-05 0.0927646)
(-0.000175414 0.000175356 0.105368)
(-2.91306e-05 6.85887e-05 0.0929087)
(-6.89438e-05 2.94063e-05 0.0929146)
(-2.02066e-06 -6.48434e-06 0.0741862)
(-1.09077e-05 -9.14328e-07 0.0742471)
(0.000125749 1.20616e-05 0.103788)
(0.00011565 6.91936e-05 0.105697)
(8.26322e-05 3.0834e-05 0.09909)
(0.000118574 2.48508e-05 0.10587)
(9.73847e-05 -5.27409e-06 0.0979451)
(6.5615e-05 1.17442e-05 0.0871294)
(0.000126132 -5.3618e-06 0.0980523)
(4.27512e-05 1.42116e-05 0.0869781)
(0.000125727 -1.18443e-05 0.103788)
(0.00011933 -2.49397e-05 0.105779)
(0.000124048 -4.55431e-05 0.0991138)
(0.000115756 -6.92536e-05 0.105697)
(0.000179343 -1.13846e-05 0.1037)
(0.000118596 -2.47788e-05 0.10587)
(8.31967e-05 -3.11215e-05 0.0990897)
(0.000119657 5.21369e-06 0.0978121)
(3.84607e-05 -1.37102e-05 0.0866929)
(6.08631e-05 -1.17614e-05 0.0868346)
(9.16369e-05 5.46745e-06 0.0977006)
(0.000174766 1.10182e-05 0.103714)
(0.000115041 6.8808e-05 0.105778)
(7.92569e-05 2.84316e-05 0.098888)
(0.000117103 2.45101e-05 0.106049)
(0.000119976 4.34818e-05 0.0989146)
(0.000117814 2.4579e-05 0.10596)
(0.000121864 1.18051e-05 0.103798)
(0.000119859 -5.42379e-06 0.0978113)
(3.82433e-05 1.3694e-05 0.0866931)
(6.11204e-05 1.16757e-05 0.0868335)
(9.1796e-05 -5.59304e-06 0.0977009)
(0.000174837 -1.11484e-05 0.103714)
(0.000115081 -6.88492e-05 0.105778)
(0.000117096 -2.45168e-05 0.106049)
(7.97388e-05 -2.88692e-05 0.0988879)
(0.000117827 -2.47272e-05 0.10596)
(0.000119701 -4.30427e-05 0.0989136)
(0.000121881 -1.19556e-05 0.103798)
(-9.65888e-05 4.12271e-06 0.0979449)
(-4.27472e-05 -1.42651e-05 0.0869793)
(-0.000126143 -1.28896e-05 0.103788)
(-0.00011574 -6.92064e-05 0.105697)
(-0.000118579 -2.48009e-05 0.105869)
(-8.33856e-05 -3.0968e-05 0.0990907)
(-9.83312e-05 -6.36818e-06 0.0979439)
(-4.26746e-05 1.40012e-05 0.0869786)
(-0.000117108 2.45359e-05 0.106049)
(-0.000121882 1.17893e-05 0.103798)
(-7.89096e-05 2.86723e-05 0.0988876)
(-0.00017464 1.05687e-05 0.103714)
(-0.000115135 6.88603e-05 0.105778)
(-0.000120268 4.33832e-05 0.0989152)
(-0.000117863 2.4659e-05 0.10596)
(-9.13113e-05 4.95685e-06 0.0977005)
(-3.84202e-05 -1.35422e-05 0.0866938)