/*--------------------------------*- C++ -*----------------------------------*\
| =========                 |                                                 |
| \\      /  F ield         | OpenFOAM: The Open Source CFD Toolbox           |
|  \\    /   O peration     | Version:  v2012                                 |
|   \\  /    A nd           | Website:  www.openfoam.com                      |
|    \\/     M anipulation  |                                                 |
\*---------------------------------------------------------------------------*/
FoamFile
{
    version     2.0;
    format      ascii;
    class       volScalarField;
    location    "462.5";
    object      p;
}
// * * * * * * * * * * * * * * * * * * * * * * * * * * * * * * * * * * * * * //

dimensions      [0 2 -2 0 0 0 0];


internalField   nonuniform List<scalar> 
171728
(
0.00352
0.00351894
0.00351896
0.00351975
0.00348435
0.00348293
0.00348294
0.00348582
0.00344597
0.00344412
0.00344399
0.00344651
0.00340182
0.00340021
0.00340008
0.00340245
0.00335362
0.00335223
0.00335211
0.00335459
0.00330477
0.00330351
0.00330347
0.00330588
0.00325662
0.00325543
0.00325538
0.00325787
0.00320936
0.00320835
0.00320826
0.00321076
0.00316301
0.00316211
0.00316201
0.00316445
0.00311763
0.00311681
0.0031167
0.00311909
0.00307327
0.00307257
0.00307261
0.00307492
0.00302965
0.00302911
0.00302912
0.00303154
0.00298645
0.00298587
0.00298584
0.00298811
0.00294372
0.00294322
0.00294334
0.00294558
0.00290143
0.00290109
0.00290115
0.00290333
0.00285932
0.0028592
0.00285908
0.00286132
0.00281754
0.00281735
0.0028173
0.00281954
0.00277617
0.00277603
0.00277588
0.00277817
0.0027352
0.00273526
0.00273494
0.00273723
0.00269452
0.00269439
0.00269425
0.00269648
0.00265421
0.00265424
0.00265415
0.00265592
0.00261423
0.00261445
0.00261438
0.00261603
0.00257451
0.00257453
0.0025747
0.00257642
0.00253508
0.00253542
0.00253535
0.00253691
0.00249579
0.0024959
0.00249582
0.00249752
0.00245695
0.00245738
0.00245729
0.00245919
0.00241821
0.00241855
0.00241866
0.00242006
0.00237957
0.00237995
0.00237994
0.00238249
0.00234125
0.00234166
0.00234157
0.00234256
0.00230328
0.00230387
0.00230385
0.00230625
0.00226533
0.002266
0.00226588
0.00226766
0.00222741
0.00222794
0.00222786
0.00222968
0.00218966
0.00219005
0.00219026
0.00219208
0.00215209
0.00215275
0.00215269
0.00215457
0.00211478
0.00211533
0.00211529
0.00211719
0.00207752
0.00207803
0.00207806
0.00207984
0.00204029
0.00204079
0.00204077
0.00204272
0.00200348
0.00200392
0.00200398
0.00200575
0.0019665
0.00196674
0.00196676
0.00196884
0.00192983
0.00193041
0.00193011
0.00193207
0.00189329
0.0018932
0.00189363
0.00189549
0.00185675
0.00185689
0.00185679
0.00185896
0.00182049
0.00182094
0.00182063
0.00182259
0.00178435
0.00178397
0.00178436
0.00178641
0.00174811
0.00174819
0.00174813
0.0017502
0.00171226
0.0017123
0.00171216
0.00171424
0.00167644
0.00167622
0.0016764
0.00167839
0.0016407
0.00164065
0.00164039
0.0016426
0.00160505
0.00160484
0.00160511
0.00160696
0.00156962
0.00156941
0.00156927
0.0015715
0.00153425
0.00153402
0.00153394
0.00153594
0.00149888
0.00149864
0.00149873
0.00150074
0.00146375
0.00146337
0.00146341
0.00146541
0.0014286
0.00142836
0.0014283
0.00143039
0.0013935
0.00139329
0.00139337
0.00139522
0.00135876
0.00135842
0.00135818
0.0013602
0.00132372
0.00132354
0.00132364
0.00132573
0.00128885
0.00128832
0.0012886
0.00129037
0.00125432
0.0012542
0.00125389
0.00125583
0.0012194
0.00121953
0.00121928
0.00122136
0.0011849
0.00118425
0.00118461
0.00118647
0.00115028
0.00115007
0.00115019
0.00115199
0.0011156
0.00111547
0.00111536
0.00111723
0.00108108
0.00108089
0.0010805
0.00108276
0.00104651
0.0010465
0.00104667
0.00104834
0.00101168
0.00101127
0.00101171
0.00101358
0.000977829
0.00097752
0.000976948
0.000978937
0.0009437
0.000944015
0.000943715
0.000945705
0.000907929
0.000907371
0.000908351
0.000910151
0.000873657
0.000873734
0.000872955
0.00087521
0.00084068
0.000840945
0.000840348
0.000842125
0.000806047
0.000805255
0.000806094
0.000807964
0.000769527
0.000769095
0.000769613
0.000771458
0.000735531
0.000736173
0.000735288
0.000737475
0.000702295
0.000702321
0.000701964
0.000704139
0.000667609
0.000666707
0.000667908
0.00066926
0.00063199
0.000632048
0.000631827
0.000633828
0.000597308
0.00059749
0.000596707
0.000599325
0.000562814
0.000562718
0.00056315
0.000564761
0.000528397
0.00052836
0.000528668
0.000530313
0.000493723
0.000493409
0.000493229
0.000495496
0.000458015
0.000458015
0.000457828
0.000459915
0.000422792
0.000422798
0.000422947
0.000424785
0.00038853
0.000388569
0.000388502
0.000390422
0.000353618
0.000353391
0.000353614
0.000355534
0.000318026
0.000318072
0.00031789
0.000320051
0.000282519
0.000282294
0.000282229
0.000284133
0.000246866
0.000247008
0.000247131
0.000249169
0.000212106
0.000212279
0.000212246
0.000214195
0.000176809
0.000176347
0.00017638
0.000178295
0.000140595
0.000140642
0.000140359
0.000142717
0.000105245
0.000105429
0.000105613
0.000107476
7.01949e-05
6.98779e-05
7.00671e-05
7.18259e-05
3.43448e-05
3.38417e-05
3.34772e-05
3.5539e-05
5.76648e-06
7.00944e-06
6.8336e-06
5.14922e-06
0.00352451
0.00352205
0.00352208
0.00352457
0.00352209
0.00352204
0.00352841
0.00352839
0.00352844
0.00352834
0.00352218
0.00352216
0.0035245
0.00352204
0.00352248
0.00352458
0.00351972
0.00349057
0.00351896
0.00351892
0.00349245
0.00349245
0.00351974
0.00349059
0.00351898
0.00351899
0.00349242
0.0034924
0.00351893
0.00349237
0.00349242
0.0035197
0.00349055
0.00351894
0.00349246
0.00349226
0.00349051
0.00348581
0.00345193
0.00348294
0.00348284
0.00345421
0.0034543
0.0034858
0.00345193
0.00348296
0.00348297
0.00345427
0.00345427
0.00348292
0.00345434
0.00345434
0.00348576
0.00345192
0.00348297
0.00345422
0.00345444
0.00345202
0.0034464
0.00340858
0.00344408
0.00344408
0.00341169
0.00341171
0.00344642
0.00340862
0.00344408
0.0034441
0.00341166
0.00341166
0.00344408
0.00341165
0.00341173
0.00344637
0.00340853
0.00344423
0.00341159
0.00341177
0.0034086
0.00340239
0.00336098
0.0034001
0.00339988
0.00336437
0.00336441
0.00340243
0.00336105
0.00340014
0.00340014
0.00336437
0.00336437
0.00340011
0.00336443
0.00336437
0.00340236
0.003361
0.00340022
0.00336426
0.00336441
0.00336102
0.00335451
0.00331227
0.00335214
0.00335197
0.00331558
0.00331571
0.00335455
0.0033122
0.00335219
0.00335216
0.00331558
0.00331561
0.00335215
0.00331559
0.00331558
0.00335453
0.00331226
0.00335228
0.00331556
0.00331574
0.00331228
0.00330583
0.00326407
0.00330342
0.00330338
0.00326728
0.00326721
0.0033058
0.00326411
0.00330347
0.00330345
0.00326733
0.0032673
0.00330343
0.00326735
0.00326734
0.00330582
0.00326407
0.00330349
0.00326731
0.00326738
0.00326413
0.00325775
0.0032168
0.00325538
0.00325536
0.00321997
0.00322
0.00325781
0.00321685
0.00325542
0.00325537
0.00322
0.00321998
0.00325544
0.00322002
0.00322005
0.00325776
0.00321684
0.00325554
0.00322001
0.00322013
0.00321689
0.00321063
0.00317045
0.0032083
0.00320831
0.00317356
0.00317354
0.0032107
0.0031705
0.00320831
0.00320826
0.00317354
0.00317352
0.00320833
0.00317357
0.00317356
0.00321065
0.00317046
0.00320838
0.00317353
0.00317369
0.00317047
0.00316439
0.00312507
0.00316206
0.00316207
0.00312803
0.00312801
0.00316447
0.00312505
0.00316207
0.00316204
0.00312801
0.00312798
0.00316207
0.00312803
0.00312791
0.0031644
0.00312505
0.00316208
0.003128
0.00312809
0.00312495
0.00311917
0.00308073
0.00311681
0.00311679
0.0030835
0.00308353
0.00311917
0.00308061
0.0031168
0.00311677
0.00308349
0.0030835
0.00311669
0.00308354
0.0030835
0.00311915
0.00308068
0.00311671
0.0030835
0.00308353
0.00308063
0.00307494
0.00303702
0.00307255
0.00307252
0.00303983
0.00303993
0.00307485
0.00303705
0.00307256
0.00307257
0.00303986
0.00303992
0.00307251
0.00303995
0.00304002
0.00307492
0.00303711
0.00307262
0.00303997
0.00304008
0.00303727
0.00303135
0.00299394
0.00302904
0.00302906
0.00299672
0.00299665
0.00303138
0.00299408
0.00302903
0.00302907
0.00299672
0.00299673
0.00302913
0.00299663
0.0029967
0.00303144
0.00299394
0.00302928
0.00299669
0.00299667
0.00299371
0.00298833
0.00295123
0.00298588
0.0029859
0.00295386
0.00295366
0.0029884
0.00295131
0.0029859
0.00298586
0.00295389
0.00295385
0.0029858
0.00295363
0.00295393
0.00298829
0.00295118
0.00298579
0.00295376
0.00295384
0.00295114
0.00294568
0.00290886
0.00294329
0.00294329
0.0029116
0.00291154
0.00294579
0.00290913
0.00294331
0.0029434
0.00291162
0.00291162
0.00294324
0.00291164
0.00291162
0.00294565
0.00290882
0.00294322
0.00291158
0.00291158
0.00290881
0.00290338
0.00286677
0.00290111
0.00290104
0.00286955
0.00286957
0.00290363
0.00286696
0.00290104
0.00290117
0.00286954
0.00286966
0.00290123
0.00286965
0.00286961
0.0029034
0.00286681
0.00290115
0.00286971
0.00286962
0.00286671
0.00286129
0.00282495
0.0028591
0.00285913
0.0028277
0.00282757
0.00286148
0.00282507
0.00285909
0.00285911
0.00282769
0.00282792
0.00285933
0.00282751
0.00282771
0.00286144
0.00282503
0.00285926
0.00282803
0.00282778
0.00282485
0.00281955
0.00278357
0.0028174
0.00281739
0.00278626
0.00278625
0.00281964
0.00278342
0.00281747
0.0028173
0.00278624
0.00278654
0.00281751
0.00278624
0.00278632
0.00281966
0.00278355
0.00281754
0.00278654
0.00278637
0.00278341
0.00277822
0.00274242
0.00277606
0.00277605
0.00274527
0.00274538
0.00277817
0.00274256
0.00277607
0.00277596
0.00274523
0.00274547
0.00277614
0.00274537
0.00274533
0.00277823
0.0027425
0.00277617
0.0027454
0.00274532
0.00274244
0.00273716
0.0027016
0.00273506
0.00273523
0.00270461
0.0027045
0.00273735
0.00270164
0.00273504
0.0027351
0.00270459
0.00270471
0.00273525
0.00270444
0.00270451
0.00273722
0.00270169
0.00273525
0.00270474
0.00270446
0.00270161
0.0026964
0.00266112
0.00269446
0.00269435
0.00266426
0.00266434
0.00269637
0.00266106
0.00269444
0.00269444
0.00266424
0.00266428
0.00269461
0.00266436
0.00266409
0.00269639
0.0026612
0.00269459
0.00266448
0.00266407
0.00266111
0.00265606
0.00262104
0.00265435
0.00265419
0.0026241
0.00262421
0.00265593
0.00262096
0.00265433
0.00265428
0.00262412
0.00262417
0.00265415
0.00262421
0.00262423
0.00265599
0.00262107
0.00265413
0.00262434
0.00262429
0.00262097
0.00261594
0.00258126
0.00261425
0.00261439
0.0025846
0.00258448
0.00261605
0.00258133
0.00261427
0.00261427
0.00258461
0.00258468
0.00261435
0.00258448
0.0025846
0.00261599
0.0025814
0.00261443
0.00258466
0.00258455
0.00258132
0.00257625
0.00254196
0.00257468
0.0025745
0.00254508
0.00254518
0.00257606
0.00254215
0.00257468
0.00257462
0.00254508
0.0025452
0.00257486
0.00254516
0.00254504
0.00257635
0.00254203
0.0025749
0.00254515
0.00254498
0.00254182
0.00253708
0.00250256
0.00253539
0.00253543
0.00250569
0.00250546
0.00253719
0.00250225
0.0025354
0.00253535
0.0025057
0.00250576
0.00253531
0.00250548
0.00250562
0.00253712
0.00250258
0.00253528
0.00250571
0.00250561
0.0025026
0.00249765
0.00246379
0.00249607
0.0024959
0.00246686
0.00246696
0.00249714
0.00246442
0.00249606
0.00249591
0.00246685
0.00246691
0.00249589
0.00246694
0.00246683
0.00249752
0.00246383
0.00249584
0.00246689
0.00246675
0.00246403
0.00245885
0.00242528
0.00245717
0.00245731
0.00242819
0.00242823
0.00245941
0.0024245
0.0024572
0.00245722
0.0024282
0.00242827
0.00245731
0.00242824
0.00242821
0.002459
0.00242546
0.00245721
0.00242835
0.00242833
0.00242481
0.00242027
0.00238701
0.00241852
0.00241854
0.00238965
0.00238948
0.00241974
0.0023873
0.00241853
0.00241859
0.00238966
0.0023897
0.00241868
0.00238952
0.00238969
0.00242047
0.00238675
0.00241869
0.00238964
0.00238972
0.00238773
0.00238205
0.00234813
0.00237995
0.00237995
0.00235113
0.00235104
0.00238238
0.00234714
0.00237997
0.00238003
0.00235118
0.00235109
0.00237995
0.00235096
0.00235092
0.0023818
0.00234839
0.00237989
0.00235103
0.00235079
0.00234719
0.00234329
0.00231082
0.00234164
0.00234179
0.00231334
0.00231326
0.00234237
0.00231162
0.00234165
0.0023416
0.00231329
0.00231319
0.00234158
0.00231333
0.00231331
0.00234354
0.00231042
0.00234138
0.00231323
0.0023135
0.00231122
0.00230593
0.00227251
0.00230383
0.00230382
0.00227528
0.00227534
0.0023069
0.00227222
0.00230379
0.00230381
0.00227532
0.00227542
0.00230381
0.00227535
0.00227539
0.00230551
0.002273
0.00230408
0.00227544
0.00227544
0.00227254
0.00226762
0.00223475
0.00226578
0.00226599
0.00223745
0.00223749
0.00226736
0.00223511
0.00226582
0.00226587
0.00223741
0.00223734
0.00226588
0.00223746
0.00223744
0.00226805
0.00223452
0.00226582
0.00223731
0.00223728
0.00223464
0.00222978
0.00219713
0.00222807
0.00222798
0.00219964
0.00219945
0.00223024
0.00219673
0.00222803
0.00222789
0.00219967
0.00219967
0.00222796
0.00219944
0.00219959
0.00222964
0.00219705
0.00222782
0.00219965
0.00219963
0.00219698
0.00219221
0.00215933
0.00219017
0.00219004
0.00216192
0.00216205
0.00219176
0.00215948
0.00219023
0.00219027
0.00216195
0.00216207
0.00219017
0.00216208
0.002162
0.00219211
0.00215947
0.00219023
0.00216208
0.00216204
0.00215946
0.0021545
0.0021221
0.00215258
0.00215272
0.00212473
0.00212467
0.00215462
0.00212208
0.0021526
0.00215268
0.00212473
0.00212458
0.00215267
0.00212468
0.00212468
0.00215459
0.00212197
0.00215269
0.0021246
0.00212467
0.00212206
0.0021172
0.00208468
0.00211541
0.00211532
0.00208732
0.00208734
0.00211716
0.00208478
0.00211541
0.00211526
0.00208731
0.00208737
0.00211535
0.00208734
0.00208733
0.00211711
0.00208484
0.00211534
0.00208735
0.00208733
0.00208474
0.0020798
0.00204763
0.00207795
0.00207803
0.00205006
0.00205007
0.0020799
0.00204751
0.00207794
0.00207808
0.00205006
0.00205004
0.00207799
0.00205006
0.00205009
0.00207993
0.00204748
0.00207798
0.00205006
0.0020501
0.00204759
0.00204276
0.00201059
0.00204083
0.00204079
0.00201312
0.00201314
0.00204268
0.00201071
0.00204084
0.00204074
0.00201313
0.00201313
0.00204083
0.00201315
0.00201308
0.00204263
0.00201073
0.00204083
0.00201313
0.00201309
0.0020106
0.00200572
0.00197371
0.00200385
0.00200392
0.0019761
0.00197598
0.0020058
0.00197348
0.00200385
0.00200399
0.00197611
0.0019761
0.00200384
0.00197598
0.00197611
0.00200589
0.00197355
0.00200385
0.00197608
0.00197612
0.00197369
0.00196884
0.00193691
0.0019669
0.00196674
0.00193929
0.00193945
0.00196869
0.00193719
0.0019669
0.00196676
0.00193927
0.00193921
0.0019669
0.00193945
0.00193931
0.00196867
0.0019369
0.0019669
0.00193923
0.00193928
0.00193691
0.00193209
0.00190036
0.00193012
0.00193042
0.00190268
0.00190256
0.00193238
0.00190002
0.00193009
0.0019301
0.00190268
0.00190281
0.00193012
0.00190256
0.00190268
0.00193209
0.00190048
0.00193008
0.00190281
0.00190269
0.00190035
0.00189549
0.00186371
0.00189352
0.00189319
0.00186599
0.00186584
0.00189514
0.00186367
0.00189354
0.00189364
0.00186604
0.00186595
0.00189354
0.00186584
0.00186599
0.00189559
0.00186363
0.00189354
0.00186595
0.00186605
0.00186376
0.0018589
0.00182748
0.00185687
0.00185689
0.0018297
0.00183005
0.00185892
0.00182792
0.00185689
0.00185679
0.00182964
0.00182964
0.00185691
0.00183003
0.00182962
0.00185881
0.00182748
0.00185693
0.00182965
0.00182959
0.00182738
0.00182267
0.00179117
0.00182066
0.00182096
0.00179341
0.00179318
0.00182306
0.00179081
0.00182061
0.00182062
0.00179342
0.00179342
0.00182054
0.00179322
0.0017935
0.00182265
0.0017912
0.00182053
0.00179341
0.00179347
0.00179125
0.00178634
0.00175502
0.0017843
0.0017839
0.00175714
0.00175708
0.00178599
0.00175501
0.00178433
0.00178435
0.00175718
0.00175721
0.00178441
0.00175708
0.00175714
0.00178642
0.00175501
0.00178441
0.00175721
0.00175716
0.00175499
0.00175023
0.00171903
0.00174815
0.00174818
0.0017212
0.00172137
0.00175025
0.00171924
0.00174817
0.00174814
0.00172116
0.00172109
0.00174813
0.00172136
0.00172111
0.00175016
0.00171902
0.00174813
0.00172107
0.00172111
0.001719
0.00171424
0.00168312
0.00171221
0.00171233
0.00168522
0.00168512
0.0017144
0.001683
0.00171216
0.00171217
0.00168524
0.00168541
0.00171218
0.00168512
0.00168531
0.00171429
0.00168321
0.00171214
0.00168543
0.00168534
0.00168318
0.00167836
0.00164744
0.00167626
0.0016762
0.00164956
0.00164957
0.00167826
0.00164752
0.0016763
0.00167637
0.00164955
0.00164929
0.00167631
0.00164956
0.00164951
0.00167838
0.00164724
0.00167636
0.00164928
0.00164948
0.00164739
0.00164266
0.00161167
0.00164066
0.00164066
0.00161372
0.00161379
0.00164275
0.00161165
0.00164061
0.00164043
0.00161371
0.00161393
0.00164059
0.00161382
0.00161374
0.00164252
0.0016119
0.00164054
0.00161394
0.00161369
0.00161168
0.00160693
0.00157623
0.00160481
0.00160484
0.0015783
0.0015782
0.00160688
0.00157619
0.00160485
0.00160509
0.00157833
0.00157822
0.00160484
0.00157817
0.00157836
0.00160714
0.00157612
0.00160486
0.00157821
0.0015784
0.00157628
0.00157146
0.00154073
0.00156944
0.0015694
0.00154281
0.0015429
0.00157146
0.00154084
0.00156943
0.00156926
0.00154278
0.00154275
0.0015695
0.00154293
0.00154275
0.00157136
0.00154071
0.00156949
0.00154277
0.00154271
0.00154066
0.00153602
0.00150548
0.00153396
0.00153403
0.00150753
0.00150751
0.00153609
0.00150541
0.00153395
0.00153395
0.00150753
0.00150754
0.00153388
0.00150747
0.0015075
0.00153598
0.0015055
0.00153386
0.00150752
0.0015075
0.00150549
0.00150073
0.00147015
0.00149871
0.00149865
0.0014722
0.00147212
0.00150065
0.00147012
0.00149871
0.00149873
0.00147222
0.00147226
0.00149871
0.00147215
0.00147223
0.00150078
0.00147016
0.00149871
0.00147229
0.00147226
0.00147014
0.00146541
0.00143503
0.00146338
0.00146335
0.00143705
0.00143715
0.00146542
0.0014351
0.00146342
0.0014634
0.00143705
0.00143701
0.00146339
0.00143713
0.00143708
0.00146541
0.00143501
0.00146343
0.00143701
0.00143709
0.00143509
0.00143034
0.00140003
0.00142833
0.00142838
0.0014021
0.00140203
0.00143036
0.00139996
0.00142828
0.00142828
0.00140209
0.00140217
0.00142838
0.00140207
0.00140211
0.00143032
0.00140012
0.00142837
0.00140217
0.00140207
0.00139998
0.00139529
0.00136493
0.0013933
0.00139322
0.00136697
0.00136713
0.00139526
0.00136506
0.00139336
0.0013934
0.00136701
0.00136691
0.00139325
0.00136709
0.00136686
0.00139537
0.00136483
0.00139323
0.00136686
0.0013669
0.00136485
0.00136026
0.00133028
0.0013583
0.00135842
0.00133236
0.0013323
0.00136036
0.00133022
0.00135827
0.0013582
0.00133223
0.00133227
0.00135826
0.0013323
0.00133249
0.00136015
0.00133026
0.00135827
0.00133232
0.00133234
0.00133041
0.00132557
0.00129514
0.00132365
0.00132348
0.00129718
0.00129701
0.00132551
0.00129499
0.00132356
0.00132357
0.00129737
0.00129742
0.00132376
0.00129707
0.00129721
0.00132557
0.00129531
0.0013237
0.00129741
0.00129737
0.00129512
0.0012904
0.00126049
0.00128835
0.00128829
0.00126256
0.00126272
0.00129025
0.00126067
0.00128852
0.00128863
0.00126251
0.00126252
0.00128837
0.00126268
0.00126252
0.00129057
0.00126043
0.00128849
0.0012625
0.00126247
0.00126045
0.00125586
0.00122613
0.00125405
0.00125423
0.00122822
0.00122841
0.00125609
0.00122632
0.00125394
0.0012539
0.00122807
0.00122801
0.001254
0.0012284
0.00122812
0.00125576
0.00122593
0.00125394
0.001228
0.00122802
0.00122607
0.00122141
0.00119107
0.00121948
0.00121953
0.00119312
0.00119288
0.00122149
0.00119081
0.00121935
0.00121928
0.0011932
0.00119315
0.00121941
0.0011929
0.00119319
0.00122124
0.00119118
0.00121929
0.0011932
0.00119325
0.00119115
0.00118636
0.00115657
0.00118441
0.00118424
0.00115858
0.00115862
0.00118612
0.0011566
0.00118456
0.00118458
0.0011587
0.00115889
0.0011845
0.00115863
0.00115874
0.00118651
0.00115676
0.00118465
0.00115883
0.00115884
0.00115669
0.00115192
0.00112216
0.00114999
0.00115005
0.0011242
0.00112417
0.00115197
0.0011221
0.00115003
0.00115023
0.00112411
0.00112407
0.00115011
0.00112411
0.00112394
0.00115209
0.00112202
0.00115012
0.00112412
0.00112393
0.00112191
0.00111746
0.00108735
0.00111557
0.00111555
0.0010895
0.00108953
0.00111743
0.0010875
0.00111548
0.00111532
0.00108944
0.00108917
0.00111526
0.00108952
0.00108951
0.00111727
0.0010871
0.00111526
0.0010891
0.00108941
0.00108744
0.00108262
0.00105285
0.00108076
0.00108085
0.00105486
0.00105505
0.00108281
0.00105303
0.00108071
0.00108055
0.00105488
0.00105511
0.00108094
0.00105513
0.00105503
0.00108245
0.00105313
0.00108083
0.00105514
0.00105499
0.00105297
0.0010482
0.00101825
0.00104627
0.00104646
0.00102025
0.0010201
0.00104834
0.001018
0.0010463
0.00104662
0.00102033
0.00102053
0.0010464
0.00102008
0.00102037
0.00104852
0.00101841
0.00104643
0.0010206
0.00102055
0.00101838
0.00101352
0.000984022
0.00101153
0.00101129
0.000986015
0.000985729
0.00101326
0.00098382
0.00101162
0.00101169
0.000985997
0.000985561
0.00101157
0.000985629
0.000985522
0.00101363
0.000983511
0.00101178
0.000985459
0.000985497
0.000983506
0.000979454
0.000950181
0.000977688
0.000977601
0.000952388
0.000952821
0.000979381
0.000950782
0.000977604
0.00097711
0.000952249
0.000952126
0.000977156
0.000952819
0.000952367
0.000978898
0.000950161
0.000976982
0.000952033
0.000952052
0.000950276
0.000945411
0.000914384
0.000943506
0.000943933
0.000916446
0.000916293
0.000945905
0.000914163
0.000943441
0.000943739
0.000916611
0.000917252
0.000943851
0.000916412
0.000917018
0.000945643
0.000915159
0.000943658
0.000917535
0.00091735
0.000915038
0.000909507
0.00088
0.000907526
0.000907245
0.00088193
0.000881937
0.000909225
0.000880075
0.000907689
0.000908112
0.000881878
0.000881479
0.000908034
0.000881877
0.000881875
0.000910174
0.00087944
0.000908339
0.000881485
0.000881827
0.000879836
0.000875477
0.000847283
0.000873672
0.000873836
0.000849177
0.000849503
0.000875632
0.000847598
0.000873555
0.000873074
0.000849007
0.000848693
0.000873475
0.00084933
0.000848566
0.000874884
0.000846776
0.000873269
0.000848491
0.000848323
0.00084658
0.000842808
0.000812499
0.000840913
0.00084109
0.000814695
0.000814297
0.000842987
0.000812111
0.000840781
0.000840552
0.000814807
0.000815004
0.0008403
0.000814349
0.000814892
0.000842325
0.000812834
0.000840111
0.000815069
0.000814975
0.000812861
0.000807528
0.000775903
0.000805513
0.000805109
0.000778014
0.000777725
0.000807189
0.000775658
0.000805686
0.000805925
0.000778194
0.000778454
0.00080593
0.000777885
0.000778449
0.00080792
0.000776389
0.000806118
0.000778637
0.000778664
0.000776395
0.000771042
0.000742141
0.00076911
0.000769011
0.000743967
0.000744416
0.000770949
0.000742604
0.000769225
0.000769477
0.000743784
0.000743742
0.000769451
0.000744314
0.000743879
0.000771461
0.000741853
0.000769617
0.00074365
0.00074374
0.000741965
0.000737686
0.000709037
0.000735808
0.000736288
0.00071102
0.000711244
0.000738162
0.000709106
0.00073557
0.000735418
0.000710794
0.000710428
0.000735628
0.000711171
0.000710734
0.000737322
0.000708509
0.000735413
0.000710321
0.000710467
0.000708742
0.000704403
0.000673984
0.000702507
0.000702342
0.00067605
0.000675526
0.000704254
0.000673419
0.000702381
0.000702039
0.000676292
0.000676551
0.000702245
0.000675546
0.00067612
0.000703954
0.000674521
0.000702084
0.000676596
0.000676358
0.00067411
0.000669099
0.000638418
0.000667075
0.000666657
0.000640455
0.000640575
0.000668589
0.000638628
0.00066736
0.000667833
0.00064055
0.000640826
0.000667216
0.000640649
0.000640619
0.000669746
0.000638693
0.000667526
0.00064089
0.000640711
0.000638586
0.000633664
0.000604076
0.000631759
0.000632011
0.000606102
0.000606214
0.000633922
0.000604256
0.000631735
0.000631789
0.000605825
0.000605312
0.000631946
0.000606193
0.00060606
0.000633765
0.000603294
0.000631867
0.00060529
0.000605787
0.000604007
0.0005994
0.000569543
0.000597531
0.000597551
0.000571487
0.000571415
0.000599543
0.00056943
0.000597288
0.000596744
0.000571482
0.000571661
0.000597476
0.000571371
0.000571424
0.000598689
0.000569787
0.000597222
0.000571621
0.000571416
0.000569482
0.000564812
0.000534968
0.000562759
0.000562744
0.00053685
0.000536904
0.000564703
0.000534972
0.000562857
0.000563185
0.000537006
0.000537387
0.000562715
0.000536945
0.000536875
0.000565133
0.000535407
0.000562815
0.000537404
0.000537007
0.000534992
0.000530273
0.000500277
0.000528287
0.000528314
0.000502415
0.000502223
0.000530286
0.000500133
0.000528386
0.00052864
0.000502321
0.000502054
0.000528325
0.000502225
0.000502475
0.000530593
0.000499955
0.000528413
0.000502082
0.000502408
0.000500344
0.000495434
0.000464733
0.000493579
0.000493418
0.000466826
0.000466891
0.000495353
0.000464832
0.000493469
0.000493208
0.000466768
0.000466693
0.000493634
0.000466888
0.000466848
0.000495161
0.00046462
0.000493547
0.000466696
0.000466788
0.000464754
0.000459894
0.000429546
0.000457945
0.00045802
0.000431447
0.000431478
0.000459971
0.000429516
0.000457902
0.00045784
0.000431492
0.00043159
0.000457956
0.000431455
0.000431396
0.000459783
0.00042966
0.000457911
0.000431562
0.000431447
0.000429492
0.000424828
0.000395227
0.000422791
0.000422815
0.000397138
0.000397144
0.000424799
0.000395246
0.000422839
0.000422954
0.000397122
0.000397108
0.000422741
0.000397136
0.000397051
0.00042494
0.000395201
0.000422803
0.000397108
0.000397029
0.000395125
0.000390559
0.000360267
0.000388585
0.000388588
0.000362372
0.000362287
0.000390583
0.000360185
0.00038856
0.000388522
0.000362422
0.000362463
0.000388443
0.000362292
0.000362354
0.000390522
0.000360366
0.0003884
0.000362447
0.000362393
0.000360325
0.000355377
0.000324629
0.000353395
0.000353357
0.000326696
0.000326828
0.000355332
0.000324822
0.000353454
0.000353571
0.000326684
0.000326757
0.000353572
0.000326897
0.000327025
0.000355527
0.000324724
0.000353651
0.000326847
0.000327035
0.000324949
0.000319839
0.000289444
0.000317914
0.000318035
0.000291468
0.000291337
0.000320011
0.000289257
0.000317858
0.000317834
0.000291442
0.000291205
0.00031809
0.000291273
0.000291143
0.000319848
0.000289134
0.000318038
0.000291064
0.000291051
0.000289015
0.000284561
0.000253685
0.000282526
0.000282368
0.00025568
0.000255641
0.000284361
0.000253712
0.000282534
0.000282374
0.000255724
0.000255828
0.00028216
0.000255658
0.000255777
0.000284318
0.000253886
0.000282095
0.000255886
0.000255873
0.000253911
0.000248861
0.000218821
0.000246839
0.000246952
0.000220786
0.00022096
0.000248977
0.000219062
0.000246854
0.000247023
0.000220764
0.000220885
0.000247129
0.000221014
0.000221003
0.000249093
0.000218975
0.000247197
0.000220953
0.000220991
0.000219022
0.00021409
0.000183612
0.000212103
0.000212252
0.000185694
0.000185445
0.000214295
0.000183296
0.000212096
0.000212221
0.000185739
0.000185578
0.000212192
0.000185356
0.000185279
0.00021424
0.000183389
0.000212165
0.000185448
0.000185286
0.000183192
0.000178667
0.000147383
0.000176671
0.000176429
0.000149514
0.000149493
0.000178383
0.000147434
0.000176697
0.000176478
0.00014945
0.000149241
0.000176306
0.000149494
0.000149583
0.000178432
0.000147142
0.000176311
0.00014926
0.000149538
0.000147552
0.000142432
0.000111987
0.000140491
0.000140583
0.000113897
0.000114134
0.000142589
0.000112226
0.000140401
0.000140264
0.000113906
0.000114183
0.000140764
0.000114232
0.000114274
0.000142284
0.000112318
0.000140712
0.000114291
0.000114291
0.00011231
0.000107266
7.71798e-05
0.00010526
0.000105376
7.90855e-05
7.89067e-05
0.000107393
7.68509e-05
0.000105318
0.000105569
7.91968e-05
7.92851e-05
0.000105443
7.88299e-05
7.87788e-05
0.000107555
7.71707e-05
0.000105491
7.91635e-05
7.88483e-05
7.67822e-05
7.22469e-05
4.06136e-05
7.02142e-05
6.99797e-05
4.27697e-05
4.27703e-05
7.19064e-05
4.06554e-05
7.03005e-05
7.02139e-05
4.26943e-05
4.25207e-05
6.98315e-05
4.27457e-05
4.27026e-05
7.2133e-05
4.03592e-05
6.98622e-05
4.24955e-05
4.26279e-05
4.05549e-05
3.55505e-05
8.08999e-06
3.37624e-05
3.38431e-05
1.11435e-05
1.13828e-05
3.56425e-05
8.38567e-06
3.36691e-05
3.34871e-05
1.10655e-05
1.10375e-05
3.37896e-05
1.14536e-05
1.14006e-05
3.52859e-05
8.13954e-06
3.36916e-05
1.11332e-05
1.1344e-05
8.34677e-06
4.94262e-06
6.76612e-06
6.95135e-06
5.15555e-06
6.75298e-06
6.7399e-06
5.93998e-06
5.78062e-06
5.93752e-06
6.96766e-06
5.01419e-06
6.98887e-06
0.00353156
0.00353417
0.00353286
0.00353305
0.00356058
0.00353412
0.00356354
0.0035343
0.00356017
0.00353409
0.00353437
0.00356364
0.00354516
0.00356687
0.00356693
0.00350404
0.00351761
0.00352158
0.00349627
0.00349456
0.00349973
0.00350396
0.00351755
0.00352152
0.0034962
0.00351996
0.00352002
0.00351991
0.00349345
0.00349346
0.00349344
0.00349336
0.00350367
0.00351546
0.00352053
0.00351112
0.00352268
0.0035007
0.0035115
0.00349438
0.00349962
0.00350369
0.00352059
0.00351557
0.00351132
0.00352269
0.00351156
0.003501
0.00352147
0.00352143
0.00350832
0.00350058
0.00350049
0.00347657
0.00349057
0.00349042
0.00347447
0.00348783
0.00347344
0.00347638
0.00349058
0.0034904
0.00347445
0.00348434
0.00348433
0.00348427
0.00345606
0.00345605
0.00345606
0.00345599
0.00347423
0.00348921
0.0034828
0.0034736
0.00348759
0.0034747
0.00347349
0.00348784
0.00347348
0.00347422
0.0034828
0.0034892
0.00347353
0.00348754
0.00347346
0.00347483
0.00349093
0.00349087
0.00347207
0.00347509
0.00347523
0.00343388
0.00344867
0.00344978
0.00343254
0.00344749
0.00343167
0.00343395
0.00344866
0.00344954
0.00343257
0.003446
0.00344601
0.00344592
0.0034134
0.00341341
0.00341337
0.00341331
0.00343272
0.00344829
0.00344408
0.00343374
0.00344721
0.00343304
0.00343363
0.00344745
0.00343176
0.00343269
0.00344409
0.00344824
0.00343375
0.00344717
0.00343361
0.0034331
0.00344903
0.00344903
0.00343101
0.00343302
0.00343304
0.00338766
0.00340395
0.00340537
0.00338609
0.00340338
0.00338521
0.00338746
0.00340393
0.00340544
0.00338603
0.00340182
0.00340181
0.00340174
0.00336582
0.00336585
0.00336585
0.00336579
0.00338672
0.00340381
0.00340013
0.00338846
0.00340323
0.00338676
0.00338839
0.00340328
0.00338551
0.00338664
0.00340009
0.00340389
0.00338838
0.00340318
0.00338833
0.00338675
0.00340416
0.00340405
0.00338515
0.00338615
0.00338623
0.00333884
0.00335562
0.00335687
0.0033374
0.00335569
0.00333633
0.00333855
0.0033556
0.00335695
0.00333735
0.00335363
0.00335365
0.00335357
0.00331694
0.0033169
0.00331693
0.00331689
0.00333813
0.00335568
0.00335217
0.00334003
0.00335531
0.00333802
0.00333998
0.00335524
0.00333704
0.00333812
0.00335216
0.0033553
0.0033399
0.00335528
0.00333998
0.00333788
0.00335573
0.00335569
0.00333666
0.00333751
0.00333742
0.0032894
0.00330672
0.00330752
0.00328854
0.0033065
0.00328881
0.00328947
0.00330676
0.00330774
0.00328858
0.00330474
0.00330477
0.00330471
0.00326857
0.00326858
0.00326855
0.0032685
0.00328941
0.00330678
0.00330346
0.00329138