/*--------------------------------*- C++ -*----------------------------------*\
| =========                 |                                                 |
| \\      /  F ield         | OpenFOAM: The Open Source CFD Toolbox           |
|  \\    /   O peration     | Version:  v2012                                 |
|   \\  /    A nd           | Website:  www.openfoam.com                      |
|    \\/     M anipulation  |                                                 |
\*---------------------------------------------------------------------------*/
FoamFile
{
    version     2.0;
    format      ascii;
    class       volScalarField;
    location    "450";
    object      epsilon;
}
// * * * * * * * * * * * * * * * * * * * * * * * * * * * * * * * * * * * * * //

dimensions      [0 2 -3 0 0 0 0];


internalField   nonuniform List<scalar> 
171728
(
2.03194e-09
7.37146e-09
4.05939e-09
5.10586e-09
1.9954e-09
7.41759e-09
3.8315e-09
5.09955e-09
1.92216e-09
7.45822e-09
3.58986e-09
5.5036e-09
1.85923e-09
7.6073e-09
3.35773e-09
5.84118e-09
1.80336e-09
7.75289e-09
3.1377e-09
5.02629e-09
1.75191e-09
7.70317e-09
2.94261e-09
3.97278e-09
1.70529e-09
6.03691e-09
2.77375e-09
3.5263e-09
1.66255e-09
4.4282e-09
2.64084e-09
3.08679e-09
1.62326e-09
3.62392e-09
2.52983e-09
2.76535e-09
1.58708e-09
3.21001e-09
2.45501e-09
2.6077e-09
1.55389e-09
2.86799e-09
2.42074e-09
2.51868e-09
1.5235e-09
2.58217e-09
2.43349e-09
2.48801e-09
1.49597e-09
2.38804e-09
2.49594e-09
2.49319e-09
1.47138e-09
2.36138e-09
2.61315e-09
2.54587e-09
1.44977e-09
2.47526e-09
2.80675e-09
2.67118e-09
1.43124e-09
2.79348e-09
3.11295e-09
2.91405e-09
1.41567e-09
3.28123e-09
3.56454e-09
3.34745e-09
1.40491e-09
4.03817e-09
4.30328e-09
4.01785e-09
1.39989e-09
5.2414e-09
5.50597e-09
5.46131e-09
1.39943e-09
6.48952e-09
7.11808e-09
7.54918e-09
1.41224e-09
1.02331e-08
1.06963e-08
1.22667e-08
1.43407e-09
1.16457e-08
1.25576e-08
1.80809e-08
1.47799e-09
1.8956e-08
1.76189e-08
3.05114e-08
1.53617e-09
2.252e-08
2.51934e-08
4.30511e-08
1.65717e-09
3.75232e-08
3.44819e-08
1.18055e-07
1.77863e-09
3.82971e-08
4.56785e-08
9.27122e-08
2.03375e-09
6.7478e-08
5.68639e-08
1.91065e-07
2.36837e-09
7.32398e-08
7.74629e-08
2.23381e-07
2.74717e-09
1.07614e-07
9.69967e-08
2.88873e-07
3.46739e-09
1.15418e-07
1.16109e-07
3.69614e-07
4.17966e-09
1.40976e-07
1.46644e-07
4.47703e-07
5.16458e-09
1.73654e-07
1.73203e-07
5.17355e-07
6.98611e-09
2.06856e-07
2.05435e-07
5.95301e-07
8.30665e-09
2.41465e-07
2.42785e-07
6.5325e-07
1.10306e-08
2.75821e-07
2.77919e-07
7.09695e-07
1.4074e-08
3.26203e-07
3.25623e-07
7.62148e-07
1.79144e-08
3.56955e-07
3.64807e-07
8.05408e-07
2.22134e-08
4.18396e-07
4.05509e-07
8.46666e-07
2.90033e-08
4.58817e-07
4.62974e-07
8.84994e-07
3.47344e-08
4.87825e-07
4.97212e-07
9.16418e-07
4.45872e-08
5.6602e-07
5.55755e-07
9.50931e-07
5.379e-08
6.0153e-07
5.9928e-07
9.82392e-07
6.49236e-08
6.39577e-07
6.50148e-07
1.00951e-06
8.01923e-08
7.04512e-07
6.93886e-07
1.04088e-06
9.35995e-08
7.36061e-07
7.48497e-07
1.0682e-06
1.1325e-07
7.8741e-07
7.74958e-07
1.09471e-06
1.30029e-07
8.24619e-07
8.34729e-07
1.11974e-06
1.54296e-07
8.69484e-07
8.68134e-07
1.15337e-06
1.76452e-07
9.03032e-07
9.01583e-07
1.16785e-06
2.02452e-07
9.43445e-07
9.41969e-07
1.2003e-06
2.31371e-07
9.65813e-07
9.72728e-07
1.21886e-06
2.56338e-07
1.00464e-06
9.98152e-07
1.24486e-06
2.90716e-07
1.031e-06
1.03612e-06
1.26682e-06
3.21119e-07
1.05482e-06
1.04737e-06
1.2711e-06
3.47026e-07
1.08004e-06
1.08451e-06
1.31695e-06
3.89024e-07
1.0916e-06
1.10191e-06
1.32041e-06
4.10408e-07
1.12469e-06
1.12042e-06
1.33344e-06
4.46481e-07
1.15031e-06
1.13649e-06
1.3557e-06
4.73399e-07
1.15198e-06
1.16203e-06
1.36899e-06
5.02684e-07
1.17476e-06
1.17457e-06
1.38523e-06
5.25682e-07
1.18727e-06
1.19386e-06
1.38863e-06
5.58509e-07
1.20614e-06
1.19898e-06
1.41369e-06
5.75716e-07
1.22623e-06
1.22621e-06
1.42134e-06
5.98412e-07
1.22339e-06
1.23387e-06
1.43277e-06
6.23748e-07
1.24302e-06
1.23515e-06
1.43273e-06
6.44952e-07
1.27162e-06
1.26669e-06
1.4693e-06
6.53849e-07
1.24949e-06
1.27038e-06
1.46002e-06
6.69173e-07
1.26753e-06
1.25993e-06
1.46244e-06
6.98677e-07
1.30358e-06
1.28977e-06
1.48424e-06
7.13011e-07
1.28789e-06
1.29935e-06
1.50478e-06
7.14262e-07
1.26932e-06
1.28659e-06
1.47867e-06
7.25841e-07
1.31021e-06
1.28944e-06
1.48924e-06
7.4699e-07
1.31773e-06
1.30295e-06
1.51134e-06
7.5977e-07
1.30381e-06
1.32313e-06
1.52003e-06
7.64602e-07
1.31002e-06
1.31572e-06
1.5085e-06
7.71433e-07
1.31022e-06
1.2978e-06
1.51303e-06
7.77052e-07
1.30762e-06
1.31354e-06
1.5077e-06
7.87315e-07
1.32259e-06
1.32779e-06
1.52456e-06
7.97264e-07
1.32225e-06
1.32333e-06
1.53975e-06
7.96178e-07
1.3106e-06
1.30702e-06
1.52127e-06
7.9484e-07
1.30473e-06
1.30505e-06
1.51099e-06
8.02334e-07
1.32024e-06
1.31897e-06
1.52485e-06
8.0493e-07
1.31514e-06
1.32033e-06
1.53049e-06
8.02434e-07
1.31178e-06
1.30765e-06
1.53106e-06
8.00864e-07
1.29702e-06
1.29729e-06
1.50729e-06
7.96771e-07
1.29416e-06
1.29617e-06
1.51476e-06
7.9921e-07
1.30434e-06
1.3062e-06
1.52312e-06
7.99925e-07
1.29258e-06
1.29467e-06
1.50809e-06
7.90626e-07
1.28141e-06
1.27705e-06
1.50796e-06
7.8644e-07
1.28159e-06
1.28485e-06
1.50871e-06
7.87041e-07
1.27791e-06
1.28307e-06
1.5049e-06
7.7899e-07
1.264e-06
1.25734e-06
1.48868e-06
7.71325e-07
1.25776e-06
1.25283e-06
1.48354e-06
7.64841e-07
1.24113e-06
1.24565e-06
1.46706e-06
7.48064e-07
1.19436e-06
1.19999e-06
1.45156e-06
4.95137e-09
4.3183e-09
4.15766e-09
4.92999e-09
4.1465e-09
4.23205e-09
2.00553e-09
2.3394e-09
1.974e-09
3.34702e-09
5.49616e-09
4.21754e-09
5.0286e-09
4.12386e-09
1.01357e-08
5.15858e-09
4.91744e-09
4.51551e-09
4.82808e-09
4.69229e-09
4.5071e-09
4.3896e-09
4.87536e-09
4.57938e-09
6.4591e-09
4.84724e-09
5.95447e-09
4.54898e-09
4.76421e-09
7.40854e-09
4.46066e-09
5.00714e-09
4.57504e-09
1.55626e-08
3.89479e-09
1.67279e-08
5.1295e-09
4.47948e-09
4.12477e-09
4.39703e-09
4.28288e-09
4.0814e-09
3.99152e-09
4.51831e-09
4.32754e-09
5.69778e-09
4.43773e-09
4.87752e-09
4.13039e-09
4.35337e-09
7.43712e-09
4.06592e-09
4.54284e-09
4.1511e-09
1.72201e-08
3.64928e-09
1.9321e-08
5.52449e-09
4.09463e-09
3.7777e-09
3.98373e-09
3.89389e-09
3.71402e-09
3.60686e-09
4.28326e-09
4.18123e-09
4.64245e-09
4.03529e-09
4.10609e-09
3.76916e-09
3.98101e-09
7.56642e-09
3.74264e-09
4.12369e-09
3.79024e-09
2.02809e-08
3.41481e-09
2.23192e-08
5.92531e-09
3.75225e-09
3.47152e-09
3.63137e-09
3.52147e-09
3.40149e-09
3.29326e-09
4.15022e-09
4.08261e-09
3.97143e-09
3.6863e-09
3.63265e-09
3.45602e-09
3.66423e-09
7.71637e-09
3.42889e-09
3.76657e-09
3.47997e-09
2.24518e-08
3.19068e-09
1.88147e-08
5.33737e-09
3.44968e-09
3.20345e-09
3.3311e-09
3.22648e-09
3.13644e-09
3.04992e-09
4.05167e-09
3.95471e-09
3.5286e-09
3.3841e-09
3.24563e-09
3.18612e-09
3.35404e-09
7.78668e-09
3.15296e-09
3.45975e-09
3.21328e-09
1.6365e-08
2.98959e-09
1.00982e-08
4.04532e-09
3.18578e-09
2.9756e-09
3.07745e-09
2.9959e-09
2.91769e-09
2.84109e-09
3.91213e-09
3.50972e-09
3.16491e-09
3.12542e-09
2.96993e-09
2.96104e-09
3.09367e-09
6.5078e-09
2.93449e-09
3.19664e-09
2.98414e-09
8.69408e-09
2.81271e-09
6.3169e-09
3.55676e-09
2.9622e-09
2.78649e-09
2.87033e-09
2.79397e-09
2.74397e-09
2.66852e-09
3.43321e-09
3.0527e-09
2.9161e-09
2.91138e-09
2.77533e-09
2.78001e-09
2.88558e-09
4.75501e-09
2.74785e-09
2.97134e-09
2.79348e-09
5.88821e-09
2.67134e-09
4.93349e-09
3.12577e-09
2.77722e-09
2.63196e-09
2.70751e-09
2.63297e-09
2.61237e-09
2.54445e-09
3.0366e-09
2.84116e-09
2.73609e-09
2.74119e-09
2.63763e-09
2.64059e-09
2.70866e-09
3.76882e-09
2.60513e-09
2.78465e-09
2.63743e-09
4.69709e-09
2.55466e-09
4.02458e-09
2.77732e-09
2.62672e-09
2.51062e-09
2.58535e-09
2.51841e-09
2.51864e-09
2.45765e-09
2.82919e-09
2.65022e-09
2.60951e-09
2.61226e-09
2.54128e-09
2.54266e-09
2.57831e-09
3.29184e-09
2.51281e-09
2.63239e-09
2.51309e-09
3.80712e-09
2.46948e-09
3.24367e-09
2.61044e-09
2.50975e-09
2.42116e-09
2.50117e-09
2.44157e-09
2.46309e-09
2.40206e-09
2.64474e-09
2.49043e-09
2.5235e-09
2.52398e-09
2.48511e-09
2.48337e-09
2.49661e-09
2.9563e-09
2.46112e-09
2.5125e-09
2.42376e-09
3.12227e-09
2.42662e-09
2.94364e-09
2.5158e-09
2.42413e-09
2.36564e-09
2.45626e-09
2.39586e-09
2.4491e-09
2.38684e-09
2.47889e-09
2.29012e-09
2.47785e-09
2.47405e-09
2.46969e-09
2.46495e-09
2.45592e-09
2.64513e-09
2.45127e-09
2.42678e-09
2.36827e-09
2.91472e-09
2.42595e-09
2.88051e-09
2.47763e-09
2.37376e-09
2.34847e-09
2.45157e-09
2.38983e-09
2.47892e-09
2.42084e-09
2.29149e-09
2.2412e-09
2.47203e-09
2.46698e-09
2.49904e-09
2.49043e-09
2.45491e-09
2.41815e-09
2.48593e-09
2.37689e-09
2.351e-09
2.87928e-09
2.47896e-09
2.8903e-09
2.4737e-09
2.3668e-09
2.37823e-09
2.49502e-09
2.43651e-09
2.56433e-09
2.50444e-09
2.2592e-09
2.25595e-09
2.51366e-09
2.50548e-09
2.58369e-09
2.57453e-09
2.50302e-09
2.35858e-09
2.58e-09
2.36945e-09
2.38432e-09
2.90959e-09
2.58214e-09
2.99734e-09
2.51311e-09
2.41029e-09
2.47266e-09
2.60018e-09
2.54226e-09
2.72615e-09
2.6678e-09
2.28743e-09
2.35596e-09
2.61561e-09
2.60528e-09
2.74002e-09
2.73339e-09
2.60918e-09
2.43116e-09
2.74348e-09
2.41656e-09
2.48417e-09
3.0333e-09
2.75575e-09
3.1875e-09
2.61807e-09
2.52447e-09
2.68003e-09
2.78275e-09
2.72123e-09
2.99928e-09
2.92929e-09
2.4022e-09
2.55186e-09
2.79797e-09
2.78336e-09
3.00659e-09
2.99622e-09
2.79092e-09
2.70358e-09
3.02732e-09
2.53813e-09
2.68283e-09
3.24014e-09
3.02574e-09
3.48706e-09
2.82437e-09
2.76625e-09
3.05377e-09
3.09682e-09
3.03051e-09
3.43454e-09
3.3572e-09
2.6604e-09
2.92401e-09
3.09935e-09
3.07153e-09
3.43261e-09
3.43278e-09
3.09494e-09
3.15667e-09
3.45326e-09
2.77329e-09
3.05803e-09
3.56354e-09
3.46836e-09
3.93481e-09
3.19721e-09
3.22132e-09
3.69245e-09
3.58391e-09
3.48786e-09
4.09203e-09
4.04966e-09
3.07148e-09
3.63129e-09
3.57722e-09
3.54873e-09
4.08452e-09
4.08266e-09
3.57494e-09
3.84308e-09
4.12287e-09
3.20009e-09
3.7208e-09
4.06301e-09
4.18624e-09
4.56477e-09
3.79563e-09
3.99719e-09
4.72537e-09
4.35081e-09
4.23504e-09
5.06117e-09
4.95458e-09
3.86656e-09
4.60712e-09
4.34109e-09
4.2959e-09
5.02862e-09
5.07894e-09
4.31653e-09
4.79766e-09
5.22128e-09
3.95988e-09
4.88709e-09
4.72423e-09
5.29153e-09
5.67347e-09
5.06376e-09
5.10302e-09
7.0093e-09
5.39121e-09
5.44103e-09
6.73244e-09
6.49065e-09
5.2397e-09
6.57557e-09
5.35095e-09
5.29363e-09
6.7215e-09
6.88705e-09
5.52135e-09
6.26245e-09
6.43054e-09
5.24418e-09
7.15612e-09
6.02623e-09
6.77434e-09
6.98063e-09
6.48058e-09
7.67425e-09
9.94579e-09
7.15617e-09
6.71649e-09
8.83495e-09
9.36394e-09
6.93236e-09
1.23714e-08
7.1464e-09
7.18802e-09
8.73011e-09
8.92983e-09
7.30353e-09
9.26597e-09
9.07967e-09
7.69929e-09
1.08518e-08
7.87176e-09
9.46508e-09
1.01104e-08
1.13474e-08
1.15463e-08
1.6077e-08
9.82518e-09
1.03594e-08
1.19878e-08
1.1261e-08
1.45052e-08
1.37325e-08
9.70409e-09
9.9998e-09
1.18836e-08
1.22379e-08
9.72633e-09
1.10567e-08
1.20585e-08
1.35255e-08
1.66388e-08
1.09127e-08
1.21282e-08
1.36605e-08
1.6285e-08
1.74524e-08
2.69814e-08
1.30843e-08
1.18953e-08
1.65761e-08
1.75184e-08
1.44736e-08
3.36537e-08
1.29999e-08
1.30197e-08
1.63411e-08
1.59207e-08
1.34141e-08
1.73864e-08
1.65256e-08
1.71611e-08
2.34048e-08
1.54473e-08
1.59262e-08
1.94365e-08
2.78616e-08
2.8945e-08
4.47567e-08
1.80643e-08
1.91303e-08
2.27253e-08
2.18502e-08
3.64314e-08
3.88844e-08
1.78015e-08
1.75411e-08
2.29148e-08
2.34127e-08
1.82707e-08
2.14164e-08
2.22768e-08
2.71249e-08
4.61731e-08
2.11071e-08
2.33402e-08
2.57066e-08
4.02308e-08
4.83439e-08
7.06795e-08
2.41255e-08
2.29347e-08
3.25715e-08
3.5308e-08
4.09427e-08
9.20039e-08
2.39892e-08
2.48118e-08
3.20798e-08
3.12558e-08
2.32521e-08
3.55707e-08
3.67163e-08
5.04712e-08
6.60108e-08
2.69843e-08
3.22975e-08
4.45789e-08
1.09745e-07
8.02144e-08
9.67131e-08
3.51583e-08
3.69611e-08
4.01477e-08
3.78285e-08
9.78201e-08
7.56548e-08
3.48288e-08
3.35979e-08
4.04336e-08
4.24375e-08
3.91196e-08
3.76407e-08
4.03881e-08
7.26148e-08
1.0238e-07
4.68481e-08
4.19081e-08
4.29721e-08
9.1772e-08
1.02385e-07
1.48636e-07
4.3107e-08
3.89906e-08
5.6039e-08
6.26456e-08
7.64946e-08
1.96504e-07
4.35497e-08
4.63371e-08
5.51511e-08
5.35639e-08
4.22853e-08
6.15284e-08
5.87474e-08
1.11754e-07
1.48366e-07
4.27456e-08
5.3462e-08
5.62917e-08
1.78339e-07
1.64155e-07
2.14765e-07
5.98183e-08
6.86106e-08
7.40866e-08
7.18019e-08
2.2159e-07
2.17073e-07
5.89847e-08
5.68353e-08
7.40619e-08
7.31868e-08
6.09226e-08
7.16995e-08
7.04085e-08
1.53777e-07
2.13511e-07
6.33984e-08
7.31233e-08
8.25797e-08
2.10916e-07
2.25734e-07
2.77126e-07
7.90254e-08
7.28703e-08
8.85324e-08
1.00017e-07
2.15968e-07
3.2885e-07
7.91106e-08
7.75239e-08
8.82998e-08
9.17018e-08
7.57822e-08
9.9645e-08
9.12669e-08
2.35289e-07
2.77845e-07
8.67566e-08
9.18202e-08
9.3351e-08
2.80136e-07
2.84946e-07
3.57765e-07
9.3031e-08
1.09146e-07
1.14798e-07
1.16425e-07
3.63814e-07
3.78314e-07
9.2656e-08
9.68604e-08
1.13995e-07
1.11166e-07
9.60685e-08
1.14127e-07
1.1259e-07
2.89176e-07
3.52815e-07
9.54995e-08
1.10274e-07
1.11339e-07
3.51953e-07
3.84946e-07
4.34523e-07
1.22399e-07
1.17477e-07
1.39898e-07
1.31736e-07
3.76517e-07
3.97202e-07
1.21472e-07
1.1715e-07
1.40054e-07
1.39564e-07
1.19613e-07
1.31269e-07
1.38082e-07
3.65828e-07
4.30084e-07
1.18555e-07
1.39488e-07
1.36521e-07
4.3158e-07
4.4709e-07
4.94045e-07
1.44802e-07
1.40587e-07
1.63292e-07
1.66869e-07
4.23917e-07
5.127e-07
1.44866e-07
1.47067e-07
1.62203e-07
1.664e-07
1.43981e-07
1.66803e-07
1.6595e-07
4.51112e-07
5.08883e-07
1.42143e-07
1.65642e-07
1.65714e-07
4.99984e-07
5.07813e-07
5.90701e-07
1.71662e-07
1.74619e-07
2.02167e-07
1.98852e-07
5.27214e-07
5.76387e-07
1.7064e-07
1.73674e-07
2.02598e-07
1.98248e-07
1.74787e-07
1.98273e-07
1.99056e-07
5.21539e-07
5.7254e-07
1.74102e-07
1.98084e-07
1.97984e-07
5.82147e-07
6.07085e-07
6.36564e-07
2.11921e-07
2.06907e-07
2.32338e-07
2.32368e-07
5.90937e-07
6.40426e-07
2.12207e-07
2.05429e-07
2.30915e-07
2.32804e-07
2.07705e-07
2.3131e-07
2.33273e-07
5.87107e-07
6.43617e-07
2.06225e-07
2.31687e-07
2.32433e-07
6.39063e-07
6.47706e-07
6.93584e-07
2.38246e-07
2.42912e-07
2.68364e-07
2.69174e-07
6.54493e-07
6.94058e-07
2.36846e-07
2.44186e-07
2.68319e-07
2.72082e-07
2.41831e-07
2.68187e-07
2.69024e-07
6.59136e-07
6.93096e-07
2.40587e-07
2.71586e-07
2.687e-07
6.95963e-07
7.09514e-07
7.52161e-07
2.81153e-07
2.76815e-07
3.13101e-07
3.1431e-07
7.07583e-07
7.5536e-07
2.81205e-07
2.78214e-07
3.12833e-07
3.11177e-07
2.7993e-07
3.13038e-07
3.12083e-07
7.04102e-07
7.59201e-07
2.79151e-07
3.1035e-07
3.10689e-07
7.50323e-07
7.62677e-07
7.93279e-07
3.21678e-07
3.27508e-07
3.53146e-07
3.53045e-07
7.66158e-07
7.85646e-07
3.21271e-07
3.26667e-07
3.52893e-07
3.60066e-07
3.22571e-07
3.51618e-07
3.53172e-07
7.72521e-07
7.9175e-07
3.21449e-07
3.58603e-07
3.52735e-07
7.94382e-07
8.04899e-07
8.35437e-07
3.65031e-07
3.58379e-07
3.96722e-07
3.99956e-07
7.95385e-07
8.51821e-07
3.6502e-07
3.66516e-07
3.95798e-07
3.90361e-07
3.64035e-07
3.982e-07
3.97871e-07
7.99789e-07
8.31407e-07
3.63456e-07
3.90218e-07
3.96728e-07
8.3593e-07
8.45871e-07
8.76214e-07
4.0863e-07
4.20362e-07
4.48973e-07
4.54772e-07
8.65387e-07
8.69083e-07
4.0679e-07
4.05253e-07
4.47388e-07
4.51293e-07
4.09611e-07
4.52674e-07
4.47984e-07
8.45865e-07
8.80841e-07
4.08038e-07
4.50843e-07
4.46926e-07
8.75575e-07
8.85573e-07
9.05866e-07
4.60172e-07
4.60888e-07
4.88347e-07
4.79135e-07
8.71928e-07
8.92882e-07
4.59781e-07
4.64025e-07
4.89517e-07
4.89486e-07
4.59912e-07
4.77408e-07
4.88871e-07
8.88965e-07
9.05064e-07
4.58494e-07
4.8792e-07
4.89801e-07
9.07566e-07
9.14625e-07
9.43864e-07
4.9996e-07
4.90251e-07
5.44127e-07
5.53626e-07
9.08534e-07
9.60036e-07
5.00159e-07
4.98249e-07
5.41963e-07
5.42763e-07
5.02881e-07
5.48092e-07
5.41091e-07
9.13545e-07
9.41896e-07
5.03494e-07
5.42315e-07
5.4e-07
9.42067e-07
9.53431e-07
9.72338e-07
5.57987e-07
5.71123e-07
5.90873e-07
5.98067e-07
9.68304e-07
9.7019e-07
5.55619e-07
5.56439e-07
5.89027e-07
5.87784e-07
5.51277e-07
5.95518e-07
5.93544e-07
9.51855e-07
9.72848e-07
5.51135e-07
5.86263e-07
5.91354e-07
9.74155e-07
9.79349e-07
1.00154e-06
6.00372e-07
6.03792e-07
6.34236e-07
6.2374e-07
9.73929e-07
9.95418e-07
5.9966e-07
5.99878e-07
6.35495e-07
6.40865e-07
6.04404e-07
6.2268e-07
6.36657e-07
9.80334e-07
1.00269e-06
6.03167e-07
6.40672e-07
6.36384e-07
1.00198e-06
1.01062e-06
1.03456e-06
6.48315e-07
6.39764e-07
6.89282e-07
6.95259e-07
1.00834e-06
1.04027e-06
6.48601e-07
6.51022e-07
6.87226e-07
6.80168e-07
6.50131e-07
6.94189e-07
6.845e-07
1.01018e-06
1.0301e-06
6.48379e-07
6.78346e-07
6.84634e-07
1.03279e-06
1.04147e-06
1.05805e-06
7.00449e-07
7.05983e-07
7.28642e-07
7.27051e-07
1.04533e-06
1.05437e-06
6.98612e-07
6.95505e-07
7.28176e-07
7.39208e-07
6.97385e-07
7.25549e-07
7.32208e-07
1.0396e-06
1.06542e-06
6.96804e-07
7.39003e-07
7.32362e-07
1.06113e-06
1.06542e-06
1.08975e-06
7.39264e-07
7.37422e-07
7.78359e-07
7.769e-07
1.06174e-06
1.0915e-06
7.39313e-07
7.4836e-07
7.77553e-07
7.66662e-07
7.41475e-07
7.74945e-07
7.78155e-07
1.07046e-06
1.07915e-06
7.42945e-07
7.66544e-07
7.76727e-07
1.08813e-06
1.09711e-06
1.11346e-06
7.89673e-07
7.8857e-07
8.15794e-07
8.16262e-07
1.09856e-06
1.11331e-06
7.87744e-07
7.76458e-07
8.15463e-07
8.23509e-07
7.89344e-07
8.17396e-07
8.13485e-07
1.08578e-06
1.12224e-06
7.87434e-07
8.23271e-07
8.1277e-07
1.11242e-06
1.11995e-06
1.14306e-06
8.25936e-07
8.2477e-07
8.6031e-07
8.58375e-07
1.11917e-06
1.13854e-06
8.26673e-07
8.3436e-07
8.59345e-07
8.60123e-07
8.239e-07
8.56512e-07
8.64289e-07
1.13042e-06
1.14253e-06
8.24124e-07
8.58668e-07
8.6445e-07
1.14662e-06
1.14993e-06
1.16451e-06
8.7068e-07
8.69679e-07
8.93912e-07
8.94677e-07
1.14641e-06
1.169e-06
8.68989e-07
8.68859e-07
8.94154e-07
8.93954e-07
8.74732e-07
8.95522e-07
8.93192e-07
1.14735e-06
1.16429e-06
8.73904e-07
8.94295e-07
8.92355e-07
1.16349e-06
1.17018e-06
1.193e-06
9.01967e-07
9.038e-07
9.33398e-07
9.35836e-07
1.17482e-06
1.19243e-06
9.0276e-07
9.02446e-07
9.31505e-07
9.30847e-07
8.99305e-07
9.34063e-07
9.31965e-07
1.17053e-06
1.19049e-06
8.9985e-07
9.29971e-07
9.30693e-07
1.19189e-06
1.20013e-06
1.21485e-06
9.42975e-07
9.44224e-07
9.64787e-07
9.60571e-07
1.19893e-06
1.21125e-06
9.40662e-07
9.41742e-07
9.66228e-07
9.68133e-07
9.43505e-07
9.6148e-07
9.65886e-07
1.19862e-06
1.21729e-06
9.41536e-07
9.68121e-07
9.66131e-07
1.21486e-06
1.21941e-06
1.23401e-06
9.71022e-07
9.65116e-07
9.91609e-07
9.9555e-07
1.21523e-06
1.23613e-06
9.73051e-07
9.73185e-07
9.88876e-07
9.87944e-07
9.70042e-07
9.93189e-07
9.91722e-07
1.22095e-06
1.23066e-06
9.71156e-07
9.87399e-07
9.90859e-07
1.23645e-06
1.24068e-06
1.26321e-06
1.00073e-06
1.00656e-06
1.02761e-06
1.02534e-06
1.24502e-06
1.26086e-06
9.97077e-07
9.97818e-07
1.02832e-06
1.03021e-06
1.00358e-06
1.02641e-06
1.02947e-06
1.23819e-06
1.26688e-06
1.00125e-06
1.03055e-06
1.02866e-06
1.26405e-06
1.26812e-06
1.27322e-06
1.0332e-06
1.02939e-06
1.04314e-06
1.04805e-06
1.26487e-06
1.28034e-06
1.03554e-06
1.0366e-06
1.04619e-06
1.04653e-06
1.03313e-06
1.04664e-06
1.04125e-06
1.27136e-06
1.2722e-06
1.03343e-06
1.0448e-06
1.04212e-06
1.26717e-06
1.27654e-06
1.30212e-06
1.04741e-06
1.05755e-06
1.07745e-06
1.07668e-06
1.2876e-06
1.30178e-06
1.04836e-06
1.04891e-06
1.07238e-06
1.07191e-06
1.045e-06
1.07585e-06
1.07859e-06
1.27469e-06
1.30105e-06
1.04505e-06
1.07376e-06
1.0757e-06
1.30754e-06
1.3116e-06
1.31764e-06
1.08683e-06
1.08005e-06
1.09781e-06
1.08912e-06
1.3044e-06
1.30305e-06
1.08406e-06
1.08304e-06
1.09929e-06
1.10001e-06
1.08907e-06
1.08957e-06
1.09912e-06
1.31133e-06
1.31985e-06
1.08755e-06
1.09951e-06
1.0999e-06
1.31945e-06
1.31863e-06
1.32553e-06
1.09935e-06
1.09117e-06
1.10875e-06
1.10999e-06
1.3049e-06
1.32824e-06
1.10105e-06
1.10263e-06
1.11056e-06
1.11409e-06
1.10038e-06
1.10935e-06
1.10845e-06
1.32138e-06
1.33114e-06
1.10124e-06
1.11376e-06
1.11012e-06
1.32578e-06
1.33476e-06
1.35516e-06
1.11742e-06
1.12554e-06
1.14154e-06
1.14968e-06
1.34323e-06
1.3707e-06
1.11805e-06
1.12058e-06
1.1388e-06
1.13458e-06
1.11561e-06
1.15015e-06
1.14031e-06
1.33824e-06
1.34619e-06
1.11678e-06
1.13366e-06
1.13841e-06
1.35308e-06
1.3575e-06
1.36426e-06
1.145e-06
1.14972e-06
1.15446e-06
1.14961e-06
1.37138e-06
1.35568e-06
1.14179e-06
1.13719e-06
1.15427e-06
1.15435e-06
1.14404e-06
1.14982e-06
1.15194e-06
1.34848e-06
1.36511e-06
1.14182e-06
1.15581e-06
1.15194e-06
1.36252e-06
1.36955e-06
1.37382e-06
1.15896e-06
1.15223e-06
1.16845e-06
1.16993e-06
1.35894e-06
1.37714e-06
1.16023e-06
1.16169e-06
1.16909e-06
1.17265e-06
1.15782e-06
1.16988e-06
1.17533e-06
1.37236e-06
1.38095e-06
1.15882e-06
1.17078e-06
1.17431e-06
1.38341e-06
1.3756e-06
1.39528e-06
1.17004e-06
1.1738e-06
1.18785e-06
1.18414e-06
1.38133e-06
1.38644e-06
1.17042e-06
1.17573e-06
1.18748e-06
1.19064e-06
1.17751e-06
1.18192e-06
1.18062e-06
1.38453e-06
1.39803e-06
1.17622e-06
1.1918e-06
1.18147e-06
1.38418e-06
1.4047e-06
1.40919e-06
1.19658e-06
1.19023e-06
1.20661e-06
1.20257e-06
1.39161e-06
1.40713e-06
1.19637e-06
1.19316e-06
1.20598e-06
1.19642e-06
1.18395e-06
1.20365e-06
1.20638e-06
1.40042e-06
1.39258e-06
1.18656e-06
1.19672e-06
1.20546e-06
1.40946e-06
1.41023e-06
1.41363e-06
1.2073e-06
1.20477e-06
1.21395e-06
1.22245e-06
1.41077e-06
1.427e-06
1.20652e-06
1.19851e-06
1.21262e-06
1.21936e-06
1.21029e-06
1.22182e-06
1.21601e-06
1.39534e-06
1.42556e-06
1.20863e-06
1.21853e-06
1.21317e-06
1.4174e-06
1.41812e-06
1.42098e-06
1.21836e-06
1.2267e-06
1.22682e-06
1.2247e-06
1.432e-06
1.41399e-06
1.21661e-06
1.22683e-06
1.22648e-06
1.23261e-06
1.22099e-06
1.22492e-06
1.23148e-06
1.43376e-06
1.43209e-06
1.21756e-06
1.23405e-06
1.23412e-06
1.43134e-06
1.42269e-06
1.44853e-06
1.22776e-06
1.22346e-06
1.24197e-06
1.23095e-06
1.41347e-06
1.42777e-06
1.22776e-06
1.2322e-06
1.24382e-06
1.23344e-06
1.23163e-06
1.22953e-06
1.23338e-06
1.43246e-06
1.42537e-06
1.23561e-06
1.23374e-06
1.23639e-06
1.42786e-06
1.46193e-06
1.47069e-06
1.25268e-06
1.24586e-06
1.26413e-06
1.27191e-06
1.44662e-06
1.48936e-06
1.25386e-06
1.23594e-06
1.26382e-06
1.26187e-06
1.23726e-06
1.27225e-06
1.26332e-06
1.42963e-06
1.46513e-06
1.2379e-06
1.2562e-06
1.25601e-06
1.46508e-06
1.46928e-06
1.43446e-06
1.26299e-06
1.2709e-06
1.2525e-06
1.24935e-06
1.48869e-06
1.42653e-06
1.26267e-06
1.26922e-06
1.25197e-06
1.27028e-06
1.26557e-06
1.25206e-06
1.26368e-06
1.47496e-06
1.471e-06
1.26196e-06
1.27305e-06
1.26624e-06
1.45909e-06
1.43546e-06
1.45032e-06
1.25219e-06
1.2469e-06
1.25799e-06
1.25477e-06
1.42661e-06
1.44997e-06
1.25153e-06
1.26559e-06
1.25779e-06
1.25664e-06
1.26347e-06
1.25666e-06
1.26637e-06
1.46896e-06
1.44029e-06
1.26654e-06
1.25964e-06
1.26775e-06
1.46003e-06
1.45897e-06
1.50194e-06
1.26359e-06
1.26656e-06
1.29262e-06
1.30311e-06
1.46526e-06
1.51926e-06
1.264e-06
1.2574e-06
1.29137e-06
1.28301e-06
1.26702e-06
1.30054e-06
1.27707e-06
1.44263e-06
1.48712e-06
1.26793e-06
1.2788e-06
1.27273e-06
1.4745e-06
1.51037e-06
1.50568e-06
1.29975e-06
1.30624e-06
1.3024e-06
1.29983e-06
1.52389e-06
1.49078e-06
1.29812e-06
1.29403e-06
1.3013e-06
1.302e-06
1.28633e-06
1.2982e-06
1.29996e-06
1.50005e-06
1.50605e-06
1.28116e-06
1.30027e-06
1.299e-06
1.50404e-06
1.50359e-06
1.46448e-06
1.29937e-06
1.28822e-06
1.27937e-06
1.26808e-06
1.48518e-06
1.43991e-06
1.29903e-06
1.30052e-06
1.2818e-06
1.28671e-06
1.29954e-06
1.26895e-06
1.28726e-06
1.50547e-06
1.47685e-06
1.29887e-06
1.28846e-06
1.28997e-06
1.47804e-06
1.46535e-06
1.4804e-06
1.27794e-06
1.26851e-06
1.2842e-06
1.29675e-06
1.44229e-06
1.50529e-06
1.28026e-06
1.28474e-06
1.28478e-06
1.28645e-06
1.28469e-06
1.29662e-06
1.28629e-06
1.47759e-06
1.47999e-06
1.28809e-06
1.28746e-06
1.28955e-06
1.48391e-06
1.48869e-06
1.51293e-06
1.2917e-06
1.31042e-06
1.31139e-06
1.32032e-06
1.52147e-06
1.5311e-06
1.2906e-06
1.28928e-06
1.30781e-06
1.29934e-06
1.29056e-06
1.31992e-06
1.30718e-06
1.48382e-06
1.49673e-06
1.29234e-06
1.29855e-06
1.3029e-06
1.506e-06
1.51786e-06
1.51776e-06
1.31454e-06
1.31826e-06
1.31507e-06
1.30504e-06
1.53032e-06
1.49878e-06
1.31146e-06
1.30354e-06
1.31452e-06
1.31986e-06
1.31143e-06
1.30475e-06
1.31499e-06
1.50288e-06
1.52862e-06
1.30643e-06
1.32029e-06
1.31463e-06
1.51861e-06
1.51835e-06
1.50436e-06
1.3132e-06
1.30362e-06
1.30724e-06
1.3059e-06
1.49965e-06
1.5063e-06
1.31409e-06
1.32247e-06
1.30863e-06
1.32054e-06
1.3144e-06
1.30729e-06
1.30858e-06
1.53379e-06
1.52409e-06
1.31492e-06
1.32135e-06
1.31183e-06
1.50742e-06
1.50582e-06
1.51211e-06
1.30732e-06
1.30843e-06
1.31294e-06
1.31165e-06
1.51093e-06
1.51042e-06
1.30766e-06
1.31477e-06
1.30843e-06
1.2986e-06
1.30835e-06
1.31158e-06
1.31206e-06
1.52194e-06
1.4855e-06
1.31012e-06
1.29842e-06
1.30928e-06
1.51072e-06
1.51452e-06
1.50804e-06
1.31354e-06
1.31111e-06
1.3097e-06
1.30834e-06
1.51095e-06
1.50373e-06
1.30932e-06
1.29817e-06
1.30965e-06
1.30675e-06
1.31254e-06
1.30722e-06
1.30874e-06
1.48645e-06
1.50669e-06
1.30942e-06
1.30558e-06
1.30824e-06
1.50659e-06
1.50922e-06
1.51782e-06
1.30856e-06
1.3086e-06
1.31127e-06
1.31858e-06
1.50784e-06
1.52989e-06
1.30957e-06
1.31432e-06
1.31477e-06
1.32678e-06
1.30762e-06
1.31959e-06
1.31091e-06
1.51769e-06
1.54042e-06
1.30808e-06
1.32711e-06
1.31396e-06
1.51655e-06
1.5254e-06
1.53668e-06
1.31732e-06
1.3214e-06
1.32601e-06
1.32241e-06
1.53426e-06
1.52915e-06
1.3202e-06
1.32737e-06
1.32612e-06
1.32515e-06
1.31762e-06
1.32332e-06
1.32745e-06
1.54295e-06
1.53206e-06
1.31976e-06
1.32568e-06
1.32708e-06
1.53813e-06
1.53781e-06
1.51688e-06
1.32571e-06
1.3215e-06
1.31612e-06
1.31413e-06
1.52989e-06
1.51465e-06
1.3257e-06
1.32246e-06
1.31562e-06
1.3105e-06
1.32736e-06
1.31483e-06
1.31914e-06
1.53228e-06
1.50857e-06
1.32688e-06
1.31061e-06
1.3179e-06
1.52159e-06
1.51685e-06
1.50594e-06
1.31165e-06
1.31021e-06
1.30546e-06
1.30462e-06
1.51471e-06
1.5031e-06
1.31144e-06
1.30752e-06
1.30574e-06
1.30503e-06
1.31393e-06
1.30439e-06
1.30639e-06
1.50877e-06
1.50452e-06
1.3132e-06
1.30423e-06
1.30697e-06
1.50844e-06
1.50881e-06
1.52898e-06
1.30562e-06
1.30498e-06
1.31688e-06
1.31825e-06
1.5066e-06
1.5322e-06
1.30584e-06
1.30557e-06
1.31573e-06
1.31627e-06
1.30648e-06
1.31792e-06
1.31347e-06
1.50939e-06
1.52836e-06
1.30702e-06
1.31628e-06
1.31175e-06
1.52153e-06
1.53444e-06
1.5289e-06
1.32005e-06
1.32057e-06
1.31851e-06
1.31777e-06
1.53666e-06
1.52876e-06
1.31905e-06
1.31956e-06
1.31858e-06
1.32153e-06
1.31534e-06
1.31751e-06
1.31603e-06
1.53338e-06
1.53696e-06
1.31328e-06
1.32094e-06
1.31688e-06
1.52745e-06
1.52893e-06
1.51726e-06
1.31431e-06
1.315e-06
1.3083e-06
1.31167e-06
1.52949e-06
1.52513e-06
1.31506e-06
1.32034e-06
1.3076e-06
1.30927e-06
1.31596e-06
1.31249e-06
1.31483e-06
1.53803e-06
1.51937e-06
1.31771e-06
1.312e-06
1.31645e-06
1.53043e-06
1.51981e-06
1.52038e-06
1.30835e-06
1.31108e-06
1.30733e-06
1.30221e-06
1.52684e-06
1.50869e-06
1.30739e-06
1.30626e-06
1.30649e-06
1.30109e-06
1.31338e-06
1.30153e-06
1.30097e-06
1.51952e-06
1.50718e-06
1.31336e-06
1.2989e-06
1.29863e-06
1.50669e-06
1.52106e-06
1.505e-06
1.30482e-06
1.2977e-06
1.29487e-06
1.29309e-06
1.50837e-06
1.50117e-06
1.30462e-06
1.2995e-06
1.29515e-06
1.29484e-06
1.29768e-06
1.29313e-06
1.29579e-06
1.50834e-06
1.5052e-06
1.29649e-06
1.29551e-06
1.29657e-06
1.5095e-06
1.50629e-06
1.51536e-06
1.29421e-06
1.29381e-06
1.29801e-06
1.30352e-06
1.50663e-06
1.52664e-06
1.29421e-06
1.29495e-06
1.29762e-06
1.30445e-06
1.29698e-06
1.30408e-06
1.30177e-06
1.50883e-06
1.5275e-06
1.29874e-06
1.30534e-06
1.3019e-06
1.52192e-06
1.52033e-06
1.5226e-06
1.30038e-06
1.30406e-06
1.30061e-06
1.29835e-06
1.5295e-06
1.51527e-06
1.30063e-06
1.30632e-06
1.3016e-06
1.30328e-06
1.30146e-06
1.29701e-06
1.29275e-06
1.53215e-06
1.52209e-06
1.30138e-06
1.30128e-06
1.29292e-06
1.50731e-06
1.52357e-06
1.50157e-06
1.29891e-06
1.29439e-06
1.28606e-06
1.28335e-06
1.5152e-06
1.49877e-06
1.29992e-06
1.29708e-06
1.28441e-06
1.2782e-06
1.29015e-06
1.28279e-06
1.28589e-06
1.52053e-06
1.48949e-06
1.29043e-06
1.27837e-06
1.28553e-06
1.50525e-06
1.50158e-06
1.49428e-06
1.28176e-06
1.28127e-06
1.27679e-06
1.2793e-06
1.50002e-06
1.50273e-06
1.2796e-06
1.27587e-06
1.27567e-06
1.27803e-06
1.28548e-06
1.28088e-06
1.28282e-06
1.49051e-06
1.50388e-06
1.28498e-06
1.28087e-06
1.28277e-06
1.5073e-06
1.49917e-06
1.51182e-06
1.27738e-06
1.27997e-06
1.28177e-06
1.28033e-06
1.50648e-06
1.50601e-06
1.27697e-06
1.28299e-06
1.28308e-06
1.28645e-06
1.28219e-06
1.28003e-06
1.27876e-06
1.51186e-06
1.51751e-06
1.28238e-06
1.28587e-06
1.27937e-06
1.50388e-06
1.51348e-06
1.49069e-06
1.28138e-06
1.27884e-06
1.26847e-06
1.26677e-06
1.50678e-06
1.48882e-06
1.28264e-06
1.28464e-06
1.26806e-06
1.2633e-06
1.27734e-06
1.26586e-06
1.26604e-06
1.51784e-06
1.48003e-06
1.27762e-06
1.26137e-06
1.26446e-06
1.48787e-06
1.4907e-06
1.47834e-06
1.26456e-06
1.26451e-06
1.25597e-06
1.25866e-06
1.4898e-06
1.48487e-06
1.26353e-06
1.25844e-06
1.25449e-06
1.25211e-06
1.26392e-06
1.25915e-06
1.25824e-06
1.48002e-06
1.47292e-06
1.26208e-06
1.25299e-06
1.25686e-06
1.48234e-06
1.47955e-06
1.46701e-06
1.25476e-06
1.25719e-06
1.245e-06
1.24397e-06
1.48602e-06
1.46518e-06
1.25341e-06
1.25175e-06
1.24451e-06
1.24577e-06
1.25688e-06
1.24407e-06
1.24427e-06
1.47535e-06
1.47136e-06
1.25583e-06
1.24697e-06
1.24515e-06
1.46627e-06
1.46798e-06
1.46454e-06
1.24252e-06
1.24115e-06
1.22662e-06
1.22499e-06
1.46585e-06
1.46122e-06
1.24237e-06
1.24492e-06
1.22809e-06
1.23285e-06
1.24147e-06
1.22505e-06
1.22581e-06
1.47286e-06
1.47472e-06
1.24256e-06
1.23237e-06
1.22697e-06
1.46362e-06
1.45183e-06
1.19552e-06
1.19422e-06
1.44948e-06
1.19674e-06
1.20047e-06
7.46685e-07
7.49995e-07
7.47554e-07
1.19513e-06
1.46042e-06
1.19583e-06
3.12983e-09
2.45577e-09
1.81882e-09
1.87851e-09
1.77407e-09
6.15568e-09
1.31564e-08
1.42486e-09
1.68822e-09
4.15729e-09
1.25911e-09
8.39112e-09
5.2595e-09
7.16695e-09
4.74193e-09
7.54149e-09
2.10851e-07
6.20738e-09
3.24165e-07
1.57047e-06
3.14415e-06
8.77354e-09
1.86546e-07
7.37226e-09
2.9276e-07
2.36331e-09
1.98714e-09
3.37748e-09
2.01388e-09
2.33479e-09
1.96478e-09
3.26265e-09
1.69294e-09
8.97691e-08
3.37185e-09
7.39344e-09
1.73421e-09
6.58299e-08
3.37679e-09
1.6382e-06
3.24282e-06
1.61125e-09
1.7945e-09
1.04734e-07
4.02654e-09
1.64491e-09
1.78421e-09
7.16973e-08
2.1534e-07
2.13444e-07
5.04683e-09
1.86296e-07
1.82607e-07
1.66584e-08
5.38515e-07
1.26394e-08
7.68145e-07
7.21146e-06
9.63149e-06
1.83348e-08
5.13606e-07
1.31676e-08
7.50067e-07
2.31164e-09
1.94966e-09
3.20744e-09
1.93962e-09
2.24577e-09
1.90537e-09
3.09533e-09