/*--------------------------------*- C++ -*----------------------------------*\
| =========                 |                                                 |
| \\      /  F ield         | OpenFOAM: The Open Source CFD Toolbox           |
|  \\    /   O peration     | Version:  v2012                                 |
|   \\  /    A nd           | Website:  www.openfoam.com                      |
|    \\/     M anipulation  |                                                 |
\*---------------------------------------------------------------------------*/
FoamFile
{
    version     2.0;
    format      ascii;
    class       volScalarField;
    location    "450";
    object      nut;
}
// * * * * * * * * * * * * * * * * * * * * * * * * * * * * * * * * * * * * * //

dimensions      [0 2 -1 0 0 0 0];


internalField   nonuniform List<scalar> 
171728
(
3.72288e-06
1.34406e-06
1.51746e-06
2.14869e-06
3.73938e-06
1.28649e-06
1.52083e-06
2.00531e-06
3.81482e-06
1.26598e-06
1.54425e-06
1.81341e-06
3.8576e-06
1.26607e-06
1.56496e-06
1.9137e-06
3.87628e-06
1.3263e-06
1.58574e-06
3.18282e-06
3.89992e-06
1.77727e-06
1.59356e-06
6.14887e-06
3.93726e-06
3.72707e-06
1.58883e-06
8.05442e-06
3.98057e-06
8.69434e-06
1.59466e-06
4.33274e-06
4.02248e-06
1.54556e-05
1.60803e-06
2.33782e-06
4.06273e-06
1.91103e-05
1.61073e-06
1.9329e-06
4.10165e-06
1.46886e-05
1.59351e-06
1.76688e-06
4.14095e-06
5.54223e-06
1.56267e-06
1.66197e-06
4.17927e-06
2.32946e-06
1.53527e-06
1.54281e-06
4.21438e-06
1.52472e-06
1.50731e-06
1.4107e-06
4.24296e-06
1.27914e-06
1.48439e-06
1.28815e-06
4.26621e-06
1.15071e-06
1.44768e-06
1.18548e-06
4.29364e-06
1.06973e-06
1.39587e-06
1.11274e-06
4.31128e-06
1.04339e-06
1.31527e-06
1.08837e-06
4.31914e-06
1.05589e-06
1.24182e-06
1.17487e-06
4.32578e-06
1.1078e-06
1.32568e-06
1.20598e-06
4.30217e-06
1.48623e-06
1.66081e-06
1.85507e-06
4.27535e-06
1.47872e-06
1.68448e-06
2.36438e-06
4.20571e-06
2.38832e-06
2.03634e-06
3.82855e-06
4.11225e-06
2.66006e-06
3.04056e-06
4.86219e-06
3.9816e-06
4.80937e-06
4.18199e-06
1.96132e-05
3.80362e-06
4.29594e-06
5.59966e-06
9.36888e-06
3.58192e-06
9.01297e-06
6.46009e-06
2.45678e-05
3.46033e-06
9.3087e-06
9.38862e-06
2.44806e-05
3.21775e-06
1.52551e-05
1.22392e-05
3.08858e-05
3.21916e-06
1.51937e-05
1.38993e-05
3.8354e-05
3.15657e-06
1.63132e-05
1.87621e-05
4.58566e-05
3.06236e-06
2.1961e-05
2.17392e-05
5.10614e-05
3.65224e-06
2.66707e-05
2.62405e-05
5.9706e-05
3.63316e-06
3.08078e-05
3.09803e-05
6.42701e-05
4.20533e-06
3.47998e-05
3.60125e-05
6.92861e-05
5.09415e-06
4.30038e-05
4.22194e-05
7.50208e-05
5.89809e-06
4.58008e-05
4.81544e-05
7.90088e-05
6.75846e-06
5.46194e-05
5.03402e-05
8.35331e-05
9.07101e-06
6.12427e-05
6.12924e-05
8.80858e-05
9.98483e-06
5.91877e-05
6.26365e-05
9.12611e-05
1.30381e-05
7.52189e-05
7.20072e-05
9.57795e-05
1.53165e-05
7.84513e-05
7.61625e-05
9.98614e-05
1.77298e-05
7.73764e-05
8.37002e-05
0.000102952
2.2596e-05
9.27281e-05
8.74791e-05
0.000107342
2.53823e-05
9.24328e-05
9.76513e-05
0.000111026
3.09157e-05
0.000100772
9.70888e-05
0.000114724
3.41229e-05
0.000105264
0.000108349
0.000117294
4.13633e-05
0.00011143
0.000111888
0.000123752
4.60981e-05
0.000116008
0.000115329
0.000124243
5.23098e-05
0.00012314
0.000121488
0.000129418
5.99246e-05
0.000124413
0.000126952
0.000132063
6.42549e-05
0.000130566
0.000128089
0.000135643
7.36497e-05
0.000136884
0.000138107
0.000140109
8.11568e-05
0.000138591
0.000137969
0.000138163
8.1682e-05
0.000145847
0.000144438
0.000147785
9.92249e-05
0.000144983
0.00014974
0.000148479
9.9415e-05
0.000149286
0.000150686
0.000148264
0.000108762
0.000161672
0.000155006
0.000154166
0.000115279
0.000159858
0.000160532
0.000155119
0.000122114
0.000162445
0.000163138
0.000159492
0.00012311
0.000165072
0.00016893
0.000158473
0.000137908
0.000171253
0.000168955
0.000164705
0.000140302
0.000176202
0.000174941
0.000165479
0.000143648
0.000175666
0.000179485
0.000168454
0.000151849
0.00017615
0.000177809
0.000167152
0.000163338
0.000190617
0.000185548
0.000176381
0.0001641
0.000183237
0.000191135
0.000174744
0.00016159
0.00018269
0.000185343
0.000174203
0.000174471
0.000201963
0.000192071
0.000178357
0.000190383
0.000200507
0.00020136
0.000185767
0.000186841
0.000187667
0.000196115
0.000179095
0.000181437
0.000198462
0.000193997
0.000179884
0.000190575
0.000210247
0.000200655
0.000186938
0.000206412
0.000206313
0.000212128
0.000190739
0.000207989
0.000205227
0.000212244
0.000187942
0.000205835
0.000207498
0.000201982
0.000188341
0.000207621
0.000207563
0.000205723
0.000188137
0.000214666
0.000215746
0.00021946
0.000192136
0.000224431
0.000218548
0.000220462
0.000198221
0.000225224
0.000214499
0.000212925
0.0001946
0.000222425
0.000212412
0.00021147
0.000191381
0.000226537
0.000221016
0.000220415
0.000196031
0.000235931
0.000223998
0.000224905
0.000199208
0.000236769
0.0002234
0.000222911
0.000200728
0.000235596
0.00021929
0.000217916
0.000194768
0.000234451
0.000218631
0.000219102
0.000196606
0.000239174
0.000227038
0.00022815
0.000201088
0.000246207
0.000226961
0.000228455
0.000198557
0.000245115
0.000223674
0.000222136
0.000199368
0.000243676
0.000226054
0.000227061
0.000201556
0.000249221
0.000228228
0.000231012
0.000202039
0.000250858
0.0002258
0.0002233
0.000198615
0.000245369
0.0002246
0.00022096
0.000197786
0.000244893
0.000223162
0.00022382
0.000196083
0.00025559
0.000231183
0.000236249
0.000208688
2.27036e-06
2.49162e-06
2.50386e-06
2.28631e-06
2.27156e-06
2.56136e-06
3.76278e-06
3.94002e-06
3.69653e-06
3.67239e-06
1.6058e-06
2.56628e-06
2.31045e-06
2.26207e-06
1.28266e-06
2.15326e-06
2.24878e-06
2.23381e-06
2.34572e-06
2.24876e-06
2.26745e-06
2.20991e-06
2.29609e-06
2.23564e-06
2.31946e-06
2.32482e-06
2.66907e-06
2.29905e-06
2.28775e-06
1.29838e-06
2.25146e-06
2.30809e-06
2.28648e-06
1.21011e-06
1.51595e-06
1.22031e-06
2.01844e-06
2.21526e-06
2.26973e-06
2.25707e-06
2.20056e-06
2.24164e-06
2.18367e-06
2.23223e-06
2.14456e-06
2.86832e-06
2.29275e-06
3.54281e-06
2.27519e-06
2.24562e-06
1.27022e-06
2.22714e-06
2.286e-06
2.2661e-06
1.22132e-06
1.54039e-06
1.23522e-06
1.81556e-06
2.25576e-06
2.30302e-06
2.23665e-06
2.18251e-06
2.21405e-06
2.17669e-06
2.13339e-06
2.03939e-06
3.73363e-06
2.26867e-06
3.95801e-06
2.25082e-06
2.21837e-06
1.25641e-06
2.1963e-06
2.26576e-06
2.24432e-06
1.34146e-06
1.55935e-06
1.93903e-06
1.87563e-06
2.28423e-06
2.28171e-06
2.20478e-06
2.17168e-06
2.17972e-06
2.15652e-06
2.02803e-06
1.95151e-06
3.84787e-06
2.24478e-06
3.34075e-06
2.22612e-06
2.19075e-06
1.30003e-06
2.19848e-06
2.24354e-06
2.22092e-06
2.36671e-06
1.58115e-06
5.81429e-06
2.94769e-06
2.25984e-06
2.22164e-06
2.17114e-06
2.15017e-06
2.14621e-06
2.12594e-06
1.94487e-06
1.98149e-06
3.14385e-06
2.21773e-06
2.61096e-06
2.19286e-06
2.21036e-06
1.59371e-06
2.25214e-06
2.21915e-06
2.19488e-06
8.33821e-06
1.59362e-06
2.15672e-05
5.99128e-06
2.21008e-06
2.17795e-06
2.13589e-06
2.11487e-06
2.10664e-06
2.09695e-06
2.00166e-06
2.42757e-06
2.47599e-06
2.1837e-06
2.23974e-06
2.15437e-06
2.26634e-06
3.02053e-06
2.28582e-06
2.19215e-06
2.16626e-06
2.71809e-05
1.58948e-06
3.99545e-05
8.1952e-06
2.17112e-06
2.14053e-06
2.09542e-06
2.0869e-06
2.06246e-06
2.05641e-06
2.49547e-06
3.29375e-06
2.20115e-06
2.14254e-06
2.13797e-06
2.10411e-06
2.27444e-06
7.12775e-06
2.15994e-06
2.16254e-06
2.12996e-06
4.23223e-05
1.59284e-06
2.85387e-05
5.3639e-06
2.13421e-06
2.09913e-06
2.04907e-06
2.05275e-06
2.00846e-06
2.03673e-06
3.32893e-06
4.20962e-06
2.12133e-06
2.08875e-06
2.07343e-06
2.04373e-06
2.11755e-06
1.38894e-05
2.03143e-06
2.12552e-06
2.08707e-06
2.16098e-05
1.6048e-06
7.76554e-06
2.46012e-06
2.09174e-06
2.05058e-06
1.99284e-06
2.02785e-06
1.94497e-06
1.98174e-06
4.22958e-06
4.89624e-06
2.05623e-06
2.02706e-06
2.00145e-06
1.97591e-06
2.00746e-06
1.85963e-05
1.94327e-06
2.08125e-06
2.02589e-06
5.37109e-06
1.61125e-06
2.15848e-06
1.95815e-06
2.0415e-06
1.98588e-06
1.92734e-06
1.96164e-06
1.8706e-06
1.86674e-06
4.85551e-06
4.80522e-06
1.98299e-06
1.95836e-06
1.92214e-06
1.89743e-06
1.92314e-06
1.79156e-05
1.86121e-06
2.01767e-06
1.94916e-06
1.76799e-06
1.6011e-06
1.29836e-06
1.77712e-06
1.97511e-06
1.90665e-06
1.85088e-06
1.82168e-06
1.78687e-06
1.71742e-06
4.26558e-06
2.34349e-06
1.90156e-06
1.8752e-06
1.83725e-06
1.80529e-06
1.83971e-06
7.15854e-06
1.77569e-06
1.93965e-06
1.86821e-06
1.24198e-06
1.56794e-06
1.12253e-06
1.67297e-06
1.89398e-06
1.81522e-06
1.76409e-06
1.69047e-06
1.6927e-06
1.61152e-06
2.24833e-06
1.79836e-06
1.81363e-06
1.78059e-06
1.74035e-06
1.70597e-06
1.7534e-06
2.78833e-06
1.67815e-06
1.85706e-06
1.78491e-06
1.08573e-06
1.54122e-06
9.8203e-07
1.55733e-06
1.79896e-06
1.71505e-06
1.66623e-06
1.58913e-06
1.5868e-06
1.51536e-06
1.76623e-06
1.5932e-06
1.71386e-06
1.68e-06
1.63079e-06
1.59962e-06
1.65168e-06
1.62974e-06
1.56951e-06
1.77012e-06
1.69827e-06
9.50586e-07
1.51045e-06
8.71144e-07
1.42769e-06
1.69431e-06
1.60676e-06
1.55613e-06
1.48957e-06
1.47023e-06
1.42077e-06
1.57003e-06
1.46339e-06
1.6021e-06
1.57304e-06
1.51246e-06
1.48933e-06
1.54441e-06
1.32081e-06
1.46111e-06
1.67868e-06
1.60652e-06
8.51359e-07
1.48725e-06
8.03095e-07
1.30794e-06
1.5805e-06
1.48636e-06
1.44099e-06
1.39763e-06
1.35315e-06
1.32511e-06
1.44177e-06
1.3519e-06
1.48177e-06
1.46344e-06
1.39467e-06
1.37916e-06
1.43728e-06
1.17427e-06
1.34756e-06
1.58196e-06
1.50556e-06
7.93304e-07
1.45432e-06
7.61555e-07
1.20471e-06
1.45823e-06
1.36363e-06
1.3247e-06
1.30044e-06
1.25937e-06
1.22731e-06
1.32528e-06
1.25829e-06
1.36672e-06
1.35481e-06
1.29476e-06
1.27384e-06
1.32694e-06
1.09286e-06
1.24679e-06
1.47608e-06
1.40175e-06
7.58351e-07
1.39782e-06
7.41488e-07
1.12697e-06
1.34166e-06
1.26817e-06
1.2384e-06
1.19754e-06
1.18383e-06
1.15149e-06
1.23373e-06
1.18543e-06
1.27513e-06
1.26321e-06
1.21515e-06
1.19849e-06
1.22192e-06
1.04941e-06
1.18246e-06
1.37161e-06
1.31002e-06
7.43828e-07
1.30396e-06
7.89668e-07
1.09359e-06
1.25819e-06
1.2484e-06
1.18231e-06
1.14128e-06
1.15405e-06
1.08932e-06
1.17902e-06
1.11638e-06
1.2127e-06
1.19125e-06
1.17702e-06
1.19785e-06
1.15763e-06
1.01405e-06
1.18184e-06
1.28506e-06
1.29066e-06
7.88894e-07
1.26011e-06
8.82542e-07
1.14345e-06
1.23441e-06
1.38111e-06
1.14898e-06
1.127e-06
1.24839e-06
1.1933e-06
1.13547e-06
1.28849e-06
1.17035e-06
1.18348e-06
1.26492e-06
1.2709e-06
1.18439e-06
1.11177e-06
1.15428e-06
1.27366e-06
1.44466e-06
9.29606e-07
1.33173e-06
1.08416e-06
1.14048e-06
1.42446e-06
1.51232e-06
1.24571e-06
1.1856e-06
1.3656e-06
1.38062e-06
1.26427e-06
1.90006e-06
1.26538e-06
1.28784e-06
1.36876e-06
1.3514e-06
1.2177e-06
1.33832e-06
1.4099e-06
1.47032e-06
1.59446e-06
1.17618e-06
1.39769e-06
1.4878e-06
1.82815e-06
1.65531e-06
2.22549e-06
1.45173e-06
1.52234e-06
1.6345e-06
1.54878e-06
2.29881e-06
1.79124e-06
1.45242e-06
1.47382e-06
1.62315e-06
1.69082e-06
1.41226e-06
1.50654e-06
1.65631e-06
1.98965e-06
2.4717e-06
1.52021e-06
1.72121e-06
2.19577e-06
2.24195e-06
2.25846e-06
3.49308e-06
1.74434e-06
1.52554e-06
2.03572e-06
2.19593e-06
1.74082e-06
4.68466e-06
1.76132e-06
1.76519e-06
1.99076e-06
1.88216e-06
1.81661e-06
2.15636e-06
2.00745e-06
2.42731e-06
2.65281e-06
2.42989e-06
1.84051e-06
3.07577e-06
3.60437e-06
3.58455e-06
5.56311e-06
2.23911e-06
2.43645e-06
2.72153e-06
2.68282e-06
5.05465e-06
4.55126e-06
2.18408e-06
2.10276e-06
2.84477e-06
2.85241e-06
2.27517e-06
2.61622e-06
2.75042e-06
3.03067e-06
5.81872e-06
3.57862e-06
2.83183e-06
4.35058e-06
4.87926e-06
5.94757e-06
8.24168e-06
2.80063e-06
2.72358e-06
4.03594e-06
4.46763e-06
4.44648e-06
1.28213e-05
2.89379e-06
2.96217e-06
3.91809e-06
3.7634e-06
2.80146e-06
4.50718e-06
4.88782e-06
6.3422e-06
7.53458e-06
4.4446e-06
4.00632e-06
7.67347e-06
1.74749e-05
9.75399e-06
1.0908e-05
4.38017e-06
4.6942e-06
4.60523e-06
4.45225e-06
1.38225e-05
6.97345e-06
4.31547e-06
3.94651e-06
4.60857e-06
5.1164e-06
5.30619e-06
4.35599e-06
5.10567e-06
8.17139e-06
1.15985e-05
8.29439e-06
5.0453e-06
6.26404e-06
9.80653e-06
1.10544e-05
1.60563e-05
4.76816e-06
4.37261e-06
6.74484e-06
7.6436e-06
6.64441e-06
2.4219e-05
4.95185e-06
5.71038e-06
6.5511e-06
6.36987e-06
5.05644e-06
7.48359e-06
7.53116e-06
1.25486e-05
1.68125e-05
5.6695e-06
6.28401e-06
6.24927e-06
2.31809e-05
1.80136e-05
2.40934e-05
7.04987e-06
9.22997e-06
9.3019e-06
9.37776e-06
2.98212e-05
2.49463e-05
6.86359e-06
6.47992e-06
9.33698e-06
8.94964e-06
7.83392e-06
9.45955e-06
8.16503e-06
1.68605e-05
2.34598e-05
7.74607e-06
8.93036e-06
1.21301e-05
2.38888e-05
2.48509e-05
2.99459e-05
1.01058e-05
9.20624e-06
1.06748e-05
1.272e-05
2.23834e-05
3.84944e-05
1.01621e-05
9.40787e-06
1.07616e-05
1.14222e-05
8.90113e-06
1.29723e-05
1.12402e-05
2.6678e-05
3.01113e-05
1.27845e-05
1.15133e-05
1.26604e-05
3.07257e-05
2.99277e-05
3.7163e-05
1.08082e-05
1.55174e-05
1.41599e-05
1.64322e-05
4.59392e-05
4.56375e-05
1.08141e-05
1.20923e-05
1.40231e-05
1.34628e-05
1.17696e-05
1.57684e-05
1.37524e-05
3.06541e-05
3.71349e-05
1.24342e-05
1.32714e-05
1.31807e-05
3.6521e-05
4.12803e-05
4.56015e-05
1.56729e-05
1.57525e-05
1.80266e-05
1.47569e-05
4.2062e-05
3.65445e-05
1.54758e-05
1.41518e-05
1.81272e-05
1.75886e-05
1.49339e-05
1.45072e-05
1.73029e-05
3.78401e-05
4.34384e-05
1.46499e-05
1.767e-05
1.69452e-05
4.43668e-05
4.61156e-05
4.83015e-05
1.82887e-05
1.60621e-05
1.99839e-05
2.09823e-05
3.97521e-05
5.23654e-05
1.84055e-05
1.88203e-05
1.97219e-05
2.09841e-05
1.79323e-05
2.11946e-05
2.07335e-05
4.60419e-05
5.17681e-05
1.74437e-05
2.08367e-05
2.08377e-05
4.94246e-05
4.903e-05
6.01959e-05
2.10631e-05
2.20638e-05
2.62892e-05
2.54478e-05
5.35841e-05
5.74638e-05
2.07843e-05
2.17948e-05
2.65817e-05
2.54235e-05
2.21651e-05
2.54132e-05
2.54131e-05
5.23545e-05
5.67863e-05
2.20915e-05
2.54623e-05
2.52343e-05
5.87069e-05
6.22735e-05
6.3252e-05
2.80816e-05
2.64688e-05
3.00347e-05
2.92943e-05
5.86625e-05
6.30386e-05
2.83604e-05
2.61357e-05
2.96909e-05
2.91779e-05
2.66573e-05
2.92486e-05
2.99824e-05
5.79639e-05
6.32183e-05
2.63361e-05
2.90351e-05
2.98967e-05
6.30191e-05
6.35773e-05
6.70237e-05
3.00468e-05
3.10009e-05
3.36946e-05
3.44439e-05
6.42993e-05
6.80086e-05
2.96691e-05
3.12303e-05
3.37448e-05
3.58131e-05
3.10103e-05
3.44335e-05
3.41271e-05
6.492e-05
6.84834e-05
3.07564e-05
3.57419e-05
3.42002e-05
6.80273e-05
6.88351e-05
7.47649e-05
3.59979e-05
3.47914e-05
4.0922e-05
4.04754e-05
6.90338e-05
7.46351e-05
3.61131e-05
3.60227e-05
4.10061e-05
3.8883e-05
3.57817e-05
4.04285e-05
4.03811e-05
6.89746e-05
7.46916e-05
3.57302e-05
3.88802e-05
4.00594e-05
7.39671e-05
7.5456e-05
7.76529e-05
4.16351e-05
4.30355e-05
4.52176e-05
4.58464e-05
7.60014e-05
7.70449e-05
4.16857e-05
4.23201e-05
4.52768e-05
4.84134e-05
4.17747e-05
4.58534e-05
4.53288e-05
7.67707e-05
7.87551e-05
4.15519e-05
4.8046e-05
4.53304e-05
7.80344e-05
7.88091e-05
8.24953e-05
4.70016e-05
4.57985e-05
5.07621e-05
4.92945e-05
7.72928e-05
8.4582e-05
4.71487e-05
4.85359e-05
5.06841e-05
4.80951e-05
4.66953e-05
4.92846e-05
5.11167e-05
7.8857e-05
8.05204e-05
4.66468e-05
4.79593e-05
5.09161e-05
8.24911e-05
8.33484e-05
8.7442e-05
5.21975e-05
5.46467e-05
5.84666e-05
6.15313e-05
8.73264e-05
8.76586e-05
5.1825e-05
4.99071e-05
5.80641e-05
5.91656e-05
5.25841e-05
6.15527e-05
5.80788e-05
8.2203e-05
8.88247e-05
5.22149e-05
5.93162e-05
5.79456e-05
8.71841e-05
8.83802e-05
9.02296e-05
5.99065e-05
6.12164e-05
6.19323e-05
5.96298e-05
8.74321e-05
8.60244e-05
5.99084e-05
6.13352e-05
6.26479e-05
6.29728e-05
5.98186e-05
5.95163e-05
6.18811e-05
8.95145e-05
9.02935e-05
5.95304e-05
6.24864e-05
6.23198e-05
9.04774e-05
9.08919e-05
9.53745e-05
6.31631e-05
5.93708e-05
7.02123e-05
7.24685e-05
8.76677e-05
9.90517e-05
6.3582e-05
6.29753e-05
6.96643e-05
6.96902e-05
6.39371e-05
7.07028e-05
6.96e-05
9.07787e-05
9.47885e-05
6.44048e-05
6.97865e-05
6.92493e-05
9.49797e-05
9.65587e-05
9.86826e-05
7.24417e-05
7.69911e-05
7.6095e-05
7.98351e-05
0.000100532
9.95732e-05
7.18089e-05
7.19618e-05
7.55711e-05
7.4869e-05
7.01349e-05
7.89657e-05
7.66697e-05
9.61684e-05
9.86573e-05
7.02128e-05
7.44956e-05
7.60537e-05
9.88936e-05
9.91883e-05
0.000101976
7.66937e-05
7.91832e-05
8.0039e-05
7.74232e-05
9.93753e-05
9.95911e-05
7.65334e-05
7.62553e-05
8.07738e-05
8.26338e-05
7.80664e-05
7.70398e-05
8.09319e-05
9.92417e-05
0.000102844
7.76137e-05
8.28684e-05
8.1092e-05
0.000102293
0.000103057
0.000107229
8.22046e-05
7.74013e-05
8.89069e-05
9.10715e-05
0.000101111
0.00010922
8.26668e-05
8.3737e-05
8.84177e-05
8.54546e-05
8.30695e-05
9.10335e-05
8.70704e-05
0.000103571
0.000105301
8.26066e-05
8.49184e-05
8.72865e-05
0.000106457
0.000107873
0.000109505
9.04057e-05
9.29741e-05
9.26996e-05
9.29488e-05
0.000109558
0.000108652
8.99531e-05
8.79081e-05
9.25938e-05
9.6416e-05
8.8755e-05
9.25106e-05
9.39578e-05
0.000106419
0.000112004
8.88725e-05
9.65002e-05
9.39077e-05
0.000110384
0.000110095
0.000114386
9.36809e-05
9.28442e-05
9.97946e-05
9.92382e-05
0.00010898
0.000114733
9.37379e-05
9.74155e-05
9.9862e-05
9.70516e-05
9.46358e-05
9.86503e-05
9.97303e-05
0.00011231
0.000111647
9.51765e-05
9.73368e-05
9.94768e-05
0.000113989
0.000115317
0.000117201
0.000101679
0.000101183
0.000104084
0.000104357
0.000115624
0.00011734
0.000101338
9.68663e-05
0.000103902
0.000105724
0.000101545
0.000105037
0.000103103
0.000111829
0.000119106
0.000101028
0.000105516
0.000102817
0.000116643
0.000117673
0.000121694
0.000105126
0.000104917
0.000110546
0.000109584
0.000117736
0.000120473
0.000105395
0.000108054
0.000110531
0.000111302
0.000104097
0.000108923
0.000111775
0.000120636
0.00012196
0.000104108
0.000110904
0.00011214
0.000122741
0.000122572
0.00012428
0.000112277
0.000111581
0.000114523
0.000114693
0.000121457
0.000125339
0.00011191
0.000112173
0.000114634
0.000114431
0.000113857
0.000115342
0.000115015
0.000122135
0.000124181
0.000113906
0.000114813
0.000114437
0.000124241
0.000124609
0.000128639
0.00011521
0.00011587
0.000120534
0.000121927
0.000125831
0.000129015
0.000115624
0.000115325
0.0001202
0.000119417
0.00011484
0.000121308
0.000119548
0.000124774
0.000127843
0.000114733
0.000119014
0.000119514
0.000128098
0.000129614
0.000131838
0.000122362
0.000123473
0.000125331
0.000124251
0.00012984
0.000130694
0.000121727
0.000121507
0.000125784
0.000126508
0.000122115
0.000124606
0.000125847
0.000128934
0.000132655
0.000121646
0.000126669
0.000125954
0.000131977
0.000132115
0.000134027
0.000125917
0.000124051
0.000128301
0.000127877
0.000130646
0.000134158
0.00012671
0.00012693
0.000127686
0.000127045
0.000125896
0.000127072
0.00012779
0.000132741
0.000132935
0.000126264
0.000126898
0.000128063
0.000134373
0.000134782
0.000139513
0.000129994
0.000131308
0.000135804
0.000136065
0.000135874
0.000139107
0.000128857
0.00012823
0.000135809
0.000136448
0.00013062
0.000136548
0.000137146
0.000133806
0.000140524
0.000130201
0.000136787
0.000136842
0.000140109
0.000140103
0.000140043
0.000136766
0.000136152
0.000137101
0.000136699
0.000139115
0.000140961
0.000137533
0.000138096
0.000138524
0.00013869
0.000137553
0.000137003
0.00013684
0.000140987
0.000139839
0.000137605
0.000138203
0.000137176
0.000138358
0.000139912
0.000144595
0.000137155
0.000139337
0.000143177
0.000145657
0.000142196
0.000146162
0.000138416
0.000138484
0.000140078
0.000139498
0.000136557
0.000145052
0.000142131
0.000139667
0.000144132
0.000136947
0.000140274
0.000140659
0.000145884
0.000146464
0.000148169
0.000146072
0.000146073
0.000148955
0.000145045
0.000146052
0.000143804
0.000144081
0.000143534
0.000149653
0.000149747
0.000146324
0.000145241
0.000150068
0.000146192
0.000148528
0.000145301
0.000149688
0.000150499
0.000148812
0.000147899
0.000147237
0.000148763
0.000144766
0.000147893
0.000145094
0.000143667
0.000147039
0.000149711
0.000149953
0.000148942
0.000149567
0.000149841
0.000145227
0.000148682
0.000148393
0.0001489
0.000150409
0.000149329
0.000149387
0.000147417
0.000148432
0.000154701
0.000148195
0.000149526
0.00015739
0.00016092
0.000149919
0.000158906
0.000149048
0.000150579
0.000156539
0.000155118
0.000148525
0.000161002
0.000156185
0.000150082
0.000152281
0.000149167
0.000154842
0.00015577
0.000154023
0.000154749
0.000154888
0.0001587
0.000161481
0.000159015
0.000160052
0.000158812
0.000154023
0.000157614
0.000155397
0.000158275
0.000157298
0.00015764
0.000160311
0.000158536
0.000152144
0.000154925
0.000157151
0.000158381
0.00015802
0.00015441
0.000155634
0.000157092
0.000159542
0.000159587
0.000161857
0.000160689
0.000153778
0.000157357
0.00015974
0.000159876
0.000162486
0.000163778
0.000158922
0.000160431
0.000163938
0.000156417
0.000158681
0.000158999
0.000162982
0.000163862
0.000159517
0.000156985
0.00016015
0.00016204
0.000162217
0.000164284
0.000164753
0.000158197
0.000158946
0.000162619
0.000164005
0.00016409
0.000167604
0.000164653
0.000164262
0.000164819
0.000158686
0.000162327
0.000164465
0.000167861
0.000164878
0.000158493
0.000162159
0.000164927
0.000167554
0.000166534
0.00017256
0.000170455
0.00015937
0.000163834
0.000167377
0.000168512
0.000172475
0.000168815
0.000164711
0.000170713
0.000170094
0.000162497
0.000160469
0.000165206
0.000169131
0.000170229
0.000163947
0.000164692
0.000163844
0.000172763
0.000170761
0.000172244
0.00017471
0.000164039
0.00016761
0.000172631
0.000168718
0.000171968
0.000171625
0.000171843
0.000174831
0.000173329
0.000160253
0.000166313
0.000171321
0.000171271
0.00017246
0.000165391
0.000164232
0.000166119
0.000172335
0.000176272
0.000175666
0.00017672
0.000168389
0.000165659
0.000171839
0.000175153
0.000175322
0.00017883
0.00017435
0.000176611
0.000177536
0.00016814
0.00016965
0.000173007
0.000179494
0.000178354
0.000168504
0.000166108
0.000171176
0.000176019
0.000175868
0.000178469
0.000175621
0.000164558
0.000165033
0.000175834
0.000178781
0.000179347
0.000177823
0.000177616
0.000175243
0.00017741
0.000169131
0.000166459
0.000179014
0.000177984
0.000178959
0.000167239
0.000173625
0.000179271
0.000182224
0.000176957
0.000188629
0.000190104
0.000168061
0.000182011
0.000183093
0.000177709
0.000188825
0.00018446
0.000177387
0.000189933
0.000185387
0.000166385
0.000174885
0.00017881
0.000180688
0.000181701
0.000175441
0.000178395
0.000168484
0.000188674
0.000190522
0.000183772
0.000184699
0.000182006
0.000168364
0.000188847
0.000187939
0.000183676
0.000190396
0.000187686
0.000185923
0.000188638
0.000176779
0.000179141
0.000185142
0.000191134
0.000189206
0.0001751
0.000167927
0.000170158
0.000182375
0.000181913
0.000181584
0.000180594
0.000166802
0.000169088
0.000182207
0.000189894
0.000181361
0.000184014
0.000187942
0.000181856
0.000186712
0.00017782
0.000169899
0.000189173
0.000185821
0.000187894
0.000174122
0.000171582
0.000184601
0.000182237
0.000181623
0.000195775
0.000199734
0.000171699
0.000189504
0.000182133
0.000183821
0.000195467
0.000188638
0.000186652
0.000198948
0.000189086
0.000169656
0.000178925
0.000187647
0.000186833
0.000187904
0.000176752
0.000186322
0.000188398
0.000199769
0.000202997
0.000203305
0.000203837
0.000190547
0.00018614
0.000199259
0.000194493
0.000202859
0.000202071
0.00019298
0.000202756
0.000200303
0.000181592
0.000187952
0.000189634
0.000201128
0.000199548
0.000185815
0.000186943
0.000176089
0.000203056
0.000201359
0.000193659
0.000188037
0.000182926
0.000169306
0.000202702
0.00020223
0.000194811
0.000197436
0.000200544
0.000188312
0.000197237
0.000187297
0.000179481
0.00020017
0.000198077
0.000198401
0.000179868
0.000175357
0.000177505
0.000191618
0.000187339
0.000190706
0.00019102
0.000169033
0.000182424
0.000192793
0.000195257
0.000191675
0.000193345
0.00019516
0.000191218
0.000193708
0.00017874
0.000178223
0.00019668
0.000194154
0.000195298
0.00017929
0.00017888
0.000188016
0.000191951
0.00019845
0.000203923
0.000210004
0.000185759
0.000194924
0.000192331
0.000193237
0.000202449
0.000198598
0.000193768
0.000209778
0.000202022
0.000178542
0.000183186
0.000195247
0.000198165
0.000200381
0.000185869
0.000189147
0.000191433
0.000206646
0.00021048
0.00020956
0.00020801
0.000194473
0.000186859
0.000205252
0.000201152
0.000209528
0.000210136
0.000204796
0.000207709
0.000208999
0.000184337
0.000193223
0.000202645
0.000210073
0.000208477
0.000190749
0.000191129
0.000187386
0.000209692
0.00020638
0.000206766
0.00020494
0.000186142
0.000186516
0.000209665
0.000211978
0.000207981
0.000212737
0.000209143
0.000205163
0.000207457
0.00019407
0.000194015
0.000209291
0.000213089
0.000209326
0.000188352
0.000187129
0.000188529
0.000206393
0.000204808
0.000206869
0.000207444
0.000187072
0.000189098
0.000206914
0.000211766
0.000205891
0.000202947
0.000206827
0.000207325
0.000206563
0.000192275
0.000182273
0.000208307
0.000203075
0.000206444
0.000188126
0.000188818
0.000188945
0.000208052
0.00020771
0.000208935
0.000208053
0.000188732
0.000187391
0.000205852
0.000202023
0.000207839
0.000202747
0.000207387
0.000207431
0.000208023
0.000181709
0.000185814
0.000206313
0.000202397
0.000206799
0.000188301
0.000188793
0.000191133
0.000208967
0.000208197
0.000209792
0.00021311
0.000187323
0.00019522
0.000208238
0.000206464
0.000211614
0.000217502
0.000208042
0.000213213
0.000209145
0.000188
0.000198672
0.000207109
0.000217502
0.000211006
0.000190645
0.0001925
0.000197848
0.000211847
0.000215314
0.000218357
0.000217838
0.000196095
0.000196844
0.000214047
0.000219293
0.000218797
0.000220389
0.000211786
0.000218457
0.000219149
0.000199146
0.000198393
0.00021367
0.000220727
0.000219309
0.000198227
0.000197794
0.000194225
0.000218688
0.000217914
0.000217554
0.000215558
0.000196393
0.000193012
0.000218976
0.000220069
0.000217394
0.000214375
0.000219672
0.000216019
0.00021935
0.00019757
0.000191383
0.000219646
0.000214686
0.000218929
0.000195769
0.000193152
0.000190993
0.000215703
0.000214167
0.000213276
0.0002124
0.000192112
0.000190007
0.000215614
0.00021284
0.000213353
0.000211544
0.000217349
0.000212361
0.000213764
0.00019042
0.000189405
0.000216966
0.000211286
0.000213827
0.000191571
0.000190824
0.000197445
0.000213294
0.000212481
0.000218033
0.000218707
0.000189797
0.000198273
0.000213373
0.000211762
0.000217779
0.000218108
0.000213683
0.000218313
0.000216398
0.000189859
0.000197329
0.000213764
0.000217916
0.000216019
0.000195323
0.000198466
0.000200366
0.000220786
0.000221348
0.000223444
0.000223851
0.000199179
0.000200087
0.000220474
0.000220688
0.000223354
0.00022459
0.00021844
0.000223705
0.000222252
0.000198318
0.000201532
0.000217762
0.000224614
0.000222456
0.000198774
0.000199571
0.000197298
0.000223765
0.000224117
0.00022189
0.000223232
0.000199695
0.0001993
0.000223728
0.000224826
0.000221829
0.000223414
0.000223132
0.000223547
0.000224038
0.000201487
0.000198721
0.000223675
0.00022472
0.000224685
0.000200894
0.000197125
0.000198301
0.000221793
0.000223081
0.000221728
0.000220729
0.00019913
0.0001961
0.000221572
0.000221889
0.000221372
0.000218969
0.000224116
0.000220654
0.000220973
0.000197726
0.000194504
0.000224764
0.000218422
0.000220062
0.000195463
0.000198102
0.000195608
0.000221611
0.000219401
0.000219892
0.00021825
0.000194956
0.000193639
0.000221278
0.000218516
0.000220084
0.000218688
0.00021976
0.00021825
0.00021914
0.000194266
0.000194846
0.000219045
0.000218168
0.000218964
0.000195683
0.000195429
0.000198988
0.000219856
0.000218532
0.000222234
0.000225275
0.000194084
0.000202369
0.000220094
0.000219002
0.00022235
0.000226023
0.000219664
0.000225693
0.000224974
0.000195176
0.00020283
0.000220125
0.000226687
0.000225234
0.000201126
0.000199917
0.000202731
0.000224534
0.000226886
0.000227393
0.000228153
0.000202762
0.000202051
0.000224808
0.000228029
0.000227879
0.000229395
0.000225521
0.000228021
0.00022569
0.000203525
0.000204198
0.000225653
0.000229069
0.000225765
0.000199096
0.000202644
0.000199183
0.000227646
0.000227697
0.000225724
0.000223949
0.000201089
0.000197721
0.0002281
0.000229302
0.00022534
0.000222527
0.000224814
0.000223742
0.000224415
0.00020269
0.000195552
0.000224882
0.000222496
0.000224433
0.000199014
0.000198181
0.000197265
0.000224393
0.000223575
0.000223537
0.000223966
0.000197525
0.0001995
0.00022382
0.00022177
0.000222923
0.000222662
0.000224611
0.000224689
0.00022658
0.000195188
0.000199638
0.000224604
0.000224079
0.00022678
0.000201498
0.000197559
0.000203603
0.000223798
0.000224894
0.000228238
0.000227808
0.000200171
0.000202671
0.000223374
0.00022543
0.000228977
0.000230829
0.000227105
0.000227933
0.000227962
0.000201092
0.000206222
0.000227497
0.000230733
0.00022845
0.000202236
0.00020367
0.000201081
0.000228746
0.000228098
0.000228864
0.000227325
0.000202533
0.000199667
0.000229486
0.000231099
0.00022915
0.000227037
0.000228075
0.000226623
0.000226227
0.000206064
0.000198145
0.000228547
0.000225667
0.000225684
0.000199101
0.000199972
0.000196913
0.000227098
0.000226306
0.000223551
0.000224903
0.000199241
0.000198916
0.000226908
0.000224251
0.000222716
0.000220617
0.000225335
0.000224918
0.000224147
0.000196671
0.00019472
0.000224601
0.000220884
0.000223271
0.000197952
0.000196663
0.000196104
0.000222917
0.000224427
0.000222421
0.000222699
0.000198742
0.000196063
0.000222145
0.000220576
0.000222239
0.000222001
0.000223815
0.000222903
0.000222756
0.000194821
0.000196916
0.000223145
0.000222953
0.000223229
0.00019629
0.000195969
0.000204702
0.000222867
0.000222983
0.000229735
0.000228632
0.000195745
0.000203173
0.000222699
0.000222899
0.000231132
0.000235253
0.000223136
0.000228664
0.000229268
0.000197143
0.000208555
0.0002237
0.00023503
0.000230532
0.000204208
0.000209086
0.000232373
0.000231178
0.000207678
0.000233547
0.000236495
0.000253875
0.000259414
0.000255755
0.000231989
0.000212231
0.000232921
1.51167e-05
2.15918e-06
8.51083e-06
8.45806e-06
6.80247e-07
1.50136e-06
7.33667e-07
3.75041e-06
7.38742e-07
1.99733e-06
3.91678e-06
3.12706e-06
2.1793e-06
1.7865e-06
9.8025e-07
1.22608e-06
1.46744e-05
1.13259e-06
1.64459e-05
1.08208e-05
1.30929e-05
1.3293e-06
1.40846e-05
1.24729e-06
1.58915e-05
3.89633e-06
3.65754e-06
3.6397e-06
3.72262e-06
3.91606e-06
3.64277e-06
3.73569e-06
7.88669e-07
4.88976e-07
1.83006e-06
1.33018e-06
7.7068e-07
6.04255e-07
1.82864e-06
1.10038e-05
1.32454e-05
7.58104e-07
1.59237e-06
4.22586e-07
1.50969e-06
7.55685e-07
1.58168e-06
5.31258e-07
1.46354e-06
1.46737e-06
2.1174e-06
1.71275e-06
1.68506e-06
1.38324e-06
1.94615e-05
1.31124e-06
2.1896e-05
1.72528e-05
1.90323e-05
1.51943e-06
1.91512e-05
1.4383e-06
2.17172e-05
3.94454e-06
3.65248e-06
3.77177e-06
3.79778e-06