/*--------------------------------*- C++ -*----------------------------------*\
| =========                 |                                                 |
| \\      /  F ield         | OpenFOAM: The Open Source CFD Toolbox           |
|  \\    /   O peration     | Version:  v2012                                 |
|   \\  /    A nd           | Website:  www.openfoam.com                      |
|    \\/     M anipulation  |                                                 |
\*---------------------------------------------------------------------------*/
FoamFile
{
    version     2.0;
    format      ascii;
    class       volScalarField;
    location    "525";
    object      p;
}
// * * * * * * * * * * * * * * * * * * * * * * * * * * * * * * * * * * * * * //

dimensions      [0 2 -2 0 0 0 0];


internalField   nonuniform List<scalar> 
171728
(
0.0035202
0.00351837
0.00352013
0.00351979
0.00348482
0.00348322
0.00348374
0.00348637
0.00344645
0.00344455
0.00344466
0.00344697
0.00340234
0.00340069
0.00340076
0.00340298
0.00335415
0.00335269
0.00335257
0.00335507
0.00330526
0.00330398
0.00330391
0.00330635
0.00325706
0.00325586
0.00325577
0.00325819
0.00320979
0.00320874
0.00320875
0.00321107
0.00316346
0.00316254
0.00316256
0.0031649
0.00311808
0.00311729
0.0031172
0.00311966
0.00307363
0.00307294
0.00307291
0.0030753
0.00302999
0.00302935
0.00302939
0.00303179
0.00298686
0.00298636
0.00298646
0.00298871
0.00294413
0.0029436
0.00294383
0.00294605
0.00290178
0.00290161
0.00290155
0.00290381
0.00285969
0.00285943
0.00285941
0.00286183
0.00281793
0.00281781
0.0028176
0.00281999
0.00277662
0.00277668
0.00277641
0.00277867
0.00273563
0.00273553
0.00273561
0.00273759
0.00269487
0.00269499
0.00269498
0.00269703
0.00265471
0.00265479
0.00265482
0.00265672
0.00261454
0.00261467
0.0026146
0.0026163
0.00257484
0.00257498
0.00257494
0.00257672
0.00253543
0.00253561
0.00253555
0.0025369
0.00249636
0.00249666
0.00249677
0.00249922
0.00245729
0.00245747
0.0024577
0.00245859
0.00241853
0.0024187
0.00241894
0.00242167
0.00238017
0.00238075
0.00238047
0.00238219
0.00234176
0.00234204
0.00234218
0.00234419
0.00230345
0.00230392
0.00230397
0.00230574
0.00226554
0.00226614
0.00226606
0.00226798
0.00222781
0.00222845
0.00222841
0.00223033
0.00219004
0.00219049
0.00219069
0.00219246
0.0021524
0.00215297
0.00215292
0.00215475
0.00211516
0.00211586
0.00211578
0.00211776
0.00207793
0.00207836
0.00207852
0.00208023
0.0020406
0.00204114
0.00204089
0.00204294
0.00200367
0.00200409
0.00200425
0.00200601
0.00196704
0.00196765
0.00196755
0.00196967
0.00193015
0.00193001
0.00193035
0.00193207
0.00189322
0.00189386
0.00189324
0.00189537
0.00185733
0.00185738
0.00185772
0.00186012
0.00182117
0.0018212
0.00182139
0.00182288
0.00178438
0.00178444
0.0017841
0.00178639
0.00174814
0.00174809
0.00174833
0.0017504
0.00171243
0.00171285
0.00171259
0.00171462
0.00167679
0.00167648
0.00167652
0.00167868
0.00164133
0.00164072
0.00164108
0.00164293
0.0016052
0.00160517
0.00160505
0.00160723
0.00156956
0.00156965
0.00156948
0.00157161
0.0015344
0.00153396
0.00153405
0.00153605
0.00149894
0.00149883
0.00149861
0.00150068
0.00146367
0.00146333
0.00146368
0.00146561
0.00142859
0.00142811
0.00142821
0.00143016
0.0013936
0.00139375
0.00139317
0.00139534
0.00135868
0.00135816
0.00135855
0.00136047
0.00132363
0.00132326
0.00132336
0.0013252
0.00128894
0.00128875
0.00128854
0.00129059
0.0012541
0.0012539
0.00125393
0.00125588
0.00121924
0.00121896
0.00121901
0.00122087
0.00118488
0.00118449
0.00118447
0.00118638
0.00114997
0.00114981
0.00115005
0.00115189
0.00111548
0.00111536
0.00111506
0.00111709
0.00108089
0.00108058
0.00108061
0.00108245
0.00104644
0.00104616
0.00104643
0.00104829
0.00101172
0.00101168
0.0010115
0.0010135
0.000977389
0.00097723
0.000977176
0.000979055
0.000942993
0.000942786
0.000942722
0.000944614
0.000908328
0.000908098
0.000908219
0.000910185
0.000873897
0.000873662
0.000873889
0.000875707
0.000839323
0.00083948
0.000839158
0.000841109
0.000805044
0.000804905
0.0008047
0.00080677
0.000770447
0.00077001
0.00077043
0.000772228
0.000735819
0.000735863
0.000735985
0.000737858
0.000701241
0.000701164
0.000700917
0.000702911
0.000666758
0.000666776
0.000666371
0.00066858
0.000632197
0.000632153
0.000632413
0.000634174
0.000597219
0.000596882
0.000597241
0.000599101
0.00056241
0.00056228
0.0005619
0.000563956
0.000528576
0.000528959
0.000528401
0.000530466
0.000492448
0.000492148
0.000493045
0.000494841
0.000457039
0.000457166
0.000456467
0.000458664
0.000423907
0.000424087
0.000423476
0.000425348
0.000388989
0.000388438
0.000389364
0.000391121
0.000351641
0.000351535
0.000351822
0.000353916
0.00031688
0.000317445
0.00031653
0.000318743
0.0002837
0.000283574
0.000283399
0.000285455
0.000248151
0.000247338
0.000248456
0.000249917
0.000211498
0.000211778
0.000211547
0.000213586
0.000175531
0.000176083
0.000175056
0.000177741
0.000140324
0.000140102
0.00014075
0.000142395
0.00010559
0.000105295
0.000105742
0.000107364
7.03943e-05
7.02975e-05
6.97981e-05
7.20737e-05
3.42628e-05
3.36598e-05
3.35222e-05
3.54935e-05
5.32312e-06
6.39747e-06
6.62865e-06
4.68161e-06
0.0035246
0.0035221
0.00352147
0.00352376
0.00352224
0.00352278
0.00352848
0.00352776
0.00352911
0.0035279
0.00352123
0.00352064
0.00352537
0.00352307
0.00352257
0.00352333
0.00351988
0.00349093
0.0035191
0.00351866
0.00349267
0.0034925
0.00351916
0.00349074
0.00351925
0.00351969
0.00349276
0.00349302
0.00351835
0.00349247
0.00349273
0.00352063
0.00349133
0.00352046
0.0034933
0.0034934
0.00349108
0.00348624
0.00345239
0.0034834
0.00348329
0.00345459
0.0034546
0.00348605
0.00345236
0.00348349
0.00348364
0.00345464
0.00345472
0.00348349
0.00345462
0.00345463
0.00348653
0.00345247
0.00348376
0.00345454
0.0034548
0.00345246
0.00344689
0.00340909
0.0034446
0.00344455
0.00341211
0.00341211
0.00344686
0.00340907
0.00344465
0.00344467
0.00341212
0.00341214
0.00344465
0.00341212
0.00341216
0.00344694
0.0034091
0.00344479
0.00341202
0.00341216
0.00340916
0.00340291
0.00336153
0.00340067
0.0034007
0.00336489
0.00336488
0.00340289
0.00336153
0.00340068
0.0034007
0.0033649
0.00336486
0.00340068
0.00336492
0.00336489
0.00340293
0.00336153
0.00340074
0.00336469
0.00336504
0.00336154
0.00335505
0.00331276
0.0033527
0.00335271
0.00331614
0.00331612
0.00335505
0.00331277
0.00335272
0.00335273
0.00331615
0.00331613
0.00335272
0.00331613
0.00331612
0.00335506
0.00331277
0.00335281
0.00331619
0.00331625
0.0033128
0.00330631
0.00326454
0.00330395
0.00330396
0.00326779
0.00326782
0.00330632
0.00326453
0.00330397
0.00330393
0.00326781
0.0032678
0.00330396
0.00326781
0.00326771
0.00330632
0.00326454
0.00330385
0.00326789
0.00326788
0.0032645
0.00325822
0.00321728
0.00325587
0.00325584
0.0032204
0.00322043
0.0032582
0.00321726
0.00325588
0.00325588
0.00322043
0.00322042
0.00325586
0.00322044
0.00322041
0.00325823
0.00321725
0.00325586
0.00322052
0.00322045
0.00321723
0.0032111
0.00317095
0.00320875
0.00320876
0.00317399
0.00317403
0.00321109
0.00317095
0.00320873
0.00320873
0.00317401
0.00317402
0.00320875
0.00317402
0.003174
0.00321108
0.00317092
0.00320873
0.00317402
0.00317395
0.00317094
0.00316491
0.00312555
0.00316253
0.00316251
0.00312848
0.00312849
0.00316489
0.00312555
0.00316253
0.00316253
0.00312849
0.00312851
0.00316255
0.00312849
0.00312854
0.00316488
0.00312554
0.0031625
0.00312847
0.00312851
0.00312559
0.00311965
0.00308108
0.00311726
0.00311726
0.00308394
0.00308397
0.00311964
0.00308108
0.00311727
0.00311724
0.00308393
0.00308397
0.00311728
0.00308392
0.00308395
0.00311963
0.00308109
0.00311727
0.00308392
0.00308394
0.00308108
0.00307531
0.00303742
0.00307292
0.00307292
0.00304022
0.00304014
0.00307531
0.00303742
0.00307294
0.00307293
0.00304021
0.0030402
0.00307293
0.0030402
0.0030402
0.00307529
0.00303743
0.00307291
0.00304021
0.00304023
0.00303747
0.00303175
0.00299432
0.0030294
0.00302931
0.00299707
0.002997
0.00303176
0.00299427
0.00302942
0.00302938
0.00299707
0.00299703
0.00302942
0.00299707
0.00299708
0.00303178
0.00299438
0.00302945
0.00299702
0.00299704
0.00299433
0.00298871
0.00295158
0.00298638
0.00298644
0.0029544
0.00295428
0.00298874
0.00295144
0.00298637
0.0029864
0.00295442
0.00295431
0.0029864
0.00295434
0.00295439
0.00298879
0.00295173
0.0029864
0.00295435
0.00295442
0.0029516
0.00294604
0.00290924
0.00294378
0.00294365
0.00291211
0.00291198
0.00294599
0.00290938
0.00294379
0.00294384
0.00291214
0.00291191
0.00294382
0.00291206
0.00291208
0.00294617
0.00290935
0.00294386
0.00291192
0.00291208
0.00290929
0.00290374
0.00286718
0.00290139
0.00290162
0.00286996
0.00286991
0.00290396
0.00286693
0.00290136
0.00290157
0.00286999
0.00286987
0.00290142
0.00286996
0.00286984
0.00290387
0.00286718
0.0029014
0.00286987
0.0028698
0.00286721
0.00286169
0.00282538
0.0028593
0.00285939
0.00282813
0.00282813
0.00286154
0.00282519
0.00285929
0.00285937
0.00282817
0.00282821
0.00285946
0.00282817
0.0028281
0.00286176
0.00282522
0.00285953
0.0028282
0.00282809
0.00282541
0.00281997
0.00278403
0.00281759
0.00281781
0.00278674
0.00278674
0.00281988
0.0027841
0.00281765
0.00281756
0.00278674
0.00278679
0.0028177
0.0027867
0.00278661
0.00281983
0.00278398
0.00281781
0.00278677
0.00278658
0.00278399
0.00277874
0.00274299
0.00277642
0.00277667
0.00274575
0.00274581
0.0027787
0.00274301
0.00277647
0.00277649
0.00274566
0.00274586
0.00277639
0.0027457
0.00274576
0.00277868
0.00274286
0.00277642
0.00274587
0.00274584
0.00274289
0.00273782
0.00270193
0.00273568
0.00273578
0.00270472
0.00270468
0.00273779
0.00270193
0.00273555
0.00273555
0.00270489
0.00270501
0.00273531
0.00270496
0.00270516
0.00273762
0.00270208
0.00273543
0.00270503
0.00270527
0.00270217
0.00269673
0.00266163
0.00269473
0.00269473
0.00266466
0.00266485
0.00269676
0.00266187
0.00269491
0.00269496
0.00266458
0.00266465
0.00269491
0.00266479
0.00266483
0.00269691
0.00266167
0.00269495
0.00266467
0.0026649
0.00266177
0.00265651
0.00262142
0.0026548
0.00265479
0.0026246
0.00262468
0.00265678
0.00262148
0.0026547
0.00265475
0.00262459
0.00262464
0.00265481
0.00262463
0.00262465
0.00265653
0.00262141
0.00265485
0.00262464
0.00262468
0.00262152
0.00261627
0.00258171
0.00261446
0.00261468
0.00258497
0.00258487
0.00261637
0.00258159
0.00261447
0.00261458
0.00258495
0.00258484
0.00261442
0.00258482
0.00258472
0.00261632
0.00258158
0.00261448
0.0025848
0.0025847
0.00258145
0.00257668
0.00254217
0.00257501
0.002575
0.00254541
0.00254536
0.00257658
0.00254218
0.00257501
0.00257499
0.00254537
0.00254535
0.00257502
0.00254532
0.00254533
0.0025766
0.00254213
0.002575
0.00254534
0.00254528
0.00254209
0.00253724
0.00250325
0.00253565
0.00253561
0.00250642
0.00250645
0.00253729
0.00250329
0.00253565
0.0025356
0.00250642
0.00250653
0.00253538
0.00250645
0.00250673
0.00253715
0.00250344
0.00253538
0.0025066
0.00250669
0.00250418
0.0024982
0.00246428
0.00249657
0.00249667
0.0024674
0.00246737
0.00249829
0.00246435
0.0024966
0.00249679
0.0024674
0.0024674
0.00249694
0.00246734
0.00246738
0.0024985
0.00246428
0.00249673
0.00246742
0.0024672
0.00246365
0.00245949
0.00242563
0.00245769
0.00245748
0.00242848
0.00242848
0.00245931
0.00242507
0.00245772
0.00245758
0.00242851
0.00242845
0.00245742
0.00242843
0.00242849
0.00245929
0.0024255
0.00245733
0.00242859
0.00242861
0.00242639
0.00242059
0.00238723
0.00241886
0.00241876
0.00239024
0.00239044
0.00242015
0.0023888
0.00241888
0.00241883
0.00239018
0.00239023
0.00241884
0.00239047
0.00239012
0.00242057
0.00238736
0.00241891
0.00239002
0.00239013
0.00238726
0.0023824
0.00234913
0.00238067
0.00238078
0.00235185
0.00235161
0.00238422
0.00234923
0.0023806
0.00238065
0.00235186
0.00235182
0.00238058
0.00235154
0.00235185
0.00238249
0.00234907
0.00238055
0.00235178
0.00235183
0.00234901
0.00234416
0.00231074
0.00234222
0.00234208
0.00231343
0.00231349
0.00234395
0.00230974
0.00234226
0.0023422
0.00231348
0.00231347
0.00234224
0.00231343
0.00231349
0.00234411
0.00231076
0.00234218
0.00231351
0.00231337
0.00231073
0.00230583
0.00227285
0.00230391
0.00230399
0.00227551
0.00227545
0.00230494
0.00227331
0.00230395
0.00230394
0.0022755
0.00227549
0.00230396
0.0022755
0.00227554
0.00230583
0.0022728
0.00230385
0.0022755
0.00227551
0.00227281
0.00226796
0.00223518
0.00226608
0.00226603
0.00223783
0.0022379
0.00226862
0.0022352
0.00226607
0.00226605
0.00223783
0.00223782
0.0022661
0.00223798
0.00223785
0.00226792
0.00223518
0.00226609
0.00223785
0.00223789
0.00223526
0.0022303
0.00219745
0.00222841
0.00222845
0.00220007
0.00220001
0.00223023
0.00219744
0.00222841
0.0022284
0.0022001
0.00220011
0.00222839
0.00219992
0.00220003
0.00223029
0.00219749
0.00222843
0.00220011
0.00220003
0.00219737
0.0021925
0.00215974
0.00219062
0.00219055
0.00216237
0.00216235
0.00219253
0.00215966
0.00219064
0.00219066
0.00216236
0.00216235
0.0021906
0.00216232
0.00216229
0.00219256
0.00215969
0.00219059
0.00216231
0.00216232
0.00215964
0.00215486
0.00212242
0.00215299
0.00215301
0.00212503
0.00212511
0.00215479
0.00212253
0.00215298
0.00215297
0.00212503
0.00212502
0.0021529
0.00212512
0.00212519
0.00215479
0.00212248
0.00215295
0.00212505
0.00212518
0.00212262
0.00211756
0.00208527
0.00211574
0.00211582
0.00208783
0.00208774
0.00211766
0.00208517
0.00211573
0.00211574
0.00208784
0.0020879
0.00211596
0.00208778
0.00208779
0.00211763
0.00208529
0.00211593
0.00208793
0.00208779
0.00208513
0.00208037
0.00204786
0.0020785
0.00207834
0.00205044
0.00205044
0.00208028
0.00204787
0.0020785
0.00207852
0.00205043
0.00205027
0.0020784
0.00205043
0.00205035
0.00208033
0.0020477
0.00207838
0.00205022
0.00205035
0.00204785
0.00204296
0.00201086
0.00204108
0.00204116
0.00201325
0.0020133
0.00204295
0.00201089
0.00204107
0.00204092
0.00201328
0.00201336
0.00204102
0.00201327
0.00201321
0.00204285
0.00201103
0.00204103
0.00201335
0.00201318
0.00201079
0.00200602
0.00197426
0.00200408
0.0020041
0.00197668
0.0019768
0.00200607
0.00197432
0.00200411
0.00200428
0.00197665
0.00197672
0.00200405
0.00197684
0.00197683
0.00200623
0.00197414
0.00200401
0.00197677
0.00197695
0.00197451
0.00196945
0.00193721
0.00196754
0.00196761
0.0019397
0.00193933
0.00196941
0.00193696
0.00196749
0.00196743
0.00193973
0.00193961
0.00196776
0.00193937
0.00193966
0.00196925
0.00193725
0.00196795
0.0019397
0.00193953
0.00193701
0.00193225
0.00190038
0.00193032
0.00193
0.00190259
0.00190292
0.00193216
0.00190071
0.00193038
0.00193036
0.00190261
0.00190264
0.00193016
0.00190285
0.00190229
0.00193238
0.00190025
0.00192994
0.00190241
0.00190216
0.00190009
0.0018956
0.00186442
0.00189353
0.00189392
0.00186669
0.00186652
0.00189583
0.00186408
0.00189352
0.00189342
0.0018666
0.0018664
0.00189333
0.00186658
0.00186682
0.00189537
0.00186433
0.00189334
0.00186648
0.00186723
0.00186486
0.00185959
0.00182773
0.00185767
0.00185729
0.00183007
0.00183015
0.00185924
0.00182793
0.00185761
0.00185755
0.00183016
0.0018306
0.00185788
0.00183018
0.00183042
0.00185967
0.00182822
0.00185826
0.00183081
0.0018302
0.00182783
0.00182294
0.00179165
0.0018209
0.00182118
0.00179377
0.00179381
0.00182314
0.00179154
0.00182099
0.00182133
0.00179374
0.00179334
0.00182111
0.00179376
0.00179347
0.00182325
0.0017911
0.00182072
0.00179325
0.00179318
0.00179119
0.00178681
0.00175524
0.00178472
0.00178451
0.00175743
0.00175695
0.0017866
0.00175497
0.00178467
0.00178421
0.00175741
0.00175728
0.00178439
0.00175692
0.00175726
0.00178628
0.00175522
0.00178422
0.00175721
0.00175738
0.0017552
0.00175034
0.00171885
0.00174826
0.00174807
0.00172089
0.00172167
0.00175026
0.00171959
0.00174827
0.00174839
0.00172096
0.00172152
0.00174823
0.00172176
0.0017213
0.00175046
0.00171934
0.00174844
0.00172163
0.00172154
0.00171936
0.00171419
0.0016838
0.00171205
0.00171279
0.00168589
0.00168562
0.00171481
0.00168331
0.0017121
0.00171244
0.00168583
0.00168536
0.0017124
0.00168557
0.00168574
0.00171448
0.00168334
0.00171258
0.0016854
0.0016855
0.00168348
0.00167906
0.00164773
0.00167709
0.00167654
0.00165002
0.00164965
0.00167856
0.00164761
0.00167701
0.00167653
0.00165003
0.00165006
0.00167682
0.0016496
0.00164981
0.00167863
0.00164793
0.00167654
0.00164997
0.00164977
0.00164768
0.0016429
0.00161182
0.00164086
0.00164075
0.00161377
0.001614
0.00164285
0.00161199
0.00164091
0.00164116
0.00161383
0.00161407
0.00164084
0.00161407
0.001614
0.00164316
0.00161189
0.00164088
0.0016141
0.00161411
0.00161201
0.00160708
0.00157647
0.00160494
0.0016051
0.00157851
0.00157848
0.00160721
0.00157646
0.00160498
0.001605
0.00157849
0.00157824
0.00160507
0.0015785
0.00157847
0.00160708
0.0015763
0.00160517
0.00157828
0.00157846
0.00157638
0.00157174
0.00154078
0.00156967
0.00156965
0.00154299
0.00154296
0.00157172
0.00154075
0.00156965
0.00156948
0.00154295
0.00154301
0.0015696
0.00154292
0.00154291
0.00157159
0.00154084
0.00156955
0.00154296
0.00154288
0.00154081
0.00153599
0.00150538
0.00153397
0.00153398
0.00150737
0.00150753
0.001536
0.00150556
0.00153396
0.00153407
0.00150735
0.00150735
0.001534
0.00150754
0.00150742
0.00153606
0.00150536
0.001534
0.00150739
0.00150742
0.00150539
0.00150068
0.00147037
0.00149864
0.00149884
0.00147245
0.00147233
0.00150084
0.00147018
0.0014986
0.00149858
0.0014724
0.00147245
0.00149864
0.00147232
0.00147241
0.00150066
0.0014704
0.00149861
0.00147244
0.00147237
0.00147035
0.00146563
0.0014349
0.00146363
0.00146334
0.00143692
0.00143674
0.00146538
0.00143478
0.00146363
0.00146368
0.0014371
0.0014371
0.00146361
0.00143676
0.00143694
0.00146567
0.001435
0.0014636
0.00143708
0.00143708
0.00143492
0.00143015
0.00139997
0.00142804
0.00142811
0.00140204
0.00140242
0.00143013
0.00140035
0.00142822
0.00142823
0.00140189
0.00140184
0.00142804
0.0014024
0.00140205
0.00143027
0.00139982
0.00142822
0.00140185
0.00140194
0.00139998
0.00139532
0.00136529
0.00139347
0.00139376
0.00136743
0.00136708
0.00139567
0.001365
0.00139325
0.00139314
0.0013673
0.00136721
0.00139346
0.00136708
0.00136734
0.00139512
0.0013652
0.00139328
0.00136723
0.00136725
0.00136522
0.00136052
0.00132984
0.00135854
0.00135816
0.0013318
0.00133185
0.00136025
0.00132983
0.00135856
0.00135856
0.00133199
0.00133219
0.00135849
0.00133188
0.00133194
0.00136055
0.00133007
0.00135849
0.00133219
0.00133209
0.00132992
0.00132513
0.00129535
0.00132308
0.00132322
0.00129738
0.00129745
0.00132514
0.00129534
0.00132324
0.00132335
0.0012974
0.00129721
0.00132319
0.00129742
0.00129726
0.00132532
0.00129519
0.00132334
0.0012972
0.00129728
0.00129524
0.00129071
0.00126057
0.00128881
0.0012888
0.00126275
0.00126271
0.00129067
0.00126065
0.00128877
0.00128856
0.00126255
0.00126261
0.00128866
0.00126266
0.00126272
0.00129052
0.00126054
0.00128862
0.00126259
0.00126257
0.0012606
0.00125581
0.00122554
0.00125391
0.00125399
0.00122755
0.00122762
0.00125593
0.00122556
0.00125372
0.00125391
0.00122765
0.00122768
0.00125397
0.00122767
0.00122764
0.00125583
0.00122562
0.00125384
0.00122776
0.00122774
0.00122559
0.00122086
0.00119115
0.00121893
0.00121891
0.00119322
0.00119306
0.00122083
0.00119102
0.00121908
0.00121896
0.00119326
0.00119312
0.00121894
0.00119308
0.00119311
0.00122092
0.00119103
0.00121905
0.00119304
0.00119306
0.00119103
0.00118648
0.00115649
0.00118459
0.00118447
0.00115847
0.00115851
0.00118638
0.00115645
0.00118457
0.00118456
0.00115851
0.00115871
0.00118451
0.00115851
0.00115857
0.00118638
0.00115669
0.00118443
0.00115871
0.00115863
0.00115658
0.00115179
0.00112181
0.0011498
0.00114983
0.00112393
0.00112398
0.00115176
0.00112195
0.00114986
0.00115
0.00112384
0.00112374
0.0011499
0.00112395
0.00112392
0.00115199
0.00112168
0.00115002
0.0011238
0.00112389
0.00112181
0.00111711
0.00108723
0.0011153
0.00111538
0.00108929
0.0010893
0.00111728
0.00108719
0.00111514
0.00111504
0.00108926
0.00108922
0.00111524
0.00108929
0.0010892
0.00111695
0.00108716
0.00111514
0.00108915
0.00108912
0.00108712
0.00108257
0.00105288
0.00108067
0.0010806
0.00105486
0.00105474
0.00108248
0.00105272
0.0010807
0.00108069
0.00105497
0.00105504
0.00108058
0.00105472
0.00105486
0.00108253
0.00105303
0.00108057
0.00105504
0.00105498
0.00105292
0.00104818
0.00101812
0.00104623
0.00104615
0.00102019
0.00102029
0.00104807
0.00101828
0.00104631
0.00104638
0.00102014
0.00102017
0.00104629
0.00102035
0.00102035
0.00104834
0.00101811
0.00104641
0.00102023
0.00102029
0.00101823
0.00101342
0.0009838
0.00101154
0.00101164
0.000985809
0.00098584
0.00101357
0.000983802
0.00101148
0.00101148
0.000985776
0.000985758
0.00101164
0.000985797
0.000985734
0.00101339
0.000983733
0.00101156
0.000985705
0.000985708
0.000983703
0.00097917
0.000949396
0.000977285
0.000977283
0.000951452
0.000951476
0.000979157
0.000949386
0.000977258
0.00097723
0.000951466
0.000951426
0.000977166
0.000951453
0.000951315
0.000979098
0.000949381
0.000977165
0.000951416
0.00095133
0.000949308
0.000944668
0.000914706
0.000942742
0.000942787
0.000916712
0.000916691
0.000944667
0.000914711
0.000942769
0.000942709
0.000916757
0.000916728
0.000942662
0.000916745
0.000916882
0.000944651
0.000914736
0.000942681
0.000916767
0.000916922
0.000914862
0.000910035
0.000880453
0.000908133
0.000908053
0.000882457
0.000882278
0.000910017
0.000880296
0.000908165
0.000908178
0.000882425
0.000882528
0.000908311
0.000882263
0.00088244
0.000910085
0.000880515
0.00090835
0.000882539
0.00088244
0.000880418
0.000875764
0.000845841
0.000873833
0.000873685
0.00084781
0.000848004
0.000875618
0.000845981
0.000873803
0.000873895
0.000847842
0.000847856
0.000873747
0.000848006
0.000847772
0.000875815
0.000845833
0.000873735
0.00084782
0.000847763
0.000845788
0.000841148
0.000811461
0.000839197
0.000839476
0.000813492
0.000813692
0.000841336
0.000811612
0.000839213
0.000839185
0.000813442
0.000813303
0.000839193
0.000813692
0.00081351
0.000841122
0.000811298
0.000839164
0.000813287
0.000813437
0.00081146
0.000806778
0.000776914
0.00080491
0.000804912
0.000778936
0.000778649
0.000806835
0.000776676
0.000804849
0.000804707
0.000778957
0.00077897
0.000804897
0.000778636
0.000778885
0.000806618
0.000776998
0.000804837
0.000778986
0.000778943
0.000776905
0.000772218
0.000742425
0.000770281
0.000770023
0.000744354
0.000744385
0.000771986
0.000742451
0.00077034
0.000770405
0.000744456
0.00074463
0.000770261
0.000744421
0.000744515
0.00077234
0.00074265
0.000770352
0.000744679
0.000744623
0.000742576
0.00073771
0.0007078
0.000735699
0.000735835
0.000709808
0.000709856
0.000737759
0.00070785
0.000735783
0.000735944
0.00070977
0.000709718
0.000735872
0.00070984
0.000709697
0.000737912
0.00070765
0.000735945
0.00070967
0.000709624
0.000707656
0.000703089
0.000673305
0.0007012
0.000701209
0.000675384
0.000675402
0.000703143
0.000673385
0.000701113
0.000700983
0.000675217
0.000674961
0.000701001
0.000675351
0.000675257
0.000702887
0.000672993
0.000700889
0.000674923
0.000675106
0.000673232
0.000668586
0.000638727
0.000666702
0.000666785
0.000640672
0.000640815
0.000668701
0.000638797
0.000666581
0.000666373
0.000640759
0.000640892
0.000666708
0.000640865
0.000640826
0.00066835
0.000638975
0.000666599
0.000640955
0.000640948
0.000638895
0.000634018
0.00060388
0.000632017
0.000632114
0.000605873
0.000605728
0.00063404
0.000603708
0.000632149
0.000632364
0.000606002
0.000606193
0.000632153
0.000605736
0.000605923
0.000634303
0.000604077
0.000632311
0.000606209
0.000606053
0.000603927
0.000599064
0.000568926
0.000597076
0.000596883
0.000570915
0.000570699
0.000598881
0.000568791
0.000597161
0.000597232
0.000570853
0.000570661
0.000597091
0.000570646
0.000570666
0.000599211
0.000568621
0.00059718
0.000570611
0.000570615
0.000568654
0.000564283
0.000535203
0.000562429
0.000562352
0.000537225
0.000537515
0.000564221
0.000535597
0.000562312
0.000561994
0.000537032
0.0005368
0.000562074
0.000537463
0.000536994
0.000563895
0.000534872
0.000561913
0.00053674
0.00053678
0.000535011
0.000530488
0.000499361
0.000528566
0.000528944
0.000501413
0.000501301
0.000530897
0.000499203
0.000528433
0.000528404
0.00050158
0.000502114
0.000528613
0.000501419
0.000501965
0.000530303
0.000500022
0.00052844
0.000502322
0.00050225
0.000499896
0.00049435
0.00046369
0.000492254
0.00049206
0.000465589
0.000465462
0.000494176
0.000463601
0.000492457
0.00049287
0.000465603
0.000465385
0.0004927
0.000465418
0.000465468
0.000494972
0.000463337
0.000492998
0.000465347
0.00046535
0.000463405
0.000459054
0.000430458
0.000457165
0.000457194
0.000432348
0.000432576
0.000459069
0.000430677
0.000457083
0.000456612
0.000432162
0.000431788
0.00045676
0.000432423
0.00043175
0.000458565
0.000429868
0.000456589
0.000431607
0.000431539
0.00042983
0.000425959
0.00039558
0.000424041
0.000424204
0.000397711
0.000397478
0.0004261
0.00039539
0.000423911
0.000423613
0.000397863
0.000398248
0.000423501
0.000397601
0.000398122
0.000425404
0.000396112
0.000423354
0.000398395
0.000398303
0.000396053
0.000390584
0.000358488
0.000388524
0.000388284
0.000360663
0.000360536
0.00039042
0.00035842
0.000388682
0.000389147
0.000360771
0.000361096
0.00038916
0.000360673
0.0003612
0.000391146
0.000358953
0.000389377
0.00036122
0.000361294
0.00035904
0.000353448
0.000323715
0.000351433
0.000351458
0.000325555
0.000325878
0.000353474
0.000323973
0.00035147
0.00035172
0.000325351
0.000325021
0.000351835
0.000325757
0.00032512
0.000353815
0.000323246
0.000351895
0.000324903
0.000324934
0.000323292
0.000319187
0.000290416
0.000317311
0.000317587
0.000292373
0.00029245
0.000319418
0.000290409
0.00031708
0.000316684
0.000292247
0.000291857
0.000316795
0.000292368
0.000291978
0.000318672
0.000289956
0.00031657
0.000291723
0.000291825
0.000290049
0.000285717
0.000254576
0.000283771
0.000283606
0.00025668
0.000256259
0.000285574
0.000254168
0.000283766
0.000283486
0.000256949
0.000257373
0.000283529
0.000256336
0.000256954
0.000285407
0.000255156
0.000283466
0.000257486
0.000257253
0.000254861
0.000249617
0.000218329
0.000247566
0.000247253
0.000220409
0.000220504
0.000249264
0.000218556
0.000247813
0.000248326
0.000220452
0.000220778
0.000247874
0.000220566
0.000220655
0.000250223
0.000218665
0.000248164
0.000220844
0.000220741
0.000218561
0.000213423
0.000182785
0.000211437
0.000211748
0.000184847
0.000185161
0.000213753
0.000183153
0.000211346
0.000211495
0.000184516
0.000183911
0.000211587
0.000185114
0.000184674
0.000213596
0.000182053
0.000211505
0.000183852
0.000184315
0.000182595
0.000177926
0.000147274
0.000175955
0.00017614
0.000149172
0.000149028
0.000178225
0.000147035
0.000175693
0.00017513
0.00014929
0.000149362
0.000175764
0.000149002
0.000149103
0.000177279
0.000147428
0.000175477
0.000149327
0.000149201
0.000147202
0.000142455
0.000112051
0.000140304
0.000140094
0.000113999
0.000113856
0.000142166
0.000111881
0.00014054
0.000140767
0.000114207
0.000114647
0.000140277
0.000113894
0.000114077
0.000142704
0.000112529
0.00014046
0.000114679
0.000114284
0.000112141
0.000107276
7.69978e-05
0.000105337
0.000105255
7.91629e-05
7.92033e-05
0.000107149
7.71226e-05
0.000105434
0.0001057
7.90193e-05
7.87376e-05
0.000105428
7.92093e-05
7.91942e-05
0.000107597
7.66728e-05
0.000105535
7.87505e-05
7.90572e-05
7.70189e-05
7.20601e-05
4.06595e-05
7.02615e-05
7.03028e-05
4.28144e-05
4.28782e-05
7.21972e-05
4.07101e-05
7.01085e-05
6.97907e-05
4.27476e-05
4.25798e-05
7.02724e-05
4.2859e-05
4.27755e-05
7.17509e-05
4.04636e-05
7.01281e-05
4.25679e-05
4.27152e-05
4.06256e-05
3.55329e-05
7.8546e-06
3.36497e-05
3.36898e-05
1.07193e-05
1.07383e-05
3.55468e-05
7.80127e-06
3.36075e-05
3.35497e-05
1.07974e-05
1.10282e-05
3.36096e-05
1.07176e-05
1.06499e-05
3.5405e-05
8.05574e-06
3.35719e-05
1.10028e-05
1.07272e-05
7.80247e-06
4.71572e-06
6.38479e-06
6.3895e-06
4.6412e-06
6.51103e-06
6.6284e-06
5.26301e-06
5.534e-06
5.25917e-06
6.33619e-06
4.84975e-06
6.45553e-06
0.00353133
0.00353412
0.00353253
0.00353318
0.00355778
0.00353288
0.0035619
0.00353235
0.00356087
0.00353479
0.00353515
0.00356424
0.00353588
0.00355663
0.00347506
0.00350402
0.00351775
0.00352151
0.00349651
0.00349413
0.00349966
0.00350442
0.00351798
0.00352201
0.0034967
0.00351966
0.00352079
0.00352029
0.00349386
0.0034937
0.00349412
0.00349385
0.00350331
0.00351448
0.00351989
0.00351095
0.00352142
0.00350045
0.00351124
0.00349527
0.00350051
0.00350566
0.00352204
0.00351705
0.00351229
0.00352571
0.00351281
0.00350215
0.00351932
0.00352791
0.00350883
0.00350048
0.00350217
0.00347678
0.00349101
0.00349079
0.00347486
0.00348826
0.00347377
0.00347688
0.00349114
0.00349106
0.00347489
0.00348474
0.00348498
0.00348477
0.00345652
0.00345654
0.00345655
0.00345648
0.00347458
0.00348939
0.00348315
0.00347377
0.00348784
0.00347506
0.00347379
0.00348861
0.00347401
0.00347488
0.00348363
0.00348997
0.00347419
0.00348848
0.0034741
0.00347554
0.00349133
0.00349154
0.00347247
0.00347553
0.00347564
0.00343442
0.0034491
0.00344998
0.00343308
0.00344789
0.00343222
0.00343442
0.00344909
0.00344999
0.00343311
0.00344647
0.00344645
0.0034464
0.0034139
0.00341393
0.0034139
0.0034139
0.00343318
0.00344868
0.00344448
0.00343409
0.00344761
0.00343363
0.00343405
0.00344792
0.00343221
0.00343323
0.00344454
0.00344897
0.00343443
0.00344769
0.00343422
0.00343334
0.00344943
0.00344956
0.00343148
0.00343341
0.00343338
0.00338805
0.0034045
0.00340594
0.0033866
0.00340376
0.00338612
0.003388
0.0034045
0.00340594
0.00338659
0.00340237
0.00340233
0.00340231
0.00336638
0.0033664
0.00336635
0.00336633
0.00338726
0.00340436
0.00340065
0.00338888
0.00340374
0.0033873
0.00338889
0.00340374
0.0033861
0.00338723
0.00340067
0.00340506
0.0033891
0.00340375
0.00338892
0.00338742
0.00340451
0.00340455
0.00338566
0.00338683
0.0033869
0.00333906
0.00335619
0.00335752
0.00333783
0.00335578
0.00333756
0.00333902
0.00335619
0.00335753
0.00333784
0.00335417
0.00335414
0.00335414
0.00331744
0.00331747
0.00331745
0.00331743
0.00333869
0.00335621
0.00335271
0.00334057
0.00335586
0.00333858
0.00334054
0.0033558
0.00333752
0.00333868
0.00335268
0.00335565
0.00334041
0.00335583
0.0033405
0.00333838
0.00335629
0.00335631
0.00333714
0.00333796
0.00333803
0.00328998
0.00330724
0.00330824
0.00328908
0.003307
0.00328885
0.00328993
0.0033072
0.00330821
0.0032891
0.00330529
0.00330527
0.00330525
0.00326903
0.00326904
0.00326902
0.00326901
0.00328992
0.00330729
0.00330399
0.00329185
0.00330703
0.00328973
0.00329189