/*--------------------------------*- C++ -*----------------------------------*\
| =========                 |                                                 |
| \\      /  F ield         | OpenFOAM: The Open Source CFD Toolbox           |
|  \\    /   O peration     | Version:  v2006                                 |
|   \\  /    A nd           | Website:  www.openfoam.com                      |
|    \\/     M anipulation  |                                                 |
\*---------------------------------------------------------------------------*/
FoamFile
{
    version     2.0;
    format      ascii;
    class       volScalarField;
    location    "250";
    object      p;
}
// * * * * * * * * * * * * * * * * * * * * * * * * * * * * * * * * * * * * * //

dimensions      [0 2 -2 0 0 0 0];


internalField   nonuniform List<scalar> 
14457
(
0.00345851
0.00345852
0.0034613
0.00345852
0.00345852
0.00345852
0.0034613
0.00346138
0.00346224
0.00346138
0.00346224
0.00345851
0.00346117
0.00346179
0.00346118
0.00346117
0.00346183
0.00346182
0.00346179
0.00345847
0.0034615
0.00346179
0.00345848
0.0034615
0.00346138
0.00346224
0.00345847
0.00346179
0.0034615
0.00346182
0.00346182
0.00346117
0.00346138
0.00345495
0.0034616
0.00345491
0.00346141
0.00345511
0.00345497
0.00345574
0.00346149
0.00346203
0.00346145
0.00345502
0.00345554
0.00345495
0.0034616
0.00345491
0.00346141
0.00345511
0.00345497
0.00345574
0.00346203
0.0034615
0.00346145
0.00345554
0.00345502
0.00345472
0.00345472
0.00345472
0.00345509
0.0034614
0.00346121
0.00345533
0.00346154
0.00345475
0.00345494
0.00345509
0.0034614
0.0034612
0.00345533
0.00346153
0.00345475
0.00345494
0.00345509
0.00346119
0.00346119
0.00346158
0.00345472
0.00345495
0.0034616
0.00345491
0.00346142
0.00345511
0.00345497
0.00345574
0.0034615
0.00346203
0.00345502
0.00346145
0.00345554
0.00345509
0.0034614
0.0034612
0.00345533
0.00345475
0.00346153
0.00345494
0.00345509
0.0034614
0.0034612
0.00345533
0.00345494
0.00346153
0.00345474
0.00345508
0.00346119
0.00346119
0.00346158
0.00345472
0.00345472
0.00345495
0.0034616
0.00345491
0.00345511
0.00346141
0.00345857
0.00345857
0.00345858
0.00345522
0.00346152
0.00346152
0.00345519
0.0034615
0.00345525
0.00345525
0.00345522
0.00346152
0.00346152
0.00345519
0.00345525
0.0034615
0.00345525
0.00345857
0.00345857
0.00345858
0.00345522
0.00346149
0.00346146
0.00345537
0.00346156
0.00345508
0.00345509
0.00345522
0.00346149
0.00346146
0.00345509
0.00346156
0.00345508
0.00345534
0.00345515
0.00346153
0.00346171
0.00345517
0.00346165
0.00345541
0.00345522
0.00346149
0.00346146
0.00345537
0.00345509
0.00346156
0.00345508
0.00345534
0.00345515
0.00346153
0.00346171
0.00345517
0.00346165
0.00345541
0.00345522
0.00346149
0.00346146
0.00345537
0.00346156
0.00345509
0.00345508
0.00345534
0.00345515
0.00346171
0.00346153
0.00346165
0.00345517
0.003617
0.00361733
0.00361733
0.00362039
0.00356165
0.00356207
0.00356207
0.00356506
0.00363041
0.00363063
0.00363063
0.00363041
0.00363064
0.00363064
0.0036314
0.0036314
0.0036314
0.0036314
0.00363064
0.00363064
0.00363041
0.00363064
0.00363064
0.00363041
0.00362039
0.00357163
0.00361733
0.00361733
0.00357391
0.00357391
0.00362039
0.00357163
0.00361733
0.00361733
0.00357391
0.00357391
0.00361733
0.00357391
0.00357391
0.00362039
0.00357163
0.00361734
0.00357391
0.00357391
0.00357163
0.00356506
0.00356207
0.00356207
0.00356506
0.00356207
0.00356207
0.00356207
0.00356506
0.00356206
0.00363879
0.00364855
0.00364335
0.00364335
0.00366573
0.00365251
0.00368112
0.00364656
0.00366573
0.00365252
0.00364656
0.00368113
0.00365708
0.00368486
0.00368486
0.00359414
0.00361327
0.00362249
0.00358622
0.00358696
0.00358971
0.00359413
0.00361327
0.00362247
0.00358621
0.003617
0.00361701
0.00361701
0.0035736
0.0035736
0.0035736
0.0035736
0.00359165
0.00361747
0.0036174
0.00360047
0.00362049
0.00359055
0.00360135
0.00358708
0.00358972
0.00359165
0.00361741
0.00361747
0.00360047
0.0036205
0.00360136
0.00359055
0.00362335
0.00362334
0.00359487
0.00359019
0.00359019
0.00354752
0.00356679
0.00356815
0.00354605
0.00356571
0.00354561
0.00354751
0.00356679
0.00356815
0.00354605
0.00356165
0.00356165
0.00356165
0.0035461
0.00356687
0.00356165
0.00354978
0.00356566
0.00354664
0.00354951
0.0035657
0.0035456
0.0035461
0.00356165
0.00356686
0.00354978
0.00356565
0.00354951
0.00354664
0.00356788
0.00356788
0.00354632
0.00354697
0.00354697
0.00365708
0.00368485
0.00368486
0.00364918
0.00368439
0.00364917
0.00368439
0.00365393
0.00364098
0.003641
0.00367967
0.00367967
0.00366572
0.00365251
0.00368111
0.00364655
0.00366572
0.00365251
0.00368111
0.00364655
0.00367024
0.00364126
0.00368152
0.00363609
0.00367023
0.00364126
0.00368151
0.00363608
0.00366132
0.00365004
0.00363246
0.00363286
0.00367639
0.00364499
0.00363308
0.00366132
0.00365004
0.00363246
0.00363286
0.00367638
0.00364499
0.00363308
0.00365708
0.00368485
0.00368486
0.00364917
0.00368438
0.00365393
0.00364098
0.003641
0.00367966
0.00367967
0.00364919
0.00368439
0.00366573
0.00365251
0.00368112
0.00364656
0.00366573
0.00365252
0.00364656
0.00368112
0.00367026
0.00364127
0.00368153
0.0036361
0.00366133
0.00365004
0.00363246
0.00363286
0.00367639
0.003645
0.00363309
0.00367025
0.0036413
0.00368153
0.00363609
0.00366133
0.00365004
0.00363286
0.00363246
0.003645
0.00367639
0.00363309
0.00363879
0.00364855
0.00364335
0.00364335
0.00363879
0.00364855
0.00364335
0.00364335
0.00363879
0.00364855
0.00364335
0.00364335
0.00363755
0.00364663
0.00362952
0.00362952
0.00364191
0.00364192
0.00362769
0.00363755
0.00364663
0.00362952
0.00362952
0.00364191
0.00364192
0.00362769
0.00363755
0.00364664
0.00362952
0.00362952
0.00364192
0.00364192
0.00362769
0.00363755
0.00364664
0.00362952
0.00362952
0.00364192
0.00364192
0.00362769
0.00366573
0.00365252
0.00364656
0.00368112
0.00366133
0.00365004
0.00363245
0.00363286
0.00367639
0.003645
0.00363309
0.00367026
0.00364127
0.00368153
0.0036361
0.00366133
0.00365004
0.00363286
0.00363246
0.003645
0.00367639
0.00363309
0.00367026
0.00364129
0.00368153
0.00363609
0.00365709
0.00368486
0.00368487
0.00364918
0.00368439
0.00365394
0.003641
0.00364099
0.00367967
0.00367968
0.00364915
0.0036844
0.00366573
0.00365252
0.00364656
0.00368112
0.00366133
0.00365004
0.00363287
0.00363245
0.003645
0.0036764
0.00363309
0.00366133
0.00365004
0.00363287
0.00363246
0.003645
0.00367639
0.00363309
0.00367026
0.00364128
0.00368153
0.0036361
0.00367026
0.00364128
0.00368153
0.00363609
0.00365394
0.00364101
0.003641
0.00367967
0.00367967
0.00364919
0.00368439
0.00364919
0.00368439
0.00358697
0.00358972
0.00358708
0.00358968
0.0036233
0.00362334
0.00359488
0.00359018
0.00359017
0.00357247
0.00358938
0.00357249
0.00358935
0.00358822
0.00357508
0.00357509
0.00358833
0.00358832
0.00359414
0.00361327
0.00362248
0.00358624
0.00359166
0.00361747
0.0036174
0.00360047
0.00362049
0.00359056
0.00360136
0.00359167
0.00361748
0.0036174
0.00360047
0.00362049
0.00359056
0.00360136
0.00358959
0.00357421
0.00358712
0.00357495
0.0035896
0.0035742
0.00358713
0.00357495
0.00358663
0.00358617
0.00357389
0.00357364
0.00358772
0.00358658
0.00357223
0.00358664
0.00358617
0.00357389
0.00357364
0.00358772
0.00358658
0.00357223
0.0036233
0.00362334
0.00359489
0.00359018
0.00359018
0.00358708
0.0035897
0.00357248
0.00358936
0.00358822
0.00357508
0.00357509
0.00358833
0.00358833
0.00357249
0.00358936
0.00359165
0.00361747
0.0036174
0.00360047
0.00362049
0.00359055
0.00360135
0.00359413
0.0036133
0.00362247
0.00358622
0.00359166
0.00361741
0.00361747
0.00360047
0.00362049
0.00360136
0.00359055
0.00358959
0.00357421
0.00358711
0.00357495
0.00358663
0.00358616
0.00357389
0.00357364
0.0035877
0.00358658
0.00357223
0.0035896
0.0035742
0.00358712
0.00357495
0.00358664
0.00358617
0.00357364
0.00357389
0.00358658
0.00358771
0.00357223
0.00359413
0.00361326
0.00362247
0.00358622
0.00359166
0.0036174
0.00361747
0.00360047
0.00362049
0.00360136
0.00359055
0.00359413
0.0036133
0.00362246
0.00358622
0.00358663
0.00358617
0.00357389
0.00357364
0.00358771
0.00358658
0.00357223
0.00358959
0.0035742
0.00358712
0.00357495
0.00358664
0.00358617
0.00357364
0.00357389
0.00358658
0.00358771
0.00357223
0.0035896
0.00357421
0.00358712
0.00357495
0.00362333
0.00362334
0.00359489
0.00359018
0.00359019
0.00358706
0.00358973
0.00357247
0.00358937
0.00358823
0.00357508
0.00357508
0.00358834
0.00358834
0.00357246
0.0035894
0.00359166
0.00361741
0.00361748
0.00360048
0.0036205
0.00360136
0.00359055
0.00359413
0.00361329
0.00362248
0.00358623
0.00359414
0.00361329
0.00362247
0.00358623
0.00358663
0.00358617
0.00357364
0.00357388
0.00358658
0.00358771
0.00357223
0.00358664
0.00358617
0.00357364
0.00357389
0.00358658
0.00358771
0.00357223
0.00358959
0.00357419
0.00358713
0.00357495
0.0035896
0.0035742
0.00358712
0.00357495
0.0035871
0.00358972
0.0035871
0.00358972
0.00358823
0.00357508
0.00357508
0.00358834
0.00358834
0.00357247
0.00358937
0.00357247
0.00358937
0.0035657
0.00354561
0.00356571
0.00354561
0.00356789
0.00356789
0.00354633
0.00354698
0.00354698
0.00353918
0.00353918
0.00353953
0.00354052
0.00354051
0.00354752
0.00356679
0.00356815
0.00354606
0.0035461
0.00356687
0.00356165
0.00354978
0.00356566
0.00354664
0.00354951
0.0035461
0.00356687
0.00356165
0.00354978
0.00356566
0.00354664
0.00354951
0.00354099
0.00353968
0.00354099
0.00353968
0.00353957
0.00353702
0.00354019
0.00353688
0.00353957
0.00353702
0.00354019
0.00353688
0.00356789
0.00356789
0.00354633
0.00354698
0.00354697
0.00356571
0.00354561
0.00353918
0.00353953
0.00354052
0.00354051
0.00353918
0.0035461
0.00356687
0.00356165
0.00354978
0.00356566
0.00354664
0.00354951
0.00354751
0.00356678
0.00356815
0.00354605
0.0035461
0.00356165
0.00356687
0.00354978
0.00356566
0.00354951
0.00354664
0.00354099
0.00353967
0.00353957
0.00353702
0.00354019
0.00353688
0.00354099
0.00353967
0.00353957
0.00353701
0.00353688
0.00354019
0.00354751
0.00356679
0.00356815
0.00354605
0.0035461
0.00356165
0.00356686
0.00354978
0.00356566
0.00354951
0.00354663
0.00354751
0.00356679
0.00356815
0.00354605
0.00353957
0.00353702
0.00354019
0.00353688
0.00354098
0.00353967
0.00353956
0.00353701
0.00353688
0.00354019
0.00354098
0.00353967
0.00356789
0.00356788
0.00354632
0.00354697
0.00354697
0.00356568
0.00354561
0.00353918
0.00353953
0.00354051
0.00354051
0.00353918
0.0035461
0.00356164
0.00356686
0.00354977
0.00356565
0.00354951
0.00354664
0.00354751
0.00356678
0.00356815
0.00354605
0.00354751
0.00356678
0.00356815
0.00354605
0.00353701
0.00354019
0.00353701
0.00354019
0.00353967
0.00353967
0.0035657
0.0035456
0.00356569
0.00354561
0.00353953
0.00354051
0.00354051
0.00353918
0.00353918
0.00367381
0.00368818
0.00368854
0.00367383
0.00368818
0.00368855
0.00368855
0.00368855
0.00367381
0.00368817
0.00368856
0.00367383
0.00368818
0.00367383
0.00368819
0.00367383
0.00368818
0.00368857
0.00367383
0.0036882
0.00367383
0.00368818
0.00368855
0.00368855
0.00363953
0.00363954
0.00364029
0.00364582
0.00364582
0.00364331
0.003641
0.00364417
0.00364178
0.003641
0.00364417
0.00364178
0.00367004
0.00365719
0.0036587
0.00365828
0.00364936
0.00365437
0.00367228
0.00366529
0.00366143
0.00365106
0.00364745
0.00365212
0.00365719
0.00367004
0.0036587
0.00364936
0.00365828
0.00365438
0.00365106
0.00364745
0.00365212
0.00367228
0.00366529
0.00366144
0.00369368
0.00369367
0.00368591
0.00366367
0.00366367
0.00367465
0.00369743
0.0036683
0.00368025
0.00369744
0.0036683
0.00368025
0.00358872
0.00360071
0.00358711
0.00359233
0.0035891
0.00359723
0.00358903
0.00356701
0.00362309
0.00359357
0.00357806
0.00360183
0.0035933
0.00361039
0.00360986
0.00361932
0.00360942
0.00359611
0.00360613
0.00358427
0.00358878
0.00358594
0.00359085
0.00359207
0.00357379
0.00358343
0.00358869
0.00360069
0.00359232
0.00358709
0.00359722
0.00358907
0.00358901
0.00356702
0.00362309
0.00359358
0.00357797
0.00360183
0.00359323
0.00361037
0.00361931
0.00360981
0.00360937
0.00360611
0.00359606
0.00358423
0.00358877
0.00358593
0.00359084
0.00359203
0.00357384
0.00358345
0.0035926
0.00359059
0.00359058
0.00358627
0.00358627
0.00359043
0.00360415
0.00362122
0.00361222
0.00360585
0.00361921
0.00360679
0.00359631
0.00360414
0.00362122
0.00361222
0.00360585
0.00361921
0.00360679
0.00359632
0.00360125
0.00359199
0.00359202
0.00361855
0.00357923
0.00357925
0.00359429
0.00358777
0.00359477
0.00358935
0.00359548
0.00358914
0.00358998
0.00359428
0.00358777
0.00359477
0.00358935
0.00359548
0.00358914
0.00358998
0.00355269
0.00355417
0.0035459
0.00354715
0.00355246
0.00355373
0.00354612
0.00355938
0.00356764
0.00355953
0.00356607
0.00356034
0.00355955
0.00356115
0.00356651
0.0035676
0.00356654
0.00355939
0.00356063
0.00355253
0.00354674
0.00355257
0.00355335
0.00354594
0.00355894
0.00355215
0.00355268
0.00355416
0.00354714
0.00354589
0.00355373
0.00355246
0.00354611
0.00355937
0.00356764
0.00355952
0.00356605
0.00356034
0.00355954
0.00356115
0.00356759
0.00356651
0.00356653
0.00356063
0.00355939
0.00355252
0.00354673
0.00355257
0.00355334
0.00354593
0.00355892
0.00355214
0.00355339
0.00354568
0.00354568
0.00355222
0.00355222
0.00354679
0.00355952
0.00356577
0.00356654
0.00356063
0.00356644
0.003559
0.00355945
0.00355952
0.00356577
0.00356654
0.00356063
0.00356644
0.003559
0.00355945
0.0035603
0.0035658
0.0035658
0.00356746
0.003559
0.003559
0.00355275
0.00354596
0.00355361
0.00354594
0.00355236
0.00355252
0.00354632
0.00355275
0.00354596
0.00355361
0.00354594
0.00355236
0.00355252
0.00354632
0.00369364
0.00369368
0.00368589
0.00366366
0.00366366
0.00367464
0.00369745
0.00366829
0.00368023
0.00369748
0.00366829
0.00368023
0.00366434
0.00366619
0.00366432
0.00366618
0.00366048
0.0036939
0.00369395
0.00368062
0.00363982
0.00363983
0.00365683
0.0036479
0.00365944
0.00365944
0.00366584
0.00365196
0.00365196
0.00364787
0.00363392
0.00365138
0.003634
0.00364889
0.0036445
0.00363465
0.00364787
0.00363392
0.00365136
0.00363404
0.00364886
0.0036445
0.00363464
0.00365972
0.00369182
0.00366567
0.00366185
0.00367583
0.00365334
0.00365742
0.00365973
0.0036918
0.00366567
0.00366184
0.00367583
0.00365332
0.00365742
0.00365188
0.0036494
0.00364946
0.00364571
0.00364567
0.00364013
0.00367002
0.00365718
0.00365869
0.00365828
0.00364935
0.00365437
0.00367227
0.00366528
0.00366143
0.00365105
0.00364745
0.00365211
0.00367002
0.00365718
0.00365869
0.00365827
0.00364935
0.00365437
0.00367226
0.00366528
0.00366142
0.00365105
0.00364745
0.00365211
0.0036599
0.00367564
0.00367211
0.00365809
0.00365465
0.00365855
0.003658
0.00364623
0.00367041
0.0036577
0.00367369
0.00366621
0.00366302
0.0036248
0.00365033
0.00362929
0.00363453
0.00363828
0.00365098
0.00364759
0.00365983
0.00367563
0.00367211
0.00365808
0.00365465
0.00365855
0.00365799
0.00364621
0.00365767
0.00367033
0.00367368
0.0036662
0.00366301
0.00362488
0.00365032
0.00362928
0.00363456
0.00365098
0.00364762
0.00363823
0.00364852
0.00366284
0.00365424
0.00365443
0.00365524
0.00365471
0.00364801
0.0036458
0.00364465
0.00365477
0.00364733
0.00364843
0.0036516
0.00364241
0.0036503
0.00366873
0.00366171
0.00366135
0.00365328
0.00365759
0.00365708
0.00364415
0.00364898
0.00364575
0.00364102
0.00364985
0.0036436
0.00364143
0.00364852
0.00366284
0.00365424
0.00365443
0.00365524
0.00365471
0.00364801
0.0036458
0.00364465
0.00365477
0.00364733
0.0036516
0.00364843
0.00364241
0.0036503
0.00366873
0.0036617
0.00366134
0.00365758
0.00365707
0.00365328
0.00364415
0.00364898
0.00364575
0.00364102
0.00364984
0.0036436
0.00364143
0.00369367
0.00369368
0.00368589
0.00366366
0.00366366
0.00367463
0.00369747
0.00366829
0.00368023
0.00369749
0.00366829
0.00368023
0.00366434
0.00366619
0.00366048
0.00369391
0.00369387
0.00368062
0.00363981
0.00363973
0.00365683
0.0036479
0.00365944
0.00365944
0.00365195
0.00366584
0.00365196
0.00364787
0.00363392
0.00365137
0.00363399
0.00364449
0.00364887
0.00363465
0.00364787
0.00363391
0.00365136
0.00363405
0.00364885
0.00364449
0.00363464
0.00365972
0.00369182
0.00366567
0.00366185
0.00365742
0.00367583
0.00365333
0.00365972
0.0036918
0.00366567
0.00366183
0.00367583
0.00365329
0.00365742
0.00365187
0.0036494
0.00364945
0.0036457
0.00364564
0.00364013
0.00366431
0.00366618
0.00367004
0.00365719
0.0036587
0.00365828
0.00364936
0.00365437
0.00367228
0.00366528
0.00366143
0.00365106
0.00364745
0.00365212
0.00365719
0.00367003
0.0036587
0.00364936
0.00365828
0.00365438
0.00365106
0.00364745
0.00365212
0.00367228
0.00366529
0.00366143
0.00365996
0.00367213
0.00367572
0.00365811
0.00365857
0.0036547
0.003658
0.00364625
0.00367049
0.00365772
0.0036737
0.00366621
0.00366304
0.00362487
0.00365035
0.00363454
0.0036293
0.00363832
0.00364762
0.00365106
0.00364852
0.00366286
0.00365425
0.00365444
0.00365525
0.00365472
0.00364802
0.00364581
0.00364465
0.00365477
0.00364733
0.00364843
0.00365161
0.00364241
0.0036503
0.00366874
0.00366171
0.00366135
0.00365328
0.00365759
0.00365708
0.00364415
0.00364899
0.00364575
0.00364102
0.00364985
0.0036436
0.00364144
0.00365992
0.00367571
0.00367212
0.00365811
0.00365468
0.00365857
0.00365799
0.00364624
0.0036577
0.00367047
0.0036737
0.00366621
0.00366303
0.00362477
0.00365034
0.00362931
0.00363456
0.00365106
0.00364763
0.00363833
0.00364852
0.00365425
0.00366285
0.00365444
0.00365525
0.00364802
0.00365472
0.00364581
0.00364465
0.00364734
0.00365478
0.00365161
0.00364241
0.00364843
0.00364415
0.00364899
0.00364576
0.00364102
0.00364985
0.0036436
0.00364144
0.0036503
0.00366874
0.00366171
0.00366135
0.00365759
0.00365708
0.00365328
0.00363953
0.00363954
0.00364029
0.00364582
0.00364582
0.00364331
0.003641
0.00364417
0.00364178
0.003641
0.00364417
0.00364178
0.00363954
0.00363954
0.00364029
0.00364582
0.00364583
0.00364332
0.003641
0.00364417
0.00364178
0.003641
0.00364417
0.00364178
0.00363954
0.00363954
0.00364029
0.00364582
0.00364582
0.00364332
0.003641
0.00364417
0.00364178
0.003641
0.00364417
0.00364178
0.00363569
0.00363826
0.00363826
0.0036346
0.00363898
0.00363514
0.00363514
0.00363854
0.00364175
0.0036442
0.0036442
0.00364196
0.00364006
0.00364006
0.00363712
0.00363971
0.00364265
0.00363821
0.00364045
0.00363874
0.00363658
0.00363712
0.00363971
0.00364265
0.00363821
0.00364045
0.00363874
0.00363658
0.00363569
0.00363826
0.00363826
0.0036346
0.00363898
0.00363514
0.00363514
0.00363854
0.00364174
0.0036442
0.0036442
0.00364006
0.00364196
0.00364006
0.00363712
0.00363971
0.00364265
0.00363821
0.00363874
0.00364045
0.00363658
0.00363712
0.00363971
0.00364265
0.00363821
0.00364045
0.00363658
0.00363874
0.00363569
0.00363826
0.00363826
0.0036346
0.00363898
0.00363515
0.00363515
0.00363855
0.00364175
0.0036442
0.0036442
0.00364007
0.00364196
0.00364007
0.00363712
0.00363971
0.00364265
0.00363822
0.00363874
0.00364045
0.00363658
0.00363712
0.00363971
0.00364265
0.00363822
0.00364045
0.00363658
0.00363874
0.00363569
0.00363826
0.00363826
0.0036346
0.00363898
0.00363515
0.00363515
0.00363855
0.00364175
0.0036442
0.0036442
0.00364196
0.00364007
0.00364007
0.00363712
0.00363971
0.00364265
0.00363822
0.00364045
0.00363658
0.00363874
0.00363712
0.00363971
0.00364265
0.00363822
0.00364045
0.00363658
0.00363874
0.00365719
0.00367003
0.0036587
0.00364936
0.00365828
0.00365438
0.00365106
0.00364745
0.00365212
0.00367228
0.00366529
0.00366143
0.00364852
0.00366286
0.00365425
0.00365444
0.00365525
0.00365472
0.00364802
0.00364581
0.00364465
0.00365477
0.00364733
0.00365161
0.00364843
0.00364241
0.0036503
0.00366875
0.00366171
0.00366134
0.00365759
0.00365328
0.00365708
0.00364415
0.00364899
0.00364575
0.00364102
0.00364985
0.00364144
0.0036436
0.00366
0.00367213
0.00367573
0.00365812
0.00365857
0.00365471
0.00365799
0.00364625
0.00365771
0.0036705
0.0036737
0.00366621
0.00366304
0.00362485
0.00365036
0.00363454
0.0036293
0.00364762
0.00365109
0.0036383
0.00364852
0.00365425
0.00366286
0.00365444
0.00365525
0.00364802
0.00365472
0.00364581
0.00364465
0.00364734
0.00365478
0.00364241
0.00365161
0.00364843
0.00364415
0.00364899
0.00364576
0.00364102
0.00364144
0.00364985
0.0036436
0.0036503
0.00366874
0.00366171
0.00366134
0.00365759
0.00365708
0.00365328
0.0036599
0.00367569
0.00367212
0.00365811
0.00365472
0.00365857
0.00365799
0.00364624
0.0036577
0.00367048
0.0036737
0.00366621
0.00366303
0.00362493
0.00365035
0.00362929
0.00363456
0.00365108
0.00364764
0.00363829
0.00369373
0.00369379
0.0036859
0.00366367
0.00366367
0.00367465
0.00369749
0.0036683
0.00368024
0.00369753
0.0036683
0.00368025
0.00366432
0.00366618
0.0036605
0.00369393
0.00369396
0.00368063
0.00363987
0.00363977
0.00365684
0.0036479
0.00365944
0.00365945
0.00365196
0.00366585
0.00365196
0.00364787
0.00363392
0.00365136
0.00363404
0.0036445
0.00364887
0.00363464
0.00364787
0.00363392
0.00365135
0.00363403
0.00364887
0.0036445
0.00363464
0.00365973
0.00369179
0.00366568
0.00366184
0.00365742
0.00367584
0.00365335
0.00365973
0.00369184
0.00366568
0.00366184
0.00367584
0.00365331
0.00365743
0.00365189
0.00364947
0.00364945
0.0036457
0.00364571
0.00364014
0.00366432
0.00366618
0.00365719
0.00367003
0.0036587
0.00364936
0.00365828
0.00365438
0.00365106
0.00364745
0.00365212
0.00367228
0.00366529
0.00366143
0.00364853
0.00365425
0.00366286
0.00365444
0.00365525
0.00364802
0.00365472
0.00364581
0.00364465
0.00364734
0.00365478
0.00365161
0.00364241
0.00364843
0.00364416
0.00364899
0.00364576
0.00364102
0.00364985
0.00364144
0.0036436
0.0036503
0.00366875
0.00366171
0.00366135
0.0036576
0.00365328
0.00365708
0.00364852
0.00365425
0.00366286
0.00365444
0.00365525
0.00364802
0.00365472
0.00364581
0.00364465
0.00364734
0.00365478
0.00364241
0.00365161
0.00364843
0.00364416
0.00364899
0.00364576
0.00364102
0.00364144
0.00364985
0.0036436
0.0036503
0.00366874
0.00366171
0.00366134
0.00365759
0.00365708
0.00365328
0.00366001
0.00367213
0.00367572
0.00365811
0.00365857
0.00365468
0.003658
0.00364625
0.00365772
0.0036705
0.0036737
0.00366622
0.00366304
0.00362486
0.00365036
0.00363454
0.00362932
0.00364762
0.00365107
0.00363831
0.00365988
0.00367212
0.00367572
0.00365811
0.00365858
0.00365467
0.00365798
0.00364624
0.0036577
0.00367049
0.0036737
0.0036662
0.00366303
0.00362486
0.00365035
0.00363457
0.00362931
0.00364765
0.00365106
0.00363832
0.00366048
0.00369394
0.00369387
0.00368063
0.00363976
0.00363976
0.00365683
0.0036479
0.00365944
0.00365944
0.00366584
0.00365196
0.00365196
0.00364786
0.00363392
0.00365135
0.00363405
0.00363464
0.00364449
0.00364886
0.00364787
0.00363391
0.00365136
0.00363403
0.00363464
0.00364449
0.00364886
0.00365972
0.00369182
0.00366568
0.00366183
0.00367584
0.00365742
0.00365331
0.00365973
0.0036918
0.00366568
0.00366183
0.00367584
0.00365742
0.0036533
0.00365187
0.00364948
0.00364944
0.00364014
0.00364568
0.00364571
0.0036643
0.00366617
0.0036643
0.00366616
0.00357376
0.00358339
0.00357388
0.00358341
0.00359259
0.00359055
0.00359054
0.00358624
0.00358623
0.00359041
0.00360415
0.00362122
0.00361219
0.00360581
0.00361922
0.0035963
0.00360678
0.00360414
0.00362122
0.00361224
0.00360585
0.00361921
0.00359632
0.00360678
0.00360125
0.00359207
0.00359208
0.00361856
0.00357925
0.00357923
0.00359429
0.00358776
0.00359475
0.00358934
0.00358912
0.00358998
0.00359546
0.00359427
0.00358773
0.00359476
0.00358933
0.00358912
0.00358996
0.00359546
0.00357899
0.00358506
0.003579
0.00358505
0.00358644
0.00358931
0.00358932
0.00358929
0.00358478
0.0035848
0.0035798
0.00357252
0.0035813
0.00357366
0.00357997
0.00357851
0.00357348
0.00357979
0.00357252
0.00358131
0.00357366
0.00357997
0.00357851
0.00357348
0.00358476
0.00358712
0.00358621
0.00358582
0.00358773
0.00358472
0.00358314
0.00358475
0.0035871
0.0035862
0.00358582
0.00358771
0.00358473
0.00358313
0.00358132
0.00357254
0.00357254
0.00357889
0.0035789
0.00357471
0.00358876
0.00360072
0.00358712
0.00359234
0.00358913
0.00359724
0.00358906
0.00356711
0.0036231
0.00359359
0.00357807
0.00360186
0.00359329
0.00361039
0.00360986
0.00361933
0.00359612
0.00360939
0.00360613
0.00358429
0.00358879
0.00358596
0.00359087
0.00359207
0.00358526
0.0035862
0.00358904
0.00358564
0.00358834
0.00358398
0.00358548
0.00357868
0.00358079
0.00357507
0.00357254
0.00358171
0.00358482
0.00358862
0.00358547
0.00359014
0.00358652
0.00357999
0.00358083
0.00357353
0.00357447
0.00357355
0.00357959
0.00358055
0.00358527
0.00358621
0.00358905
0.00358565
0.00358836
0.00358398
0.00358548
0.00357868
0.00358078
0.00357506
0.00358171
0.00357253
0.00358483
0.00358863
0.00358547
0.00359016
0.00358652
0.00357999
0.00358083
0.00357352
0.00357447
0.00357959
0.00358055
0.00357354
0.00359261
0.00359054
0.00359055
0.00358626
0.00358625
0.00359042
0.00360416
0.00362122
0.00361221
0.00360582
0.00359632
0.00361922
0.00360679
0.00360415
0.00362122
0.00361224
0.00360586
0.00360679
0.00361921
0.00359633
0.00360127
0.00359209
0.00359208
0.00357928
0.00361857
0.00357927
0.00359429
0.00358776
0.00359475
0.00358934
0.00358914
0.00359547
0.00358997
0.00359428
0.00358775
0.00359477
0.00358934
0.00359547
0.00358913
0.00358997
0.00357387
0.00358342
0.00357898
0.00358504
0.00358644
0.00358931
0.00358933
0.00358929
0.00358478
0.00358478
0.0035798
0.00357252
0.0035813
0.00357367
0.00357851
0.00357996
0.00357348
0.00357979
0.00357252
0.00358131
0.00357367
0.00357997
0.00357851
0.00357348
0.00358475
0.00358711
0.00358621
0.00358582
0.00358313
0.00358772
0.00358472
0.00358475
0.00358711
0.00358621
0.00358582
0.00358772
0.00358472
0.00358314
0.00358132
0.00357255
0.00357254
0.00357889
0.0035789
0.00357472
0.003579
0.00358505
0.00358872
0.0036007
0.0035871
0.00359232
0.00358909
0.00359721
0.00358903
0.00356704
0.0036231
0.00359359
0.00357798
0.00360185
0.00359324
0.00361037
0.00360983
0.00361931
0.00359608
0.00360938
0.0036061
0.0035843
0.00358879
0.00358595
0.00359086
0.00359208
0.00358527
0.00358904
0.0035862
0.00358564
0.00358834
0.00358548
0.00358398
0.0035787
0.00358078
0.00357507
0.00357255
0.00358172
0.00358484
0.00358862
0.00358546
0.00359014
0.00358653
0.00358001
0.00358083
0.00357447
0.00357353
0.00357355
0.00358055
0.00357959
0.00358527
0.0035862
0.00358904
0.00358565
0.00358834
0.00358398
0.00358548
0.0035787
0.00358078
0.00357507
0.00358171
0.00357254
0.00358485
0.00358863
0.00358547
0.00359014
0.00358653
0.00358001
0.00358083
0.00357353
0.00357447
0.00357959
0.00358055
0.00357355
0.0035887
0.00360069
0.00359232
0.00358709
0.00359722
0.00358907
0.00358902
0.00356699
0.00362309
0.00359357
0.00360183
0.00357798
0.00359324
0.00361036
0.00361931
0.00360981
0.00360611
0.00360939
0.00359605
0.00358425
0.00358878
0.00358593
0.00359085
0.00359206
0.0035887
0.0036007
0.00358711
0.00359233
0.00358908
0.00359722
0.00358905
0.003567
0.0036231
0.00359359
0.003578
0.00360185
0.00359322
0.00361036
0.00360981
0.00361932
0.00360935
0.00359606
0.00360611
0.00358426
0.00358879
0.00358596
0.00359086
0.00359208
0.00358527
0.00358904
0.0035862
0.00358565
0.00358834
0.00358548
0.00358398
0.00357868
0.00358078
0.00357507
0.00358171
0.00357253
0.00358483
0.00358863
0.00358547
0.00359017
0.00358653
0.00358
0.00358083
0.00357447
0.00357352
0.00358055
0.0035796
0.00357354
0.00358528
0.00358621
0.00358905
0.00358565
0.00358836
0.00358398
0.00358549
0.00357871
0.00358079
0.00357507
0.00358172
0.00357253
0.00358485
0.00358864
0.00358547
0.00359017
0.00358653
0.00358
0.00358083
0.00357353
0.00357447
0.00357959
0.00358055
0.00357354
0.00359258
0.00359056
0.00359057
0.00358624
0.00358625
0.00359042
0.00360414
0.00362122
0.00361222
0.00360584
0.00359631
0.00361921
0.00360678
0.00360414
0.00362122
0.00361221
0.00360585
0.00360678
0.0036192
0.0035963
0.00360123
0.00359201
0.00359199
0.00357921
0.00361854
0.00357922
0.00359427
0.00358776
0.00359476
0.00358934
0.00358912
0.00359547
0.00358997
0.00359428
0.00358776
0.00359477
0.00358935
0.00359547
0.00358912
0.00358998
0.00357384
0.00358343
0.00357899
0.00358506
0.00358645
0.00358934
0.00358934
0.00358931
0.00358481
0.00358479
0.0035798
0.00357252
0.00358131
0.00357366
0.00357852
0.00357998
0.00357348
0.0035798
0.00357251
0.00358131
0.00357366
0.00357998
0.00357852
0.00357348
0.00358476
0.00358713
0.00358622
0.00358583
0.00358314
0.00358773
0.00358475
0.00358476
0.00358713
0.00358622
0.00358583
0.00358773
0.00358474
0.00358315
0.00358133
0.00357254
0.00357254
0.00357891
0.0035789
0.00357471
0.00357898
0.00358508
0.00358871
0.0036007
0.00359233
0.0035871
0.00359722
0.00358908
0.00358903
0.00356696
0.00362309
0.00359358
0.00360183
0.003578
0.00359324
0.00361037
0.00361931
0.00360983
0.00360612
0.00360938
0.00359607
0.00358427
0.00358878
0.00358595
0.00359085
0.00359209
0.00358871
0.0036007
0.00359232
0.0035871
0.00359722
0.00358909
0.00358904
0.00356701
0.00362311
0.0035936
0.00357801
0.00360186
0.00359324
0.00361037
0.00361932
0.00360984
0.00360938
0.00360611
0.00359609
0.00358428
0.00358879
0.00358596
0.00359087
0.00359209
0.00358526
0.00358904
0.0035862
0.00358564
0.00358834
0.00358548
0.00358397
0.00357868
0.00358078
0.00357506
0.00358171
0.00357254
0.00358481
0.00358863
0.00358547
0.00359013
0.00358653
0.00358
0.00358082
0.00357447
0.00357352
0.00358055
0.00357959
0.00357354
0.00358527
0.00358904
0.0035862
0.00358565
0.00358835
0.00358548
0.00358398
0.00357869
0.00358078
0.00357506
0.00358171
0.00357253
0.00358484
0.00358863
0.00358546
0.00359015
0.00358653
0.00358
0.00358083
0.00357446
0.00357352
0.00358055
0.00357959
0.00357354
0.00357387
0.00358346
0.00357387
0.00358346
0.00358644
0.00358933
0.00358933
0.00358931
0.00358479
0.00358479
0.00357979
0.00357252
0.00358131
0.00357366
0.00357348
0.00357851
0.00357997
0.00357979
0.00357251
0.0035813
0.00357366
0.00357347
0.00357851
0.00357997
0.00358476
0.00358713
0.00358622
0.00358583
0.00358773
0.00358314
0.00358473
0.00358476
0.00358713
0.00358622
0.00358583
0.00358773
0.00358314
0.00358473
0.00358132
0.00357254
0.00357254
0.00357471
0.00357888
0.00357888
0.00357899
0.00358506
0.00357898
0.00358506
0.00355893
0.00355215
0.00355893
0.00355215
0.0035534
0.00354569
0.00354569
0.00355223
0.00355223
0.0035468
0.00355953
0.00356578
0.00356655
0.00356064
0.00356645
0.00355946
0.003559
0.00355953
0.00356578
0.00356655
0.00356064
0.00356644
0.00355946
0.00355901
0.00356031
0.00356581
0.0035658
0.00356747
0.00355901
0.00355901
0.00355276
0.00354597
0.00355361
0.00354595
0.00355253
0.00354633
0.00355236
0.00355276