/*--------------------------------*- C++ -*----------------------------------*\
| =========                 |                                                 |
| \\      /  F ield         | OpenFOAM: The Open Source CFD Toolbox           |
|  \\    /   O peration     | Version:  v2006                                 |
|   \\  /    A nd           | Website:  www.openfoam.com                      |
|    \\/     M anipulation  |                                                 |
\*---------------------------------------------------------------------------*/
FoamFile
{
    version     2.0;
    format      ascii;
    class       volVectorField;
    location    "250";
    object      U;
}
// * * * * * * * * * * * * * * * * * * * * * * * * * * * * * * * * * * * * * //

dimensions      [0 1 -1 0 0 0 0];


internalField   nonuniform List<vector> 
14457
(
(9.38621e-05 9.39147e-05 0.101892)
(9.00997e-05 -0.000152061 0.101957)
(0.000198935 0.000198835 0.101964)
(9.00601e-05 0.000152104 0.101957)
(0.000152045 9.01327e-05 0.101957)
(0.000152072 -9.00897e-05 0.101957)
(0.000198877 -0.000198957 0.101964)
(5.47119e-06 0.000258339 0.0958578)
(-7.94511e-06 0.000236304 0.100927)
(0.000258281 5.5492e-06 0.0958576)
(0.00023633 -7.93942e-06 0.100927)
(9.38976e-05 -9.3889e-05 0.101892)
(0.00015 -7.71609e-05 0.0849754)
(0.000162782 -0.000219908 0.101142)
(7.73865e-05 0.000150063 0.0849776)
(0.000149965 7.73187e-05 0.0849762)
(7.9333e-05 0.000133025 0.0997188)
(0.000133075 7.93304e-05 0.0997181)
(0.000162702 0.000219956 0.101142)
(3.21529e-05 0.000165118 0.101923)
(1.10267e-05 0.000282647 0.101822)
(0.000219999 0.000162756 0.101142)
(0.000165095 3.20927e-05 0.101923)
(0.000282669 1.10269e-05 0.101822)
(0.000258081 -5.52237e-06 0.0958571)
(0.000236308 8.00652e-06 0.100927)
(0.000165096 -3.21417e-05 0.101923)
(0.000219891 -0.000162778 0.101141)
(0.00028266 -1.10239e-05 0.101822)
(0.000133036 -7.93831e-05 0.0997177)
(7.93486e-05 -0.000133032 0.0997193)
(7.72444e-05 -0.000150054 0.084977)
(5.5032e-06 -0.000258184 0.0958577)
(8.85452e-05 9.18299e-05 0.0808001)
(8.17688e-06 0.00011309 0.0993992)
(6.00807e-06 0.000237252 0.0957474)
(9.10146e-05 0.00010665 0.0811641)
(6.56021e-06 9.48938e-05 0.0993899)
(0.000115305 0.000214405 0.0922238)
(-7.39334e-06 0.000211132 0.100963)
(5.8374e-05 0.000295434 0.0942966)
(1.21775e-06 0.00020127 0.100657)
(0.000115916 0.000226137 0.0924521)
(5.70767e-05 0.000283894 0.0941128)
(5.87347e-07 0.000175239 0.100688)
(9.17793e-05 8.85465e-05 0.0808)
(0.000113062 8.10044e-06 0.0993996)
(0.000237185 6.06976e-06 0.0957467)
(0.000106619 9.10227e-05 0.0811643)
(9.49534e-05 6.47901e-06 0.0993895)
(0.000214461 0.000115371 0.0922237)
(0.000211166 -7.42496e-06 0.100963)
(0.000201299 1.294e-06 0.100658)
(0.000295479 5.82733e-05 0.0942964)
(0.000226211 0.000116012 0.0924523)
(0.000175269 6.74824e-07 0.100688)
(0.000283955 5.69967e-05 0.0941129)
(0.000134003 -6.77068e-05 0.084667)
(6.79109e-05 0.000134037 0.0846686)
(0.000133921 6.784e-05 0.0846666)
(0.000171166 0.000161811 0.101092)
(0.000150922 0.000225647 0.101705)
(0.000121373 0.000308334 0.0952234)
(6.31801e-05 0.000121779 0.0997138)
(0.000187033 0.000193738 0.101053)
(0.000114212 0.000293612 0.0950752)
(0.000126823 0.000180967 0.101763)
(0.000161828 0.000171189 0.101093)
(0.000225552 0.000150789 0.101704)
(0.000308291 0.000121423 0.0952203)
(0.000121793 6.31422e-05 0.0997133)
(0.000193646 0.000186997 0.101051)
(0.000293608 0.000114307 0.0950731)
(0.000180882 0.000126739 0.101763)
(3.24144e-05 3.25132e-05 0.098581)
(0.000156238 7.23325e-05 0.0821323)
(7.2373e-05 0.000156196 0.0821281)
(3.98536e-05 3.99632e-05 0.0986416)
(6.5199e-05 0.000143737 0.0817711)
(9.16525e-05 -8.84426e-05 0.0808015)
(0.000112943 -8.15851e-06 0.0993989)
(0.000237097 -5.94642e-06 0.0957467)
(0.000106572 -9.09214e-05 0.0811657)
(9.51987e-05 -6.54193e-06 0.0993898)
(0.000214371 -0.000115382 0.0922237)
(0.000211238 7.40922e-06 0.100964)
(0.000295374 -5.8402e-05 0.0942955)
(0.000201206 -1.27255e-06 0.100656)
(0.000283974 -5.71115e-05 0.0941134)
(0.000225961 -0.000116089 0.0924502)
(0.000175361 -7.30985e-07 0.100689)
(0.000161896 -0.00017087 0.101093)
(0.000225634 -0.000150914 0.101704)
(0.000308428 -0.00012138 0.0952207)
(0.00012202 -6.32203e-05 0.0997133)
(0.000293725 -0.000114032 0.0950727)
(0.000193713 -0.000187216 0.101051)
(0.00018102 -0.000126729 0.101763)
(0.000170855 -0.000161864 0.101092)
(0.000150916 -0.000225595 0.101705)
(0.00012136 -0.000308351 0.0952241)
(6.31627e-05 -0.000121923 0.0997135)
(0.000126712 -0.000180912 0.101763)
(0.000187228 -0.000193758 0.101053)
(0.00011399 -0.000293609 0.0950752)
(3.26592e-05 -3.27147e-05 0.0985825)
(7.27425e-05 -0.000156212 0.0821281)
(0.000156158 -7.27558e-05 0.0821321)
(3.96989e-05 -3.97617e-05 0.0986412)
(0.000143565 -6.49606e-05 0.0817744)
(6.7753e-05 -0.00013397 0.0846674)
(8.85387e-05 -9.18666e-05 0.0808031)
(8.12224e-06 -0.00011302 0.0993979)
(5.97229e-06 -0.000237127 0.0957476)
(6.55965e-06 -9.50528e-05 0.0993917)
(9.09669e-05 -0.000106536 0.0811622)
(3.05749e-05 9.32268e-05 0.101854)
(9.32201e-05 3.05582e-05 0.101854)
(3.22919e-05 3.22732e-05 0.101818)
(0.000153647 0.000153492 0.101864)
(0.000199961 0.000188047 0.101934)
(0.000188056 0.00019989 0.101934)
(9.40519e-05 9.39805e-05 0.102013)
(0.000191152 0.000191075 0.101804)
(8.38646e-05 0.000152352 0.101989)
(0.000152393 8.38456e-05 0.101989)
(0.000153504 -0.000153536 0.101864)
(0.000188071 -0.00019999 0.101934)
(0.000199924 -0.000188103 0.101934)
(9.4005e-05 -9.4011e-05 0.102013)
(8.38082e-05 -0.000152343 0.101989)
(0.000191107 -0.000191174 0.101805)
(0.000152388 -8.38816e-05 0.101989)
(9.32318e-05 -3.05888e-05 0.101854)
(3.05689e-05 -9.3232e-05 0.101854)
(3.22864e-05 -3.23067e-05 0.101818)
(6.60143e-05 -0.000107883 0.101983)
(0.000104668 -0.000277944 0.101857)
(9.43201e-05 -0.000234282 0.101671)
(0.00014787 -0.000177151 0.1012)
(6.78658e-05 -0.000252434 0.101925)
(9.45265e-05 -0.00012312 0.101915)
(9.32019e-05 -0.00018795 0.101738)
(6.60655e-05 0.000107837 0.101983)
(0.000104605 0.000277999 0.101857)
(9.43678e-05 0.00023429 0.101671)
(9.32684e-05 0.000187826 0.101737)
(6.78815e-05 0.000252432 0.101925)
(9.4559e-05 0.000123143 0.101915)
(3.08289e-05 0.000128762 0.101989)
(1.14387e-05 0.000241887 0.101882)
(3.31354e-05 0.000266429 0.101791)
(1.20449e-05 0.000259883 0.101934)
(3.42049e-05 0.000223378 0.101853)
(3.09252e-05 0.000258744 0.101934)
(1.26066e-05 0.000136823 0.101989)
(0.000107891 6.60044e-05 0.101983)
(0.000278011 0.000104576 0.101857)
(0.000234344 9.43162e-05 0.101671)
(0.00017714 0.000147918 0.101199)
(0.000187921 9.31974e-05 0.101737)
(0.000252456 6.78161e-05 0.101925)
(0.000123146 9.45683e-05 0.101915)
(0.000128775 3.07855e-05 0.101989)
(0.000241927 1.14155e-05 0.101882)
(0.000266461 3.31483e-05 0.101791)
(0.000259881 1.20247e-05 0.101934)
(0.000223419 3.42232e-05 0.101853)
(0.000258758 3.08839e-05 0.101934)
(0.000136823 1.25775e-05 0.101989)
(0.000107893 -6.60259e-05 0.101983)
(0.000277946 -0.00010466 0.101857)
(0.000234253 -9.43089e-05 0.101671)
(0.000177176 -0.000147801 0.1012)
(0.000252432 -6.78601e-05 0.101925)
(0.000187972 -9.31902e-05 0.101737)
(0.000123111 -9.45361e-05 0.101915)
(0.000128756 -3.08242e-05 0.101989)
(0.000241939 -1.14564e-05 0.101882)
(0.000259891 -1.2044e-05 0.101934)
(0.00026639 -3.31489e-05 0.101791)
(0.00025872 -3.0911e-05 0.101934)
(0.000223418 -3.42734e-05 0.101854)
(0.000107945 0.000107901 0.100299)
(-0.000190207 0.000119268 0.100385)
(0.000119319 -0.000190207 0.100385)
(-0.000239584 -0.000239574 0.100397)
(9.42506e-05 9.42329e-05 0.10086)
(-0.000158956 9.67977e-05 0.100942)
(9.68132e-05 -0.000159001 0.100942)
(-0.000201065 -0.00020115 0.100968)
(0.000134949 0.000134976 0.100282)
(0.000124244 0.000152885 0.100229)
(-0.000124249 0.000152836 0.100229)
(-0.000134972 0.000134902 0.100282)
(0.000152887 0.00012422 0.100229)
(0.000152861 -0.000124247 0.100229)
(9.08003e-05 9.07618e-05 0.100151)
(-9.08038e-05 9.07438e-05 0.100151)
(9.07751e-05 -9.08066e-05 0.100151)
(-9.07738e-05 -9.07868e-05 0.100151)
(-0.000152906 0.000124181 0.100229)
(-0.00015287 -0.000124189 0.100229)
(0.000134936 -0.000134989 0.100282)
(0.000124211 -0.000152916 0.100229)
(-0.000124187 -0.000152862 0.100229)
(-0.000134957 -0.00013492 0.100282)
(0.000239615 0.000239635 0.100397)
(0.000111257 0.000111147 0.100892)
(0.000119381 0.000190143 0.100385)
(-0.000119364 0.00019009 0.100385)
(8.9059e-05 0.00014718 0.100823)
(-8.90808e-05 0.000147181 0.100823)
(-0.000239667 0.000239538 0.100397)
(-0.000111291 0.000111122 0.100892)
(0.000190205 0.000119299 0.100385)
(0.000190145 -0.000119345 0.100385)
(0.000147158 8.90348e-05 0.100823)
(0.000147211 -8.91271e-05 0.100823)
(-0.000190142 -0.000119353 0.100385)
(-0.000147178 8.90502e-05 0.100823)
(-0.000147224 -8.9112e-05 0.100823)
(0.00023956 -0.000239692 0.100397)
(0.000111235 -0.000111312 0.100893)
(-0.000119338 -0.000190167 0.100385)
(8.90834e-05 -0.000147237 0.100823)
(-8.90742e-05 -0.000147204 0.100823)
(-0.00011127 -0.000111335 0.100892)
(0.000201087 0.000200947 0.100967)
(9.67818e-05 0.00015897 0.100941)
(-9.68058e-05 0.000158954 0.100941)
(-0.000201133 0.000200908 0.100967)
(0.00015895 9.67903e-05 0.100942)
(0.000158989 -9.68481e-05 0.100942)
(-0.000159002 -9.68295e-05 0.100942)
(0.000201039 -0.000201158 0.100968)
(-9.68151e-05 -0.00015897 0.100942)
(-3.34704e-07 -3.36948e-07 0.0999988)
(1.68267e-05 1.6824e-05 0.100003)
(-4.5014e-07 1.39329e-05 0.1)
(1.39393e-05 -4.53702e-07 0.1)
(-4.65979e-05 5.73193e-06 0.100009)
(-1.52713e-05 1.5586e-05 0.0999999)
(-0.000127875 6.04433e-05 0.100058)
(-1.31107e-05 -8.63686e-07 0.0999958)
(5.73698e-06 -4.6588e-05 0.100009)
(1.55919e-05 -1.5273e-05 0.0999999)
(-8.6039e-07 -1.31109e-05 0.0999958)
(6.04508e-05 -0.00012794 0.100058)
(-1.87292e-05 -1.8731e-05 0.100003)
(-0.000134951 -8.10877e-05 0.100055)
(-8.10851e-05 -0.000134953 0.100055)
(-3.48929e-05 0.000135799 0.100724)
(0.000176676 0.000389387 0.0994172)
(2.31199e-06 0.000305475 0.100517)
(-8.43504e-05 0.000243765 0.0991473)
(-0.00030329 0.00083752 0.0977721)
(-0.000129143 0.000304565 0.0957185)
(0.000135819 -3.49459e-05 0.100724)
(0.000389004 0.000175825 0.0994172)
(0.000306005 2.29303e-06 0.100517)
(0.000243393 -8.39934e-05 0.0991471)
(-0.000107952 0.000107879 0.100299)
(0.000107919 -0.000107955 0.100299)
(-0.000107921 -0.000107932 0.100299)
(9.17263e-05 9.1677e-05 0.100739)
(-9.17361e-05 9.16865e-05 0.100739)
(9.17148e-05 -9.17627e-05 0.100739)
(-9.17246e-05 -9.17883e-05 0.100739)
(-0.000280742 6.44697e-06 0.100754)
(-0.000399025 0.000229259 0.100526)
(-0.000175285 3.73824e-05 0.100332)
(-0.00015325 9.44831e-05 0.100558)
(-0.00035899 1.56256e-05 0.100479)
(-0.000148757 0.000198746 0.100739)
(-0.000152725 3.32775e-05 0.100497)
(0.000837015 -0.000301652 0.0977704)
(0.000304775 -0.00012859 0.0957188)
(6.39369e-06 -0.000280741 0.100754)
(3.74136e-05 -0.000175281 0.100332)
(0.000229239 -0.000399137 0.100526)
(9.44938e-05 -0.000153256 0.100558)
(1.56586e-05 -0.000358952 0.100479)
(3.32992e-05 -0.000152737 0.100497)
(0.000198713 -0.000149011 0.100739)
(-0.000372832 -0.000141985 0.100361)
(-0.000141893 -0.000372781 0.100361)
(-0.000111967 -0.000112074 0.100655)
(1.094e-05 -7.89984e-05 0.10059)
(-7.88924e-05 1.09843e-05 0.10059)
(-1.66551e-05 0.000198241 0.100867)
(-5.49791e-05 0.000288453 0.0983206)
(-2.04379e-05 0.000208676 0.100777)
(-4.49417e-05 0.000271326 0.0979448)
(-0.000150271 0.000313391 0.092621)
(-0.00013713 0.000273055 0.0909995)
(0.000198284 -1.67091e-05 0.100867)
(0.00028827 -5.48697e-05 0.0983206)
(0.000208748 -2.04772e-05 0.100777)
(0.000271161 -4.47868e-05 0.0979445)
(-9.42618e-05 9.42403e-05 0.10086)
(9.42654e-05 -9.42933e-05 0.10086)
(-9.42768e-05 -9.43102e-05 0.10086)
(-0.000263627 1.32982e-05 0.101153)
(-0.000219098 0.00021424 0.100819)
(-0.000164533 3.10457e-05 0.100897)
(-0.000160213 9.74187e-05 0.101064)
(-0.000298004 1.41275e-05 0.100977)
(-0.000183266 0.000197858 0.100945)
(-0.000168739 3.24856e-05 0.101019)
(0.000313453 -0.000150016 0.0926202)
(0.000273156 -0.000136927 0.091)
(1.33012e-05 -0.000263626 0.101153)
(3.10709e-05 -0.000164554 0.100897)
(0.000214256 -0.000219169 0.100819)
(9.74151e-05 -0.000160245 0.101064)
(1.41263e-05 -0.000297996 0.100977)
(3.2507e-05 -0.000168753 0.101019)
(0.000197813 -0.000183306 0.100945)
(-8.39672e-05 -9.72584e-05 0.100438)
(-9.71997e-05 -8.3933e-05 0.100438)
(-0.000112488 -0.000112524 0.101144)
(-8.67772e-05 -8.27349e-05 0.10043)
(-8.2639e-05 -8.67392e-05 0.10043)
(1.87271e-05 1.87192e-05 0.100003)
(8.09933e-05 0.000134937 0.100054)
(0.000134961 8.10319e-05 0.100055)
(0.000413584 0.00104176 0.0978825)
(0.000115081 0.000204243 0.100125)
(0.00104093 0.000411145 0.0978826)
(0.000204283 0.000115093 0.100125)
(0.000102442 0.000102428 0.100042)
(0.000116859 0.000513192 0.10028)
(0.000512278 0.000116419 0.100279)
(0.000117337 0.000180413 0.100096)
(0.000180429 0.000117352 0.100096)
(5.73514e-06 4.6578e-05 0.100009)
(1.55937e-05 1.52675e-05 0.0999999)
(6.04399e-05 0.000127831 0.100058)
(-8.60268e-07 1.31041e-05 0.0999958)
(-5.72588e-06 4.65778e-05 0.100009)
(-1.55925e-05 1.52644e-05 0.0999999)
(-6.0443e-05 0.000127844 0.100058)
(8.62148e-07 1.31035e-05 0.0999958)
(4.59978e-06 0.000154602 0.100054)
(0.000326241 0.000315046 0.0993593)
(9.83838e-05 0.000167667 0.100055)
(7.37548e-06 0.000327283 0.100419)
(-4.58615e-06 0.000154611 0.100054)
(-0.000326901 0.000314928 0.0993589)
(-9.83703e-05 0.000167729 0.100056)
(-7.39407e-06 0.000327165 0.100419)
(1.38427e-05 0.000160293 0.100055)
(6.24748e-05 8.73122e-05 0.100031)
(0.000206561 0.000375905 0.100428)
(3.28773e-05 0.000155345 0.100173)
(9.68783e-05 0.000162627 0.100054)
(1.25301e-05 6.53548e-05 0.100026)
(1.27142e-05 0.000318371 0.100356)
(-1.38218e-05 0.000160288 0.100055)
(-6.24749e-05 8.73016e-05 0.100031)
(-0.000206576 0.00037584 0.100428)
(-3.28603e-05 0.00015534 0.100173)
(-9.68719e-05 0.00016261 0.100054)
(-1.25233e-05 6.5354e-05 0.100026)
(-1.27259e-05 0.00031827 0.100356)
(-1.87256e-05 1.87146e-05 0.100003)
(-8.10007e-05 0.000134948 0.100055)
(-0.000134979 8.10517e-05 0.100055)
(-0.000413653 0.00104194 0.0978825)
(-0.000115066 0.000204252 0.100125)
(-0.000102448 0.000102417 0.100042)
(-0.00011678 0.000513308 0.100279)
(-0.000512128 0.000116336 0.100279)
(-0.000117331 0.000180361 0.100096)
(-0.000180433 0.000117401 0.100096)
(-0.00104073 0.000410657 0.0978823)
(-0.000204296 0.000115124 0.100125)
(4.65955e-05 5.73021e-06 0.100009)
(1.52702e-05 1.55892e-05 0.0999999)
(0.000127869 6.04368e-05 0.100058)
(1.31095e-05 -8.64314e-07 0.0999958)
(4.65974e-05 -5.72799e-06 0.100009)
(1.5269e-05 -1.5594e-05 0.0999999)
(1.31106e-05 8.58445e-07 0.0999958)
(0.000127862 -6.04473e-05 0.100058)
(0.000154665 4.60046e-06 0.100054)
(0.000314665 0.000325126 0.0993589)
(0.000167764 9.83108e-05 0.100055)
(0.000327966 7.34412e-06 0.100419)
(0.000160392 1.38323e-05 0.100055)
(8.73359e-05 6.2456e-05 0.100031)
(0.000375965 0.000206232 0.100428)
(0.000155431 3.28452e-05 0.100173)
(0.000162656 9.68517e-05 0.100054)
(6.53863e-05 1.2519e-05 0.100026)
(0.000318696 1.26697e-05 0.100356)
(0.000154668 -4.57448e-06 0.100054)
(0.000313673 -0.000325248 0.0993589)
(0.000167697 -9.83263e-05 0.100055)
(0.000327887 -7.24895e-06 0.100419)
(0.000160376 -1.38139e-05 0.100055)
(8.73275e-05 -6.24813e-05 0.100031)
(0.00015541 -3.28619e-05 0.100173)
(0.00037587 -0.000206373 0.100428)
(6.5381e-05 -1.25261e-05 0.100026)
(0.000162611 -9.68719e-05 0.100054)
(0.000318584 -1.26456e-05 0.100357)
(3.34776e-07 -3.36827e-07 0.0999988)
(-1.68269e-05 1.68202e-05 0.100003)
(4.52255e-07 1.39325e-05 0.1)
(-1.39406e-05 -4.53043e-07 0.1)
(-3.34716e-07 3.32405e-07 0.0999988)
(1.68259e-05 -1.68279e-05 0.100003)
(1.39394e-05 4.49638e-07 0.1)
(-4.50627e-07 -1.39404e-05 0.1)
(3.34664e-07 3.32401e-07 0.0999988)
(-1.68266e-05 -1.68245e-05 0.100003)
(-1.39404e-05 4.50242e-07 0.1)
(4.53038e-07 -1.394e-05 0.1)
(9.62279e-06 9.611e-06 0.100016)
(4.5379e-05 4.53594e-05 0.100015)
(2.90197e-05 8.47481e-05 0.100134)
(8.47937e-05 2.89912e-05 0.100134)
(1.06428e-05 3.72803e-05 0.100014)
(3.72983e-05 1.06325e-05 0.100014)
(2.75866e-05 2.75536e-05 0.100121)
(-9.62399e-06 9.61067e-06 0.100016)
(-4.53798e-05 4.53543e-05 0.100015)
(-2.90208e-05 8.47423e-05 0.100134)
(-8.47995e-05 2.89868e-05 0.100134)
(-1.06413e-05 3.72787e-05 0.100014)
(-3.73003e-05 1.06307e-05 0.100014)
(-2.75912e-05 2.75525e-05 0.100121)
(9.62265e-06 -9.63173e-06 0.100016)
(4.53718e-05 -4.53836e-05 0.100015)
(8.47853e-05 -2.90384e-05 0.100134)
(2.90178e-05 -8.48043e-05 0.100134)
(3.72959e-05 -1.06478e-05 0.100014)
(1.06417e-05 -3.7302e-05 0.100014)
(2.75861e-05 -2.7613e-05 0.100121)
(-9.62323e-06 -9.63126e-06 0.100016)
(-4.53708e-05 -4.53777e-05 0.100015)
(-8.47907e-05 -2.90338e-05 0.100134)
(-2.90152e-05 -8.47977e-05 0.100134)
(-3.7298e-05 -1.06458e-05 0.100014)
(-1.06388e-05 -3.73001e-05 0.100014)
(-2.75889e-05 -2.76116e-05 0.100121)
(-4.65922e-05 -5.71884e-06 0.100009)
(-1.52721e-05 -1.55904e-05 0.0999999)
(-1.31107e-05 8.58734e-07 0.0999958)
(-0.000127863 -6.04689e-05 0.100058)
(-0.000160424 1.38286e-05 0.100055)
(-8.73372e-05 6.24471e-05 0.100031)
(-0.000375969 0.000206204 0.100428)
(-0.000155444 3.28408e-05 0.100173)
(-0.000162663 9.68748e-05 0.100054)
(-6.53917e-05 1.25177e-05 0.100026)
(-0.000318771 1.26316e-05 0.100357)
(-0.000154725 4.60612e-06 0.100054)
(-0.000314739 0.0003251 0.0993593)
(-0.000167771 9.83295e-05 0.100055)
(-0.000328169 7.23921e-06 0.100419)
(-0.0001604 -1.38018e-05 0.100055)
(-8.73242e-05 -6.24755e-05 0.100031)
(-0.000155428 -3.28511e-05 0.100173)
(-0.000375825 -0.000206289 0.100428)
(-6.5388e-05 -1.25225e-05 0.100026)
(-0.000162616 -9.68922e-05 0.100054)
(-0.000318668 -1.26498e-05 0.100357)
(-0.000154703 -4.55152e-06 0.100054)
(-0.000313723 -0.00032511 0.0993586)
(-0.0001677 -9.83552e-05 0.100055)
(-0.000328043 -7.25306e-06 0.100419)
(1.87238e-05 -1.87287e-05 0.100003)
(0.000134931 -8.10466e-05 0.100055)
(8.10439e-05 -0.000134989 0.100055)
(0.00104042 -0.000411139 0.0978825)
(0.000204249 -0.000115092 0.100125)
(0.000102444 -0.000102459 0.100042)
(0.000512006 -0.000116708 0.10028)
(0.000116716 -0.000512228 0.100279)
(0.000180392 -0.000117369 0.100096)
(0.000117381 -0.000180472 0.100096)
(0.000411479 -0.00104106 0.097883)
(0.000115078 -0.000204365 0.100125)
(-5.71886e-06 -4.65835e-05 0.100009)
(-1.55898e-05 -1.52708e-05 0.0999999)
(8.63124e-07 -1.31103e-05 0.0999958)
(-6.04679e-05 -0.00012786 0.100058)
(1.38418e-05 -0.000160392 0.100055)
(6.24707e-05 -8.73417e-05 0.100031)
(3.28661e-05 -0.000155433 0.100173)
(0.000206221 -0.000375959 0.100428)
(1.25274e-05 -6.53874e-05 0.100026)
(9.68907e-05 -0.000162714 0.100054)
(1.26714e-05 -0.00031869 0.100356)
(-1.38061e-05 -0.000160377 0.100055)
(-6.2474e-05 -8.73299e-05 0.100031)
(-3.28464e-05 -0.000155425 0.100173)
(-0.000206288 -0.000375788 0.100428)
(-1.25194e-05 -6.53854e-05 0.100026)
(-9.69094e-05 -0.000162633 0.100054)
(-1.26552e-05 -0.000318583 0.100356)
(4.60809e-06 -0.000154661 0.100054)
(0.000324882 -0.000313988 0.0993594)
(9.83445e-05 -0.000167843 0.100056)
(7.3284e-06 -0.000327975 0.100419)
(-4.56165e-06 -0.000154662 0.100054)
(-0.000325194 -0.00031425 0.0993587)
(-9.83712e-05 -0.000167749 0.100056)
(-7.32175e-06 -0.000327855 0.100419)
(-0.00010244 -0.000102441 0.100042)
(-0.000511806 -0.000116604 0.100279)
(-0.000116542 -0.000511778 0.100279)
(-0.000180418 -0.0001174 0.100096)
(-0.000117437 -0.000180411 0.100096)
(-0.00104022 -0.000410674 0.0978822)
(-0.000204262 -0.000115156 0.100125)
(-0.000410702 -0.00104019 0.0978822)
(-0.000115161 -0.000204269 0.100125)
(0.000303421 0.000837592 0.0977722)
(0.000129173 0.000304266 0.095719)
(0.000836746 0.000301383 0.0977709)
(0.000304539 0.000128843 0.0957191)
(0.000142222 0.000373394 0.100361)
(0.000372664 0.000142044 0.10036)
(0.000112057 0.00011192 0.100655)
(7.92101e-05 -1.14961e-05 0.10059)
(-1.11979e-05 7.89858e-05 0.10059)
(0.000153021 0.000321816 0.0932431)
(0.000168356 0.000342291 0.0950103)
(0.000321759 0.00015259 0.0932421)
(0.000342275 0.000167796 0.0950102)
(0.000185326 0.000185164 0.100733)
(8.09076e-05 6.57208e-05 0.100487)
(6.58114e-05 8.07824e-05 0.100487)
(8.66882e-05 3.53685e-05 0.100515)
(3.54561e-05 8.64647e-05 0.100515)
(3.48251e-05 0.000135931 0.100723)
(-0.000177179 0.000389214 0.099417)
(-2.36917e-06 0.000305399 0.100517)
(8.39626e-05 0.000243739 0.0991467)
(6.45598e-06 0.00028066 0.100753)
(0.000229463 0.00039906 0.100526)
(3.74609e-05 0.000175172 0.100332)
(9.45417e-05 0.0001532 0.100558)
(1.571e-05 0.00035867 0.100479)
(0.000198565 0.000148899 0.100739)
(3.33008e-05 0.00015265 0.100497)
(-6.36075e-06 0.000280617 0.100753)
(-0.000229568 0.000399002 0.100526)
(-3.74466e-05 0.000175138 0.100332)
(-9.45618e-05 0.000153195 0.100558)
(-1.56789e-05 0.000358565 0.100479)
(-0.000198607 0.00014899 0.100739)
(-3.33167e-05 0.000152636 0.100497)
(-3.3753e-05 0.000154403 0.100721)
(-5.69638e-05 0.000266713 0.0984867)
(-5.92923e-05 0.000258929 0.0989111)
(-2.15718e-05 0.000177046 0.10077)
(3.36208e-05 0.000154533 0.100721)
(5.69053e-05 0.000266673 0.0984862)
(5.9007e-05 0.000258966 0.0989107)
(2.14253e-05 0.000177085 0.10077)
(8.39673e-06 0.000292563 0.100793)
(8.02131e-05 0.000133424 0.100702)
(0.000202065 0.000175774 0.100804)
(2.88799e-05 0.000152234 0.100776)
(0.000205131 0.000174317 0.100724)
(2.86937e-05 0.000141157 0.100647)
(1.46097e-05 0.000263445 0.100923)
(-8.37914e-06 0.000292563 0.100793)
(-8.02363e-05 0.000133436 0.100702)
(-0.000202039 0.000175799 0.100804)
(-2.89235e-05 0.000152247 0.100776)
(-0.000205149 0.000174463 0.100724)
(-2.87258e-05 0.000141162 0.100647)
(-1.46628e-05 0.000263454 0.100923)
(-0.000142159 0.000373305 0.100361)
(-0.000372669 0.000141959 0.100361)
(-0.000112076 0.000111912 0.100655)
(-7.92994e-05 -1.13371e-05 0.10059)
(1.1232e-05 7.89293e-05 0.10059)
(-0.000836712 0.000301062 0.0977711)
(-0.000304393 0.000128678 0.0957187)
(-0.000152693 0.000321669 0.0932421)
(-0.00016819 0.000342469 0.0950102)
(-0.000185378 0.00018515 0.100733)
(-8.09341e-05 6.55969e-05 0.100487)
(-6.58188e-05 8.07483e-05 0.100487)
(-8.67355e-05 3.54433e-05 0.100515)
(-3.55393e-05 8.64936e-05 0.100516)
(-0.000321801 0.000152575 0.0932423)
(-0.000342284 0.00016777 0.0950107)
(0.000280727 6.38671e-06 0.100754)
(0.000399079 0.000229271 0.100526)
(0.000175271 3.73864e-05 0.100332)
(0.000153254 9.4484e-05 0.100558)
(0.000358932 1.56671e-05 0.100479)
(0.000148822 0.000198667 0.100739)
(0.000152712 3.32857e-05 0.100497)
(0.000136001 3.50108e-05 0.100724)
(0.000388169 -0.000176338 0.0994167)
(0.000306002 -2.21901e-06 0.100517)
(0.000242933 8.40076e-05 0.0991471)
(0.000280688 -6.3624e-06 0.100754)
(0.000175239 -3.7452e-05 0.100332)
(0.000399154 -0.000229461 0.100526)
(0.000153217 -9.45387e-05 0.100558)
(0.000358815 -1.56253e-05 0.100479)
(0.000152687 -3.33243e-05 0.100497)
(0.000148998 -0.000198698 0.100739)
(0.000154405 -3.37839e-05 0.100721)
(0.000266465 -5.69161e-05 0.0984863)
(0.000258606 -5.91288e-05 0.0989111)
(0.00017713 -2.16258e-05 0.10077)
(0.000292618 8.33387e-06 0.100793)
(0.000133418 8.0172e-05 0.100702)
(0.000175739 0.000202109 0.100804)
(0.000152265 2.88602e-05 0.100776)
(0.000174284 0.000205202 0.100724)
(0.000141181 2.86934e-05 0.100647)
(0.000263533 1.45412e-05 0.100923)
(0.000154527 3.38163e-05 0.100721)
(0.000266124 5.68726e-05 0.0984865)
(0.000258174 5.91027e-05 0.0989106)
(0.000177221 2.15762e-05 0.10077)
(0.00029261 -8.36748e-06 0.100793)
(0.00013344 -8.02411e-05 0.100702)
(0.000152262 -2.89369e-05 0.100776)
(0.000175825 -0.000202177 0.100804)
(0.000141165 -2.87363e-05 0.100647)
(0.000174417 -0.000205232 0.100724)
(0.000263567 -1.46563e-05 0.100923)
(-0.000135804 -3.49101e-05 0.100724)
(-0.000389047 0.00017588 0.0994172)
(-0.000306148 2.1739e-06 0.100517)
(-0.000243397 -8.40714e-05 0.0991475)
(-0.000280686 -6.30709e-06 0.100753)
(-0.000175249 -3.74407e-05 0.100332)
(-0.000399086 -0.000229419 0.100526)
(-0.000153214 -9.44745e-05 0.100558)
(-0.000358883 -1.56315e-05 0.100479)
(-0.000152694 -3.33111e-05 0.100497)
(-0.000148992 -0.000198857 0.100739)
(-0.000135879 3.49071e-05 0.100724)
(-0.000388226 -0.000176212 0.0994169)
(-0.000306016 -2.25697e-06 0.100517)
(-0.00024297 8.38734e-05 0.0991468)
(-0.000292645 8.38932e-06 0.100793)
(-0.000133443 8.01927e-05 0.100702)
(-0.00017573 0.000202148 0.100804)
(-0.000152287 2.88668e-05 0.100776)
(-0.000174245 0.00020532 0.100724)
(-0.000141204 2.86931e-05 0.100647)
(-0.000263577 1.45904e-05 0.100923)
(-0.000154401 -3.37761e-05 0.100721)
(-0.000266507 -5.68538e-05 0.0984868)
(-0.000258609 -5.90938e-05 0.0989109)
(-0.000177144 -2.16292e-05 0.10077)
(-0.000292625 -8.32706e-06 0.100793)
(-0.000133451 -8.02038e-05 0.100702)
(-0.000152287 -2.89287e-05 0.100776)
(-0.00017582 -0.000202241 0.100804)
(-0.000141188 -2.87234e-05 0.100647)
(-0.000174432 -0.000205427 0.100724)
(-0.000263578 -1.46276e-05 0.100923)
(-0.000154503 3.3704e-05 0.100721)
(-0.000266174 5.68421e-05 0.0984862)
(-0.000258248 5.8978e-05 0.098911)
(-0.000177136 2.14871e-05 0.10077)
(0.000372973 -0.000142104 0.10036)
(0.000142217 -0.000372771 0.100361)
(0.000111951 -0.000112056 0.100655)
(-1.10043e-05 -7.90528e-05 0.10059)
(7.89526e-05 1.11264e-05 0.10059)
(0.000301657 -0.000837048 0.0977713)
(0.000128682 -0.000304583 0.095719)
(0.000321957 -0.000152519 0.0932424)
(0.000342579 -0.000167669 0.0950093)
(0.000185207 -0.000185368 0.100733)
(6.59667e-05 -8.11172e-05 0.100488)
(8.09469e-05 -6.59976e-05 0.100487)
(3.56921e-05 -8.65835e-05 0.100514)
(8.65204e-05 -3.56856e-05 0.100515)
(0.000152734 -0.000322066 0.093243)
(0.0001678 -0.000342521 0.0950101)
(-6.33843e-06 -0.00028069 0.100753)
(-3.73998e-05 -0.000175255 0.100332)
(-0.000229376 -0.000399003 0.100526)
(-9.4437e-05 -0.00015324 0.100558)
(-1.56397e-05 -0.000358846 0.100479)
(-3.33348e-05 -0.000152732 0.100497)
(-0.000198762 -0.000148961 0.100739)
(-3.48812e-05 -0.000135903 0.100724)
(0.000175668 -0.000388433 0.0994172)
(2.2302e-06 -0.000306082 0.100517)
(-8.4286e-05 -0.000243076 0.0991476)
(3.49376e-05 -0.000135991 0.100724)
(-0.000176279 -0.000388644 0.099417)
(-2.28944e-06 -0.000306015 0.100517)
(8.38615e-05 -0.000243327 0.0991467)
(8.35648e-06 -0.000292651 0.100793)
(8.02108e-05 -0.000133472 0.100702)
(2.88908e-05 -0.0001523 0.100776)
(0.000202207 -0.000175855 0.100804)
(2.87088e-05 -0.000141213 0.100647)
(0.000205299 -0.000174479 0.100724)
(1.45807e-05 -0.000263564 0.100923)
(-8.34694e-06 -0.000292636 0.100793)
(-8.01629e-05 -0.000133461 0.100702)
(-2.89403e-05 -0.000152298 0.100776)
(-0.000202183 -0.000175794 0.100804)
(-2.87643e-05 -0.000141202 0.100647)
(-0.000205329 -0.000174416 0.100724)
(-1.46131e-05 -0.000263598 0.100923)
(-3.37187e-05 -0.00015452 0.100721)
(-5.683e-05 -0.000266261 0.0984871)
(-5.92493e-05 -0.000258336 0.0989111)
(-2.15588e-05 -0.000177151 0.10077)
(3.37538e-05 -0.000154563 0.100721)
(5.67547e-05 -0.000266407 0.0984861)
(5.89736e-05 -0.000258584 0.0989109)
(2.15486e-05 -0.000177185 0.10077)
(-0.000836809 -0.000301269 0.0977708)
(-0.000304738 -0.000128501 0.0957186)
(-0.000301371 -0.000836762 0.0977708)
(-0.000128601 -0.000304721 0.0957183)
(-0.00018527 -0.000185393 0.100733)
(-6.59494e-05 -8.09263e-05 0.100487)
(-8.08407e-05 -6.59211e-05 0.100487)
(-3.57401e-05 -8.66213e-05 0.100515)
(-8.65161e-05 -3.57108e-05 0.100515)
(-0.000321899 -0.000152375 0.0932424)
(-0.000342531 -0.0001676 0.0950103)
(-0.000152519 -0.000321829 0.0932419)
(-0.000167691 -0.000342508 0.0950101)
(0.000150444 0.000313411 0.0926216)
(0.000137237 0.000273082 0.0910007)
(0.000313432 0.000150137 0.0926208)
(0.000273048 0.000137021 0.0909996)
(9.71896e-05 8.37039e-05 0.100438)
(8.38881e-05 9.70944e-05 0.100438)
(0.00011247 0.00011237 0.101144)
(8.27424e-05 8.66466e-05 0.10043)
(8.6759e-05 8.26327e-05 0.10043)
(0.000138113 0.000270211 0.0904135)
(0.000270159 0.000137921 0.0904125)
(0.000203624 0.000203502 0.10122)
(9.63553e-05 0.000102786 0.100349)
(0.000102914 9.63301e-05 0.100349)
(1.65605e-05 0.000198259 0.100867)
(5.48204e-05 0.000288435 0.0983204)
(2.03166e-05 0.000208721 0.100777)
(4.47648e-05 0.000271267 0.0979442)
(1.33387e-05 0.000263555 0.101153)
(0.000214103 0.000219117 0.100818)
(3.10783e-05 0.000164488 0.100897)
(9.73945e-05 0.000160238 0.101064)
(1.41707e-05 0.000297895 0.100977)
(0.00019773 0.000183305 0.100945)
(3.25271e-05 0.000168713 0.101019)
(-1.33851e-05 0.000263568 0.101153)
(-0.000214121 0.000219161 0.100818)
(-3.11129e-05 0.000164491 0.100897)
(-9.74315e-05 0.000160229 0.101064)
(-1.42193e-05 0.000297917 0.100977)
(-0.000197767 0.000183313 0.100945)
(-3.25607e-05 0.000168718 0.101019)
(-1.56626e-05 0.000222692 0.10086)
(-3.85708e-05 0.000288124 0.0977541)
(1.55629e-05 0.000222738 0.10086)
(3.83902e-05 0.000288093 0.0977537)
(1.29337e-05 0.000294392 0.101202)
(9.55843e-05 0.000158217 0.101191)
(0.000203962 0.000221157 0.100941)
(3.2923e-05 0.000168592 0.101146)
(-1.2989e-05 0.000294414 0.101202)
(-9.56189e-05 0.000158215 0.101191)
(-0.000204007 0.000221205 0.100941)
(-3.29463e-05 0.000168593 0.101146)
(-9.7263e-05 8.37013e-05 0.100438)
(-8.39219e-05 9.70938e-05 0.100438)
(-0.000112485 0.000112376 0.101144)
(-8.27553e-05 8.66645e-05 0.10043)
(-8.67118e-05 8.25828e-05 0.10043)
(-0.000313474 0.000150136 0.0926215)
(-0.000273036 0.00013697 0.0909999)
(-0.000138044 0.000270183 0.0904127)
(-0.000203663 0.0002035 0.10122)
(-9.64324e-05 0.000102813 0.100349)
(-0.000102887 9.63083e-05 0.10035)
(-0.000270143 0.00013789 0.0904133)
(0.000263618 1.32793e-05 0.101153)
(0.000219136 0.000214169 0.100819)
(0.000164529 3.10355e-05 0.100897)
(0.000160209 9.74204e-05 0.101064)
(0.000297976 1.41082e-05 0.100977)
(0.000183305 0.000197829 0.100945)
(0.000168735 3.24768e-05 0.101019)
(0.000198379 1.67209e-05 0.100868)
(0.000287897 5.48582e-05 0.0983202)
(0.000208795 2.04766e-05 0.100777)
(0.000270853 4.48e-05 0.0979446)
(0.000263649 -1.33549e-05 0.101153)
(0.000164514 -3.11261e-05 0.100897)
(0.000219162 -0.000214221 0.100818)
(0.000160239 -9.74577e-05 0.101064)
(0.000298003 -1.41996e-05 0.100977)
(0.000168725 -3.25634e-05 0.101019)
(0.000183297 -0.000197832 0.100945)
(0.000222713 -1.56915e-05 0.10086)
(0.000287976 -3.84133e-05 0.097754)
(0.000294439 1.28925e-05 0.101202)