/*--------------------------------*- C++ -*----------------------------------*\
| =========                 |                                                 |
| \\      /  F ield         | OpenFOAM: The Open Source CFD Toolbox           |
|  \\    /   O peration     | Version:  v2006                                 |
|   \\  /    A nd           | Website:  www.openfoam.com                      |
|    \\/     M anipulation  |                                                 |
\*---------------------------------------------------------------------------*/
FoamFile
{
    version     2.0;
    format      ascii;
    class       volScalarField;
    location    "750";
    object      epsilon;
}
// * * * * * * * * * * * * * * * * * * * * * * * * * * * * * * * * * * * * * //

dimensions      [0 2 -3 0 0 0 0];


internalField   nonuniform List<scalar> 
14199
(
2.21069e-06
7.51096e-07
2.21066e-06
7.51011e-07
4.15644e-06
4.15614e-06
1.23506e-05
4.80176e-06
1.09613e-05
4.15707e-06
4.80204e-06
1.09642e-05
1.23473e-05
1.23515e-05
4.80124e-06
1.09615e-05
4.15714e-06
4.80216e-06
1.09644e-05
1.23482e-05
2.22742e-05
7.13486e-06
7.13517e-06
2.22679e-05
2.62205e-07
2.62163e-07
2.46208e-06
1.55912e-06
1.42935e-06
2.21194e-06
1.56003e-06
1.42902e-06
2.46315e-06
2.46193e-06
1.55903e-06
1.4293e-06
2.2119e-06
1.55993e-06
1.42898e-06
2.46302e-06
2.94576e-06
1.74612e-06
1.7468e-06
2.94595e-06
5.53984e-06
1.86444e-05
3.56013e-06
9.30876e-06
9.30866e-06
1.04213e-06
3.56032e-06
1.86459e-05
1.2965e-06
5.54097e-06
1.04242e-06
4.61849e-06
2.9016e-06
5.5402e-06
9.66461e-06
4.61759e-06
9.66784e-06
2.90286e-06
1.86497e-05
2.22721e-05
9.31163e-06
7.13609e-06
7.13612e-06
2.22655e-05
9.31147e-06
1.86511e-05
9.81241e-06
2.19394e-05
2.19386e-05
9.81198e-06
2.19441e-05
2.19453e-05
4.62418e-06
2.90288e-06
5.54166e-06
9.66911e-06
2.9034e-06
4.62365e-06
9.67213e-06
2.94605e-06
1.74626e-06
2.14425e-06
3.56046e-06
2.14433e-06
1.74694e-06
2.94621e-06
2.14434e-06
3.56067e-06
2.14439e-06
2.7599e-06
1.88467e-06
1.29552e-06
1.88476e-06
1.88461e-06
2.75966e-06
1.8845e-06
4.66395e-07
4.15846e-06
4.1587e-06
2.2141e-06
7.55596e-07
9.31552e-06
2.21402e-06
3.56246e-06
1.04599e-06
7.55621e-07
1.23523e-05
1.09683e-05
4.80337e-06
4.15808e-06
1.09654e-05
4.80286e-06
1.23556e-05
2.22733e-05
7.13794e-06
7.13769e-06
2.22799e-05
1.23523e-05
4.80385e-06
1.09685e-05
4.15803e-06
4.80297e-06
1.09656e-05
1.23556e-05
2.22738e-05
7.13635e-06
9.31272e-06
7.13611e-06
2.22802e-05
1.86524e-05
4.62559e-06
5.54285e-06
2.9047e-06
9.67319e-06
9.81404e-06
2.19445e-05
2.19461e-05
4.61899e-06
9.66938e-06
1.7495e-06
2.94805e-06
2.9479e-06
1.7488e-06
1.56292e-06
2.46517e-06
1.43208e-06
2.2129e-06
2.46413e-06
1.43242e-06
1.562e-06
1.56284e-06
2.46497e-06
1.43203e-06
2.21283e-06
1.43237e-06
2.46396e-06
1.56192e-06
1.74935e-06
2.94766e-06
2.14639e-06
3.56217e-06
2.94751e-06
2.1465e-06
1.74864e-06
2.76148e-06
1.88696e-06
1.15943e-06
8.74692e-07
1.84336e-05
5.46556e-06
9.16781e-06
7.0887e-06
1.84366e-05
5.46512e-06
2.81837e-06
2.81631e-06
9.50788e-06
4.54592e-06
1.77728e-06
1.77616e-06
2.67444e-06
1.6257e-06
3.47941e-06
2.86517e-06
2.04066e-06
1.13316e-07
1.13343e-07
1.13312e-07
1.13352e-07
8.74576e-07
8.7436e-07
8.74655e-07
1.15957e-06
4.09754e-06
9.16609e-06
4.09453e-06
1.84348e-05
2.04002e-06
2.11728e-06
2.03995e-06
5.6828e-07
1.42552e-06
4.09728e-06
9.16584e-06
4.09474e-06
2.1172e-06
5.68316e-07
1.62591e-06
1.42547e-06
5.46602e-06
5.4644e-06
1.8433e-05
9.16583e-06
1.22116e-05
4.74872e-06
1.08373e-05
4.09642e-06
4.7477e-06
1.08349e-05
1.22142e-05
2.20655e-05
9.16891e-06
7.08891e-06
7.089e-06
2.20603e-05
1.22107e-05
4.09554e-06
4.74604e-06
1.08316e-05
4.74707e-06
1.08339e-05
1.22081e-05
1.84394e-05
1.22116e-05
1.08371e-05
4.74836e-06
4.09665e-06
1.08347e-05
4.74777e-06
1.22143e-05
2.20657e-05
9.16862e-06
7.08744e-06
7.08756e-06
2.20604e-05
1.22108e-05
4.09526e-06
1.08314e-05
4.7461e-06
1.08338e-05
4.7467e-06
1.22081e-05
4.54944e-06
2.81756e-06
5.46656e-06
9.50961e-06
9.51293e-06
2.81938e-06
4.54871e-06
4.54329e-06
2.81648e-06
5.46507e-06
9.50483e-06
2.81816e-06
9.50816e-06
4.5426e-06
9.7367e-06
2.17335e-05
2.17339e-05
2.17384e-05
2.17388e-05
9.73621e-06
1.84377e-05
2.20645e-05
9.16864e-06
7.08882e-06
7.08872e-06
2.20589e-05
1.77687e-06
1.77699e-06
2.6746e-06
2.67534e-06
1.15887e-06
1.77717e-06
1.77729e-06
1.626e-06
3.4788e-06
2.8646e-06
1.62567e-06
3.47946e-06
2.04061e-06
2.86512e-06
1.43058e-06
2.37541e-06
1.2936e-06
2.11515e-06
2.37351e-06
1.29353e-06
1.42999e-06
1.62595e-06
3.47903e-06
2.86462e-06
1.62562e-06
3.47969e-06
2.86521e-06
2.04067e-06
2.11153e-06
2.37014e-06
1.28828e-06
1.42494e-06
2.11369e-06
2.37208e-06
1.28837e-06
1.4305e-06
1.29356e-06
2.37525e-06
2.1151e-06
1.29349e-06
2.37339e-06
1.42991e-06
2.04026e-06
3.47918e-06
2.86434e-06
1.62558e-06
3.47977e-06
2.86488e-06
2.04084e-06
2.11148e-06
1.28825e-06
2.37003e-06
1.42489e-06
2.1136e-06
1.28834e-06
2.37193e-06
9.30888e-06
3.5603e-06
7.51018e-07
1.03432e-06
1.29013e-06
1.86444e-05
5.54059e-06
1.03434e-06
1.0423e-06
1.29002e-06
1.03447e-06
1.03428e-06
4.15647e-06
7.5102e-07
1.04218e-06
2.21069e-06
4.1565e-06
2.21062e-06
5.5382e-06
1.86315e-05
1.86434e-05
2.62146e-07
2.62192e-07
4.58344e-07
4.58453e-07
2.2097e-06
3.55597e-06
7.41692e-07
1.03829e-06
3.55833e-06
7.46395e-07
2.20613e-06
3.55849e-06
2.2097e-06
2.20614e-06
5.53552e-06
5.53706e-06
1.29238e-06
5.53804e-06
5.53961e-06
1.86439e-05
1.29646e-06
5.54024e-06
9.29952e-06
9.30658e-06
3.55624e-06
1.03831e-06
3.55856e-06
4.15641e-06
9.3082e-06
4.1563e-06
2.21073e-06
3.56025e-06
7.51052e-07
2.21064e-06
7.50961e-07
5.53687e-06
5.5353e-06
1.29226e-06
5.53924e-06
5.53786e-06
1.86305e-05
1.86423e-05
4.15556e-06
9.30009e-06
9.30715e-06
4.15293e-06
2.20966e-06
7.41774e-07
3.55601e-06
1.03841e-06
7.46456e-07
3.55835e-06
2.20609e-06
4.15548e-06
9.30008e-06
9.30708e-06
4.15282e-06
2.20968e-06
7.41724e-07
3.55647e-06
1.03822e-06
7.46397e-07
3.55885e-06
2.20611e-06
1.86314e-05
1.86432e-05
1.86332e-05
1.86454e-05
2.22729e-05
9.31169e-06
7.13626e-06
2.22665e-05
7.13638e-06
1.86496e-05
4.62214e-06
2.90196e-06
5.541e-06
9.66635e-06
2.90285e-06
4.61963e-06
9.66953e-06
1.23511e-05
4.80152e-06
4.15712e-06
1.09615e-05
1.23479e-05
4.80234e-06
1.09644e-05
1.23511e-05
4.15693e-06
1.09612e-05
4.80135e-06
1.23478e-05
1.09641e-05
4.80199e-06
2.22733e-05
7.13461e-06
2.22669e-05
7.13489e-06
4.61593e-06
5.53773e-06
2.90075e-06
9.66319e-06
4.61623e-06
2.89971e-06
9.66002e-06
9.80978e-06
2.19386e-05
2.19378e-05
2.19321e-05
9.81019e-06
2.19327e-05
1.86368e-05
1.8638e-05
9.80938e-06
2.19375e-05
2.19375e-05
2.19318e-05
2.19319e-05
9.80978e-06
4.61516e-06
2.89783e-06
5.5361e-06
9.65603e-06
2.89851e-06
9.65894e-06
4.61486e-06
4.62017e-06
2.89912e-06
5.53758e-06
9.65981e-06
2.9e-06
9.66325e-06
4.61968e-06
4.61649e-06
9.66329e-06
5.53753e-06
2.90044e-06
2.89975e-06
9.6602e-06
4.61677e-06
4.62171e-06
9.6678e-06
5.53907e-06
2.90187e-06
2.90115e-06
9.66466e-06
4.62205e-06
9.80758e-06
2.19257e-05
2.19249e-05
2.19313e-05
2.19309e-05
9.80716e-06
1.86491e-05
9.8145e-06
2.19373e-05
2.19406e-05
9.81043e-06
2.1946e-05
2.19442e-05
4.62159e-06
2.90274e-06
9.66734e-06
5.54056e-06
4.6212e-06
9.66996e-06
2.90245e-06
2.22603e-05
9.30239e-06
7.1317e-06
7.13201e-06
2.2254e-05
2.22608e-05
7.13355e-06
9.30371e-06
7.13324e-06
2.22672e-05
1.2351e-05
1.09614e-05
4.80161e-06
4.1571e-06
1.23477e-05
1.09643e-05
4.80234e-06
2.22731e-05
7.13623e-06
9.31103e-06
2.22667e-05
7.13633e-06
1.23513e-05
1.09613e-05
4.8012e-06
4.15702e-06
1.23481e-05
1.09642e-05
4.80214e-06
2.22741e-05
7.13478e-06
2.22677e-05
7.1351e-06
9.80925e-06
2.19375e-05
2.19382e-05
2.19317e-05
2.19325e-05
9.80979e-06
4.62025e-06
2.89888e-06
5.53723e-06
9.65963e-06
9.66277e-06
2.8995e-06
4.61991e-06
4.61435e-06
2.89766e-06
5.53587e-06
9.65565e-06
2.89864e-06
9.65877e-06
4.61389e-06
4.62174e-06
9.66726e-06
5.53888e-06
2.90142e-06
9.66412e-06
2.90083e-06
4.62207e-06
4.61571e-06
9.66326e-06
5.53729e-06
2.90056e-06
2.8996e-06
9.66012e-06
4.61617e-06
9.80758e-06
2.19252e-05
2.1926e-05
2.19309e-05
2.19317e-05
9.80706e-06
1.86357e-05
1.8637e-05
1.23431e-05
4.80045e-06
1.09605e-05
4.15454e-06
4.8001e-06
1.09575e-05
1.23464e-05
2.22585e-05
9.30296e-06
7.13292e-06
7.13294e-06
2.22519e-05
2.22588e-05
7.13445e-06
9.30427e-06
7.13443e-06
2.22654e-05
1.23419e-05
4.15394e-06
4.79859e-06
1.09534e-05
4.79895e-06
1.09563e-05
1.23386e-05
1.23434e-05
1.09602e-05
4.80053e-06
4.15445e-06
1.09573e-05
4.79961e-06
1.23466e-05
2.22595e-05
9.30292e-06
7.1314e-06
7.1317e-06
2.22532e-05
2.226e-05
7.13319e-06
9.30422e-06
7.1329e-06
2.22663e-05
1.23421e-05
4.15386e-06
1.09532e-05
4.7981e-06
1.09561e-05
4.79903e-06
1.23389e-05
1.86366e-05
1.86379e-05
1.86388e-05
1.86401e-05
1.86431e-05
4.1532e-06
9.30746e-06
4.15542e-06
4.15288e-06
9.3007e-06
4.15552e-06
9.30781e-06
1.86378e-05
1.23416e-05
1.09531e-05
4.79872e-06
4.15377e-06
1.23383e-05
1.0956e-05
4.79898e-06
2.22586e-05
9.30457e-06
7.13459e-06
7.13452e-06
2.22652e-05
1.23428e-05
4.15484e-06
4.80052e-06
1.09601e-05
1.09572e-05
4.80024e-06
1.23461e-05
1.23426e-05
1.09533e-05
4.79818e-06
4.15389e-06
1.23393e-05
1.09562e-05
4.79916e-06
2.22605e-05
7.13181e-06
9.30364e-06
2.22542e-05
7.13211e-06
1.23438e-05
4.15453e-06
4.80067e-06
1.09603e-05
1.09574e-05
4.79973e-06
1.2347e-05
2.2261e-05
9.30494e-06
7.13364e-06
7.13334e-06
2.22673e-05
1.74616e-06
2.14413e-06
3.56062e-06
2.94606e-06
1.74685e-06
2.94624e-06
2.1442e-06
2.75618e-06
1.87976e-06
1.88009e-06
1.28917e-06
1.8796e-06
1.87999e-06
2.75587e-06
2.75604e-06
1.87983e-06
1.87976e-06
1.28905e-06
1.87963e-06
1.87969e-06
2.75574e-06
1.55907e-06
2.46208e-06
1.42931e-06
2.21192e-06
1.55998e-06
2.46316e-06
1.42899e-06
1.55899e-06
1.42927e-06
2.21185e-06
2.46191e-06
1.55991e-06
1.42894e-06
2.46298e-06
1.74604e-06
2.94569e-06
1.74673e-06
2.94586e-06
4.6634e-07
2.62163e-07
2.56022e-07
2.55992e-07
4.62386e-07
2.59119e-07
2.59088e-07
1.12012e-07
1.10683e-07
2.56108e-07
2.56048e-07
4.62438e-07
2.59185e-07
2.59105e-07
1.12033e-07
1.10724e-07
2.62157e-07
1.55699e-06
2.46102e-06
1.42587e-06
2.20842e-06
2.45994e-06
1.42618e-06
1.55611e-06
1.74073e-06
2.13949e-06
3.55637e-06
2.94213e-06
2.1396e-06
2.94231e-06
1.74138e-06
1.74412e-06
2.94421e-06
3.55794e-06
2.14191e-06
2.14181e-06
2.94404e-06
1.74347e-06
1.55306e-06
2.20743e-06
2.45782e-06
1.42296e-06
2.45892e-06
1.42265e-06
1.55394e-06
3.55812e-06
2.94412e-06
2.94433e-06
1.74423e-06
2.14202e-06
2.14193e-06
1.74357e-06
2.45998e-06
2.20843e-06
2.46109e-06
1.55702e-06
1.42587e-06
1.42618e-06
1.55614e-06
2.45785e-06
2.45895e-06
2.20742e-06
1.55308e-06
1.42296e-06
1.42265e-06
1.55397e-06
2.75783e-06
1.29336e-06
1.88201e-06
1.8824e-06
1.88217e-06
1.88256e-06
2.75807e-06
2.7599e-06
1.88431e-06
1.29542e-06
1.885e-06
1.88421e-06
2.75954e-06
1.88434e-06
1.74061e-06
2.13963e-06
3.55659e-06
2.94183e-06
2.94206e-06
2.13973e-06
1.74127e-06
1.74402e-06
2.94397e-06
3.55824e-06
2.14205e-06
2.94376e-06
1.74335e-06
2.14197e-06
1.5592e-06
2.46218e-06
1.42937e-06
2.21197e-06
1.56011e-06
2.46325e-06
1.42904e-06
1.74632e-06
2.14455e-06
2.94616e-06
3.56056e-06
2.14446e-06
1.74702e-06
2.94634e-06
1.55899e-06
2.4619e-06
1.42929e-06
2.21188e-06
1.5599e-06
2.46299e-06
1.42896e-06
1.74604e-06
2.94566e-06
1.74672e-06
2.94586e-06
2.75765e-06
1.29323e-06
1.88211e-06
1.88205e-06
1.88219e-06
1.88226e-06
2.75793e-06
1.55695e-06
1.42584e-06
2.46093e-06
2.20838e-06
1.42616e-06
2.45983e-06
1.55607e-06
1.74066e-06
2.13954e-06
3.55639e-06
2.94179e-06
2.13959e-06
2.94198e-06
1.74132e-06
1.74406e-06
2.94389e-06
3.55797e-06
2.14189e-06
2.14182e-06
2.94368e-06
1.7434e-06
1.55302e-06
2.20739e-06
1.42293e-06
2.45771e-06
1.42263e-06
2.45883e-06
1.55391e-06
2.2084e-06
2.45985e-06
2.46096e-06
1.55693e-06
1.42583e-06
1.42614e-06
1.55604e-06
2.94216e-06
2.94194e-06
3.55687e-06
1.74068e-06
2.13976e-06
2.13991e-06
1.74134e-06
2.94389e-06
2.94407e-06
3.55849e-06
1.74411e-06
2.14226e-06
2.1422e-06
1.74342e-06
2.20739e-06
2.45885e-06
2.45771e-06
1.55298e-06
1.42291e-06
1.42261e-06
1.55387e-06
8.11236e-08
1.1596e-06
3.43024e-07
8.97971e-07
8.98084e-07
1.179e-06
3.59452e-07
9.20517e-07
9.20618e-07
1.19746e-06
3.76017e-07
9.41989e-07
9.42098e-07
1.21502e-06
3.92651e-07
9.62458e-07
9.62586e-07
1.23171e-06
4.09284e-07
9.81903e-07
9.82022e-07
1.2475e-06
4.25782e-07
1.00029e-06
1.00045e-06
1.26241e-06
4.42197e-07
1.01785e-06
1.01808e-06
1.27671e-06
1.17341e-06
8.92361e-07
8.92285e-07
1.17339e-06
8.92162e-07
8.9239e-07
8.74681e-07
8.92196e-07
8.92411e-07
1.17348e-06
8.74496e-07
8.92301e-07
8.92217e-07
1.17353e-06
1.1789e-06
1.19207e-06
8.98139e-07
8.98057e-07
9.15124e-07
9.15033e-07
1.17887e-06
1.19204e-06
8.97936e-07
8.98161e-07
9.1493e-07
9.15141e-07
8.98188e-07
9.14955e-07
9.15164e-07
1.17896e-06
1.19213e-06
8.97999e-07
9.15059e-07
9.14968e-07
1.19218e-06
1.19738e-06
1.20985e-06
9.20685e-07
9.20593e-07
9.36882e-07
9.3679e-07
1.19735e-06
1.20983e-06
9.20484e-07
9.20681e-07
9.36684e-07
9.36914e-07
9.20707e-07
9.36727e-07
9.36916e-07
1.19743e-06
1.20992e-06
9.20522e-07
9.36831e-07
9.36711e-07
1.20994e-06
1.21493e-06
1.22666e-06
9.42138e-07
9.42051e-07
9.57573e-07
9.57471e-07
1.21491e-06
1.22664e-06
9.41942e-07
9.42153e-07
9.57362e-07
9.57595e-07
9.42171e-07
9.57411e-07
9.57633e-07
1.215e-06
1.22673e-06
9.41989e-07
9.57508e-07
9.57422e-07
1.22679e-06
1.2316e-06
1.2427e-06
9.62619e-07
9.62517e-07
9.77315e-07
9.77194e-07
1.23157e-06
1.24267e-06
9.62426e-07
9.62604e-07
9.77093e-07
9.77346e-07
9.6266e-07
9.77151e-07
9.77352e-07
1.23165e-06
1.24276e-06
9.62493e-07
9.77226e-07
9.77124e-07
1.2428e-06
1.24741e-06
1.25773e-06
9.82026e-07
9.8194e-07
9.95936e-07
9.9579e-07
1.24739e-06
1.25772e-06
9.81853e-07
9.82008e-07
9.95683e-07
9.95973e-07
9.82053e-07
9.95753e-07
9.95973e-07
1.24747e-06
1.25781e-06
9.81889e-07
9.95804e-07
9.95723e-07
1.25785e-06
1.26231e-06
1.27222e-06
1.00042e-06
1.00033e-06
1.01376e-06
1.0136e-06
1.26229e-06
1.2722e-06
1.00028e-06
1.00037e-06
1.01344e-06
1.01382e-06
1.00045e-06
1.01356e-06
1.01376e-06
1.26238e-06
1.2723e-06
1.00032e-06
1.01358e-06
1.01349e-06
1.27231e-06
1.27663e-06
1.28579e-06
1.0179e-06
1.01789e-06
1.03058e-06
1.03032e-06
1.27662e-06
1.28579e-06
1.01784e-06
1.01788e-06
1.03012e-06
1.03043e-06
1.01794e-06
1.03031e-06
1.03049e-06
1.27671e-06
5.53412e-06
1.01786e-06
1.54999e-06
1.41934e-06
5.53507e-06
4.09742e-06
9.17182e-06
1.84437e-05
9.1731e-06
3.26866e-07
8.11389e-08
3.26912e-07
3.38961e-07
3.38967e-07
3.39039e-07
3.3904e-07
2.1173e-06
5.6829e-07
8.80455e-07
3.48219e-06
5.74186e-07
1.42553e-06
1.8445e-05
2.11727e-06
5.68365e-07
8.80544e-07
5.74267e-07
3.48226e-06
1.28833e-06
5.4642e-06
5.46582e-06
1.16384e-06
5.46721e-06
5.46886e-06
4.10507e-06
9.18117e-06
4.10196e-06
9.18816e-06
1.84559e-05
1.84666e-05
4.10515e-06
9.18258e-06
4.10211e-06
9.1896e-06
3.43024e-07
3.4311e-07
3.43098e-07
3.55317e-07
3.5531e-07
3.55393e-07
3.55392e-07
2.13114e-06
3.48973e-06
5.91767e-07
9.03681e-07
2.1257e-06
3.49306e-06
5.97581e-07
1.84574e-05
1.84679e-05
2.13112e-06
5.91853e-07
3.48984e-06
9.03792e-07
2.1257e-06
5.97667e-07
3.49314e-06
5.4735e-06
5.47513e-06
1.18296e-06
5.47649e-06
5.47813e-06
4.11276e-06
9.19785e-06
4.10965e-06
9.20491e-06
1.84794e-05
1.84904e-05
4.11283e-06
9.19929e-06
4.10978e-06
9.20634e-06
3.59446e-07
3.59525e-07
3.59519e-07
3.71877e-07
3.71876e-07
3.71965e-07
3.71946e-07
2.14436e-06
3.50047e-06
6.14936e-07
9.25994e-07
2.13916e-06
3.50371e-06
6.20667e-07
1.84808e-05
1.84917e-05
2.14434e-06
6.15018e-07
3.50056e-06
9.26093e-07
2.13917e-06
6.20753e-07
3.50376e-06
5.4828e-06
5.48444e-06
1.20118e-06
5.48575e-06
5.48739e-06
4.12017e-06
9.21452e-06
4.11717e-06
9.22162e-06
1.85033e-05
1.85146e-05
4.12025e-06
9.21594e-06
4.11729e-06
9.22304e-06
3.76013e-07
3.76106e-07
3.76081e-07
3.88475e-07
3.88476e-07
3.8856e-07
3.88564e-07
2.15679e-06
3.51067e-06
6.37654e-07
9.47176e-07
2.15195e-06
3.51369e-06
6.4323e-07
1.85048e-05
1.8516e-05
2.15677e-06
6.37733e-07
3.51076e-06
9.47275e-07
2.15194e-06
6.43312e-07
3.51377e-06
5.49185e-06
5.49349e-06
1.21846e-06
5.49477e-06
5.49643e-06
4.12761e-06
9.23149e-06
4.12463e-06
9.23865e-06
1.85282e-05
1.85396e-05
4.12769e-06
9.23292e-06
4.12474e-06
9.24009e-06
3.92641e-07
3.92736e-07
3.9273e-07
4.05151e-07
4.0514e-07
4.05236e-07
4.05229e-07
2.16866e-06
3.52052e-06
6.59824e-07
9.67424e-07
2.164e-06
3.5235e-06
6.65283e-07
1.85297e-05
1.85411e-05
2.16864e-06
6.59914e-07
3.52063e-06
9.67524e-07
2.16402e-06
6.65376e-07
3.52357e-06
5.501e-06
5.50266e-06
1.23493e-06
5.50386e-06
5.50553e-06
4.13464e-06
9.24827e-06
4.13184e-06
9.25535e-06
1.85531e-05
1.85647e-05
4.13474e-06
9.24972e-06
4.13199e-06
9.25679e-06
4.09274e-07
4.09368e-07
4.09343e-07
4.21649e-07
4.21647e-07
4.21741e-07
4.21735e-07
2.17974e-06
3.52991e-06
6.81387e-07
9.86568e-07
2.17546e-06
3.53262e-06
6.86643e-07
1.85547e-05
1.85662e-05
2.17968e-06
6.81459e-07
3.52998e-06
9.86618e-07
2.17544e-06
6.86701e-07
3.53264e-06
5.50959e-06
5.51123e-06
1.2504e-06
5.51231e-06
5.51395e-06
4.14181e-06
9.26533e-06
4.13896e-06
9.27265e-06
1.8579e-05
1.8591e-05
4.14184e-06
9.26674e-06
4.13906e-06
9.27408e-06
4.25753e-07
4.25865e-07
4.2584e-07
4.38118e-07
4.38126e-07
4.38213e-07
4.38201e-07
2.19033e-06
3.53886e-06
7.02183e-07
1.00478e-06
2.18617e-06
3.54163e-06
7.07306e-07
1.85806e-05
1.85927e-05
2.19032e-06
7.02266e-07
3.53895e-06
1.00481e-06
2.18616e-06
7.07374e-07
3.54172e-06
5.51834e-06
5.51999e-06
1.26518e-06
5.52119e-06
5.52289e-06
4.14858e-06
9.28246e-06
4.14614e-06
9.28962e-06
1.86054e-05
1.86172e-05
4.14876e-06
9.28395e-06
4.14624e-06
9.29109e-06
4.42191e-07
4.4231e-07
4.42246e-07
4.54356e-07
2.52997e-07
4.54399e-07
1.09441e-07
2.20037e-06
3.54776e-06
7.22348e-07
1.02206e-06
2.19652e-06
3.55031e-06
7.27267e-07
1.86068e-05
1.86186e-05
2.20038e-06
7.22463e-07
3.54787e-06
1.02203e-06
2.19655e-06
7.27355e-07
3.55037e-06
5.52706e-06
5.5287e-06
1.27921e-06
5.52966e-06
5.53149e-06
1.84417e-05
1.84444e-05
1.16372e-06
5.46712e-06
5.46875e-06
1.84527e-05
1.84424e-05
1.84559e-05
1.84453e-05
1.16932e-06
5.47168e-06
5.47346e-06
5.46875e-06
5.47058e-06
4.09738e-06
9.17194e-06
2.11725e-06
8.80617e-07
3.48209e-06
5.74185e-07
2.1172e-06
8.80553e-07
3.4824e-06
5.74154e-07
4.09814e-06
9.17989e-06
9.17304e-06
4.10125e-06
4.09808e-06
9.18008e-06
9.17321e-06
4.10121e-06
2.11869e-06
8.86531e-07
3.48754e-06
5.85933e-07
3.4842e-06
5.80077e-07
2.12426e-06
2.11864e-06
8.8646e-07
3.48788e-06
5.85894e-07
3.48457e-06
5.80037e-07
2.1242e-06
1.16372e-06
5.46853e-06
5.46722e-06
1.84426e-05
1.8455e-05
1.84446e-05
1.16931e-06
5.47313e-06
5.47182e-06
5.47035e-06
5.46884e-06
1.84539e-05
1.84435e-05
8.80407e-07
3.48264e-06
5.7418e-07
9.17268e-06
8.80637e-07
5.74209e-07
3.48258e-06
4.09831e-06
9.1813e-06
9.17437e-06
4.10131e-06
2.11871e-06
8.86317e-07
3.48814e-06
5.85922e-07
3.4848e-06
5.80079e-07
2.12428e-06
4.09852e-06
9.18088e-06
9.17395e-06
4.10108e-06
2.11865e-06
8.86548e-07
5.85959e-07
3.48809e-06
5.80113e-07
3.48477e-06
2.12422e-06
4.0975e-06
9.17249e-06
4.09441e-06
2.11725e-06
5.68336e-07
2.03993e-06
8.80659e-07
5.74244e-07
3.48215e-06
1.42548e-06
4.09741e-06
9.16547e-06
9.17236e-06
4.09429e-06
2.11872e-06
8.86366e-07
3.48767e-06
5.85928e-07
3.48431e-06
5.80075e-07
2.12431e-06
4.09824e-06
9.18064e-06
9.17375e-06
4.10136e-06
2.11867e-06
8.86571e-07
5.85989e-07
3.48765e-06
5.80135e-07
3.48428e-06
2.12427e-06
4.09812e-06
9.18053e-06
9.17362e-06
4.10127e-06
1.1638e-06
5.46888e-06
5.4674e-06
1.84432e-05
1.84564e-05
1.84459e-05
1.16939e-06
5.47353e-06
5.47201e-06
5.47065e-06
5.46905e-06
1.84545e-05
1.84441e-05
2.11726e-06
5.68324e-07
2.0403e-06
8.80465e-07
5.74231e-07
3.48262e-06
1.42551e-06
4.09726e-06
9.1727e-06
4.09467e-06
4.09743e-06
9.16619e-06
9.17308e-06
4.09434e-06
2.11872e-06
8.86463e-07
5.86014e-07
3.48775e-06
5.8015e-07
3.48439e-06
2.12429e-06
2.1187e-06
8.86382e-07
5.85979e-07
3.48813e-06
5.80111e-07
3.48475e-06
2.12427e-06
4.09854e-06
9.18086e-06
9.17396e-06
4.1011e-06
4.09821e-06
9.18125e-06
9.17434e-06
4.10127e-06
1.84331e-05
1.84434e-05
1.84353e-05
1.84455e-05
1.16943e-06
5.47186e-06
5.4735e-06
5.46888e-06
5.47051e-06
1.84547e-05
1.84443e-05
1.84568e-05
1.84464e-05
1.84537e-05
1.84643e-05
1.84569e-05
1.84675e-05
5.47331e-06
5.47506e-06
1.18284e-06
5.47632e-06
5.47805e-06
1.84761e-05
1.84653e-05
1.84793e-05
1.84685e-05
1.18823e-06
5.48103e-06
5.48275e-06
5.47797e-06
5.4797e-06
4.10502e-06
9.18136e-06
4.10191e-06
9.18834e-06
2.13109e-06
3.48963e-06
5.91771e-07
9.03848e-07
2.12566e-06
3.49295e-06
5.97581e-07
2.13103e-06
3.49001e-06
5.91733e-07
9.03764e-07
2.12562e-06
3.49327e-06
5.97539e-07
4.10579e-06
9.19655e-06
9.18946e-06
4.10892e-06
4.10572e-06
9.19673e-06
9.18965e-06
4.10887e-06
2.13246e-06
9.09524e-07
3.49832e-06
6.09167e-07
3.49502e-06
6.03391e-07
2.13778e-06
2.13241e-06
9.09431e-07
3.49864e-06
6.09122e-07
3.49538e-06
6.03347e-07
2.13772e-06
5.47496e-06
5.47343e-06
1.18281e-06
5.47778e-06
5.47645e-06
1.84549e-05
1.84655e-05
1.84784e-05
1.84675e-05
1.1882e-06
5.48251e-06
5.48117e-06
5.47964e-06
5.47809e-06
1.84773e-05
1.84665e-05
2.13113e-06
3.49019e-06
5.91774e-07
9.03653e-07
2.1257e-06
3.49351e-06
5.97572e-07
4.10492e-06
9.18215e-06
4.1023e-06
9.18914e-06
2.13107e-06
5.91813e-07
3.49016e-06
9.03875e-07
2.12563e-06
5.9761e-07
3.49343e-06
4.10591e-06
9.19799e-06
9.19089e-06
4.109e-06
2.13251e-06
9.09321e-07
3.49888e-06
6.09155e-07
3.49557e-06
6.03388e-07
2.13782e-06
4.1061e-06
9.19752e-06
9.19044e-06
4.10878e-06
2.13242e-06
9.09527e-07
6.09192e-07
3.49875e-06
6.03423e-07
3.49549e-06
2.13775e-06
4.10519e-06
9.18191e-06
4.10207e-06
9.18891e-06
2.1311e-06
5.91831e-07
3.48974e-06
9.03904e-07
2.12565e-06
5.97646e-07
3.49305e-06
4.1051e-06
9.1818e-06
4.10196e-06
9.18878e-06
2.1325e-06
9.09349e-07
3.49843e-06
6.09161e-07
3.49511e-06
6.03383e-07
2.13783e-06
4.1059e-06
9.19731e-06
9.19021e-06
4.10904e-06
2.13245e-06
9.0956e-07
6.09223e-07
3.49838e-06
6.03445e-07
3.49512e-06
2.13778e-06
4.10579e-06
9.19713e-06
9.19007e-06
4.10894e-06
5.47511e-06
5.47365e-06
1.18291e-06
5.47803e-06
5.47664e-06
1.84555e-05
1.84661e-05
1.84797e-05
1.8469e-05
1.18829e-06
5.48267e-06
5.48134e-06
5.47966e-06
5.47831e-06
1.84779e-05
1.84671e-05
2.1311e-06
5.91816e-07
3.49021e-06
9.03707e-07
2.12568e-06
5.97633e-07
3.49352e-06
4.10493e-06
9.18213e-06
4.10237e-06
9.18913e-06
4.1051e-06
9.18252e-06
4.10203e-06
9.18951e-06
2.13251e-06
9.09458e-07
6.09249e-07
3.4985e-06
6.0347e-07
3.49522e-06
2.13781e-06
2.13248e-06
9.09374e-07
6.09212e-07
3.49887e-06
6.03433e-07
3.49558e-06
2.13779e-06
4.1062e-06
9.19751e-06
9.19042e-06
4.10879e-06
4.10586e-06
9.19786e-06
9.1908e-06
4.10896e-06
1.84556e-05
1.84662e-05
1.84578e-05
1.84684e-05
1.18833e-06
5.48114e-06
5.4828e-06
5.47815e-06
5.47978e-06
1.8478e-05
1.84672e-05
1.84802e-05
1.84694e-05
1.84772e-05
1.8488e-05
1.84804e-05
1.84912e-05
5.48267e-06
5.48439e-06
1.2011e-06
5.48564e-06
5.48735e-06
1.85e-05
1.84891e-05
1.85032e-05
1.84922e-05
1.2063e-06
5.49008e-06
5.49181e-06
5.48722e-06
5.48894e-06
4.11271e-06
9.19805e-06
4.10958e-06
9.20511e-06
2.14431e-06
3.50037e-06
6.14942e-07
9.26156e-07
2.13913e-06
3.50358e-06
6.20676e-07
2.14425e-06
3.50074e-06
6.14897e-07
9.26066e-07
2.13908e-06
3.50391e-06
6.2063e-07
4.11347e-06
9.21322e-06
9.2062e-06
4.11648e-06
4.11341e-06
9.21342e-06
9.20641e-06
4.11644e-06
2.14563e-06
9.31563e-07
3.50862e-06
6.32034e-07
3.50556e-06
6.2638e-07
2.15062e-06
2.14558e-06
9.31476e-07
3.50896e-06
6.31987e-07
3.50594e-06
6.26336e-07
2.15056e-06
5.48436e-06
5.48281e-06
1.20106e-06
5.48715e-06
5.48582e-06
1.84784e-05
1.84893e-05
1.85023e-05
1.84913e-05
1.20627e-06
5.49161e-06
5.49029e-06
5.48894e-06
5.48741e-06
1.85012e-05
1.84903e-05
2.14435e-06
3.50091e-06
6.14938e-07
9.2596e-07
2.13917e-06
3.50411e-06
6.20658e-07
4.11261e-06
9.19882e-06
4.10996e-06
9.2059e-06
2.14428e-06
6.14972e-07
3.5008e-06
9.26175e-07
2.13909e-06
6.20698e-07
3.50399e-06
4.11358e-06
9.21464e-06
9.20763e-06
4.11656e-06
2.14566e-06
9.31364e-07
3.50915e-06
6.32013e-07
3.50608e-06
6.26374e-07
2.15065e-06
4.11377e-06
9.21424e-06
9.20719e-06
4.11634e-06
2.14558e-06
9.31569e-07
6.3206e-07
3.50906e-06
6.26414e-07
3.50599e-06
2.15059e-06
4.11289e-06
9.19862e-06
4.10975e-06
9.20571e-06
2.14431e-06
6.14993e-07
3.50043e-06
9.26182e-07
2.1391e-06
6.20721e-07
3.50362e-06
4.11278e-06
9.19843e-06
4.10963e-06
9.20551e-06
2.14566e-06
9.31411e-07
3.50877e-06
6.32032e-07
3.50568e-06
6.26382e-07
2.15068e-06
4.11359e-06
9.21401e-06
9.207e-06
4.11664e-06
2.1456e-06
9.31588e-07
6.32086e-07
3.50869e-06
6.26434e-07
3.50562e-06
2.15063e-06
4.11346e-06
9.21386e-06
9.2068e-06
4.11653e-06
5.48433e-06
5.48301e-06
1.20115e-06
5.48731e-06
5.48598e-06
1.8479e-05
1.84898e-05
1.85037e-05
1.84927e-05
1.20635e-06
5.49182e-06
5.49047e-06
5.48892e-06
5.4876e-06
1.85019e-05
1.84909e-05
2.14431e-06
6.14979e-07
3.5009e-06
9.25981e-07
2.13915e-06
6.20708e-07
3.5041e-06
4.11262e-06
9.19881e-06
4.11006e-06
9.20589e-06
4.11278e-06
9.19916e-06
4.10972e-06
9.20622e-06
2.14566e-06
9.31511e-07
6.32118e-07
3.50882e-06
6.26457e-07
3.50576e-06
2.15065e-06
2.14564e-06
9.31402e-07
6.3207e-07
3.50916e-06
6.26412e-07
3.50607e-06
2.15062e-06
4.11387e-06
9.21421e-06
9.20718e-06
4.11636e-06
4.11352e-06
9.21457e-06
9.20752e-06
4.11651e-06
1.84791e-05
1.84899e-05
1.84812e-05
1.84921e-05
1.20636e-06
5.49025e-06
5.49189e-06
5.48736e-06
5.48899e-06
1.8502e-05
1.8491e-05
1.85041e-05
1.84932e-05
1.85011e-05
1.85123e-05
1.85043e-05
1.85155e-05
5.49165e-06
5.49338e-06
1.21834e-06
5.49456e-06
5.4963e-06
1.85248e-05
1.85135e-05
1.8528e-05
1.85166e-05
1.22334e-06
5.49918e-06
5.50093e-06
5.49618e-06
5.49792e-06
4.12013e-06
9.21473e-06
4.11712e-06
9.22181e-06
2.15674e-06
3.51054e-06
6.37652e-07
9.4733e-07
2.1519e-06
3.51356e-06
6.43231e-07
2.15668e-06
3.51093e-06
6.37608e-07
9.47237e-07
2.15185e-06
3.51389e-06
6.43184e-07
4.12088e-06
9.23016e-06
9.22294e-06
4.12391e-06
4.12082e-06
9.23034e-06
9.22314e-06
4.12388e-06
2.15799e-06
9.52477e-07
3.51853e-06
6.54319e-07
3.51549e-06
6.48792e-07
2.16274e-06
2.15794e-06
9.52387e-07
3.51885e-06
6.54268e-07
3.51586e-06
6.48747e-07
2.16268e-06
5.49337e-06
5.49184e-06
1.21832e-06
5.49608e-06
5.49473e-06
1.85023e-05
1.85135e-05
1.85271e-05
1.85157e-05
1.22332e-06
5.50069e-06
5.49931e-06
5.49789e-06
5.49632e-06
1.8526e-05
1.85146e-05
2.15677e-06
3.51106e-06
6.37649e-07
9.47127e-07
2.15193e-06
3.51408e-06
6.43209e-07
4.12003e-06
9.21553e-06
4.11749e-06
9.22262e-06
2.1567e-06
6.37694e-07
3.511e-06
9.47362e-07
2.15185e-06
6.43258e-07
3.51401e-06
4.12099e-06
9.23159e-06
9.22437e-06
4.12398e-06
2.15802e-06
9.52279e-07
3.51904e-06
6.54286e-07
3.516e-06
6.4878e-07
2.16276e-06
4.12118e-06
9.23112e-06
9.22393e-06
4.12376e-06
2.15794e-06
9.52478e-07
6.54335e-07
3.51893e-06
6.48823e-07
3.51593e-06
2.16269e-06
4.12031e-06
9.2153e-06
4.11731e-06
9.22237e-06
2.15674e-06
6.37708e-07
3.51064e-06
9.47381e-07
2.15188e-06
6.43289e-07
3.51366e-06
4.1202e-06
9.21516e-06
4.11719e-06
9.22227e-06
2.15803e-06
9.52325e-07
3.51862e-06
6.54314e-07
3.51558e-06
6.48789e-07
2.16278e-06
4.12098e-06
9.23089e-06
9.22369e-06
4.12402e-06
2.15797e-06
9.52521e-07
6.54379e-07
3.51861e-06
6.48849e-07
3.51559e-06
2.16273e-06
4.12087e-06
9.2308e-06
9.22359e-06
4.12393e-06
5.49341e-06
5.49206e-06
1.21842e-06
5.49631e-06
5.49494e-06
1.8503e-05
1.85141e-05
1.85285e-05
1.85171e-05
1.22341e-06
5.50089e-06
5.49951e-06
5.49793e-06
5.49656e-06
1.85266e-05
1.85153e-05
2.15675e-06
6.37687e-07
3.51109e-06
9.47171e-07
2.15191e-06
6.43268e-07
3.51414e-06
4.12006e-06
9.21551e-06
4.11758e-06
9.22261e-06
4.12022e-06
9.21587e-06
4.11724e-06
9.22301e-06
2.15804e-06
9.52439e-07
6.54399e-07
3.5187e-06
6.4887e-07
3.51569e-06
2.16278e-06
2.15801e-06
9.52346e-07
6.54362e-07
3.51911e-06
6.48831e-07
3.51606e-06
2.16276e-06
4.12129e-06
9.23112e-06
9.22393e-06
4.12381e-06
4.12096e-06
9.23154e-06
9.22434e-06
4.12397e-06
1.85031e-05
1.85143e-05
1.85053e-05
1.85165e-05
1.22345e-06
5.49937e-06
5.50105e-06
5.4964e-06
5.49806e-06
1.85268e-05
1.85154e-05
1.8529e-05
1.85176e-05
1.8526e-05
1.85373e-05
1.85292e-05
1.85406e-05
5.5008e-06
5.50256e-06
1.23481e-06
5.50371e-06
5.50547e-06
1.85498e-05
1.85385e-05
1.8553e-05
1.85417e-05
1.23965e-06
5.50795e-06
5.50974e-06
5.50524e-06
5.50702e-06
4.12757e-06
9.23168e-06
4.12457e-06
9.23881e-06
2.16861e-06
3.52045e-06
6.59827e-07
9.67604e-07
2.16398e-06
3.5234e-06
6.65296e-07
2.16855e-06
3.52081e-06
6.59779e-07
9.67482e-07
2.16393e-06
3.52371e-06
6.65236e-07
4.12831e-06
9.24698e-06
9.23995e-06
4.13116e-06
4.12824e-06
9.24715e-06
9.24013e-06
4.13112e-06
2.16981e-06
9.72493e-07
3.52802e-06
6.76078e-07
3.52525e-06
6.70717e-07
2.17424e-06
2.16976e-06
9.72389e-07
3.52833e-06
6.76019e-07
3.5256e-06
6.70665e-07
2.17418e-06
5.5025e-06
5.50092e-06
1.23478e-06
5.50519e-06
5.50385e-06
1.85272e-05
1.85385e-05
1.8552e-05
1.85407e-05
1.23961e-06
5.50946e-06
5.50815e-06
5.50693e-06
5.50539e-06
1.8551e-05
1.85397e-05
2.16864e-06
3.52096e-06
6.5981e-07
9.67391e-07
2.164e-06
3.52393e-06
6.65268e-07
4.12748e-06
9.23245e-06
4.12492e-06
9.23963e-06
2.16857e-06
6.5985e-07
3.52086e-06
9.67626e-07
2.16391e-06
6.65316e-07
3.52381e-06
4.12844e-06
9.24843e-06
9.2414e-06
4.13127e-06
2.16984e-06
9.72312e-07
3.52855e-06
6.76052e-07
3.52577e-06
6.7071e-07
2.17428e-06
4.12863e-06
9.248e-06
9.24094e-06
4.13106e-06
2.16975e-06
9.72475e-07
6.76103e-07
3.52846e-06
6.70747e-07
3.52568e-06
2.17422e-06
4.12775e-06
9.23223e-06
4.12472e-06
9.23941e-06
2.16861e-06
6.59889e-07
3.52054e-06
9.67647e-07
2.16395e-06
6.65349e-07
3.52347e-06
4.12766e-06
9.23213e-06
4.12461e-06
9.23928e-06
2.16984e-06
9.72335e-07
3.52815e-06
6.76071e-07
3.52533e-06
6.70708e-07
2.17431e-06
4.12843e-06
9.24779e-06
9.24072e-06
4.13134e-06
2.16979e-06
9.72516e-07
6.76129e-07
3.52808e-06
6.70767e-07
3.52533e-06
2.17425e-06
4.12832e-06
9.2476e-06
9.24058e-06
4.13124e-06
5.50252e-06
5.50114e-06
1.23487e-06
5.50544e-06
5.50404e-06
1.85278e-05
1.85391e-05
1.85535e-05
1.85422e-05
1.2397e-06
5.50974e-06
5.50831e-06
5.50701e-06
5.5056e-06
1.85516e-05
1.85403e-05
2.16862e-06
6.59875e-07
3.52102e-06
9.67433e-07
2.164e-06
6.65337e-07
3.52396e-06
4.12751e-06
9.23245e-06
4.12504e-06
9.23961e-06
4.12767e-06
9.23287e-06
4.12471e-06
9.24e-06
2.16985e-06
9.72469e-07
6.76152e-07
3.5282e-06
6.70801e-07
3.52543e-06
2.17427e-06
2.16983e-06
9.72355e-07
6.76107e-07
3.52854e-06
6.70756e-07
3.52579e-06
2.17424e-06
4.12871e-06
9.24795e-06
9.24092e-06