/*--------------------------------*- C++ -*----------------------------------*\
| =========                 |                                                 |
| \\      /  F ield         | OpenFOAM: The Open Source CFD Toolbox           |
|  \\    /   O peration     | Version:  v2006                                 |
|   \\  /    A nd           | Website:  www.openfoam.com                      |
|    \\/     M anipulation  |                                                 |
\*---------------------------------------------------------------------------*/
FoamFile
{
    version     2.0;
    format      ascii;
    class       surfaceScalarField;
    location    "750";
    object      phi;
}
// * * * * * * * * * * * * * * * * * * * * * * * * * * * * * * * * * * * * * //

dimensions      [0 3 -1 0 0 0 0];
oriented        oriented;


internalField   nonuniform List<scalar> 
40825
(
4.57449e-12
-2.72928e-08
2.27996e-09
1.55777e-07
0.000249611
-0.000249742
-1.71443e-08
1.22113e-07
9.64823e-07
-7.77685e-07
-9.59209e-07
7.81238e-07
2.52385e-08
-0.00115791
-2.73109e-08
-4.03891e-11
1.53208e-07
0.000249588
-0.000249714
1.10226e-07
9.64531e-07
-7.7759e-07
-9.56044e-07
7.81228e-07
-0.00115775
-1.69406e-10
1.3628e-09
-8.42959e-09
0.000228275
-0.000228295
8.96325e-10
-6.37648e-09
0.000228236
-0.000228258
-2.23643e-08
1.11251e-10
-0.000142391
4.29818e-10
0.000222237
-1.17409e-08
2.8488e-08
1.39679e-09
-0.000222254
0.00016993
1.23929e-09
-7.3508e-11
-0.00016994
2.05754e-09
2.15257e-08
-1.42336e-10
-4.72791e-08
-4.92089e-08
3.19667e-09
-6.28476e-11
5.1603e-10
-0.000142402
-1.84745e-08
2.34408e-10
-0.000142323
2.24242e-10
0.000222142
-7.65049e-09
1.23195e-09
2.84152e-08
-0.000222163
0.000169898
1.12326e-09
-0.000169905
1.81169e-09
1.95031e-08
-4.73579e-08
2.95995e-09
-4.94997e-08
6.08327e-10
-0.000142331
-1.5877e-08
-7.86586e-05
0.00026155
-9.72299e-09
2.56578e-08
-0.000261567
-4.4649e-08
-7.86677e-05
-3.89916e-08
-5.68909e-08
2.22554e-07
-0.00122018
1.19779e-07
-0.00122065
1.72003e-07
0.000248907
9.30275e-10
-0.000249049
-0.000265754
-1.36861e-09
1.93059e-07
1.44237e-09
4.28615e-09
0.000266064
-5.95175e-09
-0.000266684
-1.76461e-07
2.65372e-09
3.60238e-10
2.29784e-09
-0.000266539
6.00238e-09
4.67501e-09
1.71707e-07
0.000248825
-1.56696e-09
-0.000248967
-0.000265693
-3.79746e-09
1.90781e-07
1.40508e-08
-3.86066e-09
0.000266058
-0.000266685
-1.73977e-07
2.6663e-09
-1.8364e-08
-0.000266463
4.47381e-09
1.57353e-07
0.000249798
-0.000249927
-0.000263813
1.77879e-07
-0.00026452
-4.11867e-09
9.52651e-09
2.06305e-08
0.000276683
-9.5077e-09
-0.000276699
4.401e-09
9.73145e-05
-9.7323e-05
-1.97204e-08
1.57992e-09
8.65455e-08
0.000244381
-0.00024444
0.000192354
-2.57191e-09
-0.000192367
1.97601e-08
-4.47373e-09
0.000192302
-2.46191e-09
-0.000192315
-1.20423e-06
-2.05732e-07
2.28993e-07
1.22698e-06
-2.23574e-07
2.47066e-07
4.77444e-08
0.00113613
4.00597e-08
8.80687e-07
-8.57023e-07
-0.00113631
-9.84809e-09
7.93222e-08
0.000244304
4.13166e-09
-0.000244358
4.08e-09
9.73018e-05
-9.73104e-05
1.25166e-06
-2.07624e-07
0.00026854
-2.15439e-07
-0.000270573
1.36679e-08
0.000276578
-7.47912e-09
-0.00027659
8.70794e-07
-2.07995e-07
2.10536e-07
-8.62384e-07
-2.33965e-07
1.25326e-06
2.3364e-07
4.11332e-08
-0.00113548
-0.000220956
2.1555e-08
-2.07737e-08
1.50825e-08
-4.54081e-08
0.000220986
-1.82732e-08
0.000249973
2.76054e-08
5.35811e-08
-0.000250016
5.61628e-09
-3.13457e-08
1.35727e-08
-1.21802e-08
9.82066e-09
0.000181946
-6.0842e-09
-0.000181959
-8.26365e-09
2.5413e-08
-0.000220982
5.22657e-09
0.000181968
-2.61116e-08
-6.70428e-08
-3.55624e-09
-1.79181e-08
-7.87012e-05
8.14571e-10
-3.07379e-08
0.000261674
-1.19151e-08
2.56652e-08
-0.000261689
-4.447e-08
-7.87126e-05
3.43673e-09
-3.29169e-08
0.00019233
1.36232e-09
-1.36539e-08
9.73189e-05
-0.000212569
7.8375e-09
7.5919e-09
-2.14822e-08
0.00021259
2.6727e-09
8.00403e-05
-8.0049e-05
2.51711e-09
8.0026e-05
4.38624e-09
-8.00329e-05
6.06559e-09
-0.000212578
-6.63362e-09
8.00405e-05
8.00531e-05
-3.08466e-08
-0.000220885
2.42151e-08
-5.07206e-08
0.000220921
0.000249832
-1.32576e-08
2.53166e-08
5.304e-08
-0.000249883
-3.87854e-08
7.53889e-09
-1.41931e-08
0.00027661
7.08703e-09
0.000181891
-0.000181901
-3.58714e-08
-8.79332e-08
0.000249886
2.5108e-08
-0.00022091
0.000181916
1.55169e-07
0.000249885
-0.000250012
8.04088e-09
-0.000263862
1.75256e-07
0.000259945
5.86274e-09
-0.000260044
-9.47051e-08
-8.99695e-09
-0.000264561
0.000259877
1.15061e-08
-0.000259989
-1.0207e-07
0.00024437
-1.12341e-08
0.000259986
-1.78585e-08
-1.16225e-07
-0.000242273
-1.03269e-07
0.000242396
-8.82766e-08
0.000260665
-0.000260965
2.34473e-07
2.37451e-07
0.000261064
-8.36973e-08
-0.000261366
0.000261341
-0.000242394
1.85518e-07
-0.00119055
1.91576e-10
-5.23249e-08
2.15485e-08
1.34011e-09
-0.000228244
-4.99503e-08
1.85448e-09
2.16307e-08
-0.000228285
1.16067e-10
2.81543e-09
-1.76823e-07
-0.000249615
-7.96832e-08
-9.58053e-07
7.84575e-07
-7.73809e-07
9.65337e-07
-0.00115788
-3.30871e-08
-1.49686e-09
-0.000192318
-8.65309e-11
-1.76754e-07
-0.000249583
-1.37547e-08
-1.14329e-07
-0.000244319
2.32867e-07
-8.48131e-07
2.67098e-07
-1.88785e-07
8.91946e-07
-2.01109e-07
-9.52316e-07
7.87151e-07
-7.73728e-07
9.73283e-07
-0.00115766
-1.08552e-09
7.54381e-09
0.000142333
6.65331e-10
-0.00014234
-0.000169909
-1.6272e-10
-3.02292e-11
-0.000222149
1.84084e-08
3.13374e-09
-5.43934e-08
-8.32178e-09
8.55571e-10
3.5768e-10
2.70281e-08
-0.000228264
-3.10269e-11
-0.000169918
1.33578e-09
2.824e-08
-0.00022217
2.41377e-10
1.19804e-08
7.87095e-05
-3.47848e-10
-7.87211e-05
-0.000261691
1.58844e-08
-2.95077e-09
-4.4754e-08
-1.18243e-09
2.54873e-08
-0.000261705
-1.88925e-10
9.69767e-09
-1.26568e-09
0.000142403
-0.000142412
-0.000222248
1.85024e-08
-4.95852e-08
-0.000169943
-2.80774e-10
1.35881e-09
-8.37224e-09
2.7028e-08
-0.000228304
2.82599e-08
-0.000222266
-0.000169953
9.72173e-09
7.86651e-05
-7.86742e-05
-0.000261566
1.58536e-08
-4.68506e-08
-2.37303e-09
-4.47932e-09
1.95029e-08
2.55833e-08
-0.000261583
3.94899e-09
-6.55304e-09
-5.5987e-10
6.6601e-09
1.37598e-08
4.02976e-09
-6.27239e-09
5.04446e-09
1.23137e-08
1.96092e-08
-2.68942e-09
-2.36878e-09
-8.29366e-10
1.85956e-08
6.00258e-09
-1.20829e-08
3.36699e-08
-1.57143e-07
0.000263865
-1.26106e-10
-0.000264564
-0.000249897
-1.77997e-07
-4.58305e-09
-9.48112e-10
-0.000250026
-4.08645e-09
-1.73829e-07
-2.7114e-09
0.000265749
-0.000266531
-0.000248905
-1.95995e-07
-0.000266068
2.33068e-09
2.03102e-09
1.54723e-09
1.55041e-07
-2.20185e-09
-0.000249742
-0.00024905
-1.0216e-08
-0.000266679
6.55167e-09
-1.68549e-07
0.000265687
-1.85642e-08
-0.000266459
-0.000248829
-1.96122e-07
2.27484e-09
-0.000266037
-3.45586e-09
1.52471e-07
-6.63704e-10
-0.00024971
-0.000266662
9.61869e-10
-0.000248971
1.21952e-09
-1.4967e-07
-6.34568e-09
0.000263797
-0.000264508
-0.000249809
-1.82898e-07
-0.000259877
-1.78969e-08
1.72931e-09
7.39754e-08
-0.00024993
5.36331e-08
1.29077e-06
-2.43104e-07
-2.71023e-07
1.3122e-06
0.000269496
-2.62166e-07
8.62212e-07
2.20678e-07
0.00113974
4.05774e-07
1.26623e-06
2.45477e-07
5.51917e-08
-2.76445e-07
-9.13966e-07
9.03685e-09
5.07371e-09
9.70965e-05
2.63023e-08
-5.83347e-09
1.02047e-08
0.00027642
-1.39635e-09
3.26728e-09
-2.30621e-08
0.000192107
-0.000192086
-3.8873e-08
0.000261428
1.37719e-08
-0.0002614
-3.83034e-09
-1.19148e-08
9.71172e-05
-9.71021e-05
-5.83118e-08
-1.49346e-08
1.00191e-08
0.000276443
-0.000276392
-3.2107e-08
6.84603e-08
0.000250196
-1.91969e-07
-0.000250099
-3.72429e-09
7.26218e-08
3.33127e-08
0.000250164
1.02199e-08
0.000181677
1.60325e-09
3.30218e-09
0.000220904
7.76989e-08
-1.56584e-07
0.000261552
-1.99646e-07
-7.3434e-08
2.58807e-07
0.000261359
0.00024255
-4.8667e-08
1.68727e-07
3.03665e-09
0.000265204
-0.000264518
4.04387e-09
-7.73015e-09
-9.45525e-08
0.000244468
-0.000244404
0.000250236
-0.000250111
-3.04463e-09
0.000260461
-0.000260364
1.23251e-07
8.10141e-10
-1.62625e-07
-1.15043e-07
-0.00125083
-2.94257e-08
-1.62328e-07
-0.00125034
1.40465e-07
-0.00125065
-1.69826e-08
-0.00125057
-1.24739e-06
-2.46767e-07
-2.50534e-07
1.21777e-06
2.26502e-07
-9.00275e-07
8.5416e-07
1.99124e-07
9.36712e-08
0.00114017
2.13163e-07
-2.49196e-07
-1.40704e-07
-9.08427e-07
8.43438e-07
1.55913e-07
0.00114055
2.82372e-07
1.17432e-06
2.01221e-07
-1.28218e-06
6.65471e-08
-9.05697e-07
-2.58881e-07
1.25517e-06
2.346e-07
-2.46877e-07
8.56756e-07
1.99051e-07
0.00113969
2.47323e-07
-2.37629e-07
-2.35303e-07
0.000269472
-3.88781e-08
-2.51798e-10
2.11125e-09
1.57177e-08
-0.000228319
0.00022834
0.000192069
-5.15389e-09
3.18596e-08
1.16123e-10
0.00022833
1.78153e-09
-1.41713e-08
4.25583e-08
5.08996e-09
9.00581e-09
9.70815e-05
-3.84443e-08
1.51032e-08
-1.06298e-07
0.000260385
-1.91796e-09
1.06815e-09
-1.60865e-07
-0.000250078
0.000250201
1.51523e-08
-1.08548e-07
0.000260385
-1.01562e-06
-1.6308e-08
-8.35591e-07
9.37682e-07
7.58327e-07
0.00116181
4.0174e-07
-1.07085e-08
-2.06889e-07
2.46227e-09
0.000266505
-4.12935e-08
1.77293e-08
1.95093e-09
-0.000228281
0.000228302
0.000192016
-5.22932e-09
3.21397e-08
0.000228294
-1.61932e-08
1.62269e-09
4.24997e-08
-1.60865e-07
8.17236e-10
-0.000250054
0.000250171
-1.01276e-06
-8.35605e-07
9.4046e-07
7.5835e-07
0.00116185
3.60471e-07
1.33325e-08
-1.51213e-08
-1.82117e-07
0.000264437
3.94634e-09
-2.06819e-07
0.000266444
2.65911e-08
0.000276322
-8.48777e-09
1.26699e-08
-6.77007e-09
2.88793e-08
0.000276439
-7.9129e-09
1.26915e-08
5.03199e-09
9.70963e-05
0.00019207
-5.17975e-09
2.9877e-08
1.31776e-08
-1.93525e-09
0.000142162
-0.000142175
1.08779e-09
-0.00022218
1.45765e-08
-4.12812e-08
3.78703e-09
0.000222205
-0.00016969
5.39326e-10
5.04959e-13
0.000169705
1.53581e-09
-1.39914e-08
-0.000228348
-4.00135e-11
4.20029e-08
-0.000222212
4.48802e-08
1.82569e-09
-0.000169706
2.13469e-11
6.85832e-10
0.000142177
-1.38102e-08
-7.85334e-05
-6.95413e-10
7.85479e-05
-1.35678e-09
-2.31398e-08
0.000192092
1.63856e-09
0.000261403
-1.32142e-08
-1.88364e-09
3.68894e-08
-3.77166e-09
-3.65656e-08
0.000261428
-1.10394e-09
-1.4415e-08
-5.53822e-10
-0.000142161
2.35186e-09
1.76543e-08
-1.13597e-10
-3.8456e-08
0.000222189
-1.3381e-08
4.30168e-08
0.000169689
1.96212e-09
4.03536e-11
-3.84312e-08
1.61047e-11
-3.35744e-09
-1.42346e-08
9.70991e-05
-1.98924e-09
1.51895e-08
0.000142089
-0.000142104
1.13922e-09
-0.000169653
5.94987e-10
0.00016967
-0.000222085
1.65187e-08
-4.36379e-08
3.81452e-09
0.00022211
-1.60038e-08
1.58435e-09
-0.000228311
4.43894e-08
-0.000169671
-0.000222117
4.73366e-08
1.87354e-09
6.76085e-10
0.000142106
-1.37783e-08
-7.8489e-05
-7.03878e-10
7.85035e-05
-1.46078e-09
-2.52827e-08
0.00019204
0.000261274
-1.3249e-08
-1.90962e-09
3.93163e-08
-3.85286e-09
-3.89476e-08
0.000261302
-1.17084e-09
-6.26879e-10
-1.6365e-08
-0.000142087
1.96655e-08
2.18268e-09
-3.83934e-08
0.000169652
2.02122e-09
0.000222095
-1.53982e-08
4.54183e-08
-4.07703e-08
1.75235e-08
-1.54844e-08
-0.000220844
1.05794e-08
-3.95217e-08
0.00022087
0.000250011
-2.3268e-08
7.05337e-08
4.10854e-08
5.24576e-09
-2.62254e-08
-1.26417e-08
0.000276341
0.000181645
1.34224e-08
-5.15358e-09
4.86184e-09
0.000181662
-6.60806e-08
-2.21956e-08
0.000250058
-9.30209e-09
3.31031e-08
-1.55317e-08
1.94458e-08
-0.000220923
1.06298e-08
-3.9405e-08
0.000220947
0.00025018
-2.31431e-08
7.05187e-08
-2.85454e-08
4.81393e-09
1.19852e-08
-1.27503e-08
0.000276463
0.000181705
1.53714e-08
-5.08466e-09
-6.60336e-08
-1.97765e-08
0.000250221
4.90562e-09
0.000181724
-9.2043e-09
3.30848e-08
6.3059e-09
6.24071e-09
-0.000212352
0.000212361
7.98915e-05
4.55003e-09
7.99078e-05
4.60313e-09
7.99027e-05
7.9919e-05
-3.3178e-09
9.71116e-05
-1.59088e-08
-7.85321e-05
7.85488e-05
-8.50102e-10
-1.42932e-09
-2.31266e-08
0.000192091
0.000261407
-1.5339e-08
3.92688e-08
-1.87755e-09
-3.87089e-08
0.000261435
-5.92375e-09
-9.76289e-10
-1.04874e-07
0.000261273
-1.05091e-07
0.00026162
0.000242528
-1.03038e-07
-1.03111e-07
0.000242655
2.29076e-07
2.24203e-07
0.000271492
0.000261559
0.000261909
-1.82132e-07
0.000264523
2.11188e-08
3.75265e-09
0.000244416
0.000250118
3.4449e-09
2.35965e-10
1.66204e-07
0.000265217
-6.2108e-09
-8.51148e-08
-7.76973e-09
0.000244473
0.000260479
0.000250245
-7.86516e-09
-2.08238e-07
5.96931e-09
0.00026647
-0.000267258
1.01359e-06
-2.31769e-08
-0.000249262
-1.78306e-07
3.10951e-09
0.000249397
-0.000266869
-1.84663e-09
-6.68161e-09
-7.56514e-07
0.000267473
-4.37744e-10
1.91001e-07
-0.000250226
-1.79767e-10
-0.000249423
-3.40414e-09
-0.000267507
1.48474e-09
8.33615e-07
-9.35791e-07
9.22824e-09
0.000267216
-1.84752e-07
0.000264534
3.69838e-09
0.000244402
0.000250113
9.55322e-10
1.6116e-07
3.72707e-10
-1.13039e-08
0.000265227
-7.72408e-09
-7.08025e-08
5.71209e-09
0.000244452
-5.49532e-09
0.000250235
5.01456e-09
0.000260465
1.27811e-09
1.89647e-07
0.000250109
1.05339e-09
0.000249289
0.000266904
2.6566e-09
1.75145e-07
-1.53562e-09
2.77342e-09
-1.57738e-07
-6.11056e-10
-3.6571e-09
4.36233e-09
-2.03095e-07
0.000266408
-0.000267205
1.00815e-06
-1.30762e-08
-0.000266856
-4.04381e-09
-7.5929e-07
0.000267452
-0.000249187
-1.78268e-07
3.09993e-09
0.000249319
1.90967e-07
-2.12898e-10
-0.000250201
-0.00026749
8.30904e-07
-0.000249339
-3.40768e-09
-9.41339e-07
-3.85869e-09
0.000267171
-1.06365e-07
0.000260282
3.76913e-09
0.000244318
0.000250013
3.47127e-09
1.63724e-07
1.96213e-10
1.42276e-09
0.000265128
-7.7424e-09
-8.50159e-08
0.000244373
-5.44436e-09
0.000250136
0.000260375
1.89642e-07
-1.94321e-11
0.000250081
0.000266892
0.000249207
3.6486e-09
1.77629e-07
-1.6027e-07
1.26818e-09
2.20212e-08
-4.53897e-09
0.000192357
-2.4545e-09
-0.000192372
-9.56686e-09
8.41236e-08
0.000244393
3.99101e-09
-0.00024445
7.39739e-09
1.04507e-07
9.69834e-07
-7.77594e-07
-9.56118e-07
7.86681e-07
-0.00115775
-1.21352e-06
5.45181e-08
-1.45638e-09
0.00113624
-2.24401e-07
1.22676e-06
2.35989e-07
8.69716e-07
-2.07078e-07
2.17644e-07
-8.56164e-07
-0.00113634
1.2368e-06
1.21629e-06
-2.16622e-07
-2.08203e-07
0.000268563
-0.000270591
6.43868e-09
9.73171e-05
-9.73281e-05
1.8257e-08
0.000276694
-9.34175e-09
-0.000276706
-1.25063e-06
4.36586e-08
0.00113573
-2.32425e-07
1.26161e-06
2.41667e-07
8.77754e-07
-2.09839e-07
2.2025e-07
-8.64137e-07
-0.00113585
3.03546e-08
-1.1932e-06
8.94528e-08
4.75636e-08
1.24868e-06
-2.17722e-07
2.47644e-07
8.83847e-07
-1.92308e-07
2.50604e-07
-8.54424e-07
-0.00113646
-2.1134e-07
-2.16138e-07
0.000268585
-0.000270622
5.12644e-08
3.74068e-08
0.00113538
-2.16407e-07
1.26689e-06
2.49466e-07
8.74704e-07
-1.91194e-07
2.25434e-07
-8.51042e-07
-0.00113559
3.87426e-08
-3.02873e-08
0.00113638
-2.41003e-07
1.2132e-06
2.30463e-07
8.66975e-07
-2.28578e-07
2.09557e-07
-8.69309e-07
-0.00113635
2.49113e-08
7.00987e-12
1.43104e-09
0.000228277
-8.50066e-09
-0.000228295
-7.28947e-09
9.31842e-08
9.67693e-07
-7.77616e-07
-9.56348e-07
7.84081e-07
-0.00115798
-1.25458e-06
8.78564e-07
-2.02827e-07
-8.57245e-07
2.21113e-07
-4.38114e-08
-2.36747e-07
1.25892e-06
2.39112e-07
-0.00113555
-1.33409e-10
2.1226e-09
1.53175e-07
0.000249617
-0.000249747
2.48819e-08
0.000228238
-8.44833e-09
1.50022e-09
-0.000228256
1.55695e-07
0.000249589
4.22718e-10
-0.000249721
-1.43871e-08
-0.000276673
-3.3802e-08
8.20015e-09
1.35882e-08
4.5801e-09
6.30744e-09
9.72868e-05
-9.72977e-05
-3.42814e-09
-1.59012e-08
-9.72952e-05
9.28321e-08
-6.86158e-08
-0.00122026
-0.00122039
1.27321e-07
6.1846e-08
0.00119045
-0.00119054
9.88608e-08
4.04803e-08
0.0011904
-0.00119045
4.71147e-08
-1.49393e-09
1.51412e-09
-1.76237e-07
-0.000249618
-7.54633e-09
-2.01362e-08
8.27886e-08
0.000244383
1.85495e-09
-0.00024444
0.00115794
-7.38347e-09
1.27892e-07
9.6089e-07
-7.77153e-07
7.82926e-07
-9.52992e-07
-0.00115807
3.2447e-09
1.22676e-06
4.41959e-08
-8.55222e-07
2.18116e-07
-2.08903e-07
8.70175e-07
-1.21284e-06
2.36109e-07
-2.23903e-07
1.19573e-08
3.06552e-08
-8.87936e-09
-0.000244389
-9.70884e-08
-1.59282e-09
1.16333e-07
-9.54591e-07
7.7793e-07
-7.75966e-07
9.5869e-07
-2.79915e-08
1.39423e-09
0.000249626
1.87615e-09
1.57168e-07
-0.000249758
3.05831e-08
-0.000244379
-8.90656e-09
-9.69767e-08
1.0029e-10
4.94623e-08
-0.000249616
5.73085e-10
-1.76115e-07
-1.03914e-10
-2.79375e-08
-1.3176e-10
0.000249625
1.5975e-07
-0.000249757
7.65033e-09
-4.08965e-09
6.91686e-09
0.00027662
-3.54702e-09
-0.000276627
1.43265e-08
-6.2567e-09
3.06966e-08
0.000276555
-1.07178e-08
-0.000276583
-1.26126e-06
-1.21893e-06
-0.000268546
2.34648e-07
2.37232e-07
-1.42313e-08
1.37037e-08
7.53081e-09
-0.000276642
-3.62283e-08
-1.43432e-08
1.37414e-08
4.94949e-09
-0.00027656
-3.61943e-08
4.08214e-09
4.51673e-09
9.73175e-05
-9.73261e-05
-1.97223e-07
0.000268544
-2.07586e-07
-0.000270587
9.90062e-09
6.89849e-09
-6.1198e-09
0.000276616
-0.000276623
2.22922e-08
0.000192285
-2.54186e-09
-0.0001923
-3.27978e-08
9.67434e-10
-0.000192298
-7.41372e-09
8.27591e-08
0.000244286
4.15522e-09
-0.000244343
1.25889e-06
3.43423e-08
-8.63344e-07
2.20635e-07
8.78065e-07
-2.09016e-07
-1.2472e-06
2.39003e-07
-2.2916e-07
1.82468e-08
1.40951e-08
-8.74415e-09
-0.000244295
-9.69652e-08
7.12489e-11
2.73185e-08
-8.46675e-09
1.30843e-09
0.000228275
-0.000228296
1.97149e-08
-2.42943e-09
0.000192366
-0.000192379
2.72734e-08
-8.45457e-09
1.16302e-09
0.000228238
-0.000228258
1.45931e-09
1.64668e-09
1.55741e-07
0.000249616
-0.000249747
7.46483e-08
1.63029e-09
0.000244366
-0.000244413
1.88025e-08
9.37873e-08
9.70028e-07
-7.77762e-07
-9.56494e-07
7.86626e-07
-0.00115794
1.11788e-09
1.55682e-07
0.00024959
-0.000249718
8.214e-08
9.72959e-07
-7.77651e-07
-9.5897e-07
7.86797e-07
-0.00115795
1.85431e-08
0.000276543
-9.64666e-09
-0.000276553
-4.16607e-09
1.63012e-08
0.000276665
-7.57229e-09
-0.000276677
-0.000268566
2.34614e-07
2.37148e-07
7.39098e-09
-0.000276555
-3.61169e-08
1.36393e-08
5.61366e-09
-0.00027668
-3.38743e-08
4.55475e-09
9.72999e-05
-9.73086e-05
-3.52678e-09
-9.73083e-05
-1.66826e-10
1.72065e-09
1.94245e-08
-0.000228271
0.000192332
-2.52851e-09
-0.000192345
8.33433e-10
-0.000192345
1.90139e-10
0.000228263
1.41782e-09
-6.6252e-09
-0.000228286
4.70899e-08
-1.7616e-07
2.12988e-09
-0.000249595
0.00115791
1.16543e-07
9.63421e-07
-7.77321e-07
7.82764e-07
-9.53185e-07
-0.00115802
-1.78662e-08
7.79139e-08
0.000244315
-6.19744e-10
-0.000244366
8.34564e-09
4.00876e-08
-1.2442e-06
2.4417e-07
-2.29347e-07
-8.5535e-07
2.20606e-07
-2.06295e-07
8.72466e-07
1.1092e-07
-9.54742e-07
7.80584e-07
-7.76138e-07
9.61265e-07
3.06987e-08
-8.80505e-09
-0.000244324
-9.93892e-08
-2.80373e-08
0.000249602
1.57245e-07
8.4095e-10
-0.000249731
1.94268e-08
1.69405e-09
-0.000228234
-4.58679e-09
0.000192282
-2.10215e-09
-0.000192293
3.39076e-09
1.04086e-09
-0.000192295
0.000228225
-6.64305e-09
1.35822e-09
-0.000228248
4.95014e-08
-0.000249593
2.55339e-09
-1.7356e-07
0.00115785
1.15807e-07
9.57904e-07
-7.77145e-07
7.77272e-07
-9.61084e-07
-0.00115792
-7.66788e-08
-2.23329e-08
6.41488e-09
0.000244293
9.25356e-08
-0.000244355
-3.38496e-09
3.9881e-08
-1.20746e-06
2.39111e-07
-2.29309e-07
-8.60426e-07
2.1815e-07
-2.0905e-07
8.72688e-07
1.04533e-07
-9.57222e-07
7.83391e-07
-7.78776e-07
9.63884e-07
-1.74665e-08
3.07461e-08
-1.12856e-08
-0.000244292
-9.95066e-08
-3.04676e-08
0.000249593
2.05578e-09
1.59808e-07
-0.000249725
9.72888e-05
-9.72975e-05
-9.72974e-05
9.72836e-05
6.23847e-09
-9.72961e-05
-9.72919e-05
-3.46866e-09
-7.87026e-05
-1.80755e-08
-4.29753e-10
9.94543e-10
3.54202e-09
-3.29411e-08
-1.20209e-08
0.000261675
-1.2642e-09
2.57838e-08
-0.00026169
-3.98111e-10
-7.87142e-05
-3.0555e-09
-4.44763e-08
-1.58826e-08
-4.3754e-09
-0.000220965
2.05172e-08
-7.22622e-08
-1.33576e-08
0.000249991
-2.02507e-08
2.99078e-08
4.88829e-08
-0.000250031
-3.61736e-08
2.57816e-09
-1.19562e-08
9.97537e-09
0.000181939
-7.86368e-09
-0.00018195
-2.60721e-08
-7.434e-08
-1.94455e-08
2.60521e-08
-0.000220982
-1.00719e-10
-0.000142392
-2.04495e-08
2.43012e-10
-9.8057e-09
0.000222239
2.8583e-08
-0.000222257
1.69425e-09
2.15076e-08
-3.09487e-10
-4.96716e-08
1.13958e-09
0.000169931
6.54574e-11
-0.000169941
-0.000142401
-4.93069e-08
2.82269e-11
-0.000142322
1.44594e-10
-1.8303e-08
2.56892e-10
2.14441e-08
1.77066e-09
-4.96165e-08
1.42524e-09
0.000169896
-0.000169906
-7.6998e-09
0.00022214
1.34484e-09
2.85579e-08
-0.000222161
6.76031e-10
-0.000142329
3.13322e-09
-4.92385e-08
-7.86581e-05
-1.57795e-08
-9.81698e-09
0.000261547
2.58408e-08
-0.000261564
-7.86673e-05
-4.67731e-08
0.00022095
1.58929e-08
-9.81497e-09
-6.20883e-09
-0.000220975
2.52723e-08
1.60738e-08
-1.00232e-08
-4.1194e-09
9.74544e-09
-0.000276685
2.56172e-08
-0.000249967
-3.32833e-08
-7.50335e-08
-2.20129e-08
-0.000181936
6.82578e-09
1.92522e-08
-4.78959e-08
2.80647e-08
-0.000250016
5.34269e-08
-6.11395e-09
-0.00018195
-2.56064e-09
0.000212557
-4.52948e-09
-0.000212562
6.11348e-09
-7.62585e-09
-8.00346e-05
-8.00202e-05
-7.71244e-09
-5.00136e-09
-8.00272e-05
4.41874e-09
-1.70974e-08
-8.00452e-05
9.73061e-05
-3.40729e-09
-1.58667e-08
4.55362e-09
6.26758e-09
-2.44661e-09
-2.71057e-09
0.000212553
3.89074e-09
6.03864e-09
-0.000212558
-8.0035e-05
-7.78561e-09
-4.98633e-09
-8.00202e-05
-7.63831e-09
-5.05548e-09
4.38203e-09
-8.00418e-05
4.41342e-09
-8.00274e-05
-1.70464e-08
-1.71727e-08
-2.81719e-08
2.58106e-08
-0.000220929
0.000220962
1.70863e-08
-4.76056e-08
0.000249933
3.27782e-09
2.10188e-08
1.82331e-08
-0.000249969
-3.85807e-08
7.43319e-09
0.000276652
1.38306e-08
-1.40732e-08
0.000181913
4.50047e-09
-2.80595e-09
-0.000181919
0.000249987
-8.48189e-08
-3.5433e-08
0.000181942
5.02025e-09
6.35375e-09
1.24697e-08
-0.00022094
-1.80209e-08
2.1208e-08
-0.000220871
0.000220898
1.24606e-08
-4.28656e-08
0.000249832
-3.06584e-08
8.96849e-08
3.56787e-08
-0.000249896
-2.87076e-08
5.47163e-09
0.000276577
1.34884e-08
-1.21039e-08
0.000181865
1.61143e-08
-5.93096e-09
-0.000181886
0.000249878
-6.68891e-08
-2.56022e-08
0.000181888
3.43085e-09
-1.69027e-08
3.5955e-08
-0.000220904
1.33062e-08
-7.42978e-09
0.000220938
2.27422e-08
-0.000181928
-2.3804e-08
1.60364e-08
-1.00907e-08
-4.04431e-09
7.47453e-09
-0.00024994
2.56936e-08
-7.74585e-08
-3.32703e-08
5.11968e-08
2.53748e-08
-4.78163e-08
1.35352e-08
-9.25369e-09
0.000220877
2.28862e-08
-0.000181876
-2.35956e-08
1.85582e-08
-7.04692e-09
-4.2091e-09
9.70847e-09
-0.000249828
2.32474e-08
-7.74435e-08
-3.333e-08
5.34738e-08
2.79442e-08
-4.79216e-08
9.51547e-09
7.56944e-09
-0.000212546
8.00273e-05
4.50725e-09
-8.00346e-05
8.00164e-05
2.7039e-09
-8.0025e-05
-0.000212549
-1.36418e-08
-3.39764e-09
-0.000212554
3.83617e-09
6.16849e-09
1.0531e-08
2.33742e-09
8.00326e-05
-8.00428e-05
2.9925e-09
8.0032e-05
4.44591e-09
-8.00394e-05
8.60075e-09
-0.000212576
-4.93716e-09
-0.000220911
3.75539e-08
-4.70792e-08
-6.17741e-08
-6.30095e-09
0.000249871
2.3321e-08
2.50816e-08
-0.000249907
3.04859e-09
0.00018191
-0.000181915
2.8795e-09
-6.58673e-08
-1.41041e-08
1.55755e-08
-0.000220922
-2.09424e-07
-3.83728e-08
-1.57384e-08
-7.86442e-05
7.86602e-05
-2.53672e-10
9.47613e-10
0.000192313
-3.26497e-08
0.000261514
-9.89994e-09
2.61925e-08
-0.000261531
-1.27182e-09
0.000261546
-4.41983e-08
-3.01889e-09
-7.86535e-05
-6.4452e-10
9.83943e-09
7.8651e-05
-6.49848e-10
-0.000261529
1.57652e-08
0.000261561
-4.43623e-08
-3.02066e-09
-2.5077e-09
2.20864e-08
2.59501e-08
-1.26372e-09
7.86671e-05
-2.641e-10
-0.000142394
2.07371e-10
-2.03921e-08
3.902e-10
1.18776e-09
0.000169934
2.55823e-11
-0.000169944
-9.81863e-09
0.000222237
1.30645e-09
2.86087e-08
-0.000222256
2.15484e-08
1.74502e-09
-1.18153e-11
-4.97204e-08
3.79734e-10
-0.000142403
3.33479e-11
3.05266e-09
-4.92534e-08
-7.87006e-05
-1.80625e-08
-1.197e-08
0.000261664
2.5738e-08
-0.000261679
1.03983e-09
-3.07972e-08
-7.87122e-05
-4.4478e-08
-0.000142325
1.35178e-10
-1.83968e-08
2.84179e-10
1.23046e-09
0.0001699
-0.00016991
-7.71051e-09
0.000222142
1.28575e-09
2.85022e-08
-0.000222163
2.15641e-08
1.6964e-09
-4.97771e-08
6.65401e-10
-0.000142332
3.05253e-09
-4.93927e-08
-7.86579e-05
-1.57915e-08
-9.78105e-09
0.000261544
2.57037e-08
-4.45464e-08
-2.50423e-09
-2.63238e-09
0.000212558
6.12795e-09
3.89415e-09
-0.000212563
-8.00221e-05
-7.78375e-09
-4.94875e-09
-8.00349e-05
-7.65692e-09
-5.15242e-09
4.43643e-09
-8.0029e-05
4.38255e-09
-8.00419e-05
-1.6961e-08
-1.50192e-08
2.36987e-08
-2.54179e-08
-0.000220866
0.000220896
1.69236e-08
-4.54831e-08
0.000249816
-1.85487e-08
5.40293e-08
2.56784e-08
-0.000249858
7.38314e-09
-3.59159e-08
0.000276567
-1.1684e-08
0.000181864
9.5249e-09
-4.43899e-09
-0.000181879
0.00018189
4.95544e-09
0.000249859
-7.70847e-08
-2.79502e-08
-6.19267e-09
2.32893e-08
-0.000220892
-2.3073e-08
2.15558e-08
-0.000220943
0.000220975
1.48747e-08
-4.53621e-08
0.000249983
-1.37674e-08
5.1404e-08
2.32677e-08
-0.000250027
-3.37387e-08
5.50673e-09
0.000276692
1.3644e-08
-1.18315e-08
0.000181923
7.44266e-09
-4.43876e-09
-0.000181933
0.000250029
-7.48059e-08
-2.79004e-08
0.000181945
5.11116e-09
-4.05024e-09
2.29933e-08
-0.000220968
-9.39783e-09
1.59742e-08
0.000220873
2.29525e-08
-0.000181876
-2.37906e-08
-9.62469e-09
1.83634e-08
9.75409e-09
-0.000249815
2.5536e-08
-3.06425e-08
-7.72843e-08
2.54472e-08
5.3587e-08
-4.55952e-08
1.35145e-08
-7.35731e-09
0.00022095
2.28574e-08
-0.000181934
-2.15938e-08
1.61044e-08
-7.45925e-09
-4.16207e-09
7.41603e-09
-0.000249982
2.33206e-08
-2.82253e-08
-7.49678e-08
2.29415e-08
5.35846e-08
-4.53881e-08
7.73136e-09
7.6498e-09
-0.000212546
8.00163e-05
2.57058e-09
-8.00234e-05
8.00292e-05
2.64723e-09
-8.00362e-05
-0.000212551
9.7317e-05
-3.45879e-09
4.47558e-09
9.79387e-09
-1.24723e-09
0.000142382
5.13977e-10
-0.000142391
-0.00022223
2.03234e-08
3.16134e-09
-5.15801e-08
-0.000169919
-1.16926e-10
-5.51335e-11
1.25389e-09
-6.48382e-09
-0.000228291
2.48431e-11
2.51768e-08
1.29079e-09
-0.000222252
3.11724e-08
-0.000169927
-3.25902e-11
4.75289e-10
-1.78426e-08
-7.86878e-05
7.87061e-05
-4.48862e-10
8.60522e-10
0.000192358
-3.04839e-08
0.000261643
-1.20416e-08
-1.25459e-09
2.85479e-08
-0.000261661
0.000261676
-3.10595e-09
-4.64863e-08
-4.88673e-10
-7.86994e-05
1.19862e-08
7.86946e-05
-0.000261658
1.7866e-08
-4.66821e-08
-2.53943e-09
1.99074e-08
2.82872e-08
-2.02231e-08
1.40366e-10
-0.000142371
1.64626e-09
1.93135e-08
3.83578e-11
-4.92851e-08
0.000222222
-9.92578e-09
3.15026e-08
-0.000222244
0.000169908
1.22188e-09
1.30235e-11
-0.000169915
-5.13146e-08
-1.46062e-11
-0.000142381
-1.16454e-09
7.83972e-09
0.000142316
5.66784e-10
-0.000142323
-0.000169888
-2.11816e-10
-0.000222139
1.8314e-08
2.98267e-09
-4.91062e-08
-6.50256e-09
1.25147e-09
-0.000228254
2.52253e-08
-0.000169896
1.2639e-09
-0.00022216
2.89071e-08
1.80223e-10
-1.58006e-08
-7.86468e-05
7.86628e-05
-2.02714e-10
9.71702e-10
0.000192308
3.3636e-09
-3.05754e-08
0.000261521
-9.87517e-09
-1.38315e-09
2.38556e-08
-0.000261536
0.000261556
-3.11525e-09
-4.65574e-08
-6.15771e-10
-7.8656e-05
9.75716e-09
7.86536e-05
-0.000261539
1.58549e-08
-4.44043e-08
-2.39374e-09
-4.59556e-09
1.98507e-08
2.59237e-08
1.66992e-10
-1.81918e-08
-0.000142305
1.93153e-08
1.79759e-09
-4.92429e-08
0.000169876
1.22998e-09
-0.000169884
0.000222128
-7.99454e-09
2.92799e-08
-0.00022215
-5.1232e-08
-0.000142312
9.7306e-05
9.73006e-05
-3.51269e-09
4.48891e-09
-3.51623e-09
-9.73059e-05
2.39178e-10
-8.6685e-09
7.75763e-10
0.000228263
-0.000228283
-0.00019234
8.15194e-10
5.76447e-11
-0.000228268
1.5554e-09
2.14232e-08
-6.64922e-09
1.50456e-09
0.000228224
-0.000228249
-1.35177e-10
0.000192275
-0.000192291
-0.00022823
1.68723e-09
1.93896e-08
-0.000192289
9.85413e-10
4.4658e-09
-9.73145e-05
-0.000142369
1.13499e-10
-2.21834e-08
0.000142391
4.21301e-10
1.06412e-09
0.000169907
2.34431e-11
-0.000169917
-1.1961e-08
0.000222221
3.14979e-08
-0.000222241
1.26279e-09
2.13354e-08
1.4827e-09
0.000228289
7.40704e-10
-4.92279e-08
-0.000142381
4.96611e-10
0.000169928
4.6167e-11
0.000222248
-5.12214e-08
3.13391e-09
1.19792e-08
7.86943e-05
-5.13855e-10
-7.87058e-05
-2.5645e-09
1.99091e-08
-0.000192353
-0.000261658
1.78771e-08
-3.15295e-09
-4.42959e-08
-1.30995e-09
2.82694e-08
-0.000261676
-4.34866e-10
-1.24113e-09
1.18584e-08
0.00014238
-8.55576e-09
1.28255e-09
1.17021e-10
2.76197e-08
-0.000222229
2.22633e-08
-4.8973e-08
-0.000169918
-9.91994e-11
-3.53648e-11
-2.23877e-11
3.12129e-08
-0.000142302
1.78389e-10
-1.82432e-08
2.56271e-10
0.00014232
1.20367e-09
0.000169874
-0.000169882
-7.93445e-09
0.000222125
1.36331e-09
3.40102e-08
-0.000222151
1.92908e-08
2.00876e-09
0.000228252
-4.92347e-08
6.64528e-10
-0.000142309
0.000169893
3.13743e-09
0.000222154
-4.88809e-08
-7.86449e-05
-1.57325e-08
7.86609e-05
-9.92984e-09
0.00026152
2.84939e-08
-0.000261537
8.66756e-10
0.000192302
-3.04358e-08
-7.86542e-05
0.000261552
-4.41242e-08
-1.15603e-09
7.80681e-09
0.000142313
6.3169e-10
-6.52687e-09
1.2313e-09
2.76829e-08
-0.000222133
1.83512e-08
3.03884e-09
-4.917e-08
-0.000169886
-2.20224e-10
1.33143e-09
2.88202e-08
2.2765e-10
9.84326e-09
7.86517e-05
-2.50263e-09
1.99454e-08
-0.000261535
1.58068e-08
-4.43689e-08
2.60232e-08
-0.000263874
1.80189e-07
1.04937e-08
-1.40916e-09
8.39967e-09
0.000259956
-0.000260053
-8.86469e-09
-9.96093e-08
1.57674e-07
0.000249894
-1.01866e-09
-0.000250021
-2.46814e-11
-0.000264566
-4.69728e-09
-1.11029e-07
-1.00665e-07
-0.000242267
0.000242389
0.000260671
-6.65967e-08
-0.000261017
0.000261067
-1.04907e-07
-0.000261321
2.31581e-07
2.37449e-07
0.000270574
0.000260957
0.000261367
-0.00024239
-1.08296e-07
-1.08625e-07
-0.000242275
0.000242401
0.000261065
-8.91952e-08
-0.000261366
0.000260713
-8.66262e-08
-0.000261016
2.37069e-07
2.34576e-07
0.000270602
0.000261003
0.000261356
-0.000242405
-0.000265759
1.93192e-07
1.62517e-09
1.71948e-07
0.000248909
-0.000249051
2.8826e-09
0.000266067
-4.7737e-09
-0.000266689
1.45137e-09
-1.73957e-07
-2.41504e-09
-0.000266541
-3.01352e-10
-0.000265695
-6.02089e-09
1.95694e-07
1.65996e-08
-3.28895e-09
0.000266058
-0.000266681
-1.76454e-07
3.46857e-09
1.71785e-07
0.000248826
8.57351e-10
-0.000248969
-1.60037e-08
-0.000266467
4.59203e-09
-0.000263808
1.80105e-07
1.52632e-07
0.000249803
-0.000249925
-0.000264517
1.63005e-07
-0.00119054
1.98358e-08
-0.00122081
0.00122007
1.14553e-07
-0.00122015
-1.14898e-07
2.05682e-07
0.00122069
1.88709e-07
-6.78338e-10
-0.00122069
9.39492e-08
4.13182e-08
9.91109e-08
0.00122012
-9.83771e-08
4.19323e-08
1.54681e-07
1.98149e-08
-0.00125045
2.4358e-08
2.74148e-08
5.72012e-08
-0.00125035
1.4565e-07
0.00121995
1.53283e-07
-0.00121988
0.00122057
1.34099e-07
-0.00122035
-1.96319e-07
6.54618e-08
5.35605e-08
1.37348e-07