/*--------------------------------*- C++ -*----------------------------------*\
| =========                 |                                                 |
| \\      /  F ield         | OpenFOAM: The Open Source CFD Toolbox           |
|  \\    /   O peration     | Version:  v2006                                 |
|   \\  /    A nd           | Website:  www.openfoam.com                      |
|    \\/     M anipulation  |                                                 |
\*---------------------------------------------------------------------------*/
FoamFile
{
    version     2.0;
    format      ascii;
    class       volVectorField;
    location    "750";
    object      U;
}
// * * * * * * * * * * * * * * * * * * * * * * * * * * * * * * * * * * * * * //

dimensions      [0 1 -1 0 0 0 0];


internalField   nonuniform List<vector> 
14199
(
(-4.02424e-07 -8.04476e-06 0.0983265)
(3.48224e-07 -4.56787e-06 0.110445)
(3.54838e-07 -8.04413e-06 0.0983268)
(-1.45299e-07 -4.55756e-06 0.110446)
(-4.64115e-07 -2.74681e-06 0.0909517)
(3.59266e-07 -2.75718e-06 0.0909523)
(5.09093e-07 4.40596e-06 0.0763773)
(-6.56981e-07 -3.1851e-06 0.089428)
(-4.42877e-07 -2.16469e-06 0.0781181)
(-4.24722e-07 1.06577e-05 0.0909863)
(-7.56219e-07 1.01914e-05 0.0894691)
(-1.87252e-07 4.69735e-06 0.0781484)
(-8.09384e-07 -2.59671e-06 0.076339)
(-5.5167e-07 4.5054e-06 0.0763754)
(5.60209e-07 -3.18868e-06 0.0894299)
(3.81756e-07 -2.20036e-06 0.0781195)
(3.41781e-07 1.06943e-05 0.090986)
(6.67446e-07 1.03001e-05 0.0894683)
(1.43151e-07 4.73267e-06 0.0781478)
(7.39177e-07 -2.667e-06 0.0763424)
(-5.93257e-07 3.31232e-06 0.0679532)
(6.69121e-07 -3.06411e-06 0.0853004)
(1.28186e-06 8.45675e-06 0.0853444)
(8.69591e-07 -2.68589e-06 0.0679077)
(5.57272e-06 -1.51679e-05 0.115523)
(-5.30795e-06 -1.51616e-05 0.115523)
(-5.40339e-07 -8.54623e-06 0.0973112)
(-9.66298e-08 5.08929e-05 0.103029)
(-4.26398e-07 -4.20949e-05 0.103602)
(-4.26524e-07 1.63635e-05 0.0983826)
(3.38496e-08 -4.25828e-05 0.102893)
(-3.7153e-08 4.958e-05 0.103713)
(-9.85115e-07 1.63975e-05 0.0973766)
(5.04537e-07 -8.46923e-06 0.097312)
(7.74614e-08 5.09499e-05 0.103029)
(4.16983e-07 -4.20922e-05 0.103602)
(3.42529e-07 1.6392e-05 0.0983826)
(2.2335e-08 -4.25648e-05 0.102893)
(-3.25619e-08 4.95994e-05 0.103713)
(9.15834e-07 1.65336e-05 0.0973766)
(2.66695e-07 -7.9755e-06 0.0952826)
(1.90611e-06 5.24282e-05 0.101392)
(-8.47487e-07 -4.34649e-05 0.101273)
(2.36513e-06 1.63605e-05 0.0953479)
(3.3286e-06 -1.22467e-06 0.0870615)
(2.67143e-06 -2.05873e-06 0.0710294)
(1.91554e-06 -7.79182e-06 0.0925997)
(6.03844e-07 -4.95821e-06 0.0816869)
(4.98666e-06 -6.36125e-07 0.0816871)
(3.34272e-07 -1.30356e-06 0.107866)
(7.71504e-06 -1.99698e-06 0.0925989)
(2.03184e-06 -2.71337e-06 0.0710289)
(3.56097e-05 -3.57103e-05 0.104369)
(1.13615e-06 -3.40523e-06 0.0870583)
(1.30267e-06 -1.59118e-07 0.107867)
(-5.94653e-06 1.18929e-05 0.0913068)
(5.11472e-06 -7.29061e-06 0.0959882)
(-4.1592e-06 6.12545e-06 0.0870976)
(2.02209e-06 -1.48772e-06 0.0810639)
(1.5842e-06 -4.34602e-06 0.0912756)
(-1.92352e-06 5.30161e-06 0.0810967)
(-8.03445e-06 1.57792e-05 0.0960262)
(-1.25761e-06 3.84931e-06 0.0710705)
(6.19033e-07 3.23631e-06 0.0679527)
(-1.23609e-06 8.23519e-06 0.0817294)
(-7.37336e-07 -3.06533e-06 0.0852974)
(-1.34913e-06 8.38279e-06 0.0853444)
(-9.28346e-07 -2.6048e-06 0.0679017)
(-8.17994e-06 1.1792e-06 0.0817293)
(-3.84095e-06 1.20542e-06 0.0710708)
(-4.4461e-06 4.4124e-06 0.083179)
(1.63703e-06 -1.03027e-06 0.0678908)
(9.58559e-07 -1.61701e-06 0.0678841)
(9.69643e-07 -9.81525e-07 0.0831478)
(-2.09108e-06 2.16987e-06 0.0679199)
(-2.21912e-06 1.99253e-06 0.0679252)
(-1.19038e-05 6.03329e-06 0.0913053)
(7.33581e-06 -5.12737e-06 0.0959809)
(-6.29056e-06 4.1106e-06 0.0870975)
(1.33367e-06 -1.98703e-06 0.0810566)
(-1.59344e-05 8.11115e-06 0.096028)
(4.28411e-06 -1.51981e-06 0.0912643)
(-5.37721e-06 1.86601e-06 0.0810935)
(-3.1454e-07 -8.00428e-06 0.0952814)
(-1.99052e-06 5.23886e-05 0.101392)
(2.31751e-06 -4.14638e-05 0.0993665)
(-4.62141e-06 1.26083e-05 0.0926512)
(-4.46595e-06 4.8674e-05 0.0994296)
(8.86843e-07 -4.34825e-05 0.101273)
(-2.44387e-06 1.62598e-05 0.0953474)
(4.15277e-05 -2.44719e-06 0.0993639)
(-1.27909e-05 4.51142e-06 0.0926511)
(-4.86022e-05 4.23465e-06 0.0994291)
(-1.53068e-05 1.55431e-05 0.0973559)
(3.53835e-05 -7.43437e-06 0.101403)
(-4.47734e-05 4.48415e-05 0.104506)
(7.48394e-06 -3.55246e-05 0.101396)
(-1.65605e-05 4.34175e-05 0.101472)
(6.40488e-06 -6.45812e-06 0.0973038)
(-4.35507e-05 1.67629e-05 0.101473)
(6.82218e-06 -6.76668e-06 0.1131)
(-1.06561e-05 4.0378e-07 0.0909893)
(-1.06882e-05 -3.54687e-07 0.090989)
(-1.65071e-05 -3.85528e-07 0.098381)
(4.13549e-06 1.15555e-07 0.110435)
(-8.14218e-06 1.14705e-06 0.0817352)
(-1.64943e-05 3.91307e-07 0.0983811)
(-1.30246e-05 4.50956e-06 0.0926542)
(6.84993e-08 -1.29801e-06 0.107857)
(4.1925e-06 -1.24827e-07 0.110435)
(2.6133e-06 7.90537e-07 0.0763462)
(-4.70913e-06 1.8886e-07 0.0781543)
(-1.02454e-05 7.44272e-07 0.0894724)
(2.71052e-06 4.34207e-07 0.0909541)
(2.12374e-06 4.43657e-07 0.0781234)
(3.17836e-06 6.28705e-07 0.0894322)
(-4.49435e-06 -5.2669e-07 0.0763818)
(2.65718e-06 -8.54554e-07 0.0679113)
(-8.43215e-06 -1.27169e-06 0.0853484)
(3.07646e-06 -6.57125e-07 0.0853044)
(-3.32314e-06 6.14526e-07 0.0679568)
(2.63486e-06 -7.21898e-07 0.0763481)
(-1.02908e-05 -6.73658e-07 0.0894719)
(-4.7436e-06 -1.25226e-07 0.0781537)
(2.7143e-06 -3.68852e-07 0.0909544)
(3.17869e-06 -5.62871e-07 0.089433)
(2.15368e-06 -3.75181e-07 0.0781244)
(-4.53317e-06 5.81651e-07 0.0763814)
(2.67156e-06 8.68413e-07 0.0679126)
(-8.39952e-06 1.30463e-06 0.0853493)
(4.99255e-06 -6.68043e-07 0.0816929)
(3.09907e-06 6.77004e-07 0.0853043)
(-3.32648e-06 -5.98591e-07 0.067959)
(2.02932e-06 -2.69057e-06 0.0710351)
(4.18007e-06 -1.31811e-06 0.0912672)
(9.87336e-07 -3.35866e-06 0.0870632)
(7.04196e-06 -4.94171e-06 0.0959817)
(1.24397e-06 -1.93949e-06 0.0810621)
(9.27018e-07 -9.60833e-07 0.0831527)
(9.01762e-07 -1.62951e-06 0.0678894)
(1.64407e-06 -1.05755e-06 0.0678957)
(1.68748e-06 -4.34354e-06 0.0912793)
(2.07362e-06 -1.48584e-06 0.0810692)
(4.32377e-05 8.26789e-07 0.10127)
(-1.64097e-05 -2.40663e-06 0.0953485)
(7.8692e-06 -3.14912e-07 0.0952831)
(-5.24331e-05 -1.99379e-06 0.101389)
(4.22184e-05 -6.92814e-08 0.102888)
(-1.65741e-05 -9.622e-07 0.097376)
(-4.97e-05 -9.5465e-08 0.103707)
(7.87436e-06 -3.93007e-07 0.0983249)
(8.38737e-06 -5.52691e-07 0.097311)
(4.1704e-05 -5.21125e-07 0.103596)
(-5.10219e-05 -1.67625e-07 0.103025)
(4.22391e-05 -2.35133e-08 0.102888)
(-1.66236e-05 9.89686e-07 0.0973762)
(-4.96572e-05 -6.59378e-08 0.103707)
(7.87135e-06 3.66559e-07 0.0983249)
(4.17321e-05 3.47131e-07 0.103596)
(8.31285e-06 5.47139e-07 0.0973108)
(-5.0984e-05 7.75462e-08 0.103024)
(4.32709e-05 -9.69605e-07 0.101269)
(-1.64229e-05 2.4507e-06 0.0953486)
(-4.87378e-05 4.29009e-06 0.0994285)
(7.47376e-06 -1.99957e-06 0.0926019)
(7.86522e-06 3.20559e-07 0.0952828)
(4.12599e-05 -2.43078e-06 0.0993628)
(-5.23557e-05 1.80847e-06 0.101388)
(6.52835e-06 -6.15428e-06 0.0973039)
(7.45205e-06 -3.5333e-05 0.101393)
(4.79809e-05 4.77106e-05 0.104721)
(1.01016e-05 1.67764e-05 0.108266)
(2.34407e-06 3.44774e-06 0.0708701)
(3.53995e-06 4.65887e-06 0.0869818)
(-1.80975e-06 -7.56385e-06 0.0816084)
(-1.84489e-06 -7.44208e-06 0.0852569)
(-5.84074e-07 -3.91748e-06 0.0709122)
(-3.23413e-06 -4.18556e-06 0.0870193)
(-3.87637e-06 -1.21143e-05 0.0961036)
(1.26717e-05 1.01006e-05 0.0960635)
(3.30645e-06 2.27235e-06 0.0809506)
(7.20976e-06 3.83358e-06 0.0912571)
(4.53817e-05 1.40395e-05 0.101619)
(1.42104e-05 4.53129e-05 0.101625)
(1.12603e-05 1.07221e-05 0.0974061)
(1.46621e-06 -4.83692e-05 0.101648)
(-4.10119e-06 -7.47693e-06 0.092661)
(-1.83733e-06 -1.14725e-05 0.0954358)
(-4.75145e-07 -4.45942e-05 0.0995943)
(8.77822e-06 8.82211e-06 0.11768)
(8.7103e-06 -8.70626e-06 0.117679)
(-8.72928e-06 8.78875e-06 0.11768)
(-8.78387e-06 -8.7168e-06 0.117679)
(1.01144e-05 -1.67679e-05 0.108268)
(1.67764e-05 1.01106e-05 0.108269)
(1.68225e-05 -1.01656e-05 0.108265)
(4.78696e-05 -4.79006e-05 0.10472)
(-8.70182e-06 -5.63709e-07 0.0910044)
(6.48542e-06 9.29467e-08 0.0815671)
(5.85472e-06 -5.76087e-07 0.0909743)
(2.30434e-06 -3.47254e-06 0.0708695)
(6.55271e-06 -5.40532e-05 0.0995253)
(-1.00746e-05 -3.26972e-07 0.0985698)
(5.3977e-05 6.57662e-06 0.0995264)
(2.50931e-05 3.49361e-06 0.11083)
(5.88069e-05 2.33103e-06 0.103172)
(-8.67314e-06 5.76156e-07 0.0910047)
(6.41528e-06 -7.28991e-08 0.0815664)
(5.8226e-06 6.09569e-07 0.0909739)
(-1.00723e-05 3.33303e-07 0.0985697)
(2.50882e-05 -3.55487e-06 0.110829)
(5.77501e-05 -4.21167e-06 0.101515)
(5.88212e-05 -2.36896e-06 0.103172)
(3.57438e-06 -4.71131e-06 0.0869796)
(4.70506e-06 -3.5986e-06 0.0869816)
(3.48744e-06 -2.33863e-06 0.0708701)
(9.10626e-08 -6.40796e-06 0.0815664)
(4.033e-06 -1.20334e-06 0.0762191)
(-8.34919e-06 -8.60377e-07 0.089447)
(-3.82137e-06 -4.47189e-07 0.0780369)
(5.73707e-06 -5.65602e-07 0.09097)
(6.0609e-06 -7.18757e-07 0.0894074)
(3.43813e-06 -6.96921e-07 0.0780086)
(-3.46738e-06 1.35486e-07 0.0762525)
(-3.02685e-06 2.34527e-07 0.0678058)
(-7.48363e-06 -1.79388e-06 0.0816093)
(4.78131e-06 -1.14721e-06 0.0852118)
(-7.43327e-06 -1.81802e-06 0.085257)
(3.27625e-06 -1.28308e-06 0.0677591)
(-3.42809e-06 1.25652e-07 0.0762515)
(-8.6045e-06 -5.72496e-07 0.0910088)
(6.1887e-06 -7.26872e-07 0.0894103)
(3.47387e-06 -7.06412e-07 0.078008)
(-8.25639e-06 -8.67351e-07 0.08945)
(-3.78322e-06 -4.51674e-07 0.0780365)
(4.08589e-06 -1.21989e-06 0.0762181)
(-3.87869e-06 5.76233e-07 0.0709123)
(3.99016e-06 1.23257e-06 0.0762169)
(-3.77834e-06 4.68135e-07 0.0780376)
(-8.30641e-06 8.66388e-07 0.0894477)
(5.70571e-06 6.03209e-07 0.0909696)
(3.38737e-06 7.26056e-07 0.0780073)
(6.0422e-06 7.39117e-07 0.0894065)
(-3.41214e-06 -1.36152e-07 0.0762531)
(-3.02004e-06 -2.19552e-07 0.0678078)
(-7.50519e-06 1.82246e-06 0.0816093)
(4.77397e-06 1.17971e-06 0.0852116)
(-7.43506e-06 1.8586e-06 0.0852578)
(3.28715e-06 1.31281e-06 0.0677602)
(-3.37599e-06 -1.18282e-07 0.076252)
(-8.5779e-06 5.85711e-07 0.0910093)
(3.42401e-06 7.39433e-07 0.0780067)
(6.15949e-06 7.49512e-07 0.0894094)
(-3.73877e-06 4.79829e-07 0.0780372)
(-8.2235e-06 8.78329e-07 0.0894507)
(4.03637e-06 1.25508e-06 0.0762159)
(-1.02458e-05 4.00593e-06 0.0912872)
(1.28119e-05 -1.0254e-05 0.0960568)
(-4.17351e-06 3.23525e-06 0.0870178)
(3.28865e-06 -2.28893e-06 0.0809489)
(-3.86396e-06 1.82782e-06 0.0809834)
(-1.21424e-05 3.81792e-06 0.0961012)
(7.23384e-06 -4.01892e-06 0.091251)
(-4.01885e-06 1.02219e-05 0.0912948)
(1.01958e-05 -1.27982e-05 0.0960597)
(-3.27562e-06 4.19591e-06 0.0870199)
(2.252e-06 -3.28081e-06 0.0809537)
(-3.86659e-06 1.21468e-05 0.096105)
(-1.83274e-06 3.84933e-06 0.0809895)
(3.97956e-06 -7.23718e-06 0.0912576)
(-3.36904e-06 3.33267e-06 0.083094)
(1.35356e-06 -1.93346e-06 0.0677703)
(1.9095e-06 -1.37102e-06 0.0677764)
(-1.81983e-06 2.1099e-06 0.067806)
(-2.13475e-06 1.80101e-06 0.0678123)
(2.36982e-06 -2.39276e-06 0.0830632)
(-6.09082e-07 3.92094e-06 0.0709119)
(2.70804e-07 2.94582e-06 0.0678077)
(-1.82751e-06 7.53578e-06 0.0816091)
(-1.18287e-06 -4.72953e-06 0.08521)
(-1.83164e-06 7.40367e-06 0.0852584)
(-1.34021e-06 -3.20101e-06 0.0677554)
(4.52781e-05 -1.41476e-05 0.101622)
(1.41328e-05 -4.53063e-05 0.101619)
(1.10193e-05 -1.10516e-05 0.0974061)
(-1.26431e-05 1.2631e-05 0.0974624)
(-4.3116e-05 4.31242e-05 0.104879)
(-4.23636e-05 1.19011e-05 0.101705)
(-1.18887e-05 4.23205e-05 0.101701)
(4.19081e-06 -5.77258e-05 0.101516)
(2.90284e-06 -1.40962e-05 0.0926076)
(5.02084e-07 -1.43265e-05 0.0953659)
(1.42833e-06 4.83894e-05 0.101649)
(-4.11345e-06 7.5023e-06 0.0926621)
(-5.00584e-07 4.46138e-05 0.099596)
(-1.85999e-06 1.14943e-05 0.0954368)
(5.82198e-05 2.18908e-06 0.10316)
(-1.0349e-05 -4.58135e-07 0.0975201)
(-4.41928e-05 7.19696e-07 0.104031)
(1.61533e-05 -3.03444e-07 0.0985098)
(1.63235e-05 7.88746e-08 0.0974502)
(5.8549e-05 1.9754e-07 0.103906)
(-4.59156e-05 2.23367e-06 0.103314)
(5.77154e-05 4.27789e-06 0.101516)
(1.39745e-05 2.90271e-06 0.0926081)
(1.43279e-05 4.75969e-07 0.0953664)
(-4.83947e-05 1.38487e-06 0.10165)
(-7.42988e-06 -4.09427e-06 0.092662)
(-1.14812e-05 -1.86259e-06 0.0954365)
(-4.46205e-05 -4.65087e-07 0.099596)
(1.64266e-05 -3.07835e-07 0.09852)
(1.65664e-05 8.55892e-08 0.0974589)
(5.91794e-05 2.51825e-07 0.103919)
(-4.57198e-05 2.35895e-06 0.103327)
(-9.85805e-06 -3.32344e-07 0.0985801)
(-1.01481e-05 -4.5112e-07 0.097529)
(-4.39748e-05 7.62927e-07 0.104045)
(5.82229e-05 -2.2985e-06 0.10316)
(-4.41818e-05 -7.53042e-07 0.104031)
(-1.03385e-05 4.50692e-07 0.0975202)
(1.61386e-05 3.02576e-07 0.0985099)
(5.85559e-05 -2.27903e-07 0.103906)
(1.63264e-05 -8.3034e-08 0.0974502)
(-4.59168e-05 -2.35335e-06 0.103313)
(5.40938e-05 -6.53807e-06 0.0995232)
(1.41203e-05 -2.90169e-06 0.0926065)
(1.43246e-05 -5.13442e-07 0.0953659)
(-4.83854e-05 -1.46349e-06 0.101648)
(-7.45805e-06 4.09854e-06 0.0926614)
(-1.1526e-05 1.85106e-06 0.0954365)
(-4.45964e-05 5.00525e-07 0.0995939)
(1.6424e-05 2.99327e-07 0.09852)
(5.91891e-05 -2.2839e-07 0.103919)
(1.6607e-05 -1.0339e-07 0.0974588)
(-4.57117e-05 -2.43805e-06 0.103326)
(-9.84831e-06 3.27855e-07 0.0985801)
(-4.39645e-05 -7.57086e-07 0.104045)
(-1.01114e-05 4.31828e-07 0.097529)
(5.05148e-06 6.59321e-07 0.0816878)
(7.7318e-06 1.97201e-06 0.0926005)
(4.61689e-06 -1.93455e-07 0.110446)
(-8.48738e-07 1.59309e-06 0.107888)
(-3.6315e-05 -3.59123e-05 0.104383)
(2.04527e-06 2.64988e-06 0.0710293)
(1.21081e-06 3.29886e-06 0.0870608)
(-1.51386e-06 9.07684e-07 0.107885)
(1.25133e-06 2.66271e-07 0.107866)
(-3.61424e-05 3.61794e-05 0.104384)
(-1.09622e-06 -1.7057e-06 0.107885)
(-1.47812e-06 -8.52791e-07 0.107887)
(2.7843e-06 -3.92261e-07 0.0909517)
(4.59385e-06 1.2179e-07 0.110446)
(2.69634e-07 1.31614e-06 0.107868)
(8.04985e-06 -4.24025e-07 0.0983266)
(2.77379e-06 4.20672e-07 0.0909515)
(8.03825e-06 3.3366e-07 0.0983265)
(-4.12888e-06 6.14467e-06 0.0870931)
(-2.72891e-06 1.96749e-06 0.0710152)
(1.13794e-06 -3.81732e-06 0.0710659)
(1.51612e-05 5.54903e-06 0.115524)
(1.51558e-05 -5.37625e-06 0.115523)
(-7.57083e-06 7.56959e-06 0.113113)
(-7.78861e-06 -7.71637e-06 0.113112)
(1.62544e-05 -3.55176e-07 0.0983844)
(-7.99459e-06 2.04699e-06 0.0925952)
(-5.55781e-06 2.61298e-07 0.110468)
(-4.63649e-07 1.44159e-06 0.107878)
(1.26511e-05 -4.54406e-06 0.0926486)
(-5.07537e-06 2.70237e-07 0.110457)
(-8.4118e-06 -3.42826e-07 0.0983307)
(-4.56678e-06 1.25646e-05 0.0926487)
(-3.76374e-07 1.62081e-05 0.0983846)
(-3.40102e-07 -8.40118e-06 0.0983304)
(-1.14318e-06 -3.50151e-06 0.087051)
(-3.40936e-06 -1.41178e-06 0.0870507)
(4.48278e-05 4.48128e-05 0.104514)
(6.22635e-06 4.09301e-06 0.0870938)
(4.11792e-06 6.24075e-06 0.0870922)
(2.7696e-06 2.04995e-06 0.0710299)
(3.56483e-05 3.56477e-05 0.104369)
(3.46696e-06 1.10921e-06 0.0870591)
(-6.12859e-07 4.98219e-06 0.0816752)
(1.17321e-06 -8.18251e-06 0.0817238)
(-2.00764e-06 7.98082e-06 0.0925939)
(-1.34465e-06 5.84018e-07 0.107875)
(4.48312e-06 -1.26e-05 0.0926485)
(-4.51523e-07 2.74251e-06 0.0909515)
(6.30963e-07 4.90674e-06 0.0816869)
(3.77624e-07 2.73513e-06 0.0909517)
(-4.47408e-07 8.04632e-06 0.098326)
(1.93745e-06 7.72305e-06 0.0925983)
(2.27928e-07 4.65369e-06 0.110446)
(3.19228e-07 8.02953e-06 0.0983263)
(-1.21994e-07 4.59823e-06 0.110446)
(-3.43092e-06 1.20494e-06 0.0870492)
(-1.25532e-06 3.46006e-06 0.0870523)
(4.48425e-05 -4.47334e-05 0.104515)
(4.03648e-06 -6.16781e-06 0.0870936)
(6.20907e-06 -4.13478e-06 0.0870931)
(-2.06359e-06 2.76291e-06 0.0710176)
(3.86155e-06 -1.24528e-06 0.0710639)
(1.06498e-05 -3.91531e-07 0.0909833)
(-5.02834e-06 6.36032e-07 0.0816762)
(8.2055e-06 -1.22746e-06 0.0817235)
(-2.88746e-06 -3.88772e-07 0.0909475)
(1.62492e-05 4.29192e-07 0.0983843)
(-5.60205e-06 -3.30642e-07 0.110467)
(-7.92386e-06 -2.00246e-06 0.0925943)
(-6.22261e-07 -1.47478e-06 0.107875)
(-5.10121e-06 -1.96095e-07 0.110456)
(1.26757e-05 4.50798e-06 0.0926486)
(-8.42847e-06 4.19688e-07 0.0983307)
(1.06444e-05 3.95424e-07 0.0909831)
(-5.01089e-06 -6.23117e-07 0.0816764)
(8.19785e-06 1.16538e-06 0.0817234)
(-2.90111e-06 4.62693e-07 0.0909476)
(3.98869e-07 1.62092e-05 0.0983846)
(-3.04822e-07 -5.51668e-06 0.110467)
(-1.96275e-06 -8.15504e-06 0.092595)
(-1.31696e-06 -5.08425e-07 0.107877)
(-1.9935e-07 -5.06057e-06 0.110456)
(4.55997e-06 1.26573e-05 0.0926489)
(4.1222e-07 -8.43277e-06 0.0983307)
(-2.04698e-06 -2.80657e-06 0.0710174)
(3.85654e-06 1.18384e-06 0.0710644)
(-2.71204e-06 -2.07221e-06 0.071018)
(1.22915e-06 3.90543e-06 0.0710644)
(-3.30828e-06 6.04862e-07 0.0679512)
(-8.14321e-06 -1.15904e-06 0.0817296)
(3.12654e-06 -6.8567e-07 0.0852991)
(2.64569e-06 -8.79936e-07 0.067905)
(-8.3766e-06 -1.29265e-06 0.0853435)
(-3.8198e-06 -1.24885e-06 0.0710713)
(-1.19098e-05 -6.0857e-06 0.0913056)
(7.262e-06 4.96467e-06 0.0959879)
(-6.19878e-06 -4.1666e-06 0.0870992)
(1.50447e-06 1.9592e-06 0.0810602)
(-1.58628e-05 -8.14669e-06 0.0960312)
(4.28084e-06 1.43528e-06 0.0912749)
(-5.24715e-06 -1.90536e-06 0.0810953)
(-4.50055e-06 5.57443e-07 0.0763758)
(3.25306e-06 -5.99815e-07 0.0894293)
(-1.06277e-05 -3.7539e-07 0.0909864)
(2.18505e-06 -3.89384e-07 0.0781188)
(2.65597e-06 -7.48714e-07 0.0763421)
(-1.02169e-05 -7.05666e-07 0.0894684)
(-4.70886e-06 -1.39049e-07 0.0781482)
(-4.45892e-06 -5.10213e-07 0.0763758)
(-1.06092e-05 3.99602e-07 0.0909867)
(2.16518e-06 4.45062e-07 0.0781178)
(3.23913e-06 6.22051e-07 0.0894288)
(2.66538e-06 8.04334e-07 0.0763405)
(-4.67632e-06 1.90645e-07 0.0781487)
(-1.0206e-05 7.51757e-07 0.0894687)
(-3.30864e-06 -5.87089e-07 0.067953)
(3.12789e-06 6.93803e-07 0.0852991)
(2.69246e-06 8.7963e-07 0.0679066)
(-8.38267e-06 1.32582e-06 0.0853441)
(1.56841e-06 -4.35503e-06 0.0912719)
(3.37993e-06 -1.20587e-06 0.0870567)
(-7.98684e-06 1.58363e-05 0.0960263)
(-1.93254e-06 5.26947e-06 0.0810919)
(-5.95445e-06 1.18789e-05 0.0913048)
(5.21174e-06 -7.31187e-06 0.0959869)
(2.00498e-06 -1.47827e-06 0.0810584)
(9.8111e-07 -1.00508e-06 0.083143)
(-2.22439e-06 2.00932e-06 0.0679206)
(-2.0572e-06 2.17601e-06 0.067915)
(9.73541e-07 -1.63341e-06 0.0678792)
(-4.39337e-06 4.40872e-06 0.0831746)
(1.62036e-06 -1.0072e-06 0.0678857)
(1.11451e-06 -3.82173e-06 0.0710598)
(-2.70282e-06 1.96334e-06 0.0710214)
(-9.54623e-07 -1.02503e-06 0.0831425)
(2.07881e-06 2.16981e-06 0.0679207)
(2.20999e-06 2.0227e-06 0.067915)
(-9.12721e-07 -1.59323e-06 0.0678834)
(-1.61801e-06 -1.04508e-06 0.0678793)
(4.4503e-06 4.36775e-06 0.0831753)
(1.19164e-05 6.02152e-06 0.0913041)
(-7.40237e-06 -5.27596e-06 0.0959843)
(6.27289e-06 4.03576e-06 0.0870891)
(-1.42511e-06 -2.07079e-06 0.0810512)
(1.58855e-05 7.96201e-06 0.096028)
(5.30152e-06 1.84906e-06 0.0810878)
(-4.28134e-06 -1.53806e-06 0.0912666)
(5.76815e-06 1.18726e-05 0.0912976)
(-5.2958e-06 -7.7791e-06 0.0959825)
(4.10841e-06 6.04171e-06 0.0870877)
(-2.01482e-06 -1.60589e-06 0.0810477)
(7.88034e-06 1.55071e-05 0.0960246)
(1.84452e-06 5.18889e-06 0.0810828)
(-1.75153e-06 -4.28853e-06 0.0912613)
(-4.26217e-06 -1.49789e-06 0.0912698)
(5.29099e-06 1.87162e-06 0.081093)
(-1.15766e-06 -3.43013e-06 0.0870558)
(1.58788e-05 8.02674e-06 0.0960286)
(-7.31732e-06 -5.13315e-06 0.0959855)
(-1.42215e-06 -1.99838e-06 0.0810564)
(1.19075e-05 5.97055e-06 0.0913072)
(-1.63501e-06 -4.32501e-06 0.0912637)
(1.85581e-06 5.32333e-06 0.0810879)
(-3.40735e-06 -1.24714e-06 0.087055)
(8.00902e-06 1.57651e-05 0.0960251)
(-5.21275e-06 -7.52692e-06 0.0959824)
(-2.05288e-06 -1.48915e-06 0.0810526)
(5.9339e-06 1.1856e-05 0.0913005)
(4.33663e-06 4.37399e-06 0.0831706)
(-9.66597e-07 -1.5822e-06 0.0678784)
(-1.6096e-06 -1.0082e-06 0.0678747)
(2.04987e-06 2.20108e-06 0.0679157)
(2.20261e-06 1.99399e-06 0.0679102)
(-1.09701e-06 -9.88881e-07 0.083138)
(-1.17189e-06 -3.83177e-06 0.0710704)
(-4.5982e-06 -4.30972e-06 0.0831743)
(9.21248e-07 1.7356e-06 0.0678873)
(1.57588e-06 1.09829e-06 0.0678893)
(8.45581e-07 1.23319e-06 0.0831517)
(-2.26331e-06 -2.02503e-06 0.0679226)
(-2.14246e-06 -2.09191e-06 0.067921)
(-5.92312e-06 -1.17769e-05 0.0913036)
(5.13779e-06 7.36328e-06 0.0959797)
(2.06261e-06 1.28861e-06 0.0810608)
(-4.05662e-06 -6.25771e-06 0.0870973)
(1.58005e-06 4.39788e-06 0.0912687)
(-1.79788e-06 -5.3916e-06 0.0810958)
(-8.06628e-06 -1.58184e-05 0.0960275)
(-5.74093e-07 -3.29514e-06 0.0679409)
(1.17894e-06 -8.17584e-06 0.0817182)
(7.01716e-07 3.1577e-06 0.0852897)
(1.31191e-06 -8.38221e-06 0.0853339)
(8.8998e-07 2.71123e-06 0.0678953)
(8.88962e-07 2.70036e-06 0.0679012)
(1.3098e-06 -8.3995e-06 0.0853388)
(-6.1828e-07 4.95623e-06 0.0816809)
(6.96493e-07 3.12396e-06 0.0852946)
(-5.71412e-07 -3.29932e-06 0.0679468)
(5.50039e-07 -4.4389e-06 0.0763758)
(-4.21914e-07 2.20021e-06 0.078119)
(-6.15144e-07 3.21338e-06 0.0894286)
(-4.15173e-07 -1.06653e-05 0.0909861)
(-7.56717e-07 2.70242e-06 0.0763417)
(-1.67943e-07 -4.69849e-06 0.0781483)
(-7.08123e-07 -1.02297e-05 0.089468)
(6.3709e-07 -3.27248e-06 0.0679514)
(-6.99404e-07 3.06912e-06 0.085298)
(-1.17814e-06 -8.25215e-06 0.0817283)
(-8.6623e-07 2.65735e-06 0.067904)
(-1.27592e-06 -8.40489e-06 0.0853432)
(-5.0593e-07 -4.48118e-06 0.0763752)
(4.34513e-07 2.19584e-06 0.0781192)
(5.75366e-07 3.20742e-06 0.0894295)
(3.78197e-07 -1.06787e-05 0.0909862)
(7.83188e-07 2.69174e-06 0.0763421)
(1.93898e-07 -4.70345e-06 0.0781484)
(7.07646e-07 -1.02673e-05 0.0894681)
(-5.631e-07 -3.3054e-06 0.0679527)
(7.00998e-07 3.09171e-06 0.0852997)
(8.92155e-07 2.68839e-06 0.0679072)
(1.31766e-06 -8.41698e-06 0.0853438)
(-1.01084e-06 9.54595e-07 0.0831435)
(2.15526e-06 -2.06601e-06 0.0679152)
(2.02876e-06 -2.22124e-06 0.0679209)
(-1.65246e-06 9.54997e-07 0.0678795)
(-9.98856e-07 1.61447e-06 0.0678859)
(4.39432e-06 -4.45731e-06 0.0831746)
(5.89317e-06 -1.18357e-05 0.0912976)
(-5.31525e-06 7.49779e-06 0.0959819)
(4.01774e-06 -6.11696e-06 0.087089)
(-2.01841e-06 1.41035e-06 0.0810466)
(1.83195e-06 -5.27507e-06 0.0810834)
(7.88056e-06 -1.5737e-05 0.0960253)
(-1.65811e-06 4.3751e-06 0.0912606)
(1.18674e-05 -5.91736e-06 0.0913036)
(-7.49161e-06 5.33661e-06 0.0959856)
(6.17004e-06 -4.08124e-06 0.0870885)
(-1.49378e-06 2.03306e-06 0.0810532)
(1.57813e-05 -7.88473e-06 0.0960275)
(5.30441e-06 -1.90827e-06 0.0810871)
(-4.39919e-06 1.64853e-06 0.0912683)
(-1.62411e-06 4.31755e-06 0.0912634)
(1.8341e-06 -5.31125e-06 0.0810885)
(-3.40013e-06 1.14966e-06 0.0870537)
(7.94727e-06 -1.58106e-05 0.0960259)
(-2.01442e-06 1.36735e-06 0.0810517)
(-5.22717e-06 7.39365e-06 0.0959825)
(5.91647e-06 -1.18706e-05 0.0913005)
(-4.36573e-06 1.57844e-06 0.0912712)
(5.32318e-06 -1.93581e-06 0.0810922)
(-1.20785e-06 3.40295e-06 0.0870569)
(1.58388e-05 -8.0031e-06 0.096028)
(-7.39348e-06 5.21485e-06 0.0959861)
(-1.46949e-06 2.00268e-06 0.0810583)
(1.18658e-05 -5.98779e-06 0.0913064)
(4.3916e-06 -4.4201e-06 0.0831701)
(-1.65254e-06 9.68375e-07 0.0678747)
(-1.00108e-06 1.63028e-06 0.067881)
(2.15811e-06 -2.05709e-06 0.0679104)
(2.02598e-06 -2.21369e-06 0.0679161)
(-1.02236e-06 9.98457e-07 0.083139)
(3.87109e-06 -1.20134e-06 0.0710578)
(-2.06666e-06 2.71658e-06 0.0710238)
(-2.65931e-06 -7.92432e-07 0.0763349)
(1.01999e-05 -7.15315e-07 0.0894655)
(4.71046e-06 -2.01462e-07 0.0781423)
(-2.81917e-06 -4.12281e-07 0.0909499)
(-3.23721e-06 -6.08637e-07 0.0894252)
(-2.22692e-06 -4.39763e-07 0.078114)
(4.42248e-06 4.96857e-07 0.076371)
(3.22217e-06 5.92591e-07 0.0679409)
(8.19744e-06 -1.21635e-06 0.0817178)
(-3.12557e-06 -7.21982e-07 0.0852878)
(8.34267e-06 -1.32526e-06 0.0853346)
(-2.63348e-06 -9.46127e-07 0.0678906)
(-2.622e-06 -9.55283e-07 0.0678965)
(8.36301e-06 -1.33784e-06 0.0853395)
(-5.00418e-06 6.26126e-07 0.0816819)
(-3.08992e-06 -7.30827e-07 0.0852928)
(3.22725e-06 5.80599e-07 0.0679468)
(4.39251e-06 5.09084e-07 0.0763653)
(1.0596e-05 -3.60992e-07 0.090981)
(-3.30063e-06 -5.88907e-07 0.0894219)
(-2.26482e-06 -4.28322e-07 0.0781086)
(1.01544e-05 -6.87164e-07 0.0894622)
(4.67942e-06 -1.92566e-07 0.0781369)
(-2.69565e-06 -7.82848e-07 0.0763292)
(-2.71797e-06 7.46155e-07 0.0763364)
(4.71883e-06 1.65767e-07 0.0781422)
(1.02132e-05 6.9479e-07 0.0894645)
(-2.83433e-06 4.28554e-07 0.09095)
(-2.22947e-06 4.12209e-07 0.0781143)
(-3.29394e-06 5.94037e-07 0.0894261)
(4.46517e-06 -5.51092e-07 0.0763693)
(3.30693e-06 -6.25851e-07 0.0679411)
(8.2089e-06 1.18107e-06 0.0817177)
(-3.1655e-06 7.10267e-07 0.0852899)
(8.37956e-06 1.30332e-06 0.085334)
(-2.70749e-06 8.57221e-07 0.0678957)
(-2.68394e-06 8.29518e-07 0.0679015)
(8.40554e-06 1.27117e-06 0.0853389)
(-5.0248e-06 -6.58683e-07 0.081682)
(-3.12738e-06 6.59479e-07 0.0852949)
(3.31488e-06 -6.37088e-07 0.067947)
(4.42738e-06 -5.27309e-07 0.0763637)
(1.05898e-05 4.34138e-07 0.0909808)
(-2.26917e-06 4.37425e-07 0.0781089)
(-3.36277e-06 6.41999e-07 0.0894227)
(4.68614e-06 1.86362e-07 0.0781368)
(1.01551e-05 7.37105e-07 0.0894612)
(-2.76397e-06 7.83184e-07 0.0763308)
(3.89391e-06 1.14587e-06 0.0710582)
(-2.08003e-06 -2.77748e-06 0.0710236)
(1.23929e-06 3.87975e-06 0.0710583)
(-2.71037e-06 -2.0344e-06 0.0710241)
(-1.23192e-06 3.85676e-06 0.0710642)
(-4.10186e-07 -2.87298e-06 0.0909468)
(-1.23365e-06 8.20364e-06 0.0817236)
(-3.98056e-07 1.06061e-05 0.0909839)
(4.2635e-07 -2.90708e-06 0.0909475)
(-6.14409e-07 -5.01993e-06 0.0816771)
(3.8033e-07 1.0635e-05 0.0909835)
(1.18568e-06 8.30044e-06 0.0817239)
(2.70827e-06 -2.05267e-06 0.0710232)
(5.07202e-07 4.34476e-06 0.076366)
(-4.30516e-07 -2.22171e-06 0.0781071)
(-6.04826e-07 -3.29635e-06 0.0894212)
(-3.69656e-07 1.05621e-05 0.0909816)
(-8.05914e-07 -2.65942e-06 0.0763276)
(-1.8535e-07 4.64557e-06 0.0781376)
(-7.05314e-07 1.01083e-05 0.0894625)
(-9.32048e-07 -2.61825e-06 0.0678958)
(6.12212e-07 -4.99269e-06 0.0816812)
(-1.34018e-06 8.35606e-06 0.0853393)
(-7.26557e-07 -3.102e-06 0.0852924)
(6.12796e-07 3.22922e-06 0.0679468)
(-8.12621e-07 -2.63108e-06 0.0763333)
(-4.30779e-07 -2.81207e-06 0.0909491)
(-7.33809e-07 1.01435e-05 0.0894657)
(-1.92525e-07 4.66894e-06 0.0781429)
(-4.39818e-07 -2.19622e-06 0.0781125)
(-6.28031e-07 -3.2444e-06 0.0894245)
(5.01422e-07 4.37252e-06 0.0763716)
(-5.21802e-07 4.45868e-06 0.076364)
(4.1793e-07 -2.26317e-06 0.0781086)
(6.36343e-07 -3.34874e-06 0.0894231)
(4.17347e-07 1.05798e-05 0.0909813)
(7.83078e-07 -2.72267e-06 0.076331)
(1.69274e-07 4.68313e-06 0.0781369)
(7.47643e-07 1.01772e-05 0.0894616)
(-5.76172e-07 3.298e-06 0.0679414)
(7.28405e-07 -3.17212e-06 0.0852904)
(1.21351e-06 8.26042e-06 0.0817183)
(8.96643e-07 -2.70397e-06 0.0678959)
(1.34377e-06 8.38876e-06 0.0853345)
(7.57672e-07 -2.69777e-06 0.0763366)
(4.0053e-07 -2.83748e-06 0.0909498)
(7.0385e-07 1.02377e-05 0.0894649)
(1.50852e-07 4.70562e-06 0.0781423)
(3.97112e-07 -2.23482e-06 0.078114)
(6.05677e-07 -3.27065e-06 0.0894264)
(-5.44396e-07 4.47835e-06 0.0763696)
(8.82776e-07 -2.70292e-06 0.0679017)
(-6.26904e-07 -4.93381e-06 0.0816827)
(1.30986e-06 8.42733e-06 0.0853394)
(7.06446e-07 -3.11508e-06 0.0852954)
(-5.90414e-07 3.30081e-06 0.0679472)
(-5.2318e-05 -1.92862e-06 0.101393)
(4.14984e-05 2.27519e-06 0.0993673)
(-1.27207e-05 -4.52788e-06 0.0926522)
(8.01857e-06 -3.40971e-07 0.0952821)
(4.3563e-05 8.79633e-07 0.101274)
(-1.62873e-05 -2.43961e-06 0.0953477)
(-4.8655e-05 -4.42295e-06 0.0994318)
(1.50727e-05 1.55705e-05 0.097357)
(-7.83731e-06 -3.59866e-05 0.101408)
(-3.59775e-05 -7.56604e-06 0.101406)
(4.46706e-05 4.49896e-05 0.104522)
(1.63877e-05 4.34338e-05 0.101482)
(4.34379e-05 1.66448e-05 0.101479)
(-6.89166e-06 -6.37203e-06 0.0973045)
(1.53971e-05 -1.53535e-05 0.0973571)
(-3.58268e-05 7.67272e-06 0.101406)
(-7.67116e-06 3.5879e-05 0.101409)
(4.48511e-05 -4.47471e-05 0.104523)
(1.65799e-05 -4.3486e-05 0.101482)
(4.35511e-05 -1.65093e-05 0.101479)
(-6.57696e-06 6.56682e-06 0.0973047)
(-5.09477e-05 -1.26267e-07 0.10303)
(8.54154e-06 -5.81596e-07 0.0973116)
(4.2045e-05 -4.84293e-07 0.103602)
(-1.63541e-05 -4.23744e-07 0.0983828)
(4.25408e-05 -2.61462e-08 0.102893)
(-1.64353e-05 -1.0051e-06 0.0973767)
(-4.96218e-05 -7.03189e-08 0.103713)
(-5.09085e-05 3.319e-08 0.103029)
(4.2062e-05 3.53028e-07 0.103602)
(-1.63459e-05 3.57951e-07 0.0983829)
(8.49923e-06 5.01858e-07 0.0973114)
(4.25617e-05 -4.6311e-08 0.102892)
(-4.95868e-05 -7.09621e-08 0.103713)
(-1.646e-05 9.53821e-07 0.0973767)
(-5.22913e-05 1.79304e-06 0.101391)
(8.03128e-06 2.78159e-07 0.0952817)
(4.35349e-05 -9.70468e-07 0.101272)
(-1.62786e-05 2.4063e-06 0.0953475)
(6.72901e-06 6.82485e-06 0.113101)
(5.56998e-06 1.5282e-05 0.115523)
(-5.81398e-06 1.61876e-05 0.115514)
(-1.63121e-05 5.71316e-06 0.115515)
(-7.0648e-06 7.18204e-06 0.113107)
(-5.62135e-06 1.56912e-05 0.115518)
(-1.57558e-05 5.61948e-06 0.115519)
(-8.95576e-06 8.8451e-06 0.117654)
(-9.09308e-06 8.95398e-06 0.117629)
(-1.63768e-05 -5.89078e-06 0.115514)
(-5.95114e-06 -1.6247e-05 0.115515)
(-7.20392e-06 -7.25227e-06 0.113106)
(-1.58113e-05 -5.64677e-06 0.115518)
(-5.65142e-06 -1.57176e-05 0.115519)
(-9.06966e-06 -8.95115e-06 0.117654)
(-9.19762e-06 -9.12577e-06 0.117628)
(-5.39705e-06 1.52487e-05 0.115523)
(-4.28826e-05 8.44017e-08 0.102898)
(1.63463e-05 -9.31203e-07 0.0973775)
(4.95209e-05 4.44626e-08 0.103719)
(-8.21211e-06 -3.41984e-07 0.0983287)
(-8.65689e-06 -4.91264e-07 0.0973123)
(-4.24235e-05 -3.80729e-07 0.103608)
(5.08598e-05 -8.41281e-09 0.103035)
(5.22014e-05 -1.73848e-06 0.1014)
(-4.20353e-05 2.58776e-06 0.09937)
(1.25209e-05 -4.50438e-06 0.0926461)
(-8.27626e-06 -2.48205e-07 0.0952805)
(4.85049e-05 -4.14683e-06 0.0994339)
(1.60617e-05 -2.37613e-06 0.0953463)
(-4.41347e-05 1.06209e-06 0.101281)
(-4.38229e-05 9.96797e-07 0.101277)
(1.61883e-05 -2.4028e-06 0.0953468)
(-7.84384e-06 2.00718e-06 0.0925977)
(4.85798e-05 -4.25569e-06 0.099432)
(-4.17626e-05 2.48929e-06 0.0993683)
(-8.12266e-06 -2.69592e-07 0.0952812)
(5.2274e-05 -1.81767e-06 0.101396)
(5.07665e-05 3.50921e-08 0.10304)
(1.60908e-05 -3.40238e-07 0.0983866)
(-8.84462e-06 -4.80335e-07 0.0973132)
(-4.27928e-05 -3.79527e-07 0.103614)
(1.61889e-05 -9.08171e-07 0.0973786)
(4.94208e-05 5.66619e-08 0.103726)
(-4.32336e-05 1.18867e-07 0.102903)
(1.98294e-06 -7.87251e-06 0.0925971)
(-2.60405e-07 -8.11711e-06 0.0952807)
(-2.39723e-06 1.61729e-05 0.0953466)
(1.02409e-06 -4.37648e-05 0.101277)
(-4.29289e-06 4.8628e-05 0.0994315)
(2.47687e-06 -4.16979e-05 0.099368)
(-1.81589e-06 5.23208e-05 0.101396)
(-4.90259e-07 -8.70678e-06 0.097312)