/*--------------------------------*- C++ -*----------------------------------*\
| =========                 |                                                 |
| \\      /  F ield         | OpenFOAM: The Open Source CFD Toolbox           |
|  \\    /   O peration     | Version:  v2006                                 |
|   \\  /    A nd           | Website:  www.openfoam.com                      |
|    \\/     M anipulation  |                                                 |
\*---------------------------------------------------------------------------*/
FoamFile
{
    version     2.0;
    format      ascii;
    class       volScalarField;
    location    "500";
    object      epsilon;
}
// * * * * * * * * * * * * * * * * * * * * * * * * * * * * * * * * * * * * * //

dimensions      [0 2 -3 0 0 0 0];


internalField   nonuniform List<scalar> 
14298
(
1.84856e-05
1.84832e-05
3.45793e-07
5.11045e-06
5.11056e-06
3.59965e-06
8.91395e-06
3.59773e-06
1.0883e-06
2.26054e-07
2.76121e-06
1.58379e-07
1.08672e-06
1.58442e-07
3.60179e-06
8.90544e-06
1.08839e-06
2.26115e-07
2.76099e-06
1.58535e-07
3.60313e-06
8.90858e-06
1.08892e-06
2.27299e-07
1.5865e-07
2.75216e-06
2.28725e-07
2.76455e-06
8.90607e-06
1.84936e-05
3.49358e-07
5.10753e-06
5.10517e-06
1.84916e-05
1.09069e-06
2.27175e-07
1.58675e-07
2.752e-06
1.09409e-06
2.28797e-07
1.58892e-07
2.76625e-06
3.60333e-06
8.91624e-06
3.60784e-06
8.91057e-06
3.55946e-07
5.11242e-06
5.11394e-06
1.85018e-05
1.85053e-05
1.84827e-05
1.84804e-05
9.69797e-06
2.21241e-05
2.21216e-05
9.72147e-06
2.21116e-05
2.21076e-05
3.88704e-06
9.04986e-06
1.87164e-06
5.11491e-06
3.88809e-06
9.04816e-06
1.8753e-06
3.89264e-06
9.0558e-06
1.87203e-06
5.11492e-06
3.89372e-06
9.05238e-06
1.87575e-06
1.21248e-05
1.06568e-05
4.43145e-06
3.6107e-06
1.21227e-05
1.06597e-05
4.43911e-06
2.24669e-05
7.2069e-06
8.91569e-06
2.2466e-05
7.20505e-06
1.21193e-05
1.06552e-05
4.42735e-06
3.61022e-06
1.21182e-05
1.06578e-05
4.43824e-06
1.21163e-05
4.43438e-06
1.0657e-05
3.61634e-06
1.2119e-05
4.44644e-06
1.06564e-05
2.24207e-05
7.20764e-06
8.90031e-06
2.24388e-05
7.21208e-06
1.21211e-05
1.06582e-05
4.43853e-06
3.61661e-06
1.21234e-05
1.06577e-05
4.44945e-06
2.24464e-05
7.21032e-06
8.90443e-06
2.24592e-05
7.21495e-06
8.9045e-06
1.84926e-05
9.70373e-06
2.20673e-05
2.2066e-05
9.69212e-06
2.19893e-05
2.19889e-05
3.95972e-06
9.0682e-06
1.88952e-06
5.11217e-06
1.90269e-06
3.94296e-06
9.06332e-06
3.95245e-06
9.06095e-06
1.88767e-06
5.10978e-06
3.93586e-06
9.05654e-06
1.90066e-06
1.84908e-05
1.21336e-05
4.43506e-06
1.06668e-05
3.61435e-06
1.21358e-05
4.44429e-06
1.06666e-05
2.24715e-05
7.20802e-06
8.91307e-06
2.24802e-05
7.21189e-06
1.21372e-05
4.44379e-06
1.06676e-05
3.61947e-06
1.21383e-05
4.45395e-06
1.06677e-05
2.24602e-05
7.2196e-06
8.90977e-06
2.24699e-05
7.22398e-06
9.84881e-06
2.21468e-05
2.2146e-05
9.86174e-06
2.21253e-05
2.21239e-05
3.96286e-06
9.09863e-06
1.91062e-06
5.11662e-06
3.97181e-06
1.91347e-06
9.09689e-06
3.96906e-06
9.10442e-06
1.91206e-06
5.1177e-06
3.9778e-06
1.91484e-06
9.10283e-06
1.84966e-05
1.85002e-05
1.35057e-07
1.20006e-07
1.20025e-07
1.13905e-07
1.20014e-07
1.13902e-07
1.35271e-07
1.20055e-07
1.20053e-07
1.13912e-07
1.35386e-07
1.20067e-07
1.1391e-07
1.66278e-06
3.45328e-07
7.3207e-07
7.32156e-07
1.66224e-06
7.32859e-07
7.32972e-07
4.52211e-07
1.40195e-06
3.66981e-07
1.09427e-06
4.51297e-07
1.40745e-06
3.68113e-07
6.33184e-07
2.03133e-06
9.68527e-07
2.76629e-06
9.71662e-07
6.31844e-07
2.03608e-06
4.51318e-07
1.39783e-06
3.66499e-07
1.09319e-06
4.4996e-07
1.40503e-06
3.67764e-07
4.52907e-07
1.40347e-06
3.66965e-07
1.09628e-06
4.51172e-07
1.41191e-06
3.68575e-07
6.3412e-07
2.03458e-06
9.68188e-07
2.7669e-06
9.71628e-07
6.31903e-07
2.04204e-06
4.53157e-07
3.67198e-07
1.40388e-06
1.09664e-06
4.51571e-07
3.68756e-07
1.41184e-06
6.33819e-07
2.03085e-06
9.68396e-07
2.75874e-06
6.31545e-07
2.03792e-06
9.73626e-07
9.79927e-07
2.7724e-06
9.83822e-07
1.71884e-06
3.50256e-07
7.44374e-07
7.43977e-07
7.49893e-07
1.70491e-06
7.49487e-07
4.53229e-07
3.67851e-07
1.40327e-06
1.09758e-06
4.51887e-07
3.69279e-07
1.41025e-06
6.3383e-07
2.03039e-06
9.68001e-07
2.75829e-06
6.31748e-07
9.73163e-07
2.03696e-06
4.56755e-07
3.68779e-07
1.41314e-06
1.10143e-06
4.54961e-07
3.70387e-07
1.42152e-06
6.4047e-07
2.04519e-06
9.80768e-07
2.77389e-06
6.38043e-07
2.05338e-06
9.84642e-07
1.72326e-06
3.55344e-07
7.5993e-07
7.60267e-07
1.72842e-06
7.59945e-07
7.60275e-07
2.28441e-07
2.7191e-07
2.30715e-07
2.30682e-07
2.71869e-07
2.71906e-07
2.28447e-07
1.96033e-07
1.8942e-05
1.86575e-06
2.04497e-07
5.78842e-07
4.22985e-06
4.23145e-06
2.07297e-07
5.75159e-07
2.27803e-06
2.07299e-07
1.8476e-06
5.75127e-07
8.75632e-06
2.27791e-06
2.07297e-07
1.84791e-06
5.75172e-07
8.75698e-06
2.27819e-06
4.2032e-06
4.20457e-06
1.89665e-05
1.89679e-05
4.23193e-06
4.23074e-06
1.89416e-05
8.76339e-06
2.2998e-06
2.04497e-07
1.86591e-06
5.78779e-07
8.76342e-06
2.29954e-06
1.89433e-05
1.89447e-05
1.89325e-05
1.01192e-06
8.67797e-06
2.65478e-06
1.01259e-06
8.68171e-06
2.65768e-06
2.2098e-05
2.20976e-05
8.93319e-06
2.26251e-05
6.38367e-06
6.35692e-06
2.26382e-05
1.25659e-05
2.26764e-06
3.02494e-06
1.14655e-05
3.00398e-06
1.14932e-05
1.25486e-05
2.26108e-05
8.75138e-06
6.38554e-06
6.35656e-06
2.26322e-05
1.25657e-05
2.26772e-06
1.14653e-05
3.02593e-06
1.14931e-05
3.0031e-06
1.25486e-05
2.26101e-05
8.7513e-06
6.38493e-06
6.35645e-06
2.26339e-05
1.25659e-05
2.26802e-06
3.02574e-06
1.14661e-05
3.00252e-06
1.14933e-05
1.25487e-05
2.59926e-06
9.97432e-07
4.18371e-06
8.6779e-06
2.61751e-06
9.90832e-07
8.67633e-06
2.60303e-06
9.98095e-07
4.18547e-06
8.68171e-06
2.62227e-06
9.91455e-07
8.67999e-06
8.84695e-06
2.21048e-05
2.21043e-05
8.8877e-06
2.20963e-05
2.20962e-05
1.89757e-05
1.89771e-05
2.67837e-06
1.01272e-06
8.68122e-06
4.25174e-06
8.68148e-06
2.65988e-06
1.01951e-06
2.67565e-06
1.01191e-06
8.6779e-06
4.24987e-06
1.01879e-06
2.65366e-06
8.67805e-06
8.97473e-06
2.20966e-05
2.2097e-05
2.2096e-05
8.93315e-06
2.20963e-05
1.89318e-05
2.26304e-05
6.41919e-06
8.76335e-06
6.44788e-06
2.26311e-05
1.24967e-05
2.31044e-06
3.05693e-06
1.14221e-05
3.0793e-06
1.25136e-05
1.13967e-05
2.26462e-05
6.41759e-06
8.76764e-06
2.26389e-05
6.44559e-06
1.2498e-05
2.31036e-06
1.14218e-05
3.05691e-06
1.25143e-05
1.13961e-05
3.07979e-06
4.03846e-07
4.03891e-07
8.31458e-07
8.12556e-07
2.73311e-07
4.01344e-07
4.01395e-07
8.1827e-07
4.00797e-07
4.00839e-07
8.37514e-07
4.03918e-07
4.03855e-07
2.70588e-07
4.0452e-07
8.31579e-07
4.04572e-07
1.89275e-07
1.858e-07
1.89277e-07
1.89275e-07
1.858e-07
3.95064e-07
5.44216e-07
1.18193e-06
1.87374e-06
3.95148e-07
5.45576e-07
1.189e-06
3.16043e-07
5.80303e-07
7.1784e-07
2.90903e-07
3.1675e-07
7.21472e-07
2.89451e-07
3.93199e-07
1.16514e-06
3.93066e-07
1.15801e-06
3.17291e-07
5.73871e-07
7.09264e-07
2.91152e-07
3.16433e-07
7.05729e-07
2.92718e-07
3.9317e-07
5.40054e-07
1.8398e-06
1.16463e-06
1.15775e-06
5.38837e-07
3.93027e-07
3.17288e-07
5.73873e-07
2.91147e-07
7.09066e-07
2.92718e-07
7.05634e-07
3.16415e-07
3.93181e-07
5.40174e-07
1.84003e-06
1.16458e-06
1.15764e-06
5.38949e-07
3.93035e-07
3.17302e-07
5.73942e-07
2.91146e-07
7.09085e-07
2.92727e-07
7.05645e-07
3.1642e-07
3.95019e-07
5.44274e-07
1.18108e-06
1.87386e-06
5.45608e-07
3.951e-07
1.18836e-06
3.16035e-07
5.80276e-07
2.90899e-07
7.17548e-07
2.89453e-07
3.16727e-07
7.2133e-07
2.20671e-07
4.40475e-06
4.48512e-06
1.94163e-07
2.43904e-06
2.17519e-07
1.89514e-07
8.79341e-06
1.85054e-07
2.28428e-07
1.80013e-07
2.20635e-07
2.68234e-07
2.67942e-07
2.2844e-07
2.22411e-07
1.95518e-06
4.38155e-06
2.28454e-07
2.22384e-07
2.22419e-07
2.22403e-07
1.96615e-07
2.41507e-06
2.71914e-07
2.67973e-07
2.28431e-07
2.22391e-07
2.22375e-07
2.6794e-07
1.88513e-05
2.68241e-07
2.20652e-07
1.97456e-06
2.03118e-06
2.20631e-07
2.20664e-07
2.68272e-07
2.20623e-07
1.88076e-05
2.67606e-07
1.87923e-05
1.88366e-05
1.88052e-05
1.94164e-07
6.04533e-07
1.9749e-06
2.1899e-07
1.91792e-07
6.14902e-07
2.01173e-06
2.6825e-07
4.40509e-06
4.46227e-06
2.67183e-07
4.46241e-06
1.88369e-05
1.88064e-05
1.87906e-05
2.67616e-07
4.48513e-06
1.87923e-05
2.43964e-06
8.78148e-06
2.49151e-06
8.79073e-06
6.04426e-07
1.91794e-07
2.20661e-07
2.19022e-07
2.01168e-06
1.97467e-06
6.14906e-07
8.79163e-06
8.78216e-06
2.49176e-06
1.89512e-07
6.21111e-07
2.03134e-06
2.51681e-06
8.79698e-06
2.17512e-07
2.03146e-06
6.21167e-07
2.51666e-06
2.3437e-06
2.29942e-06
8.76417e-06
1.89054e-05
2.34409e-06
8.7739e-06
1.77961e-07
1.93171e-07
1.93172e-07
1.93174e-07
1.93174e-07
1.85054e-07
1.85057e-07
5.85855e-07
2.2627e-07
1.90055e-06
2.01781e-07
1.89455e-05
1.89041e-05
5.85961e-07
2.04497e-07
1.86583e-06
2.26288e-07
5.78699e-07
2.01781e-07
1.9004e-06
2.69524e-07
4.29464e-06
4.29629e-06
2.4912e-06
8.77812e-06
2.43873e-06
8.79356e-06
2.49163e-06
8.78085e-06
2.43904e-06
8.79302e-06
1.75302e-07
1.82498e-07
1.82502e-07
1.88342e-05
1.88111e-05
6.15009e-07
1.94163e-07
1.97464e-06
2.18993e-07
6.04426e-07
1.91791e-07
2.01124e-06
2.67176e-07
4.46234e-06
4.40434e-06
4.4055e-06
4.46396e-06
1.89026e-05
1.89064e-05
2.69506e-07
4.29437e-06
4.29577e-06
1.88485e-05
1.88846e-05
1.8851e-05
1.88866e-05
2.69676e-07
4.38126e-06
4.38294e-06
4.31896e-06
4.32047e-06
2.34426e-06
8.76032e-06
2.29933e-06
8.76621e-06
5.85811e-07
2.04497e-07
2.26313e-07
5.7883e-07
1.90048e-06
2.01782e-07
5.85852e-07
1.86635e-06
2.04498e-07
2.26329e-07
5.78827e-07
1.90074e-06
2.01784e-07
2.36699e-06
8.77801e-06
8.77138e-06
2.41418e-06
8.77817e-06
2.36649e-06
8.7714e-06
2.41545e-06
5.90292e-07
2.24301e-07
1.95504e-06
1.96613e-07
1.91933e-06
1.99156e-07
5.99113e-07
2.22409e-07
5.90328e-07
2.24285e-07
1.96615e-07
1.9196e-06
1.99157e-07
5.99038e-07
2.69511e-07
4.29541e-06
4.29383e-06
1.89033e-05
1.88508e-05
1.88859e-05
2.6795e-07
4.38181e-06
2.69679e-07
4.32049e-06
4.31938e-06
1.88521e-05
1.88848e-05
5.85943e-07
2.26283e-07
1.90078e-06
2.01782e-07
2.34401e-06
8.75656e-06
2.29936e-06
8.77093e-06
5.85984e-07
2.04501e-07
1.86641e-06
2.26317e-07
5.78734e-07
2.01784e-07
1.90075e-06
2.36693e-06
8.7741e-06
8.7738e-06
2.41458e-06
5.90432e-07
2.24275e-07
1.95567e-06
1.96615e-07
1.91959e-06
1.99156e-07
5.99049e-07
2.36692e-06
8.77929e-06
8.7706e-06
2.41462e-06
5.90391e-07
2.24307e-07
1.96617e-07
1.95567e-06
1.9916e-07
1.91959e-06
5.99049e-07
2.34342e-06
8.76351e-06
5.85896e-07
2.26318e-07
2.01782e-07
1.90047e-06
2.3435e-06
8.76736e-06
1.96616e-07
5.99232e-07
1.95551e-06
5.90295e-07
2.24305e-07
1.91969e-06
1.99158e-07
2.41525e-06
8.78209e-06
2.36655e-06
8.76821e-06
5.99144e-07
2.22428e-07
1.95544e-06
5.903e-07
2.24299e-07
1.99156e-07
1.91948e-06
8.78081e-06
2.36648e-06
8.76702e-06
4.23157e-06
4.22986e-06
2.69522e-07
4.29674e-06
4.29519e-06
1.89437e-05
1.89027e-05
1.88539e-05
1.88853e-05
2.69688e-07
4.38145e-06
4.38004e-06
4.32158e-06
4.32004e-06
1.88521e-05
1.88835e-05
5.85972e-07
2.04498e-07
1.86631e-06
2.26284e-07
5.78722e-07
2.01781e-07
1.90076e-06
2.34393e-06
8.75525e-06
2.29901e-06
8.7735e-06
2.34383e-06
8.76411e-06
2.29903e-06
8.76732e-06
5.90356e-07
2.24279e-07
1.96614e-07
1.95522e-06
1.99155e-07
1.91914e-06
5.99103e-07
5.9034e-07
2.24281e-07
1.96615e-07
1.95565e-06
1.99157e-07
1.91989e-06
5.99147e-07
2.36659e-06
8.77593e-06
8.77334e-06
2.41477e-06
2.36639e-06
8.78255e-06
8.76688e-06
2.41529e-06
1.89043e-05
1.89054e-05
4.38166e-06
2.69691e-07
4.38217e-06
4.31938e-06
4.32088e-06
1.88848e-05
1.88524e-05
1.88862e-05
1.88338e-05
1.88059e-05
1.88377e-05
1.88076e-05
4.40422e-06
4.40579e-06
2.67184e-07
4.46141e-06
4.46341e-06
8.78184e-06
8.78716e-06
2.49144e-06
2.43914e-06
6.14946e-07
1.97453e-06
1.94161e-07
2.19009e-07
6.04261e-07
2.01125e-06
1.9179e-07
2.20611e-07
2.01163e-06
2.19022e-07
6.14971e-07
1.94161e-07
6.04346e-07
1.91791e-07
8.78765e-06
2.51582e-06
2.17473e-07
6.21057e-07
1.89508e-07
6.15026e-07
1.97506e-06
1.94163e-07
2.18986e-07
6.04396e-07
2.01183e-06
1.91793e-07
2.49181e-06
8.78588e-06
2.43921e-06
8.78918e-06
6.15019e-07
1.94167e-07
1.97507e-06
2.19024e-07
6.04451e-07
1.91795e-07
2.01167e-06
2.51626e-06
6.21222e-07
1.89509e-07
2.51674e-06
8.78876e-06
6.21197e-07
2.17514e-07
1.89512e-07
2.0315e-06
4.40565e-06
4.40422e-06
2.67215e-07
4.46303e-06
4.4616e-06
1.88325e-05
1.88093e-05
1.87965e-05
2.67655e-07
4.48477e-06
4.4833e-06
1.87952e-05
2.18986e-07
6.14904e-07
1.94163e-07
1.975e-06
6.04521e-07
1.91791e-07
2.01197e-06
2.49135e-06
8.78282e-06
2.43925e-06
8.79075e-06
2.49146e-06
8.78404e-06
2.43914e-06
8.78773e-06
2.17479e-07
2.0312e-06
8.79083e-06
1.88363e-05
1.88371e-05
1.88091e-05
4.48378e-06
4.48532e-06
1.87946e-05
2.89583e-06
8.69772e-06
1.10277e-06
4.42127e-06
8.70256e-06
2.87899e-06
1.1104e-06
3.00136e-06
1.15216e-06
4.5005e-06
8.71166e-06
2.98474e-06
8.72068e-06
1.16001e-06
1.23312e-05
1.11719e-05
3.27891e-06
2.45202e-06
1.11523e-05
3.3041e-06
1.23427e-05
2.2663e-05
8.79472e-06
6.72648e-06
2.26627e-05
6.74832e-06
2.82382e-06
8.69345e-06
1.08628e-06
4.36415e-06
2.8417e-06
1.07887e-06
8.68979e-06
1.23807e-05
1.12082e-05
3.24736e-06
2.40252e-06
1.23684e-05
1.12295e-05
3.22353e-06
1.88572e-05
1.88138e-05
1.87879e-05
1.88306e-05
1.88119e-05
9.23662e-06
2.21301e-05
2.21351e-05
2.21323e-05
2.21367e-05
9.20847e-06
2.9029e-06
8.69925e-06
1.10385e-06
4.42196e-06
1.1124e-06
8.70513e-06
2.87731e-06
2.93454e-06
4.44502e-06
1.13556e-06
8.70843e-06
8.70543e-06
2.95035e-06
1.12827e-06
9.26637e-06
2.21386e-05
2.21419e-05
2.21305e-05
2.21339e-05
9.28966e-06
2.92782e-06
4.4446e-06
1.13566e-06
8.70974e-06
1.12715e-06
8.70618e-06
2.95374e-06
1.88306e-05
1.88127e-05
1.87879e-05
9.33128e-06
2.215e-05
2.21539e-05
9.31318e-06
2.21701e-05
2.21736e-05
3.00941e-06
1.15239e-06
8.71386e-06
4.50157e-06
2.98389e-06
8.72284e-06
1.162e-06
1.87894e-05
1.23302e-05
3.28041e-06
1.11722e-05
2.45232e-06
3.30461e-06
1.11527e-05
1.23412e-05
2.26516e-05
6.64174e-06
8.78164e-06
6.66465e-06
2.26481e-05
1.23083e-05
2.47739e-06
3.35965e-06
1.10998e-05
3.33613e-06
1.11181e-05
1.22992e-05
2.26528e-05
8.78317e-06
6.70845e-06
6.68919e-06
2.26708e-05
2.2662e-05
8.7866e-06
6.70461e-06
6.68335e-06
2.26682e-05
2.26633e-05
6.63748e-06
8.78462e-06
6.6606e-06
2.26576e-05
1.23086e-05
2.47729e-06
3.35932e-06
1.10993e-05
1.11177e-05
3.33523e-06
1.22991e-05
1.22707e-05
3.39047e-06
1.10668e-05
2.53105e-06
1.22798e-05
3.41377e-06
1.10501e-05
2.26777e-05
6.72981e-06
8.8012e-06
2.26728e-05
6.74688e-06
1.22694e-05
3.38943e-06
1.10664e-05
2.53104e-06
1.22791e-05
1.10497e-05
3.41447e-06
1.24643e-05
2.33182e-06
1.13308e-05
3.1371e-06
1.13546e-05
3.11359e-06
1.24498e-05
2.26273e-05
6.41978e-06
2.26261e-05
6.44909e-06
1.24967e-05
2.31002e-06
1.14217e-05
3.05646e-06
1.25133e-05
1.1397e-05
3.07979e-06
2.26253e-05
6.50879e-06
8.76123e-06
6.48332e-06
2.26405e-05
1.89123e-05
1.24662e-05
2.33242e-06
3.13605e-06
1.13304e-05
3.11342e-06
1.13545e-05
1.24513e-05
2.26477e-05
6.50575e-06
8.77e-06
6.48088e-06
2.26535e-05
1.89361e-05
1.89125e-05
9.01351e-06
2.21126e-05
2.21118e-05
2.20953e-05
2.20946e-05
9.04695e-06
2.67328e-06
4.25028e-06
1.01874e-06
8.67815e-06
2.67884e-06
4.25171e-06
1.01947e-06
8.68183e-06
8.97223e-06
2.20963e-05
2.20957e-05
2.71177e-06
8.68097e-06
4.27601e-06
1.04062e-06
1.03357e-06
8.67869e-06
2.73026e-06
2.71478e-06
8.68451e-06
4.27748e-06
1.04135e-06
1.03423e-06
8.68214e-06
2.73724e-06
1.23097e-05
2.47738e-06
1.10995e-05
3.35855e-06
1.11171e-05
3.33588e-06
1.23001e-05
2.2659e-05
6.64136e-06
8.7807e-06
2.26476e-05
6.66317e-06
1.23305e-05
2.45323e-06
1.11718e-05
3.28007e-06
1.23411e-05
1.11525e-05
3.30485e-06
2.26638e-05
6.70506e-06
8.78746e-06
6.6857e-06
2.26732e-05
1.23102e-05
2.47763e-06
3.35927e-06
1.10998e-05
3.3346e-06
1.11178e-05
1.22989e-05
2.26756e-05
6.64154e-06
8.79002e-06
2.26589e-05
6.66189e-06
1.2333e-05
2.45262e-06
3.28039e-06
1.1172e-05
1.23436e-05
3.30412e-06
1.11526e-05
2.26699e-05
6.70728e-06
8.79247e-06
6.68555e-06
2.26681e-05
1.88285e-05
1.88153e-05
2.93021e-06
1.13513e-06
4.44488e-06
8.71049e-06
1.12716e-06
8.70429e-06
2.94812e-06
2.89513e-06
1.10266e-06
4.42229e-06
8.69467e-06
1.11041e-06
2.87572e-06
8.7009e-06
9.26272e-06
2.21577e-05
2.21571e-05
2.21558e-05
2.21554e-05
9.28485e-06
2.90032e-06
1.10348e-06
8.6975e-06
4.42374e-06
2.88096e-06
1.1113e-06
8.70373e-06
9.23598e-06
2.21258e-05
2.21244e-05
9.21311e-06
2.21504e-05
2.21495e-05
2.93482e-06
1.13614e-06
8.71436e-06
4.44645e-06
1.12809e-06
8.70758e-06
2.95292e-06
1.89095e-05
1.89135e-05
9.01353e-06
2.21157e-05
2.21152e-05
2.20966e-05
2.20961e-05
9.0472e-06
2.71066e-06
8.68114e-06
4.27608e-06
1.04053e-06
8.67858e-06
2.73102e-06
1.03349e-06
2.71518e-06
8.68555e-06
4.27725e-06
1.04126e-06
8.6827e-06
2.73537e-06
1.03418e-06
1.8855e-05
1.88761e-05
1.88566e-05
1.88776e-05
9.1148e-06
2.21257e-05
2.21251e-05
9.08313e-06
2.21313e-05
2.21306e-05
2.82104e-06
1.08679e-06
4.36284e-06
8.69106e-06
8.68876e-06
1.07926e-06
2.84088e-06
2.82596e-06
1.08758e-06
4.36469e-06
8.69564e-06
8.69269e-06
1.08003e-06
2.84561e-06
2.78585e-06
8.68437e-06
1.05585e-06
4.33764e-06
2.76724e-06
8.68762e-06
1.06327e-06
2.79041e-06
8.68807e-06
1.05664e-06
4.3397e-06
2.77191e-06
8.69135e-06
1.06405e-06
9.15035e-06
2.21252e-05
2.21246e-05
2.21251e-05
2.21244e-05
9.18037e-06
1.24654e-05
2.33205e-06
1.13305e-05
3.13652e-06
1.13545e-05
3.11421e-06
1.24511e-05
2.26281e-05
6.42013e-06
8.76021e-06
2.26255e-05
6.44929e-06
1.2497e-05
2.31011e-06
1.14217e-05
3.05743e-06
1.13969e-05
1.25131e-05
3.08151e-06
2.26285e-05
6.50608e-06
8.76087e-06
6.48177e-06
2.26466e-05
1.24078e-05
1.12898e-05
3.16958e-06
2.37903e-06
1.24212e-05
1.12677e-05
3.19161e-06
2.26507e-05
8.77779e-06
6.61373e-06
2.26513e-05
6.58939e-06
2.2658e-05
6.53816e-06
8.77711e-06
2.26478e-05
6.56106e-06
1.23801e-05
2.40173e-06
1.12088e-05
3.24654e-06
1.23665e-05
1.12291e-05
3.22308e-06
2.26522e-05
8.77563e-06
6.61223e-06
6.5903e-06
2.26602e-05
1.24077e-05
1.12897e-05
3.16784e-06
2.37859e-06
1.24219e-05
1.12677e-05
3.19123e-06
2.26556e-05
8.77483e-06
6.53617e-06
2.26492e-05
6.56033e-06
1.23796e-05
3.24883e-06
2.40142e-06
1.12088e-05
1.12293e-05
3.22456e-06
1.23675e-05
9.01372e-06
2.21135e-05
2.21145e-05
2.20954e-05
2.2096e-05
9.04864e-06
2.71586e-06
8.68508e-06
4.27715e-06
1.04135e-06
8.6822e-06
1.03418e-06
2.73438e-06
2.70954e-06
8.68192e-06
4.27621e-06
1.04052e-06
1.03354e-06
8.67884e-06
2.73264e-06
1.89104e-05
1.88566e-05
1.8877e-05
9.14757e-06
2.21321e-05
2.21371e-05
9.17684e-06
2.21276e-05
2.21322e-05
2.82296e-06
8.69545e-06
1.08785e-06
4.36402e-06
2.84814e-06
8.69138e-06
1.08015e-06
9.11524e-06
2.21219e-05
2.21236e-05
9.08312e-06
2.21308e-05
2.21339e-05
2.78807e-06
4.33916e-06
8.68734e-06
1.05685e-06
1.06347e-06
2.77191e-06
8.68918e-06
2.79004e-06
4.33827e-06
8.68478e-06
1.0557e-06
2.76395e-06
8.68882e-06
1.0639e-06
1.88579e-05
1.8877e-05
1.24665e-05
2.33264e-06
1.13306e-05
3.13516e-06
1.13543e-05
3.1133e-06
1.24512e-05
2.26422e-05
6.42081e-06
8.76323e-06
2.26217e-05
6.4476e-06
1.2498e-05
2.30999e-06
1.14224e-05
3.05929e-06
1.13967e-05
1.25137e-05
3.08152e-06
2.2643e-05
6.5054e-06
8.7685e-06
6.47842e-06
2.26457e-05
1.24061e-05
3.16757e-06
1.12908e-05
2.3785e-06
1.24206e-05
3.1919e-06
1.12684e-05
2.26362e-05
8.7726e-06
6.6168e-06
2.26479e-05
6.59335e-06
2.26419e-05
6.53683e-06
8.77325e-06
2.26439e-05
6.5633e-06
1.23786e-05
2.40205e-06
3.24912e-06
1.12087e-05
1.23669e-05
3.22431e-06
1.123e-05
1.24065e-05
1.12907e-05
3.16822e-06
2.37839e-06
1.24203e-05
1.12686e-05
3.19232e-06
2.26436e-05
8.77209e-06
6.61393e-06
6.59124e-06
2.26643e-05
2.26414e-05
6.53677e-06
8.77077e-06
2.26382e-05
6.56363e-06
1.23801e-05
2.40218e-06
1.12086e-05
3.24789e-06
1.12298e-05
3.22484e-06
1.23686e-05
1.24641e-05
2.33227e-06
3.13694e-06
1.13309e-05
3.11305e-06
1.13553e-05
1.24496e-05
2.26242e-05
6.51013e-06
8.76265e-06
6.48342e-06
2.26332e-05
1.24648e-05
2.33238e-06
1.13304e-05
3.13668e-06
1.13548e-05
3.11193e-06
1.24496e-05
2.26377e-05
6.50704e-06
8.76762e-06
6.47819e-06
2.26375e-05
1.23808e-05
3.2484e-06
1.12084e-05
2.40267e-06
1.23677e-05
3.22458e-06
1.12297e-05
2.26576e-05
6.61471e-06
8.78104e-06
2.26576e-05
6.5909e-06
1.2408e-05
2.37852e-06
3.16965e-06
1.12908e-05
1.24211e-05
3.19277e-06
1.12679e-05
2.26619e-05
8.7778e-06
6.54012e-06
2.26418e-05
6.56331e-06
2.26498e-05
6.6118e-06
8.77468e-06
2.26615e-05
6.58761e-06
1.2407e-05
2.37848e-06
1.12904e-05
3.16896e-06
1.242e-05
1.12676e-05
3.19288e-06
2.26451e-05
8.76919e-06
6.53667e-06
2.26334e-05
6.5616e-06
9.01202e-06
2.21089e-05
2.21094e-05
2.21089e-05
2.21094e-05
9.0485e-06
2.6794e-06
1.0126e-06
8.68171e-06
4.25038e-06
8.68349e-06
2.66006e-06
1.0195e-06
2.67488e-06
1.01185e-06
8.67775e-06
4.24922e-06
1.01871e-06
2.65575e-06
8.67985e-06
8.97026e-06
2.21002e-05
2.21006e-05
2.21129e-05
8.93258e-06
2.21134e-05
2.71528e-06
8.68471e-06
4.27679e-06
1.04149e-06
8.68389e-06
1.03439e-06
2.73471e-06
2.71093e-06
8.68116e-06
4.27526e-06
1.04068e-06
1.03363e-06
8.68035e-06
2.73001e-06
1.89346e-05
1.89114e-05
1.88618e-05
1.88792e-05
9.11651e-06
2.21088e-05
2.21093e-05
9.08609e-06
2.21268e-05
2.21273e-05
2.82781e-06
1.08763e-06
4.36322e-06
8.69855e-06
1.07994e-06
8.69454e-06
2.84697e-06
2.82301e-06
1.08673e-06
4.36173e-06
8.69488e-06
8.69064e-06
1.07909e-06
2.84199e-06
2.79193e-06
8.68617e-06
1.05671e-06
4.33966e-06
1.06408e-06
2.77129e-06
8.69077e-06
2.78699e-06
8.68245e-06
1.0559e-06
4.33821e-06
2.76666e-06
8.68666e-06
1.06321e-06
9.14904e-06
2.21443e-05
2.21448e-05
2.21378e-05
2.21383e-05
9.17739e-06
1.886e-05
1.88774e-05
1.2466e-05
2.33273e-06
3.1358e-06
1.13306e-05
3.11294e-06
1.13545e-05
1.24509e-05
2.26416e-05
6.42416e-06
8.76191e-06
6.44982e-06
2.26153e-05
1.24975e-05
2.31005e-06
3.0586e-06
1.14225e-05
3.08113e-06
1.2513e-05
1.13963e-05
2.26471e-05
6.50606e-06
8.7696e-06
6.48094e-06
2.26526e-05
1.24654e-05
2.33263e-06
3.13592e-06
1.13307e-05
3.11166e-06
1.13546e-05
1.24497e-05
2.26459e-05
6.41769e-06
8.76797e-06
2.26399e-05
6.44464e-06
1.24981e-05
2.3103e-06
3.05783e-06
1.14223e-05
1.25143e-05
3.08005e-06
1.13962e-05
2.26371e-05
6.50641e-06
8.76782e-06
6.47805e-06
2.26362e-05
1.24061e-05
3.16796e-06
1.12909e-05
2.37834e-06
1.242e-05
3.19215e-06
1.12681e-05
2.26404e-05
8.77307e-06
6.61554e-06
6.59253e-06
2.26541e-05
2.2644e-05
6.53753e-06
8.77314e-06
2.26435e-05
6.56397e-06
1.23788e-05
2.40234e-06
3.24866e-06
1.12085e-05
3.22439e-06
1.12297e-05
1.23672e-05
1.2407e-05
3.1694e-06
1.1291e-05
2.37846e-06
1.24199e-05
3.19392e-06
1.12681e-05
2.26522e-05
8.77547e-06
6.61155e-06
6.58969e-06
2.2664e-05
2.26445e-05
6.53836e-06
8.76871e-06
2.26321e-05
6.56287e-06
1.23812e-05
2.40274e-06
3.2481e-06
1.12084e-05
3.22494e-06
1.12297e-05
1.23691e-05
1.89337e-05
1.89118e-05
1.89349e-05
1.89127e-05
2.82448e-06
1.08703e-06
4.36347e-06
8.69272e-06
2.84099e-06
1.08016e-06
8.68984e-06
9.11641e-06
2.2121e-05
2.21203e-05
9.08409e-06
2.21263e-05
2.21248e-05
2.82218e-06
1.08706e-06
4.36368e-06
8.69441e-06
2.84432e-06
1.07906e-06
8.69152e-06
2.78512e-06
4.33839e-06
8.68411e-06
1.05627e-06
2.76817e-06
1.06342e-06
8.68751e-06
2.79197e-06
8.6874e-06
1.0566e-06
4.34008e-06
2.76986e-06
1.06429e-06
8.69131e-06
9.15274e-06
2.21217e-05
2.21195e-05
9.18242e-06
2.21207e-05
2.21184e-05
1.88767e-05
1.88584e-05
1.8878e-05
1.88289e-05
1.88129e-05
1.88324e-05
1.8815e-05
9.26311e-06
2.21533e-05
2.21526e-05
2.21505e-05
2.21499e-05
9.2865e-06
2.89645e-06
1.10281e-06
8.69458e-06
4.42111e-06
2.87707e-06
8.70193e-06
1.11053e-06
2.90133e-06
1.10371e-06
8.69901e-06
4.42274e-06
2.8821e-06
8.70577e-06
1.11145e-06
9.23591e-06
2.21269e-05
2.21263e-05
9.21129e-06
2.21464e-05
2.21457e-05
2.93022e-06
8.70953e-06
4.44362e-06
1.13533e-06
8.70556e-06
2.94848e-06
1.12725e-06
2.93548e-06
8.71306e-06
4.44552e-06
1.13627e-06
8.70889e-06
2.95355e-06
1.1282e-06
2.26647e-05
8.78618e-06
6.63817e-06
2.26597e-05
6.65814e-06
2.26577e-05
8.78677e-06
6.70529e-06
6.68382e-06
2.26588e-05
1.23094e-05
3.35872e-06
2.47616e-06
1.10995e-05
1.1117e-05
3.33409e-06
1.2298e-05
1.23327e-05
3.2805e-06
2.45323e-06
1.11715e-05
1.11522e-05
1.23436e-05
3.30315e-06
2.26648e-05
8.79129e-06
6.72982e-06
2.26549e-05
6.74843e-06
1.22685e-05
3.39085e-06
2.53248e-06
1.10665e-05
1.22768e-05
1.10503e-05
3.41546e-06
1.23084e-05
2.47786e-06
1.10998e-05
3.35941e-06
1.11176e-05
3.3362e-06
1.22981e-05
2.26711e-05
6.63812e-06
8.78947e-06
2.26672e-05
6.65974e-06
1.23328e-05
2.45217e-06
1.11717e-05
3.27984e-06
1.11525e-05
1.23446e-05
3.30398e-06
2.26611e-05
6.70501e-06
8.78938e-06
6.68352e-06
2.2659e-05
1.22678e-05
2.53126e-06
3.39083e-06
1.10669e-05
1.22766e-05
3.41602e-06
1.10505e-05
1.22688e-05
2.53058e-06
1.10668e-05
3.3902e-06
1.22775e-05
1.10505e-05
3.41357e-06
2.2658e-05
6.72819e-06
8.79006e-06
2.26514e-05
6.74899e-06
9.26651e-06
2.21498e-05
2.21503e-05
2.21341e-05
2.21345e-05
9.28892e-06
2.90081e-06
1.10403e-06
8.7e-06
4.42389e-06
8.70284e-06
2.88095e-06
1.11183e-06
2.8956e-06
1.10317e-06
8.69634e-06
4.42242e-06
1.11092e-06
2.87609e-06
8.69895e-06
9.23722e-06
2.21376e-05
2.21381e-05
2.21357e-05
9.20969e-06
2.21362e-05
2.93574e-06
8.71413e-06
4.44674e-06
1.13635e-06
8.70604e-06
1.12833e-06
2.95664e-06
2.93062e-06
8.70991e-06
4.44532e-06
1.13539e-06
1.12744e-06
8.70195e-06
2.9512e-06
1.88267e-05
1.88133e-05
1.87896e-05
9.33203e-06
2.21628e-05
2.21633e-05
9.31265e-06
2.21712e-05
2.21718e-05
3.00927e-06
8.71931e-06
1.15354e-06
4.50095e-06
1.1619e-06
2.99001e-06
8.72541e-06
3.00381e-06
8.71547e-06
1.15253e-06
4.49945e-06
2.9848e-06
8.72169e-06
1.16084e-06
1.87884e-05
1.23092e-05
2.4774e-06
3.35932e-06
1.10997e-05
3.3352e-06
1.11179e-05
1.22985e-05
2.26696e-05
6.6403e-06
8.78902e-06
6.6616e-06
2.2659e-05
1.23324e-05
2.45281e-06
3.2802e-06
1.11722e-05
3.30372e-06
1.23434e-05
1.11526e-05
2.26626e-05
6.70725e-06
8.79013e-06
6.68622e-06
2.26633e-05
1.2308e-05
2.47725e-06
3.35963e-06
1.10998e-05
3.33504e-06
1.1118e-05
1.22986e-05
2.26583e-05
6.63774e-06
8.78461e-06
2.26575e-05
6.66052e-06
1.23313e-05
2.45245e-06
3.279e-06
1.11721e-05
1.23435e-05
3.30394e-06
1.11526e-05
2.26546e-05
6.7062e-06
8.78492e-06
6.68587e-06
2.26646e-05
2.26619e-05
6.73033e-06
8.79297e-06
2.26563e-05
6.74882e-06
1.88307e-05
1.88315e-05
1.88148e-05
2.99895e-06
1.15214e-06
4.50042e-06
8.71311e-06
1.16019e-06
2.98108e-06
8.7182e-06
9.3349e-06
2.21464e-05
2.21459e-05
9.31244e-06
2.21414e-05
2.21406e-05
3.00476e-06
1.15324e-06
8.71718e-06
4.50195e-06
2.98595e-06
1.16132e-06
8.72213e-06
1.87901e-05
1.77958e-07
1.87687e-07
1.7796e-07
1.80686e-07
1.80685e-07
1.77149e-07
1.74402e-07
8.37354e-07
2.70598e-07
4.04502e-07
4.0456e-07
9.21486e-07
2.67451e-07
4.2016e-07
4.20243e-07
4.2135e-07
9.1446e-07
4.21469e-07
8.93079e-07
2.68863e-07
4.16592e-07
4.16658e-07
4.1554e-07
4.15611e-07
8.9982e-07
4.02551e-07
5.64953e-07
1.94688e-06
1.26085e-06
1.2535e-06
5.63195e-07
4.02655e-07
8.37445e-07
4.03927e-07
4.03865e-07
2.70604e-07
4.04532e-07
8.31487e-07
4.04595e-07
8.93097e-07
2.68879e-07
4.16738e-07
4.1666e-07
4.15636e-07
4.15563e-07
9.00006e-07
8.92822e-07
4.16608e-07
2.68864e-07
4.1649e-07
8.99417e-07
4.15936e-07
4.15108e-07
9.22049e-07
4.2026e-07
4.2035e-07
2.67459e-07
9.15039e-07
4.21467e-07
4.21547e-07
4.05836e-07
5.70479e-07
1.98313e-06
1.27813e-06
5.72425e-07
4.05628e-07
1.28569e-06
4.13063e-07
5.86439e-07
2.03978e-06
1.32861e-06
5.88647e-07
4.12707e-07
1.33616e-06
9.22665e-07
4.20486e-07
4.20411e-07
2.67491e-07
4.21598e-07
9.15635e-07
4.21678e-07
9.68721e-07
4.31102e-07
2.67087e-07
4.31257e-07
4.32513e-07
9.61474e-07
4.32676e-07
3.168e-07
2.85698e-07
7.72302e-07
6.06771e-07
7.76743e-07
2.84814e-07
3.17127e-07
4.05974e-07
5.70756e-07
1.27925e-06
1.98355e-06
5.7272e-07
1.28656e-06
4.05809e-07
3.17827e-07
6.12405e-07
2.84203e-07
7.91975e-07
7.87212e-07
2.84926e-07
3.17557e-07
4.09075e-07
2.00311e-06
5.80533e-07
1.31098e-06
5.7842e-07
1.30356e-06
4.09339e-07
9.2226e-07
4.20008e-07
4.2071e-07
2.67468e-07
4.21919e-07
9.15263e-07
4.21202e-07
9.38079e-07
2.67831e-07
4.26654e-07
4.27078e-07
4.25428e-07
9.45262e-07
4.25716e-07
9.69048e-07
4.30878e-07
2.67109e-07
4.31425e-07
9.61503e-07
4.32932e-07
4.32313e-07
3.16749e-07
2.85681e-07
7.71858e-07
6.06697e-07
2.84805e-07
7.76382e-07
3.17066e-07
4.09019e-07
5.80414e-07
2.00305e-06
1.31071e-06
1.30303e-06
4.09321e-07
5.7834e-07
4.05812e-07
1.27792e-06
5.70556e-07
1.98331e-06
1.28539e-06
5.72496e-07
4.05616e-07
3.17808e-07
6.12378e-07
2.8421e-07
7.91954e-07
2.84922e-07
7.87082e-07
3.17557e-07
3.18604e-07
2.84384e-07
8.03191e-07
6.2388e-07
3.18816e-07
8.08262e-07
2.83828e-07
4.13102e-07
5.86648e-07
1.32854e-06
2.04008e-06
4.12737e-07
5.88893e-07
1.33626e-06
4.1317e-07
5.86567e-07
2.04026e-06
1.32884e-06
4.12792e-07
1.33662e-06
5.88791e-07
3.18644e-07
2.84392e-07
8.03442e-07
6.23952e-07
3.18841e-07
2.83842e-07
8.08547e-07
1.85057e-07
1.87688e-07
1.77959e-07
1.80687e-07
1.80685e-07
1.7715e-07
1.74402e-07
1.86342e-07
1.8634e-07
1.9039e-07
1.83479e-07
1.83477e-07
1.79963e-07
1.82845e-07
1.86342e-07
1.8634e-07
1.90389e-07
1.83478e-07
1.83477e-07
1.79962e-07
1.82845e-07
1.86343e-07
1.86341e-07
1.90392e-07
1.8348e-07
1.83478e-07
1.79963e-07
1.82846e-07
1.86343e-07
1.86341e-07
1.90391e-07
1.83479e-07
1.83477e-07
1.79963e-07
1.82846e-07
1.87685e-07
1.7796e-07
1.77958e-07
1.80686e-07
1.80684e-07
1.77149e-07
1.74402e-07
1.87688e-07
1.77961e-07
1.77959e-07
1.80687e-07
1.80685e-07
1.77149e-07
1.74403e-07
3.16426e-07
5.84241e-07
7.34009e-07
2.87947e-07
7.30172e-07
2.89271e-07
3.15882e-07
3.97374e-07
1.21267e-06
1.89242e-06
5.51613e-07
5.50117e-07
1.20559e-06
3.97341e-07
3.1641e-07
5.84282e-07
2.87956e-07
7.34158e-07
2.89278e-07
7.30189e-07
3.15878e-07
3.95023e-07
5.44244e-07
1.18147e-06
1.87378e-06
3.95118e-07
5.45585e-07
1.18844e-06
3.16016e-07
5.80162e-07
2.90891e-07
7.17429e-07
3.16727e-07
2.89447e-07
7.21117e-07
3.97332e-07
1.21256e-06
1.8923e-06
5.51553e-07
5.50083e-07
1.20524e-06
3.97301e-07
8.50939e-07
2.70699e-07
4.08093e-07
4.08141e-07
4.07285e-07
4.07326e-07
8.57158e-07
1.72707e-07
1.82501e-07
1.80016e-07
1.753e-07
1.72705e-07
1.69101e-07
1.71721e-07
1.75301e-07
1.75299e-07
1.80012e-07
1.72705e-07
1.72704e-07
1.691e-07
1.7172e-07
1.75303e-07
1.753e-07
1.80017e-07
1.72707e-07
1.72705e-07
1.69101e-07
1.71721e-07
3.17836e-07
6.12488e-07
2.84211e-07
7.92287e-07
2.84929e-07
7.875e-07
3.17572e-07
4.0587e-07
5.70542e-07
1.27846e-06
1.98311e-06
4.05669e-07
5.72468e-07
1.286e-06
3.16768e-07
6.06723e-07
2.85683e-07
7.71912e-07
3.1708e-07
2.8481e-07
7.76554e-07
4.09081e-07
1.31129e-06
2.00255e-06
5.80359e-07