/*--------------------------------*- C++ -*----------------------------------*\
| =========                 |                                                 |
| \\      /  F ield         | OpenFOAM: The Open Source CFD Toolbox           |
|  \\    /   O peration     | Version:  v2006                                 |
|   \\  /    A nd           | Website:  www.openfoam.com                      |
|    \\/     M anipulation  |                                                 |
\*---------------------------------------------------------------------------*/
FoamFile
{
    version     2.0;
    format      ascii;
    class       volScalarField;
    location    "500";
    object      nut;
}
// * * * * * * * * * * * * * * * * * * * * * * * * * * * * * * * * * * * * * //

dimensions      [0 2 -1 0 0 0 0];


internalField   nonuniform List<scalar> 
14298
(
2.36386e-05
2.36346e-05
8.81687e-05
6.06578e-05
6.07882e-05
6.80314e-05
4.95646e-05
6.81715e-05
6.48468e-05
0.00010526
6.46708e-05
0.00012861
6.51673e-05
0.000128618
6.92302e-05
4.9545e-05
6.65825e-05
0.000105491
6.51999e-05
0.00012886
6.92626e-05
4.95476e-05
6.65343e-05
0.000105589
0.000128844
6.57242e-05
0.000104063
6.50665e-05
4.95445e-05
2.36374e-05
8.94826e-05
6.10903e-05
6.09911e-05
2.36393e-05
6.62631e-05
0.000105654
0.000128791
6.56652e-05
6.57009e-05
0.000104027
0.000128383
6.5032e-05
6.94673e-05
4.95657e-05
6.91709e-05
4.95496e-05
8.52448e-05
6.09652e-05
6.10142e-05
2.36434e-05
2.3643e-05
2.36373e-05
2.36333e-05
7.7116e-05
2.16236e-05
2.16199e-05
7.61643e-05
2.16212e-05
2.16172e-05
7.97738e-05
4.71753e-05
7.37783e-05
6.08886e-05
7.87921e-05
4.71737e-05
7.51557e-05
7.99185e-05
4.71664e-05
7.41047e-05
6.08634e-05
7.90005e-05
4.71618e-05
7.54158e-05
3.61921e-05
4.03247e-05
6.97926e-05
6.86552e-05
3.61899e-05
4.03285e-05
7.03194e-05
2.02286e-05
6.83437e-05
4.95683e-05
2.02282e-05
6.87172e-05
3.61843e-05
4.03228e-05
7.00171e-05
6.86838e-05
3.61832e-05
4.03262e-05
7.02532e-05
3.61837e-05
7.05343e-05
4.03247e-05
6.89545e-05
3.61865e-05
7.02026e-05
4.0324e-05
2.0215e-05
6.86557e-05
4.95349e-05
2.02209e-05
6.80467e-05
3.61859e-05
4.03258e-05
7.05291e-05
6.90404e-05
3.61884e-05
4.03253e-05
7.03083e-05
2.02213e-05
6.86219e-05
4.95395e-05
2.02253e-05
6.82258e-05
4.95413e-05
2.36372e-05
7.20385e-05
2.16058e-05
2.16086e-05
7.45987e-05
2.15793e-05
2.15824e-05
7.64763e-05
4.71893e-05
7.47636e-05
6.13577e-05
7.42397e-05
7.77036e-05
4.71811e-05
7.63551e-05
4.71958e-05
7.46755e-05
6.12837e-05
7.75696e-05
4.71884e-05
7.41581e-05
2.3639e-05
3.62013e-05
7.089e-05
4.03368e-05
6.95771e-05
3.62034e-05
7.08361e-05
4.03367e-05
2.02302e-05
6.86995e-05
4.95597e-05
2.02328e-05
6.85909e-05
3.62014e-05
7.01754e-05
4.03372e-05
6.9184e-05
3.62025e-05
7.00307e-05
4.03374e-05
2.02249e-05
6.79334e-05
4.95481e-05
2.02279e-05
6.76842e-05
7.34393e-05
2.16302e-05
2.16271e-05
7.27657e-05
2.1624e-05
2.16207e-05
7.80496e-05
4.72573e-05
7.27748e-05
6.09724e-05
7.67632e-05
7.42417e-05
4.72556e-05
7.81294e-05
4.72491e-05
7.2783e-05
6.10524e-05
7.68373e-05
7.42955e-05
4.72476e-05
2.36412e-05
2.36409e-05
0.000152904
0.000175082
0.000175109
0.000193733
0.00017507
0.000193729
0.000152912
0.000175098
0.0001751
0.000193727
0.000152523
0.000175016
0.000193714
8.26594e-05
8.85002e-05
7.83217e-05
7.84677e-05
8.1158e-05
7.93904e-05
7.95532e-05
7.31647e-05
6.65599e-05
7.59214e-05
6.52764e-05
7.29334e-05
6.71588e-05
7.60134e-05
6.8973e-05
6.69333e-05
6.89268e-05
6.51387e-05
6.94492e-05
6.86381e-05
6.74683e-05
7.35617e-05
6.71534e-05
7.61687e-05
6.54462e-05
7.35172e-05
6.73499e-05
7.61949e-05
7.44225e-05
6.83337e-05
7.70529e-05
6.67846e-05
7.44966e-05
6.83938e-05
7.70042e-05
6.9958e-05
6.80556e-05
6.94719e-05
6.54693e-05
6.99694e-05
6.98935e-05
6.80559e-05
7.44954e-05
7.69619e-05
6.84094e-05
6.68074e-05
7.44259e-05
7.6964e-05
6.86236e-05
7.0574e-05
6.84895e-05
7.08772e-05
6.61717e-05
7.03781e-05
6.86618e-05
7.12276e-05
6.84555e-05
6.52936e-05
6.91956e-05
7.95164e-05
8.93042e-05
8.01007e-05
8.00757e-05
7.95567e-05
8.03999e-05
7.953e-05
7.4492e-05
7.65405e-05
6.84845e-05
6.70027e-05
7.42486e-05
7.67019e-05
6.90869e-05
7.06175e-05
6.85999e-05
7.08192e-05
6.61513e-05
7.03256e-05
7.11763e-05
6.89806e-05
7.29455e-05
7.60381e-05
6.69798e-05
6.64043e-05
7.28365e-05
7.61404e-05
6.74625e-05
6.84728e-05
6.68127e-05
6.83735e-05
6.53461e-05
6.82306e-05
6.70674e-05
6.91723e-05
8.06703e-05
8.6158e-05
7.5775e-05
7.57721e-05
7.84508e-05
7.74783e-05
7.75039e-05
0.000143648
0.000113158
0.000145089
0.000145124
0.000114406
0.000113164
0.00014363
0.000189825
2.38288e-05
4.67089e-05
0.000168095
5.77419e-05
4.68526e-05
4.6875e-05
0.000169437
5.80474e-05
4.14246e-05
0.000169431
4.64354e-05
5.80397e-05
4.92625e-05
4.12862e-05
0.000169432
4.64354e-05
5.80307e-05
4.92607e-05
4.10947e-05
4.67398e-05
4.67568e-05
2.38393e-05
2.3838e-05
4.66962e-05
4.67305e-05
2.38304e-05
4.92809e-05
4.16962e-05
0.000168091
4.67039e-05
5.77333e-05
4.92764e-05
4.16535e-05
2.38297e-05
2.38284e-05
2.38247e-05
5.24768e-05
4.65171e-05
5.18565e-05
5.24791e-05
4.65057e-05
5.18914e-05
2.16142e-05
2.16108e-05
5.83401e-05
2.02752e-05
5.66317e-05
5.58173e-05
2.02798e-05
3.66252e-05
4.07493e-05
4.63103e-05
4.13188e-05
4.53012e-05
4.13521e-05
3.66084e-05
2.02694e-05
4.9255e-05
5.57772e-05
5.49821e-05
2.02753e-05
3.66227e-05
4.06464e-05
4.13193e-05
4.57224e-05
4.13527e-05
4.48652e-05
3.66061e-05
2.02691e-05
4.92519e-05
5.58247e-05
5.49371e-05
2.02758e-05
3.66221e-05
4.08136e-05
4.56473e-05
4.13189e-05
4.50289e-05
4.13516e-05
3.66053e-05
5.07645e-05
5.2415e-05
4.61684e-05
4.65166e-05
5.15811e-05
5.23023e-05
4.65137e-05
5.08139e-05
5.24348e-05
4.61646e-05
4.65053e-05
5.16636e-05
5.22857e-05
4.6502e-05
5.76133e-05
2.16163e-05
2.16128e-05
5.83439e-05
2.16128e-05
2.16095e-05
2.38432e-05
2.38418e-05
5.191e-05
5.24276e-05
4.65052e-05
4.69495e-05
4.65056e-05
5.17984e-05
5.2461e-05
5.17659e-05
5.24599e-05
4.65162e-05
4.69548e-05
5.24743e-05
5.17603e-05
4.65164e-05
5.80664e-05
2.16106e-05
2.1614e-05
2.16103e-05
5.8223e-05
2.16137e-05
2.38262e-05
2.02776e-05
5.68197e-05
4.9281e-05
5.67248e-05
2.02778e-05
3.6558e-05
4.19484e-05
4.67965e-05
4.12666e-05
4.69371e-05
3.65745e-05
4.12359e-05
2.02805e-05
5.67215e-05
4.92858e-05
2.02778e-05
5.72956e-05
3.6557e-05
4.20485e-05
4.12669e-05
4.6577e-05
3.65728e-05
4.1236e-05
4.73012e-05
8.18277e-05
8.18149e-05
5.78454e-05
5.78816e-05
0.000114537
8.24406e-05
8.24269e-05
5.78988e-05
8.29031e-05
8.28887e-05
5.77406e-05
8.17945e-05
8.18145e-05
0.000112988
8.14047e-05
5.77899e-05
8.13882e-05
0.000205614
0.000216981
0.000205605
0.000205611
0.000216979
7.87133e-05
6.52899e-05
4.89657e-05
4.68528e-05
7.91423e-05
6.51458e-05
4.90012e-05
9.3939e-05
5.76164e-05
5.46011e-05
0.000101161
9.46189e-05
5.45207e-05
0.000100648
8.02226e-05
4.87716e-05
7.9745e-05
4.86182e-05
9.587e-05
5.81698e-05
5.47267e-05
0.000101894
9.51785e-05
5.47452e-05
0.000102397
8.02331e-05
6.57092e-05
4.62879e-05
4.86429e-05
4.85503e-05
6.58641e-05
7.97358e-05
9.58792e-05
5.81662e-05
0.000101894
5.46683e-05
0.000102399
5.47354e-05
9.51742e-05
8.02274e-05
6.57017e-05
4.62883e-05
4.86293e-05
4.85303e-05
6.58568e-05
7.97304e-05
9.58721e-05
5.81724e-05
0.000101898
5.46678e-05
0.000102395
5.47438e-05
9.5173e-05
7.8707e-05
6.5288e-05
4.88687e-05
4.685e-05
6.51458e-05
7.91317e-05
4.9017e-05
9.3925e-05
5.76167e-05
0.000101155
5.45266e-05
0.00010064
9.46007e-05
5.45228e-05
0.000137913
4.92051e-05
4.98813e-05
0.000162852
4.43018e-05
0.000135141
0.000160302
4.93339e-05
0.000185276
0.00014365
0.000183034
0.000137933
0.000107905
0.000108818
0.00014363
0.000139319
4.81833e-05
4.87638e-05
0.000143617
0.000139349
0.000139309
0.000139337
0.000164145
4.41472e-05
0.000113158
0.000108798
0.000143654
0.000139344
0.000139347
0.000108797
2.37906e-05
0.00010792
0.000137906
4.8515e-05
4.94702e-05
0.000137931
0.000137898
0.000107901
0.000137935
2.37727e-05
0.000105434
2.37661e-05
2.37861e-05
2.37727e-05
0.000162856
5.63357e-05
4.85188e-05
0.000136545
0.000161579
5.60068e-05
4.91624e-05
0.000107914
4.9168e-05
4.96855e-05
0.00010617
4.97079e-05
2.37843e-05
2.37716e-05
2.37663e-05
0.000105431
4.98673e-05
2.37654e-05
4.42497e-05
4.93121e-05
4.54648e-05
4.93266e-05
5.63396e-05
0.000161575
0.000137898
0.00013651
4.91651e-05
4.84805e-05
5.60281e-05
4.933e-05
4.93122e-05
4.55185e-05
0.000160309
5.58844e-05
4.94618e-05
4.59076e-05
4.93393e-05
0.000135128
4.95001e-05
5.58986e-05
4.59498e-05
4.24503e-05
4.15985e-05
4.9285e-05
2.38132e-05
4.28761e-05
4.92976e-05
0.00020208
0.000188685
0.000188682
0.000188677
0.000188679
0.000185277
0.000185271
5.71921e-05
0.000142215
4.72683e-05
0.000166768
2.38288e-05
2.38111e-05
5.72181e-05
0.00016809
4.66918e-05
0.000142203
5.77023e-05
0.000166766
4.72709e-05
0.000111561
4.78101e-05
4.77866e-05
4.58718e-05
4.93133e-05
4.39598e-05
4.93415e-05
4.56784e-05
4.93077e-05
4.42726e-05
4.93337e-05
0.000201195
0.000184152
0.000184144
2.37818e-05
2.37719e-05
5.60438e-05
0.000162855
4.85026e-05
0.000136535
5.63271e-05
0.000161579
4.91538e-05
0.000106161
4.98571e-05
4.9045e-05
4.9023e-05
4.98808e-05
2.38155e-05
2.38133e-05
0.000111569
4.78165e-05
4.78733e-05
2.37929e-05
2.38081e-05
2.379e-05
2.38052e-05
0.000110487
4.85842e-05
4.86785e-05
4.81741e-05
4.81197e-05
4.26286e-05
4.92745e-05
4.14894e-05
4.92835e-05
5.71886e-05
0.000168092
0.000142174
5.77384e-05
4.72675e-05
0.000166765
5.71952e-05
4.67097e-05
0.000168089
0.000142159
5.7731e-05
4.72707e-05
0.000166762
4.28452e-05
4.93134e-05
4.9298e-05
4.39491e-05
4.93096e-05
4.29514e-05
4.92946e-05
4.38562e-05
5.69359e-05
0.000140734
4.81921e-05
0.000164151
4.75684e-05
0.00016545
5.65519e-05
0.000139315
5.69499e-05
0.000140743
0.000164149
4.7567e-05
0.000165448
5.6537e-05
0.00011157
4.78736e-05
4.78472e-05
2.38141e-05
2.37921e-05
2.38055e-05
0.000108816
4.87281e-05
0.000110483
4.80461e-05
4.80899e-05
2.37907e-05
2.3806e-05
5.72248e-05
0.000142209
4.72709e-05
0.000166766
4.28416e-05
4.92619e-05
4.12636e-05
4.92893e-05
5.72213e-05
0.000168082
4.66937e-05
0.000142167
5.77087e-05
0.000166759
4.72742e-05
4.28607e-05
4.92972e-05
4.92978e-05
4.39959e-05
5.69617e-05
0.000140765
4.81807e-05
0.000164148
4.75871e-05
0.00016545
5.65138e-05
4.27735e-05
4.93024e-05
4.92889e-05
4.4143e-05
5.69452e-05
0.000140729
0.000164142
4.82037e-05
0.000165441
4.75586e-05
5.65205e-05
4.24505e-05
4.92803e-05
5.72087e-05
0.000142168
0.000166764
4.72835e-05
4.25237e-05
4.92858e-05
0.000164149
5.65508e-05
4.81842e-05
5.69223e-05
0.000140749
4.75504e-05
0.00016545
4.41506e-05
4.93132e-05
4.2762e-05
4.92863e-05
5.65399e-05
0.000139302
4.81696e-05
5.69288e-05
0.000140732
0.000165447
4.75775e-05
4.93088e-05
4.2717e-05
4.92848e-05
4.70014e-05
4.69649e-05
0.000111562
4.7464e-05
4.74994e-05
2.38303e-05
2.38132e-05
2.37901e-05
2.38031e-05
0.000110488
4.8953e-05
4.89836e-05
4.77897e-05
4.77744e-05
2.3792e-05
2.3805e-05
5.72212e-05
0.000168091
4.67026e-05
0.000142205
5.77153e-05
0.000166766
4.72816e-05
4.27167e-05
4.92635e-05
4.12618e-05
4.92982e-05
4.26371e-05
4.9275e-05
4.13782e-05
4.9283e-05
5.6945e-05
0.000140765
0.000164149
4.82125e-05
0.000165451
4.75594e-05
5.65251e-05
5.69251e-05
0.000140758
0.000164147
4.81689e-05
0.000165447
4.75739e-05
5.65314e-05
4.27137e-05
4.93013e-05
4.92983e-05
4.40516e-05
4.25851e-05
4.93106e-05
4.92817e-05
4.42249e-05
2.38133e-05
2.38118e-05
4.86675e-05
0.000110473
4.87446e-05
4.81038e-05
4.80598e-05
2.38052e-05
2.37903e-05
2.38038e-05
2.37865e-05
2.37751e-05
2.37843e-05
2.3772e-05
4.90452e-05
4.91419e-05
0.000106158
4.98654e-05
4.97368e-05
4.93162e-05
4.93271e-05
4.5616e-05
4.41588e-05
5.60619e-05
4.84964e-05
0.000162857
0.000136519
5.63118e-05
4.9179e-05
0.000161581
0.000137932
4.91746e-05
0.000136509
5.60633e-05
0.000162858
5.63251e-05
0.000161579
4.93277e-05
4.55752e-05
0.000135146
5.58813e-05
0.000160308
5.60577e-05
4.84793e-05
0.000162853
0.000136547
5.6314e-05
4.91679e-05
0.000161578
4.55633e-05
4.93159e-05
4.44224e-05
4.93238e-05
5.60511e-05
0.000162846
4.85007e-05
0.000136501
5.63415e-05
0.000161571
4.91661e-05
4.57997e-05
5.58944e-05
0.000160309
4.58399e-05
4.93227e-05
5.58863e-05
0.000135124
0.0001603
4.95146e-05
4.88998e-05
4.89362e-05
0.00010615
5.00635e-05
5.0024e-05
2.37837e-05
2.37738e-05
2.3766e-05
0.000105402
5.03567e-05
5.03621e-05
2.37681e-05
0.000136546
5.60235e-05
0.000162854
4.84802e-05
5.63411e-05
0.000161578
4.91645e-05
4.56077e-05
4.93137e-05
4.42549e-05
4.93308e-05
4.54808e-05
4.9314e-05
4.43638e-05
4.93193e-05
0.000135162
4.95009e-05
4.93307e-05
2.37846e-05
2.37835e-05
2.37714e-05
5.00198e-05
5.00826e-05
2.37652e-05
5.48407e-05
4.65513e-05
5.31762e-05
4.96055e-05
4.6559e-05
5.45148e-05
5.32778e-05
5.62904e-05
5.36387e-05
5.04448e-05
4.65743e-05
5.57081e-05
4.65898e-05
5.37934e-05
3.63936e-05
4.09638e-05
4.96016e-05
4.47059e-05
4.09398e-05
4.98989e-05
3.6405e-05
2.02854e-05
4.93367e-05
5.98527e-05
2.02852e-05
5.9918e-05
5.38652e-05
4.65434e-05
5.30073e-05
4.82749e-05
5.41002e-05
5.29111e-05
4.65355e-05
3.64421e-05
4.10081e-05
4.954e-05
4.35368e-05
3.64301e-05
4.10341e-05
4.88546e-05
2.37931e-05
2.37753e-05
2.37643e-05
2.37834e-05
2.37757e-05
6.05718e-05
2.16238e-05
2.16228e-05
2.16242e-05
2.16236e-05
6.05265e-05
5.49531e-05
4.6536e-05
5.30076e-05
4.96036e-05
5.33659e-05
4.65482e-05
5.44055e-05
5.51484e-05
4.96112e-05
5.35047e-05
4.65651e-05
4.65599e-05
5.53608e-05
5.3417e-05
6.05219e-05
2.16251e-05
2.1625e-05
2.1623e-05
2.16229e-05
6.07089e-05
5.5132e-05
4.96462e-05
5.36052e-05
4.6561e-05
5.34545e-05
4.65548e-05
5.54142e-05
2.37818e-05
2.37743e-05
2.37652e-05
6.22857e-05
2.1629e-05
2.16285e-05
6.13651e-05
2.16362e-05
2.16355e-05
5.63256e-05
5.34927e-05
4.65637e-05
5.04094e-05
5.56225e-05
4.65788e-05
5.3751e-05
2.37642e-05
3.63944e-05
4.94128e-05
4.09634e-05
4.46465e-05
4.96783e-05
4.09396e-05
3.64054e-05
2.0283e-05
5.84699e-05
4.93122e-05
5.83836e-05
2.02823e-05
3.63726e-05
4.47775e-05
5.09069e-05
4.08748e-05
5.00052e-05
4.08972e-05
3.63637e-05
2.02831e-05
4.93141e-05
5.92295e-05
5.84854e-05
2.02883e-05
2.02848e-05
4.93207e-05
5.96218e-05
5.90954e-05
2.02868e-05
2.02852e-05
5.85545e-05
4.93173e-05
5.87764e-05
2.02836e-05
3.63712e-05
4.48291e-05
5.11322e-05
4.0875e-05
4.08975e-05
5.02472e-05
3.63618e-05
3.63359e-05
5.15313e-05
4.08342e-05
4.65931e-05
3.63448e-05
5.22184e-05
4.08137e-05
2.02911e-05
5.98721e-05
4.93484e-05
2.02892e-05
6.03772e-05
3.63328e-05
5.16501e-05
4.08345e-05
4.65701e-05
3.63422e-05
4.08139e-05
5.20165e-05
3.65266e-05
4.1908e-05
4.11582e-05
4.72024e-05
4.11866e-05
4.66267e-05
3.65127e-05
2.02766e-05
5.65613e-05
2.02763e-05
5.64445e-05
3.65583e-05
4.19099e-05
4.12675e-05
4.65711e-05
3.65745e-05
4.12377e-05
4.66749e-05
2.02757e-05
5.67689e-05
4.92809e-05
5.63562e-05
2.02797e-05
2.3816e-05
3.65275e-05
4.22969e-05
4.82142e-05
4.11559e-05
4.73768e-05
4.1185e-05
3.6513e-05
2.02819e-05
5.79219e-05
4.92888e-05
5.73629e-05
2.02842e-05
2.38249e-05
2.38151e-05
5.80521e-05
2.16173e-05
2.16141e-05
2.16124e-05
2.16092e-05
5.85194e-05
5.19353e-05
4.70215e-05
5.24986e-05
4.65175e-05
5.18871e-05
4.70296e-05
5.24951e-05
4.65059e-05
5.8166e-05
2.16135e-05
2.161e-05
5.18417e-05
4.65211e-05
4.72179e-05
5.25588e-05
5.25042e-05
4.65178e-05
5.22959e-05
5.17764e-05
4.65101e-05
4.71881e-05
5.25246e-05
5.24408e-05
4.65064e-05
5.23561e-05
3.63752e-05
4.51196e-05
4.08762e-05
5.15066e-05
4.08978e-05
5.05263e-05
3.63659e-05
2.02854e-05
5.81727e-05
4.93168e-05
2.02824e-05
5.84498e-05
3.63957e-05
4.46264e-05
4.09647e-05
4.91175e-05
3.64062e-05
4.09411e-05
4.96517e-05
2.02869e-05
5.98449e-05
4.93287e-05
5.91985e-05
2.02902e-05
3.63747e-05
4.50707e-05
5.12133e-05
4.08747e-05
5.09473e-05
4.08968e-05
3.63637e-05
2.02903e-05
5.82868e-05
4.93264e-05
2.02847e-05
5.92775e-05
3.63969e-05
4.48612e-05
4.94943e-05
4.09632e-05
3.64072e-05
5.04993e-05
4.09394e-05
2.0289e-05
5.96821e-05
4.93322e-05
5.96581e-05
2.02885e-05
2.37793e-05
2.37736e-05
5.54573e-05
5.36853e-05
4.96219e-05
4.65748e-05
5.3427e-05
4.65631e-05
5.62022e-05
5.47175e-05
5.30511e-05
4.95332e-05
4.6544e-05
5.32154e-05
5.40162e-05
4.65563e-05
6.16165e-05
2.16331e-05
2.16299e-05
2.1632e-05
2.1629e-05
6.20127e-05
5.48215e-05
5.29805e-05
4.65353e-05
4.94522e-05
5.40383e-05
5.32024e-05
4.65446e-05
6.07112e-05
2.16215e-05
2.1619e-05
5.98224e-05
2.16295e-05
2.16265e-05
5.55733e-05
5.37361e-05
4.65636e-05
4.95749e-05
5.34524e-05
4.65512e-05
5.62584e-05
2.38184e-05
2.38162e-05
5.80331e-05
2.16191e-05
2.16157e-05
2.16136e-05
2.16103e-05
5.86357e-05
5.17635e-05
4.65234e-05
4.72192e-05
5.2514e-05
4.65194e-05
5.22812e-05
5.24365e-05
5.18113e-05
4.6512e-05
4.72883e-05
5.25322e-05
4.65072e-05
5.23293e-05
5.24556e-05
2.37957e-05
2.38046e-05
2.37924e-05
2.38014e-05
6.00505e-05
2.16229e-05
2.16196e-05
5.95792e-05
2.16253e-05
2.16219e-05
5.39628e-05
5.29955e-05
4.83142e-05
4.65417e-05
4.65378e-05
5.2964e-05
5.39544e-05
5.39701e-05
5.29817e-05
4.82802e-05
4.65303e-05
4.65253e-05
5.2939e-05
5.39741e-05
5.3861e-05
4.65294e-05
5.26778e-05
4.83602e-05
5.30011e-05
4.65357e-05
5.29167e-05
5.38677e-05
4.65166e-05
5.26816e-05
4.82705e-05
5.30425e-05
4.65228e-05
5.28776e-05
5.99921e-05
2.16232e-05
2.16198e-05
2.16233e-05
2.16199e-05
5.98891e-05
3.65249e-05
4.19215e-05
4.11575e-05
4.7644e-05
4.11865e-05
4.66074e-05
3.6511e-05
2.02747e-05
5.63927e-05
4.92742e-05
2.02741e-05
5.62647e-05
3.65559e-05
4.18002e-05
4.12676e-05
4.63022e-05
4.12377e-05
3.65717e-05
4.63108e-05
2.02745e-05
5.70481e-05
4.92748e-05
5.62887e-05
2.02796e-05
3.64718e-05
4.11085e-05
4.79734e-05
4.355e-05
3.64847e-05
4.10816e-05
4.88694e-05
2.02837e-05
4.93128e-05
5.82592e-05
2.02837e-05
5.83452e-05
2.02857e-05
5.76167e-05
4.93105e-05
2.02821e-05
5.82585e-05
3.64447e-05
4.36682e-05
4.10099e-05
4.91911e-05
3.64314e-05
4.10346e-05
4.91538e-05
2.02822e-05
4.93048e-05
5.82632e-05
5.7891e-05
2.02844e-05
3.64691e-05
4.1108e-05
4.82592e-05
4.34512e-05
3.64826e-05
4.10813e-05
4.85995e-05
2.02833e-05
4.93025e-05
5.76221e-05
2.02807e-05
5.78918e-05
3.64414e-05
4.89768e-05
4.34222e-05
4.10096e-05
4.10345e-05
4.85264e-05
3.64295e-05
5.80189e-05
2.16151e-05
2.16178e-05
2.16097e-05
2.16128e-05
5.8589e-05
5.19505e-05
4.65125e-05
4.72969e-05
5.25603e-05
4.6507e-05
5.25024e-05
5.23078e-05
5.17678e-05
4.65212e-05
4.72464e-05
5.25704e-05
5.23542e-05
4.65168e-05
5.24161e-05
2.38171e-05
2.37943e-05
2.38024e-05
5.99417e-05
2.16245e-05
2.16234e-05
6.03183e-05
2.16228e-05
2.16224e-05
5.37728e-05
4.65295e-05
5.29876e-05
4.8303e-05
5.41311e-05
4.65243e-05
5.28335e-05
5.97974e-05
2.16186e-05
2.16207e-05
5.93456e-05
2.16227e-05
2.16237e-05
5.35046e-05
4.82055e-05
4.65186e-05
5.26727e-05
5.2765e-05
5.30513e-05
4.65283e-05
5.36128e-05
4.82635e-05
4.65248e-05
5.26729e-05
5.30181e-05
4.6526e-05
5.29263e-05
2.37938e-05
2.38024e-05
3.65254e-05
4.23485e-05
4.11557e-05
4.80313e-05
4.11845e-05
4.75198e-05
3.65106e-05
2.02787e-05
5.57145e-05
4.92729e-05
2.02727e-05
5.66515e-05
3.65561e-05
4.18313e-05
4.12667e-05
4.57793e-05
4.12357e-05
3.65713e-05
4.67119e-05
2.02794e-05
5.75654e-05
4.9284e-05
5.7318e-05
2.02805e-05
3.64689e-05
4.83413e-05
4.11078e-05
4.31443e-05
3.64831e-05
4.83064e-05
4.10807e-05
2.02786e-05
4.92953e-05
5.75901e-05
2.02815e-05
5.75419e-05
2.02807e-05
5.79141e-05
4.9297e-05
2.02814e-05
5.77447e-05
3.64417e-05
4.33073e-05
4.87426e-05
4.1008e-05
3.64301e-05
4.82042e-05
4.1034e-05
3.64667e-05
4.11074e-05
4.79062e-05
4.30057e-05
3.64804e-05
4.10806e-05
4.79088e-05
2.02792e-05
4.92907e-05
5.82231e-05
5.74263e-05
2.02851e-05
2.02789e-05
5.74262e-05
4.9289e-05
2.02782e-05
5.73273e-05
3.64406e-05
4.33307e-05
4.10076e-05
4.93864e-05
4.10334e-05
4.82191e-05
3.64294e-05
3.6526e-05
4.19716e-05
4.6998e-05
4.11565e-05
4.67319e-05
4.11859e-05
3.65117e-05
2.02755e-05
5.65196e-05
4.92796e-05
5.65044e-05
2.02776e-05
3.65247e-05
4.2106e-05
4.11566e-05
4.73999e-05
4.11861e-05
4.73055e-05
3.65097e-05
2.02781e-05
5.71472e-05
4.92862e-05
5.73055e-05
2.02779e-05
3.64446e-05
4.95418e-05
4.10077e-05
4.3625e-05
3.64315e-05
4.91974e-05
4.10336e-05
2.02855e-05
5.86374e-05
4.93112e-05
2.02853e-05
5.85555e-05
3.64711e-05
4.3366e-05
4.76614e-05
4.11079e-05
3.64838e-05
4.87347e-05
4.108e-05
2.02864e-05
4.93044e-05
5.70853e-05
2.02799e-05
5.80938e-05
2.02808e-05
5.84885e-05
4.92963e-05
2.02847e-05
5.79518e-05
3.64679e-05
4.32602e-05
4.11082e-05
4.74702e-05
3.64806e-05
4.10804e-05
4.82327e-05
2.02794e-05
4.92874e-05
5.7026e-05
2.02764e-05
5.72981e-05
5.88279e-05
2.16145e-05
2.16179e-05
2.16146e-05
2.1618e-05
5.87359e-05
5.21037e-05
5.23622e-05
4.65054e-05
4.73507e-05
4.65089e-05
5.1323e-05
5.24788e-05
5.20748e-05
5.23692e-05
4.65172e-05
4.73553e-05
5.24802e-05
5.12965e-05
4.65214e-05
5.87202e-05
2.1611e-05
2.16143e-05
2.16157e-05
5.80045e-05
2.16191e-05
5.25199e-05
4.65112e-05
4.73088e-05
5.25996e-05
4.65098e-05
5.25543e-05
5.26848e-05
5.24867e-05
4.65239e-05
4.73414e-05
5.26092e-05
5.25622e-05
4.65224e-05
5.26603e-05
2.38266e-05
2.38169e-05
2.37934e-05
2.38005e-05
5.92299e-05
2.16141e-05
2.16175e-05
5.8711e-05
2.16192e-05
2.16226e-05
5.37064e-05
5.31268e-05
4.875e-05
4.6536e-05
5.28685e-05
4.65283e-05
5.45766e-05
5.36736e-05
5.31263e-05
4.87433e-05
4.65484e-05
4.65402e-05
5.28722e-05
5.45426e-05
5.30541e-05
4.65135e-05
5.26002e-05
4.84123e-05
5.26972e-05
5.26096e-05
4.65212e-05
5.30331e-05
4.6526e-05
5.2617e-05
4.83818e-05
5.2587e-05
4.65329e-05
5.27055e-05
6.0166e-05
2.1626e-05
2.16294e-05
2.16233e-05
2.16267e-05
6.07129e-05
2.37953e-05
2.38024e-05
3.65279e-05
4.23368e-05
4.80939e-05
4.11561e-05
4.74814e-05
4.1185e-05
3.65132e-05
2.02797e-05
5.547e-05
4.92738e-05
5.63515e-05
2.02723e-05
3.65585e-05
4.20111e-05
4.55902e-05
4.12672e-05
4.66827e-05
3.65736e-05
4.12356e-05
2.0282e-05
5.78479e-05
4.92894e-05
5.73314e-05
2.02842e-05
3.65244e-05
4.2363e-05
4.7559e-05
4.11555e-05
4.75552e-05
4.11845e-05
3.6509e-05
2.02805e-05
5.67572e-05
4.92837e-05
2.02782e-05
5.73256e-05
3.65563e-05
4.20938e-05
4.63831e-05
4.12663e-05
3.65719e-05
4.72583e-05
4.12348e-05
2.02779e-05
5.71374e-05
4.92838e-05
5.73089e-05
2.02775e-05
3.64693e-05
4.80274e-05
4.11079e-05
4.319e-05
3.6483e-05
4.81916e-05
4.10803e-05
2.02805e-05
4.92974e-05
5.78777e-05
5.75517e-05
2.02841e-05
2.02815e-05
5.78043e-05
4.92979e-05
2.02815e-05
5.76542e-05
3.64426e-05
4.34449e-05
4.90761e-05
4.10077e-05
4.83368e-05
4.10336e-05
3.64312e-05
3.64669e-05
4.74141e-05
4.11075e-05
4.31017e-05
3.64797e-05
4.78781e-05
4.10798e-05
2.02815e-05
4.92959e-05
5.86654e-05
5.79351e-05
2.02856e-05
2.02791e-05
5.69621e-05
4.92844e-05
2.02759e-05
5.71269e-05
3.64416e-05
4.35154e-05
4.9686e-05
4.1007e-05
4.87356e-05
4.1033e-05
3.643e-05
2.38257e-05
2.38164e-05
2.38243e-05
2.38149e-05
5.38309e-05
5.29517e-05
4.83097e-05
4.65366e-05
5.39205e-05
5.28768e-05
4.65316e-05
5.98924e-05
2.16206e-05
2.16177e-05
5.94666e-05
2.16225e-05
2.16199e-05
5.37583e-05
5.2939e-05
4.83647e-05
4.65347e-05
5.38121e-05
5.2901e-05
4.65296e-05
5.35953e-05
4.83192e-05
4.65265e-05
5.26726e-05
5.30019e-05
5.27658e-05
4.65316e-05
5.37374e-05
4.65156e-05
5.26823e-05
4.83306e-05
5.31048e-05
5.28632e-05
4.65245e-05
5.98085e-05
2.16203e-05
2.16185e-05
5.97268e-05
2.16202e-05
2.16184e-05
2.38017e-05
2.37929e-05
2.38008e-05
2.37846e-05
2.3778e-05
2.37822e-05
2.37751e-05
6.13178e-05
2.16323e-05
2.16289e-05
2.16311e-05
2.16277e-05
6.15837e-05
5.4653e-05
5.29542e-05
4.65473e-05
4.96194e-05
5.38799e-05
4.65605e-05
5.31638e-05
5.47083e-05
5.2978e-05
4.65358e-05
4.96163e-05
5.39342e-05
4.65481e-05
5.31826e-05
6.05962e-05
2.16232e-05
2.16199e-05
5.99131e-05
2.16291e-05
2.16258e-05
5.54463e-05
4.6575e-05
4.97922e-05
5.37322e-05
4.65675e-05
5.60385e-05
5.34473e-05
5.54828e-05
4.65617e-05
4.96897e-05
5.36918e-05
4.6554e-05
5.60551e-05
5.34414e-05
2.0286e-05
4.93248e-05
5.87541e-05
2.02844e-05
5.92182e-05
2.0284e-05
4.93263e-05
5.91895e-05
5.92574e-05
2.02842e-05
3.63726e-05
5.08658e-05
4.5232e-05
4.08759e-05
4.08973e-05
5.08267e-05
3.63614e-05
3.63953e-05
4.96461e-05
4.49444e-05
4.09642e-05
4.09405e-05
3.64059e-05
5.05233e-05
2.02855e-05
4.9333e-05
5.91332e-05
2.02828e-05
5.94528e-05
3.63319e-05
5.07888e-05
4.60805e-05
4.08353e-05
3.63401e-05
4.08154e-05
5.13303e-05
3.63705e-05
4.49502e-05
4.08745e-05
5.08535e-05
4.08963e-05
5.0476e-05
3.63602e-05
2.02881e-05
5.89796e-05
4.93239e-05
2.02864e-05
5.94137e-05
3.63945e-05
4.48491e-05
4.09626e-05
5.00392e-05
4.09391e-05
3.6406e-05
5.04766e-05
2.02852e-05
5.9302e-05
4.93241e-05
5.94138e-05
2.02845e-05
3.63326e-05
4.6219e-05
5.10668e-05
4.08343e-05
3.63415e-05
5.12835e-05
4.08141e-05
3.63312e-05
4.63162e-05
4.08339e-05
5.11092e-05
3.63398e-05
4.08138e-05
5.15271e-05
2.02835e-05
5.91801e-05
4.93244e-05
2.02818e-05
5.925e-05
6.0453e-05
2.16265e-05
2.16299e-05
2.16222e-05
2.16257e-05
6.07051e-05
5.48885e-05
5.32274e-05
4.65386e-05
4.91007e-05
4.65436e-05
5.48475e-05
5.32927e-05
5.48574e-05
5.32321e-05
4.65511e-05
4.91117e-05
5.32993e-05
5.48091e-05
4.65557e-05
6.0568e-05
2.1624e-05
2.16274e-05
2.16232e-05
6.07036e-05
2.16266e-05
5.46727e-05
4.65626e-05
4.94768e-05
5.33679e-05
4.65488e-05
5.32301e-05
5.51337e-05
5.4638e-05
4.6574e-05
4.94383e-05
5.33625e-05
5.32396e-05
4.65606e-05
5.51036e-05
2.37812e-05
2.37754e-05
2.37631e-05
6.23269e-05
2.16312e-05
2.16346e-05
6.16345e-05
2.16345e-05
2.1638e-05
5.683e-05
4.65724e-05
5.36067e-05
5.04839e-05
5.40104e-05
5.58718e-05
4.65838e-05
5.67979e-05
4.65844e-05
5.3604e-05
5.05238e-05
5.58316e-05
4.65961e-05
5.4005e-05
2.37653e-05
3.63742e-05
4.50493e-05
5.09879e-05
4.08746e-05
5.07059e-05
4.0897e-05
3.63636e-05
2.02894e-05
5.86278e-05
4.93266e-05
5.92647e-05
2.02857e-05
3.63972e-05
4.4817e-05
4.96499e-05
4.09634e-05
5.04607e-05
3.64079e-05
4.09395e-05
2.0287e-05
5.9424e-05
4.93293e-05
5.93835e-05
2.02872e-05
3.63698e-05
4.48289e-05
5.07299e-05
4.08741e-05
5.00225e-05
4.08965e-05
3.63604e-05
2.02839e-05
5.8816e-05
4.9315e-05
2.02838e-05
5.87705e-05
3.63929e-05
4.4723e-05
4.99292e-05
4.09627e-05
3.64051e-05
5.00173e-05
4.09388e-05
2.02826e-05
5.90464e-05
4.93153e-05
5.87206e-05
2.02853e-05
2.02864e-05
5.93606e-05
4.93339e-05
2.0285e-05
5.95941e-05
2.37823e-05
2.37808e-05
2.37739e-05
5.6373e-05
5.38356e-05
5.04376e-05
4.65795e-05
5.39719e-05
5.63551e-05
4.65888e-05
6.17366e-05
2.16297e-05
2.16266e-05
6.19058e-05
2.16278e-05
2.16246e-05
5.63456e-05
5.38518e-05
4.65689e-05
5.04825e-05
5.63597e-05
5.39718e-05
4.65779e-05
2.37634e-05
0.00020209
0.000186402
0.000202085
0.000202965
0.000202972
0.000215206
0.0002146
5.77865e-05
0.000112978
8.14148e-05
8.14002e-05
5.76061e-05
0.000107468
7.79493e-05
7.79335e-05
7.77257e-05
5.75317e-05
7.77079e-05
5.76338e-05
0.000109189
7.85842e-05
7.85672e-05
7.88339e-05
7.88162e-05
5.76112e-05
7.61447e-05
6.37117e-05
4.80129e-05
4.97411e-05
4.96129e-05
6.38104e-05
7.58627e-05
5.76737e-05
8.17822e-05
8.18012e-05
0.000112969
8.13853e-05
5.76618e-05
8.13678e-05
5.74966e-05
0.000109177
7.85597e-05
7.85767e-05
7.88e-05
7.88179e-05
5.76154e-05
5.7565e-05
7.85536e-05
0.000109168
7.85704e-05
5.75675e-05
7.87608e-05
7.88603e-05
5.75571e-05
7.7947e-05
7.7929e-05
0.000107471
5.75106e-05
7.77151e-05
7.76993e-05
7.50225e-05
6.34105e-05
4.86959e-05
5.00067e-05
6.33211e-05
7.52676e-05
5.01437e-05
7.34304e-05
6.27175e-05
4.96516e-05
5.05994e-05
6.26508e-05
7.36068e-05
5.07139e-05
5.7685e-05
7.79257e-05
7.79416e-05
0.00010747
7.77145e-05
5.769e-05
7.76983e-05
5.80487e-05
7.63499e-05
0.000104893
7.6336e-05
7.615e-05
5.80391e-05
7.61322e-05
8.92664e-05
9.65075e-05
5.38762e-05
5.62579e-05
5.38401e-05
9.59049e-05
8.9816e-05
7.49802e-05
6.33869e-05
4.99532e-05
4.86936e-05
6.33011e-05
5.00228e-05
7.52344e-05
8.8698e-05
5.60515e-05
9.47769e-05
5.37777e-05
5.37428e-05
9.53965e-05
8.81847e-05
7.43936e-05
4.90044e-05
6.29572e-05
5.03346e-05
6.30387e-05
5.01762e-05
7.41881e-05
5.76521e-05
7.79847e-05
7.78997e-05
0.000107477
7.76728e-05
5.76201e-05
7.77572e-05
5.76757e-05
0.000106661
7.69068e-05
7.68611e-05
7.71116e-05
5.77153e-05
7.70835e-05
5.78542e-05
7.63271e-05
0.00010488
7.62547e-05
5.77607e-05
7.60458e-05
7.61269e-05
8.92631e-05
9.65047e-05
5.38823e-05
5.62683e-05
9.59026e-05
5.38775e-05
8.98066e-05
7.43922e-05
6.2955e-05
4.89863e-05
5.04806e-05
5.03331e-05
7.42009e-05
6.30219e-05
7.49841e-05
4.99242e-05
6.33835e-05
4.86569e-05
5.00617e-05
6.32936e-05
7.52328e-05
8.86963e-05
5.60734e-05
9.47792e-05
5.38622e-05
9.53989e-05
5.38292e-05
8.81987e-05
8.71555e-05
9.43006e-05
5.3838e-05
5.5864e-05
8.76025e-05
5.39082e-05
9.36921e-05
7.34579e-05
6.26936e-05
5.06958e-05
4.96487e-05
7.35968e-05
6.26259e-05
5.0892e-05
7.3439e-05
6.2725e-05
4.96766e-05
5.07596e-05
7.35969e-05
5.08666e-05
6.26619e-05
8.7155e-05
9.43048e-05
5.38898e-05
5.5865e-05
8.76104e-05
9.36895e-05
5.39082e-05
0.000185271
0.000186398
0.000202087
0.000202962
0.00020297
0.000215204
0.000214597
0.000204731
0.000204736
0.000187543
0.000203849
0.000203855
0.000215806
0.000216399
0.000204729
0.000204736
0.000187543
0.00020385
0.000203855
0.000215807
0.000216399
0.000204726
0.000204732
0.000187537
0.000203846
0.000203852
0.000215804
0.000216396
0.000204726
0.000204733
0.000187537
0.000203846
0.000203853
0.000215804
0.000216396
0.000186406
0.000202084
0.00020209
0.000202967
0.000202974
0.000215207
0.000214599
0.000186401
0.00020208
0.000202087
0.000202963
0.00020297
0.000215204
0.000214597
9.33891e-05
5.73023e-05
5.41795e-05
9.94264e-05
5.42643e-05
9.99713e-05
9.26923e-05
7.8094e-05
4.90374e-05
4.71157e-05
6.4611e-05
6.47428e-05
4.90078e-05
7.76837e-05
9.3355e-05
5.73214e-05
9.94166e-05
5.42942e-05
9.99514e-05
5.42819e-05
9.2693e-05
7.86622e-05
6.52821e-05
4.86385e-05
4.68438e-05
7.9119e-05
6.51384e-05
4.87488e-05
9.38977e-05
5.75945e-05
0.000101164
5.44059e-05
9.45966e-05
0.000100633
5.43654e-05
7.80583e-05
4.9204e-05
4.71196e-05
6.46203e-05
6.47466e-05
4.90288e-05
7.76905e-05
5.75922e-05
0.000111818
8.04022e-05
8.03856e-05
8.0788e-05
8.07738e-05
5.75609e-05
0.000200311
0.000184144
0.000183028
0.000201203
0.000200319
0.000213362
0.000213982
0.000201201
0.000201206
0.000183033
0.000200315
0.000200321
0.000213364
0.000213986
0.000201195
0.000201202
0.000183024
0.00020031
0.000200318
0.000213361
0.000213982
8.86878e-05
5.60977e-05
9.47828e-05
5.38779e-05
9.53956e-05
5.38784e-05
8.81921e-05
7.49908e-05
6.34124e-05
4.98928e-05
4.86616e-05
7.52496e-05
6.332e-05
5.00562e-05
8.9257e-05
5.62695e-05
9.65007e-05
5.38514e-05
8.98134e-05
9.58951e-05
5.3881e-05
7.43922e-05
5.04712e-05
4.89698e-05
6.29427e-05
6.3029e-05