/*--------------------------------*- C++ -*----------------------------------*\
| =========                 |                                                 |
| \\      /  F ield         | OpenFOAM: The Open Source CFD Toolbox           |
|  \\    /   O peration     | Version:  v2006                                 |
|   \\  /    A nd           | Website:  www.openfoam.com                      |
|    \\/     M anipulation  |                                                 |
\*---------------------------------------------------------------------------*/
FoamFile
{
    version     2.0;
    format      ascii;
    class       surfaceScalarField;
    location    "500";
    object      phi;
}
// * * * * * * * * * * * * * * * * * * * * * * * * * * * * * * * * * * * * * //

dimensions      [0 3 -1 0 0 0 0];
oriented        oriented;


internalField   nonuniform List<scalar> 
41099
(
7.42262e-08
-2.31026e-08
9.89972e-05
-9.90483e-05
9.25501e-08
-4.27202e-08
9.89813e-05
-9.90311e-05
1.5586e-06
1.53428e-06
0.00027417
-5.19863e-07
-5.17011e-07
-0.000276226
1.27041e-08
2.90472e-08
1.94603e-07
0.000284508
-0.00028467
2.85278e-08
3.20995e-08
1.92275e-07
0.000284409
-0.000284569
-1.06913e-08
2.25165e-07
-7.27071e-08
3.49272e-09
0.00023654
-0.000236685
1.25814e-07
-3.45556e-08
0.000197147
-0.000197262
2.23127e-07
-7.14457e-08
-2.35414e-08
0.000236506
-0.000236645
-2.15972e-10
-2.16812e-08
5.29721e-07
0.000260443
-0.000260726
3.87939e-07
9.00352e-07
1.1615e-06
-5.18804e-07
1.41258e-07
7.1555e-07
-5.56132e-07
3.54692e-08
-1.26224e-06
-0.00113535
3.18399e-08
3.43059e-07
0.000253049
-0.000253285
-5.18151e-08
9.25404e-07
7.75405e-07
-1.20067e-06
-1.37237e-06
5.79671e-07
-0.00113728
-2.86167e-08
5.22921e-07
0.000260416
-0.000260688
9.244e-07
7.88268e-07
-1.19924e-06
-1.36619e-06
5.85416e-07
-0.00113722
-5.38054e-07
2.21262e-07
3.49887e-09
-2.12544e-08
-7.82091e-08
0.000236531
-0.000236656
1.34532e-07
-5.24806e-08
0.000197118
-0.000197243
-6.52102e-10
-2.39633e-08
5.07199e-07
0.000260387
-0.000260649
4.75844e-07
8.06649e-07
1.10075e-06
-5.26318e-07
1.13192e-07
7.46512e-07
-5.35266e-07
5.31337e-08
-1.22655e-06
-0.00113636
6.54319e-08
3.31621e-07
0.000252998
-0.000253232
5.30062e-08
8.17522e-07
8.16649e-07
-1.17575e-06
-1.33841e-06
6.09045e-07
-0.00113719
2.20618e-07
-8.04127e-08
-1.18549e-08
0.000236481
-0.000236606
1.37993e-07
-2.1125e-09
-2.03619e-08
0.000197041
-0.000197157
5.07789e-07
-2.41947e-08
0.000260355
-0.000260619
3.11956e-07
-1.50569e-06
7.21286e-07
7.35577e-07
-5.53616e-07
-1.24004e-06
4.43533e-08
1.20928e-06
-4.23869e-07
2.18382e-07
-0.00113538
7.98271e-07
8.049e-07
-1.17755e-06
-1.34827e-06
6.06426e-07
-0.00113715
-6.26589e-08
6.04008e-08
3.6607e-07
0.000252912
-0.000253137
-1.58792e-06
9.59152e-07
-5.49762e-07
4.40128e-08
1.10406e-06
-5.48525e-07
8.72092e-08
-0.00113502
-1.23812e-06
-1.27075e-07
-4.82911e-08
3.27902e-07
0.000252992
-0.000253212
6.76023e-08
1.61974e-09
0.000197093
-0.0001972
-2.14841e-08
3.66956e-08
9.90057e-05
-9.90445e-05
1.4499e-06
0.000274108
-4.43191e-07
-4.6259e-07
-0.000276158
-8.33605e-08
1.81326e-07
0.000284505
-0.000284628
-4.00586e-08
4.74721e-08
-7.10507e-08
1.91846e-07
0.000284628
-0.000284756
-1.0093e-09
9.90205e-05
-9.90596e-05
-2.08282e-08
-2.2276e-07
5.28466e-07
-2.83089e-09
0.000260368
-0.00026065
2.25638e-07
8.00917e-07
1.18984e-06
-4.03604e-07
2.33306e-07
7.13391e-07
-5.6472e-07
-1.25392e-06
2.97814e-08
-0.00113584
-1.40945e-07
8.9313e-07
7.78943e-07
-1.19821e-06
-1.36836e-06
5.84038e-07
-0.00113696
-1.40253e-07
3.7722e-08
3.7515e-07
0.000253019
-0.000253244
-2.18536e-07
5.23524e-07
-4.89285e-08
0.000260362
-0.000260639
5.97571e-07
-1.54682e-06
9.37455e-07
7.26896e-07
-5.50369e-07
-1.24256e-06
4.42502e-08
1.05806e-06
-5.425e-07
7.52386e-08
-0.00113603
9.26827e-07
7.87034e-07
-1.1928e-06
-1.35623e-06
5.8415e-07
-0.00113688
-1.19459e-07
-4.80944e-08
6.85866e-08
3.25903e-07
0.000252957
-0.000253184
-2.793e-08
1.31486e-08
-7.54273e-08
0.000236518
-0.00023665
-3.00582e-08
0.000197115
-0.000197226
-4.1895e-08
-7.34343e-08
0.000236492
-0.000236623
-1.41012e-09
-1.10244e-08
0.000197082
-0.000197189
0.000274119
-5.29072e-07
-5.41656e-07
-0.000276183
-5.64407e-08
-1.23493e-08
1.62383e-07
0.000284605
-0.000284747
-5.35238e-08
-1.15847e-08
1.62482e-07
0.000284516
-0.000284662
9.90221e-05
-9.90769e-05
9.90135e-05
-9.90685e-05
3.77546e-08
-2.49226e-08
6.18178e-08
-5.13025e-08
-0.000218169
-9.85988e-09
-1.96282e-08
2.38174e-08
2.9405e-08
3.99248e-08
8.17526e-05
4.68514e-09
-8.17972e-05
4.30998e-08
8.17356e-05
7.89769e-10
-8.17795e-05
6.35359e-08
7.04411e-08
-0.00021822
2.04844e-08
1.02609e-08
-0.000227746
-8.73684e-08
2.16727e-08
8.57394e-08
1.41597e-07
0.000186355
-0.000186463
-9.45727e-08
0.000258837
3.04117e-07
1.52562e-07
-0.000259004
1.63142e-08
1.19845e-07
-1.37973e-08
2.14364e-07
-0.00022785
1.17995e-07
4.97047e-08
-0.000227674
-8.07943e-08
3.30475e-08
6.9263e-08
1.34887e-07
0.000186302
-0.000186404
-1.07554e-07
0.000258713
2.93968e-07
1.66707e-07
-0.000258874
2.75787e-08
1.15831e-07
-6.83442e-09
2.0156e-07
-0.000227777
1.05417e-07
7.26726e-08
-0.000145175
-9.10873e-09
2.87109e-08
4.45549e-09
1.28102e-08
0.000173252
-1.54932e-08
-0.000173322
-6.63586e-08
0.000229477
3.57106e-09
2.06748e-07
-0.000229617
-3.08736e-08
7.96279e-09
-1.38534e-08
1.13435e-07
8.11076e-09
-0.000145237
-1.45847e-08
7.15288e-09
9.32587e-08
-8.01054e-05
7.06823e-09
-4.65235e-08
0.000268862
1.65507e-07
-0.000269012
-2.33206e-08
5.67712e-08
-8.01438e-05
6.40044e-08
-0.000145107
1.86754e-08
2.0886e-08
-1.63383e-08
-1.8713e-08
0.00017322
-0.000173288
-5.89741e-08
0.000229409
1.93912e-07
-0.000229535
-3.25559e-08
-2.87796e-08
-2.48144e-08
1.09182e-07
-0.000145165
-1.93878e-08
7.95362e-08
-2.84912e-08
-0.000145179
3.03139e-08
-6.84692e-09
1.146e-08
-6.87514e-08
0.000229517
-1.78107e-08
1.87188e-07
-0.000229639
7.55692e-10
0.000173251
-5.11018e-09
-0.000173325
-1.54568e-08
-3.60895e-08
1.28696e-09
9.96118e-08
3.3402e-09
-0.00014525
-3.68165e-09
7.01033e-08
-8.86684e-09
-8.00757e-05
2.98906e-08
-6.30679e-08
0.000268886
1.53724e-07
-0.000269047
-5.87114e-08
7.35726e-08
-8.01354e-05
6.05631e-08
-0.000145089
1.20577e-08
2.75701e-08
-8.15819e-09
-9.58034e-09
0.000173208
-0.000173284
-7.16339e-08
0.00022939
-1.4912e-08
1.98906e-07
-0.000229515
-3.41647e-08
-1.29442e-08
1.04721e-07
-7.35717e-09
-0.000145163
-1.16908e-08
8.03925e-08
-8.00467e-05
5.70414e-09
-4.60541e-08
0.000268745
1.63407e-07
-0.000268898
-7.79285e-09
-5.85434e-09
6.60459e-08
-8.01001e-05
5.96484e-08
9.89193e-09
5.54666e-08
6.60651e-10
-0.000218432
2.35143e-08
2.05086e-08
3.26867e-08
2.61808e-08
-5.45133e-09
8.17829e-05
8.80987e-08
-8.18656e-05
4.84753e-10
8.18001e-05
8.25789e-08
-8.18831e-05
5.53894e-08
4.23412e-08
-0.000218534
7.53129e-08
7.25519e-08
3.95093e-08
-0.000227912
-3.71857e-08
2.38885e-08
9.52433e-08
0.000186459
-0.000186549
0.00025872
-7.3402e-08
9.30078e-08
2.65233e-07
-0.000258824
9.11007e-08
-8.03017e-08
3.64359e-08
2.73103e-08
8.14566e-08
1.31976e-07
-0.000227967
-0.000227996
-4.24703e-08
2.74436e-08
3.0401e-08
1.06209e-07
0.000186522
-0.000186617
-5.96852e-08
0.000258895
2.79575e-07
7.8054e-08
-0.000259002
-7.29816e-08
9.5974e-08
-2.69982e-09
2.52773e-08
1.48612e-07
-0.000228056
9.0177e-08
8.16285e-09
3.32461e-09
-0.000145198
3.31739e-08
-2.0961e-10
-1.86501e-09
-7.52992e-08
0.000229484
7.07664e-09
2.07156e-07
-0.00022961
7.60875e-09
0.000173278
-9.48242e-09
-0.000173352
1.50981e-08
-3.66064e-08
-2.66774e-08
1.04982e-07
4.36331e-09
-0.00014527
9.95726e-09
9.06925e-08
-1.71255e-09
-8.01162e-05
7.32465e-09
-5.44847e-08
0.000268888
1.71766e-07
-0.000269029
-1.41795e-08
6.71729e-08
-8.01663e-05
6.59935e-08
-0.000145141
2.93009e-08
2.14878e-09
-7.22834e-10
-6.45809e-08
0.000229413
-3.60608e-08
1.86845e-07
-0.000229541
-1.01316e-08
0.000173249
-0.000173321
-3.48618e-08
-3.52226e-08
1.00866e-07
-7.47906e-09
-0.000145208
-2.22908e-08
7.70837e-08
-8.00631e-05
1.3232e-08
-4.55836e-08
0.00026878
1.52677e-07
-0.000268934
-1.32239e-08
1.04187e-08
4.98412e-08
-8.01162e-05
5.84098e-08
-0.000218092
-2.21792e-08
-2.70544e-08
5.67492e-08
5.65692e-08
4.02711e-08
8.17276e-05
1.70975e-08
-8.1785e-05
3.97652e-08
8.17131e-05
1.56167e-08
-8.17684e-05
8.89269e-08
8.92262e-08
-0.00021819
3.91645e-09
7.28944e-10
-0.000227661
7.8905e-08
-6.49234e-08
8.10579e-08
1.1515e-07
0.000186446
-0.000186556
-1.31011e-07
0.000258721
1.86974e-07
2.91005e-07
-0.000258905
8.53504e-08
2.83127e-09
-3.02158e-08
1.31037e-08
2.00056e-07
-0.000227788
1.0038e-07
1.07833e-07
-0.00022759
7.86111e-08
-6.5612e-08
8.20703e-08
1.11353e-07
0.000186393
-0.0001865
-1.30081e-07
0.000258604
1.80026e-07
2.90915e-07
-0.000258782
8.57811e-08
5.95619e-09
-3.10223e-08
1.8729e-08
1.9719e-07
-0.000227717
1.06071e-07
1.12387e-07
4.00818e-07
4.8757e-07
-0.00114487
4.82841e-07
-6.09817e-08
-0.00115112
4.04227e-07
2.74807e-08
-0.00115159
-6.27939e-08
8.14427e-09
-0.00115976
4.78931e-07
-0.00115104
-5.2563e-07
-5.43528e-09
-0.00115971
-5.26172e-07
4.17396e-07
3.39905e-07
-0.0011445
3.87111e-07
-0.0011508
4.643e-07
-1.06488e-07
-0.00115123
-7.58609e-08
-0.00115917
5.61382e-07
-0.00114446
5.10379e-07
4.92323e-07
-0.00115117
-0.00115913
-5.35382e-07
-0.000250361
-1.27438e-08
4.30304e-09
6.75521e-08
9.11208e-08
-3.43687e-07
0.000268378
-0.000268769
-3.54835e-07
0.00026881
-0.000269205
-0.000250644
-0.00027356
1.16666e-08
4.22769e-08
-8.14451e-08
5.23588e-07
0.000259209
-3.23849e-08
-0.000259515
-4.22019e-08
0.000273392
-5.61968e-09
-0.000274016
-1.90823e-08
2.26108e-08
-1.59465e-10
-8.86657e-08
-0.000274363
-2.24835e-08
-3.53886e-09
-8.66078e-08
-0.000272913
2.78804e-08
4.64108e-07
0.000259604
-0.000259903
0.000269234
1.28133e-07
-0.000269423
4.4753e-08
4.34609e-09
-0.000273671
-0.000273484
2.86408e-08
5.7385e-08
-1.07749e-07
5.10799e-07
0.000259133
-0.000259425
-5.34166e-08
-5.76065e-08
0.000273375
-0.000273999
-2.65701e-08
1.88989e-08
-0.000274288
-1.09795e-07
-4.82454e-08
-0.00027352
5.48076e-08
4.65693e-08
-8.86056e-08
4.91545e-07
0.000259173
-5.57967e-08
-0.000259446
-4.94768e-08
0.00027337
8.64293e-09
-0.000273997
-2.41765e-08
-5.80731e-09
-1.50903e-09
-1.15739e-07
-0.000274301
-4.84311e-08
-1.56762e-09
-1.15125e-07
-0.000272893
5.89122e-08
4.39913e-07
0.000259589
-0.000259866
0.000269208
1.50751e-07
-0.000269396
3.55319e-08
3.73385e-08
-0.000273645
-0.000273449
4.00975e-08
3.59176e-08
-7.37632e-08
-4.04847e-08
0.000273351
-0.000273972
5.05445e-07
0.000259066
-4.71988e-08
-0.000259349
-2.12588e-10
-2.27369e-08
-7.55714e-08
-0.000274257
-4.10129e-08
-0.000272774
4.25828e-08
-7.0765e-08
4.63e-07
0.000259452
-0.000259739
9.04523e-08
0.000269073
-0.000269258
4.3001e-08
5.06087e-08
-0.000273536
0.000269145
-0.000269343
1.63082e-07
1.82261e-08
-8.07555e-08
-0.000250467
-9.18281e-08
1.47615e-07
1.37666e-07
0.000268714
-2.48218e-07
-0.000269068
-2.31468e-07
0.000268352
-0.000268707
-0.000250666
-0.0002735
1.64103e-08
2.12915e-08
-4.05385e-08
-1.83903e-08
0.000273356
-2.43304e-08
-0.000273983
5.27069e-07
0.000259127
-2.60852e-08
-0.000259424
1.38104e-08
-1.61048e-09
-2.31503e-08
-6.30082e-08
-0.000274297
-2.3307e-08
-1.5714e-08
-0.000272855
-4.73254e-08
2.96623e-08
4.77573e-07
0.000259543
-0.000259837
7.08364e-08
0.000269184
-0.000269366
5.97666e-08
2.39617e-08
-0.000273623
-0.000273478
7.44168e-08
3.75592e-08
-1.07715e-07
-7.4958e-08
0.000273361
-0.000273979
5.05319e-07
0.000259101
-7.38716e-08
-0.000259395
7.65826e-09
-4.94718e-08
-1.41729e-07
-0.000274262
-6.08287e-08
-0.000272839
5.35394e-08
-1.364e-07
4.44567e-07
0.00025951
-0.000259807
1.6485e-07
0.000269126
-0.000269336
4.54362e-08
1.48876e-08
-0.000273614
-0.000250202
2.44726e-08
2.86204e-08
5.03052e-08
5.99157e-08
-3.57482e-07
0.000268267
-0.000268696
-3.55147e-07
0.000268695
-0.000269133
-0.000250518
-1.52941e-06
4.98015e-07
-5.68547e-07
1.03597e-06
6.51908e-08
6.3344e-07
-6.76371e-07
-1.34234e-06
-2.54207e-08
1.03187e-06
0.00111282
-0.000272619
1.55743e-06
-5.71562e-07
-5.74503e-07
1.52062e-06
0.000270687
1.05994e-06
0.00111107
1.04061e-06
5.0759e-07
-1.56087e-06
6.20445e-08
-5.76842e-07
-1.34193e-06
-2.57335e-08
-6.80337e-07
6.23777e-07
1.0224e-06
1.04118e-06
5.31092e-07
-1.5244e-06
5.88267e-08
-5.74543e-07
-1.34498e-06
-2.31349e-08
-6.83513e-07
6.26511e-07
0.00111203
-0.000270517
-1.31208e-08
-6.77445e-09
-5.72457e-07
-5.78538e-07
0.000270714
1.56794e-06
5.04251e-07
-5.66701e-07
6.3177e-07
-6.79824e-07
-2.02366e-08
-1.34739e-06
1.03769e-06
0.00111193
1.06941e-06
7.30592e-08
5.17057e-07
5.6159e-07
0.00111347
9.84752e-08
0.00010196
-9.32891e-09
-1.06593e-07
-2.48327e-07
4.90409e-07
1.25438e-07
0.000261586
-0.00110838
1.47267e-08
6.81856e-07
-1.23737e-06
-1.42452e-06
4.84016e-07
0.0011093
1.05993e-06
-0.000263426
-4.21936e-07
-2.82438e-09
0.000263259
-5.22485e-08
6.43982e-07
-0.000296452
1.03992e-07
-9.30228e-08
2.87995e-07
-1.34386e-08
0.000296167
-0.000296361
-9.22146e-08
2.87299e-07
-1.42278e-08
1.01364e-07
0.000296078
1.21241e-09
1.06444e-06
-1.43064e-06
4.75863e-07
6.73809e-07
-1.24122e-06
-3.04093e-07
-2.26271e-09
-0.000263228
-6.08261e-08
1.69112e-07
-3.95998e-09
0.00024625
-0.000246359
-2.13343e-08
-1.70262e-07
0.00110835
1.06415e-06
-1.42224e-06
4.72271e-07
-1.23801e-06
6.66898e-07
-1.71163e-07
-6.12174e-08
0.000261777
1.3707e-07
-0.000261779
9.69018e-08
-3.04207e-07
0.000263397
-0.000263205
1.72389e-07
-6.18803e-08
1.8448e-08
0.00020527
-0.000205417
-4.1991e-08
0.000246211
-0.000246323
-1.68679e-07
-2.80154e-08
1.05687e-06
-1.42085e-06
4.76793e-07
-1.23532e-06
6.70301e-07
0.00110821
-1.71555e-07
-6.39871e-08
1.34375e-07
-0.000261739
9.85806e-08
0.000261742
-2.95332e-07
-0.000263196
1.65137e-07
-6.63176e-08
0.000263385
1.76224e-08
-0.000205407
-4.19117e-08
0.00020526
-0.000246318
-2.80125e-08
-1.67119e-07
0.000246212
-7.05071e-08
2.02764e-07
-0.000296657
1.09862e-08
-6.99979e-08
2.02794e-07
-0.000296567
9.81993e-09
0.000102046
-0.000102099
0.000102039
-0.000102092
2.87465e-07
-1.24762e-08
0.000296075
1.09536e-07
-9.65757e-08
2.85753e-07
-1.24842e-08
0.000296209
-1.01087e-08
0.000101971
-4.7662e-08
0.000205116
-5.47761e-09
0.00024606
-1.82349e-08
-2.0814e-07
6.78601e-07
-1.23848e-06
4.83528e-07
-1.42579e-06
0.0011093
1.06686e-06
-2.47132e-07
4.93848e-07
1.15759e-07
0.000261519
-4.24321e-07
0.000263233
6.46005e-07
-6.10278e-08
6.01423e-09
-4.5077e-08
0.000205062
0.000246017
-2.07639e-07
-2.74172e-08
0.000101959
-4.83116e-09
0.000101952
6.69555e-08
0.000101916
-2.3461e-08
-2.51976e-07
-0.000265698
4.10391e-07
2.59701e-07
0.000265568
1.88588e-07
-2.46434e-08
-0.000193273
0.000193095
-1.716e-07
-0.000236979
3.18192e-07
0.000236769
-2.51825e-07
-0.000265575
4.06846e-07
0.00026545
2.56789e-07
1.88301e-07
-2.46564e-08
-0.000193211
0.000193033
-1.7176e-07
-0.000236911
3.15732e-07
0.000236703
4.57426e-08
-8.43349e-05
8.42645e-05
4.58957e-08
-8.43171e-05
8.42466e-05
-0.000227974
0.000227723
7.57753e-08
8.24319e-05
-1.43722e-08
-0.000281475
-3.71451e-08
2.68158e-08
0.000281238
2.07784e-07
2.96909e-08
3.35111e-07
-8.27213e-09
8.2403e-05
1.59938e-07
-1.27023e-08
0.000150427
-2.58057e-08
-2.14283e-07
2.23977e-09
4.33802e-07
-0.000239817
-1.15934e-07
0.000239665
2.73365e-07
-0.00018031
4.71482e-09
3.73749e-09
0.000180131
4.09325e-07
-9.28516e-10
0.000150308
6.95695e-08
8.23776e-05
-1.82002e-08
-5.27411e-08
1.19897e-08
2.56365e-07
-0.00028136
-3.44289e-08
2.95239e-08
0.000281105
2.17924e-07
2.76491e-08
3.30633e-07
-1.69228e-08
8.23601e-05
-1.31326e-08
1.5381e-07
0.000150349
-2.12859e-07
-2.27431e-08
4.31166e-07
-0.000180276
1.41507e-08
0.000180096
-0.000239732
-1.14209e-07
0.000239571
2.7638e-07
4.00351e-07
0.000150233
7.19845e-08
8.23789e-05
-2.18187e-08
-5.33387e-08
1.21746e-08
2.57395e-07
-0.000281348
-3.54379e-08
2.84476e-08
2.19145e-07
0.000281094
3.28927e-08
3.3283e-07
-1.7779e-08
8.23612e-05
1.54758e-07
-1.66066e-08
0.000150346
-2.83832e-08
-2.14427e-07
4.28761e-07
-0.000239726
-1.13712e-07
2.7218e-07
0.000239568
-0.000180271
1.41486e-08
0.000180093
3.9689e-07
0.000150228
0.000237098
2.66312e-07
-1.93808e-07
-1.89784e-07
3.39422e-07
-1.9926e-07
-0.000265701
2.17062e-07
1.88655e-07
3.00441e-07
-1.97728e-09
-1.00147e-07
1.0726e-07
1.40428e-07
-0.000193393
-9.10149e-09
-1.43103e-07
2.02432e-07
4.16785e-07
2.75059e-07
-1.36255e-08
0.000237031
2.66565e-07
-1.94322e-07
-1.90443e-07
3.38276e-07
-1.98813e-07
-0.000265584
2.1924e-07
1.91708e-07
3.01279e-07
-2.4951e-09
-1.00423e-07
1.04887e-07
1.39614e-07
-0.000193332
-9.21828e-09
-1.43254e-07
2.04502e-07
4.14447e-07
2.73298e-07
-1.43975e-08
0.00022819
-5.53764e-08
-5.49589e-08
3.57195e-08
-8.43797e-05
3.52855e-08
-8.43616e-05
-1.31167e-07
-0.000236702
1.92097e-07
-1.40343e-07
1.94504e-07
0.000236587
-2.53244e-07
0.000265443
4.03725e-07
2.62839e-07
0.00019303
1.89665e-07
-2.42391e-08
1.18459e-08
1.96634e-07
0.000295867
6.61966e-08
-5.85174e-09
0.000192917
-1.73611e-07
3.16238e-07
2.13781e-07
0.000265438
1.80259e-07
1.91812e-07
-0.00023678
-1.3293e-07
-1.42301e-07
1.91358e-07
0.000236672
0.000265616
-2.53217e-07
4.08014e-07
2.61763e-07
1.8807e-07
0.000193097
-2.36458e-08
1.98317e-07
1.23941e-08
-7.11535e-08
7.10682e-08
0.000295999
2.1612e-07
1.84536e-07
0.000265606
-1.70485e-07
3.17847e-07
-6.0187e-09
0.000192983
-3.22479e-08
-0.000227726
-3.21502e-08
0.000227507
8.42465e-05
4.6724e-08
4.73447e-08
8.42627e-05
8.42084e-05
8.42245e-05
-2.51429e-08
0.000101925
3.63042e-08
-8.23303e-05
-1.00485e-08
8.2304e-05
0.00028093
-8.08953e-08
2.60643e-08
3.14859e-07
-4.42835e-08
1.66381e-07
0.000204969
2.34436e-08
1.88388e-07
0.00028071
-8.18535e-09
1.09394e-07
-0.000150146
-3.92718e-09
0.00015003
-1.91616e-08
-1.63757e-07
-2.08944e-09
2.90114e-07
0.000245955
0.00023944
-1.57859e-07
3.90918e-07
4.05465e-09
0.000179914
4.68698e-09
2.46392e-07
0.000239307
1.36137e-09
0.000179745
-8.2298e-05
4.06755e-08
-9.04309e-09
8.22664e-05
-7.6539e-08
0.000280779
3.04124e-08
3.27268e-07
-4.04969e-08
1.61761e-07
0.000204918
2.21546e-08
-1.44452e-08
2.53804e-08
1.97627e-07
0.000280556
-0.000150076
-5.44783e-09
1.13939e-07
0.000149959
-1.64276e-07
-2.21682e-08
2.92035e-07
0.000245909
1.35722e-08
0.00017988
-1.55228e-07
0.000239329
4.00431e-07
0.000179712
2.58272e-07
0.000239188
-4.40964e-07
-0.000268952
0.000268665
-4.41664e-07
-0.000269388
5.64065e-07
0.000269098
-0.000256231
0.000255982
0.000256057
4.60195e-07
4.60628e-07
-5.78861e-07
-5.84847e-07
-1.16141e-07
-0.00026857
-1.16683e-07
-0.000269
1.0524e-07
-0.000255992
1.0597e-07
0.000256167
-4.45246e-07
0.00026908
5.72689e-07
0.000268716
-4.43348e-07
-5.06877e-09
-4.80908e-09
-1.07003e-06
0.00027283
0.000269097
-7.26558e-08
0.000269468
5.48711e-07
1.90385e-08
0.00111844
5.94704e-09
0.00112526
5.64432e-07
0.00111774
5.09757e-07
0.00111819
0.0011248
-0.000272409
-1.6003e-07
-8.5752e-08
1.06949e-07
0.000273182
1.83294e-07
0.000271519
6.10307e-07
0.000266603
1.00517e-07
-0.000266873
1.32127e-07
1.10437e-07
0.000261581
1.26954e-07
-0.000273085
0.00027165
9.98998e-08
0.000266716
-0.000271078
-1.15426e-07
5.49619e-08
0.000271927
-5.24249e-08
1.57042e-07
-4.59899e-09
0.000263449
6.53341e-07
0.000263803
-0.000264017
-5.84427e-08
0.000269988
-0.000270528
5.46358e-09
-0.000271781
0.000263982
-4.17726e-09
0.000270688
0.000272305
-6.24014e-07
1.29159e-07
9.77954e-08
-0.00026676
1.00549e-07
1.07372e-07
1.02332e-07
0.000270927
-6.66927e-07
6.41815e-08
-6.16095e-08
6.50361e-07
4.3378e-09
1.32497e-07
-0.000263837
-5.99725e-08
-0.000269817
-5.98348e-09
5.09258e-09
-6.19196e-07
-1.86449e-07
0.000272219
1.19297e-07
-0.000271409
1.63195e-07
0.000271546
1.18764e-07
4.97009e-07
-0.000266668
1.00991e-07
1.01283e-07
0.000266781
1.01431e-07
1.17912e-07
0.000272989
5.88966e-08
-6.58434e-07
0.000270867
6.46094e-07
-5.40562e-08
-0.000269802
-6.02211e-08
0.000270501
-0.00026376
1.36712e-07
0.000263939
0.000271728
-6.19679e-07
-1.87453e-07
0.000272224
1.39388e-07
-0.000271396
1.64468e-07
0.000271534
1.20788e-07
4.99822e-07
-0.000266652
9.82392e-08
1.03043e-07
0.000266768
1.12129e-07
1.04256e-07
0.000273009
6.60261e-08
-6.5637e-07
0.000270864
6.44791e-07
-6.15985e-08
-0.000269803
-5.9955e-08
0.000270503
-0.000263751
1.31316e-07
0.000263928
0.00027171
-1.60131e-07
-0.000272325
-8.92707e-08
1.14216e-07
0.000273092
0.000271442
1.77731e-07
6.21171e-07
0.000266501
1.01852e-07
1.27092e-07
1.06148e-07
-6.59537e-08
0.000261513
-1.81047e-07
0.00027157
1.15849e-07
1.0173e-07
0.000266614
6.02403e-08
-0.00027102
-1.21986e-07
0.000271874
1.58613e-07
-6.12142e-08
0.000263423
0.000269974
-5.91568e-08
6.605e-07
0.00026372
0.000270672
0.000263897
-0.0011157
4.87052e-07
0.0011165
-1.53226e-06
6.57342e-07
-6.68044e-07
2.26092e-09
-1.33731e-06
-5.65934e-07
1.05499e-06
8.37663e-08
1.01755e-06
-0.000294513
9.41912e-08
-9.23553e-08
-8.14851e-09
2.72862e-07
0.000294246
8.80212e-08
-0.000293616
-8.4193e-08
2.5169e-07
0.000293353
8.09921e-09
-0.00111212
-1.40742e-09
0.00111304
-4.95345e-07
1.03387e-06
6.95362e-07
-1.23325e-06
4.99246e-07
-1.41546e-06
-0.000244993
3.89031e-10
3.93835e-07
-1.75684e-07
-2.33228e-08
0.000244797
-0.00111731
-1.53533e-06
4.97028e-07
1.05484e-06
-5.73624e-07
8.07818e-08
6.59396e-07
-6.72304e-07
-1.34431e-06
5.66502e-09
0.00111813
1.0048e-06
-0.00111396
-6.6e-09
-4.91433e-07
7.08705e-07
-1.23367e-06
-1.42038e-06
5.07658e-07
0.00111488
1.02216e-06
1.09007e-08
-0.00020327
2.17093e-07
0.000203084
-4.15239e-08
-1.01492e-06
-9.90739e-07
3.94229e-07
-0.00111671
5.25058e-07
0.0011178
-1.53432e-06
1.02596e-06
4.83431e-07
0.00111271
-5.76332e-07
1.02594e-06
6.01307e-08
6.27108e-07
-6.78903e-07
-1.34237e-06
-2.0012e-08
-1.00832e-06
-9.98109e-07
0.00111976
5.18109e-07
5.19974e-07
-0.00111879
-0.00111527
-1.52729e-06
1.01178e-06
4.96865e-07
0.0011161
-5.65237e-07
1.04508e-06
8.03298e-08
6.46623e-07
-6.6516e-07
-1.3391e-06
-1.00515e-08
-0.000273287
1.52771e-06
1.56528e-06
0.000271337
-5.69651e-07
-5.73526e-07
-1.08298e-06
-1.0431e-06
0.000273328
-0.000271212
2.74783e-09
7.18371e-09
1.01023e-06
5.11178e-07
0.00111237
6.42794e-07
-6.73326e-07
-1.34232e-06
-2.11673e-08
0.00111478
1.01027e-06
-0.00111394
5.02472e-07
-1.57006e-06
8.16828e-08
-5.71054e-07
-1.34371e-06
-1.38659e-08
-6.70337e-07
6.5151e-07
-5.65877e-08
0.000260726
-1.44377e-07
1.10286e-07
-0.000260728
9.30509e-08
-6.09689e-08
1.95499e-08
1.81238e-07
-0.000294709
-1.55789e-06
1.05122e-06
5.43175e-07
0.00111226
-5.738e-07
1.07129e-06
6.81949e-08
6.31299e-07
-6.80958e-07
-1.34476e-06
-2.15122e-08
0.00111575
1.01824e-06
-0.00111492
5.00822e-07
-1.52933e-06
7.9105e-08
-5.67232e-07
-1.33945e-06
-1.46319e-08
-6.71022e-07
6.44366e-07
1.07929e-06
0.00111481
1.0179e-06
-0.00111396
5.01866e-07
-1.56702e-06
7.32601e-08
-5.76441e-07
-1.34222e-06
-1.02515e-08
-6.70147e-07
6.46548e-07
1.04317e-06
4.81502e-07
-0.00111476
6.93947e-08
-1.53656e-06
-5.85516e-07
-1.35776e-06
-1.76513e-08
6.45883e-07
-6.95381e-07
1.0406e-06
-1.85784e-08
-4.98334e-07
-0.00111117
-1.42506e-06
4.94469e-07
6.90742e-07
-1.23613e-06
1.63094e-09
2.71992e-07
-1.40037e-07
-2.35622e-08
-0.000245103
-5.79345e-07
-5.73953e-07
0.000270703
-1.04123e-06
0.000273313
-0.000271195
-5.70974e-10
3.95178e-09
1.022e-06
5.11203e-07
0.0011129
1.02705e-06
6.78745e-08
6.3194e-07
-6.76624e-07
-2.20621e-08
-1.34447e-06
1.01239e-06
-0.00111442
5.00678e-07
-1.52971e-06
7.00901e-08
-5.73444e-07
-1.33741e-06
-1.01131e-08
6.45456e-07
-6.70146e-07
1.02673e-06
0.00111541
-0.00111457
5.01882e-07
-1.51497e-06
5.79061e-08
-5.49006e-07
1.01298e-06
-1.33446e-06
-3.93285e-08
-6.3816e-07
6.3646e-07
-1.08528e-06
-3.69864e-08
-0.000271176
3.81792e-08
-2.39701e-08
6.08592e-08
0.000101538
-0.000101575
1.5732e-06
1.5295e-06
-5.69419e-07
-5.76426e-07
0.000271371
1.00294e-06
5.02088e-07
0.00111563
-5.74744e-07
1.08476e-06
7.48105e-08
6.53351e-07
-6.66522e-07
-1.3432e-06
-1.17761e-08
-2.28709e-07
4.76222e-07
0.000260464
1.07886e-07
-0.000260182
-2.14148e-07
4.59187e-07
0.000259922
1.03735e-07
1.01479e-06
5.00858e-07
0.00111659
-5.70568e-07
1.04621e-06
7.37822e-08
6.49023e-07
-6.69415e-07
-1.34576e-06
-8.74456e-09
-1.56145e-06
1.01133e-06
4.92555e-07
0.00111564
-5.65033e-07
1.08011e-06
8.31344e-08
6.50104e-07
-6.6523e-07
-1.34253e-06
-9.81674e-09
-5.63992e-07
-5.68298e-07
0.000271356
0.00111629
5.10362e-07
1.03305e-06
-5.75854e-07
6.40599e-08
1.009e-06
6.48383e-07
-6.81973e-07
-1.60742e-08
-1.34573e-06
0.000101304
-2.11509e-08
5.8684e-08
-0.000101342
1.56436e-06
-0.000273607
-5.57882e-07
0.000271649
-5.6809e-07
1.51958e-06
8.47473e-08
0.00010123
-0.000101549
-1.06251e-08
0.000101467
5.78339e-08
0.00010131
-2.15966e-08
-0.000101346
0.00111303
-0.00111212
6.98854e-07
-1.23297e-06
4.99401e-07
-1.41933e-06
1.03273e-06
-3.96465e-07
-2.6109e-09
-0.000263485
6.31033e-07
-5.11438e-08
0.000263304
-9.47618e-08
-2.29874e-07
-0.000260743
4.74905e-07
1.17255e-07
0.000260475
4.94431e-07
1.0417e-06
-1.32809e-06
-3.0887e-08
-6.30946e-07
6.45562e-07
-1.52345e-06
6.28996e-08
-5.49577e-07
7.33429e-09
0.00111394
-1.41982e-06
4.9978e-07
-1.23415e-06
6.97984e-07
1.02974e-06
-2.60968e-07
-5.37242e-10
0.000263477
-0.000263294
1.35784e-07
-5.7202e-08
-4.72467e-08
-1.35292e-07
0.000260215
-0.000260228
1.17185e-07
7.89931e-08
-0.000273322
1.56894e-06
-5.64392e-07
-5.75169e-07
0.00027136
-9.24815e-08
-0.000294468
-7.79633e-09
2.71036e-07
0.000294203
4.99868e-08
-0.000293773
1.3667e-07
2.74539e-08
0.000273633
-1.09165e-06
-0.000271516
-2.66344e-08
4.23505e-08
-5.36714e-08
0.000293596
-0.000293812
1.99209e-07
2.31696e-08
-1.31569e-08
-0.000101545
0.000101466
0.000101308
-1.73771e-08
-0.000101344
-1.30459e-08
0.000101239
1.56922e-06
-5.70213e-07
0.000271667
-5.67579e-07
-8.26586e-08
8.93886e-08
2.64092e-07
4.46738e-09
0.000293321
-1.16382e-08
0.000101237
-0.000245033
-2.29591e-08
-1.76294e-07
0.000244837
-0.000203947
-4.59325e-08
0.00020375
8.74704e-10
0.000244415
-0.000244531
-2.40852e-08
-1.21477e-07
0.000203315
-0.000203435
-3.23551e-08
-0.000263454
6.29016e-07
-5.35559e-08
0.00026327
-4.96803e-07
-1.41995e-06
5.00403e-07
-1.23393e-06
6.99302e-07
1.02912e-06
0.00111533
-0.00111452
1.08124e-06
-5.68045e-07
7.55735e-08
6.48703e-07
-6.5547e-07
-7.23034e-09
-1.33034e-06
1.02077e-06
0.00111614
1.08533e-06
-1.33251e-06
-5.48551e-09
6.5593e-07
-6.55874e-07
1.00741e-06
-1.5648e-06
8.15229e-08
-5.76535e-07
-1.3644e-07
0.000260176
-4.63984e-08
1.04123e-07
-0.000260182
8.52843e-08
-2.24427e-07
-9.43158e-08
-0.000260707
1.12214e-07
4.6557e-07
0.000260448
-2.61772e-07
0.000263447
-0.000263268
1.38205e-07
-5.53948e-08
-0.000203394
-3.37017e-08
-0.0002039
1.1144e-08
-4.36428e-08
0.000203708
0.000244375
-0.000244491
-2.1997e-08
-1.23056e-07
7.05047e-07
-1.23162e-06
-1.42036e-06
5.06811e-07
0.00111485
1.02335e-06
-3.85664e-07
4.02983e-09
6.28439e-07
-5.44932e-08
0.000263284
-2.10995e-07
4.63146e-07
1.01325e-07
0.00025995
2.86594e-09
-2.44285e-08
-1.61582e-07
0.000244212
-3.97716e-08
0.000203132
-5.66795e-07
1.08707e-06
9.22214e-08
6.60062e-07
-6.6027e-07
-1.33609e-06
-6.24101e-09
0.00111694
9.99132e-07
-8.97218e-08
4.66648e-07
0.00025991
1.0595e-07
-3.85885e-07
6.24981e-07
-4.98372e-08
0.000263261
-2.08231e-08
-1.62622e-07
0.000244175
1.79957e-09
2.82999e-07
0.000245654
-0.000245764
-1.48297e-07
-2.60046e-08
2.74193e-10
4.2472e-07
0.00024606
-2.10168e-07
-2.10254e-08
2.17834e-08
1.59146e-07
0.000204638
-4.15214e-08
-0.000204777
-2.15302e-08
6.63915e-08
0.000101786
-0.000101831
2.83666e-07
2.55706e-09
0.000245641
-0.000245747
-2.39514e-08
-1.56278e-07
2.37309e-08
1.56547e-07
0.000204617
-3.9751e-08
-0.000204757
0.00112199
-1.32553e-07
-4.91562e-07
-0.00112086
5.3266e-07
5.30852e-07
5.08553e-07
0.00111479
5.35204e-07
4.27352e-07
0.00111471
5.4232e-07
5.26613e-07
0.00111444
5.14028e-07
5.46861e-07
0.00111447
0.00111778
-0.00111679
5.2339e-07
5.18512e-07
0.00111742
-0.00111643
5.18512e-07
5.24431e-07
-2.84931e-07
1.85255e-09
0.000263469
-0.000263283
-6.0809e-08
1.57695e-07
5.09554e-07
1.03194e-06
0.00111371
1.03487e-06
-1.34303e-06
-2.75556e-08
-6.78735e-07
6.31774e-07
-1.53547e-06
5.81837e-08
-5.70972e-07
-5.92931e-08
-1.60337e-07
0.000261309
9.96611e-08
-0.000261321
1.32313e-07
-1.83796e-08
0.00111027
1.05585e-06
-1.42537e-06
4.8537e-07
-1.24159e-06
6.80979e-07
-8.40618e-09
9.92519e-08
0.000101954
-2.54058e-08
6.78764e-08
0.000101778
-0.00010182
3.20927e-09
-2.81069e-07
0.000263466
-0.000263276
1.49526e-07
-6.16436e-08
0.00110921
-1.37112e-08
1.05852e-06
6.73576e-07
-1.2404e-06
-1.42578e-06
4.79498e-07
-1.03526e-07
-2.50728e-07
4.9609e-07
1.13588e-07
0.000261582
5.02483e-07
1.03494e-06
0.00111357
1.02858e-06
-1.34287e-06
-1.67905e-08
-6.72619e-07
6.36689e-07
-1.52674e-06
7.11687e-08
-5.69332e-07
-1.89702e-09
-4.28447e-07
0.000263253
6.46917e-07
-5.32328e-08
-8.59111e-09
0.00111016
1.04456e-06
-1.4243e-06
4.88274e-07
-1.23687e-06
6.83563e-07
-6.28382e-08
-1.56144e-07
0.000261315
1.03935e-07
-0.000261322
1.22029e-07
-1.06656e-06
-1.02382e-06
0.000272963
-0.000270853
-1.42826e-08
-5.45664e-09
6.35895e-08
-7.1046e-08
0.000295458
2.30357e-08
-0.00029567
1.95913e-07
6.40239e-08
-7.16212e-08
0.000295373
2.02808e-08
-0.000295579
1.93368e-07
5.48295e-10
2.58525e-07
-0.000244531
-1.23404e-07
-2.44678e-08
0.000244419
-0.000203973
1.2258e-08
2.27909e-07
-4.57465e-08
0.000203778
-0.00024505
-9.02503e-10
3.9452e-07
0.000244852
-1.74268e-07
-2.19976e-08
1.88366e-08
1.35315e-07
-3.24964e-08
-0.000203465
0.000203343
2.58356e-07
-3.64685e-09
0.000244414
-0.000244522
-1.91464e-08
-1.26795e-07
-0.000203945
9.02262e-09
2.23694e-07
-4.19598e-08
0.000203754
-0.000245035
3.95964e-07
5.60898e-09
0.000244834
-2.90663e-08
-1.71905e-07
2.15468e-08
1.39378e-07
-3.56816e-08
-0.00020344
0.000203315
0.00112303
-5.12206e-07
5.30141e-07
-2.46917e-08
5.22193e-07
5.17692e-07
0.00111876
5.10535e-07
5.21594e-07
0.00111841
-0.000101526
-6.68852e-09
8.3311e-08
0.000101449
-2.59806e-08
6.5391e-08
0.0001013
-0.00010134
-6.68099e-09
-2.56207e-07
-0.000263293
1.31129e-07
-5.18798e-08
0.000263477
0.00111297
-0.00111204
7.36601e-10
1.02812e-06
6.90879e-07
-1.23427e-06
-1.41857e-06
4.98526e-07
-0.000260782
-9.09375e-08
-2.22892e-07
4.70147e-07
1.03081e-07
0.000260523
4.9936e-07
1.04457e-06
0.00111692
1.00941e-06
-1.3373e-06
-8.69974e-09
-6.66355e-07
6.52785e-07
-1.52953e-06
7.31215e-08
-5.64742e-07
-0.000263485
5.17314e-09
-3.96339e-07
0.0002633
6.34458e-07
-5.76669e-08
-5.18717e-09
1.02779e-06
-1.41531e-06
5.02727e-07
-1.23332e-06
6.97978e-07
0.0011139
-4.96853e-08