/*--------------------------------*- C++ -*----------------------------------*\
| =========                 |                                                 |
| \\      /  F ield         | OpenFOAM: The Open Source CFD Toolbox           |
|  \\    /   O peration     | Version:  v2006                                 |
|   \\  /    A nd           | Website:  www.openfoam.com                      |
|    \\/     M anipulation  |                                                 |
\*---------------------------------------------------------------------------*/
FoamFile
{
    version     2.0;
    format      ascii;
    class       volVectorField;
    location    "500";
    object      U;
}
// * * * * * * * * * * * * * * * * * * * * * * * * * * * * * * * * * * * * * //

dimensions      [0 1 -1 0 0 0 0];


internalField   nonuniform List<vector> 
14298
(
(-8.96424e-06 8.25437e-06 0.0722568)
(1.53029e-05 -1.59063e-05 0.072252)
(0.000166209 0.000170469 0.106542)
(2.43462e-06 4.89448e-05 0.0895304)
(4.95285e-05 1.41588e-06 0.0895206)
(-1.86682e-06 4.91876e-05 0.0942538)
(-1.15186e-05 2.12604e-05 0.0837254)
(-6.16155e-06 4.82664e-05 0.0942554)
(5.28043e-06 0.000111781 0.102595)
(5.69283e-05 0.000101507 0.107879)
(8.92709e-06 7.2884e-05 0.0958846)
(1.54846e-05 0.00010453 0.108504)
(-6.17916e-06 0.000110707 0.102593)
(-2.57751e-05 0.00010388 0.108502)
(4.7089e-05 4.6064e-06 0.0942478)
(2.88629e-05 -2.22561e-05 0.0837243)
(0.000106177 3.20312e-06 0.10257)
(9.2758e-05 6.5756e-05 0.107879)
(7.0196e-05 2.09672e-05 0.0958779)
(9.34315e-05 2.29544e-05 0.108508)
(4.78937e-05 -2.16716e-06 0.094243)
(2.42256e-05 7.75683e-06 0.0837097)
(0.000107178 -5.16096e-06 0.102569)
(8.6198e-05 -4.49373e-05 0.107876)
(9.26492e-05 -1.35381e-05 0.108507)
(8.0405e-05 -2.27077e-05 0.0958673)
(-0.000106083 -7.7746e-05 0.107873)
(-6.61768e-05 -2.17026e-05 0.0958839)
(-2.60779e-05 6.82999e-06 0.0837276)
(1.13961e-06 -7.74221e-06 0.0722746)
(0.000137986 -0.000144317 0.106524)
(3.86114e-05 -2.28839e-05 0.089557)
(1.93434e-05 -4.07382e-05 0.0895604)
(5.59503e-06 -1.04557e-06 0.0722751)
(-2.73246e-06 -0.000111818 0.102567)
(3.74363e-05 -9.28144e-05 0.107876)
(5.00242e-06 -0.000101508 0.108505)
(1.55548e-05 -8.27521e-05 0.0958709)
(-1.37297e-05 -0.000110416 0.102575)
(-8.03932e-05 -0.000105359 0.107874)
(-3.22136e-05 -0.000103897 0.108504)
(-2.26096e-05 -6.39676e-05 0.0958846)
(-6.81029e-06 -4.62568e-05 0.0942441)
(-8.46239e-06 -2.36257e-05 0.0837167)
(-1.4304e-05 -4.44144e-05 0.094249)
(4.80472e-06 -2.31168e-05 0.0837264)
(-0.000175972 -0.000176414 0.106539)
(-3.40576e-05 -1.20309e-05 0.0895672)
(-1.24589e-05 -3.30957e-05 0.0895654)
(-9.80441e-06 -3.13935e-06 0.0722889)
(-3.99908e-06 -9.33122e-06 0.0722872)
(-8.88242e-06 -3.5804e-06 0.0722941)
(4.12527e-06 -1.77321e-05 0.0722905)
(1.47891e-05 1.41878e-05 0.0853723)
(6.0241e-06 4.19814e-06 0.0693497)
(7.45763e-06 3.11318e-06 0.0693441)
(2.83144e-05 3.07301e-05 0.0853367)
(1.0888e-05 -3.13592e-06 0.0693697)
(2.00075e-06 5.3773e-06 0.0693649)
(3.81537e-06 3.79965e-05 0.0941234)
(-2.92033e-06 4.35589e-05 0.0830363)
(5.1323e-05 9.19276e-05 0.0993897)
(-5.21006e-06 3.755e-05 0.0895556)
(1.61369e-05 6.90548e-05 0.0940742)
(5.78432e-06 2.99493e-05 0.0830553)
(1.63709e-05 5.42205e-05 0.0994375)
(3.24113e-05 7.20748e-06 0.0941167)
(4.25933e-05 -3.61195e-06 0.0830327)
(8.81761e-05 5.59526e-05 0.0993825)
(4.1229e-05 -8.84192e-06 0.0895487)
(6.21927e-05 2.09408e-05 0.0940655)
(3.1879e-05 2.88372e-06 0.0830564)
(4.99779e-05 2.12843e-05 0.0994319)
(-3.96831e-06 1.22012e-06 0.0778654)
(-5.46629e-06 7.4977e-06 0.0796486)
(-1.91502e-06 4.25456e-05 0.0923517)
(-3.21995e-06 2.77661e-05 0.0942716)
(-6.94362e-06 1.0752e-05 0.0778374)
(-4.67912e-06 -1.35751e-06 0.0796734)
(-3.54059e-06 2.18079e-05 0.0923781)
(-7.37789e-07 -1.49008e-06 0.0691661)
(-1.80896e-06 2.64793e-05 0.0876512)
(-1.14222e-05 7.92682e-07 0.0837518)
(-4.79425e-06 6.9951e-06 0.0691154)
(-1.85359e-06 8.42961e-06 0.0876855)
(-9.72229e-06 9.40421e-07 0.0778674)
(-7.51884e-06 7.15592e-06 0.079649)
(-1.21126e-05 3.82977e-05 0.0923612)
(-7.17497e-06 2.60563e-05 0.0942756)
(-9.32438e-06 9.82764e-06 0.077838)
(-7.50862e-06 -1.59357e-06 0.0796747)
(-1.24722e-05 1.62101e-05 0.0923913)
(6.23709e-06 -4.65282e-06 0.0778657)
(3.62505e-05 1.12509e-05 0.0923664)
(1.27475e-05 1.98099e-08 0.0796511)
(2.43988e-05 4.44357e-06 0.0942773)
(1.65544e-05 -1.21155e-06 0.0778437)
(1.66799e-05 7.4195e-06 0.0924002)
(2.94227e-06 -1.68784e-06 0.0796713)
(4.96363e-06 -9.34108e-06 0.0691318)
(2.41282e-05 3.41386e-07 0.0876629)
(1.28427e-05 -2.62161e-05 0.0837463)
(1.45061e-05 -7.87354e-06 0.0690987)
(9.91402e-06 -5.96969e-06 0.0876915)
(4.15024e-06 -4.60242e-06 0.0778586)
(1.20857e-05 -4.60658e-06 0.0796469)
(3.91063e-05 -6.06461e-06 0.0923535)
(2.52527e-05 -3.45114e-06 0.0942717)
(1.47562e-05 -3.12772e-06 0.0778332)
(2.30749e-06 -5.88968e-06 0.0796696)
(1.89228e-05 -6.04001e-06 0.0923882)
(1.57713e-08 -3.84964e-06 0.0691507)
(2.33782e-05 -4.42678e-06 0.0876556)
(6.06304e-06 4.84022e-06 0.0837389)
(1.00634e-05 -7.61005e-07 0.0691114)
(7.56344e-06 -2.81262e-06 0.0876907)
(-7.63226e-06 7.25092e-06 0.0837586)
(-8.09526e-06 -9.3093e-06 0.0723199)
(-6.75822e-06 4.18272e-06 0.085463)
(-4.13916e-06 -3.14704e-05 0.0693974)
(2.97378e-05 3.1487e-06 0.0694041)
(2.14677e-06 -5.72828e-06 0.0854539)
(-8.74246e-06 -2.45089e-05 0.069391)
(2.39053e-05 8.57939e-06 0.0693977)
(1.33714e-05 -2.69782e-05 0.0942227)
(2.38017e-05 -3.93211e-05 0.0831013)
(8.89035e-05 -2.43627e-05 0.0993914)
(2.1252e-05 -1.70846e-05 0.0895962)
(4.67826e-05 -7.6023e-06 0.0994618)
(4.56724e-05 -2.91176e-05 0.0941633)
(8.48551e-06 -3.6512e-05 0.0831259)
(2.29049e-05 -1.77741e-05 0.0942324)
(3.64361e-05 -2.70772e-05 0.0831075)
(1.88768e-05 -9.28856e-05 0.0993964)
(1.46736e-05 -2.30844e-05 0.0895991)
(2.43813e-05 -5.06188e-05 0.0941716)
(3.47278e-05 -1.08096e-05 0.0831324)
(2.582e-06 -5.04784e-05 0.0994685)
(7.52692e-06 8.416e-06 0.0723194)
(-7.48241e-07 -5.22686e-06 0.0778775)
(-4.46847e-06 -4.09174e-05 0.0923501)
(-2.38107e-06 -1.19705e-05 0.0796645)
(-6.93976e-06 -2.45006e-05 0.09427)
(-5.43174e-06 -1.52724e-05 0.0778515)
(-5.65926e-06 -2.17245e-05 0.0923848)
(3.45703e-07 -3.31494e-06 0.0796835)
(2.28146e-06 -5.4247e-08 0.0691748)
(-1.87522e-06 -2.58861e-05 0.0876543)
(-4.88344e-06 -4.76672e-06 0.0837472)
(-3.87316e-06 -9.54833e-06 0.0691268)
(-2.00856e-06 -9.0835e-06 0.0876954)
(-1.9106e-07 -5.50369e-06 0.0778844)
(-1.82095e-05 -3.52291e-05 0.0923636)
(-5.51356e-06 -1.189e-05 0.0796678)
(-1.32536e-05 -2.27709e-05 0.0942747)
(-3.26974e-06 -1.49385e-05 0.0778611)
(-1.37713e-05 -1.70406e-05 0.0923932)
(-1.70331e-06 -3.61518e-06 0.0796865)
(6.70773e-07 -1.70684e-06 0.0691644)
(-7.87846e-06 -2.31944e-05 0.0876671)
(6.96618e-06 -6.36765e-06 0.0837574)
(-2.80938e-07 -1.06043e-05 0.0691266)
(-2.38788e-06 -8.94088e-06 0.0876989)
(-1.74139e-05 -1.7627e-05 0.0853354)
(-5.64661e-06 -5.96401e-06 0.0693321)
(-5.38437e-06 -6.59227e-06 0.0693269)
(-2.7909e-05 -2.76462e-05 0.0853165)
(-3.39678e-06 -2.0777e-07 0.06935)
(1.24628e-06 -4.93096e-06 0.0693432)
(-2.88688e-05 -2.64939e-05 0.0940856)
(-2.88485e-05 -8.58227e-06 0.0830797)
(-8.20537e-05 -5.92251e-05 0.0993622)
(-2.48534e-05 -3.95994e-06 0.0896004)
(-5.69684e-05 -3.54003e-05 0.0940494)
(-4.33847e-05 -3.48061e-05 0.0994039)
(-2.23908e-05 -3.17399e-06 0.0830993)
(-2.63551e-05 -2.80201e-05 0.0940772)
(-7.71044e-06 -2.83315e-05 0.0830763)
(-5.88453e-05 -8.29599e-05 0.0993593)
(-3.78201e-06 -2.4137e-05 0.0895954)
(-3.52028e-05 -5.62586e-05 0.094042)
(-3.48746e-05 -4.42211e-05 0.099399)
(-1.69399e-06 -2.23166e-05 0.0830949)
(-7.92678e-07 1.52038e-06 0.0723213)
(2.27937e-06 -1.59133e-06 0.0723189)
(5.75264e-05 6.61743e-05 0.108795)
(1.63073e-05 6.66211e-05 0.109009)
(5.82953e-05 2.36164e-05 0.109011)
(1.60225e-05 2.2663e-05 0.109129)
(-2.77327e-05 6.66375e-05 0.109008)
(-2.74789e-05 2.19808e-05 0.109127)
(5.0599e-05 -5.76967e-05 0.108793)
(5.66221e-05 -1.88081e-05 0.10901)
(1.15307e-05 -6.41329e-05 0.109009)
(1.4657e-05 -2.1481e-05 0.109129)
(-7.22586e-05 -6.88738e-05 0.10879)
(-3.11094e-05 -6.74683e-05 0.109008)
(-2.84348e-05 -2.33387e-05 0.109127)
(2.8563e-05 3.50212e-05 0.100637)
(-4.36189e-06 2.41944e-06 0.106706)
(0.000157959 0.000108552 0.104386)
(0.000104418 0.000162148 0.104384)
(7.82561e-05 8.40517e-05 0.100545)
(-1.48022e-05 6.25551e-05 0.104503)
(5.68077e-05 -8.68452e-06 0.1045)
(2.36044e-05 1.28088e-05 0.106069)
(1.1071e-05 0.00010264 0.101341)
(8.62096e-06 0.00021612 0.106439)
(5.25857e-06 6.93981e-05 0.10267)
(2.45376e-05 0.000211304 0.105898)
(9.16075e-06 6.18269e-05 0.101426)
(9.38635e-06 1.99037e-05 0.106579)
(3.67281e-05 -8.08721e-07 0.104897)
(1.42694e-05 8.56357e-05 0.0989843)
(5.05642e-05 0.000177715 0.102901)
(-2.99729e-06 4.56258e-05 0.0959462)
(3.22343e-05 1.49764e-06 0.103003)
(4.29879e-05 0.000201025 0.10472)
(8.73673e-06 4.84061e-05 0.0990739)
(-3.15056e-05 6.1634e-06 0.106066)
(-1.57235e-05 9.82558e-05 0.101342)
(-1.30363e-05 0.000214291 0.106437)
(-5.70632e-06 6.76696e-05 0.102671)
(-3.01366e-05 0.00020701 0.105892)
(-1.52645e-05 5.51775e-05 0.101434)
(-1.42684e-05 1.72127e-05 0.106578)
(-5.54805e-06 2.82146e-05 0.106058)
(9.09372e-05 1.47716e-05 0.101322)
(0.000207922 9.60442e-06 0.106432)
(6.12177e-05 4.25377e-06 0.102654)
(0.000198424 2.71045e-05 0.105881)
(4.84563e-05 1.49504e-05 0.101424)
(6.53523e-06 1.14395e-05 0.106572)
(-1.59455e-05 4.73343e-05 0.104888)
(7.87942e-05 2.79719e-05 0.0989799)
(0.000171949 5.88171e-05 0.102895)
(4.55328e-05 4.90787e-06 0.0959398)
(-4.7771e-06 4.24684e-05 0.102997)
(0.000189217 5.05325e-05 0.104705)
(4.23096e-05 2.23741e-05 0.0990804)
(1.13608e-06 -2.20516e-05 0.106052)
(0.00020923 -8.83488e-06 0.106433)
(9.73016e-05 -1.31407e-05 0.101314)
(6.25512e-05 -5.06103e-06 0.10265)
(0.000204088 -2.21944e-05 0.105882)
(8.32904e-06 -9.09353e-06 0.106571)
(5.42043e-05 -1.23986e-05 0.10141)
(-5.95709e-06 -3.20867e-05 0.104873)
(8.48319e-05 -2.35112e-05 0.0989658)
(0.000184586 -3.35473e-05 0.102871)
(4.80895e-05 -1.30073e-05 0.0959354)
(0.000197713 -3.50868e-05 0.104697)
(4.61902e-05 -1.95096e-05 0.0990647)
(4.84845e-06 -2.37684e-05 0.102976)
(-0.00017173 -6.46652e-05 0.102891)
(-3.63122e-05 -8.30192e-06 0.0959524)
(5.42414e-06 -5.13408e-05 0.102986)
(7.33964e-06 -1.22191e-05 0.1007)
(-3.2483e-05 2.5991e-05 0.106693)
(8.26296e-05 -0.000114938 0.104359)
(0.00010908 -8.76911e-05 0.104361)
(3.85815e-05 5.0809e-05 0.104495)
(4.50289e-05 -5.00973e-05 0.100578)
(-5.66776e-05 -4.37189e-05 0.104498)
(1.38618e-05 -9.2274e-06 0.106048)
(4.83579e-07 -0.00021758 0.106432)
(4.80488e-06 -0.000102704 0.101306)
(-2.83052e-06 -6.56955e-05 0.102644)
(1.39044e-05 -0.000212108 0.105879)
(7.51406e-07 -1.58368e-05 0.106569)
(4.03545e-06 -5.92015e-05 0.101399)
(2.34081e-05 -1.00705e-06 0.104869)
(1.3815e-05 -8.8043e-05 0.098959)
(2.60684e-05 -0.00018893 0.102873)
(7.62263e-06 -5.0245e-05 0.0959383)
(2.60847e-05 -0.000204681 0.104695)
(1.6771e-05 -9.07946e-06 0.102978)
(1.05541e-05 -4.87318e-05 0.0990563)
(-3.83271e-05 -2.32034e-06 0.106064)
(-1.87438e-05 -0.000215427 0.106436)
(-2.33822e-05 -9.55769e-05 0.101331)
(-1.51143e-05 -6.43082e-05 0.102653)
(-3.55778e-05 -0.000206247 0.105893)
(-2.15379e-05 -1.345e-05 0.106574)
(-2.35682e-05 -5.23335e-05 0.101423)
(-5.53441e-05 1.15041e-05 0.104892)
(-3.05247e-05 -7.98168e-05 0.0989879)
(-6.37032e-05 -0.000172328 0.102891)
(-1.041e-05 -3.37517e-05 0.0959507)
(-5.76179e-05 -0.000192031 0.104717)
(-2.43758e-05 -4.23094e-05 0.0990815)
(-5.14873e-05 5.14087e-06 0.102985)
(-4.0181e-05 -3.97988e-05 0.100572)
(-1.20334e-05 -1.18485e-05 0.106691)
(-0.000109962 -0.000164971 0.104365)
(-0.000164676 -0.000110894 0.104364)
(-8.20186e-05 -8.20195e-05 0.1005)
(-6.60127e-05 -1.36937e-06 0.104465)
(-1.85245e-06 -6.66412e-05 0.104462)
(-0.000116182 6.95317e-05 0.105614)
(-0.00017419 -0.000174228 0.105241)
(-0.000116729 -6.93811e-05 0.105531)
(-6.95384e-05 -0.000116663 0.105531)
(-3.12488e-05 -3.11385e-05 0.105247)
(-0.000175177 0.000174417 0.10524)
(-0.000116247 -6.93764e-05 0.105614)
(-7.46615e-05 -7.46157e-05 0.105755)
(9.61695e-07 1.19283e-05 0.0744357)
(-0.000124129 4.80548e-05 0.0991161)
(-0.000119193 2.46613e-05 0.105779)
(-0.000179661 9.6268e-06 0.1037)
(-6.92326e-05 -3.08862e-05 0.0932214)
(-3.12122e-05 -6.89227e-05 0.0932209)
(-0.000120055 2.50098e-05 0.105687)
(-0.000131715 1.2516e-05 0.103768)
(-0.000104287 4.10866e-06 0.0981844)
(-0.000120097 -2.50847e-05 0.105687)
(-8.76506e-05 -3.02895e-05 0.0992897)
(-0.00013165 -1.30999e-05 0.103768)
(-4.76062e-05 1.33171e-05 0.0872777)
(-0.000104401 -7.1021e-06 0.098186)
(-2.53708e-05 -0.000120123 0.105687)
(-3.00883e-05 -8.77608e-05 0.0992883)
(-1.46696e-05 -0.000129462 0.103767)
(1.27831e-05 -4.7742e-05 0.0872768)
(-7.51402e-06 -0.000102218 0.0981875)
(-6.30198e-05 -1.82206e-05 0.0933784)
(-1.86097e-05 -6.30656e-05 0.0933744)
(-1.98725e-06 5.32058e-06 0.0745628)
(5.08117e-06 -1.78231e-06 0.074562)
(-3.11293e-05 7.07331e-05 0.0932185)
(-7.02804e-05 3.09301e-05 0.0932249)
(-1.24207e-05 -1.23705e-06 0.074438)
(-6.52749e-05 -1.18072e-05 0.0871321)
(-0.000124787 2.55509e-06 0.0980512)
(-0.000119174 -2.49446e-05 0.105779)
(-0.000124028 -4.40727e-05 0.099116)
(-0.000180399 -1.32842e-05 0.1037)
(-6.47571e-05 9.98677e-06 0.0871308)
(-0.000125785 -6.9479e-06 0.0980511)
(-1.15666e-05 -2.78162e-07 0.0744372)
(-5.45036e-07 -1.14085e-05 0.0744367)
(7.47585e-06 1.6596e-06 0.0744642)
(-0.000137535 -0.000101007 0.101982)
(-4.92872e-05 -4.35317e-06 0.0860503)
(-9.52765e-05 -8.06838e-05 0.0978219)
(-0.00010101 -0.000137262 0.101984)
(-4.48928e-06 -4.93814e-05 0.086047)
(-8.05404e-05 -9.48733e-05 0.0978218)
(-4.26203e-06 -1.36261e-05 0.0714823)
(-1.35596e-05 -4.42557e-06 0.0714774)
(-3.96829e-05 -3.95697e-05 0.0891094)
(3.35262e-06 -4.65534e-06 0.0711268)
(-5.6053e-05 8.79572e-06 0.0917749)
(-7.99137e-05 9.96457e-06 0.0917837)
(7.22616e-06 -1.646e-06 0.0711722)
(-1.65272e-05 -1.31466e-05 0.0806756)
(-0.000130481 6.27516e-06 0.0981716)
(-8.99039e-05 1.05065e-05 0.0965262)
(-3.10214e-05 2.68409e-06 0.0828862)
(-0.00011603 1.09466e-05 0.0965259)
(-3.99301e-05 4.90806e-07 0.0829288)
(-1.00293e-05 -7.49475e-06 0.0806624)
(5.26181e-06 6.57482e-06 0.0711175)
(-6.87348e-05 1.30701e-05 0.0872832)
(-6.34629e-05 -9.34539e-06 0.0917773)
(-7.87099e-05 -9.08874e-06 0.0917936)
(1.32685e-05 3.49704e-06 0.0711714)
(-1.65917e-05 1.45085e-05 0.0806729)
(-0.00012938 -4.65301e-06 0.0981738)
(-3.0053e-05 4.91386e-07 0.0828855)
(-9.20968e-05 -1.24306e-05 0.0965308)
(-3.98921e-05 -1.34163e-06 0.0829288)
(-0.000112345 -1.0385e-05 0.0965343)
(-6.04153e-06 1.30945e-05 0.080659)
(8.38042e-06 5.40015e-06 0.0711191)
(1.33431e-05 -6.95055e-05 0.0872826)
(-8.90721e-06 -6.45289e-05 0.0917756)
(-9.52843e-06 -8.05149e-05 0.0917926)
(3.58999e-06 1.34043e-05 0.071172)
(1.67262e-05 -1.82236e-05 0.080673)
(-7.102e-06 -0.000127254 0.0981719)
(-1.20359e-05 -9.05811e-05 0.0965314)
(-2.15435e-07 -3.05724e-05 0.0828859)
(-1.23018e-05 -0.000110712 0.0965329)
(-2.4886e-07 -4.22659e-05 0.0829284)
(1.38679e-05 -6.62516e-06 0.0806577)
(-0.000102541 -8.33216e-05 0.0979603)
(-9.09597e-05 -7.9297e-05 0.102095)
(-7.74432e-05 -3.18596e-05 0.0933778)
(-3.99228e-05 2.60821e-06 0.0861859)
(-7.00048e-05 -6.93227e-05 0.0979774)
(-0.000138808 -0.000108053 0.102033)
(-4.74834e-05 2.05242e-06 0.0861845)
(-8.34497e-05 -0.000102866 0.0979593)
(-7.93581e-05 -9.08525e-05 0.102089)
(-3.19204e-05 -7.79107e-05 0.0933769)
(2.35714e-06 -3.96525e-05 0.0861772)
(-6.90062e-05 -6.95129e-05 0.0979656)
(-0.000108255 -0.000139015 0.102035)
(1.72192e-06 -4.74992e-05 0.0861813)
(-5.18653e-05 -5.17641e-05 0.0892938)
(-2.27237e-07 -8.09949e-06 0.071597)
(-7.99053e-06 -1.30122e-07 0.0715879)
(-3.59126e-05 -3.565e-05 0.089262)
(-2.61499e-06 -1.1337e-05 0.0715826)
(-1.16195e-05 -2.44584e-06 0.0715774)
(-1.04535e-05 1.49042e-06 0.0745406)
(1.43492e-06 -1.03497e-05 0.0745406)
(-6.7687e-05 6.43076e-05 0.0978408)
(-0.000101846 0.00013632 0.101978)
(-3.84873e-06 4.95733e-05 0.0860445)
(-1.89116e-05 6.20011e-05 0.0932247)
(3.77683e-06 3.87339e-05 0.0860491)
(-8.09659e-05 9.59567e-05 0.0978145)
(-7.57535e-05 8.81624e-05 0.102044)
(-6.39972e-05 6.77108e-05 0.0978357)
(-0.000137157 0.00010175 0.101989)
(-5.01636e-05 3.76384e-06 0.0860542)
(-6.19378e-05 1.85828e-05 0.0932227)
(-8.78721e-05 7.52589e-05 0.102036)
(-9.57306e-05 8.06405e-05 0.097832)
(-3.87157e-05 -3.59371e-06 0.0860502)
(-3.49966e-05 3.49959e-05 0.0890786)
(-1.3774e-05 4.22184e-06 0.0714766)
(-4.45459e-06 1.34957e-05 0.0714845)
(-6.53286e-06 -1.09438e-06 0.0714927)
(-4.08157e-05 4.06592e-05 0.0891097)
(1.17576e-06 6.56804e-06 0.0714989)
(-2.36523e-06 -8.10647e-06 0.0744621)
(5.15062e-06 -3.87173e-06 0.0710818)
(-6.69286e-05 8.20658e-06 0.0916026)
(-4.56705e-05 -1.56871e-05 0.0871279)
(-4.82273e-05 7.16185e-06 0.0916022)
(-4.11009e-06 -5.32939e-06 0.0710413)
(-1.26011e-05 -7.72582e-06 0.0805111)
(-9.9265e-05 3.57806e-06 0.0980671)
(-0.00010589 9.41121e-06 0.0963702)
(-3.97749e-05 3.57984e-06 0.0827443)
(-7.95389e-05 9.57249e-06 0.0963805)
(-2.2074e-05 -8.2916e-06 0.0805247)
(-3.00326e-05 3.37296e-06 0.0827064)
(5.08106e-06 2.92239e-06 0.0710952)
(-7.58554e-05 -9.4999e-06 0.0915992)
(-4.38784e-05 1.38732e-05 0.0871281)
(3.66307e-07 5.55597e-06 0.0710565)
(-5.12902e-05 -7.95347e-06 0.0915927)
(-1.16061e-05 7.80195e-06 0.080512)
(-9.99085e-05 -5.20537e-06 0.0980646)
(-3.88313e-05 4.98804e-07 0.0827441)
(-0.000111767 -1.19526e-05 0.0963693)
(-1.79186e-05 1.29095e-05 0.0805269)
(-2.99072e-05 -2.15868e-06 0.0827061)
(-8.33406e-05 -1.03155e-05 0.0963713)
(-0.000140881 -0.000180668 0.104524)
(-0.000180616 -0.000140728 0.104525)
(-0.00012781 -0.000127746 0.102817)
(-0.00013595 -0.00013614 0.102846)
(-0.000176608 -0.000176641 0.105173)
(-9.94796e-05 -1.65311e-05 0.104571)
(-1.66547e-05 -9.94611e-05 0.104569)
(-8.79985e-05 -8.79442e-05 0.102929)
(-0.00014402 -0.000186301 0.104486)
(-0.000186258 -0.000144226 0.104487)
(-8.33582e-05 8.34469e-05 0.102899)
(-0.000182122 0.000140912 0.104523)
(-0.000141257 0.00018141 0.104527)
(-3.0304e-05 3.00002e-05 0.105314)
(-9.72098e-05 1.32965e-05 0.104605)
(-0.00012909 0.000128773 0.102818)
(-1.38661e-05 9.7463e-05 0.104608)
(-7.53275e-05 2.47898e-05 0.105791)
(-2.52531e-05 2.5188e-05 0.105796)
(-7.53043e-05 -2.4798e-05 0.105791)
(-2.48488e-05 -7.51697e-05 0.105791)
(-2.52607e-05 -2.5215e-05 0.105796)
(-2.94704e-05 5.60945e-05 0.104665)
(-0.000237715 7.8784e-05 0.103768)
(-0.000152258 4.75995e-05 0.10165)
(-8.56431e-05 3.56436e-05 0.0991896)
(-0.000244457 5.69805e-05 0.104551)
(-2.45716e-05 6.87174e-05 0.103868)
(-0.000102406 4.67622e-05 0.101746)
(-4.68212e-05 3.22745e-05 0.105069)
(-0.000126954 9.73859e-06 0.10378)
(-0.000171836 2.94593e-05 0.103134)
(-0.000236401 1.20853e-05 0.105145)
(-0.000239428 3.15088e-05 0.104976)
(-0.00011806 3.01205e-05 0.103223)
(-5.52085e-05 1.28944e-05 0.105222)
(-0.00024811 5.76777e-05 0.104511)
(-0.000106656 4.46208e-05 0.101805)
(-3.34382e-05 5.58279e-05 0.104624)
(-0.000155954 4.58883e-05 0.101712)
(-0.000242886 3.24695e-05 0.104918)
(-0.000182104 1.28899e-05 0.103687)
(-0.000124855 3.26569e-05 0.103236)
(-5.90247e-05 1.37796e-05 0.105155)
(-5.21161e-05 3.28284e-05 0.10501)
(-0.000176085 3.20102e-05 0.103148)
(-0.000238487 1.30668e-05 0.105078)
(-0.000246197 -5.85526e-05 0.104511)
(-2.59737e-05 -6.96392e-05 0.103858)
(-0.000127 -4.54128e-05 0.0992124)
(-0.000107402 -4.36941e-05 0.101807)
(-0.000154356 -4.69634e-05 0.101713)
(-0.00023981 -8.19767e-05 0.103753)
(-3.46532e-05 -5.57681e-05 0.104623)
(-0.000241262 -3.20693e-05 0.104918)
(-0.000181268 -9.93574e-06 0.103687)
(-5.94411e-05 -1.36883e-05 0.105154)
(-0.000124917 -3.33524e-05 0.103237)
(-0.000238151 -1.218e-05 0.105078)
(-0.000173361 -2.9837e-05 0.103149)
(-5.29034e-05 -3.28373e-05 0.105009)
(-5.9018e-05 -0.000246396 0.104511)
(-6.99127e-05 -2.58943e-05 0.103857)
(-4.54115e-05 -0.000126973 0.0992125)
(-4.50621e-05 -0.000107397 0.101806)
(-4.86341e-05 -0.000154566 0.101713)
(-8.23342e-05 -0.000240019 0.103754)
(-5.64253e-05 -3.46758e-05 0.104623)
(-3.28426e-05 -0.000240528 0.104918)
(-1.24782e-05 -0.000180095 0.103687)
(-1.45273e-05 -5.84112e-05 0.105154)
(-3.54283e-05 -0.000123626 0.103236)
(-1.30785e-05 -0.000236588 0.105079)
(-3.2352e-05 -0.000172835 0.103149)
(-3.37904e-05 -5.23818e-05 0.105009)
(-3.19331e-05 -5.50699e-05 0.104665)
(-0.000238335 -7.78392e-05 0.103767)
(-0.000154612 -4.52129e-05 0.101651)
(-8.41334e-05 -3.37961e-05 0.0991913)
(-2.42689e-05 -6.79039e-05 0.10387)
(-0.00024755 -5.60241e-05 0.104551)
(-0.000104209 -4.5315e-05 0.101744)
(-4.86792e-05 -3.28465e-05 0.105069)
(-0.000127745 -1.3168e-05 0.10378)
(-0.0002371 -1.29803e-05 0.105145)
(-0.00017461 -3.2454e-05 0.103135)
(-5.55564e-05 -1.39993e-05 0.105222)
(-0.000241822 -3.19658e-05 0.104976)
(-0.000120945 -3.31186e-05 0.103222)
(-0.000113739 6.80133e-05 0.105938)
(-2.72734e-05 6.65046e-05 0.0926132)
(-2.68287e-05 6.35632e-05 0.0923354)
(-0.000116451 -2.48462e-05 0.106138)
(-0.000113247 -5.53044e-06 0.0975667)
(-0.000112784 6.78366e-05 0.106094)
(-0.000114812 -2.36656e-05 0.106313)
(-5.30131e-05 1.21756e-05 0.0862864)
(-7.31084e-05 7.30448e-05 0.106135)
(6.90897e-05 -0.000116129 0.105614)
(-7.23779e-05 7.19714e-05 0.106321)
(6.79932e-05 -0.00011381 0.105938)
(-0.000175065 -0.000175677 0.105489)
(2.62131e-05 2.63088e-05 0.10551)
(-6.967e-05 0.000116391 0.105614)
(6.86881e-05 0.00011452 0.105858)
(-2.87317e-05 7.91679e-05 0.0988893)
(-1.64065e-05 5.84321e-05 0.0927698)
(0.000116201 -6.92508e-05 0.105614)
(0.000114464 6.8425e-05 0.105858)
(0.00011411 -6.79467e-05 0.105858)
(-0.000114705 6.87007e-05 0.105858)
(-0.000117143 -2.45607e-05 0.106049)
(-9.25657e-05 -5.63184e-06 0.0976997)
(0.00017595 -0.00017597 0.105239)
(2.63478e-05 -2.60987e-05 0.105512)
(-6.91851e-05 -0.000116154 0.105615)
(6.79797e-05 -0.000114058 0.105859)
(-6.88364e-05 -0.000114672 0.105858)
(-2.57738e-05 -2.62637e-05 0.10551)
(-1.4949e-06 7.4228e-06 0.0741865)
(0.000175713 0.000174957 0.105489)
(6.81651e-05 0.000113789 0.105938)
(-4.06967e-05 0.000115805 0.0987111)
(-3.87096e-05 0.000110742 0.0985062)
(0.000113671 6.80242e-05 0.105938)
(0.00011399 -6.81716e-05 0.105938)
(0.000173864 -0.000173679 0.105492)
(-6.88117e-05 -0.000114009 0.105938)
(-1.4096e-06 6.51942e-06 0.074014)
(-0.000173531 -0.000173338 0.105609)
(-1.07389e-05 7.36817e-07 0.0739022)
(9.24898e-07 1.10096e-05 0.0740721)
(7.14175e-06 1.78342e-06 0.0740135)
(-0.000116437 2.41795e-05 0.106138)
(-0.000169609 9.46771e-06 0.103717)
(-0.000117209 4.2765e-05 0.0987103)
(-0.000113447 6.7897e-05 0.106016)
(-0.000115737 2.41224e-05 0.106226)
(-0.000119083 1.25216e-05 0.103797)
(-7.41496e-05 2.32124e-05 0.0986844)
(-0.000175006 0.000175045 0.10549)
(-6.77061e-05 2.77277e-05 0.0926159)
(-1.35388e-05 4.9976e-05 0.0924881)
(-2.38647e-05 2.3352e-05 0.105635)
(-4.87045e-05 1.32397e-05 0.0924848)
(-1.14154e-05 -1.68996e-06 0.0740733)
(-7.43701e-07 -5.67398e-06 0.0740106)
(2.64438e-06 9.35776e-06 0.0739018)
(-0.000175706 0.000174432 0.105606)
(-6.29293e-05 2.68912e-05 0.092338)
(-9.08553e-06 -2.33924e-06 0.0739022)
(-0.000113506 5.15938e-06 0.0975674)
(-5.78934e-05 -1.32421e-05 0.0865521)
(-8.73972e-05 5.94111e-06 0.0974558)
(-3.35553e-05 -1.12548e-05 0.0864226)
(-0.000169896 -1.11547e-05 0.103717)
(-0.000115544 -2.42313e-05 0.106226)
(-0.000113956 -6.86077e-05 0.105938)
(-0.000113009 -6.75689e-05 0.106017)
(-7.54245e-05 -2.58234e-05 0.0986847)
(-0.000115575 -4.12831e-05 0.0987112)
(-0.000119046 -1.2194e-05 0.103797)
(-3.31902e-05 1.33253e-05 0.0864233)
(-5.72553e-05 1.18575e-05 0.0865526)
(-8.80603e-05 -5.24664e-06 0.0974545)
(-0.000114897 2.43837e-05 0.106314)
(-0.0001681 1.16946e-05 0.103711)
(-0.000109603 3.76718e-05 0.0985089)
(-0.000109594 6.13657e-06 0.0973196)
(-5.13467e-05 -1.08691e-05 0.0862874)
(-0.000112692 -6.75765e-05 0.106094)
(-0.00011257 -3.9512e-05 0.0985066)
(-0.00016797 -1.00147e-05 0.103711)
(-0.000109872 -4.14523e-06 0.0973193)
(6.66466e-06 9.80355e-05 0.0979478)
(4.06019e-06 0.000126026 0.0980506)
(-1.42621e-05 4.28111e-05 0.0869782)
(6.25698e-06 2.87506e-06 0.07437)
(9.6903e-05 5.86175e-06 0.0979431)
(4.18666e-05 -1.47476e-05 0.0869797)
(-7.3879e-05 -2.45167e-05 0.106185)
(7.4154e-05 7.38821e-05 0.105851)
(-7.39238e-05 7.39217e-05 0.105851)
(7.42204e-05 -7.43309e-05 0.105851)
(-7.40087e-05 -7.40193e-05 0.105851)
(7.29758e-05 7.28637e-05 0.106135)
(7.31337e-05 -7.30883e-05 0.106135)
(-0.000125509 1.29819e-05 0.103788)
(-0.000115604 6.91996e-05 0.105696)
(-8.34044e-05 2.9157e-05 0.0990899)
(-0.000118585 2.49464e-05 0.105869)
(1.15112e-05 3.29029e-07 0.0744403)
(1.82335e-06 8.28895e-06 0.0743656)
(1.30693e-05 -0.000125178 0.103789)
(2.50111e-05 -0.000119299 0.105778)
(4.35064e-05 -0.000124849 0.0991143)
(6.91995e-05 -0.000115719 0.105697)
(1.08319e-05 -0.000179754 0.103698)
(2.4844e-05 -0.000118461 0.10587)
(3.2592e-05 -8.23238e-05 0.0990922)
(-2.96762e-05 -2.97372e-05 0.10538)
(-6.1596e-05 -1.76749e-05 0.0930668)
(-1.72535e-05 -6.16193e-05 0.0930628)
(5.68766e-06 8.61811e-05 0.0974523)
(-1.24382e-05 5.71785e-05 0.0865526)
(5.24888e-06 0.000113552 0.0975706)
(-1.21931e-05 3.33749e-05 0.0864241)
(8.72776e-05 3.61998e-06 0.097454)
(5.59311e-05 -1.07179e-05 0.086553)
(0.000112784 8.11578e-06 0.0975675)
(3.46081e-05 -1.36463e-05 0.0864232)
(-7.34898e-05 -2.45023e-05 0.106283)
(7.28141e-05 7.28178e-05 0.106228)
(7.25448e-05 -7.26122e-05 0.106228)
(1.03097e-05 -3.6719e-08 0.0740669)
(3.25235e-06 8.09759e-06 0.0740165)
(9.48487e-06 -0.000117408 0.103798)
(2.42244e-05 -0.000116248 0.106138)
(3.86538e-05 -0.000114845 0.0987134)
(6.82175e-05 -0.000113407 0.106016)
(1.29655e-05 -0.000171104 0.103717)
(2.41899e-05 -0.000115611 0.106226)
(2.71844e-05 -7.62511e-05 0.0986847)
(-2.40417e-05 -2.35599e-05 0.105636)
(-5.17135e-05 -1.17019e-05 0.0924808)
(-6.61026e-05 -2.88613e-05 0.0926186)
(-2.78322e-05 -6.50123e-05 0.0926172)
(-1.23519e-05 -5.24762e-05 0.092478)
(-6.63046e-06 1.68542e-06 0.0743705)
(3.23778e-06 -7.69142e-06 0.0743688)
(2.97656e-05 2.89292e-05 0.10538)
(1.71463e-05 6.01478e-05 0.0930682)
(5.91362e-05 1.69862e-05 0.0930645)
(-8.12022e-06 7.57199e-07 0.0741867)
(1.32295e-07 1.21003e-05 0.0742503)
(-3.40363e-07 -6.54185e-06 0.0741857)
(1.34866e-05 -1.39697e-06 0.0742487)
(0.00017549 0.000175634 0.105368)
(1.70193e-05 5.8191e-05 0.0927714)
(5.74848e-05 1.69805e-05 0.0927683)
(2.75602e-05 6.64821e-05 0.0929127)
(6.6751e-05 2.75012e-05 0.0929097)
(-5.40092e-06 9.85236e-05 0.097944)
(1.14494e-05 6.55047e-05 0.0871294)
(-4.08471e-06 0.000125151 0.0980532)
(1.45262e-05 4.36841e-05 0.0869782)
(1.19684e-05 0.000126358 0.103788)
(2.48429e-05 0.000119303 0.105778)
(6.91412e-05 0.000115786 0.105696)
(1.10866e-05 0.000178699 0.1037)
(2.86847e-05 8.30447e-05 0.0990912)
(2.48207e-05 0.000118651 0.105869)
(-1.33072e-05 0.000126931 0.103787)
(-4.80111e-05 0.000125006 0.0991122)
(-2.48867e-05 0.000119352 0.105778)
(-6.90452e-05 0.000115696 0.105696)
(-9.21057e-06 0.00017809 0.1037)
(-2.94582e-05 8.2784e-05 0.0990908)
(-2.48501e-05 0.00011859 0.105869)
(7.55799e-06 0.000121753 0.09781)
(-1.55499e-05 3.85566e-05 0.0866939)
(-1.05732e-05 6.09257e-05 0.0868347)
(2.87664e-06 8.93142e-05 0.0977043)
(1.43375e-05 3.73253e-05 0.0866946)
(-3.41344e-06 0.000119291 0.0978103)
(1.11215e-05 6.17448e-05 0.086833)
(-8.14078e-06 9.27224e-05 0.0977022)
(1.27373e-05 0.000176462 0.103713)
(6.85495e-05 0.000115059 0.105778)
(3.09308e-05 8.03004e-05 0.0988885)
(2.43034e-05 0.000117082 0.106049)
(4.07261e-05 0.000119105 0.0989153)
(2.4683e-05 0.000117751 0.10596)
(9.41513e-06 0.000120057 0.103798)
(-6.86534e-05 0.000114509 0.105858)
(-1.02754e-05 0.000175751 0.103713)
(-6.90535e-05 0.000115177 0.105778)
(-2.4758e-05 0.00011712 0.106049)
(-4.20479e-05 0.000119655 0.0989133)
(-2.46268e-05 0.000117827 0.10596)
(-1.41208e-05 0.00012131 0.103798)
(-2.90901e-05 2.97267e-05 0.10538)
(-1.59327e-05 5.89306e-05 0.0930677)
(-5.94337e-05 1.63732e-05 0.0930654)
(-2.07239e-06 -6.18595e-06 0.0743684)
(7.55113e-06 4.65848e-07 0.0741891)
(-1.47075e-07 1.21862e-05 0.0742465)
(-2.68048e-05 2.63399e-05 0.105511)
(-5.91189e-05 1.6353e-05 0.0927637)
(-0.000175177 0.000175279 0.105368)
(-2.75633e-05 6.57163e-05 0.0929095)
(-6.53119e-05 2.77168e-05 0.0929157)
(-1.44183e-06 -8.75472e-06 0.0741866)
(-1.1633e-05 6.52453e-07 0.0742483)
(0.000126369 1.32884e-05 0.103789)
(0.000115593 6.92059e-05 0.105697)
(8.19063e-05 3.26296e-05 0.099091)
(0.000118375 2.48988e-05 0.10587)
(9.5824e-05 -3.74216e-06 0.0979448)
(6.55528e-05 1.13078e-05 0.0871284)
(0.000125655 -6.31022e-06 0.0980529)
(4.26336e-05 1.5577e-05 0.0869796)
(0.000125824 -1.05779e-05 0.103789)
(0.000119307 -2.49258e-05 0.105778)
(0.000124523 -4.39897e-05 0.099113)
(0.000115753 -6.92855e-05 0.105696)
(0.000178489 -1.20942e-05 0.103698)
(0.000118436 -2.45333e-05 0.10587)
(8.30113e-05 -3.31382e-05 0.0990904)
(0.000118818 4.19722e-06 0.0978104)
(3.80014e-05 -1.36034e-05 0.0866919)
(6.1746e-05 -1.23966e-05 0.0868356)
(9.1446e-05 6.78597e-06 0.0977027)
(0.000173338 1.09157e-05 0.103714)
(0.000114884 6.89612e-05 0.105778)
(8.00317e-05 2.66368e-05 0.0988882)
(0.000117121 2.43337e-05 0.106049)
(0.000119483 4.59503e-05 0.0989138)
(0.000117715 2.45952e-05 0.105959)
(0.000122589 1.15238e-05 0.103798)
(0.000117715 -4.94245e-06 0.0978119)
(3.82618e-05 1.12456e-05 0.0866922)
(6.14886e-05 1.39969e-05 0.0868341)
(9.22653e-05 -6.12407e-06 0.0977001)
(0.000172875 -9.63122e-06 0.103714)
(0.000115 -6.90649e-05 0.105777)
(0.000117001 -2.4631e-05 0.106049)
(7.85721e-05 -2.45988e-05 0.0988887)
(0.000117798 -2.4918e-05 0.105959)
(0.000120774 -4.61116e-05 0.0989126)
(0.000123227 -1.40009e-05 0.103797)
(-9.85618e-05 7.38109e-06 0.0979462)
(-4.33139e-05 -1.39845e-05 0.0869771)
(-0.000125007 -1.00679e-05 0.103787)
(-0.000115709 -6.92618e-05 0.105696)
(-0.000118542 -2.47915e-05 0.105869)
(-8.40386e-05 -3.29841e-05 0.099089)
(-9.7978e-05 -3.82585e-06 0.0979452)
(-4.34942e-05 1.55709e-05 0.0869778)
(-0.000117086 2.44256e-05 0.106049)
(-0.000121736 1.01778e-05 0.103799)
(-7.97877e-05 3.14506e-05 0.098887)
(-0.000175393 1.34823e-05 0.103712)
(-0.000115236 6.8762e-05 0.105778)
(-0.00011911 3.97203e-05 0.0989159)
(-0.000117867 2.47504e-05 0.105959)
(-9.22063e-05 4.24253e-06 0.0977004)