/*--------------------------------*- C++ -*----------------------------------*\
| =========                 |                                                 |
| \\      /  F ield         | OpenFOAM: The Open Source CFD Toolbox           |
|  \\    /   O peration     | Version:  v2006                                 |
|   \\  /    A nd           | Website:  www.openfoam.com                      |
|    \\/     M anipulation  |                                                 |
\*---------------------------------------------------------------------------*/
FoamFile
{
    version     2.0;
    format      ascii;
    class       volScalarField;
    location    "500";
    object      nut;
}
// * * * * * * * * * * * * * * * * * * * * * * * * * * * * * * * * * * * * * //

dimensions      [0 2 -1 0 0 0 0];


internalField   nonuniform List<scalar> 
14310
(
0.000116182
0.000112941
0.00011298
4.9799e-05
8.72102e-05
4.97944e-05
8.72607e-05
2.35547e-05
2.35527e-05
7.1241e-05
7.12443e-05
8.72107e-05
8.77083e-05
0.000109239
0.000107362
0.00010887
0.000107329
8.77282e-05
0.000109307
0.000107458
8.72471e-05
0.000109081
0.000107437
2.00813e-05
7.42997e-05
4.98014e-05
2.00804e-05
7.43572e-05
3.61977e-05
8.73543e-05
4.0451e-05
8.43336e-05
3.61967e-05
4.04521e-05
8.44477e-05
2.00806e-05
7.43163e-05
4.97965e-05
2.008e-05
7.43517e-05
3.61969e-05
8.73804e-05
8.43784e-05
4.045e-05
3.61961e-05
8.44668e-05
4.04509e-05
2.35552e-05
2.35532e-05
9.27593e-05
0.000103684
4.76831e-05
7.12384e-05
9.28167e-05
4.76828e-05
0.000103735
9.27905e-05
0.000103699
4.76715e-05
7.12394e-05
9.28493e-05
4.76711e-05
0.00010375
7.7317e-05
2.14553e-05
2.14521e-05
7.73811e-05
2.14554e-05
2.14521e-05
2.008e-05
7.4298e-05
2.00794e-05
7.43503e-05
3.6196e-05
8.43383e-05
8.73537e-05
4.04511e-05
4.04522e-05
3.61951e-05
8.44505e-05
2.00795e-05
2.00787e-05
7.42839e-05
3.61945e-05
8.73674e-05
4.04494e-05
8.43427e-05
4.04503e-05
3.61936e-05
8.4428e-05
0.000109838
0.000114397
0.000114419
0.000116299
0.00010986
0.000114448
0.000114469
0.000110566
9.82135e-05
0.000110278
9.85252e-05
0.000111157
0.000108357
9.83976e-05
8.78548e-05
9.86628e-05
0.000110955
0.000108473
0.000112485
0.000107737
0.000105311
0.000112665
0.000105622
0.000112264
0.0001129
0.000112163
0.000105202
0.000107709
0.000112561
0.000111914
0.000105541
0.000112801
0.000111197
0.000108387
9.84363e-05
8.78643e-05
9.86825e-05
0.000110996
0.0001085
0.000112551
0.000107812
0.000105385
0.000112758
0.000105679
0.00011233
0.000112993
0.000110608
9.84632e-05
0.000112322
0.000107784
0.000112699
0.000105312
0.000112123
0.000112928
0.000105574
2.01025e-05
2.01041e-05
3.62686e-05
4.05419e-05
4.0539e-05
3.62712e-05
4.05379e-05
2.01035e-05
2.01052e-05
3.62701e-05
4.05419e-05
4.0539e-05
3.62727e-05
3.62678e-05
4.05379e-05
2.01026e-05
0.000139536
0.000137461
0.000139532
0.000139225
0.000139212
0.000137288
0.000123225
0.000122928
5.00164e-05
5.00064e-05
0.000138915
0.000122452
9.38162e-05
2.36119e-05
2.36087e-05
0.000137062
7.37449e-05
7.37583e-05
7.37918e-05
7.38025e-05
2.36131e-05
2.36099e-05
0.000120818
9.19249e-05
0.000120948
0.000138921
0.000129003
0.000134782
9.38198e-05
0.000133923
0.000133147
9.19562e-05
5.00189e-05
5.00073e-05
9.21382e-05
0.000120922
0.000138351
0.000134661
0.000122429
0.000133779
9.35936e-05
0.000133035
9.19529e-05
5.00183e-05
5.00052e-05
9.21339e-05
0.000134638
0.000122403
0.000133
5.00174e-05
9.21268e-05
7.38618e-05
7.38532e-05
2.36143e-05
2.36134e-05
2.01022e-05
5.0012e-05
7.60633e-05
7.60414e-05
2.01037e-05
2.01024e-05
7.6027e-05
5.00102e-05
2.0101e-05
7.60476e-05
2.36102e-05
2.36101e-05
7.86644e-05
2.14849e-05
2.1488e-05
7.87884e-05
2.14852e-05
2.14883e-05
9.71703e-05
0.000112695
7.37543e-05
4.79285e-05
0.000112699
4.79242e-05
9.71483e-05
9.71594e-05
0.000112705
7.37669e-05
4.79378e-05
4.79334e-05
0.000112718
9.71352e-05
9.72773e-05
4.79205e-05
0.000112725
7.37881e-05
0.00011274
9.73403e-05
4.79228e-05
9.7262e-05
4.79296e-05
0.000112748
7.37977e-05
9.73264e-05
4.7932e-05
0.00011275
7.85658e-05
2.14863e-05
2.14895e-05
2.14847e-05
2.14879e-05
7.85421e-05
2.36115e-05
2.36113e-05
3.62629e-05
9.18327e-05
4.05345e-05
8.81033e-05
4.05318e-05
8.80299e-05
3.62654e-05
3.62694e-05
8.81172e-05
4.0535e-05
9.20357e-05
3.62668e-05
8.81834e-05
4.05378e-05
2.01036e-05
5.00139e-05
7.60819e-05
7.60322e-05
2.01054e-05
2.01038e-05
7.59907e-05
5.00117e-05
2.01021e-05
7.60264e-05
3.62702e-05
9.20607e-05
8.827e-05
4.05419e-05
8.81983e-05
4.0539e-05
3.62729e-05
3.62686e-05
4.05356e-05
8.8124e-05
9.2034e-05
3.62661e-05
4.05384e-05
8.81848e-05
2.01027e-05
5.00129e-05
7.60593e-05
7.60281e-05
2.01042e-05
2.01029e-05
7.60008e-05
5.00105e-05
2.01015e-05
7.60291e-05
3.62694e-05
9.20578e-05
4.05424e-05
8.8258e-05
4.05395e-05
8.82015e-05
3.62719e-05
5.00116e-05
7.60688e-05
7.60217e-05
9.20416e-05
8.82572e-05
8.81868e-05
9.74983e-05
0.000113055
7.37684e-05
4.79525e-05
0.000112776
4.7947e-05
9.76561e-05
9.75086e-05
0.000113035
7.37532e-05
4.7942e-05
0.000112751
4.79364e-05
9.76677e-05
7.89454e-05
2.14954e-05
2.14921e-05
2.14939e-05
2.14905e-05
7.89964e-05
2.36123e-05
2.36113e-05
0.000130162
0.00013016
0.000119579
0.000119576
0.000137384
0.000130117
0.000130119
0.000130353
0.000120163
0.00013036
0.000119877
0.000137008
0.000130104
0.000130096
0.000120829
0.00013217
0.000120836
0.000122579
0.000120529
0.000120534
0.000132397
0.000120752
0.00013216
0.000120754
0.00012223
0.000120463
0.000120469
0.00013239
0.000129019
9.39441e-05
0.00010791
0.000128899
9.38794e-05
0.000107773
0.000122392
0.000128664
0.000107603
0.00012221
9.39065e-05
0.000128516
0.00010777
0.000122289
0.000119684
0.000137172
0.000130033
0.000130037
0.000130084
0.000119681
0.000130086
0.000131809
0.000120565
0.000133943
0.000117134
0.000133747
0.000116916
0.000131972
0.00013266
0.000117306
0.000134384
0.000121182
0.000132504
0.000117503
0.000134574
0.000122454
0.0001079
9.39463e-05
0.000128881
9.38791e-05
0.000122394
0.000107747
0.000128653
0.000107575
0.000122222
9.39048e-05
0.000128508
0.000122297
0.000107742
0.000135126
0.000121493
0.000117758
0.000133006
0.000121277
0.000117577
0.000134947
0.000132504
0.000134335
0.000117222
0.000121159
0.000132341
0.000134525
0.000117431
0.000128857
9.39444e-05
0.000107849
0.000128675
9.37818e-05
0.00010765
0.000122254
0.000128353
0.000107417
0.000121773
9.37534e-05
0.000128174
0.000107614
0.000121947
0.000135086
0.000121476
0.000117715
0.000132873
0.000121253
0.000134902
0.000117514
0.000128827
9.39308e-05
0.000107837
0.000128641
9.37626e-05
0.000107625
0.000122224
0.000135042
0.000121448
0.000117695
0.000132834
0.000121217
0.000134855
0.000117481
0.000116641
0.000114568
0.000114576
0.000112916
0.000114281
0.000112912
2.35563e-05
7.11682e-05
0.000115187
8.75275e-05
4.98041e-05
8.75135e-05
4.97992e-05
0.000109662
0.00010858
2.35551e-05
2.35531e-05
0.000116574
7.1191e-05
7.11836e-05
2.35576e-05
2.35547e-05
2.35556e-05
2.35527e-05
0.00011664
7.13093e-05
7.12812e-05
7.11616e-05
7.11498e-05
4.98043e-05
8.75264e-05
0.000108237
0.000113574
8.79646e-05
0.000109807
8.79214e-05
0.000112422
0.000108221
0.000109479
8.75638e-05
4.98133e-05
4.9805e-05
8.77936e-05
8.75632e-05
8.77911e-05
0.000108364
0.000114095
8.82374e-05
0.000110909
8.79582e-05
0.000110362
0.000109089
0.000108354
0.000109093
0.000108253
0.000113608
8.79569e-05
0.000109864
8.754e-05
4.98088e-05
4.98001e-05
8.77581e-05
0.000108359
0.000114117
8.82052e-05
0.000110903
8.79441e-05
0.00011039
0.000109027
8.75231e-05
4.98062e-05
4.97947e-05
8.77515e-05
0.000108319
0.000112269
0.000110499
8.80337e-05
0.000109997
8.76145e-05
0.000108998
2.3555e-05
2.35492e-05
0.000113544
7.11567e-05
7.11605e-05
7.07973e-05
7.08017e-05
2.35565e-05
2.35507e-05
0.00010827
0.00011227
8.80357e-05
0.000109955
8.76102e-05
8.74983e-05
4.98104e-05
4.97986e-05
2.35554e-05
9.26194e-05
7.11208e-05
0.000103672
4.76904e-05
4.76893e-05
9.27517e-05
0.000103397
7.72981e-05
2.1458e-05
2.14591e-05
2.14566e-05
2.14571e-05
7.73782e-05
9.25831e-05
4.76894e-05
3.61975e-05
8.74008e-05
4.04531e-05
8.45788e-05
4.04522e-05
8.44855e-05
3.61983e-05
2.00802e-05
7.43894e-05
4.9802e-05
7.43636e-05
2.0081e-05
3.61966e-05
8.74125e-05
8.45613e-05
4.04517e-05
8.44917e-05
4.04509e-05
3.61974e-05
2.00796e-05
7.43702e-05
4.97971e-05
7.43501e-05
2.00803e-05
2.35544e-05
2.35524e-05
7.72514e-05
2.14546e-05
2.14513e-05
2.14542e-05
2.1451e-05
7.72259e-05
9.26132e-05
4.76828e-05
7.12083e-05
0.000103652
4.76821e-05
9.25334e-05
0.000103692
9.26371e-05
4.76709e-05
7.12053e-05
0.000103654
4.76702e-05
9.25566e-05
0.000103699
2.35561e-05
2.3556e-05
2.3554e-05
2.35539e-05
7.71374e-05
2.14534e-05
2.14501e-05
7.71744e-05
2.14535e-05
2.14502e-05
9.23125e-05
0.000103573
7.1215e-05
4.76969e-05
4.76911e-05
0.000103506
9.22843e-05
9.23175e-05
0.000103544
7.11853e-05
4.76846e-05
4.76786e-05
0.000103482
9.22882e-05
9.23827e-05
4.76839e-05
0.000103576
7.11716e-05
9.24208e-05
4.76884e-05
0.000103543
9.23943e-05
4.76718e-05
0.00010357
7.11537e-05
9.24353e-05
4.7676e-05
0.000103527
7.70337e-05
2.14513e-05
2.14479e-05
2.14517e-05
2.14484e-05
7.68807e-05
2.00789e-05
4.98018e-05
7.43811e-05
7.4355e-05
2.00795e-05
3.61958e-05
8.45782e-05
8.74011e-05
4.04532e-05
4.04523e-05
8.44872e-05
3.61966e-05
3.6199e-05
4.04532e-05
8.46064e-05
8.7669e-05
3.61981e-05
4.0454e-05
8.46824e-05
2.00799e-05
4.98093e-05
7.44468e-05
7.44116e-05
2.00809e-05
2.00808e-05
7.43879e-05
4.98078e-05
2.008e-05
7.44076e-05
3.61989e-05
8.76983e-05
4.04551e-05
8.47804e-05
4.04541e-05
8.4707e-05
3.61999e-05
3.61971e-05
8.46052e-05
4.04532e-05
8.76676e-05
3.61963e-05
4.04541e-05
8.46795e-05
3.6197e-05
8.4774e-05
8.76966e-05
4.04551e-05
4.04541e-05
8.4703e-05
3.61979e-05
3.61981e-05
8.4582e-05
4.04518e-05
8.76341e-05
3.61972e-05
8.46478e-05
4.04527e-05
2.00793e-05
4.98047e-05
7.4424e-05
7.43878e-05
2.00803e-05
2.00801e-05
7.43668e-05
4.98031e-05
2.00793e-05
7.4385e-05
3.6198e-05
8.76604e-05
8.47462e-05
4.0454e-05
8.46715e-05
4.04528e-05
3.61991e-05
3.61961e-05
4.04513e-05
8.45541e-05
8.76244e-05
3.61951e-05
4.04523e-05
8.46334e-05
2.00783e-05
4.98013e-05
7.44128e-05
7.43808e-05
2.00792e-05
2.00792e-05
7.4344e-05
4.97992e-05
2.00784e-05
7.43758e-05
3.6196e-05
8.76475e-05
4.04536e-05
8.47346e-05
4.04524e-05
8.46552e-05
3.61971e-05
2.35525e-05
2.35518e-05
7.66308e-05
2.14426e-05
2.14458e-05
7.63744e-05
2.14478e-05
2.14511e-05
9.17314e-05
0.00010302
7.09969e-05
4.76861e-05
0.000102569
4.76739e-05
9.20777e-05
9.1692e-05
0.000103018
7.10001e-05
4.76971e-05
4.76847e-05
0.000102565
9.20443e-05
9.15687e-05
4.76519e-05
0.000102077
7.09135e-05
0.000102355
9.1161e-05
4.76672e-05
9.15309e-05
4.76626e-05
0.000102067
7.09176e-05
9.11183e-05
4.7678e-05
0.00010235
7.67196e-05
2.1451e-05
2.14543e-05
2.14486e-05
2.14519e-05
7.68508e-05
2.3554e-05
2.35533e-05
3.61989e-05
8.45249e-05
4.04523e-05
8.76021e-05
3.61977e-05
8.46139e-05
4.04535e-05
2.00795e-05
4.98055e-05
7.44266e-05
7.43864e-05
2.00805e-05
2.00804e-05
7.43336e-05
4.98033e-05
2.00794e-05
7.43775e-05
0.000109197
0.000116647
0.000114219
0.000114215
0.000114194
0.000114193
0.000109207
0.000107907
0.000114032
0.000112647
0.000112638
0.000112333
0.000112324
0.0001084
0.000109311
0.000114801
0.000113893
0.000113894
0.000113604
0.000109614
0.000113602
0.000109542
0.000122631
0.000122657
0.00014659
0.00010961
0.000121921
0.000121924
0.000122267
0.000122282
0.000146025
0.000145468
0.000108584
0.000121668
0.000121657
0.000122067
0.000122055
0.000145975
0.000145402
0.000109646
0.000116557
0.000114433
0.000114447
0.000109523
0.000114468
0.000114486
0.0001093
0.000116624
0.000114317
0.000114326
0.000109326
0.000114277
0.000114282
0.000112971
0.000107879
0.000106045
0.000113656
0.000105758
0.00011342
0.000113179
0.000111517
9.89325e-05
8.78563e-05
0.000108729
9.87064e-05
0.000108653
0.000111687
0.000111107
8.77395e-05
0.000108501
9.88734e-05
0.000108287
9.86015e-05
0.000111369
0.000112715
0.000106002
0.000107858
0.000113584
0.000105692
0.000113337
0.000112963
0.000113823
0.000106163
0.000114169
0.000108684
0.000113633
0.000106414
0.000114391
0.000112405
0.00010911
8.80727e-05
9.93922e-05
0.000109021
9.91847e-05
0.000112555
0.000112137
9.89617e-05
0.000108843
8.80681e-05
0.000108909
0.000111986
9.91611e-05
0.000114236
0.000108798
0.000106751
0.000115073
0.000106519
0.000114869
0.00011441
0.000113725
0.000106134
0.000114119
0.00010868
0.000113498
0.000106407
0.000114352
0.000114211
0.000106771
0.000108797
0.000115067
0.000106523
0.000114853
0.000114414
0.00011303
0.000107934
0.000106055
0.000113723
0.000105801
0.000113503
0.000113227
0.00011155
9.89271e-05
8.78599e-05
0.00010874
9.87244e-05
0.000108671
0.000111712
0.00011383
0.000106159
0.000114199
0.000108649
0.000113655
0.000106383
0.000114399
0.000112382
0.000109078
8.80446e-05
9.93508e-05
0.000108995
9.91547e-05
0.000112525
0.000112134
9.89525e-05
0.000108839
8.80446e-05
0.000108897
0.000111993
9.91311e-05
0.000114214
0.000108748
0.0001067
0.000115025
0.00010648
0.000114837
0.000114377
0.000113522
0.000114108
0.000106028
0.000108609
0.000113346
0.000114308
0.000106265
0.000111797
0.000108401
8.78096e-05
9.92279e-05
9.89814e-05
0.000108187
0.000111997
0.000111474
9.87184e-05
0.000107738
8.77749e-05
0.000111309
9.89413e-05
0.000107884
0.000113922
0.000108715
0.000114942
0.000106618
0.000114749
0.000106374
0.000114104
0.000107613
0.000113664
0.000111736
0.000111728
0.000111921
0.000107196
0.000111913
0.00011348
0.000114044
0.000105995
0.000108559
0.000113309
0.000114239
0.000106229
0.000111774
0.000108393
8.78083e-05
9.92202e-05
0.000108177
9.89647e-05
0.000111975
0.000111455
9.87003e-05
0.000107731
8.77719e-05
0.000111293
0.000107875
9.89256e-05
0.000144917
0.000115231
0.000113707
0.000116958
0.000110172
0.000118195
0.000117825
0.000121326
0.00011161
0.000121308
0.00012136
0.000122269
0.000112533
0.000124146
0.000124428
0.000124869
0.000114643
0.000127378
0.00012743
0.000127012
0.000116157
0.000130544
0.000130434
0.000130533
0.000118495
0.000133327
0.000133715
0.000132627
0.000121176
0.000137221
0.000137014
0.000134898
0.000116737
0.00011927
0.000115015
0.000115241
0.000116976
0.000117336
0.000117617
0.000119502
0.000115008
0.000113711
0.000116967
0.000116648
0.000114735
0.000117356
0.000117964
0.000114914
0.00011899
0.000114733
0.000116669
0.000117942
0.000120726
0.000120134
0.000122478
0.000118067
0.000118163
0.0001209
0.000120548
0.000119991
0.000122299
0.000118067
0.000117792
0.000120907
0.000120616
0.000118881
0.000120572
0.000120775
0.000119788
0.000122523
0.000118872
0.000120645
0.000120781
0.000122194
0.000122481
0.000123793
0.000121284
0.000121305
0.000122878
0.000123427
0.000122699
0.000124491
0.000121291
0.000121354
0.000122886
0.000123697
0.000121189
0.000123435
0.00012316
0.000122923
0.000124803
0.000121197
0.000123712
0.000123169
0.000124179
0.000124679
0.000127858
0.000123947
0.000124118
0.000127062
0.000126581
0.000124899
0.000127111
0.000123947
0.000124394
0.000127069
0.000126576
0.000124208
0.000126606
0.000126421
0.000125231
0.000127047
0.000124206
0.000126607
0.000126425
0.000126834
0.000128027
0.0001288
0.000127691
0.000127367
0.000129316
0.000129707
0.000127591
0.000129556
0.000127696
0.000127414
0.000129325
0.000129661
0.000126922
0.00012971
0.000129759
0.000127522
0.000129535
0.000126935
0.000129661
0.000129761
0.000129796
0.000129289
0.000132293
0.000130083
0.000130531
0.000132809
0.000132585
0.000129998
0.000131674
0.000130086
0.000130423
0.000132808
0.000132932
0.000130772
0.000132619
0.000133018
0.000129941
0.00013225
0.000130768
0.000132971
0.000133019
0.000132311
0.000132876
0.000135152
0.000133735
0.000133297
0.000136382
0.000136148
0.000132031
0.000135119
0.000133732
0.000133679
0.000136402
0.000136104
0.000133792
0.000136175
0.000136016
0.000132673
0.000134754
0.000133801
0.000136125
0.00013603
0.000134559
0.000135502
0.000136919
0.000137156
0.000137197
0.000139158
0.000135779
0.000137158
0.000136991
0.00013916
0.000136723
0.000135278
0.000136728
8.8043e-05
4.98151e-05
4.98254e-05
8.78204e-05
2.35575e-05
2.35584e-05
8.80209e-05
4.98107e-05
4.98213e-05
8.7786e-05
0.000109541
0.000144843
0.000109196
0.00010986
0.000110084
0.000109405
0.000110325
0.000109863
0.000113011
0.000111365
0.000115914
0.00011481
8.86488e-05
0.000111963
2.35552e-05
2.35577e-05
0.000109799
0.000110993
0.000112368
0.000114596
0.00011157
8.85415e-05
0.000109065
7.12849e-05
7.12648e-05
0.000118509
7.165e-05
7.16203e-05
8.8667e-05
4.98423e-05
8.83487e-05
4.98522e-05
2.35616e-05
2.35638e-05
8.86835e-05
4.98381e-05
8.8355e-05
4.98476e-05
0.000110352
0.000109854
0.00011071
0.000111399
0.00011123
0.000111179
0.000111471
0.00011161
8.90891e-05
0.000113805
0.000119038
0.000110846
8.95639e-05
0.000114495
2.35617e-05
2.35641e-05
0.000111646
0.000113595
8.91178e-05
0.000118929
0.000110829
0.000114382
8.96263e-05
7.19274e-05
7.1931e-05
0.000121934
7.19713e-05
7.19774e-05
8.92092e-05
4.98592e-05
8.90587e-05
4.98691e-05
2.35655e-05
2.35691e-05
8.9204e-05
4.98543e-05
8.90518e-05
4.98638e-05
0.000111518
0.000111513
0.000111623
0.000112133
0.000112436
0.000112572
0.000112271
0.000113227
8.98719e-05
0.000116556
0.00012204
0.000112604
9.02184e-05
0.000117217
2.35645e-05
2.35684e-05
0.000113224
0.000116585
8.98697e-05
0.00012212
0.000112609
0.000117248
9.01942e-05
7.1924e-05
7.1919e-05
0.00012261
7.19639e-05
7.19653e-05
8.97968e-05
4.98906e-05
8.94896e-05
4.99008e-05
2.35711e-05
2.35753e-05
8.97934e-05
4.98856e-05
8.94878e-05
4.9896e-05
0.000112754
0.000112932
0.000112694
0.000114191
0.000113982
0.000114041
0.000113954
0.000114852
9.05726e-05
0.000119239
0.000124931
0.000114117
9.09198e-05
0.000119965
2.35708e-05
2.35731e-05
0.000114864
0.000119333
9.06765e-05
0.000125105
0.000114126
0.000120057
9.09226e-05
7.25195e-05
7.25087e-05
0.000125987
7.26286e-05
7.26206e-05
9.035e-05
4.99113e-05
9.01533e-05
4.99204e-05
2.35789e-05
2.35815e-05
9.0357e-05
4.99064e-05
9.01476e-05
4.99157e-05
0.000114436
0.000114475
0.00011427
0.000115736
0.000115855
0.00011588
0.000115764
0.00011636
9.13647e-05
0.000122283
0.000128116
0.000115777
9.163e-05
0.000123035
2.35784e-05
2.35812e-05
0.00011637
0.000122297
9.1345e-05
0.000128219
0.000115762
0.000123066
9.16882e-05
7.24124e-05
7.24121e-05
0.000127688
7.27135e-05
7.27079e-05
9.08623e-05
4.99389e-05
9.06142e-05
4.99529e-05
2.35867e-05
2.35905e-05
9.08384e-05
4.99335e-05
9.06007e-05
4.99476e-05
0.000116385
0.00011636
0.000116407
0.00011786
0.000117855
0.00011802
0.000118109
0.000117953
9.20456e-05
0.000125386
0.000131303
0.000117259
9.23828e-05
0.000126209
2.35851e-05
2.359e-05
0.000117922
0.000125379
9.19648e-05
0.000131287
0.000117244
0.000126196
9.23611e-05
7.31742e-05
7.31648e-05
0.000131497
7.31482e-05
7.31451e-05
9.13717e-05
4.99695e-05
9.11577e-05
4.99814e-05
2.3595e-05
2.36007e-05
9.13939e-05
4.9965e-05
9.11685e-05
4.99765e-05
0.000118362
0.000118592
0.000118669
0.00012054
0.000120316
0.000120387
0.000120408
0.000119307
9.25479e-05
0.000128611
0.000134163
0.000118743
9.28906e-05
0.000129419
2.35942e-05
2.3598e-05
0.000119351
0.000128719
9.27126e-05
0.000134445
0.00011877
0.000129526
9.295e-05
7.32322e-05
7.32304e-05
0.000133414
7.34528e-05
7.34478e-05
9.1949e-05
4.99972e-05
9.17086e-05
5.00081e-05
2.36056e-05
2.36087e-05
9.19247e-05
4.99918e-05
9.16957e-05
5.0003e-05
0.000121083
0.000121062
0.000120974
0.000123035
0.000120843
9.34961e-05
0.000132076
0.000138158
0.000120199
9.38283e-05
0.000133011
2.36041e-05
2.36079e-05
0.000120799
0.000132089
9.3382e-05
0.000137854
0.000120186
0.000132977
9.37114e-05
7.34705e-05
7.34662e-05
0.000135668
7.3597e-05
7.35797e-05
2.35575e-05
2.35591e-05
2.35555e-05
2.35572e-05
7.13184e-05
7.12907e-05
0.000117305
7.13145e-05
7.12927e-05
2.35637e-05
2.35591e-05
2.35616e-05
2.35572e-05
0.000117861
7.17269e-05
7.17226e-05
7.13197e-05
7.13026e-05
8.80402e-05
4.98143e-05
4.98225e-05
8.78176e-05
0.000109857
8.8243e-05
0.00011145
0.000115492
8.84959e-05
0.000111974
0.000115516
0.000109867
0.000109721
0.000111415
0.000115917
8.86423e-05
0.000112002
0.000114853
8.80698e-05
4.98401e-05
4.98274e-05
8.83058e-05
8.80685e-05
4.98332e-05
4.98238e-05
8.83082e-05
0.000109962
0.000116112
8.89518e-05
0.00011304
8.84958e-05
0.000112493
0.000110645
0.000109974
0.000116587
8.89887e-05
0.000113135
8.86404e-05
0.000112563
0.000110654
7.14665e-05
7.14618e-05
0.000118336
7.14415e-05
7.14509e-05
2.35581e-05
2.35593e-05
2.35616e-05
2.35582e-05
0.000118738
7.16984e-05
7.17153e-05
7.14251e-05
7.1438e-05
2.35627e-05
2.3559e-05
0.000109802
8.82098e-05
0.000111407
0.000115476
8.84707e-05
0.000111908
0.000109128
8.80162e-05
4.98084e-05
4.98197e-05
8.77742e-05
0.000109791
0.000111038
8.80826e-05
0.000114594
0.000111605
8.85311e-05
0.000109106
8.80518e-05
4.9836e-05
4.98233e-05
8.83086e-05
0.000109913
0.000116094
8.89503e-05
0.000112975
8.84745e-05
0.000112416
0.000110629
8.80424e-05
4.98319e-05
4.98215e-05
8.83129e-05
0.000109909
0.000115567
0.000112839
8.90031e-05
0.000112197
8.85605e-05
0.000110635
8.80493e-05
4.98151e-05
8.78025e-05
4.98233e-05
0.000109856
0.000111226
0.000109439
0.000115805
0.00011468
0.00011187
8.87048e-05
8.80495e-05
4.98134e-05
8.78011e-05
4.98241e-05
0.000109987
0.000116594
8.90147e-05
0.000113153
8.86505e-05
0.000112547
0.00011071
8.80867e-05
4.98355e-05
4.98248e-05
8.8351e-05
0.000109985
0.000116916
0.000113253
8.92492e-05
0.000112552
8.87706e-05
0.000110729
8.80885e-05
4.98341e-05
4.98257e-05
8.83567e-05
7.121e-05
7.12155e-05
0.00011648
7.13889e-05
7.14035e-05
2.35568e-05
2.35596e-05
2.35614e-05
2.35577e-05
0.000117377
7.16803e-05
7.17084e-05
7.14008e-05
7.14182e-05
2.35633e-05
2.35596e-05
0.000109806
0.000111192
0.000109414
0.000115785
0.000111808
8.86736e-05
0.000114632
8.80289e-05
4.98125e-05
4.98238e-05
8.77664e-05
8.80275e-05
4.98116e-05
4.98224e-05
8.777e-05
0.000109918
0.000115576
0.000112856
8.90331e-05
0.000112183
8.85739e-05
0.000110692
0.00010993
0.000116887
0.00011318
8.92396e-05
0.000112475
8.87369e-05
0.000110706
8.80597e-05
4.98369e-05
4.98258e-05
8.8352e-05
8.80661e-05
4.98335e-05
4.98242e-05
8.83536e-05
2.3558e-05
2.3561e-05
2.35568e-05
2.356e-05
0.000119366
7.19167e-05
7.19163e-05
7.17115e-05
7.16877e-05
2.35622e-05
2.35608e-05
2.35614e-05
2.35598e-05
2.3564e-05
2.35665e-05
2.35619e-05
2.35643e-05
7.18621e-05
7.18589e-05
0.000121554
7.21844e-05
7.21795e-05
2.35669e-05
2.35662e-05
2.35643e-05
2.35638e-05
0.000122115
7.20588e-05
7.20525e-05
7.21814e-05
7.21763e-05
8.86591e-05
4.98352e-05
8.83506e-05
4.98468e-05
0.000111556
8.9099e-05
0.000113662
0.000119229
0.00011077
8.97583e-05
0.000114377
0.000111545
8.90584e-05
0.000113749
0.000118997
0.000110776
8.95392e-05
0.000114413
8.87258e-05
4.98582e-05
4.98533e-05
8.90312e-05
8.87162e-05
4.98565e-05
4.98483e-05
8.90199e-05
0.000111714
0.000120225
9.00039e-05
0.000115927
8.98239e-05
0.000115157
0.000112555
0.000111697
0.000119789
8.98715e-05
0.000115834
8.95649e-05
0.000115117
0.000112527
7.17904e-05
7.1803e-05
0.000120953
7.19677e-05
7.19813e-05
2.35629e-05
2.35648e-05
2.35654e-05
2.35633e-05
0.000121482
7.19717e-05
7.19667e-05
7.19551e-05
7.19673e-05
2.3566e-05
2.35643e-05
0.000111581
8.90987e-05
0.000113616
0.000119236
0.000110763
8.97562e-05
0.000114354
8.8675e-05
4.98338e-05
8.83527e-05
4.98443e-05
0.000111573
0.000113542
8.90766e-05
0.000118884
0.000110773
0.000114301
8.95932e-05
8.87383e-05
4.98534e-05
4.98484e-05
8.90274e-05
0.000111739
0.000120232
8.99993e-05
0.000115931
8.98205e-05
0.000115148
0.000112563
8.87209e-05
4.98538e-05
4.98458e-05
8.90138e-05
0.000111728
0.000119826
0.000115849
8.98778e-05
0.000115084
8.96167e-05
0.000112533
8.86812e-05
4.98376e-05
8.83942e-05
4.98479e-05
0.000111625
0.00011395
8.92853e-05
0.000119651
0.000110869
0.000114638
8.96143e-05
8.86779e-05
4.98354e-05
8.83992e-05
4.98432e-05
0.000111752
0.000119828
8.98595e-05
0.000115883
8.95831e-05
0.000115197
0.000112484
8.87252e-05
4.98569e-05
4.98492e-05
8.89768e-05
0.000111765
0.000120278
0.000115974
8.9828e-05
0.000115316
8.96174e-05
0.00011248
8.87223e-05
4.98519e-05
4.98444e-05
8.89769e-05
7.17704e-05
7.1798e-05
0.000121063
7.20284e-05
7.20478e-05
2.35636e-05
2.35659e-05
2.35647e-05
2.35636e-05
0.000121667
7.1999e-05
7.20055e-05
7.2028e-05
7.20429e-05
2.35665e-05
2.35654e-05
0.000111651
0.000113898
8.92822e-05
0.000119654
0.000110847
0.00011461
8.96289e-05
8.8703e-05
4.98388e-05
8.83946e-05
4.98481e-05
8.8698e-05
4.98347e-05
8.84006e-05
4.9842e-05
0.000111779
0.000119868
0.0001159
8.98738e-05
0.000115163
8.96434e-05
0.000112505
0.000111787
0.000120285
0.000115983
8.98297e-05
0.000115308
8.96318e-05
0.000112502
8.87354e-05
4.98569e-05
4.98493e-05
8.89752e-05
8.8739e-05
4.98505e-05
4.98431e-05
8.89781e-05
2.35617e-05
2.35629e-05
2.35609e-05
2.3562e-05
0.000122101
7.19526e-05
7.19457e-05
7.19532e-05
7.19565e-05
2.35645e-05
2.35626e-05
2.35636e-05
2.35617e-05
2.35662e-05
2.35689e-05
2.35636e-05
2.35663e-05
7.19304e-05
7.19231e-05
0.000122476
7.18117e-05
7.18034e-05
2.35757e-05
2.35696e-05
2.35731e-05
2.3567e-05
0.000122662
7.2343e-05
7.23367e-05
7.1843e-05
7.18342e-05
8.92182e-05
4.98578e-05
8.90514e-05
4.98665e-05
0.000113273
8.99282e-05
0.000116628
0.000121592
0.000112681
8.98845e-05
0.00011724
0.000113287
8.98878e-05
0.000116547
0.000122052
0.000112657
9.02311e-05
0.000117239
8.92275e-05
4.98883e-05
4.9872e-05
8.94421e-05
8.92378e-05
4.9879e-05
4.98683e-05
8.94406e-05
0.000113357
0.000122079
9.0432e-05
0.000118419
8.988e-05
0.000117814
0.000113917
0.000113377
0.000122758
9.05299e-05
0.00011856
9.02442e-05
0.000117908
0.000113944
7.20094e-05
7.19948e-05
0.000123373
7.22446e-05
7.22443e-05
2.35662e-05
2.357e-05
2.35711e-05
2.3569e-05
0.000123766
7.22715e-05
7.23033e-05
7.2251e-05
7.2258e-05
2.35721e-05
2.35699e-05
0.000113265
8.99229e-05
0.000116637
0.000121603
0.000112683
8.98768e-05
0.000117255
8.92115e-05
4.98551e-05
8.90326e-05
4.98641e-05
0.000113275
0.000116575
8.98789e-05
0.000122125
0.00011266
0.000117267
9.02008e-05
8.92224e-05
4.98831e-05
4.98666e-05
8.94417e-05
0.000113349
0.000122088
9.04185e-05
0.000118429
8.98716e-05
0.000117826
0.000113914
8.92234e-05
4.98765e-05
4.98659e-05
8.94475e-05
0.00011337
0.000122929
0.00011862
9.06368e-05
0.000117943
9.02454e-05
0.000113949
8.92032e-05
4.98584e-05
8.90058e-05
4.98686e-05
0.000113211
0.000116607
8.97997e-05
0.000121638
0.000112598
0.000117205
8.99986e-05
8.91936e-05
4.98534e-05
8.90055e-05
4.98649e-05
0.000113338
0.00012275
9.05593e-05
0.000118549
9.024e-05
0.000117881
0.000113984
8.92343e-05
4.98814e-05
4.98705e-05
8.94822e-05
0.000113321
0.000122273
0.000118457
9.05961e-05
0.000117805
9.00329e-05
0.000113973
8.9224e-05
4.98815e-05
4.98676e-05
8.94802e-05
7.19818e-05
7.19856e-05
0.000123588
7.22162e-05
7.22204e-05
2.35663e-05
2.35703e-05
2.35711e-05
2.35687e-05
0.000123999
7.24196e-05
7.24456e-05
7.22863e-05
7.22953e-05
2.3573e-05
2.35706e-05
0.000113208
0.000116622
8.97999e-05
0.000121652
0.000112609
0.000117226
8.99985e-05
8.92005e-05
4.98584e-05
8.89911e-05
4.9869e-05
8.9191e-05
4.9852e-05
8.90027e-05
4.98632e-05
0.000113328
0.000122925
0.000118617
9.06693e-05
0.000117919
9.02513e-05
0.000113999
0.000113311
0.000122288
0.000118475
9.05849e-05
0.000117826
9.0033e-05
0.000113972
8.92242e-05
4.98815e-05
4.9871e-05
8.94925e-05
8.9221e-05
4.98796e-05
4.98658e-05
8.9481e-05
2.35644e-05
2.35674e-05
2.35634e-05
2.35664e-05
0.000123021
7.24334e-05
7.24235e-05
7.20396e-05
7.20371e-05
2.35729e-05
2.35679e-05
2.35719e-05
2.3567e-05
2.3576e-05
2.3579e-05
2.35734e-05
2.35764e-05
7.24541e-05
7.24474e-05
0.000126369
7.27567e-05
7.275e-05
2.35804e-05
2.35788e-05
2.35778e-05
2.35763e-05
0.000127099
7.27796e-05
7.27716e-05
7.27911e-05
7.27834e-05
8.97839e-05
4.98812e-05
8.94849e-05
4.98935e-05
0.000114798
9.0559e-05
0.000119109
0.00012512
0.000114041
9.11642e-05
0.000119889
0.000114778
9.05379e-05
0.00011922
0.000124892
0.00011406
9.08887e-05
0.000119919
8.98475e-05
4.99099e-05
4.99021e-05
9.01184e-05
8.98366e-05
4.99061e-05
4.98956e-05
9.0114e-05
0.000114949
0.0001262
9.15032e-05
0.000121569
9.12206e-05
0.000120726
0.000115714
0.000114924
0.000125738
9.13531e-05
0.000121466
9.09349e-05
0.000120673
0.000115684
7.22637e-05
7.22975e-05
0.0001257
7.24774e-05
7.24831e-05
2.35721e-05
2.35761e-05
2.35789e-05
2.35757e-05
0.000126181
7.27138e-05
7.27176e-05
7.25316e-05
7.2534e-05
2.35799e-05
2.35764e-05
0.000114797
9.05465e-05
0.000119116
0.000125121
0.000114039
9.11553e-05
0.000119897
8.97785e-05
4.98783e-05
8.94806e-05
4.98895e-05
0.000114784
0.000119305
9.06395e-05
0.000125058
0.000114069
0.000120004
9.0882e-05
8.98416e-05
4.99049e-05
4.98973e-05
9.01119e-05
0.000114947
0.0001262
9.14955e-05
0.000121578
9.1212e-05
0.000120734
0.000115707
8.98171e-05
4.99033e-05
4.98916e-05
9.01043e-05
0.000114926
0.000125774
0.000121491
9.13084e-05
0.000120729
9.09016e-05
0.00011567
8.98185e-05
4.98834e-05
8.95298e-05
4.9895e-05
0.000114875
0.000119194
9.07107e-05
0.000125189
0.000114112
0.000119993
9.11387e-05
8.98307e-05
4.98833e-05
8.95326e-05
4.98909e-05
0.000114989
0.000125774
9.13526e-05
0.000121511
9.09604e-05
0.000120729
0.000115667
8.98598e-05
4.9907e-05
4.98969e-05
9.00794e-05
0.000115012
0.000125919
0.000121534
9.11485e-05
0.00012079
9.11145e-05
0.000115662
8.98688e-05
4.99015e-05
4.98921e-05
9.00665e-05
7.2397e-05
7.24267e-05
0.000125903
7.23831e-05
7.24134e-05
2.35727e-05
2.35749e-05
2.35783e-05
2.35734e-05
0.000126268
7.27095e-05
7.27046e-05
7.2412e-05
7.24322e-05
2.35799e-05
2.35752e-05
0.000114873
0.000119207
9.06958e-05
0.00012518
0.000114109
0.000120002
9.11269e-05
8.98145e-05
4.98832e-05
8.95285e-05
4.98935e-05
8.9826e-05
4.98815e-05
8.9531e-05
4.98897e-05
0.000114989
0.000125819
0.000121537
9.13089e-05
0.000120792
9.09366e-05
0.000115657
0.000115006
0.000125914
0.000121543
9.11518e-05
0.0001208
9.11048e-05
0.00011566
8.98418e-05
4.99066e-05
4.98955e-05
9.00736e-05
8.98624e-05
4.99003e-05
4.98909e-05
9.00668e-05
2.35732e-05
2.35758e-05
2.35722e-05
2.35748e-05
0.000126417
7.24452e-05
7.24441e-05
7.25902e-05
7.25829e-05
2.35771e-05
2.35754e-05
2.35762e-05
2.35745e-05
2.35801e-05
2.35827e-05
2.35775e-05
2.35801e-05
7.27295e-05
7.27217e-05
0.000128136
7.26338e-05
7.26277e-05
2.35889e-05
2.35832e-05
2.35863e-05
2.35806e-05
0.000128233
7.28275e-05
7.28204e-05
7.26165e-05
7.2611e-05
9.0346e-05
4.99078e-05
9.01498e-05
4.99179e-05
0.000116455
9.14768e-05
0.000122381
0.000128189
0.00011584
9.15612e-05
0.000123135
0.000116448