/*--------------------------------*- C++ -*----------------------------------*\
| =========                 |                                                 |
| \\      /  F ield         | OpenFOAM: The Open Source CFD Toolbox           |
|  \\    /   O peration     | Version:  v2012                                 |
|   \\  /    A nd           | Website:  www.openfoam.com                      |
|    \\/     M anipulation  |                                                 |
\*---------------------------------------------------------------------------*/
FoamFile
{
    version     2.0;
    format      ascii;
    class       volScalarField;
    location    "100";
    object      k;
}
// * * * * * * * * * * * * * * * * * * * * * * * * * * * * * * * * * * * * * //

dimensions      [0 2 -2 0 0 0 0];


internalField   nonuniform List<scalar> 
171728
(
5.76433e-06
8.89232e-07
8.7651e-07
3.68782e-07
5.85117e-06
9.87409e-07
9.59283e-07
3.83071e-07
6.06192e-06
1.12967e-06
1.07947e-06
4.11358e-07
6.26593e-06
1.26424e-06
1.21286e-06
4.42116e-07
6.46619e-06
1.36288e-06
1.35717e-06
4.66092e-07
6.6624e-06
1.43494e-06
1.51384e-06
4.98882e-07
6.85545e-06
1.50135e-06
1.69523e-06
5.41515e-07
7.04371e-06
1.62508e-06
1.88884e-06
5.90971e-07
7.23155e-06
1.802e-06
2.11721e-06
6.50335e-07
7.42113e-06
2.03323e-06
2.29025e-06
7.36703e-07
7.62021e-06
2.30585e-06
2.46087e-06
8.8161e-07
7.82426e-06
2.63402e-06
2.72955e-06
1.12342e-06
8.03687e-06
3.04764e-06
3.12067e-06
1.45275e-06
8.26751e-06
3.53948e-06
3.60762e-06
1.84796e-06
8.50294e-06
4.06654e-06
4.10438e-06
2.30044e-06
8.77333e-06
4.68632e-06
4.73563e-06
2.90741e-06
9.09532e-06
5.41142e-06
5.42959e-06
3.72407e-06
9.50245e-06
6.28806e-06
6.31756e-06
4.86106e-06
1.00186e-05
7.39324e-06
7.41509e-06
6.41799e-06
1.06431e-05
8.88087e-06
8.89449e-06
8.76245e-06
1.15058e-05
1.09961e-05
1.09982e-05
1.21002e-05
1.27067e-05
1.38093e-05
1.38082e-05
1.62788e-05
1.39848e-05
1.67381e-05
1.67379e-05
2.00733e-05
1.53034e-05
1.93518e-05
1.93523e-05
2.29465e-05
1.62895e-05
2.09491e-05
2.09499e-05
2.45003e-05
1.67392e-05
2.15306e-05
2.15312e-05
2.49611e-05
1.68723e-05
2.16735e-05
2.16742e-05
2.50631e-05
1.69013e-05
2.17018e-05
2.17025e-05
2.50854e-05
1.69065e-05
2.17064e-05
2.17071e-05
2.50892e-05
1.69073e-05
2.17069e-05
2.17076e-05
2.50874e-05
1.69076e-05
2.17072e-05
2.17079e-05
2.50888e-05
1.69078e-05
2.17074e-05
2.1708e-05
2.50884e-05
1.69081e-05
2.17076e-05
2.17083e-05
2.50889e-05
1.69083e-05
2.17078e-05
2.17085e-05
2.50889e-05
1.69085e-05
2.1708e-05
2.17087e-05
2.5089e-05
1.69086e-05
2.1708e-05
2.17088e-05
2.50889e-05
1.69087e-05
2.17081e-05
2.17088e-05
2.50888e-05
1.69088e-05
2.17081e-05
2.17087e-05
2.50891e-05
1.69089e-05
2.17081e-05
2.17088e-05
2.50891e-05
1.69089e-05
2.17081e-05
2.17088e-05
2.5089e-05
1.6909e-05
2.17081e-05
2.17088e-05
2.50894e-05
1.69089e-05
2.17081e-05
2.17087e-05
2.50897e-05
1.69089e-05
2.17081e-05
2.17087e-05
2.50893e-05
1.69089e-05
2.17081e-05
2.17087e-05
2.50886e-05
1.69089e-05
2.17081e-05
2.17087e-05
2.50881e-05
1.69089e-05
2.17081e-05
2.17087e-05
2.50878e-05
1.69089e-05
2.17081e-05
2.17087e-05
2.50875e-05
1.69089e-05
2.17081e-05
2.17087e-05
2.5087e-05
1.69089e-05
2.17081e-05
2.17087e-05
2.50868e-05
1.6909e-05
2.17081e-05
2.17087e-05
2.50868e-05
1.6909e-05
2.17081e-05
2.17087e-05
2.50869e-05
1.69089e-05
2.17081e-05
2.17087e-05
2.50871e-05
1.6909e-05
2.17081e-05
2.17087e-05
2.50871e-05
1.6909e-05
2.17081e-05
2.17087e-05
2.50871e-05
1.6909e-05
2.17081e-05
2.17087e-05
2.50871e-05
1.69089e-05
2.17081e-05
2.17087e-05
2.50871e-05
1.6909e-05
2.17081e-05
2.17087e-05
2.50871e-05
1.6909e-05
2.17081e-05
2.17087e-05
2.50871e-05
1.69089e-05
2.17081e-05
2.17087e-05
2.5087e-05
1.6909e-05
2.1708e-05
2.17086e-05
2.50871e-05
1.6909e-05
2.1708e-05
2.17086e-05
2.50871e-05
1.69089e-05
2.1708e-05
2.17087e-05
2.50872e-05
1.69089e-05
2.1708e-05
2.17087e-05
2.50871e-05
1.69089e-05
2.1708e-05
2.17086e-05
2.5087e-05
1.69089e-05
2.1708e-05
2.17086e-05
2.50871e-05
1.69089e-05
2.1708e-05
2.17086e-05
2.50872e-05
1.69089e-05
2.17079e-05
2.17087e-05
2.5087e-05
1.69089e-05
2.1708e-05
2.17087e-05
2.5087e-05
1.69089e-05
2.1708e-05
2.17087e-05
2.50869e-05
1.69089e-05
2.1708e-05
2.17087e-05
2.50869e-05
1.69089e-05
2.1708e-05
2.17087e-05
2.5087e-05
1.69089e-05
2.1708e-05
2.17087e-05
2.50872e-05
1.69089e-05
2.1708e-05
2.17087e-05
2.50872e-05
1.69089e-05
2.1708e-05
2.17087e-05
2.50872e-05
1.69089e-05
2.1708e-05
2.17087e-05
2.50871e-05
1.69089e-05
2.1708e-05
2.17087e-05
2.50871e-05
1.69089e-05
2.1708e-05
2.17088e-05
2.50871e-05
1.69089e-05
2.1708e-05
2.17088e-05
2.50871e-05
1.69089e-05
2.1708e-05
2.17088e-05
2.50871e-05
1.69089e-05
2.17081e-05
2.17088e-05
2.5087e-05
1.6909e-05
2.17081e-05
2.17089e-05
2.50869e-05
1.6909e-05
2.17081e-05
2.17089e-05
2.5087e-05
1.6909e-05
2.17081e-05
2.17089e-05
2.50872e-05
1.69091e-05
2.17082e-05
2.1709e-05
2.50873e-05
1.69091e-05
2.17082e-05
2.17091e-05
2.50873e-05
1.69092e-05
2.17083e-05
2.17091e-05
2.50873e-05
1.69092e-05
2.17084e-05
2.17092e-05
2.50872e-05
1.69093e-05
2.17085e-05
2.17093e-05
2.50872e-05
1.69093e-05
2.17086e-05
2.17095e-05
2.50874e-05
1.69094e-05
2.17089e-05
2.17097e-05
2.50873e-05
1.69095e-05
2.17092e-05
2.17101e-05
2.50872e-05
1.69096e-05
2.17098e-05
2.17107e-05
2.50874e-05
1.69096e-05
2.17107e-05
2.17115e-05
2.50874e-05
1.69052e-05
2.17077e-05
2.17085e-05
2.50834e-05
1.67632e-05
2.11541e-05
2.11545e-05
2.4546e-05
3.90798e-07
5.51072e-07
5.92562e-07
4.04095e-07
6.12709e-07
6.6432e-07
5.86543e-06
5.86905e-06
5.89341e-06
5.85928e-06
6.10459e-07
5.98101e-07
4.09102e-07
6.20776e-07
5.83547e-07
3.69245e-07
3.90201e-07
3.99352e-07
7.44131e-07
8.02897e-07
7.92029e-07
8.43891e-07
4.02052e-07
4.04071e-07
8.17888e-07
9.01199e-07
8.53592e-07
9.46834e-07
8.06708e-07
9.54547e-07
8.46746e-07
4.07755e-07
4.21671e-07
8.83808e-07
9.32226e-07
9.31494e-07
3.8402e-07
3.98219e-07
4.11736e-07
8.17893e-07
8.66454e-07
9.02363e-07
9.38277e-07
4.02286e-07
4.21842e-07
8.72127e-07
9.70237e-07
9.3095e-07
1.04308e-06
8.67504e-07
1.09524e-06
9.31967e-07
4.20608e-07
4.52512e-07
9.55871e-07
1.04878e-06
1.02602e-06
4.12299e-07
4.10066e-07
4.19747e-07
9.31802e-07
9.64481e-07
1.02065e-06
1.05145e-06
4.20114e-07
4.47059e-07
9.5245e-07
1.06853e-06
1.02485e-06
1.14711e-06
9.55657e-07
1.23522e-06
1.03149e-06
4.51362e-07
4.86687e-07
1.05093e-06
1.17837e-06
1.13272e-06
4.43416e-07
4.16986e-07
4.32482e-07
1.05109e-06
1.08236e-06
1.14854e-06
1.17927e-06
4.45286e-07
4.76171e-07
1.05051e-06
1.17498e-06
1.1407e-06
1.2616e-06
1.05708e-06
1.34151e-06
1.1432e-06
4.85226e-07
5.21379e-07
1.15737e-06
1.32023e-06
1.22591e-06
4.68151e-07
4.301e-07
4.63171e-07
1.18095e-06
1.21261e-06
1.28774e-06
1.32555e-06
4.73568e-07
5.00698e-07
1.1719e-06
1.29023e-06
1.27763e-06
1.39057e-06
1.17403e-06
1.42374e-06
1.2744e-06
5.19243e-07
5.56967e-07
1.24761e-06
1.47602e-06
1.3289e-06
5.00508e-07
4.61561e-07
5.14422e-07
1.32584e-06
1.36427e-06
1.44312e-06
1.49553e-06
4.98122e-07
5.43471e-07
1.31709e-06
1.42538e-06
1.44049e-06
1.53086e-06
1.31246e-06
1.47894e-06
1.43125e-06
5.54695e-07
6.00287e-07
1.35994e-06
1.64935e-06
1.4702e-06
5.43445e-07
5.13127e-07
5.76957e-07
1.48437e-06
1.54235e-06
1.61961e-06
1.68035e-06
5.42213e-07
6.09691e-07
1.48328e-06
1.56385e-06
1.61837e-06
1.66868e-06
1.47187e-06
1.58833e-06
1.60438e-06
5.97766e-07
6.50933e-07
1.51176e-06
1.83597e-06
1.64231e-06
5.93034e-07
5.75646e-07
6.5496e-07
1.66807e-06
1.73022e-06
1.81349e-06
1.88419e-06
6.09e-07
6.94768e-07
1.66901e-06
1.70844e-06
1.82371e-06
1.84366e-06
1.65331e-06
1.75367e-06
1.80296e-06
6.48834e-07
7.24772e-07
1.68793e-06
2.06086e-06
1.81645e-06
6.52145e-07
6.54467e-07
7.61249e-07
1.86619e-06
1.9391e-06
2.03992e-06
2.11169e-06
6.94287e-07
7.94004e-07
1.87749e-06
1.89939e-06
2.05563e-06
2.05845e-06
1.85766e-06
1.97288e-06
2.03844e-06
7.23278e-07
8.09296e-07
1.86072e-06
2.25767e-06
2.00193e-06
7.36891e-07
7.62417e-07
9.07282e-07
2.1026e-06
2.1695e-06
2.32171e-06
2.35717e-06
7.94212e-07
9.31112e-07
2.12046e-06
2.11482e-06
2.33659e-06
2.32553e-06
2.10364e-06
2.23366e-06
2.32578e-06
8.07865e-07
9.22025e-07
2.05104e-06
2.41214e-06
2.23513e-06
8.75373e-07
9.11952e-07
1.12715e-06
2.40021e-06
2.42398e-06
2.65272e-06
2.63919e-06
9.35478e-07
1.13504e-06
2.41406e-06
2.39171e-06
2.6647e-06
2.61291e-06
2.4072e-06
2.54246e-06
2.66778e-06
9.24854e-07
1.12486e-06
2.30747e-06
2.64473e-06
2.54476e-06
1.11064e-06
1.13911e-06
1.4448e-06
2.75166e-06
2.72427e-06
3.05943e-06
3.00209e-06
1.14525e-06
1.43677e-06
2.75996e-06
2.71122e-06
3.06225e-06
3.03165e-06
2.76605e-06
2.94087e-06
3.07298e-06
1.13739e-06
1.44892e-06
2.63776e-06
3.02087e-06
2.94144e-06
1.43378e-06
1.46294e-06
1.82793e-06
3.16526e-06
3.10329e-06
3.52795e-06
3.45869e-06
1.4554e-06
1.83235e-06
3.16396e-06
3.13656e-06
3.50695e-06
3.48379e-06
3.17583e-06
3.41767e-06
3.52208e-06
1.46765e-06
1.83887e-06
3.04874e-06
3.48649e-06
3.41811e-06
1.82491e-06
1.85013e-06
2.27032e-06
3.64564e-06
3.57633e-06
4.01733e-06
3.94699e-06
1.85582e-06
2.27429e-06
3.62533e-06
3.59961e-06
3.99919e-06
3.96396e-06
3.6373e-06
3.92089e-06
4.00422e-06
1.86169e-06
2.2811e-06
3.54057e-06
3.96219e-06
3.91592e-06
2.26924e-06
2.30166e-06
2.86483e-06
4.16172e-06
4.08856e-06
4.60567e-06
4.53863e-06
2.30466e-06
2.85835e-06
4.14425e-06
4.10483e-06
4.60712e-06
4.55221e-06
4.14888e-06
4.52861e-06
4.59943e-06
2.31195e-06
2.87612e-06
4.06155e-06
4.5815e-06
4.52307e-06
2.85972e-06
2.9127e-06
3.6292e-06
4.75498e-06
4.69599e-06
5.25737e-06
5.21908e-06
2.9059e-06
3.62128e-06
4.76452e-06
4.70716e-06
5.27808e-06
5.2272e-06
4.7515e-06
5.21213e-06
5.2571e-06
2.92464e-06
3.63737e-06
4.68074e-06
5.23315e-06
5.20147e-06
3.61857e-06
3.73635e-06
4.68774e-06
5.455e-06
5.41842e-06
6.09766e-06
6.06058e-06
3.72703e-06
4.66227e-06
5.47387e-06
5.42756e-06
6.11516e-06
6.07236e-06
5.45394e-06
6.05802e-06
6.0966e-06
3.7433e-06
4.68355e-06
5.40129e-06
6.08589e-06
6.05035e-06
4.66467e-06
4.88283e-06
6.13247e-06
6.32446e-06
6.29074e-06
7.10773e-06
7.08625e-06
4.85947e-06
6.12117e-06
6.34357e-06
6.30103e-06
7.12361e-06
7.08972e-06
6.32382e-06
7.08398e-06
7.10324e-06
4.88159e-06
6.13912e-06
6.28239e-06
7.10802e-06
7.0801e-06
6.11706e-06
6.43298e-06
8.32742e-06
7.41789e-06
7.39697e-06
8.49498e-06
8.47324e-06
6.42318e-06
8.30207e-06
7.4297e-06
7.39918e-06
8.49849e-06
8.47339e-06
7.41048e-06
8.46899e-06
8.48093e-06
6.43932e-06
8.31537e-06
7.39175e-06
8.48531e-06
8.47043e-06
8.30458e-06
8.78666e-06
1.14754e-05
8.90533e-06
8.88647e-06
1.03943e-05
1.03904e-05
8.75801e-06
1.14609e-05
8.90828e-06
8.88486e-06
1.03979e-05
1.03828e-05
8.89104e-06
1.03845e-05
1.0384e-05
8.77124e-06
1.14618e-05
8.88263e-06
1.03889e-05
1.03807e-05
1.14572e-05
1.21161e-05
1.55537e-05
1.10025e-05
1.10025e-05
1.30806e-05
1.30848e-05
1.21074e-05
1.55569e-05
1.10059e-05
1.09941e-05
1.3082e-05
1.3078e-05
1.09941e-05
1.30806e-05
1.30766e-05
1.2105e-05
1.55509e-05
1.09918e-05
1.30796e-05
1.30755e-05
1.55481e-05
1.62831e-05
1.9466e-05
1.38095e-05
1.38133e-05
1.60091e-05
1.60109e-05
1.62867e-05
1.94676e-05
1.38101e-05
1.38079e-05
1.60082e-05
1.6009e-05
1.38065e-05
1.60088e-05
1.60082e-05
1.62812e-05
1.94661e-05
1.38054e-05
1.60084e-05
1.60069e-05
1.94658e-05
2.00733e-05
2.25143e-05
1.67391e-05
1.67404e-05
1.87746e-05
1.87749e-05
2.00748e-05
2.25146e-05
1.67379e-05
1.67392e-05
1.8773e-05
1.87751e-05
1.67386e-05
1.87734e-05
1.87748e-05
2.00737e-05
2.25152e-05
1.67373e-05
1.87738e-05
1.87733e-05
2.25155e-05
2.29455e-05
2.42911e-05
1.93534e-05
1.93535e-05
2.0663e-05
2.06629e-05
2.2946e-05
2.42914e-05
1.93516e-05
1.93539e-05
2.06613e-05
2.06636e-05
1.93536e-05
2.06615e-05
2.06633e-05
2.29465e-05
2.42922e-05
1.93521e-05
2.06624e-05
2.06618e-05
2.42922e-05
2.44995e-05
2.48957e-05
2.09507e-05
2.09505e-05
2.14488e-05
2.14485e-05
2.44999e-05
2.48956e-05
2.0949e-05
2.09512e-05
2.14473e-05
2.14493e-05
2.0951e-05
2.14475e-05
2.14491e-05
2.45005e-05
2.48967e-05
2.09495e-05
2.14481e-05
2.14478e-05
2.48966e-05
2.49603e-05
2.50295e-05
2.15319e-05
2.15317e-05
2.16569e-05
2.16566e-05
2.49604e-05
2.50295e-05
2.15305e-05
2.15324e-05
2.16555e-05
2.16574e-05
2.15323e-05
2.16556e-05
2.16571e-05
2.49613e-05
2.50303e-05
2.1531e-05
2.16562e-05
2.16559e-05
2.50301e-05
2.50625e-05
2.50585e-05
2.16749e-05
2.16745e-05
2.16998e-05
2.16995e-05
2.50627e-05
2.50586e-05
2.16734e-05
2.16753e-05
2.16984e-05
2.17002e-05
2.1675e-05
2.16984e-05
2.16998e-05
2.50634e-05
2.50593e-05
2.16738e-05
2.16991e-05
2.16987e-05
2.5059e-05
2.5085e-05
2.50646e-05
2.17032e-05
2.17029e-05
2.17075e-05
2.17072e-05
2.50853e-05
2.50646e-05
2.17019e-05
2.17036e-05
2.17062e-05
2.17079e-05
2.17032e-05
2.17061e-05
2.17074e-05
2.50858e-05
2.50653e-05
2.17021e-05
2.17068e-05
2.17062e-05
2.50649e-05
2.5089e-05
2.50626e-05
2.17079e-05
2.17076e-05
2.17083e-05
2.1708e-05
2.50891e-05
2.50626e-05
2.17065e-05
2.17083e-05
2.17069e-05
2.17087e-05
2.17077e-05
2.17068e-05
2.1708e-05
2.50897e-05
2.50633e-05
2.17065e-05
2.17075e-05
2.17069e-05
2.50627e-05
2.50874e-05
2.5064e-05
2.17084e-05
2.17081e-05
2.17087e-05
2.17084e-05
2.50876e-05
2.5064e-05
2.1707e-05
2.17088e-05
2.17073e-05
2.1709e-05
2.17081e-05
2.17072e-05
2.17083e-05
2.50881e-05
2.50647e-05
2.17069e-05
2.17078e-05
2.17072e-05
2.50641e-05
2.50887e-05
2.50636e-05
2.17088e-05
2.17085e-05
2.17089e-05
2.17086e-05
2.50888e-05
2.50636e-05
2.17074e-05
2.17091e-05
2.17075e-05
2.17092e-05
2.17084e-05
2.17073e-05
2.17086e-05
2.50894e-05
2.50643e-05
2.17072e-05
2.1708e-05
2.17074e-05
2.50637e-05
2.50883e-05
2.50642e-05
2.17089e-05
2.17086e-05
2.17091e-05
2.17088e-05
2.50885e-05
2.50641e-05
2.17075e-05
2.17093e-05
2.17077e-05
2.17094e-05
2.17086e-05
2.17075e-05
2.17087e-05
2.5089e-05
2.50648e-05
2.17074e-05
2.17082e-05
2.17076e-05
2.50642e-05
2.50888e-05
2.50642e-05
2.17091e-05
2.17089e-05
2.17093e-05
2.17091e-05
2.5089e-05
2.50642e-05
2.17078e-05
2.17095e-05
2.1708e-05
2.17097e-05
2.17088e-05
2.17077e-05
2.1709e-05
2.50895e-05
2.50648e-05
2.17076e-05
2.17084e-05
2.17078e-05
2.50642e-05
2.5089e-05
2.50644e-05
2.17094e-05
2.17091e-05
2.17096e-05
2.17093e-05
2.5089e-05
2.50644e-05
2.1708e-05
2.17097e-05
2.17082e-05
2.17099e-05
2.1709e-05
2.17079e-05
2.17091e-05
2.50896e-05
2.5065e-05
2.17079e-05
2.17086e-05
2.1708e-05
2.50644e-05
2.50891e-05
2.50645e-05
2.17096e-05
2.17093e-05
2.17097e-05
2.17094e-05
2.50892e-05
2.50644e-05
2.17082e-05
2.17099e-05
2.17083e-05
2.171e-05
2.17091e-05
2.1708e-05
2.17092e-05
2.50897e-05
2.5065e-05
2.1708e-05
2.17087e-05
2.1708e-05
2.50642e-05
2.50891e-05
2.50644e-05
2.17097e-05
2.17094e-05
2.17097e-05
2.17095e-05
2.50893e-05
2.50644e-05
2.17083e-05
2.171e-05
2.17083e-05
2.171e-05
2.17092e-05
2.1708e-05
2.17092e-05
2.50897e-05
2.5065e-05
2.1708e-05
2.17088e-05
2.1708e-05
2.50642e-05
2.50892e-05
2.50643e-05
2.17097e-05
2.17095e-05
2.17097e-05
2.17095e-05
2.50893e-05
2.50643e-05
2.17083e-05
2.171e-05
2.17084e-05
2.171e-05
2.17092e-05
2.17081e-05
2.17092e-05
2.50897e-05
2.50649e-05
2.1708e-05
2.17088e-05
2.1708e-05
2.50646e-05
2.50889e-05
2.50648e-05
2.17097e-05
2.17095e-05
2.17098e-05
2.17095e-05
2.50891e-05
2.50647e-05
2.17083e-05
2.171e-05
2.17084e-05
2.171e-05
2.17091e-05
2.17081e-05
2.17092e-05
2.50895e-05
2.50653e-05
2.1708e-05
2.17088e-05
2.1708e-05
2.50644e-05
2.50892e-05
2.5065e-05
2.17097e-05
2.17095e-05
2.17098e-05
2.17095e-05
2.50894e-05
2.50648e-05
2.17084e-05
2.171e-05
2.17084e-05
2.171e-05
2.17092e-05
2.17081e-05
2.17091e-05
2.50899e-05
2.50653e-05
2.1708e-05
2.17088e-05
2.1708e-05
2.50644e-05
2.50898e-05
2.50642e-05
2.17098e-05
2.17095e-05
2.17097e-05
2.17096e-05
2.50898e-05
2.50642e-05
2.17084e-05
2.171e-05
2.17084e-05
2.171e-05
2.17092e-05
2.17081e-05
2.17092e-05
2.50902e-05
2.50646e-05
2.1708e-05
2.17088e-05
2.1708e-05
2.50647e-05
2.50895e-05
2.50637e-05
2.17097e-05
2.17096e-05
2.17097e-05
2.17095e-05
2.50893e-05
2.50639e-05
2.17084e-05
2.171e-05
2.17083e-05
2.171e-05
2.17091e-05
2.17081e-05
2.17092e-05
2.50896e-05
2.50644e-05
2.1708e-05
2.17087e-05
2.1708e-05
2.50645e-05
2.50887e-05
2.5064e-05
2.17097e-05
2.17095e-05
2.17097e-05
2.17095e-05
2.50887e-05
2.50643e-05
2.17083e-05
2.171e-05
2.17083e-05
2.17099e-05
2.17092e-05
2.17081e-05
2.17092e-05
2.50891e-05
2.50649e-05
2.1708e-05
2.17087e-05
2.1708e-05
2.50636e-05
2.50885e-05
2.50645e-05
2.17096e-05
2.17095e-05
2.17096e-05
2.17095e-05
2.50888e-05
2.50646e-05
2.17083e-05
2.17099e-05
2.17083e-05
2.17099e-05
2.17092e-05
2.17081e-05
2.17092e-05
2.50893e-05
2.50652e-05
2.1708e-05
2.17087e-05
2.1708e-05
2.5063e-05
2.50889e-05
2.50646e-05
2.17096e-05
2.17095e-05
2.17096e-05
2.17095e-05
2.50892e-05
2.50646e-05
2.17083e-05
2.17099e-05
2.17083e-05
2.171e-05
2.17092e-05
2.17081e-05
2.17091e-05
2.50897e-05
2.5065e-05
2.1708e-05
2.17087e-05
2.1708e-05
2.50626e-05
2.50892e-05
2.50644e-05
2.17096e-05
2.17095e-05
2.17097e-05
2.17095e-05
2.50892e-05
2.50644e-05
2.17083e-05
2.17099e-05
2.17083e-05
2.17099e-05
2.17092e-05
2.17081e-05
2.17092e-05
2.50897e-05
2.50649e-05
2.1708e-05
2.17087e-05
2.1708e-05
2.50623e-05
2.50891e-05
2.50644e-05
2.17097e-05
2.17094e-05
2.17097e-05
2.17094e-05
2.50891e-05
2.50642e-05
2.17083e-05
2.17099e-05
2.17083e-05
2.171e-05
2.17092e-05
2.17081e-05
2.17092e-05
2.50895e-05
2.50649e-05
2.1708e-05
2.17087e-05
2.1708e-05
2.50618e-05
2.5089e-05
2.50644e-05
2.17097e-05
2.17094e-05
2.17097e-05
2.17094e-05
2.50889e-05
2.50643e-05
2.17083e-05
2.17099e-05
2.17082e-05
2.171e-05
2.17092e-05
2.17081e-05
2.17091e-05
2.50895e-05
2.5065e-05
2.1708e-05
2.17087e-05
2.1708e-05
2.50613e-05
2.5089e-05
2.50644e-05
2.17097e-05
2.17094e-05
2.17097e-05
2.17093e-05
2.50889e-05
2.50643e-05
2.17082e-05
2.171e-05
2.17082e-05
2.171e-05
2.17092e-05
2.17081e-05
2.17091e-05
2.50895e-05
2.5065e-05
2.1708e-05
2.17087e-05
2.1708e-05
2.50613e-05
2.5089e-05
2.50645e-05
2.17097e-05
2.17093e-05
2.17097e-05
2.17092e-05
2.50889e-05
2.50641e-05
2.17082e-05
2.171e-05
2.17082e-05
2.171e-05
2.17092e-05
2.17081e-05
2.17091e-05
2.50894e-05
2.5065e-05
2.1708e-05
2.17087e-05
2.1708e-05
2.50613e-05
2.5089e-05
2.50644e-05
2.17097e-05
2.17092e-05
2.17097e-05
2.17091e-05
2.50887e-05
2.50641e-05
2.17082e-05
2.171e-05
2.17082e-05
2.171e-05
2.17092e-05
2.17081e-05
2.17091e-05
2.50895e-05
2.50651e-05
2.1708e-05
2.17087e-05
2.1708e-05
2.50614e-05
2.5089e-05
2.50643e-05
2.17097e-05
2.17091e-05
2.17097e-05
2.17091e-05
2.50887e-05
2.50641e-05
2.17082e-05
2.171e-05
2.17082e-05
2.171e-05
2.17092e-05
2.17081e-05
2.17091e-05
2.50895e-05
2.5065e-05
2.1708e-05
2.17086e-05
2.1708e-05
2.50613e-05
2.50889e-05
2.50643e-05
2.17097e-05
2.17091e-05
2.17097e-05
2.1709e-05
2.50887e-05
2.5064e-05
2.17082e-05
2.171e-05
2.17082e-05
2.171e-05
2.17092e-05
2.17081e-05
2.17091e-05
2.50895e-05
2.5065e-05
2.1708e-05
2.17086e-05
2.1708e-05
2.50613e-05
2.50888e-05
2.50643e-05
2.17097e-05
2.1709e-05
2.17097e-05
2.1709e-05
2.50886e-05
2.5064e-05
2.17082e-05
2.171e-05
2.17082e-05
2.171e-05
2.17092e-05
2.17081e-05
2.17091e-05
2.50895e-05
2.50651e-05
2.1708e-05
2.17086e-05
2.1708e-05
2.50612e-05
2.50888e-05
2.50644e-05
2.17097e-05
2.1709e-05
2.17097e-05
2.17089e-05
2.50885e-05
2.5064e-05
2.17082e-05
2.171e-05
2.17082e-05
2.171e-05
2.17092e-05
2.17081e-05
2.17091e-05
2.50895e-05
2.50651e-05
2.1708e-05
2.17086e-05
2.1708e-05
2.50613e-05
2.50888e-05
2.50644e-05
2.17097e-05
2.17089e-05
2.17097e-05
2.17089e-05
2.50885e-05
2.50639e-05
2.17082e-05
2.171e-05
2.17082e-05
2.171e-05
2.17092e-05
2.17081e-05
2.17092e-05
2.50895e-05
2.50651e-05
2.1708e-05
2.17086e-05
2.1708e-05
2.50613e-05
2.50889e-05
2.50644e-05
2.17097e-05
2.17089e-05
2.17097e-05
2.17089e-05
2.50885e-05
2.50639e-05
2.17082e-05
2.171e-05
2.17082e-05
2.171e-05
2.17092e-05
2.17081e-05
2.17092e-05
2.50895e-05
2.50651e-05
2.1708e-05
2.17086e-05
2.1708e-05
2.50613e-05
2.50889e-05
2.50643e-05
2.17097e-05
2.17089e-05
2.17097e-05
2.17089e-05
2.50884e-05
2.50639e-05
2.17082e-05
2.171e-05
2.17082e-05
2.171e-05
2.17092e-05
2.17081e-05
2.17092e-05
2.50895e-05
2.50652e-05
2.1708e-05
2.17086e-05
2.1708e-05
2.50613e-05
2.50889e-05
2.50643e-05
2.17097e-05
2.17089e-05
2.17097e-05
2.17088e-05
2.50884e-05
2.50639e-05
2.17082e-05
2.171e-05
2.17082e-05
2.171e-05
2.17092e-05
2.17081e-05
2.17092e-05
2.50896e-05
2.50651e-05
2.1708e-05
2.17086e-05
2.1708e-05
2.50613e-05
2.50888e-05
2.50642e-05
2.17097e-05
2.17088e-05
2.17097e-05
2.17088e-05
2.50884e-05
2.50639e-05
2.17082e-05
2.171e-05
2.17081e-05
2.171e-05
2.17092e-05
2.1708e-05
2.17092e-05
2.50896e-05
2.50651e-05
2.1708e-05
2.17086e-05
2.1708e-05
2.50613e-05
2.50888e-05
2.50643e-05
2.17097e-05
2.17088e-05
2.17097e-05
2.17088e-05
2.50884e-05
2.50639e-05
2.17081e-05
2.171e-05
2.17081e-05
2.171e-05
2.17092e-05
2.1708e-05
2.17092e-05
2.50895e-05
2.5065e-05
2.1708e-05
2.17086e-05
2.1708e-05
2.50613e-05
2.50888e-05
2.50643e-05
2.17097e-05
2.17088e-05
2.17097e-05
2.17088e-05
2.50884e-05
2.50638e-05
2.17081e-05
2.171e-05
2.17081e-05
2.171e-05
2.17092e-05
2.1708e-05
2.17091e-05
2.50895e-05
2.50651e-05
2.1708e-05
2.17086e-05
2.1708e-05
2.50613e-05
2.50887e-05
2.50643e-05
2.17097e-05
2.17088e-05
2.17097e-05
2.17088e-05
2.50884e-05
2.50638e-05
2.17081e-05
2.171e-05
2.17081e-05
2.171e-05
2.17092e-05
2.1708e-05
2.17091e-05
2.50895e-05
2.50651e-05
2.1708e-05
2.17086e-05
2.1708e-05
2.50613e-05
2.50887e-05
2.50644e-05
2.17097e-05
2.17088e-05
2.17097e-05
2.17088e-05
2.50884e-05
2.50638e-05
2.17081e-05
2.171e-05
2.17081e-05
2.171e-05
2.17092e-05
2.1708e-05
2.17091e-05
2.50895e-05
2.50651e-05
2.1708e-05
2.17086e-05
2.1708e-05
2.50613e-05
2.50888e-05
2.50643e-05
2.17097e-05
2.17088e-05
2.17097e-05
2.17088e-05
2.50884e-05
2.50638e-05
2.17081e-05
2.171e-05
2.17081e-05
2.171e-05
2.17092e-05
2.1708e-05
2.17091e-05
2.50895e-05
2.50651e-05
2.1708e-05
2.17086e-05
2.1708e-05
2.50613e-05
2.50888e-05
2.50643e-05
2.17097e-05
2.17088e-05
2.17097e-05
2.17088e-05
2.50884e-05
2.50637e-05
2.17081e-05
2.171e-05
2.17081e-05
2.17099e-05
2.17092e-05
2.17079e-05
2.17091e-05
2.50895e-05
2.50651e-05
2.1708e-05
2.17086e-05
2.1708e-05
2.50613e-05
2.50888e-05
2.50643e-05
2.17097e-05
2.17088e-05
2.17097e-05
2.17087e-05
2.50883e-05
2.50636e-05
2.17081e-05
2.17099e-05
2.17081e-05
2.17099e-05
2.17092e-05
2.17079e-05
2.17091e-05
2.50895e-05
2.50651e-05
2.1708e-05
2.17086e-05
2.1708e-05
2.50612e-05
2.50888e-05
2.50642e-05
2.17097e-05
2.17087e-05
2.17097e-05
2.17087e-05
2.50882e-05
2.50638e-05
2.17081e-05
2.17099e-05
2.17081e-05
2.171e-05
2.17092e-05
2.17079e-05
2.17091e-05
2.50895e-05
2.50651e-05
2.1708e-05
2.17087e-05
2.1708e-05
2.50613e-05
2.50888e-05
2.50642e-05
2.17097e-05
2.17087e-05
2.17097e-05
2.17087e-05
2.50883e-05
2.50638e-05
2.17081e-05
2.171e-05
2.17081e-05
2.171e-05
2.17092e-05
2.1708e-05
2.17091e-05
2.50895e-05
2.50651e-05
2.1708e-05
2.17087e-05
2.1708e-05
2.50613e-05
2.50887e-05
2.50643e-05
2.17097e-05
2.17087e-05
2.17097e-05
2.17087e-05
2.50884e-05
2.50638e-05
2.17081e-05
2.171e-05
2.17081e-05
2.171e-05
2.17091e-05
2.1708e-05
2.17091e-05
2.50895e-05
2.50651e-05
2.1708e-05
2.17087e-05
2.1708e-05
2.50613e-05
2.50887e-05
2.50644e-05
2.17097e-05
2.17087e-05
2.17097e-05
2.17087e-05
2.50884e-05
2.50638e-05
2.17081e-05
2.171e-05
2.17081e-05
2.171e-05
2.17092e-05
2.17079e-05
2.17091e-05
2.50895e-05
2.50651e-05
2.1708e-05
2.17087e-05
2.1708e-05
2.50614e-05
2.50888e-05
2.50643e-05
2.17097e-05
2.17087e-05
2.17097e-05
2.17087e-05
2.50884e-05
2.50637e-05
2.17081e-05
2.171e-05
2.17081e-05
2.171e-05
2.17092e-05
2.17079e-05
2.17091e-05
2.50895e-05
2.50651e-05
2.1708e-05
2.17087e-05
2.1708e-05
2.50614e-05
2.50888e-05
2.50643e-05
2.17097e-05
2.17087e-05
2.17097e-05
2.17087e-05
2.50883e-05
2.50637e-05
2.17081e-05
2.171e-05
2.17081e-05
2.171e-05
2.17092e-05
2.17079e-05
2.17091e-05
2.50895e-05
2.50651e-05
2.1708e-05
2.17087e-05
2.1708e-05
2.50613e-05
2.50888e-05
2.50643e-05
2.17097e-05
2.17087e-05
2.17097e-05
2.17087e-05
2.50883e-05
2.50637e-05
2.17081e-05
2.171e-05
2.17081e-05
2.17099e-05
2.17092e-05
2.17079e-05
2.17091e-05
2.50895e-05
2.50651e-05
2.1708e-05
2.17087e-05
2.1708e-05
2.50613e-05
2.50888e-05
2.50643e-05
2.17097e-05
2.17087e-05
2.17097e-05
2.17087e-05
2.50883e-05
2.50638e-05
2.17081e-05
2.171e-05
2.17081e-05
2.17099e-05
2.17092e-05
2.17079e-05
2.17091e-05
2.50895e-05
2.50651e-05
2.1708e-05
2.17087e-05
2.1708e-05
2.50613e-05
2.50888e-05
2.50643e-05
2.17097e-05
2.17087e-05
2.17097e-05
2.17087e-05
2.50883e-05
2.50638e-05
2.17081e-05
2.17099e-05
2.17081e-05
2.17099e-05
2.17092e-05
2.17079e-05
2.17091e-05
2.50895e-05
2.50651e-05
2.1708e-05
2.17087e-05
2.1708e-05
2.50613e-05
2.50888e-05
2.50643e-05
2.17097e-05
2.17088e-05
2.17097e-05
2.17087e-05
2.50884e-05
2.50638e-05
2.17081e-05
2.171e-05
2.17081e-05
2.17099e-05
2.17092e-05
2.17079e-05
2.17091e-05
2.50895e-05
2.50651e-05
2.17081e-05
2.17087e-05
2.1708e-05
2.50613e-05
2.50887e-05
2.50643e-05
2.17097e-05
2.17088e-05
2.17096e-05
2.17087e-05
2.50884e-05
2.50638e-05
2.17081e-05
2.171e-05
2.17081e-05
2.17099e-05
2.17092e-05
2.1708e-05
2.17091e-05
2.50896e-05
2.50651e-05
2.17081e-05
2.17087e-05
2.1708e-05
2.50613e-05
2.50888e-05
2.50644e-05
2.17097e-05
2.17088e-05
2.17096e-05
2.17087e-05
2.50884e-05
2.50637e-05
2.17081e-05
2.171e-05
2.17081e-05
2.17099e-05
2.17092e-05
2.1708e-05
2.17091e-05
2.50895e-05
2.50651e-05
2.17081e-05
2.17087e-05
2.1708e-05
2.50613e-05
2.50889e-05
2.50643e-05
2.17097e-05
2.17088e-05
2.17097e-05
2.17087e-05
2.50883e-05
2.50638e-05
2.17081e-05
2.171e-05
2.17081e-05
2.171e-05
2.17092e-05
2.1708e-05
2.17091e-05
2.50895e-05
2.50651e-05
2.17081e-05
2.17088e-05
2.1708e-05
2.50612e-05
2.50889e-05
2.50643e-05
2.17097e-05
2.17088e-05
2.17097e-05
2.17087e-05
2.50883e-05
2.50639e-05
2.17082e-05
2.171e-05
2.17081e-05
2.171e-05
2.17092e-05
2.1708e-05
2.17091e-05
2.50895e-05
2.50652e-05
2.17082e-05
2.17088e-05
2.17081e-05
2.50613e-05
2.50888e-05
2.50642e-05
2.17098e-05
2.17088e-05
2.17097e-05
2.17087e-05
2.50884e-05
2.50638e-05
2.17082e-05
2.17101e-05
2.17081e-05
2.17099e-05
2.17093e-05
2.1708e-05
2.17092e-05
2.50896e-05
2.50651e-05
2.17082e-05
2.17088e-05
2.17081e-05
2.50614e-05
2.50888e-05
2.50642e-05
2.17098e-05
2.17089e-05
2.17097e-05
2.17087e-05
2.50884e-05
2.50637e-05
2.17082e-05
2.17101e-05
2.17081e-05
2.171e-05
2.17093e-05
2.17079e-05
2.17092e-05
2.50896e-05
2.50651e-05
2.17083e-05
2.17087e-05
2.17081e-05
2.50614e-05
2.50888e-05
2.50643e-05
2.17099e-05
2.17089e-05
2.17097e-05
2.17087e-05
2.50884e-05
2.50637e-05
2.17083e-05
2.17101e-05
2.17081e-05
2.171e-05
2.17094e-05
2.17079e-05
2.17092e-05
2.50895e-05
2.50651e-05
2.17083e-05
2.17087e-05
2.17081e-05
2.50614e-05
2.50887e-05
2.50644e-05
2.17099e-05
2.1709e-05
2.17097e-05
2.17087e-05
2.50883e-05
2.50638e-05
2.17084e-05
2.17102e-05
2.17081e-05
2.171e-05
2.17094e-05
2.17079e-05
2.17092e-05
2.50896e-05
2.50652e-05
2.17084e-05
2.17087e-05
2.17081e-05
2.50613e-05
2.50889e-05
2.50645e-05
2.171e-05
2.1709e-05
2.17097e-05
2.17087e-05
2.50883e-05
2.50638e-05
2.17084e-05
2.17103e-05
2.17081e-05
2.17099e-05
2.17095e-05
2.17079e-05
2.17091e-05
2.50896e-05
2.50651e-05
2.17085e-05
2.17087e-05
2.17081e-05
2.50614e-05
2.50891e-05
2.50644e-05
2.17101e-05
2.17091e-05
2.17097e-05
2.17087e-05
2.50883e-05
2.50638e-05
2.17085e-05
2.17103e-05
2.17081e-05
2.17099e-05
2.17096e-05
2.17078e-05
2.17091e-05
2.50896e-05
2.50651e-05
2.17085e-05
2.17087e-05
2.17081e-05
2.50613e-05
2.5089e-05
2.50644e-05
2.17102e-05
2.17092e-05
2.17096e-05
2.17087e-05
2.50884e-05
2.50639e-05
2.17086e-05
2.17104e-05
2.17081e-05
2.17099e-05
2.17097e-05
2.17078e-05
2.17091e-05
2.50896e-05
2.50651e-05
2.17086e-05
2.17086e-05
2.1708e-05
2.50614e-05
2.5089e-05
2.50644e-05
2.17103e-05
2.17093e-05
2.17096e-05
2.17086e-05
2.50884e-05
2.50639e-05
2.17087e-05
2.17106e-05
2.1708e-05
2.17098e-05
2.17098e-05
2.17077e-05
2.1709e-05
2.50896e-05
2.50651e-05
2.17087e-05
2.17086e-05
2.1708e-05
2.50615e-05
2.5089e-05
2.50644e-05
2.17105e-05
2.17095e-05
2.17096e-05
2.17086e-05
2.50885e-05
2.50638e-05
2.17089e-05
2.17107e-05
2.1708e-05
2.17098e-05
2.17099e-05
2.17077e-05
2.1709e-05
2.50896e-05
2.50652e-05
2.17089e-05
2.17085e-05
2.17079e-05
2.50614e-05
2.50891e-05
2.50644e-05
2.17107e-05
2.17097e-05
2.17095e-05
2.17086e-05
2.50885e-05
2.50639e-05
2.17091e-05
2.1711e-05
2.17079e-05
2.17098e-05
2.17102e-05
2.17077e-05
2.1709e-05
2.50896e-05
2.50653e-05
2.17091e-05
2.17085e-05
2.17079e-05
2.50616e-05
2.5089e-05
2.50646e-05
2.17111e-05
2.17101e-05
2.17096e-05
2.17086e-05
2.50885e-05
2.50641e-05
2.17095e-05
2.17113e-05
2.1708e-05
2.17098e-05
2.17106e-05
2.17078e-05
2.17091e-05
2.50897e-05
2.50655e-05
2.17095e-05
2.17086e-05
2.1708e-05
2.50619e-05
2.50891e-05
2.5065e-05
2.17117e-05
2.17107e-05
2.17098e-05
2.17089e-05
2.50886e-05
2.50646e-05
2.17101e-05
2.17119e-05
2.17082e-05
2.17101e-05
2.17111e-05
2.1708e-05
2.17093e-05
2.50898e-05
2.50659e-05
2.17101e-05
2.17089e-05
2.17082e-05
2.5062e-05
2.5089e-05
2.50635e-05
2.17125e-05
2.17115e-05
2.17057e-05
2.17048e-05
2.50886e-05
2.5063e-05
2.17109e-05
2.17127e-05
2.17041e-05
2.17059e-05
2.17119e-05
2.17039e-05
2.17051e-05
2.50898e-05
2.50643e-05
2.17108e-05
2.17047e-05
2.1704e-05
2.50603e-05
2.50853e-05
2.48315e-05
2.17095e-05
2.17086e-05
2.14593e-05
2.14579e-05
2.50851e-05
2.48309e-05
2.17079e-05
2.17096e-05
2.14584e-05
2.14585e-05
2.17089e-05
2.14583e-05
2.14579e-05
2.50862e-05
2.48317e-05
2.17078e-05
2.14587e-05
2.14574e-05
2.48307e-05
2.45468e-05
2.11549e-05
2.11535e-05
2.45463e-05
2.11543e-05
2.1154e-05
1.67626e-05
1.67627e-05
1.67622e-05
2.11534e-05
2.4547e-05
2.11532e-05
1.24688e-05
3.05032e-06
8.97648e-06
8.9768e-06
8.20513e-08
6.33077e-07
4.17837e-07
5.93145e-06
7.52113e-08
6.43994e-07
5.93993e-06
6.64464e-07
3.71915e-07
4.84271e-07
5.04969e-07
2.62238e-07
5.07207e-06
2.22721e-07
6.73809e-06
1.43447e-05
2.19874e-05
2.6674e-07
5.09522e-06
2.22345e-07
6.7062e-06
5.76848e-06
5.79376e-06
5.75568e-06
5.80003e-06
5.80182e-06
5.82665e-06
5.78742e-06
7.7233e-08
8.77711e-07
2.9038e-06
8.99218e-07
7.85979e-08
8.68692e-07
2.89989e-06
1.45142e-05
2.2213e-05
7.50515e-08
2.95184e-06
9.03507e-07
8.84504e-07
7.53926e-08
2.94489e-06
8.76269e-07
1.93999e-06
1.85505e-06
3.72928e-07
1.91983e-06
1.81953e-06
4.36071e-07
9.96109e-06
3.74976e-07
1.28971e-05
3.73143e-05
4.71918e-05
4.46219e-07
1.01475e-05
3.72565e-07
1.27665e-05
5.85245e-06
5.8768e-06
5.83837e-06
6.01033e-06
6.00817e-06
6.03357e-06
5.99427e-06
7.50423e-08
8.68864e-07
3.00585e-06
1.02517e-06
7.59705e-08
9.29696e-07
3.05826e-06
3.75179e-05
4.7493e-05
7.38638e-08
2.99275e-06
8.48814e-07