/*--------------------------------*- C++ -*----------------------------------*\
| =========                 |                                                 |
| \\      /  F ield         | OpenFOAM: The Open Source CFD Toolbox           |
|  \\    /   O peration     | Version:  v2012                                 |
|   \\  /    A nd           | Website:  www.openfoam.com                      |
|    \\/     M anipulation  |                                                 |
\*---------------------------------------------------------------------------*/
FoamFile
{
    version     2.0;
    format      ascii;
    class       volScalarField;
    location    "100";
    object      nut;
}
// * * * * * * * * * * * * * * * * * * * * * * * * * * * * * * * * * * * * * //

dimensions      [0 2 -1 0 0 0 0];


internalField   nonuniform List<scalar> 
171728
(
4.73938e-05
5.87844e-06
5.53249e-06
1.90282e-06
4.82158e-05
6.63977e-06
6.24418e-06
2.13875e-06
4.99322e-05
7.79376e-06
7.28622e-06
2.49126e-06
5.15702e-05
9.14543e-06
8.40979e-06
2.87395e-06
5.31625e-05
1.04709e-05
9.59531e-06
3.21492e-06
5.47052e-05
1.18943e-05
1.08894e-05
3.64546e-06
5.61999e-05
1.30483e-05
1.24637e-05
4.16265e-06
5.76699e-05
1.45151e-05
1.42568e-05
4.75246e-06
5.9139e-05
1.61238e-05
1.67291e-05
5.39295e-06
6.06458e-05
1.81675e-05
1.8835e-05
6.23336e-06
6.22466e-05
2.04692e-05
2.11534e-05
7.55364e-06
6.39142e-05
2.31389e-05
2.37594e-05
9.70241e-06
6.56639e-05
2.65045e-05
2.70956e-05
1.24881e-05
6.7452e-05
3.03457e-05
3.09841e-05
1.55307e-05
6.93e-05
3.42191e-05
3.45057e-05
1.86825e-05
7.14937e-05
3.85437e-05
3.8935e-05
2.27053e-05
7.40141e-05
4.32902e-05
4.31944e-05
2.75702e-05
7.7162e-05
4.84314e-05
4.85288e-05
3.33736e-05
8.10893e-05
5.42863e-05
5.43909e-05
3.96744e-05
8.5415e-05
6.03574e-05
6.0437e-05
4.71449e-05
9.06906e-05
6.7414e-05
6.74358e-05
5.67735e-05
9.73513e-05
7.67001e-05
7.66928e-05
6.96344e-05
0.000103674
8.70536e-05
8.70502e-05
8.18336e-05
0.000110675
9.76533e-05
9.76546e-05
9.21701e-05
0.000116483
0.000104979
0.000104982
9.86082e-05
0.00011934
0.00010791
0.000107912
0.00010065
0.00012023
0.000108684
0.000108686
0.000101143
0.000120428
0.000108844
0.000108846
0.000101249
0.000120463
0.000108869
0.000108872
0.000101278
0.000120467
0.000108872
0.000108874
0.000101266
0.000120469
0.000108873
0.000108876
0.000101273
0.000120469
0.000108874
0.000108876
0.000101271
0.00012047
0.000108875
0.000108877
0.000101273
0.000120472
0.000108876
0.000108879
0.000101274
0.000120473
0.000108877
0.00010888
0.000101274
0.000120474
0.000108878
0.000108881
0.000101274
0.000120474
0.000108878
0.000108881
0.000101274
0.000120475
0.000108878
0.000108881
0.000101274
0.000120475
0.000108878
0.000108881
0.000101274
0.000120476
0.000108878
0.000108881
0.000101274
0.000120477
0.000108878
0.000108881
0.000101274
0.000120476
0.000108878
0.000108881
0.000101275
0.000120476
0.000108878
0.000108881
0.000101274
0.000120476
0.000108878
0.000108881
0.000101274
0.000120476
0.000108878
0.000108881
0.000101274
0.000120476
0.000108878
0.000108881
0.000101275
0.000120476
0.000108879
0.000108881
0.000101275
0.000120476
0.000108879
0.000108881
0.000101276
0.000120476
0.000108879
0.000108881
0.000101277
0.000120477
0.000108879
0.000108881
0.000101277
0.000120477
0.000108879
0.000108881
0.000101277
0.000120477
0.000108879
0.000108881
0.000101278
0.000120477
0.000108879
0.000108881
0.000101278
0.000120477
0.000108879
0.00010888
0.000101279
0.000120477
0.000108879
0.000108881
0.000101278
0.000120476
0.000108879
0.000108881
0.000101279
0.000120477
0.000108878
0.000108881
0.000101279
0.000120477
0.000108878
0.000108881
0.000101279
0.000120477
0.000108878
0.000108881
0.000101279
0.000120478
0.000108877
0.000108881
0.000101278
0.000120477
0.000108877
0.000108881
0.000101279
0.000120477
0.000108877
0.000108881
0.000101279
0.000120477
0.000108877
0.000108881
0.000101279
0.000120477
0.000108877
0.000108881
0.000101279
0.000120476
0.000108877
0.000108881
0.000101279
0.000120476
0.000108877
0.000108881
0.000101279
0.000120476
0.000108877
0.000108881
0.000101279
0.000120476
0.000108877
0.000108881
0.000101279
0.000120476
0.000108877
0.000108881
0.000101278
0.000120476
0.000108877
0.000108881
0.000101278
0.000120476
0.000108877
0.000108881
0.000101278
0.000120476
0.000108877
0.000108881
0.000101278
0.000120476
0.000108877
0.000108881
0.000101279
0.000120477
0.000108877
0.000108881
0.00010128
0.000120477
0.000108877
0.000108881
0.000101279
0.000120476
0.000108877
0.000108881
0.000101279
0.000120476
0.000108877
0.000108881
0.000101279
0.000120476
0.000108877
0.000108881
0.000101279
0.000120476
0.000108877
0.000108881
0.000101279
0.000120476
0.000108877
0.000108882
0.000101279
0.000120476
0.000108878
0.000108882
0.000101278
0.000120476
0.000108878
0.000108882
0.000101278
0.000120477
0.000108878
0.000108882
0.000101278
0.000120477
0.000108878
0.000108882
0.000101279
0.000120477
0.000108878
0.000108883
0.00010128
0.000120477
0.000108879
0.000108883
0.00010128
0.000120477
0.000108879
0.000108884
0.000101281
0.000120478
0.00010888
0.000108885
0.00010128
0.000120478
0.000108882
0.000108887
0.000101281
0.000120478
0.000108885
0.00010889
0.000101283
0.000120478
0.00010889
0.000108895
0.000101284
0.000120479
0.000108899
0.000108904
0.000101287
0.000120482
0.000108916
0.00010892
0.000101293
0.000120478
0.000108907
0.000108911
0.000101299
0.000121125
0.000109418
0.000109422
0.000101989
2.18726e-06
3.76739e-06
3.96001e-06
2.2245e-06
4.46875e-06
4.39561e-06
4.80397e-05
4.81108e-05
4.81697e-05
4.80004e-05
4.27209e-06
4.05072e-06
2.21655e-06
3.8008e-06
3.65733e-06
1.88776e-06
2.20474e-06
2.42393e-06
5.42402e-06
5.69302e-06
5.91821e-06
6.13816e-06
2.2254e-06
2.34385e-06
6.15418e-06
6.15167e-06
6.55377e-06
6.67542e-06
5.80518e-06
6.37228e-06
6.26006e-06
2.22806e-06
2.45386e-06
5.39014e-06
6.00884e-06
5.90527e-06
2.1331e-06
2.43574e-06
2.66436e-06
6.19593e-06
6.38537e-06
7.1013e-06
7.17148e-06
2.3472e-06
2.60625e-06
6.76064e-06
6.94712e-06
7.38408e-06
7.80214e-06
6.49578e-06
7.51438e-06
7.20456e-06
2.45752e-06
2.82542e-06
6.17088e-06
7.02168e-06
6.96565e-06
2.4886e-06
2.6658e-06
2.83459e-06
7.41719e-06
7.45203e-06
8.35651e-06
8.37532e-06
2.60213e-06
2.93801e-06
7.60734e-06
8.10525e-06
8.34335e-06
9.06216e-06
7.46229e-06
8.82105e-06
8.28337e-06
2.82588e-06
3.2233e-06
7.26212e-06
8.12377e-06
8.27769e-06
2.87713e-06
2.82053e-06
3.03276e-06
8.67612e-06
8.70106e-06
9.67562e-06
9.7068e-06
2.93303e-06
3.32342e-06
8.59931e-06
9.41169e-06
9.49728e-06
1.04895e-05
8.55151e-06
1.01498e-05
9.43442e-06
3.21996e-06
3.61526e-06
8.59665e-06
9.29215e-06
9.48621e-06
3.22085e-06
3.01704e-06
3.39977e-06
1.00009e-05
1.00513e-05
1.10553e-05
1.12056e-05
3.30918e-06
3.69014e-06
9.80407e-06
1.08545e-05
1.08244e-05
1.21114e-05
9.74775e-06
1.16268e-05
1.07402e-05
3.60459e-06
4.02217e-06
9.76961e-06
1.05873e-05
1.07836e-05
3.65374e-06
3.38958e-06
3.95743e-06
1.14271e-05
1.16047e-05
1.25231e-05
1.29419e-05
3.67123e-06
4.18723e-06
1.12125e-05
1.25462e-05
1.23869e-05
1.37854e-05
1.11203e-05
1.26766e-05
1.22615e-05
4.00928e-06
4.50013e-06
1.11583e-05
1.2056e-05
1.24431e-05
4.17415e-06
3.94861e-06
4.60861e-06
1.29068e-05
1.34171e-05
1.41512e-05
1.47734e-05
4.18126e-06
4.9439e-06
1.27847e-05
1.41453e-05
1.40311e-05
1.51635e-05
1.2644e-05
1.4176e-05
1.3877e-05
4.48327e-06
5.05439e-06
1.29144e-05
1.3748e-05
1.43161e-05
4.76858e-06
4.59623e-06
5.38538e-06
1.45798e-05
1.52506e-05
1.58237e-05
1.67122e-05
4.93802e-06
5.82179e-06
1.44901e-05
1.55293e-05
1.58651e-05
1.67159e-05
1.43231e-05
1.56826e-05
1.56578e-05
5.04065e-06
5.88834e-06
1.47879e-05
1.60691e-05
1.60852e-05
5.41294e-06
5.37808e-06
6.4029e-06
1.62672e-05
1.7224e-05
1.7734e-05
1.88099e-05
5.81155e-06
6.77853e-06
1.633e-05
1.72014e-05
1.78597e-05
1.8577e-05
1.61312e-05
1.76309e-05
1.76925e-05
5.88275e-06
6.89825e-06
1.65077e-05
1.84294e-05
1.77982e-05
6.24693e-06
6.40236e-06
7.72305e-06
1.82651e-05
1.93267e-05
2.00936e-05
2.09451e-05
6.7634e-06
8.0259e-06
1.84189e-05
1.90013e-05
2.0248e-05
2.08146e-05
1.82561e-05
1.98631e-05
2.01385e-05
6.88833e-06
8.15102e-06
1.82304e-05
2.05201e-05
1.98052e-05
7.51369e-06
7.74771e-06
9.69378e-06
2.07393e-05
2.15011e-05
2.27977e-05
2.32573e-05
8.04306e-06
9.83359e-06
2.08895e-05
2.13852e-05
2.29593e-05
2.29562e-05
2.08217e-05
2.23904e-05
2.29934e-05
8.1672e-06
1.00227e-05
2.04222e-05
2.30214e-05
2.24206e-05
9.62059e-06
9.77273e-06
1.23908e-05
2.35969e-05
2.39512e-05
2.60705e-05
2.6202e-05
9.89201e-06
1.24178e-05
2.37363e-05
2.37024e-05
2.61831e-05
2.64046e-05
2.37955e-05
2.56418e-05
2.62917e-05
1.01103e-05
1.27867e-05
2.31869e-05
2.62532e-05
2.56744e-05
1.23701e-05
1.24983e-05
1.54976e-05
2.68979e-05
2.70091e-05
2.97246e-05
2.98282e-05
1.25332e-05
1.56222e-05
2.69779e-05
2.72656e-05
2.9632e-05
2.99547e-05
2.7098e-05
2.94104e-05
2.97859e-05
1.2883e-05
1.58038e-05
2.6532e-05
3.00358e-05
2.94409e-05
1.55418e-05
1.54292e-05
1.88655e-05
3.06077e-05
3.07136e-05
3.33384e-05
3.34112e-05
1.56739e-05
1.89628e-05
3.05385e-05
3.08218e-05
3.33092e-05
3.34665e-05
3.06607e-05
3.31392e-05
3.33715e-05
1.57836e-05
1.91129e-05
3.03785e-05
3.35079e-05
3.31324e-05
1.89025e-05
1.86544e-05
2.30556e-05
3.44135e-05
3.44283e-05
3.75315e-05
3.75297e-05
1.87414e-05
2.29862e-05
3.43821e-05
3.4462e-05
3.76877e-05
3.75258e-05
3.44459e-05
3.74702e-05
3.7628e-05
1.88842e-05
2.32347e-05
3.41977e-05
3.78939e-05
3.74535e-05
2.3003e-05
2.27695e-05
2.75588e-05
3.85349e-05
3.85904e-05
4.17981e-05
4.20392e-05
2.26887e-05
2.74244e-05
3.87464e-05
3.85679e-05
4.20754e-05
4.20184e-05
3.86436e-05
4.20034e-05
4.19269e-05
2.29211e-05
2.7603e-05
3.85149e-05
4.19888e-05
4.19355e-05
2.74347e-05
2.76949e-05
3.28489e-05
4.30628e-05
4.33155e-05
4.71057e-05
4.71619e-05
2.7565e-05
3.25997e-05
4.33219e-05
4.3321e-05
4.72618e-05
4.72462e-05
4.31836e-05
4.7159e-05
4.71838e-05
2.77519e-05
3.27701e-05
4.32215e-05
4.71948e-05
4.71391e-05
3.26373e-05
3.3568e-05
3.87819e-05
4.84533e-05
4.84268e-05
5.27846e-05
5.26622e-05
3.33306e-05
3.86045e-05
4.85999e-05
4.85151e-05
5.29365e-05
5.27144e-05
4.85203e-05
5.2687e-05
5.28078e-05
3.34858e-05
3.86766e-05
4.84285e-05
5.28095e-05
5.26867e-05
3.86531e-05
3.97942e-05
4.60704e-05
5.43861e-05
5.42596e-05
5.90203e-05
5.88829e-05
3.96364e-05
4.59381e-05
5.45238e-05
5.43065e-05
5.90859e-05
5.89429e-05
5.43879e-05
5.89129e-05
5.89638e-05
3.96924e-05
4.59698e-05
5.42864e-05
5.89971e-05
5.89222e-05
4.59503e-05
4.72642e-05
5.50612e-05
6.04644e-05
6.03345e-05
6.54052e-05
6.53468e-05
4.71314e-05
5.50054e-05
6.0512e-05
6.03896e-05
6.54314e-05
6.5349e-05
6.03994e-05
6.53539e-05
6.53471e-05
4.71648e-05
5.49952e-05
6.03695e-05
6.53917e-05
6.53409e-05
5.49758e-05
5.68477e-05
6.75202e-05
6.74469e-05
6.74135e-05
7.42991e-05
7.43048e-05
5.6815e-05
6.75336e-05
6.74698e-05
6.73996e-05
7.43157e-05
7.42748e-05
6.73972e-05
7.43091e-05
7.42736e-05
5.6793e-05
6.75018e-05
6.73948e-05
7.43044e-05
7.42774e-05
6.74876e-05
6.96619e-05
7.99594e-05
7.6687e-05
7.66953e-05
8.43142e-05
8.43178e-05
6.96755e-05
7.99646e-05
7.67019e-05
7.66684e-05
8.43257e-05
8.43055e-05
7.66678e-05
8.4332e-05
8.43072e-05
6.96476e-05
7.99553e-05
7.66736e-05
8.43265e-05
8.4316e-05
7.99473e-05
8.18445e-05
9.07084e-05
8.70389e-05
8.70398e-05
9.51721e-05
9.51681e-05
8.18474e-05
9.07066e-05
8.70501e-05
8.70312e-05
9.51837e-05
9.51661e-05
8.7034e-05
9.51865e-05
9.51707e-05
8.18411e-05
9.0707e-05
8.70433e-05
9.51869e-05
9.51809e-05
9.0702e-05
9.2177e-05
9.78307e-05
9.76407e-05
9.76357e-05
0.000103579
0.000103573
9.21746e-05
9.783e-05
9.76522e-05
9.76348e-05
0.000103592
0.000103573
9.76394e-05
0.000103593
0.000103578
9.21757e-05
9.78297e-05
9.76499e-05
0.000103596
0.000103589
9.78227e-05
9.86172e-05
0.000100517
0.000104966
0.00010496
0.000107459
0.000107452
9.86164e-05
0.000100512
0.000104979
0.00010496
0.000107474
0.000107453
0.000104965
0.000107474
0.000107458
9.86159e-05
0.000100516
0.000104976
0.000107476
0.000107471
0.000100509
0.000100658
0.00010115
0.000107895
0.000107888
0.00010857
0.000108563
0.000100654
0.000101146
0.00010791
0.000107889
0.000108585
0.000108564
0.000107894
0.000108585
0.000108569
0.000100657
0.000101148
0.000107907
0.000108587
0.000108582
0.000101141
0.000101152
0.000101288
0.000108669
0.000108662
0.000108809
0.000108802
0.000101147
0.000101285
0.000108684
0.000108663
0.000108825
0.000108803
0.000108668
0.000108824
0.000108807
0.00010115
0.000101287
0.000108681
0.000108826
0.00010882
0.000101279
0.000101258
0.000101334
0.000108829
0.000108822
0.000108854
0.000108846
0.000101254
0.00010133
0.000108845
0.000108823
0.00010887
0.000108847
0.000108827
0.000108868
0.000108851
0.000101256
0.000101332
0.00010884
0.000108871
0.000108864
0.000101325
0.000101288
0.000101319
0.000108855
0.000108848
0.000108857
0.000108849
0.000101283
0.000101316
0.000108871
0.000108849
0.000108872
0.00010885
0.000108852
0.000108871
0.000108854
0.000101285
0.000101318
0.000108865
0.000108874
0.000108867
0.000101309
0.000101277
0.000101327
0.000108857
0.00010885
0.000108859
0.000108851
0.000101273
0.000101324
0.000108873
0.000108851
0.000108875
0.000108852
0.000108854
0.000108873
0.000108855
0.000101275
0.000101325
0.000108868
0.000108876
0.000108868
0.000101317
0.000101283
0.000101325
0.00010886
0.000108852
0.00010886
0.000108852
0.000101279
0.000101322
0.000108875
0.000108853
0.000108875
0.000108853
0.000108856
0.000108874
0.000108856
0.000101281
0.000101323
0.000108869
0.000108876
0.000108869
0.000101315
0.000101281
0.000101327
0.00010886
0.000108852
0.00010886
0.000108853
0.000101277
0.000101324
0.000108876
0.000108853
0.000108876
0.000108854
0.000108856
0.000108875
0.000108857
0.000101279
0.000101325
0.00010887
0.000108877
0.00010887
0.000101317
0.000101283
0.000101328
0.000108861
0.000108853
0.000108862
0.000108854
0.000101279
0.000101324
0.000108877
0.000108854
0.000108878
0.000108856
0.000108858
0.000108876
0.000108859
0.000101281
0.000101326
0.000108871
0.000108878
0.000108872
0.000101317
0.000101284
0.000101329
0.000108863
0.000108855
0.000108864
0.000108856
0.00010128
0.000101325
0.000108879
0.000108856
0.00010888
0.000108857
0.000108859
0.000108877
0.00010886
0.000101282
0.000101327
0.000108872
0.00010888
0.000108873
0.000101318
0.000101285
0.000101329
0.000108864
0.000108856
0.000108864
0.000108857
0.000101281
0.000101325
0.00010888
0.000108857
0.00010888
0.000108858
0.00010886
0.000108878
0.00010886
0.000101283
0.000101327
0.000108873
0.000108881
0.000108873
0.000101318
0.000101285
0.000101329
0.000108864
0.000108857
0.000108864
0.000108857
0.000101281
0.000101325
0.00010888
0.000108858
0.000108881
0.000108858
0.00010886
0.000108878
0.00010886
0.000101283
0.000101327
0.000108873
0.000108881
0.000108873
0.000101318
0.000101285
0.000101329
0.000108864
0.000108857
0.000108864
0.000108857
0.000101281
0.000101325
0.000108881
0.000108858
0.000108881
0.000108858
0.00010886
0.000108878
0.00010886
0.000101283
0.000101326
0.000108873
0.000108881
0.000108873
0.000101318
0.000101285
0.000101329
0.000108864
0.000108857
0.000108865
0.000108857
0.000101281
0.000101326
0.000108881
0.000108858
0.000108881
0.000108858
0.00010886
0.000108878
0.00010886
0.000101282
0.000101327
0.000108873
0.000108881
0.000108873
0.000101318
0.000101285
0.00010133
0.000108865
0.000108857
0.000108865
0.000108857
0.000101281
0.000101326
0.000108881
0.000108858
0.000108881
0.000108858
0.00010886
0.000108878
0.00010886
0.000101283
0.000101327
0.000108873
0.000108881
0.000108873
0.000101318
0.000101286
0.000101329
0.000108865
0.000108857
0.000108865
0.000108857
0.000101281
0.000101325
0.000108881
0.000108858
0.000108881
0.000108858
0.00010886
0.000108878
0.00010886
0.000101283
0.000101326
0.000108873
0.000108881
0.000108874
0.000101318
0.000101286
0.000101328
0.000108865
0.000108857
0.000108865
0.000108857
0.000101281
0.000101326
0.000108881
0.000108858
0.000108881
0.000108858
0.00010886
0.000108878
0.00010886
0.000101282
0.000101327
0.000108874
0.000108881
0.000108873
0.000101318
0.000101284
0.000101328
0.000108865
0.000108857
0.000108866
0.000108857
0.000101282
0.000101327
0.000108881
0.000108858
0.00010888
0.000108858
0.00010886
0.000108878
0.00010886
0.000101283
0.000101327
0.000108873
0.000108881
0.000108873
0.000101317
0.000101284
0.000101328
0.000108866
0.000108857
0.000108866
0.000108857
0.000101283
0.000101326
0.00010888
0.000108858
0.000108879
0.000108857
0.00010886
0.000108878
0.00010886
0.000101283
0.000101327
0.000108873
0.000108881
0.000108873
0.000101317
0.000101284
0.000101328
0.000108866
0.000108857
0.000108867
0.000108857
0.000101283
0.000101325
0.00010888
0.000108857
0.000108879
0.000108858
0.00010886
0.000108878
0.00010886
0.000101284
0.000101326
0.000108873
0.000108881
0.000108873
0.000101318
0.000101284
0.000101328
0.000108867
0.000108857
0.000108867
0.000108857
0.000101282
0.000101324
0.000108879
0.000108858
0.000108879
0.000108858
0.00010886
0.000108878
0.00010886
0.000101283
0.000101325
0.000108873
0.000108881
0.000108873
0.000101318
0.000101284
0.000101328
0.000108867
0.000108857
0.000108868
0.000108857
0.000101281
0.000101324
0.000108879
0.000108858
0.000108879
0.000108858
0.00010886
0.000108879
0.00010886
0.000101282
0.000101325
0.000108873
0.000108881
0.000108873
0.000101318
0.000101284
0.000101329
0.000108868
0.000108857
0.000108868
0.000108857
0.00010128
0.000101325
0.000108879
0.000108858
0.000108879
0.000108858
0.00010886
0.000108879
0.00010886
0.000101282
0.000101326
0.000108873
0.000108881
0.000108873
0.000101318
0.000101284
0.000101329
0.000108868
0.000108857
0.000108868
0.000108856
0.00010128
0.000101325
0.000108879
0.000108858
0.000108878
0.000108858
0.00010886
0.000108879
0.00010886
0.000101282
0.000101326
0.000108873
0.000108881
0.000108873
0.000101319
0.000101284
0.000101329
0.000108868
0.000108856
0.000108868
0.000108856
0.000101281
0.000101325
0.000108878
0.000108858
0.000108878
0.000108858
0.00010886
0.000108879
0.00010886
0.000101282
0.000101326
0.000108873
0.000108881
0.000108873
0.000101319
0.000101285
0.000101329
0.000108868
0.000108856
0.000108868
0.000108856
0.00010128
0.000101325
0.000108878
0.000108858
0.000108878
0.000108858
0.00010886
0.000108879
0.00010886
0.000101282
0.000101327
0.000108873
0.000108881
0.000108873
0.000101319
0.000101285
0.000101329
0.000108868
0.000108856
0.000108868
0.000108856
0.00010128
0.000101325
0.000108878
0.000108858
0.000108878
0.000108858
0.00010886
0.000108879
0.00010886
0.000101282
0.000101327
0.000108873
0.00010888
0.000108873
0.000101319
0.000101285
0.000101329
0.000108869
0.000108856
0.000108868
0.000108856
0.00010128
0.000101325
0.000108878
0.000108858
0.000108878
0.000108858
0.00010886
0.000108879
0.00010886
0.000101282
0.000101327
0.000108873
0.000108881
0.000108873
0.00010132
0.000101285
0.000101329
0.000108868
0.000108856
0.000108868
0.000108856
0.00010128
0.000101324
0.000108878
0.000108858
0.000108878
0.000108858
0.00010886
0.000108879
0.00010886
0.000101282
0.000101327
0.000108873
0.00010888
0.000108873
0.00010132
0.000101284
0.000101329
0.000108868
0.000108856
0.000108868
0.000108856
0.00010128
0.000101324
0.000108878
0.000108858
0.000108878
0.000108858
0.00010886
0.000108879
0.00010886
0.000101282
0.000101327
0.000108873
0.00010888
0.000108873
0.00010132
0.000101284
0.000101329
0.000108869
0.000108856
0.000108868
0.000108856
0.00010128
0.000101324
0.000108878
0.000108858
0.000108878
0.000108858
0.00010886
0.000108878
0.00010886
0.000101282
0.000101327
0.000108873
0.00010888
0.000108873
0.00010132
0.000101285
0.000101329
0.000108868
0.000108856
0.000108868
0.000108856
0.00010128
0.000101324
0.000108878
0.000108858
0.000108878
0.000108858
0.00010886
0.000108878
0.00010886
0.000101282
0.000101327
0.000108873
0.000108881
0.000108873
0.00010132
0.000101285
0.000101329
0.000108868
0.000108856
0.000108868
0.000108856
0.00010128
0.000101324
0.000108878
0.000108858
0.000108878
0.000108858
0.00010886
0.000108878
0.00010886
0.000101282
0.000101327
0.000108873
0.00010888
0.000108873
0.00010132
0.000101285
0.000101329
0.000108869
0.000108856
0.000108868
0.000108855
0.00010128
0.000101324
0.000108878
0.000108858
0.000108878
0.000108858
0.00010886
0.000108878
0.00010886
0.000101283
0.000101327
0.000108873
0.000108881
0.000108873
0.00010132
0.000101285
0.000101329
0.000108868
0.000108856
0.000108868
0.000108855
0.00010128
0.000101324
0.000108878
0.000108858
0.000108878
0.000108858
0.00010886
0.000108877
0.00010886
0.000101283
0.000101327
0.000108873
0.00010888
0.000108873
0.00010132
0.000101284
0.000101329
0.000108868
0.000108855
0.000108868
0.000108855
0.00010128
0.000101324
0.000108878
0.000108858
0.000108878
0.000108858
0.00010886
0.000108877
0.00010886
0.000101282
0.000101326
0.000108873
0.00010888
0.000108873
0.00010132
0.000101284
0.000101329
0.000108869
0.000108855
0.000108868
0.000108855
0.00010128
0.000101324
0.000108878
0.000108858
0.000108878
0.000108858
0.00010886
0.000108877
0.00010886
0.000101282
0.000101327
0.000108873
0.000108881
0.000108873
0.00010132
0.000101284
0.000101329
0.000108869
0.000108855
0.000108868
0.000108855
0.00010128
0.000101324
0.000108878
0.000108858
0.000108878
0.000108858
0.00010886
0.000108877
0.00010886
0.000101282
0.000101327
0.000108873
0.000108881
0.000108873
0.00010132
0.000101284
0.000101329
0.000108869
0.000108855
0.000108868
0.000108855
0.00010128
0.000101324
0.000108878
0.000108858
0.000108878
0.000108858
0.00010886
0.000108877
0.00010886
0.000101282
0.000101327
0.000108873
0.000108881
0.000108873
0.00010132
0.000101284
0.000101329
0.000108868
0.000108855
0.000108868
0.000108855
0.00010128
0.000101324
0.000108878
0.000108858
0.000108878
0.000108858
0.00010886
0.000108877
0.00010886
0.000101282
0.000101326
0.000108873
0.00010888
0.000108873
0.00010132
0.000101284
0.000101329
0.000108868
0.000108855
0.000108868
0.000108855
0.00010128
0.000101324
0.000108878
0.000108858
0.000108878
0.000108857
0.00010886
0.000108877
0.00010886
0.000101282
0.000101327
0.000108873
0.000108881
0.000108873
0.00010132
0.000101284
0.000101329
0.000108868
0.000108855
0.000108868
0.000108855
0.00010128
0.000101324
0.000108878
0.000108858
0.000108878
0.000108857
0.00010886
0.000108877
0.00010886
0.000101282
0.000101327
0.000108873
0.000108881
0.000108873
0.00010132
0.000101284
0.000101329
0.000108868
0.000108855
0.000108868
0.000108855
0.000101279
0.000101324
0.000108878
0.000108858
0.000108878
0.000108858
0.00010886
0.000108877
0.00010886
0.000101282
0.000101327
0.000108873
0.000108881
0.000108873
0.00010132
0.000101284
0.000101329
0.000108868
0.000108855
0.000108868
0.000108855
0.000101279
0.000101324
0.000108878
0.000108858
0.000108878
0.000108858
0.00010886
0.000108877
0.00010886
0.000101282
0.000101327
0.000108873
0.000108881
0.000108873
0.000101319
0.000101284
0.000101329
0.000108868
0.000108855
0.000108868
0.000108855
0.000101279
0.000101324
0.000108878
0.000108858
0.000108878
0.000108858
0.00010886
0.000108877
0.00010886
0.000101282
0.000101327
0.000108873
0.000108881
0.000108873
0.000101319
0.000101284
0.000101329
0.000108868
0.000108855
0.000108868
0.000108855
0.00010128
0.000101324
0.000108878
0.000108858
0.000108878
0.000108858
0.00010886
0.000108877
0.00010886
0.000101282
0.000101327
0.000108874
0.000108881
0.000108873
0.000101319
0.000101284
0.000101329
0.000108868
0.000108855
0.000108868
0.000108855
0.00010128
0.000101324
0.000108878
0.000108858
0.000108878
0.000108858
0.00010886
0.000108877
0.00010886
0.000101282
0.000101326
0.000108874
0.000108881
0.000108873
0.00010132
0.000101284
0.000101329
0.000108868
0.000108855
0.000108868
0.000108855
0.00010128
0.000101324
0.000108878
0.000108858
0.000108878
0.000108858
0.00010886
0.000108877
0.00010886
0.000101282
0.000101327
0.000108874
0.000108881
0.000108873
0.00010132
0.000101284
0.000101329
0.000108868
0.000108855
0.000108868
0.000108855
0.000101279
0.000101324
0.000108878
0.000108858
0.000108878
0.000108857
0.00010886
0.000108877
0.00010886
0.000101282
0.000101327
0.000108874
0.000108881
0.000108873
0.000101321
0.000101284
0.000101329
0.000108868
0.000108855
0.000108868
0.000108855
0.000101279
0.000101324
0.000108878
0.000108858
0.000108878
0.000108857
0.00010886
0.000108877
0.00010886
0.000101282
0.000101327
0.000108874
0.000108881
0.000108873
0.00010132
0.000101284
0.000101329
0.000108868
0.000108855
0.000108868
0.000108855
0.000101279
0.000101324
0.000108878
0.000108858
0.000108878
0.000108857
0.00010886
0.000108877
0.00010886
0.000101282
0.000101327
0.000108874
0.000108881
0.000108874
0.00010132
0.000101284
0.000101329
0.000108868
0.000108855
0.000108868
0.000108855
0.00010128
0.000101324
0.000108878
0.000108858
0.000108878
0.000108857
0.00010886
0.000108877
0.00010886
0.000101282
0.000101327
0.000108874
0.000108881
0.000108874
0.00010132
0.000101284
0.000101329
0.000108868
0.000108855
0.000108868
0.000108855
0.00010128
0.000101324
0.000108878
0.000108857
0.000108878
0.000108857
0.00010886
0.000108877
0.00010886
0.000101282
0.000101327
0.000108874
0.000108881
0.000108874
0.00010132
0.000101284
0.000101329
0.000108868
0.000108855
0.000108868
0.000108855
0.00010128
0.000101324
0.000108878
0.000108858
0.000108878
0.000108858
0.00010886
0.000108877
0.00010886
0.000101283
0.000101327
0.000108874
0.000108881
0.000108874
0.00010132
0.000101284
0.000101329
0.000108868
0.000108855
0.000108868
0.000108855
0.000101279
0.000101324
0.000108878
0.000108858
0.000108878
0.000108858
0.00010886
0.000108877
0.00010886
0.000101283
0.000101327
0.000108874
0.000108881
0.000108874
0.00010132
0.000101285
0.000101329
0.000108868
0.000108855
0.000108868
0.000108855
0.000101279
0.000101324
0.000108878
0.000108858
0.000108878
0.000108858
0.00010886
0.000108877
0.000108861
0.000101282
0.000101327
0.000108875
0.000108881
0.000108875
0.00010132
0.000101285
0.000101329
0.000108869
0.000108856
0.000108869
0.000108856
0.00010128
0.000101324
0.000108878
0.000108858
0.000108878
0.000108858
0.000108861
0.000108877
0.000108861
0.000101283
0.000101327
0.000108875
0.000108882
0.000108875
0.00010132
0.000101284
0.000101329
0.000108869
0.000108856
0.000108869
0.000108856
0.00010128
0.000101324
0.000108879
0.000108859
0.000108878
0.000108858
0.000108861
0.000108877
0.000108861
0.000101283
0.000101327
0.000108875
0.000108882
0.000108875
0.00010132
0.000101284
0.000101329
0.000108869
0.000108856
0.000108869
0.000108856
0.00010128
0.000101324
0.000108879
0.000108859
0.000108879
0.000108858
0.000108862
0.000108877
0.000108861
0.000101283
0.000101327
0.000108876
0.000108882
0.000108875
0.00010132
0.000101284
0.000101329
0.00010887
0.000108857
0.000108869
0.000108856
0.00010128
0.000101324
0.00010888
0.000108859
0.000108879
0.000108858
0.000108862
0.000108877
0.000108861
0.000101283
0.000101327
0.000108876
0.000108882
0.000108875
0.000101321
0.000101285
0.00010133
0.00010887
0.000108857
0.000108869
0.000108856
0.00010128
0.000101324
0.00010888
0.00010886
0.000108879
0.000108859
0.000108862
0.000108877
0.000108861
0.000101283
0.000101327
0.000108876
0.000108882
0.000108875
0.000101321
0.000101285
0.00010133
0.000108871
0.000108857
0.00010887
0.000108856
0.00010128
0.000101324
0.00010888
0.00010886
0.000108879
0.000108859
0.000108862
0.000108878
0.000108861
0.000101283
0.000101327
0.000108876
0.000108882
0.000108875
0.000101322
0.000101286
0.00010133
0.000108871
0.000108858
0.00010887
0.000108857
0.00010128
0.000101325
0.000108881
0.000108861
0.00010888
0.00010886
0.000108863
0.000108878
0.000108862
0.000101283
0.000101328
0.000108877
0.000108883
0.000108876
0.000101322
0.000101286
0.000101331
0.000108872
0.000108859
0.000108871
0.000108858
0.000101281
0.000101325
0.000108882
0.000108862
0.000108881
0.000108861
0.000108864
0.000108879
0.000108863
0.000101283
0.000101328
0.000108878
0.000108884
0.000108876
0.000101322
0.000101286
0.000101332
0.000108874
0.000108861
0.000108873
0.00010886
0.000101281
0.000101326
0.000108884
0.000108863
0.000108883
0.000108863
0.000108866
0.000108881
0.000108865
0.000101284
0.000101329
0.000108879
0.000108886
0.000108878
0.000101324
0.000101288
0.000101333
0.000108877
0.000108864
0.000108877
0.000108864
0.000101282
0.000101328
0.000108887
0.000108866
0.000108887
0.000108866
0.000108869
0.000108885
0.000108868
0.000101285
0.000101331
0.000108882
0.00010889
0.000108882
0.000101325
0.00010129
0.000101336
0.000108882
0.000108869
0.000108884
0.000108871
0.000101284
0.000101331
0.000108892
0.000108871
0.000108894
0.000108873
0.000108874
0.000108892
0.000108875
0.000101287
0.000101334
0.000108887
0.000108897
0.000108889
0.000101328
0.000101293
0.000101341
0.000108891
0.000108878
0.000108897
0.000108884
0.000101287
0.000101336
0.000108901
0.000108881
0.000108907
0.000108887
0.000108883
0.000108905
0.000108889
0.000101291
0.000101339
0.000108896
0.00010891
0.000108902
0.000101333
0.000101298
0.00010135
0.000108908
0.000108895
0.000108927
0.000108915
0.000101293
0.000101347
0.000108917
0.000108897
0.000108936
0.000108917
0.0001089
0.000108935
0.00010892
0.000101296
0.000101349
0.000108913
0.00010894
0.000108932
0.000101343
0.000101305
0.000101646
0.000108898
0.000108886
0.000109453
0.000109441
0.0001013
0.000101642
0.000108908
0.000108888
0.000109462
0.000109444
0.000108891
0.000109462
0.000109448
0.000101303
0.000101645
0.000108903
0.000109466
0.000109458
0.000101639
0.000101997
0.000109411
0.000109399
0.000101993
0.000109418
0.000109402
0.000121121
0.000121122
0.00012112
0.000109405
0.000101995
0.000109414
0.000100093
2.68218e-05
7.15756e-05
7.15874e-05
4.2491e-07
4.4868e-06
1.93855e-06
4.83175e-05
5.26322e-07
3.99178e-06
4.82969e-05
1.97191e-06
1.85086e-06
1.88188e-06
1.77683e-06
9.93176e-07
1.3654e-05
9.03846e-07
1.54024e-05
1.10788e-05
1.32918e-05
1.00933e-06
1.36762e-05
8.97274e-07
1.5341e-05
4.7455e-05
4.75014e-05
4.73095e-05
4.7788e-05
4.7843e-05
4.78873e-05
4.76523e-05
3.64538e-07
7.04433e-07
2.34158e-05
5.94604e-06
3.72543e-07
8.8444e-07
2.34625e-05
1.11425e-05
1.3362e-05
5.21927e-07
2.50365e-05
7.58819e-07
5.59636e-06
5.27299e-07
2.50244e-05
9.12901e-07
1.52617e-06
1.42029e-06
1.97984e-06
1.74221e-06
1.5865e-06
1.18799e-06
1.87254e-05
1.12192e-06
2.12549e-05
1.72992e-05
1.94519e-05
1.20388e-06
1.88652e-05
1.12785e-06
2.11406e-05
4.82711e-05
4.83143e-05
4.80811e-05
4.95108e-05
4.9562e-05
4.96303e-05
4.93713e-05
4.42338e-07