/*--------------------------------*- C++ -*----------------------------------*\
| =========                 |                                                 |
| \\      /  F ield         | OpenFOAM: The Open Source CFD Toolbox           |
|  \\    /   O peration     | Version:  v2012                                 |
|   \\  /    A nd           | Website:  www.openfoam.com                      |
|    \\/     M anipulation  |                                                 |
\*---------------------------------------------------------------------------*/
FoamFile
{
    version     2.0;
    format      ascii;
    class       volScalarField;
    location    "100";
    object      p;
}
// * * * * * * * * * * * * * * * * * * * * * * * * * * * * * * * * * * * * * //

dimensions      [0 2 -2 0 0 0 0];


internalField   nonuniform List<scalar> 
171728
(
0.00354323
0.00354288
0.0035429
0.00354472
0.0035061
0.00350538
0.00350532
0.00350846
0.00346976
0.00346875
0.0034687
0.00347103
0.00342443
0.00342371
0.00342364
0.00342634
0.00337644
0.00337559
0.00337571
0.00337837
0.00332825
0.00332756
0.00332754
0.00333027
0.00328018
0.00327959
0.00327959
0.00328235
0.00323309
0.0032325
0.00323255
0.00323533
0.00318693
0.00318637
0.0031865
0.00318926
0.00314182
0.00314145
0.00314148
0.00314423
0.00309761
0.00309732
0.00309737
0.00310008
0.00305414
0.00305391
0.00305386
0.00305661
0.00301127
0.0030111
0.0030111
0.00301376
0.00296885
0.00296872
0.00296878
0.00297138
0.00292686
0.00292676
0.00292671
0.00292939
0.00288536
0.00288526
0.00288533
0.00288786
0.00284475
0.00284464
0.00284464
0.00284715
0.00280531
0.00280514
0.0028051
0.00280751
0.00276795
0.00276768
0.0027677
0.00277008
0.00273097
0.00273079
0.00273079
0.00273321
0.00269286
0.00269265
0.00269265
0.00269519
0.00265364
0.00265338
0.00265337
0.00265598
0.00261428
0.00261404
0.00261405
0.00261651
0.00257573
0.00257556
0.00257556
0.00257787
0.00253823
0.00253814
0.00253814
0.00254034
0.00250152
0.00250146
0.00250146
0.00250361
0.00246514
0.00246509
0.00246509
0.00246724
0.00242884
0.0024288
0.0024288
0.00243095
0.00239256
0.00239251
0.00239251
0.00239466
0.00235627
0.00235623
0.00235623
0.00235837
0.00231999
0.00231994
0.00231994
0.00232209
0.0022837
0.00228366
0.00228366
0.0022858
0.00224742
0.00224737
0.00224737
0.00224952
0.00221113
0.00221108
0.00221108
0.00221323
0.00217484
0.0021748
0.0021748
0.00217695
0.00213856
0.00213851
0.00213851
0.00214066
0.00210227
0.00210222
0.00210222
0.00210437
0.00206598
0.00206594
0.00206594
0.00206809
0.0020297
0.00202965
0.00202965
0.0020318
0.00199341
0.00199336
0.00199336
0.00199551
0.00195713
0.00195708
0.00195708
0.00195923
0.00192084
0.0019208
0.0019208
0.00192294
0.00188456
0.00188451
0.00188451
0.00188666
0.00184827
0.00184823
0.00184823
0.00185037
0.00181199
0.00181194
0.00181194
0.00181409
0.0017757
0.00177565
0.00177565
0.0017778
0.00173941
0.00173937
0.00173937
0.00174152
0.00170313
0.00170308
0.00170308
0.00170523
0.00166684
0.0016668
0.0016668
0.00166894
0.00163056
0.00163051
0.00163051
0.00163266
0.00159427
0.00159422
0.00159422
0.00159637
0.00155799
0.00155794
0.00155794
0.00156009
0.0015217
0.00152166
0.00152166
0.0015238
0.00148542
0.00148537
0.00148537
0.00148752
0.00144913
0.00144909
0.00144909
0.00145124
0.00141285
0.0014128
0.0014128
0.00141495
0.00137656
0.00137652
0.00137652
0.00137867
0.00134028
0.00134023
0.00134023
0.00134238
0.00130399
0.00130394
0.00130394
0.00130609
0.0012677
0.00126766
0.00126766
0.00126981
0.00123142
0.00123137
0.00123137
0.00123352
0.00119513
0.00119508
0.00119508
0.00119723
0.00115884
0.0011588
0.0011588
0.00116095
0.00112256
0.00112251
0.00112251
0.00112466
0.00108627
0.00108623
0.00108623
0.00108838
0.00104999
0.00104994
0.00104994
0.00105209
0.00101371
0.00101366
0.00101366
0.00101581
0.000977422
0.000977376
0.000977376
0.000979525
0.000941137
0.000941091
0.000941091
0.00094324
0.000904851
0.000904805
0.000904805
0.000906954
0.000868565
0.000868518
0.000868518
0.000870667
0.000832278
0.000832232
0.000832232
0.000834381
0.00079599
0.000795944
0.000795944
0.000798093
0.000759703
0.000759656
0.000759657
0.000761806
0.000723415
0.000723369
0.000723369
0.000725518
0.000687129
0.000687083
0.000687083
0.000689232
0.000650844
0.000650797
0.000650798
0.000652947
0.000614559
0.000614513
0.000614513
0.000616662
0.000578275
0.000578228
0.000578228
0.000580377
0.00054199
0.000541944
0.000541944
0.000544093
0.000505705
0.000505659
0.000505659
0.000507807
0.00046942
0.000469373
0.000469373
0.000471522
0.000433134
0.000433088
0.000433088
0.000435236
0.000396848
0.000396802
0.000396802
0.00039895
0.000360561
0.000360515
0.000360515
0.000362663
0.000324274
0.000324228
0.000324227
0.000326374
0.000287986
0.00028794
0.00028794
0.000290085
0.000251698
0.000251651
0.000251652
0.000253794
0.000215408
0.000215362
0.000215363
0.000217501
0.000179115
0.000179072
0.000179073
0.000181203
0.000142815
0.000142777
0.000142777
0.000144896
0.000106499
0.000106472
0.000106471
0.000108572
7.01941e-05
7.01536e-05
7.01514e-05
7.22268e-05
3.47624e-05
3.42976e-05
3.42937e-05
3.60997e-05
4.91514e-06
4.33426e-06
4.33245e-06
4.37853e-06
0.00355021
0.00354909
0.00354914
0.00355024
0.00354911
0.00354919
0.00355244
0.00355245
0.00355248
0.00355248
0.00354915
0.00354914
0.00355028
0.00354923
0.00354915
0.00355024
0.00354469
0.00351274
0.00354286
0.00354289
0.0035143
0.00351432
0.00354466
0.00351273
0.00354289
0.0035429
0.00351427
0.0035143
0.00354289
0.00351433
0.00351433
0.00354468
0.00351269
0.0035429
0.00351432
0.00351434
0.00351272
0.00350847
0.00347637
0.00350526
0.00350536
0.00347873
0.00347863
0.00350848
0.00347631
0.00350535
0.00350535
0.00347866
0.00347866
0.00350528
0.00347869
0.00347869
0.00350849
0.0034763
0.00350533
0.00347872
0.00347869
0.00347636
0.00347106
0.00343244
0.00346875
0.00346883
0.00343546
0.00343541
0.00347102
0.00343241
0.00346882
0.00346877
0.00343539
0.00343547
0.00346874
0.00343544
0.00343544
0.00347098
0.00343235
0.00346879
0.00343552
0.0034354
0.00343247
0.00342631
0.0033846
0.00342358
0.00342367
0.00338761
0.00338762
0.00342629
0.00338458
0.00342364
0.00342361
0.00338761
0.00338771
0.00342361
0.00338769
0.00338758
0.00342624
0.00338459
0.00342372
0.00338763
0.00338769
0.00338458
0.00337839
0.00333649
0.00337565
0.00337566
0.00333957
0.0033396
0.00337837
0.00333649
0.00337562
0.00337559
0.00333959
0.00333953
0.0033757
0.00333948
0.00333958
0.00337836
0.00333649
0.00337558
0.00333959
0.00333959
0.00333651
0.00333027
0.00328847
0.00332755
0.00332752
0.00329149
0.00329149
0.00333026
0.00328845
0.00332751
0.00332763
0.00329147
0.00329161
0.00332757
0.00329136
0.00329147
0.00333027
0.00328845
0.00332739
0.00329149
0.00329143
0.00328849
0.00328235
0.00324135
0.00327957
0.00327959
0.00324424
0.00324419
0.00328232
0.00324134
0.00327956
0.00327944
0.00324422
0.00324413
0.00327957
0.00324413
0.00324419
0.00328234
0.00324135
0.00327948
0.00324426
0.00324426
0.00324132
0.00323536
0.00319511
0.00323258
0.00323257
0.00319791
0.00319788
0.00323533
0.00319513
0.00323257
0.00323237
0.00319791
0.00319767
0.00323255
0.00319785
0.00319789
0.00323533
0.00319511
0.00323257
0.00319799
0.00319789
0.00319513
0.00318926
0.00314994
0.0031865
0.00318647
0.00315264
0.00315264
0.00318927
0.00314995
0.0031865
0.00318649
0.00315264
0.00315249
0.00318649
0.00315259
0.00315264
0.00318923
0.00315
0.00318646
0.00315269
0.00315264
0.00314995
0.00314422
0.0031057
0.00314148
0.00314149
0.00310829
0.00310829
0.00314423
0.00310569
0.00314144
0.00314137
0.00310829
0.00310833
0.00314147
0.00310828
0.00310829
0.00314425
0.00310579
0.00314144
0.00310822
0.00310827
0.00310568
0.00310008
0.00306216
0.0030973
0.00309731
0.0030647
0.00306471
0.00310008
0.00306216
0.00309731
0.00309722
0.00306471
0.00306482
0.00309732
0.00306473
0.00306471
0.00310015
0.00306202
0.00309731
0.00306461
0.00306467
0.00306214
0.00305664
0.00301921
0.00305392
0.00305391
0.00302176
0.00302174
0.00305663
0.00301923
0.00305392
0.00305391
0.00302176
0.00302171
0.00305393
0.00302177
0.00302175
0.00305656
0.00301925
0.00305391
0.00302174
0.00302175
0.0030192
0.00301376
0.00297677
0.00301111
0.00301108
0.00297929
0.00297927
0.00301376
0.00297678
0.0030111
0.00301102
0.00297928
0.00297933
0.00301111
0.00297927
0.00297929
0.0030138
0.00297681
0.00301112
0.00297932
0.0029793
0.00297677
0.00297138
0.00293474
0.00296873
0.00296872
0.00293726
0.00293725
0.00297139
0.00293476
0.00296875
0.00296878
0.00293723
0.00293725
0.00296876
0.00293724
0.00293725
0.00297142
0.00293473
0.00296876
0.00293723
0.00293724
0.00293474
0.00292939
0.00289313
0.00292677
0.00292677
0.00289561
0.00289557
0.0029294
0.00289313
0.00292678
0.00292677
0.00289556
0.00289557
0.00292679
0.00289556
0.00289557
0.00292939
0.00289316
0.00292677
0.00289566
0.00289559
0.00289315
0.00288785
0.00285233
0.00288528
0.00288525
0.00285468
0.00285472
0.00288785
0.00285231
0.00288526
0.00288526
0.00285467
0.00285467
0.00288528
0.0028547
0.00285467
0.00288787
0.00285232
0.00288529
0.0028547
0.00285468
0.00285233
0.00284713
0.00281242
0.00284462
0.00284465
0.00281476
0.00281485
0.00284714
0.00281254
0.00284459
0.00284462
0.0028148
0.00281484
0.00284461
0.00281486
0.00281481
0.00284714
0.00281251
0.00284462
0.00281481
0.00281485
0.00281249
0.00280746
0.00277481
0.00280506
0.00280514
0.00277692
0.00277687
0.00280754
0.00277473
0.00280508
0.00280513
0.0027769
0.00277688
0.00280511
0.00277687
0.00277691
0.00280752
0.00277475
0.00280513
0.00277689
0.00277689
0.00277479
0.00277011
0.00273807
0.00276774
0.00276768
0.00274014
0.00274011
0.00277003
0.00273805
0.00276774
0.00276769
0.00274015
0.00274012
0.00276773
0.00274011
0.00274012
0.00277004
0.00273805
0.0027677
0.00274011
0.00274011
0.00273804
0.00273324
0.00270019
0.0027308
0.00273079
0.00270231
0.00270231
0.00273322
0.00270018
0.00273081
0.0027308
0.00270231
0.00270231
0.00273079
0.0027023
0.0027023
0.00273322
0.00270019
0.00273078
0.00270231
0.0027023
0.00270018
0.0026952
0.00266112
0.00269265
0.00269265
0.00266325
0.00266325
0.00269519
0.00266112
0.00269265
0.00269265
0.00266325
0.00266325
0.00269265
0.00266325
0.00266325
0.0026952
0.00266112
0.00269264
0.00266325
0.00266325
0.00266112
0.00265598
0.00262163
0.00265338
0.00265337
0.00262382
0.00262382
0.00265598
0.00262163
0.00265338
0.00265337
0.00262382
0.00262382
0.00265337
0.00262382
0.00262382
0.00265597
0.00262163
0.00265338
0.00262382
0.00262382
0.00262163
0.00261651
0.00258287
0.00261404
0.00261404
0.00258508
0.00258508
0.00261651
0.00258287
0.00261405
0.00261404
0.00258508
0.00258508
0.00261404
0.00258508
0.00258508
0.00261651
0.00258287
0.00261404
0.00258508
0.00258508
0.00258287
0.00257787
0.00254521
0.00257556
0.00257556
0.00254741
0.00254741
0.00257787
0.00254521
0.00257556
0.00257556
0.00254741
0.00254741
0.00257556
0.00254741
0.00254741
0.00257787
0.00254521
0.00257556
0.00254741
0.00254741
0.00254521
0.00254034
0.00250841
0.00253814
0.00253814
0.00251058
0.00251058
0.00254034
0.00250841
0.00253814
0.00253814
0.00251058
0.00251058
0.00253814
0.00251058
0.00251058
0.00254034
0.00250841
0.00253814
0.00251058
0.00251058
0.00250841
0.00250361
0.00247202
0.00250146
0.00250146
0.00247417
0.00247417
0.00250361
0.00247202
0.00250146
0.00250146
0.00247417
0.00247417
0.00250146
0.00247417
0.00247417
0.00250361
0.00247202
0.00250146
0.00247417
0.00247417
0.00247202
0.00246724
0.00243572
0.00246509
0.00246509
0.00243787
0.00243787
0.00246724
0.00243572
0.00246509
0.00246509
0.00243787
0.00243787
0.00246509
0.00243787
0.00243787
0.00246724
0.00243572
0.00246509
0.00243787
0.00243787
0.00243572
0.00243094
0.00239944
0.0024288
0.0024288
0.00240158
0.00240158
0.00243094
0.00239944
0.0024288
0.0024288
0.00240158
0.00240158
0.0024288
0.00240158
0.00240158
0.00243095
0.00239944
0.0024288
0.00240158
0.00240158
0.00239944
0.00239466
0.00236315
0.00239251
0.00239251
0.0023653
0.0023653
0.00239466
0.00236315
0.00239251
0.00239251
0.0023653
0.0023653
0.00239251
0.0023653
0.0023653
0.00239466
0.00236315
0.00239251
0.0023653
0.0023653
0.00236315
0.00235837
0.00232687
0.00235622
0.00235623
0.00232901
0.00232901
0.00235837
0.00232687
0.00235622
0.00235623
0.00232901
0.00232901
0.00235623
0.00232901
0.00232901
0.00235837
0.00232687
0.00235623
0.00232901
0.00232901
0.00232687
0.00232209
0.00229058
0.00231994
0.00231994
0.00229273
0.00229273
0.00232209
0.00229058
0.00231994
0.00231994
0.00229273
0.00229273
0.00231994
0.00229273
0.00229273
0.00232209
0.00229058
0.00231994
0.00229273
0.00229273
0.00229058
0.0022858
0.0022543
0.00228366
0.00228366
0.00225644
0.00225644
0.0022858
0.0022543
0.00228366
0.00228366
0.00225644
0.00225644
0.00228366
0.00225644
0.00225644
0.0022858
0.0022543
0.00228366
0.00225644
0.00225644
0.0022543
0.00224952
0.00221801
0.00224737
0.00224737
0.00222016
0.00222016
0.00224952
0.00221801
0.00224737
0.00224737
0.00222016
0.00222016
0.00224737
0.00222016
0.00222016
0.00224952
0.00221801
0.00224737
0.00222016
0.00222016
0.00221801
0.00221323
0.00218173
0.00221108
0.00221108
0.00218387
0.00218387
0.00221323
0.00218173
0.00221108
0.00221108
0.00218387
0.00218387
0.00221108
0.00218387
0.00218387
0.00221323
0.00218173
0.00221108
0.00218387
0.00218387
0.00218172
0.00217695
0.00214544
0.0021748
0.0021748
0.00214758
0.00214758
0.00217695
0.00214544
0.0021748
0.0021748
0.00214758
0.00214758
0.0021748
0.00214758
0.00214758
0.00217695
0.00214544
0.0021748
0.00214758
0.00214758
0.00214544
0.00214066
0.00210915
0.00213851
0.00213851
0.0021113
0.0021113
0.00214066
0.00210915
0.00213851
0.00213851
0.0021113
0.0021113
0.00213851
0.0021113
0.0021113
0.00214066
0.00210915
0.00213851
0.0021113
0.0021113
0.00210915
0.00210437
0.00207286
0.00210222
0.00210222
0.00207501
0.00207501
0.00210437
0.00207286
0.00210222
0.00210222
0.00207501
0.00207501
0.00210222
0.00207501
0.00207501
0.00210437
0.00207286
0.00210222
0.00207501
0.00207501
0.00207286
0.00206809
0.00203658
0.00206594
0.00206594
0.00203872
0.00203872
0.00206809
0.00203658
0.00206594
0.00206594
0.00203872
0.00203872
0.00206594
0.00203872
0.00203872
0.00206809
0.00203658
0.00206594
0.00203872
0.00203872
0.00203658
0.0020318
0.00200029
0.00202965
0.00202965
0.00200244
0.00200244
0.0020318
0.00200029
0.00202965
0.00202965
0.00200244
0.00200244
0.00202965
0.00200244
0.00200244
0.0020318
0.00200029
0.00202965
0.00200244
0.00200244
0.00200029
0.00199551
0.00196401
0.00199336
0.00199336
0.00196615
0.00196615
0.00199551
0.00196401
0.00199336
0.00199336
0.00196615
0.00196615
0.00199336
0.00196615
0.00196615
0.00199551
0.00196401
0.00199336
0.00196615
0.00196615
0.00196401
0.00195923
0.00192772
0.00195708
0.00195708
0.00192987
0.00192987
0.00195923
0.00192772
0.00195708
0.00195708
0.00192987
0.00192987
0.00195708
0.00192987
0.00192987
0.00195923
0.00192772
0.00195708
0.00192987
0.00192987
0.00192772
0.00192294
0.00189144
0.0019208
0.0019208
0.00189358
0.00189358
0.00192294
0.00189144
0.0019208
0.0019208
0.00189358
0.00189358
0.0019208
0.00189358
0.00189358
0.00192294
0.00189144
0.0019208
0.00189358
0.00189358
0.00189144
0.00188666
0.00185515
0.00188451
0.00188451
0.0018573
0.0018573
0.00188666
0.00185515
0.00188451
0.00188451
0.0018573
0.0018573
0.00188451
0.0018573
0.0018573
0.00188666
0.00185515
0.00188451
0.0018573
0.0018573
0.00185515
0.00185037
0.00181887
0.00184823
0.00184823
0.00182101
0.00182101
0.00185037
0.00181887
0.00184823
0.00184823
0.00182101
0.00182101
0.00184823
0.00182101
0.00182101
0.00185037
0.00181887
0.00184823
0.00182101
0.00182101
0.00181887
0.00181409
0.00178258
0.00181194
0.00181194
0.00178473
0.00178473
0.00181409
0.00178258
0.00181194
0.00181194
0.00178473
0.00178473
0.00181194
0.00178473
0.00178473
0.00181409
0.00178258
0.00181194
0.00178473
0.00178473
0.00178258
0.0017778
0.0017463
0.00177565
0.00177565
0.00174844
0.00174844
0.0017778
0.0017463
0.00177565
0.00177565
0.00174844
0.00174844
0.00177566
0.00174844
0.00174844
0.0017778
0.0017463
0.00177565
0.00174844
0.00174844
0.0017463
0.00174152
0.00171001
0.00173937
0.00173937
0.00171215
0.00171215
0.00174152
0.00171001
0.00173937
0.00173937
0.00171215
0.00171215
0.00173937
0.00171215
0.00171215
0.00174152
0.00171001
0.00173937
0.00171215
0.00171215
0.00171001
0.00170523
0.00167372
0.00170308
0.00170308
0.00167587
0.00167587
0.00170523
0.00167372
0.00170308
0.00170308
0.00167587
0.00167587
0.00170308
0.00167587
0.00167587
0.00170523
0.00167372
0.00170308
0.00167587
0.00167587
0.00167372
0.00166894
0.00163744
0.0016668
0.0016668
0.00163958
0.00163958
0.00166894
0.00163744
0.0016668
0.0016668
0.00163958
0.00163958
0.0016668
0.00163958
0.00163958
0.00166894
0.00163744
0.0016668
0.00163958
0.00163958
0.00163744
0.00163266
0.00160115
0.00163051
0.00163051
0.0016033
0.00160329
0.00163266
0.00160115
0.00163051
0.00163051
0.0016033
0.0016033
0.00163051
0.0016033
0.0016033
0.00163266
0.00160115
0.00163051
0.0016033
0.00160329
0.00160115
0.00159637
0.00156487
0.00159422
0.00159422
0.00156701
0.00156701
0.00159637
0.00156487
0.00159422
0.00159422
0.00156701
0.00156701
0.00159422
0.00156701
0.00156701
0.00159637
0.00156487
0.00159422
0.00156701
0.00156701
0.00156487
0.00156009
0.00152858
0.00155794
0.00155794
0.00153073
0.00153073
0.00156009
0.00152858
0.00155794
0.00155794
0.00153073
0.00153073
0.00155794
0.00153073
0.00153073
0.00156009
0.00152858
0.00155794
0.00153073
0.00153073
0.00152858
0.0015238
0.0014923
0.00152166
0.00152166
0.00149444
0.00149444
0.0015238
0.0014923
0.00152166
0.00152166
0.00149444
0.00149444
0.00152166
0.00149444
0.00149444
0.0015238
0.0014923
0.00152166
0.00149444
0.00149444
0.0014923
0.00148752
0.00145601
0.00148537
0.00148537
0.00145816
0.00145816
0.00148752
0.00145601
0.00148537
0.00148537
0.00145816
0.00145816
0.00148537
0.00145816
0.00145816
0.00148752
0.00145601
0.00148537
0.00145816
0.00145816
0.00145601
0.00145124
0.00141973
0.00144909
0.00144909
0.00142187
0.00142187
0.00145124
0.00141973
0.00144909
0.00144909
0.00142187
0.00142187
0.00144909
0.00142187
0.00142187
0.00145124
0.00141973
0.00144909
0.00142187
0.00142187
0.00141973
0.00141495
0.00138344
0.0014128
0.0014128
0.00138559
0.00138559
0.00141495
0.00138344
0.0014128
0.0014128
0.00138559
0.00138559
0.0014128
0.00138559
0.00138559
0.00141495
0.00138344
0.0014128
0.00138559
0.00138559
0.00138344
0.00137867
0.00134716
0.00137652
0.00137652
0.0013493
0.0013493
0.00137867
0.00134716
0.00137652
0.00137652
0.0013493
0.0013493
0.00137652
0.0013493
0.0013493
0.00137867
0.00134716
0.00137652
0.0013493
0.0013493
0.00134716
0.00134238
0.00131087
0.00134023
0.00134023
0.00131302
0.00131302
0.00134238
0.00131087
0.00134023
0.00134023
0.00131302
0.00131302
0.00134023
0.00131302
0.00131302
0.00134238
0.00131087
0.00134023
0.00131302
0.00131302
0.00131087
0.00130609
0.00127458
0.00130394
0.00130394
0.00127673
0.00127673
0.00130609
0.00127458
0.00130394
0.00130394
0.00127673
0.00127673
0.00130394
0.00127673
0.00127673
0.00130609
0.00127458
0.00130394
0.00127673
0.00127673
0.00127458
0.00126981
0.0012383
0.00126766
0.00126766
0.00124044
0.00124044
0.00126981
0.0012383
0.00126766
0.00126766
0.00124044
0.00124044
0.00126766
0.00124044
0.00124044
0.00126981
0.0012383
0.00126766
0.00124044
0.00124044
0.0012383
0.00123352
0.00120201
0.00123137
0.00123137
0.00120416
0.00120415
0.00123352
0.00120201
0.00123137
0.00123137
0.00120415
0.00120415
0.00123137
0.00120415
0.00120415
0.00123352
0.00120201
0.00123137
0.00120415
0.00120415
0.00120201
0.00119723
0.00116572
0.00119508
0.00119508
0.00116787
0.00116787
0.00119723
0.00116572
0.00119508
0.00119508
0.00116787
0.00116787
0.00119508
0.00116787
0.00116787
0.00119723
0.00116572
0.00119508
0.00116787
0.00116787
0.00116572
0.00116095
0.00112944
0.0011588
0.0011588
0.00113158
0.00113158
0.00116095
0.00112944
0.0011588
0.0011588
0.00113158
0.00113158
0.0011588
0.00113158
0.00113158
0.00116095
0.00112944
0.0011588
0.00113158
0.00113158
0.00112944
0.00112466
0.00109315
0.00112251
0.00112251
0.0010953
0.0010953
0.00112466
0.00109315
0.00112251
0.00112251
0.0010953
0.0010953
0.00112251
0.0010953
0.0010953
0.00112466
0.00109315
0.00112251
0.0010953
0.0010953
0.00109315
0.00108838
0.00105687
0.00108623
0.00108623
0.00105901
0.00105901
0.00108838
0.00105687
0.00108623
0.00108623
0.00105901
0.00105901
0.00108623
0.00105901
0.00105901
0.00108838
0.00105687
0.00108623
0.00105901
0.00105901
0.00105687
0.00105209
0.00102059
0.00104994
0.00104994
0.00102273
0.00102273
0.00105209
0.00102059
0.00104994
0.00104994
0.00102273
0.00102273
0.00104994
0.00102273
0.00102273
0.00105209
0.00102059
0.00104994
0.00102273
0.00102273
0.00102059
0.00101581
0.000984302
0.00101366
0.00101366
0.000986447
0.000986446
0.00101581
0.000984303
0.00101366
0.00101366
0.000986446
0.000986446
0.00101366
0.000986447
0.000986447
0.00101581
0.000984302
0.00101366
0.000986447
0.000986447
0.000984302
0.000979524
0.000948018
0.000977376
0.000977376
0.000950162
0.000950162
0.000979524
0.000948018
0.000977376
0.000977376
0.000950162
0.000950162
0.000977376
0.000950162
0.000950162
0.000979524
0.000948017
0.000977376
0.000950162
0.000950162
0.000948017
0.000943239
0.000911732
0.000941091
0.000941091
0.000913876
0.000913876
0.000943239
0.000911732
0.000941091
0.000941091
0.000913876
0.000913876
0.000941091
0.000913876
0.000913876
0.000943239
0.000911732
0.000941091
0.000913876
0.000913876
0.000911731
0.000906953
0.000875446
0.000904805
0.000904805
0.00087759
0.00087759
0.000906953
0.000875446
0.000904805
0.000904805
0.00087759
0.00087759
0.000904805
0.00087759
0.00087759
0.000906954
0.000875445
0.000904805
0.00087759
0.00087759
0.000875445
0.000870667
0.000839159
0.000868519
0.000868518
0.000841303
0.000841303
0.000870667
0.000839159
0.000868519
0.000868518
0.000841303
0.000841303
0.000868519
0.000841303
0.000841303
0.000870667
0.000839159
0.000868518
0.000841303
0.000841303
0.000839159
0.00083438
0.000802871
0.000832232
0.000832232
0.000805016
0.000805016
0.00083438
0.000802871
0.000832232
0.000832232
0.000805016
0.000805016
0.000832232
0.000805016
0.000805016
0.00083438
0.000802871
0.000832232
0.000805016
0.000805016
0.000802871
0.000798092
0.000766584
0.000795944
0.000795944
0.000768728
0.000768728
0.000798092
0.000766584
0.000795944
0.000795944
0.000768728
0.000768728
0.000795944
0.000768728
0.000768728
0.000798093
0.000766584
0.000795944
0.000768728
0.000768728
0.000766583
0.000761805
0.000730296
0.000759656
0.000759656
0.000732441
0.000732441
0.000761805
0.000730297
0.000759656
0.000759656
0.000732441
0.000732441
0.000759657
0.000732441
0.000732441
0.000761805
0.000730296
0.000759656
0.000732441
0.000732441
0.000730296
0.000725518
0.00069401
0.000723369
0.000723369
0.000696154
0.000696154
0.000725518
0.00069401
0.000723369
0.000723369
0.000696154
0.000696154
0.000723369
0.000696154
0.000696154
0.000725518
0.00069401
0.000723369
0.000696154
0.000696154
0.000694009
0.000689231
0.000657724
0.000687083
0.000687083
0.000659869
0.000659869
0.000689231
0.000657724
0.000687083
0.000687083
0.000659869
0.000659869
0.000687083
0.000659869
0.000659869
0.000689231
0.000657724
0.000687083
0.000659869
0.000659869
0.000657724
0.000652946
0.00062144
0.000650798
0.000650798
0.000623584
0.000623584
0.000652946
0.00062144
0.000650798
0.000650798
0.000623584
0.000623584
0.000650798
0.000623584
0.000623584
0.000652946
0.000621439
0.000650798
0.000623584
0.000623584
0.000621439
0.000616661
0.000585155
0.000614513
0.000614513
0.000587299
0.000587299
0.000616661
0.000585155
0.000614513
0.000614513
0.000587299
0.000587299
0.000614513
0.000587299
0.000587299
0.000616661
0.000585155
0.000614513
0.000587299
0.000587299
0.000585155
0.000580377
0.00054887
0.000578229
0.000578228
0.000551014
0.000551014
0.000580377
0.00054887
0.000578228
0.000578228
0.000551014
0.000551014
0.000578229
0.000551015
0.000551015
0.000580377
0.00054887
0.000578228
0.000551015
0.000551015
0.00054887
0.000544092
0.000512585
0.000541944
0.000541943
0.000514729
0.000514729
0.000544092
0.000512585
0.000541943
0.000541944
0.000514729
0.000514729
0.000541944
0.00051473
0.00051473
0.000544092
0.000512585
0.000541944
0.00051473
0.000514729
0.000512585
0.000507807
0.0004763
0.000505659
0.000505658
0.000478444
0.000478444
0.000507807
0.0004763
0.000505659
0.000505659
0.000478444
0.000478444
0.000505659
0.000478444
0.000478444
0.000507807
0.0004763
0.000505659
0.000478444
0.000478444
0.0004763
0.000471522
0.000440015
0.000469374
0.000469373
0.000442159
0.000442159
0.000471521
0.000440015
0.000469374
0.000469374
0.000442159
0.000442159
0.000469373
0.000442159
0.000442159
0.000471522
0.000440015
0.000469373
0.000442159
0.000442159
0.000440015
0.000435236
0.000403729
0.000433088
0.000433088
0.000405873
0.000405873
0.000435236
0.000403729
0.000433088
0.000433088
0.000405873
0.000405873
0.000433088
0.000405873
0.000405873
0.000435236
0.000403729
0.000433088
0.000405873
0.000405873
0.000403729
0.000398949
0.000367442
0.000396802
0.000396802
0.000369586
0.000369586
0.00039895
0.000367443
0.000396802
0.000396802
0.000369586
0.000369586
0.000396803
0.000369586
0.000369586
0.00039895
0.000367442
0.000396802
0.000369586
0.000369586
0.000367442
0.000362662
0.000331155
0.000360515
0.000360515
0.000333299
0.000333298
0.000362662
0.000331155
0.000360515
0.000360515
0.000333298
0.000333298
0.000360515
0.000333299
0.000333299
0.000362662
0.000331155
0.000360515
0.000333298
0.000333298
0.000331155
0.000326374
0.000294868
0.000324228
0.000324228
0.000297011
0.00029701
0.000326374
0.000294868
0.000324228
0.000324228
0.00029701
0.00029701
0.000324228
0.000297011
0.000297011
0.000326374
0.000294868
0.000324227
0.00029701
0.00029701
0.000294868
0.000290084
0.000258581
0.00028794
0.00028794
0.000260722
0.000260722
0.000290084
0.000258581
0.00028794
0.00028794
0.000260722
0.000260722
0.00028794
0.000260722
0.000260722
0.000290084
0.00025858
0.000287939
0.000260722
0.000260722
0.00025858
0.000253794
0.000222293
0.000251652
0.000251651
0.000224432
0.000224432
0.000253794
0.000222293
0.000251652
0.000251652
0.000224432
0.000224432
0.000251652
0.000224432
0.000224432
0.000253794
0.000222293
0.000251651
0.000224433
0.000224432
0.000222293
0.0002175
0.000186005
0.000215363
0.000215363
0.000188142
0.000188141
0.0002175
0.000186005
0.000215363
0.000215363
0.000188141
0.000188142
0.000215363
0.000188142
0.000188142
0.000217501
0.000186005
0.000215363
0.000188142
0.000188142
0.000186005
0.000181203
0.000149713
0.000179073
0.000179072
0.000151846
0.000151846
0.000181203
0.000149714
0.000179072
0.000179072
0.000151846
0.000151846
0.000179073
0.000151846
0.000151846
0.000181203
0.000149713
0.000179072
0.000151846
0.000151846
0.000149713
0.000144895
0.000113414
0.000142777
0.000142777
0.00011554
0.00011554
0.000144895
0.000113414
0.000142777
0.000142777
0.00011554
0.00011554
0.000142777
0.00011554
0.00011554
0.000144895
0.000113413
0.000142777
0.00011554
0.00011554
0.000113413
0.000108572
7.7101e-05
0.000106472
0.000106472
7.92209e-05
7.9221e-05
0.000108572
7.71012e-05
0.000106472
0.000106471
7.92206e-05
7.92192e-05
0.000106471
7.92208e-05
7.92195e-05
0.000108572
7.70992e-05
0.000106471
7.92189e-05
7.92186e-05
7.70989e-05
7.22289e-05
4.09152e-05
7.01543e-05
7.01541e-05
4.30592e-05
4.30587e-05
7.22291e-05
4.09141e-05
7.01539e-05
7.0152e-05
4.30576e-05
4.3054e-05
7.01523e-05
4.30573e-05
4.30544e-05
7.22269e-05
4.09102e-05
7.01511e-05
4.30537e-05
4.30542e-05
4.09101e-05
3.61043e-05
7.71987e-06
3.42992e-05
3.42991e-05
1.02829e-05
1.02839e-05
3.61029e-05
7.72072e-06
3.4298e-05
3.42935e-05
1.02833e-05
1.02808e-05
3.42937e-05
1.02827e-05
1.02807e-05
3.60992e-05
7.71788e-06
3.42943e-05
1.02804e-05
1.02818e-05
7.71897e-06
4.37975e-06
4.33624e-06
4.33565e-06
4.37948e-06
4.33389e-06
4.33348e-06
4.91474e-06
4.91352e-06
4.91374e-06
4.33476e-06
4.37687e-06
4.33296e-06
0.00355672
0.00356107
0.00355908
0.0035591
0.00358076
0.0035626
0.00358872
0.00356061
0.00358079
0.00356268
0.00356065
0.00358879
0.00357064
0.00359192
0.00359194
0.00352675
0.00354133
0.00354496
0.00351852
0.0035182
0.00352223
0.00352667
0.00354132
0.00354497
0.00351873
0.00354323
0.00354323
0.00354325
0.00351486
0.00351486
0.00351483
0.00351487
0.00352614
0.0035396
0.00354382
0.00353344
0.0035461
0.00352305
0.00353389
0.00351829
0.00352229
0.00352615
0.00354384
0.00353965
0.00353345
0.00354615
0.0035339
0.00352291
0.00354525
0.00354507
0.0035302
0.003523
0.00352298
0.00349955
0.00351308
0.00351278
0.00349759
0.00351034
0.00349674
0.00349944
0.00351308
0.00351287
0.00349761
0.00350612
0.00350609
0.0035061
0.00347966
0.00347963
0.00347963
0.00347963
0.00349712
0.00351189
0.0035053
0.00349689
0.00351012
0.00349791
0.00349663
0.00351063
0.00349654
0.00349711
0.00350529
0.00351189
0.00349689
0.0035101
0.00349665
0.00349788
0.00351349
0.00351339
0.00349563
0.00349852
0.00349859
0.00345751
0.00347242
0.00347331
0.00345629
0.00347115
0.00345549
0.00345734
0.00347238
0.00347343
0.00345631
0.00346975
0.00346972
0.00346974
0.00343629
0.00343627
0.00343626
0.00343627
0.00345599
0.00347213
0.00346854
0.00345818
0.00347133
0.00345687
0.00345789
0.00347096
0.00345588
0.00345601
0.00346852
0.00347214
0.00345824
0.00347133
0.00345794
0.00345682
0.00347264
0.00347281
0.00345525
0.00345661
0.0034564
0.00341051
0.00342727
0.00342875
0.00340927
0.00342661
0.00340872
0.00341064
0.00342729
0.00342871
0.00340929
0.00342441
0.00342439
0.00342442
0.00338844
0.00338842
0.00338841
0.00338842
0.00340934
0.00342743
0.00342343
0.00341158
0.0034269
0.00340976
0.00341146
0.0034264
0.0034091
0.00340933
0.00342344
0.00342729
0.00341165
0.00342692
0.00341147
0.00340978
0.00342746
0.00342752
0.00340862
0.00340933
0.00340949
0.00336195
0.00337891
0.00338016
0.00336079
0.00337848
0.0033605
0.00336195
0.00337893
0.00338011
0.00336074
0.00337644
0.00337641
0.00337643
0.00334033
0.00334032
0.00334031
0.00334033
0.00336109
0.00337903
0.00337552
0.00336371
0.00337881
0.00336145
0.00336353
0.0033784
0.00336031
0.0033611
0.00337552
0.00337901
0.00336362
0.00337876
0.00336354
0.00336132
0.00337896
0.00337901
0.00336056
0.00336085
0.00336085
0.00331324
0.0033305
0.00333137
0.00331241
0.00333025
0.00331217
0.00331322
0.0033305
0.0033314
0.00331235
0.00332822
0.00332823
0.00332824
0.0032921
0.00329209
0.00329209
0.0032921
0.00331275
0.00333073
0.00332746
0.00331564
0.00333052