/*--------------------------------*- C++ -*----------------------------------*\
| =========                 |                                                 |
| \\      /  F ield         | OpenFOAM: The Open Source CFD Toolbox           |
|  \\    /   O peration     | Version:  v2006                                 |
|   \\  /    A nd           | Website:  www.openfoam.com                      |
|    \\/     M anipulation  |                                                 |
\*---------------------------------------------------------------------------*/
FoamFile
{
    version     2.0;
    format      ascii;
    class       surfaceScalarField;
    location    "750";
    object      phi;
}
// * * * * * * * * * * * * * * * * * * * * * * * * * * * * * * * * * * * * * //

dimensions      [0 3 -1 0 0 0 0];
oriented        oriented;


internalField   nonuniform List<scalar> 
41142
(
1.35337e-06
1.31324e-06
-2.85706e-07
-2.96145e-07
0.000271184
1.90949e-07
-3.11563e-07
1.24162e-06
2.0913e-07
8.22016e-07
-3.10611e-07
-9.76392e-07
1.58426e-07
0.00114495
2.01206e-07
-3.06027e-07
1.19878e-06
2.01043e-07
8.24818e-07
-3.10535e-07
-9.7611e-07
1.58686e-07
0.00114598
-3.02817e-09
4.6695e-08
-1.09618e-08
0.000192407
-5.73705e-11
7.26599e-08
0.000229252
-2.27579e-08
2.12308e-09
-3.07868e-09
4.6667e-08
-1.09139e-08
0.000192388
7.02253e-08
2.07854e-10
0.000229249
1.87588e-09
-2.27752e-08
1.49986e-08
9.71458e-05
1.49658e-08
9.71351e-05
1.55334e-08
4.97419e-08
-6.82678e-09
0.000277076
1.30792e-08
5.18768e-08
-6.22904e-09
0.000277001
7.01938e-08
1.45405e-09
0.000229215
-2.2757e-08
1.50757e-07
6.76874e-09
0.000245331
-4.65502e-08
9.01412e-07
-9.21361e-07
-1.09551e-06
7.1611e-07
0.00116374
1.47907e-10
0.00025169
-4.90619e-10
2.53536e-07
9.01202e-07
-9.21278e-07
-1.0951e-06
7.13308e-07
0.00116371
-2.76565e-09
0.000251666
2.50943e-07
1.48371e-07
6.75274e-09
0.000245296
3.5223e-09
9.01208e-07
-9.21305e-07
-1.09533e-06
7.13298e-07
0.00116363
1.80313e-09
0.000251681
-1.63493e-09
2.48401e-07
7.26304e-08
0.00022921
-2.47924e-08
1.89256e-09
9.04092e-07
-9.21372e-07
-1.09809e-06
7.13309e-07
0.00116363
0.000251656
2.50993e-07
-1.61555e-09
-7.85965e-05
-9.76491e-09
-1.30591e-09
7.86076e-05
-1.95229e-08
0.000261999
-2.68915e-09
5.86102e-08
-6.82189e-09
5.73649e-09
-1.00469e-08
0.000192419
-1.73749e-09
-4.79245e-09
-2.4895e-08
0.000262012
-0.000142379
-1.28686e-09
-7.26153e-09
0.000142387
7.74546e-09
2.83445e-09
-1.41263e-10
-1.99218e-08
0.000229261
2.74213e-09
0.000169998
-2.17467e-11
-2.31928e-08
0.000222939
7.34741e-08
-3.9028e-11
0.000170004
-2.39365e-08
0.000222953
-7.85962e-05
-9.85124e-09
-1.22123e-09
7.86073e-05
-1.94375e-08
0.000261996
-2.65166e-09
5.61281e-08
-6.76094e-09
5.7091e-09
-1.00613e-08
0.000192399
-1.65181e-09
-4.66542e-09
-2.26549e-08
0.000262007
-0.000142377
-7.23781e-09
-1.39525e-09
0.000142385
3.01208e-09
7.74191e-09
-5.11622e-11
-1.74137e-08
0.000229255
-2.32375e-08
0.000222938
6.86187e-08
2.70384e-09
0.000169994
4.12372e-11
-1.89294e-08
0.000222948
2.1325e-11
0.00017
-5.35626e-09
9.71569e-05
-5.41042e-09
9.71462e-05
-0.000221611
5.88899e-09
-2.32482e-09
3.42341e-09
-2.02795e-08
0.000221625
-3.91278e-08
0.000251247
1.09477e-07
5.77815e-08
2.86491e-08
0.000182006
-6.13458e-09
8.1717e-09
-8.12455e-09
-1.21456e-08
0.000277082
-2.26043e-08
5.97648e-08
4.76887e-09
0.000182015
-3.65425e-08
-6.50571e-09
0.000251279
-0.000221541
7.77347e-09
-2.43681e-09
1.5327e-09
-2.25049e-08
0.000221557
-3.89548e-08
0.000251137
1.09291e-07
5.51579e-08
3.06022e-08
0.000181945
-6.06073e-09
7.75049e-09
-1.04237e-08
-9.84137e-09
0.000277008
-2.04459e-08
6.20393e-08
4.80748e-09
0.000181955
-3.63679e-08
-1.80192e-09
0.000251162
-0.000212787
2.83357e-09
2.76166e-09
0.000212786
8.91065e-09
8e-05
8.95178e-09
7.99823e-05
8.00076e-05
7.99899e-05
-7.85508e-05
-9.777e-09
-1.27695e-09
7.85618e-05
-1.88703e-08
0.000261881
-6.43067e-10
5.60957e-08
-4.41606e-10
-4.72119e-09
-2.25091e-08
0.000261892
-1.25472e-09
-0.000142309
-7.25193e-09
0.000142317
-2.3189e-08
0.000222851
6.8524e-08
7.75046e-09
2.57739e-09
-1.74329e-08
0.000229222
0.000169964
2.55599e-09
0.00016997
-1.89921e-08
0.000222861
-7.85518e-05
-9.77674e-09
-1.26472e-09
7.85628e-05
-1.74572e-09
-4.8078e-09
-2.49225e-08
0.000261886
-1.29334e-09
-0.000142304
-9.22786e-09
0.000142313
9.73376e-09
2.60479e-09
-1.98455e-08
0.000229218
0.000169957
2.72383e-09
-2.51691e-08
0.000222842
7.33897e-08
0.000169966
-2.38898e-08
0.000222854
-0.000243609
-8.66765e-08
-8.20303e-08
0.000243735
-1.49599e-07
0.000262653
-1.44822e-07
0.000263066
2.00662e-07
2.11038e-07
0.000273213
0.000262939
0.00026336
-0.00026613
1.46356e-07
1.55245e-08
0.000266809
2.29711e-07
0.00025124
6.94983e-09
3.7162e-08
-4.10372e-10
0.000251358
1.48827e-07
-0.000266186
-1.54811e-08
1.55005e-08
0.00026686
2.62285e-08
0.000261738
0.000251323
2.32328e-07
4.61632e-09
-6.15957e-09
-6.7271e-08
0.000245382
-2.69722e-09
0.000251443
1.87191e-08
0.000261808
1.53111e-07
-0.000268235
8.16223e-09
0.00026899
4.00802e-10
-1.33375e-07
-1.79182e-10
0.000251803
0.000250705
2.64589e-07
-5.26781e-09
0.000268743
-4.38051e-09
0.000250832
1.9707e-09
0.000269332
-0.000268177
1.50618e-07
1.02746e-08
0.000268932
2.61914e-07
0.000250628
-8.0677e-10
-1.30829e-07
0.00025178
-1.3102e-08
0.000268737
0.000250758
0.000269331
1.46635e-07
-0.000266196
-1.03759e-08
4.85903e-09
0.00026688
3.11804e-08
0.000261721
0.000251308
2.29718e-07
4.61555e-09
-6.25909e-09
-6.49573e-08
0.000245347
-3.54798e-10
0.000251426
3.18306e-08
0.000261803
1.50534e-07
-0.000268227
5.15599e-09
0.000268978
8.76039e-10
-1.28255e-07
-3.86725e-10
0.000251791
0.000250693
2.62071e-07
-1.00019e-08
0.00026874
7.37668e-09
0.000250825
-4.59275e-09
0.000269335
1.46404e-07
1.82039e-08
0.000266788
-3.63279e-10
0.000251332
-0.000268167
9.24733e-09
1.5061e-07
0.000268929
-1.30766e-07
-1.09689e-10
0.000251767
-8.26315e-09
0.000268727
2.61943e-07
0.000250618
0.000269314
0.000250745
7.84871e-05
-1.1633e-09
-7.84993e-05
1.33784e-08
-7.36856e-10
-1.37019e-08
-2.017e-09
0.00014209
-0.000142102
1.35866e-08
-0.000169654
6.08666e-10
-1.45058e-11
-1.53956e-08
5.1634e-12
-0.000169669
1.23058e-08
-1.42556e-08
0.000169704
2.86779e-12
6.57547e-10
-0.000169687
-1.72554e-08
7.85298e-05
-1.00554e-09
1.54849e-08
-7.85442e-05
-8.80841e-10
-1.58088e-08
-2.01873e-09
0.000142158
-0.000142174
1.7577e-08
-0.000169687
6.24008e-10
-1.74145e-08
1.4315e-08
-1.82013e-08
-6.36098e-10
7.59138e-10
-0.000142088
-1.41017e-08
-0.000169654
-1.52337e-08
-7.84849e-05
-1.36117e-08
1.25759e-06
2.25239e-07
-0.00114005
1.98208e-07
2.34185e-07
-1.28629e-06
-2.59976e-07
8.5878e-07
-9.07364e-07
-2.48295e-07
7.44406e-08
-1.22022e-06
2.28688e-07
2.26382e-07
-0.000269516
2.25105e-07
-0.00114056
8.53498e-07
7.40485e-08
2.26025e-07
-1.24883e-06
-2.51661e-07
1.98278e-07
-9.01933e-07
-2.4823e-07
1.24922e-06
2.25202e-07
-0.00113966
7.44477e-08
1.98217e-07
2.31352e-07
-1.2779e-06
-2.57126e-07
8.55998e-07
-9.04622e-07
-2.48242e-07
1.20932e-06
2.24787e-07
7.39258e-08
1.98414e-07
2.26092e-07
-1.23796e-06
-2.51676e-07
8.53412e-07
-9.01694e-07
-2.48162e-07
-0.00114066
2.314e-07
2.23544e-07
-0.000269496
1.96388e-07
1.95792e-07
-0.00119088
1.89802e-07
1.96003e-07
-0.00119085
3.31232e-09
-0.000192026
-1.51012e-09
-2.49382e-08
3.28073e-08
-5.00463e-09
-5.48797e-09
0.000192026
-0.000192048
-1.28225e-06
2.31419e-07
8.58082e-07
-2.49737e-07
-9.09e-07
1.9739e-07
1.25727e-06
-2.58345e-07
2.33727e-07
-0.0011402
7.15542e-08
1.92605e-08
1.63847e-10
8.45377e-08
-0.000260306
-1.03692e-08
3.83676e-09
1.08147e-07
0.000244346
-0.000244414
-1.40409e-08
-9.70826e-05
9.19078e-09
9.70794e-05
-9.70935e-05
1.25026e-06
0.000269553
-2.37313e-07
-2.39714e-07
-0.000271608
-2.80565e-08
-0.000276321
4.72094e-09
-1.01697e-08
1.18763e-08
-2.58839e-08
-0.000276446
5.32925e-09
-1.03191e-08
-7.90861e-09
2.96868e-08
0.000276324
-0.000276347
-7.02821e-09
1.04382e-08
-8.40054e-09
2.74732e-08
0.00027645
-0.000276472
-3.32086e-09
-9.70955e-05
5.00138e-09
9.70923e-05
-9.71044e-05
3.71486e-08
0.000250285
-0.000250163
-1.58419e-07
-6.4479e-11
-1.25981e-09
0.000228352
-0.000228332
1.5077e-08
2.20933e-09
-1.98427e-10
-4.37134e-08
2.31457e-09
6.80362e-10
1.89608e-07
0.000250164
-0.000250313
7.68087e-08
2.19969e-07
1.21988e-06
-2.52801e-07
2.25545e-07
8.52794e-07
-2.49668e-07
-9.03569e-07
1.97469e-07
-0.00114069
-3.41856e-09
-1.19422e-10
1.68385e-07
-0.000264567
-0.001162
9.34028e-07
-2.80788e-09
3.25929e-07
7.54598e-07
-1.00636e-06
-8.31929e-07
-3.06179e-08
3.8419e-09
1.10515e-07
0.000244441
-0.000244514
7.42175e-09
3.14922e-07
9.38648e-07
-8.33941e-07
-1.00829e-06
7.59182e-07
-0.0011621
3.4771e-09
1.77198e-07
-0.000266535
3.1233e-10
1.63262e-09
-1.24986e-08
0.000228358
-0.000228391
-0.000192073
-1.52826e-09
-2.28049e-08
-5.44381e-09
0.000192073
-0.000192093
-1.38546e-10
-0.000228345
2.13237e-09
1.54025e-08
-3.80492e-08
-4.3732e-08
1.92223e-07
1.60814e-10
0.000250139
7.70957e-08
2.02757e-07
8.55284e-07
-2.44331e-07
-9.0088e-07
1.97388e-07
-0.00113979
-1.2793e-06
1.24889e-06
-2.58223e-07
2.30895e-07
-0.00116197
9.39579e-07
3.25997e-07
7.57376e-07
-1.00913e-06
-8.31998e-07
2.17596e-08
1.73454e-10
8.2257e-08
-0.00026034
2.97413e-07
9.38662e-07
-8.34007e-07
-1.0083e-06
7.56387e-07
-0.00116204
-3.0626e-08
3.89346e-09
1.08103e-07
0.000244377
-0.000244446
-1.28554e-08
-7.07311e-09
4.28089e-09
1.79706e-07
-0.000266476
-1.25124e-08
1.63304e-09
0.00022832
3.33597e-09
-0.000192024
-1.53534e-09
-2.28289e-08
-5.45977e-09
0.000192023
-0.000192043
-4.98509e-09
-0.000228308
1.53975e-08
2.20586e-09
-4.04931e-08
9.36539e-07
3.19943e-07
7.54515e-07
-1.00617e-06
-8.29174e-07
-1.46414e-09
-0.00116172
1.93537e-08
1.55164e-10
8.70831e-08
-0.000260323
1.09338e-08
-1.85579e-10
1.77131e-07
-0.000266467
3.35585e-09
-0.000192017
-1.51551e-09
-2.2883e-08
-0.000228303
2.17839e-09
-3.80226e-08
-1.49639e-10
1.18899e-08
-2.59107e-08
-0.000276408
4.77362e-09
-1.27092e-08
1.18556e-08
-2.81508e-08
-0.000276326
4.87611e-09
-1.03455e-08
-9.70845e-05
-9.7079e-05
1.33749e-08
7.84865e-05
-7.84987e-05
-1.15957e-09
-5.37284e-09
-0.000192048
-5.02489e-09
3.24448e-08
-0.00026128
1.36945e-08
-3.62557e-08
-3.81506e-09
-0.000261307
3.73629e-08
-1.96543e-09
-7.37453e-10
-7.84844e-05
-1.3601e-08
-7.64321e-10
-1.35175e-08
0.000261283
3.77816e-08
-0.00026131
-1.98379e-09
-1.62284e-09
3.34634e-09
-2.46597e-08
-7.84967e-05
-1.18444e-09
-3.59526e-08
-3.8408e-09
-9.70966e-05
9.04171e-09
-1.39291e-08
-0.000212355
6.15532e-09
6.13653e-09
-1.24043e-08
-1.03573e-08
0.000212365
4.73868e-09
7.98909e-05
5.14625e-09
-7.99008e-05
4.77647e-09
7.99036e-05
5.15379e-09
-7.99136e-05
1.19315e-08
9.76693e-09
-0.000212367
-4.82733e-09
7.99019e-05
-4.90049e-09
7.99147e-05
2.35954e-08
-1.55909e-08
0.000220853
-0.000220883
-1.17116e-08
3.36827e-08
-0.000250023
1.51582e-08
-6.55011e-08
2.92345e-08
-7.91537e-09
-0.000276343
1.02842e-08
-0.000181645
-1.92033e-08
4.82163e-09
-0.000250081
7.12399e-08
3.89745e-08
-0.000181663
-5.12207e-09
1.25852e-08
-3.92912e-08
-1.37385e-08
2.35451e-08
0.000220926
-0.000220962
-9.54334e-09
3.59457e-08
-0.000250196
1.5281e-08
-6.55069e-08
-1.68924e-08
-8.40913e-09
2.70308e-08
-0.000276468
-6.88468e-09
1.03472e-08
-0.0001817
-1.73186e-08
4.9014e-09
-0.000181717
-5.13258e-09
-0.000250253
7.1305e-08
3.63891e-08
1.05375e-08
-4.14671e-08
-1.48823e-08
-0.000220861
1.90054e-08
-3.89632e-08
1.58783e-08
0.000181644
-0.000181663
0.000250039
-2.39472e-08
3.94311e-08
7.19694e-08
-0.000250097
-2.77219e-08
4.77042e-09
-1.01421e-08
-1.88786e-08
-6.49858e-08
3.41752e-08
-0.000220891
-0.000220933
1.71164e-08
-1.49881e-08
-4.11499e-08
1.40198e-08
0.0001817
-0.000181717
-2.39068e-08
0.000250212
7.20377e-08
3.68566e-08
-0.00025027
5.36767e-09
-2.55463e-08
1.17648e-08
-1.02837e-08
3.64265e-08
-0.00022097
-6.49871e-08
-1.64974e-08
-4.65334e-09
-4.69159e-09
0.000212353
-7.98921e-05
-6.2209e-09
-7.99048e-05
-6.20062e-09
-9.71074e-05
5.02048e-09
-3.35541e-09
-2.11281e-09
1.40449e-08
0.000142091
-0.000142104
1.22971e-09
-1.27565e-08
1.64533e-09
4.4328e-08
-3.25975e-11
-0.000228365
-0.000169656
7.01307e-10
0.000169671
-4.27746e-11
-0.000222126
1.39122e-08
0.000222148
-3.71441e-08
3.86876e-09
-2.86175e-11
-0.000169671
4.47083e-08
-0.000222157
1.9998e-09
0.000142105
7.9898e-10
-0.000142158
-1.60474e-08
-6.16873e-10
9.02797e-10
0.000142173
-1.58026e-08
0.000222211
1.96921e-09
4.40519e-08
-0.00022224
2.05739e-09
0.000169688
5.05929e-11
-0.000169702
2.36433e-09
1.52443e-08
0.000228378
4.93531e-11
-3.76244e-08
9.8889e-10
-0.000142172
3.84604e-09
0.000222231
-3.753e-08
0.000169702
3.29541e-11
1.54474e-08
7.85301e-05
-7.85446e-05
-9.61558e-10
-5.32673e-09
-0.000192093
3.02561e-08
-0.000261412
1.58309e-08
-3.81707e-09
-3.62143e-08
-0.000261437
-1.95149e-09
3.72621e-08
-8.71642e-10
-7.8528e-05
-1.57347e-08
-1.55928e-08
0.000261415
3.76859e-08
-0.00026144
-1.64786e-09
-2.2527e-08
-7.85426e-05
-3.59159e-08
1.55894e-08
-2.02513e-09
0.000142159
1.40706e-09
-1.22731e-08
4.17503e-11
4.31169e-08
-0.000222203
1.62004e-08
-3.79386e-08
-0.000169688
5.80084e-10
2.35893e-11
4.35174e-08
3.23873e-11
-0.000142092
-6.74569e-10
-1.40705e-08
7.79041e-10
0.000142106
2.08668e-09
0.000169656
-1.38197e-08
0.000222117
1.9843e-09
4.41418e-08
1.52399e-08
2.21438e-09
0.000228342
-4.00627e-08
1.20783e-09
0.000169671
3.85458e-09
0.000222142
-4.0031e-08
1.33913e-08
7.84889e-05
-7.85011e-05
-1.18485e-09
-5.35212e-09
-0.000192043
-5.00091e-09
3.02565e-08
-0.000261289
1.36781e-08
-3.83568e-09
-3.62358e-08
-0.000261317
-1.97244e-09
3.73654e-08
-7.5614e-10
-7.84867e-05
-1.35864e-08
-1.35337e-08
0.000261292
3.77957e-08
-0.00026132
-1.63709e-09
-2.25546e-08
3.36481e-09
-7.84991e-05
-3.59316e-08
-2.05815e-09
1.36019e-08
0.000142093
-1.22886e-08
1.60656e-09
4.5579e-08
-0.000169657
6.48211e-10
-0.000222109
1.42235e-08
-4.0434e-08
4.6016e-08
-5.32101e-09
-4.99504e-09
3.02289e-08
-0.000192037
-0.000261283
-3.82726e-09
-3.62516e-08
-1.94881e-09
3.73802e-08
-0.000261311
1.58238e-09
4.31615e-08
5.59714e-11
-0.000228336
-0.000222104
-3.80368e-08
4.3549e-08
-0.000222134
2.35678e-08
-1.5586e-08
0.000220919
-1.17579e-08
3.36108e-08
-0.000220949
-0.000250151
1.51317e-08
-6.31e-08
2.70666e-08
-7.92127e-09
-6.91598e-09
1.28013e-08
-0.000276433
-0.000181698
-1.92339e-08
4.82476e-09
6.88363e-08
4.15124e-08
-0.00025021
-5.08974e-09
-0.000181716
1.26083e-08
-3.9213e-08
2.34771e-08
-1.56503e-08
0.000220852
-1.16917e-08
3.37409e-08
-0.000220882
-0.000250037
1.52095e-08
-6.30404e-08
2.92559e-08
-7.85841e-09
-6.90561e-09
1.03478e-08
-0.000276351
-0.000181641
-1.92225e-08
4.91546e-09
6.87054e-08
3.89196e-08
-0.000250092
-5.07722e-09
-0.00018166
1.27004e-08
-3.9254e-08
-4.59624e-09
-4.70416e-09
0.000212348
-0.000212362
-7.99056e-05
-6.18975e-09
-7.98895e-05
-6.18681e-09
-7.99153e-05
-7.98993e-05
-9.70964e-05
-9.70909e-05
1.02714e-07
-0.0002613
1.02825e-07
-0.00026165
-0.000242548
1.05906e-07
1.05666e-07
-0.00024269
-2.36296e-07
-2.3868e-07
-0.000271576
-0.000261969
-0.000261613
1.02774e-07
-0.000261662
-1.02585e-07
-0.000242533
-0.000261243
1.05708e-07
1.05727e-07
-0.000242677
-2.33521e-07
-2.41353e-07
-0.000271537
-0.000261559
-0.00026198
2.52515e-07
-0.0012155
3.1287e-09
-2.52834e-07
-0.00123712
1.39678e-08
-1.53404e-08
-0.00121497
-3.14609e-07
-1.45179e-08
1.87519e-07
1.99853e-07
-0.00119081
2.55499e-07
-3.32822e-07
-0.0012147
-8.21706e-09
2.19618e-07
8.17993e-09
-0.00121522
1.33659e-08
-0.00123665
-7.77359e-09
2.52277e-07
-0.0012148
-2.40474e-07
-0.00123634
-4.47346e-09
-0.00121489
-1.37908e-09
1.99229e-07
3.41982e-08
-2.30758e-07
-0.00119065
8.19916e-08
-0.00121438
2.49189e-07
-3.32478e-07
-0.00121477
-8.71682e-10
-0.00123599
-3.2861e-09
1.63381e-07
-0.000264476
4.40298e-09
-7.69773e-09
-0.000244334
-0.000250036
-2.99106e-09
-1.80741e-07
-1.54384e-08
-0.000265198
1.08999e-08
3.75961e-09
1.07251e-07
-0.000244403
-0.000250177
1.06739e-09
-0.000260424
-0.000264507
1.62951e-07
-4.40158e-10
4.68511e-09
1.81757e-07
0.000250054
-0.000250196
1.15188e-09
1.5776e-08
0.00026033
-0.000260448
-7.65645e-09
-8.41107e-08
-0.00026523
1.11764e-08
-2.92894e-09
-1.02528e-07
-0.000242565
-1.02396e-07
2.25976e-07
2.28304e-07
0.000261677
-1.06712e-07
-0.000261994
-1.06494e-07
0.000261327
-0.000261641
-0.000242708
3.83381e-09
-2.10565e-07
0.000266543
1.01304e-06
-0.000267341
-8.80981e-09
1.93548e-07
-1.17097e-10
-2.58172e-10
-0.000250311
-0.000266988
-6.82017e-09
0.000267592
-7.55352e-07
2.25284e-10
-0.000249285
-1.78559e-07
0.000249424
2.86387e-09
8.33205e-07
-3.33744e-09
-0.000267621
-0.00024945
-1.24437e-09
0.000267303
-9.3773e-07
-7.60789e-09
-0.000266566
1.76594e-07
4.11509e-10
3.14617e-09
0.000267324
2.06762e-07
0.000249337
-1.17045e-09
-0.000249498
-3.9282e-09
0.000266975
7.87525e-09
-0.000267623
2.18963e-09
-1.59129e-07
0.000250283
-1.18434e-10
-1.89927e-08
-0.000267352
2.95852e-09
0.000249475
0.000267579
-3.38508e-09
8.69975e-08
-0.000260413
7.73697e-09
-0.000250139
-3.03383e-09
-0.000244429
-1.54029e-08
-1.85675e-07
-0.000265287
1.87126e-08
1.09625e-07
3.75784e-09
-0.000244502
-0.000260531
-0.000250284
1.07968e-09
-0.000264598
-3.92185e-10
1.67969e-07
1.86696e-07
0.000250157
-0.000250303
1.57466e-08
0.000260437
-0.000260555
-8.65705e-08
-7.69619e-09
-0.000265318
1.59716e-07
-0.000266941
-6.47718e-09
5.08293e-10
-0.000250136
-1.6262e-09
-0.000249313
-2.05516e-07
7.04505e-09
-9.51651e-10
1.90876e-07
3.4962e-10
3.80372e-09
-0.000266509
3.65041e-09
1.79137e-07
-7.33824e-09
0.000267272
-3.45949e-09
0.000266961
2.09287e-07
0.00024926
-1.16766e-09
-1.61626e-07
1.21991e-09
0.000250259
-8.53929e-09
0.000267557
2.92082e-09
0.000249397
1.6582e-07
-0.000264483
-7.70303e-09
-0.000244368
-0.000250049
-2.98471e-09
-1.83224e-07
-1.54487e-08
-0.000265197
8.27759e-09
3.81521e-09
1.0483e-07
-0.000244434
-0.000250192
1.09041e-09
-0.000260457
-0.000264514
1.65388e-07
-4.44701e-10
1.84257e-07
0.000250067
-0.000250211
1.58035e-08
0.000260366
-4.19642e-08
-0.000260476
-7.66296e-09
-8.4199e-08
1.26378e-08
-0.000265223
2.13886e-08
1.62233e-07
-0.000266926
1.00887e-09
-0.000250112
-0.000249236
3.83505e-09
-2.08053e-07
1.93467e-07
-6.53987e-11
1.65808e-07
-0.000264485
-7.73042e-09
-0.000244331
-0.000250035
-5.40393e-09
-1.83141e-07
-1.54116e-08
2.64867e-08
-0.000265215
3.76757e-09
1.09548e-07
-0.000244404
3.51177e-09
-0.00025018
-0.000260438
1.59687e-07
-0.00026692
-4.08688e-09
1.98067e-09
-0.000250102
-7.26574e-10
-0.000249226
7.30241e-09
-2.05417e-07
-0.000267248
1.90909e-07
-7.57662e-10
3.35152e-10
-0.000250249
3.30581e-09
-0.000267555
-0.000249385
-1.24392e-06
-1.20109e-06
-0.000271007
2.00834e-07
2.08656e-07
0.000273043
4.37257e-07
-0.0011447
1.88674e-07
-1.34881e-06
2.11983e-07
-3.08313e-07
-9.68512e-07
1.6228e-07
-3.03833e-07
8.25188e-07
0.00114456
4.31471e-07
-0.00114572
1.87809e-07
-1.30595e-06
2.03899e-07
-3.00029e-07
-9.7098e-07
1.62519e-07
-3.0373e-07
8.25313e-07
0.00114559
1.23857e-06
4.42681e-07
-0.00114473
1.88653e-07
-1.34343e-06
2.09272e-07
-3.05586e-07
-9.71079e-07
1.65092e-07
-3.06436e-07
8.2787e-07
0.00114458
-1.19817e-06
-0.000270993
2.03597e-07
2.08507e-07
0.000273018
4.31538e-07
-0.00114521
-1.30848e-06
2.06672e-07
-3.05474e-07
-9.68223e-07
1.62496e-07
-3.06404e-07
8.22521e-07
0.00114508
1.98961e-07
-5.59619e-09
-5.62851e-09
-9.71288e-05
9.714e-05
-1.22123e-08
-0.000276958
-6.50181e-09
1.06875e-08
0.00027696
-1.24249e-06
-0.000271106
1.93935e-07
2.04103e-07
-1.19682e-06
0.000273147
-2.44425e-10
-2.06546e-08
0.000229221
-0.00022921
8.01845e-09
2.60785e-09
5.63439e-09
-1.04558e-08
0.000192398
-6.64487e-09
-0.000192386
-1.81445e-08
0.000229215
-0.000229207
2.56193e-09
8.00644e-09
-1.98902e-10
5.61186e-09
-1.04839e-08
0.000192378
-6.59151e-09
-0.000192367
-0.00118578
2.91958e-07
2.92568e-07
0.00118607
-0.0011854
2.92047e-07
3.04011e-07
0.00118568
-5.59875e-09
9.71503e-05
-9.71391e-05
-5.65413e-09
9.71396e-05
-9.71284e-05
0.000273155
-1.24241e-06
-1.19959e-06
-0.000271126
2.01625e-07
2.11999e-07
0.000277047
-9.74471e-09
8.06364e-09
-0.000277042
-8.76737e-09
0.000276973
-9.83871e-09
7.63926e-09
-0.000276965
-1.10891e-08
-6.07389e-09
-5.46109e-09
-9.71267e-05
9.71383e-05
1.44026e-08
3.19072e-09
9.71327e-05
-6.1249e-09
-5.44841e-09
-9.7116e-05
9.71276e-05
1.43815e-08
3.23823e-09
9.7122e-05
1.35119e-06
1.30833e-06
0.000271064
-2.81688e-07
-2.87009e-07
-9.7748e-09
-1.00746e-08
-0.000276974
7.87249e-09
0.00027698
-9.85992e-09
-1.23891e-08
-0.000276897
7.44603e-09
0.000276905
1.29792e-08
-6.95629e-09
4.80285e-08
0.000277007
1.29229e-08
-6.3596e-09
5.02218e-08
0.00027693
-1.03458e-08
-0.000192336
-6.6005e-09
0.000192347
-1.81589e-08
0.000229181
2.5833e-09
-0.000229173
8.01974e-09
-1.4024e-09
0.000251742
-0.000251626
-9.64907e-10
-1.34406e-07
1.9199e-07
0.00114483
4.44348e-07
-1.35363e-06
2.10117e-07
-3.12287e-07
-9.73736e-07
1.59752e-07
-3.08307e-07
8.23045e-07
0.000245337
-6.23371e-09
-0.000245285
-6.55801e-08
-2.72466e-08
0.0011638
5.57119e-07
-1.09523e-06
7.1488e-07
-9.20952e-07
9.00081e-07
-0.000245212
-6.31436e-08
-6.2621e-09
0.000245259
2.41666e-07
-1.35097e-06
2.15601e-07
-3.2374e-07
-9.89586e-07
1.57065e-07
-3.5127e-07
8.25704e-07
0.00114487
4.49892e-07
0.000251715
-5.14015e-10
-0.0002516
-1.34417e-07
-1.09772e-06
7.14882e-07
-9.18091e-07
9.02667e-07
0.00116375
5.6864e-07
-3.76345e-11
7.07168e-08
-2.20273e-08
2.12702e-09
0.00022917
-1.12787e-08
-0.000192347
-6.34782e-09
0.000192359
4.55601e-08
-1.05952e-08
0.000192366
-2.37085e-10
-1.96147e-08
-0.00022913
8.56775e-09
2.37315e-09
0.000229139
6.82675e-08
1.70254e-09
-2.20332e-08
0.000229133
-1.96179e-08
2.1164e-09
-0.000229093
8.5606e-09
0.000229102
5.2323e-10
-3.40898e-10
2.49222e-07
0.000251563
1.87527e-07
4.37942e-07
1.24319e-06
-3.10295e-07
2.11048e-07
8.24124e-07
-3.06064e-07
1.61023e-07
-9.71135e-07
-6.68752e-08
-0.000245203
-8.80083e-09
0.000245257
-0.00116383
5.50067e-07
-1.08647e-06
7.17905e-07
-9.14734e-07
9.02864e-07
0.00116386
-8.60464e-09
6.60157e-09
1.45525e-07
0.000245243
5.44903e-07
9.01455e-07
-9.15053e-07
-1.08949e-06
7.16382e-07
-4.91895e-09
-1.30531e-09
-0.000251502
-1.31738e-09
-1.31306e-07
0.000251617
-2.16544e-09
2.49216e-07
0.000251537
-9.10408e-10
-0.000251476
-1.31337e-07
0.000251587
0.00025173
-0.000251617
-5.36107e-10
-1.29279e-07
-1.7626e-09
1.96707e-07
0.00114585
4.44263e-07
-1.31078e-06
2.02038e-07
-3.0399e-07
-9.76169e-07
1.59983e-07
-3.08237e-07
8.25907e-07
0.000245304
-6.30574e-09
-0.000245253
-6.56381e-08
0.00116366
5.62522e-07
-1.09506e-06
7.14849e-07
-9.18124e-07
9.02632e-07
-5.74558e-09
6.82865e-08
2.05784e-10
1.8827e-09
-2.20441e-08
0.000229166
-1.13255e-08
-0.000192327
-6.28943e-09
0.000192339
4.55713e-08
-1.0558e-08
0.000192346
-2.20954e-08
-1.86835e-10
-0.000229125
2.58243e-09
8.54334e-09
0.000229136
1.79644e-09
-1.26341e-09
2.46655e-07
0.000251551
1.92184e-07
4.37864e-07
1.20035e-06
-3.01966e-07
2.02972e-07
8.26977e-07
-3.05965e-07
1.61262e-07
-9.73554e-07
-6.69788e-08
-0.00024517
-6.39273e-09
0.000245222
-0.00116369
-4.56868e-09
5.37971e-07
-1.0891e-06
7.17874e-07
-9.11923e-07
9.02643e-07
0.00116372
6.54591e-09
1.45481e-07
0.000245211
2.18793e-09
5.50239e-07
9.04026e-07
-9.15014e-07
-1.09206e-06
7.16357e-07
-1.80079e-09
-0.000251492
-6.40466e-10
-1.33873e-07
0.000251607
7.06905e-08
-2.40746e-08
1.90048e-09
0.000229128
-0.000229177
-1.35801e-08
5.53801e-09
-0.000192276
-6.31211e-09
0.000192291
4.78181e-08
-3.27804e-09
-1.05726e-08
0.000192296
-0.00019233
-1.95321e-08
-0.000229089
1.05436e-08
2.57533e-09
0.000229095
2.46676e-07
-1.45882e-09
0.000251529
-0.000251702
1.93096e-07
-1.34583e-06
4.49148e-07
8.24094e-07
-3.05995e-07
-9.73653e-07
1.61101e-07
1.23784e-06
-3.07561e-07
2.08346e-07
-0.00114487
-0.00116366
5.43939e-07
-1.08633e-06
7.17881e-07
-9.11985e-07
9.02722e-07
0.00116368
1.21298e-08
-6.93196e-08
-0.000245104
-6.32224e-09
0.000245154
5.56246e-07
9.01343e-07
-9.17855e-07
-1.09481e-06
7.16372e-07
-0.00116363
-1.53373e-08
6.55433e-09
1.47854e-07
0.000245144
-0.000245236
-0.000251468
-1.31288e-07
-4.1564e-10
0.000251578
-8.41194e-09
-9.71048e-05
9.71188e-05
1.66996e-08
9.71109e-05
-9.71309e-05
1.31088e-06
0.000271052
-2.87087e-07
-2.86799e-07
-0.000273135
-1.01021e-08
-0.000276859
7.86474e-09
0.000276865
6.09849e-09
-1.22241e-08
-1.23993e-08
-0.000276976
7.42739e-09
0.000276987
-6.95936e-09
4.80145e-08
0.000276892
-0.000276932
-1.44173e-08
1.53416e-08
-6.36719e-09
5.02939e-08
0.00027701
-0.000277055
-5.47822e-09
-9.71198e-05
9.71314e-05
3.21828e-09
9.71258e-05
-9.71434e-05
-6.82301e-08
2.49284e-07
-1.23116e-09
0.000251552
1.23608e-09
2.03497e-07
4.37934e-07
1.20018e-06
-3.04671e-07
2.05732e-07
8.24178e-07
-3.08644e-07
-9.7085e-07
1.63926e-07
-0.00114535
1.13646e-08
-6.93929e-08
-0.000245202
-6.32167e-09
0.000245254
5.50073e-07
8.95704e-07
-9.12216e-07
-1.08376e-06
7.10746e-07
0.00116347
2.07271e-08
-4.5531e-08
6.60036e-09
1.45397e-07
0.000245245
-0.000245336
1.9158e-09
-2.19711e-08
0.000229165
1.61686e-10
-0.00019233
-6.28803e-09
0.000192342
-1.05248e-08
0.00019235
-0.000192382
1.70333e-08
3.15237e-09
-4.8497e-08
0.000221529
7.16538e-08
-2.19278e-11
8.48942e-08
-6.03281e-09
8.564e-08
1.52239e-08
1.03562e-08
-0.00025108
-3.60525e-08
-9.31966e-09
0.000251109
-0.000181941
-6.89388e-09
6.3812e-09
0.000181952
-6.03342e-09
1.69522e-08
-2.69645e-08
0.000221543
2.65702e-07
6.74747e-08
-4.95654e-09
-7.20006e-09
0.000212743
-7.55864e-08
-7.99793e-05
-3.01682e-09
7.99887e-05
-7.99826e-05
-4.60509e-09
-4.90115e-09
7.99921e-05
-8.05045e-10
-6.69909e-09
0.000212759
-2.0863e-08
1.64668e-08
1.1997e-08
0.000221569
5.24114e-09
0.000181971
-2.74667e-09
2.28891e-08
0.000142365
1.73817e-09
-2.23905e-08
1.90008e-09
-2.80819e-10
7.16895e-08
-0.000169979
1.28934e-09
-3.92902e-11
0.000169986
-0.000222903
7.4851e-09
4.76392e-09
0.000222918
-2.45788e-08
-4.03168e-11
2.67781e-09
7.26028e-08
1.30717e-09
0.000142372
1.93391e-08
7.859e-05
-0.000261966
9.88097e-09
0.000261979
-2.53602e-08
-1.07758e-08
-3.11143e-09
4.61074e-08
5.79709e-08
7.86012e-05
2.29245e-08
-2.54565e-09
0.000142363
1.65834e-09
1.42861e-09
-2.24084e-08
6.92481e-08
5.55106e-11
-0.000222902
7.46151e-09
4.64682e-09
0.000222912
-1.95806e-08
-0.000169975
1.23519e-09
0.000169982
1.10886e-11
2.64449e-09
6.77315e-08
3.32554e-11
1.22685e-09
0.00014237
1.92542e-08
7.85897e-05
-0.000261963
9.95861e-09
0.000261974
-2.31083e-08
-1.07342e-08
-3.16247e-09
4.61174e-08
5.54914e-08
7.86009e-05
1.47024e-08
1.46717e-08
-8.77451e-09
-8.81457e-09
0.000212761
2.22324e-08
2.00681e-08
-7.99928e-05
-2.94297e-09
-4.79577e-09
8.00005e-05
-7.99751e-05
-2.87041e-09
-4.83277e-09
7.99828e-05
6.08329e-09
6.00936e-09
-3.73293e-09
-1.83942e-09
0.000212761
-2.8089e-08
0.000221577
3.86433e-08
5.87528e-08
-0.000181986
-6.32408e-09
0.000181996
-6.89737e-09
4.88663e-08
1.30617e-08
2.724e-09
-0.000251201
0.000251232
-3.76743e-08
-4.51236e-09
0.000221591
-2.10521e-08
1.08045e-07
5.72206e-08
-3.0042e-08
0.000221507
3.84766e-08
6.10262e-08
-0.000181925
-8.21231e-09
0.000181936
-6.29802e-09
5.10429e-08
1.29996e-08
2.84244e-09
-0.000251089
0.000251115
-3.75078e-08
-2.23376e-09
0.000221523
-2.32762e-08
1.07813e-07
5.45697e-08
-9.71441e-05
1.41085e-08
3.25746e-09
-5.84256e-09
-5.54e-09
-9.71334e-05
1.40965e-08
3.30335e-09
-5.89319e-09
-5.5247e-09
-0.000212737
3.05762e-09
2.98308e-09
-4.04959e-09
-2.1523e-09
0.000212737
8.63511e-09
7.99858e-05
6.03537e-09
8.67262e-09
7.99681e-05
5.9608e-09
2.18484e-08
1.96861e-08
-4.81903e-09
7.99937e-05
-4.85543e-09
7.9976e-05
-2.69868e-08
3.76913e-08
0.000221513
-0.000221559
-2.14651e-08
5.67677e-08
-0.00025111
3.53181e-09
-3.98785e-08
-5.36628e-09
0.000251141
-7.00698e-09
4.7211e-08
-0.000277013
1.28858e-08
-0.000181949
-7.18495e-09
4.84692e-09
0.00018196
-0.000181977
-5.98697e-09
-0.000251186
1.05189e-07
5.61177e-08
4.36251e-09
-2.25672e-08
0.000221527
-2.89334e-08
3.75162e-08
0.000221443
-0.000221491
-1.93032e-08
5.90445e-08
-0.000250998
3.66575e-09
-3.97314e-08
-3.08423e-09
0.000251024
-6.41191e-09
4.9408e-08
-0.000276938
1.28359e-08
-0.000181888
-9.08428e-09
4.88391e-09
0.0001819
-0.000181917
-5.9092e-09
-0.000251069
1.04955e-07
5.34464e-08
2.46453e-09
-2.47862e-08
0.00022146
-0.000221545
6.75457e-09
-3.12286e-09
-2.18162e-08
2.75398e-08
0.000181967
-3.81677e-08
0.000251155
1.06594e-07
5.66858e-08
7.96282e-09
-9.43009e-09
-9.7514e-09
5.77597e-08
-3.87915e-08
-4.935e-09
-0.000221474
8.64894e-09
-3.25158e-09
-2.40411e-08
2.94892e-08
0.000181906
-3.79993e-08
0.000251043
1.06371e-07
5.40034e-08
7.53675e-09
-1.17436e-08
-9.8418e-09
6.00326e-08
-3.86403e-08
-2.65731e-09
-8.49451e-09
-8.53042e-09
0.000212713
-7.99792e-05
-3.17286e-09
7.99872e-05
-7.99615e-05
-3.09235e-09
7.99695e-05
0.000212714
1.93118e-08
7.85443e-05
-1.74127e-09
-1.07799e-08
4.80865e-08
-0.000261847
9.85534e-09
-4.70395e-09
-2.29274e-08
0.000261858
-2.69292e-09
5.55424e-08
-1.28702e-09
7.85554e-05
-2.73708e-09
2.28646e-08
0.000142295
-0.000222815
7.49252e-09
0.000222825
-1.96486e-08
-2.23929e-08
1.47142e-09
6.92303e-08
-0.000169945
1.26568e-09
0.000169952
6.76429e-08
0.000142302
-0.000142351
-1.46425e-09
-7.70867e-09
1.31365e-09
0.000142358
2.74983e-09
0.000169961
-1.79434e-11
-2.25783e-08
0.000222868
2.66527e-09
7.17662e-08
8.30142e-09
2.83294e-09
0.00022918
-6.77649e-11
-2.14011e-08
1.73923e-09
0.000169968
-2.70044e-11
4.75614e-09
0.000222884
-2.52104e-08
1.89752e-08
7.85779e-05
-7.85951e-05
-1.74853e-09
-1.04355e-08
-0.000192378
4.50181e-08
-0.000261902
1.00955e-08
-4.75491e-09
-2.62703e-08
0.000261916
-0.000261947
-2.66778e-09
5.67125e-08
-1.3293e-09
7.85893e-05
-7.85838e-05
-9.99168e-09
-1.91524e-08
0.000261933
5.7344e-08
-6.48613e-09
-1.08611e-08
-2.58184e-08
-2.76029e-09
2.22757e-08
0.000142337
-2.16605e-08
2.13341e-09
-2.01612e-10
6.97579e-08
-0.000169944
1.31343e-09
-4.51461e-11
0.000169951
-0.000222835
7.94749e-09
-2.33957e-08
0.000222848
-3.37709e-11
7.08623e-08
0.000142345
-0.000142281
-1.2685e-09
-7.71806e-09
0.000142288
1.29125e-09
-2.25447e-08
0.00022278
6.68087e-08
2.69965e-09
2.73933e-09
0.000169927
8.29298e-09
2.57827e-09
0.000229141
-1.88933e-08
1.75322e-09
0.000169934
0.00022279
-2.0286e-08
4.69374e-09
-2.74412e-09
2.22311e-08
0.000142267
1.75866e-09
-0.000222743
7.95765e-09
-2.09438e-08
0.000222753
4.66636e-09
-2.16646e-08
1.69306e-09
6.73061e-08
-0.00016991
1.09858e-09
0.000169917
6.83047e-08
2.65499e-09
0.000142275
1.29246e-09
-0.000142348
-7.68064e-09
-1.41011e-09
1.23448e-09