/*--------------------------------*- C++ -*----------------------------------*\
| =========                 |                                                 |
| \\      /  F ield         | OpenFOAM: The Open Source CFD Toolbox           |
|  \\    /   O peration     | Version:  v2006                                 |
|   \\  /    A nd           | Website:  www.openfoam.com                      |
|    \\/     M anipulation  |                                                 |
\*---------------------------------------------------------------------------*/
FoamFile
{
    version     2.0;
    format      ascii;
    class       volVectorField;
    location    "750";
    object      U;
}
// * * * * * * * * * * * * * * * * * * * * * * * * * * * * * * * * * * * * * //

dimensions      [0 1 -1 0 0 0 0];


internalField   nonuniform List<vector> 
14310
(
(7.24798e-05 7.24476e-05 0.105368)
(2.74506e-05 4.2915e-05 0.108771)
(4.28162e-05 2.73698e-05 0.108772)
(-1.46911e-06 9.63194e-06 0.0817031)
(-7.73691e-07 1.23124e-05 0.0913409)
(9.62497e-06 -1.4637e-06 0.0817037)
(1.23106e-05 -7.69979e-07 0.0913409)
(3.0115e-06 3.78723e-06 0.0709014)
(3.78585e-06 3.04375e-06 0.0709011)
(5.75712e-06 8.37468e-06 0.0871845)
(8.35252e-06 5.74757e-06 0.0871822)
(7.70309e-07 1.23151e-05 0.0913413)
(4.03892e-06 2.3736e-05 0.0929537)
(1.03002e-05 5.50659e-05 0.110992)
(-5.96724e-08 3.02824e-05 0.0991407)
(-1.02412e-05 5.50771e-05 0.110992)
(6.70881e-08 3.02752e-05 0.0991411)
(2.37577e-05 4.00813e-06 0.0929539)
(5.50273e-05 1.02511e-05 0.110992)
(3.02965e-05 -7.0856e-08 0.0991408)
(1.22845e-05 7.81739e-07 0.0913403)
(5.50506e-05 -1.02939e-05 0.110992)
(3.0296e-05 7.29306e-08 0.0991408)
(-3.62534e-07 -2.57152e-06 0.0678609)
(-1.8798e-06 8.30778e-06 0.0854065)
(-3.46372e-06 -5.58747e-06 0.0817453)
(-1.9714e-06 4.20214e-06 0.0678132)
(-2.61747e-06 -5.04099e-06 0.0854528)
(-2.99817e-07 -1.9633e-06 0.0763676)
(-7.81079e-07 -3.8623e-06 0.0913753)
(-9.76156e-07 5.43737e-06 0.0781492)
(-8.98002e-07 1.2008e-05 0.0897123)
(-1.71559e-06 6.0563e-06 0.0763347)
(-7.22212e-07 -2.34232e-06 0.0781763)
(-1.07167e-06 -3.9831e-06 0.0897527)
(-2.57546e-06 -3.07453e-07 0.0678608)
(8.28272e-06 -1.85361e-06 0.085407)
(-5.61095e-06 -3.45851e-06 0.0817455)
(4.19254e-06 -1.91724e-06 0.0678134)
(-5.08058e-06 -2.591e-06 0.0854524)
(-1.94553e-06 -2.63763e-07 0.0763677)
(-3.87365e-06 -7.8523e-07 0.0913751)
(1.20181e-05 -8.68137e-07 0.0897126)
(5.44548e-06 -9.64205e-07 0.0781491)
(6.07084e-06 -1.68176e-06 0.0763349)
(-3.98942e-06 -1.0455e-06 0.0897523)
(-2.32968e-06 -7.06692e-07 0.0781765)
(-1.31363e-06 -2.99245e-06 0.0709439)
(-3.00312e-06 -1.29788e-06 0.0709433)
(-2.23645e-07 -4.59217e-06 0.0915803)
(1.78055e-05 2.53419e-05 0.0964746)
(2.14427e-06 7.48552e-06 0.0810892)
(-2.98406e-06 7.87774e-09 0.0872219)
(8.54839e-06 1.50937e-05 0.091543)
(-2.26645e-06 -2.24425e-07 0.0811237)
(2.26516e-06 -2.66913e-06 0.0965215)
(-4.57193e-06 -3.02422e-07 0.0915734)
(2.52867e-05 1.77863e-05 0.0964713)
(7.49497e-06 2.09281e-06 0.081083)
(-2.90939e-08 -3.01206e-06 0.0872201)
(1.50631e-05 8.47088e-06 0.0915354)
(-1.85795e-07 -2.28731e-06 0.0811184)
(-2.66343e-06 2.27104e-06 0.0965184)
(-6.21252e-07 -6.42054e-07 0.083263)
(2.68774e-06 2.06507e-06 0.0678538)
(2.08646e-06 2.66959e-06 0.0678476)
(5.62687e-06 5.62196e-06 0.0832328)
(-1.7371e-06 -1.32798e-06 0.0678894)
(-1.29865e-06 -1.74911e-06 0.0678834)
(3.45772e-07 -2.57598e-06 0.0678625)
(1.84377e-06 8.32192e-06 0.0854079)
(1.96114e-06 4.17443e-06 0.0678153)
(2.57588e-06 -5.0347e-06 0.0854533)
(2.85961e-07 -1.95285e-06 0.0763673)
(8.84396e-07 1.20132e-05 0.0897131)
(7.82073e-07 -3.87033e-06 0.0913752)
(9.64335e-07 5.43768e-06 0.0781493)
(7.09206e-07 -2.34111e-06 0.0781764)
(1.70455e-06 6.05469e-06 0.0763347)
(1.06389e-06 -3.99511e-06 0.0897524)
(-2.57194e-06 3.4958e-07 0.0678629)
(4.19681e-06 1.96647e-06 0.0678145)
(-5.05004e-06 2.61905e-06 0.0854535)
(-1.92065e-06 2.74392e-07 0.0763683)
(-3.83816e-06 7.75666e-07 0.0913756)
(5.39113e-06 9.86187e-07 0.0781478)
(1.19803e-05 8.93054e-07 0.0897115)
(-2.28874e-06 7.26148e-07 0.0781772)
(5.99333e-06 1.71565e-06 0.0763327)
(-3.95841e-06 1.06253e-06 0.0897532)
(-4.1691e-06 -4.18593e-06 0.0978993)
(6.57387e-05 2.96643e-05 0.102161)
(2.96462e-05 6.56397e-05 0.102159)
(-3.69658e-05 -3.69472e-05 0.105556)
(2.2587e-05 2.2565e-05 0.0978358)
(-3.68148e-05 3.61894e-07 0.102258)
(3.69363e-07 -3.68217e-05 0.102255)
(-6.37408e-06 -4.05319e-05 0.102301)
(-1.91462e-06 2.44026e-05 0.0958258)
(-8.94468e-06 8.36747e-05 0.102149)
(8.14099e-07 -3.90514e-06 0.0959018)
(6.38069e-06 -4.0531e-05 0.1023)
(1.27234e-05 7.67943e-05 0.100043)
(1.94914e-06 2.44393e-05 0.0958246)
(-3.7951e-06 2.59551e-07 0.0930112)
(-7.87606e-07 -3.88908e-06 0.0959011)
(8.90683e-06 8.36905e-05 0.102148)
(5.27079e-06 -3.66797e-05 0.100122)
(5.8014e-06 -3.48067e-05 0.104007)
(-1.49097e-07 8.60775e-07 0.0992061)
(1.2843e-06 2.95009e-05 0.0980097)
(1.2796e-06 9.16055e-05 0.104628)
(5.60648e-07 -1.35123e-07 0.0980862)
(5.49031e-06 8.92912e-05 0.103833)
(2.01018e-06 -3.19733e-05 0.10477)
(-5.79353e-06 -3.47957e-05 0.104007)
(-1.263e-06 2.95057e-05 0.0980106)
(1.42431e-07 8.49187e-07 0.0992062)
(-1.27462e-06 9.16096e-05 0.104628)
(-5.50216e-06 8.93049e-05 0.103833)
(-5.40329e-07 -1.51415e-07 0.0980864)
(-2.01463e-06 -3.19697e-05 0.10477)
(-4.05918e-05 6.34303e-06 0.1023)
(7.67497e-05 1.26783e-05 0.100042)
(2.43969e-05 1.9444e-06 0.0958251)
(2.76853e-07 -3.83806e-06 0.0930109)
(-3.98061e-06 -7.97707e-07 0.095901)
(8.36339e-05 8.84942e-06 0.102148)
(-3.6716e-05 5.22286e-06 0.100121)
(-3.47697e-05 5.83882e-06 0.104007)
(8.66433e-07 -1.47292e-07 0.0992056)
(2.95184e-05 1.2979e-06 0.0980099)
(9.16117e-05 1.25337e-06 0.104627)
(-1.11691e-07 5.7127e-07 0.0980859)
(8.93147e-05 5.48849e-06 0.103832)
(-3.19651e-05 1.98018e-06 0.10477)
(-4.05337e-05 -6.38056e-06 0.1023)
(-3.90461e-06 8.00036e-07 0.0959016)
(-3.48179e-05 -5.81864e-06 0.104007)
(8.8908e-07 1.58294e-07 0.0992057)
(9.16236e-05 -1.28509e-06 0.104627)
(2.95013e-05 -1.28237e-06 0.0980098)
(8.92852e-05 -5.48551e-06 0.103833)
(-3.19568e-05 -2.02073e-06 0.104769)
(-1.28918e-07 -5.63547e-07 0.0980862)
(1.33008e-06 -3.31092e-06 0.0677593)
(-1.99333e-07 3.00474e-06 0.0678059)
(1.24972e-06 -4.13739e-06 0.0762172)
(4.75428e-07 3.74354e-06 0.0780361)
(7.25752e-07 -3.5409e-06 0.0780079)
(-9.85517e-08 3.3776e-06 0.0762503)
(-4.83081e-07 3.67091e-06 0.0780369)
(-1.36241e-06 -3.22416e-06 0.0677534)
(2.48439e-07 2.93232e-06 0.0678057)
(-1.26624e-06 -4.02403e-06 0.0762136)
(-4.70602e-07 3.7046e-06 0.078037)
(-7.30836e-07 -3.48093e-06 0.0780062)
(1.10654e-07 3.2925e-06 0.0762528)
(-8.30209e-08 3.34013e-06 0.0762496)
(4.85161e-07 3.70884e-06 0.0780359)
(-1.80759e-07 2.99215e-06 0.0678041)
(-1.05176e-05 1.74298e-05 0.10828)
(4.30355e-05 -4.30223e-05 0.104894)
(-1.73868e-05 1.04682e-05 0.108282)
(-1.7424e-05 -1.04955e-05 0.10828)
(-1.04524e-05 -1.73319e-05 0.108281)
(4.30147e-05 4.30294e-05 0.104893)
(-2.45101e-05 2.45327e-05 0.113146)
(-2.45179e-05 -2.44849e-05 0.113146)
(1.83503e-06 -7.45813e-06 0.081609)
(-1.13526e-09 6.50413e-06 0.0815651)
(-1.08721e-05 1.80299e-05 0.108294)
(3.43088e-07 -4.44286e-05 0.099603)
(-2.92616e-06 1.45452e-05 0.0926153)
(5.32507e-07 -3.83457e-06 0.0709114)
(-3.46126e-06 2.30002e-06 0.0708635)
(-4.88874e-05 4.88503e-05 0.104748)
(3.19291e-06 -4.05363e-06 0.0870203)
(4.10646e-06 -3.24194e-06 0.0870201)
(-4.75912e-06 3.75513e-06 0.0869814)
(-3.78704e-06 4.77095e-06 0.0869843)
(3.90965e-06 -5.87114e-07 0.0709093)
(-2.37391e-06 3.51226e-06 0.0708658)
(9.14787e-06 3.28789e-07 0.0986129)
(8.34989e-06 6.09431e-07 0.0910233)
(-1.70238e-05 -2.98963e-07 0.0985417)
(-1.7987e-05 1.0835e-05 0.108296)
(4.82486e-05 1.53591e-06 0.101662)
(-2.58009e-05 3.64235e-06 0.11084)
(-1.45533e-05 2.94312e-06 0.0926165)
(-2.65175e-05 3.79484e-06 0.11085)
(4.55087e-05 2.48016e-06 0.103339)
(-6.09908e-06 -6.03664e-07 0.0909843)
(7.50525e-06 -1.85848e-06 0.0816086)
(-6.52082e-06 2.3404e-08 0.081566)
(8.53096e-06 -5.73546e-07 0.0910132)
(-1.70401e-05 2.89732e-07 0.0985415)
(-1.80215e-05 -1.08501e-05 0.108294)
(-2.58067e-05 -3.67145e-06 0.11084)
(4.44481e-05 3.46711e-07 0.0996042)
(-2.65226e-05 -3.81684e-06 0.11085)
(-1.45369e-05 -2.95504e-06 0.092616)
(4.55226e-05 -2.50729e-06 0.103339)
(-6.10123e-06 6.05132e-07 0.0909843)
(7.50839e-06 1.84976e-06 0.0816085)
(-6.54238e-06 -2.03576e-08 0.0815662)
(8.52704e-06 5.96299e-07 0.0910131)
(-3.64052e-06 -2.58072e-05 0.11084)
(3.37313e-07 4.44827e-05 0.0996037)
(-2.46128e-06 4.5512e-05 0.103339)
(1.84686e-06 7.52335e-06 0.081609)
(5.94204e-07 8.52481e-06 0.0910134)
(4.10703e-06 3.24155e-06 0.0870206)
(3.27037e-06 4.10785e-06 0.0870189)
(3.91512e-06 6.06032e-07 0.0709097)
(6.23101e-07 3.9063e-06 0.0709097)
(1.32116e-06 3.31079e-06 0.0677589)
(-2.96394e-08 6.44138e-06 0.0815655)
(1.85963e-06 -7.40115e-06 0.0852582)
(1.2076e-06 4.83174e-06 0.0852132)
(-2.04757e-07 -3.00302e-06 0.0678055)
(-1.83156e-07 -2.98973e-06 0.0678037)
(1.22435e-06 4.90148e-06 0.0852142)
(1.86686e-06 -7.42216e-06 0.0816086)
(1.34281e-06 3.33462e-06 0.0677571)
(1.87976e-06 -7.35684e-06 0.0852591)
(-3.4574e-06 2.27715e-06 0.0708659)
(5.35704e-07 -3.823e-06 0.0709091)
(3.24949e-06 -3.25741e-06 0.0830953)
(-1.94709e-06 1.38881e-06 0.0677682)
(-1.40361e-06 1.9463e-06 0.0677744)
(-2.51613e-06 2.50181e-06 0.0830641)
(2.09843e-06 -1.79398e-06 0.0678045)
(1.78725e-06 -2.11782e-06 0.0678101)
(-4.10556e-06 7.34893e-06 0.0912534)
(3.64698e-06 -1.19541e-05 0.0961083)
(-4.72501e-06 3.65541e-06 0.0869803)
(1.80313e-06 -3.75532e-06 0.0809847)
(-1.04255e-05 1.30355e-05 0.0960627)
(-2.25675e-06 3.32938e-06 0.0809478)
(3.91955e-06 -1.01274e-05 0.0912913)
(-7.39434e-06 4.07623e-06 0.091261)
(1.19715e-05 -3.69374e-06 0.0961107)
(-3.69079e-06 4.73628e-06 0.0869833)
(3.79671e-06 -1.84596e-06 0.0809884)
(-3.39052e-06 2.26506e-06 0.0809541)
(-1.30482e-05 1.04024e-05 0.0960664)
(1.01479e-05 -3.94843e-06 0.0912977)
(3.84046e-06 -1.00358e-05 0.0912945)
(-2.25938e-06 3.41439e-06 0.0809476)
(-1.06e-05 1.32726e-05 0.0960689)
(3.18069e-06 -3.97024e-06 0.0870214)
(3.50355e-06 -1.17868e-05 0.0961145)
(-4.20014e-06 7.49046e-06 0.0912566)
(1.81432e-06 -3.69159e-06 0.0809844)
(1.00586e-05 -3.86735e-06 0.0913009)
(-3.4748e-06 2.26551e-06 0.0809538)
(-1.32816e-05 1.05796e-05 0.0960726)
(4.02044e-06 -3.22546e-06 0.0870211)
(-7.53211e-06 4.1729e-06 0.0912642)
(3.72628e-06 -1.85267e-06 0.0809882)
(1.18046e-05 -3.54529e-06 0.096117)
(-2.45727e-06 2.4407e-06 0.0830635)
(2.10155e-06 -1.80447e-06 0.0678055)
(1.79822e-06 -2.12291e-06 0.0678111)
(-1.93339e-06 1.37332e-06 0.0677692)
(-1.3869e-06 1.93265e-06 0.0677754)
(3.29707e-06 -3.30654e-06 0.0830947)
(-2.35136e-06 3.50661e-06 0.0708682)
(3.89852e-06 -5.88821e-07 0.070907)
(-4.24201e-06 1.30089e-06 0.0762161)
(-6.23926e-06 6.12832e-07 0.0909894)
(3.6704e-06 5.11825e-07 0.0780358)
(8.00624e-06 8.92568e-07 0.08946)
(-3.63885e-06 7.63123e-07 0.0780083)
(-6.5347e-06 7.54191e-07 0.0894209)
(3.29312e-06 -5.17285e-08 0.076249)
(3.28388e-06 8.99748e-08 0.0762509)
(-6.37787e-06 -7.55367e-07 0.0894166)
(-3.57875e-06 -7.30981e-07 0.0780079)
(8.44279e-06 -5.77768e-07 0.0910182)
(-4.13355e-06 -1.26691e-06 0.076215)
(8.06492e-06 -8.69212e-07 0.0894569)
(3.70569e-06 -4.75014e-07 0.0780358)
(-3.2197e-06 -1.3456e-06 0.0677543)
(-6.45802e-06 5.26203e-08 0.0815664)
(7.36974e-06 -1.84711e-06 0.0852586)
(-4.78245e-06 -1.21404e-06 0.0852117)
(2.93239e-06 2.6212e-07 0.0678055)
(2.91886e-06 2.3891e-07 0.0678037)
(-4.85368e-06 -1.23148e-06 0.0852126)
(7.46923e-06 -1.89226e-06 0.0816082)
(-3.24392e-06 -1.36752e-06 0.0677524)
(7.32521e-06 -1.86934e-06 0.0852596)
(-4.08433e-06 -1.24658e-06 0.0762156)
(-5.97298e-06 -6.01079e-07 0.0909795)
(8.14639e-06 -8.64814e-07 0.0894535)
(3.74152e-06 -4.63075e-07 0.078036)
(-6.25901e-06 -7.5432e-07 0.0894132)
(-3.53181e-06 -7.18872e-07 0.078008)
(3.32191e-06 1.11266e-07 0.0762516)
(3.33061e-06 -6.5707e-08 0.0762495)
(-3.59008e-06 7.52064e-07 0.0780082)
(-6.40997e-06 7.509e-07 0.0894172)
(8.43878e-06 6.01261e-07 0.0910181)
(-4.19273e-06 1.2846e-06 0.0762165)
(3.70562e-06 5.01188e-07 0.0780358)
(8.09148e-06 8.89337e-07 0.0894564)
(-3.31241e-06 1.33741e-06 0.0677591)
(-6.48251e-06 -4.64678e-08 0.0815666)
(7.39749e-06 1.86825e-06 0.0852582)
(-4.83712e-06 1.20629e-06 0.0852134)
(3.00127e-06 -1.91867e-07 0.0678056)
(2.98741e-06 -1.72125e-07 0.0678038)
(-4.90642e-06 1.22047e-06 0.0852143)
(7.47531e-06 1.87891e-06 0.0816081)
(-3.33675e-06 1.35838e-06 0.0677572)
(7.35392e-06 1.88522e-06 0.0852591)
(-4.14278e-06 1.26775e-06 0.0762172)
(-5.9771e-06 5.98616e-07 0.0909795)
(3.74173e-06 4.9252e-07 0.0780359)
(8.17285e-06 8.87057e-07 0.0894529)
(-3.54156e-06 7.42168e-07 0.0780083)
(-6.29351e-06 7.50351e-07 0.0894139)
(3.36921e-06 -8.12043e-08 0.0762501)
(-5.35801e-08 -6.46412e-06 0.0815671)
(1.86417e-06 7.40897e-06 0.0852586)
(1.20019e-06 -4.83183e-06 0.0852138)
(5.78897e-07 -5.9866e-06 0.0909792)
(8.83416e-07 8.19176e-06 0.0894531)
(7.36618e-07 -6.28153e-06 0.089414)
(-7.34679e-06 -4.09447e-06 0.09126)
(1.1974e-05 3.657e-06 0.0961109)
(-3.69488e-06 -4.74212e-06 0.0869822)
(3.7817e-06 1.80962e-06 0.0809894)
(-1.30465e-05 -1.03985e-05 0.0960657)
(-3.33323e-06 -2.25399e-06 0.0809525)
(1.01318e-05 3.8867e-06 0.0912983)
(-4.05464e-06 -7.36195e-06 0.0912534)
(3.70818e-06 1.19691e-05 0.0961077)
(-4.72454e-06 -3.68933e-06 0.0869812)
(1.84237e-06 3.76859e-06 0.0809838)
(-1.03744e-05 -1.30149e-05 0.0960632)
(-2.24037e-06 -3.37519e-06 0.080948)
(3.93511e-06 1.01245e-05 0.091291)
(-2.4193e-06 -2.44571e-06 0.0830624)
(1.79244e-06 2.09161e-06 0.0678117)
(2.12889e-06 1.79692e-06 0.0678049)
(-1.35127e-06 -1.91032e-06 0.0677733)
(-1.91391e-06 -1.40053e-06 0.067768)
(3.29332e-06 3.28508e-06 0.0830952)
(-2.36254e-06 -3.4922e-06 0.0708679)
(-3.48403e-06 -2.35829e-06 0.0708683)
(1.16829e-05 -4.22742e-05 0.101715)
(4.22463e-05 -1.16689e-05 0.101712)
(1.24946e-05 -1.24886e-05 0.0974698)
(-1.12701e-05 1.12138e-05 0.0974126)
(-4.8391e-05 4.8348e-05 0.104734)
(-4.57051e-05 1.44058e-05 0.101629)
(-1.44577e-05 4.56871e-05 0.101633)
(4.22542e-05 1.16746e-05 0.101712)
(1.24788e-05 1.24625e-05 0.0974696)
(1.1667e-05 4.22552e-05 0.101715)
(-1.12134e-05 -1.12555e-05 0.0974126)
(-4.83688e-05 -4.839e-05 0.104734)
(-1.44212e-05 -4.57288e-05 0.101633)
(-4.56525e-05 -1.4409e-05 0.10163)
(-3.34714e-05 1.12915e-05 0.115031)
(-1.27802e-05 1.28354e-05 0.116393)
(-1.12594e-05 3.35144e-05 0.11503)
(-2.50036e-05 2.50293e-05 0.113141)
(-1.14102e-05 3.39626e-05 0.115004)
(-3.39369e-05 1.14315e-05 0.115005)
(-1.28911e-05 1.29149e-05 0.116345)
(-3.3475e-05 -1.12655e-05 0.11503)
(-1.2787e-05 -1.27894e-05 0.116393)
(-1.12634e-05 -3.34693e-05 0.115031)
(-2.50196e-05 -2.49824e-05 0.11314)
(-3.39462e-05 -1.14235e-05 0.115004)
(-1.14216e-05 -3.39271e-05 0.115005)
(-1.2903e-05 -1.28897e-05 0.116345)
(-1.56919e-06 -4.8233e-05 0.10166)
(4.08013e-06 -7.24473e-06 0.0926657)
(1.82798e-06 -1.13501e-05 0.0954429)
(-4.31913e-06 5.82828e-05 0.101527)
(-2.89587e-06 1.43302e-05 0.092611)
(-5.22005e-07 1.45695e-05 0.0953735)
(-6.6873e-06 5.45535e-05 0.0995323)
(-1.69267e-06 -4.80761e-05 0.101672)
(-5.56995e-07 1.47982e-05 0.0953805)
(-6.83589e-06 5.5029e-05 0.0995412)
(4.06922e-06 -7.07018e-06 0.09267)
(-4.44061e-06 5.8826e-05 0.101539)
(1.80272e-06 -1.11761e-05 0.0954501)
(2.02754e-07 -4.42739e-05 0.0996121)
(1.2353e-05 -1.2339e-05 0.0974769)
(4.2942e-05 -4.292e-05 0.104909)
(-4.61104e-05 1.46988e-05 0.10164)
(-1.4746e-05 4.60996e-05 0.101643)
(4.21674e-05 -1.14489e-05 0.101723)
(-1.14792e-05 1.14299e-05 0.0974195)
(1.1468e-05 -4.21883e-05 0.101726)
(-6.07259e-05 -2.58991e-06 0.10321)
(-1.73589e-05 2.8999e-07 0.0985527)
(4.32572e-05 -8.46514e-07 0.104088)
(9.46218e-06 3.74134e-07 0.0975568)
(-6.12139e-05 -3.16538e-07 0.103961)
(-1.74862e-05 -1.7707e-07 0.097487)
(4.50788e-05 -2.66055e-06 0.103366)
(4.52954e-05 2.56279e-06 0.103353)
(-1.71497e-05 1.54924e-07 0.0974776)
(-6.0502e-05 2.88432e-07 0.103947)
(9.41023e-06 -3.17292e-07 0.0986016)
(-6.00644e-05 2.48579e-06 0.103197)
(9.68402e-06 -3.93826e-07 0.0975473)
(4.35263e-05 8.13206e-07 0.104074)
(4.44505e-05 -3.80112e-07 0.0996049)
(1.13453e-05 -1.84557e-06 0.0954435)
(7.29003e-06 -4.1157e-06 0.092666)
(-5.82536e-05 4.29629e-06 0.101528)
(-1.43403e-05 2.90954e-06 0.0926122)
(-5.45318e-05 6.70011e-06 0.0995344)
(-1.45437e-05 5.28665e-07 0.0953734)
(4.80946e-05 1.6611e-06 0.101674)
(-1.47749e-05 5.65808e-07 0.0953804)
(-5.50051e-05 6.85706e-06 0.0995433)
(7.11498e-06 -4.10378e-06 0.0926704)
(-5.87969e-05 4.41369e-06 0.10154)
(4.42987e-05 -2.38752e-07 0.0996141)
(1.11757e-05 -1.81887e-06 0.0954507)
(4.37565e-05 7.81716e-07 0.104059)
(9.63301e-06 -3.25868e-07 0.0985906)
(9.90442e-06 -4.2229e-07 0.0975379)
(-5.9433e-05 2.40421e-06 0.103185)
(-1.67194e-05 -3.04727e-07 0.098531)
(-1.68689e-05 1.2586e-07 0.0974684)
(-5.98293e-05 2.49235e-07 0.103933)
(4.53078e-05 -2.5816e-06 0.103352)
(-6.05254e-05 -2.88614e-07 0.103947)
(-1.71775e-05 -1.52786e-07 0.0974775)
(9.39361e-06 3.28261e-07 0.0986016)
(-6.0074e-05 -2.51717e-06 0.103197)
(4.35095e-05 -8.13245e-07 0.104074)
(9.69559e-06 3.9017e-07 0.0975472)
(4.82219e-05 -1.56898e-06 0.10166)
(7.30244e-06 4.09235e-06 0.0926658)
(1.13401e-05 1.82265e-06 0.0954432)
(-5.8298e-05 -4.33609e-06 0.101528)
(-1.43182e-05 -2.9235e-06 0.0926118)
(-1.45647e-05 -5.37014e-07 0.0953737)
(-5.45423e-05 -6.69316e-06 0.0995337)
(4.80597e-05 -1.68933e-06 0.101673)
(-1.47997e-05 -5.71139e-07 0.0953807)
(-5.50248e-05 -6.84396e-06 0.0995426)
(7.13487e-06 4.07897e-06 0.0926701)
(-5.88502e-05 -4.4509e-06 0.101539)
(1.11669e-05 1.79745e-06 0.0954503)
(4.42912e-05 2.09602e-07 0.0996133)
(4.3743e-05 -7.91186e-07 0.104059)
(9.62122e-06 3.31539e-07 0.0985905)
(9.9131e-06 4.12314e-07 0.0975377)
(-5.94369e-05 -2.44403e-06 0.103185)
(-1.67335e-05 2.91696e-07 0.0985309)
(-5.98484e-05 -2.64806e-07 0.103933)
(-1.68886e-05 -1.30325e-07 0.0974684)
(-1.53969e-06 4.82655e-05 0.101661)
(4.10867e-06 7.33391e-06 0.0926659)
(1.8461e-06 1.13392e-05 0.0954437)
(-4.26767e-06 -5.82537e-05 0.101528)
(-2.91974e-06 -1.43144e-05 0.0926118)
(-5.2194e-07 -1.45849e-05 0.0953738)
(-6.71024e-06 -5.45143e-05 0.0995329)
(-8.06608e-07 4.37458e-05 0.104059)
(3.19239e-07 9.62615e-06 0.0985907)
(4.20375e-07 9.93755e-06 0.0975379)
(-2.38673e-06 -5.94477e-05 0.103184)
(2.76068e-07 -1.67385e-05 0.0985306)
(-2.904e-07 -5.9849e-05 0.103933)
(-1.30966e-07 -1.68577e-05 0.0974683)
(-3.77394e-05 -3.77242e-05 0.105488)
(2.56528e-05 4.04285e-05 0.108734)
(4.03448e-05 2.55768e-05 0.108735)
(4.04074e-05 -2.56363e-05 0.108733)
(-3.77294e-05 3.77573e-05 0.105488)
(2.55572e-05 -4.03611e-05 0.108735)
(1.3015e-06 -3.02764e-06 0.0709399)
(3.00476e-06 -1.46768e-07 0.0872097)
(3.72168e-05 -3.72501e-05 0.105534)
(-7.78254e-07 -4.03955e-06 0.0913586)
(-3.4067e-06 -5.65692e-06 0.0817364)
(-4.047e-06 -7.83091e-07 0.0913585)
(-5.68149e-06 -3.40362e-06 0.0817366)
(3.85775e-05 3.85955e-05 0.112656)
(3.85775e-05 -3.8583e-05 0.112655)
(-1.27637e-06 -3.02901e-06 0.070939)
(-3.03937e-06 -1.26132e-06 0.0709384)
(-3.72358e-05 -3.72194e-05 0.105533)
(-2.98288e-06 -1.30488e-07 0.0872106)
(-1.6607e-07 -3.01043e-06 0.0872087)
(-1.20932e-06 -3.09937e-06 0.07093)
(3.06297e-06 3.67219e-06 0.0708917)
(-3.11117e-06 -1.20138e-06 0.0709294)
(3.67598e-06 3.09821e-06 0.0708916)
(7.06568e-05 7.06276e-05 0.105324)
(-2.99341e-06 -4.01711e-07 0.0871891)
(-4.34349e-07 -3.01984e-06 0.0871872)
(5.70869e-06 8.05991e-06 0.0871621)
(8.03969e-06 5.69716e-06 0.0871599)
(3.39109e-06 -5.62525e-06 0.081737)
(7.80694e-07 -4.04678e-06 0.0913586)
(-1.61325e-07 5.06271e-07 0.0991806)
(2.68424e-05 4.2076e-05 0.108759)
(-3.80196e-06 3.60222e-08 0.0929947)
(1.00923e-05 5.4131e-05 0.110996)
(3.80256e-06 8.49917e-08 0.0929949)
(-2.67932e-05 4.20334e-05 0.108758)
(1.50267e-07 5.00005e-07 0.0991808)
(-1.00495e-05 5.41381e-05 0.110997)
(-7.68565e-07 1.18462e-05 0.0913082)
(-3.31059e-06 -5.80032e-06 0.0817195)
(-1.36386e-06 9.41062e-06 0.0816855)
(-7.78524e-07 -4.40103e-06 0.0913266)
(7.70149e-07 1.18486e-05 0.0913084)
(7.67782e-07 -4.40314e-06 0.0913267)
(-9.02987e-08 2.93633e-05 0.0990909)
(2.6247e-05 4.12512e-05 0.108746)
(-3.81994e-06 -4.21036e-07 0.0929632)
(9.65993e-06 5.22958e-05 0.111003)
(3.9681e-06 2.3152e-05 0.0929215)
(9.87786e-06 5.3219e-05 0.111)
(-1.86588e-07 -1.96338e-07 0.0991313)
(8.75367e-08 2.93696e-05 0.0990911)
(1.63361e-07 -1.95283e-07 0.0991316)
(5.11849e-07 -1.56476e-07 0.0991803)
(4.19847e-05 2.67641e-05 0.10876)
(3.92916e-08 -3.84271e-06 0.0929945)
(5.41077e-05 1.0051e-05 0.110996)
(1.18417e-05 -7.67503e-07 0.091308)
(-5.82171e-06 -3.30735e-06 0.0817197)
(9.39819e-06 -1.36287e-06 0.0816861)
(-4.38766e-06 -7.76673e-07 0.0913266)
(2.93687e-05 -9.03377e-08 0.0990906)
(4.11622e-05 2.61627e-05 0.108748)
(-4.35661e-07 -3.85887e-06 0.092963)
(5.22767e-05 9.6396e-06 0.111003)
(2.31584e-05 3.93773e-06 0.0929216)
(5.31856e-05 9.8411e-06 0.111)
(-1.9828e-07 -1.82217e-07 0.0991311)
(1.18254e-05 7.80483e-07 0.0913077)
(-5.77812e-06 3.29817e-06 0.0817198)
(9.41868e-06 1.35951e-06 0.0816855)
(-4.36481e-06 7.71219e-07 0.0913268)
(2.93718e-05 1.05578e-07 0.099091)
(4.12262e-05 -2.6226e-05 0.108745)
(5.22913e-05 -9.6907e-06 0.111003)
(-4.53719e-07 3.82203e-06 0.0929631)
(5.32028e-05 -9.89755e-06 0.110999)
(2.31453e-05 -3.95959e-06 0.0929205)
(-1.82342e-07 1.78006e-07 0.0991308)
(-3.08653e-06 1.21184e-06 0.0709296)
(3.66377e-06 -3.0556e-06 0.0708911)
(7.0639e-05 -7.06658e-05 0.105324)
(-3.9843e-07 2.98382e-06 0.0871869)
(-3.01926e-06 4.10779e-07 0.0871894)
(8.04215e-06 -5.70973e-06 0.0871594)
(5.69295e-06 -8.05352e-06 0.0871614)
(-1.22422e-06 3.1104e-06 0.0709298)
(3.07174e-06 -3.68272e-06 0.0708915)
(-1.04685e-07 -2.9381e-05 0.0990907)
(2.61522e-05 -4.11776e-05 0.108748)
(-3.83159e-06 4.84161e-07 0.0929641)
(9.83271e-06 -5.3172e-05 0.111)
(3.96219e-06 -2.31138e-05 0.0929216)
(-7.78585e-07 -1.18273e-05 0.0913076)
(-3.30989e-06 5.80422e-06 0.08172)
(-1.34719e-06 -9.39459e-06 0.0816855)
(-2.98768e-06 3.7517e-06 0.0708967)
(-8.28066e-06 1.4801e-05 0.0915237)
(-5.69557e-06 8.1854e-06 0.0871718)
(-2.10199e-06 -3.00833e-06 0.0965003)
(2.25805e-06 -3.46424e-07 0.0811111)
(-2.11745e-06 7.30698e-06 0.0810756)
(4.28743e-07 -4.85959e-06 0.0915604)
(-1.75972e-05 2.49121e-05 0.0964546)
(-5.58748e-06 5.33445e-06 0.083222)
(1.68397e-06 -1.30978e-06 0.0678786)
(1.24237e-06 -1.82017e-06 0.0678818)
(-2.72752e-06 2.09936e-06 0.0678421)
(-2.19341e-06 2.58715e-06 0.0678458)
(6.89081e-07 -8.50161e-07 0.083253)
(-1.48959e-05 8.3101e-06 0.0915275)
(-7.2282e-06 2.11798e-06 0.081079)
(-1.71256e-06 6.00079e-06 0.0763269)
(-7.71129e-07 1.20783e-05 0.0913244)
(-7.2242e-07 -2.3851e-06 0.0781678)
(-1.06913e-06 -4.13089e-06 0.0897381)
(-9.76241e-07 5.37519e-06 0.0781406)
(-8.98533e-07 1.18104e-05 0.0896978)
(-2.99703e-07 -1.99978e-06 0.0763597)
(-1.96229e-06 4.17961e-06 0.0678075)
(-2.59686e-06 -5.1302e-06 0.0854418)
(-1.41489e-06 9.52506e-06 0.0816941)
(-1.86334e-06 8.18535e-06 0.0853955)
(-3.56924e-07 -2.57879e-06 0.0678553)
(6.01824e-06 -1.68144e-06 0.076327)
(1.20751e-05 -7.69351e-07 0.0913243)
(-4.1383e-06 -1.04327e-06 0.0897379)
(-2.37183e-06 -7.08784e-07 0.0781679)
(1.18135e-05 -8.68825e-07 0.089698)
(5.38628e-06 -9.65529e-07 0.0781405)
(-1.98006e-06 -2.66116e-07 0.0763599)
(4.17007e-06 -1.91176e-06 0.0678078)
(-5.16469e-06 -2.57365e-06 0.0854414)
(9.51118e-06 -1.41207e-06 0.0816948)
(8.15926e-06 -1.84036e-06 0.085396)
(-2.58192e-06 -3.04706e-07 0.0678551)
(3.03817e-06 3.7303e-06 0.0708964)
(3.73108e-06 3.07311e-06 0.0708962)
(5.50916e-06 5.50481e-06 0.0832229)
(-1.76126e-06 -1.33365e-06 0.0678833)
(-1.30343e-06 -1.77194e-06 0.0678773)
(2.65141e-06 2.05167e-06 0.0678476)
(2.07303e-06 2.63357e-06 0.0678415)
(-7.25253e-07 -7.46524e-07 0.083253)
(8.4085e-06 1.4791e-05 0.091529)
(-2.25558e-06 -3.49509e-07 0.0811149)
(5.73695e-06 8.21958e-06 0.0871731)
(2.10519e-06 -3.03829e-06 0.0965032)
(2.14619e-06 7.34136e-06 0.0810805)
(-3.44877e-07 -4.82091e-06 0.0915664)
(1.7581e-05 2.48668e-05 0.0964563)
(1.47614e-05 8.32859e-06 0.0915215)
(-3.11942e-07 -2.27429e-06 0.0811096)
(8.1949e-06 5.72401e-06 0.0871709)
(-3.03069e-06 2.09686e-06 0.0965001)
(7.35176e-06 2.09606e-06 0.0810742)
(-4.80074e-06 -4.20774e-07 0.0915594)
(2.48177e-05 1.75611e-05 0.096453)
(3.0851e-06 3.61481e-06 0.0708873)
(-1.24053e-06 -3.06527e-06 0.0709344)
(3.62157e-06 3.1192e-06 0.0708872)
(-3.07589e-06 -1.22925e-06 0.0709337)
(-8.28445e-07 -8.52179e-07 0.0832434)
(2.61775e-06 2.03806e-06 0.0678417)
(2.058e-06 2.59922e-06 0.0678356)
(5.39011e-06 5.38506e-06 0.0832133)
(-1.7835e-06 -1.34131e-06 0.0678774)
(-1.3107e-06 -1.79391e-06 0.0678714)
(8.10939e-06 1.41933e-05 0.0915023)
(1.76942e-06 -3.75591e-06 0.0964679)
(5.67523e-06 7.9037e-06 0.0871515)
(-2.23448e-06 -5.947e-07 0.0810985)
(2.14949e-06 7.06157e-06 0.0810639)
(1.71545e-05 2.39424e-05 0.0964212)
(-5.94301e-07 -5.27297e-06 0.0915396)
(1.41661e-05 8.03794e-06 0.0914948)
(-3.74742e-06 1.74604e-06 0.0964648)
(7.88595e-06 5.66618e-06 0.0871493)
(-5.645e-07 -2.25247e-06 0.0810931)
(7.06771e-06 2.09977e-06 0.0810577)
(2.39001e-05 1.71167e-05 0.0964179)
(-5.25227e-06 -6.65768e-07 0.0915326)
(-4.70115e-07 -5.04815e-06 0.0915528)
(2.14808e-06 7.20123e-06 0.081072)
(1.73718e-05 2.43991e-05 0.0964385)
(-2.98527e-06 -2.68043e-07 0.0871997)
(8.25908e-06 1.44932e-05 0.0915155)
(-2.24441e-06 -4.71981e-07 0.0811065)
(1.94273e-06 -3.40226e-06 0.0964853)
(-5.02795e-06 -5.42152e-07 0.0915458)
(7.21042e-06 2.09882e-06 0.0810658)
(2.43572e-05 1.73391e-05 0.0964352)
(-3.01329e-07 -3.013e-06 0.0871978)
(1.44645e-05 8.18489e-06 0.0915079)
(-4.38019e-07 -2.26196e-06 0.0811012)
(-3.39188e-06 1.92271e-06 0.0964822)
(5.27425e-06 5.26707e-06 0.0832041)
(-1.80671e-06 -1.35105e-06 0.0678717)
(-1.31932e-06 -1.81778e-06 0.0678658)
(2.5852e-06 2.02291e-06 0.0678361)
(2.04073e-06 2.56435e-06 0.06783)
(-9.27167e-07 -9.54291e-07 0.0832342)
(1.96125e-06 4.16471e-06 0.0678096)
(1.41808e-06 9.58668e-06 0.0816949)
(2.57057e-06 -5.12831e-06 0.0854423)
(1.84149e-06 8.19257e-06 0.085397)
(3.47333e-07 -2.56695e-06 0.0678569)
(1.70997e-06 5.9963e-06 0.0763268)
(1.06908e-06 -4.15234e-06 0.0897379)
(7.72378e-07 1.20811e-05 0.0913246)
(7.13206e-07 -2.38285e-06 0.0781678)
(9.69833e-07 5.37613e-06 0.0781407)
(8.94844e-07 1.17986e-05 0.0896986)
(2.9043e-07 -1.99207e-06 0.0763594)
(-3.02457e-07 -2.03743e-06 0.0763521)
(-9.77298e-07 5.31264e-06 0.0781323)
(-8.98057e-07 1.16147e-05 0.0896838)
(-7.76915e-07 -4.22285e-06 0.0913424)
(-1.7098e-06 5.94531e-06 0.0763193)
(-7.24306e-07 -2.42866e-06 0.0781595)
(-1.06955e-06 -4.27813e-06 0.089724)
(-1.9482e-06 4.13646e-06 0.067797)
(-1.31943e-06 9.29393e-06 0.0816772)
(-2.57405e-06 -5.30146e-06 0.0854209)
(-1.83876e-06 7.94023e-06 0.0853746)
(-3.55727e-07 -2.59251e-06 0.0678447)
(-3.54149e-07 -2.58547e-06 0.0678499)
(-1.8473e-06 8.06038e-06 0.0853849)
(-3.35544e-06 -5.72776e-06 0.0817277)
(-1.95325e-06 4.15797e-06 0.0678022)
(-2.58186e-06 -5.21656e-06 0.0854312)
(-1.71154e-06 5.8879e-06 0.076312)
(-7.68681e-07 1.16115e-05 0.0912925)
(-7.28751e-07 -2.46937e-06 0.0781515)
(-1.07254e-06 -4.43764e-06 0.0897102)
(-9.8059e-07 5.25112e-06 0.0781243)
(-9.0119e-07 1.14179e-05 0.0896702)
(-3.10475e-07 -2.07694e-06 0.0763448)
(2.90886e-07 -2.02931e-06 0.0763518)
(8.9667e-07 1.15976e-05 0.0896844)
(9.71517e-07 5.31623e-06 0.0781324)
(7.77436e-07 -4.22567e-06 0.0913424)
(1.71163e-06 5.93967e-06 0.0763192)
(7.13188e-07 -2.42446e-06 0.0781595)
(1.06464e-06 -4.30057e-06 0.0897238)
(1.71027e-06 5.88298e-06 0.076312)
(1.06044e-06 -4.46029e-06 0.08971)
(7.63672e-07 1.16133e-05 0.0912927)
(7.10355e-07 -2.46631e-06 0.0781515)
(9.70255e-07 5.25577e-06 0.0781244)
(8.92638e-07 1.13948e-05 0.0896707)
(2.89502e-07 -2.06883e-06 0.0763446)
(-2.01641e-06 -2.69381e-07 0.0763523)
(1.16124e-05 -8.68205e-07 0.0896839)
(5.3268e-06 -9.66402e-07 0.0781322)
(-4.21911e-06 -7.80358e-07 0.0913424)
(5.96562e-06 -1.68128e-06 0.0763194)
(-4.28265e-06 -1.04128e-06 0.0897239)
(-2.4135e-06 -7.10262e-07 0.0781596)
(4.12556e-06 -1.90225e-06 0.0677973)
(9.28576e-06 -1.31854e-06 0.0816778)
(-5.33174e-06 -2.54749e-06 0.0854205)
(7.91573e-06 -1.81557e-06 0.0853752)
(-2.59563e-06 -3.02799e-07 0.0678446)
(-2.5884e-06 -3.02992e-07 0.0678497)
(8.03697e-06 -1.82597e-06 0.0853854)
(-5.75201e-06 -3.35297e-06 0.0817279)
(4.14783e-06 -1.90624e-06 0.0678024)
(-5.24869e-06 -2.55785e-06 0.0854308)
(5.91101e-06 -1.68249e-06 0.0763121)
(1.16134e-05 -7.6417e-07 0.0912922)
(-4.42804e-06 -1.04448e-06 0.0897102)
(-2.45857e-06 -7.12045e-07 0.0781516)
(1.14142e-05 -8.69813e-07 0.0896701)
(5.26691e-06 -9.67219e-07 0.0781242)
(-2.0548e-06 -2.74708e-07 0.076345)
(-1.99359e-06 2.76557e-07 0.0763529)
(5.26873e-06 9.91335e-07 0.0781309)
(1.15831e-05 8.94319e-07 0.0896831)
(-4.19106e-06 7.71332e-07 0.0913426)
(5.88355e-06 1.71383e-06 0.0763173)
(-2.37297e-06 7.29801e-07 0.0781603)
(-4.25961e-06 1.05535e-06 0.0897245)
(4.1304e-06 1.9455e-06 0.0677984)
(9.31199e-06 1.30763e-06 0.0816773)
(-5.3034e-06 2.56156e-06 0.0854216)
(7.93663e-06 1.81887e-06 0.085375)
(-2.59241e-06 3.37086e-07 0.0678466)
(-2.58504e-06 3.39572e-07 0.0678518)
(8.05853e-06 1.83662e-06 0.0853852)
(-5.69849e-06 3.34679e-06 0.0817282)
(4.15255e-06 1.95203e-06 0.0678035)
(-5.2186e-06 2.57879e-06 0.0854319)
(5.83064e-06 1.71215e-06 0.07631)
(1.15951e-05 7.80683e-07 0.091292)
(-2.41461e-06 7.30658e-07 0.0781523)
(-4.40923e-06 1.05323e-06 0.0897108)
(5.21054e-06 9.91973e-07 0.0781229)
(1.13832e-05 8.90252e-07 0.0896694)
(-2.03015e-06 2.79007e-07 0.0763456)
(3.6193e-06 -3.08701e-06 0.0708869)
(-3.03445e-06 1.23522e-06 0.0709342)
(-8.59587e-07 8.10709e-07 0.0832434)
(2.04227e-06 -2.61318e-06 0.0678354)
(2.58163e-06 -2.06214e-06 0.0678415)
(5.36871e-06 -5.40238e-06 0.0832131)
(-1.33251e-06 1.77903e-06 0.0678712)
(-1.80918e-06 1.31005e-06 0.0678776)
(1.41756e-05 -8.10681e-06 0.091495)
(-3.75552e-06 -1.73699e-06 0.0964641)
(7.8921e-06 -5.68232e-06 0.087149)
(-5.8388e-07 2.23532e-06 0.0810924)
(2.39253e-05 -1.71459e-05 0.0964178)
(7.07703e-06 -2.147e-06 0.0810581)
(-5.28234e-06 6.09815e-07 0.0915318)
(8.06727e-06 -1.418e-05 0.0915018)
(1.70894e-06 3.75961e-06 0.0964684)
(5.65941e-06 -7.90382e-06 0.0871508)
(-2.2433e-06 5.84878e-07 0.0810987)
(2.10412e-06 -7.0503e-06 0.081063)