/*--------------------------------*- C++ -*----------------------------------*\
| =========                 |                                                 |
| \\      /  F ield         | OpenFOAM: The Open Source CFD Toolbox           |
|  \\    /   O peration     | Version:  v2006                                 |
|   \\  /    A nd           | Website:  www.openfoam.com                      |
|    \\/     M anipulation  |                                                 |
\*---------------------------------------------------------------------------*/
FoamFile
{
    version     2.0;
    format      ascii;
    class       volScalarField;
    location    "500";
    object      k;
}
// * * * * * * * * * * * * * * * * * * * * * * * * * * * * * * * * * * * * * //

dimensions      [0 2 -2 0 0 0 0];


internalField   nonuniform List<scalar> 
42840
(
2.19724e-05
3.78276e-05
3.78488e-05
4.28444e-05
2.27472e-05
3.86834e-05
3.86903e-05
4.35651e-05
2.3547e-05
3.95211e-05
3.95213e-05
4.42664e-05
2.43283e-05
4.03973e-05
4.03575e-05
4.47703e-05
2.51653e-05
4.1153e-05
4.12285e-05
4.55788e-05
2.59832e-05
4.19145e-05
4.1903e-05
4.60948e-05
2.67852e-05
4.27241e-05
4.26805e-05
4.66246e-05
2.76288e-05
4.33455e-05
4.34117e-05
4.73294e-05
2.83871e-05
4.40437e-05
4.40498e-05
4.76591e-05
2.91983e-05
4.48162e-05
4.46787e-05
4.83683e-05
2.99075e-05
4.52008e-05
4.54193e-05
4.86677e-05
3.08489e-05
4.6026e-05
4.59564e-05
4.93928e-05
3.13816e-05
4.66059e-05
4.63655e-05
4.93941e-05
3.22775e-05
4.6888e-05
4.73444e-05
5.07712e-05
3.29362e-05
4.77172e-05
4.72568e-05
4.93126e-05
3.32896e-05
4.80654e-05
4.84259e-05
5.29382e-05
3.48106e-05
4.82982e-05
4.86915e-05
4.97105e-05
3.46888e-05
4.90282e-05
4.81106e-05
5.17747e-05
3.48853e-05
4.91511e-05
5.03755e-05
5.21777e-05
3.69127e-05
5.03773e-05
5.08069e-05
5.24898e-05
3.61622e-05
4.87185e-05
4.81242e-05
5.21607e-05
3.68645e-05
5.15007e-05
5.18535e-05
5.08912e-05
3.83269e-05
5.1477e-05
5.15318e-05
5.59545e-05
3.7987e-05
5.01733e-05
4.99311e-05
5.14258e-05
3.81231e-05
5.10693e-05
5.13111e-05
5.34469e-05
3.90684e-05
5.19891e-05
5.19212e-05
5.41595e-05
4.2746e-05
3.76107e-05
3.75877e-05
4.27056e-05
3.76081e-05
3.76314e-05
3.75888e-05
3.75804e-05
4.27643e-05
3.76327e-05
3.75781e-05
4.26812e-05
4.29073e-05
4.33779e-05
3.78409e-05
3.78269e-05
3.84738e-05
3.84802e-05
4.2882e-05
4.33898e-05
3.78391e-05
3.78482e-05
3.84697e-05
3.84804e-05
3.78077e-05
3.84813e-05
3.84714e-05
4.29102e-05
4.33847e-05
3.78061e-05
3.84804e-05
3.84673e-05
4.33949e-05
4.35293e-05
4.40895e-05
3.86826e-05
3.86815e-05
3.93504e-05
3.9299e-05
4.35241e-05
4.40234e-05
3.86782e-05
3.8689e-05
3.93478e-05
3.93181e-05
3.86968e-05
3.93011e-05
3.93831e-05
4.3536e-05
4.40216e-05
3.86928e-05
3.93206e-05
3.93809e-05
4.41359e-05
4.42368e-05
4.46338e-05
3.95593e-05
3.95192e-05
4.01235e-05
4.01944e-05
4.41922e-05
4.47792e-05
3.95566e-05
3.95191e-05
4.01174e-05
4.01274e-05
3.95808e-05
4.01964e-05
4.01179e-05
4.41618e-05
4.4691e-05
3.95784e-05
4.01282e-05
4.0112e-05
4.4617e-05
4.47792e-05
4.54112e-05
4.03236e-05
4.03955e-05
4.09815e-05
4.09521e-05
4.49197e-05
4.53187e-05
4.0316e-05
4.0357e-05
4.09776e-05
4.10331e-05
4.03228e-05
4.09547e-05
4.09867e-05
4.48707e-05
4.54661e-05
4.03155e-05
4.10345e-05
4.09831e-05
4.54233e-05
4.55704e-05
4.59538e-05
4.12014e-05
4.11503e-05
4.1767e-05
4.17352e-05
4.546e-05
4.5935e-05
4.12e-05
4.12263e-05
4.17659e-05
4.17347e-05
4.12041e-05
4.1737e-05
4.17799e-05
4.55879e-05
4.59053e-05
4.12033e-05
4.17364e-05
4.17796e-05
4.59881e-05
4.60551e-05
4.65497e-05
4.19258e-05
4.19119e-05
4.24716e-05
4.25007e-05
4.60579e-05
4.6616e-05
4.19235e-05
4.19011e-05
4.24671e-05
4.24781e-05
4.19451e-05
4.25055e-05
4.24532e-05
4.60276e-05
4.65556e-05
4.1943e-05
4.24818e-05
4.24487e-05
4.64819e-05
4.67199e-05
4.71759e-05
4.26844e-05
4.27211e-05
4.32676e-05
4.32332e-05
4.67853e-05
4.70742e-05
4.26789e-05
4.26773e-05
4.32608e-05
4.32344e-05
4.26333e-05
4.32328e-05
4.32525e-05
4.67065e-05
4.71278e-05
4.26283e-05
4.32337e-05
4.32461e-05
4.71873e-05
4.72716e-05
4.75964e-05
4.34291e-05
4.33443e-05
4.38729e-05
4.38112e-05
4.71316e-05
4.75778e-05
4.34232e-05
4.34111e-05
4.38726e-05
4.38892e-05
4.34609e-05
4.38176e-05
4.38758e-05
4.72443e-05
4.763e-05
4.34552e-05
4.38946e-05
4.38764e-05
4.75843e-05
4.77227e-05
4.81797e-05
4.40286e-05
4.40397e-05
4.45808e-05
4.46898e-05
4.78031e-05
4.83144e-05
4.40302e-05
4.40463e-05
4.45773e-05
4.45161e-05
4.399e-05
4.46895e-05
4.45596e-05
4.77351e-05
4.80915e-05
4.39921e-05
4.45154e-05
4.45565e-05
4.82095e-05
4.82615e-05
4.84083e-05
4.47376e-05
4.48132e-05
4.50405e-05
4.50358e-05
4.8352e-05
4.83843e-05
4.47289e-05
4.4677e-05
4.50278e-05
4.52319e-05
4.47757e-05
4.50414e-05
4.51713e-05
4.82167e-05
4.877e-05
4.47672e-05
4.5236e-05
4.51599e-05
4.85978e-05
4.8545e-05
4.9612e-05
4.52134e-05
4.51965e-05
4.60396e-05
4.58448e-05
4.85168e-05
4.92821e-05
4.52086e-05
4.54154e-05
4.60526e-05
4.58461e-05
4.52826e-05
4.58508e-05
4.58442e-05
4.89053e-05
4.91406e-05
4.52778e-05
4.58536e-05
4.58573e-05
4.92762e-05
4.96551e-05
4.90678e-05
4.62095e-05
4.60228e-05
4.62518e-05
4.64466e-05
4.93847e-05
4.9713e-05
4.62161e-05
4.59543e-05
4.62405e-05
4.62069e-05
4.60484e-05
4.64407e-05
4.62892e-05
4.91854e-05
4.93297e-05
4.60571e-05
4.61981e-05
4.62768e-05
4.93534e-05
4.90912e-05
5.06881e-05
4.62642e-05
4.66084e-05
4.70593e-05
4.68516e-05
4.98475e-05
4.97212e-05
4.62504e-05
4.63689e-05
4.70387e-05
4.71642e-05
4.63467e-05
4.68696e-05
4.71808e-05
4.94804e-05
5.05093e-05
4.63304e-05
4.71852e-05
4.71653e-05
5.06824e-05
5.08777e-05
4.99136e-05
4.74145e-05
4.68687e-05
4.74701e-05
4.7242e-05
4.97026e-05
5.04751e-05
4.74194e-05
4.73262e-05
4.75044e-05
4.72848e-05
4.73862e-05
4.72406e-05
4.72324e-05
5.05454e-05
4.96831e-05
4.73977e-05
4.72812e-05
4.72655e-05
4.93627e-05
4.97801e-05
5.00403e-05
4.7332e-05
4.77399e-05
4.73539e-05
4.81624e-05
5.09872e-05
5.10066e-05
4.73522e-05
4.72709e-05
4.73259e-05
4.78699e-05
4.71755e-05
4.81463e-05
4.79762e-05
4.96899e-05
5.15879e-05
4.71895e-05
4.78237e-05
4.78959e-05
5.22961e-05
5.05234e-05
5.34006e-05
4.76133e-05
4.80591e-05
4.93901e-05
4.79888e-05
5.06725e-05
5.04394e-05
4.75486e-05
4.84194e-05
4.94494e-05
4.87394e-05
4.87768e-05
4.8042e-05
4.8796e-05
5.19806e-05
5.11891e-05
4.87165e-05
4.88219e-05
4.8835e-05
5.05102e-05
5.34548e-05
4.9739e-05
4.95306e-05
4.82376e-05
4.87384e-05
4.92239e-05
5.10945e-05
5.2156e-05
4.96044e-05
4.86257e-05
4.87199e-05
4.82092e-05
4.81749e-05
4.90988e-05
4.79488e-05
5.0934e-05
5.00157e-05
4.82451e-05
4.81043e-05
4.79408e-05
5.05575e-05
4.9027e-05
5.05135e-05
4.8007e-05
4.91543e-05
4.78595e-05
4.88162e-05
5.17302e-05
5.10547e-05
4.79518e-05
4.82108e-05
4.7814e-05
4.91383e-05
4.85791e-05
4.88819e-05
4.98048e-05
5.0074e-05
5.32566e-05
4.84946e-05
4.93706e-05
4.97625e-05
5.28745e-05
5.23768e-05
5.66005e-05
4.86496e-05
4.90089e-05
5.17864e-05
5.05595e-05
5.18494e-05
5.40825e-05
4.86478e-05
5.01208e-05
5.18616e-05
5.11688e-05
4.96443e-05
5.04734e-05
4.94585e-05
5.41583e-05
5.45517e-05
4.96402e-05
5.11264e-05
4.95102e-05
5.16365e-05
5.563e-05
4.76883e-05
5.16582e-05
5.04946e-05
4.84346e-05
4.87569e-05
5.35375e-05
4.91009e-05
5.17276e-05
5.09319e-05
4.84111e-05
4.81847e-05
4.98818e-05
4.877e-05
5.04014e-05
5.34661e-05
4.79017e-05
4.99374e-05
4.81899e-05
5.03879e-05
5.29126e-05
4.76499e-05
5.46966e-05
4.80693e-05
4.86488e-05
4.97644e-05
5.04311e-05
4.91481e-05
5.51498e-05
4.80285e-05
4.80613e-05
4.97047e-05
5.04806e-05
5.00286e-05
5.05547e-05
4.90726e-05
4.7952e-05
5.59322e-05
4.99889e-05
5.06057e-05
4.90373e-05
5.02434e-05
5.56781e-05
5.42385e-05
5.13228e-05
5.15411e-05
5.22341e-05
5.1985e-05
5.57357e-05
5.35931e-05
5.13045e-05
5.18957e-05
5.22711e-05
5.23163e-05
4.92718e-05
5.18647e-05
5.21411e-05
5.66914e-05
5.35997e-05
4.92482e-05
5.21957e-05
5.21802e-05
5.59741e-05
5.35229e-05
5.14612e-05
5.18766e-05
5.15351e-05
5.02585e-05
5.01084e-05
5.2959e-05
5.13048e-05
5.1919e-05
5.15916e-05
5.02331e-05
4.98297e-05
5.22794e-05
5.02087e-05
5.09544e-05
5.26705e-05
5.0664e-05
5.2311e-05
4.99285e-05
5.09289e-05
5.17006e-05
5.16017e-05
5.30961e-05
5.01967e-05
5.00837e-05
5.05642e-05
5.0689e-05
5.15091e-05
5.33746e-05
5.01663e-05
4.98374e-05
5.05531e-05
5.09188e-05
5.04085e-05
5.06341e-05
5.03574e-05
5.11052e-05
5.38293e-05
5.0379e-05
5.08782e-05
5.03455e-05
5.29028e-05
5.33692e-05
5.40097e-05
5.0924e-05
5.11247e-05
5.17298e-05
5.19059e-05
5.36913e-05
5.42349e-05
5.0931e-05
5.13594e-05
5.17429e-05
5.18827e-05
5.07809e-05
5.1925e-05
5.18525e-05
5.4069e-05
5.40625e-05
5.07945e-05
5.19011e-05
5.18611e-05
5.42907e-05
5.40679e-05
5.18756e-05
5.19657e-05
5.42347e-05
5.18788e-05
5.18988e-05
5.18574e-05
5.40426e-05
5.18625e-05
6.48464e-05
7.14151e-05
6.95736e-05
6.48563e-05
7.142e-05
2.17744e-05
2.17683e-05
2.17897e-05
2.17679e-05
5.35994e-05
3.71165e-05
6.03736e-05
2.95004e-05
6.95837e-05
5.36065e-05
3.71597e-05
2.95017e-05
6.04536e-05
4.23045e-05
6.70251e-05
6.70366e-05
6.51018e-05
7.14637e-05
6.50039e-05
7.14925e-05
6.96073e-05
6.96257e-05
6.50937e-05
7.14651e-05
6.50109e-05
7.14928e-05
2.19669e-05
2.19849e-05
2.19619e-05
2.25546e-05
2.25562e-05
2.25613e-05
2.25496e-05
5.40861e-05
6.0596e-05
3.02411e-05
3.80574e-05
5.38845e-05
6.07195e-05
3.04909e-05
6.95985e-05
6.96237e-05
5.40823e-05
3.02569e-05
6.05944e-05
3.80597e-05
5.38992e-05
3.05013e-05
6.0676e-05
6.71366e-05
6.71487e-05
4.30347e-05
6.71886e-05
6.71933e-05
6.52986e-05
7.15422e-05
6.52067e-05
7.15838e-05
6.96537e-05
6.9682e-05
6.53074e-05
7.15449e-05
6.52039e-05
7.15869e-05
2.27475e-05
2.27549e-05
2.27499e-05
2.33461e-05
2.33291e-05
2.33385e-05
2.33628e-05
5.45155e-05
6.08289e-05
3.12201e-05
3.88853e-05
5.43405e-05
6.09245e-05
3.14584e-05
6.96601e-05
6.96862e-05
5.45205e-05
3.12229e-05
6.08461e-05
3.89008e-05
5.43322e-05
3.14622e-05
6.09679e-05
6.73133e-05
6.73244e-05
4.37884e-05
6.74443e-05
6.74584e-05
6.55275e-05
7.1631e-05
6.5437e-05
7.16626e-05
6.97224e-05
6.97568e-05
6.55176e-05
7.16329e-05
6.54452e-05
7.16625e-05
2.35292e-05
2.35352e-05
2.35623e-05
2.4132e-05
2.41525e-05
2.41289e-05
2.41366e-05
5.49561e-05
6.1094e-05
3.21747e-05
3.97493e-05
5.47746e-05
6.12453e-05
3.24167e-05
6.97167e-05
6.97427e-05
5.49498e-05
3.21846e-05
6.10984e-05
3.97161e-05
5.4787e-05
3.24214e-05
6.11662e-05
6.75081e-05
6.75167e-05
4.43744e-05
6.74676e-05
6.74681e-05
6.57145e-05
7.17142e-05
6.56354e-05
7.17593e-05
6.97828e-05
6.9802e-05
6.57106e-05
7.17145e-05
6.5611e-05
7.17629e-05
2.4357e-05
2.43353e-05
2.43323e-05
2.49501e-05
2.49548e-05
2.49811e-05
2.4956e-05
5.53526e-05
6.14074e-05
3.31373e-05
4.05837e-05
5.51945e-05
6.14665e-05
3.33689e-05
6.97942e-05
6.98292e-05
5.53406e-05
3.31179e-05
6.13514e-05
4.05935e-05
5.51631e-05
3.33562e-05
6.15321e-05
6.75559e-05
6.7554e-05
4.50125e-05
6.77203e-05
6.77274e-05
6.59592e-05
7.18181e-05
6.58488e-05
7.18518e-05
6.98478e-05
6.98817e-05
6.59742e-05
7.18244e-05
6.58773e-05
7.18524e-05
2.51579e-05
2.51905e-05
2.51696e-05
2.57868e-05
2.57663e-05
2.57852e-05
2.57953e-05
5.57701e-05
6.16026e-05
3.40572e-05
4.13551e-05
5.55877e-05
6.17469e-05
3.42891e-05
6.98502e-05
6.98645e-05
5.57966e-05
3.4082e-05
6.17012e-05
4.14072e-05
5.56202e-05
3.43173e-05
6.17463e-05
6.7875e-05
6.78978e-05
4.57434e-05
6.79183e-05
6.79344e-05
6.6087e-05
7.18851e-05
6.60533e-05
7.19201e-05
6.99011e-05
6.99356e-05
6.60791e-05
7.1885e-05
6.60343e-05
7.19238e-05
2.59669e-05
2.59778e-05
2.59933e-05
2.65777e-05
2.65861e-05
2.65786e-05
2.65766e-05
5.61221e-05
6.18437e-05
3.49764e-05
4.20959e-05
5.59975e-05
6.18972e-05
3.51957e-05
6.99007e-05
6.99422e-05
5.60996e-05
3.49793e-05
6.17901e-05
4.20834e-05
5.59784e-05
3.51915e-05
6.1904e-05
6.79132e-05
6.79125e-05
4.62047e-05
6.79233e-05
6.79243e-05
6.63506e-05
7.19925e-05
6.6207e-05
7.20383e-05
6.99934e-05
7.00152e-05
6.63337e-05
7.19939e-05
6.62083e-05
7.2038e-05
2.6802e-05
2.67862e-05
2.67733e-05
2.74212e-05
2.74192e-05
2.74071e-05
2.74047e-05
5.6503e-05
6.21607e-05
3.58504e-05
4.29282e-05
5.63171e-05
6.23044e-05
3.60769e-05
6.99874e-05
7.00142e-05
5.64902e-05
3.58418e-05
6.21123e-05
4.28698e-05
5.63167e-05
3.60616e-05
6.22255e-05
6.80229e-05
6.80313e-05
4.6825e-05
6.81988e-05
6.82e-05
6.64861e-05
7.20733e-05
6.64731e-05
7.20934e-05
7.00154e-05
7.00456e-05
6.65089e-05
7.20751e-05
6.64644e-05
7.20974e-05
2.76021e-05
2.76152e-05
2.76274e-05
2.81995e-05
2.81595e-05
2.82109e-05
2.82144e-05
5.68611e-05
6.22744e-05
3.6732e-05
4.34668e-05
5.67532e-05
6.22394e-05
3.69314e-05
7.00386e-05
7.00655e-05
5.68866e-05
3.67347e-05
6.2343e-05
4.35813e-05
5.67396e-05
3.69531e-05
6.24102e-05
6.83762e-05
6.8381e-05
4.74495e-05
6.83446e-05
6.83545e-05
6.66404e-05
7.2143e-05
6.65166e-05
7.22018e-05
7.0129e-05
7.01728e-05
6.66463e-05
7.21512e-05
6.6565e-05
7.22026e-05
2.83708e-05
2.83991e-05
2.83875e-05
2.90038e-05
2.90458e-05
2.89787e-05
2.89806e-05
5.71235e-05
6.24822e-05
3.75069e-05
4.42821e-05
5.69671e-05
6.27679e-05
3.77161e-05
7.01108e-05
7.01327e-05
5.71358e-05
3.75409e-05
6.25137e-05
4.42064e-05
5.70282e-05
3.77303e-05
6.2582e-05
6.81616e-05
6.81865e-05
4.7782e-05
6.83298e-05
6.83407e-05
6.69e-05
7.22554e-05
6.68911e-05
7.22588e-05
7.01716e-05
7.01627e-05
6.68488e-05
7.22483e-05
6.67776e-05
7.22598e-05
2.92435e-05
2.91822e-05
2.92081e-05
2.97114e-05
2.97368e-05
2.97859e-05
2.97809e-05
5.75885e-05
6.28846e-05
3.83895e-05
4.48911e-05
5.74507e-05
6.27391e-05
3.85874e-05
7.01746e-05
7.02277e-05
5.74943e-05
3.833e-05
6.26367e-05
4.4856e-05
5.73297e-05
3.85303e-05
6.28051e-05
6.86735e-05
6.86496e-05
4.84853e-05
6.86592e-05
6.86424e-05
6.67801e-05
7.22964e-05
6.67431e-05
7.24129e-05
7.02328e-05
7.0312e-05
6.68948e-05
7.23101e-05
6.68556e-05
7.24161e-05
2.9914e-05
2.999e-05
2.99485e-05
3.0631e-05
3.0547e-05
3.06002e-05
3.05704e-05
5.76467e-05
6.26558e-05
3.90632e-05
4.54133e-05
5.76013e-05
6.2969e-05
3.92335e-05
7.02597e-05
7.0274e-05
5.78048e-05
3.91184e-05
6.30352e-05
4.55856e-05
5.77091e-05
3.93191e-05
6.30857e-05
6.8406e-05
6.84514e-05
4.8822e-05
6.8517e-05
6.85657e-05
6.73962e-05
7.24989e-05
6.73666e-05
7.24227e-05
7.03312e-05
7.03257e-05
6.73597e-05
7.24948e-05
6.73358e-05
7.24264e-05
3.0758e-05
3.07787e-05
3.07963e-05
3.12711e-05
3.13375e-05
3.12251e-05
3.12678e-05
5.82456e-05
6.3269e-05
3.98621e-05
4.61686e-05
5.80296e-05
6.326e-05
4.00679e-05
7.0305e-05
7.03164e-05
5.81734e-05
3.98855e-05
6.31379e-05
4.60396e-05
5.79914e-05
4.00503e-05
6.31233e-05
6.90405e-05
6.90415e-05
4.94043e-05
6.89539e-05
6.89514e-05
6.69911e-05
7.23515e-05
6.69926e-05
7.25438e-05
7.03668e-05
7.04167e-05
6.68551e-05
7.23443e-05
6.68801e-05
7.25299e-05
3.15353e-05
3.14057e-05
3.14088e-05
3.2041e-05
3.20358e-05
3.2112e-05
3.20993e-05
5.82457e-05
6.33053e-05
4.05824e-05
4.67544e-05
5.82492e-05
6.34769e-05
4.07409e-05
7.03398e-05
7.04439e-05
5.81103e-05
4.04857e-05
6.29791e-05
4.66003e-05
5.81434e-05
4.06448e-05
6.32213e-05
6.82731e-05
6.82421e-05
4.96517e-05
6.85278e-05
6.84814e-05
6.77012e-05
7.27528e-05
6.76779e-05
7.26326e-05
7.03737e-05
7.03739e-05
6.8069e-05
7.27902e-05
6.78934e-05
7.26901e-05
3.21417e-05
3.2328e-05
3.23449e-05
3.28474e-05
3.26687e-05
3.27271e-05
3.27009e-05
5.87853e-05
6.32696e-05
4.12112e-05
4.69237e-05
5.86052e-05
6.30358e-05
4.13599e-05
7.05197e-05
7.04342e-05
5.91914e-05
4.12946e-05
6.41183e-05
4.73689e-05
5.87453e-05
4.15443e-05
6.40415e-05
7.00358e-05
7.01243e-05
5.05701e-05
6.96849e-05
6.9835e-05
6.73352e-05
7.24501e-05
6.72868e-05
7.25865e-05
7.06074e-05
7.06723e-05
6.67472e-05
7.24142e-05
6.71228e-05
7.24977e-05
3.29429e-05
3.27912e-05
3.27513e-05
3.31018e-05
3.35298e-05
3.3373e-05
3.34139e-05
5.85346e-05
6.37051e-05
4.18186e-05
4.80527e-05
5.8579e-05
6.43509e-05
4.19789e-05
7.03283e-05
7.05117e-05
5.79395e-05
4.18519e-05
6.25486e-05
4.72774e-05
5.86017e-05
4.18585e-05
6.2469e-05
6.66781e-05
6.66072e-05
4.94857e-05
6.70017e-05
6.67932e-05
6.75028e-05
7.28418e-05
6.76297e-05
7.29363e-05
7.04074e-05
7.03627e-05
6.8165e-05
7.28769e-05
6.75029e-05
7.30334e-05
3.36394e-05
3.36774e-05
3.37926e-05
3.44901e-05
3.39403e-05
3.4283e-05
3.42683e-05
5.95943e-05
6.37484e-05
4.25218e-05
4.79843e-05
5.91784e-05
6.2966e-05
4.26754e-05
7.07998e-05
7.07115e-05
6.02977e-05
4.22393e-05
6.47612e-05
4.87729e-05
5.8711e-05
4.27032e-05
6.54341e-05
7.24278e-05
7.23941e-05
5.31322e-05
7.25093e-05
7.26635e-05
6.90175e-05
7.30879e-05
6.79623e-05
7.29959e-05
7.07837e-05
7.09283e-05
6.8639e-05
7.3137e-05
6.86168e-05
7.28931e-05
3.41665e-05
3.44157e-05
3.42619e-05
3.4845e-05
3.48687e-05
3.4526e-05
3.4396e-05
5.89849e-05
6.36956e-05
4.30447e-05
4.88339e-05
5.92955e-05
6.48539e-05
4.32129e-05
7.04262e-05
7.04901e-05
5.86654e-05
4.34077e-05
6.39294e-05
4.83997e-05
6.02281e-05
4.33892e-05
6.2748e-05
6.57617e-05
6.59278e-05
4.87681e-05
6.50129e-05
6.4888e-05
6.5912e-05
7.21692e-05
6.82722e-05
7.20665e-05
7.04936e-05
7.03567e-05
6.57614e-05
7.21274e-05
6.7299e-05
7.21041e-05
3.49908e-05
3.45522e-05
3.46847e-05
3.46936e-05
3.51855e-05
3.51312e-05
3.54579e-05
5.95204e-05
6.40863e-05
4.35901e-05
4.88525e-05
5.91659e-05
6.26429e-05
4.365e-05
7.06672e-05
7.07191e-05
5.90894e-05
4.31896e-05
6.23572e-05
4.8198e-05
5.80237e-05
4.3205e-05
6.3173e-05
7.12529e-05
7.08648e-05
5.35798e-05
7.25372e-05
7.24202e-05
6.92356e-05
7.34794e-05
6.56428e-05
7.43466e-05
7.09104e-05
7.13048e-05
6.97166e-05
7.35607e-05
6.62451e-05
7.43752e-05
3.53548e-05
3.56673e-05
3.55492e-05
3.67903e-05
3.63017e-05
3.66614e-05
3.59969e-05
5.97137e-05
6.3462e-05
4.38799e-05
4.99032e-05
5.95144e-05
6.60039e-05
4.41736e-05
7.10576e-05
7.12913e-05
6.04205e-05
4.41337e-05
6.53122e-05
5.1019e-05
6.02306e-05
4.46324e-05
6.70022e-05
6.80122e-05
6.8244e-05
5.09257e-05
6.70069e-05
6.71871e-05
6.94956e-05
7.3321e-05
7.19799e-05
7.19229e-05
7.0716e-05
7.0198e-05
6.93862e-05
7.33038e-05
7.21362e-05
7.18981e-05
3.63845e-05
3.66507e-05
3.62997e-05
3.63542e-05
3.62156e-05
3.60653e-05
3.67011e-05
6.08699e-05
6.63714e-05
4.50771e-05
4.99504e-05
6.083e-05
6.35268e-05
4.50905e-05
7.05617e-05
7.00332e-05
6.07722e-05
4.52796e-05
6.62216e-05
4.9828e-05
6.09134e-05
4.5239e-05
6.29103e-05
7.14034e-05
7.13961e-05
5.37579e-05
7.25639e-05
7.25206e-05
6.41877e-05
7.19474e-05
6.40083e-05
7.31618e-05
7.05441e-05
7.11996e-05
6.37845e-05
7.19095e-05
6.35881e-05
7.31517e-05
3.61973e-05
3.60043e-05
3.66545e-05
3.63311e-05
3.66142e-05
3.643e-05
3.64702e-05
5.81296e-05
6.09858e-05
4.46387e-05
4.88314e-05
5.90103e-05
6.22509e-05
4.45357e-05
7.04684e-05
7.12495e-05
5.77299e-05
4.43912e-05
5.99209e-05
4.82759e-05
5.85385e-05
4.42839e-05
6.15871e-05
6.74648e-05
6.73735e-05
5.02297e-05
6.48774e-05
6.48054e-05
7.14441e-05
7.44075e-05
6.98611e-05
7.40897e-05
7.16675e-05
7.12793e-05
7.18796e-05
7.44755e-05
7.01115e-05
7.41566e-05
3.72179e-05
3.718e-05
3.6529e-05
3.82996e-05
3.82034e-05
3.83161e-05
3.79674e-05
6.13871e-05
6.67508e-05
4.49086e-05
5.19148e-05
5.93106e-05
6.74138e-05
4.55953e-05
7.18796e-05
7.13535e-05
6.19129e-05
4.48711e-05
6.76922e-05
5.23492e-05
5.9548e-05
4.57511e-05
6.84161e-05
6.88021e-05
6.8936e-05
5.40832e-05
7.32503e-05
7.34593e-05
6.76839e-05
7.27906e-05
6.95588e-05
7.26164e-05
7.05668e-05
7.05741e-05
6.74008e-05
7.27559e-05
6.9604e-05
7.25678e-05
3.82037e-05
3.82975e-05
3.83622e-05
3.80522e-05
3.79428e-05
3.78717e-05
3.84148e-05
6.14568e-05
6.52024e-05
4.6674e-05
5.08478e-05
6.25026e-05
6.36801e-05
4.66531e-05
7.0397e-05
7.04516e-05
6.11608e-05
4.67981e-05
6.48716e-05
5.06395e-05
6.27611e-05
4.6742e-05
6.28704e-05
7.37641e-05
7.38089e-05
5.43417e-05
6.96793e-05
6.95749e-05
6.75083e-05
7.30414e-05
6.68646e-05
7.33241e-05
7.09848e-05
7.1194e-05
6.75344e-05
7.30427e-05
6.65851e-05
7.33504e-05
3.79024e-05
3.78328e-05
3.82524e-05
3.80055e-05
3.79827e-05
3.80095e-05
3.81443e-05
5.88743e-05
6.29655e-05
4.59993e-05
5.01959e-05
5.91447e-05
6.35497e-05
4.58574e-05
7.10462e-05
7.12823e-05
5.87378e-05
4.58704e-05
6.25662e-05
5.00228e-05
5.88331e-05
4.57687e-05
6.3855e-05
6.65866e-05
6.65009e-05
5.13414e-05
6.76414e-05
6.76836e-05
6.88599e-05
7.35388e-05
6.84965e-05
7.35865e-05
7.13056e-05
7.13015e-05
6.89467e-05
7.35586e-05
6.86627e-05
7.35864e-05
3.81916e-05
3.82932e-05
3.81971e-05
3.88532e-05
3.89755e-05
3.90066e-05
3.88701e-05
6.10219e-05
6.49292e-05
4.59296e-05
5.14557e-05
6.00904e-05
6.54719e-05
4.61904e-05
7.13266e-05
7.12652e-05
6.11714e-05
4.59658e-05
6.52932e-05
5.16235e-05
6.03364e-05
4.63281e-05
6.55323e-05
7.08386e-05
7.09338e-05
5.42812e-05
7.13932e-05
7.14486e-05
6.89709e-05
7.35626e-05
6.90454e-05
7.35227e-05
7.12276e-05
7.12063e-05
6.8871e-05
7.35499e-05
6.89787e-05
7.35194e-05
3.91618e-05
3.91678e-05
3.90514e-05
6.11967e-05
6.5511e-05
4.71368e-05
5.19927e-05
6.14522e-05
6.51354e-05
4.72651e-05
7.12006e-05
7.12031e-05
6.10743e-05
4.71515e-05
6.52311e-05
5.19191e-05
6.14086e-05
4.7247e-05
6.49684e-05
7.02443e-05
7.02134e-05
5.35786e-05
6.94616e-05
6.94307e-05
6.95806e-05
6.95839e-05
4.23253e-05
6.70899e-05
6.71017e-05
6.96022e-05
6.95828e-05
6.96049e-05
6.95861e-05
4.25195e-05
6.71779e-05
6.71906e-05
6.71175e-05
6.71308e-05
6.48431e-05
7.14075e-05
5.3595e-05
3.71222e-05
6.04116e-05
2.94949e-05
5.35925e-05
3.71144e-05
6.03692e-05
2.94963e-05
6.48673e-05
7.14583e-05
7.14224e-05
6.49839e-05
6.48639e-05
7.14562e-05
7.14158e-05
6.49816e-05
5.36375e-05
3.73701e-05
6.05867e-05
2.99934e-05
6.04443e-05
2.97432e-05
5.38479e-05
5.36344e-05
3.73475e-05
6.05678e-05
2.99878e-05
6.04014e-05
2.97399e-05
5.38435e-05
4.23047e-05
6.70221e-05
6.70109e-05
6.95711e-05
6.96062e-05
6.95777e-05
4.24773e-05
6.71868e-05
6.71822e-05
6.7063e-05
6.70493e-05
6.96058e-05
6.95757e-05
5.35972e-05
3.71166e-05
6.04154e-05
2.94905e-05
6.48562e-05
7.14179e-05
5.35999e-05
3.71581e-05
2.94977e-05
6.0449e-05
6.48792e-05
7.14603e-05
7.14273e-05
6.4994e-05
5.36429e-05
3.73657e-05
6.05948e-05
2.99955e-05
6.04504e-05
2.97419e-05
5.38612e-05
6.48787e-05
7.14534e-05
7.14239e-05
6.49908e-05
5.36453e-05
3.74022e-05
3.00049e-05
6.05814e-05
2.97517e-05
6.04758e-05
5.3861e-05
6.48473e-05
7.14106e-05
5.35991e-05
3.71184e-05
2.95007e-05
6.03863e-05
6.4847e-05
7.14075e-05
5.36399e-05
3.73493e-05
6.05668e-05
2.99912e-05
6.04042e-05
2.97441e-05
5.38421e-05
6.48663e-05
7.1459e-05
7.14186e-05
6.49767e-05
5.36397e-05
3.73499e-05
2.99917e-05
6.05448e-05
2.97456e-05
6.04129e-05
5.38412e-05
6.48658e-05
7.14525e-05
7.14146e-05
6.49752e-05
4.2402e-05
6.71318e-05
6.71297e-05
6.95821e-05
6.95977e-05
6.95839e-05
4.25784e-05
6.7156e-05
6.71478e-05
6.71438e-05
6.71405e-05
6.95956e-05
6.95821e-05
5.36012e-05
3.7113e-05
2.94965e-05
6.03909e-05
6.48609e-05
7.14204e-05
6.48576e-05
7.14122e-05
5.3651e-05
3.74041e-05
3.00084e-05
6.05803e-05
2.97559e-05
6.04798e-05
5.38593e-05
5.36453e-05
3.7346e-05
2.99942e-05
6.05541e-05
2.97446e-05
6.04189e-05
5.38542e-05
6.48817e-05
7.14546e-05
7.1426e-05
6.49855e-05
6.48785e-05
7.1454e-05
7.14192e-05
6.49851e-05
6.95713e-05
6.95749e-05
4.24742e-05
6.71253e-05
6.71386e-05
6.7043e-05
6.70557e-05
6.96012e-05
6.95742e-05
6.96044e-05
6.95779e-05
6.96025e-05
6.96209e-05
6.96051e-05
6.9623e-05
6.718e-05
6.71916e-05
4.30722e-05
6.71872e-05
6.71942e-05
6.96522e-05
6.96231e-05
6.96544e-05
6.96251e-05
4.32132e-05
6.7266e-05
6.7272e-05
6.71936e-05
6.71995e-05
6.51e-05
7.14622e-05
6.50018e-05
7.14917e-05
5.40917e-05
6.06068e-05
3.02444e-05
3.80599e-05
5.38911e-05
6.06917e-05
3.04941e-05
5.409e-05
6.05975e-05
3.02392e-05
3.80569e-05
5.38872e-05
6.07149e-05
3.04904e-05
6.51158e-05
7.15344e-05
7.14981e-05
6.51922e-05
6.51142e-05
7.15292e-05
7.14971e-05
6.51925e-05
5.41295e-05
3.8269e-05
6.07969e-05
3.09809e-05
6.0706e-05
3.07399e-05
5.4303e-05
5.41283e-05
3.82738e-05
6.08073e-05
3.09799e-05
6.0731e-05
3.07377e-05
5.43031e-05
6.72044e-05
6.72015e-05
4.30831e-05
6.72383e-05
6.7243e-05
6.96074e-05
6.96262e-05
6.9651e-05
6.96268e-05
4.32353e-05
6.72578e-05
6.72567e-05
6.72395e-05
6.72436e-05
6.96505e-05
6.96273e-05
5.40916e-05
6.06142e-05
3.02486e-05
3.80579e-05
5.39031e-05
6.06932e-05
3.04979e-05
6.50889e-05
7.14583e-05
6.50072e-05
7.14887e-05
5.40878e-05
3.02549e-05
6.05961e-05
3.806e-05
5.3902e-05
3.05008e-05
6.06778e-05
6.51067e-05
7.1537e-05
7.14988e-05
6.5187e-05
5.4127e-05
3.82659e-05
6.07965e-05
3.09812e-05
6.07066e-05
3.0742e-05
5.42956e-05
6.51021e-05
7.15331e-05
7.14951e-05
6.51839e-05
5.4123e-05
3.82705e-05
3.09833e-05
6.08167e-05
3.07434e-05
6.06981e-05
5.42935e-05
6.50975e-05
7.14652e-05
6.49966e-05
7.1496e-05
5.40829e-05
3.0239e-05
6.05681e-05
3.80309e-05
5.38831e-05
3.04868e-05
6.0677e-05
6.50954e-05
7.14591e-05
6.49949e-05
7.14931e-05
5.4125e-05
3.82745e-05
6.08133e-05
3.09804e-05
6.07361e-05
3.07377e-05
5.43049e-05
6.51128e-05
7.15331e-05
7.15013e-05
6.51959e-05
5.41216e-05
3.8251e-05
3.09779e-05
6.08074e-05
3.07335e-05
6.06967e-05
5.4302e-05
6.51106e-05
7.15375e-05
7.14994e-05
6.51926e-05
6.71555e-05
6.71467e-05
4.30666e-05
6.7192e-05
6.71844e-05
6.95964e-05
6.96224e-05
6.96575e-05
6.96273e-05
4.32105e-05
6.73115e-05
6.73119e-05
6.72104e-05
6.72044e-05
6.96568e-05
6.96261e-05
5.40814e-05
3.02434e-05
6.05763e-05
3.80288e-05
5.38949e-05
3.04907e-05
6.0678e-05
6.50843e-05
7.14598e-05
6.50013e-05
7.14919e-05
6.50856e-05
7.14598e-05
6.50014e-05
7.14931e-05
5.41184e-05
3.827e-05
3.09834e-05
6.0821e-05
3.0743e-05
6.06972e-05
5.42944e-05
5.41178e-05
3.82477e-05
3.09781e-05
6.08081e-05
3.07354e-05
6.06966e-05
5.42941e-05
6.50989e-05
7.15366e-05
7.14985e-05
6.51877e-05
6.51e-05
7.15404e-05
7.14999e-05
6.51881e-05
6.96033e-05
6.96264e-05
6.96062e-05
6.96286e-05
4.31919e-05
6.72802e-05
6.72882e-05
6.71997e-05
6.72037e-05
6.96569e-05
6.96285e-05
6.96599e-05
6.96308e-05
6.9656e-05
6.96888e-05
6.96583e-05
6.96914e-05
6.72879e-05
6.72949e-05
4.37281e-05
6.74055e-05
6.74166e-05
6.9719e-05
6.96923e-05
6.97213e-05
6.96948e-05
4.38929e-05
6.75014e-05
6.75114e-05
6.74304e-05
6.74421e-05
6.52971e-05
7.15358e-05
6.52071e-05
7.15734e-05
5.45117e-05
6.08212e-05
3.12188e-05
3.89012e-05
5.43377e-05
6.09643e-05
3.14571e-05
5.45096e-05
6.08234e-05
3.12183e-05
3.88829e-05
5.43379e-05
6.09189e-05
3.14552e-05
6.53172e-05
7.16253e-05
7.15908e-05
6.54197e-05
6.53146e-05
7.16231e-05
7.1581e-05
6.54128e-05
5.45497e-05
3.91273e-05
6.11265e-05
3.19409e-05
6.09938e-05
3.16981e-05
5.47375e-05
5.45466e-05
3.90878e-05
6.10619e-05
3.19301e-05
6.09404e-05
3.16922e-05
5.47298e-05
6.72672e-05
6.72654e-05
4.36777e-05
6.73277e-05
6.73309e-05
6.96535e-05
6.96822e-05
6.97178e-05
6.96848e-05
4.38241e-05
6.74334e-05
6.74284e-05
6.7341e-05
6.73449e-05
6.97164e-05
6.96852e-05
5.45145e-05
6.08215e-05
3.12183e-05
3.88975e-05
5.43315e-05
6.09689e-05
3.14567e-05
6.53047e-05
7.15405e-05
6.5201e-05
7.15791e-05
5.45133e-05
3.12214e-05
6.08409e-05
3.88986e-05
5.43297e-05
3.14589e-05
6.09612e-05
6.53273e-05
7.16275e-05
7.15938e-05
6.54302e-05
5.45543e-05
3.91242e-05
6.11318e-05
3.19421e-05
6.09989e-05
3.16984e-05
5.47472e-05
6.53244e-05
7.1619e-05
7.15855e-05
6.54258e-05
5.45526e-05
3.91094e-05
3.19386e-05
6.10811e-05
3.16979e-05
6.09825e-05
5.47431e-05
6.53027e-05
7.15395e-05
6.5211e-05
7.15769e-05
5.45174e-05
3.12207e-05
6.08349e-05
3.89292e-05
5.43379e-05
3.14638e-05
6.09889e-05
6.5303e-05
7.15452e-05
6.52078e-05
7.15856e-05
5.45527e-05
3.90902e-05
6.10663e-05
3.19348e-05
6.09459e-05
3.16964e-05
5.47368e-05
6.53203e-05
7.16271e-05
7.15845e-05
6.54186e-05
5.45557e-05
3.91623e-05
3.19532e-05
6.11425e-05
3.17085e-05
6.1021e-05
5.47447e-05
6.53218e-05
7.16237e-05
7.15921e-05
6.54243e-05
6.73263e-05
6.73274e-05
4.37115e-05
6.73837e-05
6.73851e-05
6.96593e-05
6.96851e-05
6.97147e-05
6.96888e-05
4.3857e-05
6.74273e-05
6.74225e-05
6.7391e-05
6.73915e-05
6.97127e-05
6.96875e-05
5.45214e-05
3.12202e-05
6.08368e-05
3.8926e-05
5.43318e-05
3.14638e-05
6.09963e-05
6.53123e-05
7.15439e-05
6.52059e-05
7.15823e-05
6.53138e-05
7.15483e-05
6.52063e-05
7.15884e-05
5.45604e-05
3.91122e-05
3.19441e-05
6.10846e-05
3.17026e-05
6.09889e-05
5.47506e-05
5.45618e-05
3.91599e-05
3.19551e-05
6.11481e-05
3.17094e-05
6.1029e-05
5.47546e-05
6.53321e-05
7.16213e-05
7.15887e-05
6.54317e-05
6.53337e-05
7.1625e-05
7.15946e-05
6.54344e-05
6.96612e-05
6.96948e-05
6.96644e-05
6.96978e-05
4.39562e-05
6.75113e-05
6.75208e-05
6.74745e-05
6.74888e-05
6.97189e-05
6.96977e-05
6.97212e-05
6.97007e-05
6.97203e-05
6.97394e-05
6.97224e-05
6.9741e-05
6.75047e-05
6.75127e-05
4.43768e-05
6.74976e-05
6.74996e-05
6.97719e-05
6.97414e-05
6.97737e-05
6.97429e-05
4.44959e-05
6.75261e-05
6.75201e-05
6.7493e-05
6.74926e-05
6.55256e-05
7.16312e-05
6.54303e-05
7.1672e-05
5.49551e-05
6.11441e-05
3.21826e-05
3.97516e-05
5.47757e-05
6.12115e-05
3.2421e-05
5.49516e-05
6.10906e-05
3.21699e-05
3.97475e-05
5.4768e-05
6.12424e-05
3.24119e-05
6.55422e-05
7.17061e-05
7.16687e-05
6.5622e-05
6.55417e-05
7.17109e-05
7.16786e-05
6.56266e-05
5.499e-05
3.99355e-05
6.12919e-05
3.2888e-05
6.12211e-05
3.26557e-05
5.5155e-05
5.49884e-05
3.99761e-05
6.13883e-05
3.28969e-05
6.12721e-05
3.26552e-05
5.51616e-05
6.7468e-05
6.74566e-05
4.44178e-05
6.75947e-05
6.75912e-05
6.9721e-05
6.97564e-05
6.97824e-05
6.97596e-05
4.45866e-05
6.76695e-05
6.76731e-05
6.76215e-05
6.76176e-05
6.9783e-05
6.97596e-05
5.49533e-05
6.11485e-05
3.21848e-05
3.97484e-05
5.47847e-05
6.12097e-05
3.2423e-05
6.5512e-05
7.16251e-05
6.54406e-05
7.16609e-05
5.49473e-05
3.21792e-05
6.10956e-05
3.97145e-05
5.47799e-05
3.24162e-05
6.11664e-05
6.55282e-05
7.1706e-05
7.16685e-05
6.5596e-05
5.49844e-05
3.9931e-05
6.12826e-05
3.28842e-05
6.12176e-05
3.26557e-05
5.51333e-05
6.55228e-05
7.17133e-05
7.16687e-05
6.55934e-05
5.49786e-05
3.99136e-05
3.2881e-05
6.13168e-05
3.26494e-05
6.11845e-05
5.51314e-05
6.55284e-05
7.16352e-05
6.54358e-05
7.16756e-05
5.49574e-05
3.21946e-05
6.11553e-05
3.97584e-05
5.47823e-05
3.24306e-05
6.11969e-05
6.55272e-05
7.16288e-05
6.5441e-05
7.16583e-05
5.4992e-05
3.99781e-05
6.13929e-05
3.29009e-05
6.12737e-05
3.26598e-05
5.51615e-05
6.55436e-05
7.17135e-05
7.16819e-05
6.56253e-05
5.49909e-05
3.99319e-05
3.28916e-05
6.12787e-05
3.2662e-05
6.12036e-05
5.51512e-05
6.55409e-05
7.17028e-05
7.16644e-05
6.56176e-05
6.74304e-05
6.7425e-05
4.4327e-05
6.74496e-05
6.7443e-05
6.97147e-05
6.97409e-05
6.97887e-05
6.97472e-05
4.4475e-05
6.76169e-05
6.76108e-05
6.74656e-05
6.7459e-05
6.97873e-05
6.97454e-05
5.49539e-05
3.21972e-05
6.11597e-05
3.97553e-05
5.47912e-05
3.24328e-05
6.11944e-05
6.55122e-05
7.16272e-05
6.54456e-05
7.16624e-05
6.55154e-05
7.16298e-05
6.54484e-05
7.1658e-05
5.49804e-05
3.9915e-05
3.28846e-05
6.1316e-05
3.26538e-05