/*--------------------------------*- C++ -*----------------------------------*\
| =========                 |                                                 |
| \\      /  F ield         | OpenFOAM: The Open Source CFD Toolbox           |
|  \\    /   O peration     | Version:  v2006                                 |
|   \\  /    A nd           | Website:  www.openfoam.com                      |
|    \\/     M anipulation  |                                                 |
\*---------------------------------------------------------------------------*/
FoamFile
{
    version     2.0;
    format      ascii;
    class       surfaceScalarField;
    location    "500";
    object      phi;
}
// * * * * * * * * * * * * * * * * * * * * * * * * * * * * * * * * * * * * * //

dimensions      [0 3 -1 0 0 0 0];
oriented        oriented;


internalField   nonuniform List<scalar> 
123680
(
-1.93328e-07
-1.90854e-07
-0.0011913
1.7542e-07
1.78166e-07
0.00119133
-0.00113981
-1.24118e-06
1.96931e-07
6.0727e-08
0.00113967
-2.44683e-07
1.22317e-06
2.30332e-07
8.58331e-07
-2.4259e-07
-8.97906e-07
2.01035e-07
-0.00113969
-1.23793e-06
1.90911e-07
5.42469e-08
0.00113956
-2.48751e-07
1.21965e-06
2.30774e-07
8.53637e-07
-2.38444e-07
-8.91826e-07
1.99543e-07
-0.000271352
1.26922e-06
1.2276e-06
-2.2515e-07
-2.34646e-07
0.000269315
-1.73973e-07
-1.741e-07
-0.0011914
1.65849e-07
1.65013e-07
0.00119142
-0.00113927
-1.2343e-06
1.63661e-07
3.48387e-08
0.00113914
-2.39831e-07
1.22535e-06
2.31973e-07
8.62848e-07
-2.35392e-07
-8.90609e-07
2.06473e-07
-0.00113917
-1.23295e-06
1.70875e-07
4.56698e-08
0.00113904
-2.43474e-07
1.22115e-06
2.33619e-07
8.5577e-07
-2.34115e-07
-8.86238e-07
2.0188e-07
-0.000271208
1.27192e-06
1.22918e-06
-2.26778e-07
-2.37226e-07
0.000269171
-1.40576e-07
-1.35768e-07
-0.00119144
1.35339e-07
1.43501e-07
0.00119144
-0.00113873
-1.23817e-06
1.57686e-07
7.07033e-08
0.00113859
-2.4511e-07
1.21793e-06
2.25362e-07
8.64674e-07
-2.30779e-07
-8.84668e-07
2.07539e-07
-0.00113865
-1.22681e-06
1.36816e-07
3.98716e-08
0.00113852
-2.38147e-07
1.22319e-06
2.35771e-07
8.61348e-07
-2.26016e-07
-8.78364e-07
2.08923e-07
-0.000271088
1.25171e-06
1.21058e-06
-2.12891e-07
-2.22294e-07
0.000269061
-1.24256e-07
-1.30403e-07
-0.00119142
1.39409e-07
1.30069e-07
0.0011914
-0.00113818
-1.22251e-06
1.1532e-07
1.51072e-08
0.00113806
-2.29072e-07
1.22979e-06
2.37722e-07
8.66778e-07
-2.26201e-07
-8.80465e-07
2.11809e-07
-0.0011381
-1.23071e-06
1.37543e-07
5.56616e-08
0.00113796
-2.42459e-07
1.218e-06
2.33641e-07
8.61262e-07
-2.24476e-07
-8.73658e-07
2.06186e-07
-0.000270982
1.26413e-06
1.21912e-06
-2.19166e-07
-2.31245e-07
0.000268949
-1.11604e-07
-1.10342e-07
-0.00119132
1.2721e-07
1.28288e-07
0.00119129
-0.00113773
-1.22661e-06
1.07833e-07
3.36429e-08
0.00113761
-2.34514e-07
1.22329e-06
2.32633e-07
8.68115e-07
-2.23025e-07
-8.75313e-07
2.1138e-07
-0.00113757
-1.21657e-06
9.6262e-08
5.82738e-09
0.00113747
-2.31136e-07
1.22672e-06
2.39435e-07
8.62322e-07
-2.20095e-07
-8.71632e-07
2.1055e-07
-0.000270849
1.25205e-06
1.21035e-06
-2.13433e-07
-2.23218e-07
0.000268824
-7.33021e-08
-6.95721e-08
-0.00119117
9.03849e-08
9.54224e-08
0.00119112
-0.00113725
-1.22063e-06
7.68085e-08
3.24948e-08
0.00113712
-2.32223e-07
1.22264e-06
2.27982e-07
8.75623e-07
-2.12187e-07
-8.66894e-07
2.21932e-07
-0.00113716
-1.22195e-06
8.18514e-08
3.86985e-08
0.00113704
-2.38267e-07
1.21748e-06
2.29953e-07
8.67932e-07
-2.12714e-07
-8.62677e-07
2.15032e-07
-0.000270767
1.24738e-06
1.20617e-06
-2.10591e-07
-2.19839e-07
0.000268744
-7.38439e-08
-7.34757e-08
-0.00119099
9.89174e-08
1.0104e-07
0.00119094
-0.00113675
-1.21561e-06
7.2536e-08
8.50465e-09
0.00113664
-2.21417e-07
1.23116e-06
2.47966e-07
8.66663e-07
-2.20676e-07
-8.7071e-07
2.1026e-07
-0.00113668
-1.21133e-06
6.39997e-08
1.09451e-08
0.00113657
-2.2455e-07
1.22687e-06
2.43241e-07
8.66513e-07
-2.12003e-07
-8.61267e-07
2.14474e-07
-0.000270677
1.24736e-06
1.20433e-06
-2.07795e-07
-2.18484e-07
0.000268651
-3.79066e-08
-4.41922e-08
-0.00119076
7.94545e-08
6.56662e-08
0.0011907
-0.0011364
-1.20826e-06
2.00911e-08
-1.79171e-08
0.00113632
-2.26836e-07
1.22861e-06
2.343e-07
8.81462e-07
-2.02652e-07
-8.57608e-07
2.29446e-07
-0.00113627
-1.21052e-06
4.32834e-08
4.78159e-09
0.00113617
-2.27787e-07
1.22444e-06
2.38601e-07
8.70382e-07
-2.06465e-07
-8.55713e-07
2.18267e-07
-0.000270573
1.24037e-06
1.19591e-06
-2.04001e-07
-2.15519e-07
0.000268557
-3.48099e-08
-2.1272e-08
-0.00119051
4.66629e-08
7.21632e-08
0.00119044
-0.00113594
-1.22598e-06
6.68991e-08
7.61708e-08
0.00113581
-2.38026e-07
1.21448e-06
2.30781e-07
8.71594e-07
-2.11261e-07
-8.59368e-07
2.13907e-07
-0.00113586
-1.20675e-06
2.03282e-08
-4.92723e-09
0.00113578
-2.22932e-07
1.22689e-06
2.42832e-07
8.70953e-07
-2.05067e-07
-8.5335e-07
2.19014e-07
-0.000270524
1.24141e-06
1.20369e-06
-2.08519e-07
-2.15892e-07
0.000268503
1.82011e-08
6.44957e-09
-0.00119025
3.43372e-08
1.18708e-08
0.00119018
-0.00113555
-1.18177e-06
-2.98664e-08
-1.06602e-07
0.0011355
-1.94206e-07
1.25217e-06
2.63919e-07
8.77885e-07
-2.03584e-07
-8.57753e-07
2.28284e-07
-0.0011355
-1.21142e-06
2.99339e-08
2.56207e-08
0.00113539
-2.31696e-07
1.21653e-06
2.30024e-07
8.73814e-07
-1.98448e-07
-8.46807e-07
2.2158e-07
-0.000270425
1.23422e-06
1.1867e-06
-1.96879e-07
-2.10382e-07
0.000268412
-3.32041e-08
-4.02981e-08
-0.00118991
8.99846e-08
8.32104e-08
0.00118981
-0.00113528
-1.23096e-06
7.95961e-09
8.17707e-08
0.00113517
-2.4943e-07
1.20449e-06
2.18466e-07
8.86603e-07
-1.95652e-07
-8.40209e-07
2.25616e-07
-0.00113505
-1.19894e-06
-1.96776e-08
-1.04712e-08
0.00113497
-2.15782e-07
1.22907e-06
2.45362e-07
8.75194e-07
-1.97204e-07
-8.45329e-07
2.24258e-07
-0.000270385
1.24182e-06
1.19914e-06
-2.04839e-07
-2.15744e-07
0.000268364
3.50857e-08
6.08779e-08
-0.00118957
-2.88425e-08
4.968e-09
0.00118949
-0.00113487
-1.1897e-06
-1.3406e-08
-4.22158e-08
0.00113478
-2.04376e-07
1.23846e-06
2.50152e-07
8.76052e-07
-1.99544e-07
-8.55259e-07
2.28343e-07
-0.00113485
-1.18989e-06
-3.3972e-08
-6.70266e-08
0.00113481
-2.05951e-07
1.23855e-06
2.57664e-07
8.69791e-07
-2.01063e-07
-8.48381e-07
2.19127e-07
-0.0002703
1.2138e-06
1.17926e-06
-1.94315e-07
-1.98637e-07
0.0002683
4.94918e-08
4.22205e-08
-0.00118922
5.93809e-09
-4.54891e-09
0.00118913
-0.00113447
-1.2092e-06
-6.19347e-09
2.77065e-09
0.00113441
-2.22804e-07
1.22644e-06
2.46684e-07
8.71698e-07
-2.09659e-07
-8.49935e-07
2.08904e-07
-0.00113448
-1.22963e-06
-2.03233e-09
1.17629e-07
0.00113433
-2.6164e-07
1.18736e-06
1.92141e-07
8.96089e-07
-1.73232e-07
-8.19242e-07
2.40158e-07
-0.000270303
1.25741e-06
1.20777e-06
-2.06892e-07
-2.2259e-07
0.000268268
2.76519e-08
-2.09456e-08
-0.00118891
7.9725e-08
1.27833e-08
0.00118881
-0.00113453
-1.16927e-06
-1.55204e-07
-1.22592e-07
0.0011345
-1.957e-07
1.24384e-06
2.39228e-07
9.07401e-07
-1.62378e-07
-8.27964e-07
2.7022e-07
-0.00113414
-1.14609e-06
-4.85665e-08
-2.14717e-07
0.00113417
-1.42107e-07
1.28742e-06
3.24673e-07
8.35702e-07
-2.3193e-07
-8.80735e-07
1.89001e-07
-0.000270117
1.197e-06
1.1467e-06
-1.80195e-07
-1.96068e-07
0.000268149
1.35768e-07
2.68241e-07
-0.00118844
-2.58469e-07
-8.53164e-08
0.00118838
-0.00113374
-1.2655e-06
1.54316e-07
2.78668e-07
0.00113352
-2.66178e-07
1.18387e-06
2.27152e-07
8.44305e-07
-2.35818e-07
-8.62468e-07
1.68385e-07
-0.00113404
-1.24972e-06
-1.31187e-07
1.93555e-07
0.00113389
-3.06264e-07
1.14942e-06
1.3065e-07
9.52759e-07
-1.1666e-07
-7.63024e-07
2.94657e-07
-0.000270418
1.23633e-06
1.2273e-06
-2.07626e-07
-1.91462e-07
0.000268354
-1.29811e-08
-2.30319e-07
-0.00118823
3.3134e-07
5.65401e-08
0.00118809
-0.00113395
-1.06781e-06
-3.46083e-07
-6.0641e-07
0.00113418
-1.03324e-07
1.32727e-06
3.03637e-07
9.24136e-07
-1.42772e-07
-8.19832e-07
3.0108e-07
-0.00113349
-1.14795e-06
1.29229e-07
-2.01539e-07
0.00113345
-1.28176e-07
1.28817e-06
3.42581e-07
7.90967e-07
-2.63493e-07
-9.16803e-07
1.52459e-07
-0.000269759
1.25297e-06
1.14687e-06
-1.89424e-07
-2.47016e-07
0.000267795
-1.66802e-07
9.40006e-08
-0.00118745
-8.40822e-08
2.31927e-07
0.00118738
-0.0011336
-1.38751e-06
1.22891e-07
8.92066e-07
0.0011332
-3.87183e-07
1.06783e-06
1.20356e-07
8.58165e-07
-2.1781e-07
-8.36266e-07
1.70447e-07
-0.00113348
-1.22119e-06
-4.35101e-07
1.46557e-07
0.00113355
-2.70406e-07
1.18734e-06
1.80481e-07
9.48809e-07
-1.26531e-07
-7.66117e-07
2.84556e-07
-0.000270555
1.07906e-06
1.12179e-06
-1.44067e-07
-8.86669e-08
0.000268587
7.99332e-07
6.49782e-07
-0.0011874
-5.95715e-07
-7.51167e-07
0.0011873
-0.00113317
-9.49384e-07
-1.22311e-07
-1.1012e-06
0.00113334
2.29926e-08
1.4419e-06
4.13348e-07
8.93013e-07
-1.83415e-07
-8.54889e-07
2.69521e-07
-0.00113379
-1.1131e-06
2.47287e-07
-3.8108e-07
0.00113353
-1.33931e-07
1.28931e-06
2.93317e-07
8.66853e-07
-1.95352e-07
-8.47279e-07
2.27307e-07
-0.000269881
1.41352e-06
1.30838e-06
-2.88702e-07
-3.49894e-07
0.000267798
-7.91021e-07
-8.9446e-07
-0.00118693
9.34361e-07
7.66573e-07
0.00118691
-0.00113296
-1.47559e-06
-4.20876e-08
1.09747e-06
0.00113272
-4.96991e-07
9.66768e-07
6.4025e-09
9.02085e-07
-1.53496e-07
-7.83846e-07
2.21785e-07
-0.00113198
-1.42146e-06
3.03099e-10
9.62638e-07
0.00113173
-4.49211e-07
1.00847e-06
4.8639e-08
8.73185e-07
-1.70619e-07
-8.06004e-07
1.99214e-07
-0.00027015
1.04961e-06
9.93121e-07
-5.55965e-08
-7.49574e-08
0.000268237
6.32908e-07
8.13509e-07
-0.00118668
-7.13315e-07
-4.96416e-07
0.00118644
-0.00113309
-8.67337e-07
-2.74403e-07
-1.38547e-06
0.00113353
1.33476e-07
1.55528e-06
5.58193e-07
8.25339e-07
-2.58783e-07
-9.25805e-07
1.96046e-07
-0.00113287
-8.09163e-07
-5.06706e-07
-1.73493e-06
0.00113365
1.8418e-07
1.60797e-06
6.11935e-07
8.31927e-07
-2.52443e-07
-9.13679e-07
2.01438e-07
-0.000270072
1.37427e-06
1.38945e-06
-3.55353e-07
-3.21662e-07
0.000267985
1.86542e-07
1.94299e-07
-0.00118559
-1.51597e-07
-1.1831e-07
0.00118548
-0.00113346
-1.44944e-06
1.46795e-08
1.17811e-06
0.00113281
-5.38051e-07
9.22303e-07
-1.02379e-07
1.02233e-06
-5.20142e-08
-6.9112e-07
3.41616e-07
-0.00113394
-1.50435e-06
4.4774e-08
1.42698e-06
0.00113314
-6.09993e-07
8.48441e-07
-1.81908e-07
1.05439e-06
-4.15981e-09
-6.46741e-07
3.73139e-07
-0.000270054
1.02981e-06
9.72277e-07
-3.70174e-08
-5.8938e-08
0.000268148
-3.12459e-07
-4.51438e-07
-0.00118582
4.57187e-07
2.83216e-07
0.00118584
-0.00113142
-1.10038e-06
-4.37911e-08
-4.79682e-07
0.00113157
-3.40679e-08
1.36297e-06
4.56536e-07
7.70541e-07
-2.77049e-07
-9.3081e-07
1.26623e-07
-0.00113104
-1.08249e-06
9.69883e-08
-4.6472e-07
0.00113109
4.90485e-09
1.39216e-06
5.15479e-07
7.15179e-07
-3.22763e-07
-9.71774e-07
7.01565e-08
-0.000270176
1.41526e-06
1.34012e-06
-3.05511e-07
-3.42121e-07
0.000268069
4.39796e-07
5.72171e-07
-0.00118532
-4.57365e-07
-3.14981e-07
0.00118508
-0.00113282
-1.09783e-06
-2.40039e-07
-4.60109e-07
0.00113308
-1.71094e-07
1.28828e-06
2.45852e-07
9.12236e-07
-1.71192e-07
-8.22271e-07
2.59078e-07
-0.00113268
-1.06721e-06
-4.20227e-07
-6.45148e-07
0.00113312
-1.64992e-07
1.30282e-06
2.39341e-07
9.41629e-07
-1.35699e-07
-7.86136e-07
2.92684e-07
-0.000269766
1.0876e-06
1.08608e-06
-1.28542e-07
-1.05513e-07
0.000267827
8.5148e-08
3.38915e-08
-0.0011847
-2.2211e-08
-7.61937e-08
0.00118468
-0.00113287
-1.30134e-06
-1.73409e-07
4.54902e-07
0.00113264
-3.1532e-07
1.12477e-06
1.50888e-07
9.34294e-07
-1.38385e-07
-7.751e-07
2.6926e-07
-0.00113299
-1.33754e-06
-6.63284e-08
6.35367e-07
0.00113264
-3.46726e-07
1.08978e-06
1.26536e-07
9.17882e-07
-1.45088e-07
-7.74499e-07
2.53121e-07
-0.000270274
1.25301e-06
1.18945e-06
-2.05638e-07
-2.33978e-07
0.000268271
5.04485e-08
3.19443e-08
-0.00118465
1.9052e-09
-2.00216e-08
0.00118458
-0.0011321
-1.15591e-06
3.45399e-08
-1.68506e-07
0.001132
-1.6528e-07
1.26094e-06
2.83697e-07
8.57162e-07
-2.03734e-07
-8.57586e-07
2.10103e-07
-0.00113185
-1.13295e-06
1.95273e-08
-2.3959e-07
0.00113178
-1.4246e-07
1.27801e-06
3.03759e-07
8.47067e-07
-2.06578e-07
-8.59194e-07
2.04641e-07
-0.000269982
1.23357e-06
1.18951e-06
-1.93156e-07
-2.04434e-07
0.000267957
1.16215e-07
1.46222e-07
-0.0011842
-6.68054e-08
-3.35012e-08
0.00118404
-0.00113191
-1.18414e-06
-2.07375e-07
-2.6443e-08
0.00113192
-2.10254e-07
1.22528e-06
2.35146e-07
8.97872e-07
-1.71527e-07
-8.19333e-07
2.44126e-07
-0.00113185
-1.18796e-06
-2.25735e-07
-2.1238e-08
0.00113189
-2.20248e-07
1.21544e-06
2.2566e-07
8.99221e-07
-1.62426e-07
-8.06514e-07
2.46616e-07
-0.000270046
1.16954e-06
1.13532e-06
-1.65564e-07
-1.69078e-07
0.000268076
-1.26319e-06
-1.22003e-06
0.000271392
-0.000269369
2.26062e-07
2.3446e-07
0.00113919
2.0429e-07
-0.00113934
6.13588e-08
-1.28169e-06
2.37842e-07
-2.53348e-07
-8.97661e-07
1.97121e-07
-2.41724e-07
8.54334e-07
1.25834e-06
0.00113933
2.0593e-07
-0.00113947
6.75161e-08
-1.28178e-06
2.36311e-07
-2.55806e-07
-9.0185e-07
2.00096e-07
-2.44029e-07
8.60473e-07
-1.22089e-06
0.000271384
-0.000269362
2.27744e-07
2.29903e-07
0.00114021
2.03858e-07
-0.00114035
6.37455e-08
-1.2395e-06
2.31817e-07
-2.48445e-07
-8.97163e-07
1.97768e-07
-2.4136e-07
8.54743e-07
1.25823e-06
0.00113919
1.9943e-07
-0.00113933
5.53354e-08
-1.27494e-06
2.34401e-07
-2.50485e-07
-8.99412e-07
2.0149e-07
-2.42767e-07
8.57987e-07
2.04458e-07
-0.00113996
6.87666e-08
-1.24458e-06
2.28199e-07
-2.4762e-07
-8.9899e-07
2.00046e-07
8.57902e-07
-2.43957e-07
1.25159e-06
0.0011389
2.01798e-07
-0.00113904
6.15037e-08
-1.27157e-06
2.3499e-07
-2.51208e-07
-8.96247e-07
2.00567e-07
-2.43483e-07
8.55345e-07
-1.22059e-06
0.000271367
-0.000269346
2.2638e-07
2.31375e-07
1.97456e-07
-0.00113983
5.66751e-08
-1.2379e-06
2.31714e-07
-2.47897e-07
-8.93647e-07
1.99028e-07
8.52791e-07
-2.39834e-07
1.20837e-06
0.00113991
2.00973e-07
-0.00114006
6.39541e-08
-1.22942e-06
2.26169e-07
-2.43625e-07
-8.95551e-07
2.01256e-07
-2.43035e-07
8.55894e-07
-0.000269349
2.23129e-07
2.3416e-07
1.27917e-06
1.23751e-06
-2.27553e-07
-2.34531e-07
0.000269337
-1.26044e-06
-1.21786e-06
0.000271266
-0.000269245
2.24598e-07
2.32472e-07
5.04745e-08
0.00113906
-2.51885e-07
1.26467e-06
2.39052e-07
8.5584e-07
-2.3946e-07
-8.9561e-07
1.98953e-07
-1.27899e-06
1.9654e-07
6.24066e-08
0.00113918
-2.53457e-07
1.26002e-06
2.37887e-07
8.61296e-07
-2.42291e-07
-9.00288e-07
2.01366e-07
0.00113865
1.74257e-07
-0.00113879
5.98329e-08
-1.2791e-06
2.34241e-07
-2.5344e-07
-8.88981e-07
2.03069e-07
-2.33322e-07
8.59829e-07
1.26182e-06
0.00113878
1.67591e-07
-0.00113891
4.51344e-08
-1.27367e-06
2.39436e-07
-2.49649e-07
-8.95166e-07
2.04772e-07
-2.37322e-07
8.64077e-07
-2.30665e-07
-2.33467e-07
0.000269328
-1.22561e-06
0.00027126
-0.000269236
2.31115e-07
2.32735e-07
5.47056e-08
0.00114007
-2.4738e-07
1.22113e-06
2.32784e-07
8.56494e-07
-2.38813e-07
-8.94702e-07
1.99786e-07
-1.27552e-06
1.91159e-07
5.5908e-08
0.00113906
-2.51943e-07
1.25666e-06
2.32847e-07
8.59229e-07
-2.41016e-07
-8.97192e-07
2.02349e-07
0.00113967
1.73224e-07
-0.0011398
5.87503e-08
-1.23673e-06
2.28953e-07
-2.48065e-07
-8.88641e-07
2.03393e-07
-2.33152e-07
8.5989e-07
1.25798e-06
0.00113867
1.69008e-07
-0.0011388
5.20223e-08
-1.27248e-06
2.36313e-07
-2.47759e-07
-8.91914e-07
2.04732e-07
-2.37121e-07
8.61771e-07
1.9417e-07
5.54731e-08
0.00113876
-2.49457e-07
1.25257e-06
2.35527e-07
8.5652e-07
-2.4159e-07
2.02341e-07
-8.94585e-07
1.71305e-07
-0.0011394
3.72458e-08
-1.23506e-06
2.32415e-07
-2.40157e-07
-8.92893e-07
2.04499e-07
8.61137e-07
-2.37662e-07
1.24622e-06
0.00113832
1.83024e-07
-0.00113847
7.51574e-08
-1.27137e-06
2.2819e-07
-2.5445e-07
-8.88283e-07
2.05508e-07
-2.35559e-07
8.59854e-07
-2.28362e-07
-2.33325e-07
0.000269315
-1.22196e-06
0.000271245
-0.000269225
2.28103e-07
2.3198e-07
1.91296e-07
5.97488e-08
0.00113977
-2.42248e-07
1.20898e-06
2.26499e-07
8.57288e-07
-2.40855e-07
2.03195e-07
-8.93481e-07
1.73434e-07
-0.0011393
4.39303e-08
-1.23371e-06
2.34946e-07
-2.43613e-07
-8.87056e-07
2.01596e-07
8.55852e-07
-2.35021e-07
1.20377e-06
0.00113933
1.82421e-07
-0.00113948
7.37932e-08
-1.22887e-06
2.20248e-07
-2.46247e-07
-8.87993e-07
2.05705e-07
-2.35492e-07
8.59771e-07
-0.000269209
2.19985e-07
2.30293e-07
1.28077e-06
1.23813e-06
-2.27952e-07
-2.35726e-07
0.000269211
-1.26877e-06
-1.22504e-06
0.00027114
-0.000269117
2.31051e-07
2.39641e-07
6.68681e-08
0.00113851
-2.55646e-07
1.25847e-06
2.32702e-07
8.59788e-07
-2.3282e-07
-8.87854e-07
2.02456e-07
-1.27267e-06
1.60299e-07
4.14061e-08
0.00113865
-2.49068e-07
1.26183e-06
2.39307e-07
8.65694e-07
-2.35187e-07
-8.92962e-07
2.06624e-07
0.00113811
1.52997e-07
-0.00113824
2.92701e-08
-1.26966e-06
2.4658e-07
-2.41748e-07
-8.85996e-07
2.0244e-07
-2.32131e-07
8.59384e-07
1.25605e-06
0.00113824
1.59875e-07
-0.00113839
6.41153e-08
-1.27502e-06
2.33212e-07
-2.53243e-07
-8.87934e-07
2.08389e-07
-2.30743e-07
8.67769e-07
-2.26065e-07
-2.2906e-07
0.000269208
-1.21821e-06
0.000271129
-0.000269111
2.26747e-07
2.29541e-07
6.40941e-08
0.00113953
-2.50093e-07
1.2161e-06
2.27514e-07
8.59767e-07
-2.32761e-07
-8.8762e-07
2.0275e-07
-1.27147e-06
1.6677e-07
5.24151e-08
0.00113854
-2.47302e-07
1.25751e-06
2.35382e-07
8.6155e-07
-2.36379e-07
-8.91234e-07
2.04828e-07
0.00113913
1.49092e-07
-0.00113926
3.80351e-08
-1.22821e-06
2.40073e-07
-2.37424e-07
-8.85494e-07
2.03114e-07
-2.31656e-07
8.59661e-07
1.26248e-06
0.00113815
1.45374e-07
-0.00113828
3.15974e-08
-1.26479e-06
2.41497e-07
-2.40838e-07
-8.86608e-07
2.08266e-07
-2.3213e-07
8.64378e-07
1.82617e-07
7.79342e-08
0.00113817
-2.54604e-07
1.24579e-06
2.29096e-07
8.58656e-07
-2.36437e-07
2.03472e-07
-8.88078e-07
1.58857e-07
-0.00113888
6.66079e-08
-1.238e-06
2.24559e-07
-2.45356e-07
-8.85139e-07
2.08699e-07
8.65306e-07
-2.30487e-07
1.26129e-06
0.00113778
1.47401e-07
-0.0011379
1.63963e-08
-1.25516e-06
2.4757e-07
-2.34828e-07
-8.86792e-07
2.04963e-07
-2.35446e-07
8.58461e-07
-2.24114e-07
-2.29766e-07
0.000269194
-1.22448e-06
0.000271127
-0.000269107
2.30896e-07
2.36318e-07
1.83071e-07
7.48599e-08
0.00113919
-2.46252e-07
1.20348e-06
2.21213e-07
8.58573e-07
-2.36414e-07
2.03727e-07
-8.87852e-07
1.43713e-07
-0.00113878
3.44233e-08
-1.22795e-06
2.38229e-07
-2.38583e-07
-8.80873e-07
2.06087e-07
8.59342e-07
-2.29047e-07
1.21745e-06
0.00113879
1.42951e-07
-0.00113892
2.52572e-08
-1.21382e-06
2.38263e-07
-2.27844e-07
-8.86066e-07
2.05769e-07
-2.34782e-07
8.58867e-07
-0.000269082
2.30657e-07
2.41952e-07
1.26563e-06
1.22442e-06
-2.17443e-07
-2.24362e-07
0.000269092
-1.25983e-06
-1.21908e-06
0.000271031
-0.000269012
2.26657e-07
2.33113e-07
1.79455e-08
0.00113799
-2.38493e-07
1.27075e-06
2.47237e-07
8.60988e-07
-2.2953e-07
-8.84155e-07
2.05206e-07
-1.275e-06
1.59236e-07
6.76624e-08
0.0011381
-2.52856e-07
1.25584e-06
2.34087e-07
8.67114e-07
-2.31104e-07
-8.87459e-07
2.07216e-07
0.00113762
1.25908e-07
-0.00113775
4.6717e-08
-1.27237e-06
2.3366e-07
-2.50414e-07
-8.75553e-07
2.11286e-07
-2.2085e-07
8.67346e-07
1.26605e-06
0.00113769
1.29399e-07
-0.00113782
2.68216e-08
-1.26274e-06
2.46241e-07
-2.38865e-07
-8.85361e-07
2.08842e-07
-2.29246e-07
8.67459e-07
-2.28387e-07
-2.30296e-07
0.000269074
-1.22865e-06
0.000271004
-0.000268981
2.35088e-07
2.37388e-07
2.74232e-08
0.001139
-2.34296e-07
1.22692e-06
2.40754e-07
8.61337e-07
-2.29021e-07
-8.83561e-07
2.05866e-07
-1.26347e-06
1.39018e-07
3.65825e-08
0.00113802
-2.40275e-07
1.26127e-06
2.39082e-07
8.66333e-07
-2.29125e-07
-8.84188e-07
2.11116e-07
0.00113864
1.27735e-07
-0.00113876
3.61122e-08
-1.22853e-06
2.30448e-07
-2.43275e-07
-8.75487e-07
2.10926e-07
-2.2128e-07
8.67068e-07
1.25055e-06
0.0011376
1.43827e-07
-0.00113774
6.83056e-08
-1.2723e-06
2.28756e-07
-2.51984e-07
-8.78751e-07
2.10434e-07
-2.25857e-07
8.68145e-07
1.33759e-07
7.5865e-09
0.00113766
-2.33139e-07
1.26202e-06
2.45936e-07
8.60933e-07
-2.31652e-07
2.08913e-07
-8.84226e-07
1.28316e-07
-0.00113831
2.74019e-08
-1.22549e-06
2.38003e-07
-2.30712e-07
-8.8243e-07
2.08982e-07
8.65087e-07
-2.29086e-07
1.24671e-06
0.00113731
1.27232e-07
-0.00113743
5.14336e-08
-1.26388e-06
2.29016e-07
-2.50414e-07
-8.7471e-07
2.13639e-07
-2.23393e-07
8.67677e-07
-2.18769e-07
-2.23006e-07
0.000269078
-1.21315e-06
0.000270984
-0.000268971
2.2311e-07
2.27956e-07
1.28626e-07
1.71554e-08
0.00113867
-2.26246e-07
1.21813e-06
2.36695e-07
8.61334e-07
-2.31017e-07
2.09631e-07
-8.83477e-07
1.42583e-07
-0.00113824
6.86108e-08
-1.23507e-06
2.26097e-07
-2.49272e-07
-8.73134e-07
2.0791e-07
8.62912e-07
-2.23088e-07
1.20598e-06
0.00113832
1.29086e-07
-0.00113844
4.07675e-08
-1.22002e-06
2.23089e-07
-2.40517e-07
-8.74635e-07
2.13256e-07
-2.23838e-07
8.67324e-07
-0.000268983
2.22346e-07
2.31352e-07
1.27416e-06
1.22917e-06
-2.21025e-07
-2.30513e-07
0.00026898
-1.2636e-06
-1.22159e-06
0.0002709
-0.000268881
2.2924e-07
2.36843e-07
5.82104e-08
0.00113749
-2.51028e-07
1.25803e-06
2.33579e-07
8.67693e-07
-2.20346e-07
-8.73981e-07
2.10875e-07
-1.25999e-06
1.15674e-07
1.55064e-08
0.00113757
-2.37473e-07
1.26696e-06
2.45727e-07
8.69421e-07
-2.26221e-07
-8.83151e-07
2.11818e-07
0.00113708
1.17036e-07
-0.00113721
4.47969e-08
-1.26715e-06
2.41605e-07
-2.42138e-07
-8.74695e-07
2.07256e-07
-2.2214e-07
8.64024e-07
1.25983e-06
0.00113724
1.07099e-07
-0.00113735
3.18095e-08
-1.26466e-06
2.38325e-07
-2.45023e-07
-8.77349e-07
2.13082e-07
-2.21666e-07
8.72195e-07
-2.17174e-07
-2.19665e-07
0.000268958
-1.22257e-06
0.000270908
-0.000268888
2.29884e-07
2.32273e-07
4.17992e-08
0.00113851
-2.42826e-07
1.21835e-06
2.31257e-07
8.66754e-07
-2.21321e-07
-8.74501e-07
2.10017e-07
-1.26816e-06
1.38154e-07
5.62258e-08
0.00113745
-2.45415e-07
1.25517e-06
2.36068e-07
8.66655e-07
-2.27182e-07
-8.79124e-07
2.08781e-07
0.0011381
1.22314e-07
-0.00113823
4.24011e-08
-1.2237e-06
2.36318e-07
-2.36134e-07
-8.75472e-07
2.07193e-07
-2.22689e-07
8.63314e-07
1.26397e-06
0.00113708
1.08633e-07
-0.00113719
1.41241e-08
-1.2548e-06
2.43112e-07
-2.32874e-07
-8.79436e-07
2.10655e-07
-2.25462e-07
8.65428e-07
1.25151e-07
6.03042e-08
0.00113717
-2.4844e-07
1.24688e-06
2.31625e-07
8.67527e-07
-2.23511e-07
2.12873e-07
-8.73551e-07
1.07408e-07
-0.00113784
3.10759e-08
-1.2272e-06
2.30246e-07
-2.36577e-07
-8.74859e-07
2.13192e-07
8.69521e-07
-2.21634e-07
1.25255e-06
0.00113676
1.16875e-07
-0.00113689
4.3409e-08
-1.25564e-06
2.38075e-07
-2.39129e-07
-8.74772e-07
2.10567e-07
-2.24509e-07
8.63914e-07
-2.22772e-07
-2.27692e-07
0.000268936
-1.22686e-06
0.000270879
-0.000268858
2.32712e-07
2.37394e-07
1.31162e-07
4.37751e-08
0.00113819
-2.37486e-07
1.20721e-06
2.26588e-07
8.6658e-07
-2.24427e-07
2.12052e-07
-8.74016e-07
1.09728e-07
-0.00113769
1.35099e-08
-1.21719e-06
2.40613e-07
-2.29846e-07
-8.74304e-07
2.07892e-07
8.59795e-07
-2.22992e-07
1.21061e-06
0.00113777
1.22511e-07
-0.0011379
4.07449e-08
-1.21213e-06
2.30112e-07
-2.30327e-07
-8.75505e-07
2.10415e-07
-2.25079e-07
8.63116e-07
-0.00026885
2.26635e-07
2.3675e-07
1.26248e-06
1.22083e-06
-2.15697e-07
-2.22844e-07
0.000268855
-1.27069e-06
-1.22662e-06
0.000270822
-0.000268799
2.32855e-07
2.4199e-07
2.64156e-08
0.00113696
-2.37461e-07
1.26768e-06
2.4592e-07
8.62812e-07
-2.22809e-07
-8.75437e-07
2.06505e-07
-1.2639e-06
1.0848e-07
3.3736e-08
0.00113712
-2.42761e-07
1.26071e-06
2.40896e-07
8.70504e-07
-2.23282e-07
-8.78046e-07
2.11053e-07
0.00113663
7.49443e-08
-0.00113673
1.17286e-09
-1.2545e-06
2.45465e-07
-2.32673e-07
-8.68898e-07
2.15773e-07
-2.14317e-07
8.69478e-07
1.26646e-06
0.00113676
7.79771e-08
-0.00113688
1.61816e-08
-1.25417e-06
2.44846e-07
-2.33866e-07
-8.73349e-07
2.19117e-07
-2.16489e-07
8.7529e-07
-2.20947e-07
-2.23199e-07
0.000268862
-1.22924e-06
0.00027081
-0.00026879
2.36678e-07
2.3902e-07
3.34003e-08
0.00113797
-2.33268e-07
1.22385e-06
2.38911e-07
8.63435e-07
-2.22208e-07
-8.7498e-07
2.07587e-07
-1.25396e-06
9.63341e-08
5.88799e-09
0.00113697
-2.33937e-07
1.26408e-06
2.42167e-07
8.67616e-07
-2.22822e-07
-8.77026e-07
2.13002e-07
0.00113764
6.86796e-08
-0.00113775
7.0487e-09
-1.21392e-06
2.38857e-07
-2.28879e-07
-8.6735e-07
2.1692e-07
-2.13086e-07
8.70442e-07
1.25901e-06
0.00113666
7.79789e-08
-0.00113677
2.49202e-08
-1.25567e-06
2.3701e-07
-2.36636e-07
-8.69358e-07
2.17931e-07
-2.16123e-07
8.73092e-07
1.10084e-07
2.65713e-08
0.00113664
-2.36134e-07
1.25565e-06
2.41132e-07
8.63678e-07
-2.24199e-07
2.10658e-07
-8.74579e-07
7.84014e-08
-0.00113737
1.43571e-08
-1.21673e-06
2.36646e-07
-2.25564e-07
-8.70477e-07
2.19239e-07
8.72796e-07
-2.16361e-07
1.25832e-06
0.0011363
8.28263e-08
-0.00113641
9.13011e-09
-1.24548e-06
2.42505e-07
-2.3119e-07
-8.70043e-07
2.14983e-07
-2.19321e-07
8.67076e-07
-2.13534e-07
-2.184e-07
0.00026884
-1.22155e-06
0.000270798
-0.000268782
2.29436e-07
2.34608e-07
1.0924e-07
3.33985e-08
0.00113765
-2.29164e-07
1.21186e-06
2.31413e-07
8.64133e-07
-2.23663e-07
2.11629e-07
-8.74183e-07
7.73951e-08
-0.00113727
2.32241e-08
-1.21853e-06
2.3422e-07
-2.33974e-07
-8.63485e-07
2.15715e-07
8.68053e-07
-2.12993e-07
1.21406e-06
0.00113731
7.56622e-08
-0.00113742
1.52811e-08
-1.20506e-06
2.3304e-07
-2.24797e-07
-8.68188e-07
2.16338e-07
-2.17848e-07
8.68282e-07
-0.000268764
2.28727e-07
2.40656e-07
1.25939e-06
1.21803e-06
-2.12974e-07
-2.19841e-07
0.000268777
-1.26169e-06
-1.21918e-06
0.000270706
-0.00026869
2.2857e-07
2.36179e-07
1.72362e-08
0.00113652
-2.39977e-07
1.26387e-06
2.37047e-07
8.72823e-07
-2.10363e-07
-8.64754e-07
2.18382e-07
-1.25773e-06
7.68711e-08
3.06845e-08
0.00113664
-2.40149e-07
1.26033e-06
2.36654e-07
8.78372e-07
-2.12303e-07
-8.6948e-07
2.21759e-07
0.00113617
8.34554e-08
-0.00113629
3.37624e-08
-1.26359e-06
2.41073e-07
-2.40531e-07
-8.63877e-07
2.1199e-07
-2.13455e-07
8.6918e-07
1.25906e-06
0.00113627
9.26757e-08
-0.00113639
3.69253e-08
-1.26199e-06
2.41766e-07
-2.41382e-07
-8.71436e-07
2.10711e-07
-2.19267e-07
8.71204e-07
-2.14685e-07
-2.16884e-07
0.000268763
-1.22012e-06
0.000270687
-0.000268669
2.29305e-07
2.32786e-07
2.13455e-08
0.00113753
-2.35356e-07
1.2206e-06
2.31184e-07
8.72807e-07
-2.09996e-07
-8.64216e-07
2.18676e-07
-1.25888e-06
8.25595e-08
3.66927e-08
0.00113654
-2.40641e-07
1.25522e-06
2.33131e-07
8.73275e-07
-2.15627e-07
-8.68246e-07
2.17462e-07
0.00113718
8.09179e-08
-0.0011373
3.73971e-08
-1.22127e-06
2.3584e-07
-2.35128e-07
-8.63854e-07
2.12143e-07
-2.13571e-07
8.69135e-07
1.2628e-06
0.00113619
7.53416e-08
-0.00113631
1.46935e-08
-1.25152e-06
2.44733e-07
-2.30328e-07
-8.67364e-07
2.15889e-07
-2.16013e-07
8.71682e-07
7.77806e-08
1.13447e-08
0.0011362
-2.34469e-07
1.25534e-06
2.38743e-07
8.68961e-07
-2.17231e-07
2.16503e-07
-8.67659e-07
8.60708e-08
-0.00113687
4.71108e-08
-1.22636e-06
2.32101e-07
-2.34744e-07
-8.67879e-07
2.11642e-07
8.69573e-07
-2.18321e-07
1.25557e-06
0.00113589
6.11099e-08
-0.001136
9.81885e-09
-1.24618e-06
2.41058e-07
-2.32205e-07
-8.60896e-07
2.20979e-07
-2.11336e-07
8.73272e-07
-2.16353e-07
-2.20887e-07
0.000268755
-1.22401e-06
0.000270687
-0.000268671
2.32538e-07
2.38399e-07
7.32325e-08
1.54286e-08
0.00113721
-2.27181e-07
1.21195e-06
2.3013e-07
8.69092e-07
-2.16628e-07
2.16974e-07
-8.6682e-07
6.9455e-08
-0.0011368
2.47342e-08
-1.21572e-06
2.40681e-07
-2.29043e-07
-8.61288e-07
2.14006e-07
8.67055e-07
-2.12632e-07
1.21325e-06
0.0011369
5.90555e-08
-0.00113701
1.31321e-08
-1.20365e-06
2.33238e-07
-2.23893e-07
-8.61012e-07
2.20998e-07
-2.11575e-07
8.73069e-07
-0.000268677
2.29808e-07
2.39837e-07
1.25732e-06
1.21441e-06
-2.10866e-07
-2.18923e-07
0.000268664
-1.26725e-06
-1.22736e-06
0.000270634
-0.000268612
2.33302e-07
2.39557e-07
2.08405e-08
0.00113605
-2.32651e-07
1.26724e-06
2.4765e-07
8.67483e-07
-2.14298e-07
-8.65457e-07
2.11679e-07
-1.25204e-06
7.69713e-08
5.98597e-09
0.00113616
-2.2902e-07
1.269e-06
2.53667e-07
8.6857e-07
-2.21401e-07
-8.74174e-07
2.0963e-07
0.00113573
4.3673e-08
-0.00113583
1.52098e-08
-1.25213e-06
2.43105e-07
-2.32083e-07
-8.62239e-07
2.16556e-07
-2.08859e-07
8.70388e-07
1.27372e-06
0.00113591
1.58812e-08
-0.00113599
-3.68723e-08
-1.23963e-06
2.50718e-07
-2.22103e-07
-8.65345e-07
2.25416e-07
-2.07739e-07
8.79405e-07
-2.14014e-07
-2.15574e-07
0.000268649
-1.2388e-06
0.000270655
-0.000268629
2.42809e-07
2.43342e-07
1.79761e-08
0.00113706
-2.26589e-07
1.22549e-06
2.43224e-07
8.67512e-07
-2.14404e-07
-8.6523e-07
2.11734e-07
-1.24783e-06
6.80191e-08
8.54674e-09
0.00113607
-2.26712e-07
1.2647e-06
2.46178e-07
8.712e-07
-2.15298e-07
-8.67436e-07
2.16546e-07
0.00113675
5.04317e-08
-0.00113684
-2.61027e-09
-1.20716e-06
2.4034e-07
-2.24046e-07
-8.62494e-07
2.16204e-07
-2.09454e-07
8.69902e-07
1.26014e-06
0.00113577
4.41933e-08
-0.00113586
1.02744e-08
-1.24966e-06
2.38838e-07
-2.32798e-07
-8.62428e-07
2.21087e-07
-2.09638e-07
8.75393e-07
6.361e-08
2.70003e-08
0.00113577
-2.34007e-07
1.25243e-06
2.37288e-07
8.72436e-07
-2.10779e-07
2.20557e-07
-8.60802e-07
2.20004e-08
-0.00113647
-4.97947e-08
-1.2e-06
2.47602e-07
-2.142e-07
-8.63637e-07
2.24499e-07
8.75763e-07
-2.08783e-07
1.25271e-06
0.00113541
6.4521e-08
-0.00113552
3.8096e-08
-1.24775e-06
2.40188e-07
-2.3363e-07
-8.63925e-07
2.1386e-07
-2.15702e-07
8.67049e-07
-2.08543e-07
-2.12615e-07
0.000268649
-1.22501e-06
0.000270613
-0.000268595
2.32003e-07
2.35256e-07
6.35663e-08
2.38714e-08
0.00113678
-2.25129e-07
1.21072e-06
2.30163e-07
8.72469e-07
-2.10882e-07
2.20631e-07
-8.60552e-07
4.97482e-08
-0.00113636
-1.9235e-09
-1.21028e-06
2.38333e-07
-2.27797e-07
-8.57893e-07
2.17567e-07
8.69074e-07
-2.07866e-07
1.21279e-06
0.00113642
7.11081e-08
-0.00113653
1.99924e-08
-1.20284e-06
2.34672e-07
-2.22906e-07
-8.64067e-07
2.13565e-07
-2.1617e-07
8.66585e-07
-0.000268574
2.28521e-07
2.37374e-07
1.25353e-06
1.20907e-06
-2.08202e-07
-2.17153e-07
0.000268597
-1.268e-06
-1.22204e-06
0.000270562
-0.000268544
2.3069e-07
2.40871e-07
1.16431e-08
0.00113563
-2.34513e-07
1.26594e-06
2.42012e-07
8.72391e-07
-2.07128e-07
-8.59663e-07
2.176e-07
-1.24738e-06
1.44754e-08
-9.98411e-09
0.00113583
-2.3406e-07
1.26434e-06
2.38399e-07
8.84902e-07
-2.01732e-07
-8.59305e-07
2.30206e-07
0.00113537
2.35461e-08
-0.00113546
-1.36106e-08
-1.2494e-06
2.44819e-07
-2.29308e-07
-8.52879e-07
2.22817e-07
-2.01155e-07
8.77312e-07
1.24665e-06
0.00113546
6.34009e-08
-0.00113561
8.08336e-08
-1.2668e-06
2.27131e-07
-2.50659e-07
-8.56197e-07
2.20911e-07
-2.05037e-07
8.81598e-07
-2.0687e-07
-2.10731e-07
0.000268617
-1.20776e-06
0.000270524
-0.000268517
2.21912e-07
2.25426e-07
-2.58091e-09
0.00113666
-2.27118e-07
1.22536e-06
2.38405e-07
8.71968e-07
-2.07548e-07
-8.59882e-07
2.17482e-07
-1.24948e-06
3.82374e-08
1.23213e-08
0.00113567
-2.32165e-07
1.26026e-06
2.39979e-07
8.7663e-07
-2.08285e-07
-8.60196e-07