/*--------------------------------*- C++ -*----------------------------------*\
| =========                 |                                                 |
| \\      /  F ield         | OpenFOAM: The Open Source CFD Toolbox           |
|  \\    /   O peration     | Version:  v2012                                 |
|   \\  /    A nd           | Website:  www.openfoam.com                      |
|    \\/     M anipulation  |                                                 |
\*---------------------------------------------------------------------------*/
FoamFile
{
    version     2.0;
    format      ascii;
    class       volScalarField;
    location    "1900";
    object      k;
}
// * * * * * * * * * * * * * * * * * * * * * * * * * * * * * * * * * * * * * //

dimensions      [0 2 -2 0 0 0 0];


internalField   nonuniform List<scalar> 
171728
(
1.6072e-07
2.93781e-07
2.49908e-07
3.63739e-07
1.59817e-07
2.90458e-07
2.36082e-07
3.44301e-07
1.57011e-07
2.90263e-07
2.24532e-07
3.26778e-07
1.53714e-07
2.96359e-07
2.159e-07
3.11504e-07
1.52938e-07
3.07807e-07
2.06789e-07
2.97253e-07
1.52101e-07
3.24064e-07
1.96969e-07
2.82412e-07
1.50241e-07
3.69785e-07
1.88176e-07
2.63996e-07
1.48692e-07
4.42661e-07
1.82805e-07
2.42156e-07
1.46194e-07
5.39606e-07
1.81323e-07
2.19643e-07
1.44996e-07
6.56867e-07
1.79395e-07
2.03624e-07
1.44591e-07
7.18991e-07
1.76068e-07
1.99108e-07
1.43328e-07
6.51969e-07
1.72395e-07
2.03723e-07
1.3957e-07
4.17071e-07
1.7009e-07
2.15319e-07
1.36239e-07
3.0395e-07
1.68682e-07
2.66304e-07
1.36213e-07
2.7446e-07
1.68969e-07
3.29965e-07
1.39512e-07
2.75308e-07
1.72597e-07
3.60276e-07
1.45096e-07
3.17618e-07
1.81535e-07
3.90356e-07
1.45131e-07
6.52943e-07
1.98541e-07
4.05447e-07
1.19689e-07
9.28197e-07
2.28242e-07
4.06508e-07
9.88768e-08
9.28789e-07
2.82125e-07
3.29563e-07
9.02958e-08
7.87141e-07
3.60553e-07
4.78802e-07
8.95127e-08
9.53858e-07
4.81005e-07
6.09017e-07
9.06162e-08
8.91864e-07
6.40923e-07
9.3978e-07
9.1771e-08
8.82583e-07
8.90518e-07
1.69142e-06
9.39127e-08
1.1245e-06
1.20288e-06
2.67016e-06
9.82741e-08
1.67395e-06
1.70265e-06
3.44835e-06
1.06621e-07
2.13754e-06
2.11935e-06
6.23668e-06
1.13554e-07
2.65723e-06
2.92505e-06
7.00332e-06
1.32281e-07
3.59507e-06
3.3865e-06
1.0124e-05
1.57284e-07
4.2174e-06
4.63094e-06
1.25865e-05
1.78038e-07
5.55721e-06
5.18144e-06
1.43376e-05
2.31099e-07
6.1823e-06
6.7e-06
1.7799e-05
3.14481e-07
7.89319e-06
7.61137e-06
1.9282e-05
3.69255e-07
9.19095e-06
9.31479e-06
2.12612e-05
5.30438e-07
1.02273e-05
1.01524e-05
2.35724e-05
7.60852e-07
1.22545e-05
1.27387e-05
2.49092e-05
8.15338e-07
1.46465e-05
1.37736e-05
2.67413e-05
1.06386e-06
1.48009e-05
1.50417e-05
2.78174e-05
1.49963e-06
1.75242e-05
1.79168e-05
2.95066e-05
1.70207e-06
1.98467e-05
1.84612e-05
3.02378e-05
2.38577e-06
2.01762e-05
2.11811e-05
3.17499e-05
2.80393e-06
2.27429e-05
2.26091e-05
3.28422e-05
3.55412e-06
2.37686e-05
2.43842e-05
3.36854e-05
3.76431e-06
2.71063e-05
2.62024e-05
3.53613e-05
4.56778e-06
2.81958e-05
2.73556e-05
3.47065e-05
6.42927e-06
2.84186e-05
2.9905e-05
3.91957e-05
7.08594e-06
3.20961e-05
3.22945e-05
3.89382e-05
8.63243e-06
3.32964e-05
3.24556e-05
3.86328e-05
8.91561e-06
3.34859e-05
3.34404e-05
3.89819e-05
9.90925e-06
3.56755e-05
3.58804e-05
4.19729e-05
1.22518e-05
3.65111e-05
3.67502e-05
4.29921e-05
1.38786e-05
3.79798e-05
3.78083e-05
4.31379e-05
1.50715e-05
3.96741e-05
3.97611e-05
4.35933e-05
1.71778e-05
4.01683e-05
4.02624e-05
4.43412e-05
1.7472e-05
4.1662e-05
4.09393e-05
4.60533e-05
1.88649e-05
4.24472e-05
4.30756e-05
4.66887e-05
2.19905e-05
4.26112e-05
4.35927e-05
4.69713e-05
2.45621e-05
4.49349e-05
4.3636e-05
4.77658e-05
2.44986e-05
4.58036e-05
4.55355e-05
4.87136e-05
2.40988e-05
4.56945e-05
4.64252e-05
4.89093e-05
2.64978e-05
4.68412e-05
4.67429e-05
4.99471e-05
3.00653e-05
4.79951e-05
4.78454e-05
5.03033e-05
3.06886e-05
4.86785e-05
4.83129e-05
5.11282e-05
3.07895e-05
4.93401e-05
4.95301e-05
5.12849e-05
3.17386e-05
4.93003e-05
4.99065e-05
5.22391e-05
3.31413e-05
5.08878e-05
5.04648e-05
5.33808e-05
3.50969e-05
5.15525e-05
5.14809e-05
5.33617e-05
3.60373e-05
5.16246e-05
5.16353e-05
5.32106e-05
3.62778e-05
5.23659e-05
5.23622e-05
5.39396e-05
3.7241e-05
5.24544e-05
5.24153e-05
5.36383e-05
3.79816e-05
5.32888e-05
5.31759e-05
5.45054e-05
3.95118e-05
5.35821e-05
5.43221e-05
5.70218e-05
4.06773e-05
5.46012e-05
5.48947e-05
5.74043e-05
4.12473e-05
5.47947e-05
5.44657e-05
5.47451e-05
4.13751e-05
5.44895e-05
5.36855e-05
5.36565e-05
4.17861e-05
5.4738e-05
5.47606e-05
5.70006e-05
4.31148e-05
5.6052e-05
5.65687e-05
5.85636e-05
4.37177e-05
5.62915e-05
5.66517e-05
5.74954e-05
4.43056e-05
5.64573e-05
5.64412e-05
5.69789e-05
4.50284e-05
5.63345e-05
5.58296e-05
5.69183e-05
4.45774e-05
5.56786e-05
5.56241e-05
5.68019e-05
4.444e-05
5.62579e-05
5.68773e-05
5.76644e-05
4.6227e-05
5.751e-05
5.7191e-05
5.78076e-05
4.68646e-05
5.76672e-05
5.69786e-05
5.86467e-05
4.61891e-05
5.70443e-05
5.71185e-05
5.89901e-05
4.58538e-05
5.67892e-05
5.74622e-05
5.77745e-05
4.64536e-05
5.68484e-05
5.73518e-05
5.74679e-05
4.68458e-05
5.68009e-05
5.66844e-05
5.77891e-05
4.67818e-05
5.7081e-05
5.6737e-05
5.82698e-05
4.69339e-05
5.7705e-05
5.72532e-05
5.8685e-05
4.71343e-05
5.75299e-05
5.72102e-05
5.8118e-05
4.69282e-05
5.64862e-05
5.70885e-05
5.75259e-05
4.6679e-05
5.61687e-05
5.68706e-05
5.76288e-05
4.60421e-05
5.58558e-05
5.55932e-05
5.71784e-05
4.5827e-05
5.61624e-05
5.50957e-05
5.82704e-05
2.26559e-07
2.88136e-07
2.95581e-07
2.85105e-07
2.10328e-07
2.91941e-07
1.57942e-07
1.87847e-07
1.44141e-07
1.72824e-07
2.24941e-07
3.03805e-07
3.56416e-07
2.59169e-07
3.41414e-07
3.65528e-07
2.23301e-07
2.16111e-07
3.44846e-07
5.5064e-07
3.36715e-07
5.49931e-07
2.81531e-07
2.75401e-07
2.69313e-07
2.70033e-07
2.54465e-07
2.6371e-07
3.78426e-07
2.91129e-07
3.67645e-07
3.554e-07
3.2992e-07
3.32951e-07
2.39484e-07
3.18103e-07
3.47012e-07
2.14235e-07
2.10745e-07
3.33113e-07
5.45472e-07
3.20718e-07
5.11852e-07
2.72745e-07
2.66385e-07
2.49819e-07
2.6137e-07
2.38387e-07
2.54799e-07
3.62876e-07
2.90047e-07
3.52517e-07
3.28549e-07
3.06319e-07
3.13468e-07
2.27079e-07
3.00588e-07
3.295e-07
2.0938e-07
2.08494e-07
3.16222e-07
4.97403e-07
3.0468e-07
4.3939e-07
2.63135e-07
2.54075e-07
2.35532e-07
2.52939e-07
2.28193e-07
2.48285e-07
3.51434e-07
2.95004e-07
3.51548e-07
3.05422e-07
2.89594e-07
2.96093e-07
2.17915e-07
2.85064e-07
3.14048e-07
2.07626e-07
2.09049e-07
3.01613e-07
4.18442e-07
2.94429e-07
3.84086e-07
2.5035e-07
2.40076e-07
2.26012e-07
2.46793e-07
2.19252e-07
2.42211e-07
3.52533e-07
3.04626e-07
3.56254e-07
2.88926e-07
2.75078e-07
2.81907e-07
2.09253e-07
2.72439e-07
2.9983e-07
2.08527e-07
2.10804e-07
2.92772e-07
3.82301e-07
2.89205e-07
3.85839e-07
2.3749e-07
2.37418e-07
2.17031e-07
2.40768e-07
2.10994e-07
2.36962e-07
3.56797e-07
3.17314e-07
3.53557e-07
2.74385e-07
2.60553e-07
2.69109e-07
1.99322e-07
2.57341e-07
2.84378e-07
2.10349e-07
2.11152e-07
2.87509e-07
3.92159e-07
2.83191e-07
4.07353e-07
2.3673e-07
2.51962e-07
2.0914e-07
2.35824e-07
2.03437e-07
2.32265e-07
3.46748e-07
3.56927e-07
3.10499e-07
2.59789e-07
2.46188e-07
2.53136e-07
1.90205e-07
2.41708e-07
2.65837e-07
2.10517e-07
2.08875e-07
2.81856e-07
4.09238e-07
2.7589e-07
4.03168e-07
2.52565e-07
2.75959e-07
2.01388e-07
2.30972e-07
1.94949e-07
2.26837e-07
2.94018e-07
4.20601e-07
2.428e-07
2.45505e-07
2.33528e-07
2.3847e-07
1.83696e-07
2.30698e-07
2.43992e-07
2.07935e-07
2.03553e-07
2.73327e-07
3.86063e-07
2.63569e-07
3.12176e-07
2.75983e-07
2.89948e-07
1.92894e-07
2.25386e-07
1.8826e-07
2.21195e-07
2.28641e-07
5.14097e-07
1.98637e-07
2.32962e-07
2.22911e-07
2.28813e-07
1.81577e-07
2.25345e-07
2.21098e-07
2.02123e-07
1.94386e-07
2.59199e-07
2.87591e-07
2.44214e-07
2.25002e-07
2.89558e-07
3.04455e-07
1.87359e-07
2.19815e-07
1.86224e-07
2.16199e-07
1.92288e-07
6.27892e-07
1.82151e-07
2.22466e-07
2.15015e-07
2.24795e-07
1.7997e-07
2.24423e-07
2.04359e-07
1.92303e-07
1.8383e-07
2.3974e-07
2.08694e-07
2.3188e-07
1.7482e-07
3.0447e-07
3.18551e-07
1.86195e-07
2.15168e-07
1.87045e-07
2.12149e-07
1.8119e-07
7.1311e-07
1.82157e-07
2.14814e-07
2.09151e-07
2.24519e-07
1.76969e-07
2.26631e-07
1.98959e-07
1.83237e-07
1.82002e-07
2.31239e-07
1.66984e-07
2.315e-07
1.45088e-07
3.17706e-07
3.04553e-07
1.89079e-07
2.11288e-07
1.97712e-07
2.08776e-07
1.86701e-07
7.03513e-07
2.14864e-07
2.0897e-07
2.02332e-07
2.27347e-07
1.73267e-07
2.33563e-07
2.02627e-07
1.82121e-07
1.87083e-07
2.32307e-07
1.39109e-07
2.43991e-07
1.33146e-07
2.89605e-07
2.06604e-07
2.01414e-07
2.07893e-07
2.19031e-07
2.05523e-07
2.19242e-07
4.63608e-07
2.34317e-07
2.02081e-07
1.95056e-07
2.35816e-07
1.70423e-07
2.46263e-07
2.13499e-07
1.89189e-07
2.06709e-07
2.49739e-07
1.33387e-07
2.71926e-07
1.34904e-07
2.04283e-07
1.93757e-07
2.27519e-07
2.04724e-07
2.59172e-07
2.02239e-07
2.53269e-07
3.21724e-07
3.69104e-07
1.94962e-07
1.8993e-07
2.53373e-07
1.6873e-07
2.84425e-07
2.55563e-07
2.1158e-07
2.41668e-07
2.81497e-07
1.34551e-07
3.16088e-07
1.32268e-07
1.9402e-07
1.90565e-07
2.7171e-07
2.01906e-07
3.19828e-07
2.00518e-07
4.15024e-07
2.7649e-07
5.2619e-07
1.90133e-07
1.86949e-07
2.95903e-07
1.68818e-07
3.35052e-07
3.23392e-07
2.48797e-07
2.89807e-07
3.27793e-07
1.32441e-07
3.54834e-07
1.35298e-07
1.91547e-07
1.94074e-07
3.41463e-07
2.00187e-07
4.2715e-07
2.00419e-07
5.48567e-07
2.74468e-07
5.66669e-07
1.87497e-07
1.86277e-07
3.54865e-07
1.70689e-07
4.55543e-07
3.5475e-07
2.99307e-07
3.42959e-07
3.61464e-07
1.37472e-07
3.68544e-07
1.45736e-07
1.96901e-07
2.13627e-07
4.60866e-07
2.01036e-07
5.60379e-07
2.04896e-07
5.63316e-07
2.93386e-07
4.44054e-07
1.87648e-07
1.90235e-07
5.01355e-07
1.78409e-07
6.40879e-07
3.86075e-07
3.50195e-07
3.67068e-07
3.67192e-07
1.48692e-07
3.32619e-07
1.69688e-07
2.21434e-07
3.06988e-07
5.89797e-07
2.07027e-07
6.50825e-07
2.16519e-07
3.96848e-07
5.61958e-07
2.88693e-07
1.93438e-07
2.03385e-07
6.83383e-07
1.93645e-07
7.71021e-07
4.00141e-07
3.69034e-07
3.56294e-07
3.12078e-07
1.76261e-07
2.82654e-07
2.1289e-07
3.40556e-07
4.8668e-07
6.59832e-07
2.2074e-07
6.62198e-07
2.38382e-07
2.74745e-07
8.87447e-07
2.69665e-07
2.08993e-07
2.30242e-07
7.88284e-07
2.21717e-07
8.06055e-07
4.10428e-07
3.55666e-07
3.11438e-07
2.75792e-07
2.25929e-07
2.73077e-07
2.42459e-07
5.30487e-07
5.34773e-07
6.40259e-07
2.46683e-07
4.88013e-07
2.81808e-07
2.66359e-07
9.53346e-07
2.67282e-07
2.4347e-07
2.9231e-07
7.93058e-07
2.66683e-07
5.92101e-07
3.24365e-07
3.33751e-07
4.57291e-07
2.82592e-07
2.48207e-07
3.42069e-07
2.7348e-07
5.18587e-07
3.88115e-07
4.65531e-07
2.9109e-07
4.35225e-07
3.46779e-07
2.69846e-07
7.83512e-07
3.05536e-07
3.13526e-07
3.84388e-07
5.44188e-07
3.36445e-07
5.127e-07
4.2941e-07
4.70887e-07
4.81525e-07
3.50769e-07
2.97633e-07
3.72775e-07
4.24365e-07
4.19534e-07
7.77564e-07
4.34552e-07
3.6701e-07
4.36466e-07
4.44486e-07
3.22358e-07
9.22397e-07
4.28935e-07
4.28199e-07
5.82113e-07
5.06144e-07
4.38343e-07
4.89054e-07
5.68307e-07
5.36337e-07
9.90592e-07
4.17277e-07
4.52959e-07
6.81794e-07
5.39211e-07
8.35523e-07
8.91137e-07
4.47218e-07
4.84686e-07
5.74826e-07
5.8224e-07
4.68903e-07
9.08943e-07
5.45306e-07
6.4092e-07
9.22174e-07
4.90533e-07
5.86942e-07
5.34592e-07
8.2113e-07
1.09501e-06
1.47934e-06
7.51253e-07
6.3378e-07
8.32717e-07
8.13448e-07
1.02219e-06
1.64162e-06
6.284e-07
6.32821e-07
7.54963e-07
8.47169e-07
6.12254e-07
8.86589e-07
7.95458e-07
9.92077e-07
1.58708e-06
6.05376e-07
8.35474e-07
7.90994e-07
1.62765e-06
1.55593e-06
2.49367e-06
8.57101e-07
8.25937e-07
1.09417e-06
1.02498e-06
1.66564e-06
2.02394e-06
8.27991e-07
8.80848e-07
1.0847e-06
1.11348e-06
8.16136e-07
1.00465e-06
1.0952e-06
1.70985e-06
2.27683e-06
8.12486e-07
1.09805e-06
1.10156e-06
2.26921e-06
2.76227e-06
3.33899e-06
1.16692e-06
1.13577e-06
1.47796e-06
1.54829e-06
2.45394e-06
3.79983e-06
1.15108e-06
1.25611e-06
1.49986e-06
1.57776e-06
1.23405e-06
1.55648e-06
1.39225e-06
2.55996e-06
3.82099e-06
1.22854e-06
1.61901e-06
1.3762e-06
3.402e-06
3.62359e-06
5.08604e-06
1.55606e-06
1.65236e-06
1.96515e-06
1.94848e-06
4.05946e-06
5.34666e-06
1.5779e-06
1.65182e-06
1.927e-06
1.92418e-06
1.45799e-06
1.95473e-06
2.08328e-06
4.07649e-06
4.62196e-06
1.4643e-06
1.88997e-06
2.0935e-06
5.71651e-06
5.50162e-06
7.70252e-06
2.19306e-06
2.14117e-06
2.64987e-06
2.64111e-06
5.57607e-06
7.38749e-06
2.15952e-06
2.13793e-06
2.66852e-06
2.82127e-06
2.19279e-06
2.60613e-06
2.52431e-06
5.00131e-06
8.04093e-06
2.17335e-06
2.81531e-06
2.52569e-06
6.78407e-06
7.89035e-06
8.5789e-06
2.69305e-06
2.68813e-06
3.23046e-06
3.14291e-06
7.70089e-06
8.60908e-06
2.71328e-06
2.90659e-06
3.17373e-06
3.10115e-06
2.66522e-06
3.24318e-06
3.26084e-06
8.37025e-06
8.76038e-06
2.69391e-06
3.16881e-06
3.26795e-06
9.61347e-06
9.28124e-06
1.26542e-05
3.5262e-06
3.5372e-06
4.23504e-06
4.15896e-06
9.34901e-06
1.25348e-05
3.51491e-06
3.44022e-06
4.25602e-06
4.54757e-06
3.57115e-06
4.09873e-06
4.19073e-06
9.14763e-06
1.2324e-05
3.56313e-06
4.37652e-06
4.15231e-06
1.21191e-05
1.30491e-05
1.40304e-05
4.44695e-06
4.3371e-06
5.04713e-06
5.25999e-06
1.28515e-05
1.43058e-05
4.41949e-06
4.70585e-06
4.96729e-06
4.85255e-06
4.3279e-06
5.22474e-06
4.94549e-06
1.29504e-05
1.42869e-05
4.26405e-06
4.95053e-06
4.93961e-06
1.38113e-05
1.45034e-05
1.66681e-05
5.32689e-06
5.54513e-06
6.17307e-06
5.89892e-06
1.49323e-05
1.65929e-05
5.23557e-06
4.99193e-06
6.16213e-06
6.57046e-06
5.26402e-06
5.97153e-06
6.34636e-06
1.45908e-05
1.68377e-05
5.29063e-06
6.44506e-06
6.37472e-06
1.72382e-05
1.71983e-05
1.92081e-05
6.42992e-06
6.07974e-06
7.54222e-06
7.68161e-06
1.68895e-05
1.91322e-05
6.44256e-06
6.92316e-06
7.49869e-06
7.29333e-06
6.66953e-06
7.61736e-06
7.42388e-06
1.74582e-05
1.88022e-05
6.65766e-06
7.17928e-06
7.34891e-06
1.89544e-05
1.9722e-05
2.08444e-05
7.9712e-06
8.04767e-06
8.70857e-06
8.90604e-06
1.98655e-05
2.14665e-05
7.92382e-06
7.5376e-06
8.69787e-06
9.0738e-06
7.66612e-06
8.77199e-06
8.45306e-06
1.91445e-05
2.12409e-05
7.63212e-06
9.02556e-06
8.52413e-06
2.07596e-05
2.11177e-05
2.29367e-05
8.7848e-06
9.24019e-06
1.00093e-05
9.85835e-06
2.17202e-05
2.22535e-05
8.77924e-06
9.3546e-06
9.93993e-06
9.83276e-06
8.88675e-06
1.01398e-05
1.04313e-05
2.1773e-05
2.2681e-05
8.91425e-06
9.78266e-06
1.02426e-05
2.31319e-05
2.35904e-05
2.51571e-05
1.09135e-05
9.93375e-06
1.28045e-05
1.14648e-05
2.25042e-05
2.47212e-05
1.07149e-05
1.02168e-05
1.23777e-05
1.21497e-05
1.0817e-05
1.11085e-05
1.15499e-05
2.30076e-05
2.51116e-05
1.06695e-05
1.21356e-05
1.17149e-05
2.45817e-05
2.54006e-05
2.58951e-05
1.3079e-05
1.26257e-05
1.33467e-05
1.45098e-05
2.56058e-05
2.71173e-05
1.2553e-05
1.27277e-05
1.3046e-05
1.36074e-05
1.18822e-05
1.44432e-05
1.36376e-05
2.55863e-05
2.61598e-05
1.19933e-05
1.36941e-05
1.34927e-05
2.63283e-05
2.61971e-05
2.76538e-05
1.3397e-05
1.46427e-05
1.44758e-05
1.46957e-05
2.71627e-05
2.66167e-05
1.34402e-05
1.36751e-05
1.48501e-05
1.43012e-05
1.42233e-05
1.47747e-05
1.49097e-05
2.63309e-05
2.73055e-05
1.39891e-05
1.42416e-05
1.47383e-05
2.75408e-05
2.80354e-05
2.88504e-05
1.52462e-05
1.47059e-05
1.71091e-05
1.60577e-05
2.67792e-05
2.92667e-05
1.54444e-05
1.52177e-05
1.69953e-05
1.75308e-05
1.51046e-05
1.61049e-05
1.68219e-05
2.7837e-05
2.93359e-05
1.51465e-05
1.74828e-05
1.71657e-05
2.91402e-05
2.91368e-05
3.03157e-05
1.74715e-05
1.75386e-05
1.85055e-05
1.9714e-05
3.00208e-05
3.07818e-05
1.72994e-05
1.79372e-05
1.82547e-05
1.83227e-05
1.75195e-05
1.96382e-05
1.87237e-05
2.95652e-05
2.99365e-05
1.77406e-05
1.83349e-05
1.84769e-05
3.00746e-05
3.06057e-05
3.13535e-05
1.91135e-05
1.99308e-05
2.07238e-05
2.01811e-05
3.0835e-05
3.10628e-05
1.88468e-05
1.84545e-05
2.06294e-05
2.04744e-05
1.8819e-05
2.00825e-05
1.99105e-05
3.01624e-05
3.15286e-05
1.85358e-05
2.05175e-05
1.98302e-05
3.12473e-05
3.16171e-05
3.32e-05
2.10316e-05
2.02668e-05
2.24744e-05
2.20164e-05
3.13352e-05
3.24165e-05
2.10116e-05
2.10699e-05
2.23994e-05
2.22353e-05
2.08077e-05
2.20198e-05
2.27141e-05
3.19146e-05
3.25923e-05
2.08546e-05
2.21797e-05
2.27275e-05
3.27189e-05
3.3514e-05
3.37447e-05
2.31393e-05
2.27473e-05
2.44437e-05
2.36178e-05
3.27252e-05
3.33553e-05
2.30339e-05
2.27655e-05
2.44399e-05
2.424e-05
2.29684e-05
2.35795e-05
2.32965e-05
3.28235e-05
3.37447e-05
2.29481e-05
2.40264e-05
2.32292e-05
3.32195e-05
3.3787e-05
3.39021e-05
2.46344e-05
2.37969e-05
2.48598e-05
2.60556e-05
3.36468e-05
3.54115e-05
2.46832e-05
2.45021e-05
2.49703e-05
2.53995e-05
2.37642e-05
2.62502e-05
2.63798e-05
3.39775e-05
3.46117e-05
2.36476e-05
2.56704e-05
2.63411e-05
3.53258e-05
3.41369e-05
3.58333e-05
2.49525e-05
2.68954e-05
2.7157e-05
2.81461e-05
3.57859e-05
3.60101e-05
2.50516e-05
2.5918e-05
2.6798e-05
2.73174e-05
2.67254e-05
2.813e-05
2.69957e-05
3.48618e-05
3.56287e-05
2.67102e-05
2.7223e-05
2.70028e-05
3.46328e-05
3.6319e-05
3.73221e-05
2.82101e-05
2.82769e-05
2.98003e-05
2.84059e-05
3.60355e-05
3.61661e-05
2.77887e-05
2.75918e-05
2.96691e-05
2.91121e-05
2.70523e-05
2.82974e-05
2.93694e-05
3.58127e-05
3.71235e-05
2.70681e-05
2.89299e-05
2.94302e-05
3.85538e-05
3.74892e-05
3.84297e-05
2.99235e-05
2.85057e-05
3.10163e-05
3.09237e-05
3.64889e-05
3.86805e-05
2.99426e-05
2.99457e-05
3.12529e-05
3.18944e-05
3.07585e-05
3.11544e-05
3.23589e-05
3.76199e-05
3.89291e-05
3.07807e-05
3.20464e-05
3.22799e-05
3.90231e-05
3.87849e-05
3.9458e-05
3.17315e-05
3.18705e-05
3.30772e-05
3.31951e-05
3.9092e-05
3.95317e-05
3.18306e-05
3.21791e-05
3.29092e-05
3.24316e-05
3.24205e-05
3.31827e-05
3.23701e-05
3.90195e-05
3.8802e-05
3.23199e-05
3.24597e-05
3.22443e-05
3.85217e-05
3.95129e-05
3.93689e-05
3.32329e-05
3.33486e-05
3.33069e-05
3.34871e-05
3.95955e-05
3.97722e-05
3.30118e-05
3.24331e-05
3.30788e-05
3.27573e-05
3.23594e-05
3.3431e-05
3.23033e-05
3.88301e-05
3.95494e-05
3.22373e-05
3.26923e-05
3.22034e-05
3.88195e-05
3.94891e-05
4.10102e-05
3.33471e-05
3.35438e-05
3.47843e-05
3.51162e-05
3.98853e-05
4.11282e-05
3.31998e-05
3.36085e-05
3.49153e-05
3.56122e-05
3.23524e-05
3.51108e-05
3.51877e-05
4.00349e-05
4.14828e-05
3.23256e-05
3.5557e-05
3.54109e-05
4.1466e-05
4.13224e-05
4.22364e-05
3.53539e-05
3.5647e-05
3.68599e-05
3.613e-05
4.14145e-05
4.16823e-05
3.54063e-05
3.58594e-05
3.68392e-05
3.65292e-05
3.62096e-05
3.62972e-05
3.76404e-05
4.16072e-05
4.19036e-05
3.62308e-05
3.65603e-05
3.74239e-05
4.29071e-05
4.24946e-05
4.30292e-05
3.73035e-05
3.62703e-05
3.78766e-05
3.74905e-05
4.17746e-05
4.27951e-05
3.72384e-05
3.6771e-05
3.76932e-05
3.73784e-05
3.77752e-05
3.75303e-05
3.79099e-05
4.2048e-05
4.26407e-05
3.75459e-05
3.74128e-05
3.77884e-05
4.30617e-05
4.31184e-05
4.41725e-05
3.79627e-05
3.80172e-05
3.92628e-05
3.94845e-05
4.31155e-05
4.42612e-05
3.78476e-05
3.77386e-05
3.93045e-05
3.9392e-05
3.80329e-05
3.93343e-05
3.87568e-05
4.28603e-05
4.42797e-05
3.79501e-05
3.93597e-05
3.86878e-05
4.34745e-05
4.4509e-05
4.48405e-05
3.98001e-05
3.98256e-05
4.04843e-05
4.02552e-05
4.44403e-05
4.46395e-05
3.9797e-05
3.9848e-05
4.04324e-05
4.04182e-05
3.8925e-05
4.01054e-05
3.94352e-05
4.45467e-05
4.46996e-05
3.896e-05
4.02478e-05
3.96261e-05
4.41237e-05
4.48447e-05
4.46275e-05
4.04945e-05
4.02819e-05
4.04474e-05
4.08697e-05
4.46983e-05
4.54865e-05
4.04432e-05
4.04345e-05
4.04649e-05
4.05065e-05
3.97913e-05
4.11862e-05
4.14335e-05
4.47105e-05
4.49034e-05
3.98859e-05
4.04612e-05
4.12125e-05
4.57205e-05
4.47312e-05
4.58471e-05
4.04705e-05
4.13415e-05
4.15943e-05
4.21392e-05
4.57789e-05
4.61576e-05
4.06345e-05
4.07921e-05
4.16876e-05
4.25056e-05
4.1942e-05
4.2403e-05
4.27227e-05
4.52357e-05
4.67565e-05
4.17392e-05
4.27212e-05
4.2757e-05
4.66474e-05
4.62137e-05
4.81662e-05
4.2275e-05
4.22065e-05
4.44908e-05
4.2505e-05
4.61793e-05
4.63205e-05
4.2086e-05
4.28559e-05
4.38166e-05
4.34918e-05
4.27647e-05
4.2485e-05
4.29304e-05
4.69574e-05
4.71876e-05
4.28455e-05
4.35432e-05
4.31114e-05
4.67932e-05
4.85057e-05
4.87136e-05
4.49986e-05
4.30235e-05
4.54147e-05
4.4972e-05
4.66028e-05
4.83008e-05
4.43682e-05
4.36147e-05
4.50247e-05
4.37222e-05
4.31763e-05
4.43835e-05
4.39591e-05
4.72142e-05
4.70658e-05
4.32882e-05
4.36101e-05
4.39117e-05
4.75742e-05
4.86454e-05
4.71942e-05
4.53596e-05
4.53016e-05
4.41819e-05
4.55183e-05
4.85588e-05
4.88155e-05
4.50213e-05
4.37711e-05
4.46484e-05
4.49901e-05
4.43471e-05
4.57654e-05
4.54312e-05
4.71068e-05
4.84072e-05
4.42705e-05
4.50394e-05
4.53113e-05
4.86254e-05
4.71595e-05
4.74394e-05
4.39448e-05
4.54796e-05
4.38235e-05
4.51356e-05
4.88218e-05
4.84362e-05
4.45602e-05
4.54067e-05
4.46039e-05
4.61074e-05
4.56058e-05
4.57204e-05
4.57342e-05
4.87393e-05
4.9397e-05
4.54535e-05
4.62703e-05
4.56514e-05
4.87736e-05
4.7891e-05
5.06418e-05
4.4057e-05
4.51098e-05
4.7134e-05
4.60275e-05
4.84499e-05
4.9614e-05
4.49733e-05
4.63122e-05
4.73403e-05
4.6857e-05
4.58073e-05
4.61685e-05
4.6797e-05
4.95104e-05
4.97568e-05
4.59435e-05
4.66514e-05
4.68982e-05
4.98615e-05
5.09829e-05
5.12314e-05
4.79097e-05
4.69424e-05
4.88458e-05
4.83063e-05
5.00527e-05
5.0714e-05
4.78125e-05
4.70255e-05
4.83146e-05
4.77087e-05
4.70167e-05
4.79081e-05
4.73547e-05
4.98233e-05
5.02792e-05
4.69872e-05
4.75702e-05
4.73964e-05
5.01007e-05
5.12236e-05
5.08971e-05
4.88863e-05
4.84189e-05
4.88124e-05
4.87842e-05
5.07459e-05
5.1066e-05
4.83229e-05
4.78975e-05
4.82437e-05
4.8115e-05
4.76797e-05
4.82916e-05
4.85555e-05
5.04506e-05
5.07368e-05
4.77943e-05
4.81638e-05
4.84795e-05
5.10842e-05
5.09105e-05
5.12677e-05
4.87809e-05
4.90269e-05
4.87901e-05
4.9248e-05
5.13126e-05
5.16977e-05
4.82362e-05
4.82252e-05
4.87293e-05
4.92121e-05
4.86555e-05
4.93269e-05
4.88634e-05
5.08367e-05
5.17917e-05
4.85185e-05
4.92597e-05
4.86506e-05
5.11512e-05
5.14279e-05
5.16689e-05
4.88744e-05
4.92167e-05
4.90949e-05
4.90563e-05
5.16779e-05
5.12855e-05
4.91454e-05
4.95107e-05
4.97008e-05
4.991e-05
4.90862e-05
4.92955e-05
4.96099e-05
5.19621e-05
5.20464e-05
4.89561e-05
4.98869e-05
4.98245e-05
5.20857e-05
5.17132e-05
5.24562e-05
4.91969e-05
4.907e-05
5.01935e-05
5.0381e-05
5.13173e-05
5.28623e-05
4.97394e-05
4.99322e-05
4.99945e-05
5.00865e-05
4.9796e-05
5.03401e-05
5.08471e-05
5.20566e-05
5.24106e-05
4.99823e-05
5.01027e-05
5.0781e-05
5.31845e-05
5.2781e-05
5.38184e-05
5.06931e-05
5.09048e-05
5.17593e-05
5.15244e-05
5.31821e-05
5.34686e-05
5.04083e-05
5.03853e-05
5.16661e-05
5.138e-05
5.11724e-05
5.15232e-05
5.14705e-05
5.26655e-05
5.33843e-05
5.10995e-05
5.13767e-05
5.15102e-05
5.33909e-05
5.38683e-05
5.35745e-05
5.18702e-05
5.15583e-05
5.18869e-05
5.1605e-05
5.34672e-05
5.34057e-05
5.18096e-05
5.15092e-05
5.18208e-05
5.15903e-05
5.14552e-05
5.15657e-05
5.13349e-05
5.34191e-05
5.33889e-05
5.15111e-05
5.15626e-05
5.14485e-05
5.31273e-05
5.3574e-05
5.36518e-05
5.1865e-05
5.17164e-05
5.18819e-05
5.2238e-05
5.35356e-05
5.40971e-05
5.17829e-05
5.16235e-05
5.17917e-05
5.21179e-05
5.13499e-05
5.2273e-05
5.20756e-05
5.34629e-05
5.40904e-05
5.14615e-05
5.2266e-05
5.19971e-05
5.38879e-05
5.37958e-05
5.42964e-05
5.19881e-05
5.22959e-05
5.24666e-05
5.24033e-05
5.41389e-05
5.41471e-05
5.19093e-05
5.23018e-05
5.26313e-05
5.26987e-05
5.22211e-05
5.24218e-05
5.2209e-05
5.41816e-05
5.4267e-05
5.20675e-05
5.24067e-05
5.19642e-05
5.36434e-05
5.43319e-05
5.45463e-05
5.25216e-05
5.25684e-05
5.29864e-05
5.31471e-05
5.4235e-05
5.48167e-05
5.27026e-05
5.27788e-05
5.28333e-05
5.29815e-05
5.21713e-05
5.30998e-05
5.23685e-05
5.42999e-05
5.46719e-05
5.19181e-05
5.29275e-05
5.21735e-05
5.41101e-05
5.47202e-05
5.54372e-05
5.32256e-05
5.32485e-05
5.37107e-05
5.33615e-05
5.4881e-05
5.49191e-05
5.30164e-05
5.30721e-05
5.37611e-05
5.37328e-05
5.2892e-05
5.35105e-05
5.46934e-05
5.48004e-05
5.55377e-05
5.28166e-05
5.4011e-05
5.49311e-05
5.67343e-05
5.55785e-05
5.61604e-05
5.38924e-05
5.34231e-05
5.46122e-05
5.4286e-05
5.49684e-05
5.58404e-05
5.40495e-05
5.40614e-05
5.47039e-05
5.46973e-05
5.50931e-05
5.4372e-05
5.55059e-05
5.57331e-05
5.61769e-05
5.53969e-05
5.48617e-05
5.58685e-05
5.74509e-05
5.62261e-05
5.59604e-05
5.47482e-05
5.45656e-05
5.47936e-05
5.48931e-05
5.6011e-05
5.61783e-05
5.47739e-05
5.47447e-05
5.47302e-05
5.46671e-05
5.54942e-05
5.48042e-05
5.42981e-05
5.6194e-05
5.57895e-05
5.58589e-05
5.47745e-05
5.44596e-05
5.51098e-05
5.58925e-05
5.54928e-05
5.47103e-05
5.48975e-05
5.44569e-05
5.47832e-05
5.61805e-05
5.59436e-05
5.45721e-05
5.44845e-05
5.42826e-05
5.41223e-05
5.37188e-05
5.45374e-05
5.30349e-05
5.57017e-05
5.51502e-05
5.36644e-05
5.37391e-05
5.26168e-05
5.36291e-05
5.55125e-05
5.62715e-05
5.44475e-05
5.47324e-05
5.47599e-05
5.47006e-05
5.59422e-05
5.59845e-05
5.42736e-05
5.40961e-05
5.46881e-05
5.4327e-05
5.30312e-05
5.45254e-05
5.45479e-05
5.51528e-05
5.59044e-05
5.25882e-05
5.40232e-05
5.40576e-05
5.63893e-05
5.65131e-05
5.71659e-05
5.50702e-05
5.47474e-05
5.57608e-05
5.55071e-05
5.61197e-05
5.69756e-05
5.50956e-05
5.482e-05
5.59201e-05
5.60679e-05
5.54785e-05
5.58442e-05
5.68785e-05
5.62868e-05
5.75139e-05
5.52709e-05
5.63619e-05
5.71537e-05
5.85344e-05
5.72078e-05
5.6971e-05
5.58697e-05
5.57579e-05
5.59267e-05
5.60904e-05
5.71052e-05
5.73009e-05
5.60119e-05
5.62613e-05
5.5993e-05
5.63904e-05
5.69648e-05
5.62793e-05
5.66627e-05
5.75959e-05
5.75564e-05
5.72974e-05
5.66873e-05
5.70793e-05
5.76411e-05
5.69604e-05
5.73239e-05
5.59216e-05
5.61445e-05
5.61378e-05
5.65309e-05
5.73285e-05
5.76461e-05
5.59597e-05
5.6385e-05
5.60723e-05
5.64128e-05
5.63669e-05
5.64206e-05
5.60001e-05
5.75593e-05
5.75794e-05
5.66817e-05
5.64749e-05
5.59882e-05
5.69742e-05
5.75603e-05
5.79837e-05
5.64678e-05
5.6622e-05
5.6802e-05
5.66414e-05
5.77166e-05
5.75426e-05
5.63679e-05
5.64453e-05
5.67393e-05
5.64036e-05
5.59915e-05
5.64452e-05
5.60327e-05
5.76048e-05
5.71252e-05
5.59026e-05
5.60106e-05
5.57356e-05
5.69319e-05
5.79432e-05
5.65898e-05
5.67714e-05
5.65134e-05
5.58539e-05
5.56694e-05
5.74035e-05
5.64696e-05
5.67142e-05
5.62393e-05
5.59011e-05
5.57635e-05
5.60264e-05
5.57374e-05
5.58955e-05
5.70146e-05
5.65504e-05
5.56793e-05
5.56082e-05
5.56329e-05
5.67499e-05
5.6513e-05
5.683e-05
5.56603e-05
5.55806e-05
5.56202e-05
5.57275e-05
5.64539e-05
5.71625e-05
5.57345e-05
5.57449e-05
5.57309e-05
5.62493e-05
5.58898e-05
5.58452e-05
5.61912e-05
5.65766e-05
5.77738e-05
5.57043e-05
5.65536e-05
5.65199e-05
5.75469e-05
5.71541e-05
5.87128e-05
5.58493e-05
5.61804e-05
5.75083e-05
5.74823e-05
5.74907e-05
5.85922e-05
5.6e-05
5.66771e-05
5.74201e-05
5.72094e-05
5.63945e-05
5.73262e-05
5.67077e-05
5.79934e-05
5.82793e-05
5.66997e-05
5.71984e-05
5.68812e-05
5.77926e-05
5.88456e-05
5.88925e-05
5.7797e-05
5.76769e-05
5.80119e-05
5.78108e-05
5.86839e-05
5.86746e-05
5.76315e-05
5.72144e-05
5.77539e-05
5.7009e-05
5.68266e-05
5.76769e-05
5.75538e-05
5.82393e-05
5.77942e-05
5.69014e-05
5.70008e-05
5.73095e-05
5.84554e-05
5.8817e-05
5.76836e-05
5.79734e-05
5.77748e-05
5.69712e-05
5.70357e-05
5.86396e-05
5.7866e-05
5.76953e-05
5.69438e-05
5.69109e-05
5.68994e-05
5.77414e-05
5.72231e-05
5.78888e-05
5.77922e-05
5.7917e-05
5.75383e-05
5.70135e-05
5.77719e-05
5.89998e-05
5.7584e-05
5.73355e-05
5.66693e-05
5.68231e-05
5.63442e-05
5.65901e-05
5.7805e-05
5.76618e-05
5.673e-05
5.69289e-05
5.65862e-05
5.73909e-05
5.78539e-05
5.67952e-05
5.70349e-05
5.80032e-05
5.84862e-05
5.77612e-05
5.74224e-05
5.71804e-05
5.78712e-05
5.74129e-05
5.80818e-05
5.63507e-05
5.65945e-05
5.6916e-05
5.68978e-05
5.77215e-05
5.79543e-05
5.66255e-05
5.74873e-05
5.71234e-05
5.75355e-05
5.68121e-05
5.68433e-05
5.65398e-05
5.85555e-05
5.8523e-05
5.69717e-05
5.74505e-05
5.66707e-05
5.74545e-05
5.81713e-05
5.82467e-05
5.71106e-05
5.69833e-05
5.72995e-05
5.7032e-05
5.79743e-05
5.78414e-05
5.72037e-05
5.74764e-05
5.72202e-05
5.68187e-05
5.65319e-05
5.68119e-05
5.66732e-05
5.8438e-05
5.76231e-05
5.66468e-05
5.67771e-05
5.66745e-05
5.77162e-05
5.82408e-05
5.80282e-05
5.7297e-05
5.70198e-05
5.7146e-05
5.69879e-05
5.78414e-05
5.7901e-05
5.71595e-05
5.6682e-05
5.69504e-05
5.65803e-05
5.6759e-05
5.68811e-05
5.70822e-05
5.75882e-05
5.76227e-05
5.67409e-05
5.66476e-05
5.70294e-05
5.81472e-05
5.80311e-05
5.82537e-05
5.7122e-05
5.70195e-05
5.71868e-05
5.74883e-05
5.8009e-05
5.87047e-05
5.6942e-05
5.66217e-05
5.71353e-05
5.7162e-05
5.72621e-05
5.76294e-05
5.75894e-05
5.77402e-05
5.82762e-05
5.71887e-05
5.71911e-05
5.74719e-05
5.86522e-05
5.83366e-05
5.83659e-05
5.72673e-05
5.75783e-05
5.73126e-05
5.75989e-05
5.87875e-05
5.86836e-05
5.72521e-05
5.72671e-05
5.7332e-05
5.73191e-05
5.76185e-05
5.76888e-05
5.74618e-05
5.83281e-05
5.826e-05
5.74965e-05
5.72546e-05
5.73604e-05
5.8242e-05
5.83436e-05
5.79421e-05
5.72822e-05
5.75058e-05
5.68888e-05
5.66943e-05
5.85681e-05
5.75874e-05
5.73134e-05
5.72973e-05
5.69918e-05
5.7156e-05
5.71651e-05
5.66161e-05
5.65131e-05
5.82529e-05
5.82169e-05
5.71284e-05
5.7093e-05
5.6627e-05
5.7521e-05
5.79404e-05
5.7841e-05
5.68199e-05
5.65665e-05
5.6683e-05
5.63034e-05
5.75548e-05
5.73486e-05
5.69329e-05
5.71461e-05
5.68021e-05
5.70567e-05
5.64653e-05
5.6245e-05
5.64278e-05
5.82573e-05
5.82293e-05
5.65875e-05
5.70209e-05
5.6536e-05
5.76185e-05
5.77946e-05
5.68943e-05
5.65724e-05
5.61962e-05
5.59155e-05
5.58084e-05
5.73165e-05
5.67942e-05
5.66774e-05
5.68836e-05
5.58689e-05
5.56544e-05
5.64214e-05
5.58653e-05
5.61984e-05
5.80853e-05
5.65521e-05
5.65134e-05
5.57454e-05
5.61566e-05
5.72038e-05
5.68438e-05
5.71193e-05
5.5827e-05
5.5789e-05
5.58465e-05
5.6333e-05
5.6782e-05
5.81091e-05
5.57454e-05
5.54744e-05
5.5671e-05
5.53745e-05
5.6167e-05
5.6515e-05
5.64441e-05
5.646e-05
5.6785e-05
5.61114e-05
5.55762e-05
5.6339e-05
5.79786e-05
5.73657e-05
5.52915e-05
5.60268e-05
5.84513e-05
5.5086e-05
5.48816e-05
4.66043e-05
4.56616e-05
4.64597e-05
5.59646e-05
5.71211e-05
5.5877e-05
2.11527e-08
2.06963e-07
4.14592e-08
4.59739e-08
2.80349e-07
2.44677e-07
4.11528e-07
2.02083e-07
2.72654e-07
2.56398e-07
1.27505e-07
1.50839e-07
3.71459e-07
2.52965e-07
4.02328e-07
3.09483e-07
5.25696e-06
2.66492e-07
6.9853e-06
1.37199e-05
2.10892e-05
3.59475e-07
5.30613e-06
3.20282e-07
7.06049e-06
1.92667e-07
1.47293e-07
1.75676e-07
1.60664e-07
1.93825e-07
1.47111e-07
1.76174e-07
2.59236e-07
6.59906e-07
3.38808e-07
2.93388e-07
2.65724e-07
6.37013e-07
3.38603e-07
1.32195e-05
2.07646e-05
2.53159e-07
2.30003e-07
5.27067e-07
2.46691e-07
2.59498e-07
2.29525e-07
5.16209e-07
1.88104e-06
1.90054e-06
3.56475e-07
1.84212e-06
1.87869e-06
5.04242e-07
1.02108e-05
4.12653e-07
1.31169e-05
3.64405e-05
4.65936e-05
5.5294e-07
1.02993e-05
4.62432e-07
1.30749e-05
1.93059e-07
1.46171e-07
1.75138e-07
1.57608e-07
1.90302e-07
1.43269e-07