/*--------------------------------*- C++ -*----------------------------------*\
| =========                 |                                                 |
| \\      /  F ield         | OpenFOAM: The Open Source CFD Toolbox           |
|  \\    /   O peration     | Version:  v2012                                 |
|   \\  /    A nd           | Website:  www.openfoam.com                      |
|    \\/     M anipulation  |                                                 |
\*---------------------------------------------------------------------------*/
FoamFile
{
    version     2.0;
    format      ascii;
    class       volScalarField;
    location    "5950.5";
    object      p;
}
// * * * * * * * * * * * * * * * * * * * * * * * * * * * * * * * * * * * * * //

dimensions      [0 2 -2 0 0 0 0];


internalField   nonuniform List<scalar> 
247104
(
1.56037e-07
1.56029e-07
1.56179e-07
1.56272e-07
1.56307e-07
1.56263e-07
1.56168e-07
1.56017e-07
1.56029e-07
1.56237e-07
1.56421e-07
1.56517e-07
1.56541e-07
1.5651e-07
1.56402e-07
1.56215e-07
1.56179e-07
1.56421e-07
1.56565e-07
1.56609e-07
1.56616e-07
1.56607e-07
1.56555e-07
1.56394e-07
1.56157e-07
1.56272e-07
1.56517e-07
1.56609e-07
1.56622e-07
1.5662e-07
1.56622e-07
1.56604e-07
1.56495e-07
1.56242e-07
1.56036e-07
1.56307e-07
1.56541e-07
1.56616e-07
1.5662e-07
1.56617e-07
1.56621e-07
1.56613e-07
1.56521e-07
1.56274e-07
1.56263e-07
1.5651e-07
1.56607e-07
1.56622e-07
1.56621e-07
1.56622e-07
1.56601e-07
1.56487e-07
1.56233e-07
1.56168e-07
1.56402e-07
1.56555e-07
1.56604e-07
1.56613e-07
1.56601e-07
1.56543e-07
1.56375e-07
1.56148e-07
1.56017e-07
1.56215e-07
1.56394e-07
1.56495e-07
1.56521e-07
1.56487e-07
1.56375e-07
1.56196e-07
1.56157e-07
1.56242e-07
1.56274e-07
1.56233e-07
1.56148e-07
1.5342e-07
1.53399e-07
1.53345e-07
1.5313e-07
1.53147e-07
1.53168e-07
1.53178e-07
1.53437e-07
1.53411e-07
1.53345e-07
1.5312e-07
1.5295e-07
1.52982e-07
1.52982e-07
1.5295e-07
1.53221e-07
1.53251e-07
1.5313e-07
1.5295e-07
1.53037e-07
1.53035e-07
1.53035e-07
1.53037e-07
1.5295e-07
1.53437e-07
1.53494e-07
1.5342e-07
1.53147e-07
1.52982e-07
1.53035e-07
1.53041e-07
1.53041e-07
1.53035e-07
1.52982e-07
1.53485e-07
1.5352e-07
1.53399e-07
1.53168e-07
1.52982e-07
1.53035e-07
1.53041e-07
1.53041e-07
1.53035e-07
1.52982e-07
1.5348e-07
1.53301e-07
1.53178e-07
1.5295e-07
1.53037e-07
1.53035e-07
1.53035e-07
1.53037e-07
1.5295e-07
1.53471e-07
1.53566e-07
1.53438e-07
1.53221e-07
1.5295e-07
1.52982e-07
1.52982e-07
1.5295e-07
1.53519e-07
1.5339e-07
1.53474e-07
1.53411e-07
1.53251e-07
1.53437e-07
1.53485e-07
1.5348e-07
1.53471e-07
1.5339e-07
1.53614e-07
1.53494e-07
1.5352e-07
1.53302e-07
1.53566e-07
1.53474e-07
1.5164e-07
1.51634e-07
1.51605e-07
1.51453e-07
1.51462e-07
1.51481e-07
1.51489e-07
1.51658e-07
1.51647e-07
1.51605e-07
1.51456e-07
1.51276e-07
1.51283e-07
1.51283e-07
1.51276e-07
1.51511e-07
1.51531e-07
1.51453e-07
1.51276e-07
1.51299e-07
1.51298e-07
1.51298e-07
1.51299e-07
1.51276e-07
1.51648e-07
1.51695e-07
1.5164e-07
1.51462e-07
1.51283e-07
1.51298e-07
1.513e-07
1.513e-07
1.51298e-07
1.51283e-07
1.51666e-07
1.51694e-07
1.51634e-07
1.51481e-07
1.51283e-07
1.51298e-07
1.513e-07
1.513e-07
1.51298e-07
1.51283e-07
1.51656e-07
1.51568e-07
1.51489e-07
1.51276e-07
1.51299e-07
1.51298e-07
1.51298e-07
1.51299e-07
1.51276e-07
1.51657e-07
1.51721e-07
1.51658e-07
1.51511e-07
1.51276e-07
1.51283e-07
1.51283e-07
1.51276e-07
1.51663e-07
1.51615e-07
1.51687e-07
1.51647e-07
1.51531e-07
1.51648e-07
1.51666e-07
1.51656e-07
1.51657e-07
1.51615e-07
1.51774e-07
1.51695e-07
1.51694e-07
1.51568e-07
1.51721e-07
1.51687e-07
1.50008e-07
1.50001e-07
1.49973e-07
1.49821e-07
1.49828e-07
1.49848e-07
1.49856e-07
1.50025e-07
1.50014e-07
1.49973e-07
1.49828e-07
1.49655e-07
1.49656e-07
1.49656e-07
1.49655e-07
1.49881e-07
1.49898e-07
1.49821e-07
1.49655e-07
1.49659e-07
1.49659e-07
1.49659e-07
1.49659e-07
1.49655e-07
1.50015e-07
1.50063e-07
1.50008e-07
1.49828e-07
1.49656e-07
1.49659e-07
1.49659e-07
1.4966e-07
1.49659e-07
1.49656e-07
1.50032e-07
1.50061e-07
1.50001e-07
1.49848e-07
1.49656e-07
1.49659e-07
1.4966e-07
1.49659e-07
1.49659e-07
1.49656e-07
1.50019e-07
1.49935e-07
1.49856e-07
1.49655e-07
1.49659e-07
1.49659e-07
1.49659e-07
1.49659e-07
1.49655e-07
1.5002e-07
1.50088e-07
1.50025e-07
1.49881e-07
1.49655e-07
1.49656e-07
1.49656e-07
1.49655e-07
1.5003e-07
1.49979e-07
1.50055e-07
1.50014e-07
1.49898e-07
1.50015e-07
1.50032e-07
1.50019e-07
1.5002e-07
1.49979e-07
1.5014e-07
1.50063e-07
1.50061e-07
1.49935e-07
1.50088e-07
1.50056e-07
1.48373e-07
1.48366e-07
1.48338e-07
1.48185e-07
1.48192e-07
1.48212e-07
1.48221e-07
1.4839e-07
1.48379e-07
1.48338e-07
1.48192e-07
1.48017e-07
1.48017e-07
1.48017e-07
1.48017e-07
1.48245e-07
1.48262e-07
1.48185e-07
1.48017e-07
1.4802e-07
1.48019e-07
1.48019e-07
1.4802e-07
1.48017e-07
1.4838e-07
1.48428e-07
1.48373e-07
1.48192e-07
1.48017e-07
1.48019e-07
1.48019e-07
1.48019e-07
1.48019e-07
1.48017e-07
1.48396e-07
1.48426e-07
1.48366e-07
1.48212e-07
1.48017e-07
1.48019e-07
1.48019e-07
1.48019e-07
1.48019e-07
1.48017e-07
1.48382e-07
1.48299e-07
1.48221e-07
1.48017e-07
1.4802e-07
1.48019e-07
1.48019e-07
1.4802e-07
1.48017e-07
1.48383e-07
1.48453e-07
1.4839e-07
1.48245e-07
1.48017e-07
1.48017e-07
1.48017e-07
1.48017e-07
1.48392e-07
1.48343e-07
1.48421e-07
1.48379e-07
1.48262e-07
1.4838e-07
1.48396e-07
1.48382e-07
1.48383e-07
1.48343e-07
1.48505e-07
1.48428e-07
1.48426e-07
1.48299e-07
1.48453e-07
1.48421e-07
1.46733e-07
1.46726e-07
1.46698e-07
1.46545e-07
1.46552e-07
1.46572e-07
1.46581e-07
1.46751e-07
1.4674e-07
1.46699e-07
1.46552e-07
1.46376e-07
1.46377e-07
1.46377e-07
1.46376e-07
1.46605e-07
1.46623e-07
1.46545e-07
1.46376e-07
1.4638e-07
1.46378e-07
1.46378e-07
1.4638e-07
1.46376e-07
1.4674e-07
1.46789e-07
1.46733e-07
1.46552e-07
1.46377e-07
1.46378e-07
1.46378e-07
1.46378e-07
1.46378e-07
1.46377e-07
1.46756e-07
1.46787e-07
1.46726e-07
1.46572e-07
1.46377e-07
1.46378e-07
1.46378e-07
1.46378e-07
1.46378e-07
1.46377e-07
1.46743e-07
1.4666e-07
1.46581e-07
1.46376e-07
1.4638e-07
1.46378e-07
1.46378e-07
1.4638e-07
1.46376e-07
1.46744e-07
1.46814e-07
1.46751e-07
1.46605e-07
1.46376e-07
1.46377e-07
1.46377e-07
1.46376e-07
1.46753e-07
1.46704e-07
1.46782e-07
1.4674e-07
1.46623e-07
1.4674e-07
1.46756e-07
1.46743e-07
1.46744e-07
1.46704e-07
1.46866e-07
1.46789e-07
1.46787e-07
1.4666e-07
1.46814e-07
1.46782e-07
1.45093e-07
1.45086e-07
1.45058e-07
1.44905e-07
1.44912e-07
1.44931e-07
1.44941e-07
1.4511e-07
1.45099e-07
1.45058e-07
1.44912e-07
1.44736e-07
1.44736e-07
1.44736e-07
1.44736e-07
1.44965e-07
1.44982e-07
1.44905e-07
1.44736e-07
1.44739e-07
1.44738e-07
1.44738e-07
1.44739e-07
1.44736e-07
1.451e-07
1.45149e-07
1.45093e-07
1.44912e-07
1.44736e-07
1.44738e-07
1.44737e-07
1.44737e-07
1.44738e-07
1.44736e-07
1.45116e-07
1.45147e-07
1.45086e-07
1.44931e-07
1.44736e-07
1.44738e-07
1.44737e-07
1.44737e-07
1.44738e-07
1.44736e-07
1.45102e-07
1.45019e-07
1.44941e-07
1.44736e-07
1.44739e-07
1.44738e-07
1.44738e-07
1.44739e-07
1.44736e-07
1.45104e-07
1.45174e-07
1.4511e-07
1.44965e-07
1.44736e-07
1.44736e-07
1.44736e-07
1.44736e-07
1.45113e-07
1.45064e-07
1.45141e-07
1.45099e-07
1.44982e-07
1.451e-07
1.45116e-07
1.45102e-07
1.45104e-07
1.45064e-07
1.45226e-07
1.45149e-07
1.45147e-07
1.45019e-07
1.45174e-07
1.45142e-07
1.43453e-07
1.43446e-07
1.43418e-07
1.43264e-07
1.43271e-07
1.43291e-07
1.433e-07
1.4347e-07
1.43459e-07
1.43418e-07
1.43271e-07
1.43095e-07
1.43096e-07
1.43096e-07
1.43095e-07
1.43324e-07
1.43342e-07
1.43264e-07
1.43095e-07
1.43099e-07
1.43097e-07
1.43097e-07
1.43099e-07
1.43095e-07
1.43459e-07
1.43508e-07
1.43453e-07
1.43271e-07
1.43096e-07
1.43097e-07
1.43097e-07
1.43097e-07
1.43097e-07
1.43096e-07
1.43475e-07
1.43506e-07
1.43446e-07
1.43291e-07
1.43096e-07
1.43097e-07
1.43097e-07
1.43097e-07
1.43097e-07
1.43096e-07
1.43462e-07
1.43379e-07
1.433e-07
1.43095e-07
1.43099e-07
1.43097e-07
1.43097e-07
1.43099e-07
1.43095e-07
1.43463e-07
1.43533e-07
1.4347e-07
1.43324e-07
1.43095e-07
1.43096e-07
1.43096e-07
1.43095e-07
1.43472e-07
1.43423e-07
1.43501e-07
1.43459e-07
1.43342e-07
1.43459e-07
1.43476e-07
1.43462e-07
1.43463e-07
1.43423e-07
1.43585e-07
1.43508e-07
1.43506e-07
1.43379e-07
1.43533e-07
1.43501e-07
1.41812e-07
1.41805e-07
1.41777e-07
1.41624e-07
1.41631e-07
1.4165e-07
1.41659e-07
1.41829e-07
1.41818e-07
1.41777e-07
1.41631e-07
1.41455e-07
1.41455e-07
1.41455e-07
1.41455e-07
1.41683e-07
1.41701e-07
1.41624e-07
1.41455e-07
1.41458e-07
1.41457e-07
1.41457e-07
1.41458e-07
1.41455e-07
1.41819e-07
1.41868e-07
1.41812e-07
1.41631e-07
1.41455e-07
1.41457e-07
1.41456e-07
1.41456e-07
1.41457e-07
1.41455e-07
1.41835e-07
1.41865e-07
1.41805e-07
1.4165e-07
1.41455e-07
1.41457e-07
1.41456e-07
1.41456e-07
1.41457e-07
1.41455e-07
1.41821e-07
1.41738e-07
1.41659e-07
1.41455e-07
1.41458e-07
1.41457e-07
1.41457e-07
1.41458e-07
1.41455e-07
1.41823e-07
1.41893e-07
1.41829e-07
1.41683e-07
1.41455e-07
1.41455e-07
1.41455e-07
1.41455e-07
1.41832e-07
1.41783e-07
1.4186e-07
1.41818e-07
1.41701e-07
1.41819e-07
1.41835e-07
1.41821e-07
1.41823e-07
1.41783e-07
1.41945e-07
1.41868e-07
1.41865e-07
1.41738e-07
1.41893e-07
1.4186e-07
1.40171e-07
1.40164e-07
1.40136e-07
1.39983e-07
1.3999e-07
1.4001e-07
1.40019e-07
1.40189e-07
1.40178e-07
1.40136e-07
1.3999e-07
1.39814e-07
1.39815e-07
1.39815e-07
1.39814e-07
1.40043e-07
1.4006e-07
1.39983e-07
1.39814e-07
1.39817e-07
1.39816e-07
1.39816e-07
1.39817e-07
1.39814e-07
1.40178e-07
1.40227e-07
1.40171e-07
1.3999e-07
1.39815e-07
1.39816e-07
1.39815e-07
1.39815e-07
1.39816e-07
1.39815e-07
1.40194e-07
1.40225e-07
1.40164e-07
1.4001e-07
1.39815e-07
1.39816e-07
1.39815e-07
1.39815e-07
1.39816e-07
1.39815e-07
1.40181e-07
1.40098e-07
1.40019e-07
1.39814e-07
1.39817e-07
1.39816e-07
1.39816e-07
1.39817e-07
1.39814e-07
1.40182e-07
1.40252e-07
1.40189e-07
1.40043e-07
1.39814e-07
1.39815e-07
1.39815e-07
1.39814e-07
1.40191e-07
1.40142e-07
1.4022e-07
1.40178e-07
1.4006e-07
1.40178e-07
1.40194e-07
1.40181e-07
1.40182e-07
1.40142e-07
1.40304e-07
1.40227e-07
1.40225e-07
1.40098e-07
1.40252e-07
1.4022e-07
1.38531e-07
1.38524e-07
1.38496e-07
1.38342e-07
1.38349e-07
1.38369e-07
1.38378e-07
1.38548e-07
1.38537e-07
1.38496e-07
1.3835e-07
1.38173e-07
1.38174e-07
1.38174e-07
1.38173e-07
1.38402e-07
1.3842e-07
1.38342e-07
1.38173e-07
1.38177e-07
1.38175e-07
1.38175e-07
1.38177e-07
1.38173e-07
1.38538e-07
1.38587e-07
1.38531e-07
1.38349e-07
1.38174e-07
1.38175e-07
1.38175e-07
1.38175e-07
1.38175e-07
1.38174e-07
1.38554e-07
1.38584e-07
1.38524e-07
1.38369e-07
1.38174e-07
1.38175e-07
1.38175e-07
1.38175e-07
1.38175e-07
1.38174e-07
1.3854e-07
1.38457e-07
1.38378e-07
1.38173e-07
1.38177e-07
1.38175e-07
1.38175e-07
1.38177e-07
1.38173e-07
1.38541e-07
1.38611e-07
1.38548e-07
1.38402e-07
1.38173e-07
1.38174e-07
1.38174e-07
1.38173e-07
1.3855e-07
1.38501e-07
1.38579e-07
1.38537e-07
1.3842e-07
1.38538e-07
1.38554e-07
1.3854e-07
1.38541e-07
1.38501e-07
1.38663e-07
1.38587e-07
1.38584e-07
1.38457e-07
1.38611e-07
1.38579e-07
1.3689e-07
1.36883e-07
1.36855e-07
1.36702e-07
1.36709e-07
1.36728e-07
1.36737e-07
1.36907e-07
1.36896e-07
1.36855e-07
1.36709e-07
1.36533e-07
1.36533e-07
1.36533e-07
1.36533e-07
1.36761e-07
1.36779e-07
1.36702e-07
1.36533e-07
1.36536e-07
1.36535e-07
1.36535e-07
1.36536e-07
1.36533e-07
1.36897e-07
1.36946e-07
1.3689e-07
1.36709e-07
1.36533e-07
1.36535e-07
1.36534e-07
1.36534e-07
1.36535e-07
1.36533e-07
1.36913e-07
1.36943e-07
1.36883e-07
1.36728e-07
1.36533e-07
1.36535e-07
1.36534e-07
1.36534e-07
1.36535e-07
1.36533e-07
1.36899e-07
1.36816e-07
1.36737e-07
1.36533e-07
1.36536e-07
1.36535e-07
1.36535e-07
1.36536e-07
1.36533e-07
1.36901e-07
1.36971e-07
1.36907e-07
1.36761e-07
1.36533e-07
1.36533e-07
1.36533e-07
1.36533e-07
1.3691e-07
1.36861e-07
1.36938e-07
1.36896e-07
1.36779e-07
1.36897e-07
1.36913e-07
1.36899e-07
1.36901e-07
1.36861e-07
1.37023e-07
1.36946e-07
1.36943e-07
1.36816e-07
1.36971e-07
1.36938e-07
1.35249e-07
1.35242e-07
1.35214e-07
1.35061e-07
1.35068e-07
1.35088e-07
1.35097e-07
1.35267e-07
1.35256e-07
1.35214e-07
1.35068e-07
1.34892e-07
1.34893e-07
1.34893e-07
1.34892e-07
1.35121e-07
1.35138e-07
1.35061e-07
1.34892e-07
1.34895e-07
1.34894e-07
1.34894e-07
1.34895e-07
1.34892e-07
1.35256e-07
1.35305e-07
1.35249e-07
1.35068e-07
1.34893e-07
1.34894e-07
1.34893e-07
1.34893e-07
1.34894e-07
1.34893e-07
1.35272e-07
1.35303e-07
1.35242e-07
1.35088e-07
1.34893e-07
1.34894e-07
1.34893e-07
1.34893e-07
1.34894e-07
1.34893e-07
1.35259e-07
1.35176e-07
1.35097e-07
1.34892e-07
1.34895e-07
1.34894e-07
1.34894e-07
1.34895e-07
1.34892e-07
1.3526e-07
1.3533e-07
1.35267e-07
1.35121e-07
1.34892e-07
1.34893e-07
1.34893e-07
1.34892e-07
1.35269e-07
1.3522e-07
1.35298e-07
1.35256e-07
1.35138e-07
1.35256e-07
1.35272e-07
1.35259e-07
1.3526e-07
1.3522e-07
1.35382e-07
1.35305e-07
1.35303e-07
1.35176e-07
1.3533e-07
1.35298e-07
1.33609e-07
1.33602e-07
1.33574e-07
1.3342e-07
1.33427e-07
1.33447e-07
1.33456e-07
1.33626e-07
1.33615e-07
1.33574e-07
1.33428e-07
1.33251e-07
1.33252e-07
1.33252e-07
1.33251e-07
1.3348e-07
1.33498e-07
1.3342e-07
1.33251e-07
1.33255e-07
1.33253e-07
1.33253e-07
1.33255e-07
1.33251e-07
1.33616e-07
1.33665e-07
1.33609e-07
1.33427e-07
1.33252e-07
1.33253e-07
1.33253e-07
1.33253e-07
1.33253e-07
1.33252e-07
1.33632e-07
1.33662e-07
1.33602e-07
1.33447e-07
1.33252e-07
1.33253e-07
1.33253e-07
1.33253e-07
1.33253e-07
1.33252e-07
1.33618e-07
1.33535e-07
1.33456e-07
1.33251e-07
1.33255e-07
1.33253e-07
1.33253e-07
1.33255e-07
1.33251e-07
1.33619e-07
1.33689e-07
1.33626e-07
1.3348e-07
1.33251e-07
1.33252e-07
1.33252e-07
1.33251e-07
1.33628e-07
1.33579e-07
1.33657e-07
1.33615e-07
1.33498e-07
1.33616e-07
1.33632e-07
1.33618e-07
1.33619e-07
1.33579e-07
1.33741e-07
1.33665e-07
1.33662e-07
1.33535e-07
1.33689e-07
1.33657e-07
1.31968e-07
1.31961e-07
1.31933e-07
1.3178e-07
1.31787e-07
1.31806e-07
1.31815e-07
1.31985e-07
1.31974e-07
1.31933e-07
1.31787e-07
1.31611e-07
1.31611e-07
1.31611e-07
1.31611e-07
1.31839e-07
1.31857e-07
1.3178e-07
1.31611e-07
1.31614e-07
1.31613e-07
1.31613e-07
1.31614e-07
1.31611e-07
1.31975e-07
1.32024e-07
1.31968e-07
1.31787e-07
1.31611e-07
1.31613e-07
1.31612e-07
1.31612e-07
1.31613e-07
1.31611e-07
1.31991e-07
1.32021e-07
1.31961e-07
1.31806e-07
1.31611e-07
1.31613e-07
1.31612e-07
1.31612e-07
1.31613e-07
1.31611e-07
1.31977e-07
1.31894e-07
1.31815e-07
1.31611e-07
1.31614e-07
1.31613e-07
1.31613e-07
1.31614e-07
1.31611e-07
1.31979e-07
1.32049e-07
1.31985e-07
1.31839e-07
1.31611e-07
1.31611e-07
1.31611e-07
1.31611e-07
1.31988e-07
1.31939e-07
1.32016e-07
1.31974e-07
1.31857e-07
1.31975e-07
1.31991e-07
1.31977e-07
1.31979e-07
1.31939e-07
1.32101e-07
1.32024e-07
1.32021e-07
1.31894e-07
1.32049e-07
1.32016e-07
1.30327e-07
1.3032e-07
1.30292e-07
1.30139e-07
1.30146e-07
1.30166e-07
1.30175e-07
1.30344e-07
1.30334e-07
1.30292e-07
1.30146e-07
1.2997e-07
1.29971e-07
1.29971e-07
1.2997e-07
1.30199e-07
1.30216e-07
1.30139e-07
1.2997e-07
1.29973e-07
1.29972e-07
1.29972e-07
1.29973e-07
1.2997e-07
1.30334e-07
1.30383e-07
1.30327e-07
1.30146e-07
1.29971e-07
1.29972e-07
1.29971e-07
1.29971e-07
1.29972e-07
1.29971e-07
1.3035e-07
1.30381e-07
1.3032e-07
1.30166e-07
1.29971e-07
1.29972e-07
1.29971e-07
1.29971e-07
1.29972e-07
1.29971e-07
1.30337e-07
1.30254e-07
1.30175e-07
1.2997e-07
1.29973e-07
1.29972e-07
1.29972e-07
1.29973e-07
1.2997e-07
1.30338e-07
1.30408e-07
1.30345e-07
1.30199e-07
1.2997e-07
1.29971e-07
1.29971e-07
1.2997e-07
1.30347e-07
1.30298e-07
1.30376e-07
1.30334e-07
1.30216e-07
1.30334e-07
1.3035e-07
1.30337e-07
1.30338e-07
1.30298e-07
1.3046e-07
1.30383e-07
1.30381e-07
1.30254e-07
1.30408e-07
1.30376e-07
1.28687e-07
1.2868e-07
1.28652e-07
1.28498e-07
1.28505e-07
1.28525e-07
1.28534e-07
1.28704e-07
1.28693e-07
1.28652e-07
1.28505e-07
1.28329e-07
1.2833e-07
1.2833e-07
1.28329e-07
1.28558e-07
1.28576e-07
1.28498e-07
1.28329e-07
1.28333e-07
1.28331e-07
1.28331e-07
1.28333e-07
1.28329e-07
1.28693e-07
1.28742e-07
1.28687e-07
1.28505e-07
1.2833e-07
1.28331e-07
1.28331e-07
1.28331e-07
1.28331e-07
1.2833e-07
1.28709e-07
1.2874e-07
1.2868e-07
1.28525e-07
1.2833e-07
1.28331e-07
1.28331e-07
1.28331e-07
1.28331e-07
1.2833e-07
1.28696e-07
1.28613e-07
1.28534e-07
1.28329e-07
1.28333e-07
1.28331e-07
1.28331e-07
1.28333e-07
1.28329e-07
1.28697e-07
1.28767e-07
1.28704e-07
1.28558e-07
1.28329e-07
1.2833e-07
1.2833e-07
1.28329e-07
1.28706e-07
1.28657e-07
1.28735e-07
1.28693e-07
1.28576e-07
1.28693e-07
1.2871e-07
1.28696e-07
1.28697e-07
1.28657e-07
1.28819e-07
1.28742e-07
1.2874e-07
1.28613e-07
1.28767e-07
1.28735e-07
1.27046e-07
1.27039e-07
1.27011e-07
1.26858e-07
1.26865e-07
1.26884e-07
1.26893e-07
1.27063e-07
1.27052e-07
1.27011e-07
1.26865e-07
1.26689e-07
1.26689e-07
1.26689e-07
1.26689e-07
1.26917e-07
1.26935e-07
1.26858e-07
1.26689e-07
1.26692e-07
1.26691e-07
1.26691e-07
1.26692e-07
1.26689e-07
1.27053e-07
1.27102e-07
1.27046e-07
1.26865e-07
1.26689e-07
1.26691e-07
1.2669e-07
1.2669e-07
1.26691e-07
1.26689e-07
1.27069e-07
1.27099e-07
1.27039e-07
1.26884e-07
1.26689e-07
1.26691e-07
1.2669e-07
1.2669e-07
1.26691e-07
1.26689e-07
1.27055e-07
1.26972e-07
1.26893e-07
1.26689e-07
1.26692e-07
1.26691e-07
1.26691e-07
1.26692e-07
1.26689e-07
1.27057e-07
1.27127e-07
1.27063e-07
1.26917e-07
1.26689e-07
1.26689e-07
1.26689e-07
1.26689e-07
1.27066e-07
1.27017e-07
1.27094e-07
1.27052e-07
1.26935e-07
1.27053e-07
1.27069e-07
1.27055e-07
1.27057e-07
1.27017e-07
1.27179e-07
1.27102e-07
1.27099e-07
1.26972e-07
1.27127e-07
1.27094e-07
1.25405e-07
1.25398e-07
1.2537e-07
1.25217e-07
1.25224e-07
1.25244e-07
1.25253e-07
1.25422e-07
1.25412e-07
1.2537e-07
1.25224e-07
1.25048e-07
1.25049e-07
1.25049e-07
1.25048e-07
1.25277e-07
1.25294e-07
1.25217e-07
1.25048e-07
1.25051e-07
1.2505e-07
1.2505e-07
1.25051e-07
1.25048e-07
1.25412e-07
1.25461e-07
1.25405e-07
1.25224e-07
1.25049e-07
1.2505e-07
1.25049e-07
1.25049e-07
1.2505e-07
1.25049e-07
1.25428e-07
1.25459e-07
1.25398e-07
1.25244e-07
1.25049e-07
1.2505e-07
1.25049e-07
1.25049e-07
1.2505e-07
1.25049e-07
1.25415e-07
1.25332e-07
1.25253e-07
1.25048e-07
1.25051e-07
1.2505e-07
1.2505e-07
1.25051e-07
1.25048e-07
1.25416e-07
1.25486e-07
1.25422e-07
1.25277e-07
1.25048e-07
1.25049e-07
1.25049e-07
1.25048e-07
1.25425e-07
1.25376e-07
1.25454e-07
1.25412e-07
1.25294e-07
1.25412e-07
1.25428e-07
1.25415e-07
1.25416e-07
1.25376e-07
1.25538e-07
1.25461e-07
1.25459e-07
1.25332e-07
1.25486e-07
1.25454e-07
1.23765e-07
1.23758e-07
1.2373e-07
1.23576e-07
1.23583e-07
1.23603e-07
1.23612e-07
1.23782e-07
1.23771e-07
1.2373e-07
1.23583e-07
1.23407e-07
1.23408e-07
1.23408e-07
1.23407e-07
1.23636e-07
1.23654e-07
1.23576e-07
1.23407e-07
1.23411e-07
1.23409e-07
1.23409e-07
1.23411e-07
1.23407e-07
1.23771e-07
1.23821e-07
1.23765e-07
1.23583e-07
1.23408e-07
1.23409e-07
1.23409e-07
1.23409e-07
1.23409e-07
1.23408e-07
1.23788e-07
1.23818e-07
1.23758e-07
1.23603e-07
1.23408e-07
1.23409e-07
1.23409e-07
1.23409e-07
1.23409e-07
1.23408e-07
1.23774e-07
1.23691e-07
1.23612e-07
1.23407e-07
1.23411e-07
1.23409e-07
1.23409e-07
1.23411e-07
1.23407e-07
1.23775e-07
1.23845e-07
1.23782e-07
1.23636e-07
1.23407e-07
1.23408e-07
1.23408e-07
1.23407e-07
1.23784e-07
1.23735e-07
1.23813e-07
1.23771e-07
1.23654e-07
1.23771e-07
1.23788e-07
1.23774e-07
1.23775e-07
1.23735e-07
1.23897e-07
1.23821e-07
1.23818e-07
1.23691e-07
1.23845e-07
1.23813e-07
1.22124e-07
1.22117e-07
1.22089e-07
1.21936e-07
1.21943e-07
1.21962e-07
1.21971e-07
1.22141e-07
1.2213e-07
1.22089e-07
1.21943e-07
1.21767e-07
1.21767e-07
1.21767e-07
1.21767e-07
1.21995e-07
1.22013e-07
1.21936e-07
1.21767e-07
1.2177e-07
1.21768e-07
1.21768e-07
1.2177e-07
1.21767e-07
1.22131e-07
1.2218e-07
1.22124e-07
1.21943e-07
1.21767e-07
1.21768e-07
1.21768e-07
1.21768e-07
1.21768e-07
1.21767e-07
1.22147e-07
1.22177e-07
1.22117e-07
1.21962e-07
1.21767e-07
1.21768e-07
1.21768e-07
1.21768e-07
1.21768e-07
1.21767e-07
1.22133e-07
1.2205e-07
1.21971e-07
1.21767e-07
1.2177e-07
1.21768e-07
1.21768e-07
1.2177e-07
1.21767e-07
1.22135e-07
1.22204e-07
1.22141e-07
1.21995e-07
1.21767e-07
1.21767e-07
1.21767e-07
1.21767e-07
1.22144e-07
1.22095e-07
1.22172e-07
1.2213e-07
1.22013e-07
1.22131e-07
1.22147e-07
1.22133e-07
1.22135e-07
1.22095e-07
1.22257e-07
1.2218e-07
1.22177e-07
1.2205e-07
1.22204e-07
1.22172e-07
1.20483e-07
1.20476e-07
1.20448e-07
1.20295e-07
1.20302e-07
1.20321e-07
1.2033e-07
1.205e-07
1.20489e-07
1.20448e-07
1.20302e-07
1.20126e-07
1.20126e-07
1.20126e-07
1.20126e-07
1.20354e-07
1.20372e-07
1.20295e-07
1.20126e-07
1.20129e-07
1.20128e-07
1.20128e-07
1.20129e-07
1.20126e-07
1.2049e-07
1.20539e-07
1.20483e-07
1.20302e-07
1.20126e-07
1.20128e-07
1.20127e-07
1.20127e-07
1.20128e-07
1.20126e-07
1.20506e-07
1.20537e-07
1.20476e-07
1.20321e-07
1.20126e-07
1.20128e-07
1.20127e-07
1.20127e-07
1.20128e-07
1.20126e-07
1.20492e-07
1.20409e-07
1.20331e-07
1.20126e-07
1.20129e-07
1.20128e-07
1.20128e-07
1.20129e-07
1.20126e-07
1.20494e-07
1.20564e-07
1.205e-07
1.20354e-07
1.20126e-07
1.20126e-07
1.20126e-07
1.20126e-07
1.20503e-07
1.20454e-07
1.20531e-07
1.20489e-07
1.20372e-07
1.2049e-07
1.20506e-07
1.20492e-07
1.20494e-07
1.20454e-07
1.20616e-07
1.20539e-07
1.20537e-07
1.20409e-07
1.20564e-07
1.20531e-07
1.18842e-07
1.18835e-07
1.18807e-07
1.18654e-07
1.18661e-07
1.1868e-07
1.1869e-07
1.18859e-07
1.18848e-07
1.18807e-07
1.18661e-07
1.18485e-07
1.18485e-07
1.18485e-07
1.18485e-07
1.18714e-07
1.18731e-07
1.18654e-07
1.18485e-07
1.18488e-07
1.18487e-07
1.18487e-07
1.18488e-07
1.18485e-07
1.18849e-07
1.18898e-07
1.18842e-07
1.18661e-07
1.18485e-07
1.18487e-07
1.18486e-07
1.18486e-07
1.18487e-07
1.18485e-07
1.18865e-07
1.18896e-07
1.18835e-07
1.1868e-07
1.18485e-07
1.18487e-07
1.18486e-07
1.18486e-07
1.18487e-07
1.18485e-07
1.18851e-07
1.18768e-07
1.1869e-07
1.18485e-07
1.18488e-07
1.18487e-07
1.18487e-07
1.18488e-07
1.18485e-07
1.18853e-07
1.18923e-07
1.18859e-07
1.18714e-07
1.18485e-07
1.18485e-07
1.18485e-07
1.18485e-07
1.18862e-07
1.18813e-07
1.18891e-07
1.18848e-07
1.18731e-07
1.18849e-07
1.18865e-07
1.18851e-07
1.18853e-07
1.18813e-07
1.18975e-07
1.18898e-07
1.18896e-07
1.18768e-07
1.18923e-07
1.18891e-07
1.17201e-07
1.17194e-07
1.17166e-07
1.17013e-07
1.1702e-07
1.1704e-07
1.17049e-07
1.17218e-07
1.17207e-07
1.17166e-07
1.1702e-07
1.16844e-07
1.16844e-07
1.16844e-07
1.16844e-07
1.17073e-07
1.1709e-07
1.17013e-07
1.16844e-07
1.16847e-07
1.16846e-07
1.16846e-07
1.16847e-07
1.16844e-07
1.17208e-07
1.17257e-07
1.17201e-07
1.1702e-07
1.16844e-07
1.16846e-07
1.16845e-07
1.16845e-07
1.16846e-07
1.16844e-07
1.17224e-07
1.17255e-07
1.17194e-07
1.1704e-07
1.16844e-07
1.16846e-07
1.16845e-07
1.16845e-07
1.16846e-07
1.16844e-07
1.1721e-07
1.17127e-07
1.17049e-07
1.16844e-07
1.16847e-07
1.16846e-07
1.16846e-07
1.16847e-07
1.16844e-07
1.17212e-07
1.17282e-07
1.17218e-07
1.17073e-07
1.16844e-07
1.16844e-07
1.16844e-07
1.16844e-07
1.17221e-07
1.17172e-07
1.1725e-07
1.17207e-07
1.1709e-07
1.17208e-07
1.17224e-07
1.17211e-07
1.17212e-07
1.17172e-07
1.17334e-07
1.17257e-07
1.17255e-07
1.17127e-07
1.17282e-07
1.1725e-07
1.1556e-07
1.15553e-07
1.15525e-07
1.15372e-07
1.15379e-07
1.15399e-07
1.15408e-07
1.15578e-07
1.15567e-07
1.15525e-07
1.15379e-07
1.15203e-07
1.15204e-07
1.15204e-07
1.15203e-07
1.15432e-07
1.15449e-07
1.15372e-07
1.15203e-07
1.15206e-07
1.15205e-07
1.15205e-07
1.15206e-07
1.15203e-07
1.15567e-07
1.15616e-07
1.1556e-07
1.15379e-07
1.15204e-07
1.15205e-07
1.15204e-07
1.15204e-07
1.15205e-07
1.15204e-07
1.15583e-07
1.15614e-07
1.15553e-07
1.15399e-07
1.15204e-07
1.15205e-07
1.15204e-07
1.15204e-07
1.15205e-07
1.15204e-07
1.1557e-07
1.15487e-07
1.15408e-07
1.15203e-07
1.15206e-07
1.15205e-07
1.15205e-07
1.15206e-07
1.15203e-07
1.15571e-07
1.15641e-07
1.15578e-07
1.15432e-07
1.15203e-07
1.15204e-07
1.15204e-07
1.15203e-07
1.1558e-07
1.15531e-07
1.15609e-07
1.15567e-07
1.15449e-07
1.15567e-07
1.15583e-07
1.1557e-07
1.15571e-07
1.15531e-07
1.15693e-07
1.15616e-07
1.15614e-07
1.15487e-07
1.15641e-07
1.15609e-07
1.13919e-07
1.13913e-07
1.13885e-07
1.13731e-07
1.13738e-07
1.13758e-07
1.13767e-07
1.13937e-07
1.13926e-07
1.13885e-07
1.13738e-07
1.13562e-07
1.13563e-07
1.13563e-07
1.13562e-07
1.13791e-07
1.13809e-07
1.13731e-07
1.13562e-07
1.13566e-07
1.13564e-07
1.13564e-07
1.13566e-07
1.13562e-07
1.13926e-07
1.13975e-07
1.1392e-07
1.13738e-07
1.13563e-07
1.13564e-07
1.13563e-07
1.13563e-07
1.13564e-07
1.13563e-07
1.13942e-07
1.13973e-07
1.13913e-07
1.13758e-07
1.13563e-07
1.13564e-07
1.13563e-07
1.13563e-07
1.13564e-07
1.13563e-07
1.13929e-07
1.13846e-07
1.13767e-07
1.13562e-07
1.13566e-07
1.13564e-07
1.13564e-07
1.13566e-07
1.13562e-07
1.1393e-07
1.14e-07
1.13937e-07
1.13791e-07
1.13562e-07
1.13563e-07
1.13563e-07
1.13562e-07
1.13939e-07
1.1389e-07
1.13968e-07
1.13926e-07
1.13809e-07
1.13926e-07
1.13942e-07
1.13929e-07
1.1393e-07
1.1389e-07
1.14052e-07
1.13975e-07
1.13973e-07
1.13846e-07
1.14e-07
1.13968e-07
1.12279e-07
1.12272e-07
1.12244e-07
1.1209e-07
1.12097e-07
1.12117e-07
1.12126e-07
1.12296e-07
1.12285e-07
1.12244e-07
1.12097e-07
1.11921e-07
1.11922e-07
1.11922e-07
1.11921e-07
1.1215e-07
1.12168e-07
1.1209e-07
1.11921e-07
1.11925e-07
1.11923e-07
1.11923e-07
1.11925e-07
1.11921e-07
1.12286e-07
1.12335e-07
1.12279e-07
1.12097e-07
1.11922e-07
1.11923e-07
1.11923e-07
1.11923e-07
1.11923e-07
1.11922e-07
1.12302e-07
1.12332e-07
1.12272e-07
1.12117e-07
1.11922e-07
1.11923e-07
1.11923e-07
1.11923e-07
1.11923e-07
1.11922e-07
1.12288e-07
1.12205e-07
1.12126e-07
1.11921e-07
1.11925e-07
1.11923e-07
1.11923e-07
1.11925e-07
1.11921e-07
1.12289e-07
1.12359e-07
1.12296e-07
1.1215e-07
1.11921e-07
1.11922e-07
1.11922e-07
1.11921e-07
1.12298e-07
1.12249e-07
1.12327e-07
1.12285e-07
1.12168e-07
1.12286e-07
1.12302e-07
1.12288e-07
1.12289e-07
1.12249e-07
1.12411e-07
1.12335e-07
1.12332e-07
1.12205e-07
1.12359e-07
1.12327e-07
1.10638e-07
1.10631e-07
1.10603e-07
1.1045e-07
1.10457e-07
1.10476e-07
1.10485e-07
1.10655e-07
1.10644e-07
1.10603e-07
1.10457e-07
1.1028e-07
1.10281e-07
1.10281e-07
1.1028e-07
1.10509e-07
1.10527e-07
1.1045e-07
1.1028e-07
1.10284e-07
1.10282e-07
1.10282e-07
1.10284e-07
1.1028e-07
1.10645e-07
1.10694e-07
1.10638e-07
1.10457e-07
1.10281e-07
1.10282e-07
1.10282e-07
1.10282e-07
1.10282e-07
1.10281e-07
1.10661e-07
1.10691e-07
1.10631e-07
1.10476e-07
1.10281e-07
1.10282e-07
1.10282e-07
1.10282e-07
1.10282e-07
1.10281e-07
1.10647e-07
1.10564e-07
1.10485e-07
1.1028e-07
1.10284e-07
1.10282e-07
1.10282e-07
1.10284e-07
1.1028e-07
1.10649e-07
1.10718e-07
1.10655e-07
1.10509e-07
1.1028e-07
1.10281e-07
1.10281e-07
1.1028e-07
1.10658e-07
1.10608e-07
1.10686e-07
1.10644e-07
1.10527e-07
1.10645e-07
1.10661e-07
1.10647e-07
1.10649e-07
1.10609e-07
1.10771e-07
1.10694e-07
1.10691e-07
1.10564e-07
1.10718e-07
1.10686e-07
1.08997e-07
1.0899e-07
1.08962e-07
1.08809e-07
1.08816e-07
1.08835e-07
1.08844e-07
1.09014e-07
1.09003e-07
1.08962e-07
1.08816e-07
1.0864e-07
1.0864e-07
1.0864e-07
1.0864e-07
1.08868e-07
1.08886e-07
1.08809e-07
1.0864e-07
1.08643e-07
1.08642e-07
1.08642e-07
1.08643e-07
1.0864e-07
1.09004e-07
1.09053e-07
1.08997e-07
1.08816e-07
1.0864e-07
1.08642e-07
1.08641e-07
1.08641e-07
1.08642e-07
1.0864e-07
1.0902e-07
1.0905e-07
1.0899e-07
1.08835e-07
1.0864e-07
1.08642e-07
1.08641e-07
1.08641e-07
1.08642e-07
1.0864e-07
1.09006e-07
1.08923e-07
1.08844e-07
1.0864e-07
1.08643e-07
1.08642e-07
1.08642e-07
1.08643e-07
1.0864e-07
1.09008e-07
1.09078e-07
1.09014e-07
1.08868e-07
1.0864e-07
1.0864e-07
1.0864e-07
1.0864e-07
1.09017e-07
1.08968e-07
1.09045e-07
1.09003e-07
1.08886e-07
1.09004e-07
1.0902e-07
1.09006e-07
1.09008e-07
1.08968e-07
1.0913e-07
1.09053e-07
1.09051e-07
1.08923e-07
1.09078e-07
1.09045e-07
1.07356e-07
1.07349e-07
1.07321e-07
1.07168e-07
1.07175e-07
1.07195e-07
1.07204e-07
1.07373e-07
1.07362e-07
1.07321e-07
1.07175e-07
1.06999e-07
1.06999e-07
1.06999e-07
1.06999e-07
1.07228e-07
1.07245e-07
1.07168e-07
1.06999e-07
1.07002e-07
1.07001e-07
1.07001e-07
1.07002e-07
1.06999e-07
1.07363e-07
1.07412e-07
1.07356e-07
1.07175e-07
1.06999e-07
1.07001e-07
1.07e-07
1.07e-07
1.07001e-07
1.06999e-07
1.07379e-07
1.0741e-07
1.07349e-07
1.07195e-07
1.06999e-07
1.07001e-07
1.07e-07
1.07e-07
1.07001e-07
1.06999e-07
1.07365e-07
1.07282e-07
1.07204e-07
1.06999e-07
1.07002e-07
1.07001e-07
1.07001e-07
1.07002e-07
1.06999e-07
1.07367e-07
1.07437e-07
1.07373e-07
1.07228e-07
1.06999e-07
1.06999e-07
1.06999e-07
1.06999e-07
1.07376e-07
1.07327e-07
1.07405e-07
1.07362e-07
1.07245e-07
1.07363e-07
1.07379e-07
1.07365e-07
1.07367e-07
1.07327e-07
1.07489e-07
1.07412e-07
1.0741e-07
1.07282e-07
1.07437e-07
1.07405e-07
1.05715e-07
1.05708e-07
1.0568e-07
1.05527e-07
1.05534e-07
1.05554e-07
1.05563e-07
1.05733e-07
1.05722e-07
1.05681e-07
1.05534e-07
1.05358e-07
1.05359e-07
1.05359e-07
1.05358e-07
1.05587e-07
1.05605e-07
1.05527e-07
1.05358e-07
1.05362e-07
1.0536e-07
1.0536e-07
1.05362e-07
1.05358e-07
1.05722e-07
1.05771e-07
1.05715e-07
1.05534e-07
1.05359e-07
1.0536e-07
1.05359e-07
1.05359e-07
1.0536e-07
1.05359e-07
1.05738e-07
1.05769e-07
1.05708e-07
1.05554e-07
1.05359e-07
1.0536e-07
1.05359e-07
1.05359e-07
1.0536e-07
1.05359e-07
1.05725e-07
1.05642e-07
1.05563e-07
1.05358e-07
1.05362e-07
1.0536e-07
1.0536e-07
1.05362e-07
1.05358e-07
1.05726e-07
1.05796e-07
1.05733e-07
1.05587e-07
1.05358e-07
1.05359e-07
1.05359e-07
1.05358e-07
1.05735e-07
1.05686e-07
1.05764e-07
1.05722e-07
1.05605e-07
1.05722e-07
1.05738e-07
1.05725e-07
1.05726e-07
1.05686e-07
1.05848e-07
1.05771e-07
1.05769e-07
1.05642e-07
1.05796e-07
1.05764e-07
1.04075e-07
1.04068e-07
1.0404e-07
1.03886e-07
1.03893e-07
1.03913e-07
1.03922e-07
1.04092e-07
1.04081e-07
1.0404e-07
1.03894e-07
1.03717e-07
1.03718e-07
1.03718e-07
1.03717e-07
1.03946e-07
1.03964e-07
1.03886e-07
1.03717e-07
1.03721e-07
1.03719e-07
1.03719e-07
1.03721e-07
1.03717e-07
1.04082e-07
1.04131e-07
1.04075e-07
1.03893e-07
1.03718e-07
1.03719e-07
1.03719e-07
1.03719e-07
1.03719e-07
1.03718e-07
1.04098e-07
1.04128e-07
1.04068e-07
1.03913e-07
1.03718e-07
1.03719e-07
1.03719e-07
1.03719e-07
1.03719e-07
1.03718e-07
1.04084e-07
1.04001e-07
1.03922e-07
1.03717e-07
1.03721e-07
1.03719e-07
1.03719e-07
1.03721e-07
1.03717e-07
1.04085e-07
1.04155e-07
1.04092e-07
1.03946e-07
1.03717e-07
1.03718e-07
1.03718e-07
1.03717e-07
1.04095e-07
1.04045e-07
1.04123e-07