/*--------------------------------*- C++ -*----------------------------------*\
| =========                 |                                                 |
| \\      /  F ield         | OpenFOAM: The Open Source CFD Toolbox           |
|  \\    /   O peration     | Version:  v2012                                 |
|   \\  /    A nd           | Website:  www.openfoam.com                      |
|    \\/     M anipulation  |                                                 |
\*---------------------------------------------------------------------------*/
FoamFile
{
    version     2.0;
    format      ascii;
    class       volScalarField;
    location    "0.285";
    object      p;
}
// * * * * * * * * * * * * * * * * * * * * * * * * * * * * * * * * * * * * * //

dimensions      [0 2 -2 0 0 0 0];


internalField   nonuniform List<scalar> 
247104
(
1.86562e-06
1.8656e-06
1.86573e-06
1.86568e-06
1.86557e-06
1.86571e-06
1.86572e-06
1.86553e-06
1.86561e-06
1.86566e-06
1.86571e-06
1.86555e-06
1.86545e-06
1.86557e-06
1.86573e-06
1.86563e-06
1.86573e-06
1.86571e-06
1.86541e-06
1.86503e-06
1.86489e-06
1.86507e-06
1.86546e-06
1.86573e-06
1.86574e-06
1.86568e-06
1.86555e-06
1.86503e-06
1.86454e-06
1.86437e-06
1.86459e-06
1.86511e-06
1.8656e-06
1.86568e-06
1.86562e-06
1.86557e-06
1.86545e-06
1.86489e-06
1.86437e-06
1.86419e-06
1.86442e-06
1.86497e-06
1.8655e-06
1.86555e-06
1.86571e-06
1.86558e-06
1.86507e-06
1.86459e-06
1.86442e-06
1.86464e-06
1.86514e-06
1.86562e-06
1.86571e-06
1.86572e-06
1.86573e-06
1.86546e-06
1.86511e-06
1.86497e-06
1.86515e-06
1.8655e-06
1.86574e-06
1.86572e-06
1.86553e-06
1.86563e-06
1.86573e-06
1.8656e-06
1.8655e-06
1.86562e-06
1.86574e-06
1.8656e-06
1.86574e-06
1.86568e-06
1.86555e-06
1.86571e-06
1.86573e-06
1.83219e-06
1.83018e-06
1.82972e-06
1.82854e-06
1.82854e-06
1.82846e-06
1.82847e-06
1.82976e-06
1.83008e-06
1.82973e-06
1.82767e-06
1.82492e-06
1.82488e-06
1.82488e-06
1.82492e-06
1.82807e-06
1.82829e-06
1.82854e-06
1.82492e-06
1.82486e-06
1.82492e-06
1.82492e-06
1.82486e-06
1.82492e-06
1.82845e-06
1.82957e-06
1.83219e-06
1.82854e-06
1.82488e-06
1.82492e-06
1.82502e-06
1.82502e-06
1.82492e-06
1.82488e-06
1.82841e-06
1.83004e-06
1.83017e-06
1.82846e-06
1.82488e-06
1.82492e-06
1.82502e-06
1.82502e-06
1.82492e-06
1.82488e-06
1.82859e-06
1.82855e-06
1.82847e-06
1.82492e-06
1.82486e-06
1.82492e-06
1.82492e-06
1.82486e-06
1.82492e-06
1.82836e-06
1.82944e-06
1.82976e-06
1.82807e-06
1.82492e-06
1.82488e-06
1.82488e-06
1.82492e-06
1.82825e-06
1.82847e-06
1.82989e-06
1.83008e-06
1.82829e-06
1.82846e-06
1.82841e-06
1.82859e-06
1.82836e-06
1.82846e-06
1.83033e-06
1.82957e-06
1.83004e-06
1.82854e-06
1.82943e-06
1.82989e-06
1.81208e-06
1.81189e-06
1.81173e-06
1.80958e-06
1.8095e-06
1.80947e-06
1.80956e-06
1.81172e-06
1.81196e-06
1.81173e-06
1.80886e-06
1.80588e-06
1.80579e-06
1.80578e-06
1.80587e-06
1.80943e-06
1.81003e-06
1.80959e-06
1.80586e-06
1.80555e-06
1.80558e-06
1.80558e-06
1.80556e-06
1.80587e-06
1.81025e-06
1.81223e-06
1.81208e-06
1.8095e-06
1.80578e-06
1.80558e-06
1.80561e-06
1.80561e-06
1.80558e-06
1.80578e-06
1.81029e-06
1.81196e-06
1.8119e-06
1.80947e-06
1.80578e-06
1.80558e-06
1.80561e-06
1.80561e-06
1.80558e-06
1.80579e-06
1.81024e-06
1.81013e-06
1.80957e-06
1.80587e-06
1.80556e-06
1.80558e-06
1.80558e-06
1.80555e-06
1.80588e-06
1.8103e-06
1.8123e-06
1.81172e-06
1.80943e-06
1.80588e-06
1.80579e-06
1.80578e-06
1.80586e-06
1.8099e-06
1.81018e-06
1.81221e-06
1.81196e-06
1.81003e-06
1.81025e-06
1.8103e-06
1.81024e-06
1.8103e-06
1.81018e-06
1.81214e-06
1.81223e-06
1.81196e-06
1.81014e-06
1.81231e-06
1.81221e-06
1.79296e-06
1.79279e-06
1.79267e-06
1.79045e-06
1.79036e-06
1.79027e-06
1.79046e-06
1.79263e-06
1.79289e-06
1.79267e-06
1.78967e-06
1.78672e-06
1.78667e-06
1.78667e-06
1.78672e-06
1.79024e-06
1.791e-06
1.79045e-06
1.78672e-06
1.78657e-06
1.78658e-06
1.78658e-06
1.78657e-06
1.78672e-06
1.79116e-06
1.79312e-06
1.79297e-06
1.79037e-06
1.78667e-06
1.78658e-06
1.78658e-06
1.78658e-06
1.78658e-06
1.78667e-06
1.79123e-06
1.79284e-06
1.79279e-06
1.79027e-06
1.78667e-06
1.78658e-06
1.78658e-06
1.78658e-06
1.78658e-06
1.78668e-06
1.7912e-06
1.79108e-06
1.79046e-06
1.78672e-06
1.78657e-06
1.78658e-06
1.78658e-06
1.78658e-06
1.78672e-06
1.79121e-06
1.79317e-06
1.79263e-06
1.79024e-06
1.78672e-06
1.78668e-06
1.78668e-06
1.78672e-06
1.79097e-06
1.79114e-06
1.79313e-06
1.79289e-06
1.791e-06
1.79116e-06
1.79123e-06
1.7912e-06
1.79122e-06
1.79114e-06
1.79315e-06
1.79312e-06
1.79284e-06
1.79109e-06
1.79318e-06
1.79314e-06
1.7738e-06
1.77362e-06
1.77346e-06
1.77124e-06
1.77115e-06
1.77103e-06
1.77125e-06
1.77344e-06
1.77369e-06
1.77346e-06
1.77046e-06
1.7675e-06
1.76749e-06
1.76749e-06
1.7675e-06
1.771e-06
1.77182e-06
1.77124e-06
1.7675e-06
1.76746e-06
1.76746e-06
1.76746e-06
1.76746e-06
1.7675e-06
1.77199e-06
1.77394e-06
1.7738e-06
1.77115e-06
1.76749e-06
1.76746e-06
1.76746e-06
1.76746e-06
1.76746e-06
1.76749e-06
1.7721e-06
1.7737e-06
1.77362e-06
1.77103e-06
1.76749e-06
1.76746e-06
1.76746e-06
1.76746e-06
1.76746e-06
1.76749e-06
1.77208e-06
1.77195e-06
1.77125e-06
1.7675e-06
1.76746e-06
1.76746e-06
1.76746e-06
1.76746e-06
1.7675e-06
1.77206e-06
1.77403e-06
1.77344e-06
1.771e-06
1.7675e-06
1.76749e-06
1.76749e-06
1.7675e-06
1.77186e-06
1.77198e-06
1.77395e-06
1.77369e-06
1.77182e-06
1.77199e-06
1.7721e-06
1.77208e-06
1.77206e-06
1.77198e-06
1.77392e-06
1.77395e-06
1.7737e-06
1.77195e-06
1.77403e-06
1.77395e-06
1.75461e-06
1.75444e-06
1.75426e-06
1.75205e-06
1.75195e-06
1.75183e-06
1.75205e-06
1.75424e-06
1.75449e-06
1.75426e-06
1.75126e-06
1.7483e-06
1.7483e-06
1.7483e-06
1.7483e-06
1.75178e-06
1.75262e-06
1.75205e-06
1.7483e-06
1.74829e-06
1.74829e-06
1.74829e-06
1.74829e-06
1.7483e-06
1.7528e-06
1.75476e-06
1.75461e-06
1.75195e-06
1.7483e-06
1.74829e-06
1.74829e-06
1.74829e-06
1.74829e-06
1.7483e-06
1.75292e-06
1.75453e-06
1.75444e-06
1.75184e-06
1.7483e-06
1.74829e-06
1.74829e-06
1.74829e-06
1.74829e-06
1.7483e-06
1.75291e-06
1.75277e-06
1.75205e-06
1.7483e-06
1.74829e-06
1.74829e-06
1.74829e-06
1.74829e-06
1.7483e-06
1.75287e-06
1.75485e-06
1.75424e-06
1.75178e-06
1.7483e-06
1.7483e-06
1.7483e-06
1.7483e-06
1.7527e-06
1.7528e-06
1.75476e-06
1.75449e-06
1.75262e-06
1.7528e-06
1.75292e-06
1.75291e-06
1.75287e-06
1.7528e-06
1.75474e-06
1.75476e-06
1.75453e-06
1.75277e-06
1.75485e-06
1.75476e-06
1.73542e-06
1.73525e-06
1.73507e-06
1.73286e-06
1.73276e-06
1.73264e-06
1.73286e-06
1.73505e-06
1.7353e-06
1.73507e-06
1.73207e-06
1.72911e-06
1.72911e-06
1.72911e-06
1.72911e-06
1.73258e-06
1.73343e-06
1.73286e-06
1.72911e-06
1.72911e-06
1.72911e-06
1.72911e-06
1.72911e-06
1.72911e-06
1.73361e-06
1.73557e-06
1.73543e-06
1.73276e-06
1.72911e-06
1.72911e-06
1.72911e-06
1.72911e-06
1.72911e-06
1.72911e-06
1.73374e-06
1.73534e-06
1.73525e-06
1.73264e-06
1.72911e-06
1.72911e-06
1.72911e-06
1.72911e-06
1.72911e-06
1.72911e-06
1.73372e-06
1.73359e-06
1.73286e-06
1.72911e-06
1.72911e-06
1.72911e-06
1.72911e-06
1.72911e-06
1.72911e-06
1.73368e-06
1.73567e-06
1.73505e-06
1.73258e-06
1.72911e-06
1.72911e-06
1.72911e-06
1.72911e-06
1.73351e-06
1.73361e-06
1.73557e-06
1.7353e-06
1.73343e-06
1.73361e-06
1.73373e-06
1.73372e-06
1.73368e-06
1.73361e-06
1.73554e-06
1.73557e-06
1.73534e-06
1.73359e-06
1.73567e-06
1.73557e-06
1.71624e-06
1.71607e-06
1.71588e-06
1.71367e-06
1.71357e-06
1.71346e-06
1.71367e-06
1.71587e-06
1.71611e-06
1.71588e-06
1.71289e-06
1.70992e-06
1.70992e-06
1.70992e-06
1.70992e-06
1.71339e-06
1.71424e-06
1.71367e-06
1.70992e-06
1.70992e-06
1.70992e-06
1.70992e-06
1.70992e-06
1.70992e-06
1.71442e-06
1.71638e-06
1.71624e-06
1.71357e-06
1.70992e-06
1.70992e-06
1.70992e-06
1.70992e-06
1.70992e-06
1.70992e-06
1.71455e-06
1.71616e-06
1.71607e-06
1.71346e-06
1.70992e-06
1.70992e-06
1.70992e-06
1.70992e-06
1.70992e-06
1.70992e-06
1.71454e-06
1.7144e-06
1.71367e-06
1.70992e-06
1.70992e-06
1.70992e-06
1.70992e-06
1.70992e-06
1.70992e-06
1.7145e-06
1.71648e-06
1.71587e-06
1.7134e-06
1.70992e-06
1.70992e-06
1.70992e-06
1.70992e-06
1.71432e-06
1.71443e-06
1.71638e-06
1.71611e-06
1.71424e-06
1.71442e-06
1.71455e-06
1.71454e-06
1.7145e-06
1.71443e-06
1.71635e-06
1.71638e-06
1.71616e-06
1.7144e-06
1.71648e-06
1.71638e-06
1.69705e-06
1.69688e-06
1.69669e-06
1.69448e-06
1.69438e-06
1.69427e-06
1.69448e-06
1.69668e-06
1.69692e-06
1.69669e-06
1.6937e-06
1.69074e-06
1.69073e-06
1.69073e-06
1.69074e-06
1.69421e-06
1.69505e-06
1.69448e-06
1.69074e-06
1.69074e-06
1.69073e-06
1.69074e-06
1.69073e-06
1.69073e-06
1.69523e-06
1.69719e-06
1.69705e-06
1.69438e-06
1.69073e-06
1.69074e-06
1.69074e-06
1.69074e-06
1.69074e-06
1.69074e-06
1.69536e-06
1.69697e-06
1.69688e-06
1.69427e-06
1.69074e-06
1.69074e-06
1.69074e-06
1.69074e-06
1.69073e-06
1.69073e-06
1.69535e-06
1.69521e-06
1.69448e-06
1.69073e-06
1.69073e-06
1.69074e-06
1.69074e-06
1.69073e-06
1.69073e-06
1.69531e-06
1.69729e-06
1.69668e-06
1.69421e-06
1.69074e-06
1.69074e-06
1.69074e-06
1.69074e-06
1.69514e-06
1.69524e-06
1.69719e-06
1.69692e-06
1.69505e-06
1.69523e-06
1.69536e-06
1.69535e-06
1.69531e-06
1.69524e-06
1.69716e-06
1.69719e-06
1.69697e-06
1.69521e-06
1.69729e-06
1.69719e-06
1.67786e-06
1.67769e-06
1.67751e-06
1.67529e-06
1.6752e-06
1.67508e-06
1.67529e-06
1.67749e-06
1.67773e-06
1.67751e-06
1.67451e-06
1.67155e-06
1.67155e-06
1.67155e-06
1.67155e-06
1.67502e-06
1.67587e-06
1.67529e-06
1.67155e-06
1.67155e-06
1.67155e-06
1.67155e-06
1.67155e-06
1.67155e-06
1.67604e-06
1.678e-06
1.67786e-06
1.6752e-06
1.67155e-06
1.67155e-06
1.67155e-06
1.67155e-06
1.67155e-06
1.67155e-06
1.67617e-06
1.67778e-06
1.67769e-06
1.67508e-06
1.67155e-06
1.67155e-06
1.67155e-06
1.67155e-06
1.67155e-06
1.67155e-06
1.67616e-06
1.67603e-06
1.67529e-06
1.67155e-06
1.67155e-06
1.67155e-06
1.67155e-06
1.67155e-06
1.67155e-06
1.67612e-06
1.67811e-06
1.67749e-06
1.67502e-06
1.67155e-06
1.67155e-06
1.67155e-06
1.67155e-06
1.67595e-06
1.67605e-06
1.678e-06
1.67774e-06
1.67587e-06
1.67604e-06
1.67617e-06
1.67616e-06
1.67612e-06
1.67605e-06
1.67797e-06
1.678e-06
1.67778e-06
1.67603e-06
1.6781e-06
1.678e-06
1.65867e-06
1.6585e-06
1.65832e-06
1.6561e-06
1.65601e-06
1.65589e-06
1.65611e-06
1.6583e-06
1.65855e-06
1.65832e-06
1.65532e-06
1.65236e-06
1.65236e-06
1.65236e-06
1.65236e-06
1.65583e-06
1.65668e-06
1.6561e-06
1.65236e-06
1.65236e-06
1.65236e-06
1.65236e-06
1.65236e-06
1.65236e-06
1.65685e-06
1.65882e-06
1.65868e-06
1.65601e-06
1.65236e-06
1.65236e-06
1.65236e-06
1.65236e-06
1.65236e-06
1.65236e-06
1.65698e-06
1.65859e-06
1.6585e-06
1.65589e-06
1.65236e-06
1.65236e-06
1.65236e-06
1.65236e-06
1.65236e-06
1.65236e-06
1.65697e-06
1.65684e-06
1.65611e-06
1.65236e-06
1.65236e-06
1.65236e-06
1.65236e-06
1.65236e-06
1.65236e-06
1.65693e-06
1.65892e-06
1.6583e-06
1.65583e-06
1.65236e-06
1.65236e-06
1.65236e-06
1.65236e-06
1.65676e-06
1.65686e-06
1.65882e-06
1.65855e-06
1.65668e-06
1.65685e-06
1.65698e-06
1.65697e-06
1.65693e-06
1.65686e-06
1.65879e-06
1.65882e-06
1.65859e-06
1.65684e-06
1.65892e-06
1.65882e-06
1.63949e-06
1.63932e-06
1.63913e-06
1.63692e-06
1.63682e-06
1.63671e-06
1.63692e-06
1.63912e-06
1.63936e-06
1.63913e-06
1.63614e-06
1.63317e-06
1.63317e-06
1.63317e-06
1.63317e-06
1.63664e-06
1.63749e-06
1.63692e-06
1.63317e-06
1.63317e-06
1.63317e-06
1.63317e-06
1.63317e-06
1.63317e-06
1.63767e-06
1.63963e-06
1.63949e-06
1.63682e-06
1.63317e-06
1.63317e-06
1.63317e-06
1.63317e-06
1.63317e-06
1.63317e-06
1.6378e-06
1.63941e-06
1.63932e-06
1.63671e-06
1.63317e-06
1.63317e-06
1.63317e-06
1.63317e-06
1.63317e-06
1.63317e-06
1.63779e-06
1.63765e-06
1.63692e-06
1.63317e-06
1.63317e-06
1.63317e-06
1.63317e-06
1.63317e-06
1.63317e-06
1.63775e-06
1.63973e-06
1.63912e-06
1.63665e-06
1.63317e-06
1.63317e-06
1.63317e-06
1.63317e-06
1.63758e-06
1.63768e-06
1.63963e-06
1.63936e-06
1.63749e-06
1.63767e-06
1.63779e-06
1.63779e-06
1.63774e-06
1.63768e-06
1.6396e-06
1.63963e-06
1.63941e-06
1.63765e-06
1.63973e-06
1.63963e-06
1.6203e-06
1.62013e-06
1.61995e-06
1.61773e-06
1.61763e-06
1.61752e-06
1.61773e-06
1.61993e-06
1.62017e-06
1.61994e-06
1.61695e-06
1.61399e-06
1.61399e-06
1.61399e-06
1.61399e-06
1.61746e-06
1.6183e-06
1.61773e-06
1.61399e-06
1.61399e-06
1.61399e-06
1.61399e-06
1.61399e-06
1.61399e-06
1.61848e-06
1.62044e-06
1.6203e-06
1.61763e-06
1.61399e-06
1.61399e-06
1.61399e-06
1.61399e-06
1.61399e-06
1.61399e-06
1.61861e-06
1.62022e-06
1.62013e-06
1.61752e-06
1.61399e-06
1.61399e-06
1.61399e-06
1.61399e-06
1.61399e-06
1.61399e-06
1.6186e-06
1.61846e-06
1.61773e-06
1.61399e-06
1.61399e-06
1.61399e-06
1.61399e-06
1.61399e-06
1.61399e-06
1.61856e-06
1.62054e-06
1.61993e-06
1.61746e-06
1.61399e-06
1.61399e-06
1.61399e-06
1.61399e-06
1.61839e-06
1.61849e-06
1.62044e-06
1.62017e-06
1.6183e-06
1.61848e-06
1.61861e-06
1.6186e-06
1.61856e-06
1.61849e-06
1.62041e-06
1.62044e-06
1.62022e-06
1.61846e-06
1.62054e-06
1.62044e-06
1.60111e-06
1.60094e-06
1.60076e-06
1.59854e-06
1.59845e-06
1.59833e-06
1.59854e-06
1.60074e-06
1.60099e-06
1.60076e-06
1.59776e-06
1.5948e-06
1.5948e-06
1.5948e-06
1.5948e-06
1.59827e-06
1.59912e-06
1.59854e-06
1.5948e-06
1.5948e-06
1.5948e-06
1.5948e-06
1.5948e-06
1.5948e-06
1.59929e-06
1.60126e-06
1.60111e-06
1.59845e-06
1.5948e-06
1.5948e-06
1.5948e-06
1.5948e-06
1.5948e-06
1.5948e-06
1.59942e-06
1.60103e-06
1.60094e-06
1.59833e-06
1.5948e-06
1.5948e-06
1.5948e-06
1.5948e-06
1.5948e-06
1.5948e-06
1.59941e-06
1.59928e-06
1.59854e-06
1.5948e-06
1.5948e-06
1.5948e-06
1.5948e-06
1.5948e-06
1.5948e-06
1.59937e-06
1.60136e-06
1.60074e-06
1.59827e-06
1.5948e-06
1.5948e-06
1.5948e-06
1.5948e-06
1.5992e-06
1.5993e-06
1.60125e-06
1.60099e-06
1.59912e-06
1.59929e-06
1.59942e-06
1.59941e-06
1.59937e-06
1.5993e-06
1.60122e-06
1.60125e-06
1.60103e-06
1.59928e-06
1.60136e-06
1.60125e-06
1.58192e-06
1.58175e-06
1.58157e-06
1.57935e-06
1.57926e-06
1.57914e-06
1.57936e-06
1.58155e-06
1.5818e-06
1.58157e-06
1.57857e-06
1.57561e-06
1.57561e-06
1.57561e-06
1.57561e-06
1.57908e-06
1.57993e-06
1.57935e-06
1.57561e-06
1.57561e-06
1.57561e-06
1.57561e-06
1.57561e-06
1.57561e-06
1.5801e-06
1.58207e-06
1.58193e-06
1.57926e-06
1.57561e-06
1.57561e-06
1.57561e-06
1.57561e-06
1.57561e-06
1.57561e-06
1.58023e-06
1.58184e-06
1.58175e-06
1.57914e-06
1.57561e-06
1.57561e-06
1.57561e-06
1.57561e-06
1.57561e-06
1.57561e-06
1.58023e-06
1.58009e-06
1.57936e-06
1.57561e-06
1.57561e-06
1.57561e-06
1.57561e-06
1.57561e-06
1.57561e-06
1.58018e-06
1.58217e-06
1.58155e-06
1.57908e-06
1.57561e-06
1.57561e-06
1.57561e-06
1.57561e-06
1.58002e-06
1.58012e-06
1.58207e-06
1.5818e-06
1.57993e-06
1.5801e-06
1.58023e-06
1.58022e-06
1.58018e-06
1.58012e-06
1.58204e-06
1.58207e-06
1.58184e-06
1.58009e-06
1.58217e-06
1.58207e-06
1.56274e-06
1.56257e-06
1.56238e-06
1.56017e-06
1.56007e-06
1.55996e-06
1.56017e-06
1.56237e-06
1.56261e-06
1.56238e-06
1.55939e-06
1.55642e-06
1.55642e-06
1.55642e-06
1.55642e-06
1.55989e-06
1.56074e-06
1.56017e-06
1.55642e-06
1.55642e-06
1.55642e-06
1.55642e-06
1.55642e-06
1.55642e-06
1.56092e-06
1.56288e-06
1.56274e-06
1.56007e-06
1.55642e-06
1.55642e-06
1.55642e-06
1.55642e-06
1.55642e-06
1.55642e-06
1.56105e-06
1.56266e-06
1.56257e-06
1.55996e-06
1.55642e-06
1.55642e-06
1.55642e-06
1.55642e-06
1.55642e-06
1.55642e-06
1.56104e-06
1.5609e-06
1.56017e-06
1.55642e-06
1.55642e-06
1.55642e-06
1.55642e-06
1.55642e-06
1.55642e-06
1.561e-06
1.56298e-06
1.56237e-06
1.5599e-06
1.55642e-06
1.55642e-06
1.55642e-06
1.55642e-06
1.56083e-06
1.56093e-06
1.56288e-06
1.56261e-06
1.56074e-06
1.56092e-06
1.56105e-06
1.56104e-06
1.56099e-06
1.56093e-06
1.56285e-06
1.56288e-06
1.56266e-06
1.5609e-06
1.56298e-06
1.56288e-06
1.54355e-06
1.54338e-06
1.54319e-06
1.54098e-06
1.54088e-06
1.54077e-06
1.54098e-06
1.54318e-06
1.54342e-06
1.5432e-06
1.5402e-06
1.53724e-06
1.53724e-06
1.53724e-06
1.53724e-06
1.54071e-06
1.54155e-06
1.54098e-06
1.53724e-06
1.53724e-06
1.53724e-06
1.53724e-06
1.53724e-06
1.53724e-06
1.54173e-06
1.54369e-06
1.54355e-06
1.54088e-06
1.53724e-06
1.53724e-06
1.53724e-06
1.53724e-06
1.53724e-06
1.53724e-06
1.54186e-06
1.54347e-06
1.54338e-06
1.54077e-06
1.53724e-06
1.53724e-06
1.53724e-06
1.53724e-06
1.53724e-06
1.53724e-06
1.54185e-06
1.54171e-06
1.54098e-06
1.53724e-06
1.53724e-06
1.53724e-06
1.53724e-06
1.53724e-06
1.53724e-06
1.54181e-06
1.54379e-06
1.54318e-06
1.54071e-06
1.53724e-06
1.53724e-06
1.53724e-06
1.53724e-06
1.54164e-06
1.54174e-06
1.54369e-06
1.54342e-06
1.54156e-06
1.54173e-06
1.54186e-06
1.54185e-06
1.54181e-06
1.54174e-06
1.54366e-06
1.54369e-06
1.54347e-06
1.54171e-06
1.54379e-06
1.54369e-06
1.52436e-06
1.52419e-06
1.52401e-06
1.52179e-06
1.5217e-06
1.52158e-06
1.5218e-06
1.52399e-06
1.52424e-06
1.52401e-06
1.52101e-06
1.51805e-06
1.51805e-06
1.51805e-06
1.51805e-06
1.52152e-06
1.52237e-06
1.52179e-06
1.51805e-06
1.51805e-06
1.51805e-06
1.51805e-06
1.51805e-06
1.51805e-06
1.52254e-06
1.52451e-06
1.52437e-06
1.5217e-06
1.51805e-06
1.51805e-06
1.51805e-06
1.51805e-06
1.51805e-06
1.51805e-06
1.52267e-06
1.52428e-06
1.52419e-06
1.52158e-06
1.51805e-06
1.51805e-06
1.51805e-06
1.51805e-06
1.51805e-06
1.51805e-06
1.52266e-06
1.52253e-06
1.5218e-06
1.51805e-06
1.51805e-06
1.51805e-06
1.51805e-06
1.51805e-06
1.51805e-06
1.52262e-06
1.52461e-06
1.52399e-06
1.52152e-06
1.51805e-06
1.51805e-06
1.51805e-06
1.51805e-06
1.52245e-06
1.52255e-06
1.5245e-06
1.52424e-06
1.52237e-06
1.52254e-06
1.52267e-06
1.52266e-06
1.52262e-06
1.52255e-06
1.52448e-06
1.52451e-06
1.52428e-06
1.52253e-06
1.52461e-06
1.52451e-06
1.50518e-06
1.50501e-06
1.50482e-06
1.50261e-06
1.50251e-06
1.50239e-06
1.50261e-06
1.5048e-06
1.50505e-06
1.50482e-06
1.50183e-06
1.49886e-06
1.49886e-06
1.49886e-06
1.49886e-06
1.50233e-06
1.50318e-06
1.5026e-06
1.49886e-06
1.49886e-06
1.49886e-06
1.49886e-06
1.49886e-06
1.49886e-06
1.50336e-06
1.50532e-06
1.50518e-06
1.50251e-06
1.49886e-06
1.49886e-06
1.49886e-06
1.49886e-06
1.49886e-06
1.49886e-06
1.50349e-06
1.5051e-06
1.50501e-06
1.5024e-06
1.49886e-06
1.49886e-06
1.49886e-06
1.49886e-06
1.49886e-06
1.49886e-06
1.50348e-06
1.50334e-06
1.50261e-06
1.49886e-06
1.49886e-06
1.49886e-06
1.49886e-06
1.49886e-06
1.49886e-06
1.50344e-06
1.50542e-06
1.50481e-06
1.50233e-06
1.49886e-06
1.49886e-06
1.49886e-06
1.49886e-06
1.50327e-06
1.50337e-06
1.50532e-06
1.50505e-06
1.50318e-06
1.50336e-06
1.50348e-06
1.50348e-06
1.50343e-06
1.50337e-06
1.50529e-06
1.50532e-06
1.5051e-06
1.50334e-06
1.50542e-06
1.50532e-06
1.48599e-06
1.48582e-06
1.48563e-06
1.48342e-06
1.48332e-06
1.48321e-06
1.48342e-06
1.48562e-06
1.48586e-06
1.48563e-06
1.48264e-06
1.47967e-06
1.47967e-06
1.47967e-06
1.47967e-06
1.48315e-06
1.48399e-06
1.48342e-06
1.47967e-06
1.47967e-06
1.47967e-06
1.47967e-06
1.47967e-06
1.47967e-06
1.48417e-06
1.48613e-06
1.48599e-06
1.48332e-06
1.47967e-06
1.47967e-06
1.47967e-06
1.47967e-06
1.47967e-06
1.47967e-06
1.4843e-06
1.48591e-06
1.48582e-06
1.48321e-06
1.47967e-06
1.47967e-06
1.47967e-06
1.47967e-06
1.47967e-06
1.47967e-06
1.48429e-06
1.48415e-06
1.48342e-06
1.47967e-06
1.47967e-06
1.47967e-06
1.47967e-06
1.47967e-06
1.47967e-06
1.48425e-06
1.48623e-06
1.48562e-06
1.48315e-06
1.47967e-06
1.47967e-06
1.47967e-06
1.47967e-06
1.48408e-06
1.48418e-06
1.48613e-06
1.48586e-06
1.48399e-06
1.48417e-06
1.4843e-06
1.48429e-06
1.48424e-06
1.48418e-06
1.4861e-06
1.48613e-06
1.48591e-06
1.48415e-06
1.48623e-06
1.48613e-06
1.4668e-06
1.46663e-06
1.46644e-06
1.46423e-06
1.46413e-06
1.46402e-06
1.46423e-06
1.46643e-06
1.46667e-06
1.46645e-06
1.46345e-06
1.46049e-06
1.46049e-06
1.46049e-06
1.46049e-06
1.46396e-06
1.4648e-06
1.46423e-06
1.46049e-06
1.46049e-06
1.46049e-06
1.46049e-06
1.46049e-06
1.46049e-06
1.46498e-06
1.46694e-06
1.4668e-06
1.46413e-06
1.46049e-06
1.46049e-06
1.46049e-06
1.46049e-06
1.46049e-06
1.46049e-06
1.46511e-06
1.46672e-06
1.46663e-06
1.46402e-06
1.46049e-06
1.46049e-06
1.46049e-06
1.46049e-06
1.46049e-06
1.46049e-06
1.4651e-06
1.46496e-06
1.46423e-06
1.46049e-06
1.46049e-06
1.46049e-06
1.46049e-06
1.46049e-06
1.46049e-06
1.46506e-06
1.46704e-06
1.46643e-06
1.46396e-06
1.46049e-06
1.46049e-06
1.46049e-06
1.46049e-06
1.46489e-06
1.46499e-06
1.46694e-06
1.46667e-06
1.46481e-06
1.46498e-06
1.46511e-06
1.4651e-06
1.46506e-06
1.46499e-06
1.46691e-06
1.46694e-06
1.46672e-06
1.46496e-06
1.46704e-06
1.46694e-06
1.44761e-06
1.44744e-06
1.44726e-06
1.44504e-06
1.44495e-06
1.44483e-06
1.44505e-06
1.44724e-06
1.44749e-06
1.44726e-06
1.44426e-06
1.4413e-06
1.4413e-06
1.4413e-06
1.4413e-06
1.44477e-06
1.44562e-06
1.44504e-06
1.4413e-06
1.4413e-06
1.4413e-06
1.4413e-06
1.4413e-06
1.4413e-06
1.44579e-06
1.44776e-06
1.44761e-06
1.44495e-06
1.4413e-06
1.4413e-06
1.4413e-06
1.4413e-06
1.4413e-06
1.4413e-06
1.44592e-06
1.44753e-06
1.44744e-06
1.44483e-06
1.4413e-06
1.4413e-06
1.4413e-06
1.4413e-06
1.4413e-06
1.4413e-06
1.44591e-06
1.44578e-06
1.44504e-06
1.4413e-06
1.4413e-06
1.4413e-06
1.4413e-06
1.4413e-06
1.4413e-06
1.44587e-06
1.44786e-06
1.44724e-06
1.44477e-06
1.4413e-06
1.4413e-06
1.4413e-06
1.4413e-06
1.4457e-06
1.4458e-06
1.44775e-06
1.44749e-06
1.44562e-06
1.44579e-06
1.44592e-06
1.44591e-06
1.44587e-06
1.4458e-06
1.44773e-06
1.44776e-06
1.44753e-06
1.44578e-06
1.44786e-06
1.44776e-06
1.42843e-06
1.42826e-06
1.42807e-06
1.42586e-06
1.42576e-06
1.42564e-06
1.42586e-06
1.42805e-06
1.4283e-06
1.42807e-06
1.42508e-06
1.42211e-06
1.42211e-06
1.42211e-06
1.42211e-06
1.42558e-06
1.42643e-06
1.42585e-06
1.42211e-06
1.42211e-06
1.42211e-06
1.42211e-06
1.42211e-06
1.42211e-06
1.42661e-06
1.42857e-06
1.42843e-06
1.42576e-06
1.42211e-06
1.42211e-06
1.42211e-06
1.42211e-06
1.42211e-06
1.42211e-06
1.42674e-06
1.42835e-06
1.42826e-06
1.42565e-06
1.42211e-06
1.42211e-06
1.42211e-06
1.42211e-06
1.42211e-06
1.42211e-06
1.42673e-06
1.42659e-06
1.42586e-06
1.42211e-06
1.42211e-06
1.42211e-06
1.42211e-06
1.42211e-06
1.42211e-06
1.42669e-06
1.42867e-06
1.42806e-06
1.42558e-06
1.42211e-06
1.42211e-06
1.42211e-06
1.42211e-06
1.42652e-06
1.42662e-06
1.42857e-06
1.4283e-06
1.42643e-06
1.42661e-06
1.42673e-06
1.42673e-06
1.42668e-06
1.42662e-06
1.42854e-06
1.42857e-06
1.42835e-06
1.42659e-06
1.42867e-06
1.42857e-06
1.40924e-06
1.40907e-06
1.40888e-06
1.40667e-06
1.40657e-06
1.40646e-06
1.40667e-06
1.40887e-06
1.40911e-06
1.40888e-06
1.40589e-06
1.40293e-06
1.40293e-06
1.40293e-06
1.40293e-06
1.4064e-06
1.40724e-06
1.40667e-06
1.40293e-06
1.40293e-06
1.40293e-06
1.40293e-06
1.40293e-06
1.40293e-06
1.40742e-06
1.40938e-06
1.40924e-06
1.40657e-06
1.40293e-06
1.40293e-06
1.40293e-06
1.40293e-06
1.40293e-06
1.40293e-06
1.40755e-06
1.40916e-06
1.40907e-06
1.40646e-06
1.40293e-06
1.40293e-06
1.40293e-06
1.40293e-06
1.40293e-06
1.40293e-06
1.40754e-06
1.4074e-06
1.40667e-06
1.40293e-06
1.40293e-06
1.40293e-06
1.40293e-06
1.40293e-06
1.40293e-06
1.4075e-06
1.40948e-06
1.40887e-06
1.4064e-06
1.40293e-06
1.40292e-06
1.40292e-06
1.40293e-06
1.40733e-06
1.40743e-06
1.40938e-06
1.40911e-06
1.40724e-06
1.40742e-06
1.40755e-06
1.40754e-06
1.4075e-06
1.40743e-06
1.40935e-06
1.40938e-06
1.40916e-06
1.4074e-06
1.40948e-06
1.40938e-06
1.39005e-06
1.38988e-06
1.3897e-06
1.38748e-06
1.38739e-06
1.38727e-06
1.38748e-06
1.38968e-06
1.38992e-06
1.3897e-06
1.3867e-06
1.38374e-06
1.38374e-06
1.38374e-06
1.38374e-06
1.38721e-06
1.38806e-06
1.38748e-06
1.38374e-06
1.38374e-06
1.38374e-06
1.38374e-06
1.38374e-06
1.38374e-06
1.38823e-06
1.3902e-06
1.39005e-06
1.38739e-06
1.38374e-06
1.38374e-06
1.38374e-06
1.38374e-06
1.38374e-06
1.38374e-06
1.38836e-06
1.38997e-06
1.38988e-06
1.38727e-06
1.38374e-06
1.38374e-06
1.38374e-06
1.38374e-06
1.38374e-06
1.38374e-06
1.38835e-06
1.38822e-06
1.38748e-06
1.38374e-06
1.38374e-06
1.38374e-06
1.38374e-06
1.38374e-06
1.38374e-06
1.38831e-06
1.3903e-06
1.38968e-06
1.38721e-06
1.38374e-06
1.38374e-06
1.38374e-06
1.38374e-06
1.38814e-06
1.38824e-06
1.39019e-06
1.38993e-06
1.38806e-06
1.38823e-06
1.38836e-06
1.38835e-06
1.38831e-06
1.38824e-06
1.39016e-06
1.39019e-06
1.38997e-06
1.38822e-06
1.39029e-06
1.39019e-06
1.37086e-06
1.3707e-06
1.37051e-06
1.3683e-06
1.3682e-06
1.36808e-06
1.3683e-06
1.37049e-06
1.37074e-06
1.37051e-06
1.36751e-06
1.36455e-06
1.36455e-06
1.36455e-06
1.36455e-06
1.36802e-06
1.36887e-06
1.36829e-06
1.36455e-06
1.36455e-06
1.36455e-06
1.36455e-06
1.36455e-06
1.36455e-06
1.36904e-06
1.37101e-06
1.37087e-06
1.3682e-06
1.36455e-06
1.36455e-06
1.36455e-06
1.36455e-06
1.36455e-06
1.36455e-06
1.36917e-06
1.37078e-06
1.37069e-06
1.36808e-06
1.36455e-06
1.36455e-06
1.36455e-06
1.36455e-06
1.36455e-06
1.36455e-06
1.36917e-06
1.36903e-06
1.3683e-06
1.36455e-06
1.36455e-06
1.36455e-06
1.36455e-06
1.36455e-06
1.36455e-06
1.36913e-06
1.37111e-06
1.37049e-06
1.36802e-06
1.36455e-06
1.36455e-06
1.36455e-06
1.36455e-06
1.36896e-06
1.36906e-06
1.37101e-06
1.37074e-06
1.36887e-06
1.36904e-06
1.36917e-06
1.36917e-06
1.36912e-06
1.36906e-06
1.37098e-06
1.37101e-06
1.37078e-06
1.36903e-06
1.37111e-06
1.37101e-06
1.35168e-06
1.35151e-06
1.35132e-06
1.34911e-06
1.34901e-06
1.3489e-06
1.34911e-06
1.35131e-06
1.35155e-06
1.35132e-06
1.34833e-06
1.34536e-06
1.34536e-06
1.34536e-06
1.34536e-06
1.34884e-06
1.34968e-06
1.34911e-06
1.34536e-06
1.34536e-06
1.34536e-06
1.34536e-06
1.34536e-06
1.34536e-06
1.34986e-06
1.35182e-06
1.35168e-06
1.34901e-06
1.34536e-06
1.34536e-06
1.34536e-06
1.34536e-06
1.34536e-06
1.34536e-06
1.34999e-06
1.3516e-06
1.35151e-06
1.3489e-06
1.34536e-06
1.34536e-06
1.34536e-06
1.34536e-06
1.34536e-06
1.34536e-06
1.34998e-06
1.34984e-06
1.34911e-06
1.34536e-06
1.34536e-06
1.34536e-06
1.34536e-06
1.34536e-06
1.34536e-06
1.34994e-06
1.35192e-06
1.35131e-06
1.34884e-06
1.34536e-06
1.34536e-06
1.34536e-06
1.34536e-06
1.34977e-06
1.34987e-06
1.35182e-06
1.35155e-06
1.34968e-06
1.34986e-06
1.34999e-06
1.34998e-06
1.34993e-06
1.34987e-06
1.35179e-06
1.35182e-06
1.3516e-06
1.34984e-06
1.35192e-06
1.35182e-06
1.33249e-06
1.33232e-06
1.33213e-06
1.32992e-06
1.32982e-06
1.32971e-06
1.32992e-06
1.33212e-06
1.33236e-06
1.33213e-06
1.32914e-06
1.32618e-06
1.32618e-06
1.32618e-06
1.32618e-06
1.32965e-06
1.33049e-06
1.32992e-06
1.32618e-06
1.32618e-06
1.32618e-06
1.32618e-06
1.32618e-06
1.32618e-06
1.33067e-06
1.33263e-06
1.33249e-06
1.32982e-06
1.32618e-06
1.32618e-06
1.32618e-06
1.32618e-06
1.32618e-06
1.32618e-06
1.3308e-06
1.33241e-06
1.33232e-06
1.32971e-06
1.32618e-06
1.32618e-06
1.32618e-06
1.32618e-06
1.32618e-06
1.32618e-06
1.33079e-06
1.33065e-06
1.32992e-06
1.32618e-06
1.32618e-06
1.32618e-06
1.32618e-06
1.32618e-06
1.32618e-06
1.33075e-06
1.33273e-06
1.33212e-06
1.32965e-06
1.32618e-06
1.32618e-06
1.32618e-06
1.32618e-06
1.33058e-06
1.33068e-06
1.33263e-06
1.33236e-06
1.3305e-06
1.33067e-06
1.3308e-06
1.33079e-06
1.33075e-06
1.33068e-06
1.3326e-06
1.33263e-06
1.33241e-06
1.33065e-06
1.33273e-06
1.33263e-06
1.3133e-06
1.31313e-06
1.31295e-06
1.31073e-06
1.31064e-06
1.31052e-06
1.31073e-06
1.31293e-06
1.31318e-06
1.31295e-06
1.30995e-06
1.30699e-06
1.30699e-06
1.30699e-06
1.30699e-06
1.31046e-06
1.31131e-06
1.31073e-06
1.30699e-06
1.30699e-06
1.30699e-06
1.30699e-06
1.30699e-06
1.30699e-06
1.31148e-06
1.31345e-06
1.3133e-06
1.31064e-06
1.30699e-06
1.30699e-06
1.30699e-06
1.30699e-06
1.30699e-06
1.30699e-06
1.31161e-06
1.31322e-06
1.31313e-06
1.31052e-06
1.30699e-06
1.30699e-06
1.30699e-06
1.30699e-06
1.30699e-06
1.30699e-06
1.3116e-06
1.31147e-06
1.31073e-06
1.30699e-06
1.30699e-06
1.30699e-06
1.30699e-06
1.30699e-06
1.30699e-06
1.31156e-06
1.31355e-06
1.31293e-06
1.31046e-06
1.30699e-06
1.30699e-06
1.30699e-06
1.30699e-06
1.31139e-06
1.31149e-06
1.31344e-06
1.31318e-06
1.31131e-06
1.31148e-06
1.31161e-06
1.3116e-06
1.31156e-06
1.31149e-06
1.31342e-06
1.31345e-06
1.31322e-06
1.31147e-06
1.31355e-06
1.31345e-06
1.29411e-06
1.29395e-06
1.29376e-06
1.29155e-06
1.29145e-06
1.29133e-06
1.29155e-06
1.29374e-06
1.29399e-06
1.29376e-06
1.29076e-06
1.2878e-06
1.2878e-06
1.2878e-06
1.2878e-06
1.29127e-06
1.29212e-06
1.29154e-06
1.2878e-06
1.2878e-06
1.2878e-06
1.2878e-06
1.2878e-06
1.2878e-06
1.2923e-06
1.29426e-06
1.29412e-06
1.29145e-06
1.2878e-06
1.2878e-06
1.2878e-06
1.2878e-06
1.2878e-06
1.2878e-06
1.29243e-06
1.29403e-06
1.29395e-06
1.29133e-06
1.2878e-06
1.2878e-06
1.2878e-06
1.2878e-06
1.2878e-06
1.2878e-06
1.29242e-06
1.29228e-06
1.29155e-06
1.2878e-06
1.2878e-06
1.2878e-06
1.2878e-06
1.2878e-06
1.2878e-06
1.29238e-06
1.29436e-06
1.29374e-06
1.29127e-06
1.2878e-06
1.2878e-06
1.2878e-06
1.2878e-06
1.29221e-06
1.29231e-06
1.29426e-06
1.29399e-06
1.29212e-06
1.29229e-06
1.29242e-06
1.29242e-06
1.29237e-06
1.29231e-06
1.29423e-06
1.29426e-06
1.29403e-06
1.29228e-06
1.29436e-06
1.29426e-06
1.27493e-06
1.27476e-06
1.27457e-06
1.27236e-06
1.27226e-06
1.27215e-06
1.27236e-06
1.27456e-06
1.2748e-06
1.27457e-06
1.27158e-06
1.26861e-06
1.26861e-06
1.26861e-06
1.26861e-06
1.27208e-06
1.27293e-06
1.27236e-06
1.26861e-06
1.26861e-06
1.26861e-06
1.26861e-06
1.26861e-06
1.26861e-06
1.27311e-06
1.27507e-06
1.27493e-06
1.27226e-06
1.26861e-06
1.26861e-06
1.26861e-06
1.26861e-06
1.26861e-06
1.26861e-06
1.27324e-06
1.27485e-06
1.27476e-06
1.27215e-06
1.26861e-06
1.26861e-06
1.26861e-06
1.26861e-06
1.26861e-06
1.26861e-06
1.27323e-06
1.27309e-06
1.27236e-06
1.26861e-06
1.26861e-06
1.26861e-06
1.26861e-06
1.26861e-06
1.26861e-06
1.27319e-06
1.27517e-06
1.27456e-06
1.27209e-06
1.26861e-06
1.26861e-06
1.26861e-06
1.26861e-06
1.27302e-06
1.27312e-06
1.27507e-06
1.2748e-06
1.27293e-06
1.27311e-06
1.27324e-06
1.27323e-06
1.27318e-06
1.27312e-06
1.27504e-06
1.27507e-06
1.27485e-06
1.27309e-06
1.27517e-06
1.27507e-06
1.25574e-06
1.25557e-06
1.25538e-06
1.25317e-06
1.25307e-06
1.25296e-06
1.25317e-06
1.25537e-06
1.25561e-06
1.25538e-06
1.25239e-06
1.24942e-06
1.24942e-06
1.24942e-06
1.24942e-06
1.2529e-06
1.25374e-06
1.25317e-06
1.24942e-06
1.24942e-06
1.24942e-06
1.24942e-06
1.24942e-06
1.24942e-06
1.25392e-06
1.25588e-06
1.25574e-06
1.25307e-06
1.24942e-06
1.24942e-06
1.24942e-06
1.24942e-06
1.24942e-06
1.24942e-06
1.25405e-06
1.25566e-06
1.25557e-06
1.25296e-06
1.24942e-06
1.24942e-06
1.24942e-06
1.24942e-06
1.24942e-06
1.24942e-06
1.25404e-06
1.2539e-06
1.25317e-06
1.24942e-06
1.24942e-06
1.24942e-06
1.24942e-06
1.24942e-06
1.24942e-06
1.254e-06
1.25598e-06
1.25537e-06
1.2529e-06
1.24942e-06
1.24942e-06
1.24942e-06
1.24942e-06
1.25383e-06
1.25393e-06
1.25588e-06
1.25561e-06