/*--------------------------------*- C++ -*----------------------------------*\
| =========                 |                                                 |
| \\      /  F ield         | OpenFOAM: The Open Source CFD Toolbox           |
|  \\    /   O peration     | Version:  v2006                                 |
|   \\  /    A nd           | Website:  www.openfoam.com                      |
|    \\/     M anipulation  |                                                 |
\*---------------------------------------------------------------------------*/
FoamFile
{
    version     2.0;
    format      ascii;
    class       surfaceScalarField;
    location    "1000";
    object      phi;
}
// * * * * * * * * * * * * * * * * * * * * * * * * * * * * * * * * * * * * * //

dimensions      [0 3 -1 0 0 0 0];
oriented        oriented;


internalField   nonuniform List<scalar> 
41137
(
-1.50383e-06
3.82361e-07
0.00113933
8.1314e-07
1.14257e-06
-4.82087e-07
1.38172e-07
7.30529e-07
-5.18701e-07
5.9257e-08
-1.22081e-06
-0.00113887
1.53018e-06
1.49786e-06
0.000274422
-4.78043e-07
-4.85466e-07
-0.000276486
-8.0094e-07
-8.04248e-07
-0.00115249
4.34141e-07
4.28659e-07
0.00115323
-0.00114059
-1.50158e-06
4.20608e-07
0.00114097
-4.77605e-07
1.13453e-06
1.32718e-07
8.05604e-07
7.39975e-07
-5.04778e-07
-1.20608e-06
6.91811e-08
-1.49265e-06
4.02383e-07
-5.0527e-07
0.00114087
-0.00114048
-4.72605e-07
1.13343e-06
1.36197e-07
8.084e-07
-1.20258e-06
7.37323e-07
6.82706e-08
-0.000276501
1.52991e-06
1.48185e-06
-4.71973e-07
-4.61703e-07
0.000274423
-7.79124e-07
-7.79631e-07
-0.00115544
4.17314e-07
4.18459e-07
0.00115616
-0.00114207
-1.48325e-06
7.76548e-07
3.90362e-07
0.00114241
-4.5425e-07
1.14249e-06
1.38915e-07
7.4646e-07
-4.89008e-07
-1.18836e-06
7.58406e-08
-0.00114198
-1.48027e-06
7.76001e-07
3.89946e-07
0.00114232
-4.58463e-07
1.13963e-06
1.39946e-07
7.40536e-07
-4.8633e-07
-1.18311e-06
7.30076e-08
-0.000276453
1.51176e-06
1.46932e-06
-4.45586e-07
-4.557e-07
0.000274374
-7.52896e-07
-7.52775e-07
-0.00115829
4.05791e-07
4.06035e-07
0.00115899
-0.00114337
-1.47273e-06
7.56301e-07
3.83795e-07
0.00114367
-4.43391e-07
1.14673e-06
1.4224e-07
7.52537e-07
-4.74238e-07
-1.171e-06
8.13977e-08
-0.00114329
-1.46883e-06
7.55009e-07
3.83106e-07
0.00114358
-4.44022e-07
1.14513e-06
1.46853e-07
7.46813e-07
-4.71513e-07
-1.16564e-06
7.90195e-08
-0.000276357
1.50081e-06
1.45725e-06
-4.30472e-07
-4.41484e-07
0.000274271
-7.37727e-07
-7.31498e-07
-0.00116104
3.96782e-07
4.00957e-07
0.00116171
-0.00114449
-1.45927e-06
7.35121e-07
3.73129e-07
0.00114474
-4.28787e-07
1.15207e-06
1.47683e-07
7.5784e-07
-4.58249e-07
-1.15398e-06
8.88787e-08
-0.00114439
-1.45814e-06
7.36153e-07
3.75108e-07
0.00114464
-4.32452e-07
1.14858e-06
1.50725e-07
7.53323e-07
-4.55586e-07
-1.14754e-06
8.60919e-08
-0.000276216
1.4908e-06
1.44631e-06
-4.16836e-07
-4.28998e-07
0.000274125
-7.1127e-07
-7.17493e-07
-0.00116368
3.9292e-07
3.9249e-07
0.00116432
-0.00114538
-1.45223e-06
7.22588e-07
3.81131e-07
0.00114557
-4.22263e-07
1.15224e-06
1.48891e-07
7.65099e-07
-4.43178e-07
-1.13384e-06
9.44706e-08
-0.00114528
-1.44565e-06
7.19614e-07
3.68814e-07
0.00114548
-4.20681e-07
1.15354e-06
1.56266e-07
7.58001e-07
-4.4213e-07
-1.13074e-06
9.05791e-08
-0.00027601
1.47838e-06
1.43553e-06
-4.04336e-07
-4.14895e-07
0.000273915
-6.98115e-07
-6.92369e-07
-0.00116622
3.78549e-07
3.87487e-07
0.00116685
-0.00114607
-1.4348e-06
6.99966e-07
3.5311e-07
0.00114623
-4.07157e-07
1.15991e-06
1.54388e-07
7.67076e-07
-4.31782e-07
-1.12079e-06
9.81113e-08
-0.001146
-1.43379e-06
6.90669e-07
3.54657e-07
0.00114616
-4.11414e-07
1.15612e-06
1.56911e-07
7.65159e-07
-4.25731e-07
-1.11204e-06
9.88789e-08
-0.000275787
1.46495e-06
1.42337e-06
-3.9274e-07
-4.01851e-07
0.000273694
1.53567e-06
0.000274446
-4.78486e-07
-4.82757e-07
-0.000276524
-1.13709e-06
0.000276553
-1.17259e-06
-0.000274465
1.08345e-07
1.13604e-07
4.26615e-07
0.00113844
8.35061e-07
1.17139e-06
-4.866e-07
1.35142e-07
7.26665e-07
-5.18684e-07
5.6133e-08
-1.21913e-06
-0.00113804
-0.00114019
4.14399e-07
-1.50206e-06
1.35285e-07
-4.78715e-07
-1.21118e-06
6.7544e-08
7.38115e-07
-5.09199e-07
8.08925e-07
1.16663e-06
0.00113967
-0.00113927
4.11795e-07
-1.53181e-06
1.36107e-07
-4.80426e-07
-1.20741e-06
6.67251e-08
-5.09096e-07
7.35521e-07
8.08426e-07
-1.12085e-06
-0.000274432
1.14391e-07
1.03971e-07
1.53502e-06
1.49132e-06
-0.000276544
-4.62562e-07
-4.68932e-07
0.000274449
-1.18443e-06
-1.14102e-06
0.000276504
-0.000274417
1.15007e-07
1.22949e-07
-5.0481e-07
4.0265e-07
0.00114037
-0.00113997
-4.77784e-07
1.17658e-06
1.40399e-07
-1.20578e-06
7.40727e-07
6.90942e-08
-1.53401e-06
-5.02323e-07
4.07112e-07
0.00114051
-0.00114014
-4.80588e-07
1.17256e-06
1.38058e-07
8.32329e-07
-1.2092e-06
7.39811e-07
6.60492e-08
0.00114147
7.82632e-07
-0.00114112
3.87749e-07
-1.52461e-06
1.49772e-07
-4.63835e-07
-1.19721e-06
7.26638e-08
-4.9406e-07
7.45605e-07
1.1767e-06
0.00114159
7.87409e-07
-0.00114124
3.96364e-07
-1.52151e-06
1.47321e-07
-4.65696e-07
-1.19633e-06
7.18825e-08
-4.94289e-07
7.45587e-07
-4.68041e-07
-4.728e-07
0.000274458
-1.141e-06
0.00027649
-0.000274416
1.1899e-07
1.24662e-07
-5.02827e-07
4.00796e-07
0.00114137
-0.00114098
-4.68802e-07
1.13406e-06
1.32769e-07
-1.20403e-06
7.36535e-07
6.52923e-08
-1.5299e-06
4.0802e-07
-1.20636e-06
0.00114039
-0.00114001
-4.74726e-07
1.17195e-06
1.39465e-07
8.02839e-07
-5.05674e-07
7.39939e-07
6.82884e-08
0.00114248
7.84395e-07
-0.00114213
3.87559e-07
-1.48144e-06
1.41201e-07
-4.55505e-07
-1.19145e-06
7.0309e-08
-4.90985e-07
7.40555e-07
1.17892e-06
0.00114149
7.85727e-07
-0.00114113
3.88429e-07
-1.51853e-06
1.45377e-07
-4.60672e-07
-1.1956e-06
7.1764e-08
-4.95048e-07
7.41375e-07
4.1347e-07
0.00114006
-4.76062e-07
1.17084e-06
1.36702e-07
8.04698e-07
7.3595e-07
-5.05677e-07
6.77925e-08
-1.20371e-06
7.86068e-07
-0.00114172
3.96172e-07
-1.48645e-06
1.38725e-07
-4.57305e-07
-1.19354e-06
7.27187e-08
7.43719e-07
-4.94035e-07
1.17303e-06
0.00114116
7.83505e-07
-0.00114081
3.89104e-07
-1.51297e-06
1.46337e-07
-4.59765e-07
-1.19045e-06
7.25101e-08
-4.93805e-07
7.40636e-07
-0.000276523
-4.68737e-07
-4.64345e-07
0.000274433
-1.13953e-06
0.000276477
-0.000274398
1.16669e-07
1.22821e-07
4.03325e-07
-5.04479e-07
0.00114107
-0.00114067
-4.68238e-07
1.1211e-06
1.27419e-07
8.08702e-07
-1.20262e-06
7.3736e-07
6.64598e-08
7.80673e-07
-0.00114161
3.91059e-07
-1.48177e-06
1.41672e-07
-4.58619e-07
-1.19074e-06
7.04287e-08
7.38249e-07
-4.937e-07
1.12921e-06
0.00114216
7.79871e-07
-0.00114181
3.89919e-07
-1.47041e-06
1.37888e-07
-4.5161e-07
-1.18986e-06
7.36622e-08
-4.93308e-07
7.41389e-07
-0.000274392
1.14925e-07
1.26083e-07
1.52213e-06
1.4793e-06
-4.44742e-07
-4.52727e-07
0.0002744
-1.18484e-06
-1.14386e-06
0.000276411
-0.000274333
1.21333e-07
1.29551e-07
3.89518e-07
0.00114182
-4.60722e-07
1.18455e-06
1.48597e-07
7.47379e-07
-4.90176e-07
-1.19304e-06
7.43515e-08
-1.51765e-06
7.80011e-07
3.90886e-07
0.00114194
-4.62188e-07
1.17866e-06
1.47862e-07
7.47251e-07
-4.904e-07
-1.19275e-06
7.43237e-08
0.00114278
7.60072e-07
-0.00114248
3.83545e-07
-1.51358e-06
1.52218e-07
-4.55012e-07
-1.17688e-06
8.001e-08
-4.77182e-07
7.54229e-07
1.1808e-06
0.00114289
7.61605e-07
-0.00114259
3.88827e-07
-1.51082e-06
1.4972e-07
-4.54454e-07
-1.17718e-06
7.91712e-08
-4.77816e-07
7.53004e-07
-4.51431e-07
-4.55277e-07
0.000274396
-1.14618e-06
0.000276394
-0.000274324
1.26582e-07
1.31023e-07
3.89442e-07
0.00114282
-4.52776e-07
1.14088e-06
1.3983e-07
7.42239e-07
-4.87134e-07
-1.18662e-06
7.17278e-08
-1.51719e-06
7.78799e-07
3.88961e-07
0.00114184
-4.60614e-07
1.17835e-06
1.4304e-07
7.45254e-07
-4.89866e-07
-1.19036e-06
7.52856e-08
0.00114379
7.58301e-07
-0.00114348
3.82786e-07
-1.47367e-06
1.4352e-07
-4.46955e-07
-1.17028e-06
7.79201e-08
-4.73724e-07
7.49916e-07
1.18141e-06
0.0011428
7.60454e-07
-0.00114249
3.87831e-07
-1.51076e-06
1.48671e-07
-4.50803e-07
-1.17458e-06
7.90734e-08
-4.77919e-07
7.49569e-07
7.79331e-07
3.92193e-07
0.0011415
-4.60206e-07
1.1718e-06
1.42188e-07
7.41779e-07
-4.89905e-07
7.46522e-08
-1.18689e-06
7.64948e-07
-0.00114306
3.86976e-07
-1.47498e-06
1.41908e-07
-4.45494e-07
-1.17638e-06
7.85606e-08
7.49073e-07
-4.78804e-07
1.17608e-06
0.00114246
7.61972e-07
-0.00114216
3.86654e-07
-1.50509e-06
1.49471e-07
-4.50522e-07
-1.17083e-06
7.91399e-08
-4.77544e-07
7.48256e-07
-4.49289e-07
-4.53211e-07
0.000274382
-1.14444e-06
0.000276385
-0.000274314
1.25133e-07
1.29058e-07
7.78063e-07
3.92303e-07
0.00114251
-4.52168e-07
1.12788e-06
1.33491e-07
7.42948e-07
-4.89004e-07
7.5739e-08
-1.18565e-06
7.64095e-07
-0.00114298
3.83511e-07
-1.47177e-06
1.46782e-07
-4.47114e-07
-1.17066e-06
7.56264e-08
7.43435e-07
-4.76146e-07
1.13379e-06
0.00114347
7.62545e-07
-0.00114317
3.83556e-07
-1.461e-06
1.42221e-07
-4.41272e-07
-1.17247e-06
7.90294e-08
-4.78449e-07
7.47231e-07
-0.000274303
1.22817e-07
1.32555e-07
1.50828e-06
1.46826e-06
-4.306e-07
-4.38527e-07
0.000274303
-1.18688e-06
-1.14585e-06
0.000276266
-0.000274195
1.26774e-07
1.3515e-07
3.78931e-07
0.00114307
-4.47056e-07
1.18809e-06
1.56653e-07
7.5481e-07
-4.73906e-07
-1.17286e-06
8.0926e-08
-1.50807e-06
7.57355e-07
3.85408e-07
0.00114319
-4.5192e-07
1.18218e-06
1.5076e-07
7.53689e-07
-4.74612e-07
-1.17403e-06
8.04557e-08
0.00114389
7.40766e-07
-0.00114363
3.80974e-07
-1.50336e-06
1.5272e-07
-4.44845e-07
-1.15959e-06
8.72228e-08
-4.6132e-07
7.60224e-07
1.1886e-06
0.00114401
7.35225e-07
-0.00114375
3.6962e-07
-1.4957e-06
1.57791e-07
-4.37899e-07
-1.15954e-06
8.68033e-08
-4.62084e-07
7.59245e-07
-4.38411e-07
-4.43397e-07
0.000274295
-1.15342e-06
0.000276258
-0.000274193
1.36353e-07
1.41225e-07
3.77004e-07
0.00114408
-4.38969e-07
1.14746e-06
1.48241e-07
7.49923e-07
-4.70965e-07
-1.16625e-06
7.83522e-08
-1.50718e-06
7.56357e-07
3.84254e-07
0.0011431
-4.47088e-07
1.18316e-06
1.49606e-07
7.50459e-07
-4.74371e-07
-1.17206e-06
8.10259e-08
0.0011449
7.40745e-07
-0.00114464
3.78873e-07
-1.46338e-06
1.43698e-07
-4.37093e-07
-1.15364e-06
8.49373e-08
-4.58273e-07
7.55407e-07
1.18504e-06
0.0011439
7.42783e-07
-0.00114365
3.81222e-07
-1.49921e-06
1.51111e-07
-4.39619e-07
-1.15702e-06
8.65463e-08
-4.61919e-07
7.56259e-07
7.56484e-07
3.83847e-07
0.00114276
-4.46185e-07
1.17781e-06
1.50017e-07
7.47711e-07
-4.74667e-07
8.01522e-08
-1.16826e-06
7.35234e-07
-0.00114423
3.68644e-07
-1.46077e-06
1.49886e-07
-4.29446e-07
-1.15781e-06
8.63647e-08
7.55337e-07
-4.62393e-07
1.18094e-06
0.00114357
7.35289e-07
-0.00114332
3.76303e-07
-1.49195e-06
1.53042e-07
-4.37325e-07
-1.15353e-06
8.7661e-08
-4.61202e-07
7.55148e-07
-4.34252e-07
-4.39693e-07
0.000274283
-1.1476e-06
0.000276239
-0.000274174
1.31599e-07
1.3611e-07
7.54065e-07
3.80935e-07
0.00114377
-4.3723e-07
1.13455e-06
1.42001e-07
7.50257e-07
-4.7387e-07
8.18802e-08
-1.16708e-06
7.41482e-07
-0.00114413
3.76346e-07
-1.46137e-06
1.49674e-07
-4.36247e-07
-1.15192e-06
8.32721e-08
7.50133e-07
-4.59601e-07
1.13895e-06
0.00114458
7.40416e-07
-0.00114432
3.70713e-07
-1.44815e-06
1.46109e-07
-4.28233e-07
-1.1559e-06
8.65309e-08
-4.62419e-07
7.51835e-07
-0.000274167
1.30598e-07
1.39959e-07
1.49932e-06
1.45988e-06
-4.19296e-07
-4.26742e-07
0.000274153
-1.18976e-06
-1.1489e-06
0.000276062
-0.000274
1.34326e-07
1.42297e-07
3.76638e-07
0.00114413
-4.38913e-07
1.1895e-06
1.56675e-07
7.61244e-07
-4.58156e-07
-1.15489e-06
8.78174e-08
-1.49482e-06
7.35959e-07
3.75683e-07
0.00114425
-4.37922e-07
1.18684e-06
1.55167e-07
7.60293e-07
-4.58085e-07
-1.15606e-06
8.86532e-08
0.00114477
7.22814e-07
-0.00114457
3.80393e-07
-1.49182e-06
1.55477e-07
-4.33163e-07
-1.14046e-06
9.34495e-08
-4.4651e-07
7.67962e-07
1.18346e-06
0.0011449
7.21764e-07
-0.0011447
3.89364e-07
-1.49232e-06
1.51662e-07
-4.36288e-07
-1.138e-06
9.50952e-08
-4.44963e-07
7.69927e-07
-4.22387e-07
-4.2762e-07
0.000274154
-1.14916e-06
0.000276052
-0.000274001
1.38589e-07
1.42483e-07
3.77364e-07
0.00114515
-4.3151e-07
1.14804e-06
1.4752e-07
7.57747e-07
-4.54359e-07
-1.14775e-06
8.65245e-08
-1.4972e-06
7.36397e-07
3.81833e-07
0.00114414
-4.37024e-07
1.18529e-06
1.51567e-07
7.58388e-07
-4.57908e-07
-1.15276e-06
8.86215e-08
0.00114579
7.23189e-07
-0.00114559
3.82087e-07
-1.4525e-06
1.47327e-07
-4.25177e-07
-1.13443e-06
9.03662e-08
-4.43795e-07
7.61814e-07
1.18563e-06
0.0011448
7.16367e-07
-0.00114459
3.82551e-07
-1.49068e-06
1.5209e-07
-4.3133e-07
-1.13489e-06
9.41488e-08
-4.45327e-07
7.6659e-07
7.36114e-07
3.80301e-07
0.00114381
-4.36666e-07
1.17932e-06
1.50473e-07
7.57165e-07
-4.57176e-07
8.93706e-08
-1.14841e-06
7.29593e-07
-0.00114518
3.86228e-07
-1.45668e-06
1.44079e-07
-4.27542e-07
-1.13732e-06
9.30966e-08
7.64073e-07
-4.46464e-07
1.18148e-06
0.00114447
7.22301e-07
-0.00114426
3.78882e-07
-1.48386e-06
1.53712e-07
-4.29674e-07
-1.13617e-06
9.21198e-08
-4.47554e-07
7.60287e-07
-4.20896e-07
-4.26657e-07
0.000274131
-1.15032e-06
0.000276035
-0.000273978
1.38436e-07
1.40838e-07
7.36861e-07
3.77005e-07
0.00114482
-4.26968e-07
1.13736e-06
1.43464e-07
7.55889e-07
-4.57697e-07
8.95937e-08
-1.15056e-06
7.30598e-07
-0.00114508
3.75821e-07
-1.45054e-06
1.5125e-07
-4.26991e-07
-1.13449e-06
8.83029e-08
7.55467e-07
-4.4565e-07
1.13787e-06
0.00114547
7.25375e-07
-0.00114526
3.77413e-07
-1.44144e-06
1.45081e-07
-4.22023e-07
-1.13541e-06
9.24835e-08
-4.47321e-07
7.59871e-07
-0.00027397
1.34398e-07
1.45499e-07
1.48771e-06
1.44671e-06
-4.04151e-07
-4.13146e-07
0.000273945
-1.19807e-06
-1.1571e-06
0.000275842
-0.000273782
1.42979e-07
1.51647e-07
3.72901e-07
0.00114496
-4.2808e-07
1.1922e-06
1.59071e-07
7.69958e-07
-4.428e-07
-1.13478e-06
9.49345e-08
-1.48893e-06
7.18066e-07
3.86803e-07
0.00114509
-4.32012e-07
1.18574e-06
1.55609e-07
7.69752e-07
-4.41795e-07
-1.13375e-06
9.53873e-08
0.0011455
6.98487e-07
-0.00114533
3.56025e-07
-1.47478e-06
1.64327e-07
-4.15619e-07
-1.12671e-06
9.85087e-08
-4.33319e-07
7.69612e-07
1.19508e-06
0.00114559
7.01248e-07
-0.00114543
3.61791e-07
-1.47125e-06
1.63009e-07
-4.15421e-07
-1.12785e-06
9.73171e-08
-4.35153e-07
7.69245e-07
-4.11535e-07
-4.1793e-07
0.00027394
-1.15907e-06
0.000275816
-0.000273764
1.48404e-07
1.54001e-07
3.71399e-07
0.00114598
-4.18817e-07
1.15317e-06
1.52154e-07
7.61058e-07
-4.41488e-07
-1.1316e-06
9.05463e-08
-1.48571e-06
7.15315e-07
3.72066e-07
0.00114499
-4.24874e-07
1.18998e-06
1.58014e-07
7.6432e-07
-4.43592e-07
-1.13308e-06
9.33652e-08
0.00114651
6.98274e-07
-0.00114635
3.57902e-07
-1.43458e-06
1.55531e-07
-4.07674e-07
-1.12048e-06
9.66875e-08
-4.3047e-07
7.65795e-07
1.19546e-06
0.00114552
6.98076e-07
-0.00114535
3.53252e-07
-1.47057e-06
1.59318e-07
-4.13385e-07
-1.12464e-06
9.94047e-08
-4.33691e-07
7.67779e-07
7.12763e-07
3.67802e-07
0.00114466
-4.23665e-07
1.18516e-06
1.58026e-07
7.63308e-07
-4.43405e-07
9.4839e-08
-1.13098e-06
7.04083e-07
-0.0011459
3.61854e-07
-1.43735e-06
1.54218e-07
-4.07799e-07
-1.12345e-06
9.69065e-08
7.66383e-07
-4.34762e-07
1.18974e-06
0.00114517
7.04864e-07
-0.001145
3.57766e-07
-1.46518e-06
1.60081e-07
-4.12454e-07
-1.12247e-06
9.64295e-08
-4.35118e-07
7.61833e-07
-4.06763e-07
-4.13729e-07
0.000273924
-1.15495e-06
0.000275818
-0.000273762
1.43946e-07
1.51214e-07
7.14305e-07
3.67645e-07
0.00114567
-4.15713e-07
1.14171e-06
1.49341e-07
7.62546e-07
-4.43162e-07
9.51344e-08
-1.13139e-06
6.90611e-07
-0.00114583
3.57942e-07
-1.43582e-06
1.55029e-07
-4.12893e-07
-1.1154e-06
9.76773e-08
7.63826e-07
-4.29078e-07
1.14433e-06
0.00114618
6.92882e-07
-0.00114602
3.62609e-07
-1.42429e-06
1.50772e-07
-4.05602e-07
-1.11957e-06
9.92832e-08
-4.32988e-07
7.64719e-07
-0.000273749
1.41638e-07
1.54478e-07
1.47296e-06
1.4337e-06
-3.91283e-07
-3.9798e-07
0.000273725
3.5915e-07
0.00114565
-4.15287e-07
1.19683e-06
1.61561e-07
7.71263e-07
-4.30646e-07
-1.12298e-06
9.94775e-08
-1.47045e-06
6.89552e-07
3.57341e-07
0.00114575
-4.16198e-07
1.19373e-06
1.61459e-07
7.73731e-07
-4.30125e-07
-1.12088e-06
1.00195e-07
1.20157e-06
6.55697e-07
-0.00114604
3.36608e-07
-1.45518e-06
1.71106e-07
-3.99253e-07
-1.1054e-06
1.05519e-07
-4.19368e-07
7.77027e-07
0.00114617
-3.96384e-07
-4.01718e-07
0.000273708
-1.17231e-06
-0.000273546
1.59696e-07
1.61794e-07
0.000275598
3.64256e-07
0.00114666
-4.07711e-07
1.15517e-06
1.5256e-07
7.69632e-07
-4.25945e-07
-1.1141e-06
9.918e-08
-1.47105e-06
6.836e-07
3.57983e-07
0.00114568
-4.14453e-07
1.19365e-06
1.58505e-07
7.73167e-07
-4.27724e-07
-1.11633e-06
1.02693e-07
7.01528e-07
3.6069e-07
0.00114533
-4.14266e-07
1.1877e-06
1.57166e-07
7.64342e-07
-4.31645e-07
9.88712e-08
-1.11897e-06
6.52536e-07
-0.00114651
3.72684e-07
-1.42165e-06
1.68454e-07
-3.92998e-07
-1.1e-06
1.07876e-07
7.75187e-07
-4.17371e-07
0.00114659
1.192e-06
6.54536e-07
-0.00114561
3.45647e-07
-1.45591e-06
1.62472e-07
-3.99923e-07
-1.0945e-06
1.04444e-07
-4.14162e-07
7.73867e-07
0.00114574
-3.9532e-07
-3.99275e-07
0.000273707
6.91688e-07
3.61246e-07
0.00114635
-4.06327e-07
1.14336e-06
1.48892e-07
7.66951e-07
-4.29361e-07
1.01017e-07
-1.116e-06
1.15882e-06
6.80092e-07
-0.00114662
3.35191e-07
-1.41438e-06
1.63568e-07
-3.93699e-07
-1.10277e-06
1.04001e-07
-4.20634e-07
7.71213e-07
0.00114674
-0.000273514
1.5838e-07
1.60015e-07
0.000275546
3.7751e-08
9.8668e-05
4.47098e-09
-9.87102e-05
1.30811e-08
9.86127e-05
-9.86193e-05
-6.53523e-09
-8.3927e-08
-1.75204e-09
0.000259331
-1.59169e-08
-7.49895e-09
-0.000259222
-3.6664e-08
-9.99453e-08
3.02682e-07
0.00025186
3.51978e-08
-0.000252061
0.00114159
-1.28347e-08
7.94836e-07
-1.17242e-06
5.92906e-07
-1.34144e-06
8.71737e-07
-0.00114094
3.90713e-07
-1.50288e-06
0.00113976
-1.21763e-06
6.34357e-08
-5.15237e-07
7.3388e-07
1.14193e-06
1.39945e-07
-4.7946e-07
8.14186e-07
-6.50287e-09
-2.69054e-08
0.000251695
1.78745e-08
-0.000251678
-1.41539e-09
-1.41157e-08
0.00114224
-1.33835e-06
5.95597e-07
-1.16952e-06
7.96712e-07
8.68614e-07
-1.93812e-07
-3.64708e-10
0.000259395
-1.42164e-08
4.92392e-07
-0.000259679
3.69126e-08
-4.0129e-08
1.38834e-07
0.000283275
-6.42376e-09
-0.000283404
-3.9109e-08
1.37931e-07
0.000283188
-4.66894e-09
3.54983e-08
-0.000283318
1.53597e-06
1.49008e-06
-0.000276501
-4.79529e-07
0.000274431
-4.76412e-07
2.7447e-09
-1.49022e-08
0.000283026
1.12665e-08
-0.000283084
5.80852e-08
-1.44937e-08
0.00028294
1.09668e-08
-0.000282999
5.83195e-08
4.74831e-09
4.2229e-10
6.87137e-08
0.000234409
-0.000234456
-1.77101e-08
-5.03072e-09
-1.56348e-09
-9.21919e-09
0.000195844
-0.000195928
9.46805e-08
-7.96392e-10
0.000234619
-5.65684e-08
-5.11353e-09
-0.000234737
1.8029e-07
8.16447e-09
2.30995e-08
0.000195705
-3.79587e-09
-0.000195733
-9.85197e-05
1.5563e-09
3.83368e-08
9.84798e-05
-8.75925e-09
1.30909e-08
9.84314e-05
-9.84357e-05
6.91015e-08
-6.00001e-11
0.000234399
-0.000234446
-4.65612e-09
-1.77285e-08
-1.79377e-09
-8.57398e-09
0.000195822
-0.000195906
9.40141e-08
7.17986e-10
0.00023461
-6.24276e-09
-5.63312e-08
-0.000234729
1.80465e-07
7.09342e-09
2.27093e-08
0.000195684
-2.72056e-09
-0.000195711
-1.54059e-07
-0.00116834
3.68998e-09
-5.85307e-07
-4.44689e-07
0.00116952
-8.57997e-07
-0.00115919
7.1223e-09
4.48863e-07
-4.40572e-07
0.00116003
-0.00116824
5.89752e-10
-4.88297e-07
-4.49976e-07
0.00116902
-0.00115471
4.19009e-07
4.20013e-07
0.00115527
-0.00115454
4.218e-07
4.23605e-07
0.00115506
-0.00115433
4.16952e-07
4.21232e-07
0.00115508
-0.00115435
4.16379e-07
4.1977e-07
-7.13651e-08
-1.62867e-09
0.000258643
-0.000258536
-1.3665e-08
-2.00555e-08
-0.00025134
-3.21079e-08
-9.36736e-08
2.84707e-07
3.20598e-08
0.000251149
0.0011442
-0.00114354
-2.00081e-08
8.59649e-07
8.02496e-07
-1.15807e-06
-1.32616e-06
6.01096e-07
4.08803e-07
1.13635e-06
0.00114135
8.01475e-07
-1.20168e-06
7.00664e-08
-5.01012e-07
7.41239e-07
-1.49651e-06
1.32706e-07
-4.71036e-07
-0.000258987
-1.78677e-07
1.0266e-09
0.000258708
-1.40658e-08
4.7093e-07
-1.10083e-09
-2.23978e-08
0.000251
1.25643e-08
-0.000250978
-1.04852e-08
-1.01763e-08
0.00114483
8.5667e-07
-1.32245e-06
6.03165e-07
-1.15477e-06
8.04095e-07
2.3904e-09
3.73367e-08
9.84722e-05
-9.85119e-05
-7.04598e-09
1.13075e-08
9.84242e-05
-9.84284e-05
-1.08176e-09
-6.95004e-08
0.000258636
-0.000258532
-1.95211e-08
-1.31041e-08
-1.32254e-06
0.00114409
4.23296e-09
-0.00114348
8.67984e-07
-1.15955e-06
8.00162e-07
6.02146e-07
-1.31807e-07
-0.000268097
9.98578e-08
-2.8673e-07
0.00026791
3.96094e-07
1.13682e-06
0.00114125
7.9565e-07
-1.19911e-06
6.97692e-08
-5.01556e-07
7.38079e-07
-1.48801e-06
1.40162e-07
-4.66542e-07
-0.000274041
-8.33485e-08
-4.64245e-07
3.8188e-08
0.000273228
-3.87787e-09
0.0011447
8.53711e-07
-1.31972e-06
6.03183e-07
-1.1543e-06
8.01017e-07
-3.63395e-10
-2.267e-08
0.000250992
1.23793e-08
-0.000250972
-9.17548e-09
-0.000282668
3.33746e-08
-3.76888e-08
1.29052e-07
-3.26481e-09
0.000282547
-0.000282582
-3.80482e-08
1.28314e-07
-3.31571e-09
0.000282463
3.21405e-08
-1.16841e-06
-1.12405e-06
0.000276482
-0.000274415
1.0818e-07
1.16757e-07
1.52753e-10
-1.13853e-08
0.000282327
9.71952e-09
-0.000282377
5.08697e-08
1.79269e-09
-1.24316e-08
0.000282241
1.07889e-08
-0.000282293
5.13877e-08
1.49729e-11
5.79406e-08
0.000233797
-0.000233837
-1.41122e-08
-3.69511e-09
-0.000195498
-2.84048e-09
8.7783e-08
-7.80804e-09
0.00019542
-0.000234093
-1.25029e-10
1.68529e-07
0.000233985
-5.55886e-08
-5.04523e-09
9.6032e-09
1.88189e-08
0.000195297
-5.48005e-09
-0.00019532
-9.83478e-05
2.44403e-09
3.50279e-08
9.83103e-05
-8.54261e-09
1.11455e-08
9.82676e-05
-9.82702e-05
5.8096e-08
-7.87347e-10
0.000233791
-0.000233829
-3.34338e-09
-1.62509e-08
-0.000195478
-2.60682e-09
8.81196e-08
-8.30185e-09
0.0001954
-0.000234084
1.68538e-07
-1.69109e-10
0.000233975
-4.8869e-09
-5.40742e-08
9.18874e-09
1.86301e-08
0.000195278
-5.05317e-09
-0.0001953
4.16403e-07
4.19092e-07
0.00115599
4.14939e-07
4.17706e-07
0.00115578
4.16593e-07
4.18713e-07
0.0011558
-0.00115759
4.08166e-07
4.09563e-07
0.00115812
-0.00115741
4.1197e-07
4.10578e-07
0.00115791
-0.00115721
4.1188e-07
4.1007e-07
0.00115793
-0.00115723
4.11047e-07
4.11323e-07
-6.02692e-08
-2.70466e-09
0.000257967
-0.000257861
-1.03849e-08
-3.25064e-08
-0.000250672
-3.173e-08
-8.86765e-08
2.74372e-07
2.88264e-08
0.000250489
0.00114661
-0.00114603
2.7367e-09
8.41032e-07
8.09301e-07
-1.14277e-06
-1.31074e-06
6.09108e-07
3.87495e-07
1.144e-06
0.00114275
7.71716e-07
-1.18307e-06
7.74688e-08
-4.84329e-07
7.48306e-07
-1.48061e-06
1.39873e-07
-4.52164e-07
-0.000258302
-1.66011e-07
1.412e-09
0.000258027
-1.20155e-08
4.50922e-07
-8.57404e-10
-1.78818e-08
0.000250358
1.03489e-08
-0.000250333
-1.6927e-08
-5.84256e-09
0.00114719
8.36862e-07
-1.30586e-06
6.11685e-07
-1.13833e-06
8.1158e-07
-9.83404e-05
2.63274e-09
3.49289e-08
9.83028e-05
-8.80545e-09
1.12409e-08
9.82605e-05
-9.82629e-05
-1.43346e-09
-5.71422e-08
0.00025796
-0.000257857
-3.2738e-08
-1.15672e-08
0.00114647
-0.0011459
3.31495e-09
8.44901e-07
8.06517e-07
-1.14245e-06
-1.30786e-06
6.09558e-07
-0.000250665
-3.39295e-08
-8.82369e-08
2.73805e-07
2.94618e-08
0.000250484
3.88623e-07
1.1405e-06
0.00114266
7.73666e-07
-1.17811e-06
7.43738e-08
-4.82008e-07
7.42314e-07
-1.47854e-06
1.41223e-07
-4.56844e-07
-0.000258295
1.53066e-09
-1.68722e-07
0.000258024
4.50847e-07
-1.24204e-08
-5.11739e-09
0.00114705
8.384e-07
-1.30367e-06
6.11576e-07
-1.13827e-06
8.08196e-07
1.712e-09
-1.78396e-08
0.000250349
1.03901e-08
-0.000250327
-1.67318e-08
-0.000281999
3.39321e-08
-3.53462e-08
1.20041e-07
-4.69028e-09
0.000281886
-0.000281914
3.20064e-08
-3.50877e-08
1.19654e-07
-4.70911e-09
0.000281802
-1.1712e-06
-1.12771e-06
0.000276412
-0.000274353
1.14839e-07
1.25095e-07
-2.43247e-09
-1.17658e-08
0.000281688
1.25278e-08
-0.00028173
4.36936e-08
-1.41472e-09
-1.24687e-08
0.000281601
1.4024e-08
-0.000281645
4.43043e-08
2.37513e-10
4.86158e-08
0.000233243
-0.000233278
-1.13006e-08
-2.99673e-09
-0.000195106
-3.99304e-09
8.40602e-08
-7.97095e-09
0.000195034
-0.000233514
4.71476e-11
1.57228e-07
0.000233413
-5.24284e-08
-3.86712e-09
6.92699e-09
1.42318e-08
0.000194927
-3.43232e-09
-0.000194945
-9.81927e-05
2.76056e-09
3.22085e-08
9.81577e-05
-4.97185e-09
6.0888e-09
9.81206e-05
-9.81218e-05
4.88466e-08
4.00118e-10
0.000233238
-0.00023327
-3.9589e-09
-1.2832e-08
-0.000195087
-4.40078e-09
8.40484e-08
-7.48422e-09
0.000195015
-0.000233509
1.56759e-07
1.46194e-10
0.000233406
-3.72911e-09
-5.02514e-08
6.36483e-09
1.34873e-08
0.000194907
-2.13266e-09
-0.000194925
4.07701e-07
4.08497e-07
0.00115881
4.07758e-07
4.08905e-07
0.00115861
4.07158e-07
4.08227e-07
0.00115862
-0.00116036
4.01899e-07
4.01003e-07
0.00116086
-0.00116018
3.96835e-07
3.97706e-07
0.00116066
-0.00115998
4.02729e-07
4.03211e-07
0.00116067
-0.00115999
4.0147e-07
3.9829e-07
-4.99473e-08
-4.81936e-09
0.000257315
-0.00025721
-6.73772e-09
-4.40039e-08
-0.000250054
-2.88101e-08
-8.45391e-08
2.61955e-07
2.59993e-08
0.000249879
0.00114886
-0.00114831
2.82029e-09
8.26285e-07
8.15332e-07
-1.12702e-06
-1.29522e-06
6.1628e-07
3.77028e-07
1.14884e-06
0.00114396
7.45593e-07
-1.16422e-06
8.38308e-08
-4.69137e-07
7.55765e-07
-1.46965e-06
1.45196e-07
-4.39645e-07
-0.000257638
-1.55226e-07
1.67747e-09
0.00025737
-1.0509e-08
4.31643e-07
-8.06625e-10
-1.48337e-08
0.000249764
7.96628e-09
-0.000249735
-2.13436e-08
-7.49826e-09
0.0011494
8.18655e-07
-1.28927e-06
6.19405e-07
-1.12177e-06
8.18622e-07
-9.81845e-05
4.7633e-09
3.06295e-08
9.81491e-05
-6.15304e-09
7.06662e-09
9.8112e-05
-9.81129e-05
-1.79767e-09
-4.57693e-08
0.000257309
-0.000257204
-4.69744e-08
-1.00512e-08
0.00114872
-0.00114818
5.42373e-09
8.24639e-07
8.13026e-07
-1.12759e-06
-1.29262e-06
6.17207e-07
-0.000250046
-3.26579e-08
-8.39931e-08
2.61687e-07
2.67774e-08
0.000249874
3.83324e-07
1.14517e-06
0.00114386
7.47445e-07
-1.15894e-06
8.19035e-08
-4.65968e-07
7.50135e-07
-1.46688e-06
1.46426e-07
-4.42437e-07
-0.000257627
2.11441e-09
-1.58244e-07
0.000257362
4.32581e-07
-1.1367e-08
-1.81436e-09
0.00114925
8.19288e-07
-1.28575e-06
6.2179e-07
-1.11986e-06
8.16902e-07
2.1312e-09
-1.50638e-08
0.000249757
9.15281e-09
-0.00024973
-2.26783e-08
-0.000281393
3.21442e-08
-3.08778e-08
1.13648e-07
-9.36426e-09
0.000281287
-0.000281308
3.10917e-08
-3.13294e-08
1.1333e-07
-1.00108e-08
0.000281205
-1.17897e-06
-1.13469e-06
0.000276291
-0.000274238
1.2467e-07
1.36275e-07
-1.91091e-09
-7.3629e-09
0.000281108
8.77932e-09
-0.000281145
3.74013e-08
6.25267e-10
-7.42137e-09
0.000281023
8.87148e-09
-0.000281062
3.72191e-08
-1.25625e-09
3.99514e-08
0.000232747
-0.000232775
-9.79495e-09
-1.46383e-09
-0.000194757
-2.61874e-09
7.87093e-08
-9.39094e-09
0.000194691
-0.000232988
-6.52869e-10
1.46158e-07
0.000232895
-4.92668e-08
-3.32581e-09
9.22404e-09
1.18412e-08
0.000194596
-6.9285e-09
-0.00019461
-9.80512e-05
4.09565e-09
2.95096e-08
9.80176e-05
-1.06161e-08
1.05481e-08
9.79839e-05
-9.79838e-05
3.9661e-08
4.61493e-10
0.000232744
-0.000232769
-2.43233e-09
-1.20803e-08
-0.000194737
-1.28955e-09
7.93845e-08
-1.06171e-08
0.00019467
-0.000232984
1.46359e-07
9.75583e-10
0.000232889
-4.60428e-09
-4.80736e-08
1.01503e-08
1.27791e-08
0.000194573
-8.16111e-09
-0.000194588
3.99138e-07
3.99473e-07
0.00116153
4.00944e-07
3.99911e-07
0.00116133
4.00545e-07
4.01549e-07
0.00116134
-0.00116303
3.96929e-07
3.9863e-07
0.00116351
-0.00116286
4.02333e-07
3.99116e-07
0.0011633
-0.00116265
4.01245e-07
3.94442e-07
0.00116332
-0.00116267
3.97718e-07
3.97253e-07
-4.15135e-08
-1.9664e-09
0.000256691
-0.000256584
-8.87801e-09
-5.47805e-08
-0.000249487
-2.98165e-08
-7.70635e-08
2.47359e-07
2.51169e-08
0.000249322
0.00115094
-0.00115043
2.45091e-09
8.1523e-07
8.19981e-07
-1.11157e-06
-1.2802e-06
6.22378e-07
3.79464e-07
1.14974e-06
0.00114497
7.32942e-07
-1.14745e-06
9.12292e-08
-4.53439e-07
7.61563e-07
-1.45937e-06
1.45053e-07
-4.29278e-07
-0.000256998
-1.45388e-07
4.94214e-09
0.000256736
-1.18935e-08
4.13595e-07
1.07067e-09
-1.13786e-08
0.00024922
8.84394e-09
-0.000249189
-2.95589e-08
-5.71968e-09
0.00115144
8.1157e-07
-1.27403e-06
6.26448e-07
-1.10572e-06
8.2429e-07
-9.80432e-05
9.0995e-10
3.27256e-08
9.80096e-05
-1.20495e-08
1.16481e-08
9.79766e-05
-9.79761e-05
-5.64766e-10
-3.64323e-08
0.000256685
-0.000256579
-5.86338e-08
-1.09556e-08
0.0011508
-0.00115029
2.13645e-09
8.13125e-07
8.18356e-07
-1.11306e-06
-1.27733e-06
6.22567e-07
-0.000249479
-2.99331e-08
-7.83062e-08
2.47842e-07
2.34084e-08
0.000249316
3.7823e-07
1.14806e-06
0.00114486
7.31676e-07
-1.1408e-06
8.84654e-08
-4.50632e-07
7.56781e-07
-1.45606e-06
1.48934e-07
-4.30955e-07
-0.000256989
1.15221e-09
-1.48409e-07
0.000256729
4.15743e-07
-8.84049e-09
-7.47611e-09
0.0011513
8.05783e-07
-1.26905e-06
6.30024e-07
-1.10347e-06
8.24128e-07
4.7849e-09
-1.23669e-08
0.000249212
7.70751e-09
-0.000249184
-2.85573e-08
-0.000280837
3.07284e-08
-3.1937e-08
1.05371e-07
-5.5958e-09
0.000280739
-0.000280751
2.8799e-08
-3.09919e-08
1.05141e-07
-6.23481e-09
0.000280655
-1.17804e-06
-1.13451e-06
0.000276121
-0.000274078
1.29391e-07
1.40143e-07
-7.02287e-09
-1.01894e-08
0.000280578
1.60845e-08
-0.000280609
3.18624e-08
-2.46679e-09
-1.06946e-08
0.000280492
1.43767e-08
-0.000280525
3.15461e-08
2.36798e-09
3.1699e-08
0.000232292
-0.000232318
-5.39524e-09
-2.86629e-09
-0.000194437
-1.45442e-09
7.79852e-08
-1.23179e-08
0.000194373
-0.000232519
-2.02038e-10
1.35077e-07
0.000232431
-4.66943e-08
-5.87798e-10
4.92655e-09
8.43308e-09
0.000194287
-2.48648e-09
-0.000194298
-9.79221e-05
1.9806e-10
3.08163e-08
9.7891e-05
-7.28779e-09
5.48889e-09
9.78639e-05
-9.78621e-05
3.24949e-08
-3.12946e-10
0.000232281
-0.000232304
-1.78696e-09
-7.48033e-09
-0.000194416
-3.21924e-09
7.57015e-08
-9.67757e-09
0.000194353
-0.00023251
1.36269e-07
-6.35876e-10
0.000232419
-8.52471e-10
-4.36524e-08
5.58217e-09
7.81068e-09
0.00019427
-3.20709e-09
-0.000194281
4.00672e-07
3.98869e-07
0.00116415
3.95743e-07
3.94469e-07
0.00116394
3.91791e-07
3.93117e-07
0.00116396
-0.0011656
3.83559e-07
3.864e-07
0.00116603
-0.00116541
3.89617e-07
3.88618e-07
0.00116584
-0.00116521
3.78839e-07
3.83607e-07
0.00116585
-0.00116522
3.80246e-07
3.89467e-07
-3.46484e-08
-5.98083e-10
0.000256108
-0.000256002
-7.30479e-09
-6.33563e-08
-0.000248962
-2.03962e-08
-7.68646e-08
2.373e-07
1.75511e-08
0.000248804
0.00115288
-0.00115241
9.62618e-09
7.97518e-07
8.28179e-07
-1.09174e-06
-1.26015e-06
6.3131e-07
3.72501e-07
1.15648e-06
0.00114574
7.1084e-07
-1.12936e-06
9.60336e-08
-4.39569e-07
7.67092e-07
-1.44617e-06
1.54611e-07
-4.14618e-07
-0.0002564
-1.34195e-07
2.85523e-09
0.000256148
-8.86622e-09
3.92617e-07
3.63607e-09
-1.03235e-08
0.000248717
2.56491e-09