/*--------------------------------*- C++ -*----------------------------------*\
| =========                 |                                                 |
| \\      /  F ield         | OpenFOAM: The Open Source CFD Toolbox           |
|  \\    /   O peration     | Version:  v2006                                 |
|   \\  /    A nd           | Website:  www.openfoam.com                      |
|    \\/     M anipulation  |                                                 |
\*---------------------------------------------------------------------------*/
FoamFile
{
    version     2.0;
    format      ascii;
    class       volVectorField;
    location    "1000";
    object      U;
}
// * * * * * * * * * * * * * * * * * * * * * * * * * * * * * * * * * * * * * //

dimensions      [0 1 -1 0 0 0 0];


internalField   nonuniform List<vector> 
14310
(
(-9.44179e-05 5.77572e-05 0.108153)
(-0.000154582 -0.000154754 0.106645)
(5.79725e-05 5.78136e-05 0.109515)
(-9.27891e-05 5.84946e-05 0.108312)
(5.80481e-05 -9.23985e-05 0.108311)
(-0.000150175 -0.000150103 0.106643)
(5.61361e-05 5.61521e-05 0.109794)
(-8.94902e-05 5.6549e-05 0.108451)
(5.64682e-05 -8.95391e-05 0.108451)
(-0.000143875 -0.000143696 0.10662)
(5.44967e-05 5.44952e-05 0.110063)
(-8.69911e-05 5.55742e-05 0.108573)
(5.52868e-05 -8.67834e-05 0.108573)
(-0.000138006 -0.000138293 0.106578)
(5.32465e-05 5.37403e-05 0.110323)
(-8.41501e-05 5.38692e-05 0.108677)
(5.42729e-05 -8.40243e-05 0.108676)
(-0.000132514 -0.00013317 0.106519)
(5.27141e-05 5.24331e-05 0.110573)
(-8.13128e-05 5.40278e-05 0.108759)
(5.25751e-05 -8.13602e-05 0.108758)
(-0.00012756 -0.00012758 0.106436)
(5.12824e-05 5.16404e-05 0.110813)
(-7.90361e-05 5.07629e-05 0.108822)
(5.06196e-05 -7.76401e-05 0.108825)
(-0.000121895 -0.00012129 0.106349)
(-0.000153555 0.000153771 0.106644)
(1.02546e-05 -1.01245e-05 0.106833)
(-9.49878e-05 -5.88544e-05 0.108152)
(-9.33382e-05 5.84684e-05 0.108274)
(-9.34404e-05 -5.87799e-05 0.108272)
(1.04059e-05 1.03479e-05 0.106829)
(0.000149699 0.000149406 0.106642)
(-1.40034e-05 -1.39439e-05 0.106818)
(5.8356e-05 9.24618e-05 0.10831)
(-5.8701e-05 9.27829e-05 0.108311)
(5.61652e-05 9.03735e-05 0.108417)
(-5.7209e-05 9.08549e-05 0.108417)
(-0.000150382 0.000150366 0.106646)
(1.33352e-05 -1.3085e-05 0.106818)
(9.275e-05 5.80071e-05 0.108311)
(9.25273e-05 -5.80556e-05 0.10831)
(9.0529e-05 5.61265e-05 0.108418)
(9.08534e-05 -5.62856e-05 0.108416)
(-9.27557e-05 -5.81118e-05 0.10831)
(-9.05881e-05 5.7196e-05 0.108418)
(-9.06835e-05 -5.65398e-05 0.108417)
(0.000150195 -0.000149974 0.106643)
(-1.34956e-05 1.40676e-05 0.106817)
(-5.83015e-05 -9.255e-05 0.10831)
(5.66086e-05 -9.02102e-05 0.108417)
(-5.66014e-05 -9.01154e-05 0.108418)
(1.38807e-05 1.41473e-05 0.106818)
(0.00014337 0.000143431 0.10662)
(-1.52806e-05 -1.50554e-05 0.106787)
(5.65218e-05 9.01382e-05 0.108451)
(-5.64966e-05 8.99879e-05 0.10845)
(5.52431e-05 8.74294e-05 0.108544)
(-5.61763e-05 8.78633e-05 0.108542)
(-0.000143854 0.000144115 0.106618)
(1.5029e-05 -1.52403e-05 0.106785)
(9.0093e-05 5.648e-05 0.108451)
(8.99811e-05 -5.63877e-05 0.10845)
(8.71065e-05 5.52594e-05 0.108545)
(8.76771e-05 -5.58468e-05 0.108543)
(-9.00517e-05 -5.6792e-05 0.10845)
(-8.8078e-05 5.59143e-05 0.108543)
(-8.78267e-05 -5.59153e-05 0.108543)
(0.000144105 -0.000143724 0.10662)
(-1.55973e-05 1.52145e-05 0.106787)
(-5.68995e-05 -8.98446e-05 0.10845)
(5.54374e-05 -8.79087e-05 0.108544)
(-5.5501e-05 -8.76827e-05 0.108544)
(1.58228e-05 1.54924e-05 0.106786)
(0.00013806 0.00013818 0.106579)
(-1.62552e-05 -1.60153e-05 0.106736)
(5.48055e-05 8.67873e-05 0.108573)
(-5.56014e-05 8.72525e-05 0.108571)
(5.46402e-05 8.49392e-05 0.108651)
(-5.34381e-05 8.45661e-05 0.108651)
(-0.000139066 0.00013886 0.106576)
(1.80825e-05 -1.80078e-05 0.106737)
(8.66082e-05 5.46797e-05 0.108573)
(8.70822e-05 -5.52716e-05 0.108572)
(8.47642e-05 5.47083e-05 0.108652)
(8.52372e-05 -5.47543e-05 0.10865)
(-8.72237e-05 -5.54224e-05 0.108572)
(-8.44194e-05 5.32226e-05 0.108652)
(-8.44549e-05 -5.41575e-05 0.108651)
(0.000138346 -0.000138707 0.106579)
(-1.68859e-05 1.68112e-05 0.106734)
(-5.5263e-05 -8.67454e-05 0.108572)
(5.42738e-05 -8.48181e-05 0.108652)
(-5.35542e-05 -8.48244e-05 0.108652)
(1.78191e-05 1.74189e-05 0.106735)
(0.0001335 0.000133744 0.106519)
(-1.80724e-05 -1.78817e-05 0.10666)
(5.42003e-05 8.44613e-05 0.108675)
(-5.41667e-05 8.44492e-05 0.108675)
(5.44887e-05 8.1945e-05 0.108738)
(-5.56577e-05 8.16558e-05 0.108738)
(-0.000132552 0.000132374 0.10652)
(1.66973e-05 -1.69836e-05 0.106661)
(8.36328e-05 5.44948e-05 0.108676)
(8.43466e-05 -5.48694e-05 0.108674)
(8.19361e-05 5.45021e-05 0.108739)
(8.12765e-05 -5.46654e-05 0.108738)
(-8.42503e-05 -5.48597e-05 0.108675)
(-8.24734e-05 5.51955e-05 0.10874)
(-8.19518e-05 -5.42672e-05 0.108738)
(0.000133058 -0.000133494 0.106518)
(-1.83679e-05 1.73746e-05 0.106659)
(-5.44186e-05 -8.42234e-05 0.108675)
(5.36893e-05 -8.27321e-05 0.108739)
(-5.41576e-05 -8.21934e-05 0.108738)
(1.78358e-05 1.808e-05 0.106659)
(0.000127681 0.000127406 0.106437)
(-2.12032e-05 -2.0949e-05 0.106577)
(5.35006e-05 8.06219e-05 0.108757)
(-5.47044e-05 8.10119e-05 0.108757)
(5.10181e-05 7.90376e-05 0.108808)
(-5.17547e-05 7.94474e-05 0.108805)
(-0.000129173 0.000128548 0.106437)
(2.14368e-05 -2.0994e-05 0.106571)
(8.13864e-05 5.30831e-05 0.108757)
(8.10882e-05 -5.3076e-05 0.108756)
(7.88692e-05 5.10665e-05 0.10881)
(7.91174e-05 -5.07333e-05 0.108808)
(-8.0506e-05 -5.26733e-05 0.108758)
(-7.96477e-05 5.17462e-05 0.108806)
(-8.00189e-05 -5.12367e-05 0.108806)
(0.000127219 -0.000128248 0.106436)
(-1.99732e-05 2.10998e-05 0.106577)
(-5.27386e-05 -8.07095e-05 0.108757)
(5.12555e-05 -7.81418e-05 0.108808)
(-5.17724e-05 -7.85901e-05 0.108808)
(2.04583e-05 2.14133e-05 0.106574)
(0.000120813 0.0001212 0.106351)
(5.17853e-05 7.87701e-05 0.108824)
(-5.13706e-05 7.79378e-05 0.108821)
(-4.74258e-05 7.49097e-05 0.108862)
(-0.000121134 0.000121045 0.106344)
(2.46989e-05 -2.37805e-05 0.106487)
(7.78964e-05 5.20128e-05 0.108824)
(7.75639e-05 -5.10336e-05 0.108823)
(-7.9178e-05 -5.1325e-05 0.108823)
(-7.3948e-05 4.81686e-05 0.108863)
(-7.38777e-05 -5.01497e-05 0.108861)
(0.000122043 -0.000121593 0.106351)
(-5.15672e-05 -7.80678e-05 0.108823)
(-4.84452e-05 -7.57525e-05 0.108863)
(2.40979e-05 2.24768e-05 0.106483)
(-3.09901e-06 5.82545e-06 0.0720246)
(2.67339e-06 -2.14983e-06 0.0720312)
(-5.52731e-05 3.67016e-06 0.102189)
(-5.68403e-05 1.46972e-05 0.0954296)
(-9.96202e-05 1.75538e-05 0.108878)
(-9.40064e-05 5.75045e-05 0.108194)
(-2.49589e-05 4.30396e-06 0.0954275)
(-9.94285e-05 1.73524e-05 0.10894)
(-9.82658e-05 3.02029e-06 0.102185)
(-2.64895e-05 -1.11899e-05 0.0891472)
(-1.16556e-05 -2.60999e-05 0.0891459)
(-0.000153379 -0.000153409 0.106648)
(-1.62101e-05 -4.72413e-07 0.0891216)
(-3.63048e-07 -1.62312e-05 0.089119)
(1.3255e-06 1.43711e-05 0.0934463)
(-1.40447e-06 1.72577e-05 0.0831665)
(1.03942e-06 3.57061e-05 0.0934848)
(-3.67417e-06 -1.77183e-06 0.0831562)
(-1.40566e-06 6.70087e-06 0.0718871)
(3.50736e-06 -1.82863e-06 0.0718973)
(1.43962e-05 1.15347e-06 0.093444)
(1.69843e-05 -1.31666e-06 0.0831662)
(3.57154e-05 1.49652e-06 0.0934843)
(-1.97053e-06 -3.25433e-06 0.0831561)
(-2.11639e-05 2.10911e-05 0.10997)
(6.12613e-05 -2.07134e-05 0.109804)
(-2.11489e-05 -2.10618e-05 0.10997)
(5.65288e-05 5.6499e-05 0.109725)
(-5.67895e-05 5.69268e-05 0.109725)
(5.66524e-05 -5.62252e-05 0.109725)
(-5.64675e-05 -5.61836e-05 0.109725)
(-4.85428e-05 3.12014e-06 0.101917)
(-5.15749e-05 1.34479e-05 0.0951598)
(-9.87479e-05 1.77373e-05 0.109122)
(-9.22385e-05 5.81635e-05 0.108349)
(-9.03383e-05 2.92135e-06 0.101913)
(-2.15757e-05 2.01631e-06 0.0951613)
(-9.85319e-05 1.78756e-05 0.109181)
(6.15297e-06 -2.07152e-06 0.0718864)
(-2.38981e-06 2.62216e-06 0.071897)
(2.80467e-06 -4.88523e-05 0.101918)
(1.781e-05 -9.84723e-05 0.109122)
(3.95178e-05 -0.000154749 0.10239)
(5.71647e-05 -9.16668e-05 0.108348)
(2.11304e-05 -0.000188161 0.105767)
(1.75217e-05 -9.82936e-05 0.109181)
(2.26772e-06 -2.21378e-05 0.0951614)
(-2.43632e-05 -1.02385e-05 0.0889182)
(-1.04356e-05 -2.41879e-05 0.0889167)
(1.14459e-05 1.18979e-05 0.106826)
(-1.41657e-05 -1.69268e-08 0.0888997)
(3.73199e-07 -1.45066e-05 0.088897)
(8.97683e-07 1.19924e-05 0.0932002)
(-7.23392e-07 1.59122e-05 0.0829857)
(8.99722e-07 3.28547e-05 0.0932298)
(-4.07389e-06 -1.59161e-06 0.0829814)
(-1.98812e-06 6.26726e-06 0.0717632)
(3.51361e-06 -1.72977e-06 0.0717765)
(1.21234e-05 6.99595e-07 0.0931994)
(1.61947e-05 -8.66948e-07 0.0829862)
(3.29971e-05 8.33854e-07 0.0932297)
(-1.62399e-06 -3.87724e-06 0.0829819)
(-5.60894e-05 5.63702e-05 0.109794)
(5.61899e-05 -5.59615e-05 0.109794)
(-5.62547e-05 -5.60905e-05 0.109794)
(5.49475e-05 5.50885e-05 0.109997)
(-5.53325e-05 5.50987e-05 0.109997)
(5.50336e-05 -5.53144e-05 0.109997)
(-5.51928e-05 -5.52478e-05 0.109997)
(-4.23071e-05 2.13064e-06 0.10165)
(-4.84445e-05 1.27266e-05 0.0949092)
(-9.71139e-05 1.7057e-05 0.109352)
(-8.89137e-05 5.60575e-05 0.108483)
(-8.32883e-05 2.4753e-06 0.101645)
(-1.84632e-05 1.73255e-06 0.0949158)
(-9.67163e-05 1.696e-05 0.109407)
(6.44173e-06 -1.85792e-06 0.0717626)
(-1.7921e-06 3.43071e-06 0.0717762)
(2.36036e-06 -4.21985e-05 0.101651)
(1.70589e-05 -9.69351e-05 0.109352)
(1.28252e-05 -4.81136e-05 0.0949091)
(5.62165e-05 -8.91949e-05 0.108484)
(2.86079e-06 -8.33095e-05 0.101644)
(1.70093e-05 -9.70027e-05 0.109407)
(1.58935e-06 -1.86016e-05 0.0949158)
(-2.19365e-05 -1.02161e-05 0.0887096)
(-1.04038e-05 -2.18447e-05 0.0887083)
(1.3039e-05 1.31206e-05 0.106804)
(-1.25062e-05 1.16743e-06 0.0886964)
(1.71959e-06 -1.27148e-05 0.0886935)
(7.81943e-07 9.94019e-06 0.0929777)
(-6.10486e-07 1.54622e-05 0.0828212)
(7.31095e-07 3.05215e-05 0.0930013)
(-2.99374e-06 -2.5703e-06 0.0828226)
(-2.2989e-06 5.76822e-06 0.0716515)
(1.54557e-06 -2.89178e-06 0.071668)
(9.81826e-06 9.42655e-07 0.0929774)
(1.53078e-05 -4.58859e-07 0.0828218)
(3.04247e-05 7.37878e-07 0.0930021)
(-2.81199e-06 -2.80967e-06 0.0828232)
(-5.47473e-05 5.48345e-05 0.110064)
(5.48068e-05 -5.46948e-05 0.110063)
(-5.47602e-05 -5.46258e-05 0.110064)
(5.3846e-05 5.38265e-05 0.110259)
(-5.33022e-05 5.33087e-05 0.110259)
(5.39739e-05 -5.3968e-05 0.110259)
(-5.34029e-05 -5.3803e-05 0.110259)
(-3.6573e-05 8.92185e-07 0.101393)
(-4.55963e-05 1.14536e-05 0.0946782)
(-9.56155e-05 1.67058e-05 0.109568)
(-8.57835e-05 5.46352e-05 0.1086)
(-7.68372e-05 2.20593e-06 0.101385)
(-1.66329e-05 1.07179e-06 0.0946884)
(-9.48971e-05 1.63213e-05 0.10962)
(5.48033e-06 -3.00492e-06 0.0716502)
(-2.34931e-06 2.24327e-06 0.0716667)
(1.92028e-06 -3.55815e-05 0.101393)
(1.68792e-05 -9.52508e-05 0.109568)
(1.1956e-05 -4.52531e-05 0.0946776)
(5.52146e-05 -8.59581e-05 0.1086)
(2.74926e-06 -7.71282e-05 0.101383)
(1.6952e-05 -9.4929e-05 0.109619)
(1.32544e-06 -1.61124e-05 0.0946889)
(-2.04644e-05 -1.04891e-05 0.0885208)
(-1.08091e-05 -2.04532e-05 0.0885199)
(1.59904e-05 1.64766e-05 0.106762)
(-1.02932e-05 4.23524e-07 0.0885125)
(3.24851e-07 -1.0538e-05 0.08851)
(3.3337e-08 8.37115e-06 0.0927781)
(-1.265e-06 1.48379e-05 0.0826745)
(3.48244e-07 2.81523e-05 0.0927937)
(-4.0106e-06 -2.2713e-06 0.0826808)
(-2.58755e-06 6.0011e-06 0.0715493)
(4.54405e-06 -8.24793e-07 0.071567)
(8.48359e-06 7.20878e-07 0.0927787)
(1.52896e-05 -1.73022e-06 0.0826748)
(2.82996e-05 9.23223e-07 0.092795)
(-1.75743e-06 -4.43035e-06 0.08268)
(-5.34509e-05 5.34643e-05 0.110323)
(5.36054e-05 -5.37135e-05 0.110323)
(-5.36826e-05 -5.36848e-05 0.110323)
(5.32116e-05 5.32612e-05 0.110512)
(-5.38021e-05 5.33138e-05 0.110512)
(5.27841e-05 -5.37779e-05 0.110511)
(-5.3164e-05 -5.33465e-05 0.110512)
(-3.14566e-05 1.73324e-06 0.101145)
(-4.14235e-05 1.16206e-05 0.0944667)
(-9.42734e-05 1.63634e-05 0.109768)
(-8.36746e-05 5.48504e-05 0.108699)
(-7.11056e-05 3.0445e-06 0.101136)
(-1.2952e-05 1.29031e-06 0.0944802)
(-9.3716e-05 1.65e-05 0.109816)
(6.71875e-06 -1.07427e-06 0.0715482)
(-7.09338e-07 4.92446e-06 0.0715668)
(2.32489e-06 -3.0075e-05 0.101146)
(1.62857e-05 -9.3782e-05 0.109769)
(1.07811e-05 -4.17384e-05 0.0944661)
(5.46734e-05 -8.34372e-05 0.108698)
(1.88812e-06 -7.17598e-05 0.101134)
(1.64158e-05 -9.30161e-05 0.109817)
(5.35924e-07 -1.36199e-05 0.0944807)
(-1.88319e-05 -9.34327e-06 0.0883477)
(-9.4924e-06 -1.83213e-05 0.0883464)
(1.64674e-05 1.6583e-05 0.1067)
(-9.71225e-06 2.56648e-06 0.0883441)
(2.08479e-06 -9.78617e-06 0.0883409)
(1.01726e-06 6.45846e-06 0.0925959)
(-1.97037e-06 1.53448e-05 0.0825396)
(1.00203e-07 2.63926e-05 0.0926085)
(-2.6661e-06 -3.84793e-06 0.0825483)
(-1.42401e-06 5.89808e-06 0.0714566)
(2.61388e-06 -2.42772e-06 0.0714782)
(6.42794e-06 1.4466e-07 0.0925932)
(1.41889e-05 -1.19764e-06 0.0825397)
(2.62797e-05 -8.4474e-08 0.0926073)
(-3.80188e-06 -2.89489e-06 0.0825499)
(-5.35362e-05 5.32009e-05 0.110573)
(5.27399e-05 -5.30434e-05 0.110573)
(-5.27244e-05 -5.26959e-05 0.110573)
(5.1452e-05 5.15083e-05 0.110754)
(-5.1947e-05 5.17355e-05 0.110753)
(5.13275e-05 -5.08017e-05 0.110754)
(-5.18381e-05 -5.08856e-05 0.110753)
(-2.74742e-05 1.8496e-06 0.100915)
(-4.03443e-05 7.89264e-06 0.0942706)
(-9.1659e-05 1.73657e-05 0.109955)
(-7.99853e-05 5.26469e-05 0.108775)
(-6.479e-05 1.98666e-06 0.100903)
(-1.27768e-05 -9.5249e-07 0.0942879)
(-9.10658e-05 1.71652e-05 0.11)
(4.78821e-06 -3.14224e-06 0.0714562)
(-2.91231e-06 1.10082e-06 0.0714783)
(1.80884e-06 -2.65367e-05 0.100912)
(1.66137e-05 -9.22212e-05 0.109955)
(8.9327e-06 -4.01801e-05 0.0942694)
(5.20297e-05 -7.97466e-05 0.108775)
(1.67881e-06 -6.64241e-05 0.1009)
(1.63669e-05 -9.07852e-05 0.109999)
(1.0386e-06 -1.25459e-05 0.0942877)
(-1.82205e-05 -8.75682e-06 0.0881918)
(-8.74547e-06 -1.78094e-05 0.0881911)
(2.04953e-05 2.0907e-05 0.106617)
(-8.00574e-06 2.48426e-07 0.0881931)
(8.16112e-07 -8.53029e-06 0.0881897)
(-4.89953e-07 6.12634e-06 0.0924285)
(-1.72242e-06 1.40975e-05 0.0824199)
(4.93748e-07 2.48388e-05 0.0924337)
(-4.67591e-06 -2.1607e-06 0.0824319)
(-2.3132e-06 5.57803e-06 0.071376)
(1.26088e-06 -2.29464e-06 0.0713985)
(5.74403e-06 8.53334e-08 0.0924296)
(1.5027e-05 -2.2308e-06 0.0824199)
(2.54008e-05 3.55715e-07 0.0924351)
(-2.39954e-06 -4.96528e-06 0.0824308)
(-5.16224e-05 5.09153e-05 0.110813)
(5.10292e-05 -5.11091e-05 0.110813)
(-5.18068e-05 -5.09834e-05 0.110813)
(-4.87365e-05 4.9517e-05 0.110985)
(-4.92362e-05 -5.09016e-05 0.110986)
(-2.43307e-05 1.68755e-06 0.100691)
(-3.79729e-05 8.60084e-06 0.0940903)
(-9.10364e-05 1.54454e-05 0.110125)
(-7.72728e-05 4.91151e-05 0.108837)
(-6.04472e-05 3.9668e-07 0.100679)
(-1.02726e-05 5.16818e-07 0.0941088)
(-8.97931e-05 1.51201e-05 0.110166)
(6.42299e-06 -1.0429e-06 0.0713727)
(-1.49359e-06 3.46328e-06 0.0713969)
(2.04913e-06 -2.36485e-05 0.100693)
(1.57662e-05 -8.96943e-05 0.110125)
(8.4776e-06 -3.72033e-05 0.0940912)
(5.07023e-05 -7.72769e-05 0.108839)
(1.02933e-06 -6.10638e-05 0.10068)
(1.60222e-05 -8.90566e-05 0.110166)
(-1.92987e-07 -1.03673e-05 0.0941111)
(-1.57929e-05 -8.21452e-06 0.0880463)
(-8.05131e-06 -1.60996e-05 0.0880463)
(2.0374e-05 2.02329e-05 0.10653)
(-6.99787e-06 1.66101e-06 0.0880517)
(1.79182e-06 -7.16482e-06 0.0880483)
(-1.27033e-05 2.66238e-05 0.0891472)
(-2.66972e-05 1.25232e-05 0.0891496)
(-0.000151902 0.000151787 0.106647)
(-1.29581e-06 1.55315e-05 0.0891201)
(-1.56246e-05 1.0728e-06 0.0891215)
(-5.89054e-06 2.9304e-06 0.0720244)
(2.20544e-06 -2.61133e-06 0.0720309)
(4.02402e-06 -1.4158e-06 0.0719626)
(-2.13969e-06 6.45857e-06 0.0719542)
(1.06105e-05 -1.06607e-05 0.106832)
(7.73199e-07 1.48813e-05 0.089005)
(-1.47275e-05 -4.97627e-07 0.0890065)
(-1.19908e-05 2.49482e-05 0.0890293)
(-2.5001e-05 1.1964e-05 0.0890315)
(1.48995e-06 -3.9079e-06 0.0719621)
(-6.37273e-06 2.30966e-06 0.071954)
(-1.71867e-05 1.82277e-06 0.0937145)
(-1.77687e-05 -6.85198e-07 0.083367)
(1.47693e-06 -2.76017e-06 0.0833518)
(-4.01527e-05 1.5881e-06 0.0937655)
(-5.51153e-05 -3.76787e-06 0.102188)
(-9.98162e-05 -1.84657e-05 0.108877)
(-5.58817e-05 -1.4451e-05 0.0954291)
(-9.42438e-05 -5.86666e-05 0.108193)
(-9.94394e-05 -1.83235e-05 0.10894)
(-2.52368e-05 -3.83429e-06 0.0954268)
(-9.8473e-05 -4.09945e-06 0.102185)
(-1.6828e-05 -1.25789e-06 0.0937142)
(-1.81937e-05 1.39591e-06 0.0833677)
(1.10058e-06 3.33434e-06 0.0833518)
(-4.04542e-05 -1.67742e-06 0.093765)
(-9.39863e-05 4.04198e-06 0.102048)
(-9.3741e-05 5.79715e-05 0.108235)
(-2.26387e-05 3.2589e-06 0.095292)
(-9.90751e-05 1.7676e-05 0.109062)
(-5.38209e-05 1.50506e-05 0.0952926)
(-9.93248e-05 1.75056e-05 0.109001)
(-5.15351e-05 3.2402e-06 0.102053)
(-3.7447e-05 1.70019e-06 0.0936215)
(1.45798e-06 -3.63594e-06 0.0832525)
(-1.73422e-05 -5.75733e-07 0.0832647)
(-1.60186e-05 1.4516e-06 0.0935763)
(-9.36605e-05 -3.41518e-06 0.102048)
(-9.37928e-05 -5.88404e-05 0.108234)
(-9.90785e-05 -1.78386e-05 0.109062)
(-2.31314e-05 -2.71915e-06 0.0952917)
(-9.92453e-05 -1.80391e-05 0.109001)
(-5.43107e-05 -1.47442e-05 0.0952909)
(-5.15845e-05 -2.83515e-06 0.102053)
(-3.70882e-05 -1.1437e-06 0.0936217)
(1.3211e-06 3.89099e-06 0.0832516)
(-1.75709e-05 1.09356e-06 0.083265)
(-1.63958e-05 -1.1568e-06 0.0935762)
(-6.62263e-06 -1.73854e-06 0.0720241)
(1.83092e-06 3.42677e-06 0.0720312)
(-2.07195e-06 -6.43142e-06 0.072024)
(3.22896e-06 2.0259e-06 0.072031)
(1.04775e-05 1.0213e-05 0.106829)
(-1.50013e-05 7.28576e-07 0.0890078)
(3.65245e-07 -1.47051e-05 0.0890052)
(-2.56306e-05 -1.1643e-05 0.0890297)
(-1.16137e-05 -2.55873e-05 0.0890283)
(1.5712e-06 3.92101e-06 0.0719624)
(-6.61665e-06 -1.66006e-06 0.0719535)
(3.8651e-06 1.45647e-06 0.0719621)
(-1.99361e-06 -6.40527e-06 0.0719538)
(1.43233e-06 6.59061e-06 0.0718868)
(-3.02945e-06 -2.13527e-06 0.0718972)
(6.44296e-06 1.57346e-06 0.0718861)
(-2.3616e-06 -2.56608e-06 0.071897)
(1.07685e-05 2.45889e-05 0.0889201)
(2.45702e-05 1.05531e-05 0.0889169)
(-1.15485e-05 -1.18269e-05 0.106825)
(-5.17553e-07 1.42861e-05 0.0888992)
(1.39948e-05 -2.45137e-07 0.0888971)
(-2.82016e-06 -2.2061e-06 0.0718354)
(2.61633e-06 5.80182e-06 0.0718237)
(-2.04806e-06 -2.9701e-06 0.0718351)
(5.66915e-06 2.97029e-06 0.071823)
(0.000146994 0.000146679 0.106633)
(3.30372e-07 1.29473e-05 0.0887955)
(1.29386e-05 4.18402e-07 0.0887932)
(1.06953e-05 2.36296e-05 0.0888139)
(2.3242e-05 1.11072e-05 0.0888106)
(-9.40286e-07 1.43441e-05 0.0934455)
(1.38867e-06 1.73437e-05 0.083167)
(-1.72259e-06 3.60631e-05 0.0934844)
(3.67659e-06 -2.07636e-06 0.0831571)
(2.62339e-06 4.81987e-05 0.10192)
(3.97232e-05 0.000154493 0.102389)
(1.75262e-05 9.8431e-05 0.109122)
(5.7637e-05 9.17166e-05 0.108347)
(2.07313e-05 0.000188003 0.105767)
(2.07941e-06 2.20685e-05 0.0951609)
(1.73568e-05 9.81703e-05 0.109181)
(-3.35497e-06 4.82862e-05 0.101919)
(-4.03954e-05 0.000154468 0.10239)
(-1.80348e-05 9.86818e-05 0.109122)
(-5.84011e-05 9.20029e-05 0.108348)
(-2.12347e-05 0.000188528 0.105768)
(-2.2816e-06 2.16909e-05 0.0951596)
(-1.80784e-05 9.83249e-05 0.109181)
(1.41992e-06 3.45581e-05 0.0933548)
(-2.83899e-06 -2.64899e-06 0.0830671)
(-1.03402e-06 1.64601e-05 0.0830729)
(1.04966e-06 1.3167e-05 0.093319)
(-8.13781e-07 3.42973e-05 0.0933544)
(3.69845e-06 -1.79422e-06 0.0830671)
(1.39082e-06 1.63455e-05 0.083074)
(-9.42424e-07 1.30882e-05 0.0933194)
(3.05625e-06 8.66596e-05 0.101779)
(5.66664e-05 9.09304e-05 0.108383)
(2.35006e-06 2.01877e-05 0.0950354)
(1.68865e-05 9.78116e-05 0.109296)
(1.23698e-05 5.07967e-05 0.095032)
(1.71391e-05 9.79899e-05 0.109239)
(2.87896e-06 4.61221e-05 0.101784)
(-2.83276e-06 8.65177e-05 0.101779)
(-5.78731e-05 9.14266e-05 0.108383)
(-1.90153e-06 2.04869e-05 0.0950342)
(-1.74621e-05 9.79112e-05 0.109296)
(-1.26284e-05 5.04355e-05 0.0950305)
(-1.78269e-05 9.80841e-05 0.109239)
(-2.29039e-06 4.58802e-05 0.101784)
(-1.02306e-05 2.43248e-05 0.0889167)
(-2.42157e-05 1.03334e-05 0.0889188)
(1.0888e-05 -1.10153e-05 0.106829)
(5.08738e-07 1.42574e-05 0.0888968)
(-1.43452e-05 -8.00409e-07 0.0888982)
(-6.67493e-06 1.36398e-06 0.0718869)
(1.78971e-06 -3.53253e-06 0.0718973)
(3.27719e-06 -1.88124e-06 0.0718357)
(-1.74687e-06 6.28531e-06 0.0718235)
(-0.000147707 0.000147431 0.106635)
(6.58857e-07 1.33085e-05 0.0887933)
(-1.31005e-05 -1.03563e-07 0.088795)
(-1.05806e-05 2.37803e-05 0.0888103)
(-2.38255e-05 1.04535e-05 0.0888128)
(1.9766e-06 -3.00852e-06 0.071835)
(-6.26601e-06 1.88502e-06 0.0718235)
(4.85098e-05 3.51219e-06 0.101918)
(0.000154707 3.93208e-05 0.102389)
(9.87435e-05 1.76375e-05 0.109122)
(9.20048e-05 5.73143e-05 0.108348)
(0.000188563 2.05947e-05 0.105768)
(2.19916e-05 2.00775e-06 0.0951595)
(9.85647e-05 1.76745e-05 0.109181)
(1.4287e-05 -1.04808e-06 0.0934446)
(1.72373e-05 1.29047e-06 0.0831658)
(3.56232e-05 -1.09828e-06 0.093484)
(-2.47675e-06 3.14905e-06 0.0831566)
(4.8251e-05 -2.14252e-06 0.101918)
(9.85694e-05 -1.77842e-05 0.109122)
(0.000176697 -3.36646e-05 0.104394)
(9.1795e-05 -5.7236e-05 0.108347)
(0.000188673 -2.10428e-05 0.105768)
(9.84002e-05 -1.74025e-05 0.109181)
(2.20697e-05 -2.41995e-06 0.0951601)
(3.44987e-05 1.15102e-06 0.0933538)
(-2.5139e-06 -2.9681e-06 0.0830675)
(1.6193e-05 -5.99799e-07 0.0830731)
(1.30483e-05 8.59554e-07 0.0933173)
(8.6914e-05 3.29148e-06 0.101778)
(9.119e-05 5.64664e-05 0.108383)
(1.99461e-05 2.83088e-06 0.0950343)
(9.81106e-05 1.69891e-05 0.109296)
(5.05986e-05 1.25524e-05 0.0950308)
(9.83871e-05 1.73769e-05 0.109239)
(4.59685e-05 2.15152e-06 0.101781)
(3.44921e-05 -1.09971e-06 0.0933539)
(-1.84998e-06 3.16602e-06 0.0830672)
(1.60426e-05 7.69003e-07 0.0830733)
(1.32471e-05 -1.14029e-06 0.0933176)
(8.67665e-05 -2.22112e-06 0.101779)
(9.13717e-05 -5.65467e-05 0.108382)
(9.81742e-05 -1.69424e-05 0.109296)
(1.98654e-05 -2.45885e-06 0.0950349)
(9.84307e-05 -1.70752e-05 0.109238)
(5.05732e-05 -1.28129e-05 0.0950301)
(4.62851e-05 -2.97472e-06 0.101781)
(-1.42241e-05 1.38414e-06 0.0934438)
(-1.70074e-05 -1.3664e-06 0.083167)
(-3.61607e-05 1.47532e-06 0.093485)
(1.81735e-06 -3.81577e-06 0.0831576)
(-4.86544e-05 -2.99449e-06 0.101916)
(-9.87451e-05 -1.7734e-05 0.109122)
(-5.20477e-05 -1.28017e-05 0.0951588)
(-9.18869e-05 -5.71514e-05 0.108347)
(-9.06205e-05 -3.17829e-06 0.101914)
(-9.84167e-05 -1.74227e-05 0.109181)
(-2.19481e-05 -2.21678e-06 0.0951609)
(-1.403e-05 -1.03568e-06 0.0934433)
(-1.72036e-05 1.39674e-06 0.0831664)
(-3.65935e-05 -1.24948e-06 0.093485)
(2.18613e-06 3.14189e-06 0.0831568)
(-8.65706e-05 3.49348e-06 0.101778)
(-9.15899e-05 5.77272e-05 0.108384)
(-2.03565e-05 2.36063e-06 0.0950356)
(-9.78333e-05 1.75111e-05 0.109296)
(-5.04489e-05 1.24376e-05 0.0950317)
(-9.83423e-05 1.78861e-05 0.109239)
(-4.56246e-05 2.84293e-06 0.101783)
(-3.43091e-05 1.24502e-06 0.0933549)
(1.8827e-06 -3.31471e-06 0.0830673)
(-1.66664e-05 -1.35062e-06 0.0830738)
(-1.32311e-05 8.7516e-07 0.0933185)
(-8.64963e-05 -2.67256e-06 0.101778)
(-9.11553e-05 -5.65291e-05 0.108383)
(-9.78778e-05 -1.68203e-05 0.109296)
(-1.98704e-05 -2.92653e-06 0.0950361)
(-9.82039e-05 -1.6972e-05 0.109239)
(-5.06827e-05 -1.30105e-05 0.0950309)
(-4.55846e-05 -2.243e-06 0.101783)
(-3.40715e-05 -9.98334e-07 0.0933548)
(2.0205e-06 3.22191e-06 0.0830674)
(-1.61445e-05 6.53356e-07 0.0830737)
(-1.32624e-05 -1.10235e-06 0.0933185)
(2.48561e-05 -1.08557e-05 0.0889168)
(1.06532e-05 -2.50025e-05 0.0889186)
(-1.23173e-05 1.23575e-05 0.106825)
(1.41414e-05 -2.90185e-07 0.0888969)
(1.47996e-07 -1.41737e-05 0.0889002)
(1.79777e-06 -6.26014e-06 0.0718867)
(-2.69094e-06 2.24738e-06 0.0718977)
(-1.78971e-06 3.18202e-06 0.0718353)
(5.84493e-06 -2.54004e-06 0.0718231)
(0.000146181 -0.000146186 0.106633)
(1.26789e-05 3.36788e-07 0.0887928)
(-1.93959e-07 -1.27301e-05 0.0887961)
(2.34582e-05 -1.12671e-05 0.0888106)
(1.13383e-05 -2.34662e-05 0.0888128)
(-3.12427e-06 1.91093e-06 0.0718354)
(2.4863e-06 -6.00332e-06 0.0718233)
(-3.02507e-06 -4.88873e-05 0.101917)
(-1.77899e-05 -9.85159e-05 0.109122)
(-3.98377e-05 -0.000154247 0.102388)
(-5.7369e-05 -9.16306e-05 0.108348)
(-2.08846e-05 -0.000188004 0.105766)
(-1.76257e-05 -9.82735e-05 0.109181)
(-2.16301e-06 -2.20426e-05 0.0951602)
(1.13722e-06 -1.43601e-05 0.0934444)
(-1.59647e-06 -1.7228e-05 0.083166)
(1.32244e-06 -3.6296e-05 0.0934849)
(-3.22775e-06 2.10838e-06 0.0831571)
(-1.4291e-06 -1.44619e-05 0.0934443)
(1.42563e-06 -1.72716e-05 0.083167)
(-1.20647e-06 -3.61595e-05 0.093485)
(3.63194e-06 1.90677e-06 0.083157)
(2.87315e-06 -8.68982e-05 0.101777)
(5.67306e-05 -9.0995e-05 0.108383)
(1.71581e-05 -9.74461e-05 0.109296)
(2.72598e-06 -1.99712e-05 0.0950366)
(1.72871e-05 -9.80603e-05 0.109239)
(1.2983e-05 -5.06361e-05 0.0950312)
(2.77891e-06 -4.56955e-05 0.101783)
(-3.23689e-06 -8.69611e-05 0.101777)
(-5.65836e-05 -9.06657e-05 0.108383)
(-1.70059e-05 -9.73318e-05 0.109296)
(-2.91656e-06 -1.99007e-05 0.0950355)
(-1.72604e-05 -9.79061e-05 0.109239)
(-1.27635e-05 -5.0865e-05 0.0950308)
(-2.36624e-06 -4.5583e-05 0.101783)
(1.00489e-06 -3.42541e-05 0.0933543)
(-3.116e-06 1.90604e-06 0.0830673)
(-7.47109e-07 -1.637e-05 0.0830732)
(9.58955e-07 -1.34665e-05 0.0933188)
(-1.29407e-06 -3.43372e-05 0.0933545)
(2.99518e-06 2.06715e-06 0.0830673)
(9.69064e-07 -1.64773e-05 0.0830739)
(-9.30087e-07 -1.33291e-05 0.0933187)
(-6.42213e-06 -1.71855e-06 0.0718866)
(2.37866e-06 2.49869e-06 0.0718978)
(-1.48284e-06 -6.65795e-06 0.0718867)
(2.91718e-06 2.16089e-06 0.0718974)
(-0.000146755 -0.000146503 0.106634)
(-1.27594e-05 7.90036e-09 0.0887956)
(-2.09186e-07 -1.268e-05 0.0887931)
(-2.35712e-05 -1.14427e-05 0.0888119)
(-1.11515e-05 -2.38841e-05 0.0888106)
(1.75749e-06 3.41453e-06 0.0718355)
(-5.81169e-06 -2.75183e-06 0.0718233)
(3.26673e-06 1.85868e-06 0.0718347)
(-2.55998e-06 -5.90834e-06 0.0718234)
(1.87682e-06 6.26463e-06 0.0717632)
(-3.86406e-06 -1.44072e-06 0.0717766)
(6.3447e-06 1.8136e-06 0.0717624)
(-1.52132e-06 -3.72226e-06 0.0717764)
(1.10184e-05 2.21598e-05 0.0887117)
(2.22057e-05 1.09901e-05 0.0887084)
(-1.37728e-05 -1.35948e-05 0.106805)
(-1.4e-06 1.21397e-05 0.0886957)
(1.19695e-05 -1.26634e-06 0.0886939)
(-2.41202e-06 -2.42291e-06 0.0717204)
(1.68224e-06 6.33918e-06 0.0717061)
(-2.51568e-06 -2.35385e-06 0.0717204)
(6.3184e-06 1.70819e-06 0.0717052)
(0.000142391 0.000142454 0.106602)
(-1.13814e-07 1.18889e-05 0.0886022)
(1.19898e-05 -5.78904e-09 0.0886004)
(9.37236e-06 2.16214e-05 0.0886144)
(2.14907e-05 9.54501e-06 0.0886114)
(-8.17356e-07 1.21024e-05 0.0931999)
(1.20142e-06 1.65412e-05 0.0829856)
(-1.08163e-06 3.29492e-05 0.0932303)
(3.51239e-06 -2.16597e-06 0.0829817)
(2.40183e-06 4.22714e-05 0.10165)
(1.29956e-05 4.82264e-05 0.0949095)
(1.68985e-05 9.76003e-05 0.109352)
(5.68648e-05 8.95993e-05 0.108483)
(2.64403e-06 8.35866e-05 0.101644)
(2.01935e-06 1.84543e-05 0.0949146)
(1.71489e-05 9.7112e-05 0.109407)
(-2.50365e-06 4.23834e-05 0.10165)
(-1.22341e-05 4.87113e-05 0.0949078)
(-1.71335e-05 9.75591e-05 0.109352)
(-5.60743e-05 8.90141e-05 0.108482)
(-2.68046e-06 8.35428e-05 0.101644)
(-2.04198e-06 1.86355e-05 0.0949137)
(-1.6951e-05 9.69467e-05 0.109407)
(1.03912e-06 3.17528e-05 0.0931134)
(-3.11505e-06 -2.60535e-06 0.0828996)
(-1.65552e-06 1.64383e-05 0.0829012)
(7.88005e-07 1.10179e-05 0.0930867)
(-7.02747e-07 3.17411e-05 0.0931131)
(3.75534e-06 -2.11008e-06 0.0828998)
(1.33974e-06 1.60877e-05 0.0829017)
(-6.88008e-07 1.09234e-05 0.0930868)
(2.75637e-06 7.93211e-05 0.101513)
(5.6332e-05 8.85421e-05 0.108514)
(1.14115e-06 1.80285e-05 0.0947982)
(1.6846e-05 9.59855e-05 0.109515)
(1.17549e-05 4.68921e-05 0.0947912)
(1.72203e-05 9.6493e-05 0.109462)
(2.34636e-06 3.97732e-05 0.101521)
(-2.29322e-06 7.93244e-05 0.101513)
(-5.61013e-05 8.82858e-05 0.108513)
(-1.03138e-06 1.77274e-05 0.0947984)
(-1.70291e-05 9.61003e-05 0.109515)
(-1.22414e-05 4.68995e-05 0.0947904)
(-1.69392e-05 9.63993e-05 0.109462)
(-2.09215e-06 3.97292e-05 0.101521)
(-1.01913e-05 2.24049e-05 0.088709)
(-2.22148e-05 1.06554e-05 0.0887115)
(1.43335e-05 -1.40959e-05 0.106804)
(4.69194e-07 1.23086e-05 0.0886946)
(-1.23486e-05 -7.82266e-07 0.0886958)
(-6.18764e-06 2.11486e-06 0.0717626)
(1.72992e-06 -3.64304e-06 0.0717764)
(3.21012e-06 -2.00304e-06 0.071721)
(-1.55978e-06 6.31893e-06 0.0717054)
(-0.000141501 0.000141395 0.1066)
(1.11567e-06 1.15458e-05 0.0886004)
(-1.15287e-05 -9.54452e-07 0.0886018)
(-1.02872e-05 2.17285e-05 0.0886119)
(-2.18103e-05 9.93335e-06 0.088614)
(1.88483e-06 -3.28206e-06 0.0717208)
(-6.31066e-06 1.46115e-06 0.0717057)
(4.22474e-05 3.03025e-06 0.101649)
(4.81585e-05 1.32138e-05 0.0949087)
(9.76805e-05 1.70081e-05 0.109352)
(8.94289e-05 5.68149e-05 0.108483)
(8.33498e-05 2.30895e-06 0.101642)
(1.83525e-05 1.93811e-06 0.0949139)
(9.70582e-05 1.72916e-05 0.109407)
(1.196e-05 -1.16414e-06 0.0931995)
(1.64561e-05 8.82513e-07 0.0829853)
(3.30578e-05 -1.12523e-06 0.0932293)
(-2.09573e-06 3.79003e-06 0.0829812)
(4.19217e-05 -1.98936e-06 0.101649)
(9.74971e-05 -1.69005e-05 0.109352)
(4.80755e-05 -1.29259e-05 0.0949075)
(8.90204e-05 -5.6458e-05 0.108482)
(8.35985e-05 -3.03397e-06 0.101643)
(9.67646e-05 -1.6902e-05 0.109407)
(1.87078e-05 -2.28236e-06 0.0949139)
(3.1882e-05 6.60433e-07 0.0931137)
(-2.70902e-06 -3.08354e-06 0.0829002)
(1.63207e-05 -1.53661e-06 0.0829019)
(1.08926e-05 5.58601e-07 0.0930862)
(7.94413e-05 3.10709e-06 0.101512)
(8.82697e-05 5.62907e-05 0.108514)
(1.81359e-05 1.3437e-06 0.094798)
(9.57261e-05 1.67765e-05 0.109515)
(4.66927e-05 1.17851e-05 0.0947907)
(9.63095e-05 1.72506e-05 0.109461)
(3.95331e-05 1.42652e-06 0.10152)
(3.16336e-05 -1.22801e-06 0.0931135)
(-2.55976e-06 2.69354e-06 0.0828995)
(1.61447e-05 1.45395e-06 0.0829006)
(1.10554e-05 -9.37659e-07 0.0930861)
(7.90793e-05 -2.04436e-06 0.101513)
(8.82371e-05 -5.62638e-05 0.108513)
(9.59948e-05 -1.71523e-05 0.109515)
(1.76272e-05 -9.93245e-07 0.0947986)
(9.62732e-05 -1.70107e-05 0.109461)
(4.71148e-05 -1.2155e-05 0.0947895)
(3.98956e-05 -3.09322e-06 0.10152)
(-1.18844e-05 7.83117e-07 0.0931992)
(-1.62875e-05 -9.46614e-07 0.0829853)
(-3.30993e-05 8.60101e-07 0.0932315)
(2.25818e-06 -3.78818e-06 0.0829824)
(-4.24351e-05 -2.91223e-06 0.101649)
(-9.72888e-05 -1.71314e-05 0.109352)
(-4.79017e-05 -1.29685e-05 0.094909)
(-8.90894e-05 -5.6678e-05 0.108483)
(-8.33985e-05 -2.70971e-06 0.101645)
(-9.66895e-05 -1.73175e-05 0.109407)
(-1.85277e-05 -1.56034e-06 0.0949149)
(-1.18893e-05 -9.67071e-07 0.0931989)
(-1.64869e-05 1.126e-06 0.0829858)
(-3.32431e-05 -1.15792e-06 0.0932317)
(1.93803e-06 3.94111e-06 0.0829816)
(-7.95313e-05 2.5441e-06 0.101514)
(-8.86457e-05 5.59167e-05 0.108514)