/*--------------------------------*- C++ -*----------------------------------*\
| =========                 |                                                 |
| \\      /  F ield         | OpenFOAM: The Open Source CFD Toolbox           |
|  \\    /   O peration     | Version:  v2012                                 |
|   \\  /    A nd           | Website:  www.openfoam.com                      |
|    \\/     M anipulation  |                                                 |
\*---------------------------------------------------------------------------*/
FoamFile
{
    version     2.0;
    format      ascii;
    class       volScalarField;
    location    "412.5";
    object      nut;
}
// * * * * * * * * * * * * * * * * * * * * * * * * * * * * * * * * * * * * * //

dimensions      [0 2 -1 0 0 0 0];


internalField   nonuniform List<scalar> 
171728
(
4.33948e-06
1.39461e-05
1.93249e-06
2.29574e-06
4.34555e-06
1.089e-05
1.93887e-06
2.2643e-06
4.39832e-06
3.58492e-06
1.9878e-06
2.20896e-06
4.44876e-06
2.18399e-06
2.06075e-06
2.12964e-06
4.49578e-06
2.02384e-06
2.13648e-06
2.02878e-06
4.5377e-06
1.97875e-06
2.22485e-06
1.92685e-06
4.57915e-06
1.93361e-06
2.29161e-06
1.83223e-06
4.62284e-06
1.87656e-06
2.3087e-06
1.7221e-06
4.66856e-06
1.81361e-06
2.23703e-06
1.64228e-06
4.71408e-06
1.7444e-06
2.0947e-06
1.63662e-06
4.76278e-06
1.66772e-06
1.91314e-06
1.82083e-06
4.81453e-06
1.58096e-06
1.75003e-06
2.16426e-06
4.86657e-06
1.48182e-06
1.58795e-06
2.69742e-06
4.92036e-06
1.38513e-06
1.48049e-06
3.42231e-06
4.97228e-06
1.29062e-06
1.42095e-06
3.44308e-06
5.02296e-06
1.20242e-06
1.30339e-06
2.0931e-06
5.06654e-06
1.0991e-06
1.2068e-06
1.31871e-06
5.10784e-06
1.09254e-06
1.15081e-06
1.25212e-06
5.15013e-06
9.94885e-07
1.15067e-06
1.14992e-06
5.17554e-06
1.26484e-06
1.23865e-06
1.18958e-06
5.18867e-06
1.22936e-06
1.36583e-06
1.57593e-06
5.17794e-06
1.64142e-06
1.72733e-06
2.52618e-06
5.13935e-06
2.1506e-06
2.18237e-06
3.56382e-06
5.06551e-06
2.88276e-06
2.91655e-06
5.06291e-06
4.92012e-06
3.93604e-06
3.92296e-06
8.28864e-06
4.78607e-06
5.26244e-06
5.76061e-06
1.25803e-05
4.58845e-06
6.77193e-06
6.69625e-06
1.80744e-05
4.36399e-06
9.28012e-06
9.35233e-06
2.35716e-05
4.19026e-06
1.16906e-05
1.16966e-05
3.11555e-05
4.04745e-06
1.52373e-05
1.4911e-05
3.8379e-05
3.93455e-06
1.61411e-05
1.79548e-05
4.54495e-05
4.07908e-06
2.41032e-05
2.19094e-05
5.21917e-05
4.10698e-06
2.5524e-05
2.60087e-05
5.85261e-05
4.45168e-06
2.97171e-05
3.161e-05
6.46586e-05
5.08391e-06
3.8222e-05
3.50522e-05
6.96937e-05
5.6741e-06
3.91691e-05
4.25706e-05
7.48164e-05
6.60521e-06
4.82191e-05
4.53626e-05
7.94334e-05
7.74131e-06
5.20697e-05
5.42843e-05
8.34123e-05
9.3993e-06
5.84043e-05
5.82772e-05
8.81524e-05
1.09697e-05
6.55614e-05
6.47732e-05
9.14691e-05
1.37418e-05
7.0661e-05
7.02167e-05
9.57913e-05
1.58542e-05
7.58498e-05
7.79982e-05
9.97454e-05
1.85498e-05
8.39238e-05
8.18903e-05
0.000103294
2.31659e-05
8.99283e-05
9.0562e-05
0.000107644
2.67449e-05
9.2913e-05
9.24837e-05
0.000109446
2.99236e-05
0.000103627
0.000102786
0.000116744
3.87148e-05
0.00010173
0.000105164
0.000118188
3.68236e-05
0.000112859
0.000112555
0.000120264
5.16316e-05
0.000120255
0.000115757
0.000127455
5.03645e-05
0.000116563
0.000123092
0.000126447
6.21992e-05
0.000129034
0.000125034
0.000134327
6.22083e-05
0.000129567
0.000132936
0.000133113
7.88948e-05
0.000137349
0.000132848
0.000140143
7.58113e-05
0.000138819
0.000142056
0.000141425
9.07808e-05
0.000143359
0.000145592
0.000144599
9.19859e-05
0.000145595
0.000144009
0.000146622
0.000107172
0.000157583
0.000154261
0.000152973
0.000107212
0.000153236
0.000157995
0.000152157
0.000104771
0.000156064
0.000154733
0.000155192
0.000129688
0.00017014
0.000167019
0.000160007
0.000134624
0.000166272
0.000170986
0.000162496
0.000129921
0.000162038
0.000166674
0.000160496
0.000132124
0.000179563
0.000173276
0.000166299
0.000153327
0.000185246
0.000181333
0.000170709
0.000157815
0.000178121
0.000183092
0.000170882
0.000155979
0.000180461
0.000183885
0.000171013
0.000160744
0.000188798
0.000180885
0.000174314
0.000172476
0.00018858
0.000192986
0.000177663
0.000174701
0.000195194
0.00019742
0.000178195
0.00018183
0.000196065
0.000194748
0.000183152
0.000187574
0.000194894
0.000193938
0.000181082
0.00018641
0.000199021
0.000199169
0.000181509
0.000196104
0.000205933
0.000206119
0.000187656
0.000204633
0.000206809
0.000206529
0.000187918
0.000203623
0.000204936
0.00020544
0.000188417
0.000205836
0.000208227
0.000205811
0.000187731
0.000211996
0.000210143
0.000212761
0.000191275
0.000216229
0.000215686
0.000215533
0.000194136
0.000223425
0.000215176
0.00021496
0.000192643
0.000223515
0.000214252
0.000213558
0.000194559
0.000222691
0.00021869
0.000219652
0.000196725
0.000231521
0.000220101
0.00022128
0.000195452
0.000232685
0.000218815
0.000217026
0.000195485
0.000231051
0.000220754
0.000219562
0.000196866
0.000236401
0.000222717
0.00022522
0.000198595
0.000243081
0.000225323
0.00022655
0.000200857
0.000244785
0.000226752
0.000223069
0.000200979
0.000237816
0.00021879
0.000217459
0.000192401
0.000240443
0.000225093
0.000227564
0.000199906
0.000260659
0.000239782
0.000241408
0.000213596
0.000262015
0.00023248
0.000231801
0.000205177
0.000225704
0.000201918
0.000201203
0.000177212
0.000216906
0.000198241
0.000197795
0.000176264
0.000260199
0.000240338
0.000240374
0.000209888
0.000307641
0.000270308
0.000270427
0.000237804
2.28922e-06
2.53288e-06
2.43094e-06
2.30914e-06
2.58019e-06
2.53606e-06
4.3774e-06
4.31705e-06
4.35216e-06
3.81589e-06
3.4843e-06
2.63646e-06
2.2962e-06
2.48341e-06
1.87187e-06
2.29122e-06
2.28641e-06
2.27223e-06
2.2948e-06
2.21834e-06
2.258e-06
2.16096e-06
2.27874e-06
2.39945e-06
2.33594e-06
2.29768e-06
2.29675e-06
2.25794e-06
2.30002e-06
1.35158e-05
2.26645e-06
2.29583e-06
2.27557e-06
1.66522e-06
1.93419e-06
1.55385e-06
2.25674e-06
2.2706e-06
2.25695e-06
2.24931e-06
2.15428e-06
2.23078e-06
2.15114e-06
2.33123e-06
2.21998e-06
2.29075e-06
2.24997e-06
2.27704e-06
2.22878e-06
2.26036e-06
4.61722e-06
2.24258e-06
2.27531e-06
2.25694e-06
1.53046e-06
1.97069e-06
1.48445e-06
2.20799e-06
2.25483e-06
2.24499e-06
2.22565e-06
2.1491e-06
2.20881e-06
2.13326e-06
2.19022e-06
2.09112e-06
2.27099e-06
2.22248e-06
2.25394e-06
2.20412e-06
2.23534e-06
2.31855e-06
2.21738e-06
2.25648e-06
2.24594e-06
1.46732e-06
2.04099e-06
1.38968e-06
2.13624e-06
2.24257e-06
2.23555e-06
2.20212e-06
2.12681e-06
2.17992e-06
2.10909e-06
2.0831e-06
2.05994e-06
2.24729e-06
2.19925e-06
2.22517e-06
2.1815e-06
2.20993e-06
2.0396e-06
2.19097e-06
2.24137e-06
2.23782e-06
1.36255e-06
2.11895e-06
1.29933e-06
2.04008e-06
2.233e-06
2.21809e-06
2.17162e-06
2.10025e-06
2.14488e-06
2.08019e-06
2.05403e-06
2.03687e-06
2.21716e-06
2.17495e-06
2.19179e-06
2.15809e-06
2.18464e-06
1.98852e-06
2.16403e-06
2.22994e-06
2.22956e-06
1.28252e-06
2.201e-06
1.23762e-06
1.94135e-06
2.21447e-06
2.18521e-06
2.13388e-06
2.07514e-06
2.10092e-06
2.05387e-06
2.0328e-06
2.02779e-06
2.18109e-06
2.15111e-06
2.15114e-06
2.12547e-06
2.15469e-06
1.94491e-06
2.1153e-06
2.22115e-06
2.21701e-06
1.22523e-06
2.27923e-06
1.19578e-06
1.84755e-06
2.18004e-06
2.14213e-06
2.08937e-06
2.04334e-06
2.05363e-06
1.99704e-06
2.02381e-06
2.01118e-06
2.14056e-06
2.11532e-06
2.10742e-06
2.08605e-06
2.10042e-06
1.89138e-06
2.05132e-06
2.21173e-06
2.19031e-06
1.18477e-06
2.31119e-06
1.16082e-06
1.74339e-06
2.13597e-06
2.09747e-06
2.04155e-06
1.97292e-06
2.00383e-06
1.90201e-06
2.00513e-06
1.96721e-06
2.09532e-06
2.07528e-06
2.0556e-06
2.03494e-06
2.03474e-06
1.82979e-06
1.98103e-06
2.18334e-06
2.1419e-06
1.15514e-06
2.26191e-06
1.14141e-06
1.655e-06
2.0902e-06
2.0476e-06
1.98773e-06
1.88451e-06
1.94078e-06
1.84098e-06
1.95896e-06
1.91764e-06
2.04086e-06
2.02197e-06
1.9882e-06
1.97642e-06
1.96395e-06
1.76118e-06
1.90576e-06
2.13297e-06
2.0814e-06
1.15557e-06
2.13544e-06
1.2042e-06
1.63672e-06
2.03819e-06
1.97965e-06
1.92229e-06
1.82409e-06
1.86772e-06
1.75094e-06
1.90986e-06
1.85958e-06
1.96913e-06
1.95908e-06
1.90439e-06
1.90061e-06
1.88808e-06
1.6875e-06
1.83623e-06
2.07099e-06
2.00631e-06
1.22743e-06
1.96132e-06
1.46843e-06
1.78501e-06
1.96848e-06
1.89604e-06
1.84792e-06
1.72124e-06
1.78027e-06
1.62818e-06
1.85092e-06
1.78593e-06
1.87965e-06
1.87804e-06
1.81011e-06
1.80931e-06
1.82009e-06
1.60048e-06
1.76619e-06
1.99436e-06
1.91368e-06
1.61823e-06
1.78588e-06
2.16286e-06
2.13471e-06
1.8831e-06
1.80321e-06
1.75816e-06
1.59772e-06
1.68426e-06
1.51431e-06
1.7748e-06
1.69092e-06
1.78713e-06
1.78588e-06
1.71324e-06
1.71534e-06
1.74861e-06
1.50381e-06
1.69255e-06
1.90066e-06
1.8133e-06
2.43889e-06
1.63158e-06
4.04101e-06
2.616e-06
1.78691e-06
1.70124e-06
1.6583e-06
1.48454e-06
1.58235e-06
1.39578e-06
1.67593e-06
1.58815e-06
1.68763e-06
1.68859e-06
1.60666e-06
1.60753e-06
1.6779e-06
1.40711e-06
1.64322e-06
1.7975e-06
1.70601e-06
4.86079e-06
1.50094e-06
7.49231e-06
3.36737e-06
1.68088e-06
1.59526e-06
1.5548e-06
1.36641e-06
1.47227e-06
1.28746e-06
1.56921e-06
1.47769e-06
1.5787e-06
1.57847e-06
1.49696e-06
1.49372e-06
1.62709e-06
1.30824e-06
1.55981e-06
1.68599e-06
1.59581e-06
8.13339e-06
1.44124e-06
9.0328e-06
3.53369e-06
1.56974e-06
1.4813e-06
1.44515e-06
1.25895e-06
1.36521e-06
1.17727e-06
1.45413e-06
1.37254e-06
1.46939e-06
1.46541e-06
1.38828e-06
1.37858e-06
1.52725e-06
1.21075e-06
1.4041e-06
1.56922e-06
1.4753e-06
9.04394e-06
1.33431e-06
5.87395e-06
2.18195e-06
1.45497e-06
1.36145e-06
1.33923e-06
1.16254e-06
1.2666e-06
1.08189e-06
1.3547e-06
1.22307e-06
1.36265e-06
1.3518e-06
1.29111e-06
1.27671e-06
1.37589e-06
1.09765e-06
1.24729e-06
1.44336e-06
1.36281e-06
4.7266e-06
1.22676e-06
2.28773e-06
1.38342e-06
1.33892e-06
1.2752e-06
1.24856e-06
1.08915e-06
1.20432e-06
1.05322e-06
1.215e-06
1.20762e-06
1.27306e-06
1.25747e-06
1.22433e-06
1.20617e-06
1.21021e-06
1.08149e-06
1.20656e-06
1.33374e-06
1.27987e-06
1.83075e-06
1.16544e-06
1.22546e-06
1.29178e-06
1.26873e-06
1.22688e-06
1.2088e-06
1.08213e-06
1.15838e-06
1.04253e-06
1.2232e-06
1.14098e-06
1.22199e-06
1.18569e-06
1.18106e-06
1.19576e-06
1.17856e-06
1.0345e-06
1.16664e-06
1.26343e-06
1.26357e-06
1.16633e-06
1.15671e-06
1.05676e-06
1.14381e-06
1.22246e-06
1.33658e-06
1.19735e-06
9.79387e-07
1.19966e-06
1.2623e-06
1.04944e-06
1.71179e-06
1.21619e-06
1.19051e-06
1.20018e-06
1.22021e-06
1.18855e-06
1.24257e-06
1.19426e-06
1.29323e-06
1.28036e-06
1.03346e-06
1.19382e-06
9.49253e-07
1.17765e-06
1.26629e-06
1.96989e-06
1.17201e-06
1.32271e-06
1.46075e-06
1.1838e-06
1.83995e-06
1.34667e-06
1.17887e-06
1.26607e-06
1.46872e-06
1.35355e-06
1.24322e-06
1.17125e-06
1.34055e-06
1.39383e-06
1.58104e-06
9.73996e-07
1.32003e-06
1.1096e-06
1.55923e-06
1.99981e-06
2.31321e-06
1.43253e-06
1.15482e-06
1.74916e-06
1.5164e-06
1.2699e-06
2.30325e-06
1.44247e-06
1.40181e-06
1.75778e-06
1.67931e-06
1.38259e-06
1.54666e-06
1.68354e-06
1.65967e-06
2.32828e-06
1.17702e-06
1.64948e-06
1.48352e-06
2.33542e-06
2.79458e-06
2.53556e-06
1.82573e-06
1.62038e-06
1.95467e-06
1.98906e-06
2.4638e-06
3.39216e-06
1.82619e-06
1.75631e-06
1.99125e-06
2.08318e-06
1.72454e-06
2.00761e-06
2.10867e-06
2.64996e-06
3.14699e-06
1.50955e-06
2.04815e-06
1.96743e-06
3.04768e-06
3.01824e-06
5.62258e-06
2.35777e-06
2.14272e-06
2.66319e-06
2.68185e-06
3.59963e-06
5.14203e-06
2.34556e-06
2.24215e-06
2.71274e-06
2.72825e-06
2.30772e-06
2.65886e-06
2.73916e-06
3.654e-06
4.97174e-06
2.16337e-06
2.74542e-06
2.55659e-06
4.84151e-06
5.39924e-06
8.63371e-06
2.9291e-06
2.88031e-06
3.76093e-06
3.62047e-06
5.41093e-06
7.98438e-06
2.97614e-06
2.92278e-06
3.74478e-06
3.81783e-06
3.00095e-06
3.61554e-06
3.64883e-06
5.68523e-06
7.51218e-06
2.85e-06
3.75534e-06
3.56581e-06
8.00163e-06
9.01882e-06
1.05616e-05
3.83728e-06
3.96081e-06
4.97119e-06
4.90414e-06
8.37087e-06
1.22029e-05
3.79294e-06
3.94507e-06
5.00469e-06
5.25288e-06
3.97837e-06
4.79024e-06
4.91795e-06
8.63359e-06
1.08937e-05
3.84478e-06
5.21588e-06
4.7896e-06
1.17752e-05
1.20945e-05
1.77125e-05
5.49322e-06
5.33124e-06
6.69484e-06
6.52073e-06
1.28849e-05
1.71007e-05
5.58179e-06
5.84262e-06
6.65579e-06
5.93789e-06
5.30617e-06
6.43869e-06
6.72443e-06
1.18792e-05
1.59686e-05
5.1664e-06
5.88933e-06
6.58308e-06
1.69086e-05
1.81025e-05
2.22377e-05
7.14498e-06
6.95278e-06
8.4135e-06
9.08301e-06
1.87187e-05
2.23373e-05
7.06971e-06
6.61135e-06
8.46303e-06
9.64609e-06
7.15417e-06
9.01953e-06
8.50724e-06
1.51223e-05
2.74952e-05
7.01688e-06
9.46834e-06
8.44412e-06
2.23745e-05
2.36261e-05
2.99274e-05
9.06684e-06
9.36164e-06
1.1207e-05
1.05522e-05
2.4014e-05
2.84953e-05
9.08996e-06
9.56854e-06
1.11598e-05
9.57141e-06
9.12522e-06
1.02882e-05
1.10864e-05
2.81861e-05
2.39234e-05
9.06061e-06
9.77928e-06
1.09423e-05
2.97618e-05
3.1448e-05
3.68343e-05
1.17854e-05
1.1988e-05
1.38744e-05
1.56482e-05
2.97497e-05
4.03876e-05
1.17718e-05
1.1444e-05
1.38068e-05
1.50887e-05
1.17585e-05
1.52469e-05
1.39712e-05
2.55796e-05
4.24485e-05
1.1611e-05
1.49029e-05
1.3915e-05
3.70449e-05
3.80803e-05
4.40565e-05
1.47156e-05
1.56354e-05
1.72764e-05
1.52041e-05
4.13154e-05
3.86902e-05
1.46866e-05
1.51909e-05
1.73925e-05
1.68108e-05
1.47341e-05
1.45005e-05
1.72941e-05
4.31061e-05
4.16411e-05
1.45948e-05
1.68071e-05
1.7211e-05
4.38763e-05
4.56426e-05
5.05711e-05
1.8001e-05
1.72135e-05
2.1189e-05
2.46068e-05
3.95754e-05
5.59357e-05
1.80325e-05
1.79736e-05
2.0914e-05
2.06688e-05
1.81959e-05
2.34618e-05
2.11375e-05
4.2761e-05
5.12707e-05
1.80166e-05
2.06303e-05
2.09735e-05
5.07207e-05
5.20418e-05
5.76549e-05
2.25439e-05
2.5247e-05
2.50343e-05
2.51678e-05
5.86469e-05
5.71915e-05
2.22902e-05
2.19576e-05
2.51261e-05
2.56138e-05
2.2275e-05
2.46623e-05
2.5162e-05
5.28461e-05
5.74721e-05
2.20327e-05
2.5508e-05
2.50524e-05
5.73841e-05
5.86299e-05
6.29621e-05
2.58804e-05
2.58041e-05
2.96959e-05
2.84954e-05
5.69412e-05
6.16158e-05
2.60136e-05
2.61403e-05
2.97033e-05
2.98866e-05
2.61357e-05
2.8279e-05
3.02616e-05
5.88507e-05
6.29625e-05
2.58881e-05
2.98952e-05
3.02047e-05
6.33843e-05
6.43686e-05
6.90793e-05
3.09887e-05
3.00191e-05
3.53019e-05
3.71646e-05
6.31837e-05
7.08716e-05
3.09848e-05
3.16148e-05
3.50637e-05
3.42831e-05
3.13985e-05
3.68078e-05
3.43778e-05
6.41894e-05
6.873e-05
3.11861e-05
3.39648e-05
3.43993e-05
6.84729e-05
7.02574e-05
7.32772e-05
3.6543e-05
3.84906e-05
3.971e-05
3.81982e-05
7.20116e-05
7.2295e-05
3.62345e-05
3.53068e-05
3.97957e-05
4.10709e-05
3.618e-05
3.80822e-05
4.00523e-05
6.98916e-05
7.37067e-05
3.62006e-05
4.10776e-05
3.99529e-05
7.39091e-05
7.42323e-05
7.85532e-05
4.10647e-05
3.92805e-05
4.56572e-05
4.67919e-05
7.28756e-05
7.88354e-05
4.12429e-05
4.24374e-05
4.54632e-05
4.46081e-05
4.08488e-05
4.66538e-05
4.64657e-05
7.48027e-05
7.78698e-05
4.09012e-05
4.43416e-05
4.60971e-05
7.82893e-05
7.96323e-05
8.26019e-05
4.72821e-05
4.83067e-05
5.14556e-05
5.03157e-05
8.01394e-05
8.24747e-05
4.70664e-05
4.5739e-05
5.14215e-05
5.18561e-05
4.75905e-05
5.05343e-05
5.09079e-05
7.86619e-05
8.31688e-05
4.7113e-05
5.17299e-05
5.10818e-05
8.24516e-05
8.35379e-05
8.67718e-05
5.26258e-05
5.18884e-05
5.70599e-05
5.72557e-05
8.32575e-05
8.67477e-05
5.25283e-05
5.44609e-05
5.71599e-05
5.78046e-05
5.3336e-05
5.70236e-05
5.65118e-05
8.47142e-05
8.71698e-05
5.29556e-05
5.80805e-05
5.71876e-05
8.72182e-05
8.7758e-05
9.0937e-05
5.89539e-05
5.86809e-05
6.34375e-05
6.37089e-05
8.77624e-05
9.11749e-05
5.91005e-05
5.82093e-05
6.30863e-05
6.28626e-05
5.84171e-05
6.39169e-05
6.43299e-05
8.75743e-05
9.02183e-05
5.90585e-05
6.24638e-05
6.37243e-05
9.08111e-05
9.16892e-05
9.47836e-05
6.44434e-05
6.51568e-05
6.9382e-05
6.92481e-05
9.21075e-05
9.47787e-05
6.41887e-05
6.48763e-05
6.96935e-05
6.88734e-05
6.41509e-05
6.86642e-05
6.87883e-05
9.14059e-05
9.49567e-05
6.42595e-05
6.8849e-05
6.87194e-05
9.45456e-05
9.58532e-05
9.88631e-05
7.14089e-05
7.14157e-05
7.57303e-05
7.51286e-05
9.55483e-05
9.83094e-05
7.13769e-05
7.05949e-05
7.53813e-05
7.66271e-05
7.18747e-05
7.57857e-05
7.61012e-05
9.57668e-05
9.91079e-05
7.14679e-05
7.67872e-05
7.6118e-05
9.92063e-05
9.95308e-05
0.000102326
7.68453e-05
7.51318e-05
8.11147e-05
8.11056e-05
9.89653e-05
0.000102503
7.70349e-05
7.74806e-05
8.10912e-05
8.08039e-05
7.69129e-05
8.02782e-05
8.07613e-05
9.98892e-05
0.00010194
7.67665e-05
7.99693e-05
8.1502e-05
0.000102247
0.000103249
0.000106749
8.29685e-05
8.47777e-05
8.81017e-05
8.96327e-05
0.000103816
0.000107011
8.23376e-05
8.27019e-05
8.80963e-05
8.80908e-05
8.28316e-05
9.02998e-05
8.90665e-05
0.000102723
0.000107287
8.30245e-05
8.88626e-05
8.84762e-05
0.000107102
0.000107486
0.000109894
8.92858e-05
8.89646e-05
9.33046e-05
8.97224e-05
0.000107198
0.000109053
8.9973e-05
9.03014e-05
9.33603e-05
9.32112e-05
9.03063e-05
8.88336e-05
9.12764e-05
0.000108134
0.000109444
9.05739e-05
9.23717e-05
9.17745e-05
0.000108858
0.00011045
0.000113846
9.44813e-05
9.46499e-05
9.86696e-05
0.000103375
0.000110802
0.000115665
9.3655e-05
9.28901e-05
9.82206e-05
9.8622e-05
9.18241e-05
0.00010315
0.000100492
0.000109749
0.000114133
9.18169e-05
9.94356e-05
9.99153e-05
0.000115203
0.000115086
0.000118389
0.000101368
0.000103378
0.000106206
0.000100736
0.000115563
0.000114513
0.000101546
0.000102237
0.000107036
0.000106824
0.000103999
0.000101484
0.000106881
0.000115635
0.00011836
0.000103714
0.000105894
0.000107817
0.000118474
0.00011841
0.000119259
0.000105807
0.000100897
0.000107106
0.000110429
0.000115351
0.000122962
0.000106611
0.000106207
0.000105883
0.000107404
0.000106027
0.000109862
0.000104869
0.000118287
0.000119947
0.000107119
0.000108733
0.000104646
0.000118437
0.000120804
0.000127128
0.000110981
0.000113641
0.000118734
0.00011994
0.000124077
0.000127436
0.000109956
0.000111662
0.000118601
0.000117019
0.000109581
0.000119886
0.00011897
0.000121779
0.000125731
0.000107872
0.000116373
0.000119382
0.000127421
0.000127165
0.000125676
0.000118791
0.000119979
0.000117048
0.000117153
0.000127608
0.000125384
0.000118685
0.000116496
0.000117158
0.00011801
0.00011911
0.000117791
0.000117264
0.000125512
0.000127209
0.000119834
0.000119733
0.000117509
0.000125815
0.000126641
0.000133024
0.000119191
0.000115954
0.000126586
0.000126371
0.000124819
0.000133547
0.000119747
0.000122196
0.000126402
0.000126935
0.000118817
0.00012546
0.00012718
0.000129411
0.000132845
0.000117322
0.00012555
0.000127794
0.000134035
0.00013295
0.000133232
0.00012648
0.000129726
0.000127457
0.00013062
0.000135067
0.000134802
0.000126104
0.000126466
0.000127457
0.000129645
0.000127753
0.00013028
0.000127231
0.000132585
0.000135131
0.000129146
0.000130477
0.000128236
0.000132974
0.000135329
0.000140127
0.000131255
0.000129868
0.00013686
0.00013479
0.000134323
0.00013944
0.000131542
0.000131965
0.000137032
0.000132729
0.000128302
0.000135156
0.000135421
0.000136683
0.00013705
0.000128209
0.000133619
0.000134402
0.000139231
0.000139873
0.00013768
0.000136583
0.000136108
0.000134791
0.000138354
0.00014057
0.000140934
0.000136686
0.00013222
0.000134413
0.000139314
0.000137225
0.000137759
0.000138385
0.000136618
0.000142326
0.000136014
0.000137735
0.000138399
0.000141268
0.000139146
0.000146006
0.000137076
0.000140329
0.000145008
0.000143436
0.000141213
0.00014428
0.000135877
0.000142577
0.000145268
0.000145122
0.000138989
0.000143413
0.000143261
0.000144328
0.000145706
0.000138948
0.000146064
0.000142961
0.000143896
0.000145979
0.00014634
0.000145096
0.000143074
0.000144717
0.000142843
0.000144121
0.000144348
0.000145648
0.000144565
0.000145291
0.000142705
0.000144056
0.000142634
0.000144404
0.000145348
0.00014376
0.000144749
0.000143557
0.000146275
0.000146378
0.00014792
0.000152947
0.000147628
0.000146675
0.000154567
0.000156432
0.000146242
0.000155361
0.000147849
0.000144984
0.000154505
0.000153587
0.000145926
0.000156727
0.000154673
0.000145058
0.000152352
0.000146081
0.000151524
0.000151263
0.000151835
0.000152748
0.000147626
0.000154578
0.000156918
0.000152176
0.000153721
0.000155516
0.000148625
0.000154464
0.00015516
0.000151945
0.000156195
0.000156281
0.00015485
0.000155777
0.000153094
0.000153675
0.000154134
0.000158224
0.000157404
0.000152581
0.000146997
0.000156225
0.000151262
0.000152256
0.000156474
0.000151317
0.000147802
0.000152133
0.000151018
0.000155762
0.000155904
0.00015378
0.000154805
0.000151484
0.000154061
0.000153457
0.000151379
0.000157024
0.000155581
0.000155525
0.000152981
0.000158761
0.000162747
0.000161131
0.000157184
0.000168117
0.000170327
0.000155904
0.000165651
0.000161185
0.000154505
0.0001687
0.000165416
0.000158315
0.000169337
0.000165858
0.000151479
0.000160533
0.000157178
0.000162941
0.000162953
0.000160054
0.000162659
0.000161165
0.000168741
0.000171091
0.000168267
0.000168978
0.000165554
0.000159414
0.000168981
0.000168205
0.000168176
0.000170662
0.000165954
0.000168254
0.000168113
0.000162397
0.000164406
0.000164055
0.000171213
0.000169195
0.000161935
0.000160928
0.000157867
0.000167765
0.000166561
0.000165018
0.000162484
0.000158642
0.000154452
0.000167571
0.000170371
0.00016535
0.000166982
0.000169096
0.000162782
0.000168563
0.000163943
0.000158709
0.000169993
0.000167474
0.000169116
0.000160965
0.000157393
0.000165743
0.00016426
0.000161644
0.000171228
0.000174099
0.000154882
0.000170309
0.000164673
0.000166177
0.000171077
0.000168629
0.000167799
0.000174176
0.000168374
0.0001582
0.000164284
0.000168328
0.000168862
0.000169043
0.000164087
0.000167825
0.000171734
0.00017557
0.000179792
0.00018237
0.00018556
0.000172901
0.000175702
0.000175017
0.000173217
0.000181583
0.000181111
0.000172954
0.000185287
0.000181169
0.000166429
0.000170809
0.000173416
0.000180717
0.000180532
0.0001708
0.000171639
0.000170817
0.000182795
0.000185489
0.000182259
0.0001794
0.000174818
0.000166291
0.000182056
0.00018185
0.000181648
0.000181915
0.0001819
0.000179424
0.000181907
0.000170863
0.000171862
0.000180959
0.000182037
0.000180698
0.000170596
0.000170685
0.00017022
0.000181681
0.000178078
0.000180227
0.000177214
0.000165698
0.000168956
0.000181511
0.000182418
0.000181344
0.000183819
0.000181836
0.000177402
0.000181048
0.000172343
0.000172655
0.000181319
0.000184163
0.000183168
0.0001713
0.000169992
0.000174556
0.00017994
0.000180075
0.000186293
0.000188125
0.000170854
0.00017645
0.000181117
0.000183617
0.000184197
0.000181658
0.000180661
0.000188059
0.000184855
0.000172316
0.00016948
0.000182986
0.000181494
0.000182523
0.000173083
0.000175694
0.000177383
0.000188457
0.000189068
0.000190699
0.000189102
0.00017643
0.000175481
0.000186526
0.000181138
0.000191254
0.000189805
0.000187319
0.000188594
0.000190985
0.000169317
0.000177978
0.000184277
0.000189298
0.000191035
0.000177777
0.000177146
0.000177368
0.000190549
0.000189057
0.000189836
0.00019266
0.000175473
0.000180679
0.000191648
0.000193187
0.000191469
0.000196928
0.000191064
0.000193486
0.000190565
0.000179726
0.000183464
0.000191921
0.000197274
0.000192063
0.000177597
0.000178105
0.00018271
0.000190701
0.000194234
0.000197261
0.000195889
0.000181337
0.000180737
0.000191873
0.000197019
0.000196754
0.000195107
0.000191471
0.00019638
0.000197807
0.000183307
0.000179686
0.00019226
0.000195415
0.000196991
0.000183083
0.000182723
0.00018089
0.000197878
0.000195729
0.000197386
0.000194872
0.000180374
0.000179015
0.000197464
0.000194551
0.000197239
0.000193717
0.00019837
0.000194928
0.000197846
0.000179284
0.00017838
0.000197826
0.00019375
0.000197792
0.000181404
0.00018055
0.000181544
0.000196865
0.000194941
0.000196249
0.00019837
0.000179329
0.000183299
0.000196804
0.000194071
0.000196335
0.000198016
0.000197257
0.000197904
0.000196267
0.000178767
0.000182788
0.000197291
0.000197341
0.000196354
0.000181032
0.000182519
0.000187696
0.000197622
0.000199539
0.000204516
0.000204516
0.000183696
0.00018769
0.000197976
0.000199858
0.000204196
0.000204693
0.000196475
0.000204355
0.000203453
0.000183617
0.000188059
0.000196696
0.00020501
0.000203416
0.000187046
0.000188079
0.000188473
0.00020586
0.00020595
0.00020697
0.000207083
0.000188404
0.00018868
0.000205444
0.000205668
0.000206636
0.000206496
0.000205265
0.000207187
0.000206768
0.000188413
0.000188324
0.000204961
0.000206763
0.00020646
0.000188122
0.000188165
0.00018603
0.000206761
0.000206716
0.000204798
0.000204926
0.000188121
0.000186202
0.000206578
0.000206482
0.000205066
0.000205298
0.000206654
0.000205071
0.000206121
0.000188078
0.000186802
0.000206456
0.000205641
0.000206951
0.00018834
0.000185785
0.00018995
0.000204512
0.000204765
0.000207831
0.000207545
0.000186345
0.000189088
0.000204779
0.000204973
0.000207393
0.000205285
0.000206211
0.000207541
0.00020744
0.000186558
0.00018709
0.000207093
0.000205054
0.000206667
0.000188053
0.000190426
0.000190486
0.000209279
0.000208368
0.000210324
0.000208979
0.000189105
0.000189367
0.000209121
0.000207347
0.000210768
0.000211225
0.00020745
0.00020889
0.000208575
0.000187785
0.000191992
0.00020639
0.000211275
0.000209179
0.000190198
0.00019018
0.000192668
0.000210259
0.00020984
0.000212396
0.000214777
0.000189971
0.000195177
0.000210773
0.000211814
0.00021239
0.000214581
0.000210354
0.000214982
0.00021448
0.000192373
0.000194346
0.000211628
0.000215221
0.000214841
0.000194285
0.00019348
0.000195154
0.000214176
0.000215591
0.000216347
0.00021608
0.000195288
0.000193818
0.000214116
0.000215376
0.000216392
0.000216342
0.00021496
0.000215903
0.000214941
0.000194527
0.00019463
0.000215008
0.000215726
0.000214503
0.000192906
0.000194913
0.00019357
0.00021648
0.000215395
0.00021552
0.000214364
0.000193335
0.000192231
0.000216555
0.00021594
0.00021529
0.000213816
0.000214723
0.00021428
0.000214783
0.000194032
0.000191464
0.000214394
0.000213691
0.000214873
0.00019395
0.000193341
0.000193805
0.0002153
0.000214293
0.000215339
0.000216836
0.000192352
0.000195894
0.000214953
0.000213628
0.000214904
0.000216817
0.000215671
0.000217619
0.000218616
0.000191161
0.000196505
0.000216174
0.000218204
0.00021875
0.000196924
0.000194319
0.000198136
0.000216359
0.000218119
0.000220236
0.000220101
0.000196339
0.000197379
0.000216233
0.00021889
0.000220727
0.000221591
0.000218904
0.000220013
0.000218863
0.000197317
0.000199135
0.000218984
0.000221436
0.000218827
0.000195619
0.000198156
0.000196059
0.000220755
0.000220321
0.000220179
0.00021944
0.000197145
0.000195647
0.000221276
0.000221806
0.000220105
0.000218134
0.000218766
0.000218958
0.000218629
0.00019848
0.000193687
0.000218676
0.000217531
0.000218306
0.000195614
0.000195488
0.000194926
0.000219223
0.000219103
0.000218438
0.000219254
0.000195403
0.000196704
0.00021894
0.00021728
0.000217969
0.000216915
0.000218618
0.000219609
0.00021935
0.000193168
0.000194831
0.000218252
0.000217369
0.00021912
0.000196404
0.000195335
0.000198862
0.000218654
0.000220074
0.00022224
0.000222252
0.000197151
0.000198379
0.0002182
0.000218279
0.000222478
0.000224057
0.000220482
0.000222552
0.000222467
0.000195967
0.000200663
0.000220533
0.000224532
0.000223152
0.000198654
0.000199112
0.000200801
0.000223187
0.00022249
0.000225366
0.000224476
0.00019821
0.0001999
0.000223585
0.000225075
0.000225805
0.000226514
0.000222738
0.000224293
0.00022491
0.000200737
0.000201658
0.000223514
0.000226209
0.000225127
0.000200376
0.000201056
0.000202128
0.000225907
0.000225382
0.000227293
0.000227155
0.000200523
0.000202621
0.000226313
0.000226908
0.000227494
0.000226098
0.000225723
0.000227228
0.000227416
0.000201659
0.000199716
0.000225678
0.000225597
0.000227027
0.000202416
0.000200715
0.000193391
0.000226399
0.000226633
0.00021956
0.000219573
0.000201294
0.000193378
0.000225892
0.000223314
0.000219093
0.000217725
0.000226714
0.00021955
0.000219338
0.000198188
0.000191834
0.000225843
0.000217812
0.000218957
0.000193097
0.000192734
0.00019769
0.000218905
0.000218844
0.000220354
0.000220062
0.000192667
0.000197341
0.000218518
0.000217354
0.000220481
0.000221444
0.000218595
0.000219921
0.000219864
0.00019123
0.000199054
0.000218357
0.000221705
0.000220308
0.000197454
0.000200051
0.000212588
0.000225542
0.000225246
0.000237692
0.000237731
0.000199763
0.000212726
0.00022591
0.000227317
0.000238034
0.000239351
0.000225166
0.000237718
0.00023781
0.000201616
0.000214212
0.000225891
0.000239525
0.000238309
0.000212885
0.000213285
0.00020968
0.000239688
0.000239775
0.000240695
0.000240709
0.000213434
0.000209633
0.000240014
0.00024125
0.000240826
0.000240957
0.000239872
0.000240787
0.000240904
0.000214832
0.000209486
0.000240319
0.000240964
0.000240967
0.00020978
0.000205145
0.00017992
0.000232513
0.000232371
0.000206721
0.000206454
0.000205036
0.000179628
0.000232454
0.000231851
0.000206607
0.000205793
0.000232612
0.000206502
0.000206566
0.000204699
0.000178993
0.000232378
0.000205737
0.000206356
0.000179694
0.000177441
0.000173583
0.000202122
0.000201879
0.000196937
0.000196723
0.000177161
0.00017351
0.000202005
0.000201247
0.000196821
0.000196143
0.000201942
0.00019675
0.000196743
0.000176538
0.00017313
0.000201754
0.000196109
0.000196582
0.00017341
0.000176376
0.000205359
0.000198314
0.000198222
0.000229883
0.000230102
0.000176391
0.000205625
0.000198218
0.000197797
0.000229862
0.000230064
0.000198165
0.000230138
0.000229953
0.000176123
0.000205596
0.000198068
0.00023014
0.000229986
0.000205444
0.000209791
0.000232775
0.000240045
0.000240296
0.000266795
0.000267019
0.000210069
0.000232996
0.000240034
0.000240298
0.000266823
0.000267115
0.000240157
0.000267081
0.000266949
0.000210058
0.000233075
0.000240194
0.000267187
0.000266992
0.000232908
0.000237671
0.000270047
0.000270254
0.00023788
0.000270078
0.000270371
0.000307853
0.000308071
0.000307846
0.000270202
0.00023797
0.000270239
1.76331e-05
2.30823e-06
1.01388e-05
1.02316e-05
6.13032e-07
6.16969e-06
3.43315e-06
4.62225e-06
7.97589e-07
2.31961e-06
4.84616e-06
9.50457e-07
2.3034e-06
1.85979e-06
2.42044e-05
1.03158e-06
1.35245e-05
1.01609e-06
1.5308e-05
1.08492e-05
1.30547e-05
1.31724e-06
1.35107e-05
1.25172e-06
1.52966e-05
4.35002e-06
4.30631e-06
3.77288e-06
4.33309e-06
4.35087e-06
4.29357e-06
3.75121e-06
6.84277e-07
3.21247e-06
4.70987e-06
1.57412e-05
6.62943e-07
4.07758e-06
4.2951e-06
1.09554e-05
1.3198e-05
7.70033e-07
2.05627e-06
4.8113e-07
1.92792e-06
7.74733e-07
2.03847e-06
6.0946e-07
1.5206e-06
3.2069e-06
2.27229e-06
1.73867e-06
2.54233e-06
1.27408e-06
1.85488e-05
1.13657e-06
2.09282e-05
1.71024e-05
1.92574e-05
1.55081e-06
1.85505e-05
1.41259e-06
2.09232e-05
4.30982e-06
4.30559e-06
3.75646e-06
4.38543e-06
4.24064e-06
4.34601e-06