/*--------------------------------*- C++ -*----------------------------------*\
| =========                 |                                                 |
| \\      /  F ield         | OpenFOAM: The Open Source CFD Toolbox           |
|  \\    /   O peration     | Version:  v2006                                 |
|   \\  /    A nd           | Website:  www.openfoam.com                      |
|    \\/     M anipulation  |                                                 |
\*---------------------------------------------------------------------------*/
FoamFile
{
    version     2.0;
    format      ascii;
    class       volScalarField;
    location    "1000";
    object      epsilon;
}
// * * * * * * * * * * * * * * * * * * * * * * * * * * * * * * * * * * * * * //

dimensions      [0 2 -3 0 0 0 0];


internalField   nonuniform List<scalar> 
14404
(
1.19085e-06
1.19059e-06
1.42298e-06
6.61432e-07
1.91032e-05
3.65161e-06
9.57392e-06
4.24085e-06
9.38235e-07
3.65188e-06
2.29884e-06
5.65746e-06
5.65592e-06
1.91018e-05
9.5742e-06
7.24648e-06
2.27774e-05
1.12502e-05
4.88661e-06
1.26628e-05
2.98078e-06
9.94622e-06
4.71539e-06
4.70872e-06
2.97974e-06
9.94156e-06
5.65559e-06
2.97952e-06
4.70959e-06
9.94146e-06
2.24182e-05
2.24189e-05
9.97704e-06
1.91028e-05
9.57466e-06
7.24762e-06
2.83298e-06
1.97378e-06
1.9737e-06
1.42155e-06
1.97304e-06
2.83343e-06
1.97313e-06
4.51952e-07
1.84822e-06
2.22876e-06
3.65125e-06
2.22828e-06
3.02641e-06
2.22887e-06
3.02647e-06
1.84919e-06
1.54836e-06
2.5443e-06
1.67005e-06
4.23998e-06
9.57131e-06
9.57348e-06
1.90925e-05
1.90976e-05
1.42223e-06
5.65007e-06
5.65278e-06
2.29874e-06
1.19185e-06
3.64973e-06
9.39724e-07
1.19163e-06
3.65054e-06
1.26633e-05
4.24039e-06
1.12533e-05
4.88524e-06
1.12522e-05
4.8859e-06
1.26639e-05
2.27726e-05
7.24524e-06
9.57181e-06
7.2466e-06
2.27732e-05
9.5737e-06
1.91043e-05
1.90942e-05
1.90989e-05
9.95942e-06
2.2379e-05
2.23795e-05
2.2385e-05
2.23856e-05
9.95108e-06
4.70609e-06
9.9319e-06
5.65318e-06
2.97776e-06
9.93517e-06
4.70315e-06
2.9788e-06
4.71219e-06
9.9382e-06
5.65546e-06
2.97908e-06
9.94105e-06
4.70926e-06
2.98004e-06
2.27803e-05
9.57443e-06
7.24619e-06
1.26647e-05
4.24068e-06
1.12522e-05
4.88631e-06
4.71446e-06
5.65695e-06
9.94599e-06
2.98052e-06
9.9724e-06
2.24148e-05
2.24156e-05
2.83254e-06
1.42373e-06
1.9729e-06
1.97311e-06
2.83142e-06
1.97371e-06
1.97391e-06
1.67074e-06
2.29904e-06
2.54391e-06
1.54819e-06
2.5443e-06
1.54911e-06
1.6693e-06
1.84979e-06
3.02543e-06
3.65075e-06
2.22781e-06
3.0264e-06
2.22856e-06
1.84848e-06
3.65138e-06
2.22816e-06
2.22885e-06
1.84803e-06
3.65149e-06
3.02604e-06
2.22839e-06
1.6687e-06
2.29876e-06
1.54751e-06
2.54407e-06
1.38375e-06
1.14837e-06
1.14832e-06
1.38687e-06
1.15069e-06
5.92465e-07
9.46956e-06
1.89097e-05
1.88938e-05
1.8912e-05
1.88965e-05
1.383e-06
5.61378e-06
5.61474e-06
5.60926e-06
5.61054e-06
4.20857e-06
9.46704e-06
9.45583e-06
4.2126e-06
4.20844e-06
9.45895e-06
4.21262e-06
2.27205e-06
1.14616e-06
3.62208e-06
8.82405e-07
3.61901e-06
8.79814e-07
2.27489e-06
2.27197e-06
1.1461e-06
8.8233e-07
3.62031e-06
8.79895e-07
2.27487e-06
1.89008e-05
1.38302e-06
5.61305e-06
5.61131e-06
1.88986e-05
4.20903e-06
9.46815e-06
9.45745e-06
4.21207e-06
2.27225e-06
1.14604e-06
3.62249e-06
8.8225e-07
3.61978e-06
8.79666e-07
2.27471e-06
4.20914e-06
9.4579e-06
4.21191e-06
2.27219e-06
1.14591e-06
8.82136e-07
8.79687e-07
3.62011e-06
2.27463e-06
2.2724e-06
1.1462e-06
3.61999e-06
8.80211e-07
4.2087e-06
9.4594e-06
2.27248e-06
1.14672e-06
8.80311e-07
3.619e-06
4.20882e-06
9.4563e-06
1.88998e-05
1.38308e-06
5.61223e-06
5.6104e-06
1.88972e-05
2.2726e-06
1.14604e-06
8.79991e-07
3.61973e-06
2.27269e-06
1.14652e-06
8.80157e-07
3.61954e-06
4.20925e-06
9.45811e-06
4.20921e-06
9.45751e-06
1.38342e-06
5.60745e-06
5.60904e-06
1.88886e-05
1.88907e-05
1.89101e-05
1.89123e-05
5.61489e-06
5.61581e-06
3.62384e-06
2.25256e-05
7.19516e-06
7.19403e-06
2.25367e-05
2.25654e-05
7.20363e-06
9.47207e-06
2.25602e-05
7.2039e-06
1.89042e-05
1.89022e-05
1.89067e-05
1.89048e-05
9.91238e-06
2.2208e-05
2.221e-05
9.90969e-06
2.22188e-05
2.22203e-05
4.68072e-06
2.95789e-06
5.61296e-06
9.83534e-06
9.83208e-06
2.95729e-06
4.681e-06
4.68417e-06
2.95933e-06
5.61396e-06
9.83883e-06
9.83556e-06
2.95884e-06
4.6846e-06
4.67892e-06
9.82426e-06
2.95523e-06
5.61077e-06
4.67806e-06
9.82967e-06
2.95599e-06
4.68216e-06
9.82777e-06
2.95714e-06
5.61193e-06
4.68117e-06
9.83315e-06
2.95777e-06
9.91516e-06
2.2223e-05
2.2224e-05
2.22195e-05
2.22209e-05
9.91546e-06
1.25207e-05
1.11149e-05
4.85306e-06
4.21009e-06
1.25151e-05
1.11197e-05
4.85463e-06
2.2553e-05
9.46311e-06
7.20203e-06
2.25615e-05
7.20114e-06
2.25509e-05
7.19732e-06
9.46089e-06
2.25393e-05
7.19878e-06
1.2523e-05
4.21131e-06
1.11264e-05
4.85727e-06
1.25281e-05
1.11218e-05
4.85599e-06
1.25223e-05
1.11149e-05
4.85259e-06
4.21003e-06
1.25161e-05
1.11199e-05
4.85446e-06
2.25543e-05
7.1978e-06
9.46471e-06
2.25412e-05
7.19935e-06
1.25247e-05
4.21129e-06
1.11267e-05
4.85734e-06
1.1122e-05
4.85595e-06
1.253e-05
1.89111e-05
9.91103e-06
2.22089e-05
2.22077e-05
9.90746e-06
2.22241e-05
2.22227e-05
4.68455e-06
9.83164e-06
2.95735e-06
5.61447e-06
2.95817e-06
4.68335e-06
9.83876e-06
4.67951e-06
9.82796e-06
2.95619e-06
5.61271e-06
4.67819e-06
9.83453e-06
2.95719e-06
1.8908e-05
1.25208e-05
4.85328e-06
1.11154e-05
4.21012e-06
1.25159e-05
4.85459e-06
1.11195e-05
2.25519e-05
9.4643e-06
7.20202e-06
2.25599e-05
7.20121e-06
2.255e-05
7.19767e-06
9.46215e-06
2.25395e-05
7.19894e-06
1.25229e-05
4.21109e-06
4.85671e-06
1.11256e-05
1.25276e-05
4.85565e-06
1.11214e-05
1.25207e-05
1.11151e-05
4.85297e-06
4.20987e-06
1.25156e-05
1.11193e-05
4.85385e-06
2.25491e-05
7.19596e-06
9.46274e-06
2.25375e-05
7.19718e-06
1.25228e-05
4.21118e-06
1.11254e-05
4.85623e-06
1.11212e-05
4.8554e-06
1.25277e-05
1.25208e-05
4.85285e-06
1.11161e-05
4.20992e-06
1.25157e-05
4.85382e-06
1.11201e-05
2.25486e-05
7.19853e-06
9.46472e-06
2.25365e-05
7.19939e-06
1.25202e-05
1.1116e-05
4.8533e-06
4.20993e-06
1.25162e-05
1.11197e-05
4.85428e-06
2.2546e-05
7.19598e-06
9.45874e-06
2.25386e-05
7.19664e-06
1.89087e-05
9.91319e-06
2.22127e-05
2.22123e-05
9.91059e-06
2.22243e-05
2.22236e-05
4.68486e-06
9.83168e-06
2.95722e-06
5.61349e-06
2.95793e-06
4.68393e-06
9.83733e-06
4.67875e-06
9.82675e-06
2.95627e-06
5.61148e-06
4.67798e-06
9.83201e-06
2.95679e-06
1.89053e-05
1.25191e-05
4.85303e-06
1.11159e-05
4.20968e-06
1.25151e-05
4.85337e-06
1.11191e-05
2.25437e-05
7.19687e-06
9.46211e-06
2.25334e-05
7.19739e-06
1.25204e-05
4.85363e-06
1.11164e-05
4.20986e-06
1.2517e-05
4.85424e-06
1.11194e-05
2.25458e-05
7.19664e-06
9.45942e-06
2.25394e-05
7.19708e-06
9.89567e-06
2.21857e-05
2.21853e-05
9.89894e-06
2.21867e-05
2.21857e-05
4.67479e-06
9.81994e-06
2.95541e-06
5.60735e-06
4.67531e-06
2.95536e-06
9.82035e-06
4.68013e-06
9.82469e-06
2.95662e-06
5.60876e-06
4.68062e-06
2.95655e-06
9.82491e-06
1.88912e-05
1.88929e-05
1.89126e-05
1.89147e-05
4.68141e-06
2.95882e-06
9.83615e-06
5.61495e-06
4.6817e-06
9.8371e-06
2.95911e-06
4.68521e-06
2.96013e-06
9.8396e-06
5.61587e-06
4.68541e-06
9.84053e-06
2.96031e-06
9.91347e-06
2.22207e-05
2.22218e-05
9.91549e-06
2.22203e-05
2.22211e-05
2.81339e-06
1.38495e-06
1.94913e-06
1.94988e-06
1.94947e-06
1.95026e-06
2.81345e-06
2.81447e-06
1.95095e-06
1.95163e-06
1.38566e-06
2.81454e-06
1.95055e-06
1.9512e-06
5.89668e-07
3.75707e-07
3.7555e-07
3.73023e-07
3.72859e-07
1.75286e-07
1.77267e-07
5.90109e-07
3.75926e-07
3.73234e-07
3.73164e-07
1.75362e-07
1.77325e-07
5.89708e-07
3.75642e-07
3.72971e-07
3.72891e-07
1.75239e-07
1.77193e-07
5.89964e-07
3.73055e-07
3.7287e-07
1.75244e-07
1.77223e-07
2.81195e-06
1.38182e-06
1.94783e-06
1.94874e-06
2.81172e-06
1.94752e-06
1.94841e-06
1.63787e-06
2.5194e-06
1.51361e-06
2.27302e-06
1.63895e-06
2.52034e-06
1.51303e-06
1.82077e-06
2.20628e-06
3.62159e-06
3.00258e-06
2.20637e-06
3.00239e-06
1.81993e-06
1.8181e-06
3.00029e-06
2.20465e-06
3.6197e-06
2.20459e-06
1.81894e-06
3.00055e-06
1.64073e-06
2.27396e-06
2.52219e-06
1.51493e-06
2.52129e-06
1.51549e-06
1.63967e-06
1.63778e-06
2.5192e-06
1.51352e-06
2.27296e-06
1.63884e-06
2.5203e-06
1.51294e-06
1.81806e-06
3.00049e-06
2.20521e-06
3.62108e-06
1.81884e-06
3.00099e-06
2.20523e-06
1.64067e-06
2.27392e-06
2.52226e-06
1.51482e-06
2.52127e-06
1.51539e-06
1.63962e-06
2.81263e-06
1.38187e-06
1.94849e-06
1.94826e-06
1.94824e-06
2.81219e-06
1.94802e-06
1.81744e-06
2.9989e-06
2.99876e-06
1.81656e-06
1.63793e-06
2.51963e-06
1.5137e-06
2.27305e-06
1.63904e-06
2.52042e-06
1.51309e-06
1.82087e-06
2.20678e-06
3.62211e-06
3.00268e-06
2.2069e-06
3.00253e-06
1.82001e-06
1.81825e-06
3.00064e-06
2.20525e-06
3.62033e-06
2.20517e-06
1.81912e-06
3.00084e-06
1.64074e-06
2.27391e-06
2.52206e-06
1.51487e-06
2.52128e-06
1.51546e-06
1.63965e-06
1.6378e-06
1.51362e-06
2.5194e-06
2.27295e-06
1.63892e-06
1.513e-06
2.52012e-06
1.81805e-06
3.00034e-06
2.2052e-06
3.62064e-06
1.81893e-06
3.00051e-06
2.20509e-06
1.64055e-06
2.27382e-06
1.51475e-06
2.52181e-06
1.51534e-06
2.52103e-06
1.63946e-06
1.63815e-06
2.51963e-06
1.51394e-06
2.27322e-06
1.63923e-06
2.52046e-06
1.51332e-06
1.81836e-06
3.00088e-06
2.20513e-06
3.6207e-06
1.81917e-06
2.20513e-06
3.00115e-06
1.63813e-06
1.51402e-06
2.51971e-06
2.2732e-06
1.63927e-06
1.5134e-06
2.52027e-06
1.81829e-06
3.00015e-06
2.20491e-06
3.61898e-06
1.81925e-06
3.00009e-06
2.2046e-06
2.81247e-06
1.38186e-06
1.94842e-06
1.94839e-06
1.94807e-06
2.81224e-06
1.94803e-06
1.63814e-06
1.51402e-06
2.5198e-06
2.27317e-06
1.63929e-06
1.51337e-06
2.5203e-06
1.81834e-06
3.00077e-06
2.20516e-06
3.62019e-06
1.81925e-06
2.20501e-06
3.00079e-06
1.63819e-06
1.51411e-06
2.51994e-06
2.27321e-06
1.63937e-06
1.51345e-06
2.52032e-06
1.81841e-06
3.00051e-06
2.20538e-06
3.61946e-06
1.81941e-06
3.00038e-06
2.20505e-06
2.81122e-06
1.38213e-06
1.94822e-06
1.94857e-06
2.81143e-06
1.94772e-06
1.94806e-06
1.82168e-06
2.20837e-06
3.00413e-06
3.6239e-06
3.00416e-06
1.82258e-06
2.20817e-06
4.20804e-06
1.88963e-05
1.1441e-06
3.61809e-06
2.27146e-06
8.77278e-07
4.20777e-06
9.45559e-06
2.27136e-06
1.14402e-06
8.77357e-07
3.61814e-06
1.38004e-06
5.60917e-06
5.60777e-06
1.88941e-05
9.45628e-06
1.25091e-05
4.20707e-06
4.85224e-06
1.11136e-05
4.85093e-06
1.11099e-05
1.25138e-05
1.88863e-05
1.25089e-05
4.2072e-06
1.11133e-05
4.85144e-06
1.11097e-05
4.85068e-06
1.25135e-05
2.25232e-05
9.4513e-06
7.19329e-06
7.19236e-06
2.25343e-05
9.90109e-06
2.2208e-05
2.22076e-05
2.21923e-05
2.21924e-05
9.90481e-06
4.68042e-06
5.6078e-06
9.82834e-06
2.95594e-06
9.82173e-06
2.95521e-06
4.68153e-06
4.67468e-06
5.60659e-06
9.82396e-06
2.95497e-06
2.95443e-06
9.81794e-06
4.67565e-06
1.88852e-05
9.45267e-06
3.70156e-07
5.87111e-07
3.70291e-07
3.61768e-06
2.2036e-06
2.20375e-06
1.63742e-06
2.27076e-06
2.51876e-06
1.5114e-06
2.51805e-06
1.51204e-06
1.6363e-06
1.63739e-06
2.2707e-06
1.51134e-06
2.51851e-06
1.512e-06
2.51789e-06
1.63625e-06
1.81737e-06
3.61763e-06
2.99865e-06
2.20355e-06
2.99855e-06
1.81646e-06
2.20369e-06
2.81048e-06
1.38128e-06
1.94659e-06
1.94659e-06
1.94696e-06
1.94695e-06
2.81075e-06
5.95335e-07
1.1502e-06
1.15025e-06
1.3864e-06
6.06063e-07
1.15799e-06
1.15783e-06
1.39283e-06
6.15831e-07
1.16415e-06
1.16434e-06
1.39867e-06
6.25156e-07
1.17009e-06
1.1703e-06
1.40365e-06
6.33476e-07
1.17545e-06
1.1756e-06
1.40908e-06
6.41829e-07
1.18025e-06
1.18024e-06
1.41268e-06
1.1481e-06
1.38398e-06
1.148e-06
1.14819e-06
1.14858e-06
1.38373e-06
1.14812e-06
1.14837e-06
1.38363e-06
1.39028e-06
1.15057e-06
1.15019e-06
1.15623e-06
1.15633e-06
1.38717e-06
1.39083e-06
1.15022e-06
1.15618e-06
1.15635e-06
1.15035e-06
1.15613e-06
1.15584e-06
1.38683e-06
1.39039e-06
1.15015e-06
1.15618e-06
1.15572e-06
1.3899e-06
1.39286e-06
1.39546e-06
1.15771e-06
1.15812e-06
1.16259e-06
1.16264e-06
1.39349e-06
1.39534e-06
1.15761e-06
1.15795e-06
1.16239e-06
1.1625e-06
1.15782e-06
1.16274e-06
1.16315e-06
1.39301e-06
1.39526e-06
1.15766e-06
1.16264e-06
1.16291e-06
1.3961e-06
1.39832e-06
1.40132e-06
1.16442e-06
1.16407e-06
1.16889e-06
1.16874e-06
1.39788e-06
1.40095e-06
1.16424e-06
1.16422e-06
1.16884e-06
1.16917e-06
1.16453e-06
1.16858e-06
1.16845e-06
1.39801e-06
1.40151e-06
1.16433e-06
1.16902e-06
1.16837e-06
1.40096e-06
1.40379e-06
1.40587e-06
1.17002e-06
1.17024e-06
1.17398e-06
1.17409e-06
1.40378e-06
1.40648e-06
1.16993e-06
1.17044e-06
1.17377e-06
1.17409e-06
1.16999e-06
1.17421e-06
1.17471e-06
1.40417e-06
1.4063e-06
1.16988e-06
1.17422e-06
1.17448e-06
1.40659e-06
1.40859e-06
1.41086e-06
1.17556e-06
1.17533e-06
1.17951e-06
1.17915e-06
1.40896e-06
1.41055e-06
1.17534e-06
1.17548e-06
1.17943e-06
1.17931e-06
1.17596e-06
1.17907e-06
1.17898e-06
1.40884e-06
1.41066e-06
1.17576e-06
1.17922e-06
1.17885e-06
1.41036e-06
1.41312e-06
1.41367e-06
1.18054e-06
1.18035e-06
1.18323e-06
1.18335e-06
1.41289e-06
1.41373e-06
1.18034e-06
1.18034e-06
1.18321e-06
1.18334e-06
1.18004e-06
1.18333e-06
1.18358e-06
1.41296e-06
1.41388e-06
1.1799e-06
1.1833e-06
1.18336e-06
1.41426e-06
1.41593e-06
1.41723e-06
1.18411e-06
1.18428e-06
1.18638e-06
1.18673e-06
1.41618e-06
5.92704e-07
5.92363e-07
5.92731e-07
4.21523e-06
9.46856e-06
4.21364e-06
9.47343e-06
1.89226e-05
1.8929e-05
4.21452e-06
4.21304e-06
9.47416e-06
5.95315e-07
5.95095e-07
5.95406e-07
6.03595e-07
6.03314e-07
6.03465e-07
6.03227e-07
2.27731e-06
3.62473e-06
8.8512e-07
1.1522e-06
2.27543e-06
3.62592e-06
8.87489e-07
1.89186e-05
1.89227e-05
2.27689e-06
8.8503e-07
3.62362e-06
1.15238e-06
2.27513e-06
8.87569e-07
3.62456e-06
5.60758e-06
5.60879e-06
1.38663e-06
5.60873e-06
5.60989e-06
4.21519e-06
9.47412e-06
4.21558e-06
9.47534e-06
1.89236e-05
1.89219e-05
4.21497e-06
9.47458e-06
4.21507e-06
9.47609e-06
6.05988e-07
6.06079e-07
6.05881e-07
6.13284e-07
6.13595e-07
6.1348e-07
6.13727e-07
2.28055e-06
3.62641e-06
8.94593e-07
1.1597e-06
2.27968e-06
3.62525e-06
8.96953e-07
1.89161e-05
1.892e-05
2.28016e-06
8.94709e-07
3.6247e-06
1.15941e-06
2.27923e-06
8.96914e-07
3.62415e-06
5.61549e-06
5.61648e-06
1.39324e-06
5.61736e-06
5.6187e-06
4.21946e-06
9.48618e-06
4.21666e-06
9.49702e-06
1.89326e-05
1.89557e-05
4.22032e-06
9.48846e-06
4.21715e-06
9.4995e-06
6.15955e-07
6.15971e-07
6.16142e-07
6.2307e-07
6.22893e-07
6.23244e-07
6.22814e-07
2.28313e-06
3.62593e-06
9.03417e-07
1.16557e-06
2.28211e-06
3.62776e-06
9.05315e-07
1.89445e-05
1.89644e-05
2.28367e-06
9.034e-07
3.62726e-06
1.16603e-06
2.2822e-06
9.05501e-07
3.62986e-06
5.61824e-06
5.62041e-06
1.39847e-06
5.61905e-06
5.62146e-06
4.22578e-06
9.50492e-06
4.22384e-06
9.51007e-06
1.89847e-05
1.89994e-05
4.22548e-06
9.50641e-06
4.22417e-06
9.5109e-06
6.25135e-07
6.25426e-07
6.25013e-07
6.31272e-07
6.31518e-07
6.31575e-07
6.31769e-07
2.28825e-06
3.635e-06
9.10817e-07
1.17154e-06
2.28623e-06
3.63738e-06
9.12691e-07
1.89807e-05
1.89941e-05
2.28801e-06
9.11083e-07
3.63472e-06
1.17156e-06
2.28647e-06
9.12784e-07
3.63621e-06
5.62849e-06
5.62992e-06
1.40385e-06
5.63274e-06
5.63393e-06
4.22998e-06
9.52277e-06
4.22894e-06
9.52848e-06
1.90086e-05
1.90152e-05
4.22995e-06
9.52365e-06
4.2285e-06
9.52979e-06
6.33544e-07
6.33687e-07
6.3393e-07
6.39917e-07
6.39628e-07
6.39881e-07
6.39778e-07
2.29108e-06
3.63971e-06
9.18039e-07
1.17666e-06
2.29065e-06
3.63961e-06
9.19631e-07
1.90115e-05
1.90184e-05
2.29117e-06
9.18056e-07
3.63957e-06
1.17693e-06
2.29044e-06
9.19764e-07
3.63996e-06
5.63444e-06
5.63588e-06
1.40863e-06
5.6324e-06
5.63413e-06
4.23002e-06
9.52923e-06
4.23041e-06
9.52892e-06
1.9021e-05
1.9025e-05
4.23039e-06
9.53068e-06
4.23067e-06
9.53043e-06
6.41602e-07
6.41792e-07
6.41616e-07
6.47277e-07
4.3502e-07
2.26208e-07
2.26181e-07
2.2927e-06
3.64032e-06
9.24014e-07
1.18135e-06
2.29214e-06
3.64053e-06
9.25502e-07
1.90198e-05
1.90264e-05
2.29263e-06
9.24169e-07
3.64027e-06
1.18121e-06
2.29217e-06
9.25504e-07
3.64025e-06
5.63467e-06
5.63618e-06
1.41226e-06
5.63851e-06
5.64005e-06
4.23353e-06
9.5389e-06
4.23126e-06
9.54989e-06
1.90435e-05
1.90568e-05
9.4717e-06
3.62383e-06
1.89213e-05
5.61818e-06
5.61606e-06
1.89177e-05
9.46911e-06
3.62297e-06
3.62317e-06
8.82701e-07
2.27473e-06
9.47127e-06
4.21193e-06
8.82832e-07
3.61974e-06
2.27457e-06
9.46194e-06
4.21164e-06
1.89178e-05
5.61669e-06
5.61435e-06
1.89137e-05
8.82497e-07
3.62222e-06
2.27444e-06
8.82655e-07
3.62002e-06
2.27436e-06
9.46794e-06
4.21117e-06
9.46215e-06
4.21109e-06
5.60731e-06
5.60852e-06
1.88942e-05
1.88955e-05
1.89133e-05
1.89153e-05
1.38745e-06
5.61481e-06
5.61571e-06
1.89115e-05
1.89116e-05
1.89133e-05
1.89135e-05
1.39029e-06
5.61035e-06
5.61116e-06
5.61439e-06
5.61531e-06
4.21538e-06
9.47335e-06
4.21368e-06
9.4781e-06
2.27778e-06
3.62349e-06
8.85055e-07
1.15276e-06
2.2758e-06
3.62428e-06
8.87716e-07
2.27779e-06
3.62554e-06
8.84847e-07
1.15229e-06
2.2758e-06
3.62661e-06
8.87412e-07
4.21554e-06
9.4744e-06
9.47375e-06
4.21559e-06
4.21572e-06
9.47819e-06
9.47823e-06
4.21586e-06
2.27835e-06
1.15462e-06
3.624e-06
8.92594e-07
3.62461e-06
8.90255e-07
2.27906e-06
2.27839e-06
1.15437e-06
3.62656e-06
8.92416e-07
3.62716e-06
8.89958e-07
2.27916e-06
5.61999e-06
5.61762e-06
1.3878e-06
5.62054e-06
5.61843e-06
1.89192e-05
1.89265e-05
1.89267e-05
1.8928e-05
1.3907e-06
5.6177e-06
5.61687e-06
5.62078e-06
5.6186e-06
1.89265e-05
1.8926e-05
2.27747e-06
8.84947e-07
1.15273e-06
2.27559e-06
3.6245e-06
8.87703e-07
4.21455e-06
9.47063e-06
4.21315e-06
9.47543e-06
2.27744e-06
8.84778e-07
3.62444e-06
1.15245e-06
2.27548e-06
8.87489e-07
3.62529e-06
4.21484e-06
9.47488e-06
9.47438e-06
4.21501e-06
2.27806e-06
1.15458e-06
3.62415e-06
8.92695e-07
3.62481e-06
8.90328e-07
2.27876e-06
4.21501e-06
9.47545e-06
9.47558e-06
4.21512e-06
2.278e-06
1.15452e-06
8.9262e-07
3.6248e-06
8.90164e-07
3.62567e-06
2.27876e-06
4.21484e-06
9.47285e-06
4.21278e-06
9.47765e-06
2.27695e-06
8.85242e-07
3.62054e-06
1.1521e-06
2.27522e-06
8.8755e-07
3.62154e-06
4.21416e-06
9.46288e-06
4.21233e-06
9.46811e-06
2.2779e-06
1.15419e-06
3.6263e-06
8.92208e-07
3.62652e-06
8.89841e-07
2.2792e-06
4.21532e-06
9.47855e-06
9.47788e-06
4.2159e-06
2.27753e-06
1.15393e-06
8.9216e-07
3.62427e-06
8.89843e-07
3.62264e-06
2.2789e-06
4.2146e-06
9.47552e-06
9.46919e-06
4.21534e-06
5.61794e-06
5.61566e-06
1.38741e-06
5.61819e-06
5.61602e-06
1.89146e-05
1.89196e-05
1.89182e-05
1.8921e-05
1.39029e-06
5.61327e-06
5.61236e-06
5.61798e-06
5.61598e-06
1.89175e-05
1.89183e-05
2.27662e-06
8.85105e-07
3.62073e-06
1.15195e-06
2.27499e-06
8.87501e-07
3.62166e-06
4.21389e-06
9.46941e-06
4.2121e-06
9.47432e-06
4.21332e-06
9.46299e-06
4.21168e-06
9.46805e-06
2.27749e-06
1.15435e-06
8.9243e-07
3.62459e-06
8.90046e-07
3.62505e-06
2.27876e-06
2.27721e-06
1.1538e-06
8.92251e-07
3.62441e-06
8.89891e-07
3.62275e-06
2.27858e-06
4.21438e-06
9.47525e-06
9.47458e-06
4.21509e-06
4.21378e-06
9.4753e-06
9.46913e-06
4.21478e-06
1.88948e-05
1.8906e-05
1.88961e-05
1.89072e-05
1.38948e-06
5.61365e-06
5.61461e-06
5.61007e-06
5.6112e-06
1.89247e-05
1.89081e-05
1.89255e-05
1.89093e-05
1.89112e-05
1.89233e-05
1.8913e-05
1.8926e-05
5.61026e-06
5.61111e-06
1.39268e-06
5.61102e-06
5.61211e-06
1.89482e-05
1.89263e-05
1.89525e-05
1.89294e-05
1.39532e-06
5.61897e-06
5.62088e-06
5.61289e-06
5.61417e-06
4.21543e-06
9.47751e-06
4.21585e-06
9.47623e-06
2.27994e-06
3.62416e-06
8.94756e-07
1.1592e-06
2.27944e-06
3.62416e-06
8.96814e-07
2.28003e-06
3.62662e-06
8.94743e-07
1.15972e-06
2.27956e-06
3.62499e-06
8.96934e-07
4.21525e-06
9.48405e-06
9.47624e-06
4.21614e-06
4.21543e-06
9.47932e-06
9.47607e-06
4.21604e-06
2.28036e-06
1.16082e-06
3.62707e-06
9.00993e-07
3.62506e-06
8.98873e-07
2.28132e-06
2.28044e-06
1.16122e-06
3.62514e-06
9.01057e-07
3.62513e-06
8.9902e-07
2.28125e-06
5.61696e-06
5.61609e-06
1.39323e-06
5.61269e-06
5.61236e-06
1.89241e-05
1.89227e-05
1.89299e-05
1.89208e-05
1.39568e-06
5.61267e-06
5.61153e-06
5.61262e-06
5.61195e-06
1.89282e-05
1.89215e-05
2.27968e-06
3.62432e-06
8.94835e-07
1.15905e-06
2.27914e-06
3.62443e-06
8.96789e-07
4.21495e-06
9.47462e-06
4.21523e-06
9.47423e-06
2.27964e-06
8.94859e-07
3.6248e-06
1.15942e-06
2.27912e-06
8.96873e-07
3.62392e-06
4.21513e-06
9.486e-06
9.47716e-06
4.21645e-06
2.28015e-06
1.16062e-06
3.62773e-06
9.0083e-07
3.6254e-06
8.98763e-07
2.28135e-06
4.21515e-06
9.48205e-06
9.47479e-06
4.21611e-06
2.28007e-06
1.16092e-06
9.00875e-07
3.62578e-06
8.98853e-07
3.62443e-06
2.28121e-06
4.21626e-06
9.47825e-06
4.21607e-06
9.47807e-06
2.28049e-06
8.9454e-07
3.62551e-06
1.15977e-06
2.27942e-06
8.96941e-07
3.62672e-06
4.21607e-06
9.4767e-06
4.21557e-06
9.48257e-06
2.28097e-06
1.16127e-06
3.62518e-06
9.01397e-07
3.62532e-06
8.99239e-07
2.28168e-06
4.21635e-06
9.4804e-06
9.47798e-06
4.21683e-06
2.28095e-06
1.16157e-06
9.01516e-07
3.62785e-06
8.99296e-07
3.62754e-06
2.28177e-06
4.21626e-06
9.48695e-06
9.48336e-06
4.21702e-06
5.61252e-06
5.61179e-06
1.39278e-06
5.61103e-06
5.6106e-06
1.89159e-05
1.89203e-05
1.89408e-05
1.89218e-05
1.39532e-06
5.61571e-06
5.61436e-06
5.61175e-06
5.61125e-06
1.89382e-05
1.89218e-05
2.28023e-06
8.94597e-07
3.62565e-06
1.15955e-06
2.2791e-06
8.96907e-07
3.627e-06
4.21571e-06
9.47495e-06
4.21528e-06
9.47556e-06
4.21584e-06
9.47644e-06
4.21504e-06
9.48245e-06
2.28062e-06
1.16099e-06
9.01248e-07
3.62582e-06
8.99081e-07
3.62468e-06
2.28167e-06
2.28073e-06
1.16132e-06
9.01358e-07
3.62853e-06
8.9917e-07
3.62791e-06
2.28183e-06
4.21589e-06
9.48261e-06
9.47621e-06
4.21693e-06
4.21609e-06
9.48827e-06
9.48342e-06
4.21729e-06
1.89265e-05
1.8937e-05
1.89275e-05
1.8939e-05
1.39605e-06
5.61805e-06
5.62005e-06
5.61803e-06
5.61953e-06
1.89429e-05
1.89374e-05
1.89466e-05
1.89396e-05
1.89508e-05
1.89633e-05
1.89552e-05
1.89675e-05
5.62156e-06
5.62346e-06
1.39866e-06
5.62462e-06
5.62662e-06
1.89702e-05
1.89638e-05
1.8973e-05
1.89678e-05
1.40143e-06
5.62555e-06
5.62719e-06
5.62543e-06
5.62737e-06
4.21892e-06
9.4807e-06
4.21645e-06
9.49039e-06
2.28358e-06
3.62879e-06
9.03181e-07
1.16614e-06
2.2819e-06
3.63106e-06
9.05358e-07
2.28329e-06
3.62611e-06
9.03092e-07
1.16556e-06
2.28179e-06
3.62833e-06
9.05146e-07
4.22035e-06
9.50422e-06
9.49855e-06
4.22311e-06
4.21976e-06
9.50497e-06
9.49277e-06
4.22282e-06
2.28429e-06
1.16763e-06
3.63305e-06
9.09302e-07
3.63223e-06
9.07423e-07
2.28596e-06
2.284e-06
1.16716e-06
3.63349e-06
9.09154e-07
3.63037e-06
9.07183e-07
2.28581e-06
5.61432e-06
5.61258e-06
1.39786e-06
5.61966e-06
5.61742e-06
1.89304e-05
1.89522e-05
1.89821e-05
1.89597e-05
1.40063e-06
5.62907e-06
5.62786e-06
5.62333e-06
5.62094e-06
1.89815e-05
1.89568e-05
2.28401e-06
3.62957e-06
9.03071e-07
1.16602e-06
2.28202e-06
3.63186e-06
9.05342e-07
4.21989e-06
9.48429e-06
4.21708e-06
9.49654e-06
2.28383e-06
9.03061e-07
3.6274e-06
1.16601e-06
2.28184e-06
9.05303e-07
3.63049e-06
4.22127e-06
9.50582e-06
9.50091e-06
4.22359e-06
2.28475e-06
1.16756e-06
3.63361e-06
9.09456e-07
3.63297e-06
9.0753e-07
2.28625e-06
4.22116e-06
9.50659e-06
9.49849e-06
4.22335e-06
2.28454e-06
1.1677e-06
9.09502e-07
3.63393e-06
9.07515e-07
3.63216e-06
2.28618e-06
4.21866e-06
9.4814e-06
4.2171e-06
9.48943e-06
2.28319e-06
9.03556e-07
3.62841e-06
1.16579e-06
2.2822e-06
9.05416e-07
3.62895e-06
4.21882e-06
9.48752e-06
4.21731e-06
9.49182e-06
2.28371e-06
1.16706e-06
3.63309e-06
9.08967e-07
3.62959e-06
9.07149e-07
2.28552e-06
4.21928e-06
9.50552e-06
9.4918e-06
4.22244e-06
2.28374e-06
1.16706e-06
9.08911e-07
3.63212e-06
9.07173e-07
3.62993e-06
2.28543e-06
4.21938e-06
9.50249e-06
9.49311e-06
4.22232e-06
5.61877e-06
5.61699e-06
1.39837e-06
5.62399e-06
5.62184e-06
1.89414e-05
1.89607e-05
1.89793e-05
1.89665e-05
1.40126e-06
5.62857e-06
5.62708e-06
5.62609e-06
5.624e-06
1.89779e-05
1.8963e-05
2.28365e-06
9.03441e-07
3.62917e-06
1.16565e-06
2.28235e-06
9.05415e-07
3.62984e-06
4.21966e-06
9.48444e-06
4.21737e-06
9.49503e-06
4.21973e-06
9.48906e-06
4.21769e-06
9.49409e-06
2.28427e-06
1.1676e-06
9.09344e-07
3.63347e-06
9.07488e-07
3.63148e-06
2.28588e-06
2.28422e-06
1.16697e-06
9.09078e-07
3.63278e-06
9.07278e-07
3.63083e-06
2.28573e-06
4.22037e-06
9.50609e-06
9.49696e-06
4.22296e-06
4.2203e-06
9.50359e-06
9.49534e-06
4.22279e-06
1.89431e-05
1.89538e-05
1.89471e-05
1.89578e-05
1.40101e-06
5.62582e-06
5.6274e-06
5.62044e-06
5.62278e-06
1.89778e-05
1.89563e-05
1.89796e-05
1.89601e-05
1.8971e-05
1.89849e-05
1.89736e-05
1.89868e-05
5.62583e-06
5.62735e-06
1.40341e-06
5.62762e-06
5.62877e-06
1.90072e-05
1.89881e-05
1.90099e-05
1.89899e-05
1.40592e-06
5.63475e-06
5.63609e-06
5.62979e-06
5.63076e-06
4.22604e-06
9.50714e-06
4.22363e-06
9.51705e-06
2.28782e-06
3.63372e-06
9.11011e-07
1.17118e-06
2.28656e-06
3.63454e-06
9.12626e-07
2.28792e-06
3.63529e-06
9.11006e-07
1.17159e-06
2.28648e-06
3.63735e-06
9.12749e-07
4.22644e-06
9.52107e-06
9.51158e-06
4.22825e-06
4.22674e-06
9.52392e-06
9.51846e-06
4.22854e-06
2.2884e-06
1.1725e-06
3.63802e-06
9.15972e-07
3.63573e-06
9.14264e-07
2.28964e-06
2.28854e-06
1.17287e-06
3.6394e-06
9.16053e-07
3.63856e-06
9.14413e-07
2.28972e-06
5.63194e-06
5.63062e-06
1.40396e-06
5.63521e-06
5.63443e-06
1.89845e-05
1.89996e-05
1.90084e-05
1.90004e-05
1.40663e-06
5.63708e-06
5.6358e-06
5.63659e-06
5.63558e-06
1.90071e-05
1.90005e-05
2.28768e-06
3.63418e-06
9.11146e-07
1.17105e-06
2.28678e-06
3.63481e-06
9.12663e-07
4.22553e-06
9.50772e-06
4.22426e-06
9.51384e-06
2.28771e-06
9.11265e-07
3.63501e-06
1.17161e-06
2.2867e-06
9.12823e-07
3.63614e-06
4.22601e-06
9.52181e-06
9.51227e-06
4.22776e-06
2.28818e-06
1.17229e-06
3.63819e-06
9.15859e-07
3.63588e-06
9.14208e-07
2.28939e-06
4.22632e-06
9.52257e-06
9.51513e-06
4.22784e-06
2.2882e-06
1.1728e-06
9.15967e-07
3.63862e-06
9.14369e-07
3.63719e-06
2.28941e-06
4.22653e-06
9.50803e-06
4.2234e-06
9.51844e-06
2.28814e-06
9.10725e-07
3.63394e-06
1.17163e-06
2.28611e-06
9.12629e-07
3.63653e-06
4.22633e-06
9.50474e-06
4.22321e-06
9.51567e-06
2.28892e-06
1.17292e-06
3.63926e-06
9.1635e-07
3.63855e-06
9.14549e-07
2.2902e-06
4.22738e-06
9.52457e-06
9.51979e-06
4.22896e-06
2.2888e-06
1.17324e-06
9.16471e-07
3.63858e-06
9.14575e-07
3.63784e-06
2.29015e-06
4.22717e-06
9.52257e-06
9.51723e-06
4.22881e-06
5.62973e-06
5.62863e-06
1.40402e-06
5.63205e-06
5.63146e-06
1.89797e-05
1.89942e-05
1.90104e-05
1.89962e-05
1.40653e-06
5.63669e-06
5.63534e-06
5.63374e-06
5.63309e-06
1.9008e-05
1.8996e-05
2.28797e-06
9.10853e-07
3.63434e-06
1.17146e-06
2.28634e-06
9.12663e-07
3.63673e-06
4.22604e-06
9.50759e-06
4.2237e-06
9.51524e-06
4.226e-06
9.50551e-06
4.22348e-06
9.51559e-06
2.2886e-06
1.17285e-06
9.16272e-07
3.63864e-06
9.14504e-07
3.63734e-06
2.28992e-06
2.28858e-06
1.17302e-06
9.16348e-07
3.63888e-06
9.14502e-07
3.63803e-06
2.28993e-06
4.22677e-06
9.52323e-06
9.51659e-06
4.22849e-06
4.2267e-06
9.52304e-06
9.51723e-06
4.22848e-06
1.89811e-05
1.89974e-05
1.89826e-05
1.89986e-05
1.40659e-06
5.63441e-06
5.63579e-06
5.63402e-06
5.63528e-06
1.90036e-05
1.89982e-05
1.90056e-05
1.89996e-05
1.90086e-05
1.90153e-05
1.90115e-05
1.90185e-05
5.63638e-06
5.63786e-06
1.40869e-06
5.63712e-06
5.63876e-06
1.9015e-05
1.90145e-05
1.90181e-05
1.90177e-05
1.41127e-06
5.63413e-06
5.63579e-06
5.6372e-06
5.63886e-06
4.2299e-06
9.52444e-06
4.22913e-06
9.52692e-06
2.29125e-06
3.6394e-06
9.1776e-07
1.17705e-06
2.29026e-06
3.64029e-06
9.1954e-07
2.29116e-06
3.64003e-06
9.17704e-07
1.17659e-06
2.29032e-06
3.64008e-06
9.19361e-07
4.23028e-06
9.52965e-06
9.52886e-06
4.23037e-06
4.23015e-06
9.5288e-06
9.52718e-06
4.23024e-06
2.29174e-06
1.1784e-06
3.64018e-06
9.22809e-07
3.64073e-06
9.2124e-07
2.29209e-06
2.29163e-06
1.17789e-06
3.64038e-06
9.22591e-07
3.64051e-06
9.21003e-07
2.29199e-06
5.63744e-06
5.63588e-06
1.40859e-06
5.637e-06
5.63478e-06
1.90069e-05
1.90117e-05
1.90214e-05
1.90154e-05
1.41101e-06
5.63709e-06
5.63505e-06
5.6373e-06
5.63488e-06
1.90196e-05
1.9012e-05
2.29127e-06
3.63967e-06
9.17674e-07
1.17691e-06
2.29005e-06
3.64072e-06
9.1952e-07
4.22993e-06
9.52383e-06
4.22875e-06
9.52878e-06
2.29121e-06
9.17718e-07
3.63975e-06
1.17686e-06
2.29e-06
9.19488e-07
3.6405e-06
4.23037e-06
9.5311e-06
9.53022e-06
4.23058e-06
2.29179e-06
1.17823e-06
3.64066e-06
9.229e-07
3.64119e-06
9.21304e-07
2.29219e-06
4.23038e-06
9.53063e-06
9.52918e-06
4.23049e-06
2.29167e-06
1.17816e-06
9.2282e-07
3.64059e-06
9.21243e-07
3.64096e-06
2.2921e-06
4.22966e-06
9.52492e-06
4.22936e-06
9.52634e-06
2.291e-06
9.18225e-07
3.639e-06
1.17703e-06
2.29057e-06
9.19811e-07
3.63873e-06
4.22948e-06
9.523e-06
4.22917e-06
9.52503e-06
2.2914e-06
1.17787e-06
3.63988e-06
9.22574e-07
3.63992e-06
9.21122e-07
2.29176e-06
4.22985e-06
9.52814e-06
9.52636e-06
4.22994e-06
2.29131e-06
1.178e-06
9.22601e-07
3.63909e-06
9.21247e-07
3.63901e-06
2.29162e-06
4.22963e-06
9.52749e-06
9.52521e-06
4.22971e-06
5.63792e-06
5.63621e-06
1.40864e-06
5.63843e-06
5.6363e-06
1.90087e-05
1.90145e-05
1.90205e-05
1.9018e-05
1.41111e-06
5.63657e-06
5.63458e-06
5.63858e-06
5.63636e-06
1.90172e-05
1.9014e-05
2.29107e-06
9.18133e-07
3.63935e-06
1.17687e-06
2.29042e-06
9.1979e-07
3.63919e-06
4.22961e-06
9.52411e-06
4.22903e-06
9.52759e-06
4.22946e-06
9.52353e-06
4.22895e-06
9.52585e-06
2.29153e-06
1.17814e-06
9.22803e-07
3.64001e-06
9.21367e-07
3.64034e-06
2.29183e-06
2.29141e-06
1.17787e-06
9.22689e-07
3.6396e-06
9.21308e-07
3.6395e-06
2.2917e-06
4.22985e-06
9.52917e-06
9.52785e-06
4.23008e-06
4.22966e-06
9.52837e-06
9.52609e-06
4.22991e-06
1.9003e-05
1.90059e-05
1.90051e-05
1.90083e-05
1.41093e-06
5.63321e-06
5.63483e-06
5.6325e-06
5.6342e-06
1.90174e-05
1.90061e-05
1.90194e-05
1.90085e-05
1.90137e-05
1.90194e-05
1.90168e-05
1.90226e-05
5.63373e-06
5.63534e-06
1.41231e-06
5.63295e-06
5.63461e-06
1.90374e-05
1.90211e-05
1.90415e-05
1.90243e-05
1.41446e-06
5.63751e-06
5.63955e-06
5.63385e-06
5.63556e-06
4.23007e-06
9.52903e-06
4.23028e-06
9.53117e-06
2.29256e-06
3.64027e-06
9.24253e-07
1.18141e-06
2.29242e-06
3.63951e-06
9.25656e-07
2.29255e-06
3.64073e-06
9.24118e-07
1.18145e-06
2.29234e-06
3.64046e-06
9.25605e-07
4.23005e-06
9.53501e-06
9.52929e-06
4.23044e-06
4.23013e-06
9.53542e-06
9.53165e-06
4.23059e-06
2.2929e-06
1.18246e-06
2.22287e-06
9.2848e-07
3.63995e-06
9.27051e-07
1.66368e-06
2.2929e-06
1.18241e-06
1.84221e-06
9.28482e-07
3.64081e-06
9.27057e-07
1.66363e-06
5.63732e-06
5.63557e-06
1.41225e-06
5.6366e-06
5.63617e-06
1.90201e-05
1.90266e-05
1.90317e-05
1.90246e-05
1.41448e-06
5.63701e-06
5.63674e-06
5.63684e-06
5.63652e-06
1.90327e-05
1.90266e-05
2.29261e-06
3.64074e-06
9.24329e-07
1.18131e-06
2.29251e-06
3.64002e-06
9.25656e-07
4.23036e-06
9.53049e-06
4.23064e-06