/*--------------------------------*- C++ -*----------------------------------*\
| =========                 |                                                 |
| \\      /  F ield         | OpenFOAM: The Open Source CFD Toolbox           |
|  \\    /   O peration     | Version:  v2006                                 |
|   \\  /    A nd           | Website:  www.openfoam.com                      |
|    \\/     M anipulation  |                                                 |
\*---------------------------------------------------------------------------*/
FoamFile
{
    version     2.0;
    format      ascii;
    class       surfaceScalarField;
    location    "1000";
    object      phi;
}
// * * * * * * * * * * * * * * * * * * * * * * * * * * * * * * * * * * * * * //

dimensions      [0 3 -1 0 0 0 0];
oriented        oriented;


internalField   nonuniform List<scalar> 
41407
(
-1.1496e-06
7.83682e-08
-1.95233e-07
1.29902e-06
2.56863e-07
8.81096e-07
-1.86911e-07
2.3048e-07
-0.00113199
8.79913e-08
-8.29383e-07
-1.259e-06
-2.85895e-07
-2.10316e-07
-2.23783e-07
1.18167e-06
2.34071e-07
-1.82616e-07
-8.3052e-07
8.84984e-07
2.34657e-07
-0.00113163
-1.84802e-07
-2.1068e-07
0.000268063
-0.000270076
-5.93153e-08
-0.0011838
-1.04105e-07
6.84779e-09
5.90338e-09
9.8031e-05
-9.80438e-05
-1.02513e-08
-1.43284e-08
7.25308e-08
0.000245458
-0.000245507
6.20735e-10
1.66596e-08
1.92448e-09
0.000193603
-0.000193615
1.9146e-08
-6.42824e-09
1.10275e-10
0.000229307
-6.70371e-10
-0.000229319
-1.25316e-07
-7.35127e-07
-9.15502e-07
9.81294e-07
8.01876e-07
-0.0011523
1.26453e-08
-1.12152e-08
6.70829e-08
2.26787e-09
0.000245366
-0.000245407
1.31562e-07
1.71463e-09
0.000250057
-0.000250171
-1.21409e-10
1.25198e-08
-9.94273e-09
0.000278159
-0.000278167
-3.4796e-09
1.78481e-08
-9.38484e-09
0.000278274
-0.000278289
6.94733e-09
9.80463e-05
-9.80568e-05
0.000193657
-0.000193667
2.22389e-09
-8.7009e-09
1.06337e-09
2.38907e-08
0.000263177
-0.000263191
7.86149e-10
7.9265e-05
-7.92745e-05
2.86042e-10
0.000171094
-1.54977e-09
-0.000171099
-7.48518e-09
2.28704e-08
0.000223301
-0.000223316
0.000143352
-0.000143358
-1.22844e-08
4.22248e-08
2.06255e-08
0.000250567
-0.000250605
6.76576e-09
-6.74583e-09
0.000183034
-0.000183044
-5.33104e-09
1.90432e-08
0.000221858
-0.000221878
-2.84705e-08
-0.000221936
1.89091e-08
-4.19021e-08
1.68203e-08
0.000250721
-8.06961e-09
4.86218e-08
1.53812e-08
-0.000250759
9.03697e-09
0.000183094
-7.01663e-09
-0.000183105
-3.41163e-08
1.83888e-09
1.27036e-08
-1.11062e-08
-7.73014e-08
-4.09729e-08
-4.78998e-09
2.27578e-08
-0.000221953
1.46478e-09
3.05974e-09
8.05593e-05
-8.05691e-05
2.79882e-09
8.05757e-05
-8.05855e-05
0.00021378
-0.000213784
-6.26173e-10
5.64351e-09
-3.29841e-08
-4.75855e-08
1.7402e-08
-0.000263309
-1.73149e-10
-1.18772e-07
-0.000242845
-9.93565e-08
4.76405e-08
-8.32718e-08
0.000261123
-0.000261406
0.000260761
-7.05682e-08
-0.000261048
2.21804e-07
2.50193e-07
-0.000242957
8.3425e-08
9.72276e-09
-0.00121504
-2.93945e-07
1.90096e-08
1.79051e-07
-0.000263967
-1.0919e-08
0.000260358
-3.94732e-09
-0.000260453
-1.02152e-07
-7.22993e-09
-0.000250719
-5.47554e-09
-6.47989e-10
0.000260266
-0.000260361
1.39122e-07
-1.54064e-09
0.000250619
-0.000250731
-5.91288e-09
0.000263894
-0.00026458
3.80806e-09
0.000265811
-0.000266418
-7.67865e-10
1.51478e-07
0.000249436
-0.000249565
0.000265586
-0.000266352
-5.28316e-08
-0.000229371
1.83413e-08
6.12311e-10
2.03463e-09
-3.11217e-08
4.14478e-09
-0.00019369
-4.47885e-10
-3.27446e-08
-0.000193664
-9.56094e-09
-9.80507e-05
-1.21456e-08
-9.80391e-05
-1.27175e-06
-1.22938e-06
-0.000268092
2.37345e-07
2.41035e-07
-8.61963e-09
2.88123e-09
-0.000278289
-3.72071e-08
-4.7236e-09
-6.01671e-10
-0.000278216
-3.74359e-08
-0.000250104
3.07106e-10
-1.84563e-07
-3.22241e-08
-1.22208e-06
2.51293e-07
-2.11851e-07
-8.31165e-07
2.32198e-07
-1.83044e-07
8.88185e-07
-0.00113155
-3.32339e-09
-0.000245485
-1.03894e-07
-9.172e-07
8.00832e-07
-7.34095e-07
9.83339e-07
-0.00115236
-1.17993e-06
2.4518e-07
-2.04033e-07
2.29964e-07
-1.80228e-07
-0.00113245
-0.000245443
-1.03601e-07
-1.50113e-10
6.91916e-09
0.000143441
-8.03402e-10
-0.000143446
-5.75088e-09
-1.03989e-10
2.04241e-08
-0.000229384
-0.000171153
-9.90269e-10
-0.000223426
1.74631e-08
2.61648e-10
-5.51659e-08
-0.000171157
-4.02862e-09
2.3916e-08
-0.000223439
-5.58034e-10
1.0468e-08
7.93104e-05
-7.93216e-05
-0.000263322
1.30471e-08
-4.703e-08
2.38768e-09
-7.32403e-09
1.62787e-08
-0.000193701
2.48045e-08
-0.000263338
-9.70487e-09
1.48465e-08
-0.000193675
-9.65448e-10
-1.45483e-08
6.16408e-09
-9.80642e-05
3.50682e-09
-9.80523e-05
-4.06963e-09
-1.46737e-09
0.000213798
2.40873e-09
5.88101e-09
-0.000213801
-8.05669e-05
-5.4607e-09
-2.95386e-09
-8.05488e-05
-8.07024e-09
-5.35672e-10
7.45495e-09
-8.05784e-05
9.99374e-09
-8.05603e-05
-1.513e-08
-1.52218e-08
-1.18523e-08
0.000221959
1.17855e-08
1.83153e-08
-0.000221975
-0.000183097
-1.83791e-08
-1.05903e-08
1.51206e-08
1.47907e-08
-0.000278302
2.30235e-08
-0.000250734
-8.07293e-08
-3.74169e-08
-0.000183112
-4.5075e-08
4.29734e-08
2.24065e-08
-0.000250772
-1.0895e-08
0.000221888
1.5498e-08
1.75802e-08
-0.000221904
-0.000183032
-2.0175e-08
-1.61189e-08
1.5405e-08
1.28759e-08
-0.000278224
2.30229e-08
-0.000250628
-8.09699e-08
-3.41158e-08
-0.000183049
-4.49973e-08
4.32706e-08
1.69301e-08
-0.000250657
-1.49054e-08
1.14217e-09
5.08298e-09
-3.50633e-08
-3.27499e-10
-4.74758e-08
9.43312e-10
-2.06011e-08
2.14625e-08
2.75585e-10
-5.32257e-08
-7.86983e-10
-1.53583e-09
-5.55072e-08
2.1029e-08
-2.47724e-08
1.4629e-08
1.63681e-09
-3.65519e-08
-8.14321e-09
1.89262e-09
-3.35183e-08
6.3937e-09
6.81592e-09
0.000242878
7.25067e-08
7.64879e-08
-0.000242991
-1.95165e-07
-1.94386e-07
-0.000270105
1.0718e-07
-0.000260767
1.07681e-07
-0.000261186
-0.000261058
-0.000261465
-1.49234e-07
-7.56438e-10
0.000265658
1.87329e-09
-0.000266427
-2.70476e-10
1.31933e-07
-0.000250215
-0.000249545
-1.98379e-07
2.33708e-09
-0.000265836
2.71813e-10
-3.39296e-09
-0.000249667
-0.000266439
6.52851e-09
-1.41636e-07
-1.01153e-09
0.000263978
-0.000264665
-0.000250741
-1.80639e-07
6.17334e-09
6.91348e-08
-0.00024553
-0.00026037
-1.23074e-08
-0.000250855
-0.000260462
6.98351e-08
-0.000245493
-0.000260354
-0.000260447
1.79445e-07
1.86722e-08
-2.03887e-08
-6.20904e-09
-1.00359e-07
-6.26276e-09
-5.25301e-09
2.00015e-07
-1.81235e-07
1.96003e-09
1.25921e-09
3.14604e-09
-1.21434e-06
-1.30533e-06
0.000270172
-0.000268138
2.55459e-07
2.30493e-07
-2.4979e-07
-0.00113283
-1.75775e-07
-1.25509e-06
2.42335e-07
-2.22996e-07
-8.34055e-07
2.34027e-07
-1.82106e-07
8.84325e-07
0.00113317
0.00113316
3.85056e-08
-0.00113369
1.8461e-07
-1.15431e-06
2.60543e-07
-1.99645e-07
-8.39778e-07
2.30425e-07
-1.9094e-07
8.89158e-07
1.22824e-06
-1.98645e-07
-1.94215e-07
0.000268141
1.19565e-06
-2.11868e-07
1.26838e-06
2.47857e-07
8.88324e-07
-1.86104e-07
-8.37993e-07
2.32687e-07
-9.07061e-08
-3.89701e-08
0.00113312
-0.00118733
1.24765e-08
-1.08324e-09
0.00118711
-0.000193024
-9.9425e-09
1.17623e-08
6.69848e-09
0.000193016
-2.02675e-08
3.45485e-09
9.77248e-05
-9.77079e-05
-8.3049e-10
5.62649e-09
9.76959e-05
-1.82557e-08
1.52163e-09
9.7711e-05
-9.76943e-05
2.58035e-09
4.97525e-09
9.76825e-05
1.23138e-06
1.19592e-06
0.000268134
-2.00664e-07
-2.04976e-07
-9.53718e-09
0.000277489
-3.95814e-08
-0.000277461
1.16457e-09
-1.30012e-08
0.000277408
-3.67785e-08
-0.000277378
1.33244e-09
1.50946e-09
-6.1649e-09
8.78077e-09
0.000277432
5.06869e-09
-5.75944e-09
1.53518e-08
0.000277354
4.74965e-09
1.37771e-08
9.96484e-11
-5.15797e-10
0.000228721
-3.83056e-08
-0.00019302
1.20906e-08
0.00019305
1.09074e-08
1.84039e-09
0.000192993
6.02938e-09
-5.71504e-08
-0.000228735
2.27525e-08
-3.59039e-09
0.000228767
1.42262e-08
-1.52646e-10
8.63417e-09
0.000228681
1.60175e-08
3.04402e-09
-1.14773e-08
0.00019294
-5.63351e-08
-0.000228696
2.2263e-08
7.98876e-09
0.000228728
1.3639e-09
4.74108e-09
1.34475e-07
0.000249717
-7.85867e-08
-7.53808e-08
1.27008e-06
-2.1042e-07
2.52369e-07
8.85345e-07
-1.84223e-07
2.31886e-07
-8.33109e-07
-1.06427e-07
-0.000244864
-8.89911e-09
0.000244931
-0.00115457
-7.56951e-08
-3.20381e-08
-9.25949e-07
7.98007e-07
-7.45897e-07
9.77946e-07
0.0011544
-4.60249e-09
6.44422e-08
0.000244849
-4.36974e-08
-6.03771e-08
9.79993e-07
-7.41067e-07
-9.21499e-07
8.00441e-07
2.20936e-09
-0.00024972
9.76644e-10
-1.85752e-07
0.000249845
5.23659e-09
1.34693e-07
0.000249691
7.98852e-09
-1.23083e-06
-4.46631e-08
8.84774e-07
-1.89555e-07
-8.38102e-07
2.28746e-07
1.26043e-06
-2.18534e-07
2.47288e-07
0.00113281
-0.0011545
-3.56221e-08
-9.30329e-07
7.96777e-07
-7.46921e-07
9.7849e-07
4.15546e-09
0.00115436
5.99761e-09
-8.79365e-09
6.85549e-08
0.000244748
-4.75619e-08
9.80969e-07
-7.44332e-07
-9.25189e-07
7.99649e-07
-0.000249691
8.63464e-09
-1.87422e-07
0.000249816
8.51956e-09
9.7679e-05
1.20045e-06
0.000268112
-2.02205e-07
-2.03767e-07
3.01277e-10
1.481e-08
0.000277306
-8.69069e-09
-3.87095e-09
3.96424e-09
1.15336e-08
0.000277428
-4.79864e-09
9.76901e-05
1.51416e-08
4.48629e-09
-8.63113e-10
-3.04111e-09
0.000228717
-0.000228733
-3.73243e-08
-0.000192994
9.10384e-09
1.60511e-08
2.39345e-10
0.000192974
-5.66688e-08
4.81632e-09
-0.000228732
-2.57655e-09
2.24475e-08
0.000228764
4.65924e-09
9.93711e-10
1.35141e-07
0.000249709
-0.000249835
-3.76899e-08
-6.25991e-08
1.22904e-06
-2.17101e-07
2.43189e-07
8.84795e-07
-1.9301e-07
2.28542e-07
-8.41587e-07
0.000244886
-1.04133e-07
-0.000244823
-8.92663e-09
-0.00115442
6.19184e-08
-8.13594e-08
-9.27228e-07
7.99419e-07
-7.44587e-07
9.82099e-07
0.00115452
-2.08662e-09
7.56113e-08
0.000244815
-1.48571e-09
-4.67129e-08
9.77774e-07
-7.46236e-07
-9.29009e-07
7.98247e-07
-0.00115452
4.25594e-09
-0.000249713
-1.70534e-09
-1.83323e-07
0.000249837
1.82829e-08
-5.41202e-09
7.39763e-09
0.00022868
-0.000228695
1.73808e-08
1.11838e-10
-8.2317e-09
0.000192924
-0.000192933
-5.56737e-08
-0.000228693
2.41094e-08
6.74756e-09
0.000228723
1.35926e-07
6.74274e-09
0.000249685
-0.000249804
-2.39699e-08
-1.22815e-06
-5.6101e-08
8.79447e-07
-1.87272e-07
-8.35362e-07
2.25651e-07
1.26308e-06
-2.16639e-07
2.49301e-07
-0.00113282
0.00113275
-0.00115439
-4.25602e-08
-9.27087e-07
7.9752e-07
-7.46337e-07
9.76277e-07
4.76324e-08
0.00115435
-4.62032e-08
9.75551e-07
-7.47416e-07
-9.25318e-07
7.96882e-07
-0.00115447
1.11183e-09
-9.06732e-09
7.27517e-08
0.000244743
-0.000244791
-0.000249688
-1.81952e-07
9.90542e-09
0.000249809
-1.39893e-08
5.12582e-09
1.21095e-09
1.33685e-07
0.000249708
2.53871e-08
-4.8074e-08
1.22065e-06
-2.15192e-07
2.33483e-07
8.78649e-07
-1.84768e-07
-8.31092e-07
2.28148e-07
0.0011333
-1.51951e-08
-7.04424e-09
6.75634e-08
0.000244844
6.79641e-08
-3.82163e-08
9.75742e-07
-7.42146e-07
-9.22295e-07
7.96569e-07
0.0011543
-6.90133e-09
9.36644e-09
-1.87748e-09
0.000228721
-1.41519e-08
0.000192989
-1.43935e-08
1.35037e-07
5.76366e-09
0.000249685
-8.69735e-08
-1.21311e-06
-8.88171e-08
8.82643e-07
-1.8689e-07
-8.33832e-07
2.32952e-07
1.26676e-06
-2.03054e-07
2.51082e-07
0.00113247
-5.00497e-08
9.75988e-07
-7.43188e-07
-9.23205e-07
7.95925e-07
0.00115426
-1.0949e-08
-1.25063e-08
1.31112e-09
6.9914e-08
0.000244793
-1.58377e-09
-5.59927e-09
0.000228684
-1.14178e-08
1.02838e-08
0.00019293
6.77942e-09
9.76727e-05
-9.76794e-05
1.19513e-06
0.0002681
-1.98846e-07
-2.02876e-07
-0.000270122
-1.50675e-09
1.32295e-08
0.00027731
-0.000277314
-6.88187e-09
1.0554e-09
5.86822e-10
1.4553e-08
0.000277425
-0.000277435
-2.06616e-09
9.76861e-05
-9.76909e-05
2.074e-09
-1.8141e-08
1.3496e-07
2.47005e-09
0.000249703
-0.000249824
5.54631e-09
-5.95919e-08
1.22055e-06
-2.16046e-07
2.38203e-07
8.812e-07
-1.88045e-07
-8.33751e-07
2.30213e-07
-0.0011333
0.00113322
4.84028e-08
-4.82763e-08
9.75687e-07
-7.42605e-07
-9.22575e-07
7.96442e-07
0.00115418
-0.00115428
-1.64813e-08
-4.94184e-09
6.94637e-08
0.000244842
-0.000244889
-1.82517e-08
1.3571e-07
2.24232e-09
0.000249678
-0.000249795
-6.85803e-08
-1.17712e-06
-9.92732e-08
8.8441e-07
-1.84848e-07
-8.31781e-07
2.3498e-07
1.22311e-06
-2.04175e-07
2.44644e-07
0.00113348
-5.95864e-08
9.76408e-07
-7.42964e-07
-9.22411e-07
7.9635e-07
0.00115412
-0.00115419
-1.14754e-08
-1.13783e-08
3.7775e-09
6.89128e-08
0.00024476
-6.55474e-09
8.45314e-09
-5.19374e-09
0.000228719
-0.000228734
-1.10111e-08
0.000192979
-0.000192986
-5.77317e-09
-2.75801e-09
0.000228681
-0.000228697
-1.07526e-08
9.25934e-09
0.000192924
0.000268109
-1.89825e-07
-1.97088e-07
2.16461e-09
-1.24776e-08
1.14686e-08
0.000277398
1.17522e-09
-1.18352e-08
1.06148e-08
0.000277318
9.76661e-05
9.76603e-05
-2.92223e-09
9.77156e-05
1.21331e-08
-6.0777e-10
9.77017e-05
6.64274e-09
-1.79801e-08
0.000277486
1.14082e-08
1.21204e-08
9.76732e-09
-1.21701e-08
0.000277398
6.9738e-08
2.55372e-09
0.000244838
6.18893e-09
7.89934e-05
-6.01884e-10
-0.000262405
1.93378e-08
0.000262442
-5.14353e-08
-2.94264e-09
2.16678e-08
-1.80671e-09
7.90121e-05
6.12281e-10
-7.90258e-05
-1.94798e-08
4.052e-09
7.90412e-05
-4.4302e-09
0.000262482
-0.000262493
1.85083e-08
3.99294e-09
1.01816e-08
-2.08108e-09
-3.64068e-08
0.000193044
-7.9034e-05
3.84569e-09
-4.87926e-08
3.33987e-09
0.000262518
-9.77149e-05
-2.71997e-09
9.70483e-09
-1.91584e-08
1.23188e-10
-9.77013e-05
-1.04939e-09
8.12348e-09
-1.77499e-08
-1.129e-09
-0.000213147
9.75909e-09
7.94838e-09
-1.73245e-08
-1.94955e-08
0.000213167
3.48564e-10
8.03117e-05
3.74898e-09
1.73899e-09
8.02995e-05
2.80049e-09
7.00619e-11
2.78197e-09
-3.94363e-09
8.03254e-05
-5.35031e-09
8.03128e-05
-1.89538e-09
1.09122e-08
0.000221403
-0.000221423
-3.64725e-09
1.5135e-08
-0.000250263
3.04425e-08
0.000250317
-8.55554e-08
-3.93305e-08
-1.44977e-08
8.51938e-09
-0.000277464
6.19397e-09
-0.000182522
-2.57341e-08
1.3544e-09
0.000182547
-0.000182531
-6.71598e-09
-0.0002503
3.9857e-08
1.67546e-08
1.76848e-08
0.000221438
-4.84298e-08
-4.03543e-09
4.68146e-09
0.000221336
-0.000221356
-9.50627e-10
2.07663e-08
-0.000250135
2.77741e-08
0.000250195
-8.21938e-08
-4.26972e-08
-9.24848e-09
1.0907e-08
-0.000277389
8.25249e-09
-0.000182469
-2.46883e-08
3.42499e-09
0.000182492
-0.000182477
-4.89196e-09
-0.000250183
4.71003e-08
1.6794e-08
1.66423e-08
0.000221373
-5.1138e-08
-0.000221386
2.84579e-08
-3.31042e-08
-5.00406e-08
3.49656e-09
0.000182501
-1.42844e-09
0.000250251
4.23269e-08
1.03301e-08
5.2776e-09
-4.19947e-08
-1.47389e-08
1.79854e-08
-8.24648e-08
-4.17569e-08
-0.000221326
2.62034e-08
-2.87836e-08
-4.74084e-08
3.21222e-09
0.000182452
-9.13362e-09
0.000250133
5.21505e-08
1.90107e-08
4.54625e-09
-3.98676e-08
-1.66762e-08
2.04966e-08
-8.00571e-08
-3.8321e-08
-3.35864e-11
-2.18901e-09
0.000213164
-8.03187e-05
-9.7457e-09
8.03298e-05
-8.03057e-05
-7.36115e-09
8.03165e-05
0.000213181
-0.000142886
5.89372e-09
-2.37605e-08
-3.842e-09
0.000142908
-3.60579e-09
0.000170498
5.73651e-09
-1.07261e-09
0.000222746
6.31868e-10
1.87486e-08
2.4516e-08
-1.29662e-09
0.000228752
5.37349e-09
-5.97131e-08
-2.01316e-09
0.000170522
6.05821e-09
2.83238e-09
0.000222779
-6.0865e-08
7.90194e-05
2.1444e-09
-7.90261e-05
4.55242e-09
7.36035e-09
-0.000193026
8.06672e-09
2.26632e-08
-0.00026246
2.69275e-09
-5.35132e-08
0.0002625
5.875e-09
7.90362e-05
-0.000262469
2.61738e-09
1.65183e-08
-7.90078e-05
-2.21363e-08
-3.33535e-09
0.000262429
1.85583e-08
5.36214e-09
-3.81712e-08
-5.39342e-08
0.000142905
5.43385e-09
1.78277e-09
-1.09833e-09
-3.08259e-09
5.7524e-09
1.57884e-08
-7.22833e-09
-0.00017052
5.99627e-09
0.000170544
2.26482e-08
-0.00022276
-5.93804e-08
0.000222796
0.000142926
6.13789e-09
1.98735e-08
-0.000142819
-5.38336e-09
-2.16369e-08
4.93696e-09
0.000142841
7.23199e-09
0.000170465
-2.79204e-09
0.000222648
1.03995e-08
1.76554e-08
2.41131e-08
8.82209e-09
0.000228713
-5.90601e-08
6.18178e-09
0.000170489
1.12716e-08
0.00022268
-5.66228e-08
-7.89616e-05
-1.39161e-08
7.89804e-05
-1.09041e-08
0.000262299
2.00269e-08
-6.54157e-09
9.5889e-09
-3.66225e-08
0.000192974
-4.75451e-08
0.000262338
-6.24954e-09
4.05154e-09
0.000142838
4.64153e-09
-1.52675e-09
8.12509e-09
1.65629e-08
-0.000170488
4.27849e-09
0.000170512
-0.000222664
2.01172e-08
-5.44946e-08
9.06641e-09
0.000222697
1.96387e-08
8.63967e-09
3.36864e-09
0.000142859
-1.35257e-08
9.77021e-05
-0.00021314
8.46755e-09
5.88462e-09
-1.99608e-08
-1.80849e-08
0.000213163
1.46471e-09
8.03011e-05
4.55831e-10
3.59335e-09
8.03124e-05
-1.61561e-09
1.43675e-09
4.40473e-11
-7.84083e-09
8.03174e-05
-1.0546e-08
8.03288e-05
-3.53048e-08
-0.000221299
2.56503e-08
-4.54902e-08
0.000221334
6.09198e-09
0.000182446
0.000250072
-4.42122e-09
1.19482e-08
4.82631e-08
-3.78087e-08
1.52436e-08
-2.31293e-08
0.000277338
-4.37409e-08
-7.85445e-08
0.000250121
1.99801e-08
0.00018248
-0.000221372
2.30066e-08
-3.01009e-08
-4.7967e-08
0.000221409
3.75839e-09
0.000182506
-5.39089e-09
0.000250242
4.28324e-08
1.46601e-08
1.58054e-08
-3.615e-08
8.54373e-09
-2.22497e-08
0.000277462
1.68584e-08
0.000182534
-7.93533e-08
-3.59476e-08
0.000250291
-1.20196e-08
9.77106e-05
-0.000142883
-2.28296e-08
3.81434e-09
-2.52643e-09
0.000142904
-2.13322e-09
0.00022274
4.96288e-10
1.97299e-08
-0.000222759
-1.85824e-09
0.000170492
3.57577e-09
-0.000170497
-1.04647e-09
2.3645e-08
0.000228749
4.7169e-09
-5.86549e-08
-1.10108e-09
-0.000142886
1.15113e-09
0.000222772
-5.76478e-08
0.000170516
3.61427e-09
7.90174e-05
3.91944e-09
-7.90243e-05
2.97166e-09
6.86892e-09
-0.000193004
1.11198e-08
2.06932e-08
-0.000262456
1.15589e-09
-5.01818e-08
4.0405e-09
-0.000262464
1.56332e-09
1.72517e-08
-7.90063e-05
-2.05257e-08
-4.70668e-09
0.000262426
2.16482e-08
5.94615e-09
-3.74443e-08
-5.10815e-08
0.000142901
2.59473e-09
3.24519e-09
-2.77201e-09
-1.64054e-09
5.03685e-09
1.65373e-08
2.19466e-08
-0.000222756
-5.63463e-08
0.000222789
-4.70915e-09
-0.000170514
3.1713e-09
0.000170538
0.000142923
1.82239e-08
3.50305e-09
-0.00014281
-3.00368e-09
-2.33033e-08
2.79012e-09
0.000142834
4.91695e-09
0.000170455
-0.000170462
-5.59078e-09
0.000222642
8.41231e-09
2.41129e-08
-0.000222662
2.52911e-08
7.97511e-09
0.000228711
-6.02101e-08
4.17883e-09
-0.000142815
0.000170481
9.40848e-09
0.000222678
-6.01874e-08
-7.89599e-05
-1.57833e-08
7.89785e-05
-9.52808e-09
0.000262299
2.31199e-08
-0.000262312
-2.96498e-09
6.33889e-09
-3.61094e-08
0.000192956
-7.89652e-05
-4.94474e-08
0.000262339
-3.44238e-09
6.0001e-09
0.000142829
2.17235e-09
-4.0014e-09
6.8733e-09
1.98685e-08
-0.000170477
1.2244e-09
0.000170503
-0.000222659
2.25361e-08
-5.628e-08
6.82471e-09
0.000222692
2.54137e-08
6.58439e-09
6.3633e-10
0.000142852
-0.000142888
-2.15368e-08
-9.45458e-09
8.22811e-09
0.000142911
-6.98135e-09
0.000222745
1.10828e-08
2.14655e-08
1.09113e-08
0.000170496
-9.95705e-09
1.14961e-08
2.24948e-08
-9.28004e-09
-5.46728e-08
0.000228751
8.68595e-09
1.34257e-08
-5.74313e-08
0.000222779
-1.00417e-08
0.000170519
-7.90032e-05
-1.28724e-08
7.90243e-05
-1.61651e-08
0.000262428
2.33867e-08
-1.03728e-08
-3.27092e-08
0.00019302
-4.85456e-08
0.000262466
-0.000142817
9.93715e-09
-2.35246e-08
-7.05321e-09
0.000142837
-8.45993e-09
0.000170463
-1.59309e-09
0.000222657
-6.47716e-09
1.83109e-08
2.30152e-08
-7.55814e-09
-5.48128e-08
0.000228714
-6.48724e-09
0.000170486
-6.70262e-09
-5.743e-08
0.00022269
-7.8962e-05
-2.35688e-08
7.89785e-05
-1.05241e-09
0.000262322
1.73948e-08
1.4122e-08
-3.40304e-09
-3.84086e-08
0.000192958
-5.13056e-08
0.000262357
-1.61102e-08
9.76951e-05
-0.000213142
9.06038e-09
6.40707e-09
-1.71423e-08
-1.73284e-08
0.000213161
1.10306e-09
8.02983e-05
2.37366e-09
-8.03018e-05
3.28474e-09
8.03149e-05
3.14916e-10
-8.03185e-05
1.73475e-10
7.69594e-10
-0.000213138
-5.68195e-09
8.0313e-05
-8.22822e-09
8.03296e-05
-3.19538e-08
-0.000221301
2.35694e-08
-4.26141e-08
0.000221335
4.378e-09
0.000182445
-0.000182448
0.000250078
-3.31533e-09
1.4978e-08
4.62268e-08
-0.000250123
-3.52002e-08
8.96672e-09
-2.29482e-08
0.000277343
-4.58738e-08
-7.57729e-08
0.000250133
1.83702e-08
-0.000221318
0.000182472
-0.00022138
2.49928e-08
-2.90356e-08
-4.74656e-08
0.000221414
6.11326e-09
0.000182508
-0.000182514
-6.60167e-09
0.000250242
4.57318e-08
2.0068e-08
-0.000250287
1.08917e-08
-3.79641e-08
1.09868e-08
-2.18992e-08
0.000277463
1.77103e-08
-0.000221397
0.000182536
-8.14943e-08
-4.06256e-08
0.000250297
-8.7292e-09
9.77058e-05
-0.000142883
-2.3188e-08
-6.8789e-09
6.01141e-09
0.000142907
-9.89515e-09
0.000222746
9.22694e-09
2.31557e-08
-0.00022276
8.54783e-09
0.000170494
-7.77799e-09
-0.0001705
1.00555e-08
2.36898e-08
-8.32874e-09
-5.57627e-08
0.000228749
6.66277e-09
-0.000142891
1.15735e-08
-5.61073e-08
0.000222777
-7.55647e-09
0.000170518
-7.90008e-05
-1.46936e-08
7.90215e-05
-1.48897e-08
0.000262428
2.41358e-08
-0.000262439
-6.77933e-09
-3.20568e-08
0.000193009
-7.9009e-05
-4.8048e-08
0.000262466
-0.000142814
-2.2531e-08
7.93656e-09
-5.83013e-09
0.000142834
-2.6738e-09
0.000222652
-6.73155e-09
1.9301e-08
-0.000222668
-6.77977e-09
0.00017046
-0.000170464
-7.11249e-09
2.20962e-08
-5.61431e-08
0.000228713
-5.59277e-09
-0.000142817
-6.30317e-09
-5.6491e-08
0.000222685
0.000170483
-7.89593e-05
-2.19952e-08
7.89754e-05
-2.39178e-09
0.000262315
1.80155e-08
1.2344e-08
-2.21286e-09
-3.76899e-08
0.000192952
-5.05324e-08
0.00026235
-0.000213137
1.12405e-08
8.14688e-09
-1.86272e-08
-1.8497e-08
0.000213155
2.39114e-09
8.02935e-05
7.26757e-09
1.53045e-09
8.02805e-05
6.4087e-09
3.44207e-09
3.95066e-09
-2.03727e-09
8.03068e-05
-3.36399e-09
8.0292e-05
-0.000221382
-2.65969e-08
2.74471e-08
-5.06023e-08
0.000221413
8.17289e-09
0.000182482
-7.79845e-09
0.000250224
1.46129e-08
4.3658e-08
-4.19647e-08
-1.06038e-09
1.92533e-08
-9.41384e-09
0.000277431
2.00199e-08
-3.89125e-08
-8.41817e-08
0.000250279
0.000182507
-0.000221317
-2.50553e-08
2.54359e-08
-4.98184e-08
0.000221348
5.97189e-09
0.00018243
-1.00465e-08
0.00025011
1.55538e-08
3.88051e-08
-4.22686e-08
4.3639e-10
1.78237e-08
-6.56683e-09
0.000277348
1.58834e-08
-3.33426e-08
-8.37642e-08
0.00025016
0.000182453
9.7682e-05
9.76759e-05
-1.94346e-08
4.49362e-09
9.77305e-05
-1.6895e-08
9.77165e-05
-0.00022142
2.38043e-08
-2.76299e-08
1.65151e-08
-4.60306e-08
0.000221454
-1.14231e-08
0.000250279
3.89324e-08
1.71687e-08
3.19662e-09
0.000182535
-8.86614e-09
-1.06754e-09
-3.6443e-08
0.000277509
-4.95449e-09
-5.13309e-09
1.47879e-08
-2.75651e-10
0.000182558
-7.86947e-08
0.00025033
-3.60101e-08
-0.00022135
2.22688e-08
-2.5914e-08
1.6265e-08
-4.78944e-08
0.000221386
-8.71347e-09
0.00025015
4.31274e-08
2.03891e-08
3.97803e-09
0.000182482
-6.54099e-09
-1.81753e-10
-3.7551e-08
-9.27809e-09
0.000277428
-1.51909e-09
1.94331e-08
2.09429e-09
0.000182502
-8.10309e-08
-3.87497e-08
0.000250206
-0.000213178
9.40179e-09
6.69148e-09
0.000213195
2.80155e-10
8.03206e-05
2.83195e-09
8.03071e-05
8.03298e-05
8.03159e-05
8.05971e-08
6.86954e-08
0.000242478
-0.000242591
-1.81958e-07
-2.09484e-07
-0.000270156
-0.000260584
1.10186e-07
0.000260886
-0.000260984
1.15791e-07
0.000261277
-0.000260868
-0.000261278
0.000242604
-0.00024249
-1.11913e-07
-1.11063e-07
0.000242619
-7.36273e-08
0.00026059
2.09234e-07
-7.50925e-08
0.00026099
2.40837e-07
2.40395e-07
-1.24173e-06
0.00027017
-2.50121e-07
0.000260891
0.000261286
-5.40725e-08
-7.19334e-08
-0.00121912
-1.84929e-07
-2.13614e-07
0.0012195
-0.00121945
1.97759e-07
1.71919e-07
0.001219
-4.55244e-08
-7.53436e-08
6.76824e-09
-7.69707e-09
-0.00121957
0.00125552
-4.45775e-08
1.15336e-08
-0.00125552
-1.7581e-07
1.57878e-07
0.00125555
3.28545e-08
1.96931e-08
0.00118719
-0.001219
1.1091e-09
-5.03386e-08
0.0012188
6.41156e-09
3.19381e-08
4.74685e-08
0.0012195
0.00125549
2.32238e-08
-0.00125552
5.66469e-08
-5.5012e-08
0.00125531
-3.69086e-09
7.19633e-09
-0.00118715
0.00118703
-0.00121873
4.67412e-08
4.52756e-08
0.00121876
2.14845e-08
-0.00121881
4.05235e-09
3.32179e-08
0.00121924
-0.00121932
0.00125496
3.96855e-09
-0.00125493
-1.38258e-08
2.68813e-08
0.00125515
-6.466e-08
-5.24303e-08
0.00118702
2.54347e-09
0.00121862
-1.06622e-08
0.00121913
-0.0012192
0.00125485
-0.00125483
-1.51111e-09
2.99794e-08
0.00125486
-0.000242466
-1.12727e-07
-1.09834e-07
2.36919e-07
2.40353e-07
-7.34996e-08
0.000260574
-8.2261e-08
0.000260984
-0.000265558
2.06423e-07
-8.59839e-09
1.34539e-08
0.000266327
1.49944e-07
0.000249096
8.53956e-09
9.78738e-09
0.000265796
-3.39436e-09
4.19788e-09
-1.90821e-07
0.000249842
1.88104e-09
1.41615e-08
1.08967e-08
0.000249235
0.000266399
-1.40954e-09
5.97024e-09
-1.41401e-07
0.000263776
-0.000264466
-8.15294e-09
-0.000260042
-1.90195e-08
0.00026015
6.94145e-08
-1.18235e-09
-0.000244918
-0.00025021
-1.86229e-07
-5.7297e-09
0.00025034
-0.000260132
-0.000250333
-3.83274e-09
-1.72706e-08
0.000264472
2.0277e-08
-0.000263775
1.87411e-07
1.35553e-07
0.000250204
0.000260029
-4.10544e-09
-1.06744e-07
-1.53548e-08
-1.51307e-07
-6.2281e-09
0.000265551
1.79834e-09
1.3392e-07
2.17437e-09
-0.000249102
-2.02088e-07
0.00024924
-0.000265784
5.1753e-09
-3.86784e-09
0.000266395
-3.88895e-09
0.000266314
-0.00026549
2.02446e-07
-3.35787e-09
1.15768e-08
0.00026626
1.50664e-07
0.000249009
9.92515e-09
-8.2597e-10
0.00026578
7.68668e-09
-1.90272e-07
0.000249817
2.58084e-09
1.41618e-08
0.000249149
0.000266385
-0.000263684
1.79502e-07
2.32626e-08
0.000264378
1.37505e-07
0.000250095
-5.67371e-10
0.000259921
-2.29802e-08
-1.01776e-07
0.000244813
0.000250218
0.000260028
-1.52958e-07
-2.02433e-09
0.000265478
6.20843e-09
7.06256e-09
1.37163e-07
-0.000249011
-2.00028e-07
1.41572e-08
0.000249151
-0.000265769
5.58638e-09
0.000266369
1.11117e-08
1.45066e-08
0.000266248
-1.11016e-07
-0.00024244
-1.06282e-07
0.000242563
2.32131e-07
2.41589e-07
0.000270119
0.000260918
-7.56542e-08
-7.93441e-08
0.000260569
0.000261208
0.000260858
-1.46829e-07
0.000263774
-5.70846e-09
-0.000250185
-1.79037e-07
0.000250309
-8.7243e-09
-3.13091e-09
0.000264478
-2.26928e-08
-0.000265549
2.03758e-07
-3.98478e-09
1.93301e-08
0.000266308
1.52704e-07
0.000249086
2.84346e-10
-0.000249218
2.39124e-09
0.000265783
6.32752e-09
-0.000266403
1.05562e-09
-1.87911e-07
0.000249833
4.07196e-09
-1.07008e-08
-0.000266313
5.80663e-09
0.000249227
0.00026639
2.79112e-10
-2.33025e-09
-1.40687e-07
0.000263764
-0.000264475
1.38107e-08
-0.000260006
-1.63334e-08
0.000260106
6.90157e-08
4.39489e-09
-0.000244877
-0.000250194
-1.86609e-07
-4.72014e-09
0.000250326
-0.000260113
-0.000250313
4.07244e-10
-6.04043e-09
0.000264456
1.6413e-08
-0.00026377
1.83221e-07
1.42154e-07
0.000250186
0.000260012
2.07793e-09
-1.04962e-07
-1.12861e-08
-1.53788e-07
4.86054e-09
0.000265544
-2.31959e-09
1.33991e-07
5.39573e-09
-0.00024909
-2.02185e-07
0.000249229
-0.000265776
-2.9285e-09
3.19488e-09
0.000266392
7.89352e-09
0.000266315
-0.000265483
-6.81858e-09
2.03947e-07
1.35587e-08
0.000266247
4.46106e-09
0.000265768
-0.000266378
1.54453e-07
0.000249001
9.39e-09
-0.000249134
-1.86827e-07
8.80578e-09
0.000249807
7.30092e-09
-0.000266256
0.000266372
1.35741e-08
0.00024914
-0.000263684
1.83498e-07
2.1302e-08
0.000264373
1.43592e-07
0.000250091
-0.000250211
-3.59574e-09
0.000259926
-0.000260022
-1.86951e-08
-1.02558e-07
0.000244806
-0.000264372
0.00025022
0.000260025
-7.60793e-09
-1.56359e-07
0.000265476
7.85766e-09
1.35209e-07
8.31224e-09
-0.000265761
1.00006e-08
0.00026637
-0.000249007
-1.99296e-07
1.35744e-08
0.000249147
1.04619e-08
1.60483e-08
0.000266247
-0.00026554
2.02113e-07
1.24526e-09
1.20207e-08
0.000266301
1.51042e-07
0.000249086
4.90586e-09
-6.49167e-09
0.00026578
1.70434e-08
4.57966e-09
-1.86541e-07
6.10688e-10
0.000249834
-1.18419e-08
1.0013e-08
0.000249225
5.90451e-09
0.000266385
-0.000263771
1.42961e-08
1.8021e-07
0.000264467
1.36948e-07
0.000250197
2.9388e-09
0.000260029
-1.02625e-07
-1.74771e-08
0.000244909
0.000260133
0.000250322
-0.000265487
-1.29676e-08
2.02118e-07
1.51418e-08
0.000266258
1.43593e-08
0.000265767
1.52719e-07
0.000249014
4.6394e-09
-1.85806e-07
3.72262e-09
0.000249813
1.43261e-08
0.00026637
5.29487e-09
0.000249157
-0.0002637
1.8376e-07
2.15487e-08
0.000264393
1.40497e-07
0.000250117
-6.62749e-09
0.000259974
-6.29636e-09
-1.07331e-07
0.000244858
0.000250249
0.000260082
-1.11124e-07
-0.000242441
-1.04027e-07
0.000242566
2.30397e-07
2.42351e-07
0.000270111
0.000260917
-7.56196e-08
-0.000261211
-7.70895e-08
0.000260567
-0.000260863
0.00026121
-0.000242558
0.000260862
-0.000265534
-2.87581e-10
2.03529e-07
1.40501e-08
0.000266292
-1.63606e-09
0.000265766
5.86668e-09
-0.000266378
1.54854e-07
0.000249085
2.03222e-09
-0.000249216
-1.85614e-07
4.73722e-09
-1.99693e-10
0.000249828
-9.60766e-09
-0.000266294
8.92748e-09
0.000266368
1.18446e-08
0.000249225
-0.000263761
1.75286e-08
1.81509e-07
0.000264457
1.4048e-07
0.000250194
-0.000250313
4.80516e-09
0.000260023
-0.000260126
-1.00815e-07
-1.55617e-08
0.000244904
-0.000264459
0.000260129
0.000250323
-0.00026548
-1.20276e-08
2.01979e-07
2.84736e-08
0.000266238
6.42604e-09
0.000265761
-0.000266369
1.52803e-07
0.000249005
-9.49868e-10
-0.000249135
-1.85418e-07
1.82941e-09
0.000249805
-8.26204e-09
-0.000266234
0.000266369
5.15001e-09
0.000249147
-0.000263704
1.84311e-07
2.01828e-08
0.000264412
1.39728e-07
0.000250105
-1.69057e-10
0.000259957
-4.62051e-09
-1.08101e-07
0.000244829
0.000250239
0.00026007
-0.000242459
-1.14046e-07
-1.08886e-07
0.000242581
2.34555e-07
2.48229e-07
0.000270116
-7.19557e-08
0.000260551
-7.2456e-08
0.000260958
0.000260838
0.000261258
1.85146e-07
-0.000263765
1.84091e-08
-8.28921e-09
0.000264458
2.59835e-09
0.000260007
0.000250205
1.42317e-07
-4.6567e-10
-5.58468e-09
-1.05838e-07
0.000244903
-2.5644e-09
0.000250338
-1.5144e-09
0.000260114
-5.95031e-08
3.55331e-09
-0.000228703
1.61859e-10
2.59877e-08
-9.92084e-09
-1.3863e-08
-9.76556e-05
1.21874e-06
-4.67786e-08
2.31388e-07
-1.87127e-07
-1.19423e-06
2.38455e-07
-2.15647e-07
5.38625e-09
-8.32869e-07
8.82612e-07
2.21243e-08
3.25149e-08
-0.000244827
-1.02646e-07
-1.36598e-08
3.02328e-10
-0.00024971
1.39534e-09
-1.86442e-07
-7.90662e-08
1.32742e-08
-9.37109e-07
7.99066e-07
-7.4887e-07
9.75876e-07
-5.88374e-08
-0.000228668
2.76599e-08
7.35445e-09
-3.55988e-08
-0.000192901
-6.59396e-09
-0.00024968
-1.88467e-07
5.50526e-09
1.61383e-08
1.25961e-06
-5.14555e-08
-8.35478e-07
2.27808e-07
8.82282e-07
-1.85067e-07
-1.23463e-06
2.45822e-07
-2.204e-07
-3.72775e-08
-9.26658e-07
8.012e-07
-7.46476e-07
9.80182e-07
2.48937e-08
-0.000244729
-1.82175e-08
-1.03965e-07
-0.000268115
2.3131e-07
2.4054e-07
-0.000277281
1.30594e-08
-3.51466e-08
9.94257e-09
-0.000277397
1.30848e-08
-3.86396e-08
-1.08181e-08
-9.76701e-05
-0.000192957
-8.08211e-09