/*--------------------------------*- C++ -*----------------------------------*\
| =========                 |                                                 |
| \\      /  F ield         | OpenFOAM: The Open Source CFD Toolbox           |
|  \\    /   O peration     | Version:  v2006                                 |
|   \\  /    A nd           | Website:  www.openfoam.com                      |
|    \\/     M anipulation  |                                                 |
\*---------------------------------------------------------------------------*/
FoamFile
{
    version     2.0;
    format      ascii;
    class       volVectorField;
    location    "1000";
    object      U;
}
// * * * * * * * * * * * * * * * * * * * * * * * * * * * * * * * * * * * * * //

dimensions      [0 1 -1 0 0 0 0];


internalField   nonuniform List<vector> 
14404
(
(-7.43128e-06 1.03983e-05 0.107489)
(-1.1296e-05 5.77652e-06 0.107487)
(2.56727e-05 -2.72001e-05 0.104195)
(-1.14171e-05 1.04326e-05 0.112481)
(2.28284e-06 -3.07735e-06 0.0715648)
(2.06078e-06 -4.5241e-06 0.0930059)
(4.31692e-06 -2.18361e-06 0.0822415)
(1.61168e-06 1.68829e-07 0.0913786)
(-1.29978e-05 2.04683e-06 0.109911)
(4.42861e-06 -2.568e-06 0.0930051)
(3.06638e-06 6.326e-08 0.0985127)
(5.33535e-07 -3.70444e-06 0.0875588)
(3.55703e-06 -5.53436e-07 0.087561)
(3.1732e-06 -2.24198e-06 0.0715661)
(2.27632e-06 -4.1781e-06 0.0822417)
(2.91559e-06 -4.08623e-07 0.0858329)
(2.62265e-06 2.11456e-07 0.0684323)
(1.76198e-06 5.90796e-07 0.0786695)
(1.97919e-06 -1.90281e-07 0.0898975)
(2.15958e-06 -1.99114e-07 0.0768943)
(5.21928e-06 -2.61434e-06 0.0962694)
(1.4631e-06 -3.09441e-06 0.0815692)
(3.78117e-06 -1.38547e-06 0.0916712)
(-5.7248e-06 1.0859e-05 0.0917121)
(1.74589e-06 -5.61029e-06 0.0962723)
(3.1528e-06 -1.39578e-06 0.0815741)
(-3.2917e-06 6.47481e-06 0.0875962)
(-1.01958e-05 1.59342e-05 0.0963126)
(9.42192e-07 -4.11638e-06 0.0916777)
(-2.33497e-07 4.3744e-06 0.0816062)
(1.48851e-06 -2.36207e-06 0.0683395)
(2.52875e-06 -1.33641e-06 0.0683455)
(6.12854e-07 -5.94721e-07 0.0836231)
(-6.1942e-07 3.01711e-06 0.0716021)
(6.73617e-07 7.93539e-06 0.0822813)
(-4.34029e-08 7.86737e-06 0.0858762)
(-1.61668e-05 1.53188e-05 0.0975829)
(3.52139e-06 -2.91622e-05 0.101432)
(2.78017e-05 -4.60201e-06 0.101435)
(-4.49655e-05 4.35172e-05 0.104309)
(-4.30979e-05 1.78692e-05 0.101499)
(4.01669e-06 -4.98611e-06 0.0975351)
(-1.8806e-05 4.18377e-05 0.101495)
(-1.18693e-05 2.64744e-06 0.115028)
(-5.67402e-06 5.21027e-05 0.10142)
(-1.11023e-06 -3.38542e-05 0.0995232)
(-3.2986e-06 1.4734e-05 0.0930542)
(-7.118e-06 4.84895e-05 0.0995808)
(-2.54492e-06 1.74509e-05 0.0956598)
(3.34037e-05 -6.21898e-08 0.0995213)
(5.23704e-06 5.33292e-07 0.0955991)
(3.37859e-05 1.80566e-06 0.101317)
(2.86131e-05 4.40675e-07 0.103514)
(3.65422e-06 7.95729e-07 0.0975521)
(2.99717e-05 1.8482e-06 0.10286)
(-8.3483e-07 -1.03856e-05 0.0914213)
(4.13077e-07 -6.39834e-06 0.0822862)
(-7.21805e-06 1.49348e-06 0.0822863)
(-1.81479e-06 -1.66402e-06 0.0715978)
(-2.2709e-06 -5.4976e-07 0.0715985)
(-4.39704e-05 -4.57892e-05 0.104315)
(-3.32477e-06 -6.67213e-06 0.087602)
(-7.32882e-06 -2.53784e-06 0.0876003)
(-6.12475e-07 -1.94236e-05 0.0985699)
(-6.33831e-06 -1.29931e-05 0.107488)
(-1.7621e-06 -1.50061e-05 0.093062)
(-2.57324e-06 -1.39242e-05 0.109906)
(-1.15482e-05 -8.57489e-06 0.10749)
(-1.53239e-05 -1.45646e-06 0.0930617)
(4.27549e-07 2.82729e-06 0.076903)
(-7.70621e-07 2.12446e-06 0.0913878)
(-3.69148e-07 -4.14419e-06 0.0787063)
(4.51093e-07 -1.01952e-05 0.0899449)
(-6.98087e-07 2.33485e-06 0.0786794)
(6.27386e-07 2.416e-06 0.0899068)
(1.44269e-06 -3.86619e-06 0.0769342)
(-6.41124e-07 3.15144e-06 0.0684313)
(-3.63359e-07 -7.59188e-06 0.0858826)
(2.72963e-06 5.65765e-06 0.082248)
(4.91086e-07 3.29269e-06 0.0858399)
(2.97034e-07 -2.36583e-06 0.0684722)
(4.791e-06 3.6693e-06 0.0822481)
(-2.83642e-06 7.28082e-07 0.0716027)
(2.80027e-06 3.60604e-06 0.0715641)
(2.85753e-06 3.94244e-06 0.0715645)
(-9.57292e-07 6.87482e-08 0.0836286)
(-1.72358e-06 -3.75906e-07 0.0683661)
(-1.18769e-06 -5.79822e-07 0.06836)
(2.28778e-06 2.45388e-06 0.0683372)
(1.50573e-06 3.47556e-06 0.0683308)
(-6.12107e-06 -4.89134e-06 0.0836574)
(2.24862e-06 3.93873e-06 0.0916864)
(-7.63503e-07 -2.44143e-06 0.081606)
(4.29175e-06 3.01449e-07 0.087567)
(-8.92e-06 -1.65473e-05 0.0963216)
(3.67024e-06 3.4988e-06 0.0815754)
(-4.8568e-06 -1.07958e-05 0.0917208)
(3.30762e-06 5.14941e-06 0.0962807)
(3.95571e-06 2.26704e-06 0.0916794)
(-3.66854e-06 2.18287e-07 0.0816)
(-1.45776e-07 4.86429e-06 0.0875656)
(-1.6159e-05 -9.33315e-06 0.0963187)
(2.41587e-06 4.56822e-06 0.0815689)
(-1.12208e-05 -4.45719e-06 0.091714)
(5.78718e-06 2.44755e-06 0.0962782)
(-2.91613e-06 -1.00639e-06 0.0684749)
(-7.75989e-06 -5.25276e-07 0.0822817)
(-7.76434e-06 1.94589e-07 0.0858758)
(-4.36384e-06 -1.50358e-06 0.076929)
(-1.06548e-05 2.51647e-07 0.0914127)
(-4.57616e-06 4.4371e-07 0.0786995)
(-1.04049e-05 -2.82082e-07 0.0899366)
(-1.10648e-05 5.45645e-06 0.0917053)
(-6.40022e-06 3.24735e-06 0.0875946)
(-4.28045e-06 3.9137e-07 0.0816006)
(-1.61303e-05 9.53187e-06 0.0963094)
(-4.832e-06 4.94995e-06 0.0836528)
(-1.01829e-06 1.13342e-06 0.0683692)
(-9.12582e-07 1.20271e-06 0.0683755)
(4.62056e-06 3.61098e-06 0.0975442)
(2.66939e-05 2.49008e-05 0.104199)
(-4.20597e-05 -1.98107e-05 0.101506)
(-1.85068e-05 -4.34893e-05 0.101503)
(-1.56795e-05 -1.63398e-05 0.0975922)
(2.88742e-05 2.67822e-06 0.101442)
(4.12171e-06 2.72077e-05 0.101439)
(-1.36166e-06 2.98183e-05 0.102863)
(-3.75798e-07 3.43953e-06 0.0985181)
(-4.89324e-07 -1.94972e-05 0.0976185)
(-5.34188e-07 -5.23626e-05 0.103609)
(-9.11683e-08 4.02241e-06 0.0975587)
(-5.72839e-07 2.85231e-05 0.103516)
(-1.62602e-06 -5.33201e-05 0.102978)
(-1.20822e-06 3.34832e-05 0.101322)
(-1.18013e-06 -1.74578e-05 0.0956677)
(4.3622e-06 4.4975e-06 0.0930134)
(-5.70217e-06 -4.95821e-05 0.0995873)
(6.59206e-07 5.61256e-06 0.0956064)
(7.02364e-07 3.30538e-05 0.0995295)
(-4.03024e-06 -5.31666e-05 0.101425)
(4.3646e-06 4.19616e-06 0.0930138)
(-4.90413e-05 -6.60425e-06 0.099587)
(3.37163e-05 -5.87267e-07 0.0995295)
(-5.24416e-05 4.4327e-06 0.101419)
(-1.479e-05 2.99765e-06 0.0930536)
(-1.74485e-05 2.02921e-06 0.0956598)
(-4.88756e-05 6.14495e-06 0.0995788)
(-5.28308e-05 1.85596e-06 0.102975)
(-1.9344e-05 5.85494e-08 0.0985636)
(-5.18861e-05 9.41774e-08 0.103607)
(-1.94415e-05 8.43435e-07 0.0976116)
(-4.63039e-05 -4.50609e-05 0.104334)
(-5.80892e-06 -7.77558e-06 0.107606)
(-9.03857e-06 -4.09245e-06 0.107606)
(2.74591e-05 2.84643e-05 0.10421)
(-9.15445e-06 -4.60487e-06 0.107601)
(-6.74745e-06 -5.0843e-06 0.112792)
(2.95628e-06 3.51647e-06 0.0819715)
(1.45986e-06 -5.29883e-06 0.0713502)
(3.16504e-06 6.21305e-07 0.0713018)
(-4.77865e-06 6.77032e-07 0.071349)
(9.11148e-07 2.82329e-06 0.071301)
(2.78181e-05 2.93206e-05 0.104212)
(-2.68192e-06 -8.40262e-06 0.0873405)
(-7.93515e-06 -3.30926e-06 0.0873382)
(1.91099e-06 -6.76596e-07 0.0872955)
(-4.44048e-07 2.0852e-06 0.0872934)
(1.11966e-06 -4.81146e-07 0.0911292)
(2.34205e-06 -1.03946e-05 0.0820026)
(1.67843e-06 2.65391e-06 0.0819517)
(2.01617e-06 -1.20925e-05 0.0911675)
(2.60086e-06 -2.94585e-07 0.0911291)
(2.38782e-06 3.75157e-06 0.0819535)
(2.79049e-06 -1.18241e-05 0.0911676)
(-5.55029e-07 1.35597e-06 0.0983671)
(-5.24898e-06 -7.96296e-06 0.107611)
(-4.24328e-06 -1.61666e-05 0.0928276)
(-3.86077e-06 -7.41301e-06 0.110114)
(-6.44037e-07 3.48087e-06 0.0927732)
(-4.01354e-06 -8.29473e-06 0.110121)
(6.03025e-07 -2.04858e-05 0.0984186)
(1.18343e-06 1.50505e-06 0.0983666)
(1.51698e-06 -6.49281e-06 0.107605)
(-4.95003e-07 -6.65973e-06 0.110111)
(3.36389e-06 4.29066e-06 0.0927697)
(-1.98626e-06 -7.63385e-06 0.11012)
(2.46715e-06 -2.01647e-05 0.0984181)
(5.7172e-07 2.09002e-06 0.0713009)
(-2.99271e-05 3.11622e-05 0.104207)
(7.77803e-07 1.03299e-06 0.0872894)
(-1.29261e-06 -7.46604e-07 0.0872921)
(-3.02175e-06 -1.41416e-06 0.0713019)
(4.08376e-08 1.02681e-06 0.0911292)
(-1.00488e-05 1.41151e-06 0.0820031)
(2.825e-06 1.28815e-06 0.0819524)
(-1.19743e-05 1.41989e-06 0.0911679)
(1.81909e-06 4.89989e-07 0.0983661)
(-9.07552e-06 -3.90628e-06 0.107611)
(-1.58689e-05 -4.44288e-06 0.0928277)
(-8.3596e-06 -1.44762e-06 0.110113)
(3.72538e-06 7.87822e-08 0.0927727)
(-8.72591e-06 -1.94038e-06 0.110121)
(-2.02907e-05 9.43421e-07 0.0984193)
(2.49135e-07 2.25272e-06 0.0911287)
(3.93421e-06 1.34233e-06 0.0819521)
(-1.16797e-05 2.15846e-06 0.0911679)
(2.10353e-06 1.86348e-06 0.0983658)
(-7.09312e-06 3.08758e-06 0.107604)
(-7.448e-06 1.75257e-06 0.11011)
(-7.98413e-06 1.91352e-07 0.110118)
(5.16228e-06 2.47392e-06 0.0927699)
(-1.98604e-05 2.61522e-06 0.0984186)
(-2.33076e-06 6.3679e-07 0.0983652)
(7.24399e-06 5.25388e-07 0.107607)
(-4.25385e-06 -1.98979e-06 0.0927706)
(7.52543e-06 4.31303e-06 0.110119)
(-4.91924e-07 -3.15951e-06 0.0911295)
(-4.84819e-06 -3.06657e-06 0.081955)
(-2.70069e-06 2.01432e-06 0.0983657)
(8.8715e-06 8.21089e-06 0.107609)
(7.93349e-06 7.68486e-06 0.110118)
(-3.54487e-06 -2.60592e-06 0.092775)
(-3.93411e-07 -2.23926e-06 0.0911298)
(-2.76625e-06 -4.52963e-06 0.0819523)
(1.63812e-06 -7.6556e-07 0.0713014)
(3.05789e-05 -2.93275e-05 0.104205)
(1.00855e-06 -2.67372e-07 0.0872909)
(3.40362e-07 -1.2982e-06 0.0872921)
(-1.06786e-07 -2.50406e-06 0.0713006)
(-3.89073e-08 -2.94578e-06 0.0983641)
(-1.07219e-06 7.80659e-06 0.107605)
(2.18541e-06 7.7985e-06 0.110117)
(-1.12264e-06 -5.14889e-06 0.0927703)
(9.53366e-07 -3.14628e-06 0.0983645)
(6.69684e-06 9.83335e-06 0.10761)
(5.79037e-06 8.2652e-06 0.110118)
(-3.37213e-06 -3.47267e-06 0.0927753)
(-2.84521e-06 -1.05807e-06 0.0911291)
(-2.06846e-06 -4.946e-06 0.0819526)
(-2.19318e-06 -9.25096e-07 0.0911297)
(-4.19747e-06 -3.19839e-06 0.0819533)
(-2.78716e-05 -2.66479e-05 0.104213)
(1.31203e-06 -4.61728e-06 0.0872951)
(-4.68552e-06 1.2671e-06 0.0872943)
(-8.9321e-07 -4.88252e-06 0.0712942)
(-4.56611e-06 -1.27799e-06 0.0712944)
(5.47896e-06 6.16072e-07 0.0713178)
(1.1716e-06 4.58134e-06 0.0713166)
(5.18184e-06 -1.22932e-06 0.0873117)
(-6.34507e-07 4.41207e-06 0.0873091)
(3.8882e-06 2.53529e-06 0.0927847)
(1.81725e-06 -5.6412e-07 0.0681556)
(-9.54672e-06 -9.95435e-07 0.0855826)
(1.63342e-06 -6.83336e-07 0.0855389)
(-4.13732e-06 1.3799e-06 0.0682021)
(-3.67867e-06 2.77242e-06 0.0682286)
(1.58962e-06 1.68569e-06 0.085565)
(-9.38583e-06 1.83092e-06 0.0820118)
(1.91636e-06 1.60394e-06 0.0681851)
(-9.20677e-06 1.30848e-06 0.0856081)
(4.75437e-06 3.7404e-07 0.0713115)
(2.25257e-07 -5.30686e-06 0.0713422)
(8.24873e-07 4.09169e-06 0.0713104)
(-4.9238e-06 -2.84361e-07 0.0713413)
(-3.97242e-06 -4.50231e-06 0.0834039)
(1.56682e-06 -3.51794e-07 0.0681179)
(3.1177e-07 1.07208e-06 0.0681166)
(1.11402e-06 8.85709e-07 0.0833735)
(-1.68172e-06 -3.27171e-06 0.0681528)
(-2.49756e-06 -2.36263e-06 0.0681512)
(-1.94252e-07 2.58431e-06 0.0914563)
(-1.0743e-05 -1.78896e-05 0.0961376)
(3.6596e-06 -1.14163e-06 0.0873042)
(3.73141e-08 -7.68483e-06 0.0813518)
(3.2281e-06 -1.4888e-06 0.0813178)
(1.26823e-06 4.06757e-06 0.0960974)
(-6.83195e-06 -1.28173e-05 0.0914911)
(2.61756e-06 -6.21362e-08 0.0914509)
(-1.7984e-05 -1.03597e-05 0.096133)
(-7.8358e-07 3.2664e-06 0.0873018)
(-7.15194e-06 -8.03559e-07 0.0813493)
(-1.0519e-06 2.54872e-06 0.0813154)
(3.84914e-06 1.98703e-06 0.0960922)
(-1.25913e-05 -6.96767e-06 0.0914857)
(-7.96612e-06 -1.27353e-05 0.091485)
(1.73628e-06 -1.43521e-06 0.0813088)
(5.56517e-07 3.91809e-06 0.0960938)
(-4.42079e-06 -8.08153e-06 0.0873324)
(-1.20865e-06 2.7829e-06 0.0914501)
(-1.24444e-06 -8.04159e-06 0.0813441)
(-1.17249e-05 -1.80927e-05 0.0961339)
(-1.29276e-05 -7.51066e-06 0.0914797)
(-1.19777e-06 1.45454e-06 0.0813066)
(3.61339e-06 1.90856e-06 0.0960881)
(-7.82058e-06 -4.56433e-06 0.0873303)
(2.27495e-06 -3.71187e-07 0.091445)
(-7.76066e-06 -1.76036e-06 0.0813417)
(-1.83693e-05 -1.06577e-05 0.0961286)
(1.23751e-06 5.49081e-07 0.0833805)
(-8.54083e-07 -3.03351e-06 0.0681575)
(-2.11604e-06 -1.82589e-06 0.0681554)
(2.4402e-06 -3.18957e-07 0.0681249)
(5.37794e-07 1.59365e-06 0.068123)
(-3.97827e-06 -4.8036e-06 0.08341)
(2.92837e-06 -6.33537e-06 0.0766384)
(2.19333e-06 3.22392e-07 0.0783771)
(-6.29003e-07 3.5559e-07 0.0896331)
(1.4836e-06 -1.29547e-05 0.091162)
(9.5238e-07 5.06994e-07 0.0766044)
(2.67238e-06 -6.28073e-06 0.0784063)
(-1.16824e-07 -1.23289e-05 0.0896712)
(2.29424e-06 1.28105e-06 0.068178)
(3.41495e-06 2.2915e-06 0.0819617)
(1.54702e-06 -9.99072e-06 0.0856008)
(4.05866e-06 -4.41415e-06 0.0682233)
(1.48333e-06 1.02086e-06 0.0855564)
(3.15241e-06 -4.57314e-06 0.068214)
(1.09364e-07 1.14978e-06 0.0855471)
(7.8226e-07 -1.03571e-05 0.0819929)
(1.03914e-06 1.2696e-06 0.0681673)
(2.02628e-07 -1.0002e-05 0.0855915)
(2.31233e-06 7.36658e-07 0.0766147)
(1.7475e-06 2.22966e-07 0.0911346)
(2.81319e-06 -5.81613e-06 0.0784166)
(1.22822e-06 -1.18737e-05 0.0896779)
(4.04402e-06 -5.93992e-06 0.0766485)
(2.56113e-06 6.02778e-07 0.0783875)
(6.28877e-07 7.10294e-07 0.0896397)
(2.2626e-06 -5.64954e-06 0.0766408)
(2.77364e-06 4.71646e-07 0.0783777)
(4.25768e-06 9.76916e-07 0.0896333)
(2.75444e-06 -1.27161e-05 0.0911619)
(3.90148e-06 1.10078e-06 0.0766066)
(2.55771e-06 -6.09894e-06 0.078407)
(4.18692e-06 -1.15785e-05 0.0896707)
(1.50724e-06 -3.36004e-06 0.0682153)
(3.91271e-06 2.6949e-06 0.0855461)
(3.5379e-06 -8.86249e-06 0.0819969)
(3.27909e-06 2.354e-06 0.0681685)
(4.06668e-06 -8.34905e-06 0.0855899)
(3.08746e-06 1.50758e-06 0.0766175)
(2.83889e-06 4.83425e-07 0.0911346)
(2.32264e-06 -5.58893e-06 0.0784175)
(3.50345e-06 -1.09711e-05 0.0896776)
(2.71808e-06 8.16488e-07 0.0783884)
(3.79638e-06 1.55031e-06 0.08964)
(1.39809e-06 -5.10465e-06 0.0766511)
(3.73598e-06 -3.48317e-06 0.0713466)
(3.7967e-06 -4.51486e-06 0.0834028)
(-8.52671e-07 3.85639e-07 0.0681151)
(-1.43267e-06 -2.46472e-07 0.0681202)
(-1.0692e-06 7.79758e-07 0.0833702)
(2.5437e-06 -2.47009e-06 0.0681528)
(1.35221e-06 -3.85868e-06 0.0681573)
(8.60339e-06 -1.15993e-05 0.0914752)
(5.71064e-07 -1.24116e-08 0.081305)
(1.18373e-07 5.30417e-06 0.0960823)
(7.41954e-06 -6.12227e-06 0.0873294)
(1.26357e-05 -1.65246e-05 0.0961232)
(1.74894e-06 3.70791e-06 0.0914385)
(3.80948e-06 -6.45138e-06 0.0813436)
(1.2252e-05 -8.10991e-06 0.0914808)
(-8.17013e-07 -1.19319e-06 0.0813121)
(-4.29449e-06 1.59223e-06 0.0960863)
(5.68125e-06 -7.749e-06 0.0873288)
(-2.76379e-06 -9.45701e-07 0.0914458)
(5.40471e-06 -4.72887e-06 0.0813476)
(1.7459e-05 -1.10219e-05 0.0961256)
(2.66324e-06 -4.97132e-06 0.071343)
(-5.99218e-06 2.09408e-06 0.0766388)
(7.60724e-07 -4.30832e-07 0.0896336)
(6.74512e-07 1.3005e-06 0.0783767)
(-1.25956e-05 1.20738e-06 0.0911623)
(8.97207e-07 3.0942e-07 0.0766049)
(-1.20163e-05 -1.8356e-07 0.0896714)
(-5.98557e-06 1.64584e-06 0.0784058)
(1.61927e-06 1.40809e-06 0.0681772)
(2.57809e-06 2.6058e-06 0.0819622)
(-9.61411e-06 7.22559e-07 0.0855998)
(-4.05257e-06 3.04142e-06 0.068222)
(1.39661e-06 8.48523e-07 0.0855564)
(-4.2435e-06 2.42395e-06 0.068213)
(1.4638e-06 -3.31246e-08 0.0855476)
(-1.01175e-05 1.80659e-07 0.0819935)
(1.58648e-06 5.04453e-07 0.068167)
(-9.64218e-06 -2.03236e-07 0.0855911)
(1.06866e-06 1.33655e-06 0.076615)
(4.41669e-07 1.31533e-06 0.0911347)
(-1.16873e-05 7.0646e-07 0.0896781)
(-5.67036e-06 1.60254e-06 0.0784159)
(-5.63109e-06 2.96157e-06 0.0766488)
(9.76698e-07 3.32864e-07 0.08964)
(8.20379e-07 1.43071e-06 0.0783866)
(-5.58083e-06 1.09867e-06 0.0766397)
(7.66484e-07 1.73679e-06 0.0783754)
(1.41072e-06 3.7208e-06 0.0896324)
(-1.23141e-05 2.28867e-06 0.0911625)
(1.25318e-06 2.87305e-06 0.0766032)
(-5.80997e-06 1.41721e-06 0.0784065)
(-1.12665e-05 3.65859e-06 0.0896717)
(-3.68777e-06 2.39851e-07 0.0682138)
(2.62804e-06 2.89311e-06 0.0855457)
(-9.03749e-06 2.29398e-06 0.0819939)
(2.18231e-06 2.17635e-06 0.0681665)
(-8.48465e-06 3.08056e-06 0.0855902)
(1.34654e-06 1.77362e-06 0.0766133)
(6.83712e-07 2.30957e-06 0.0911343)
(-5.52032e-06 1.06258e-06 0.0784166)
(-1.09288e-05 2.81513e-06 0.0896782)
(8.94922e-07 1.51303e-06 0.0783854)
(1.67841e-06 3.23658e-06 0.0896389)
(-5.30344e-06 -1.4768e-07 0.0766497)
(4.84312e-06 -4.0965e-06 0.0766424)
(-1.6293e-06 -4.28889e-06 0.0896325)
(-1.077e-06 -4.59507e-06 0.0783789)
(1.20413e-05 -3.8877e-06 0.0911622)
(-1.90166e-06 -5.47871e-06 0.0766061)
(1.08142e-05 -4.8417e-06 0.0896719)
(5.53937e-06 -4.3492e-06 0.0784076)
(2.79597e-06 -3.14842e-06 0.0682133)
(-3.34641e-06 -4.60905e-06 0.0855437)
(7.74857e-06 -4.57438e-06 0.0819969)
(-2.8466e-06 -4.88105e-06 0.0681621)
(7.49925e-06 -5.1329e-06 0.08559)
(6.11035e-06 -5.18792e-06 0.076638)
(-7.7409e-07 -3.91617e-06 0.0783786)
(-6.4121e-07 -2.18295e-06 0.0896349)
(1.23133e-05 -3.1615e-06 0.0911623)
(-6.89977e-07 -3.79613e-06 0.076605)
(5.84975e-06 -4.20547e-06 0.0784069)
(1.23252e-05 -3.08515e-06 0.0896723)
(4.53299e-06 -4.24403e-06 0.0682125)
(-1.00156e-06 -2.83518e-06 0.0855509)
(9.95066e-06 -2.77623e-06 0.0819923)
(-1.12104e-06 -2.89447e-06 0.0681683)
(1.01252e-05 -2.66187e-06 0.0855935)
(-4.20985e-06 2.19791e-06 0.071343)
(-4.48562e-06 3.72e-06 0.0834027)
(8.41015e-08 -1.37163e-06 0.0681152)
(2.51326e-07 -1.13515e-06 0.0681215)
(9.22303e-07 -1.26988e-06 0.0833719)
(-2.84816e-06 1.96949e-06 0.0681507)
(-3.24269e-06 1.71786e-06 0.0681572)
(-1.14891e-05 8.20025e-06 0.0914748)
(-1.64204e-07 -6.63126e-07 0.0813051)
(5.73254e-06 -3.027e-07 0.0960843)
(-6.40971e-06 6.30874e-06 0.0873282)
(-1.62001e-05 1.23517e-05 0.0961242)
(4.03798e-06 1.2631e-06 0.0914406)
(-6.91981e-06 2.51341e-06 0.0813399)
(-7.64313e-06 1.20424e-05 0.0914822)
(-9.53829e-09 -5.75649e-07 0.0813113)
(1.972e-06 -4.75587e-06 0.0960864)
(-6.55784e-06 5.89798e-06 0.0873297)
(-4.49955e-07 -3.12541e-06 0.0914469)
(-3.35022e-06 5.85708e-06 0.0813472)
(-1.07372e-05 1.70545e-05 0.0961273)
(-3.37852e-06 3.35414e-06 0.0713417)
(-2.90137e-06 4.76801e-06 0.0766405)
(-3.78048e-06 -2.08526e-06 0.0896322)
(-3.56099e-06 -1.42391e-06 0.0783774)
(-3.46113e-06 1.16099e-05 0.0911629)
(-4.42093e-06 -2.12592e-06 0.0766037)
(-4.33292e-06 1.04968e-05 0.0896724)
(-3.20624e-06 5.27641e-06 0.0784066)
(-1.89561e-06 3.0971e-06 0.0682112)
(-3.63389e-06 -3.24794e-06 0.0855435)
(-3.34665e-06 7.91781e-06 0.0819943)
(-3.79903e-06 -2.73335e-06 0.0681601)
(-4.15679e-06 7.6695e-06 0.08559)
(-4.37779e-06 5.76842e-06 0.0766383)
(-2.39024e-06 -1.08127e-06 0.0896352)
(-3.04514e-06 -1.16111e-06 0.0783783)
(-2.9084e-06 1.19055e-05 0.0911628)
(-3.14887e-06 -1.0764e-06 0.0766055)
(-3.01526e-06 1.19383e-05 0.0896727)
(-3.19469e-06 5.54707e-06 0.0784063)
(-3.60365e-06 4.22607e-06 0.0682118)
(-2.72598e-06 -1.40593e-06 0.0855512)
(-2.20823e-06 9.49525e-06 0.0819931)
(-2.41562e-06 -1.42026e-06 0.068168)
(-2.29561e-06 9.69857e-06 0.0855936)
(5.48558e-06 5.18007e-06 0.0834025)
(-4.77732e-07 -2.47727e-06 0.0681045)
(-2.08735e-06 -1.00239e-06 0.0681011)
(2.41326e-07 1.04576e-07 0.0833702)
(2.36476e-06 1.13556e-06 0.0681408)
(1.7794e-06 1.83965e-06 0.0681346)
(1.26311e-05 6.27932e-06 0.0914885)
(-1.59414e-07 -3.48806e-06 0.0813035)
(-4.4901e-06 -1.85002e-06 0.0960951)
(8.73159e-06 2.44469e-06 0.0873315)
(-2.97497e-06 -6.4137e-07 0.0914518)
(1.79353e-05 1.02262e-05 0.0961372)
(6.2778e-06 3.77078e-07 0.0813384)
(5.9796e-06 1.28923e-05 0.0914816)
(-3.1696e-06 -3.73814e-07 0.0813006)
(-2.94395e-06 -3.82151e-06 0.0960923)
(2.63537e-06 8.51977e-06 0.0873298)
(-1.22356e-06 -2.53782e-06 0.0914461)
(9.34169e-06 1.83944e-05 0.0961338)
(9.19996e-07 5.96855e-06 0.0813339)
(4.68719e-06 -8.95143e-07 0.071332)
(-4.00331e-07 4.22346e-06 0.0713317)
(1.63361e-06 -4.78411e-06 0.071355)
(-4.1681e-06 6.31722e-07 0.0713537)
(-5.6978e-06 -1.26935e-05 0.0914974)
(2.38459e-06 4.28095e-06 0.0961017)
(4.21246e-06 -6.65315e-07 0.0813242)
(-1.58616e-06 -8.23008e-06 0.0873472)
(9.7443e-07 2.61022e-06 0.0914627)
(7.2614e-07 -6.48542e-06 0.0813571)
(-9.57337e-06 -1.76873e-05 0.0961424)
(-1.22213e-05 -6.14428e-06 0.0914919)
(4.34753e-06 2.48156e-06 0.096097)
(5.00115e-09 3.29346e-06 0.0813217)
(-7.55953e-06 -2.4775e-06 0.0873448)
(2.94876e-06 6.75083e-07 0.0914571)
(-5.71571e-06 -2.39885e-07 0.0813546)
(-1.74112e-05 -9.74302e-06 0.0961382)
(-4.52253e-06 -5.52845e-06 0.0834151)
(3.13949e-06 1.09185e-07 0.0681275)
(1.09267e-06 2.10592e-06 0.0681251)
(1.03992e-06 1.25013e-07 0.083386)
(-2.51132e-07 -2.37458e-06 0.0681583)
(-1.36983e-06 -1.35131e-06 0.0681556)
(3.36317e-06 4.22316e-06 0.0973817)
(2.7585e-05 2.89402e-05 0.10421)
(-4.47391e-05 -1.88332e-05 0.101432)
(-1.9659e-05 -4.37488e-05 0.101428)
(2.88515e-05 4.27842e-06 0.101365)
(3.23358e-06 2.99432e-05 0.101361)
(-1.71959e-05 -1.66942e-05 0.0974309)
(-1.69256e-05 -1.67541e-05 0.0974357)
(2.88112e-05 3.93596e-06 0.101366)
(3.30725e-06 2.95194e-05 0.101363)
(-4.62723e-05 -4.53905e-05 0.104333)
(3.67366e-06 3.98652e-06 0.0973863)
(-4.44942e-05 -1.90818e-05 0.101433)
(-1.95097e-05 -4.39264e-05 0.10143)
(-6.33056e-06 -5.60115e-06 0.112799)
(-2.99335e-06 -1.56608e-06 0.115394)
(-3.01046e-06 -5.88425e-07 0.115395)
(-2.83838e-06 -2.56718e-06 0.1154)
(-2.85713e-06 -1.52294e-06 0.115401)
(7.23447e-07 1.74515e-06 0.118091)
(2.99243e-07 2.53746e-06 0.118092)
(1.24597e-06 -1.39708e-06 0.112803)
(-4.68364e-06 3.88398e-07 0.115395)
(-4.91526e-06 -8.2016e-07 0.115404)
(3.19815e-07 4.83454e-06 0.115406)
(-3.78515e-06 4.13276e-06 0.118095)
(-4.39992e-06 5.3377e-06 0.118095)
(-2.8703e-06 2.7434e-06 0.1128)
(-1.21855e-06 -2.01231e-06 0.115394)
(-1.33262e-06 -3.05689e-06 0.115402)
(3.0166e-06 7.88048e-07 0.115404)
(2.96733e-06 -2.59183e-06 0.118093)
(3.0011e-06 -2.05694e-06 0.118093)
(7.17376e-06 8.07607e-06 0.112797)
(2.07656e-06 4.0082e-06 0.115399)
(2.6674e-06 2.40079e-06 0.1154)
(-1.37911e-06 -3.21145e-07 0.118089)
(-1.40733e-06 8.49201e-07 0.118091)
(-1.75262e-05 -1.62598e-05 0.097427)
(-4.62339e-05 -4.47208e-05 0.104336)
(2.9145e-05 4.61782e-06 0.101364)
(3.20966e-06 3.03764e-05 0.10136)
(3.09294e-06 4.81602e-06 0.0973782)
(-4.46092e-05 -1.84515e-05 0.101431)
(-1.9706e-05 -4.33404e-05 0.101426)
(-3.2454e-06 -5.40713e-05 0.102941)
(-2.15682e-06 2.35319e-06 0.0973847)
(-2.08846e-06 3.07055e-05 0.103497)
(-1.21994e-07 -2.14812e-05 0.0984185)
(-3.22295e-06 3.20204e-05 0.10282)
(-2.16332e-06 -2.12023e-05 0.0974446)
(-1.42513e-06 -5.32113e-05 0.103596)
(-2.60786e-06 3.52913e-05 0.10124)
(-7.55574e-06 -5.03184e-05 0.0994588)
(9.5224e-07 3.51532e-06 0.0927789)
(-2.86954e-06 -1.93265e-05 0.0954655)
(-1.38548e-06 3.43232e-05 0.0994003)
(-1.57743e-06 3.6698e-06 0.095404)
(-5.2171e-06 -5.38149e-05 0.101346)
(-5.58315e-06 -5.42458e-05 0.101347)
(-2.53467e-06 3.23818e-06 0.0954007)
(-1.70649e-06 3.41273e-05 0.099399)
(-6.13558e-06 -1.61911e-05 0.0928218)
(-8.15683e-06 -5.05403e-05 0.0994574)
(-2.78214e-06 3.49025e-05 0.10124)
(-4.05929e-06 -1.98662e-05 0.095462)
(-2.78539e-06 3.25741e-05 0.102818)
(2.696e-07 2.13788e-06 0.0983674)
(-1.29677e-06 -2.04974e-05 0.097446)
(-6.64607e-07 -5.23042e-05 0.103592)
(-1.40511e-06 2.89451e-06 0.0973862)
(-1.32572e-06 3.14264e-05 0.103494)
(-2.66083e-06 -5.339e-05 0.102938)
(2.00789e-06 -5.34865e-05 0.102939)
(3.14738e-06 2.66475e-06 0.0973838)
(-3.80302e-07 3.07246e-05 0.103496)
(1.73077e-06 -2.12374e-05 0.098418)
(1.13344e-06 3.23706e-05 0.102818)
(3.99311e-06 -2.07128e-05 0.0974428)
(-1.27009e-07 -5.30612e-05 0.103595)
(5.41683e-06 -5.32642e-05 0.101342)
(4.50733e-06 4.2141e-06 0.0953987)
(1.68859e-06 3.47653e-05 0.0993924)
(9.15138e-06 -1.5126e-05 0.0928192)
(1.89521e-06 3.5542e-05 0.101237)
(6.58718e-06 -1.87597e-05 0.0954589)
(8.5792e-06 -4.95931e-05 0.0994499)
(2.59089e-06 3.32222e-05 0.102814)
(2.17522e-06 2.44161e-06 0.0983667)
(4.37774e-06 -1.98095e-05 0.097444)
(1.10847e-06 -5.19858e-05 0.103591)
(3.94901e-06 3.50565e-06 0.0973847)
(9.12798e-07 3.16599e-05 0.103492)
(3.26663e-06 -5.26128e-05 0.102935)
(1.69831e-05 -1.54384e-05 0.0974188)
(4.43461e-05 -4.24297e-05 0.104327)
(-3.01039e-05 5.76686e-06 0.101353)
(-4.43664e-06 3.17108e-05 0.101356)
(4.37172e-05 -1.70111e-05 0.101418)
(-3.74227e-06 5.17384e-06 0.0973706)
(1.87088e-05 -4.16973e-05 0.101421)
(3.4211e-05 -1.5773e-06 0.101239)
(-2.00108e-05 -3.31471e-06 0.0954586)
(3.28841e-06 -1.39129e-06 0.0953969)
(-5.52669e-05 -4.24738e-06 0.101347)
(-5.41999e-05 -1.44542e-06 0.10294)
(2.70798e-06 -8.30966e-07 0.097384)
(3.07737e-05 -5.05013e-07 0.103495)
(-2.11044e-05 7.04825e-07 0.0984182)
(3.1989e-05 -1.46796e-06 0.102818)
(-2.08972e-05 -1.09227e-06 0.0974445)
(-5.32921e-05 1.79175e-07 0.103594)
(3.47344e-05 -1.23565e-06 0.101239)
(-5.06537e-05 -6.70399e-06 0.0994577)
(3.76698e-06 1.0309e-06 0.0927785)
(-1.90969e-05 -2.62434e-06 0.0954658)
(3.384e-05 -2.696e-07 0.0993984)
(3.88407e-06 -9.94362e-07 0.0954042)
(-5.42617e-05 -4.07305e-06 0.101346)
(-5.4874e-05 -4.05798e-06 0.101347)
(3.44325e-06 -1.3026e-06 0.0954006)
(3.35089e-05 -3.55471e-07 0.0993969)
(-1.59751e-05 -5.73118e-06 0.0928218)
(-5.11334e-05 -6.83138e-06 0.0994559)
(3.43124e-05 -1.32502e-06 0.101239)
(-1.96992e-05 -3.14008e-06 0.095462)
(3.23767e-05 -1.1917e-06 0.102816)
(2.42958e-06 8.3778e-07 0.0983675)
(-2.02762e-05 -8.34838e-07 0.0974467)
(-5.2565e-05 6.10056e-07 0.103592)
(3.19186e-06 -6.32303e-07 0.0973862)
(3.12283e-05 8.32153e-08 0.103493)
(-5.3607e-05 -1.25923e-06 0.102938)
(-5.33547e-05 3.05444e-06 0.102937)
(3.1053e-05 1.14592e-06 0.103494)
(3.33044e-06 3.32368e-06 0.0973828)
(-2.0735e-05 2.20835e-06 0.0984177)
(3.26177e-05 2.2933e-06 0.102816)
(-5.28992e-05 1.31008e-06 0.103593)
(-2.01225e-05 4.05785e-06 0.0974434)
(-5.30027e-05 5.83455e-06 0.101342)
(4.75829e-06 3.90068e-06 0.0953983)
(3.53034e-05 1.70729e-06 0.0993919)
(-1.4457e-05 8.37652e-06 0.0928193)
(3.58087e-05 2.39152e-06 0.101235)
(-1.82595e-05 6.06314e-06 0.0954601)
(-4.90691e-05 8.64304e-06 0.0994506)
(3.33287e-05 3.48687e-06 0.102814)
(2.82743e-06 2.46531e-06 0.0983673)
(-5.20268e-05 2.18455e-06 0.10359)
(-1.93912e-05 4.32954e-06 0.0974453)
(3.16951e-05 2.1465e-06 0.103492)
(4.01181e-06 3.93564e-06 0.097385)
(-5.25318e-05 4.03951e-06 0.102935)
(5.36061e-05 8.86934e-07 0.102937)
(-3.05065e-06 -1.11757e-06 0.0973823)
(-3.10707e-05 3.10403e-06 0.103494)
(2.05225e-05 -3.05716e-07 0.0984166)
(-3.23119e-05 1.50903e-06 0.102817)
(2.0266e-05 -2.27357e-06 0.0974422)
(5.28877e-05 3.01754e-06 0.103592)
(5.38178e-05 -2.87252e-06 0.101342)
(-4.31838e-06 -2.7785e-06 0.0953977)
(-3.40062e-05 4.1183e-07 0.0993938)
(1.50043e-05 -8.24924e-06 0.0928191)
(-3.50596e-05 4.3288e-07 0.101236)
(5.03491e-05 -6.40826e-06 0.0994507)
(1.85564e-05 -5.17906e-06 0.0954586)
(5.36182e-05 5.33243e-06 0.10294)
(-3.16839e-05 5.05258e-06 0.103494)
(-3.55847e-06 2.35313e-06 0.0973845)
(2.03996e-05 1.01693e-06 0.0984174)
(-3.29123e-05 5.60832e-06 0.102817)
(5.24654e-05 4.35192e-06 0.103593)
(2.04257e-05 1.61299e-06 0.097445)
(5.39092e-05 6.80246e-06 0.101348)
(-4.28986e-06 1.29557e-06 0.0954027)
(-3.46379e-05 1.81402e-06 0.0993993)
(1.66421e-05 2.87799e-06 0.0928249)
(-3.58182e-05 4.53141e-06 0.101239)
(1.9335e-05 2.28073e-06 0.0954646)
(5.06419e-05 7.79291e-06 0.0994602)
(-1.52686e-05 1.68344e-05 0.0974204)
(-4.30415e-05 4.49797e-05 0.104327)
(5.72339e-06 -2.98712e-05 0.101353)
(3.14781e-05 -4.36431e-06 0.101356)
(-1.70361e-05 4.40363e-05 0.101419)
(5.49531e-06 -3.99755e-06 0.0973723)
(-4.19864e-05 1.87116e-05 0.101422)
(-1.68621e-07 5.34334e-05 0.102936)
(1.51963e-06 -3.14259e-05 0.103491)
(-1.29369e-06 -3.75761e-06 0.0973815)
(-7.80961e-07 2.00216e-05 0.0984166)
(3.41456e-07 -3.25855e-05 0.102814)
(1.52839e-06 5.26922e-05 0.103591)
(-2.33791e-06 1.96693e-05 0.0974428)
(-3.29644e-06 5.3514e-05 0.101342)
(-2.18317e-06 -4.90929e-06 0.0953975)
(3.44365e-07 -3.45862e-05 0.0993927)
(-7.44166e-06 1.42607e-05 0.0928195)
(-7.94367e-08 -3.53381e-05 0.101235)
(-6.4706e-06 4.97238e-05 0.0994515)
(-4.64812e-06 1.80298e-05 0.0954597)
(3.5032e-06 5.37759e-05 0.102939)
(3.35968e-06 -3.17795e-05 0.103492)
(1.06477e-06 -3.84106e-06 0.0973838)
(1.96026e-07 2.00406e-05 0.0984173)
(3.78746e-06 -3.28054e-05 0.102815)
(2.67363e-06 5.25258e-05 0.103592)
(5.86863e-07 2.01524e-05 0.097445)
(5.1445e-06 5.44251e-05 0.101348)
(1.75993e-07 -4.38006e-06 0.0954025)
(3.80644e-07 -3.39442e-05 0.0993983)
(2.44144e-06 1.66002e-05 0.0928249)
(2.81932e-06 -3.52829e-05 0.101238)
(1.45334e-06 1.92022e-05 0.0954649)
(6.49576e-06 5.12438e-05 0.0994592)
(1.66883e-05 1.76103e-05 0.0974324)
(4.60245e-05 4.74907e-05 0.104337)
(-3.65895e-06 -2.81074e-05 0.101366)
(-2.93249e-05 -2.50682e-06 0.101363)
(-4.09534e-06 -3.0686e-06 0.0973822)
(1.93696e-05 4.54816e-05 0.101434)
(4.41181e-05 2.05177e-05 0.101431)
(-5.37534e-05 -4.01975e-06 0.101347)
(3.42222e-05 -3.49716e-08 0.0994008)
(4.52373e-06 -2.48491e-07 0.0954083)
(-1.57622e-05 -2.89051e-06 0.0928341)
(-1.84939e-05 -1.67273e-06 0.0954703)
(3.52322e-05 -1.26111e-06 0.101239)
(-5.03131e-05 -6.30282e-06 0.0994604)
(-1.27882e-05 8.64938e-07 0.091157)
(-3.77445e-06 3.74975e-06 0.0713311)
(-1.3319e-06 7.49188e-06 0.107614)
(-7.10924e-06 1.48797e-05 0.0928138)
(-2.15267e-05 2.44634e-07 0.0984166)
(-8.77765e-06 -2.89015e-06 0.110127)
(-1.25486e-05 2.04845e-06 0.0911573)
(-8.50939e-06 3.77987e-06 0.0819841)
(-2.13039e-05 1.45712e-06 0.0984163)
(-7.81245e-06 1.28006e-06 0.107611)
(-8.34415e-06 -1.23782e-06 0.110126)
(-1.4693e-05 8.68779e-06 0.0928139)
(-4.33928e-05 4.39262e-05 0.104331)
(-5.87311e-06 7.40293e-06 0.0873191)
(-7.10645e-06 5.88122e-06 0.0873207)
(-4.31987e-06 3.0603e-06 0.0713304)
(-4.17779e-06 7.69012e-06 0.0819848)
(1.04875e-06 -5.74931e-07 0.0765953)
(1.82283e-08 6.43756e-07 0.0911235)
(-1.21187e-05 -7.60151e-07 0.089665)
(-5.99039e-06 1.39954e-06 0.0783964)
(7.83822e-07 -8.05623e-07 0.0896271)
(7.66646e-07 9.65486e-07 0.0783674)
(-5.98891e-06 1.08582e-06 0.0766289)
(2.21738e-06 6.82214e-07 0.0712883)
(1.48034e-06 3.35277e-06 0.0765936)
(1.65257e-07 1.85205e-06 0.091123)
(-5.80525e-06 1.49997e-06 0.0783971)
(-1.14737e-05 3.75819e-06 0.0896655)
(8.68191e-07 1.70018e-06 0.0783662)
(1.28286e-06 3.41797e-06 0.0896261)
(-5.50035e-06 1.91566e-06 0.0766298)
(2.51546e-06 2.97494e-06 0.0681547)
(4.53155e-06 2.49879e-06 0.0819423)
(-8.45356e-06 3.793e-06 0.0855816)
(2.61912e-06 3.30055e-06 0.0855372)
(-3.48556e-06 1.18912e-06 0.0682022)
(1.28342e-06 -8.56547e-07 0.0833626)
(-2.70039e-06 2.68568e-06 0.0681404)
(-3.52518e-06 1.78336e-06 0.068147)
(3.7797e-07 -6.07145e-07 0.0681036)
(9.93641e-08 -1.06882e-06 0.06811)
(-4.05977e-06 4.09445e-06 0.0833938)
(4.1568e-06 1.42227e-06 0.091434)