/*--------------------------------*- C++ -*----------------------------------*\
| =========                 |                                                 |
| \\      /  F ield         | OpenFOAM: The Open Source CFD Toolbox           |
|  \\    /   O peration     | Version:  v2012                                 |
|   \\  /    A nd           | Website:  www.openfoam.com                      |
|    \\/     M anipulation  |                                                 |
\*---------------------------------------------------------------------------*/
FoamFile
{
    version     2.0;
    format      ascii;
    class       volScalarField;
    location    "1975";
    object      p;
}
// * * * * * * * * * * * * * * * * * * * * * * * * * * * * * * * * * * * * * //

dimensions      [0 2 -2 0 0 0 0];


internalField   nonuniform List<scalar> 
171728
(
0.00351969
0.00351858
0.00351864
0.00351939
0.00348409
0.00348267
0.00348273
0.00348558
0.00344563
0.00344382
0.00344382
0.00344614
0.00340163
0.00339992
0.0033999
0.00340218
0.00335359
0.00335214
0.00335211
0.00335441
0.00330463
0.0033034
0.0033033
0.00330571
0.00325641
0.0032552
0.00325516
0.00325749
0.00320907
0.00320803
0.00320802
0.00321036
0.00316275
0.00316184
0.00316182
0.00316418
0.00311738
0.00311659
0.00311659
0.00311895
0.00307296
0.00307227
0.00307227
0.00307464
0.00302927
0.00302872
0.0030287
0.00303107
0.00298619
0.00298574
0.00298574
0.00298805
0.00294348
0.00294309
0.00294318
0.00294545
0.00290114
0.00290086
0.00290082
0.00290323
0.00285912
0.00285895
0.00285888
0.00286114
0.00281742
0.00281732
0.00281732
0.00281945
0.00277604
0.00277601
0.00277605
0.00277811
0.00273503
0.00273497
0.002735
0.00273705
0.00269438
0.0026943
0.00269429
0.00269643
0.00265403
0.00265413
0.00265409
0.00265592
0.00261402
0.00261423
0.00261417
0.00261579
0.0025743
0.00257445
0.00257458
0.00257614
0.00253489
0.00253518
0.00253511
0.00253682
0.00249563
0.00249605
0.00249606
0.00249737
0.00245671
0.00245708
0.0024571
0.00245918
0.00241789
0.00241836
0.00241838
0.00241979
0.00237943
0.00237988
0.00237993
0.00238178
0.00234111
0.00234178
0.00234173
0.00234359
0.00230308
0.00230371
0.00230362
0.00230564
0.00226479
0.00226524
0.00226548
0.00226721
0.00222716
0.00222785
0.0022278
0.00222959
0.00218958
0.0021903
0.00219027
0.00219225
0.00215198
0.00215273
0.00215271
0.0021544
0.00211459
0.0021146
0.0021152
0.00211703
0.00207752
0.00207857
0.0020781
0.00208006
0.00204073
0.00204162
0.00204125
0.00204312
0.00200357
0.00200341
0.0020041
0.0020061
0.00196636
0.00196677
0.00196688
0.00196872
0.00192974
0.00193057
0.00193013
0.00193217
0.00189338
0.00189357
0.00189367
0.00189584
0.00185687
0.0018567
0.00185716
0.00185894
0.00182031
0.00182052
0.00182033
0.00182239
0.00178386
0.00178435
0.00178415
0.00178637
0.00174821
0.00174803
0.00174814
0.00175003
0.00171206
0.00171188
0.00171186
0.00171417
0.00167597
0.0016762
0.00167623
0.0016781
0.00164065
0.00164043
0.00164037
0.00164237
0.00160475
0.0016044
0.00160455
0.00160695
0.00156926
0.00156932
0.00156926
0.00157106
0.0015339
0.00153381
0.00153361
0.00153576
0.00149857
0.00149771
0.0014982
0.00150027
0.0014631
0.00146339
0.00146298
0.00146504
0.00142834
0.00142795
0.00142812
0.00143006
0.0013934
0.00139294
0.00139297
0.0013949
0.00135844
0.00135813
0.00135811
0.00136016
0.00132302
0.00132297
0.00132316
0.0013251
0.00128821
0.00128838
0.00128787
0.00128988
0.00125381
0.00125286
0.00125324
0.00125503
0.00121903
0.00121857
0.00121898
0.00122103
0.0011845
0.00118471
0.00118436
0.00118595
0.00114922
0.00114912
0.00114875
0.00115071
0.00111427
0.0011141
0.00111436
0.00111635
0.00108029
0.00107996
0.00108047
0.00108258
0.0010462
0.00104583
0.00104564
0.00104747
0.00101164
0.00101146
0.00101097
0.00101263
0.00097736
0.000977107
0.000977148
0.000978931
0.000942622
0.000942471
0.000942822
0.000944978
0.000907455
0.000907576
0.000907527
0.000909806
0.000872902
0.000872844
0.000872816
0.000874508
0.000839374
0.000838535
0.000838429
0.00084004
0.000804305
0.000804422
0.000804064
0.000806139
0.000768894
0.000769356
0.000769686
0.000771893
0.000734994
0.000734555
0.000735079
0.000736844
0.000701519
0.000700861
0.000700471
0.000702342
0.000666393
0.000666764
0.000666127
0.000668159
0.000630826
0.000631092
0.000631408
0.000633372
0.00059636
0.000596292
0.000596508
0.00059845
0.00056209
0.00056172
0.000561806
0.000563722
0.000527615
0.000527675
0.000527218
0.000529366
0.000492779
0.000492516
0.00049255
0.000494341
0.000456991
0.000456792
0.000457144
0.000458986
0.000422162
0.000422405
0.00042241
0.000424534
0.000387783
0.000387736
0.000387616
0.000389576
0.000352729
0.000352591
0.000352522
0.0003545
0.000317607
0.00031753
0.000317686
0.00031966
0.000282462
0.000282341
0.000282284
0.000284183
0.0002466
0.000246483
0.000246227
0.000248058
0.000210365
0.000210454
0.000210627
0.000212842
0.000175698
0.000175933
0.000176237
0.000178543
0.000141482
0.000141326
0.000141209
0.00014289
0.000105629
0.000105199
0.000104863
0.000106567
6.89419e-05
6.8894e-05
6.88494e-05
7.10298e-05
3.36468e-05
3.33532e-05
3.35574e-05
3.56221e-05
5.39507e-06
6.51112e-06
6.70919e-06
4.87294e-06
0.0035242
0.00352163
0.00352165
0.0035241
0.00352167
0.0035216
0.00352807
0.00352802
0.00352806
0.00352805
0.00352168
0.00352167
0.0035241
0.00352165
0.00352176
0.00352415
0.00351938
0.00349038
0.00351867
0.00351859
0.0034921
0.00349213
0.00351934
0.00349032
0.00351862
0.00351865
0.00349224
0.00349215
0.00351858
0.00349219
0.00349227
0.00351935
0.00349037
0.00351869
0.00349226
0.00349216
0.00349034
0.00348555
0.00345159
0.00348275
0.00348266
0.00345384
0.00345396
0.00348557
0.00345168
0.0034827
0.00348273
0.00345371
0.00345388
0.00348263
0.00345398
0.00345396
0.00348559
0.00345161
0.00348275
0.00345391
0.00345392
0.00345164
0.00344608
0.00340834
0.00344383
0.00344377
0.00341142
0.00341142
0.00344614
0.00340834
0.00344392
0.00344378
0.00341172
0.00341139
0.00344381
0.00341143
0.00341149
0.0034461
0.00340831
0.0034439
0.00341136
0.00341138
0.00340832
0.00340216
0.00336088
0.00339988
0.00339986
0.00336424
0.00336421
0.00340216
0.00336087
0.00339975
0.00339986
0.00336464
0.00336424
0.00339993
0.00336421
0.00336428
0.00340212
0.00336084
0.00339985
0.00336412
0.00336417
0.00336095
0.00335438
0.003312
0.00335206
0.00335209
0.00331548
0.00331551
0.00335442
0.00331216
0.0033519
0.00335203
0.00331573
0.00331549
0.00335211
0.00331552
0.00331553
0.00335438
0.00331213
0.00335198
0.00331544
0.00331562
0.0033121
0.00330559
0.00326393
0.00330328
0.00330336
0.00326715
0.00326717
0.00330571
0.00326387
0.00330336
0.00330332
0.00326697
0.00326712
0.00330342
0.00326719
0.00326718
0.00330568
0.00326389
0.00330335
0.00326713
0.00326719
0.00326382
0.00325758
0.00321656
0.00325519
0.00325518
0.00321971
0.00321974
0.00325755
0.00321656
0.00325508
0.00325519
0.00321972
0.00321969
0.00325523
0.00321973
0.00321973
0.00325755
0.00321654
0.00325521
0.00321969
0.0032197
0.00321654
0.00321037
0.00317024
0.00320799
0.00320801
0.00317328
0.00317327
0.00321038
0.00317022
0.00320799
0.003208
0.00317326
0.00317328
0.00320803
0.00317326
0.00317329
0.00321036
0.00317022
0.00320801
0.00317325
0.00317327
0.00317023
0.00316419
0.00312486
0.00316182
0.00316183
0.00312781
0.00312779
0.00316417
0.00312487
0.00316182
0.00316183
0.0031278
0.0031278
0.00316185
0.00312779
0.00312781
0.00316418
0.00312486
0.00316183
0.00312781
0.00312782
0.00312487
0.00311895
0.00308041
0.00311661
0.00311659
0.00308328
0.00308327
0.00311896
0.00308043
0.00311661
0.0031166
0.00308326
0.00308327
0.0031166
0.00308326
0.00308329
0.00311895
0.00308042
0.0031166
0.00308328
0.00308327
0.00308042
0.00307462
0.00303675
0.00307229
0.00307228
0.00303957
0.00303956
0.00307463
0.00303675
0.0030723
0.00307228
0.00303955
0.00303954
0.00307229
0.00303956
0.00303955
0.00307463
0.00303672
0.00307228
0.00303955
0.00303955
0.00303675
0.00303104
0.00299362
0.0030287
0.00302872
0.00299646
0.00299643
0.00303106
0.00299367
0.0030287
0.00302871
0.00299646
0.00299644
0.00302873
0.00299643
0.00299646
0.00303104
0.00299367
0.00302872
0.00299643
0.00299644
0.00299364
0.00298803
0.002951
0.00298574
0.00298574
0.00295374
0.00295375
0.00298806
0.00295096
0.00298572
0.00298572
0.00295374
0.00295378
0.0029857
0.00295376
0.00295373
0.00298806
0.00295098
0.00298571
0.00295378
0.00295374
0.002951
0.00294545
0.00290866
0.00294313
0.00294309
0.00291138
0.00291141
0.00294543
0.00290865
0.00294313
0.00294319
0.00291137
0.0029115
0.00294318
0.00291139
0.00291142
0.00294545
0.00290868
0.00294316
0.00291151
0.00291142
0.00290868
0.0029032
0.00286662
0.00290095
0.00290085
0.00286937
0.00286934
0.00290314
0.00286659
0.00290095
0.00290082
0.00286939
0.00286935
0.00290097
0.00286935
0.00286944
0.00290318
0.00286658
0.00290097
0.00286933
0.00286944
0.00286662
0.00286123
0.00282491
0.002859
0.00285896
0.00282771
0.00282756
0.00286116
0.00282482
0.00285899
0.00285888
0.0028277
0.00282763
0.00285884
0.00282757
0.00282759
0.00286114
0.00282479
0.00285885
0.00282764
0.00282762
0.00282485
0.00281955
0.00278344
0.00281727
0.00281734
0.00278632
0.00278618
0.00281947
0.00278335
0.00281726
0.00281732
0.0027863
0.00278624
0.00281725
0.00278614
0.00278613
0.00281944
0.00278339
0.00281723
0.00278623
0.00278615
0.0027834
0.00277813
0.00274235
0.0027759
0.00277602
0.00274532
0.00274515
0.00277806
0.00274231
0.00277592
0.00277604
0.00274532
0.00274514
0.00277599
0.00274512
0.00274518
0.00277812
0.00274233
0.00277598
0.00274514
0.00274516
0.00274224
0.00273709
0.00270155
0.00273502
0.00273498
0.00270459
0.00270456
0.00273706
0.00270153
0.002735
0.00273501
0.00270455
0.00270449
0.00273504
0.00270451
0.00270446
0.0027371
0.00270149
0.00273502
0.00270449
0.00270449
0.00270161
0.00269635
0.00266104
0.00269444
0.00269432
0.00266419
0.00266424
0.00269634
0.00266096
0.00269443
0.00269429
0.00266415
0.00266419
0.00269445
0.00266419
0.00266407
0.00269629
0.00266098
0.00269442
0.00266419
0.00266413
0.00266105
0.00265589
0.00262091
0.00265412
0.00265413
0.00262412
0.00262415
0.00265589
0.00262084
0.00265413
0.00265408
0.00262412
0.00262416
0.0026541
0.0026241
0.0026241
0.00265591
0.00262086
0.00265409
0.00262417
0.00262414
0.00262085
0.00261582
0.00258117
0.00261421
0.00261415
0.00258438
0.00258437
0.00261577
0.0025811
0.00261423
0.00261418
0.00258439
0.00258443
0.00261408
0.00258427
0.00258459
0.00261579
0.00258116
0.00261411
0.00258444
0.00258457
0.00258111
0.00257616
0.00254171
0.00257462
0.0025744
0.00254496
0.00254521
0.00257603
0.00254183
0.00257462
0.00257458
0.00254495
0.00254492
0.0025746
0.0025451
0.002545
0.00257616
0.00254164
0.00257464
0.00254491
0.002545
0.00254174
0.00253673
0.0025026
0.00253519
0.00253518
0.00250582
0.00250585
0.00253684
0.00250261
0.00253517
0.00253511
0.00250583
0.00250585
0.00253522
0.00250577
0.00250577
0.00253661
0.00250273
0.00253522
0.00250584
0.00250576
0.00250251
0.00249759
0.00246372
0.00249602
0.0024961
0.00246679
0.00246667
0.00249766
0.00246351
0.00249599
0.00249606
0.00246681
0.00246675
0.00249584
0.00246672
0.00246696
0.00249778
0.0024636
0.00249585
0.00246676
0.00246689
0.00246408
0.00245889
0.00242489
0.0024572
0.00245713
0.00242796
0.00242809
0.00245861
0.00242546
0.00245715
0.00245711
0.00242799
0.00242805
0.00245725
0.00242812
0.00242791
0.00245871
0.00242509
0.00245717
0.00242805
0.00242794
0.00242476
0.00241982
0.00238684
0.00241823
0.00241828
0.00238953
0.00238936
0.00242039
0.00238619
0.00241829
0.00241838
0.00238952
0.00238952
0.00241825
0.00238934
0.0023895
0.00242013
0.00238665
0.00241828
0.00238954
0.00238952
0.00238668
0.00238203
0.00234824
0.00237996
0.00237991
0.00235116
0.00235124
0.00238133
0.00234874
0.00237996
0.00237991
0.00235113
0.00235124
0.00237994
0.00235125
0.00235131
0.00238172
0.00234827
0.0023799
0.00235123
0.00235125
0.00234845
0.00234325
0.0023107
0.00234167
0.00234173
0.00231329
0.00231332
0.0023439
0.0023108
0.00234163
0.00234174
0.00231322
0.00231316
0.00234179
0.00231333
0.00231321
0.0023434
0.00231065
0.00234172
0.00231318
0.00231321
0.00231061
0.00230581
0.00227219
0.00230371
0.00230369
0.00227483
0.00227477
0.00230578
0.00227189
0.00230367
0.0023036
0.00227493
0.00227498
0.00230363
0.00227475
0.00227489
0.00230573
0.00227213
0.00230363
0.00227497
0.00227491
0.00227216
0.0022672
0.00223448
0.00226532
0.00226525
0.00223723
0.0022373
0.00226695
0.00223456
0.00226543
0.00226549
0.00223717
0.00223719
0.00226542
0.00223713
0.00223705
0.0022672
0.0022346
0.00226544
0.0022372
0.00223711
0.00223441
0.00222966
0.00219702
0.00222785
0.00222795
0.00219968
0.00219963
0.00222975
0.00219718
0.00222779
0.00222779
0.00219966
0.00219964
0.00222766
0.00219974
0.00219975
0.00222973
0.00219694
0.00222772
0.00219965
0.00219966
0.00219716
0.00219211
0.00215934
0.0021903
0.00219022
0.00216194
0.00216213
0.00219232
0.00215943
0.00219026
0.00219026
0.00216202
0.00216208
0.00219043
0.00216222
0.00216206
0.00219205
0.0021595
0.00219034
0.00216207
0.00216201
0.00215932
0.00215445
0.002122
0.00215252
0.00215268
0.00212462
0.00212421
0.00215441
0.00212153
0.00215258
0.00215271
0.00212452
0.00212456
0.0021526
0.00212402
0.00212435
0.0021546
0.00212188
0.00215253
0.00212459
0.00212441
0.00212189
0.00211715
0.00208462
0.00211542
0.00211483
0.00208725
0.0020874
0.00211667
0.00208495
0.0021153
0.00211518
0.00208744
0.00208731
0.002115
0.00208747
0.00208732
0.00211697
0.00208487
0.00211513
0.0020873
0.00208763
0.00208495
0.00207971
0.00204787
0.00207784
0.00207842
0.00205033
0.0020508
0.00208016
0.00204838
0.00207802
0.0020781
0.00205024
0.00205046
0.0020781
0.00205107
0.00205055
0.00208006
0.00204788
0.00207833
0.00205052
0.00205022
0.00204792
0.00204311
0.00201128
0.00204126
0.00204135
0.00201385
0.00201302
0.00204336
0.00201042
0.00204112
0.0020412
0.00201357
0.00201339
0.00204138
0.00201272
0.00201363
0.00204299
0.00201092
0.00204097
0.00201339
0.00201339
0.00201102
0.00200626
0.00197338
0.00200438
0.00200371
0.00197575
0.00197604
0.00200559
0.00197373
0.0020042
0.00200409
0.00197604
0.00197621
0.00200417
0.0019758
0.00197601
0.00200603
0.00197373
0.00200409
0.00197617
0.00197623
0.00197367
0.00196852
0.00193693
0.00196644
0.00196686
0.00193921
0.00193949
0.00196889
0.00193738
0.00196672
0.00196691
0.0019392
0.0019392
0.00196666
0.00193964
0.00193916
0.00196884
0.00193695
0.00196695
0.00193924
0.00193922
0.00193692
0.00193216
0.00190067
0.00193017
0.00193043
0.00190295
0.00190293
0.00193259
0.00190037
0.00193013
0.00193009
0.00190291
0.0019028
0.00193012
0.00190298
0.0019031
0.00193213
0.00190042
0.00193009
0.00190283
0.00190288
0.00190068
0.00189588
0.00186391
0.00189392
0.00189365
0.00186633
0.00186592
0.00189547
0.00186359
0.00189382
0.00189368
0.00186632
0.00186629
0.00189393
0.00186579
0.00186618
0.00189561
0.00186406
0.0018938
0.00186628
0.00186623
0.00186384
0.00185898
0.00182711
0.00185699
0.00185678
0.00182933
0.00182954
0.00185878
0.00182739
0.00185704
0.00185713
0.00182937
0.00182952
0.00185694
0.00182958
0.00182941
0.0018592
0.00182721
0.00185698
0.00182955
0.00182943
0.00182719
0.0018223
0.00179119
0.00182024
0.00182047
0.00179324
0.00179335
0.00182256
0.00179128
0.00182025
0.00182036
0.00179324
0.00179321
0.00182033
0.00179338
0.00179329
0.00182235
0.00179106
0.00182035
0.00179307
0.00179329
0.00179119
0.00178644
0.00175492
0.00178432
0.00178433
0.00175726
0.00175716
0.00178647
0.00175482
0.00178433
0.00178424
0.00175721
0.00175709
0.00178427
0.00175715
0.00175706
0.00178632
0.00175492
0.00178425
0.00175725
0.00175703
0.00175482
0.00175005
0.0017187
0.0017481
0.00174803
0.00172082
0.00172081
0.00175
0.00171875
0.00174804
0.001748
0.00172081
0.00172087
0.00174798
0.00172086
0.001721
0.00175007
0.00171872
0.00174802
0.00172083
0.00172105
0.00171896
0.00171394
0.00168319
0.00171186
0.00171184
0.00168517
0.00168508
0.00171399
0.00168309
0.00171185
0.00171188
0.00168523
0.0016852
0.00171206
0.0016851
0.00168512
0.00171396
0.00168317
0.00171209
0.00168514
0.00168507
0.0016829
0.00167843
0.0016471
0.00167627
0.00167625
0.00164928
0.00164956
0.00167835
0.00164724
0.00167635
0.00167635
0.00164931
0.00164941
0.00167607
0.00164944
0.00164912
0.00167841
0.00164721
0.001676
0.00164936
0.00164915
0.0016471
0.0016423
0.00161142
0.00164024
0.00164048
0.00161349
0.00161319
0.0016424
0.00161126
0.0016402
0.00164029
0.00161339
0.0016133
0.00164025
0.00161333
0.00161378
0.00164237
0.00161132
0.0016403
0.00161348
0.00161377
0.00161173
0.00160668
0.0015761
0.00160466
0.00160427
0.00157818
0.00157803
0.00160653
0.0015761
0.00160458
0.00160442
0.0015782
0.00157806
0.0016049
0.00157803
0.00157799
0.00160659
0.00157608
0.00160489
0.00157803
0.00157797
0.00157582
0.00157133
0.00154035
0.00156925
0.00156949
0.00154234
0.0015431
0.00157143
0.00154063
0.0015693
0.00156933
0.00154241
0.00154271
0.00156898
0.00154295
0.0015424
0.00157135
0.00154047
0.00156896
0.0015426
0.00154246
0.00154049
0.0015356
0.00150488
0.00153346
0.00153387
0.00150699
0.00150624
0.00153569
0.00150451
0.00153351
0.00153367
0.00150702
0.00150687
0.00153363
0.00150645
0.00150724
0.00153568
0.00150492
0.00153368
0.00150697
0.00150719
0.00150504
0.00150011
0.00146991
0.00149816
0.0014975
0.00147184
0.00147209
0.00149985
0.00147005
0.0014982
0.0014981
0.00147181
0.00147184
0.00149836
0.00147204
0.00147165
0.0015002
0.00146982
0.0014983
0.00147181
0.00147172
0.00146973
0.00146529
0.00143498
0.00146318
0.00146353
0.00143722
0.00143708
0.00146535
0.00143488
0.00146311
0.00146306
0.00143703
0.00143682
0.00146286
0.00143685
0.0014368
0.00146509
0.00143475
0.00146294
0.00143679
0.00143679
0.00143479
0.00143017
0.00139928
0.0014283
0.00142814
0.00140132
0.00140143
0.00143009
0.00139947
0.00142815
0.00142809
0.00140142
0.00140166
0.00142811
0.00140161
0.00140173
0.00143006
0.0013996
0.00142804
0.00140173
0.00140167
0.00139959
0.00139459
0.00136485
0.0013926
0.00139271
0.0013668
0.00136679
0.00139478
0.00136475
0.00139274
0.00139292
0.00136696
0.00136679
0.00139299
0.0013669
0.00136684
0.00139487
0.00136481
0.00139297
0.00136681
0.00136696
0.00136487
0.0013602
0.0013298
0.00135818
0.00135808
0.00133184
0.00133169
0.00136002
0.00132975
0.00135834
0.00135808
0.00133191
0.001332
0.00135809
0.00133168
0.00133179
0.00136014
0.0013299
0.00135823
0.00133197
0.00133189
0.00132981
0.00132501
0.00129456
0.00132298
0.00132298
0.0012967
0.00129723
0.00132508
0.001295
0.00132292
0.00132315
0.00129639
0.00129652
0.00132306
0.00129714
0.00129695
0.00132511
0.00129447
0.00132307
0.0012966
0.00129671
0.00129465
0.00128991
0.00126031
0.00128809
0.00128848
0.00126236
0.00126181
0.00129025
0.00125969
0.00128783
0.00128783
0.00126238
0.00126203
0.00128816
0.00126167
0.00126161
0.00128976
0.00125995
0.00128791
0.00126188
0.00126169
0.00125967
0.00125565
0.00122526
0.00125369
0.00125299
0.00122723
0.00122695
0.00125494
0.00122505
0.00125382
0.00125344
0.00122747
0.00122758
0.00125293
0.00122698
0.00122756
0.0012553
0.00122557
0.00125307
0.0012275
0.00122771
0.00122563
0.00122055
0.00119062
0.00121846
0.00121848
0.00119273
0.00119312
0.00122047
0.00119114
0.00121865
0.00121891
0.00119267
0.0011929
0.00121917
0.00119328
0.00119291
0.00122092
0.00119078
0.00121929
0.00119311
0.00119284
0.00119072
0.00118593
0.00115566
0.00118414
0.00118458
0.00115793
0.00115811
0.00118648
0.00115584
0.00118403
0.00118413
0.00115777
0.00115756
0.00118396
0.00115808
0.00115753
0.00118602
0.00115546
0.00118384
0.00115758
0.00115744
0.00115544
0.00115084
0.00112081
0.00114907
0.00114916
0.00112277
0.00112278
0.00115104
0.00112079
0.00114891
0.00114875
0.00112272
0.00112292
0.00114886
0.00112273
0.0011231
0.00115068
0.00112091
0.00114879
0.00112286
0.0011231
0.001121
0.0011162
0.00108695
0.0011142
0.00111412
0.00108873
0.00108845
0.0011161
0.0010865
0.00111422
0.00111437
0.00108896
0.001089
0.00111452
0.00108847
0.00108896
0.0011163
0.00108715
0.00111458
0.00108898
0.00108914
0.00108715
0.00108237
0.00105246
0.00108026
0.00107991
0.00105458
0.00105433
0.00108188
0.00105244
0.00108054
0.00108053
0.00105464
0.00105452
0.00108047
0.00105436
0.00105439
0.00108256
0.0010523
0.00108064
0.00105448
0.00105436
0.00105224
0.0010477
0.00101758
0.00104589
0.00104583
0.00101984
0.00102018
0.0010478
0.00101792
0.00104574
0.00104569
0.00101954
0.00101958
0.00104553
0.00102007
0.00101949
0.00104752
0.00101742
0.00104545
0.00101955
0.0010193
0.0010173
0.00101292
0.000983537
0.00101124
0.00101157
0.000985579
0.000985759
0.00101325
0.00098359
0.00101099
0.001011
0.000985608
0.000985571
0.00101091
0.000985706
0.000985412
0.00101275
0.00098356
0.00101076
0.000985575
0.000985482
0.000983474
0.00097893
0.000949378
0.00097706
0.000977108
0.0009513
0.000951067
0.000978926
0.000949172
0.00097715
0.000977128
0.000951459
0.000951467
0.000976996
0.000951183
0.000951563
0.000978988
0.000949546
0.000977111
0.000951524
0.000951682
0.000949663
0.000944633
0.000914169
0.000942585
0.00094234
0.000916211
0.000916147
0.000944462
0.000914292
0.00094272
0.000942743
0.000916192
0.000916252
0.000942942
0.000916295
0.000916788
0.000944826
0.000914282
0.000943059
0.000916356
0.000916735
0.000914635
0.000909386
0.000879476
0.000907417
0.000907464
0.000881439
0.00088156
0.000909533
0.000879514
0.000907347
0.000907481
0.000881352
0.000881509
0.000907956
0.000881494
0.000881322
0.000909487
0.000879448
0.00090785
0.000881443
0.000881249
0.000879257
0.000874872
0.000845577
0.000872959
0.000873019
0.000847627
0.00084735
0.000874825
0.00084515
0.000872883
0.000872953
0.000847632
0.00084726
0.000872535
0.000847043
0.00084659
0.000874767
0.000845083
0.000872522
0.000847025
0.000846663
0.000844676
0.000840855
0.000810528
0.000839003
0.000838772
0.000812655
0.000812854
0.000840519
0.000810864
0.000839028
0.000838615
0.000812655
0.000812567
0.000838079
0.000813011
0.000812754
0.000840412
0.000810591
0.000838152
0.000812676
0.000812655
0.000810768
0.000805738
0.000775375
0.000803838
0.000804122
0.000777349
0.000777743
0.000806138
0.000775917
0.000803854
0.000803885
0.000777473
0.000777999
0.000804291
0.000778143
0.00077865
0.000805881
0.000776162
0.00080419
0.000778276
0.000778603
0.000776615
0.000770714
0.000741834
0.000768686
0.000769027
0.000743606
0.000743292
0.000771163
0.000741338
0.000768834
0.000769436
0.000743681
0.000743803
0.000769961
0.000743073
0.000743601
0.000771491
0.000741871
0.000770002
0.000743795
0.000743778
0.000741601
0.000737253
0.000708323
0.000735278
0.000734874
0.000710323
0.000709778
0.000736742
0.000707674
0.000735298
0.000735235
0.000710129
0.000709471
0.000734862
0.000709264
0.000708985
0.00073716
0.000707285
0.000735008
0.000709054
0.000708933
0.000706993
0.000703615
0.000672546
0.000701771
0.000701364
0.000674829
0.000675264
0.000703069
0.00067314
0.000701552
0.000700838
0.000674687
0.000674632
0.000700455
0.000675433
0.000674857
0.0007026
0.000672617
0.000700344
0.000674758
0.000674669
0.000672846
0.000667673
0.000637148
0.000665794
0.000666231
0.000639137
0.000639425
0.00066828
0.000637547
0.00066575
0.000665819
0.00063933
0.000639779
0.000666231
0.000639888
0.000640108
0.000667856
0.000637929
0.000666083
0.000640113
0.000640187
0.000638134
0.000632438
0.000603326
0.000630427
0.000630725
0.000605027
0.000605114
0.000632804
0.000603087
0.000630669
0.000631144
0.000605219
0.000605344
0.000631386
0.000604979
0.000605193
0.000633214
0.000603357
0.000631508
0.000605262
0.00060532
0.000603205
0.000598681
0.000568946
0.000596612
0.000596446
0.000570898
0.000570574
0.000598383
0.000568595
0.000596733
0.000596741
0.000570872
0.000570719
0.000596475
0.000570285
0.000570412
0.000598638
0.000568621
0.000596572
0.000570477
0.000570419
0.000568432
0.000564201
0.000534205
0.000562241
0.000561978
0.000536333
0.000536317
0.000563915
0.000534351
0.000562145
0.000561981
0.000536026
0.000535826
0.000561785
0.000536176
0.000536017
0.000563876
0.000533864
0.000561752
0.000535844
0.000535888
0.000534045
0.000529498
0.000499156
0.000527692
0.000527779
0.000501305
0.000501452
0.000529683
0.000499268
0.000527379
0.000527161
0.000501311
0.00050119
0.000527429
0.000501568
0.000501247
0.000529145
0.000499213
0.000527287
0.000501276
0.000501193
0.00049917
0.000494289
0.000463547
0.000492291
0.00049235
0.000465524
0.000465464
0.000494327
0.000463434
0.000492528
0.000492449
0.000465757
0.000465899
0.000492351
0.000465601
0.000465733
0.000494433
0.000463874
0.000492374
0.000465956
0.00046589
0.000463752
0.000458732
0.000428977
0.00045668
0.000456669
0.000430795
0.000430893
0.000458644
0.000429074
0.000456894
0.000457083
0.000430828
0.000430999
0.000457001
0.000430951
0.000431185
0.000459073
0.000429087
0.000457146
0.000431044
0.0004312
0.000429239
0.000424339
0.000394645
0.000422333
0.00042239
0.000396623
0.000396571
0.000424418
0.000394581
0.000422314
0.000422399
0.000396536
0.000396473
0.000422581
0.00039648
0.000396432
0.000424392
0.000394449
0.000422557
0.000396371
0.000396351
0.000394384
0.000389883
0.000359396
0.000387917
0.000387851
0.000361487
0.00036146
0.000389804
0.000359381
0.000387845
0.00038774
0.000361424
0.000361311
0.000387609
0.000361385
0.000361245
0.000389669
0.000359274
0.000387531
0.000361274
0.000361222
0.000359253
0.000354561
0.000324165
0.00035262
0.000352622
0.000326169
0.000326192
0.000354562
0.000324207
0.000352571
0.000352501
0.000326207
0.000326291
0.000352523
0.000326282
0.000326466
0.000354481
0.000324342
0.00035253
0.000326416
0.000326538
0.000324468
0.000319404
0.000289164
0.000317428
0.000317446
0.000291191
0.000291192
0.000319441
0.000289143
0.000317487
0.0003176
0.000291224
0.000291229
0.000317711
0.000291186
0.000291125
0.000319586
0.000289142
0.000317765
0.000291188
0.00029112
0.000289046
0.000284347
0.000253469
0.000282379
0.000282377
0.000255594
0.000255596
0.00028432
0.000253466
0.000282385
0.000282344
0.000255542
0.000255409
0.00028221
0.000255512
0.000255148
0.000284289
0.000253231
0.000282187
0.000255294
0.000255064
0.000252983
0.00024852
0.000217386
0.000246546
0.000246562
0.000219329
0.000219299
0.000248527
0.000217335
0.000246485
0.000246338
0.000219334
0.000219312
0.000246086
0.000219328
0.000219478
0.000248276
0.00021746
0.000246001
0.000219365
0.000219481
0.000217619
0.000212553
0.000182493
0.000210449
0.00021036
0.000184343
0.000184348
0.000212498
0.00018256
0.000210491
0.000210537
0.000184401
0.000184569
0.000210769
0.000184484
0.000184915
0.000212678
0.00018282
0.000210806
0.000184745
0.000185017
0.000183153
0.000177801
0.000148027
0.000175742
0.000175777
0.000150072
0.000150148
0.000177881
0.000148095
0.000175808
0.000176018
0.000150085
0.000150271
0.000176445
0.000150147
0.000150154
0.000178171
0.000148065
0.000176579
0.000150274
0.000150176
0.000147877
0.000143213
0.00011225
0.000141356
0.000141453
0.000114471
0.000114432
0.000143251
0.000112139
0.000141314
0.000141353
0.000114385
0.000114119
0.000141001
0.000114244
0.000113788
0.000143114
0.000111812
0.000140969
0.000113918
0.000113679
0.000111533
0.000107269
7.5936e-05
0.000105414
0.000105361
7.79675e-05
7.7921e-05
0.000107166
7.58821e-05
0.000105336
0.000105055
7.79418e-05
7.77364e-05
0.000104737
7.78879e-05
7.771e-05
0.00010684
7.57946e-05
0.000104625
7.76975e-05
7.76322e-05
7.58559e-05
7.09724e-05
4.01377e-05
6.8923e-05
6.88554e-05
4.20339e-05
4.20285e-05
7.09314e-05
4.01793e-05
6.89369e-05
6.88357e-05
4.211e-05
4.22552e-05
6.89833e-05
4.21664e-05
4.2491e-05
7.09259e-05
4.04076e-05
6.89546e-05
4.2389e-05
4.25603e-05
4.05868e-05
3.51729e-05
7.72984e-06
3.32116e-05
3.32137e-05
1.07643e-05
1.08791e-05
3.52271e-05
7.86889e-06
3.32826e-05
3.34236e-05
1.08066e-05
1.10462e-05
3.36443e-05
1.09897e-05
1.12345e-05
3.54478e-05
8.03676e-06
3.37144e-05
1.12008e-05
1.13308e-05
8.1579e-06
4.53736e-06
6.36814e-06
6.45407e-06
4.63158e-06
6.40272e-06
6.59198e-06
5.51762e-06
5.70322e-06
5.77742e-06
6.69969e-06
4.77766e-06
6.81088e-06
0.00353114
0.00353364
0.00353241
0.00353258
0.00355966
0.00353376
0.00356327
0.003534
0.00355987
0.00353366
0.00353398
0.00356338
0.00354472
0.00356643
0.00356647
0.00350368
0.00351735
0.00352124
0.00349604
0.00349409
0.00349934
0.0035037
0.00351629
0.00352143
0.00349611
0.00351966
0.00351971
0.00351969
0.00349324
0.0034933
0.00349328
0.00349327
0.00350337
0.00351501
0.0035202
0.00351095
0.00352233
0.00350057
0.00351121
0.00349433
0.00349941
0.00350343
0.00352027
0.00351521
0.00351102
0.00352242
0.00351126
0.00350071
0.00352108
0.00352134
0.00350822
0.00350042
0.00350046
0.00347616
0.00349039
0.0034903
0.00347416
0.00348766
0.00347326
0.00347602
0.00349021
0.00349028
0.00347399
0.00348422
0.00348419
0.00348415
0.00345571
0.00345579
0.00345575
0.00345571
0.00347394
0.00348898
0.00348268
0.00347335
0.00348741
0.00347449
0.00347329
0.00348764
0.00347318
0.00347393
0.00348273
0.00348897
0.00347332
0.00348741
0.00347325
0.00347446
0.00349066
0.00349063
0.00347168
0.00347488
0.00347488
0.00343368
0.00344839
0.00344928
0.00343231
0.00344723
0.00343147
0.00343362
0.00344824
0.00344931
0.00343248
0.00344569
0.00344566
0.00344562
0.00341315
0.00341314
0.00341314
0.00341308
0.00343237
0.00344796
0.00344381
0.00343337
0.00344692
0.00343281
0.00343332
0.00344718
0.00343141
0.00343234
0.0034438
0.00344789
0.00343329
0.00344692
0.0034333
0.0034328
0.00344876
0.00344881
0.00343068
0.00343267
0.00343258
0.00338738
0.0034037
0.00340519
0.00338593
0.00340308
0.00338537
0.00338728
0.00340392
0.00340524
0.00338576
0.0034016
0.0034016
0.00340155
0.00336576
0.00336573
0.00336573
0.0033657
0.00338648
0.00340357
0.00339992
0.0033882
0.003403
0.00338663
0.0033882
0.00340301
0.0033854
0.00338648
0.00339989
0.00340347
0.00338817
0.00340296
0.00338818
0.00338661
0.00340385
0.00340358
0.00338488
0.00338602
0.00338632
0.0033385
0.00335566
0.00335687
0.00333722
0.00335512
0.00333691
0.00333844
0.0033555
0.00335692
0.00333772
0.00335355
0.00335355
0.00335352
0.00331682
0.00331686
0.00331684
0.00331681
0.00333801
0.00335557
0.00335212
0.00333992
0.00335522
0.00333795
0.00333995
0.00335513
0.0033369
0.00333804
0.0033521
0.00335553
0.00333984
0.00335518
0.00333996
0.00333783
0.00335547
0.00335534
0.00333635
0.00333731
0.00333783
0.00328934
0.00330649
0.00330757
0.00328851
0.00330633
0.00328823
0.00328924
0.00330604
0.0033076
0.00328788
0.00330467
0.00330465
0.00330461
0.00326839
0.00326835
0.00326838
0.00326831
0.00328924
0.00330669
0.00330343
0.00329121
0.00330646