/*--------------------------------*- C++ -*----------------------------------*\
| =========                 |                                                 |
| \\      /  F ield         | OpenFOAM: The Open Source CFD Toolbox           |
|  \\    /   O peration     | Version:  v2012                                 |
|   \\  /    A nd           | Website:  www.openfoam.com                      |
|    \\/     M anipulation  |                                                 |
\*---------------------------------------------------------------------------*/
FoamFile
{
    version     2.0;
    format      ascii;
    class       volScalarField;
    location    "1875";
    object      k;
}
// * * * * * * * * * * * * * * * * * * * * * * * * * * * * * * * * * * * * * //

dimensions      [0 2 -2 0 0 0 0];


internalField   nonuniform List<scalar> 
171728
(
1.82784e-07
7.636e-07
2.5524e-07
3.47007e-07
1.82654e-07
8.667e-07
2.45882e-07
3.23795e-07
1.79422e-07
9.70555e-07
2.39998e-07
3.00176e-07
1.76043e-07
1.03163e-06
2.32926e-07
2.82987e-07
1.74288e-07
1.04597e-06
2.23271e-07
2.79532e-07
1.70134e-07
7.92089e-07
2.13449e-07
2.84007e-07
1.63817e-07
5.22589e-07
2.04772e-07
2.93706e-07
1.56068e-07
4.35898e-07
1.96907e-07
3.33005e-07
1.5254e-07
4.24371e-07
1.89009e-07
3.66748e-07
1.51363e-07
4.34732e-07
1.82651e-07
3.68569e-07
1.52663e-07
4.89299e-07
1.78581e-07
3.72175e-07
1.45716e-07
8.62705e-07
1.75098e-07
3.73939e-07
1.19676e-07
9.99477e-07
1.72885e-07
2.57872e-07
1.0612e-07
7.2156e-07
1.73731e-07
1.82132e-07
1.02133e-07
3.88069e-07
1.78709e-07
1.54507e-07
1.01407e-07
2.33705e-07
1.87402e-07
1.48194e-07
1.00744e-07
1.72514e-07
1.99708e-07
1.54774e-07
1.00204e-07
1.75029e-07
2.25294e-07
1.73055e-07
9.92966e-08
2.20118e-07
2.70945e-07
2.1813e-07
9.83915e-08
2.77354e-07
3.36677e-07
2.71206e-07
9.75848e-08
3.42908e-07
4.17753e-07
4.50662e-07
9.66655e-08
4.53564e-07
5.23218e-07
6.04605e-07
9.69108e-08
6.54968e-07
6.62873e-07
1.02189e-06
9.71727e-08
8.28356e-07
9.42803e-07
1.71242e-06
9.92078e-08
1.25566e-06
1.15756e-06
2.5176e-06
1.0335e-07
1.49148e-06
1.70989e-06
3.98911e-06
1.0799e-07
2.23398e-06
2.06653e-06
5.3902e-06
1.19402e-07
2.69136e-06
2.82541e-06
7.44953e-06
1.40841e-07
3.42005e-06
3.50391e-06
1.02624e-05
1.58665e-07
4.50598e-06
4.5904e-06
1.2315e-05
1.8129e-07
5.72431e-06
5.2174e-06
1.50048e-05
2.28772e-07
5.7636e-06
6.48022e-06
1.72623e-05
3.13283e-07
8.38565e-06
8.04151e-06
1.94265e-05
3.65616e-07
9.33493e-06
8.66696e-06
2.12948e-05
5.45741e-07
9.61823e-06
1.0897e-05
2.32349e-05
6.07829e-07
1.26695e-05
1.19382e-05
2.50965e-05
8.89293e-07
1.32878e-05
1.38522e-05
2.61901e-05
9.52992e-07
1.61159e-05
1.53051e-05
2.82699e-05
1.58711e-06
1.72026e-05
1.72556e-05
2.83508e-05
1.95208e-06
1.78956e-05
1.92621e-05
3.22942e-05
2.2153e-06
2.194e-05
2.14968e-05
3.15133e-05
2.86879e-06
2.27877e-05
2.17376e-05
3.16572e-05
3.02321e-06
2.33594e-05
2.46344e-05
3.41438e-05
4.22281e-06
2.665e-05
2.64655e-05
3.58255e-05
5.09694e-06
2.7453e-05
2.77902e-05
3.63934e-05
5.94968e-06
2.9711e-05
2.94669e-05
3.70003e-05
6.84833e-06
3.15804e-05
3.15957e-05
3.79829e-05
8.10478e-06
3.243e-05
3.24828e-05
3.91787e-05
8.80953e-06
3.42471e-05
3.40208e-05
4.07694e-05
1.05147e-05
3.54008e-05
3.60322e-05
4.13477e-05
1.27894e-05
3.64476e-05
3.66898e-05
4.2048e-05
1.42685e-05
3.87525e-05
3.75098e-05
4.3136e-05
1.42434e-05
3.95018e-05
3.98332e-05
4.41297e-05
1.45597e-05
3.95334e-05
4.04351e-05
4.45647e-05
1.95059e-05
4.18395e-05
4.12191e-05
4.58217e-05
2.13432e-05
4.26068e-05
4.25e-05
4.60849e-05
2.14513e-05
4.32349e-05
4.3315e-05
4.73158e-05
2.18536e-05
4.45521e-05
4.46966e-05
4.76482e-05
2.46467e-05
4.46427e-05
4.50991e-05
4.87981e-05
2.59993e-05
4.66021e-05
4.61728e-05
4.95177e-05
2.77828e-05
4.71741e-05
4.72536e-05
4.9667e-05
2.8904e-05
4.73734e-05
4.74171e-05
4.98469e-05
2.91652e-05
4.85653e-05
4.86036e-05
5.10461e-05
3.1075e-05
4.88648e-05
4.90605e-05
5.13814e-05
3.23454e-05
5.01847e-05
5.01431e-05
5.26196e-05
3.37986e-05
5.03476e-05
5.08236e-05
5.38886e-05
3.46131e-05
5.15199e-05
5.13858e-05
5.34971e-05
3.57103e-05
5.19159e-05
5.13945e-05
5.20693e-05
3.59523e-05
5.18803e-05
5.13066e-05
5.26717e-05
3.74462e-05
5.28327e-05
5.33233e-05
5.61172e-05
3.87127e-05
5.38397e-05
5.42845e-05
5.63867e-05
3.93912e-05
5.39755e-05
5.39748e-05
5.47861e-05
4.01534e-05
5.39921e-05
5.38559e-05
5.4859e-05
4.11229e-05
5.42561e-05
5.39486e-05
5.56303e-05
4.11419e-05
5.42179e-05
5.45119e-05
5.59241e-05
4.17987e-05
5.56204e-05
5.58013e-05
5.68645e-05
4.3885e-05
5.62434e-05
5.58901e-05
5.70187e-05
4.40171e-05
5.60564e-05
5.56733e-05
5.75117e-05
4.36055e-05
5.57905e-05
5.63708e-05
5.77184e-05
4.40352e-05
5.60755e-05
5.66336e-05
5.67292e-05
4.51386e-05
5.63561e-05
5.63922e-05
5.70938e-05
4.56409e-05
5.66365e-05
5.62014e-05
5.78614e-05
4.58098e-05
5.72004e-05
5.69179e-05
5.81711e-05
4.60683e-05
5.74783e-05
5.72652e-05
5.83069e-05
4.64161e-05
5.70469e-05
5.71763e-05
5.78125e-05
4.63472e-05
5.6502e-05
5.71296e-05
5.76349e-05
4.63208e-05
5.68541e-05
5.70024e-05
5.82431e-05
4.63538e-05
5.715e-05
5.65526e-05
5.81518e-05
4.70218e-05
5.80083e-05
5.75834e-05
5.88153e-05
4.7676e-05
5.79704e-05
5.82035e-05
5.88724e-05
4.67106e-05
5.53139e-05
5.59835e-05
5.60409e-05
4.56793e-05
5.57714e-05
5.55437e-05
5.75737e-05
4.71558e-05
5.88323e-05
5.81954e-05
6.04458e-05
4.81812e-05
5.74626e-05
5.78254e-05
5.75131e-05
4.56607e-05
5.34406e-05
5.3932e-05
5.50221e-05
2.75259e-07
3.08978e-07
2.82496e-07
2.9035e-07
2.22853e-07
3.15575e-07
1.78671e-07
2.1424e-07
1.47621e-07
1.90739e-07
5.45728e-07
2.8367e-07
3.40853e-07
2.48852e-07
3.14011e-07
3.50282e-07
2.73054e-07
2.67909e-07
4.01242e-07
5.11413e-07
3.90422e-07
4.71565e-07
2.89117e-07
3.16626e-07
3.12521e-07
3.15581e-07
3.03141e-07
3.06786e-07
4.20082e-07
8.4198e-07
3.66571e-07
3.40017e-07
3.19908e-07
3.71974e-07
2.48058e-07
3.62643e-07
3.2803e-07
2.66081e-07
2.60135e-07
3.85243e-07
4.43258e-07
3.65925e-07
3.46233e-07
3.15926e-07
3.45027e-07
2.99947e-07
3.03403e-07
2.92861e-07
2.93726e-07
3.50941e-07
9.45907e-07
3.21399e-07
3.18636e-07
3.0003e-07
3.60356e-07
2.41307e-07
3.56532e-07
3.04223e-07
2.57666e-07
2.47663e-07
3.59043e-07
3.15069e-07
3.39147e-07
2.43245e-07
3.43803e-07
3.63056e-07
2.9155e-07
2.90606e-07
2.90271e-07
2.8181e-07
3.1698e-07
1.02037e-06
3.12895e-07
2.99007e-07
2.85309e-07
3.56162e-07
2.34988e-07
3.56187e-07
2.85472e-07
2.4444e-07
2.35592e-07
3.32755e-07
2.26753e-07
3.20017e-07
1.91621e-07
3.61094e-07
3.70185e-07
2.90306e-07
2.79034e-07
2.95171e-07
2.71021e-07
3.13401e-07
1.04823e-06
3.27361e-07
2.84622e-07
2.7312e-07
3.56866e-07
2.25766e-07
3.6177e-07
2.8035e-07
2.33656e-07
2.32284e-07
3.18623e-07
1.83489e-07
3.18298e-07
1.65002e-07
3.66382e-07
3.43852e-07
2.99119e-07
2.68433e-07
3.11718e-07
2.60689e-07
3.34472e-07
8.80202e-07
3.67393e-07
2.72347e-07
2.59453e-07
3.63865e-07
2.15915e-07
3.71539e-07
2.84402e-07
2.31655e-07
2.38862e-07
3.18964e-07
1.60017e-07
3.26712e-07
1.50647e-07
3.27393e-07
2.82452e-07
3.16765e-07
2.58116e-07
3.39887e-07
2.50255e-07
3.76271e-07
5.70483e-07
3.90642e-07
2.58592e-07
2.46086e-07
3.75043e-07
2.06834e-07
3.94815e-07
2.93472e-07
2.39157e-07
2.60218e-07
3.30522e-07
1.49342e-07
3.4539e-07
1.45673e-07
2.81156e-07
2.75174e-07
3.49981e-07
2.47507e-07
3.86264e-07
2.39419e-07
4.0085e-07
4.46132e-07
5.0072e-07
2.45326e-07
2.34963e-07
4.03066e-07
1.98833e-07
4.37058e-07
3.30743e-07
2.615e-07
2.92277e-07
3.51686e-07
1.44486e-07
3.74243e-07
1.402e-07
2.72652e-07
2.64323e-07
3.99439e-07
2.36718e-07
4.42377e-07
2.28816e-07
5.44236e-07
4.24764e-07
6.36342e-07
2.34353e-07
2.24643e-07
4.51696e-07
1.90819e-07
4.9221e-07
3.67647e-07
2.9428e-07
3.33411e-07
3.81167e-07
1.39088e-07
3.92073e-07
1.36955e-07
2.62913e-07
2.60047e-07
4.60459e-07
2.26273e-07
5.36056e-07
2.18347e-07
6.45423e-07
4.31272e-07
6.1441e-07
2.23998e-07
2.14178e-07
5.0841e-07
1.8408e-07
5.97629e-07
3.70833e-07
3.34766e-07
3.53591e-07
3.92458e-07
1.35859e-07
3.70925e-07
1.3461e-07
2.59998e-07
2.64887e-07
5.66821e-07
2.15725e-07
6.50731e-07
2.08662e-07
5.38835e-07
4.57008e-07
3.41518e-07
2.13613e-07
2.04852e-07
6.42187e-07
1.7957e-07
7.77732e-07
3.73932e-07
3.52364e-07
3.49973e-07
3.45272e-07
1.34696e-07
2.74818e-07
1.37904e-07
2.66912e-07
3.44364e-07
6.69255e-07
2.0628e-07
6.87298e-07
1.99411e-07
2.95368e-07
7.74076e-07
2.03827e-07
2.04413e-07
1.96355e-07
8.09816e-07
1.75607e-07
8.46371e-07
3.75765e-07
3.4591e-07
2.50063e-07
2.5203e-07
1.39697e-07
1.93943e-07
1.42279e-07
3.53596e-07
4.28451e-07
6.84848e-07
1.97474e-07
5.384e-07
1.919e-07
1.86421e-07
9.94462e-07
1.56579e-07
1.95997e-07
1.88691e-07
8.45571e-07
1.73247e-07
7.00018e-07
2.70745e-07
2.43565e-07
1.92617e-07
1.81215e-07
1.42224e-07
1.55819e-07
1.32632e-07
4.27869e-07
3.02778e-07
4.66771e-07
1.89891e-07
2.95172e-07
1.84975e-07
1.50659e-07
8.6768e-07
1.36381e-07
1.88501e-07
1.81359e-07
6.04632e-07
1.73163e-07
3.67134e-07
1.85232e-07
1.89995e-07
1.63815e-07
1.48899e-07
1.29454e-07
1.38246e-07
1.26791e-07
2.81819e-07
1.89299e-07
2.52215e-07
1.84362e-07
1.71292e-07
1.81482e-07
1.32644e-07
4.41952e-07
1.29128e-07
1.81323e-07
1.76168e-07
3.07314e-07
1.77034e-07
1.92632e-07
1.54943e-07
1.63299e-07
1.5502e-07
1.38242e-07
1.26852e-07
1.47494e-07
1.27874e-07
1.86685e-07
1.57611e-07
1.58171e-07
1.81216e-07
1.42737e-07
1.82188e-07
1.29459e-07
2.66352e-07
1.34813e-07
1.76527e-07
1.75684e-07
1.72732e-07
1.83902e-07
1.42477e-07
1.46928e-07
1.56381e-07
1.61425e-07
1.54125e-07
1.30098e-07
1.65461e-07
1.37413e-07
1.57721e-07
1.55306e-07
1.4228e-07
1.83609e-07
1.44347e-07
1.90474e-07
1.36841e-07
1.78123e-07
1.40758e-07
1.77157e-07
1.8234e-07
1.40014e-07
1.96433e-07
1.40242e-07
1.51312e-07
1.64917e-07
1.77808e-07
1.66726e-07
1.40913e-07
1.7159e-07
1.56134e-07
1.58799e-07
1.70222e-07
1.47544e-07
1.94609e-07
1.67005e-07
2.07823e-07
1.42403e-07
1.72623e-07
1.58152e-07
1.85576e-07
2.00645e-07
1.41594e-07
2.19659e-07
1.57545e-07
1.67211e-07
1.84235e-07
2.16051e-07
1.73909e-07
1.59109e-07
2.00244e-07
1.88874e-07
1.74927e-07
2.09055e-07
1.72594e-07
2.16014e-07
2.04632e-07
2.50389e-07
1.61707e-07
2.07526e-07
1.87471e-07
2.07163e-07
2.37448e-07
1.6288e-07
2.59987e-07
1.91131e-07
2.01157e-07
2.29584e-07
2.73017e-07
2.06167e-07
2.0073e-07
2.45552e-07
2.35455e-07
2.29244e-07
2.73718e-07
2.12248e-07
2.59303e-07
2.55074e-07
3.17486e-07
2.00409e-07
2.56498e-07
2.28538e-07
2.53128e-07
3.06432e-07
2.04429e-07
3.17827e-07
2.35213e-07
2.53393e-07
3.02294e-07
3.8569e-07
2.64234e-07
2.55356e-07
3.08441e-07
3.00615e-07
2.96493e-07
3.82141e-07
2.73725e-07
3.29131e-07
3.19355e-07
3.82734e-07
2.456e-07
3.1935e-07
3.20199e-07
3.30667e-07
4.01379e-07
2.54762e-07
3.8057e-07
3.26378e-07
4.15762e-07
4.23611e-07
6.25355e-07
3.40392e-07
3.26475e-07
4.21407e-07
4.24147e-07
4.06821e-07
6.2103e-07
3.50688e-07
4.2122e-07
4.34124e-07
4.91921e-07
3.40958e-07
4.38337e-07
4.08551e-07
4.46845e-07
6.85429e-07
3.41966e-07
5.01132e-07
4.14981e-07
5.32833e-07
6.48371e-07
9.26032e-07
4.40545e-07
4.383e-07
5.7813e-07
5.69573e-07
6.53571e-07
9.11507e-07
4.50613e-07
5.25676e-07
5.86677e-07
6.36269e-07
4.53693e-07
5.86414e-07
5.69828e-07
7.11515e-07
9.45141e-07
4.62491e-07
6.29969e-07
5.68393e-07
9.64071e-07
1.08362e-06
1.57822e-06
6.39065e-07
6.4929e-07
8.02661e-07
8.10948e-07
1.08675e-06
1.59098e-06
6.41873e-07
6.72949e-07
8.04595e-07
8.67063e-07
6.2063e-07
7.92149e-07
8.1418e-07
1.05741e-06
1.59619e-06
6.14042e-07
8.65765e-07
8.06922e-07
1.58879e-06
1.67896e-06
2.25764e-06
8.52587e-07
8.41589e-07
1.11959e-06
1.12284e-06
1.6481e-06
2.39136e-06
8.46562e-07
9.18151e-07
1.09463e-06
1.07889e-06
8.4487e-07
1.13558e-06
1.08142e-06
1.7767e-06
2.27424e-06
8.39407e-07
1.09237e-06
1.08136e-06
2.21282e-06
2.5017e-06
3.55782e-06
1.21228e-06
1.23293e-06
1.50018e-06
1.38837e-06
2.69171e-06
3.41631e-06
1.19112e-06
1.20086e-06
1.47849e-06
1.69936e-06
1.20739e-06
1.40662e-06
1.4934e-06
2.41029e-06
3.69724e-06
1.21309e-06
1.59511e-06
1.4996e-06
3.79315e-06
3.80488e-06
5.36075e-06
1.66126e-06
1.49085e-06
2.00599e-06
2.14421e-06
3.55249e-06
5.552e-06
1.61127e-06
1.79121e-06
1.9745e-06
1.90224e-06
1.59831e-06
2.10982e-06
1.98308e-06
4.06643e-06
4.89769e-06
1.5939e-06
1.88324e-06
1.95037e-06
5.04517e-06
5.73286e-06
7.03731e-06
2.16713e-06
2.29062e-06
2.68451e-06
2.47368e-06
6.14636e-06
6.97016e-06
2.12057e-06
2.03266e-06
2.58789e-06
2.79572e-06
2.08716e-06
2.44735e-06
2.5451e-06
5.10594e-06
7.76535e-06
2.06808e-06
2.7531e-06
2.56122e-06
7.00111e-06
7.45855e-06
9.38034e-06
2.75542e-06
2.66059e-06
3.4017e-06
3.2721e-06
7.0963e-06
9.52177e-06
2.68836e-06
2.88343e-06
3.25569e-06
3.21087e-06
2.74814e-06
3.35626e-06
3.38176e-06
8.32406e-06
8.97569e-06
2.74955e-06
3.24018e-06
3.32565e-06
9.75556e-06
9.9687e-06
1.28142e-05
3.78732e-06
3.37271e-06
4.63078e-06
4.18033e-06
1.00478e-05
1.17019e-05
3.61301e-06
3.48672e-06
4.37487e-06
4.31596e-06
3.59658e-06
4.03611e-06
4.09141e-06
9.35039e-06
1.26364e-05
3.55216e-06
4.29135e-06
4.13655e-06
1.1908e-05
1.30545e-05
1.33203e-05
4.68128e-06
4.60966e-06
4.747e-06
5.56197e-06
1.25393e-05
1.56653e-05
4.42105e-06
4.57727e-06
4.79005e-06
5.11293e-06
4.27839e-06
5.60644e-06
5.22173e-06
1.31882e-05
1.42724e-05
4.31588e-06
5.15098e-06
5.10911e-06
1.44262e-05
1.38532e-05
1.75044e-05
4.95871e-06
5.65993e-06
6.25651e-06
5.66479e-06
1.58477e-05
1.52342e-05
5.30997e-06
5.2211e-06
6.19456e-06
6.01653e-06
5.53858e-06
5.71877e-06
6.12541e-06
1.46049e-05
1.64142e-05
5.40478e-06
5.95641e-06
6.17327e-06
1.68502e-05
1.80146e-05
1.88824e-05
6.62112e-06
5.72552e-06
7.76061e-06
7.74032e-06
1.52865e-05
1.97935e-05
6.43785e-06
6.52127e-06
7.55969e-06
7.87155e-06
6.31089e-06
7.68767e-06
7.39928e-06
1.7059e-05
1.95857e-05
6.40243e-06
7.87812e-06
7.46882e-06
1.89068e-05
1.92389e-05
2.11847e-05
7.973e-06
8.43824e-06
8.62166e-06
9.38497e-06
2.09272e-05
2.18376e-05
7.79895e-06
8.02369e-06
8.46992e-06
8.33624e-06
7.88426e-06
9.30857e-06
8.66603e-06
1.99703e-05
2.05924e-05
7.90524e-06
8.32134e-06
8.45109e-06
2.09735e-05
2.16902e-05
2.30145e-05
9.0317e-06
9.41289e-06
1.06228e-05
9.45355e-06
2.1907e-05
2.1845e-05
8.89246e-06
8.69336e-06
1.05678e-05
1.04427e-05
8.87658e-06
9.38948e-06
1.00026e-05
2.09076e-05
2.31729e-05
8.63013e-06
1.04536e-05
1.00298e-05
2.2689e-05
2.33921e-05
2.47065e-05
1.09195e-05
9.65694e-06
1.13952e-05
1.21433e-05
2.22424e-05
2.49956e-05
1.0898e-05
1.09445e-05
1.13776e-05
1.16482e-05
1.05012e-05
1.21511e-05
1.20549e-05
2.37206e-05
2.4637e-05
1.06442e-05
1.16624e-05
1.2041e-05
2.48378e-05
2.50683e-05
2.5922e-05
1.18352e-05
1.26599e-05
1.35855e-05
1.30952e-05
2.54212e-05
2.60463e-05
1.17916e-05
1.19987e-05
1.35565e-05
1.34547e-05
1.22819e-05
1.30944e-05
1.28527e-05
2.49191e-05
2.61256e-05
1.21738e-05
1.33616e-05
1.27249e-05
2.57559e-05
2.6162e-05
2.67358e-05
1.38811e-05
1.3296e-05
1.41462e-05
1.53731e-05
2.63894e-05
2.80525e-05
1.39116e-05
1.37967e-05
1.42009e-05
1.47666e-05
1.34239e-05
1.54275e-05
1.5547e-05
2.6517e-05
2.74443e-05
1.33936e-05
1.48662e-05
1.56085e-05
2.80305e-05
2.71413e-05
2.9474e-05
1.43998e-05
1.60716e-05
1.73761e-05
1.71836e-05
2.83974e-05
2.87986e-05
1.43974e-05
1.52545e-05
1.70681e-05
1.69705e-05
1.61449e-05
1.71658e-05
1.65882e-05
2.77717e-05
2.89642e-05
1.61776e-05
1.68784e-05
1.65709e-05
2.8233e-05
2.99221e-05
3.05008e-05
1.81954e-05
1.7241e-05
1.92291e-05
1.7509e-05
2.88998e-05
2.9484e-05
1.78648e-05
1.74117e-05
1.92513e-05
1.869e-05
1.66193e-05
1.73735e-05
1.90242e-05
2.92842e-05
3.03848e-05
1.66003e-05
1.86101e-05
1.90022e-05
3.15776e-05
3.06817e-05
3.14522e-05
1.9332e-05
1.80939e-05
2.03044e-05
2.10334e-05
3.00222e-05
3.22272e-05
1.95003e-05
1.92464e-05
2.04311e-05
2.10717e-05
2.03354e-05
2.1245e-05
2.15454e-05
3.07812e-05
3.172e-05
2.02823e-05
2.11631e-05
2.14527e-05
3.16183e-05
3.17724e-05
3.25668e-05
2.09137e-05
2.17637e-05
2.26292e-05
2.27866e-05
3.24698e-05
3.25418e-05
2.08651e-05
2.14172e-05
2.23809e-05
2.1669e-05
2.15479e-05
2.27609e-05
2.14386e-05
3.18912e-05
3.20169e-05
2.14528e-05
2.16816e-05
2.13239e-05
3.12125e-05
3.27318e-05
3.30964e-05
2.28412e-05
2.28407e-05
2.30801e-05
2.30864e-05
3.26028e-05
3.32569e-05
2.26434e-05
2.17889e-05
2.3155e-05
2.37747e-05
2.14228e-05
2.29667e-05
2.22935e-05
3.21901e-05
3.37379e-05
2.13139e-05
2.36873e-05
2.25288e-05
3.35666e-05
3.33814e-05
3.51288e-05
2.34462e-05
2.35275e-05
2.61267e-05
2.60003e-05
3.36087e-05
3.49328e-05
2.37461e-05
2.46252e-05
2.58827e-05
2.62875e-05
2.38309e-05
2.60849e-05
2.70533e-05
3.42014e-05
3.50978e-05
2.40655e-05
2.6245e-05
2.70423e-05
3.55946e-05
3.54401e-05
3.60551e-05
2.65819e-05
2.65535e-05
2.77843e-05
2.70806e-05
3.51795e-05
3.56358e-05
2.63602e-05
2.65177e-05
2.77776e-05
2.72721e-05
2.7662e-05
2.7172e-05
2.83932e-05
3.52426e-05
3.56958e-05
2.75167e-05
2.73672e-05
2.80358e-05
3.6282e-05
3.62779e-05
3.70893e-05
2.83365e-05
2.73555e-05
2.92854e-05
2.92816e-05
3.58245e-05
3.71629e-05
2.82581e-05
2.77177e-05
2.91759e-05
2.90918e-05
2.84284e-05
2.92114e-05
2.88146e-05
3.5944e-05
3.69875e-05
2.81706e-05
2.90002e-05
2.88928e-05
3.67844e-05
3.72743e-05
3.8095e-05
2.94818e-05
2.98778e-05
3.08523e-05
3.12444e-05
3.74975e-05
3.83294e-05
2.94639e-05
2.95009e-05
3.09045e-05
3.11568e-05
2.92227e-05
3.11092e-05
3.06229e-05
3.72512e-05
3.83169e-05
2.92134e-05
3.11732e-05
3.05596e-05
3.77754e-05
3.84094e-05
3.90544e-05
3.14893e-05
3.16474e-05
3.23885e-05
3.21875e-05
3.85268e-05
3.89206e-05
3.14531e-05
3.16778e-05
3.2253e-05
3.24032e-05
3.09659e-05
3.22893e-05
3.19047e-05
3.85891e-05
3.90344e-05
3.10113e-05
3.22759e-05
3.20201e-05
3.88821e-05
3.91345e-05
3.96174e-05
3.24591e-05
3.22969e-05
3.33534e-05
3.35148e-05
3.90486e-05
4.00559e-05
3.23542e-05
3.253e-05
3.34147e-05
3.34242e-05
3.24062e-05
3.36687e-05
3.4255e-05
3.91233e-05
3.98424e-05
3.24405e-05
3.35161e-05
3.40668e-05
4.04908e-05
3.99403e-05
4.12788e-05
3.38049e-05
3.41271e-05
3.53388e-05
3.53274e-05
4.03834e-05
4.10494e-05
3.39166e-05
3.39291e-05
3.51179e-05
3.55433e-05
3.48091e-05
3.53269e-05
3.55442e-05
4.02115e-05
4.14971e-05
3.46253e-05
3.56269e-05
3.56806e-05
4.12845e-05
4.15901e-05
4.28025e-05
3.59849e-05
3.54252e-05
3.76005e-05
3.60861e-05
4.11134e-05
4.16686e-05
3.55545e-05
3.59426e-05
3.70833e-05
3.66364e-05
3.55758e-05
3.59065e-05
3.61805e-05
4.16926e-05
4.19706e-05
3.57556e-05
3.66349e-05
3.60797e-05
4.17206e-05
4.29945e-05
4.30304e-05
3.78717e-05
3.66566e-05
3.8043e-05
3.84459e-05
4.20399e-05
4.35271e-05
3.75202e-05
3.67716e-05
3.82594e-05
3.72715e-05
3.67581e-05
3.83156e-05
3.77075e-05
4.2037e-05
4.24428e-05
3.6603e-05
3.71088e-05
3.7738e-05
4.30054e-05
4.30229e-05
4.2511e-05
3.79986e-05
3.87862e-05
3.75319e-05
3.90847e-05
4.37247e-05
4.39119e-05
3.82916e-05
3.75704e-05
3.82472e-05
3.92024e-05
3.80152e-05
3.94431e-05
3.92452e-05
4.26816e-05
4.41006e-05
3.80501e-05
3.93145e-05
3.91432e-05
4.39347e-05
4.25681e-05
4.44064e-05
3.75162e-05
3.90786e-05
3.91629e-05
3.90722e-05
4.39447e-05
4.3982e-05
3.82707e-05
3.97331e-05
3.9637e-05
4.03898e-05
3.94679e-05
3.94933e-05
3.9741e-05
4.4422e-05
4.49591e-05
3.93479e-05
4.03791e-05
3.98111e-05
4.44035e-05
4.49614e-05
4.66434e-05
4.03513e-05
3.92183e-05
4.26394e-05
4.15164e-05
4.41073e-05
4.58134e-05
4.03268e-05
4.05165e-05
4.19765e-05
4.11993e-05
4.00229e-05
4.12156e-05
4.14201e-05
4.50336e-05
4.54062e-05
4.02098e-05
4.0997e-05
4.14267e-05
4.56934e-05
4.68004e-05
4.65946e-05
4.29691e-05
4.21504e-05
4.3167e-05
4.29457e-05
4.61587e-05
4.6519e-05
4.22846e-05
4.14286e-05
4.25048e-05
4.21908e-05
4.16606e-05
4.26017e-05
4.1944e-05
4.5554e-05
4.60921e-05
4.15484e-05
4.21637e-05
4.1883e-05
4.5915e-05
4.65809e-05
4.64094e-05
4.31226e-05
4.29575e-05
4.29349e-05
4.29994e-05
4.65278e-05
4.66465e-05
4.24896e-05
4.24601e-05
4.25115e-05
4.30375e-05
4.22307e-05
4.27635e-05
4.34513e-05
4.63008e-05
4.6957e-05
4.23565e-05
4.31084e-05
4.33174e-05
4.72086e-05
4.6556e-05
4.76372e-05
4.29386e-05
4.31852e-05
4.36866e-05
4.42136e-05
4.69604e-05
4.79169e-05
4.2697e-05
4.326e-05
4.41363e-05
4.43182e-05
4.36306e-05
4.44554e-05
4.39833e-05
4.70968e-05
4.79209e-05
4.33814e-05
4.4343e-05
4.39461e-05
4.74799e-05
4.78902e-05
4.83667e-05
4.41533e-05
4.42983e-05
4.49671e-05
4.43696e-05
4.79504e-05
4.77293e-05
4.457e-05
4.46913e-05
4.52012e-05
4.51677e-05
4.42893e-05
4.45737e-05
4.51797e-05
4.81279e-05
4.83074e-05
4.4386e-05
4.50921e-05
4.53268e-05
4.86405e-05
4.84407e-05
4.90877e-05
4.51099e-05
4.45475e-05
4.59489e-05
4.6278e-05
4.78433e-05
4.95354e-05
4.52262e-05
4.51765e-05
4.55682e-05
4.55283e-05
4.53737e-05
4.6142e-05
4.61169e-05
4.83209e-05
4.89307e-05
4.5465e-05
4.55857e-05
4.61058e-05
4.93646e-05
4.93933e-05
5.02367e-05
4.63738e-05
4.66731e-05
4.73638e-05
4.712e-05
4.98066e-05
4.99204e-05
4.60941e-05
4.60841e-05
4.7313e-05
4.71764e-05
4.6415e-05
4.71722e-05
4.69255e-05
4.92959e-05
4.99997e-05
4.64099e-05
4.71891e-05
4.69704e-05
4.9663e-05
5.02934e-05
5.01006e-05
4.75191e-05
4.7125e-05
4.75921e-05
4.72461e-05
4.99182e-05
4.99529e-05
4.74778e-05
4.72672e-05
4.7523e-05
4.73678e-05
4.69266e-05
4.71964e-05
4.69111e-05
5.00246e-05
5.0032e-05
4.69779e-05
4.72972e-05
4.69583e-05
4.96374e-05
5.0107e-05
5.05052e-05
4.75753e-05
4.75711e-05
4.77183e-05
4.83466e-05
5.01959e-05
5.10542e-05
4.74894e-05
4.75252e-05
4.76755e-05
4.83142e-05
4.70699e-05
4.84729e-05
4.8365e-05
5.01957e-05
5.10861e-05
4.70788e-05
4.84533e-05
4.82108e-05
5.09428e-05
5.07991e-05
5.17292e-05
4.80943e-05
4.84013e-05
4.92428e-05
4.8777e-05
5.11071e-05
5.11917e-05
4.81459e-05
4.85406e-05
4.93292e-05
4.91435e-05
4.85696e-05
4.86614e-05
4.89224e-05
5.12095e-05
5.1454e-05
4.83783e-05
4.88505e-05
4.86652e-05
5.12485e-05
5.18008e-05
5.19523e-05
4.93582e-05
4.9072e-05
4.97574e-05
4.99262e-05
5.13588e-05
5.22102e-05
4.94593e-05
4.93379e-05
4.96281e-05
4.97813e-05
4.90626e-05
4.99861e-05
4.99014e-05
5.15649e-05
5.21365e-05
4.88532e-05
4.99229e-05
5.00491e-05
5.23172e-05
5.21182e-05
5.29046e-05
5.00338e-05
5.00509e-05
5.06044e-05
5.01351e-05
5.22897e-05
5.2285e-05
4.98375e-05
4.98895e-05
5.06752e-05
5.04449e-05
5.03163e-05
5.03113e-05
5.12891e-05
5.22613e-05
5.27355e-05
5.05544e-05
5.06434e-05
5.15942e-05
5.37536e-05
5.30076e-05
5.3301e-05
5.07178e-05
5.02168e-05
5.12602e-05
5.13242e-05
5.23528e-05
5.34172e-05
5.08649e-05
5.0704e-05
5.12917e-05
5.13161e-05
5.14524e-05
5.1218e-05
5.15163e-05
5.28749e-05
5.32569e-05
5.17425e-05
5.13016e-05
5.17523e-05
5.36122e-05
5.33907e-05
5.34154e-05
5.1458e-05
5.16171e-05
5.17305e-05
5.19917e-05
5.36082e-05
5.37683e-05
5.1415e-05
5.14235e-05
5.15617e-05
5.14871e-05
5.14129e-05
5.1904e-05
5.08283e-05
5.32997e-05
5.31837e-05
5.15572e-05
5.14206e-05
5.0656e-05
5.21563e-05
5.34099e-05
5.336e-05
5.1727e-05
5.20068e-05
5.1662e-05
5.19908e-05
5.37762e-05
5.37444e-05
5.15482e-05
5.14672e-05
5.15092e-05
5.1541e-05
5.06739e-05
5.18751e-05
5.06252e-05
5.31878e-05
5.3353e-05
5.04243e-05
5.12702e-05
5.02128e-05
5.22331e-05
5.35436e-05
5.47744e-05
5.17141e-05
5.20061e-05
5.28339e-05
5.2439e-05
5.38089e-05
5.43197e-05
5.16392e-05
5.17749e-05
5.28955e-05
5.26767e-05
5.09399e-05
5.24794e-05
5.35212e-05
5.3521e-05
5.46883e-05
5.04155e-05
5.27601e-05
5.34686e-05
5.57509e-05
5.49449e-05
5.51499e-05
5.31122e-05
5.26317e-05
5.34418e-05
5.33628e-05
5.44712e-05
5.51767e-05
5.31714e-05
5.30282e-05
5.35903e-05
5.38781e-05
5.40557e-05
5.36868e-05
5.45444e-05
5.49527e-05
5.56403e-05
5.41971e-05
5.42298e-05
5.49528e-05
5.65073e-05
5.5171e-05
5.50932e-05
5.35258e-05
5.35897e-05
5.36704e-05
5.39927e-05
5.52974e-05
5.54411e-05
5.36532e-05
5.39938e-05
5.36839e-05
5.40125e-05
5.45018e-05
5.39763e-05
5.36689e-05
5.56731e-05
5.53919e-05
5.4926e-05
5.41191e-05
5.38629e-05
5.48688e-05
5.50977e-05
5.54834e-05
5.36794e-05
5.40321e-05
5.40102e-05
5.41101e-05
5.54563e-05
5.55313e-05
5.36663e-05
5.39612e-05
5.3863e-05
5.3943e-05
5.3483e-05
5.39705e-05
5.338e-05
5.53839e-05
5.54104e-05
5.35554e-05
5.38488e-05
5.3254e-05
5.47187e-05
5.57162e-05
5.61323e-05
5.43004e-05
5.42103e-05
5.46607e-05
5.43312e-05
5.55963e-05
5.5649e-05
5.42092e-05
5.40137e-05
5.46684e-05
5.4278e-05
5.34674e-05
5.42493e-05
5.42446e-05
5.54769e-05
5.54848e-05
5.32685e-05
5.39516e-05
5.38504e-05
5.55565e-05
5.61074e-05
5.53941e-05
5.46465e-05
5.43122e-05
5.42732e-05
5.41159e-05
5.56313e-05
5.53289e-05
5.46583e-05
5.42724e-05
5.43091e-05
5.41967e-05
5.43581e-05
5.41911e-05
5.44448e-05
5.54718e-05
5.54987e-05
5.40049e-05
5.4147e-05
5.44623e-05
5.57966e-05
5.53763e-05
5.64612e-05
5.42179e-05
5.41252e-05
5.47432e-05
5.52092e-05
5.53825e-05
5.68162e-05
5.42599e-05
5.4238e-05
5.48009e-05
5.53429e-05
5.45108e-05
5.52529e-05
5.51864e-05
5.56979e-05
5.69457e-05
5.47145e-05
5.55878e-05
5.55035e-05
5.67322e-05
5.68314e-05
5.76938e-05
5.54034e-05
5.5673e-05
5.64468e-05
5.63183e-05
5.70679e-05
5.75137e-05
5.54141e-05
5.56706e-05
5.63118e-05
5.59428e-05
5.54128e-05
5.62011e-05
5.58192e-05
5.70999e-05
5.70652e-05
5.56743e-05
5.59337e-05
5.58521e-05
5.70063e-05
5.77128e-05
5.71514e-05
5.65201e-05
5.63472e-05
5.63503e-05
5.61625e-05
5.75157e-05
5.70864e-05
5.63505e-05
5.59195e-05
5.61043e-05
5.56685e-05
5.59391e-05
5.61674e-05
5.63241e-05
5.70168e-05
5.6637e-05
5.58602e-05
5.56717e-05
5.60717e-05
5.73735e-05
5.70688e-05
5.65119e-05
5.60588e-05
5.59784e-05
5.54777e-05
5.56327e-05
5.70484e-05
5.67383e-05
5.59114e-05
5.56582e-05
5.55838e-05
5.60096e-05
5.64278e-05
5.58193e-05
5.64912e-05
5.66574e-05
5.73686e-05
5.62453e-05
5.6157e-05
5.64706e-05
5.77616e-05
5.64985e-05
5.68821e-05
5.53901e-05
5.55954e-05
5.54805e-05
5.57788e-05
5.6742e-05
5.70874e-05
5.55598e-05
5.62605e-05
5.58934e-05
5.66751e-05
5.64171e-05
5.59261e-05
5.58503e-05
5.75156e-05
5.77596e-05
5.64527e-05
5.66252e-05
5.60277e-05
5.67773e-05
5.71139e-05
5.78201e-05
5.58243e-05
5.60339e-05
5.67219e-05
5.64979e-05
5.72255e-05
5.7522e-05
5.62002e-05
5.67125e-05
5.67162e-05
5.663e-05
5.57642e-05
5.6315e-05
5.57995e-05
5.77825e-05
5.7532e-05
5.59302e-05
5.64986e-05
5.59082e-05
5.69147e-05
5.78809e-05
5.78902e-05
5.68631e-05
5.65781e-05
5.69857e-05
5.67432e-05
5.7551e-05
5.76029e-05
5.67658e-05
5.64835e-05
5.6767e-05
5.61941e-05
5.60084e-05
5.65277e-05
5.66724e-05
5.74845e-05
5.71137e-05
5.60149e-05
5.62009e-05
5.65861e-05
5.77716e-05
5.78936e-05
5.78237e-05
5.69844e-05
5.67864e-05
5.6932e-05
5.69589e-05
5.76501e-05
5.8011e-05
5.67492e-05
5.61784e-05
5.67341e-05
5.65499e-05
5.68044e-05
5.70727e-05
5.7113e-05
5.71206e-05
5.7756e-05
5.67128e-05
5.67015e-05
5.70333e-05
5.81187e-05
5.78368e-05
5.8083e-05
5.69255e-05
5.70506e-05
5.69997e-05
5.73121e-05
5.81093e-05
5.84396e-05
5.67638e-05
5.68252e-05
5.712e-05
5.72935e-05
5.71892e-05
5.74531e-05
5.73298e-05
5.7918e-05
5.82711e-05
5.71153e-05
5.7243e-05
5.72518e-05
5.82956e-05
5.8159e-05
5.8201e-05
5.71048e-05
5.73621e-05
5.71996e-05
5.73138e-05
5.84875e-05
5.81489e-05
5.72143e-05
5.73459e-05
5.72821e-05
5.73375e-05
5.73319e-05
5.73094e-05
5.70483e-05
5.82952e-05
5.81734e-05
5.72537e-05
5.72257e-05
5.70444e-05
5.78693e-05
5.81815e-05
5.78618e-05
5.71798e-05
5.71409e-05
5.69188e-05
5.66229e-05
5.80432e-05
5.74321e-05
5.72581e-05
5.72745e-05
5.6987e-05
5.7108e-05
5.68707e-05
5.65407e-05
5.66299e-05
5.81658e-05
5.80986e-05
5.69179e-05
5.71234e-05
5.67572e-05
5.75751e-05
5.78653e-05
5.79375e-05
5.68824e-05
5.65706e-05
5.69015e-05
5.66726e-05
5.74297e-05
5.77728e-05
5.69454e-05
5.70977e-05
5.69207e-05
5.70267e-05
5.66387e-05
5.66943e-05
5.70923e-05
5.81312e-05
5.80608e-05
5.67705e-05
5.71048e-05
5.71336e-05
5.81905e-05
5.79508e-05
5.77317e-05
5.69146e-05
5.68017e-05
5.68509e-05
5.69265e-05
5.78729e-05
5.79464e-05
5.69114e-05
5.68976e-05
5.67629e-05
5.64886e-05
5.7212e-05
5.70134e-05
5.72439e-05
5.79757e-05
5.73156e-05
5.7191e-05
5.65834e-05
5.71609e-05
5.81537e-05
5.77275e-05
5.84159e-05
5.68428e-05
5.7036e-05
5.73273e-05
5.77677e-05
5.79959e-05
5.8969e-05
5.67396e-05
5.64505e-05
5.71349e-05
5.70125e-05
5.72384e-05
5.78047e-05
5.75252e-05
5.72991e-05
5.83569e-05
5.71528e-05
5.71398e-05
5.74862e-05
5.86508e-05
5.86204e-05
5.91896e-05
5.76096e-05
5.79864e-05
5.80315e-05
5.82006e-05
5.91457e-05
5.94113e-05
5.74855e-05
5.75105e-05
5.80397e-05
5.82826e-05
5.77194e-05
5.81717e-05
5.7899e-05
5.86492e-05
5.95367e-05
5.77049e-05
5.82204e-05
5.79194e-05
5.91126e-05
5.91908e-05
5.73772e-05
5.8016e-05
5.80516e-05
5.66438e-05
5.59066e-05
5.91218e-05
5.62979e-05
5.80445e-05
5.82894e-05
5.69201e-05
5.69286e-05
5.7734e-05
5.57625e-05
5.57711e-05
5.95414e-05
5.73107e-05
5.77763e-05
5.66014e-05
5.58252e-05
5.6257e-05
5.71061e-05
5.63775e-05
5.60905e-05
5.54162e-05
5.54568e-05
5.5161e-05
5.60501e-05
5.63591e-05
5.63073e-05
5.62364e-05
5.55049e-05
5.54282e-05
5.53861e-05
5.51935e-05
5.54426e-05
5.69855e-05
5.62418e-05
5.54141e-05
5.5407e-05
5.54019e-05
5.69041e-05
5.6493e-05
5.88297e-05
5.55158e-05
5.55545e-05
5.73853e-05
5.82334e-05
5.69989e-05
6.00393e-05
5.55321e-05
5.54852e-05
5.71508e-05
5.73493e-05
5.62136e-05
5.84421e-05
5.85915e-05
5.64724e-05
5.91157e-05
5.60921e-05
5.77028e-05
5.85001e-05
6.0309e-05
5.91386e-05
5.96537e-05
5.79732e-05
5.87053e-05
5.84474e-05
5.86864e-05
6.02874e-05
5.91979e-05
5.7767e-05
5.79215e-05
5.83188e-05
5.82786e-05
5.88314e-05
5.85355e-05
5.79652e-05
5.94022e-05
5.93382e-05
5.87638e-05
5.83202e-05
5.80397e-05
5.82039e-05
5.94261e-05
5.60864e-05
5.82753e-05
5.79487e-05
5.53491e-05
5.47548e-05
5.85172e-05
5.52188e-05
5.8199e-05
5.80386e-05
5.55156e-05
5.53424e-05
5.67076e-05
5.45616e-05
5.4402e-05
5.88791e-05
5.58932e-05
5.68358e-05
5.5117e-05
5.45653e-05
5.5033e-05
5.57342e-05
5.39772e-05
5.35298e-05
5.50692e-05
5.41119e-05
5.40495e-05
4.50117e-05
4.54914e-05
4.49834e-05
5.34194e-05
5.56807e-05
5.355e-05
2.18377e-08
2.43817e-07
4.27547e-08
4.34643e-08
2.70421e-07
6.17136e-07
9.73848e-07
1.92196e-07
2.6877e-07
2.47204e-07
1.31905e-07
2.54453e-07
3.58224e-07
2.72021e-07
4.89547e-07
2.8843e-07
5.45903e-06
2.47557e-07
7.24882e-06
1.43058e-05
2.19692e-05
3.60497e-07
4.9644e-06
3.19585e-07
6.67186e-06
2.19504e-07
1.50424e-07
1.93915e-07
1.83298e-07
2.19096e-07
1.49764e-07
1.954e-07
2.5024e-07
1.18996e-06
5.0671e-07
7.89122e-07
2.57064e-07
1.17526e-06
5.03107e-07
1.32718e-05
2.0673e-05
2.51123e-07
2.41934e-07
6.31914e-07
2.53238e-07
2.57111e-07
2.41017e-07
6.10564e-07
1.86693e-06
1.95839e-06
3.39388e-07
1.84254e-06
1.93289e-06
4.77804e-07
1.06072e-05
3.9222e-07
1.35457e-05
3.71865e-05
4.74973e-05
5.52951e-07
9.9684e-06
4.62043e-07
1.26269e-05
2.15734e-07
1.48732e-07
1.94603e-07
1.80035e-07
2.05992e-07
1.45537e-07