/*--------------------------------*- C++ -*----------------------------------*\
| =========                 |                                                 |
| \\      /  F ield         | OpenFOAM: The Open Source CFD Toolbox           |
|  \\    /   O peration     | Version:  v2012                                 |
|   \\  /    A nd           | Website:  www.openfoam.com                      |
|    \\/     M anipulation  |                                                 |
\*---------------------------------------------------------------------------*/
FoamFile
{
    version     2.0;
    format      ascii;
    class       volScalarField;
    location    "1875";
    object      p;
}
// * * * * * * * * * * * * * * * * * * * * * * * * * * * * * * * * * * * * * //

dimensions      [0 2 -2 0 0 0 0];


internalField   nonuniform List<scalar> 
171728
(
0.00351924
0.00351831
0.00351819
0.00351899
0.00348372
0.00348239
0.00348223
0.00348514
0.00344518
0.00344341
0.0034433
0.00344566
0.00340105
0.00339946
0.00339935
0.00340163
0.003353
0.00335158
0.00335156
0.0033539
0.0033041
0.00330295
0.00330283
0.00330521
0.00325581
0.00325453
0.00325464
0.00325706
0.00320847
0.00320753
0.00320743
0.00320984
0.00316211
0.00316116
0.0031612
0.00316363
0.00311673
0.0031158
0.00311595
0.00311839
0.00307226
0.00307144
0.00307158
0.00307396
0.00302854
0.0030278
0.00302801
0.00303033
0.00298548
0.00298495
0.00298507
0.00298735
0.00294288
0.00294226
0.00294258
0.00294479
0.00290056
0.00290041
0.0029004
0.00290253
0.00285853
0.00285828
0.00285841
0.00286054
0.00281672
0.00281677
0.00281667
0.00281883
0.00277532
0.00277512
0.00277517
0.00277737
0.00273435
0.00273431
0.00273425
0.00273638
0.00269369
0.0026938
0.00269368
0.00269567
0.00265338
0.00265348
0.00265355
0.00265516
0.00261337
0.00261337
0.00261347
0.00261523
0.00257365
0.00257394
0.00257384
0.00257547
0.00253413
0.00253439
0.00253446
0.00253591
0.002495
0.00249538
0.00249538
0.00249718
0.00245603
0.00245648
0.00245637
0.002458
0.0024173
0.00241773
0.00241779
0.00241944
0.00237869
0.00237931
0.00237915
0.00238115
0.0023405
0.00234091
0.00234109
0.00234285
0.0023022
0.00230298
0.00230282
0.00230464
0.00226422
0.00226467
0.00226482
0.0022668
0.00222654
0.00222739
0.00222724
0.00222898
0.00218872
0.00218944
0.00218936
0.00219135
0.00215127
0.00215175
0.00215196
0.00215369
0.00211386
0.00211468
0.00211454
0.00211642
0.0020766
0.0020771
0.00207718
0.00207907
0.00203941
0.00204021
0.00204006
0.00204201
0.0020026
0.00200288
0.00200307
0.00200471
0.0019658
0.00196615
0.00196618
0.00196852
0.0019289
0.00192966
0.00192937
0.00193092
0.00189226
0.00189213
0.00189233
0.00189431
0.00185555
0.0018561
0.0018562
0.00185874
0.00181973
0.00181986
0.0018197
0.00182136
0.00178338
0.00178335
0.0017834
0.00178535
0.00174721
0.00174734
0.00174726
0.00174943
0.00171112
0.00171108
0.0017112
0.00171329
0.00167545
0.00167521
0.00167517
0.00167737
0.00163936
0.00163958
0.00163951
0.00164157
0.00160414
0.00160382
0.00160399
0.0016058
0.00156875
0.00156834
0.00156818
0.00157046
0.00153307
0.00153311
0.00153296
0.00153507
0.00149738
0.00149717
0.00149767
0.00149945
0.0014625
0.00146215
0.001462
0.00146421
0.00142795
0.00142757
0.00142722
0.00142934
0.00139247
0.00139223
0.00139245
0.00139428
0.00135735
0.00135718
0.0013573
0.00135934
0.00132249
0.0013224
0.00132218
0.00132416
0.00128775
0.00128703
0.00128725
0.00128927
0.00125278
0.00125308
0.00125268
0.00125459
0.00121834
0.00121765
0.00121799
0.00121981
0.00118329
0.00118314
0.00118305
0.001185
0.00114869
0.00114881
0.00114875
0.00115076
0.00111437
0.00111365
0.00111376
0.0011157
0.00107939
0.00107959
0.0010795
0.00108138
0.00104553
0.00104509
0.00104513
0.00104702
0.00101079
0.00101069
0.00101057
0.00101232
0.000975918
0.000975647
0.000975653
0.000977511
0.00094119
0.000941108
0.000941184
0.000943316
0.000907261
0.000907213
0.000907425
0.000909587
0.000872778
0.00087261
0.000872635
0.000874254
0.000838229
0.000837927
0.00083761
0.000839386
0.000803813
0.000803679
0.000803637
0.00080571
0.000769211
0.000769084
0.000769202
0.000771255
0.000733837
0.000733996
0.000734159
0.000736099
0.000699739
0.00069967
0.000699589
0.000701471
0.000665805
0.000665285
0.000665174
0.000667055
0.000630721
0.000630762
0.000630811
0.000632801
0.000596003
0.000596061
0.000596368
0.000598148
0.000561312
0.000561126
0.000560943
0.000562834
0.000526599
0.000526484
0.000526285
0.000528461
0.000491489
0.000491574
0.000491565
0.000493639
0.000456598
0.000456524
0.000456725
0.000458468
0.000422014
0.000421879
0.000421901
0.000423844
0.00038708
0.000386887
0.000386898
0.000388868
0.000351607
0.000351585
0.000351647
0.000353639
0.000316427
0.000316589
0.000316372
0.000318534
0.000281198
0.000281183
0.000281086
0.000283099
0.000246287
0.000246148
0.000246347
0.000248142
0.000211285
0.000210993
0.000211099
0.000213023
0.000174689
0.000174393
0.000174386
0.000176419
0.000138874
0.000139573
0.000139267
0.000141612
0.000105092
0.000105143
0.000105264
0.000107018
6.94253e-05
6.83477e-05
6.86699e-05
7.01597e-05
3.23303e-05
3.19869e-05
3.18478e-05
3.41281e-05
4.9466e-06
6.67682e-06
6.45553e-06
5.21091e-06
0.00352369
0.00352121
0.00352116
0.00352382
0.00352124
0.00352119
0.0035276
0.00352764
0.00352764
0.00352763
0.00352143
0.00352134
0.00352366
0.00352116
0.00352142
0.00352379
0.00351893
0.00348988
0.00351819
0.00351815
0.00349178
0.0034919
0.00351903
0.00348994
0.00351822
0.00351822
0.00349165
0.0034917
0.00351828
0.00349155
0.00349163
0.00351892
0.00348989
0.00351821
0.00349178
0.00349175
0.00348987
0.00348515
0.0034512
0.00348227
0.00348238
0.0034535
0.0034535
0.0034852
0.00345118
0.00348236
0.00348232
0.00345347
0.00345341
0.00348242
0.00345359
0.00345356
0.00348511
0.0034512
0.00348223
0.00345349
0.00345355
0.00345121
0.00344567
0.00340781
0.00344335
0.00344334
0.00341086
0.00341083
0.00344563
0.00340782
0.00344346
0.0034434
0.00341085
0.00341084
0.00344333
0.00341099
0.00341092
0.00344566
0.00340781
0.00344337
0.00341088
0.00341085
0.00340779
0.00340164
0.00336033
0.00339941
0.00339944
0.0033637
0.00336377
0.00340164
0.00336033
0.00339942
0.0033994
0.00336375
0.00336367
0.00339931
0.00336385
0.00336371
0.00340162
0.00336034
0.00339947
0.0033637
0.00336374
0.00336035
0.00335388
0.00331164
0.00335156
0.00335178
0.0033149
0.00331515
0.00335392
0.00331157
0.00335159
0.00335154
0.00331501
0.00331498
0.00335156
0.00331497
0.00331504
0.00335387
0.00331162
0.00335159
0.00331495
0.00331504
0.00331166
0.00330521
0.00326337
0.00330287
0.00330299
0.00326664
0.00326658
0.00330515
0.00326321
0.00330285
0.00330281
0.00326663
0.0032666
0.00330278
0.00326657
0.00326656
0.00330517
0.00326334
0.00330288
0.00326661
0.00326664
0.00326336
0.00325707
0.00321599
0.00325462
0.00325475
0.00321908
0.00321898
0.00325692
0.00321602
0.00325467
0.00325467
0.00321915
0.00321912
0.0032547
0.00321905
0.00321924
0.00325701
0.00321597
0.00325468
0.00321912
0.00321919
0.003216
0.00320984
0.00316962
0.00320751
0.00320738
0.00317275
0.00317271
0.00320986
0.00316969
0.0032075
0.00320743
0.00317274
0.00317266
0.00320746
0.00317286
0.00317282
0.00320979
0.00316964
0.00320749
0.00317266
0.00317277
0.00316966
0.0031636
0.00312426
0.00316127
0.00316124
0.00312719
0.00312724
0.00316366
0.0031243
0.00316125
0.0031612
0.00312724
0.00312719
0.00316117
0.00312732
0.00312738
0.00316358
0.00312426
0.00316125
0.0031272
0.00312721
0.00312428
0.00311837
0.0030797
0.00311599
0.00311598
0.00308251
0.00308259
0.00311835
0.00307984
0.00311598
0.00311597
0.00308267
0.00308262
0.00311595
0.00308262
0.00308272
0.00311833
0.00307979
0.00311597
0.00308263
0.00308262
0.00307974
0.00307394
0.00303588
0.00307173
0.00307159
0.00303871
0.00303873
0.003074
0.00303622
0.00307161
0.0030716
0.00303894
0.00303886
0.00307166
0.00303882
0.00303874
0.00307399
0.00303607
0.00307151
0.00303886
0.00303888
0.00303599
0.00303018
0.00299295
0.00302798
0.00302788
0.00299581
0.00299573
0.00303048
0.002993
0.00302806
0.00302802
0.00299581
0.00299575
0.00302789
0.0029958
0.00299576
0.00303038
0.00299303
0.00302801
0.00299577
0.00299571
0.00299299
0.00298732
0.0029505
0.00298496
0.0029848
0.00295312
0.00295313
0.00298737
0.00294988
0.00298511
0.00298507
0.00295306
0.00295307
0.00298498
0.002953
0.00295321
0.00298744
0.00295038
0.00298501
0.00295309
0.00295318
0.00295028
0.00294492
0.00290802
0.00294271
0.0029425
0.00291069
0.00291097
0.00294452
0.00290839
0.00294258
0.00294262
0.00291074
0.00291083
0.00294254
0.00291082
0.00291089
0.00294488
0.00290808
0.00294252
0.00291081
0.00291101
0.00290805
0.00290253
0.00286597
0.00290026
0.00290036
0.00286869
0.00286882
0.00290285
0.00286596
0.00290027
0.00290046
0.00286873
0.00286876
0.00290029
0.00286889
0.00286887
0.00290262
0.00286597
0.00290036
0.00286869
0.00286877
0.00286605
0.00286059
0.00282409
0.00285844
0.00285825
0.00282685
0.002827
0.00286043
0.00282412
0.00285839
0.00285844
0.00282687
0.002827
0.00285834
0.00282701
0.00282689
0.00286056
0.00282407
0.0028583
0.00282686
0.00282695
0.00282424
0.00281872
0.00278265
0.00281661
0.00281673
0.00278544
0.00278538
0.00281877
0.00278272
0.00281662
0.00281665
0.00278545
0.0027856
0.00281655
0.00278539
0.00278542
0.0028187
0.00278262
0.00281658
0.00278545
0.00278545
0.00278273
0.00277735
0.00274161
0.00277528
0.00277509
0.00274457
0.00274466
0.00277736
0.00274169
0.00277525
0.00277518
0.0027446
0.00274465
0.00277508
0.00274463
0.00274466
0.00277724
0.00274172
0.00277509
0.00274449
0.00274469
0.0027416
0.00273633
0.00270083
0.00273425
0.0027343
0.00270398
0.00270392
0.00273642
0.00270086
0.00273424
0.00273434
0.00270398
0.00270401
0.00273437
0.00270391
0.00270377
0.00273643
0.00270085
0.00273436
0.00270396
0.00270379
0.00270089
0.00269565
0.00266035
0.00269372
0.00269381
0.00266352
0.00266345
0.0026957
0.00266044
0.00269378
0.00269382
0.0026635
0.00266355
0.00269375
0.00266346
0.00266356
0.0026957
0.00266039
0.00269376
0.00266363
0.00266358
0.00266025
0.00265525
0.0026203
0.00265352
0.00265348
0.00262338
0.00262345
0.00265529
0.00262025
0.00265351
0.00265362
0.0026234
0.00262335
0.00265338
0.00262345
0.00262358
0.00265529
0.00262032
0.00265344
0.00262346
0.00262357
0.00262027
0.00261511
0.00258057
0.00261342
0.00261336
0.00258379
0.00258385
0.00261509
0.00258059
0.00261335
0.00261333
0.00258383
0.0025838
0.00261365
0.00258382
0.00258367
0.0026151
0.00258069
0.00261368
0.0025837
0.00258367
0.00258051
0.00257561
0.00254089
0.00257394
0.00257396
0.00254424
0.00254416
0.00257564
0.00254089
0.00257395
0.00257379
0.00254423
0.00254429
0.00257387
0.00254415
0.00254424
0.0025756
0.00254111
0.00257387
0.0025443
0.00254425
0.00254101
0.00253589
0.00250192
0.00253441
0.0025344
0.00250515
0.00250516
0.00253587
0.00250209
0.00253443
0.00253452
0.00250518
0.00250503
0.00253434
0.00250518
0.00250519
0.0025361
0.00250187
0.00253435
0.00250505
0.0025052
0.00250206
0.00249698
0.00246304
0.0024954
0.00249538
0.00246612
0.0024661
0.0024971
0.00246281
0.00249542
0.00249537
0.0024661
0.00246615
0.00249544
0.0024661
0.0024661
0.00249697
0.00246317
0.00249545
0.00246617
0.00246611
0.00246296
0.00245813
0.00242447
0.00245647
0.00245648
0.00242733
0.00242746
0.00245799
0.00242479
0.00245645
0.00245636
0.00242737
0.00242739
0.00245642
0.00242745
0.00242737
0.00245813
0.00242417
0.00245643
0.00242739
0.00242736
0.00242435
0.00241951
0.00238589
0.00241767
0.00241772
0.0023888
0.0023888
0.00241968
0.00238555
0.00241771
0.0024178
0.00238883
0.00238886
0.00241773
0.00238885
0.00238887
0.00241942
0.00238616
0.00241775
0.00238885
0.00238889
0.00238602
0.00238098
0.00234801
0.00237919
0.00237927
0.00235068
0.0023505
0.00238083
0.0023478
0.00237921
0.00237915
0.00235067
0.00235062
0.00237929
0.00235047
0.00235056
0.002381
0.00234764
0.00237929
0.00235062
0.00235056
0.0023478
0.0023432
0.00230948
0.00234114
0.00234095
0.00231227
0.00231252
0.00234276
0.00231006
0.00234111
0.0023411
0.00231229
0.00231235
0.00234098
0.00231253
0.00231241
0.0023429
0.00230976
0.002341
0.00231237
0.00231238
0.00230954
0.0023044
0.00227166
0.00230268
0.00230293
0.00227435
0.00227421
0.00230519
0.00227148
0.00230269
0.00230279
0.00227441
0.00227427
0.00230291
0.00227423
0.00227434
0.00230474
0.00227147
0.00230287
0.00227425
0.00227431
0.0022717
0.00226688
0.00223399
0.00226494
0.00226468
0.00223658
0.00223667
0.00226646
0.00223344
0.00226495
0.00226485
0.00223653
0.00223664
0.00226483
0.00223665
0.00223653
0.0022666
0.00223401
0.00226486
0.00223665
0.00223658
0.00223387
0.00222904
0.00219617
0.00222715
0.00222741
0.00219893
0.00219898
0.00222887
0.00219649
0.00222713
0.00222723
0.00219894
0.00219883
0.00222716
0.00219899
0.00219898
0.00222913
0.00219625
0.00222719
0.00219885
0.00219892
0.00219624
0.00219129
0.00215858
0.00218949
0.00218942
0.00216122
0.00216106
0.00219148
0.0021585
0.00218948
0.00218935
0.00216122
0.00216127
0.00218953
0.00216108
0.00216119
0.00219131
0.00215857
0.00218946
0.00216129
0.00216119
0.00215859
0.00215365
0.00212134
0.00215183
0.00215174
0.00212388
0.00212403
0.00215363
0.00212145
0.00215185
0.00215195
0.00212393
0.00212393
0.00215184
0.00212402
0.00212396
0.00215369
0.00212132
0.00215189
0.00212391
0.00212401
0.00212132
0.0021165
0.00208391
0.0021146
0.00211468
0.00208659
0.00208647
0.00211652
0.00208385
0.00211462
0.00211455
0.00208655
0.00208647
0.00211465
0.00208648
0.00208641
0.00211644
0.00208393
0.00211463
0.00208649
0.00208636
0.00208388
0.00207892
0.00204668
0.00207716
0.0020771
0.00204917
0.00204942
0.00207899
0.00204701
0.00207713
0.00207716
0.00204918
0.00204932
0.00207709
0.00204943
0.0020495
0.00207902
0.00204679
0.00207709
0.00204934
0.00204953
0.00204696
0.00204189
0.00201016
0.00203995
0.00204018
0.00201257
0.00201223
0.00204213
0.0020096
0.00203996
0.00204006
0.00201253
0.00201232
0.00204021
0.00201221
0.00201202
0.00204194
0.00200985
0.00204022
0.00201231
0.00201201
0.00200949
0.00200522
0.00197267
0.00200331
0.00200292
0.00197526
0.00197525
0.00200471
0.00197298
0.00200328
0.00200308
0.00197532
0.00197536
0.00200273
0.00197524
0.0019756
0.00200497
0.00197296
0.00200275
0.00197535
0.00197563
0.00197332
0.00196783
0.00193623
0.00196596
0.00196613
0.0019385
0.00193886
0.00196823
0.00193651
0.00196602
0.00196616
0.00193848
0.00193863
0.00196669
0.00193895
0.00193862
0.00196813
0.00193621
0.00196669
0.00193866
0.00193858
0.00193591
0.00193143
0.00189943
0.00192942
0.00192961
0.00190181
0.0019015
0.00193151
0.00189898
0.00192936
0.00192936
0.00190177
0.00190152
0.00192891
0.00190139
0.00190117
0.00193129
0.00189919
0.00192893
0.00190149
0.00190121
0.00189899
0.00189451
0.00186272
0.00189252
0.00189221
0.00186488
0.00186496
0.00189415
0.0018629
0.00189252
0.00189238
0.00186493
0.00186517
0.00189233
0.00186503
0.0018657
0.00189438
0.00186308
0.00189236
0.00186521
0.00186569
0.00186362
0.00185797
0.00182675
0.00185584
0.00185601
0.00182903
0.001829
0.00185815
0.00182678
0.00185587
0.00185614
0.00182898
0.00182884
0.00185653
0.00182903
0.00182877
0.00185829
0.00182648
0.00185651
0.00182886
0.00182872
0.00182625
0.0018219
0.00179026
0.00181998
0.00181988
0.00179246
0.00179243
0.00182189
0.00179015
0.00181992
0.00181971
0.00179251
0.00179243
0.00181954
0.00179238
0.00179226
0.00182164
0.00179028
0.00181949
0.00179242
0.00179232
0.00179009
0.00178546
0.00175402
0.00178337
0.00178336
0.00175618
0.00175637
0.00178538
0.00175424
0.0017834
0.0017834
0.00175616
0.00175632
0.00178328
0.00175636
0.00175632
0.00178549
0.00175415
0.00178334
0.0017563
0.0017563
0.00175425
0.00174924
0.00171814
0.00174714
0.00174735
0.00172024
0.00172009
0.00174942
0.00171796
0.00174715
0.00174726
0.00172024
0.00172019
0.00174732
0.00172012
0.00172024
0.00174934
0.00171807
0.00174728
0.00172022
0.00172023
0.0017181
0.00171333
0.00168207
0.0017113
0.00171104
0.00168427
0.00168414
0.00171316
0.00168205
0.00171126
0.00171119
0.00168425
0.00168416
0.0017112
0.00168416
0.00168422
0.00171326
0.00168204
0.00171125
0.00168415
0.00168421
0.00168212
0.00167728
0.00164631
0.00167521
0.0016752
0.00164829
0.00164847
0.00167729
0.00164646
0.00167522
0.00167515
0.00164833
0.00164837
0.0016753
0.00164845
0.00164852
0.00167727
0.00164635
0.00167525
0.0016484
0.0016485
0.00164638
0.00164156
0.0016108
0.00163944
0.0016396
0.00161291
0.00161282
0.00164168
0.00161061
0.00163946
0.0016395
0.00161284
0.00161292
0.00163954
0.0016128
0.00161257
0.00164159
0.0016108
0.00163955
0.00161291
0.00161263
0.00161053
0.00160606
0.0015752
0.00160402
0.00160386
0.00157736
0.00157719
0.00160586
0.00157522
0.00160393
0.00160401
0.00157733
0.00157715
0.00160368
0.00157712
0.00157721
0.00160602
0.00157503
0.00160371
0.0015771
0.00157715
0.0015752
0.0015704
0.00153947
0.00156839
0.00156839
0.0015414
0.00154194
0.0015705
0.00153981
0.00156842
0.00156822
0.00154155
0.00154168
0.00156841
0.00154204
0.00154194
0.00157028
0.00153974
0.00156838
0.00154173
0.00154197
0.00153984
0.00153473
0.00150411
0.00153253
0.00153298
0.00150612
0.00150595
0.00153499
0.00150397
0.00153263
0.00153287
0.00150614
0.00150645
0.00153302
0.00150608
0.00150629
0.00153501
0.00150436
0.00153303
0.00150654
0.00150629
0.00150422
0.00149939
0.0014694
0.00149738
0.00149706
0.00147144
0.00147104
0.00149923
0.00146906
0.00149739
0.00149761
0.00147132
0.00147099
0.00149743
0.00147086
0.00147089
0.0014996
0.00146888
0.00149746
0.00147085
0.00147098
0.00146892
0.00146476
0.00143408
0.00146283
0.00146243
0.00143637
0.00143638
0.00146439
0.00143428
0.00146263
0.00146214
0.00143622
0.0014359
0.00146212
0.00143618
0.0014361
0.00146416
0.00143394
0.0014622
0.00143587
0.00143601
0.00143401
0.00142931
0.00139863
0.00142733
0.00142762
0.00140058
0.00140098
0.00142957
0.00139885
0.00142726
0.00142721
0.00140072
0.0014011
0.00142744
0.0014012
0.00140101
0.00142925
0.00139902
0.00142726
0.0014012
0.00140097
0.00139899
0.00139389
0.00136381
0.0013918
0.00139201
0.00136571
0.00136556
0.00139406
0.00136368
0.00139199
0.00139235
0.00136601
0.00136603
0.00139221
0.00136579
0.00136612
0.00139431
0.00136404
0.0013923
0.00136611
0.00136623
0.00136405
0.00135915
0.00132924
0.00135711
0.00135696
0.00133131
0.00133134
0.00135904
0.00132921
0.00135732
0.00135727
0.00133123
0.00133101
0.00135739
0.00133127
0.00133087
0.00135931
0.00132894
0.00135742
0.00133092
0.00133084
0.00132887
0.00132454
0.00129403
0.00132262
0.00132258
0.00129621
0.00129589
0.00132445
0.00129386
0.00132249
0.00132228
0.00129606
0.00129604
0.00132209
0.00129567
0.00129606
0.00132423
0.00129391
0.00132211
0.001296
0.0012961
0.00129396
0.00128927
0.00125922
0.00128733
0.0012872
0.00126126
0.00126162
0.00128918
0.00125956
0.00128717
0.00128726
0.0012611
0.00126117
0.00128742
0.00126161
0.00126132
0.00128917
0.00125919
0.0012874
0.00126123
0.00126117
0.00125924
0.00125458
0.00122461
0.00125267
0.00125303
0.00122668
0.00122644
0.0012549
0.00122436
0.00125257
0.00125262
0.00122688
0.00122685
0.00125264
0.00122653
0.0012266
0.00125456
0.00122469
0.00125254
0.00122683
0.00122668
0.00122454
0.00121986
0.00118956
0.00121791
0.00121758
0.00119163
0.00119165
0.0012196
0.00118962
0.00121811
0.00121805
0.00119162
0.0011917
0.00121786
0.00119161
0.00119174
0.00121994
0.00118962
0.00121796
0.00119165
0.00119176
0.00118966
0.00118487
0.00115524
0.00118295
0.00118315
0.00115724
0.00115747
0.00118501
0.00115544
0.0011829
0.00118304
0.00115721
0.00115727
0.00118314
0.0011576
0.00115744
0.00118495
0.00115533
0.00118311
0.00115742
0.0011574
0.00115544
0.00115062
0.00112069
0.00114871
0.00114873
0.0011228
0.00112242
0.00115069
0.00112039
0.00114871
0.00114866
0.00112284
0.00112259
0.00114877
0.00112232
0.00112253
0.00115065
0.00112047
0.00114876
0.00112244
0.00112254
0.00112043
0.00111591
0.00108578
0.001114
0.00111376
0.0010878
0.00108805
0.00111571
0.00108602
0.00111401
0.00111388
0.00108771
0.0010879
0.0011138
0.00108808
0.00108793
0.00111576
0.00108592
0.00111381
0.00108803
0.00108797
0.00108598
0.00108115
0.00105177
0.00107925
0.00107952
0.00105382
0.00105375
0.00108139
0.00105165
0.00107918
0.00107932
0.00105386
0.00105377
0.00107943
0.00105372
0.00105386
0.00108127
0.00105171
0.00107946
0.00105374
0.00105385
0.00105172
0.00104713
0.00101728
0.00104526
0.00104515
0.00101932
0.00101938
0.001047
0.00101733
0.00104533
0.00104524
0.00101931
0.00101936
0.00104524
0.00101931
0.00101912
0.00104707
0.0010172
0.00104521
0.00101925
0.00101905
0.00101704
0.00101256
0.000982355
0.00101064
0.00101075
0.000984475
0.000984407
0.00101264
0.000982328
0.00101059
0.00101065
0.000984403
0.000984346
0.00101036
0.000984421
0.000984233
0.00101248
0.000982313
0.00101031
0.000984387
0.000984197
0.000982212
0.000977584
0.00094766
0.000975696
0.000975615
0.000949592
0.000949602
0.000977568
0.00094766
0.000975662
0.000975599
0.000949686
0.000949713
0.000975594
0.000949648
0.000949861
0.00097757
0.000947781
0.000975564
0.000949705
0.000949881
0.000947913
0.000943042
0.000913824
0.00094107
0.000941057
0.000915756
0.000915611
0.000943027
0.000913755
0.000941168
0.000941189
0.000915791
0.00091572
0.000941386
0.000915707
0.000916176
0.000943164
0.000913899
0.000941417
0.000915869
0.000916281
0.000914248
0.00090917
0.000879126
0.000907245
0.000907117
0.0008812
0.00088138
0.000909133
0.000879244
0.00090724
0.000907193
0.000881171
0.00088142
0.000907624
0.000881333
0.000881162
0.00090928
0.000879243
0.000907771
0.000881448
0.000881224
0.000879058
0.000874411
0.000844643
0.000872517
0.000872736
0.000846692
0.000846742
0.000874499
0.000844562
0.000872479
0.00087273
0.000846607
0.000846553
0.000872364
0.000846541
0.000846195
0.00087446
0.000844312
0.000872336
0.000846261
0.000846002
0.000844042
0.000839959
0.000810297
0.0008381
0.000838078
0.0008123
0.00081217
0.000839879
0.000810255
0.000838023
0.000837855
0.000812318
0.000812034
0.000837614
0.000812243
0.000812154
0.000839617
0.000810213
0.000837417
0.00081211
0.000812166
0.000810321
0.000805631
0.00077579
0.000803701
0.000803568
0.000777791
0.000777684
0.000805593
0.00077579
0.000803762
0.000803519
0.000777885
0.00077784
0.000803694
0.000777809
0.000777935
0.000805599
0.000775911
0.000803743
0.000777908
0.000778009
0.000776011
0.000771013
0.000740522
0.000769023
0.000768964
0.000742537
0.000742664
0.000771033
0.000740689
0.000769075
0.000769128
0.000742487
0.000742728
0.000769224
0.000742733
0.000742893
0.00077115
0.000740778
0.000769281
0.00074288
0.000742919
0.000740855
0.000735756
0.000706347
0.000733788
0.000733973
0.000708222
0.000708383
0.000735934
0.00070635
0.000733723
0.00073402
0.000708188
0.000708363
0.000734157
0.000708182
0.000708205
0.000736026
0.0007063
0.000734184
0.000708202
0.000708226
0.000706164
0.000701766
0.00067204
0.000699835
0.00069991
0.000674206
0.000673982
0.000701728
0.000671866
0.000699817
0.000699839
0.000674206
0.000673896
0.000699609
0.000673912
0.000673779
0.000701629
0.000671771
0.000699596
0.000673756
0.0006737
0.000671726
0.000667244
0.000637203
0.000665404
0.000665254
0.000639213
0.000639226
0.000667151
0.000637322
0.0006654
0.000665185
0.000639216
0.000639242
0.000665179
0.000639393
0.000639462
0.000667063
0.000637345
0.00066509
0.000639364
0.000639434
0.000637478
0.000632501
0.000602822
0.000630555
0.000630612
0.000604665
0.000604743
0.000632619
0.000602804
0.000630579
0.000630667
0.000604773
0.000605006
0.000630855
0.000604772
0.000604871
0.000632684
0.000603086
0.000630896
0.000605064
0.000605005
0.000602939
0.000598108
0.000568038
0.00059604
0.000596084
0.000570042
0.000569961
0.000598058
0.000567932
0.000596138
0.000596355
0.000569974
0.000569919
0.000596083
0.000569841
0.000569625
0.000598348
0.000567788
0.000596207
0.000569792
0.000569616
0.000567613
0.00056329
0.000533154
0.000561372
0.00056125
0.000535282
0.000535166
0.000563183
0.000533179
0.000561288
0.000561054
0.000535131
0.000534872
0.000560874
0.000535136
0.000535131
0.000562971
0.000532939
0.000560818
0.00053489
0.000535039
0.000533137
0.000528372
0.000498098
0.000526485
0.000526451
0.000500097
0.000500255
0.000528448
0.000498267
0.000526377
0.000526227
0.000500121
0.000500194
0.000526576
0.000500356
0.000500512
0.000528241
0.000498267
0.000526502
0.000500284
0.000500511
0.000498463
0.000493324
0.000463219
0.000491321
0.000491492
0.000465135
0.000465214
0.000493465
0.000463186
0.000491375
0.000491505
0.000465244
0.000465427
0.000491654
0.000465238
0.000465166
0.0004935
0.000463415
0.000491684
0.000465406
0.000465242
0.000463208
0.000458492
0.000428671
0.000456473
0.00045652
0.000430625
0.000430563
0.000458441
0.000428575
0.000456583
0.000456755
0.000430661
0.000430663
0.000456463
0.000430532
0.000430563
0.000458678
0.000428605
0.000456535
0.000430613
0.000430574
0.000428568
0.000423949
0.000393785
0.000422005
0.000421927
0.000395861
0.000395781
0.000423866
0.000393736
0.000422001
0.000421941
0.00039579
0.000395711
0.000421925
0.000395708
0.000395735
0.000423863
0.000393681
0.000421916
0.00039569
0.000395721
0.000393687
0.000388959
0.000358352
0.00038702
0.000386953
0.000360376
0.000360336
0.000388912
0.000358374
0.000386963
0.000386908
0.000360371
0.000360415
0.000386902
0.000360357
0.000360405
0.000388879
0.000358436
0.000386902
0.000360459
0.00036042
0.000358437
0.00035354
0.000323238
0.000351544
0.000351543
0.000325221
0.000325298
0.000353583
0.000323345
0.000351549
0.000351601
0.000325203
0.00032518
0.00035162
0.00032535
0.000325338
0.000353625
0.000323201
0.000351625
0.000325199
0.000325284
0.00032333
0.000318445
0.000287982
0.000316453
0.000316546
0.000290007
0.000290093
0.000318559
0.000288026
0.000316418
0.000316365
0.000289979
0.000289886
0.000316562
0.000290075
0.000289956
0.000318389
0.000287872
0.00031649
0.000289863
0.000289931
0.000287916
0.000283163
0.000252946
0.000281172
0.000281219
0.000254892
0.000254847
0.000283184
0.000252842
0.000281166
0.000281108
0.000254937
0.000255
0.000281098
0.000254812
0.000254816
0.000283083
0.000253032
0.000281109
0.000254986
0.000254883
0.000252872
0.000248219
0.000217891
0.000246224
0.000246171
0.000219985
0.000219899
0.000248104
0.000217836
0.000246279
0.000246361
0.000220027
0.000220078
0.000246145
0.000219899
0.000219964
0.000248312
0.000217925
0.000246216
0.000220063
0.00021999
0.000217898
0.000213023
0.000181587
0.000211086
0.000210998
0.000183746
0.000183559
0.000212968
0.000181399
0.000211106
0.000211103
0.000183768
0.00018368
0.00021106
0.000183526
0.000183559
0.000213037
0.000181508
0.000211074
0.000183654
0.000183555
0.000181403
0.000176526
0.000145927
0.0001745
0.000174383
0.000147761
0.000148017
0.000176425
0.000146257
0.000174505
0.000174419
0.000147652
0.000147677
0.000174398
0.000148109
0.000148115
0.000176449
0.000145965
0.000174362
0.000147797
0.000148041
0.000146276
0.000141229
0.000111876
0.000139173
0.000139459
0.000113773
0.000113995
0.000141571
0.000111969
0.00013907
0.000139133
0.000113728
0.000113829
0.000139599
0.000114008
0.000114007
0.000141279
0.000111959
0.000139532
0.000113908
0.00011405
0.000111939
0.000107186
7.59228e-05
0.00010522
0.000105223
7.81915e-05
7.78071e-05
0.000107085
7.54395e-05
0.000105251
0.000105313
7.83098e-05
7.81636e-05
0.000105074
7.76275e-05
7.75139e-05
0.000107218
7.57586e-05
0.000105138
7.7957e-05
7.76033e-05
7.5281e-05
7.07702e-05
3.854e-05
6.89065e-05
6.85118e-05
4.06767e-05
4.05366e-05
7.03118e-05
3.86499e-05
6.89991e-05
6.88536e-05
4.07045e-05
4.06724e-05
6.82488e-05
4.06331e-05
4.07512e-05
7.06183e-05
3.86159e-05
6.83283e-05
4.06975e-05
4.07386e-05
3.89084e-05
3.34588e-05
7.33601e-06
3.15658e-05
3.17905e-05
1.01119e-05
1.06506e-05
3.38096e-05
7.94261e-06
3.15502e-05
3.16875e-05
1.00117e-05
1.03003e-05
3.22542e-05
1.09562e-05
1.12684e-05
3.36631e-05
7.63566e-06
3.22102e-05
1.06284e-05
1.11983e-05
8.30876e-06
4.43557e-06
6.16141e-06
6.54112e-06
4.90765e-06
6.0375e-06
6.28357e-06
5.43819e-06
5.22161e-06
5.6754e-06
6.9428e-06
4.66142e-06
6.85345e-06
0.00353078
0.00353336
0.00353208
0.00353226
0.00355939
0.00353324
0.00356293
0.0035337
0.00355929
0.00353323
0.00353359
0.00356286
0.00354446
0.00356625
0.00356619
0.00350339
0.00351683
0.00352095
0.00349566
0.00349353
0.00349848
0.00350317
0.00351685
0.0035208
0.00349553
0.00351927
0.00351927
0.00351925
0.0034928
0.00349276
0.00349284
0.00349276
0.00350293
0.00351488
0.00351981
0.00351028
0.00352199
0.00350001
0.00351074
0.00349394
0.00349909
0.00350301
0.00351983
0.00351461
0.00351056
0.00352189
0.00351084
0.00350016
0.00352078
0.00352078
0.00350775
0.00349992
0.0035
0.00347574
0.00348993
0.00348985
0.00347373
0.00348737
0.00347264
0.00347566
0.00348999
0.00348984
0.00347369
0.00348366
0.00348376
0.00348365
0.00345528
0.00345522
0.00345533
0.00345522
0.00347347
0.00348873
0.00348225
0.00347291
0.00348696
0.00347398
0.00347288
0.00348725
0.00347276
0.00347349
0.0034822
0.00348848
0.00347286
0.00348694
0.00347284
0.00347403
0.00349015
0.00349033
0.00347131
0.0034744
0.00347438
0.00343319
0.00344788
0.00344881
0.00343182
0.00344673
0.0034309
0.00343317
0.00344792
0.00344884
0.00343183
0.00344511
0.00344524
0.00344511
0.00341259
0.00341259
0.00341262
0.00341252
0.00343185
0.0034476
0.00344333
0.00343292
0.00344646
0.00343225
0.00343287
0.00344674
0.00343093
0.00343188
0.00344336
0.0034475
0.00343289
0.00344646
0.00343287
0.00343231
0.00344824
0.00344826
0.00343017
0.00343211
0.00343203
0.0033868
0.0034032
0.00340467
0.00338542
0.00340245
0.00338508
0.00338677
0.00340321
0.00340466
0.00338537
0.00340103
0.00340108
0.00340099
0.00336517
0.00336516
0.0033652
0.00336514
0.00338593
0.00340314
0.00339939
0.00338775
0.00340247
0.00338598
0.00338769
0.0034025
0.00338489
0.00338597
0.00339939
0.00340304
0.00338769
0.00340247
0.00338768
0.00338608
0.00340338
0.00340322
0.00338442
0.00338531
0.00338553
0.00333786
0.00335503
0.00335637
0.00333669
0.00335475
0.00333658
0.00333789
0.00335501
0.00335636
0.0033367
0.003353
0.00335304
0.00335295
0.0033163
0.00331628
0.00331631
0.00331626
0.00333747
0.00335507
0.00335158
0.00333949
0.00335468
0.00333749
0.00333941
0.00335465
0.00333637
0.0033375
0.00335163
0.00335504
0.00333938
0.0033547
0.00333943
0.00333743
0.00335508
0.00335499
0.00333604
0.00333689
0.00333686
0.00328871
0.00330613
0.00330714
0.00328784
0.00330607
0.00328773
0.00328875
0.00330607
0.00330708
0.0032879
0.00330411
0.00330413
0.00330406
0.00326779
0.00326777
0.00326783
0.00326776
0.00328866
0.00330623
0.00330286
0.00329069
0.00330585