/*--------------------------------*- C++ -*----------------------------------*\
| =========                 |                                                 |
| \\      /  F ield         | OpenFOAM: The Open Source CFD Toolbox           |
|  \\    /   O peration     | Version:  v2006                                 |
|   \\  /    A nd           | Website:  www.openfoam.com                      |
|    \\/     M anipulation  |                                                 |
\*---------------------------------------------------------------------------*/
FoamFile
{
    version     2.0;
    format      ascii;
    class       volScalarField;
    location    "375";
    object      epsilon;
}
// * * * * * * * * * * * * * * * * * * * * * * * * * * * * * * * * * * * * * //

dimensions      [0 2 -3 0 0 0 0];


internalField   nonuniform List<scalar> 
14298
(
1.84802e-05
1.84827e-05
3.4642e-07
5.11118e-06
5.11293e-06
3.59959e-06
8.90244e-06
3.59955e-06
1.08809e-06
2.26425e-07
2.75796e-06
1.5845e-07
1.08808e-06
1.58457e-07
3.59952e-06
8.9036e-06
1.08814e-06
2.2637e-07
2.75846e-06
1.58452e-07
3.59982e-06
8.90321e-06
1.08812e-06
2.2646e-07
1.58458e-07
2.75857e-06
2.26433e-07
2.75804e-06
8.90275e-06
1.84834e-05
3.4645e-07
5.11309e-06
5.11144e-06
1.84814e-05
1.08814e-06
2.26365e-07
1.58451e-07
2.75805e-06
1.08814e-06
2.26392e-07
1.58449e-07
2.75847e-06
3.59953e-06
8.90335e-06
3.59946e-06
8.90329e-06
3.46486e-07
5.11124e-06
5.11285e-06
1.84815e-05
1.84833e-05
1.84791e-05
1.84815e-05
9.71747e-06
2.19324e-05
2.19317e-05
9.71774e-06
2.19307e-05
2.193e-05
3.92642e-06
9.0181e-06
1.8818e-06
5.11509e-06
3.9184e-06
9.02349e-06
1.89176e-06
3.93339e-06
9.02323e-06
1.88355e-06
5.11681e-06
3.92565e-06
9.02863e-06
1.89328e-06
1.212e-05
1.06524e-05
4.43204e-06
3.61277e-06
1.21171e-05
1.06558e-05
4.44282e-06
2.24527e-05
7.20699e-06
8.90465e-06
2.24533e-05
7.20873e-06
1.21203e-05
1.06523e-05
4.43186e-06
3.61272e-06
1.21174e-05
1.06557e-05
4.44274e-06
1.21202e-05
4.4321e-06
1.06526e-05
3.61307e-06
1.21173e-05
4.44299e-06
1.06561e-05
2.24533e-05
7.20723e-06
8.90581e-06
2.24539e-05
7.20904e-06
1.21205e-05
1.06526e-05
4.43236e-06
3.61269e-06
1.21177e-05
1.06561e-05
4.44243e-06
2.24535e-05
7.20558e-06
8.90543e-06
2.24541e-05
7.20732e-06
8.90499e-06
1.84823e-05
9.71804e-06
2.19323e-05
2.19327e-05
9.71775e-06
2.19311e-05
2.19314e-05
3.9341e-06
9.02311e-06
1.88376e-06
5.1168e-06
1.89379e-06
3.92602e-06
9.0289e-06
3.92683e-06
9.01823e-06
1.88219e-06
5.11535e-06
3.91904e-06
9.02401e-06
1.89192e-06
1.84803e-05
1.212e-05
4.43248e-06
1.06526e-05
3.61311e-06
1.21172e-05
4.4425e-06
1.06561e-05
2.24531e-05
7.20772e-06
8.90558e-06
2.24535e-05
7.20839e-06
1.21205e-05
4.43193e-06
1.06526e-05
3.61309e-06
1.21176e-05
4.44283e-06
1.06561e-05
2.24538e-05
7.20569e-06
8.90554e-06
2.24545e-05
7.20751e-06
9.71949e-06
2.19337e-05
2.19333e-05
9.71833e-06
2.19332e-05
2.19327e-05
3.92723e-06
9.01816e-06
1.88233e-06
5.11517e-06
3.9199e-06
1.8921e-06
9.02428e-06
3.93441e-06
9.02299e-06
1.8838e-06
5.11687e-06
3.92671e-06
1.89384e-06
9.02916e-06
1.84804e-05
1.84822e-05
1.35119e-07
1.20018e-07
1.20014e-07
1.13904e-07
1.2002e-07
1.13904e-07
1.35125e-07
1.20021e-07
1.20017e-07
1.13905e-07
1.35125e-07
1.20017e-07
1.13905e-07
1.69473e-06
3.46997e-07
7.37725e-07
7.38027e-07
1.68766e-06
7.41645e-07
7.41959e-07
4.52236e-07
1.40173e-06
3.6685e-07
1.09473e-06
4.5087e-07
1.40858e-06
3.68185e-07
6.33054e-07
2.03067e-06
9.67423e-07
2.76387e-06
9.72237e-07
6.30899e-07
2.03704e-06
4.52249e-07
1.40167e-06
3.66847e-07
1.09473e-06
4.50884e-07
1.40856e-06
3.6819e-07
4.52281e-07
1.4018e-06
3.66862e-07
1.0948e-06
4.50929e-07
1.40864e-06
3.68207e-07
6.33135e-07
2.03076e-06
9.67807e-07
2.76437e-06
9.72638e-07
6.30993e-07
2.03718e-06
4.52271e-07
3.66862e-07
1.40174e-06
1.0948e-06
4.50901e-07
3.68216e-07
1.40859e-06
6.33143e-07
2.03048e-06
9.67905e-07
2.76448e-06
6.31002e-07
2.03684e-06
9.72731e-07
9.6745e-07
2.76398e-06
9.72275e-07
1.69493e-06
3.47024e-07
7.38073e-07
7.37778e-07
7.42024e-07
1.68779e-06
7.4172e-07
4.5227e-07
3.66871e-07
1.40175e-06
1.0948e-06
4.50913e-07
3.68217e-07
1.40859e-06
6.3305e-07
2.03061e-06
9.67413e-07
2.76398e-06
6.30917e-07
9.72223e-07
2.03697e-06
4.52287e-07
3.66875e-07
1.40171e-06
1.09479e-06
4.50924e-07
3.68222e-07
1.40859e-06
6.33086e-07
2.03041e-06
9.67829e-07
2.76445e-06
6.30945e-07
2.03684e-06
9.72673e-07
1.69508e-06
3.47066e-07
7.37827e-07
7.38117e-07
1.6879e-06
7.4178e-07
7.42091e-07
2.2843e-07
2.7188e-07
2.30708e-07
2.30675e-07
2.71842e-07
2.71868e-07
2.28439e-07
1.96032e-07
1.89429e-05
1.86577e-06
2.04495e-07
5.78755e-07
4.2295e-06
4.23115e-06
2.07295e-07
5.75183e-07
2.27829e-06
2.07297e-07
1.8476e-06
5.75191e-07
8.75774e-06
2.27833e-06
2.07296e-07
1.84793e-06
5.75204e-07
8.75815e-06
2.27841e-06
4.20491e-06
4.20631e-06
1.89661e-05
1.89674e-05
4.23106e-06
4.23034e-06
1.89416e-05
8.75951e-06
2.29924e-06
2.04496e-07
1.86588e-06
5.78758e-07
8.75918e-06
2.2992e-06
1.89425e-05
1.89438e-05
1.89339e-05
1.01169e-06
8.67654e-06
2.65489e-06
1.01236e-06
8.68023e-06
2.65762e-06
2.20916e-05
2.20912e-05
8.93185e-06
2.26148e-05
6.38752e-06
6.35405e-06
2.26248e-05
1.2565e-05
2.26793e-06
3.02544e-06
1.14662e-05
3.00153e-06
1.14927e-05
1.25476e-05
2.26167e-05
8.75421e-06
6.38665e-06
6.35198e-06
2.26263e-05
1.25654e-05
2.26797e-06
1.14658e-05
3.02603e-06
1.14924e-05
3.00136e-06
1.25481e-05
2.26167e-05
8.75461e-06
6.38684e-06
6.35208e-06
2.26263e-05
1.25656e-05
2.26804e-06
3.0262e-06
1.14662e-05
3.00142e-06
1.14926e-05
1.25483e-05
2.59764e-06
9.97328e-07
4.18338e-06
8.67612e-06
2.61763e-06
9.90731e-07
8.67558e-06
2.60232e-06
9.9802e-07
4.18504e-06
8.67981e-06
2.62374e-06
9.91367e-07
8.67921e-06
8.85173e-06
2.20918e-05
2.20914e-05
8.89893e-06
2.20756e-05
2.20752e-05
1.89759e-05
1.89772e-05
2.67728e-06
1.01242e-06
8.6801e-06
4.25153e-06
8.68149e-06
2.66009e-06
1.01919e-06
2.67318e-06
1.01173e-06
8.6768e-06
4.24971e-06
1.01852e-06
2.6547e-06
8.67808e-06
8.96295e-06
2.20936e-05
2.2094e-05
2.20965e-05
8.94021e-06
2.20968e-05
1.89326e-05
2.26331e-05
6.4189e-06
8.7632e-06
6.45012e-06
2.26236e-05
1.24967e-05
2.31057e-06
3.05657e-06
1.14219e-05
3.08111e-06
1.25127e-05
1.1397e-05
2.26345e-05
6.41654e-06
8.76284e-06
2.26252e-05
6.44917e-06
1.24971e-05
2.31055e-06
1.14216e-05
3.05613e-06
1.25131e-05
1.13966e-05
3.08127e-06
4.03733e-07
4.03775e-07
8.30954e-07
8.1227e-07
2.73294e-07
4.01263e-07
4.01314e-07
8.17942e-07
4.00738e-07
4.0078e-07
8.36852e-07
4.03778e-07
4.03717e-07
2.70545e-07
4.04373e-07
8.3108e-07
4.04426e-07
1.89275e-07
1.858e-07
1.89277e-07
1.89275e-07
1.858e-07
3.9495e-07
5.44164e-07
1.18127e-06
1.87376e-06
3.95038e-07
5.45522e-07
1.18832e-06
3.15991e-07
5.80222e-07
7.17507e-07
2.90888e-07
3.16702e-07
7.21163e-07
2.89439e-07
3.93133e-07
1.16489e-06
3.92987e-07
1.1579e-06
3.17273e-07
5.73916e-07
7.09146e-07
2.91141e-07
3.16393e-07
7.05704e-07
2.92718e-07
3.93144e-07
5.40022e-07
1.83978e-06
1.16477e-06
1.15779e-06
5.38818e-07
3.93e-07
3.1728e-07
5.73924e-07
2.91146e-07
7.09181e-07
2.92721e-07
7.05729e-07
3.16407e-07
3.93169e-07
5.40143e-07
1.84009e-06
1.16487e-06
1.15788e-06
5.38937e-07
3.93019e-07
3.17298e-07
5.73951e-07
2.91151e-07
7.09217e-07
2.92728e-07
7.05763e-07
3.16417e-07
3.94963e-07
5.44225e-07
1.18109e-06
1.87382e-06
5.45565e-07
3.95053e-07
1.18818e-06
3.16003e-07
5.80229e-07
2.90892e-07
7.17509e-07
2.89444e-07
3.16713e-07
7.21186e-07
2.20653e-07
4.4044e-06
4.484e-06
1.94161e-07
2.43847e-06
2.17485e-07
1.89506e-07
8.79082e-06
1.85053e-07
2.2842e-07
1.8001e-07
2.20608e-07
2.68171e-07
2.67856e-07
2.28432e-07
2.22396e-07
1.95521e-06
4.38178e-06
2.28445e-07
2.22368e-07
2.22403e-07
2.22387e-07
1.96614e-07
2.41598e-06
2.71873e-07
2.67863e-07
2.28423e-07
2.22373e-07
2.22359e-07
2.6788e-07
1.88519e-05
2.68149e-07
2.20631e-07
1.97463e-06
2.03138e-06
2.20604e-07
2.2064e-07
2.68155e-07
2.20607e-07
1.88075e-05
2.67482e-07
1.87927e-05
1.88338e-05
1.88071e-05
1.94161e-07
6.04427e-07
1.97493e-06
2.18965e-07
1.91788e-07
6.1493e-07
2.01183e-06
2.68155e-07
4.40462e-06
4.46317e-06
2.67047e-07
4.46341e-06
1.88348e-05
1.8808e-05
1.8792e-05
2.67473e-07
4.48392e-06
1.87929e-05
2.43848e-06
8.78109e-06
2.49244e-06
8.7901e-06
6.04412e-07
1.91788e-07
2.20645e-07
2.18995e-07
2.01159e-06
1.97474e-06
6.14932e-07
8.78931e-06
8.78033e-06
2.49245e-06
1.89506e-07
6.21082e-07
2.03162e-06
2.51559e-06
8.79163e-06
2.1748e-07
2.03134e-06
6.21082e-07
2.51559e-06
2.34378e-06
2.2993e-06
8.76776e-06
1.89042e-05
2.34446e-06
8.76888e-06
1.77961e-07
1.9317e-07
1.93171e-07
1.93173e-07
1.93174e-07
1.85053e-07
1.85055e-07
5.85894e-07
2.26257e-07
1.90033e-06
2.01779e-07
1.89438e-05
1.89052e-05
5.85894e-07
2.04496e-07
1.86576e-06
2.26278e-07
5.78772e-07
2.0178e-07
1.90043e-06
2.69476e-07
4.29565e-06
4.2972e-06
2.49205e-06
8.77986e-06
2.43865e-06
8.78888e-06
2.49253e-06
8.78111e-06
2.43851e-06
8.79014e-06
1.75302e-07
1.82496e-07
1.82499e-07
1.8836e-05
1.88091e-05
6.14924e-07
1.94158e-07
1.97462e-06
2.18962e-07
6.04409e-07
1.91786e-07
2.01153e-06
2.67059e-07
4.46267e-06
4.40426e-06
4.40567e-06
4.46401e-06
1.8902e-05
1.89045e-05
2.69457e-07
4.29535e-06
4.29705e-06
1.88498e-05
1.88819e-05
1.88523e-05
1.88844e-05
2.69621e-07
4.38169e-06
4.38348e-06
4.31865e-06
4.32018e-06
2.34426e-06
8.75884e-06
2.29916e-06
8.76767e-06
5.85861e-07
2.04496e-07
2.26302e-07
5.78755e-07
1.90037e-06
2.0178e-07
5.85878e-07
1.86625e-06
2.04497e-07
2.26319e-07
5.78769e-07
1.90074e-06
2.01783e-07
2.36634e-06
8.77829e-06
8.7693e-06
2.41546e-06
8.77795e-06
2.36602e-06
8.76914e-06
2.41589e-06
5.90294e-07
2.24288e-07
1.95508e-06
1.96611e-07
1.91933e-06
1.99154e-07
5.99083e-07
2.22393e-07
5.90291e-07
2.24272e-07
1.96613e-07
1.9196e-06
1.99156e-07
5.99087e-07
2.69459e-07
4.29676e-06
4.29473e-06
1.89027e-05
1.88508e-05
1.88842e-05
2.67863e-07
4.38186e-06
2.69623e-07
4.32065e-06
4.31984e-06
1.88519e-05
1.88833e-05
5.85897e-07
2.26274e-07
1.90081e-06
2.0178e-07
2.34402e-06
8.75954e-06
2.29943e-06
8.76848e-06
5.85913e-07
2.045e-07
1.86624e-06
2.26307e-07
5.78767e-07
2.01783e-07
1.90088e-06
2.36609e-06
8.77955e-06
8.77043e-06
2.41609e-06
5.90321e-07
2.24262e-07
1.95556e-06
1.96612e-07
1.91971e-06
1.99154e-07
5.99126e-07
2.36644e-06
8.7791e-06
8.77002e-06
2.41571e-06
5.90315e-07
2.24295e-07
1.96615e-07
1.95575e-06
1.99159e-07
1.91976e-06
5.99145e-07
2.34428e-06
8.76841e-06
5.85895e-07
2.2631e-07
2.01781e-07
1.9005e-06
2.34435e-06
8.76811e-06
1.96612e-07
5.99128e-07
1.95565e-06
5.90317e-07
2.24288e-07
1.91943e-06
1.99155e-07
2.41592e-06
8.77953e-06
2.36614e-06
8.77014e-06
5.9913e-07
2.22416e-07
1.95545e-06
5.90319e-07
2.2429e-07
1.99156e-07
1.91945e-06
8.77888e-06
2.3661e-06
8.76963e-06
4.23163e-06
4.23001e-06
2.69465e-07
4.29682e-06
4.29527e-06
1.89421e-05
1.89034e-05
1.88532e-05
1.88853e-05
2.69628e-07
4.38298e-06
4.38142e-06
4.32086e-06
4.31934e-06
1.88513e-05
1.88835e-05
5.85906e-07
2.04497e-07
1.86621e-06
2.26274e-07
5.7878e-07
2.0178e-07
1.90085e-06
2.34441e-06
8.75978e-06
2.29924e-06
8.76868e-06
2.34445e-06
8.7596e-06
2.29923e-06
8.76852e-06
5.90317e-07
2.24266e-07
1.96611e-07
1.95527e-06
1.99154e-07
1.91928e-06
5.99123e-07
5.90336e-07
2.2427e-07
1.96612e-07
1.9555e-06
1.99156e-07
1.9198e-06
5.99124e-07
2.36613e-06
8.77938e-06
8.77022e-06
2.41603e-06
2.36615e-06
8.77905e-06
8.77006e-06
2.41608e-06
1.89039e-05
1.89052e-05
4.38204e-06
2.69639e-07
4.38276e-06
4.31946e-06
4.32086e-06
1.8884e-05
1.88525e-05
1.88853e-05
1.88328e-05
1.88056e-05
1.88353e-05
1.88081e-05
4.40379e-06
4.40538e-06
2.67036e-07
4.46257e-06
4.46443e-06
8.77954e-06
8.78857e-06
2.49244e-06
2.43834e-06
6.14881e-07
1.9746e-06
1.94159e-07
2.18987e-07
6.0436e-07
2.01136e-06
1.91786e-07
2.20592e-07
2.01164e-06
2.18995e-07
6.14883e-07
1.94158e-07
6.0438e-07
1.91787e-07
8.79008e-06
2.51548e-06
2.1744e-07
6.21043e-07
1.89503e-07
6.14926e-07
1.97506e-06
1.94159e-07
2.18959e-07
6.04414e-07
2.01184e-06
1.91787e-07
2.49219e-06
8.78067e-06
2.43886e-06
8.78971e-06
6.14944e-07
1.94163e-07
1.97511e-06
2.18994e-07
6.04411e-07
1.9179e-07
2.01203e-06
2.51565e-06
6.21087e-07
1.89504e-07
2.51607e-06
8.79122e-06
6.2109e-07
2.1748e-07
1.89509e-07
2.03183e-06
4.40535e-06
4.4038e-06
2.67047e-07
4.46441e-06
4.46284e-06
1.88342e-05
1.88073e-05
1.87942e-05
2.67469e-07
4.48493e-06
4.48336e-06
1.87923e-05
2.18963e-07
6.14934e-07
1.94159e-07
1.97507e-06
6.04421e-07
1.91787e-07
2.012e-06
2.49249e-06
8.78093e-06
2.43851e-06
8.78995e-06
2.49255e-06
8.7807e-06
2.43852e-06
8.78974e-06
2.17447e-07
2.03131e-06
8.79148e-06
1.88347e-05
1.88358e-05
1.88088e-05
4.48363e-06
4.48506e-06
1.8794e-05
2.89199e-06
8.69441e-06
1.10206e-06
4.42351e-06
8.69931e-06
2.87455e-06
1.1096e-06
2.99632e-06
1.15135e-06
4.5017e-06
8.71104e-06
2.9809e-06
8.71679e-06
1.15912e-06
1.23308e-05
1.11713e-05
3.27832e-06
2.45353e-06
1.11525e-05
3.30445e-06
1.23419e-05
2.2661e-05
8.79448e-06
6.72639e-06
2.26556e-05
6.74819e-06
2.82246e-06
8.69242e-06
1.08575e-06
4.36238e-06
2.83898e-06
1.07839e-06
8.68883e-06
1.23793e-05
1.12086e-05
3.24898e-06
2.40167e-06
1.2367e-05
1.12289e-05
3.22271e-06
1.88584e-05
1.88128e-05
1.8788e-05
1.88283e-05
1.88123e-05
9.2439e-06
2.21192e-05
2.21242e-05
2.21308e-05
2.21352e-05
9.20689e-06
2.90194e-06
8.69666e-06
1.10247e-06
4.42422e-06
1.11142e-06
8.70179e-06
2.87222e-06
2.93267e-06
4.44521e-06
1.13469e-06
8.70895e-06
8.70311e-06
2.94817e-06
1.12736e-06
9.27201e-06
2.21354e-05
2.21387e-05
2.21321e-05
2.21354e-05
9.28725e-06
2.92819e-06
4.44515e-06
1.13555e-06
8.71009e-06
1.12686e-06
8.70374e-06
2.95152e-06
1.88291e-05
1.88134e-05
1.87874e-05
9.32949e-06
2.21307e-05
2.21346e-05
9.30493e-06
2.21351e-05
2.21388e-05
3.00224e-06
1.15158e-06
8.71346e-06
4.5025e-06
2.97761e-06
8.71945e-06
1.16032e-06
1.87883e-05
1.23304e-05
3.27842e-06
1.11716e-05
2.45357e-06
3.30446e-06
1.11528e-05
1.23415e-05
2.26564e-05
6.63902e-06
8.78484e-06
6.66316e-06
2.26493e-05
1.23074e-05
2.47645e-06
3.35972e-06
1.10999e-05
3.33371e-06
1.11173e-05
1.22974e-05
2.26526e-05
8.78638e-06
6.70777e-06
6.68538e-06
2.2659e-05
2.26536e-05
8.78563e-06
6.7065e-06
6.68326e-06
2.26597e-05
2.26571e-05
6.63694e-06
8.78409e-06
6.66192e-06
2.26504e-05
1.23078e-05
2.47636e-06
3.3598e-06
1.10996e-05
1.11171e-05
3.33332e-06
1.22977e-05
1.22676e-05
3.38861e-06
1.10664e-05
2.53234e-06
1.22765e-05
3.41441e-06
1.10503e-05
2.26604e-05
6.72879e-06
8.79533e-06
2.26547e-05
6.74941e-06
1.22679e-05
3.38829e-06
1.10661e-05
2.53235e-06
1.22769e-05
1.105e-05
3.41464e-06
1.24643e-05
2.33234e-06
1.13307e-05
3.1368e-06
1.1354e-05
3.11191e-06
1.24495e-05
2.26329e-05
6.4181e-06
2.26235e-05
6.45077e-06
1.24966e-05
2.3102e-06
1.14215e-05
3.05623e-06
1.25126e-05
1.13967e-05
3.08102e-06
2.26315e-05
6.50948e-06
8.76399e-06
6.47891e-06
2.26404e-05
1.89121e-05
1.24645e-05
2.33208e-06
3.13741e-06
1.13311e-05
3.11158e-06
1.13544e-05
1.24498e-05
2.26319e-05
6.50973e-06
8.76513e-06
6.47901e-06
2.26407e-05
1.89347e-05
1.8913e-05
9.00974e-06
2.21106e-05
2.21098e-05
2.20972e-05
2.20964e-05
9.05555e-06
2.67217e-06
4.25012e-06
1.01843e-06
8.67764e-06
2.67575e-06
4.25153e-06
1.01913e-06
8.6813e-06
8.96292e-06
2.2096e-05
2.20953e-05
2.70882e-06
8.6808e-06
4.27491e-06
1.0403e-06
1.03324e-06
8.67855e-06
2.72816e-06
2.71206e-06
8.68441e-06
4.27635e-06
1.04103e-06
1.03382e-06
8.68207e-06
2.73627e-06
1.23072e-05
2.47661e-06
1.10996e-05
3.35959e-06
1.1117e-05
3.33354e-06
1.22972e-05
2.26559e-05
6.63836e-06
8.78365e-06
2.2649e-05
6.66357e-06
1.23302e-05
2.45302e-06
1.11712e-05
3.27842e-06
1.23413e-05
1.11525e-05
3.30415e-06
2.26524e-05
6.70822e-06
8.78518e-06
6.6847e-06
2.26585e-05
1.23075e-05
2.47631e-06
3.36001e-06
1.11e-05
3.33333e-06
1.11173e-05
1.22975e-05
2.26562e-05
6.63866e-06
8.78489e-06
2.26494e-05
6.66383e-06
1.23305e-05
2.45359e-06
3.27834e-06
1.11716e-05
1.23416e-05
3.30467e-06
1.11528e-05
2.26528e-05
6.70851e-06
8.78643e-06
6.685e-06
2.26589e-05
1.88303e-05
1.88145e-05
2.92715e-06
1.13433e-06
4.44406e-06
8.70712e-06
1.12652e-06
8.7018e-06
2.94353e-06
2.89414e-06
1.10233e-06
4.42308e-06
8.69412e-06
1.11005e-06
2.87523e-06
8.69927e-06
9.26085e-06
2.21339e-05
2.21331e-05
2.21309e-05
2.21304e-05
9.27892e-06
2.89977e-06
1.10313e-06
8.69707e-06
4.42464e-06
2.88047e-06
1.11107e-06
8.70276e-06
9.24208e-06
2.21265e-05
2.21252e-05
9.2194e-06
2.21349e-05
2.21341e-05
2.93177e-06
1.1354e-06
8.71075e-06
4.44557e-06
1.12768e-06
8.70543e-06
2.9481e-06
1.891e-05
1.89125e-05
9.02133e-06
2.2111e-05
2.21104e-05
2.21012e-05
2.21006e-05
9.05041e-06
2.71151e-06
8.6809e-06
4.275e-06
1.04033e-06
8.67826e-06
2.73053e-06
1.03325e-06
2.71602e-06
8.68485e-06
4.27657e-06
1.04108e-06
8.68221e-06
2.73481e-06
1.03398e-06
1.88562e-05
1.88746e-05
1.88587e-05
1.88771e-05
9.10623e-06
2.21079e-05
2.21073e-05
9.07527e-06
2.21122e-05
2.21116e-05
2.81877e-06
1.08604e-06
4.36182e-06
8.69132e-06
8.68688e-06
1.07839e-06
2.84105e-06
2.82371e-06
1.08687e-06
4.36346e-06
8.69537e-06
8.69087e-06
1.07921e-06
2.84574e-06
2.78127e-06
8.68221e-06
1.05554e-06
4.33858e-06
2.76346e-06
8.68509e-06
1.06273e-06
2.78588e-06
8.68617e-06
1.05629e-06
4.34033e-06
2.76813e-06
8.68905e-06
1.0635e-06
9.15107e-06
2.21284e-05
2.21277e-05
2.21147e-05
2.21141e-05
9.18951e-06
1.24648e-05
2.33201e-06
1.13306e-05
3.13694e-06
1.13539e-05
3.11185e-06
1.24501e-05
2.26348e-05
6.41712e-06
8.76246e-06
2.26254e-05
6.44912e-06
1.24972e-05
2.31054e-06
1.14214e-05
3.05633e-06
1.13965e-05
1.25132e-05
3.08131e-06
2.26333e-05
6.50753e-06
8.76402e-06
6.47787e-06
2.26422e-05
1.24062e-05
1.12897e-05
3.16726e-06
2.37892e-06
1.24197e-05
1.1268e-05
3.19256e-06
2.26443e-05
8.7745e-06
6.6156e-06
2.26519e-05
6.58862e-06
2.26467e-05
6.53564e-06
8.773e-06
2.26385e-05
6.56424e-06
1.23787e-05
2.40195e-06
1.12086e-05
3.24865e-06
1.23664e-05
1.12288e-05
3.2229e-06
2.26456e-05
8.77426e-06
6.61354e-06
6.58771e-06
2.26532e-05
1.24067e-05
1.12897e-05
3.16731e-06
2.37937e-06
1.24203e-05
1.12679e-05
3.19265e-06
2.26481e-05
8.77281e-06
6.53468e-06
2.26401e-05
6.56216e-06
1.23793e-05
3.24857e-06
2.40165e-06
1.12085e-05
1.12288e-05
3.22303e-06
1.2367e-05
8.9994e-06
2.21045e-05
2.21056e-05
2.20946e-05
2.20951e-05
9.04616e-06
2.71253e-06
8.68383e-06
4.27581e-06
1.04098e-06
8.68212e-06
1.03383e-06
2.73125e-06
2.7043e-06
8.68069e-06
4.2747e-06
1.03997e-06
1.03297e-06
8.67881e-06
2.73006e-06
1.89107e-05
1.88576e-05
1.88766e-05
9.14579e-06
2.21189e-05
2.2124e-05
9.16922e-06
2.21162e-05
2.21209e-05
2.82006e-06
8.69456e-06
1.08727e-06
4.36277e-06
2.84228e-06
8.69042e-06
1.07986e-06
9.12432e-06
2.21103e-05
2.21121e-05
9.09504e-06
2.21207e-05
2.21239e-05
2.78758e-06
4.34008e-06
8.68524e-06
1.05644e-06
1.06304e-06
2.77094e-06
8.68792e-06
2.79132e-06
4.33954e-06
8.68251e-06
1.05531e-06
2.76461e-06
8.68747e-06
1.06379e-06
1.88581e-05
1.88763e-05
1.2465e-05
2.33243e-06
1.13311e-05
3.137e-06
1.13542e-05
3.1122e-06
1.24503e-05
2.26343e-05
6.41662e-06
8.76315e-06
2.2625e-05
6.44921e-06
1.24973e-05
2.31024e-06
1.14217e-05
3.05659e-06
1.13971e-05
1.25134e-05
3.08099e-06
2.26329e-05
6.50787e-06
8.7647e-06
6.47739e-06
2.26417e-05
1.24065e-05
3.16712e-06
1.12901e-05
2.37941e-06
1.242e-05
3.19305e-06
1.12684e-05
2.26448e-05
8.77576e-06
6.61588e-06
2.26523e-05
6.58894e-06
2.26471e-05
6.53584e-06
8.7742e-06
2.26389e-05
6.56455e-06
1.2379e-05
2.40164e-06
3.24914e-06
1.1209e-05
1.23668e-05
3.22266e-06
1.12292e-05
1.2407e-05
1.12899e-05
3.16757e-06
2.37901e-06
1.24205e-05
1.12684e-05
3.19257e-06
2.26456e-05
8.77533e-06
6.61397e-06
6.58723e-06
2.26531e-05
2.2648e-05
6.53416e-06
8.77378e-06
2.26398e-05
6.56265e-06
1.23795e-05
2.40208e-06
1.1209e-05
3.24877e-06
1.12291e-05
3.22322e-06
1.23673e-05
1.24644e-05
2.33202e-06
3.13677e-06
1.1331e-05
3.11184e-06
1.13544e-05
1.24496e-05
2.26315e-05
6.50871e-06
8.7647e-06
6.4794e-06
2.26404e-05
1.24648e-05
2.33204e-06
1.13307e-05
3.13722e-06
1.13541e-05
3.11162e-06
1.24501e-05
2.26331e-05
6.50784e-06
8.76435e-06
6.47731e-06
2.26418e-05
1.23789e-05
3.24889e-06
1.12089e-05
2.40172e-06
1.23667e-05
3.22299e-06
1.12292e-05
2.26444e-05
6.61539e-06
8.77567e-06
2.26524e-05
6.58929e-06
1.24063e-05
2.37945e-06
3.16728e-06
1.12901e-05
1.24198e-05
3.19287e-06
1.12683e-05
2.26468e-05
8.77394e-06
6.53612e-06
2.26384e-05
6.56374e-06
2.26458e-05
6.61398e-06
8.7751e-06
2.26532e-05
6.58718e-06
1.24068e-05
2.37939e-06
1.12899e-05
3.1671e-06
1.24202e-05
1.1268e-05
3.19288e-06
2.26481e-05
8.77342e-06
6.53408e-06
2.264e-05
6.56263e-06
9.00248e-06
2.21043e-05
2.21048e-05
2.20972e-05
2.20976e-05
9.04354e-06
2.67797e-06
1.0124e-06
8.68005e-06
4.25198e-06
8.68154e-06
2.65988e-06
1.01925e-06
2.67354e-06
1.01167e-06
8.67635e-06
4.25065e-06
1.01847e-06
2.65556e-06
8.67781e-06
8.97125e-06
2.20915e-05
2.20919e-05
2.20992e-05
8.93915e-06
2.20997e-05
2.7122e-06
8.6843e-06
4.27625e-06
1.041e-06
8.6823e-06
1.03393e-06
2.73164e-06
2.70773e-06
8.68054e-06
4.27471e-06
1.04018e-06
1.03317e-06
8.67857e-06
2.72699e-06
1.89332e-05
1.89114e-05
1.88597e-05
1.88782e-05
9.12397e-06
2.21079e-05
2.21083e-05
9.08882e-06
2.21203e-05
2.21208e-05
2.82482e-06
1.087e-06
4.36363e-06
8.69536e-06
1.07953e-06
8.69127e-06
2.84193e-06
2.82002e-06
1.08608e-06
4.36208e-06
8.69153e-06
8.68749e-06
1.07867e-06
2.83702e-06
2.79078e-06
8.68572e-06
1.05632e-06
4.34099e-06
1.06375e-06
2.77029e-06
8.68935e-06
2.78599e-06
8.68197e-06
1.05552e-06
4.33946e-06
2.76567e-06
8.68557e-06
1.06288e-06
9.14871e-06
2.21222e-05
2.21227e-05
2.21187e-05
2.21191e-05
9.17181e-06
1.88579e-05
1.88764e-05
1.24644e-05
2.33205e-06
3.1369e-06
1.1331e-05
3.11183e-06
1.13543e-05
1.24496e-05
2.26331e-05
6.41893e-06
8.76345e-06
6.45011e-06
2.26235e-05
1.24967e-05
2.31058e-06
3.05656e-06
1.14219e-05
3.08099e-06
1.25127e-05
1.1397e-05
2.26314e-05
6.50875e-06
8.76495e-06
6.47947e-06
2.26405e-05
1.2465e-05
2.3321e-06
3.13737e-06
1.1331e-05
3.11168e-06
1.13544e-05
1.24503e-05
2.26345e-05
6.4167e-06
8.76326e-06
2.26252e-05
6.44937e-06
1.24973e-05
2.31061e-06
3.05622e-06
1.14219e-05
1.25133e-05
3.08142e-06
1.1397e-05
2.26331e-05
6.50799e-06
8.76477e-06
6.47741e-06
2.26418e-05
1.24063e-05
3.16737e-06
1.12901e-05
2.37943e-06
1.24198e-05
3.19278e-06
1.12683e-05
2.2644e-05
8.77558e-06
6.61501e-06
6.58933e-06
2.26518e-05
2.26469e-05
6.53624e-06
8.77402e-06
2.26384e-05
6.56378e-06
1.23788e-05
2.40167e-06
3.24869e-06
1.12089e-05
3.22291e-06
1.12292e-05
1.23666e-05
1.2407e-05
3.16722e-06
1.12901e-05
2.37943e-06
1.24204e-05
3.19297e-06
1.12683e-05
2.26458e-05
8.77529e-06
6.61407e-06
6.58725e-06
2.26532e-05
2.26481e-05
6.53421e-06
8.77378e-06
2.264e-05
6.56273e-06
1.23795e-05
2.40168e-06
3.2491e-06
1.12089e-05
3.2227e-06
1.12292e-05
1.23672e-05
1.89335e-05
1.89118e-05
1.89348e-05
1.89131e-05
2.82146e-06
1.08648e-06
4.36234e-06
8.69236e-06
2.83814e-06
1.07952e-06
8.68861e-06
9.1121e-06
2.21126e-05
2.21118e-05
9.09097e-06
2.21182e-05
2.21167e-05
2.81886e-06
1.08638e-06
4.36274e-06
8.69388e-06
2.84186e-06
1.07832e-06
8.68992e-06
2.78388e-06
4.33867e-06
8.68242e-06
1.05586e-06
2.76745e-06
1.06289e-06
8.68591e-06
2.78982e-06
8.68597e-06
1.05634e-06
4.3404e-06
2.76976e-06
1.06384e-06
8.68935e-06
9.1418e-06
2.21241e-05
2.21218e-05
9.17896e-06
2.21163e-05
2.2114e-05
1.88767e-05
1.88589e-05
1.88778e-05
1.88269e-05
1.88108e-05
1.88294e-05
1.88133e-05
9.25378e-06
2.21333e-05
2.21327e-05
2.2127e-05
2.21263e-05
9.28569e-06
2.89201e-06
1.1024e-06
8.69381e-06
4.42247e-06
2.87569e-06
8.69891e-06
1.11005e-06
2.89691e-06
1.10324e-06
8.69787e-06
4.42423e-06
2.88066e-06
8.70296e-06
1.11089e-06
9.23086e-06
2.21282e-05
2.21275e-05
9.21617e-06
2.21304e-05
2.21298e-05
2.92382e-06
8.70649e-06
4.44376e-06
1.13414e-06
8.70125e-06
2.9442e-06
1.12626e-06
2.92906e-06
8.7106e-06
4.44542e-06
1.13505e-06
8.70532e-06
2.94924e-06
1.12714e-06
2.26571e-05
8.78333e-06
6.63734e-06
2.26502e-05
6.66146e-06
2.26534e-05
8.78486e-06
6.70618e-06
6.68359e-06
2.26596e-05
1.23077e-05
3.3596e-06
2.47629e-06
1.10995e-05
1.11169e-05
3.33359e-06
1.22977e-05
1.23307e-05
3.27841e-06
2.45342e-06
1.11712e-05
1.11524e-05
1.23419e-05
3.30408e-06
2.26609e-05
8.79375e-06
6.72676e-06
2.26554e-05
6.74793e-06
1.22678e-05
3.38844e-06
2.5322e-06
1.10659e-05
1.22769e-05
1.10499e-05
3.41427e-06
1.2308e-05
2.47672e-06
1.11e-05
3.35961e-06
1.11172e-05
3.33378e-06
1.2298e-05
2.2657e-05
6.63696e-06
8.78446e-06
2.26501e-05
6.66194e-06
1.2331e-05
2.45316e-06
1.11714e-05
3.27881e-06
1.11528e-05
1.23421e-05
3.30413e-06
2.26534e-05
6.70659e-06
8.786e-06
6.6833e-06
2.26595e-05
1.22677e-05
2.53244e-06
3.38834e-06
1.10664e-05
1.22766e-05
3.41487e-06
1.10503e-05
1.22681e-05
2.53205e-06
1.10663e-05
3.38887e-06
1.22771e-05
1.10503e-05
3.41437e-06
2.26608e-05
6.72648e-06
8.79487e-06
2.26554e-05
6.74828e-06
9.27075e-06
2.21364e-05
2.21369e-05
2.21321e-05
2.21326e-05
9.28771e-06
2.8985e-06
1.10294e-06
8.69746e-06
4.42472e-06
8.70243e-06
2.87698e-06
1.11078e-06
2.89336e-06
1.10207e-06
8.69363e-06
4.42319e-06
1.10985e-06
2.87199e-06
8.69856e-06
9.24159e-06
2.21216e-05
2.21221e-05
2.21311e-05
9.2056e-06
2.21316e-05
2.934e-06
8.71127e-06
4.44615e-06
1.13554e-06
8.70525e-06
1.12754e-06
2.95123e-06
2.92888e-06
8.70736e-06
4.4446e-06
1.13453e-06
1.1266e-06
8.70138e-06
2.94597e-06
1.88284e-05
1.88126e-05
1.87894e-05
9.33163e-06
2.21328e-05
2.21333e-05
9.30684e-06
2.21373e-05
2.21378e-05
3.00153e-06
8.71407e-06
1.15224e-06
4.50312e-06
1.16028e-06
2.98263e-06
8.72006e-06
2.99608e-06
8.71016e-06
1.15125e-06
4.50158e-06
2.97738e-06
8.7161e-06
1.15925e-06
1.87876e-05
1.23074e-05
2.47637e-06
3.3595e-06
1.10999e-05
3.33381e-06
1.11173e-05
1.22973e-05
2.26557e-05
6.6391e-06
8.78469e-06
6.66273e-06
2.26486e-05
1.23303e-05
2.45359e-06
3.27857e-06
1.11716e-05
3.30415e-06
1.23414e-05
1.11528e-05
2.26523e-05
6.70744e-06
8.78623e-06
6.68563e-06
2.26587e-05
1.2308e-05
2.47635e-06
3.36003e-06
1.10999e-05
3.33331e-06
1.11173e-05
1.22979e-05
2.26571e-05
6.63695e-06
8.78451e-06
2.26504e-05
6.6621e-06
1.2331e-05
2.45363e-06
3.27833e-06
1.11716e-05
1.23421e-05
3.30472e-06
1.11528e-05
2.26536e-05
6.70671e-06
8.78606e-06
6.6833e-06
2.26597e-05
2.26601e-05
6.72888e-06
8.79515e-06
2.26543e-05
6.74917e-06
1.88289e-05
1.88302e-05
1.88142e-05
2.99862e-06
1.15113e-06
4.50189e-06
8.70996e-06
1.15932e-06
2.97819e-06
8.71635e-06
9.34254e-06
2.21332e-05
2.21326e-05
9.31272e-06
2.21416e-05
2.2141e-05
3.00453e-06
1.15196e-06
8.71355e-06
4.50353e-06
2.9827e-06
1.16023e-06
8.72003e-06
1.87894e-05
1.77958e-07
1.87686e-07
1.7796e-07
1.80687e-07
1.80685e-07
1.77149e-07
1.74402e-07
8.36719e-07
2.70563e-07
4.04382e-07
4.04436e-07
9.20723e-07
2.67371e-07
4.19974e-07
4.20063e-07
4.21127e-07
9.13732e-07
4.21265e-07
8.91527e-07
2.68788e-07
4.16291e-07
4.16357e-07
4.15237e-07
4.1531e-07
8.98394e-07
4.02458e-07
5.64884e-07
1.94689e-06
1.26047e-06
1.25307e-06
5.63132e-07
4.02554e-07
8.36849e-07
4.03786e-07
4.03727e-07
2.70553e-07
4.04369e-07
8.31012e-07
4.0443e-07
8.91874e-07
2.68794e-07
4.16373e-07
4.16293e-07
4.15332e-07
4.15258e-07
8.98421e-07
8.91617e-07
4.16402e-07
2.68803e-07
4.16269e-07
8.98297e-07
4.15711e-07
4.14869e-07
9.20645e-07
4.1996e-07
4.2004e-07
2.67346e-07
9.13874e-07
4.21126e-07
4.21195e-07
4.05682e-07
5.70382e-07
1.98319e-06
1.27769e-06
5.72309e-07
4.05496e-07
1.28515e-06
4.12837e-07
5.86338e-07
2.04006e-06
1.32774e-06
5.88538e-07
4.12497e-07
1.33533e-06
9.2045e-07
4.20022e-07
4.19946e-07
2.67358e-07
4.21125e-07
9.1343e-07
4.21206e-07
9.66836e-07
4.30636e-07
2.66948e-07
4.30763e-07
4.3206e-07
9.59378e-07
4.32198e-07
3.16717e-07
2.85678e-07
7.71761e-07
6.06706e-07
7.76317e-07
2.848e-07
3.17039e-07
4.05785e-07
5.70636e-07
1.27804e-06
1.98354e-06
5.72582e-07
1.28552e-06
4.05606e-07
3.17755e-07
6.12415e-07
2.8419e-07
7.91776e-07
7.86988e-07
2.84914e-07
3.17485e-07
4.08924e-07
2.00312e-06
5.80429e-07
1.31048e-06
5.7829e-07
1.30291e-06
4.09198e-07
9.20434e-07
4.19641e-07
4.2032e-07
2.67355e-07
4.21511e-07
9.13413e-07
4.20806e-07
9.36429e-07
2.67712e-07
4.26212e-07
4.26662e-07
4.25015e-07
9.43542e-07
4.25282e-07
9.66705e-07
4.30414e-07
2.66934e-07
4.30967e-07
9.59459e-07
4.32402e-07
4.31798e-07
3.16706e-07
2.85676e-07
7.71732e-07
6.06705e-07
2.84799e-07
7.76281e-07
3.17025e-07
4.08882e-07
5.80275e-07
2.00297e-06
1.31015e-06
1.30266e-06
4.09148e-07
5.78211e-07
4.05722e-07
1.27775e-06
5.70491e-07
1.98332e-06
1.28519e-06
5.72407e-07
4.05543e-07
3.17743e-07
6.12413e-07
2.84192e-07
7.91737e-07
2.84915e-07
7.86969e-07
3.17481e-07
3.18509e-07
2.84367e-07
8.02906e-07
6.23808e-07
3.18729e-07
8.07888e-07
2.83797e-07
4.12932e-07
5.86572e-07
1.32809e-06
2.04037e-06
4.12593e-07
5.88791e-07
1.33571e-06
4.12871e-07
5.86403e-07
2.04009e-06
1.32776e-06
4.12533e-07
1.33533e-06
5.88613e-07
3.18504e-07
2.84366e-07
8.02876e-07
6.23812e-07
3.18717e-07
2.83799e-07
8.07847e-07
1.85055e-07
1.87688e-07
1.77959e-07
1.80687e-07
1.80685e-07
1.7715e-07
1.74403e-07
1.86342e-07
1.8634e-07
1.90389e-07
1.83479e-07
1.83477e-07
1.79963e-07
1.82846e-07
1.86342e-07
1.8634e-07
1.90388e-07
1.83478e-07
1.83477e-07
1.79963e-07
1.82846e-07
1.86343e-07
1.86341e-07
1.90391e-07
1.8348e-07
1.83478e-07
1.79963e-07
1.82846e-07
1.86343e-07
1.86341e-07
1.90391e-07
1.8348e-07
1.83478e-07
1.79963e-07
1.82846e-07
1.87684e-07
1.7796e-07
1.77958e-07
1.80686e-07
1.80684e-07
1.77149e-07
1.74402e-07
1.87687e-07
1.77961e-07
1.77959e-07
1.80687e-07
1.80685e-07
1.7715e-07
1.74403e-07
3.16377e-07
5.84236e-07
7.33912e-07
2.87945e-07
7.30009e-07
2.89264e-07
3.15837e-07
3.9725e-07
1.2121e-06
1.89229e-06
5.51515e-07
5.50033e-07
1.20493e-06
3.97213e-07
3.1638e-07
5.84233e-07
2.87946e-07
7.33887e-07
2.8927e-07
7.3e-07
3.15834e-07
3.94953e-07
5.44179e-07
1.18126e-06
1.87375e-06
3.95048e-07
5.45519e-07
1.18831e-06
3.15993e-07
5.80228e-07
2.90894e-07
7.17506e-07
3.16708e-07
2.89444e-07
7.2116e-07
3.97249e-07
1.21208e-06
1.89231e-06
5.51526e-07
5.50042e-07
1.20493e-06
3.97211e-07
8.502e-07
2.70662e-07
4.07941e-07
4.07992e-07
4.07153e-07
4.07193e-07
8.56455e-07
1.72707e-07
1.825e-07
1.80013e-07
1.753e-07
1.72705e-07
1.69101e-07
1.71721e-07
1.75301e-07
1.75299e-07
1.80011e-07
1.72706e-07
1.72704e-07
1.69101e-07
1.7172e-07
1.75302e-07
1.753e-07
1.80013e-07
1.72707e-07
1.72705e-07
1.69101e-07
1.71721e-07
3.1774e-07
6.12412e-07
2.84187e-07
7.91721e-07
2.84912e-07
7.86966e-07
3.1747e-07
4.05717e-07
5.70426e-07
1.27793e-06
1.98318e-06
4.05534e-07
5.72358e-07
1.28535e-06
3.16698e-07
6.067e-07
2.85673e-07
7.71717e-07
3.17019e-07
2.84796e-07
7.76256e-07
4.0888e-07
1.31033e-06
2.00285e-06
5.80245e-07
5.78165e-07
1.30283e-06
4.09141e-07