/*--------------------------------*- C++ -*----------------------------------*\
| =========                 |                                                 |
| \\      /  F ield         | OpenFOAM: The Open Source CFD Toolbox           |
|  \\    /   O peration     | Version:  v2006                                 |
|   \\  /    A nd           | Website:  www.openfoam.com                      |
|    \\/     M anipulation  |                                                 |
\*---------------------------------------------------------------------------*/
FoamFile
{
    version     2.0;
    format      ascii;
    class       volScalarField;
    location    "375";
    object      nut;
}
// * * * * * * * * * * * * * * * * * * * * * * * * * * * * * * * * * * * * * //

dimensions      [0 2 -1 0 0 0 0];


internalField   nonuniform List<scalar> 
14298
(
2.36361e-05
2.36341e-05
8.3053e-05
6.05721e-05
6.05701e-05
6.79014e-05
4.95433e-05
6.78993e-05
6.47516e-05
0.000103266
6.47886e-05
0.000128198
6.47503e-05
0.00012819
6.79039e-05
4.95388e-05
6.47505e-05
0.000103293
6.47865e-05
0.000128195
6.78956e-05
4.95352e-05
6.47495e-05
0.000103252
0.000128188
6.47889e-05
0.000103264
6.47858e-05
4.95372e-05
2.36331e-05
8.30504e-05
6.05592e-05
6.05669e-05
2.36349e-05
6.47508e-05
0.000103295
0.000128199
6.47876e-05
6.47495e-05
0.000103287
0.000128203
6.47822e-05
6.79032e-05
4.95397e-05
6.79015e-05
4.95354e-05
8.30453e-05
6.05584e-05
6.05552e-05
2.36344e-05
2.36333e-05
2.36356e-05
2.36336e-05
7.03963e-05
2.15598e-05
2.15566e-05
7.0289e-05
2.15592e-05
2.15561e-05
7.31363e-05
4.71184e-05
6.9666e-05
6.07759e-05
7.27906e-05
4.71277e-05
7.01111e-05
7.31853e-05
4.71075e-05
6.96711e-05
6.0774e-05
7.28294e-05
4.71168e-05
7.01218e-05
3.61871e-05
4.03191e-05
6.95455e-05
6.83758e-05
3.61843e-05
4.03235e-05
6.98586e-05
2.02242e-05
6.80098e-05
4.95473e-05
2.02244e-05
6.81429e-05
3.61849e-05
4.0319e-05
6.95364e-05
6.83737e-05
3.61821e-05
4.03234e-05
6.98487e-05
3.61864e-05
6.9544e-05
4.03183e-05
6.83712e-05
3.61836e-05
6.98555e-05
4.03227e-05
2.02239e-05
6.80083e-05
4.95429e-05
2.0224e-05
6.81416e-05
3.61843e-05
4.0318e-05
6.95299e-05
6.83759e-05
3.61814e-05
4.03223e-05
6.98539e-05
2.02226e-05
6.79888e-05
4.95394e-05
2.02228e-05
6.81217e-05
4.95414e-05
2.36327e-05
7.03978e-05
2.15565e-05
2.15599e-05
7.02743e-05
2.15561e-05
2.15595e-05
7.32045e-05
4.71074e-05
6.96512e-05
6.07701e-05
7.01355e-05
7.2838e-05
4.71174e-05
7.31669e-05
4.71181e-05
6.96432e-05
6.07752e-05
7.27901e-05
4.71282e-05
7.01325e-05
2.36345e-05
3.61868e-05
6.95389e-05
4.03182e-05
6.83715e-05
3.61839e-05
6.98627e-05
4.03226e-05
2.02241e-05
6.80028e-05
4.95438e-05
2.02242e-05
6.81457e-05
3.61842e-05
6.95366e-05
4.03177e-05
6.83687e-05
3.61814e-05
6.9847e-05
4.03221e-05
2.02226e-05
6.79902e-05
4.95396e-05
2.02228e-05
6.8123e-05
7.04093e-05
2.15595e-05
2.15565e-05
7.0245e-05
2.15594e-05
2.15563e-05
7.31742e-05
4.71167e-05
6.96226e-05
6.07681e-05
7.27707e-05
7.01153e-05
4.71273e-05
7.3215e-05
4.71069e-05
6.96293e-05
6.07646e-05
7.28149e-05
7.01214e-05
4.71176e-05
2.36339e-05
2.36328e-05
0.000152204
0.000174932
0.000174943
0.000193687
0.000174928
0.000193684
0.000152195
0.000174926
0.000174938
0.000193682
0.000152197
0.000174938
0.000193681
7.29768e-05
8.31064e-05
7.21828e-05
7.2183e-05
7.27516e-05
7.23175e-05
7.23177e-05
7.28029e-05
6.64472e-05
7.57109e-05
6.49892e-05
7.2727e-05
6.6685e-05
7.5726e-05
6.83387e-05
6.68069e-05
6.75986e-05
6.50069e-05
6.77836e-05
6.82017e-05
6.7013e-05
7.28009e-05
6.64418e-05
7.57107e-05
6.49879e-05
7.27251e-05
6.66792e-05
7.57251e-05
7.27996e-05
6.64453e-05
7.57096e-05
6.49879e-05
7.27231e-05
6.6683e-05
7.57239e-05
6.83372e-05
6.68048e-05
6.75989e-05
6.50034e-05
6.77839e-05
6.81999e-05
6.70107e-05
7.27979e-05
7.57084e-05
6.64409e-05
6.49867e-05
7.27224e-05
7.5722e-05
6.66785e-05
6.83335e-05
6.67975e-05
6.75927e-05
6.4997e-05
6.81965e-05
6.70031e-05
6.77782e-05
6.75914e-05
6.49987e-05
6.7776e-05
7.29696e-05
8.31029e-05
7.2175e-05
7.21797e-05
7.23092e-05
7.27419e-05
7.23139e-05
7.27997e-05
7.57089e-05
6.64465e-05
6.49881e-05
7.27236e-05
7.57231e-05
6.66839e-05
6.83381e-05
6.68049e-05
6.7595e-05
6.5006e-05
6.8201e-05
6.77807e-05
6.70105e-05
7.27969e-05
7.57079e-05
6.64416e-05
6.49867e-05
7.2721e-05
7.5722e-05
6.66784e-05
6.83375e-05
6.67975e-05
6.75933e-05
6.50022e-05
6.8201e-05
6.70028e-05
6.77777e-05
7.29593e-05
8.30959e-05
7.21739e-05
7.21745e-05
7.27295e-05
7.23062e-05
7.23064e-05
0.000143652
0.000113162
0.00014509
0.000145125
0.000114413
0.000113173
0.000143629
0.000189826
2.3829e-05
4.66957e-05
0.000168095
5.77207e-05
4.67694e-05
4.67701e-05
0.000169437
5.80434e-05
4.13238e-05
0.000169432
4.6432e-05
5.80432e-05
4.92668e-05
4.13267e-05
0.000169433
4.64311e-05
5.80417e-05
4.92647e-05
4.13283e-05
4.65917e-05
4.65894e-05
2.38392e-05
2.38379e-05
4.67651e-05
4.67732e-05
2.38303e-05
4.92729e-05
4.14252e-05
0.000168091
4.66959e-05
5.77206e-05
4.92695e-05
4.14245e-05
2.38293e-05
2.3828e-05
2.38252e-05
5.24062e-05
4.65143e-05
5.15654e-05
5.23977e-05
4.65028e-05
5.15561e-05
2.16117e-05
2.16083e-05
5.79923e-05
2.02725e-05
5.60745e-05
5.55385e-05
2.02755e-05
3.66243e-05
4.07987e-05
4.59676e-05
4.13196e-05
4.53736e-05
4.13514e-05
3.66074e-05
2.02714e-05
4.92601e-05
5.60536e-05
5.55334e-05
2.02742e-05
3.66225e-05
4.08029e-05
4.132e-05
4.597e-05
4.13518e-05
4.53726e-05
3.66057e-05
2.02713e-05
4.92581e-05
5.60521e-05
5.55309e-05
2.02742e-05
3.66219e-05
4.08041e-05
4.59692e-05
4.1319e-05
4.53704e-05
4.13508e-05
3.6605e-05
5.06944e-05
5.23499e-05
4.61655e-05
4.65136e-05
5.11163e-05
5.23108e-05
4.65126e-05
5.06526e-05
5.23414e-05
4.61624e-05
4.6502e-05
5.12123e-05
5.23009e-05
4.65009e-05
5.69972e-05
2.16115e-05
2.16081e-05
5.77e-05
2.16062e-05
2.16028e-05
2.38433e-05
2.3842e-05
5.18842e-05
5.23969e-05
4.65029e-05
4.71762e-05
4.65055e-05
5.16127e-05
5.24517e-05
5.20549e-05
5.23607e-05
4.65139e-05
4.718e-05
5.2572e-05
5.15632e-05
4.65163e-05
5.8359e-05
2.16093e-05
2.16127e-05
2.16104e-05
5.81177e-05
2.16138e-05
2.38265e-05
2.0278e-05
5.61956e-05
4.92798e-05
5.67075e-05
2.02751e-05
3.65578e-05
4.19704e-05
4.61949e-05
4.12664e-05
4.68033e-05
3.65735e-05
4.12363e-05
2.02767e-05
5.6184e-05
4.92763e-05
2.02739e-05
5.66807e-05
3.65561e-05
4.1967e-05
4.12668e-05
4.62024e-05
3.65717e-05
4.12367e-05
4.67884e-05
8.18219e-05
8.18089e-05
5.77411e-05
5.78699e-05
0.000114538
8.24312e-05
8.24168e-05
5.78382e-05
8.28985e-05
8.28843e-05
5.77272e-05
8.18091e-05
8.18257e-05
0.000112994
8.14162e-05
5.77315e-05
8.13956e-05
0.000205613
0.000216981
0.000205605
0.000205611
0.000216979
7.87083e-05
6.52874e-05
4.88306e-05
4.68453e-05
7.91448e-05
6.51455e-05
4.8913e-05
9.39311e-05
5.76026e-05
5.45155e-05
0.000101166
9.46204e-05
5.44568e-05
0.000100648
8.02366e-05
4.87121e-05
7.97493e-05
4.86428e-05
9.58825e-05
5.81757e-05
5.47195e-05
0.000101902
9.51934e-05
5.4795e-05
0.000102394
8.02306e-05
6.57047e-05
4.62889e-05
4.87092e-05
4.86399e-05
6.58594e-05
7.97427e-05
9.58779e-05
5.81754e-05
0.000101899
5.47173e-05
0.000102392
5.4793e-05
9.51874e-05
8.02278e-05
6.5697e-05
4.62882e-05
4.87083e-05
4.86391e-05
6.58515e-05
7.9741e-05
9.58717e-05
5.81731e-05
0.000101895
5.47153e-05
0.000102389
5.47911e-05
9.51832e-05
7.87023e-05
6.52836e-05
4.8828e-05
4.68451e-05
6.51409e-05
7.91385e-05
4.89095e-05
9.39261e-05
5.76023e-05
0.000101163
5.4515e-05
0.000100646
9.46152e-05
5.44551e-05
0.00013792
4.90005e-05
5.00607e-05
0.000162853
4.42185e-05
0.000135153
0.000160306
4.93287e-05
0.000185276
0.000143656
0.000183034
0.000137943
0.000107929
0.000108839
0.000143633
0.000139319
4.81915e-05
4.88482e-05
0.000143623
0.000139351
0.000139311
0.000139341
0.000164145
4.4062e-05
0.00011317
0.000108833
0.000143654
0.000139347
0.000139355
0.000108825
2.37909e-05
0.00010794
0.000137917
4.84992e-05
4.94877e-05
0.000137947
0.000137907
0.000107937
0.000137945
2.37726e-05
0.000105464
2.37663e-05
2.3785e-05
2.37734e-05
0.000162857
5.63268e-05
4.84958e-05
0.00013655
0.000161579
5.60334e-05
4.91581e-05
0.00010794
4.89961e-05
4.99278e-05
0.000106202
4.99317e-05
2.37835e-05
2.37722e-05
2.37671e-05
0.000105471
5.00621e-05
2.37659e-05
4.42141e-05
4.93105e-05
4.55732e-05
4.93274e-05
5.63278e-05
0.000161575
0.000137907
0.000136516
4.91588e-05
4.84961e-05
5.60336e-05
4.93259e-05
4.93088e-05
4.55698e-05
0.00016031
5.58814e-05
4.94844e-05
4.57478e-05
4.93302e-05
0.000135138
4.94845e-05
5.58815e-05
4.57494e-05
4.26506e-05
4.14182e-05
4.92927e-05
2.38128e-05
4.26474e-05
4.92877e-05
0.000202079
0.000188686
0.000188683
0.000188679
0.000188678
0.000185275
0.000185269
5.72045e-05
0.00014222
4.72772e-05
0.000166768
2.38281e-05
2.38116e-05
5.72038e-05
0.000168092
4.66954e-05
0.000142204
5.77189e-05
0.000166765
4.72762e-05
0.000111569
4.77386e-05
4.77352e-05
4.55784e-05
4.9316e-05
4.42128e-05
4.93329e-05
4.55679e-05
4.93106e-05
4.42194e-05
4.93275e-05
0.000201196
0.000184155
0.000184147
2.37825e-05
2.37712e-05
5.60332e-05
0.000162857
4.84964e-05
0.00013655
5.63271e-05
0.000161579
4.91588e-05
0.000106192
4.99144e-05
4.90124e-05
4.90085e-05
4.99129e-05
2.38154e-05
2.38125e-05
0.000111582
4.77485e-05
4.77461e-05
2.37934e-05
2.38069e-05
2.37906e-05
2.38041e-05
0.000110505
4.88541e-05
4.88524e-05
4.79148e-05
4.7911e-05
4.26456e-05
4.92708e-05
4.14231e-05
4.92877e-05
5.72075e-05
0.000168093
0.000142176
5.77216e-05
4.72789e-05
0.000166766
5.72071e-05
4.66965e-05
0.00016809
0.000142163
5.77214e-05
4.72781e-05
0.000166762
4.27612e-05
4.93131e-05
4.92956e-05
4.40717e-05
4.93094e-05
4.27669e-05
4.92911e-05
4.40665e-05
5.69416e-05
0.000140743
4.81912e-05
0.000164149
4.75666e-05
0.000165451
5.65388e-05
0.000139319
5.69424e-05
0.000140749
0.000164147
4.75657e-05
0.000165448
5.6539e-05
0.000111586
4.77313e-05
4.77247e-05
2.38139e-05
2.37922e-05
2.38047e-05
0.000108839
4.88467e-05
0.000110504
4.79038e-05
4.79018e-05
2.37907e-05
2.38054e-05
5.72039e-05
0.000142208
4.72755e-05
0.000166765
4.26553e-05
4.92676e-05
4.14121e-05
4.92841e-05
5.72034e-05
0.000168084
4.66943e-05
0.000142169
5.77192e-05
0.000166758
4.72755e-05
4.27709e-05
4.93076e-05
4.92905e-05
4.40621e-05
5.69391e-05
0.000140773
4.81876e-05
0.000164148
4.75637e-05
0.00016545
5.65346e-05
4.27609e-05
4.9304e-05
4.9287e-05
4.40732e-05
5.69394e-05
0.000140733
0.000164141
4.81875e-05
0.000165442
4.75629e-05
5.6534e-05
4.26414e-05
4.92894e-05
5.72047e-05
0.00014217
0.000166763
4.72759e-05
4.26445e-05
4.92862e-05
0.000164149
5.65354e-05
4.81872e-05
5.69392e-05
0.000140758
4.75622e-05
0.000165452
4.40628e-05
4.93076e-05
4.27664e-05
4.92918e-05
5.65353e-05
0.000139306
4.81871e-05
5.69397e-05
0.000140739
0.000165448
4.75635e-05
4.93054e-05
4.27704e-05
4.92891e-05
4.67588e-05
4.67651e-05
0.000111578
4.7729e-05
4.77328e-05
2.38297e-05
2.38135e-05
2.37897e-05
2.38032e-05
0.000110501
4.88493e-05
4.88533e-05
4.78991e-05
4.79036e-05
2.37916e-05
2.38051e-05
5.72035e-05
0.000168091
4.66953e-05
0.000142207
5.77188e-05
0.000166765
4.72751e-05
4.26448e-05
4.9272e-05
4.14235e-05
4.92887e-05
4.26457e-05
4.92675e-05
4.1423e-05
4.92842e-05
5.6939e-05
0.000140769
0.000164149
4.81882e-05
0.000165451
4.75636e-05
5.65347e-05
5.69384e-05
0.000140767
0.000164148
4.81882e-05
0.000165449
4.7563e-05
5.65348e-05
4.27701e-05
4.93087e-05
4.92915e-05
4.40616e-05
4.27713e-05
4.93044e-05
4.92871e-05
4.40609e-05
2.38131e-05
2.38118e-05
4.88441e-05
0.000110491
4.88403e-05
4.79148e-05
4.79134e-05
2.38047e-05
2.37904e-05
2.38035e-05
2.37863e-05
2.37748e-05
2.37835e-05
2.3772e-05
4.90207e-05
4.90181e-05
0.000106207
4.9917e-05
4.99146e-05
4.93124e-05
4.9329e-05
4.55735e-05
4.42177e-05
5.60367e-05
4.84995e-05
0.000162858
0.000136522
5.63315e-05
4.91624e-05
0.000161579
0.000137936
4.91615e-05
0.000136516
5.6037e-05
0.000162857
5.6331e-05
0.000161578
4.93319e-05
4.57536e-05
0.000135161
5.5885e-05
0.00016031
5.60332e-05
4.84961e-05
0.000162856
0.000136554
5.63271e-05
4.91589e-05
0.000161578
4.55759e-05
4.93069e-05
4.42139e-05
4.93238e-05
5.60324e-05
0.000162848
4.84958e-05
0.000136514
5.63278e-05
0.000161571
4.91582e-05
4.57491e-05
5.58807e-05
0.00016031
4.57451e-05
4.93267e-05
5.58808e-05
0.000135136
0.000160301
4.94844e-05
4.90003e-05
4.90046e-05
0.000106198
4.99276e-05
4.99318e-05
2.37843e-05
2.37731e-05
2.37648e-05
0.000105469
5.00647e-05
5.00687e-05
2.37667e-05
0.000136551
5.6033e-05
0.000162856
4.84953e-05
5.63267e-05
0.000161578
4.91586e-05
4.55695e-05
4.93116e-05
4.42175e-05
4.93285e-05
4.55678e-05
4.93073e-05
4.4219e-05
4.93239e-05
0.000135173
4.9485e-05
4.93313e-05
2.3784e-05
2.3783e-05
2.37713e-05
5.00608e-05
5.00549e-05
2.3765e-05
5.48389e-05
4.65458e-05
5.31784e-05
4.93979e-05
4.6553e-05
5.45401e-05
5.32825e-05
5.6356e-05
5.37544e-05
5.04423e-05
4.65737e-05
5.60545e-05
4.6584e-05
5.39255e-05
3.63931e-05
4.09631e-05
4.95675e-05
4.48081e-05
4.09401e-05
5.01592e-05
3.64041e-05
2.02846e-05
4.93356e-05
5.95165e-05
2.0283e-05
5.98857e-05
5.38723e-05
4.6542e-05
5.30263e-05
4.8461e-05
5.41116e-05
5.29339e-05
4.65337e-05
3.64408e-05
4.10086e-05
4.93132e-05
4.34752e-05
3.64288e-05
4.10334e-05
4.87109e-05
2.37936e-05
2.37748e-05
2.37644e-05
2.37824e-05
2.37756e-05
6.08186e-05
2.16201e-05
2.16191e-05
2.16234e-05
2.16228e-05
6.02781e-05
5.48886e-05
4.65319e-05
5.30137e-05
4.93942e-05
5.33078e-05
4.6542e-05
5.43248e-05
5.5379e-05
4.95486e-05
5.35897e-05
4.65658e-05
4.65553e-05
5.57343e-05
5.34425e-05
6.12095e-05
2.16248e-05
2.16248e-05
2.16236e-05
2.16235e-05
6.15246e-05
5.53093e-05
4.95533e-05
5.37302e-05
4.65614e-05
5.33522e-05
4.655e-05
5.59072e-05
2.37811e-05
2.37745e-05
2.37651e-05
6.17447e-05
2.16238e-05
2.16232e-05
6.15797e-05
2.1625e-05
2.16244e-05
5.63817e-05
5.37168e-05
4.65633e-05
5.04337e-05
5.60444e-05
4.6574e-05
5.39609e-05
2.37639e-05
3.63947e-05
4.95617e-05
4.09627e-05
4.4806e-05
5.01621e-05
4.09397e-05
3.64056e-05
2.02845e-05
5.85241e-05
4.93175e-05
5.894e-05
2.02824e-05
3.6372e-05
4.49679e-05
5.10048e-05
4.08749e-05
5.04014e-05
4.08963e-05
3.63622e-05
2.02834e-05
4.93204e-05
5.94341e-05
5.90381e-05
2.02853e-05
2.02824e-05
4.9319e-05
5.94148e-05
5.90261e-05
2.02842e-05
2.02834e-05
5.85071e-05
4.93161e-05
5.89187e-05
2.02814e-05
3.63705e-05
4.49663e-05
5.09914e-05
4.08753e-05
4.08967e-05
5.03996e-05
3.63606e-05
3.63327e-05
5.12418e-05
4.08337e-05
4.63625e-05
3.63416e-05
5.18438e-05
4.08139e-05
2.02858e-05
5.95275e-05
4.93371e-05
2.0284e-05
5.99113e-05
3.63312e-05
5.12437e-05
4.08341e-05
4.6365e-05
3.634e-05
4.08143e-05
5.18367e-05
3.65267e-05
4.20829e-05
4.1158e-05
4.76446e-05
4.1186e-05
4.70325e-05
3.65126e-05
2.0278e-05
5.62008e-05
2.02752e-05
5.66983e-05
3.65582e-05
4.1976e-05
4.12674e-05
4.61969e-05
3.65738e-05
4.12375e-05
4.67957e-05
2.02776e-05
5.73017e-05
4.92856e-05
5.68254e-05
2.02803e-05
2.38161e-05
3.65259e-05
4.20829e-05
4.76354e-05
4.11567e-05
4.70311e-05
4.11849e-05
3.65115e-05
2.02774e-05
5.72977e-05
4.92806e-05
5.68241e-05
2.028e-05
2.38243e-05
2.38152e-05
5.83688e-05
2.16172e-05
2.1614e-05
2.1613e-05
2.16098e-05
5.89765e-05
5.17979e-05
4.71618e-05
5.24579e-05
4.65164e-05
5.19067e-05
4.7161e-05
5.24572e-05
4.65048e-05
5.81945e-05
2.16131e-05
2.16096e-05
5.21894e-05
4.65211e-05
4.73265e-05
5.25974e-05
5.25325e-05
4.65175e-05
5.25825e-05
5.21166e-05
4.65102e-05
4.73229e-05
5.26116e-05
5.24917e-05
4.65061e-05
5.26347e-05
3.63729e-05
4.49607e-05
4.08763e-05
5.10036e-05
4.08976e-05
5.04e-05
3.6363e-05
2.02849e-05
5.85266e-05
4.93231e-05
2.02828e-05
5.89362e-05
3.63955e-05
4.48102e-05
4.0964e-05
4.95655e-05
3.64065e-05
4.09411e-05
5.01656e-05
2.02838e-05
5.94331e-05
4.9326e-05
5.90453e-05
2.02857e-05
3.63719e-05
4.49628e-05
5.09953e-05
4.0875e-05
5.04032e-05
4.08962e-05
3.6362e-05
2.02846e-05
5.85254e-05
4.93176e-05
2.02826e-05
5.89338e-05
3.63945e-05
4.48101e-05
4.95687e-05
4.09627e-05
3.64055e-05
5.01634e-05
4.09397e-05
2.02836e-05
5.9431e-05
4.93205e-05
5.90426e-05
2.02854e-05
2.378e-05
2.37734e-05
5.53213e-05
5.36054e-05
4.95456e-05
4.65688e-05
5.34258e-05
4.65589e-05
5.56658e-05
5.50082e-05
5.31349e-05
4.94015e-05
4.65432e-05
5.33129e-05
5.45069e-05
4.65538e-05
6.11526e-05
2.16251e-05
2.16219e-05
2.16242e-05
2.16211e-05
6.12709e-05
5.50733e-05
5.31058e-05
4.65346e-05
4.94032e-05
5.44838e-05
5.33421e-05
4.65433e-05
6.10059e-05
2.16221e-05
2.16196e-05
6.05087e-05
2.16254e-05
2.16225e-05
5.54191e-05
5.36158e-05
4.65574e-05
4.95491e-05
5.34468e-05
4.65478e-05
5.57097e-05
2.38187e-05
2.38159e-05
5.86482e-05
2.16185e-05
2.16152e-05
2.1615e-05
2.16116e-05
5.91487e-05
5.22074e-05
4.65234e-05
4.73402e-05
5.26059e-05
4.65187e-05
5.27472e-05
5.25276e-05
5.2259e-05
4.6511e-05
4.7338e-05
5.25967e-05
4.65063e-05
5.27659e-05
5.25218e-05
2.37961e-05
2.38039e-05
2.37933e-05
2.38011e-05
5.94288e-05
2.16176e-05
2.16142e-05
5.92736e-05
2.16188e-05
2.16154e-05
5.36094e-05
5.30345e-05
4.84572e-05
4.65419e-05
4.65341e-05
5.2874e-05
5.416e-05
5.36551e-05
5.30304e-05
4.84544e-05
4.65297e-05
4.65218e-05
5.28701e-05
5.41964e-05
5.33555e-05
4.65258e-05
5.27116e-05
4.82989e-05
5.30399e-05
4.6531e-05
5.27979e-05
5.33654e-05
4.65134e-05
5.27051e-05
4.82951e-05
5.3062e-05
4.65186e-05
5.27882e-05
5.97057e-05
2.16239e-05
2.16205e-05
2.16194e-05
2.1616e-05
6.03027e-05
3.65245e-05
4.20878e-05
4.11576e-05
4.7638e-05
4.11859e-05
4.70331e-05
3.65102e-05
2.02766e-05
5.61809e-05
4.92776e-05
2.02737e-05
5.66858e-05
3.65561e-05
4.19709e-05
4.12673e-05
4.61936e-05
4.12373e-05
3.65717e-05
4.67957e-05
2.02761e-05
5.72872e-05
4.92805e-05
5.68059e-05
2.02788e-05
3.64701e-05
4.11084e-05
4.78762e-05
4.33408e-05
3.64834e-05
4.1082e-05
4.84762e-05
2.02815e-05
4.9306e-05
5.84136e-05
2.02837e-05
5.79872e-05
2.02822e-05
5.7423e-05
4.93029e-05
2.02797e-05
5.78715e-05
3.64432e-05
4.34733e-05
4.10096e-05
4.93242e-05
3.64312e-05
4.10343e-05
4.8712e-05
2.02802e-05
4.9302e-05
5.84021e-05
5.79637e-05
2.02825e-05
3.6468e-05
4.1108e-05
4.78685e-05
4.33349e-05
3.6481e-05
4.10816e-05
4.84712e-05
2.02809e-05
4.92985e-05
5.73989e-05
2.02781e-05
5.78575e-05
3.64411e-05
4.93222e-05
4.34777e-05
4.10093e-05
4.1034e-05
4.87113e-05
3.6429e-05
5.8389e-05
2.16127e-05
2.16154e-05
2.16096e-05
2.16127e-05
5.87266e-05
5.22781e-05
4.65107e-05
4.73264e-05
5.25948e-05
4.65069e-05
5.25353e-05
5.25291e-05
5.21351e-05
4.65195e-05
4.73324e-05
5.26445e-05
5.24526e-05
4.65168e-05
5.25039e-05
2.38173e-05
2.37947e-05
2.38021e-05
6.00007e-05
2.16202e-05
2.16192e-05
6.01211e-05
2.16192e-05
2.16188e-05
5.38798e-05
4.65282e-05
5.31082e-05
4.84732e-05
5.42274e-05
4.65224e-05
5.28632e-05
5.98224e-05
2.16149e-05
2.1617e-05
5.92602e-05
2.16195e-05
2.16205e-05
5.34012e-05
4.83123e-05
4.65149e-05
5.26973e-05
5.27866e-05
5.30497e-05
4.65259e-05
5.35632e-05
4.8316e-05
4.65209e-05
5.25828e-05
5.28537e-05
4.65233e-05
5.2911e-05
2.37939e-05
2.38021e-05
3.6524e-05
4.20817e-05
4.11564e-05
4.76426e-05
4.11843e-05
4.70245e-05
3.65096e-05
2.02768e-05
5.61815e-05
4.92744e-05
2.0274e-05
5.66783e-05
3.65555e-05
4.19726e-05
4.12658e-05
4.61936e-05
4.12362e-05
3.65711e-05
4.67906e-05
2.02763e-05
5.72824e-05
4.92773e-05
5.68048e-05
2.0279e-05
3.64691e-05
4.78821e-05
4.1107e-05
4.33342e-05
3.64823e-05
4.84727e-05
4.10807e-05
2.02812e-05
4.93005e-05
5.84131e-05
2.02834e-05
5.79863e-05
2.02819e-05
5.74198e-05
4.92976e-05
2.02795e-05
5.78701e-05
3.64422e-05
4.3471e-05
4.93148e-05
4.10083e-05
3.64302e-05
4.87134e-05
4.1033e-05
3.64672e-05
4.11065e-05
4.78736e-05
4.33394e-05
3.64804e-05
4.10804e-05
4.8471e-05
2.02801e-05
4.92969e-05
5.83937e-05
5.79661e-05
2.02824e-05
2.02808e-05
5.74027e-05
4.9294e-05
2.02784e-05
5.78521e-05
3.64402e-05
4.3466e-05
4.10081e-05
4.93202e-05
4.10325e-05
4.87022e-05
3.64282e-05
3.65263e-05
4.20855e-05
4.76376e-05
4.11566e-05
4.70385e-05
4.11849e-05
3.65119e-05
2.02775e-05
5.73047e-05
4.92826e-05
5.68222e-05
2.02802e-05
3.65245e-05
4.2085e-05
4.1157e-05
4.76339e-05
4.11853e-05
4.70311e-05
3.65101e-05
2.02763e-05
5.72835e-05
4.92792e-05
5.68072e-05
2.02789e-05
3.64426e-05
4.93237e-05
4.10083e-05
4.34786e-05
3.64304e-05
4.87195e-05
4.1033e-05
2.02814e-05
5.84188e-05
4.9301e-05
2.02834e-05
5.79811e-05
3.64695e-05
4.33365e-05
4.78694e-05
4.11071e-05
3.64827e-05
4.84747e-05
4.10806e-05
2.02821e-05
4.92983e-05
5.74143e-05
2.02796e-05
5.78723e-05
2.028e-05
5.83955e-05
4.92984e-05
2.02823e-05
5.79678e-05
3.64678e-05
4.33349e-05
4.11075e-05
4.78791e-05
3.64809e-05
4.10809e-05
4.84675e-05
2.02807e-05
4.92958e-05
5.74042e-05
2.02783e-05
5.78533e-05
5.85004e-05
2.16127e-05
2.16161e-05
2.16106e-05
2.1614e-05
5.88021e-05
5.19813e-05
5.23925e-05
4.65026e-05
4.71728e-05
4.65054e-05
5.15161e-05
5.2448e-05
5.19577e-05
5.24015e-05
4.6515e-05
4.71758e-05
5.24575e-05
5.14906e-05
4.65177e-05
5.84051e-05
2.16085e-05
2.16118e-05
2.16113e-05
5.79584e-05
2.16147e-05
5.22398e-05
4.65103e-05
4.73388e-05
5.2596e-05
4.65067e-05
5.25271e-05
5.26024e-05
5.22054e-05
4.65226e-05
4.73434e-05
5.26035e-05
5.25403e-05
4.65191e-05
5.25782e-05
2.3826e-05
2.38168e-05
2.37924e-05
2.38002e-05
5.97508e-05
2.16137e-05
2.16171e-05
5.91692e-05
2.16179e-05
2.16213e-05
5.38512e-05
5.30469e-05
4.84684e-05
4.65301e-05
5.28987e-05
4.65227e-05
5.42346e-05
5.38144e-05
5.3042e-05
4.84733e-05
4.65422e-05
4.65349e-05
5.29104e-05
5.42044e-05
5.34872e-05
4.65128e-05
5.26669e-05
4.83034e-05
5.28135e-05
5.29314e-05
4.65192e-05
5.34646e-05
4.65251e-05
5.26859e-05
4.83081e-05
5.29018e-05
4.65314e-05
5.28028e-05
5.99887e-05
2.16187e-05
2.16221e-05
2.16175e-05
2.1621e-05
6.01983e-05
2.37943e-05
2.38021e-05
3.65263e-05
4.20829e-05
4.76382e-05
4.11566e-05
4.70295e-05
4.11848e-05
3.65119e-05
2.0278e-05
5.6197e-05
4.92789e-05
5.67065e-05
2.02751e-05
3.65578e-05
4.19664e-05
4.62017e-05
4.12663e-05
4.6801e-05
3.65734e-05
4.12363e-05
2.02775e-05
5.73037e-05
4.92817e-05
5.68204e-05
2.02802e-05
3.65238e-05
4.20834e-05
4.76332e-05
4.1156e-05
4.70297e-05
4.11843e-05
3.65095e-05
2.02767e-05
5.61836e-05
4.92743e-05
2.02739e-05
5.66809e-05
3.65554e-05
4.19649e-05
4.62021e-05
4.12657e-05
3.6571e-05
4.67891e-05
4.12357e-05
2.02762e-05
5.72824e-05
4.92772e-05
5.68073e-05
2.02789e-05
3.64695e-05
4.78748e-05
4.1107e-05
4.33359e-05
3.64827e-05
4.84781e-05
4.10806e-05
2.02816e-05
4.93016e-05
5.84217e-05
5.79825e-05
2.0284e-05
2.02821e-05
5.7414e-05
4.92987e-05
2.02796e-05
5.78747e-05
3.64428e-05
4.34735e-05
4.93226e-05
4.10083e-05
4.87133e-05
4.10329e-05
3.64308e-05
3.64671e-05
4.78787e-05
4.11064e-05
4.33344e-05
3.64803e-05
4.84683e-05
4.108e-05
2.028e-05
4.92974e-05
5.83945e-05
5.79673e-05
2.02823e-05
2.02807e-05
5.74031e-05
4.92943e-05
2.02783e-05
5.78524e-05
3.64401e-05
4.34724e-05
4.93119e-05
4.10077e-05
4.87097e-05
4.10324e-05
3.64281e-05
2.38256e-05
2.38164e-05
2.38242e-05
2.38151e-05
5.37203e-05
5.30047e-05
4.84544e-05
4.65359e-05
5.4104e-05
5.28977e-05
4.65292e-05
5.97049e-05
2.1618e-05
2.16151e-05
5.93987e-05
2.16198e-05
2.16172e-05
5.37231e-05
5.30053e-05
4.84525e-05
4.65336e-05
5.40631e-05
5.28935e-05
4.65266e-05
5.33986e-05
4.8305e-05
4.65237e-05
5.27045e-05
5.30918e-05
5.27891e-05
4.65286e-05
5.3565e-05
4.65133e-05
5.26895e-05
4.83073e-05
5.30791e-05
5.28405e-05
4.65209e-05
5.97591e-05
2.16209e-05
2.1619e-05
6.00693e-05
2.16186e-05
2.16167e-05
2.38017e-05
2.37931e-05
2.38006e-05
2.37838e-05
2.3777e-05
2.3781e-05
2.37742e-05
6.09566e-05
2.16255e-05
2.16221e-05
2.16237e-05
2.16203e-05
6.11862e-05
5.50503e-05
5.31525e-05
4.65464e-05
4.94031e-05
5.45978e-05
4.65557e-05
5.33399e-05
5.50611e-05
5.31483e-05
4.65342e-05
4.93993e-05
5.46376e-05
4.65435e-05
5.33294e-05
6.09231e-05
2.16241e-05
2.16207e-05
6.06919e-05
2.16249e-05
2.16215e-05
5.52168e-05
4.65691e-05
4.95431e-05
5.35869e-05
4.65599e-05
5.55914e-05
5.33974e-05
5.52486e-05
4.6557e-05
4.95394e-05
5.35848e-05
4.65477e-05
5.56269e-05
5.33904e-05
2.02836e-05
4.93192e-05
5.85058e-05
2.02815e-05
5.89231e-05
2.02825e-05
4.93221e-05
5.94173e-05
5.90223e-05
2.02844e-05
3.63708e-05
5.09998e-05
4.49643e-05
4.08759e-05
4.08973e-05
5.03951e-05
3.63609e-05
3.63934e-05
4.95609e-05
4.48054e-05
4.09637e-05
4.09407e-05
3.64044e-05
5.01584e-05
2.02847e-05
4.93387e-05
5.95136e-05
2.02831e-05
5.98913e-05
3.63314e-05
5.12446e-05
4.63665e-05
4.08347e-05
3.63403e-05
4.08149e-05
5.18392e-05
3.63699e-05
4.49537e-05
4.08747e-05
5.09957e-05
4.08958e-05
5.03892e-05
3.636e-05
2.02835e-05
5.85053e-05
4.9314e-05
2.02815e-05
5.89166e-05
3.63925e-05
4.48154e-05
4.09622e-05
4.95633e-05
4.09395e-05
3.64035e-05
5.01641e-05
2.02825e-05
5.94129e-05
4.93169e-05
5.9024e-05
2.02843e-05
3.63326e-05
4.63692e-05
5.12466e-05
4.08337e-05
3.63414e-05
5.18414e-05
4.08139e-05
3.63306e-05
4.63781e-05
4.08333e-05
5.12403e-05
3.63395e-05
4.08136e-05
5.1846e-05
2.02847e-05
5.9515e-05
4.93335e-05
2.02831e-05
5.98848e-05
6.11666e-05
2.16233e-05
2.16267e-05
2.16217e-05
2.16252e-05
6.15111e-05
5.49074e-05
5.30937e-05
4.65338e-05
4.93892e-05
4.65426e-05
5.44396e-05
5.32972e-05
5.48841e-05
5.31137e-05
4.6546e-05
4.9394e-05
5.3296e-05
5.4404e-05
4.65546e-05
6.07971e-05
2.16183e-05
2.16218e-05
2.16213e-05
6.03089e-05
2.16247e-05
5.53198e-05
4.65584e-05
4.95488e-05
5.36645e-05
4.65476e-05
5.33991e-05
5.58499e-05
5.52828e-05
4.65704e-05
4.9554e-05
5.36537e-05
5.34132e-05
4.65597e-05
5.58174e-05
2.37819e-05
2.37753e-05
2.37628e-05
6.17818e-05
2.16221e-05
2.16255e-05
6.15771e-05
2.16234e-05
2.16269e-05
5.64147e-05
4.65634e-05
5.37123e-05
5.0433e-05
5.39382e-05
5.60686e-05
4.65741e-05
5.63874e-05
4.65754e-05
5.37226e-05
5.04376e-05
5.60259e-05
4.6586e-05
5.39342e-05
2.37647e-05
3.63723e-05
4.49652e-05
5.10037e-05
4.08749e-05
5.03982e-05
4.08962e-05
3.63624e-05
2.02851e-05
5.85225e-05
4.93186e-05
5.89426e-05
2.0283e-05
3.63951e-05
4.48095e-05
4.95629e-05
4.09626e-05
5.01684e-05
3.6406e-05
4.09397e-05
2.02837e-05
5.9438e-05
4.93215e-05
5.90357e-05
2.02856e-05
3.63698e-05
4.49647e-05
5.09913e-05
4.08743e-05
5.03993e-05
4.08956e-05
3.63599e-05
2.02834e-05
5.8507e-05
4.93141e-05
2.02814e-05
5.89172e-05
3.63925e-05
4.48096e-05
4.95658e-05
4.09621e-05
3.64034e-05
5.01602e-05
4.09391e-05
2.02824e-05
5.94138e-05
4.9317e-05
5.90256e-05
2.02842e-05
2.0286e-05
5.95278e-05
4.93382e-05
2.02843e-05
5.99132e-05
2.37816e-05
2.37803e-05
2.37735e-05
5.64176e-05
5.36952e-05
5.04435e-05
4.65738e-05
5.39402e-05
5.59301e-05
4.65851e-05
6.19259e-05
2.16247e-05
2.16215e-05
6.14265e-05
2.16274e-05
2.16242e-05
5.64064e-05
5.36551e-05
4.65623e-05
5.04405e-05
5.59131e-05
5.39229e-05
4.65737e-05
2.37631e-05
0.00020209
0.000186403
0.000202084
0.000202965
0.000202972
0.000215206
0.0002146
5.7726e-05
0.000112979
8.14083e-05
8.13945e-05
5.7733e-05
0.000107493
7.79909e-05
7.79786e-05
7.77705e-05
5.76763e-05
7.7753e-05
5.76167e-05
0.000109212
7.86231e-05
7.86082e-05
7.88707e-05
7.88542e-05
5.7647e-05
7.6165e-05
6.37148e-05
4.80256e-05
4.973e-05
4.96172e-05
6.38153e-05
7.58674e-05
5.772e-05
8.18069e-05
8.18253e-05
0.000112986
8.14113e-05
5.77282e-05
8.13936e-05
5.76327e-05
0.000109204
7.86072e-05
7.86247e-05
7.88508e-05
7.88679e-05
5.76715e-05
5.76347e-05
7.8602e-05
0.000109198
7.86229e-05
5.76603e-05
7.88115e-05
7.89113e-05
5.77498e-05
7.79977e-05
7.79811e-05
0.000107507
5.76877e-05
7.77764e-05
7.77614e-05
7.50113e-05
6.34106e-05
4.86698e-05
4.99461e-05
6.33209e-05
7.52691e-05
5.00683e-05
7.34669e-05
6.27231e-05
4.96665e-05
5.06883e-05
6.26608e-05
7.36182e-05
5.08266e-05
5.77355e-05
7.79832e-05
7.80001e-05
0.000107502
7.77756e-05
5.76937e-05
7.77582e-05
5.80287e-05
7.63743e-05
0.000104919
7.63562e-05
7.61765e-05
5.79568e-05
7.61569e-05
8.92737e-05
9.65054e-05
5.38844e-05
5.62639e-05
5.38854e-05
9.59002e-05
8.98251e-05
7.49992e-05
6.33892e-05
4.99502e-05
4.86652e-05
6.32989e-05
5.0072e-05
7.52566e-05
8.87074e-05
5.6084e-05
9.47827e-05
5.38575e-05
5.38428e-05
9.53967e-05
8.82037e-05
7.4409e-05
4.89829e-05
6.29532e-05
5.04377e-05
6.30281e-05
5.03077e-05
7.42029e-05
5.7734e-05
7.80345e-05
7.79521e-05
0.000107508
7.77257e-05
5.76938e-05
7.78115e-05
5.77923e-05
0.000106694
7.69725e-05
7.69202e-05
7.71614e-05
5.78677e-05
7.71456e-05
5.80493e-05
7.6404e-05
0.000104933
7.63412e-05
5.7977e-05
7.61418e-05
7.62111e-05
8.92739e-05
9.65044e-05
5.38836e-05
5.62644e-05
9.58999e-05
5.38851e-05
8.9826e-05
7.44101e-05
6.29611e-05
4.89844e-05
5.04341e-05
5.03036e-05
7.42049e-05
6.30365e-05
7.50028e-05
4.99449e-05
6.33988e-05
4.86663e-05
5.00672e-05
6.33109e-05
7.52603e-05
8.87075e-05
5.60846e-05
9.47815e-05
5.38572e-05
9.5395e-05
5.38422e-05
8.82029e-05
8.71677e-05
9.43089e-05
5.38446e-05
5.58442e-05
8.7623e-05
5.38736e-05
9.36961e-05
7.34557e-05
6.27098e-05
5.06919e-05
4.96622e-05
7.36077e-05
6.26464e-05
5.083e-05
7.34585e-05
6.27127e-05
4.96627e-05
5.06878e-05
7.3611e-05
5.08254e-05
6.26504e-05
8.71665e-05
9.43076e-05
5.38435e-05
5.58442e-05
8.76232e-05
9.36946e-05
5.38727e-05
0.00018527
0.0001864
0.000202086
0.000202963
0.00020297
0.000215204
0.000214596
0.000204731
0.000204737
0.000187541
0.000203848
0.000203854
0.000215806
0.000216399
0.00020473
0.000204736
0.000187543
0.000203849
0.000203855
0.000215806
0.000216399
0.000204727
0.000204732
0.000187536
0.000203845
0.000203851
0.000215803
0.000216396
0.000204726
0.000204733
0.000187536
0.000203845
0.000203852
0.000215803
0.000216396
0.000186408
0.000202083
0.000202089
0.000202968
0.000202974
0.000215207
0.000214599
0.000186401
0.000202079
0.000202086
0.000202963
0.00020297
0.000215204
0.000214596
9.3385e-05
5.73081e-05
5.42431e-05
9.94233e-05
5.4287e-05
9.99654e-05
9.2706e-05
7.80998e-05
4.91525e-05
4.71216e-05
6.46214e-05
6.47506e-05
4.90592e-05
7.77132e-05
9.3382e-05
5.73072e-05
9.94204e-05
5.42428e-05
9.99622e-05
5.42862e-05
9.2704e-05
7.87052e-05
6.52872e-05
4.88302e-05
4.68447e-05
7.91414e-05
6.51445e-05
4.89124e-05
9.39279e-05
5.76014e-05
0.000101163
5.4515e-05
9.46168e-05
0.000100644
5.44562e-05
7.8098e-05
4.91516e-05
4.71212e-05
6.46223e-05
6.47513e-05
4.90584e-05
7.77109e-05
5.76432e-05
0.000111817
8.04239e-05
8.041e-05
8.07906e-05
8.0778e-05
5.76405e-05
0.00020031
0.000184146
0.000183027
0.000201203
0.000200318
0.000213361
0.000213983
0.000201201
0.000201207
0.000183032
0.000200314
0.00020032
0.000213363
0.000213986
0.000201195
0.000201203
0.000183025
0.00020031
0.000200317
0.000213361
0.000213983
8.87084e-05
5.60839e-05
9.47816e-05
5.38584e-05
9.53961e-05
5.3843e-05
8.82046e-05
7.50064e-05
6.34028e-05
4.99492e-05
4.86666e-05
7.52638e-05
6.33135e-05
5.00714e-05
8.92754e-05
5.62638e-05
9.65055e-05
5.38847e-05
8.98274e-05
9.58994e-05
5.38863e-05
7.44129e-05
5.04375e-05
4.89841e-05
6.29635e-05
6.30383e-05