/*--------------------------------*- C++ -*----------------------------------*\
| =========                 |                                                 |
| \\      /  F ield         | OpenFOAM: The Open Source CFD Toolbox           |
|  \\    /   O peration     | Version:  v2006                                 |
|   \\  /    A nd           | Website:  www.openfoam.com                      |
|    \\/     M anipulation  |                                                 |
\*---------------------------------------------------------------------------*/
FoamFile
{
    version     2.0;
    format      ascii;
    class       surfaceScalarField;
    location    "375";
    object      phi;
}
// * * * * * * * * * * * * * * * * * * * * * * * * * * * * * * * * * * * * * //

dimensions      [0 3 -1 0 0 0 0];
oriented        oriented;


internalField   nonuniform List<scalar> 
41099
(
4.39741e-08
2.39435e-09
9.89997e-05
-9.90461e-05
4.39768e-08
2.34644e-09
9.89884e-05
-9.90347e-05
1.55175e-06
1.51156e-06
0.000274317
-4.92925e-07
-5.01202e-07
-0.000276387
4.13294e-08
-6.4405e-09
1.50955e-07
0.000284538
-0.000284679
4.12443e-08
-5.79256e-09
1.53185e-07
0.000284457
-0.000284601
1.19643e-10
2.1955e-07
-6.85279e-08
-9.20485e-09
0.000236513
-0.000236655
1.11886e-07
-8.97397e-09
0.00019712
-0.00019722
2.19533e-07
-6.85173e-08
-9.14864e-09
0.000236471
-0.000236613
9.48358e-10
-2.18083e-08
5.22352e-07
0.000260419
-0.000260701
4.21679e-07
8.55336e-07
1.16e-06
-5.08558e-07
1.29248e-07
7.25963e-07
-5.46743e-07
5.28727e-08
-1.25339e-06
-0.00113537
4.59318e-08
3.26052e-07
0.00025303
-0.000253249
3.56828e-09
8.98727e-07
7.87034e-07
-1.19264e-06
-1.36255e-06
5.88156e-07
-0.00113711
-2.28608e-08
5.19615e-07
0.000260393
-0.000260669
8.98642e-07
7.86904e-07
-1.1954e-06
-1.365e-06
5.88147e-07
-0.00113708
-4.2098e-07
2.22077e-07
2.09777e-10
-9.19104e-09
-6.63997e-08
0.000236504
-0.000236651
1.11867e-07
-9.0433e-09
0.000197099
-0.000197199
1.94258e-09
-2.25961e-08
5.19547e-07
0.000260413
-0.00026069
4.20278e-07
8.55608e-07
1.11959e-06
-5.0023e-07
1.20884e-07
7.20582e-07
-5.43884e-07
5.02747e-08
-1.24761e-06
-0.00113637
4.34329e-08
3.25937e-07
0.000252995
-0.000253211
3.99998e-09
8.98286e-07
7.84005e-07
-1.19255e-06
-1.36239e-06
5.82577e-07
-0.00113698
2.19487e-07
-6.84607e-08
-9.1963e-09
0.000236467
-0.000236608
1.11731e-07
-2.0131e-09
-9.20273e-09
0.000197047
-0.000197147
5.16817e-07
-2.2525e-08
0.000260388
-0.00026066
4.21583e-07
-1.54945e-06
8.49633e-07
7.23503e-07
-5.46366e-07
-1.25014e-06
5.29266e-08
1.15719e-06
-5.06317e-07
1.26419e-07
-0.00113539
8.92844e-07
7.84242e-07
-1.19254e-06
-1.36222e-06
5.82667e-07
-0.00113694
-4.3153e-08
4.32876e-08
3.28171e-07
0.000252927
-0.000253143
-1.54384e-06
8.5527e-07
-5.46205e-07
5.31526e-08
1.15122e-06
-5.06783e-07
1.25861e-07
-0.00113506
-1.24735e-06
-1.11666e-07
-4.29468e-08
3.27994e-07
0.000252966
-0.000253182
4.32399e-08
-1.92888e-09
0.000197056
-0.000197156
-9.24092e-09
4.42217e-08
9.89771e-05
-9.90233e-05
1.51167e-06
0.000274298
-4.96494e-07
-5.01329e-07
-0.000276361
-6.08975e-09
1.5154e-07
0.000284418
-0.000284562
-4.42869e-08
4.31556e-08
-5.46692e-09
1.53904e-07
0.00028454
-0.000284687
2.07327e-09
9.89925e-05
-9.90389e-05
8.66172e-10
-2.19607e-07
5.19572e-07
-2.18157e-08
0.000260411
-0.00026069
4.20592e-07
8.55432e-07
1.1192e-06
-5.034e-07
1.23807e-07
7.20771e-07
-5.43678e-07
-1.24457e-06
5.30414e-08
-0.00113587
2.66338e-09
8.98164e-07
7.81308e-07
-1.18975e-06
-1.35955e-06
5.82575e-07
-0.00113677
-1.11775e-07
4.33395e-08
3.28226e-07
0.000253029
-0.000253246
-2.1959e-07
5.19553e-07
-2.32198e-08
0.000260383
-0.000260659
4.2057e-07
-1.50098e-06
8.55581e-07
7.20951e-07
-5.46033e-07
-1.24694e-06
5.34747e-08
1.10797e-06
-4.98487e-07
1.17515e-07
-0.00113605
8.9811e-07
7.78338e-07
-1.18691e-06
-1.35647e-06
5.79747e-07
-0.00113671
-1.11603e-07
-4.04573e-08
4.32692e-08
3.27814e-07
0.00025293
-0.000253149
7.52753e-11
-8.98246e-09
-6.64253e-08
0.000236504
-0.000236649
-9.16648e-09
0.000197103
-0.000197203
-9.2145e-09
-6.64283e-08
0.000236466
-0.00023661
-1.89044e-09
-9.22934e-09
0.000197048
-0.000197148
0.000274289
-4.93655e-07
-5.04536e-07
-0.000276336
-4.4387e-08
-4.88616e-09
1.53796e-07
0.000284502
-0.00028465
-4.44121e-08
-4.80022e-09
1.53717e-07
0.000284417
-0.000284562
9.89838e-05
-9.90301e-05
9.89775e-05
-9.90238e-05
1.92086e-08
-8.79999e-09
1.92249e-08
-8.85138e-09
-0.000218115
-1.46133e-08
-1.46675e-08
4.56557e-08
4.77675e-08
2.92696e-08
8.1696e-05
1.00987e-08
-8.17354e-05
2.9304e-08
8.16775e-05
1.00571e-08
-8.17168e-05
7.83141e-08
7.62223e-08
-0.000218211
-3.27814e-09
-3.28243e-09
-0.000227917
-4.98271e-08
7.16867e-08
7.14542e-08
9.46359e-08
0.000186387
-0.000186478
-1.24207e-07
0.000259038
2.76849e-07
1.576e-07
-0.000259197
1.37877e-08
7.46903e-08
8.73381e-09
1.80097e-07
-0.000228049
9.3645e-08
8.58479e-08
-0.000227843
-4.78974e-08
7.14045e-08
6.95348e-08
9.66456e-08
0.000186324
-0.000186416
-1.23882e-07
0.00025892
2.76427e-07
1.54764e-07
-0.000259074
1.33136e-08
7.23195e-08
8.69678e-09
1.82642e-07
-0.000227976
9.36625e-08
8.83023e-08
-0.000145157
4.22239e-09
2.1667e-08
-5.38182e-09
-2.1894e-09
0.000173226
4.76413e-11
-0.000173292
-6.00641e-08
0.000229459
-1.24887e-08
1.98735e-07
-0.000229594
-2.55552e-08
-8.08653e-09
1.12758e-10
1.06137e-07
-4.61054e-09
-0.000145214
2.90227e-11
-9.86518e-09
8.18366e-08
-8.00963e-05
-1.53368e-09
-3.54106e-08
0.000268843
1.56851e-07
-0.000268986
-3.44979e-09
3.88431e-08
-8.01363e-05
5.23186e-08
-0.000145084
4.17523e-09
2.1672e-08
-5.36325e-09
-2.10819e-09
0.000173191
-0.000173257
-6.00501e-08
0.000229362
1.96191e-07
-0.000229495
-1.23877e-08
-2.55608e-08
-8.19292e-09
1.06134e-07
-0.000145142
-4.53572e-09
8.42876e-08
-9.78495e-09
-0.000145154
2.16855e-08
4.08594e-09
-5.45643e-09
-6.0093e-08
0.000229454
-1.24384e-08
1.98759e-07
-0.000229589
-2.19699e-09
0.000173223
2.19472e-11
-0.000173287
-7.79453e-09
-2.77246e-08
-4.50705e-11
1.06102e-07
-4.65474e-09
-0.000145211
-9.89756e-09
8.18503e-08
1.6379e-11
-8.00958e-05
-1.58502e-09
-3.53865e-08
0.000268839
1.54361e-07
-0.00026898
-3.48432e-09
3.88069e-08
-8.01359e-05
5.46078e-08
-0.000145079
4.20358e-09
1.96125e-08
-5.40517e-09
-2.20206e-09
0.000173186
-0.000173252
-6.20364e-08
0.000229357
-1.25024e-08
1.98481e-07
-0.00022949
-2.56559e-08
-8.26452e-09
1.08633e-07
-4.58238e-09
-0.000145139
-9.82853e-09
8.18185e-08
-8.00505e-05
-1.50457e-09
-3.54105e-08
0.000268712
1.56586e-07
-0.000268855
-3.615e-09
8.96392e-09
3.89284e-08
-8.00905e-05
5.22383e-08
9.17446e-09
3.87987e-08
1.94306e-08
-0.00021811
-1.45094e-08
-1.46206e-08
4.57316e-08
4.77596e-08
2.92721e-08
8.16772e-05
1.00018e-08
-8.17165e-05
2.93798e-08
8.16942e-05
9.87043e-09
-8.17334e-05
7.85504e-08
7.61737e-08
-0.000218206
-3.31792e-09
-3.39079e-09
7.15698e-08
-0.000227833
-4.9693e-08
7.36832e-08
9.49031e-08
0.000186324
-0.000186415
0.000258875
-1.24441e-07
1.58439e-07
2.74829e-07
-0.000259033
7.52278e-08
1.36253e-08
6.0918e-09
8.60746e-08
9.68582e-08
1.78213e-07
-0.000227962
-0.000227915
-4.77056e-08
7.16087e-08
6.90727e-08
9.69065e-08
0.000186387
-0.000186479
-1.24377e-07
0.000259047
2.7762e-07
1.61027e-07
-0.000259207
1.31825e-08
7.27966e-08
-1.93208e-08
6.04628e-09
1.82584e-07
-0.000228049
9.41404e-08
8.33972e-08
-8.97339e-09
-0.000145154
1.96661e-08
4.25455e-09
-5.26757e-09
-6.20752e-08
0.00022946
-1.25497e-08
1.98573e-07
-0.000229593
-2.22874e-09
0.000173223
4.903e-12
-0.000173287
-8.34429e-09
-2.77445e-08
5.8916e-11
1.0614e-07
-4.84101e-09
-0.000145213
-9.89518e-09
8.19324e-08
-3.50174e-12
-8.00955e-05
-3.66226e-09
-3.75014e-08
0.00026885
1.5651e-07
-0.000268991
-3.5676e-09
3.89045e-08
-8.01378e-05
5.23554e-08
-0.00014508
2.16381e-08
4.26054e-09
-5.45297e-09
-6.00332e-08
0.00022936
-1.25144e-08
1.96112e-07
-0.000229493
-2.23091e-09
0.000173186
-0.00017325
-8.33139e-09
-2.77116e-08
1.06086e-07
-4.66808e-09
-0.000145138
-9.94859e-09
8.41871e-08
-8.00502e-05
-1.60587e-09
-3.53463e-08
0.000268718
1.54031e-07
-0.000268858
-3.66267e-09
9.21523e-09
3.87346e-08
-8.00902e-05
5.44248e-08
-0.000218109
-1.27986e-08
-1.46875e-08
4.56287e-08
4.56712e-08
3.14414e-08
8.1692e-05
9.49004e-09
-8.17329e-05
2.96061e-08
8.16772e-05
9.49391e-09
-8.17163e-05
7.88115e-08
7.87506e-08
-0.000218206
-3.39021e-09
-3.4513e-09
-0.000227905
7.18903e-08
-4.60297e-08
6.94712e-08
9.91069e-08
0.000186379
-0.000186473
-1.24877e-07
0.000259
1.61628e-07
2.77724e-07
-0.000259161
7.3066e-08
1.33941e-08
-1.95093e-08
5.76724e-09
1.83288e-07
-0.000228035
8.40234e-08
9.45936e-08
-0.000227833
7.15549e-08
-4.80933e-08
7.20488e-08
9.71866e-08
0.000186322
-0.000186414
-1.24641e-07
0.000258883
1.56256e-07
2.74787e-07
-0.000259036
7.30922e-08
1.35777e-08
-1.95263e-08
7.99121e-09
1.81336e-07
-0.000227963
8.91432e-08
9.71258e-08
4.51618e-07
4.52269e-07
-0.00114469
4.67241e-07
-1.78131e-10
-0.00115092
4.67434e-07
1.72031e-09
-0.00115137
-1.13604e-09
1.95189e-09
-0.00115955
4.67182e-07
-0.00115086
-4.51326e-07
2.04508e-09
-0.00115952
-4.67344e-07
4.51601e-07
4.52169e-07
-0.00114431
4.67012e-07
-0.00115057
4.67256e-07
-1.13723e-09
-0.00115102
-1.51078e-09
-0.00115896
4.52292e-07
-0.00114433
4.51589e-07
4.67292e-07
-0.00115097
-0.00115893
-4.66946e-07
-0.000250721
5.1065e-09
8.06955e-09
8.40297e-08
9.17642e-08
-3.31772e-07
0.000268648
-0.000269041
-3.29582e-07
0.000269082
-0.000269478
-0.00025102
-0.000273534
2.42103e-08
4.67218e-08
-8.77069e-08
5.13253e-07
0.000259196
-3.73796e-08
-0.000259494
-4.38177e-08
0.000273361
1.37143e-11
-0.000273987
-2.04098e-08
1.31769e-08
4.75162e-10
-8.69498e-08
-0.00027434
-3.05874e-08
2.6746e-09
-9.99191e-08
-0.000272906
4.17049e-08
4.5351e-07
0.000259592
-0.00025988
0.000269291
1.23229e-07
-0.000269477
1.35982e-08
2.20791e-08
-0.000273669
-0.000273469
2.42328e-08
4.56225e-08
-8.49885e-08
5.13041e-07
0.000259108
-0.00025941
-3.75099e-08
-4.69179e-08
0.000273347
-0.000273976
-2.07443e-08
1.61341e-08
-0.000274278
-8.96751e-08
-3.06477e-08
-0.000273529
2.67165e-08
4.26641e-08
-7.43415e-08
5.15848e-07
0.000259186
-3.74399e-08
-0.000259488
-4.73806e-08
0.000273357
7.62173e-09
-0.000273991
-1.96298e-08
1.59959e-08
-4.40259e-10
-1.00063e-07
-0.000274323
-3.06231e-08
-4.80136e-09
-9.97359e-08
-0.000272915
4.44777e-08
4.55969e-07
0.000259574
-0.00025987
0.000269277
1.23064e-07
-0.000269463
1.34497e-08
2.46093e-08
-0.000273684
-0.000273465
4.72785e-08
2.43729e-08
-8.79843e-08
-4.55209e-08
0.000273339
-0.000273961
5.12881e-07
0.000259105
-3.74173e-08
-0.000259404
1.8903e-08
-2.11624e-08
-8.70318e-08
-0.000274273
-3.0763e-08
-0.000272827
4.70669e-08
-1.02881e-07
4.58169e-07
0.000259476
-0.000259772
1.211e-07
0.000269199
-0.00026938
2.45912e-08
1.09012e-08
-0.000273585
0.000269237
-0.000269413
1.18662e-07
1.06298e-08
5.02003e-09
-0.000250708
7.80901e-09
8.63461e-08
9.13169e-08
0.000269027
-3.32533e-07
-0.000269422
-3.29481e-07
0.000268663
-0.000269061
-0.000251009
-0.000273525
4.51981e-08
2.66845e-08
-7.7316e-08
-4.51349e-08
0.000273346
-7.66062e-10
-0.000273971
5.15638e-07
0.000259192
-3.99692e-08
-0.000259491
1.60437e-08
-2.0539e-08
5.66398e-10
-9.77421e-08
-0.000274316
3.51294e-09
-2.83279e-08
-0.000272917
-1.00195e-07
4.69859e-08
4.58123e-07
0.000259588
-0.000259886
1.23752e-07
0.00026931
-0.000269489
1.08766e-08
2.4578e-08
-0.000273678
-0.000273463
4.38871e-08
2.4285e-08
-6.95149e-08
-4.92208e-08
0.000273339
-0.000273958
5.12928e-07
0.000259103
-3.98646e-08
-0.000259403
1.60104e-08
-2.04857e-08
-1.0565e-07
-0.00027425
-2.83117e-08
-0.000272841
4.48619e-08
-1.00575e-07
4.55313e-07
0.000259485
-0.000259783
1.23908e-07
0.000269216
-0.000269402
2.44679e-08
1.04064e-08
-0.000273614
-0.000250697
5.69072e-09
8.6623e-09
8.32501e-08
9.36099e-08
-3.32974e-07
0.000268613
-0.000269002
-3.30653e-07
0.000269042
-0.000269439
-0.000250996
-1.53106e-06
4.99361e-07
-5.7227e-07
1.03638e-06
6.37898e-08
6.30459e-07
-6.77514e-07
-1.34383e-06
-2.50364e-08
1.03471e-06
0.00111282
-0.000272617
1.55975e-06
-5.7416e-07
-5.77435e-07
1.52293e-06
0.000270686
1.05895e-06
0.00111107
1.03992e-06
5.08868e-07
-1.55998e-06
6.13949e-08
-5.73678e-07
-1.34269e-06
-2.52351e-08
-6.80629e-07
6.26759e-07
1.02173e-06
1.04063e-06
5.29646e-07
-1.52332e-06
5.85988e-08
-5.71116e-07
-1.34526e-06
-2.26724e-08
-6.83293e-07
6.29602e-07
0.00111203
-0.000270516
-1.30884e-08
-7.07445e-09
-5.75142e-07
-5.80565e-07
0.000270714
1.56842e-06
5.05809e-07
-5.70924e-07
6.32741e-07
-6.80351e-07
-2.05645e-08
-1.344e-06
1.03945e-06
0.00111193
1.0678e-06
6.89061e-08
5.16958e-07
5.60942e-07
0.00111347
9.95239e-08
0.000101961
-1.01556e-08
-1.03718e-07
-2.49251e-07
4.91808e-07
1.20195e-07
0.000261587
-0.00110838
1.64466e-08
6.7758e-07
-1.23833e-06
-1.42626e-06
4.81612e-07
0.0011093
1.06226e-06
-0.000263425
-4.22975e-07
2.04335e-09
0.000263257
-5.54652e-08
6.44245e-07
-0.000296452
1.06552e-07
-9.63781e-08
2.90439e-07
-8.89848e-09
0.000296161
-0.000296361
-9.63699e-08
2.90398e-07
-9.03699e-09
1.04024e-07
0.000296072
1.41047e-09
1.06282e-06
-1.42712e-06
4.77418e-07
6.76084e-07
-1.23932e-06
-3.00289e-07
-1.59015e-09
-0.000263229
-5.97944e-08
1.65501e-07
6.49097e-11
0.000246254
-0.000246361
-2.30523e-08
-1.70395e-07
0.00110834
1.06289e-06
-1.42158e-06
4.74725e-07
-1.2366e-06
6.70713e-07
-1.70411e-07
-6.62618e-08
0.000261775
1.35403e-07
-0.000261779
1.05872e-07
-3.00212e-07
0.000263396
-0.000263206
1.68218e-07
-5.89752e-08
2.19571e-08
0.00020527
-0.000205419
-4.32991e-08
0.000246213
-0.00024632
-1.70349e-07
-2.27464e-08
1.05704e-06
-1.42144e-06
4.77438e-07
-1.23662e-06
6.73178e-07
0.00110821
-1.70378e-07
-6.85558e-08
1.32638e-07
-0.00026174
1.05889e-07
0.000261741
-2.9759e-07
-0.000263198
1.65507e-07
-5.87766e-08
0.000263387
2.19742e-08
-0.00020541
-4.32696e-08
0.00020526
-0.000246315
-2.28701e-08
-1.70323e-07
0.000246211
-7.22484e-08
2.01203e-07
-0.000296662
1.41756e-08
-7.22501e-08
2.0122e-07
-0.000296573
1.45522e-08
0.000102047
-0.000102097
0.00010204
-0.00010209
2.91422e-07
-8.19134e-09
0.000296067
1.06776e-07
-9.6946e-08
2.89552e-07
-8.36887e-09
0.000296202
-1.05832e-08
0.000101972
-4.87405e-08
0.000205114
4.44288e-10
0.000246061
-2.31406e-08
-2.06978e-07
6.77675e-07
-1.23833e-06
4.81595e-07
-1.42336e-06
0.0011093
1.06792e-06
-2.49219e-07
4.94507e-07
1.19993e-07
0.000261516
-4.22827e-07
0.000263232
6.44199e-07
-5.53829e-08
1.01269e-08
-4.86286e-08
0.000205059
0.00024602
-2.06882e-07
-2.27541e-08
0.000101961
-1.00877e-08
0.000101954
6.68729e-08
0.000101915
-2.11424e-08
-2.56484e-07
-0.0002657
4.11847e-07
2.65312e-07
0.00026557
1.87298e-07
-1.9854e-08
-0.000193269
0.000193092
-1.77033e-07
-0.00023699
3.23759e-07
0.000236774
-2.56355e-07
-0.000265578
4.08955e-07
0.000265453
2.62635e-07
1.87501e-07
-1.99883e-08
-0.000193207
0.000193031
-1.77356e-07
-0.000236921
3.21943e-07
0.000236707
4.7779e-08
-8.4329e-05
8.42614e-05
4.78874e-08
-8.43113e-05
8.42435e-05
-0.000227975
0.000227716
7.68482e-08
8.24182e-05
-1.33461e-08
-0.000281492
-3.47479e-08
2.64937e-08
0.00028125
2.06604e-07
2.78339e-08
3.26131e-07
-1.25635e-08
8.2396e-05
1.6024e-07
-9.35318e-09
0.000150422
-2.27459e-08
-2.15745e-07
-3.89418e-11
4.30193e-07
-0.000239828
-1.13563e-07
0.000239679
2.65836e-07
-0.00018031
7.59108e-09
-1.37791e-11
0.000180132
3.98792e-07
1.02569e-10
0.000150303
7.46637e-08
8.23717e-05
-1.347e-08
-4.98008e-08
1.05807e-08
2.54356e-07
-0.000281358
-3.69591e-08
2.63335e-08
0.000281118
2.06429e-07
2.7868e-08
3.26001e-07
-1.23605e-08
8.23471e-05
-9.44288e-09
1.58264e-07
0.000150348
-2.1584e-07
-2.26549e-08
4.30317e-07
-0.000180276
7.5982e-09
0.000180098
-0.000239725
-1.15644e-07
0.000239579
2.65683e-07
3.9912e-07
0.000150228
7.46288e-08
8.23717e-05
-1.34461e-08
-4.9782e-08
1.05992e-08
2.5429e-07
-0.000281349
-3.69328e-08
2.64187e-08
2.06403e-07
0.00028111
3.01226e-08
3.25817e-07
-1.23478e-08
8.23471e-05
1.58257e-07
-9.41113e-09
0.000150345
-2.26587e-08
-2.15835e-07
4.3295e-07
-0.000239719
-1.15671e-07
2.65737e-07
0.000239573
-0.000180271
7.62675e-09
0.000180093
3.99073e-07
0.000150224
0.000237108
2.6729e-07
-1.92396e-07
-1.90448e-07
3.33458e-07
-2.02377e-07
-0.000265703
2.16265e-07
1.90555e-07
2.96313e-07
-5.01941e-09
-9.92508e-08
1.10569e-07
1.38582e-07
-0.000193389
-4.04399e-09
-1.48035e-07
2.02325e-07
4.15705e-07
2.71791e-07
-1.40116e-08
0.000237041
2.67514e-07
-1.92925e-07
-1.90966e-07
3.32377e-07
-2.02187e-07
-0.000265586
2.18754e-07
1.93308e-07
2.96323e-07
-4.85508e-09
-9.92632e-08
1.07921e-07
1.38564e-07
-0.000193327
-3.93304e-09
-1.48416e-07
2.05433e-07
4.1303e-07
2.69425e-07
-1.42268e-08
0.000228198
-5.3664e-08
-5.37089e-08
3.65634e-08
-8.43696e-05
3.63991e-08
-8.43517e-05
-1.31223e-07
-0.000236705
1.94129e-07
-1.39786e-07
1.9775e-07
0.000236584
-2.55783e-07
0.000265445
4.06329e-07
2.66447e-07
0.000193026
1.89093e-07
-1.97527e-08
1.16473e-08
1.95271e-07
0.000295864
6.28839e-08
-6.98069e-09
0.000192913
-1.76274e-07
3.21369e-07
2.1481e-07
0.000265438
1.81617e-07
1.93382e-07
-0.000236782
-1.32912e-07
-1.41521e-07
1.93534e-07
0.000236669
0.000265618
-2.57498e-07
4.10264e-07
2.67374e-07
1.88173e-07
0.000193093
-2.01147e-08
1.97938e-07
1.20826e-08
-6.90228e-08
6.52954e-08
0.000295995
2.17203e-07
1.86293e-07
0.000265606
-1.75029e-07
3.24598e-07
-6.68029e-09
0.000192979
-3.20577e-08
-0.000227721
-3.21655e-08
0.000227504
8.42438e-05
4.89148e-08
4.87379e-08
8.42596e-05
8.42047e-05
8.42207e-05
-2.11494e-08
0.000101924
3.40041e-08
-8.23329e-05
-1.22858e-08
8.23112e-05
0.000280928
-7.62985e-08
2.78733e-08
3.22107e-07
-4.16919e-08
1.65212e-07
0.000204969
2.60793e-08
1.98371e-07
0.000280696
-1.3189e-08
1.08416e-07
-0.000150145
-8.17377e-09
0.000150033
-2.31502e-08
-1.61882e-07
2.72826e-11
2.93607e-07
0.000245952
0.000239444
-1.5495e-07
3.94826e-07
1.01467e-08
0.000179915
-3.84162e-11
2.57351e-07
0.000239298
2.59751e-11
0.000179745
-8.22864e-05
3.62223e-08
-1.21121e-08
8.22623e-05
-7.41447e-08
0.000280797
2.75287e-08
3.19727e-07
-4.16064e-08
1.64616e-07
0.000204915
2.12821e-08
-1.34456e-08
2.60193e-08
2.00704e-07
0.000280565
-0.000150072
-8.19585e-09
1.10366e-07
0.000149957
-1.61822e-07
-2.3046e-08
2.9356e-07
0.000245911
1.00963e-08
0.000179881
-1.52712e-07
0.000239344
3.91953e-07
0.000179711
2.59623e-07
0.000239198
-4.4741e-07
-0.000268952
0.000268666
-4.47826e-07
-0.000269387
5.68258e-07
0.000269098
-0.000256235
0.000255985
0.00025606
4.54272e-07
4.54599e-07
-5.76759e-07
-5.82644e-07
-1.16715e-07
-0.00026857
-1.16794e-07
-0.000269
1.07941e-07
-0.000255994
1.07927e-07
0.000256169
-4.50361e-07
0.000269081
5.75075e-07
0.000268716
-4.49225e-07
-5.27764e-09
-5.29053e-09
-1.07115e-06
0.000272832
0.0002691
-7.22464e-08
0.000269471
5.48005e-07
1.9073e-08
0.00111845
5.97622e-09
0.00112526
5.63795e-07
0.00111774
5.09874e-07
0.00111819
0.0011248
-0.00027241
-1.59867e-07
-9.0725e-08
1.07258e-07
0.000273184
1.8578e-07
0.00027152
6.12579e-07
0.000266607
1.01182e-07
-0.000266878
1.31566e-07
1.02387e-07
0.000261583
1.285e-07
-0.000273084
0.000271653
1.00015e-07
0.000266717
-0.000271077
-1.22339e-07
5.64471e-08
0.000271928
-5.78201e-08
1.60421e-07
1.59516e-11
0.000263448
6.54996e-07
0.000263805
-0.000264019
-5.97521e-08
0.000269986
-0.000270527
6.73656e-09
-0.00027178
0.000263982
-2.67588e-09
0.000270687
0.000272304
-6.19292e-07
1.28837e-07
9.53029e-08
-0.000266763
1.02219e-07
1.0865e-07
1.02555e-07
0.000270928
-6.60785e-07
6.28362e-08
-5.69583e-08
6.47468e-07
3.02014e-10
1.27187e-07
-0.000263838
-5.99609e-08
-0.000269818
-6.10101e-09
3.82966e-09
-6.19073e-07
-1.84742e-07
0.000272219
1.18392e-07
-0.000271408
1.65228e-07
0.000271544
1.23316e-07
4.95888e-07
-0.000266667
9.53263e-08
1.02178e-07
0.000266782
1.02531e-07
1.18784e-07
0.000272988
5.92249e-08
-6.58098e-07
0.000270869
6.44853e-07
-5.60459e-08
-0.000269804
-6.00781e-08
0.000270501
-0.00026376
1.2991e-07
0.000263939
0.000271728
-6.18912e-07
-1.84717e-07
0.000272224
1.36769e-07
-0.000271394
1.65301e-07
0.000271532
1.23261e-07
4.98351e-07
-0.000266651
9.25476e-08
9.97319e-08
0.000266771
1.07637e-07
1.03041e-07
0.000273008
6.41774e-08
-6.5814e-07
0.000270865
6.47586e-07
-5.70153e-08
-0.000269805
-5.75093e-08
0.000270505
-0.00026375
1.27318e-07
0.000263929
0.000271712
-1.62921e-07
-0.000272324
-8.80715e-08
1.15129e-07
0.000273093
0.000271441
1.82023e-07
6.15439e-07
0.000266506
1.00899e-07
1.28463e-07
1.02427e-07
-6.31242e-08
0.000261513
-1.85433e-07
0.000271572
1.17512e-07
9.97313e-08
0.000266621
5.95708e-08
-0.000271018
-1.22134e-07
0.000271874
1.60422e-07
-5.8332e-08
0.000263423
0.000269972
-5.84519e-08
6.54745e-07
0.000263721
0.000270671
0.0002639
-0.0011157
4.89654e-07
0.00111651
-1.53256e-06
6.54359e-07
-6.6829e-07
2.15938e-09
-1.34136e-06
-5.6676e-07
1.0541e-06
8.12696e-08
1.02013e-06
-0.000294519
9.50631e-08
-8.9906e-08
-4.4065e-09
2.68435e-07
0.00029425
8.66853e-08
-0.000293604
-8.30728e-08
2.51414e-07
0.000293352
-2.70763e-09
-0.00111212
-4.92741e-09
0.00111304
-4.90985e-07
1.03455e-06
6.94949e-07
-1.23459e-06
4.98394e-07
-1.41707e-06
-0.000244995
-6.68454e-11
3.9638e-07
-1.74926e-07
-2.33946e-08
0.000244797
-0.00111732
-1.53511e-06
4.94762e-07
1.0554e-06
-5.71585e-07
8.48446e-08
6.60615e-07
-6.72694e-07
-1.34045e-06
4.99709e-09
0.00111813
1.00322e-06
-0.00111397
-2.22689e-09
-4.97217e-07
7.05513e-07
-1.23303e-06
-1.42073e-06
5.06083e-07
0.00111489
1.02382e-06
8.89874e-09
-0.000203268
2.15349e-07
0.000203083
-3.98242e-08
-1.01432e-06
-9.90601e-07
3.94219e-07
-0.00111671
5.24362e-07
0.0011178
-1.53403e-06
1.02432e-06
4.84004e-07
0.00111271
-5.75543e-07
1.02538e-06
6.2734e-08
6.30666e-07
-6.77595e-07
-1.3413e-06
-2.01079e-08
-1.00822e-06
-1.0025e-06
0.00111977
5.20284e-07
5.19996e-07
-0.0011188
-0.00111527
-1.52989e-06
1.01428e-06
5.01162e-07
0.00111611
-5.68909e-07
1.04277e-06
7.29372e-08
6.4867e-07
-6.68281e-07
-1.33848e-06
-9.64269e-09
-0.000273291
1.52729e-06
1.56469e-06
0.000271341
-5.69084e-07
-5.72989e-07
-1.0826e-06
-1.04255e-06
0.000273333
-0.000271213
6.87986e-10
5.03308e-09
1.01233e-06
5.11022e-07
0.00111237
6.41391e-07
-6.74815e-07
-1.34649e-06
-2.03385e-08
0.00111479
1.01386e-06
-0.00111394
5.049e-07
-1.57247e-06
7.55203e-08
-5.76664e-07
-1.34581e-06
-1.19784e-08
-6.71557e-07
6.50758e-07
-5.44215e-08
0.000260725
-1.46162e-07
1.09622e-07
-0.000260728
9.36078e-08
-6.00887e-08
1.895e-08
1.75406e-07
-0.000294708
-1.55751e-06
1.05018e-06
5.43808e-07
0.00111226
-5.72941e-07
1.07107e-06
7.11485e-08
6.33334e-07
-6.80335e-07
-1.3439e-06
-2.2463e-08
0.00111576
1.01988e-06
-0.00111492
5.03695e-07
-1.53015e-06
7.2762e-08
-5.71166e-07
-1.34293e-06
-1.17776e-08
-6.71501e-07
6.48042e-07
1.07804e-06
0.00111481
1.01825e-06
-0.00111397
5.03718e-07
-1.56644e-06
7.62791e-08
-5.72532e-07
-1.34233e-06
-1.23664e-08
-6.70973e-07
6.47557e-07
1.04356e-06
4.81411e-07
-0.00111476
7.05822e-08
-1.53711e-06
-5.86056e-07
-1.35616e-06
-1.72036e-08
6.44522e-07
-6.9586e-07
1.04014e-06
-1.93616e-08
-4.98659e-07
-0.00111117
-1.42367e-06
4.94102e-07
6.90507e-07
-1.23565e-06
-7.67988e-11
2.7097e-07
-1.38098e-07
-2.36118e-08
-0.000245105
-5.78098e-07
-5.72638e-07
0.000270703
-1.04044e-06
0.00027331
-0.000271195
-3.13344e-10
3.99177e-09
1.02365e-06
5.15395e-07
0.0011129
1.02517e-06
6.33247e-08
6.3291e-07
-6.77645e-07
-2.2726e-08
-1.34115e-06
1.01335e-06
-0.00111442
5.02827e-07
-1.52911e-06
7.35755e-08
-5.6951e-07
-1.3396e-06
-1.23271e-08
6.44768e-07
-6.71012e-07
1.02589e-06
0.00111542
-0.00111457
5.02736e-07
-1.51629e-06
5.35679e-08
-5.52188e-07
1.01327e-06
-1.33187e-06
-3.86214e-08
-6.39131e-07
6.38993e-07
-1.08487e-06
-3.86464e-08
-0.000271178
3.69811e-08
-2.135e-08
6.04185e-08
0.000101537
-0.000101576
1.57233e-06
1.53012e-06
-5.69861e-07
-5.75328e-07
0.000271375
1.00209e-06
5.0119e-07
0.00111563
-5.75364e-07
1.08682e-06
8.16111e-08
6.54383e-07
-6.64785e-07
-1.34331e-06
-1.20604e-08
-2.28287e-07
4.75389e-07
0.000260464
1.09093e-07
-0.000260183
-2.15735e-07
4.60837e-07
0.000259921
1.03504e-07
1.01377e-06
5.0001e-07
0.00111659
-5.7273e-07
1.04667e-06
7.88935e-08
6.51703e-07
-6.6747e-07
-1.34043e-06
-9.55467e-09
-1.56443e-06
1.01371e-06
4.96689e-07
0.00111564
-5.69129e-07
1.07773e-06
7.56442e-08
6.51463e-07
-6.68266e-07
-1.34124e-06
-9.64638e-09
-5.67623e-07
-5.72326e-07
0.000271356
0.00111629
5.06436e-07
1.03582e-06
-5.7672e-07
7.05416e-08
1.00831e-06
6.46626e-07
-6.81194e-07
-1.59789e-08
-1.34584e-06
0.000101305
-2.01857e-08
5.81559e-08
-0.000101343
1.56722e-06
-0.000273605
-5.61617e-07
0.000271649
-5.71732e-07
1.52245e-06
8.34816e-08
0.00010123
-0.000101545
-9.56945e-09
0.000101465
5.8633e-08
0.000101311
-2.03055e-08
-0.000101349
0.00111304
-0.00111212
6.97379e-07
-1.23472e-06
4.98336e-07
-1.42271e-06
1.03425e-06
-3.99005e-07
-5.14508e-10
-0.000263485
6.3414e-07
-5.46865e-08
0.000263305
-9.33355e-08
-2.25875e-07
-0.000260745
4.72699e-07
1.11975e-07
0.00026048
4.97057e-07
1.04152e-06
-1.32776e-06
-3.06233e-08
-6.31553e-07
6.49868e-07
-1.52508e-06
6.23814e-08
-5.53247e-07
7.19778e-09
0.00111395
-1.4188e-06
5.02081e-07
-1.23371e-06
7.01314e-07
1.02866e-06
-2.58084e-07
-8.36553e-10
0.000263478
-0.000263296
1.32437e-07
-5.59598e-08
-5.11029e-08
-1.3871e-07
0.00026021
-0.000260228
1.19547e-07
8.76716e-08
-0.000273323
1.56961e-06
-5.6473e-07
-5.75035e-07
0.000271361
-8.74403e-08
-0.000294475
-3.03121e-09
2.65162e-07
0.000294207
4.89193e-08
-0.000293757
1.42462e-07
1.96139e-08
0.000273638
-1.09241e-06
-0.000271518
-2.74116e-08
4.15718e-08
-5.84349e-08
0.000293582
-0.000293795
2.06282e-07
1.35474e-08
-9.54871e-09
-0.000101542
0.000101464
0.000101309
-2.02382e-08
-0.000101348
-8.72231e-09
0.000101236
1.56709e-06
-5.69828e-07
0.000271671
-5.65004e-07
-8.2881e-08
9.01752e-08
2.62888e-07
-7.37475e-09
0.000293319
-8.35955e-09
0.000101235
-0.000245035
-2.38528e-08
-1.74922e-07
0.000244835
-0.000203947
-4.27274e-08
0.000203754
6.04437e-11
0.000244417
-0.000244528
-2.32792e-08
-1.23862e-07
0.000203312
-0.000203437
-3.45436e-08
-0.000263454
6.31406e-07
-5.25055e-08
0.000263271
-4.98758e-07
-1.41874e-06
5.02047e-07
-1.23374e-06
7.01409e-07
1.02903e-06
0.00111533
-0.00111453
1.08374e-06
-5.68653e-07
8.17283e-08
6.49266e-07
-6.53986e-07
-7.05637e-09
-1.32968e-06
1.01922e-06
0.00111614
1.0845e-06
-1.33336e-06
-7.79103e-09
6.54645e-07
-6.58928e-07
1.00775e-06
-1.56362e-06
8.34155e-08
-5.70405e-07
-1.38277e-07
0.000260176
-4.93612e-08
1.063e-07
-0.000260182
8.78248e-08
-2.23743e-07
-9.24417e-08
-0.000260707
1.09376e-07
4.64893e-07
0.000260449
-2.58182e-07
0.000263448
-0.000263271
1.3528e-07
-5.56614e-08
-0.000203392
-3.44291e-08
-0.0002039
9.94309e-09
-4.25813e-08
0.000203709
0.000244379
-0.00024449
-2.30864e-08
-1.23881e-07
7.05068e-07
-1.23028e-06
-1.41805e-06
5.05896e-07
0.00111485
1.02355e-06
-3.82145e-07
1.91471e-09
6.25296e-07
-5.24291e-08
0.000263285
-2.15966e-07
4.66362e-07
1.03759e-07
0.000259946
2.25885e-10
-2.31293e-08
-1.60889e-07
0.000244219
-3.97544e-08
0.000203128
-5.73487e-07
1.08398e-06
8.2034e-08
6.58711e-07
-6.61445e-07
-1.33755e-06
-5.03184e-09
0.00111696
1.00346e-06
-8.96723e-08
4.65575e-07
0.000259911
1.03684e-07
-3.82208e-07
6.22632e-07
-5.24801e-08
0.000263262
-2.3193e-08
-1.60936e-07
0.000244181
7.75558e-11
2.81412e-07
0.000245653
-0.000245759
-1.51383e-07
-2.36822e-08
1.4413e-10
4.25486e-07
0.000246062
-2.06798e-07
-2.27781e-08
2.17702e-08
1.59574e-07
0.000204638
-4.06354e-08
-0.000204779
-2.16917e-08
6.48283e-08
0.000101786
-0.000101829
2.84077e-07
-1.16347e-10
0.000245645
-0.000245752
-2.35738e-08
-1.53596e-07
2.17059e-08
1.59491e-07
0.000204613
-4.05329e-08
-0.000204754
0.00112199
-1.327e-07
-4.91943e-07
-0.00112086
5.32369e-07
5.31013e-07
5.10122e-07
0.00111479
5.36242e-07
4.28379e-07
0.00111471
5.41638e-07
5.26335e-07
0.00111444
5.14567e-07
5.47831e-07
0.00111447
0.00111778
-0.0011168
5.24734e-07
5.20046e-07
0.00111742
-0.00111643
5.19001e-07
5.25007e-07
-2.84003e-07
-1.97834e-09
0.000263471
-0.000263284
-5.92182e-08
1.57826e-07
5.08226e-07
1.03299e-06
0.00111371
1.03565e-06
-1.34621e-06
-2.7223e-08
-6.78316e-07
6.3127e-07
-1.53436e-06
6.07752e-08
-5.69901e-07
-6.34453e-08
-1.58568e-07
0.000261309
1.04998e-07
-0.000261323
1.30998e-07
-1.95562e-08
0.00111028
1.05682e-06
-1.42832e-06
4.85944e-07
-1.24299e-06
6.8196e-07
-1.05439e-08
9.93625e-08
0.000101954
-2.12499e-08
6.66806e-08
0.000101776
-0.000101822
-9.512e-10
-2.84109e-07
0.000263466
-0.000263275
1.52413e-07
-5.87615e-08
0.0011092
-1.52746e-08
1.05692e-06
6.77635e-07
-1.23832e-06
-1.42357e-06
4.81652e-07
-1.07151e-07
-2.48789e-07
4.94155e-07
1.20513e-07
0.000261582
5.02916e-07
1.03356e-06
0.00111357
1.02979e-06
-1.34041e-06
-1.77082e-08
-6.75046e-07
6.36849e-07
-1.52847e-06
6.75615e-08
-5.70044e-07
2.77138e-10
-4.25392e-07
0.000263253
6.44198e-07
-5.41095e-08
-9.59024e-09
0.00111016
1.0457e-06
-1.42281e-06
4.85916e-07
-1.2375e-06
6.81946e-07
-6.03105e-08
-1.58835e-07
0.000261315
9.94416e-08
-0.000261318
1.23539e-07
-1.06794e-06
-1.02529e-06
0.000272964
-0.000270855
-1.24318e-08
-3.24311e-09
6.03517e-08
-6.75633e-08
0.000295463
2.13375e-08
-0.000295671
1.93239e-07
6.01495e-08
-6.74994e-08
0.000295378
1.84783e-08
-0.000295579
1.90525e-07
-2.12363e-10
2.58231e-07
-0.000244539
-1.21739e-07
-2.31944e-08
0.000244426
-0.000203973
9.78233e-09
2.2666e-07
-4.31536e-08
0.00020378
-0.000245043
2.10686e-10
3.96248e-07
0.000244847
-1.77023e-07
-2.37072e-08
2.04714e-08
1.38018e-07
-3.44257e-08
-0.000203463
0.000203339
2.58219e-07
-2.47053e-10
0.000244416
-0.000244527
-2.31157e-08
-1.23889e-07
-0.000203947
9.7378e-09
2.26676e-07
-4.31078e-08
0.000203753
-0.000245033
3.96393e-07
4.13674e-10
0.000244835
-2.3824e-08
-1.7495e-07
2.05251e-08
1.37934e-07
-3.44484e-08
-0.000203437
0.000203313
0.00112303
-5.1143e-07
5.29989e-07
-2.56439e-08
5.22123e-07
5.1741e-07
0.00111876
5.11615e-07
5.23221e-07
0.00111841
-0.00010153
-9.40452e-09
8.73208e-08
0.000101452
-2.03003e-08
5.84429e-08
0.000101297
-0.000101335
-8.13845e-10
-2.58206e-07
-0.000263295
1.32505e-07
-5.66471e-08
0.000263479
0.00111298
-0.00111205
2.82455e-09
1.0288e-06
6.91893e-07
-1.2347e-06
-1.41729e-06
4.98324e-07
-0.00026078
-9.5273e-08
-2.26048e-07
4.72826e-07
1.09149e-07
0.00026052
4.9809e-07
1.04675e-06
0.00111693
1.00871e-06
-1.33589e-06
-7.00973e-09
-6.64027e-07
6.52817e-07
-1.53045e-06
7.70445e-08
-5.69678e-07
-0.000263486
6.61812e-10
-3.96455e-07
0.0002633
6.342e-07
-5.31764e-08
-3.9645e-09
1.02876e-06
-1.41614e-06
5.02113e-07
-1.2337e-06
6.959e-07
0.0011139
-4.8715e-08