/*--------------------------------*- C++ -*----------------------------------*\
| =========                 |                                                 |
| \\      /  F ield         | OpenFOAM: The Open Source CFD Toolbox           |
|  \\    /   O peration     | Version:  v2006                                 |
|   \\  /    A nd           | Website:  www.openfoam.com                      |
|    \\/     M anipulation  |                                                 |
\*---------------------------------------------------------------------------*/
FoamFile
{
    version     2.0;
    format      ascii;
    class       volScalarField;
    location    "375";
    object      p;
}
// * * * * * * * * * * * * * * * * * * * * * * * * * * * * * * * * * * * * * //

dimensions      [0 2 -2 0 0 0 0];


internalField   nonuniform List<scalar> 
14314
(
3.18731e-05
3.10305e-05
3.10263e-05
3.2522e-05
5.64532e-06
6.41313e-06
6.41018e-06
4.82738e-06
3.70118e-05
3.90376e-05
3.90377e-05
3.70112e-05
3.9035e-05
3.90313e-05
3.90345e-05
3.90323e-05
3.70065e-05
3.90302e-05
3.90303e-05
3.70067e-05
3.25249e-05
7.65281e-06
3.10329e-05
3.1033e-05
1.04163e-05
1.04171e-05
3.25228e-05
7.65364e-06
3.10297e-05
3.10266e-05
1.04187e-05
1.04126e-05
3.10263e-05
1.04178e-05
1.0413e-05
3.25192e-05
7.64858e-06
3.1026e-05
1.04146e-05
1.04161e-05
7.65055e-06
4.82947e-06
6.412e-06
6.41135e-06
4.82939e-06
6.41366e-06
6.40776e-06
5.6454e-06
5.6439e-06
5.64454e-06
6.40968e-06
4.82454e-06
6.41133e-06
5.32017e-05
5.32747e-05
5.31153e-05
5.31996e-05
5.32731e-05
3.96207e-05
3.96215e-05
3.96169e-05
3.96176e-05
5.32312e-05
5.53485e-05
5.33251e-05
5.53283e-05
5.31118e-05
5.32291e-05
5.53458e-05
5.53267e-05
5.33204e-05
5.33438e-05
5.32806e-05
5.32791e-05
1.97132e-05
3.24147e-05
3.25203e-05
1.9139e-05
3.27558e-05
1.85864e-05
1.9705e-05
3.24093e-05
3.25147e-05
1.9141e-05
3.18738e-05
3.18693e-05
3.18694e-05
1.08528e-05
1.08531e-05
1.08508e-05
1.08513e-05
2.01817e-05
3.23521e-05
3.13209e-05
2.32561e-05
3.2631e-05
1.96706e-05
2.36437e-05
3.27502e-05
1.85833e-05
2.01803e-05
3.13173e-05
3.23468e-05
2.32519e-05
3.26295e-05
2.36397e-05
1.96702e-05
3.22409e-05
3.22407e-05
2.10642e-05
1.94324e-05
1.94323e-05
3.18178e-06
3.70296e-06
3.16185e-06
-1.26397e-07
1.0591e-06
-3.79314e-06
3.19515e-06
3.69275e-06
3.15387e-06
-1.05368e-07
3.46929e-07
6.67823e-06
6.67805e-06
6.90841e-06
7.30251e-06
3.36468e-06
3.36603e-06
1.83137e-06
2.82176e-06
5.93097e-06
1.35313e-06
4.27776e-06
5.46418e-06
-1.68364e-06
1.04662e-06
-3.7702e-06
1.82927e-06
5.92904e-06
2.81339e-06
1.35249e-06
4.27584e-06
-1.68259e-06
5.46623e-06
-2.38903e-08
-2.52935e-08
7.99701e-07
3.46926e-06
3.4686e-06
5.31168e-05
5.31152e-05
5.33481e-05
5.32863e-05
5.32857e-05
3.64501e-05
4.92655e-05
3.64445e-05
4.92634e-05
4.88298e-05
3.67911e-05
3.6789e-05
4.89788e-05
4.89773e-05
5.32014e-05
5.32742e-05
5.32336e-05
5.53486e-05
5.33256e-05
5.53308e-05
5.32333e-05
5.5349e-05
5.3324e-05
5.5331e-05
4.90718e-05
3.67792e-05
4.90764e-05
3.67249e-05
4.9072e-05
3.67761e-05
4.90753e-05
3.67244e-05
4.90339e-05
4.71973e-05
3.68718e-05
3.92162e-05
4.89806e-05
4.72939e-05
3.68208e-05
4.90333e-05
4.71978e-05
3.68711e-05
3.92163e-05
4.898e-05
4.72941e-05
3.68207e-05
5.33475e-05
5.32854e-05
5.32851e-05
5.31152e-05
3.64432e-05
4.92639e-05
4.88286e-05
3.67874e-05
3.6786e-05
4.89782e-05
4.8977e-05
3.64424e-05
4.92627e-05
5.32312e-05
5.53477e-05
5.33242e-05
5.53285e-05
5.3199e-05
5.32706e-05
5.32305e-05
5.53468e-05
5.53281e-05
5.33213e-05
4.90685e-05
3.67743e-05
4.9074e-05
3.67192e-05
4.90306e-05
4.71946e-05
3.68668e-05
3.92132e-05
4.89776e-05
4.72909e-05
3.68155e-05
4.90683e-05
3.67681e-05
4.90711e-05
3.67185e-05
4.90299e-05
4.71917e-05
3.92114e-05
3.68584e-05
4.72897e-05
4.89758e-05
3.68148e-05
5.31998e-05
5.32727e-05
5.32307e-05
5.53457e-05
5.53282e-05
5.33206e-05
5.31991e-05
5.32698e-05
4.90309e-05
4.7194e-05
3.68646e-05
3.92133e-05
4.89779e-05
4.7291e-05
3.68147e-05
4.9069e-05
3.67724e-05
4.90738e-05
3.67181e-05
4.90305e-05
4.71933e-05
3.92121e-05
3.68628e-05
4.72907e-05
4.89742e-05
3.68141e-05
4.90689e-05
3.67667e-05
4.90703e-05
3.67176e-05
5.33444e-05
5.32819e-05
5.32817e-05
5.31112e-05
3.64388e-05
4.92593e-05
4.88255e-05
3.67852e-05
3.67792e-05
4.8973e-05
4.89722e-05
3.6434e-05
4.9259e-05
5.32285e-05
5.53449e-05
5.53274e-05
5.33178e-05
5.31975e-05
5.32695e-05
5.31963e-05
5.3268e-05
4.90288e-05
4.71905e-05
3.92101e-05
3.6861e-05
4.72884e-05
4.89747e-05
3.68128e-05
4.90291e-05
4.71918e-05
3.92105e-05
3.686e-05
4.72891e-05
4.89721e-05
3.68137e-05
4.90673e-05
3.67671e-05
4.90697e-05
3.67164e-05
4.90685e-05
3.67677e-05
4.90687e-05
3.67185e-05
5.31109e-05
5.31095e-05
4.8826e-05
3.67793e-05
3.67804e-05
4.89721e-05
4.89711e-05
3.64357e-05
4.92582e-05
3.64359e-05
4.92572e-05
3.27664e-05
1.85632e-05
3.27593e-05
1.85747e-05
3.22528e-05
3.22501e-05
2.10667e-05
1.9431e-05
1.94322e-05
-5.9767e-06
1.48425e-05
-5.96551e-06
1.4841e-05
1.69202e-05
2.23369e-06
2.22895e-06
1.41524e-05
1.41502e-05
1.97122e-05
3.24099e-05
3.252e-05
1.91508e-05
2.01914e-05
3.2359e-05
3.13241e-05
2.32567e-05
3.26374e-05
1.96739e-05
2.36474e-05
2.01913e-05
3.23568e-05
3.13241e-05
2.3257e-05
3.26374e-05
1.96762e-05
2.36474e-05
1.54209e-05
2.24637e-06
1.40411e-05
4.7905e-06
1.54229e-05
2.24481e-06
1.40579e-05
4.79421e-06
1.62135e-05
1.6226e-05
4.29519e-06
1.04573e-05
1.47533e-05
1.66132e-05
6.03969e-06
1.62142e-05
1.62266e-05
4.29462e-06
1.04581e-05
1.47598e-05
1.66136e-05
6.04071e-06
3.22488e-05
3.22473e-05
2.10678e-05
1.94372e-05
1.94327e-05
3.27574e-05
1.85726e-05
-5.98298e-06
1.48594e-05
1.69215e-05
2.23269e-06
2.23103e-06
1.41599e-05
1.41511e-05
-5.98002e-06
1.48436e-05
2.0185e-05
3.23548e-05
3.13205e-05
2.32559e-05
3.26327e-05
1.96703e-05
2.36432e-05
1.97048e-05
3.2402e-05
3.25141e-05
1.91464e-05
2.01847e-05
3.1319e-05
3.23484e-05
2.32512e-05
3.26318e-05
2.3642e-05
1.96725e-05
1.54121e-05
2.23617e-06
1.40452e-05
4.77816e-06
1.62063e-05
1.62277e-05
4.28829e-06
1.04529e-05
1.47499e-05
1.66089e-05
6.03254e-06
1.54126e-05
2.22775e-06
1.40507e-05
4.78258e-06
1.62065e-05
1.62213e-05
1.04537e-05
4.28382e-06
1.66085e-05
1.4754e-05
6.03288e-06
1.97006e-05
3.24069e-05
3.25124e-05
1.91407e-05
2.01815e-05
3.1319e-05
3.23484e-05
2.3251e-05
3.26302e-05
2.36418e-05
1.96703e-05
1.96997e-05
3.23991e-05
3.25123e-05
1.91448e-05
1.62041e-05
1.62269e-05
4.28789e-06
1.0453e-05
1.47509e-05
1.6609e-05
6.03121e-06
1.54085e-05
2.23374e-06
1.40467e-05
4.77532e-06
1.62039e-05
1.62212e-05
1.04535e-05
4.28849e-06
1.66081e-05
1.47518e-05
6.03183e-06
1.5409e-05
2.23519e-06
1.40466e-05
4.77906e-06
3.2244e-05
3.22402e-05
2.10632e-05
1.94357e-05
1.94336e-05
3.27446e-05
1.85854e-05
-6.00503e-06
1.48542e-05
1.69176e-05
2.21971e-06
2.21988e-06
1.41566e-05
1.4156e-05
-6.00215e-06
1.4865e-05
2.01802e-05
3.13176e-05
3.23475e-05
2.32522e-05
3.263e-05
2.364e-05
1.96746e-05
1.96984e-05
3.24001e-05
3.25106e-05
1.91412e-05
1.9697e-05
3.24005e-05
3.25118e-05
1.91364e-05
1.62019e-05
1.62234e-05
1.04499e-05
4.28148e-06
1.66052e-05
1.47513e-05
6.0302e-06
1.62023e-05
1.6224e-05
1.04506e-05
4.28825e-06
1.66059e-05
1.47527e-05
6.03083e-06
1.54073e-05
2.22629e-06
1.4048e-05
4.77495e-06
1.54085e-05
2.23694e-06
1.40472e-05
4.77815e-06
3.27484e-05
1.85794e-05
3.27484e-05
1.85769e-05
1.69195e-05
2.23011e-06
2.22955e-06
1.41538e-05
1.41538e-05
-5.98992e-06
1.4852e-05
-5.99048e-06
1.48519e-05
1.07267e-06
-3.76299e-06
1.06608e-06
-3.76198e-06
-1.5197e-08
-1.58119e-08
7.99909e-07
3.47954e-06
3.47396e-06
3.13001e-07
2.8249e-06
2.81938e-06
3.1834e-06
3.68967e-06
3.16345e-06
-1.33358e-07
1.82549e-06
2.82737e-06
5.93369e-06
1.35136e-06
4.28285e-06
5.46374e-06
-1.68443e-06
1.82658e-06
2.82513e-06
5.93358e-06
1.3495e-06
4.28355e-06
5.45965e-06
-1.68344e-06
2.35807e-06
6.25977e-07
2.82026e-06
-1.39289e-06
2.35809e-06
6.25266e-07
2.81502e-06
-1.39234e-06
-1.9454e-08
-1.80162e-08
7.99034e-07
3.47498e-06
3.46553e-06
1.0647e-06
-3.76956e-06
3.12627e-07
2.81639e-06
2.81366e-06
1.83238e-06
2.82439e-06
5.93131e-06
1.35375e-06
4.27952e-06
5.47022e-06
-1.68286e-06
3.19438e-06
3.67884e-06
3.15726e-06
-1.1347e-07
1.83266e-06
5.93112e-06
2.81679e-06
1.34961e-06
4.27935e-06
-1.68218e-06
5.46607e-06
2.36128e-06
6.267e-07
2.82264e-06
-1.39204e-06
2.36073e-06
6.25548e-07
-1.39168e-06
2.82022e-06
3.47319e-07
6.67809e-06
6.67769e-06
6.90657e-06
7.30238e-06
3.3655e-06
3.36577e-06
3.45931e-07
6.67628e-06
6.67614e-06
6.90509e-06
7.30117e-06
3.36463e-06
3.36535e-06
3.46453e-07
6.67608e-06
6.67598e-06
6.90472e-06
7.30109e-06
3.36459e-06
3.3661e-06
-2.43049e-07
3.49626e-06
1.63416e-06
1.63471e-06
-2.42737e-07
3.49542e-06
1.63478e-06
1.63415e-06
-2.43144e-07
3.49526e-06
1.63441e-06
1.63393e-06
-2.42644e-07
3.49475e-06
1.6339e-06
1.6344e-06
3.19365e-06
3.68844e-06
3.15112e-06
-1.12969e-07
1.8326e-06
5.93124e-06
2.82143e-06
1.35112e-06
4.27842e-06
-1.68277e-06
5.46376e-06
3.19467e-06
3.68598e-06
3.15416e-06
-1.16835e-07
2.3608e-06
6.26422e-07
2.8184e-06
-1.39227e-06
2.36085e-06
6.25748e-07
-1.3919e-06
2.81882e-06
-3.22816e-08
-3.41646e-08
7.99004e-07
3.47172e-06
3.47262e-06
1.04018e-06
-3.77049e-06
3.1314e-07
2.81703e-06
2.81619e-06
1.83057e-06
5.92896e-06
2.81979e-06
1.3517e-06
4.27674e-06
-1.68141e-06
5.46319e-06
3.18961e-06
3.6778e-06
3.14901e-06
-1.14982e-07
3.19122e-06
3.68451e-06
3.15167e-06
-1.16562e-07
2.35967e-06
6.26545e-07
-1.39194e-06
2.81896e-06
2.35974e-06
6.25888e-07
-1.39136e-06
2.81731e-06
1.05868e-06
-3.77255e-06
1.05614e-06
-3.7736e-06
3.12925e-07
2.81556e-06
2.8147e-06
-3.19459e-06
-3.19173e-06
2.7215e-07
1.50157e-06
2.76072e-07
1.49244e-06
-3.21133e-06
-3.19825e-06
2.80335e-07
1.50892e-06
2.81761e-07
1.50442e-06
2.79413e-07
1.50376e-06
2.82589e-07
1.5026e-06
-3.20132e-06
-3.20009e-06
2.7578e-07
1.50169e-06
2.79935e-07
1.49987e-06
-3.2023e-06
-3.20442e-06
5.73196e-05
5.72936e-05
5.32274e-05
5.32828e-05
5.73241e-05
5.72271e-05
5.32233e-05
5.74718e-05
5.3308e-05
5.73166e-05
5.72274e-05
5.31171e-05
5.74677e-05
5.73181e-05
5.72921e-05
5.32804e-05
5.32249e-05
5.72252e-05
5.73224e-05
5.32207e-05
5.74708e-05
5.3306e-05
5.73157e-05
5.72262e-05
5.31146e-05
5.74651e-05
5.73376e-05
5.31839e-05
5.31835e-05
5.73909e-05
5.73903e-05
5.32009e-05
5.72906e-05
5.32488e-05
5.72442e-05
5.3234e-05
5.72979e-05
5.73334e-05
5.32958e-05
5.72902e-05
5.3248e-05
5.72427e-05
5.32326e-05
5.7296e-05
5.73326e-05
5.32962e-05
2.37146e-05
2.40047e-05
1.94753e-05
1.97141e-05
2.38775e-05
2.37164e-05
1.91674e-05
2.78299e-05
3.22308e-05
2.82422e-05
3.28946e-05
2.84529e-05
2.81927e-05
2.83087e-05
3.24976e-05
3.23681e-05
3.24709e-05
2.82513e-05
2.84298e-05
2.44875e-05
1.9644e-05
2.36009e-05
2.3451e-05
1.86485e-05
2.77969e-05
2.41661e-05
2.37055e-05
2.39971e-05
1.97085e-05
1.9466e-05
2.37099e-05
2.38697e-05
1.91626e-05
2.78167e-05
3.22241e-05
2.82374e-05
3.28869e-05
2.84466e-05
2.8183e-05
2.83024e-05
3.23618e-05
3.24894e-05
3.2463e-05
2.84239e-05
2.82427e-05
2.44764e-05
1.96423e-05
2.35978e-05
2.34458e-05
1.86559e-05
2.77916e-05
2.41624e-05
2.36837e-05
1.8853e-05
1.88528e-05
2.37433e-05
2.37425e-05
1.89819e-05
2.83299e-05
3.2461e-05
3.23828e-05
2.83058e-05
3.23585e-05
2.83403e-05
2.8137e-05
2.83299e-05
3.24596e-05
3.23826e-05
2.83052e-05
3.23577e-05
2.83397e-05
2.81365e-05
2.80309e-05
3.24917e-05
3.24915e-05
3.24189e-05
2.79827e-05
2.79826e-05
2.3697e-05
1.90795e-05
2.34733e-05
1.98309e-05
2.40034e-05
2.35885e-05
1.95998e-05
2.36963e-05
1.90792e-05
2.34726e-05
1.9831e-05
2.40026e-05
2.35881e-05
1.96011e-05
1.87348e-05
2.17091e-06
1.81992e-05
4.38193e-06
2.8621e-05
7.52018e-06
-4.51408e-07
1.64137e-05
-5.59076e-06
7.75615e-06
2.76289e-05
3.00569e-06
2.33158e-06
1.48698e-06
1.12712e-05
8.12837e-06
2.66068e-06
1.49032e-06
4.06197e-06
8.19866e-06
4.76086e-06
-7.66636e-06
1.87745e-05
2.18458e-06
4.39466e-06
1.82541e-05
7.53761e-06
2.86587e-05
-4.47056e-07
1.64271e-05
-5.59814e-06
7.76954e-06
2.76393e-05
3.00891e-06
1.48366e-06
2.30614e-06
1.12613e-05
2.66968e-06
8.12188e-06
1.50415e-06
4.08117e-06
8.21643e-06
5.00248e-06
2.41749e-06
2.13527e-06
2.13385e-06
3.74745e-06
3.74609e-06
3.84308e-06
1.83545e-07
6.6701e-06
2.60911e-06
2.60552e-06
3.48679e-06
3.48433e-06
-2.15454e-06
2.41109e-06
-1.12863e-06
4.32844e-06
4.95995e-06
5.45386e-06
1.15344e-06
5.92799e-07
2.41326e-06
-1.12687e-06
4.32946e-06
4.96106e-06
5.45511e-06
1.15521e-06
5.9576e-07
3.53958e-06
2.30012e-06
4.83593e-06
2.00709e-06
3.9147e-06
3.18048e-06
1.97178e-06
4.60196e-06
2.3789e-06
4.63115e-06
-2.15651e-06
7.23703e-06
-1.12548e-06
3.10838e-06
3.09997e-06
6.88735e-06
8.57403e-06
3.63497e-06
3.85168e-06
4.08449e-06
6.91068e-07
7.07938e-06
5.87354e-06
7.00581e-07
-6.06449e-08
1.87848e-06
6.11184e-06
7.19013e-06
4.77164e-06
-7.6679e-06
3.53711e-06
2.29748e-06
2.00611e-06
4.83378e-06
3.17882e-06
3.91146e-06
1.97024e-06
4.60024e-06
2.37714e-06
-2.15632e-06
4.63101e-06
-1.12605e-06
7.23479e-06
3.10718e-06
7.07739e-06
5.87196e-06
7.00841e-07
-6.00499e-08
1.87783e-06
6.11004e-06
7.18814e-06
3.0977e-06
6.88628e-06
8.57414e-06
3.63693e-06
3.85024e-06
4.08169e-06
6.90294e-07
-5.25026e-07
1.4777e-05
1.47938e-05
2.2097e-05
2.21155e-05
-1.56774e-06
3.03208e-06
2.6537e-06
2.82511e-06
2.65133e-06
1.86631e-06
2.89429e-06
9.60609e-06
3.02801e-06
2.65064e-06
2.8304e-06
2.6494e-06
1.86178e-06
2.89321e-06
9.59536e-06
2.66263e-06
1.92778e-06
1.06209e-06
1.06274e-06
3.1145e-06
3.11596e-06
3.97693e-06
-3.00721e-07
-3.85159e-07
-3.72297e-07
-1.59185e-07
2.83831e-05
2.83651e-05
6.01888e-06
1.08952e-05
4.52193e-06
-1.95169e-06
3.88848e-06
2.18393e-05
1.6795e-06
6.01722e-06
1.08853e-05
4.51928e-06
-1.9493e-06
3.88907e-06
2.18434e-05
1.6765e-06
5.74688e-05
5.74681e-05
5.73431e-05
5.31911e-05
5.31903e-05
5.7396e-05
5.73958e-05
5.32075e-05
5.72959e-05
5.32553e-05
5.72492e-05
5.32396e-05
5.73385e-05
5.33017e-05
5.73029e-05
5.72958e-05
5.32544e-05
5.72488e-05
5.32402e-05
5.73383e-05
5.33019e-05
5.73031e-05
4.10684e-05
4.48289e-05
4.10637e-05
4.48257e-05
4.49441e-05
4.91555e-05
4.91547e-05
4.90935e-05
4.4925e-05
4.4923e-05
4.07644e-05
3.6742e-05
4.06884e-05
3.6705e-05
4.0814e-05
4.08021e-05
3.67993e-05
4.07627e-05
3.6741e-05
4.06856e-05
3.67001e-05
4.08104e-05
4.08e-05
3.67982e-05
4.5073e-05
4.90857e-05
4.90353e-05
4.50664e-05
4.90363e-05
4.50133e-05
4.49979e-05
4.50727e-05
4.90845e-05
4.90345e-05
4.50643e-05
4.90359e-05
4.5011e-05
4.49964e-05
4.08258e-05
3.65798e-05
3.6575e-05
4.0898e-05
4.08953e-05
3.66097e-05
5.73188e-05
5.72937e-05
5.32274e-05
5.32821e-05
5.73239e-05
5.72263e-05
5.3223e-05
5.74712e-05
5.33074e-05
5.73159e-05
5.72263e-05
5.3116e-05
4.50098e-05
4.91013e-05
4.89898e-05
4.49893e-05
4.90977e-05
4.50068e-05
4.50969e-05
4.11259e-05
4.08234e-05
3.68683e-05
3.64555e-05
4.06677e-05
4.48338e-05
4.89612e-05
4.50602e-05
4.92913e-05
4.51096e-05
4.08599e-05
4.08496e-05
3.67231e-05
3.68566e-05
3.67218e-05
4.08616e-05
4.0745e-05
4.50095e-05
4.91009e-05
4.899e-05
4.49893e-05
4.90975e-05
4.50067e-05
4.50978e-05
4.11271e-05
4.08214e-05
3.68667e-05
4.06672e-05
3.6456e-05
4.48325e-05
4.89607e-05
4.50593e-05
4.92912e-05
4.51099e-05
4.08605e-05
4.08501e-05
3.6723e-05
3.68558e-05
4.08613e-05
4.07459e-05
3.67235e-05
5.73432e-05
5.31902e-05
5.31903e-05
5.73958e-05
5.73958e-05
5.32071e-05
5.7296e-05
5.32544e-05
5.72479e-05
5.32377e-05
5.73382e-05
5.73015e-05
5.33021e-05
5.72956e-05
5.32542e-05
5.72485e-05
5.32403e-05
5.73025e-05
5.73383e-05
5.33019e-05
5.74681e-05
4.10645e-05
4.48272e-05
4.49438e-05
4.91545e-05
4.91538e-05
4.90934e-05
4.49235e-05
4.49222e-05
4.07633e-05
3.67394e-05
4.06857e-05
3.67023e-05
4.08006e-05
4.08123e-05
3.67973e-05
4.07609e-05
3.67398e-05
4.06838e-05
3.66972e-05
4.08082e-05
4.0799e-05
3.67971e-05
4.50723e-05
4.90849e-05
4.90339e-05
4.50651e-05
4.49961e-05
4.90363e-05
4.50125e-05
4.50711e-05
4.90837e-05
4.90346e-05
4.50638e-05
4.90354e-05
4.50094e-05
4.49962e-05
4.08241e-05
3.65794e-05
3.65717e-05
4.08983e-05
4.08925e-05
3.66071e-05
4.10627e-05
4.48239e-05
5.73172e-05
5.72919e-05
5.32247e-05
5.32791e-05
5.73223e-05
5.72249e-05
5.322e-05
5.74697e-05
5.33042e-05
5.73135e-05
5.72247e-05
5.31131e-05
4.50048e-05
4.89867e-05
4.90975e-05
4.49848e-05
4.90945e-05
4.50935e-05
4.50024e-05
4.11218e-05
4.08193e-05
3.68629e-05
3.64492e-05
4.06633e-05
4.48288e-05
4.89584e-05
4.5057e-05
4.92883e-05
4.51063e-05
4.08547e-05
4.08442e-05
3.68507e-05
3.67165e-05
3.67154e-05
4.07401e-05
4.08559e-05
4.5004e-05
4.90977e-05
4.89855e-05
4.49838e-05
4.90931e-05
4.50026e-05
4.50914e-05
4.1119e-05
4.08147e-05
3.68588e-05
4.06596e-05
3.64436e-05
4.48271e-05
4.89562e-05
4.50536e-05
4.92871e-05
4.51035e-05
4.08526e-05
4.08429e-05
3.67159e-05
3.68489e-05
4.08574e-05
4.07388e-05
3.67134e-05
5.7318e-05
5.72923e-05
5.32802e-05
5.32253e-05
5.72257e-05
5.73227e-05
5.3221e-05
5.74706e-05
5.3306e-05
5.73155e-05
5.72266e-05
5.31151e-05
5.73178e-05
5.72921e-05
5.32248e-05
5.32803e-05
5.73223e-05
5.7225e-05
5.3221e-05
5.74694e-05
5.33041e-05
5.73127e-05
5.72242e-05
5.31134e-05
4.50045e-05
4.89866e-05
4.90981e-05
4.49851e-05
4.90941e-05
4.50924e-05
4.50029e-05
4.11197e-05
4.08179e-05
3.68604e-05
4.06618e-05
3.64466e-05
4.48295e-05
4.89584e-05
4.50564e-05
4.92884e-05
4.51054e-05
4.08529e-05
4.08441e-05
3.68483e-05
3.67161e-05
4.07389e-05
4.0856e-05
3.67127e-05
4.50077e-05
4.90975e-05
4.89871e-05
4.49847e-05
4.90959e-05
4.50025e-05
4.50934e-05
4.11257e-05
4.08137e-05
3.68584e-05
4.06613e-05
3.6451e-05
4.48308e-05
4.89568e-05
4.50526e-05
4.92885e-05
4.51053e-05
4.08587e-05
4.08442e-05
3.67162e-05
3.68479e-05
4.08558e-05
4.07395e-05
3.67189e-05
5.73393e-05
5.31853e-05
5.31858e-05
5.73922e-05
5.7392e-05
5.32027e-05
5.72926e-05
5.32503e-05
5.72453e-05
5.32367e-05
5.73349e-05
5.72996e-05
5.32976e-05
5.72916e-05
5.325e-05
5.72452e-05
5.32359e-05
5.7299e-05
5.73346e-05
5.3297e-05
5.7465e-05
4.10589e-05
4.48216e-05
4.49373e-05
4.91496e-05
4.91489e-05
4.9088e-05
4.49165e-05
4.49162e-05
4.07568e-05
3.67345e-05
4.06801e-05
3.66925e-05
4.07951e-05
4.08037e-05
3.67907e-05
4.07553e-05
3.67343e-05
4.0678e-05
3.6691e-05
4.08027e-05
4.07938e-05
3.67906e-05
4.50666e-05
4.90797e-05
4.90314e-05
4.50588e-05
4.49917e-05
4.90313e-05
4.50052e-05
4.50661e-05
4.90791e-05
4.90301e-05
4.50585e-05
4.90302e-05
4.50046e-05
4.49918e-05
4.08175e-05
3.65657e-05
3.6566e-05
4.08879e-05
4.0887e-05
3.66006e-05
4.10567e-05
4.48197e-05
5.73157e-05
5.72905e-05
5.32779e-05
5.32227e-05
5.72241e-05
5.73202e-05
5.32182e-05
5.7469e-05
5.33036e-05
5.73131e-05
5.72242e-05
5.31118e-05
5.73101e-05
5.72883e-05
5.32772e-05
5.32175e-05
5.72213e-05
5.73153e-05
5.32132e-05
5.74662e-05
5.33014e-05
5.73112e-05
5.72217e-05
5.31102e-05
4.50031e-05
4.89841e-05
4.9096e-05
4.49837e-05
4.90916e-05
4.50905e-05
4.50018e-05
4.11189e-05
4.08132e-05
3.68581e-05
4.06596e-05
3.64447e-05
4.48268e-05
4.89556e-05
4.50517e-05
4.92858e-05
4.5103e-05
4.08526e-05
4.08429e-05
3.68471e-05
3.67157e-05
4.07376e-05
4.08557e-05
3.67126e-05
4.50102e-05
4.89857e-05
4.90975e-05
4.49854e-05
4.90944e-05
4.50925e-05
4.50089e-05
4.11201e-05
4.08139e-05
3.68577e-05
4.06598e-05
3.64449e-05
4.48278e-05
4.89543e-05
4.50518e-05
4.92857e-05
4.51029e-05
4.08602e-05
4.08447e-05
3.68482e-05
3.67229e-05
4.07399e-05
4.08656e-05
3.67191e-05
5.74642e-05
5.74629e-05
4.49354e-05
4.9148e-05
4.91473e-05
4.90858e-05
4.49143e-05
4.49139e-05
4.07554e-05
3.67339e-05
4.06781e-05
3.66906e-05
3.679e-05
4.0794e-05
4.08019e-05
4.07552e-05
3.67325e-05
4.0678e-05
3.66905e-05
3.67905e-05
4.07937e-05
4.08016e-05
4.50655e-05
4.90781e-05
4.90291e-05
4.50587e-05
4.90296e-05
4.49904e-05
4.50037e-05
4.50657e-05
4.90774e-05
4.90286e-05
4.5058e-05
4.90293e-05
4.49914e-05
4.50033e-05
4.08159e-05
3.65635e-05
3.65638e-05
3.65997e-05
4.08861e-05
4.08857e-05
4.10574e-05
4.48196e-05
4.10569e-05
4.48191e-05
2.78087e-05
2.41598e-05
2.78027e-05
2.41728e-05
2.36859e-05
1.88601e-05
1.88625e-05
2.3745e-05
2.37457e-05
1.89844e-05
2.83357e-05
3.24694e-05
3.23965e-05
2.83145e-05
3.23677e-05
2.81417e-05
2.83482e-05
2.83357e-05
3.24676e-05
3.23919e-05
2.83121e-05
3.23664e-05
2.81406e-05
2.83464e-05
2.80351e-05
3.25032e-05
3.25001e-05
3.24273e-05
2.79753e-05
2.79798e-05
2.37008e-05
1.90809e-05
2.34769e-05
1.98327e-05
2.35907e-05
1.9602e-05
2.4009e-05
2.37e-05
1.90833e-05
2.34771e-05
1.98334e-05
2.35943e-05
1.96018e-05
2.40068e-05
3.35252e-06
7.76202e-06
3.32728e-06
7.75071e-06
9.34762e-06
1.42827e-05
1.42761e-05
1.4371e-05
8.65435e-06
8.65158e-06
6.39293e-06
4.92091e-06
4.72636e-06
2.47571e-06
5.06348e-06
7.65704e-06
4.0062e-06
6.38926e-06
4.91816e-06
4.71805e-06
2.4744e-06
5.06037e-06
7.65272e-06
4.0053e-06
1.08378e-05
1.42113e-05
1.54469e-05
1.00996e-05
1.47574e-05
9.57164e-06
1.15103e-05
1.0837e-05
1.42077e-05
1.54458e-05
1.00928e-05
1.47552e-05
9.56653e-06
1.15094e-05
4.96974e-06
-2.32857e-06
-2.33227e-06
3.41755e-06
3.41757e-06
1.09789e-06
2.37128e-05
2.39975e-05
1.94759e-05
1.9715e-05
2.38838e-05
2.37156e-05
1.91679e-05
2.7823e-05
3.22271e-05
2.82369e-05
3.28972e-05
2.84496e-05
2.81944e-05
2.83065e-05
3.24968e-05
3.23673e-05
2.8251e-05
3.24727e-05
2.84286e-05
2.44589e-05
1.96491e-05
2.35976e-05
2.34477e-05
1.86619e-05
9.87e-06
1.49593e-05
1.48347e-05
1.13527e-05
1.44054e-05
1.05717e-05
1.11387e-05
4.25339e-06
4.39732e-06
1.87699e-06
-9.49716e-06
3.86166e-06
7.93012e-06
1.39795e-05
9.32628e-06
1.56247e-05
1.01567e-05
6.02688e-06
7.6715e-06
3.26524e-06
4.32455e-06
5.38429e-06
6.3667e-06
6.74514e-06
9.87655e-06
1.49619e-05
1.48388e-05
1.13561e-05
1.44114e-05
1.05797e-05
1.11422e-05
4.26239e-06
4.3981e-06
1.89238e-06
3.87459e-06
-9.4353e-06
7.94489e-06
1.39929e-05
9.3391e-06
1.56571e-05
1.01725e-05
6.0364e-06
7.67748e-06
3.27738e-06
4.325e-06
6.38307e-06
6.74815e-06
5.39565e-06
2.3686e-05
1.88606e-05
1.88536e-05
2.3739e-05
2.37526e-05
1.89838e-05
2.83337e-05
3.24674e-05
3.23929e-05
2.83115e-05
2.81372e-05
3.23655e-05
2.8346e-05
2.83354e-05
3.24664e-05
3.23888e-05
2.83113e-05
2.83456e-05
3.23647e-05
2.81402e-05
2.80345e-05
3.25034e-05
3.24956e-05
2.79754e-05
3.24262e-05
2.79798e-05
2.37007e-05
1.90845e-05
2.34777e-05
1.98347e-05
2.35886e-05
2.40091e-05
1.96031e-05
2.37005e-05
1.90794e-05
2.34775e-05
1.98336e-05
2.4006e-05
2.35973e-05
1.96033e-05
2.78012e-05
2.41716e-05
3.3505e-06
7.77163e-06
9.35153e-06
1.42806e-05
1.42783e-05
1.43726e-05
8.66119e-06
8.65599e-06
6.39522e-06
4.92233e-06
4.72831e-06
2.47454e-06
7.66091e-06
5.07023e-06
4.00481e-06
6.39557e-06
4.91953e-06
4.72166e-06
2.48363e-06
5.07133e-06
7.65542e-06
4.01094e-06
1.08401e-05
1.42156e-05
1.54516e-05
1.01054e-05
1.15144e-05
1.47598e-05
9.57817e-06
1.08429e-05
1.4208e-05
1.54467e-05
1.00975e-05
1.47573e-05
9.57233e-06
1.1513e-05
4.97683e-06
-2.32107e-06
-2.31548e-06
3.4291e-06
3.43128e-06
1.10227e-06
3.33321e-06
7.76388e-06
2.37081e-05
2.39975e-05
1.94653e-05
1.97088e-05
2.38659e-05
2.37113e-05
1.91667e-05
2.78076e-05
3.22198e-05
2.82295e-05
3.28807e-05
2.84431e-05
2.81839e-05
2.83006e-05
3.24886e-05
3.2361e-05
2.82412e-05
3.24613e-05
2.8423e-05
2.44719e-05
1.96471e-05
2.35927e-05
2.34443e-05
1.8676e-05
9.84859e-06
1.48268e-05
1.49475e-05
1.13421e-05
1.43942e-05
1.11296e-05
1.05575e-05
4.20584e-06
4.37865e-06
1.86799e-06
-9.50747e-06
3.84049e-06
7.89066e-06
1.39754e-05
9.32138e-06
1.56326e-05
1.01443e-05
6.00978e-06
7.65958e-06
4.31618e-06
3.24561e-06
5.37094e-06
6.73409e-06
6.35354e-06
9.84973e-06
1.49486e-05
1.48278e-05
1.13434e-05
1.43969e-05
1.05601e-05
1.11275e-05
4.25231e-06
4.3861e-06
1.87756e-06
3.85791e-06
-9.4818e-06
7.9151e-06
1.39835e-05
9.32879e-06
1.56332e-05
1.0156e-05
6.01146e-06
7.6634e-06
3.25897e-06
4.31493e-06
6.35936e-06
6.73269e-06
5.3743e-06
2.37008e-05
2.39922e-05
1.97056e-05
1.94604e-05
2.37067e-05
2.38635e-05
1.91567e-05
2.78111e-05
3.22211e-05
2.82348e-05
2.84422e-05
3.28817e-05
2.81783e-05
2.8299e-05
3.23591e-05
3.24881e-05
2.84197e-05
3.24587e-05
2.82393e-05
2.4465e-05
1.9639e-05
2.35962e-05
2.34419e-05
1.86468e-05
2.36997e-05
2.39896e-05
1.94592e-05
1.97035e-05
2.38698e-05
2.37042e-05
1.91524e-05
2.77911e-05
3.22153e-05
2.82264e-05
3.28676e-05
2.84363e-05
2.81761e-05
2.82973e-05
3.24886e-05
3.23572e-05
3.24595e-05
2.82414e-05
2.84177e-05
2.44735e-05
1.96424e-05
2.35947e-05
2.34394e-05
1.86594e-05
9.85603e-06
1.48271e-05
1.49419e-05
1.13396e-05
1.43957e-05
1.11303e-05
1.05526e-05
4.2136e-06
4.38106e-06
1.8634e-06
3.84436e-06
-9.52554e-06
7.911e-06
1.39776e-05
9.32471e-06
1.56429e-05
1.0149e-05
6.01287e-06
7.65737e-06
4.3142e-06
3.2368e-06
6.73493e-06
6.34732e-06
5.36284e-06
9.8559e-06
1.49399e-05
1.48247e-05
1.13407e-05
1.43918e-05
1.05587e-05
1.11268e-05
4.23061e-06
4.38672e-06
1.87918e-06
3.8556e-06
-9.4841e-06
7.92188e-06
1.39801e-05
9.326e-06
1.56392e-05
1.01566e-05
6.00803e-06
7.66169e-06
3.2522e-06
4.31359e-06
6.35622e-06
6.73122e-06
5.36998e-06
2.36864e-05
1.8867e-05
1.88562e-05
2.37544e-05
2.3754e-05
1.89853e-05
2.83305e-05
3.24627e-05
3.2383e-05
2.83072e-05
2.81336e-05
3.23597e-05
2.83419e-05
2.83305e-05
3.24601e-05
3.23823e-05
2.8304e-05
2.83395e-05
3.23582e-05
2.81335e-05
2.80314e-05
3.24904e-05
3.24909e-05
2.79744e-05
3.24198e-05
2.79769e-05
2.36998e-05
1.90881e-05
2.34756e-05
1.98311e-05
2.35941e-05
2.40053e-05
1.96022e-05
2.36974e-05
1.90813e-05
2.34719e-05
1.98304e-05
2.40008e-05
2.35923e-05
1.9603e-05
2.77809e-05
2.41506e-05
3.34998e-06
7.7657e-06
9.34493e-06
1.42776e-05
1.42737e-05
1.43704e-05
8.64938e-06
8.65516e-06
6.38509e-06
4.91345e-06
4.71882e-06
2.46155e-06
7.65251e-06
5.05892e-06
3.99227e-06
6.38762e-06
4.91235e-06
4.71848e-06
2.46611e-06
5.06552e-06
7.65163e-06
3.99867e-06
1.08337e-05
1.42131e-05
1.54466e-05
1.00984e-05
1.15077e-05
1.47564e-05
9.56999e-06
1.08398e-05
1.42102e-05
1.54458e-05
1.01003e-05
1.47563e-05
9.57495e-06
1.15118e-05
4.96282e-06
-2.3498e-06
-2.33919e-06
3.41432e-06
3.4217e-06
1.08207e-06
3.33609e-06
7.78115e-06
2.3695e-05
2.39917e-05
1.97012e-05
1.94553e-05
2.3703e-05
2.3858e-05
1.91512e-05
2.78118e-05
3.22185e-05
2.82271e-05
2.84393e-05
3.28829e-05
2.81763e-05
2.82968e-05
3.23575e-05
3.24866e-05
2.8417e-05
3.24582e-05
2.82357e-05
2.44657e-05
1.96345e-05
2.35878e-05
2.3437e-05
1.86463e-05
2.36921e-05
2.39902e-05
1.97025e-05
1.9452e-05
2.37034e-05
2.38505e-05
1.91511e-05
2.78009e-05
3.22164e-05
2.82268e-05
3.28785e-05
2.84377e-05
2.81741e-05
2.82952e-05
3.23576e-05
3.24913e-05
3.24628e-05
2.84166e-05
2.8233e-05
2.44581e-05
1.96406e-05
2.35877e-05
2.34373e-05
1.86581e-05
9.85628e-06
1.48232e-05
1.49393e-05
1.13399e-05
1.43847e-05
1.11284e-05
1.05579e-05
4.23575e-06
4.38388e-06
1.86013e-06
3.84903e-06
-9.53307e-06
7.92136e-06
1.39729e-05
9.32854e-06
1.5606e-05
1.01479e-05
6.01486e-06
7.65811e-06
4.31181e-06
3.23764e-06
6.73451e-06
6.3518e-06
5.35805e-06
9.86253e-06
1.48264e-05
1.49408e-05
1.1342e-05
1.43964e-05
1.11297e-05
1.05631e-05
4.23719e-06
4.39064e-06
1.87246e-06
3.85672e-06
-9.50703e-06
7.93634e-06
1.3983e-05
9.33037e-06
1.56482e-05
1.01601e-05
6.01159e-06
7.66211e-06
4.30983e-06
3.2516e-06
6.73168e-06
6.35954e-06
5.35979e-06
2.77897e-05
2.41602e-05
2.77893e-05
2.4159e-05
9.35017e-06
1.42703e-05
1.42696e-05
1.43693e-05
8.66165e-06
8.66201e-06
6.39415e-06
4.91836e-06
4.7251e-06
2.47675e-06
4.00345e-06
7.6559e-06
5.07314e-06
6.39244e-06
4.91829e-06
4.72505e-06
2.47842e-06
4.00478e-06
7.65536e-06
5.0732e-06
1.08391e-05
1.42076e-05
1.54466e-05
1.01007e-05
1.47555e-05
1.15104e-05
9.57545e-06
1.08397e-05
1.42075e-05
1.54463e-05
1.01011e-05
1.47546e-05
1.15115e-05
9.57514e-06
4.97428e-06
-2.3293e-06
-2.32396e-06
1.09456e-06
3.43599e-06
3.43635e-06
3.35431e-06
7.76231e-06
3.35634e-06
7.76392e-06
4.75772e-06
-7.67954e-06
4.77037e-06
-7.6661e-06
-5.24358e-07
1.47904e-05
1.47772e-05
2.20909e-05
2.20973e-05
-1.57769e-06
3.03961e-06
2.65879e-06
2.84131e-06
2.65814e-06
1.87514e-06
9.61251e-06
2.89968e-06
3.03826e-06
2.65526e-06
2.84199e-06
2.65879e-06
1.87089e-06
9.60885e-06
2.9001e-06
2.66641e-06
1.92922e-06
1.06316e-06
1.06281e-06
3.97894e-06
3.11695e-06
3.11845e-06
-2.85187e-07
-3.21947e-07
-3.29223e-07
-1.39632e-07
2.83427e-05
2.83792e-05
6.02192e-06
1.0931e-05
4.52358e-06
-1.95347e-06
2.1845e-05
1.68179e-06
3.89227e-06
6.02074e-06
1.0909e-05
4.52458e-06
-1.9506e-06
2.18325e-05
1.67512e-06
3.8937e-06
1.24863e-05
1.24587e-05
-5.50308e-06
9.28672e-07
9.27505e-07
8.6984e-06
7.98607e-06
-4.98621e-06
1.17166e-07
7.97286e-06
-4.98678e-06
1.10975e-07
1.87275e-05
2.16896e-06
1.81807e-05
4.37152e-06
2.86201e-05
7.50924e-06
-4.38944e-07
1.64115e-05
-5.56321e-06
7.75219e-06
2.75998e-05
3.0019e-06
2.3388e-06
1.49298e-06
8.12967e-06
1.1282e-05
2.6664e-06
1.49202e-06
4.06712e-06
8.18755e-06
3.53751e-06
2.2963e-06
4.82931e-06
2.00363e-06
3.90916e-06
3.17966e-06
1.96773e-06
4.60333e-06
2.3773e-06
4.63131e-06
-2.15707e-06
-1.126e-06
7.23939e-06
3.10867e-06
3.09835e-06
6.88238e-06
8.57061e-06
3.63444e-06
4.07881e-06
3.85129e-06
6.88187e-07
7.08114e-06
5.87234e-06
7.00649e-07
-6.01829e-08
1.87956e-06
6.11191e-06
7.1906e-06
3.53502e-06
2.29713e-06
4.824e-06
2.00397e-06
3.90457e-06
3.18026e-06
1.96515e-06
4.60541e-06
2.37518e-06
4.63196e-06
-2.15684e-06
3.10917e-06
7.23981e-06
-1.12454e-06
3.0999e-06
6.88456e-06
8.5719e-06
3.63281e-06
4.07932e-06
6.8781e-07
3.85059e-06
7.07707e-06
5.87347e-06
7.01217e-07
-6.33264e-08
6.11246e-06
7.18687e-06
1.87678e-06
7.50381e-06
9.7527e-07
8.69435e-07
2.57939e-06
-1.32586e-06
1.80118e-06
4.31998e-06
-8.62858e-08
7.01387e-07
2.82359e-06
-4.79186e-07
3.66256e-06
7.49904e-06
9.75185e-07
8.68806e-07
2.57961e-06
-1.32646e-06
1.80074e-06
4.32374e-06
-8.75148e-08
7.00414e-07
2.82404e-06
-4.79814e-07
3.66215e-06
-5.30324e-07
1.48129e-05
1.48013e-05
2.2082e-05
2.21048e-05
-1.57792e-06
3.03456e-06
2.66035e-06
2.83574e-06
2.6547e-06
9.602e-06
1.87141e-06
2.89846e-06
3.03426e-06
2.65115e-06
2.84142e-06
2.6548e-06
2.89462e-06
1.87128e-06
9.60575e-06
2.66262e-06
1.92791e-06
1.06159e-06
1.06097e-06
3.11566e-06
3.11517e-06
3.97596e-06
-2.90279e-07
-3.39287e-07
-3.40718e-07
2.83789e-05
-1.40855e-07
2.83816e-05
6.01699e-06
1.09246e-05
4.52672e-06
-1.95061e-06
2.18368e-05
3.89156e-06
1.67695e-06
6.01435e-06
1.08809e-05
4.51771e-06
-1.95642e-06
3.88682e-06
2.18333e-05
1.67333e-06
4.76662e-06
-7.67604e-06
1.24855e-05
1.24582e-05
-5.50173e-06
9.27852e-07
9.27109e-07
8.69695e-06
7.98219e-06
-4.98488e-06
1.14336e-07
7.95068e-06
-4.98881e-06
1.104e-07
3.54102e-06
2.30169e-06
4.83846e-06
2.00787e-06
3.91739e-06
3.18163e-06
1.97293e-06
4.60428e-06
2.37969e-06
4.6352e-06
-2.15643e-06
-1.12508e-06
7.24211e-06
3.11002e-06