/*--------------------------------*- C++ -*----------------------------------*\
| =========                 |                                                 |
| \\      /  F ield         | OpenFOAM: The Open Source CFD Toolbox           |
|  \\    /   O peration     | Version:  v2006                                 |
|   \\  /    A nd           | Website:  www.openfoam.com                      |
|    \\/     M anipulation  |                                                 |
\*---------------------------------------------------------------------------*/
FoamFile
{
    version     2.0;
    format      ascii;
    class       volVectorField;
    location    "375";
    object      U;
}
// * * * * * * * * * * * * * * * * * * * * * * * * * * * * * * * * * * * * * //

dimensions      [0 1 -1 0 0 0 0];


internalField   nonuniform List<vector> 
14314
(
(-0.00010334 -0.000103156 0.111704)
(7.37471e-05 -4.34238e-05 0.10741)
(-4.35287e-05 7.3801e-05 0.107409)
(2.21225e-05 2.2259e-05 0.104442)
(-7.96989e-05 -7.95875e-05 0.111726)
(0.00011886 -7.54971e-05 0.107749)
(-7.55975e-05 0.000118925 0.107749)
(6.00672e-05 6.0043e-05 0.104895)
(-6.97164e-05 -6.96015e-05 0.104431)
(-5.57615e-05 -8.82359e-05 0.10735)
(5.56828e-05 -8.82429e-05 0.107349)
(6.9684e-05 -6.96143e-05 0.104432)
(-8.83922e-05 -5.56026e-05 0.107351)
(-8.82846e-05 5.57476e-05 0.107348)
(8.8344e-05 -5.56011e-05 0.107352)
(8.82544e-05 5.58109e-05 0.10735)
(-6.96657e-05 6.97007e-05 0.104431)
(-5.5676e-05 8.83843e-05 0.107351)
(5.56585e-05 8.83836e-05 0.10735)
(6.9617e-05 6.97498e-05 0.104431)
(-2.21938e-05 -2.2089e-05 0.104442)
(-6.99354e-05 -6.98773e-05 0.104522)
(-4.36008e-05 -7.3642e-05 0.107408)
(4.35401e-05 -7.36232e-05 0.107408)
(-6.88897e-05 -0.000101111 0.107495)
(6.89472e-05 -0.000101032 0.107495)
(2.21634e-05 -2.20736e-05 0.104442)
(6.99987e-05 -6.98094e-05 0.104522)
(-7.37925e-05 -4.34404e-05 0.107409)
(-7.36883e-05 4.36046e-05 0.107407)
(-0.000101253 -6.88175e-05 0.107496)
(-0.000101161 6.8968e-05 0.107495)
(7.36933e-05 4.3658e-05 0.107408)
(0.000101272 -6.87684e-05 0.107497)
(0.000101238 6.89222e-05 0.107495)
(-2.21301e-05 2.22007e-05 0.104441)
(-6.98914e-05 7.00037e-05 0.104522)
(4.35314e-05 7.38145e-05 0.107409)
(-6.88603e-05 0.000101332 0.107496)
(6.89241e-05 0.000101291 0.107496)
(6.99546e-05 6.99501e-05 0.104522)
(-6.00334e-05 -5.99906e-05 0.104895)
(-7.56013e-05 -0.000118717 0.107748)
(7.56745e-05 -0.000118673 0.107748)
(6.00951e-05 -5.99298e-05 0.104895)
(-0.000118854 -7.55411e-05 0.107749)
(-0.00011881 7.57025e-05 0.107748)
(7.9709e-05 -7.95241e-05 0.111726)
(-7.96846e-05 7.98209e-05 0.111726)
(7.97224e-05 7.97949e-05 0.111726)
(0.000118845 7.56321e-05 0.107748)
(-6.00296e-05 6.0111e-05 0.104895)
(7.56457e-05 0.000118896 0.107749)
(4.1321e-06 -2.8724e-05 0.0920576)
(-6.40804e-06 1.81835e-05 0.083283)
(-6.92229e-06 4.45588e-05 0.0722367)
(-2.87212e-05 4.18463e-06 0.0920579)
(1.81986e-05 -6.359e-06 0.0832835)
(-9.47648e-05 -9.4608e-05 0.11167)
(9.46518e-05 -9.46516e-05 0.11167)
(-9.46985e-05 9.47287e-05 0.111669)
(9.45815e-05 9.47896e-05 0.111669)
(6.02824e-05 -1.26592e-06 0.099016)
(8.52974e-05 -4.8913e-05 0.107329)
(2.18e-05 -7.93244e-06 0.0937048)
(9.92721e-05 -1.60111e-05 0.109516)
(4.45144e-05 -6.9455e-06 0.0722361)
(-1.33538e-06 6.03035e-05 0.0990157)
(-4.89141e-05 8.52807e-05 0.107328)
(-1.60405e-05 9.92461e-05 0.109516)
(-7.96218e-06 2.17707e-05 0.0937046)
(7.77643e-05 7.7936e-05 0.104389)
(-9.76865e-07 -1.89808e-06 0.0883301)
(-1.9078e-06 -9.62775e-07 0.0883292)
(5.60084e-06 -2.07841e-05 0.0923456)
(-7.66143e-06 -5.15973e-05 0.0821113)
(-8.93468e-06 -2.53709e-05 0.0919621)
(5.41434e-06 5.60142e-05 0.0839573)
(4.47737e-05 -8.31174e-05 0.0717648)
(-5.1618e-05 0.000125013 0.0724817)
(-2.08826e-05 5.63244e-06 0.0923458)
(-5.17109e-05 -7.71671e-06 0.0821115)
(-2.54166e-05 -8.94033e-06 0.0919621)
(5.60169e-05 5.74661e-06 0.083958)
(0.000103209 -0.000103157 0.111704)
(-0.000103255 0.000103324 0.111703)
(0.000103173 0.000103382 0.111703)
(-7.79215e-05 -7.77652e-05 0.111576)
(7.78843e-05 -7.77169e-05 0.111576)
(-7.78798e-05 7.80087e-05 0.111575)
(7.78998e-05 7.80253e-05 0.111575)
(5.09623e-05 4.46766e-07 0.0991214)
(4.49646e-05 -2.75478e-05 0.0934751)
(0.000123302 -2.61902e-05 0.109538)
(8.4964e-05 -5.77175e-05 0.1074)
(5.07988e-05 -7.00635e-06 0.0991351)
(7.46272e-06 -5.90436e-06 0.093994)
(0.000105043 -2.02502e-05 0.109505)
(-8.30399e-05 4.47717e-05 0.0717642)
(0.000124899 -5.15999e-05 0.0724807)
(4.23051e-07 5.09999e-05 0.0991215)
(-2.63421e-05 0.000123353 0.109537)
(-2.75976e-05 4.49873e-05 0.093475)
(-5.78274e-05 8.50334e-05 0.107399)
(-7.05625e-06 5.08194e-05 0.0991351)
(-2.04042e-05 0.000105108 0.109504)
(-6.00191e-06 7.53752e-06 0.0939935)
(3.39033e-05 4.24127e-05 0.0878623)
(4.23544e-05 3.38831e-05 0.0878605)
(5.97036e-05 5.97836e-05 0.104465)
(-2.70676e-05 -2.24796e-05 0.0887608)
(-2.24497e-05 -2.70218e-05 0.0887598)
(-1.19587e-05 -5.84015e-05 0.0940192)
(-0.000141244 -0.000190656 0.0818197)
(-2.18124e-05 -9.15862e-05 0.0919373)
(-0.000245983 -0.000115026 0.0865763)
(0.000268149 -0.000436261 0.0723492)
(0.000109751 -0.000220379 0.0811367)
(-5.85067e-05 -1.18208e-05 0.0940194)
(-0.000190924 -0.000140917 0.0818199)
(-9.1919e-05 -2.17117e-05 0.0919371)
(-0.000114945 -0.000246083 0.0865776)
(-3.34849e-05 -3.32632e-05 0.115431)
(-4.06717e-05 -0.000115583 0.113621)
(-0.00011583 -4.04988e-05 0.113622)
(-7.24006e-05 -7.2324e-05 0.111208)
(-5.19508e-05 -5.17121e-05 0.115542)
(-2.80286e-05 -8.87342e-05 0.113302)
(-8.89347e-05 -2.78905e-05 0.113303)
(6.14137e-05 2.66385e-06 0.0993845)
(0.000120555 -5.57959e-05 0.0938186)
(0.000128886 -1.82817e-05 0.109711)
(6.86661e-05 -4.13054e-05 0.107925)
(0.000100385 -1.83458e-05 0.0995939)
(0.000115221 -5.57016e-05 0.0939533)
(0.000118976 -1.89702e-05 0.110168)
(-0.000436306 0.00026802 0.0723492)
(-0.000220197 0.000109665 0.0811371)
(2.59763e-06 6.14417e-05 0.0993847)
(-1.83566e-05 0.000128941 0.10971)
(-5.58987e-05 0.000120572 0.0938184)
(-4.14096e-05 6.87319e-05 0.107925)
(-1.83802e-05 0.000100382 0.0995939)
(-1.9034e-05 0.000119032 0.110168)
(-5.57521e-05 0.000115314 0.093953)
(0.00026107 7.78934e-05 0.0880034)
(7.77579e-05 0.000261145 0.0880019)
(6.8953e-05 6.89136e-05 0.105168)
(0.000127691 -3.70036e-05 0.0910422)
(-3.70578e-05 0.000127778 0.0910431)
(7.01348e-06 4.45393e-05 0.0722364)
(4.45116e-05 7.05204e-06 0.0722365)
(-7.79354e-05 -7.7797e-05 0.10439)
(1.89646e-06 9.64334e-07 0.0883303)
(1.00518e-06 1.91963e-06 0.0883288)
(2.14287e-05 7.40158e-05 0.0723544)
(-2.9265e-05 -4.9933e-05 0.0717562)
(7.38894e-05 2.14751e-05 0.0723548)
(-4.99129e-05 -2.93219e-05 0.0717545)
(-2.09581e-05 -2.07956e-05 0.104346)
(1.1689e-05 1.16599e-05 0.0885164)
(1.16787e-05 1.1695e-05 0.0885148)
(-3.36637e-05 -2.55363e-05 0.087888)
(-2.56169e-05 -3.36553e-05 0.0878857)
(-4.12678e-06 -2.87506e-05 0.0920578)
(6.49674e-06 1.82146e-05 0.0832836)
(-1.41558e-06 -6.02557e-05 0.0990155)
(-4.89425e-05 -8.51565e-05 0.107326)
(-8.00599e-06 -2.17863e-05 0.0937041)
(-1.60843e-05 -9.92668e-05 0.109516)
(1.35246e-06 -6.02935e-05 0.0990158)
(4.88468e-05 -8.52122e-05 0.107326)
(7.98541e-06 -2.1814e-05 0.0937037)
(1.59946e-05 -9.93046e-05 0.109516)
(-7.97019e-06 -2.5135e-05 0.0919315)
(-3.75098e-06 3.47934e-05 0.08357)
(-4.89702e-06 -3.60616e-05 0.0822675)
(6.10837e-06 -2.28899e-05 0.0921846)
(7.98741e-06 -2.51073e-05 0.0919316)
(3.89629e-06 3.48012e-05 0.0835709)
(4.93477e-06 -3.60457e-05 0.0822681)
(-6.02196e-06 -2.29143e-05 0.0921848)
(-6.22893e-06 -5.23494e-05 0.0990248)
(-4.57037e-05 -8.15533e-05 0.107363)
(-4.612e-06 -1.15981e-05 0.0938398)
(-2.08489e-05 -0.000114001 0.109491)
(-2.51487e-05 -4.23544e-05 0.0934365)
(-2.27707e-05 -0.000119305 0.109534)
(-3.74708e-07 -5.32633e-05 0.0990817)
(6.19355e-06 -5.23621e-05 0.099025)
(4.55992e-05 -8.1577e-05 0.107363)
(4.68665e-06 -1.15873e-05 0.0938396)
(2.07071e-05 -0.000114008 0.109491)
(2.51399e-05 -4.23507e-05 0.0934368)
(2.26202e-05 -0.000119326 0.109534)
(4.33639e-07 -5.32895e-05 0.0990819)
(7.78479e-05 -7.7888e-05 0.10439)
(-1.86795e-06 9.90932e-07 0.0883285)
(-9.61441e-07 1.91281e-06 0.0883307)
(-4.45402e-05 7.09756e-06 0.0722366)
(-2.13316e-05 7.39936e-05 0.0723549)
(2.93247e-05 -4.99042e-05 0.0717564)
(2.08718e-05 -2.08544e-05 0.104347)
(-1.16183e-05 1.16428e-05 0.0885145)
(-1.16614e-05 1.16488e-05 0.0885169)
(3.36811e-05 -2.54978e-05 0.087887)
(2.56079e-05 -3.36579e-05 0.0878875)
(-7.39895e-05 2.14744e-05 0.0723552)
(4.99786e-05 -2.93252e-05 0.0717548)
(-6.02721e-05 -1.30952e-06 0.0990155)
(-8.52808e-05 -4.8848e-05 0.107328)
(-2.17979e-05 -7.93168e-06 0.093704)
(-9.9269e-05 -1.60075e-05 0.109516)
(-2.87373e-05 -4.08678e-06 0.0920576)
(1.82326e-05 6.46402e-06 0.0832835)
(-6.02709e-05 1.43619e-06 0.0990155)
(-8.52093e-05 4.88989e-05 0.107325)
(-9.926e-05 1.60197e-05 0.109515)
(-2.17506e-05 8.01926e-06 0.0937035)
(-2.51478e-05 -7.9506e-06 0.0919314)
(3.48182e-05 -3.68386e-06 0.0835708)
(-3.61346e-05 -4.92722e-06 0.0822679)
(-2.29025e-05 6.14194e-06 0.0921847)
(-5.23742e-05 -6.13494e-06 0.0990247)
(-8.16847e-05 -4.55562e-05 0.107364)
(-1.16197e-05 -4.56797e-06 0.0938399)
(-0.000114085 -2.06748e-05 0.109491)
(-4.24409e-05 -2.50931e-05 0.0934366)
(-0.00011937 -2.26257e-05 0.109533)
(-5.3316e-05 -3.09491e-07 0.0990815)
(-2.50975e-05 8.02128e-06 0.0919316)
(3.48578e-05 3.84317e-06 0.0835709)
(-3.60708e-05 4.94345e-06 0.0822679)
(-2.29075e-05 -5.99727e-06 0.0921847)
(-5.23576e-05 6.27645e-06 0.0990247)
(-8.15788e-05 4.56566e-05 0.107362)
(-0.000114033 2.08449e-05 0.109491)
(-1.16251e-05 4.68052e-06 0.0938394)
(-0.000119324 2.27115e-05 0.109533)
(-4.23739e-05 2.51414e-05 0.0934364)
(-5.33195e-05 4.83317e-07 0.0990816)
(2.87424e-05 4.19331e-06 0.0920582)
(-1.81867e-05 -6.36593e-06 0.0832836)
(6.02702e-05 1.49518e-06 0.0990159)
(8.51207e-05 4.89548e-05 0.107327)
(9.92081e-05 1.60766e-05 0.109516)
(2.17531e-05 8.02397e-06 0.0937045)
(2.87502e-05 -4.07362e-06 0.0920582)
(-1.82201e-05 6.46219e-06 0.083284)
(5.23773e-05 -6.09488e-06 0.0990251)
(8.16599e-05 -4.55918e-05 0.107365)
(1.16625e-05 -4.57908e-06 0.0938408)
(0.000114031 -2.06398e-05 0.109492)
(4.24564e-05 -2.50934e-05 0.0934373)
(0.000119323 -2.26052e-05 0.109534)
(5.33099e-05 -3.16345e-07 0.099082)
(2.51512e-05 -7.93128e-06 0.0919317)
(-3.4831e-05 -3.72009e-06 0.083571)
(3.61568e-05 -4.92117e-06 0.082268)
(2.29032e-05 6.06213e-06 0.0921852)
(5.23428e-05 6.32238e-06 0.0990251)
(8.15327e-05 4.57264e-05 0.107363)
(0.000113976 2.09228e-05 0.109491)
(1.15974e-05 4.67938e-06 0.0938405)
(0.000119265 2.27876e-05 0.109533)
(4.23541e-05 2.51862e-05 0.0934373)
(5.32998e-05 4.70989e-07 0.099082)
(2.51076e-05 8.03571e-06 0.0919318)
(-3.4844e-05 3.88502e-06 0.0835713)
(3.61195e-05 4.90437e-06 0.0822682)
(2.29101e-05 -6.07508e-06 0.0921852)
(-7.79053e-05 7.78904e-05 0.104389)
(1.01986e-06 -1.90335e-06 0.0883281)
(1.92871e-06 -9.80956e-07 0.0883306)
(7.06956e-06 -4.45727e-05 0.0722367)
(7.39548e-05 -2.13057e-05 0.0723543)
(-4.98845e-05 2.93058e-05 0.0717558)
(-2.09016e-05 2.09115e-05 0.104346)
(1.1658e-05 -1.1626e-05 0.0885142)
(1.16249e-05 -1.16634e-05 0.0885167)
(-2.55384e-05 3.36755e-05 0.0878862)
(-3.36579e-05 2.56111e-05 0.0878874)
(2.14153e-05 -7.40262e-05 0.0723551)
(-2.93329e-05 4.99933e-05 0.0717547)
(1.41779e-06 6.03478e-05 0.0990159)
(4.88173e-05 8.5244e-05 0.107327)
(1.59813e-05 9.923e-05 0.109516)
(7.97964e-06 2.18312e-05 0.0937048)
(4.20005e-06 2.87473e-05 0.0920578)
(-6.3776e-06 -1.82228e-05 0.0832836)
(-4.08043e-06 2.88374e-05 0.092058)
(6.40611e-06 -1.82322e-05 0.0832846)
(-6.16712e-06 5.24025e-05 0.099025)
(-4.56357e-05 8.16722e-05 0.107364)
(-2.07704e-05 0.000114055 0.109491)
(-4.6368e-06 1.16425e-05 0.0938406)
(-2.26878e-05 0.000119356 0.109533)
(-2.51247e-05 4.24166e-05 0.0934371)
(-3.73938e-07 5.33165e-05 0.0990819)
(6.24939e-06 5.24103e-05 0.0990253)
(4.55714e-05 8.16696e-05 0.107364)
(2.07585e-05 0.000114067 0.109491)
(4.65527e-06 1.16491e-05 0.0938408)
(2.2627e-05 0.000119368 0.109533)
(2.51525e-05 4.24189e-05 0.093437)
(4.28986e-07 5.33093e-05 0.0990821)
(-7.92796e-06 2.51632e-05 0.0919318)
(-3.79307e-06 -3.48566e-05 0.083571)
(-4.89863e-06 3.61419e-05 0.0822678)
(6.04514e-06 2.29032e-05 0.0921848)
(8.02357e-06 2.51925e-05 0.0919321)
(3.79544e-06 -3.48495e-05 0.083572)
(4.89633e-06 3.61342e-05 0.0822686)
(-6.06848e-06 2.28876e-05 0.0921851)
(-4.4579e-05 -7.00456e-06 0.0722365)
(-7.01248e-06 -4.45718e-05 0.0722369)
(2.07848e-05 2.09719e-05 0.104346)
(-1.16355e-05 -1.16507e-05 0.0885163)
(-1.16561e-05 -1.16076e-05 0.0885153)
(2.55316e-05 3.37327e-05 0.0878881)
(3.36924e-05 2.55274e-05 0.0878863)
(-7.40273e-05 -2.14049e-05 0.0723547)
(4.99631e-05 2.93277e-05 0.0717558)
(-2.14199e-05 -7.39988e-05 0.0723553)
(2.93316e-05 4.99452e-05 0.0717557)
(-4.46832e-05 -8.3044e-05 0.0717642)
(5.15856e-05 0.000125031 0.0724814)
(-8.30851e-05 -4.47332e-05 0.0717628)
(0.000125082 5.19373e-05 0.0724821)
(-4.22684e-05 -3.38258e-05 0.0878621)
(-3.39928e-05 -4.22581e-05 0.0878598)
(-5.97123e-05 -5.96097e-05 0.104465)
(2.24582e-05 2.71292e-05 0.0887609)
(2.73347e-05 2.24951e-05 0.0887594)
(7.06757e-05 0.000145642 0.0728206)
(-7.30524e-05 -0.000148159 0.0717646)
(0.000145283 7.09172e-05 0.0728217)
(-0.000148011 -7.29523e-05 0.0717628)
(-3.5384e-05 -3.52686e-05 0.104577)
(2.18297e-05 -7.74253e-06 0.0892313)
(-7.77032e-06 2.19604e-05 0.0892303)
(-5.80173e-05 -6.22898e-05 0.0877763)
(-6.24438e-05 -5.79043e-05 0.087774)
(-5.44111e-06 -2.08507e-05 0.0923458)
(7.76256e-06 -5.1617e-05 0.0821117)
(9.02523e-06 -2.53297e-05 0.0919622)
(-5.33427e-06 5.59055e-05 0.083958)
(4.88663e-07 -5.08475e-05 0.099121)
(-2.75363e-05 -4.48623e-05 0.0934743)
(-2.64224e-05 -0.000123236 0.109537)
(-5.78712e-05 -8.48294e-05 0.107398)
(-7.03143e-06 -5.07534e-05 0.0991346)
(-5.9756e-06 -7.42753e-06 0.0939928)
(-2.0466e-05 -0.000104944 0.109504)
(-3.49108e-07 -5.08739e-05 0.0991212)
(2.7621e-05 -4.48732e-05 0.0934746)
(2.63024e-05 -0.000123238 0.109537)
(5.787e-05 -8.48041e-05 0.107398)
(7.10677e-06 -5.07484e-05 0.0991348)
(6.08089e-06 -7.4449e-06 0.0939925)
(2.04031e-05 -0.000104931 0.109504)
(-1.16278e-05 -3.76242e-05 0.0919477)
(6.03073e-06 4.51564e-05 0.0845472)
(-2.23577e-05 -8.25293e-05 0.0818475)
(-7.46494e-06 -5.22716e-05 0.0926097)
(1.17468e-05 -3.75959e-05 0.0919478)
(-5.7971e-06 4.51781e-05 0.0845486)
(2.22484e-05 -8.25085e-05 0.0818478)
(7.42334e-06 -5.21433e-05 0.09261)
(-9.39963e-06 -5.94617e-05 0.09928)
(-4.05721e-05 -7.05505e-05 0.107475)
(-4.35421e-05 -5.81159e-05 0.094291)
(-1.6201e-05 -0.000102378 0.109563)
(-3.21069e-05 -6.00709e-05 0.093501)
(-2.74861e-05 -0.000119816 0.109571)
(-6.31788e-06 -7.83818e-05 0.099143)
(9.52747e-06 -5.94602e-05 0.0992802)
(4.0592e-05 -7.0501e-05 0.107475)
(4.36112e-05 -5.80316e-05 0.0942912)
(1.62397e-05 -0.000102344 0.109563)
(3.2156e-05 -6.00378e-05 0.0935013)
(2.74816e-05 -0.000119798 0.109571)
(6.3736e-06 -7.83358e-05 0.0991431)
(4.22997e-05 -3.38604e-05 0.0878612)
(3.39741e-05 -4.22977e-05 0.0878616)
(5.97384e-05 -5.96126e-05 0.104465)
(-2.23486e-05 2.7098e-05 0.0887589)
(-2.73093e-05 2.24923e-05 0.0887619)
(8.31533e-05 -4.48233e-05 0.0717633)
(-0.000125228 5.19931e-05 0.0724829)
(-7.07146e-05 0.000145748 0.0728218)
(7.3018e-05 -0.000148059 0.0717648)
(3.54151e-05 -3.52544e-05 0.104578)
(-2.17604e-05 -7.76899e-06 0.08923)
(7.78237e-06 2.20578e-05 0.0892324)
(5.80639e-05 -6.21739e-05 0.0877755)
(6.2451e-05 -5.79796e-05 0.0877753)
(-0.00014555 7.10799e-05 0.0728224)
(0.000148241 -7.30835e-05 0.0717627)
(-5.09555e-05 5.30663e-07 0.0991211)
(-4.49407e-05 -2.74952e-05 0.0934744)
(-0.000123353 -2.6246e-05 0.109537)
(-8.49832e-05 -5.77476e-05 0.107399)
(-5.0812e-05 -6.98804e-06 0.0991349)
(-7.45963e-06 -5.90524e-06 0.093993)
(-0.000105085 -2.03021e-05 0.109504)
(-2.08952e-05 -5.45175e-06 0.0923458)
(-5.16733e-05 7.76954e-06 0.0821115)
(-2.53665e-05 9.05879e-06 0.0919622)
(5.59778e-05 -5.38764e-06 0.083958)
(-5.09404e-05 -3.20713e-07 0.099121)
(-0.000123298 2.64506e-05 0.109537)
(-4.49347e-05 2.76117e-05 0.0934743)
(-8.48925e-05 5.79211e-05 0.107397)
(-5.07883e-05 7.15854e-06 0.0991348)
(-0.000105023 2.05493e-05 0.109504)
(-7.49244e-06 6.03202e-06 0.0939923)
(-3.77238e-05 -1.16068e-05 0.0919478)
(4.50836e-05 6.42313e-06 0.084548)
(-8.26777e-05 -2.22572e-05 0.0818475)
(-5.2459e-05 -7.3599e-06 0.0926103)
(-5.95706e-05 -9.36554e-06 0.0992802)
(-7.06832e-05 -4.04861e-05 0.107476)
(-5.82531e-05 -4.34101e-05 0.0942914)
(-0.00010254 -1.60633e-05 0.109563)
(-6.01454e-05 -3.20092e-05 0.093501)
(-0.000119946 -2.7324e-05 0.109571)
(-7.85723e-05 -6.28132e-06 0.0991432)
(-3.76752e-05 1.17515e-05 0.0919478)
(4.52227e-05 -6.11211e-06 0.0845485)
(-8.26243e-05 2.22933e-05 0.0818475)
(-5.2404e-05 7.47645e-06 0.0926102)
(-5.95437e-05 9.55442e-06 0.0992803)
(-7.05967e-05 4.06333e-05 0.107474)
(-0.000102492 1.63359e-05 0.109562)
(-5.81448e-05 4.35494e-05 0.0942911)
(-0.000119913 2.76003e-05 0.10957)
(-6.01121e-05 3.21171e-05 0.093501)
(-7.85237e-05 6.39735e-06 0.0991431)
(2.08893e-05 5.50098e-06 0.0923463)
(5.16987e-05 -7.73539e-06 0.0821119)
(2.53904e-05 -9.00835e-06 0.0919624)
(-5.60372e-05 5.73597e-06 0.0839584)
(5.09572e-05 -3.99772e-07 0.0991215)
(0.000123255 2.65182e-05 0.109537)
(4.49443e-05 2.76286e-05 0.0934753)
(8.4931e-05 5.79415e-05 0.107398)
(5.07648e-05 7.13089e-06 0.0991351)
(0.000105 2.0608e-05 0.109504)
(7.47888e-06 5.97502e-06 0.0939937)
(2.08594e-05 -5.53276e-06 0.0923462)
(5.16975e-05 7.75411e-06 0.0821121)
(2.53397e-05 8.99374e-06 0.0919625)
(-5.601e-05 -5.42145e-06 0.0839586)
(5.95872e-05 -9.45261e-06 0.0992805)
(7.06807e-05 -4.04538e-05 0.107477)
(5.82241e-05 -4.33945e-05 0.0942919)
(0.000102552 -1.60496e-05 0.109563)
(6.01692e-05 -3.20338e-05 0.0935015)
(0.000119956 -2.72931e-05 0.109571)
(7.8633e-05 -6.33481e-06 0.0991434)
(3.77523e-05 -1.16982e-05 0.091948)
(-4.5099e-05 6.41863e-06 0.0845482)
(8.2691e-05 -2.2228e-05 0.0818476)
(5.257e-05 -7.39607e-06 0.0926109)
(5.95608e-05 9.47047e-06 0.0992806)
(7.06541e-05 4.06215e-05 0.107475)
(0.000102517 1.63336e-05 0.109563)
(5.8167e-05 4.34545e-05 0.0942918)
(0.000119931 2.76134e-05 0.10957)
(6.01648e-05 3.20795e-05 0.0935017)
(7.85828e-05 6.30688e-06 0.0991435)
(3.76892e-05 1.16891e-05 0.0919482)
(-4.51931e-05 -6.20009e-06 0.0845488)
(8.26716e-05 2.22088e-05 0.0818478)
(5.24586e-05 7.38513e-06 0.0926107)
(-3.39151e-05 4.24011e-05 0.0878603)
(-4.23418e-05 3.40269e-05 0.0878616)
(-5.96713e-05 5.9769e-05 0.104464)
(2.70891e-05 -2.24366e-05 0.0887584)
(2.24716e-05 -2.70147e-05 0.0887613)
(-4.48723e-05 8.32033e-05 0.071763)
(5.16142e-05 -0.000124799 0.0724821)
(0.000145714 -7.09044e-05 0.072821)
(-0.000147988 7.29376e-05 0.0717645)
(-3.53232e-05 3.54434e-05 0.104577)
(-7.6376e-06 -2.18723e-05 0.0892297)
(2.19647e-05 7.69878e-06 0.0892321)
(-6.22749e-05 5.80518e-05 0.0877746)
(-5.80102e-05 6.2462e-05 0.0877754)
(7.10037e-05 -0.000145622 0.0728223)
(-7.30505e-05 0.000148235 0.0717628)
(-4.09242e-07 5.10074e-05 0.0991217)
(2.63473e-05 0.000123364 0.109537)
(2.7612e-05 4.49547e-05 0.0934749)
(5.78705e-05 8.50262e-05 0.107399)
(7.09193e-06 5.0778e-05 0.0991353)
(2.04454e-05 0.000105109 0.109504)
(5.99969e-06 7.55321e-06 0.0939938)
(5.50343e-06 2.09106e-05 0.0923462)
(-7.80533e-06 5.17205e-05 0.0821115)
(-9.02266e-06 2.5373e-05 0.0919626)
(5.33081e-06 -5.59733e-05 0.0839582)
(-5.54671e-06 2.09462e-05 0.0923464)
(7.72502e-06 5.17082e-05 0.0821123)
(8.98265e-06 2.52725e-05 0.0919627)
(-5.51435e-06 -5.5913e-05 0.0839591)
(-9.46932e-06 5.96222e-05 0.0992804)
(-4.05545e-05 7.07411e-05 0.107476)
(-1.61591e-05 0.000102609 0.109563)
(-4.34289e-05 5.81899e-05 0.0942917)
(-2.74243e-05 0.000120019 0.10957)
(-3.20908e-05 6.02056e-05 0.0935015)
(-6.36221e-06 7.86233e-05 0.0991435)
(9.46577e-06 5.96095e-05 0.0992807)
(4.05913e-05 7.07346e-05 0.107476)
(1.62071e-05 0.000102594 0.109563)
(4.34609e-05 5.82004e-05 0.0942922)
(2.74612e-05 0.000120021 0.109571)
(3.20985e-05 6.02141e-05 0.0935016)
(6.28914e-06 7.85902e-05 0.0991438)
(-1.17101e-05 3.78064e-05 0.091948)
(6.26313e-06 -4.51443e-05 0.0845483)
(-2.22498e-05 8.27331e-05 0.0818474)
(-7.46006e-06 5.25269e-05 0.0926108)
(1.16671e-05 3.77766e-05 0.0919482)
(-6.31092e-06 -4.51605e-05 0.0845494)
(2.22077e-05 8.27557e-05 0.0818481)
(7.33805e-06 5.24366e-05 0.0926112)
(8.3171e-05 4.47864e-05 0.0717644)
(-0.00012507 -5.16809e-05 0.0724817)
(4.48018e-05 8.31786e-05 0.0717641)
(-5.18137e-05 -0.000125024 0.0724821)
(3.53622e-05 3.54492e-05 0.104578)
(7.69046e-06 -2.19933e-05 0.0892313)
(-2.19502e-05 7.73753e-06 0.0892307)
(6.22933e-05 5.81241e-05 0.0877763)
(5.80555e-05 6.22934e-05 0.0877745)
(-0.000145937 -7.1097e-05 0.0728216)
(0.000148207 7.30631e-05 0.071764)
(-7.11776e-05 -0.000145937 0.0728221)
(7.29911e-05 0.000148239 0.0717639)
(-0.000268028 -0.000436181 0.0723484)
(-0.000109688 -0.000220437 0.0811356)
(-0.000435803 -0.000267615 0.0723467)
(-0.000220612 -0.000109448 0.081136)
(-7.79944e-05 -0.000260875 0.088003)
(-0.000261148 -7.77657e-05 0.0880012)
(-6.88846e-05 -6.88763e-05 0.105167)
(3.71101e-05 -0.00012769 0.0910413)
(-0.000127696 3.70819e-05 0.0910417)
(-6.38871e-05 -6.38751e-05 0.105605)
(1.88227e-05 -0.000130194 0.0904963)
(-0.000130157 1.87977e-05 0.0904966)
(1.19376e-05 -5.83683e-05 0.0940196)
(0.000141415 -0.000190453 0.0818209)
(2.17185e-05 -9.13782e-05 0.0919375)
(0.000246254 -0.000114973 0.0865784)
(2.64749e-06 -6.12746e-05 0.0993841)
(-5.59756e-05 -0.000120302 0.0938181)
(-1.83972e-05 -0.000128686 0.109711)
(-4.13466e-05 -6.84741e-05 0.107924)
(-1.83255e-05 -0.000100114 0.0995935)
(-5.58019e-05 -0.00011516 0.0939523)
(-1.90353e-05 -0.000118766 0.110168)
(-2.64524e-06 -6.13097e-05 0.0993846)
(5.60822e-05 -0.000120311 0.0938194)
(1.8459e-05 -0.000128648 0.109711)
(4.14661e-05 -6.8415e-05 0.107924)
(1.83311e-05 -0.00010005 0.0995939)
(5.58751e-05 -0.000115108 0.093954)
(1.91403e-05 -0.000118734 0.110168)
(2.35205e-05 -6.65785e-05 0.100377)
(-3.47418e-05 -7.48064e-05 0.108069)
(-5.78643e-05 -8.71582e-05 0.0933423)
(-1.03011e-05 -9.7068e-05 0.110293)
(-2.35288e-05 -6.65994e-05 0.100377)
(3.48511e-05 -7.47496e-05 0.10807)
(5.79624e-05 -8.71598e-05 0.0933441)
(1.041e-05 -9.70445e-05 0.110293)
(7.79441e-05 -0.000260869 0.0880032)
(0.000261173 -7.7664e-05 0.0880019)
(6.89703e-05 -6.88307e-05 0.105168)
(-3.70698e-05 -0.000127734 0.0910425)
(0.00012778 3.71704e-05 0.0910418)
(0.000436229 -0.000267779 0.0723465)
(0.00022076 -0.000109441 0.0811361)
(6.39699e-05 -6.38431e-05 0.105606)
(-1.87766e-05 -0.000130256 0.0904973)
(0.000130248 1.8857e-05 0.0904965)
(-6.1342e-05 2.7252e-06 0.0993844)
(-0.000120544 -5.58255e-05 0.0938186)
(-0.00012884 -1.82757e-05 0.10971)
(-6.85818e-05 -4.13296e-05 0.107925)
(-0.000100323 -1.82886e-05 0.0995937)
(-0.000115143 -5.57044e-05 0.0939535)
(-0.000118914 -1.89499e-05 0.110168)
(-5.84662e-05 1.20379e-05 0.0940195)
(-0.000190728 0.00014143 0.0818207)
(-9.16937e-05 2.17689e-05 0.0919374)
(-0.000114866 0.000246175 0.0865785)
(-6.1378e-05 -2.61885e-06 0.0993846)
(-0.000128809 1.85209e-05 0.109711)
(-0.000120506 5.60444e-05 0.0938192)
(-6.85401e-05 4.1511e-05 0.107924)
(-0.000100255 1.83716e-05 0.099594)
(-0.000118871 1.91893e-05 0.110168)
(-0.000115191 5.59377e-05 0.0939539)
(-6.6622e-05 2.36041e-05 0.100377)
(-7.48854e-05 -3.4728e-05 0.10807)
(-8.71361e-05 -5.77916e-05 0.0933434)
(-9.71999e-05 -1.02384e-05 0.110293)
(-6.66592e-05 -2.34923e-05 0.100377)
(-7.48553e-05 3.48846e-05 0.10807)
(-9.71625e-05 1.04471e-05 0.110293)
(-8.71905e-05 5.80201e-05 0.0933438)
(3.34747e-05 -3.32468e-05 0.115431)
(4.06293e-05 -0.000115553 0.113621)
(0.00011578 -4.04615e-05 0.113622)
(7.24753e-05 -7.22889e-05 0.111208)
(5.18575e-05 -5.16891e-05 0.115542)
(2.8076e-05 -8.87086e-05 0.113302)
(8.89593e-05 -2.78754e-05 0.113303)
(-3.34718e-05 3.369e-05 0.115431)
(-0.00011576 4.08272e-05 0.113621)
(-4.06545e-05 0.000115957 0.113622)
(-7.24327e-05 7.25642e-05 0.111208)
(-5.19287e-05 5.21045e-05 0.115542)
(-8.88768e-05 2.82302e-05 0.113302)
(-2.80379e-05 8.90824e-05 0.113303)
(3.3479e-05 3.36972e-05 0.115431)
(0.00011574 4.08404e-05 0.113621)
(4.06688e-05 0.000115952 0.113622)
(7.2486e-05 7.25109e-05 0.111209)
(5.1866e-05 5.21197e-05 0.115542)
(8.89154e-05 2.82203e-05 0.113302)
(2.80969e-05 8.9068e-05 0.113303)
(-2.06494e-05 -2.04592e-05 0.115331)
(-6.89932e-05 -6.89339e-05 0.111021)
(-1.65151e-05 -8.21547e-05 0.113151)
(-8.23234e-05 -1.64061e-05 0.113152)
(2.06826e-05 -2.04475e-05 0.115331)
(6.90874e-05 -6.89054e-05 0.111021)
(1.65948e-05 -8.21349e-05 0.113151)
(8.23819e-05 -1.64037e-05 0.113152)
(-2.06409e-05 2.08639e-05 0.115331)
(-6.90259e-05 6.91558e-05 0.111021)
(-8.22774e-05 1.67147e-05 0.113151)
(-1.65347e-05 8.24763e-05 0.113152)
(2.06844e-05 2.08675e-05 0.115331)
(6.90857e-05 6.90975e-05 0.111021)
(8.23435e-05 1.66967e-05 0.113151)
(1.66063e-05 8.24611e-05 0.113152)
(5.85827e-05 -1.18767e-05 0.0940197)
(0.00019094 -0.000140869 0.0818202)
(9.20467e-05 -2.17301e-05 0.0919372)
(0.000115025 -0.000246041 0.0865776)
(6.1433e-05 -2.703e-06 0.0993847)
(0.00012886 1.84847e-05 0.109711)
(0.000120518 5.59216e-05 0.0938193)
(6.86106e-05 4.14287e-05 0.107924)
(0.00010032 1.82852e-05 0.0995942)
(0.000118931 1.91359e-05 0.110168)
(0.000115199 5.58834e-05 0.0939537)
(5.85297e-05 1.19644e-05 0.0940198)
(0.000190737 0.000141254 0.0818209)
(9.17908e-05 2.17058e-05 0.0919377)
(0.000114901 0.000246162 0.0865785)
(6.66999e-05 2.3549e-05 0.100377)
(7.49818e-05 -3.47146e-05 0.108071)
(8.72282e-05 -5.77835e-05 0.0933432)
(9.72728e-05 -1.02649e-05 0.110293)
(6.67115e-05 -2.35594e-05 0.100377)
(7.49283e-05 3.48149e-05 0.10807)
(9.72309e-05 1.03944e-05 0.110293)
(8.72073e-05 5.79717e-05 0.0933436)
(-0.000261171 7.79705e-05 0.0880024)
(-7.77915e-05 0.00026115 0.0880019)
(-6.89195e-05 6.90065e-05 0.105167)
(-0.000127644 -3.69114e-05 0.0910422)
(3.71432e-05 0.000127854 0.0910414)
(-0.000267801 0.00043616 0.072347)
(-0.000109473 0.000220767 0.0811363)
(-6.39186e-05 6.39953e-05 0.105606)
(-0.000130171 -1.86357e-05 0.090497)
(1.88416e-05 0.000130381 0.0904963)
(-2.73914e-06 6.14801e-05 0.0993851)
(1.83785e-05 0.000128919 0.109711)
(5.59037e-05 0.000120521 0.0938194)
(4.14644e-05 6.86519e-05 0.107925)
(1.82705e-05 0.000100328 0.0995944)
(1.90759e-05 0.000119006 0.110168)
(5.58309e-05 0.000115251 0.0939547)
(-1.19759e-05 5.86083e-05 0.0940198)
(-0.000140883 0.000190949 0.08182)
(-2.18122e-05 9.202e-05 0.0919373)
(-0.000246164 0.000115154 0.0865777)
(1.18839e-05 5.85838e-05 0.0940202)
(0.000141182 0.000190781 0.0818213)
(2.16629e-05 9.1819e-05 0.0919376)
(0.000246029 0.000114964 0.0865794)
(2.34799e-05 6.67482e-05 0.100377)
(-3.48011e-05 7.50335e-05 0.10807)
(-1.03166e-05 9.73191e-05 0.110293)
(-5.78384e-05 8.73577e-05 0.093343)
(-2.36071e-05 6.67676e-05 0.100378)
(3.48465e-05 7.49476e-05 0.108071)
(1.03544e-05 9.72961e-05 0.110294)
(5.79028e-05 8.72712e-05 0.0933447)
(0.000436561 0.000268079 0.0723483)
(0.000220308 0.000109667 0.0811368)
(0.00026812 0.000436642 0.0723482)
(0.000109652 0.000220409 0.0811376)
(6.39511e-05 6.39188e-05 0.105606)
(0.000130193 -1.86873e-05 0.0904968)
(-1.8748e-05 0.000130303 0.0904976)
(-0.000111042 -0.000206935 0.0810161)
(-0.000207069 -0.000110848 0.0810168)
(-1.75471e-05 -2.31427e-05 0.0934457)
(-0.000241331 -0.000206052 0.0874588)
(1.75327e-05 -2.3101e-05 0.0934461)
(0.000241596 -0.00020608 0.0874611)
(0.00011114 -0.000206927 0.0810179)
(0.000207227 -0.000110849 0.0810168)
(-2.3191e-05 -1.73974e-05 0.0934459)
(-0.000206025 -0.000241365 0.08746)
(-2.31697e-05 1.7676e-05 0.093446)
(-0.000205956 0.00024154 0.0874607)
(2.33133e-05 -1.74705e-05 0.0934463)
(0.000206106 -0.000241319 0.0874599)
(2.3249e-05 1.75888e-05 0.0934464)
(0.000205994 0.000241526 0.0874607)
(-0.000206745 0.00011108 0.0810178)
(-0.000110886 0.000207291 0.0810171)
(-1.75777e-05 2.33667e-05 0.0934464)
(-0.000241464 0.000206235 0.08746)
(1.74939e-05 2.33262e-05 0.0934468)
(0.000241393 0.00020608 0.0874617)
(0.000206855 0.000111069 0.0810176)
(0.000111041 0.000206979 0.0810186)
(9.81555e-06 -4.06703e-05 0.0773119)
(-7.3696e-06 -2.53038e-05 0.0919045)
(1.1257e-05 -3.21091e-05 0.0791689)
(-1.66378e-06 -1.80995e-05 0.0905726)
(-1.08191e-05 1.22167e-05 0.0792251)
(-1.21414e-05 -2.90954e-05 0.0904188)
(-1.92002e-05 2.79963e-05 0.0775119)
(-5.91484e-05 -7.028e-05 0.0679524)
(1.24276e-05 -8.6825e-06 0.0866243)
(-4.44975e-06 -3.06423e-05 0.0823123)
(-2.79211e-05 -1.39764e-05 0.086188)
(5.15344e-05 7.93342e-05 0.069809)
(2.41191e-05 -3.93255e-05 0.0717443)
(-4.07177e-05 9.79464e-06 0.0773118)
(-2.53121e-05 -7.32541e-06 0.0919043)
(-1.80797e-05 -1.58414e-06 0.0905729)
(-3.21408e-05 1.13072e-05 0.079169)
(-2.911e-05 -1.20887e-05 0.0904187)
(1.22593e-05 -1.08239e-05 0.0792247)
(2.80927e-05 -1.91233e-05 0.0775123)
(-7.0328e-05 -5.90911e-05 0.0679529)
(-8.67815e-06 1.24962e-05 0.0866243)
(-3.07014e-05 -4.47202e-06 0.0823126)
(-1.39989e-05 -2.78943e-05 0.0861883)
(7.93582e-05 5.15313e-05 0.0698086)
(-3.9319e-05 2.40899e-05 0.0717438)
(3.12914e-06 2.99266e-06 0.0841685)
(-5.11301e-06 -1.75383e-07 0.068771)
(-6.68627e-09 -5.00629e-06 0.068763)
(6.66595e-06 5.79322e-06 0.0687352)
(5.75835e-06 6.49226e-06 0.0687325)
(1.35039e-05 1.34899e-05 0.084086)
(2.16813e-05 1.67901e-05 0.0920955)
(-2.91141e-05 -6.10598e-06 0.0825127)
(2.3668e-05 2.9877e-05 0.0878834)
(2.71421e-05 2.74704e-05 0.0967878)
(3.5133e-05 2.94261e-05 0.0966848)
(3.84496e-05 1.5748e-05 0.0816526)
(1.20277e-05 1.75841e-05 0.0922744)
(1.67415e-05 2.16283e-05 0.0920889)
(-6.0741e-06 -2.9079e-05 0.0825086)
(2.98554e-05 2.36732e-05 0.0878816)
(2.74213e-05 2.71581e-05 0.0967854)
(2.94152e-05 3.5171e-05 0.0966815)
(1.56913e-05 3.84055e-05 0.0816482)
(1.75455e-05 1.2025e-05 0.0922685)
(2.403e-05 -8.24711e-05 0.0774239)
(-9.62435e-06 -2.8299e-05 0.0919615)
(2.39182e-05 -6.11131e-05 0.0792087)
(-4.07362e-06 -1.47176e-05 0.0908146)
(-2.42985e-05 4.00587e-05 0.0794475)
(-1.41584e-05 -3.30603e-05 0.0905152)
(-2.86606e-05 7.45935e-05 0.0776682)
(0.000105176 0.000193646 0.0707353)
(-4.1029e-05 -2.62256e-06 0.0862389)
(-3.2827e-07 4.52902e-05 0.0837465)
(-0.000105093 -0.000166001 0.0672681)
(2.73743e-05 -1.43821e-05 0.0868204)
(-2.76026e-05 6.05329e-05 0.0776305)
(6.62027e-06 -2.0364e-05 0.0922586)
(-1.90576e-05 3.14132e-05 0.0793859)
(-1.44108e-05 -3.02333e-05 0.0904989)