/*--------------------------------*- C++ -*----------------------------------*\
| =========                 |                                                 |
| \\      /  F ield         | OpenFOAM: The Open Source CFD Toolbox           |
|  \\    /   O peration     | Version:  v2006                                 |
|   \\  /    A nd           | Website:  www.openfoam.com                      |
|    \\/     M anipulation  |                                                 |
\*---------------------------------------------------------------------------*/
FoamFile
{
    version     2.0;
    format      ascii;
    class       volVectorField;
    location    "625";
    object      U;
}
// * * * * * * * * * * * * * * * * * * * * * * * * * * * * * * * * * * * * * //

dimensions      [0 1 -1 0 0 0 0];


internalField   nonuniform List<vector> 
14457
(
(9.3861e-05 9.3914e-05 0.101892)
(9.00986e-05 -0.000152061 0.101957)
(0.00019895 0.000198849 0.101964)
(9.0059e-05 0.000152104 0.101957)
(0.000152045 9.01319e-05 0.101957)
(0.000152072 -9.0089e-05 0.101957)
(0.000198878 -0.000198957 0.101964)
(5.47844e-06 0.000258303 0.0958578)
(-7.94911e-06 0.000236302 0.100927)
(0.00025825 5.57747e-06 0.0958577)
(0.00023633 -7.93751e-06 0.100927)
(9.3896e-05 -9.38879e-05 0.101892)
(0.000149968 -7.71574e-05 0.0849754)
(0.000162789 -0.000219925 0.101142)
(7.73654e-05 0.000150072 0.0849776)
(0.000149963 7.73079e-05 0.0849762)
(7.93959e-05 0.000133039 0.0997188)
(0.000133081 7.93923e-05 0.0997181)
(0.00016275 0.000219905 0.101142)
(3.2152e-05 0.000165117 0.101923)
(1.10269e-05 0.000282643 0.101822)
(0.000219957 0.00016279 0.101142)
(0.000165095 3.20918e-05 0.101923)
(0.000282669 1.10286e-05 0.101822)
(0.000258012 -5.53712e-06 0.0958571)
(0.000236303 8.0021e-06 0.100927)
(0.000165095 -3.21402e-05 0.101923)
(0.000219889 -0.000162777 0.101141)
(0.000282662 -1.10275e-05 0.101822)
(0.000133161 -7.94989e-05 0.0997176)
(7.94486e-05 -0.000133159 0.0997192)
(7.72435e-05 -0.000150017 0.084977)
(5.51736e-06 -0.000258164 0.0958577)
(8.85384e-05 9.18266e-05 0.0808001)
(8.18252e-06 0.000113082 0.0993992)
(5.95558e-06 0.000237299 0.0957474)
(9.10078e-05 0.000106649 0.0811641)
(6.54407e-06 9.49294e-05 0.0993899)
(0.000115289 0.000214405 0.0922237)
(-7.39825e-06 0.000211132 0.100963)
(5.83739e-05 0.000295433 0.0942966)
(1.2237e-06 0.00020126 0.100657)
(0.000115922 0.000226134 0.0924521)
(5.70777e-05 0.000283893 0.0941128)
(5.82616e-07 0.000175245 0.100688)
(9.17973e-05 8.85511e-05 0.0808)
(0.000113058 8.11205e-06 0.0993996)
(0.000237155 6.0416e-06 0.0957467)
(0.000106626 9.10216e-05 0.0811643)
(9.48677e-05 6.45703e-06 0.0993896)
(0.000214464 0.000115385 0.0922237)
(0.000211171 -7.42201e-06 0.100963)
(0.000201301 1.31053e-06 0.100658)
(0.000295483 5.82738e-05 0.0942964)
(0.000226218 0.000116011 0.0924523)
(0.000175263 6.42166e-07 0.100688)
(0.000283961 5.69885e-05 0.0941129)
(0.000133991 -6.76892e-05 0.0846669)
(6.78867e-05 0.000134017 0.0846686)
(0.000133898 6.78159e-05 0.0846666)
(0.000170586 0.000161722 0.101092)
(0.000151012 0.000225658 0.101705)
(0.000121273 0.000308577 0.0952232)
(6.31137e-05 0.000121914 0.0997137)
(0.000187185 0.000193845 0.101053)
(0.000114401 0.000293787 0.0950751)
(0.00012656 0.000180996 0.101763)
(0.000161728 0.000170613 0.101092)
(0.000225559 0.000150877 0.101704)
(0.000308522 0.000121335 0.0952201)
(0.000121912 6.30955e-05 0.0997132)
(0.000193754 0.000187154 0.101051)
(0.000293779 0.000114484 0.095073)
(0.000180903 0.000126482 0.101763)
(3.15276e-05 3.16358e-05 0.098581)
(0.000156184 7.27228e-05 0.0821309)
(7.27604e-05 0.000156145 0.0821267)
(3.98697e-05 3.99875e-05 0.0986416)
(6.52689e-05 0.000143931 0.0817723)
(9.17528e-05 -8.84756e-05 0.0808018)
(0.000112999 -8.18857e-06 0.0993989)
(0.000237045 -5.967e-06 0.0957467)
(0.000106569 -9.09296e-05 0.0811654)
(9.48534e-05 -6.51875e-06 0.0993897)
(0.000214385 -0.000115464 0.0922238)
(0.000211249 7.43548e-06 0.100964)
(0.00029538 -5.84066e-05 0.0942955)
(0.000201218 -1.29398e-06 0.100656)
(0.000283987 -5.71058e-05 0.0941134)
(0.000225968 -0.000116083 0.0924502)
(0.000175322 -6.52105e-07 0.100689)
(0.000161715 -0.000170437 0.101092)
(0.000225654 -0.000150958 0.101704)
(0.000308683 -0.000121236 0.0952203)
(0.000122053 -6.31804e-05 0.0997132)
(0.000293683 -0.00011448 0.0950727)
(0.000193832 -0.000187081 0.101052)
(0.000181026 -0.000126471 0.101763)
(0.000170418 -0.000161683 0.101092)
(0.000150956 -0.000225613 0.101705)
(0.000121223 -0.000308612 0.0952237)
(6.31355e-05 -0.000121957 0.0997134)
(0.000126449 -0.000180924 0.101763)
(0.000187091 -0.00019388 0.101053)
(0.000114428 -0.00029356 0.0950752)
(3.15771e-05 -3.16241e-05 0.0985813)
(7.28008e-05 -0.000156181 0.0821269)
(0.000156125 -7.28106e-05 0.082131)
(3.9939e-05 -4.0004e-05 0.0986418)
(0.00014393 -6.51552e-05 0.081776)
(6.77504e-05 -0.000133957 0.0846674)
(8.85485e-05 -9.18908e-05 0.0808031)
(8.14171e-06 -0.000113016 0.0993979)
(5.95791e-06 -0.000237088 0.0957476)
(6.54021e-06 -9.49547e-05 0.0993917)
(9.09769e-05 -0.000106542 0.0811621)
(3.05746e-05 9.32268e-05 0.101854)
(9.32199e-05 3.0558e-05 0.101854)
(3.22918e-05 3.22732e-05 0.101818)
(0.000153423 0.000153273 0.101864)
(0.000199987 0.000188073 0.101934)
(0.000188081 0.000199914 0.101934)
(9.40162e-05 9.39482e-05 0.102013)
(0.00019122 0.000191142 0.101805)
(8.37921e-05 0.000152288 0.101989)
(0.000152326 8.37775e-05 0.101989)
(0.00015327 -0.000153304 0.101864)
(0.000188073 -0.000200001 0.101934)
(0.000199936 -0.000188104 0.101934)
(9.39725e-05 -9.39822e-05 0.102013)
(8.37164e-05 -0.000152281 0.101989)
(0.000191151 -0.000191218 0.101805)
(0.000152325 -8.37945e-05 0.101989)
(9.32314e-05 -3.05886e-05 0.101854)
(3.05686e-05 -9.3232e-05 0.101854)
(3.22863e-05 -3.23067e-05 0.101818)
(6.59758e-05 -0.000107885 0.101983)
(0.000104667 -0.000277952 0.101857)
(9.43423e-05 -0.000234284 0.101671)
(0.000147895 -0.000177191 0.1012)
(6.78767e-05 -0.000252428 0.101925)
(9.44392e-05 -0.000123138 0.101915)
(9.31828e-05 -0.000187937 0.101738)
(6.60244e-05 0.000107855 0.101983)
(0.00010466 0.000277984 0.101857)
(9.43877e-05 0.000234267 0.101671)
(9.32554e-05 0.00018786 0.101737)
(6.79046e-05 0.000252422 0.101925)
(9.44553e-05 0.000123174 0.101915)
(3.08147e-05 0.000128767 0.101989)
(1.14354e-05 0.000241892 0.101882)
(3.31439e-05 0.000266418 0.101791)
(1.20475e-05 0.000259882 0.101934)
(3.42027e-05 0.000223389 0.101853)
(3.09352e-05 0.00025874 0.101934)
(1.26013e-05 0.000136826 0.101989)
(0.000107889 6.59635e-05 0.101983)
(0.000277994 0.000104625 0.101857)
(0.000234332 9.43318e-05 0.101672)
(0.000177197 0.000147915 0.101199)
(0.000187905 9.31809e-05 0.101737)
(0.000252447 6.78377e-05 0.101925)
(0.000123164 9.44735e-05 0.101915)
(0.000128774 3.07668e-05 0.101989)
(0.000241924 1.14178e-05 0.101882)
(0.000266458 3.31588e-05 0.101791)
(0.00025988 1.20279e-05 0.101934)
(0.000223416 3.42031e-05 0.101853)
(0.000258754 3.08949e-05 0.101934)
(0.000136822 1.25753e-05 0.101989)
(0.000107864 -6.5993e-05 0.101983)
(0.000277946 -0.000104656 0.101857)
(0.000234276 -9.43262e-05 0.101671)
(0.000177206 -0.000147891 0.1012)
(0.000252433 -6.78678e-05 0.101925)
(0.000187877 -9.31821e-05 0.101737)
(0.000123127 -9.44671e-05 0.101915)
(0.000128748 -3.07954e-05 0.101989)
(0.000241934 -1.14415e-05 0.101882)
(0.00025989 -1.20446e-05 0.101934)
(0.000266398 -3.31656e-05 0.101791)
(0.000258721 -3.09172e-05 0.101934)
(0.000223391 -3.42178e-05 0.101854)
(0.000107945 0.000107901 0.100299)
(-0.000190207 0.000119268 0.100385)
(0.000119319 -0.000190207 0.100385)
(-0.000239584 -0.000239574 0.100397)
(9.42507e-05 9.42329e-05 0.10086)
(-0.000158956 9.67976e-05 0.100942)
(9.68132e-05 -0.000159001 0.100942)
(-0.000201068 -0.000201152 0.100968)
(0.000134949 0.000134976 0.100282)
(0.000124244 0.000152885 0.100229)
(-0.000124248 0.000152835 0.100229)
(-0.000134971 0.000134901 0.100282)
(0.000152888 0.00012422 0.100229)
(0.00015286 -0.000124246 0.100229)
(9.08003e-05 9.07617e-05 0.100151)
(-9.08036e-05 9.07436e-05 0.100151)
(9.0775e-05 -9.08064e-05 0.100151)
(-9.07738e-05 -9.07868e-05 0.100151)
(-0.000152905 0.000124181 0.100229)
(-0.00015287 -0.000124189 0.100229)
(0.000134936 -0.000134989 0.100282)
(0.000124211 -0.000152915 0.100229)
(-0.000124187 -0.000152862 0.100229)
(-0.000134958 -0.00013492 0.100282)
(0.000239615 0.000239634 0.100397)
(0.000111257 0.000111146 0.100892)
(0.000119381 0.000190143 0.100385)
(-0.000119364 0.00019009 0.100385)
(8.90591e-05 0.00014718 0.100823)
(-8.90808e-05 0.000147181 0.100823)
(-0.000239669 0.00023954 0.100397)
(-0.000111288 0.00011112 0.100892)
(0.000190205 0.000119299 0.100385)
(0.000190145 -0.000119345 0.100385)
(0.000147158 8.90349e-05 0.100823)
(0.000147211 -8.91274e-05 0.100823)
(-0.000190142 -0.000119353 0.100385)
(-0.000147178 8.90503e-05 0.100823)
(-0.000147224 -8.9112e-05 0.100823)
(0.000239562 -0.000239694 0.100397)
(0.000111238 -0.000111316 0.100892)
(-0.000119338 -0.000190167 0.100385)
(8.90837e-05 -0.000147237 0.100823)
(-8.90742e-05 -0.000147204 0.100823)
(-0.00011127 -0.000111334 0.100892)
(0.000201089 0.000200948 0.100967)
(9.67819e-05 0.00015897 0.100941)
(-9.68057e-05 0.000158954 0.100941)
(-0.000201136 0.000200911 0.100967)
(0.00015895 9.67904e-05 0.100942)
(0.00015899 -9.68481e-05 0.100942)
(-0.000159002 -9.68293e-05 0.100942)
(0.00020104 -0.000201158 0.100968)
(-9.6815e-05 -0.00015897 0.100942)
(-3.34705e-07 -3.36948e-07 0.0999988)
(1.68267e-05 1.68239e-05 0.100003)
(-4.5014e-07 1.39329e-05 0.1)
(1.39393e-05 -4.53701e-07 0.1)
(-4.65979e-05 5.73192e-06 0.100009)
(-1.52714e-05 1.55861e-05 0.0999999)
(-0.000127874 6.04439e-05 0.100058)
(-1.31107e-05 -8.63681e-07 0.0999958)
(5.73694e-06 -4.6588e-05 0.100009)
(1.55921e-05 -1.52731e-05 0.0999999)
(-8.60382e-07 -1.31109e-05 0.0999958)
(6.04514e-05 -0.00012794 0.100058)
(-1.8729e-05 -1.87308e-05 0.100003)
(-0.000134951 -8.10875e-05 0.100055)
(-8.1085e-05 -0.000134953 0.100055)
(-3.48941e-05 0.000135799 0.100724)
(0.000176676 0.000389385 0.0994172)
(2.31213e-06 0.000305475 0.100517)
(-8.43555e-05 0.000243766 0.0991473)
(-0.000303301 0.000837517 0.0977721)
(-0.000129137 0.000304569 0.0957185)
(0.000135818 -3.49471e-05 0.100724)
(0.000389002 0.000175824 0.0994172)
(0.000306004 2.29312e-06 0.100517)
(0.000243391 -8.39987e-05 0.0991472)
(-0.000107952 0.000107879 0.100299)
(0.000107919 -0.000107955 0.100299)
(-0.000107921 -0.000107932 0.100299)
(9.17264e-05 9.16771e-05 0.100739)
(-9.17361e-05 9.16865e-05 0.100739)
(9.17149e-05 -9.17629e-05 0.100739)
(-9.17246e-05 -9.17882e-05 0.100739)
(-0.000280742 6.44755e-06 0.100754)
(-0.000399025 0.000229265 0.100526)
(-0.000175285 3.73825e-05 0.100332)
(-0.00015325 9.44833e-05 0.100558)
(-0.00035899 1.5626e-05 0.100479)
(-0.000148753 0.000198749 0.100739)
(-0.000152725 3.32777e-05 0.100497)
(0.000837014 -0.000301662 0.0977705)
(0.000304782 -0.00012857 0.0957188)
(6.39347e-06 -0.000280741 0.100754)
(3.74136e-05 -0.000175281 0.100332)
(0.000229247 -0.000399136 0.100526)
(9.44939e-05 -0.000153256 0.100558)
(1.56588e-05 -0.000358951 0.100479)
(3.32993e-05 -0.000152737 0.100497)
(0.000198708 -0.000149012 0.100739)
(-0.000372834 -0.000141982 0.100361)
(-0.000141891 -0.000372783 0.100361)
(-0.000111966 -0.000112073 0.100655)
(1.09324e-05 -7.90016e-05 0.10059)
(-7.88956e-05 1.09767e-05 0.10059)
(-1.66563e-05 0.00019824 0.100867)
(-5.49744e-05 0.000288452 0.0983206)
(-2.04385e-05 0.000208676 0.100777)
(-4.49329e-05 0.000271326 0.0979448)
(-0.000150282 0.000313391 0.092621)
(-0.000137156 0.000273057 0.0909995)
(0.000198284 -1.67106e-05 0.100867)
(0.000288265 -5.48617e-05 0.0983206)
(0.000208747 -2.04788e-05 0.100777)
(0.000271157 -4.47734e-05 0.0979445)
(-9.4262e-05 9.42404e-05 0.10086)
(9.42653e-05 -9.42931e-05 0.10086)
(-9.42768e-05 -9.43101e-05 0.10086)
(-0.000263626 1.32978e-05 0.101153)
(-0.000219092 0.000214241 0.100819)
(-0.000164533 3.10458e-05 0.100897)
(-0.000160213 9.74189e-05 0.101064)
(-0.000298004 1.41274e-05 0.100977)
(-0.000183252 0.000197867 0.100945)
(-0.000168739 3.24857e-05 0.101019)
(0.000313463 -0.000150005 0.0926202)
(0.000273168 -0.000136909 0.091)
(1.33014e-05 -0.000263625 0.101153)
(3.10707e-05 -0.000164554 0.100897)
(0.000214258 -0.000219157 0.100819)
(9.74148e-05 -0.000160245 0.101064)
(1.4127e-05 -0.000297996 0.100977)
(3.25071e-05 -0.000168753 0.101019)
(0.000197815 -0.000183295 0.100945)
(-8.39527e-05 -9.7249e-05 0.100438)
(-9.71901e-05 -8.3919e-05 0.100438)
(-0.00011249 -0.000112526 0.101144)
(-8.67514e-05 -8.27272e-05 0.10043)
(-8.26312e-05 -8.67138e-05 0.10043)
(1.87268e-05 1.87189e-05 0.100003)
(8.09932e-05 0.000134937 0.100054)
(0.000134961 8.10319e-05 0.100055)
(0.000413587 0.00104175 0.0978825)
(0.000115081 0.000204243 0.100125)
(0.00104093 0.000411148 0.0978826)
(0.000204283 0.000115093 0.100125)
(0.000102442 0.000102429 0.100042)
(0.000116863 0.000513187 0.10028)
(0.000512272 0.000116424 0.100279)
(0.000117337 0.000180413 0.100096)
(0.000180429 0.000117352 0.100096)
(5.73511e-06 4.6578e-05 0.100009)
(1.55936e-05 1.52674e-05 0.0999999)
(6.04398e-05 0.000127832 0.100058)
(-8.60266e-07 1.31041e-05 0.0999958)
(-5.7259e-06 4.65778e-05 0.100009)
(-1.55926e-05 1.52645e-05 0.0999999)
(-6.04435e-05 0.000127843 0.100058)
(8.62141e-07 1.31035e-05 0.0999958)
(4.59978e-06 0.000154602 0.100054)
(0.000326244 0.000315047 0.0993593)
(9.83839e-05 0.000167667 0.100055)
(7.37646e-06 0.000327283 0.100419)
(-4.58615e-06 0.000154611 0.100054)
(-0.000326895 0.000314931 0.099359)
(-9.837e-05 0.000167729 0.100056)
(-7.39258e-06 0.000327164 0.100419)
(1.38427e-05 0.000160293 0.100055)
(6.2475e-05 8.73124e-05 0.100031)
(0.000206563 0.000375904 0.100428)
(3.28773e-05 0.000155345 0.100173)
(9.68783e-05 0.000162627 0.100054)
(1.25301e-05 6.53548e-05 0.100026)
(1.27149e-05 0.000318371 0.100356)
(-1.38217e-05 0.000160288 0.100055)
(-6.24745e-05 8.73012e-05 0.100031)
(-0.000206572 0.00037584 0.100428)
(-3.28601e-05 0.00015534 0.100173)
(-9.68711e-05 0.00016261 0.100054)
(-1.25232e-05 6.5354e-05 0.100026)
(-1.2725e-05 0.000318269 0.100356)
(-1.87258e-05 1.87148e-05 0.100003)
(-8.10015e-05 0.000134947 0.100055)
(-0.000134978 8.10526e-05 0.100055)
(-0.000413651 0.00104194 0.0978825)
(-0.000115066 0.000204252 0.100125)
(-0.000102447 0.000102416 0.100042)
(-0.000116776 0.000513309 0.100279)
(-0.00051213 0.000116331 0.100279)
(-0.00011733 0.000180362 0.100096)
(-0.000180433 0.000117399 0.100096)
(-0.00104073 0.000410655 0.0978823)
(-0.000204296 0.000115124 0.100125)
(4.65954e-05 5.7302e-06 0.100009)
(1.52702e-05 1.55891e-05 0.0999999)
(0.000127869 6.04367e-05 0.100058)
(1.31095e-05 -8.6431e-07 0.0999958)
(4.65973e-05 -5.72796e-06 0.100009)
(1.52691e-05 -1.55941e-05 0.0999999)
(1.31106e-05 8.58437e-07 0.0999958)
(0.000127862 -6.0448e-05 0.100058)
(0.000154665 4.60047e-06 0.100054)
(0.000314664 0.000325129 0.0993589)
(0.000167764 9.8311e-05 0.100055)
(0.000327966 7.34456e-06 0.100419)
(0.000160392 1.38324e-05 0.100055)
(8.73361e-05 6.24563e-05 0.100031)
(0.000375964 0.000206235 0.100428)
(0.000155431 3.28453e-05 0.100173)
(0.000162656 9.68517e-05 0.100054)
(6.53863e-05 1.25191e-05 0.100026)
(0.000318696 1.26701e-05 0.100356)
(0.000154668 -4.5745e-06 0.100054)
(0.000313678 -0.000325245 0.0993589)
(0.000167697 -9.83259e-05 0.100055)
(0.000327887 -7.24841e-06 0.100419)
(0.000160376 -1.38139e-05 0.100055)
(8.73272e-05 -6.24809e-05 0.100031)
(0.00015541 -3.28618e-05 0.100173)
(0.000375869 -0.000206369 0.100428)
(6.53809e-05 -1.2526e-05 0.100026)
(0.000162611 -9.68708e-05 0.100054)
(0.000318584 -1.26451e-05 0.100357)
(3.34775e-07 -3.36828e-07 0.0999988)
(-1.68269e-05 1.68203e-05 0.100003)
(4.52253e-07 1.39325e-05 0.1)
(-1.39406e-05 -4.53044e-07 0.1)
(-3.34718e-07 3.32405e-07 0.0999988)
(1.6826e-05 -1.68279e-05 0.100003)
(1.39394e-05 4.49638e-07 0.1)
(-4.50629e-07 -1.39404e-05 0.1)
(3.34663e-07 3.324e-07 0.0999988)
(-1.68265e-05 -1.68245e-05 0.100003)
(-1.39404e-05 4.50241e-07 0.1)
(4.53036e-07 -1.394e-05 0.1)
(9.62279e-06 9.61101e-06 0.100016)
(4.53791e-05 4.53594e-05 0.100015)
(2.90197e-05 8.47481e-05 0.100134)
(8.47937e-05 2.89913e-05 0.100134)
(1.06428e-05 3.72803e-05 0.100014)
(3.72983e-05 1.06325e-05 0.100014)
(2.75866e-05 2.75536e-05 0.100121)
(-9.62399e-06 9.61066e-06 0.100016)
(-4.53796e-05 4.53541e-05 0.100015)
(-2.90207e-05 8.47423e-05 0.100134)
(-8.47995e-05 2.89868e-05 0.100134)
(-1.06412e-05 3.72786e-05 0.100014)
(-3.73003e-05 1.06307e-05 0.100014)
(-2.75911e-05 2.75525e-05 0.100121)
(9.62263e-06 -9.63172e-06 0.100016)
(4.53716e-05 -4.53834e-05 0.100015)
(8.47852e-05 -2.90383e-05 0.100134)
(2.90177e-05 -8.48042e-05 0.100134)
(3.72959e-05 -1.06477e-05 0.100014)
(1.06416e-05 -3.7302e-05 0.100014)
(2.75861e-05 -2.76129e-05 0.100121)
(-9.62324e-06 -9.63126e-06 0.100016)
(-4.53708e-05 -4.53778e-05 0.100015)
(-8.47907e-05 -2.90338e-05 0.100134)
(-2.90152e-05 -8.47977e-05 0.100134)
(-3.7298e-05 -1.06458e-05 0.100014)
(-1.06388e-05 -3.73001e-05 0.100014)
(-2.75889e-05 -2.76116e-05 0.100121)
(-4.65921e-05 -5.71886e-06 0.100009)
(-1.52721e-05 -1.55903e-05 0.0999999)
(-1.31107e-05 8.58737e-07 0.0999958)
(-0.000127863 -6.04688e-05 0.100058)
(-0.000160424 1.38285e-05 0.100055)
(-8.73369e-05 6.24466e-05 0.100031)
(-0.00037597 0.000206199 0.100428)
(-0.000155443 3.28407e-05 0.100173)
(-0.000162663 9.68739e-05 0.100054)
(-6.53917e-05 1.25177e-05 0.100026)
(-0.000318771 1.26308e-05 0.100357)
(-0.000154725 4.60612e-06 0.100054)
(-0.000314744 0.000325094 0.0993593)
(-0.000167771 9.8329e-05 0.100055)
(-0.000328169 7.23816e-06 0.100419)
(-0.0001604 -1.38018e-05 0.100055)
(-8.73243e-05 -6.24757e-05 0.100031)
(-0.000155428 -3.28512e-05 0.100173)
(-0.000375824 -0.000206291 0.100428)
(-6.53879e-05 -1.25225e-05 0.100026)
(-0.000162616 -9.68923e-05 0.100054)
(-0.000318667 -1.26502e-05 0.100357)
(-0.000154703 -4.55152e-06 0.100054)
(-0.000313722 -0.000325112 0.0993586)
(-0.0001677 -9.83552e-05 0.100055)
(-0.000328043 -7.25346e-06 0.100419)
(1.8724e-05 -1.87289e-05 0.100003)
(0.00013493 -8.10476e-05 0.100055)
(8.10448e-05 -0.000134988 0.100055)
(0.00104042 -0.00041114 0.0978825)
(0.000204249 -0.000115092 0.100125)
(0.000102443 -0.000102458 0.100042)
(0.000512 -0.000116708 0.10028)
(0.000116717 -0.00051222 0.100279)
(0.000180392 -0.000117367 0.100096)
(0.000117379 -0.000180473 0.100096)
(0.00041148 -0.00104106 0.097883)
(0.000115078 -0.000204365 0.100125)
(-5.71889e-06 -4.65835e-05 0.100009)
(-1.55896e-05 -1.52707e-05 0.0999999)
(8.63127e-07 -1.31103e-05 0.0999958)
(-6.04678e-05 -0.00012786 0.100058)
(1.38418e-05 -0.000160393 0.100055)
(6.24702e-05 -8.73414e-05 0.100031)
(3.28659e-05 -0.000155433 0.100173)
(0.000206218 -0.000375957 0.100428)
(1.25273e-05 -6.53873e-05 0.100026)
(9.68897e-05 -0.000162714 0.100054)
(1.26708e-05 -0.00031869 0.100356)
(-1.38061e-05 -0.000160377 0.100055)
(-6.24742e-05 -8.73299e-05 0.100031)
(-3.28465e-05 -0.000155425 0.100173)
(-0.00020629 -0.000375788 0.100428)
(-1.25194e-05 -6.53854e-05 0.100026)
(-9.69094e-05 -0.000162633 0.100054)
(-1.26556e-05 -0.000318583 0.100356)
(4.60809e-06 -0.000154661 0.100054)
(0.00032488 -0.000313992 0.0993594)
(9.83441e-05 -0.000167844 0.100056)
(7.32779e-06 -0.000327975 0.100419)
(-4.56166e-06 -0.000154662 0.100054)
(-0.000325196 -0.00031425 0.0993587)
(-9.83712e-05 -0.000167749 0.100056)
(-7.32209e-06 -0.000327855 0.100419)
(-0.00010244 -0.000102441 0.100042)
(-0.000511806 -0.000116607 0.100279)
(-0.000116545 -0.000511777 0.100279)
(-0.000180417 -0.0001174 0.100096)
(-0.000117437 -0.000180411 0.100096)
(-0.00104022 -0.000410676 0.0978822)
(-0.000204262 -0.000115156 0.100125)
(-0.000410704 -0.00104018 0.0978822)
(-0.000115161 -0.000204269 0.100125)
(0.000303417 0.000837597 0.0977722)
(0.000129165 0.000304268 0.095719)
(0.000836751 0.000301378 0.0977709)
(0.000304542 0.000128834 0.0957191)
(0.000142219 0.000373396 0.100361)
(0.000372666 0.000142041 0.10036)
(0.000112056 0.000111919 0.100655)
(7.92038e-05 -1.14867e-05 0.10059)
(-1.11881e-05 7.89801e-05 0.10059)
(0.000153027 0.000321809 0.0932431)
(0.000168361 0.000342285 0.0950103)
(0.000321753 0.000152594 0.0932421)
(0.00034227 0.000167801 0.0950102)
(0.000185326 0.000185164 0.100733)
(8.09153e-05 6.57239e-05 0.100487)
(6.58154e-05 8.07874e-05 0.100487)
(8.66928e-05 3.53697e-05 0.100515)
(3.54576e-05 8.64675e-05 0.100515)
(3.48236e-05 0.000135931 0.100723)
(-0.000177187 0.000389213 0.099417)
(-2.36965e-06 0.000305399 0.100517)
(8.39629e-05 0.000243736 0.0991467)
(6.45523e-06 0.00028066 0.100753)
(0.000229462 0.000399059 0.100526)
(3.74608e-05 0.000175172 0.100332)
(9.45415e-05 0.0001532 0.100558)
(1.57099e-05 0.00035867 0.100479)
(0.000198562 0.0001489 0.100739)
(3.33007e-05 0.00015265 0.100497)
(-6.36153e-06 0.000280617 0.100753)
(-0.000229574 0.000399003 0.100526)
(-3.74467e-05 0.000175138 0.100332)
(-9.45619e-05 0.000153195 0.100558)
(-1.56793e-05 0.000358565 0.100479)
(-0.000198609 0.000148987 0.100739)
(-3.33169e-05 0.000152636 0.100497)
(-3.37528e-05 0.000154404 0.100721)
(-5.69626e-05 0.000266713 0.0984867)
(-5.92917e-05 0.000258931 0.0989111)
(-2.15709e-05 0.000177046 0.10077)
(3.36218e-05 0.000154533 0.100721)
(5.69089e-05 0.00026668 0.0984862)
(5.90104e-05 0.000258971 0.0989107)
(2.14258e-05 0.000177086 0.10077)
(8.39689e-06 0.000292563 0.100793)
(8.02131e-05 0.000133424 0.100702)
(0.000202066 0.000175779 0.100804)
(2.888e-05 0.000152234 0.100776)
(0.00020513 0.000174321 0.100724)
(2.86938e-05 0.000141157 0.100647)
(1.46102e-05 0.000263446 0.100923)
(-8.37862e-06 0.000292563 0.100793)
(-8.02366e-05 0.000133436 0.100702)
(-0.000202036 0.000175809 0.100804)
(-2.89235e-05 0.000152247 0.100776)
(-0.000205145 0.000174467 0.100724)
(-2.87259e-05 0.000141162 0.100647)
(-1.46625e-05 0.000263454 0.100923)
(-0.000142166 0.000373302 0.100361)
(-0.000372666 0.000141967 0.100361)
(-0.000112076 0.000111912 0.100655)
(-7.9294e-05 -1.13358e-05 0.10059)
(1.12313e-05 7.89247e-05 0.10059)
(-0.000836708 0.000301073 0.0977711)
(-0.000304396 0.000128673 0.0957187)
(-0.00015269 0.000321663 0.0932421)
(-0.000168186 0.000342468 0.0950102)
(-0.000185376 0.000185149 0.100733)
(-8.09356e-05 6.56149e-05 0.100487)
(-6.58366e-05 8.07501e-05 0.100487)
(-8.67353e-05 3.54503e-05 0.100515)
(-3.55467e-05 8.64935e-05 0.100515)
(-0.000321796 0.000152571 0.0932423)
(-0.000342284 0.000167766 0.0950107)
(0.000280727 6.3861e-06 0.100754)
(0.000399077 0.00022927 0.100526)
(0.000175271 3.73862e-05 0.100332)
(0.000153254 9.44839e-05 0.100558)
(0.000358931 1.5667e-05 0.100479)
(0.000148823 0.000198666 0.100739)
(0.000152712 3.32856e-05 0.100497)
(0.000136001 3.50101e-05 0.100724)
(0.000388163 -0.000176346 0.0994167)
(0.000306002 -2.21923e-06 0.100517)
(0.000242932 8.40174e-05 0.0991471)
(0.000280688 -6.36263e-06 0.100754)
(0.000175239 -3.74521e-05 0.100332)
(0.000399153 -0.000229468 0.100526)
(0.000153217 -9.45388e-05 0.100558)
(0.000358814 -1.56257e-05 0.100479)
(0.000152687 -3.33244e-05 0.100497)
(0.000149 -0.000198692 0.100739)
(0.000154405 -3.37831e-05 0.100721)
(0.000266473 -5.69164e-05 0.0984863)
(0.000258613 -5.91291e-05 0.0989111)
(0.000177131 -2.16241e-05 0.10077)
(0.000292618 8.33427e-06 0.100793)
(0.000133418 8.0172e-05 0.100702)
(0.000175746 0.000202107 0.100804)
(0.000152265 2.88602e-05 0.100776)
(0.00017429 0.0002052 0.100724)
(0.000141181 2.86934e-05 0.100647)
(0.000263534 1.45418e-05 0.100923)
(0.000154528 3.38175e-05 0.100721)
(0.000266126 5.68584e-05 0.0984864)
(0.00025818 5.90998e-05 0.0989106)
(0.000177221 2.15762e-05 0.10077)
(0.00029261 -8.36697e-06 0.100793)
(0.00013344 -8.02413e-05 0.100702)
(0.000152262 -2.8937e-05 0.100776)
(0.000175827 -0.000202184 0.100804)
(0.000141165 -2.87366e-05 0.100647)
(0.00017442 -0.000205232 0.100724)
(0.000263568 -1.46564e-05 0.100923)
(-0.000135804 -3.49089e-05 0.100724)
(-0.000389045 0.000175889 0.0994172)
(-0.000306148 2.17429e-06 0.100517)
(-0.000243391 -8.40711e-05 0.0991475)
(-0.000280686 -6.3067e-06 0.100753)
(-0.000175249 -3.74407e-05 0.100332)
(-0.000399087 -0.000229418 0.100526)
(-0.000153213 -9.44744e-05 0.100558)
(-0.000358884 -1.56314e-05 0.100479)
(-0.000152694 -3.33111e-05 0.100497)
(-0.000148993 -0.000198858 0.100739)
(-0.000135879 3.49078e-05 0.100724)
(-0.000388227 -0.00017621 0.0994169)
(-0.000306016 -2.25712e-06 0.100517)
(-0.000242969 8.38738e-05 0.0991468)
(-0.000292645 8.38878e-06 0.100793)
(-0.000133443 8.0193e-05 0.100702)
(-0.000175739 0.000202145 0.100804)
(-0.000152287 2.88668e-05 0.100776)
(-0.000174249 0.000205316 0.100724)
(-0.000141204 2.86932e-05 0.100647)
(-0.000263578 1.45903e-05 0.100923)
(-0.0001544 -3.37773e-05 0.100721)
(-0.000266511 -5.68572e-05 0.0984868)
(-0.000258614 -5.9098e-05 0.0989109)
(-0.000177144 -2.16295e-05 0.10077)
(-0.000292625 -8.32703e-06 0.100793)
(-0.000133451 -8.02039e-05 0.100702)
(-0.000152287 -2.89287e-05 0.100776)
(-0.000175823 -0.000202241 0.100804)
(-0.000141188 -2.87234e-05 0.100647)
(-0.000174434 -0.000205423 0.100724)
(-0.000263578 -1.46275e-05 0.100923)
(-0.000154503 3.3704e-05 0.100721)
(-0.000266177 5.68406e-05 0.0984862)
(-0.00025825 5.898e-05 0.098911)
(-0.000177136 2.14874e-05 0.10077)
(0.000372974 -0.000142111 0.10036)
(0.000142225 -0.000372772 0.100361)
(0.000111948 -0.000112052 0.100655)
(-1.09896e-05 -7.90304e-05 0.10059)
(7.89309e-05 1.1112e-05 0.10059)
(0.000301665 -0.000837047 0.0977713)
(0.000128662 -0.00030459 0.095719)
(0.00032195 -0.000152539 0.0932424)
(0.00034257 -0.000167681 0.0950093)
(0.000185209 -0.000185369 0.100733)
(6.59502e-05 -8.11295e-05 0.100488)
(8.09574e-05 -6.5983e-05 0.100487)
(3.56861e-05 -8.6596e-05 0.100514)
(8.65313e-05 -3.56806e-05 0.100515)
(0.000152753 -0.000322059 0.093243)
(0.000167811 -0.000342513 0.0950101)
(-6.33846e-06 -0.00028069 0.100753)
(-3.73998e-05 -0.000175255 0.100332)
(-0.000229374 -0.000399004 0.100526)
(-9.44369e-05 -0.00015324 0.100558)
(-1.56397e-05 -0.000358846 0.100479)
(-3.33347e-05 -0.000152732 0.100497)
(-0.000198763 -0.000148963 0.100739)
(-3.48815e-05 -0.000135903 0.100724)
(0.000175676 -0.000388426 0.0994172)
(2.23035e-06 -0.000306082 0.100517)
(-8.42955e-05 -0.000243072 0.0991476)
(3.49375e-05 -0.00013599 0.100724)
(-0.000176278 -0.000388644 0.099417)
(-2.2896e-06 -0.000306015 0.100517)
(8.38617e-05 -0.000243326 0.0991467)
(8.35625e-06 -0.000292652 0.100793)
(8.02111e-05 -0.000133472 0.100702)
(2.8891e-05 -0.0001523 0.100776)
(0.000202213 -0.000175859 0.100804)
(2.8709e-05 -0.000141213 0.100647)
(0.000205299 -0.000174483 0.100724)
(1.45816e-05 -0.000263564 0.100923)
(-8.34682e-06 -0.000292636 0.100793)
(-8.01629e-05 -0.000133461 0.100702)
(-2.89402e-05 -0.000152298 0.100776)
(-0.000202182 -0.000175797 0.100804)
(-2.87642e-05 -0.000141202 0.100647)
(-0.000205325 -0.000174417 0.100724)
(-1.46125e-05 -0.000263598 0.100923)
(-3.37195e-05 -0.00015452 0.100721)
(-5.68174e-05 -0.000266269 0.0984871)
(-5.92478e-05 -0.000258346 0.0989111)
(-2.15572e-05 -0.000177151 0.10077)
(3.37538e-05 -0.000154564 0.100721)
(5.67533e-05 -0.000266409 0.0984861)
(5.89755e-05 -0.000258586 0.0989109)
(2.15496e-05 -0.000177185 0.10077)
(-0.00083681 -0.000301265 0.0977708)
(-0.000304737 -0.000128499 0.0957186)
(-0.000301367 -0.000836764 0.0977708)
(-0.0001286 -0.00030472 0.0957183)
(-0.00018527 -0.000185393 0.100733)
(-6.59458e-05 -8.09337e-05 0.100487)
(-8.08484e-05 -6.59171e-05 0.100487)
(-3.57369e-05 -8.66163e-05 0.100515)
(-8.65113e-05 -3.57075e-05 0.100515)
(-0.000321893 -0.000152382 0.0932424)
(-0.000342532 -0.000167599 0.0950103)
(-0.000152526 -0.000321823 0.0932419)
(-0.000167689 -0.00034251 0.0950101)
(0.000150448 0.000313418 0.0926216)
(0.000137243 0.000273092 0.0910007)
(0.000313437 0.000150143 0.0926208)
(0.000273055 0.000137029 0.0909996)
(9.71807e-05 8.36832e-05 0.100438)
(8.3866e-05 9.70874e-05 0.100438)
(0.000112471 0.000112372 0.101144)
(8.27242e-05 8.66113e-05 0.10043)
(8.6722e-05 8.26166e-05 0.10043)
(0.000138101 0.000270209 0.0904135)
(0.000270158 0.000137909 0.0904125)
(0.000203628 0.000203506 0.10122)
(9.63721e-05 0.000102803 0.100349)
(0.00010293 9.63505e-05 0.100349)
(1.65596e-05 0.000198259 0.100867)
(5.48126e-05 0.000288432 0.0983204)
(2.03162e-05 0.000208721 0.100777)
(4.47441e-05 0.000271263 0.0979442)
(1.33379e-05 0.000263554 0.101153)
(0.000214104 0.000219109 0.100818)
(3.10784e-05 0.000164488 0.100897)
(9.73947e-05 0.000160238 0.101064)
(1.41703e-05 0.000297895 0.100977)
(0.000197732 0.000183295 0.100945)
(3.25271e-05 0.000168713 0.101019)
(-1.33855e-05 0.000263567 0.101153)
(-0.000214122 0.000219155 0.100818)
(-3.1113e-05 0.000164491 0.100897)
(-9.74316e-05 0.000160229 0.101064)
(-1.42195e-05 0.000297917 0.100977)
(-0.000197775 0.000183299 0.100945)
(-3.25607e-05 0.000168718 0.101019)
(-1.56619e-05 0.000222691 0.10086)
(-3.85743e-05 0.00028812 0.0977541)
(1.55629e-05 0.000222737 0.10086)
(3.83969e-05 0.000288079 0.0977537)
(1.29343e-05 0.000294391 0.101202)
(9.5584e-05 0.000158217 0.101191)
(0.000203969 0.000221153 0.100941)
(3.29229e-05 0.000168592 0.101146)
(-1.29892e-05 0.000294413 0.101202)
(-9.56184e-05 0.000158215 0.101191)
(-0.000204015 0.000221192 0.100941)
(-3.29459e-05 0.000168593 0.101146)
(-9.72583e-05 8.36723e-05 0.100438)
(-8.38935e-05 9.70884e-05 0.100438)
(-0.00011249 0.000112382 0.101144)
(-8.27573e-05 8.66074e-05 0.10043)
(-8.66549e-05 8.25824e-05 0.10043)
(-0.000313475 0.000150147 0.0926216)
(-0.000273039 0.000136995 0.0909999)
(-0.000138021 0.000270192 0.0904127)
(-0.000203665 0.000203502 0.10122)
(-9.64404e-05 0.000102836 0.100349)
(-0.000102911 9.63157e-05 0.10035)
(-0.000270151 0.000137868 0.0904133)
(0.000263617 1.32782e-05 0.101153)
(0.000219127 0.000214171 0.100819)
(0.00016453 3.10356e-05 0.100897)
(0.000160209 9.74207e-05 0.101064)
(0.000297976 1.41072e-05 0.100977)
(0.000183294 0.000197831 0.100945)
(0.000168735 3.24768e-05 0.101019)
(0.000198378 1.67207e-05 0.100868)
(0.000287887 5.48587e-05 0.0983203)
(0.000208795 2.04751e-05 0.100777)
(0.000270839 4.48031e-05 0.0979446)
(0.000263648 -1.3355e-05 0.101153)
(0.000164514 -3.1126e-05 0.100897)
(0.00021915 -0.000214224 0.100818)
(0.000160239 -9.74574e-05 0.101064)
(0.000298003 -1.42004e-05 0.100977)
(0.000168725 -3.25634e-05 0.101019)
(0.000183285 -0.000197835 0.100945)
(0.000222713 -1.56894e-05 0.10086)
(0.00028796 -3.84176e-05 0.097754)
(0.000294439 1.28941e-05 0.101202)
(0.000158179 9.56224e-05 0.101191)