/*--------------------------------*- C++ -*----------------------------------*\
| =========                 |                                                 |
| \\      /  F ield         | OpenFOAM: The Open Source CFD Toolbox           |
|  \\    /   O peration     | Version:  v2012                                 |
|   \\  /    A nd           | Website:  www.openfoam.com                      |
|    \\/     M anipulation  |                                                 |
\*---------------------------------------------------------------------------*/
FoamFile
{
    version     2.0;
    format      ascii;
    class       volScalarField;
    location    "212.5";
    object      epsilon;
}
// * * * * * * * * * * * * * * * * * * * * * * * * * * * * * * * * * * * * * //

dimensions      [0 2 -3 0 0 0 0];


internalField   nonuniform List<scalar> 
171728
(
9.46562e-09
3.56574e-09
4.88339e-09
4.99175e-09
9.37588e-09
3.30704e-09
4.47735e-09
4.56093e-09
9.48352e-09
3.08084e-09
4.12791e-09
4.17064e-09
9.60118e-09
2.88736e-09
3.8397e-09
3.83346e-09
9.73187e-09
2.71899e-09
3.61126e-09
3.53419e-09
9.87436e-09
2.5911e-09
3.42238e-09
3.27864e-09
1.00304e-08
2.50618e-09
3.26865e-09
3.06453e-09
1.01995e-08
2.45997e-09
3.16555e-09
2.8977e-09
1.03803e-08
2.46148e-09
3.11895e-09
2.77168e-09
1.05712e-08
2.50221e-09
3.11372e-09
2.68091e-09
1.07754e-08
2.5853e-09
3.14945e-09
2.62595e-09
1.0992e-08
2.71516e-09
3.23547e-09
2.60954e-09
1.12153e-08
2.90194e-09
3.37508e-09
2.63754e-09
1.14496e-08
3.15273e-09
3.58517e-09
2.72307e-09
1.16905e-08
3.48049e-09
3.88507e-09
2.89532e-09
1.19433e-08
3.92766e-09
4.30094e-09
3.20011e-09
1.21995e-08
4.57556e-09
4.90936e-09
3.71368e-09
1.24631e-08
5.52534e-09
5.78484e-09
4.59893e-09
1.27372e-08
6.74843e-09
7.0607e-09
6.06275e-09
1.30242e-08
8.73501e-09
8.97548e-09
8.73547e-09
1.33301e-08
1.12572e-08
1.1737e-08
1.30065e-08
1.36751e-08
1.53225e-08
1.53712e-08
2.00696e-08
1.40528e-08
2.0415e-08
2.0486e-08
3.40092e-08
1.45047e-08
2.77391e-08
2.83056e-08
4.93988e-08
1.50075e-08
3.68411e-08
3.68675e-08
8.51985e-08
1.56399e-08
4.85327e-08
4.88544e-08
1.13264e-07
1.64349e-08
6.43737e-08
6.47714e-08
1.72195e-07
1.7407e-08
8.14406e-08
8.1626e-08
2.33416e-07
1.86392e-08
1.04067e-07
1.04311e-07
3.08789e-07
2.01629e-08
1.27332e-07
1.27802e-07
3.87589e-07
2.20848e-08
1.56756e-07
1.55833e-07
4.67666e-07
2.44929e-08
1.87476e-07
1.87386e-07
5.42625e-07
2.7478e-08
2.25766e-07
2.22622e-07
6.1338e-07
3.12156e-08
2.61206e-07
2.61057e-07
6.77059e-07
3.57764e-08
3.02143e-07
3.02583e-07
7.35278e-07
4.13412e-08
3.47571e-07
3.47261e-07
7.86471e-07
4.80238e-08
3.90798e-07
3.94148e-07
8.30756e-07
5.5979e-08
4.37425e-07
4.37941e-07
8.73348e-07
6.52667e-08
4.84224e-07
4.86736e-07
9.10929e-07
7.64778e-08
5.31935e-07
5.34708e-07
9.44096e-07
8.90449e-08
5.77936e-07
5.81073e-07
9.7504e-07
1.03811e-07
6.23824e-07
6.25419e-07
1.00077e-06
1.20428e-07
6.64648e-07
6.66048e-07
1.02289e-06
1.39678e-07
7.08301e-07
7.09015e-07
1.05011e-06
1.6335e-07
7.51169e-07
7.51294e-07
1.07975e-06
1.82786e-07
7.70765e-07
7.70975e-07
1.08425e-06
1.93245e-07
7.73081e-07
7.7338e-07
1.06889e-06
2.0117e-07
7.72577e-07
7.72834e-07
1.04942e-06
2.18801e-07
7.89844e-07
7.89992e-07
1.05049e-06
2.55197e-07
8.25981e-07
8.26076e-07
1.07603e-06
3.05672e-07
8.70732e-07
8.70833e-07
1.11748e-06
3.59867e-07
9.17082e-07
9.17177e-07
1.16969e-06
4.00237e-07
9.49371e-07
9.49466e-07
1.20973e-06
4.22181e-07
9.66467e-07
9.66565e-07
1.23276e-06
4.31884e-07
9.74018e-07
9.74122e-07
1.24373e-06
4.3563e-07
9.77041e-07
9.77142e-07
1.24837e-06
4.36957e-07
9.78187e-07
9.78285e-07
1.25031e-06
4.37277e-07
9.78448e-07
9.78546e-07
1.25082e-06
4.37282e-07
9.78395e-07
9.78495e-07
1.25066e-06
4.37335e-07
9.78488e-07
9.78586e-07
1.25079e-06
4.37336e-07
9.78481e-07
9.78578e-07
1.25088e-06
4.37312e-07
9.78435e-07
9.78534e-07
1.25068e-06
4.37324e-07
9.78479e-07
9.78577e-07
1.25093e-06
4.37315e-07
9.78439e-07
9.78538e-07
1.25071e-06
4.37318e-07
9.78467e-07
9.78566e-07
1.25088e-06
4.37317e-07
9.78444e-07
9.78547e-07
1.2507e-06
4.37318e-07
9.78455e-07
9.78553e-07
1.25087e-06
4.37318e-07
9.78453e-07
9.78554e-07
1.25078e-06
4.37316e-07
9.78452e-07
9.78551e-07
1.25078e-06
4.37315e-07
9.78451e-07
9.78551e-07
1.25083e-06
4.37314e-07
9.78453e-07
9.78554e-07
1.25084e-06
4.37314e-07
9.78449e-07
9.78551e-07
1.25076e-06
4.37312e-07
9.78449e-07
9.78549e-07
1.2508e-06
4.37311e-07
9.78454e-07
9.78554e-07
1.25086e-06
4.3731e-07
9.78454e-07
9.78557e-07
1.25081e-06
4.37311e-07
9.78448e-07
9.78551e-07
1.25076e-06
4.37309e-07
9.78454e-07
9.78553e-07
1.2508e-06
4.37308e-07
9.78455e-07
9.78552e-07
1.25086e-06
4.37306e-07
9.78447e-07
9.78546e-07
1.25077e-06
4.37305e-07
9.78457e-07
9.7855e-07
1.25079e-06
4.37304e-07
9.78453e-07
9.78547e-07
1.25087e-06
4.37303e-07
9.78447e-07
9.78549e-07
1.25083e-06
4.37303e-07
9.78453e-07
9.78552e-07
1.25074e-06
4.37304e-07
9.7845e-07
9.78553e-07
1.25074e-06
4.37303e-07
9.7845e-07
9.78554e-07
1.25079e-06
4.37303e-07
9.78455e-07
9.78557e-07
1.25075e-06
4.37302e-07
9.78454e-07
9.78559e-07
1.2507e-06
4.37303e-07
9.78463e-07
9.78565e-07
1.25075e-06
4.37304e-07
9.7847e-07
9.7857e-07
1.25082e-06
4.37307e-07
9.7848e-07
9.7858e-07
1.25084e-06
4.3731e-07
9.78497e-07
9.78602e-07
1.25084e-06
4.37315e-07
9.7853e-07
9.78634e-07
1.2508e-06
4.37312e-07
9.78576e-07
9.78674e-07
1.25077e-06
4.36768e-07
9.78269e-07
9.78366e-07
1.25044e-06
4.18108e-07
9.20388e-07
9.20442e-07
1.20558e-06
4.90478e-09
4.20693e-09
4.30455e-09
4.86559e-09
4.15394e-09
4.2692e-09
9.66975e-09
9.62032e-09
9.76359e-09
9.69546e-09
3.65517e-09
4.16745e-09
5.03822e-09
4.25812e-09
3.86455e-09
5.0099e-09
4.87767e-09
4.48418e-09
4.85279e-09
5.57892e-09
4.55723e-09
5.27974e-09
4.84351e-09
4.46182e-09
4.69112e-09
4.84603e-09
4.41813e-09
4.56263e-09
4.69562e-09
3.37093e-09
4.4226e-09
5.01063e-09
4.6057e-09
3.78838e-09
4.57724e-09
3.64692e-09
4.5893e-09
4.45216e-09
4.10418e-09
4.46052e-09
5.18485e-09
4.18806e-09
4.90014e-09
4.4325e-09
4.09533e-09
4.32816e-09
4.46898e-09
4.07882e-09
4.21151e-09
4.3333e-09
3.13387e-09
4.08699e-09
4.5735e-09
4.21841e-09
3.59909e-09
4.2088e-09
3.46563e-09
4.19537e-09
4.07651e-09
3.77926e-09
4.10324e-09
4.80627e-09
3.86915e-09
4.53333e-09
4.06855e-09
3.77013e-09
4.00314e-09
4.13315e-09
3.79431e-09
3.91682e-09
4.01176e-09
2.93326e-09
3.80334e-09
4.19071e-09
3.8896e-09
3.42258e-09
3.90541e-09
3.30132e-09
3.85575e-09
3.75515e-09
3.49588e-09
3.79603e-09
4.44425e-09
3.59092e-09
4.1619e-09
3.74578e-09
3.47327e-09
3.73094e-09
3.85205e-09
3.55826e-09
3.67532e-09
3.73997e-09
2.75812e-09
3.56532e-09
3.86548e-09
3.60503e-09
3.26444e-09
3.66483e-09
3.16736e-09
3.55436e-09
3.4748e-09
3.24983e-09
3.52842e-09
4.0645e-09
3.35472e-09
3.79617e-09
3.45101e-09
3.19524e-09
3.50582e-09
3.62232e-09
3.36789e-09
3.48095e-09
3.51279e-09
2.61773e-09
3.37369e-09
3.58404e-09
3.36137e-09
3.139e-09
3.46569e-09
3.06596e-09
3.29578e-09
3.23208e-09
3.03609e-09
3.3023e-09
3.71909e-09
3.16278e-09
3.53403e-09
3.17779e-09
2.96096e-09
3.32857e-09
3.44029e-09
3.2263e-09
3.33385e-09
3.33344e-09
2.52303e-09
3.2263e-09
3.3437e-09
3.15102e-09
3.04661e-09
3.30341e-09
3.00279e-09
3.0777e-09
3.02167e-09
2.85483e-09
3.12114e-09
3.48533e-09
3.01626e-09
3.36054e-09
2.94802e-09
2.77506e-09
3.19771e-09
3.3046e-09
3.12801e-09
3.23212e-09
3.19589e-09
2.4685e-09
3.12467e-09
3.13672e-09
2.97305e-09
2.99149e-09
3.1863e-09
2.97193e-09
2.90657e-09
2.84424e-09
2.70576e-09
2.98797e-09
3.32479e-09
2.91908e-09
3.23828e-09
2.76581e-09
2.62835e-09
3.11007e-09
3.21303e-09
3.07353e-09
3.17437e-09
3.10716e-09
2.45808e-09
3.07307e-09
2.96267e-09
2.8342e-09
2.96817e-09
3.12527e-09
2.9708e-09
2.77671e-09
2.69869e-09
2.58571e-09
2.90448e-09
3.21481e-09
2.87492e-09
3.16794e-09
2.62238e-09
2.51362e-09
3.06663e-09
3.16747e-09
3.06261e-09
3.16099e-09
3.06667e-09
2.49166e-09
3.06628e-09
2.82801e-09
2.73073e-09
2.97574e-09
3.11143e-09
3.00186e-09
2.6818e-09
2.58239e-09
2.49939e-09
2.87499e-09
3.15874e-09
2.88833e-09
3.16025e-09
2.51164e-09
2.43932e-09
3.06586e-09
3.16362e-09
3.0938e-09
3.19003e-09
3.07063e-09
2.56601e-09
3.1002e-09
2.72857e-09
2.66223e-09
3.0159e-09
3.13926e-09
3.06887e-09
2.62237e-09
2.50092e-09
2.46085e-09
2.90151e-09
3.16687e-09
2.96044e-09
3.20899e-09
2.44201e-09
2.40855e-09
3.10885e-09
3.20464e-09
3.17153e-09
3.26617e-09
3.11591e-09
2.68557e-09
3.17835e-09
2.66475e-09
2.63528e-09
3.09243e-09
3.21282e-09
3.17594e-09
2.59829e-09
2.4711e-09
2.47297e-09
2.98713e-09
3.23271e-09
3.08947e-09
3.32994e-09
2.41965e-09
2.42803e-09
3.19673e-09
3.29258e-09
3.29703e-09
3.39213e-09
3.20581e-09
2.85777e-09
3.30771e-09
2.64656e-09
2.65239e-09
3.20904e-09
3.33869e-09
3.32787e-09
2.61578e-09
2.49389e-09
2.54459e-09
3.13135e-09
3.37118e-09
3.28398e-09
3.51428e-09
2.45001e-09
2.49966e-09
3.33759e-09
3.43327e-09
3.48544e-09
3.58291e-09
3.34918e-09
3.09019e-09
3.49874e-09
2.6742e-09
2.72445e-09
3.37333e-09
3.52974e-09
3.53643e-09
2.68727e-09
2.57964e-09
2.69006e-09
3.3452e-09
3.57451e-09
3.56601e-09
3.78889e-09
2.53578e-09
2.67254e-09
3.54373e-09
3.64249e-09
3.75924e-09
3.85817e-09
3.55915e-09
3.40131e-09
3.7735e-09
2.75941e-09
2.87355e-09
3.59937e-09
3.80454e-09
3.82362e-09
2.83386e-09
2.75529e-09
2.9454e-09
3.65076e-09
3.86806e-09
3.95722e-09
4.14304e-09
2.73095e-09
2.89409e-09
3.84375e-09
3.94454e-09
4.14255e-09
4.24791e-09
3.85943e-09
3.80426e-09
4.16283e-09
2.93635e-09
3.13763e-09
3.91096e-09
4.18746e-09
4.221e-09
3.09436e-09
3.04605e-09
3.40243e-09
4.07891e-09
4.26543e-09
4.51107e-09
4.70942e-09
3.00148e-09
3.35981e-09
4.26088e-09
4.36848e-09
4.69806e-09
4.81009e-09
4.28407e-09
4.41299e-09
4.72112e-09
3.24036e-09
3.59699e-09
4.34365e-09
4.74072e-09
4.77997e-09
3.5459e-09
3.59826e-09
4.14146e-09
4.69342e-09
4.88998e-09
5.31674e-09
5.5531e-09
3.52646e-09
4.20771e-09
4.87863e-09
4.98562e-09
5.50547e-09
5.62102e-09
4.89293e-09
5.26413e-09
5.52125e-09
3.76943e-09
4.36029e-09
4.95355e-09
5.5384e-09
5.58102e-09
4.31179e-09
4.39914e-09
5.50667e-09
5.55481e-09
5.80199e-09
6.48664e-09
6.66376e-09
4.49376e-09
5.33728e-09
5.7413e-09
5.87588e-09
6.687e-09
6.79466e-09
5.77908e-09
6.38453e-09
6.67814e-09
4.64998e-09
5.68131e-09
5.83649e-09
6.70838e-09
6.74822e-09
5.61111e-09
5.94424e-09
7.72969e-09
6.83577e-09
7.04861e-09
8.21165e-09
8.4666e-09
5.81861e-09
7.88794e-09
7.04447e-09
7.15236e-09
8.40367e-09
8.58128e-09
7.04238e-09
8.22046e-09
8.43212e-09
6.14083e-09
8.19015e-09
7.10271e-09
8.47453e-09
8.45044e-09
7.9128e-09
8.55363e-09
1.13083e-08
8.76536e-09
8.97698e-09
1.05678e-08
1.07693e-08
8.64657e-09
1.1069e-08
8.93754e-09
9.10084e-09
1.07885e-08
1.09961e-08
8.97958e-09
1.04627e-08
1.0846e-08
9.01896e-09
1.17698e-08
8.99195e-09
1.0875e-08
1.0874e-08
1.16549e-08
1.25147e-08
1.85469e-08
1.13037e-08
1.15928e-08
1.42233e-08
1.4718e-08
1.2348e-08
1.9748e-08
1.15681e-08
1.18451e-08
1.44858e-08
1.44002e-08
1.16501e-08
1.44437e-08
1.43471e-08
1.33839e-08
1.78861e-08
1.16882e-08
1.42029e-08
1.43518e-08
1.82227e-08
2.11206e-08
2.8099e-08
1.54861e-08
1.56128e-08
1.86766e-08
1.8901e-08
2.14064e-08
2.68026e-08
1.5707e-08
1.56126e-08
1.89673e-08
1.93852e-08
1.54227e-08
1.85471e-08
1.95657e-08
1.98699e-08
3.01812e-08
1.5407e-08
1.92494e-08
1.95847e-08
3.10981e-08
2.99657e-08
4.87367e-08
1.98591e-08
2.07815e-08
2.60585e-08
2.65631e-08
3.06416e-08
5.13003e-08
2.01853e-08
2.0639e-08
2.63264e-08
2.65355e-08
2.08514e-08
2.61913e-08
2.5494e-08
3.21933e-08
4.94917e-08
2.08674e-08
2.63159e-08
2.54331e-08
4.3865e-08
5.58477e-08
7.36807e-08
2.83972e-08
2.81977e-08
3.42726e-08
3.45912e-08
5.45626e-08
7.04237e-08
2.86733e-08
2.86066e-08
3.47926e-08
3.46545e-08
2.79284e-08
3.4138e-08
3.5604e-08
5.56524e-08
7.12509e-08
2.78746e-08
3.43563e-08
3.5587e-08
7.96451e-08
7.81463e-08
1.06569e-07
3.65217e-08
3.72494e-08
4.53543e-08
4.58044e-08
7.7452e-08
1.07517e-07
3.70313e-08
3.7188e-08
4.56933e-08
4.59498e-08
3.78236e-08
4.52021e-08
4.53759e-08
7.68548e-08
1.07998e-07
3.77482e-08
4.54692e-08
4.53785e-08
1.0506e-07
1.15953e-07
1.57877e-07
4.86279e-08
4.91605e-08
5.9663e-08
6.10927e-08
1.16179e-07
1.61873e-07
4.90566e-08
4.92845e-08
6.03991e-08
6.13471e-08
4.86601e-08
6.05237e-08
6.05684e-08
1.17066e-07
1.62272e-07
4.87219e-08
6.08881e-08
6.05564e-08
1.59835e-07
1.69711e-07
2.21717e-07
6.39244e-08
6.50537e-08
7.71606e-08
7.71518e-08
1.73845e-07
2.18128e-07
6.45999e-08
6.5313e-08
7.77309e-08
7.72534e-08
6.46862e-08
7.64432e-08
7.75793e-08
1.74273e-07
2.17986e-07
6.4663e-08
7.66502e-08
7.74004e-08
2.20501e-07
2.34796e-07
2.92626e-07
8.18082e-08
8.2011e-08
9.76942e-08
9.88413e-08
2.30767e-07
2.95894e-07
8.24013e-08
8.2218e-08
9.83467e-08
9.92696e-08
8.23956e-08
9.8434e-08
9.80795e-08
2.3049e-07
2.96018e-07
8.22628e-08
9.86825e-08
9.81498e-08
2.93261e-07
3.08356e-07
3.71118e-07
1.03369e-07
1.04549e-07
1.21007e-07
1.21946e-07
3.12476e-07
3.71387e-07
1.04047e-07
1.04993e-07
1.21648e-07
1.22593e-07
1.03678e-07
1.21006e-07
1.21798e-07
3.12915e-07
3.72843e-07
1.03643e-07
1.21582e-07
1.21985e-07
3.71381e-07
3.86715e-07
4.50171e-07
1.27447e-07
1.28244e-07
1.48315e-07
1.48862e-07
3.86397e-07
4.50386e-07
1.27974e-07
1.2884e-07
1.4878e-07
1.49726e-07
1.28258e-07
1.49276e-07
1.49062e-07
3.87806e-07
4.50076e-07
1.28636e-07
1.48406e-07
1.49032e-07
4.51352e-07
4.66806e-07
5.26361e-07
1.55524e-07
1.56222e-07
1.78552e-07
1.79375e-07
4.67266e-07
5.26915e-07
1.56065e-07
1.57169e-07
1.79035e-07
1.79784e-07
1.56424e-07
1.7908e-07
1.79176e-07
4.66778e-07
5.27566e-07
1.56202e-07
1.79176e-07
1.79858e-07
5.27008e-07
5.42066e-07
5.97372e-07
1.86838e-07
1.87378e-07
2.12594e-07
2.13009e-07
5.4262e-07
5.98386e-07
1.87167e-07
1.88159e-07
2.12527e-07
2.14922e-07
1.87113e-07
2.16182e-07
2.12953e-07
5.43344e-07
5.99317e-07
1.88336e-07
2.13554e-07
2.14455e-07
5.98012e-07
6.12611e-07
6.63126e-07
2.21561e-07
2.2224e-07
2.50214e-07
2.5061e-07
6.13672e-07
6.62307e-07
2.2138e-07
2.23678e-07
2.49953e-07
2.52503e-07
2.22069e-07
2.52385e-07
2.49981e-07
6.14733e-07
6.64385e-07
2.23235e-07
2.51164e-07
2.50521e-07
6.62982e-07
6.77559e-07
7.21654e-07
2.60079e-07
2.59902e-07
2.90422e-07
2.89009e-07
6.76132e-07
7.19634e-07
2.59809e-07
2.62784e-07
2.89952e-07
2.92284e-07
2.59543e-07
2.90953e-07
2.90052e-07
6.78478e-07
7.22456e-07
2.60174e-07
2.91859e-07
2.91143e-07
7.2171e-07
7.34906e-07
7.74222e-07
3.01067e-07
2.99875e-07
3.33786e-07
3.34456e-07
7.33395e-07
7.75485e-07
3.00485e-07
3.02353e-07
3.33126e-07
3.35521e-07
3.0092e-07
3.36658e-07
3.34117e-07
7.3578e-07
7.73933e-07
3.02027e-07
3.3581e-07
3.34992e-07
7.74531e-07
7.86506e-07
8.20775e-07
3.44807e-07
3.45712e-07
3.78853e-07
3.7924e-07
7.87837e-07
8.20927e-07
3.44156e-07
3.46973e-07
3.78227e-07
3.81533e-07
3.45055e-07
3.79586e-07
3.78262e-07
7.85827e-07
8.18863e-07
3.4589e-07
3.82697e-07
3.79069e-07
8.19506e-07
8.32076e-07
8.62667e-07
3.90444e-07
3.90914e-07
4.25584e-07
4.26698e-07
8.32083e-07
8.62725e-07
3.89815e-07
3.92858e-07
4.25028e-07
4.25488e-07
3.89655e-07
4.25816e-07
4.25096e-07
8.2989e-07
8.5902e-07
3.90441e-07
4.26728e-07
4.25567e-07
8.62601e-07
8.73074e-07
9.00816e-07
4.37547e-07
4.38484e-07
4.73312e-07
4.73925e-07
8.72982e-07
8.99848e-07
4.36989e-07
4.36382e-07
4.72912e-07
4.71349e-07
4.37353e-07
4.72264e-07
4.73798e-07
8.69132e-07
8.97403e-07
4.37666e-07
4.74319e-07
4.73896e-07
9.01451e-07
9.10538e-07
9.36305e-07
4.85287e-07
4.86017e-07
5.22352e-07
5.22073e-07
9.09603e-07
9.34844e-07
4.84999e-07
4.83789e-07
5.2217e-07
5.21583e-07
4.85603e-07
5.20246e-07
5.21377e-07
9.07499e-07
9.34258e-07
4.85652e-07
5.22912e-07
5.2043e-07
9.35142e-07
9.45408e-07
9.6727e-07
5.34755e-07
5.33688e-07
5.70234e-07
5.67934e-07
9.43596e-07
9.64827e-07
5.34459e-07
5.33827e-07
5.69718e-07
5.69113e-07
5.33631e-07
5.6642e-07
5.69908e-07
9.43453e-07
9.66549e-07
5.32128e-07
5.69687e-07
5.67461e-07
9.66962e-07
9.75081e-07
9.93672e-07
5.81585e-07
5.79392e-07
6.159e-07
6.1383e-07
9.72895e-07
9.92914e-07
5.81054e-07
5.80554e-07
6.1508e-07
6.14578e-07
5.81517e-07
6.1254e-07
6.15768e-07
9.74753e-07
9.94161e-07
5.79093e-07
6.1448e-07
6.13286e-07
9.93737e-07
1.00077e-06
1.01615e-06
6.27404e-07
6.25008e-07
6.58876e-07
6.55765e-07
1.00029e-06
1.01668e-06
6.26387e-07
6.25669e-07
6.5753e-07
6.56401e-07
6.271e-07
6.54959e-07
6.58257e-07
1.00129e-06
1.01709e-06
6.24406e-07
6.56344e-07
6.55125e-07
1.01649e-06
1.02242e-06
1.04084e-06
6.68219e-07
6.65361e-07
6.97991e-07
6.9701e-07
1.02323e-06
1.04255e-06
6.66906e-07
6.65965e-07
6.96925e-07
6.97367e-07
6.67619e-07
6.96413e-07
6.97686e-07
1.02356e-06
1.04254e-06
6.64656e-07
6.97391e-07
6.95831e-07
1.04173e-06
1.04923e-06
1.07282e-06
7.09257e-07
7.08875e-07
7.4182e-07
7.4249e-07
1.051e-06
1.07405e-06
7.08249e-07
7.09102e-07
7.40961e-07
7.42453e-07
7.09063e-07
7.41961e-07
7.42006e-07
1.05087e-06
1.07375e-06
7.07572e-07
7.42137e-07
7.4108e-07
1.07352e-06
1.07908e-06
1.08232e-06
7.50873e-07
7.51662e-07
7.68189e-07
7.68715e-07
1.08015e-06
1.08258e-06
7.50084e-07
7.51608e-07
7.67684e-07
7.68768e-07
7.51195e-07
7.68396e-07
7.68696e-07
1.07989e-06
1.08277e-06
7.50336e-07
7.68565e-07
7.6797e-07
1.08275e-06
1.08384e-06
1.0681e-06
7.70686e-07
7.71035e-07
7.73432e-07
7.73318e-07
1.08407e-06
1.06779e-06
7.7025e-07
7.71138e-07
7.73106e-07
7.73528e-07
7.71169e-07
7.73112e-07
7.73709e-07
1.08427e-06
1.06817e-06
7.70457e-07
7.73406e-07
7.73046e-07
1.06821e-06
1.06881e-06
1.04859e-06
7.73446e-07
7.7328e-07
7.72591e-07
7.72163e-07
1.06847e-06
1.04803e-06
7.73132e-07
7.73498e-07
7.72321e-07
7.72394e-07
7.73692e-07
7.71986e-07
7.72632e-07
1.06885e-06
1.04833e-06
7.73042e-07
7.72269e-07
7.72108e-07
1.04847e-06
1.04955e-06
1.04645e-06
7.73199e-07
7.72747e-07
7.84052e-07
7.83698e-07
1.049e-06
1.04609e-06
7.72927e-07
7.72966e-07
7.83775e-07
7.83856e-07
7.73183e-07
7.83535e-07
7.83996e-07
1.04927e-06
1.04622e-06
7.72702e-07
7.8371e-07
7.83617e-07
1.04636e-06
1.05059e-06
1.06852e-06
7.90317e-07
7.90009e-07
8.16274e-07
8.16111e-07
1.05027e-06
1.06838e-06
7.90039e-07
7.90141e-07
8.16011e-07
8.16194e-07
7.90263e-07
8.15965e-07
8.16264e-07
1.05037e-06
1.06843e-06
7.89914e-07
8.16055e-07
8.15988e-07
1.06854e-06
1.07602e-06
1.10705e-06
8.26266e-07
8.26127e-07
8.5895e-07
8.58854e-07
1.0759e-06
1.10702e-06
8.26005e-07
8.26206e-07
8.58708e-07
8.58947e-07
8.26278e-07
8.58742e-07
8.58987e-07
1.07594e-06
1.10708e-06
8.26005e-07
8.58844e-07
8.58738e-07
1.10715e-06
1.11741e-06
1.15896e-06
8.70928e-07
8.70836e-07
9.06582e-07
9.06488e-07
1.11738e-06
1.15893e-06
8.70687e-07
8.7093e-07
9.06357e-07
9.06596e-07
8.7096e-07
9.06408e-07
9.06606e-07
1.11744e-06
1.15902e-06
8.70721e-07
9.06505e-07
9.06387e-07
1.15903e-06
1.16963e-06
1.20183e-06
9.17254e-07
9.17156e-07
9.43056e-07
9.42953e-07
1.16961e-06
1.2018e-06
9.17032e-07
9.17264e-07
9.42851e-07
9.4307e-07
9.17278e-07
9.42892e-07
9.43089e-07
1.16968e-06
1.2019e-06
9.17064e-07
9.42987e-07
9.42888e-07
1.20194e-06
1.20964e-06
1.22758e-06
9.49529e-07
9.49426e-07
9.6347e-07
9.63368e-07
1.20961e-06
1.22755e-06
9.49326e-07
9.49542e-07
9.63276e-07
9.6349e-07
9.49565e-07
9.63319e-07
9.63513e-07
1.2097e-06
1.22765e-06
9.49367e-07
9.63416e-07
9.63322e-07
1.2277e-06
1.23265e-06
1.24032e-06
9.66613e-07
9.66511e-07
9.72858e-07
9.72756e-07
1.23262e-06
1.24029e-06
9.66418e-07
9.66632e-07
9.72667e-07
9.72881e-07
9.66657e-07
9.72713e-07
9.72901e-07
1.23271e-06
1.2404e-06
9.66468e-07
9.72814e-07
9.72716e-07
1.24045e-06
1.24362e-06
1.24577e-06
9.74161e-07
9.74059e-07
9.76664e-07
9.76565e-07
1.24359e-06
1.24574e-06
9.73968e-07
9.74182e-07
9.76474e-07
9.76688e-07
9.74202e-07
9.76522e-07
9.76704e-07
1.24369e-06
1.24585e-06
9.74019e-07
9.76624e-07
9.76523e-07
1.24589e-06
1.24826e-06
1.24804e-06
9.77179e-07
9.7708e-07
9.78146e-07
9.78048e-07
1.24823e-06
1.24802e-06
9.76987e-07
9.77201e-07
9.77955e-07
9.78169e-07
9.77219e-07
9.78006e-07
9.78188e-07
1.24833e-06
1.24812e-06
9.77039e-07
9.78105e-07
9.78009e-07
1.24817e-06
1.25019e-06
1.24869e-06
9.78324e-07
9.78226e-07
9.78574e-07
9.78473e-07
1.25018e-06
1.24867e-06
9.78132e-07
9.78346e-07
9.78383e-07
9.78596e-07
9.78368e-07
9.78434e-07
9.78617e-07
1.25027e-06
1.24876e-06
9.78187e-07
9.78532e-07
9.78437e-07
1.24881e-06
1.2507e-06
1.24859e-06
9.78587e-07
9.78486e-07
9.78548e-07
9.78444e-07
1.25068e-06
1.24856e-06
9.78395e-07
9.78608e-07
9.78356e-07
9.78569e-07
9.7863e-07
9.78406e-07
9.7859e-07
1.25077e-06
1.24867e-06
9.78449e-07
9.78506e-07
9.78409e-07
1.24871e-06
1.25055e-06
1.24861e-06
9.78534e-07
9.78431e-07
9.78588e-07
9.78487e-07
1.25052e-06
1.24859e-06
9.78342e-07
9.78556e-07
9.78397e-07
9.78612e-07
9.78576e-07
9.78449e-07
9.78631e-07
1.25062e-06
1.24869e-06
9.78396e-07
9.78548e-07
9.78451e-07
1.24874e-06
1.25067e-06
1.24879e-06
9.78624e-07
9.78523e-07
9.78641e-07
9.78538e-07
1.25065e-06
1.24876e-06
9.78432e-07
9.78647e-07
9.78449e-07
9.78662e-07
9.78666e-07
9.78501e-07
9.7868e-07
1.25075e-06
1.24886e-06
9.78487e-07
9.78599e-07
9.785e-07
1.24891e-06
1.25078e-06
1.24855e-06
9.78619e-07
9.78516e-07
9.78574e-07
9.78472e-07
1.25075e-06
1.24853e-06
9.78426e-07
9.78638e-07
9.78381e-07
9.78595e-07
9.78658e-07
9.78434e-07
9.78618e-07
1.25084e-06
1.24863e-06
9.78478e-07
9.78532e-07
9.78437e-07
1.24868e-06
1.25056e-06
1.24879e-06
9.78573e-07
9.78471e-07
9.78609e-07
9.78508e-07
1.25054e-06
1.24878e-06
9.78379e-07
9.78594e-07
9.78416e-07
9.78631e-07
9.78617e-07
9.78469e-07
9.78652e-07
1.25063e-06
1.24888e-06
9.78437e-07
9.78569e-07
9.78473e-07
1.24893e-06
1.25082e-06
1.24866e-06
9.78617e-07
9.78515e-07
9.78589e-07
9.78485e-07
1.2508e-06
1.24863e-06
9.78424e-07
9.78639e-07
9.78395e-07
9.78609e-07
9.78659e-07
9.78448e-07
9.78631e-07
1.25089e-06
1.24872e-06
9.78479e-07
9.78546e-07
9.78449e-07
1.24876e-06
1.25061e-06
1.24873e-06
9.7858e-07
9.78476e-07
9.78602e-07
9.78499e-07
1.25058e-06
1.24871e-06
9.78386e-07
9.786e-07
9.78409e-07
9.78622e-07
9.78622e-07
9.78457e-07
9.78644e-07
1.25067e-06
1.24882e-06
9.78442e-07
9.78559e-07
9.78467e-07
1.24888e-06
1.25076e-06
1.24862e-06
9.78607e-07
9.78503e-07
9.78591e-07
9.78485e-07
1.25073e-06
1.24859e-06
9.78413e-07
9.78626e-07
9.78397e-07
9.7861e-07
9.7865e-07
9.78445e-07
9.7863e-07
1.25083e-06
1.2487e-06
9.7847e-07
9.78547e-07
9.78451e-07
1.24873e-06
1.2506e-06
1.24875e-06
9.7859e-07
9.78483e-07
9.78595e-07
9.78492e-07
1.25057e-06
1.24874e-06
9.78395e-07
9.78609e-07
9.78402e-07
9.78616e-07
9.78628e-07
9.78453e-07
9.78641e-07
1.25067e-06
1.24883e-06
9.7845e-07
9.78551e-07
9.7846e-07
1.24889e-06
1.25076e-06
1.24862e-06
9.78594e-07
9.78492e-07
9.78595e-07
9.78492e-07
1.25074e-06
1.24859e-06
9.784e-07
9.78614e-07
9.78401e-07
9.78614e-07
9.78637e-07
9.7845e-07
9.78636e-07
1.25082e-06
1.2487e-06
9.78456e-07
9.78551e-07
9.78457e-07
1.24876e-06
1.25064e-06
1.24869e-06
9.78595e-07
9.78492e-07
9.78591e-07
9.78488e-07
1.25062e-06
1.24867e-06
9.78401e-07
9.78614e-07
9.78397e-07
9.78612e-07
9.78636e-07
9.78449e-07
9.78635e-07
1.25072e-06
1.24876e-06
9.78457e-07
9.78548e-07
9.78456e-07
1.24881e-06
1.25065e-06
1.24873e-06
9.7859e-07
9.78488e-07
9.78596e-07
9.78494e-07
1.25064e-06
1.2487e-06
9.78397e-07
9.78611e-07
9.78401e-07
9.78614e-07
9.78635e-07
9.78449e-07
9.78637e-07
1.25073e-06
1.24881e-06
9.78455e-07
9.7855e-07
9.78457e-07
1.24885e-06
1.25073e-06
1.24867e-06
9.78592e-07
9.7849e-07
9.78592e-07
9.78488e-07
1.25071e-06
1.24863e-06
9.78397e-07
9.78612e-07
9.78399e-07
9.78613e-07
9.78634e-07
9.78448e-07
9.78639e-07
1.2508e-06
1.24874e-06
9.78455e-07
9.7855e-07
9.7846e-07
1.24883e-06
1.2507e-06
1.24863e-06
9.78596e-07
9.78492e-07
9.78587e-07
9.78485e-07
1.25065e-06
1.24863e-06
9.78401e-07
9.78615e-07
9.78393e-07
9.78608e-07
9.78642e-07
9.78444e-07
9.7863e-07
1.25076e-06
1.24872e-06
9.78462e-07
9.78546e-07
9.78451e-07
1.24876e-06
1.25064e-06
1.24869e-06
9.78589e-07
9.78485e-07
9.78594e-07
9.78493e-07
1.25062e-06
1.24869e-06
9.78395e-07
9.7861e-07
9.78397e-07
9.78612e-07
9.78633e-07
9.78448e-07
9.78638e-07
1.25071e-06
1.24876e-06
9.78454e-07
9.78548e-07
9.78457e-07
1.24884e-06
1.25065e-06
1.24875e-06
9.78589e-07
9.78489e-07
9.78595e-07
9.78491e-07
1.25066e-06
1.24872e-06
9.78393e-07
9.78609e-07
9.78401e-07
9.78614e-07
9.78634e-07
9.7845e-07
9.78639e-07
1.25072e-06
1.24882e-06
9.78454e-07
9.78551e-07
9.78459e-07
1.24886e-06
1.25075e-06
1.24869e-06
9.78598e-07
9.78495e-07
9.78589e-07
9.78486e-07
1.25073e-06
1.24866e-06
9.78403e-07
9.78614e-07
9.78396e-07
9.78613e-07
9.78641e-07
9.78446e-07
9.78632e-07
1.25079e-06
1.2488e-06
9.78461e-07
9.78549e-07
9.78455e-07
1.24879e-06
1.25072e-06
1.24862e-06
9.78593e-07
9.7849e-07
9.78589e-07
9.7849e-07
1.25069e-06
1.24863e-06
9.784e-07
9.78615e-07
9.78395e-07
9.7861e-07
9.78638e-07
9.78445e-07
9.78634e-07
1.25083e-06
1.24871e-06
9.78461e-07
9.78544e-07
9.78453e-07
1.24878e-06
1.25065e-06
1.24869e-06
9.78592e-07
9.7849e-07
9.7859e-07
9.78489e-07
1.25063e-06
1.24871e-06
9.78398e-07
9.78614e-07
9.78394e-07
9.78608e-07
9.78633e-07
9.78448e-07
9.78633e-07
1.25074e-06
1.24874e-06
9.78453e-07
9.78549e-07
9.78455e-07
1.24884e-06
1.25067e-06
1.24867e-06
9.78592e-07
9.78492e-07
9.78584e-07
9.78485e-07
1.2507e-06
1.24867e-06
9.78396e-07
9.78612e-07
9.7839e-07
9.78604e-07
9.78635e-07
9.78445e-07
9.78633e-07
1.25073e-06
1.24871e-06
9.78456e-07
9.78542e-07
9.78453e-07
1.24887e-06
1.25068e-06
1.2487e-06
9.78589e-07
9.7849e-07
9.78585e-07
9.78482e-07
1.2507e-06
1.24861e-06
9.78395e-07
9.78609e-07
9.78391e-07
9.78607e-07
9.78638e-07
9.78439e-07
9.78624e-07
1.25071e-06
1.24878e-06
9.78457e-07
9.78544e-07
9.78447e-07
1.24876e-06
1.25066e-06
1.24876e-06
9.78585e-07
9.78485e-07
9.78583e-07
9.78489e-07
1.2506e-06
1.24876e-06
9.78391e-07
9.78607e-07
9.78389e-07
9.78599e-07
9.78628e-07
9.7845e-07
9.7863e-07
1.25073e-06
1.24879e-06
9.78451e-07
9.78538e-07
9.7845e-07
1.24883e-06
1.25078e-06
1.24861e-06
9.78589e-07
9.78493e-07
9.78574e-07
9.78477e-07
1.25074e-06
1.24862e-06
9.78394e-07
9.78607e-07
9.78379e-07
9.78596e-07
9.78634e-07
9.78435e-07
9.7862e-07
1.25081e-06
1.24871e-06
9.78454e-07
9.78533e-07
9.78446e-07
1.24888e-06
1.25066e-06
1.24862e-06
9.78584e-07
9.78488e-07
9.78573e-07
9.78476e-07
1.25068e-06
1.24861e-06
9.78388e-07
9.78604e-07
9.78375e-07
9.78595e-07
9.78629e-07
9.78436e-07
9.7862e-07
1.2507e-06
1.24877e-06
9.78455e-07
9.78534e-07
9.7844e-07
1.24879e-06
1.25061e-06
1.24869e-06
9.78584e-07
9.78487e-07
9.78573e-07
9.78477e-07
1.2506e-06
1.24871e-06
9.78386e-07
9.78606e-07
9.78373e-07
9.78593e-07
9.7863e-07
9.78434e-07
9.78615e-07
1.25075e-06
1.24879e-06
9.78453e-07
9.78532e-07
9.78434e-07
1.24873e-06
1.25067e-06
1.24869e-06
9.78587e-07
9.78491e-07
9.7857e-07
9.78467e-07
1.2507e-06
1.24861e-06
9.78386e-07
9.78608e-07
9.7837e-07
9.7859e-07
9.78631e-07
9.78424e-07
9.7861e-07
1.25079e-06
1.24874e-06
9.78449e-07
9.78528e-07
9.78432e-07
1.24877e-06
1.2507e-06
1.24865e-06
9.78589e-07
9.78488e-07
9.78567e-07
9.78467e-07
1.25063e-06
1.24864e-06
9.78389e-07
9.78609e-07
9.78364e-07
9.78586e-07
9.78629e-07
9.78424e-07
9.78609e-07
1.25076e-06
1.24871e-06
9.78448e-07
9.78526e-07
9.78428e-07
1.2488e-06
1.25066e-06
1.24866e-06
9.78591e-07
9.78488e-07
9.7856e-07
9.78461e-07
1.25061e-06
1.24869e-06
9.78389e-07
9.78609e-07
9.78361e-07
9.78582e-07
9.78631e-07
9.78417e-07
9.786e-07
1.25071e-06
1.24875e-06
9.78452e-07
9.78521e-07
9.7842e-07
1.24876e-06
1.25065e-06
1.24868e-06
9.78594e-07
9.78495e-07
9.78553e-07
9.78452e-07
1.25067e-06
1.24871e-06
9.78391e-07
9.78612e-07
9.78355e-07
9.78575e-07
9.78636e-07
9.78409e-07
9.78592e-07
1.25072e-06
1.24879e-06
9.78455e-07
9.78513e-07
9.78413e-07
1.24875e-06
1.25066e-06
1.24871e-06
9.78593e-07
9.78492e-07
9.78549e-07
9.78448e-07
1.25068e-06
1.24871e-06
9.78396e-07
9.78615e-07
9.78348e-07
9.78565e-07
9.78634e-07
9.78405e-07
9.78591e-07
1.25075e-06
1.24879e-06
9.78456e-07
9.78504e-07
9.78407e-07
1.24882e-06
1.2507e-06
1.2487e-06
9.78602e-07
9.78502e-07
9.78539e-07
9.78434e-07
1.25074e-06
1.24861e-06
9.78403e-07
9.78621e-07
9.78338e-07
9.78553e-07
9.78643e-07
9.78391e-07
9.78582e-07
1.25081e-06
1.2487e-06
9.78461e-07
9.78491e-07
9.78399e-07
1.24887e-06
1.25073e-06
1.24865e-06
9.78612e-07
9.78509e-07
9.78526e-07
9.78423e-07
1.25066e-06
1.2486e-06
9.78411e-07
9.78626e-07
9.78328e-07
9.78544e-07
9.78654e-07
9.7838e-07
9.78571e-07
1.25073e-06
1.24872e-06
9.7847e-07
9.78483e-07
9.78388e-07
1.24887e-06
1.2507e-06
1.2486e-06
9.78623e-07
9.78518e-07
9.78515e-07
9.78413e-07
1.25062e-06
1.24863e-06
9.78423e-07
9.78637e-07
9.78316e-07
9.78534e-07
9.78666e-07
9.78368e-07
9.78558e-07
1.2507e-06
1.24877e-06
9.78482e-07
9.78473e-07
9.78377e-07
1.24884e-06
1.25064e-06
1.24861e-06
9.78641e-07
9.78536e-07
9.78504e-07
9.78402e-07
1.25063e-06
1.24866e-06
9.78442e-07
9.78658e-07
9.78306e-07
9.78521e-07
9.78684e-07
9.78357e-07
9.78547e-07
1.25076e-06
1.24875e-06
9.78502e-07
9.78458e-07
9.78361e-07
1.2488e-06
1.25062e-06
1.24866e-06
9.78673e-07
9.78571e-07
9.78492e-07
9.7839e-07
1.25066e-06
1.24865e-06
9.78474e-07
9.7869e-07
9.78291e-07
9.78508e-07
9.78715e-07
9.78348e-07
9.78534e-07
1.25078e-06
1.24871e-06
9.78532e-07
9.78448e-07
9.7835e-07
1.24877e-06
1.25064e-06
1.24846e-06
9.78712e-07
9.78611e-07
9.78084e-07
9.77983e-07
1.25066e-06
1.2484e-06
9.78516e-07
9.7873e-07
9.77887e-07
9.78096e-07
9.78752e-07
9.77942e-07
9.78122e-07
1.25073e-06
1.24849e-06
9.78566e-07
9.78038e-07
9.77937e-07
1.24858e-06
1.25034e-06
1.22843e-06
9.78406e-07
9.78309e-07
9.5578e-07
9.55624e-07
1.25032e-06
1.22838e-06
9.78207e-07
9.78415e-07
9.55646e-07
9.55689e-07
9.78446e-07
9.55716e-07
9.55734e-07
1.25038e-06
1.22845e-06
9.78263e-07
9.5577e-07
9.55612e-07
1.22846e-06
1.20558e-06
9.20421e-07
9.20271e-07
1.20555e-06
9.20327e-07
9.20336e-07
4.18062e-07
4.18098e-07
4.18063e-07
9.20368e-07
1.2056e-06
9.20288e-07
2.59722e-08
4.32133e-09
1.68653e-08
1.68895e-08
1.59688e-09
3.71262e-09
4.56577e-09
9.2837e-09
1.45573e-09
4.32207e-09
9.40409e-09
1.14381e-08
5.16369e-09
7.59365e-09
6.48865e-09
7.41147e-09
1.64292e-07
5.80599e-09
2.59841e-07
1.62981e-06
3.2146e-06
7.56729e-09
1.63374e-07
5.90821e-09
2.59199e-07
9.41624e-09
9.55988e-09
9.47425e-09
9.35618e-09
9.31158e-09
9.4505e-09
9.35767e-09
1.55134e-09
7.78171e-08
4.17654e-09
3.50475e-09
1.572e-09
5.6305e-08
4.13171e-09
1.62276e-06
3.2199e-06
1.44272e-09
4.48982e-09
8.65584e-08
4.7851e-09
1.45779e-09
4.4338e-09
6.48816e-08
2.18991e-07
2.19555e-07
4.80858e-09
1.8809e-07
1.88443e-07
1.75337e-08
4.62448e-07
1.16527e-08
6.78169e-07
7.15431e-06
1.01921e-05
1.77852e-08
4.65765e-07
1.15698e-08
6.73839e-07
9.33454e-09
9.47249e-09
9.3823e-09
9.45791e-09