/*--------------------------------*- C++ -*----------------------------------*\
| =========                 |                                                 |
| \\      /  F ield         | OpenFOAM: The Open Source CFD Toolbox           |
|  \\    /   O peration     | Version:  v2012                                 |
|   \\  /    A nd           | Website:  www.openfoam.com                      |
|    \\/     M anipulation  |                                                 |
\*---------------------------------------------------------------------------*/
FoamFile
{
    version     2.0;
    format      ascii;
    class       volScalarField;
    location    "212.5";
    object      k;
}
// * * * * * * * * * * * * * * * * * * * * * * * * * * * * * * * * * * * * * //

dimensions      [0 2 -2 0 0 0 0];


internalField   nonuniform List<scalar> 
171728
(
1.25284e-06
2.77274e-07
3.67519e-07
3.59418e-07
1.24338e-06
2.69281e-07
3.5264e-07
3.41186e-07
1.26606e-06
2.643e-07
3.40458e-07
3.23905e-07
1.28908e-06
2.61054e-07
3.30489e-07
3.08975e-07
1.31284e-06
2.57062e-07
3.22434e-07
2.95792e-07
1.33735e-06
2.53346e-07
3.16299e-07
2.84204e-07
1.36234e-06
2.52747e-07
3.11669e-07
2.74042e-07
1.38806e-06
2.54065e-07
3.0943e-07
2.65919e-07
1.41476e-06
2.5458e-07
3.09399e-07
2.59298e-07
1.44151e-06
2.55526e-07
3.10471e-07
2.54003e-07
1.46909e-06
2.58247e-07
3.12257e-07
2.49732e-07
1.49802e-06
2.65326e-07
3.1595e-07
2.46727e-07
1.52697e-06
2.73705e-07
3.22723e-07
2.4494e-07
1.55836e-06
2.85655e-07
3.33064e-07
2.44973e-07
1.58898e-06
3.0197e-07
3.48768e-07
2.4745e-07
1.62356e-06
3.19193e-07
3.65365e-07
2.53668e-07
1.65549e-06
3.49698e-07
3.89631e-07
2.67614e-07
1.68818e-06
3.8852e-07
4.21263e-07
2.91556e-07
1.72274e-06
4.34083e-07
4.6318e-07
3.37677e-07
1.75706e-06
5.12043e-07
5.41597e-07
4.1776e-07
1.78924e-06
5.78724e-07
6.33353e-07
5.47719e-07
1.82304e-06
7.76586e-07
7.2929e-07
8.09268e-07
1.85718e-06
8.56102e-07
9.37139e-07
1.38361e-06
1.89354e-06
1.23172e-06
1.2432e-06
1.59619e-06
1.93272e-06
1.50901e-06
1.52265e-06
3.39656e-06
1.97748e-06
1.8911e-06
1.90999e-06
3.95721e-06
2.02912e-06
2.57138e-06
2.59917e-06
5.92741e-06
2.08852e-06
3.08583e-06
3.09863e-06
8.13489e-06
2.16088e-06
4.02333e-06
4.03831e-06
1.05597e-05
2.243e-06
4.85757e-06
4.92765e-06
1.30889e-05
2.34616e-06
6.01074e-06
5.94844e-06
1.56657e-05
2.4682e-06
7.06464e-06
7.14467e-06
1.8089e-05
2.61923e-06
8.62158e-06
8.4944e-06
2.02857e-05
2.80974e-06
1.0139e-05
9.95447e-06
2.23526e-05
3.02963e-06
1.14359e-05
1.14898e-05
2.41632e-05
3.31669e-06
1.34112e-05
1.31571e-05
2.60112e-05
3.64512e-06
1.49934e-05
1.51217e-05
2.74482e-05
4.04504e-06
1.67738e-05
1.68006e-05
2.8895e-05
4.49737e-06
1.84784e-05
1.85864e-05
3.03485e-05
5.04496e-06
2.03759e-05
2.05458e-05
3.15351e-05
5.72195e-06
2.215e-05
2.23667e-05
3.28457e-05
6.42172e-06
2.40212e-05
2.41229e-05
3.40671e-05
7.40203e-06
2.58372e-05
2.58686e-05
3.5136e-05
8.27373e-06
2.73612e-05
2.74397e-05
3.60217e-05
9.71986e-06
3.00342e-05
3.00678e-05
3.80953e-05
1.14118e-05
3.22168e-05
3.22374e-05
3.94941e-05
1.21145e-05
3.24274e-05
3.2452e-05
3.93412e-05
1.1802e-05
3.13266e-05
3.13496e-05
3.80232e-05
1.11501e-05
3.04621e-05
3.04749e-05
3.69605e-05
1.16983e-05
3.13182e-05
3.13195e-05
3.74553e-05
1.40778e-05
3.34442e-05
3.34474e-05
3.89192e-05
1.80632e-05
3.68053e-05
3.68087e-05
4.16481e-05
2.27091e-05
4.01274e-05
4.01306e-05
4.44317e-05
2.62484e-05
4.23284e-05
4.23315e-05
4.62619e-05
2.82612e-05
4.34558e-05
4.34593e-05
4.71942e-05
2.91835e-05
4.39343e-05
4.3938e-05
4.75813e-05
2.95558e-05
4.41261e-05
4.41296e-05
4.77427e-05
2.96851e-05
4.41912e-05
4.41945e-05
4.78021e-05
2.97041e-05
4.41911e-05
4.41946e-05
4.78107e-05
2.97089e-05
4.41901e-05
4.41936e-05
4.77908e-05
2.97157e-05
4.42005e-05
4.42041e-05
4.78191e-05
2.97119e-05
4.4193e-05
4.41964e-05
4.77995e-05
2.97131e-05
4.4196e-05
4.41997e-05
4.78083e-05
2.97127e-05
4.41948e-05
4.41981e-05
4.78064e-05
2.97125e-05
4.41956e-05
4.41993e-05
4.78074e-05
2.97124e-05
4.41943e-05
4.4198e-05
4.78031e-05
2.97122e-05
4.41954e-05
4.41987e-05
4.78118e-05
2.97124e-05
4.41948e-05
4.41985e-05
4.77973e-05
2.97123e-05
4.41949e-05
4.41985e-05
4.78136e-05
2.97123e-05
4.41951e-05
4.41988e-05
4.78088e-05
2.97123e-05
4.41953e-05
4.4199e-05
4.77994e-05
2.97123e-05
4.41947e-05
4.41983e-05
4.78017e-05
2.97123e-05
4.41952e-05
4.41985e-05
4.7814e-05
2.97123e-05
4.41958e-05
4.41993e-05
4.78079e-05
2.97123e-05
4.41953e-05
4.41993e-05
4.77977e-05
2.97126e-05
4.41952e-05
4.41986e-05
4.78068e-05
2.97125e-05
4.41959e-05
4.41994e-05
4.78137e-05
2.97124e-05
4.41958e-05
4.41985e-05
4.78074e-05
2.97123e-05
4.41945e-05
4.41995e-05
4.77982e-05
2.97122e-05
4.4197e-05
4.41988e-05
4.78135e-05
2.97121e-05
4.41952e-05
4.41984e-05
4.78094e-05
2.9712e-05
4.41955e-05
4.41987e-05
4.77984e-05
2.97121e-05
4.41957e-05
4.41988e-05
4.78037e-05
2.97121e-05
4.4195e-05
4.41987e-05
4.78136e-05
2.97121e-05
4.41954e-05
4.41989e-05
4.7809e-05
2.97121e-05
4.41954e-05
4.41991e-05
4.77981e-05
2.9712e-05
4.41952e-05
4.41992e-05
4.78023e-05
2.9712e-05
4.41957e-05
4.41992e-05
4.78114e-05
2.9712e-05
4.41956e-05
4.41989e-05
4.78106e-05
2.97121e-05
4.41958e-05
4.41994e-05
4.78069e-05
2.97123e-05
4.41965e-05
4.42005e-05
4.78024e-05
2.97125e-05
4.41978e-05
4.42014e-05
4.77991e-05
2.97125e-05
4.41996e-05
4.4203e-05
4.78015e-05
2.97015e-05
4.41903e-05
4.41939e-05
4.77985e-05
2.91243e-05
4.28841e-05
4.28866e-05
4.72277e-05
3.5125e-07
3.45586e-07
3.36682e-07
3.49085e-07
3.36049e-07
3.42815e-07
1.2875e-06
1.27485e-06
1.29037e-06
1.28572e-06
2.72885e-07
3.36425e-07
3.51992e-07
3.43784e-07
3.0761e-07
3.60369e-07
3.48552e-07
3.34581e-07
3.66053e-07
3.86126e-07
3.55455e-07
3.72105e-07
3.4743e-07
3.35081e-07
3.57926e-07
3.64602e-07
3.47489e-07
3.5357e-07
3.58774e-07
2.70913e-07
3.48529e-07
3.49399e-07
3.35763e-07
2.88992e-07
3.56086e-07
2.81972e-07
3.42757e-07
3.31776e-07
3.20884e-07
3.52328e-07
3.69083e-07
3.43921e-07
3.63619e-07
3.32807e-07
3.21172e-07
3.44354e-07
3.50222e-07
3.35455e-07
3.41092e-07
3.45388e-07
2.65335e-07
3.36597e-07
3.33036e-07
3.21726e-07
2.80066e-07
3.43343e-07
2.74023e-07
3.26318e-07
3.18693e-07
3.10356e-07
3.41488e-07
3.6241e-07
3.34935e-07
3.55276e-07
3.18803e-07
3.08477e-07
3.32771e-07
3.3835e-07
3.25785e-07
3.30876e-07
3.33952e-07
2.61844e-07
3.26912e-07
3.19172e-07
3.0959e-07
2.71947e-07
3.32694e-07
2.65917e-07
3.11346e-07
3.08764e-07
3.02199e-07
3.33025e-07
3.52409e-07
3.28237e-07
3.466e-07
3.06279e-07
2.96952e-07
3.2369e-07
3.28576e-07
3.17429e-07
3.21972e-07
3.24773e-07
2.58237e-07
3.18366e-07
3.07606e-07
3.00019e-07
2.6388e-07
3.24231e-07
2.58955e-07
2.98007e-07
3.0054e-07
2.93547e-07
3.26822e-07
3.4497e-07
3.22961e-07
3.43849e-07
2.94896e-07
2.86415e-07
3.1558e-07
3.20168e-07
3.10677e-07
3.15715e-07
3.16458e-07
2.54054e-07
3.11359e-07
2.98363e-07
2.92133e-07
2.57918e-07
3.17772e-07
2.56754e-07
2.86188e-07
2.91785e-07
2.85507e-07
3.21842e-07
3.44049e-07
3.19144e-07
3.4703e-07
2.84503e-07
2.78358e-07
3.09374e-07
3.14434e-07
3.06277e-07
3.1138e-07
3.10026e-07
2.52673e-07
3.06579e-07
2.90609e-07
2.84546e-07
2.56789e-07
3.1275e-07
2.577e-07
2.75697e-07
2.83918e-07
2.78937e-07
3.18269e-07
3.48037e-07
3.15174e-07
3.49268e-07
2.7692e-07
2.72198e-07
3.05601e-07
3.10498e-07
3.04338e-07
3.08535e-07
3.05621e-07
2.53753e-07
3.03467e-07
2.82924e-07
2.76882e-07
2.58274e-07
3.09735e-07
2.60612e-07
2.67286e-07
2.77611e-07
2.73539e-07
3.14349e-07
3.49169e-07
3.11756e-07
3.45862e-07
2.70753e-07
2.63763e-07
3.04087e-07
3.08059e-07
3.03912e-07
3.07506e-07
3.02867e-07
2.54499e-07
3.01865e-07
2.7528e-07
2.70353e-07
2.61617e-07
3.09274e-07
2.65116e-07
2.60508e-07
2.72305e-07
2.65393e-07
3.10483e-07
3.44074e-07
3.06055e-07
3.3673e-07
2.61754e-07
2.52558e-07
3.04018e-07
3.07564e-07
3.04861e-07
3.08473e-07
3.01897e-07
2.55178e-07
3.02744e-07
2.69101e-07
2.64472e-07
2.66772e-07
3.10271e-07
2.71177e-07
2.55035e-07
2.63408e-07
2.54446e-07
3.04229e-07
3.33628e-07
2.98836e-07
3.23814e-07
2.50489e-07
2.41941e-07
3.0522e-07
3.08847e-07
3.07424e-07
3.10868e-07
3.03362e-07
2.57687e-07
3.06123e-07
2.63126e-07
2.57916e-07
2.73062e-07
3.11773e-07
2.78665e-07
2.5053e-07
2.52418e-07
2.44188e-07
2.97921e-07
3.21336e-07
2.97643e-07
3.18347e-07
2.40066e-07
2.33182e-07
3.07964e-07
3.11842e-07
3.11895e-07
3.15336e-07
3.07249e-07
2.63793e-07
3.11183e-07
2.56651e-07
2.52726e-07
2.80484e-07
3.14983e-07
2.87947e-07
2.47242e-07
2.42631e-07
2.37206e-07
2.97823e-07
3.18316e-07
3.00598e-07
3.1931e-07
2.32348e-07
2.28996e-07
3.13292e-07
3.16853e-07
3.18188e-07
3.21873e-07
3.127e-07
2.71554e-07
3.18136e-07
2.51843e-07
2.49663e-07
2.90111e-07
3.21339e-07
2.98868e-07
2.45052e-07
2.36731e-07
2.34524e-07
3.02619e-07
3.21172e-07
3.08704e-07
3.29582e-07
2.28637e-07
2.26494e-07
3.20429e-07
3.24017e-07
3.28185e-07
3.32502e-07
3.20509e-07
2.82905e-07
3.27568e-07
2.49369e-07
2.49416e-07
3.02301e-07
3.3028e-07
3.11634e-07
2.44675e-07
2.34646e-07
2.34493e-07
3.11644e-07
3.32376e-07
3.21486e-07
3.41752e-07
2.26359e-07
2.2729e-07
3.3109e-07
3.3544e-07
3.40566e-07
3.45302e-07
3.30492e-07
2.97564e-07
3.41036e-07
2.49741e-07
2.51821e-07
3.15631e-07
3.44352e-07
3.27965e-07
2.46569e-07
2.35202e-07
2.39126e-07
3.25689e-07
3.4643e-07
3.39759e-07
3.56757e-07
2.2897e-07
2.29951e-07
3.44393e-07
3.49814e-07
3.57794e-07
3.63331e-07
3.45004e-07
3.14928e-07
3.58531e-07
2.52924e-07
2.57374e-07
3.32353e-07
3.60933e-07
3.48105e-07
2.51719e-07
2.40833e-07
2.47531e-07
3.45356e-07
3.60432e-07
3.61524e-07
3.79821e-07
2.30889e-07
2.42933e-07
3.63187e-07
3.68474e-07
3.78267e-07
3.86269e-07
3.63435e-07
3.42998e-07
3.81742e-07
2.5978e-07
2.67429e-07
3.53864e-07
3.83494e-07
3.7306e-07
2.63555e-07
2.50551e-07
2.76669e-07
3.68728e-07
3.85796e-07
3.95176e-07
4.11102e-07
2.46535e-07
2.671e-07
3.85063e-07
3.92909e-07
4.11121e-07
4.1724e-07
3.888e-07
3.76159e-07
4.11689e-07
2.72801e-07
2.86657e-07
3.80729e-07
4.12038e-07
4.05826e-07
2.84012e-07
2.8036e-07
3.14875e-07
4.01198e-07
4.22766e-07
4.39356e-07
4.50634e-07
2.79302e-07
3.02287e-07
4.17135e-07
4.26872e-07
4.53877e-07
4.61014e-07
4.21084e-07
4.23514e-07
4.54387e-07
2.95495e-07
3.27868e-07
4.15286e-07
4.53759e-07
4.51407e-07
3.25029e-07
3.32657e-07
3.73983e-07
4.51604e-07
4.62005e-07
4.95538e-07
5.16516e-07
3.09855e-07
3.89956e-07
4.65727e-07
4.69992e-07
5.1379e-07
5.2588e-07
4.65126e-07
4.8641e-07
5.1226e-07
3.42802e-07
4.01068e-07
4.63643e-07
5.21327e-07
5.08262e-07
3.90864e-07
4.04663e-07
5.02021e-07
5.18533e-07
5.38727e-07
5.87539e-07
5.90482e-07
4.22428e-07
4.88315e-07
5.34884e-07
5.4599e-07
5.95527e-07
5.9975e-07
5.35404e-07
5.67045e-07
5.94785e-07
4.45914e-07
4.97491e-07
5.30409e-07
5.8731e-07
5.86927e-07
5.16478e-07
5.33194e-07
7.03748e-07
6.11072e-07
6.04801e-07
6.84011e-07
7.52935e-07
5.06e-07
8.27554e-07
6.2189e-07
6.41847e-07
7.06855e-07
7.07775e-07
6.23281e-07
7.28085e-07
7.21043e-07
5.33919e-07
7.58457e-07
6.16779e-07
7.05031e-07
7.15755e-07
7.68756e-07
7.86407e-07
1.21424e-06
7.46765e-07
7.98983e-07
8.98799e-07
8.47292e-07
9.48351e-07
9.6459e-07
7.65129e-07
7.40658e-07
9.11289e-07
9.25018e-07
7.42948e-07
8.23378e-07
9.26429e-07
7.68843e-07
1.28832e-06
7.35139e-07
9.16239e-07
9.18819e-07
1.20813e-06
1.23095e-06
1.52601e-06
9.10372e-07
8.84691e-07
1.06831e-06
1.1939e-06
9.81031e-07
2.10298e-06
9.25055e-07
9.45169e-07
1.0973e-06
1.141e-06
9.88408e-07
1.17904e-06
1.06934e-06
1.35073e-06
1.64849e-06
9.84028e-07
1.13904e-06
1.06472e-06
1.5486e-06
1.8612e-06
3.00186e-06
1.21277e-06
1.25258e-06
1.46355e-06
1.43121e-06
2.29383e-06
2.49639e-06
1.22671e-06
1.25261e-06
1.49684e-06
1.44836e-06
1.13571e-06
1.3943e-06
1.5225e-06
1.99249e-06
2.73845e-06
1.12021e-06
1.43486e-06
1.5241e-06
3.05569e-06
3.07908e-06
3.67681e-06
1.51173e-06
1.53575e-06
1.81797e-06
1.84333e-06
2.68491e-06
3.84471e-06
1.55494e-06
1.52994e-06
1.83283e-06
1.85067e-06
1.62147e-06
1.80928e-06
1.83511e-06
2.8192e-06
3.78984e-06
1.61709e-06
1.81939e-06
1.82037e-06
3.82866e-06
4.0002e-06
5.47166e-06
1.94537e-06
1.93511e-06
2.30719e-06
2.40855e-06
4.08228e-06
5.57664e-06
1.95566e-06
1.93963e-06
2.35659e-06
2.41546e-06
1.918e-06
2.38275e-06
2.36775e-06
4.08603e-06
5.60769e-06
1.91415e-06
2.40287e-06
2.36093e-06
5.44165e-06
5.8402e-06
7.75953e-06
2.47192e-06
2.59941e-06
3.01492e-06
3.00412e-06
6.07262e-06
7.73564e-06
2.52312e-06
2.61877e-06
3.04821e-06
2.99633e-06
2.54606e-06
2.94284e-06
3.01589e-06
6.09224e-06
7.75467e-06
2.54314e-06
2.96529e-06
2.99543e-06
7.77122e-06
8.21454e-06
9.98525e-06
3.17111e-06
3.13751e-06
3.7476e-06
3.79233e-06
8.01503e-06
9.95228e-06
3.20595e-06
3.12875e-06
3.78178e-06
3.8092e-06
3.19024e-06
3.76449e-06
3.7811e-06
8.02363e-06
9.91046e-06
3.16007e-06
3.78886e-06
3.79461e-06
1.00236e-05
1.04808e-05
1.26841e-05
3.984e-06
4.04462e-06
4.65055e-06
4.71468e-06
1.06037e-05
1.28061e-05
4.01806e-06
4.05584e-06
4.70017e-06
4.75599e-06
3.99007e-06
4.67123e-06
4.67773e-06
1.05664e-05
1.28773e-05
3.99763e-06
4.70371e-06
4.64972e-06
1.25986e-05
1.31616e-05
1.50556e-05
4.87795e-06
4.94105e-06
5.6981e-06
5.69987e-06
1.32052e-05
1.5013e-05
4.92253e-06
4.97868e-06
5.71549e-06
5.72136e-06
4.92221e-06
5.6693e-06
5.70968e-06
1.32901e-05
1.50418e-05
4.9184e-06
5.66522e-06
5.73407e-06
1.51501e-05
1.55969e-05
1.75788e-05
5.98093e-06
5.97836e-06
6.81967e-06
6.8932e-06
1.55713e-05
1.75822e-05
6.00265e-06
6.04058e-06
6.86467e-06
6.86331e-06
6.00223e-06
6.82791e-06
6.90206e-06
1.55594e-05
1.75869e-05
5.99041e-06
6.8437e-06
6.8391e-06
1.76029e-05
1.80523e-05
1.97939e-05
7.13504e-06
7.2018e-06
8.13468e-06
8.13017e-06
1.80509e-05
1.98318e-05
7.1787e-06
7.13171e-06
8.16287e-06
8.25915e-06
7.19064e-06
8.15555e-06
8.13537e-06
1.80733e-05
1.98195e-05
7.1688e-06
8.14837e-06
8.24905e-06
1.98062e-05
2.02635e-05
2.1872e-05
8.45903e-06
8.47759e-06
9.54072e-06
9.66145e-06
2.03327e-05
2.20024e-05
8.47716e-06
8.59454e-06
9.54078e-06
9.5732e-06
8.4907e-06
9.83213e-06
9.58184e-06
2.03126e-05
2.19636e-05
8.60351e-06
9.57342e-06
9.60967e-06
2.19285e-05
2.23279e-05
2.38092e-05
9.93438e-06
1.00399e-05
1.10701e-05
1.09908e-05
2.24211e-05
2.36609e-05
9.93776e-06
1.00201e-05
1.10745e-05
1.12609e-05
9.93608e-06
1.10501e-05
1.10191e-05
2.24039e-05
2.38184e-05
9.94709e-06
1.10942e-05
1.10556e-05
2.37393e-05
2.42118e-05
2.55407e-05
1.14661e-05
1.13337e-05
1.27512e-05
1.2708e-05
2.40477e-05
2.55572e-05
1.14606e-05
1.15911e-05
1.27256e-05
1.27909e-05
1.14242e-05
1.29147e-05
1.2779e-05
2.42278e-05
2.56319e-05
1.14726e-05
1.27396e-05
1.28208e-05
2.56133e-05
2.59344e-05
2.71184e-05
1.31691e-05
1.31926e-05
1.44469e-05
1.44552e-05
2.60027e-05
2.71779e-05
1.3144e-05
1.32502e-05
1.44215e-05
1.46622e-05
1.32213e-05
1.46164e-05
1.44714e-05
2.60338e-05
2.71976e-05
1.3259e-05
1.45924e-05
1.45178e-05
2.71126e-05
2.74822e-05
2.85864e-05
1.48975e-05
1.48748e-05
1.62231e-05
1.62824e-05
2.7507e-05
2.86369e-05
1.48688e-05
1.51406e-05
1.61945e-05
1.64013e-05
1.4889e-05
1.63115e-05
1.61602e-05
2.75537e-05
2.8568e-05
1.49443e-05
1.64384e-05
1.62386e-05
2.85415e-05
2.89184e-05
2.99436e-05
1.66786e-05
1.67575e-05
1.80534e-05
1.8084e-05
2.89873e-05
2.99378e-05
1.66481e-05
1.67613e-05
1.80065e-05
1.78908e-05
1.66185e-05
1.80493e-05
1.80833e-05
2.88642e-05
2.98111e-05
1.66923e-05
1.80817e-05
1.81382e-05
3.00231e-05
3.02609e-05
3.12536e-05
1.84842e-05
1.85347e-05
1.98497e-05
2.00024e-05
3.02463e-05
3.12982e-05
1.84416e-05
1.83335e-05
1.98538e-05
1.98648e-05
1.85441e-05
1.99027e-05
1.98418e-05
3.0149e-05
3.12438e-05
1.86126e-05
2.00848e-05
1.99388e-05
3.12435e-05
3.1582e-05
3.25978e-05
2.03498e-05
2.04798e-05
2.1828e-05
2.18006e-05
3.16177e-05
3.25053e-05
2.03609e-05
2.03847e-05
2.18336e-05
2.18319e-05
2.02947e-05
2.171e-05
2.17674e-05
3.15656e-05
3.25562e-05
2.03659e-05
2.19104e-05
2.17235e-05
3.25363e-05
3.28808e-05
3.37722e-05
2.22757e-05
2.22345e-05
2.3569e-05
2.35954e-05
3.278e-05
3.37123e-05
2.22868e-05
2.22849e-05
2.36022e-05
2.36278e-05
2.22509e-05
2.35164e-05
2.36067e-05
3.28531e-05
3.37909e-05
2.21932e-05
2.36676e-05
2.35798e-05
3.37878e-05
3.40632e-05
3.49606e-05
2.40721e-05
2.40979e-05
2.56455e-05
2.55049e-05
3.40062e-05
3.48621e-05
2.40978e-05
2.41196e-05
2.5612e-05
2.55339e-05
2.41066e-05
2.54542e-05
2.56338e-05
3.407e-05
3.48813e-05
2.4077e-05
2.54765e-05
2.55037e-05
3.49178e-05
3.5181e-05
3.57698e-05
2.60794e-05
2.58765e-05
2.71099e-05
2.68825e-05
3.50787e-05
3.57138e-05
2.60299e-05
2.59142e-05
2.70498e-05
2.69353e-05
2.60521e-05
2.68628e-05
2.70647e-05
3.50996e-05
3.57505e-05
2.58877e-05
2.69408e-05
2.6888e-05
3.57433e-05
3.60391e-05
3.76695e-05
2.75705e-05
2.73791e-05
2.9414e-05
2.93387e-05
3.60097e-05
3.76925e-05
2.75121e-05
2.74284e-05
2.93589e-05
2.93594e-05
2.75268e-05
2.93174e-05
2.9377e-05
3.60442e-05
3.76957e-05
2.73679e-05
2.93612e-05
2.92795e-05
3.76613e-05
3.81017e-05
3.93145e-05
3.00977e-05
3.00591e-05
3.18865e-05
3.19069e-05
3.81289e-05
3.93471e-05
3.0043e-05
3.00721e-05
3.18481e-05
3.19129e-05
3.00691e-05
3.18841e-05
3.18915e-05
3.81281e-05
3.93523e-05
2.99823e-05
3.19044e-05
3.18313e-05
3.93286e-05
3.94793e-05
3.93361e-05
3.22157e-05
3.22352e-05
3.2449e-05
3.24578e-05
3.95087e-05
3.93413e-05
3.21856e-05
3.22433e-05
3.24304e-05
3.24712e-05
3.22276e-05
3.24459e-05
3.2466e-05
3.95162e-05
3.93615e-05
3.21749e-05
3.24698e-05
3.24203e-05
3.93453e-05
3.93335e-05
3.81166e-05
3.24324e-05
3.24386e-05
3.17312e-05
3.17034e-05
3.93359e-05
3.80856e-05
3.24149e-05
3.24526e-05
3.17234e-05
3.17199e-05
3.24491e-05
3.16969e-05
3.17342e-05
3.93565e-05
3.81056e-05
3.2404e-05
3.17225e-05
3.17018e-05
3.81072e-05
3.80339e-05
3.6964e-05
3.13644e-05
3.1333e-05
3.0584e-05
3.05521e-05
3.80023e-05
3.69369e-05
3.13562e-05
3.13482e-05
3.05753e-05
3.0563e-05
3.13623e-05
3.05457e-05
3.05741e-05
3.80212e-05
3.69466e-05
3.13327e-05
3.05607e-05
3.05524e-05
3.69513e-05
3.69731e-05
3.72232e-05
3.04985e-05
3.04684e-05
3.08547e-05
3.08403e-05
3.69466e-05
3.72112e-05
3.04896e-05
3.04778e-05
3.08461e-05
3.08411e-05
3.04878e-05
3.08345e-05
3.0844e-05
3.69557e-05
3.72121e-05
3.04683e-05
3.08353e-05
3.08353e-05
3.72151e-05
3.74626e-05
3.8555e-05
3.13364e-05
3.13243e-05
3.28149e-05
3.28078e-05
3.74521e-05
3.85506e-05
3.13278e-05
3.13251e-05
3.28071e-05
3.28094e-05
3.13283e-05
3.28034e-05
3.28128e-05
3.74527e-05
3.85518e-05
3.13192e-05
3.28065e-05
3.28037e-05
3.8555e-05
3.89191e-05
4.10989e-05
3.3454e-05
3.34481e-05
3.59019e-05
3.58977e-05
3.89157e-05
4.10977e-05
3.34464e-05
3.345e-05
3.58949e-05
3.59005e-05
3.34527e-05
3.58962e-05
3.59005e-05
3.89167e-05
4.10999e-05
3.34443e-05
3.58995e-05
3.58938e-05
4.10982e-05
4.16494e-05
4.39847e-05
3.68108e-05
3.68067e-05
3.93892e-05
3.93846e-05
4.16484e-05
4.3983e-05
3.6804e-05
3.68096e-05
3.93837e-05
3.93882e-05
3.68093e-05
3.93852e-05
3.93883e-05
4.16503e-05
4.39857e-05
3.68031e-05
3.93884e-05
3.93833e-05
4.39842e-05
4.44325e-05
4.59875e-05
4.01314e-05
4.01266e-05
4.18944e-05
4.18895e-05
4.44307e-05
4.59857e-05
4.01262e-05
4.01302e-05
4.18904e-05
4.18934e-05
4.01307e-05
4.18916e-05
4.18946e-05
4.44333e-05
4.59886e-05
4.0126e-05
4.18947e-05
4.18908e-05
4.59883e-05
4.62613e-05
4.70507e-05
4.23309e-05
4.23258e-05
4.32546e-05
4.32494e-05
4.62596e-05
4.70489e-05
4.2327e-05
4.23297e-05
4.32513e-05
4.32537e-05
4.23313e-05
4.32527e-05
4.32554e-05
4.62623e-05
4.70521e-05
4.23277e-05
4.32561e-05
4.32523e-05
4.70523e-05
4.71928e-05
4.75055e-05
4.34576e-05
4.34524e-05
4.38537e-05
4.38485e-05
4.7191e-05
4.75036e-05
4.34543e-05
4.34566e-05
4.38507e-05
4.38529e-05
4.34583e-05
4.38521e-05
4.38541e-05
4.71942e-05
4.75071e-05
4.34554e-05
4.38558e-05
4.38515e-05
4.75066e-05
4.75804e-05
4.76968e-05
4.39357e-05
4.39306e-05
4.40944e-05
4.40895e-05
4.75787e-05
4.76954e-05
4.39327e-05
4.39348e-05
4.40915e-05
4.40936e-05
4.3936e-05
4.40932e-05
4.40946e-05
4.7582e-05
4.76986e-05
4.39335e-05
4.40967e-05
4.40923e-05
4.7698e-05
4.77415e-05
4.777e-05
4.41272e-05
4.41224e-05
4.41845e-05
4.41797e-05
4.77402e-05
4.77688e-05
4.41242e-05
4.41264e-05
4.41816e-05
4.41836e-05
4.41275e-05
4.41834e-05
4.41849e-05
4.77432e-05
4.77716e-05
4.41252e-05
4.41867e-05
4.41827e-05
4.77715e-05
4.78007e-05
4.77878e-05
4.41923e-05
4.41874e-05
4.41959e-05
4.41908e-05
4.77995e-05
4.7786e-05
4.41894e-05
4.41913e-05
4.4193e-05
4.41949e-05
4.41927e-05
4.41946e-05
4.41963e-05
4.78021e-05
4.77891e-05
4.41904e-05
4.4198e-05
4.41939e-05
4.77885e-05
4.78104e-05
4.7762e-05
4.41925e-05
4.41872e-05
4.41889e-05
4.41837e-05
4.78083e-05
4.77604e-05
4.41895e-05
4.41914e-05
4.4186e-05
4.41879e-05
4.41928e-05
4.41876e-05
4.41893e-05
4.78116e-05
4.77637e-05
4.41904e-05
4.41911e-05
4.4187e-05
4.77634e-05
4.77892e-05
4.77903e-05
4.41912e-05
4.41862e-05
4.42017e-05
4.41966e-05
4.77879e-05
4.7789e-05
4.41883e-05
4.41903e-05
4.41988e-05
4.42009e-05
4.41917e-05
4.42004e-05
4.42018e-05
4.77909e-05
4.7792e-05
4.41894e-05
4.4204e-05
4.41996e-05
4.77916e-05
4.78181e-05
4.77768e-05
4.42018e-05
4.41967e-05
4.41956e-05
4.41905e-05
4.78168e-05
4.7775e-05
4.41989e-05
4.42009e-05
4.41927e-05
4.41945e-05
4.42018e-05
4.41945e-05
4.41959e-05
4.78197e-05
4.7778e-05
4.41996e-05
4.41977e-05
4.41935e-05
4.77769e-05
4.77995e-05
4.77742e-05
4.41942e-05
4.41891e-05
4.41947e-05
4.41897e-05
4.77977e-05
4.77732e-05
4.41912e-05
4.41931e-05
4.41917e-05
4.41937e-05
4.41946e-05
4.41933e-05
4.41952e-05
4.78006e-05
4.77765e-05
4.41922e-05
4.4197e-05
4.41932e-05
4.77777e-05
4.78054e-05
4.7787e-05
4.41974e-05
4.41924e-05
4.41983e-05
4.41931e-05
4.78044e-05
4.7785e-05
4.41944e-05
4.41964e-05
4.41953e-05
4.41973e-05
4.41977e-05
4.41974e-05
4.41986e-05
4.78075e-05
4.77877e-05
4.41957e-05
4.42005e-05
4.41959e-05
4.77849e-05
4.78085e-05
4.77714e-05
4.41958e-05
4.41906e-05
4.41955e-05
4.41904e-05
4.78064e-05
4.77703e-05
4.41928e-05
4.41948e-05
4.41926e-05
4.41945e-05
4.41961e-05
4.41937e-05
4.41957e-05
4.78091e-05
4.77738e-05
4.41935e-05
4.41976e-05
4.41939e-05
4.77761e-05
4.78029e-05
4.77843e-05
4.41971e-05
4.41921e-05
4.41965e-05
4.41912e-05
4.78021e-05
4.77818e-05
4.41941e-05
4.41961e-05
4.41934e-05
4.41953e-05
4.41975e-05
4.41953e-05
4.41968e-05
4.78053e-05
4.77846e-05
4.41955e-05
4.41986e-05
4.41942e-05
4.77811e-05
4.78059e-05
4.7778e-05
4.4196e-05
4.41906e-05
4.41965e-05
4.41914e-05
4.78035e-05
4.77767e-05
4.41929e-05
4.41948e-05
4.41936e-05
4.41956e-05
4.4196e-05
4.41952e-05
4.41972e-05
4.78062e-05
4.77806e-05
4.41938e-05
4.41986e-05
4.41949e-05
4.77829e-05
4.78084e-05
4.77742e-05
4.41964e-05
4.41914e-05
4.41963e-05
4.41913e-05
4.78071e-05
4.77732e-05
4.41935e-05
4.41955e-05
4.41933e-05
4.41951e-05
4.41972e-05
4.41948e-05
4.41965e-05
4.78106e-05
4.77752e-05
4.41948e-05
4.41984e-05
4.41943e-05
4.77739e-05
4.77973e-05
4.77874e-05
4.41966e-05
4.41914e-05
4.41963e-05
4.41912e-05
4.77961e-05
4.77857e-05
4.41934e-05
4.41952e-05
4.41934e-05
4.41953e-05
4.41967e-05
4.41948e-05
4.41968e-05
4.77983e-05
4.77891e-05
4.41945e-05
4.41985e-05
4.41945e-05
4.77888e-05
4.78128e-05
4.77759e-05
4.4196e-05
4.4191e-05
4.41969e-05
4.41918e-05
4.7812e-05
4.77715e-05
4.41931e-05
4.41951e-05
4.41938e-05
4.41955e-05
4.41966e-05
4.41951e-05
4.41971e-05
4.78143e-05
4.77767e-05
4.41944e-05
4.41988e-05
4.41948e-05
4.77781e-05
4.78072e-05
4.77721e-05
4.41968e-05
4.41918e-05
4.4196e-05
4.41908e-05
4.78028e-05
4.77726e-05
4.41937e-05
4.41955e-05
4.41931e-05
4.41952e-05
4.41969e-05
4.41949e-05
4.41967e-05
4.7808e-05
4.77744e-05
4.41946e-05
4.41985e-05
4.41944e-05
4.7773e-05
4.77971e-05
4.778e-05
4.41966e-05
4.41913e-05
4.41958e-05
4.41911e-05
4.7796e-05
4.77838e-05
4.41937e-05
4.41956e-05
4.41928e-05
4.41948e-05
4.41975e-05
4.41947e-05
4.41962e-05
4.77986e-05
4.77826e-05
4.41952e-05
4.41982e-05
4.41939e-05
4.77799e-05
4.78017e-05
4.77868e-05
4.41957e-05
4.41906e-05
4.41971e-05
4.41921e-05
4.78057e-05
4.7783e-05
4.41927e-05
4.41948e-05
4.41939e-05
4.41958e-05
4.41961e-05
4.41956e-05
4.41975e-05
4.78041e-05
4.77879e-05
4.41939e-05
4.41991e-05
4.41951e-05
4.77877e-05
4.78124e-05
4.77772e-05
4.41965e-05
4.41918e-05
4.41963e-05
4.41908e-05
4.78108e-05
4.77726e-05
4.41932e-05
4.41952e-05
4.41935e-05
4.41955e-05
4.41969e-05
4.41954e-05
4.41971e-05
4.78128e-05
4.77825e-05
4.41945e-05
4.41992e-05
4.4195e-05
4.77766e-05
4.78082e-05
4.77718e-05
4.4197e-05
4.41918e-05
4.4196e-05
4.41909e-05
4.78042e-05
4.77705e-05
4.41938e-05
4.41956e-05
4.41931e-05
4.41954e-05
4.41976e-05
4.41946e-05
4.41961e-05
4.78118e-05
4.7774e-05
4.41953e-05
4.41984e-05
4.41939e-05
4.77733e-05
4.77978e-05
4.77774e-05
4.41962e-05
4.4191e-05
4.41963e-05
4.41919e-05
4.77949e-05
4.77837e-05
4.41934e-05
4.41957e-05
4.41931e-05
4.41952e-05
4.41965e-05
4.41956e-05
4.41973e-05
4.78042e-05
4.77758e-05
4.41945e-05
4.41985e-05
4.41949e-05
4.77855e-05
4.77995e-05
4.7788e-05
4.41963e-05
4.41916e-05
4.4197e-05
4.41915e-05
4.7805e-05
4.77822e-05
4.41933e-05
4.41955e-05
4.41938e-05
4.41955e-05
4.41968e-05
4.41955e-05
4.41969e-05
4.77993e-05
4.77846e-05
4.41944e-05
4.41994e-05
4.41951e-05
4.77865e-05
4.78141e-05
4.77723e-05
4.4197e-05
4.41919e-05
4.41958e-05
4.41912e-05
4.78108e-05
4.77692e-05
4.41938e-05
4.41956e-05
4.41929e-05
4.41948e-05
4.4197e-05
4.4195e-05
4.41968e-05
4.78069e-05
4.77788e-05
4.41951e-05
4.41982e-05
4.41946e-05
4.77755e-05
4.78003e-05
4.77857e-05
4.41961e-05
4.41917e-05
4.41972e-05
4.41914e-05
4.77982e-05
4.77776e-05
4.41931e-05
4.41948e-05
4.41941e-05
4.41965e-05
4.41976e-05
4.4195e-05
4.41966e-05
4.78004e-05
4.77906e-05
4.41952e-05
4.41999e-05
4.41945e-05
4.77751e-05
4.78119e-05
4.77753e-05
4.41967e-05
4.41909e-05
4.41962e-05
4.41923e-05
4.77994e-05
4.77841e-05
4.41937e-05
4.41961e-05
4.41933e-05
4.41948e-05
4.41963e-05
4.41966e-05
4.41974e-05
4.78159e-05
4.77721e-05
4.41944e-05
4.41982e-05
4.41952e-05
4.7789e-05
4.78068e-05
4.77739e-05
4.4197e-05
4.41928e-05
4.41958e-05
4.41908e-05
4.78123e-05
4.7769e-05
4.4194e-05
4.41953e-05
4.41928e-05
4.41948e-05
4.41977e-05
4.41944e-05
4.41963e-05
4.78022e-05
4.77807e-05
4.41953e-05
4.41981e-05
4.41946e-05
4.77787e-05
4.77971e-05
4.77864e-05
4.41961e-05
4.41913e-05
4.41958e-05
4.41912e-05
4.7794e-05
4.77863e-05
4.41931e-05
4.4195e-05
4.41928e-05
4.41949e-05
4.41967e-05
4.41957e-05
4.41965e-05
4.78026e-05
4.77875e-05
4.41951e-05
4.41983e-05
4.41942e-05
4.77732e-05
4.78096e-05
4.77819e-05
4.4196e-05
4.41914e-05
4.41959e-05
4.41913e-05
4.7809e-05
4.7777e-05
4.4193e-05
4.41952e-05
4.41928e-05
4.41949e-05
4.41969e-05
4.41949e-05
4.41963e-05
4.7814e-05
4.77776e-05
4.41948e-05
4.4198e-05
4.41942e-05
4.77821e-05
4.7811e-05
4.77714e-05
4.41964e-05
4.41919e-05
4.41957e-05
4.41907e-05
4.78079e-05
4.77706e-05
4.41931e-05
4.41954e-05
4.41925e-05
4.41946e-05
4.41968e-05
4.41942e-05
4.41963e-05
4.7809e-05
4.7773e-05
4.41944e-05
4.41979e-05
4.41942e-05
4.77875e-05
4.78016e-05
4.77739e-05
4.41964e-05
4.41912e-05
4.41959e-05
4.41912e-05
4.77946e-05
4.77847e-05
4.41932e-05
4.41953e-05
4.41923e-05
4.41948e-05
4.41967e-05
4.41947e-05
4.41963e-05
4.77981e-05
4.77827e-05
4.41945e-05
4.41982e-05
4.41938e-05
4.77778e-05
4.77975e-05
4.77816e-05
4.41967e-05
4.41917e-05
4.41955e-05
4.41905e-05
4.78074e-05
4.77807e-05
4.4193e-05
4.41953e-05
4.41923e-05
4.41947e-05
4.4197e-05
4.4194e-05
4.41954e-05
4.78044e-05
4.7787e-05
4.41947e-05
4.41979e-05
4.41932e-05
4.77724e-05
4.78033e-05
4.77854e-05
4.41966e-05
4.41918e-05
4.41954e-05
4.41904e-05
4.78084e-05
4.77803e-05
4.41931e-05
4.41956e-05
4.41921e-05
4.41944e-05
4.41968e-05
4.4194e-05
4.41953e-05
4.78114e-05
4.77853e-05
4.41945e-05
4.41977e-05
4.41931e-05
4.77802e-05
4.78095e-05
4.77827e-05
4.41964e-05
4.41915e-05
4.41953e-05
4.41902e-05
4.78094e-05
4.77721e-05
4.41933e-05
4.41957e-05
4.41917e-05
4.41937e-05
4.41964e-05
4.41937e-05
4.41955e-05
4.78135e-05
4.77738e-05
4.41944e-05
4.41971e-05
4.4193e-05
4.77864e-05
4.78111e-05
4.77743e-05
4.4197e-05
4.41921e-05
4.41946e-05
4.41894e-05
4.78039e-05
4.77709e-05
4.41935e-05
4.41957e-05
4.41914e-05
4.41933e-05
4.4197e-05
4.4193e-05
4.41949e-05
4.78053e-05
4.77745e-05
4.41946e-05
4.41966e-05
4.41926e-05
4.77814e-05
4.7806e-05
4.77711e-05
4.41972e-05
4.41919e-05
4.41942e-05
4.41893e-05
4.77952e-05
4.77808e-05
4.41937e-05
4.41955e-05
4.41911e-05
4.41934e-05
4.41973e-05
4.41928e-05
4.41946e-05
4.77981e-05
4.77866e-05
4.41949e-05
4.41967e-05
4.41924e-05
4.77757e-05
4.77975e-05
4.77761e-05
4.41973e-05
4.4192e-05
4.41942e-05
4.41893e-05
4.78028e-05
4.77833e-05
4.41941e-05
4.4196e-05
4.41909e-05
4.41931e-05
4.41977e-05
4.41926e-05
4.41943e-05
4.78092e-05
4.77839e-05
4.41953e-05
4.41964e-05
4.41921e-05
4.77732e-05
4.77993e-05
4.77844e-05
4.4198e-05
4.41929e-05
4.41941e-05
4.41889e-05
4.78095e-05
4.77784e-05
4.41947e-05
4.4197e-05
4.41908e-05
4.41927e-05
4.41983e-05
4.41924e-05
4.41941e-05
4.78124e-05
4.77752e-05
4.41961e-05
4.41958e-05
4.41915e-05
4.77736e-05
4.78075e-05
4.77834e-05
4.41993e-05
4.41943e-05
4.41941e-05
4.41888e-05
4.78083e-05
4.77725e-05
4.4196e-05
4.41981e-05
4.41908e-05
4.41925e-05
4.41994e-05
4.41924e-05
4.41942e-05
4.78064e-05
4.77741e-05
4.4197e-05
4.4196e-05
4.41918e-05
4.77779e-05
4.78108e-05
4.77739e-05
4.4201e-05
4.41959e-05
4.41867e-05
4.41815e-05
4.78028e-05
4.77675e-05
4.41978e-05
4.41996e-05
4.41834e-05
4.41853e-05
4.42011e-05
4.4185e-05
4.41868e-05
4.78001e-05
4.77727e-05
4.41985e-05
4.41886e-05
4.41842e-05
4.77771e-05
4.78003e-05
4.7503e-05
4.41919e-05
4.41867e-05
4.39268e-05
4.39208e-05
4.77919e-05
4.74992e-05
4.41886e-05
4.41903e-05
4.39252e-05
4.39236e-05
4.4192e-05
4.39265e-05
4.39251e-05
4.77954e-05
4.75033e-05
4.41895e-05
4.39292e-05
4.39239e-05
4.75038e-05
4.72296e-05
4.28837e-05
4.28779e-05
4.72252e-05
4.28828e-05
4.28807e-05
2.91217e-05
2.91239e-05
2.91224e-05
4.28818e-05
4.72284e-05
4.28814e-05
3.54536e-06
4.77755e-07
2.29762e-06
2.30017e-06
1.10361e-07
2.71025e-07
2.80079e-07
1.2734e-06
1.0728e-07
3.46469e-07
1.2852e-06
4.88774e-07
3.66599e-07
3.97891e-07
4.25192e-07
3.05063e-07
4.96469e-06
2.54331e-07
6.6407e-06
1.40646e-05
2.17198e-05
3.11017e-07
4.94597e-06
2.51718e-07
6.62935e-06
1.24006e-06
1.25565e-06
1.25126e-06
1.23854e-06
1.22621e-06
1.24105e-06
1.23716e-06
1.0475e-07
5.76316e-07
5.44601e-07
2.74454e-07
1.05859e-07
5.56935e-07
5.38513e-07
1.40467e-05
2.17442e-05
1.02021e-07
5.70549e-07
7.26984e-07
3.63502e-07
1.03261e-07
5.64228e-07
6.97611e-07
1.92441e-06
1.93156e-06
3.51968e-07
1.90293e-06
1.90797e-06
5.04448e-07
9.74661e-06
4.04326e-07
1.25835e-05
3.70035e-05
4.68489e-05
5.10217e-07
9.79074e-06
3.97482e-07
1.2526e-05
1.23142e-06
1.246e-06
1.24216e-06
1.26045e-06