/*--------------------------------*- C++ -*----------------------------------*\
| =========                 |                                                 |
| \\      /  F ield         | OpenFOAM: The Open Source CFD Toolbox           |
|  \\    /   O peration     | Version:  v2012                                 |
|   \\  /    A nd           | Website:  www.openfoam.com                      |
|    \\/     M anipulation  |                                                 |
\*---------------------------------------------------------------------------*/
FoamFile
{
    version     2.0;
    format      ascii;
    class       volScalarField;
    location    "212.5";
    object      nut;
}
// * * * * * * * * * * * * * * * * * * * * * * * * * * * * * * * * * * * * * //

dimensions      [0 2 -1 0 0 0 0];


internalField   nonuniform List<scalar> 
171728
(
1.49241e-05
1.94048e-06
2.48932e-06
2.32911e-06
1.48401e-05
1.9734e-06
2.49969e-06
2.29705e-06
1.52118e-05
2.04065e-06
2.52719e-06
2.26399e-06
1.55768e-05
2.12424e-06
2.56011e-06
2.24128e-06
1.59393e-05
2.18731e-06
2.59099e-06
2.22805e-06
1.63014e-05
2.22939e-06
2.63093e-06
2.21722e-06
1.66531e-05
2.29404e-06
2.67462e-06
2.20553e-06
1.70013e-05
2.36159e-06
2.7222e-06
2.19629e-06
1.73539e-05
2.36971e-06
2.76231e-06
2.18322e-06
1.7691e-05
2.3485e-06
2.78614e-06
2.16589e-06
1.80262e-05
2.32168e-06
2.78633e-06
2.1375e-06
1.8374e-05
2.33349e-06
2.77679e-06
2.09948e-06
1.8711e-05
2.32338e-06
2.77727e-06
2.04722e-06
1.90891e-05
2.32938e-06
2.78477e-06
1.98345e-06
1.94378e-05
2.35792e-06
2.81784e-06
1.90336e-06
1.98635e-05
2.33462e-06
2.79339e-06
1.80971e-06
2.02186e-05
2.40539e-06
2.78307e-06
1.73563e-06
2.05804e-05
2.45873e-06
2.76094e-06
1.66353e-06
2.09705e-05
2.51296e-06
2.73461e-06
1.69268e-06
2.13336e-05
2.70142e-06
2.94128e-06
1.79809e-06
2.16147e-05
2.67765e-06
3.07594e-06
2.07586e-06
2.18727e-05
3.54236e-06
3.11411e-06
2.9369e-06
2.20897e-05
3.23105e-06
3.85828e-06
5.06609e-06
2.22475e-05
4.92238e-06
4.91419e-06
4.64192e-06
2.24012e-05
5.56283e-06
5.65976e-06
1.21868e-05
2.25026e-05
6.63188e-06
6.7205e-06
1.24431e-05
2.25471e-05
9.24418e-06
9.38704e-06
1.83633e-05
2.25526e-05
1.05231e-05
1.05865e-05
2.55161e-05
2.25464e-05
1.39991e-05
1.40705e-05
3.24998e-05
2.24569e-05
1.66779e-05
1.70996e-05
3.97809e-05
2.24317e-05
2.0743e-05
2.04357e-05
4.72284e-05
2.23853e-05
2.39595e-05
2.45172e-05
5.42715e-05
2.24701e-05
2.96318e-05
2.91702e-05
6.03802e-05
2.27617e-05
3.54197e-05
3.41621e-05
6.6416e-05
2.309e-05
3.89555e-05
3.92667e-05
7.14661e-05
2.39481e-05
4.65732e-05
4.48648e-05
7.74248e-05
2.49006e-05
5.17711e-05
5.22136e-05
8.16198e-05
2.63065e-05
5.78898e-05
5.80066e-05
8.60403e-05
2.78912e-05
6.34636e-05
6.38761e-05
9.09984e-05
2.99518e-05
7.02456e-05
7.10516e-05
9.48015e-05
3.30919e-05
7.64031e-05
7.74849e-05
9.95814e-05
3.57522e-05
8.32469e-05
8.37393e-05
0.000104371
4.09464e-05
9.03944e-05
9.04241e-05
0.000108623
4.4108e-05
9.5125e-05
9.55754e-05
0.000111208
5.20526e-05
0.000108078
0.000108302
0.000120966
6.41226e-05
0.000121195
0.000121317
0.000129472
6.83511e-05
0.000122417
0.000122555
0.000130318
6.23151e-05
0.000114322
0.000114451
0.000123991
5.11389e-05
0.000105736
0.000105805
0.000117037
4.82626e-05
0.000106873
0.000106869
0.000117339
5.83521e-05
0.000115611
0.00011562
0.000121992
8.16002e-05
0.00013294
0.000132951
0.000133464
0.000115965
0.000152647
0.000152656
0.000146872
0.000146876
0.000166847
0.000166855
0.000156247
0.000166439
0.00017449
0.000174499
0.000161173
0.000175954
0.000177803
0.000177814
0.00016322
0.000179924
0.000179148
0.000179158
0.000164073
0.000181369
0.000179629
0.000179638
0.000164415
0.000181599
0.000179638
0.000179648
0.000164496
0.000181636
0.000179613
0.000179623
0.000164341
0.000181718
0.000179699
0.00017971
0.000164524
0.000181683
0.000179646
0.000179655
0.000164416
0.000181692
0.000179662
0.000179674
0.000164443
0.00018169
0.00017966
0.000179668
0.00016446
0.000181687
0.000179662
0.000179673
0.000164444
0.000181686
0.000179655
0.000179666
0.000164437
0.000181684
0.000179661
0.000179671
0.000164476
0.000181685
0.000179658
0.000179669
0.000164388
0.000181685
0.000179658
0.000179669
0.0001645
0.000181685
0.00017966
0.000179672
0.000164459
0.000181687
0.000179661
0.000179673
0.000164395
0.000181686
0.000179657
0.000179668
0.000164421
0.000181687
0.000179662
0.00017967
0.0001645
0.000181687
0.000179665
0.000179676
0.00016445
0.000181688
0.000179661
0.000179675
0.000164385
0.000181691
0.000179661
0.00017967
0.000164456
0.000181691
0.000179666
0.000179676
0.000164498
0.000181689
0.000179665
0.000179669
0.000164446
0.000181689
0.000179656
0.000179678
0.000164395
0.000181689
0.000179674
0.000179672
0.000164498
0.000181688
0.000179661
0.00017967
0.000164458
0.000181687
0.000179664
0.000179671
0.000164389
0.000181688
0.000179665
0.000179672
0.000164437
0.000181688
0.000179659
0.00017967
0.000164504
0.000181688
0.000179663
0.000179672
0.000164467
0.000181688
0.000179662
0.000179673
0.000164397
0.000181687
0.000179661
0.000179673
0.000164432
0.000181687
0.000179663
0.000179672
0.000164489
0.000181687
0.000179661
0.000179669
0.000164474
0.000181687
0.000179661
0.000179672
0.000164445
0.000181688
0.000179663
0.000179676
0.000164414
0.000181689
0.000179667
0.000179678
0.000164396
0.000181689
0.000179674
0.000179683
0.000164418
0.000181782
0.000179655
0.000179666
0.000164441
0.000182584
0.000179831
0.000179842
0.00016651
2.2639e-06
2.55499e-06
2.37003e-06
2.25408e-06
2.44674e-06
2.47751e-06
1.54283e-05
1.52045e-05
1.53482e-05
1.5345e-05
1.83356e-06
2.44427e-06
2.21325e-06
2.49802e-06
2.20367e-06
2.33296e-06
2.24164e-06
2.24678e-06
2.48508e-06
2.4052e-06
2.49523e-06
2.36027e-06
2.24294e-06
2.2648e-06
2.45784e-06
2.46885e-06
2.45973e-06
2.46591e-06
2.46712e-06
1.95954e-06
2.47197e-06
2.19278e-06
2.20299e-06
1.98409e-06
2.49315e-06
1.96213e-06
2.30393e-06
2.22516e-06
2.25793e-06
2.50467e-06
2.36458e-06
2.54184e-06
2.42844e-06
2.24895e-06
2.26688e-06
2.46575e-06
2.47014e-06
2.483e-06
2.48628e-06
2.47764e-06
2.02186e-06
2.49493e-06
2.18261e-06
2.20834e-06
1.96142e-06
2.52081e-06
1.95e-06
2.2843e-06
2.24233e-06
2.2938e-06
2.5578e-06
2.45943e-06
2.60945e-06
2.50585e-06
2.24826e-06
2.2716e-06
2.48961e-06
2.49284e-06
2.51751e-06
2.51558e-06
2.50194e-06
2.10368e-06
2.52895e-06
2.18779e-06
2.21775e-06
1.94472e-06
2.55074e-06
1.92774e-06
2.26266e-06
2.28491e-06
2.35111e-06
2.62946e-06
2.515e-06
2.70029e-06
2.59781e-06
2.2539e-06
2.28496e-06
2.52745e-06
2.52245e-06
2.54858e-06
2.53855e-06
2.53825e-06
2.17603e-06
2.55857e-06
2.20307e-06
2.24714e-06
1.91976e-06
2.58165e-06
1.90542e-06
2.24871e-06
2.33947e-06
2.38636e-06
2.72449e-06
2.6351e-06
2.79826e-06
2.80305e-06
2.26795e-06
2.31063e-06
2.55665e-06
2.54689e-06
2.5793e-06
2.57712e-06
2.5658e-06
2.21907e-06
2.58619e-06
2.23543e-06
2.285e-06
1.90728e-06
2.62231e-06
1.93513e-06
2.2366e-06
2.37075e-06
2.41636e-06
2.823e-06
2.86449e-06
2.89833e-06
3.06695e-06
2.29241e-06
2.35515e-06
2.58793e-06
2.58646e-06
2.61677e-06
2.61745e-06
2.59505e-06
2.27739e-06
2.62193e-06
2.27317e-06
2.31257e-06
1.94796e-06
2.66486e-06
1.99043e-06
2.2227e-06
2.40094e-06
2.45286e-06
2.92091e-06
3.12788e-06
2.96396e-06
3.26701e-06
2.34111e-06
2.40293e-06
2.62853e-06
2.62568e-06
2.66494e-06
2.65072e-06
2.63037e-06
2.34763e-06
2.65253e-06
2.2967e-06
2.32075e-06
2.00686e-06
2.70979e-06
2.05681e-06
2.21214e-06
2.43866e-06
2.48881e-06
2.97638e-06
3.30028e-06
2.99657e-06
3.32456e-06
2.38543e-06
2.38225e-06
2.67588e-06
2.65825e-06
2.70458e-06
2.68097e-06
2.65694e-06
2.37148e-06
2.66868e-06
2.30201e-06
2.321e-06
2.07533e-06
2.7545e-06
2.12932e-06
2.19964e-06
2.47287e-06
2.45154e-06
2.9871e-06
3.31429e-06
2.93236e-06
3.22128e-06
2.35143e-06
2.28385e-06
2.71256e-06
2.68782e-06
2.73121e-06
2.70927e-06
2.67481e-06
2.352e-06
2.69019e-06
2.30458e-06
2.30527e-06
2.15243e-06
2.78461e-06
2.20475e-06
2.1828e-06
2.41812e-06
2.33131e-06
2.8974e-06
3.17142e-06
2.78266e-06
2.98616e-06
2.24835e-06
2.1597e-06
2.73473e-06
2.71359e-06
2.74932e-06
2.72647e-06
2.69735e-06
2.329e-06
2.72047e-06
2.28367e-06
2.24882e-06
2.22509e-06
2.78671e-06
2.27735e-06
2.15411e-06
2.29288e-06
2.18076e-06
2.75309e-06
2.93449e-06
2.69326e-06
2.84234e-06
2.12401e-06
2.03177e-06
2.74562e-06
2.73106e-06
2.76052e-06
2.74e-06
2.7267e-06
2.33202e-06
2.74203e-06
2.2247e-06
2.18131e-06
2.2896e-06
2.77926e-06
2.3496e-06
2.11739e-06
2.14409e-06
2.04775e-06
2.67242e-06
2.82093e-06
2.63228e-06
2.75569e-06
2.00802e-06
1.94377e-06
2.76335e-06
2.74423e-06
2.76368e-06
2.74878e-06
2.74511e-06
2.32236e-06
2.75386e-06
2.15685e-06
2.11502e-06
2.36045e-06
2.78351e-06
2.41566e-06
2.06613e-06
2.02244e-06
1.94535e-06
2.63211e-06
2.75383e-06
2.61172e-06
2.78184e-06
1.92029e-06
1.84704e-06
2.76868e-06
2.75215e-06
2.78113e-06
2.77712e-06
2.76047e-06
2.33098e-06
2.76015e-06
2.09283e-06
2.05501e-06
2.43817e-06
2.7814e-06
2.47154e-06
2.00498e-06
1.92092e-06
1.83968e-06
2.61299e-06
2.78154e-06
2.60845e-06
2.7743e-06
1.81856e-06
1.73972e-06
2.78404e-06
2.78019e-06
2.77681e-06
2.78137e-06
2.76196e-06
2.34292e-06
2.77395e-06
2.03427e-06
1.98613e-06
2.49101e-06
2.80507e-06
2.53176e-06
1.93082e-06
1.80699e-06
1.74723e-06
2.61496e-06
2.79241e-06
2.6254e-06
2.76483e-06
1.72777e-06
1.64437e-06
2.77713e-06
2.79202e-06
2.78125e-06
2.79687e-06
2.77567e-06
2.34636e-06
2.77912e-06
1.96071e-06
1.90007e-06
2.5419e-06
2.79992e-06
2.58374e-06
1.84291e-06
1.71371e-06
1.62074e-06
2.63167e-06
2.74111e-06
2.60757e-06
2.75698e-06
1.59851e-06
1.58089e-06
2.78616e-06
2.79722e-06
2.74107e-06
2.7917e-06
2.77486e-06
2.39934e-06
2.77803e-06
1.87439e-06
1.78945e-06
2.59454e-06
2.792e-06
2.62044e-06
1.76303e-06
1.57015e-06
1.66346e-06
2.60715e-06
2.73936e-06
2.6435e-06
2.73908e-06
1.55117e-06
1.52596e-06
2.73532e-06
2.78682e-06
2.76305e-06
2.7874e-06
2.78051e-06
2.41913e-06
2.76276e-06
1.77688e-06
1.69611e-06
2.63365e-06
2.75888e-06
2.65588e-06
1.68368e-06
1.60808e-06
1.62043e-06
2.60789e-06
2.77246e-06
2.67829e-06
2.74265e-06
1.56236e-06
1.54085e-06
2.72763e-06
2.79104e-06
2.7726e-06
2.81516e-06
2.76135e-06
2.52841e-06
2.78252e-06
1.69002e-06
1.70291e-06
2.6594e-06
2.76233e-06
2.71763e-06
1.69449e-06
1.67549e-06
1.62848e-06
2.68517e-06
2.72541e-06
2.69132e-06
2.83596e-06
1.48505e-06
1.73504e-06
2.77113e-06
2.77955e-06
2.82713e-06
2.90044e-06
2.7648e-06
2.59031e-06
2.80083e-06
1.72228e-06
1.76761e-06
2.72387e-06
2.88634e-06
2.75131e-06
1.73765e-06
1.72297e-06
2.0058e-06
2.76074e-06
2.90971e-06
2.93989e-06
2.91386e-06
1.8574e-06
1.9388e-06
2.881e-06
2.94802e-06
2.95858e-06
2.94405e-06
2.87309e-06
2.76587e-06
2.93557e-06
1.98421e-06
1.89253e-06
2.81585e-06
2.85463e-06
2.85116e-06
2.05986e-06
2.04452e-06
2.40329e-06
2.97309e-06
2.83975e-06
2.96052e-06
3.46664e-06
1.86616e-06
3.12112e-06
3.00889e-06
3.13016e-06
3.10428e-06
3.13085e-06
3.00109e-06
3.30315e-06
3.26137e-06
1.91695e-06
2.89459e-06
2.92924e-06
3.1498e-06
3.21267e-06
2.91881e-06
2.63531e-06
4.72236e-06
3.24091e-06
3.67991e-06
3.89287e-06
3.41841e-06
3.78126e-06
3.12428e-06
3.35444e-06
3.1623e-06
3.94048e-06
3.97258e-06
3.22106e-06
3.28977e-06
3.94795e-06
2.67745e-06
4.94941e-06
3.15691e-06
3.92503e-06
3.87958e-06
4.2241e-06
4.55094e-06
4.30031e-06
3.75596e-06
3.38961e-06
3.94177e-06
4.82944e-06
2.82681e-06
7.75874e-06
3.81541e-06
3.89559e-06
4.11629e-06
4.41555e-06
4.21678e-06
4.77688e-06
4.03677e-06
5.10049e-06
4.94176e-06
4.17627e-06
4.4371e-06
4.0116e-06
4.9204e-06
5.58245e-06
1.1007e-05
4.66145e-06
5.00773e-06
5.62485e-06
5.32946e-06
8.67904e-06
7.96432e-06
4.72336e-06
4.93637e-06
5.79572e-06
5.44795e-06
4.15652e-06
5.12528e-06
5.85946e-06
6.42024e-06
9.47243e-06
4.05164e-06
5.39329e-06
5.87462e-06
1.05512e-05
1.09188e-05
1.1417e-05
5.63172e-06
5.69852e-06
6.55839e-06
6.67636e-06
8.3766e-06
1.23735e-05
5.87622e-06
5.66488e-06
6.6166e-06
6.70834e-06
6.25603e-06
6.51769e-06
6.67946e-06
9.30726e-06
1.19693e-05
6.23471e-06
6.55201e-06
6.57222e-06
1.25573e-05
1.242e-05
1.70672e-05
7.00426e-06
6.8555e-06
8.02978e-06
8.546e-06
1.29098e-05
1.72907e-05
7.01665e-06
6.87018e-06
8.27523e-06
8.55953e-06
6.80405e-06
8.44258e-06
8.33043e-06
1.28356e-05
1.74408e-05
6.76817e-06
8.53432e-06
8.28417e-06
1.66737e-05
1.80878e-05
2.44408e-05
8.60291e-06
9.34805e-06
1.06022e-05
1.05276e-05
1.90911e-05
2.46902e-05
8.86922e-06
9.45014e-06
1.07582e-05
1.04593e-05
9.01919e-06
1.01962e-05
1.05519e-05
1.91675e-05
2.48279e-05
9.00175e-06
1.03244e-05
1.04332e-05
2.46496e-05
2.58653e-05
3.06654e-05
1.10629e-05
1.08029e-05
1.29384e-05
1.30953e-05
2.50541e-05
3.01267e-05
1.12259e-05
1.07156e-05
1.30881e-05
1.31551e-05
1.11169e-05
1.29572e-05
1.3119e-05
2.51381e-05
2.98615e-05
1.09253e-05
1.30924e-05
1.32035e-05
3.08345e-05
3.2061e-05
3.90165e-05
1.38195e-05
1.40825e-05
1.60857e-05
1.64051e-05
3.23847e-05
3.97422e-05
1.39652e-05
1.41008e-05
1.63442e-05
1.66058e-05
1.38203e-05
1.62293e-05
1.61687e-05
3.21121e-05
4.00284e-05
1.38774e-05
1.63777e-05
1.59511e-05
3.84653e-05
4.03154e-05
4.53173e-05
1.6803e-05
1.71334e-05
1.97023e-05
1.96421e-05
4.06159e-05
4.50392e-05
1.70411e-05
1.73148e-05
1.97608e-05
1.96763e-05
1.70011e-05
1.93781e-05
1.96834e-05
4.09906e-05
4.52437e-05
1.69249e-05
1.94637e-05
1.98559e-05
4.57678e-05
4.69009e-05
5.28368e-05
2.07007e-05
2.05904e-05
2.34425e-05
2.38409e-05
4.67011e-05
5.28019e-05
2.0779e-05
2.08946e-05
2.36889e-05
2.35808e-05
2.07283e-05
2.343e-05
2.39288e-05
4.66788e-05
5.27649e-05
2.06761e-05
2.35259e-05
2.34051e-05
5.29167e-05
5.4107e-05
5.90283e-05
2.45229e-05
2.49119e-05
2.80138e-05
2.79282e-05
5.40435e-05
5.91542e-05
2.47802e-05
2.4328e-05
2.82172e-05
2.85649e-05
2.48699e-05
2.76904e-05
2.79714e-05
5.41055e-05
5.89892e-05
2.45585e-05
2.79819e-05
2.85571e-05
5.90383e-05
6.03234e-05
6.49269e-05
2.90663e-05
2.91048e-05
3.27411e-05
3.3522e-05
6.06315e-05
6.57843e-05
2.9215e-05
2.9721e-05
3.27756e-05
3.26655e-05
2.92174e-05
3.44727e-05
3.30547e-05
6.0407e-05
6.53478e-05
2.98423e-05
3.28413e-05
3.31753e-05
6.52766e-05
6.62206e-05
7.06973e-05
3.41522e-05
3.49052e-05
3.79767e-05
3.76173e-05
6.6915e-05
7.00153e-05
3.4211e-05
3.43869e-05
3.80682e-05
3.9047e-05
3.42344e-05
3.77707e-05
3.76752e-05
6.65814e-05
7.06736e-05
3.42271e-05
3.79543e-05
3.77837e-05
7.02774e-05
7.17899e-05
7.58305e-05
3.93018e-05
3.85516e-05
4.38404e-05
4.34572e-05
7.09661e-05
7.58047e-05
3.934e-05
3.99921e-05
4.37511e-05
4.38861e-05
3.90339e-05
4.45882e-05
4.39886e-05
7.17995e-05
7.64012e-05
3.92213e-05
4.34968e-05
4.4161e-05
7.62317e-05
7.69647e-05
8.06391e-05
4.52665e-05
4.53096e-05
4.95815e-05
4.95879e-05
7.72399e-05
8.09784e-05
4.51794e-05
4.55396e-05
4.94896e-05
5.07121e-05
4.55933e-05
5.06537e-05
4.98275e-05
7.76232e-05
8.13003e-05
4.57431e-05
5.00771e-05
5.00408e-05
8.07297e-05
8.16927e-05
8.52549e-05
5.11574e-05
5.09405e-05
5.56578e-05
5.59186e-05
8.18392e-05
8.55504e-05
5.1043e-05
5.25162e-05
5.5534e-05
5.69e-05
5.12029e-05
5.62354e-05
5.52905e-05
8.23344e-05
8.55066e-05
5.14799e-05
5.69914e-05
5.57665e-05
8.49938e-05
8.62067e-05
8.95805e-05
5.72186e-05
5.76376e-05
6.19746e-05
6.21042e-05
8.66269e-05
8.96424e-05
5.70824e-05
5.79419e-05
6.1705e-05
6.11163e-05
5.68323e-05
6.2084e-05
6.21161e-05
8.62731e-05
8.91275e-05
5.72968e-05
6.20369e-05
6.2481e-05
8.99937e-05
9.05124e-05
9.38911e-05
6.33641e-05
6.36156e-05
6.78868e-05
6.89727e-05
9.05181e-05
9.43067e-05
6.31098e-05
6.25287e-05
6.79391e-05
6.80909e-05
6.37346e-05
6.85265e-05
6.796e-05
9.01453e-05
9.40382e-05
6.41997e-05
6.94302e-05
6.87509e-05
9.39475e-05
9.49517e-05
9.88715e-05
6.96961e-05
7.07306e-05
7.52e-05
7.53147e-05
9.53494e-05
9.85599e-05
6.98109e-05
7.00566e-05
7.53068e-05
7.53747e-05
6.94653e-05
7.48898e-05
7.48261e-05
9.50497e-05
9.86927e-05
7.01508e-05
7.58416e-05
7.48458e-05
9.85303e-05
9.979e-05
0.000103304
7.67878e-05
7.67933e-05
8.11733e-05
8.163e-05
9.94019e-05
0.000103017
7.69343e-05
7.69873e-05
8.15107e-05
8.17542e-05
7.6626e-05
8.12549e-05
8.14508e-05
9.96556e-05
0.000103368
7.65478e-05
8.2043e-05
8.15944e-05
0.000103393
0.000104347
0.000108253
8.31232e-05
8.36208e-05
8.9838e-05
8.92777e-05
0.000104047
0.000107588
8.34359e-05
8.36835e-05
8.9787e-05
8.93939e-05
8.34025e-05
8.90324e-05
8.98405e-05
0.000104335
0.000107664
8.35566e-05
8.90001e-05
8.93561e-05
0.000107953
0.000108951
0.000110635
9.16049e-05
9.05722e-05
9.47648e-05
9.33132e-05
0.000108232
0.000110108
9.14369e-05
9.07541e-05
9.449e-05
9.36318e-05
9.14951e-05
9.32564e-05
9.44908e-05
0.000108326
0.000110335
9.0747e-05
9.36673e-05
9.35092e-05
0.000110376
0.000111409
0.000119041
9.6456e-05
9.51721e-05
0.000104967
0.000104336
0.000111039
0.00011905
9.61845e-05
9.54847e-05
0.000104695
0.000104488
9.61768e-05
0.000104259
0.000104677
0.000111266
0.000119103
9.52699e-05
0.000104546
0.000104113
0.000118911
0.000121081
0.000128527
0.000108578
0.000108186
0.000119121
0.000119192
0.000121134
0.000128709
0.000108298
0.000108287
0.000118912
0.000119229
0.000108325
0.000119071
0.000119079
0.000121158
0.00012872
0.000107824
0.000119196
0.000118743
0.000128567
0.000129425
0.000130381
0.000121199
0.000121291
0.000122525
0.000122609
0.000129589
0.000130453
0.000121042
0.000121336
0.000122436
0.000122677
0.000121213
0.000122552
0.000122609
0.000129615
0.00013054
0.000120929
0.000122686
0.000122369
0.000130429
0.000130277
0.0001247
0.000122397
0.00012247
0.000117291
0.000117151
0.000130334
0.000124563
0.000122315
0.000122541
0.000117275
0.000117237
0.000122484
0.00011713
0.000117307
0.000130424
0.000124659
0.000122246
0.000117276
0.000117147
0.000124652
0.000124046
0.000117512
0.000114505
0.000114343
0.000107371
0.000107195
0.000123905
0.000117381
0.000114486
0.000114422
0.000107347
0.00010725
0.000114492
0.000107172
0.000107309
0.000123995
0.000117427
0.000114347
0.000107254
0.000107209
0.000117442
0.000117106
0.000116704
0.000105925
0.000105758
0.000104966
0.000104889
0.000116974
0.000116644
0.000105901
0.000105805
0.000104941
0.000104884
0.000105858
0.000104868
0.000104895
0.00011702
0.000116644
0.000105769
0.000104863
0.000104871
0.000116652
0.000117387
0.000120847
0.00010696
0.000106896
0.000112828
0.000112792
0.000117334
0.000120823
0.000106935
0.00010689
0.000112806
0.000112791
0.000106903
0.000112776
0.000112809
0.000117333
0.000120824
0.000106876
0.000112784
0.000112779
0.000120837
0.000121998
0.00013117
0.000115653
0.000115625
0.000127959
0.000127942
0.00012198
0.000131166
0.000115632
0.000115625
0.000127941
0.000127947
0.00011564
0.000127942
0.000127945
0.000121981
0.00013117
0.000115613
0.000127953
0.000127929
0.000131157
0.000133479
0.000144878
0.000132955
0.000132939
0.000148067
0.000148049
0.000133475
0.000144871
0.000132938
0.000132944
0.000148058
0.000148057
0.00013294
0.000148063
0.000148055
0.000133479
0.000144877
0.000132927
0.000148072
0.000148049
0.000144862
0.000146888
0.00015505
0.000152652
0.000152632
0.000163952
0.00016393
0.00014688
0.000155042
0.000152645
0.000152641
0.000163954
0.00016394
0.000152641
0.000163956
0.000163946
0.000146887
0.000155048
0.000152637
0.000163964
0.000163949
0.00015504
0.000156257
0.000160635
0.000166842
0.00016682
0.000173084
0.000173061
0.000156248
0.000160627
0.000166845
0.000166829
0.000173092
0.000173073
0.000166837
0.000173095
0.000173083
0.000156255
0.000160635
0.000166841
0.000173104
0.000173091
0.00016063
0.000161179
0.00016304
0.000174479
0.000174455
0.000177219
0.000177195
0.00016117
0.00016303
0.000174487
0.000174467
0.000177229
0.000177208
0.000174478
0.000177232
0.000177215
0.000161179
0.000163041
0.000174487
0.000177243
0.000177227
0.000163031
0.000163228
0.000164056
0.000177788
0.000177765
0.000178898
0.000178876
0.000163219
0.000164049
0.000177799
0.000177777
0.000178909
0.000178887
0.000177784
0.000178914
0.000178892
0.00016323
0.000164058
0.000177796
0.000178925
0.000178907
0.000164047
0.000164081
0.000164475
0.000179132
0.00017911
0.000179551
0.000179531
0.000164074
0.00016447
0.000179143
0.000179121
0.000179563
0.00017954
0.000179126
0.000179568
0.000179547
0.000164083
0.000164476
0.000179141
0.000179577
0.000179562
0.000164468
0.00016442
0.00016461
0.000179612
0.000179591
0.000179649
0.000179626
0.000164415
0.000164601
0.000179624
0.0001796
0.00017966
0.000179636
0.000179608
0.000179664
0.000179644
0.000164421
0.000164609
0.000179623
0.000179674
0.000179658
0.000164599
0.000164508
0.00016443
0.000179624
0.0001796
0.000179584
0.000179561
0.000164497
0.000164421
0.000179635
0.000179611
0.000179596
0.000179572
0.000179618
0.000179599
0.00017958
0.000164506
0.00016443
0.000179632
0.00017961
0.000179594
0.000164422
0.000164346
0.000164601
0.000179596
0.000179574
0.000179679
0.000179657
0.000164339
0.000164595
0.000179608
0.000179585
0.000179691
0.000179668
0.000179593
0.000179694
0.000179673
0.000164348
0.000164603
0.000179607
0.000179705
0.000179688
0.000164594
0.000164531
0.000164539
0.000179684
0.000179661
0.000179642
0.000179619
0.000164525
0.00016453
0.000179696
0.000179673
0.000179654
0.000179629
0.000179677
0.000179658
0.000179636
0.000164533
0.000164537
0.000179692
0.000179667
0.000179649
0.000164523
0.000164431
0.00016449
0.00017963
0.000179607
0.000179628
0.000179606
0.000164422
0.000164485
0.000179641
0.000179618
0.000179639
0.000179616
0.000179626
0.000179642
0.000179624
0.000164429
0.000164495
0.000179639
0.000179654
0.000179641
0.000164496
0.000164438
0.000164596
0.000179648
0.000179626
0.000179661
0.000179638
0.000164433
0.000164586
0.000179659
0.000179636
0.000179672
0.000179649
0.000179643
0.000179679
0.000179655
0.000164443
0.000164592
0.00017966
0.000179686
0.000179667
0.000164568
0.000164487
0.000164478
0.000179642
0.000179619
0.000179635
0.000179613
0.000164476
0.000164474
0.000179654
0.000179631
0.000179647
0.000179624
0.000179637
0.000179647
0.00017963
0.000164482
0.000164484
0.000179649
0.000179661
0.000179648
0.000164492
0.000164429
0.000164582
0.000179648
0.000179626
0.000179646
0.000179622
0.000164426
0.000164569
0.000179659
0.000179636
0.000179656
0.000179632
0.000179644
0.000179663
0.000179641
0.000164436
0.000164574
0.00017966
0.000179671
0.000179653
0.000164546
0.00016447
0.000164522
0.000179642
0.000179618
0.000179645
0.000179623
0.000164457
0.000164515
0.000179653
0.000179629
0.000179657
0.000179634
0.000179635
0.00017966
0.000179643
0.000164463
0.000164529
0.00017965
0.00017967
0.000179657
0.000164537
0.000164467
0.000164513
0.000179645
0.000179623
0.000179644
0.000179621
0.000164459
0.000164509
0.000179657
0.000179634
0.000179654
0.00017963
0.000179643
0.000179658
0.000179638
0.000164473
0.000164509
0.000179657
0.000179669
0.000179652
0.000164492
0.000164406
0.000164595
0.000179645
0.000179622
0.000179645
0.000179622
0.000164401
0.000164585
0.000179656
0.000179631
0.000179656
0.000179632
0.000179639
0.000179658
0.00017964
0.000164402
0.000164596
0.000179654
0.00017967
0.000179655
0.000164588
0.00016451
0.000164509
0.000179642
0.00017962
0.000179648
0.000179625
0.000164506
0.000164483
0.000179654
0.000179631
0.000179658
0.000179634
0.000179639
0.00017966
0.000179642
0.000164511
0.000164505
0.000179653
0.000179672
0.000179657
0.000164509
0.000164462
0.000164491
0.000179648
0.000179626
0.000179641
0.000179618
0.000164434
0.0001645
0.000179658
0.000179634
0.000179653
0.000179631
0.000179641
0.000179659
0.000179638
0.000164457
0.000164498
0.000179655
0.00017967
0.000179653
0.000164477
0.000164396
0.000164551
0.000179646
0.000179621
0.000179641
0.000179621
0.000164395
0.000164577
0.000179658
0.000179634
0.000179652
0.000179629
0.000179645
0.000179658
0.000179636
0.000164399
0.000164558
0.000179659
0.000179668
0.000179651
0.000164533
0.000164436
0.00016459
0.00017964
0.000179617
0.00017965
0.000179628
0.000164466
0.000164563
0.000179651
0.000179628
0.00017966
0.000179636
0.000179635
0.000179665
0.000179645
0.000164444
0.000164588
0.00017965
0.000179675
0.000179659
0.000164576
0.000164508
0.000164516
0.000179646
0.000179627
0.000179643
0.000179618
0.000164495
0.000164489
0.000179655
0.000179632
0.000179656
0.000179634
0.000179641
0.000179663
0.000179642
0.000164502
0.000164543
0.000179655
0.000179675
0.000179657
0.000164497
0.000164467
0.000164488
0.000179648
0.000179625
0.000179642
0.00017962
0.000164442
0.000164482
0.000179659
0.000179634
0.000179654
0.000179632
0.000179645
0.000179657
0.000179635
0.000164485
0.000164487
0.00017966
0.000179669
0.00017965
0.000164484
0.000164399
0.000164534
0.000179643
0.000179619
0.000179645
0.000179627
0.000164382
0.000164577
0.000179656
0.000179635
0.000179655
0.000179631
0.000179637
0.000179665
0.000179645
0.000164429
0.000164511
0.000179654
0.00017967
0.000179658
0.000164569
0.00016442
0.000164599
0.000179644
0.000179625
0.00017965
0.000179624
0.00016446
0.000164557
0.000179655
0.000179633
0.00017966
0.000179634
0.000179641
0.000179664
0.000179641
0.000164406
0.000164569
0.000179654
0.000179677
0.000179659
0.000164569
0.000164517
0.000164494
0.00017965
0.000179627
0.000179641
0.000179622
0.000164491
0.000164472
0.00017966
0.000179634
0.000179654
0.00017963
0.000179641
0.00017966
0.000179641
0.00016446
0.000164533
0.000179659
0.000179669
0.000179656
0.000164489
0.000164422
0.000164581
0.000179643
0.000179625
0.000179653
0.000179624
0.000164405
0.000164537
0.000179655
0.000179629
0.000179663
0.000179643
0.000179646
0.000179661
0.00017964
0.000164418
0.000164605
0.00017966
0.000179682
0.000179656
0.0001645
0.000164504
0.000164501
0.000179649
0.00017962
0.000179645
0.00017963
0.000164425
0.000164562
0.00017966
0.000179639
0.000179657
0.00017963
0.000179637
0.000179672
0.000179646
0.000164521
0.000164476
0.000179654
0.000179669
0.000179661
0.000164587
0.000164452
0.000164511
0.00017965
0.000179634
0.000179643
0.00017962
0.000164495
0.000164477
0.000179662
0.000179633
0.000179655
0.000179631
0.000179648
0.000179657
0.000179639
0.000164418
0.000164546
0.000179661
0.000179669
0.000179657
0.00016451
0.000164402
0.000164597
0.000179644
0.000179623
0.000179644
0.000179624
0.000164378
0.000164597
0.000179655
0.000179631
0.000179655
0.000179632
0.00017964
0.000179668
0.000179641
0.000164434
0.000164584
0.000179659
0.000179671
0.000179655
0.000164484
0.000164494
0.000164556
0.000179643
0.000179623
0.000179644
0.000179624
0.000164492
0.00016452
0.000179655
0.000179633
0.000179655
0.000179632
0.000179642
0.000179661
0.00017964
0.000164506
0.000164513
0.000179657
0.000179669
0.000179656
0.000164553
0.000164496
0.000164484
0.000179646
0.000179627
0.000179643
0.000179621
0.00016447
0.000164489
0.000179656
0.000179634
0.000179654
0.000179631
0.000179641
0.000179658
0.000179641
0.000164466
0.000164489
0.000179655
0.000179669
0.000179657
0.000164584
0.000164427
0.000164506
0.000179646
0.000179622
0.000179645
0.000179625
0.000164388
0.000164582
0.000179656
0.000179633
0.000179653
0.000179633
0.000179641
0.000179662
0.000179641
0.000164396
0.000164559
0.000179656
0.000179671
0.000179654
0.000164513
0.000164405
0.000164558
0.000179647
0.000179625
0.000179643
0.000179621
0.000164479
0.000164547
0.000179655
0.000179633
0.000179654
0.000179633
0.000179643
0.000179658
0.000179635
0.000164446
0.000164584
0.000179657
0.00017967
0.000179651
0.000164482
0.000164445
0.000164582
0.000179646
0.000179625
0.000179644
0.000179622
0.000164478
0.000164543
0.000179655
0.000179634
0.000179653
0.000179632
0.00017964
0.000179659
0.000179636
0.000164493
0.000164567
0.000179654
0.00017967
0.000179651
0.000164537
0.000164487
0.00016456
0.000179645
0.000179623
0.000179644
0.000179621
0.000164484
0.000164486
0.000179656
0.000179635
0.000179652
0.000179628
0.000179637
0.000179657
0.000179637
0.000164502
0.000164487
0.000179653
0.000179667
0.000179651
0.00016457
0.000164493
0.000164502
0.000179648
0.000179626
0.00017964
0.000179617
0.000164439
0.000164491
0.000179656
0.000179634
0.00017965
0.000179627
0.00017964
0.000179654
0.000179635
0.000164439
0.000164504
0.000179654
0.000179665
0.00017965
0.000164529
0.000164454
0.000164487
0.000179647
0.000179623
0.000179639
0.000179618
0.000164389
0.00016456
0.000179656
0.000179631
0.00017965
0.000179629
0.000179641
0.000179655
0.000179634
0.0001644
0.000164585
0.000179655
0.000179667
0.000179649
0.000164491
0.000164398
0.000164529
0.000179646
0.000179623
0.000179641
0.00017962
0.000164447
0.000164574
0.000179657
0.000179634
0.00017965
0.000179628
0.000179642
0.000179655
0.000179634
0.000164479
0.000164559
0.000179656
0.000179667
0.000179649
0.000164477
0.000164419
0.000164584
0.000179649
0.000179627
0.000179642
0.000179619
0.00016449
0.000164537
0.000179658
0.000179637
0.000179652
0.000179628
0.000179643
0.000179656
0.000179635
0.000164493
0.000164502
0.000179659
0.000179664
0.000179648
0.000164485
0.000164478
0.000164571
0.000179654
0.000179631
0.000179644
0.00017962
0.000164478
0.000164497
0.000179663
0.000179641
0.000179654
0.000179629
0.000179647
0.000179657
0.000179637
0.00016445
0.0001645
0.000179661
0.000179668
0.000179652
0.000164517
0.000164499
0.000164532
0.000179661
0.000179637
0.000179659
0.000179636
0.00016444
0.000164495
0.00017967
0.000179646
0.000179668
0.000179646
0.000179653
0.000179671
0.000179653
0.000164413
0.00016452
0.000179667
0.000179683
0.000179666
0.000164538
0.000164466
0.000165324
0.000179642
0.000179618
0.000181696
0.000181675
0.000164411
0.000165303
0.000179652
0.000179628
0.000181707
0.000181686
0.000179636
0.000181705
0.00018169
0.000164426
0.000165323
0.000179649
0.000181717
0.000181703
0.000165324
0.000166523
0.000179821
0.000179802
0.000166496
0.000179832
0.000179812
0.000182573
0.000182584
0.000182581
0.000179815
0.000166511
0.000179828
4.35565e-05
4.75374e-06
2.81712e-05
2.81932e-05
6.86433e-07
1.78066e-06
1.54629e-06
1.57199e-05
7.11533e-07
2.49965e-06
1.58076e-05
1.87977e-06
2.34242e-06
1.87637e-06
2.5076e-06
1.1301e-06
1.35024e-05
1.00268e-06
1.52744e-05
1.09235e-05
1.32077e-05
1.15045e-06
1.3476e-05
9.65198e-07
1.52599e-05
1.46978e-05
1.48432e-05
1.48728e-05
1.47559e-05
1.45327e-05
1.46679e-05
1.47206e-05
6.3656e-07
3.84139e-07
6.39121e-06
1.9343e-06
6.41577e-07
4.95797e-07
6.3169e-06
1.09431e-05
1.32156e-05
6.49294e-07
6.52529e-06
5.4952e-07
2.48522e-06
6.58301e-07
6.46213e-06
6.75069e-07
1.52199e-06
1.52938e-06
2.31864e-06
1.73269e-06
1.73863e-06
1.30618e-06
1.84879e-05
1.26264e-06
2.10141e-05
1.72251e-05
1.93811e-05
1.31733e-06
1.85228e-05
1.229e-06
2.0956e-05
1.46204e-05
1.47508e-05
1.48009e-05
1.51182e-05
1.49063e-05
1.5025e-05