/*--------------------------------*- C++ -*----------------------------------*\
| =========                 |                                                 |
| \\      /  F ield         | OpenFOAM: The Open Source CFD Toolbox           |
|  \\    /   O peration     | Version:  v2012                                 |
|   \\  /    A nd           | Website:  www.openfoam.com                      |
|    \\/     M anipulation  |                                                 |
\*---------------------------------------------------------------------------*/
FoamFile
{
    version     2.0;
    format      ascii;
    class       volScalarField;
    location    "212.5";
    object      p;
}
// * * * * * * * * * * * * * * * * * * * * * * * * * * * * * * * * * * * * * //

dimensions      [0 2 -2 0 0 0 0];


internalField   nonuniform List<scalar> 
171728
(
0.00353257
0.00353161
0.00353162
0.00353254
0.00349681
0.00349537
0.00349537
0.00349833
0.00345918
0.0034572
0.00345724
0.00345958
0.00341484
0.00341322
0.00341324
0.00341556
0.00336644
0.00336496
0.00336492
0.0033674
0.00331799
0.00331653
0.00331657
0.00331901
0.00327005
0.00326878
0.00326877
0.00327122
0.00322272
0.00322151
0.00322155
0.00322401
0.00317647
0.00317541
0.00317538
0.00317787
0.0031312
0.00313022
0.00313022
0.00313272
0.00308682
0.00308593
0.00308595
0.00308844
0.00304319
0.00304236
0.00304245
0.00304489
0.00300007
0.00299936
0.0029994
0.00300191
0.00295741
0.00295675
0.00295692
0.00295928
0.00291506
0.0029148
0.0029146
0.00291699
0.0028729
0.00287229
0.00287251
0.00287494
0.00283124
0.00283068
0.00283083
0.00283318
0.00278984
0.00278959
0.00278942
0.00279187
0.0027488
0.00274841
0.00274834
0.00275069
0.00270815
0.00270787
0.00270794
0.00271012
0.00266777
0.00266748
0.0026677
0.00266972
0.00262778
0.00262755
0.00262745
0.00262944
0.00258795
0.00258777
0.00258764
0.0025898
0.00254854
0.00254827
0.00254844
0.00255025
0.00250921
0.0025091
0.00250902
0.00251122
0.00247027
0.00247012
0.00247012
0.00247204
0.00243156
0.00243146
0.00243148
0.00243385
0.00239305
0.00239297
0.00239297
0.00239519
0.00235478
0.00235473
0.00235474
0.00235704
0.00231667
0.00231665
0.00231665
0.00231896
0.00227876
0.0022788
0.00227879
0.00228104
0.00224103
0.0022411
0.00224111
0.0022433
0.0022035
0.00220368
0.00220363
0.00220578
0.00216612
0.0021662
0.00216628
0.00216834
0.00212893
0.00212915
0.0021291
0.00213116
0.00209196
0.00209214
0.00209218
0.00209414
0.00205513
0.00205528
0.00205526
0.00205728
0.0020185
0.00201864
0.00201857
0.00202065
0.00198213
0.00198225
0.00198225
0.00198423
0.00194612
0.00194614
0.00194617
0.00194815
0.0019104
0.00191044
0.00191046
0.00191241
0.00187523
0.00187516
0.00187516
0.00187709
0.00184042
0.00184034
0.00184034
0.00184228
0.00180638
0.00180632
0.00180629
0.00180819
0.00177246
0.00177215
0.00177214
0.00177402
0.00173711
0.00173682
0.00173683
0.00173885
0.00170031
0.00170029
0.00170029
0.00170248
0.00166309
0.0016634
0.0016634
0.00166568
0.00162741
0.00162763
0.00162763
0.00162981
0.00159365
0.00159333
0.00159333
0.00159528
0.00156126
0.00156065
0.00156064
0.00156241
0.00152966
0.00152873
0.00152873
0.00153035
0.00149742
0.00149654
0.00149654
0.00149816
0.0014641
0.00146354
0.00146354
0.00146528
0.00142981
0.00142952
0.00142952
0.00143141
0.00139479
0.00139466
0.00139466
0.00139664
0.00135931
0.00135925
0.00135925
0.00136128
0.00132359
0.00132356
0.00132356
0.00132562
0.00128778
0.00128775
0.00128775
0.00128981
0.00125196
0.00125193
0.00125193
0.00125399
0.00121611
0.00121608
0.00121608
0.00121815
0.00118027
0.00118024
0.00118024
0.0011823
0.00114443
0.0011444
0.0011444
0.00114646
0.00110858
0.00110855
0.00110855
0.00111062
0.00107274
0.00107271
0.00107271
0.00107478
0.00103689
0.00103686
0.00103686
0.00103893
0.00100105
0.00100102
0.00100102
0.00100309
0.000965205
0.000965177
0.000965177
0.000967243
0.000929362
0.000929333
0.000929333
0.000931397
0.000893517
0.000893488
0.000893488
0.000895554
0.00085767
0.000857643
0.000857643
0.00085971
0.000821824
0.000821794
0.000821795
0.00082386
0.000785976
0.000785946
0.000785945
0.000788011
0.000750128
0.000750101
0.0007501
0.000752167
0.000714281
0.000714254
0.000714255
0.00071632
0.000678436
0.000678406
0.000678407
0.000680471
0.000642591
0.000642564
0.000642562
0.000644627
0.000606748
0.00060672
0.000606719
0.000608786
0.000570904
0.000570874
0.000570874
0.00057294
0.00053506
0.000535032
0.000535033
0.000537095
0.000499214
0.000499187
0.000499186
0.000501252
0.000463367
0.000463336
0.000463339
0.000465405
0.000427519
0.000427491
0.00042749
0.000429554
0.000391669
0.00039164
0.000391639
0.000393703
0.000355817
0.000355788
0.000355788
0.000357854
0.000319967
0.00031994
0.000319939
0.000322004
0.000284117
0.000284087
0.000284089
0.00028615
0.000248267
0.00024824
0.000248241
0.000250299
0.000212419
0.000212392
0.000212391
0.00021445
0.000176571
0.000176543
0.000176541
0.000178597
0.000140721
0.000140694
0.000140695
0.00014274
0.000104861
0.000104842
0.000104843
0.00010687
6.90078e-05
6.89848e-05
6.89819e-05
7.09764e-05
3.39511e-05
3.3394e-05
3.33896e-05
3.52175e-05
5.80505e-06
6.40887e-06
6.40577e-06
4.95357e-06
0.00353735
0.0035351
0.00353511
0.00353735
0.00353511
0.00353512
0.0035411
0.00354111
0.00354111
0.00354112
0.00353508
0.00353511
0.00353736
0.00353514
0.00353509
0.00353734
0.00353254
0.0035031
0.0035316
0.00353162
0.00350494
0.0035049
0.00353254
0.00350311
0.0035316
0.00353162
0.00350492
0.00350489
0.00353162
0.00350494
0.00350494
0.00353255
0.0035031
0.0035316
0.00350493
0.00350494
0.00350308
0.00349834
0.00346505
0.00349534
0.00349541
0.00346729
0.00346726
0.00349837
0.00346505
0.00349536
0.00349539
0.00346728
0.00346722
0.00349532
0.00346728
0.0034673
0.00349835
0.00346506
0.00349534
0.00346724
0.00346724
0.00346507
0.00345957
0.00342177
0.00345719
0.00345727
0.00342486
0.00342487
0.00345959
0.00342177
0.0034572
0.00345726
0.00342486
0.00342486
0.00345719
0.00342487
0.00342486
0.00345959
0.00342179
0.00345722
0.00342486
0.00342485
0.00342178
0.00341555
0.00337388
0.00341323
0.00341325
0.0033771
0.00337709
0.00341554
0.0033739
0.00341322
0.00341322
0.0033771
0.00337711
0.00341322
0.00337707
0.00337711
0.00341555
0.00337389
0.00341324
0.00337714
0.0033771
0.00337388
0.00336741
0.00332541
0.00336494
0.00336496
0.00332857
0.0033286
0.00336742
0.00332541
0.00336494
0.00336495
0.00332855
0.00332857
0.00336493
0.00332859
0.00332859
0.00336741
0.0033254
0.00336493
0.00332859
0.00332858
0.00332541
0.00331902
0.00327753
0.00331655
0.00331654
0.00328068
0.00328065
0.00331902
0.00327752
0.00331656
0.00331656
0.00328069
0.0032807
0.00331656
0.00328066
0.0032807
0.00331902
0.00327752
0.00331655
0.00328069
0.00328068
0.00327753
0.00327121
0.0032302
0.00326876
0.00326878
0.00323325
0.00323325
0.00327121
0.0032302
0.00326876
0.00326876
0.00323324
0.00323325
0.00326877
0.00323326
0.00323326
0.00327121
0.00323022
0.00326877
0.00323328
0.00323326
0.00323021
0.00322401
0.00318391
0.00322153
0.00322157
0.00318682
0.00318681
0.00322401
0.00318389
0.00322152
0.00322154
0.00318678
0.00318682
0.00322153
0.00318678
0.00318682
0.00322403
0.00318391
0.00322153
0.00318684
0.00318681
0.00318391
0.00317788
0.00313861
0.0031754
0.00317547
0.00314145
0.00314141
0.00317788
0.00313859
0.00317541
0.0031754
0.00314142
0.00314148
0.00317539
0.0031414
0.00314144
0.00317787
0.00313863
0.00317539
0.00314146
0.00314144
0.00313864
0.00313269
0.00309422
0.00313022
0.00313026
0.00309696
0.00309689
0.00313271
0.00309414
0.00313022
0.00313022
0.00309695
0.00309698
0.00313025
0.00309693
0.00309692
0.00313269
0.00309426
0.00313024
0.00309695
0.00309691
0.00309421
0.00308843
0.00305055
0.00308595
0.00308592
0.00305323
0.00305322
0.00308838
0.00305047
0.00308595
0.00308595
0.00305325
0.00305323
0.00308597
0.00305326
0.00305325
0.00308845
0.00305063
0.00308596
0.00305324
0.00305325
0.00305059
0.00304485
0.00300745
0.00304236
0.00304234
0.00301012
0.00301016
0.00304479
0.00300749
0.00304234
0.00304246
0.00301009
0.00301004
0.00304239
0.00301019
0.00301012
0.00304499
0.00300748
0.00304241
0.00301007
0.00301007
0.0030075
0.00300181
0.00296495
0.00299935
0.00299927
0.00296748
0.00296764
0.00300185
0.00296467
0.00299936
0.00299939
0.00296748
0.00296749
0.00299944
0.00296762
0.00296746
0.00300185
0.0029648
0.00299946
0.0029675
0.00296749
0.00296484
0.00295938
0.00292251
0.00295698
0.00295677
0.00292498
0.00292544
0.0029591
0.00292285
0.00295692
0.00295688
0.00292494
0.00292525
0.00295688
0.00292544
0.00292517
0.00295925
0.00292252
0.00295689
0.00292523
0.0029251
0.0029225
0.00291708
0.00288034
0.0029147
0.00291479
0.00288283
0.00288262
0.00291728
0.00288012
0.0029147
0.00291456
0.00288288
0.00288313
0.00291455
0.00288268
0.00288292
0.00291705
0.00288047
0.0029146
0.0028831
0.00288293
0.00288036
0.00287496
0.00283867
0.00287261
0.00287229
0.00284097
0.00284121
0.00287472
0.0028385
0.00287261
0.00287252
0.00284093
0.00284132
0.0028725
0.00284123
0.0028412
0.00287498
0.00283865
0.00287252
0.0028413
0.0028412
0.00283858
0.00283338
0.00279702
0.00283097
0.00283068
0.00279966
0.00279994
0.00283311
0.00279726
0.00283095
0.00283084
0.00279963
0.00279986
0.00283083
0.00279996
0.00279982
0.00283322
0.00279714
0.00283075
0.00279983
0.00279976
0.00279719
0.00279168
0.00275593
0.00278919
0.00278953
0.00275883
0.00275857
0.00279191
0.002756
0.00278922
0.0027894
0.00275884
0.00275873
0.00278957
0.00275849
0.00275868
0.00279179
0.00275594
0.0027895
0.00275871
0.00275868
0.00275594
0.00275067
0.0027152
0.00274838
0.00274845
0.0027181
0.00271802
0.00275074
0.00271521
0.00274844
0.00274836
0.00271811
0.00271817
0.00274846
0.00271798
0.00271804
0.00275068
0.00271513
0.00274847
0.00271812
0.00271805
0.00271531
0.00271002
0.00267474
0.00270789
0.00270784
0.00267756
0.00267744
0.00271001
0.00267479
0.00270791
0.00270789
0.00267758
0.00267754
0.00270791
0.00267742
0.00267745
0.00271
0.00267468
0.00270797
0.00267752
0.00267745
0.00267485
0.00266962
0.00263467
0.00266752
0.00266743
0.0026375
0.00263767
0.0026696
0.00263452
0.00266751
0.00266764
0.00263751
0.00263733
0.00266752
0.00263766
0.00263741
0.0026697
0.00263469
0.00266757
0.0026373
0.00263741
0.00263465
0.00262964
0.00259471
0.00262761
0.00262756
0.00259757
0.0025975
0.00262949
0.00259472
0.0026276
0.00262739
0.00259758
0.00259772
0.00262736
0.00259752
0.00259776
0.00262942
0.0025948
0.00262742
0.00259768
0.00259777
0.00259481
0.00258955
0.00255554
0.00258757
0.00258779
0.00255835
0.00255828
0.00258961
0.00255545
0.00258756
0.00258762
0.00255834
0.00255837
0.00258779
0.00255825
0.00255806
0.00258963
0.0025556
0.00258782
0.00255832
0.00255806
0.00255516
0.00255065
0.00251591
0.00254849
0.00254831
0.00251879
0.00251885
0.0025503
0.00251604
0.00254849
0.00254847
0.0025188
0.0025188
0.00254837
0.00251885
0.00251895
0.00255063
0.00251588
0.00254839
0.00251881
0.00251894
0.00251633
0.00251085
0.00247724
0.002509
0.00250911
0.00247985
0.0024798
0.00251113
0.00247714
0.002509
0.00250901
0.00247985
0.00247984
0.00250907
0.00247979
0.00247977
0.00251092
0.00247721
0.00250906
0.00247982
0.00247978
0.00247693
0.00247232
0.00243863
0.00247015
0.00247013
0.00244111
0.00244115
0.00247219
0.00243877
0.00247015
0.00247013
0.00244112
0.00244116
0.00247011
0.00244116
0.00244115
0.00247225
0.00243877
0.00247012
0.00244116
0.00244115
0.00243879
0.0024337
0.00240018
0.00243146
0.00243146
0.00240255
0.00240253
0.00243382
0.00240002
0.00243147
0.00243148
0.00240255
0.00240251
0.00243148
0.00240253
0.00240255
0.00243383
0.0024
0.00243148
0.00240251
0.00240255
0.00240011
0.00239523
0.00236195
0.00239295
0.00239297
0.00236428
0.00236429
0.0023951
0.00236209
0.00239295
0.00239297
0.00236428
0.0023643
0.00239298
0.0023643
0.00236427
0.00239509
0.0023621
0.00239298
0.0023643
0.00236426
0.00236197
0.00235704
0.00232385
0.00235473
0.00235473
0.00232614
0.00232614
0.00235718
0.00232378
0.00235473
0.00235473
0.00232614
0.00232614
0.00235471
0.00232612
0.00232616
0.0023572
0.0023238
0.0023547
0.00232613
0.00232618
0.00232387
0.00231892
0.00228598
0.00231665
0.00231666
0.00228825
0.00228825
0.00231887
0.00228598
0.00231665
0.00231666
0.00228825
0.00228825
0.00231667
0.00228828
0.00228824
0.00231888
0.00228595
0.00231668
0.00228824
0.00228822
0.00228595
0.00228108
0.00224821
0.00227879
0.00227879
0.00225052
0.0022505
0.00228107
0.00224819
0.00227881
0.0022788
0.00225052
0.0022505
0.0022788
0.00225046
0.00225049
0.00228106
0.00224821
0.00227876
0.00225052
0.00225053
0.0022482
0.00224331
0.00221065
0.00224113
0.00224111
0.00221299
0.00221299
0.0022433
0.00221067
0.00224111
0.0022411
0.00221298
0.002213
0.00224109
0.00221306
0.002213
0.0022433
0.00221064
0.00224114
0.00221299
0.00221301
0.00221067
0.00220576
0.00217325
0.00220363
0.00220364
0.00217562
0.0021756
0.00220578
0.00217322
0.00220362
0.00220363
0.00217561
0.00217563
0.00220365
0.00217554
0.00217558
0.00220576
0.00217326
0.00220363
0.00217561
0.00217558
0.00217322
0.00216837
0.00213601
0.00216629
0.00216626
0.00213838
0.00213837
0.00216833
0.00213603
0.00216629
0.0021663
0.00213838
0.00213835
0.00216625
0.00213839
0.00213838
0.00216836
0.002136
0.00216626
0.00213837
0.00213839
0.00213602
0.00213115
0.002099
0.00212911
0.00212913
0.00210137
0.0021014
0.00213118
0.00209902
0.00212911
0.00212907
0.00210137
0.00210137
0.00212913
0.0021014
0.00210138
0.00213113
0.002099
0.00212912
0.00210139
0.00210136
0.00209899
0.00209415
0.00206213
0.00209214
0.00209215
0.00206448
0.00206448
0.00209416
0.00206213
0.00209213
0.00209215
0.00206449
0.00206449
0.00209213
0.00206446
0.00206446
0.00209415
0.00206213
0.00209213
0.0020645
0.00206447
0.00206212
0.00205729
0.00202545
0.00205529
0.00205529
0.00202778
0.00202778
0.00205729
0.00202545
0.0020553
0.00205529
0.00202778
0.00202773
0.00205527
0.00202779
0.00202779
0.00205728
0.00202542
0.00205527
0.00202769
0.00202778
0.00202547
0.00202062
0.00198902
0.00201863
0.00201863
0.00199131
0.00199131
0.00202063
0.00198904
0.00201863
0.00201859
0.0019913
0.00199131
0.00201866
0.00199132
0.00199132
0.00202061
0.00198904
0.00201865
0.00199132
0.00199132
0.00198902
0.00198423
0.00195291
0.00198224
0.00198224
0.00195517
0.00195512
0.00198424
0.00195287
0.00198224
0.00198225
0.00195517
0.00195517
0.00198224
0.00195513
0.00195515
0.00198424
0.00195291
0.00198224
0.00195515
0.00195514
0.0019529
0.00194815
0.0019171
0.00194618
0.00194613
0.00191931
0.00191932
0.00194811
0.00191713
0.00194618
0.00194618
0.00191931
0.00191934
0.00194617
0.00191933
0.00191934
0.00194815
0.00191714
0.00194616
0.00191935
0.00191934
0.00191712
0.00191238
0.00188176
0.00191041
0.00191044
0.00188395
0.00188394
0.00191241
0.00188177
0.00191041
0.00191045
0.00188393
0.00188394
0.00191044
0.00188394
0.00188394
0.00191242
0.00188177
0.00191044
0.00188394
0.00188393
0.00188176
0.00187709
0.00184686
0.00187517
0.00187516
0.00184896
0.00184898
0.0018771
0.00184689
0.00187515
0.00187515
0.00184896
0.00184897
0.00187516
0.00184898
0.00184896
0.0018771
0.00184688
0.00187515
0.00184899
0.00184897
0.00184687
0.00184226
0.00181269
0.0018403
0.00184034
0.00181472
0.00181477
0.00184229
0.00181271
0.00184031
0.00184032
0.00181473
0.00181475
0.0018403
0.00181477
0.00181473
0.00184228
0.00181269
0.00184033
0.00181474
0.00181476
0.0018127
0.00180818
0.00177863
0.00180629
0.00180632
0.0017808
0.00178078
0.00180819
0.00177861
0.00180629
0.00180631
0.0017808
0.00178078
0.00180629
0.00178079
0.0017808
0.00180818
0.00177861
0.00180632
0.00178078
0.0017808
0.00177863
0.00177402
0.00174362
0.00177216
0.00177214
0.00174579
0.00174577
0.001774
0.00174361
0.00177217
0.00177214
0.00174579
0.00174577
0.00177216
0.00174577
0.00174578
0.001774
0.00174361
0.00177216
0.00174577
0.00174578
0.00174361
0.00173886
0.00170742
0.00173684
0.00173682
0.00170954
0.00170952
0.00173885
0.00170742
0.00173684
0.00173683
0.00170954
0.00170953
0.00173683
0.00170952
0.00170953
0.00173885
0.00170742
0.00173683
0.00170953
0.00170952
0.00170742
0.00170249
0.00167058
0.0017003
0.00170029
0.00167255
0.00167255
0.00170248
0.00167058
0.0017003
0.0017003
0.00167255
0.00167255
0.00170029
0.00167255
0.00167255
0.00170249
0.00167058
0.00170029
0.00167255
0.00167255
0.00167058
0.00166568
0.00163451
0.0016634
0.0016634
0.00163641
0.00163643
0.00166568
0.00163451
0.0016634
0.0016634
0.00163643
0.00163642
0.0016634
0.00163643
0.00163643
0.00166569
0.00163451
0.0016634
0.00163643
0.00163643
0.00163451
0.00162981
0.00159981
0.00162763
0.00162763
0.00160179
0.00160178
0.00162981
0.0015998
0.00162763
0.00162763
0.00160179
0.00160178
0.00162763
0.00160178
0.00160178
0.00162981
0.0015998
0.00162763
0.00160178
0.00160178
0.0015998
0.00159528
0.00156673
0.00159333
0.00159333
0.00156869
0.00156869
0.00159528
0.00156673
0.00159333
0.00159333
0.00156869
0.00156869
0.00159333
0.00156869
0.00156869
0.00159528
0.00156673
0.00159333
0.00156869
0.00156869
0.00156673
0.00156241
0.00153463
0.00156065
0.00156065
0.00153671
0.00153671
0.00156241
0.00153463
0.00156065
0.00156065
0.00153671
0.00153671
0.00156064
0.00153671
0.00153671
0.00156241
0.00153463
0.00156064
0.00153671
0.00153671
0.00153463
0.00153035
0.00150252
0.00152873
0.00152873
0.00150466
0.00150466
0.00153034
0.00150252
0.00152873
0.00152873
0.00150466
0.00150466
0.00152873
0.00150466
0.00150466
0.00153034
0.00150252
0.00152873
0.00150466
0.00150466
0.00150252
0.00149815
0.00146977
0.00149654
0.00149654
0.00147188
0.00147188
0.00149815
0.00146977
0.00149654
0.00149654
0.00147188
0.00147188
0.00149654
0.00147188
0.00147188
0.00149815
0.00146977
0.00149655
0.00147188
0.00147188
0.00146977
0.00146528
0.00143604
0.00146354
0.00146354
0.00143812
0.00143812
0.00146528
0.00143604
0.00146354
0.00146354
0.00143812
0.00143812
0.00146354
0.00143812
0.00143812
0.00146528
0.00143604
0.00146354
0.00143812
0.00143812
0.00143604
0.00143141
0.00140138
0.00142952
0.00142952
0.00140343
0.00140343
0.00143141
0.00140138
0.00142952
0.00142952
0.00140343
0.00140343
0.00142952
0.00140344
0.00140344
0.00143141
0.00140138
0.00142952
0.00140344
0.00140343
0.00140138
0.00139664
0.00136608
0.00139466
0.00139466
0.00136813
0.00136813
0.00139664
0.00136608
0.00139466
0.00139466
0.00136813
0.00136813
0.00139466
0.00136813
0.00136813
0.00139664
0.00136608
0.00139466
0.00136813
0.00136813
0.00136608
0.00136128
0.00133044
0.00135925
0.00135925
0.0013325
0.0013325
0.00136128
0.00133044
0.00135925
0.00135925
0.0013325
0.0013325
0.00135925
0.0013325
0.0013325
0.00136128
0.00133044
0.00135925
0.0013325
0.0013325
0.00133044
0.00132561
0.00129465
0.00132356
0.00132356
0.00129671
0.00129671
0.00132561
0.00129465
0.00132356
0.00132356
0.00129671
0.00129671
0.00132356
0.00129671
0.00129671
0.00132562
0.00129465
0.00132356
0.00129671
0.00129671
0.00129465
0.00128981
0.00125883
0.00128775
0.00128775
0.00126088
0.00126088
0.00128981
0.00125883
0.00128775
0.00128775
0.00126088
0.00126088
0.00128775
0.00126088
0.00126088
0.00128981
0.00125883
0.00128775
0.00126088
0.00126088
0.00125883
0.00125399
0.00122299
0.00125193
0.00125193
0.00122505
0.00122504
0.00125399
0.00122299
0.00125193
0.00125193
0.00122504
0.00122504
0.00125193
0.00122504
0.00122505
0.00125399
0.00122299
0.00125193
0.00122505
0.00122504
0.00122299
0.00121815
0.00118714
0.00121608
0.00121608
0.0011892
0.0011892
0.00121815
0.00118714
0.00121608
0.00121608
0.0011892
0.0011892
0.00121608
0.0011892
0.0011892
0.00121815
0.00118714
0.00121608
0.0011892
0.0011892
0.00118714
0.0011823
0.0011513
0.00118024
0.00118024
0.00115336
0.00115336
0.0011823
0.0011513
0.00118024
0.00118024
0.00115336
0.00115336
0.00118024
0.00115336
0.00115336
0.0011823
0.0011513
0.00118024
0.00115336
0.00115336
0.0011513
0.00114646
0.00111546
0.0011444
0.0011444
0.00111751
0.00111751
0.00114646
0.00111546
0.0011444
0.0011444
0.00111751
0.00111751
0.0011444
0.00111751
0.00111751
0.00114646
0.00111546
0.0011444
0.00111751
0.00111751
0.00111546
0.00111061
0.00107962
0.00110855
0.00110855
0.00108167
0.00108167
0.00111061
0.00107962
0.00110855
0.00110855
0.00108167
0.00108167
0.00110855
0.00108167
0.00108167
0.00111061
0.00107962
0.00110855
0.00108167
0.00108167
0.00107962
0.00107478
0.00104377
0.00107271
0.00107271
0.00104582
0.00104582
0.00107478
0.00104377
0.00107271
0.00107271
0.00104582
0.00104582
0.00107271
0.00104582
0.00104582
0.00107478
0.00104377
0.00107271
0.00104582
0.00104582
0.00104377
0.00103893
0.00100793
0.00103686
0.00103686
0.00100998
0.00100998
0.00103893
0.00100793
0.00103686
0.00103686
0.00100998
0.00100998
0.00103686
0.00100998
0.00100998
0.00103893
0.00100793
0.00103686
0.00100998
0.00100998
0.00100793
0.00100309
0.000972083
0.00100102
0.00100102
0.000974138
0.000974138
0.00100309
0.000972083
0.00100102
0.00100102
0.000974138
0.000974138
0.00100102
0.000974138
0.000974138
0.00100309
0.000972082
0.00100102
0.000974138
0.000974138
0.000972082
0.000967242
0.000936238
0.000965178
0.000965177
0.000938293
0.000938293
0.000967242
0.000936238
0.000965178
0.000965178
0.000938293
0.000938293
0.000965178
0.000938293
0.000938293
0.000967242
0.000936238
0.000965178
0.000938293
0.000938293
0.000936237
0.000931396
0.000900396
0.000929332
0.000929332
0.000902451
0.00090245
0.000931396
0.000900396
0.000929332
0.000929332
0.00090245
0.00090245
0.000929332
0.00090245
0.00090245
0.000931397
0.000900396
0.000929332
0.00090245
0.00090245
0.000900395
0.000895554
0.000864549
0.000893488
0.000893488
0.000866604
0.000866603
0.000895554
0.000864549
0.000893488
0.000893488
0.000866604
0.000866604
0.000893487
0.000866604
0.000866605
0.000895554
0.000864549
0.000893487
0.000866604
0.000866605
0.000864549
0.000859709
0.0008287
0.000857644
0.000857643
0.000830754
0.000830755
0.000859708
0.0008287
0.000857644
0.000857643
0.000830755
0.000830755
0.000857644
0.000830755
0.000830755
0.000859709
0.0008287
0.000857644
0.000830755
0.000830755
0.000828699
0.000823859
0.000792854
0.000821794
0.000821793
0.00079491
0.000794911
0.000823858
0.000792855
0.000821794
0.000821794
0.000794909
0.000794909
0.000821794
0.000794909
0.00079491
0.000823859
0.000792853
0.000821795
0.000794909
0.000794909
0.000792853
0.00078801
0.000757008
0.000785946
0.000785946
0.000759063
0.000759062
0.000788011
0.000757008
0.000785945
0.000785945
0.000759063
0.000759063
0.000785945
0.000759063
0.000759064
0.00078801
0.000757008
0.000785945
0.000759063
0.000759063
0.000757008
0.000752166
0.00072116
0.000750101
0.000750102
0.000723213
0.000723212
0.000752166
0.000721159
0.0007501
0.0007501
0.000723214
0.000723215
0.000750101
0.000723213
0.000723213
0.000752165
0.000721161
0.000750101
0.000723215
0.000723213
0.000721158
0.000716319
0.000685312
0.000714253
0.000714252
0.000687367
0.000687368
0.000716319
0.000685312
0.000714254
0.000714254
0.000687368
0.000687368
0.000714254
0.000687367
0.000687367
0.00071632
0.000685313
0.000714254
0.000687366
0.000687366
0.000685311
0.000680471
0.000649468
0.000678407
0.000678406
0.000651524
0.000651524
0.00068047
0.00064947
0.000678408
0.000678408
0.000651523
0.000651523
0.000678406
0.000651524
0.000651524
0.000680472
0.000649468
0.000678405
0.000651524
0.000651525
0.000649469
0.000644627
0.000613626
0.000642563
0.000642564
0.000615679
0.000615679
0.000644628
0.000613626
0.000642563
0.000642563
0.000615679
0.000615678
0.000642563
0.000615679
0.00061568
0.000644627
0.000613624
0.000642562
0.000615679
0.00061568
0.000613626
0.000608784
0.000577781
0.000606719
0.000606719
0.000579837
0.000579835
0.000608786
0.00057778
0.000606719
0.000606718
0.000579837
0.000579837
0.00060672
0.000579835
0.000579835
0.000608783
0.000577781
0.00060672
0.000579836
0.000579835
0.00057778
0.000572938
0.00054194
0.000570874
0.000570874
0.000543994
0.000543994
0.000572939
0.000541939
0.000570874
0.000570874
0.000543994
0.000543994
0.000570874
0.000543994
0.000543994
0.000572939
0.000541939
0.000570874
0.000543994
0.000543993
0.000541937
0.000537098
0.000506091
0.000535033
0.000535032
0.000508146
0.000508146
0.000537096
0.000506092
0.000535033
0.000535033
0.000508146
0.000508146
0.000535032
0.000508146
0.000508147
0.000537098
0.000506091
0.000535031
0.000508146
0.000508148
0.000506093
0.000501251
0.000470244
0.000499187
0.000499187
0.000472299
0.000472299
0.000501252
0.000470244
0.000499187
0.000499186
0.000472299
0.0004723
0.000499187
0.000472299
0.0004723
0.00050125
0.000470245
0.000499187
0.0004723
0.000472299
0.000470245
0.000465401
0.000434398
0.000463338
0.000463338
0.000436452
0.000436452
0.000465401
0.000434399
0.000463338
0.000463339
0.000436452
0.000436451
0.000463338
0.000436454
0.000436452
0.000465402
0.000434398
0.00046334
0.000436451
0.000436449
0.000434395
0.000429554
0.000398549
0.00042749
0.00042749
0.000400601
0.0004006
0.000429556
0.000398546
0.000427489
0.00042749
0.000400602
0.000400601
0.00042749
0.000400601
0.000400601
0.000429555
0.000398547
0.000427489
0.000400601
0.000400602
0.000398546
0.000393705
0.000362696
0.00039164
0.000391639
0.000364751
0.000364751
0.000393704
0.000362696
0.00039164
0.00039164
0.000364751
0.00036475
0.000391639
0.000364751
0.000364752
0.000393705
0.000362695
0.000391638
0.000364751
0.000364753
0.000362697
0.000357853
0.000326845
0.000355789
0.000355788
0.000328899
0.000328901
0.000357851
0.000326846
0.000355789
0.000355788
0.0003289
0.000328901
0.000355789
0.0003289
0.0003289
0.000357852
0.000326845
0.00035579
0.000328901
0.0003289
0.000326846
0.000322001
0.000290994
0.000319939
0.00031994
0.000293048
0.000293048
0.000322002
0.000290995
0.000319938
0.000319938
0.00029305
0.00029305
0.000319941
0.000293048
0.000293047
0.000322001
0.000290996
0.00031994
0.000293049
0.000293048
0.000290993
0.000286149
0.000255147
0.000284086
0.000284087
0.000257201
0.000257201
0.000286149
0.000255148
0.000284089
0.000284089
0.000257199
0.000257199
0.000284087
0.000257201
0.0002572
0.00028615
0.000255147
0.000284089
0.000257199
0.000257198
0.000255145
0.000250299
0.000219299
0.000248239
0.00024824
0.000221351
0.000221349
0.000250301
0.000219298
0.00024824
0.000248241
0.000221349
0.000221348
0.000248238
0.000221349
0.000221351
0.000250302
0.000219297
0.000248239
0.000221348
0.00022135
0.000219298
0.00021445
0.000183452
0.000212393
0.000212392
0.0001855
0.000185499
0.00021445
0.00018345
0.000212391
0.00021239
0.000185501
0.000185501
0.000212392
0.0001855
0.000185501
0.000214449
0.00018345
0.000212391
0.000185501
0.000185501
0.000183452
0.000178597
0.000147605
0.000176544
0.000176542
0.000149651
0.000149652
0.000178595
0.000147605
0.000176543
0.000176542
0.000149651
0.000149653
0.000176544
0.000149651
0.000149652
0.000178594
0.000147606
0.000176543
0.000149653
0.000149653
0.000147606
0.000142738
0.000111756
0.000140694
0.000140693
0.000113798
0.000113799
0.000142737
0.000111758
0.000140695
0.000140695
0.000113798
0.000113799
0.000140695
0.000113799
0.000113797
0.000142738
0.000111757
0.000140696
0.000113797
0.000113797
0.000111757
0.000106868
7.59014e-05
0.000104843
0.000104843
7.79368e-05
7.79367e-05
0.000106868
7.59031e-05
0.000104842
0.000104843
7.79365e-05
7.79343e-05
0.000104842
7.79376e-05
7.79353e-05
0.000106869
7.59007e-05
0.000104843
7.79338e-05
7.79336e-05
7.59001e-05
7.09771e-05
4.01056e-05
6.89854e-05
6.8986e-05
4.21422e-05
4.21414e-05
7.09782e-05
4.01054e-05
6.89846e-05
6.89836e-05
4.21405e-05
4.21364e-05
6.89832e-05
4.21407e-05
4.2138e-05
7.09765e-05
4.01012e-05
6.89817e-05
4.21367e-05
4.21372e-05
4.01012e-05
3.52208e-05
8.07556e-06
3.33946e-05
3.33949e-05
1.09748e-05
1.09753e-05
3.52202e-05
8.07708e-06
3.33934e-05
3.33889e-05
1.09774e-05
1.09713e-05
3.33899e-05
1.09765e-05
1.09713e-05
3.52166e-05
8.07237e-06
3.33902e-05
1.09732e-05
1.09743e-05
8.07343e-06
4.9551e-06
6.40689e-06
6.40723e-06
4.9565e-06
6.40828e-06
6.40411e-06
5.80521e-06
5.80376e-06
5.8042e-06
6.40523e-06
4.95177e-06
6.40637e-06
0.00354443
0.00354718
0.00354598
0.00354598
0.00357216
0.00354747
0.00357644
0.00354739
0.00357215
0.00354748
0.0035474
0.00357645
0.00355812
0.00357961
0.00357963
0.00351644
0.00353026
0.00353407
0.00350883
0.00350699
0.00351228
0.0035164
0.0035303
0.00353405
0.00350874
0.00353258
0.00353257
0.00353258
0.00350583
0.00350584
0.00350583
0.00350584
0.00351611
0.00352803
0.00353313
0.00352383
0.0035353
0.00351338
0.00352401
0.00350714
0.00351229
0.00351614
0.00353312
0.00352799
0.00352381
0.00353529
0.003524
0.00351335
0.00353412
0.0035341
0.00352101
0.00351326
0.00351323
0.00348923
0.00350327
0.00350289
0.00348721
0.00350035
0.00348632
0.00348925
0.00350326
0.00350287
0.00348723
0.00349682
0.0034968
0.00349683
0.00346912
0.00346913
0.00346911
0.00346913
0.00348693
0.00350174
0.00349534
0.00348622
0.00350023
0.00348752
0.00348622
0.00350032
0.0034863
0.00348691
0.00349536
0.00350175
0.00348622
0.00350021
0.0034862
0.00348745
0.00350341
0.00350341
0.00348473
0.0034879
0.00348781
0.00344693
0.00346173
0.00346248
0.00344569
0.00346054
0.0034447
0.0034469
0.00346171
0.00346247
0.00344567
0.00345918
0.00345917
0.0034592
0.00342651
0.00342652
0.00342651
0.00342652
0.00344575
0.00346121
0.00345729
0.00344693
0.00346027
0.00344623
0.00344689
0.00346052
0.00344482
0.00344572
0.00345729
0.00346125
0.00344691
0.00346027
0.00344689
0.00344617
0.00346196
0.00346198
0.00344424
0.00344603
0.00344606
0.00340047
0.00341699
0.00341842
0.00339906
0.00341634
0.00339854
0.00340042
0.003417
0.00341843
0.00339904
0.00341484
0.00341483
0.00341485
0.00337863
0.00337863
0.00337863
0.00337864
0.00339956
0.00341684
0.00341318
0.00340132
0.00341631
0.0033998
0.00340133
0.00341632
0.00339851
0.00339954
0.00341319
0.00341687
0.00340133
0.00341633
0.00340134
0.00339976
0.00341711
0.00341713
0.00339812
0.00339918
0.00339926
0.00335146
0.00336852
0.00336979
0.00335027
0.00336812
0.00334995
0.00335153
0.00336853
0.00336976
0.00335028
0.00336644
0.00336644
0.00336645
0.00333004
0.00333005
0.00333004
0.00333005
0.00335098
0.00336855
0.00336495
0.00335273
0.00336818
0.00335098
0.00335279
0.00336811
0.00334996
0.00335096
0.00336493
0.00336851
0.00335277
0.00336818
0.00335279
0.00335098
0.00336856
0.0033686
0.00334959
0.0033504
0.00335037
0.0033027
0.00331987
0.00332082
0.00330181
0.00331955
0.00330161
0.00330268
0.00331986
0.00332083
0.00330181
0.00331799
0.00331798
0.00331799
0.00328199
0.00328199
0.00328199
0.00328199
0.00330253
0.00331988
0.00331667
0.00330457
0.00331969
0.00330246
0.00330465
0.00331957