/*--------------------------------*- C++ -*----------------------------------*\
| =========                 |                                                 |
| \\      /  F ield         | OpenFOAM: The Open Source CFD Toolbox           |
|  \\    /   O peration     | Version:  v2012                                 |
|   \\  /    A nd           | Website:  www.openfoam.com                      |
|    \\/     M anipulation  |                                                 |
\*---------------------------------------------------------------------------*/
FoamFile
{
    version     2.0;
    format      ascii;
    class       volScalarField;
    location    "675";
    object      k;
}
// * * * * * * * * * * * * * * * * * * * * * * * * * * * * * * * * * * * * * //

dimensions      [0 2 -2 0 0 0 0];


internalField   nonuniform List<scalar> 
171728
(
2.01533e-07
2.94142e-07
3.40881e-07
3.48947e-07
1.99035e-07
2.68621e-07
3.30441e-07
3.32127e-07
1.95552e-07
2.44182e-07
3.1907e-07
3.16591e-07
1.92294e-07
2.23436e-07
3.10844e-07
3.02014e-07
1.89218e-07
2.10152e-07
3.04787e-07
2.88564e-07
1.8645e-07
2.00549e-07
2.98957e-07
2.76039e-07
1.83989e-07
1.91811e-07
2.95272e-07
2.65959e-07
1.81969e-07
1.84282e-07
2.96677e-07
2.5797e-07
1.79803e-07
1.78155e-07
3.02374e-07
2.52863e-07
1.77698e-07
1.73679e-07
3.08781e-07
2.53464e-07
1.75496e-07
1.70371e-07
3.11047e-07
2.63637e-07
1.73167e-07
1.68205e-07
3.02736e-07
2.83216e-07
1.70931e-07
1.66692e-07
2.77137e-07
2.91176e-07
1.68822e-07
1.6615e-07
2.40834e-07
2.64722e-07
1.67372e-07
1.67424e-07
2.03603e-07
2.39532e-07
1.66742e-07
1.71322e-07
1.78923e-07
2.38226e-07
1.66937e-07
1.79029e-07
1.7613e-07
2.47793e-07
1.66455e-07
1.94236e-07
1.92265e-07
2.70438e-07
1.63173e-07
2.224e-07
2.28902e-07
2.97587e-07
1.6208e-07
2.67626e-07
2.8235e-07
3.57081e-07
1.63125e-07
3.42309e-07
3.62388e-07
4.39453e-07
1.63465e-07
4.58505e-07
4.76263e-07
7.26397e-07
1.56686e-07
6.23445e-07
6.55528e-07
1.1218e-06
1.50707e-07
8.68477e-07
8.78171e-07
1.71837e-06
1.51246e-07
1.16326e-06
1.215e-06
2.42178e-06
1.57535e-07
1.59577e-06
1.59124e-06
4.18997e-06
1.66391e-07
2.13048e-06
2.17102e-06
5.71976e-06
1.77675e-07
2.72625e-06
2.76879e-06
7.80495e-06
1.80982e-07
3.42878e-06
3.64855e-06
9.60387e-06
2.00197e-07
4.48232e-06
4.14421e-06
1.25526e-05
2.31513e-07
5.06191e-06
5.59869e-06
1.5961e-05
2.82892e-07
6.96029e-06
6.45187e-06
1.62444e-05
3.32381e-07
7.36724e-06
7.69841e-06
1.96338e-05
4.24559e-07
9.17194e-06
9.28021e-06
2.23135e-05
5.63661e-07
1.07964e-05
1.04124e-05
2.29432e-05
7.01226e-07
1.20223e-05
1.23917e-05
2.51616e-05
8.86577e-07
1.36973e-05
1.37631e-05
2.6672e-05
1.16729e-06
1.53711e-05
1.52309e-05
2.80024e-05
1.44459e-06
1.72573e-05
1.80334e-05
2.93921e-05
1.89448e-06
1.91879e-05
1.90925e-05
3.04312e-05
2.22108e-06
2.08808e-05
2.06886e-05
3.12446e-05
2.77093e-06
2.19296e-05
2.26434e-05
3.3536e-05
3.64288e-06
2.52979e-05
2.50161e-05
3.40422e-05
4.10459e-06
2.61346e-05
2.60237e-05
3.47102e-05
4.84771e-06
2.76427e-05
2.79589e-05
3.63847e-05
6.14599e-06
2.95435e-05
2.96582e-05
3.76933e-05
6.79325e-06
3.18262e-05
3.13489e-05
3.83502e-05
8.26656e-06
3.28941e-05
3.27758e-05
3.94898e-05
9.31542e-06
3.30559e-05
3.38652e-05
4.02601e-05
1.03933e-05
3.58042e-05
3.58426e-05
4.09417e-05
1.22457e-05
3.78443e-05
3.74818e-05
4.28328e-05
1.42335e-05
3.81571e-05
3.7551e-05
4.3421e-05
1.44762e-05
3.90346e-05
3.85394e-05
4.35952e-05
1.67286e-05
4.0117e-05
4.10817e-05
4.42512e-05
1.80025e-05
4.06578e-05
4.15343e-05
4.68451e-05
1.98421e-05
4.37568e-05
4.30113e-05
4.76679e-05
2.23759e-05
4.4056e-05
4.36328e-05
4.56794e-05
2.30149e-05
4.29613e-05
4.30255e-05
4.56563e-05
2.29985e-05
4.59833e-05
4.53268e-05
5.08821e-05
2.59972e-05
4.7802e-05
4.81152e-05
5.24599e-05
2.88696e-05
4.59796e-05
4.75979e-05
4.84249e-05
2.88437e-05
4.56876e-05
4.59725e-05
4.72528e-05
2.85799e-05
5.0169e-05
4.7438e-05
5.2029e-05
3.1382e-05
5.15587e-05
5.10985e-05
5.40067e-05
3.35655e-05
4.91871e-05
5.11243e-05
5.22452e-05
3.32152e-05
4.8068e-05
4.96777e-05
5.14514e-05
3.31557e-05
5.11761e-05
5.04978e-05
5.35708e-05
3.57255e-05
5.31959e-05
5.23507e-05
5.41869e-05
3.73723e-05
5.28472e-05
5.22803e-05
5.33685e-05
3.75008e-05
5.26903e-05
5.27386e-05
5.50261e-05
3.83272e-05
5.36164e-05
5.42067e-05
5.64137e-05
3.95916e-05
5.33975e-05
5.31769e-05
5.4307e-05
3.99288e-05
5.36187e-05
5.30296e-05
5.45039e-05
4.09028e-05
5.56454e-05
5.57654e-05
5.74827e-05
4.22019e-05
5.53705e-05
5.58701e-05
5.70916e-05
4.21786e-05
5.35267e-05
5.41119e-05
5.45883e-05
4.20545e-05
5.48364e-05
5.42678e-05
5.56762e-05
4.39301e-05
5.84204e-05
5.72427e-05
5.92042e-05
4.54158e-05
5.80746e-05
5.78221e-05
5.90999e-05
4.4811e-05
5.42264e-05
5.58357e-05
5.60547e-05
4.36094e-05
5.3723e-05
5.46474e-05
5.53595e-05
4.40315e-05
5.7496e-05
5.60675e-05
5.81443e-05
4.65932e-05
5.90902e-05
5.79063e-05
5.92222e-05
4.70965e-05
5.7847e-05
5.79317e-05
5.83616e-05
4.62632e-05
5.60231e-05
5.735e-05
5.77004e-05
4.57197e-05
5.61035e-05
5.67054e-05
5.77366e-05
4.596e-05
5.73275e-05
5.63439e-05
5.78871e-05
4.67314e-05
5.72953e-05
5.69214e-05
5.81829e-05
4.6797e-05
5.65613e-05
5.72189e-05
5.78558e-05
4.66995e-05
5.68274e-05
5.71225e-05
5.7854e-05
4.69161e-05
5.75484e-05
5.70985e-05
5.83932e-05
4.69191e-05
5.70518e-05
5.67642e-05
5.80297e-05
4.65118e-05
5.61553e-05
5.64702e-05
5.74832e-05
4.64367e-05
5.62614e-05
5.6549e-05
5.76853e-05
4.63011e-05
5.55896e-05
5.53394e-05
5.74802e-05
3.63965e-07
3.31203e-07
3.06631e-07
3.54961e-07
3.31095e-07
3.3399e-07
2.00691e-07
1.77031e-07
2.15683e-07
2.1352e-07
2.85744e-07
3.19414e-07
3.58867e-07
3.43851e-07
3.26288e-07
3.50036e-07
3.62844e-07
3.44342e-07
3.24504e-07
2.5485e-07
3.13986e-07
2.4737e-07
3.54073e-07
3.34156e-07
3.45911e-07
4.83045e-07
3.21455e-07
4.73747e-07
3.3064e-07
2.75221e-07
3.18702e-07
3.56175e-07
3.41489e-07
3.27396e-07
3.33479e-07
3.15559e-07
3.33308e-07
3.42978e-07
3.25507e-07
3.09648e-07
2.44323e-07
2.96763e-07
2.3571e-07
3.3298e-07
3.12789e-07
3.15869e-07
4.68541e-07
3.02362e-07
4.49497e-07
3.14702e-07
2.50199e-07
3.03866e-07
3.38388e-07
3.2611e-07
3.11175e-07
3.21687e-07
2.96133e-07
3.17689e-07
3.24272e-07
3.08505e-07
2.92579e-07
2.33034e-07
2.8022e-07
2.25104e-07
3.11688e-07
2.94701e-07
2.98389e-07
4.44739e-07
2.869e-07
4.40317e-07
3.00095e-07
2.27924e-07
2.91014e-07
3.23437e-07
3.18249e-07
2.91151e-07
3.1268e-07
2.77099e-07
3.03055e-07
3.07366e-07
2.93232e-07
2.76275e-07
2.22452e-07
2.64946e-07
2.14479e-07
2.94382e-07
2.82117e-07
2.83298e-07
4.40434e-07
2.73085e-07
4.48558e-07
2.88716e-07
2.12831e-07
2.82203e-07
3.16917e-07
3.14562e-07
2.72856e-07
3.06125e-07
2.62961e-07
2.89885e-07
2.92214e-07
2.795e-07
2.61391e-07
2.11859e-07
2.5111e-07
2.04281e-07
2.8126e-07
2.6757e-07
2.69768e-07
4.53368e-07
2.60594e-07
4.72977e-07
2.80498e-07
2.02893e-07
2.7782e-07
3.13342e-07
3.14055e-07
2.59921e-07
3.00168e-07
2.50612e-07
2.77474e-07
2.78591e-07
2.66925e-07
2.47785e-07
2.01818e-07
2.38371e-07
1.9512e-07
2.66795e-07
2.54289e-07
2.57701e-07
4.8059e-07
2.49172e-07
5.08747e-07
2.77594e-07
1.93859e-07
2.77663e-07
3.13246e-07
3.18557e-07
2.47987e-07
2.95489e-07
2.41444e-07
2.67031e-07
2.66108e-07
2.55262e-07
2.35469e-07
1.92982e-07
2.27956e-07
1.87073e-07
2.53607e-07
2.42336e-07
2.46452e-07
5.19553e-07
2.39103e-07
5.41665e-07
2.78002e-07
1.85959e-07
2.82124e-07
3.17864e-07
3.22611e-07
2.39245e-07
2.95833e-07
2.31978e-07
2.5879e-07
2.54531e-07
2.44122e-07
2.26009e-07
1.85283e-07
2.2191e-07
1.79968e-07
2.41788e-07
2.31871e-07
2.36831e-07
5.43434e-07
2.31109e-07
5.26952e-07
2.84494e-07
1.79523e-07
2.98143e-07
3.21142e-07
3.11863e-07
2.29515e-07
3.00813e-07
2.2333e-07
2.52991e-07
2.43493e-07
2.34642e-07
2.20777e-07
1.78233e-07
2.16895e-07
1.73687e-07
2.31523e-07
2.22085e-07
2.30007e-07
4.90482e-07
2.2921e-07
3.81537e-07
3.03963e-07
1.74566e-07
3.21342e-07
3.02959e-07
2.74093e-07
2.22217e-07
3.07359e-07
2.21533e-07
2.53033e-07
2.34095e-07
2.2615e-07
2.15355e-07
1.72393e-07
2.10441e-07
1.68609e-07
2.21921e-07
2.12391e-07
2.2924e-07
3.52618e-07
2.30004e-07
2.94188e-07
3.2889e-07
1.71154e-07
3.69526e-07
2.70879e-07
2.59171e-07
2.21596e-07
3.11055e-07
2.23075e-07
2.62351e-07
2.25741e-07
2.19932e-07
2.08908e-07
1.67421e-07
2.05076e-07
1.64541e-07
2.1233e-07
2.03914e-07
2.3094e-07
2.83559e-07
2.3487e-07
2.68044e-07
3.90049e-07
1.68647e-07
4.57256e-07
2.57432e-07
2.49894e-07
2.24043e-07
3.06036e-07
2.28509e-07
2.8217e-07
2.19814e-07
2.17358e-07
2.03886e-07
1.63616e-07
2.00228e-07
1.60918e-07
2.0394e-07
1.96623e-07
2.36879e-07
2.65863e-07
2.45728e-07
2.59147e-07
4.76087e-07
1.66955e-07
5.06249e-07
2.49082e-07
2.38393e-07
2.31168e-07
2.85082e-07
2.40053e-07
2.91086e-07
2.17648e-07
2.18292e-07
1.99044e-07
1.6005e-07
1.95683e-07
1.58829e-07
1.96773e-07
1.90931e-07
2.49483e-07
2.55593e-07
2.62491e-07
2.38677e-07
5.07729e-07
1.66114e-07
4.75713e-07
2.37125e-07
2.22394e-07
2.42485e-07
2.50449e-07
2.51884e-07
2.68492e-07
2.19166e-07
2.22623e-07
1.94977e-07
1.58807e-07
1.93316e-07
1.59261e-07
1.91283e-07
1.87462e-07
2.67844e-07
2.32228e-07
2.88553e-07
2.13072e-07
4.2799e-07
1.67016e-07
3.13725e-07
2.21498e-07
2.06964e-07
2.56984e-07
2.12253e-07
2.77042e-07
2.40204e-07
2.24462e-07
2.31961e-07
1.92818e-07
1.59475e-07
1.93152e-07
1.60806e-07
1.88236e-07
1.86645e-07
2.96921e-07
2.0774e-07
3.26006e-07
1.9462e-07
2.84452e-07
1.7015e-07
2.24946e-07
2.06522e-07
1.9507e-07
2.84466e-07
1.83619e-07
3.11189e-07
2.36517e-07
2.35138e-07
2.46192e-07
1.93704e-07
1.61744e-07
1.98617e-07
1.66557e-07
1.88228e-07
1.90812e-07
3.37404e-07
1.91207e-07
3.70865e-07
1.90733e-07
2.13453e-07
1.76704e-07
1.97732e-07
1.95602e-07
1.95463e-07
3.22958e-07
1.75542e-07
3.58994e-07
2.43665e-07
2.50818e-07
2.65069e-07
2.00475e-07
1.69122e-07
2.08019e-07
1.80483e-07
1.94e-07
2.03525e-07
3.83886e-07
1.92094e-07
4.15113e-07
2.00344e-07
1.97531e-07
1.89856e-07
2.02217e-07
1.9845e-07
2.06232e-07
3.72679e-07
1.85611e-07
4.10404e-07
2.63238e-07
2.71642e-07
2.90692e-07
2.12817e-07
1.85484e-07
2.34279e-07
2.066e-07
2.09482e-07
2.31951e-07
4.21459e-07
2.05861e-07
4.46513e-07
2.2633e-07
2.05862e-07
2.14076e-07
2.25579e-07
2.12339e-07
2.36646e-07
4.19078e-07
2.19154e-07
4.38603e-07
2.90293e-07
3.00405e-07
3.50106e-07
2.41104e-07
2.1512e-07
2.78696e-07
2.48101e-07
2.44165e-07
2.88396e-07
4.5762e-07
2.34562e-07
4.83504e-07
2.68959e-07
2.33207e-07
2.53349e-07
2.62438e-07
2.48243e-07
2.93268e-07
4.4039e-07
2.67304e-07
4.36484e-07
3.36015e-07
3.70419e-07
4.39336e-07
2.95201e-07
2.63595e-07
3.41939e-07
3.18518e-07
3.09373e-07
4.0247e-07
4.99884e-07
2.83303e-07
5.51022e-07
3.36337e-07
2.80093e-07
3.22173e-07
3.2244e-07
3.1477e-07
4.05906e-07
4.38405e-07
3.38453e-07
4.58114e-07
4.15551e-07
4.70484e-07
6.92378e-07
3.67603e-07
3.38343e-07
4.6336e-07
4.26235e-07
4.38616e-07
6.1366e-07
5.76874e-07
3.59024e-07
7.0134e-07
4.40506e-07
3.41469e-07
4.26881e-07
4.43844e-07
4.43752e-07
5.98096e-07
4.68922e-07
4.41417e-07
5.89644e-07
6.5871e-07
7.49802e-07
1.01615e-06
4.91938e-07
4.58271e-07
6.24009e-07
5.7551e-07
6.76917e-07
9.41756e-07
7.37845e-07
4.75177e-07
8.74462e-07
6.03268e-07
4.65908e-07
5.75325e-07
5.82431e-07
6.52848e-07
9.74288e-07
6.22146e-07
6.04647e-07
7.98882e-07
9.88362e-07
1.14044e-06
1.62253e-06
6.84695e-07
6.24846e-07
8.74316e-07
7.95248e-07
1.03711e-06
1.51249e-06
9.0707e-07
6.59683e-07
9.59458e-07
8.28867e-07
6.42103e-07
7.91986e-07
8.42315e-07
1.07489e-06
1.54256e-06
8.64098e-07
8.17131e-07
9.32811e-07
1.64114e-06
1.7156e-06
2.24832e-06
9.31116e-07
8.73835e-07
1.16976e-06
1.08428e-06
1.66503e-06
2.40768e-06
9.75661e-07
8.98091e-07
1.15403e-06
1.13607e-06
8.85498e-07
1.08008e-06
1.0435e-06
1.66854e-06
2.39958e-06
9.38946e-07
1.10853e-06
1.11243e-06
2.15819e-06
2.4974e-06
3.82552e-06
1.27404e-06
1.16675e-06
1.66466e-06
1.49417e-06
2.57429e-06
3.61172e-06
1.24599e-06
1.25121e-06
1.61675e-06
1.59439e-06
1.19345e-06
1.47893e-06
1.54255e-06
2.61819e-06
3.70218e-06
1.29938e-06
1.50241e-06
1.63749e-06
4.00121e-06
4.10938e-06
5.01773e-06
1.77819e-06
1.61103e-06
2.06393e-06
2.02546e-06
3.95713e-06
5.29484e-06
1.72294e-06
1.69085e-06
1.96136e-06
2.22103e-06
1.58524e-06
2.00685e-06
2.06278e-06
3.97267e-06
5.20936e-06
1.68316e-06
2.04893e-06
2.18198e-06
5.10751e-06
5.33386e-06
7.71984e-06
2.24718e-06
2.15056e-06
2.95791e-06
2.55801e-06
5.62965e-06
7.13462e-06
2.12259e-06
2.38168e-06
2.72732e-06
2.73471e-06
2.27766e-06
2.52928e-06
2.60695e-06
5.63728e-06
7.22215e-06
2.40309e-06
2.53098e-06
2.75565e-06
7.67486e-06
8.25923e-06
9.16518e-06
3.11013e-06
2.76077e-06
3.39744e-06
3.2844e-06
7.48666e-06
9.48266e-06
2.84098e-06
2.99473e-06
3.18465e-06
3.93431e-06
2.75026e-06
3.25452e-06
3.23158e-06
7.55114e-06
1.02353e-05
2.9269e-06
3.5161e-06
3.50294e-06
9.02206e-06
9.43278e-06
1.19335e-05
3.54078e-06
3.45938e-06
4.22172e-06
4.2823e-06
1.00316e-05
1.20418e-05
3.38982e-06
4.09743e-06
4.15086e-06
4.24811e-06
3.3622e-06
4.24546e-06
4.13589e-06
1.08227e-05
1.14849e-05
3.59625e-06
3.89226e-06
4.36424e-06
1.18396e-05
1.25798e-05
1.44974e-05
4.48762e-06
4.51579e-06
5.23987e-06
4.85984e-06
1.25202e-05
1.42014e-05
4.38035e-06
4.32837e-06
5.07195e-06
5.29151e-06
4.5264e-06
4.82973e-06
5.43272e-06
1.17347e-05
1.45696e-05
4.92084e-06
5.34959e-06
6.06121e-06
1.56841e-05
1.49381e-05
1.69463e-05
5.48511e-06
5.0966e-06
6.35813e-06
6.64829e-06
1.46104e-05
1.73928e-05
5.33995e-06
5.66114e-06
6.28084e-06
6.59584e-06
5.5942e-06
6.5849e-06
6.06088e-06
1.52755e-05
1.70004e-05
6.13704e-06
6.16163e-06
6.11593e-06
1.60529e-05
1.74653e-05
1.90384e-05
6.65169e-06
7.03113e-06
7.39102e-06
7.39822e-06
1.81324e-05
1.89926e-05
6.59334e-06
6.85782e-06
7.37136e-06
7.48624e-06
6.21774e-06
7.32221e-06
7.18697e-06
1.73774e-05
1.89833e-05
6.12411e-06
7.32295e-06
7.25741e-06
1.88011e-05
1.94352e-05
2.09414e-05
7.6388e-06
7.43924e-06
8.63558e-06
8.34728e-06
1.90836e-05
2.04125e-05
7.63131e-06
7.75914e-06
8.66114e-06
8.91754e-06
7.78855e-06
8.35587e-06
9.38414e-06
1.94848e-05
2.1237e-05
8.2554e-06
9.00664e-06
9.94325e-06
2.20272e-05
2.14535e-05
2.31797e-05
9.05704e-06
9.17038e-06
1.03612e-05
1.06665e-05
2.12816e-05
2.36687e-05
9.06855e-06
9.25955e-06
1.03135e-05
1.00371e-05
9.61472e-06
1.05803e-05
9.89827e-06
2.16875e-05
2.29377e-05
1.01058e-05
1.00331e-05
1.02396e-05
2.26854e-05
2.3582e-05
2.46456e-05
1.07103e-05
1.08997e-05
1.17089e-05
1.1672e-05
2.39447e-05
2.46273e-05
1.06732e-05
1.04274e-05
1.17162e-05
1.19152e-05
1.01361e-05
1.16526e-05
1.17818e-05
2.33126e-05
2.4801e-05
1.03321e-05
1.1899e-05
1.18856e-05
2.46276e-05
2.49865e-05
2.61372e-05
1.20854e-05
1.20595e-05
1.32799e-05
1.33351e-05
2.49437e-05
2.61107e-05
1.20867e-05
1.2322e-05
1.32626e-05
1.32988e-05
1.22636e-05
1.32664e-05
1.34279e-05
2.52144e-05
2.61326e-05
1.23936e-05
1.34664e-05
1.33848e-05
2.63548e-05
2.65116e-05
2.76599e-05
1.36891e-05
1.37183e-05
1.50858e-05
1.49e-05
2.64898e-05
2.76048e-05
1.36769e-05
1.35764e-05
1.5046e-05
1.4819e-05
1.37724e-05
1.48745e-05
1.53612e-05
2.64193e-05
2.75028e-05
1.37583e-05
1.47528e-05
1.53059e-05
2.76775e-05
2.80052e-05
2.90071e-05
1.55945e-05
1.54308e-05
1.67841e-05
1.70904e-05
2.79472e-05
2.90588e-05
1.55287e-05
1.54204e-05
1.68316e-05
1.73245e-05
1.57928e-05
1.69429e-05
1.64781e-05
2.79218e-05
2.92381e-05
1.56205e-05
1.73586e-05
1.67746e-05
2.89973e-05
2.93188e-05
3.02955e-05
1.71836e-05
1.73983e-05
1.87639e-05
1.84541e-05
2.93681e-05
3.02789e-05
1.72699e-05
1.77574e-05
1.87312e-05
1.82582e-05
1.70203e-05
1.85044e-05
1.90444e-05
2.95232e-05
3.01646e-05
1.7486e-05
1.90143e-05
1.90708e-05
3.02834e-05
3.05753e-05
3.12745e-05
1.9245e-05
1.91078e-05
2.03045e-05
2.08162e-05
3.06174e-05
3.14579e-05
1.91577e-05
1.84511e-05
2.01794e-05
2.0592e-05
1.93842e-05
2.07111e-05
1.98015e-05
3.04014e-05
3.13231e-05
1.92258e-05
1.97382e-05
1.94627e-05
3.08093e-05
3.15281e-05
3.26073e-05
2.06156e-05
2.10455e-05
2.19925e-05
2.1458e-05
3.16346e-05
3.21908e-05
2.05523e-05
2.13027e-05
2.21556e-05
2.21975e-05
2.01905e-05
2.13602e-05
2.25063e-05
3.17015e-05
3.25644e-05
1.97737e-05
2.23499e-05
2.27851e-05
3.32694e-05
3.2972e-05
3.39519e-05
2.26906e-05
2.18992e-05
2.448e-05
2.44983e-05
3.2545e-05
3.42e-05
2.28258e-05
2.23111e-05
2.43363e-05
2.39666e-05
2.32901e-05
2.46026e-05
2.47979e-05
3.27841e-05
3.39077e-05
2.36452e-05
2.43765e-05
2.50404e-05
3.39131e-05
3.41393e-05
3.46841e-05
2.47362e-05
2.52544e-05
2.57103e-05
2.61979e-05
3.45127e-05
3.48984e-05
2.45814e-05
2.48565e-05
2.56498e-05
2.62202e-05
2.49967e-05
2.608e-05
2.52195e-05
3.42854e-05
3.49071e-05
2.51962e-05
2.57958e-05
2.53513e-05
3.45199e-05
3.49351e-05
3.59116e-05
2.61235e-05
2.62629e-05
2.7274e-05
2.70403e-05
3.50038e-05
3.56364e-05
2.61013e-05
2.63216e-05
2.73794e-05
2.72183e-05
2.53532e-05
2.6942e-05
2.73913e-05
3.50352e-05
3.57893e-05
2.54222e-05
2.75669e-05
2.72447e-05
3.6019e-05
3.6191e-05
3.71942e-05
2.78795e-05
2.76681e-05
2.9488e-05
2.91239e-05
3.59845e-05
3.70034e-05
2.79131e-05
2.77094e-05
2.94084e-05
2.914e-05
2.81087e-05
2.91439e-05
2.98611e-05
3.61201e-05
3.70373e-05
2.80008e-05
2.90581e-05
2.97905e-05
3.74294e-05
3.74041e-05
3.80272e-05
2.96923e-05
2.95173e-05
3.07398e-05
3.11847e-05
3.72855e-05
3.86283e-05
2.97155e-05
2.97299e-05
3.07688e-05
3.10539e-05
3.02644e-05
3.12134e-05
3.08488e-05
3.72888e-05
3.83085e-05
3.03227e-05
3.10819e-05
3.11816e-05
3.82244e-05
3.82879e-05
3.92981e-05
3.13045e-05
3.18189e-05
3.25858e-05
3.28482e-05
3.8919e-05
3.92059e-05
3.12452e-05
3.13105e-05
3.24725e-05
3.24576e-05
3.10077e-05
3.28248e-05
3.24481e-05
3.85121e-05
3.90818e-05
3.12753e-05
3.24041e-05
3.23118e-05
3.91606e-05
3.9484e-05
3.99931e-05
3.28705e-05
3.29169e-05
3.37657e-05
3.29856e-05
3.92242e-05
3.92357e-05
3.2803e-05
3.28755e-05
3.38423e-05
3.36743e-05
3.30694e-05
3.29572e-05
3.39834e-05
3.92848e-05
3.99425e-05
3.29271e-05
3.35831e-05
3.40422e-05
4.01794e-05
4.01915e-05
4.10012e-05
3.40714e-05
3.30895e-05
3.4872e-05
3.51699e-05
3.94816e-05
4.142e-05
3.41434e-05
3.38964e-05
3.49379e-05
3.507e-05
3.40488e-05
3.50652e-05
3.45668e-05
4.01322e-05
4.12397e-05
3.41388e-05
3.52373e-05
3.45524e-05
4.06667e-05
4.12341e-05
4.24906e-05
3.52716e-05
3.5907e-05
3.70901e-05
3.74783e-05
4.18088e-05
4.2849e-05
3.53046e-05
3.56616e-05
3.69881e-05
3.72924e-05
3.50332e-05
3.75182e-05
3.70449e-05
4.15898e-05
4.26245e-05
3.49772e-05
3.72837e-05
3.69833e-05
4.25001e-05
4.27774e-05
4.31081e-05
3.75909e-05
3.77667e-05
3.8137e-05
3.80463e-05
4.30195e-05
4.31124e-05
3.75009e-05
3.75668e-05
3.81051e-05
3.77278e-05
3.76118e-05
3.81503e-05
3.83196e-05
4.27214e-05
4.25481e-05
3.75688e-05
3.75641e-05
3.83097e-05
4.33715e-05
4.31409e-05
4.33342e-05
3.81508e-05
3.80604e-05
3.82705e-05
3.84209e-05
4.3129e-05
4.35352e-05
3.81218e-05
3.77217e-05
3.8272e-05
3.79927e-05
3.83504e-05
3.84312e-05
3.85589e-05
4.2565e-05
4.3165e-05
3.83568e-05
3.78496e-05
3.8794e-05
4.35044e-05
4.36163e-05
4.4926e-05
3.86114e-05
3.90764e-05
4.04103e-05
4.04566e-05
4.39105e-05
4.46862e-05
3.8661e-05
3.86939e-05
4.0485e-05
4.08054e-05
3.8778e-05
4.00626e-05
3.94937e-05
4.36053e-05
4.53411e-05
3.89256e-05
4.06681e-05
3.93239e-05
4.39827e-05
4.50466e-05
4.51783e-05
4.06666e-05
4.05864e-05
4.08927e-05
4.06446e-05
4.47242e-05
4.47276e-05
4.07289e-05
4.1113e-05
4.09458e-05
4.13152e-05
3.9909e-05
4.03059e-05
4.17508e-05
4.5541e-05
4.5651e-05
3.97085e-05
4.14888e-05
4.1784e-05
4.63574e-05
4.53094e-05
4.67093e-05
4.10049e-05
4.06764e-05
4.23296e-05
4.22628e-05
4.49281e-05
4.71727e-05
4.10943e-05
4.13257e-05
4.2446e-05
4.19844e-05
4.23723e-05
4.3163e-05
4.33837e-05
4.56798e-05
4.64693e-05
4.25085e-05
4.24002e-05
4.36031e-05
4.76759e-05
4.70011e-05
4.75274e-05
4.28285e-05
4.31787e-05
4.39843e-05
4.42458e-05
4.76273e-05
4.79284e-05
4.28184e-05
4.27281e-05
4.38624e-05
4.38876e-05
4.34309e-05
4.41652e-05
4.30673e-05
4.68308e-05
4.73519e-05
4.36249e-05
4.36549e-05
4.28803e-05
4.5878e-05
4.75744e-05
4.72823e-05
4.41055e-05
4.42316e-05
4.40326e-05
4.35879e-05
4.78182e-05
4.62049e-05
4.40548e-05
4.39153e-05
4.40867e-05
4.35192e-05
4.2687e-05
4.29961e-05
4.23076e-05
4.73395e-05
4.65424e-05
4.23825e-05
4.30604e-05
4.19827e-05
4.52596e-05
4.72806e-05
4.74444e-05
4.39145e-05
4.354e-05
4.39355e-05
4.43276e-05
4.62151e-05
4.88518e-05
4.39641e-05
4.34086e-05
4.38554e-05
4.36894e-05
4.23722e-05
4.44849e-05
4.53848e-05
4.65509e-05
4.801e-05
4.20998e-05
4.39052e-05
4.58184e-05
5.00528e-05
4.77859e-05
5.02298e-05
4.42213e-05
4.54587e-05
4.69608e-05
4.73882e-05
4.96473e-05
5.10121e-05
4.39916e-05
4.45408e-05
4.67073e-05
4.74741e-05
4.67934e-05
4.77954e-05
4.86232e-05
4.87415e-05
5.09629e-05
4.72733e-05
4.78991e-05
4.91392e-05
5.24958e-05
5.05032e-05
5.04377e-05
4.74614e-05
4.74658e-05
4.77493e-05
4.68367e-05
5.09524e-05
4.86119e-05
4.74092e-05
4.78779e-05
4.79561e-05
4.79878e-05
4.86268e-05
4.65457e-05
4.69576e-05
5.10714e-05
5.02547e-05
4.91515e-05
4.80256e-05
4.74706e-05
4.8924e-05
5.03832e-05
4.94098e-05
4.76774e-05
4.6333e-05
4.68305e-05
4.58527e-05
4.83731e-05
4.80392e-05
4.79261e-05
4.77689e-05
4.71171e-05
4.65448e-05
4.60881e-05
4.55609e-05
4.52165e-05
5.00795e-05
4.86662e-05
4.63346e-05
4.61187e-05
4.47124e-05
4.70436e-05
4.94093e-05
5.03674e-05
4.67422e-05
4.59089e-05
4.70839e-05
4.8462e-05
4.84477e-05
5.24498e-05
4.69643e-05
4.64236e-05
4.70828e-05
4.67619e-05
4.52658e-05
4.90186e-05
4.81614e-05
4.86686e-05
5.0156e-05
4.46882e-05
4.63474e-05
4.66322e-05
5.12121e-05
5.092e-05
5.28948e-05
4.79779e-05
4.96368e-05
5.03195e-05
5.12514e-05
5.31575e-05
5.43773e-05
4.7608e-05
4.76974e-05
5.01643e-05
5.05046e-05
4.93893e-05
5.15576e-05
5.11938e-05
5.08803e-05
5.3358e-05
4.82845e-05
5.06523e-05
5.12472e-05
5.39696e-05
5.3002e-05
5.24034e-05
5.05955e-05
5.12719e-05
5.06401e-05
5.01606e-05
5.42973e-05
5.12878e-05
5.05198e-05
5.08738e-05
5.06391e-05
5.09687e-05
5.12829e-05
5.00643e-05
5.0718e-05
5.351e-05
5.28872e-05
5.15263e-05
5.12932e-05
5.14242e-05
5.25024e-05
5.22644e-05
5.1343e-05
5.03987e-05
4.943e-05
4.94698e-05
4.85118e-05
5.08808e-05
4.98294e-05
5.0468e-05
5.07239e-05
4.95237e-05
4.94797e-05
5.0056e-05
4.80643e-05
4.91611e-05
5.27028e-05
5.13471e-05
5.09463e-05
4.98236e-05
4.98659e-05
5.13619e-05
5.13702e-05
5.29251e-05
4.94293e-05
4.85188e-05
5.01497e-05
5.0278e-05
5.00194e-05
5.30939e-05
4.94667e-05
4.93788e-05
5.00071e-05
4.97967e-05
4.91529e-05
5.00394e-05
5.03569e-05
5.13478e-05
5.25636e-05
4.98107e-05
4.98721e-05
5.02219e-05
5.31498e-05
5.34557e-05
5.46399e-05
5.10379e-05
5.12814e-05
5.25734e-05
5.28806e-05
5.37246e-05
5.51224e-05
5.08842e-05
5.06534e-05
5.25239e-05
5.23512e-05
5.11681e-05
5.3032e-05
5.23656e-05
5.30857e-05
5.43581e-05
5.08887e-05
5.21792e-05
5.20105e-05
5.4214e-05
5.46694e-05
5.39798e-05
5.27106e-05
5.30061e-05
5.26412e-05
5.2883e-05
5.51533e-05
5.44016e-05
5.26765e-05
5.25186e-05
5.26262e-05
5.25198e-05
5.2424e-05
5.31062e-05
5.22432e-05
5.43896e-05
5.38662e-05
5.20579e-05
5.2349e-05
5.19054e-05
5.33779e-05
5.38922e-05
5.37573e-05
5.24129e-05
5.26628e-05
5.2214e-05
5.25227e-05
5.43229e-05
5.42889e-05
5.24101e-05
5.24036e-05
5.22096e-05
5.23884e-05
5.21686e-05
5.26438e-05
5.23676e-05
5.38441e-05
5.42327e-05
5.18791e-05
5.23774e-05
5.23026e-05
5.44726e-05
5.39674e-05
5.56182e-05
5.2276e-05
5.25853e-05
5.36401e-05
5.35477e-05
5.4467e-05
5.53107e-05
5.22696e-05
5.25611e-05
5.36663e-05
5.39931e-05
5.29336e-05
5.35298e-05
5.42639e-05
5.45726e-05
5.60186e-05
5.3134e-05
5.41612e-05
5.44729e-05
5.64183e-05
5.57677e-05
5.54199e-05
5.39352e-05
5.36685e-05
5.40397e-05
5.35946e-05
5.5334e-05
5.47502e-05
5.39656e-05
5.4104e-05
5.40475e-05
5.37557e-05
5.42859e-05
5.34941e-05
5.35431e-05
5.60465e-05
5.4665e-05
5.44803e-05
5.36079e-05
5.35273e-05
5.45199e-05
5.53131e-05
5.47946e-05
5.39319e-05
5.34928e-05
5.35714e-05
5.34825e-05
5.4722e-05
5.50175e-05
5.38979e-05
5.33302e-05
5.35083e-05
5.29714e-05
5.31614e-05
5.34205e-05
5.29174e-05
5.44454e-05
5.41085e-05
5.31133e-05
5.28993e-05
5.29007e-05
5.41565e-05
5.48499e-05
5.64187e-05
5.35793e-05
5.36245e-05
5.45644e-05
5.52348e-05
5.52997e-05
5.71407e-05
5.35231e-05
5.30529e-05
5.46802e-05
5.51617e-05
5.304e-05
5.53619e-05
5.52552e-05
5.4396e-05
5.71499e-05
5.30807e-05
5.52843e-05
5.53974e-05
5.72134e-05
5.67114e-05
5.69305e-05
5.51073e-05
5.55421e-05
5.55748e-05
5.55891e-05
5.72848e-05
5.66972e-05
5.52089e-05
5.57334e-05
5.56299e-05
5.60866e-05
5.57826e-05
5.56594e-05
5.60807e-05
5.74388e-05
5.73922e-05
5.58231e-05
5.60031e-05
5.59702e-05
5.73424e-05
5.68361e-05
5.55527e-05
5.55407e-05
5.53299e-05
5.45891e-05
5.37389e-05
5.64019e-05
5.43135e-05
5.5594e-05
5.5986e-05
5.46598e-05
5.45097e-05
5.59468e-05
5.37059e-05
5.41097e-05
5.71964e-05
5.52774e-05
5.57626e-05
5.44022e-05
5.39587e-05
5.47444e-05
5.54835e-05
5.58651e-05
5.43695e-05
5.3573e-05
5.43653e-05
5.39447e-05
5.42557e-05
5.58272e-05
5.44312e-05
5.41824e-05
5.43773e-05
5.40447e-05
5.37433e-05
5.38684e-05
5.36782e-05
5.51414e-05
5.53409e-05
5.36554e-05
5.40232e-05
5.36646e-05
5.51026e-05
5.61904e-05
5.80742e-05
5.4652e-05
5.49374e-05
5.6743e-05
5.7964e-05
5.65641e-05
5.98483e-05
5.45743e-05
5.42396e-05
5.65071e-05
5.64722e-05
5.406e-05
5.79636e-05
5.71129e-05
5.57144e-05
5.81369e-05
5.41258e-05
5.66486e-05
5.72418e-05
5.88799e-05
5.82948e-05
5.85457e-05
5.71811e-05
5.83955e-05
5.75337e-05
5.84489e-05
6.00824e-05
5.9367e-05
5.6975e-05
5.7038e-05
5.74249e-05
5.76085e-05
5.77243e-05
5.85006e-05
5.81351e-05
5.84425e-05
5.8885e-05
5.78754e-05
5.78469e-05
5.83259e-05
5.9365e-05
5.84739e-05
5.69353e-05
5.74842e-05
5.80017e-05
5.60909e-05
5.49432e-05
5.88727e-05
5.51679e-05
5.74046e-05
5.75897e-05
5.639e-05
5.65355e-05
5.80137e-05
5.49504e-05
5.58493e-05
5.88113e-05
5.71236e-05
5.82137e-05
5.64904e-05
5.59935e-05
5.63872e-05
5.66888e-05
5.57566e-05
5.55338e-05
5.42357e-05
5.47332e-05
5.36288e-05
5.47938e-05
5.4281e-05
5.58644e-05
5.60002e-05
5.49621e-05
5.50022e-05
5.51799e-05
5.36184e-05
5.44528e-05
5.68629e-05
5.57742e-05
5.52422e-05
5.47031e-05
5.43019e-05
5.52466e-05
5.57692e-05
5.72924e-05
5.47263e-05
5.3725e-05
5.58224e-05
5.6399e-05
5.46447e-05
5.81879e-05
5.49282e-05
5.49387e-05
5.5583e-05
5.53498e-05
5.44795e-05
5.6507e-05
5.6229e-05
5.57709e-05
5.68939e-05
5.43086e-05
5.52739e-05
5.58351e-05
5.77143e-05
5.77086e-05
5.90576e-05
5.6582e-05
5.73826e-05
5.80544e-05
5.89883e-05
5.8744e-05
6.03514e-05
5.63171e-05
5.60382e-05
5.77915e-05
5.75852e-05
5.70173e-05
5.9015e-05
5.8205e-05
5.73094e-05
5.87732e-05
5.66826e-05
5.76885e-05
5.80316e-05
5.9206e-05
5.91369e-05
5.88368e-05
5.82189e-05
5.90902e-05
5.81835e-05
5.86875e-05
6.03893e-05
5.91807e-05
5.7971e-05
5.78147e-05
5.80007e-05
5.79456e-05
5.82596e-05
5.85382e-05
5.78728e-05
5.88824e-05
5.88518e-05
5.81153e-05
5.8005e-05
5.79032e-05
5.84931e-05
5.87207e-05
5.7757e-05
5.79138e-05
5.80033e-05
5.68066e-05
5.63032e-05
5.88504e-05
5.69761e-05
5.78615e-05
5.79045e-05
5.7036e-05
5.74437e-05
5.74616e-05
5.62629e-05
5.66522e-05
5.8821e-05
5.84155e-05
5.75906e-05
5.7457e-05
5.69375e-05
5.77062e-05
5.77011e-05
5.74879e-05
5.65848e-05
5.60241e-05
5.63675e-05
5.58863e-05
5.68636e-05
5.69148e-05
5.68404e-05
5.73156e-05
5.65409e-05
5.68315e-05
5.6549e-05
5.59361e-05
5.65128e-05
5.83994e-05
5.78266e-05
5.68384e-05
5.69004e-05
5.67156e-05
5.77079e-05
5.75058e-05
5.77995e-05
5.63759e-05
5.60136e-05
5.68206e-05
5.71137e-05
5.71469e-05
5.83241e-05
5.6519e-05
5.66457e-05
5.65742e-05
5.63428e-05
5.65761e-05
5.71618e-05
5.69215e-05
5.77343e-05
5.72308e-05
5.66954e-05
5.63538e-05
5.66836e-05
5.7828e-05
5.79065e-05
5.81952e-05
5.7004e-05
5.72984e-05
5.7244e-05
5.7374e-05
5.84308e-05
5.83352e-05
5.67233e-05
5.63389e-05
5.71248e-05
5.67269e-05
5.70417e-05
5.73866e-05
5.72028e-05
5.72371e-05
5.78223e-05
5.67108e-05
5.66704e-05
5.70527e-05
5.81616e-05
5.82134e-05
5.79896e-05
5.72457e-05
5.72917e-05
5.702e-05
5.66819e-05
5.82458e-05
5.74721e-05
5.7164e-05
5.69581e-05
5.71225e-05
5.72289e-05
5.72009e-05
5.66461e-05
5.69115e-05
5.79763e-05
5.82565e-05
5.7098e-05
5.72128e-05
5.70474e-05
5.78893e-05
5.79757e-05
5.79533e-05
5.69231e-05
5.66047e-05
5.68466e-05
5.66553e-05
5.74568e-05
5.78196e-05
5.70578e-05
5.72353e-05
5.69702e-05
5.71619e-05
5.67879e-05
5.66055e-05
5.66913e-05
5.82735e-05
5.82149e-05
5.69576e-05
5.71415e-05
5.68432e-05
5.77759e-05
5.80151e-05
5.82373e-05
5.68731e-05
5.68751e-05
5.71539e-05
5.74767e-05
5.80341e-05
5.87549e-05
5.69758e-05
5.71367e-05
5.70703e-05
5.70992e-05
5.67285e-05
5.74975e-05
5.72206e-05
5.82205e-05
5.82049e-05
5.68549e-05
5.71032e-05
5.71344e-05
5.8348e-05
5.82545e-05
5.79825e-05
5.71808e-05
5.75174e-05
5.70864e-05
5.73112e-05
5.87884e-05
5.82059e-05
5.70766e-05
5.70878e-05
5.69515e-05
5.68396e-05
5.72905e-05
5.73672e-05
5.72257e-05
5.82116e-05
5.78481e-05
5.71798e-05
5.69029e-05
5.71045e-05
5.81137e-05
5.79346e-05
5.75161e-05
5.69169e-05
5.69951e-05
5.64039e-05
5.6209e-05
5.80634e-05
5.71923e-05
5.68247e-05
5.67204e-05
5.6471e-05
5.64801e-05
5.7037e-05
5.62444e-05
5.64178e-05
5.77992e-05
5.75502e-05
5.6934e-05
5.64766e-05
5.645e-05
5.74811e-05
5.75179e-05
5.75992e-05
5.63497e-05
5.61256e-05
5.63345e-05
5.61284e-05
5.71762e-05
5.73547e-05
5.64409e-05
5.64779e-05
5.64349e-05
5.65399e-05
5.63583e-05
5.61411e-05
5.63488e-05
5.7571e-05
5.77686e-05
5.64147e-05
5.65275e-05
5.64364e-05
5.76319e-05
5.76545e-05
5.76489e-05
5.64073e-05
5.62747e-05
5.65102e-05
5.65913e-05
5.74867e-05
5.78245e-05
5.6473e-05
5.65574e-05
5.64547e-05
5.63954e-05
5.6411e-05
5.65341e-05
5.64245e-05
5.77929e-05
5.74877e-05
5.6483e-05
5.64062e-05
5.64305e-05
5.75874e-05
5.75773e-05
5.55266e-05
5.56424e-05
5.77786e-05
5.54524e-05
5.53265e-05
4.63493e-05
4.62365e-05
4.62168e-05
5.54127e-05
5.73615e-05
5.53936e-05
2.81037e-07
2.40229e-07
1.33943e-07
1.70559e-07
1.71576e-06
2.83346e-07
1.29638e-07
1.31332e-07
1.06137e-07
3.43424e-07
1.07983e-07
3.38272e-07
3.5589e-07
2.64777e-07
4.30174e-07
3.01599e-07
5.10647e-06
2.58624e-07
6.81008e-06
1.31216e-05
2.07404e-05
3.59241e-07
1.20202e-05
3.17639e-07
1.44612e-05
1.77715e-07
2.1754e-07
2.14714e-07
1.99934e-07
1.76295e-07
2.16591e-07
2.14246e-07
1.76252e-06
4.9736e-07
5.61082e-07
2.88544e-07
1.73017e-06
4.83624e-07
5.29099e-07
1.37587e-05
2.14078e-05
1.06785e-07
1.759e-07
7.00747e-07
3.39259e-07
1.08217e-07
1.74742e-07
6.77693e-07
1.89127e-06
1.92202e-06
3.41725e-07
1.86872e-06
1.90643e-06
4.97467e-07
9.94228e-06
4.10616e-07
1.28421e-05
3.50145e-05
4.53224e-05
5.49891e-07
1.46236e-05
4.59929e-07
1.62035e-05
1.75265e-07
2.15461e-07
2.13592e-07
1.96426e-07
1.72088e-07