/*--------------------------------*- C++ -*----------------------------------*\
| =========                 |                                                 |
| \\      /  F ield         | OpenFOAM: The Open Source CFD Toolbox           |
|  \\    /   O peration     | Version:  v2012                                 |
|   \\  /    A nd           | Website:  www.openfoam.com                      |
|    \\/     M anipulation  |                                                 |
\*---------------------------------------------------------------------------*/
FoamFile
{
    version     2.0;
    format      ascii;
    class       volScalarField;
    location    "675";
    object      nut;
}
// * * * * * * * * * * * * * * * * * * * * * * * * * * * * * * * * * * * * * //

dimensions      [0 2 -1 0 0 0 0];


internalField   nonuniform List<scalar> 
171728
(
2.23185e-06
2.08262e-06
1.9736e-06
2.241e-06
2.21125e-06
2.02075e-06
1.9808e-06
2.24399e-06
2.21534e-06
1.88056e-06
1.99467e-06
2.22791e-06
2.21852e-06
1.73944e-06
2.03403e-06
2.17996e-06
2.22092e-06
1.67479e-06
2.09335e-06
2.11148e-06
2.22687e-06
1.64444e-06
2.14202e-06
2.02458e-06
2.23854e-06
1.59977e-06
2.2259e-06
1.94713e-06
2.26038e-06
1.54864e-06
2.39882e-06
1.88118e-06
2.27907e-06
1.49398e-06
2.63322e-06
1.84204e-06
2.30087e-06
1.44325e-06
2.89016e-06
1.91757e-06
2.32444e-06
1.388e-06
3.09447e-06
2.16029e-06
2.34828e-06
1.33003e-06
3.04865e-06
2.50991e-06
2.37153e-06
1.25749e-06
2.67057e-06
2.69418e-06
2.40174e-06
1.17464e-06
2.05573e-06
2.27014e-06
2.4572e-06
1.08911e-06
1.44142e-06
1.83599e-06
2.5278e-06
1.00434e-06
1.03607e-06
1.67785e-06
2.62505e-06
9.30384e-07
8.70574e-07
1.61005e-06
2.70029e-06
8.89481e-07
8.35265e-07
1.55971e-06
2.65756e-06
9.03903e-07
9.16961e-07
1.44911e-06
2.66845e-06
9.84093e-07
1.05001e-06
1.47929e-06
2.74754e-06
1.17683e-06
1.26612e-06
1.60571e-06
2.76208e-06
1.51551e-06
1.59162e-06
2.53863e-06
2.52512e-06
2.0163e-06
2.15658e-06
3.70087e-06
2.23224e-06
2.81174e-06
2.8562e-06
5.75227e-06
2.0611e-06
3.7385e-06
3.95036e-06
7.44423e-06
1.97281e-06
5.15607e-06
5.14108e-06
1.37431e-05
1.86163e-06
7.00521e-06
7.15348e-06
1.78126e-05
1.78403e-06
8.94273e-06
9.05922e-06
2.49716e-05
1.53905e-06
1.12103e-05
1.2371e-05
2.93489e-05
1.46853e-06
1.52166e-05
1.33806e-05
3.81057e-05
1.52169e-06
1.63458e-05
1.91038e-05
4.99173e-05
1.73277e-06
2.43236e-05
2.16763e-05
4.79832e-05
1.86431e-06
2.47632e-05
2.58382e-05
5.83313e-05
2.25534e-06
3.08871e-05
3.17934e-05
6.78291e-05
2.99856e-06
3.72012e-05
3.50411e-05
6.77781e-05
3.60266e-06
4.08473e-05
4.24588e-05
7.48471e-05
4.44843e-06
4.65678e-05
4.69009e-05
7.96014e-05
5.88037e-06
5.20967e-05
5.10454e-05
8.36793e-05
7.16315e-06
5.87702e-05
6.26156e-05
8.79636e-05
9.59896e-06
6.54138e-05
6.53997e-05
9.16121e-05
1.09335e-05
7.14344e-05
6.96258e-05
9.29198e-05
1.33863e-05
7.27392e-05
7.66343e-05
0.000102604
1.86113e-05
8.72594e-05
8.56841e-05
0.000103615
2.00951e-05
8.90073e-05
8.80899e-05
0.000104923
2.33233e-05
9.29828e-05
9.47917e-05
0.000111531
3.06879e-05
9.97469e-05
0.000100427
0.000116413
3.25034e-05
0.000109095
0.00010675
0.000118253
4.06055e-05
0.000112848
0.000111504
0.000122364
4.50802e-05
0.000109954
0.000114551
0.000125009
4.93639e-05
0.000121792
0.000122377
0.000126613
5.83347e-05
0.000131543
0.000129906
0.000134521
7.01846e-05
0.000131377
0.00012814
0.000136609
6.78364e-05
0.000133669
0.00013035
0.000136599
7.90032e-05
0.000138316
0.000143135
0.000138185
8.40898e-05
0.000138137
0.000144343
0.000149348
9.1941e-05
0.000154036
0.000150515
0.000153801
0.000107206
0.000156936
0.000154033
0.000144301
0.000109543
0.000148469
0.000148783
0.000141961
0.000103698
0.000161204
0.000157383
0.000164369
0.000117966
0.000173445
0.000174283
0.000173908
0.000139325
0.000163067
0.000172898
0.000156092
0.000138128
0.000158091
0.000161433
0.000147914
0.000129607
0.000181646
0.000165388
0.000168326
0.000144954
0.000191715
0.00018737
0.000179172
0.000162656
0.000178729
0.000189157
0.000171605
0.000157826
0.000169398
0.000179284
0.000166435
0.00015123
0.000184628
0.000181336
0.000175683
0.000168218
0.000198061
0.000192938
0.000179403
0.000181517
0.000196408
0.000192534
0.000175046
0.000179326
0.000193642
0.000192979
0.000181224
0.000181916
0.000199145
0.00020257
0.000189359
0.000192124
0.000198659
0.000197909
0.000179964
0.000193605
0.000198327
0.000194505
0.000178941
0.000197095
0.000210475
0.00021075
0.000193614
0.000207525
0.000211281
0.000214017
0.000193652
0.00020836
0.000199471
0.000203288
0.000181296
0.000204248
0.000203754
0.000201546
0.000183776
0.000215725
0.000227216
0.000219447
0.00020162
0.000229844
0.000229654
0.000225779
0.000203641
0.000228544
0.000205744
0.000215858
0.000189412
0.000216982
0.000199907
0.000207421
0.000184337
0.000215238
0.00022174
0.000213298
0.000197013
0.000237107
0.000234041
0.00022596
0.000203687
0.00024506
0.000229087
0.000228356
0.000200463
0.000239892
0.000217248
0.0002256
0.000197245
0.000234147
0.00021695
0.00022217
0.000197392
0.000234759
0.000225816
0.000219773
0.000198464
0.000242508
0.000227368
0.000223708
0.000200455
0.000245279
0.000222995
0.000226905
0.000199351
0.000245416
0.000224435
0.000227056
0.000199148
0.000248284
0.000230332
0.000227606
0.000202357
0.000250211
0.000229317
0.000226893
0.00020157
0.000247869
0.000223966
0.000225829
0.000199039
0.00024801
0.000224906
0.000227206
0.000200304
0.00025327
0.000230464
0.00022904
0.000205193
2.25736e-06
2.45049e-06
2.19513e-06
2.27308e-06
2.26851e-06
1.9764e-06
2.25506e-06
2.20536e-06
2.31011e-06
2.20947e-06
2.00385e-06
2.05082e-06
2.27789e-06
2.5681e-06
2.24827e-06
2.24056e-06
2.25565e-06
2.23802e-06
1.98624e-06
1.76828e-06
1.98482e-06
1.75707e-06
2.2719e-06
2.24558e-06
2.17055e-06
2.28499e-06
2.00939e-06
2.29897e-06
1.86272e-06
2.04407e-06
1.79665e-06
2.27111e-06
2.22497e-06
2.01792e-06
1.97795e-06
1.99677e-06
2.22913e-06
2.23787e-06
2.21665e-06
1.98005e-06
1.75388e-06
1.95812e-06
1.74788e-06
2.24371e-06
2.1975e-06
1.98156e-06
2.29005e-06
1.93884e-06
2.21999e-06
1.77688e-06
1.92183e-06
1.71978e-06
2.21659e-06
2.15895e-06
1.98719e-06
1.99015e-06
1.92065e-06
2.21307e-06
2.21611e-06
2.19294e-06
1.95051e-06
1.74709e-06
1.92833e-06
1.74054e-06
2.19484e-06
2.14243e-06
1.92728e-06
2.20199e-06
1.88396e-06
2.23256e-06
1.69655e-06
1.76912e-06
1.63933e-06
2.14955e-06
2.1477e-06
1.89372e-06
2.0227e-06
1.81337e-06
2.1698e-06
2.19189e-06
2.16553e-06
1.9216e-06
1.73621e-06
1.89824e-06
1.71667e-06
2.14649e-06
2.14646e-06
1.86899e-06
2.25276e-06
1.82289e-06
2.3902e-06
1.62578e-06
1.68336e-06
1.58185e-06
2.15148e-06
2.18434e-06
1.78855e-06
2.07621e-06
1.73945e-06
2.11037e-06
2.16395e-06
2.13307e-06
1.88898e-06
1.70848e-06
1.85257e-06
1.6817e-06
2.14213e-06
2.10437e-06
1.80561e-06
2.46512e-06
1.75313e-06
2.82526e-06
1.56988e-06
1.65348e-06
1.55262e-06
2.19222e-06
2.31086e-06
1.72346e-06
2.12863e-06
1.66428e-06
2.03049e-06
2.13069e-06
2.09498e-06
1.83732e-06
1.67035e-06
1.78744e-06
1.63739e-06
2.09924e-06
2.07162e-06
1.73472e-06
3.00378e-06
1.67444e-06
3.82413e-06
1.55022e-06
1.61092e-06
1.54749e-06
2.34067e-06
2.64855e-06
1.64833e-06
2.19194e-06
1.60766e-06
1.95408e-06
2.09157e-06
2.04159e-06
1.77063e-06
1.62526e-06
1.72807e-06
1.58579e-06
2.06514e-06
2.03934e-06
1.65275e-06
4.20126e-06
1.59026e-06
5.36861e-06
1.54709e-06
1.56046e-06
1.57269e-06
2.66424e-06
2.9584e-06
1.59204e-06
2.34791e-06
1.52571e-06
1.88907e-06
2.03642e-06
1.96505e-06
1.71872e-06
1.57206e-06
1.70577e-06
1.52256e-06
2.03253e-06
1.99693e-06
1.56745e-06
5.67721e-06
1.50587e-06
6.07637e-06
1.58826e-06
1.50719e-06
1.70172e-06
2.95401e-06
3.01236e-06
1.50038e-06
2.57137e-06
1.42731e-06
1.84116e-06
1.95827e-06
1.88644e-06
1.70156e-06
1.50301e-06
1.6789e-06
1.44762e-06
1.99036e-06
1.93348e-06
1.49148e-06
5.48735e-06
1.47416e-06
3.68152e-06
1.75828e-06
1.45447e-06
1.96209e-06
2.8627e-06
2.50278e-06
1.41254e-06
2.82688e-06
1.393e-06
1.90171e-06
1.87792e-06
1.79813e-06
1.66587e-06
1.42917e-06
1.61409e-06
1.36888e-06
1.92774e-06
1.84188e-06
1.46976e-06
3.25029e-06
1.45486e-06
2.46912e-06
2.07897e-06
1.40289e-06
2.82568e-06
2.45148e-06
2.35563e-06
1.38785e-06
3.0494e-06
1.37794e-06
2.14091e-06
1.789e-06
1.71927e-06
1.59601e-06
1.34776e-06
1.54463e-06
1.28687e-06
1.83531e-06
1.74207e-06
1.45539e-06
2.34205e-06
1.46396e-06
2.21072e-06
3.23317e-06
1.3432e-06
4.81586e-06
2.32629e-06
2.28871e-06
1.37654e-06
3.08569e-06
1.38404e-06
2.49699e-06
1.70969e-06
1.67133e-06
1.526e-06
1.26443e-06
1.46012e-06
1.19208e-06
1.73232e-06
1.63186e-06
1.47156e-06
2.20255e-06
1.52196e-06
2.16521e-06
5.3578e-06
1.2738e-06
6.46942e-06
2.27079e-06
2.13191e-06
1.39786e-06
2.80424e-06
1.44505e-06
2.70027e-06
1.66258e-06
1.64914e-06
1.43558e-06
1.16613e-06
1.35232e-06
1.099e-06
1.61804e-06
1.51498e-06
1.54539e-06
2.12286e-06
1.63282e-06
1.87186e-06
6.62999e-06
1.19315e-06
6.19383e-06
2.09857e-06
1.8703e-06
1.45275e-06
2.22186e-06
1.48303e-06
2.34976e-06
1.64154e-06
1.63892e-06
1.32612e-06
1.07864e-06
1.24474e-06
1.01708e-06
1.49722e-06
1.39407e-06
1.67331e-06
1.76913e-06
1.84801e-06
1.45744e-06
5.13877e-06
1.10799e-06
2.92222e-06
1.83693e-06
1.58934e-06
1.51201e-06
1.57798e-06
1.64502e-06
1.87334e-06
1.6319e-06
1.63868e-06
1.21326e-06
9.94397e-07
1.13559e-06
9.25319e-07
1.37212e-06
1.27194e-06
1.92112e-06
1.36966e-06
2.15873e-06
1.15044e-06
2.43539e-06
1.02384e-06
1.5305e-06
1.55276e-06
1.33219e-06
1.69684e-06
1.11762e-06
1.89012e-06
1.70194e-06
1.63196e-06
1.62653e-06
1.10966e-06
9.04235e-07
1.0513e-06
8.50385e-07
1.24652e-06
1.15963e-06
2.25249e-06
1.08551e-06
2.52465e-06
9.71225e-07
1.37162e-06
9.47244e-07
1.10059e-06
1.29833e-06
1.17536e-06
1.97508e-06
9.03145e-07
2.27647e-06
1.62973e-06
1.61255e-06
1.57714e-06
1.03415e-06
8.36503e-07
9.66427e-07
8.16045e-07
1.13699e-06
1.07933e-06
2.59154e-06
9.49514e-07
2.77063e-06
9.07014e-07
1.06408e-06
8.96042e-07
9.72628e-07
1.15302e-06
1.0914e-06
2.36202e-06
8.27023e-07
2.58187e-06
1.5772e-06
1.55812e-06
1.48544e-06
9.58078e-07
8.15505e-07
9.80306e-07
8.37614e-07
1.0685e-06
1.06144e-06
2.75499e-06
9.04943e-07
2.60627e-06
9.21857e-07
9.54124e-07
8.94793e-07
9.59495e-07
1.07968e-06
1.08822e-06
2.63647e-06
8.95814e-07
2.4647e-06
1.48625e-06
1.46667e-06
1.54158e-06
9.81435e-07
8.49378e-07
1.05372e-06
9.12272e-07
1.07573e-06
1.15747e-06
2.61409e-06
9.33953e-07
2.5126e-06
1.00856e-06
9.68968e-07
9.52259e-07
9.98094e-07
1.10063e-06
1.18698e-06
2.36792e-06
1.01599e-06
2.09006e-06
1.44212e-06
1.57621e-06
1.70754e-06
1.10119e-06
9.5275e-07
1.20498e-06
1.10132e-06
1.1997e-06
1.46901e-06
2.48712e-06
1.03754e-06
2.52072e-06
1.17488e-06
1.04632e-06
1.1263e-06
1.12846e-06
1.23136e-06
1.48544e-06
1.98112e-06
1.20065e-06
1.80928e-06
1.57665e-06
1.76905e-06
2.52946e-06
1.27829e-06
1.14976e-06
1.57606e-06
1.41381e-06
1.56318e-06
2.11863e-06
2.60847e-06
1.23387e-06
2.9902e-06
1.46968e-06
1.17562e-06
1.42586e-06
1.49875e-06
1.5835e-06
2.0684e-06
1.80212e-06
1.49389e-06
2.21262e-06
2.32156e-06
2.69753e-06
3.45007e-06
1.65793e-06
1.50561e-06
2.06326e-06
1.86089e-06
2.30488e-06
3.12304e-06
3.09707e-06
1.56706e-06
3.48959e-06
1.97093e-06
1.54917e-06
1.86928e-06
1.88457e-06
2.20464e-06
3.25262e-06
2.30483e-06
1.99898e-06
2.94273e-06
3.27425e-06
3.84774e-06
5.53396e-06
2.27059e-06
2.01312e-06
2.90434e-06
2.55453e-06
3.39547e-06
4.91761e-06
3.52936e-06
2.15369e-06
3.4404e-06
2.69068e-06
2.07722e-06
2.55076e-06
2.78592e-06
3.54561e-06
5.08078e-06
3.17948e-06
2.66544e-06
3.27895e-06
5.57652e-06
5.76249e-06
7.11218e-06
3.075e-06
2.82429e-06
3.84685e-06
3.47927e-06
5.36366e-06
7.84517e-06
3.3817e-06
2.9136e-06
3.78383e-06
3.6565e-06
2.90478e-06
3.47291e-06
3.27218e-06
5.42277e-06
7.74184e-06
3.23318e-06
3.57589e-06
3.46547e-06
6.679e-06
7.87176e-06
1.24507e-05
4.19412e-06
3.73938e-06
5.60734e-06
4.82458e-06
8.2944e-06
1.14766e-05
4.07617e-06
4.06614e-06
5.42347e-06
5.23571e-06
3.8312e-06
4.77557e-06
5.08681e-06
8.40218e-06
1.19449e-05
4.22219e-06
4.88625e-06
5.42599e-06
1.32164e-05
1.33617e-05
1.57427e-05
5.99885e-06
5.20286e-06
6.75086e-06
6.66332e-06
1.25932e-05
1.68709e-05
5.78652e-06
5.5162e-06
6.34813e-06
7.51405e-06
5.13671e-06
6.60651e-06
6.76165e-06
1.27683e-05
1.64136e-05
5.49353e-06
6.77105e-06
7.3031e-06
1.5788e-05
1.65382e-05
2.46857e-05
7.38433e-06
7.06491e-06
1.022e-05
8.33185e-06
1.7844e-05
2.24258e-05
6.89227e-06
8.08883e-06
9.19056e-06
8.97353e-06
7.61013e-06
8.23622e-06
8.60885e-06
1.7773e-05
2.26556e-05
8.13096e-06
8.17415e-06
9.1874e-06
2.48534e-05
2.65892e-05
2.84398e-05
1.07709e-05
9.06917e-06
1.13947e-05
1.0778e-05
2.3339e-05
2.93541e-05
9.53121e-06
9.94744e-06
1.03911e-05
1.39257e-05
9.08022e-06
1.06712e-05
1.0629e-05
2.34313e-05
3.25361e-05
9.80667e-06
1.19646e-05
1.1769e-05
2.75629e-05
2.88284e-05
3.64709e-05
1.17657e-05
1.13212e-05
1.40821e-05
1.44676e-05
3.10391e-05
3.70726e-05
1.10614e-05
1.45338e-05
1.38195e-05
1.4397e-05
1.0942e-05
1.43293e-05
1.35831e-05
3.45854e-05
3.51502e-05
1.18685e-05
1.25847e-05
1.43976e-05
3.58924e-05
3.85321e-05
4.41116e-05
1.50503e-05
1.53335e-05
1.7689e-05
1.58622e-05
3.84667e-05
4.28082e-05
1.46225e-05
1.43276e-05
1.6922e-05
1.77643e-05
1.51384e-05
1.57786e-05
1.87255e-05
3.53554e-05
4.41188e-05
1.68396e-05
1.82035e-05
2.18891e-05
4.92707e-05
4.52395e-05
5.11019e-05
1.85098e-05
1.64459e-05
2.1617e-05
2.29684e-05
4.36943e-05
5.27223e-05
1.78341e-05
1.92113e-05
2.12494e-05
2.27519e-05
1.92219e-05
2.27268e-05
2.03566e-05
4.64494e-05
5.15257e-05
2.19734e-05
2.06947e-05
2.07996e-05
4.80546e-05
5.26396e-05
5.70564e-05
2.26697e-05
2.46075e-05
2.50033e-05
2.53536e-05
5.53901e-05
5.72708e-05
2.23986e-05
2.36733e-05
2.49298e-05
2.54e-05
2.0624e-05
2.50366e-05
2.36266e-05
5.24318e-05
5.66455e-05
2.02922e-05
2.45015e-05
2.33027e-05
5.54494e-05
5.8052e-05
6.21126e-05
2.5723e-05
2.50728e-05
2.90091e-05
2.71644e-05
5.69089e-05
5.94998e-05
2.5712e-05
2.62358e-05
2.91813e-05
3.04883e-05
2.60692e-05
2.72829e-05
3.28743e-05
5.80685e-05
6.34662e-05
2.7978e-05
3.0926e-05
3.56719e-05
6.71762e-05
6.36259e-05
6.92411e-05
3.05357e-05
3.07992e-05
3.54333e-05
3.6983e-05
6.25153e-05
7.14232e-05
3.06502e-05
3.1688e-05
3.52395e-05
3.38317e-05
3.36247e-05
3.66456e-05
3.33087e-05
6.4754e-05
6.8179e-05
3.6088e-05
3.37932e-05
3.51674e-05
6.73696e-05
7.03964e-05
7.33534e-05
3.66325e-05
3.76388e-05
3.98281e-05
3.96653e-05
7.20509e-05
7.33223e-05
3.64929e-05
3.51449e-05
3.99119e-05
4.07924e-05
3.36605e-05
3.96468e-05
3.99923e-05
6.91648e-05
7.39771e-05
3.47414e-05
4.05495e-05
4.04274e-05
7.30746e-05
7.42445e-05
7.77148e-05
4.10714e-05
4.09425e-05
4.50513e-05
4.53682e-05
7.40929e-05
7.76149e-05
4.11304e-05
4.22585e-05
4.50214e-05
4.53234e-05
4.18e-05
4.5081e-05
4.57451e-05
7.52605e-05
7.79246e-05
4.24261e-05
4.61098e-05
4.55537e-05
7.87365e-05
7.88072e-05
8.25769e-05
4.64117e-05
4.66066e-05
5.13222e-05
5.0346e-05
7.87233e-05
8.22719e-05
4.64098e-05
4.60069e-05
5.11738e-05
4.98847e-05
4.679e-05
5.03459e-05
5.27882e-05
7.86127e-05
8.17688e-05
4.67356e-05
4.94547e-05
5.25045e-05
8.27616e-05
8.36059e-05
8.68279e-05
5.31906e-05
5.2275e-05
5.70263e-05
5.8603e-05
8.32765e-05
8.70942e-05
5.29001e-05
5.21608e-05
5.72993e-05
5.98129e-05
5.43546e-05
5.79189e-05
5.5395e-05
8.31121e-05
8.80603e-05
5.33861e-05
5.97675e-05
5.67753e-05
8.66472e-05
8.77245e-05
9.11065e-05
5.826e-05
5.94461e-05
6.40399e-05
6.23405e-05
8.79743e-05
9.09035e-05
5.87675e-05
6.13777e-05
6.39949e-05
6.17681e-05
5.72741e-05
6.26555e-05
6.56747e-05
8.88628e-05
9.04683e-05
5.96854e-05
6.56471e-05
6.60367e-05
9.13746e-05
9.19359e-05
9.40226e-05
6.57908e-05
6.48963e-05
6.89209e-05
7.17132e-05
9.20256e-05
9.50567e-05
6.54486e-05
6.17715e-05
6.82816e-05
7.01335e-05
6.68299e-05
7.13207e-05
6.62144e-05
9.10468e-05
9.42873e-05
6.61479e-05
6.55319e-05
6.44855e-05
9.16431e-05
9.46798e-05
9.84921e-05
6.96581e-05
7.21813e-05
7.3992e-05
7.14772e-05
9.53893e-05
9.64287e-05
6.9315e-05
7.31118e-05
7.48947e-05
7.55468e-05
6.69856e-05
7.08963e-05
7.6405e-05
9.56213e-05
9.8436e-05
6.45577e-05
7.59829e-05
7.76692e-05
0.00010164
9.97424e-05
0.000103494
7.67e-05
7.26145e-05
8.38426e-05
8.34962e-05
9.75224e-05
0.000104547
7.75328e-05
7.52502e-05
8.32189e-05
8.07218e-05
7.99024e-05
8.4167e-05
8.59378e-05
9.89171e-05
0.00010311
8.16828e-05
8.303e-05
8.72326e-05
0.000103551
0.000103966
0.000105499
8.44807e-05
8.68627e-05
8.70911e-05
8.99961e-05
0.000105696
0.000106694
8.37456e-05
8.46618e-05
8.67771e-05
9.00827e-05
8.6145e-05
8.95042e-05
8.46867e-05
0.000104555
0.000106806
8.71867e-05
8.77875e-05
8.54469e-05
0.000104473
0.000106227
0.000109757
8.84366e-05
8.95801e-05
9.18605e-05
9.06618e-05
0.000106729
0.000108472
8.83156e-05
8.98926e-05
9.24973e-05
9.1658e-05
8.42343e-05
9.00731e-05
9.20804e-05
0.000106974
0.000109166
8.48127e-05
9.3501e-05
9.13022e-05
0.00011021
0.000110636
0.000114489
9.41332e-05
9.31687e-05
0.000100504
9.84006e-05
0.000109702
0.000113402
9.44479e-05
9.33762e-05
0.000100082
9.84107e-05
9.51065e-05
9.85168e-05
0.000102347
0.000110253
0.000113661
9.45647e-05
9.80771e-05
0.000101835
0.000115541
0.000115088
0.000117079
0.000100889
9.9601e-05
0.000103902
0.000106095
0.000114239
0.000119818
0.000100992
0.000100752
0.000104205
0.000105796
0.000103869
0.000106302
0.000104873
0.000114466
0.000118472
0.000103988
0.000106
0.00010667
0.00011806
0.000117919
0.000121894
0.000106131
0.000108985
0.000111092
0.000113263
0.000120973
0.000121962
0.000105971
0.000106457
0.000110499
0.000110379
0.000104865
0.000113141
0.000110075
0.000119054
0.000120952
0.000106444
0.000110176
0.000109427
0.000121131
0.000122436
0.000124062
0.000112022
0.000112987
0.000114885
0.000110738
0.000121693
0.000120264
0.000111617
0.000111998
0.000115241
0.000114352
0.000112831
0.000110633
0.000116321
0.00012157
0.00012374
0.000112055
0.000113814
0.000116539
0.000125009
0.000124606
0.000127345
0.000115816
0.000110053
0.000117833
0.000118712
0.000120867
0.000129101
0.000116204
0.000114773
0.000118297
0.000118713
0.000116007
0.000118215
0.000116149
0.000124213
0.000128434
0.000116462
0.000119667
0.000116139
0.000125731
0.000128054
0.000133367
0.000119211
0.000122344
0.000127334
0.00013003
0.000130677
0.000135086
0.000119501
0.00012129
0.000126781
0.000129028
0.000117782
0.000130132
0.000126835
0.000129757
0.00013431
0.000117504
0.000129163
0.000126387
0.000133224
0.0001345
0.000135646
0.000129773
0.000131203
0.000131819
0.00013112
0.000135571
0.000135484
0.000129247
0.000130191
0.000131613
0.000129558
0.000129607
0.000131794
0.000132605
0.000134496
0.000133052
0.000129249
0.00012882
0.00013249
0.000136636
0.000135504
0.000135412
0.000131435
0.000130685
0.00013004
0.000130575
0.000135344
0.0001365
0.00013127
0.000128954
0.000129984
0.000127914
0.000132379
0.000130802
0.000131731
0.00013284
0.000134529
0.000132318
0.000127246
0.000133024
0.000136472
0.000136338
0.000142145
0.000130977
0.000133715
0.00013975
0.000140486
0.000137933
0.000141175
0.000131176
0.000131014
0.000140091
0.000141818
0.000132406
0.000138428
0.000134484
0.000136191
0.000143846
0.000133222
0.000141012
0.000133529
0.000137391
0.000142447
0.000142385
0.000140901
0.000140854
0.00014101
0.0001397
0.000141073
0.000140149
0.000141193
0.000143371
0.000141234
0.00014366
0.000136013
0.000137257
0.00014453
0.000144553
0.000144655
0.000134839
0.000144532
0.000144417
0.000147214
0.000142608
0.000148479
0.000140945
0.000139163
0.000146593
0.000145348
0.00014062
0.000150305
0.000141342
0.000143286
0.000147366
0.00014473
0.000147845
0.000150535
0.000153833
0.00014448
0.000147517
0.000148297
0.000147286
0.000155079
0.000153915
0.000149641
0.000152247
0.000149033
0.000150383
0.000155209
0.000157201
0.000152347
0.000154838
0.00014914
0.000148554
0.000154543
0.000154866
0.000154119
0.000157207
0.000151577
0.000149055
0.000151828
0.000155357
0.000154159
0.000150831
0.000145556
0.000152352
0.000150966
0.000155882
0.00015737
0.00015505
0.000152819
0.000154192
0.000145887
0.000155588
0.00015501
0.000155386
0.000152092
0.000148854
0.000149569
0.000144699
0.000151647
0.000147305
0.00014733
0.000149691
0.000142556
0.000140854
0.000150693
0.000150007
0.000153925
0.00015175
0.000151815
0.000152725
0.000145461
0.000155749
0.00015432
0.00015097
0.000151827
0.000149595
0.000144034
0.000152813
0.000157821
0.000146925
0.000151803
0.000141942
0.000149882
0.00015996
0.000160762
0.000151019
0.000162526
0.000152155
0.0001588
0.000166794
0.000170649
0.000159214
0.000167245
0.000151358
0.000153375
0.000164971
0.000169855
0.000165823
0.000172878
0.00017789
0.000154852
0.000166122
0.000168449
0.000172685
0.000181041
0.000173906
0.000163833
0.000164528
0.000169998
0.000171326
0.000172679
0.000168354
0.000166933
0.00015661
0.000169244
0.000172565
0.00017344
0.000174312
0.000178572
0.000166887
0.000170334
0.00016664
0.000164171
0.000181833
0.000175271
0.000173985
0.000159036
0.000164118
0.000158943
0.000172564
0.000164989
0.000166795
0.000160583
0.000155092
0.000151911
0.000173704
0.000173354
0.000168539
0.000165198
0.000164559
0.000158662
0.000156841
0.000163108
0.000155621
0.000166717
0.000162907
0.000154902
0.000147813
0.000158571
0.000161478
0.00016576
0.000159888
0.000164716
0.000171851
0.000153058
0.000170487
0.000167274
0.000164
0.00016526
0.000162784
0.000155716
0.000174805
0.000169392
0.000155184
0.000160091
0.000153592
0.00016005
0.00016074
0.000164728
0.000163674
0.000173762
0.000169152
0.000178607
0.000182832
0.000189142
0.000173631
0.0001814
0.000167196
0.000167307
0.000181798
0.000183698
0.0001766
0.000191133
0.000188712
0.000163088
0.000175719
0.000169945
0.000184271
0.000188442
0.000179009
0.000174246
0.000172425
0.000184762
0.0001896
0.000185879
0.000184383
0.000181105
0.000168392
0.000184217
0.000186278
0.000185807
0.000188047
0.000189682
0.000184369
0.00018768
0.000176468
0.000174916
0.000190523
0.000189751
0.000191362
0.000173233
0.000171509
0.000166464
0.000184573
0.00017966
0.000178137
0.000172651
0.000165917
0.000159468
0.000185028
0.000186916
0.000178595
0.000178562
0.000183367
0.000170398
0.000176719
0.000173782
0.000166705
0.000188473
0.000180509
0.000180894
0.000166528
0.000166112
0.000172305
0.000177464
0.000171756
0.000179208
0.000179518
0.000159614
0.000172818
0.000177883
0.000177568
0.000178517
0.000177334
0.000175906
0.000178014
0.000180771
0.000166302
0.000170751
0.000180072
0.000178118
0.000180562
0.000173775
0.000174635
0.000181217
0.000184254
0.000185397
0.000193963
0.000195998
0.00017561
0.000183449
0.000183409
0.000182038
0.000193633
0.000192538
0.000185478
0.000196773
0.000193213
0.000173009
0.000179944
0.000184369
0.000191687
0.0001914
0.000179661
0.000181291
0.000178466
0.000195003
0.000197037
0.000195035
0.000196859
0.000183536
0.000180425
0.000194773
0.000193775
0.000194922
0.000194099
0.000193702
0.000198246
0.000192553
0.000180014
0.000177724
0.000191764
0.000193094
0.000190558
0.000175396
0.000177786
0.000176283
0.000193424
0.000195264
0.000191176
0.000193229
0.000179786
0.000178831
0.000193408
0.000193239
0.000191199
0.000191935
0.000191874
0.000194022
0.000191111
0.000177399
0.000178172
0.000190084
0.00019152
0.000190344
0.000178923
0.000176833
0.000185063
0.000190839
0.000192951
0.000198537
0.000198409
0.000179326
0.000183904
0.000190839
0.000192203
0.000198692
0.00020094
0.000194074
0.000198454
0.000202906
0.00017935
0.000187223
0.000195075
0.000202024
0.000204032
0.000189363
0.000185749
0.000185268
0.000200652
0.000199321
0.000202433
0.000199739
0.000183954
0.000181898
0.000200843
0.000201853
0.000202617
0.000201455
0.00020343
0.000199265
0.000200345
0.000187343
0.000182152
0.000204556
0.000200721
0.000200309
0.0001814
0.00018452
0.000181514
0.000202028
0.000199152
0.000199414
0.000198522
0.000181569
0.000182069
0.000201955
0.000198773
0.000199067
0.000195577
0.000197782
0.000197959
0.000195033
0.00018069
0.000177742
0.000197519
0.000194949
0.000194809
0.000177918
0.000181268
0.000188458
0.000198983
0.000198612
0.00020321
0.000207716
0.000182913
0.000192177
0.000198544
0.000194927
0.000203838
0.000206439
0.000194714
0.000208462
0.000207278
0.000178406
0.000191809
0.000194737
0.000207355
0.000208326
0.000192318
0.000189797
0.00019245
0.000206669
0.000209845
0.000210597
0.000211608
0.000192821
0.000192029
0.000207289
0.000210382
0.000211104
0.000214296
0.000210921
0.00021221
0.000214441
0.000193215
0.000194985
0.000211369
0.000213973
0.00021416
0.000195054
0.000191886
0.000185993
0.000211282
0.000210889
0.000206326
0.000200991
0.000190347
0.000180061
0.000211745
0.000214621
0.000206834
0.000206086
0.000214712
0.000200853
0.000203915
0.000193858
0.000184844
0.000213857
0.000205345
0.000202937
0.000182442
0.00018536
0.000185796
0.000204757
0.000199706
0.000202958
0.000199088
0.000179426
0.000184688
0.00020521
0.000203783
0.000203302
0.000201379
0.000201289
0.000198655
0.000198579
0.00018384
0.000183399
0.000200731
0.000201115
0.000198375
0.000181656
0.000186861
0.00019655
0.000203738
0.00020441
0.000216323
0.000223804
0.000187666
0.000204933
0.000203562
0.000201529
0.000214827
0.00021443
0.000199583
0.000223725
0.000218057
0.000184616
0.000196596
0.000199893
0.000215411
0.000218672
0.000199999
0.000197599
0.00020059
0.000219458
0.000227115
0.000223406
0.000230646
0.000206147
0.000206091
0.000218065
0.00021826
0.000222387
0.000223303
0.000222453
0.000230932
0.000227369
0.000198026
0.000202051
0.000223198
0.000224839
0.000228449
0.000205116
0.000200139
0.000193932
0.000224052
0.000229179
0.000217078
0.000210572
0.0002033
0.000185987
0.000223153
0.000224162
0.000218802
0.00021969
0.000227926
0.000210633
0.000215866
0.000201642
0.000194948
0.000229169
0.000219789
0.000217136
0.000191576
0.000192317
0.0001872
0.000213627
0.000205806
0.000207881
0.00020065
0.00018356
0.000179436
0.000215668
0.000216542
0.000209453
0.000209792
0.000211503
0.000200535
0.000205937
0.000193264
0.000187491
0.000212341
0.000208116
0.000205489
0.000184463
0.000186723
0.000193103
0.000207289
0.000200007
0.000211848
0.000214721
0.0001804
0.000196937
0.000208899
0.000209119
0.000210555
0.000209237
0.000205228
0.000215358
0.000214155
0.000187018
0.000191222
0.000204817
0.000208621
0.000211819
0.000195103
0.000194864
0.000202629
0.000216506
0.000221004
0.000226798
0.000232649
0.000199375
0.000208924
0.000214948
0.000213209
0.000225044
0.000223509
0.000219216
0.000232908
0.000227979
0.000192912
0.000201053
0.000217092
0.000224199
0.000226728
0.000203663
0.000202992
0.00020303
0.000228236
0.000233872
0.00023009
0.000234124
0.000209089
0.000205244
0.000226552
0.000225338
0.000228658
0.000227859
0.000228907
0.000233245
0.000228498
0.000201559
0.00020268
0.000227733
0.000228326
0.000228428
0.000201396
0.000202216
0.000197841
0.000228906
0.000230072
0.000222288
0.000219282
0.000203187
0.000194188
0.000228336
0.000228123
0.000223726
0.000226064
0.000226113
0.000218951
0.000221124
0.000202368
0.000200949
0.000226716
0.000226097
0.00022294
0.000197461
0.000197331
0.000196356
0.000220816
0.000217322
0.000219192
0.000215922
0.000193332
0.000193273
0.000222514
0.000225436
0.000220518
0.000222853
0.000220416
0.000216166
0.000220037
0.000200704
0.00019857
0.000222337
0.000223318
0.000221678
0.000197418
0.000196205
0.00019799
0.000219107
0.000216387
0.000222086
0.000224098
0.000194152
0.000200758
0.00022035
0.00022173
0.000220648
0.000219709
0.000220413
0.000224458
0.000222997
0.000197871
0.000195564
0.000221591
0.00021987
0.000221712
0.000198306
0.000198418
0.000200662
0.000223497
0.000225588
0.000226009
0.000227408
0.000201205
0.000201885
0.000221719
0.000219648
0.000225009
0.000222148
0.000223957
0.000227527
0.000225852
0.000195339
0.000198442
0.000221926
0.000221802
0.000224649
0.000200456
0.000200634
0.000200188
0.000226359
0.000227308
0.000225891
0.000223778
0.000201215
0.000197605
0.000225612
0.000223919
0.000226439
0.0002267
0.00022615
0.000223569
0.000225244
0.000199111
0.000201259
0.000225207
0.000226595
0.000225998
0.000199723
0.000199929
0.000199974
0.000225377
0.000223259
0.000225071
0.000223393
0.000197309
0.000198851
0.000226177
0.000227006
0.000226023
0.000227258
0.000224548
0.000223057
0.000223988
0.000201202
0.000201353
0.000225584
0.000227104
0.000225102
0.000199005
0.000200085
0.000201855
0.000225265
0.000224797
0.0002277
0.000229536
0.000199712
0.000204231
0.000226119
0.00022717
0.000227307
0.000227459
0.000224182
0.000229624
0.00022791
0.000201196
0.000201678
0.00022518
0.000227451
0.000227467
0.000202212
0.000201816
0.000201451
0.000228138
0.000230186
0.000228945
0.000230762
0.000204328
0.000202886
0.000227556
0.000227566
0.000227985
0.000227145
0.000228646
0.000231131
0.000229932
0.000201567
0.000200721
0.00022803
0.000227603
0.000229101
0.000202217
0.000201017
0.000199383
0.000228058
0.00022893
0.000225396
0.000224319
0.000201887
0.000197895
0.000227347
0.000226559
0.000225791
0.000225774
0.000228993
0.000224582
0.000225545
0.000200282
0.000199547
0.000228238
0.00022578
0.000225708
0.00019922
0.000199208
0.000199997
0.000225073
0.00022374
0.000225394
0.000223866
0.000197606
0.000198597
0.000225665
0.000225857
0.000226208
0.000227002
0.000225166
0.000224021
0.000225523
0.00019948
0.000201011
0.000225515
0.000226921
0.000226175
0.00020015
0.000200139
0.000203193
0.000225972
0.000224942
0.000231045
0.000231385
0.00019913
0.000203935
0.000226567
0.000227259
0.000230813
0.000230581
0.000226055
0.000231038
0.000230577
0.000201011
0.000202456
0.000226618
0.000230651
0.000230726
0.000202937
0.00020565
0.00023015
0.000230814
0.000206597
0.000229716
0.000228959
0.000253479
0.000252995
0.000252596
0.000229441
0.00020458
0.000229372
8.50758e-06
2.01398e-06
2.94075e-06
3.92715e-06
3.7706e-06
1.99479e-06
5.43586e-07
1.65333e-06
6.03816e-07
2.3398e-06
1.21901e-06
1.01424e-06
2.23236e-06
1.84138e-06
2.55615e-06
1.08834e-06
1.36937e-05
9.71466e-07
1.54683e-05
1.05957e-05
1.29106e-05
1.32765e-06
2.10224e-05
1.24552e-06
2.25868e-05
2.19404e-06
2.28443e-06
2.19631e-06
2.21103e-06
2.19206e-06
2.27509e-06
2.19291e-06
4.38648e-06
3.06625e-07
3.6169e-06
2.07192e-06
4.08347e-06
4.07886e-07
3.54522e-06
1.08479e-05
1.30996e-05
5.8544e-07
1.30908e-06
4.99533e-07
1.97113e-06
6.08323e-07
1.30904e-06
6.29637e-07
1.50027e-06
1.51699e-06
2.23297e-06
1.71262e-06
1.72524e-06
1.32546e-06
1.86717e-05
1.23484e-06
2.12277e-05
1.67534e-05
1.90609e-05
1.51042e-06
2.27426e-05
1.44612e-06
2.38791e-05
2.19196e-06
2.27771e-06
2.19455e-06
2.21484e-06
2.18555e-06