/*--------------------------------*- C++ -*----------------------------------*\
| =========                 |                                                 |
| \\      /  F ield         | OpenFOAM: The Open Source CFD Toolbox           |
|  \\    /   O peration     | Version:  v2012                                 |
|   \\  /    A nd           | Website:  www.openfoam.com                      |
|    \\/     M anipulation  |                                                 |
\*---------------------------------------------------------------------------*/
FoamFile
{
    version     2.0;
    format      ascii;
    class       volScalarField;
    location    "675";
    object      p;
}
// * * * * * * * * * * * * * * * * * * * * * * * * * * * * * * * * * * * * * //

dimensions      [0 2 -2 0 0 0 0];


internalField   nonuniform List<scalar> 
171728
(
0.00351974
0.00351854
0.00351868
0.00351938
0.00348375
0.00348259
0.00348257
0.00348546
0.00344551
0.00344362
0.00344373
0.00344603
0.00340143
0.00339975
0.0033998
0.003402
0.00335332
0.00335188
0.00335186
0.00335422
0.00330447
0.00330321
0.00330317
0.00330555
0.00325624
0.00325505
0.00325501
0.00325745
0.00320897
0.00320791
0.00320799
0.00321031
0.00316264
0.00316173
0.0031618
0.00316412
0.00311726
0.00311648
0.00311651
0.00311885
0.00307283
0.00307216
0.00307219
0.00307454
0.00302918
0.00302858
0.00302869
0.00303095
0.00298604
0.00298559
0.0029855
0.00298792
0.00294335
0.00294298
0.00294298
0.00294533
0.00290097
0.00290069
0.00290073
0.00290301
0.00285894
0.00285874
0.00285871
0.00286093
0.00281722
0.00281706
0.00281708
0.00281925
0.00277585
0.00277573
0.00277581
0.00277798
0.00273482
0.00273479
0.00273479
0.0027368
0.00269426
0.00269422
0.00269429
0.00269638
0.00265385
0.0026539
0.00265386
0.00265573
0.00261395
0.002614
0.00261408
0.00261568
0.00257412
0.00257436
0.00257435
0.00257591
0.00253473
0.002535
0.00253494
0.00253652
0.00249547
0.00249581
0.00249576
0.00249763
0.00245655
0.0024569
0.00245681
0.00245839
0.00241781
0.00241825
0.00241827
0.00242037
0.00237928
0.00237977
0.00237971
0.00238119
0.00234097
0.00234146
0.00234147
0.00234357
0.0023028
0.00230338
0.00230339
0.00230547
0.00226489
0.00226557
0.00226541
0.00226719
0.002227
0.00222751
0.00222759
0.00222939
0.00218938
0.00219008
0.00219012
0.00219203
0.00215189
0.00215257
0.00215242
0.0021543
0.00211442
0.00211498
0.0021151
0.00211692
0.00207717
0.00207779
0.00207773
0.00207965
0.00204008
0.00204061
0.00204056
0.00204243
0.00200313
0.0020036
0.00200367
0.00200559
0.00196625
0.00196668
0.00196658
0.0019685
0.00192946
0.00192977
0.00192981
0.00193176
0.00189292
0.00189322
0.00189325
0.00189546
0.00185664
0.00185687
0.00185679
0.00185844
0.00182004
0.00182005
0.00182015
0.00182242
0.00178385
0.00178405
0.00178401
0.00178617
0.00174797
0.00174787
0.0017479
0.00174978
0.00171188
0.00171202
0.00171189
0.0017139
0.00167606
0.00167566
0.00167589
0.00167811
0.00164017
0.00164019
0.00164006
0.00164206
0.00160462
0.00160473
0.0016046
0.00160661
0.00156929
0.00156879
0.00156899
0.00157116
0.00153412
0.00153359
0.00153357
0.0015356
0.00149821
0.0014983
0.00149831
0.00150025
0.00146316
0.00146291
0.00146302
0.00146492
0.00142827
0.00142786
0.00142773
0.00143005
0.00139326
0.0013934
0.00139312
0.001395
0.00135834
0.00135748
0.00135774
0.00135939
0.00132282
0.00132222
0.00132243
0.00132458
0.00128821
0.00128905
0.00128883
0.00129115
0.00125423
0.00125378
0.00125399
0.00125563
0.00121947
0.00121788
0.00121805
0.00121944
0.00118385
0.00118432
0.00118379
0.001186
0.00114958
0.00115052
0.00115042
0.00115301
0.00111573
0.00111476
0.00111544
0.00111706
0.0010811
0.00107985
0.00107999
0.0010815
0.00104619
0.0010465
0.00104592
0.00104806
0.00101176
0.00101253
0.001012
0.00101434
0.000977297
0.000976732
0.000976953
0.000978761
0.000942247
0.000941505
0.000941897
0.000943548
0.000908334
0.000908323
0.000908532
0.000910419
0.000874483
0.000874566
0.000874578
0.00087651
0.000838972
0.00083866
0.000838271
0.000840225
0.000803671
0.000803791
0.000803707
0.000805693
0.000770242
0.00077035
0.000770731
0.000772612
0.000735934
0.000735445
0.000735325
0.000737341
0.000699761
0.000699458
0.000699509
0.000701368
0.000665463
0.000665815
0.000665639
0.000667662
0.000632553
0.0006327
0.000632575
0.000634639
0.0005979
0.000597122
0.000597465
0.000599169
0.000561417
0.00056096
0.000561225
0.000562987
0.00052586
0.000526599
0.000526154
0.000528481
0.000492593
0.000493052
0.0004927
0.000494942
0.000458655
0.000457853
0.000458322
0.000459887
0.000422701
0.000422207
0.00042239
0.000424177
0.000387296
0.000387389
0.000387421
0.00038946
0.000352572
0.000352976
0.000352626
0.000354833
0.000317363
0.000317504
0.000317195
0.000319342
0.000281667
0.000281259
0.000281691
0.000283498
0.000245987
0.00024577
0.000245965
0.000247848
0.000211034
0.00021116
0.000210907
0.000212985
0.000176135
0.000176202
0.000176079
0.000178165
0.000140445
0.000140271
0.000140427
0.000142348
0.000104493
0.000104441
0.000104511
0.000106466
6.88822e-05
6.89449e-05
6.886e-05
7.08886e-05
3.38984e-05
3.33798e-05
3.31999e-05
3.50751e-05
5.76746e-06
6.68983e-06
6.75031e-06
4.8222e-06
0.00352443
0.00352184
0.00352158
0.00352405
0.00352201
0.00352192
0.00352822
0.00352806
0.00352814
0.00352806
0.00352159
0.00352175
0.00352426
0.00352181
0.00352178
0.00352416
0.00351932
0.00349015
0.00351867
0.00351859
0.00349203
0.00349212
0.00351931
0.00349032
0.0035186
0.00351873
0.00349201
0.00349208
0.00351861
0.00349216
0.00349217
0.00351946
0.00349023
0.00351863
0.00349212
0.00349214
0.00349025
0.00348531
0.00345144
0.00348241
0.00348254
0.00345383
0.00345378
0.00348552
0.00345154
0.00348274
0.00348258
0.00345391
0.00345384
0.00348255
0.00345378
0.00345395
0.00348545
0.00345153
0.00348252
0.00345378
0.00345391
0.00345155
0.00344594
0.00340816
0.00344365
0.00344357
0.00341125
0.00341125
0.00344602
0.00340816
0.00344366
0.00344373
0.00341123
0.00341123
0.0034437
0.00341127
0.00341127
0.00344601
0.00340817
0.00344371
0.0034112
0.00341124
0.00340817
0.00340199
0.00336066
0.00339974
0.00339974
0.00336401
0.00336401
0.003402
0.00336062
0.00339973
0.00339979
0.00336402
0.003364
0.00339975
0.00336402
0.00336404
0.00340201
0.00336067
0.00339975
0.00336401
0.003364
0.00336067
0.00335421
0.00331197
0.00335189
0.00335184
0.00331529
0.00331529
0.00335415
0.00331195
0.0033519
0.00335186
0.00331533
0.00331536
0.0033519
0.00331534
0.0033153
0.00335421
0.00331194
0.00335189
0.00331535
0.0033153
0.00331198
0.00330553
0.00326373
0.00330316
0.00330317
0.003267
0.00326702
0.00330552
0.00326371
0.00330317
0.00330318
0.003267
0.00326694
0.00330321
0.00326704
0.00326703
0.00330551
0.00326376
0.00330317
0.00326698
0.00326702
0.00326377
0.00325741
0.00321645
0.00325502
0.00325505
0.0032196
0.00321961
0.00325738
0.00321643
0.00325507
0.00325503
0.00321963
0.00321953
0.00325508
0.00321963
0.00321961
0.00325742
0.00321646
0.00325507
0.00321956
0.00321962
0.00321647
0.00321028
0.00317015
0.0032079
0.00320792
0.00317318
0.00317319
0.00321025
0.00317012
0.0032079
0.0032081
0.00317319
0.00317321
0.00320794
0.00317319
0.0031732
0.00321031
0.00317005
0.00320793
0.00317319
0.0031732
0.00317015
0.0031641
0.00312476
0.00316173
0.00316174
0.00312768
0.0031277
0.00316407
0.00312474
0.00316172
0.00316201
0.00312766
0.00312759
0.00316173
0.0031277
0.0031277
0.00316408
0.00312463
0.00316175
0.00312773
0.00312769
0.00312476
0.00311886
0.00308028
0.00311647
0.00311647
0.00308314
0.00308314
0.00311883
0.00308027
0.00311648
0.00311663
0.00308314
0.00308301
0.00311647
0.00308313
0.00308311
0.0031188
0.00308021
0.00311647
0.00308313
0.00308312
0.0030803
0.00307451
0.00303662
0.00307214
0.00307215
0.00303942
0.00303941
0.0030745
0.00303659
0.00307213
0.00307206
0.00303943
0.00303944
0.00307217
0.0030394
0.00303942
0.00307445
0.00303669
0.00307219
0.00303943
0.0030395
0.00303666
0.00303094
0.00299351
0.00302859
0.00302857
0.0029963
0.0029963
0.00303091
0.0029935
0.00302862
0.00302872
0.00299627
0.00299622
0.00302861
0.00299629
0.00299631
0.003031
0.00299348
0.00302861
0.0029962
0.00299632
0.00299355
0.00298791
0.00295084
0.00298558
0.00298559
0.00295361
0.00295359
0.00298791
0.00295082
0.00298558
0.00298545
0.0029536
0.00295365
0.0029856
0.00295359
0.0029536
0.00298787
0.00295085
0.00298558
0.00295363
0.00295354
0.00295086
0.00294533
0.00290851
0.00294301
0.00294299
0.00291125
0.00291124
0.0029453
0.00290847
0.00294304
0.00294302
0.00291124
0.00291119
0.00294303
0.00291124
0.00291117
0.00294529
0.00290855
0.00294303
0.0029112
0.00291113
0.00290844
0.00290306
0.00286639
0.00290069
0.00290069
0.00286923
0.00286917
0.00290298
0.00286643
0.00290075
0.00290074
0.00286919
0.0028692
0.00290069
0.00286917
0.00286926
0.00290306
0.00286639
0.00290068
0.00286919
0.00286922
0.00286634
0.00286101
0.0028246
0.00285872
0.00285872
0.00282754
0.00282743
0.00286101
0.00282467
0.00285877
0.00285869
0.00282751
0.0028274
0.00285877
0.00282742
0.00282746
0.00286097
0.00282466
0.00285874
0.00282739
0.00282745
0.00282457
0.00281924
0.00278323
0.00281711
0.00281707
0.00278608
0.00278602
0.00281931
0.00278318
0.0028171
0.00281706
0.00278601
0.00278603
0.00281722
0.00278601
0.00278598
0.0028193
0.00278328
0.00281717
0.00278601
0.00278596
0.00278323
0.00277801
0.00274211
0.00277586
0.00277573
0.0027449
0.00274504
0.00277789
0.00274209
0.00277586
0.00277584
0.00274483
0.00274504
0.00277588
0.00274504
0.00274489
0.00277798
0.00274208
0.00277584
0.00274509
0.00274494
0.00274214
0.00273683
0.00270143
0.00273484
0.00273479
0.00270435
0.00270435
0.00273686
0.00270136
0.00273471
0.00273476
0.00270445
0.00270446
0.00273475
0.00270435
0.00270433
0.00273682
0.00270146
0.00273469
0.00270444
0.00270439
0.00270146
0.0026963
0.00266082
0.0026943
0.00269421
0.0026639
0.00266397
0.00269617
0.00266083
0.00269437
0.00269429
0.00266379
0.00266393
0.00269433
0.00266397
0.00266382
0.00269626
0.0026608
0.00269438
0.00266394
0.00266375
0.00266091
0.0026557
0.00262088
0.00265397
0.00265391
0.00262397
0.00262399
0.00265569
0.0026207
0.0026539
0.00265386
0.00262399
0.00262397
0.00265391
0.002624
0.00262397
0.00265564
0.00262079
0.00265378
0.00262396
0.00262398
0.00262073
0.00261578
0.00258096
0.00261397
0.00261399
0.00258427
0.00258426
0.00261562
0.00258096
0.00261398
0.00261407
0.00258421
0.0025842
0.00261399
0.00258426
0.00258431
0.00261569
0.00258099
0.002614
0.00258422
0.00258426
0.00258088
0.00257599
0.00254159
0.00257437
0.00257436
0.00254475
0.00254478
0.00257593
0.00254155
0.00257437
0.00257434
0.00254473
0.00254474
0.00257442
0.00254477
0.00254476
0.00257595
0.00254156
0.0025744
0.00254471
0.00254473
0.00254155
0.00253655
0.00250238
0.00253489
0.002535
0.00250557
0.00250554
0.00253658
0.00250238
0.00253486
0.00253495
0.00250561
0.00250552
0.00253486
0.00250554
0.00250558
0.00253653
0.00250249
0.00253488
0.0025055
0.00250555
0.00250245
0.00249746
0.0024636
0.0024958
0.00249581
0.00246664
0.00246665
0.00249739
0.00246359
0.00249583
0.0024958
0.00246665
0.00246656
0.0024959
0.00246665
0.00246656
0.00249752
0.00246351
0.00249588
0.00246659
0.00246648
0.00246349
0.00245862
0.0024248
0.00245693
0.0024569
0.00242786
0.00242787
0.00245862
0.00242484
0.00245692
0.00245681
0.00242788
0.00242793
0.0024568
0.00242787
0.00242793
0.0024585
0.002425
0.00245667
0.00242793
0.00242801
0.00242528
0.00241995
0.00238664
0.00241822
0.00241825
0.00238932
0.00238933
0.00241995
0.00238639
0.00241826
0.00241826
0.00238934
0.00238932
0.00241828
0.00238933
0.00238921
0.00242008
0.00238637
0.00241833
0.00238928
0.0023891
0.00238609
0.00238162
0.00234804
0.0023797
0.00237977
0.00235105
0.00235105
0.00238151
0.00234832
0.00237972
0.00237973
0.00235107
0.00235098
0.00237966
0.00235105
0.00235105
0.00238151
0.00234846
0.00237959
0.00235102
0.00235109
0.00234847
0.00234321
0.00231031
0.00234151
0.00234146
0.00231285
0.00231285
0.00234336
0.0023101
0.00234153
0.00234142
0.00231287
0.00231284
0.0023415
0.00231286
0.00231292
0.00234343
0.00230991
0.00234154
0.00231286
0.00231292
0.00231035
0.00230539
0.00227223
0.00230337
0.00230338
0.00227496
0.00227505
0.00230525
0.00227226
0.00230337
0.00230337
0.00227495
0.00227497
0.0023034
0.00227504
0.00227485
0.00230511
0.00227247
0.00230339
0.00227492
0.00227476
0.00227218
0.00226733
0.0022344
0.00226549
0.00226558
0.00223706
0.00223699
0.00226732
0.0022344
0.0022655
0.00226548
0.00223708
0.00223702
0.00226535
0.00223698
0.00223704
0.00226752
0.00223431
0.00226526
0.00223703
0.00223701
0.0022342
0.00222948
0.00219671
0.0022276
0.00222751
0.00219937
0.00219937
0.00222951
0.00219658
0.00222762
0.00222758
0.00219939
0.00219942
0.00222766
0.00219939
0.00219947
0.00222942
0.00219681
0.00222767
0.00219949
0.00219956
0.00219695
0.00219182
0.00215929
0.00219
0.00219007
0.00216194
0.00216199
0.00219169
0.00215938
0.00219001
0.00219003
0.00216192
0.00216188
0.00219005
0.00216199
0.00216181
0.0021919
0.00215923
0.00219007
0.0021618
0.00216172
0.00215919
0.0021544
0.00212179
0.00215256
0.00215258
0.00212439
0.00212434
0.00215449
0.00212176
0.00215254
0.00215251
0.00212439
0.00212441
0.00215242
0.00212432
0.00212442
0.00215434
0.00212182
0.00215236
0.00212441
0.00212441
0.00212181
0.0021169
0.00208449
0.00211503
0.00211497
0.00208706
0.00208708
0.00211686
0.0020845
0.00211504
0.00211509
0.00208708
0.00208706
0.00211511
0.00208709
0.00208708
0.00211694
0.00208448
0.0021151
0.00208709
0.00208711
0.00208453
0.00207961
0.00204736
0.00207775
0.00207778
0.00204989
0.00204988
0.00207962
0.00204737
0.00207776
0.00207771
0.00204989
0.00204984
0.00207776
0.00204989
0.00204986
0.00207958
0.00204736
0.00207777
0.00204979
0.00204982
0.00204732
0.00204249
0.00201035
0.00204062
0.00204061
0.00201283
0.00201285
0.00204251
0.00201033
0.00204062
0.00204062
0.00201284
0.0020129
0.00204059
0.00201284
0.00201281
0.00204252
0.0020104
0.00204054
0.00201292
0.00201284
0.0020104
0.00200549
0.00197348
0.00200359
0.00200359
0.00197591
0.00197587
0.00200545
0.00197349
0.0020036
0.00200362
0.00197591
0.00197581
0.00200359
0.00197588
0.00197597
0.00200552
0.00197339
0.00200366
0.00197584
0.00197595
0.00197345
0.0019686
0.0019366
0.00196668
0.00196667
0.00193897
0.00193905
0.00196865
0.00193658
0.00196666
0.00196658
0.00193896
0.00193907
0.00196665
0.00193903
0.00193883
0.00196854
0.00193671
0.00196658
0.00193896
0.00193881
0.00193653
0.00193176
0.00190006
0.00192977
0.0019298
0.00190235
0.00190224
0.00193169
0.00190002
0.00192977
0.00192989
0.00190238
0.00190228
0.00192973
0.00190227
0.00190262
0.00193184
0.00189995
0.00192976
0.00190238
0.0019027
0.00190036
0.00189524
0.00186353
0.00189325
0.00189317
0.00186589
0.00186603
0.00189525
0.00186371
0.00189326
0.00189311
0.00186585
0.00186593
0.00189346
0.00186604
0.00186564
0.00189515
0.00186369
0.00189351
0.0018659
0.00186555
0.00186327
0.00185868
0.00182711
0.00185672
0.00185688
0.0018293
0.00182923
0.00185882
0.00182692
0.00185669
0.00185687
0.00182933
0.00182935
0.00185644
0.00182919
0.00182937
0.00185885
0.00182698
0.00185635
0.00182932
0.00182938
0.00182719
0.00182231
0.00179083
0.00182024
0.00182007
0.00179301
0.00179301
0.00182212
0.00179091
0.00182027
0.00182013
0.00179301
0.00179292
0.00182044
0.00179303
0.00179317
0.00182215
0.00179086
0.00182043
0.00179299
0.00179318
0.00179103
0.00178602
0.00175474
0.00178394
0.00178402
0.00175695
0.00175693
0.00178611
0.00175471
0.00178394
0.00178397
0.00175692
0.001757
0.00178402
0.00175693
0.00175678
0.00178607
0.00175479
0.00178404
0.00175692
0.00175676
0.00175455
0.00174993
0.00171874
0.0017479
0.0017479
0.00172081
0.00172099
0.00174992
0.00171885
0.0017479
0.00174796
0.00172085
0.00172088
0.00174777
0.00172098
0.00172078
0.00174999
0.00171869
0.00174774
0.00172092
0.00172081
0.00171868
0.00171397
0.0016828
0.00171188
0.00171202
0.00168497
0.00168476
0.00171404
0.0016826
0.00171188
0.00171184
0.00168494
0.00168487
0.0017118
0.00168475
0.00168504
0.00171389
0.0016828
0.00171181
0.00168483
0.00168496
0.00168291
0.001678
0.00164691
0.00167594
0.00167566
0.00164896
0.00164891
0.00167779
0.00164693
0.00167594
0.00167594
0.00164901
0.00164899
0.00167609
0.00164896
0.00164898
0.00167801
0.0016469
0.00167602
0.00164902
0.00164908
0.00164685
0.00164212
0.00161132
0.00164003
0.00164016
0.00161337
0.00161372
0.00164221
0.00161162
0.00164007
0.00164002
0.00161331
0.00161341
0.00163996
0.00161369
0.00161332
0.00164213
0.00161138
0.00164005
0.00161344
0.00161326
0.00161133
0.0016066
0.00157592
0.00160453
0.00160477
0.00157803
0.00157769
0.00160682
0.00157563
0.00160445
0.0016046
0.00157802
0.00157796
0.00160454
0.00157772
0.00157806
0.00160663
0.00157582
0.00160441
0.0015779
0.00157806
0.00157592
0.00157114
0.0015403
0.00156916
0.00156873
0.00154238
0.00154237
0.00157089
0.00154034
0.00156918
0.00156901
0.00154245
0.0015423
0.00156918
0.00154237
0.00154241
0.00157106
0.00154033
0.0015692
0.00154236
0.00154247
0.00154034
0.00153555
0.00150504
0.00153346
0.00153363
0.00150701
0.0015072
0.00153561
0.00150513
0.00153351
0.00153351
0.00150697
0.00150716
0.0015335
0.00150716
0.00150699
0.0015356
0.0015051
0.00153355
0.00150718
0.00150696
0.00150501
0.00150032
0.00146982
0.00149824
0.00149833
0.00147189
0.00147179
0.00150039
0.00146969
0.00149819
0.00149833
0.00147192
0.00147189
0.00149817
0.00147177
0.00147169
0.00150035
0.00146976
0.00149811
0.00147181
0.00147166
0.00146963
0.00146504
0.00143441
0.00146306
0.00146294
0.00143644
0.00143637
0.00146491
0.00143443
0.00146309
0.00146305
0.00143646
0.00143638
0.00146286
0.00143648
0.00143682
0.00146502
0.00143444
0.00146291
0.00143647
0.00143689
0.00143473
0.00142972
0.00139983
0.00142771
0.00142769
0.00140186
0.001402
0.00142976
0.00140001
0.00142775
0.00142767
0.00140183
0.00140179
0.00142819
0.00140208
0.00140182
0.00142973
0.00139977
0.00142823
0.00140178
0.00140177
0.00139975
0.00139517
0.00136476
0.00139321
0.00139346
0.0013669
0.00136698
0.00139537
0.00136461
0.00139314
0.00139316
0.00136677
0.00136689
0.00139292
0.00136661
0.00136629
0.0013951
0.00136457
0.00139283
0.00136671
0.00136617
0.0013642
0.00135996
0.00132908
0.00135797
0.00135779
0.00133113
0.00133073
0.00135972
0.00132872
0.00135792
0.00135794
0.00133129
0.00133113
0.00135745
0.00133078
0.00133129
0.00135975
0.00132909
0.00135736
0.00133105
0.00133138
0.00132922
0.00132432
0.00129466
0.00132231
0.00132206
0.00129661
0.001297
0.00132406
0.0012952
0.00132248
0.00132238
0.00129662
0.00129677
0.00132271
0.00129738
0.00129735
0.00132441
0.0012951
0.00132289
0.0012972
0.00129757
0.00129564
0.00129015
0.00126096
0.00128822
0.00128867
0.00126295
0.001263
0.00129069
0.00126075
0.00128817
0.00128834
0.00126292
0.00126302
0.00128883
0.00126295
0.00126285
0.00129056
0.00126078
0.00128909
0.001263
0.00126264
0.00126056
0.00125626
0.00122529
0.00125428
0.00125405
0.00122747
0.00122709
0.00125592
0.00122473
0.00125434
0.00125433
0.00122754
0.0012274
0.00125368
0.00122662
0.00122661
0.00125597
0.00122494
0.00125349
0.00122687
0.00122657
0.00122428
0.00122046
0.0011902
0.00121856
0.00121828
0.00119234
0.00119249
0.00121991
0.00119053
0.00121858
0.00121849
0.00119221
0.00119219
0.00121776
0.00119262
0.00119234
0.00122013
0.00119016
0.00121775
0.00119219
0.00119224
0.00119044
0.00118558
0.00115639
0.00118378
0.00118407
0.00115837
0.00115873
0.001186
0.0011571
0.00118361
0.00118359
0.00115824
0.00115831
0.0011842
0.00115913
0.00115938
0.0011856
0.00115672
0.00118407
0.00115882
0.00115933
0.00115756
0.0011518
0.0011221
0.00114988
0.0011502
0.00112409
0.00112394
0.0011525
0.00112172
0.00114977
0.00114988
0.00112429
0.00112434
0.00115077
0.00112381
0.00112402
0.0011522
0.00112232
0.00115086
0.00112448
0.00112445
0.00112196
0.00111734
0.0010869
0.00111536
0.001115
0.00108899
0.00108869
0.00111686
0.00108632
0.00111563
0.00111569
0.00108909
0.00108907
0.00111498
0.00108843
0.00108842
0.00111746
0.00108667
0.0011153
0.00108872
0.00108843
0.00108623
0.00108217
0.00105259
0.00108033
0.00108004
0.0010547
0.00105468
0.00108159
0.00105284
0.00108038
0.00108034
0.00105458
0.00105447
0.00107982
0.00105476
0.00105462
0.00108191
0.00105233
0.00107977
0.00105434
0.00105436
0.00105254
0.00104803
0.00101874
0.00104622
0.00104636
0.00102069
0.001021
0.00104834
0.00101926
0.00104607
0.00104597
0.00102056
0.00102056
0.00104629
0.00102119
0.00102097
0.00104779
0.00101868
0.00104601
0.00102059
0.00102068
0.00101898
0.0010141
0.000983626
0.00101208
0.00101236
0.000985712
0.00098586
0.00101462
0.000983601
0.00101197
0.00101199
0.000985875
0.000985806
0.00101233
0.000985835
0.00098575
0.00101403
0.000983727
0.00101206
0.000985837
0.000985835
0.000983633
0.000978756
0.000948267
0.000976784
0.000976805
0.000950327
0.000950206
0.0009787
0.000948058
0.000976962
0.000976905
0.000950411
0.000950411
0.000976766
0.00095012
0.000950266
0.000978868
0.000948359
0.000976941
0.000950457
0.00095047
0.000948229
0.000943568
0.000914694
0.000941741
0.000941579
0.000916661
0.000916528
0.000943355
0.000914654
0.000941785
0.000941833
0.000916596
0.00091672
0.000941693
0.000916506
0.000916783
0.000943672
0.000914815
0.000941891
0.000916789
0.000916847
0.000914867
0.000910223
0.00088134
0.000908401
0.000908316
0.000883269
0.000883182
0.000910207
0.00088128
0.000908337
0.000908446
0.000883245
0.000883293
0.000908585
0.000883217
0.000883356
0.000910341
0.000881353
0.000908613
0.000883344
0.000883338
0.000881332
0.000876643
0.000845555
0.000874631
0.000874532
0.000847697
0.000847734
0.000876558
0.000845528
0.000874628
0.000874629
0.000847693
0.00084755
0.000874534
0.000847669
0.000847331
0.000876584
0.000845322
0.00087446
0.000847392
0.000847231
0.000845186
0.000840623
0.000809993
0.000838629
0.000838714
0.000812002
0.000812201
0.000840611
0.000810239
0.000838603
0.000838425
0.000811987
0.000811911
0.000838297
0.000812285
0.000812147
0.00084035
0.000810057
0.00083817
0.000812007
0.000812154
0.000810236
0.000805379
0.000776818
0.000803471
0.000803664
0.000778589
0.000778653
0.000805616
0.000776862
0.000803506
0.000803546
0.000778705
0.00077897
0.000803792
0.000778756
0.000778997
0.000805531
0.00077721
0.000803868
0.000779118
0.000779158
0.000777199
0.000772343
0.000742448
0.000770345
0.000770301
0.000744621
0.000744471
0.000772306
0.000742329
0.000770457
0.000770695
0.000744582
0.000744455
0.000770618
0.000744364
0.000744377
0.000772664
0.000742252
0.000770707
0.00074432
0.000744297
0.000742215
0.000737564
0.00070633
0.000735685
0.000735559
0.000708473
0.000708392
0.000737467
0.000706242
0.000735598
0.000735438
0.000708426
0.000708354
0.000735407
0.000708341
0.000708311
0.000737363
0.000706238
0.00073533
0.000708359
0.000708315
0.000706191
0.000701458
0.000672026
0.000699518
0.000699469
0.000673829
0.000674001
0.000701408
0.000672164
0.000699509
0.00069947
0.000673821
0.000673867
0.000699403
0.00067405
0.000673937
0.000701413
0.000672075
0.000699439
0.000673926
0.00067395
0.000672143
0.000667533
0.000639048
0.000665565
0.000665759
0.000640953
0.000641158
0.000667683
0.000639215
0.000665549
0.000665591
0.000640918
0.000640923
0.000665726
0.000641229
0.000641205
0.000667564
0.000639082
0.000665708
0.000640954
0.000641155
0.000639266
0.000634448
0.00060422
0.000632569
0.000632648
0.000606358
0.000606149
0.000634553
0.000604003
0.000632575
0.00063257
0.000606492
0.000606491
0.000632782
0.000606127
0.000606256
0.0006345
0.000604266
0.000632762
0.000606432
0.00060634
0.000604092
0.000599327
0.000568148
0.000597397
0.000597156
0.000570272
0.000569956
0.000599084
0.000567843
0.00059753
0.000597528
0.000570309
0.000570341
0.000597216
0.00056992
0.00057003
0.000599369
0.000568121
0.0005973
0.00057029
0.00057004
0.000567881
0.000563228
0.000532962
0.000561235
0.000560993
0.000534801
0.000535019
0.000562994
0.000533223
0.000561226
0.000561282
0.000534654
0.000534678
0.000561021
0.000535034
0.000534909
0.000563184
0.000532904
0.000560989
0.000534692
0.00053477
0.000533091
0.000528324
0.000499274
0.000526325
0.000526576
0.000501152
0.000501432
0.000528603
0.000499636
0.00052611
0.000526105
0.000501029
0.000500943
0.000526506
0.000501467
0.000501323
0.00052825
0.000499197
0.000526312
0.000501034
0.000501242
0.000499493
0.000494715
0.000464887
0.000492798
0.000493023
0.000467018
0.000466829
0.00049505
0.000464631
0.000492705
0.000492604
0.000467174
0.000467189
0.000492944
0.000466799
0.000466914
0.000494647
0.00046501
0.000492913
0.000467177
0.000467083
0.000464768
0.000460026
0.000429131
0.000458112
0.000457893
0.000431242
0.000431093
0.000459755
0.000428966
0.000458308
0.000458374
0.000431328
0.000431387
0.000457962
0.000431061
0.000431153
0.000460154
0.000429168
0.000458144
0.00043131
0.000431198
0.000429019
0.000424283
0.000394062
0.000422363
0.000422233
0.000396016
0.000395927
0.000424132
0.000394079
0.000422403
0.000422456
0.000396004
0.000396087
0.000422304
0.000395956
0.000396073
0.000424307
0.000394104
0.00042231
0.00039609
0.000396039
0.000394151
0.000389359
0.000359568
0.000387354
0.000387348
0.000361512
0.000361642
0.000389402
0.000359727
0.000387324
0.000387402
0.000361394
0.000361363
0.000387453
0.000361663
0.000361557
0.000389395
0.000359468
0.000387404
0.000361392
0.000361459
0.000359604
0.000354816
0.000324298
0.000352835
0.000352969
0.000326359
0.000326518
0.000354976
0.000324469
0.000352693
0.000352608
0.000326242
0.00032609
0.000352829
0.000326488
0.000326284
0.00035468
0.000324098
0.000352716
0.000326067
0.000326182
0.000324219
0.000319426
0.000288393
0.00031743
0.000317542
0.000290428
0.000290291
0.000319554
0.000288212
0.000317355
0.000317221
0.000290551
0.0002906
0.000317344
0.000290268
0.00029039
0.000319248
0.000288545
0.000317285
0.000290583
0.000290516
0.000288388
0.000283479
0.000252631
0.000281418
0.000281259
0.000254641
0.000254531
0.000283297
0.000252504
0.000281564
0.000281688
0.00025472
0.00025486
0.000281416
0.000254546
0.000254676
0.000283679
0.000252773
0.000281578
0.000254884
0.000254757
0.000252668
0.000247817
0.000217712
0.00024583
0.000245758
0.000219709
0.000219788
0.00024772
0.000217821
0.000245869
0.000245947
0.000219643
0.000219598
0.000245855
0.000219794
0.000219707
0.000247918
0.000217614
0.000245896
0.000219598
0.000219634
0.000217702
0.000212989
0.000182921
0.000211065
0.000211154
0.000184951
0.000185039
0.000213103
0.000183026
0.000210983
0.000210906
0.000184885
0.000184825
0.000211074
0.000185055
0.000185008
0.000212878
0.000182844
0.000210977
0.000184835
0.000184936
0.000182975
0.000178106
0.000147292
0.000176141
0.000176187
0.000149329
0.000149271
0.000178181
0.000147206
0.000176099
0.000176068
0.000149373
0.000149413
0.000176205
0.00014926
0.000149309
0.000178049
0.00014735
0.000176163
0.000149411
0.000149361
0.000147271
0.000142375
0.000111414
0.000140352
0.000140286
0.000113402
0.000113341
0.000142284
0.00011134
0.000140401
0.000140435
0.000113441
0.000113456
0.000140308
0.000113325
0.000113332
0.000142428
0.00011143
0.000140364
0.000113433
0.000113365
0.000111343
0.000106517
7.57787e-05
0.00010448
0.000104451
7.77855e-05
7.78252e-05
0.000106461
7.58341e-05
0.000104507
0.000104529
7.77616e-05
7.7762e-05
0.000104436
7.78328e-05
7.78208e-05
0.000106533
7.57708e-05
0.000104456
7.7774e-05
7.78019e-05
7.5817e-05
7.08535e-05
4.003e-05
6.88944e-05
6.8939e-05
4.21121e-05
4.21824e-05
7.09149e-05
4.01303e-05
6.88554e-05
6.88485e-05
4.20536e-05
4.19903e-05
6.89277e-05
4.21754e-05
4.21031e-05
7.08406e-05
3.99431e-05
6.88965e-05
4.1995e-05
4.20565e-05
4.0023e-05
3.50862e-05
8.01055e-06
3.33223e-05
3.33862e-05
1.10748e-05
1.10311e-05
3.51765e-05
7.96592e-06
3.32666e-05
3.31977e-05
1.10886e-05
1.10828e-05
3.32951e-05
1.10365e-05
1.10554e-05
3.50016e-05
8.03098e-06
3.32477e-05
1.10759e-05
1.10553e-05
7.99274e-06
4.83293e-06
6.68595e-06
6.66842e-06
4.7829e-06
6.76816e-06
6.75279e-06
5.71579e-06
5.80369e-06
5.76457e-06
6.68057e-06
4.86991e-06
6.73874e-06
0.00353129
0.00353401
0.00353255
0.00353287
0.00355841
0.00353373
0.00356329
0.00353424
0.00356024
0.00353388
0.00353396
0.00356346
0.00354474
0.00356649
0.00356654
0.00350382
0.00351738
0.00352128
0.00349599
0.00349428
0.00349949
0.00350389
0.00351657
0.0035214
0.00349626
0.00351967
0.00351971
0.00351966
0.00349291
0.00349325
0.0034931
0.00349315
0.00350311
0.00351504
0.00352009
0.00351094
0.00352221
0.00350048
0.00351108
0.00349423
0.0034993
0.00350345
0.0035203
0.00351516
0.00351099
0.00352241
0.00351128
0.00350058
0.00352127
0.00352129
0.00350818
0.00350037
0.00350046
0.00347604
0.00349028
0.00349019
0.00347406
0.00348754
0.0034731
0.00347592
0.00348955
0.00348998
0.00347383
0.00348419
0.00348397
0.00348404
0.00345556
0.00345574
0.00345558
0.00345561
0.00347348
0.0034889
0.00348276
0.00347321
0.00348755
0.00347433
0.00347329
0.00348735
0.00347314
0.0034739
0.00348253
0.00348883
0.00347317
0.00348727
0.00347305
0.00347437
0.00349061
0.00349054
0.00347162
0.00347481
0.00347485
0.00343351
0.00344828
0.00344917
0.00343217
0.00344717
0.00343124
0.00343348
0.00344819
0.003449
0.00343216
0.00344563
0.0034455
0.00344553
0.00341297
0.00341301
0.00341294
0.00341294
0.00343204
0.00344786
0.00344376
0.00343324
0.00344689
0.00343265
0.00343333
0.00344707
0.00343131
0.0034323
0.00344366
0.00344779
0.00343318
0.00344678
0.00343318
0.00343274
0.00344861
0.00344857
0.00343054
0.00343253
0.00343254
0.00338721
0.00340356
0.00340504
0.00338575
0.0034029
0.00338524
0.0033872
0.00340349
0.00340494
0.00338571
0.00340148
0.0034014
0.0034014
0.00336551
0.00336552
0.00336549
0.00336549
0.00338631
0.0034034
0.00339987
0.00338802
0.00340272
0.00338649
0.00338815
0.00340277
0.00338516
0.00338636
0.00339974
0.00340341
0.00338797
0.00340281
0.00338799
0.00338647
0.00340365
0.00340365
0.00338474
0.00338585
0.00338586
0.00333821
0.00335536
0.0033567
0.00333704
0.0033549
0.0033367
0.00333825
0.00335533
0.00335664
0.00333703
0.00335333
0.00335328
0.0033533
0.00331665
0.00331665
0.00331662
0.0033166
0.0033378
0.00335536
0.00335194
0.00333965
0.00335481
0.00333772
0.0033397
0.00335494
0.00333675
0.00333786
0.00335187
0.00335539
0.00333972
0.00335499
0.00333969
0.00333772
0.00335536
0.00335539
0.00333632
0.00333711
0.00333715
0.00328913
0.00330645
0.00330745
0.00328826
0.00330618
0.0032881
0.00328915
0.00330642
0.00330738
0.00328825
0.00330448
0.00330445
0.00330443
0.00326821
0.00326823
0.00326819
0.00326821
0.00328917
0.00330649
0.00330322
0.00329108
0.00330628
0.00328897