/*--------------------------------*- C++ -*----------------------------------*\
| =========                 |                                                 |
| \\      /  F ield         | OpenFOAM: The Open Source CFD Toolbox           |
|  \\    /   O peration     | Version:  v2006                                 |
|   \\  /    A nd           | Website:  www.openfoam.com                      |
|    \\/     M anipulation  |                                                 |
\*---------------------------------------------------------------------------*/
FoamFile
{
    version     2.0;
    format      ascii;
    class       volScalarField;
    location    "500";
    object      epsilon;
}
// * * * * * * * * * * * * * * * * * * * * * * * * * * * * * * * * * * * * * //

dimensions      [0 2 -3 0 0 0 0];


internalField   nonuniform List<scalar> 
14457
(
3.68363e-07
3.8856e-07
4.17658e-07
3.88561e-07
3.88562e-07
3.88572e-07
4.17664e-07
7.84592e-06
1.77224e-06
7.8471e-06
1.77235e-06
3.68364e-07
2.47395e-05
1.31314e-06
2.47353e-05
2.47386e-05
2.63502e-06
2.63562e-06
1.31314e-06
3.73478e-07
6.24874e-07
1.3133e-06
3.73481e-07
6.24902e-07
7.84744e-06
1.77243e-06
3.73483e-07
1.31335e-06
6.24897e-07
2.63585e-06
2.63514e-06
2.47376e-05
7.84654e-06
2.97078e-05
2.94455e-06
7.94035e-06
2.99783e-05
2.96315e-06
1.50165e-05
1.78241e-06
1.24574e-05
1.94678e-06
1.49091e-05
1.25973e-05
1.95672e-06
2.97084e-05
2.94467e-06
7.94155e-06
2.99789e-05
2.96316e-06
1.5017e-05
1.78252e-06
1.94689e-06
1.24579e-05
1.49096e-05
1.95683e-06
1.25979e-05
2.46669e-05
2.46625e-05
2.46654e-05
1.50006e-06
7.66168e-07
8.90279e-06
2.64594e-06
1.49433e-06
8.9729e-06
7.65348e-07
1.50095e-06
7.66351e-07
8.9074e-06
2.64659e-06
1.49526e-06
8.97837e-06
7.65519e-07
3.76309e-06
2.84172e-05
2.84213e-05
3.73119e-06
2.82337e-05
2.97098e-05
2.94507e-06
7.94222e-06
2.99806e-05
2.96344e-06
1.50182e-05
1.78247e-06
1.2458e-05
1.94699e-06
1.25982e-05
1.49107e-05
1.95676e-06
1.50101e-06
7.66387e-07
8.90734e-06
2.64682e-06
8.97823e-06
1.49526e-06
7.65576e-07
1.49999e-06
7.66176e-07
8.90235e-06
2.6461e-06
7.65345e-07
1.49432e-06
8.9731e-06
3.76269e-06
2.84221e-05
2.84179e-05
3.73142e-06
2.82298e-05
2.46645e-05
2.9709e-05
2.94463e-06
7.94156e-06
2.96287e-06
2.99772e-05
3.65618e-07
3.65617e-07
3.64892e-07
6.72038e-07
4.8996e-07
4.89989e-07
4.13869e-07
6.72267e-07
4.87181e-07
4.8721e-07
6.72044e-07
4.90002e-07
4.8996e-07
4.13876e-07
4.87183e-07
6.7227e-07
4.87225e-07
3.65618e-07
3.65618e-07
3.64892e-07
4.83227e-07
5.81051e-07
7.77669e-07
1.31782e-06
4.87004e-07
5.78442e-07
7.75849e-07
4.8323e-07
5.81052e-07
7.77668e-07
7.75885e-07
4.87001e-07
5.7845e-07
4.44522e-07
6.25149e-07
6.56882e-07
4.34689e-07
6.56656e-07
4.47649e-07
4.31953e-07
4.83249e-07
5.81124e-07
7.77694e-07
1.318e-06
7.75917e-07
4.87027e-07
5.78516e-07
4.44536e-07
6.25177e-07
6.56913e-07
4.34699e-07
6.56685e-07
4.47666e-07
4.31963e-07
4.83268e-07
5.81146e-07
7.77748e-07
1.31803e-06
4.87043e-07
7.75945e-07
5.78538e-07
4.44546e-07
6.25184e-07
4.34702e-07
6.56921e-07
4.47672e-07
6.56692e-07
4.95567e-07
4.97331e-07
4.97332e-07
4.99575e-07
4.45573e-07
4.53736e-07
4.53738e-07
4.63711e-07
5.06417e-07
5.05584e-07
5.05582e-07
5.06417e-07
5.05583e-07
5.05583e-07
5.09649e-07
5.09649e-07
5.09649e-07
5.09649e-07
5.05584e-07
5.05584e-07
5.06417e-07
5.05584e-07
5.05583e-07
5.06418e-07
4.99575e-07
4.67236e-07
4.97331e-07
4.97335e-07
4.63714e-07
4.63722e-07
4.99575e-07
4.67237e-07
4.97335e-07
4.97335e-07
4.63717e-07
4.63724e-07
4.97332e-07
4.63709e-07
4.63716e-07
4.99575e-07
4.67239e-07
4.97334e-07
4.6371e-07
4.63719e-07
4.67243e-07
4.63708e-07
4.53738e-07
4.53747e-07
4.63709e-07
4.53744e-07
4.53749e-07
4.53743e-07
4.6371e-07
4.53745e-07
5.35663e-07
5.35601e-07
5.35655e-07
5.35655e-07
5.34573e-07
5.35516e-07
5.33634e-07
5.35655e-07
5.34573e-07
5.35516e-07
5.35655e-07
5.33634e-07
5.35256e-07
5.35987e-07
5.35987e-07
1.10717e-06
3.88074e-06
9.33915e-07
4.60575e-06
1.26086e-05
1.66016e-05
1.10712e-06
3.88125e-06
9.3393e-07
4.60632e-06
4.95567e-07
4.95567e-07
4.95567e-07
4.57231e-07
4.57231e-07
4.57232e-07
4.57232e-07
5.43136e-07
1.22024e-06
4.95565e-07
4.85522e-07
5.25345e-07
1.20948e-06
4.82301e-07
1.26098e-05
1.66031e-05
5.43156e-07
4.95565e-07
1.22026e-06
4.85523e-07
5.25333e-07
4.82301e-07
1.2095e-06
2.52183e-06
2.52237e-06
4.84192e-07
2.37257e-06
2.37281e-06
1.43088e-06
5.59306e-06
1.32968e-06
6.13593e-06
2.12849e-05
2.31112e-05
1.43097e-06
5.59378e-06
1.3298e-06
6.13672e-06
4.45573e-07
4.45573e-07
4.45573e-07
5.87084e-07
1.1948e-06
4.46434e-07
4.44292e-07
5.73801e-07
1.20438e-06
4.3569e-07
2.12869e-05
2.31129e-05
5.87096e-07
4.46435e-07
1.19483e-06
4.44293e-07
5.73811e-07
4.35691e-07
1.20436e-06
2.31178e-06
2.31223e-06
4.53491e-07
2.35338e-06
2.3538e-06
5.35257e-07
5.35989e-07
5.35987e-07
1.09158e-05
5.81316e-07
1.09173e-05
5.81318e-07
5.28206e-07
2.43163e-06
2.43198e-06
5.40832e-07
5.40828e-07
5.34573e-07
5.35517e-07
5.33634e-07
5.35654e-07
5.34573e-07
5.35517e-07
5.33634e-07
5.35654e-07
5.30398e-07
3.47218e-06
5.68205e-07
8.2117e-07
5.30398e-07
3.47235e-06
5.68203e-07
8.21203e-07
5.29522e-07
5.2838e-07
1.16695e-06
5.09601e-07
5.32663e-07
5.28352e-07
5.19213e-07
5.29522e-07
5.2838e-07
1.16695e-06
5.09601e-07
5.32663e-07
5.28352e-07
5.19213e-07
5.35256e-07
5.35988e-07
5.35987e-07
1.09166e-05
5.81317e-07
5.28206e-07
2.43182e-06
2.43194e-06
5.40829e-07
5.4083e-07
1.09169e-05
5.81323e-07
5.34573e-07
5.35517e-07
5.33634e-07
5.35655e-07
5.34573e-07
5.35517e-07
5.35654e-07
5.33634e-07
5.30398e-07
3.47254e-06
5.68202e-07
8.21178e-07
5.29522e-07
5.2838e-07
1.16721e-06
5.09601e-07
5.32663e-07
5.28352e-07
5.19218e-07
5.30398e-07
3.47256e-06
5.68202e-07
8.21101e-07
5.29522e-07
5.2838e-07
5.09601e-07
1.16708e-06
5.28352e-07
5.32663e-07
5.19212e-07
5.35663e-07
5.35601e-07
5.35655e-07
5.35655e-07
5.35663e-07
5.35601e-07
5.35655e-07
5.35655e-07
5.35663e-07
5.35601e-07
5.35655e-07
5.35655e-07
5.28434e-07
5.28376e-07
5.09725e-07
5.09725e-07
5.28408e-07
5.28408e-07
5.09782e-07
5.28434e-07
5.28375e-07
5.09725e-07
5.09725e-07
5.28408e-07
5.28408e-07
5.09782e-07
5.28434e-07
5.28375e-07
5.09725e-07
5.09725e-07
5.28408e-07
5.28408e-07
5.09782e-07
5.28434e-07
5.28375e-07
5.09725e-07
5.09725e-07
5.28408e-07
5.28408e-07
5.09782e-07
5.34573e-07
5.35517e-07
5.35654e-07
5.33634e-07
5.29522e-07
5.2838e-07
1.16707e-06
5.09601e-07
5.32663e-07
5.28352e-07
5.19215e-07
5.30398e-07
3.47243e-06
5.68202e-07
8.21092e-07
5.29522e-07
5.2838e-07
5.09601e-07
1.16704e-06
5.28352e-07
5.32663e-07
5.1921e-07
5.30398e-07
3.4725e-06
5.68201e-07
8.21095e-07
5.35256e-07
5.35987e-07
5.35987e-07
1.09175e-05
5.81323e-07
5.28206e-07
2.432e-06
2.43188e-06
5.40828e-07
5.40829e-07
1.0917e-05
5.81319e-07
5.34573e-07
5.35517e-07
5.35655e-07
5.33633e-07
5.29522e-07
5.2838e-07
5.09601e-07
1.16715e-06
5.28352e-07
5.32663e-07
5.19219e-07
5.29522e-07
5.2838e-07
5.09601e-07
1.1671e-06
5.28352e-07
5.32663e-07
5.19218e-07
5.30398e-07
3.4724e-06
5.68201e-07
8.21225e-07
5.30398e-07
3.47263e-06
5.68202e-07
8.21177e-07
5.28206e-07
2.4318e-06
2.43216e-06
5.40828e-07
5.40828e-07
1.09172e-05
5.81321e-07
1.09176e-05
5.81324e-07
1.26074e-05
1.65995e-05
1.26095e-05
1.66023e-05
2.52169e-06
2.52235e-06
4.84188e-07
2.37225e-06
2.37293e-06
2.05288e-05
1.76843e-05
2.05326e-05
1.76878e-05
4.793e-07
2.30596e-06
2.30667e-06
2.33909e-06
2.33978e-06
1.10722e-06
3.88112e-06
9.33764e-07
4.60639e-06
5.43132e-07
1.22015e-06
4.95565e-07
4.85525e-07
5.2535e-07
1.2094e-06
4.82302e-07
5.43135e-07
1.22028e-06
4.95565e-07
4.85531e-07
5.25345e-07
1.20959e-06
4.82302e-07
1.16096e-06
5.40769e-06
4.80993e-06
1.28045e-06
1.16095e-06
5.40839e-06
4.81072e-06
1.28059e-06
5.50995e-07
4.74298e-07
1.1932e-06
4.57763e-07
1.20471e-06
4.6971e-07
5.66389e-07
5.50998e-07
4.74306e-07
1.19339e-06
4.57764e-07
1.20489e-06
4.69711e-07
5.664e-07
2.52216e-06
2.52212e-06
4.84189e-07
2.37256e-06
2.37268e-06
1.2609e-05
1.66011e-05
2.05317e-05
1.7687e-05
4.793e-07
2.30646e-06
2.30626e-06
2.33962e-06
2.33916e-06
2.05306e-05
1.76861e-05
5.43148e-07
1.22042e-06
4.95565e-07
4.85529e-07
5.25352e-07
1.20967e-06
4.82301e-07
1.10722e-06
3.88148e-06
9.33825e-07
4.60665e-06
5.43143e-07
4.95565e-07
1.22036e-06
4.85533e-07
5.25343e-07
4.82302e-07
1.20965e-06
1.16122e-06
5.40843e-06
4.81064e-06
1.28052e-06
5.51005e-07
4.74304e-07
1.19341e-06
4.57763e-07
1.20496e-06
4.69711e-07
5.66407e-07
1.1611e-06
5.40892e-06
4.81117e-06
1.28047e-06
5.51008e-07
4.74307e-07
4.57764e-07
1.19343e-06
4.69711e-07
1.20497e-06
5.66407e-07
1.1071e-06
3.88112e-06
9.3397e-07
4.60604e-06
5.4313e-07
4.95565e-07
1.22027e-06
4.85526e-07
5.25338e-07
4.82302e-07
1.20954e-06
1.10712e-06
3.88114e-06
9.33782e-07
4.60659e-06
5.51002e-07
4.74298e-07
1.19323e-06
4.57762e-07
1.2047e-06
4.6971e-07
5.66401e-07
1.16121e-06
5.408e-06
4.81039e-06
1.28051e-06
5.51001e-07
4.74301e-07
4.57763e-07
1.19328e-06
4.69711e-07
1.20474e-06
5.66399e-07
1.16109e-06
5.40869e-06
4.81065e-06
1.2805e-06
2.52222e-06
2.52185e-06
4.8419e-07
2.37278e-06
2.37242e-06
1.26089e-05
1.66009e-05
2.05339e-05
1.76883e-05
4.79301e-07
2.30678e-06
2.30633e-06
2.33995e-06
2.33945e-06
2.05314e-05
1.76863e-05
5.43151e-07
4.95565e-07
1.22039e-06
4.8553e-07
5.25337e-07
4.82302e-07
1.20962e-06
1.10725e-06
3.88107e-06
9.33829e-07
4.60591e-06
1.1073e-06
3.8814e-06
9.33826e-07
4.6068e-06
5.50997e-07
4.74299e-07
4.57763e-07
1.19326e-06
4.69711e-07
1.20479e-06
5.66412e-07
5.51013e-07
4.74305e-07
4.57764e-07
1.19342e-06
4.69711e-07
1.20493e-06
5.66419e-07
1.16109e-06
5.40813e-06
4.81035e-06
1.28067e-06
1.16109e-06
5.40905e-06
4.8111e-06
1.2806e-06
1.26091e-05
1.66017e-05
1.26098e-05
1.66029e-05
4.79301e-07
2.30629e-06
2.30668e-06
2.33925e-06
2.33991e-06
2.05316e-05
1.76869e-05
2.05334e-05
1.76887e-05
2.1282e-05
2.31078e-05
2.12859e-05
2.31119e-05
2.31147e-06
2.31223e-06
4.53481e-07
2.35293e-06
2.35357e-06
2.35332e-05
2.35373e-05
4.50881e-07
2.38112e-06
2.38174e-06
1.43113e-06
5.59396e-06
1.32963e-06
6.1368e-06
5.87075e-07
1.1948e-06
4.46434e-07
4.44298e-07
5.73791e-07
1.20432e-06
4.35691e-07
5.87086e-07
1.19496e-06
4.46435e-07
4.44307e-07
5.73802e-07
1.20454e-06
4.35692e-07
1.47472e-06
6.3007e-06
1.47459e-06
6.30175e-06
5.93316e-07
4.35313e-07
1.21238e-06
4.25488e-07
5.93327e-07
4.35322e-07
1.21256e-06
4.2549e-07
2.312e-06
2.31176e-06
4.53483e-07
2.35361e-06
2.35329e-06
2.12838e-05
2.311e-05
2.35365e-05
4.50883e-07
2.38167e-06
2.38123e-06
2.35354e-05
5.87094e-07
1.19497e-06
4.46435e-07
4.44299e-07
5.73814e-07
1.20452e-06
4.35691e-07
1.43068e-06
5.59427e-06
1.32983e-06
6.13717e-06
5.87104e-07
4.46436e-07
1.19501e-06
4.44309e-07
5.73819e-07
4.35693e-07
1.20454e-06
1.47483e-06
6.30169e-06
5.93341e-07
4.35318e-07
1.21254e-06
4.2549e-07
1.47518e-06
6.30225e-06
5.9335e-07
4.35325e-07
4.25492e-07
1.21261e-06
1.43095e-06
5.59352e-06
1.32978e-06
6.13639e-06
5.87091e-07
4.46435e-07
1.19485e-06
4.44301e-07
5.73806e-07
4.35692e-07
1.20443e-06
1.43097e-06
5.59385e-06
1.32976e-06
6.13692e-06
5.9333e-07
4.35311e-07
1.21238e-06
4.25489e-07
1.4748e-06
6.30133e-06
5.93334e-07
4.35318e-07
4.2549e-07
1.21242e-06
1.4748e-06
6.3017e-06
2.3123e-06
2.31185e-06
4.53486e-07
2.35372e-06
2.35318e-06
2.12846e-05
2.31106e-05
2.35387e-05
4.50885e-07
2.38207e-06
2.38133e-06
2.3536e-05
5.87107e-07
4.46436e-07
1.19499e-06
4.44303e-07
5.7382e-07
4.35692e-07
1.20457e-06
1.43101e-06
5.59359e-06
1.32967e-06
6.13646e-06
1.43092e-06
5.5943e-06
1.32972e-06
6.13734e-06
4.35312e-07
1.2124e-06
4.35319e-07
1.21256e-06
6.30153e-06
6.30226e-06
2.12849e-05
2.31113e-05
2.12869e-05
2.31133e-05
4.50886e-07
2.3814e-06
2.3818e-06
2.35367e-05
2.35388e-05
5.33699e-07
5.45748e-07
5.56733e-07
5.33699e-07
5.45745e-07
5.56728e-07
5.56736e-07
5.5673e-07
5.33699e-07
5.45752e-07
5.56729e-07
5.33699e-07
5.45745e-07
5.33699e-07
5.45745e-07
5.33699e-07
5.45746e-07
5.56731e-07
5.33699e-07
5.45748e-07
5.33699e-07
5.45745e-07
5.56728e-07
5.56729e-07
5.35661e-07
5.35661e-07
5.35659e-07
5.35633e-07
5.35633e-07
5.35665e-07
5.35665e-07
5.35647e-07
5.35662e-07
5.35665e-07
5.35647e-07
5.35662e-07
5.33275e-07
5.35212e-07
5.3527e-07
5.35531e-07
5.35502e-07
5.35298e-07
5.34196e-07
5.33455e-07
5.34664e-07
5.35579e-07
5.35626e-07
5.35539e-07
5.35213e-07
5.33275e-07
5.35271e-07
5.35502e-07
5.35532e-07
5.35298e-07
5.35579e-07
5.35626e-07
5.35539e-07
5.34196e-07
5.33455e-07
5.34664e-07
6.56413e-05
6.56357e-05
5.33475e-07
5.34989e-07
5.34983e-07
5.33209e-07
2.00853e-05
5.34068e-07
5.3367e-07
2.00844e-05
5.34067e-07
5.33668e-07
8.34344e-06
1.06457e-06
7.27121e-06
1.22562e-06
6.93342e-06
1.17194e-06
8.79327e-06
1.93221e-05
3.38747e-06
4.1642e-06
1.72417e-05
3.21067e-06
7.88692e-06
9.99544e-07
6.21327e-06
9.99705e-07
7.3949e-06
6.58799e-06
1.08998e-06
2.12063e-05
2.86657e-06
4.38992e-06
3.02069e-06
2.2972e-05
1.41188e-05
1.54017e-05
8.34369e-06
1.06466e-06
1.22561e-06
7.27143e-06
1.17208e-06
6.93362e-06
8.7935e-06
1.93217e-05
3.38746e-06
4.16457e-06
1.72408e-05
3.21084e-06
7.88699e-06
9.99716e-07
9.99685e-07
6.21341e-06
7.39487e-06
1.0901e-06
6.5882e-06
2.1206e-05
2.86694e-06
4.39047e-06
3.02057e-06
2.29724e-05
1.41203e-05
1.54028e-05
2.8703e-06
2.09735e-05
2.09781e-05
1.94472e-05
1.94525e-05
2.84846e-06
9.85884e-07
6.55279e-07
4.85893e-06
2.4974e-06
9.19007e-07
6.8201e-07
5.1355e-06
9.86764e-07
6.55562e-07
4.86068e-06
2.49788e-06
9.19924e-07
6.82301e-07
5.13729e-06
2.90687e-06
1.60054e-05
1.60093e-05
2.93185e-06
1.78335e-05
1.78373e-05
1.04191e-06
5.60832e-06
2.43799e-06
7.12868e-07
7.02517e-07
5.38001e-06
1.07435e-06
1.04292e-06
5.61047e-06
2.43864e-06
7.13174e-07
7.02842e-07
5.38232e-06
1.07519e-06
1.16598e-05
1.40527e-06
9.73495e-06
1.59083e-06
9.45054e-06
1.56302e-06
1.2018e-05
3.00404e-05
2.63578e-06
5.78136e-06
2.92746e-05
2.63356e-06
1.12928e-05
1.35873e-06
8.86237e-06
1.48086e-06
1.09031e-05
9.16276e-06
1.513e-06
3.06383e-05
2.64769e-06
5.95719e-06
2.63966e-06
3.11043e-05
2.19886e-05
2.2572e-05
1.16602e-05
1.4054e-06
1.59117e-06
9.73542e-06
1.56305e-06
9.45094e-06
1.20186e-05
3.00398e-05
2.63572e-06
5.78225e-06
2.92746e-05
2.63352e-06
1.1293e-05
1.35881e-06
1.48085e-06
8.86274e-06
1.09035e-05
1.51301e-06
9.16319e-06
3.06383e-05
2.6478e-06
5.95806e-06
2.63984e-06
3.11049e-05
2.1991e-05
2.2574e-05
3.12571e-06
2.8377e-05
2.83833e-05
2.78718e-05
2.78787e-05
3.16891e-06
1.24379e-06
7.47017e-07
6.68735e-06
2.32019e-06
1.22732e-06
7.4912e-07
6.88402e-06
1.24464e-06
7.47287e-07
6.6908e-06
2.32049e-06
1.22818e-06
7.4937e-07
6.88715e-06
3.05902e-06
2.65446e-05
2.65517e-05
3.01803e-06
2.72879e-05
2.72938e-05
1.27496e-06
7.26027e-06
2.34024e-06
7.55051e-07
7.53602e-07
7.07728e-06
1.28913e-06
1.27577e-06
7.26386e-06
2.34063e-06
7.55293e-07
7.53857e-07
7.08089e-06
1.29007e-06
6.56375e-05
6.56413e-05
5.33475e-07
5.34989e-07
5.34983e-07
5.33209e-07
2.00846e-05
5.34068e-07
5.33671e-07
2.00845e-05
5.34068e-07
5.33668e-07
1.83601e-06
1.08081e-06
1.83628e-06
1.0808e-06
4.83737e-07
6.77565e-05
6.77505e-05
5.34985e-07
3.77475e-05
3.77475e-05
5.17956e-07
5.20581e-07
5.28909e-07
5.2892e-07
5.29345e-07
5.19667e-07
5.19653e-07
6.18499e-07
6.06298e-07
1.7749e-06
4.54048e-06
4.06807e-06
5.65552e-07
7.91957e-07
6.18692e-07
6.06513e-07
1.77499e-06
4.5418e-06
4.06851e-06
5.65635e-07
7.92594e-07
5.12437e-07
7.90282e-06
5.29691e-07
5.88008e-07
5.299e-07
1.12085e-05
5.20859e-07
5.12429e-07
7.90278e-06
5.29692e-07
5.87977e-07
5.29903e-07
1.12094e-05
5.20861e-07
1.32576e-06
1.40286e-05
1.40313e-05
3.72895e-05
3.72907e-05
2.83312e-06
5.33275e-07
5.35212e-07
5.35271e-07
5.35534e-07
5.35502e-07
5.35299e-07
5.34196e-07
5.33456e-07
5.34664e-07
5.35579e-07
5.35626e-07
5.35539e-07
5.33275e-07
5.35212e-07
5.3527e-07
5.35535e-07
5.35502e-07
5.35299e-07
5.34196e-07
5.33456e-07
5.34664e-07
5.35579e-07
5.35625e-07
5.35539e-07
4.3083e-05
2.37479e-05
5.3052e-07
5.18928e-07
1.37816e-05
5.17644e-07
1.22458e-05
3.5616e-06
1.54654e-05
3.19547e-06
5.31914e-07
3.93439e-07
5.03857e-07
4.3507e-05
6.4034e-07
5.74721e-06
8.61452e-07
7.13689e-06
5.35832e-06
6.93696e-07
4.30909e-05
2.37478e-05
5.3052e-07
5.18928e-07
1.37808e-05
5.17635e-07
1.22457e-05
3.56097e-06
3.19706e-06
1.5468e-05
5.31914e-07
3.93411e-07
5.03867e-07
4.35092e-05
6.40321e-07
5.74733e-06
8.62004e-07
5.35824e-06
6.93686e-07
7.13688e-06
5.20416e-07
5.29413e-07
5.28206e-07
5.1849e-07
5.28534e-07
5.17993e-07
5.20541e-07
5.20629e-07
5.20593e-07
5.28059e-07
5.2851e-07
5.2101e-07
5.28229e-07
5.20545e-07
5.18541e-07
5.29121e-07
5.29381e-07
5.3201e-07
5.18373e-07
5.29564e-07
5.21045e-07
5.20717e-07
5.28313e-07
5.28359e-07
5.20885e-07
5.2831e-07
5.20748e-07
5.20844e-07
5.20415e-07
5.29413e-07
5.28206e-07
5.18491e-07
5.28535e-07
5.17993e-07
5.20541e-07
5.20628e-07
5.20592e-07
5.28057e-07
5.28511e-07
5.2823e-07
5.21013e-07
5.20544e-07
5.18539e-07
5.29121e-07
5.29381e-07
5.32002e-07
5.29564e-07
5.21047e-07
5.18372e-07
5.20717e-07
5.28313e-07
5.28359e-07
5.20885e-07
5.2831e-07
5.20748e-07
5.20844e-07
6.56451e-05
6.56424e-05
5.33476e-07
5.34993e-07
5.34979e-07
5.33209e-07
2.00849e-05
5.34068e-07
5.33671e-07
2.00849e-05
5.34067e-07
5.33668e-07
1.83606e-06
1.08077e-06
4.83733e-07
6.77588e-05
6.77599e-05
5.34988e-07
3.77476e-05
3.77496e-05
5.17956e-07
5.20581e-07
5.28902e-07
5.28929e-07
5.19676e-07
5.29345e-07
5.19642e-07
6.18416e-07
6.06458e-07
1.77489e-06
4.54134e-06
5.65492e-07
4.06819e-06
7.92513e-07
6.18752e-07
6.06348e-07
1.77545e-06
4.54109e-06
4.06842e-06
5.65708e-07
7.92053e-07
5.12432e-07
7.90295e-06
5.29691e-07
5.87995e-07
5.20859e-07
5.29901e-07
1.12088e-05
5.12432e-07
7.90301e-06
5.29692e-07
5.87987e-07
5.29904e-07
1.12094e-05
5.20863e-07
1.32581e-06
1.40291e-05
1.40307e-05
3.72895e-05
3.72908e-05
2.83324e-06
1.83626e-06
1.08084e-06
5.33275e-07
5.35212e-07
5.3527e-07
5.35533e-07
5.35502e-07
5.35298e-07
5.34196e-07
5.33456e-07
5.34664e-07
5.35579e-07
5.35626e-07
5.35539e-07
5.35212e-07
5.33275e-07
5.3527e-07
5.35502e-07
5.35535e-07
5.35299e-07
5.35579e-07
5.35626e-07
5.35539e-07
5.34196e-07
5.33456e-07
5.34664e-07
4.30833e-05
5.3052e-07
2.37481e-05
5.18928e-07
5.17654e-07
1.37811e-05
1.22459e-05
3.56145e-06
1.54652e-05
3.19561e-06
5.31914e-07
3.93345e-07
5.03834e-07
4.35061e-05
6.40394e-07
8.61503e-07
5.74733e-06
7.13705e-06
6.93717e-07
5.35837e-06
5.20415e-07
5.29413e-07
5.28206e-07
5.18488e-07
5.28534e-07
5.17993e-07
5.20541e-07
5.20628e-07
5.20592e-07
5.2806e-07
5.28511e-07
5.21009e-07
5.2823e-07
5.20544e-07
5.18539e-07
5.2912e-07
5.29381e-07
5.31999e-07
5.18374e-07
5.29564e-07
5.21045e-07
5.20717e-07
5.28313e-07
5.28359e-07
5.20885e-07
5.2831e-07
5.20748e-07
5.20844e-07
4.30908e-05
2.37486e-05
5.30521e-07
5.18929e-07
1.37802e-05
5.17632e-07
1.22461e-05
3.56097e-06
3.19718e-06
1.54684e-05
5.31915e-07
3.93414e-07
5.0388e-07
4.35094e-05
6.40317e-07
5.7475e-06
8.62053e-07
5.35838e-06
6.93696e-07
7.13719e-06
5.20415e-07
5.28206e-07
5.29413e-07
5.18491e-07
5.28534e-07
5.20541e-07
5.17993e-07
5.20628e-07
5.20592e-07
5.28511e-07
5.28057e-07
5.2823e-07
5.20544e-07
5.21013e-07
5.20717e-07
5.28313e-07
5.28359e-07
5.20885e-07
5.2831e-07
5.20748e-07
5.20844e-07
5.18539e-07
5.29121e-07
5.29381e-07
5.32011e-07
5.29564e-07
5.21048e-07
5.18373e-07
5.35661e-07
5.35661e-07
5.35659e-07
5.35633e-07
5.35633e-07
5.35665e-07
5.35665e-07
5.35647e-07
5.35662e-07
5.35665e-07
5.35647e-07
5.35662e-07
5.35661e-07
5.35661e-07
5.35659e-07
5.35633e-07
5.35633e-07
5.35665e-07
5.35665e-07
5.35647e-07
5.35662e-07
5.35665e-07
5.35647e-07
5.35662e-07
5.35661e-07
5.35661e-07
5.35659e-07
5.35633e-07
5.35633e-07
5.35665e-07
5.35665e-07
5.35647e-07
5.35662e-07
5.35665e-07
5.35647e-07
5.35662e-07
5.20933e-07
5.28433e-07
5.28433e-07
5.20956e-07
5.28432e-07
5.20945e-07
5.20945e-07
5.20928e-07
5.20786e-07
5.28392e-07
5.28392e-07
5.28386e-07
5.20858e-07
5.20858e-07
5.2093e-07
5.28415e-07
5.28406e-07
5.20903e-07
5.28412e-07
5.20881e-07
5.20945e-07
5.2093e-07
5.28415e-07
5.28406e-07
5.20903e-07
5.28412e-07
5.20881e-07
5.20945e-07
5.20933e-07
5.28433e-07
5.28433e-07
5.20956e-07
5.28432e-07
5.20945e-07
5.20945e-07
5.20928e-07
5.20786e-07
5.28392e-07
5.28391e-07
5.20858e-07
5.28386e-07
5.20858e-07
5.2093e-07
5.28415e-07
5.28406e-07
5.20903e-07
5.20881e-07
5.28412e-07
5.20945e-07
5.2093e-07
5.28415e-07
5.28406e-07
5.20903e-07
5.28412e-07
5.20945e-07
5.20881e-07
5.20933e-07
5.28433e-07
5.28433e-07
5.20956e-07
5.28432e-07
5.20945e-07
5.20945e-07
5.20928e-07
5.20786e-07
5.28392e-07
5.28392e-07
5.20858e-07
5.28386e-07
5.20858e-07
5.2093e-07
5.28415e-07
5.28406e-07
5.20903e-07
5.20881e-07
5.28412e-07
5.20945e-07
5.2093e-07
5.28415e-07
5.28406e-07
5.20903e-07
5.28412e-07
5.20945e-07
5.20882e-07
5.20933e-07
5.28433e-07
5.28433e-07
5.20956e-07
5.28432e-07
5.20945e-07
5.20945e-07
5.20928e-07
5.20786e-07
5.28392e-07
5.28392e-07
5.28386e-07
5.20858e-07
5.20858e-07
5.2093e-07
5.28415e-07
5.28406e-07
5.20903e-07
5.28412e-07
5.20945e-07
5.20881e-07
5.2093e-07
5.28415e-07
5.28406e-07
5.20903e-07
5.28412e-07
5.20945e-07
5.20881e-07
5.35212e-07
5.33275e-07
5.3527e-07
5.35502e-07
5.35534e-07
5.35299e-07
5.35579e-07
5.35626e-07
5.35539e-07
5.34196e-07
5.33456e-07
5.34664e-07
5.20415e-07
5.29413e-07
5.28206e-07
5.18488e-07
5.28534e-07
5.17993e-07
5.20541e-07
5.20628e-07
5.20592e-07
5.28063e-07
5.2851e-07
5.2823e-07
5.21006e-07
5.20545e-07
5.18539e-07
5.29121e-07
5.29381e-07
5.31996e-07
5.29564e-07
5.18374e-07
5.21045e-07
5.20717e-07
5.28313e-07
5.28359e-07
5.20885e-07
5.2831e-07
5.20844e-07
5.20748e-07
4.3083e-05
5.30521e-07
2.37478e-05
5.18929e-07
5.17651e-07
1.37809e-05
1.22461e-05
3.56141e-06
3.19545e-06
1.54665e-05
5.31916e-07
3.93366e-07
5.03829e-07
4.35063e-05
6.40427e-07
8.61434e-07
5.74731e-06
6.93721e-07
5.35842e-06
7.13717e-06
5.20415e-07
5.28206e-07
5.29413e-07
5.18491e-07
5.28534e-07
5.20541e-07
5.17993e-07
5.20628e-07
5.20592e-07
5.28511e-07
5.28059e-07
5.20544e-07
5.2823e-07
5.2101e-07
5.20717e-07
5.28313e-07
5.28359e-07
5.20885e-07
5.20844e-07
5.2831e-07
5.20748e-07
5.18539e-07
5.29121e-07
5.29381e-07
5.32014e-07
5.29564e-07
5.21048e-07
5.18373e-07
4.30905e-05
2.37485e-05
5.30521e-07
5.1893e-07
1.37802e-05
5.1763e-07
1.22463e-05
3.56074e-06
3.19727e-06
1.54677e-05
5.31914e-07
3.93425e-07
5.03894e-07
4.35088e-05
6.40308e-07
5.74737e-06
8.61928e-07
5.35844e-06
6.93683e-07
7.13684e-06
6.5636e-05
6.5635e-05
5.33475e-07
5.34993e-07
5.34979e-07
5.33209e-07
2.00837e-05
5.34068e-07
5.3367e-07
2.00842e-05
5.34067e-07
5.33669e-07
1.83622e-06
1.08083e-06
4.83745e-07
6.77563e-05
6.77488e-05
5.34986e-07
3.77455e-05
3.77461e-05
5.17956e-07
5.20581e-07
5.28903e-07
5.28928e-07
5.19675e-07
5.29345e-07
5.19643e-07
6.18432e-07
6.0647e-07
1.77501e-06
4.54129e-06
5.65503e-07
4.06814e-06
7.92531e-07
6.18773e-07
6.06355e-07
1.77523e-06
4.54096e-06
4.06836e-06
5.65703e-07
7.92009e-07
5.12434e-07
7.90292e-06
5.29691e-07
5.87997e-07
5.20859e-07
5.299e-07
1.12088e-05
5.12436e-07
7.90268e-06
5.29692e-07
5.87986e-07
5.29903e-07
1.12085e-05
5.20862e-07
1.3258e-06
1.40293e-05
1.40304e-05
3.72876e-05
3.72898e-05
2.83293e-06
1.83628e-06
1.08083e-06
5.35212e-07
5.33275e-07
5.3527e-07
5.35502e-07
5.35533e-07
5.35298e-07
5.35579e-07
5.35626e-07
5.35539e-07
5.34196e-07
5.33456e-07
5.34664e-07
5.20416e-07
5.28205e-07
5.29413e-07
5.18488e-07
5.28534e-07
5.20542e-07
5.17993e-07
5.20628e-07
5.20592e-07
5.28511e-07
5.28063e-07
5.2823e-07
5.20545e-07
5.21007e-07
5.20717e-07
5.28313e-07
5.28359e-07
5.20885e-07
5.2831e-07
5.20844e-07
5.20748e-07
5.18539e-07
5.29121e-07
5.29381e-07
5.32002e-07
5.29564e-07
5.18374e-07
5.21045e-07
5.20413e-07
5.28206e-07
5.29413e-07
5.18489e-07
5.28536e-07
5.20541e-07
5.17993e-07
5.20628e-07
5.20592e-07
5.28511e-07
5.2806e-07
5.20544e-07
5.2823e-07
5.21009e-07
5.20717e-07
5.28313e-07
5.28359e-07
5.20885e-07
5.20844e-07
5.2831e-07
5.20748e-07
5.18538e-07
5.29121e-07
5.29381e-07
5.32016e-07
5.29564e-07
5.21047e-07
5.18374e-07
4.3083e-05
5.30521e-07
2.37478e-05
5.18928e-07
5.17653e-07
1.3781e-05
1.22471e-05
3.56149e-06
3.19555e-06
1.54657e-05
5.31914e-07
3.93372e-07
5.03832e-07
4.35063e-05
6.40389e-07
8.61457e-07
5.74737e-06
6.93719e-07
5.35839e-06
7.13713e-06
4.30919e-05
5.30521e-07
2.37483e-05
5.18929e-07
5.17638e-07
1.37802e-05
1.2246e-05
3.56077e-06
3.19723e-06
1.54677e-05
5.31914e-07
3.93443e-07
5.03877e-07
4.3507e-05
6.40384e-07
8.61896e-07
5.74737e-06
6.93718e-07
5.35832e-06
7.13674e-06
4.83737e-07
6.77552e-05
6.77481e-05
5.34986e-07
3.77453e-05
3.77476e-05
5.17956e-07
5.20581e-07
5.2891e-07
5.28921e-07
5.29345e-07
5.19666e-07
5.19652e-07
6.18539e-07
6.06317e-07
1.7752e-06
4.54068e-06
7.91966e-07
5.65587e-07
4.06804e-06
6.1868e-07
6.06507e-07
1.77529e-06
4.5418e-06
7.92579e-07
5.65636e-07
4.06846e-06
5.12437e-07
7.90286e-06
5.29692e-07
5.88012e-07
5.29901e-07
5.20861e-07
1.12085e-05
5.12429e-07
7.90265e-06
5.29692e-07
5.88004e-07
5.29903e-07
5.20862e-07
1.12087e-05
1.32584e-06
1.40287e-05
1.40312e-05
2.83315e-06
3.72886e-05
3.7291e-05
1.83616e-06
1.08085e-06
1.8362e-06
1.08088e-06
1.41176e-05
1.54e-05
1.41198e-05
1.54025e-05
2.87039e-06
2.09724e-05
2.0978e-05
1.94478e-05
1.94526e-05
2.84832e-06
9.85829e-07
6.55241e-07
4.85913e-06
2.4973e-06
9.19013e-07
5.13521e-06
6.81988e-07
9.86773e-07
6.55525e-07
4.86075e-06
2.49794e-06
9.19903e-07
5.13731e-06
6.82312e-07
2.90669e-06
1.6006e-05
1.60097e-05
2.93175e-06
1.78324e-05
1.78374e-05
1.04194e-06
5.608e-06
2.43795e-06
7.12839e-07
5.38026e-06
1.07437e-06
7.02486e-07
1.04288e-06
5.61044e-06
2.43844e-06
7.13168e-07
5.38244e-06
1.07521e-06
7.02815e-07
1.96524e-05
1.87277e-05
1.96559e-05
1.87309e-05
2.87678e-06
2.23338e-05
2.23394e-05
2.85599e-06
2.36057e-05
2.36116e-05
1.17443e-06
7.40958e-07
2.30593e-06
6.48076e-06
6.27357e-06
7.37737e-07
1.19375e-06
1.17532e-06
7.41265e-07
2.30663e-06
6.48412e-06
6.27628e-06
7.38028e-07
1.19446e-06
1.13828e-06
5.8363e-06
7.24291e-07
2.31523e-06
1.11488e-06
6.05494e-06
7.29694e-07
1.13903e-06
5.8388e-06
7.24627e-07
2.31577e-06
1.11587e-06
6.05774e-06
7.30012e-07
2.92427e-06
2.57107e-05
2.57171e-05
2.4707e-05
2.47128e-05
2.95728e-06
8.34462e-06
1.06443e-06
7.27138e-06
1.22615e-06
6.93351e-06
1.1724e-06
8.79468e-06
1.93245e-05
3.38663e-06
4.16463e-06
1.72444e-05
3.20941e-06
7.88781e-06
9.99591e-07
6.21339e-06
1.00018e-06
6.58814e-06
7.3953e-06
1.09066e-06
2.12095e-05
2.86549e-06
4.39063e-06
3.02001e-06
2.29749e-05
9.66913e-06
7.60099e-06
1.28902e-06
1.1968e-06
9.23323e-06
7.92729e-06
1.33221e-06
2.72638e-05
5.21062e-06
2.64786e-06
2.83689e-05
2.6805e-06
2.60132e-05
2.78573e-06
5.01587e-06
2.4557e-05
2.7153e-06
1.00905e-05
1.24794e-06
8.55868e-06
1.42718e-06
1.0506e-05
8.24461e-06
1.39012e-06
9.67078e-06
7.60118e-06
1.28949e-06
1.1969e-06
9.23479e-06
7.92752e-06
1.33267e-06
2.7267e-05
5.2114e-06
2.6474e-06
2.68023e-06
2.83712e-05
2.60161e-05
2.78542e-06
5.01663e-06
2.45604e-05
2.71449e-06
1.00923e-05
1.24792e-06
8.55894e-06
1.42754e-06
8.24483e-06
1.39049e-06
1.05077e-05
2.8706e-06
2.09764e-05
2.09748e-05
1.94508e-05
1.94502e-05
2.84851e-06
9.86864e-07
6.55576e-07
4.8606e-06
2.49757e-06
5.13721e-06
9.20037e-07
6.82349e-07
9.8582e-07
6.5523e-07
4.85913e-06
2.49758e-06
6.81962e-07
9.18894e-07
5.13544e-06
2.90687e-06
1.60071e-05
1.60082e-05
1.78348e-05
2.93181e-06
1.78349e-05
1.04307e-06
5.61042e-06
2.43835e-06
7.13212e-07
5.3825e-06
7.02856e-07
1.0754e-06
1.0418e-06
5.60819e-06
2.4381e-06
7.12829e-07
7.02448e-07
5.38019e-06
1.07433e-06
1.41189e-05
1.54015e-05
1.96551e-05
1.87306e-05
2.87696e-06
2.23379e-05
2.2336e-05
2.85617e-06
2.36104e-05
2.36074e-05
1.17547e-06
7.4129e-07
2.30642e-06
6.4841e-06
7.38076e-07
6.27654e-06
1.19464e-06
1.17439e-06
7.40952e-07
2.30621e-06
6.48102e-06
6.27348e-06
7.37719e-07
1.19361e-06
1.13923e-06
5.83899e-06
7.24658e-07
2.31576e-06
7.30052e-07
1.11597e-06
6.05773e-06
1.13814e-06
5.8362e-06
7.24268e-07
2.31562e-06
1.11481e-06
6.05505e-06
7.29689e-07
2.92457e-06
2.57163e-05
2.57125e-05
2.47119e-05
2.47086e-05
2.95717e-06
1.96541e-05
1.87294e-05
8.34455e-06
1.06455e-06
7.27172e-06
1.22611e-06
6.93371e-06
1.17244e-06
8.79493e-06
1.93248e-05
3.38657e-06
4.16484e-06
1.72439e-05
3.20979e-06
7.88801e-06
9.9962e-07
6.21343e-06
1.00009e-06
6.58837e-06
7.39512e-06
1.09069e-06
2.1209e-05
2.86574e-06
4.39089e-06
3.01985e-06
2.29749e-05
9.6694e-06
1.28918e-06
7.60128e-06
1.19667e-06
9.23346e-06
1.33231e-06
7.92756e-06
2.72638e-05
5.21125e-06
2.64812e-06
2.83694e-05
2.6804e-06
2.60132e-05
2.78572e-06
5.01645e-06
2.45569e-05
2.71526e-06
1.00908e-05
1.24818e-06
1.42743e-06
8.55911e-06
1.05065e-05
1.39014e-06
8.24492e-06
9.67089e-06
7.6014e-06
1.28942e-06
1.19672e-06
9.23463e-06
7.92781e-06
1.33264e-06
2.7266e-05
5.21182e-06
2.64773e-06
2.68014e-06
2.83716e-05
2.60156e-05
2.7853e-06
5.01682e-06
2.45594e-05
2.7146e-06
1.00921e-05
1.24818e-06
8.55932e-06
1.42753e-06
8.24506e-06
1.39043e-06
1.0508e-05
8.34314e-06
1.06466e-06
1.22557e-06
7.2714e-06
1.17193e-06
6.93358e-06
8.7933e-06
1.93228e-05
3.38753e-06
4.16436e-06
3.21087e-06
1.72398e-05
7.88695e-06
9.99594e-07
9.99653e-07
6.21337e-06
1.09006e-06
7.3945e-06
6.58813e-06
2.12038e-05
2.86707e-06
4.39032e-06
3.02012e-06
2.29729e-05
8.34443e-06
1.06452e-06
7.27143e-06
1.22598e-06
6.93366e-06
1.17247e-06
8.79435e-06
1.93241e-05
3.38659e-06
4.16479e-06
1.72435e-05
3.20946e-06
7.88763e-06
9.99522e-07
6.21347e-06
1.00017e-06
7.39506e-06
6.58817e-06
1.09056e-06
2.12084e-05
2.86558e-06
4.39049e-06
3.01988e-06
2.29741e-05
9.66925e-06
1.28913e-06
7.60127e-06
1.19664e-06
9.23295e-06
1.33217e-06
7.92753e-06
2.72616e-05
5.21092e-06
2.6479e-06
2.68051e-06
2.83695e-05
2.60135e-05
2.7856e-06
5.01611e-06
2.45549e-05
2.71518e-06
1.00903e-05
1.24816e-06
1.42727e-06
8.55908e-06
1.39016e-06
8.24492e-06
1.05063e-05
9.67051e-06
7.60141e-06
1.28947e-06
1.19675e-06
9.23452e-06
7.9276e-06
1.33258e-06
2.72657e-05
5.21132e-06
2.64737e-06
2.68016e-06
2.83707e-05
2.60151e-05
2.78514e-06
5.01669e-06
2.45588e-05
2.71473e-06
1.0092e-05
1.24814e-06
8.55903e-06
1.42749e-06
8.24501e-06
1.3905e-06
1.05076e-05
2.87017e-06
2.09764e-05
2.09741e-05
1.94511e-05
1.94495e-05
2.84841e-06
9.86936e-07
6.55594e-07
4.86054e-06
2.49787e-06
5.13734e-06
9.19997e-07
6.82374e-07
9.85771e-07
6.55197e-07
4.85908e-06
2.49754e-06
6.81956e-07
9.1885e-07
5.13529e-06
2.90679e-06
1.60078e-05
1.60077e-05
1.78354e-05
2.93176e-06
1.78343e-05
1.04294e-06
5.61044e-06
2.43842e-06
7.13222e-07
5.3823e-06
7.02875e-07
1.07537e-06
1.04175e-06
5.60798e-06
2.43799e-06
7.12804e-07
7.02434e-07
5.38009e-06
1.07429e-06
1.4119e-05