/*--------------------------------*- C++ -*----------------------------------*\
| =========                 |                                                 |
| \\      /  F ield         | OpenFOAM: The Open Source CFD Toolbox           |
|  \\    /   O peration     | Version:  v2006                                 |
|   \\  /    A nd           | Website:  www.openfoam.com                      |
|    \\/     M anipulation  |                                                 |
\*---------------------------------------------------------------------------*/
FoamFile
{
    version     2.0;
    format      ascii;
    class       volScalarField;
    location    "500";
    object      k;
}
// * * * * * * * * * * * * * * * * * * * * * * * * * * * * * * * * * * * * * //

dimensions      [0 2 -2 0 0 0 0];


internalField   nonuniform List<scalar> 
14457
(
3.05346e-05
3.02292e-05
2.99886e-05
3.02291e-05
3.02291e-05
3.02289e-05
2.99885e-05
6.43501e-05
3.13507e-05
6.43522e-05
3.13505e-05
3.05346e-05
8.46129e-05
2.91414e-05
8.46119e-05
8.4613e-05
2.99416e-05
2.99405e-05
2.91422e-05
3.04694e-05
2.94131e-05
2.91416e-05
3.04694e-05
2.94129e-05
6.43522e-05
3.13503e-05
3.04693e-05
2.91416e-05
2.94127e-05
2.99412e-05
2.99404e-05
8.46133e-05
6.435e-05
8.56081e-05
2.87124e-05
6.48652e-05
8.6127e-05
2.89178e-05
8.05288e-05
3.11059e-05
7.66795e-05
3.05891e-05
8.01443e-05
7.72526e-05
3.03658e-05
8.56085e-05
2.86972e-05
6.48675e-05
8.61273e-05
2.89315e-05
8.05296e-05
3.11058e-05
3.05886e-05
7.66804e-05
8.01452e-05
3.03654e-05
7.72538e-05
8.44472e-05
8.44458e-05
8.44462e-05
2.9955e-05
2.80973e-05
6.81243e-05
2.99597e-05
3.0195e-05
6.84815e-05
2.78097e-05
2.99519e-05
2.80951e-05
6.8134e-05
2.99591e-05
3.01921e-05
6.84954e-05
2.78069e-05
3.18338e-05
8.61475e-05
8.61496e-05
3.16328e-05
8.57701e-05
8.56084e-05
2.8696e-05
6.48692e-05
8.61278e-05
2.89126e-05
8.05312e-05
3.11048e-05
7.66805e-05
3.05864e-05
7.72545e-05
8.01463e-05
3.0363e-05
2.99521e-05
2.80949e-05
6.81338e-05
2.99596e-05
6.84948e-05
3.01918e-05
2.78069e-05
2.99544e-05
2.8097e-05
6.81223e-05
2.99589e-05
2.78096e-05
3.01947e-05
6.84827e-05
3.18252e-05
8.61505e-05
8.61486e-05
3.16318e-05
8.5768e-05
8.44465e-05
8.56112e-05
2.86781e-05
6.48683e-05
2.89123e-05
8.61256e-05
3.05893e-05
3.05893e-05
3.06009e-05
2.87583e-05
2.94251e-05
2.94246e-05
2.98207e-05
2.90376e-05
2.92055e-05
2.92048e-05
2.87582e-05
2.94244e-05
2.94251e-05
2.98206e-05
2.92054e-05
2.90375e-05
2.92047e-05
3.05893e-05
3.05893e-05
3.06009e-05
2.88696e-05
2.87006e-05
2.72823e-05
2.89458e-05
2.90704e-05
2.84565e-05
2.70149e-05
2.88693e-05
2.87009e-05
2.72868e-05
2.70135e-05
2.90713e-05
2.84566e-05
2.95092e-05
2.9136e-05
2.87555e-05
3.00187e-05
2.84685e-05
2.97072e-05
2.98171e-05
2.88693e-05
2.86999e-05
2.72846e-05
2.89459e-05
2.7015e-05
2.90704e-05
2.84554e-05
2.95092e-05
2.91358e-05
2.8755e-05
3.00186e-05
2.84686e-05
2.97069e-05
2.9817e-05
2.88691e-05
2.86996e-05
2.72839e-05
2.89459e-05
2.90701e-05
2.70145e-05
2.84554e-05
2.95087e-05
2.91354e-05
3.00185e-05
2.87541e-05
2.97066e-05
2.84676e-05
3.58932e-05
3.58911e-05
3.58911e-05
3.59957e-05
3.39296e-05
3.3889e-05
3.3889e-05
3.39623e-05
3.63068e-05
3.6291e-05
3.6291e-05
3.63068e-05
3.6291e-05
3.6291e-05
3.6423e-05
3.6423e-05
3.6423e-05
3.6423e-05
3.6291e-05
3.6291e-05
3.63068e-05
3.6291e-05
3.6291e-05
3.63068e-05
3.59957e-05
3.42687e-05
3.58912e-05
3.58912e-05
3.43766e-05
3.43766e-05
3.59957e-05
3.42687e-05
3.58911e-05
3.58912e-05
3.43767e-05
3.43766e-05
3.58912e-05
3.43767e-05
3.43766e-05
3.59957e-05
3.42687e-05
3.58912e-05
3.43767e-05
3.43767e-05
3.42687e-05
3.39623e-05
3.3889e-05
3.38889e-05
3.39622e-05
3.38889e-05
3.38889e-05
3.38889e-05
3.39623e-05
3.38889e-05
3.73773e-05
3.73765e-05
3.7377e-05
3.7377e-05
3.73701e-05
3.73777e-05
3.73043e-05
3.73768e-05
3.73701e-05
3.73777e-05
3.73768e-05
3.73043e-05
3.73741e-05
3.72959e-05
3.72959e-05
3.58805e-05
4.08717e-05
3.66032e-05
4.51447e-05
5.51149e-05
6.48951e-05
3.58803e-05
4.08726e-05
3.66033e-05
4.51453e-05
3.58932e-05
3.58932e-05
3.58933e-05
3.44005e-05
3.44005e-05
3.44005e-05
3.44005e-05
3.52758e-05
3.5638e-05
3.58929e-05
3.53771e-05
3.60475e-05
3.42376e-05
3.53822e-05
5.51167e-05
6.48976e-05
3.52758e-05
3.58929e-05
3.56378e-05
3.53771e-05
3.60475e-05
3.53822e-05
3.42372e-05
3.65965e-05
3.65973e-05
3.5279e-05
3.40647e-05
3.40637e-05
3.39675e-05
5.13531e-05
3.46791e-05
5.46233e-05
7.65453e-05
8.08615e-05
3.39672e-05
5.13539e-05
3.46791e-05
5.46241e-05
3.39296e-05
3.39296e-05
3.39297e-05
3.30542e-05
3.24738e-05
3.39295e-05
3.34087e-05
3.3896e-05
3.15773e-05
3.34678e-05
7.65473e-05
8.08633e-05
3.30542e-05
3.39295e-05
3.2474e-05
3.34087e-05
3.38959e-05
3.34678e-05
3.15768e-05
3.1716e-05
3.1716e-05
3.32637e-05
3.09256e-05
3.09248e-05
3.73741e-05
3.72958e-05
3.72959e-05
5.31118e-05
3.71933e-05
5.3114e-05
3.71933e-05
3.7093e-05
3.72396e-05
3.72411e-05
3.71762e-05
3.71762e-05
3.73701e-05
3.73777e-05
3.73043e-05
3.73768e-05
3.73701e-05
3.73777e-05
3.73043e-05
3.73768e-05
3.71732e-05
3.94123e-05
3.7168e-05
3.67257e-05
3.71732e-05
3.94126e-05
3.7168e-05
3.67256e-05
3.70958e-05
3.71022e-05
3.60248e-05
3.64211e-05
3.71636e-05
3.71109e-05
3.63055e-05
3.70958e-05
3.71022e-05
3.60251e-05
3.64211e-05
3.71636e-05
3.71109e-05
3.63055e-05
3.73741e-05
3.72958e-05
3.72959e-05
5.31124e-05
3.71933e-05
3.7093e-05
3.72402e-05
3.72404e-05
3.71762e-05
3.71762e-05
5.31136e-05
3.71933e-05
3.73701e-05
3.73777e-05
3.73043e-05
3.73768e-05
3.73701e-05
3.73777e-05
3.73768e-05
3.73043e-05
3.71732e-05
3.94126e-05
3.7168e-05
3.67258e-05
3.70958e-05
3.71022e-05
3.60252e-05
3.64211e-05
3.71636e-05
3.71109e-05
3.63055e-05
3.71732e-05
3.94126e-05
3.7168e-05
3.67255e-05
3.70959e-05
3.71022e-05
3.64211e-05
3.60249e-05
3.71109e-05
3.71636e-05
3.63055e-05
3.73773e-05
3.73765e-05
3.7377e-05
3.7377e-05
3.73773e-05
3.73765e-05
3.7377e-05
3.7377e-05
3.73773e-05
3.73765e-05
3.7377e-05
3.7377e-05
3.71133e-05
3.71099e-05
3.64241e-05
3.64241e-05
3.71125e-05
3.71125e-05
3.64261e-05
3.71133e-05
3.71099e-05
3.64241e-05
3.64241e-05
3.71125e-05
3.71125e-05
3.64261e-05
3.71133e-05
3.71099e-05
3.64241e-05
3.64241e-05
3.71125e-05
3.71125e-05
3.64261e-05
3.71133e-05
3.71099e-05
3.64241e-05
3.64241e-05
3.71125e-05
3.71125e-05
3.64261e-05
3.73701e-05
3.73777e-05
3.73768e-05
3.73042e-05
3.70958e-05
3.71022e-05
3.60251e-05
3.64211e-05
3.71636e-05
3.71109e-05
3.63055e-05
3.71732e-05
3.94122e-05
3.7168e-05
3.67258e-05
3.70958e-05
3.71022e-05
3.64211e-05
3.60252e-05
3.71109e-05
3.71636e-05
3.63055e-05
3.71732e-05
3.94124e-05
3.7168e-05
3.67255e-05
3.73741e-05
3.72959e-05
3.72959e-05
5.31144e-05
3.71933e-05
3.7093e-05
3.72402e-05
3.72408e-05
3.71762e-05
3.71762e-05
5.3114e-05
3.71933e-05
3.73701e-05
3.73777e-05
3.73768e-05
3.73043e-05
3.70958e-05
3.71022e-05
3.64211e-05
3.60251e-05
3.71109e-05
3.71636e-05
3.63056e-05
3.70958e-05
3.71022e-05
3.64211e-05
3.60251e-05
3.71109e-05
3.71636e-05
3.63056e-05
3.71732e-05
3.9412e-05
3.7168e-05
3.67258e-05
3.71732e-05
3.94128e-05
3.7168e-05
3.67257e-05
3.7093e-05
3.72412e-05
3.72409e-05
3.71762e-05
3.71762e-05
5.31142e-05
3.71933e-05
5.31143e-05
3.71933e-05
5.5114e-05
6.4894e-05
5.51166e-05
6.48969e-05
3.65985e-05
3.65979e-05
3.5279e-05
3.40622e-05
3.40637e-05
7.4728e-05
6.76715e-05
7.47317e-05
6.76752e-05
3.49729e-05
3.20396e-05
3.20409e-05
3.34708e-05
3.34696e-05
3.58803e-05
4.08729e-05
3.66029e-05
4.51465e-05
3.52758e-05
3.56385e-05
3.58929e-05
3.5377e-05
3.60475e-05
3.42373e-05
3.53822e-05
3.52758e-05
3.56383e-05
3.58929e-05
3.5377e-05
3.60475e-05
3.42377e-05
3.53822e-05
3.56328e-05
5.02132e-05
4.6454e-05
3.48938e-05
3.56326e-05
5.02149e-05
4.64564e-05
3.48936e-05
3.49992e-05
3.48726e-05
3.27312e-05
3.44018e-05
3.3864e-05
3.48857e-05
3.41799e-05
3.49992e-05
3.48726e-05
3.2732e-05
3.44018e-05
3.38635e-05
3.48857e-05
3.41798e-05
3.6598e-05
3.65976e-05
3.52791e-05
3.4063e-05
3.40636e-05
5.51163e-05
6.48962e-05
7.47303e-05
6.76732e-05
3.49729e-05
3.2041e-05
3.20406e-05
3.34695e-05
3.34684e-05
7.47303e-05
6.76739e-05
3.52758e-05
3.56379e-05
3.58929e-05
3.53771e-05
3.60475e-05
3.42374e-05
3.53822e-05
3.58802e-05
4.08736e-05
3.66031e-05
4.51462e-05
3.52757e-05
3.58929e-05
3.56384e-05
3.5377e-05
3.60475e-05
3.53822e-05
3.42372e-05
3.56333e-05
5.02142e-05
4.64551e-05
3.48937e-05
3.49993e-05
3.48725e-05
3.27312e-05
3.44018e-05
3.38632e-05
3.48857e-05
3.41799e-05
3.5633e-05
5.02158e-05
4.64574e-05
3.48929e-05
3.49993e-05
3.48726e-05
3.44018e-05
3.27308e-05
3.48857e-05
3.38636e-05
3.41796e-05
3.58802e-05
4.08722e-05
3.66034e-05
4.51444e-05
3.52758e-05
3.58929e-05
3.5638e-05
3.53771e-05
3.60475e-05
3.53822e-05
3.42376e-05
3.58803e-05
4.0872e-05
3.66029e-05
4.51469e-05
3.49993e-05
3.48726e-05
3.27316e-05
3.44018e-05
3.3863e-05
3.48857e-05
3.41799e-05
3.56334e-05
5.0213e-05
4.64548e-05
3.48936e-05
3.49992e-05
3.48726e-05
3.44018e-05
3.27315e-05
3.48857e-05
3.38629e-05
3.41799e-05
3.56329e-05
5.02159e-05
4.64554e-05
3.48936e-05
3.65982e-05
3.65973e-05
3.5279e-05
3.40623e-05
3.40635e-05
5.51164e-05
6.48962e-05
7.47328e-05
6.7675e-05
3.49729e-05
3.20397e-05
3.20411e-05
3.3471e-05
3.34699e-05
7.47308e-05
6.76744e-05
3.52758e-05
3.58929e-05
3.56383e-05
3.5377e-05
3.60475e-05
3.53822e-05
3.42375e-05
3.58806e-05
4.08719e-05
3.66032e-05
4.51438e-05
3.58806e-05
4.08729e-05
3.6603e-05
4.51472e-05
3.49993e-05
3.48726e-05
3.44018e-05
3.27313e-05
3.48857e-05
3.38633e-05
3.41799e-05
3.49992e-05
3.48726e-05
3.44018e-05
3.27314e-05
3.48857e-05
3.38632e-05
3.41799e-05
3.56331e-05
5.02133e-05
4.64545e-05
3.48942e-05
3.56327e-05
5.02167e-05
4.64569e-05
3.48937e-05
5.51164e-05
6.48963e-05
5.51168e-05
6.48968e-05
3.49729e-05
3.20422e-05
3.2041e-05
3.34682e-05
3.34688e-05
7.47309e-05
6.76742e-05
7.47322e-05
6.76759e-05
7.65431e-05
8.08591e-05
7.65472e-05
8.08627e-05
3.17186e-05
3.17167e-05
3.32638e-05
3.09225e-05
3.09239e-05
8.18483e-05
8.1852e-05
3.29546e-05
3.07474e-05
3.07447e-05
3.39679e-05
5.13558e-05
3.46786e-05
5.46254e-05
3.30542e-05
3.24748e-05
3.39295e-05
3.34086e-05
3.38959e-05
3.15769e-05
3.34678e-05
3.30541e-05
3.24741e-05
3.39295e-05
3.34085e-05
3.38958e-05
3.15777e-05
3.34677e-05
3.37785e-05
5.55966e-05
3.37777e-05
5.55997e-05
3.27691e-05
3.29353e-05
3.13923e-05
3.30158e-05
3.27689e-05
3.29352e-05
3.1392e-05
3.30158e-05
3.17168e-05
3.17164e-05
3.32638e-05
3.09246e-05
3.09239e-05
7.65456e-05
8.08613e-05
8.18504e-05
3.29546e-05
3.07458e-05
3.0745e-05
8.18506e-05
3.30541e-05
3.24738e-05
3.39294e-05
3.34087e-05
3.3896e-05
3.15766e-05
3.34678e-05
3.39651e-05
5.13554e-05
3.46793e-05
5.46254e-05
3.30537e-05
3.39295e-05
3.24743e-05
3.34085e-05
3.3896e-05
3.34678e-05
3.15758e-05
3.37786e-05
5.55984e-05
3.27691e-05
3.29352e-05
3.13916e-05
3.30158e-05
3.37804e-05
5.56002e-05
3.27691e-05
3.29352e-05
3.30158e-05
3.13929e-05
3.39673e-05
5.13537e-05
3.46793e-05
5.46236e-05
3.30541e-05
3.39295e-05
3.24738e-05
3.34086e-05
3.38958e-05
3.34678e-05
3.15771e-05
3.39672e-05
5.13544e-05
3.46788e-05
5.4625e-05
3.27691e-05
3.29353e-05
3.13917e-05
3.30158e-05
3.37787e-05
5.55978e-05
3.27689e-05
3.29352e-05
3.30158e-05
3.13916e-05
3.37781e-05
5.55984e-05
3.17184e-05
3.17173e-05
3.32638e-05
3.09226e-05
3.09242e-05
7.65463e-05
8.0862e-05
8.18529e-05
3.29546e-05
3.07474e-05
3.0745e-05
8.18513e-05
3.3054e-05
3.39294e-05
3.24738e-05
3.34087e-05
3.38958e-05
3.34678e-05
3.15771e-05
3.39676e-05
5.13536e-05
3.46788e-05
5.46236e-05
3.39668e-05
5.13557e-05
3.46784e-05
5.4626e-05
3.29353e-05
3.13915e-05
3.29353e-05
3.13917e-05
5.55984e-05
5.56001e-05
7.65461e-05
8.0862e-05
7.65479e-05
8.08634e-05
3.29546e-05
3.07452e-05
3.07448e-05
8.18513e-05
8.18529e-05
3.73098e-05
3.73048e-05
3.72762e-05
3.73098e-05
3.73048e-05
3.72762e-05
3.72762e-05
3.72762e-05
3.73098e-05
3.73048e-05
3.72762e-05
3.73098e-05
3.73048e-05
3.73098e-05
3.73048e-05
3.73098e-05
3.73048e-05
3.72762e-05
3.73098e-05
3.73048e-05
3.73098e-05
3.73048e-05
3.72762e-05
3.72762e-05
3.73773e-05
3.73773e-05
3.73772e-05
3.73771e-05
3.73771e-05
3.73772e-05
3.73774e-05
3.73769e-05
3.73773e-05
3.73774e-05
3.73769e-05
3.73773e-05
3.73113e-05
3.73731e-05
3.73772e-05
3.73737e-05
3.73794e-05
3.73722e-05
3.73088e-05
3.73208e-05
3.73739e-05
3.73754e-05
3.73768e-05
3.73753e-05
3.73731e-05
3.73113e-05
3.73772e-05
3.73794e-05
3.73737e-05
3.73722e-05
3.73754e-05
3.73768e-05
3.73753e-05
3.73088e-05
3.73208e-05
3.73739e-05
6.03353e-05
6.03315e-05
3.73116e-05
3.73735e-05
3.73735e-05
3.73098e-05
4.54922e-05
3.73183e-05
3.73078e-05
4.54913e-05
3.73183e-05
3.73078e-05
5.44696e-05
3.61384e-05
5.358e-05
3.54042e-05
5.19284e-05
3.56979e-05
5.63894e-05
6.4371e-05
3.55718e-05
4.23643e-05
5.98996e-05
3.41951e-05
5.25207e-05
3.63844e-05
4.85356e-05
3.61901e-05
5.05045e-05
5.02474e-05
3.59646e-05
6.84265e-05
3.20593e-05
4.37583e-05
3.30438e-05
7.21503e-05
5.85104e-05
6.1782e-05
5.44699e-05
3.61383e-05
3.54038e-05
5.35803e-05
3.56982e-05
5.19287e-05
5.63897e-05
6.43708e-05
3.55722e-05
4.23641e-05
5.98985e-05
3.41947e-05
5.25208e-05
3.63848e-05
3.61901e-05
4.85356e-05
5.05044e-05
3.59647e-05
5.02476e-05
6.84254e-05
3.20592e-05
4.3759e-05
3.30443e-05
7.21507e-05
5.85129e-05
6.17834e-05
3.50345e-05
7.03938e-05
7.03991e-05
6.69736e-05
6.69807e-05
3.43409e-05
3.62111e-05
3.59968e-05
4.59695e-05
3.56789e-05
3.64865e-05
3.56804e-05
4.73686e-05
3.62114e-05
3.59967e-05
4.59722e-05
3.56784e-05
3.64872e-05
3.56803e-05
4.73705e-05
3.58863e-05
5.92894e-05
5.92953e-05
3.68078e-05
6.33163e-05
6.33206e-05
3.59001e-05
5.00947e-05
3.48465e-05
3.49754e-05
3.5328e-05
4.87608e-05
3.55536e-05
3.58998e-05
5.00979e-05
3.4847e-05
3.49749e-05
3.53276e-05
4.87653e-05
3.55529e-05
6.80307e-05
3.42235e-05
6.5056e-05
3.32351e-05
6.37831e-05
3.35203e-05
6.94167e-05
8.6246e-05
2.93198e-05
5.24987e-05
8.47751e-05
2.89815e-05
6.65956e-05
3.44256e-05
6.11092e-05
3.40362e-05
6.50554e-05
6.24817e-05
3.37464e-05
8.73865e-05
2.85318e-05
5.35573e-05
2.87503e-05
8.82705e-05
7.82225e-05
7.95994e-05
6.80313e-05
3.42237e-05
3.32358e-05
6.50569e-05
3.35204e-05
6.37837e-05
6.94174e-05
8.62457e-05
2.932e-05
5.25003e-05
8.47751e-05
2.89806e-05
6.6596e-05
3.44254e-05
3.40359e-05
6.11098e-05
6.5056e-05
3.37459e-05
6.24825e-05
8.73866e-05
2.85316e-05
5.35589e-05
2.87505e-05
8.82707e-05
7.82252e-05
7.96016e-05
3.1865e-05
8.60654e-05
8.60715e-05
8.50408e-05
8.5049e-05
3.17031e-05
3.36494e-05
3.3145e-05
5.62941e-05
3.14014e-05
3.3983e-05
3.27869e-05
5.73916e-05
3.36477e-05
3.31436e-05
5.63025e-05
3.14002e-05
3.39806e-05
3.27856e-05
5.7398e-05
3.20735e-05
8.23211e-05
8.23296e-05
3.23029e-05
8.38493e-05
8.38557e-05
3.34075e-05
5.94636e-05
3.1158e-05
3.20831e-05
3.24344e-05
5.84604e-05
3.30798e-05
3.34044e-05
5.94717e-05
3.11576e-05
3.20816e-05
3.24327e-05
5.8469e-05
3.30782e-05
6.03319e-05
6.03364e-05
3.73116e-05
3.73735e-05
3.73735e-05
3.73098e-05
4.54909e-05
3.73183e-05
3.73078e-05
4.54905e-05
3.73183e-05
3.73078e-05
3.72765e-05
3.70036e-05
3.72768e-05
3.70035e-05
3.67705e-05
6.44623e-05
6.44611e-05
3.71574e-05
6.68262e-05
6.68261e-05
3.68343e-05
3.6838e-05
3.70917e-05
3.70917e-05
3.70952e-05
3.68356e-05
3.68356e-05
3.6614e-05
3.629e-05
3.66967e-05
4.45383e-05
4.29091e-05
3.65281e-05
3.66149e-05
3.66143e-05
3.62902e-05
3.6697e-05
4.45404e-05
4.29096e-05
3.65281e-05
3.66158e-05
3.67336e-05
4.17175e-05
3.71636e-05
3.66922e-05
3.71613e-05
4.98635e-05
3.68406e-05
3.67335e-05
4.17177e-05
3.71636e-05
3.66923e-05
3.71613e-05
4.98645e-05
3.68406e-05
3.62326e-05
5.57359e-05
5.57407e-05
6.93382e-05
6.93402e-05
3.75375e-05
3.73114e-05
3.73731e-05
3.73772e-05
3.73737e-05
3.73793e-05
3.73722e-05
3.73088e-05
3.73208e-05
3.73739e-05
3.73754e-05
3.73768e-05
3.73753e-05
3.73113e-05
3.73731e-05
3.73772e-05
3.73737e-05
3.73793e-05
3.73722e-05
3.73088e-05
3.73208e-05
3.73739e-05
3.73754e-05
3.73768e-05
3.73753e-05
6.53436e-05
4.71825e-05
3.71637e-05
3.66983e-05
5.1398e-05
3.67817e-05
3.81035e-05
3.69939e-05
5.52868e-05
3.73808e-05
3.71754e-05
3.67816e-05
3.67763e-05
6.88472e-05
3.67219e-05
4.68424e-05
3.63333e-05
4.84224e-05
4.52378e-05
3.63592e-05
6.53511e-05
4.71827e-05
3.71637e-05
3.66983e-05
5.13967e-05
3.67817e-05
3.81031e-05
3.69913e-05
3.73812e-05
5.52927e-05
3.71754e-05
3.67815e-05
3.67763e-05
6.88481e-05
3.67219e-05
4.68429e-05
3.6333e-05
4.52378e-05
3.63595e-05
4.84217e-05
3.68384e-05
3.70935e-05
3.70937e-05
3.68257e-05
3.70936e-05
3.68396e-05
3.68368e-05
3.68334e-05
3.68369e-05
3.7101e-05
3.71021e-05
3.68293e-05
3.70991e-05
3.68419e-05
3.68343e-05
3.71632e-05
3.70933e-05
3.67641e-05
3.68428e-05
3.70929e-05
3.68268e-05
3.6831e-05
3.71083e-05
3.71099e-05
3.68362e-05
3.71071e-05
3.68319e-05
3.68353e-05
3.68384e-05
3.70935e-05
3.70937e-05
3.68257e-05
3.70936e-05
3.68396e-05
3.68368e-05
3.68334e-05
3.68369e-05
3.7101e-05
3.71021e-05
3.70991e-05
3.68293e-05
3.68419e-05
3.68343e-05
3.71632e-05
3.70932e-05
3.67641e-05
3.70929e-05
3.68268e-05
3.68428e-05
3.6831e-05
3.71083e-05
3.71099e-05
3.68362e-05
3.71071e-05
3.68319e-05
3.68353e-05
6.03354e-05
6.03337e-05
3.73116e-05
3.73735e-05
3.73735e-05
3.73098e-05
4.54913e-05
3.73183e-05
3.73078e-05
4.54915e-05
3.73183e-05
3.73078e-05
3.72764e-05
3.70037e-05
3.67705e-05
6.4463e-05
6.44622e-05
3.71574e-05
6.68267e-05
6.68281e-05
3.68343e-05
3.6838e-05
3.70917e-05
3.70917e-05
3.68356e-05
3.70952e-05
3.68357e-05
3.66141e-05
3.62903e-05
3.66968e-05
4.45398e-05
3.65281e-05
4.29089e-05
3.66155e-05
3.66142e-05
3.62901e-05
3.66968e-05
4.45398e-05
4.291e-05
3.6528e-05
3.66152e-05
3.67336e-05
4.17178e-05
3.71636e-05
3.66923e-05
3.68406e-05
3.71613e-05
4.98642e-05
3.67336e-05
4.17177e-05
3.71636e-05
3.66923e-05
3.71613e-05
4.98644e-05
3.68407e-05
3.62326e-05
5.5736e-05
5.57411e-05
6.93383e-05
6.93406e-05
3.75375e-05
3.72767e-05
3.70035e-05
3.73113e-05
3.73731e-05
3.73772e-05
3.73737e-05
3.73794e-05
3.73722e-05
3.73088e-05
3.73208e-05
3.73739e-05
3.73754e-05
3.73768e-05
3.73753e-05
3.73731e-05
3.73113e-05
3.73772e-05
3.73793e-05
3.73737e-05
3.73722e-05
3.73754e-05
3.73768e-05
3.73753e-05
3.73088e-05
3.73208e-05
3.73739e-05
6.53432e-05
3.71637e-05
4.71827e-05
3.66983e-05
3.67817e-05
5.13974e-05
3.81037e-05
3.6993e-05
5.52864e-05
3.73815e-05
3.71754e-05
3.67815e-05
3.67763e-05
6.88468e-05
3.67221e-05
3.63332e-05
4.68425e-05
4.84227e-05
3.63593e-05
4.52377e-05
3.68384e-05
3.70935e-05
3.70937e-05
3.68257e-05
3.70936e-05
3.68396e-05
3.68368e-05
3.68334e-05
3.68369e-05
3.7101e-05
3.71021e-05
3.68293e-05
3.70991e-05
3.68419e-05
3.68343e-05
3.71632e-05
3.70932e-05
3.67641e-05
3.68428e-05
3.70929e-05
3.68268e-05
3.6831e-05
3.71083e-05
3.71099e-05
3.68362e-05
3.71071e-05
3.68319e-05
3.68353e-05
6.5351e-05
4.71831e-05
3.71637e-05
3.66983e-05
5.13959e-05
3.67817e-05
3.81033e-05
3.69914e-05
3.73811e-05
5.5293e-05
3.71754e-05
3.67815e-05
3.67763e-05
6.88487e-05
3.67219e-05
4.68433e-05
3.6333e-05
4.52377e-05
3.63595e-05
4.84228e-05
3.68384e-05
3.70937e-05
3.70935e-05
3.68257e-05
3.70936e-05
3.68368e-05
3.68395e-05
3.68334e-05
3.68369e-05
3.71021e-05
3.7101e-05
3.70991e-05
3.68419e-05
3.68293e-05
3.6831e-05
3.71083e-05
3.71099e-05
3.68362e-05
3.71071e-05
3.68319e-05
3.68353e-05
3.68343e-05
3.71632e-05
3.70933e-05
3.67641e-05
3.70929e-05
3.68268e-05
3.68428e-05
3.73773e-05
3.73773e-05
3.73772e-05
3.73771e-05
3.73771e-05
3.73772e-05
3.73774e-05
3.73769e-05
3.73773e-05
3.73774e-05
3.73769e-05
3.73773e-05
3.73773e-05
3.73773e-05
3.73772e-05
3.73771e-05
3.73771e-05
3.73772e-05
3.73774e-05
3.73769e-05
3.73773e-05
3.73774e-05
3.73769e-05
3.73773e-05
3.73773e-05
3.73773e-05
3.73772e-05
3.73771e-05
3.73771e-05
3.73772e-05
3.73774e-05
3.73769e-05
3.73773e-05
3.73774e-05
3.73769e-05
3.73773e-05
3.68387e-05
3.71133e-05
3.71133e-05
3.68395e-05
3.71132e-05
3.68391e-05
3.68391e-05
3.68377e-05
3.68335e-05
3.71109e-05
3.71109e-05
3.71121e-05
3.68358e-05
3.68359e-05
3.68385e-05
3.71127e-05
3.71123e-05
3.68375e-05
3.71126e-05
3.68367e-05
3.68391e-05
3.68385e-05
3.71127e-05
3.71123e-05
3.68375e-05
3.71126e-05
3.68367e-05
3.68391e-05
3.68387e-05
3.71133e-05
3.71133e-05
3.68395e-05
3.71132e-05
3.68391e-05
3.68391e-05
3.68377e-05
3.68335e-05
3.71109e-05
3.71109e-05
3.68358e-05
3.71121e-05
3.68359e-05
3.68385e-05
3.71127e-05
3.71123e-05
3.68375e-05
3.68367e-05
3.71126e-05
3.68391e-05
3.68385e-05
3.71127e-05
3.71123e-05
3.68375e-05
3.71126e-05
3.68391e-05
3.68367e-05
3.68387e-05
3.71133e-05
3.71133e-05
3.68395e-05
3.71132e-05
3.68391e-05
3.68391e-05
3.68377e-05
3.68335e-05
3.71109e-05
3.71109e-05
3.68358e-05
3.71121e-05
3.68358e-05
3.68385e-05
3.71127e-05
3.71123e-05
3.68375e-05
3.68367e-05
3.71126e-05
3.68391e-05
3.68385e-05
3.71127e-05
3.71123e-05
3.68375e-05
3.71126e-05
3.68391e-05
3.68367e-05
3.68387e-05
3.71133e-05
3.71133e-05
3.68395e-05
3.71132e-05
3.68391e-05
3.68391e-05
3.68377e-05
3.68335e-05
3.71109e-05
3.71109e-05
3.71121e-05
3.68358e-05
3.68358e-05
3.68385e-05
3.71127e-05
3.71123e-05
3.68375e-05
3.71126e-05
3.68391e-05
3.68367e-05
3.68385e-05
3.71127e-05
3.71123e-05
3.68375e-05
3.71126e-05
3.68391e-05
3.68367e-05
3.73731e-05
3.73113e-05
3.73772e-05
3.73793e-05
3.73737e-05
3.73722e-05
3.73754e-05
3.73768e-05
3.73753e-05
3.73088e-05
3.73208e-05
3.73739e-05
3.68384e-05
3.70935e-05
3.70937e-05
3.68257e-05
3.70936e-05
3.68395e-05
3.68368e-05
3.68334e-05
3.68369e-05
3.7101e-05
3.71021e-05
3.70991e-05
3.68293e-05
3.68419e-05
3.68343e-05
3.71632e-05
3.70932e-05
3.67641e-05
3.70929e-05
3.68429e-05
3.68268e-05
3.6831e-05
3.71083e-05
3.71099e-05
3.68362e-05
3.71071e-05
3.68353e-05
3.68319e-05
6.5343e-05
3.71637e-05
4.71825e-05
3.66983e-05
3.67818e-05
5.13974e-05
3.81035e-05
3.69926e-05
3.73818e-05
5.52898e-05
3.71753e-05
3.67815e-05
3.67763e-05
6.88469e-05
3.67222e-05
3.63332e-05
4.68423e-05
3.63593e-05
4.52377e-05
4.84234e-05
3.68384e-05
3.70937e-05
3.70935e-05
3.68257e-05
3.70936e-05
3.68368e-05
3.68396e-05
3.68334e-05
3.68369e-05
3.71021e-05
3.7101e-05
3.68419e-05
3.70991e-05
3.68293e-05
3.6831e-05
3.71083e-05
3.71099e-05
3.68362e-05
3.68353e-05
3.71071e-05
3.68319e-05
3.68344e-05
3.71632e-05
3.70932e-05
3.67641e-05
3.70929e-05
3.68269e-05
3.68428e-05
6.53507e-05
4.7183e-05
3.71637e-05
3.66983e-05
5.13961e-05
3.67818e-05
3.81031e-05
3.69906e-05
3.73817e-05
5.5292e-05
3.71754e-05
3.67816e-05
3.67763e-05
6.88477e-05
3.67219e-05
4.68427e-05
3.6333e-05
4.52381e-05
3.63595e-05
4.84216e-05
6.03327e-05
6.03312e-05
3.73116e-05
3.73735e-05
3.73735e-05
3.73098e-05
4.54904e-05
3.73183e-05
3.73078e-05
4.54908e-05
3.73183e-05
3.73078e-05
3.72767e-05
3.70035e-05
3.67705e-05
6.44611e-05
6.44588e-05
3.71574e-05
6.68244e-05
6.68254e-05
3.68343e-05
3.6838e-05
3.70917e-05
3.70917e-05
3.68356e-05
3.70952e-05
3.68357e-05
3.66142e-05
3.62902e-05
3.66969e-05
4.45401e-05
3.65281e-05
4.29093e-05
3.66155e-05
3.66142e-05
3.62901e-05
3.66969e-05
4.45395e-05
4.291e-05
3.65281e-05
3.66152e-05
3.67336e-05
4.17178e-05
3.71636e-05
3.66923e-05
3.68406e-05
3.71613e-05
4.9864e-05
3.67336e-05
4.17175e-05
3.71636e-05
3.66923e-05
3.71613e-05
4.98633e-05
3.68406e-05
3.62328e-05
5.57363e-05
5.57397e-05
6.93361e-05
6.934e-05
3.75374e-05
3.72768e-05
3.70036e-05
3.73731e-05
3.73113e-05
3.73772e-05
3.73793e-05
3.73737e-05
3.73722e-05
3.73754e-05
3.73768e-05
3.73753e-05
3.73088e-05
3.73208e-05
3.7374e-05
3.68384e-05
3.70937e-05
3.70935e-05
3.68257e-05
3.70936e-05
3.68368e-05
3.68396e-05
3.68334e-05
3.68369e-05
3.71021e-05
3.7101e-05
3.70991e-05
3.68419e-05
3.68293e-05
3.6831e-05
3.71083e-05
3.71099e-05
3.68362e-05
3.71071e-05
3.68353e-05
3.68319e-05
3.68343e-05
3.71632e-05
3.70932e-05
3.67641e-05
3.70929e-05
3.68428e-05
3.68268e-05
3.68384e-05
3.70937e-05
3.70935e-05
3.68257e-05
3.70936e-05
3.68368e-05
3.68396e-05
3.68334e-05
3.68369e-05
3.71021e-05
3.7101e-05
3.68419e-05
3.70991e-05
3.68293e-05
3.6831e-05
3.71083e-05
3.71099e-05
3.68362e-05
3.68353e-05
3.71071e-05
3.68319e-05
3.68344e-05
3.71632e-05
3.70932e-05
3.67641e-05
3.70929e-05
3.68269e-05
3.68428e-05
6.53431e-05
3.71637e-05
4.71824e-05
3.66983e-05
3.67818e-05
5.13973e-05
3.81032e-05
3.6993e-05
3.73811e-05
5.52876e-05
3.71754e-05
3.67815e-05
3.67763e-05
6.88469e-05
3.67221e-05
3.63332e-05
4.68427e-05
3.63593e-05
4.52377e-05
4.84233e-05
6.53515e-05
3.71637e-05
4.71827e-05
3.66983e-05
3.67818e-05
5.1396e-05
3.81034e-05
3.69907e-05
3.73817e-05
5.52919e-05
3.71754e-05
3.67815e-05
3.67763e-05
6.88473e-05
3.67221e-05
3.63329e-05
4.68426e-05
3.63596e-05
4.52378e-05
4.84213e-05
3.67705e-05
6.44603e-05
6.44591e-05
3.71574e-05
6.68245e-05
6.68271e-05
3.68343e-05
3.6838e-05
3.70917e-05
3.70917e-05
3.70952e-05
3.68356e-05
3.68356e-05
3.6614e-05
3.62902e-05
3.66968e-05
4.45397e-05
3.66149e-05
3.6528e-05
4.29096e-05
3.66143e-05
3.62903e-05
3.6697e-05
4.45404e-05
3.66157e-05
3.6528e-05
4.29095e-05
3.67336e-05
4.17176e-05
3.71636e-05
3.66923e-05
3.71613e-05
3.68407e-05
4.98632e-05
3.67335e-05
4.17175e-05
3.71636e-05
3.66923e-05
3.71613e-05
3.68406e-05
4.9864e-05
3.62326e-05
5.57362e-05
5.574e-05
3.75373e-05
6.93376e-05
6.93404e-05
3.72767e-05
3.70035e-05
3.72768e-05
3.70035e-05
5.85099e-05
6.1781e-05
5.85123e-05
6.17837e-05
3.50352e-05
7.03912e-05
7.03991e-05
6.69749e-05
6.69813e-05
3.43405e-05
3.62113e-05
3.5997e-05
4.5971e-05
3.5677e-05
3.64864e-05
4.7367e-05
3.56803e-05
3.62115e-05
3.59968e-05
4.59722e-05
3.56789e-05
3.64872e-05
4.737e-05
3.56803e-05
3.58859e-05
5.9291e-05
5.92963e-05
3.68087e-05
6.33136e-05
6.33207e-05
3.58998e-05
5.0093e-05
3.48488e-05
3.49753e-05
4.87626e-05
3.55542e-05
3.53281e-05
3.58997e-05
5.00973e-05
3.48477e-05
3.49748e-05
4.87655e-05
3.55532e-05
3.53277e-05
7.25879e-05
7.02977e-05
7.25919e-05
7.03012e-05
3.33226e-05
7.33864e-05
7.33936e-05
3.37705e-05
7.61364e-05
7.61443e-05
3.45911e-05
3.35088e-05
3.24705e-05
5.51305e-05
5.39514e-05
3.38713e-05
3.42521e-05
3.45899e-05
3.35076e-05
3.2469e-05
5.51385e-05
5.39562e-05
3.38703e-05
3.42492e-05
3.48879e-05
5.14267e-05
3.46048e-05
3.2898e-05
3.52347e-05
5.26948e-05
3.42421e-05
3.48858e-05
5.14312e-05
3.46042e-05
3.28989e-05
3.52342e-05
5.27007e-05
3.42413e-05
3.29193e-05
8.05899e-05
8.05978e-05
7.84811e-05
7.84886e-05
3.25959e-05
5.44728e-05
3.61379e-05
5.35807e-05
3.54015e-05
5.19289e-05
3.56959e-05
5.63933e-05
6.43748e-05
3.55699e-05
4.23655e-05
5.99052e-05
3.41925e-05
5.25232e-05
3.63842e-05
4.85359e-05
3.61892e-05
5.02481e-05
5.05053e-05
3.59627e-05
6.84306e-05
3.20576e-05
4.37609e-05
3.3043e-05
7.21531e-05
6.00556e-05
5.51767e-05
3.51295e-05
3.53766e-05
5.82433e-05
5.67383e-05
3.48348e-05
8.0851e-05
4.89877e-05
2.96625e-05
8.30188e-05
3.01525e-05
7.83633e-05
3.13278e-05
4.77633e-05
7.54185e-05
3.06534e-05
6.17847e-05
3.51463e-05
5.97065e-05
3.42808e-05
6.34675e-05
5.82388e-05
3.45746e-05
6.00597e-05
5.51773e-05
3.51274e-05
3.53765e-05
5.82473e-05
5.6739e-05
3.48318e-05
8.08532e-05
4.89902e-05
2.96627e-05
3.01539e-05
8.302e-05
7.83653e-05
3.13284e-05
4.77655e-05
7.5422e-05
3.06526e-05
6.1789e-05
3.5146e-05
5.97073e-05
3.42776e-05
5.82394e-05
3.45724e-05
6.34718e-05
3.50354e-05
7.03946e-05
7.03961e-05
6.69765e-05
6.69795e-05
3.43405e-05
3.62118e-05
3.59969e-05
4.59726e-05
3.56778e-05
4.73703e-05
3.64874e-05
3.56804e-05
3.62115e-05
3.59966e-05
4.59696e-05
3.56782e-05
3.56804e-05
3.64859e-05
4.73675e-05
3.58859e-05
5.92912e-05
5.92961e-05
6.33153e-05
3.68084e-05
6.33191e-05
3.58999e-05
5.00973e-05
3.48476e-05
3.49749e-05
4.87664e-05
3.53277e-05
3.55538e-05
3.58993e-05
5.00935e-05
3.48472e-05
3.49755e-05
3.53278e-05
4.87612e-05
3.55544e-05
5.85118e-05
6.17831e-05
7.25901e-05
7.02997e-05
3.33229e-05
7.33897e-05
7.33907e-05
3.37703e-05
7.61409e-05
7.61403e-05
3.45893e-05
3.35077e-05
3.24689e-05
5.51382e-05
3.38701e-05
5.39575e-05
3.42502e-05
3.45907e-05
3.3509e-05
3.24685e-05
5.5131e-05
5.39503e-05
3.3871e-05
3.42519e-05
3.48867e-05
5.14322e-05
3.4604e-05
3.28993e-05
3.42414e-05
3.52337e-05
5.27003e-05
3.48878e-05
5.14257e-05
3.46045e-05
3.28994e-05
3.52342e-05
5.2695e-05
3.42423e-05
3.29187e-05
8.05952e-05
8.0593e-05
7.84856e-05
7.84847e-05
3.25955e-05
7.25906e-05
7.03001e-05
5.44721e-05
3.61382e-05
5.35814e-05
3.54012e-05
5.1929e-05
3.56961e-05
5.63937e-05
6.43757e-05
3.55696e-05
4.2365e-05
5.99038e-05
3.41927e-05
5.2524e-05
3.63842e-05
4.85358e-05
3.61891e-05
5.02486e-05
5.05043e-05
3.59626e-05
6.84298e-05
3.20576e-05
4.37608e-05
3.30426e-05
7.21537e-05
6.00564e-05
3.513e-05
5.51771e-05
3.53759e-05
5.82436e-05
3.48344e-05
5.67388e-05
8.08505e-05
4.89886e-05
2.96623e-05
8.30191e-05
3.01528e-05
7.83632e-05
3.13282e-05
4.77637e-05
7.54181e-05
3.06525e-05
6.17849e-05
3.51468e-05
3.42812e-05
5.97072e-05
6.34681e-05
3.45747e-05
5.82393e-05
6.00606e-05
5.51776e-05
3.51275e-05
3.53756e-05
5.82466e-05
5.67398e-05
3.48313e-05
8.08523e-05
4.89908e-05
2.96633e-05
3.01532e-05
8.30207e-05
7.83657e-05
3.13279e-05
4.77648e-05
7.54211e-05
3.06526e-05
6.17881e-05
3.51469e-05
5.97082e-05
3.42775e-05
5.82397e-05
3.45724e-05
6.34723e-05
5.44688e-05
3.61384e-05
3.54035e-05
5.35802e-05
3.56986e-05
5.19286e-05
5.63899e-05
6.4374e-05
3.55729e-05
4.23634e-05
3.4194e-05
5.98964e-05
5.25213e-05
3.63845e-05
3.61901e-05
4.85356e-05
3.59642e-05
5.05033e-05
5.02474e-05
6.84225e-05
3.2059e-05
4.37588e-05
3.30443e-05
7.21532e-05
5.44725e-05
3.6138e-05
5.35806e-05
3.54014e-05
5.19294e-05
3.5696e-05
5.63926e-05
6.43745e-05
3.557e-05
4.23658e-05
5.99039e-05
3.41922e-05
5.25228e-05
3.63843e-05
4.85362e-05
3.61891e-05
5.05048e-05
5.02479e-05
3.59629e-05
6.84294e-05
3.20574e-05
4.37592e-05
3.3043e-05
7.21529e-05
6.00565e-05
3.51309e-05
5.51771e-05
3.53759e-05
5.82422e-05
3.48337e-05
5.67386e-05
8.08477e-05
4.89877e-05
2.96612e-05
3.01542e-05
8.30207e-05
7.83651e-05
3.13289e-05
4.77627e-05
7.54152e-05
3.06519e-05
6.17835e-05
3.51469e-05
3.42802e-05
5.97071e-05
3.45759e-05
5.82392e-05
6.34681e-05
6.00592e-05
5.51778e-05
3.51274e-05
3.53762e-05
5.82468e-05
5.6739e-05
3.48322e-05
8.08518e-05
4.89889e-05
2.96623e-05
3.01539e-05
8.30194e-05
7.8365e-05
3.13281e-05
4.77653e-05
7.54203e-05
3.06529e-05
6.17883e-05
3.51465e-05
5.97074e-05
3.42782e-05
5.824e-05
3.45722e-05
6.34713e-05
3.50351e-05
7.03951e-05
7.03952e-05
6.69774e-05
6.69788e-05
3.43403e-05
3.62122e-05
3.5997e-05
4.59723e-05
3.56776e-05
4.7371e-05
3.64873e-05
3.56803e-05
3.62113e-05
3.59967e-05
4.59701e-05
3.56785e-05
3.56804e-05
3.6486e-05
4.73675e-05
3.58865e-05
5.92916e-05
5.92952e-05
6.3316e-05
3.68082e-05
6.33183e-05
3.58995e-05
5.00982e-05
3.48484e-05
3.49748e-05
4.87655e-05
3.53278e-05
3.55538e-05
3.58995e-05
5.00933e-05
3.48474e-05
3.49754e-05
3.53279e-05
4.87617e-05