/*--------------------------------*- C++ -*----------------------------------*\
| =========                 |                                                 |
| \\      /  F ield         | OpenFOAM: The Open Source CFD Toolbox           |
|  \\    /   O peration     | Version:  v2006                                 |
|   \\  /    A nd           | Website:  www.openfoam.com                      |
|    \\/     M anipulation  |                                                 |
\*---------------------------------------------------------------------------*/
FoamFile
{
    version     2.0;
    format      ascii;
    class       volScalarField;
    location    "500";
    object      p;
}
// * * * * * * * * * * * * * * * * * * * * * * * * * * * * * * * * * * * * * //

dimensions      [0 2 -2 0 0 0 0];


internalField   nonuniform List<scalar> 
14457
(
0.00344618
0.0034462
0.00344897
0.0034462
0.00344619
0.0034462
0.00344897
0.00344905
0.00344991
0.00344905
0.00344991
0.00344618
0.00344884
0.00344946
0.00344885
0.00344885
0.0034495
0.0034495
0.00344946
0.00344615
0.00344917
0.00344946
0.00344615
0.00344917
0.00344905
0.00344991
0.00344615
0.00344946
0.00344917
0.0034495
0.0034495
0.00344884
0.00344905
0.00344262
0.00344927
0.00344258
0.00344909
0.00344278
0.00344265
0.00344341
0.00344917
0.0034497
0.00344912
0.00344269
0.00344321
0.00344262
0.00344928
0.00344258
0.00344909
0.00344278
0.00344265
0.00344341
0.0034497
0.00344917
0.00344913
0.00344321
0.00344269
0.00344239
0.00344239
0.00344239
0.00344276
0.00344907
0.00344888
0.003443
0.00344921
0.00344242
0.00344261
0.00344276
0.00344907
0.00344888
0.003443
0.00344921
0.00344242
0.00344261
0.00344275
0.00344886
0.00344886
0.00344925
0.00344239
0.00344261
0.00344927
0.00344258
0.00344909
0.00344279
0.00344265
0.00344341
0.00344917
0.0034497
0.00344269
0.00344912
0.00344321
0.00344276
0.00344907
0.00344888
0.003443
0.00344242
0.00344921
0.00344261
0.00344276
0.00344907
0.00344888
0.003443
0.00344261
0.00344921
0.00344242
0.00344275
0.00344886
0.00344886
0.00344925
0.00344239
0.00344239
0.00344261
0.00344927
0.00344258
0.00344279
0.00344909
0.00344624
0.00344624
0.00344625
0.00344289
0.00344919
0.00344919
0.00344286
0.00344917
0.00344292
0.00344292
0.00344289
0.00344919
0.00344919
0.00344286
0.00344292
0.00344917
0.00344292
0.00344624
0.00344624
0.00344625
0.00344289
0.00344916
0.00344913
0.00344304
0.00344923
0.00344275
0.00344277
0.00344289
0.00344916
0.00344913
0.00344276
0.00344923
0.00344275
0.00344301
0.00344282
0.0034492
0.00344939
0.00344284
0.00344932
0.00344308
0.00344289
0.00344916
0.00344913
0.00344304
0.00344276
0.00344923
0.00344275
0.00344301
0.00344282
0.0034492
0.00344939
0.00344284
0.00344932
0.00344308
0.00344289
0.00344916
0.00344913
0.00344304
0.00344923
0.00344276
0.00344275
0.00344301
0.00344282
0.00344939
0.0034492
0.00344932
0.00344284
0.00360468
0.00360501
0.00360501
0.00360806
0.00354932
0.00354974
0.00354974
0.00355273
0.00361808
0.00361831
0.00361831
0.00361808
0.00361831
0.00361831
0.00361907
0.00361907
0.00361908
0.00361908
0.00361831
0.00361831
0.00361808
0.00361831
0.00361831
0.00361808
0.00360806
0.0035593
0.003605
0.003605
0.00356158
0.00356158
0.00360806
0.0035593
0.00360501
0.003605
0.00356158
0.00356158
0.003605
0.00356158
0.00356158
0.00360806
0.0035593
0.00360501
0.00356158
0.00356158
0.0035593
0.00355273
0.00354974
0.00354974
0.00355273
0.00354974
0.00354974
0.00354974
0.00355273
0.00354974
0.00362646
0.00363622
0.00363102
0.00363102
0.00365341
0.00364019
0.00366879
0.00363423
0.0036534
0.00364019
0.00363423
0.0036688
0.00364476
0.00367253
0.00367253
0.00358181
0.00360095
0.00361016
0.00357389
0.00357464
0.00357739
0.0035818
0.00360094
0.00361015
0.00357388
0.00360468
0.00360468
0.00360468
0.00356127
0.00356128
0.00356127
0.00356127
0.00357932
0.00360514
0.00360508
0.00358815
0.00360817
0.00357823
0.00358903
0.00357475
0.00357739
0.00357933
0.00360508
0.00360514
0.00358815
0.00360817
0.00358903
0.00357823
0.00361102
0.00361102
0.00358254
0.00357786
0.00357787
0.00353519
0.00355447
0.00355583
0.00353373
0.00355338
0.00353328
0.00353519
0.00355447
0.00355583
0.00353372
0.00354932
0.00354932
0.00354932
0.00353377
0.00355454
0.00354932
0.00353745
0.00355333
0.00353431
0.00353718
0.00355337
0.00353328
0.00353377
0.00354932
0.00355454
0.00353745
0.00355333
0.00353718
0.00353431
0.00355556
0.00355556
0.003534
0.00353464
0.00353465
0.00364475
0.00367253
0.00367253
0.00363685
0.00367206
0.00363684
0.00367207
0.00364161
0.00362865
0.00362867
0.00366734
0.00366734
0.00365339
0.00364018
0.00366879
0.00363423
0.00365339
0.00364018
0.00366878
0.00363423
0.00365791
0.00362893
0.0036692
0.00362377
0.00365791
0.00362894
0.00366919
0.00362376
0.00364899
0.00363771
0.00362013
0.00362053
0.00366406
0.00363267
0.00362076
0.00364899
0.00363771
0.00362013
0.00362053
0.00366406
0.00363267
0.00362075
0.00364475
0.00367252
0.00367253
0.00363685
0.00367205
0.00364161
0.00362865
0.00362868
0.00366733
0.00366734
0.00363686
0.00367207
0.0036534
0.00364019
0.00366879
0.00363423
0.0036534
0.00364019
0.00363423
0.00366879
0.00365793
0.00362894
0.0036692
0.00362377
0.003649
0.00363771
0.00362013
0.00362054
0.00366407
0.00363267
0.00362076
0.00365793
0.00362897
0.0036692
0.00362376
0.003649
0.00363771
0.00362054
0.00362013
0.00363267
0.00366406
0.00362076
0.00362646
0.00363622
0.00363102
0.00363102
0.00362646
0.00363623
0.00363102
0.00363103
0.00362646
0.00363622
0.00363102
0.00363102
0.00362522
0.00363431
0.00361719
0.00361719
0.00362959
0.00362959
0.00361536
0.00362522
0.00363431
0.00361719
0.00361719
0.00362959
0.00362959
0.00361536
0.00362522
0.00363431
0.00361719
0.00361719
0.00362959
0.00362959
0.00361537
0.00362522
0.00363431
0.00361719
0.00361719
0.00362959
0.00362959
0.00361537
0.0036534
0.00364019
0.00363423
0.00366879
0.00364901
0.00363771
0.00362013
0.00362054
0.00366407
0.00363267
0.00362076
0.00365793
0.00362894
0.0036692
0.00362377
0.00364901
0.00363771
0.00362054
0.00362013
0.00363267
0.00366406
0.00362076
0.00365793
0.00362897
0.0036692
0.00362376
0.00364476
0.00367253
0.00367254
0.00363686
0.00367206
0.00364161
0.00362867
0.00362866
0.00366734
0.00366735
0.00363682
0.00367207
0.0036534
0.00364019
0.00363423
0.00366879
0.00364901
0.00363772
0.00362054
0.00362012
0.00363267
0.00366407
0.00362077
0.00364901
0.00363771
0.00362054
0.00362013
0.00363267
0.00366406
0.00362076
0.00365793
0.00362896
0.00366921
0.00362378
0.00365793
0.00362895
0.0036692
0.00362377
0.00364161
0.00362868
0.00362868
0.00366734
0.00366734
0.00363686
0.00367206
0.00363686
0.00367206
0.00357464
0.00357739
0.00357475
0.00357735
0.00361097
0.00361101
0.00358256
0.00357785
0.00357785
0.00356015
0.00357706
0.00356016
0.00357702
0.00357589
0.00356275
0.00356276
0.00357601
0.003576
0.00358182
0.00360095
0.00361015
0.00357391
0.00357933
0.00360514
0.00360508
0.00358814
0.00360817
0.00357823
0.00358903
0.00357934
0.00360515
0.00360508
0.00358814
0.00360816
0.00357823
0.00358903
0.00357727
0.00356188
0.00357479
0.00356262
0.00357727
0.00356188
0.0035748
0.00356262
0.00357431
0.00357384
0.00356157
0.00356132
0.00357539
0.00357425
0.0035599
0.00357432
0.00357384
0.00356157
0.00356132
0.00357539
0.00357425
0.0035599
0.00361097
0.00361102
0.00358256
0.00357785
0.00357786
0.00357475
0.00357737
0.00356016
0.00357703
0.0035759
0.00356276
0.00356276
0.003576
0.003576
0.00356016
0.00357704
0.00357932
0.00360514
0.00360508
0.00358815
0.00360817
0.00357822
0.00358903
0.00358181
0.00360097
0.00361014
0.0035739
0.00357933
0.00360508
0.00360514
0.00358814
0.00360817
0.00358903
0.00357822
0.00357726
0.00356188
0.00357479
0.00356263
0.0035743
0.00357384
0.00356157
0.00356131
0.00357538
0.00357425
0.00355991
0.00357727
0.00356188
0.0035748
0.00356263
0.00357431
0.00357384
0.00356131
0.00356156
0.00357425
0.00357538
0.00355991
0.0035818
0.00360094
0.00361014
0.00357389
0.00357933
0.00360508
0.00360515
0.00358814
0.00360816
0.00358903
0.00357822
0.00358181
0.00360097
0.00361014
0.0035739
0.0035743
0.00357384
0.00356156
0.00356131
0.00357538
0.00357425
0.0035599
0.00357727
0.00356188
0.0035748
0.00356262
0.00357431
0.00357384
0.00356131
0.00356156
0.00357425
0.00357538
0.0035599
0.00357727
0.00356188
0.00357479
0.00356263
0.003611
0.00361101
0.00358256
0.00357786
0.00357786
0.00357473
0.0035774
0.00356015
0.00357705
0.0035759
0.00356276
0.00356275
0.00357601
0.00357602
0.00356013
0.00357707
0.00357933
0.00360508
0.00360515
0.00358815
0.00360817
0.00358903
0.00357823
0.0035818
0.00360096
0.00361015
0.00357391
0.00358181
0.00360097
0.00361015
0.0035739
0.0035743
0.00357384
0.00356131
0.00356156
0.00357425
0.00357539
0.0035599
0.00357431
0.00357384
0.00356131
0.00356156
0.00357425
0.00357538
0.0035599
0.00357727
0.00356187
0.00357481
0.00356262
0.00357727
0.00356187
0.0035748
0.00356262
0.00357478
0.00357739
0.00357478
0.00357739
0.0035759
0.00356275
0.00356275
0.00357601
0.00357601
0.00356015
0.00357704
0.00356014
0.00357704
0.00355337
0.00353328
0.00355339
0.00353328
0.00355556
0.00355557
0.003534
0.00353465
0.00353465
0.00352686
0.00352685
0.00352721
0.00352819
0.00352819
0.00353519
0.00355446
0.00355583
0.00353373
0.00353378
0.00355455
0.00354932
0.00353746
0.00355333
0.00353432
0.00353718
0.00353378
0.00355455
0.00354932
0.00353745
0.00355333
0.00353432
0.00353718
0.00352866
0.00352735
0.00352866
0.00352735
0.00352724
0.00352469
0.00352787
0.00352455
0.00352724
0.00352469
0.00352787
0.00352455
0.00355556
0.00355557
0.003534
0.00353465
0.00353465
0.00355338
0.00353328
0.00352686
0.00352721
0.00352819
0.00352819
0.00352685
0.00353377
0.00355455
0.00354932
0.00353745
0.00355333
0.00353431
0.00353718
0.00353519
0.00355446
0.00355583
0.00353372
0.00353377
0.00354932
0.00355454
0.00353745
0.00355333
0.00353718
0.00353431
0.00352866
0.00352735
0.00352724
0.00352469
0.00352786
0.00352455
0.00352866
0.00352735
0.00352724
0.00352469
0.00352455
0.00352786
0.00353519
0.00355446
0.00355582
0.00353372
0.00353377
0.00354932
0.00355454
0.00353745
0.00355333
0.00353718
0.00353431
0.00353519
0.00355446
0.00355583
0.00353372
0.00352724
0.00352469
0.00352786
0.00352455
0.00352866
0.00352735
0.00352724
0.00352469
0.00352455
0.00352786
0.00352866
0.00352734
0.00355556
0.00355555
0.003534
0.00353464
0.00353464
0.00355335
0.00353328
0.00352685
0.0035272
0.00352818
0.00352819
0.00352685
0.00353377
0.00354932
0.00355454
0.00353745
0.00355333
0.00353718
0.00353431
0.00353518
0.00355445
0.00355582
0.00353372
0.00353518
0.00355446
0.00355582
0.00353372
0.00352469
0.00352786
0.00352469
0.00352786
0.00352735
0.00352734
0.00355337
0.00353328
0.00355337
0.00353328
0.0035272
0.00352818
0.00352818
0.00352685
0.00352685
0.00366148
0.00367585
0.00367621
0.0036615
0.00367586
0.00367623
0.00367622
0.00367623
0.00366148
0.00367584
0.00367623
0.0036615
0.00367586
0.00366151
0.00367586
0.0036615
0.00367586
0.00367624
0.0036615
0.00367587
0.0036615
0.00367586
0.00367623
0.00367623
0.00362721
0.00362721
0.00362797
0.00363349
0.00363349
0.00363099
0.00362867
0.00363184
0.00362945
0.00362868
0.00363184
0.00362945
0.00365771
0.00364486
0.00364637
0.00364595
0.00363703
0.00364205
0.00365995
0.00365296
0.00364911
0.00363873
0.00363512
0.00363979
0.00364487
0.00365771
0.00364638
0.00363703
0.00364595
0.00364205
0.00363873
0.00363513
0.00363979
0.00365995
0.00365296
0.00364911
0.00368136
0.00368134
0.00367358
0.00365134
0.00365134
0.00366232
0.00368511
0.00365597
0.00366792
0.00368511
0.00365597
0.00366792
0.0035764
0.00358839
0.00357478
0.00358
0.00357678
0.00358491
0.0035767
0.00355468
0.00361077
0.00358125
0.00356573
0.00358951
0.00358097
0.00359806
0.00359753
0.00360699
0.0035971
0.00358379
0.0035938
0.00357194
0.00357645
0.00357361
0.00357852
0.00357974
0.00356146
0.0035711
0.00357636
0.00358837
0.00357999
0.00357477
0.00358489
0.00357675
0.00357669
0.0035547
0.00361076
0.00358125
0.00356564
0.0035895
0.0035809
0.00359804
0.00360698
0.00359749
0.00359705
0.00359378
0.00358373
0.00357191
0.00357644
0.00357361
0.00357852
0.0035797
0.00356151
0.00357112
0.00358027
0.00357826
0.00357825
0.00357395
0.00357394
0.0035781
0.00359182
0.00360889
0.00359989
0.00359353
0.00360688
0.00359446
0.00358399
0.00359182
0.00360889
0.00359989
0.00359352
0.00360688
0.00359446
0.00358399
0.00358892
0.00357967
0.0035797
0.00360622
0.00356691
0.00356692
0.00358196
0.00357544
0.00358244
0.00357702
0.00358315
0.00357681
0.00357766
0.00358195
0.00357544
0.00358244
0.00357702
0.00358315
0.00357681
0.00357765
0.00354036
0.00354184
0.00353357
0.00353482
0.00354014
0.0035414
0.00353379
0.00354705
0.00355531
0.0035472
0.00355374
0.00354801
0.00354722
0.00354883
0.00355418
0.00355527
0.00355421
0.00354707
0.0035483
0.00354021
0.00353441
0.00354025
0.00354102
0.00353361
0.00354661
0.00353982
0.00354035
0.00354184
0.00353481
0.00353357
0.0035414
0.00354013
0.00353378
0.00354704
0.00355531
0.0035472
0.00355373
0.00354801
0.00354721
0.00354882
0.00355527
0.00355418
0.0035542
0.0035483
0.00354706
0.0035402
0.00353441
0.00354025
0.00354101
0.00353361
0.0035466
0.00353981
0.00354107
0.00353336
0.00353336
0.00353989
0.00353989
0.00353447
0.0035472
0.00355345
0.00355422
0.0035483
0.00355411
0.00354667
0.00354712
0.0035472
0.00355344
0.00355422
0.0035483
0.00355411
0.00354667
0.00354712
0.00354798
0.00355347
0.00355347
0.00355514
0.00354668
0.00354668
0.00354043
0.00353363
0.00354128
0.00353362
0.00354003
0.00354019
0.00353399
0.00354043
0.00353363
0.00354128
0.00353362
0.00354003
0.00354019
0.00353399
0.00368131
0.00368136
0.00367357
0.00365133
0.00365133
0.00366231
0.00368512
0.00365596
0.00366791
0.00368516
0.00365597
0.00366791
0.00365201
0.00365386
0.00365199
0.00365386
0.00364816
0.00368157
0.00368162
0.00366829
0.0036275
0.0036275
0.0036445
0.00363557
0.00364711
0.00364711
0.00365351
0.00363963
0.00363963
0.00363554
0.00362159
0.00363905
0.00362167
0.00363656
0.00363217
0.00362232
0.00363555
0.00362159
0.00363903
0.00362172
0.00363653
0.00363217
0.00362232
0.0036474
0.00367949
0.00365334
0.00364953
0.0036635
0.00364101
0.0036451
0.0036474
0.00367948
0.00365335
0.00364951
0.0036635
0.00364099
0.0036451
0.00363955
0.00363708
0.00363713
0.00363338
0.00363335
0.00362781
0.0036577
0.00364485
0.00364636
0.00364595
0.00363703
0.00364204
0.00365994
0.00365295
0.0036491
0.00363872
0.00363512
0.00363978
0.00365769
0.00364485
0.00364636
0.00364595
0.00363703
0.00364204
0.00365993
0.00365295
0.0036491
0.00363872
0.00363512
0.00363978
0.00364757
0.00366331
0.00365978
0.00364576
0.00364232
0.00364622
0.00364567
0.00363391
0.00365808
0.00364537
0.00366136
0.00365389
0.00365069
0.00361247
0.003638
0.00361697
0.0036222
0.00362595
0.00363865
0.00363527
0.0036475
0.0036633
0.00365978
0.00364576
0.00364232
0.00364623
0.00364566
0.00363389
0.00364534
0.003658
0.00366135
0.00365388
0.00365068
0.00361255
0.00363799
0.00361696
0.00362223
0.00363865
0.0036353
0.00362591
0.00363619
0.00365052
0.00364191
0.0036421
0.00364292
0.00364238
0.00363569
0.00363348
0.00363232
0.00364245
0.003635
0.0036361
0.00363928
0.00363008
0.00363797
0.00365641
0.00364938
0.00364902
0.00364095
0.00364526
0.00364475
0.00363182
0.00363665
0.00363342
0.00362869
0.00363752
0.00363127
0.00362911
0.00363619
0.00365051
0.00364191
0.0036421
0.00364291
0.00364238
0.00363569
0.00363347
0.00363232
0.00364244
0.003635
0.00363927
0.0036361
0.00363008
0.00363797
0.0036564
0.00364938
0.00364902
0.00364526
0.00364475
0.00364095
0.00363182
0.00363665
0.00363342
0.00362869
0.00363752
0.00363127
0.00362911
0.00368134
0.00368135
0.00367356
0.00365133
0.00365133
0.00366231
0.00368515
0.00365596
0.0036679
0.00368516
0.00365597
0.00366791
0.00365201
0.00365386
0.00364815
0.00368158
0.00368154
0.00366829
0.00362748
0.0036274
0.0036445
0.00363557
0.00364711
0.00364711
0.00363963
0.00365351
0.00363963
0.00363554
0.00362159
0.00363904
0.00362167
0.00363217
0.00363655
0.00362232
0.00363554
0.00362159
0.00363903
0.00362172
0.00363653
0.00363217
0.00362231
0.00364739
0.00367949
0.00365334
0.00364952
0.00364509
0.0036635
0.00364101
0.0036474
0.00367947
0.00365335
0.00364951
0.0036635
0.00364096
0.00364509
0.00363954
0.00363707
0.00363712
0.00363337
0.00363332
0.0036278
0.00365199
0.00365385
0.00365771
0.00364486
0.00364637
0.00364595
0.00363703
0.00364205
0.00365995
0.00365296
0.0036491
0.00363873
0.00363512
0.00363979
0.00364486
0.00365771
0.00364637
0.00363703
0.00364595
0.00364205
0.00363873
0.00363512
0.00363979
0.00365995
0.00365296
0.0036491
0.00364763
0.0036598
0.00366339
0.00364578
0.00364625
0.00364237
0.00364567
0.00363392
0.00365816
0.0036454
0.00366137
0.00365389
0.00365071
0.00361254
0.00363803
0.00362221
0.00361698
0.003626
0.0036353
0.00363873
0.0036362
0.00365053
0.00364192
0.00364211
0.00364292
0.00364239
0.0036357
0.00363348
0.00363232
0.00364245
0.00363501
0.0036361
0.00363928
0.00363008
0.00363797
0.00365642
0.00364938
0.00364902
0.00364095
0.00364526
0.00364476
0.00363183
0.00363666
0.00363343
0.00362869
0.00363752
0.00363127
0.00362911
0.00364759
0.00366338
0.00365979
0.00364578
0.00364236
0.00364625
0.00364567
0.00363391
0.00364538
0.00365814
0.00366137
0.00365389
0.0036507
0.00361245
0.00363802
0.00361698
0.00362223
0.00363873
0.00363531
0.003626
0.0036362
0.00364192
0.00365053
0.00364211
0.00364292
0.00363569
0.00364239
0.00363348
0.00363232
0.00363501
0.00364245
0.00363928
0.00363008
0.0036361
0.00363183
0.00363666
0.00363343
0.00362869
0.00363752
0.00363127
0.00362911
0.00363797
0.00365641
0.00364938
0.00364902
0.00364526
0.00364475
0.00364095
0.00362721
0.00362721
0.00362797
0.00363349
0.00363349
0.00363099
0.00362867
0.00363184
0.00362945
0.00362868
0.00363184
0.00362945
0.00362721
0.00362721
0.00362797
0.0036335
0.0036335
0.00363099
0.00362868
0.00363184
0.00362945
0.00362868
0.00363184
0.00362945
0.00362721
0.00362721
0.00362797
0.0036335
0.0036335
0.00363099
0.00362868
0.00363184
0.00362945
0.00362868
0.00363184
0.00362945
0.00362336
0.00362593
0.00362593
0.00362227
0.00362665
0.00362282
0.00362282
0.00362622
0.00362942
0.00363187
0.00363187
0.00362963
0.00362774
0.00362774
0.00362479
0.00362738
0.00363032
0.00362589
0.00362812
0.00362641
0.00362425
0.0036248
0.00362739
0.00363032
0.00362589
0.00362812
0.00362641
0.00362425
0.00362336
0.00362593
0.00362593
0.00362227
0.00362665
0.00362282
0.00362282
0.00362622
0.00362942
0.00363187
0.00363187
0.00362774
0.00362963
0.00362774
0.00362479
0.00362738
0.00363032
0.00362588
0.00362641
0.00362812
0.00362425
0.0036248
0.00362739
0.00363032
0.00362589
0.00362812
0.00362425
0.00362641
0.00362337
0.00362593
0.00362593
0.00362227
0.00362665
0.00362282
0.00362282
0.00362622
0.00362942
0.00363188
0.00363188
0.00362774
0.00362964
0.00362774
0.0036248
0.00362739
0.00363033
0.00362589
0.00362641
0.00362812
0.00362425
0.0036248
0.00362739
0.00363033
0.00362589
0.00362813
0.00362425
0.00362641
0.00362337
0.00362593
0.00362593
0.00362227
0.00362665
0.00362282
0.00362282
0.00362622
0.00362942
0.00363188
0.00363188
0.00362964
0.00362774
0.00362774
0.0036248
0.00362739
0.00363033
0.00362589
0.00362812
0.00362425
0.00362641
0.0036248
0.00362739
0.00363033
0.00362589
0.00362813
0.00362425
0.00362641
0.00364486
0.00365771
0.00364637
0.00363703
0.00364595
0.00364205
0.00363873
0.00363512
0.00363979
0.00365995
0.00365296
0.00364911
0.0036362
0.00365053
0.00364192
0.00364212
0.00364292
0.00364239
0.0036357
0.00363348
0.00363232
0.00364245
0.00363501
0.00363928
0.0036361
0.00363008
0.00363797
0.00365642
0.00364938
0.00364902
0.00364527
0.00364095
0.00364476
0.00363183
0.00363666
0.00363343
0.00362869
0.00363752
0.00362911
0.00363128
0.00364767
0.0036598
0.0036634
0.00364579
0.00364624
0.00364239
0.00364567
0.00363392
0.00364539
0.00365817
0.00366138
0.00365388
0.00365071
0.00361252
0.00363803
0.00362221
0.00361697
0.00363529
0.00363876
0.00362597
0.0036362
0.00364192
0.00365053
0.00364212
0.00364292
0.0036357
0.00364239
0.00363348
0.00363232
0.00363501
0.00364245
0.00363008
0.00363928
0.0036361
0.00363183
0.00363666
0.00363343
0.0036287
0.00362911
0.00363752
0.00363128
0.00363797
0.00365642
0.00364938
0.00364902
0.00364527
0.00364475
0.00364095
0.00364757
0.00366336
0.0036598
0.00364579
0.0036424
0.00364625
0.00364566
0.00363391
0.00364537
0.00365816
0.00366137
0.00365388
0.0036507
0.00361261
0.00363802
0.00361696
0.00362224
0.00363875
0.00363532
0.00362596
0.0036814
0.00368147
0.00367358
0.00365134
0.00365134
0.00366232
0.00368516
0.00365597
0.00366792
0.00368521
0.00365597
0.00366792
0.00365199
0.00365386
0.00364817
0.0036816
0.00368163
0.0036683
0.00362754
0.00362745
0.00364451
0.00363558
0.00364712
0.00364712
0.00363963
0.00365352
0.00363963
0.00363555
0.00362159
0.00363904
0.00362171
0.00363217
0.00363655
0.00362232
0.00363555
0.00362159
0.00363903
0.00362171
0.00363655
0.00363217
0.00362231
0.00364741
0.00367946
0.00365335
0.00364952
0.0036451
0.00366351
0.00364102
0.00364741
0.00367951
0.00365335
0.00364952
0.00366351
0.00364098
0.0036451
0.00363957
0.00363714
0.00363712
0.00363338
0.00363338
0.00362781
0.00365199
0.00365385
0.00364486
0.00365771
0.00364637
0.00363703
0.00364595
0.00364205
0.00363873
0.00363513
0.00363979
0.00365995
0.00365296
0.00364911
0.0036362
0.00364192
0.00365053
0.00364212
0.00364293
0.0036357
0.00364239
0.00363348
0.00363232
0.00363501
0.00364245
0.00363928
0.00363008
0.0036361
0.00363183
0.00363666
0.00363343
0.0036287
0.00363753
0.00362911
0.00363128
0.00363798
0.00365642
0.00364939
0.00364902
0.00364527
0.00364096
0.00364476
0.0036362
0.00364192
0.00365053
0.00364212
0.00364292
0.0036357
0.00364239
0.00363348
0.00363232
0.00363501
0.00364245
0.00363008
0.00363928
0.0036361
0.00363183
0.00363666
0.00363343
0.0036287
0.00362911
0.00363752
0.00363128
0.00363797
0.00365642
0.00364938
0.00364902
0.00364527
0.00364475
0.00364095
0.00364768
0.0036598
0.0036634
0.00364579
0.00364624
0.00364235
0.00364567
0.00363392
0.00364539
0.00365818
0.00366138
0.00365389
0.00365071
0.00361253
0.00363803
0.00362221
0.00361699
0.00363529
0.00363874
0.00362599
0.00364755
0.0036598
0.00366339
0.00364578
0.00364625
0.00364234
0.00364566
0.00363391
0.00364537
0.00365816
0.00366137
0.00365388
0.0036507
0.00361253
0.00363802
0.00362224
0.00361699
0.00363532
0.00363874
0.003626
0.00364816
0.00368161
0.00368154
0.0036683
0.00362743
0.00362743
0.0036445
0.00363557
0.00364712
0.00364712
0.00365352
0.00363963
0.00363963
0.00363553
0.00362159
0.00363903
0.00362172
0.00362231
0.00363216
0.00363653
0.00363554
0.00362159
0.00363903
0.0036217
0.00362231
0.00363217
0.00363654
0.0036474
0.00367949
0.00365335
0.00364951
0.00366351
0.00364509
0.00364098
0.0036474
0.00367948
0.00365335
0.0036495
0.00366351
0.0036451
0.00364098
0.00363955
0.00363715
0.00363711
0.00362781
0.00363335
0.00363339
0.00365198
0.00365384
0.00365197
0.00365384
0.00356143
0.00357107
0.00356155
0.00357109
0.00358026
0.00357822
0.00357821
0.00357391
0.0035739
0.00357808
0.00359183
0.00360889
0.00359986
0.00359349
0.00360689
0.00358397
0.00359445
0.00359181
0.00360889
0.00359991
0.00359352
0.00360688
0.003584
0.00359446
0.00358893
0.00357974
0.00357975
0.00360624
0.00356692
0.00356691
0.00358196
0.00357543
0.00358242
0.00357701
0.0035768
0.00357765
0.00358313
0.00358194
0.00357541
0.00358243
0.00357701
0.00357679
0.00357763
0.00358314
0.00356666
0.00357273
0.00356667
0.00357272
0.00357411
0.00357698
0.003577
0.00357696
0.00357245
0.00357247
0.00356747
0.00356019
0.00356898
0.00356133
0.00356764
0.00356619
0.00356116
0.00356747
0.00356019
0.00356898
0.00356134
0.00356765
0.00356618
0.00356115
0.00357243
0.00357479
0.00357388
0.0035735
0.0035754
0.0035724
0.00357081
0.00357242
0.00357478
0.00357388
0.00357349
0.00357539
0.0035724
0.0035708
0.00356899
0.00356022
0.00356021
0.00356656
0.00356657
0.00356239
0.00357643
0.00358839
0.0035748
0.00358001
0.0035768
0.00358491
0.00357673
0.00355479
0.00361077
0.00358126
0.00356574
0.00358954
0.00358097
0.00359806
0.00359753
0.003607
0.0035838
0.00359706
0.00359381
0.00357196
0.00357647
0.00357364
0.00357855
0.00357974
0.00357294
0.00357388
0.00357671
0.00357332
0.00357602
0.00357165
0.00357316
0.00356635
0.00356846
0.00356274
0.00356022
0.00356939
0.00357249
0.0035763
0.00357314
0.00357782
0.0035742
0.00356767
0.0035685
0.0035612
0.00356215
0.00356122
0.00356726
0.00356823
0.00357294
0.00357388
0.00357672
0.00357332
0.00357603
0.00357165
0.00357316
0.00356635
0.00356845
0.00356274
0.00356938
0.0035602
0.00357251
0.0035763
0.00357314
0.00357783
0.0035742
0.00356766
0.0035685
0.0035612
0.00356214
0.00356726
0.00356823
0.00356121
0.00358028
0.00357821
0.00357822
0.00357393
0.00357393
0.00357809
0.00359183
0.00360889
0.00359988
0.00359349
0.00358399
0.0036069
0.00359446
0.00359182
0.00360889
0.00359991
0.00359353
0.00359446
0.00360688
0.003584
0.00358894
0.00357976
0.00357975
0.00356695
0.00360624
0.00356694
0.00358196
0.00357543
0.00358242
0.00357701
0.00357681
0.00358314
0.00357765
0.00358196
0.00357542
0.00358244
0.00357702
0.00358315
0.0035768
0.00357764
0.00356154
0.00357109
0.00356666
0.00357271
0.00357411
0.00357698
0.003577
0.00357697
0.00357246
0.00357245
0.00356747
0.00356019
0.00356898
0.00356134
0.00356618
0.00356764
0.00356116
0.00356746
0.00356019
0.00356898
0.00356134
0.00356765
0.00356618
0.00356115
0.00357243
0.00357478
0.00357388
0.00357349
0.00357081
0.0035754
0.00357239
0.00357242
0.00357478
0.00357389
0.0035735
0.00357539
0.00357239
0.00357081
0.00356899
0.00356022
0.00356022
0.00356656
0.00356657
0.00356239
0.00356667
0.00357272
0.00357639
0.00358837
0.00357477
0.00357999
0.00357676
0.00358489
0.00357671
0.00355471
0.00361077
0.00358126
0.00356566
0.00358952
0.00358092
0.00359804
0.00359751
0.00360698
0.00358376
0.00359705
0.00359378
0.00357197
0.00357646
0.00357362
0.00357854
0.00357975
0.00357294
0.00357671
0.00357387
0.00357332
0.00357601
0.00357316
0.00357165
0.00356638
0.00356846
0.00356275
0.00356022
0.00356939
0.00357251
0.00357629
0.00357314
0.00357782
0.0035742
0.00356768
0.0035685
0.00356215
0.0035612
0.00356122
0.00356823
0.00356727
0.00357295
0.00357388
0.00357671
0.00357332
0.00357602
0.00357165
0.00357316
0.00356637
0.00356846
0.00356274
0.00356939
0.00356021
0.00357252
0.00357631
0.00357314
0.00357782
0.0035742
0.00356768
0.0035685
0.0035612
0.00356214
0.00356727
0.00356822
0.00356122
0.00357637
0.00358837
0.00358
0.00357476
0.00358489
0.00357674
0.00357669
0.00355466
0.00361076
0.00358124
0.00358951
0.00356565
0.00358092
0.00359804
0.00360698
0.00359748
0.00359379
0.00359706
0.00358372
0.00357192
0.00357645
0.00357361
0.00357852
0.00357974
0.00357637
0.00358837
0.00357478
0.00358
0.00357675
0.00358489
0.00357672
0.00355467
0.00361078
0.00358127
0.00356567
0.00358952
0.00358089
0.00359804
0.00359748
0.00360699
0.00359703
0.00358373
0.00359378
0.00357194
0.00357646
0.00357363
0.00357853
0.00357976
0.00357294
0.00357671
0.00357388
0.00357332
0.00357602
0.00357316
0.00357165
0.00356635
0.00356846
0.00356274
0.00356939
0.0035602
0.00357251
0.0035763
0.00357314
0.00357785
0.0035742
0.00356767
0.0035685
0.00356214
0.0035612
0.00356822
0.00356727
0.00356121
0.00357295
0.00357388
0.00357672
0.00357332
0.00357604
0.00357165
0.00357316
0.00356638
0.00356846
0.00356274
0.00356939
0.00356021
0.00357252
0.00357631
0.00357314
0.00357785
0.00357421
0.00356768
0.0035685
0.0035612
0.00356214
0.00356727
0.00356823
0.00356122
0.00358026
0.00357823
0.00357824
0.00357391
0.00357392
0.00357809
0.00359181
0.00360889
0.00359989
0.00359351
0.00358398
0.00360688
0.00359446
0.00359181
0.00360889
0.00359989
0.00359352
0.00359446
0.00360688
0.00358397
0.0035889
0.00357968
0.00357967
0.00356688
0.00360621
0.00356689
0.00358194
0.00357543
0.00358243
0.00357702
0.0035768
0.00358314
0.00357764
0.00358195
0.00357543
0.00358244
0.00357702
0.00358314
0.00357679
0.00357765
0.00356152
0.0035711
0.00356666
0.00357274
0.00357412
0.00357701
0.00357701
0.00357698
0.00357248
0.00357247
0.00356747
0.00356019
0.00356898
0.00356134
0.00356619
0.00356766
0.00356115
0.00356747
0.00356019
0.00356898
0.00356133
0.00356765
0.00356619
0.00356115
0.00357244
0.0035748
0.00357389
0.00357351
0.00357082
0.0035754
0.00357242
0.00357244
0.0035748
0.00357389
0.0035735
0.00357541
0.00357241
0.00357082
0.003569
0.00356021
0.00356021
0.00356659
0.00356658
0.00356239
0.00356666
0.00357275
0.00357638
0.00358837
0.00358
0.00357477
0.0035849
0.00357675
0.00357671
0.00355464
0.00361076
0.00358126
0.0035895
0.00356568
0.00358091
0.00359804
0.00360698
0.0035975
0.00359379
0.00359705
0.00358374
0.00357195
0.00357646
0.00357362
0.00357852
0.00357976
0.00357638
0.00358837
0.00358
0.00357477
0.00358489
0.00357676
0.00357671
0.00355469
0.00361078
0.00358127
0.00356569
0.00358953
0.00358091
0.00359804
0.00360699
0.00359751
0.00359706
0.00359378
0.00358376
0.00357196
0.00357647
0.00357363
0.00357854
0.00357976
0.00357294
0.00357672
0.00357388
0.00357332
0.00357601
0.00357316
0.00357165
0.00356636
0.00356845
0.00356274
0.00356938
0.00356021
0.00357249
0.0035763
0.00357315
0.0035778
0.0035742
0.00356767
0.0035685
0.00356214
0.00356119
0.00356822
0.00356726
0.00356121
0.00357294
0.00357671
0.00357388
0.00357332
0.00357602
0.00357316
0.00357165
0.00356636
0.00356845
0.00356274
0.00356938
0.0035602
0.00357251
0.0035763
0.00357314
0.00357782
0.0035742
0.00356767
0.0035685
0.00356214
0.0035612
0.00356822
0.00356726
0.00356121
0.00356154
0.00357113
0.00356155
0.00357113
0.00357412
0.00357701
0.00357701
0.00357698
0.00357246
0.00357246
0.00356747
0.00356019
0.00356898
0.00356133
0.00356115
0.00356619
0.00356764
0.00356747
0.00356019
0.00356898
0.00356133
0.00356115
0.00356618
0.00356764
0.00357243
0.0035748
0.00357389
0.0035735
0.00357541
0.00357082
0.00357241
0.00357243
0.0035748
0.00357389
0.0035735
0.0035754
0.00357081
0.00357241
0.00356899
0.00356021
0.00356021
0.00356238
0.00356656
0.00356656
0.00356666
0.00357273
0.00356666
0.00357273
0.0035466
0.00353982
0.00354661
0.00353982
0.00354107
0.00353336
0.00353337
0.0035399
0.0035399
0.00353447
0.00354721
0.00355345
0.00355423
0.00354831
0.00355412
0.00354713
0.00354668
0.0035472
0.00355345
0.00355423
0.00354831
0.00355412
0.00354713
0.00354668
0.00354799
0.00355348
0.00355347
0.00355514
0.00354669
0.00354669
0.00354043
0.00353364
0.00354129
0.00353362
0.0035402
0.003534
0.00354003
0.00354043
0.00353364
0.00354129