/*--------------------------------*- C++ -*----------------------------------*\
| =========                 |                                                 |
| \\      /  F ield         | OpenFOAM: The Open Source CFD Toolbox           |
|  \\    /   O peration     | Version:  v2012                                 |
|   \\  /    A nd           | Website:  www.openfoam.com                      |
|    \\/     M anipulation  |                                                 |
\*---------------------------------------------------------------------------*/
FoamFile
{
    version     2.0;
    format      ascii;
    class       volScalarField;
    location    "1587.5";
    object      k;
}
// * * * * * * * * * * * * * * * * * * * * * * * * * * * * * * * * * * * * * //

dimensions      [0 2 -2 0 0 0 0];


internalField   nonuniform List<scalar> 
171728
(
1.68742e-07
2.57665e-07
3.41734e-07
3.6358e-07
1.67816e-07
2.45266e-07
3.24693e-07
3.43719e-07
1.62543e-07
2.33283e-07
3.06725e-07
3.21266e-07
1.57683e-07
2.22341e-07
2.90503e-07
3.02275e-07
1.52539e-07
2.11945e-07
2.76173e-07
2.84606e-07
1.47804e-07
2.02753e-07
2.64021e-07
2.68341e-07
1.44018e-07
1.95056e-07
2.53391e-07
2.54249e-07
1.36959e-07
1.89049e-07
2.4413e-07
2.42066e-07
1.30102e-07
1.8405e-07
2.35623e-07
2.31898e-07
1.26724e-07
1.79081e-07
2.27849e-07
2.23286e-07
1.24134e-07
1.74339e-07
2.20319e-07
2.15244e-07
1.21549e-07
1.70441e-07
2.13722e-07
2.07543e-07
1.19091e-07
1.67648e-07
2.10018e-07
2.00128e-07
1.16699e-07
1.66085e-07
2.07792e-07
1.94508e-07
1.14325e-07
1.66621e-07
2.06947e-07
1.91628e-07
1.12098e-07
1.70684e-07
2.08969e-07
1.92261e-07
1.09928e-07
1.79799e-07
2.16502e-07
1.99527e-07
1.07906e-07
1.96583e-07
2.32573e-07
2.18147e-07
1.05973e-07
2.26027e-07
2.61395e-07
2.5745e-07
1.04056e-07
2.75524e-07
3.08722e-07
3.31554e-07
1.02331e-07
3.48578e-07
3.87266e-07
4.71399e-07
1.00907e-07
4.73846e-07
4.88268e-07
7.20651e-07
9.99466e-08
6.15306e-07
6.70196e-07
1.12585e-06
9.9987e-08
8.47271e-07
9.05286e-07
1.74046e-06
1.01396e-07
1.25217e-06
1.21002e-06
2.93982e-06
1.04013e-07
1.57199e-06
1.63341e-06
3.414e-06
1.10677e-07
2.11107e-06
2.16263e-06
6.91247e-06
1.20322e-07
2.78336e-06
2.76068e-06
7.10819e-06
1.36746e-07
3.38424e-06
3.5508e-06
1.05714e-05
1.56855e-07
4.54196e-06
4.35651e-06
1.18183e-05
1.94546e-07
5.16537e-06
5.44674e-06
1.58164e-05
2.38128e-07
6.77556e-06
6.4637e-06
1.66018e-05
3.11167e-07
7.35407e-06
7.8123e-06
1.96459e-05
3.88684e-07
9.40837e-06
9.05601e-06
2.15749e-05
5.26992e-07
1.03917e-05
1.06654e-05
2.35347e-05
6.74183e-07
1.2015e-05
1.20982e-05
2.47463e-05
8.61137e-07
1.40668e-05
1.37338e-05
2.66983e-05
1.16457e-06
1.51486e-05
1.56383e-05
2.80301e-05
1.35579e-06
1.74732e-05
1.71037e-05
2.91402e-05
1.82545e-06
1.88063e-05
1.92026e-05
3.04797e-05
2.20732e-06
2.10354e-05
2.10905e-05
3.17823e-05
2.86149e-06
2.28098e-05
2.20237e-05
3.27543e-05
3.20144e-06
2.37042e-05
2.46826e-05
3.40435e-05
4.22933e-06
2.68292e-05
2.64978e-05
3.50234e-05
5.04088e-06
2.79054e-05
2.77649e-05
3.62267e-05
5.64354e-06
2.96132e-05
2.96216e-05
3.72234e-05
7.10658e-06
3.06875e-05
3.11772e-05
3.83248e-05
7.70208e-06
3.30322e-05
3.28171e-05
3.92402e-05
9.76678e-06
3.45733e-05
3.43712e-05
4.06202e-05
1.07413e-05
3.49434e-05
3.5281e-05
4.09854e-05
1.20276e-05
3.72743e-05
3.72137e-05
4.24281e-05
1.34523e-05
3.76536e-05
3.75387e-05
4.35972e-05
1.47104e-05
3.96328e-05
3.97607e-05
4.32957e-05
1.69546e-05
4.02711e-05
4.01097e-05
4.38651e-05
1.81739e-05
4.13128e-05
4.14078e-05
4.79901e-05
1.9751e-05
4.30687e-05
4.30937e-05
4.65633e-05
2.18758e-05
4.31502e-05
4.32033e-05
4.55488e-05
2.2214e-05
4.36546e-05
4.35349e-05
4.62637e-05
2.42947e-05
4.56114e-05
4.56802e-05
4.96958e-05
2.66735e-05
4.63673e-05
4.6385e-05
5.10527e-05
2.70321e-05
4.74064e-05
4.74013e-05
5.06084e-05
2.90136e-05
4.77569e-05
4.77914e-05
4.90686e-05
2.98651e-05
4.77797e-05
4.77182e-05
4.91637e-05
3.01633e-05
4.92215e-05
4.90426e-05
5.24402e-05
3.2463e-05
5.06619e-05
5.06954e-05
5.36064e-05
3.39773e-05
5.09873e-05
5.10424e-05
5.2786e-05
3.47139e-05
5.05832e-05
5.12189e-05
5.28588e-05
3.48654e-05
5.11694e-05
5.12448e-05
5.35415e-05
3.62901e-05
5.28376e-05
5.21063e-05
5.35013e-05
3.81072e-05
5.30909e-05
5.31052e-05
5.48203e-05
3.89371e-05
5.30346e-05
5.33024e-05
5.57289e-05
3.90742e-05
5.38526e-05
5.41333e-05
5.51698e-05
3.96957e-05
5.42098e-05
5.41742e-05
5.448e-05
4.09765e-05
5.43224e-05
5.40774e-05
5.61178e-05
4.17778e-05
5.51994e-05
5.51767e-05
5.7267e-05
4.22561e-05
5.51734e-05
5.55229e-05
5.6627e-05
4.31301e-05
5.52101e-05
5.5421e-05
5.61152e-05
4.40228e-05
5.61837e-05
5.59395e-05
5.67057e-05
4.42443e-05
5.64591e-05
5.63679e-05
5.75666e-05
4.38847e-05
5.59932e-05
5.56284e-05
5.72179e-05
4.44553e-05
5.70179e-05
5.65296e-05
5.77534e-05
4.65394e-05
5.74846e-05
5.84398e-05
5.89917e-05
4.56783e-05
5.54428e-05
5.6077e-05
5.68865e-05
4.47165e-05
5.59592e-05
5.47276e-05
5.62898e-05
4.64881e-05
5.90203e-05
5.79349e-05
5.92793e-05
4.835e-05
5.88643e-05
5.98961e-05
6.01976e-05
4.71623e-05
5.53025e-05
5.73935e-05
5.72037e-05
4.43381e-05
5.45271e-05
5.39761e-05
5.55572e-05
4.47575e-05
5.78875e-05
5.55208e-05
5.81857e-05
4.91951e-05
5.98596e-05
5.98198e-05
6.03849e-05
4.94405e-05
5.79318e-05
5.93077e-05
5.91899e-05
4.56463e-05
5.48993e-05
5.53489e-05
5.67344e-05
4.47235e-05
5.50319e-05
5.48492e-05
5.61126e-05
4.64859e-05
5.68663e-05
5.62802e-05
5.7211e-05
4.7192e-05
5.6515e-05
5.61321e-05
5.87614e-05
3.56367e-07
3.6537e-07
2.97739e-07
3.51215e-07
2.92197e-07
3.422e-07
1.64658e-07
1.50123e-07
1.70838e-07
1.57962e-07
2.88844e-07
2.9508e-07
3.60988e-07
3.42523e-07
3.32131e-07
3.64643e-07
3.55269e-07
3.37918e-07
3.94173e-07
2.61521e-07
3.92903e-07
2.54883e-07
3.50334e-07
3.29827e-07
2.60321e-07
4.09418e-07
2.51133e-07
4.0588e-07
2.58096e-07
2.48415e-07
2.48905e-07
3.58716e-07
3.44362e-07
4.1769e-07
3.29448e-07
3.50076e-07
3.45208e-07
3.35417e-07
3.21572e-07
3.9289e-07
2.5219e-07
3.93467e-07
2.44707e-07
3.28691e-07
3.093e-07
2.47904e-07
4.04484e-07
2.38728e-07
4.01694e-07
2.45932e-07
2.36158e-07
2.37127e-07
3.41637e-07
3.29901e-07
3.27898e-07
3.11026e-07
2.78179e-07
3.22482e-07
3.19218e-07
3.0853e-07
3.94152e-07
2.42557e-07
3.96879e-07
2.36699e-07
3.08278e-07
2.91484e-07
2.35815e-07
4.01291e-07
2.27469e-07
4.00709e-07
2.34158e-07
2.25036e-07
2.25342e-07
3.27452e-07
3.17759e-07
2.67004e-07
2.94392e-07
2.48361e-07
3.03289e-07
3.06464e-07
2.98727e-07
3.97781e-07
2.34815e-07
4.03711e-07
2.29792e-07
2.90578e-07
2.75742e-07
2.24883e-07
4.00735e-07
2.17185e-07
4.01555e-07
2.22417e-07
2.14461e-07
2.13737e-07
3.15453e-07
3.07584e-07
2.45311e-07
2.79676e-07
2.38388e-07
2.85546e-07
2.97186e-07
2.93136e-07
4.06039e-07
2.2839e-07
4.16929e-07
2.24478e-07
2.7493e-07
2.61481e-07
2.14818e-07
4.02019e-07
2.08252e-07
4.04132e-07
2.11017e-07
2.04791e-07
2.03414e-07
3.05551e-07
2.99024e-07
2.36192e-07
2.66835e-07
2.29994e-07
2.69105e-07
2.92208e-07
2.90031e-07
4.21918e-07
2.23191e-07
4.30095e-07
2.19453e-07
2.60765e-07
2.48801e-07
2.06345e-07
4.05135e-07
2.01314e-07
4.08564e-07
2.01093e-07
1.96807e-07
1.94582e-07
2.97227e-07
2.9165e-07
2.28025e-07
2.55902e-07
2.22231e-07
2.54856e-07
2.8935e-07
2.74646e-07
4.29825e-07
2.18218e-07
3.85349e-07
2.14462e-07
2.48242e-07
2.37894e-07
1.99882e-07
4.10428e-07
1.95843e-07
4.16417e-07
1.92611e-07
1.90351e-07
1.87244e-07
2.90068e-07
2.85237e-07
2.20376e-07
2.46367e-07
2.14687e-07
2.42529e-07
2.71965e-07
2.41938e-07
3.56365e-07
2.13206e-07
2.74204e-07
2.09486e-07
2.37477e-07
2.2842e-07
1.94482e-07
4.18523e-07
1.90303e-07
4.24879e-07
1.85608e-07
1.85193e-07
1.81373e-07
2.83723e-07
2.78731e-07
2.12776e-07
2.37728e-07
2.07453e-07
2.3219e-07
2.40066e-07
2.21534e-07
2.50942e-07
2.08281e-07
2.00062e-07
2.0496e-07
2.28089e-07
2.19624e-07
1.88767e-07
4.26342e-07
1.84151e-07
4.27138e-07
1.80197e-07
1.80358e-07
1.76867e-07
2.77176e-07
2.6996e-07
2.05794e-07
2.29711e-07
2.01333e-07
2.23461e-07
2.20993e-07
2.10524e-07
1.89303e-07
2.03857e-07
1.70608e-07
2.00889e-07
2.19333e-07
2.11162e-07
1.82582e-07
4.25721e-07
1.78336e-07
4.03973e-07
1.75802e-07
1.75482e-07
1.72904e-07
2.68584e-07
2.54762e-07
2.00148e-07
2.22163e-07
1.96522e-07
2.15338e-07
2.10443e-07
2.02851e-07
1.67515e-07
1.99967e-07
1.62264e-07
1.97314e-07
2.10934e-07
2.03713e-07
1.77141e-07
3.91059e-07
1.74374e-07
3.47423e-07
1.71942e-07
1.71271e-07
1.69228e-07
2.52998e-07
2.35259e-07
1.95185e-07
2.15248e-07
1.91551e-07
2.07609e-07
2.02914e-07
1.96456e-07
1.61335e-07
1.96353e-07
1.60085e-07
1.93768e-07
2.03616e-07
1.97377e-07
1.7368e-07
3.36167e-07
1.72138e-07
3.16176e-07
1.68488e-07
1.68236e-07
1.66511e-07
2.33942e-07
2.25246e-07
1.90398e-07
2.10731e-07
1.86779e-07
2.00094e-07
1.96645e-07
1.91577e-07
1.60126e-07
1.92936e-07
1.61317e-07
1.9106e-07
1.97417e-07
1.92223e-07
1.71685e-07
3.11448e-07
1.71133e-07
2.90797e-07
1.66109e-07
1.66377e-07
1.65741e-07
2.25165e-07
2.21829e-07
1.85698e-07
2.08227e-07
1.84206e-07
1.94238e-07
1.91945e-07
1.8865e-07
1.61873e-07
1.90791e-07
1.65004e-07
1.90557e-07
1.92469e-07
1.89174e-07
1.71118e-07
2.81315e-07
1.71527e-07
2.4989e-07
1.65893e-07
1.66301e-07
1.67571e-07
2.21385e-07
2.10498e-07
1.84158e-07
2.06904e-07
1.84638e-07
1.90908e-07
1.89446e-07
1.88911e-07
1.66299e-07
1.90791e-07
1.71485e-07
1.93153e-07
1.89872e-07
1.89522e-07
1.71911e-07
2.39754e-07
1.74267e-07
2.15269e-07
1.68609e-07
1.6936e-07
1.73307e-07
2.1047e-07
2.0321e-07
1.84789e-07
2.08309e-07
1.85387e-07
1.90649e-07
1.90568e-07
1.94391e-07
1.73579e-07
1.94585e-07
1.82113e-07
1.99746e-07
1.91084e-07
1.94315e-07
1.7525e-07
2.08995e-07
1.81518e-07
2.04348e-07
1.75331e-07
1.76962e-07
1.84036e-07
2.03758e-07
2.04709e-07
1.85998e-07
2.1421e-07
1.91711e-07
1.96343e-07
1.97775e-07
2.08464e-07
1.86016e-07
2.02633e-07
2.00165e-07
2.14017e-07
1.97935e-07
2.07519e-07
1.8462e-07
2.04939e-07
1.96248e-07
2.14105e-07
1.87206e-07
1.91462e-07
2.01996e-07
2.07675e-07
2.17245e-07
1.93583e-07
2.27055e-07
2.06525e-07
2.11333e-07
2.15086e-07
2.38664e-07
2.06229e-07
2.19471e-07
2.28449e-07
2.43029e-07
2.14437e-07
2.38118e-07
2.01263e-07
2.19297e-07
2.21211e-07
2.36966e-07
2.07932e-07
2.17524e-07
2.32009e-07
2.23619e-07
2.4624e-07
2.11947e-07
2.51405e-07
2.37602e-07
2.45573e-07
2.50407e-07
2.97924e-07
2.37665e-07
2.52112e-07
2.73299e-07
2.84e-07
2.49977e-07
2.9216e-07
2.29781e-07
2.46503e-07
2.63249e-07
2.79731e-07
2.41271e-07
2.57206e-07
2.77688e-07
2.58489e-07
3.06737e-07
2.49532e-07
2.93965e-07
2.89947e-07
3.11521e-07
3.18694e-07
4.09394e-07
2.87532e-07
3.03294e-07
3.43579e-07
3.5737e-07
3.15548e-07
4.13474e-07
2.76803e-07
2.93137e-07
3.3021e-07
3.47667e-07
2.92696e-07
3.27818e-07
3.49452e-07
3.24906e-07
4.19495e-07
3.07811e-07
3.61641e-07
3.79825e-07
4.33194e-07
4.44544e-07
6.11624e-07
3.66718e-07
3.77709e-07
4.49309e-07
4.55865e-07
4.42404e-07
6.00972e-07
3.52835e-07
3.72861e-07
4.3092e-07
4.44577e-07
3.72456e-07
4.28052e-07
4.57826e-07
4.54168e-07
6.22747e-07
4.10569e-07
4.61197e-07
5.38609e-07
6.60564e-07
6.6924e-07
9.71438e-07
4.81697e-07
5.04963e-07
6.07088e-07
6.00246e-07
6.56959e-07
1.00543e-06
4.6458e-07
4.72209e-07
5.83794e-07
6.09301e-07
4.93454e-07
5.67622e-07
5.99726e-07
6.67418e-07
9.81444e-07
5.75168e-07
6.27016e-07
7.41318e-07
1.02468e-06
1.07006e-06
1.51284e-06
6.52349e-07
6.41934e-07
8.30578e-07
8.63222e-07
1.05123e-06
1.65186e-06
6.27404e-07
6.5301e-07
8.0324e-07
8.14904e-07
6.53139e-07
8.17193e-07
8.35801e-07
1.1001e-06
1.47878e-06
8.12254e-07
8.25647e-07
9.48266e-07
1.59605e-06
1.67047e-06
2.37074e-06
8.90997e-07
8.93014e-07
1.13724e-06
1.17286e-06
1.8095e-06
2.28194e-06
8.62066e-07
8.92767e-07
1.10354e-06
1.11818e-06
8.64747e-07
1.13613e-06
1.18809e-06
1.63034e-06
2.44578e-06
9.97137e-07
1.13388e-06
1.39836e-06
2.56171e-06
2.58714e-06
3.55911e-06
1.24e-06
1.2975e-06
1.48616e-06
1.45749e-06
2.6813e-06
3.53657e-06
1.20319e-06
1.19738e-06
1.4479e-06
1.5012e-06
1.30823e-06
1.41968e-06
1.43599e-06
2.61097e-06
3.55011e-06
1.4913e-06
1.51899e-06
1.57016e-06
3.3827e-06
3.78073e-06
5.30025e-06
1.60142e-06
1.60649e-06
2.05756e-06
2.0344e-06
3.60859e-06
5.67912e-06
1.56737e-06
1.62283e-06
2.0164e-06
1.98373e-06
1.48628e-06
1.99199e-06
2.20674e-06
3.83742e-06
5.2032e-06
1.62869e-06
1.99669e-06
2.3711e-06
6.39718e-06
5.73115e-06
7.06651e-06
2.1821e-06
2.12463e-06
2.61245e-06
2.68268e-06
5.99236e-06
7.04538e-06
2.13613e-06
2.13785e-06
2.55225e-06
2.64106e-06
2.39264e-06
2.60987e-06
2.56077e-06
5.5529e-06
7.27453e-06
2.52311e-06
2.63827e-06
2.66415e-06
7.09276e-06
7.42503e-06
9.5022e-06
2.7871e-06
2.88002e-06
3.33843e-06
3.23987e-06
7.74493e-06
9.29546e-06
2.7283e-06
2.77243e-06
3.29429e-06
3.28534e-06
2.61025e-06
3.22168e-06
3.4397e-06
7.70613e-06
9.29805e-06
2.71122e-06
3.30945e-06
3.62472e-06
9.6886e-06
1.00015e-05
1.19573e-05
3.55624e-06
3.38163e-06
4.20539e-06
4.25486e-06
9.54042e-06
1.20802e-05
3.51223e-06
3.51808e-06
4.11499e-06
4.20335e-06
3.65224e-06
4.22204e-06
3.94931e-06
9.75924e-06
1.20809e-05
3.86868e-06
4.16946e-06
4.11508e-06
1.16295e-05
1.24313e-05
1.43706e-05
4.39441e-06
4.58701e-06
5.19798e-06
5.06664e-06
1.26029e-05
1.46544e-05
4.32058e-06
4.38759e-06
5.12488e-06
5.12902e-06
4.26807e-06
5.01292e-06
5.35217e-06
1.25765e-05
1.42809e-05
4.33011e-06
5.1662e-06
5.64376e-06
1.52929e-05
1.48922e-05
1.67854e-05
5.47852e-06
5.20805e-06
6.21081e-06
6.48215e-06
1.5056e-05
1.67898e-05
5.38858e-06
5.42861e-06
6.13596e-06
6.19969e-06
5.55481e-06
6.44338e-06
6.03909e-06
1.47817e-05
1.6764e-05
5.81857e-06
6.17721e-06
5.99371e-06
1.631e-05
1.72706e-05
1.90744e-05
6.53606e-06
6.82093e-06
7.56315e-06
7.19929e-06
1.75356e-05
1.89216e-05
6.42481e-06
6.49041e-06
7.45071e-06
7.47748e-06
6.29506e-06
7.15294e-06
7.51037e-06
1.72566e-05
1.90789e-05
6.1299e-06
7.45576e-06
7.53149e-06
1.90932e-05
1.95499e-05
2.1051e-05
7.85603e-06
7.38298e-06
8.76346e-06
8.93122e-06
1.91622e-05
2.12186e-05
7.79481e-06
7.81873e-06
8.63834e-06
8.75326e-06
7.90162e-06
8.8969e-06
8.64901e-06
1.95532e-05
2.10758e-05
7.98861e-06
8.75753e-06
8.9475e-06
2.11893e-05
2.14551e-05
2.30192e-05
9.16584e-06
9.45108e-06
1.03032e-05
1.02927e-05
2.19405e-05
2.30752e-05
8.95363e-06
9.06078e-06
1.02068e-05
1.0304e-05
8.99937e-06
1.02864e-05
1.04588e-05
2.14899e-05
2.29653e-05
9.25833e-06
1.02632e-05
1.04021e-05
2.30672e-05
2.34832e-05
2.46293e-05
1.06803e-05
1.03976e-05
1.19003e-05
1.13877e-05
2.32793e-05
2.42461e-05
1.06814e-05
1.06942e-05
1.17191e-05
1.17039e-05
1.08489e-05
1.13398e-05
1.14886e-05
2.34032e-05
2.46415e-05
1.07779e-05
1.16904e-05
1.14858e-05
2.44569e-05
2.49395e-05
2.60934e-05
1.22356e-05
1.20578e-05
1.33381e-05
1.38075e-05
2.47828e-05
2.6531e-05
1.20136e-05
1.21319e-05
1.31267e-05
1.34233e-05
1.18176e-05
1.37792e-05
1.34671e-05
2.49899e-05
2.61599e-05
1.17963e-05
1.33872e-05
1.33692e-05
2.62305e-05
2.65201e-05
2.77823e-05
1.38425e-05
1.40215e-05
1.53093e-05
1.47671e-05
2.68046e-05
2.73905e-05
1.36679e-05
1.37719e-05
1.52629e-05
1.50394e-05
1.39785e-05
1.46765e-05
1.53224e-05
2.65247e-05
2.76699e-05
1.38822e-05
1.50295e-05
1.52216e-05
2.77557e-05
2.80671e-05
2.87776e-05
1.57809e-05
1.53255e-05
1.67402e-05
1.69574e-05
2.77031e-05
2.90892e-05
1.56594e-05
1.56446e-05
1.65309e-05
1.70911e-05
1.56795e-05
1.70035e-05
1.67192e-05
2.80326e-05
2.89524e-05
1.55792e-05
1.69145e-05
1.67077e-05
2.88384e-05
2.9063e-05
3.01974e-05
1.70368e-05
1.73861e-05
1.86116e-05
1.86458e-05
2.94099e-05
3.01173e-05
1.69232e-05
1.72925e-05
1.85528e-05
1.83986e-05
1.71851e-05
1.85065e-05
1.84338e-05
2.92291e-05
3.02484e-05
1.71935e-05
1.84591e-05
1.84377e-05
3.01719e-05
3.05516e-05
3.14345e-05
1.91169e-05
1.89616e-05
2.03029e-05
2.02541e-05
3.03811e-05
3.14625e-05
1.90842e-05
1.90952e-05
2.03487e-05
2.08988e-05
1.88501e-05
2.03119e-05
2.06506e-05
3.06138e-05
3.14603e-05
1.88393e-05
2.08751e-05
2.05479e-05
3.14818e-05
3.17046e-05
3.26062e-05
2.08584e-05
2.09537e-05
2.25448e-05
2.27369e-05
3.18321e-05
3.26671e-05
2.08162e-05
2.11789e-05
2.23171e-05
2.14862e-05
2.11329e-05
2.26209e-05
2.21098e-05
3.164e-05
3.21022e-05
2.09869e-05
2.14852e-05
2.20388e-05
3.25074e-05
3.28266e-05
3.34585e-05
2.27678e-05
2.30017e-05
2.36603e-05
2.32912e-05
3.28248e-05
3.31898e-05
2.25463e-05
2.16726e-05
2.36241e-05
2.43048e-05
2.25737e-05
2.31964e-05
2.41604e-05
3.23794e-05
3.40575e-05
2.25332e-05
2.43126e-05
2.41091e-05
3.37781e-05
3.3779e-05
3.50355e-05
2.43053e-05
2.3494e-05
2.5873e-05
2.61337e-05
3.34607e-05
3.52682e-05
2.43689e-05
2.53179e-05
2.60637e-05
2.72744e-05
2.44981e-05
2.61815e-05
2.56611e-05
3.4414e-05
3.52868e-05
2.44953e-05
2.59002e-05
2.5647e-05
3.47444e-05
3.52539e-05
3.59081e-05
2.62442e-05
2.70393e-05
2.77499e-05
2.84484e-05
3.56521e-05
3.62414e-05
2.63737e-05
2.75264e-05
2.75695e-05
2.76899e-05
2.62879e-05
2.77507e-05
2.77486e-05
3.55031e-05
3.58403e-05
2.61914e-05
2.76544e-05
2.76664e-05
3.60416e-05
3.6163e-05
3.68969e-05
2.8202e-05
2.85655e-05
2.89628e-05
2.8967e-05
3.63533e-05
3.68028e-05
2.79722e-05
2.76897e-05
2.88547e-05
2.80792e-05
2.7935e-05
2.9067e-05
2.9059e-05
3.59287e-05
3.66103e-05
2.79131e-05
2.88402e-05
2.90329e-05
3.69018e-05
3.71039e-05
3.81443e-05
2.93708e-05
2.9362e-05
3.10041e-05
3.02828e-05
3.70504e-05
3.77626e-05
2.93414e-05
2.90901e-05
3.10825e-05
3.13837e-05
2.97207e-05
3.04981e-05
3.10858e-05
3.70701e-05
3.83373e-05
2.96773e-05
3.10546e-05
3.10804e-05
3.82033e-05
3.83811e-05
3.88338e-05
3.12924e-05
3.06195e-05
3.18759e-05
3.25019e-05
3.79467e-05
3.92454e-05
3.13884e-05
3.15943e-05
3.18559e-05
3.22528e-05
3.12165e-05
3.23017e-05
3.19915e-05
3.84537e-05
3.8983e-05
3.12215e-05
3.20759e-05
3.18803e-05
3.8868e-05
3.90781e-05
4.06089e-05
3.24635e-05
3.3217e-05
3.44656e-05
3.44941e-05
3.96537e-05
4.05193e-05
3.23624e-05
3.29264e-05
3.4423e-05
3.43483e-05
3.273e-05
3.44238e-05
3.44046e-05
3.93567e-05
4.04039e-05
3.26092e-05
3.42352e-05
3.4391e-05
4.05063e-05
4.08152e-05
4.09286e-05
3.48353e-05
3.462e-05
3.51449e-05
3.47958e-05
4.05914e-05
4.06732e-05
3.48031e-05
3.44893e-05
3.51251e-05
3.48388e-05
3.46177e-05
3.47432e-05
3.48509e-05
4.0488e-05
4.07742e-05
3.46363e-05
3.47201e-05
3.48899e-05
4.07993e-05
4.10017e-05
4.2299e-05
3.52319e-05
3.50598e-05
3.67571e-05
3.68929e-05
4.08893e-05
4.23831e-05
3.52142e-05
3.53748e-05
3.67393e-05
3.68851e-05
3.50653e-05
3.69072e-05
3.68495e-05
4.11031e-05
4.23507e-05
3.51002e-05
3.69925e-05
3.67194e-05
4.22749e-05
4.25421e-05
4.26715e-05
3.71789e-05
3.71711e-05
3.75456e-05
3.73902e-05
4.25278e-05
4.25466e-05
3.71652e-05
3.70776e-05
3.75432e-05
3.73038e-05
3.70885e-05
3.7586e-05
3.81053e-05
4.24403e-05
4.24917e-05
3.6917e-05
3.74107e-05
3.80841e-05
4.32707e-05
4.27313e-05
4.38569e-05
3.76295e-05
3.74797e-05
3.88709e-05
3.91919e-05
4.26131e-05
4.41317e-05
3.76458e-05
3.75259e-05
3.88991e-05
3.93746e-05
3.8494e-05
3.90846e-05
3.88057e-05
4.26583e-05
4.4257e-05
3.85181e-05
3.93467e-05
3.88831e-05
4.3423e-05
4.41806e-05
4.48825e-05
3.93747e-05
3.97552e-05
4.04704e-05
4.03713e-05
4.44645e-05
4.47191e-05
3.94149e-05
3.9802e-05
4.04081e-05
4.02177e-05
3.87839e-05
4.02338e-05
3.88712e-05
4.44797e-05
4.45086e-05
3.88666e-05
4.00895e-05
3.89353e-05
4.3088e-05
4.49741e-05
4.52356e-05
4.06363e-05
4.03933e-05
4.08784e-05
4.05838e-05
4.47364e-05
4.51401e-05
4.05091e-05
4.02304e-05
4.07376e-05
4.05281e-05
3.9359e-05
4.06483e-05
4.2809e-05
4.45255e-05
4.52253e-05
3.93564e-05
4.05917e-05
4.27256e-05
4.78436e-05
4.54114e-05
4.65948e-05
4.11055e-05
4.10591e-05
4.26091e-05
4.28983e-05
4.55415e-05
4.68199e-05
4.10391e-05
4.121e-05
4.26689e-05
4.29867e-05
4.32005e-05
4.29187e-05
4.32666e-05
4.57123e-05
4.68812e-05
4.31201e-05
4.29522e-05
4.31892e-05
4.6702e-05
4.68129e-05
4.6903e-05
4.29881e-05
4.3086e-05
4.33112e-05
4.31252e-05
4.68709e-05
4.66293e-05
4.30518e-05
4.31698e-05
4.33649e-05
4.32216e-05
4.30125e-05
4.31426e-05
4.23473e-05
4.69223e-05
4.67106e-05
4.29589e-05
4.31923e-05
4.23977e-05
4.55457e-05
4.69123e-05
4.69746e-05
4.33032e-05
4.31052e-05
4.33095e-05
4.32846e-05
4.66475e-05
4.72498e-05
4.33528e-05
4.31881e-05
4.33319e-05
4.32514e-05
4.22602e-05
4.33117e-05
4.22794e-05
4.67287e-05
4.70824e-05
4.23095e-05
4.33024e-05
4.22729e-05
4.58807e-05
4.72532e-05
4.89887e-05
4.34922e-05
4.37945e-05
4.55542e-05
4.54536e-05
4.76059e-05
4.87637e-05
4.34701e-05
4.35257e-05
4.54477e-05
4.53997e-05
4.25596e-05
4.52557e-05
4.53519e-05
4.73795e-05
4.88411e-05
4.24456e-05
4.52237e-05
4.51908e-05
4.91272e-05
4.91699e-05
4.92061e-05
4.59409e-05
4.57085e-05
4.62939e-05
4.59799e-05
4.88666e-05
4.90228e-05
4.58819e-05
4.57755e-05
4.63291e-05
4.61936e-05
4.62053e-05
4.61759e-05
4.76483e-05
4.90155e-05
4.91684e-05
4.61693e-05
4.63164e-05
4.79026e-05
5.0982e-05
4.92249e-05
4.96991e-05
4.63074e-05
4.60451e-05
4.64853e-05
4.6931e-05
4.91365e-05
5.01137e-05
4.63504e-05
4.62275e-05
4.65748e-05
4.67737e-05
4.77887e-05
4.71615e-05
4.77997e-05
4.92082e-05
4.99624e-05
4.8076e-05
4.70989e-05
4.80902e-05
5.06858e-05
4.9965e-05
5.05334e-05
4.68704e-05
4.7313e-05
4.79472e-05
4.78739e-05
5.03024e-05
5.03501e-05
4.69789e-05
4.72296e-05
4.78936e-05
4.78994e-05
4.76689e-05
4.77397e-05
4.69661e-05
5.02171e-05
5.04153e-05
4.79241e-05
4.77871e-05
4.68661e-05
4.91539e-05
5.05743e-05
5.06464e-05
4.8082e-05
4.7912e-05
4.8177e-05
4.79251e-05
5.03556e-05
5.02976e-05
4.79907e-05
4.79234e-05
4.8062e-05
4.78933e-05
4.67996e-05
4.77628e-05
4.66767e-05
5.04127e-05
5.02248e-05
4.66072e-05
4.7718e-05
4.63658e-05
4.88787e-05
5.07296e-05
5.11476e-05
4.8181e-05
4.79332e-05
4.8433e-05
4.86606e-05
5.03997e-05
5.14816e-05
4.80948e-05
4.78994e-05
4.8636e-05
4.8715e-05
4.67646e-05
4.87287e-05
4.89864e-05
5.03092e-05
5.14953e-05
4.64121e-05
4.83577e-05
4.85715e-05
5.18919e-05
5.12632e-05
5.22302e-05
4.87334e-05
4.90892e-05
4.99265e-05
5.00876e-05
5.17514e-05
5.25365e-05
4.88889e-05
4.92538e-05
4.98287e-05
5.02489e-05
4.98097e-05
5.03751e-05
5.11222e-05
5.18343e-05
5.25732e-05
4.95461e-05
5.04531e-05
5.12309e-05
5.35769e-05
5.25277e-05
5.33454e-05
5.03699e-05
5.04181e-05
5.11753e-05
5.10662e-05
5.27153e-05
5.31014e-05
5.01862e-05
5.03918e-05
5.10695e-05
5.05653e-05
5.12092e-05
5.09924e-05
5.09942e-05
5.26477e-05
5.28124e-05
5.13871e-05
5.09871e-05
5.13172e-05
5.28437e-05
5.33891e-05
5.28143e-05
5.12144e-05
5.10972e-05
5.10156e-05
5.09351e-05
5.31161e-05
5.25834e-05
5.11915e-05
5.06896e-05
5.11948e-05
5.1297e-05
5.07887e-05
5.06506e-05
5.06433e-05
5.29076e-05
5.32446e-05
5.11038e-05
5.11962e-05
5.08915e-05
5.27015e-05
5.27435e-05
5.24435e-05
5.08173e-05
5.08301e-05
5.06528e-05
5.07793e-05
5.25716e-05
5.28373e-05
5.10801e-05
5.13857e-05
5.08876e-05
5.14211e-05
5.06975e-05
5.07196e-05
5.14688e-05
5.32729e-05
5.31262e-05
5.09115e-05
5.12362e-05
5.1453e-05
5.35041e-05
5.25992e-05
5.45365e-05
5.07031e-05
5.08609e-05
5.24155e-05
5.22598e-05
5.31004e-05
5.44316e-05
5.09031e-05
5.14204e-05
5.20214e-05
5.1608e-05
5.1616e-05
5.25824e-05
5.18335e-05
5.31386e-05
5.37674e-05
5.15384e-05
5.16976e-05
5.16005e-05
5.34622e-05
5.48783e-05
5.5316e-05
5.29877e-05
5.27175e-05
5.36426e-05
5.34332e-05
5.46355e-05
5.49549e-05
5.25892e-05
5.19792e-05
5.34108e-05
5.29105e-05
5.19418e-05
5.30917e-05
5.26262e-05
5.40389e-05
5.46764e-05
5.1646e-05
5.2971e-05
5.26981e-05
5.4531e-05
5.52948e-05
5.46422e-05
5.36555e-05
5.34748e-05
5.33487e-05
5.33458e-05
5.49633e-05
5.45972e-05
5.34536e-05
5.30506e-05
5.33552e-05
5.3194e-05
5.2955e-05
5.30299e-05
5.38025e-05
5.47094e-05
5.46791e-05
5.31611e-05
5.32502e-05
5.4009e-05
5.56668e-05
5.46245e-05
5.46845e-05
5.31791e-05
5.32169e-05
5.30364e-05
5.31467e-05
5.45939e-05
5.49542e-05
5.32948e-05
5.32491e-05
5.32823e-05
5.3839e-05
5.39266e-05
5.35753e-05
5.39285e-05
5.47344e-05
5.55848e-05
5.40938e-05
5.39526e-05
5.40282e-05
5.52869e-05
5.4811e-05
5.55541e-05
5.30554e-05
5.31952e-05
5.38093e-05
5.40146e-05
5.51362e-05
5.56904e-05
5.33528e-05
5.40715e-05
5.41162e-05
5.43892e-05
5.37725e-05
5.41986e-05
5.33823e-05
5.57434e-05
5.57905e-05
5.37856e-05
5.4224e-05
5.32141e-05
5.44704e-05
5.56752e-05
5.59144e-05
5.40931e-05
5.42262e-05
5.46041e-05
5.45681e-05
5.57376e-05
5.58198e-05
5.429e-05
5.43911e-05
5.45268e-05
5.43218e-05
5.33724e-05
5.42468e-05
5.40387e-05
5.57669e-05
5.55042e-05
5.31853e-05
5.40616e-05
5.37487e-05
5.57124e-05
5.59613e-05
5.6115e-05
5.46952e-05
5.46856e-05
5.49532e-05
5.50846e-05
5.58937e-05
5.63934e-05
5.45511e-05
5.4319e-05
5.45861e-05
5.44266e-05
5.46263e-05
5.50818e-05
5.56262e-05
5.55175e-05
5.60865e-05
5.44435e-05
5.48639e-05
5.57578e-05
5.72244e-05
5.61742e-05
5.64306e-05
5.50497e-05
5.51541e-05
5.52179e-05
5.51703e-05
5.64413e-05
5.63155e-05
5.46115e-05
5.46254e-05
5.50561e-05
5.52555e-05
5.56948e-05
5.522e-05
5.5525e-05
5.62648e-05
5.6628e-05
5.58931e-05
5.55212e-05
5.58687e-05
5.67191e-05
5.64912e-05
5.68529e-05
5.52322e-05
5.51361e-05
5.53552e-05
5.51099e-05
5.63151e-05
5.63811e-05
5.52478e-05
5.53585e-05
5.57768e-05
5.55286e-05
5.53134e-05
5.5155e-05
5.50433e-05
5.66439e-05
5.65969e-05
5.56793e-05
5.54252e-05
5.50746e-05
5.61121e-05
5.69795e-05
5.74759e-05
5.55036e-05
5.5149e-05
5.61532e-05
5.59164e-05
5.64767e-05
5.71881e-05
5.59536e-05
5.56701e-05
5.6359e-05
5.63236e-05
5.50411e-05
5.59393e-05
5.54805e-05
5.66433e-05
5.73198e-05
5.49953e-05
5.56251e-05
5.50133e-05
5.65171e-05
5.7533e-05
5.72987e-05
5.62943e-05
5.62009e-05
5.63426e-05
5.65188e-05
5.7358e-05
5.7674e-05
5.64082e-05
5.64703e-05
5.63519e-05
5.65282e-05
5.57933e-05
5.64683e-05
5.63723e-05
5.74867e-05
5.76772e-05
5.51964e-05
5.6378e-05
5.63187e-05
5.75126e-05
5.71648e-05
5.61797e-05
5.62428e-05
5.65061e-05
5.55976e-05
5.60759e-05
5.76716e-05
5.69033e-05
5.61334e-05
5.64103e-05
5.51421e-05
5.51875e-05
5.64083e-05
5.60442e-05
5.62447e-05
5.75826e-05
5.61626e-05
5.64513e-05
5.57636e-05
5.64042e-05
5.72624e-05
5.61682e-05
5.77031e-05
5.55668e-05
5.60393e-05
5.62922e-05
5.66089e-05
5.68849e-05
5.80096e-05
5.50753e-05
5.50451e-05
5.57251e-05
5.54454e-05
5.61515e-05
5.64291e-05
5.62337e-05
5.60892e-05
5.71703e-05
5.62958e-05
5.58259e-05
5.63202e-05
5.74077e-05
5.82218e-05
5.94175e-05
5.70622e-05
5.71183e-05
5.78738e-05
5.74437e-05
5.83547e-05
5.87243e-05
5.68198e-05
5.65448e-05
5.83965e-05
5.87835e-05
5.66111e-05
5.7561e-05
5.7708e-05
5.78336e-05
6.00707e-05
5.65872e-05
5.83837e-05
5.7763e-05
5.89768e-05
5.93925e-05
5.68539e-05
5.78371e-05
5.7272e-05
5.61743e-05
5.5412e-05
5.84292e-05
5.58727e-05
5.84082e-05
5.88468e-05
5.68365e-05
5.72975e-05
5.77255e-05
5.57801e-05
5.67387e-05
6.00986e-05
5.72913e-05
5.77936e-05
5.71698e-05
5.68636e-05
5.72105e-05
5.65309e-05
5.608e-05
5.56815e-05
5.51935e-05
5.54121e-05
5.55268e-05
5.57527e-05
5.69856e-05
5.59748e-05
5.60313e-05
5.51267e-05
5.4487e-05
5.61171e-05
5.54591e-05
5.54971e-05
5.66818e-05
5.50697e-05
5.6144e-05
5.47281e-05
5.53575e-05
5.61625e-05
5.63657e-05
5.91539e-05
5.55988e-05
5.64943e-05
5.80014e-05
5.90853e-05
5.7642e-05
6.05158e-05
5.5163e-05
5.44846e-05
5.72539e-05
5.66132e-05
5.55286e-05
5.86113e-05
5.73395e-05
5.51213e-05
5.84916e-05
5.53767e-05
5.67001e-05
5.71432e-05
5.88405e-05
5.95536e-05
6.03421e-05
5.86051e-05
5.93936e-05
5.9172e-05
5.93374e-05
6.06903e-05
5.98821e-05
5.81483e-05
5.79403e-05
5.931e-05
5.99931e-05
5.81e-05
5.91499e-05
5.89725e-05
5.91915e-05
6.13051e-05
5.80176e-05
5.98124e-05
5.91185e-05
6.02181e-05
6.03061e-05
5.78172e-05
5.91307e-05
5.87947e-05
5.70592e-05
5.55875e-05
5.94064e-05
5.59127e-05
5.93285e-05
6.00963e-05
5.81163e-05
5.91114e-05
5.89642e-05
5.60512e-05
5.73386e-05
6.13488e-05
5.89725e-05
5.91259e-05
5.88575e-05
5.77092e-05
5.76926e-05
5.72857e-05
5.5053e-05
5.60446e-05
5.48206e-05
5.43016e-05
5.40729e-05
5.55552e-05
5.49911e-05
5.69203e-05
5.75572e-05
5.448e-05
5.41372e-05
5.63901e-05
5.44951e-05
5.4889e-05
5.81952e-05
5.45492e-05
5.66444e-05
5.42922e-05
5.48111e-05
5.5553e-05
5.50084e-05
5.70137e-05
5.42229e-05
5.41341e-05
5.54195e-05
5.69707e-05
5.52759e-05
5.88128e-05
5.42545e-05
5.37654e-05
5.46929e-05
5.4046e-05
5.48353e-05
5.67599e-05
5.58479e-05
5.4405e-05
5.59968e-05
5.47098e-05
5.43117e-05
5.54343e-05
5.75841e-05
5.78346e-05
6.1205e-05
5.69558e-05
5.82202e-05
5.98959e-05
6.01864e-05
5.94618e-05
6.13919e-05
5.5971e-05
5.52452e-05
5.95552e-05
5.94464e-05
5.69429e-05
5.97488e-05
5.90125e-05
5.68867e-05
6.10117e-05
5.65998e-05
5.93233e-05
5.9e-05
6.02895e-05
6.13779e-05
6.00697e-05
6.01665e-05
6.02825e-05
5.97363e-05
5.92239e-05
6.14273e-05
5.91999e-05
5.99775e-05
6.00129e-05
5.98766e-05
6.01119e-05
5.92221e-05
5.9102e-05
5.90402e-05
6.12772e-05
6.0606e-05
5.92731e-05
5.98675e-05
5.91887e-05
5.955e-05
5.94123e-05
5.58785e-05
5.85546e-05
5.78695e-05
5.51994e-05
5.49778e-05
5.85578e-05
5.56998e-05
5.9095e-05
5.95619e-05
5.55136e-05
5.59103e-05
5.84091e-05
5.52585e-05
5.60775e-05
6.00451e-05
5.64417e-05
5.86646e-05
5.59676e-05
5.61762e-05
5.69124e-05
5.56869e-05
5.58957e-05
5.47301e-05
5.46246e-05
5.45423e-05
5.45737e-05
5.55917e-05
5.61201e-05
5.49383e-05
5.5228e-05
5.45928e-05
5.46594e-05
5.55938e-05
5.47737e-05
5.49727e-05
5.61882e-05
5.59032e-05
5.56463e-05
5.48118e-05
5.49357e-05
5.61076e-05
5.62579e-05
5.80933e-05
5.4833e-05
5.4979e-05
5.67115e-05
5.67209e-05
5.64886e-05
5.80752e-05
5.47518e-05
5.47105e-05
5.64933e-05
5.60137e-05
5.49678e-05
5.6514e-05
5.56318e-05
5.60923e-05
5.74376e-05
5.49212e-05
5.59305e-05
5.54816e-05
5.69303e-05
5.82533e-05
5.83943e-05
5.70731e-05
5.7081e-05
5.73802e-05
5.74933e-05
5.8238e-05
5.8613e-05
5.68735e-05
5.64e-05
5.71933e-05
5.69238e-05
5.61281e-05
5.74122e-05
5.74173e-05
5.76088e-05
5.807e-05
5.5984e-05
5.70024e-05
5.73585e-05
5.86955e-05
5.83381e-05
5.6399e-05
5.65637e-05
5.85986e-05
5.62436e-05
5.60281e-05
4.73562e-05
4.6929e-05
4.73171e-05
5.66286e-05
5.80716e-05
5.66022e-05
3.30358e-08
2.46169e-07
4.0484e-08
4.39849e-08
2.88559e-07
2.78828e-07
1.35194e-07
1.14671e-07
2.72014e-07
3.43929e-07
1.24798e-07
4.53786e-07
3.70475e-07
2.25087e-07
4.98413e-07
3.04766e-07
5.04483e-06
2.5843e-07
6.76307e-06
1.31039e-05
2.04609e-05
3.58377e-07
4.8384e-06
3.20885e-07
6.46925e-06
1.52968e-07
1.73935e-07
1.60803e-07
1.69049e-07
1.53051e-07
1.73789e-07
1.60282e-07
2.6982e-07
5.21739e-07
2.18063e-07
2.54797e-07
2.7572e-07
5.07905e-07
2.17209e-07
1.40364e-05
2.15797e-05
2.53986e-07
2.43879e-07
7.05398e-07
3.38776e-07
2.5912e-07
2.42799e-07
6.74852e-07
1.84127e-06
2.07715e-06
3.56157e-07
1.80701e-06
1.80777e-06
5.02521e-07
9.98936e-06
4.13518e-07
1.26716e-05
3.58123e-05
4.56212e-05
5.50326e-07
9.47648e-06
4.65404e-07
1.22183e-05
1.52101e-07
1.7257e-07
1.59e-07