/*--------------------------------*- C++ -*----------------------------------*\
| =========                 |                                                 |
| \\      /  F ield         | OpenFOAM: The Open Source CFD Toolbox           |
|  \\    /   O peration     | Version:  v2012                                 |
|   \\  /    A nd           | Website:  www.openfoam.com                      |
|    \\/     M anipulation  |                                                 |
\*---------------------------------------------------------------------------*/
FoamFile
{
    version     2.0;
    format      ascii;
    class       volScalarField;
    location    "1587.5";
    object      p;
}
// * * * * * * * * * * * * * * * * * * * * * * * * * * * * * * * * * * * * * //

dimensions      [0 2 -2 0 0 0 0];


internalField   nonuniform List<scalar> 
171728
(
0.00351888
0.00351779
0.0035179
0.00351861
0.00348346
0.00348197
0.00348204
0.0034848
0.00344497
0.00344312
0.00344312
0.0034454
0.00340088
0.00339925
0.00339919
0.00340143
0.00335284
0.00335141
0.00335135
0.00335368
0.00330397
0.00330268
0.00330267
0.00330504
0.00325571
0.00325456
0.00325455
0.0032569
0.0032084
0.00320736
0.00320733
0.00320971
0.00316206
0.00316117
0.00316115
0.00316353
0.00311671
0.00311593
0.00311592
0.0031183
0.00307228
0.00307159
0.00307157
0.00307396
0.00302859
0.00302805
0.003028
0.00303035
0.00298549
0.0029851
0.00298501
0.00298734
0.00294279
0.00294244
0.00294246
0.00294469
0.00290042
0.00290022
0.00290021
0.00290249
0.00285838
0.00285817
0.00285819
0.00286048
0.00281667
0.00281656
0.00281656
0.00281871
0.00277531
0.00277529
0.0027753
0.00277738
0.00273427
0.00273432
0.00273433
0.00273635
0.00269364
0.00269376
0.00269369
0.0026956
0.00265332
0.00265343
0.00265345
0.00265523
0.00261331
0.00261348
0.00261343
0.00261517
0.00257357
0.00257367
0.00257384
0.0025754
0.00253411
0.00253436
0.00253448
0.00253594
0.0024949
0.0024954
0.00249522
0.00249718
0.00245595
0.00245635
0.00245636
0.00245759
0.00241718
0.00241756
0.00241767
0.00241964
0.00237862
0.00237912
0.00237912
0.00238035
0.00234031
0.00234092
0.00234089
0.00234317
0.00230217
0.00230282
0.00230274
0.00230441
0.00226419
0.00226484
0.00226483
0.00226677
0.00222634
0.00222696
0.00222698
0.00222877
0.0021887
0.00218944
0.00218941
0.00219132
0.00215117
0.00215183
0.00215185
0.00215364
0.00211377
0.00211438
0.0021144
0.00211625
0.00207648
0.00207719
0.00207712
0.002079
0.00203945
0.0020399
0.00203998
0.00204185
0.00200235
0.00200295
0.00200286
0.00200479
0.00196552
0.0019659
0.001966
0.0019679
0.0019288
0.00192921
0.00192909
0.00193113
0.00189224
0.00189246
0.00189251
0.00189448
0.00185566
0.00185593
0.00185605
0.00185798
0.00181957
0.00181976
0.00181956
0.00182168
0.00178323
0.00178322
0.00178333
0.00178538
0.00174702
0.00174712
0.00174713
0.0017492
0.00171111
0.00171101
0.00171103
0.00171308
0.00167522
0.00167533
0.00167522
0.00167735
0.00163971
0.00163938
0.00163948
0.00164153
0.00160397
0.00160378
0.00160383
0.00160584
0.00156826
0.00156837
0.00156827
0.00157033
0.00153306
0.00153261
0.0015327
0.00153489
0.00149752
0.00149757
0.0014976
0.00149923
0.00146258
0.00146188
0.0014618
0.00146414
0.00142743
0.00142749
0.00142758
0.00143
0.00139239
0.00139213
0.00139209
0.00139354
0.00135739
0.00135665
0.00135664
0.00135881
0.00132219
0.0013223
0.00132232
0.0013243
0.00128736
0.00128734
0.00128731
0.00128952
0.00125315
0.00125266
0.0012527
0.00125455
0.00121859
0.00121836
0.00121833
0.00121991
0.00118356
0.00118304
0.00118299
0.00118488
0.00114847
0.00114827
0.00114829
0.00115037
0.00111363
0.00111393
0.001114
0.00111634
0.00107972
0.00107936
0.00107931
0.00108108
0.00104554
0.00104502
0.00104499
0.00104655
0.00101081
0.00101054
0.00101064
0.00101259
0.000975922
0.000976053
0.000975894
0.00097804
0.000941362
0.000941368
0.00094123
0.000943152
0.000907122
0.000906637
0.000906759
0.000908689
0.000872368
0.000872158
0.000872374
0.000874226
0.000837998
0.000838108
0.000838068
0.000839838
0.000803712
0.000803536
0.000803376
0.000805379
0.000769157
0.000768835
0.000768803
0.000770955
0.00073417
0.000734303
0.000734388
0.000736243
0.000699746
0.000699609
0.000699755
0.000701541
0.000665447
0.000665168
0.000665063
0.000667013
0.00063075
0.000630699
0.00063063
0.000632631
0.000595918
0.000596038
0.000596081
0.000598152
0.000560639
0.000560609
0.000560569
0.000562665
0.00052661
0.000526376
0.00052634
0.000528078
0.000492522
0.000492053
0.00049257
0.000494297
0.000455932
0.000455839
0.000455758
0.000457966
0.000420907
0.000421364
0.000420694
0.000422928
0.000387607
0.000387571
0.000387926
0.000389688
0.000352815
0.000352065
0.000352703
0.000354348
0.000316029
0.000315822
0.000315683
0.000317748
0.000279473
0.000280368
0.000279576
0.00028215
0.000245853
0.00024603
0.000246041
0.00024799
0.000212592
0.000211484
0.000212265
0.000213545
0.000175867
0.000175687
0.000175621
0.000177689
0.000138692
0.000139251
0.000138833
0.000141294
0.000103418
0.000103634
0.0001036
0.000105584
6.82766e-05
6.8101e-05
6.82106e-05
7.0036e-05
3.35474e-05
3.2888e-05
3.29579e-05
3.47703e-05
5.8893e-06
6.8244e-06
6.82355e-06
4.92856e-06
0.00352329
0.00352086
0.00352075
0.00352321
0.00352081
0.003521
0.00352723
0.00352722
0.00352727
0.00352728
0.00352074
0.00352087
0.00352339
0.00352094
0.00352077
0.00352312
0.00351854
0.00348962
0.00351782
0.00351777
0.00349146
0.0034915
0.00351848
0.0034896
0.00351779
0.00351786
0.00349152
0.00349148
0.00351787
0.00349147
0.00349146
0.00351862
0.00348959
0.00351786
0.00349139
0.00349165
0.0034895
0.00348484
0.00345094
0.00348198
0.0034819
0.00345324
0.00345323
0.00348483
0.00345092
0.00348192
0.00348192
0.00345322
0.00345333
0.003482
0.00345316
0.00345312
0.00348483
0.00345095
0.00348226
0.00345316
0.00345318
0.00345094
0.00344541
0.00340761
0.00344308
0.00344305
0.00341068
0.00341069
0.0034454
0.00340762
0.00344309
0.00344308
0.00341066
0.00341072
0.00344316
0.00341063
0.00341064
0.00344542
0.00340763
0.00344299
0.00341067
0.00341054
0.00340761
0.00340145
0.00336016
0.0033992
0.00339919
0.00336357
0.00336356
0.00340145
0.00336015
0.00339922
0.00339917
0.00336351
0.00336355
0.00339925
0.0033635
0.00336347
0.00340145
0.00336016
0.00339925
0.00336354
0.00336341
0.00336014
0.0033537
0.00331148
0.00335136
0.00335136
0.00331483
0.00331481
0.00335369
0.00331148
0.00335141
0.0033514
0.00331483
0.00331485
0.00335138
0.00331485
0.00331487
0.00335371
0.00331149
0.0033513
0.00331485
0.00331473
0.00331149
0.00330503
0.00326322
0.0033027
0.00330271
0.00326651
0.0032665
0.00330503
0.00326322
0.00330268
0.00330272
0.00326652
0.00326654
0.0033027
0.00326651
0.00326652
0.00330505
0.00326323
0.0033026
0.0032665
0.00326648
0.00326324
0.00325689
0.00321588
0.00325459
0.00325454
0.00321912
0.00321905
0.00325689
0.00321588
0.00325454
0.00325452
0.00321906
0.00321907
0.00325455
0.00321905
0.00321905
0.00325691
0.00321591
0.00325456
0.00321905
0.00321906
0.0032159
0.0032097
0.00316954
0.00320734
0.00320736
0.00317267
0.0031726
0.0032097
0.00316955
0.00320735
0.00320737
0.00317261
0.00317262
0.00320737
0.0031726
0.00317262
0.00320972
0.00316958
0.00320737
0.00317259
0.00317264
0.00316957
0.00316349
0.00312419
0.00316115
0.00316116
0.00312713
0.00312712
0.00316351
0.00312418
0.00316114
0.00316116
0.00312713
0.00312714
0.00316118
0.00312712
0.00312716
0.00316353
0.00312418
0.00316118
0.00312712
0.00312716
0.00312419
0.00311827
0.00307975
0.00311593
0.00311592
0.00308258
0.00308258
0.00311828
0.00307973
0.00311591
0.00311592
0.00308261
0.00308259
0.00311594
0.00308259
0.00308259
0.00311828
0.00307972
0.00311596
0.00308258
0.00308258
0.00307973
0.00307396
0.00303604
0.00307159
0.0030716
0.00303888
0.00303884
0.00307394
0.00303607
0.0030716
0.00307158
0.00303886
0.00303887
0.00307162
0.00303884
0.00303886
0.00307393
0.00303606
0.00307163
0.00303885
0.00303885
0.00303603
0.00303036
0.00299297
0.00302803
0.00302805
0.00299576
0.00299576
0.00303038
0.00299296
0.00302801
0.003028
0.00299575
0.00299579
0.003028
0.00299574
0.00299577
0.00303037
0.00299295
0.00302801
0.00299579
0.00299579
0.00299297
0.00298736
0.0029503
0.00298502
0.00298509
0.00295307
0.0029531
0.00298735
0.00295031
0.00298505
0.00298505
0.00295308
0.00295306
0.00298503
0.00295312
0.00295311
0.00298735
0.00295023
0.00298501
0.00295305
0.00295308
0.00295023
0.00294475
0.00290794
0.00294247
0.00294245
0.00291072
0.00291069
0.00294477
0.00290794
0.00294243
0.00294244
0.0029107
0.00291074
0.00294243
0.0029107
0.00291079
0.0029447
0.00290801
0.00294245
0.00291078
0.00291082
0.00290797
0.00290247
0.00286588
0.00290017
0.00290022
0.00286867
0.00286876
0.00290247
0.00286587
0.00290018
0.00290021
0.00286864
0.0028686
0.0029002
0.00286875
0.00286864
0.00290252
0.00286587
0.00290021
0.0028686
0.00286865
0.00286594
0.00286045
0.0028241
0.00285815
0.00285817
0.0028269
0.00282703
0.00286042
0.00282415
0.00285819
0.0028582
0.00282693
0.00282691
0.00285818
0.00282702
0.00282687
0.00286047
0.00282411
0.00285813
0.00282692
0.00282682
0.00282408
0.00281873
0.00278269
0.00281653
0.00281654
0.00278558
0.00278558
0.00281878
0.00278271
0.00281651
0.00281657
0.00278553
0.00278559
0.00281649
0.00278556
0.0027855
0.00281876
0.00278272
0.00281648
0.0027856
0.00278548
0.00278266
0.00277737
0.0027416
0.00277522
0.00277527
0.00274445
0.00274454
0.00277741
0.00274154
0.00277524
0.00277531
0.00274445
0.00274451
0.00277521
0.00274455
0.00274443
0.00277741
0.00274166
0.00277528
0.00274453
0.00274449
0.00274161
0.00273636
0.00270082
0.00273426
0.00273431
0.00270375
0.00270384
0.00273632
0.00270078
0.00273429
0.00273434
0.00270376
0.00270373
0.00273422
0.00270385
0.00270373
0.00273642
0.00270085
0.00273425
0.00270375
0.00270379
0.00270088
0.00269565
0.00266034
0.00269373
0.00269375
0.00266342
0.00266339
0.0026956
0.00266028
0.00269371
0.00269371
0.00266344
0.0026634
0.00269357
0.00266341
0.00266337
0.00269564
0.00266031
0.00269356
0.0026634
0.00266336
0.00266045
0.00265523
0.00262023
0.00265342
0.00265343
0.00262339
0.00262336
0.00265514
0.0026202
0.00265341
0.00265342
0.00262342
0.00262335
0.00265332
0.00262335
0.00262339
0.00265518
0.00262017
0.00265335
0.00262335
0.00262331
0.00262031
0.00261514
0.00258046
0.00261343
0.0026135
0.00258367
0.0025836
0.00261511
0.00258043
0.00261341
0.00261342
0.0025837
0.00258377
0.00261337
0.0025836
0.00258371
0.00261507
0.00258038
0.00261338
0.00258375
0.00258364
0.0025805
0.00257541
0.00254098
0.00257376
0.0025737
0.00254424
0.00254432
0.00257527
0.00254106
0.00257375
0.00257385
0.00254426
0.00254429
0.00257377
0.00254434
0.00254424
0.00257542
0.00254094
0.00257374
0.00254427
0.00254418
0.00254102
0.00253599
0.00250184
0.00253443
0.00253436
0.00250504
0.00250511
0.00253596
0.00250211
0.00253444
0.00253449
0.00250504
0.00250502
0.00253441
0.00250511
0.00250514
0.00253604
0.00250179
0.00253437
0.00250501
0.00250506
0.00250216
0.00249692
0.0024629
0.00249532
0.00249538
0.002466
0.00246594
0.00249721
0.00246254
0.00249533
0.00249524
0.00246602
0.00246606
0.00249541
0.00246592
0.00246586
0.00249682
0.00246298
0.00249536
0.00246607
0.0024658
0.00246237
0.00245797
0.00242441
0.00245636
0.00245636
0.00242732
0.00242728
0.0024578
0.00242436
0.00245637
0.00245637
0.00242733
0.0024273
0.00245635
0.00242731
0.00242739
0.00245806
0.00242429
0.0024563
0.00242733
0.00242742
0.00242485
0.00241941
0.00238578
0.00241763
0.00241756
0.00238875
0.00238881
0.00241924
0.00238613
0.00241765
0.00241765
0.00238877
0.00238872
0.00241767
0.00238879
0.00238863
0.00241937
0.00238589
0.00241767
0.0023887
0.00238858
0.00238512
0.00238091
0.00234768
0.00237917
0.00237912
0.00235041
0.00235045
0.00238119
0.00234738
0.00237919
0.00237911
0.00235045
0.00235045
0.0023791
0.00235049
0.00235051
0.00238094
0.00234765
0.00237911
0.00235047
0.00235053
0.0023482
0.00234276
0.00230953
0.00234087
0.00234089
0.00231228
0.00231231
0.00234256
0.0023096
0.00234089
0.00234088
0.00231228
0.00231224
0.00234087
0.0023123
0.00231233
0.00234277
0.00230956
0.00234088
0.00231224
0.00231229
0.00230917
0.00230461
0.00227161
0.00230276
0.00230282
0.00227431
0.00227428
0.00230471
0.00227156
0.00230277
0.00230274
0.00227432
0.00227434
0.00230286
0.00227428
0.00227426
0.00230462
0.00227161
0.00230283
0.00227435
0.00227424
0.0022718
0.00226671
0.00223378
0.00226483
0.00226484
0.00223645
0.00223643
0.00226654
0.0022339
0.00226483
0.00226484
0.00223646
0.0022364
0.00226476
0.00223642
0.00223641
0.00226671
0.00223376
0.00226471
0.00223639
0.00223637
0.0022336
0.00222886
0.00219612
0.00222702
0.00222697
0.00219875
0.00219878
0.00222905
0.00219598
0.00222703
0.00222698
0.00219878
0.00219878
0.002227
0.0021988
0.00219879
0.00222886
0.00219614
0.00222699
0.00219882
0.00219885
0.00219621
0.00219124
0.00215858
0.00218936
0.00218943
0.00216124
0.00216125
0.00219108
0.00215867
0.00218938
0.00218938
0.00216123
0.00216122
0.00218939
0.00216125
0.00216125
0.00219124
0.00215858
0.00218942
0.00216123
0.00216121
0.00215857
0.00215368
0.00212114
0.00215186
0.00215183
0.00212374
0.00212368
0.00215376
0.0021211
0.00215187
0.00215185
0.00212376
0.00212374
0.00215187
0.00212368
0.00212371
0.00215368
0.00212114
0.00215182
0.00212375
0.00212371
0.00212112
0.00211625
0.00208385
0.00211439
0.00211438
0.00208641
0.00208652
0.00211623
0.00208389
0.0021144
0.0021144
0.00208641
0.00208642
0.00211435
0.00208651
0.00208644
0.00211626
0.00208385
0.00211436
0.00208642
0.00208643
0.00208387
0.00207899
0.00204673
0.00207712
0.00207718
0.00204928
0.00204917
0.00207899
0.00204669
0.00207712
0.00207711
0.00204929
0.00204924
0.00207719
0.00204919
0.00204928
0.00207897
0.00204674
0.00207717
0.00204925
0.00204928
0.00204673
0.00204184
0.00200963
0.00203998
0.00203989
0.00201212
0.00201219
0.00204184
0.0020097
0.00203999
0.00203998
0.00201211
0.00201214
0.00203997
0.00201219
0.00201209
0.00204187
0.00200963
0.00203997
0.00201215
0.0020121
0.00200964
0.00200478
0.00197281
0.00200285
0.00200294
0.00197519
0.00197516
0.00200482
0.00197272
0.00200285
0.00200286
0.00197522
0.00197516
0.00200285
0.00197515
0.0019752
0.00200476
0.00197281
0.00200287
0.00197517
0.0019752
0.00197277
0.00196794
0.00193594
0.00196599
0.00196592
0.00193834
0.00193833
0.00196786
0.00193601
0.001966
0.00196599
0.00193835
0.00193833
0.00196597
0.00193835
0.00193836
0.00196796
0.00193589
0.00196595
0.00193834
0.00193836
0.00193599
0.00193111
0.00189932
0.00192915
0.00192919
0.00190168
0.00190169
0.00193118
0.00189929
0.00192916
0.00192908
0.00190165
0.00190156
0.00192919
0.00190169
0.00190162
0.00193102
0.00189929
0.00192919
0.00190158
0.00190162
0.0018993
0.00189446
0.00186282
0.00189251
0.00189247
0.00186503
0.00186495
0.00189442
0.00186276
0.00189249
0.00189246
0.00186504
0.00186526
0.00189246
0.00186498
0.0018651
0.00189449
0.00186299
0.00189246
0.00186521
0.00186511
0.00186283
0.00185803
0.00182649
0.00185594
0.00185589
0.00182876
0.00182887
0.00185797
0.00182664
0.00185597
0.00185614
0.00182881
0.00182863
0.00185598
0.00182884
0.00182867
0.00185813
0.00182636
0.00185599
0.00182861
0.00182867
0.00182647
0.00182166
0.00179023
0.00181967
0.00181982
0.00179244
0.00179233
0.0018218
0.00179008
0.00181969
0.00181949
0.0017924
0.00179225
0.00181963
0.00179233
0.00179247
0.00182156
0.00179017
0.00181961
0.00179243
0.00179245
0.00179021
0.0017854
0.00175394
0.00178339
0.00178318
0.00175609
0.00175607
0.00178527
0.001754
0.00178334
0.00178321
0.00175608
0.0017562
0.00178335
0.00175613
0.00175608
0.00178535
0.00175405
0.00178337
0.00175612
0.00175611
0.001754
0.00174914
0.00171791
0.00174701
0.00174707
0.00172005
0.00172005
0.0017492
0.0017179
0.00174702
0.00174719
0.00172008
0.00172015
0.00174707
0.00172004
0.00172006
0.00174926
0.00171791
0.00174708
0.00172009
0.00172005
0.00171787
0.00171311
0.00168205
0.00171108
0.00171107
0.00168413
0.00168428
0.00171312
0.00168218
0.00171111
0.00171107
0.00168408
0.00168406
0.00171103
0.00168424
0.00168415
0.00171309
0.00168206
0.00171103
0.00168413
0.00168411
0.0016821
0.0016773
0.00164637
0.0016752
0.00167534
0.00164851
0.00164835
0.0016774
0.00164622
0.00167516
0.00167518
0.00164851
0.00164846
0.00167525
0.00164839
0.00164847
0.0016773
0.00164631
0.00167522
0.00164847
0.0016485
0.00164631
0.00164159
0.00161053
0.00163959
0.00163935
0.00161259
0.00161267
0.00164144
0.00161063
0.00163961
0.00163948
0.00161259
0.00161273
0.00163948
0.00161264
0.00161267
0.00164153
0.00161066
0.00163952
0.00161269
0.00161266
0.00161061
0.00160577
0.00157513
0.00160366
0.00160382
0.00157713
0.00157719
0.00160588
0.00157517
0.00160365
0.00160386
0.00157715
0.00157716
0.00160378
0.00157724
0.0015771
0.0016059
0.00157509
0.00160376
0.00157721
0.00157709
0.00157508
0.00157039
0.00153948
0.00156833
0.00156832
0.00154158
0.0015415
0.0015704
0.00153946
0.00156834
0.00156824
0.00154156
0.00154151
0.00156823
0.00154145
0.00154166
0.0015703
0.00153949
0.00156822
0.00154145
0.00154169
0.00153963
0.00153473
0.00150428
0.00153265
0.00153266
0.00150628
0.00150635
0.00153474
0.00150433
0.00153265
0.00153271
0.00150627
0.00150641
0.00153288
0.00150637
0.00150615
0.00153478
0.00150438
0.00153291
0.00150646
0.00150616
0.00150405
0.00149956
0.00146889
0.00149752
0.00149759
0.001471
0.00147087
0.0014996
0.00146873
0.00149752
0.00149759
0.00147101
0.00147077
0.00149704
0.00147079
0.00147068
0.00149961
0.00146866
0.00149704
0.00147064
0.00147063
0.00146869
0.00146412
0.00143379
0.00146214
0.00146193
0.00143578
0.00143588
0.001464
0.00143401
0.00146212
0.0014619
0.00143576
0.00143593
0.00146232
0.00143607
0.0014369
0.00146395
0.00143407
0.00146227
0.00143615
0.00143694
0.00143484
0.00142914
0.00139905
0.00142707
0.0014273
0.00140106
0.00140123
0.00142938
0.001399
0.0014271
0.00142734
0.00140111
0.00140123
0.00142797
0.00140112
0.00140014
0.00142943
0.00139899
0.00142804
0.00140114
0.00140016
0.00139826
0.00139429
0.00136352
0.00139232
0.0013923
0.0013657
0.00136546
0.00139415
0.00136338
0.00139233
0.00139228
0.00136566
0.0013654
0.00139127
0.00136533
0.00136554
0.00139413
0.00136333
0.00139126
0.00136527
0.00136554
0.00136345
0.00135877
0.0013287
0.00135682
0.0013567
0.00133066
0.00133086
0.00135869
0.0013289
0.0013568
0.0013567
0.00133067
0.00133085
0.00135708
0.00133093
0.00133111
0.00135866
0.00132891
0.00135709
0.00133099
0.00133109
0.00132899
0.00132407
0.00129415
0.00132207
0.00132222
0.00129615
0.00129604
0.00132424
0.00129404
0.00132205
0.0013222
0.00129612
0.00129603
0.00132231
0.00129608
0.00129606
0.00132423
0.00129404
0.00132227
0.00129602
0.00129601
0.00129418
0.00128941
0.00125899
0.00128742
0.00128726
0.00126106
0.00126111
0.00128929
0.00125908
0.00128743
0.00128729
0.00126114
0.00126116
0.00128743
0.00126124
0.00126137
0.0012893
0.00125913
0.00128744
0.00126129
0.0012615
0.00125928
0.00125434
0.001225
0.00125247
0.0012526
0.00122704
0.00122719
0.00125444
0.00122501
0.00125252
0.00125259
0.001227
0.00122713
0.00125268
0.001227
0.00122674
0.00125448
0.00122495
0.00125275
0.001227
0.0012267
0.00122459
0.00122038
0.00119011
0.00121848
0.00121859
0.00119225
0.00119209
0.00122036
0.00118991
0.00121842
0.00121853
0.00119221
0.0011921
0.00121806
0.00119192
0.00119173
0.00122029
0.00118986
0.001218
0.00119187
0.00119163
0.00118963
0.00118528
0.00115475
0.00118336
0.00118313
0.00115682
0.00115676
0.00118511
0.00115477
0.00118333
0.00118314
0.00115685
0.00115674
0.00118292
0.00115686
0.00115699
0.00118507
0.00115477
0.00118285
0.00115684
0.00115701
0.00115498
0.00115004
0.00112031
0.00114813
0.00114812
0.00112224
0.00112236
0.00115009
0.00112049
0.00114818
0.00114814
0.0011223
0.00112244
0.00114847
0.00112254
0.00112287
0.00115011
0.00112059
0.00114852
0.00112261
0.00112293
0.00112099
0.00111566
0.0010859
0.00111364
0.00111377
0.00108798
0.00108804
0.00111585
0.00108593
0.00111367
0.00111383
0.00108793
0.00108792
0.00111426
0.00108802
0.00108792
0.00111594
0.00108584
0.00111431
0.00108801
0.00108793
0.00108584
0.00108125
0.00105171
0.00107945
0.00107945
0.00105382
0.00105377
0.00108127
0.00105156
0.00107937
0.00107929
0.00105378
0.0010537
0.00107914
0.00105358
0.00105334
0.00108115
0.0010515
0.00107915
0.00105353
0.0010533
0.00105118
0.00104705
0.0010172
0.00104521
0.00104517
0.00101924
0.00101919
0.00104688
0.00101715
0.00104521
0.00104519
0.0010193
0.00101941
0.00104483
0.00101919
0.00101927
0.00104686
0.00101729
0.00104477
0.00101927
0.00101921
0.00101724
0.00101249
0.000982453
0.00101053
0.00101048
0.000984469
0.000984486
0.00101246
0.000982627
0.0010106
0.00101071
0.000984481
0.000984453
0.00101068
0.000984682
0.000984726
0.00101259
0.000982518
0.00101065
0.000984593
0.00098471
0.000982764
0.000977768
0.000948157
0.000975863
0.000975873
0.000950155
0.000950164
0.000977937
0.000948129
0.000975831
0.000975742
0.000949972
0.000949855
0.000976035
0.000950086
0.000949932
0.000977797
0.000947896
0.000976002
0.00094988
0.000949826
0.000947858
0.000943505
0.00091332
0.000941567
0.000941563
0.000915345
0.000915453
0.000943412
0.000913249
0.000941406
0.000941254
0.00091547
0.000915442
0.000941233
0.00091527
0.000915292
0.000943211
0.000913388
0.000941186
0.000915364
0.000915498
0.000913359
0.000908584
0.00087861
0.000906607
0.000906721
0.000880659
0.000880575
0.00090852
0.000878644
0.000906767
0.000906792
0.000880749
0.000880862
0.000906695
0.000880734
0.000880964
0.000908691
0.000878828
0.00090693
0.000880949
0.000880981
0.000878914
0.000873922
0.000844591
0.000872071
0.000871957
0.000846521
0.000846529
0.000873971
0.000844641
0.000872122
0.000872298
0.000846501
0.000846682
0.000872379
0.000846642
0.000846549
0.000874148
0.000844668
0.000872302
0.00084666
0.000846418
0.000844502
0.000839977
0.000810477
0.000838043
0.000838101
0.000812421
0.000812471
0.00084002
0.000810374
0.000838002
0.000838133
0.000812375
0.000812212
0.000837934
0.000812248
0.000812046
0.000840021
0.000810159
0.000837833
0.000812056
0.000812026
0.000810063
0.000805774
0.000775512
0.000803811
0.000803808
0.000777635
0.0007775
0.00080565
0.00077548
0.000803741
0.000803526
0.00077759
0.000777375
0.000803426
0.000777481
0.000777588
0.000805444
0.000775424
0.00080343
0.000777413
0.000777651
0.000775641
0.000770731
0.000740624
0.000768862
0.000768753
0.000742649
0.000742726
0.000770743
0.000740812
0.000768832
0.00076867
0.000742658
0.000742757
0.000768982
0.00074295
0.000743053
0.000770705
0.000740885
0.000769041
0.000743005
0.000743126
0.000740999
0.000735937
0.000706437
0.000734006
0.000734126
0.000708281
0.000708334
0.000736104
0.0007063
0.000734026
0.000734208
0.000708383
0.000708585
0.000734308
0.000708242
0.000708236
0.000736201
0.000706485
0.00073435
0.000708417
0.000708246
0.000706244
0.000701791
0.000671985
0.000699729
0.000699744
0.000673961
0.000673875
0.000701623
0.000671868
0.000699859
0.000700007
0.000674007
0.000673926
0.000699602
0.000673778
0.000673732
0.000701793
0.000671812
0.000699613
0.000673739
0.000673652
0.000671716
0.000667237
0.000637209
0.000665312
0.000665213
0.000639294
0.000639227
0.000667157
0.000637329
0.000665302
0.000665195
0.000639171
0.000639107
0.000665127
0.000639313
0.000639281
0.000667066
0.000637193
0.000665008
0.000639217
0.000639189
0.000637304
0.000632497
0.000602612
0.000630647
0.000630615
0.000604622
0.000604748
0.000632633
0.00060273
0.000630522
0.000630501
0.000604595
0.000604622
0.000630684
0.000604781
0.000604842
0.000632515
0.000602747
0.000630618
0.000604827
0.000604984
0.000602899
0.00059786
0.000567358
0.000595872
0.000596019
0.000569374
0.000569498
0.000597963
0.000567424
0.000595881
0.000595906
0.000569382
0.000569418
0.000596131
0.000569482
0.000569587
0.000597991
0.000567371
0.000596301
0.000569488
0.00056965
0.000567533
0.00056256
0.000533099
0.000560578
0.000560652
0.000534974
0.000534911
0.00056258
0.000532955
0.000560578
0.000560566
0.000534978
0.000534913
0.00056069
0.000534797
0.000534606
0.000562514
0.000532893
0.000560715
0.000534685
0.000534501
0.000532647
0.000528554
0.000499068
0.000526601
0.000526477
0.000501112
0.00050085
0.000528368
0.000498835
0.000526637
0.00052658
0.000501332
0.000501483
0.000526179
0.000500934
0.000501028
0.000528352
0.000499348
0.000526085
0.000501377
0.00050105
0.000499069
0.000494152
0.000462588
0.00049214
0.000491911
0.000464803
0.000464781
0.000493973
0.000462635
0.000492327
0.000492523
0.000464774
0.000464793
0.000492321
0.000464923
0.000465136
0.00049447
0.000462714
0.000492402
0.000465004
0.000465169
0.000462994
0.000457567
0.000427698
0.000455705
0.000455791
0.000429608
0.000429959
0.000457712
0.000428034
0.000455571
0.000455548
0.000429301
0.000428943
0.00045597
0.00042982
0.000429372
0.000457655
0.000427251
0.000455969
0.000428972
0.000429222
0.000427506
0.000423157
0.000394354
0.000421233
0.000421485
0.000396116
0.000396191
0.000423417
0.000394241
0.00042102
0.00042073
0.000396216
0.00039623
0.000420958
0.000396172
0.000396017
0.000422746
0.000394406
0.000420834
0.00039614
0.000396056
0.000394226
0.000389728
0.000359138
0.00038763
0.000387485
0.000361241
0.000360882
0.000389489
0.000358795
0.000387858
0.00038801
0.000361527
0.000361908
0.000387664
0.000360994
0.000361498
0.000389936
0.000359565
0.00038778
0.000361894
0.00036166
0.000359302
0.000354216
0.000322828
0.000352263
0.000352004
0.000325042
0.000324908
0.000353932
0.000322757
0.000352425
0.000352703
0.000325008
0.000324924
0.000352432
0.000324918
0.000325023
0.000354559
0.000322753
0.000352526
0.000324936
0.000324967
0.000322794
0.00031779
0.000286833
0.000315852
0.000315851
0.000288759
0.000289164
0.00031784
0.000287292
0.000315766
0.000315676
0.000288468
0.000288171
0.000315798
0.000289133
0.000288778
0.000317706
0.000286441
0.000315713
0.000288237
0.000288576
0.000286899
0.00028207
0.000252579
0.000280015
0.000280397
0.000254387
0.00025454
0.000282498
0.00025275
0.000279748
0.000279502
0.000254358
0.000254375
0.000280081
0.000254472
0.000254373
0.000281729
0.000252591
0.000279906
0.000254375
0.000254394
0.00025258
0.00024802
0.000218668
0.000246021
0.000246109
0.000220749
0.000220284
0.000248155
0.000218085
0.000246027
0.000246073
0.000221039
0.000221162
0.000245934
0.000220268
0.000220459
0.000248039
0.00021895
0.000245985
0.00022104
0.000220662
0.000218358
0.000213798
0.00018244
0.000211903
0.000211464
0.000184678
0.000184653
0.000213281
0.000182482
0.000212203
0.000212365
0.000184682
0.000184766
0.000211692
0.000184735
0.000184867
0.000214088
0.000182527
0.000211865
0.000184815
0.000184842
0.000182632
0.000177447
0.000145881
0.000175537
0.000175577
0.000147902
0.000148139
0.000177514
0.000146275
0.000175503
0.000175542
0.000147766
0.00014779
0.000175828
0.00014822
0.000148272
0.00017752
0.000145797
0.00017577
0.000147893
0.000148195
0.00014623
0.000141037
0.000110776
0.000138964
0.000139224
0.00011264
0.00011264
0.000141393
0.000110722
0.000138797
0.000138746
0.000112558
0.000112439
0.000139189
0.000112541
0.000112324
0.000140903
0.000110616
0.000139088
0.000112399
0.000112287
0.000110469
0.000105922
7.52192e-05
0.000103815
0.000103741
7.71792e-05
7.70433e-05
0.000105821
7.50135e-05
0.000103789
0.000103685
7.723e-05
7.7131e-05
0.000103426
7.69591e-05
7.6841e-05
0.000105768
7.51399e-05
0.000103421
7.70369e-05
7.68816e-05
7.48984e-05
7.02529e-05
3.92029e-05
6.82414e-05
6.81255e-05
4.1297e-05
4.13591e-05
7.00757e-05
3.93229e-05
6.83175e-05
6.82644e-05
4.13556e-05
4.15191e-05
6.80713e-05
4.14785e-05
4.17315e-05
7.0236e-05
3.94305e-05
6.81087e-05
4.16207e-05
4.1781e-05
3.96272e-05
3.43345e-05
7.94187e-06
3.26344e-05
3.27624e-05
1.09957e-05
1.10867e-05
3.44789e-05
8.04923e-06
3.26582e-05
3.28228e-05
1.09849e-05
1.10744e-05
3.31166e-05
1.11603e-05
1.12269e-05
3.45609e-05
8.03916e-06
3.31568e-05
1.11793e-05
1.12518e-05
8.09745e-06
4.85342e-06
6.78632e-06
6.87779e-06
4.91191e-06
6.77987e-06
6.87115e-06
5.90328e-06
5.93097e-06
5.88966e-06
6.88027e-06
4.90815e-06
6.88077e-06
0.00353035
0.00353289
0.00353161
0.00353181
0.00355883
0.00353277
0.00356239
0.00353312
0.00355905
0.00353299
0.00353319
0.00356253
0.00354392
0.00356535
0.00356582
0.00350296
0.0035165
0.0035204
0.00349511
0.00349344
0.00349863
0.003503
0.00351658
0.0035204
0.00349524
0.00351888
0.0035189
0.00351898
0.00349254
0.00349258
0.00349249
0.00349239
0.00350262
0.0035142
0.00351945
0.00351023
0.00352156
0.0034998
0.00351043
0.00349342
0.00349874
0.0035027
0.0035195
0.00351431
0.00351017
0.00352166
0.00351045
0.00349977
0.00352034
0.00352107
0.00350728
0.00349966
0.00349894
0.00347547
0.00348971
0.00348955
0.0034735
0.00348692
0.00347253
0.00347541
0.00348972
0.00348955
0.00347348
0.00348353
0.0034834
0.00348337
0.00345506
0.00345511
0.00345501
0.00345502
0.00347322
0.00348821
0.00348199
0.00347254
0.0034867
0.0034738
0.0034725
0.00348676
0.00347258
0.00347323
0.00348201
0.00348821
0.00347249
0.00348669
0.00347254
0.00347372
0.00348999
0.00348976
0.00347094
0.0034742
0.00347437
0.00343294
0.00344774
0.0034486
0.00343166
0.00344655
0.00343085
0.00343293
0.00344774
0.00344855
0.00343162
0.00344503
0.00344492
0.00344494
0.00341241
0.00341245
0.00341238
0.00341241
0.00343167
0.00344722
0.00344309
0.00343258
0.00344621
0.0034322
0.00343259
0.00344655
0.00343072
0.00343169
0.00344306
0.00344726
0.0034326
0.00344619
0.00343266
0.00343209
0.00344793
0.00344813
0.00342997
0.00343193
0.00343169
0.00338665
0.00340304
0.00340448
0.00338516
0.00340241
0.0033847
0.0033866
0.00340299
0.00340444
0.00338523
0.00340093
0.00340083
0.00340086
0.00336502
0.00336505
0.003365
0.00336503
0.0033858
0.0034029
0.00339921
0.00338746
0.0034023
0.00338596
0.00338749
0.00340233
0.00338461
0.00338577
0.00339922
0.0034029
0.00338751
0.00340231
0.00338751
0.00338583
0.0034031
0.00340309
0.00338419
0.00338534
0.00338505
0.00333778
0.00335482
0.00335621
0.00333657
0.00335443
0.00333628
0.00333771
0.00335487
0.00335617
0.00333655
0.00335287
0.00335281
0.00335284
0.00331616
0.00331619
0.00331615
0.00331618
0.00333735
0.00335489
0.00335142
0.00333919
0.00335452
0.00333726
0.00333924
0.0033544
0.00333621
0.00333732
0.00335141
0.00335483
0.0033392
0.00335448
0.00333924
0.00333723
0.0033549
0.00335483
0.00333581
0.00333668
0.00333681
0.00328866
0.00330596
0.00330697
0.00328778
0.00330566
0.00328755
0.00328861
0.00330595
0.00330693
0.00328776
0.003304
0.00330397
0.00330399
0.0032677
0.00326772
0.00326769
0.00326771
0.00328861
0.00330599
0.00330274
0.0032906
0.00330575
0.00328843