/*--------------------------------*- C++ -*----------------------------------*\
| =========                 |                                                 |
| \\      /  F ield         | OpenFOAM: The Open Source CFD Toolbox           |
|  \\    /   O peration     | Version:  v2012                                 |
|   \\  /    A nd           | Website:  www.openfoam.com                      |
|    \\/     M anipulation  |                                                 |
\*---------------------------------------------------------------------------*/
FoamFile
{
    version     2.0;
    format      ascii;
    class       volScalarField;
    location    "0.275";
    object      p;
}
// * * * * * * * * * * * * * * * * * * * * * * * * * * * * * * * * * * * * * //

dimensions      [0 2 -2 0 0 0 0];


internalField   nonuniform List<scalar> 
247104
(
1.86871e-06
1.86872e-06
1.86884e-06
1.86878e-06
1.86866e-06
1.86881e-06
1.86883e-06
1.86865e-06
1.86872e-06
1.86877e-06
1.86883e-06
1.86866e-06
1.86856e-06
1.86869e-06
1.86884e-06
1.86875e-06
1.86885e-06
1.86883e-06
1.86852e-06
1.86815e-06
1.868e-06
1.86819e-06
1.86857e-06
1.86885e-06
1.86885e-06
1.86879e-06
1.86866e-06
1.86815e-06
1.86766e-06
1.86748e-06
1.86771e-06
1.86822e-06
1.86871e-06
1.86878e-06
1.86872e-06
1.86867e-06
1.86856e-06
1.868e-06
1.86748e-06
1.8673e-06
1.86753e-06
1.86808e-06
1.86861e-06
1.86864e-06
1.86881e-06
1.86869e-06
1.86819e-06
1.86771e-06
1.86753e-06
1.86776e-06
1.86826e-06
1.86873e-06
1.86881e-06
1.86884e-06
1.86884e-06
1.86857e-06
1.86822e-06
1.86808e-06
1.86826e-06
1.86862e-06
1.86886e-06
1.86884e-06
1.86865e-06
1.86875e-06
1.86885e-06
1.86871e-06
1.86861e-06
1.86873e-06
1.86886e-06
1.86872e-06
1.86885e-06
1.86878e-06
1.86865e-06
1.86882e-06
1.86884e-06
1.83524e-06
1.83322e-06
1.8328e-06
1.83161e-06
1.83161e-06
1.83153e-06
1.83154e-06
1.83283e-06
1.83317e-06
1.8328e-06
1.83075e-06
1.82798e-06
1.82793e-06
1.82793e-06
1.82798e-06
1.83114e-06
1.83136e-06
1.83162e-06
1.82798e-06
1.82792e-06
1.82797e-06
1.82797e-06
1.82792e-06
1.82798e-06
1.83153e-06
1.83262e-06
1.83524e-06
1.83161e-06
1.82793e-06
1.82797e-06
1.82807e-06
1.82807e-06
1.82797e-06
1.82793e-06
1.83148e-06
1.83311e-06
1.83322e-06
1.83153e-06
1.82793e-06
1.82797e-06
1.82807e-06
1.82807e-06
1.82797e-06
1.82793e-06
1.83166e-06
1.8316e-06
1.83154e-06
1.82798e-06
1.82792e-06
1.82797e-06
1.82797e-06
1.82792e-06
1.82798e-06
1.83144e-06
1.83249e-06
1.83283e-06
1.83114e-06
1.82798e-06
1.82793e-06
1.82793e-06
1.82798e-06
1.83132e-06
1.83154e-06
1.83296e-06
1.83316e-06
1.83136e-06
1.83153e-06
1.83148e-06
1.83166e-06
1.83144e-06
1.83154e-06
1.83346e-06
1.83262e-06
1.83312e-06
1.8316e-06
1.83248e-06
1.83296e-06
1.81513e-06
1.81495e-06
1.81479e-06
1.81263e-06
1.81255e-06
1.81252e-06
1.81261e-06
1.81478e-06
1.81502e-06
1.81479e-06
1.81191e-06
1.80892e-06
1.80882e-06
1.80882e-06
1.80891e-06
1.81249e-06
1.81309e-06
1.81263e-06
1.80895e-06
1.8086e-06
1.80862e-06
1.80862e-06
1.80859e-06
1.80891e-06
1.81331e-06
1.81529e-06
1.81514e-06
1.81255e-06
1.80883e-06
1.80862e-06
1.80865e-06
1.80864e-06
1.80862e-06
1.80882e-06
1.81336e-06
1.81502e-06
1.81495e-06
1.81252e-06
1.80882e-06
1.80862e-06
1.80865e-06
1.80865e-06
1.80862e-06
1.80882e-06
1.8133e-06
1.81318e-06
1.81261e-06
1.80891e-06
1.80859e-06
1.80862e-06
1.80862e-06
1.8086e-06
1.80892e-06
1.81337e-06
1.81536e-06
1.81478e-06
1.81249e-06
1.80891e-06
1.80882e-06
1.80883e-06
1.80895e-06
1.81298e-06
1.81324e-06
1.81527e-06
1.81502e-06
1.81308e-06
1.81331e-06
1.81336e-06
1.8133e-06
1.81337e-06
1.81323e-06
1.81521e-06
1.8153e-06
1.81502e-06
1.81318e-06
1.81536e-06
1.81527e-06
1.79599e-06
1.79581e-06
1.79568e-06
1.79346e-06
1.79338e-06
1.79328e-06
1.79348e-06
1.79566e-06
1.79591e-06
1.79567e-06
1.79266e-06
1.78972e-06
1.78968e-06
1.78968e-06
1.78973e-06
1.79327e-06
1.79402e-06
1.79345e-06
1.78972e-06
1.78958e-06
1.78958e-06
1.78958e-06
1.78958e-06
1.78973e-06
1.7942e-06
1.79616e-06
1.79597e-06
1.79337e-06
1.78968e-06
1.78958e-06
1.78958e-06
1.78958e-06
1.78958e-06
1.78968e-06
1.79427e-06
1.79587e-06
1.7958e-06
1.79328e-06
1.78968e-06
1.78958e-06
1.78958e-06
1.78958e-06
1.78958e-06
1.78968e-06
1.79423e-06
1.7941e-06
1.79347e-06
1.78972e-06
1.78958e-06
1.78958e-06
1.78958e-06
1.78958e-06
1.78973e-06
1.79425e-06
1.7962e-06
1.79565e-06
1.79327e-06
1.78973e-06
1.78968e-06
1.78968e-06
1.78972e-06
1.794e-06
1.79416e-06
1.79616e-06
1.79591e-06
1.79402e-06
1.79419e-06
1.79426e-06
1.79423e-06
1.79424e-06
1.79415e-06
1.79616e-06
1.79616e-06
1.79586e-06
1.7941e-06
1.79619e-06
1.79615e-06
1.77679e-06
1.77661e-06
1.77645e-06
1.77422e-06
1.77413e-06
1.77401e-06
1.77423e-06
1.77643e-06
1.77668e-06
1.77645e-06
1.77342e-06
1.77048e-06
1.77046e-06
1.77046e-06
1.77048e-06
1.77399e-06
1.77481e-06
1.77422e-06
1.77048e-06
1.77043e-06
1.77043e-06
1.77043e-06
1.77043e-06
1.77048e-06
1.77499e-06
1.77694e-06
1.77678e-06
1.77413e-06
1.77046e-06
1.77043e-06
1.77043e-06
1.77043e-06
1.77043e-06
1.77046e-06
1.77511e-06
1.7767e-06
1.77661e-06
1.77401e-06
1.77046e-06
1.77043e-06
1.77043e-06
1.77043e-06
1.77043e-06
1.77046e-06
1.77509e-06
1.77493e-06
1.77423e-06
1.77048e-06
1.77043e-06
1.77043e-06
1.77043e-06
1.77043e-06
1.77048e-06
1.77506e-06
1.77703e-06
1.77643e-06
1.77399e-06
1.77048e-06
1.77046e-06
1.77046e-06
1.77048e-06
1.77487e-06
1.77497e-06
1.77695e-06
1.77668e-06
1.77481e-06
1.77499e-06
1.77511e-06
1.77509e-06
1.77506e-06
1.77497e-06
1.77691e-06
1.77694e-06
1.7767e-06
1.77494e-06
1.77703e-06
1.77695e-06
1.75757e-06
1.7574e-06
1.75722e-06
1.75499e-06
1.7549e-06
1.75478e-06
1.755e-06
1.75721e-06
1.75745e-06
1.75722e-06
1.7542e-06
1.75124e-06
1.75124e-06
1.75124e-06
1.75124e-06
1.75474e-06
1.75558e-06
1.75499e-06
1.75124e-06
1.75123e-06
1.75123e-06
1.75123e-06
1.75123e-06
1.75124e-06
1.75577e-06
1.75772e-06
1.75757e-06
1.7549e-06
1.75124e-06
1.75123e-06
1.75123e-06
1.75123e-06
1.75123e-06
1.75124e-06
1.75589e-06
1.75749e-06
1.7574e-06
1.75478e-06
1.75124e-06
1.75123e-06
1.75123e-06
1.75123e-06
1.75123e-06
1.75124e-06
1.75588e-06
1.75573e-06
1.755e-06
1.75124e-06
1.75123e-06
1.75123e-06
1.75123e-06
1.75123e-06
1.75124e-06
1.75584e-06
1.75782e-06
1.75721e-06
1.75474e-06
1.75124e-06
1.75124e-06
1.75124e-06
1.75124e-06
1.75567e-06
1.75576e-06
1.75772e-06
1.75745e-06
1.75558e-06
1.75577e-06
1.75589e-06
1.75588e-06
1.75585e-06
1.75576e-06
1.7577e-06
1.75772e-06
1.75749e-06
1.75573e-06
1.75782e-06
1.75772e-06
1.73835e-06
1.73818e-06
1.738e-06
1.73577e-06
1.73568e-06
1.73556e-06
1.73578e-06
1.73798e-06
1.73822e-06
1.738e-06
1.73498e-06
1.73202e-06
1.73202e-06
1.73202e-06
1.73202e-06
1.73551e-06
1.73635e-06
1.73577e-06
1.73202e-06
1.73202e-06
1.73202e-06
1.73202e-06
1.73202e-06
1.73202e-06
1.73654e-06
1.7385e-06
1.73835e-06
1.73568e-06
1.73202e-06
1.73202e-06
1.73202e-06
1.73202e-06
1.73202e-06
1.73202e-06
1.73668e-06
1.73827e-06
1.73818e-06
1.73556e-06
1.73202e-06
1.73202e-06
1.73202e-06
1.73202e-06
1.73202e-06
1.73202e-06
1.73667e-06
1.73651e-06
1.73578e-06
1.73202e-06
1.73202e-06
1.73202e-06
1.73202e-06
1.73202e-06
1.73202e-06
1.73662e-06
1.7386e-06
1.73798e-06
1.73551e-06
1.73202e-06
1.73202e-06
1.73202e-06
1.73202e-06
1.73646e-06
1.73654e-06
1.7385e-06
1.73823e-06
1.73636e-06
1.73654e-06
1.73668e-06
1.73667e-06
1.73662e-06
1.73654e-06
1.73847e-06
1.7385e-06
1.73827e-06
1.73651e-06
1.7386e-06
1.7385e-06
1.71913e-06
1.71896e-06
1.71877e-06
1.71655e-06
1.71646e-06
1.71634e-06
1.71655e-06
1.71876e-06
1.719e-06
1.71877e-06
1.71576e-06
1.7128e-06
1.7128e-06
1.7128e-06
1.7128e-06
1.71629e-06
1.71713e-06
1.71655e-06
1.7128e-06
1.7128e-06
1.7128e-06
1.7128e-06
1.7128e-06
1.7128e-06
1.71732e-06
1.71928e-06
1.71913e-06
1.71646e-06
1.7128e-06
1.7128e-06
1.7128e-06
1.7128e-06
1.7128e-06
1.7128e-06
1.71746e-06
1.71906e-06
1.71896e-06
1.71634e-06
1.7128e-06
1.7128e-06
1.7128e-06
1.7128e-06
1.7128e-06
1.7128e-06
1.71745e-06
1.71729e-06
1.71655e-06
1.7128e-06
1.7128e-06
1.7128e-06
1.7128e-06
1.7128e-06
1.7128e-06
1.7174e-06
1.71938e-06
1.71876e-06
1.71629e-06
1.7128e-06
1.7128e-06
1.7128e-06
1.7128e-06
1.71724e-06
1.71732e-06
1.71928e-06
1.719e-06
1.71713e-06
1.71732e-06
1.71746e-06
1.71745e-06
1.7174e-06
1.71732e-06
1.71925e-06
1.71928e-06
1.71906e-06
1.71729e-06
1.71938e-06
1.71928e-06
1.69991e-06
1.69974e-06
1.69955e-06
1.69733e-06
1.69724e-06
1.69712e-06
1.69733e-06
1.69954e-06
1.69978e-06
1.69955e-06
1.69654e-06
1.69358e-06
1.69358e-06
1.69358e-06
1.69358e-06
1.69707e-06
1.69791e-06
1.69733e-06
1.69358e-06
1.69358e-06
1.69358e-06
1.69358e-06
1.69358e-06
1.69358e-06
1.6981e-06
1.70006e-06
1.69991e-06
1.69724e-06
1.69358e-06
1.69358e-06
1.69358e-06
1.69358e-06
1.69358e-06
1.69358e-06
1.69824e-06
1.69984e-06
1.69974e-06
1.69712e-06
1.69358e-06
1.69358e-06
1.69358e-06
1.69358e-06
1.69358e-06
1.69358e-06
1.69823e-06
1.69807e-06
1.69733e-06
1.69358e-06
1.69358e-06
1.69358e-06
1.69358e-06
1.69358e-06
1.69358e-06
1.69818e-06
1.70016e-06
1.69954e-06
1.69707e-06
1.69358e-06
1.69358e-06
1.69358e-06
1.69358e-06
1.69802e-06
1.69811e-06
1.70006e-06
1.69978e-06
1.69791e-06
1.6981e-06
1.69824e-06
1.69823e-06
1.69818e-06
1.69811e-06
1.70003e-06
1.70006e-06
1.69984e-06
1.69807e-06
1.70016e-06
1.70006e-06
1.68069e-06
1.68052e-06
1.68033e-06
1.67811e-06
1.67802e-06
1.6779e-06
1.67811e-06
1.68032e-06
1.68056e-06
1.68033e-06
1.67732e-06
1.67436e-06
1.67436e-06
1.67436e-06
1.67436e-06
1.67785e-06
1.67869e-06
1.67811e-06
1.67436e-06
1.67436e-06
1.67436e-06
1.67436e-06
1.67436e-06
1.67436e-06
1.67888e-06
1.68084e-06
1.68069e-06
1.67802e-06
1.67436e-06
1.67436e-06
1.67436e-06
1.67436e-06
1.67436e-06
1.67436e-06
1.67902e-06
1.68062e-06
1.68052e-06
1.6779e-06
1.67436e-06
1.67436e-06
1.67436e-06
1.67436e-06
1.67436e-06
1.67436e-06
1.67901e-06
1.67885e-06
1.67811e-06
1.67436e-06
1.67436e-06
1.67436e-06
1.67436e-06
1.67436e-06
1.67436e-06
1.67896e-06
1.68094e-06
1.68032e-06
1.67785e-06
1.67436e-06
1.67436e-06
1.67436e-06
1.67436e-06
1.6788e-06
1.67889e-06
1.68084e-06
1.68056e-06
1.67869e-06
1.67888e-06
1.67902e-06
1.67901e-06
1.67896e-06
1.67889e-06
1.68081e-06
1.68084e-06
1.68062e-06
1.67885e-06
1.68094e-06
1.68084e-06
1.66147e-06
1.6613e-06
1.66111e-06
1.65889e-06
1.6588e-06
1.65868e-06
1.65889e-06
1.6611e-06
1.66134e-06
1.66111e-06
1.6581e-06
1.65514e-06
1.65514e-06
1.65514e-06
1.65514e-06
1.65862e-06
1.65947e-06
1.65889e-06
1.65514e-06
1.65514e-06
1.65514e-06
1.65514e-06
1.65514e-06
1.65514e-06
1.65966e-06
1.66162e-06
1.66147e-06
1.6588e-06
1.65514e-06
1.65514e-06
1.65514e-06
1.65514e-06
1.65514e-06
1.65514e-06
1.6598e-06
1.6614e-06
1.6613e-06
1.65868e-06
1.65514e-06
1.65514e-06
1.65514e-06
1.65514e-06
1.65514e-06
1.65514e-06
1.65979e-06
1.65963e-06
1.65889e-06
1.65514e-06
1.65514e-06
1.65514e-06
1.65514e-06
1.65514e-06
1.65514e-06
1.65974e-06
1.66172e-06
1.6611e-06
1.65863e-06
1.65514e-06
1.65514e-06
1.65514e-06
1.65514e-06
1.65958e-06
1.65967e-06
1.66162e-06
1.66134e-06
1.65947e-06
1.65966e-06
1.65979e-06
1.65979e-06
1.65974e-06
1.65967e-06
1.66159e-06
1.66162e-06
1.6614e-06
1.65963e-06
1.66172e-06
1.66162e-06
1.64225e-06
1.64208e-06
1.64189e-06
1.63967e-06
1.63958e-06
1.63946e-06
1.63967e-06
1.64188e-06
1.64212e-06
1.64189e-06
1.63888e-06
1.63592e-06
1.63592e-06
1.63592e-06
1.63592e-06
1.6394e-06
1.64025e-06
1.63967e-06
1.63592e-06
1.63592e-06
1.63592e-06
1.63592e-06
1.63592e-06
1.63592e-06
1.64044e-06
1.6424e-06
1.64225e-06
1.63958e-06
1.63592e-06
1.63592e-06
1.63592e-06
1.63592e-06
1.63592e-06
1.63592e-06
1.64058e-06
1.64217e-06
1.64208e-06
1.63946e-06
1.63592e-06
1.63592e-06
1.63592e-06
1.63592e-06
1.63592e-06
1.63592e-06
1.64057e-06
1.64041e-06
1.63967e-06
1.63592e-06
1.63592e-06
1.63592e-06
1.63592e-06
1.63592e-06
1.63592e-06
1.64052e-06
1.6425e-06
1.64188e-06
1.63941e-06
1.63592e-06
1.63592e-06
1.63592e-06
1.63592e-06
1.64036e-06
1.64044e-06
1.6424e-06
1.64212e-06
1.64025e-06
1.64044e-06
1.64057e-06
1.64057e-06
1.64052e-06
1.64045e-06
1.64236e-06
1.6424e-06
1.64217e-06
1.64041e-06
1.6425e-06
1.6424e-06
1.62303e-06
1.62286e-06
1.62267e-06
1.62045e-06
1.62035e-06
1.62024e-06
1.62045e-06
1.62266e-06
1.6229e-06
1.62267e-06
1.61966e-06
1.6167e-06
1.6167e-06
1.6167e-06
1.6167e-06
1.62018e-06
1.62103e-06
1.62045e-06
1.6167e-06
1.6167e-06
1.6167e-06
1.6167e-06
1.6167e-06
1.6167e-06
1.62122e-06
1.62318e-06
1.62303e-06
1.62035e-06
1.6167e-06
1.6167e-06
1.6167e-06
1.6167e-06
1.6167e-06
1.6167e-06
1.62136e-06
1.62295e-06
1.62286e-06
1.62024e-06
1.6167e-06
1.6167e-06
1.6167e-06
1.6167e-06
1.6167e-06
1.6167e-06
1.62135e-06
1.62119e-06
1.62045e-06
1.6167e-06
1.6167e-06
1.6167e-06
1.6167e-06
1.6167e-06
1.6167e-06
1.6213e-06
1.62328e-06
1.62266e-06
1.62019e-06
1.6167e-06
1.6167e-06
1.6167e-06
1.6167e-06
1.62114e-06
1.62122e-06
1.62318e-06
1.6229e-06
1.62103e-06
1.62122e-06
1.62135e-06
1.62135e-06
1.6213e-06
1.62122e-06
1.62314e-06
1.62318e-06
1.62295e-06
1.62119e-06
1.62328e-06
1.62318e-06
1.60381e-06
1.60364e-06
1.60345e-06
1.60123e-06
1.60113e-06
1.60101e-06
1.60123e-06
1.60344e-06
1.60368e-06
1.60345e-06
1.60044e-06
1.59748e-06
1.59748e-06
1.59748e-06
1.59748e-06
1.60096e-06
1.60181e-06
1.60123e-06
1.59748e-06
1.59748e-06
1.59748e-06
1.59748e-06
1.59748e-06
1.59748e-06
1.602e-06
1.60396e-06
1.60381e-06
1.60113e-06
1.59748e-06
1.59748e-06
1.59748e-06
1.59748e-06
1.59748e-06
1.59748e-06
1.60213e-06
1.60373e-06
1.60364e-06
1.60101e-06
1.59748e-06
1.59748e-06
1.59748e-06
1.59748e-06
1.59748e-06
1.59748e-06
1.60212e-06
1.60197e-06
1.60123e-06
1.59748e-06
1.59748e-06
1.59748e-06
1.59748e-06
1.59748e-06
1.59748e-06
1.60208e-06
1.60406e-06
1.60344e-06
1.60096e-06
1.59748e-06
1.59748e-06
1.59748e-06
1.59748e-06
1.60192e-06
1.602e-06
1.60396e-06
1.60368e-06
1.60181e-06
1.602e-06
1.60213e-06
1.60212e-06
1.60208e-06
1.602e-06
1.60392e-06
1.60396e-06
1.60373e-06
1.60197e-06
1.60406e-06
1.60396e-06
1.58458e-06
1.58442e-06
1.58423e-06
1.58201e-06
1.58191e-06
1.58179e-06
1.58201e-06
1.58422e-06
1.58446e-06
1.58423e-06
1.58121e-06
1.57825e-06
1.57825e-06
1.57825e-06
1.57825e-06
1.58174e-06
1.58259e-06
1.582e-06
1.57825e-06
1.57825e-06
1.57825e-06
1.57825e-06
1.57825e-06
1.57825e-06
1.58278e-06
1.58474e-06
1.58459e-06
1.58191e-06
1.57825e-06
1.57825e-06
1.57825e-06
1.57825e-06
1.57825e-06
1.57825e-06
1.58291e-06
1.58451e-06
1.58442e-06
1.58179e-06
1.57825e-06
1.57825e-06
1.57825e-06
1.57825e-06
1.57825e-06
1.57825e-06
1.5829e-06
1.58275e-06
1.58201e-06
1.57825e-06
1.57825e-06
1.57825e-06
1.57825e-06
1.57825e-06
1.57825e-06
1.58286e-06
1.58484e-06
1.58422e-06
1.58174e-06
1.57825e-06
1.57825e-06
1.57825e-06
1.57825e-06
1.5827e-06
1.58278e-06
1.58473e-06
1.58446e-06
1.58259e-06
1.58278e-06
1.58291e-06
1.5829e-06
1.58286e-06
1.58278e-06
1.5847e-06
1.58474e-06
1.58451e-06
1.58275e-06
1.58484e-06
1.58473e-06
1.56536e-06
1.5652e-06
1.56501e-06
1.56278e-06
1.56269e-06
1.56257e-06
1.56279e-06
1.565e-06
1.56524e-06
1.56501e-06
1.56199e-06
1.55903e-06
1.55903e-06
1.55903e-06
1.55903e-06
1.56252e-06
1.56337e-06
1.56278e-06
1.55903e-06
1.55903e-06
1.55903e-06
1.55903e-06
1.55903e-06
1.55903e-06
1.56356e-06
1.56552e-06
1.56537e-06
1.56269e-06
1.55903e-06
1.55903e-06
1.55903e-06
1.55903e-06
1.55903e-06
1.55903e-06
1.56369e-06
1.56529e-06
1.5652e-06
1.56257e-06
1.55903e-06
1.55903e-06
1.55903e-06
1.55903e-06
1.55903e-06
1.55903e-06
1.56368e-06
1.56353e-06
1.56279e-06
1.55903e-06
1.55903e-06
1.55903e-06
1.55903e-06
1.55903e-06
1.55903e-06
1.56364e-06
1.56562e-06
1.565e-06
1.56252e-06
1.55903e-06
1.55903e-06
1.55903e-06
1.55903e-06
1.56348e-06
1.56356e-06
1.56551e-06
1.56524e-06
1.56337e-06
1.56356e-06
1.56369e-06
1.56368e-06
1.56364e-06
1.56356e-06
1.56548e-06
1.56552e-06
1.56529e-06
1.56353e-06
1.56562e-06
1.56551e-06
1.54614e-06
1.54597e-06
1.54579e-06
1.54356e-06
1.54347e-06
1.54335e-06
1.54357e-06
1.54578e-06
1.54602e-06
1.54579e-06
1.54277e-06
1.53981e-06
1.53981e-06
1.53981e-06
1.53981e-06
1.5433e-06
1.54415e-06
1.54356e-06
1.53981e-06
1.53981e-06
1.53981e-06
1.53981e-06
1.53981e-06
1.53981e-06
1.54434e-06
1.5463e-06
1.54615e-06
1.54347e-06
1.53981e-06
1.53981e-06
1.53981e-06
1.53981e-06
1.53981e-06
1.53981e-06
1.54447e-06
1.54607e-06
1.54597e-06
1.54335e-06
1.53981e-06
1.53981e-06
1.53981e-06
1.53981e-06
1.53981e-06
1.53981e-06
1.54446e-06
1.54431e-06
1.54357e-06
1.53981e-06
1.53981e-06
1.53981e-06
1.53981e-06
1.53981e-06
1.53981e-06
1.54442e-06
1.5464e-06
1.54578e-06
1.5433e-06
1.53981e-06
1.53981e-06
1.53981e-06
1.53981e-06
1.54426e-06
1.54434e-06
1.54629e-06
1.54602e-06
1.54415e-06
1.54434e-06
1.54447e-06
1.54446e-06
1.54441e-06
1.54434e-06
1.54626e-06
1.5463e-06
1.54607e-06
1.54431e-06
1.5464e-06
1.54629e-06
1.52692e-06
1.52675e-06
1.52657e-06
1.52434e-06
1.52425e-06
1.52413e-06
1.52435e-06
1.52656e-06
1.5268e-06
1.52657e-06
1.52355e-06
1.52059e-06
1.52059e-06
1.52059e-06
1.52059e-06
1.52408e-06
1.52493e-06
1.52434e-06
1.52059e-06
1.52059e-06
1.52059e-06
1.52059e-06
1.52059e-06
1.52059e-06
1.52512e-06
1.52708e-06
1.52693e-06
1.52425e-06
1.52059e-06
1.52059e-06
1.52059e-06
1.52059e-06
1.52059e-06
1.52059e-06
1.52525e-06
1.52685e-06
1.52675e-06
1.52413e-06
1.52059e-06
1.52059e-06
1.52059e-06
1.52059e-06
1.52059e-06
1.52059e-06
1.52524e-06
1.52508e-06
1.52435e-06
1.52059e-06
1.52059e-06
1.52059e-06
1.52059e-06
1.52059e-06
1.52059e-06
1.5252e-06
1.52718e-06
1.52656e-06
1.52408e-06
1.52059e-06
1.52059e-06
1.52059e-06
1.52059e-06
1.52504e-06
1.52512e-06
1.52707e-06
1.5268e-06
1.52493e-06
1.52511e-06
1.52525e-06
1.52524e-06
1.52519e-06
1.52512e-06
1.52704e-06
1.52708e-06
1.52685e-06
1.52509e-06
1.52718e-06
1.52707e-06
1.5077e-06
1.50753e-06
1.50735e-06
1.50512e-06
1.50503e-06
1.50491e-06
1.50513e-06
1.50734e-06
1.50758e-06
1.50735e-06
1.50433e-06
1.50137e-06
1.50137e-06
1.50137e-06
1.50137e-06
1.50486e-06
1.50571e-06
1.50512e-06
1.50137e-06
1.50137e-06
1.50137e-06
1.50137e-06
1.50137e-06
1.50137e-06
1.50589e-06
1.50786e-06
1.5077e-06
1.50503e-06
1.50137e-06
1.50137e-06
1.50137e-06
1.50137e-06
1.50137e-06
1.50137e-06
1.50603e-06
1.50763e-06
1.50753e-06
1.50491e-06
1.50137e-06
1.50137e-06
1.50137e-06
1.50137e-06
1.50137e-06
1.50137e-06
1.50602e-06
1.50586e-06
1.50513e-06
1.50137e-06
1.50137e-06
1.50137e-06
1.50137e-06
1.50137e-06
1.50137e-06
1.50598e-06
1.50795e-06
1.50734e-06
1.50486e-06
1.50137e-06
1.50137e-06
1.50137e-06
1.50137e-06
1.50581e-06
1.5059e-06
1.50785e-06
1.50758e-06
1.50571e-06
1.50589e-06
1.50603e-06
1.50602e-06
1.50597e-06
1.5059e-06
1.50782e-06
1.50786e-06
1.50763e-06
1.50586e-06
1.50795e-06
1.50785e-06
1.48848e-06
1.48831e-06
1.48812e-06
1.4859e-06
1.48581e-06
1.48569e-06
1.48591e-06
1.48811e-06
1.48836e-06
1.48812e-06
1.48511e-06
1.48215e-06
1.48215e-06
1.48215e-06
1.48215e-06
1.48564e-06
1.48649e-06
1.4859e-06
1.48215e-06
1.48215e-06
1.48215e-06
1.48215e-06
1.48215e-06
1.48215e-06
1.48667e-06
1.48864e-06
1.48848e-06
1.48581e-06
1.48215e-06
1.48215e-06
1.48215e-06
1.48215e-06
1.48215e-06
1.48215e-06
1.48681e-06
1.48841e-06
1.48831e-06
1.48569e-06
1.48215e-06
1.48215e-06
1.48215e-06
1.48215e-06
1.48215e-06
1.48215e-06
1.4868e-06
1.48664e-06
1.48591e-06
1.48215e-06
1.48215e-06
1.48215e-06
1.48215e-06
1.48215e-06
1.48215e-06
1.48676e-06
1.48873e-06
1.48812e-06
1.48564e-06
1.48215e-06
1.48215e-06
1.48215e-06
1.48215e-06
1.48659e-06
1.48668e-06
1.48863e-06
1.48836e-06
1.48649e-06
1.48667e-06
1.48681e-06
1.4868e-06
1.48675e-06
1.48668e-06
1.4886e-06
1.48863e-06
1.48841e-06
1.48664e-06
1.48873e-06
1.48863e-06
1.46926e-06
1.46909e-06
1.4689e-06
1.46668e-06
1.46659e-06
1.46647e-06
1.46669e-06
1.46889e-06
1.46913e-06
1.4689e-06
1.46589e-06
1.46293e-06
1.46293e-06
1.46293e-06
1.46293e-06
1.46642e-06
1.46726e-06
1.46668e-06
1.46293e-06
1.46293e-06
1.46293e-06
1.46293e-06
1.46293e-06
1.46293e-06
1.46745e-06
1.46941e-06
1.46926e-06
1.46659e-06
1.46293e-06
1.46293e-06
1.46293e-06
1.46293e-06
1.46293e-06
1.46293e-06
1.46759e-06
1.46919e-06
1.46909e-06
1.46647e-06
1.46293e-06
1.46293e-06
1.46293e-06
1.46293e-06
1.46293e-06
1.46293e-06
1.46758e-06
1.46742e-06
1.46669e-06
1.46293e-06
1.46293e-06
1.46293e-06
1.46293e-06
1.46293e-06
1.46293e-06
1.46754e-06
1.46951e-06
1.4689e-06
1.46642e-06
1.46293e-06
1.46293e-06
1.46293e-06
1.46293e-06
1.46737e-06
1.46746e-06
1.46941e-06
1.46914e-06
1.46727e-06
1.46745e-06
1.46759e-06
1.46758e-06
1.46753e-06
1.46746e-06
1.46938e-06
1.46941e-06
1.46919e-06
1.46742e-06
1.46951e-06
1.46941e-06
1.45004e-06
1.44987e-06
1.44968e-06
1.44746e-06
1.44737e-06
1.44725e-06
1.44747e-06
1.44967e-06
1.44991e-06
1.44968e-06
1.44667e-06
1.44371e-06
1.44371e-06
1.44371e-06
1.44371e-06
1.4472e-06
1.44805e-06
1.44746e-06
1.44371e-06
1.44371e-06
1.44371e-06
1.44371e-06
1.44371e-06
1.44371e-06
1.44823e-06
1.4502e-06
1.45004e-06
1.44737e-06
1.44371e-06
1.44371e-06
1.44371e-06
1.44371e-06
1.44371e-06
1.44371e-06
1.44837e-06
1.44997e-06
1.44987e-06
1.44725e-06
1.44371e-06
1.44371e-06
1.44371e-06
1.44371e-06
1.44371e-06
1.44371e-06
1.44836e-06
1.4482e-06
1.44747e-06
1.44371e-06
1.44371e-06
1.44371e-06
1.44371e-06
1.44371e-06
1.44371e-06
1.44832e-06
1.45029e-06
1.44968e-06
1.4472e-06
1.44371e-06
1.44371e-06
1.44371e-06
1.44371e-06
1.44815e-06
1.44824e-06
1.45019e-06
1.44992e-06
1.44805e-06
1.44823e-06
1.44837e-06
1.44836e-06
1.44831e-06
1.44824e-06
1.45016e-06
1.45019e-06
1.44997e-06
1.4482e-06
1.45029e-06
1.45019e-06
1.43082e-06
1.43065e-06
1.43046e-06
1.42824e-06
1.42815e-06
1.42803e-06
1.42825e-06
1.43045e-06
1.43069e-06
1.43046e-06
1.42745e-06
1.42449e-06
1.42449e-06
1.42449e-06
1.42449e-06
1.42798e-06
1.42882e-06
1.42824e-06
1.42449e-06
1.42449e-06
1.42449e-06
1.42449e-06
1.42449e-06
1.42449e-06
1.42901e-06
1.43097e-06
1.43082e-06
1.42815e-06
1.42449e-06
1.42449e-06
1.42449e-06
1.42449e-06
1.42449e-06
1.42449e-06
1.42915e-06
1.43075e-06
1.43065e-06
1.42803e-06
1.42449e-06
1.42449e-06
1.42449e-06
1.42449e-06
1.42449e-06
1.42449e-06
1.42914e-06
1.42898e-06
1.42825e-06
1.42449e-06
1.42449e-06
1.42449e-06
1.42449e-06
1.42449e-06
1.42449e-06
1.4291e-06
1.43107e-06
1.43046e-06
1.42798e-06
1.42449e-06
1.42449e-06
1.42449e-06
1.42449e-06
1.42893e-06
1.42902e-06
1.43097e-06
1.4307e-06
1.42883e-06
1.42901e-06
1.42915e-06
1.42914e-06
1.42909e-06
1.42902e-06
1.43094e-06
1.43097e-06
1.43075e-06
1.42898e-06
1.43107e-06
1.43097e-06
1.4116e-06
1.41143e-06
1.41124e-06
1.40902e-06
1.40893e-06
1.40881e-06
1.40902e-06
1.41123e-06
1.41147e-06
1.41124e-06
1.40823e-06
1.40527e-06
1.40527e-06
1.40527e-06
1.40527e-06
1.40876e-06
1.4096e-06
1.40902e-06
1.40527e-06
1.40527e-06
1.40527e-06
1.40527e-06
1.40527e-06
1.40527e-06
1.40979e-06
1.41175e-06
1.4116e-06
1.40893e-06
1.40527e-06
1.40527e-06
1.40527e-06
1.40527e-06
1.40527e-06
1.40527e-06
1.40993e-06
1.41153e-06
1.41143e-06
1.40881e-06
1.40527e-06
1.40527e-06
1.40527e-06
1.40527e-06
1.40527e-06
1.40527e-06
1.40992e-06
1.40976e-06
1.40902e-06
1.40527e-06
1.40527e-06
1.40527e-06
1.40527e-06
1.40527e-06
1.40527e-06
1.40987e-06
1.41185e-06
1.41123e-06
1.40876e-06
1.40527e-06
1.40527e-06
1.40527e-06
1.40527e-06
1.40971e-06
1.4098e-06
1.41175e-06
1.41147e-06
1.40961e-06
1.40979e-06
1.40993e-06
1.40992e-06
1.40987e-06
1.4098e-06
1.41172e-06
1.41175e-06
1.41153e-06
1.40976e-06
1.41185e-06
1.41175e-06
1.39238e-06
1.39221e-06
1.39202e-06
1.3898e-06
1.38971e-06
1.38959e-06
1.3898e-06
1.39201e-06
1.39225e-06
1.39202e-06
1.38901e-06
1.38605e-06
1.38605e-06
1.38605e-06
1.38605e-06
1.38954e-06
1.39038e-06
1.3898e-06
1.38605e-06
1.38605e-06
1.38605e-06
1.38605e-06
1.38605e-06
1.38605e-06
1.39057e-06
1.39253e-06
1.39238e-06
1.38971e-06
1.38605e-06
1.38605e-06
1.38605e-06
1.38605e-06
1.38605e-06
1.38605e-06
1.39071e-06
1.39231e-06
1.39221e-06
1.38959e-06
1.38605e-06
1.38605e-06
1.38605e-06
1.38605e-06
1.38605e-06
1.38605e-06
1.3907e-06
1.39054e-06
1.3898e-06
1.38605e-06
1.38605e-06
1.38605e-06
1.38605e-06
1.38605e-06
1.38605e-06
1.39065e-06
1.39263e-06
1.39201e-06
1.38954e-06
1.38605e-06
1.38605e-06
1.38605e-06
1.38605e-06
1.39049e-06
1.39058e-06
1.39253e-06
1.39225e-06
1.39038e-06
1.39057e-06
1.3907e-06
1.3907e-06
1.39065e-06
1.39058e-06
1.3925e-06
1.39253e-06
1.39231e-06
1.39054e-06
1.39263e-06
1.39253e-06
1.37316e-06
1.37299e-06
1.3728e-06
1.37058e-06
1.37049e-06
1.37037e-06
1.37058e-06
1.37279e-06
1.37303e-06
1.3728e-06
1.36979e-06
1.36683e-06
1.36683e-06
1.36683e-06
1.36683e-06
1.37032e-06
1.37116e-06
1.37058e-06
1.36683e-06
1.36683e-06
1.36683e-06
1.36683e-06
1.36683e-06
1.36683e-06
1.37135e-06
1.37331e-06
1.37316e-06
1.37049e-06
1.36683e-06
1.36683e-06
1.36683e-06
1.36683e-06
1.36683e-06
1.36683e-06
1.37149e-06
1.37308e-06
1.37299e-06
1.37037e-06
1.36683e-06
1.36683e-06
1.36683e-06
1.36683e-06
1.36683e-06
1.36683e-06
1.37148e-06
1.37132e-06
1.37058e-06
1.36683e-06
1.36683e-06
1.36683e-06
1.36683e-06
1.36683e-06
1.36683e-06
1.37143e-06
1.37341e-06
1.37279e-06
1.37032e-06
1.36683e-06
1.36683e-06
1.36683e-06
1.36683e-06
1.37127e-06
1.37135e-06
1.37331e-06
1.37303e-06
1.37116e-06
1.37135e-06
1.37148e-06
1.37148e-06
1.37143e-06
1.37136e-06
1.37327e-06
1.37331e-06
1.37308e-06
1.37132e-06
1.37341e-06
1.37331e-06
1.35394e-06
1.35377e-06
1.35358e-06
1.35136e-06
1.35127e-06
1.35115e-06
1.35136e-06
1.35357e-06
1.35381e-06
1.35358e-06
1.35057e-06
1.34761e-06
1.34761e-06
1.34761e-06
1.34761e-06
1.3511e-06
1.35194e-06
1.35136e-06
1.34761e-06
1.34761e-06
1.34761e-06
1.34761e-06
1.34761e-06
1.34761e-06
1.35213e-06
1.35409e-06
1.35394e-06
1.35127e-06
1.34761e-06
1.34761e-06
1.34761e-06
1.34761e-06
1.34761e-06
1.34761e-06
1.35227e-06
1.35386e-06
1.35377e-06
1.35115e-06
1.34761e-06
1.34761e-06
1.34761e-06
1.34761e-06
1.34761e-06
1.34761e-06
1.35226e-06
1.3521e-06
1.35136e-06
1.34761e-06
1.34761e-06
1.34761e-06
1.34761e-06
1.34761e-06
1.34761e-06
1.35221e-06
1.35419e-06
1.35357e-06
1.3511e-06
1.34761e-06
1.34761e-06
1.34761e-06
1.34761e-06
1.35205e-06
1.35213e-06
1.35409e-06
1.35381e-06
1.35194e-06
1.35213e-06
1.35226e-06
1.35226e-06
1.35221e-06
1.35214e-06
1.35405e-06
1.35409e-06
1.35386e-06
1.3521e-06
1.35419e-06
1.35409e-06
1.33472e-06
1.33455e-06
1.33436e-06
1.33214e-06
1.33205e-06
1.33193e-06
1.33214e-06
1.33435e-06
1.33459e-06
1.33436e-06
1.33135e-06
1.32839e-06
1.32839e-06
1.32839e-06
1.32839e-06
1.33188e-06
1.33272e-06
1.33214e-06
1.32839e-06
1.32839e-06
1.32839e-06
1.32839e-06
1.32839e-06
1.32839e-06
1.33291e-06
1.33487e-06
1.33472e-06
1.33204e-06
1.32839e-06
1.32839e-06
1.32839e-06
1.32839e-06
1.32839e-06
1.32839e-06
1.33305e-06
1.33464e-06
1.33455e-06
1.33193e-06
1.32839e-06
1.32839e-06
1.32839e-06
1.32839e-06
1.32839e-06
1.32839e-06
1.33304e-06
1.33288e-06
1.33214e-06
1.32839e-06
1.32839e-06
1.32839e-06
1.32839e-06
1.32839e-06
1.32839e-06
1.33299e-06
1.33497e-06
1.33435e-06
1.33188e-06
1.32839e-06
1.32839e-06
1.32839e-06
1.32839e-06
1.33283e-06
1.33291e-06
1.33487e-06
1.33459e-06
1.33272e-06
1.33291e-06
1.33304e-06
1.33304e-06
1.33299e-06
1.33291e-06
1.33483e-06
1.33487e-06
1.33464e-06
1.33288e-06
1.33497e-06
1.33487e-06
1.3155e-06
1.31533e-06
1.31514e-06
1.31292e-06
1.31282e-06
1.3127e-06
1.31292e-06
1.31513e-06
1.31537e-06
1.31514e-06
1.31213e-06
1.30917e-06
1.30917e-06
1.30917e-06
1.30917e-06
1.31265e-06
1.3135e-06
1.31292e-06
1.30917e-06
1.30917e-06
1.30917e-06
1.30917e-06
1.30917e-06
1.30917e-06
1.31369e-06
1.31565e-06
1.3155e-06
1.31282e-06
1.30917e-06
1.30917e-06
1.30917e-06
1.30917e-06
1.30917e-06
1.30917e-06
1.31383e-06
1.31542e-06
1.31533e-06
1.31271e-06
1.30917e-06
1.30917e-06
1.30917e-06
1.30917e-06
1.30917e-06
1.30917e-06
1.31382e-06
1.31366e-06
1.31292e-06
1.30917e-06
1.30917e-06
1.30917e-06
1.30917e-06
1.30917e-06
1.30917e-06
1.31377e-06
1.31575e-06
1.31513e-06
1.31266e-06
1.30917e-06
1.30917e-06
1.30917e-06
1.30917e-06
1.31361e-06
1.31369e-06
1.31565e-06
1.31537e-06
1.3135e-06
1.31369e-06
1.31382e-06
1.31382e-06
1.31377e-06
1.31369e-06
1.31561e-06
1.31565e-06
1.31542e-06
1.31366e-06
1.31575e-06
1.31565e-06
1.29628e-06
1.29611e-06
1.29592e-06
1.2937e-06
1.2936e-06
1.29348e-06
1.2937e-06
1.29591e-06
1.29615e-06
1.29592e-06
1.29291e-06
1.28995e-06
1.28995e-06
1.28995e-06
1.28995e-06
1.29343e-06
1.29428e-06
1.2937e-06
1.28995e-06
1.28995e-06
1.28995e-06
1.28995e-06
1.28995e-06
1.28995e-06
1.29447e-06
1.29643e-06
1.29628e-06
1.2936e-06
1.28995e-06
1.28995e-06
1.28995e-06
1.28995e-06
1.28995e-06
1.28995e-06
1.2946e-06
1.2962e-06
1.29611e-06
1.29349e-06
1.28995e-06
1.28995e-06
1.28995e-06
1.28995e-06
1.28995e-06
1.28995e-06
1.2946e-06
1.29444e-06
1.2937e-06
1.28995e-06
1.28995e-06
1.28995e-06
1.28995e-06
1.28995e-06
1.28995e-06
1.29455e-06
1.29653e-06
1.29591e-06
1.29343e-06
1.28995e-06
1.28995e-06
1.28995e-06
1.28995e-06
1.29439e-06
1.29447e-06
1.29643e-06
1.29615e-06
1.29428e-06
1.29447e-06
1.2946e-06
1.2946e-06
1.29455e-06
1.29447e-06
1.29639e-06
1.29643e-06
1.2962e-06
1.29444e-06
1.29653e-06
1.29643e-06
1.27706e-06
1.27689e-06
1.2767e-06
1.27448e-06
1.27438e-06
1.27426e-06
1.27448e-06
1.27669e-06
1.27693e-06
1.2767e-06
1.27369e-06
1.27073e-06
1.27073e-06
1.27073e-06
1.27073e-06
1.27421e-06
1.27506e-06
1.27448e-06
1.27073e-06
1.27073e-06
1.27073e-06
1.27073e-06
1.27073e-06
1.27073e-06
1.27525e-06
1.27721e-06
1.27706e-06
1.27438e-06
1.27073e-06
1.27073e-06
1.27073e-06
1.27073e-06
1.27073e-06
1.27073e-06
1.27538e-06
1.27698e-06
1.27689e-06
1.27426e-06
1.27073e-06
1.27073e-06
1.27073e-06
1.27073e-06
1.27073e-06
1.27073e-06
1.27538e-06
1.27522e-06
1.27448e-06
1.27073e-06
1.27073e-06
1.27073e-06
1.27073e-06
1.27073e-06
1.27073e-06
1.27533e-06
1.27731e-06
1.27669e-06
1.27421e-06
1.27073e-06
1.27073e-06
1.27073e-06
1.27073e-06
1.27517e-06
1.27525e-06
1.27721e-06
1.27693e-06
1.27506e-06
1.27525e-06
1.27538e-06
1.27538e-06
1.27533e-06
1.27525e-06
1.27717e-06
1.27721e-06
1.27698e-06
1.27522e-06
1.27731e-06
1.27721e-06
1.25784e-06
1.25767e-06
1.25748e-06
1.25526e-06
1.25516e-06
1.25504e-06
1.25526e-06
1.25747e-06
1.25771e-06
1.25748e-06
1.25446e-06
1.25151e-06
1.25151e-06
1.25151e-06
1.25151e-06
1.25499e-06
1.25584e-06
1.25526e-06
1.25151e-06
1.25151e-06
1.25151e-06
1.25151e-06
1.25151e-06
1.25151e-06
1.25603e-06
1.25799e-06
1.25784e-06
1.25516e-06
1.25151e-06
1.25151e-06
1.25151e-06
1.25151e-06
1.25151e-06
1.25151e-06
1.25616e-06
1.25776e-06
1.25767e-06
1.25504e-06
1.25151e-06
1.25151e-06
1.25151e-06
1.25151e-06
1.25151e-06
1.25151e-06
1.25616e-06
1.256e-06
1.25526e-06
1.25151e-06
1.25151e-06
1.25151e-06
1.25151e-06
1.25151e-06
1.25151e-06
1.25611e-06
1.25809e-06
1.25747e-06
1.25499e-06
1.25151e-06
1.25151e-06
1.25151e-06
1.25151e-06
1.25595e-06