/*--------------------------------*- C++ -*----------------------------------*\
| =========                 |                                                 |
| \\      /  F ield         | OpenFOAM: The Open Source CFD Toolbox           |
|  \\    /   O peration     | Version:  v2006                                 |
|   \\  /    A nd           | Website:  www.openfoam.com                      |
|    \\/     M anipulation  |                                                 |
\*---------------------------------------------------------------------------*/
FoamFile
{
    version     2.0;
    format      ascii;
    class       volScalarField;
    location    "750";
    object      k;
}
// * * * * * * * * * * * * * * * * * * * * * * * * * * * * * * * * * * * * * //

dimensions      [0 2 -2 0 0 0 0];


internalField   nonuniform List<scalar> 
42840
(
2.19655e-05
3.78094e-05
3.78113e-05
4.28492e-05
2.27434e-05
3.86889e-05
3.86917e-05
4.35463e-05
2.35457e-05
3.95458e-05
3.955e-05
4.42234e-05
2.43479e-05
4.03704e-05
4.03731e-05
4.487e-05
2.51652e-05
4.11689e-05
4.11723e-05
4.55021e-05
2.59716e-05
4.19283e-05
4.1934e-05
4.60909e-05
2.67883e-05
4.26744e-05
4.2676e-05
4.66744e-05
2.76002e-05
4.33863e-05
4.33895e-05
4.72343e-05
2.8407e-05
4.40775e-05
4.40787e-05
4.7779e-05
2.92081e-05
4.47121e-05
4.47186e-05
4.82745e-05
2.99496e-05
4.53361e-05
4.53386e-05
4.87498e-05
3.07488e-05
4.59494e-05
4.59553e-05
4.92407e-05
3.14847e-05
4.65143e-05
4.65113e-05
4.96939e-05
3.22206e-05
4.70343e-05
4.70408e-05
5.00797e-05
3.28882e-05
4.75748e-05
4.75803e-05
5.05195e-05
3.36858e-05
4.81155e-05
4.81205e-05
5.09499e-05
3.42315e-05
4.84441e-05
4.8449e-05
5.11544e-05
3.47117e-05
4.88229e-05
4.88015e-05
5.15218e-05
3.5589e-05
4.94835e-05
4.94511e-05
5.20204e-05
3.63046e-05
4.98217e-05
4.99412e-05
5.22817e-05
3.63746e-05
4.97741e-05
4.99187e-05
5.21842e-05
3.71891e-05
5.07642e-05
5.03991e-05
5.31002e-05
3.86693e-05
5.18144e-05
5.15796e-05
5.41661e-05
3.85474e-05
5.08419e-05
5.14211e-05
5.293e-05
3.61021e-05
4.84295e-05
4.87879e-05
5.01949e-05
3.60062e-05
4.86984e-05
4.8743e-05
5.19356e-05
4.26878e-05
3.75889e-05
3.75846e-05
4.26864e-05
3.75851e-05
3.7588e-05
3.75855e-05
3.75885e-05
4.26886e-05
3.75883e-05
3.75848e-05
4.26883e-05
4.28488e-05
4.33871e-05
3.7812e-05
3.78084e-05
3.84714e-05
3.84684e-05
4.28477e-05
4.33872e-05
3.78078e-05
3.78107e-05
3.84676e-05
3.84713e-05
3.78121e-05
3.84703e-05
3.84732e-05
4.28492e-05
4.33892e-05
3.7808e-05
3.84727e-05
3.84696e-05
4.33899e-05
4.35437e-05
4.40731e-05
3.86903e-05
3.86868e-05
3.9339e-05
3.93329e-05
4.35435e-05
4.40698e-05
3.86862e-05
3.86898e-05
3.93357e-05
3.93387e-05
3.86925e-05
3.93346e-05
3.93393e-05
4.35459e-05
4.40742e-05
3.86888e-05
3.93398e-05
3.93359e-05
4.40735e-05
4.4224e-05
4.47238e-05
3.955e-05
3.95441e-05
4.01673e-05
4.01631e-05
4.42207e-05
4.47236e-05
3.95462e-05
3.95489e-05
4.01635e-05
4.0167e-05
3.95492e-05
4.0165e-05
4.01659e-05
4.42249e-05
4.47256e-05
3.95455e-05
4.0168e-05
4.01626e-05
4.47241e-05
4.48691e-05
4.5359e-05
4.03715e-05
4.0368e-05
4.09769e-05
4.09724e-05
4.48693e-05
4.5358e-05
4.03676e-05
4.03714e-05
4.09732e-05
4.09765e-05
4.0372e-05
4.0975e-05
4.09795e-05
4.48711e-05
4.53608e-05
4.03688e-05
4.09786e-05
4.09762e-05
4.53632e-05
4.54989e-05
4.59574e-05
4.11724e-05
4.11668e-05
4.1743e-05
4.17373e-05
4.5497e-05
4.59543e-05
4.11687e-05
4.11706e-05
4.1739e-05
4.17416e-05
4.11742e-05
4.17394e-05
4.17433e-05
4.54997e-05
4.59576e-05
4.11707e-05
4.17435e-05
4.17399e-05
4.59575e-05
4.60916e-05
4.65459e-05
4.19316e-05
4.19263e-05
4.24936e-05
4.24891e-05
4.6089e-05
4.65448e-05
4.19283e-05
4.19322e-05
4.24891e-05
4.24916e-05
4.19305e-05
4.24918e-05
4.24907e-05
4.60926e-05
4.65474e-05
4.19279e-05
4.24932e-05
4.24866e-05
4.65437e-05
4.66764e-05
4.71062e-05
4.26758e-05
4.2671e-05
4.32109e-05
4.3206e-05
4.66754e-05
4.71058e-05
4.26714e-05
4.26739e-05
4.32074e-05
4.32109e-05
4.26746e-05
4.32091e-05
4.32114e-05
4.66772e-05
4.71094e-05
4.26706e-05
4.32129e-05
4.3208e-05
4.71089e-05
4.72316e-05
4.76529e-05
4.33862e-05
4.33833e-05
4.39055e-05
4.39034e-05
4.72321e-05
4.7654e-05
4.33824e-05
4.33875e-05
4.3902e-05
4.39058e-05
4.3387e-05
4.39075e-05
4.39109e-05
4.72355e-05
4.76551e-05
4.33834e-05
4.39095e-05
4.39078e-05
4.76572e-05
4.77755e-05
4.81712e-05
4.40788e-05
4.40736e-05
4.45737e-05
4.45572e-05
4.77744e-05
4.81573e-05
4.40748e-05
4.40753e-05
4.45716e-05
4.45649e-05
4.40826e-05
4.45587e-05
4.45659e-05
4.77752e-05
4.81626e-05
4.40791e-05
4.45656e-05
4.45638e-05
4.81652e-05
4.82809e-05
4.86276e-05
4.4725e-05
4.47103e-05
4.5167e-05
4.51773e-05
4.82682e-05
4.86439e-05
4.47224e-05
4.47175e-05
4.51607e-05
4.51763e-05
4.47179e-05
4.51812e-05
4.51769e-05
4.82737e-05
4.8643e-05
4.47156e-05
4.51804e-05
4.51726e-05
4.86381e-05
4.87391e-05
4.91438e-05
4.53219e-05
4.53328e-05
4.58094e-05
4.57966e-05
4.87577e-05
4.91325e-05
4.53164e-05
4.53346e-05
4.58068e-05
4.58039e-05
4.53297e-05
4.57981e-05
4.57946e-05
4.87569e-05
4.91404e-05
4.53269e-05
4.58046e-05
4.57926e-05
4.91301e-05
4.92562e-05
4.9579e-05
4.59642e-05
4.59469e-05
4.63719e-05
4.63661e-05
4.92398e-05
4.95782e-05
4.59621e-05
4.59543e-05
4.63701e-05
4.63708e-05
4.59502e-05
4.63753e-05
4.63898e-05
4.92476e-05
4.95785e-05
4.59474e-05
4.63775e-05
4.63857e-05
4.95954e-05
4.96731e-05
4.99997e-05
4.65059e-05
4.65051e-05
4.69239e-05
4.69173e-05
4.96776e-05
4.9997e-05
4.65019e-05
4.65043e-05
4.69197e-05
4.69175e-05
4.65281e-05
4.69174e-05
4.69125e-05
4.96758e-05
4.99957e-05
4.65223e-05
4.69157e-05
4.69085e-05
4.99902e-05
5.00963e-05
5.03998e-05
4.70478e-05
4.7037e-05
4.7411e-05
4.74165e-05
5.00894e-05
5.04059e-05
4.70453e-05
4.70441e-05
4.74067e-05
4.74196e-05
4.70278e-05
4.7417e-05
4.7416e-05
5.00913e-05
5.04135e-05
4.70273e-05
4.74249e-05
4.74173e-05
5.04079e-05
5.05061e-05
5.08951e-05
4.75641e-05
4.75715e-05
4.80304e-05
4.80054e-05
5.05157e-05
5.08714e-05
4.75596e-05
4.75729e-05
4.8027e-05
4.80134e-05
4.75734e-05
4.80107e-05
4.80176e-05
5.05209e-05
5.08791e-05
4.75736e-05
4.80186e-05
4.80149e-05
5.08769e-05
5.09735e-05
5.11027e-05
4.81426e-05
4.81092e-05
4.83656e-05
4.83564e-05
5.09447e-05
5.11016e-05
4.81373e-05
4.8116e-05
4.83637e-05
4.83688e-05
4.81251e-05
4.8362e-05
4.83505e-05
5.09536e-05
5.11108e-05
4.81191e-05
4.83669e-05
4.83428e-05
5.10944e-05
5.11491e-05
5.1333e-05
4.8428e-05
4.844e-05
4.86421e-05
4.86946e-05
5.11644e-05
5.13968e-05
4.84291e-05
4.84532e-05
4.86442e-05
4.869e-05
4.84271e-05
4.87098e-05
4.87347e-05
5.11721e-05
5.1377e-05
4.84221e-05
4.87016e-05
4.87324e-05
5.14226e-05
5.1434e-05
5.20241e-05
4.87676e-05
4.88063e-05
4.93869e-05
4.93215e-05
5.14881e-05
5.19431e-05
4.87645e-05
4.87832e-05
4.93698e-05
4.92653e-05
4.88549e-05
4.93058e-05
4.92843e-05
5.14574e-05
5.18938e-05
4.88523e-05
4.92611e-05
4.92797e-05
5.19123e-05
5.21633e-05
5.22839e-05
4.95893e-05
4.95074e-05
4.98344e-05
4.98056e-05
5.20655e-05
5.22491e-05
4.95749e-05
4.94658e-05
4.98391e-05
4.9887e-05
4.94457e-05
4.98067e-05
4.98068e-05
5.20316e-05
5.23411e-05
4.9442e-05
4.98879e-05
4.98166e-05
5.22509e-05
5.22818e-05
5.19946e-05
4.98319e-05
4.98135e-05
4.97113e-05
4.97553e-05
5.22628e-05
5.20887e-05
4.98385e-05
4.99289e-05
4.97303e-05
4.9912e-05
4.98446e-05
4.97778e-05
4.98302e-05
5.23766e-05
5.22773e-05
4.98592e-05
4.99358e-05
4.98479e-05
5.21721e-05
5.20073e-05
5.28818e-05
4.9704e-05
4.97518e-05
5.02612e-05
5.02919e-05
5.21036e-05
5.28718e-05
4.97229e-05
4.98978e-05
5.02421e-05
5.00838e-05
4.98261e-05
5.02884e-05
5.02626e-05
5.2287e-05
5.26022e-05
4.98417e-05
5.00617e-05
5.02121e-05
5.28072e-05
5.3235e-05
5.44234e-05
5.08131e-05
5.07799e-05
5.18956e-05
5.17463e-05
5.3187e-05
5.42091e-05
5.07737e-05
5.0449e-05
5.18509e-05
5.14401e-05
5.07104e-05
5.17226e-05
5.16449e-05
5.28255e-05
5.37658e-05
5.06488e-05
5.14131e-05
5.16033e-05
5.40748e-05
5.45333e-05
5.32401e-05
5.20011e-05
5.18352e-05
5.16599e-05
5.15288e-05
5.42921e-05
5.313e-05
5.19638e-05
5.15961e-05
5.16846e-05
5.16095e-05
5.1745e-05
5.15514e-05
5.15618e-05
5.38912e-05
5.36883e-05
5.17161e-05
5.16197e-05
5.15896e-05
5.33188e-05
5.26599e-05
4.94695e-05
5.07328e-05
5.07559e-05
4.81396e-05
4.86669e-05
5.27017e-05
5.03868e-05
5.08445e-05
5.13665e-05
4.81776e-05
4.91701e-05
5.09614e-05
4.87336e-05
4.87434e-05
5.34498e-05
5.09619e-05
5.10915e-05
4.92594e-05
4.87948e-05
5.03249e-05
4.93365e-05
5.09027e-05
4.78211e-05
4.83856e-05
4.80408e-05
4.83535e-05
5.03166e-05
5.09806e-05
4.78334e-05
4.87245e-05
4.80184e-05
4.84619e-05
4.84219e-05
4.83507e-05
4.84627e-05
5.07719e-05
5.07951e-05
4.84396e-05
4.84852e-05
4.8439e-05
5.11544e-05
5.19783e-05
4.91832e-05
4.87625e-05
5.13897e-05
4.91394e-05
4.87524e-05
4.9173e-05
5.12992e-05
4.91176e-05
6.48585e-05
7.14098e-05
6.95704e-05
6.48578e-05
7.14119e-05
2.17732e-05
2.17717e-05
2.17758e-05
2.17747e-05
5.36096e-05
3.71317e-05
6.03985e-05
2.95053e-05
6.95717e-05
5.36084e-05
3.71358e-05
2.95088e-05
6.03992e-05
4.23275e-05
6.70311e-05
6.70389e-05
6.50852e-05
7.14586e-05
6.49902e-05
7.14949e-05
6.96009e-05
6.96277e-05
6.50843e-05
7.14607e-05
6.49891e-05
7.1497e-05
2.19644e-05
2.19676e-05
2.19671e-05
2.25462e-05
2.25467e-05
2.25497e-05
2.25492e-05
5.40746e-05
6.05655e-05
3.02419e-05
3.8031e-05
5.38843e-05
6.06832e-05
3.04859e-05
6.96025e-05
6.96293e-05
5.40727e-05
3.02441e-05
6.05654e-05
3.80328e-05
5.38826e-05
3.04876e-05
6.06833e-05
6.71325e-05
6.71403e-05
4.30415e-05
6.72052e-05
6.72131e-05
6.53086e-05
7.15454e-05
6.5214e-05
7.15822e-05
6.966e-05
6.96875e-05
6.53082e-05
7.15475e-05
6.52136e-05
7.15843e-05
2.27436e-05
2.27467e-05
2.27468e-05
2.3344e-05
2.33422e-05
2.33478e-05
2.33476e-05
5.45231e-05
6.08452e-05
3.12155e-05
3.89061e-05
5.43385e-05
6.09605e-05
3.14593e-05
6.96619e-05
6.96892e-05
5.45222e-05
3.12182e-05
6.08465e-05
3.89099e-05
5.43376e-05
3.14622e-05
6.09621e-05
6.73063e-05
6.73142e-05
4.37353e-05
6.7378e-05
6.73858e-05
6.55224e-05
7.16321e-05
6.54331e-05
7.16687e-05
6.97204e-05
6.97486e-05
6.55214e-05
7.16341e-05
6.54326e-05
7.16707e-05
2.3543e-05
2.35487e-05
2.3548e-05
2.4146e-05
2.41453e-05
2.41493e-05
2.41468e-05
5.49513e-05
6.11156e-05
3.21842e-05
3.97543e-05
5.47765e-05
6.12249e-05
3.24229e-05
6.97221e-05
6.975e-05
5.49494e-05
3.21882e-05
6.11169e-05
3.97574e-05
5.47754e-05
3.24256e-05
6.12252e-05
6.74727e-05
6.74803e-05
4.44013e-05
6.75402e-05
6.75481e-05
6.57307e-05
7.17195e-05
6.56425e-05
7.17566e-05
6.97825e-05
6.9811e-05
6.57302e-05
7.17216e-05
6.56416e-05
7.17587e-05
2.43469e-05
2.43513e-05
2.4349e-05
2.49609e-05
2.49618e-05
2.49656e-05
2.49664e-05
5.53638e-05
6.13753e-05
3.31299e-05
4.05753e-05
5.51937e-05
6.14819e-05
3.33676e-05
6.97843e-05
6.98126e-05
5.53625e-05
3.3133e-05
6.13754e-05
4.05777e-05
5.51919e-05
3.33701e-05
6.14827e-05
6.76362e-05
6.76444e-05
4.50472e-05
6.77051e-05
6.7713e-05
6.59293e-05
7.18066e-05
6.58468e-05
7.18431e-05
6.98449e-05
6.9874e-05
6.59284e-05
7.18086e-05
6.58461e-05
7.18452e-05
2.51643e-05
2.51688e-05
2.51694e-05
2.57692e-05
2.57675e-05
2.57709e-05
2.57734e-05
5.57547e-05
6.16226e-05
3.40657e-05
4.13603e-05
5.55963e-05
6.17203e-05
3.42924e-05
6.98467e-05
6.98757e-05
5.57536e-05
3.40694e-05
6.16239e-05
4.1363e-05
5.55954e-05
3.42953e-05
6.17214e-05
6.77922e-05
6.77998e-05
4.56641e-05
6.78522e-05
6.786e-05
6.61241e-05
7.18945e-05
6.60406e-05
7.19323e-05
6.991e-05
6.994e-05
6.61236e-05
7.18966e-05
6.604e-05
7.19343e-05
2.597e-05
2.59752e-05
2.59749e-05
2.65847e-05
2.65835e-05
2.65875e-05
2.65836e-05
5.61314e-05
6.18576e-05
3.49653e-05
4.21173e-05
5.59742e-05
6.19588e-05
3.51882e-05
6.99119e-05
6.99416e-05
5.61304e-05
3.49702e-05
6.18593e-05
4.21227e-05
5.59735e-05
3.51941e-05
6.196e-05
6.79392e-05
6.79472e-05
4.62514e-05
6.80036e-05
6.80116e-05
6.63126e-05
7.19831e-05
6.62345e-05
7.20201e-05
6.99758e-05
7.00061e-05
6.63115e-05
7.19852e-05
6.62335e-05
7.20223e-05
2.67882e-05
2.67907e-05
2.67883e-05
2.73974e-05
2.73955e-05
2.74014e-05
2.74003e-05
5.64981e-05
6.2093e-05
3.5856e-05
4.28538e-05
5.6349e-05
6.21856e-05
3.60733e-05
6.99776e-05
7.00077e-05
5.64954e-05
3.58563e-05
6.20929e-05
4.28569e-05
5.63469e-05
3.60751e-05
6.21857e-05
6.80893e-05
6.80969e-05
4.68297e-05
6.81501e-05
6.81578e-05
6.64969e-05
7.20718e-05
6.64178e-05
7.21095e-05
7.00432e-05
7.00731e-05
6.64968e-05
7.20741e-05
6.64177e-05
7.21117e-05
2.7599e-05
2.76044e-05
2.76022e-05
2.82037e-05
2.82072e-05
2.8211e-05
2.82116e-05
5.68478e-05
6.23146e-05
3.6714e-05
4.3562e-05
5.67026e-05
6.24085e-05
3.69258e-05
7.00449e-05
7.00745e-05
5.68473e-05
3.67165e-05
6.23162e-05
4.35649e-05
5.67018e-05
3.6928e-05
6.24091e-05
6.82346e-05
6.82426e-05
4.73842e-05
6.82957e-05
6.83036e-05
6.66723e-05
7.21595e-05
6.66006e-05
7.21945e-05
7.01083e-05
7.01376e-05
6.6672e-05
7.21617e-05
6.66002e-05
7.21966e-05
2.84086e-05
2.84121e-05
2.84157e-05
2.90149e-05
2.90048e-05
2.90113e-05
2.90127e-05
5.71825e-05
6.25305e-05
3.75529e-05
4.42437e-05
5.70476e-05
6.2612e-05
3.77585e-05
7.01101e-05
7.01394e-05
5.71807e-05
3.7555e-05
6.25304e-05
4.42453e-05
5.70461e-05
3.77595e-05
6.2613e-05
6.83766e-05
6.83844e-05
4.79206e-05
6.84285e-05
6.84366e-05
6.68293e-05
7.22417e-05
6.67626e-05
7.2278e-05
7.01747e-05
7.02063e-05
6.68263e-05
7.22433e-05
6.67614e-05
7.22794e-05
2.91947e-05
2.92039e-05
2.92029e-05
2.97612e-05
2.97712e-05
2.97709e-05
2.97714e-05
5.74848e-05
6.27198e-05
3.83393e-05
4.48675e-05
5.73601e-05
6.28012e-05
3.85288e-05
7.01763e-05
7.02077e-05
5.74833e-05
3.83455e-05
6.27217e-05
4.48702e-05
5.73591e-05
3.85322e-05
6.28014e-05
6.84936e-05
6.85015e-05
4.83986e-05
6.85448e-05
6.85522e-05
6.70036e-05
7.23322e-05
6.69273e-05
7.23714e-05
7.02448e-05
7.02752e-05
6.70044e-05
7.23344e-05
6.69244e-05
7.23744e-05
2.99647e-05
2.99661e-05
2.99624e-05
3.05471e-05
3.05442e-05
3.0552e-05
3.05406e-05
5.7799e-05
6.29208e-05
3.90992e-05
4.54901e-05
5.76668e-05
6.30056e-05
3.9286e-05
7.02471e-05
7.02774e-05
5.77999e-05
3.91006e-05
6.2921e-05
4.54961e-05
5.76652e-05
3.92914e-05
6.30093e-05
6.86237e-05
6.86319e-05
4.88839e-05
6.86815e-05
6.86904e-05
6.71602e-05
7.24194e-05
6.70984e-05
7.24521e-05
7.03112e-05
7.03412e-05
6.71605e-05
7.24222e-05
6.71018e-05
7.24541e-05
3.07397e-05
3.0746e-05
3.07385e-05
3.13093e-05
3.13036e-05
3.13123e-05
3.13189e-05
5.81026e-05
6.31146e-05
3.98525e-05
4.60958e-05
5.79791e-05
6.319e-05
4.00368e-05
7.03127e-05
7.03418e-05
5.80994e-05
3.98564e-05
6.31185e-05
4.61016e-05
5.79809e-05
4.00401e-05
6.31888e-05
6.87608e-05
6.87682e-05
4.9371e-05
6.88149e-05
6.88207e-05
6.7304e-05
7.24992e-05
6.72407e-05
7.25355e-05
7.03778e-05
7.04082e-05
6.73011e-05
7.2501e-05
6.72371e-05
7.25375e-05
3.14849e-05
3.14904e-05
3.15036e-05
3.20404e-05
3.20414e-05
3.20368e-05
3.20424e-05
5.83673e-05
6.32863e-05
4.05589e-05
4.66543e-05
5.82629e-05
6.33516e-05
4.07328e-05
7.0379e-05
7.04099e-05
5.83608e-05
4.05573e-05
6.32817e-05
4.66467e-05
5.82544e-05
4.07255e-05
6.33485e-05
6.88738e-05
6.88799e-05
4.97998e-05
6.89076e-05
6.89154e-05
6.74441e-05
7.25847e-05
6.73865e-05
7.26226e-05
7.04474e-05
7.0482e-05
6.74455e-05
7.25869e-05
6.73868e-05
7.26244e-05
3.22154e-05
3.22173e-05
3.22117e-05
3.27072e-05
3.27095e-05
3.27183e-05
3.27104e-05
5.86099e-05
6.34391e-05
4.12125e-05
4.71492e-05
5.85062e-05
6.35092e-05
4.1354e-05
7.04496e-05
7.0483e-05
5.86187e-05
4.12167e-05
6.34432e-05
4.71611e-05
5.85086e-05
4.13658e-05
6.35184e-05
6.8962e-05
6.89721e-05
5.0182e-05
6.90194e-05
6.90303e-05
6.76285e-05
7.26809e-05
6.75421e-05
7.27165e-05
7.05222e-05
7.05461e-05
6.76247e-05
7.26822e-05
6.75404e-05
7.27183e-05
3.2898e-05
3.2902e-05
3.28978e-05
3.35041e-05
3.34924e-05
3.35039e-05
3.34983e-05
5.89257e-05
6.36395e-05
4.18498e-05
4.77351e-05
5.87846e-05
6.3737e-05
4.20392e-05
7.05232e-05
7.05484e-05
5.89255e-05
4.18571e-05
6.36448e-05
4.77417e-05
5.87924e-05
4.20463e-05
6.37369e-05
6.91328e-05
6.9141e-05
5.06668e-05
6.91879e-05
6.91944e-05
6.76997e-05
7.27387e-05
6.76931e-05
7.27522e-05
7.05673e-05
7.05912e-05
6.77016e-05
7.27419e-05
6.76933e-05
7.27562e-05
3.36642e-05
3.36748e-05
3.36765e-05
3.41075e-05
3.40972e-05
3.41032e-05
3.4095e-05
5.91188e-05
6.3795e-05
4.2538e-05
4.82034e-05
5.90716e-05
6.38002e-05
4.26668e-05
7.05704e-05
7.05925e-05
5.91103e-05
4.25398e-05
6.37965e-05
4.82064e-05
5.90638e-05
4.26628e-05
6.38021e-05
6.92026e-05
6.92079e-05
5.10007e-05
6.91938e-05
6.91991e-05
6.77369e-05
7.2788e-05
6.77004e-05
7.28359e-05
7.06336e-05
7.06747e-05
6.77433e-05
7.2792e-05
6.7706e-05
7.2838e-05
3.42348e-05
3.4241e-05
3.42204e-05
3.45799e-05
3.46245e-05
3.46282e-05
3.46425e-05
5.92357e-05
6.38295e-05
4.29919e-05
4.85285e-05
5.91672e-05
6.38835e-05
4.30972e-05
7.06309e-05
7.06679e-05
5.92322e-05
4.29901e-05
6.38294e-05
4.85318e-05
5.91613e-05
4.30989e-05
6.38785e-05
6.92125e-05
6.92183e-05
5.12233e-05
6.92704e-05
6.9276e-05
6.79947e-05
7.29302e-05
6.78581e-05
7.29926e-05
7.07322e-05
7.07686e-05
6.79691e-05
7.29264e-05
6.78467e-05
7.29883e-05
3.47593e-05
3.47557e-05
3.47945e-05
3.53307e-05
3.531e-05
3.52691e-05
3.5305e-05
5.95319e-05
6.39954e-05
4.34582e-05
4.89619e-05
5.93891e-05
6.41291e-05
4.36062e-05
7.07256e-05
7.07709e-05
5.95178e-05
4.34514e-05
6.39706e-05
4.89262e-05
5.93815e-05
4.35926e-05
6.40916e-05
6.93868e-05
6.93921e-05
5.1657e-05
6.94733e-05
6.94803e-05
6.8189e-05
7.30249e-05
6.81599e-05
7.30111e-05
7.07843e-05
7.07879e-05
6.81933e-05
7.30234e-05
6.81522e-05
7.30146e-05
3.55341e-05
3.54962e-05
3.5506e-05
3.62036e-05
3.6142e-05
3.61754e-05
3.6115e-05
5.98671e-05
6.43019e-05
4.4157e-05
4.96378e-05
5.97602e-05
6.43324e-05
4.43506e-05
7.08012e-05
7.08111e-05
5.98905e-05
4.41373e-05
6.4306e-05
4.96317e-05
5.97559e-05
4.43423e-05
6.43698e-05
6.95632e-05
6.95812e-05
5.21383e-05
6.95729e-05
6.95969e-05
6.79681e-05
7.29645e-05
6.8067e-05
7.29819e-05
7.07891e-05
7.08273e-05
6.80201e-05
7.29759e-05
6.81081e-05
7.29956e-05
3.62671e-05
3.63424e-05
3.62664e-05
3.63707e-05
3.63811e-05
3.65451e-05
3.64469e-05
5.98274e-05
6.42373e-05
4.47229e-05
4.98194e-05
5.98743e-05
6.41398e-05
4.47556e-05
7.08155e-05
7.08385e-05
5.98933e-05
4.47938e-05
6.43416e-05
4.99545e-05
5.99221e-05
4.48508e-05
6.42643e-05
6.94893e-05
6.95145e-05
5.2242e-05
6.94068e-05
6.94245e-05
6.81935e-05
7.31382e-05
6.79333e-05
7.33019e-05
7.09454e-05
7.10575e-05
6.81787e-05
7.31425e-05
6.7985e-05
7.3296e-05
3.63953e-05
3.6554e-05
3.6466e-05
3.6711e-05
3.68059e-05
3.66964e-05
3.68222e-05
5.98577e-05
6.40949e-05
4.47602e-05
4.97961e-05
5.97313e-05
6.43593e-05
4.47785e-05
7.09103e-05
7.09934e-05
5.98362e-05
4.48672e-05
6.41837e-05
4.99177e-05
5.97912e-05
4.48693e-05
6.42745e-05
6.94002e-05
6.94025e-05
5.22334e-05
6.96757e-05
6.96711e-05
6.92014e-05
7.35293e-05
6.8787e-05
7.3585e-05
7.11684e-05
7.11698e-05
6.9034e-05
7.3515e-05
6.86721e-05
7.35773e-05
3.72083e-05
3.69408e-05
3.7151e-05
3.84589e-05
3.83552e-05
3.80533e-05
3.82431e-05
6.1077e-05
6.50406e-05
4.55993e-05
5.11872e-05
6.05736e-05
6.54581e-05
4.60288e-05
7.10927e-05
7.11204e-05
6.0814e-05
4.53368e-05
6.47266e-05
5.07934e-05
6.0371e-05
4.57448e-05
6.50553e-05
7.02394e-05
7.02324e-05
5.35885e-05
7.05539e-05
7.05394e-05
6.88707e-05
7.32928e-05
6.95057e-05
7.28619e-05
7.08999e-05
7.06872e-05
6.90266e-05
7.33325e-05
6.93635e-05
7.29261e-05
3.85664e-05
3.83724e-05
3.84839e-05
3.87364e-05
3.86605e-05
3.8699e-05
3.86445e-05
6.12789e-05
6.57216e-05
4.67804e-05
5.18263e-05
6.14884e-05
6.51708e-05
4.68209e-05
7.10117e-05
7.08614e-05
6.1281e-05
4.66463e-05
6.53898e-05
5.16509e-05
6.12755e-05
4.67437e-05
6.53683e-05
7.06974e-05
7.0688e-05
5.41682e-05
7.00374e-05
7.00903e-05
6.60924e-05
7.23265e-05
6.68884e-05
7.23012e-05
7.05167e-05
7.06035e-05
6.63391e-05
7.2357e-05
6.72333e-05
7.22973e-05
3.85277e-05
3.86749e-05
3.85596e-05
3.65577e-05
3.689e-05
3.74413e-05
3.70235e-05
5.83482e-05
6.33795e-05
4.63883e-05
4.99632e-05
5.93995e-05
6.25797e-05
4.56234e-05
7.06206e-05
7.06065e-05
5.88181e-05
4.66274e-05
6.41402e-05
5.07835e-05
5.99133e-05
4.61954e-05
6.32486e-05
6.8469e-05
6.85211e-05
5.15619e-05
6.77953e-05
6.77691e-05
6.67614e-05
7.28395e-05
6.59484e-05
7.34076e-05
7.09101e-05
7.11403e-05
6.65313e-05
7.28048e-05
6.58361e-05
7.34325e-05
3.64385e-05
3.68624e-05
3.65639e-05
3.57731e-05
3.59258e-05
3.60968e-05
3.61226e-05
5.7917e-05
6.22632e-05
4.39732e-05
4.82999e-05
5.75992e-05
6.27853e-05
4.37838e-05
7.08204e-05
7.11187e-05
5.76665e-05
4.42266e-05
6.23948e-05
4.85315e-05
5.76551e-05
4.3941e-05
6.24923e-05
6.76045e-05
6.74621e-05
5.0069e-05
6.84005e-05
6.82992e-05
6.9888e-05
7.45135e-05
6.84637e-05
7.51394e-05
7.16147e-05
7.20475e-05
7.03348e-05
7.45868e-05
6.87563e-05
7.51443e-05
3.59676e-05
3.61129e-05
3.62201e-05
6.09295e-05
6.37573e-05
4.39967e-05
4.96029e-05
5.96237e-05
6.47167e-05
4.47671e-05
7.16169e-05
7.19086e-05
6.15353e-05
4.40269e-05
6.41987e-05
4.96728e-05
5.98584e-05
4.47244e-05
6.54384e-05
7.02134e-05
7.03247e-05
5.38272e-05
7.13531e-05
7.15207e-05
6.95697e-05
6.95721e-05
4.23272e-05
6.7034e-05
6.70416e-05
6.9598e-05
6.95721e-05
6.96004e-05
6.95744e-05
4.24917e-05
6.7121e-05
6.71285e-05
6.7048e-05
6.70556e-05
6.4857e-05
7.14069e-05
5.36094e-05
3.7135e-05
6.03987e-05
2.95048e-05
5.36076e-05
3.71307e-05
6.03946e-05
2.95027e-05
6.48761e-05
7.1452e-05
7.14163e-05
6.4973e-05
6.48746e-05
7.14492e-05
7.14135e-05
6.49715e-05
5.365e-05
3.73631e-05
6.05424e-05
2.99969e-05
6.04224e-05
2.97511e-05
5.38446e-05
5.36483e-05
3.73586e-05
6.05385e-05
2.99947e-05
6.04184e-05
2.97489e-05
5.38429e-05
4.23254e-05
6.70341e-05
6.70335e-05
6.957e-05
6.95987e-05
6.95725e-05
4.249e-05
6.71215e-05
6.7121e-05
6.70485e-05
6.70476e-05
6.95983e-05
6.95723e-05
5.3609e-05
3.71314e-05
6.04007e-05
2.95046e-05
6.48547e-05
7.14077e-05
5.36071e-05
3.71352e-05
2.95061e-05
6.03974e-05
6.48753e-05
7.14541e-05
7.14184e-05
6.4972e-05
5.36496e-05
3.73595e-05
6.0544e-05
2.99971e-05
6.04243e-05
2.97516e-05
5.38437e-05
6.48722e-05
7.145e-05
7.14142e-05
6.49689e-05
5.36475e-05
3.73628e-05
2.99982e-05
6.05406e-05
2.97529e-05
6.04209e-05
5.38418e-05
6.48585e-05
7.14104e-05
5.36086e-05
3.71349e-05
2.95071e-05
6.03956e-05
6.48572e-05
7.14074e-05
5.36501e-05
3.73595e-05
6.05425e-05
2.99968e-05
6.04221e-05
2.97512e-05
5.38448e-05
6.4876e-05
7.14528e-05
7.14169e-05
6.49731e-05
5.36491e-05
3.73627e-05
2.99986e-05
6.05395e-05
2.97531e-05
6.04193e-05
5.38438e-05
6.48747e-05
7.14499e-05
7.1414e-05
6.49717e-05
4.23287e-05
6.70392e-05
6.70353e-05
6.95703e-05
6.96001e-05
6.9574e-05
4.24928e-05
6.71261e-05
6.71222e-05
6.70532e-05
6.70493e-05
6.95987e-05
6.95726e-05
5.36078e-05
3.71314e-05
2.95073e-05
6.03981e-05
6.48559e-05
7.14102e-05
6.48563e-05
7.14092e-05
5.3649e-05
3.73633e-05
3.00001e-05
6.05424e-05
2.97551e-05
6.04228e-05
5.3843e-05
5.36483e-05
3.73593e-05
2.99989e-05
6.05419e-05
2.97536e-05
6.04217e-05
5.38424e-05
6.48734e-05
7.14526e-05
7.14167e-05
6.49701e-05
6.48738e-05
7.14516e-05
7.14157e-05
6.49705e-05
6.95698e-05
6.95726e-05
4.24916e-05
6.71187e-05
6.71264e-05
6.70452e-05
6.7053e-05
6.95982e-05
6.95721e-05
6.9601e-05
6.95749e-05
6.96005e-05
6.96272e-05
6.96029e-05
6.96296e-05
6.71346e-05
6.71421e-05
4.304e-05
6.72067e-05
6.72143e-05
6.96572e-05
6.96298e-05
6.96596e-05
6.96323e-05
4.31979e-05
6.72939e-05
6.73017e-05
6.72205e-05
6.72282e-05
6.50837e-05
7.14558e-05
6.49886e-05
7.14919e-05
5.40738e-05
6.05653e-05
3.02418e-05
3.80327e-05
5.38842e-05
6.06823e-05
3.04852e-05
5.40722e-05
6.05616e-05
3.02399e-05
3.80297e-05
5.38826e-05
6.06787e-05
3.04835e-05
6.51022e-05
7.15386e-05
7.15016e-05
6.5197e-05
6.51007e-05
7.15354e-05
7.14987e-05
6.51955e-05
5.41125e-05
3.82522e-05
6.0822e-05
3.09702e-05
6.0705e-05
3.07275e-05
5.4299e-05
5.41109e-05
3.82494e-05
6.08179e-05
3.09686e-05
6.07015e-05
3.0726e-05
5.42974e-05
6.71355e-05
6.71348e-05
4.30397e-05
6.72075e-05
6.72074e-05
6.96008e-05
6.96274e-05
6.96575e-05
6.96301e-05
4.31979e-05
6.72941e-05
6.72939e-05
6.72216e-05
6.72212e-05
6.96572e-05
6.963e-05
5.40728e-05
6.05669e-05
3.02412e-05
3.80286e-05
5.38832e-05
6.0684e-05
3.04841e-05
6.50812e-05
7.14566e-05
6.4986e-05
7.14929e-05
5.40709e-05
3.02423e-05
6.05636e-05
3.80321e-05
5.38812e-05
3.04855e-05
6.0681e-05
6.51013e-05
7.15407e-05
7.15038e-05
6.51965e-05
5.41115e-05
3.82482e-05
6.08239e-05
3.09699e-05
6.07067e-05
3.0727e-05
5.42984e-05
6.50983e-05
7.15365e-05
7.14997e-05
6.51934e-05
5.41095e-05
3.8252e-05
3.09714e-05
6.0821e-05
3.07285e-05
6.07038e-05
5.42966e-05
6.50858e-05
7.14594e-05
6.49903e-05
7.14956e-05
5.40735e-05
3.02437e-05
6.05626e-05
3.80334e-05
5.38833e-05
3.04875e-05
6.06803e-05
6.50845e-05
7.14565e-05
6.49889e-05
7.14928e-05
5.41132e-05
3.8251e-05
6.08227e-05
3.09717e-05
6.07059e-05
3.07287e-05
5.43004e-05
6.51028e-05
7.1539e-05
7.15023e-05
6.5198e-05
5.41122e-05
3.82534e-05
3.09733e-05
6.08203e-05
3.07302e-05
6.07032e-05
5.42994e-05
6.51015e-05
7.15364e-05
7.14996e-05
6.51968e-05
6.71399e-05
6.71361e-05
4.30409e-05
6.72125e-05
6.7209e-05
6.96012e-05
6.9628e-05
6.96592e-05
6.96319e-05
4.31991e-05
6.72997e-05
6.72964e-05
6.72264e-05
6.7223e-05
6.96578e-05
6.96306e-05
5.40721e-05
3.0243e-05
6.05649e-05
3.80295e-05
5.3882e-05
3.04865e-05
6.06828e-05
6.50831e-05
7.14593e-05
6.49873e-05
7.14957e-05
6.50836e-05
7.14583e-05
6.49878e-05
7.14947e-05
5.41116e-05
3.82532e-05
3.09745e-05
6.08237e-05
3.0731e-05
6.07062e-05
5.42992e-05
5.41111e-05
3.82498e-05
3.09733e-05
6.08231e-05
3.07298e-05
6.07056e-05
5.42986e-05
6.51003e-05
7.15393e-05
7.15025e-05
6.51958e-05
6.51008e-05
7.15382e-05
7.15014e-05
6.51963e-05
6.96007e-05
6.96274e-05
6.96035e-05
6.96302e-05
4.31995e-05
6.72924e-05
6.73004e-05
6.72191e-05
6.72271e-05
6.96572e-05
6.963e-05
6.966e-05
6.96329e-05
6.96599e-05
6.96872e-05
6.96623e-05
6.96897e-05
6.7308e-05
6.73157e-05
4.37329e-05
6.73807e-05
6.73885e-05
6.97173e-05
6.96899e-05
6.97197e-05
6.96923e-05
4.38878e-05
6.74633e-05
6.74709e-05
6.73942e-05
6.74019e-05
6.53069e-05
7.15422e-05
6.52125e-05
7.15789e-05
5.4522e-05
6.08447e-05
3.12138e-05
3.89081e-05
5.43373e-05
6.09612e-05
3.14574e-05
5.45202e-05
6.08407e-05
3.1212e-05
3.8904e-05
5.43357e-05
6.09561e-05
3.14555e-05
6.53252e-05
7.16254e-05
7.15889e-05
6.54171e-05
6.53236e-05
7.16222e-05
7.15857e-05
6.54154e-05
5.45596e-05
3.91247e-05
6.10955e-05
3.19432e-05
6.09833e-05
3.17006e-05
5.47402e-05
5.45579e-05
3.91194e-05
6.10902e-05
3.19404e-05
6.09783e-05
3.16983e-05
5.47383e-05
6.73082e-05
6.73077e-05
4.37314e-05
6.73797e-05
6.73792e-05
6.96599e-05
6.96872e-05
6.97178e-05
6.96901e-05
4.38856e-05
6.74626e-05
6.7462e-05
6.73934e-05
6.73926e-05
6.97175e-05
6.96899e-05
5.45218e-05
6.08467e-05
3.12132e-05
3.89044e-05
5.43368e-05
6.09632e-05
3.14567e-05
6.53051e-05
7.15433e-05
6.52105e-05
7.15801e-05
5.45199e-05
3.12146e-05
6.08437e-05
3.89081e-05
5.43347e-05
3.14582e-05
6.09597e-05
6.53249e-05
7.16274e-05
7.1591e-05
6.54166e-05
5.45594e-05
3.91212e-05
6.10974e-05
3.19439e-05
6.09854e-05
3.17007e-05
5.47399e-05
6.53218e-05
7.16233e-05
7.15868e-05
6.54135e-05
5.45574e-05
3.91247e-05
3.19453e-05
6.10939e-05
3.17023e-05
6.09818e-05
5.4738e-05
6.5309e-05
7.15458e-05
6.52149e-05
7.15825e-05
5.45223e-05
3.12174e-05
6.08431e-05
3.89105e-05
5.43375e-05
3.14616e-05
6.09587e-05
6.53079e-05
7.15431e-05
6.52137e-05
7.15797e-05
5.45604e-05
3.91214e-05
6.10943e-05
3.19436e-05
6.09824e-05
3.1702e-05
5.47403e-05
6.53255e-05
7.16259e-05
7.15892e-05
6.54169e-05
5.45596e-05
3.91263e-05
3.19464e-05
6.10919e-05
3.17047e-05
6.09807e-05
5.47395e-05
6.53244e-05
7.16228e-05
7.15864e-05
6.54156e-05
6.73136e-05
6.73103e-05
4.37348e-05
6.73859e-05
6.73821e-05
6.96604e-05
6.96877e-05
6.97193e-05
6.96919e-05
4.38893e-05
6.74686e-05
6.74646e-05
6.73993e-05
6.73955e-05
6.97179e-05
6.96904e-05
5.45217e-05
3.12171e-05
6.08458e-05
3.89069e-05
5.4337e-05
3.14612e-05
6.09613e-05
6.53068e-05
7.1546e-05
6.52129e-05
7.15826e-05
6.53074e-05
7.1545e-05
6.52134e-05
7.15815e-05
5.45598e-05
3.91263e-05
3.19483e-05
6.10957e-05
3.1706e-05
6.09841e-05
5.47391e-05
5.45592e-05
3.91229e-05
3.1947e-05
6.10942e-05
3.17049e-05
6.09832e-05
5.47385e-05
6.53234e-05
7.16258e-05
7.15893e-05
6.54143e-05
6.53238e-05
7.16245e-05
7.15882e-05
6.54147e-05
6.96599e-05
6.96871e-05
6.96627e-05
6.96899e-05
4.38893e-05
6.74598e-05
6.74675e-05
6.73913e-05
6.73991e-05
6.97172e-05
6.96898e-05
6.972e-05
6.96926e-05
6.97201e-05
6.97479e-05
6.97225e-05
6.97503e-05
6.74761e-05
6.74837e-05
4.44022e-05
6.75433e-05
6.75508e-05
6.97793e-05
6.97509e-05
6.97817e-05
6.97533e-05
4.4549e-05
6.76244e-05
6.7632e-05
6.75562e-05
6.75636e-05
6.55209e-05
7.1629e-05
6.54315e-05
7.16657e-05
5.49513e-05
6.11166e-05
3.21843e-05
3.97574e-05
5.47766e-05
6.12246e-05
3.24229e-05
5.49495e-05
6.11117e-05
3.21815e-05
3.97526e-05
5.47748e-05
6.12204e-05
3.24205e-05
6.55382e-05
7.17126e-05
7.16755e-05
6.56268e-05
6.55366e-05
7.17096e-05
7.16726e-05
6.56254e-05
5.49867e-05
3.99627e-05
6.13528e-05
3.28942e-05
6.12453e-05
3.26591e-05
5.51578e-05
5.4985e-05
3.99584e-05
6.13493e-05
3.2892e-05
6.12415e-05
3.2657e-05
5.51562e-05
6.74759e-05
6.74751e-05
4.43999e-05
6.7544e-05
6.75438e-05
6.97204e-05
6.97484e-05
6.97798e-05
6.97513e-05
4.45475e-05
6.76255e-05
6.76257e-05
6.75573e-05
6.75569e-05
6.97795e-05
6.97513e-05
5.49505e-05
6.11184e-05
3.21847e-05
3.97534e-05
5.47763e-05
6.12262e-05
3.24223e-05
6.55184e-05
7.163e-05
6.54295e-05
7.16666e-05
5.49486e-05
3.21859e-05
6.11151e-05
3.97565e-05
5.47742e-05
3.24235e-05
6.12232e-05
6.55372e-05
7.17147e-05
7.16775e-05
6.56258e-05
5.49858e-05
3.99586e-05
6.13544e-05
3.28936e-05
6.12469e-05
3.26581e-05
5.51566e-05
6.55341e-05
7.17106e-05
7.16734e-05
6.56228e-05
5.49838e-05
3.9962e-05
3.28951e-05
6.13515e-05
3.26596e-05
6.12439e-05
5.51548e-05
6.55225e-05
7.16326e-05
6.54329e-05
7.16696e-05
5.495e-05
3.21865e-05
6.1113e-05
3.9756e-05
5.47755e-05
3.24245e-05
6.12208e-05
6.55208e-05
7.16295e-05
6.54316e-05
7.16663e-05
5.49866e-05
3.99602e-05
6.13545e-05
3.28939e-05
6.12459e-05
3.26591e-05
5.51587e-05
6.55384e-05
7.17134e-05
7.16764e-05
6.56277e-05
5.49853e-05
3.99609e-05
3.28948e-05
6.13503e-05
3.26601e-05
6.12417e-05
5.51572e-05
6.55367e-05
7.17107e-05
7.16732e-05
6.56261e-05
6.74815e-05
6.74775e-05
4.44033e-05
6.75489e-05
6.75453e-05
6.97207e-05
6.97487e-05
6.97813e-05
6.97529e-05
4.45501e-05
6.76302e-05
6.7627e-05
6.75618e-05
6.75583e-05
6.978e-05
6.97516e-05
5.49486e-05
3.21867e-05
6.11152e-05
3.97521e-05
5.47747e-05
3.24238e-05
6.12232e-05
6.55195e-05
7.16325e-05
6.54304e-05
7.16694e-05
6.55197e-05
7.16312e-05
6.54307e-05
7.16682e-05
5.49849e-05
3.9963e-05
3.28968e-05
6.13544e-05