/*--------------------------------*- C++ -*----------------------------------*\
| =========                 |                                                 |
| \\      /  F ield         | OpenFOAM: The Open Source CFD Toolbox           |
|  \\    /   O peration     | Version:  v2006                                 |
|   \\  /    A nd           | Website:  www.openfoam.com                      |
|    \\/     M anipulation  |                                                 |
\*---------------------------------------------------------------------------*/
FoamFile
{
    version     2.0;
    format      ascii;
    class       volScalarField;
    location    "750";
    object      nut;
}
// * * * * * * * * * * * * * * * * * * * * * * * * * * * * * * * * * * * * * //

dimensions      [0 2 -1 0 0 0 0];


internalField   nonuniform List<scalar> 
42840
(
0.000126588
0.000143275
0.000143277
0.000140158
0.000129515
0.000146348
0.000146351
0.000142521
0.000132689
0.000149413
0.00014943
0.000144863
0.000135879
0.000152395
0.000152401
0.000147109
0.000139259
0.000155358
0.000155368
0.00014937
0.000142582
0.000158173
0.000158198
0.000151458
0.000146061
0.000161032
0.000161028
0.000153576
0.000149577
0.000163784
0.000163794
0.000155633
0.000153124
0.000166543
0.000166537
0.000157684
0.000156828
0.000169066
0.000169101
0.000159558
0.000159986
0.000171593
0.000171589
0.00016133
0.000163789
0.000174173
0.000174199
0.000163245
0.000167255
0.000176574
0.000176554
0.00016507
0.000170841
0.00017881
0.000178821
0.000166549
0.00017374
0.000181094
0.000181109
0.000168271
0.000178308
0.000183811
0.000183828
0.000170257
0.000180901
0.000185175
0.000185212
0.000170968
0.000182339
0.000186585
0.000186492
0.000172331
0.000187412
0.000190001
0.000189634
0.000174594
0.00019284
0.000192221
0.000192765
0.000176069
0.000191352
0.000191141
0.000192387
0.000175044
0.000194297
0.000195346
0.000193507
0.000178273
0.000207921
0.000203015
0.000201365
0.000184857
0.000211549
0.000201389
0.000204525
0.000182818
0.000187117
0.000184418
0.00018697
0.000166995
0.000173586
0.000179548
0.000178802
0.00016828
0.000139766
0.000142501
0.00014248
0.000139758
0.000142505
0.00014249
0.000142499
0.000142491
0.000139764
0.000142509
0.000142495
0.000139756
0.000140168
0.000142124
0.000143273
0.000143255
0.00014556
0.000145551
0.000140161
0.000142126
0.000143273
0.000143259
0.000145563
0.000145555
0.000143264
0.000145575
0.000145564
0.000140164
0.000142129
0.000143266
0.000145578
0.000145568
0.000142127
0.000142517
0.000144494
0.000146333
0.000146322
0.000148658
0.000148629
0.000142518
0.000144477
0.000146334
0.000146325
0.000148665
0.000148653
0.000146341
0.000148653
0.000148658
0.000142522
0.000144493
0.000146344
0.000148675
0.000148664
0.000144486
0.000144876
0.000146754
0.00014942
0.000149391
0.000151639
0.000151621
0.000144857
0.000146752
0.000149423
0.000149409
0.000151643
0.000151633
0.000149411
0.000151643
0.00015162
0.000144874
0.000146756
0.000149415
0.000151651
0.000151626
0.000146741
0.000147119
0.000149007
0.000152384
0.00015237
0.000154629
0.000154616
0.000147119
0.000149005
0.000152387
0.000152379
0.000154633
0.000154627
0.000152375
0.000154643
0.000154642
0.000147122
0.000149012
0.000152382
0.000154653
0.000154648
0.000149018
0.000149361
0.000151136
0.000155357
0.000155335
0.000157469
0.000157444
0.000149355
0.00015112
0.000155361
0.000155345
0.00015747
0.000157454
0.000155363
0.000157466
0.000157471
0.000149362
0.000151129
0.000155369
0.000157477
0.000157474
0.000151128
0.000151469
0.00015327
0.000158174
0.000158152
0.000160322
0.000160305
0.000151455
0.000153264
0.000158181
0.000158174
0.00016032
0.000160306
0.000158167
0.000160328
0.000160295
0.000151467
0.000153271
0.000158177
0.000160326
0.000160296
0.000153246
0.000153598
0.00015532
0.000161022
0.000161004
0.000163087
0.000163063
0.000153593
0.000155315
0.000161021
0.000161005
0.000163092
0.00016308
0.000161005
0.00016309
0.000163081
0.000153596
0.000155328
0.000161006
0.000163103
0.000163087
0.00015532
0.000155631
0.000157357
0.000163769
0.000163759
0.000165812
0.000165822
0.000155632
0.000157373
0.000163772
0.000163773
0.000165817
0.000165823
0.000163764
0.000165856
0.000165845
0.000155645
0.000157371
0.000163767
0.000165858
0.000165853
0.000157371
0.00015767
0.000159346
0.000166516
0.000166509
0.000168547
0.000168451
0.000157677
0.000159268
0.000166517
0.000166504
0.000168563
0.000168485
0.000166545
0.000168467
0.000168492
0.000157673
0.000159288
0.000166549
0.000168499
0.000168506
0.000159301
0.000159607
0.000161013
0.000169149
0.00016905
0.000170854
0.000170927
0.000159528
0.000161093
0.000169164
0.000169088
0.00017084
0.000170901
0.000169089
0.000170958
0.000170917
0.000159552
0.000161079
0.000169102
0.000170935
0.000170913
0.000161059
0.000161273
0.000163044
0.00017147
0.000171565
0.000173562
0.000173513
0.000161376
0.000163
0.00017146
0.000171554
0.000173569
0.000173541
0.000171533
0.000173524
0.000173464
0.000161361
0.000163033
0.000171538
0.000173553
0.000173479
0.000162962
0.000163344
0.000164769
0.000174248
0.000174159
0.000175954
0.000175917
0.000163266
0.000164755
0.000174259
0.000174188
0.000175975
0.000175946
0.000174137
0.000175979
0.000176046
0.000163301
0.000164757
0.000174147
0.000175996
0.000176052
0.000164833
0.000164971
0.000166416
0.000176504
0.000176506
0.000178343
0.000178322
0.000164989
0.000166411
0.000176511
0.000176496
0.00017834
0.000178293
0.000176649
0.000178339
0.000178294
0.000164978
0.000166387
0.000176642
0.000178296
0.000178284
0.00016637
0.00016664
0.000167934
0.000178872
0.000178816
0.000180297
0.000180352
0.00016661
0.000167975
0.000178881
0.000178835
0.000180298
0.000180355
0.000178745
0.000180353
0.000180319
0.000166602
0.000168003
0.000178759
0.000180388
0.000180354
0.000167965
0.000168198
0.000170176
0.000180985
0.000181074
0.000183378
0.000183265
0.000168269
0.000170073
0.000180984
0.000181059
0.000183387
0.000183289
0.000181054
0.000183298
0.000183317
0.000168284
0.000170095
0.000181083
0.000183334
0.000183336
0.000170093
0.000170377
0.000171053
0.000183963
0.000183769
0.000184929
0.000184812
0.000170234
0.000170988
0.000183958
0.000183784
0.000184933
0.000184877
0.00018386
0.000184853
0.000184759
0.000170264
0.000171044
0.000183858
0.000184879
0.000184732
0.00017093
0.000171031
0.000171592
0.000185128
0.000185151
0.000185633
0.000186046
0.000171051
0.00017199
0.000185154
0.000185236
0.000185685
0.000186076
0.000185016
0.000186148
0.000186258
0.00017111
0.000171933
0.000185005
0.00018614
0.000186267
0.000172097
0.000171771
0.000174705
0.000186072
0.000186456
0.000189328
0.000189037
0.000172158
0.000174389
0.000186096
0.000186366
0.000189238
0.000188579
0.000186782
0.00018897
0.000188846
0.00017204
0.000174027
0.000186789
0.00018859
0.000188828
0.000174239
0.00017528
0.000176566
0.000190619
0.000190147
0.000192403
0.000192139
0.000174843
0.000176203
0.000190534
0.00018971
0.000192437
0.0001924
0.000189737
0.000192112
0.000191997
0.000174519
0.000176423
0.000189718
0.000192376
0.000192068
0.00017607
0.00017639
0.000174477
0.000192419
0.000192195
0.000191212
0.000191449
0.000176119
0.000174957
0.000192465
0.000192707
0.000191373
0.000192493
0.000192262
0.000191618
0.000191892
0.000176453
0.000176127
0.000192371
0.000192677
0.000192069
0.00017542
0.000173987
0.000177016
0.000190593
0.000190944
0.000191949
0.000192488
0.00017454
0.000177292
0.000190781
0.000192184
0.000191938
0.000191805
0.000191468
0.000192518
0.00019242
0.000175836
0.000176561
0.000191667
0.000191727
0.000192194
0.000177086
0.000178506
0.000185921
0.000195266
0.000195415
0.000202888
0.000202197
0.000178602
0.000185056
0.000195107
0.000193815
0.000202642
0.000200279
0.000195054
0.000202023
0.000201514
0.000177347
0.000182597
0.000194735
0.00020005
0.000201261
0.000184312
0.000186661
0.000186252
0.000204122
0.000203215
0.000207362
0.00020541
0.000185575
0.000184114
0.000203876
0.000201534
0.000207358
0.000204587
0.000202521
0.00020534
0.000205373
0.000183254
0.000185755
0.000202309
0.000204399
0.000205331
0.000185081
0.000182839
0.000164779
0.000202119
0.00020093
0.000183959
0.000186402
0.000181512
0.000168492
0.00020285
0.000204359
0.000184305
0.000189987
0.000202402
0.000186887
0.000187152
0.000184456
0.000171666
0.000203213
0.000190613
0.000187604
0.000168476
0.000162997
0.000162728
0.000181078
0.00018406
0.000174499
0.000179542
0.00016745
0.000167032
0.000181277
0.000186521
0.000174208
0.000179572
0.000184424
0.000179701
0.00017855
0.000170141
0.000165134
0.000184666
0.000179877
0.000178212
0.00016561
0.000166502
0.000178872
0.000179793
0.000167913
0.000178324
0.000178677
0.00018075
0.000166271
0.000180028
9.23986e-05
5.00388e-05
2.3618e-05
9.23951e-05
5.00338e-05
0.000125869
0.000125853
0.000125874
0.000125863
0.000122165
0.000140935
9.42848e-05
0.000136453
2.36169e-05
0.000122161
0.000140951
0.000136466
9.42856e-05
0.000138545
7.39659e-05
7.39607e-05
9.28725e-05
5.00559e-05
9.26717e-05
5.00686e-05
2.36232e-05
2.36277e-05
9.28682e-05
5.00509e-05
9.26661e-05
5.00636e-05
0.000126573
0.000126586
0.000126581
0.000128759
0.000128765
0.000128769
0.000128765
0.000123485
9.46014e-05
0.000139093
0.000144044
0.000122932
9.48791e-05
0.000139971
2.36221e-05
2.36266e-05
0.000123478
0.000139098
9.45998e-05
0.000144043
0.000122925
0.00013997
9.48781e-05
7.41049e-05
7.40997e-05
0.000140945
7.42247e-05
7.42195e-05
9.33356e-05
5.00863e-05
9.31365e-05
5.00992e-05
2.36332e-05
2.36378e-05
9.33325e-05
5.00813e-05
9.31321e-05
5.00942e-05
0.000129519
0.000129522
0.000129524
0.000131877
0.000131865
0.000131892
0.000131897
0.000124768
9.51855e-05
0.00014261
0.00014712
0.000124226
9.54586e-05
0.000143508
2.36322e-05
2.36368e-05
0.000124765
0.000142615
9.51861e-05
0.000147129
0.00012422
0.000143514
9.5461e-05
7.43614e-05
7.43566e-05
0.000143314
7.448e-05
7.44747e-05
9.37783e-05
5.01166e-05
9.35913e-05
5.01294e-05
2.36434e-05
2.36482e-05
9.3774e-05
5.01116e-05
9.3587e-05
5.01244e-05
0.000132662
0.000132694
0.000132695
0.000135069
0.000135063
0.000135075
0.000135053
0.000126004
9.57531e-05
0.000146195
0.000150164
0.000125487
9.60123e-05
0.000147085
2.36424e-05
2.36471e-05
0.000125998
0.000146215
9.57549e-05
0.000150173
0.000125483
0.000147094
9.60123e-05
7.46072e-05
7.46017e-05
0.00014562
7.47171e-05
7.47117e-05
9.42064e-05
5.01472e-05
9.40222e-05
5.01601e-05
2.36539e-05
2.36588e-05
9.42027e-05
5.01422e-05
9.40167e-05
5.01551e-05
0.000135867
0.000135885
0.000135861
0.000138405
0.000138421
0.000138428
0.000138438
0.000127204
9.62975e-05
0.000149707
0.000153156
0.000126694
9.65524e-05
0.000150613
2.36529e-05
2.36577e-05
0.000127198
0.000149718
9.62956e-05
0.000153158
0.000126686
0.000150619
9.65528e-05
7.48437e-05
7.48389e-05
0.000147885
7.49568e-05
7.49517e-05
9.46147e-05
5.01776e-05
9.44429e-05
5.01904e-05
2.36645e-05
2.36694e-05
9.46102e-05
5.01726e-05
9.44383e-05
5.01853e-05
0.000139258
0.000139274
0.00013928
0.000141743
0.000141729
0.000141728
0.000141767
0.000128355
9.6822e-05
0.000153286
0.000156063
0.000127877
9.70544e-05
0.000154143
2.36635e-05
2.36684e-05
0.000128351
0.000153301
9.68228e-05
0.000156067
0.000127872
0.000154153
9.70555e-05
7.5073e-05
7.50674e-05
0.000150089
7.51698e-05
7.51641e-05
9.50101e-05
5.02083e-05
9.48378e-05
5.02215e-05
2.36755e-05
2.36806e-05
9.50066e-05
5.02033e-05
9.48328e-05
5.02165e-05
0.000142569
0.000142586
0.000142602
0.000145187
0.000145175
0.000145189
0.000145155
0.000129463
9.73118e-05
0.000156703
0.000158889
0.000128985
9.75537e-05
0.000157558
2.36745e-05
2.36796e-05
0.00012946
0.000156725
9.73139e-05
0.000158915
0.000128981
0.000157593
9.75559e-05
7.52809e-05
7.5276e-05
0.000152182
7.53847e-05
7.53796e-05
9.5394e-05
5.02393e-05
9.52328e-05
5.02522e-05
2.36867e-05
2.36918e-05
9.53888e-05
5.02342e-05
9.52272e-05
5.02472e-05
0.00014606
0.000146054
0.000146033
0.00014869
0.000148669
0.000148697
0.000148695
0.000130563
9.78108e-05
0.000160183
0.00016172
0.000130103
9.80322e-05
0.000161039
2.36857e-05
2.36908e-05
0.000130553
0.000160171
9.78087e-05
0.000161726
0.000130094
0.000161036
9.80309e-05
7.54946e-05
7.54889e-05
0.000154294
7.55916e-05
7.55859e-05
9.57645e-05
5.02702e-05
9.56017e-05
5.02833e-05
2.36981e-05
2.37032e-05
9.57615e-05
5.02652e-05
9.55977e-05
5.02784e-05
0.000149559
0.000149584
0.000149569
0.000152212
0.000152258
0.000152266
0.000152262
0.000131614
9.82748e-05
0.000163562
0.000164479
0.000131162
9.85012e-05
0.000164408
2.3697e-05
2.37021e-05
0.000131612
0.000163567
9.8277e-05
0.000164486
0.000131157
0.000164411
9.85021e-05
7.5698e-05
7.5693e-05
0.00015634
7.57956e-05
7.57902e-05
9.61221e-05
5.03008e-05
9.59723e-05
5.0313e-05
2.37091e-05
2.37141e-05
9.6119e-05
5.02958e-05
9.59678e-05
5.0308e-05
0.000153158
0.000153163
0.000153193
0.000155947
0.000155867
0.00015589
0.000155917
0.000132647
9.87381e-05
0.000166951
0.000167217
0.000132216
9.8937e-05
0.000167804
2.37081e-05
2.3713e-05
0.00013264
0.000166954
9.87356e-05
0.000167211
0.000132209
0.000167795
9.89374e-05
7.59003e-05
7.58948e-05
0.000158378
7.5985e-05
7.59798e-05
9.64369e-05
5.03294e-05
9.63025e-05
5.03421e-05
2.37203e-05
2.37257e-05
9.6429e-05
5.03242e-05
9.6298e-05
5.03368e-05
0.000156692
0.000156751
0.000156753
0.000159181
0.000159247
0.00015921
0.000159244
0.00013357
9.9139e-05
0.000170136
0.000169682
0.000133179
9.93323e-05
0.000170888
2.37193e-05
2.37246e-05
0.000133565
0.000170175
9.91423e-05
0.000169694
0.000133175
0.000170909
9.93324e-05
7.60637e-05
7.60585e-05
0.000160164
7.61422e-05
7.6136e-05
9.67808e-05
5.03609e-05
9.66245e-05
5.03746e-05
2.37322e-05
2.37373e-05
9.67776e-05
5.03559e-05
9.66129e-05
5.03698e-05
0.000160129
0.000160099
0.000160097
0.000162782
0.000162793
0.000162836
0.000162721
0.000134537
9.95584e-05
0.000173223
0.000172227
0.000134113
9.97645e-05
0.000173988
2.37312e-05
2.37364e-05
0.000134537
0.00017321
9.95542e-05
0.000172248
0.000134104
0.00017401
9.97703e-05
7.62371e-05
7.62317e-05
0.000161999
7.63274e-05
7.63233e-05
9.70984e-05
5.03913e-05
9.69701e-05
5.04027e-05
2.37434e-05
2.37485e-05
9.70978e-05
5.03865e-05
9.69741e-05
5.03976e-05
0.000163731
0.000163756
0.00016367
0.000166479
0.00016641
0.000166476
0.000166506
0.000135498
9.9973e-05
0.000176408
0.000174799
0.00013509
0.000100159
0.000177218
2.37423e-05
2.37472e-05
0.000135492
0.000176429
9.99832e-05
0.000174829
0.0001351
0.000177234
0.000100158
7.64244e-05
7.6419e-05
0.000163928
7.6512e-05
7.65036e-05
9.73823e-05
5.0419e-05
9.72526e-05
5.04316e-05
2.37546e-05
2.37597e-05
9.73728e-05
5.04139e-05
9.72423e-05
5.04266e-05
0.000167244
0.000167288
0.000167395
0.00016994
0.000169973
0.000169878
0.000169984
0.000136354
0.000100345
0.000179457
0.000177188
0.000136003
0.000100506
0.000180231
2.37535e-05
2.37587e-05
0.000136324
0.000179448
0.000100333
0.000177128
0.000135973
0.000180168
0.000100496
7.6587e-05
7.65783e-05
0.000165644
7.66395e-05
7.66328e-05
9.76564e-05
5.04488e-05
9.75443e-05
5.04618e-05
2.37663e-05
2.37722e-05
9.76572e-05
5.04437e-05
9.75404e-05
5.04567e-05
0.00017081
0.000170767
0.000170762
0.000172915
0.00017292
0.000172975
0.000172905
0.000137097
0.000100665
0.00018232
0.000179248
0.000136774
0.000100824
0.00018285
2.37654e-05
2.3771e-05
0.000137121
0.000182309
0.000100667
0.000179302
0.00013677
0.000182906
0.000100842
7.66917e-05
7.66888e-05
0.000167076
7.67717e-05
7.67708e-05
9.80139e-05
5.04821e-05
9.78263e-05
5.04947e-05
2.3779e-05
2.37831e-05
9.80025e-05
5.04768e-05
9.78207e-05
5.04895e-05
0.000173841
0.000173842
0.000173813
0.000177237
0.000177187
0.000177254
0.000177192
0.000138112
0.000101064
0.000184955
0.000181891
0.000137614
0.00010132
0.000185909
2.37778e-05
2.37821e-05
0.000138119
0.000184998
0.000101077
0.000181913
0.000137646
0.000185951
0.00010132
7.69179e-05
7.69141e-05
0.000169109
7.70169e-05
7.70099e-05
9.82028e-05
5.05026e-05
9.81724e-05
5.05072e-05
2.37867e-05
2.37906e-05
9.82005e-05
5.04979e-05
9.81678e-05
5.05028e-05
0.000178138
0.000178203
0.00017822
0.000180389
0.000180213
0.000180238
0.000180211
0.000138854
0.000101467
0.000188492
0.000184208
0.000138653
0.000101489
0.000189107
2.37858e-05
2.37895e-05
0.000138825
0.000188512
0.00010147
0.000184212
0.000138629
0.000189076
0.000101496
7.70439e-05
7.70345e-05
0.00017063
7.70289e-05
7.70186e-05
9.8244e-05
5.05193e-05
9.81946e-05
5.05356e-05
2.37977e-05
2.38046e-05
9.82592e-05
5.05149e-05
9.82008e-05
5.05306e-05
0.000180837
0.000180871
0.000180681
0.000181974
0.000182395
0.000182455
0.000182458
0.000139171
0.000101523
0.000190427
0.000185497
0.000138975
0.000101642
0.000190804
2.37959e-05
2.38021e-05
0.000139158
0.000190393
0.000101528
0.000185536
0.000138951
0.000190805
0.00010164
7.70211e-05
7.70109e-05
0.000171331
7.70984e-05
7.70882e-05
9.86822e-05
5.0568e-05
9.84228e-05
5.059e-05
2.38143e-05
2.38205e-05
9.86293e-05
5.0561e-05
9.84097e-05
5.05827e-05
0.00018287
0.000182882
0.000183152
0.000185601
0.000185656
0.0001852
0.00018568
0.000140046
0.000101805
0.000192164
0.000187194
0.000139596
0.000102107
0.000192808
2.38118e-05
2.38195e-05
0.00013999
0.000192122
0.000101758
0.000186985
0.000139571
0.000192705
0.000102011
7.72282e-05
7.72188e-05
0.000173072
7.73596e-05
7.73533e-05
9.91437e-05
5.0602e-05
9.90397e-05
5.05977e-05
2.38233e-05
2.3824e-05
9.91335e-05
5.05956e-05
9.90107e-05
5.0593e-05
0.000187087
0.000186569
0.000186853
0.000192146
0.000191436
0.000191365
0.000191009
0.000141298
0.000102512
0.000195746
0.000190962
0.000140824
0.000102633
0.000196957
2.38248e-05
2.38265e-05
0.000141342
0.000195492
0.000102477
0.000190702
0.000140772
0.000196744
0.000102678
7.74939e-05
7.7507e-05
0.000175405
7.75256e-05
7.75487e-05
9.87598e-05
5.05811e-05
9.89718e-05
5.05862e-05
2.3824e-05
2.38301e-05
9.88502e-05
5.05792e-05
9.90369e-05
5.05851e-05
0.000192314
0.00019263
0.000192106
0.00019212
0.00019213
0.000193668
0.000192651
0.000141359
0.000102489
0.000199457
0.000192186
0.000141455
0.000102276
0.000199607
2.38272e-05
2.38309e-05
0.000141585
0.000199817
0.000102685
0.000192869
0.000141593
0.000200202
0.000102556
7.74271e-05
7.74543e-05
0.000176115
7.7292e-05
7.73035e-05
9.89195e-05
5.06386e-05
9.85033e-05
5.06951e-05
2.38496e-05
2.38684e-05
9.89235e-05
5.06345e-05
9.86328e-05
5.06874e-05
0.000191512
0.000193262
0.000192164
0.000190813
0.000192017
0.000191922
0.000192438
0.000140787
0.000101911
0.000198623
0.000190614
0.000140758
0.000102344
0.00019802
2.38426e-05
2.38565e-05
0.000140917
0.000199682
0.000102265
0.000191986
0.000141082
0.000199154
0.000102337
7.71056e-05
7.70953e-05
0.000174878
7.74504e-05
7.74284e-05
0.000100818
5.07748e-05
9.99422e-05
5.07958e-05
2.38876e-05
2.38885e-05
0.000100512
5.0764e-05
9.97664e-05
5.07872e-05
0.00019485
0.000193133
0.000194534
0.000205619
0.000204899
0.000201639
0.000203673
0.000144718
0.000103625
0.000202123
0.000198068
0.000142856
0.000104661
0.000205193
2.38735e-05
2.38785e-05
0.000143914
0.000200484
0.000103105
0.00019586
0.000142361
0.000203198
0.000103863
7.81987e-05
7.81731e-05
0.00018106
7.87337e-05
7.86835e-05
0.000101308
5.07014e-05
0.000101963
5.05535e-05
2.38448e-05
2.38087e-05
0.000101474
5.07087e-05
0.000101508
5.05698e-05
0.000207154
0.000204696
0.000206166
0.000211947
0.000210362
0.000209101
0.000209681
0.000147856
0.000105878
0.000211588
0.000204104
0.000147148
0.000105406
0.000212523
2.38614e-05
2.38365e-05
0.000147186
0.000210342
0.000104808
0.000202187
0.000146035
0.000211402
0.000105343
7.93583e-05
7.92507e-05
0.000186871
7.86774e-05
7.86859e-05
9.56288e-05
5.03616e-05
9.74622e-05
5.03489e-05
2.37781e-05
2.37915e-05
9.62033e-05
5.03671e-05
9.8137e-05
5.03427e-05
0.000210211
0.000210311
0.000210161
0.000192231
0.000194606
0.000200479
0.000196007
0.000138358
0.000101688
0.000213099
0.000195669
0.000142219
9.97484e-05
0.000207368
2.37949e-05
2.37917e-05
0.000140045
0.00021425
0.000103163
0.000201055
0.000143778
0.000211894
0.00010123
7.64276e-05
7.65068e-05
0.000176239
7.52779e-05
7.52708e-05
9.58812e-05
5.05284e-05
9.45707e-05
5.07229e-05
2.38425e-05
2.38811e-05
9.52738e-05
5.051e-05
9.44755e-05
5.07246e-05
0.00018978
0.000194458
0.00019104
0.000175578
0.000179928
0.000181945
0.000180324
0.000134324
9.82998e-05
0.000193127
0.00018269
0.000134421
9.91946e-05
0.000190382
2.3826e-05
2.38755e-05
0.00013318
0.000195578
9.87823e-05
0.000184496
0.000134864
0.00019234
9.82406e-05
7.43949e-05
7.41813e-05
0.000164188
7.52733e-05
7.50653e-05
0.000100814
5.11028e-05
9.84377e-05
5.13195e-05
2.39593e-05
2.40312e-05
0.000101797
5.11226e-05
9.88902e-05
5.1317e-05
0.000177064
0.000178575
0.000177832
0.000141777
0.000100393
0.000184915
0.000183142
0.000138457
0.000101686
0.000188135
2.3959e-05
2.40083e-05
0.000143806
0.000184583
0.000101105
0.000182596
0.000138627
0.000187045
0.000103537
7.74892e-05
7.7613e-05
0.000176822
7.90223e-05
7.92781e-05
2.36205e-05
2.36179e-05
0.000138555
7.39741e-05
7.39664e-05
2.36253e-05
2.36209e-05
2.36227e-05
2.36183e-05
0.000138967
7.41042e-05
7.40963e-05
7.39831e-05
7.39753e-05
9.23952e-05
5.00335e-05
0.000122166
0.000140933
9.42886e-05
0.000136447
0.000122162
0.000140913
9.42665e-05
0.000136438
9.24324e-05
5.00536e-05
5.00411e-05
9.26387e-05
9.24293e-05
5.00484e-05
5.00359e-05
9.26354e-05
0.000122268
0.00014172
9.45891e-05
0.000138211
9.4305e-05
0.000137328
0.000122834
0.000122264
0.000141698
9.45674e-05
0.000138201
9.42823e-05
0.000137318
0.00012283
0.000138545
7.39538e-05
7.39708e-05
2.36191e-05
2.36228e-05
2.36183e-05
0.000138957
7.40845e-05
7.41015e-05
7.39608e-05
7.39799e-05
2.36239e-05
2.36195e-05
0.000122163
0.000140937
9.42797e-05
0.000136449
9.23913e-05
5.00302e-05
0.000122158
0.000140929
0.000136451
9.42719e-05
9.24277e-05
5.00486e-05
5.00361e-05
9.26343e-05
0.000122265
0.000141725
9.45795e-05
0.000138218
9.42962e-05
0.000137334
0.000122829
9.24146e-05
5.0045e-05
5.00325e-05
9.26305e-05
0.00012226
0.000141714
0.000138217
9.45711e-05
0.000137335
9.42879e-05
0.000122824
9.23964e-05
5.00354e-05
0.000122163
0.000140927
0.000136456
9.42774e-05
9.23947e-05
5.00322e-05
0.000122268
0.000141719
9.45857e-05
0.00013821
9.43015e-05
0.00013733
0.000122832
9.24301e-05
5.00502e-05
5.00377e-05
9.26363e-05
0.000122266
0.000141711
0.000138214
9.45783e-05
0.000137334
9.42936e-05
0.000122831
9.24289e-05
5.00471e-05
5.00345e-05
9.26347e-05
0.000138557
7.39612e-05
7.39726e-05
2.36186e-05
2.36217e-05
2.36173e-05
0.000138968
7.40909e-05
7.41023e-05
7.39701e-05
7.39813e-05
2.36234e-05
2.3619e-05
0.000122159
0.000140932
0.000136462
9.42722e-05
9.23951e-05
5.00343e-05
9.23927e-05
5.00307e-05
0.000122263
0.000141734
0.000138226
9.45846e-05
0.000137348
9.43016e-05
0.000122826
0.000122261
0.000141717
0.000138223
9.45726e-05
0.000137344
9.42886e-05
0.000122825
9.24164e-05
5.00491e-05
5.00366e-05
9.2634e-05
9.24251e-05
5.00456e-05
5.0033e-05
9.26317e-05
2.36181e-05
2.36172e-05
0.000138956
7.40967e-05
7.40913e-05
7.39747e-05
7.39696e-05
2.36229e-05
2.36185e-05
2.3622e-05
2.36176e-05
2.36257e-05
2.36302e-05
2.36231e-05
2.36277e-05
7.41126e-05
7.41045e-05
0.000140951
7.4231e-05
7.42231e-05
2.36353e-05
2.36307e-05
2.36328e-05
2.36281e-05
0.000141343
7.43594e-05
7.43517e-05
7.42391e-05
7.42311e-05
9.28693e-05
5.00507e-05
9.26684e-05
5.00633e-05
0.000123486
9.46045e-05
0.000139093
0.000144034
0.000122934
9.48807e-05
0.000139967
0.000123482
9.45822e-05
0.000139084
0.000144023
0.000122929
9.48599e-05
0.000139961
9.29048e-05
5.00839e-05
5.0071e-05
9.31042e-05
9.29017e-05
5.00785e-05
5.00657e-05
9.31011e-05
0.000123583
0.000144794
9.51711e-05
0.00014171
9.48953e-05
0.000140835
0.000124127
0.000123578
0.000144785
9.515e-05
0.000141705
9.4874e-05
0.000140831
0.000124123
7.40908e-05
7.411e-05
0.000140948
7.42119e-05
7.42294e-05
2.36244e-05
2.36289e-05
2.36328e-05
2.36281e-05
0.000141343
7.43395e-05
7.43572e-05
7.4218e-05
7.42377e-05
2.36339e-05
2.36293e-05
0.000123479
9.4595e-05
0.000139091
0.000144035
0.000122928
9.4871e-05
0.000139963
9.28644e-05
5.00473e-05
9.2653e-05
5.006e-05
0.000123474
0.000139089
9.45862e-05
0.000144024
0.000122923
0.000139963
9.48636e-05
9.28995e-05
5.00789e-05
5.0066e-05
9.31007e-05
0.000123576
0.000144797
9.51621e-05
0.000141712
9.48858e-05
0.000140832
0.000124121
9.28865e-05
5.00753e-05
5.00624e-05
9.30969e-05
0.000123572
0.000144788
0.000141713
9.51551e-05
0.000140833
9.48783e-05
0.000124117
9.28711e-05
5.00525e-05
9.26692e-05
5.00652e-05
0.000123484
0.000139096
9.45936e-05
0.00014403
0.000122931
0.000139972
9.48716e-05
9.28695e-05
5.00494e-05
9.2668e-05
5.00621e-05
0.000123583
0.000144808
9.51702e-05
0.00014172
9.48944e-05
0.000140843
0.000124129
9.29035e-05
5.00804e-05
5.00676e-05
9.31039e-05
0.000123581
0.000144794
0.00014172
9.51634e-05
0.000140843
9.48864e-05
0.000124127
9.29023e-05
5.00774e-05
5.00645e-05
9.31024e-05
7.40992e-05
7.41105e-05
0.000140948
7.42186e-05
7.42306e-05
2.36239e-05
2.36284e-05
2.36317e-05
2.36271e-05
0.000141342
7.43472e-05
7.43595e-05
7.42268e-05
7.42387e-05
2.36335e-05
2.36288e-05
0.000123477
0.000139096
9.45881e-05
0.000144032
0.000122924
0.000139969
9.48661e-05
9.28691e-05
5.00514e-05
9.26546e-05
5.00642e-05
9.28668e-05
5.00479e-05
9.26634e-05
5.00606e-05
0.000123575
0.00014481
0.000141727
9.51709e-05
0.000140846
9.4893e-05
0.000124124
0.000123574
0.000144798
0.000141725
9.51586e-05
0.000140844
9.48812e-05
0.000124122
9.28895e-05
5.00794e-05
5.00666e-05
9.31031e-05
9.28983e-05
5.00759e-05
5.0063e-05
9.31008e-05
2.36234e-05
2.36279e-05
2.36224e-05
2.3627e-05
0.00014134
7.43533e-05
7.43484e-05
7.42328e-05
7.42277e-05
2.3633e-05
2.36283e-05
2.3632e-05
2.36274e-05
2.36358e-05
2.36404e-05
2.36332e-05
2.36379e-05
7.43677e-05
7.43599e-05
0.000143311
7.44877e-05
7.448e-05
2.36455e-05
2.36409e-05
2.36429e-05
2.36383e-05
0.000143705
7.46094e-05
7.46015e-05
7.44957e-05
7.44879e-05
9.33322e-05
5.00809e-05
9.31335e-05
5.00938e-05
0.000124766
9.51862e-05
0.000142597
0.000147108
0.000124223
9.54627e-05
0.000143492
0.000124762
9.51643e-05
0.000142592
0.000147094
0.000124218
9.5439e-05
0.000143486
9.33674e-05
5.01143e-05
5.01015e-05
9.35609e-05
9.3364e-05
5.01089e-05
5.00962e-05
9.35573e-05
0.000124861
0.000147885
9.57451e-05
0.000145294
9.54778e-05
0.000144391
0.000125397
0.000124857
0.000147863
9.57205e-05
0.000145282
9.54531e-05
0.000144383
0.000125392
7.43456e-05
7.43654e-05
0.000143306
7.44658e-05
7.44831e-05
2.36344e-05
2.3639e-05
2.3643e-05
2.36383e-05
0.000143696
7.45876e-05
7.46046e-05
7.44715e-05
7.44908e-05
2.36442e-05
2.36395e-05
0.000124762
9.51774e-05
0.000142594
0.00014711
0.000124218
9.5454e-05
0.000143489
9.33287e-05
5.00777e-05
9.3119e-05
5.00906e-05
0.000124757
0.000142594
9.517e-05
0.000147103
0.000124213
0.00014349
9.54456e-05
9.33633e-05
5.01092e-05
5.00965e-05
9.35576e-05
0.000124858
0.00014789
9.57362e-05
0.000145305
9.54693e-05
0.000144392
0.000125393
9.33501e-05
5.01057e-05
5.00929e-05
9.35538e-05
0.000124853
0.000147882
0.000145306
9.57277e-05
0.000144395
9.54604e-05
0.000125388
9.33344e-05
5.00828e-05
9.31361e-05
5.00956e-05
0.000124767
0.000142613
9.51784e-05
0.000147119
0.000124224
0.000143514
9.54535e-05
9.33333e-05
5.00798e-05
9.31351e-05
5.00926e-05
0.000124863
0.000147888
9.57391e-05
0.0001453
9.54736e-05
0.000144405
0.000125395
9.33659e-05
5.01108e-05
5.0098e-05
9.35581e-05
0.000124863
0.000147892
0.000145312
9.57334e-05
0.000144414
9.54682e-05
0.000125395
9.33651e-05
5.01076e-05
5.00949e-05
9.35569e-05
7.43554e-05
7.43676e-05
0.000143316
7.44744e-05
7.44862e-05
2.36339e-05
2.36386e-05
2.36419e-05
2.36373e-05
0.000143708
7.45962e-05
7.46075e-05
7.44823e-05
7.44939e-05
2.36437e-05
2.3639e-05
0.000124764
0.000142615
9.5174e-05
0.000147123
0.000124219
0.000143514
9.54486e-05
9.33338e-05
5.00818e-05
9.31232e-05
5.00946e-05
9.33316e-05
5.00782e-05
9.31321e-05
5.0091e-05
0.00012486
0.000147906
0.000145323
9.57414e-05
0.00014442
9.54756e-05
0.000125391
0.000124858
0.000147898
0.000145322
9.57277e-05
0.00014442
9.54635e-05
0.00012539
9.33531e-05
5.01097e-05
5.0097e-05
9.35568e-05
9.3362e-05
5.01061e-05
5.00934e-05
9.35544e-05
2.36334e-05
2.3638e-05
2.36325e-05
2.36371e-05
0.000143705
7.46004e-05
7.45948e-05
7.44876e-05
7.44825e-05
2.36431e-05
2.36385e-05
2.36422e-05
2.36376e-05
2.3646e-05
2.36507e-05
2.36434e-05
2.36481e-05
7.46165e-05
7.46085e-05
0.000145637
7.4726e-05
7.47178e-05
2.3656e-05
2.36512e-05
2.36535e-05
2.36486e-05
0.000146003
7.48434e-05
7.48354e-05
7.47328e-05
7.47244e-05
9.3775e-05
5.01113e-05
9.35878e-05
5.01241e-05
0.000126008
9.57588e-05
0.000146196
0.000150164
0.000125489
9.60156e-05
0.000147085
0.000126003
9.57336e-05
0.000146182
0.000150142
0.000125484
9.5993e-05
0.000147074
9.3808e-05
5.01448e-05
5.01318e-05
9.39927e-05
9.38047e-05
5.01395e-05
5.01265e-05
9.39897e-05
0.000126097
0.000150901
9.62832e-05
0.000148829
9.60284e-05
0.000147959
0.000126605
0.000126092
0.000150882
9.62627e-05
0.00014882
9.60055e-05
0.000147951
0.000126601
7.45927e-05
7.46118e-05
0.000145624
7.47061e-05
7.47237e-05
2.36446e-05
2.36494e-05
2.36535e-05
2.36487e-05
0.000145994
7.48245e-05
7.48428e-05
7.4711e-05
7.47309e-05
2.36547e-05
2.36499e-05
0.000126002
9.575e-05
0.000146203
0.000150166
0.000125485
9.60059e-05
0.000147086
9.37702e-05
5.0108e-05
9.35739e-05
5.01208e-05
0.000125998
0.000146201
9.57413e-05
0.000150154
0.000125481
0.000147085
9.59984e-05
9.38026e-05
5.01398e-05
5.01268e-05
9.3988e-05
0.000126091
0.000150902
9.62735e-05
0.00014883
9.60188e-05
0.000147954
0.000126598
9.37895e-05
5.01362e-05
5.01232e-05
9.39843e-05
0.000126087
0.000150892
0.000148831
9.62665e-05
0.000147955
9.6011e-05
0.000126593
9.37757e-05
5.01132e-05
9.35885e-05
5.01261e-05
0.000126002
0.000146205
9.57466e-05
0.000150151
0.000125487
0.000147088
9.60025e-05
9.37738e-05
5.011e-05
9.35874e-05
5.01228e-05
0.000126094
0.000150904
9.62837e-05
0.000148826
9.6026e-05
0.000147959
0.000126605
9.38055e-05
5.01415e-05
5.01285e-05
9.39919e-05
0.000126092
0.000150882
0.000148821
9.62724e-05
0.000147957
9.60151e-05
0.000126601
9.38038e-05
5.01384e-05
5.01252e-05
9.39896e-05
7.46034e-05
7.46145e-05
0.000145635
7.47133e-05
7.47251e-05
2.36441e-05
2.36489e-05
2.36524e-05
2.36476e-05
0.000146002
7.4831e-05
7.48436e-05
7.472e-05
7.47317e-05
2.36542e-05
2.36494e-05
0.000125996
0.000146213
9.57412e-05
0.000150152
0.000125481
0.000147089
9.59969e-05
9.37733e-05
5.01121e-05
9.35748e-05
5.0125e-05
9.37706e-05
5.01084e-05
9.35835e-05
5.01214e-05
0.000126087
0.000150911
0.000148834