/*--------------------------------*- C++ -*----------------------------------*\
| =========                 |                                                 |
| \\      /  F ield         | OpenFOAM: The Open Source CFD Toolbox           |
|  \\    /   O peration     | Version:  v2012                                 |
|   \\  /    A nd           | Website:  www.openfoam.com                      |
|    \\/     M anipulation  |                                                 |
\*---------------------------------------------------------------------------*/
FoamFile
{
    version     2.0;
    format      ascii;
    class       volScalarField;
    location    "1925";
    object      epsilon;
}
// * * * * * * * * * * * * * * * * * * * * * * * * * * * * * * * * * * * * * //

dimensions      [0 2 -3 0 0 0 0];


internalField   nonuniform List<scalar> 
171728
(
1.4287e-09
3.63639e-09
3.43629e-09
5.12139e-09
1.4101e-09
3.42854e-09
3.20519e-09
4.61535e-09
1.35258e-09
3.28995e-09
2.96298e-09
4.18599e-09
1.30046e-09
3.19287e-09
2.73688e-09
3.81978e-09
1.25188e-09
3.13857e-09
2.53166e-09
3.51073e-09
1.20532e-09
3.11515e-09
2.34401e-09
3.25204e-09
1.16193e-09
3.1109e-09
2.19928e-09
3.0413e-09
1.11842e-09
3.14464e-09
2.09428e-09
2.87239e-09
1.08322e-09
3.22797e-09
2.02263e-09
2.73917e-09
1.05038e-09
3.37726e-09
1.98516e-09
2.63173e-09
1.02024e-09
3.58716e-09
1.97964e-09
2.54725e-09
9.90399e-10
3.90145e-09
2.00704e-09
2.4929e-09
9.58085e-10
4.40228e-09
2.0768e-09
2.46827e-09
9.27725e-10
5.08776e-09
2.20645e-09
2.49158e-09
8.94092e-10
5.79343e-09
2.40844e-09
2.55559e-09
8.60431e-10
6.5031e-09
2.73453e-09
2.77438e-09
8.2447e-10
7.10978e-09
3.20868e-09
3.18821e-09
7.83509e-10
7.73289e-09
3.9921e-09
3.95816e-09
7.40945e-10
8.17762e-09
4.95229e-09
5.15768e-09
7.25728e-10
9.67488e-09
6.78145e-09
7.87694e-09
7.15553e-10
1.22501e-08
8.97786e-09
1.2804e-08
7.28466e-10
1.44653e-08
1.28362e-08
2.11001e-08
7.6108e-10
1.90651e-08
1.74772e-08
3.09021e-08
8.42328e-10
2.52283e-08
2.42997e-08
4.46643e-08
8.37315e-10
5.65275e-08
3.29941e-08
9.05575e-08
9.87491e-10
5.96305e-08
4.51324e-08
9.50839e-08
1.10055e-09
5.13257e-08
5.84462e-08
1.7642e-07
1.19098e-09
9.49867e-08
7.57379e-08
2.21177e-07
1.78059e-09
1.24047e-07
9.66626e-08
2.68334e-07
2.14545e-09
1.26927e-07
1.175e-07
3.83679e-07
2.96312e-09
1.3499e-07
1.45743e-07
4.34887e-07
3.51479e-09
1.73415e-07
1.75651e-07
5.08937e-07
5.3866e-09
2.12743e-07
2.05914e-07
5.97615e-07
6.90595e-09
2.36653e-07
2.47205e-07
6.4421e-07
8.55041e-09
2.78555e-07
2.72296e-07
7.12982e-07
1.25529e-08
3.18508e-07
3.28556e-07
7.54548e-07
1.54111e-08
3.67282e-07
3.60991e-07
7.95053e-07
1.91773e-08
4.02049e-07
4.09771e-07
8.50995e-07
2.74755e-08
4.58951e-07
4.56335e-07
8.74555e-07
3.16952e-08
5.13801e-07
5.0821e-07
9.11307e-07
3.86612e-08
5.31726e-07
5.353e-07
9.45645e-07
5.6623e-08
6.11009e-07
6.16387e-07
9.72751e-07
6.52052e-08
6.62881e-07
6.54045e-07
1.01106e-06
7.07033e-08
6.83378e-07
6.8343e-07
1.02981e-06
9.14599e-08
7.4274e-07
7.53157e-07
1.07336e-06
1.07069e-07
7.98171e-07
7.80478e-07
1.08644e-06
1.26347e-07
8.25709e-07
8.25836e-07
1.12172e-06
1.56896e-07
8.58766e-07
8.70185e-07
1.13436e-06
1.82774e-07
8.89761e-07
9.04027e-07
1.19374e-06
1.96271e-07
9.59644e-07
9.42038e-07
1.17376e-06
2.07104e-07
9.62403e-07
9.50565e-07
1.17202e-06
2.52205e-07
9.85105e-07
1.00714e-06
1.27602e-06
2.93313e-07
1.03922e-06
1.04679e-06
1.29045e-06
3.35445e-07
1.0618e-06
1.04997e-06
1.28289e-06
3.51089e-07
1.07102e-06
1.06642e-06
1.25396e-06
3.62515e-07
1.09558e-06
1.10189e-06
1.31147e-06
4.08178e-07
1.11141e-06
1.11661e-06
1.35718e-06
4.46194e-07
1.13828e-06
1.13161e-06
1.35927e-06
4.76803e-07
1.16141e-06
1.16808e-06
1.35386e-06
5.12915e-07
1.171e-06
1.17106e-06
1.358e-06
5.19421e-07
1.19829e-06
1.17813e-06
1.3995e-06
5.32198e-07
1.20008e-06
1.21662e-06
1.41342e-06
5.91094e-07
1.20149e-06
1.22279e-06
1.41427e-06
6.2341e-07
1.24371e-06
1.22089e-06
1.42942e-06
6.14227e-07
1.2546e-06
1.24325e-06
1.44297e-06
6.18157e-07
1.24754e-06
1.25941e-06
1.44971e-06
6.53914e-07
1.25992e-06
1.26077e-06
1.45554e-06
6.86952e-07
1.26836e-06
1.27117e-06
1.47006e-06
6.98831e-07
1.29433e-06
1.28044e-06
1.4797e-06
7.08135e-07
1.29072e-06
1.29299e-06
1.47224e-06
7.12955e-07
1.28169e-06
1.2918e-06
1.48374e-06
7.28988e-07
1.30406e-06
1.30136e-06
1.51735e-06
7.54194e-07
1.30982e-06
1.3091e-06
1.5106e-06
7.62791e-07
1.31185e-06
1.31217e-06
1.51288e-06
7.68309e-07
1.31473e-06
1.31621e-06
1.52108e-06
7.76173e-07
1.31384e-06
1.30757e-06
1.48013e-06
7.80131e-07
1.31249e-06
1.30481e-06
1.47294e-06
7.89279e-07
1.31152e-06
1.32456e-06
1.55442e-06
8.09652e-07
1.33432e-06
1.34766e-06
1.60194e-06
8.12204e-07
1.33318e-06
1.33244e-06
1.53056e-06
8.02921e-07
1.30779e-06
1.2927e-06
1.45342e-06
8.02136e-07
1.30658e-06
1.30093e-06
1.50809e-06
8.13571e-07
1.3232e-06
1.32901e-06
1.55984e-06
8.14421e-07
1.32212e-06
1.3301e-06
1.5486e-06
8.19979e-07
1.32969e-06
1.32992e-06
1.53973e-06
8.21452e-07
1.32042e-06
1.30672e-06
1.52166e-06
8.02095e-07
1.29018e-06
1.29256e-06
1.50577e-06
7.98364e-07
1.28881e-06
1.30302e-06
1.51031e-06
8.11451e-07
1.30447e-06
1.30116e-06
1.49934e-06
8.13695e-07
1.30644e-06
1.29269e-06
1.5275e-06
7.99647e-07
1.29126e-06
1.28724e-06
1.53801e-06
7.89811e-07
1.28016e-06
1.28771e-06
1.50896e-06
7.87799e-07
1.27418e-06
1.28149e-06
1.49042e-06
7.8456e-07
1.25882e-06
1.26203e-06
1.47984e-06
7.60238e-07
1.19727e-06
1.19902e-06
1.44432e-06
3.58987e-09
3.51062e-09
3.30171e-09
3.11652e-09
2.75028e-09
3.85814e-09
1.39574e-09
1.83053e-09
1.28143e-09
1.66414e-09
2.63545e-09
3.95726e-09
5.12347e-09
3.59001e-09
4.23962e-09
5.15454e-09
3.5294e-09
3.26381e-09
4.87615e-09
6.02447e-09
4.52838e-09
5.87252e-09
3.05683e-09
2.9122e-09
3.91874e-09
3.54823e-09
3.73494e-09
3.39468e-09
5.16614e-09
3.473e-09
4.90915e-09
5.10361e-09
4.56989e-09
4.9939e-09
3.26903e-09
4.77273e-09
4.67197e-09
3.20833e-09
3.0047e-09
4.4003e-09
5.8166e-09
4.06646e-09
5.6751e-09
2.8804e-09
2.85198e-09
3.6619e-09
3.33226e-09
3.45241e-09
3.14893e-09
4.81376e-09
3.31947e-09
4.53796e-09
4.5415e-09
4.06263e-09
4.67833e-09
3.02145e-09
4.3732e-09
4.23817e-09
2.95968e-09
2.77064e-09
3.97265e-09
5.63606e-09
3.72888e-09
5.5319e-09
2.8273e-09
2.81714e-09
3.38235e-09
3.0907e-09
3.16731e-09
2.92709e-09
4.44893e-09
3.21375e-09
4.20558e-09
4.03962e-09
3.64505e-09
4.26369e-09
2.79204e-09
3.94979e-09
3.85814e-09
2.72435e-09
2.53505e-09
3.65612e-09
5.49926e-09
3.46185e-09
5.39135e-09
2.79471e-09
2.78444e-09
3.09781e-09
2.87688e-09
2.90833e-09
2.73483e-09
4.1347e-09
3.14804e-09
3.95186e-09
3.62643e-09
3.29013e-09
3.85241e-09
2.58178e-09
3.58302e-09
3.53447e-09
2.49433e-09
2.35185e-09
3.40451e-09
5.34895e-09
3.25538e-09
5.19268e-09
2.76479e-09
2.75132e-09
2.85131e-09
2.69117e-09
2.69073e-09
2.57296e-09
3.89984e-09
3.1198e-09
3.76458e-09
3.27416e-09
2.987e-09
3.50191e-09
2.38789e-09
3.28891e-09
3.27099e-09
2.32328e-09
2.22617e-09
3.20953e-09
5.12908e-09
3.08323e-09
4.88408e-09
2.73419e-09
2.69159e-09
2.64074e-09
2.53743e-09
2.50695e-09
2.44179e-09
3.72792e-09
3.11034e-09
3.64086e-09
2.97459e-09
2.7438e-09
3.22511e-09
2.23099e-09
3.0543e-09
3.0556e-09
2.20942e-09
2.11608e-09
3.04555e-09
4.77979e-09
2.94893e-09
4.46495e-09
2.67118e-09
2.61093e-09
2.46758e-09
2.41314e-09
2.36585e-09
2.33896e-09
3.61327e-09
3.13059e-09
3.52556e-09
2.73535e-09
2.55255e-09
3.0072e-09
2.1169e-09
2.89096e-09
2.88268e-09
2.11014e-09
2.05017e-09
2.91904e-09
4.37583e-09
2.84614e-09
4.12822e-09
2.60269e-09
2.59322e-09
2.33822e-09
2.31813e-09
2.27853e-09
2.27052e-09
3.50141e-09
3.20441e-09
3.44252e-09
2.54771e-09
2.40319e-09
2.85913e-09
2.03663e-09
2.78752e-09
2.74576e-09
2.04898e-09
2.02363e-09
2.82668e-09
4.02349e-09
2.78151e-09
3.62407e-09
2.59109e-09
2.55128e-09
2.26691e-09
2.25957e-09
2.24398e-09
2.23699e-09
3.42039e-09
3.32937e-09
3.35486e-09
2.40202e-09
2.29306e-09
2.76879e-09
1.9921e-09
2.7247e-09
2.63483e-09
2.0279e-09
2.02196e-09
2.7711e-09
3.49823e-09
2.7628e-09
3.18477e-09
2.55161e-09
2.55015e-09
2.24076e-09
2.23325e-09
2.245e-09
2.23282e-09
3.3387e-09
3.53527e-09
3.28433e-09
2.2949e-09
2.21379e-09
2.71388e-09
1.97873e-09
2.69109e-09
2.54648e-09
2.03069e-09
2.03659e-09
2.76343e-09
3.09897e-09
2.7743e-09
2.91244e-09
2.56014e-09
2.61535e-09
2.25017e-09
2.23636e-09
2.27953e-09
2.25977e-09
3.26407e-09
3.80505e-09
3.19437e-09
2.21846e-09
2.16201e-09
2.6864e-09
1.99381e-09
2.69003e-09
2.48672e-09
2.05034e-09
2.07256e-09
2.78295e-09
2.87725e-09
2.82388e-09
2.839e-09
2.63939e-09
2.73621e-09
2.29371e-09
2.27329e-09
2.35508e-09
2.32438e-09
3.17513e-09
4.24868e-09
3.08871e-09
2.1718e-09
2.14687e-09
2.69605e-09
2.05299e-09
2.72797e-09
2.45599e-09
2.09403e-09
2.14119e-09
2.8424e-09
2.84341e-09
2.9136e-09
2.84523e-09
2.77033e-09
2.87612e-09
2.37705e-09
2.35104e-09
2.47223e-09
2.43184e-09
3.05087e-09
4.9124e-09
2.97809e-09
2.16565e-09
2.17937e-09
2.74566e-09
2.16327e-09
2.8419e-09
2.46246e-09
2.17531e-09
2.26134e-09
2.94965e-09
2.85378e-09
3.06725e-09
2.87642e-09
2.91208e-09
3.03726e-09
2.51261e-09
2.47539e-09
2.65821e-09
2.61051e-09
2.96258e-09
5.62407e-09
2.95267e-09
2.20997e-09
2.28377e-09
2.8766e-09
2.34864e-09
3.0419e-09
2.51219e-09
2.31004e-09
2.47144e-09
3.12887e-09
2.879e-09
3.30399e-09
2.96941e-09
3.09727e-09
3.25698e-09
2.72812e-09
2.67112e-09
2.96104e-09
2.89449e-09
2.95541e-09
6.36526e-09
3.11646e-09
2.33623e-09
2.47427e-09
3.11099e-09
2.64713e-09
3.33591e-09
2.68943e-09
2.56777e-09
2.80627e-09
3.40314e-09
2.98143e-09
3.67486e-09
3.29124e-09
3.35248e-09
3.76489e-09
3.06555e-09
2.97981e-09
3.43866e-09
3.33217e-09
3.21348e-09
6.98802e-09
3.56665e-09
2.56672e-09
2.81699e-09
3.43873e-09
3.0754e-09
3.85004e-09
3.03376e-09
2.94342e-09
3.47276e-09
3.82036e-09
3.38053e-09
4.37326e-09
3.7152e-09
3.90933e-09
4.31221e-09
3.59725e-09
3.47671e-09
4.14771e-09
4.05334e-09
3.75013e-09
7.43998e-09
4.47125e-09
2.96151e-09
3.52309e-09
4.00438e-09
3.76146e-09
4.60486e-09
3.71117e-09
3.77083e-09
4.54639e-09
4.60939e-09
3.84742e-09
5.40939e-09
4.42488e-09
4.55296e-09
4.81019e-09
4.40907e-09
4.25475e-09
5.33399e-09
4.97456e-09
4.63313e-09
8.09993e-09
5.473e-09
3.76672e-09
4.40838e-09
4.82015e-09
4.70712e-09
5.63749e-09
4.75898e-09
4.8581e-09
6.55708e-09
5.62475e-09
4.85778e-09
7.17535e-09
6.69225e-09
5.07076e-09
7.08974e-09
5.59292e-09
5.27929e-09
7.09629e-09
6.62858e-09
5.80508e-09
9.03577e-09
7.75525e-09
4.79946e-09
6.58453e-09
5.9596e-09
6.28382e-09
7.44743e-09
7.03682e-09
7.38321e-09
1.04152e-08
7.83659e-09
7.09857e-09
9.62541e-09
8.79782e-09
7.98749e-09
1.15957e-08
7.54454e-09
7.078e-09
9.87738e-09
8.62232e-09
8.55629e-09
1.17561e-08
1.11447e-08
7.29827e-09
9.4391e-09
7.81932e-09
8.32898e-09
1.03946e-08
1.13591e-08
1.17674e-08
1.63258e-08
1.06723e-08
9.24201e-09
1.3473e-08
1.11323e-08
1.27481e-08
1.49293e-08
1.07856e-08
9.33192e-09
1.37738e-08
1.23331e-08
1.19377e-08
1.30392e-08
1.50539e-08
1.0522e-08
1.64021e-08
1.10647e-08
1.18571e-08
1.40869e-08
1.77141e-08
1.81764e-08
2.75929e-08
1.41092e-08
1.23154e-08
1.89416e-08
1.59506e-08
1.67692e-08
2.67046e-08
1.50278e-08
1.31871e-08
1.95188e-08
1.61853e-08
1.7472e-08
1.76764e-08
2.10297e-08
1.82282e-08
2.42127e-08
1.59224e-08
1.57166e-08
2.08528e-08
3.00645e-08
3.0838e-08
4.44567e-08
2.03186e-08
1.75681e-08
2.38358e-08
2.09685e-08
2.86904e-08
4.03912e-08
2.16343e-08
1.81566e-08
2.61069e-08
2.33341e-08
2.12285e-08
2.40177e-08
2.26408e-08
2.76821e-08
4.38322e-08
2.16755e-08
2.29539e-08
2.63714e-08
3.76741e-08
4.9172e-08
7.96774e-08
2.7549e-08
2.16206e-08
3.44347e-08
3.35047e-08
4.33583e-08
9.30551e-08
2.98598e-08
2.43815e-08
3.92005e-08
3.00702e-08
2.49401e-08
4.68322e-08
3.73349e-08
4.63213e-08
5.99022e-08
3.13607e-08
2.97889e-08
4.17865e-08
8.67834e-08
8.11762e-08
8.05884e-08
3.49999e-08
3.99093e-08
3.85987e-08
4.5222e-08
1.20814e-07
1.48942e-07
3.9855e-08
3.37002e-08
4.1169e-08
4.34697e-08
3.98742e-08
6.27412e-08
4.51132e-08
6.79937e-08
1.09705e-07
4.25229e-08
4.21283e-08
4.31387e-08
9.26331e-08
8.98383e-08
1.88202e-07
4.43612e-08
4.47212e-08
6.58758e-08
4.54406e-08
1.39278e-07
8.82784e-08
4.41014e-08
4.58329e-08
6.50146e-08
5.47966e-08
4.75562e-08
5.01724e-08
5.5559e-08
1.17074e-07
1.41498e-07
4.40488e-08
5.46754e-08
6.53921e-08
1.54406e-07
1.92575e-07
1.77853e-07
6.68716e-08
4.8821e-08
6.56123e-08
7.2155e-08
9.53614e-08
2.2794e-07
6.80309e-08
5.89565e-08
7.12861e-08
7.23298e-08
5.84825e-08
8.32627e-08
7.05601e-08
1.53351e-07
2.06001e-07
7.26036e-08
7.19856e-08
8.05189e-08
2.15955e-07
1.81073e-07
2.7783e-07
6.62632e-08
7.53047e-08
9.43539e-08
9.22427e-08
2.48635e-07
2.90409e-07
7.33726e-08
7.5793e-08
9.20889e-08
8.96608e-08
7.41703e-08
1.19223e-07
9.12793e-08
2.17974e-07
2.71563e-07
8.11996e-08
8.95904e-08
8.78472e-08
2.49679e-07
3.02177e-07
3.55993e-07
1.05069e-07
1.01795e-07
1.18568e-07
1.18557e-07
3.06431e-07
3.75563e-07
9.81128e-08
9.71686e-08
1.11413e-07
1.13912e-07
9.91307e-08
1.27474e-07
1.14334e-07
2.85944e-07
3.52577e-07
9.58095e-08
1.14244e-07
1.13581e-07
3.69859e-07
3.65951e-07
4.32142e-07
1.21622e-07
1.2021e-07
1.40589e-07
1.28183e-07
3.81345e-07
3.89528e-07
1.16862e-07
1.16849e-07
1.38935e-07
1.36803e-07
1.17457e-07
1.29072e-07
1.38919e-07
3.66744e-07
4.20571e-07
1.17261e-07
1.35958e-07
1.39004e-07
4.17228e-07
4.51329e-07
4.89025e-07
1.47771e-07
1.37304e-07
1.6081e-07
1.65504e-07
4.02878e-07
5.06932e-07
1.46595e-07
1.46498e-07
1.61858e-07
1.70746e-07
1.46619e-07
1.64958e-07
1.59884e-07
4.40022e-07
5.09019e-07
1.46144e-07
1.71334e-07
1.59799e-07
4.97563e-07
4.99791e-07
5.7899e-07
1.65911e-07
1.7321e-07
1.9991e-07
2.02663e-07
5.26908e-07
5.9153e-07
1.66279e-07
1.74807e-07
1.98068e-07
1.96158e-07
1.67133e-07
2.02617e-07
2.02751e-07
5.22129e-07
5.67033e-07
1.67803e-07
1.92975e-07
2.01335e-07
5.77177e-07
5.98776e-07
6.40062e-07
2.12756e-07
2.13319e-07
2.37812e-07
2.35504e-07
6.04926e-07
6.36324e-07
2.11058e-07
2.09145e-07
2.37191e-07
2.39357e-07
2.12616e-07
2.32859e-07
2.28549e-07
5.83878e-07
6.43195e-07
2.10857e-07
2.41132e-07
2.27969e-07
6.33979e-07
6.4955e-07
6.80472e-07
2.41277e-07
2.39122e-07
2.61625e-07
2.61993e-07
6.47546e-07
6.79575e-07
2.40695e-07
2.4398e-07
2.58862e-07
2.5942e-07
2.34486e-07
2.66137e-07
2.68937e-07
6.54142e-07
6.81831e-07
2.34915e-07
2.61241e-07
2.70685e-07
6.96208e-07
6.96372e-07
7.56202e-07
2.75969e-07
2.74018e-07
3.16447e-07
3.10094e-07
6.93066e-07
7.52334e-07
2.74388e-07
2.75104e-07
3.19033e-07
3.25021e-07
2.83217e-07
3.07509e-07
3.14925e-07
6.95325e-07
7.51211e-07
2.84216e-07
3.18069e-07
3.12293e-07
7.456e-07
7.66918e-07
7.85644e-07
3.25644e-07
3.23074e-07
3.53885e-07
3.6044e-07
7.65765e-07
7.90117e-07
3.26914e-07
3.35489e-07
3.48867e-07
3.50822e-07
3.20503e-07
3.57833e-07
3.43717e-07
7.64636e-07
7.92516e-07
3.17272e-07
3.49141e-07
3.42977e-07
7.82382e-07
7.94264e-07
8.30136e-07
3.63584e-07
3.69081e-07
3.91529e-07
3.86861e-07
7.9864e-07
8.21575e-07
3.58516e-07
3.5605e-07
3.8938e-07
3.99274e-07
3.56631e-07
3.89427e-07
4.03602e-07
8.01781e-07
8.29241e-07
3.56764e-07
4.0175e-07
4.04043e-07
8.40432e-07
8.45382e-07
8.75571e-07
4.06313e-07
3.96629e-07
4.5464e-07
4.43445e-07
8.32122e-07
8.78804e-07
4.03998e-07
4.11927e-07
4.53045e-07
4.42123e-07
4.18368e-07
4.42396e-07
4.47598e-07
8.39889e-07
8.7054e-07
4.17274e-07
4.39102e-07
4.44347e-07
8.67661e-07
8.81477e-07
8.93339e-07
4.65513e-07
4.64854e-07
4.86426e-07
5.10325e-07
8.95744e-07
9.17678e-07
4.65249e-07
4.57662e-07
4.88272e-07
4.99846e-07
4.53279e-07
5.0617e-07
4.81386e-07
8.81717e-07
9.02873e-07
4.5331e-07
4.99665e-07
4.82496e-07
8.99853e-07
9.02004e-07
9.38621e-07
4.91642e-07
5.15125e-07
5.25575e-07
5.22847e-07
9.1917e-07
9.01215e-07
4.93078e-07
5.08443e-07
5.28844e-07
5.25108e-07
4.97881e-07
5.27639e-07
5.46735e-07
9.08874e-07
9.26958e-07
4.95112e-07
5.24484e-07
5.43157e-07
9.386e-07
9.50662e-07
9.76226e-07
5.48812e-07
5.26489e-07
6.11579e-07
5.79241e-07
9.07607e-07
9.90907e-07
5.50424e-07
5.37031e-07
6.00992e-07
6.0091e-07
5.57383e-07
5.78694e-07
5.77939e-07
9.38836e-07
9.80819e-07
5.54173e-07
5.9862e-07
5.81902e-07
9.63209e-07
9.83396e-07
1.00459e-06
6.25545e-07
6.14936e-07
6.53557e-07
6.64096e-07
1.01395e-06
1.01423e-06
6.11969e-07
6.17605e-07
6.38192e-07
6.45883e-07
5.92043e-07
6.59957e-07
6.48853e-07
9.88402e-07
9.96434e-07
5.97553e-07
6.47543e-07
6.45074e-07
1.00429e-06
1.01175e-06
1.01996e-06
6.58648e-07
6.66083e-07
6.6908e-07
6.76627e-07
1.0123e-06
9.99261e-07
6.45779e-07
6.51723e-07
6.77301e-07
6.70127e-07
6.62184e-07
6.76793e-07
6.79774e-07
1.00165e-06
1.02329e-06
6.54676e-07
6.70332e-07
6.71216e-07
1.02231e-06
1.02532e-06
1.0545e-06
6.78754e-07
6.82821e-07
7.24256e-07
7.18144e-07
1.01076e-06
1.06735e-06
6.91405e-07
6.85165e-07
7.30039e-07
7.41248e-07
6.85744e-07
7.21132e-07
7.34246e-07
1.03317e-06
1.06471e-06
6.84502e-07
7.39511e-07
7.42238e-07
1.0658e-06
1.0655e-06
1.0801e-06
7.39044e-07
7.39843e-07
7.78347e-07
7.88679e-07
1.07742e-06
1.09371e-06
7.41288e-07
7.54301e-07
7.72981e-07
7.75493e-07
7.50625e-07
7.88214e-07
7.78178e-07
1.07137e-06
1.08144e-06
7.55422e-07
7.74997e-07
7.76761e-07
1.0819e-06
1.08311e-06
1.09898e-06
7.85193e-07
7.99423e-07
8.0812e-07
8.2153e-07
1.09933e-06
1.11664e-06
7.79469e-07
7.81528e-07
8.06393e-07
8.11468e-07
7.82636e-07
8.19945e-07
8.13984e-07
1.08633e-06
1.10915e-06
7.80912e-07
8.13832e-07
8.10778e-07
1.11284e-06
1.11302e-06
1.16897e-06
8.23589e-07
8.26423e-07
8.79325e-07
8.51426e-07
1.12089e-06
1.12474e-06
8.22794e-07
8.21786e-07
8.75858e-07
8.60365e-07
8.28884e-07
8.50886e-07
8.57402e-07
1.1178e-06
1.13884e-06
8.26187e-07
8.60204e-07
8.56334e-07
1.13045e-06
1.1751e-06
1.16975e-06
8.9181e-07
8.60866e-07
9.04974e-07
8.80086e-07
1.12879e-06
1.14666e-06
8.88535e-07
8.74916e-07
9.05831e-07
9.00565e-07
8.61745e-07
8.76678e-07
9.00705e-07
1.14623e-06
1.16752e-06
8.60975e-07
8.9278e-07
8.99562e-07
1.17809e-06
1.17096e-06
1.17226e-06
9.0768e-07
8.90088e-07
9.20371e-07
9.41616e-07
1.15732e-06
1.20771e-06
9.09238e-07
9.06542e-07
9.21888e-07
9.29837e-07
9.19793e-07
9.49985e-07
9.3189e-07
1.17349e-06
1.18546e-06
9.18053e-07
9.37146e-07
9.29725e-07
1.17956e-06
1.17581e-06
1.19062e-06
9.24168e-07
9.53292e-07
9.51049e-07
9.63257e-07
1.21415e-06
1.20623e-06
9.25428e-07
9.35997e-07
9.46052e-07
9.47056e-07
9.28981e-07
9.62125e-07
9.31802e-07
1.18815e-06
1.18703e-06
9.27191e-07
9.48118e-07
9.31289e-07
1.15797e-06
1.19935e-06
1.22481e-06
9.64875e-07
9.65646e-07
9.86481e-07
9.7931e-07
1.20727e-06
1.21608e-06
9.57798e-07
9.51042e-07
9.82657e-07
9.90509e-07
9.41241e-07
9.77695e-07
1.00416e-06
1.19075e-06
1.23371e-06
9.41961e-07
9.84961e-07
1.00595e-06
1.2643e-06
1.23249e-06
1.27433e-06
9.92658e-07
9.84626e-07
1.03144e-06
1.02011e-06
1.22321e-06
1.2568e-06
9.92319e-07
1.00927e-06
1.03606e-06
1.04271e-06
1.02049e-06
1.02581e-06
1.04358e-06
1.24999e-06
1.28184e-06
1.02223e-06
1.04458e-06
1.04327e-06
1.2875e-06
1.28431e-06
1.29017e-06
1.04454e-06
1.03492e-06
1.06169e-06
1.05965e-06
1.26697e-06
1.28742e-06
1.04778e-06
1.04583e-06
1.05928e-06
1.04925e-06
1.04765e-06
1.05888e-06
1.05448e-06
1.28401e-06
1.27197e-06
1.04647e-06
1.04838e-06
1.05115e-06
1.28358e-06
1.29075e-06
1.27995e-06
1.0626e-06
1.06297e-06
1.06502e-06
1.06877e-06
1.29115e-06
1.29369e-06
1.05935e-06
1.05054e-06
1.06038e-06
1.06002e-06
1.05411e-06
1.06859e-06
1.05026e-06
1.27307e-06
1.27963e-06
1.0505e-06
1.05969e-06
1.04772e-06
1.25279e-06
1.28228e-06
1.29576e-06
1.06704e-06
1.0716e-06
1.07883e-06
1.09012e-06
1.29643e-06
1.30945e-06
1.06302e-06
1.06775e-06
1.07982e-06
1.09542e-06
1.05109e-06
1.08888e-06
1.07723e-06
1.28734e-06
1.31603e-06
1.04923e-06
1.09486e-06
1.08158e-06
1.2949e-06
1.30293e-06
1.33185e-06
1.08862e-06
1.09552e-06
1.12013e-06
1.104e-06
1.31395e-06
1.3149e-06
1.09096e-06
1.10178e-06
1.12105e-06
1.11389e-06
1.09524e-06
1.10739e-06
1.13017e-06
1.32106e-06
1.32562e-06
1.09893e-06
1.11415e-06
1.12973e-06
1.35219e-06
1.33719e-06
1.3412e-06
1.12611e-06
1.10698e-06
1.13259e-06
1.12684e-06
1.31737e-06
1.33541e-06
1.12592e-06
1.11645e-06
1.13036e-06
1.12282e-06
1.13484e-06
1.13047e-06
1.14051e-06
1.32739e-06
1.32994e-06
1.13369e-06
1.12433e-06
1.13724e-06
1.35819e-06
1.34436e-06
1.37738e-06
1.13462e-06
1.13586e-06
1.16189e-06
1.15957e-06
1.34395e-06
1.36699e-06
1.13211e-06
1.12904e-06
1.16013e-06
1.16292e-06
1.14186e-06
1.15719e-06
1.14686e-06
1.33622e-06
1.37522e-06
1.13766e-06
1.16206e-06
1.1451e-06
1.35248e-06
1.38747e-06
1.39067e-06
1.17274e-06
1.16519e-06
1.18322e-06
1.17494e-06
1.37159e-06
1.37766e-06
1.17134e-06
1.17058e-06
1.18232e-06
1.17534e-06
1.149e-06
1.16849e-06
1.1551e-06
1.38103e-06
1.37437e-06
1.14946e-06
1.17139e-06
1.15807e-06
1.35393e-06
1.39078e-06
1.35995e-06
1.18271e-06
1.17666e-06
1.16986e-06
1.18744e-06
1.38121e-06
1.39609e-06
1.18197e-06
1.17479e-06
1.17325e-06
1.1755e-06
1.16002e-06
1.19187e-06
1.1902e-06
1.3748e-06
1.37244e-06
1.16171e-06
1.17331e-06
1.1858e-06
1.3905e-06
1.36007e-06
1.36035e-06
1.16728e-06
1.19043e-06
1.16947e-06
1.19126e-06
1.40042e-06
1.39218e-06
1.17197e-06
1.17854e-06
1.17479e-06
1.20249e-06
1.19868e-06
1.2014e-06
1.20889e-06
1.37862e-06
1.41236e-06
1.19397e-06
1.20887e-06
1.20854e-06
1.41129e-06
1.37049e-06
1.44911e-06
1.17683e-06
1.19122e-06
1.24138e-06
1.19817e-06
1.39261e-06
1.39034e-06
1.18135e-06
1.21001e-06
1.22938e-06
1.2226e-06
1.2097e-06
1.19943e-06
1.21214e-06
1.41964e-06
1.4246e-06
1.21117e-06
1.22321e-06
1.21603e-06
1.41248e-06
1.46495e-06
1.47702e-06
1.25736e-06
1.20904e-06
1.26793e-06
1.24868e-06
1.39701e-06
1.44237e-06
1.24295e-06
1.22334e-06
1.25432e-06
1.22346e-06
1.213e-06
1.23166e-06
1.22524e-06
1.42527e-06
1.41118e-06
1.2168e-06
1.22039e-06
1.22503e-06
1.42263e-06
1.4763e-06
1.41102e-06
1.26567e-06
1.25499e-06
1.2301e-06
1.25582e-06
1.45195e-06
1.45353e-06
1.25333e-06
1.22396e-06
1.23183e-06
1.23537e-06
1.23339e-06
1.25527e-06
1.24741e-06
1.41261e-06
1.4283e-06
1.23151e-06
1.23588e-06
1.24359e-06
1.44107e-06
1.40799e-06
1.39476e-06
1.21922e-06
1.25182e-06
1.21246e-06
1.23637e-06
1.45328e-06
1.43174e-06
1.22623e-06
1.24062e-06
1.22561e-06
1.2523e-06
1.24837e-06
1.24761e-06
1.25127e-06
1.43579e-06
1.45261e-06
1.24458e-06
1.25755e-06
1.25157e-06
1.44562e-06
1.40248e-06
1.46022e-06
1.21475e-06
1.236e-06
1.2523e-06
1.24592e-06
1.4334e-06
1.44848e-06
1.23006e-06
1.25505e-06
1.2669e-06
1.26297e-06
1.25393e-06
1.25496e-06
1.25887e-06
1.45645e-06
1.45872e-06
1.25598e-06
1.2605e-06
1.26064e-06
1.4539e-06
1.47165e-06
1.4842e-06
1.26594e-06
1.25537e-06
1.28432e-06
1.26972e-06
1.45421e-06
1.46187e-06
1.27541e-06
1.26596e-06
1.28125e-06
1.27244e-06
1.25938e-06
1.26667e-06
1.26747e-06
1.46069e-06
1.46305e-06
1.26089e-06
1.26828e-06
1.26925e-06
1.46337e-06
1.48588e-06
1.48456e-06
1.28604e-06
1.27417e-06
1.29144e-06
1.29657e-06
1.46545e-06
1.49273e-06
1.28069e-06
1.27343e-06
1.28037e-06
1.27637e-06
1.27337e-06
1.28886e-06
1.28423e-06
1.46539e-06
1.46923e-06
1.27536e-06
1.27664e-06
1.2819e-06
1.4785e-06
1.48722e-06
1.4855e-06
1.29339e-06
1.30019e-06
1.29352e-06
1.29805e-06
1.49917e-06
1.48951e-06
1.28144e-06
1.27955e-06
1.28862e-06
1.29171e-06
1.28504e-06
1.29499e-06
1.2842e-06
1.47424e-06
1.48873e-06
1.28184e-06
1.29214e-06
1.28161e-06
1.471e-06
1.48592e-06
1.46605e-06
1.29059e-06
1.29093e-06
1.27743e-06
1.27858e-06
1.48762e-06
1.4651e-06
1.28876e-06
1.29277e-06
1.28479e-06
1.29158e-06
1.28358e-06
1.28145e-06
1.28427e-06
1.49099e-06
1.48383e-06
1.28224e-06
1.29188e-06
1.28708e-06
1.47754e-06
1.46713e-06
1.486e-06
1.27697e-06
1.27879e-06
1.28815e-06
1.2955e-06
1.46779e-06
1.49644e-06
1.28409e-06
1.29148e-06
1.28883e-06
1.29596e-06
1.28703e-06
1.2972e-06
1.30947e-06
1.48517e-06
1.49424e-06
1.29073e-06
1.29655e-06
1.30756e-06
1.51264e-06
1.49701e-06
1.51698e-06
1.29942e-06
1.30284e-06
1.31505e-06
1.30994e-06
1.50377e-06
1.50687e-06
1.29772e-06
1.30085e-06
1.31433e-06
1.30973e-06
1.31312e-06
1.30989e-06
1.31246e-06
1.49977e-06
1.50613e-06
1.31133e-06
1.30881e-06
1.31277e-06
1.51008e-06
1.5186e-06
1.50916e-06
1.31523e-06
1.31002e-06
1.31276e-06
1.31073e-06
1.508e-06
1.50707e-06
1.31463e-06
1.30995e-06
1.31115e-06
1.3093e-06
1.31017e-06
1.31028e-06
1.30941e-06
1.50734e-06
1.50414e-06
1.31184e-06
1.31002e-06
1.31229e-06
1.50814e-06
1.51049e-06
1.51167e-06
1.31263e-06
1.31227e-06
1.314e-06
1.31455e-06
1.51035e-06
1.51334e-06
1.31072e-06
1.30943e-06
1.31244e-06
1.31431e-06
1.31122e-06
1.31484e-06
1.31785e-06
1.50739e-06
1.51463e-06
1.31482e-06
1.31644e-06
1.31846e-06
1.52027e-06
1.51367e-06
1.50734e-06
1.31407e-06
1.31458e-06
1.31219e-06
1.31528e-06
1.51497e-06
1.51294e-06
1.3138e-06
1.31588e-06
1.31368e-06
1.31573e-06
1.3174e-06
1.31379e-06
1.30235e-06
1.51672e-06
1.50777e-06
1.31745e-06
1.31007e-06
1.29765e-06
1.48204e-06
1.50818e-06
1.50239e-06
1.31146e-06
1.31642e-06
1.3103e-06
1.31568e-06
1.51527e-06
1.51236e-06
1.31236e-06
1.31418e-06
1.30822e-06
1.30863e-06
1.29636e-06
1.31354e-06
1.29158e-06
1.50838e-06
1.50116e-06
1.29095e-06
1.30465e-06
1.28582e-06
1.46735e-06
1.50419e-06
1.51301e-06
1.30988e-06
1.31341e-06
1.31113e-06
1.30972e-06
1.51318e-06
1.50655e-06
1.30765e-06
1.30823e-06
1.31043e-06
1.31298e-06
1.29266e-06
1.31064e-06
1.32306e-06
1.5037e-06
1.52056e-06
1.28714e-06
1.31644e-06
1.32279e-06
1.53622e-06
1.52029e-06
1.54664e-06
1.31542e-06
1.31011e-06
1.33549e-06
1.32594e-06
1.50969e-06
1.53103e-06
1.3174e-06
1.32073e-06
1.3375e-06
1.33918e-06
1.33796e-06
1.32989e-06
1.36205e-06
1.52883e-06
1.55162e-06
1.34047e-06
1.34565e-06
1.37065e-06
1.59924e-06
1.5504e-06
1.53721e-06
1.33786e-06
1.33135e-06
1.3358e-06
1.3348e-06
1.5369e-06
1.53951e-06
1.33928e-06
1.34095e-06
1.33597e-06
1.33794e-06
1.36231e-06
1.33568e-06
1.34098e-06
1.55519e-06
1.54066e-06
1.37123e-06
1.34304e-06
1.34883e-06
1.5404e-06
1.53594e-06
1.50639e-06
1.33051e-06
1.33369e-06
1.31304e-06
1.31878e-06
1.54017e-06
1.51584e-06
1.32939e-06
1.33095e-06
1.30966e-06
1.30475e-06
1.32072e-06
1.31251e-06
1.28384e-06
1.53819e-06
1.49274e-06
1.32435e-06
1.29707e-06
1.27649e-06
1.45292e-06
1.50702e-06
1.51159e-06
1.30999e-06
1.31372e-06
1.3091e-06
1.30838e-06
1.51591e-06
1.5091e-06
1.30654e-06
1.30059e-06
1.30639e-06
1.30006e-06
1.28201e-06
1.30507e-06
1.29299e-06
1.493e-06
1.49864e-06
1.27351e-06
1.29397e-06
1.28379e-06
1.48993e-06
1.51856e-06
1.53548e-06
1.31146e-06
1.30868e-06
1.32284e-06
1.31759e-06
1.513e-06
1.52543e-06
1.31024e-06
1.3039e-06
1.32474e-06
1.32393e-06
1.30864e-06
1.32142e-06
1.33657e-06
1.5071e-06
1.53287e-06
1.30182e-06
1.32602e-06
1.33883e-06
1.55605e-06
1.53708e-06
1.51852e-06
1.32284e-06
1.31917e-06
1.31564e-06
1.31871e-06
1.5283e-06
1.52609e-06
1.32478e-06
1.32583e-06
1.31648e-06
1.32449e-06
1.33782e-06
1.32223e-06
1.3318e-06
1.53639e-06
1.53639e-06
1.34155e-06
1.33007e-06
1.33792e-06
1.54825e-06
1.51946e-06
1.53654e-06
1.3147e-06
1.31885e-06
1.32216e-06
1.32982e-06
1.52855e-06
1.54823e-06
1.31517e-06
1.3243e-06
1.32138e-06
1.32804e-06
1.32785e-06
1.32826e-06
1.32265e-06
1.53917e-06
1.54887e-06
1.33368e-06
1.33039e-06
1.32547e-06
1.53845e-06
1.54686e-06
1.55193e-06
1.32939e-06
1.33255e-06
1.3324e-06
1.33044e-06
1.55337e-06
1.54345e-06
1.32794e-06
1.32841e-06
1.33036e-06
1.32249e-06
1.32233e-06
1.32698e-06
1.31731e-06
1.5513e-06
1.52753e-06
1.32364e-06
1.31533e-06
1.31083e-06
1.52231e-06
1.55102e-06
1.49493e-06
1.32901e-06
1.32368e-06
1.29484e-06
1.29287e-06
1.54102e-06
1.49367e-06
1.32683e-06
1.31337e-06
1.29485e-06
1.29383e-06
1.31232e-06
1.29452e-06
1.29943e-06
1.52487e-06
1.49563e-06
1.30543e-06
1.29282e-06
1.29624e-06
1.50431e-06
1.4939e-06
1.48748e-06
1.28717e-06
1.28777e-06
1.28225e-06
1.28552e-06
1.49382e-06
1.49373e-06
1.28853e-06
1.29277e-06
1.28545e-06
1.29767e-06
1.29761e-06
1.28784e-06
1.29484e-06
1.49712e-06
1.51503e-06
1.29596e-06
1.29986e-06
1.2972e-06
1.50889e-06
1.49314e-06
1.52542e-06
1.28352e-06
1.28714e-06
1.30473e-06
1.30431e-06
1.49937e-06
1.52254e-06
1.28713e-06
1.30194e-06
1.30499e-06
1.30436e-06
1.29334e-06
1.3009e-06
1.28843e-06
1.52109e-06
1.52235e-06
1.29699e-06
1.30315e-06
1.29098e-06
1.49803e-06
1.53324e-06
1.54092e-06
1.31123e-06
1.30861e-06
1.31557e-06
1.31089e-06
1.52845e-06
1.53365e-06
1.30904e-06
1.30334e-06
1.31039e-06
1.29494e-06
1.28848e-06
1.30706e-06
1.3002e-06
1.52316e-06
1.50942e-06
1.29031e-06
1.29396e-06
1.29598e-06
1.51824e-06
1.54196e-06
1.51175e-06
1.31454e-06
1.30976e-06
1.29515e-06
1.29363e-06
1.53475e-06
1.51274e-06
1.30878e-06
1.29238e-06
1.29134e-06
1.28526e-06
1.30545e-06
1.29514e-06
1.30761e-06
1.51022e-06
1.50215e-06
1.30165e-06
1.28794e-06
1.30497e-06
1.5371e-06
1.51071e-06
1.49103e-06
1.28788e-06
1.28834e-06
1.27341e-06
1.27759e-06
1.51277e-06
1.50031e-06
1.28615e-06
1.28469e-06
1.27646e-06
1.28639e-06
1.3058e-06
1.28118e-06
1.28646e-06
1.50375e-06
1.51254e-06
1.30373e-06
1.28749e-06
1.28733e-06
1.50933e-06
1.49231e-06
1.49455e-06
1.27208e-06
1.2768e-06
1.27124e-06
1.2744e-06
1.5018e-06
1.4993e-06
1.27583e-06
1.28764e-06
1.27507e-06
1.28566e-06
1.28189e-06
1.27555e-06
1.26979e-06
1.51667e-06
1.51393e-06
1.28324e-06
1.28384e-06
1.27111e-06
1.48963e-06
1.49739e-06
1.49299e-06
1.27174e-06
1.27371e-06
1.26882e-06
1.26509e-06
1.50041e-06
1.48233e-06
1.27492e-06
1.2835e-06
1.26869e-06
1.26534e-06
1.26813e-06
1.26133e-06
1.25927e-06
1.51442e-06
1.48593e-06
1.26936e-06
1.26435e-06
1.26037e-06
1.4788e-06
1.49377e-06
1.46344e-06
1.26739e-06
1.26255e-06
1.23917e-06
1.23407e-06
1.48238e-06
1.45365e-06
1.26657e-06
1.26235e-06
1.23668e-06
1.23383e-06
1.25819e-06
1.23259e-06
1.23621e-06
1.48598e-06
1.45773e-06
1.25934e-06
1.23559e-06
1.23698e-06
1.46136e-06
1.44317e-06
1.20177e-06
1.19798e-06
1.43584e-06
1.19973e-06
1.19739e-06
7.58951e-07
7.57635e-07
7.60086e-07
1.20158e-06
1.4387e-06
1.20185e-06
2.54832e-11
2.12652e-09
1.61592e-10
1.90588e-10
5.55995e-09
2.91784e-09
9.76038e-09
1.91821e-09
5.49158e-09
3.5497e-09
1.03014e-09
2.69815e-09
5.32968e-09
3.18027e-09
7.90422e-09
7.32716e-09
1.71723e-07
5.85695e-09
2.72038e-07
1.55538e-06
3.05476e-06
8.7262e-09
1.69088e-07
7.36102e-09
2.67279e-07
1.87059e-09
1.30027e-09
1.70581e-09
1.42446e-09
1.8773e-09
1.27333e-09
1.69879e-09
4.77745e-09
9.3569e-08
3.71641e-09
3.58361e-09
5.07587e-09
7.02201e-08
3.69533e-09
1.44851e-06
2.93224e-06
4.75406e-09
2.79862e-09
7.21715e-08
3.39421e-09
5.01114e-09
2.77395e-09
5.16783e-08
2.13334e-07
2.2589e-07
4.91569e-09
1.82442e-07
1.89655e-07
1.68238e-08
4.84812e-07
1.19306e-08
7.07213e-07
6.94137e-06
9.94706e-06
1.80835e-08
4.82989e-07
1.33615e-08
6.92525e-07
1.86676e-09
1.25517e-09
1.67964e-09
1.3665e-09