/*--------------------------------*- C++ -*----------------------------------*\
| =========                 |                                                 |
| \\      /  F ield         | OpenFOAM: The Open Source CFD Toolbox           |
|  \\    /   O peration     | Version:  v2012                                 |
|   \\  /    A nd           | Website:  www.openfoam.com                      |
|    \\/     M anipulation  |                                                 |
\*---------------------------------------------------------------------------*/
FoamFile
{
    version     2.0;
    format      ascii;
    class       volScalarField;
    location    "1200";
    object      k;
}
// * * * * * * * * * * * * * * * * * * * * * * * * * * * * * * * * * * * * * //

dimensions      [0 2 -2 0 0 0 0];


internalField   nonuniform List<scalar> 
171728
(
1.51221e-07
2.56144e-07
3.36355e-07
3.54208e-07
1.50547e-07
2.45093e-07
3.19036e-07
3.39069e-07
1.47016e-07
2.3447e-07
3.01877e-07
3.26378e-07
1.43849e-07
2.24714e-07
2.86854e-07
3.1448e-07
1.4084e-07
2.1483e-07
2.73335e-07
2.99854e-07
1.37938e-07
2.04885e-07
2.59527e-07
2.74909e-07
1.34994e-07
1.95941e-07
2.48868e-07
2.53974e-07
1.32097e-07
1.88456e-07
2.43423e-07
2.4078e-07
1.29263e-07
1.82318e-07
2.39666e-07
2.30568e-07
1.26478e-07
1.77499e-07
2.3437e-07
2.21597e-07
1.23783e-07
1.73819e-07
2.263e-07
2.13198e-07
1.21003e-07
1.70913e-07
2.18072e-07
2.05586e-07
1.1835e-07
1.69171e-07
2.08534e-07
1.98778e-07
1.15871e-07
1.68742e-07
1.9884e-07
1.93583e-07
1.13531e-07
1.69347e-07
1.91043e-07
1.91567e-07
1.11142e-07
1.71387e-07
1.89734e-07
1.9476e-07
1.08807e-07
1.77814e-07
1.99304e-07
2.05551e-07
1.06643e-07
1.93274e-07
2.1191e-07
2.28981e-07
1.04426e-07
2.21601e-07
2.35059e-07
2.63634e-07
1.02535e-07
2.7091e-07
2.83674e-07
3.57725e-07
1.01056e-07
3.40432e-07
3.52565e-07
4.23909e-07
9.97943e-08
4.54333e-07
4.78356e-07
7.92888e-07
9.92705e-08
6.26877e-07
6.31829e-07
8.90435e-07
9.93092e-08
8.53996e-07
8.74234e-07
1.84804e-06
1.01563e-07
1.18133e-06
1.22783e-06
2.78248e-06
1.04423e-07
1.59369e-06
1.68803e-06
3.81048e-06
1.10493e-07
2.11687e-06
2.22229e-06
5.29429e-06
1.23478e-07
2.73986e-06
3.01305e-06
7.85791e-06
1.33161e-07
3.53566e-06
3.88294e-06
1.02547e-05
1.66378e-07
4.25765e-06
4.84613e-06
1.21685e-05
1.92182e-07
5.48276e-06
5.33388e-06
1.53851e-05
2.36903e-07
6.41303e-06
7.15619e-06
1.69008e-05
3.14324e-07
7.76779e-06
7.60014e-06
1.98435e-05
3.87241e-07
9.06432e-06
9.34297e-06
2.15293e-05
5.2289e-07
1.06655e-05
1.06029e-05
2.35562e-05
6.72876e-07
1.18941e-05
1.19689e-05
2.46983e-05
8.67321e-07
1.39347e-05
1.39319e-05
2.66808e-05
1.13406e-06
1.53492e-05
1.54175e-05
2.79845e-05
1.46206e-06
1.75214e-05
1.74477e-05
2.94537e-05
1.81753e-06
1.87372e-05
1.84497e-05
3.0425e-05
2.27508e-06
2.09899e-05
2.15482e-05
3.16074e-05
2.92818e-06
2.25846e-05
2.22987e-05
3.29614e-05
3.07385e-06
2.45756e-05
2.46397e-05
3.4011e-05
4.44429e-06
2.61129e-05
2.6427e-05
3.49216e-05
5.22939e-06
2.80114e-05
2.7594e-05
3.64343e-05
5.73903e-06
2.98093e-05
2.93987e-05
3.71147e-05
6.70613e-06
3.09292e-05
3.11055e-05
3.79558e-05
8.19679e-06
3.2585e-05
3.34574e-05
3.98873e-05
9.80291e-06
3.49432e-05
3.3632e-05
4.03651e-05
1.00065e-05
3.52917e-05
3.54979e-05
4.07549e-05
1.23773e-05
3.64659e-05
3.74977e-05
4.27209e-05
1.36472e-05
3.87185e-05
3.75605e-05
4.29902e-05
1.47327e-05
3.90243e-05
3.94133e-05
4.39659e-05
1.66184e-05
4.02155e-05
4.04319e-05
4.49235e-05
1.84864e-05
4.19561e-05
4.12722e-05
4.5738e-05
1.95624e-05
4.20312e-05
4.23906e-05
4.5848e-05
2.15752e-05
4.3602e-05
4.38868e-05
4.76347e-05
2.29885e-05
4.50109e-05
4.40495e-05
4.7996e-05
2.40161e-05
4.48512e-05
4.51683e-05
4.80571e-05
2.63868e-05
4.58104e-05
4.65335e-05
4.902e-05
2.7138e-05
4.76885e-05
4.66955e-05
5.06522e-05
2.84619e-05
4.81165e-05
4.82219e-05
5.07491e-05
3.00538e-05
4.77911e-05
4.84977e-05
4.9895e-05
3.05808e-05
4.92128e-05
4.84526e-05
5.18832e-05
3.24626e-05
5.04948e-05
5.06212e-05
5.32016e-05
3.4037e-05
5.05043e-05
5.09889e-05
5.25488e-05
3.44284e-05
5.08897e-05
5.07513e-05
5.24998e-05
3.52791e-05
5.18422e-05
5.1699e-05
5.38076e-05
3.68357e-05
5.22996e-05
5.27731e-05
5.42872e-05
3.7875e-05
5.29076e-05
5.29162e-05
5.45302e-05
3.80797e-05
5.37705e-05
5.30221e-05
5.56668e-05
3.9204e-05
5.38513e-05
5.41186e-05
5.5529e-05
4.05088e-05
5.36138e-05
5.42314e-05
5.47718e-05
4.08366e-05
5.35001e-05
5.39914e-05
5.50336e-05
4.12806e-05
5.52338e-05
5.49789e-05
5.65097e-05
4.27152e-05
5.63956e-05
5.59633e-05
5.76689e-05
4.33868e-05
5.6111e-05
5.55799e-05
5.73474e-05
4.31686e-05
5.49962e-05
5.51743e-05
5.58383e-05
4.33498e-05
5.50812e-05
5.64839e-05
5.64821e-05
4.52084e-05
5.71273e-05
5.68547e-05
5.85687e-05
4.54791e-05
5.73888e-05
5.5882e-05
5.81811e-05
4.49216e-05
5.62427e-05
5.58213e-05
5.65388e-05
4.52047e-05
5.61069e-05
5.80636e-05
5.77796e-05
4.69946e-05
5.79701e-05
5.86667e-05
5.99277e-05
4.68534e-05
5.76297e-05
5.57681e-05
5.7421e-05
4.50028e-05
5.54452e-05
5.45228e-05
5.51471e-05
4.53479e-05
5.68724e-05
5.82939e-05
5.93581e-05
4.86994e-05
5.91535e-05
6.01564e-05
6.13144e-05
4.84713e-05
5.75282e-05
5.6686e-05
5.7179e-05
4.55127e-05
5.56382e-05
5.45424e-05
5.56769e-05
4.52717e-05
5.62611e-05
5.66351e-05
5.79657e-05
4.69344e-05
5.70533e-05
5.80102e-05
5.86967e-05
4.71562e-05
5.67473e-05
5.69226e-05
5.79647e-05
4.71896e-05
5.72056e-05
5.66926e-05
5.86628e-05
4.73423e-05
5.67432e-05
5.63966e-05
5.91142e-05
3.66829e-07
3.04494e-07
3.03267e-07
3.54587e-07
2.94752e-07
3.19877e-07
1.49183e-07
1.42913e-07
1.86231e-07
1.63525e-07
2.89404e-07
2.9299e-07
3.6151e-07
3.20508e-07
3.99179e-07
3.55187e-07
3.6591e-07
3.43732e-07
2.55595e-07
2.48691e-07
2.46642e-07
2.41378e-07
3.53641e-07
3.32393e-07
2.57369e-07
3.58932e-07
2.4848e-07
3.54281e-07
2.5643e-07
2.47884e-07
2.46507e-07
3.60142e-07
3.42083e-07
4.94414e-07
3.23652e-07
4.93045e-07
3.41568e-07
3.42494e-07
3.21539e-07
2.43373e-07
2.37915e-07
2.34629e-07
2.27378e-07
3.31192e-07
3.11136e-07
2.45473e-07
3.52309e-07
2.36824e-07
3.4896e-07
2.43125e-07
2.37058e-07
2.33481e-07
3.39658e-07
3.23708e-07
4.91024e-07
3.06024e-07
4.85571e-07
3.28759e-07
3.20415e-07
3.01721e-07
2.31924e-07
2.24225e-07
2.24814e-07
2.15893e-07
3.10109e-07
2.9268e-07
2.34069e-07
3.48642e-07
2.26266e-07
3.48536e-07
2.30404e-07
2.27105e-07
2.21758e-07
3.20991e-07
3.07445e-07
4.80133e-07
2.90385e-07
4.71041e-07
3.16597e-07
3.00774e-07
2.84275e-07
2.22398e-07
2.13272e-07
2.15267e-07
2.05917e-07
2.91772e-07
2.7596e-07
2.23783e-07
3.48629e-07
2.16873e-07
3.49963e-07
2.19111e-07
2.17325e-07
2.11593e-07
3.04884e-07
2.932e-07
4.6841e-07
2.76682e-07
4.29663e-07
3.0218e-07
2.83494e-07
2.68793e-07
2.12953e-07
2.03692e-07
2.06717e-07
1.97564e-07
2.75123e-07
2.60632e-07
2.14705e-07
3.52016e-07
2.08557e-07
3.67147e-07
2.09286e-07
2.07231e-07
2.03197e-07
2.91185e-07
2.87247e-07
4.05692e-07
2.62953e-07
3.26026e-07
2.76757e-07
2.68116e-07
2.54961e-07
2.04762e-07
1.95738e-07
1.99023e-07
1.90695e-07
2.59923e-07
2.47168e-07
2.06663e-07
3.76981e-07
2.01501e-07
4.12545e-07
2.01493e-07
1.98044e-07
1.97041e-07
2.87071e-07
2.89969e-07
3.01467e-07
2.50936e-07
2.45139e-07
2.54864e-07
2.54375e-07
2.42737e-07
1.97117e-07
1.89071e-07
1.91123e-07
1.84167e-07
2.46627e-07
2.35399e-07
1.99947e-07
4.24097e-07
1.95591e-07
4.75676e-07
1.95828e-07
1.90121e-07
1.92464e-07
2.89837e-07
3.00071e-07
2.32941e-07
2.44506e-07
2.12285e-07
2.41274e-07
2.42288e-07
2.3223e-07
1.89083e-07
1.82471e-07
1.83359e-07
1.77252e-07
2.34987e-07
2.24849e-07
1.94325e-07
5.03039e-07
1.91169e-07
6.03373e-07
1.91384e-07
1.83768e-07
1.88338e-07
3.00741e-07
3.25008e-07
2.08827e-07
2.40642e-07
2.0244e-07
2.30901e-07
2.31983e-07
2.2303e-07
1.81629e-07
1.75565e-07
1.77308e-07
1.70906e-07
2.24571e-07
2.14994e-07
1.90295e-07
6.33629e-07
1.88269e-07
6.82142e-07
1.87296e-07
1.7853e-07
1.84132e-07
3.25581e-07
3.40721e-07
2.00939e-07
2.35881e-07
1.97321e-07
2.21848e-07
2.22858e-07
2.13894e-07
1.76118e-07
1.69532e-07
1.73007e-07
1.65558e-07
2.14846e-07
2.06585e-07
1.87765e-07
6.84374e-07
1.86572e-07
6.33234e-07
1.83165e-07
1.74544e-07
1.80124e-07
3.3952e-07
2.9922e-07
1.96162e-07
2.28506e-07
1.92435e-07
2.13367e-07
2.1378e-07
2.06037e-07
1.72121e-07
1.64235e-07
1.69796e-07
1.60889e-07
2.06534e-07
1.98508e-07
1.86401e-07
5.58731e-07
1.86275e-07
3.70034e-07
1.79118e-07
1.71579e-07
1.76832e-07
2.86163e-07
2.36781e-07
1.91175e-07
2.20112e-07
1.86754e-07
2.05669e-07
2.06036e-07
1.99984e-07
1.691e-07
1.60008e-07
1.67566e-07
1.58303e-07
1.98523e-07
1.91858e-07
1.8636e-07
3.202e-07
1.87033e-07
2.23345e-07
1.75892e-07
1.69451e-07
1.7381e-07
2.33917e-07
2.08766e-07
1.85159e-07
2.11041e-07
1.80811e-07
1.98714e-07
2.00121e-07
1.95579e-07
1.67088e-07
1.57955e-07
1.6634e-07
1.57129e-07
1.92019e-07
1.86942e-07
1.87271e-07
2.07468e-07
1.88194e-07
1.84397e-07
1.73424e-07
1.68724e-07
1.72034e-07
2.07467e-07
1.95226e-07
1.79306e-07
2.00737e-07
1.77249e-07
1.93302e-07
1.95896e-07
1.93235e-07
1.66303e-07
1.57095e-07
1.66833e-07
1.57675e-07
1.87304e-07
1.83649e-07
1.88637e-07
1.80872e-07
1.90309e-07
1.74344e-07
1.71898e-07
1.69137e-07
1.72624e-07
1.95179e-07
1.89909e-07
1.773e-07
1.93723e-07
1.78819e-07
1.90728e-07
1.94047e-07
1.93706e-07
1.67222e-07
1.58273e-07
1.69278e-07
1.6125e-07
1.84368e-07
1.83036e-07
1.91095e-07
1.7358e-07
1.94419e-07
1.74142e-07
1.73221e-07
1.70512e-07
1.77801e-07
1.90438e-07
1.90214e-07
1.79781e-07
1.89267e-07
1.85189e-07
1.92743e-07
1.95326e-07
1.99136e-07
1.70662e-07
1.62906e-07
1.76822e-07
1.69954e-07
1.84622e-07
1.87107e-07
1.9592e-07
1.75686e-07
2.02679e-07
1.83745e-07
1.79615e-07
1.75493e-07
1.87274e-07
1.91763e-07
1.95641e-07
1.88316e-07
1.95955e-07
2.02552e-07
2.0149e-07
2.02623e-07
2.1288e-07
1.79724e-07
1.73697e-07
1.9135e-07
1.87092e-07
1.90314e-07
2.00115e-07
2.05537e-07
1.87389e-07
2.17593e-07
2.02158e-07
1.92204e-07
1.88363e-07
2.02858e-07
1.99092e-07
2.10748e-07
2.07341e-07
2.09578e-07
2.37233e-07
2.20509e-07
2.19198e-07
2.41786e-07
1.95963e-07
1.92845e-07
2.15833e-07
2.17027e-07
2.06318e-07
2.30994e-07
2.22595e-07
2.0742e-07
2.42432e-07
2.30611e-07
2.10654e-07
2.13807e-07
2.3443e-07
2.17054e-07
2.39337e-07
2.47215e-07
2.28796e-07
2.72691e-07
2.52431e-07
2.53397e-07
3.00096e-07
2.24309e-07
2.25718e-07
2.57269e-07
2.60938e-07
2.42551e-07
2.88685e-07
2.51125e-07
2.39718e-07
2.84121e-07
2.75225e-07
2.4096e-07
2.54692e-07
2.94123e-07
2.51259e-07
2.98314e-07
2.90655e-07
2.69157e-07
3.33227e-07
3.32158e-07
3.21783e-07
4.10017e-07
2.72831e-07
2.78599e-07
3.25089e-07
3.26791e-07
3.11708e-07
3.92039e-07
2.99312e-07
2.88818e-07
3.50358e-07
3.45747e-07
3.16684e-07
3.16194e-07
3.56354e-07
3.19923e-07
4.09176e-07
3.4558e-07
3.33863e-07
3.89812e-07
4.08242e-07
4.43991e-07
6.10043e-07
3.47737e-07
3.51816e-07
4.30892e-07
4.38535e-07
4.23437e-07
6.11632e-07
3.72553e-07
3.6393e-07
4.52214e-07
4.5252e-07
3.74632e-07
4.22917e-07
5.10542e-07
4.42563e-07
6.16464e-07
4.07584e-07
4.51019e-07
5.19303e-07
6.8238e-07
6.72195e-07
9.46234e-07
4.67299e-07
4.70915e-07
5.73449e-07
6.01545e-07
6.6962e-07
9.78475e-07
4.89574e-07
4.82085e-07
5.92746e-07
5.92113e-07
5.55148e-07
5.83757e-07
6.16621e-07
6.82092e-07
9.089e-07
5.58347e-07
5.75101e-07
6.03027e-07
8.74801e-07
1.02589e-06
1.56419e-06
6.26242e-07
6.46013e-07
7.98894e-07
8.14605e-07
1.0793e-06
1.49687e-06
6.44151e-07
6.50637e-07
8.1848e-07
8.25061e-07
6.60977e-07
7.91032e-07
8.90019e-07
1.0193e-06
1.58146e-06
6.26752e-07
8.12894e-07
9.05782e-07
1.61737e-06
1.69794e-06
2.38108e-06
8.53003e-07
8.76948e-07
1.11211e-06
1.1075e-06
1.64127e-06
2.35452e-06
8.72985e-07
8.76818e-07
1.12932e-06
1.12174e-06
9.40579e-07
1.08398e-06
1.20083e-06
1.69e-06
2.34283e-06
9.58956e-07
1.13623e-06
1.32589e-06
2.49245e-06
2.61411e-06
3.57596e-06
1.20993e-06
1.20974e-06
1.45723e-06
1.52679e-06
2.57232e-06
3.67721e-06
1.22146e-06
1.20666e-06
1.48353e-06
1.51647e-06
1.3362e-06
1.49677e-06
1.52764e-06
2.60225e-06
3.55603e-06
1.50714e-06
1.54231e-06
1.72033e-06
3.77625e-06
3.81153e-06
5.1945e-06
1.57139e-06
1.62084e-06
2.02139e-06
1.99334e-06
3.93862e-06
5.09802e-06
1.59886e-06
1.65302e-06
2.05026e-06
1.96399e-06
1.56573e-06
1.96153e-06
1.9955e-06
3.82068e-06
5.27684e-06
1.73465e-06
2.04887e-06
2.06497e-06
4.73247e-06
5.57953e-06
7.04276e-06
2.10971e-06
2.15139e-06
2.56187e-06
2.61674e-06
5.46926e-06
7.27718e-06
2.1383e-06
2.10804e-06
2.56525e-06
2.68639e-06
2.17499e-06
2.57952e-06
2.63147e-06
5.56353e-06
7.28934e-06
2.22196e-06
2.87007e-06
2.61419e-06
7.47128e-06
7.43883e-06
9.88578e-06
2.85004e-06
2.77439e-06
3.32395e-06
3.3713e-06
7.68852e-06
9.5517e-06
2.86478e-06
2.81505e-06
3.36458e-06
3.24157e-06
2.82578e-06
3.33196e-06
3.43132e-06
7.85295e-06
9.37166e-06
2.86599e-06
3.53652e-06
3.46393e-06
9.80496e-06
1.01677e-05
1.13259e-05
3.37731e-06
3.57392e-06
4.15716e-06
4.10096e-06
1.00237e-05
1.18051e-05
3.41601e-06
3.54909e-06
4.18647e-06
4.35181e-06
3.54644e-06
4.05933e-06
4.04515e-06
9.78242e-06
1.25963e-05
3.57034e-06
4.77076e-06
4.16034e-06
1.16967e-05
1.21801e-05
1.50771e-05
4.52889e-06
4.30958e-06
5.14558e-06
5.20439e-06
1.22457e-05
1.44545e-05
4.53358e-06
4.43414e-06
5.19584e-06
4.83697e-06
4.42292e-06
5.17506e-06
5.26751e-06
1.30161e-05
1.37681e-05
4.50149e-06
5.03406e-06
5.31228e-06
1.48709e-05
1.53378e-05
1.64637e-05
5.35666e-06
5.517e-06
6.21313e-06
6.22757e-06
1.50657e-05
1.69018e-05
5.41342e-06
5.26472e-06
6.21726e-06
6.67846e-06
5.35349e-06
6.18988e-06
6.15673e-06
1.42473e-05
1.75409e-05
5.45227e-06
6.86259e-06
6.14752e-06
1.64467e-05
1.70512e-05
1.90588e-05
6.45103e-06
6.45097e-06
7.34529e-06
7.39585e-06
1.72856e-05
1.88867e-05
6.44934e-06
6.8741e-06
7.41941e-06
7.10898e-06
6.56903e-06
7.35931e-06
7.47191e-06
1.81524e-05
1.87838e-05
6.58164e-06
7.44011e-06
7.77164e-06
1.93572e-05
1.95025e-05
2.11858e-05
7.77608e-06
7.81791e-06
8.79802e-06
8.83139e-06
1.94203e-05
2.1255e-05
7.88709e-06
7.3707e-06
8.84025e-06
8.96836e-06
7.72031e-06
8.76985e-06
8.74368e-06
1.90051e-05
2.11005e-05
7.99373e-06
8.86556e-06
8.94477e-06
2.10461e-05
2.16189e-05
2.28177e-05
9.0505e-06
9.11113e-06
1.01355e-05
1.02625e-05
2.16762e-05
2.29924e-05
9.03333e-06
9.43027e-06
1.01893e-05
1.0257e-05
9.21234e-06
1.02358e-05
1.04759e-05
2.1806e-05
2.31162e-05
9.51668e-06
1.03038e-05
1.0846e-05
2.32701e-05
2.32258e-05
2.47103e-05
1.055e-05
1.0704e-05
1.17189e-05
1.17185e-05
2.34015e-05
2.45534e-05
1.06246e-05
1.05319e-05
1.17286e-05
1.16461e-05
1.0658e-05
1.16622e-05
1.14421e-05
2.33918e-05
2.44721e-05
1.09621e-05
1.16036e-05
1.12831e-05
2.43077e-05
2.51149e-05
2.61973e-05
1.21582e-05
1.19777e-05
1.3391e-05
1.33254e-05
2.48899e-05
2.61445e-05
1.21274e-05
1.20544e-05
1.33942e-05
1.35223e-05
1.20202e-05
1.33199e-05
1.36071e-05
2.48873e-05
2.62163e-05
1.17782e-05
1.34958e-05
1.36181e-05
2.63341e-05
2.65231e-05
2.75819e-05
1.37078e-05
1.39507e-05
1.50112e-05
1.50644e-05
2.657e-05
2.77004e-05
1.38375e-05
1.39359e-05
1.51772e-05
1.4846e-05
1.38534e-05
1.49961e-05
1.48483e-05
2.65891e-05
2.7623e-05
1.40181e-05
1.48522e-05
1.51539e-05
2.76164e-05
2.79429e-05
2.89964e-05
1.54862e-05
1.53889e-05
1.68997e-05
1.70854e-05
2.80029e-05
2.90309e-05
1.54973e-05
1.54409e-05
1.67287e-05
1.73494e-05
1.55179e-05
1.70686e-05
1.74901e-05
2.79778e-05
2.90572e-05
1.56786e-05
1.72301e-05
1.70159e-05
2.91799e-05
2.93136e-05
3.01629e-05
1.74317e-05
1.75353e-05
1.85033e-05
1.83789e-05
2.93508e-05
3.00723e-05
1.74146e-05
1.75657e-05
1.89094e-05
1.79665e-05
1.7879e-05
1.83567e-05
1.88872e-05
2.92865e-05
2.98991e-05
1.72949e-05
1.79727e-05
1.85133e-05
3.01628e-05
3.04158e-05
3.1385e-05
1.87277e-05
1.87876e-05
2.02639e-05
2.04769e-05
3.03367e-05
3.14639e-05
1.91057e-05
1.84716e-05
2.03849e-05
2.09558e-05
1.91341e-05
2.04469e-05
2.01065e-05
3.02432e-05
3.1691e-05
1.89238e-05
2.08412e-05
2.01759e-05
3.12742e-05
3.17814e-05
3.27204e-05
2.10184e-05
2.10238e-05
2.2632e-05
2.23324e-05
3.18045e-05
3.25726e-05
2.11588e-05
2.16905e-05
2.26657e-05
2.2474e-05
2.07831e-05
2.22605e-05
2.24729e-05
3.19827e-05
3.24196e-05
2.08297e-05
2.22471e-05
2.22917e-05
3.27172e-05
3.28582e-05
3.32114e-05
2.28508e-05
2.26433e-05
2.33936e-05
2.38811e-05
3.2804e-05
3.36943e-05
2.27434e-05
2.25227e-05
2.3047e-05
2.36487e-05
2.27937e-05
2.39246e-05
2.43548e-05
3.25859e-05
3.36496e-05
2.25477e-05
2.36245e-05
2.40957e-05
3.3735e-05
3.35263e-05
3.52919e-05
2.38474e-05
2.45135e-05
2.62176e-05
2.59808e-05
3.40145e-05
3.48888e-05
2.36314e-05
2.45995e-05
2.63844e-05
2.68359e-05
2.48872e-05
2.59212e-05
2.56171e-05
3.4123e-05
3.52027e-05
2.46779e-05
2.63321e-05
2.55275e-05
3.47072e-05
3.56438e-05
3.60852e-05
2.69072e-05
2.62045e-05
2.75762e-05
2.74334e-05
3.50785e-05
3.58434e-05
2.72016e-05
2.7119e-05
2.8221e-05
2.73448e-05
2.58689e-05
2.73964e-05
2.75965e-05
3.53348e-05
3.56007e-05
2.57944e-05
2.68402e-05
2.75067e-05
3.60837e-05
3.61725e-05
3.6804e-05
2.7679e-05
2.80184e-05
2.92078e-05
2.93778e-05
3.61696e-05
3.72274e-05
2.82607e-05
2.75406e-05
2.88344e-05
2.9018e-05
2.83525e-05
2.94165e-05
2.95941e-05
3.58266e-05
3.6992e-05
2.8267e-05
2.92659e-05
2.96106e-05
3.70415e-05
3.71539e-05
3.79652e-05
2.97687e-05
2.9782e-05
3.05824e-05
3.07987e-05
3.74205e-05
3.78979e-05
2.9401e-05
2.92863e-05
3.0429e-05
3.06062e-05
2.96493e-05
3.07597e-05
2.99413e-05
3.71622e-05
3.79602e-05
2.96814e-05
3.04609e-05
2.99226e-05
3.75858e-05
3.81411e-05
3.93946e-05
3.08614e-05
3.09797e-05
3.26101e-05
3.20019e-05
3.80574e-05
3.89236e-05
3.08204e-05
3.12573e-05
3.27396e-05
3.31563e-05
3.05356e-05
3.19648e-05
3.28233e-05
3.83419e-05
3.96415e-05
3.04265e-05
3.30793e-05
3.27856e-05
3.96151e-05
3.97444e-05
4.02343e-05
3.32697e-05
3.26043e-05
3.40941e-05
3.45337e-05
3.92724e-05
4.06756e-05
3.34066e-05
3.35174e-05
3.42075e-05
3.36823e-05
3.34358e-05
3.44955e-05
3.43646e-05
3.97887e-05
3.97109e-05
3.34074e-05
3.36414e-05
3.43278e-05
4.03157e-05
4.02685e-05
4.06696e-05
3.41231e-05
3.4981e-05
3.47066e-05
3.53022e-05
4.08915e-05
4.09937e-05
3.42136e-05
3.36686e-05
3.44471e-05
3.45384e-05
3.43929e-05
3.52986e-05
3.44538e-05
3.97376e-05
4.0862e-05
3.43537e-05
3.45373e-05
3.44183e-05
4.04882e-05
4.1076e-05
4.24765e-05
3.53611e-05
3.52911e-05
3.68673e-05
3.57649e-05
4.1012e-05
4.15649e-05
3.50878e-05
3.54997e-05
3.71053e-05
3.73654e-05
3.47401e-05
3.56712e-05
3.7014e-05
4.1397e-05
4.26851e-05
3.46991e-05
3.73175e-05
3.70885e-05
4.25232e-05
4.262e-05
4.27865e-05
3.71547e-05
3.66247e-05
3.76362e-05
3.84131e-05
4.20304e-05
4.35216e-05
3.73985e-05
3.75883e-05
3.76345e-05
3.76774e-05
3.72966e-05
3.83737e-05
3.77581e-05
4.27719e-05
4.26236e-05
3.7468e-05
3.75334e-05
3.77472e-05
4.28854e-05
4.28891e-05
4.37536e-05
3.78829e-05
3.87208e-05
3.90208e-05
3.89637e-05
4.3672e-05
4.37535e-05
3.77554e-05
3.7702e-05
3.88683e-05
3.88893e-05
3.80633e-05
3.90017e-05
3.89595e-05
4.26677e-05
4.38658e-05
3.78763e-05
3.89359e-05
3.88222e-05
4.37908e-05
4.40142e-05
4.47521e-05
3.93493e-05
3.8981e-05
4.00569e-05
3.95956e-05
4.37824e-05
4.43116e-05
3.92551e-05
3.93619e-05
4.0183e-05
4.02837e-05
3.91725e-05
3.9697e-05
4.00363e-05
4.41918e-05
4.48183e-05
3.90945e-05
4.01863e-05
4.00978e-05
4.46586e-05
4.49166e-05
4.55593e-05
4.0344e-05
4.01062e-05
4.13089e-05
4.16464e-05
4.46411e-05
4.5909e-05
4.05231e-05
4.05635e-05
4.13555e-05
4.11837e-05
4.04637e-05
4.16958e-05
4.15197e-05
4.49342e-05
4.53659e-05
4.05553e-05
4.11141e-05
4.14633e-05
4.56849e-05
4.57003e-05
4.6082e-05
4.15407e-05
4.19677e-05
4.20586e-05
4.21539e-05
4.6056e-05
4.59737e-05
4.14753e-05
4.13011e-05
4.19731e-05
4.20205e-05
4.16352e-05
4.20409e-05
4.17455e-05
4.54871e-05
4.61014e-05
4.15141e-05
4.19967e-05
4.16107e-05
4.56965e-05
4.62798e-05
4.73078e-05
4.23416e-05
4.21467e-05
4.3481e-05
4.28189e-05
4.59883e-05
4.69476e-05
4.23446e-05
4.24416e-05
4.36192e-05
4.36699e-05
4.18943e-05
4.28675e-05
4.33262e-05
4.6379e-05
4.74069e-05
4.18513e-05
4.36314e-05
4.35252e-05
4.73318e-05
4.74421e-05
4.73927e-05
4.37214e-05
4.35175e-05
4.39585e-05
4.4848e-05
4.73873e-05
4.83426e-05
4.3836e-05
4.38719e-05
4.39283e-05
4.39406e-05
4.38386e-05
4.49249e-05
4.46186e-05
4.75105e-05
4.73877e-05
4.39863e-05
4.40486e-05
4.45298e-05
4.79877e-05
4.74267e-05
4.84919e-05
4.40893e-05
4.4949e-05
4.501e-05
4.48581e-05
4.83792e-05
4.79525e-05
4.39406e-05
4.39422e-05
4.49668e-05
4.48007e-05
4.46545e-05
4.4892e-05
4.47406e-05
4.74072e-05
4.82931e-05
4.45281e-05
4.46483e-05
4.45012e-05
4.79138e-05
4.88113e-05
4.93488e-05
4.54061e-05
4.48318e-05
4.61684e-05
4.53939e-05
4.79597e-05
4.87264e-05
4.55297e-05
4.53734e-05
4.63997e-05
4.64824e-05
4.4881e-05
4.52537e-05
4.54749e-05
4.86374e-05
4.94806e-05
4.46034e-05
4.63865e-05
4.56375e-05
4.87829e-05
4.9371e-05
4.94463e-05
4.62217e-05
4.59356e-05
4.64171e-05
4.71896e-05
4.90664e-05
5.03303e-05
4.64576e-05
4.65862e-05
4.65873e-05
4.66164e-05
4.58418e-05
4.73122e-05
4.73212e-05
4.95366e-05
4.9442e-05
4.60494e-05
4.66211e-05
4.73116e-05
5.03942e-05
4.96466e-05
5.0541e-05
4.67547e-05
4.75176e-05
4.79564e-05
4.80969e-05
5.05684e-05
5.07831e-05
4.67668e-05
4.66534e-05
4.7518e-05
4.76649e-05
4.7727e-05
4.81294e-05
4.81624e-05
4.95091e-05
5.06749e-05
4.76341e-05
4.78629e-05
4.80623e-05
5.07884e-05
5.06565e-05
5.06139e-05
4.82067e-05
4.81049e-05
4.83461e-05
4.79453e-05
5.07589e-05
5.01124e-05
4.77653e-05
4.80572e-05
4.80817e-05
4.85423e-05
4.81462e-05
4.78114e-05
4.77487e-05
5.09026e-05
5.09697e-05
4.80543e-05
4.85309e-05
4.77307e-05
4.98951e-05
5.06225e-05
5.11995e-05
4.83131e-05
4.79283e-05
4.8388e-05
4.84529e-05
5.01259e-05
5.13888e-05
4.81184e-05
4.85307e-05
4.87859e-05
4.8457e-05
4.77056e-05
4.84843e-05
4.83384e-05
5.09459e-05
5.07297e-05
4.76844e-05
4.83736e-05
4.82595e-05
5.13031e-05
5.15418e-05
5.2837e-05
4.86872e-05
4.90625e-05
5.0246e-05
5.02725e-05
5.18356e-05
5.26813e-05
4.92653e-05
4.85445e-05
5.04791e-05
5.02399e-05
4.9218e-05
5.03915e-05
5.06687e-05
5.09274e-05
5.28014e-05
4.91061e-05
5.01772e-05
5.06833e-05
5.31753e-05
5.2929e-05
5.26248e-05
5.05341e-05
5.04523e-05
5.0785e-05
5.05943e-05
5.27016e-05
5.24324e-05
5.06585e-05
5.06538e-05
5.07016e-05
5.09574e-05
5.07745e-05
5.05076e-05
5.07392e-05
5.30413e-05
5.29783e-05
5.08371e-05
5.09998e-05
5.08422e-05
5.25863e-05
5.2592e-05
5.23866e-05
5.07763e-05
5.05986e-05
5.06778e-05
5.07159e-05
5.24394e-05
5.28012e-05
5.0625e-05
5.09355e-05
5.04737e-05
5.06609e-05
5.06519e-05
5.06314e-05
5.05581e-05
5.29368e-05
5.24679e-05
5.07451e-05
5.07651e-05
5.05571e-05
5.23823e-05
5.25192e-05
5.3986e-05
5.06901e-05
5.09077e-05
5.15971e-05
5.16714e-05
5.30113e-05
5.37673e-05
5.05065e-05
5.06527e-05
5.17452e-05
5.124e-05
5.05823e-05
5.16908e-05
5.14232e-05
5.24938e-05
5.35326e-05
5.05632e-05
5.11883e-05
5.12842e-05
5.3578e-05
5.42767e-05
5.46151e-05
5.20498e-05
5.1884e-05
5.27274e-05
5.2334e-05
5.38609e-05
5.40121e-05
5.2215e-05
5.17934e-05
5.28177e-05
5.27201e-05
5.17362e-05
5.21853e-05
5.2405e-05
5.38733e-05
5.45445e-05
5.17024e-05
5.26199e-05
5.25013e-05
5.4247e-05
5.46061e-05
5.40713e-05
5.27701e-05
5.24675e-05
5.26861e-05
5.28482e-05
5.40638e-05
5.45045e-05
5.28403e-05
5.28543e-05
5.271e-05
5.29429e-05
5.25084e-05
5.27002e-05
5.26641e-05
5.45814e-05
5.4441e-05
5.2648e-05
5.29213e-05
5.28426e-05
5.43967e-05
5.40476e-05
5.4273e-05
5.26237e-05
5.29911e-05
5.26907e-05
5.34845e-05
5.46623e-05
5.52952e-05
5.25885e-05
5.2917e-05
5.25317e-05
5.27991e-05
5.28223e-05
5.36189e-05
5.38047e-05
5.44413e-05
5.44653e-05
5.29472e-05
5.29223e-05
5.35857e-05
5.55196e-05
5.45221e-05
5.57179e-05
5.29642e-05
5.36139e-05
5.40363e-05
5.36936e-05
5.53669e-05
5.52285e-05
5.26448e-05
5.2828e-05
5.3904e-05
5.37893e-05
5.40348e-05
5.38642e-05
5.41606e-05
5.4596e-05
5.55877e-05
5.37856e-05
5.39334e-05
5.39343e-05
5.55759e-05
5.58216e-05
5.56979e-05
5.41548e-05
5.36767e-05
5.4173e-05
5.35016e-05
5.52132e-05
5.48663e-05
5.41727e-05
5.41076e-05
5.44225e-05
5.4452e-05
5.41039e-05
5.37085e-05
5.36225e-05
5.57443e-05
5.57883e-05
5.39095e-05
5.42498e-05
5.36231e-05
5.48027e-05
5.5673e-05
5.53447e-05
5.4114e-05
5.34362e-05
5.39237e-05
5.3429e-05
5.48554e-05
5.48699e-05
5.44167e-05
5.44492e-05
5.42206e-05
5.41933e-05
5.34862e-05
5.34653e-05
5.33501e-05
5.57667e-05
5.53152e-05
5.35514e-05
5.40007e-05
5.35483e-05
5.48521e-05
5.53622e-05
5.62453e-05
5.39356e-05
5.36007e-05
5.48035e-05
5.49913e-05
5.50302e-05
5.6486e-05
5.4196e-05
5.41245e-05
5.44597e-05
5.4254e-05
5.33976e-05
5.47406e-05
5.45875e-05
5.53143e-05
5.59581e-05
5.36986e-05
5.45406e-05
5.48327e-05
5.62604e-05
5.65225e-05
5.71803e-05
5.52043e-05
5.54076e-05
5.59141e-05
5.62352e-05
5.6795e-05
5.76425e-05
5.48729e-05
5.46355e-05
5.57418e-05
5.58105e-05
5.50458e-05
5.62618e-05
5.62043e-05
5.62531e-05
5.72801e-05
5.51679e-05
5.58778e-05
5.6043e-05
5.75215e-05
5.72021e-05
5.6726e-05
5.59678e-05
5.63141e-05
5.5831e-05
5.616e-05
5.76914e-05
5.71892e-05
5.58309e-05
5.59483e-05
5.57814e-05
5.58904e-05
5.6441e-05
5.63534e-05
5.65251e-05
5.73367e-05
5.67743e-05
5.62176e-05
5.58391e-05
5.62481e-05
5.75168e-05
5.66452e-05
5.60918e-05
5.56164e-05
5.58674e-05
5.50822e-05
5.50621e-05
5.70551e-05
5.6028e-05
5.56278e-05
5.56695e-05
5.51671e-05
5.52232e-05
5.63512e-05
5.52086e-05
5.51669e-05
5.66338e-05
5.60771e-05
5.60709e-05
5.51646e-05
5.50994e-05
5.59482e-05
5.60928e-05
5.70166e-05
5.50347e-05
5.49135e-05
5.54448e-05
5.49895e-05
5.59555e-05
5.62222e-05
5.51365e-05
5.52278e-05
5.56174e-05
5.60592e-05
5.48975e-05
5.48954e-05
5.47795e-05
5.61404e-05
5.76338e-05
5.49278e-05
5.60744e-05
5.50128e-05
5.61053e-05
5.73426e-05
5.83424e-05
5.59893e-05
5.54085e-05
5.71262e-05
5.69513e-05
5.65391e-05
5.81843e-05
5.61304e-05
5.6475e-05
5.70588e-05
5.68704e-05
5.49962e-05
5.67461e-05
5.68758e-05
5.78871e-05
5.80748e-05
5.54546e-05
5.68829e-05
5.7049e-05
5.83773e-05
5.83766e-05
5.76709e-05
5.72331e-05
5.72301e-05
5.70674e-05
5.73598e-05
5.83611e-05
5.8397e-05
5.71061e-05
5.68393e-05
5.67925e-05
5.61144e-05
5.72771e-05
5.74353e-05
5.75083e-05
5.79505e-05
5.66786e-05
5.729e-05
5.6132e-05
5.72789e-05
5.83835e-05
5.75255e-05
5.68057e-05
5.67561e-05
5.7239e-05
5.60192e-05
5.63303e-05
5.82914e-05
5.7214e-05
5.64906e-05
5.5893e-05
5.59512e-05
5.57779e-05
5.73868e-05
5.6523e-05
5.61638e-05
5.65649e-05
5.67169e-05
5.69809e-05
5.5695e-05
5.58215e-05
5.66358e-05
5.68048e-05
5.77304e-05
5.59415e-05
5.61073e-05
5.62041e-05
5.59772e-05
5.71149e-05
5.69533e-05
5.5939e-05
5.59502e-05
5.66547e-05
5.75808e-05
5.59239e-05
5.60176e-05
5.59645e-05
5.7025e-05
5.90654e-05
5.57068e-05
5.75247e-05
5.61717e-05
5.73342e-05
5.80458e-05
5.93299e-05
5.67153e-05
5.61191e-05
5.80355e-05
5.76739e-05
5.71515e-05
5.8871e-05
5.71504e-05
5.80468e-05
5.81984e-05
5.85761e-05
5.63815e-05
5.76133e-05
5.82258e-05
5.93586e-05
5.99205e-05
5.69406e-05
5.87191e-05
5.85853e-05
5.98396e-05
5.94041e-05
5.82164e-05
5.8198e-05
5.80232e-05
5.79275e-05
5.80885e-05
5.90853e-05
5.88582e-05
5.82582e-05
5.85141e-05
5.74903e-05
5.65403e-05
5.84005e-05
5.80079e-05
5.78228e-05
5.97739e-05
5.68273e-05
5.8664e-05
5.66265e-05
5.7513e-05
5.79796e-05
5.78409e-05
5.58722e-05
5.72885e-05
5.77518e-05
5.5458e-05
5.57367e-05
5.8521e-05
5.62731e-05
5.67462e-05
5.57482e-05
5.51205e-05
5.45085e-05
5.68795e-05
5.5673e-05
5.49583e-05
5.63892e-05
5.49915e-05
5.64534e-05
5.45015e-05
5.4679e-05
5.51397e-05
5.58088e-05
5.76259e-05
5.52455e-05
5.5454e-05
5.57346e-05
5.57476e-05
5.61567e-05
5.74576e-05
5.50077e-05
5.45211e-05
5.60529e-05
5.69441e-05
5.48925e-05
5.5888e-05
5.65024e-05
5.50659e-05
5.88924e-05
5.46635e-05
5.70507e-05
5.68727e-05
5.86274e-05
5.82706e-05
6.07691e-05
5.67922e-05
5.66362e-05
5.9241e-05
5.89759e-05
5.80575e-05
6.03307e-05
5.72488e-05
5.82135e-05
5.95986e-05
6.02487e-05
5.77765e-05
5.90148e-05
5.96672e-05
5.95829e-05
6.16847e-05
5.81667e-05
6.01464e-05
5.99428e-05
6.13508e-05
6.08558e-05
5.89867e-05
5.94472e-05
5.91592e-05
5.88261e-05
5.8564e-05
6.03902e-05
5.87325e-05
5.97555e-05
6.02826e-05
5.87926e-05
5.8238e-05
5.96799e-05
5.84219e-05
5.7814e-05
6.16818e-05
5.81161e-05
5.99308e-05
5.79408e-05
5.75798e-05
5.77293e-05
5.84463e-05
5.6268e-05
5.77928e-05
5.76557e-05
5.56312e-05
5.5817e-05
5.82999e-05
5.66321e-05
5.76132e-05
5.69089e-05
5.53557e-05
5.46944e-05
5.67738e-05
5.57965e-05
5.51397e-05
5.74591e-05
5.52509e-05
5.64405e-05
5.46178e-05
5.47397e-05
5.56368e-05
5.62287e-05
5.71249e-05
5.54203e-05
5.56491e-05
5.55948e-05
5.5824e-05
5.66158e-05
5.73549e-05
5.51715e-05
5.46068e-05
5.55098e-05
5.56678e-05
5.50848e-05
5.58187e-05
5.58891e-05
5.52559e-05
5.74863e-05
5.47037e-05
5.57094e-05
5.58854e-05
5.76014e-05
5.74443e-05
5.81987e-05
5.60944e-05
5.62606e-05
5.70247e-05
5.70029e-05
5.76162e-05
5.81651e-05
5.61431e-05
5.65613e-05
5.71405e-05
5.77778e-05
5.65173e-05
5.70308e-05
5.7382e-05
5.79723e-05
5.91796e-05
5.66431e-05
5.7978e-05
5.77149e-05
5.87109e-05
5.81994e-05
5.76628e-05
5.70583e-05
5.70197e-05
5.68289e-05
5.67631e-05
5.81541e-05
5.75865e-05
5.71709e-05
5.77929e-05
5.68512e-05
5.70351e-05
5.73971e-05
5.67979e-05
5.70656e-05
5.91777e-05
5.78601e-05
5.77427e-05
5.72842e-05
5.73061e-05
5.79819e-05
5.7652e-05
5.82254e-05
5.67847e-05
5.67218e-05
5.69402e-05
5.69045e-05
5.7579e-05
5.822e-05
5.67645e-05
5.67314e-05
5.68528e-05
5.65483e-05
5.70038e-05
5.68985e-05
5.71176e-05
5.77056e-05
5.76314e-05
5.71487e-05
5.66322e-05
5.71177e-05
5.84625e-05
5.84435e-05
5.92258e-05
5.72374e-05
5.7221e-05
5.78071e-05
5.77759e-05
5.84445e-05
5.92043e-05
5.71167e-05
5.66533e-05
5.77526e-05
5.74282e-05
5.73865e-05
5.7786e-05
5.78993e-05
5.78177e-05
5.8798e-05
5.72651e-05
5.73081e-05
5.77149e-05
5.92787e-05
5.91649e-05
5.67886e-05
5.67318e-05
5.91182e-05
5.67739e-05
5.65161e-05
4.73203e-05
4.69991e-05
4.72182e-05
5.67584e-05
5.87946e-05
5.66059e-05
6.8135e-08
2.32116e-07
5.00291e-08
6.47402e-08
2.88185e-07
2.79422e-07
1.20072e-07
1.21969e-07
2.69447e-07
3.27096e-07
1.44595e-07
3.51632e-07
3.62253e-07
2.15823e-07
2.98925e-07
3.09177e-07
4.87632e-06
2.69527e-07
6.50364e-06
1.36412e-05
2.06802e-05
3.59003e-07
4.82811e-06
3.21234e-07
6.46141e-06
1.44688e-07
1.88449e-07
1.6644e-07
1.51416e-07
1.44864e-07
1.88746e-07
1.66377e-07
2.68537e-07
5.02498e-07
2.19854e-07
2.53557e-07
2.75899e-07
4.87478e-07
2.19256e-07
1.36956e-05
2.14453e-05
2.52656e-07
2.60057e-07
7.32022e-07
3.32726e-07
2.57954e-07
2.58408e-07
7.04178e-07
1.8516e-06
1.91336e-06
3.48864e-07
1.8249e-06
1.89326e-06
4.93825e-07
9.55066e-06
4.12509e-07
1.22373e-05
3.51419e-05
4.50601e-05
5.50169e-07
9.54287e-06
4.63879e-07
1.22219e-05
1.43993e-07
1.87908e-07
1.64966e-07
1.47858e-07