/*--------------------------------*- C++ -*----------------------------------*\
| =========                 |                                                 |
| \\      /  F ield         | OpenFOAM: The Open Source CFD Toolbox           |
|  \\    /   O peration     | Version:  v2012                                 |
|   \\  /    A nd           | Website:  www.openfoam.com                      |
|    \\/     M anipulation  |                                                 |
\*---------------------------------------------------------------------------*/
FoamFile
{
    version     2.0;
    format      ascii;
    class       volScalarField;
    location    "1950.5";
    object      p;
}
// * * * * * * * * * * * * * * * * * * * * * * * * * * * * * * * * * * * * * //

dimensions      [0 2 -2 0 0 0 0];


internalField   nonuniform List<scalar> 
247104
(
2.44028e-07
2.44017e-07
2.44103e-07
2.44186e-07
2.4422e-07
2.44178e-07
2.44099e-07
2.44019e-07
2.44017e-07
2.44153e-07
2.44335e-07
2.4442e-07
2.44439e-07
2.44414e-07
2.44317e-07
2.44136e-07
2.44103e-07
2.44335e-07
2.44458e-07
2.44487e-07
2.4449e-07
2.44486e-07
2.4445e-07
2.44309e-07
2.44096e-07
2.44186e-07
2.4442e-07
2.44487e-07
2.44487e-07
2.44483e-07
2.44488e-07
2.44484e-07
2.44401e-07
2.44158e-07
2.44028e-07
2.4422e-07
2.44439e-07
2.4449e-07
2.44483e-07
2.44476e-07
2.44484e-07
2.44489e-07
2.44423e-07
2.44188e-07
2.44178e-07
2.44414e-07
2.44486e-07
2.44488e-07
2.44484e-07
2.44489e-07
2.44483e-07
2.44394e-07
2.44151e-07
2.44099e-07
2.44317e-07
2.4445e-07
2.44484e-07
2.44489e-07
2.44483e-07
2.44441e-07
2.4429e-07
2.44095e-07
2.44019e-07
2.44136e-07
2.44309e-07
2.44401e-07
2.44423e-07
2.44394e-07
2.44291e-07
2.44125e-07
2.44096e-07
2.44158e-07
2.44188e-07
2.44152e-07
2.44095e-07
2.41133e-07
2.41104e-07
2.41035e-07
2.40792e-07
2.40809e-07
2.40844e-07
2.40861e-07
2.41119e-07
2.41096e-07
2.41035e-07
2.4081e-07
2.40594e-07
2.40589e-07
2.40589e-07
2.40594e-07
2.4093e-07
2.40936e-07
2.40792e-07
2.40594e-07
2.40567e-07
2.40577e-07
2.40577e-07
2.40567e-07
2.40594e-07
2.41167e-07
2.41202e-07
2.41133e-07
2.40809e-07
2.40589e-07
2.40577e-07
2.40585e-07
2.40585e-07
2.40577e-07
2.40589e-07
2.41208e-07
2.41223e-07
2.41104e-07
2.40844e-07
2.40589e-07
2.40577e-07
2.40585e-07
2.40585e-07
2.40577e-07
2.40589e-07
2.41188e-07
2.41001e-07
2.40861e-07
2.40594e-07
2.40567e-07
2.40577e-07
2.40577e-07
2.40567e-07
2.40594e-07
2.4118e-07
2.41261e-07
2.41119e-07
2.4093e-07
2.40594e-07
2.40589e-07
2.40589e-07
2.40594e-07
2.41233e-07
2.41095e-07
2.4117e-07
2.41096e-07
2.40936e-07
2.41167e-07
2.41208e-07
2.41188e-07
2.4118e-07
2.41095e-07
2.41316e-07
2.41202e-07
2.41223e-07
2.41001e-07
2.41261e-07
2.4117e-07
2.38434e-07
2.38426e-07
2.38388e-07
2.38175e-07
2.38189e-07
2.38225e-07
2.38237e-07
2.38437e-07
2.38427e-07
2.38388e-07
2.38198e-07
2.3793e-07
2.37932e-07
2.37932e-07
2.3793e-07
2.38279e-07
2.38297e-07
2.38175e-07
2.3793e-07
2.37938e-07
2.37937e-07
2.37937e-07
2.37938e-07
2.3793e-07
2.38491e-07
2.38491e-07
2.38434e-07
2.38189e-07
2.37932e-07
2.37937e-07
2.37938e-07
2.37938e-07
2.37937e-07
2.37932e-07
2.38519e-07
2.38488e-07
2.38426e-07
2.38225e-07
2.37932e-07
2.37937e-07
2.37938e-07
2.37938e-07
2.37937e-07
2.37932e-07
2.38497e-07
2.38356e-07
2.38237e-07
2.3793e-07
2.37938e-07
2.37937e-07
2.37937e-07
2.37938e-07
2.3793e-07
2.38497e-07
2.38509e-07
2.38437e-07
2.38279e-07
2.3793e-07
2.37932e-07
2.37932e-07
2.3793e-07
2.38507e-07
2.38425e-07
2.38478e-07
2.38427e-07
2.38297e-07
2.38491e-07
2.38519e-07
2.38497e-07
2.38497e-07
2.38425e-07
2.38581e-07
2.38491e-07
2.38488e-07
2.38356e-07
2.38509e-07
2.38478e-07
2.35854e-07
2.35846e-07
2.35807e-07
2.35594e-07
2.35608e-07
2.35644e-07
2.35656e-07
2.35858e-07
2.35847e-07
2.35807e-07
2.35619e-07
2.35356e-07
2.35356e-07
2.35356e-07
2.35356e-07
2.357e-07
2.35716e-07
2.35594e-07
2.35356e-07
2.35357e-07
2.35357e-07
2.35357e-07
2.35357e-07
2.35356e-07
2.35913e-07
2.35912e-07
2.35854e-07
2.35608e-07
2.35356e-07
2.35357e-07
2.35357e-07
2.35357e-07
2.35357e-07
2.35356e-07
2.3594e-07
2.3591e-07
2.35846e-07
2.35644e-07
2.35356e-07
2.35357e-07
2.35357e-07
2.35357e-07
2.35357e-07
2.35356e-07
2.35918e-07
2.35775e-07
2.35656e-07
2.35356e-07
2.35357e-07
2.35357e-07
2.35357e-07
2.35357e-07
2.35356e-07
2.35918e-07
2.35931e-07
2.35858e-07
2.357e-07
2.35356e-07
2.35356e-07
2.35356e-07
2.35356e-07
2.35933e-07
2.35846e-07
2.35899e-07
2.35847e-07
2.35716e-07
2.35913e-07
2.3594e-07
2.35918e-07
2.35918e-07
2.35846e-07
2.36003e-07
2.35912e-07
2.3591e-07
2.35775e-07
2.35931e-07
2.35899e-07
2.33273e-07
2.33265e-07
2.33226e-07
2.33013e-07
2.33027e-07
2.33062e-07
2.33075e-07
2.33277e-07
2.33266e-07
2.33226e-07
2.33037e-07
2.32774e-07
2.32774e-07
2.32774e-07
2.32774e-07
2.33119e-07
2.33135e-07
2.33013e-07
2.32774e-07
2.32775e-07
2.32774e-07
2.32774e-07
2.32775e-07
2.32774e-07
2.33332e-07
2.33331e-07
2.33273e-07
2.33027e-07
2.32774e-07
2.32774e-07
2.32775e-07
2.32775e-07
2.32774e-07
2.32774e-07
2.33359e-07
2.33329e-07
2.33265e-07
2.33062e-07
2.32774e-07
2.32774e-07
2.32775e-07
2.32775e-07
2.32774e-07
2.32774e-07
2.33336e-07
2.33195e-07
2.33075e-07
2.32774e-07
2.32775e-07
2.32774e-07
2.32774e-07
2.32775e-07
2.32774e-07
2.33336e-07
2.33351e-07
2.33277e-07
2.33119e-07
2.32774e-07
2.32774e-07
2.32774e-07
2.32774e-07
2.33352e-07
2.33265e-07
2.33319e-07
2.33266e-07
2.33135e-07
2.33332e-07
2.33359e-07
2.33336e-07
2.33337e-07
2.33265e-07
2.33423e-07
2.33331e-07
2.33329e-07
2.33195e-07
2.33351e-07
2.33319e-07
2.30691e-07
2.30683e-07
2.30644e-07
2.3043e-07
2.30445e-07
2.3048e-07
2.30493e-07
2.30695e-07
2.30684e-07
2.30644e-07
2.30455e-07
2.30192e-07
2.30191e-07
2.30191e-07
2.30192e-07
2.30537e-07
2.30553e-07
2.3043e-07
2.30192e-07
2.30192e-07
2.30191e-07
2.30191e-07
2.30192e-07
2.30192e-07
2.3075e-07
2.30749e-07
2.30691e-07
2.30445e-07
2.30191e-07
2.30191e-07
2.30192e-07
2.30192e-07
2.30191e-07
2.30191e-07
2.30777e-07
2.30747e-07
2.30683e-07
2.3048e-07
2.30191e-07
2.30191e-07
2.30192e-07
2.30192e-07
2.30191e-07
2.30191e-07
2.30754e-07
2.30613e-07
2.30493e-07
2.30192e-07
2.30192e-07
2.30191e-07
2.30191e-07
2.30192e-07
2.30192e-07
2.30754e-07
2.30769e-07
2.30695e-07
2.30537e-07
2.30192e-07
2.30191e-07
2.30191e-07
2.30192e-07
2.30769e-07
2.30683e-07
2.30736e-07
2.30684e-07
2.30553e-07
2.3075e-07
2.30777e-07
2.30754e-07
2.30754e-07
2.30683e-07
2.30841e-07
2.30749e-07
2.30747e-07
2.30613e-07
2.30769e-07
2.30737e-07
2.28109e-07
2.28101e-07
2.28062e-07
2.27848e-07
2.27862e-07
2.27898e-07
2.2791e-07
2.28113e-07
2.28102e-07
2.28062e-07
2.27873e-07
2.27609e-07
2.27609e-07
2.27609e-07
2.27609e-07
2.27954e-07
2.2797e-07
2.27848e-07
2.27609e-07
2.2761e-07
2.27609e-07
2.27609e-07
2.2761e-07
2.27609e-07
2.28168e-07
2.28167e-07
2.28109e-07
2.27862e-07
2.27609e-07
2.27609e-07
2.27609e-07
2.27609e-07
2.27609e-07
2.27609e-07
2.28195e-07
2.28165e-07
2.28101e-07
2.27898e-07
2.27609e-07
2.27609e-07
2.27609e-07
2.27609e-07
2.27609e-07
2.27609e-07
2.28172e-07
2.2803e-07
2.2791e-07
2.27609e-07
2.2761e-07
2.27609e-07
2.27609e-07
2.2761e-07
2.27609e-07
2.28172e-07
2.28186e-07
2.28113e-07
2.27954e-07
2.27609e-07
2.27609e-07
2.27609e-07
2.27609e-07
2.28187e-07
2.281e-07
2.28154e-07
2.28102e-07
2.2797e-07
2.28168e-07
2.28195e-07
2.28172e-07
2.28172e-07
2.28101e-07
2.28259e-07
2.28167e-07
2.28165e-07
2.2803e-07
2.28186e-07
2.28154e-07
2.25527e-07
2.25519e-07
2.2548e-07
2.25266e-07
2.2528e-07
2.25316e-07
2.25328e-07
2.25531e-07
2.2552e-07
2.2548e-07
2.2529e-07
2.25027e-07
2.25027e-07
2.25027e-07
2.25027e-07
2.25372e-07
2.25388e-07
2.25266e-07
2.25027e-07
2.25027e-07
2.25026e-07
2.25026e-07
2.25027e-07
2.25027e-07
2.25585e-07
2.25585e-07
2.25527e-07
2.2528e-07
2.25027e-07
2.25026e-07
2.25027e-07
2.25027e-07
2.25026e-07
2.25027e-07
2.25613e-07
2.25583e-07
2.25519e-07
2.25316e-07
2.25027e-07
2.25026e-07
2.25027e-07
2.25027e-07
2.25026e-07
2.25027e-07
2.2559e-07
2.25448e-07
2.25328e-07
2.25027e-07
2.25027e-07
2.25026e-07
2.25026e-07
2.25027e-07
2.25027e-07
2.2559e-07
2.25604e-07
2.25531e-07
2.25372e-07
2.25027e-07
2.25027e-07
2.25027e-07
2.25027e-07
2.25605e-07
2.25518e-07
2.25572e-07
2.2552e-07
2.25388e-07
2.25585e-07
2.25613e-07
2.2559e-07
2.2559e-07
2.25518e-07
2.25677e-07
2.25585e-07
2.25583e-07
2.25448e-07
2.25604e-07
2.25572e-07
2.22944e-07
2.22936e-07
2.22897e-07
2.22683e-07
2.22698e-07
2.22733e-07
2.22746e-07
2.22948e-07
2.22937e-07
2.22897e-07
2.22708e-07
2.22445e-07
2.22444e-07
2.22444e-07
2.22445e-07
2.2279e-07
2.22806e-07
2.22683e-07
2.22445e-07
2.22445e-07
2.22444e-07
2.22444e-07
2.22445e-07
2.22445e-07
2.23003e-07
2.23002e-07
2.22944e-07
2.22698e-07
2.22444e-07
2.22444e-07
2.22444e-07
2.22444e-07
2.22444e-07
2.22444e-07
2.2303e-07
2.23e-07
2.22936e-07
2.22733e-07
2.22444e-07
2.22444e-07
2.22444e-07
2.22444e-07
2.22444e-07
2.22444e-07
2.23007e-07
2.22866e-07
2.22746e-07
2.22445e-07
2.22445e-07
2.22444e-07
2.22444e-07
2.22445e-07
2.22445e-07
2.23007e-07
2.23022e-07
2.22948e-07
2.2279e-07
2.22445e-07
2.22444e-07
2.22444e-07
2.22445e-07
2.23022e-07
2.22936e-07
2.2299e-07
2.22938e-07
2.22806e-07
2.23003e-07
2.2303e-07
2.23007e-07
2.23007e-07
2.22936e-07
2.23094e-07
2.23003e-07
2.23e-07
2.22866e-07
2.23022e-07
2.2299e-07
2.20362e-07
2.20354e-07
2.20315e-07
2.20101e-07
2.20115e-07
2.20151e-07
2.20163e-07
2.20366e-07
2.20355e-07
2.20315e-07
2.20126e-07
2.19862e-07
2.19862e-07
2.19862e-07
2.19862e-07
2.20207e-07
2.20223e-07
2.20101e-07
2.19862e-07
2.19862e-07
2.19861e-07
2.19861e-07
2.19862e-07
2.19862e-07
2.2042e-07
2.2042e-07
2.20362e-07
2.20115e-07
2.19862e-07
2.19861e-07
2.19861e-07
2.19861e-07
2.19861e-07
2.19862e-07
2.20448e-07
2.20418e-07
2.20354e-07
2.20151e-07
2.19862e-07
2.19861e-07
2.19861e-07
2.19861e-07
2.19861e-07
2.19862e-07
2.20425e-07
2.20283e-07
2.20163e-07
2.19862e-07
2.19862e-07
2.19861e-07
2.19861e-07
2.19862e-07
2.19862e-07
2.20425e-07
2.20439e-07
2.20366e-07
2.20207e-07
2.19862e-07
2.19862e-07
2.19862e-07
2.19862e-07
2.2044e-07
2.20353e-07
2.20407e-07
2.20355e-07
2.20223e-07
2.2042e-07
2.20448e-07
2.20425e-07
2.20425e-07
2.20353e-07
2.20512e-07
2.2042e-07
2.20418e-07
2.20283e-07
2.20439e-07
2.20407e-07
2.17779e-07
2.17771e-07
2.17732e-07
2.17518e-07
2.17533e-07
2.17568e-07
2.17581e-07
2.17783e-07
2.17772e-07
2.17732e-07
2.17543e-07
2.17279e-07
2.17279e-07
2.17279e-07
2.17279e-07
2.17625e-07
2.17641e-07
2.17518e-07
2.17279e-07
2.1728e-07
2.17279e-07
2.17279e-07
2.1728e-07
2.17279e-07
2.17838e-07
2.17837e-07
2.17779e-07
2.17533e-07
2.17279e-07
2.17279e-07
2.17279e-07
2.17279e-07
2.17279e-07
2.17279e-07
2.17865e-07
2.17835e-07
2.17771e-07
2.17568e-07
2.17279e-07
2.17279e-07
2.17279e-07
2.17279e-07
2.17279e-07
2.17279e-07
2.17842e-07
2.177e-07
2.17581e-07
2.17279e-07
2.1728e-07
2.17279e-07
2.17279e-07
2.1728e-07
2.17279e-07
2.17842e-07
2.17857e-07
2.17783e-07
2.17625e-07
2.17279e-07
2.17279e-07
2.17279e-07
2.17279e-07
2.17857e-07
2.17771e-07
2.17824e-07
2.17772e-07
2.17641e-07
2.17838e-07
2.17865e-07
2.17842e-07
2.17842e-07
2.17771e-07
2.17929e-07
2.17837e-07
2.17835e-07
2.177e-07
2.17857e-07
2.17825e-07
2.15197e-07
2.15189e-07
2.1515e-07
2.14936e-07
2.1495e-07
2.14985e-07
2.14998e-07
2.15201e-07
2.1519e-07
2.1515e-07
2.1496e-07
2.14697e-07
2.14696e-07
2.14696e-07
2.14697e-07
2.15042e-07
2.15058e-07
2.14936e-07
2.14697e-07
2.14697e-07
2.14696e-07
2.14696e-07
2.14697e-07
2.14697e-07
2.15255e-07
2.15255e-07
2.15197e-07
2.1495e-07
2.14696e-07
2.14696e-07
2.14696e-07
2.14696e-07
2.14696e-07
2.14696e-07
2.15282e-07
2.15253e-07
2.15189e-07
2.14985e-07
2.14696e-07
2.14696e-07
2.14696e-07
2.14696e-07
2.14696e-07
2.14696e-07
2.1526e-07
2.15118e-07
2.14998e-07
2.14697e-07
2.14697e-07
2.14696e-07
2.14696e-07
2.14697e-07
2.14697e-07
2.1526e-07
2.15274e-07
2.15201e-07
2.15042e-07
2.14697e-07
2.14696e-07
2.14696e-07
2.14697e-07
2.15275e-07
2.15188e-07
2.15242e-07
2.1519e-07
2.15058e-07
2.15255e-07
2.15282e-07
2.1526e-07
2.1526e-07
2.15188e-07
2.15347e-07
2.15255e-07
2.15253e-07
2.15118e-07
2.15274e-07
2.15242e-07
2.12614e-07
2.12606e-07
2.12567e-07
2.12353e-07
2.12367e-07
2.12403e-07
2.12415e-07
2.12618e-07
2.12607e-07
2.12567e-07
2.12378e-07
2.12114e-07
2.12114e-07
2.12114e-07
2.12114e-07
2.12459e-07
2.12476e-07
2.12353e-07
2.12114e-07
2.12114e-07
2.12114e-07
2.12114e-07
2.12114e-07
2.12114e-07
2.12673e-07
2.12672e-07
2.12614e-07
2.12367e-07
2.12114e-07
2.12114e-07
2.12114e-07
2.12114e-07
2.12114e-07
2.12114e-07
2.127e-07
2.1267e-07
2.12606e-07
2.12403e-07
2.12114e-07
2.12114e-07
2.12114e-07
2.12114e-07
2.12114e-07
2.12114e-07
2.12677e-07
2.12535e-07
2.12415e-07
2.12114e-07
2.12114e-07
2.12114e-07
2.12114e-07
2.12114e-07
2.12114e-07
2.12677e-07
2.12691e-07
2.12618e-07
2.12459e-07
2.12114e-07
2.12114e-07
2.12114e-07
2.12114e-07
2.12692e-07
2.12606e-07
2.12659e-07
2.12607e-07
2.12476e-07
2.12673e-07
2.127e-07
2.12677e-07
2.12677e-07
2.12606e-07
2.12764e-07
2.12672e-07
2.1267e-07
2.12535e-07
2.12691e-07
2.12659e-07
2.10031e-07
2.10024e-07
2.09985e-07
2.09771e-07
2.09785e-07
2.0982e-07
2.09833e-07
2.10036e-07
2.10025e-07
2.09985e-07
2.09795e-07
2.09532e-07
2.09531e-07
2.09531e-07
2.09532e-07
2.09877e-07
2.09893e-07
2.09771e-07
2.09532e-07
2.09532e-07
2.09531e-07
2.09531e-07
2.09532e-07
2.09532e-07
2.1009e-07
2.1009e-07
2.10032e-07
2.09785e-07
2.09531e-07
2.09531e-07
2.09531e-07
2.09531e-07
2.09531e-07
2.09531e-07
2.10117e-07
2.10088e-07
2.10024e-07
2.0982e-07
2.09531e-07
2.09531e-07
2.09531e-07
2.09531e-07
2.09531e-07
2.09531e-07
2.10094e-07
2.09953e-07
2.09833e-07
2.09532e-07
2.09532e-07
2.09531e-07
2.09531e-07
2.09532e-07
2.09532e-07
2.10095e-07
2.10109e-07
2.10036e-07
2.09877e-07
2.09532e-07
2.09531e-07
2.09531e-07
2.09532e-07
2.1011e-07
2.10023e-07
2.10077e-07
2.10025e-07
2.09893e-07
2.1009e-07
2.10117e-07
2.10095e-07
2.10095e-07
2.10023e-07
2.10181e-07
2.1009e-07
2.10088e-07
2.09953e-07
2.10109e-07
2.10077e-07
2.07449e-07
2.07441e-07
2.07402e-07
2.07188e-07
2.07202e-07
2.07238e-07
2.0725e-07
2.07453e-07
2.07442e-07
2.07402e-07
2.07213e-07
2.06949e-07
2.06949e-07
2.06949e-07
2.06949e-07
2.07294e-07
2.0731e-07
2.07188e-07
2.06949e-07
2.06949e-07
2.06948e-07
2.06948e-07
2.06949e-07
2.06949e-07
2.07507e-07
2.07507e-07
2.07449e-07
2.07202e-07
2.06949e-07
2.06948e-07
2.06949e-07
2.06949e-07
2.06948e-07
2.06949e-07
2.07535e-07
2.07505e-07
2.07441e-07
2.07238e-07
2.06949e-07
2.06948e-07
2.06949e-07
2.06949e-07
2.06948e-07
2.06949e-07
2.07512e-07
2.0737e-07
2.0725e-07
2.06949e-07
2.06949e-07
2.06948e-07
2.06948e-07
2.06949e-07
2.06949e-07
2.07512e-07
2.07526e-07
2.07453e-07
2.07294e-07
2.06949e-07
2.06949e-07
2.06949e-07
2.06949e-07
2.07527e-07
2.0744e-07
2.07494e-07
2.07442e-07
2.0731e-07
2.07507e-07
2.07535e-07
2.07512e-07
2.07512e-07
2.0744e-07
2.07599e-07
2.07507e-07
2.07505e-07
2.0737e-07
2.07526e-07
2.07494e-07
2.04866e-07
2.04858e-07
2.04819e-07
2.04605e-07
2.0462e-07
2.04655e-07
2.04668e-07
2.0487e-07
2.04859e-07
2.04819e-07
2.0463e-07
2.04366e-07
2.04366e-07
2.04366e-07
2.04366e-07
2.04712e-07
2.04728e-07
2.04605e-07
2.04366e-07
2.04366e-07
2.04366e-07
2.04366e-07
2.04366e-07
2.04366e-07
2.04925e-07
2.04924e-07
2.04866e-07
2.04619e-07
2.04366e-07
2.04366e-07
2.04366e-07
2.04366e-07
2.04366e-07
2.04366e-07
2.04952e-07
2.04922e-07
2.04858e-07
2.04655e-07
2.04366e-07
2.04366e-07
2.04366e-07
2.04366e-07
2.04366e-07
2.04366e-07
2.04929e-07
2.04787e-07
2.04668e-07
2.04366e-07
2.04366e-07
2.04366e-07
2.04366e-07
2.04366e-07
2.04366e-07
2.04929e-07
2.04944e-07
2.0487e-07
2.04712e-07
2.04366e-07
2.04366e-07
2.04366e-07
2.04366e-07
2.04944e-07
2.04858e-07
2.04911e-07
2.04859e-07
2.04728e-07
2.04925e-07
2.04952e-07
2.04929e-07
2.04929e-07
2.04858e-07
2.05016e-07
2.04924e-07
2.04922e-07
2.04787e-07
2.04944e-07
2.04911e-07
2.02283e-07
2.02275e-07
2.02236e-07
2.02022e-07
2.02037e-07
2.02072e-07
2.02085e-07
2.02287e-07
2.02277e-07
2.02236e-07
2.02047e-07
2.01784e-07
2.01783e-07
2.01783e-07
2.01784e-07
2.02129e-07
2.02145e-07
2.02022e-07
2.01784e-07
2.01784e-07
2.01783e-07
2.01783e-07
2.01784e-07
2.01784e-07
2.02342e-07
2.02342e-07
2.02283e-07
2.02037e-07
2.01783e-07
2.01783e-07
2.01783e-07
2.01783e-07
2.01783e-07
2.01783e-07
2.02369e-07
2.0234e-07
2.02275e-07
2.02072e-07
2.01783e-07
2.01783e-07
2.01783e-07
2.01783e-07
2.01783e-07
2.01783e-07
2.02346e-07
2.02205e-07
2.02085e-07
2.01784e-07
2.01784e-07
2.01783e-07
2.01783e-07
2.01784e-07
2.01784e-07
2.02346e-07
2.02361e-07
2.02287e-07
2.02129e-07
2.01784e-07
2.01783e-07
2.01783e-07
2.01784e-07
2.02361e-07
2.02275e-07
2.02329e-07
2.02277e-07
2.02145e-07
2.02342e-07
2.02369e-07
2.02346e-07
2.02346e-07
2.02275e-07
2.02433e-07
2.02341e-07
2.0234e-07
2.02205e-07
2.02361e-07
2.02329e-07
1.99701e-07
1.99693e-07
1.99654e-07
1.9944e-07
1.99454e-07
1.99489e-07
1.99502e-07
1.99705e-07
1.99694e-07
1.99654e-07
1.99464e-07
1.99201e-07
1.992e-07
1.992e-07
1.99201e-07
1.99546e-07
1.99562e-07
1.9944e-07
1.99201e-07
1.99201e-07
1.992e-07
1.992e-07
1.99201e-07
1.99201e-07
1.99759e-07
1.99759e-07
1.99701e-07
1.99454e-07
1.992e-07
1.992e-07
1.992e-07
1.992e-07
1.992e-07
1.992e-07
1.99786e-07
1.99757e-07
1.99693e-07
1.99489e-07
1.992e-07
1.992e-07
1.992e-07
1.992e-07
1.992e-07
1.992e-07
1.99764e-07
1.99622e-07
1.99502e-07
1.99201e-07
1.99201e-07
1.992e-07
1.992e-07
1.99201e-07
1.99201e-07
1.99764e-07
1.99778e-07
1.99705e-07
1.99546e-07
1.99201e-07
1.992e-07
1.992e-07
1.99201e-07
1.99779e-07
1.99692e-07
1.99746e-07
1.99694e-07
1.99562e-07
1.99759e-07
1.99786e-07
1.99764e-07
1.99764e-07
1.99692e-07
1.99851e-07
1.99759e-07
1.99757e-07
1.99622e-07
1.99778e-07
1.99746e-07
1.97118e-07
1.9711e-07
1.97071e-07
1.96857e-07
1.96871e-07
1.96907e-07
1.96919e-07
1.97122e-07
1.97111e-07
1.97071e-07
1.96882e-07
1.96618e-07
1.96618e-07
1.96618e-07
1.96618e-07
1.96963e-07
1.96979e-07
1.96857e-07
1.96618e-07
1.96618e-07
1.96617e-07
1.96617e-07
1.96618e-07
1.96618e-07
1.97176e-07
1.97176e-07
1.97118e-07
1.96871e-07
1.96618e-07
1.96617e-07
1.96617e-07
1.96617e-07
1.96617e-07
1.96618e-07
1.97204e-07
1.97174e-07
1.9711e-07
1.96907e-07
1.96618e-07
1.96617e-07
1.96617e-07
1.96617e-07
1.96617e-07
1.96618e-07
1.97181e-07
1.97039e-07
1.96919e-07
1.96618e-07
1.96618e-07
1.96617e-07
1.96617e-07
1.96618e-07
1.96618e-07
1.97181e-07
1.97195e-07
1.97122e-07
1.96963e-07
1.96618e-07
1.96618e-07
1.96618e-07
1.96618e-07
1.97196e-07
1.97109e-07
1.97163e-07
1.97111e-07
1.96979e-07
1.97176e-07
1.97204e-07
1.97181e-07
1.97181e-07
1.97109e-07
1.97268e-07
1.97176e-07
1.97174e-07
1.97039e-07
1.97195e-07
1.97163e-07
1.94535e-07
1.94527e-07
1.94488e-07
1.94274e-07
1.94288e-07
1.94324e-07
1.94336e-07
1.94539e-07
1.94528e-07
1.94488e-07
1.94299e-07
1.94035e-07
1.94035e-07
1.94035e-07
1.94035e-07
1.9438e-07
1.94397e-07
1.94274e-07
1.94035e-07
1.94035e-07
1.94035e-07
1.94035e-07
1.94035e-07
1.94035e-07
1.94594e-07
1.94593e-07
1.94535e-07
1.94288e-07
1.94035e-07
1.94035e-07
1.94035e-07
1.94035e-07
1.94035e-07
1.94035e-07
1.94621e-07
1.94591e-07
1.94527e-07
1.94324e-07
1.94035e-07
1.94035e-07
1.94035e-07
1.94035e-07
1.94035e-07
1.94035e-07
1.94598e-07
1.94456e-07
1.94336e-07
1.94035e-07
1.94035e-07
1.94035e-07
1.94035e-07
1.94035e-07
1.94035e-07
1.94598e-07
1.94613e-07
1.94539e-07
1.9438e-07
1.94035e-07
1.94035e-07
1.94035e-07
1.94035e-07
1.94613e-07
1.94527e-07
1.9458e-07
1.94528e-07
1.94397e-07
1.94594e-07
1.94621e-07
1.94598e-07
1.94598e-07
1.94527e-07
1.94685e-07
1.94593e-07
1.94591e-07
1.94456e-07
1.94613e-07
1.9458e-07
1.91952e-07
1.91944e-07
1.91905e-07
1.91691e-07
1.91706e-07
1.91741e-07
1.91754e-07
1.91956e-07
1.91945e-07
1.91905e-07
1.91716e-07
1.91452e-07
1.91452e-07
1.91452e-07
1.91452e-07
1.91798e-07
1.91814e-07
1.91691e-07
1.91452e-07
1.91452e-07
1.91452e-07
1.91452e-07
1.91452e-07
1.91452e-07
1.92011e-07
1.9201e-07
1.91952e-07
1.91706e-07
1.91452e-07
1.91452e-07
1.91452e-07
1.91452e-07
1.91452e-07
1.91452e-07
1.92038e-07
1.92008e-07
1.91944e-07
1.91741e-07
1.91452e-07
1.91452e-07
1.91452e-07
1.91452e-07
1.91452e-07
1.91452e-07
1.92015e-07
1.91874e-07
1.91754e-07
1.91452e-07
1.91452e-07
1.91452e-07
1.91452e-07
1.91452e-07
1.91452e-07
1.92015e-07
1.9203e-07
1.91956e-07
1.91798e-07
1.91452e-07
1.91452e-07
1.91452e-07
1.91452e-07
1.9203e-07
1.91944e-07
1.91998e-07
1.91945e-07
1.91814e-07
1.92011e-07
1.92038e-07
1.92015e-07
1.92015e-07
1.91944e-07
1.92102e-07
1.9201e-07
1.92008e-07
1.91874e-07
1.9203e-07
1.91998e-07
1.89369e-07
1.89361e-07
1.89322e-07
1.89108e-07
1.89123e-07
1.89158e-07
1.89171e-07
1.89373e-07
1.89362e-07
1.89322e-07
1.89133e-07
1.88869e-07
1.88869e-07
1.88869e-07
1.88869e-07
1.89215e-07
1.89231e-07
1.89108e-07
1.88869e-07
1.8887e-07
1.88869e-07
1.88869e-07
1.8887e-07
1.88869e-07
1.89428e-07
1.89427e-07
1.89369e-07
1.89123e-07
1.88869e-07
1.88869e-07
1.88869e-07
1.88869e-07
1.88869e-07
1.88869e-07
1.89455e-07
1.89425e-07
1.89361e-07
1.89158e-07
1.88869e-07
1.88869e-07
1.88869e-07
1.88869e-07
1.88869e-07
1.88869e-07
1.89432e-07
1.89291e-07
1.89171e-07
1.88869e-07
1.8887e-07
1.88869e-07
1.88869e-07
1.8887e-07
1.88869e-07
1.89432e-07
1.89447e-07
1.89373e-07
1.89215e-07
1.88869e-07
1.88869e-07
1.88869e-07
1.88869e-07
1.89447e-07
1.89361e-07
1.89415e-07
1.89362e-07
1.89231e-07
1.89428e-07
1.89455e-07
1.89432e-07
1.89432e-07
1.89361e-07
1.89519e-07
1.89427e-07
1.89425e-07
1.89291e-07
1.89447e-07
1.89415e-07
1.86786e-07
1.86778e-07
1.86739e-07
1.86525e-07
1.8654e-07
1.86575e-07
1.86588e-07
1.8679e-07
1.86779e-07
1.86739e-07
1.8655e-07
1.86286e-07
1.86286e-07
1.86286e-07
1.86286e-07
1.86632e-07
1.86648e-07
1.86525e-07
1.86286e-07
1.86287e-07
1.86286e-07
1.86286e-07
1.86287e-07
1.86286e-07
1.86845e-07
1.86844e-07
1.86786e-07
1.8654e-07
1.86286e-07
1.86286e-07
1.86286e-07
1.86286e-07
1.86286e-07
1.86286e-07
1.86872e-07
1.86842e-07
1.86778e-07
1.86575e-07
1.86286e-07
1.86286e-07
1.86286e-07
1.86286e-07
1.86286e-07
1.86286e-07
1.86849e-07
1.86708e-07
1.86588e-07
1.86286e-07
1.86287e-07
1.86286e-07
1.86286e-07
1.86287e-07
1.86286e-07
1.86849e-07
1.86864e-07
1.8679e-07
1.86632e-07
1.86286e-07
1.86286e-07
1.86286e-07
1.86286e-07
1.86864e-07
1.86778e-07
1.86832e-07
1.86779e-07
1.86648e-07
1.86845e-07
1.86872e-07
1.86849e-07
1.86849e-07
1.86778e-07
1.86936e-07
1.86844e-07
1.86842e-07
1.86708e-07
1.86864e-07
1.86832e-07
1.84203e-07
1.84195e-07
1.84156e-07
1.83942e-07
1.83957e-07
1.83992e-07
1.84005e-07
1.84207e-07
1.84197e-07
1.84156e-07
1.83967e-07
1.83704e-07
1.83703e-07
1.83703e-07
1.83704e-07
1.84049e-07
1.84065e-07
1.83942e-07
1.83704e-07
1.83704e-07
1.83703e-07
1.83703e-07
1.83704e-07
1.83704e-07
1.84262e-07
1.84261e-07
1.84203e-07
1.83957e-07
1.83703e-07
1.83703e-07
1.83703e-07
1.83703e-07
1.83703e-07
1.83703e-07
1.84289e-07
1.84259e-07
1.84195e-07
1.83992e-07
1.83703e-07
1.83703e-07
1.83703e-07
1.83703e-07
1.83703e-07
1.83703e-07
1.84266e-07
1.84125e-07
1.84005e-07
1.83704e-07
1.83704e-07
1.83703e-07
1.83703e-07
1.83704e-07
1.83704e-07
1.84266e-07
1.84281e-07
1.84207e-07
1.84049e-07
1.83704e-07
1.83703e-07
1.83703e-07
1.83704e-07
1.84281e-07
1.84195e-07
1.84249e-07
1.84197e-07
1.84065e-07
1.84262e-07
1.84289e-07
1.84266e-07
1.84266e-07
1.84195e-07
1.84353e-07
1.84261e-07
1.84259e-07
1.84125e-07
1.84281e-07
1.84249e-07
1.8162e-07
1.81613e-07
1.81573e-07
1.81359e-07
1.81374e-07
1.81409e-07
1.81422e-07
1.81624e-07
1.81614e-07
1.81573e-07
1.81384e-07
1.81121e-07
1.8112e-07
1.8112e-07
1.81121e-07
1.81466e-07
1.81482e-07
1.81359e-07
1.81121e-07
1.81121e-07
1.8112e-07
1.8112e-07
1.81121e-07
1.81121e-07
1.81679e-07
1.81679e-07
1.8162e-07
1.81374e-07
1.8112e-07
1.8112e-07
1.8112e-07
1.8112e-07
1.8112e-07
1.8112e-07
1.81706e-07
1.81677e-07
1.81613e-07
1.81409e-07
1.8112e-07
1.8112e-07
1.8112e-07
1.8112e-07
1.8112e-07
1.8112e-07
1.81683e-07
1.81542e-07
1.81422e-07
1.81121e-07
1.81121e-07
1.8112e-07
1.8112e-07
1.81121e-07
1.81121e-07
1.81683e-07
1.81698e-07
1.81624e-07
1.81466e-07
1.81121e-07
1.8112e-07
1.8112e-07
1.81121e-07
1.81698e-07
1.81612e-07
1.81666e-07
1.81614e-07
1.81482e-07
1.81679e-07
1.81706e-07
1.81683e-07
1.81683e-07
1.81612e-07
1.8177e-07
1.81679e-07
1.81677e-07
1.81542e-07
1.81698e-07
1.81666e-07
1.79038e-07
1.7903e-07
1.78991e-07
1.78777e-07
1.78791e-07
1.78826e-07
1.78839e-07
1.79042e-07
1.79031e-07
1.78991e-07
1.78801e-07
1.78538e-07
1.78537e-07
1.78537e-07
1.78538e-07
1.78883e-07
1.78899e-07
1.78777e-07
1.78538e-07
1.78538e-07
1.78537e-07
1.78537e-07
1.78538e-07
1.78538e-07
1.79096e-07
1.79096e-07
1.79038e-07
1.78791e-07
1.78537e-07
1.78537e-07
1.78537e-07
1.78537e-07
1.78537e-07
1.78537e-07
1.79123e-07
1.79094e-07
1.7903e-07
1.78826e-07
1.78537e-07
1.78537e-07
1.78537e-07
1.78537e-07
1.78537e-07
1.78537e-07
1.79101e-07
1.78959e-07
1.78839e-07
1.78538e-07
1.78538e-07
1.78537e-07
1.78537e-07
1.78538e-07
1.78538e-07
1.79101e-07
1.79115e-07
1.79042e-07
1.78883e-07
1.78538e-07
1.78537e-07
1.78537e-07
1.78538e-07
1.79116e-07
1.79029e-07
1.79083e-07
1.79031e-07
1.78899e-07
1.79096e-07
1.79123e-07
1.79101e-07
1.79101e-07
1.79029e-07
1.79188e-07
1.79096e-07
1.79094e-07
1.78959e-07
1.79115e-07
1.79083e-07
1.76455e-07
1.76447e-07
1.76408e-07
1.76194e-07
1.76208e-07
1.76244e-07
1.76256e-07
1.76459e-07
1.76448e-07
1.76408e-07
1.76218e-07
1.75955e-07
1.75954e-07
1.75954e-07
1.75955e-07
1.763e-07
1.76316e-07
1.76194e-07
1.75955e-07
1.75955e-07
1.75954e-07
1.75954e-07
1.75955e-07
1.75955e-07
1.76513e-07
1.76513e-07
1.76455e-07
1.76208e-07
1.75954e-07
1.75954e-07
1.75954e-07
1.75954e-07
1.75954e-07
1.75954e-07
1.76541e-07
1.76511e-07
1.76447e-07
1.76244e-07
1.75954e-07
1.75954e-07
1.75954e-07
1.75954e-07
1.75954e-07
1.75954e-07
1.76518e-07
1.76376e-07
1.76256e-07
1.75955e-07
1.75955e-07
1.75954e-07
1.75954e-07
1.75955e-07
1.75955e-07
1.76518e-07
1.76532e-07
1.76459e-07
1.763e-07
1.75955e-07
1.75954e-07
1.75954e-07
1.75955e-07
1.76533e-07
1.76446e-07
1.765e-07
1.76448e-07
1.76316e-07
1.76513e-07
1.76541e-07
1.76518e-07
1.76518e-07
1.76446e-07
1.76605e-07
1.76513e-07
1.76511e-07
1.76376e-07
1.76532e-07
1.765e-07
1.73872e-07
1.73864e-07
1.73825e-07
1.73611e-07
1.73625e-07
1.73661e-07
1.73673e-07
1.73876e-07
1.73865e-07
1.73825e-07
1.73636e-07
1.73372e-07
1.73372e-07
1.73372e-07
1.73372e-07
1.73717e-07
1.73734e-07
1.73611e-07
1.73372e-07
1.73372e-07
1.73372e-07
1.73372e-07
1.73372e-07
1.73372e-07
1.73931e-07
1.7393e-07
1.73872e-07
1.73625e-07
1.73372e-07
1.73372e-07
1.73372e-07
1.73372e-07
1.73372e-07
1.73372e-07
1.73958e-07
1.73928e-07
1.73864e-07
1.73661e-07
1.73372e-07
1.73372e-07
1.73372e-07
1.73372e-07
1.73372e-07
1.73372e-07
1.73935e-07
1.73793e-07
1.73673e-07
1.73372e-07
1.73372e-07
1.73372e-07
1.73372e-07
1.73372e-07
1.73372e-07
1.73935e-07
1.73949e-07
1.73876e-07
1.73717e-07
1.73372e-07
1.73372e-07
1.73372e-07
1.73372e-07
1.7395e-07
1.73863e-07
1.73917e-07
1.73865e-07
1.73734e-07
1.73931e-07
1.73958e-07
1.73935e-07
1.73935e-07
1.73864e-07
1.74022e-07
1.7393e-07
1.73928e-07
1.73793e-07
1.73949e-07
1.73917e-07
1.71289e-07
1.71281e-07
1.71242e-07
1.71028e-07
1.71043e-07
1.71078e-07
1.71091e-07
1.71293e-07
1.71282e-07
1.71242e-07
1.71053e-07
1.7079e-07
1.70789e-07
1.70789e-07
1.7079e-07
1.71135e-07
1.71151e-07
1.71028e-07
1.7079e-07
1.7079e-07
1.70789e-07
1.70789e-07
1.7079e-07
1.7079e-07
1.71348e-07
1.71347e-07
1.71289e-07
1.71043e-07
1.70789e-07
1.70789e-07
1.70789e-07
1.70789e-07
1.70789e-07
1.70789e-07
1.71375e-07
1.71345e-07
1.71281e-07
1.71078e-07
1.70789e-07
1.70789e-07
1.70789e-07
1.70789e-07
1.70789e-07
1.70789e-07
1.71352e-07
1.71211e-07
1.71091e-07
1.7079e-07
1.7079e-07
1.70789e-07
1.70789e-07
1.7079e-07
1.7079e-07
1.71352e-07
1.71367e-07
1.71293e-07
1.71135e-07
1.7079e-07
1.70789e-07
1.70789e-07
1.7079e-07
1.71367e-07
1.71281e-07
1.71335e-07
1.71282e-07
1.71151e-07
1.71348e-07
1.71375e-07
1.71352e-07
1.71352e-07
1.71281e-07
1.71439e-07
1.71347e-07
1.71345e-07
1.71211e-07
1.71367e-07
1.71335e-07
1.68707e-07
1.68699e-07
1.6866e-07
1.68446e-07
1.6846e-07
1.68495e-07
1.68508e-07
1.68711e-07
1.687e-07
1.6866e-07
1.6847e-07
1.68207e-07
1.68206e-07
1.68206e-07
1.68207e-07
1.68552e-07
1.68568e-07
1.68446e-07
1.68207e-07
1.68207e-07
1.68206e-07
1.68206e-07
1.68207e-07
1.68207e-07
1.68765e-07
1.68765e-07
1.68707e-07
1.6846e-07
1.68206e-07
1.68206e-07
1.68206e-07
1.68206e-07
1.68206e-07
1.68206e-07
1.68792e-07
1.68763e-07
1.68699e-07
1.68495e-07
1.68206e-07
1.68206e-07
1.68206e-07
1.68206e-07
1.68206e-07
1.68206e-07
1.6877e-07
1.68628e-07
1.68508e-07
1.68207e-07
1.68207e-07
1.68206e-07
1.68206e-07
1.68207e-07
1.68207e-07
1.6877e-07
1.68784e-07
1.68711e-07
1.68552e-07
1.68207e-07
1.68206e-07
1.68206e-07
1.68207e-07
1.68785e-07
1.68698e-07
1.68752e-07
1.687e-07
1.68568e-07
1.68765e-07
1.68792e-07
1.6877e-07
1.6877e-07
1.68698e-07
1.68857e-07
1.68765e-07
1.68763e-07
1.68628e-07
1.68784e-07
1.68752e-07
1.66124e-07
1.66116e-07
1.66077e-07
1.65863e-07
1.65877e-07
1.65913e-07
1.65925e-07
1.66128e-07
1.66117e-07
1.66077e-07
1.65888e-07
1.65624e-07
1.65624e-07
1.65624e-07
1.65624e-07
1.65969e-07
1.65986e-07
1.65863e-07
1.65624e-07
1.65624e-07
1.65624e-07
1.65624e-07
1.65624e-07
1.65624e-07
1.66183e-07
1.66182e-07
1.66124e-07
1.65877e-07
1.65624e-07
1.65624e-07
1.65624e-07
1.65624e-07
1.65624e-07
1.65624e-07
1.6621e-07
1.6618e-07
1.66116e-07
1.65913e-07
1.65624e-07
1.65624e-07
1.65624e-07
1.65624e-07
1.65624e-07
1.65624e-07
1.66187e-07
1.66045e-07
1.65925e-07
1.65624e-07
1.65624e-07
1.65624e-07
1.65624e-07
1.65624e-07
1.65624e-07
1.66187e-07
1.66201e-07
1.66128e-07
1.65969e-07
1.65624e-07
1.65624e-07
1.65624e-07
1.65624e-07
1.66202e-07
1.66116e-07
1.66169e-07
1.66117e-07
1.65986e-07
1.66183e-07
1.6621e-07
1.66187e-07
1.66187e-07
1.66116e-07
1.66274e-07
1.66182e-07
1.6618e-07
1.66045e-07
1.66201e-07
1.66169e-07
1.63541e-07
1.63534e-07
1.63494e-07
1.6328e-07
1.63295e-07
1.6333e-07
1.63343e-07
1.63546e-07
1.63535e-07
1.63495e-07
1.63305e-07
1.63042e-07
1.63041e-07
1.63041e-07
1.63042e-07
1.63387e-07
1.63403e-07
1.6328e-07
1.63042e-07
1.63042e-07
1.63041e-07
1.63041e-07
1.63042e-07
1.63042e-07
1.636e-07
1.636e-07
1.63541e-07
1.63295e-07
1.63041e-07
1.63041e-07
1.63041e-07
1.63041e-07
1.63041e-07
1.63041e-07
1.63627e-07
1.63598e-07
1.63534e-07
1.6333e-07
1.63041e-07
1.63041e-07
1.63041e-07
1.63041e-07
1.63041e-07
1.63041e-07
1.63604e-07
1.63463e-07
1.63343e-07
1.63042e-07
1.63042e-07
1.63041e-07
1.63041e-07
1.63042e-07
1.63042e-07
1.63605e-07
1.63619e-07
1.63546e-07
1.63387e-07
1.63042e-07
1.63041e-07
1.63041e-07
1.63042e-07
1.6362e-07
1.63533e-07
1.63587e-07