/*--------------------------------*- C++ -*----------------------------------*\
| =========                 |                                                 |
| \\      /  F ield         | OpenFOAM: The Open Source CFD Toolbox           |
|  \\    /   O peration     | Version:  v2012                                 |
|   \\  /    A nd           | Website:  www.openfoam.com                      |
|    \\/     M anipulation  |                                                 |
\*---------------------------------------------------------------------------*/
FoamFile
{
    version     2.0;
    format      ascii;
    class       volScalarField;
    location    "0.39";
    object      p;
}
// * * * * * * * * * * * * * * * * * * * * * * * * * * * * * * * * * * * * * //

dimensions      [0 2 -2 0 0 0 0];


internalField   nonuniform List<scalar> 
247104
(
1.84279e-06
1.84267e-06
1.84282e-06
1.8428e-06
1.84272e-06
1.84282e-06
1.84281e-06
1.84261e-06
1.84267e-06
1.84274e-06
1.8428e-06
1.84264e-06
1.84255e-06
1.84267e-06
1.84281e-06
1.84271e-06
1.84283e-06
1.8428e-06
1.84249e-06
1.84213e-06
1.84199e-06
1.84217e-06
1.84254e-06
1.84281e-06
1.84283e-06
1.8428e-06
1.84264e-06
1.84213e-06
1.84165e-06
1.84147e-06
1.84169e-06
1.8422e-06
1.84269e-06
1.8428e-06
1.84279e-06
1.84272e-06
1.84255e-06
1.84199e-06
1.84147e-06
1.84129e-06
1.84152e-06
1.84206e-06
1.84261e-06
1.8427e-06
1.84282e-06
1.84267e-06
1.84217e-06
1.84169e-06
1.84152e-06
1.84174e-06
1.84224e-06
1.84271e-06
1.84283e-06
1.84281e-06
1.84281e-06
1.84254e-06
1.8422e-06
1.84206e-06
1.84224e-06
1.84258e-06
1.84282e-06
1.84281e-06
1.84261e-06
1.84271e-06
1.84281e-06
1.84269e-06
1.84261e-06
1.84271e-06
1.84282e-06
1.84267e-06
1.84283e-06
1.8428e-06
1.8427e-06
1.84283e-06
1.84281e-06
1.80989e-06
1.8079e-06
1.80728e-06
1.80606e-06
1.80607e-06
1.80602e-06
1.80601e-06
1.80734e-06
1.80756e-06
1.80729e-06
1.80523e-06
1.80262e-06
1.8026e-06
1.8026e-06
1.80262e-06
1.80561e-06
1.80587e-06
1.80606e-06
1.80262e-06
1.80256e-06
1.80263e-06
1.80263e-06
1.80256e-06
1.80262e-06
1.80599e-06
1.80731e-06
1.8099e-06
1.80607e-06
1.8026e-06
1.80263e-06
1.80272e-06
1.80272e-06
1.80263e-06
1.8026e-06
1.80599e-06
1.80763e-06
1.8079e-06
1.80602e-06
1.8026e-06
1.80263e-06
1.80272e-06
1.80272e-06
1.80263e-06
1.8026e-06
1.80616e-06
1.80623e-06
1.80601e-06
1.80262e-06
1.80256e-06
1.80263e-06
1.80263e-06
1.80256e-06
1.80262e-06
1.80594e-06
1.80723e-06
1.80734e-06
1.80561e-06
1.80262e-06
1.8026e-06
1.8026e-06
1.80262e-06
1.80585e-06
1.80602e-06
1.80748e-06
1.80757e-06
1.80587e-06
1.80599e-06
1.80599e-06
1.80616e-06
1.80594e-06
1.80602e-06
1.8076e-06
1.8073e-06
1.80763e-06
1.80623e-06
1.80722e-06
1.80748e-06
1.78977e-06
1.7896e-06
1.78943e-06
1.78732e-06
1.78722e-06
1.78717e-06
1.7873e-06
1.78938e-06
1.78964e-06
1.78943e-06
1.78662e-06
1.78369e-06
1.78363e-06
1.78363e-06
1.78368e-06
1.78709e-06
1.78777e-06
1.78732e-06
1.78369e-06
1.78344e-06
1.78348e-06
1.78348e-06
1.78344e-06
1.78368e-06
1.78789e-06
1.78985e-06
1.78977e-06
1.78722e-06
1.78364e-06
1.78348e-06
1.78352e-06
1.78352e-06
1.78348e-06
1.78363e-06
1.78794e-06
1.7896e-06
1.7896e-06
1.78717e-06
1.78363e-06
1.78348e-06
1.78351e-06
1.78352e-06
1.78348e-06
1.78364e-06
1.7879e-06
1.7879e-06
1.7873e-06
1.78368e-06
1.78344e-06
1.78348e-06
1.78348e-06
1.78344e-06
1.7837e-06
1.78794e-06
1.78994e-06
1.78938e-06
1.78709e-06
1.78368e-06
1.78363e-06
1.78363e-06
1.78368e-06
1.78757e-06
1.78787e-06
1.78986e-06
1.78964e-06
1.78776e-06
1.78789e-06
1.78794e-06
1.78789e-06
1.78794e-06
1.78787e-06
1.78974e-06
1.78985e-06
1.7896e-06
1.7879e-06
1.78994e-06
1.78986e-06
1.77084e-06
1.77067e-06
1.77053e-06
1.76838e-06
1.76828e-06
1.76819e-06
1.76838e-06
1.77047e-06
1.77074e-06
1.77053e-06
1.76766e-06
1.7647e-06
1.76468e-06
1.76468e-06
1.7647e-06
1.76811e-06
1.76888e-06
1.76838e-06
1.7647e-06
1.76459e-06
1.7646e-06
1.7646e-06
1.76459e-06
1.7647e-06
1.76897e-06
1.77092e-06
1.77084e-06
1.76827e-06
1.76468e-06
1.7646e-06
1.76461e-06
1.76462e-06
1.76461e-06
1.76468e-06
1.76903e-06
1.77067e-06
1.77067e-06
1.76819e-06
1.76468e-06
1.7646e-06
1.76461e-06
1.76461e-06
1.7646e-06
1.76468e-06
1.76899e-06
1.76901e-06
1.76838e-06
1.7647e-06
1.76459e-06
1.7646e-06
1.7646e-06
1.76459e-06
1.7647e-06
1.76901e-06
1.77099e-06
1.77047e-06
1.7681e-06
1.7647e-06
1.76468e-06
1.76468e-06
1.7647e-06
1.76874e-06
1.76899e-06
1.77095e-06
1.77074e-06
1.76888e-06
1.76897e-06
1.76902e-06
1.76899e-06
1.76901e-06
1.76899e-06
1.77097e-06
1.77092e-06
1.77067e-06
1.769e-06
1.77099e-06
1.77095e-06
1.75191e-06
1.75174e-06
1.75157e-06
1.74942e-06
1.74931e-06
1.74922e-06
1.74941e-06
1.75152e-06
1.75179e-06
1.75157e-06
1.74871e-06
1.74573e-06
1.74572e-06
1.74572e-06
1.74573e-06
1.74911e-06
1.74993e-06
1.74942e-06
1.74573e-06
1.74569e-06
1.7457e-06
1.7457e-06
1.74569e-06
1.74573e-06
1.75002e-06
1.75197e-06
1.75191e-06
1.74931e-06
1.74572e-06
1.7457e-06
1.7457e-06
1.7457e-06
1.7457e-06
1.74572e-06
1.7501e-06
1.75175e-06
1.75174e-06
1.74922e-06
1.74572e-06
1.7457e-06
1.7457e-06
1.7457e-06
1.7457e-06
1.74572e-06
1.75008e-06
1.75008e-06
1.74941e-06
1.74573e-06
1.74569e-06
1.7457e-06
1.7457e-06
1.74569e-06
1.74573e-06
1.75007e-06
1.75207e-06
1.75151e-06
1.74911e-06
1.74573e-06
1.74572e-06
1.74572e-06
1.74573e-06
1.74983e-06
1.75006e-06
1.75201e-06
1.75178e-06
1.74992e-06
1.75002e-06
1.7501e-06
1.75008e-06
1.75007e-06
1.75005e-06
1.752e-06
1.75197e-06
1.75175e-06
1.75008e-06
1.75207e-06
1.75201e-06
1.73295e-06
1.73278e-06
1.73261e-06
1.73046e-06
1.73034e-06
1.73026e-06
1.73044e-06
1.73255e-06
1.73282e-06
1.73261e-06
1.72975e-06
1.72676e-06
1.72676e-06
1.72676e-06
1.72676e-06
1.73013e-06
1.73096e-06
1.73046e-06
1.72676e-06
1.72675e-06
1.72675e-06
1.72675e-06
1.72675e-06
1.72676e-06
1.73106e-06
1.73302e-06
1.73295e-06
1.73034e-06
1.72676e-06
1.72675e-06
1.72675e-06
1.72675e-06
1.72675e-06
1.72676e-06
1.73114e-06
1.7328e-06
1.73278e-06
1.73026e-06
1.72676e-06
1.72675e-06
1.72675e-06
1.72675e-06
1.72675e-06
1.72676e-06
1.73112e-06
1.73113e-06
1.73044e-06
1.72676e-06
1.72675e-06
1.72675e-06
1.72675e-06
1.72675e-06
1.72676e-06
1.73111e-06
1.73312e-06
1.73255e-06
1.73013e-06
1.72676e-06
1.72676e-06
1.72676e-06
1.72676e-06
1.73088e-06
1.7311e-06
1.73304e-06
1.73282e-06
1.73096e-06
1.73106e-06
1.73114e-06
1.73112e-06
1.73111e-06
1.7311e-06
1.73304e-06
1.73302e-06
1.7328e-06
1.73113e-06
1.73312e-06
1.73304e-06
1.71399e-06
1.71382e-06
1.71365e-06
1.7115e-06
1.71138e-06
1.7113e-06
1.71148e-06
1.71359e-06
1.71386e-06
1.71365e-06
1.71079e-06
1.7078e-06
1.7078e-06
1.7078e-06
1.7078e-06
1.71117e-06
1.712e-06
1.7115e-06
1.7078e-06
1.7078e-06
1.7078e-06
1.7078e-06
1.7078e-06
1.7078e-06
1.71209e-06
1.71406e-06
1.71399e-06
1.71138e-06
1.7078e-06
1.7078e-06
1.7078e-06
1.7078e-06
1.7078e-06
1.7078e-06
1.71218e-06
1.71385e-06
1.71382e-06
1.7113e-06
1.7078e-06
1.7078e-06
1.7078e-06
1.7078e-06
1.7078e-06
1.7078e-06
1.71216e-06
1.71217e-06
1.71148e-06
1.7078e-06
1.7078e-06
1.7078e-06
1.7078e-06
1.7078e-06
1.7078e-06
1.71216e-06
1.71416e-06
1.71359e-06
1.71117e-06
1.7078e-06
1.7078e-06
1.7078e-06
1.7078e-06
1.71192e-06
1.71215e-06
1.71408e-06
1.71386e-06
1.712e-06
1.71209e-06
1.71218e-06
1.71216e-06
1.71216e-06
1.71215e-06
1.71407e-06
1.71406e-06
1.71385e-06
1.71217e-06
1.71416e-06
1.71408e-06
1.69503e-06
1.69486e-06
1.69469e-06
1.69254e-06
1.69242e-06
1.69234e-06
1.69252e-06
1.69463e-06
1.6949e-06
1.69469e-06
1.69183e-06
1.68884e-06
1.68884e-06
1.68884e-06
1.68884e-06
1.69221e-06
1.69304e-06
1.69254e-06
1.68884e-06
1.68884e-06
1.68884e-06
1.68884e-06
1.68884e-06
1.68884e-06
1.69313e-06
1.6951e-06
1.69503e-06
1.69242e-06
1.68884e-06
1.68884e-06
1.68884e-06
1.68884e-06
1.68884e-06
1.68884e-06
1.69322e-06
1.69489e-06
1.69486e-06
1.69234e-06
1.68884e-06
1.68884e-06
1.68884e-06
1.68884e-06
1.68884e-06
1.68884e-06
1.6932e-06
1.69321e-06
1.69252e-06
1.68884e-06
1.68884e-06
1.68884e-06
1.68884e-06
1.68884e-06
1.68884e-06
1.6932e-06
1.6952e-06
1.69463e-06
1.69221e-06
1.68884e-06
1.68884e-06
1.68884e-06
1.68884e-06
1.69296e-06
1.69319e-06
1.69512e-06
1.6949e-06
1.69304e-06
1.69313e-06
1.69322e-06
1.6932e-06
1.6932e-06
1.69319e-06
1.69511e-06
1.69509e-06
1.69489e-06
1.69321e-06
1.6952e-06
1.69512e-06
1.67607e-06
1.6759e-06
1.67573e-06
1.67358e-06
1.67346e-06
1.67338e-06
1.67356e-06
1.67567e-06
1.67594e-06
1.67573e-06
1.67287e-06
1.66988e-06
1.66988e-06
1.66988e-06
1.66988e-06
1.67325e-06
1.67408e-06
1.67358e-06
1.66988e-06
1.66988e-06
1.66988e-06
1.66988e-06
1.66988e-06
1.66988e-06
1.67417e-06
1.67614e-06
1.67607e-06
1.67346e-06
1.66988e-06
1.66988e-06
1.66988e-06
1.66988e-06
1.66988e-06
1.66988e-06
1.67426e-06
1.67593e-06
1.6759e-06
1.67338e-06
1.66988e-06
1.66988e-06
1.66988e-06
1.66988e-06
1.66988e-06
1.66988e-06
1.67424e-06
1.67425e-06
1.67356e-06
1.66988e-06
1.66988e-06
1.66988e-06
1.66988e-06
1.66988e-06
1.66988e-06
1.67424e-06
1.67624e-06
1.67567e-06
1.67325e-06
1.66988e-06
1.66988e-06
1.66988e-06
1.66988e-06
1.674e-06
1.67423e-06
1.67616e-06
1.67594e-06
1.67408e-06
1.67417e-06
1.67426e-06
1.67424e-06
1.67424e-06
1.67423e-06
1.67615e-06
1.67613e-06
1.67593e-06
1.67425e-06
1.67624e-06
1.67616e-06
1.65711e-06
1.65694e-06
1.65677e-06
1.65462e-06
1.6545e-06
1.65442e-06
1.6546e-06
1.65671e-06
1.65698e-06
1.65677e-06
1.65391e-06
1.65092e-06
1.65092e-06
1.65092e-06
1.65092e-06
1.65429e-06
1.65512e-06
1.65462e-06
1.65092e-06
1.65092e-06
1.65092e-06
1.65092e-06
1.65092e-06
1.65092e-06
1.65521e-06
1.65718e-06
1.65711e-06
1.6545e-06
1.65092e-06
1.65092e-06
1.65092e-06
1.65092e-06
1.65092e-06
1.65092e-06
1.6553e-06
1.65697e-06
1.65694e-06
1.65442e-06
1.65092e-06
1.65092e-06
1.65092e-06
1.65092e-06
1.65092e-06
1.65092e-06
1.65528e-06
1.65529e-06
1.6546e-06
1.65092e-06
1.65092e-06
1.65092e-06
1.65092e-06
1.65092e-06
1.65092e-06
1.65528e-06
1.65728e-06
1.65671e-06
1.65429e-06
1.65092e-06
1.65092e-06
1.65092e-06
1.65092e-06
1.65504e-06
1.65527e-06
1.6572e-06
1.65698e-06
1.65512e-06
1.65521e-06
1.6553e-06
1.65528e-06
1.65528e-06
1.65527e-06
1.65719e-06
1.65718e-06
1.65697e-06
1.65529e-06
1.65728e-06
1.6572e-06
1.63815e-06
1.63798e-06
1.63781e-06
1.63566e-06
1.63554e-06
1.63546e-06
1.63564e-06
1.63775e-06
1.63802e-06
1.63781e-06
1.63496e-06
1.63196e-06
1.63196e-06
1.63196e-06
1.63196e-06
1.63533e-06
1.63616e-06
1.63566e-06
1.63196e-06
1.63196e-06
1.63196e-06
1.63196e-06
1.63196e-06
1.63196e-06
1.63625e-06
1.63822e-06
1.63815e-06
1.63554e-06
1.63196e-06
1.63196e-06
1.63196e-06
1.63196e-06
1.63196e-06
1.63196e-06
1.63634e-06
1.63801e-06
1.63798e-06
1.63546e-06
1.63196e-06
1.63196e-06
1.63196e-06
1.63196e-06
1.63196e-06
1.63196e-06
1.63632e-06
1.63633e-06
1.63564e-06
1.63196e-06
1.63196e-06
1.63196e-06
1.63196e-06
1.63196e-06
1.63196e-06
1.63632e-06
1.63833e-06
1.63775e-06
1.63533e-06
1.63196e-06
1.63196e-06
1.63196e-06
1.63196e-06
1.63609e-06
1.63631e-06
1.63824e-06
1.63802e-06
1.63616e-06
1.63625e-06
1.63634e-06
1.63632e-06
1.63632e-06
1.63631e-06
1.63823e-06
1.63822e-06
1.63801e-06
1.63633e-06
1.63833e-06
1.63824e-06
1.61919e-06
1.61902e-06
1.61885e-06
1.6167e-06
1.61659e-06
1.6165e-06
1.61669e-06
1.6188e-06
1.61906e-06
1.61885e-06
1.616e-06
1.613e-06
1.613e-06
1.613e-06
1.613e-06
1.61637e-06
1.6172e-06
1.6167e-06
1.613e-06
1.613e-06
1.613e-06
1.613e-06
1.613e-06
1.613e-06
1.61729e-06
1.61926e-06
1.61919e-06
1.61659e-06
1.613e-06
1.613e-06
1.613e-06
1.613e-06
1.613e-06
1.613e-06
1.61739e-06
1.61905e-06
1.61903e-06
1.6165e-06
1.613e-06
1.613e-06
1.613e-06
1.613e-06
1.613e-06
1.613e-06
1.61737e-06
1.61737e-06
1.61669e-06
1.613e-06
1.613e-06
1.613e-06
1.613e-06
1.613e-06
1.613e-06
1.61736e-06
1.61937e-06
1.6188e-06
1.61637e-06
1.613e-06
1.613e-06
1.613e-06
1.613e-06
1.61713e-06
1.61735e-06
1.61929e-06
1.61906e-06
1.6172e-06
1.61729e-06
1.61738e-06
1.61736e-06
1.61736e-06
1.61735e-06
1.61928e-06
1.61926e-06
1.61905e-06
1.61737e-06
1.61937e-06
1.61929e-06
1.60024e-06
1.60007e-06
1.59989e-06
1.59774e-06
1.59763e-06
1.59755e-06
1.59773e-06
1.59984e-06
1.6001e-06
1.59989e-06
1.59704e-06
1.59405e-06
1.59405e-06
1.59405e-06
1.59405e-06
1.59741e-06
1.59824e-06
1.59774e-06
1.59405e-06
1.59405e-06
1.59405e-06
1.59405e-06
1.59405e-06
1.59405e-06
1.59834e-06
1.6003e-06
1.60024e-06
1.59763e-06
1.59405e-06
1.59405e-06
1.59405e-06
1.59405e-06
1.59405e-06
1.59405e-06
1.59843e-06
1.60009e-06
1.60007e-06
1.59755e-06
1.59405e-06
1.59405e-06
1.59405e-06
1.59405e-06
1.59405e-06
1.59405e-06
1.59841e-06
1.59842e-06
1.59773e-06
1.59405e-06
1.59405e-06
1.59405e-06
1.59405e-06
1.59405e-06
1.59405e-06
1.5984e-06
1.60041e-06
1.59984e-06
1.59741e-06
1.59405e-06
1.59405e-06
1.59405e-06
1.59405e-06
1.59817e-06
1.59839e-06
1.60033e-06
1.6001e-06
1.59824e-06
1.59834e-06
1.59843e-06
1.59841e-06
1.5984e-06
1.59839e-06
1.60032e-06
1.6003e-06
1.60009e-06
1.59842e-06
1.60041e-06
1.60033e-06
1.58128e-06
1.58111e-06
1.58093e-06
1.57879e-06
1.57867e-06
1.57859e-06
1.57877e-06
1.58088e-06
1.58115e-06
1.58093e-06
1.57808e-06
1.57509e-06
1.57509e-06
1.57509e-06
1.57509e-06
1.57846e-06
1.57929e-06
1.57879e-06
1.57509e-06
1.57509e-06
1.57509e-06
1.57509e-06
1.57509e-06
1.57509e-06
1.57938e-06
1.58134e-06
1.58128e-06
1.57867e-06
1.57509e-06
1.57509e-06
1.57509e-06
1.57509e-06
1.57509e-06
1.57509e-06
1.57947e-06
1.58114e-06
1.58111e-06
1.57859e-06
1.57509e-06
1.57509e-06
1.57509e-06
1.57509e-06
1.57509e-06
1.57509e-06
1.57945e-06
1.57946e-06
1.57877e-06
1.57509e-06
1.57509e-06
1.57509e-06
1.57509e-06
1.57509e-06
1.57509e-06
1.57945e-06
1.58145e-06
1.58088e-06
1.57846e-06
1.57509e-06
1.57509e-06
1.57509e-06
1.57509e-06
1.57921e-06
1.57944e-06
1.58137e-06
1.58115e-06
1.57929e-06
1.57938e-06
1.57947e-06
1.57945e-06
1.57945e-06
1.57944e-06
1.58136e-06
1.58134e-06
1.58114e-06
1.57946e-06
1.58145e-06
1.58137e-06
1.56232e-06
1.56215e-06
1.56198e-06
1.55983e-06
1.55971e-06
1.55963e-06
1.55981e-06
1.56192e-06
1.56219e-06
1.56198e-06
1.55913e-06
1.55613e-06
1.55613e-06
1.55613e-06
1.55613e-06
1.5595e-06
1.56033e-06
1.55983e-06
1.55613e-06
1.55613e-06
1.55613e-06
1.55613e-06
1.55613e-06
1.55613e-06
1.56042e-06
1.56239e-06
1.56232e-06
1.55971e-06
1.55613e-06
1.55613e-06
1.55613e-06
1.55613e-06
1.55613e-06
1.55613e-06
1.56051e-06
1.56218e-06
1.56215e-06
1.55963e-06
1.55613e-06
1.55613e-06
1.55613e-06
1.55613e-06
1.55613e-06
1.55613e-06
1.56049e-06
1.5605e-06
1.55981e-06
1.55613e-06
1.55613e-06
1.55613e-06
1.55613e-06
1.55613e-06
1.55613e-06
1.56049e-06
1.5625e-06
1.56192e-06
1.5595e-06
1.55613e-06
1.55613e-06
1.55613e-06
1.55613e-06
1.56026e-06
1.56048e-06
1.56241e-06
1.56219e-06
1.56033e-06
1.56042e-06
1.56051e-06
1.56049e-06
1.56049e-06
1.56048e-06
1.5624e-06
1.56239e-06
1.56218e-06
1.5605e-06
1.5625e-06
1.56241e-06
1.54336e-06
1.5432e-06
1.54302e-06
1.54087e-06
1.54076e-06
1.54067e-06
1.54086e-06
1.54297e-06
1.54323e-06
1.54302e-06
1.54017e-06
1.53717e-06
1.53717e-06
1.53717e-06
1.53717e-06
1.54054e-06
1.54137e-06
1.54087e-06
1.53717e-06
1.53717e-06
1.53717e-06
1.53717e-06
1.53717e-06
1.53717e-06
1.54146e-06
1.54343e-06
1.54336e-06
1.54076e-06
1.53717e-06
1.53717e-06
1.53717e-06
1.53717e-06
1.53717e-06
1.53717e-06
1.54156e-06
1.54322e-06
1.5432e-06
1.54067e-06
1.53717e-06
1.53717e-06
1.53717e-06
1.53717e-06
1.53717e-06
1.53717e-06
1.54154e-06
1.54154e-06
1.54086e-06
1.53717e-06
1.53717e-06
1.53717e-06
1.53717e-06
1.53717e-06
1.53717e-06
1.54153e-06
1.54354e-06
1.54297e-06
1.54054e-06
1.53717e-06
1.53717e-06
1.53717e-06
1.53717e-06
1.5413e-06
1.54152e-06
1.54346e-06
1.54323e-06
1.54137e-06
1.54146e-06
1.54156e-06
1.54153e-06
1.54153e-06
1.54152e-06
1.54345e-06
1.54343e-06
1.54322e-06
1.54154e-06
1.54354e-06
1.54346e-06
1.52441e-06
1.52424e-06
1.52406e-06
1.52191e-06
1.5218e-06
1.52172e-06
1.5219e-06
1.52401e-06
1.52427e-06
1.52406e-06
1.52121e-06
1.51822e-06
1.51822e-06
1.51822e-06
1.51822e-06
1.52159e-06
1.52241e-06
1.52191e-06
1.51822e-06
1.51822e-06
1.51822e-06
1.51822e-06
1.51822e-06
1.51822e-06
1.52251e-06
1.52447e-06
1.52441e-06
1.5218e-06
1.51822e-06
1.51822e-06
1.51822e-06
1.51822e-06
1.51822e-06
1.51822e-06
1.5226e-06
1.52426e-06
1.52424e-06
1.52172e-06
1.51822e-06
1.51822e-06
1.51822e-06
1.51822e-06
1.51822e-06
1.51822e-06
1.52258e-06
1.52259e-06
1.5219e-06
1.51822e-06
1.51822e-06
1.51822e-06
1.51822e-06
1.51822e-06
1.51822e-06
1.52257e-06
1.52458e-06
1.52401e-06
1.52159e-06
1.51822e-06
1.51822e-06
1.51822e-06
1.51822e-06
1.52234e-06
1.52256e-06
1.5245e-06
1.52427e-06
1.52241e-06
1.52251e-06
1.5226e-06
1.52258e-06
1.52257e-06
1.52256e-06
1.52449e-06
1.52447e-06
1.52426e-06
1.52259e-06
1.52458e-06
1.5245e-06
1.50545e-06
1.50528e-06
1.50511e-06
1.50296e-06
1.50284e-06
1.50276e-06
1.50294e-06
1.50505e-06
1.50532e-06
1.50511e-06
1.50225e-06
1.49926e-06
1.49926e-06
1.49926e-06
1.49926e-06
1.50263e-06
1.50346e-06
1.50296e-06
1.49926e-06
1.49926e-06
1.49926e-06
1.49926e-06
1.49926e-06
1.49926e-06
1.50355e-06
1.50552e-06
1.50545e-06
1.50284e-06
1.49926e-06
1.49926e-06
1.49926e-06
1.49926e-06
1.49926e-06
1.49926e-06
1.50364e-06
1.50531e-06
1.50528e-06
1.50276e-06
1.49926e-06
1.49926e-06
1.49926e-06
1.49926e-06
1.49926e-06
1.49926e-06
1.50362e-06
1.50363e-06
1.50294e-06
1.49926e-06
1.49926e-06
1.49926e-06
1.49926e-06
1.49926e-06
1.49926e-06
1.50362e-06
1.50563e-06
1.50505e-06
1.50263e-06
1.49926e-06
1.49926e-06
1.49926e-06
1.49926e-06
1.50339e-06
1.50361e-06
1.50554e-06
1.50532e-06
1.50346e-06
1.50355e-06
1.50364e-06
1.50362e-06
1.50362e-06
1.50361e-06
1.50553e-06
1.50552e-06
1.50531e-06
1.50363e-06
1.50563e-06
1.50554e-06
1.48649e-06
1.48633e-06
1.48615e-06
1.484e-06
1.48389e-06
1.4838e-06
1.48399e-06
1.4861e-06
1.48636e-06
1.48615e-06
1.4833e-06
1.48031e-06
1.48031e-06
1.48031e-06
1.48031e-06
1.48367e-06
1.4845e-06
1.484e-06
1.48031e-06
1.48031e-06
1.48031e-06
1.48031e-06
1.48031e-06
1.48031e-06
1.4846e-06
1.48656e-06
1.4865e-06
1.48389e-06
1.48031e-06
1.48031e-06
1.48031e-06
1.48031e-06
1.48031e-06
1.48031e-06
1.48469e-06
1.48635e-06
1.48633e-06
1.4838e-06
1.48031e-06
1.48031e-06
1.48031e-06
1.48031e-06
1.48031e-06
1.48031e-06
1.48467e-06
1.48468e-06
1.48399e-06
1.48031e-06
1.48031e-06
1.48031e-06
1.48031e-06
1.48031e-06
1.48031e-06
1.48466e-06
1.48667e-06
1.4861e-06
1.48367e-06
1.48031e-06
1.48031e-06
1.48031e-06
1.48031e-06
1.48443e-06
1.48465e-06
1.48659e-06
1.48636e-06
1.4845e-06
1.4846e-06
1.48469e-06
1.48467e-06
1.48466e-06
1.48465e-06
1.48658e-06
1.48656e-06
1.48635e-06
1.48467e-06
1.48667e-06
1.48659e-06
1.46754e-06
1.46737e-06
1.46719e-06
1.46505e-06
1.46493e-06
1.46485e-06
1.46503e-06
1.46714e-06
1.46741e-06
1.46719e-06
1.46434e-06
1.46135e-06
1.46135e-06
1.46135e-06
1.46135e-06
1.46472e-06
1.46555e-06
1.46504e-06
1.46135e-06
1.46135e-06
1.46135e-06
1.46135e-06
1.46135e-06
1.46135e-06
1.46564e-06
1.4676e-06
1.46754e-06
1.46493e-06
1.46135e-06
1.46135e-06
1.46135e-06
1.46135e-06
1.46135e-06
1.46135e-06
1.46573e-06
1.4674e-06
1.46737e-06
1.46485e-06
1.46135e-06
1.46135e-06
1.46135e-06
1.46135e-06
1.46135e-06
1.46135e-06
1.46571e-06
1.46572e-06
1.46503e-06
1.46135e-06
1.46135e-06
1.46135e-06
1.46135e-06
1.46135e-06
1.46135e-06
1.46571e-06
1.46771e-06
1.46714e-06
1.46472e-06
1.46135e-06
1.46135e-06
1.46135e-06
1.46135e-06
1.46547e-06
1.4657e-06
1.46763e-06
1.46741e-06
1.46555e-06
1.46564e-06
1.46573e-06
1.46571e-06
1.4657e-06
1.46569e-06
1.46762e-06
1.4676e-06
1.4674e-06
1.46572e-06
1.46771e-06
1.46763e-06
1.44858e-06
1.44841e-06
1.44824e-06
1.44609e-06
1.44597e-06
1.44589e-06
1.44607e-06
1.44818e-06
1.44845e-06
1.44824e-06
1.44539e-06
1.44239e-06
1.44239e-06
1.44239e-06
1.44239e-06
1.44576e-06
1.44659e-06
1.44609e-06
1.44239e-06
1.44239e-06
1.44239e-06
1.44239e-06
1.44239e-06
1.44239e-06
1.44668e-06
1.44865e-06
1.44858e-06
1.44597e-06
1.44239e-06
1.44239e-06
1.44239e-06
1.44239e-06
1.44239e-06
1.44239e-06
1.44677e-06
1.44844e-06
1.44841e-06
1.44589e-06
1.44239e-06
1.44239e-06
1.44239e-06
1.44239e-06
1.44239e-06
1.44239e-06
1.44675e-06
1.44676e-06
1.44607e-06
1.44239e-06
1.44239e-06
1.44239e-06
1.44239e-06
1.44239e-06
1.44239e-06
1.44675e-06
1.44876e-06
1.44818e-06
1.44576e-06
1.44239e-06
1.44239e-06
1.44239e-06
1.44239e-06
1.44652e-06
1.44674e-06
1.44867e-06
1.44845e-06
1.44659e-06
1.44668e-06
1.44677e-06
1.44675e-06
1.44675e-06
1.44674e-06
1.44866e-06
1.44865e-06
1.44844e-06
1.44676e-06
1.44876e-06
1.44867e-06
1.42962e-06
1.42945e-06
1.42928e-06
1.42713e-06
1.42702e-06
1.42693e-06
1.42712e-06
1.42922e-06
1.42949e-06
1.42928e-06
1.42643e-06
1.42343e-06
1.42343e-06
1.42343e-06
1.42343e-06
1.4268e-06
1.42763e-06
1.42713e-06
1.42343e-06
1.42343e-06
1.42343e-06
1.42343e-06
1.42343e-06
1.42343e-06
1.42772e-06
1.42969e-06
1.42962e-06
1.42702e-06
1.42343e-06
1.42343e-06
1.42343e-06
1.42343e-06
1.42343e-06
1.42343e-06
1.42782e-06
1.42948e-06
1.42945e-06
1.42693e-06
1.42343e-06
1.42343e-06
1.42343e-06
1.42343e-06
1.42343e-06
1.42343e-06
1.4278e-06
1.4278e-06
1.42712e-06
1.42343e-06
1.42343e-06
1.42343e-06
1.42343e-06
1.42343e-06
1.42343e-06
1.42779e-06
1.4298e-06
1.42923e-06
1.4268e-06
1.42343e-06
1.42343e-06
1.42343e-06
1.42343e-06
1.42756e-06
1.42778e-06
1.42972e-06
1.42949e-06
1.42763e-06
1.42772e-06
1.42781e-06
1.42779e-06
1.42779e-06
1.42778e-06
1.42971e-06
1.42969e-06
1.42948e-06
1.4278e-06
1.4298e-06
1.42972e-06
1.41067e-06
1.4105e-06
1.41032e-06
1.40817e-06
1.40806e-06
1.40798e-06
1.40816e-06
1.41027e-06
1.41053e-06
1.41032e-06
1.40747e-06
1.40448e-06
1.40448e-06
1.40448e-06
1.40448e-06
1.40784e-06
1.40867e-06
1.40817e-06
1.40448e-06
1.40448e-06
1.40448e-06
1.40448e-06
1.40448e-06
1.40448e-06
1.40877e-06
1.41073e-06
1.41067e-06
1.40806e-06
1.40448e-06
1.40448e-06
1.40448e-06
1.40448e-06
1.40448e-06
1.40448e-06
1.40886e-06
1.41052e-06
1.4105e-06
1.40798e-06
1.40448e-06
1.40448e-06
1.40448e-06
1.40448e-06
1.40448e-06
1.40448e-06
1.40884e-06
1.40885e-06
1.40816e-06
1.40448e-06
1.40448e-06
1.40448e-06
1.40448e-06
1.40448e-06
1.40448e-06
1.40883e-06
1.41084e-06
1.41027e-06
1.40784e-06
1.40448e-06
1.40448e-06
1.40448e-06
1.40448e-06
1.4086e-06
1.40882e-06
1.41076e-06
1.41053e-06
1.40867e-06
1.40877e-06
1.40886e-06
1.40884e-06
1.40883e-06
1.40882e-06
1.41075e-06
1.41073e-06
1.41052e-06
1.40885e-06
1.41084e-06
1.41076e-06
1.39171e-06
1.39154e-06
1.39136e-06
1.38922e-06
1.3891e-06
1.38902e-06
1.3892e-06
1.39131e-06
1.39158e-06
1.39136e-06
1.38851e-06
1.38552e-06
1.38552e-06
1.38552e-06
1.38552e-06
1.38889e-06
1.38972e-06
1.38921e-06
1.38552e-06
1.38552e-06
1.38552e-06
1.38552e-06
1.38552e-06
1.38552e-06
1.38981e-06
1.39177e-06
1.39171e-06
1.3891e-06
1.38552e-06
1.38552e-06
1.38552e-06
1.38552e-06
1.38552e-06
1.38552e-06
1.3899e-06
1.39157e-06
1.39154e-06
1.38902e-06
1.38552e-06
1.38552e-06
1.38552e-06
1.38552e-06
1.38552e-06
1.38552e-06
1.38988e-06
1.38989e-06
1.3892e-06
1.38552e-06
1.38552e-06
1.38552e-06
1.38552e-06
1.38552e-06
1.38552e-06
1.38988e-06
1.39188e-06
1.39131e-06
1.38889e-06
1.38552e-06
1.38552e-06
1.38552e-06
1.38552e-06
1.38964e-06
1.38987e-06
1.3918e-06
1.39158e-06
1.38972e-06
1.38981e-06
1.3899e-06
1.38988e-06
1.38988e-06
1.38987e-06
1.39179e-06
1.39177e-06
1.39157e-06
1.38989e-06
1.39188e-06
1.3918e-06
1.37275e-06
1.37258e-06
1.37241e-06
1.37026e-06
1.37014e-06
1.37006e-06
1.37024e-06
1.37235e-06
1.37262e-06
1.37241e-06
1.36956e-06
1.36656e-06
1.36656e-06
1.36656e-06
1.36656e-06
1.36993e-06
1.37076e-06
1.37026e-06
1.36656e-06
1.36656e-06
1.36656e-06
1.36656e-06
1.36656e-06
1.36656e-06
1.37085e-06
1.37282e-06
1.37275e-06
1.37014e-06
1.36656e-06
1.36656e-06
1.36656e-06
1.36656e-06
1.36656e-06
1.36656e-06
1.37094e-06
1.37261e-06
1.37258e-06
1.37006e-06
1.36656e-06
1.36656e-06
1.36656e-06
1.36656e-06
1.36656e-06
1.36656e-06
1.37092e-06
1.37093e-06
1.37024e-06
1.36656e-06
1.36656e-06
1.36656e-06
1.36656e-06
1.36656e-06
1.36656e-06
1.37092e-06
1.37293e-06
1.37235e-06
1.36993e-06
1.36656e-06
1.36656e-06
1.36656e-06
1.36656e-06
1.37069e-06
1.37091e-06
1.37284e-06
1.37262e-06
1.37076e-06
1.37085e-06
1.37094e-06
1.37092e-06
1.37092e-06
1.37091e-06
1.37283e-06
1.37282e-06
1.37261e-06
1.37093e-06
1.37293e-06
1.37284e-06
1.3538e-06
1.35363e-06
1.35345e-06
1.3513e-06
1.35119e-06
1.3511e-06
1.35129e-06
1.3534e-06
1.35366e-06
1.35345e-06
1.3506e-06
1.34761e-06
1.34761e-06
1.34761e-06
1.3476e-06
1.35097e-06
1.3518e-06
1.3513e-06
1.34761e-06
1.3476e-06
1.3476e-06
1.3476e-06
1.3476e-06
1.3476e-06
1.3519e-06
1.35386e-06
1.3538e-06
1.35119e-06
1.3476e-06
1.3476e-06
1.3476e-06
1.3476e-06
1.3476e-06
1.3476e-06
1.35199e-06
1.35365e-06
1.35363e-06
1.3511e-06
1.3476e-06
1.3476e-06
1.3476e-06
1.3476e-06
1.3476e-06
1.3476e-06
1.35197e-06
1.35197e-06
1.35129e-06
1.3476e-06
1.3476e-06
1.3476e-06
1.3476e-06
1.3476e-06
1.3476e-06
1.35196e-06
1.35397e-06
1.3534e-06
1.35097e-06
1.3476e-06
1.3476e-06
1.3476e-06
1.3476e-06
1.35173e-06
1.35195e-06
1.35389e-06
1.35366e-06
1.3518e-06
1.3519e-06
1.35199e-06
1.35197e-06
1.35196e-06
1.35195e-06
1.35388e-06
1.35386e-06
1.35365e-06
1.35197e-06
1.35397e-06
1.35389e-06
1.33484e-06
1.33467e-06
1.33449e-06
1.33234e-06
1.33223e-06
1.33215e-06
1.33233e-06
1.33444e-06
1.3347e-06
1.33449e-06
1.33164e-06
1.32865e-06
1.32865e-06
1.32865e-06
1.32865e-06
1.33202e-06
1.33284e-06
1.33234e-06
1.32865e-06
1.32865e-06
1.32865e-06
1.32865e-06
1.32865e-06
1.32865e-06
1.33294e-06
1.3349e-06
1.33484e-06
1.33223e-06
1.32865e-06
1.32865e-06
1.32865e-06
1.32865e-06
1.32865e-06
1.32865e-06
1.33303e-06
1.33469e-06
1.33467e-06
1.33215e-06
1.32865e-06
1.32865e-06
1.32865e-06
1.32865e-06
1.32865e-06
1.32865e-06
1.33301e-06
1.33302e-06
1.33233e-06
1.32865e-06
1.32865e-06
1.32865e-06
1.32865e-06
1.32865e-06
1.32865e-06
1.333e-06
1.33501e-06
1.33444e-06
1.33202e-06
1.32865e-06
1.32865e-06
1.32865e-06
1.32865e-06
1.33277e-06
1.33299e-06
1.33493e-06
1.3347e-06
1.33284e-06
1.33294e-06
1.33303e-06
1.33301e-06
1.333e-06
1.33299e-06
1.33492e-06
1.3349e-06
1.33469e-06
1.33302e-06
1.33501e-06
1.33493e-06
1.31588e-06
1.31571e-06
1.31553e-06
1.31339e-06
1.31327e-06
1.31319e-06
1.31337e-06
1.31548e-06
1.31575e-06
1.31554e-06
1.31268e-06
1.30969e-06
1.30969e-06
1.30969e-06
1.30969e-06
1.31306e-06
1.31389e-06
1.31339e-06
1.30969e-06
1.30969e-06
1.30969e-06
1.30969e-06
1.30969e-06
1.30969e-06
1.31398e-06
1.31595e-06
1.31588e-06
1.31327e-06
1.30969e-06
1.30969e-06
1.30969e-06
1.30969e-06
1.30969e-06
1.30969e-06
1.31407e-06
1.31574e-06
1.31571e-06
1.31319e-06
1.30969e-06
1.30969e-06
1.30969e-06
1.30969e-06
1.30969e-06
1.30969e-06
1.31405e-06
1.31406e-06
1.31337e-06
1.30969e-06
1.30969e-06
1.30969e-06
1.30969e-06
1.30969e-06
1.30969e-06
1.31405e-06
1.31605e-06
1.31548e-06
1.31306e-06
1.30969e-06
1.30969e-06
1.30969e-06
1.30969e-06
1.31381e-06
1.31404e-06
1.31597e-06
1.31575e-06
1.31389e-06
1.31398e-06
1.31407e-06
1.31405e-06
1.31405e-06
1.31404e-06
1.31596e-06
1.31594e-06
1.31574e-06
1.31406e-06
1.31605e-06
1.31597e-06
1.29692e-06
1.29675e-06
1.29658e-06
1.29443e-06
1.29431e-06
1.29423e-06
1.29441e-06
1.29652e-06
1.29679e-06
1.29658e-06
1.29373e-06
1.29073e-06
1.29073e-06
1.29073e-06
1.29073e-06
1.2941e-06
1.29493e-06
1.29443e-06
1.29073e-06
1.29073e-06
1.29073e-06
1.29073e-06
1.29073e-06
1.29073e-06
1.29502e-06
1.29699e-06
1.29692e-06
1.29431e-06
1.29073e-06
1.29073e-06
1.29073e-06
1.29073e-06
1.29073e-06
1.29073e-06
1.29511e-06
1.29678e-06
1.29675e-06
1.29423e-06
1.29073e-06
1.29073e-06
1.29073e-06
1.29073e-06
1.29073e-06
1.29073e-06
1.29509e-06
1.2951e-06
1.29441e-06
1.29073e-06
1.29073e-06
1.29073e-06
1.29073e-06
1.29073e-06
1.29073e-06
1.29509e-06
1.2971e-06
1.29652e-06
1.2941e-06
1.29073e-06
1.29073e-06
1.29073e-06
1.29073e-06
1.29486e-06
1.29508e-06
1.29701e-06
1.29679e-06
1.29493e-06
1.29502e-06
1.29511e-06
1.29509e-06
1.29509e-06
1.29508e-06
1.297e-06
1.29699e-06
1.29678e-06
1.2951e-06
1.2971e-06
1.29701e-06
1.27796e-06
1.2778e-06
1.27762e-06
1.27547e-06
1.27536e-06
1.27527e-06
1.27546e-06
1.27757e-06
1.27783e-06
1.27762e-06
1.27477e-06
1.27177e-06
1.27177e-06
1.27177e-06
1.27177e-06
1.27514e-06
1.27597e-06
1.27547e-06
1.27177e-06
1.27177e-06
1.27177e-06
1.27177e-06
1.27177e-06
1.27177e-06
1.27606e-06
1.27803e-06
1.27796e-06
1.27536e-06
1.27177e-06
1.27177e-06
1.27177e-06
1.27177e-06
1.27177e-06
1.27177e-06
1.27616e-06
1.27782e-06
1.2778e-06
1.27527e-06
1.27177e-06
1.27177e-06
1.27177e-06
1.27177e-06
1.27177e-06
1.27177e-06
1.27614e-06
1.27614e-06
1.27546e-06
1.27177e-06
1.27177e-06
1.27177e-06
1.27177e-06
1.27177e-06
1.27177e-06
1.27613e-06
1.27814e-06
1.27757e-06
1.27514e-06
1.27177e-06
1.27177e-06
1.27177e-06
1.27177e-06
1.2759e-06
1.27612e-06
1.27806e-06
1.27783e-06
1.27597e-06
1.27606e-06
1.27615e-06
1.27613e-06
1.27613e-06
1.27612e-06
1.27805e-06
1.27803e-06
1.27782e-06
1.27614e-06
1.27814e-06
1.27806e-06
1.25901e-06
1.25884e-06
1.25866e-06
1.25651e-06
1.2564e-06
1.25632e-06
1.2565e-06
1.25861e-06
1.25887e-06
1.25866e-06
1.25581e-06
1.25282e-06
1.25282e-06
1.25282e-06
1.25282e-06
1.25618e-06
1.25701e-06
1.25651e-06
1.25282e-06
1.25282e-06
1.25282e-06
1.25282e-06
1.25282e-06
1.25282e-06
1.25711e-06
1.25907e-06
1.25901e-06
1.2564e-06
1.25282e-06
1.25282e-06
1.25282e-06
1.25282e-06
1.25282e-06
1.25282e-06
1.2572e-06
1.25886e-06
1.25884e-06
1.25632e-06
1.25282e-06
1.25282e-06
1.25282e-06
1.25282e-06
1.25282e-06
1.25282e-06
1.25718e-06
1.25719e-06
1.2565e-06
1.25282e-06
1.25282e-06
1.25282e-06
1.25282e-06
1.25282e-06
1.25282e-06
1.25717e-06
1.25918e-06
1.25861e-06
1.25618e-06
1.25282e-06
1.25282e-06
1.25282e-06
1.25282e-06
1.25694e-06
1.25716e-06
1.2591e-06
1.25887e-06
1.25701e-06
1.25711e-06
1.2572e-06
1.25718e-06
1.25717e-06
1.25716e-06
1.25909e-06
1.25907e-06
1.25886e-06
1.25719e-06
1.25918e-06
1.2591e-06
1.24005e-06
1.23988e-06
1.2397e-06
1.23756e-06
1.23744e-06
1.23736e-06
1.23754e-06
1.23965e-06
1.23992e-06
1.2397e-06
1.23685e-06
1.23386e-06
1.23386e-06
1.23386e-06
1.23386e-06
1.23723e-06
1.23805e-06
1.23755e-06
1.23386e-06
1.23386e-06
1.23386e-06
1.23386e-06
1.23386e-06
1.23386e-06
1.23815e-06
1.24011e-06
1.24005e-06
1.23744e-06
1.23386e-06
1.23386e-06
1.23386e-06
1.23386e-06
1.23386e-06
1.23386e-06
1.23824e-06
1.23991e-06
1.23988e-06
1.23736e-06
1.23386e-06
1.23386e-06
1.23386e-06
1.23386e-06
1.23386e-06
1.23386e-06
1.23822e-06
1.23823e-06
1.23754e-06
1.23386e-06
1.23386e-06
1.23386e-06
1.23386e-06
1.23386e-06
1.23386e-06
1.23822e-06
1.24022e-06
1.23965e-06
1.23723e-06
1.23386e-06
1.23386e-06
1.23386e-06
1.23386e-06
1.23798e-06
1.23821e-06
1.24014e-06
1.23992e-06
1.23806e-06
1.23815e-06
1.23824e-06
1.23822e-06
1.23822e-06
1.2382e-06