/*--------------------------------*- C++ -*----------------------------------*\
| =========                 |                                                 |
| \\      /  F ield         | OpenFOAM: The Open Source CFD Toolbox           |
|  \\    /   O peration     | Version:  v2012                                 |
|   \\  /    A nd           | Website:  www.openfoam.com                      |
|    \\/     M anipulation  |                                                 |
\*---------------------------------------------------------------------------*/
FoamFile
{
    version     2.0;
    format      ascii;
    class       volScalarField;
    location    "1800";
    object      nut;
}
// * * * * * * * * * * * * * * * * * * * * * * * * * * * * * * * * * * * * * //

dimensions      [0 2 -1 0 0 0 0];


internalField   nonuniform List<scalar> 
171728
(
1.64333e-06
1.76556e-06
2.36957e-06
1.94041e-06
1.66547e-06
1.81953e-06
2.56878e-06
1.98669e-06
1.66327e-06
1.82737e-06
2.5688e-06
2.05388e-06
1.66303e-06
1.76436e-06
2.3536e-06
2.10109e-06
1.65672e-06
1.70982e-06
2.15256e-06
2.10125e-06
1.64189e-06
1.6755e-06
2.06206e-06
2.06053e-06
1.61549e-06
1.64048e-06
2.01437e-06
2.01783e-06
1.60534e-06
1.59231e-06
1.9654e-06
1.97232e-06
1.59912e-06
1.52982e-06
1.90994e-06
1.92246e-06
1.57843e-06
1.46336e-06
1.84795e-06
1.85433e-06
1.52834e-06
1.39366e-06
1.78278e-06
1.76825e-06
1.48682e-06
1.3239e-06
1.70698e-06
1.66728e-06
1.47933e-06
1.24362e-06
1.62483e-06
1.55544e-06
1.46679e-06
1.15554e-06
1.52572e-06
1.43584e-06
1.44277e-06
1.06908e-06
1.42435e-06
1.31326e-06
1.40546e-06
9.83383e-07
1.31703e-06
1.19842e-06
1.3769e-06
9.29837e-07
1.22254e-06
1.10199e-06
1.34595e-06
9.08312e-07
1.13767e-06
1.04806e-06
1.29767e-06
9.24194e-07
1.13829e-06
1.079e-06
1.26385e-06
1.0466e-06
1.21532e-06
1.21647e-06
1.21471e-06
1.13349e-06
1.40269e-06
1.56687e-06
1.16957e-06
1.6868e-06
1.66222e-06
2.20463e-06
1.154e-06
1.96361e-06
2.30922e-06
3.61179e-06
1.1229e-06
2.94957e-06
2.82123e-06
3.21787e-06
1.07052e-06
3.3481e-06
4.05756e-06
1.66593e-05
1.07162e-06
5.89395e-06
5.29614e-06
1.13889e-05
1.02569e-06
6.07164e-06
7.15508e-06
1.78571e-05
1.04026e-06
1.01377e-05
8.99203e-06
2.51988e-05
1.04068e-06
1.08275e-05
1.17067e-05
3.1047e-05
1.13917e-06
1.48536e-05
1.46282e-05
3.77405e-05
1.22317e-06
1.73399e-05
1.81438e-05
4.66622e-05
1.47753e-06
2.30499e-05
2.17756e-05
5.15717e-05
1.68753e-06
2.51226e-05
2.71258e-05
5.67799e-05
2.07702e-06
3.17227e-05
2.98492e-05
6.5722e-05
3.10441e-06
3.5805e-05
3.78778e-05
6.85882e-05
4.74093e-06
4.03573e-05
4.02869e-05
7.49287e-05
5.22576e-06
4.8244e-05
4.6663e-05
7.8578e-05
5.51197e-06
5.14689e-05
5.32377e-05
8.36209e-05
7.66256e-06
5.92203e-05
5.87407e-05
8.79019e-05
9.64265e-06
6.46667e-05
6.49268e-05
9.14666e-05
1.19925e-05
7.10088e-05
7.01274e-05
9.49106e-05
1.29471e-05
7.6707e-05
7.70752e-05
9.9623e-05
1.73399e-05
8.32173e-05
8.40519e-05
0.000102442
2.02309e-05
8.82227e-05
8.86719e-05
0.000107242
2.34301e-05
9.42648e-05
9.47451e-05
0.000113069
3.15382e-05
0.000102689
0.000101759
0.00011333
3.18904e-05
0.000103467
0.000102665
0.000118635
3.95892e-05
0.000112325
0.00011233
0.000121214
4.54867e-05
0.000118996
0.000118061
0.000123878
5.06665e-05
0.000118353
0.000119013
0.000126595
5.65285e-05
0.000127511
0.000129154
0.000136931
6.62146e-05
0.000129674
0.000130478
0.000136955
7.10524e-05
0.00013548
0.000134774
0.000135204
7.61567e-05
0.000137913
0.000137273
0.00013813
8.6561e-05
0.000143078
0.000144473
0.000147569
9.27246e-05
0.00014961
0.000147385
0.000149557
0.000100902
0.000151264
0.000152913
0.000148988
0.000105819
0.000156537
0.000157162
0.000153858
0.000113647
0.000160057
0.000158176
0.000155931
0.000121156
0.000160448
0.000163294
0.000156327
0.000121559
0.000167
0.000167289
0.000160688
0.000133599
0.000172993
0.000171622
0.000162234
0.000145461
0.000173574
0.000171305
0.000166378
0.000145897
0.000176928
0.000177816
0.000170546
0.00014782
0.000181084
0.000181955
0.000168846
0.000156342
0.000183894
0.000183915
0.000171337
0.000163732
0.000183971
0.000185823
0.00017498
0.000166633
0.00018986
0.000189807
0.000176952
0.000173479
0.000193804
0.00019183
0.000179291
0.000180062
0.000195867
0.000195
0.000180048
0.000184175
0.00019674
0.000198878
0.000180302
0.000189798
0.000198258
0.000200044
0.000183718
0.000191844
0.000200712
0.000199663
0.000184081
0.000198963
0.000208279
0.000205771
0.000189632
0.000205304
0.000210441
0.000210006
0.000190062
0.000208801
0.00020543
0.000207375
0.000183793
0.000208664
0.000207364
0.000206478
0.000191809
0.000213765
0.000217615
0.000215684
0.00019941
0.000223005
0.000216614
0.00021765
0.000191384
0.000223722
0.000211729
0.000214347
0.000187449
0.000221291
0.000217563
0.000218404
0.000199589
0.000228446
0.000222389
0.000223326
0.000199832
0.000233007
0.000221074
0.000218481
0.000192946
0.000233369
0.000218979
0.000216062
0.000196211
0.00023662
0.000223526
0.000225387
0.000202076
0.000240472
0.000224945
0.000227021
0.00019844
0.000240591
0.000221626
0.000224988
0.000196689
0.000241728
0.00022603
0.000222213
0.000201457
0.00024287
0.000225483
0.000219262
0.000201423
0.00024295
0.000220826
0.00023218
0.000198494
0.000253113
0.000232146
0.000238478
0.000203052
0.000255992
0.000237273
0.000222166
0.000203262
0.00024109
0.000218813
0.000217689
0.000197474
0.00023671
0.000212631
0.000224718
0.000193307
0.000259417
0.00023517
0.000237784
0.000206796
2.15092e-06
1.97397e-06
1.89002e-06
2.00871e-06
2.04225e-06
2.22951e-06
1.60064e-06
1.59105e-06
1.70331e-06
1.4903e-06
2.05221e-06
1.76849e-06
2.03451e-06
2.23706e-06
1.96082e-06
1.93587e-06
2.15682e-06
2.22218e-06
1.45691e-06
1.36032e-06
1.45618e-06
1.42915e-06
2.01343e-06
2.09121e-06
1.68851e-06
2.27225e-06
1.74099e-06
2.48556e-06
1.34953e-06
1.80569e-06
1.41617e-06
2.03696e-06
2.16107e-06
1.52614e-06
2.54259e-06
1.57981e-06
1.97938e-06
2.22987e-06
2.249e-06
1.45887e-06
1.45777e-06
1.46956e-06
1.54016e-06
2.10018e-06
2.18131e-06
1.75669e-06
2.51255e-06
1.78415e-06
2.54592e-06
1.44662e-06
1.83423e-06
1.53347e-06
2.16489e-06
2.26325e-06
1.60034e-06
2.59053e-06
1.6436e-06
2.04647e-06
2.24775e-06
2.16584e-06
1.47209e-06
1.56581e-06
1.50226e-06
1.62456e-06
2.18614e-06
2.16998e-06
1.78594e-06
2.51733e-06
1.76714e-06
2.34742e-06
1.56058e-06
1.78163e-06
1.63381e-06
2.26334e-06
2.24808e-06
1.65212e-06
2.41481e-06
1.66079e-06
2.09796e-06
2.15775e-06
2.08504e-06
1.51991e-06
1.63695e-06
1.57136e-06
1.65114e-06
2.16442e-06
2.10124e-06
1.75512e-06
2.29431e-06
1.7214e-06
2.1664e-06
1.64365e-06
1.72088e-06
1.66004e-06
2.23956e-06
2.20015e-06
1.66003e-06
2.19308e-06
1.65036e-06
2.10456e-06
2.08152e-06
2.05078e-06
1.58755e-06
1.64798e-06
1.72348e-06
1.63283e-06
2.09758e-06
2.06504e-06
1.71105e-06
2.14169e-06
1.68698e-06
2.08801e-06
1.66086e-06
1.68322e-06
1.65358e-06
2.1969e-06
2.17474e-06
1.64666e-06
2.07721e-06
1.62225e-06
2.06539e-06
2.05207e-06
2.0899e-06
1.80389e-06
1.62619e-06
2.12317e-06
1.6052e-06
2.06049e-06
2.02247e-06
1.68106e-06
2.07058e-06
1.66418e-06
2.05221e-06
1.64907e-06
1.64958e-06
1.63299e-06
2.17179e-06
2.14564e-06
1.60988e-06
2.02536e-06
1.56008e-06
2.02245e-06
2.09474e-06
2.17077e-06
2.25682e-06
1.59677e-06
2.69086e-06
1.57911e-06
2.01783e-06
1.98376e-06
1.65582e-06
2.04635e-06
1.62622e-06
2.0162e-06
1.62696e-06
1.60468e-06
1.60558e-06
2.1412e-06
2.10215e-06
1.54032e-06
1.97819e-06
1.47647e-06
1.97688e-06
2.17213e-06
2.21863e-06
2.82626e-06
1.57281e-06
3.11633e-06
1.53956e-06
1.97863e-06
1.92902e-06
1.61343e-06
2.00263e-06
1.57378e-06
1.95755e-06
1.59864e-06
1.54659e-06
1.56751e-06
2.09665e-06
2.04961e-06
1.4539e-06
1.92445e-06
1.39103e-06
1.92694e-06
2.21248e-06
2.14936e-06
3.17376e-06
1.52218e-06
3.19623e-06
1.45966e-06
1.92352e-06
1.85757e-06
1.55934e-06
1.94049e-06
1.51159e-06
1.88235e-06
1.55641e-06
1.47962e-06
1.51407e-06
2.04216e-06
1.9873e-06
1.37222e-06
1.86323e-06
1.32054e-06
1.85924e-06
2.131e-06
1.97445e-06
3.089e-06
1.43759e-06
2.67661e-06
1.37406e-06
1.85103e-06
1.76652e-06
1.49481e-06
1.85798e-06
1.43841e-06
1.78377e-06
1.49846e-06
1.41069e-06
1.45006e-06
1.97821e-06
1.91245e-06
1.30419e-06
1.79996e-06
1.25048e-06
1.77442e-06
1.95509e-06
1.79868e-06
2.51538e-06
1.35522e-06
2.06727e-06
1.30152e-06
1.75928e-06
1.67037e-06
1.4186e-06
1.75623e-06
1.35796e-06
1.67338e-06
1.4312e-06
1.34014e-06
1.37249e-06
1.90196e-06
1.8266e-06
1.231e-06
1.72692e-06
1.17191e-06
1.67647e-06
1.78161e-06
1.65261e-06
1.94097e-06
1.2816e-06
1.65216e-06
1.22931e-06
1.66083e-06
1.57021e-06
1.33688e-06
1.64778e-06
1.27185e-06
1.56547e-06
1.35207e-06
1.26285e-06
1.28386e-06
1.81431e-06
1.73459e-06
1.15283e-06
1.64596e-06
1.08923e-06
1.56814e-06
1.63744e-06
1.53436e-06
1.57839e-06
1.20773e-06
1.41846e-06
1.14664e-06
1.55658e-06
1.45817e-06
1.25177e-06
1.53902e-06
1.17651e-06
1.45787e-06
1.26101e-06
1.17145e-06
1.18861e-06
1.71962e-06
1.64073e-06
1.06721e-06
1.55029e-06
1.00611e-06
1.45242e-06
1.51648e-06
1.41238e-06
1.37806e-06
1.12978e-06
1.26316e-06
1.05865e-06
1.43982e-06
1.35282e-06
1.15811e-06
1.43562e-06
1.08119e-06
1.37024e-06
1.16612e-06
1.0801e-06
1.09181e-06
1.62272e-06
1.53962e-06
9.87842e-07
1.44944e-06
9.31128e-07
1.33385e-06
1.39072e-06
1.29679e-06
1.22857e-06
1.04539e-06
1.15046e-06
9.79974e-07
1.3311e-06
1.24369e-06
1.05896e-06
1.34833e-06
1.00523e-06
1.26638e-06
1.07461e-06
9.99954e-07
1.01369e-06
1.51692e-06
1.42977e-06
9.14564e-07
1.33605e-06
8.62278e-07
1.22141e-06
1.27319e-06
1.19478e-06
1.1003e-06
9.64477e-07
1.08053e-06
9.21379e-07
1.21849e-06
1.13187e-06
9.67292e-07
1.25573e-06
9.66521e-07
1.17082e-06
9.93506e-07
9.41801e-07
9.41623e-07
1.40343e-06
1.34023e-06
8.42609e-07
1.23874e-06
8.13378e-07
1.11642e-06
1.18551e-06
1.0701e-06
1.05255e-06
9.09885e-07
1.00749e-06
8.92787e-07
1.11693e-06
1.09563e-06
9.45782e-07
1.15773e-06
9.06768e-07
1.09992e-06
9.32093e-07
9.15645e-07
8.99136e-07
1.31331e-06
1.2466e-06
8.04325e-07
1.15321e-06
7.96373e-07
1.05972e-06
1.05078e-06
1.21209e-06
1.00101e-06
8.83465e-07
1.01427e-06
9.02631e-07
1.08422e-06
1.07482e-06
9.08319e-07
1.08791e-06
9.70931e-07
1.07714e-06
8.93595e-07
9.20678e-07
9.14869e-07
1.23544e-06
1.21634e-06
7.96185e-07
1.12978e-06
8.26056e-07
1.05589e-06
1.22254e-06
1.07167e-06
1.03588e-06
9.02661e-07
1.00382e-06
9.84317e-07
1.08533e-06
1.18275e-06
9.82058e-07
1.07576e-06
9.5253e-07
1.14846e-06
9.26021e-07
9.97181e-07
9.89759e-07
1.21672e-06
1.33979e-06
8.52955e-07
1.20518e-06
9.08877e-07
1.1778e-06
1.15253e-06
1.87146e-06
1.07527e-06
1.03129e-06
1.27001e-06
1.1358e-06
1.25836e-06
1.45678e-06
1.02918e-06
1.15712e-06
1.27587e-06
1.2858e-06
1.00948e-06
1.14435e-06
1.17726e-06
1.37967e-06
1.56144e-06
9.61061e-07
1.34109e-06
1.0996e-06
1.47438e-06
1.90135e-06
1.87809e-06
1.28303e-06
1.12497e-06
1.41408e-06
1.49028e-06
1.44768e-06
2.26445e-06
1.2938e-06
1.35209e-06
1.40197e-06
1.56213e-06
1.22142e-06
1.51184e-06
1.44571e-06
1.69707e-06
2.21371e-06
1.11915e-06
1.65699e-06
1.46554e-06
1.99578e-06
2.03764e-06
3.19824e-06
1.51095e-06
1.6739e-06
1.97605e-06
1.8884e-06
2.71101e-06
3.34367e-06
1.49998e-06
1.58158e-06
1.94242e-06
2.02969e-06
1.56274e-06
1.89469e-06
1.93683e-06
2.3263e-06
3.03008e-06
1.57168e-06
2.05695e-06
1.85215e-06
3.30946e-06
3.56381e-06
4.67912e-06
2.11537e-06
1.9652e-06
2.54442e-06
2.61506e-06
3.35092e-06
4.7886e-06
2.0873e-06
2.29006e-06
2.52199e-06
2.53646e-06
2.13714e-06
2.58706e-06
2.24612e-06
3.52261e-06
4.98434e-06
2.07417e-06
2.63928e-06
2.22208e-06
3.5786e-06
5.02368e-06
8.07677e-06
2.83036e-06
2.96762e-06
3.49873e-06
3.23698e-06
5.44718e-06
7.09694e-06
2.8027e-06
2.71727e-06
3.61266e-06
3.77515e-06
2.13683e-06
3.21761e-06
4.84902e-06
4.97246e-06
8.52646e-06
2.2628e-06
3.7654e-06
4.69279e-06
1.49656e-05
8.54438e-06
1.1517e-05
3.76336e-06
3.26366e-06
4.8738e-06
5.40972e-06
7.10246e-06
1.3731e-05
3.82291e-06
4.04432e-06
4.76945e-06
4.93162e-06
5.35333e-06
5.39033e-06
5.356e-06
9.46947e-06
1.15561e-05
5.09606e-06
5.03696e-06
5.12533e-06
1.21796e-05
1.26503e-05
1.70723e-05
5.45094e-06
5.96329e-06
6.31315e-06
6.06357e-06
1.53697e-05
1.53653e-05
5.31307e-06
5.19738e-06
6.57071e-06
6.37415e-06
5.19616e-06
5.92056e-06
5.93219e-06
1.23305e-05
1.58067e-05
4.91611e-06
6.43346e-06
6.32662e-06
1.44629e-05
1.77422e-05
2.11286e-05
6.6145e-06
6.08041e-06
8.44118e-06
9.35043e-06
1.4779e-05
2.61237e-05
6.80919e-06
7.02861e-06
8.36173e-06
8.71343e-06
7.25006e-06
9.33143e-06
8.35912e-06
1.70119e-05
2.34504e-05
7.49099e-06
8.53646e-06
8.42631e-06
2.51536e-05
2.25054e-05
2.96771e-05
9.08961e-06
1.0185e-05
1.06468e-05
1.02924e-05
2.85732e-05
2.98012e-05
9.04317e-06
8.95438e-06
1.06605e-05
1.13896e-05
8.7046e-06
1.02574e-05
1.10781e-05
2.46454e-05
2.91136e-05
8.64772e-06
1.11955e-05
1.10204e-05
2.85474e-05
3.08052e-05
3.67654e-05
1.12992e-05
1.06589e-05
1.41097e-05
1.40113e-05
2.93893e-05
3.60719e-05
1.14394e-05
1.22689e-05
1.39664e-05
1.33554e-05
1.18448e-05
1.40806e-05
1.38288e-05
3.04267e-05
3.67579e-05
1.18909e-05
1.3793e-05
1.40321e-05
3.73823e-05
3.82581e-05
4.40898e-05
1.48635e-05
1.4721e-05
1.67012e-05
1.67589e-05
3.87495e-05
4.29034e-05
1.46305e-05
1.46067e-05
1.67114e-05
1.72248e-05
1.4579e-05
1.647e-05
1.69914e-05
3.79191e-05
4.35034e-05
1.45977e-05
1.72089e-05
1.69075e-05
4.48288e-05
4.55345e-05
5.10015e-05
1.7841e-05
1.77559e-05
2.13978e-05
2.15358e-05
4.3711e-05
5.25214e-05
1.81146e-05
1.78949e-05
2.16656e-05
2.16842e-05
1.81602e-05
2.16578e-05
2.14386e-05
4.54643e-05
5.03258e-05
1.81227e-05
2.11316e-05
2.19121e-05
5.00917e-05
5.26038e-05
5.67323e-05
2.20533e-05
2.27633e-05
2.40517e-05
2.45787e-05
5.38991e-05
5.64943e-05
2.19957e-05
2.248e-05
2.42582e-05
2.56134e-05
2.14326e-05
2.45112e-05
2.40771e-05
5.13629e-05
5.79486e-05
2.19673e-05
2.54181e-05
2.36525e-05
5.54075e-05
5.76972e-05
6.28967e-05
2.60126e-05
2.52154e-05
2.96187e-05
2.95723e-05
5.78295e-05
6.33585e-05
2.63558e-05
2.7361e-05
3.01395e-05
2.97092e-05
2.6229e-05
2.97881e-05
3.06136e-05
5.89377e-05
6.23037e-05
2.5862e-05
2.90975e-05
3.14932e-05
6.47099e-05
6.40117e-05
6.75031e-05
2.97151e-05
3.14896e-05
3.54076e-05
3.61504e-05
6.49715e-05
6.84365e-05
3.03007e-05
3.04558e-05
3.37397e-05
3.59271e-05
3.13331e-05
3.60538e-05
3.37579e-05
6.41194e-05
6.93549e-05
3.21571e-05
3.5683e-05
3.29707e-05
6.75724e-05
6.91744e-05
7.5994e-05
3.82544e-05
3.60576e-05
4.49575e-05
3.76991e-05
6.89586e-05
7.15029e-05
3.51481e-05
3.81167e-05
4.09427e-05
4.14657e-05
3.52902e-05
3.78504e-05
4.08589e-05
7.06813e-05
7.35626e-05
3.47867e-05
4.02298e-05
4.0982e-05
7.38873e-05
7.68937e-05
7.82792e-05
4.66414e-05
4.01617e-05
4.87039e-05
4.7065e-05
7.32873e-05
7.94082e-05
4.29222e-05
4.10537e-05
4.60483e-05
4.38316e-05
4.1646e-05
4.6444e-05
4.45666e-05
7.40815e-05
7.6757e-05
4.17685e-05
4.42194e-05
4.48337e-05
7.75418e-05
7.8753e-05
8.10802e-05
4.86252e-05
4.88736e-05
4.99636e-05
5.06802e-05
8.02571e-05
8.18084e-05
4.69564e-05
4.64837e-05
5.01851e-05
5.23055e-05
4.66483e-05
5.11079e-05
5.13391e-05
7.83799e-05
8.3219e-05
4.67211e-05
5.23392e-05
5.09433e-05
8.2691e-05
8.22191e-05
8.73887e-05
5.11282e-05
5.09876e-05
5.85635e-05
5.62296e-05
8.24479e-05
8.69432e-05
5.11087e-05
5.31989e-05
5.69445e-05
5.73336e-05
5.20916e-05
5.63747e-05
5.77511e-05
8.39215e-05
8.64594e-05
5.19461e-05
5.69827e-05
5.8062e-05
8.68414e-05
8.86882e-05
9.18046e-05
6.16616e-05
5.9111e-05
6.64303e-05
6.56578e-05
8.82876e-05
9.11193e-05
5.97156e-05
5.89486e-05
6.32898e-05
6.30604e-05
5.98086e-05
6.49315e-05
6.2612e-05
8.75309e-05
9.08305e-05
5.98666e-05
6.31181e-05
6.25577e-05
9.07505e-05
9.24964e-05
9.47211e-05
6.69059e-05
6.56123e-05
7.18405e-05
6.78522e-05
9.16369e-05
9.38906e-05
6.4182e-05
6.50605e-05
7.03163e-05
6.93811e-05
6.39279e-05
6.80092e-05
6.95122e-05
9.16164e-05
9.40734e-05
6.41081e-05
6.92982e-05
6.97116e-05
9.39665e-05
9.53291e-05
9.81272e-05
7.27384e-05
7.1002e-05
7.43289e-05
7.59981e-05
9.50677e-05
9.88958e-05
7.15341e-05
6.99654e-05
7.38565e-05
7.45461e-05
7.08325e-05
7.59212e-05
7.43547e-05
9.48463e-05
9.87557e-05
7.08293e-05
7.46636e-05
7.41598e-05
9.87944e-05
9.9244e-05
0.000103129
7.58099e-05
7.66211e-05
8.25057e-05
8.08758e-05
9.97087e-05
0.000102778
7.54201e-05
7.70312e-05
8.29178e-05
8.4145e-05
7.59633e-05
8.10884e-05
8.34096e-05
9.99023e-05
0.000103013
7.59832e-05
8.39204e-05
8.30662e-05
0.000102003
0.000103792
0.000105042
8.45728e-05
8.3039e-05
8.7166e-05
8.89035e-05
0.000103517
0.000105063
8.45617e-05
8.46161e-05
8.62473e-05
8.50929e-05
8.42829e-05
8.86042e-05
8.55674e-05
0.000103448
0.000104881
8.38332e-05
8.58226e-05
8.44331e-05
0.000105685
0.000105604
0.000110536
8.75664e-05
8.86987e-05
9.26007e-05
9.10652e-05
0.000105389
0.000110336
8.7228e-05
8.82557e-05
9.30035e-05
9.40219e-05
8.78317e-05
9.11397e-05
9.59918e-05
0.000106081
0.000111013
8.7299e-05
9.3878e-05
9.67734e-05
0.000112546
0.00011174
0.000114862
9.523e-05
9.39498e-05
0.000102025
0.00010108
0.000111868
0.000114775
9.54317e-05
9.4765e-05
0.000101646
9.95425e-05
9.81625e-05
0.000101203
9.96915e-05
0.000111556
0.000113609
9.86769e-05
9.96807e-05
0.000101836
0.000113196
0.000115207
0.000115839
0.000103095
0.000102791
0.000101969
0.000103952
0.000114976
0.000116063
0.000102299
0.000101816
0.000101739
0.000102883
9.94237e-05
0.00010416
0.000102846
0.000114277
0.000116045
0.00010158
0.00010241
0.000102623
0.000117532
0.0001165
0.000122286
0.000102846
0.000103316
0.000111078
0.000109898
0.000116836
0.000122353
0.000103618
0.000102961
0.000111384
0.000109779
0.000104937
0.000109211
0.00011048
0.000116534
0.000121889
0.000104537
0.00010975
0.000110181
0.000120954
0.000123055
0.000123818
0.000113325
0.00011286
0.000114501
0.000118102
0.000123547
0.000125629
0.000112882
0.000112323
0.000113976
0.000117657
0.00011201
0.000117994
0.000115073
0.000123019
0.000125176
0.000111372
0.000117599
0.000114229
0.00012338
0.000123936
0.000128274
0.000114085
0.000118727
0.000120396
0.000117619
0.000125855
0.000126971
0.000114579
0.00011799
0.000119952
0.000116817
0.000114929
0.000118589
0.000116243
0.000125354
0.000126671
0.000114295
0.00011686
0.000114047
0.000125335
0.000129344
0.000131361
0.000121868
0.000118364
0.000123884
0.000125737
0.000127403
0.000132028
0.000121617
0.000119327
0.000124642
0.000127495
0.000119225
0.000125205
0.000129173
0.000127838
0.000133767
0.000117452
0.000127344
0.000129932
0.000135937
0.000131932
0.000135664
0.000125724
0.000127494
0.00013099
0.000127978
0.000132845
0.00013421
0.000125942
0.000129097
0.000130801
0.000129731
0.000131103
0.000129254
0.000132687
0.000134247
0.000134576
0.000132568
0.000130946
0.000134839
0.000137126
0.000136073
0.000136731
0.000131345
0.000128624
0.000132773
0.000133901
0.000134463
0.000138023
0.000132117
0.000129152
0.0001324
0.00013343
0.0001325
0.000133697
0.000130434
0.00013452
0.000137399
0.000134755
0.000132935
0.000133215
0.000135075
0.000137043
0.000140603
0.000133911
0.000135785
0.000137817
0.000138853
0.000138826
0.000140634
0.000132411
0.000135678
0.000138012
0.000137409
0.00013101
0.000138236
0.000134748
0.000138535
0.000140238
0.000132756
0.000136748
0.000130662
0.000137329
0.000141356
0.000144413
0.000139009
0.000138628
0.000142646
0.000140317
0.00014072
0.000142926
0.000139752
0.000137249
0.000142367
0.00014208
0.000136346
0.000140617
0.0001441
0.000140302
0.000144022
0.000132435
0.000142231
0.000143076
0.000146051
0.000144985
0.000147209
0.000143904
0.000142689
0.000147416
0.000148752
0.000144185
0.000147975
0.000143296
0.000144298
0.000147268
0.000148091
0.00014641
0.000148999
0.000149823
0.000145132
0.000147182
0.000146448
0.000147665
0.000151983
0.000149646
0.000147659
0.000149353
0.000148476
0.000149441
0.000150725
0.000149397
0.00014817
0.000148801
0.000148815
0.000147865
0.000150807
0.000149629
0.000150081
0.000149776
0.000148754
0.000147141
0.000149549
0.00015253
0.0001508
0.000152706
0.000148755
0.000149508
0.000152305
0.000151158
0.000151198
0.000153994
0.000155806
0.000149697
0.000153544
0.000150852
0.00015188
0.000154097
0.000157089
0.000148584
0.000155563
0.000155315
0.000150839
0.000153832
0.000152307
0.00015688
0.000153662
0.000153046
0.000153361
0.000156357
0.00015567
0.000156423
0.000159905
0.000158848
0.000153857
0.000155009
0.000155984
0.000157653
0.000159996
0.000157224
0.000157333
0.0001592
0.000160631
0.000153958
0.000153856
0.000154972
0.000156715
0.000159287
0.000155784
0.000156389
0.000155814
0.000160677
0.000159781
0.000161754
0.000160857
0.000155248
0.000155759
0.000160761
0.000158392
0.000161645
0.000162932
0.000161151
0.000160402
0.00016098
0.000154402
0.000157936
0.000160379
0.000162641
0.000161061
0.000156097
0.00015558
0.000158729
0.000161423
0.000161077
0.000162338
0.000164328
0.000155891
0.00016019
0.000161218
0.000163526
0.00016354
0.000165527
0.000160832
0.000164758
0.000164114
0.000158214
0.000160552
0.000161501
0.000165905
0.000164884
0.000160031
0.000160261
0.000165395
0.000164786
0.000166367
0.000172449
0.000171961
0.000161358
0.000164591
0.000166032
0.000166917
0.000172341
0.000170893
0.000165947
0.000171998
0.000170017
0.000161309
0.000163544
0.000166377
0.000170881
0.000170076
0.000162265
0.000165736
0.000166461
0.000174076
0.000173191
0.000176068
0.000173996
0.000164844
0.000165214
0.000173503
0.000171711
0.000174973
0.000172203
0.000170376
0.000173623
0.000172663
0.000163695
0.000163361
0.000170326
0.000171687
0.000172107
0.000165054
0.000166423
0.000167037
0.000176074
0.000174197
0.000176401
0.000176114
0.000165193
0.00016723
0.000174823
0.000171824
0.000175686
0.00017519
0.000174585
0.000175941
0.000179144
0.000163325
0.000167662
0.000173984
0.000175787
0.000178989
0.000170637
0.000167151
0.00016845
0.000176343
0.000176448
0.000176614
0.000178758
0.000167534
0.000170178
0.000176281
0.000177441
0.000178345
0.000181078
0.000179691
0.000180146
0.000180534
0.00016868
0.000171007
0.00017964
0.000181569
0.0001806
0.00016914
0.00016926
0.000172935
0.000178405
0.000180189
0.000183625
0.000183724
0.000170821
0.000172539
0.000179694
0.000181811
0.000183737
0.000183976
0.000180407
0.000183339
0.00018037
0.00017125
0.000172605
0.000180566
0.000183001
0.000180158
0.000170478
0.000173181
0.000173811
0.000184756
0.000184411
0.000186064
0.000184927
0.000172561
0.000172544
0.000184697
0.000184611
0.000185655
0.000185243
0.000182069
0.000183903
0.00018588
0.000172797
0.000173275
0.000181766
0.000185397
0.000186407
0.000174823
0.000173861
0.000175996
0.000186093
0.000184827
0.000188202
0.000187705
0.000172631
0.000175999
0.000185674
0.000185065
0.000188116
0.000187544
0.000186557
0.000188232
0.000189147
0.000173325
0.000176118
0.000187217
0.000188608
0.00018926
0.000176512
0.000176369
0.000178396
0.000189179
0.000189222
0.000191684
0.000192855
0.000176671
0.000179526
0.000188987
0.000189206
0.00019143
0.000191974
0.000190205
0.000193112
0.000192667
0.000176721
0.000178309
0.00019002
0.000191738
0.000192214
0.000179085
0.00017883
0.000180593
0.00019265
0.000193792
0.000195263
0.00019563
0.000179834
0.000181056
0.000192475
0.000192549
0.000195393
0.000194846
0.000193319
0.000195487
0.000194543
0.000178327
0.000179982
0.000192921
0.000193967
0.000194739
0.000180143
0.000180576
0.000181471
0.000195587
0.000196009
0.000196363
0.00019639
0.000180994
0.000181103
0.000195736
0.000195282
0.000196393
0.000197857
0.000194779
0.000196669
0.000195195
0.000180287
0.000182903
0.000195142
0.00019827
0.000195409
0.000180064
0.000181917
0.000183831
0.000197173
0.000196352
0.000199671
0.000198282
0.000181107
0.000182321
0.000197255
0.000198793
0.000199884
0.000200445
0.000195498
0.000197597
0.000198749
0.00018324
0.000184326
0.000195511
0.000199991
0.000198396
0.000183289
0.000183792
0.000183632
0.000200024
0.000199005
0.000200406
0.000199573
0.00018256
0.000183053
0.000200238
0.000200599
0.000200555
0.00020019
0.000199767
0.000199662
0.000201117
0.000184068
0.000182634
0.000199403
0.000199924
0.000201018
0.000184139
0.000183871
0.000187446
0.000200669
0.00019994
0.000204543
0.000206706
0.000183193
0.000189818
0.000200892
0.000199925
0.000203781
0.000202191
0.000201584
0.000207086
0.000206419
0.000182366
0.000186473
0.000201592
0.000203571
0.000206679
0.000189157
0.000187938
0.000189788
0.000206089
0.00020822
0.000208203
0.000211286
0.000190404
0.000192312
0.000205043
0.00020467
0.000208013
0.000208623
0.000207437
0.000211191
0.000210234
0.000187569
0.000191371
0.000207701
0.000208785
0.000210631
0.000191381
0.000189763
0.000189177
0.000208811
0.000210981
0.000208476
0.000206004
0.000191121
0.000185874
0.000208384
0.000209583
0.000209226
0.000208928
0.000209091
0.000205817
0.000205544
0.000191396
0.00018852
0.000209482
0.000207993
0.000205517
0.00018498
0.000188965
0.000188612
0.000208056
0.000205564
0.00020745
0.000203184
0.000185144
0.00018653
0.000208892
0.000208264
0.000208418
0.000206729
0.000204907
0.000203299
0.000206279
0.000188073
0.000187249
0.000204926
0.000205383
0.000205736
0.000189704
0.000188674
0.00019301
0.000207049
0.000206414
0.00021276
0.000215908
0.000188215
0.000197022
0.000208001
0.000206864
0.000212257
0.00021373
0.000211049
0.000216584
0.000217636
0.0001879
0.000194523
0.000210376
0.000214662
0.000216997
0.000199541
0.00019367
0.000196754
0.000214669
0.000216947
0.000217293
0.000219714
0.000197393
0.000196048
0.000214117
0.000215036
0.000216677
0.000217489
0.000219575
0.000219555
0.000216494
0.000194868
0.000196229
0.00021884
0.000218565
0.000216168
0.000192668
0.000196775
0.000193465
0.000218733
0.000217537
0.000215844
0.000213478
0.000194482
0.000190152
0.000217985
0.00021782
0.000216085
0.00021539
0.000213775
0.000212611
0.000210094
0.000195518
0.000192678
0.000213889
0.000214824
0.000210339
0.00018705
0.000192888
0.000191722
0.000214964
0.000213063
0.000212512
0.000213225
0.000189647
0.000194449
0.000215324
0.00021514
0.000213009
0.000214209
0.000208408
0.000214632
0.000218324
0.000192041
0.000194674
0.000208925
0.000215896
0.000219381
0.000198837
0.00019271
0.000198568
0.000213651
0.000215927
0.000219743
0.000220707
0.000195568
0.000199093
0.000214109
0.000216548
0.000219831
0.000220614
0.00022057
0.000221406
0.000224769
0.000195663
0.000199878
0.000221251
0.000221692
0.000225646
0.000201366
0.000198665
0.000197145
0.000220685
0.000221398
0.000221506
0.000222398
0.000198984
0.000197899
0.000220805
0.000221782
0.000221439
0.000220971
0.000224332
0.000221994
0.000218654
0.000199787
0.000196049
0.000224526
0.000219807
0.000217691
0.000193693
0.000196789
0.000196442
0.000220986
0.000221657
0.000220388
0.000220442
0.000197476
0.000195982
0.00022076
0.000219652
0.000219884
0.000217687
0.000218082
0.000219792
0.000216674
0.000195357
0.000193413
0.000217038
0.000216066
0.000215167
0.000194889
0.000196504
0.000199823
0.000220026
0.000219814
0.000223157
0.000222415
0.000195453
0.000199313
0.000219517
0.00021707
0.000223216
0.000223459
0.000219241
0.000222667
0.00022406
0.000193867
0.000200847
0.000218191
0.00022415
0.000224611
0.00020199
0.000199984
0.000200273
0.000223812
0.000223502
0.000225858
0.000226444
0.000199676
0.00020113
0.000223865
0.000224797
0.000225606
0.000226651
0.000225046
0.000226206
0.00022471
0.000201173
0.000201457
0.000225555
0.000227404
0.000225945
0.000199155
0.00019969
0.000197806
0.000225202
0.000225655
0.000223422
0.000223016
0.000200158
0.000196538
0.000224938
0.000226614
0.000223572
0.000225721
0.000223477
0.000222496
0.000221785
0.000201127
0.000200672
0.00022453
0.000225397
0.000222657
0.00019673
0.000197909
0.00020097
0.000223015
0.000222209
0.000224641
0.000224632
0.00019614
0.000201255
0.000223592
0.000225433
0.000224658
0.000222716
0.000221038
0.000225202
0.000225924
0.000200419
0.000197735
0.000222095
0.000222789
0.000224901
0.000201223
0.000201123
0.000199549
0.000225328
0.000225405
0.00022577
0.000226344
0.000201626
0.000200262
0.000225654
0.000221962
0.000224636
0.000219939
0.000226666
0.000227237
0.000229417
0.000197141
0.000193339
0.000225517
0.000220703
0.000227442
0.000202236
0.000199071
0.000198114
0.000224985
0.000224933
0.000222713
0.000221951
0.000199243
0.000195031
0.000224384
0.000218171
0.000223779
0.000230513
0.000227784
0.000222441
0.000225194
0.000193113
0.000205706
0.00022676
0.000229736
0.000225664
0.000198863
0.000199107
0.000206152
0.000223049
0.000220509
0.000231143
0.000231325
0.000195315
0.000205863
0.000227092
0.000233194
0.000232133
0.000239156
0.000224198
0.000230644
0.000228021
0.000206836
0.000212652
0.00022533
0.000237158
0.000229054
0.000202827
0.000206429
0.000204437
0.000231883
0.000232817
0.000235441
0.000239307
0.000206452
0.000211007
0.000233366
0.000240572
0.000231272
0.00022463
0.000229205
0.000237976
0.00023141
0.000210726
0.000196226
0.000229502
0.000225809
0.000231145
0.000204047
0.000202277
0.000194331
0.000232419
0.000238036
0.000221249
0.000220657
0.000208561
0.000193298
0.000227503
0.00022029
0.000219347
0.000215892
0.00023212
0.000221702
0.000225397
0.000194272
0.000190433
0.00022972
0.000218059
0.000224469
0.000198495
0.000193654
0.000191068
0.000219218
0.000217733
0.000215929
0.000212371
0.000191939
0.000188042
0.000218519
0.000214846
0.000215824
0.000221021
0.0002233
0.000214221
0.00022049
0.000190309
0.000198249
0.000223204
0.000220964
0.000221373
0.000194503
0.000192158
0.000208717
0.000214233
0.000211416
0.000234093
0.000233969
0.000189256
0.000208289
0.000218089
0.000226483
0.000236908
0.000240346
0.00021903
0.000232835
0.000228678
0.00020009
0.00021093
0.000220319
0.000237505
0.000229429
0.000203274
0.00021206
0.000236287
0.000236282
0.000211746
0.000238033
0.00024047
0.000255977
0.000262014
0.000251445
0.000230703
0.000214135
0.00023097
1.66259e-06
2.06351e-06
1.07898e-06
9.98044e-07
1.28344e-06
1.99905e-06
6.11109e-07
1.2277e-06
1.14852e-06
2.21386e-06
1.33828e-06
1.7138e-06
1.90837e-06
2.84618e-07
9.3142e-07
1.05499e-06
1.33475e-05
9.70027e-07
1.51417e-05
1.05279e-05
1.27484e-05
1.34444e-06
1.33135e-05
1.24587e-06
1.50857e-05
1.64044e-06
1.74127e-06
1.53335e-06
1.66556e-06
1.66167e-06
1.72792e-06
1.55646e-06
1.29256e-06
2.99582e-07
1.61834e-06
1.77825e-06
1.27581e-06
4.06565e-07
1.62531e-06
1.0819e-05
1.29468e-05
1.13335e-06
2.16408e-06
6.86741e-07
2.43546e-06
1.13988e-06
2.16734e-06
8.40018e-07
1.24134e-06
1.29794e-06
1.95622e-06
1.46451e-06
1.49357e-06
1.25583e-06
1.83654e-05
1.17813e-06
2.08624e-05
1.68109e-05
1.89979e-05
1.52415e-06
1.8308e-05
1.43442e-06
2.07203e-05
1.66213e-06
1.7248e-06
1.5589e-06
1.66422e-06
1.66283e-06