/*--------------------------------*- C++ -*----------------------------------*\
| =========                 |                                                 |
| \\      /  F ield         | OpenFOAM: The Open Source CFD Toolbox           |
|  \\    /   O peration     | Version:  v2012                                 |
|   \\  /    A nd           | Website:  www.openfoam.com                      |
|    \\/     M anipulation  |                                                 |
\*---------------------------------------------------------------------------*/
FoamFile
{
    version     2.0;
    format      ascii;
    class       volScalarField;
    location    "1112.5";
    object      epsilon;
}
// * * * * * * * * * * * * * * * * * * * * * * * * * * * * * * * * * * * * * //

dimensions      [0 2 -3 0 0 0 0];


internalField   nonuniform List<scalar> 
171728
(
1.46612e-09
3.75408e-09
9.29409e-09
4.79473e-09
1.44005e-09
3.50491e-09
9.45229e-09
4.43741e-09
1.38116e-09
3.24515e-09
9.79364e-09
4.12543e-09
1.32632e-09
3.01154e-09
1.00118e-08
3.89622e-09
1.27312e-09
2.80324e-09
9.27667e-09
3.76312e-09
1.22134e-09
2.62887e-09
6.62653e-09
3.64312e-09
1.1704e-09
2.48542e-09
4.56921e-09
3.55596e-09
1.11967e-09
2.36991e-09
3.43697e-09
3.47708e-09
1.0735e-09
2.29001e-09
2.72481e-09
3.24152e-09
1.02885e-09
2.24528e-09
2.29845e-09
2.98617e-09
9.87617e-10
2.2354e-09
2.1152e-09
2.89109e-09
9.51088e-10
2.25896e-09
2.07922e-09
2.74229e-09
9.12001e-10
2.32265e-09
2.12667e-09
2.56857e-09
8.72557e-10
2.44205e-09
2.23114e-09
2.57397e-09
8.38592e-10
2.62721e-09
2.39203e-09
2.73584e-09
8.08024e-10
2.93527e-09
2.68848e-09
3.00064e-09
7.7686e-10
3.38988e-09
3.17958e-09
3.36139e-09
7.43888e-10
4.13551e-09
3.94037e-09
3.86993e-09
7.20032e-10
5.22457e-09
5.04836e-09
5.16376e-09
7.08215e-10
6.89812e-09
6.66299e-09
7.16944e-09
7.0383e-10
9.20745e-09
9.17421e-09
1.10294e-08
7.09022e-10
1.30315e-08
1.23421e-08
1.72231e-08
7.13477e-10
1.73365e-08
1.72546e-08
2.83675e-08
7.61297e-10
2.49332e-08
2.42238e-08
4.70061e-08
8.21798e-10
3.35306e-08
3.23972e-08
7.19092e-08
9.32744e-10
4.4071e-08
4.49585e-08
1.08436e-07
1.10628e-09
6.04643e-08
5.7058e-08
1.57847e-07
1.34868e-09
7.62352e-08
7.64067e-08
2.02409e-07
1.78843e-09
9.41073e-08
9.69362e-08
3.21417e-07
2.15932e-09
1.24173e-07
1.13364e-07
3.46548e-07
3.0204e-09
1.40199e-07
1.47477e-07
4.41863e-07
3.9138e-09
1.75032e-07
1.727e-07
5.21368e-07
5.23059e-09
2.07749e-07
2.03596e-07
5.83087e-07
6.92131e-09
2.40896e-07
2.42587e-07
6.51958e-07
9.28136e-09
2.79418e-07
2.79464e-07
7.09338e-07
1.20838e-08
3.23786e-07
3.18965e-07
7.58975e-07
1.57071e-08
3.57097e-07
3.64302e-07
7.99386e-07
2.115e-08
4.15552e-07
4.13145e-07
8.45806e-07
2.47628e-08
4.59019e-07
4.49978e-07
8.80131e-07
3.50062e-08
4.97301e-07
5.05506e-07
9.11677e-07
4.18236e-08
5.5064e-07
5.55425e-07
9.42022e-07
5.15781e-08
6.07831e-07
5.93888e-07
9.90904e-07
6.50384e-08
6.56433e-07
6.60783e-07
1.00556e-06
7.5511e-08
6.79207e-07
6.93431e-07
1.01925e-06
8.62457e-08
7.56643e-07
7.27565e-07
1.07653e-06
1.17889e-07
7.96783e-07
8.06123e-07
1.10845e-06
1.30985e-07
8.11387e-07
8.27834e-07
1.10503e-06
1.37378e-07
8.67778e-07
8.46401e-07
1.14039e-06
1.83266e-07
9.14513e-07
9.21184e-07
1.17411e-06
2.14606e-07
9.27661e-07
9.39276e-07
1.18301e-06
2.21662e-07
9.65451e-07
9.54994e-07
1.20864e-06
2.41908e-07
1.01123e-06
1.01156e-06
1.2599e-06
2.93991e-07
1.02696e-06
1.03197e-06
1.26884e-06
3.18933e-07
1.04902e-06
1.05061e-06
1.26664e-06
3.4314e-07
1.06609e-06
1.07148e-06
1.29196e-06
3.76177e-07
1.09924e-06
1.10207e-06
1.31699e-06
4.23984e-07
1.12635e-06
1.12949e-06
1.34121e-06
4.44789e-07
1.14295e-06
1.1352e-06
1.35808e-06
4.67312e-07
1.1525e-06
1.14437e-06
1.3501e-06
4.95852e-07
1.16137e-06
1.19157e-06
1.36129e-06
5.33389e-07
1.19749e-06
1.19402e-06
1.41719e-06
5.59704e-07
1.21343e-06
1.18451e-06
1.41904e-06
5.70868e-07
1.21321e-06
1.20294e-06
1.39055e-06
5.91642e-07
1.22122e-06
1.2508e-06
1.42447e-06
6.31842e-07
1.25803e-06
1.26478e-06
1.48692e-06
6.50161e-07
1.26651e-06
1.24063e-06
1.44434e-06
6.48552e-07
1.24013e-06
1.22926e-06
1.39365e-06
6.54779e-07
1.25866e-06
1.28644e-06
1.49735e-06
7.03805e-07
1.30617e-06
1.31653e-06
1.53683e-06
7.25365e-07
1.2929e-06
1.28673e-06
1.47193e-06
7.2176e-07
1.28901e-06
1.27137e-06
1.46593e-06
7.28969e-07
1.30307e-06
1.29927e-06
1.49367e-06
7.40683e-07
1.29856e-06
1.30954e-06
1.4862e-06
7.45021e-07
1.29282e-06
1.29788e-06
1.48551e-06
7.68607e-07
1.32413e-06
1.31094e-06
1.54723e-06
7.96597e-07
1.34322e-06
1.3443e-06
1.56702e-06
7.94847e-07
1.31269e-06
1.32624e-06
1.50791e-06
7.81001e-07
1.29342e-06
1.29276e-06
1.47149e-06
7.85483e-07
1.32425e-06
1.30581e-06
1.52092e-06
8.07896e-07
1.34017e-06
1.33288e-06
1.54633e-06
8.15187e-07
1.31586e-06
1.32617e-06
1.52212e-06
8.11958e-07
1.31125e-06
1.32295e-06
1.52963e-06
8.1064e-07
1.32545e-06
1.32786e-06
1.55046e-06
8.08074e-07
1.31724e-06
1.3141e-06
1.51984e-06
8.07092e-07
1.30648e-06
1.29407e-06
1.49234e-06
8.18243e-07
1.3174e-06
1.30913e-06
1.5356e-06
8.192e-07
1.3186e-06
1.33463e-06
1.55924e-06
8.06669e-07
1.29965e-06
1.31953e-06
1.52488e-06
8.0396e-07
1.29426e-06
1.27916e-06
1.49633e-06
8.07331e-07
1.29464e-06
1.27114e-06
1.49816e-06
7.97979e-07
1.28677e-06
1.28543e-06
1.50992e-06
7.85268e-07
1.28e-06
1.29883e-06
1.52064e-06
7.88371e-07
1.28026e-06
1.29623e-06
1.51924e-06
7.90078e-07
1.26801e-06
1.25763e-06
1.48236e-06
7.61932e-07
1.19326e-06
1.18727e-06
1.4285e-06
5.29155e-09
3.95291e-09
3.99183e-09
4.97889e-09
4.15719e-09
4.0423e-09
1.438e-09
1.37656e-09
1.7302e-09
1.80753e-09
3.83395e-09
4.01199e-09
5.1798e-09
5.77591e-09
4.63589e-09
4.8597e-09
5.27071e-09
4.79989e-09
3.32159e-09
4.58832e-09
3.15983e-09
4.32697e-09
4.95827e-09
4.50691e-09
5.44275e-09
4.93141e-09
5.1727e-09
4.67572e-09
6.3376e-09
3.57414e-09
5.58322e-09
5.11844e-09
4.81903e-09
9.41567e-09
9.41046e-09
9.2012e-09
4.50481e-09
4.76775e-09
4.34528e-09
3.09449e-09
4.2227e-09
2.90762e-09
3.93238e-09
4.47742e-09
4.0661e-09
5.07471e-09
4.58023e-09
4.80398e-09
4.32085e-09
5.29026e-09
3.30767e-09
4.54273e-09
4.75883e-09
4.63616e-09
8.9905e-09
9.69801e-09
8.68536e-09
4.21088e-09
4.31794e-09
3.95916e-09
2.84874e-09
3.84334e-09
2.68659e-09
3.59765e-09
4.04045e-09
3.69246e-09
4.72114e-09
4.2422e-09
4.4941e-09
4.02704e-09
4.35622e-09
3.06746e-09
3.96337e-09
4.59624e-09
4.53204e-09
8.56607e-09
9.99208e-09
7.5008e-09
3.92009e-09
3.93528e-09
3.62319e-09
2.63664e-09
3.52237e-09
2.4996e-09
3.30946e-09
3.67034e-09
3.36863e-09
4.42128e-09
3.96175e-09
4.20518e-09
3.78305e-09
3.87487e-09
2.85231e-09
3.6731e-09
4.49243e-09
4.36615e-09
7.18506e-09
9.76492e-09
6.48721e-09
3.79437e-09
3.60243e-09
3.33125e-09
2.45709e-09
3.24238e-09
2.33895e-09
3.05569e-09
3.34952e-09
3.0911e-09
4.13558e-09
3.72855e-09
3.94805e-09
3.5846e-09
3.61997e-09
2.66937e-09
3.48567e-09
4.28259e-09
3.75153e-09
6.34859e-09
7.30598e-09
6.11116e-09
3.67218e-09
3.31452e-09
3.07186e-09
2.30423e-09
2.99841e-09
2.21172e-09
2.84307e-09
3.07575e-09
2.85978e-09
3.89391e-09
3.54161e-09
3.75065e-09
3.42147e-09
3.44811e-09
2.51934e-09
3.36345e-09
3.69542e-09
3.39475e-09
6.06942e-09
4.97294e-09
6.00959e-09
3.57608e-09
3.05937e-09
2.85824e-09
2.1851e-09
2.79708e-09
2.11691e-09
2.68109e-09
2.84827e-09
2.67137e-09
3.70964e-09
3.38432e-09
3.59489e-09
3.27755e-09
3.34496e-09
2.39571e-09
3.30501e-09
3.36493e-09
3.00606e-09
6.01128e-09
3.66858e-09
6.0263e-09
3.49763e-09
2.85016e-09
2.68876e-09
2.09745e-09
2.64963e-09
2.05189e-09
2.57382e-09
2.66382e-09
2.52316e-09
3.55775e-09
3.24585e-09
3.46015e-09
3.17218e-09
3.30183e-09
2.30685e-09
3.30676e-09
2.97809e-09
2.72956e-09
6.01182e-09
2.87629e-09
5.68169e-09
3.28399e-09
2.68464e-09
2.56879e-09
2.04029e-09
2.55421e-09
2.01562e-09
2.51361e-09
2.51983e-09
2.41073e-09
3.43183e-09
3.15146e-09
3.35387e-09
3.10283e-09
3.31434e-09
2.25305e-09
3.3574e-09
2.71672e-09
2.54885e-09
5.48401e-09
2.3763e-09
4.68226e-09
2.99473e-09
2.56978e-09
2.48717e-09
2.00953e-09
2.50362e-09
2.01141e-09
2.48425e-09
2.41125e-09
2.33247e-09
3.33037e-09
3.09078e-09
3.30202e-09
3.07564e-09
3.37774e-09
2.23451e-09
3.47209e-09
2.54502e-09
2.42533e-09
4.40258e-09
2.13934e-09
3.74904e-09
2.89361e-09
2.49183e-09
2.44831e-09
2.01656e-09
2.48171e-09
2.04737e-09
2.48868e-09
2.3364e-09
2.28512e-09
3.30349e-09
3.072e-09
3.33787e-09
3.07887e-09
3.51959e-09
2.2514e-09
3.67924e-09
2.42675e-09
2.35585e-09
3.58432e-09
2.07941e-09
3.19183e-09
2.75378e-09
2.461e-09
2.45284e-09
2.06238e-09
2.49591e-09
2.12489e-09
2.53175e-09
2.29466e-09
2.27306e-09
3.35624e-09
3.08632e-09
3.42162e-09
3.13282e-09
3.73138e-09
2.30709e-09
3.837e-09
2.36464e-09
2.33486e-09
3.08852e-09
2.10308e-09
2.76488e-09
2.56453e-09
2.47545e-09
2.513e-09
2.1514e-09
2.54929e-09
2.24955e-09
2.62487e-09
2.29186e-09
2.30888e-09
3.44578e-09
3.16091e-09
3.57193e-09
3.27107e-09
3.85141e-09
2.41103e-09
3.91575e-09
2.35382e-09
2.37415e-09
2.66061e-09
2.20202e-09
2.46139e-09
2.5425e-09
2.54794e-09
2.63723e-09
2.2921e-09
2.6589e-09
2.44626e-09
2.79293e-09
2.34094e-09
2.40812e-09
3.64057e-09
3.31336e-09
3.88425e-09
3.48467e-09
3.96213e-09
2.57668e-09
4.11389e-09
2.40727e-09
2.49227e-09
2.43989e-09
2.33726e-09
2.43955e-09
2.67558e-09
2.69584e-09
2.8719e-09
2.5104e-09
2.85081e-09
2.74515e-09
3.07467e-09
2.4619e-09
2.61001e-09
3.98196e-09
3.56573e-09
4.25573e-09
3.87878e-09
4.18543e-09
2.85524e-09
4.41366e-09
2.55011e-09
2.72021e-09
2.44741e-09
2.60219e-09
2.5373e-09
2.90803e-09
2.96873e-09
3.24269e-09
2.83987e-09
3.16478e-09
3.19922e-09
3.51103e-09
2.70084e-09
2.95219e-09
4.36333e-09
4.01974e-09
4.7515e-09
4.43696e-09
4.5124e-09
3.26228e-09
4.85625e-09
2.81846e-09
3.12933e-09
2.60909e-09
3.05285e-09
2.95943e-09
3.2289e-09
3.38957e-09
3.87233e-09
3.34522e-09
3.65659e-09
3.86553e-09
4.21526e-09
3.10088e-09
3.6194e-09
4.84147e-09
4.61848e-09
5.4036e-09
5.32484e-09
4.95448e-09
3.92594e-09
5.25908e-09
3.28824e-09
3.8117e-09
3.08949e-09
3.72626e-09
3.6169e-09
3.6819e-09
4.11038e-09
4.85472e-09
4.08179e-09
4.44942e-09
4.87751e-09
5.24142e-09
3.87996e-09
4.72795e-09
5.61794e-09
5.45506e-09
6.11837e-09
6.65334e-09
5.31906e-09
4.88698e-09
5.74512e-09
4.0661e-09
4.96554e-09
3.80931e-09
4.70931e-09
4.65773e-09
4.70621e-09
5.26593e-09
6.91051e-09
5.23016e-09
5.60063e-09
6.39395e-09
6.90853e-09
5.14606e-09
6.79563e-09
6.44188e-09
6.97969e-09
7.72614e-09
7.67137e-09
5.97166e-09
6.45053e-09
6.82773e-09
5.39463e-09
6.82249e-09
4.99729e-09
6.2831e-09
6.09202e-09
6.54154e-09
7.55492e-09
1.04397e-08
6.82169e-09
7.41511e-09
8.70854e-09
9.25159e-09
7.51174e-09
1.00704e-08
8.2356e-09
8.29056e-09
1.0591e-08
9.88749e-09
7.18518e-09
8.55282e-09
8.6426e-09
7.50177e-09
9.74283e-09
6.57372e-09
8.1956e-09
8.4327e-09
9.83005e-09
1.16439e-08
1.5802e-08
9.36936e-09
9.9741e-09
1.18628e-08
1.29013e-08
1.11882e-08
1.6489e-08
1.12913e-08
1.06457e-08
1.36813e-08
1.27671e-08
9.24635e-09
1.19557e-08
1.16424e-08
1.10195e-08
1.6716e-08
9.11452e-09
1.17798e-08
1.16324e-08
1.53172e-08
1.79497e-08
2.68736e-08
1.30372e-08
1.40722e-08
1.655e-08
1.73889e-08
1.84959e-08
2.57971e-08
1.47989e-08
1.30973e-08
1.80663e-08
1.71531e-08
1.2706e-08
1.60238e-08
1.59831e-08
1.77069e-08
2.32423e-08
1.27295e-08
1.56132e-08
1.6018e-08
2.57781e-08
2.90663e-08
4.0274e-08
1.76776e-08
1.87596e-08
2.23114e-08
2.47987e-08
2.83898e-08
4.38682e-08
1.90161e-08
1.94154e-08
2.31695e-08
2.51883e-08
1.75898e-08
2.31552e-08
2.24937e-08
2.73776e-08
4.26539e-08
1.76081e-08
2.21333e-08
2.25165e-08
4.28588e-08
4.5168e-08
6.81577e-08
2.43048e-08
2.67329e-08
3.14324e-08
3.25529e-08
4.89136e-08
6.5415e-08
2.5318e-08
2.73735e-08
3.27508e-08
3.27086e-08
2.39092e-08
3.04289e-08
3.12822e-08
4.62263e-08
6.56691e-08
2.39322e-08
3.0508e-08
3.1209e-08
6.4533e-08
7.47006e-08
1.00386e-07
3.38352e-08
3.5585e-08
4.18465e-08
4.3554e-08
7.09972e-08
1.04838e-07
3.49216e-08
3.43349e-08
4.21387e-08
4.34063e-08
3.34595e-08
4.14184e-08
4.10509e-08
7.10677e-08
9.81562e-08
3.32751e-08
4.10702e-08
4.11624e-08
9.93222e-08
1.08011e-07
1.46851e-07
4.50893e-08
4.61996e-08
5.47976e-08
5.86664e-08
1.12901e-07
1.50403e-07
4.49577e-08
4.77242e-08
5.43093e-08
5.65183e-08
4.56136e-08
5.71805e-08
5.64438e-08
1.08219e-07
1.48244e-07
4.58338e-08
5.40903e-08
5.65338e-08
1.5269e-07
1.57695e-07
2.05724e-07
5.89788e-08
6.20541e-08
7.16108e-08
7.12579e-08
1.63554e-07
2.02843e-07
5.85864e-08
5.94468e-08
7.07725e-08
7.44806e-08
5.79135e-08
7.06872e-08
6.72968e-08
1.56871e-07
2.0451e-07
5.79679e-08
7.08253e-08
6.66614e-08
1.82565e-07
2.18858e-07
2.74114e-07
7.51861e-08
7.6575e-08
9.16426e-08
9.12831e-08
2.12233e-07
2.76061e-07
7.43698e-08
8.01019e-08
9.12712e-08
9.64693e-08
7.62621e-08
8.92692e-08
9.6463e-08
2.21083e-07
2.88204e-07
7.57081e-08
9.28597e-08
9.63403e-08
3.11171e-07
2.89795e-07
3.53907e-07
9.84789e-08
9.55509e-08
1.11795e-07
1.15221e-07
2.92059e-07
3.54354e-07
9.80481e-08
1.00859e-07
1.11066e-07
1.10538e-07
9.98619e-08
1.16941e-07
1.09394e-07
2.99855e-07
3.34856e-07
9.99469e-08
1.07293e-07
1.09193e-07
3.38463e-07
3.65926e-07
4.19107e-07
1.15995e-07
1.22049e-07
1.37647e-07
1.35444e-07
3.72915e-07
4.28635e-07
1.1488e-07
1.1621e-07
1.36889e-07
1.41353e-07
1.14326e-07
1.36554e-07
1.36772e-07
3.48438e-07
4.28501e-07
1.13756e-07
1.39504e-07
1.36662e-07
4.20499e-07
4.39364e-07
5.12627e-07
1.46333e-07
1.4036e-07
1.68918e-07
1.6596e-07
4.38947e-07
4.92255e-07
1.46127e-07
1.49374e-07
1.68145e-07
1.69819e-07
1.45713e-07
1.64932e-07
1.67206e-07
4.49532e-07
5.08694e-07
1.45709e-07
1.66465e-07
1.67777e-07
5.07538e-07
5.26355e-07
5.68008e-07
1.75093e-07
1.76157e-07
1.97542e-07
1.99991e-07
5.12514e-07
5.8036e-07
1.74133e-07
1.76148e-07
1.96714e-07
1.96292e-07
1.73041e-07
1.99476e-07
1.9723e-07
5.202e-07
5.62865e-07
1.737e-07
1.94541e-07
1.96306e-07
5.68023e-07
5.82653e-07
6.37187e-07
2.06598e-07
2.07565e-07
2.33014e-07
2.33453e-07
5.94001e-07
6.33887e-07
2.05301e-07
2.04755e-07
2.3148e-07
2.34304e-07
2.06141e-07
2.33047e-07
2.33033e-07
5.79129e-07
6.39036e-07
2.05107e-07
2.33102e-07
2.33293e-07
6.37167e-07
6.51839e-07
6.95522e-07
2.41831e-07
2.40877e-07
2.72201e-07
2.67415e-07
6.47019e-07
6.92011e-07
2.4172e-07
2.44151e-07
2.70569e-07
2.72048e-07
2.42514e-07
2.68166e-07
2.70229e-07
6.5369e-07
6.94276e-07
2.42692e-07
2.69903e-07
2.69861e-07
6.96219e-07
7.08512e-07
7.45133e-07
2.82259e-07
2.78675e-07
3.09824e-07
3.14088e-07
7.06837e-07
7.48966e-07
2.80012e-07
2.81182e-07
3.11189e-07
3.0982e-07
2.80955e-07
3.13573e-07
3.139e-07
7.06664e-07
7.42856e-07
2.80846e-07
3.09037e-07
3.1398e-07
7.47875e-07
7.56969e-07
7.9245e-07
3.21197e-07
3.25216e-07
3.54474e-07
3.49093e-07
7.59581e-07
7.85549e-07
3.20914e-07
3.19926e-07
3.53287e-07
3.53098e-07
3.22334e-07
3.48439e-07
3.50895e-07
7.54856e-07
7.91151e-07
3.21962e-07
3.52425e-07
3.49791e-07
7.88222e-07
8.04019e-07
8.33269e-07
3.64438e-07
3.56689e-07
4.03057e-07
3.98145e-07
7.96602e-07
8.36591e-07
3.65423e-07
3.64972e-07
4.01607e-07
4.01922e-07
3.62046e-07
3.98654e-07
3.99755e-07
8.03246e-07
8.34261e-07
3.62112e-07
4.01065e-07
4.04367e-07
8.34607e-07
8.4279e-07
8.67813e-07
4.15075e-07
4.15502e-07
4.39851e-07
4.54834e-07
8.49101e-07
8.73793e-07
4.12733e-07
4.13355e-07
4.38122e-07
4.39817e-07
4.12675e-07
4.53152e-07
4.46186e-07
8.43804e-07
8.66888e-07
4.17056e-07
4.40393e-07
4.4612e-07
8.71427e-07
8.77808e-07
9.07712e-07
4.5066e-07
4.61091e-07
4.98854e-07
4.82833e-07
8.80747e-07
8.98286e-07
4.48544e-07
4.5017e-07
4.98576e-07
4.93635e-07
4.56992e-07
4.82522e-07
4.92078e-07
8.76166e-07
9.05452e-07
4.55654e-07
4.91969e-07
4.90275e-07
9.03154e-07
9.17336e-07
9.37336e-07
5.13744e-07
4.9669e-07
5.39925e-07
5.40423e-07
9.08096e-07
9.38874e-07
5.13513e-07
5.06789e-07
5.45531e-07
5.44287e-07
5.04484e-07
5.3946e-07
5.36122e-07
9.15773e-07
9.38165e-07
5.03792e-07
5.43575e-07
5.37682e-07
9.32813e-07
9.45005e-07
9.6998e-07
5.48347e-07
5.52203e-07
5.87004e-07
5.92025e-07
9.47779e-07
9.72315e-07
5.56561e-07
5.56346e-07
5.92632e-07
5.82617e-07
5.46261e-07
5.91832e-07
5.9352e-07
9.45467e-07
9.65719e-07
5.47544e-07
5.82209e-07
5.93248e-07
9.80889e-07
9.79778e-07
1.00299e-06
6.03882e-07
6.07543e-07
6.50882e-07
6.48727e-07
9.82285e-07
1.00474e-06
6.04011e-07
5.93844e-07
6.36815e-07
6.44818e-07
6.12267e-07
6.47997e-07
6.51703e-07
9.74983e-07
1.00629e-06
6.11534e-07
6.45149e-07
6.49999e-07
1.0025e-06
1.00936e-06
1.02177e-06
6.61797e-07
6.58445e-07
6.79996e-07
6.74592e-07
1.00996e-06
1.01825e-06
6.49676e-07
6.60555e-07
6.8569e-07
6.89308e-07
6.58996e-07
6.70626e-07
6.73287e-07
1.01444e-06
1.02484e-06
6.574e-07
6.88995e-07
6.72528e-07
1.01212e-06
1.02785e-06
1.05542e-06
6.83262e-07
6.81877e-07
7.1711e-07
7.3318e-07
1.02513e-06
1.06723e-06
6.93575e-07
6.9398e-07
7.25362e-07
7.12344e-07
6.77088e-07
7.36727e-07
7.20765e-07
1.02901e-06
1.04629e-06
6.76393e-07
7.11306e-07
7.18371e-07
1.06116e-06
1.06721e-06
1.09491e-06
7.40257e-07
7.52527e-07
7.95318e-07
7.88201e-07
1.07835e-06
1.09149e-06
7.42691e-07
7.287e-07
7.9021e-07
7.93561e-07
7.4925e-07
7.90979e-07
8.03011e-07
1.0575e-06
1.10122e-06
7.45295e-07
7.9208e-07
8.00716e-07
1.1061e-06
1.09942e-06
1.10323e-06
8.03897e-07
7.94624e-07
8.19059e-07
8.09416e-07
1.0942e-06
1.09949e-06
7.99545e-07
8.07713e-07
8.14216e-07
8.26662e-07
8.0774e-07
8.08043e-07
8.156e-07
1.10841e-06
1.11308e-06
8.07247e-07
8.25172e-07
8.17321e-07
1.10115e-06
1.10688e-06
1.12468e-06
8.22904e-07
8.14685e-07
8.40849e-07
8.4944e-07
1.10516e-06
1.13341e-06
8.16897e-07
8.29374e-07
8.36041e-07
8.38099e-07
8.19102e-07
8.47184e-07
8.44912e-07
1.11502e-06
1.12004e-06
8.20514e-07
8.36786e-07
8.38007e-07
1.12981e-06
1.13537e-06
1.17984e-06
8.55893e-07
8.65987e-07
9.10315e-07
9.03232e-07
1.14479e-06
1.17149e-06
8.52515e-07
8.47103e-07
9.11943e-07
9.04486e-07
8.62657e-07
9.08825e-07
9.06684e-07
1.12736e-06
1.17594e-06
8.51934e-07
9.05758e-07
9.02233e-07
1.16979e-06
1.18663e-06
1.19177e-06
9.20707e-07
9.11162e-07
9.34701e-07
9.26039e-07
1.17564e-06
1.17773e-06
9.2459e-07
9.20765e-07
9.41079e-07
9.4149e-07
9.12097e-07
9.24704e-07
9.24611e-07
1.18606e-06
1.19377e-06
9.12315e-07
9.3807e-07
9.29534e-07
1.1792e-06
1.19372e-06
1.19727e-06
9.37712e-07
9.30369e-07
9.4896e-07
9.62158e-07
1.18081e-06
1.20757e-06
9.43738e-07
9.4373e-07
9.52456e-07
9.50641e-07
9.29566e-07
9.50564e-07
9.4985e-07
1.19496e-06
1.19499e-06
9.33311e-07
9.46281e-07
9.48775e-07
1.19936e-06
1.20231e-06
1.22947e-06
9.56001e-07
9.77562e-07
9.92709e-07
1.00936e-06
1.22001e-06
1.25224e-06
9.56166e-07
9.57791e-07
9.8269e-07
9.95011e-07
9.62913e-07
1.00392e-06
1.01e-06
1.20081e-06
1.23943e-06
9.60688e-07
1.00148e-06
1.00601e-06
1.2521e-06
1.23838e-06
1.26144e-06
1.0058e-06
1.01488e-06
1.03103e-06
1.0253e-06
1.25666e-06
1.25623e-06
9.9708e-07
1.00442e-06
1.03148e-06
1.02583e-06
1.02072e-06
1.02427e-06
1.03636e-06
1.24739e-06
1.25819e-06
1.01567e-06
1.02632e-06
1.02813e-06
1.26733e-06
1.2659e-06
1.26966e-06
1.03394e-06
1.02736e-06
1.03963e-06
1.03709e-06
1.25747e-06
1.26131e-06
1.03726e-06
1.03378e-06
1.04449e-06
1.05115e-06
1.03872e-06
1.04129e-06
1.04419e-06
1.26261e-06
1.27621e-06
1.02984e-06
1.04774e-06
1.03493e-06
1.26372e-06
1.27272e-06
1.28567e-06
1.04485e-06
1.04418e-06
1.06436e-06
1.06403e-06
1.26821e-06
1.28796e-06
1.04772e-06
1.05423e-06
1.06395e-06
1.06572e-06
1.04608e-06
1.06307e-06
1.06139e-06
1.27978e-06
1.28571e-06
1.03856e-06
1.06386e-06
1.06532e-06
1.28363e-06
1.29159e-06
1.3154e-06
1.07008e-06
1.06837e-06
1.09608e-06
1.09176e-06
1.29183e-06
1.30858e-06
1.07014e-06
1.07116e-06
1.09621e-06
1.09085e-06
1.07026e-06
1.08837e-06
1.09029e-06
1.29045e-06
1.31105e-06
1.07664e-06
1.09457e-06
1.09653e-06
1.31243e-06
1.32411e-06
1.34044e-06
1.10643e-06
1.10238e-06
1.12598e-06
1.12532e-06
1.31757e-06
1.33996e-06
1.1062e-06
1.0996e-06
1.12554e-06
1.12642e-06
1.09538e-06
1.12278e-06
1.11936e-06
1.31803e-06
1.33949e-06
1.09912e-06
1.12428e-06
1.11549e-06
1.33361e-06
1.34269e-06
1.33872e-06
1.12819e-06
1.1283e-06
1.13106e-06
1.13615e-06
1.34366e-06
1.34771e-06
1.12766e-06
1.1318e-06
1.13055e-06
1.13661e-06
1.12875e-06
1.13834e-06
1.14702e-06
1.34427e-06
1.34313e-06
1.12431e-06
1.13499e-06
1.14275e-06
1.35593e-06
1.34151e-06
1.35422e-06
1.13365e-06
1.14e-06
1.15064e-06
1.14848e-06
1.35108e-06
1.35381e-06
1.13355e-06
1.13679e-06
1.14832e-06
1.14011e-06
1.14872e-06
1.1512e-06
1.14859e-06
1.34409e-06
1.34272e-06
1.14436e-06
1.13864e-06
1.14476e-06
1.34907e-06
1.3582e-06
1.36887e-06
1.15384e-06
1.14972e-06
1.16129e-06
1.15617e-06
1.35546e-06
1.35901e-06
1.15068e-06
1.14516e-06
1.16446e-06
1.18041e-06
1.1485e-06
1.15736e-06
1.15169e-06
1.34865e-06
1.39434e-06
1.14509e-06
1.18283e-06
1.15379e-06
1.35352e-06
1.37629e-06
1.40316e-06
1.16803e-06
1.16325e-06
1.19636e-06
1.19552e-06
1.36502e-06
1.39897e-06
1.17382e-06
1.18951e-06
1.19889e-06
1.19567e-06
1.15678e-06
1.18771e-06
1.19225e-06
1.4032e-06
1.40122e-06
1.16438e-06
1.19644e-06
1.20486e-06
1.40808e-06
1.40757e-06
1.40085e-06
1.20287e-06
1.20339e-06
1.20707e-06
1.21021e-06
1.40668e-06
1.41246e-06
1.20195e-06
1.19395e-06
1.2017e-06
1.18657e-06
1.20439e-06
1.21267e-06
1.21706e-06
1.40054e-06
1.37173e-06
1.21177e-06
1.18455e-06
1.21403e-06
1.41907e-06
1.40142e-06
1.3956e-06
1.20624e-06
1.20994e-06
1.20464e-06
1.20788e-06
1.4134e-06
1.40458e-06
1.2005e-06
1.18668e-06
1.20068e-06
1.19946e-06
1.21658e-06
1.21319e-06
1.20591e-06
1.37267e-06
1.39175e-06
1.21098e-06
1.19456e-06
1.19711e-06
1.38985e-06
1.39975e-06
1.42639e-06
1.20527e-06
1.20807e-06
1.22163e-06
1.21879e-06
1.4062e-06
1.41695e-06
1.2029e-06
1.20998e-06
1.22782e-06
1.24667e-06
1.20457e-06
1.21724e-06
1.20975e-06
1.40374e-06
1.45456e-06
1.19649e-06
1.23989e-06
1.20879e-06
1.40907e-06
1.43513e-06
1.4593e-06
1.23051e-06
1.22436e-06
1.25588e-06
1.24695e-06
1.42274e-06
1.44675e-06
1.23837e-06
1.25492e-06
1.26201e-06
1.26309e-06
1.22177e-06
1.24835e-06
1.26876e-06
1.46373e-06
1.47039e-06
1.22959e-06
1.26476e-06
1.27586e-06
1.48214e-06
1.46401e-06
1.45604e-06
1.26141e-06
1.25596e-06
1.26448e-06
1.26713e-06
1.45521e-06
1.46435e-06
1.26492e-06
1.26284e-06
1.26318e-06
1.24681e-06
1.27369e-06
1.26754e-06
1.26743e-06
1.47089e-06
1.42887e-06
1.27825e-06
1.25063e-06
1.26252e-06
1.45101e-06
1.4548e-06
1.42276e-06
1.26267e-06
1.26659e-06
1.24502e-06
1.24799e-06
1.46472e-06
1.4269e-06
1.25655e-06
1.23717e-06
1.23538e-06
1.22551e-06
1.25326e-06
1.2443e-06
1.22517e-06
1.42612e-06
1.40454e-06
1.24365e-06
1.22878e-06
1.21719e-06
1.39191e-06
1.42357e-06
1.44269e-06
1.24228e-06
1.24333e-06
1.24479e-06
1.245e-06
1.42696e-06
1.44072e-06
1.23397e-06
1.22588e-06
1.24366e-06
1.25792e-06
1.22488e-06
1.2445e-06
1.25602e-06
1.40829e-06
1.46731e-06
1.21775e-06
1.26451e-06
1.26826e-06
1.47141e-06
1.45586e-06
1.50721e-06
1.25382e-06
1.25471e-06
1.30112e-06
1.30222e-06
1.45548e-06
1.50803e-06
1.26121e-06
1.28021e-06
1.30604e-06
1.31692e-06
1.28197e-06
1.30331e-06
1.31564e-06
1.48699e-06
1.52738e-06
1.29657e-06
1.31628e-06
1.32564e-06
1.53676e-06
1.51288e-06
1.50244e-06
1.308e-06
1.30698e-06
1.30829e-06
1.30193e-06
1.51164e-06
1.48888e-06
1.31127e-06
1.31824e-06
1.30991e-06
1.30423e-06
1.31533e-06
1.29823e-06
1.29163e-06
1.52938e-06
1.48876e-06
1.32449e-06
1.29815e-06
1.291e-06
1.47441e-06
1.50149e-06
1.47951e-06
1.30253e-06
1.29512e-06
1.28852e-06
1.28713e-06
1.48826e-06
1.47916e-06
1.30312e-06
1.29137e-06
1.28621e-06
1.27233e-06
1.28395e-06
1.28829e-06
1.27949e-06
1.485e-06
1.45462e-06
1.27959e-06
1.27125e-06
1.26951e-06
1.46053e-06
1.4809e-06
1.48955e-06
1.28793e-06
1.28753e-06
1.29394e-06
1.30021e-06
1.48336e-06
1.49818e-06
1.28536e-06
1.27243e-06
1.29223e-06
1.29306e-06
1.2814e-06
1.30033e-06
1.29804e-06
1.4569e-06
1.48926e-06
1.27016e-06
1.28891e-06
1.28737e-06
1.48923e-06
1.49393e-06
1.49199e-06
1.29824e-06
1.30375e-06
1.3009e-06
1.30292e-06
1.50194e-06
1.49317e-06
1.29781e-06
1.30395e-06
1.30179e-06
1.31252e-06
1.30079e-06
1.30217e-06
1.29827e-06
1.50025e-06
1.51095e-06
1.29357e-06
1.31027e-06
1.29726e-06
1.48589e-06
1.49242e-06
1.48174e-06
1.29875e-06
1.2985e-06
1.29259e-06
1.29172e-06
1.49334e-06
1.48307e-06
1.29959e-06
1.31048e-06
1.29208e-06
1.2945e-06
1.29421e-06
1.29269e-06
1.28944e-06
1.51146e-06
1.48941e-06
1.29551e-06
1.29909e-06
1.29271e-06
1.48049e-06
1.48429e-06
1.51429e-06
1.29267e-06
1.29193e-06
1.3102e-06
1.31263e-06
1.48612e-06
1.51889e-06
1.29206e-06
1.29292e-06
1.30654e-06
1.29758e-06
1.29007e-06
1.31113e-06
1.31856e-06
1.49022e-06
1.49937e-06
1.29407e-06
1.30166e-06
1.32249e-06
1.534e-06
1.52706e-06
1.55242e-06
1.32353e-06
1.32592e-06
1.34365e-06
1.34357e-06
1.53149e-06
1.55138e-06
1.31946e-06
1.30848e-06
1.34238e-06
1.3427e-06
1.33255e-06
1.34315e-06
1.35079e-06
1.51004e-06
1.55074e-06
1.33367e-06
1.34167e-06
1.34845e-06
1.56619e-06
1.55424e-06
1.52315e-06
1.34387e-06
1.34342e-06
1.32873e-06
1.32299e-06
1.55244e-06
1.51254e-06
1.34315e-06
1.34564e-06
1.33198e-06
1.33935e-06
1.35062e-06
1.325e-06
1.32589e-06
1.5549e-06
1.53509e-06
1.34824e-06
1.33802e-06
1.32495e-06
1.51284e-06
1.52052e-06
1.49081e-06
1.31804e-06
1.31136e-06
1.29887e-06
1.29491e-06
1.50948e-06
1.48355e-06
1.32164e-06
1.32787e-06
1.29995e-06
1.2981e-06
1.31036e-06
1.2937e-06
1.28626e-06
1.53186e-06
1.48812e-06
1.31023e-06
1.29585e-06
1.28609e-06
1.46991e-06
1.49198e-06
1.50638e-06
1.29794e-06
1.29483e-06
1.30558e-06
1.31283e-06
1.48584e-06
1.51964e-06
1.29818e-06
1.29489e-06
1.30176e-06
1.29743e-06
1.2857e-06
1.3109e-06
1.30331e-06
1.48865e-06
1.49794e-06
1.2853e-06
1.29627e-06
1.29997e-06
1.50691e-06
1.51465e-06
1.5334e-06
1.31433e-06
1.32481e-06
1.33006e-06
1.33932e-06
1.53209e-06
1.5506e-06
1.30924e-06
1.30543e-06
1.32806e-06
1.32972e-06
1.31797e-06
1.3405e-06
1.33658e-06
1.50728e-06
1.53508e-06
1.31421e-06
1.33085e-06
1.33482e-06
1.54504e-06
1.53641e-06
1.53372e-06
1.33106e-06
1.33903e-06
1.32827e-06
1.32341e-06
1.55165e-06
1.52228e-06
1.33027e-06
1.33227e-06
1.32981e-06
1.33046e-06
1.33636e-06
1.32242e-06
1.32084e-06
1.53863e-06
1.53343e-06
1.33492e-06
1.32937e-06
1.3227e-06
1.52183e-06
1.535e-06
1.5332e-06
1.32626e-06
1.31762e-06
1.32349e-06
1.31243e-06
1.52189e-06
1.51318e-06
1.32783e-06
1.32752e-06
1.32436e-06
1.32351e-06
1.31623e-06
1.3104e-06
1.31462e-06
1.53441e-06
1.53146e-06
1.31872e-06
1.32271e-06
1.31735e-06
1.52284e-06
1.53515e-06
1.53075e-06
1.32338e-06
1.31302e-06
1.32307e-06
1.3224e-06
1.51712e-06
1.53116e-06
1.32396e-06
1.32351e-06
1.32296e-06
1.32532e-06
1.31797e-06
1.32389e-06
1.33233e-06
1.53432e-06
1.5379e-06
1.32044e-06
1.32767e-06
1.33264e-06
1.54837e-06
1.5315e-06
1.51212e-06
1.32233e-06
1.32337e-06
1.31182e-06
1.31961e-06
1.53429e-06
1.52572e-06
1.32191e-06
1.3253e-06
1.31141e-06
1.31863e-06
1.33269e-06
1.32225e-06
1.32178e-06
1.53958e-06
1.52282e-06
1.33281e-06
1.32171e-06
1.32108e-06
1.52259e-06
1.5124e-06
1.50682e-06
1.30801e-06
1.31541e-06
1.30397e-06
1.30847e-06
1.52603e-06
1.51533e-06
1.30757e-06
1.3124e-06
1.30276e-06
1.2985e-06
1.31189e-06
1.30692e-06
1.29449e-06
1.52185e-06
1.49833e-06
1.31077e-06
1.29585e-06
1.29236e-06
1.49081e-06
1.51164e-06
1.53981e-06
1.30471e-06
1.30847e-06
1.32169e-06
1.31715e-06
1.51788e-06
1.53203e-06
1.3032e-06
1.29733e-06
1.31948e-06
1.30283e-06
1.29394e-06
1.31288e-06
1.30653e-06
1.4994e-06
1.51368e-06
1.2917e-06
1.29854e-06
1.30431e-06
1.52269e-06
1.54537e-06
1.54045e-06
1.32479e-06
1.31983e-06
1.32386e-06
1.31929e-06
1.53679e-06
1.53227e-06
1.32369e-06
1.31251e-06
1.32471e-06
1.32987e-06
1.31798e-06
1.32007e-06
1.33161e-06
1.52393e-06
1.55266e-06
1.31711e-06
1.33315e-06
1.33431e-06
1.55773e-06
1.53965e-06
1.50448e-06
1.31882e-06
1.31546e-06
1.29673e-06
1.29963e-06
1.53244e-06
1.51057e-06
1.32173e-06
1.33058e-06
1.30035e-06
1.32338e-06
1.33133e-06
1.30366e-06
1.31355e-06
1.55639e-06
1.54514e-06
1.33429e-06
1.32879e-06
1.31818e-06
1.52694e-06
1.50485e-06
1.50598e-06
1.29337e-06
1.29691e-06
1.29281e-06
1.29538e-06
1.51134e-06
1.51081e-06
1.29574e-06
1.31523e-06
1.2923e-06
1.28803e-06
1.30464e-06
1.29437e-06
1.28686e-06
1.54362e-06
1.49734e-06
1.30828e-06
1.28656e-06
1.28499e-06
1.49558e-06
1.51254e-06
1.5319e-06
1.29641e-06
1.29654e-06
1.30755e-06
1.30026e-06
1.51434e-06
1.51885e-06
1.29337e-06
1.28237e-06
1.30165e-06
1.2768e-06
1.28471e-06
1.29472e-06
1.28342e-06
1.49629e-06
1.48099e-06
1.28137e-06
1.27105e-06
1.27821e-06
1.49483e-06
1.5348e-06
1.51397e-06
1.30769e-06
1.30011e-06
1.29617e-06
1.29112e-06
1.52058e-06
1.50788e-06
1.30193e-06
1.277e-06
1.29394e-06
1.28285e-06
1.28427e-06
1.28933e-06
1.28817e-06
1.48313e-06
1.49732e-06
1.27851e-06
1.27979e-06
1.28534e-06
1.50625e-06
1.51128e-06
1.4766e-06
1.28579e-06
1.28592e-06
1.26375e-06
1.27406e-06
1.50821e-06
1.49599e-06
1.2858e-06
1.2854e-06
1.26848e-06
1.28958e-06
1.28925e-06
1.28021e-06
1.29005e-06
1.50338e-06
1.52012e-06
1.28876e-06
1.29673e-06
1.29465e-06
1.51738e-06
1.47767e-06
1.49043e-06
1.26251e-06
1.27349e-06
1.26737e-06
1.27583e-06
1.49764e-06
1.50323e-06
1.26769e-06
1.2914e-06
1.27242e-06
1.29202e-06
1.29008e-06
1.28021e-06
1.28718e-06
1.52529e-06
1.52896e-06
1.29529e-06
1.29851e-06
1.29282e-06
1.5185e-06
1.49782e-06
1.50345e-06
1.27362e-06
1.27766e-06
1.27739e-06
1.27487e-06
1.50614e-06
1.49707e-06
1.27606e-06
1.29106e-06
1.27507e-06
1.26812e-06
1.2853e-06
1.27197e-06
1.26439e-06
1.52984e-06
1.48675e-06
1.28973e-06
1.26541e-06
1.2627e-06
1.48363e-06
1.50435e-06
1.47262e-06
1.2763e-06
1.27225e-06
1.2447e-06
1.23624e-06
1.49711e-06
1.45757e-06
1.27273e-06
1.26101e-06
1.24006e-06
1.22613e-06
1.25993e-06
1.23057e-06
1.22756e-06
1.48417e-06
1.44206e-06
1.25725e-06
1.22289e-06
1.22558e-06
1.44701e-06
1.45128e-06
1.20602e-06
1.19749e-06
1.43659e-06
1.20309e-06
1.19e-06
7.56014e-07
7.50523e-07
7.51567e-07
1.1912e-06
1.42405e-06
1.18988e-06
1.58114e-10
2.54513e-09
1.89583e-10
2.89457e-10
5.59294e-09
3.84801e-09
3.34578e-09
1.15216e-09
5.35567e-09
6.96728e-09
1.33251e-09
1.80641e-08
5.03128e-09
2.73703e-09
9.16738e-09
7.20467e-09
1.57237e-07
5.67462e-09
2.47927e-07
1.4926e-06
3.00251e-06
8.70773e-09
1.76451e-07
7.22433e-09
2.7751e-07
1.40693e-09
1.77935e-09
1.8687e-09
1.45476e-09
1.3862e-09
1.76582e-09
1.86581e-09
4.95957e-09
7.31143e-08
2.95535e-09
3.70823e-09
5.18184e-09
5.24886e-08
2.9284e-09
1.56157e-06
3.11421e-06
4.61383e-09
5.53314e-09
9.24543e-08
9.3571e-09
4.88134e-09
5.48612e-09
7.0653e-08
2.11309e-07
2.1501e-07
4.66183e-09
1.80106e-07
1.83196e-07
1.62586e-08
4.40778e-07
1.17397e-08
6.42682e-07
6.80878e-06
9.8386e-06
1.78841e-08
4.95009e-07
1.32961e-08
7.0151e-07
1.36948e-09
1.74326e-09
1.84329e-09
1.39562e-09
1.31904e-09