/*--------------------------------*- C++ -*----------------------------------*\
| =========                 |                                                 |
| \\      /  F ield         | OpenFOAM: The Open Source CFD Toolbox           |
|  \\    /   O peration     | Version:  v2012                                 |
|   \\  /    A nd           | Website:  www.openfoam.com                      |
|    \\/     M anipulation  |                                                 |
\*---------------------------------------------------------------------------*/
FoamFile
{
    version     2.0;
    format      ascii;
    class       volScalarField;
    location    "1112.5";
    object      k;
}
// * * * * * * * * * * * * * * * * * * * * * * * * * * * * * * * * * * * * * //

dimensions      [0 2 -2 0 0 0 0];


internalField   nonuniform List<scalar> 
171728
(
1.67137e-07
2.61797e-07
4.43709e-07
3.49591e-07
1.65777e-07
2.52452e-07
4.55458e-07
3.32102e-07
1.62119e-07
2.43423e-07
4.95685e-07
3.22066e-07
1.5865e-07
2.34731e-07
5.60564e-07
3.08109e-07
1.55101e-07
2.25857e-07
6.4326e-07
2.89794e-07
1.51813e-07
2.17819e-07
7.48673e-07
2.78483e-07
1.4877e-07
2.11226e-07
7.74026e-07
2.71421e-07
1.4576e-07
2.0514e-07
5.81594e-07
2.70934e-07
1.43607e-07
2.00367e-07
3.55149e-07
2.76535e-07
1.40665e-07
1.97193e-07
2.51417e-07
2.91276e-07
1.38526e-07
1.95473e-07
2.1081e-07
2.99164e-07
1.38139e-07
1.94432e-07
1.88982e-07
2.79795e-07
1.3701e-07
1.93014e-07
1.78627e-07
2.38693e-07
1.34802e-07
1.92329e-07
1.74655e-07
2.33648e-07
1.31922e-07
1.92659e-07
1.7301e-07
2.53448e-07
1.30067e-07
1.95792e-07
1.76005e-07
2.74537e-07
1.27221e-07
2.02383e-07
1.85716e-07
2.75265e-07
1.21123e-07
2.17675e-07
2.02645e-07
2.4496e-07
1.16582e-07
2.44391e-07
2.30892e-07
2.59379e-07
1.14913e-07
2.93454e-07
2.80674e-07
3.18097e-07
1.15062e-07
3.63806e-07
3.44102e-07
4.3644e-07
1.13095e-07
4.86447e-07
4.67488e-07
6.458e-07
1.07954e-07
6.27937e-07
6.16729e-07
1.05676e-06
1.04733e-07
9.14174e-07
8.59635e-07
1.71822e-06
1.04526e-07
1.1965e-06
1.17528e-06
2.50544e-06
1.06852e-07
1.59104e-06
1.60335e-06
3.77853e-06
1.11815e-07
2.24972e-06
2.0784e-06
5.82753e-06
1.2141e-07
2.77726e-06
2.75353e-06
6.55438e-06
1.3989e-07
3.43976e-06
3.64452e-06
1.14253e-05
1.57724e-07
4.63875e-06
4.12393e-06
1.20557e-05
1.94506e-07
5.32621e-06
5.50326e-06
1.46057e-05
2.47315e-07
6.4907e-06
6.5227e-06
1.75396e-05
3.09451e-07
7.83288e-06
7.59603e-06
1.93016e-05
3.93599e-07
9.14106e-06
9.14737e-06
2.15691e-05
5.25627e-07
1.04899e-05
1.05636e-05
2.34323e-05
6.6827e-07
1.23029e-05
1.20601e-05
2.51717e-05
8.70837e-07
1.35097e-05
1.37445e-05
2.64047e-05
1.16204e-06
1.55622e-05
1.5667e-05
2.806e-05
1.38506e-06
1.76817e-05
1.7003e-05
2.93165e-05
1.87189e-06
1.85192e-05
1.90491e-05
3.04327e-05
2.35184e-06
2.07571e-05
2.10418e-05
3.14792e-05
2.81308e-06
2.28315e-05
2.22807e-05
3.32575e-05
3.57089e-06
2.49796e-05
2.48945e-05
3.42817e-05
4.24424e-06
2.55623e-05
2.64761e-05
3.43972e-05
4.50205e-06
2.82687e-05
2.69408e-05
3.60432e-05
6.43447e-06
3.05488e-05
3.04752e-05
3.8385e-05
7.37005e-06
3.08651e-05
3.16878e-05
3.8088e-05
7.47956e-06
3.20608e-05
3.18511e-05
3.87692e-05
9.30994e-06
3.50629e-05
3.46331e-05
4.08086e-05
1.19915e-05
3.54354e-05
3.60738e-05
4.10487e-05
1.22335e-05
3.59571e-05
3.62002e-05
4.15923e-05
1.23724e-05
3.8875e-05
3.83273e-05
4.40419e-05
1.53003e-05
3.97068e-05
3.95156e-05
4.46866e-05
1.70432e-05
3.99843e-05
4.04411e-05
4.44537e-05
1.79575e-05
4.09312e-05
4.10481e-05
4.5125e-05
1.92134e-05
4.22229e-05
4.24497e-05
4.65331e-05
2.20725e-05
4.3926e-05
4.39249e-05
4.73001e-05
2.34866e-05
4.46531e-05
4.45272e-05
4.84231e-05
2.40253e-05
4.53439e-05
4.46417e-05
4.82508e-05
2.53845e-05
4.5483e-05
4.67118e-05
4.82281e-05
2.72805e-05
4.69216e-05
4.77435e-05
5.05629e-05
2.94312e-05
4.85303e-05
4.71644e-05
5.14251e-05
2.98689e-05
4.85907e-05
4.71683e-05
5.02916e-05
3.0061e-05
4.86056e-05
4.97618e-05
5.07403e-05
3.25479e-05
5.02885e-05
5.15312e-05
5.40004e-05
3.45961e-05
5.13823e-05
5.08805e-05
5.35343e-05
3.45291e-05
5.0473e-05
4.94273e-05
5.07598e-05
3.40779e-05
5.03421e-05
5.09702e-05
5.3274e-05
3.589e-05
5.33601e-05
5.43703e-05
5.6763e-05
3.91169e-05
5.3762e-05
5.41709e-05
5.4963e-05
3.94825e-05
5.32271e-05
5.22911e-05
5.3722e-05
3.91778e-05
5.36179e-05
5.26557e-05
5.48727e-05
3.9435e-05
5.40112e-05
5.44143e-05
5.51723e-05
4.00099e-05
5.38668e-05
5.43894e-05
5.49546e-05
4.11508e-05
5.48105e-05
5.45313e-05
5.71033e-05
4.33652e-05
5.66826e-05
5.65819e-05
5.87222e-05
4.40862e-05
5.6224e-05
5.67363e-05
5.71752e-05
4.33675e-05
5.46125e-05
5.48464e-05
5.50134e-05
4.31203e-05
5.52772e-05
5.47086e-05
5.62214e-05
4.41417e-05
5.72676e-05
5.6624e-05
5.82696e-05
4.54809e-05
5.69102e-05
5.70484e-05
5.77306e-05
4.58493e-05
5.63081e-05
5.70169e-05
5.75705e-05
4.59279e-05
5.69776e-05
5.7329e-05
5.87165e-05
4.57278e-05
5.71481e-05
5.7153e-05
5.81096e-05
4.55613e-05
5.66744e-05
5.59966e-05
5.66454e-05
4.63822e-05
5.70568e-05
5.61766e-05
5.77446e-05
4.7255e-05
5.76815e-05
5.84339e-05
5.96252e-05
4.69252e-05
5.71697e-05
5.86064e-05
5.88631e-05
4.65271e-05
5.6766e-05
5.65734e-05
5.72784e-05
4.70409e-05
5.70125e-05
5.55764e-05
5.716e-05
4.7163e-05
5.70439e-05
5.6166e-05
5.7837e-05
4.62627e-05
5.6776e-05
5.7742e-05
5.85727e-05
4.61541e-05
5.68993e-05
5.80573e-05
5.87996e-05
4.69815e-05
5.68111e-05
5.66035e-05
5.75233e-05
4.66239e-05
5.48544e-05
5.41921e-05
5.6322e-05
3.63631e-07
3.08832e-07
3.16561e-07
3.49573e-07
3.21284e-07
3.15059e-07
1.65352e-07
1.61471e-07
1.91976e-07
1.81975e-07
2.92963e-07
3.03754e-07
3.56911e-07
3.56157e-07
3.08993e-07
3.52992e-07
3.62574e-07
3.43055e-07
2.51446e-07
3.02821e-07
2.43654e-07
2.93773e-07
3.48578e-07
3.29482e-07
3.44129e-07
3.19304e-07
3.33359e-07
3.09763e-07
4.07471e-07
2.54834e-07
3.78865e-07
3.54697e-07
3.40038e-07
4.93671e-07
4.51618e-07
5.011e-07
3.35182e-07
3.41787e-07
3.24634e-07
2.40482e-07
2.90423e-07
2.31184e-07
2.81106e-07
3.28325e-07
3.11126e-07
3.29718e-07
3.06314e-07
3.2049e-07
2.96737e-07
3.68744e-07
2.45691e-07
3.35371e-07
3.37072e-07
3.28957e-07
5.01845e-07
4.80607e-07
4.9721e-07
3.24565e-07
3.23528e-07
3.08705e-07
2.28089e-07
2.78208e-07
2.19205e-07
2.70045e-07
3.10128e-07
2.95216e-07
3.17982e-07
2.93612e-07
3.12545e-07
2.85151e-07
3.22978e-07
2.3691e-07
2.89723e-07
3.27378e-07
3.2733e-07
4.9009e-07
5.4525e-07
4.64904e-07
3.1185e-07
3.07636e-07
2.94138e-07
2.16321e-07
2.67399e-07
2.08412e-07
2.59337e-07
2.94286e-07
2.80464e-07
3.10949e-07
2.82612e-07
3.04321e-07
2.75563e-07
2.81449e-07
2.28056e-07
2.6385e-07
3.26486e-07
3.33439e-07
4.49384e-07
6.17519e-07
3.88791e-07
2.92307e-07
2.93184e-07
2.80393e-07
2.06081e-07
2.56442e-07
1.99138e-07
2.47963e-07
2.79574e-07
2.66376e-07
3.01511e-07
2.7338e-07
2.92519e-07
2.6817e-07
2.59788e-07
2.19637e-07
2.49426e-07
3.33065e-07
3.49785e-07
3.72663e-07
7.26514e-07
3.50108e-07
2.80478e-07
2.79471e-07
2.67242e-07
1.96936e-07
2.45244e-07
1.90453e-07
2.36824e-07
2.65553e-07
2.53282e-07
2.89736e-07
2.66731e-07
2.83491e-07
2.61969e-07
2.45966e-07
2.12798e-07
2.36726e-07
3.49213e-07
3.5652e-07
3.48402e-07
7.75258e-07
3.4897e-07
2.72324e-07
2.66475e-07
2.5609e-07
1.88367e-07
2.33952e-07
1.82591e-07
2.25784e-07
2.52551e-07
2.41593e-07
2.82264e-07
2.60104e-07
2.78782e-07
2.52976e-07
2.34215e-07
2.06533e-07
2.27983e-07
3.53691e-07
3.14404e-07
3.52204e-07
6.52849e-07
3.73853e-07
2.7111e-07
2.55491e-07
2.46408e-07
1.8067e-07
2.23233e-07
1.75067e-07
2.16807e-07
2.41041e-07
2.31859e-07
2.77261e-07
2.50328e-07
2.72446e-07
2.43928e-07
2.26265e-07
2.01392e-07
2.22971e-07
2.99667e-07
2.6138e-07
3.82362e-07
3.99505e-07
4.14767e-07
2.76119e-07
2.45911e-07
2.3581e-07
1.73348e-07
2.1524e-07
1.68657e-07
2.11592e-07
2.31448e-07
2.23651e-07
2.70594e-07
2.42205e-07
2.62641e-07
2.37288e-07
2.22686e-07
1.97876e-07
2.22739e-07
2.58761e-07
2.42705e-07
4.30756e-07
2.68498e-07
4.92619e-07
2.91003e-07
2.35255e-07
2.24615e-07
1.67268e-07
2.10651e-07
1.63976e-07
2.08336e-07
2.23339e-07
2.16622e-07
2.59353e-07
2.35886e-07
2.50932e-07
2.33059e-07
2.22923e-07
1.95823e-07
2.23862e-07
2.41535e-07
2.28971e-07
5.12833e-07
2.18422e-07
5.49272e-07
2.99766e-07
2.24222e-07
2.17536e-07
1.63351e-07
2.07701e-07
1.62232e-07
2.06291e-07
2.16403e-07
2.10684e-07
2.49416e-07
2.32383e-07
2.48451e-07
2.28876e-07
2.2498e-07
1.94603e-07
2.36365e-07
2.28165e-07
2.17169e-07
5.51936e-07
1.93369e-07
5.31262e-07
2.90273e-07
2.17665e-07
2.16354e-07
1.6224e-07
2.05778e-07
1.6288e-07
2.03546e-07
2.10548e-07
2.05294e-07
2.4856e-07
2.27071e-07
2.53049e-07
2.22428e-07
2.41832e-07
1.93342e-07
2.62701e-07
2.16614e-07
2.07446e-07
4.83576e-07
1.8037e-07
3.37267e-07
2.40185e-07
2.17106e-07
2.19263e-07
1.63321e-07
2.02714e-07
1.65171e-07
2.00746e-07
2.05265e-07
2.0075e-07
2.57159e-07
2.22054e-07
2.74029e-07
2.22475e-07
2.71969e-07
1.92302e-07
3.16214e-07
2.07232e-07
2.01509e-07
2.97038e-07
1.7527e-07
2.11677e-07
2.32849e-07
2.20643e-07
2.25274e-07
1.66026e-07
1.99919e-07
1.69569e-07
1.99722e-07
2.00931e-07
1.98107e-07
2.81823e-07
2.23138e-07
3.0944e-07
2.26327e-07
3.37621e-07
1.92407e-07
4.13297e-07
2.01734e-07
2.01101e-07
1.95274e-07
1.7296e-07
1.69984e-07
2.48089e-07
2.2732e-07
2.34065e-07
1.71021e-07
2.00179e-07
1.77143e-07
2.02864e-07
1.987e-07
1.98457e-07
3.19134e-07
2.29982e-07
3.46627e-07
2.5423e-07
4.39101e-07
1.94987e-07
5.01229e-07
2.02367e-07
2.07451e-07
1.66693e-07
1.7469e-07
1.62467e-07
2.71811e-07
2.36857e-07
2.43688e-07
1.79249e-07
2.04055e-07
1.88243e-07
2.10182e-07
1.99908e-07
2.02997e-07
3.54549e-07
2.65793e-07
3.75029e-07
3.07082e-07
5.13707e-07
2.00291e-07
5.27307e-07
2.10628e-07
2.23706e-07
1.62486e-07
1.82713e-07
1.66411e-07
2.74794e-07
2.4644e-07
2.51218e-07
1.91243e-07
2.13301e-07
2.03994e-07
2.26457e-07
2.06007e-07
2.1729e-07
3.78586e-07
3.22067e-07
3.81291e-07
3.69384e-07
5.25482e-07
2.12599e-07
4.38991e-07
2.29095e-07
2.46166e-07
1.68463e-07
1.97425e-07
1.8079e-07
2.43796e-07
2.55182e-07
2.68026e-07
2.09199e-07
2.33046e-07
2.29624e-07
2.56409e-07
2.24097e-07
2.485e-07
3.76794e-07
3.8115e-07
3.70769e-07
4.16516e-07
4.03201e-07
2.36327e-07
3.31144e-07
2.53467e-07
2.76003e-07
1.85907e-07
2.21952e-07
2.07439e-07
2.48375e-07
2.77907e-07
3.28776e-07
2.39311e-07
2.66839e-07
2.75991e-07
3.09728e-07
2.60242e-07
3.11194e-07
3.72229e-07
4.24829e-07
3.96832e-07
4.26273e-07
3.17788e-07
2.80104e-07
3.11778e-07
2.87661e-07
3.24894e-07
2.18788e-07
2.65072e-07
2.52793e-07
3.00085e-07
3.49904e-07
4.39135e-07
2.87539e-07
3.26819e-07
3.45504e-07
3.90113e-07
3.33844e-07
4.2173e-07
4.11812e-07
4.26149e-07
4.99805e-07
4.35937e-07
3.14633e-07
3.44017e-07
3.47021e-07
3.43997e-07
4.08954e-07
2.66777e-07
3.16688e-07
3.27936e-07
3.98948e-07
4.82252e-07
6.23045e-07
3.69236e-07
4.15069e-07
4.43398e-07
5.11893e-07
4.55315e-07
6.37235e-07
5.32543e-07
4.45609e-07
6.10372e-07
5.16092e-07
3.63718e-07
4.46921e-07
4.34466e-07
4.34959e-07
6.79909e-07
3.50708e-07
4.48643e-07
4.3175e-07
5.92654e-07
6.79985e-07
1.03799e-06
4.82118e-07
5.56187e-07
6.10876e-07
6.818e-07
7.05136e-07
9.84082e-07
6.41087e-07
5.26244e-07
7.45734e-07
5.82225e-07
4.70597e-07
5.91781e-07
5.77229e-07
7.19732e-07
8.2964e-07
4.69849e-07
5.5796e-07
5.79737e-07
9.69531e-07
1.11924e-06
1.45366e-06
6.51286e-07
7.22914e-07
7.99945e-07
9.40415e-07
1.06481e-06
1.57354e-06
7.74648e-07
6.70499e-07
8.66805e-07
9.23017e-07
6.27622e-07
8.36742e-07
8.25434e-07
9.36918e-07
1.60128e-06
6.28693e-07
7.88933e-07
8.26758e-07
1.55134e-06
1.60436e-06
2.44144e-06
8.68561e-07
1.02702e-06
1.13197e-06
1.21482e-06
1.75516e-06
2.41246e-06
9.30674e-07
1.00653e-06
1.21482e-06
1.23019e-06
8.69857e-07
1.08514e-06
1.12264e-06
1.71503e-06
2.3739e-06
8.71104e-07
1.10833e-06
1.12275e-06
2.27817e-06
2.66949e-06
3.61695e-06
1.22245e-06
1.32334e-06
1.51063e-06
1.64501e-06
2.5627e-06
3.73349e-06
1.29812e-06
1.27898e-06
1.54719e-06
1.55058e-06
1.23184e-06
1.51794e-06
1.44651e-06
2.57971e-06
3.42381e-06
1.22771e-06
1.45222e-06
1.44173e-06
3.55061e-06
3.85692e-06
5.15746e-06
1.63437e-06
1.72034e-06
1.97611e-06
2.16753e-06
4.05057e-06
5.23163e-06
1.65306e-06
1.72995e-06
1.95426e-06
2.12013e-06
1.60273e-06
2.0855e-06
2.10792e-06
3.74051e-06
5.30547e-06
1.60628e-06
1.98385e-06
2.11509e-06
5.57628e-06
5.52831e-06
7.16883e-06
2.12351e-06
2.33887e-06
2.64063e-06
2.60259e-06
5.66231e-06
7.24671e-06
2.10946e-06
2.20348e-06
2.61447e-06
2.72054e-06
2.19039e-06
2.55608e-06
2.36788e-06
5.60563e-06
7.00923e-06
2.19648e-06
2.54648e-06
2.35971e-06
6.20163e-06
7.60451e-06
9.43682e-06
2.76508e-06
2.78221e-06
3.30546e-06
3.40139e-06
7.49315e-06
9.45465e-06
2.7309e-06
2.94203e-06
3.2927e-06
3.62368e-06
2.60721e-06
3.30529e-06
3.61633e-06
7.51264e-06
1.00892e-05
2.57477e-06
3.44737e-06
3.60336e-06
1.08895e-05
9.90901e-06
1.22068e-05
3.60004e-06
3.5449e-06
4.21797e-06
4.23516e-06
1.00316e-05
1.20125e-05
3.58899e-06
3.83582e-06
4.19699e-06
4.15417e-06
3.78956e-06
4.29047e-06
4.10077e-06
1.05465e-05
1.15438e-05
3.78445e-06
3.96682e-06
4.10669e-06
1.19005e-05
1.26287e-05
1.39552e-05
4.32499e-06
4.54435e-06
5.03514e-06
5.11652e-06
1.2596e-05
1.47169e-05
4.29357e-06
4.27996e-06
4.98846e-06
5.23499e-06
4.2338e-06
5.25422e-06
4.99113e-06
1.18627e-05
1.42238e-05
4.21821e-06
5.13381e-06
4.98052e-06
1.38759e-05
1.45427e-05
1.72542e-05
5.39278e-06
5.23909e-06
6.38624e-06
6.08874e-06
1.50211e-05
1.62523e-05
5.37783e-06
5.59101e-06
6.36895e-06
6.44172e-06
5.35834e-06
6.04858e-06
6.3342e-06
1.49558e-05
1.72484e-05
5.35556e-06
6.29634e-06
6.34843e-06
1.70777e-05
1.77383e-05
1.89067e-05
6.62573e-06
6.52644e-06
7.39384e-06
7.5768e-06
1.68564e-05
1.93781e-05
6.59012e-06
6.6868e-06
7.37031e-06
7.38134e-06
6.53795e-06
7.52494e-06
7.3711e-06
1.76053e-05
1.86656e-05
6.57058e-06
7.27396e-06
7.34156e-06
1.88623e-05
1.93161e-05
2.1076e-05
7.73847e-06
7.83396e-06
8.78696e-06
8.85117e-06
1.98425e-05
2.10651e-05
7.7106e-06
7.66667e-06
8.6788e-06
8.80278e-06
7.73051e-06
8.84026e-06
8.77047e-06
1.91188e-05
2.11355e-05
7.67345e-06
8.76015e-06
8.77568e-06
2.10934e-05
2.15499e-05
2.30137e-05
9.11357e-06
9.15224e-06
1.02567e-05
1.00325e-05
2.14582e-05
2.28119e-05
9.06619e-06
9.20678e-06
1.02345e-05
1.03227e-05
9.1413e-06
1.00796e-05
1.01916e-05
2.16349e-05
2.30237e-05
9.15939e-06
1.02103e-05
1.01605e-05
2.30286e-05
2.34225e-05
2.46594e-05
1.06798e-05
1.04369e-05
1.16971e-05
1.18444e-05
2.32526e-05
2.48335e-05
1.05716e-05
1.06663e-05
1.17829e-05
1.17284e-05
1.05682e-05
1.18666e-05
1.19434e-05
2.33977e-05
2.45708e-05
1.05426e-05
1.16942e-05
1.19594e-05
2.48012e-05
2.50231e-05
2.62086e-05
1.20953e-05
1.23344e-05
1.34357e-05
1.3344e-05
2.52188e-05
2.60492e-05
1.21646e-05
1.20976e-05
1.33059e-05
1.3323e-05
1.2288e-05
1.32782e-05
1.32545e-05
2.4941e-05
2.61491e-05
1.22901e-05
1.32901e-05
1.31658e-05
2.60811e-05
2.65834e-05
2.77029e-05
1.37876e-05
1.35225e-05
1.52173e-05
1.48076e-05
2.63361e-05
2.75754e-05
1.37668e-05
1.37687e-05
1.52162e-05
1.52107e-05
1.36567e-05
1.48608e-05
1.50638e-05
2.6539e-05
2.7727e-05
1.35938e-05
1.51646e-05
1.52721e-05
2.76683e-05
2.80221e-05
2.88311e-05
1.57744e-05
1.55364e-05
1.66841e-05
1.74019e-05
2.80491e-05
2.92433e-05
1.56808e-05
1.56933e-05
1.66002e-05
1.66905e-05
1.55923e-05
1.73676e-05
1.69197e-05
2.80465e-05
2.88424e-05
1.58401e-05
1.67483e-05
1.70015e-05
2.9046e-05
2.91152e-05
3.03e-05
1.69574e-05
1.77609e-05
1.87024e-05
1.81961e-05
2.94654e-05
2.9891e-05
1.68466e-05
1.69653e-05
1.86859e-05
1.85513e-05
1.73133e-05
1.8114e-05
1.85707e-05
2.91079e-05
3.01337e-05
1.73144e-05
1.84802e-05
1.84645e-05
3.01365e-05
3.06866e-05
3.1497e-05
1.94352e-05
1.84778e-05
2.05961e-05
2.03129e-05
3.01411e-05
3.14046e-05
1.94056e-05
1.91167e-05
2.07341e-05
2.05558e-05
1.9045e-05
2.03212e-05
2.03053e-05
3.05159e-05
3.14889e-05
1.89787e-05
2.05378e-05
2.04028e-05
3.12331e-05
3.17086e-05
3.25309e-05
2.07898e-05
2.08029e-05
2.19222e-05
2.22027e-05
3.17325e-05
3.26207e-05
2.11083e-05
2.10648e-05
2.24305e-05
2.20323e-05
2.0602e-05
2.22017e-05
2.2088e-05
3.17348e-05
3.2407e-05
2.07087e-05
2.20024e-05
2.21338e-05
3.28067e-05
3.28742e-05
3.39633e-05
2.2551e-05
2.2801e-05
2.46656e-05
2.458e-05
3.29592e-05
3.40718e-05
2.2868e-05
2.22917e-05
2.39906e-05
2.41014e-05
2.28672e-05
2.45999e-05
2.48939e-05
3.26502e-05
3.39299e-05
2.28916e-05
2.41379e-05
2.48546e-05
3.41773e-05
3.41971e-05
3.47148e-05
2.5195e-05
2.50238e-05
2.59572e-05
2.56367e-05
3.42641e-05
3.45122e-05
2.44301e-05
2.48544e-05
2.59519e-05
2.62794e-05
2.52313e-05
2.54632e-05
2.5629e-05
3.43127e-05
3.49558e-05
2.5188e-05
2.62869e-05
2.56125e-05
3.42614e-05
3.48707e-05
3.55936e-05
2.6044e-05
2.57268e-05
2.64324e-05
2.71138e-05
3.46371e-05
3.60067e-05
2.62789e-05
2.64862e-05
2.7098e-05
2.67832e-05
2.57076e-05
2.72639e-05
2.6229e-05
3.50601e-05
3.53403e-05
2.56955e-05
2.67567e-05
2.6196e-05
3.55018e-05
3.59891e-05
3.76805e-05
2.70667e-05
2.8017e-05
3.01325e-05
3.00671e-05
3.65347e-05
3.76491e-05
2.76885e-05
2.69741e-05
2.99168e-05
2.96627e-05
2.71464e-05
3.02883e-05
3.06442e-05
3.55944e-05
3.76174e-05
2.70661e-05
2.96011e-05
3.05076e-05
3.82401e-05
3.7889e-05
3.80196e-05
3.07128e-05
3.03795e-05
3.13033e-05
3.07728e-05
3.77331e-05
3.77056e-05
3.04362e-05
3.05398e-05
3.10789e-05
3.16944e-05
3.10909e-05
3.08197e-05
3.13513e-05
3.8041e-05
3.84996e-05
3.10203e-05
3.16079e-05
3.14002e-05
3.80658e-05
3.80578e-05
3.83718e-05
3.1372e-05
3.08372e-05
3.15726e-05
3.14106e-05
3.78233e-05
3.86496e-05
3.11405e-05
3.17779e-05
3.12919e-05
3.18717e-05
3.1365e-05
3.12805e-05
3.15113e-05
3.85351e-05
3.84544e-05
3.14155e-05
3.17888e-05
3.15144e-05
3.84755e-05
3.86288e-05
4.07817e-05
3.17402e-05
3.21878e-05
3.42675e-05
3.43214e-05
3.90732e-05
4.06934e-05
3.14768e-05
3.19229e-05
3.42014e-05
3.34774e-05
3.1724e-05
3.46838e-05
3.43374e-05
3.85825e-05
4.02773e-05
3.16236e-05
3.36224e-05
3.3894e-05
4.05655e-05
4.119e-05
4.16821e-05
3.5032e-05
3.47357e-05
3.59837e-05
3.53134e-05
4.08587e-05
4.09383e-05
3.50536e-05
3.45217e-05
3.62895e-05
3.61249e-05
3.48636e-05
3.53975e-05
3.53515e-05
4.08279e-05
4.16945e-05
3.4633e-05
3.59861e-05
3.55676e-05
4.10001e-05
4.17163e-05
4.15902e-05
3.60693e-05
3.53826e-05
3.61798e-05
3.59285e-05
4.09662e-05
4.15793e-05
3.64015e-05
3.62749e-05
3.64998e-05
3.64276e-05
3.54195e-05
3.56418e-05
3.56399e-05
4.17277e-05
4.15382e-05
3.56691e-05
3.61566e-05
3.58517e-05
4.13654e-05
4.16686e-05
4.25433e-05
3.62214e-05
3.66893e-05
3.72951e-05
3.88419e-05
4.20009e-05
4.39172e-05
3.65171e-05
3.64616e-05
3.68057e-05
3.73546e-05
3.58362e-05
3.83376e-05
3.82046e-05
4.15987e-05
4.29054e-05
3.59887e-05
3.75737e-05
3.81039e-05
4.36204e-05
4.2895e-05
4.41986e-05
3.79944e-05
3.92521e-05
3.95461e-05
3.97049e-05
4.41339e-05
4.41945e-05
3.73481e-05
3.79575e-05
3.93174e-05
3.90915e-05
3.90058e-05
3.96228e-05
4.02721e-05
4.33403e-05
4.40462e-05
3.88292e-05
3.9302e-05
3.9807e-05
4.46581e-05
4.44075e-05
4.46394e-05
3.97921e-05
3.97415e-05
4.00066e-05
3.9771e-05
4.42078e-05
4.41093e-05
3.97638e-05
3.94668e-05
4.03146e-05
4.0462e-05
4.03821e-05
3.98291e-05
4.04112e-05
4.41645e-05
4.48568e-05
3.98634e-05
4.02899e-05
3.9867e-05
4.44332e-05
4.4694e-05
4.51013e-05
4.00695e-05
3.98051e-05
4.07904e-05
4.07351e-05
4.42511e-05
4.52656e-05
4.0361e-05
4.06278e-05
4.0823e-05
4.09767e-05
4.03978e-05
4.08193e-05
4.0433e-05
4.49859e-05
4.51846e-05
3.98673e-05
4.07856e-05
4.03139e-05
4.48324e-05
4.52883e-05
4.62162e-05
4.102e-05
4.09826e-05
4.20158e-05
4.19122e-05
4.53979e-05
4.59903e-05
4.10295e-05
4.11582e-05
4.20329e-05
4.1887e-05
4.061e-05
4.17175e-05
4.20224e-05
4.52919e-05
4.6111e-05
4.09477e-05
4.20936e-05
4.24449e-05
4.63686e-05
4.65416e-05
4.76314e-05
4.25442e-05
4.24161e-05
4.3888e-05
4.38335e-05
4.62995e-05
4.754e-05
4.25467e-05
4.22358e-05
4.38713e-05
4.36037e-05
4.23275e-05
4.36935e-05
4.32812e-05
4.63474e-05
4.74093e-05
4.26672e-05
4.35911e-05
4.31571e-05
4.70523e-05
4.7725e-05
4.76579e-05
4.41141e-05
4.4085e-05
4.43289e-05
4.43825e-05
4.76856e-05
4.79012e-05
4.40925e-05
4.39938e-05
4.4285e-05
4.45621e-05
4.37038e-05
4.44101e-05
4.48683e-05
4.76427e-05
4.79181e-05
4.35016e-05
4.44726e-05
4.46505e-05
4.83143e-05
4.76798e-05
4.81626e-05
4.43459e-05
4.45511e-05
4.48219e-05
4.50722e-05
4.80172e-05
4.83418e-05
4.43128e-05
4.46148e-05
4.48437e-05
4.46761e-05
4.50992e-05
4.52558e-05
4.52895e-05
4.79303e-05
4.77615e-05
4.48756e-05
4.4591e-05
4.50571e-05
4.82538e-05
4.83358e-05
4.86964e-05
4.50982e-05
4.51624e-05
4.54393e-05
4.52774e-05
4.83783e-05
4.83796e-05
4.50064e-05
4.4716e-05
4.54266e-05
4.58568e-05
4.52802e-05
4.54429e-05
4.52364e-05
4.78177e-05
4.9476e-05
4.50613e-05
4.60005e-05
4.51036e-05
4.8108e-05
4.88999e-05
5.02903e-05
4.56245e-05
4.53565e-05
4.70515e-05
4.67891e-05
4.84815e-05
4.98578e-05
4.58115e-05
4.65485e-05
4.7342e-05
4.76206e-05
4.52512e-05
4.62902e-05
4.62025e-05
4.9968e-05
5.07024e-05
4.51909e-05
4.77178e-05
4.71248e-05
5.00652e-05
5.05432e-05
5.06827e-05
4.75491e-05
4.74014e-05
4.82124e-05
4.83649e-05
5.02517e-05
5.10426e-05
4.76999e-05
4.76601e-05
4.80105e-05
4.7353e-05
4.70417e-05
4.8344e-05
4.86197e-05
5.06872e-05
4.94894e-05
4.77988e-05
4.73241e-05
4.85806e-05
5.14166e-05
5.06628e-05
5.02826e-05
4.82217e-05
4.84238e-05
4.80607e-05
4.83334e-05
5.10713e-05
5.07774e-05
4.79965e-05
4.72444e-05
4.78282e-05
4.72368e-05
4.87316e-05
4.86187e-05
4.85172e-05
4.94483e-05
4.96112e-05
4.85863e-05
4.71013e-05
4.79727e-05
5.03467e-05
5.03109e-05
5.11793e-05
4.80449e-05
4.82923e-05
4.82307e-05
4.83543e-05
5.07853e-05
5.10294e-05
4.78281e-05
4.73499e-05
4.83693e-05
4.93839e-05
4.83044e-05
4.85672e-05
4.82126e-05
4.99134e-05
5.2301e-05
4.77848e-05
4.89346e-05
4.7787e-05
5.03923e-05
5.15335e-05
5.29561e-05
4.86705e-05
4.85839e-05
5.02881e-05
4.97308e-05
5.12068e-05
5.22297e-05
4.90557e-05
5.01208e-05
5.07746e-05
5.13744e-05
4.83052e-05
4.97002e-05
5.05632e-05
5.27868e-05
5.38026e-05
4.8063e-05
5.13812e-05
5.11252e-05
5.36544e-05
5.31861e-05
5.33874e-05
5.07399e-05
5.02285e-05
5.1316e-05
5.12965e-05
5.25384e-05
5.34525e-05
5.11215e-05
5.14676e-05
5.13798e-05
5.1242e-05
5.12668e-05
5.13429e-05
5.17574e-05
5.38291e-05
5.26601e-05
5.16838e-05
5.13872e-05
5.19142e-05
5.38653e-05
5.33345e-05
5.19809e-05
5.13129e-05
5.13606e-05
5.06696e-05
5.10214e-05
5.34859e-05
5.24191e-05
5.13203e-05
5.06591e-05
5.01078e-05
4.93209e-05
5.16532e-05
5.08761e-05
4.98212e-05
5.2388e-05
5.10201e-05
5.16424e-05
4.9508e-05
4.93323e-05
5.0832e-05
5.19177e-05
5.21578e-05
5.03911e-05
5.06337e-05
5.02271e-05
5.03382e-05
5.22719e-05
5.21012e-05
4.98715e-05
4.92331e-05
4.98407e-05
4.96067e-05
4.95545e-05
5.02331e-05
4.97081e-05
5.10257e-05
5.25417e-05
4.91409e-05
4.98686e-05
4.96288e-05
5.23357e-05
5.24752e-05
5.50454e-05
5.03113e-05
5.04048e-05
5.24962e-05
5.25527e-05
5.23854e-05
5.51086e-05
5.01041e-05
5.06026e-05
5.29084e-05
5.38706e-05
5.04193e-05
5.27524e-05
5.38333e-05
5.33036e-05
5.62152e-05
5.10025e-05
5.40071e-05
5.4488e-05
5.66477e-05
5.5412e-05
5.57948e-05
5.32586e-05
5.32703e-05
5.40874e-05
5.38738e-05
5.54245e-05
5.53763e-05
5.35773e-05
5.43535e-05
5.42552e-05
5.45646e-05
5.41993e-05
5.37982e-05
5.4151e-05
5.64027e-05
5.57993e-05
5.47593e-05
5.44585e-05
5.4554e-05
5.53272e-05
5.57502e-05
5.47236e-05
5.4091e-05
5.38518e-05
5.34958e-05
5.32523e-05
5.52744e-05
5.45473e-05
5.42515e-05
5.43794e-05
5.34492e-05
5.26385e-05
5.36785e-05
5.32571e-05
5.27597e-05
5.55263e-05
5.36336e-05
5.38374e-05
5.24685e-05
5.22947e-05
5.36987e-05
5.46886e-05
5.47782e-05
5.33125e-05
5.31906e-05
5.32262e-05
5.32939e-05
5.45622e-05
5.51064e-05
5.32135e-05
5.24344e-05
5.30995e-05
5.2491e-05
5.27299e-05
5.33415e-05
5.30302e-05
5.35928e-05
5.42433e-05
5.21948e-05
5.23254e-05
5.23163e-05
5.46071e-05
5.49013e-05
5.53479e-05
5.3282e-05
5.35873e-05
5.38363e-05
5.40316e-05
5.53132e-05
5.55145e-05
5.31656e-05
5.28936e-05
5.38749e-05
5.4384e-05
5.34055e-05
5.40146e-05
5.37728e-05
5.46505e-05
5.6066e-05
5.27242e-05
5.42577e-05
5.3655e-05
5.51947e-05
5.53523e-05
5.50656e-05
5.38606e-05
5.40245e-05
5.38135e-05
5.38298e-05
5.54872e-05
5.51002e-05
5.39134e-05
5.44679e-05
5.38557e-05
5.42934e-05
5.37596e-05
5.3872e-05
5.36373e-05
5.61148e-05
5.55783e-05
5.37077e-05
5.44278e-05
5.37493e-05
5.49158e-05
5.50729e-05
5.57798e-05
5.3812e-05
5.38229e-05
5.41154e-05
5.41637e-05
5.51083e-05
5.5937e-05
5.38499e-05
5.41616e-05
5.40701e-05
5.41393e-05
5.36476e-05
5.41859e-05
5.45363e-05
5.55391e-05
5.55133e-05
5.38193e-05
5.44208e-05
5.50126e-05
5.66213e-05
5.61954e-05
5.79796e-05
5.47156e-05
5.48255e-05
5.64826e-05
5.65089e-05
5.63887e-05
5.79787e-05
5.45346e-05
5.42464e-05
5.63714e-05
5.60942e-05
5.53686e-05
5.65052e-05
5.70809e-05
5.56946e-05
5.77149e-05
5.56533e-05
5.61718e-05
5.70327e-05
5.86729e-05
5.80885e-05
5.76427e-05
5.66957e-05
5.66659e-05
5.66974e-05
5.65509e-05
5.8046e-05
5.73044e-05
5.66503e-05
5.6572e-05
5.67341e-05
5.68727e-05
5.72204e-05
5.66027e-05
5.70015e-05
5.79566e-05
5.80407e-05
5.71441e-05
5.68195e-05
5.69171e-05
5.75829e-05
5.74407e-05
5.59632e-05
5.64552e-05
5.6125e-05
5.50912e-05
5.47838e-05
5.70269e-05
5.55792e-05
5.659e-05
5.68067e-05
5.52514e-05
5.53684e-05
5.63766e-05
5.47514e-05
5.44172e-05
5.78815e-05
5.60334e-05
5.63164e-05
5.52138e-05
5.44322e-05
5.50726e-05
5.59062e-05
5.61535e-05
5.49108e-05
5.46726e-05
5.48958e-05
5.48518e-05
5.55569e-05
5.63661e-05
5.50095e-05
5.49893e-05
5.49006e-05
5.47406e-05
5.42109e-05
5.47595e-05
5.43102e-05
5.58888e-05
5.57973e-05
5.4214e-05
5.46302e-05
5.42661e-05
5.57516e-05
5.63651e-05
5.76022e-05
5.50902e-05
5.539e-05
5.64104e-05
5.70279e-05
5.68023e-05
5.84209e-05
5.49835e-05
5.47939e-05
5.61909e-05
5.61228e-05
5.48105e-05
5.70846e-05
5.68368e-05
5.59876e-05
5.75718e-05
5.46619e-05
5.62268e-05
5.66944e-05
5.81712e-05
5.77559e-05
5.79901e-05
5.66697e-05
5.71991e-05
5.69784e-05
5.71659e-05
5.84932e-05
5.79572e-05
5.65235e-05
5.65309e-05
5.69945e-05
5.70336e-05
5.70611e-05
5.7213e-05
5.70601e-05
5.77757e-05
5.80408e-05
5.69651e-05
5.70386e-05
5.70409e-05
5.78371e-05
5.80152e-05
5.80859e-05
5.69953e-05
5.69172e-05
5.69941e-05
5.64102e-05
5.78014e-05
5.72078e-05
5.70409e-05
5.70632e-05
5.70929e-05
5.70587e-05
5.68333e-05
5.63194e-05
5.65251e-05
5.80464e-05
5.80191e-05
5.68975e-05
5.70126e-05
5.66822e-05
5.7469e-05
5.81157e-05
5.81196e-05
5.70029e-05
5.63979e-05
5.70456e-05
5.67093e-05
5.72185e-05
5.78701e-05
5.71025e-05
5.70609e-05
5.71034e-05
5.71897e-05
5.65457e-05
5.67178e-05
5.73192e-05
5.80557e-05
5.82949e-05
5.6707e-05
5.72694e-05
5.74135e-05
5.86279e-05
5.81062e-05
5.74807e-05
5.70394e-05
5.69008e-05
5.67217e-05
5.70257e-05
5.80011e-05
5.80714e-05
5.70872e-05
5.72073e-05
5.67012e-05
5.71289e-05
5.74905e-05
5.71688e-05
5.74879e-05
5.83253e-05
5.80493e-05
5.75423e-05
5.7291e-05
5.75002e-05
5.83264e-05
5.74014e-05
5.71182e-05
5.65454e-05
5.70001e-05
5.63119e-05
5.6727e-05
5.8038e-05
5.76346e-05
5.65182e-05
5.69442e-05
5.62483e-05
5.62126e-05
5.72866e-05
5.67333e-05
5.61228e-05
5.79398e-05
5.69753e-05
5.72583e-05
5.61633e-05
5.59964e-05
5.66888e-05
5.71589e-05
5.84529e-05
5.63223e-05
5.67128e-05
5.71873e-05
5.70282e-05
5.76373e-05
5.81854e-05
5.62521e-05
5.61113e-05
5.70185e-05
5.61668e-05
5.59892e-05
5.67734e-05
5.61003e-05
5.69365e-05
5.72009e-05
5.58487e-05
5.59773e-05
5.59494e-05
5.73223e-05
5.87064e-05
5.91223e-05
5.7579e-05
5.73309e-05
5.7943e-05
5.76499e-05
5.83807e-05
5.87203e-05
5.74604e-05
5.64535e-05
5.79875e-05
5.80108e-05
5.65425e-05
5.76644e-05
5.81637e-05
5.74704e-05
5.92462e-05
5.63901e-05
5.80663e-05
5.82818e-05
5.95374e-05
5.90883e-05
5.7811e-05
5.79249e-05
5.76419e-05
5.7083e-05
5.71019e-05
5.86973e-05
5.79234e-05
5.79855e-05
5.82677e-05
5.7368e-05
5.83935e-05
5.83229e-05
5.74113e-05
5.82516e-05
5.94256e-05
5.95935e-05
5.85029e-05
5.86562e-05
5.85019e-05
5.90865e-05
5.76725e-05
5.74259e-05
5.67973e-05
5.69065e-05
5.65669e-05
5.67303e-05
5.78502e-05
5.77212e-05
5.70451e-05
5.83318e-05
5.66427e-05
5.70663e-05
5.79256e-05
5.67807e-05
5.66534e-05
5.9518e-05
5.78249e-05
5.82617e-05
5.71535e-05
5.6703e-05
5.73683e-05
5.75547e-05
5.87253e-05
5.66151e-05
5.67534e-05
5.75586e-05
5.72522e-05
5.77982e-05
5.82634e-05
5.66494e-05
5.66245e-05
5.72149e-05
5.5958e-05
5.64304e-05
5.69197e-05
5.62317e-05
5.75838e-05
5.66302e-05
5.6359e-05
5.56356e-05
5.59433e-05
5.70986e-05
5.88512e-05
5.87399e-05
5.77298e-05
5.73406e-05
5.77459e-05
5.73415e-05
5.83198e-05
5.82015e-05
5.73857e-05
5.59275e-05
5.74391e-05
5.61421e-05
5.62461e-05
5.70644e-05
5.66439e-05
5.66237e-05
5.71393e-05
5.59394e-05
5.57454e-05
5.62804e-05
5.76982e-05
5.85519e-05
5.69329e-05
5.75788e-05
5.72478e-05
5.61021e-05
5.65036e-05
5.81521e-05
5.76103e-05
5.73424e-05
5.64332e-05
5.63172e-05
5.71116e-05
5.68197e-05
5.6798e-05
5.72336e-05
5.73834e-05
5.84794e-05
5.65965e-05
5.74242e-05
5.74305e-05
5.84468e-05
5.68503e-05
5.70208e-05
5.58699e-05
5.64043e-05
5.57847e-05
5.63971e-05
5.7609e-05
5.78226e-05
5.6163e-05
5.73354e-05
5.61423e-05
5.76325e-05
5.735e-05
5.68331e-05
5.74317e-05
5.86787e-05
5.91399e-05
5.76329e-05
5.8057e-05
5.7784e-05
5.87874e-05
5.7276e-05
5.81267e-05
5.59616e-05
5.65492e-05
5.69058e-05
5.68468e-05
5.79305e-05
5.80512e-05
5.635e-05
5.7643e-05
5.68523e-05
5.72978e-05
5.74283e-05
5.68955e-05
5.69536e-05
5.91611e-05
5.80817e-05
5.7778e-05
5.72993e-05
5.69888e-05
5.77832e-05
5.81537e-05
5.77165e-05
5.69809e-05
5.68474e-05
5.68004e-05
5.63492e-05
5.80054e-05
5.70972e-05
5.68635e-05
5.67365e-05
5.64701e-05
5.54954e-05
5.64846e-05
5.59351e-05
5.54937e-05
5.77506e-05
5.62417e-05
5.64205e-05
5.52312e-05
5.53194e-05
5.63832e-05
5.75999e-05
5.56876e-05
5.51872e-05
5.6966e-05
5.5428e-05
5.44204e-05
4.61818e-05
4.54336e-05
4.54556e-05
5.44416e-05
5.61741e-05
5.42972e-05
8.26535e-08
2.42105e-07
5.86848e-08
7.47463e-08
2.89938e-07
2.84829e-07
1.35301e-07
1.3729e-07
2.699e-07
3.85711e-07
1.66073e-07
4.92062e-07
3.61144e-07
2.28422e-07
4.44982e-07
2.84424e-07
4.82181e-06
2.41646e-07
6.43632e-06
1.32633e-05
2.07538e-05
3.59671e-07
5.20615e-06
3.20602e-07
6.93807e-06
1.63498e-07
1.9554e-07
1.85161e-07
1.66718e-07
1.63335e-07
1.95664e-07
1.85447e-07
2.67943e-07
5.0706e-07
2.28912e-07
2.59624e-07
2.75943e-07
4.97205e-07
2.28492e-07
1.37054e-05
2.12701e-05
2.4948e-07
3.8652e-07
7.81139e-07
4.46101e-07
2.54709e-07
3.8499e-07
7.60764e-07
1.84485e-06
1.86679e-06
3.4287e-07
1.81404e-06
1.83784e-06
4.7921e-07
9.43808e-06
3.9412e-07
1.21398e-05
3.58051e-05
4.57597e-05
5.49062e-07
1.01974e-05
4.64852e-07
1.28643e-05
1.62303e-07
1.94472e-07
1.84469e-07
1.63016e-07