/*--------------------------------*- C++ -*----------------------------------*\
| =========                 |                                                 |
| \\      /  F ield         | OpenFOAM: The Open Source CFD Toolbox           |
|  \\    /   O peration     | Version:  v2012                                 |
|   \\  /    A nd           | Website:  www.openfoam.com                      |
|    \\/     M anipulation  |                                                 |
\*---------------------------------------------------------------------------*/
FoamFile
{
    version     2.0;
    format      ascii;
    class       volScalarField;
    location    "1112.5";
    object      nut;
}
// * * * * * * * * * * * * * * * * * * * * * * * * * * * * * * * * * * * * * //

dimensions      [0 2 -1 0 0 0 0];


internalField   nonuniform List<scalar> 
171728
(
1.71482e-06
1.64312e-06
1.90648e-06
2.29403e-06
1.71757e-06
1.63652e-06
1.97516e-06
2.23694e-06
1.71265e-06
1.64335e-06
2.25793e-06
2.26289e-06
1.70794e-06
1.64662e-06
2.82476e-06
2.19285e-06
1.70061e-06
1.63776e-06
4.01443e-06
2.00851e-06
1.69833e-06
1.6243e-06
7.61273e-06
1.91587e-06
1.70192e-06
1.61561e-06
1.18008e-05
1.86454e-06
1.70776e-06
1.59812e-06
8.85742e-06
1.90001e-06
1.72898e-06
1.57782e-06
4.16606e-06
2.12322e-06
1.73087e-06
1.55868e-06
2.47513e-06
2.55704e-06
1.74869e-06
1.53837e-06
1.89093e-06
2.78612e-06
1.80575e-06
1.50615e-06
1.5459e-06
2.56926e-06
1.85248e-06
1.44356e-06
1.35032e-06
1.99632e-06
1.87432e-06
1.36326e-06
1.23049e-06
1.90882e-06
1.86779e-06
1.27152e-06
1.1262e-06
2.11314e-06
1.88432e-06
1.1754e-06
1.03701e-06
2.26063e-06
1.87506e-06
1.08744e-06
9.76273e-07
2.02873e-06
1.77495e-06
1.03117e-06
9.37943e-07
1.3955e-06
1.69884e-06
1.02887e-06
9.50406e-07
1.17259e-06
1.67808e-06
1.12355e-06
1.06409e-06
1.27021e-06
1.69294e-06
1.29372e-06
1.16158e-06
1.55433e-06
1.62355e-06
1.63426e-06
1.59366e-06
2.17935e-06
1.47007e-06
2.04698e-06
1.98393e-06
3.54303e-06
1.29675e-06
3.01663e-06
2.74555e-06
5.65255e-06
1.19654e-06
3.84262e-06
3.83721e-06
7.85643e-06
1.10165e-06
5.16953e-06
5.14622e-06
1.18499e-05
1.01714e-06
7.53353e-06
6.81371e-06
1.93631e-05
9.83666e-07
9.10584e-06
8.93083e-06
1.91018e-05
9.84798e-07
1.13156e-05
1.23321e-05
3.65521e-05
1.03686e-06
1.55961e-05
1.35017e-05
3.77451e-05
1.12731e-06
1.8211e-05
1.84824e-05
4.34509e-05
1.40652e-06
2.16625e-05
2.2172e-05
5.31054e-05
1.64769e-06
2.65794e-05
2.55063e-05
5.75039e-05
2.01448e-06
3.1218e-05
3.10433e-05
6.42222e-05
2.67909e-06
3.54432e-05
3.59372e-05
6.96659e-05
3.32616e-06
4.20725e-05
4.10393e-05
7.51346e-05
4.3453e-06
4.59987e-05
4.66703e-05
7.84964e-05
5.74611e-06
5.24514e-05
5.34698e-05
8.37815e-05
6.97235e-06
6.12998e-05
5.78233e-05
8.78861e-05
9.00857e-06
6.20678e-05
6.46048e-05
9.14287e-05
1.19024e-05
7.0422e-05
7.17433e-05
9.46736e-05
1.38083e-05
7.71841e-05
7.52311e-05
0.000100459
1.76452e-05
8.55506e-05
8.44094e-05
0.000105187
2.147e-05
8.65848e-05
9.09803e-05
0.000104474
2.11508e-05
9.50523e-05
8.97828e-05
0.000108608
3.16078e-05
0.000105412
0.000103689
0.000119633
3.73218e-05
0.00010567
0.000109165
0.000118153
3.66503e-05
0.000106606
0.000107874
0.000118622
4.25651e-05
0.00012099
0.000117187
0.000127655
6.03046e-05
0.000121822
0.00012469
0.00012819
6.0765e-05
0.000120526
0.000123499
0.000128816
5.69511e-05
0.000134504
0.000130698
0.00013856
7.16656e-05
0.000138172
0.000136179
0.000141641
8.19678e-05
0.000137164
0.000140103
0.000140413
8.4579e-05
0.000141434
0.000141528
0.000141849
8.83198e-05
0.000145965
0.000147157
0.000147974
0.000103418
0.000154175
0.000153738
0.000150131
0.000111617
0.000157008
0.000157188
0.00015539
0.000111167
0.00016056
0.000156732
0.000155198
0.000116957
0.000160313
0.000164807
0.000153777
0.000125575
0.000165469
0.000171814
0.000162359
0.000139283
0.000174684
0.000169018
0.000167725
0.000140652
0.000175151
0.000166455
0.000163699
0.000137465
0.00017411
0.000178176
0.000162665
0.000150897
0.000180921
0.000188959
0.000176502
0.000165682
0.000187613
0.000187804
0.000178582
0.000165451
0.000184881
0.000178868
0.000166391
0.000159622
0.000181217
0.000181754
0.000170588
0.000164717
0.00019619
0.000202085
0.000188689
0.000189852
0.0002012
0.000205252
0.000184712
0.000194383
0.000197811
0.000193565
0.000177188
0.000189502
0.000198561
0.00019206
0.000181427
0.000188962
0.000202185
0.000203493
0.000184335
0.000193379
0.000201998
0.000205134
0.000182967
0.000198287
0.000204192
0.000204151
0.000189675
0.000212465
0.000215276
0.000214339
0.000198049
0.000220071
0.000216732
0.000218445
0.000195111
0.000216731
0.000207533
0.000209422
0.000185106
0.000213044
0.000207666
0.000206288
0.000187042
0.000217062
0.000220241
0.000216497
0.000197617
0.000228372
0.00022152
0.000220867
0.000197062
0.00023301
0.00021762
0.00022116
0.00019501
0.000234189
0.00022044
0.00022276
0.000200125
0.000232891
0.000223142
0.000223713
0.000199959
0.000231479
0.000221266
0.000218077
0.00019351
0.000236626
0.000222403
0.000216955
0.000195429
0.000245329
0.000227092
0.000230257
0.000205205
0.000245674
0.000226334
0.000234268
0.0002045
0.000242337
0.000224076
0.000225187
0.000197331
0.000246685
0.000225961
0.00021869
0.000196277
0.000250873
0.000227593
0.000220872
0.000199389
0.000245294
0.000226654
0.000231033
0.000203052
0.000243183
0.000227593
0.000234032
0.000204817
0.000251435
0.00022908
0.000229286
0.000200899
0.00025677
0.000226949
0.00022262
0.000199857
2.24895e-06
2.17155e-06
2.25936e-06
2.20896e-06
2.23471e-06
2.21003e-06
1.7112e-06
1.70465e-06
1.91708e-06
1.64884e-06
2.01475e-06
2.06979e-06
2.21335e-06
1.97653e-06
1.85356e-06
2.30761e-06
2.24475e-06
2.20667e-06
1.71311e-06
1.79871e-06
1.69092e-06
1.79507e-06
2.20553e-06
2.16783e-06
1.95824e-06
1.86072e-06
1.93352e-06
1.84694e-06
2.35782e-06
1.63526e-06
2.3138e-06
2.21218e-06
2.15943e-06
2.32952e-06
1.95063e-06
2.4561e-06
2.24454e-06
2.20516e-06
2.18279e-06
1.68197e-06
1.79769e-06
1.65432e-06
1.80854e-06
2.16682e-06
2.14258e-06
1.92804e-06
1.84369e-06
1.92428e-06
1.83408e-06
2.31321e-06
1.64247e-06
2.22831e-06
2.14876e-06
2.10069e-06
2.52115e-06
2.14358e-06
2.56174e-06
2.25151e-06
2.18168e-06
2.16634e-06
1.64361e-06
1.81248e-06
1.6097e-06
1.8243e-06
2.14238e-06
2.12425e-06
1.92753e-06
1.82893e-06
1.95625e-06
1.81721e-06
2.15516e-06
1.64676e-06
1.9061e-06
2.09864e-06
2.12775e-06
2.52355e-06
2.6778e-06
2.59336e-06
2.23275e-06
2.16442e-06
2.14908e-06
1.5973e-06
1.82696e-06
1.56393e-06
1.829e-06
2.12362e-06
2.10157e-06
1.96821e-06
1.81441e-06
1.98208e-06
1.80652e-06
1.83986e-06
1.64108e-06
1.70578e-06
2.13545e-06
2.29181e-06
2.52958e-06
3.51458e-06
2.09709e-06
2.02666e-06
2.14747e-06
2.12407e-06
1.5556e-06
1.82539e-06
1.52591e-06
1.81095e-06
2.10017e-06
2.06595e-06
1.97839e-06
1.80399e-06
1.9506e-06
1.80561e-06
1.67794e-06
1.62647e-06
1.60634e-06
2.33127e-06
2.93519e-06
1.96878e-06
6.50208e-06
1.80519e-06
1.92805e-06
2.12078e-06
2.09243e-06
1.51483e-06
1.80529e-06
1.47601e-06
1.77544e-06
2.06345e-06
2.01891e-06
1.94027e-06
1.80795e-06
1.92848e-06
1.80523e-06
1.5791e-06
1.61768e-06
1.49952e-06
2.97002e-06
3.3698e-06
1.79993e-06
1.08773e-05
1.82379e-06
1.86641e-06
2.08894e-06
2.06505e-06
1.46143e-06
1.76114e-06
1.41742e-06
1.71127e-06
2.01539e-06
1.96642e-06
1.93296e-06
1.79914e-06
1.94574e-06
1.75732e-06
1.47598e-06
1.60246e-06
1.41539e-06
3.34592e-06
2.95952e-06
1.85723e-06
1.04561e-05
2.08735e-06
1.89129e-06
2.06122e-06
2.03235e-06
1.40063e-06
1.69267e-06
1.3443e-06
1.64365e-06
1.963e-06
1.91754e-06
1.94467e-06
1.73754e-06
1.93067e-06
1.68814e-06
1.39548e-06
1.58237e-06
1.35312e-06
2.71382e-06
2.25266e-06
2.1887e-06
4.99407e-06
2.72504e-06
2.08945e-06
2.02727e-06
1.94821e-06
1.32552e-06
1.63243e-06
1.27011e-06
1.60304e-06
1.91327e-06
1.86739e-06
1.92023e-06
1.67532e-06
1.85106e-06
1.63319e-06
1.34658e-06
1.56407e-06
1.32994e-06
2.21816e-06
2.07996e-06
3.04514e-06
2.73039e-06
4.66454e-06
2.54494e-06
1.93833e-06
1.82564e-06
1.25307e-06
1.59515e-06
1.20311e-06
1.57245e-06
1.86178e-06
1.81064e-06
1.81774e-06
1.62024e-06
1.71622e-06
1.58941e-06
1.32412e-06
1.5445e-06
1.29901e-06
2.06306e-06
1.9455e-06
5.37634e-06
2.00704e-06
7.24266e-06
2.79491e-06
1.81585e-06
1.73955e-06
1.1909e-06
1.56447e-06
1.15697e-06
1.53898e-06
1.80394e-06
1.74823e-06
1.6948e-06
1.58208e-06
1.66439e-06
1.53127e-06
1.29432e-06
1.51387e-06
1.36662e-06
1.93071e-06
1.80173e-06
7.64915e-06
1.61835e-06
7.95829e-06
2.75377e-06
1.73264e-06
1.71753e-06
1.14865e-06
1.52691e-06
1.12367e-06
1.47281e-06
1.7387e-06
1.66872e-06
1.65673e-06
1.50357e-06
1.68429e-06
1.4213e-06
1.4106e-06
1.45825e-06
1.61873e-06
1.78588e-06
1.65879e-06
6.81431e-06
1.39224e-06
3.70266e-06
2.02455e-06
1.71369e-06
1.7218e-06
1.11586e-06
1.45075e-06
1.09147e-06
1.38175e-06
1.65457e-06
1.57092e-06
1.72726e-06
1.40394e-06
1.89204e-06
1.36181e-06
1.72847e-06
1.3804e-06
2.29821e-06
1.64204e-06
1.53931e-06
2.98459e-06
1.25556e-06
1.63836e-06
1.91925e-06
1.71963e-06
1.73187e-06
1.08234e-06
1.35285e-06
1.05787e-06
1.28538e-06
1.5522e-06
1.46677e-06
1.96348e-06
1.35245e-06
2.21865e-06
1.32298e-06
2.58924e-06
1.29308e-06
3.73691e-06
1.52151e-06
1.46042e-06
1.40657e-06
1.15193e-06
1.06597e-06
2.07033e-06
1.72514e-06
1.7169e-06
1.04858e-06
1.26506e-06
1.02878e-06
1.20463e-06
1.44334e-06
1.35811e-06
2.30193e-06
1.335e-06
2.54094e-06
1.49969e-06
4.14602e-06
1.19843e-06
5.12289e-06
1.44531e-06
1.42387e-06
1.02181e-06
1.05545e-06
9.36267e-07
2.28653e-06
1.70077e-06
1.64819e-06
1.01826e-06
1.18411e-06
9.96862e-07
1.1324e-06
1.33169e-06
1.25625e-06
2.59285e-06
1.58173e-06
2.66404e-06
1.91278e-06
5.26339e-06
1.10673e-06
5.1531e-06
1.41665e-06
1.43928e-06
9.10723e-07
9.8419e-07
8.42168e-07
2.10476e-06
1.61257e-06
1.4668e-06
9.83984e-07
1.11983e-06
9.68879e-07
1.09494e-06
1.23175e-06
1.17405e-06
2.66437e-06
2.02132e-06
2.42143e-06
2.30617e-06
5.01603e-06
1.03614e-06
3.29794e-06
1.43652e-06
1.43081e-06
8.2673e-07
9.41395e-07
8.13307e-07
1.45286e-06
1.42581e-06
1.33178e-06
9.6496e-07
1.09855e-06
9.72925e-07
1.12891e-06
1.1649e-06
1.1755e-06
2.27443e-06
2.39681e-06
2.02215e-06
2.34675e-06
2.75075e-06
1.02856e-06
1.71781e-06
1.42203e-06
1.38072e-06
8.16563e-07
9.41459e-07
8.31475e-07
1.17974e-06
1.31998e-06
1.40777e-06
9.85489e-07
1.14421e-06
1.07217e-06
1.24974e-06
1.18447e-06
1.28255e-06
1.93576e-06
2.32721e-06
1.8344e-06
2.13179e-06
1.52203e-06
1.09467e-06
1.28132e-06
1.38053e-06
1.39246e-06
8.62091e-07
1.00646e-06
9.44084e-07
1.23894e-06
1.45851e-06
1.66246e-06
1.0908e-06
1.29641e-06
1.23368e-06
1.48049e-06
1.33533e-06
1.58952e-06
1.8533e-06
1.97143e-06
2.12279e-06
1.72983e-06
1.23998e-06
1.24535e-06
1.25403e-06
1.41967e-06
1.54492e-06
9.74375e-07
1.10135e-06
1.14777e-06
1.4572e-06
1.7976e-06
2.2109e-06
1.3096e-06
1.55456e-06
1.49157e-06
1.82797e-06
1.66766e-06
2.21639e-06
2.26051e-06
1.67871e-06
2.45079e-06
1.87761e-06
1.28766e-06
1.50359e-06
1.45919e-06
1.54518e-06
2.48893e-06
1.21451e-06
1.53782e-06
1.44224e-06
2.06378e-06
2.31838e-06
3.60829e-06
1.60459e-06
1.97843e-06
2.02932e-06
2.40594e-06
2.41943e-06
3.37858e-06
2.49946e-06
1.90298e-06
2.77039e-06
1.77861e-06
1.56867e-06
1.96697e-06
1.87619e-06
2.63295e-06
2.66528e-06
1.5608e-06
1.79456e-06
1.88841e-06
3.28182e-06
3.8788e-06
4.72222e-06
2.15956e-06
2.50723e-06
2.58128e-06
3.20962e-06
3.59436e-06
5.07983e-06
2.84008e-06
2.08397e-06
2.91857e-06
3.04413e-06
2.01548e-06
2.72131e-06
2.72613e-06
2.88569e-06
5.41026e-06
2.02026e-06
2.53091e-06
2.73211e-06
5.05376e-06
5.1288e-06
7.87084e-06
2.79352e-06
3.55102e-06
3.66888e-06
4.08016e-06
5.66824e-06
8.00725e-06
3.07898e-06
3.33091e-06
4.05549e-06
4.16412e-06
2.84822e-06
3.48276e-06
3.62596e-06
5.72657e-06
7.72335e-06
2.85365e-06
3.62384e-06
3.63522e-06
7.23825e-06
8.58571e-06
1.17289e-05
3.97496e-06
4.4291e-06
4.90795e-06
5.59178e-06
8.32527e-06
1.19662e-05
4.34291e-06
4.28777e-06
5.11269e-06
4.98514e-06
4.08162e-06
5.00676e-06
4.58735e-06
8.42774e-06
1.07484e-05
4.07673e-06
4.62146e-06
4.54477e-06
1.14236e-05
1.23952e-05
1.63018e-05
5.33171e-06
5.76544e-06
6.4136e-06
7.20749e-06
1.30791e-05
1.6378e-05
5.47037e-06
5.6438e-06
6.32897e-06
7.15777e-06
5.06836e-06
6.84562e-06
7.08495e-06
1.16359e-05
1.70888e-05
5.06638e-06
6.54846e-06
7.12186e-06
1.83283e-05
1.74426e-05
2.2483e-05
6.88103e-06
7.93387e-06
8.76352e-06
8.55503e-06
1.76428e-05
2.33004e-05
6.83581e-06
7.35078e-06
8.69248e-06
8.94353e-06
7.45598e-06
8.31859e-06
7.49841e-06
1.80281e-05
2.16206e-05
7.4905e-06
8.24017e-06
7.51772e-06
1.89599e-05
2.37806e-05
2.9239e-05
9.15209e-06
9.09775e-06
1.07302e-05
1.14068e-05
2.381e-05
2.91427e-05
9.02522e-06
9.72512e-06
1.06909e-05
1.22505e-05
8.02203e-06
1.10144e-05
1.22016e-05
2.29759e-05
3.17873e-05
7.88092e-06
1.15184e-05
1.21297e-05
3.42974e-05
3.04938e-05
3.78927e-05
1.18444e-05
1.18363e-05
1.43228e-05
1.40105e-05
3.10111e-05
3.66495e-05
1.18236e-05
1.31294e-05
1.42737e-05
1.40507e-05
1.29425e-05
1.41673e-05
1.3835e-05
3.33848e-05
3.58163e-05
1.28967e-05
1.31995e-05
1.39006e-05
3.76587e-05
3.92251e-05
4.18208e-05
1.45135e-05
1.52283e-05
1.65768e-05
1.73953e-05
3.82912e-05
4.54763e-05
1.44423e-05
1.41867e-05
1.6361e-05
1.74489e-05
1.41111e-05
1.81951e-05
1.63924e-05
3.63481e-05
4.24932e-05
1.40774e-05
1.70034e-05
1.63359e-05
4.12096e-05
4.33219e-05
5.22674e-05
1.78865e-05
1.75999e-05
2.17299e-05
2.01045e-05
4.62628e-05
4.8293e-05
1.78125e-05
1.88343e-05
2.17117e-05
2.19917e-05
1.7734e-05
1.99639e-05
2.15961e-05
4.47816e-05
5.26361e-05
1.7716e-05
2.14336e-05
2.16193e-05
5.17169e-05
5.38005e-05
5.66398e-05
2.25653e-05
2.17618e-05
2.49071e-05
2.58347e-05
4.98961e-05
5.82331e-05
2.24464e-05
2.28456e-05
2.4853e-05
2.4981e-05
2.22319e-05
2.55481e-05
2.47933e-05
5.3624e-05
5.57086e-05
2.23693e-05
2.44778e-05
2.47107e-05
5.63723e-05
5.76329e-05
6.27411e-05
2.60871e-05
2.66104e-05
2.98221e-05
3.02026e-05
5.9655e-05
6.30028e-05
2.60633e-05
2.58357e-05
2.92853e-05
2.97648e-05
2.60912e-05
3.01807e-05
2.97078e-05
5.68053e-05
6.29132e-05
2.58371e-05
2.96293e-05
2.97099e-05
6.28464e-05
6.41198e-05
6.8534e-05
3.09106e-05
3.12969e-05
3.47827e-05
3.38747e-05
6.40487e-05
6.7679e-05
3.06042e-05
3.12463e-05
3.48417e-05
3.52523e-05
3.10114e-05
3.40978e-05
3.45934e-05
6.44436e-05
6.87166e-05
3.11114e-05
3.47625e-05
3.44298e-05
6.85535e-05
6.96883e-05
7.34472e-05
3.63678e-05
3.51792e-05
3.97452e-05
4.01993e-05
6.88439e-05
7.41062e-05
3.59212e-05
3.64152e-05
4.01534e-05
3.99584e-05
3.57774e-05
4.04164e-05
4.08985e-05
6.97227e-05
7.31436e-05
3.56182e-05
3.98267e-05
4.09975e-05
7.40215e-05
7.44467e-05
7.80115e-05
4.09921e-05
4.21025e-05
4.58328e-05
4.59063e-05
7.53556e-05
7.77424e-05
4.15004e-05
4.11712e-05
4.5103e-05
4.52428e-05
4.21602e-05
4.55398e-05
4.50604e-05
7.4166e-05
7.77852e-05
4.22228e-05
4.51056e-05
4.45995e-05
7.76689e-05
7.91039e-05
8.28913e-05
4.69459e-05
4.61387e-05
5.17073e-05
4.95644e-05
7.8362e-05
8.18037e-05
4.66781e-05
4.67484e-05
5.18866e-05
5.18086e-05
4.63627e-05
4.98578e-05
5.10879e-05
7.89158e-05
8.29367e-05
4.59284e-05
5.16045e-05
5.19118e-05
8.25516e-05
8.38544e-05
8.6206e-05
5.3954e-05
5.22845e-05
5.69564e-05
5.99215e-05
8.33912e-05
8.8082e-05
5.36179e-05
5.36226e-05
5.66072e-05
5.70043e-05
5.30219e-05
5.9907e-05
5.77445e-05
8.38992e-05
8.6366e-05
5.41458e-05
5.73249e-05
5.83129e-05
8.71335e-05
8.69126e-05
9.10287e-05
5.74261e-05
6.15723e-05
6.31048e-05
6.17165e-05
8.87189e-05
8.95174e-05
5.6946e-05
5.75426e-05
6.30287e-05
6.27459e-05
5.90328e-05
6.12005e-05
6.30762e-05
8.7032e-05
9.0257e-05
5.92136e-05
6.24765e-05
6.25861e-05
9.05036e-05
9.23872e-05
9.52544e-05
6.61719e-05
6.18665e-05
7.07096e-05
6.87154e-05
9.00387e-05
9.45416e-05
6.6e-05
6.48998e-05
7.09237e-05
6.98688e-05
6.47077e-05
6.88938e-05
6.9215e-05
9.15183e-05
9.51213e-05
6.43466e-05
6.98376e-05
6.96782e-05
9.41192e-05
9.57553e-05
9.81909e-05
7.09395e-05
7.0533e-05
7.36837e-05
7.49403e-05
9.56192e-05
9.84969e-05
7.205e-05
7.17814e-05
7.64075e-05
7.49859e-05
6.99294e-05
7.49574e-05
7.39809e-05
9.58666e-05
9.78748e-05
7.04903e-05
7.48351e-05
7.43223e-05
9.87526e-05
9.92715e-05
0.000103506
7.57918e-05
7.70143e-05
8.41248e-05
8.38197e-05
9.95309e-05
0.000103987
7.79207e-05
7.5311e-05
8.13415e-05
8.10757e-05
7.68651e-05
8.405e-05
8.55815e-05
9.84052e-05
0.000102963
7.7121e-05
8.12793e-05
8.55352e-05
0.000104865
0.000104274
0.00010615
8.63269e-05
8.55915e-05
8.91769e-05
8.7685e-05
0.00010462
0.000105277
8.26794e-05
8.41669e-05
8.84e-05
9.01694e-05
8.69441e-05
8.70138e-05
8.78022e-05
0.000104454
0.000107306
8.6856e-05
9.02619e-05
8.77884e-05
0.000104381
0.000106472
0.000108034
8.93448e-05
8.73593e-05
8.76862e-05
9.02429e-05
0.000105328
0.000109333
8.96115e-05
9.09776e-05
9.11096e-05
9.06313e-05
8.78456e-05
9.08051e-05
8.59038e-05
0.00010751
0.000107431
8.78535e-05
9.0584e-05
8.59736e-05
0.000106896
0.000109228
0.000116707
8.90699e-05
9.38782e-05
0.000102748
0.000103226
0.000111403
0.000116878
9.29037e-05
8.98644e-05
0.000101936
9.97895e-05
8.85199e-05
0.000104382
0.000105249
0.000107826
0.00011565
8.84637e-05
9.95608e-05
0.000104612
0.000118983
0.000117518
0.000117921
0.000105604
0.00010453
0.000107673
0.000105294
0.000117109
0.000116376
0.000104275
0.000103925
0.000106767
0.000109365
0.000107705
0.000105795
0.000108462
0.000117502
0.000119847
0.000107282
0.000108966
0.000108571
0.000118431
0.000117768
0.000117825
0.000107641
0.000105051
0.000106695
0.000104535
0.000116503
0.000118617
0.000106838
0.000109583
0.00010541
0.000109083
0.000108093
0.000103947
0.00010577
0.00011986
0.000118823
0.000108254
0.000108687
0.000106663
0.000117925
0.000118284
0.000126868
0.000105935
0.000107674
0.000116096
0.000117375
0.000120027
0.000127219
0.000104597
0.000108271
0.000115442
0.000111518
0.000104998
0.000119128
0.000117036
0.000118839
0.000124159
0.000105648
0.000112328
0.000114596
0.000126605
0.00012868
0.000131205
0.000119964
0.000119179
0.000124675
0.000121197
0.000127801
0.000128072
0.000119607
0.000116487
0.000125944
0.00012475
0.000119935
0.000121951
0.000121646
0.000126488
0.000131062
0.000118325
0.000124244
0.000122486
0.0001283
0.000131206
0.000130027
0.000124867
0.000121106
0.000124144
0.000120746
0.000127913
0.00012885
0.000126366
0.00012549
0.000125886
0.000125628
0.000121464
0.000120276
0.000120354
0.000131141
0.000129949
0.000122687
0.000124336
0.000121926
0.000128401
0.00012997
0.000132491
0.000123514
0.000123931
0.000126103
0.000134523
0.000130136
0.000138619
0.000125517
0.000124923
0.000124067
0.000126213
0.000120033
0.000131763
0.000130062
0.000129696
0.000133673
0.000121337
0.000126872
0.00012989
0.000136767
0.000133722
0.000139378
0.000129173
0.000136633
0.000136515
0.000138382
0.000139499
0.000139929
0.000125907
0.000129098
0.000134881
0.000134071
0.000134151
0.000137949
0.000140845
0.000135527
0.000138775
0.0001336
0.000135453
0.000138712
0.00014163
0.000140202
0.000141252
0.000137829
0.000138358
0.000138556
0.000137265
0.000139876
0.000138829
0.000137193
0.000135606
0.000140044
0.000140175
0.000141293
0.000137111
0.000140755
0.000139034
0.000141898
0.000138874
0.000139438
0.000138216
0.000140606
0.000141257
0.000142395
0.000138298
0.000136566
0.000140693
0.000140355
0.000138963
0.000143178
0.000139933
0.000140914
0.000140972
0.0001418
0.000140408
0.000141062
0.000138624
0.000142319
0.000142915
0.000137735
0.000140725
0.0001373
0.000140924
0.000142919
0.000146141
0.00014152
0.000141488
0.000144952
0.000144809
0.000143585
0.00014547
0.000141578
0.000142332
0.000145052
0.000144756
0.000138681
0.000143913
0.000145768
0.000143068
0.00014596
0.000140162
0.000145691
0.000147868
0.000147439
0.000147232
0.000152329
0.000147231
0.000146883
0.000153958
0.000153667
0.000146427
0.000151799
0.000147279
0.000146006
0.000153902
0.000151911
0.000147205
0.000153031
0.000150615
0.000146679
0.000151019
0.000149069
0.000152112
0.000150273
0.000149409
0.000152671
0.000152694
0.000155245
0.000155023
0.000156362
0.000156039
0.00015231
0.000153228
0.000155165
0.000153907
0.000156123
0.00015724
0.000152294
0.000155932
0.000157962
0.000151967
0.000153859
0.000151483
0.000156833
0.000157016
0.000154937
0.000152517
0.00015416
0.000156124
0.000156694
0.000157139
0.000159197
0.000153587
0.000155357
0.000155905
0.000157587
0.00015761
0.000157559
0.000159354
0.000160118
0.000160721
0.000153828
0.000152902
0.00015838
0.000157163
0.000159609
0.000155336
0.000154816
0.00015591
0.000158641
0.000159663
0.000160017
0.000159582
0.000155402
0.000155004
0.00015843
0.000157145
0.000159491
0.000160331
0.000160667
0.000160585
0.000159913
0.000152588
0.000158002
0.000159592
0.000161007
0.000158686
0.00015389
0.000156369
0.00016222
0.000160392
0.000159165
0.000166543
0.000164807
0.000154973
0.000159919
0.000160913
0.00016394
0.000168251
0.000170695
0.000159314
0.000162371
0.000161141
0.000160142
0.000165117
0.000157852
0.000171282
0.000165884
0.000160209
0.000163342
0.000165033
0.000169163
0.000168043
0.000173311
0.000173956
0.000161566
0.000166008
0.000170368
0.000171225
0.000172631
0.000170077
0.000165365
0.000173455
0.000174805
0.000165099
0.000160693
0.00016969
0.000170158
0.00017496
0.000167666
0.000164836
0.000163048
0.000173497
0.000174419
0.00017257
0.000174066
0.000166085
0.00016521
0.000172704
0.000169281
0.000171468
0.000167424
0.000175681
0.000175357
0.000175679
0.000160317
0.000159163
0.000175442
0.000167148
0.000173021
0.000164141
0.000162747
0.00016527
0.000172366
0.000173742
0.000171376
0.000172657
0.000165071
0.000165397
0.000171151
0.000166764
0.000171494
0.00017606
0.000174334
0.000174402
0.00017293
0.000159731
0.00016925
0.000171756
0.000173817
0.000170024
0.000162195
0.000166545
0.000172954
0.000173256
0.000173508
0.000181228
0.000178503
0.000165872
0.000169701
0.000174892
0.000180161
0.000183853
0.000188062
0.000171886
0.000178084
0.000181356
0.00017133
0.000177181
0.000169084
0.000187864
0.000184378
0.000174809
0.000173897
0.000176176
0.000183691
0.000180788
0.000187429
0.000186895
0.000170715
0.000175603
0.000185945
0.000188783
0.000188088
0.000189537
0.000185717
0.000187173
0.000190223
0.000177295
0.000174668
0.000188077
0.000190031
0.000192123
0.000179966
0.000175977
0.000170922
0.000187675
0.000187442
0.000185592
0.00018773
0.000175779
0.000173312
0.000188643
0.000186692
0.000182916
0.000178643
0.0001916
0.000187216
0.000182338
0.000173201
0.000166799
0.000193
0.000179522
0.000179948
0.000167073
0.00017041
0.000169711
0.000183963
0.000185583
0.0001824
0.000183175
0.000172333
0.000169574
0.000181402
0.000177955
0.000179767
0.000176063
0.000180433
0.000182486
0.000177052
0.00016639
0.000169328
0.000178472
0.000177001
0.000174784
0.000167534
0.000170228
0.00018093
0.000181693
0.00018224
0.000190625
0.000190874
0.00016969
0.000181247
0.000179143
0.000180014
0.000192902
0.00019833
0.000178467
0.000192167
0.000198248
0.000171968
0.00018621
0.000180563
0.000199433
0.000201567
0.000187932
0.000182662
0.000186481
0.00019517
0.000195409
0.000201247
0.000200637
0.000182893
0.000185366
0.000197021
0.000201698
0.000202247
0.000205453
0.000201
0.000200644
0.000204323
0.000187209
0.000188225
0.000203755
0.000205613
0.000207476
0.000186853
0.0001863
0.000182169
0.000202164
0.000201526
0.000199889
0.000198288
0.000184762
0.000181039
0.000203273
0.000206092
0.0001999
0.000195997
0.000201974
0.000198146
0.000195799
0.000186859
0.000177978
0.000203863
0.000194899
0.000193874
0.000177689
0.000181765
0.000181302
0.000198613
0.000197768
0.000197052
0.0001966
0.000180626
0.000182424
0.000198272
0.000194466
0.000196374
0.000191776
0.000195286
0.000196933
0.000194985
0.000177429
0.000177813
0.000193037
0.000191181
0.000191343
0.00018021
0.000181585
0.00018479
0.000196811
0.00019823
0.000200515
0.000201659
0.000183336
0.000185757
0.000196016
0.000193102
0.000200667
0.000202805
0.000197336
0.00020165
0.000200449
0.000179171
0.000187236
0.000193407
0.000202211
0.000199727
0.000184522
0.000184767
0.000184176
0.00020103
0.000202293
0.000201635
0.000201892
0.000185553
0.000184242
0.000201294
0.000203748
0.00020203
0.000204944
0.000200979
0.000202057
0.000200805
0.0001875
0.000186654
0.00020039
0.000205232
0.000201135
0.000183329
0.000183907
0.000184922
0.000201611
0.000201807
0.000201162
0.00020115
0.000183917
0.000185402
0.00020199
0.000204198
0.000201387
0.000203298
0.000200785
0.000201544
0.000203009
0.00018629
0.000184981
0.000201446
0.000204775
0.000205957
0.000188095
0.000186117
0.000194887
0.000203578
0.000204029
0.000213691
0.000213902
0.000186858
0.000195013
0.000202858
0.000202403
0.000213052
0.000210912
0.000207054
0.000213941
0.000217089
0.000184875
0.000193321
0.000209014
0.000211657
0.000217098
0.00019782
0.000195392
0.00019633
0.00021527
0.000215116
0.000217738
0.000217554
0.000195332
0.000195394
0.000215041
0.00021405
0.000217487
0.000217348
0.000218177
0.000217621
0.000220551
0.000194422
0.000197503
0.000217981
0.000217157
0.000220054
0.000197259
0.000195294
0.000189071
0.000217632
0.000216188
0.0002103
0.000208596
0.000193899
0.000187399
0.000218076
0.000218718
0.000211351
0.000212549
0.000218298
0.000208544
0.000207198
0.000196835
0.000189888
0.000217853
0.000211731
0.00020734
0.000185705
0.000188538
0.000188393
0.000209075
0.000207764
0.000207738
0.00020626
0.000186959
0.000188165
0.000209789
0.000210168
0.000208384
0.000207862
0.00020572
0.00020587
0.000203684
0.000188842
0.000187058
0.000205807
0.000207211
0.000203876
0.00018564
0.000188778
0.000194745
0.00020782
0.000208425
0.000215322
0.000218541
0.000189535
0.000198098
0.000207821
0.000206992
0.000213971
0.000213187
0.000205146
0.000218782
0.000217524
0.000187168
0.000194325
0.00020462
0.000213796
0.00021672
0.000197115
0.000195401
0.000197335
0.000217143
0.000219903
0.000219976
0.00022224
0.000198453
0.000198592
0.000216153
0.000215885
0.000219846
0.00022004
0.000219281
0.000222773
0.00022185
0.000195253
0.000197717
0.000218779
0.00022026
0.000221387
0.000197829
0.000197341
0.000198055
0.000220441
0.000221279
0.000220893
0.000218212
0.000197577
0.000194654
0.000220532
0.000220757
0.000221514
0.000221391
0.000220859
0.000217848
0.000218738
0.000197629
0.000197823
0.00022094
0.000221167
0.000219501
0.000195189
0.000198006
0.000198603
0.00022098
0.000218021
0.000221362
0.00021887
0.000194221
0.000196848
0.000221655
0.000221407
0.00022183
0.000222105
0.000218341
0.00021869
0.000221938
0.000197705
0.000198872
0.000219178
0.00022233
0.000222617
0.000199792
0.000198413
0.000196653
0.000221438
0.00022019
0.000220733
0.000221788
0.000197336
0.000198926
0.000221881
0.000222245
0.000220643
0.000222757
0.000223205
0.000222457
0.000225028
0.000198863
0.000199153
0.000223589
0.000223501
0.000225244
0.00020109
0.000196074
0.000194864
0.000220001
0.000222297
0.000218864
0.00022134
0.000198657
0.000197289
0.000219864
0.000222369
0.000218573
0.000219012
0.000225138
0.000221651
0.000218989
0.00019853
0.000194987
0.000225109
0.000219075
0.000218363
0.000194006
0.000194519
0.000199704
0.000218821
0.000221229
0.000222696
0.000222223
0.000196975
0.000198886
0.000218529
0.000218421
0.000221755
0.000217929
0.000218041
0.000220957
0.000216797
0.000194584
0.000194542
0.000217323
0.000217175
0.000216
0.000194213
0.000200716
0.00020422
0.000225228
0.000224131
0.000228246
0.000226725
0.000199602
0.000202527
0.000224488
0.000218535
0.00022845
0.000227747
0.000218315
0.000226705
0.000228649
0.000195059
0.000203464
0.000217283
0.000227621
0.000229114
0.0002048
0.00020409
0.00019993
0.000228975
0.000227321
0.000226156
0.0002258
0.000202346
0.000199899
0.000228949
0.000229645
0.000227783
0.000231894
0.000229951
0.000227548
0.000232494
0.000204207
0.000206858
0.000230859
0.000233031
0.000233672
0.000205777
0.000198924
0.000197079
0.000224478
0.000224727
0.000222757
0.000223601
0.000199292
0.000198475
0.000226028
0.000232837
0.000223442
0.000227549
0.00023147
0.000224174
0.000224473
0.000206538
0.000200979
0.00023351
0.000228507
0.000225193
0.000198051
0.000197104
0.00020261
0.000222519
0.000223583
0.000228036
0.000226881
0.00019854
0.00020115
0.000223312
0.000225028
0.000226343
0.00022072
0.000223081
0.000225211
0.000221735
0.000199446
0.000194888
0.000223097
0.000219173
0.000220362
0.000196292
0.000203096
0.000205112
0.00022937
0.000227608
0.000231537
0.0002292
0.000201309
0.000202183
0.000227647
0.000220447
0.000229479
0.000221128
0.000221702
0.000227306
0.000224168
0.000194563
0.000196245
0.00022028
0.000218536
0.000221789
0.000198916
0.000204164
0.000197564
0.000232058
0.000229376
0.00022415
0.00022553
0.000201796
0.000199671
0.000230156
0.000222984
0.000225031
0.000227637
0.000225374
0.000226792
0.000228528
0.000197127
0.000202475
0.000223692
0.000228867
0.000229285
0.000202614
0.000196847
0.000196335
0.000222518
0.000224838
0.000220988
0.000224369
0.000199442
0.000200176
0.000223938
0.000229102
0.000222941
0.000231371
0.000229452
0.000227071
0.000230626
0.000203165
0.000205876
0.00023079
0.000233617
0.000232445
0.000204831
0.000197119
0.000202257
0.000221301
0.000225258
0.000228157
0.000228133
0.000200535
0.000202592
0.000223954
0.000231627
0.000228142
0.000233002
0.000230936
0.000229045
0.000230889
0.000205907
0.000204213
0.000232952
0.000233512
0.000231485
0.000202544
0.000202324
0.000203588
0.000228954
0.000228608
0.000233281
0.000231162
0.000202267
0.0002013
0.000228651
0.000229747
0.000231439
0.000226059
0.000227906
0.000228826
0.000225781
0.000202241
0.000197413
0.000227874
0.000224504
0.000224728
0.000197729
0.000205748
0.000231421
0.000228902
0.000203302
0.000229828
0.000223986
0.000253895
0.000247533
0.000247428
0.000223933
0.000199429
0.000222995
3.8886e-06
2.07272e-06
1.63491e-06
1.73715e-06
1.35273e-06
1.89747e-06
4.92433e-07
1.47233e-06
1.22415e-06
1.92178e-06
1.86283e-06
1.20633e-06
2.33306e-06
1.71569e-06
1.94394e-06
1.01055e-06
1.33078e-05
9.26113e-07
1.50381e-05
1.06073e-05
1.29108e-05
1.33705e-06
1.38246e-05
1.28049e-06
1.56114e-05
1.70998e-06
1.93398e-06
1.65121e-06
1.71954e-06
1.73209e-06
1.95128e-06
1.65887e-06
1.30282e-06
3.16489e-07
1.59577e-06
1.63593e-06
1.3225e-06
4.23885e-07
1.60456e-06
1.08259e-05
1.30748e-05
1.21409e-06
2.43004e-06
5.93981e-07
1.91412e-06
1.19617e-06
2.4315e-06
7.37246e-07
1.44959e-06
1.45873e-06
2.26958e-06
1.64441e-06
1.65936e-06
1.27119e-06
1.81882e-05
1.19081e-06
2.06381e-05
1.69458e-05
1.91547e-05
1.51712e-06
1.89064e-05
1.46267e-06
2.12316e-05
1.73118e-06
1.95251e-06
1.66147e-06
1.7137e-06
1.72641e-06
1.95004e-06