/*--------------------------------*- C++ -*----------------------------------*\
| =========                 |                                                 |
| \\      /  F ield         | OpenFOAM: The Open Source CFD Toolbox           |
|  \\    /   O peration     | Version:  v2006                                 |
|   \\  /    A nd           | Website:  www.openfoam.com                      |
|    \\/     M anipulation  |                                                 |
\*---------------------------------------------------------------------------*/
FoamFile
{
    version     2.0;
    format      ascii;
    class       volScalarField;
    location    "625";
    object      epsilon;
}
// * * * * * * * * * * * * * * * * * * * * * * * * * * * * * * * * * * * * * //

dimensions      [0 2 -3 0 0 0 0];


internalField   nonuniform List<scalar> 
14199
(
2.18926e-06
7.34445e-07
2.18104e-06
7.15723e-07
4.13373e-06
4.12028e-06
1.23091e-05
4.78699e-06
1.0914e-05
4.13512e-06
4.78774e-06
1.09155e-05
1.23067e-05
1.22572e-05
4.74779e-06
1.09004e-05
4.12207e-06
4.74803e-06
1.09009e-05
1.22573e-05
2.20441e-05
7.04369e-06
7.04287e-06
2.20431e-05
2.64133e-07
2.4798e-07
2.44577e-06
1.53926e-06
1.40517e-06
2.19132e-06
1.54023e-06
1.40535e-06
2.44723e-06
2.42123e-06
1.52209e-06
1.39975e-06
2.18368e-06
1.52094e-06
1.40077e-06
2.42421e-06
2.88511e-06
1.69985e-06
1.69804e-06
2.88609e-06
5.5524e-06
1.86389e-05
3.5591e-06
9.30004e-06
9.35938e-06
1.04092e-06
3.57245e-06
1.86925e-05
1.29327e-06
5.58021e-06
1.02936e-06
4.62409e-06
2.89947e-06
5.54798e-06
9.6871e-06
4.63314e-06
9.68664e-06
2.89669e-06
1.86399e-05
2.22203e-05
9.30047e-06
7.13471e-06
7.13398e-06
2.22135e-05
9.3592e-06
1.86863e-05
9.87167e-06
2.20461e-05
2.20755e-05
9.893e-06
2.20632e-05
2.20388e-05
4.63764e-06
2.91099e-06
5.56799e-06
9.74158e-06
2.90217e-06
4.64817e-06
9.73769e-06
2.93771e-06
1.7316e-06
2.13377e-06
3.55717e-06
2.13174e-06
1.7328e-06
2.9377e-06
2.1468e-06
3.56541e-06
2.13765e-06
2.753e-06
1.87702e-06
1.28749e-06
1.88222e-06
1.87501e-06
2.76061e-06
1.87209e-06
4.70657e-07
4.15299e-06
4.14792e-06
2.17627e-06
7.33404e-07
9.34397e-06
2.18228e-06
3.54924e-06
1.03379e-06
7.48614e-07
1.23583e-05
1.09576e-05
4.80792e-06
4.15909e-06
1.0963e-05
4.8146e-06
1.2353e-05
2.23531e-05
7.17956e-06
7.19867e-06
2.2336e-05
1.23708e-05
4.79975e-06
1.0961e-05
4.15555e-06
4.81012e-06
1.09668e-05
1.23654e-05
2.23622e-05
7.1399e-06
9.353e-06
7.15043e-06
2.23522e-05
1.86662e-05
4.63229e-06
5.55933e-06
2.89731e-06
9.72412e-06
9.85578e-06
2.20244e-05
2.20113e-05
4.61728e-06
9.68283e-06
1.70094e-06
2.91535e-06
2.92852e-06
1.68353e-06
1.52555e-06
2.42176e-06
1.39328e-06
2.18495e-06
2.43176e-06
1.4068e-06
1.50839e-06
1.54834e-06
2.43835e-06
1.40229e-06
2.19023e-06
1.41497e-06
2.44616e-06
1.53479e-06
1.73566e-06
2.92465e-06
2.12282e-06
3.55743e-06
2.93344e-06
2.13225e-06
1.72357e-06
2.74934e-06
1.87274e-06
1.17796e-06
8.84447e-07
1.85429e-05
5.52816e-06
9.24752e-06
7.14855e-06
1.85226e-05
5.51199e-06
2.85204e-06
2.85948e-06
9.64536e-06
4.61514e-06
1.80125e-06
1.79932e-06
2.71638e-06
1.64604e-06
3.51454e-06
2.89956e-06
2.06162e-06
1.15629e-07
1.17949e-07
1.11411e-07
1.11207e-07
8.99726e-07
8.82981e-07
8.94902e-07
1.18566e-06
4.12285e-06
9.25531e-06
4.13448e-06
1.84616e-05
2.07542e-06
2.13144e-06
2.06705e-06
5.83422e-07
1.44453e-06
4.12415e-06
9.2187e-06
4.13309e-06
2.13251e-06
5.85687e-07
1.65036e-06
1.44639e-06
5.48917e-06
5.50019e-06
1.84991e-05
9.23234e-06
1.22513e-05
4.77814e-06
1.0858e-05
4.12721e-06
4.78408e-06
1.08627e-05
1.22444e-05
2.21807e-05
9.24499e-06
7.15872e-06
7.14887e-06
2.21916e-05
1.22631e-05
4.13069e-06
4.79573e-06
1.08753e-05
4.79067e-06
1.08715e-05
1.22681e-05
1.84541e-05
1.22386e-05
1.08549e-05
4.7775e-06
4.12827e-06
1.08587e-05
4.7815e-06
1.22355e-05
2.21284e-05
9.21497e-06
7.13416e-06
7.1288e-06
2.21301e-05
1.22459e-05
4.12999e-06
1.08701e-05
4.78664e-06
1.08666e-05
4.78365e-06
1.2249e-05
4.57223e-06
2.84738e-06
5.48365e-06
9.54725e-06
9.53537e-06
2.84541e-06
4.57744e-06
4.57104e-06
2.85286e-06
5.49485e-06
9.56661e-06
2.85098e-06
9.55564e-06
4.57636e-06
9.73837e-06
2.17499e-05
2.1772e-05
2.17259e-05
2.17499e-05
9.75177e-06
1.84897e-05
2.21548e-05
9.23008e-06
7.14356e-06
7.14057e-06
2.21525e-05
1.80825e-06
1.80537e-06
2.70798e-06
2.70598e-06
1.18426e-06
1.80759e-06
1.80457e-06
1.6624e-06
3.51772e-06
2.90807e-06
1.66099e-06
3.51481e-06
2.07443e-06
2.90584e-06
1.44069e-06
2.39069e-06
1.30216e-06
2.13342e-06
2.39346e-06
1.30512e-06
1.4362e-06
1.6498e-06
3.52416e-06
2.90426e-06
1.64353e-06
3.51382e-06
2.89835e-06
2.05983e-06
2.13789e-06
2.40017e-06
1.30743e-06
1.43976e-06
2.13601e-06
2.39755e-06
1.30441e-06
1.44528e-06
1.30447e-06
2.39333e-06
2.13399e-06
1.30692e-06
2.39485e-06
1.44269e-06
2.06619e-06
3.50893e-06
2.89561e-06
1.64797e-06
3.50528e-06
2.89258e-06
2.06453e-06
2.13717e-06
1.30851e-06
2.39788e-06
1.44365e-06
2.13584e-06
1.30603e-06
2.39658e-06
9.39087e-06
3.58375e-06
7.55044e-07
9.98964e-07
1.21809e-06
1.88329e-05
5.65939e-06
1.01685e-06
1.00629e-06
1.25142e-06
9.7223e-07
9.77913e-07
4.16853e-06
7.47727e-07
1.00764e-06
2.20472e-06
4.16858e-06
2.2081e-06
5.55446e-06
1.83717e-05
1.84954e-05
2.66339e-07
2.70692e-07
4.32457e-07
4.25505e-07
2.18416e-06
3.47533e-06
7.06841e-07
1.02177e-06
3.50342e-06
7.12879e-07
2.16788e-06
3.5594e-06
2.18726e-06
2.18754e-06
5.42011e-06
5.42816e-06
1.21749e-06
5.3941e-06
5.38112e-06
1.88206e-05
1.26338e-06
5.66505e-06
9.17894e-06
9.23536e-06
3.49904e-06
1.03672e-06
3.52165e-06
4.16736e-06
9.37785e-06
4.15588e-06
2.21252e-06
3.59075e-06
7.42712e-07
2.2108e-06
7.52636e-07
5.40881e-06
5.37794e-06
1.27727e-06
5.46825e-06
5.44427e-06
1.83126e-05
1.84518e-05
4.11718e-06
9.13742e-06
9.18662e-06
4.1055e-06
2.18213e-06
7.01672e-07
3.48999e-06
9.73782e-07
7.01945e-07
3.48149e-06
2.16751e-06
4.11697e-06
9.19236e-06
9.16791e-06
4.10853e-06
2.17876e-06
7.16769e-07
3.49245e-06
9.78027e-07
7.14773e-07
3.47263e-06
2.18016e-06
1.84292e-05
1.83863e-05
1.84335e-05
1.83478e-05
2.23624e-05
9.39824e-06
7.22074e-06
2.23538e-05
7.21584e-06
1.88417e-05
4.73033e-06
2.91554e-06
5.64066e-06
9.94728e-06
2.90026e-06
4.74979e-06
9.96714e-06
1.23724e-05
4.82873e-06
4.16389e-06
1.0971e-05
1.23691e-05
4.82267e-06
1.0971e-05
1.23619e-05
4.16547e-06
1.0969e-05
4.82491e-06
1.23609e-05
1.09683e-05
4.82213e-06
2.23688e-05
7.16928e-06
2.23602e-05
7.16251e-06
4.64415e-06
5.55671e-06
2.90382e-06
9.68673e-06
4.63784e-06
2.90661e-06
9.68428e-06
9.90791e-06
2.20481e-05
2.20788e-05
2.20682e-05
9.90216e-06
2.20384e-05
1.84116e-05
1.84454e-05
9.49596e-06
2.14663e-05
2.14575e-05
2.15073e-05
2.15082e-05
9.46955e-06
4.48091e-06
2.81777e-06
5.40561e-06
9.48878e-06
2.81247e-06
9.45434e-06
4.4989e-06
4.48534e-06
2.81957e-06
5.40725e-06
9.51537e-06
2.81179e-06
9.47378e-06
4.50471e-06
4.46991e-06
9.4074e-06
5.39774e-06
2.81108e-06
2.81083e-06
9.42548e-06
4.46266e-06
4.47225e-06
9.40739e-06
5.39186e-06
2.80602e-06
2.80757e-06
9.43521e-06
4.4635e-06
9.53363e-06
2.16531e-05
2.16724e-05
2.15803e-05
2.15915e-05
9.58549e-06
1.88391e-05
1.02997e-05
2.28527e-05
2.28615e-05
1.03332e-05
2.29341e-05
2.29197e-05
4.73419e-06
2.92035e-06
9.93276e-06
5.64975e-06
4.75578e-06
9.9597e-06
2.90507e-06
2.21003e-05
9.1945e-06
7.07695e-06
7.08257e-06
2.20642e-05
2.21252e-05
7.10096e-06
9.2139e-06
7.09129e-06
2.21797e-05
1.2373e-05
1.09619e-05
4.83269e-06
4.16717e-06
1.23626e-05
1.09678e-05
4.83169e-06
2.23728e-05
7.22313e-06
9.39132e-06
2.23455e-05
7.2231e-06
1.23285e-05
1.09502e-05
4.79218e-06
4.15833e-06
1.23169e-05
1.09562e-05
4.79723e-06
2.22519e-05
7.11036e-06
2.22088e-05
7.11713e-06
9.5443e-06
2.16075e-05
2.15862e-05
2.15216e-05
2.14978e-05
9.59217e-06
4.48603e-06
2.83312e-06
5.42447e-06
9.38607e-06
9.41116e-06
2.84172e-06
4.47157e-06
4.4742e-06
2.81945e-06
5.39476e-06
9.33372e-06
2.82758e-06
9.35027e-06
4.46205e-06
4.51009e-06
9.49148e-06
5.4484e-06
2.863e-06
9.45117e-06
2.8538e-06
4.52854e-06
4.49694e-06
9.43579e-06
5.42272e-06
2.85023e-06
2.84031e-06
9.39234e-06
4.51349e-06
9.48736e-06
2.1394e-05
2.13652e-05
2.14587e-05
2.14284e-05
9.45144e-06
1.83549e-05
1.83959e-05
1.22477e-05
4.7485e-06
1.08916e-05
4.11236e-06
4.74315e-06
1.08814e-05
1.22625e-05
2.20164e-05
9.14399e-06
7.04205e-06
7.04702e-06
2.20069e-05
2.20293e-05
7.06955e-06
9.16383e-06
7.0612e-06
2.2066e-05
1.22416e-05
4.10727e-06
4.73523e-06
1.08765e-05
4.73662e-06
1.08773e-05
1.22394e-05
1.22524e-05
1.08889e-05
4.75396e-06
4.11286e-06
1.08815e-05
4.75055e-06
1.22563e-05
2.20811e-05
9.1799e-06
7.06802e-06
7.06247e-06
2.20829e-05
2.20787e-05
7.06058e-06
9.17117e-06
7.06071e-06
2.20886e-05
1.2253e-05
4.10927e-06
1.08804e-05
4.74969e-06
1.08801e-05
4.749e-06
1.22553e-05
1.84099e-05
1.83913e-05
1.84018e-05
1.83666e-05
1.86395e-05
4.13709e-06
9.30015e-06
4.13307e-06
4.12593e-06
9.21272e-06
4.11975e-06
9.16333e-06
1.86372e-05
1.23096e-05
1.09223e-05
4.78963e-06
4.1345e-06
1.23116e-05
1.09189e-05
4.78718e-06
2.22119e-05
9.3e-06
7.13408e-06
7.13453e-06
2.22144e-05
1.23066e-05
4.13343e-06
4.78611e-06
1.09144e-05
1.09152e-05
4.78659e-06
1.23067e-05
1.2276e-05
1.09152e-05
4.76314e-06
4.12239e-06
1.22851e-05
1.09097e-05
4.75671e-06
2.20988e-05
7.07709e-06
9.19306e-06
2.21171e-05
7.06411e-06
1.22659e-05
4.12036e-06
4.74888e-06
1.09018e-05
1.09041e-05
4.75171e-06
1.22611e-05
2.2067e-05
9.17527e-06
7.04681e-06
7.05418e-06
2.20571e-05
1.71016e-06
2.12349e-06
3.57268e-06
2.95287e-06
1.72887e-06
2.94306e-06
2.10728e-06
2.66301e-06
1.80088e-06
1.80224e-06
1.21324e-06
1.79919e-06
1.79975e-06
2.66885e-06
2.69348e-06
1.84488e-06
1.83773e-06
1.25622e-06
1.84449e-06
1.8519e-06
2.68568e-06
1.53269e-06
2.45432e-06
1.42732e-06
2.19616e-06
1.54996e-06
2.44499e-06
1.41352e-06
1.55218e-06
1.43221e-06
2.20037e-06
2.46382e-06
1.56403e-06
1.42059e-06
2.45647e-06
1.73954e-06
2.95184e-06
1.75054e-06
2.94345e-06
4.55893e-07
2.60577e-07
2.52078e-07
2.46851e-07
4.42224e-07
2.52525e-07
2.46342e-07
1.11999e-07
1.13208e-07
2.46962e-07
2.53531e-07
4.2195e-07
2.4382e-07
2.49858e-07
1.1271e-07
1.14861e-07
2.55529e-07
1.53002e-06
2.43318e-06
1.39989e-06
2.17864e-06
2.42723e-06
1.39629e-06
1.53356e-06
1.70423e-06
2.09209e-06
3.48125e-06
2.88549e-06
2.09749e-06
2.89021e-06
1.70087e-06
1.71716e-06
2.90635e-06
3.49535e-06
2.11653e-06
2.11084e-06
2.90012e-06
1.7209e-06
1.51666e-06
2.17241e-06
2.41561e-06
1.38324e-06
2.42049e-06
1.38556e-06
1.51398e-06
3.561e-06
2.93688e-06
2.93671e-06
1.7332e-06
2.13382e-06
2.13613e-06
1.73123e-06
2.44438e-06
2.18652e-06
2.44473e-06
1.53851e-06
1.4016e-06
1.40248e-06
1.53687e-06
2.44546e-06
2.44445e-06
2.18647e-06
1.53694e-06
1.40445e-06
1.40132e-06
1.54053e-06
2.66183e-06
1.21665e-06
1.80782e-06
1.80612e-06
1.80385e-06
1.80301e-06
2.6621e-06
2.74693e-06
1.85087e-06
1.24065e-06
1.85291e-06
1.83061e-06
2.76599e-06
1.83218e-06
1.73353e-06
2.11534e-06
3.50486e-06
2.91872e-06
2.92128e-06
2.12049e-06
1.73153e-06
1.7423e-06
2.92722e-06
3.51475e-06
2.13428e-06
2.92479e-06
1.74301e-06
2.13019e-06
1.54466e-06
2.46283e-06
1.43191e-06
2.2074e-06
1.55662e-06
2.45699e-06
1.4254e-06
1.71871e-06
2.1292e-06
2.96143e-06
3.58147e-06
2.11469e-06
1.73435e-06
2.95487e-06
1.56636e-06
2.45845e-06
1.4369e-06
2.20743e-06
1.56824e-06
2.45728e-06
1.43394e-06
1.74757e-06
2.9302e-06
1.74806e-06
2.93138e-06
2.70752e-06
1.27303e-06
1.87211e-06
1.86572e-06
1.85953e-06
1.8661e-06
2.71637e-06
1.51426e-06
1.39383e-06
2.42653e-06
2.17699e-06
1.39052e-06
2.42191e-06
1.51685e-06
1.68668e-06
2.07619e-06
3.48392e-06
2.89202e-06
2.07515e-06
2.89026e-06
1.6878e-06
1.69341e-06
2.89278e-06
3.48208e-06
2.08277e-06
2.07968e-06
2.89131e-06
1.69567e-06
1.50464e-06
2.17146e-06
1.37946e-06
2.41541e-06
1.38097e-06
2.41743e-06
1.50454e-06
2.17817e-06
2.41921e-06
2.41932e-06
1.51494e-06
1.39493e-06
1.39553e-06
1.51408e-06
2.89001e-06
2.8961e-06
3.48283e-06
1.69033e-06
2.0795e-06
2.07525e-06
1.69521e-06
2.88662e-06
2.88452e-06
3.47664e-06
1.69191e-06
2.07639e-06
2.07591e-06
1.69124e-06
2.17849e-06
2.42041e-06
2.42305e-06
1.51254e-06
1.39723e-06
1.39401e-06
1.51676e-06
8.33179e-08
1.2396e-06
3.26339e-07
8.86139e-07
9.08846e-07
1.17539e-06
3.39197e-07
8.43817e-07
8.98427e-07
1.12375e-06
3.46571e-07
8.68362e-07
9.03033e-07
1.12932e-06
3.60548e-07
9.24667e-07
9.11983e-07
1.15264e-06
4.25802e-07
1.0362e-06
9.6317e-07
1.28705e-06
4.59143e-07
1.07523e-06
1.04141e-06
1.37536e-06
4.67968e-07
9.95162e-07
1.05611e-06
1.30412e-06
1.15308e-06
8.77405e-07
8.98676e-07
1.17981e-06
8.76134e-07
9.02657e-07
9.34122e-07
9.03133e-07
9.01776e-07
1.18889e-06
9.32394e-07
9.0853e-07
9.00612e-07
1.17959e-06
1.15498e-06
1.16281e-06
8.77859e-07
8.83969e-07
8.93451e-07
8.52173e-07
1.17484e-06
1.10618e-06
8.76801e-07
9.03579e-07
8.93944e-07
9.0224e-07
8.86998e-07
8.49105e-07
8.60418e-07
1.1909e-06
1.17733e-06
8.86612e-07
9.01009e-07
8.61313e-07
1.12302e-06
1.166e-06
1.15222e-06
8.96066e-07
8.47878e-07
8.94371e-07
8.60269e-07
1.10562e-06
1.10878e-06
8.96854e-07
9.01379e-07
8.95953e-07
9.03773e-07
8.58462e-07
8.58168e-07
8.70785e-07
1.17825e-06
1.1695e-06
8.59426e-07
8.9855e-07
8.71321e-07
1.12598e-06
1.15271e-06
1.15823e-06
8.91436e-07
8.6773e-07
8.94919e-07
9.00794e-07
1.11728e-06
1.16171e-06
8.93287e-07
9.06427e-07
8.97591e-07
9.10246e-07
8.74322e-07
9.03182e-07
8.85485e-07
1.17202e-06
1.1724e-06
8.7477e-07
9.10168e-07
8.86681e-07
1.13997e-06
1.1754e-06
1.26537e-06
9.12873e-07
9.23634e-07
9.9261e-07
1.01208e-06
1.1805e-06
1.29213e-06
9.16472e-07
9.12052e-07
9.89709e-07
9.44401e-07
8.9954e-07
1.00954e-06
9.91263e-07
1.17557e-06
1.20694e-06
9.02074e-07
9.42128e-07
9.88441e-07
1.26064e-06
1.28302e-06
1.31111e-06
1.01189e-06
1.03867e-06
1.04084e-06
1.07554e-06
1.31688e-06
1.36502e-06
1.007e-06
9.64786e-07
1.03387e-06
1.02193e-06
1.02144e-06
1.0769e-06
1.08385e-06
1.22279e-06
1.2875e-06
1.0168e-06
1.02598e-06
1.07643e-06
1.36966e-06
1.3122e-06
1.30209e-06
1.04086e-06
1.0717e-06
1.03703e-06
1.00623e-06
1.36185e-06
1.25699e-06
1.03524e-06
1.03531e-06
1.03841e-06
1.05002e-06
1.08914e-06
1.01139e-06
1.04822e-06
1.29965e-06
1.31266e-06
1.08224e-06
1.05808e-06
1.05122e-06
1.3116e-06
1.30734e-06
1.31729e-06
1.03905e-06
9.93071e-07
1.04571e-06
9.94173e-07
1.2517e-06
1.23548e-06
1.04549e-06
1.04974e-06
1.05411e-06
1.04697e-06
1.02382e-06
9.84105e-07
9.76512e-07
1.31381e-06
5.55788e-06
1.02913e-06
1.53995e-06
1.39732e-06
5.45158e-06
4.12119e-06
9.21458e-06
1.86261e-05
9.21286e-06
3.60741e-07
8.3384e-08
3.64705e-07
3.26901e-07
3.52836e-07
3.45581e-07
3.53301e-07
2.15784e-06
6.07381e-07
9.30345e-07
3.56265e-06
6.09204e-07
1.47692e-06
1.84353e-05
2.15264e-06
5.95854e-07
9.04015e-07
5.99651e-07
3.51089e-06
1.32687e-06
5.62024e-06
5.61664e-06
1.21978e-06
5.612e-06
5.61022e-06
4.07708e-06
9.12637e-06
4.09143e-06
9.10166e-06
1.84862e-05
1.83874e-05
4.0878e-06
9.13973e-06
4.1011e-06
9.11618e-06
3.42759e-07
3.46841e-07
3.43428e-07
3.34628e-07
3.18045e-07
3.47217e-07
3.23015e-07
2.10755e-06
3.51414e-06
5.94928e-07
8.70951e-07
2.12739e-06
3.46919e-06
5.85883e-07
1.84254e-05
1.84305e-05
2.11985e-06
6.0196e-07
3.50143e-06
9.08018e-07
2.13448e-06
5.99427e-07
3.49114e-06
5.50845e-06
5.52093e-06
1.14351e-06
5.42885e-06
5.44609e-06
4.06877e-06
9.11235e-06
4.06729e-06
9.14075e-06
1.82438e-05
1.82103e-05
4.06895e-06
9.1123e-06
4.07196e-06
9.1326e-06
3.12769e-07
3.4658e-07
3.1971e-07
3.45946e-07
3.11149e-07
3.47222e-07
3.22779e-07
2.09333e-06
3.41761e-06
5.69265e-07
8.42981e-07
2.09105e-06
3.40559e-06
5.68377e-07
1.84273e-05
1.84088e-05
2.10199e-06
5.91236e-07
3.47398e-06
8.97108e-07
2.10284e-06
5.90585e-07
3.46555e-06
5.36955e-06
5.3778e-06
1.12092e-06
5.37698e-06
5.37748e-06
4.074e-06
9.1677e-06
4.07491e-06
9.14907e-06
1.82234e-05
1.82688e-05
4.07444e-06
9.15572e-06
4.07241e-06
9.14484e-06
3.18174e-07
3.50288e-07
3.26378e-07
3.51622e-07
3.4653e-07
3.58137e-07
3.36348e-07
2.10179e-06
3.40992e-06
5.8861e-07
8.77233e-07
2.10042e-06
3.41485e-06
5.95789e-07
1.83757e-05
1.83782e-05
2.10962e-06
6.01528e-07
3.46395e-06
9.06544e-07
2.10722e-06
6.07269e-07
3.46356e-06
5.4063e-06
5.40186e-06
1.13006e-06
5.39578e-06
5.39042e-06
4.08566e-06
9.09049e-06
4.0724e-06
9.09548e-06
1.83258e-05
1.84203e-05
4.09052e-06
9.10319e-06
4.08013e-06
9.11505e-06
3.62012e-07
3.5955e-07
3.47288e-07
4.10981e-07
4.26452e-07
3.74802e-07
4.08367e-07
2.13379e-06
3.43564e-06
6.20829e-07
9.51139e-07
2.10837e-06
3.46618e-06
6.37843e-07
1.83926e-05
1.84129e-05
2.13088e-06
6.20034e-07
3.46229e-06
9.15646e-07
2.11564e-06
6.27208e-07
3.46785e-06
5.34416e-06
5.33791e-06
1.18863e-06
5.34297e-06
5.33635e-06
4.19298e-06
9.2609e-06
4.15041e-06
9.37853e-06
1.86872e-05
1.88537e-05
4.16889e-06
9.25977e-06
4.1358e-06
9.3596e-06
4.47589e-07
3.86769e-07
4.31716e-07
4.5482e-07
4.85261e-07
4.33333e-07
4.86098e-07
2.24814e-06
3.57594e-06
7.08521e-07
1.05782e-06
2.20441e-06
3.64491e-06
7.30982e-07
1.84915e-05
1.85798e-05
2.21237e-06
6.71971e-07
3.50656e-06
9.8552e-07
2.17888e-06
6.92228e-07
3.5412e-06
5.50712e-06
5.50035e-06
1.32883e-06
5.63307e-06
5.62403e-06
4.2127e-06
9.47495e-06
4.22515e-06
9.43266e-06
1.90332e-05
1.90065e-05
4.1991e-06
9.44378e-06
4.20024e-06
9.41932e-06
4.87306e-07
4.47937e-07
4.94746e-07
4.64474e-07
4.58293e-07
4.74885e-07
4.91019e-07
2.25739e-06
3.69051e-06
7.67286e-07
1.06005e-06
2.27537e-06
3.6631e-06
7.67509e-07
1.86855e-05
1.87159e-05
2.25006e-06
7.45155e-07
3.58883e-06
1.05197e-06
2.24791e-06
7.55405e-07
3.59648e-06
5.75073e-06
5.73743e-06
1.36198e-06
5.7532e-06
5.74645e-06
4.1471e-06
9.28278e-06
4.16522e-06
9.24611e-06
1.86161e-05
1.84257e-05
4.17106e-06
9.30998e-06
4.18026e-06
9.28287e-06
4.45958e-07
4.77821e-07
4.74095e-07
4.7398e-07
2.52655e-07
4.76953e-07
1.17499e-07
2.17505e-06
3.55425e-06
7.29013e-07
9.85404e-07
2.20342e-06
3.49421e-06
7.17422e-07
1.8686e-05
1.86618e-05
2.20826e-06
7.61184e-07
3.58691e-06
1.05003e-06
2.22724e-06
7.54995e-07
3.57358e-06
5.6489e-06
5.66539e-06
1.25658e-06
5.54603e-06
5.5724e-06
1.84458e-05
1.84455e-05
1.16241e-06
5.4716e-06
5.47181e-06
1.83276e-05
1.84027e-05
1.83469e-05
1.84068e-05
1.16269e-06
5.41347e-06
5.4238e-06
5.45384e-06
5.45701e-06
4.12881e-06
9.27175e-06
2.13407e-06
8.80595e-07
3.49508e-06
5.85546e-07
2.13875e-06
9.25302e-07
3.55234e-06
5.98638e-07
4.11566e-06
9.14158e-06
9.19308e-06
4.09683e-06
4.12411e-06
9.22334e-06
9.26135e-06
4.10585e-06
2.13028e-06
8.78228e-07
3.46293e-06
5.82939e-07
3.48658e-06
5.84087e-07
2.12026e-06
2.13523e-06
9.14424e-07
3.52002e-06
5.93438e-07
3.54827e-06
5.97698e-07
2.12496e-06
1.21951e-06
5.59149e-06
5.60674e-06
1.86543e-05
1.85323e-05
1.86041e-05
1.21623e-06
5.53762e-06
5.54779e-06
5.5833e-06
5.59706e-06
1.85573e-05
1.8635e-05
8.79156e-07
3.49599e-06
5.82183e-07
9.20449e-06
8.9827e-07
5.87092e-07
3.5014e-06
4.11849e-06
9.15256e-06
9.19385e-06
4.1052e-06
2.12882e-06
8.76849e-07
3.46955e-06
5.8025e-07
3.48913e-06
5.80829e-07
2.1232e-06
4.12132e-06
9.18911e-06
9.19876e-06
4.1078e-06
2.13048e-06
9.00892e-07
5.88603e-07
3.49725e-06
5.8798e-07
3.50101e-06
2.12562e-06
4.14886e-06
9.2985e-06
4.15336e-06
2.15833e-06
6.09111e-07
2.11975e-06
9.31425e-07
6.10795e-07
3.56599e-06
1.47904e-06
4.14773e-06
9.29561e-06
9.30916e-06
4.15247e-06
2.1529e-06
9.21034e-07
3.52525e-06
6.04784e-07
3.55775e-06
6.0889e-07
2.13452e-06
4.1452e-06
9.25349e-06
9.29194e-06
4.12524e-06
2.15333e-06
9.18873e-07
6.05422e-07
3.52495e-06
6.10269e-07
3.56058e-06
2.13506e-06
4.14409e-06
9.27269e-06
9.30852e-06
4.12496e-06
1.18639e-06
5.47922e-06
5.4882e-06
1.8464e-05
1.84263e-05
1.84276e-05
1.18964e-06
5.47957e-06
5.48387e-06
5.47922e-06
5.4867e-06
1.84384e-05
1.84511e-05
2.15678e-06
6.06783e-07
2.1168e-06
9.29383e-07
6.08547e-07
3.56643e-06
1.47466e-06
4.14094e-06
9.22228e-06
4.14181e-06
4.14705e-06
9.28897e-06
9.30126e-06
4.14769e-06
2.15004e-06
9.06975e-07
6.02369e-07
3.50277e-06
6.01737e-07
3.50983e-06
2.13919e-06
2.15368e-06
9.16719e-07
6.05128e-07
3.53163e-06
6.0836e-07
3.56214e-06
2.14147e-06
4.13993e-06
9.20838e-06
9.21707e-06
4.1284e-06
4.14561e-06
9.27966e-06
9.3018e-06
4.13458e-06
1.86696e-05
1.86786e-05
1.86644e-05
1.86706e-05
1.21602e-06
5.53529e-06
5.54499e-06
5.59987e-06
5.60028e-06
1.85655e-05
1.86629e-05
1.85794e-05
1.86577e-05
1.83059e-05
1.82877e-05
1.83288e-05
1.83132e-05
5.40714e-06
5.41899e-06
1.15589e-06
5.40432e-06
5.41772e-06
1.83191e-05
1.82877e-05
1.83305e-05
1.83118e-05
1.16068e-06
5.43462e-06
5.43994e-06
5.41102e-06
5.42236e-06
4.08186e-06
9.20352e-06
4.0995e-06
9.15046e-06
2.11148e-06
3.45911e-06
5.82559e-07
8.81815e-07
2.11709e-06
3.45153e-06
5.82666e-07
2.11304e-06
3.51102e-06
5.88111e-07
8.70901e-07
2.1212e-06
3.47483e-06
5.83713e-07
4.07387e-06
9.1063e-06
9.09855e-06
4.06769e-06
4.07726e-06
9.09253e-06
9.1318e-06
4.06755e-06
2.11031e-06
8.88634e-07
3.45737e-06
5.87568e-07
3.45231e-06
5.8373e-07
2.10879e-06
2.11084e-06
8.60142e-07
3.43698e-06
5.7799e-07
3.46497e-06
5.80288e-07
2.10704e-06
5.51935e-06
5.52548e-06
1.13713e-06
5.45912e-06
5.45093e-06
1.85064e-05
1.83797e-05
1.82706e-05
1.83443e-05
1.13332e-06
5.3945e-06
5.37272e-06
5.44117e-06
5.4283e-06
1.8236e-05
1.83297e-05
2.11842e-06
3.46663e-06
5.80241e-07
8.81508e-07
2.12154e-06
3.45973e-06
5.80896e-07
4.08832e-06
9.18335e-06
4.10377e-06
9.16988e-06
2.12005e-06
5.89437e-07
3.49676e-06
9.03788e-07
2.12382e-06
5.90667e-07
3.4905e-06
4.08396e-06
9.10976e-06
9.11127e-06
4.07388e-06
2.11749e-06
8.88778e-07
3.4619e-06
5.90061e-07
3.45984e-06
5.84051e-07
2.11518e-06
4.08437e-06
9.15543e-06
9.16398e-06
4.07422e-06
2.1187e-06
9.03436e-07
5.94483e-07
3.48157e-06
5.92353e-07
3.48945e-06
2.11598e-06
4.08579e-06
9.23072e-06
4.11653e-06
9.15703e-06
2.10893e-06
5.95679e-07
3.51284e-06
8.74969e-07
2.12802e-06
5.87298e-07
3.46745e-06
4.08823e-06
9.24728e-06
4.11674e-06
9.16331e-06
2.10161e-06
8.58421e-07
3.42392e-06
5.72722e-07
3.45681e-06
5.78394e-07
2.09198e-06
4.07629e-06
9.07357e-06
9.13038e-06
4.0555e-06
2.10323e-06
8.66039e-07
5.75811e-07
3.43009e-06
5.80611e-07
3.45629e-06
2.09404e-06
4.07945e-06
9.07908e-06
9.13557e-06
4.05992e-06
5.48026e-06
5.48385e-06
1.1849e-06
5.47949e-06
5.48126e-06
1.84335e-05
1.84311e-05
1.84317e-05
1.84304e-05
1.18592e-06
5.47376e-06
5.46644e-06
5.47913e-06
5.47977e-06
1.84163e-05
1.84279e-05
2.12045e-06
5.97268e-07
3.52074e-06
8.75195e-07
2.13618e-06
5.90139e-07
3.47805e-06
4.10068e-06
9.20322e-06
4.12344e-06
9.18673e-06
4.1061e-06
9.259e-06
4.12895e-06
9.18232e-06
2.11504e-06
9.04653e-07
5.93042e-07
3.47608e-06
5.95833e-07
3.48911e-06
2.10465e-06
2.11503e-06
8.6669e-07
5.80147e-07
3.43663e-06
5.84358e-07
3.46598e-06
2.10339e-06
4.09286e-06
9.15581e-06
9.17705e-06
4.07191e-06
4.09713e-06
9.08753e-06
9.15316e-06
4.07386e-06
1.85037e-05
1.83537e-05
1.85245e-05
1.83821e-05
1.14127e-06
5.37306e-06
5.38403e-06
5.40927e-06
5.4258e-06
1.82219e-05
1.83046e-05
1.82367e-05
1.83307e-05
1.83284e-05
1.83817e-05
1.8337e-05
1.83795e-05
5.44448e-06
5.44684e-06
1.16242e-06
5.46418e-06
5.46252e-06
1.84324e-05
1.83966e-05
1.84207e-05
1.83917e-05
1.16324e-06
5.4541e-06
5.44963e-06
5.46766e-06
5.46531e-06
4.06525e-06
9.08244e-06
4.06613e-06
9.06815e-06
2.10793e-06
3.46126e-06
5.92509e-07
8.96806e-07
2.10864e-06
3.46685e-06
5.96763e-07
2.10478e-06
3.4305e-06
5.77128e-07
8.47433e-07
2.10633e-06
3.4154e-06
5.77803e-07
4.07026e-06
9.16746e-06
9.14894e-06
4.0745e-06
4.06578e-06
9.0729e-06
9.06688e-06
4.0679e-06
2.1076e-06
8.96505e-07
3.46188e-06
6.02278e-07
3.46826e-06
6.00072e-07
2.10491e-06
2.10434e-06
8.51026e-07
3.40711e-06
5.89098e-07
3.41276e-06
5.82215e-07
2.10169e-06
5.38294e-06
5.36069e-06
1.09724e-06
5.3556e-06
5.33904e-06
1.82082e-05
1.8179e-05
1.82164e-05
1.82036e-05
1.10127e-06
5.34011e-06
5.34081e-06
5.35034e-06
5.33771e-06
1.82186e-05
1.81781e-05
2.11247e-06
3.46402e-06
5.95807e-07
8.97797e-07
2.11448e-06
3.46647e-06
6.00809e-07
4.07201e-06
9.15203e-06
4.07291e-06
9.14652e-06
2.11396e-06
5.97227e-07
3.48045e-06
9.0116e-07
2.11529e-06
6.00603e-07
3.47326e-06
4.06915e-06
9.1551e-06
9.13896e-06
4.07147e-06
2.11187e-06
8.97643e-07
3.45819e-06
6.07374e-07
3.46685e-06
6.04702e-07
2.11004e-06
4.07326e-06
9.14237e-06
9.1439e-06
4.07739e-06
2.11377e-06
9.01584e-07
6.08361e-07
3.46711e-06
6.04474e-07
3.47195e-06
2.11305e-06
4.04867e-06
9.06067e-06
4.05151e-06
9.04766e-06
2.09448e-06
5.73194e-07
3.42617e-06
8.59663e-07
2.09301e-06
5.72865e-07
3.42288e-06
4.05199e-06
9.06746e-06
4.05582e-06
9.05911e-06
2.09476e-06
8.46667e-07
3.40734e-06
5.78784e-07
3.40518e-06
5.70233e-07
2.09944e-06
4.04981e-06
9.07255e-06
9.04837e-06
4.05747e-06
2.09559e-06
8.65327e-07
5.83152e-07
3.43078e-06
5.75368e-07
3.42504e-06
2.09947e-06
4.05265e-06
9.09266e-06
9.06253e-06
4.05935e-06
5.47181e-06
5.46241e-06
1.17126e-06
5.46109e-06
5.44727e-06
1.84057e-05
1.8384e-05
1.83797e-05
1.83954e-05
1.17263e-06
5.44676e-06
5.44017e-06
5.45724e-06
5.44497e-06
1.8372e-05
1.83759e-05
2.09843e-06
5.77779e-07
3.43088e-06
8.60545e-07
2.10095e-06
5.77399e-07
3.42287e-06
4.05998e-06
9.1477e-06
4.06744e-06
9.13512e-06
4.05535e-06
9.07179e-06
4.06748e-06
9.05322e-06
2.10277e-06
8.96994e-07
5.94681e-07
3.46366e-06
5.91059e-07
3.46516e-06
2.10626e-06
2.09861e-06
8.65982e-07
5.86129e-07
3.42575e-06
5.79397e-07
3.42316e-06
2.10053e-06
4.05972e-06
9.13336e-06
9.1326e-06
4.06283e-06
4.05328e-06
9.0786e-06
9.05357e-06
4.05292e-06
1.8206e-05
1.82134e-05
1.82153e-05
1.82103e-05
1.12462e-06
5.4036e-06
5.39903e-06
5.38437e-06
5.38283e-06
1.83065e-05
1.8225e-05
1.82893e-05
1.82185e-05
1.84303e-05
1.83821e-05
1.84172e-05
1.83649e-05
5.4433e-06
5.43868e-06
1.14492e-06
5.3968e-06
5.38892e-06
1.82831e-05
1.83484e-05
1.82693e-05
1.83315e-05
1.14717e-06
5.34688e-06
5.33989e-06
5.37965e-06
5.37176e-06
4.06468e-06
9.07624e-06
4.06766e-06
9.09387e-06
2.10044e-06
3.45854e-06
6.03605e-07
8.90148e-07
2.10355e-06
3.44215e-06
6.04589e-07
2.09688e-06
3.40667e-06
5.94624e-07
8.74822e-07
2.10033e-06
3.40639e-06
5.98614e-07
4.07328e-06
9.09937e-06
9.1364e-06
4.07212e-06
4.06351e-06
9.10038e-06
9.09637e-06
4.0622e-06
2.10035e-06
8.90472e-07
3.43248e-06
6.08698e-07
3.43809e-06
6.05962e-07
2.10718e-06
2.0966e-06
8.84841e-07
3.41964e-06
6.07485e-07
3.40861e-06
6.0195e-07
2.10293e-06
5.33932e-06
5.34464e-06
1.12859e-06
5.33896e-06
5.3499e-06
1.82321e-05
1.82993e-05
1.83161e-05
1.8277e-05
1.13922e-06
5.34414e-06
5.35637e-06
5.3404e-06
5.35142e-06
1.83487e-05
1.83082e-05
2.10832e-06
3.45473e-06
6.09128e-07
8.92147e-07
2.10941e-06
3.43838e-06
6.10473e-07
4.0798e-06
9.14249e-06
4.07859e-06
9.14543e-06
2.11183e-06
6.1177e-07
3.46654e-06
9.08154e-07
2.11282e-06
6.14422e-07
3.46332e-06
4.07517e-06
9.10908e-06
9.13534e-06
4.07917e-06
2.10879e-06
8.9259e-07
3.43112e-06
6.14795e-07
3.43494e-06
6.12011e-07
2.11655e-06
4.07999e-06
9.14538e-06
9.14612e-06
4.08102e-06
2.11212e-06
9.09232e-07
6.18554e-07
3.46296e-06
6.16505e-07
3.46313e-06
2.11792e-06
4.06324e-06
9.08026e-06
4.05976e-06
9.10759e-06
2.10162e-06
5.9018e-07
3.43303e-06
8.76702e-07
2.10029e-06
5.95224e-07
3.43021e-06
4.06512e-06
9.10154e-06
4.06146e-06
9.11879e-06
2.10169e-06
8.87804e-07
3.4274e-06
6.09217e-07
3.41713e-06
6.01783e-07
2.10336e-06
4.06329e-06
9.12328e-06
9.11228e-06
4.06633e-06
2.10158e-06
8.79618e-07
6.03254e-07
3.42453e-06
5.98808e-07
3.42882e-06
2.10355e-06
4.06521e-06
9.1156e-06
9.11956e-06
4.06737e-06
5.44456e-06
5.43985e-06
1.17108e-06
5.43741e-06
5.43734e-06
1.83712e-05
1.83819e-05
1.83914e-05
1.83791e-05
1.17331e-06
5.43176e-06
5.4324e-06
5.43623e-06
5.43637e-06
1.83995e-05
1.83839e-05
2.10362e-06
5.92342e-07
3.42746e-06
8.77186e-07
2.10127e-06
5.97016e-07
3.42548e-06
4.069e-06
9.13492e-06
4.06439e-06
9.14147e-06
4.05879e-06
9.08721e-06
4.0538e-06
9.11014e-06
2.11025e-06
9.08716e-07
6.15501e-07
3.46165e-06
6.1173e-07
3.4633e-06
2.11251e-06
2.10439e-06
8.8032e-07
6.07415e-07
3.42086e-06
6.0141e-07
3.42456e-06
2.10837e-06
4.06964e-06
9.14041e-06
9.14207e-06
4.07264e-06
4.05971e-06
9.11534e-06
9.11295e-06
4.06443e-06
1.83244e-05
1.83704e-05
1.83063e-05
1.83508e-05
1.13385e-06
5.35556e-06
5.34928e-06
5.3887e-06
5.38355e-06
1.83511e-05
1.83713e-05
1.83308e-05
1.83517e-05
1.82732e-05
1.83341e-05
1.82607e-05
1.83273e-05
5.34647e-06
5.34033e-06
1.21092e-06
5.3938e-06
5.39106e-06
1.85801e-05
1.83752e-05
1.85742e-05
1.83689e-05
1.23273e-06
5.53782e-06
5.53412e-06
5.42454e-06
5.42287e-06
4.08036e-06
9.10117e-06
4.06295e-06
9.12853e-06
2.14176e-06
3.436e-06
6.15377e-07
9.41894e-07
2.11389e-06
3.46424e-06
6.32793e-07
2.13933e-06
3.42872e-06
6.19535e-07
9.5175e-07
2.10999e-06
3.46457e-06
6.38792e-07
4.09457e-06
9.2197e-06
9.11608e-06
4.13442e-06
4.09114e-06
9.24862e-06
9.14783e-06
4.13789e-06
2.15389e-06
9.68955e-07
3.54198e-06
6.79991e-07
3.4819e-06
6.56304e-07
2.19293e-06
2.15236e-06
9.82277e-07
3.55464e-06
6.87179e-07
3.48505e-06
6.6229e-07
2.1946e-06
5.35208e-06
5.36075e-06
1.22063e-06
5.40164e-06
5.40236e-06
1.83535e-05
1.842e-05
1.86355e-05
1.84546e-05
1.24675e-06
5.5449e-06
5.53592e-06
5.43137e-06
5.42857e-06
1.86151e-05
1.84488e-05
2.14031e-06
3.43545e-06
6.21275e-07
9.43538e-07
2.12108e-06
3.46319e-06
6.35536e-07
4.08898e-06
9.14396e-06
4.08143e-06
9.14888e-06
2.13875e-06
6.21709e-07
3.4645e-06
9.16044e-07
2.12165e-06
6.2833e-07
3.4711e-06
4.09658e-06
9.22542e-06
9.13443e-06
4.12462e-06
2.14856e-06
9.683e-07
3.53547e-06
6.71474e-07
3.48005e-06
6.5303e-07
2.17581e-06
4.09434e-06
9.191e-06
9.15414e-06
4.11993e-06
2.14623e-06
9.26439e-07
6.55371e-07
3.49826e-06
6.40061e-07
3.47729e-06
2.17203e-06
4.08349e-06
9.12333e-06
4.06853e-06
9.13411e-06
2.13261e-06
6.12524e-07
3.42498e-06
9.27199e-07
2.10853e-06
6.29508e-07
3.43958e-06
4.0802e-06
9.10883e-06
4.06878e-06
9.10219e-06
2.14578e-06
9.80324e-07
3.54914e-06
6.83894e-07
3.48421e-06
6.59481e-07
2.18872e-06
4.09287e-06
9.23168e-06
9.14775e-06
4.1367e-06
2.14396e-06
9.58993e-07
6.77523e-07
3.5117e-06
6.51933e-07
3.454e-06
2.18525e-06
4.08829e-06
9.19542e-06
9.11064e-06
4.12903e-06
5.43119e-06
5.43146e-06
1.17921e-06
5.43338e-06
5.4302e-06
1.84013e-05
1.84129e-05
1.84765e-05
1.84199e-05
1.18769e-06
5.46308e-06
5.45576e-06
5.43851e-06
5.4333e-06
1.84654e-05
1.84165e-05
2.12932e-06
6.16856e-07
3.4216e-06
9.28478e-07
2.11209e-06
6.3062e-07
3.43578e-06
4.08421e-06
9.13751e-06
4.0741e-06
9.13577e-06
4.07886e-06
9.11304e-06
4.06626e-06
9.10694e-06
2.1385e-06
9.2454e-07
6.53423e-07
3.49498e-06
6.38242e-07
3.47345e-06
2.16762e-06
2.13771e-06
9.58238e-07
6.69585e-07
3.50503e-06
6.4854e-07
3.44994e-06
2.16944e-06
4.09058e-06
9.17611e-06
9.13886e-06
4.12003e-06