/*--------------------------------*- C++ -*----------------------------------*\
| =========                 |                                                 |
| \\      /  F ield         | OpenFOAM: The Open Source CFD Toolbox           |
|  \\    /   O peration     | Version:  v2006                                 |
|   \\  /    A nd           | Website:  www.openfoam.com                      |
|    \\/     M anipulation  |                                                 |
\*---------------------------------------------------------------------------*/
FoamFile
{
    version     2.0;
    format      ascii;
    class       volVectorField;
    location    "625";
    object      U;
}
// * * * * * * * * * * * * * * * * * * * * * * * * * * * * * * * * * * * * * //

dimensions      [0 1 -1 0 0 0 0];


internalField   nonuniform List<vector> 
14199
(
(-6.62244e-05 -2.13781e-05 0.0983765)
(7.3598e-05 -1.03638e-05 0.110342)
(-7.62564e-05 -7.71322e-06 0.0983939)
(5.02915e-05 3.92531e-06 0.110503)
(-6.86681e-05 -8.13694e-06 0.0909595)
(-6.97791e-05 1.53274e-06 0.09096)
(-3.32694e-05 6.02627e-06 0.0763378)
(-6.09477e-05 -1.65494e-05 0.0894346)
(-3.33854e-05 -1.24639e-06 0.0780693)
(-7.16503e-05 7.45137e-06 0.0909917)
(-6.56468e-05 -2.03662e-06 0.0894719)
(-3.08367e-05 6.80002e-06 0.0780988)
(-3.49671e-05 -2.01649e-06 0.0763003)
(-2.35507e-05 3.41596e-06 0.0763124)
(-7.01282e-05 1.15678e-05 0.0894161)
(-2.88723e-05 -1.05633e-06 0.0780706)
(-7.08544e-05 1.82661e-05 0.0909927)
(-6.68733e-05 2.745e-05 0.0894543)
(-2.66947e-05 7.21105e-06 0.0780974)
(-2.74109e-05 -4.63335e-06 0.0762783)
(-1.3934e-05 4.65793e-06 0.0678293)
(-4.0774e-05 1.57455e-05 0.0852315)
(-3.46277e-05 2.82225e-05 0.0852787)
(-1.638e-05 -1.12696e-06 0.0677776)
(0.000185713 2.67694e-05 0.11522)
(0.000181732 4.27079e-05 0.115258)
(-5.62109e-05 -3.05115e-05 0.0973494)
(-3.64014e-05 2.02689e-05 0.103074)
(-2.54118e-05 -6.58236e-05 0.10365)
(-8.08385e-05 5.69228e-06 0.0984357)
(-1.49504e-05 -7.31713e-05 0.102925)
(-4.56377e-05 2.88894e-05 0.103777)
(-7.17445e-05 -5.29506e-06 0.0974158)
(-8.81668e-05 7.23996e-06 0.0973863)
(-7.40127e-05 6.51344e-05 0.103187)
(-3.89859e-05 -5.42213e-05 0.103699)
(-8.89727e-05 2.25493e-05 0.0984538)
(-5.57877e-05 -3.93085e-05 0.103031)
(-5.96999e-05 4.65908e-05 0.103829)
(-9.63468e-05 3.84951e-05 0.0974539)
(-8.7209e-05 2.35688e-05 0.0953454)
(-8.43514e-05 9.64339e-05 0.101586)
(-7.23328e-05 -1.43069e-05 0.101448)
(-8.75533e-05 5.47575e-05 0.0954142)
(-3.87893e-05 -3.26408e-05 0.0870479)
(-3.36554e-05 -1.97952e-05 0.0710132)
(-4.77736e-05 -3.83399e-05 0.0926096)
(-4.36793e-05 -2.28756e-05 0.0816814)
(-9.85895e-06 -4.46534e-05 0.0816923)
(9.35351e-05 6.31261e-05 0.107794)
(1.18378e-05 -3.68906e-05 0.0925769)
(-1.72832e-05 -4.36301e-05 0.0710451)
(0.000101892 -5.74311e-06 0.104331)
(-1.71723e-05 -4.94336e-05 0.0870635)
(6.93794e-05 -2.79589e-06 0.10777)
(-4.68588e-05 -2.96161e-05 0.0913142)
(-1.46341e-05 -4.17607e-05 0.0959921)
(-5.14023e-05 -2.76938e-05 0.087086)
(-3.25769e-05 -2.20388e-05 0.0810734)
(-2.81845e-05 -3.68172e-05 0.0912793)
(-3.74375e-05 -1.85251e-05 0.0811101)
(-4.50652e-05 -2.66188e-05 0.0960336)
(-3.72601e-05 -1.29242e-05 0.0710528)
(-2.91562e-05 -8.75439e-07 0.0679079)
(-4.57606e-05 -8.8487e-06 0.0817187)
(-4.76005e-05 -2.15365e-05 0.0852873)
(-4.99773e-05 -9.39217e-06 0.0853273)
(-3.10045e-05 -7.56708e-06 0.0678568)
(-2.27409e-05 -5.14181e-05 0.0817309)
(-2.22198e-05 -4.39552e-05 0.0710765)
(-3.93608e-05 -3.69515e-05 0.0831871)
(-2.37675e-05 -2.19666e-05 0.0679197)
(-1.94049e-05 -2.96183e-05 0.0678992)
(-2.60645e-05 -3.76844e-05 0.0831559)
(-2.3591e-05 -2.95066e-05 0.067922)
(-2.86308e-05 -2.06736e-05 0.0679491)
(-3.94414e-05 -3.53985e-05 0.0913152)
(7.97523e-06 -2.1492e-05 0.0959786)
(-3.15864e-05 -5.45861e-05 0.0870932)
(-2.14939e-05 -3.85793e-05 0.0810864)
(-2.93244e-05 -2.77851e-05 0.0960174)
(-1.08934e-05 -2.85292e-05 0.091277)
(-3.1205e-05 -4.23955e-05 0.0811099)
(-5.09477e-05 -3.3409e-05 0.0953072)
(-3.46292e-05 1.86094e-05 0.101416)
(-1.16027e-05 -7.37485e-05 0.09938)
(-6.57467e-05 -2.14539e-05 0.0926603)
(-3.77353e-05 1.05151e-05 0.0994479)
(-1.11214e-05 -7.32689e-05 0.101289)
(-6.66845e-05 -1.14447e-05 0.0953714)
(7.93903e-05 2.99992e-06 0.0993469)
(-1.54045e-05 -5.16271e-05 0.0926207)
(-2.1e-05 -1.15391e-05 0.0993967)
(-2.44627e-05 -3.44898e-06 0.0973598)
(7.27936e-05 -8.87353e-06 0.101391)
(4.79583e-06 6.1893e-05 0.10447)
(4.32243e-05 -1.71641e-05 0.101395)
(1.00311e-06 4.61884e-05 0.101467)
(1.58011e-05 -1.24137e-05 0.097308)
(-2.59458e-05 4.17346e-06 0.101464)
(0.000150372 5.44011e-05 0.11285)
(1.59537e-05 -4.52512e-05 0.0909543)
(2.48895e-05 -3.45953e-05 0.0909532)
(3.41377e-05 -4.83825e-05 0.098302)
(0.000100172 8.16816e-05 0.110298)
(-1.68228e-05 -5.64016e-05 0.0817229)
(1.99582e-05 -5.57592e-05 0.0983043)
(-2.75583e-05 -8.8353e-05 0.0926146)
(5.91429e-05 1.32532e-05 0.107783)
(9.72679e-05 7.1998e-05 0.110334)
(9.80605e-06 -3.03466e-05 0.0763113)
(1.99982e-06 -2.3947e-05 0.0781103)
(4.97565e-06 -6.18054e-05 0.089435)
(2.75577e-05 -3.82232e-05 0.0909217)
(7.87537e-06 -2.12658e-05 0.0780986)
(1.79771e-05 -5.26562e-05 0.0893949)
(3.31587e-06 -3.49581e-05 0.0763305)
(5.34572e-06 -5.05085e-06 0.0678586)
(2.07657e-05 1.22073e-06 0.0852769)
(3.22285e-05 -9.78158e-07 0.0852607)
(1.5023e-06 -4.78263e-06 0.0678779)
(9.19501e-06 -8.28913e-06 0.0763328)
(2.38099e-05 -3.92406e-06 0.0894377)
(3.45572e-06 -3.16265e-05 0.0781196)
(3.48744e-05 -3.02066e-05 0.090923)
(3.50412e-05 -5.0966e-06 0.089407)
(8.43275e-06 -2.97427e-05 0.0781059)
(5.35856e-06 -7.36926e-06 0.0763557)
(-1.4091e-06 -2.84206e-05 0.0679409)
(-1.22357e-05 -5.38868e-05 0.0853369)
(-7.53135e-06 -5.79901e-05 0.0816886)
(-1.06965e-06 -4.98833e-05 0.0852909)
(-5.948e-06 -3.1364e-05 0.0679741)
(-1.35174e-05 -4.85796e-05 0.0710248)
(-3.44349e-05 -5.66041e-05 0.0912747)
(-2.90094e-05 -7.17569e-05 0.0870484)
(-1.85185e-05 -5.96593e-05 0.0959638)
(-2.47079e-05 -5.0783e-05 0.081062)
(-3.93617e-05 -4.45788e-05 0.0831584)
(-1.95512e-05 -3.42734e-05 0.0678747)
(-2.37445e-05 -2.3826e-05 0.0679095)
(-4.78548e-05 -5.36822e-05 0.0912904)
(-3.19571e-05 -2.76194e-05 0.0810822)
(0.000112726 2.03287e-05 0.101153)
(4.06639e-05 -1.87453e-05 0.0952695)
(5.9369e-05 -1.13749e-05 0.09521)
(2.24264e-05 -5.8727e-06 0.10126)
(0.000114473 1.85546e-05 0.102791)
(3.81898e-05 -2.98974e-05 0.0973021)
(2.44583e-05 -1.71539e-05 0.103604)
(5.47583e-05 -2.9583e-05 0.0982547)
(5.85785e-05 -1.66707e-05 0.0972428)
(0.000112861 1.25729e-05 0.103515)
(2.49147e-05 -8.23657e-06 0.102907)
(9.35397e-05 -2.77869e-06 0.102825)
(2.55457e-06 -6.75599e-05 0.0973041)
(1.27654e-05 -2.24321e-05 0.103614)
(4.45981e-05 -3.41779e-05 0.098257)
(0.000106516 8.5991e-06 0.103526)
(3.05504e-05 -4.53135e-05 0.097245)
(-5.6561e-06 -3.28524e-05 0.102939)
(7.25152e-05 -2.12932e-05 0.101213)
(-1.88678e-05 -7.54062e-05 0.0952922)
(-4.89982e-05 -6.0967e-05 0.0993773)
(-2.34179e-06 -7.79815e-05 0.092565)
(9.88999e-06 -5.70062e-05 0.095227)
(5.27376e-05 -4.28687e-05 0.0993201)
(-3.41201e-05 -4.69606e-05 0.101318)
(-2.26409e-05 -4.09202e-05 0.0973091)
(2.3841e-06 -5.2374e-05 0.101384)
(2.29798e-05 4.26369e-05 0.104693)
(-4.80821e-05 2.00767e-05 0.108187)
(-1.65909e-08 2.39805e-05 0.0709379)
(-4.0019e-07 2.88408e-05 0.0870556)
(3.22553e-05 -1.34687e-05 0.0816579)
(3.00437e-05 -5.70865e-06 0.085289)
(3.00411e-05 -9.969e-06 0.0709621)
(3.25674e-05 -1.55587e-05 0.0870834)
(5.6529e-06 -9.44159e-06 0.0961837)
(1.45311e-05 1.76562e-05 0.0961338)
(6.58817e-07 1.46829e-05 0.0810435)
(7.59161e-06 1.31886e-05 0.0913546)
(2.27828e-05 1.51969e-05 0.10166)
(1.79385e-06 3.86819e-05 0.101662)
(1.42255e-06 1.05134e-05 0.0974898)
(-1.94804e-05 -2.65326e-05 0.101678)
(3.02598e-05 -5.37324e-06 0.0927182)
(1.54798e-05 2.11356e-06 0.0954741)
(-6.3105e-06 -3.13766e-05 0.0996487)
(0.00020606 5.21721e-05 0.117479)
(0.000203854 3.91895e-05 0.117444)
(0.000193097 4.32843e-05 0.117465)
(0.000199722 5.1858e-05 0.117377)
(-4.09864e-05 -2.73358e-05 0.10831)
(2.80742e-06 -2.25968e-05 0.108175)
(-1.04079e-05 -3.12977e-05 0.10828)
(1.45041e-05 -6.53558e-05 0.104763)
(3.34821e-06 1.40004e-05 0.0910547)
(4.58816e-06 2.20207e-05 0.08163)
(1.72253e-05 6.83954e-06 0.0910222)
(9.37674e-06 7.91402e-07 0.0708919)
(1.93277e-06 -5.55653e-05 0.0995643)
(7.62491e-06 -1.5064e-06 0.0986165)
(6.05507e-05 4.3793e-06 0.0995654)
(2.27215e-05 -4.17395e-05 0.110724)
(7.04464e-05 -1.72107e-05 0.103167)
(3.05312e-06 1.02454e-05 0.0910568)
(1.51256e-05 -1.33877e-06 0.0816262)
(1.59924e-05 1.92756e-06 0.0910264)
(4.18167e-06 -8.53605e-06 0.0986157)
(1.63991e-05 -3.34527e-05 0.110784)
(5.12395e-05 -3.18642e-05 0.101539)
(5.98585e-05 -3.21952e-05 0.103177)
(6.88565e-06 -1.22817e-05 0.087019)
(2.11161e-05 2.21214e-06 0.0870357)
(1.67128e-05 -2.30277e-07 0.0709271)
(1.62244e-05 -7.56594e-06 0.0816269)
(7.18354e-06 1.19272e-05 0.076254)
(-1.49356e-06 2.36697e-05 0.0894927)
(1.62711e-07 7.38727e-06 0.0780619)
(1.80179e-05 1.16101e-05 0.0910209)
(1.34721e-05 2.28829e-05 0.0894553)
(7.43105e-06 6.30074e-06 0.0780414)
(3.89328e-07 1.20083e-05 0.0762798)
(-3.90284e-06 1.08875e-05 0.0678481)
(-7.48015e-06 1.98825e-05 0.0816643)
(9.49245e-06 1.98608e-05 0.085263)
(-2.84723e-06 1.9135e-05 0.0853)
(1.14973e-06 1.13543e-05 0.0678117)
(-1.19494e-06 1.41963e-05 0.0762936)
(3.21835e-06 9.28617e-06 0.0910584)
(1.3677e-05 1.92721e-05 0.0894593)
(6.84551e-06 5.57797e-06 0.0780544)
(-7.79276e-07 2.11813e-05 0.0894986)
(9.2299e-08 6.02472e-06 0.0780772)
(5.2162e-06 1.35084e-05 0.0762644)
(3.3841e-06 7.81394e-06 0.0709232)
(8.18449e-06 1.12286e-05 0.0762415)
(-3.93394e-07 8.95943e-06 0.0780555)
(3.5731e-06 8.28665e-06 0.0894936)
(1.71819e-05 7.36617e-06 0.0910235)
(6.82094e-06 8.77547e-06 0.0780344)
(1.73347e-05 4.27852e-06 0.0894554)
(2.66324e-07 1.05135e-05 0.0762705)
(-6.21804e-07 7.25122e-06 0.0678393)
(1.90853e-06 3.4398e-06 0.0816623)
(1.08986e-05 -2.3558e-07 0.0852521)
(-5.81447e-07 2.63939e-06 0.0852962)
(5.66422e-06 8.42471e-06 0.0677938)
(1.54279e-06 8.98688e-06 0.0762849)
(2.18299e-06 4.59917e-06 0.0910631)
(6.85993e-06 8.22143e-06 0.0780517)
(1.54572e-05 -3.47954e-06 0.0894595)
(-1.3814e-07 8.18004e-06 0.078074)
(2.05414e-06 4.67964e-07 0.0895006)
(9.30219e-06 9.13253e-06 0.0762561)
(-6.54258e-06 -2.7133e-06 0.0913462)
(7.34898e-06 -2.82778e-05 0.0961061)
(2.28099e-06 -1.15837e-06 0.0870538)
(1.71573e-05 -5.33214e-06 0.0809966)
(1.16803e-05 8.99932e-07 0.0810189)
(-1.41985e-05 -1.291e-05 0.0961558)
(7.4771e-06 -1.19844e-05 0.0913115)
(9.43155e-06 1.55578e-05 0.091354)
(1.31344e-05 -9.91609e-06 0.0961076)
(1.48583e-05 1.00474e-05 0.0870723)
(1.82951e-05 -3.92892e-06 0.0810142)
(4.20953e-06 1.67879e-05 0.0961564)
(1.49075e-05 2.7256e-06 0.0810405)
(1.37236e-05 -2.96698e-06 0.0913178)
(4.14734e-06 1.38603e-05 0.0831364)
(8.63154e-06 4.43982e-08 0.0677881)
(1.43226e-05 1.66581e-06 0.0678041)
(5.83509e-06 5.44083e-06 0.0678078)
(1.04816e-05 5.31775e-06 0.067824)
(8.16806e-06 7.08099e-06 0.0831139)
(1.33331e-05 6.50713e-06 0.0709562)
(6.16311e-06 4.00634e-06 0.0678581)
(1.60194e-05 6.62049e-06 0.0816649)
(1.24213e-05 -6.76084e-06 0.0852499)
(1.36688e-05 5.8639e-06 0.0852971)
(2.12157e-06 -2.61571e-06 0.0678065)
(1.94262e-05 -2.16335e-05 0.101678)
(-8.06548e-06 -6.02407e-05 0.101668)
(-2.34083e-06 -1.75857e-05 0.0974653)
(-2.13665e-05 6.14648e-06 0.0975259)
(-7.43286e-05 2.42618e-05 0.104926)
(-6.45132e-05 4.72861e-06 0.101765)
(-3.04701e-05 2.63962e-05 0.101757)
(-4.99233e-06 -6.51634e-05 0.101546)
(2.11126e-05 -1.35498e-05 0.0926511)
(1.42718e-05 -1.86984e-05 0.0953941)
(-2.69097e-06 4.18599e-05 0.101677)
(1.76126e-05 8.09486e-06 0.0927068)
(-4.75307e-08 4.4995e-05 0.099637)
(1.57653e-05 7.16881e-06 0.0954657)
(7.0282e-05 -1.43219e-05 0.103181)
(4.20995e-06 1.10673e-05 0.0975753)
(-2.91719e-05 -2.30273e-05 0.104053)
(3.32715e-05 -4.75792e-06 0.0985473)
(3.09988e-05 7.86412e-06 0.0974966)
(7.24456e-05 -2.45788e-05 0.103915)
(-3.35955e-05 -1.21904e-05 0.103349)
(7.07314e-05 -8.21689e-06 0.10153)
(1.95334e-05 2.61279e-05 0.09267)
(2.74835e-05 1.07329e-05 0.095411)
(-3.46179e-05 -9.64054e-06 0.101677)
(-2.43155e-06 2.2992e-05 0.0927277)
(2.02485e-06 1.22032e-05 0.0954877)
(-3.72769e-05 -2.34287e-07 0.099652)
(3.14643e-05 -1.02416e-05 0.0985398)
(3.00361e-05 1.14771e-06 0.0974883)
(7.18814e-05 -2.58139e-05 0.103906)
(-3.3576e-05 -1.65882e-05 0.10333)
(5.92532e-06 -7.7967e-06 0.098608)
(3.61507e-06 3.75136e-06 0.0975661)
(-3.03895e-05 -2.53731e-05 0.104039)
(6.21482e-05 -3.21245e-05 0.103182)
(-3.49205e-05 -2.81649e-05 0.10405)
(2.2159e-06 -1.1812e-05 0.0975689)
(2.93015e-05 -1.14427e-05 0.0985483)
(6.65308e-05 -2.77707e-05 0.103915)
(2.72242e-05 -1.58698e-05 0.0974934)
(-4.01141e-05 -3.19457e-05 0.103343)
(4.45983e-05 -3.03574e-05 0.0995637)
(1.50196e-05 -2.22162e-05 0.0926583)
(1.72978e-05 -2.15902e-05 0.0954064)
(-5.40907e-05 -2.94159e-05 0.101678)
(-4.42799e-06 -1.15606e-05 0.0927169)
(-7.13521e-06 -1.66654e-05 0.0954825)
(-5.26645e-05 -2.30281e-05 0.0996425)
(2.70801e-05 -1.59208e-05 0.0985424)
(6.56778e-05 -2.76421e-05 0.10391)
(2.40258e-05 -2.14042e-05 0.0974887)
(-4.38049e-05 -3.28047e-05 0.103336)
(1.7025e-06 -1.38942e-05 0.0986101)
(-3.68366e-05 -2.87308e-05 0.104042)
(-1.28927e-06 -1.8421e-05 0.0975654)
(-3.05658e-06 -1.34502e-05 0.0817137)
(3.37988e-05 -8.47162e-07 0.0925635)
(0.000109149 0.000120232 0.110359)
(6.76172e-05 0.000101313 0.108257)
(-3.18139e-05 -3.52604e-05 0.104549)
(-2.30695e-06 5.00744e-06 0.0711026)
(1.89052e-05 1.0089e-05 0.087056)
(9.88986e-05 4.14598e-05 0.108324)
(8.78971e-06 0.000153698 0.107765)
(1.92642e-05 0.000118495 0.104779)
(1.34567e-05 4.1784e-05 0.108018)
(6.1354e-05 -4.84829e-06 0.107997)
(2.47876e-05 -1.16282e-05 0.0909363)
(0.000104531 0.000140119 0.110344)
(8.95487e-05 0.000139842 0.107687)
(4.49821e-05 1.0952e-05 0.0982908)
(2.25553e-05 -1.53178e-05 0.0909322)
(4.39529e-05 1.00785e-05 0.0982918)
(-3.88373e-05 -2.16551e-05 0.0870793)
(-4.57509e-06 -3.68363e-06 0.0708775)
(-5.22103e-06 -1.64819e-05 0.070999)
(0.000165091 0.000118084 0.115323)
(0.000163935 8.54645e-05 0.115291)
(0.000168263 -1.66618e-05 0.113145)
(0.000143251 1.21963e-05 0.112844)
(3.40852e-05 6.88266e-05 0.0985538)
(2.84163e-05 5.11739e-05 0.0926868)
(4.188e-05 7.00063e-05 0.110549)
(4.42596e-05 0.000151353 0.108294)
(2.96274e-05 -3.19505e-05 0.0926915)
(2.87983e-05 0.000148924 0.110645)
(-6.95156e-06 8.43903e-05 0.0985042)
(-4.14102e-05 -1.44055e-05 0.0926607)
(-5.21615e-05 -8.81394e-07 0.0984326)
(-1.3005e-05 -4.20094e-05 0.0983685)
(-9.88251e-06 8.76804e-06 0.0870073)
(-6.37377e-05 3.15384e-05 0.0870099)
(2.03068e-05 0.000102371 0.104816)
(1.31433e-05 1.46058e-05 0.0870391)
(-4.44442e-05 4.60513e-05 0.0870233)
(-2.01636e-05 -8.85794e-07 0.0711015)
(5.35519e-05 0.000154107 0.104249)
(-4.62695e-05 4.70658e-05 0.0870657)
(-8.5316e-06 1.56575e-06 0.0816309)
(-1.35004e-05 -1.921e-05 0.0817132)
(-1.44246e-05 -1.66191e-05 0.092683)
(4.77176e-05 7.21413e-05 0.108346)
(-2.62601e-05 -4.73461e-05 0.0926688)
(-6.69249e-05 1.18515e-05 0.0909578)
(-4.27355e-05 -5.84899e-06 0.08171)
(-6.0887e-05 -6.51225e-07 0.0909615)
(-0.00011684 3.42404e-05 0.0983731)
(-9.78428e-05 5.98093e-05 0.0925969)
(3.48338e-05 0.000119347 0.110525)
(-0.000107859 9.29796e-06 0.0983854)
(7.38641e-07 9.43163e-05 0.110739)
(3.14817e-07 -1.67783e-05 0.0870234)
(1.24742e-05 2.88607e-07 0.0869769)
(7.77088e-05 5.34241e-05 0.104908)
(-7.30153e-06 -2.82547e-05 0.0870567)
(-1.37384e-05 -6.20346e-05 0.0870177)
(-1.62287e-05 -2.38253e-05 0.0708258)
(-1.73638e-05 -6.45887e-05 0.0709552)
(2.84525e-05 -7.85049e-06 0.0910345)
(-1.71025e-05 -1.48538e-05 0.0816202)
(-8.62129e-06 -6.57738e-05 0.0817013)
(4.77717e-06 3.7139e-05 0.0910135)
(1.97391e-05 6.52753e-05 0.0985542)
(2.21379e-05 5.76176e-05 0.110444)
(-2.91513e-05 1.70181e-05 0.0926615)
(-5.15898e-06 8.75661e-05 0.108143)
(5.87156e-06 0.000119143 0.110559)
(1.3266e-05 2.48113e-05 0.0927092)
(-2.53386e-05 6.96391e-05 0.0984963)
(2.53841e-05 9.11276e-07 0.0910272)
(-1.77997e-05 5.77672e-06 0.0816093)
(1.02504e-05 -5.68843e-06 0.0816409)
(-3.11069e-06 3.57237e-05 0.091009)
(-6.3914e-05 9.54625e-06 0.0984493)
(0.00013472 -2.8832e-05 0.110377)
(-8.28236e-05 3.11361e-06 0.0926246)
(2.5541e-05 2.28405e-05 0.108092)
(0.000102854 -1.06923e-05 0.110435)
(-8.14914e-05 4.66436e-05 0.092673)
(-2.73257e-05 -4.17429e-05 0.0983834)
(-1.12676e-05 3.84344e-06 0.0708883)
(5.19265e-06 -9.83092e-07 0.0709133)
(-4.80304e-05 5.75481e-06 0.0708829)
(-2.80468e-05 6.12056e-06 0.0708717)
(-2.93454e-06 -5.54323e-09 0.0679227)
(-7.53907e-06 -1.26294e-05 0.0817458)
(2.36834e-05 2.78611e-06 0.0853154)
(6.39368e-07 5.27818e-06 0.0678939)
(1.78021e-05 -1.37993e-06 0.0853294)
(-3.54689e-06 4.94198e-06 0.07114)
(-1.01112e-05 6.47702e-06 0.0912218)
(1.70784e-05 4.70736e-05 0.0958884)
(1.4323e-05 6.48892e-06 0.0870749)
(-3.15728e-05 -3.10375e-05 0.0811734)
(4.43539e-07 2.76723e-05 0.0959097)
(4.38085e-07 1.55982e-05 0.091192)
(-2.61445e-05 -2.33724e-05 0.0812173)
(-1.5605e-06 -3.42964e-06 0.0763688)
(2.47631e-05 3.16357e-06 0.0894257)
(1.67487e-05 -2.21357e-05 0.090962)
(3.92942e-06 -1.57208e-05 0.0781232)
(1.81338e-06 2.29056e-06 0.0763378)
(1.71987e-05 -2.56698e-06 0.0894528)
(-6.05327e-07 -2.40283e-05 0.0781435)
(2.3648e-06 -2.50913e-05 0.0763569)
(1.18921e-05 -2.78125e-05 0.0909596)
(5.71194e-06 -7.58699e-06 0.0781243)
(1.76359e-05 -2.48976e-05 0.0893989)
(8.80555e-06 -1.47812e-05 0.0763348)
(8.47707e-08 -1.59452e-05 0.0781414)
(4.41715e-06 -3.98065e-05 0.0894335)
(-8.11858e-06 -2.53142e-05 0.0679896)
(1.32949e-06 -3.01967e-05 0.0852795)
(-2.16294e-06 -1.6802e-05 0.067944)
(-1.20151e-05 -4.09147e-05 0.0853276)
(-2.39162e-06 -2.02463e-05 0.0912732)
(-2.21063e-05 -2.43605e-05 0.0870442)
(-1.03946e-05 -1.26586e-05 0.0960297)
(-3.35513e-05 -1.11276e-05 0.0810961)
(-2.31856e-05 -1.18187e-05 0.0913063)
(1.91812e-05 -2.90976e-05 0.0959903)
(-2.49017e-05 -1.33512e-05 0.0810556)
(-6.31021e-06 -2.36789e-05 0.0831494)
(-2.47612e-05 -1.59085e-05 0.0679507)
(-1.92631e-05 -2.03518e-05 0.0679405)
(-1.17503e-05 -1.69557e-05 0.0679116)
(-2.20745e-05 -2.5872e-05 0.0831821)
(-1.67263e-05 -1.45577e-05 0.0679127)
(-1.55096e-06 -1.23715e-05 0.0709414)
(-6.90386e-06 -9.26984e-06 0.0709277)
(-5.37253e-06 4.08935e-05 0.0830991)
(9.95532e-07 -3.43596e-06 0.067753)
(-1.53542e-05 5.31471e-06 0.0677408)
(-6.30437e-06 -4.37981e-06 0.0677286)
(-2.43489e-05 3.75216e-06 0.067719)
(5.45492e-06 4.28317e-05 0.0831245)
(-2.1477e-05 3.36914e-05 0.091355)
(-4.72346e-05 2.14891e-05 0.0961263)
(2.51647e-06 1.70833e-05 0.08704)
(-2.69551e-05 4.85071e-07 0.0809481)
(-2.0202e-05 4.3202e-05 0.096176)
(-1.82123e-05 1.72409e-06 0.0809664)
(-4.12e-05 2.27157e-05 0.0913231)
(-4.3667e-05 5.12646e-05 0.0913468)
(-5.62565e-05 1.44225e-05 0.0961048)
(-5.40798e-05 4.29769e-05 0.0870354)
(-4.5804e-05 7.12033e-06 0.0809514)
(-4.88854e-05 4.99675e-05 0.0961493)
(-4.02637e-05 1.16568e-05 0.0809679)
(-5.04709e-05 2.81947e-05 0.0913169)
(-3.29535e-05 2.77505e-05 0.0913131)
(-9.45522e-06 -2.98287e-06 0.0809444)
(5.49495e-07 8.65702e-06 0.0870021)
(-8.15254e-06 4.87917e-05 0.0961805)
(-3.8007e-05 3.39886e-05 0.0961339)
(-2.12267e-05 -4.7705e-06 0.0809184)
(-1.0013e-05 3.49897e-05 0.091344)
(-5.05675e-05 3.96883e-05 0.0913044)
(-3.06824e-05 7.27455e-06 0.0809425)
(-5.77412e-05 3.80182e-05 0.0869921)
(-5.86206e-05 6.70606e-05 0.096151)
(-6.70207e-05 3.54286e-05 0.0961056)
(-4.03694e-05 2.64394e-06 0.0809194)
(-4.07018e-05 5.9414e-05 0.091334)
(-5.63962e-06 4.75171e-05 0.083136)
(-1.3799e-05 2.14667e-06 0.067768)
(-3.11742e-05 6.69333e-06 0.0677616)
(-7.45502e-06 2.65478e-06 0.0677824)
(-2.45973e-05 8.15791e-06 0.0677729)
(-1.64917e-05 4.10959e-05 0.0831107)
(-1.08514e-05 -7.43243e-06 0.0711461)
(1.69414e-05 4.54328e-05 0.0831397)
(-2.01088e-06 -1.39928e-05 0.0681345)
(-2.75979e-05 3.44358e-06 0.068136)
(2.16556e-05 6.05995e-05 0.0830982)
(-1.79545e-05 9.17984e-07 0.0681897)
(1.94948e-06 -1.33009e-05 0.0681882)
(-5.88873e-05 5.2629e-05 0.0912231)
(-6.21357e-05 8.6726e-05 0.0959132)
(-5.92544e-05 -1.5421e-05 0.0811594)
(-3.97439e-05 3.66559e-05 0.0870879)
(-5.61019e-05 6.94624e-05 0.0911894)
(-4.20667e-05 -1.67216e-05 0.0812035)
(-8.12003e-05 6.69076e-05 0.0959383)
(1.01029e-05 -2.89591e-06 0.0678764)
(-8.67188e-06 -1.47893e-05 0.0816836)
(-8.69899e-06 -1.1605e-05 0.0852295)
(-1.11661e-05 -2.42075e-05 0.0852796)
(1.37977e-05 4.26226e-06 0.067808)
(8.08759e-06 1.88025e-06 0.0678602)
(-1.79044e-05 -2.31955e-05 0.085303)
(-1.26766e-05 -4.21152e-06 0.0816579)
(-1.50766e-05 -1.23818e-05 0.0852488)
(2.84347e-06 -4.70815e-06 0.0679302)
(-9.55343e-06 -1.115e-05 0.0763799)
(-1.78063e-05 -1.28663e-06 0.0781326)
(-5.84858e-05 1.96163e-05 0.0894465)
(-6.18929e-05 4.21181e-06 0.0909797)
(-1.19575e-05 -7.47773e-06 0.0763451)
(-1.81363e-05 -5.47793e-06 0.0781581)
(-5.05503e-05 1.05029e-05 0.0894698)
(-6.30491e-06 -6.42939e-06 0.0679399)
(-3.40775e-05 2.72586e-05 0.0853228)
(-3.20481e-05 -1.51072e-05 0.0817404)
(-8.75926e-06 -1.65378e-06 0.0679015)
(-2.70355e-05 1.86004e-05 0.0853374)
(-2.11861e-06 3.2703e-06 0.076384)
(-9.20264e-06 8.93628e-07 0.0781455)
(-4.40972e-05 -3.42045e-06 0.0894194)
(-5.76898e-05 -8.77835e-06 0.0909857)
(3.85093e-07 9.32717e-06 0.0763581)
(-9.52157e-06 -4.27108e-06 0.078166)
(-4.34339e-05 -1.1584e-05 0.0894533)
(-2.75527e-06 -3.78075e-06 0.0679719)
(-2.14329e-05 -9.97045e-06 0.0852756)
(8.59607e-07 1.41488e-06 0.0679107)
(-2.22843e-05 -1.85058e-05 0.0853311)
(-9.48396e-06 -2.34203e-05 0.0830694)
(-1.34915e-05 -1.9076e-05 0.0678358)
(-1.23377e-05 -2.7317e-05 0.0678459)
(-1.41641e-05 -1.31603e-05 0.0677754)
(-1.1002e-05 -1.71507e-05 0.0677763)
(-1.54392e-05 -3.216e-05 0.0831081)
(1.05829e-05 -2.51772e-05 0.0913113)
(-2.64199e-08 5.04333e-06 0.0961826)
(4.26821e-06 -2.6195e-05 0.0870577)
(-2.86255e-06 4.51103e-06 0.0809483)
(-1.55969e-06 -8.13859e-06 0.0809945)
(7.27755e-06 -2.8139e-05 0.0961926)
(6.28529e-06 -2.7896e-07 0.0913013)
(2.89231e-05 -2.29631e-06 0.0912897)
(2.34004e-05 6.92855e-05 0.0961634)
(9.67704e-06 -2.64551e-05 0.0870084)
(-1.26975e-05 -1.07557e-05 0.0808654)
(4.26662e-05 4.335e-05 0.0961761)
(-9.07289e-06 -2.73213e-05 0.0809197)
(1.87193e-05 2.06536e-05 0.0912802)
(-2.88367e-06 -1.70431e-05 0.091251)
(-8.46703e-06 -1.90455e-05 0.0810309)
(-8.6083e-06 -2.01239e-05 0.087018)
(-1.24023e-05 -4.60288e-05 0.0961039)
(-8.55372e-06 -7.74757e-06 0.0809766)
(-1.49318e-05 -1.30037e-05 0.0961061)
(-3.93218e-06 -4.12538e-05 0.0912662)
(3.66518e-06 -1.14061e-05 0.0912351)
(-1.53449e-05 -4.86912e-05 0.0809898)
(-9.05272e-06 -3.73702e-05 0.0869763)
(2.41564e-05 6.57683e-06 0.0961019)
(1.12756e-05 4.02648e-05 0.0960981)
(-1.86705e-05 -3.49632e-05 0.0809203)
(9.19743e-06 -3.50905e-05 0.0912537)
(7.7923e-06 -2.5315e-05 0.0830935)
(-8.23231e-06 -4.25629e-06 0.0677296)
(-2.27429e-06 -1.00954e-06 0.067712)
(-7.28625e-06 -1.17204e-05 0.0677836)
(-3.63169e-06 -1.34116e-05 0.0677739)
(1.29255e-05 -1.62953e-05 0.0830645)
(-1.34743e-05 -4.25693e-05 0.0708866)
(-2.17743e-05 -5.11773e-05 0.0708811)
(-2.62411e-06 -3.15538e-05 0.0763145)
(2.175e-05 -2.50273e-05 0.0894993)
(1.16631e-05 -2.94916e-05 0.0781163)
(1.25886e-05 9.63176e-06 0.0910075)
(1.01873e-05 -3.81597e-06 0.0894637)
(3.76813e-06 -2.1084e-05 0.0780822)
(4.97889e-06 -4.21655e-05 0.0763605)
(-3.50458e-06 -2.44269e-05 0.0678345)
(-5.82981e-06 -3.47518e-05 0.081671)
(6.45447e-06 8.70023e-07 0.0852684)
(1.52243e-05 -1.59908e-05 0.0853139)
(-8.38359e-06 -1.47284e-05 0.0677768)
(-9.97811e-06 -3.62696e-05 0.0678005)
(6.7546e-06 -4.86388e-05 0.0853182)
(-2.06954e-05 -4.96841e-05 0.0816468)
(-1.19974e-07 -3.21487e-05 0.0852715)
(-4.89344e-06 -4.36091e-05 0.0678664)
(3.26212e-06 -1.74783e-05 0.0763368)
(2.28733e-05 2.48963e-05 0.0910437)
(1.09437e-05 3.35887e-05 0.0894677)
(1.03214e-07 -2.74419e-06 0.078071)
(2.46953e-05 1.59807e-05 0.0895049)
(8.95409e-06 -1.16581e-05 0.0781017)
(-4.49623e-06 -5.9426e-06 0.0762932)
(3.61601e-06 -5.19945e-06 0.0762847)
(1.244e-05 -2.21578e-05 0.0781065)
(2.37777e-05 4.634e-06 0.0894813)
(7.43903e-06 1.51802e-05 0.0910012)
(4.19033e-06 -1.3655e-05 0.0780745)
(4.59309e-06 1.45054e-05 0.0894496)
(1.20735e-05 -1.28657e-05 0.0763205)
(4.56732e-06 4.40755e-06 0.0678368)
(-3.29661e-07 3.61631e-06 0.081643)
(-7.30745e-06 1.581e-05 0.0852486)
(9.66403e-06 1.30037e-05 0.0852882)
(-3.26741e-06 1.01479e-05 0.0677885)
(4.55149e-07 6.60741e-07 0.0678029)
(2.09777e-05 1.1983e-06 0.0852912)
(-8.76948e-06 -2.88598e-06 0.0816017)
(3.75716e-06 7.07954e-06 0.0852467)
(8.01377e-06 -6.25796e-06 0.0678591)
(8.62272e-06 -4.98546e-07 0.0763125)
(1.60825e-05 2.70515e-05 0.0910381)
(2.38652e-07 3.42357e-06 0.0780674)
(-7.12219e-06 2.60377e-05 0.0894595)
(9.16312e-06 -5.32545e-06 0.0780956)
(1.23734e-05 2.19735e-05 0.0894917)
(-7.60638e-07 5.79594e-06 0.0762811)
(-2.07661e-06 5.20208e-06 0.0709176)
(-4.51508e-06 -1.74654e-06 0.0708745)
(-4.00653e-05 9.56643e-06 0.0709008)
(-3.85938e-05 1.65857e-06 0.0708455)
(-3.55352e-05 -1.39085e-05 0.0710494)
(-4.2228e-05 -1.98057e-05 0.090966)
(-4.2559e-05 -9.71912e-06 0.0817228)
(-6.36901e-05 2.83863e-06 0.0909942)
(-5.12118e-05 -1.62079e-05 0.0909622)
(-5.33205e-05 -3.22152e-06 0.081593)
(-6.68348e-05 1.12321e-05 0.0909925)
(-4.20704e-05 7.03061e-06 0.0816245)
(-2.75892e-05 -1.88913e-05 0.0710095)
(-2.51814e-05 9.36919e-07 0.0763343)
(-2.79675e-05 -7.18158e-06 0.0780766)
(-2.89343e-05 -2.23462e-05 0.0894423)
(-5.00191e-05 -3.02215e-06 0.0909972)
(-2.15412e-05 -7.18923e-06 0.0762998)
(-3.07361e-05 1.01516e-06 0.0781001)
(-3.7765e-05 -7.14103e-06 0.0894797)
(-2.69657e-05 -8.55726e-06 0.0678581)
(-3.54999e-05 -2.20798e-05 0.0816845)
(-4.41344e-05 -9.98877e-06 0.085336)
(-3.76339e-05 -2.09032e-05 0.0852968)
(-2.82734e-05 -2.40383e-06 0.0679049)
(-3.06423e-05 -4.58203e-06 0.0762981)
(-5.73156e-05 -1.33203e-05 0.0909615)
(-5.44651e-05 -4.29129e-06 0.089476)
(-3.37488e-05 4.09114e-06 0.0780966)
(-3.31241e-05 -4.22139e-06 0.0780696)
(-4.63398e-05 -1.88911e-05 0.089438)
(-3.22926e-05 3.57524e-06 0.0763347)
(-3.70311e-05 -5.66797e-07 0.076313)
(-2.56867e-05 -7.71356e-06 0.0780819)
(-6.69889e-05 -4.34468e-06 0.0894195)
(-5.71759e-05 2.27915e-06 0.0909931)
(-3.67497e-05 -8.15661e-06 0.0762868)
(-2.80728e-05 7.42875e-07 0.0781029)
(-6.96294e-05 1.38706e-05 0.0894534)
(-2.54332e-05 4.92077e-06 0.067824)
(-5.10325e-05 5.64164e-06 0.0852316)
(-5.02003e-05 8.70109e-06 0.0816269)
(-2.5766e-05 -6.28433e-07 0.067789)
(-4.94857e-05 2.05946e-05 0.0852689)
(-3.39025e-05 -6.56528e-06 0.0762788)
(-6.25235e-05 -6.51457e-06 0.0909595)
(-7.13422e-05 2.19256e-05 0.0894524)
(-2.99896e-05 4.13191e-06 0.0780971)
(-2.92409e-05 -4.38619e-06 0.0780732)
(-7.12158e-05 4.61522e-06 0.0894148)
(-3.24839e-05 1.31406e-06 0.0763084)
(-2.19798e-05 -9.29728e-07 0.0677752)
(-4.88321e-05 -5.79853e-06 0.0815853)
(-4.44826e-05 2.57589e-05 0.0852696)
(-4.8023e-05 1.17396e-05 0.0852258)
(-2.08562e-05 4.78588e-06 0.0678181)
(1.46832e-05 4.08715e-05 0.101287)
(8.21025e-05 5.68987e-05 0.0992796)
(2.47255e-05 -8.12084e-06 0.0925932)
(4.13691e-05 7.53539e-06 0.0952485)
(9.71824e-05 5.97818e-05 0.101205)
(2.76224e-05 -5.01802e-06 0.0952905)
(5.92271e-06 3.85126e-05 0.0993086)
(-1.5182e-05 5.21492e-05 0.0975335)
(-2.82279e-05 -2.55626e-05 0.101626)
(-4.92948e-05 5.47293e-06 0.101616)
(4.13014e-05 6.53492e-05 0.104739)
(-8.11863e-06 7.22754e-05 0.101732)
(2.31201e-05 4.57131e-05 0.101717)
(-3.46056e-05 1.77647e-05 0.097474)
(4.082e-05 2.43019e-05 0.09754)
(-2.99679e-08 6.19345e-05 0.101783)
(2.95992e-05 0.000123871 0.101761)
(0.000101749 4.49907e-05 0.10495)
(4.94257e-05 4.41606e-05 0.101821)
(7.98113e-05 3.82931e-05 0.101845)
(2.27397e-05 5.27122e-05 0.0975252)
(2.01886e-05 4.49877e-05 0.102949)
(4.36768e-05 1.35966e-05 0.097277)
(0.000105111 6.49676e-05 0.103572)
(2.62988e-05 -9.27222e-06 0.0983275)
(0.000103558 6.34706e-05 0.102848)
(2.71707e-05 -2.22443e-06 0.0973222)
(2.14354e-05 4.36596e-05 0.103651)
(1.02144e-05 2.76206e-05 0.102981)
(0.000109959 6.05653e-05 0.103579)
(2.07326e-05 -1.16078e-05 0.0983292)
(3.74223e-05 1.33474e-06 0.0972725)
(0.000105675 5.01807e-05 0.10287)
(2.12228e-05 3.83164e-05 0.103662)
(9.51668e-06 -2.12592e-05 0.0973221)
(-7.26102e-06 9.95544e-06 0.101345)
(2.24802e-05 -1.23095e-05 0.0952399)
(9.65711e-05 2.97666e-05 0.101245)
(-7.97141e-06 -3.25969e-05 0.0952966)
(0.000154898 0.000151765 0.11291)
(0.000197597 9.73088e-05 0.115371)
(0.000226193 -5.19554e-05 0.11532)
(0.000147563 -4.78205e-05 0.115234)
(0.00013261 6.77299e-05 0.113275)
(0.000217547 1.18464e-05 0.115406)
(0.000140306 2.88014e-05 0.115326)
(0.000207703 -1.94274e-05 0.117411)
(0.000192328 -7.71534e-05 0.117388)
(0.000138164 -9.40645e-06 0.11512)
(0.000205084 -2.14154e-05 0.115169)
(0.000126879 5.46484e-05 0.112964)
(0.000136365 5.34746e-05 0.115197)
(0.000206289 1.33676e-05 0.115196)
(0.000206973 1.41555e-06 0.117348)
(0.000185429 -4.99731e-05 0.117352)
(0.000168989 8.3583e-05 0.115506)
(-3.05806e-05 0.000125291 0.10317)
(3.89766e-05 5.8761e-05 0.0975257)
(5.83658e-05 0.000128135 0.103984)
(5.91228e-06 8.02729e-05 0.0985034)
(1.49761e-05 7.60634e-05 0.097474)
(-3.96868e-05 0.000119419 0.103853)
(6.56605e-05 0.000128949 0.103316)
(9.57193e-05 0.000113412 0.101697)
(-7.78092e-06 9.51741e-05 0.0996591)
(4.53748e-05 2.10529e-05 0.0927246)
(2.42132e-05 7.80592e-05 0.0954367)
(8.80236e-05 8.61643e-05 0.0997177)
(5.07395e-05 6.27736e-05 0.0954927)
(-9.09212e-06 0.000108324 0.101564)
(-6.0458e-06 0.000115559 0.101555)
(4.48878e-05 2.29623e-05 0.0954535)
(1.82402e-05 1.75264e-06 0.0926585)
(7.84663e-05 6.34279e-05 0.0996545)
(-1.10869e-05 8.3653e-05 0.0996202)
(2.49456e-05 4.68439e-05 0.0954092)
(9.19508e-05 0.000108082 0.101663)
(6.59188e-05 0.000117396 0.103317)
(2.54132e-05 8.55656e-05 0.0985649)
(8.97524e-06 9.22403e-05 0.0974884)
(-4.84511e-05 8.85054e-05 0.103818)
(3.86867e-05 8.69194e-05 0.0975516)
(5.17942e-05 0.00010735 0.103963)
(-3.45087e-05 0.000102367 0.103153)
(-2.07544e-05 -3.15361e-05 0.0926111)
(-2.20795e-05 -3.05338e-05 0.0953104)
(-3.88458e-05 -7.12476e-06 0.0953748)
(2.63816e-05 -6.91555e-05 0.101279)
(2.1567e-06 2.04612e-05 0.0994432)
(2.5354e-05 -6.60168e-05 0.0993765)
(7.42786e-06 2.55283e-05 0.101405)
(-2.65599e-05 -3.45547e-05 0.0973483)