/*--------------------------------*- C++ -*----------------------------------*\
| =========                 |                                                 |
| \\      /  F ield         | OpenFOAM: The Open Source CFD Toolbox           |
|  \\    /   O peration     | Version:  v2012                                 |
|   \\  /    A nd           | Website:  www.openfoam.com                      |
|    \\/     M anipulation  |                                                 |
\*---------------------------------------------------------------------------*/
FoamFile
{
    version     2.0;
    format      ascii;
    class       volScalarField;
    location    "600";
    object      epsilon;
}
// * * * * * * * * * * * * * * * * * * * * * * * * * * * * * * * * * * * * * //

dimensions      [0 2 -3 0 0 0 0];


internalField   nonuniform List<scalar> 
171728
(
1.73099e-09
3.17005e-09
4.51254e-09
4.78309e-09
1.6941e-09
2.95671e-09
4.27863e-09
4.37261e-09
1.59844e-09
2.72881e-09
3.98099e-09
4.17666e-09
1.50899e-09
2.51722e-09
3.69702e-09
4.04178e-09
1.42454e-09
2.33061e-09
3.44838e-09
3.92137e-09
1.33834e-09
2.17518e-09
3.23955e-09
3.85225e-09
1.25905e-09
2.05314e-09
3.05294e-09
3.75811e-09
1.1999e-09
1.96439e-09
2.89522e-09
3.47414e-09
1.15248e-09
1.90891e-09
2.80268e-09
3.10407e-09
1.10808e-09
1.8832e-09
2.76692e-09
2.92479e-09
1.07161e-09
1.88561e-09
2.78074e-09
2.795e-09
1.04156e-09
1.91962e-09
2.8442e-09
2.58093e-09
1.01547e-09
1.9945e-09
2.96998e-09
2.54167e-09
9.91413e-10
2.12047e-09
3.14174e-09
2.58305e-09
9.68885e-10
2.32494e-09
3.40919e-09
2.71204e-09
9.47991e-10
2.65287e-09
3.82781e-09
2.85613e-09
9.28849e-10
3.12908e-09
4.47098e-09
3.27188e-09
9.131e-10
3.87951e-09
5.47453e-09
4.01861e-09
9.00532e-10
5.00253e-09
6.76689e-09
5.20357e-09
8.93972e-10
6.79402e-09
8.65501e-09
7.49641e-09
8.96749e-10
8.89444e-09
1.08457e-08
1.17485e-08
9.08004e-10
1.25773e-08
1.4122e-08
1.79718e-08
9.38553e-10
1.75815e-08
2.07045e-08
2.94727e-08
9.93815e-10
2.37009e-08
2.42798e-08
5.96986e-08
1.06447e-09
3.47262e-08
3.72004e-08
5.90366e-08
1.20747e-09
4.1933e-08
4.32221e-08
1.38898e-07
1.4104e-09
6.0742e-08
6.07621e-08
1.82683e-07
1.67601e-09
7.51954e-08
7.66275e-08
1.93152e-07
2.08124e-09
9.51078e-08
9.64575e-08
3.0057e-07
2.63882e-09
1.17764e-07
1.17593e-07
3.56725e-07
3.37986e-09
1.44885e-07
1.47213e-07
4.49078e-07
4.44989e-09
1.85178e-07
1.72342e-07
5.15525e-07
5.68533e-09
1.93079e-07
2.06566e-07
5.98995e-07
7.50431e-09
2.43115e-07
2.38531e-07
6.41625e-07
9.87918e-09
2.88223e-07
2.97094e-07
7.13725e-07
1.29453e-08
3.13304e-07
3.18943e-07
7.65071e-07
1.66333e-08
3.73331e-07
3.55169e-07
8.08577e-07
2.11427e-08
4.04998e-07
4.13358e-07
8.2464e-07
2.5892e-08
4.48871e-07
4.53918e-07
8.81283e-07
3.43943e-08
5.00017e-07
4.99765e-07
9.66391e-07
4.22925e-08
5.79592e-07
5.67809e-07
9.36767e-07
5.40427e-08
5.90702e-07
5.96952e-07
9.40371e-07
6.36694e-08
6.1381e-07
6.14389e-07
1.00105e-06
7.17061e-08
7.48934e-07
7.18033e-07
1.08223e-06
9.95818e-08
7.4941e-07
7.59735e-07
1.09322e-06
1.10279e-07
7.36638e-07
7.69878e-07
1.05982e-06
1.1795e-07
8.10423e-07
8.1043e-07
1.10679e-06
1.54663e-07
9.15916e-07
8.77014e-07
1.17496e-06
1.84641e-07
9.27846e-07
9.18262e-07
1.17215e-06
1.97055e-07
9.19256e-07
9.29338e-07
1.17057e-06
2.15365e-07
9.60211e-07
9.64926e-07
1.23842e-06
2.6282e-07
1.01412e-06
1.01712e-06
1.26282e-06
2.96609e-07
1.02676e-06
1.02072e-06
1.24265e-06
3.1105e-07
1.04012e-06
1.03479e-06
1.2467e-06
3.37928e-07
1.09319e-06
1.10248e-06
1.34883e-06
3.94913e-07
1.09611e-06
1.11172e-06
1.33052e-06
4.16804e-07
1.10641e-06
1.09396e-06
1.29118e-06
4.31959e-07
1.15106e-06
1.13802e-06
1.35525e-06
4.75421e-07
1.18054e-06
1.18307e-06
1.41021e-06
5.10444e-07
1.15526e-06
1.17024e-06
1.38383e-06
5.22856e-07
1.14762e-06
1.16643e-06
1.34457e-06
5.39035e-07
1.21901e-06
1.19886e-06
1.40377e-06
5.84227e-07
1.26407e-06
1.23802e-06
1.4595e-06
6.09509e-07
1.24523e-06
1.24751e-06
1.4454e-06
6.211e-07
1.21083e-06
1.24261e-06
1.41581e-06
6.29553e-07
1.22802e-06
1.23877e-06
1.43699e-06
6.52523e-07
1.27564e-06
1.26148e-06
1.47261e-06
6.8103e-07
1.28802e-06
1.27281e-06
1.4717e-06
6.9533e-07
1.28171e-06
1.28506e-06
1.47691e-06
7.08982e-07
1.27897e-06
1.29888e-06
1.489e-06
7.19785e-07
1.30215e-06
1.29466e-06
1.48967e-06
7.35834e-07
1.31076e-06
1.29636e-06
1.50489e-06
7.48162e-07
1.29936e-06
1.30799e-06
1.50647e-06
7.54672e-07
1.29667e-06
1.30913e-06
1.49928e-06
7.68751e-07
1.31947e-06
1.31483e-06
1.51721e-06
7.78076e-07
1.32373e-06
1.3182e-06
1.52343e-06
7.84821e-07
1.31524e-06
1.31465e-06
1.51457e-06
7.89833e-07
1.31389e-06
1.32205e-06
1.52343e-06
7.9835e-07
1.3264e-06
1.32338e-06
1.53153e-06
8.0323e-07
1.32471e-06
1.3172e-06
1.52057e-06
8.05199e-07
1.31442e-06
1.32118e-06
1.52282e-06
8.07413e-07
1.31554e-06
1.32371e-06
1.53458e-06
8.09973e-07
1.32447e-06
1.31872e-06
1.53016e-06
8.13059e-07
1.32167e-06
1.31432e-06
1.51967e-06
8.11208e-07
1.30921e-06
1.31331e-06
1.52871e-06
8.08854e-07
1.30011e-06
1.31327e-06
1.53162e-06
8.06835e-07
1.30941e-06
1.30394e-06
1.51597e-06
8.08402e-07
1.31721e-06
1.2998e-06
1.51898e-06
8.05622e-07
1.29228e-06
1.29951e-06
1.52037e-06
7.97218e-07
1.27738e-06
1.29582e-06
1.51467e-06
7.93927e-07
1.28242e-06
1.28129e-06
1.50058e-06
7.92279e-07
1.28994e-06
1.26999e-06
1.49942e-06
7.87421e-07
1.28376e-06
1.27867e-06
1.51184e-06
7.80543e-07
1.25309e-06
1.27579e-06
1.49685e-06
7.54898e-07
1.18578e-06
1.18867e-06
1.42253e-06
5.094e-09
5.45247e-09
3.9234e-09
4.91778e-09
3.69476e-09
5.37975e-09
1.67931e-09
1.43101e-09
1.90039e-09
2.00404e-09
3.7749e-09
3.81309e-09
5.05327e-09
4.06344e-09
4.52681e-09
4.83218e-09
5.02353e-09
4.68451e-09
7.04815e-09
3.75712e-09
6.9113e-09
3.60303e-09
4.89579e-09
4.44179e-09
7.8226e-09
7.77184e-09
6.55065e-09
7.71345e-09
4.01827e-09
3.01774e-09
3.85135e-09
5.00244e-09
4.67742e-09
1.25905e-08
4.35295e-09
1.06408e-08
4.44365e-09
4.61561e-09
4.37744e-09
6.84599e-09
3.53919e-09
6.66001e-09
3.35488e-09
4.41443e-09
4.02545e-09
6.10819e-09
7.6841e-09
4.82353e-09
7.61385e-09
3.78273e-09
2.78404e-09
3.58215e-09
4.61255e-09
4.40395e-09
1.02872e-08
4.05501e-09
9.45948e-09
4.21509e-09
4.31847e-09
4.07259e-09
6.59408e-09
3.29393e-09
6.36335e-09
3.11686e-09
4.00328e-09
3.67265e-09
4.45918e-09
7.59186e-09
3.71721e-09
7.56871e-09
3.52199e-09
2.56836e-09
3.35496e-09
4.35474e-09
4.22754e-09
9.20564e-09
3.76491e-09
8.65857e-09
4.0807e-09
4.01786e-09
3.81251e-09
6.2866e-09
3.06149e-09
6.01936e-09
2.90965e-09
3.65461e-09
3.36378e-09
3.54102e-09
7.56967e-09
3.11173e-09
7.55649e-09
3.30237e-09
2.3746e-09
3.15529e-09
4.19024e-09
4.0854e-09
8.46997e-09
3.50721e-09
7.94682e-09
3.94114e-09
3.77355e-09
3.47774e-09
5.88783e-09
2.8638e-09
5.30568e-09
2.73945e-09
3.34868e-09
3.09758e-09
2.98907e-09
7.55438e-09
2.68664e-09
7.53773e-09
3.10949e-09
2.21098e-09
2.98282e-09
4.04749e-09
3.9416e-09
7.83829e-09
3.28804e-09
7.71261e-09
3.87808e-09
3.44175e-09
3.06339e-09
5.0607e-09
2.70224e-09
4.26017e-09
2.60354e-09
3.08593e-09
2.85485e-09
2.6017e-09
7.50029e-09
2.43985e-09
6.98629e-09
2.94333e-09
2.08063e-09
2.83317e-09
3.90425e-09
3.66401e-09
7.70641e-09
3.09931e-09
7.70583e-09
3.78862e-09
3.04439e-09
2.82739e-09
3.99777e-09
2.57536e-09
3.34601e-09
2.50044e-09
2.84637e-09
2.65154e-09
2.41722e-09
6.67682e-09
2.33803e-09
5.48592e-09
2.80036e-09
1.98268e-09
2.71327e-09
3.59151e-09
3.19533e-09
7.68224e-09
2.92834e-09
7.31912e-09
3.51656e-09
2.81646e-09
2.63879e-09
3.18474e-09
2.48014e-09
2.82447e-09
2.4265e-09
2.6467e-09
2.49243e-09
2.31035e-09
5.07576e-09
2.25183e-09
4.04896e-09
2.68747e-09
1.91924e-09
2.6238e-09
3.17257e-09
2.95256e-09
7.11954e-09
2.81895e-09
6.41555e-09
3.12253e-09
2.63285e-09
2.46117e-09
2.72767e-09
2.41219e-09
2.48577e-09
2.37695e-09
2.49117e-09
2.37099e-09
2.2395e-09
3.80155e-09
2.21747e-09
3.29967e-09
2.60749e-09
1.88685e-09
2.56863e-09
2.93833e-09
2.75681e-09
6.19139e-09
2.76868e-09
5.60315e-09
2.93571e-09
2.45594e-09
2.32264e-09
2.4137e-09
2.36877e-09
2.23972e-09
2.35227e-09
2.37273e-09
2.28125e-09
2.2144e-09
3.18151e-09
2.21803e-09
2.84917e-09
2.56009e-09
1.88254e-09
2.54595e-09
2.74722e-09
2.52012e-09
5.43636e-09
2.77362e-09
4.97606e-09
2.8022e-09
2.32543e-09
2.26078e-09
2.19404e-09
2.34966e-09
2.10052e-09
2.35429e-09
2.28632e-09
2.22579e-09
2.22322e-09
2.75701e-09
2.249e-09
2.52378e-09
2.53874e-09
1.91039e-09
2.54473e-09
2.51498e-09
2.39689e-09
4.8384e-09
2.8212e-09
4.42331e-09
2.58195e-09
2.27202e-09
2.25009e-09
2.0908e-09
2.36051e-09
2.09551e-09
2.39262e-09
2.23669e-09
2.20863e-09
2.26131e-09
2.44541e-09
2.32159e-09
2.28295e-09
2.5555e-09
1.97448e-09
2.57976e-09
2.40141e-09
2.36152e-09
4.28274e-09
2.93739e-09
3.89345e-09
2.53269e-09
2.27096e-09
2.29035e-09
2.11143e-09
2.4111e-09
2.21109e-09
2.48912e-09
2.22778e-09
2.24671e-09
2.34564e-09
2.26808e-09
2.43188e-09
2.27448e-09
2.59973e-09
2.09339e-09
2.68091e-09
2.3796e-09
2.38986e-09
3.8347e-09
3.09598e-09
3.85992e-09
2.54817e-09
2.32416e-09
2.39623e-09
2.25599e-09
2.51713e-09
2.4177e-09
2.64679e-09
2.27914e-09
2.32744e-09
2.46939e-09
2.29877e-09
2.6111e-09
2.42745e-09
2.71669e-09
2.26979e-09
2.84805e-09
2.42249e-09
2.50925e-09
3.89057e-09
3.33106e-09
3.85377e-09
2.65856e-09
2.45072e-09
2.60846e-09
2.48733e-09
2.70301e-09
2.73337e-09
2.94463e-09
2.38801e-09
2.59532e-09
2.67343e-09
2.48484e-09
2.90343e-09
2.73542e-09
2.90823e-09
2.57544e-09
3.14067e-09
2.56931e-09
2.75379e-09
3.84034e-09
3.69352e-09
3.7792e-09
2.79674e-09
2.7015e-09
2.97331e-09
2.83666e-09
3.03306e-09
3.18934e-09
3.34741e-09
2.68627e-09
2.88367e-09
2.99221e-09
2.82912e-09
3.33656e-09
3.18272e-09
3.20726e-09
2.99266e-09
3.53576e-09
2.85541e-09
3.17177e-09
3.77066e-09
4.31653e-09
4.04944e-09
3.09812e-09
3.12807e-09
3.59342e-09
3.33915e-09
3.48938e-09
3.86428e-09
3.9653e-09
3.02542e-09
3.48081e-09
3.48114e-09
3.35568e-09
3.97612e-09
3.82417e-09
3.67776e-09
3.6089e-09
4.30453e-09
3.34548e-09
3.8782e-09
4.13621e-09
5.2633e-09
4.51624e-09
3.81892e-09
3.86315e-09
4.7456e-09
4.11345e-09
4.23219e-09
4.91999e-09
5.06904e-09
3.77037e-09
4.74851e-09
4.21895e-09
4.12003e-09
4.99645e-09
4.84063e-09
4.49239e-09
4.70068e-09
5.21115e-09
4.15607e-09
5.02298e-09
4.63014e-09
6.25929e-09
5.49116e-09
4.75915e-09
5.17796e-09
6.7241e-09
5.26476e-09
5.37361e-09
6.47415e-09
6.52865e-09
5.11898e-09
6.67104e-09
5.34178e-09
5.13255e-09
6.5693e-09
6.602e-09
5.55823e-09
6.15017e-09
6.9585e-09
5.39912e-09
7.44957e-09
5.82195e-09
8.22843e-09
7.04081e-09
6.92683e-09
7.41455e-09
1.00034e-08
7.00499e-09
7.18592e-09
8.63604e-09
8.58754e-09
7.5628e-09
9.82322e-09
7.07484e-09
7.1174e-09
8.63372e-09
8.31147e-09
7.29159e-09
8.17681e-09
9.1333e-09
8.20106e-09
9.60205e-09
7.3349e-09
9.95162e-09
9.12493e-09
9.9535e-09
1.10621e-08
1.63579e-08
9.40598e-09
9.28646e-09
1.1973e-08
1.21143e-08
1.06792e-08
1.66105e-08
9.42756e-09
9.11563e-09
1.19714e-08
1.19795e-08
1.01119e-08
1.17297e-08
1.21702e-08
1.05524e-08
1.67648e-08
1.04166e-08
1.33118e-08
1.2455e-08
1.62893e-08
1.78446e-08
2.71115e-08
1.27447e-08
1.30575e-08
1.70521e-08
1.65845e-08
1.83399e-08
2.60217e-08
1.27032e-08
1.27052e-08
1.70284e-08
1.68852e-08
1.35143e-08
1.60182e-08
1.73205e-08
1.83207e-08
2.7366e-08
1.40034e-08
1.88608e-08
1.82068e-08
2.78476e-08
3.03204e-08
4.12156e-08
1.81111e-08
1.80977e-08
2.28169e-08
2.23872e-08
2.92288e-08
4.22229e-08
1.81529e-08
1.85857e-08
2.28497e-08
2.18431e-08
1.7871e-08
2.19443e-08
2.42126e-08
3.11935e-08
3.97752e-08
1.90241e-08
2.36213e-08
2.77205e-08
4.8305e-08
4.72837e-08
6.77758e-08
2.54952e-08
2.39387e-08
3.11771e-08
3.32456e-08
4.64036e-08
7.35119e-08
2.53171e-08
2.35155e-08
3.08745e-08
3.20446e-08
2.75899e-08
3.24603e-08
3.09809e-08
4.23552e-08
7.22652e-08
3.00282e-08
3.37603e-08
3.1216e-08
5.96072e-08
7.12684e-08
9.93766e-08
3.28747e-08
3.5613e-08
4.18238e-08
3.97282e-08
8.13392e-08
9.36539e-08
3.2822e-08
3.52048e-08
4.22766e-08
4.14651e-08
3.13138e-08
3.89172e-08
4.19601e-08
8.22787e-08
1.01752e-07
3.13894e-08
4.17849e-08
4.48934e-08
1.05124e-07
1.10197e-07
1.51624e-07
4.53318e-08
4.25627e-08
5.60465e-08
5.66634e-08
9.81526e-08
1.55336e-07
4.57312e-08
4.3088e-08
5.57382e-08
5.45887e-08
5.06383e-08
5.65696e-08
6.01663e-08
1.04964e-07
1.39138e-07
5.37157e-08
5.55525e-08
6.24916e-08
1.84239e-07
1.61259e-07
2.04729e-07
5.97874e-08
6.10817e-08
7.14209e-08
7.31082e-08
1.71475e-07
2.13138e-07
5.93819e-08
6.0154e-08
7.12122e-08
7.31297e-08
6.05785e-08
7.18889e-08
6.64189e-08
1.56211e-07
2.2036e-07
6.27456e-08
7.27524e-08
6.73852e-08
1.75344e-07
2.17354e-07
2.75417e-07
7.58563e-08
7.61551e-08
9.09768e-08
8.9767e-08
2.21154e-07
2.71764e-07
7.58683e-08
7.63476e-08
9.10393e-08
8.97831e-08
7.44221e-08
8.85683e-08
9.1356e-08
2.30106e-07
2.67815e-07
7.48147e-08
9.11596e-08
9.10465e-08
2.90057e-07
2.90575e-07
3.51901e-07
9.62988e-08
9.64731e-08
1.13395e-07
1.15331e-07
2.89492e-07
3.46261e-07
9.61996e-08
9.58706e-08
1.12984e-07
1.12838e-07
9.45192e-08
1.14121e-07
1.11759e-07
2.82986e-07
3.51147e-07
9.42734e-08
1.12214e-07
1.0972e-07
3.38357e-07
3.6762e-07
4.29546e-07
1.19413e-07
1.18971e-07
1.3863e-07
1.32402e-07
3.59495e-07
4.19337e-07
1.19201e-07
1.18056e-07
1.3866e-07
1.39485e-07
1.18899e-07
1.31682e-07
1.3958e-07
3.66974e-07
4.28862e-07
1.1715e-07
1.40011e-07
1.40159e-07
4.35225e-07
4.45319e-07
5.03811e-07
1.45124e-07
1.45876e-07
1.67557e-07
1.81391e-07
4.42325e-07
5.46547e-07
1.45092e-07
1.46905e-07
1.66951e-07
1.65829e-07
1.44723e-07
1.80261e-07
1.62762e-07
4.45322e-07
5.05607e-07
1.45388e-07
1.64967e-07
1.61608e-07
4.96463e-07
5.19625e-07
5.7406e-07
1.7625e-07
1.86225e-07
1.97562e-07
1.91412e-07
5.54122e-07
5.51391e-07
1.75118e-07
1.73864e-07
1.97556e-07
2.01062e-07
1.73227e-07
1.90808e-07
2.05363e-07
5.20916e-07
5.69017e-07
1.71487e-07
1.99135e-07
2.04203e-07
5.85809e-07
5.88864e-07
6.36771e-07
2.05631e-07
1.93627e-07
2.34953e-07
2.2576e-07
5.54779e-07
6.27167e-07
2.05884e-07
2.07722e-07
2.33927e-07
2.24619e-07
2.12846e-07
2.24624e-07
2.2644e-07
5.81522e-07
6.3258e-07
2.12077e-07
2.264e-07
2.25905e-07
6.29712e-07
6.50218e-07
6.92134e-07
2.42047e-07
2.44735e-07
2.67209e-07
2.83638e-07
6.56847e-07
7.07669e-07
2.41792e-07
2.36934e-07
2.68158e-07
2.83303e-07
2.33225e-07
2.8174e-07
2.76211e-07
6.50746e-07
7.10021e-07
2.32321e-07
2.85686e-07
2.72403e-07
6.97388e-07
7.06749e-07
7.52488e-07
2.81355e-07
2.9011e-07
3.18218e-07
3.02934e-07
7.14926e-07
7.39894e-07
2.80392e-07
2.9405e-07
3.14452e-07
3.11515e-07
2.90515e-07
3.02529e-07
3.15374e-07
7.21416e-07
7.3965e-07
2.8658e-07
3.15311e-07
3.11532e-07
7.52819e-07
7.63774e-07
7.9147e-07
3.25695e-07
3.08789e-07
3.53444e-07
3.57567e-07
7.53382e-07
7.99025e-07
3.24027e-07
3.15056e-07
3.54416e-07
3.44787e-07
3.20952e-07
3.6e-07
3.57463e-07
7.47875e-07
7.84833e-07
3.18964e-07
3.38133e-07
3.58501e-07
8.01097e-07
8.02138e-07
8.33063e-07
3.64877e-07
3.77286e-07
4.00937e-07
4.12643e-07
8.10613e-07
8.32963e-07
3.6407e-07
3.63558e-07
3.96429e-07
4.05446e-07
3.71659e-07
3.97924e-07
3.97863e-07
8.0051e-07
8.40036e-07
3.72084e-07
4.04031e-07
3.98635e-07
8.17315e-07
8.4314e-07
8.69474e-07
4.12857e-07
4.19194e-07
4.39833e-07
4.31743e-07
8.41242e-07
8.64381e-07
4.0909e-07
4.12897e-07
4.4306e-07
4.42034e-07
4.03653e-07
4.34076e-07
4.21755e-07
8.48476e-07
8.67794e-07
4.0479e-07
4.41318e-07
4.20288e-07
8.62788e-07
8.79769e-07
9.0936e-07
4.4961e-07
4.38546e-07
4.94943e-07
4.83532e-07
8.73922e-07
9.05736e-07
4.53294e-07
4.54241e-07
4.92734e-07
4.9177e-07
4.39836e-07
4.88036e-07
5.28735e-07
8.77e-07
9.05158e-07
4.32479e-07
4.88562e-07
5.31832e-07
9.57439e-07
9.18559e-07
9.39697e-07
5.11671e-07
5.00024e-07
5.45831e-07
5.64109e-07
9.17759e-07
9.67573e-07
5.07693e-07
5.04356e-07
5.40237e-07
5.47419e-07
5.46892e-07
5.62298e-07
5.63667e-07
9.16102e-07
9.51154e-07
5.57594e-07
5.51161e-07
5.76426e-07
9.37439e-07
9.48563e-07
9.78813e-07
5.52957e-07
5.80776e-07
5.92308e-07
5.93614e-07
9.76171e-07
9.49354e-07
5.51426e-07
5.63345e-07
6.00503e-07
5.96705e-07
5.63447e-07
5.91696e-07
5.61844e-07
9.60433e-07
9.68929e-07
5.74384e-07
5.92908e-07
5.47642e-07
9.2962e-07
9.86918e-07
9.93898e-07
6.08111e-07
5.93364e-07
6.37683e-07
6.02396e-07
9.48682e-07
9.6055e-07
6.14809e-07
6.02478e-07
6.3798e-07
6.15482e-07
5.65255e-07
5.9869e-07
6.00284e-07
9.71529e-07
9.7621e-07
5.47141e-07
6.06397e-07
5.67904e-07
9.86859e-07
9.98011e-07
1.02222e-06
6.43231e-07
6.16639e-07
6.72242e-07
7.21439e-07
9.86359e-07
1.10108e-06
6.42262e-07
6.25038e-07
6.67258e-07
6.91515e-07
6.29083e-07
7.29719e-07
7.1685e-07
9.85136e-07
1.04596e-06
6.01789e-07
6.93301e-07
7.3865e-07
1.06902e-06
1.0365e-06
1.07479e-06
6.93896e-07
7.39823e-07
7.5169e-07
7.51531e-07
1.10624e-06
1.05246e-06
6.87306e-07
7.13877e-07
7.47537e-07
7.50975e-07
7.35212e-07
7.53758e-07
7.58916e-07
1.05973e-06
1.0735e-06
7.63884e-07
7.54472e-07
7.90801e-07
1.09275e-06
1.07923e-06
1.07525e-06
7.60093e-07
7.51086e-07
7.707e-07
7.46967e-07
1.05117e-06
1.03827e-06
7.58565e-07
7.56045e-07
7.73803e-07
7.66485e-07
7.59027e-07
7.35458e-07
7.53464e-07
1.07541e-06
1.06975e-06
7.90719e-07
7.67163e-07
7.68419e-07
1.05873e-06
1.07738e-06
1.0963e-06
7.72694e-07
7.49058e-07
7.93381e-07
7.75975e-07
1.04439e-06
1.08928e-06
7.76446e-07
7.71049e-07
7.9889e-07
7.99127e-07
7.54088e-07
7.71861e-07
7.85425e-07
1.07397e-06
1.09688e-06
7.64461e-07
7.93574e-07
7.73862e-07
1.08818e-06
1.10922e-06
1.15811e-06
8.1284e-07
8.07586e-07
8.73148e-07
8.92175e-07
1.11154e-06
1.19222e-06
8.16468e-07
8.14248e-07
8.66649e-07
8.65207e-07
8.12998e-07
9.03861e-07
8.8229e-07
1.10766e-06
1.15009e-06
7.96078e-07
8.62171e-07
8.78146e-07
1.16845e-06
1.166e-06
1.1746e-06
8.87424e-07
9.03885e-07
9.09243e-07
9.17166e-07
1.19953e-06
1.19307e-06
8.80637e-07
8.80482e-07
9.09289e-07
9.13318e-07
8.93416e-07
9.28082e-07
9.06146e-07
1.16018e-06
1.17962e-06
8.92629e-07
9.12096e-07
9.10279e-07
1.17149e-06
1.17655e-06
1.1723e-06
9.12509e-07
9.1738e-07
9.1927e-07
9.15974e-07
1.19305e-06
1.16757e-06
9.1397e-07
9.1877e-07
9.22695e-07
9.26995e-07
9.07148e-07
9.19033e-07
9.11987e-07
1.18291e-06
1.17858e-06
9.12756e-07
9.27347e-07
9.20353e-07
1.16544e-06
1.17563e-06
1.20757e-06
9.22378e-07
9.17812e-07
9.56204e-07
9.48476e-07
1.1689e-06
1.19874e-06
9.25636e-07
9.28737e-07
9.53614e-07
9.48444e-07
9.16206e-07
9.40388e-07
9.61307e-07
1.1801e-06
1.20102e-06
9.24252e-07
9.46946e-07
9.66045e-07
1.22327e-06
1.22002e-06
1.25097e-06
9.71969e-07
9.68773e-07
1.00736e-06
1.00488e-06
1.21409e-06
1.25009e-06
9.67603e-07
9.66842e-07
1.00666e-06
1.0117e-06
9.81414e-07
1.00718e-06
1.01268e-06
1.21502e-06
1.25572e-06
9.84997e-07
1.01185e-06
1.01365e-06
1.26117e-06
1.25658e-06
1.25998e-06
1.01517e-06
1.00916e-06
1.02674e-06
1.0181e-06
1.25382e-06
1.25284e-06
1.01601e-06
1.01681e-06
1.0278e-06
1.02071e-06
1.01618e-06
1.0245e-06
1.02013e-06
1.25888e-06
1.24569e-06
1.017e-06
1.02015e-06
1.01768e-06
1.2426e-06
1.26093e-06
1.25486e-06
1.02856e-06
1.021e-06
1.03338e-06
1.03408e-06
1.2544e-06
1.26222e-06
1.029e-06
1.02217e-06
1.03302e-06
1.03178e-06
1.02012e-06
1.03339e-06
1.02431e-06
1.24658e-06
1.25457e-06
1.01657e-06
1.0278e-06
1.02081e-06
1.23766e-06
1.25917e-06
1.3039e-06
1.03658e-06
1.04525e-06
1.07427e-06
1.08481e-06
1.27047e-06
1.31705e-06
1.03636e-06
1.0398e-06
1.07452e-06
1.08528e-06
1.03019e-06
1.08403e-06
1.09381e-06
1.26419e-06
1.32177e-06
1.02888e-06
1.08755e-06
1.09953e-06
1.33626e-06
1.31687e-06
1.33156e-06
1.09011e-06
1.09191e-06
1.11079e-06
1.09523e-06
1.32305e-06
1.3065e-06
1.09016e-06
1.09788e-06
1.11077e-06
1.11083e-06
1.10872e-06
1.09695e-06
1.11367e-06
1.33359e-06
1.33839e-06
1.11161e-06
1.11341e-06
1.11128e-06
1.33478e-06
1.33224e-06
1.31468e-06
1.11082e-06
1.09519e-06
1.10821e-06
1.10226e-06
1.30614e-06
1.30477e-06
1.1108e-06
1.11019e-06
1.10651e-06
1.09738e-06
1.10823e-06
1.10084e-06
1.09363e-06
1.3372e-06
1.29216e-06
1.10214e-06
1.09426e-06
1.09054e-06
1.28944e-06
1.31594e-06
1.3386e-06
1.10857e-06
1.1079e-06
1.12239e-06
1.13931e-06
1.31372e-06
1.36296e-06
1.1065e-06
1.09683e-06
1.12001e-06
1.11254e-06
1.09426e-06
1.13755e-06
1.11676e-06
1.29275e-06
1.32757e-06
1.09239e-06
1.11464e-06
1.13166e-06
1.33724e-06
1.35148e-06
1.38605e-06
1.13499e-06
1.15201e-06
1.17026e-06
1.17877e-06
1.37571e-06
1.4063e-06
1.13531e-06
1.13427e-06
1.17285e-06
1.18241e-06
1.13378e-06
1.17948e-06
1.17889e-06
1.34868e-06
1.40403e-06
1.15141e-06
1.1819e-06
1.18262e-06
1.40558e-06
1.3892e-06
1.37421e-06
1.17532e-06
1.1798e-06
1.17681e-06
1.16725e-06
1.40859e-06
1.3524e-06
1.17665e-06
1.18514e-06
1.17618e-06
1.17989e-06
1.1851e-06
1.16785e-06
1.1853e-06
1.40662e-06
1.37913e-06
1.18337e-06
1.1753e-06
1.17671e-06
1.38731e-06
1.37418e-06
1.36386e-06
1.17494e-06
1.15474e-06
1.17039e-06
1.14518e-06
1.34582e-06
1.31346e-06
1.17348e-06
1.1739e-06
1.1703e-06
1.16716e-06
1.18075e-06
1.1453e-06
1.16653e-06
1.3776e-06
1.35865e-06
1.16819e-06
1.16548e-06
1.15455e-06
1.34343e-06
1.36825e-06
1.40198e-06
1.17092e-06
1.14762e-06
1.1922e-06
1.19832e-06
1.32052e-06
1.41315e-06
1.17115e-06
1.16782e-06
1.19199e-06
1.18858e-06
1.16645e-06
1.19512e-06
1.18089e-06
1.3614e-06
1.39485e-06
1.15472e-06
1.18512e-06
1.17615e-06
1.38553e-06
1.41259e-06
1.43274e-06
1.20482e-06
1.22147e-06
1.22809e-06
1.25999e-06
1.43625e-06
1.49098e-06
1.20403e-06
1.20207e-06
1.227e-06
1.22998e-06
1.1978e-06
1.26149e-06
1.2379e-06
1.40755e-06
1.43665e-06
1.19739e-06
1.23217e-06
1.2439e-06
1.45477e-06
1.437e-06
1.44463e-06
1.23328e-06
1.26223e-06
1.24514e-06
1.25619e-06
1.49499e-06
1.45944e-06
1.23149e-06
1.23415e-06
1.24278e-06
1.24016e-06
1.24271e-06
1.25757e-06
1.24341e-06
1.44088e-06
1.44299e-06
1.24959e-06
1.24654e-06
1.25083e-06
1.44637e-06
1.44676e-06
1.43085e-06
1.24591e-06
1.24492e-06
1.24123e-06
1.21542e-06
1.45378e-06
1.38656e-06
1.24423e-06
1.24146e-06
1.24218e-06
1.24424e-06
1.24102e-06
1.21323e-06
1.2285e-06
1.44471e-06
1.43915e-06
1.24855e-06
1.24573e-06
1.23193e-06
1.41515e-06
1.43055e-06
1.42249e-06
1.23645e-06
1.21286e-06
1.2329e-06
1.21718e-06
1.38648e-06
1.39902e-06
1.23885e-06
1.24409e-06
1.23602e-06
1.24177e-06
1.22758e-06
1.21672e-06
1.23201e-06
1.43991e-06
1.43117e-06
1.22984e-06
1.23845e-06
1.23181e-06
1.42723e-06
1.42777e-06
1.46125e-06
1.23432e-06
1.22622e-06
1.26043e-06
1.26452e-06
1.41174e-06
1.46667e-06
1.23712e-06
1.24177e-06
1.25901e-06
1.25196e-06
1.24065e-06
1.26765e-06
1.26817e-06
1.43322e-06
1.45047e-06
1.23789e-06
1.25479e-06
1.26402e-06
1.46834e-06
1.46836e-06
1.47444e-06
1.26883e-06
1.27368e-06
1.2798e-06
1.28825e-06
1.47615e-06
1.49172e-06
1.2667e-06
1.25982e-06
1.27707e-06
1.27321e-06
1.2725e-06
1.28729e-06
1.27618e-06
1.457e-06
1.46469e-06
1.26849e-06
1.27153e-06
1.2731e-06
1.47044e-06
1.47615e-06
1.47714e-06
1.28109e-06
1.28946e-06
1.28388e-06
1.28753e-06
1.49439e-06
1.48346e-06
1.27835e-06
1.27482e-06
1.28155e-06
1.28075e-06
1.27677e-06
1.2855e-06
1.27956e-06
1.46681e-06
1.47579e-06
1.27408e-06
1.28009e-06
1.27823e-06
1.47302e-06
1.48001e-06
1.48529e-06
1.28473e-06
1.28361e-06
1.28793e-06
1.27911e-06
1.48306e-06
1.46714e-06
1.28292e-06
1.28481e-06
1.29032e-06
1.29737e-06
1.28112e-06
1.27829e-06
1.28858e-06
1.48253e-06
1.49917e-06
1.28116e-06
1.2982e-06
1.2921e-06
1.4865e-06
1.48761e-06
1.48741e-06
1.28862e-06
1.27955e-06
1.29047e-06
1.29473e-06
1.46916e-06
1.49477e-06
1.29215e-06
1.29847e-06
1.29358e-06
1.29634e-06
1.29013e-06
1.29529e-06
1.29167e-06
1.50145e-06
1.48989e-06
1.29353e-06
1.29587e-06
1.29375e-06
1.48743e-06
1.48995e-06
1.49887e-06
1.29257e-06
1.30184e-06
1.30374e-06
1.31042e-06
1.504e-06
1.51541e-06
1.29411e-06
1.29524e-06
1.29969e-06
1.2953e-06
1.29285e-06
1.3109e-06
1.30482e-06
1.49063e-06
1.48798e-06
1.29393e-06
1.29485e-06
1.3006e-06
1.50047e-06
1.50244e-06
1.5021e-06
1.3065e-06
1.31021e-06
1.30736e-06
1.3022e-06
1.51633e-06
1.49119e-06
1.30176e-06
1.29653e-06
1.30497e-06
1.30459e-06
1.30815e-06
1.30317e-06
1.30936e-06
1.49148e-06
1.50175e-06
1.30388e-06
1.30569e-06
1.30774e-06
1.50564e-06
1.50322e-06
1.50057e-06
1.30624e-06
1.2988e-06
1.30413e-06
1.29632e-06
1.49109e-06
1.48485e-06
1.30499e-06
1.30717e-06
1.3054e-06
1.3093e-06
1.30795e-06
1.29601e-06
1.30286e-06
1.50524e-06
1.50622e-06
1.30745e-06
1.30924e-06
1.30504e-06
1.49771e-06
1.50391e-06
1.51428e-06
1.30433e-06
1.29721e-06
1.31293e-06
1.31492e-06
1.48971e-06
1.51818e-06
1.30702e-06
1.30935e-06
1.31516e-06
1.31334e-06
1.30279e-06
1.31344e-06
1.30987e-06
1.50786e-06
1.51225e-06
1.30505e-06
1.31166e-06
1.31185e-06
1.51148e-06
1.51759e-06
1.51691e-06
1.31642e-06
1.32055e-06
1.31975e-06
1.32463e-06
1.52471e-06
1.52722e-06
1.31638e-06
1.31602e-06
1.31641e-06
1.31776e-06
1.31565e-06
1.32429e-06
1.32201e-06
1.51608e-06
1.51796e-06
1.31606e-06
1.31854e-06
1.32027e-06
1.52242e-06
1.51821e-06
1.5167e-06
1.31965e-06
1.32397e-06
1.31781e-06
1.31635e-06
1.52801e-06
1.5142e-06
1.31607e-06
1.31695e-06
1.31669e-06
1.31402e-06
1.32173e-06
1.31707e-06
1.31683e-06
1.51896e-06
1.51156e-06
1.31988e-06
1.31479e-06
1.31524e-06
1.51334e-06
1.51852e-06
1.51673e-06
1.31692e-06
1.31403e-06
1.31538e-06
1.31176e-06
1.51499e-06
1.50983e-06
1.31712e-06
1.31406e-06
1.31739e-06
1.32075e-06
1.31601e-06
1.31356e-06
1.31664e-06
1.51318e-06
1.52353e-06
1.31469e-06
1.31873e-06
1.31627e-06
1.51888e-06
1.51893e-06
1.52586e-06
1.31554e-06
1.31211e-06
1.32261e-06
1.32342e-06
1.51271e-06
1.52747e-06
1.31803e-06
1.3235e-06
1.32271e-06
1.32437e-06
1.31885e-06
1.32367e-06
1.32454e-06
1.52806e-06
1.52749e-06
1.31978e-06
1.32421e-06
1.32499e-06
1.53002e-06
1.52861e-06
1.52518e-06
1.32444e-06
1.32679e-06
1.32428e-06
1.32757e-06
1.53254e-06
1.53265e-06
1.32292e-06
1.32299e-06
1.32074e-06
1.31725e-06
1.32454e-06
1.32674e-06
1.3205e-06
1.52817e-06
1.51668e-06
1.32478e-06
1.31779e-06
1.31895e-06
1.51973e-06
1.52634e-06
1.52413e-06
1.32276e-06
1.32557e-06
1.31979e-06
1.31649e-06
1.53329e-06
1.51725e-06
1.31973e-06
1.31686e-06
1.31934e-06
1.31932e-06
1.31853e-06
1.31572e-06
1.31663e-06
1.51802e-06
1.5249e-06
1.3173e-06
1.31855e-06
1.31659e-06
1.51899e-06
1.52641e-06
1.52388e-06
1.31942e-06
1.31498e-06
1.31757e-06
1.31431e-06
1.51819e-06
1.51736e-06
1.32017e-06
1.32207e-06
1.32017e-06
1.32382e-06
1.3169e-06
1.31433e-06
1.32226e-06
1.52931e-06
1.53194e-06
1.31748e-06
1.32402e-06
1.32359e-06
1.53203e-06
1.52507e-06
1.52401e-06
1.31692e-06
1.3149e-06
1.31726e-06
1.32261e-06
1.52117e-06
1.53379e-06
1.31903e-06
1.32307e-06
1.31752e-06
1.31918e-06
1.32308e-06
1.32341e-06
1.32206e-06
1.53307e-06
1.52633e-06
1.32385e-06
1.31988e-06
1.32144e-06
1.52939e-06
1.52757e-06
1.53137e-06
1.31918e-06
1.32434e-06
1.3212e-06
1.32434e-06
1.53771e-06
1.53689e-06
1.31781e-06
1.31849e-06
1.3194e-06
1.31676e-06
1.32031e-06
1.32342e-06
1.31431e-06
1.52765e-06
1.52412e-06
1.31928e-06
1.31546e-06
1.31257e-06
1.51848e-06
1.53273e-06
1.52353e-06
1.32062e-06
1.32278e-06
1.31427e-06
1.31284e-06
1.53776e-06
1.52002e-06
1.31907e-06
1.31604e-06
1.31411e-06
1.31304e-06
1.31321e-06
1.31257e-06
1.31335e-06
1.52548e-06
1.52236e-06
1.31166e-06
1.31291e-06
1.3129e-06
1.52403e-06
1.52467e-06
1.52021e-06
1.31243e-06
1.30907e-06
1.30861e-06
1.30054e-06
1.52019e-06
1.50446e-06
1.31277e-06
1.31271e-06
1.30964e-06
1.31244e-06
1.31471e-06
1.3011e-06
1.31442e-06
1.52458e-06
1.52662e-06
1.31545e-06
1.31398e-06
1.3163e-06
1.53085e-06
1.52151e-06
1.51597e-06
1.30728e-06
1.29958e-06
1.30363e-06
1.3024e-06
1.50559e-06
1.51689e-06
1.30858e-06
1.31185e-06
1.30401e-06
1.3061e-06
1.31242e-06
1.30299e-06
1.30381e-06
1.52815e-06
1.51865e-06
1.31469e-06
1.30606e-06
1.30366e-06
1.51494e-06
1.51747e-06
1.52331e-06
1.30366e-06
1.30888e-06
1.30738e-06
1.31793e-06
1.52619e-06
1.54635e-06
1.30342e-06
1.30438e-06
1.30475e-06
1.30104e-06
1.30287e-06
1.31762e-06
1.30332e-06
1.51962e-06
1.51463e-06
1.30162e-06
1.30023e-06
1.30028e-06
1.51605e-06
1.52629e-06
1.52052e-06
1.30765e-06
1.31761e-06
1.30361e-06
1.30141e-06
1.54818e-06
1.51386e-06
1.30507e-06
1.30069e-06
1.30219e-06
1.29999e-06
1.30367e-06
1.30042e-06
1.30112e-06
1.51627e-06
1.51707e-06
1.30047e-06
1.29952e-06
1.30052e-06
1.51913e-06
1.52099e-06
1.50346e-06
1.29952e-06
1.29291e-06
1.28634e-06
1.27774e-06
1.51143e-06
1.48533e-06
1.2995e-06
1.29964e-06
1.28886e-06
1.29591e-06
1.29934e-06
1.27822e-06
1.29187e-06
1.51922e-06
1.51854e-06
1.2998e-06
1.29685e-06
1.29515e-06
1.51365e-06
1.50443e-06
1.50221e-06
1.2841e-06
1.27686e-06
1.28235e-06
1.27876e-06
1.48666e-06
1.49752e-06
1.28697e-06
1.29485e-06
1.28344e-06
1.28558e-06
1.28972e-06
1.2788e-06
1.28164e-06
1.51986e-06
1.50519e-06
1.29366e-06
1.28571e-06
1.2827e-06
1.49983e-06
1.50525e-06
1.50704e-06
1.28293e-06
1.28295e-06
1.28404e-06
1.28977e-06
1.50414e-06
1.52006e-06
1.28318e-06
1.2817e-06
1.28067e-06
1.27126e-06
1.28005e-06
1.28954e-06
1.2782e-06
1.50501e-06
1.48637e-06
1.28005e-06
1.27057e-06
1.27466e-06
1.49593e-06
1.50841e-06
1.50132e-06
1.28336e-06
1.28994e-06
1.27724e-06
1.28513e-06
1.5233e-06
1.51731e-06
1.27963e-06
1.27049e-06
1.27471e-06
1.27397e-06
1.27893e-06
1.28603e-06
1.28105e-06
1.48766e-06
1.49976e-06
1.27471e-06
1.27433e-06
1.27846e-06
1.50893e-06
1.50248e-06
1.48605e-06
1.27587e-06
1.28272e-06
1.26305e-06
1.25944e-06
1.51773e-06
1.47712e-06
1.2741e-06
1.27797e-06
1.26662e-06
1.27781e-06
1.28094e-06
1.26004e-06
1.27093e-06
1.50705e-06
1.51036e-06
1.2793e-06
1.27883e-06
1.2744e-06
1.49877e-06
1.48587e-06
1.4543e-06
1.25978e-06
1.25306e-06
1.22965e-06
1.22147e-06
1.47458e-06
1.43497e-06
1.26373e-06
1.27488e-06
1.23164e-06
1.22919e-06
1.26512e-06
1.22028e-06
1.22303e-06
1.51051e-06
1.44967e-06
1.26988e-06
1.22793e-06
1.22467e-06
1.4424e-06
1.43647e-06
1.19433e-06
1.18692e-06
1.41956e-06
1.19525e-06
1.19006e-06
7.50563e-07
7.52052e-07
7.50441e-07
1.18648e-06
1.42732e-06
1.18695e-06
1.24995e-09
2.72298e-09
7.52024e-10
8.72711e-10
1.77978e-09
3.63751e-09
2.20993e-09
7.17761e-10
1.88054e-09
4.27464e-09
1.0523e-09
5.37939e-09
5.01165e-09
6.07055e-09
2.54325e-08
7.47362e-09
1.7791e-07
5.87865e-09
2.71352e-07
1.45778e-06
2.91465e-06
8.67142e-09
2.49313e-07
7.26704e-09
3.70994e-07
1.44402e-09
1.93944e-09
2.0652e-09
1.71757e-09
1.42317e-09
1.92939e-09
2.05972e-09
1.76352e-09
7.35115e-08
1.15594e-09
3.1363e-09
1.79799e-09
5.26301e-08
1.14451e-09
1.55489e-06
3.10858e-06
1.86254e-09
1.94152e-09
7.66841e-08
4.49021e-09
1.89809e-09
1.92453e-09
5.45722e-08
2.12995e-07
2.29248e-07
4.63658e-09
1.82524e-07
1.9951e-07
1.68718e-08
4.79269e-07
1.20043e-08
6.81216e-07
6.72252e-06
9.66529e-06
1.79025e-08
6.92735e-07
1.32675e-08
9.66545e-07
1.40828e-09
1.91149e-09
2.04032e-09
1.62162e-09