/*--------------------------------*- C++ -*----------------------------------*\
| =========                 |                                                 |
| \\      /  F ield         | OpenFOAM: The Open Source CFD Toolbox           |
|  \\    /   O peration     | Version:  v2012                                 |
|   \\  /    A nd           | Website:  www.openfoam.com                      |
|    \\/     M anipulation  |                                                 |
\*---------------------------------------------------------------------------*/
FoamFile
{
    version     2.0;
    format      ascii;
    class       volScalarField;
    location    "600";
    object      k;
}
// * * * * * * * * * * * * * * * * * * * * * * * * * * * * * * * * * * * * * //

dimensions      [0 2 -2 0 0 0 0];


internalField   nonuniform List<scalar> 
171728
(
2.30331e-07
2.45831e-07
2.98771e-07
3.52179e-07
2.28037e-07
2.33841e-07
2.93481e-07
3.33099e-07
2.22402e-07
2.22989e-07
2.84801e-07
3.28238e-07
2.14241e-07
2.13561e-07
2.72777e-07
3.15194e-07
2.06541e-07
2.04103e-07
2.60302e-07
2.97158e-07
2.0136e-07
1.94364e-07
2.48782e-07
2.91896e-07
1.9768e-07
1.84508e-07
2.40105e-07
2.93119e-07
1.95323e-07
1.76275e-07
2.32004e-07
3.06104e-07
1.90128e-07
1.70618e-07
2.24719e-07
3.27001e-07
1.81757e-07
1.66281e-07
2.16688e-07
3.41234e-07
1.76358e-07
1.62154e-07
2.0855e-07
3.39303e-07
1.73416e-07
1.59258e-07
2.03488e-07
2.53336e-07
1.7137e-07
1.57287e-07
2.03782e-07
2.43347e-07
1.69624e-07
1.56721e-07
2.07701e-07
2.47089e-07
1.68057e-07
1.58196e-07
2.24648e-07
2.47786e-07
1.6659e-07
1.63618e-07
2.6002e-07
2.30688e-07
1.65268e-07
1.73944e-07
3.1795e-07
2.22945e-07
1.64002e-07
1.922e-07
3.85363e-07
2.3632e-07
1.62797e-07
2.24383e-07
4.35362e-07
2.64768e-07
1.618e-07
2.79652e-07
4.7571e-07
3.3804e-07
1.60976e-07
3.43162e-07
4.91195e-07
4.74544e-07
1.60276e-07
4.67517e-07
5.87612e-07
6.98639e-07
1.60469e-07
6.43876e-07
8.2677e-07
1.13331e-06
1.61725e-07
8.3959e-07
9.2551e-07
2.24037e-06
1.63424e-07
1.27813e-06
1.39966e-06
2.12326e-06
1.68735e-07
1.46282e-06
1.58848e-06
4.95716e-06
1.76137e-07
2.21889e-06
2.22358e-06
6.98073e-06
1.85898e-07
2.78365e-06
2.83189e-06
6.35585e-06
2.03171e-07
3.45238e-06
3.55336e-06
1.04973e-05
2.26101e-07
4.42163e-06
4.3257e-06
1.1958e-05
2.61823e-07
5.20219e-06
5.55615e-06
1.52225e-05
3.1566e-07
7.20852e-06
6.39371e-06
1.70207e-05
3.66626e-07
7.25962e-06
7.76855e-06
2.00903e-05
4.73971e-07
8.96491e-06
8.8474e-06
2.10886e-05
5.74216e-07
1.11272e-05
1.16383e-05
2.3624e-05
7.64762e-07
1.16432e-05
1.22044e-05
2.53245e-05
9.67678e-07
1.4334e-05
1.29439e-05
2.68504e-05
1.18091e-06
1.52657e-05
1.57789e-05
2.70477e-05
1.43554e-06
1.67586e-05
1.71632e-05
2.893e-05
1.90601e-06
1.87065e-05
1.8836e-05
3.32722e-05
2.37033e-06
2.22882e-05
2.17441e-05
3.18851e-05
2.99495e-06
2.24166e-05
2.25477e-05
3.0563e-05
3.60412e-06
2.24369e-05
2.26377e-05
3.32448e-05
3.78373e-06
2.93193e-05
2.74319e-05
3.76411e-05
5.63024e-06
2.95335e-05
2.92636e-05
3.79706e-05
6.13639e-06
2.67368e-05
2.8909e-05
3.57858e-05
6.17138e-06
2.85494e-05
2.98863e-05
3.73776e-05
8.37394e-06
3.62621e-05
3.31768e-05
4.09873e-05
1.03217e-05
3.67039e-05
3.51799e-05
4.06884e-05
1.05854e-05
3.45555e-05
3.52304e-05
4.01038e-05
1.08498e-05
3.53409e-05
3.59099e-05
4.30856e-05
1.40138e-05
3.92157e-05
3.92071e-05
4.4473e-05
1.6174e-05
3.94662e-05
3.90571e-05
4.32157e-05
1.62862e-05
3.95112e-05
3.90167e-05
4.30589e-05
1.67877e-05
4.2329e-05
4.28678e-05
4.79082e-05
2.11796e-05
4.26627e-05
4.37518e-05
4.74662e-05
2.20992e-05
4.24373e-05
4.21031e-05
4.51863e-05
2.19642e-05
4.48636e-05
4.32244e-05
4.78355e-05
2.43638e-05
4.72059e-05
4.71802e-05
5.08523e-05
2.72598e-05
4.56728e-05
4.66662e-05
4.96582e-05
2.70158e-05
4.41643e-05
4.55282e-05
4.75551e-05
2.69689e-05
4.77201e-05
4.67551e-05
5.00016e-05
3.03622e-05
5.19225e-05
4.9881e-05
5.32543e-05
3.2482e-05
5.13729e-05
5.05242e-05
5.27012e-05
3.286e-05
4.7956e-05
4.99942e-05
5.09834e-05
3.26131e-05
4.7994e-05
4.95709e-05
5.17768e-05
3.31742e-05
5.16773e-05
5.08606e-05
5.38695e-05
3.58398e-05
5.30445e-05
5.17691e-05
5.39008e-05
3.71148e-05
5.26599e-05
5.2371e-05
5.39649e-05
3.77115e-05
5.22173e-05
5.35294e-05
5.47349e-05
3.8318e-05
5.35265e-05
5.34835e-05
5.48096e-05
3.9452e-05
5.45463e-05
5.34279e-05
5.55958e-05
4.02691e-05
5.39847e-05
5.41759e-05
5.58338e-05
4.06597e-05
5.36452e-05
5.4606e-05
5.552e-05
4.16809e-05
5.51248e-05
5.50116e-05
5.63893e-05
4.24196e-05
5.58407e-05
5.54422e-05
5.68939e-05
4.30172e-05
5.55315e-05
5.54121e-05
5.65857e-05
4.33986e-05
5.54357e-05
5.59176e-05
5.6984e-05
4.40527e-05
5.63772e-05
5.62914e-05
5.75729e-05
4.46698e-05
5.66608e-05
5.61079e-05
5.71859e-05
4.49353e-05
5.62247e-05
5.63828e-05
5.72808e-05
4.52169e-05
5.62553e-05
5.69636e-05
5.80738e-05
4.55338e-05
5.72301e-05
5.69165e-05
5.80249e-05
4.61411e-05
5.74154e-05
5.68e-05
5.75933e-05
4.62994e-05
5.67863e-05
5.69428e-05
5.80707e-05
4.61903e-05
5.631e-05
5.72417e-05
5.84466e-05
4.6208e-05
5.71096e-05
5.70132e-05
5.78289e-05
4.67978e-05
5.81128e-05
5.68652e-05
5.80118e-05
4.69988e-05
5.70963e-05
5.7194e-05
5.82855e-05
4.66182e-05
5.59512e-05
5.73325e-05
5.8177e-05
4.64696e-05
5.63722e-05
5.67129e-05
5.75546e-05
4.67567e-05
5.76583e-05
5.61315e-05
5.76329e-05
4.68754e-05
5.76953e-05
5.69361e-05
5.84705e-05
4.66022e-05
5.57307e-05
5.72191e-05
5.79034e-05
4.58179e-05
5.39956e-05
5.46324e-05
5.61188e-05
3.5789e-07
3.4672e-07
2.97983e-07
3.50733e-07
3.07454e-07
3.23425e-07
2.27652e-07
1.97164e-07
2.3913e-07
2.45667e-07
3.01381e-07
3.07606e-07
3.57311e-07
3.3042e-07
2.93071e-07
3.55061e-07
3.54027e-07
3.3923e-07
3.69037e-07
2.51761e-07
3.67418e-07
2.44328e-07
3.49724e-07
3.29973e-07
6.48831e-07
3.71793e-07
6.05571e-07
3.6906e-07
2.78572e-07
2.36915e-07
2.69292e-07
3.56112e-07
3.38949e-07
6.6966e-07
2.9533e-07
5.62646e-07
3.36256e-07
3.37104e-07
3.33442e-07
3.67494e-07
2.41712e-07
3.70332e-07
2.34514e-07
3.28784e-07
3.1069e-07
6.03637e-07
3.68686e-07
6.01952e-07
3.69146e-07
2.66279e-07
2.25445e-07
2.58067e-07
3.36475e-07
3.23704e-07
5.52556e-07
2.87321e-07
5.54464e-07
3.30033e-07
3.30674e-07
3.19646e-07
3.7287e-07
2.32208e-07
3.81133e-07
2.25994e-07
3.09644e-07
2.93799e-07
5.95184e-07
3.705e-07
5.17922e-07
3.75754e-07
2.55587e-07
2.15948e-07
2.48757e-07
3.21443e-07
3.11661e-07
5.56224e-07
2.75995e-07
5.43137e-07
3.19427e-07
3.16652e-07
3.06857e-07
3.84631e-07
2.24016e-07
3.96336e-07
2.18336e-07
2.92885e-07
2.7888e-07
4.80195e-07
3.78369e-07
3.6139e-07
3.9201e-07
2.46602e-07
2.06437e-07
2.41022e-07
3.09774e-07
3.04002e-07
5.18577e-07
2.63351e-07
4.43848e-07
2.98469e-07
3.04293e-07
2.94768e-07
4.00563e-07
2.16601e-07
4.19695e-07
2.11853e-07
2.7805e-07
2.65024e-07
3.26355e-07
3.98379e-07
2.4906e-07
4.20659e-07
2.39436e-07
1.96807e-07
2.35256e-07
3.02934e-07
3.02404e-07
4.28445e-07
2.51414e-07
4.14385e-07
2.93218e-07
2.92587e-07
2.89464e-07
4.27016e-07
2.10455e-07
4.47588e-07
2.07205e-07
2.64256e-07
2.52185e-07
2.32596e-07
4.31294e-07
2.04437e-07
4.76876e-07
2.34069e-07
1.86933e-07
2.30686e-07
3.01905e-07
3.08958e-07
4.14607e-07
2.4215e-07
4.41081e-07
2.93263e-07
2.88679e-07
2.88637e-07
4.54354e-07
2.06377e-07
4.70435e-07
2.04367e-07
2.51524e-07
2.4088e-07
2.00429e-07
4.94841e-07
1.94498e-07
5.58041e-07
2.29766e-07
1.78059e-07
2.2716e-07
3.09077e-07
3.22538e-07
4.5893e-07
2.34019e-07
5.2221e-07
3.05497e-07
2.8791e-07
2.87429e-07
4.72656e-07
2.03854e-07
4.69215e-07
2.02964e-07
2.40387e-07
2.31461e-07
1.93005e-07
5.81721e-07
1.8889e-07
6.41133e-07
2.26173e-07
1.71859e-07
2.23494e-07
3.22492e-07
3.35028e-07
5.44973e-07
2.26459e-07
6.17574e-07
3.26708e-07
2.86187e-07
2.49361e-07
4.55118e-07
2.02893e-07
3.54213e-07
2.03074e-07
2.31189e-07
2.23118e-07
1.87726e-07
6.52156e-07
1.84967e-07
6.58823e-07
2.22903e-07
1.67304e-07
2.21879e-07
3.3448e-07
3.37831e-07
6.40638e-07
2.18894e-07
6.87843e-07
3.42075e-07
2.46001e-07
2.18748e-07
3.20132e-07
2.03214e-07
2.3481e-07
2.0318e-07
2.22941e-07
2.14744e-07
1.84428e-07
6.52298e-07
1.83553e-07
4.92821e-07
2.2168e-07
1.63091e-07
2.20605e-07
3.36259e-07
2.65364e-07
6.93661e-07
2.10384e-07
6.87809e-07
3.42286e-07
2.17462e-07
2.05185e-07
2.14144e-07
2.02871e-07
1.75016e-07
2.01032e-07
2.14609e-07
2.07079e-07
1.83395e-07
4.30905e-07
1.8327e-07
2.8651e-07
2.19662e-07
1.59754e-07
2.16619e-07
2.60727e-07
2.25092e-07
6.59747e-07
2.04119e-07
4.97064e-07
2.5813e-07
2.0516e-07
1.99262e-07
1.6805e-07
2.00339e-07
1.57806e-07
1.97689e-07
2.07019e-07
2.00297e-07
1.83312e-07
2.53085e-07
1.83836e-07
1.91611e-07
2.16162e-07
1.57653e-07
2.14895e-07
2.22955e-07
2.04604e-07
4.56509e-07
2.03432e-07
3.89524e-07
2.42892e-07
1.99499e-07
1.95504e-07
1.56881e-07
1.97024e-07
1.56889e-07
1.95119e-07
2.00354e-07
1.952e-07
1.84105e-07
1.81883e-07
1.84931e-07
1.68509e-07
2.14664e-07
1.56717e-07
2.14521e-07
2.04242e-07
1.99014e-07
3.84434e-07
2.05834e-07
3.91726e-07
2.46321e-07
1.95951e-07
1.937e-07
1.57507e-07
1.94567e-07
1.61707e-07
1.94723e-07
1.95512e-07
1.91634e-07
1.85248e-07
1.67042e-07
1.86776e-07
1.66738e-07
2.1466e-07
1.57649e-07
2.16009e-07
1.99483e-07
2.00214e-07
4.01068e-07
2.18867e-07
4.07363e-07
2.47525e-07
1.94594e-07
1.95108e-07
1.63419e-07
1.9515e-07
1.69465e-07
1.98895e-07
1.9247e-07
1.93886e-07
1.87846e-07
1.6722e-07
1.91368e-07
1.7269e-07
2.16655e-07
1.62487e-07
2.20125e-07
2.01785e-07
2.08133e-07
4.05146e-07
2.48622e-07
3.42727e-07
2.31786e-07
1.96888e-07
2.01342e-07
1.7194e-07
2.00459e-07
1.81028e-07
2.0631e-07
1.95632e-07
1.96963e-07
1.9292e-07
1.74989e-07
1.999e-07
1.84221e-07
2.20833e-07
1.70796e-07
2.26393e-07
2.11602e-07
2.25713e-07
3.16676e-07
3.02794e-07
2.65341e-07
2.20613e-07
2.05028e-07
2.16345e-07
1.85375e-07
2.09289e-07
2.00348e-07
2.18814e-07
1.99786e-07
2.08896e-07
2.03371e-07
1.88959e-07
2.15654e-07
2.01628e-07
2.29521e-07
1.85214e-07
2.45589e-07
2.32173e-07
2.5316e-07
2.52946e-07
3.69039e-07
2.36621e-07
2.32333e-07
2.23517e-07
2.49703e-07
2.07691e-07
2.24581e-07
2.32656e-07
2.48363e-07
2.16191e-07
2.45286e-07
2.22063e-07
2.10291e-07
2.45023e-07
2.31249e-07
2.5157e-07
2.17092e-07
2.68953e-07
2.61447e-07
2.90975e-07
2.36591e-07
4.21836e-07
2.48433e-07
2.52407e-07
2.61975e-07
3.11113e-07
2.4242e-07
2.54863e-07
2.81166e-07
2.88422e-07
2.55655e-07
3.00718e-07
2.53883e-07
2.38748e-07
2.92859e-07
2.85575e-07
2.78562e-07
2.5897e-07
3.23821e-07
3.00642e-07
3.64696e-07
2.58397e-07
4.73263e-07
2.91609e-07
3.20773e-07
3.30946e-07
4.17574e-07
2.9796e-07
3.08793e-07
3.46757e-07
3.49179e-07
3.28637e-07
4.07242e-07
3.08409e-07
3.01944e-07
3.52413e-07
3.30621e-07
3.32033e-07
3.20751e-07
3.88806e-07
3.89125e-07
4.18379e-07
2.98443e-07
4.8413e-07
3.65524e-07
4.10768e-07
4.47387e-07
6.44154e-07
3.74889e-07
3.7083e-07
4.52492e-07
4.65584e-07
4.28173e-07
6.45361e-07
3.80853e-07
3.55923e-07
4.58581e-07
4.54765e-07
4.23015e-07
4.40834e-07
4.79885e-07
4.39446e-07
6.72214e-07
4.17826e-07
5.71284e-07
5.17833e-07
6.51686e-07
6.894e-07
1.01422e-06
4.77127e-07
4.96988e-07
6.34066e-07
6.12749e-07
7.02076e-07
9.65279e-07
4.81237e-07
4.73525e-07
6.35532e-07
6.23314e-07
5.24848e-07
5.81342e-07
6.70184e-07
7.21382e-07
1.02241e-06
5.90863e-07
7.55936e-07
7.55166e-07
1.08862e-06
1.13119e-06
1.48152e-06
6.66265e-07
6.71287e-07
8.2636e-07
8.14793e-07
1.07454e-06
1.54137e-06
6.68124e-07
6.84211e-07
8.37456e-07
7.89082e-07
6.87394e-07
7.80271e-07
8.79981e-07
1.16032e-06
1.46046e-06
7.81614e-07
9.12841e-07
1.12447e-06
1.78365e-06
1.69199e-06
2.48436e-06
9.32559e-07
8.57826e-07
1.13101e-06
1.22522e-06
1.67657e-06
2.66816e-06
9.33236e-07
8.41066e-07
1.11877e-06
1.16666e-06
1.03007e-06
1.19316e-06
1.16144e-06
1.52225e-06
2.60044e-06
1.21426e-06
1.24924e-06
1.21707e-06
2.2322e-06
2.57553e-06
3.49647e-06
1.18299e-06
1.31743e-06
1.51157e-06
1.42931e-06
2.96724e-06
3.31925e-06
1.18355e-06
1.29698e-06
1.54089e-06
1.51202e-06
1.16467e-06
1.38835e-06
1.4558e-06
2.9887e-06
3.7118e-06
1.21136e-06
1.56173e-06
1.60362e-06
3.56449e-06
3.88267e-06
5.38568e-06
1.64443e-06
1.4986e-06
2.04493e-06
2.06785e-06
3.41003e-06
5.46576e-06
1.67246e-06
1.5486e-06
2.03888e-06
1.95793e-06
1.86419e-06
2.06984e-06
2.2951e-06
3.76718e-06
4.75452e-06
2.03316e-06
2.00227e-06
2.42873e-06
7.16689e-06
5.69247e-06
7.13555e-06
2.18395e-06
2.23203e-06
2.60739e-06
2.7135e-06
6.07447e-06
7.54975e-06
2.17143e-06
2.18987e-06
2.60136e-06
2.70808e-06
2.29719e-06
2.66281e-06
2.37238e-06
5.37464e-06
7.87458e-06
2.42227e-06
2.68795e-06
2.4668e-06
5.84029e-06
7.5401e-06
9.51064e-06
2.77135e-06
2.82562e-06
3.34264e-06
3.24019e-06
7.75571e-06
9.29042e-06
2.77631e-06
2.81509e-06
3.35777e-06
3.26854e-06
2.60283e-06
3.18544e-06
3.37696e-06
8.18087e-06
9.16946e-06
2.65683e-06
3.34992e-06
3.36926e-06
1.01846e-05
1.0008e-05
1.20015e-05
3.5475e-06
3.51469e-06
4.19061e-06
4.33246e-06
9.87866e-06
1.1855e-05
3.55451e-06
3.5163e-06
4.18253e-06
4.18346e-06
3.46591e-06
4.27554e-06
4.102e-06
9.65056e-06
1.19887e-05
3.46754e-06
4.15567e-06
4.00535e-06
1.13755e-05
1.24971e-05
1.45045e-05
4.41768e-06
4.47681e-06
5.18206e-06
4.81066e-06
1.22694e-05
1.38244e-05
4.4231e-06
4.35199e-06
5.18892e-06
5.21294e-06
4.37983e-06
4.76421e-06
5.23728e-06
1.24846e-05
1.44583e-05
4.29743e-06
5.25149e-06
5.28466e-06
1.47837e-05
1.50014e-05
1.68508e-05
5.41747e-06
5.2373e-06
6.27034e-06
7.08255e-06
1.45291e-05
1.89231e-05
5.42761e-06
5.52977e-06
6.25628e-06
6.17284e-06
5.43049e-06
7.0295e-06
5.9763e-06
1.49921e-05
1.69162e-05
5.48037e-06
6.13046e-06
5.93772e-06
1.64319e-05
1.73468e-05
1.90828e-05
6.63932e-06
7.25633e-06
7.38921e-06
7.28556e-06
1.91559e-05
1.81477e-05
6.59167e-06
6.47001e-06
7.41371e-06
7.61038e-06
6.38553e-06
7.25357e-06
7.83911e-06
1.73743e-05
1.88946e-05
6.32254e-06
7.4925e-06
7.79719e-06
1.96447e-05
1.95364e-05
2.1107e-05
7.67769e-06
7.29001e-06
8.90934e-06
8.02208e-06
1.81406e-05
2.03003e-05
7.71872e-06
7.86421e-06
8.86212e-06
8.30566e-06
8.14046e-06
7.95521e-06
8.51589e-06
1.92699e-05
2.08278e-05
8.11774e-06
8.34156e-06
8.49862e-06
2.08023e-05
2.15276e-05
2.28071e-05
9.1492e-06
9.04757e-06
9.93993e-06
1.09865e-05
2.15085e-05
2.37853e-05
9.14663e-06
8.71537e-06
1.00538e-05
1.0944e-05
8.64837e-06
1.08999e-05
1.04307e-05
2.14244e-05
2.38112e-05
8.62218e-06
1.11062e-05
1.02274e-05
2.29951e-05
2.32748e-05
2.50067e-05
1.05629e-05
1.12013e-05
1.21976e-05
1.14223e-05
2.39488e-05
2.43762e-05
1.05646e-05
1.1432e-05
1.19653e-05
1.19293e-05
1.1121e-05
1.14224e-05
1.21144e-05
2.42264e-05
2.45333e-05
1.08914e-05
1.21701e-05
1.18484e-05
2.49986e-05
2.5361e-05
2.62266e-05
1.24328e-05
1.15326e-05
1.34017e-05
1.34513e-05
2.47361e-05
2.66067e-05
1.23199e-05
1.19808e-05
1.34874e-05
1.26333e-05
1.22288e-05
1.37543e-05
1.34978e-05
2.46678e-05
2.56681e-05
1.20104e-05
1.24836e-05
1.35926e-05
2.65872e-05
2.65552e-05
2.7591e-05
1.38284e-05
1.44595e-05
1.51869e-05
1.60364e-05
2.70678e-05
2.7699e-05
1.38173e-05
1.35608e-05
1.4925e-05
1.55031e-05
1.41596e-05
1.51388e-05
1.50839e-05
2.62388e-05
2.80383e-05
1.42104e-05
1.54172e-05
1.50925e-05
2.69283e-05
2.79077e-05
2.88242e-05
1.5663e-05
1.61622e-05
1.65364e-05
1.6273e-05
2.78789e-05
2.84843e-05
1.54272e-05
1.57136e-05
1.6737e-05
1.66586e-05
1.51486e-05
1.61683e-05
1.5516e-05
2.82757e-05
2.88306e-05
1.51541e-05
1.66795e-05
1.54383e-05
2.82525e-05
2.91464e-05
3.03775e-05
1.68301e-05
1.63319e-05
1.86767e-05
1.78917e-05
2.87771e-05
3.01564e-05
1.70803e-05
1.71263e-05
1.85595e-05
1.8553e-05
1.59658e-05
1.8302e-05
2.06978e-05
2.91181e-05
3.01656e-05
1.57542e-05
1.84794e-05
2.07095e-05
3.28045e-05
3.0721e-05
3.14513e-05
1.94238e-05
1.86626e-05
2.0759e-05
2.17054e-05
3.05855e-05
3.26883e-05
1.91825e-05
1.90158e-05
2.033e-05
2.06954e-05
2.16862e-05
2.15296e-05
2.222e-05
3.05154e-05
3.19396e-05
2.21745e-05
2.09705e-05
2.313e-05
3.20937e-05
3.16909e-05
3.29686e-05
2.09068e-05
2.24297e-05
2.22439e-05
2.27864e-05
3.30507e-05
3.20671e-05
2.06977e-05
2.13954e-05
2.28291e-05
2.27281e-05
2.20827e-05
2.26473e-05
2.0786e-05
3.22955e-05
3.26377e-05
2.29675e-05
2.25512e-05
1.99904e-05
3.03562e-05
3.33182e-05
3.36579e-05
2.29926e-05
2.2593e-05
2.42577e-05
2.24084e-05
3.19132e-05
3.15948e-05
2.35117e-05
2.28371e-05
2.43122e-05
2.29725e-05
2.07337e-05
2.22181e-05
2.12423e-05
3.26773e-05
3.25961e-05
1.95693e-05
2.25397e-05
1.97082e-05
3.25974e-05
3.37285e-05
3.43431e-05
2.43824e-05
2.25966e-05
2.4919e-05
2.74797e-05
3.23744e-05
3.82804e-05
2.43602e-05
2.31221e-05
2.47075e-05
2.5928e-05
2.25636e-05
2.79122e-05
2.7786e-05
3.28502e-05
3.55412e-05
2.04565e-05
2.59505e-05
2.87384e-05
3.70632e-05
3.48308e-05
3.68286e-05
2.56877e-05
2.88254e-05
2.87345e-05
2.95134e-05
3.8626e-05
3.64742e-05
2.52727e-05
2.71046e-05
2.84399e-05
2.88681e-05
2.87976e-05
2.98654e-05
2.95656e-05
3.61785e-05
3.68604e-05
3.04486e-05
2.92139e-05
3.18279e-05
3.8032e-05
3.6982e-05
3.6699e-05
2.91086e-05
2.93725e-05
2.91952e-05
2.76548e-05
3.6237e-05
3.45744e-05
2.89833e-05
2.89645e-05
2.93698e-05
2.89411e-05
2.95056e-05
2.6922e-05
2.81893e-05
3.68705e-05
3.6373e-05
3.17768e-05
2.89826e-05
2.92016e-05
3.58015e-05
3.67248e-05
3.71815e-05
2.91373e-05
2.74964e-05
2.928e-05
2.77924e-05
3.46509e-05
3.63839e-05
2.93739e-05
2.894e-05
2.95861e-05
2.95423e-05
2.80473e-05
2.71775e-05
2.84211e-05
3.64226e-05
3.72238e-05
2.85063e-05
2.91686e-05
2.83084e-05
3.66527e-05
3.7645e-05
4.0034e-05
2.97711e-05
2.87646e-05
3.31347e-05
3.45547e-05
3.73101e-05
4.19489e-05
3.01703e-05
3.02073e-05
3.278e-05
3.25839e-05
2.95476e-05
3.52965e-05
3.39057e-05
3.76342e-05
3.95902e-05
2.87714e-05
3.24499e-05
3.35609e-05
4.06927e-05
4.03759e-05
4.07658e-05
3.39183e-05
3.54164e-05
3.48531e-05
3.59085e-05
4.23055e-05
4.1985e-05
3.34707e-05
3.33487e-05
3.48115e-05
3.49946e-05
3.45792e-05
3.68059e-05
3.49624e-05
4.00022e-05
4.09918e-05
3.44688e-05
3.49278e-05
3.51887e-05
4.07423e-05
4.07841e-05
4.04032e-05
3.48636e-05
3.58246e-05
3.47226e-05
3.4668e-05
4.18788e-05
4.01085e-05
3.49269e-05
3.5181e-05
3.49294e-05
3.5187e-05
3.48747e-05
3.48361e-05
3.43396e-05
4.10781e-05
4.07538e-05
3.51682e-05
3.52546e-05
3.48568e-05
4.00313e-05
4.04315e-05
4.16944e-05
3.47201e-05
3.45756e-05
3.56334e-05
3.4959e-05
4.01076e-05
4.11348e-05
3.49271e-05
3.51568e-05
3.55529e-05
3.53794e-05
3.43428e-05
3.46699e-05
3.57685e-05
4.07666e-05
4.13495e-05
3.48639e-05
3.54054e-05
3.61107e-05
4.23857e-05
4.22323e-05
4.383e-05
3.65673e-05
3.60228e-05
3.8612e-05
3.86558e-05
4.1798e-05
4.39117e-05
3.63566e-05
3.60353e-05
3.85296e-05
3.88218e-05
3.70576e-05
3.87297e-05
3.9229e-05
4.18626e-05
4.41036e-05
3.73707e-05
3.88564e-05
3.9329e-05
4.44561e-05
4.40605e-05
4.41617e-05
3.90514e-05
3.89025e-05
3.94996e-05
3.90141e-05
4.40269e-05
4.37916e-05
3.90588e-05
3.91608e-05
3.95727e-05
3.92432e-05
3.93913e-05
3.95078e-05
3.92516e-05
4.42115e-05
4.34961e-05
3.94238e-05
3.92506e-05
3.90659e-05
4.33086e-05
4.41477e-05
4.37075e-05
3.94926e-05
3.90113e-05
3.93738e-05
3.91843e-05
4.38032e-05
4.3983e-05
3.95592e-05
3.91181e-05
3.93847e-05
3.90705e-05
3.89375e-05
3.94188e-05
3.8673e-05
4.34596e-05
4.35259e-05
3.86876e-05
3.89192e-05
3.84438e-05
4.27962e-05
4.37624e-05
4.57812e-05
3.93901e-05
3.96026e-05
4.0841e-05
4.18433e-05
4.42737e-05
4.65681e-05
3.94002e-05
3.92005e-05
4.08749e-05
4.17931e-05
3.87524e-05
4.16812e-05
4.19012e-05
4.38671e-05
4.67837e-05
3.85724e-05
4.18325e-05
4.22451e-05
4.73329e-05
4.63788e-05
4.73116e-05
4.19036e-05
4.2328e-05
4.34025e-05
4.26315e-05
4.68293e-05
4.6189e-05
4.19354e-05
4.26708e-05
4.34043e-05
4.36041e-05
4.30592e-05
4.27594e-05
4.39119e-05
4.72972e-05
4.77045e-05
4.32842e-05
4.38055e-05
4.38248e-05
4.77795e-05
4.73016e-05
4.63378e-05
4.34385e-05
4.25456e-05
4.3045e-05
4.2383e-05
4.60541e-05
4.56877e-05
4.34339e-05
4.35792e-05
4.29446e-05
4.24258e-05
4.37912e-05
4.24029e-05
4.2306e-05
4.75994e-05
4.53455e-05
4.35499e-05
4.23083e-05
4.21023e-05
4.51812e-05
4.63386e-05
4.71453e-05
4.29469e-05
4.2436e-05
4.30834e-05
4.40614e-05
4.59794e-05
4.84631e-05
4.28152e-05
4.21961e-05
4.29736e-05
4.23746e-05
4.21786e-05
4.38943e-05
4.24519e-05
4.52884e-05
4.64333e-05
4.20788e-05
4.23728e-05
4.30613e-05
4.69982e-05
4.76664e-05
4.97485e-05
4.35338e-05
4.50058e-05
4.61563e-05
4.70188e-05
4.90684e-05
5.07521e-05
4.35214e-05
4.30794e-05
4.62707e-05
4.67691e-05
4.32101e-05
4.70384e-05
4.65915e-05
4.73009e-05
5.05902e-05
4.44757e-05
4.68307e-05
4.71439e-05
5.06672e-05
4.98617e-05
4.92337e-05
4.65537e-05
4.71585e-05
4.67125e-05
4.65703e-05
5.08088e-05
4.84993e-05
4.6635e-05
4.72216e-05
4.67291e-05
4.72614e-05
4.71491e-05
4.66674e-05
4.73788e-05
5.07207e-05
4.96511e-05
4.73535e-05
4.71155e-05
4.71477e-05
4.99592e-05
4.91409e-05
4.84893e-05
4.656e-05
4.5565e-05
4.58213e-05
4.41317e-05
4.79372e-05
4.60456e-05
4.65166e-05
4.68719e-05
4.58596e-05
4.57147e-05
4.71685e-05
4.41661e-05
4.56865e-05
4.94283e-05
4.82037e-05
4.65186e-05
4.55832e-05
4.48698e-05
4.75626e-05
4.85802e-05
5.01421e-05
4.58016e-05
4.41364e-05
4.64867e-05
4.62151e-05
4.61583e-05
5.03691e-05
4.58494e-05
4.56628e-05
4.65409e-05
4.61462e-05
4.55523e-05
4.59407e-05
4.5816e-05
4.82266e-05
4.97022e-05
4.47664e-05
4.5893e-05
4.52532e-05
4.9192e-05
5.06461e-05
5.19117e-05
4.74053e-05
4.79514e-05
4.92006e-05
5.13986e-05
5.14431e-05
5.48366e-05
4.74041e-05
4.70806e-05
4.91469e-05
4.92637e-05
4.65919e-05
5.1473e-05
4.97721e-05
5.03007e-05
5.21522e-05
4.64453e-05
4.93704e-05
5.0112e-05
5.30313e-05
5.20575e-05
5.2491e-05
4.96134e-05
5.18032e-05
5.02977e-05
5.17762e-05
5.50248e-05
5.3786e-05
4.94691e-05
4.96372e-05
5.01124e-05
5.00869e-05
5.02674e-05
5.19017e-05
5.05336e-05
5.2324e-05
5.24546e-05
5.06937e-05
5.05029e-05
5.1044e-05
5.28376e-05
5.25317e-05
5.19212e-05
5.03239e-05
5.12755e-05
5.00265e-05
4.85693e-05
5.33082e-05
4.97899e-05
5.01683e-05
5.01102e-05
5.00531e-05
5.00811e-05
5.04173e-05
4.84396e-05
4.91691e-05
5.24666e-05
5.22245e-05
5.09422e-05
5.02679e-05
4.948e-05
5.10356e-05
5.17977e-05
5.1312e-05
4.9644e-05
4.80843e-05
4.91929e-05
4.78365e-05
4.95996e-05
4.99044e-05
4.98092e-05
5.00385e-05
4.94492e-05
4.97949e-05
4.89612e-05
4.77594e-05
4.89445e-05
5.21985e-05
5.18114e-05
4.9176e-05
4.95736e-05
4.9051e-05
5.1415e-05
5.14404e-05
5.31396e-05
4.92104e-05
4.79974e-05
5.05143e-05
5.06504e-05
5.03765e-05
5.3417e-05
4.94621e-05
4.97792e-05
5.04961e-05
5.01153e-05
4.91928e-05
5.08946e-05
5.12966e-05
5.18298e-05
5.26534e-05
4.92073e-05
5.0346e-05
5.10752e-05
5.36631e-05
5.35089e-05
5.40811e-05
5.12047e-05
5.14929e-05
5.22916e-05
5.2944e-05
5.38963e-05
5.49715e-05
5.11142e-05
5.0679e-05
5.21064e-05
5.17428e-05
5.17284e-05
5.29264e-05
5.21976e-05
5.29581e-05
5.35562e-05
5.15e-05
5.16809e-05
5.19859e-05
5.3901e-05
5.41096e-05
5.41353e-05
5.24278e-05
5.31001e-05
5.25595e-05
5.30681e-05
5.50345e-05
5.4642e-05
5.22261e-05
5.1867e-05
5.23606e-05
5.2139e-05
5.22238e-05
5.29509e-05
5.22413e-05
5.36003e-05
5.39655e-05
5.20228e-05
5.20774e-05
5.20903e-05
5.38732e-05
5.41892e-05
5.45877e-05
5.25686e-05
5.28144e-05
5.27248e-05
5.22808e-05
5.45048e-05
5.37085e-05
5.23939e-05
5.2375e-05
5.28431e-05
5.33079e-05
5.2253e-05
5.22152e-05
5.26692e-05
5.42087e-05
5.52814e-05
5.21529e-05
5.33746e-05
5.29148e-05
5.46346e-05
5.4676e-05
5.47757e-05
5.28055e-05
5.22754e-05
5.29842e-05
5.29146e-05
5.37201e-05
5.49411e-05
5.30343e-05
5.34907e-05
5.32947e-05
5.35651e-05
5.28487e-05
5.29828e-05
5.30602e-05
5.53566e-05
5.50141e-05
5.31052e-05
5.35559e-05
5.32771e-05
5.47811e-05
5.48204e-05
5.535e-05
5.3108e-05
5.34869e-05
5.38529e-05
5.44569e-05
5.53457e-05
5.62771e-05
5.33372e-05
5.35179e-05
5.36329e-05
5.34425e-05
5.31303e-05
5.44948e-05
5.39099e-05
5.49813e-05
5.48172e-05
5.32999e-05
5.34147e-05
5.36465e-05
5.54108e-05
5.5491e-05
5.56556e-05
5.40861e-05
5.45012e-05
5.42991e-05
5.42092e-05
5.62876e-05
5.52673e-05
5.37697e-05
5.345e-05
5.4108e-05
5.38383e-05
5.41817e-05
5.42838e-05
5.44283e-05
5.48819e-05
5.55172e-05
5.38598e-05
5.39256e-05
5.43086e-05
5.58445e-05
5.5658e-05
5.56034e-05
5.42897e-05
5.39299e-05
5.42081e-05
5.36424e-05
5.513e-05
5.47676e-05
5.4159e-05
5.41038e-05
5.42763e-05
5.45495e-05
5.4412e-05
5.3632e-05
5.41552e-05
5.56787e-05
5.59483e-05
5.43325e-05
5.45667e-05
5.43088e-05
5.55107e-05
5.5679e-05
5.63764e-05
5.42172e-05
5.36629e-05
5.47526e-05
5.47215e-05
5.48864e-05
5.64615e-05
5.44081e-05
5.45971e-05
5.50118e-05
5.49301e-05
5.41423e-05
5.46014e-05
5.44399e-05
5.5983e-05
5.62595e-05
5.43104e-05
5.48278e-05
5.46744e-05
5.6138e-05
5.65129e-05
5.66264e-05
5.50575e-05
5.52269e-05
5.55021e-05
5.58575e-05
5.67581e-05
5.7192e-05
5.51612e-05
5.5108e-05
5.52997e-05
5.53678e-05
5.48722e-05
5.58253e-05
5.56214e-05
5.6396e-05
5.66829e-05
5.49982e-05
5.54242e-05
5.55319e-05
5.68891e-05
5.66335e-05
5.6695e-05
5.55391e-05
5.58656e-05
5.55561e-05
5.56124e-05
5.71779e-05
5.66432e-05
5.5305e-05
5.53668e-05
5.54345e-05
5.53217e-05
5.5656e-05
5.56487e-05
5.55736e-05
5.66849e-05
5.6485e-05
5.55494e-05
5.54119e-05
5.54614e-05
5.65843e-05
5.6742e-05
5.68048e-05
5.55498e-05
5.54587e-05
5.55362e-05
5.53001e-05
5.66081e-05
5.64403e-05
5.55188e-05
5.53277e-05
5.56718e-05
5.57899e-05
5.55376e-05
5.54224e-05
5.55737e-05
5.64947e-05
5.70821e-05
5.54391e-05
5.5652e-05
5.55193e-05
5.68239e-05
5.68398e-05
5.73395e-05
5.55525e-05
5.53117e-05
5.60789e-05
5.60222e-05
5.64798e-05
5.73689e-05
5.57697e-05
5.60427e-05
5.61901e-05
5.6297e-05
5.56983e-05
5.60824e-05
5.62972e-05
5.72648e-05
5.7481e-05
5.5731e-05
5.62915e-05
5.63491e-05
5.7552e-05
5.74365e-05
5.74687e-05
5.62943e-05
5.63698e-05
5.65229e-05
5.67287e-05
5.75763e-05
5.78729e-05
5.62745e-05
5.62881e-05
5.63148e-05
5.60878e-05
5.63685e-05
5.667e-05
5.63437e-05
5.74565e-05
5.70308e-05
5.63808e-05
5.61363e-05
5.62643e-05
5.72174e-05
5.74705e-05
5.74918e-05
5.65223e-05
5.6722e-05
5.6474e-05
5.63783e-05
5.7856e-05
5.72238e-05
5.63073e-05
5.60674e-05
5.63439e-05
5.61981e-05
5.62639e-05
5.63148e-05
5.61852e-05
5.70321e-05
5.74149e-05
5.61841e-05
5.61855e-05
5.61518e-05
5.71736e-05
5.75506e-05
5.76073e-05
5.64715e-05
5.62697e-05
5.64782e-05
5.62036e-05
5.719e-05
5.71775e-05
5.64558e-05
5.645e-05
5.66665e-05
5.6894e-05
5.62063e-05
5.61952e-05
5.6703e-05
5.76009e-05
5.80082e-05
5.62062e-05
5.69168e-05
5.6847e-05
5.7987e-05
5.76085e-05
5.76657e-05
5.64796e-05
5.62342e-05
5.66052e-05
5.69276e-05
5.72822e-05
5.81841e-05
5.66707e-05
5.69163e-05
5.66829e-05
5.68906e-05
5.68688e-05
5.70216e-05
5.70219e-05
5.80169e-05
5.78707e-05
5.69717e-05
5.69575e-05
5.70299e-05
5.80485e-05
5.77783e-05
5.82117e-05
5.681e-05
5.71845e-05
5.72106e-05
5.74682e-05
5.83448e-05
5.85746e-05
5.67262e-05
5.68733e-05
5.70862e-05
5.68659e-05
5.70148e-05
5.74233e-05
5.68202e-05
5.78732e-05
5.78334e-05
5.69992e-05
5.68114e-05
5.6699e-05
5.75966e-05
5.82289e-05
5.80012e-05
5.72279e-05
5.74637e-05
5.71295e-05
5.70728e-05
5.85659e-05
5.78565e-05
5.71245e-05
5.68849e-05
5.70963e-05
5.69186e-05
5.67838e-05
5.70184e-05
5.68308e-05
5.78474e-05
5.78822e-05
5.66655e-05
5.6832e-05
5.67699e-05
5.78852e-05
5.79892e-05
5.78764e-05
5.70256e-05
5.68059e-05
5.68201e-05
5.62905e-05
5.77454e-05
5.70812e-05
5.7043e-05
5.69397e-05
5.69319e-05
5.71195e-05
5.69859e-05
5.63372e-05
5.7199e-05
5.79326e-05
5.8212e-05
5.70191e-05
5.72324e-05
5.73672e-05
5.84456e-05
5.78815e-05
5.78298e-05
5.67866e-05
5.62569e-05
5.6768e-05
5.65097e-05
5.70761e-05
5.77736e-05
5.69089e-05
5.71354e-05
5.6873e-05
5.70808e-05
5.71916e-05
5.65828e-05
5.69636e-05
5.82326e-05
5.80268e-05
5.73628e-05
5.71271e-05
5.70095e-05
5.78524e-05
5.78484e-05
5.83477e-05
5.68079e-05
5.70403e-05
5.73659e-05
5.81001e-05
5.81469e-05
5.95012e-05
5.68774e-05
5.70117e-05
5.71688e-05
5.69256e-05
5.6939e-05
5.80809e-05
5.70307e-05
5.80035e-05
5.78787e-05
5.68918e-05
5.68649e-05
5.68236e-05
5.79145e-05
5.8445e-05
5.84558e-05
5.74732e-05
5.81427e-05
5.74863e-05
5.77321e-05
5.95364e-05
5.83468e-05
5.72864e-05
5.69282e-05
5.73457e-05
5.71133e-05
5.71465e-05
5.76551e-05
5.7251e-05
5.79023e-05
5.81397e-05
5.68526e-05
5.70581e-05
5.71761e-05
5.82637e-05
5.8413e-05
5.76795e-05
5.74039e-05
5.71557e-05
5.66748e-05
5.6014e-05
5.80224e-05
5.6687e-05
5.7317e-05
5.72043e-05
5.68811e-05
5.72792e-05
5.72427e-05
5.60353e-05
5.70032e-05
5.82225e-05
5.84172e-05
5.72303e-05
5.73351e-05
5.72358e-05
5.81909e-05
5.76479e-05
5.7648e-05
5.65496e-05
5.59226e-05
5.64887e-05
5.60393e-05
5.66758e-05
5.72748e-05
5.67732e-05
5.7273e-05
5.66622e-05
5.69725e-05
5.68905e-05
5.60559e-05
5.65331e-05
5.8434e-05
5.79731e-05
5.72075e-05
5.70291e-05
5.67024e-05
5.75961e-05
5.77381e-05
5.81166e-05
5.65532e-05
5.63859e-05
5.7032e-05
5.74798e-05
5.75636e-05
5.8853e-05
5.667e-05
5.67084e-05
5.67926e-05
5.61979e-05
5.6497e-05
5.7457e-05
5.65525e-05
5.78385e-05
5.7073e-05
5.65367e-05
5.61471e-05
5.63801e-05
5.75204e-05
5.81492e-05
5.80632e-05
5.70988e-05
5.76556e-05
5.70939e-05
5.77124e-05
5.89862e-05
5.90233e-05
5.68238e-05
5.61807e-05
5.68299e-05
5.65027e-05
5.67333e-05
5.77503e-05
5.72234e-05
5.70735e-05
5.78264e-05
5.64015e-05
5.65147e-05
5.69836e-05
5.839e-05
5.80519e-05
5.74336e-05
5.7044e-05
5.76401e-05
5.63307e-05
5.62258e-05
5.89343e-05
5.70694e-05
5.68283e-05
5.68897e-05
5.66086e-05
5.7193e-05
5.72608e-05
5.63111e-05
5.70415e-05
5.81072e-05
5.86285e-05
5.7137e-05
5.72665e-05
5.71257e-05
5.81661e-05
5.72841e-05
5.67833e-05
5.60619e-05
5.57027e-05
5.5634e-05
5.49816e-05
5.67271e-05
5.57644e-05
5.63746e-05
5.71489e-05
5.58447e-05
5.58922e-05
5.65535e-05
5.48904e-05
5.52417e-05
5.8603e-05
5.66719e-05
5.69439e-05
5.58128e-05
5.54459e-05
5.61832e-05
5.67797e-05
5.47341e-05
5.40801e-05
5.57839e-05
5.48853e-05
5.47254e-05
4.51932e-05
4.58741e-05
4.54569e-05
5.42449e-05
5.64976e-05
5.43633e-05
3.71237e-07
2.62074e-07
1.89846e-07
1.98181e-07
1.07251e-07
2.84035e-07
1.27511e-07
1.25656e-07
1.30231e-07
3.25003e-07
1.25173e-07
1.68799e-07
3.62047e-07
3.6954e-07
5.95e-07
2.99134e-07
5.23588e-06
2.51835e-07
6.83777e-06
1.30888e-05
2.03412e-05
3.5793e-07
6.55303e-06
3.1911e-07
8.41259e-06
1.97582e-07
2.40151e-07
2.47629e-07
2.29295e-07
1.961e-07
2.39436e-07
2.46739e-07
1.19479e-07
5.15999e-07
1.26731e-07
2.43191e-07
1.15703e-07
5.02379e-07
1.25689e-07
1.36664e-05
2.1244e-05
1.15311e-07
1.54784e-07
5.43533e-07
2.98332e-07
1.23225e-07
1.53597e-07
5.34027e-07
1.88482e-06
2.02092e-06
3.45945e-07
1.86191e-06
2.0398e-06
5.05657e-07
9.97866e-06
4.13034e-07
1.26187e-05
3.54951e-05
4.52202e-05
5.48924e-07
1.27471e-05
4.63093e-07
1.59382e-05
1.95239e-07
2.38605e-07
2.46043e-07
2.23985e-07
1.92643e-07
2.35905e-07
2.44472e-07
1.20244e-07
4.9283e-07