/*--------------------------------*- C++ -*----------------------------------*\
| =========                 |                                                 |
| \\      /  F ield         | OpenFOAM: The Open Source CFD Toolbox           |
|  \\    /   O peration     | Version:  v2012                                 |
|   \\  /    A nd           | Website:  www.openfoam.com                      |
|    \\/     M anipulation  |                                                 |
\*---------------------------------------------------------------------------*/
FoamFile
{
    version     2.0;
    format      ascii;
    class       volScalarField;
    location    "600";
    object      nut;
}
// * * * * * * * * * * * * * * * * * * * * * * * * * * * * * * * * * * * * * //

dimensions      [0 2 -1 0 0 0 0];


internalField   nonuniform List<scalar> 
171728
(
2.75837e-06
1.71574e-06
1.78032e-06
2.33379e-06
2.76258e-06
1.66446e-06
1.81174e-06
2.28376e-06
2.78498e-06
1.63997e-06
1.83373e-06
2.32161e-06
2.73756e-06
1.63066e-06
1.81137e-06
2.21221e-06
2.69514e-06
1.60869e-06
1.76841e-06
2.02666e-06
2.72662e-06
1.56307e-06
1.71948e-06
1.99061e-06
2.79335e-06
1.4923e-06
1.69952e-06
2.0576e-06
2.86157e-06
1.42363e-06
1.67321e-06
2.42735e-06
2.82295e-06
1.37248e-06
1.62162e-06
3.10035e-06
2.6832e-06
1.3214e-06
1.52727e-06
3.58304e-06
2.61215e-06
1.255e-06
1.40767e-06
3.70713e-06
2.59858e-06
1.18913e-06
1.31026e-06
2.238e-06
2.60282e-06
1.11633e-06
1.25841e-06
2.09689e-06
2.61193e-06
1.04247e-06
1.2358e-06
2.12723e-06
2.62351e-06
9.68775e-07
1.33228e-06
2.03751e-06
2.63472e-06
9.08211e-07
1.58966e-06
1.67694e-06
2.64651e-06
8.7025e-07
2.03497e-06
1.36723e-06
2.65107e-06
8.56979e-07
2.44138e-06
1.25074e-06
2.64871e-06
9.05805e-07
2.52089e-06
1.21247e-06
2.63558e-06
1.03598e-06
2.3532e-06
1.37191e-06
2.60072e-06
1.19158e-06
2.00213e-06
1.7251e-06
2.54619e-06
1.56405e-06
2.20053e-06
2.44432e-06
2.46925e-06
2.12222e-06
2.97129e-06
3.92208e-06
2.3686e-06
2.67678e-06
3.17511e-06
7.56689e-06
2.2581e-06
4.23387e-06
4.73959e-06
6.87269e-06
2.12216e-06
4.5927e-06
5.2541e-06
1.59225e-05
1.9797e-06
7.29501e-06
7.32345e-06
2.40074e-05
1.85574e-06
9.27429e-06
9.41909e-06
1.88231e-05
1.78503e-06
1.12788e-05
1.17811e-05
3.29953e-05
1.74356e-06
1.49416e-05
1.4321e-05
3.60765e-05
1.82541e-06
1.68109e-05
1.88731e-05
4.64399e-05
2.01526e-06
2.52549e-05
2.1348e-05
5.05764e-05
2.12781e-06
2.45661e-05
2.62944e-05
6.06445e-05
2.69423e-06
2.97524e-05
2.95344e-05
6.23819e-05
3.0038e-06
3.86619e-05
4.10328e-05
7.0375e-05
4.06615e-06
3.8942e-05
4.20305e-05
7.54433e-05
5.06671e-06
4.95316e-05
4.24556e-05
8.0246e-05
5.9363e-06
5.17874e-05
5.42086e-05
7.98434e-05
7.16319e-06
5.63116e-05
5.84063e-05
8.54718e-05
9.50616e-06
6.29859e-05
6.3893e-05
0.000103099
1.19563e-05
7.71386e-05
7.49415e-05
9.7676e-05
1.49377e-05
7.65623e-05
7.66489e-05
8.93996e-05
1.83616e-05
7.38133e-05
7.50696e-05
9.93652e-05
1.79692e-05
0.000103302
9.43214e-05
0.000117828
2.86494e-05
0.00010475
0.000101446
0.000118695
3.07311e-05
8.73386e-05
9.76985e-05
0.000108751
2.9061e-05
9.05161e-05
9.91908e-05
0.000113606
4.08053e-05
0.000129209
0.000112955
0.000128682
5.19297e-05
0.000130674
0.000121301
0.000127117
5.1176e-05
0.000116907
0.0001202
0.000123656
4.91934e-05
0.000117066
0.000120276
0.000134909
6.72506e-05
0.000136481
0.000136019
0.000140959
7.93767e-05
0.000136528
0.000134504
0.000135262
7.67453e-05
0.000135083
0.000132401
0.000133846
7.50591e-05
0.00014751
0.000150015
0.000153146
0.00010223
0.000149446
0.000154966
0.000152402
0.000105454
0.000146495
0.000145838
0.000142321
0.000100515
0.000157373
0.000147758
0.000151958
0.000112371
0.000169884
0.000169337
0.000165037
0.000131021
0.00016251
0.000167484
0.000160377
0.000125631
0.000152963
0.000159936
0.000151375
0.000121437
0.000168126
0.000164108
0.000160293
0.000142013
0.000191947
0.000180878
0.000174883
0.000155793
0.000190749
0.000184161
0.00017294
0.000156465
0.00017094
0.000181029
0.000165232
0.000152053
0.000168815
0.000178528
0.000167903
0.000151792
0.000188414
0.000184556
0.000177354
0.000169749
0.000196608
0.000189504
0.00017767
0.000178298
0.000194721
0.000192088
0.000177464
0.000180532
0.000191871
0.000198545
0.000181083
0.000183589
0.000198025
0.000198851
0.000181496
0.000190371
0.00020429
0.000198177
0.000184851
0.00019507
0.000201862
0.000201953
0.000186241
0.000197157
0.000199744
0.000204993
0.000185037
0.000203391
0.000207271
0.000207148
0.000188621
0.000208139
0.000212004
0.000209867
0.000191228
0.000212205
0.000211017
0.000210204
0.000190269
0.000214614
0.000210504
0.000212858
0.000191834
0.000218773
0.000215663
0.000215497
0.000194784
0.000223579
0.000218116
0.000215099
0.00019356
0.000225691
0.000216452
0.000216558
0.000193916
0.000227902
0.000216504
0.00022062
0.000197795
0.000230377
0.000222561
0.000221089
0.000198032
0.000235666
0.00022448
0.000220921
0.000196444
0.000237826
0.000221677
0.000222205
0.000198532
0.000237396
0.0002195
0.00022455
0.000200729
0.000238173
0.000224173
0.000224354
0.000198538
0.000243818
0.000230744
0.000223902
0.000199399
0.000246765
0.00022704
0.00022655
0.000201101
0.000245344
0.000220568
0.000228296
0.000201107
0.000244793
0.000223019
0.000225922
0.000198675
0.000248343
0.000231952
0.000223283
0.00019937
0.000251145
0.000233366
0.00022817
0.000203521
0.000250414
0.000223074
0.000230964
0.000201592
0.000250279
0.000221288
0.000225985
0.000199249
2.26299e-06
1.9843e-06
2.03687e-06
2.25126e-06
2.3026e-06
1.74996e-06
2.77751e-06
2.44487e-06
2.70812e-06
2.71038e-06
2.16556e-06
2.23335e-06
2.27386e-06
2.41814e-06
1.70764e-06
2.34804e-06
2.24547e-06
2.21089e-06
1.73903e-06
1.51832e-06
1.75794e-06
1.49115e-06
2.24838e-06
2.20618e-06
4.84344e-06
1.60074e-06
5.03835e-06
1.58923e-06
1.73811e-06
1.67397e-06
1.69464e-06
2.28158e-06
2.21057e-06
3.20559e-06
1.80333e-06
2.67757e-06
2.29004e-06
2.21585e-06
2.28593e-06
1.77544e-06
1.48571e-06
1.85332e-06
1.47538e-06
2.20388e-06
2.15816e-06
5.36884e-06
1.59207e-06
6.76086e-06
1.61078e-06
1.68699e-06
1.64304e-06
1.67327e-06
2.20906e-06
2.1414e-06
2.67114e-06
1.83226e-06
2.92498e-06
2.32568e-06
2.27883e-06
2.25792e-06
1.89759e-06
1.47326e-06
2.05451e-06
1.47475e-06
2.15552e-06
2.11526e-06
7.14972e-06
1.62731e-06
6.49464e-06
1.67891e-06
1.66929e-06
1.63413e-06
1.65999e-06
2.13545e-06
2.06786e-06
3.02474e-06
1.82092e-06
3.06631e-06
2.25036e-06
2.246e-06
2.22282e-06
2.11795e-06
1.47525e-06
2.34865e-06
1.47453e-06
2.1125e-06
2.08089e-06
5.86069e-06
1.70214e-06
3.77739e-06
1.83027e-06
1.65733e-06
1.61521e-06
1.65697e-06
2.06108e-06
2.03592e-06
2.85751e-06
1.77971e-06
2.23109e-06
2.03432e-06
2.20839e-06
2.24857e-06
2.45262e-06
1.47441e-06
2.98792e-06
1.47451e-06
2.07785e-06
2.04076e-06
3.20691e-06
1.89076e-06
2.07798e-06
2.11282e-06
1.65932e-06
1.57666e-06
1.66992e-06
2.04058e-06
2.08807e-06
2.10771e-06
1.73016e-06
2.00378e-06
1.99529e-06
2.23858e-06
2.46166e-06
3.2428e-06
1.47515e-06
4.23226e-06
1.48415e-06
2.0366e-06
2.00492e-06
1.87149e-06
2.23209e-06
1.5417e-06
2.92959e-06
1.67529e-06
1.51154e-06
1.69049e-06
2.10109e-06
2.34469e-06
2.00754e-06
1.70273e-06
2.27227e-06
2.04303e-06
2.46362e-06
2.65192e-06
4.64743e-06
1.48843e-06
5.9527e-06
1.50331e-06
2.00037e-06
1.96946e-06
1.49571e-06
3.30068e-06
1.45621e-06
5.10887e-06
1.69669e-06
1.43919e-06
1.71164e-06
2.39385e-06
2.93015e-06
2.46745e-06
1.68315e-06
3.35332e-06
2.38857e-06
2.64883e-06
2.81772e-06
6.31333e-06
1.50801e-06
7.01533e-06
1.52791e-06
1.96498e-06
1.93452e-06
1.45112e-06
6.00028e-06
1.42601e-06
9.13685e-06
1.7131e-06
1.38502e-06
1.71333e-06
2.95032e-06
3.42142e-06
3.75441e-06
1.63733e-06
5.3504e-06
3.07649e-06
2.79973e-06
2.27383e-06
6.83437e-06
1.53591e-06
4.54265e-06
1.56146e-06
1.93097e-06
1.88965e-06
1.41626e-06
1.0069e-05
1.38858e-06
1.18389e-05
1.71496e-06
1.33511e-06
1.72493e-06
3.42675e-06
3.72592e-06
5.96595e-06
1.55754e-06
7.59957e-06
3.58734e-06
2.21767e-06
1.85417e-06
3.82136e-06
1.56902e-06
2.21556e-06
1.57949e-06
1.88527e-06
1.81933e-06
1.38242e-06
1.20365e-05
1.3671e-06
7.6719e-06
1.72759e-06
1.27162e-06
1.72037e-06
3.70421e-06
2.51482e-06
7.96579e-06
1.43622e-06
8.55642e-06
3.7629e-06
1.83023e-06
1.676e-06
1.88109e-06
1.57644e-06
1.31241e-06
1.54495e-06
1.81301e-06
1.73393e-06
1.36155e-06
6.0613e-06
1.34412e-06
2.92733e-06
1.71055e-06
1.20233e-06
1.65956e-06
2.43266e-06
1.90245e-06
8.09647e-06
1.32916e-06
5.02712e-06
2.32258e-06
1.66731e-06
1.58815e-06
1.21565e-06
1.53027e-06
1.06955e-06
1.47006e-06
1.72447e-06
1.63482e-06
1.33742e-06
2.35735e-06
1.31014e-06
1.4474e-06
1.6456e-06
1.13291e-06
1.61108e-06
1.863e-06
1.59543e-06
4.37944e-06
1.268e-06
3.50732e-06
2.09646e-06
1.5773e-06
1.50194e-06
1.04908e-06
1.449e-06
1.0019e-06
1.37656e-06
1.62169e-06
1.52635e-06
1.30051e-06
1.31271e-06
1.26567e-06
1.12359e-06
1.59525e-06
1.0559e-06
1.5449e-06
1.57772e-06
1.49155e-06
3.4686e-06
1.23162e-06
3.57791e-06
2.14296e-06
1.48686e-06
1.40921e-06
9.89708e-07
1.35356e-06
9.73417e-07
1.28932e-06
1.50944e-06
1.42007e-06
1.25072e-06
1.09244e-06
1.20243e-06
1.03077e-06
1.52652e-06
9.85466e-07
1.47448e-06
1.4784e-06
1.43776e-06
3.72106e-06
1.29426e-06
3.87543e-06
2.07412e-06
1.39062e-06
1.31344e-06
9.66305e-07
1.26804e-06
9.45595e-07
1.20909e-06
1.39615e-06
1.3036e-06
1.18789e-06
1.01279e-06
1.1352e-06
9.81193e-07
1.45262e-06
9.22625e-07
1.38855e-06
1.42628e-06
1.41577e-06
3.84677e-06
1.50619e-06
2.7973e-06
1.72889e-06
1.29145e-06
1.22707e-06
9.37967e-07
1.19237e-06
9.24771e-07
1.14439e-06
1.28225e-06
1.21078e-06
1.11945e-06
9.74124e-07
1.07788e-06
9.59671e-07
1.36847e-06
8.77285e-07
1.30462e-06
1.41127e-06
1.44563e-06
2.39362e-06
1.91162e-06
1.56479e-06
1.41386e-06
1.20946e-06
1.17227e-06
9.26212e-07
1.12977e-06
9.34857e-07
1.08672e-06
1.18737e-06
1.12829e-06
1.0693e-06
9.57634e-07
1.05269e-06
9.56771e-07
1.28916e-06
8.55493e-07
1.26106e-06
1.45013e-06
1.48732e-06
1.39218e-06
2.32879e-06
1.11576e-06
1.27211e-06
1.16392e-06
1.18249e-06
9.43785e-07
1.07257e-06
9.9016e-07
1.09519e-06
1.11567e-06
1.14033e-06
1.05194e-06
9.66018e-07
1.08142e-06
9.94262e-07
1.26789e-06
9.02335e-07
1.24929e-06
1.48023e-06
1.51702e-06
1.08804e-06
2.55861e-06
1.01157e-06
1.2048e-06
1.1929e-06
1.29552e-06
1.00462e-06
1.0879e-06
1.09897e-06
1.14677e-06
1.14913e-06
1.22003e-06
1.08598e-06
9.99517e-07
1.175e-06
1.11175e-06
1.25646e-06
9.81423e-07
1.35624e-06
1.50667e-06
1.60685e-06
1.03216e-06
2.4498e-06
1.08698e-06
1.33691e-06
1.32945e-06
1.56879e-06
1.14065e-06
1.19425e-06
1.25308e-06
1.27782e-06
1.28526e-06
1.51948e-06
1.20998e-06
1.15285e-06
1.29464e-06
1.18365e-06
1.36077e-06
1.13239e-06
1.48964e-06
1.6617e-06
1.64066e-06
1.09288e-06
2.11969e-06
1.31779e-06
1.52567e-06
1.62843e-06
2.28294e-06
1.34476e-06
1.33273e-06
1.53908e-06
1.61042e-06
1.54506e-06
2.25666e-06
1.38471e-06
1.25074e-06
1.58099e-06
1.55374e-06
1.59265e-06
1.4911e-06
1.70301e-06
1.64704e-06
2.42582e-06
1.50836e-06
2.20653e-06
1.93767e-06
2.34648e-06
2.39706e-06
3.41474e-06
1.60761e-06
1.70244e-06
2.12195e-06
2.03754e-06
2.41888e-06
3.22265e-06
1.64077e-06
1.58835e-06
2.13473e-06
2.07086e-06
1.83449e-06
1.89886e-06
2.33384e-06
2.55642e-06
3.43779e-06
2.24379e-06
2.7268e-06
2.819e-06
3.83008e-06
3.79819e-06
4.79284e-06
2.20593e-06
2.24097e-06
2.69355e-06
2.66893e-06
3.55532e-06
5.06417e-06
2.21315e-06
2.26696e-06
2.7624e-06
2.56551e-06
2.37961e-06
2.49696e-06
2.87837e-06
3.88447e-06
4.82626e-06
2.89016e-06
3.1749e-06
4.10523e-06
5.92749e-06
5.44912e-06
8.1959e-06
3.06999e-06
2.76656e-06
3.69266e-06
4.06382e-06
5.45174e-06
8.71583e-06
3.09607e-06
2.70737e-06
3.64855e-06
3.82278e-06
3.4612e-06
3.9472e-06
3.91872e-06
4.92388e-06
8.42184e-06
4.41914e-06
4.16035e-06
4.27069e-06
7.52336e-06
8.37683e-06
1.10718e-05
3.83125e-06
4.38624e-06
4.9167e-06
4.62807e-06
9.74201e-06
1.05876e-05
3.84105e-06
4.30038e-06
5.05462e-06
4.96218e-06
3.89865e-06
4.45755e-06
4.54581e-06
9.7706e-06
1.21862e-05
4.20733e-06
5.25333e-06
5.15543e-06
1.08777e-05
1.23122e-05
1.72169e-05
5.36871e-06
4.74882e-06
6.71505e-06
6.79169e-06
1.06624e-05
1.73089e-05
5.5048e-06
5.00916e-06
6.71234e-06
6.32023e-06
6.17653e-06
6.81603e-06
7.87936e-06
1.21684e-05
1.46222e-05
6.92601e-06
6.49511e-06
8.49528e-06
2.50912e-05
1.80851e-05
2.23829e-05
7.17987e-06
7.3406e-06
8.56702e-06
9.06437e-06
1.93669e-05
2.40684e-05
7.14628e-06
7.1749e-06
8.55244e-06
9.02552e-06
7.84002e-06
8.87692e-06
7.62642e-06
1.66429e-05
2.53259e-05
8.41598e-06
8.93795e-06
8.12726e-06
1.75073e-05
2.35413e-05
2.95578e-05
9.11239e-06
9.43563e-06
1.10533e-05
1.05261e-05
2.44789e-05
2.85839e-05
9.14363e-06
9.34181e-06
1.11459e-05
1.07092e-05
8.19282e-06
1.03111e-05
1.12346e-05
2.61766e-05
2.8255e-05
8.49147e-06
1.10792e-05
1.12214e-05
3.21847e-05
3.10224e-05
3.68375e-05
1.17616e-05
1.15242e-05
1.3938e-05
1.46475e-05
3.0339e-05
3.65291e-05
1.18203e-05
1.16073e-05
1.39348e-05
1.39592e-05
1.14382e-05
1.44165e-05
1.35504e-05
2.96199e-05
3.68384e-05
1.14788e-05
1.38508e-05
1.31595e-05
3.44199e-05
3.82351e-05
4.40796e-05
1.47088e-05
1.51613e-05
1.74337e-05
1.5731e-05
3.76875e-05
4.10179e-05
1.47712e-05
1.44387e-05
1.74762e-05
1.75341e-05
1.45204e-05
1.55131e-05
1.7686e-05
3.8226e-05
4.38689e-05
1.41879e-05
1.77274e-05
1.79331e-05
4.51956e-05
4.54816e-05
5.07244e-05
1.8201e-05
1.69228e-05
2.11184e-05
2.48889e-05
4.29516e-05
5.89658e-05
1.82733e-05
1.87336e-05
2.11002e-05
2.06801e-05
1.83393e-05
2.46712e-05
1.97494e-05
4.54247e-05
5.09371e-05
1.85924e-05
2.05036e-05
1.96345e-05
4.89474e-05
5.21183e-05
5.7091e-05
2.25092e-05
2.54471e-05
2.48735e-05
2.49574e-05
5.95996e-05
5.3756e-05
2.23307e-05
2.16693e-05
2.50394e-05
2.59254e-05
2.11846e-05
2.4817e-05
2.69311e-05
5.21545e-05
5.64668e-05
2.09795e-05
2.53716e-05
2.67953e-05
5.92896e-05
5.8333e-05
6.29669e-05
2.57998e-05
2.4702e-05
3.04055e-05
2.56548e-05
5.33857e-05
5.91377e-05
2.60442e-05
2.6796e-05
3.02161e-05
2.76405e-05
2.80205e-05
2.53565e-05
2.88236e-05
5.74695e-05
6.17184e-05
2.79653e-05
2.76606e-05
2.87749e-05
6.18476e-05
6.41466e-05
6.76384e-05
3.1125e-05
3.0103e-05
3.3278e-05
3.82997e-05
6.33866e-05
7.19499e-05
3.11403e-05
2.88528e-05
3.39246e-05
3.8049e-05
2.88627e-05
3.79523e-05
3.54507e-05
6.34817e-05
7.18674e-05
2.87998e-05
3.88585e-05
3.45593e-05
6.82398e-05
6.89842e-05
7.47921e-05
3.56907e-05
3.89237e-05
4.20791e-05
3.87612e-05
7.22019e-05
7.2278e-05
3.58248e-05
4.00009e-05
4.09766e-05
4.11143e-05
3.83146e-05
3.88141e-05
4.18812e-05
7.32208e-05
7.32368e-05
3.72535e-05
4.22759e-05
4.05564e-05
7.47105e-05
7.579e-05
7.82155e-05
4.2714e-05
3.87643e-05
4.57345e-05
4.55422e-05
7.30956e-05
7.97377e-05
4.21578e-05
4.10038e-05
4.6194e-05
4.16607e-05
4.19342e-05
4.72953e-05
4.58706e-05
7.32274e-05
7.55532e-05
4.0702e-05
4.14799e-05
4.63829e-05
7.94151e-05
7.91213e-05
8.22432e-05
4.7167e-05
4.98748e-05
5.17729e-05
5.60897e-05
8.1346e-05
8.2898e-05
4.71958e-05
4.55238e-05
5.05716e-05
5.33518e-05
4.85512e-05
5.18354e-05
5.14678e-05
7.74038e-05
8.42261e-05
4.8844e-05
5.29466e-05
5.14268e-05
7.98492e-05
8.31365e-05
8.60003e-05
5.34804e-05
5.60824e-05
5.59545e-05
5.52017e-05
8.31518e-05
8.44787e-05
5.23594e-05
5.3821e-05
5.6903e-05
5.6502e-05
5.11658e-05
5.42009e-05
5.13735e-05
8.48068e-05
8.62052e-05
5.10589e-05
5.6736e-05
5.1038e-05
8.3263e-05
8.69046e-05
9.13294e-05
5.66994e-05
5.47393e-05
6.34292e-05
5.95829e-05
8.52832e-05
9.0365e-05
5.79236e-05
5.81145e-05
6.29159e-05
6.29954e-05
5.21594e-05
6.17717e-05
7.29208e-05
8.70099e-05
9.04776e-05
5.16499e-05
6.29072e-05
7.25782e-05
0.000101157
9.24713e-05
9.47394e-05
6.63619e-05
6.26897e-05
7.10551e-05
7.5165e-05
9.17374e-05
9.93899e-05
6.52308e-05
6.45259e-05
6.88543e-05
7.0416e-05
7.73942e-05
7.41906e-05
7.88329e-05
9.14822e-05
9.65273e-05
7.93658e-05
7.18093e-05
8.35316e-05
9.88868e-05
9.52894e-05
9.99409e-05
7.11417e-05
7.79617e-05
7.51826e-05
7.87208e-05
0.000100711
9.74842e-05
6.99197e-05
7.31323e-05
7.81096e-05
7.7913e-05
7.78924e-05
7.80149e-05
6.92098e-05
9.77374e-05
9.89439e-05
8.26549e-05
7.7196e-05
6.56731e-05
8.92141e-05
0.000101233
0.000102583
7.8241e-05
7.74226e-05
8.30497e-05
7.50207e-05
9.66192e-05
9.35307e-05
8.09228e-05
7.79085e-05
8.3384e-05
7.71692e-05
6.84468e-05
7.42084e-05
6.76531e-05
9.89186e-05
9.79557e-05
6.29934e-05
7.54018e-05
6.15547e-05
9.69065e-05
0.000102589
0.000103843
8.31822e-05
7.45242e-05
8.31336e-05
9.42037e-05
9.56339e-05
0.000119778
8.3156e-05
7.69822e-05
8.2339e-05
8.74942e-05
7.28371e-05
9.6089e-05
9.69321e-05
9.85875e-05
0.00010869
6.25835e-05
8.74202e-05
0.00010063
0.00011565
0.000105341
0.000113576
8.55853e-05
0.00010108
9.88578e-05
0.000104312
0.000121382
0.000113765
8.36368e-05
9.26204e-05
9.73792e-05
9.98741e-05
0.000101518
0.0001065
0.000103662
0.00011116
0.00011391
0.000109232
0.000101807
0.00011529
0.000119129
0.000114054
0.000112731
0.000100327
0.00010338
9.95358e-05
9.21472e-05
0.000112428
0.000103619
9.96659e-05
9.98681e-05
0.000100326
9.83487e-05
0.000103227
8.86952e-05
9.49178e-05
0.00011377
0.000111306
0.000114932
9.85438e-05
9.9875e-05
0.000108959
0.000112666
0.000113492
9.88854e-05
9.08406e-05
9.72533e-05
8.95872e-05
0.000103469
0.000109376
0.000100012
9.77593e-05
9.86125e-05
9.82913e-05
9.38867e-05
8.61234e-05
9.25595e-05
0.000111172
0.000113691
9.56683e-05
9.64909e-05
9.31984e-05
0.00011111
0.000114984
0.000124553
9.81358e-05
9.22083e-05
0.000113167
0.00012045
0.000112712
0.00013284
0.000100337
0.000100858
0.000111588
0.000110441
9.6649e-05
0.000124052
0.000117267
0.00011508
0.000122655
9.35854e-05
0.000109919
0.000115436
0.000127546
0.000125832
0.000127334
0.000116676
0.000124893
0.000120239
0.000126529
0.000134285
0.000132974
0.000114492
0.000113679
0.000119946
0.000120676
0.000120454
0.000131369
0.000121408
0.000124132
0.000128202
0.000119791
0.000120377
0.000122426
0.000127525
0.000127238
0.000125324
0.000119881
0.000125909
0.000118039
0.000118091
0.000132303
0.000124003
0.000120124
0.000121242
0.000119006
0.000120207
0.000120666
0.000118842
0.000116371
0.000128384
0.000126829
0.000121952
0.000120623
0.000118813
0.000123752
0.000125144
0.000129564
0.000117624
0.000117227
0.000119511
0.000115967
0.000123857
0.000127039
0.000118611
0.000119775
0.000119294
0.000118777
0.000115856
0.000115038
0.000119779
0.000126746
0.000128124
0.00011836
0.00011914
0.000121484
0.000132178
0.000131573
0.00013821
0.000123815
0.000120552
0.000133199
0.000133832
0.000129509
0.000138823
0.000122946
0.000120877
0.000132723
0.000134074
0.000125934
0.000134037
0.000136768
0.000129811
0.000139411
0.000127606
0.000134293
0.000137334
0.000141036
0.000139043
0.000139306
0.0001352
0.000134971
0.000136763
0.000134554
0.000139137
0.000137762
0.00013514
0.00013574
0.000137127
0.000135791
0.000137427
0.000137119
0.000135926
0.000139743
0.000136689
0.000137543
0.000135916
0.000134966
0.000135849
0.000139113
0.000137012
0.000136473
0.000134152
0.00013502
0.000133633
0.000137663
0.000137936
0.000136875
0.000134733
0.000135142
0.000133154
0.00013376
0.000135328
0.000131409
0.000136362
0.000135907
0.00013251
0.000132636
0.000130302
0.000133183
0.000136886
0.000144668
0.000134714
0.000135042
0.000139741
0.000145259
0.000138857
0.000148189
0.000134812
0.000133007
0.00013994
0.000144847
0.000131196
0.000144238
0.000144462
0.000136996
0.00014903
0.000130146
0.000144817
0.000146079
0.000150896
0.000147007
0.000151293
0.000144969
0.000147676
0.00015263
0.000149347
0.000149177
0.000146964
0.000145183
0.000149262
0.000152646
0.000154046
0.000150506
0.00015001
0.00015583
0.000150969
0.000153031
0.000151687
0.000155112
0.000155546
0.000153928
0.000151151
0.000146992
0.00015288
0.000148752
0.000150475
0.00014667
0.000146148
0.000143981
0.00015285
0.000153959
0.000150004
0.00014762
0.000155735
0.000146997
0.00014729
0.000152492
0.000143217
0.000154875
0.000147221
0.00014629
0.00014248
0.000146856
0.00014944
0.000149742
0.000146289
0.00014884
0.000153362
0.000144833
0.000155089
0.000149102
0.000146099
0.000148397
0.000145256
0.000146321
0.000152436
0.000145236
0.000142792
0.000146165
0.000145878
0.000144971
0.000147468
0.00014866
0.000151307
0.000160702
0.000150281
0.000158244
0.00016384
0.000168793
0.000157514
0.000164844
0.000150153
0.000147254
0.00016429
0.000166491
0.000148212
0.000168833
0.000165723
0.000149305
0.000164059
0.000154617
0.000167003
0.000169141
0.000164377
0.000161069
0.00015875
0.000165956
0.00016965
0.00016688
0.000167223
0.000164944
0.000156534
0.000166349
0.000169338
0.000167087
0.000170379
0.000168824
0.000167835
0.000170444
0.000164602
0.000160877
0.00017054
0.000169989
0.000170018
0.00016192
0.000158156
0.000155155
0.000166055
0.000161816
0.000161453
0.000153063
0.000153674
0.000145279
0.000165951
0.000168437
0.000161736
0.000161148
0.000169586
0.000153286
0.000161036
0.000159614
0.00015392
0.000166717
0.000160453
0.000156941
0.000151551
0.000155237
0.0001614
0.000161241
0.00015277
0.000163137
0.000160412
0.000145211
0.000161577
0.000161546
0.000160691
0.000163546
0.000161245
0.000160102
0.000158937
0.000159981
0.000153755
0.000159392
0.000156197
0.000159947
0.000156703
0.000157187
0.000163425
0.000169281
0.00016787
0.000169419
0.0001774
0.000188703
0.000165832
0.000181515
0.000167972
0.000165957
0.000177169
0.000177581
0.000163109
0.000189024
0.000180106
0.00016178
0.000170387
0.00016214
0.000178035
0.000181693
0.000173986
0.000169728
0.000171655
0.00017963
0.000191345
0.00018286
0.000192064
0.000182272
0.0001784
0.000178846
0.000179676
0.00018186
0.00018206
0.000182997
0.000192785
0.000184837
0.000171008
0.000171611
0.00018509
0.000184148
0.000187471
0.00017372
0.000171667
0.000169566
0.000182938
0.000190074
0.000181464
0.000174678
0.000175926
0.000160911
0.000182055
0.000182039
0.000181519
0.00018142
0.000184342
0.000174061
0.000177113
0.000171485
0.000170563
0.000187065
0.000182558
0.000178861
0.000165648
0.000168795
0.000166583
0.000179391
0.000171568
0.000176652
0.000169203
0.000159693
0.000160212
0.000180237
0.000181134
0.000178047
0.000179709
0.000175751
0.00016872
0.000175
0.000170303
0.000168812
0.000176971
0.000178593
0.000175791
0.000166697
0.000166799
0.000173922
0.000176575
0.000169087
0.000182201
0.000182592
0.000161787
0.000175094
0.000177982
0.000179596
0.000182276
0.000180548
0.000175549
0.000183902
0.000186741
0.00016869
0.000172023
0.000176043
0.000181803
0.000185741
0.000176509
0.000175494
0.000178528
0.000185977
0.00018736
0.000192293
0.000195828
0.000177105
0.000182318
0.000185632
0.00018348
0.000191342
0.000189252
0.000189253
0.000195843
0.000192146
0.00017324
0.000176245
0.000188179
0.000189049
0.000191051
0.000177824
0.000178509
0.000178558
0.000193101
0.000196799
0.000193651
0.000196858
0.00018241
0.000181142
0.00019203
0.000189922
0.000192539
0.00019103
0.000192251
0.000196299
0.000191959
0.00017628
0.000177603
0.000191176
0.000190679
0.00019105
0.000177329
0.000178568
0.00018056
0.00019359
0.000195575
0.000194259
0.000192318
0.000180282
0.000176952
0.000192578
0.000192155
0.000194771
0.000197134
0.000191812
0.000191959
0.000193751
0.000178393
0.000183463
0.000191072
0.000197501
0.000195029
0.000180723
0.000180861
0.000181547
0.000194749
0.000192212
0.000195789
0.000194632
0.000176785
0.000181745
0.000195904
0.00019832
0.000197614
0.000199199
0.00019484
0.00019505
0.000196167
0.000183684
0.000182826
0.000196218
0.000199203
0.000197457
0.000181581
0.000181533
0.000183956
0.000196386
0.000197778
0.000200202
0.000203675
0.0001833
0.000188095
0.000197848
0.000199018
0.000199189
0.000198448
0.000196507
0.000203884
0.00020046
0.000182517
0.000181752
0.000197598
0.00019831
0.00019915
0.000184164
0.000184455
0.000185593
0.000201513
0.000204039
0.00020297
0.0002031
0.00018805
0.000184351
0.000199888
0.000198316
0.000201914
0.000199964
0.000201971
0.000203509
0.000203626
0.000181754
0.000184714
0.000200232
0.000200444
0.000202982
0.000186416
0.000185471
0.000185434
0.000203073
0.000201539
0.000202792
0.000199777
0.000183449
0.000181805
0.000202291
0.000201543
0.000203104
0.000204543
0.000203723
0.000199748
0.000202593
0.00018536
0.000187037
0.000203205
0.000204682
0.000203404
0.000185169
0.000185525
0.0001889
0.00020283
0.000199792
0.000205499
0.000204955
0.000181999
0.000188984
0.000203838
0.000204892
0.000207098
0.000206769
0.000202507
0.000204286
0.000203633
0.000187066
0.000188369
0.000203414
0.000206264
0.000205081
0.000187652
0.000189401
0.000190248
0.000207244
0.000207869
0.000210073
0.000211987
0.000190157
0.000192758
0.000208031
0.000207687
0.000209073
0.000209373
0.000205972
0.000211797
0.000210616
0.000188806
0.000190497
0.000206854
0.000209676
0.000210215
0.000191323
0.000190133
0.000190736
0.000210369
0.000212156
0.000210792
0.000211454
0.000192563
0.000190702
0.000209166
0.000209494
0.000210048
0.000209619
0.000210924
0.000211613
0.000211082
0.000190385
0.000189969
0.00021041
0.00021018
0.000210484
0.000190414
0.000190823
0.000191472
0.000210885
0.000210658
0.000211029
0.000209816
0.000190367
0.000189887
0.00021062
0.000209659
0.000211737
0.000212096
0.000210939
0.000210458
0.000211113
0.000189831
0.000192483
0.000210403
0.000211372
0.000210759
0.000191329
0.00019143
0.000193926
0.000211128
0.000209849
0.000213997
0.000213435
0.000189791
0.00019392
0.000212381
0.000213578
0.000214831
0.000215379
0.000211705
0.000213854
0.000215353
0.000193143
0.000194677
0.000211804
0.000215364
0.000215677
0.000194835
0.000194233
0.000194888
0.000215347
0.000215542
0.000217125
0.000218168
0.000194678
0.000196676
0.000215443
0.000215536
0.000216108
0.000214937
0.000215898
0.000217852
0.000216369
0.000194423
0.000193004
0.000215954
0.000215221
0.000216013
0.00019388
0.000194752
0.000195179
0.000217371
0.000218445
0.000217487
0.000217295
0.000196478
0.000194239
0.000216215
0.000214843
0.000216561
0.000215444
0.000216079
0.000216932
0.000215786
0.000192843
0.000194558
0.000215667
0.000215473
0.000215536
0.000193678
0.000195286
0.000195996
0.00021753
0.000216708
0.000217886
0.000216307
0.000193891
0.000193912
0.000217284
0.000216928
0.000218911
0.000220063
0.000215903
0.000216241
0.000218845
0.000195257
0.000197687
0.000215808
0.000220206
0.000219737
0.000197532
0.000195852
0.000196376
0.000218005
0.000216446
0.000218919
0.000220524
0.000194134
0.000198649
0.000219132
0.000220361
0.000219477
0.000220811
0.000219991
0.00022112
0.000221348
0.000197601
0.000197475
0.000220659
0.000221213
0.000221514
0.000198292
0.000196685
0.000199151
0.000220186
0.000222228
0.00022296
0.000224439
0.000199237
0.000200918
0.000219765
0.000220792
0.000222294
0.000221024
0.000221586
0.000224245
0.00022108
0.000197321
0.000197506
0.000221637
0.000220819
0.000220431
0.00019662
0.000199092
0.000198731
0.000223192
0.000224668
0.000223501
0.000223301
0.000200745
0.000198197
0.000222649
0.000221293
0.000223268
0.000222061
0.000220982
0.00022292
0.000221325
0.000197425
0.000198069
0.000220322
0.000221407
0.000220926
0.000197872
0.0001985
0.000198309
0.000223002
0.000221853
0.000222042
0.000219275
0.000197415
0.000194917
0.000223079
0.000222281
0.000222742
0.000223733
0.000222304
0.000219545
0.000224019
0.000198125
0.000199773
0.000222438
0.000224356
0.000225017
0.000200824
0.000198174
0.000198544
0.000222008
0.000219174
0.000222482
0.000220671
0.000194735
0.000198038
0.000222742
0.000223958
0.000223241
0.000224515
0.000224303
0.000221141
0.000223986
0.000199714
0.000199545
0.000225257
0.000224887
0.000224374
0.000198833
0.000198475
0.000201142
0.000222791
0.00022372
0.000226542
0.000230517
0.000199383
0.000206057
0.000223376
0.000224268
0.000225442
0.000224165
0.000223955
0.00023042
0.0002246
0.000199257
0.000199055
0.000223798
0.000223827
0.000223492
0.000199115
0.000201418
0.000202257
0.000227343
0.000230912
0.000228152
0.000230495
0.000206057
0.00020239
0.000226314
0.000224246
0.000227285
0.000225827
0.000225452
0.000230056
0.000226721
0.000199002
0.000200531
0.000223688
0.000225473
0.000226232
0.000201115
0.0002019
0.000199156
0.000228215
0.000227401
0.000224733
0.000221001
0.000200468
0.000194709
0.000227528
0.00022661
0.000225929
0.000227857
0.000226965
0.000221086
0.000226371
0.000200818
0.000202254
0.000226786
0.000228135
0.000227645
0.000201339
0.00019881
0.000199104
0.000224131
0.000220431
0.000223955
0.000221023
0.000194459
0.00019715
0.000225403
0.000227993
0.000225141
0.000227234
0.000225852
0.000221148
0.000224431
0.000202195
0.000200957
0.000227682
0.000227664
0.00022559
0.000199061
0.000199323
0.000201706
0.000224365
0.000223036
0.000227983
0.000230548
0.000198267
0.000205078
0.000225248
0.000225813
0.000226668
0.000223588
0.000224422
0.000230406
0.000225188
0.000200049
0.000197231
0.000224737
0.000223305
0.00022444
0.000199056
0.000201749
0.000202103
0.000228638
0.00023193
0.000229694
0.000233257
0.000205569
0.00020664
0.000227101
0.000223587
0.000228025
0.000225539
0.000226502
0.000233398
0.000230051
0.000197064
0.000200666
0.000224601
0.000225572
0.000228588
0.000203353
0.000201867
0.000199776
0.000229539
0.00023311
0.000226106
0.000225911
0.000205961
0.000198443
0.000228122
0.000227922
0.000227699
0.000230388
0.000230372
0.000226488
0.000230411
0.000201639
0.000204824
0.000229671
0.000230797
0.000230464
0.000203164
0.000198761
0.00019954
0.000224536
0.000222855
0.000226539
0.000222737
0.000196407
0.000195036
0.000226336
0.000230562
0.000227888
0.000228731
0.000227525
0.000222216
0.000224563
0.000204625
0.000199393
0.000229813
0.000228317
0.000225924
0.000196956
0.000201991
0.000225753
0.000221766
0.000197291
0.000226829
0.000226492
0.000244907
0.000251843
0.000247814
0.000223203
0.000201272
0.00022409
9.92324e-06
2.2701e-06
4.31333e-06
4.0504e-06
5.81678e-07
1.99611e-06
6.62159e-07
1.97983e-06
8.11692e-07
2.22391e-06
1.34007e-06
4.76704e-07
2.35391e-06
2.02459e-06
1.25282e-06
1.07756e-06
1.38682e-05
9.70947e-07
1.55074e-05
1.05767e-05
1.27764e-05
1.32968e-06
1.55018e-05
1.26115e-06
1.71686e-05
2.43312e-06
2.6763e-06
2.67229e-06
2.75498e-06
2.43188e-06
2.67424e-06
2.66017e-06
7.28521e-07
3.25976e-07
1.25046e-06
1.69715e-06
6.70105e-07
4.3159e-07
1.24227e-06
1.08106e-05
1.30663e-05
6.42503e-07
1.11059e-06
3.46729e-07
1.78392e-06
7.19991e-07
1.10328e-06
4.70325e-07
1.50112e-06
1.60337e-06
2.32306e-06
1.70938e-06
1.87695e-06
1.36393e-06
1.86985e-05
1.27902e-06
2.10373e-05
1.68673e-05
1.90411e-05
1.51479e-06
2.11105e-05
1.45475e-06
2.36537e-05
2.43605e-06
2.68058e-06
2.67035e-06
2.78441e-06
2.44708e-06
2.69901e-06
2.71981e-06