/*--------------------------------*- C++ -*----------------------------------*\
| =========                 |                                                 |
| \\      /  F ield         | OpenFOAM: The Open Source CFD Toolbox           |
|  \\    /   O peration     | Version:  v2012                                 |
|   \\  /    A nd           | Website:  www.openfoam.com                      |
|    \\/     M anipulation  |                                                 |
\*---------------------------------------------------------------------------*/
FoamFile
{
    version     2.0;
    format      ascii;
    class       volScalarField;
    location    "1712.5";
    object      epsilon;
}
// * * * * * * * * * * * * * * * * * * * * * * * * * * * * * * * * * * * * * //

dimensions      [0 2 -3 0 0 0 0];


internalField   nonuniform List<scalar> 
171728
(
1.8565e-09
3.35468e-09
4.81364e-09
5.29051e-09
1.8323e-09
3.09522e-09
4.39943e-09
4.74671e-09
1.76602e-09
2.83235e-09
3.99544e-09
4.25746e-09
1.69796e-09
2.60216e-09
3.64894e-09
3.84151e-09
1.6253e-09
2.40423e-09
3.3462e-09
3.49487e-09
1.54983e-09
2.23835e-09
3.09048e-09
3.19082e-09
1.48322e-09
2.10374e-09
2.88182e-09
2.93627e-09
1.40745e-09
2.00332e-09
2.72049e-09
2.7268e-09
1.3281e-09
1.93713e-09
2.60499e-09
2.55817e-09
1.20737e-09
1.90454e-09
2.53149e-09
2.42894e-09
1.08478e-09
1.90385e-09
2.48954e-09
2.33747e-09
9.8963e-10
1.93568e-09
2.47339e-09
2.28877e-09
8.98233e-10
2.00762e-09
2.49902e-09
2.28315e-09
8.07542e-10
2.13176e-09
2.5898e-09
2.3327e-09
7.35713e-10
2.33051e-09
2.76883e-09
2.45401e-09
6.95273e-10
2.6386e-09
3.06955e-09
2.69095e-09
6.70391e-10
3.12123e-09
3.53521e-09
3.11375e-09
6.52732e-10
3.86603e-09
4.27202e-09
3.86563e-09
6.39485e-10
4.94132e-09
5.38368e-09
5.163e-09
6.32084e-10
6.64918e-09
7.0539e-09
7.38629e-09
6.29841e-10
9.13917e-09
9.50243e-09
1.08435e-08
6.3901e-10
1.26802e-08
1.29448e-08
1.89469e-08
6.63478e-10
1.73851e-08
1.80286e-08
2.91334e-08
7.0171e-10
2.43028e-08
2.45755e-08
4.43145e-08
7.80682e-10
3.21212e-08
3.3448e-08
7.64115e-08
8.90715e-10
4.56429e-08
4.47056e-08
1.13772e-07
1.07173e-09
5.84816e-08
6.04445e-08
1.54133e-07
1.32843e-09
7.38554e-08
7.47834e-08
2.22051e-07
1.68333e-09
9.71858e-08
9.73446e-08
3.05719e-07
2.20734e-09
1.16361e-07
1.16845e-07
3.5171e-07
2.93051e-09
1.44952e-07
1.45191e-07
4.56349e-07
3.83404e-09
1.73083e-07
1.74644e-07
5.17828e-07
5.25048e-09
2.05165e-07
2.05829e-07
5.89527e-07
6.86831e-09
2.42413e-07
2.42712e-07
6.47444e-07
9.11563e-09
2.75768e-07
2.78208e-07
7.05049e-07
1.22154e-08
3.24408e-07
3.23088e-07
7.58522e-07
1.58267e-08
3.58523e-07
3.60323e-07
7.99855e-07
2.06146e-08
4.1359e-07
4.14956e-07
8.39342e-07
2.64046e-08
4.53645e-07
4.53012e-07
8.82423e-07
3.38288e-08
5.05025e-07
5.08323e-07
9.13218e-07
3.99827e-08
5.45941e-07
5.49792e-07
9.46226e-07
5.12238e-08
6.07257e-07
6.04837e-07
9.79998e-07
6.24135e-08
6.4447e-07
6.49607e-07
1.00174e-06
7.52597e-08
6.97274e-07
6.9345e-07
1.03634e-06
9.12597e-08
7.3759e-07
7.42888e-07
1.06766e-06
1.07323e-07
7.88046e-07
7.82323e-07
1.0862e-06
1.28501e-07
8.24999e-07
8.28896e-07
1.1217e-06
1.47813e-07
8.65549e-07
8.64761e-07
1.14203e-06
1.74214e-07
9.03786e-07
9.05192e-07
1.16826e-06
1.97288e-07
9.37795e-07
9.36578e-07
1.1944e-06
2.28095e-07
9.73392e-07
9.70689e-07
1.21617e-06
2.52679e-07
9.9709e-07
1.00014e-06
1.23551e-06
2.88482e-07
1.02828e-06
1.03104e-06
1.26178e-06
3.14887e-07
1.04807e-06
1.04939e-06
1.2757e-06
3.48716e-07
1.08182e-06
1.07943e-06
1.30083e-06
3.80875e-07
1.10245e-06
1.10225e-06
1.32107e-06
4.11035e-07
1.11197e-06
1.11513e-06
1.32082e-06
4.40164e-07
1.13631e-06
1.13466e-06
1.34678e-06
4.72752e-07
1.16357e-06
1.16071e-06
1.37647e-06
5.02764e-07
1.17345e-06
1.17436e-06
1.37504e-06
5.29399e-07
1.18285e-06
1.18527e-06
1.38001e-06
5.49472e-07
1.20536e-06
1.20686e-06
1.41527e-06
5.80711e-07
1.22241e-06
1.22343e-06
1.42484e-06
6.01045e-07
1.23044e-06
1.22889e-06
1.42108e-06
6.1864e-07
1.24237e-06
1.23855e-06
1.43839e-06
6.41031e-07
1.25665e-06
1.25974e-06
1.45736e-06
6.59843e-07
1.26544e-06
1.26622e-06
1.45694e-06
6.74156e-07
1.2701e-06
1.27403e-06
1.46359e-06
6.93805e-07
1.28402e-06
1.27787e-06
1.47811e-06
7.07798e-07
1.28586e-06
1.28226e-06
1.486e-06
7.19199e-07
1.28972e-06
1.30172e-06
1.48794e-06
7.39798e-07
1.30841e-06
1.30866e-06
1.50127e-06
7.51638e-07
1.31266e-06
1.30044e-06
1.50724e-06
7.54732e-07
1.30308e-06
1.30339e-06
1.50834e-06
7.61825e-07
1.30483e-06
1.31098e-06
1.50377e-06
7.79144e-07
1.32126e-06
1.3201e-06
1.51443e-06
7.9321e-07
1.32492e-06
1.32367e-06
1.52861e-06
7.94655e-07
1.31719e-06
1.31835e-06
1.51592e-06
7.92905e-07
1.31754e-06
1.31815e-06
1.53007e-06
8.02809e-07
1.32318e-06
1.32288e-06
1.53575e-06
8.10447e-07
1.31487e-06
1.31357e-06
1.49257e-06
8.09e-07
1.31874e-06
1.31697e-06
1.53268e-06
8.16362e-07
1.33348e-06
1.33361e-06
1.57251e-06
8.20146e-07
1.32314e-06
1.3273e-06
1.53867e-06
8.08726e-07
1.2981e-06
1.2981e-06
1.47956e-06
8.02771e-07
1.29249e-06
1.29118e-06
1.4827e-06
8.10017e-07
1.31478e-06
1.31539e-06
1.5541e-06
8.20581e-07
1.32814e-06
1.32977e-06
1.58492e-06
8.16855e-07
1.30719e-06
1.30707e-06
1.53304e-06
7.96052e-07
1.27254e-06
1.26913e-06
1.45483e-06
7.79694e-07
1.26388e-06
1.26324e-06
1.46011e-06
7.89831e-07
1.28636e-06
1.28765e-06
1.53061e-06
8.06096e-07
1.29883e-06
1.29918e-06
1.54671e-06
7.93975e-07
1.2731e-06
1.27911e-06
1.50783e-06
7.48354e-07
1.18625e-06
1.18724e-06
1.4283e-06
5.18038e-09
4.91175e-09
3.81032e-09
4.93699e-09
3.67887e-09
4.68348e-09
1.82783e-09
1.22422e-09
1.53616e-09
1.37611e-09
3.63279e-09
3.81564e-09
5.11584e-09
4.21957e-09
4.14031e-09
5.31261e-09
5.16117e-09
4.72138e-09
6.00272e-09
3.29139e-09
5.86083e-09
3.12238e-09
4.91523e-09
4.42377e-09
3.45686e-09
5.42511e-09
3.25081e-09
5.19997e-09
3.46769e-09
3.16613e-09
3.27266e-09
5.08476e-09
4.64338e-09
4.51297e-09
4.51169e-09
4.30742e-09
4.77668e-09
4.68979e-09
4.31185e-09
5.81437e-09
3.05211e-09
5.71246e-09
2.85213e-09
4.39584e-09
3.96148e-09
3.17406e-09
5.11486e-09
2.95978e-09
4.87757e-09
3.19831e-09
2.89498e-09
2.9873e-09
4.59376e-09
4.23066e-09
4.21513e-09
4.09032e-09
3.94775e-09
4.28247e-09
4.28355e-09
4.00163e-09
5.68996e-09
2.78998e-09
5.65615e-09
2.61845e-09
3.93997e-09
3.57267e-09
2.89401e-09
4.80298e-09
2.71472e-09
4.59606e-09
2.92117e-09
2.65656e-09
2.73337e-09
4.18114e-09
3.88394e-09
3.8632e-09
3.73129e-09
3.62505e-09
3.86311e-09
3.96788e-09
3.77099e-09
5.65393e-09
2.56563e-09
5.67255e-09
2.41887e-09
3.55536e-09
3.24724e-09
2.65973e-09
4.53264e-09
2.50968e-09
4.36454e-09
2.67637e-09
2.45036e-09
2.51838e-09
3.84916e-09
3.58918e-09
3.55167e-09
3.41788e-09
3.35105e-09
3.51283e-09
3.73973e-09
3.61361e-09
5.69304e-09
2.37337e-09
5.76348e-09
2.2466e-09
3.23441e-09
2.97492e-09
2.46395e-09
4.31259e-09
2.34116e-09
4.16036e-09
2.46989e-09
2.27674e-09
2.33737e-09
3.56683e-09
3.33106e-09
3.29046e-09
3.14994e-09
3.12423e-09
3.20496e-09
3.59407e-09
3.53358e-09
5.79999e-09
2.20814e-09
5.96841e-09
2.10521e-09
2.96541e-09
2.73367e-09
2.30403e-09
4.1146e-09
2.20708e-09
3.9726e-09
2.29721e-09
2.13415e-09
2.18873e-09
3.31161e-09
3.10194e-09
3.07375e-09
2.92985e-09
2.9376e-09
2.9468e-09
3.5305e-09
3.52711e-09
6.04577e-09
2.07589e-09
6.36273e-09
1.99844e-09
2.7273e-09
2.52927e-09
2.17876e-09
3.91306e-09
2.10772e-09
3.67773e-09
2.15692e-09
2.02528e-09
2.0737e-09
3.08519e-09
2.89441e-09
2.89679e-09
2.75698e-09
2.78444e-09
2.73353e-09
3.53315e-09
3.56699e-09
6.4961e-09
1.97729e-09
6.96555e-09
1.92466e-09
2.52591e-09
2.36705e-09
2.0886e-09
3.58322e-09
2.0443e-09
3.28727e-09
2.05012e-09
1.95043e-09
1.99319e-09
2.88275e-09
2.7366e-09
2.75049e-09
2.63046e-09
2.66515e-09
2.56099e-09
3.57693e-09
3.55949e-09
7.12029e-09
1.91117e-09
7.39141e-09
1.883e-09
2.3674e-09
2.24543e-09
2.0338e-09
3.19077e-09
2.01031e-09
2.92533e-09
1.97795e-09
1.90934e-09
1.94513e-09
2.72977e-09
2.60312e-09
2.64104e-09
2.54716e-09
2.58293e-09
2.42782e-09
3.55021e-09
3.12847e-09
7.40331e-09
1.87814e-09
7.01537e-09
1.87381e-09
2.24854e-09
2.15819e-09
2.00371e-09
2.84735e-09
1.99302e-09
2.64198e-09
1.9377e-09
1.9014e-09
1.93154e-09
2.59927e-09
2.4706e-09
2.56922e-09
2.49698e-09
2.54433e-09
2.33297e-09
3.11017e-09
2.9957e-09
6.76023e-09
1.87598e-09
6.05152e-09
1.89713e-09
2.16448e-09
2.10825e-09
1.99446e-09
2.58152e-09
2.01423e-09
2.41747e-09
1.93323e-09
1.9269e-09
1.95111e-09
2.46928e-09
2.35359e-09
2.54417e-09
2.47319e-09
2.55637e-09
2.27779e-09
3.0001e-09
2.87728e-09
5.87036e-09
1.90888e-09
5.46548e-09
1.9591e-09
2.12108e-09
2.0983e-09
2.02584e-09
2.37546e-09
2.0697e-09
2.27813e-09
1.96145e-09
1.98878e-09
2.01062e-09
2.35785e-09
2.28971e-09
2.56702e-09
2.48694e-09
2.61924e-09
2.26291e-09
2.8786e-09
2.69851e-09
5.34234e-09
1.9833e-09
4.94023e-09
2.07203e-09
2.11941e-09
2.13759e-09
2.08948e-09
2.26134e-09
2.16736e-09
2.26062e-09
2.03346e-09
2.10058e-09
2.12289e-09
2.30336e-09
2.28836e-09
2.64354e-09
2.56052e-09
2.74131e-09
2.29952e-09
2.70526e-09
2.5508e-09
4.79618e-09
2.1106e-09
4.29314e-09
2.25604e-09
2.17144e-09
2.24078e-09
2.19712e-09
2.26965e-09
2.31473e-09
2.3575e-09
2.161e-09
2.27869e-09
2.30535e-09
2.31698e-09
2.37114e-09
2.78187e-09
2.71431e-09
2.92823e-09
2.39985e-09
2.58064e-09
2.6218e-09
4.15573e-09
2.31782e-09
3.87794e-09
2.53799e-09
2.29699e-09
2.44034e-09
2.36909e-09
2.41005e-09
2.59036e-09
2.62567e-09
2.36558e-09
2.55447e-09
2.59435e-09
2.42448e-09
2.55924e-09
2.98608e-09
2.97987e-09
3.20317e-09
2.59909e-09
2.70232e-09
2.9189e-09
3.82334e-09
2.63061e-09
3.80789e-09
2.98125e-09
2.53253e-09
2.81338e-09
2.6839e-09
2.71757e-09
3.01885e-09
3.06084e-09
2.68596e-09
2.98738e-09
3.03118e-09
2.6477e-09
2.91242e-09
3.29452e-09
3.40048e-09
3.62618e-09
2.95667e-09
3.07116e-09
3.52569e-09
3.82744e-09
3.1207e-09
4.13975e-09
3.64535e-09
2.96875e-09
3.43958e-09
3.16321e-09
3.20064e-09
3.67505e-09
3.73296e-09
3.17794e-09
3.64664e-09
3.69307e-09
3.06301e-09
3.54318e-09
3.77323e-09
4.05556e-09
4.30697e-09
3.59555e-09
3.77992e-09
4.65192e-09
4.31931e-09
3.87207e-09
5.06406e-09
4.65108e-09
3.71012e-09
4.52246e-09
3.88632e-09
3.955e-09
4.6893e-09
4.74364e-09
3.92331e-09
4.63585e-09
4.70776e-09
3.80679e-09
4.62337e-09
4.54312e-09
5.05094e-09
5.37297e-09
4.71439e-09
5.0398e-09
6.63253e-09
5.35541e-09
4.96012e-09
6.52485e-09
6.23995e-09
4.90218e-09
6.68839e-09
4.98966e-09
5.0891e-09
6.17132e-09
6.27842e-09
5.03578e-09
6.20815e-09
6.22085e-09
5.05778e-09
6.60308e-09
5.74076e-09
6.56331e-09
6.93644e-09
6.636e-09
7.2523e-09
1.03551e-08
6.99962e-09
6.68785e-09
8.8279e-09
8.4593e-09
7.36584e-09
9.92325e-09
6.63651e-09
6.77619e-09
8.45097e-09
8.50381e-09
6.74903e-09
8.40474e-09
8.34365e-09
7.28537e-09
1.0003e-08
7.57466e-09
8.78812e-09
9.04433e-09
9.99758e-09
1.12945e-08
1.67705e-08
9.37684e-09
9.19367e-09
1.22757e-08
1.15831e-08
1.13937e-08
1.54067e-08
9.00641e-09
9.22113e-09
1.18535e-08
1.17714e-08
9.00782e-09
1.15179e-08
1.19716e-08
1.10702e-08
1.59477e-08
9.72317e-09
1.20031e-08
1.29314e-08
1.74002e-08
1.94423e-08
2.42463e-08
1.33408e-08
1.27575e-08
1.61252e-08
1.61058e-08
1.76122e-08
2.56267e-08
1.28844e-08
1.27337e-08
1.57718e-08
1.64006e-08
1.27431e-08
1.60041e-08
1.59538e-08
1.75513e-08
2.63048e-08
1.359e-08
1.66125e-08
1.72442e-08
2.47383e-08
2.70635e-08
4.54012e-08
1.77964e-08
1.74674e-08
2.3215e-08
2.24038e-08
2.78793e-08
4.32661e-08
1.74412e-08
1.78472e-08
2.25776e-08
2.26082e-08
1.78834e-08
2.22484e-08
2.23302e-08
2.93554e-08
4.18965e-08
1.93388e-08
2.27318e-08
2.30991e-08
4.27182e-08
4.84651e-08
6.24954e-08
2.46815e-08
2.45403e-08
3.04653e-08
3.05352e-08
4.73591e-08
6.74018e-08
2.4083e-08
2.44563e-08
3.01239e-08
3.06486e-08
2.35668e-08
3.04033e-08
3.07105e-08
4.5845e-08
6.62979e-08
2.42653e-08
3.07298e-08
3.23408e-08
6.52652e-08
6.9264e-08
1.02907e-07
3.34194e-08
3.22076e-08
4.16602e-08
4.20976e-08
7.1155e-08
1.00409e-07
3.29988e-08
3.33391e-08
4.10806e-08
4.2262e-08
3.37556e-08
4.17536e-08
4.20552e-08
7.2197e-08
1.05276e-07
3.60575e-08
4.2343e-08
4.61365e-08
1.07633e-07
1.09747e-07
1.47103e-07
4.42863e-08
4.60549e-08
5.58794e-08
5.52223e-08
1.15771e-07
1.52462e-07
4.37326e-08
4.46986e-08
5.52179e-08
5.60644e-08
4.44591e-08
5.51789e-08
5.48496e-08
1.13693e-07
1.44846e-07
4.86036e-08
5.59491e-08
5.79006e-08
1.43281e-07
1.60159e-07
2.02406e-07
5.96144e-08
5.84554e-08
7.02782e-08
6.97413e-08
1.59486e-07
1.99869e-07
5.89025e-08
6.05706e-08
6.96344e-08
7.0639e-08
5.94755e-08
6.93425e-08
7.04714e-08
1.59821e-07
2.06214e-07
6.29728e-08
7.04667e-08
7.57773e-08
2.12284e-07
2.13368e-07
2.78833e-07
7.54607e-08
7.45058e-08
9.15622e-08
9.16662e-08
2.11098e-07
2.81226e-07
7.48048e-08
7.50122e-08
9.03178e-08
9.22291e-08
7.4843e-08
9.11191e-08
9.30443e-08
2.14096e-07
2.83892e-07
7.96102e-08
9.22401e-08
9.83058e-08
2.87002e-07
2.9444e-07
3.43246e-07
9.57709e-08
9.72632e-08
1.12146e-07
1.11325e-07
2.98653e-07
3.52678e-07
9.46102e-08
9.73008e-08
1.11647e-07
1.12068e-07
9.7706e-08
1.1186e-07
1.09266e-07
3.03426e-07
3.45507e-07
1.03859e-07
1.11486e-07
1.14542e-07
3.41305e-07
3.5876e-07
4.30653e-07
1.18843e-07
1.16639e-07
1.38117e-07
1.38242e-07
3.66477e-07
4.20769e-07
1.18189e-07
1.17777e-07
1.36675e-07
1.37786e-07
1.14943e-07
1.36966e-07
1.40561e-07
3.58139e-07
4.26013e-07
1.18774e-07
1.37348e-07
1.41905e-07
4.35527e-07
4.46077e-07
5.00024e-07
1.44957e-07
1.4577e-07
1.66211e-07
1.6622e-07
4.4011e-07
5.0812e-07
1.43903e-07
1.45497e-07
1.647e-07
1.6809e-07
1.48666e-07
1.66132e-07
1.66116e-07
4.42504e-07
5.0711e-07
1.51665e-07
1.67689e-07
1.72458e-07
5.05077e-07
5.16452e-07
5.73776e-07
1.73535e-07
1.73126e-07
1.99955e-07
1.96866e-07
5.20321e-07
5.705e-07
1.72154e-07
1.74704e-07
1.98291e-07
1.98354e-07
1.71944e-07
1.96301e-07
1.99575e-07
5.2328e-07
5.69004e-07
1.78502e-07
1.97187e-07
2.04419e-07
5.71791e-07
5.88041e-07
6.36008e-07
2.08237e-07
2.06107e-07
2.31224e-07
2.34742e-07
5.88049e-07
6.36858e-07
2.06399e-07
2.07595e-07
2.30574e-07
2.34639e-07
2.1014e-07
2.33709e-07
2.31923e-07
5.83902e-07
6.39275e-07
2.13938e-07
2.33828e-07
2.34635e-07
6.36754e-07
6.49659e-07
6.92926e-07
2.4155e-07
2.43001e-07
2.72126e-07
2.66343e-07
6.49837e-07
6.92012e-07
2.39882e-07
2.4347e-07
2.68837e-07
2.69878e-07
2.38892e-07
2.65901e-07
2.69228e-07
6.52424e-07
6.92083e-07
2.40708e-07
2.68116e-07
2.66985e-07
6.88913e-07
7.07041e-07
7.44453e-07
2.80225e-07
2.76657e-07
3.1253e-07
3.14565e-07
7.05022e-07
7.46135e-07
2.79081e-07
2.79767e-07
3.1017e-07
3.14415e-07
2.79443e-07
3.13342e-07
3.10847e-07
7.05859e-07
7.45143e-07
2.76598e-07
3.13037e-07
3.10205e-07
7.47764e-07
7.56154e-07
7.9234e-07
3.24397e-07
3.25321e-07
3.53339e-07
3.50021e-07
7.58326e-07
7.87997e-07
3.19575e-07
3.24734e-07
3.52234e-07
3.50937e-07
3.22095e-07
3.49421e-07
3.5197e-07
7.56601e-07
7.89109e-07
3.24144e-07
3.493e-07
3.57444e-07
7.89377e-07
8.03365e-07
8.30802e-07
3.6487e-07
3.59369e-07
4.03021e-07
4.0103e-07
7.98634e-07
8.32826e-07
3.65029e-07
3.61798e-07
3.97251e-07
4.04356e-07
3.61569e-07
3.99627e-07
3.95726e-07
8.00568e-07
8.33588e-07
3.65703e-07
4.0272e-07
3.95671e-07
8.28202e-07
8.41161e-07
8.70492e-07
4.13118e-07
4.14671e-07
4.44554e-07
4.43878e-07
8.44472e-07
8.69963e-07
4.06545e-07
4.16449e-07
4.43235e-07
4.4445e-07
4.07562e-07
4.43174e-07
4.4443e-07
8.44439e-07
8.69562e-07
4.07089e-07
4.42725e-07
4.43515e-07
8.72364e-07
8.80781e-07
9.0724e-07
4.58908e-07
4.54494e-07
4.99253e-07
4.95208e-07
8.78649e-07
9.03949e-07
4.57612e-07
4.55368e-07
4.9479e-07
4.98538e-07
4.58632e-07
4.93835e-07
4.96888e-07
8.7882e-07
9.05651e-07
4.57592e-07
4.95516e-07
4.96351e-07
9.05157e-07
9.15194e-07
9.33879e-07
5.09799e-07
5.06487e-07
5.37452e-07
5.3503e-07
9.1301e-07
9.3444e-07
5.05342e-07
5.10872e-07
5.35437e-07
5.40156e-07
5.06409e-07
5.33727e-07
5.36562e-07
9.14789e-07
9.35818e-07
5.06075e-07
5.3796e-07
5.36364e-07
9.36453e-07
9.42311e-07
9.68339e-07
5.47304e-07
5.4699e-07
5.87986e-07
5.94525e-07
9.43527e-07
9.71912e-07
5.46804e-07
5.51909e-07
5.88317e-07
5.96722e-07
5.50606e-07
5.94016e-07
5.95492e-07
9.4458e-07
9.71921e-07
5.50361e-07
5.93804e-07
5.93723e-07
9.73003e-07
9.77758e-07
9.99487e-07
6.02731e-07
6.07826e-07
6.39333e-07
6.35994e-07
9.80044e-07
9.96286e-07
6.02444e-07
6.07849e-07
6.36528e-07
6.40135e-07
6.06451e-07
6.35032e-07
6.3349e-07
9.80269e-07
9.98186e-07
6.04655e-07
6.37748e-07
6.34162e-07
9.94543e-07
1.00638e-06
1.0264e-06
6.50067e-07
6.45538e-07
6.83753e-07
6.84993e-07
1.0036e-06
1.02858e-06
6.47087e-07
6.52432e-07
6.81904e-07
6.84002e-07
6.43285e-07
6.83444e-07
6.80806e-07
1.00575e-06
1.02748e-06
6.44279e-07
6.8123e-07
6.79853e-07
1.02688e-06
1.0346e-06
1.05649e-06
6.95844e-07
6.99014e-07
7.31088e-07
7.29276e-07
1.03698e-06
1.05463e-06
6.94508e-07
6.9529e-07
7.30548e-07
7.34336e-07
6.96168e-07
7.2821e-07
7.38166e-07
1.03478e-06
1.05677e-06
6.94528e-07
7.32651e-07
7.37472e-07
1.06137e-06
1.06334e-06
1.08246e-06
7.41247e-07
7.38256e-07
7.73323e-07
7.74632e-07
1.0611e-06
1.08338e-06
7.40945e-07
7.44742e-07
7.72455e-07
7.75093e-07
7.47823e-07
7.74625e-07
7.71459e-07
1.06447e-06
1.08215e-06
7.47846e-07
7.70538e-07
7.71775e-07
1.08022e-06
1.08999e-06
1.11173e-06
7.86021e-07
7.8854e-07
8.18734e-07
8.18987e-07
1.09195e-06
1.11157e-06
7.84651e-07
7.87493e-07
8.17628e-07
8.21692e-07
7.80842e-07
8.1741e-07
8.19101e-07
1.08897e-06
1.11321e-06
7.8072e-07
8.19682e-07
8.18088e-07
1.11294e-06
1.11791e-06
1.13423e-06
8.26737e-07
8.26517e-07
8.54967e-07
8.53589e-07
1.11674e-06
1.13247e-06
8.26049e-07
8.29733e-07
8.55414e-07
8.53384e-07
8.30746e-07
8.53055e-07
8.57101e-07
1.1198e-06
1.13359e-06
8.3054e-07
8.5383e-07
8.57507e-07
1.13689e-06
1.14145e-06
1.16399e-06
8.67209e-07
8.65795e-07
8.96766e-07
8.97129e-07
1.14055e-06
1.16445e-06
8.67122e-07
8.64253e-07
8.94819e-07
8.99126e-07
8.66253e-07
8.96736e-07
8.93685e-07
1.13992e-06
1.16536e-06
8.66203e-07
8.9776e-07
8.93143e-07
1.16143e-06
1.16931e-06
1.18412e-06
9.03619e-07
9.04152e-07
9.28674e-07
9.28137e-07
1.16951e-06
1.1834e-06
9.01933e-07
9.06915e-07
9.29043e-07
9.28216e-07
9.02563e-07
9.27281e-07
9.3263e-07
1.17148e-06
1.1838e-06
9.02144e-07
9.26856e-07
9.32056e-07
1.18752e-06
1.19168e-06
1.2124e-06
9.39706e-07
9.38964e-07
9.64977e-07
9.66399e-07
1.19099e-06
1.21506e-06
9.40071e-07
9.37737e-07
9.63929e-07
9.64448e-07
9.42433e-07
9.67313e-07
9.64293e-07
1.18955e-06
1.21131e-06
9.41953e-07
9.64385e-07
9.64789e-07
1.21143e-06
1.21671e-06
1.22848e-06
9.70594e-07
9.71847e-07
9.90859e-07
9.89105e-07
1.21959e-06
1.22874e-06
9.6946e-07
9.70654e-07
9.90125e-07
9.92408e-07
9.70015e-07
9.90079e-07
9.90274e-07
1.21665e-06
1.23017e-06
9.70597e-07
9.91116e-07
9.89528e-07
1.22952e-06
1.23557e-06
1.25771e-06
1.00023e-06
9.97101e-07
1.02449e-06
1.02312e-06
1.2342e-06
1.25465e-06
9.99699e-07
1.0021e-06
1.02416e-06
1.02703e-06
9.98976e-07
1.02199e-06
1.02564e-06
1.23698e-06
1.25956e-06
9.97494e-07
1.02574e-06
1.02361e-06
1.25615e-06
1.2618e-06
1.26858e-06
1.0293e-06
1.02904e-06
1.04391e-06
1.04242e-06
1.25969e-06
1.26838e-06
1.02888e-06
1.03178e-06
1.04312e-06
1.04393e-06
1.03218e-06
1.04248e-06
1.04583e-06
1.26416e-06
1.2695e-06
1.03021e-06
1.04411e-06
1.04439e-06
1.2719e-06
1.27363e-06
1.29676e-06
1.05056e-06
1.0481e-06
1.07249e-06
1.07238e-06
1.2729e-06
1.29419e-06
1.04967e-06
1.04928e-06
1.07353e-06
1.07208e-06
1.0503e-06
1.07212e-06
1.07025e-06
1.27326e-06
1.29414e-06
1.04929e-06
1.0709e-06
1.07079e-06
1.29256e-06
1.30189e-06
1.30965e-06
1.07769e-06
1.08153e-06
1.09406e-06
1.09947e-06
1.30217e-06
1.31904e-06
1.07915e-06
1.08086e-06
1.09188e-06
1.09587e-06
1.07961e-06
1.10005e-06
1.09932e-06
1.30206e-06
1.31494e-06
1.08045e-06
1.09765e-06
1.10017e-06
1.31862e-06
1.31398e-06
1.32702e-06
1.09982e-06
1.10226e-06
1.11273e-06
1.10943e-06
1.32193e-06
1.32061e-06
1.09742e-06
1.10029e-06
1.11388e-06
1.11354e-06
1.10135e-06
1.10867e-06
1.10656e-06
1.31842e-06
1.32686e-06
1.10239e-06
1.11243e-06
1.10784e-06
1.31818e-06
1.33069e-06
1.34118e-06
1.11656e-06
1.11292e-06
1.13315e-06
1.12942e-06
1.32328e-06
1.33914e-06
1.11744e-06
1.11684e-06
1.13033e-06
1.12936e-06
1.11007e-06
1.12855e-06
1.1292e-06
1.33002e-06
1.33665e-06
1.11112e-06
1.12788e-06
1.12859e-06
1.33782e-06
1.3472e-06
1.36015e-06
1.13896e-06
1.13686e-06
1.15152e-06
1.1564e-06
1.34664e-06
1.36572e-06
1.13685e-06
1.13604e-06
1.15369e-06
1.15664e-06
1.13838e-06
1.15823e-06
1.16227e-06
1.34231e-06
1.36475e-06
1.13705e-06
1.15622e-06
1.16042e-06
1.37244e-06
1.3636e-06
1.375e-06
1.15569e-06
1.16134e-06
1.17287e-06
1.1722e-06
1.37084e-06
1.37806e-06
1.15718e-06
1.16014e-06
1.16983e-06
1.17003e-06
1.16558e-06
1.17221e-06
1.16879e-06
1.36888e-06
1.37438e-06
1.16371e-06
1.17134e-06
1.16688e-06
1.3738e-06
1.38061e-06
1.38795e-06
1.17815e-06
1.17443e-06
1.18572e-06
1.18106e-06
1.38007e-06
1.37995e-06
1.17542e-06
1.17451e-06
1.18584e-06
1.18457e-06
1.17002e-06
1.17939e-06
1.17837e-06
1.37818e-06
1.38486e-06
1.16828e-06
1.18205e-06
1.17748e-06
1.37558e-06
1.38992e-06
1.39497e-06
1.18729e-06
1.18428e-06
1.19653e-06
1.19798e-06
1.38314e-06
1.39871e-06
1.18759e-06
1.18753e-06
1.19653e-06
1.20024e-06
1.18301e-06
1.19851e-06
1.2031e-06
1.38783e-06
1.40054e-06
1.18258e-06
1.20052e-06
1.20435e-06
1.40683e-06
1.40017e-06
1.41918e-06
1.20162e-06
1.20408e-06
1.21975e-06
1.21952e-06
1.40541e-06
1.41849e-06
1.20137e-06
1.20474e-06
1.21907e-06
1.21798e-06
1.21074e-06
1.22008e-06
1.22047e-06
1.40674e-06
1.41813e-06
1.21258e-06
1.22052e-06
1.2221e-06
1.42381e-06
1.42341e-06
1.42354e-06
1.22306e-06
1.22233e-06
1.22708e-06
1.22825e-06
1.4214e-06
1.42448e-06
1.223e-06
1.22251e-06
1.22777e-06
1.23075e-06
1.22075e-06
1.2282e-06
1.22462e-06
1.42151e-06
1.42528e-06
1.22205e-06
1.22797e-06
1.22332e-06
1.41834e-06
1.42511e-06
1.43243e-06
1.22881e-06
1.23053e-06
1.23834e-06
1.24011e-06
1.42758e-06
1.43624e-06
1.22928e-06
1.23171e-06
1.2374e-06
1.23647e-06
1.22762e-06
1.23916e-06
1.23943e-06
1.42715e-06
1.42891e-06
1.22599e-06
1.23467e-06
1.23667e-06
1.43265e-06
1.43789e-06
1.44965e-06
1.24279e-06
1.24313e-06
1.25238e-06
1.25162e-06
1.44006e-06
1.44725e-06
1.24123e-06
1.23972e-06
1.25308e-06
1.25437e-06
1.24426e-06
1.25259e-06
1.25647e-06
1.433e-06
1.45104e-06
1.24118e-06
1.25519e-06
1.25591e-06
1.45377e-06
1.45264e-06
1.45711e-06
1.25437e-06
1.25563e-06
1.26278e-06
1.26578e-06
1.4517e-06
1.46123e-06
1.25593e-06
1.25912e-06
1.26224e-06
1.2657e-06
1.25833e-06
1.26481e-06
1.26031e-06
1.45618e-06
1.45979e-06
1.25862e-06
1.26518e-06
1.26144e-06
1.45568e-06
1.45979e-06
1.4613e-06
1.26502e-06
1.2668e-06
1.26949e-06
1.26875e-06
1.46324e-06
1.46026e-06
1.26371e-06
1.26681e-06
1.26913e-06
1.27185e-06
1.26114e-06
1.26789e-06
1.26675e-06
1.46167e-06
1.46673e-06
1.26246e-06
1.2716e-06
1.26859e-06
1.45945e-06
1.46441e-06
1.477e-06
1.27155e-06
1.27076e-06
1.28053e-06
1.28002e-06
1.46299e-06
1.47534e-06
1.27203e-06
1.2742e-06
1.28299e-06
1.27767e-06
1.26963e-06
1.28032e-06
1.28037e-06
1.47077e-06
1.47255e-06
1.27147e-06
1.27805e-06
1.28023e-06
1.47454e-06
1.48111e-06
1.4798e-06
1.28383e-06
1.28339e-06
1.28744e-06
1.28636e-06
1.48063e-06
1.48084e-06
1.28478e-06
1.27729e-06
1.28402e-06
1.27782e-06
1.28407e-06
1.28692e-06
1.29049e-06
1.47348e-06
1.46703e-06
1.28222e-06
1.27909e-06
1.28677e-06
1.48375e-06
1.48103e-06
1.48268e-06
1.28725e-06
1.28536e-06
1.28897e-06
1.28591e-06
1.48163e-06
1.47645e-06
1.2838e-06
1.28118e-06
1.28984e-06
1.29764e-06
1.29062e-06
1.28633e-06
1.29019e-06
1.47043e-06
1.49317e-06
1.28767e-06
1.29606e-06
1.29088e-06
1.48543e-06
1.48694e-06
1.50397e-06
1.29203e-06
1.28947e-06
1.3042e-06
1.30428e-06
1.4805e-06
1.50144e-06
1.2942e-06
1.30439e-06
1.3089e-06
1.31318e-06
1.29138e-06
1.30357e-06
1.30071e-06
1.50196e-06
1.5149e-06
1.29312e-06
1.30928e-06
1.30289e-06
1.49702e-06
1.50884e-06
1.50691e-06
1.3083e-06
1.30958e-06
1.31181e-06
1.31512e-06
1.50835e-06
1.51579e-06
1.311e-06
1.312e-06
1.30787e-06
1.30075e-06
1.30404e-06
1.31362e-06
1.31015e-06
1.51576e-06
1.49544e-06
1.30559e-06
1.30178e-06
1.30808e-06
1.50541e-06
1.50779e-06
1.49959e-06
1.31082e-06
1.31365e-06
1.30625e-06
1.30403e-06
1.51673e-06
1.49946e-06
1.30557e-06
1.29783e-06
1.3014e-06
1.29589e-06
1.31062e-06
1.30517e-06
1.30993e-06
1.49578e-06
1.49038e-06
1.30807e-06
1.30166e-06
1.30843e-06
1.50697e-06
1.50077e-06
1.49612e-06
1.30487e-06
1.30132e-06
1.30188e-06
1.29997e-06
1.49957e-06
1.49164e-06
1.30092e-06
1.29743e-06
1.30238e-06
1.30577e-06
1.30878e-06
1.30201e-06
1.3058e-06
1.49294e-06
1.50083e-06
1.30842e-06
1.30879e-06
1.3073e-06
1.50253e-06
1.49866e-06
1.51512e-06
1.30256e-06
1.30344e-06
1.31532e-06
1.31791e-06
1.49594e-06
1.51827e-06
1.3051e-06
1.3099e-06
1.31858e-06
1.32271e-06
1.3056e-06
1.31714e-06
1.3125e-06
1.50592e-06
1.52172e-06
1.30728e-06
1.31792e-06
1.31256e-06
1.50923e-06
1.52199e-06
1.52985e-06
1.32054e-06
1.32246e-06
1.32762e-06
1.32653e-06
1.52448e-06
1.52939e-06
1.32309e-06
1.32497e-06
1.32699e-06
1.3259e-06
1.31656e-06
1.32548e-06
1.32484e-06
1.52605e-06
1.52806e-06
1.3159e-06
1.32367e-06
1.32387e-06
1.52682e-06
1.53113e-06
1.52398e-06
1.32741e-06
1.32586e-06
1.32264e-06
1.32042e-06
1.53051e-06
1.52045e-06
1.32625e-06
1.32469e-06
1.32141e-06
1.31991e-06
1.32464e-06
1.31902e-06
1.31814e-06
1.52924e-06
1.52072e-06
1.32386e-06
1.3199e-06
1.31834e-06
1.51538e-06
1.52504e-06
1.5146e-06
1.32088e-06
1.31843e-06
1.31497e-06
1.31462e-06
1.52124e-06
1.51332e-06
1.31975e-06
1.31797e-06
1.31433e-06
1.31444e-06
1.31707e-06
1.31585e-06
1.32227e-06
1.52159e-06
1.51387e-06
1.31743e-06
1.31687e-06
1.32273e-06
1.52259e-06
1.51547e-06
1.51606e-06
1.31403e-06
1.31492e-06
1.31775e-06
1.32107e-06
1.5154e-06
1.52279e-06
1.31355e-06
1.31477e-06
1.31725e-06
1.32084e-06
1.32576e-06
1.32287e-06
1.32709e-06
1.51586e-06
1.52354e-06
1.32615e-06
1.32276e-06
1.32709e-06
1.53688e-06
1.52022e-06
1.52937e-06
1.32048e-06
1.32287e-06
1.32493e-06
1.32198e-06
1.52652e-06
1.52317e-06
1.31989e-06
1.32249e-06
1.32421e-06
1.32044e-06
1.32099e-06
1.31704e-06
1.30354e-06
1.5272e-06
1.52171e-06
1.32081e-06
1.31589e-06
1.30349e-06
1.49233e-06
1.53093e-06
1.52315e-06
1.32422e-06
1.31922e-06
1.3183e-06
1.31595e-06
1.52403e-06
1.51914e-06
1.32346e-06
1.31761e-06
1.31751e-06
1.31425e-06
1.30239e-06
1.31491e-06
1.3197e-06
1.5224e-06
1.51641e-06
1.30238e-06
1.31325e-06
1.31927e-06
1.51889e-06
1.52455e-06
1.53163e-06
1.31803e-06
1.31701e-06
1.32422e-06
1.32732e-06
1.52298e-06
1.53909e-06
1.31721e-06
1.31541e-06
1.32372e-06
1.32693e-06
1.3288e-06
1.33121e-06
1.34682e-06
1.52023e-06
1.5374e-06
1.32806e-06
1.33016e-06
1.34572e-06
1.56969e-06
1.53666e-06
1.54005e-06
1.32723e-06
1.33009e-06
1.3294e-06
1.32856e-06
1.54405e-06
1.53878e-06
1.32697e-06
1.33065e-06
1.32992e-06
1.33207e-06
1.34672e-06
1.32872e-06
1.3264e-06
1.54324e-06
1.54407e-06
1.34581e-06
1.33304e-06
1.32747e-06
1.54196e-06
1.54054e-06
1.5147e-06
1.32591e-06
1.32356e-06
1.30941e-06
1.30718e-06
1.53887e-06
1.51063e-06
1.32676e-06
1.32735e-06
1.30965e-06
1.30795e-06
1.31678e-06
1.30374e-06
1.28692e-06
1.54432e-06
1.5119e-06
1.31821e-06
1.30527e-06
1.28757e-06
1.481e-06
1.51459e-06
1.50409e-06
1.30449e-06
1.30241e-06
1.29802e-06
1.29574e-06
1.51059e-06
1.49959e-06
1.30441e-06
1.30193e-06
1.29731e-06
1.29424e-06
1.2811e-06
1.29152e-06
1.28145e-06
1.51111e-06
1.49701e-06
1.28095e-06
1.28986e-06
1.27999e-06
1.47427e-06
1.50682e-06
1.51768e-06
1.29815e-06
1.29584e-06
1.30534e-06
1.3051e-06
1.50221e-06
1.51681e-06
1.29743e-06
1.29462e-06
1.30492e-06
1.30522e-06
1.28973e-06
1.30786e-06
1.32267e-06
1.50012e-06
1.51717e-06
1.28836e-06
1.30818e-06
1.32265e-06
1.53993e-06
1.5233e-06
1.53684e-06
1.30933e-06
1.3102e-06
1.31887e-06
1.32217e-06
1.52426e-06
1.54424e-06
1.30905e-06
1.31045e-06
1.31921e-06
1.32295e-06
1.33386e-06
1.32777e-06
1.34598e-06
1.5246e-06
1.54506e-06
1.33448e-06
1.32923e-06
1.34758e-06
1.58313e-06
1.54011e-06
1.53402e-06
1.32002e-06
1.32324e-06
1.31607e-06
1.31556e-06
1.54807e-06
1.5375e-06
1.32042e-06
1.32428e-06
1.31567e-06
1.31597e-06
1.3436e-06
1.31464e-06
1.31104e-06
1.54936e-06
1.5396e-06
1.34517e-06
1.31543e-06
1.31106e-06
1.53871e-06
1.53457e-06
1.51018e-06
1.31174e-06
1.30983e-06
1.29236e-06
1.28651e-06
1.53701e-06
1.4981e-06
1.31095e-06
1.30931e-06
1.29073e-06
1.28373e-06
1.2973e-06
1.27971e-06
1.25815e-06
1.53875e-06
1.49408e-06
1.29665e-06
1.27668e-06
1.25561e-06
1.45685e-06
1.50922e-06
1.47914e-06
1.28457e-06
1.27875e-06
1.26437e-06
1.26441e-06
1.49693e-06
1.47538e-06
1.28304e-06
1.27609e-06
1.2646e-06
1.26504e-06
1.25169e-06
1.26316e-06
1.25304e-06
1.49266e-06
1.47411e-06
1.24883e-06
1.26142e-06
1.25038e-06
1.45057e-06
1.47944e-06
1.48143e-06
1.26198e-06
1.26391e-06
1.26863e-06
1.27466e-06
1.47691e-06
1.49277e-06
1.2625e-06
1.26523e-06
1.26866e-06
1.27609e-06
1.26205e-06
1.27893e-06
1.29255e-06
1.47697e-06
1.49643e-06
1.25996e-06
1.28028e-06
1.29266e-06
1.51851e-06
1.48871e-06
1.52394e-06
1.27617e-06
1.28166e-06
1.2969e-06
1.29765e-06
1.50173e-06
1.52856e-06
1.27573e-06
1.28211e-06
1.29553e-06
1.29449e-06
1.3013e-06
1.29881e-06
1.30633e-06
1.50449e-06
1.52451e-06
1.30224e-06
1.29875e-06
1.30848e-06
1.54596e-06
1.53082e-06
1.52277e-06
1.30022e-06
1.29873e-06
1.28707e-06
1.28142e-06
1.53264e-06
1.51336e-06
1.29905e-06
1.29587e-06
1.28785e-06
1.28505e-06
1.30301e-06
1.27872e-06
1.27778e-06
1.52851e-06
1.51849e-06
1.30545e-06
1.2843e-06
1.28011e-06
1.51007e-06
1.52137e-06
1.4519e-06
1.28039e-06
1.27572e-06
1.22678e-06
1.22625e-06
1.51163e-06
1.44901e-06
1.28145e-06
1.28013e-06
1.22871e-06
1.23206e-06
1.27207e-06
1.22588e-06
1.22742e-06
1.5179e-06
1.45799e-06
1.27422e-06
1.22939e-06
1.2272e-06
1.45217e-06
1.42532e-06
1.1847e-06
1.18555e-06
1.42491e-06
1.18592e-06
1.18909e-06
7.48195e-07
7.48937e-07
7.46938e-07
1.18716e-06
1.43162e-06
1.1861e-06
3.67519e-11
2.88947e-09
1.71488e-10
1.5488e-10
5.46918e-09
3.54492e-09
2.8661e-09
9.49382e-10
5.51829e-09
4.44622e-09
1.02184e-09
1.11189e-08
5.48963e-09
1.99214e-09
2.47088e-09
7.52966e-09
1.63416e-07
5.99176e-09
2.59547e-07
1.4686e-06
2.91459e-06
8.68086e-09
1.57838e-07
7.38434e-09
2.48114e-07
1.24135e-09
1.57229e-09
1.39829e-09
1.84941e-09
1.21746e-09
1.55106e-09
1.37697e-09
4.7809e-09
7.43134e-08
2.70491e-09
3.30516e-09
5.01582e-09
5.33249e-08
2.67673e-09
1.5839e-06
3.14089e-06
4.78103e-09
3.02024e-09
8.65357e-08
4.73726e-09
5.03854e-09
2.98423e-09
6.46978e-08
2.0992e-07
2.10852e-07
5.05681e-09
1.77999e-07
1.79888e-07
1.68932e-08
4.71275e-07
1.21021e-08
6.79988e-07
6.69533e-06
9.6811e-06
1.78077e-08
4.46275e-07
1.33928e-08
6.54856e-07
1.20047e-09
1.52984e-09
1.35934e-09
1.78273e-09