/*--------------------------------*- C++ -*----------------------------------*\
| =========                 |                                                 |
| \\      /  F ield         | OpenFOAM: The Open Source CFD Toolbox           |
|  \\    /   O peration     | Version:  v2012                                 |
|   \\  /    A nd           | Website:  www.openfoam.com                      |
|    \\/     M anipulation  |                                                 |
\*---------------------------------------------------------------------------*/
FoamFile
{
    version     2.0;
    format      ascii;
    class       volScalarField;
    location    "1712.5";
    object      p;
}
// * * * * * * * * * * * * * * * * * * * * * * * * * * * * * * * * * * * * * //

dimensions      [0 2 -2 0 0 0 0];


internalField   nonuniform List<scalar> 
171728
(
0.00351961
0.00351856
0.00351856
0.00351928
0.00348418
0.00348281
0.00348268
0.00348562
0.00344576
0.00344387
0.0034438
0.00344614
0.0034017
0.00340003
0.00340001
0.00340224
0.0033537
0.00335227
0.00335226
0.00335452
0.00330484
0.00330354
0.00330358
0.00330588
0.00325658
0.00325543
0.00325541
0.00325777
0.00320925
0.00320821
0.00320821
0.00321058
0.00316293
0.00316202
0.00316202
0.0031644
0.00311758
0.00311683
0.00311681
0.00311918
0.00307314
0.00307247
0.00307248
0.00307482
0.00302946
0.00302892
0.00302892
0.00303126
0.00298635
0.00298591
0.00298588
0.00298828
0.00294368
0.00294332
0.00294337
0.0029457
0.00290132
0.00290113
0.00290116
0.00290332
0.0028593
0.00285917
0.00285907
0.00286132
0.0028176
0.00281753
0.00281744
0.00281968
0.0027762
0.00277623
0.00277622
0.00277842
0.00273517
0.00273506
0.00273515
0.00273741
0.00269454
0.00269462
0.00269448
0.00269661
0.00265421
0.00265443
0.00265425
0.00265612
0.00261421
0.00261442
0.00261432
0.00261609
0.00257447
0.00257457
0.00257466
0.00257625
0.00253502
0.00253528
0.00253528
0.00253682
0.00249583
0.0024961
0.00249614
0.00249823
0.00245687
0.00245749
0.00245727
0.00245888
0.00241809
0.0024186
0.00241868
0.00242014
0.0023796
0.00238012
0.00238003
0.00238176
0.00234123
0.00234181
0.00234179
0.00234419
0.00230306
0.00230358
0.00230365
0.00230503
0.00226517
0.00226588
0.00226585
0.00226805
0.00222729
0.00222794
0.00222795
0.00222977
0.00218964
0.00219037
0.0021903
0.00219221
0.0021521
0.00215272
0.00215278
0.00215456
0.00211468
0.00211541
0.00211533
0.00211725
0.00207747
0.00207806
0.00207806
0.0020799
0.00204038
0.0020409
0.00204098
0.00204279
0.00200329
0.00200386
0.0020038
0.0020058
0.0019666
0.00196699
0.001967
0.00196891
0.00192975
0.00193003
0.00193004
0.00193199
0.00189303
0.00189358
0.00189353
0.00189562
0.00185685
0.00185681
0.00185688
0.00185882
0.00182027
0.00182056
0.00182047
0.00182256
0.00178413
0.00178418
0.00178425
0.00178639
0.00174803
0.0017481
0.00174801
0.00174994
0.00171209
0.00171203
0.00171208
0.0017142
0.00167616
0.0016761
0.00167608
0.00167822
0.0016405
0.00164048
0.00164043
0.00164233
0.0016048
0.00160456
0.00160459
0.00160688
0.00156943
0.00156937
0.00156927
0.00157118
0.00153392
0.00153352
0.00153362
0.00153573
0.00149859
0.00149851
0.00149855
0.00150053
0.00146342
0.00146304
0.00146296
0.00146511
0.00142825
0.001428
0.00142798
0.00142994
0.00139317
0.00139321
0.00139328
0.00139529
0.00135851
0.00135782
0.00135787
0.00135975
0.00132324
0.00132298
0.00132294
0.00132496
0.00128837
0.00128856
0.00128847
0.00129059
0.00125369
0.00125339
0.00125337
0.00125525
0.00121936
0.00121853
0.00121866
0.00122035
0.00118411
0.00118427
0.00118423
0.00118626
0.00114952
0.0011497
0.00114959
0.00115172
0.00111545
0.00111468
0.00111466
0.00111629
0.0010805
0.00108042
0.00108033
0.0010823
0.00104611
0.00104598
0.00104608
0.00104813
0.00101144
0.00101134
0.0010113
0.00101317
0.0009769
0.000976508
0.000976534
0.000978337
0.00094247
0.000942418
0.000942492
0.000944466
0.00090804
0.000907983
0.000907602
0.000909781
0.000873036
0.000872779
0.000873104
0.000874844
0.000838997
0.000838854
0.000839203
0.000840737
0.000805152
0.000804979
0.00080444
0.00080672
0.000769854
0.000769733
0.000769626
0.000771688
0.000734861
0.0007348
0.000735217
0.000737003
0.000700726
0.000700792
0.000700878
0.000702609
0.000666921
0.000666585
0.000666359
0.000668491
0.000631599
0.000631366
0.000631349
0.000633302
0.000596532
0.000596453
0.000596466
0.000598295
0.000561975
0.000562465
0.00056251
0.000564881
0.000527906
0.000527517
0.000527492
0.000529126
0.000492189
0.000491728
0.000491763
0.000493709
0.000457218
0.000457837
0.000457813
0.000460439
0.000423719
0.000423332
0.000423429
0.000424929
0.000388042
0.000387634
0.000387699
0.000389334
0.000351681
0.00035187
0.000351649
0.000353997
0.000316603
0.000316941
0.000317016
0.000319243
0.000282488
0.00028266
0.000282702
0.00028456
0.00024825
0.000247649
0.000247659
0.000249278
0.000212339
0.000211788
0.000211711
0.000213345
0.000175142
0.000175525
0.00017546
0.000177821
0.000139045
0.000139814
0.000139987
0.000142373
0.000105177
0.000105204
0.000105074
0.00010688
7.11701e-05
7.01057e-05
7.00581e-05
7.14986e-05
3.50217e-05
3.41781e-05
3.43763e-05
3.60856e-05
5.35436e-06
7.08842e-06
6.93167e-06
5.4405e-06
0.00352404
0.00352174
0.00352148
0.00352396
0.00352157
0.00352163
0.00352794
0.00352795
0.00352797
0.00352798
0.00352147
0.00352151
0.00352406
0.00352159
0.00352159
0.00352402
0.00351929
0.00349031
0.00351856
0.00351856
0.00349218
0.00349212
0.00351923
0.00349035
0.00351858
0.0035186
0.00349219
0.00349215
0.00351858
0.00349213
0.00349215
0.00351931
0.00349032
0.00351855
0.00349222
0.00349227
0.00349038
0.00348558
0.00345175
0.00348266
0.00348278
0.00345412
0.00345396
0.00348561
0.00345172
0.00348282
0.00348277
0.00345395
0.00345398
0.00348281
0.00345399
0.00345408
0.00348558
0.00345171
0.00348265
0.00345406
0.00345412
0.00345171
0.00344625
0.00340845
0.00344397
0.0034439
0.00341149
0.00341146
0.00344619
0.00340845
0.00344395
0.00344391
0.00341147
0.00341147
0.00344387
0.00341151
0.00341157
0.00344619
0.00340845
0.00344387
0.00341155
0.00341156
0.00340844
0.0034023
0.00336105
0.00340005
0.00340007
0.00336439
0.00336436
0.00340228
0.00336104
0.00340004
0.00340007
0.00336439
0.00336439
0.00340001
0.00336441
0.0033645
0.00340228
0.00336103
0.00339998
0.0033644
0.00336448
0.00336099
0.00335461
0.00331239
0.00335234
0.0033523
0.00331576
0.00331575
0.00335459
0.00331235
0.00335228
0.00335226
0.00331575
0.00331575
0.00335227
0.00331576
0.00331574
0.00335458
0.00331237
0.00335231
0.00331571
0.00331571
0.00331232
0.00330595
0.00326412
0.00330361
0.00330353
0.00326743
0.00326738
0.00330589
0.0032641
0.00330356
0.00330357
0.00326739
0.0032674
0.00330358
0.00326735
0.00326739
0.00330593
0.00326412
0.00330359
0.00326737
0.0032674
0.0032641
0.00325782
0.00321679
0.00325548
0.00325542
0.00321997
0.00321993
0.00325776
0.00321677
0.00325545
0.00325545
0.00321992
0.00321992
0.00325543
0.00321992
0.00321994
0.00325779
0.00321677
0.00325543
0.00321994
0.00321995
0.00321678
0.00321063
0.00317046
0.00320827
0.00320823
0.00317351
0.00317351
0.00321058
0.00317044
0.00320825
0.00320825
0.0031735
0.00317351
0.00320822
0.0031735
0.00317349
0.00321059
0.00317045
0.00320823
0.00317349
0.00317351
0.00317045
0.00316444
0.00312511
0.0031621
0.00316202
0.00312809
0.00312803
0.0031644
0.00312507
0.00316204
0.00316203
0.00312806
0.00312806
0.00316203
0.00312802
0.00312802
0.00316441
0.0031251
0.00316203
0.00312803
0.00312803
0.00312508
0.00311922
0.00308066
0.00311681
0.00311683
0.00308357
0.00308347
0.00311918
0.00308061
0.00311681
0.0031168
0.00308351
0.00308349
0.00311683
0.00308347
0.0030835
0.00311919
0.00308063
0.00311684
0.00308348
0.00308348
0.00308061
0.00307487
0.00303699
0.00307244
0.00307247
0.00303983
0.00303972
0.00307483
0.00303693
0.00307252
0.00307248
0.00303978
0.00303973
0.00307248
0.00303972
0.00303976
0.00307485
0.00303694
0.00307248
0.00303973
0.00303979
0.00303695
0.00303128
0.00299392
0.00302882
0.00302891
0.0029967
0.00299666
0.00303125
0.00299382
0.00302892
0.00302893
0.00299666
0.00299668
0.0030289
0.00299665
0.00299658
0.00303126
0.00299383
0.00302893
0.00299663
0.00299654
0.00299386
0.00298827
0.00295123
0.00298585
0.00298588
0.0029539
0.00295395
0.00298822
0.0029512
0.00298583
0.00298586
0.00295392
0.00295392
0.00298599
0.00295396
0.002954
0.00298823
0.0029512
0.002986
0.00295392
0.00295398
0.00295121
0.00294572
0.00290875
0.00294336
0.00294332
0.00291153
0.00291158
0.00294563
0.00290886
0.00294338
0.0029434
0.00291153
0.00291162
0.0029434
0.00291157
0.00291162
0.00294566
0.00290891
0.00294348
0.00291167
0.00291174
0.00290884
0.00290334
0.00286685
0.00290115
0.00290112
0.00286936
0.00286951
0.00290342
0.0028668
0.00290121
0.00290115
0.00286945
0.00286962
0.00290102
0.00286955
0.00286951
0.00290344
0.00286681
0.00290097
0.0028696
0.00286956
0.00286676
0.00286145
0.00282515
0.0028591
0.00285918
0.00282777
0.00282795
0.0028614
0.00282512
0.00285917
0.00285911
0.00282775
0.00282781
0.0028591
0.00282791
0.00282775
0.00286138
0.00282505
0.00285903
0.00282776
0.00282783
0.00282504
0.00281981
0.00278366
0.00281754
0.00281755
0.00278635
0.00278639
0.00281974
0.00278361
0.00281751
0.00281746
0.00278634
0.00278639
0.00281751
0.00278637
0.00278638
0.0028197
0.00278368
0.00281738
0.00278639
0.00278639
0.00278373
0.00277836
0.00274254
0.00277611
0.00277621
0.00274536
0.00274528
0.00277835
0.00274235
0.00277614
0.00277619
0.00274539
0.0027453
0.00277628
0.00274528
0.00274533
0.00277839
0.00274259
0.00277609
0.00274533
0.00274535
0.00274268
0.00273724
0.00270169
0.00273506
0.00273505
0.00270472
0.00270482
0.0027371
0.00270159
0.00273509
0.00273514
0.00270474
0.00270461
0.00273532
0.00270482
0.00270464
0.00273732
0.0027018
0.00273514
0.00270467
0.0027047
0.00270188
0.00269648
0.00266113
0.00269452
0.0026946
0.00266444
0.00266438
0.00269647
0.00266118
0.00269452
0.00269447
0.00266447
0.00266426
0.00269462
0.00266439
0.00266438
0.00269653
0.00266134
0.00269456
0.00266427
0.00266438
0.0026613
0.00265604
0.0026211
0.00265427
0.00265443
0.00262445
0.00262421
0.00265614
0.00262103
0.00265428
0.00265419
0.00262445
0.00262423
0.00265417
0.00262421
0.00262456
0.00265611
0.00262118
0.00265424
0.00262421
0.00262456
0.00262107
0.00261615
0.00258119
0.00261451
0.00261443
0.00258442
0.00258449
0.00261599
0.00258126
0.00261451
0.00261427
0.00258441
0.00258452
0.00261444
0.00258449
0.00258455
0.00261601
0.00258137
0.00261449
0.00258449
0.00258449
0.00258111
0.00257604
0.00254201
0.00257467
0.00257458
0.00254518
0.00254516
0.00257609
0.00254195
0.00257466
0.00257468
0.00254518
0.00254509
0.0025748
0.00254517
0.00254522
0.0025763
0.00254189
0.00257488
0.0025451
0.00254519
0.00254195
0.00253692
0.00250269
0.00253532
0.00253528
0.00250586
0.00250602
0.00253684
0.00250279
0.0025353
0.00253525
0.00250587
0.00250592
0.00253519
0.00250604
0.00250611
0.00253683
0.00250283
0.00253519
0.00250592
0.00250614
0.00250299
0.00249777
0.00246395
0.00249618
0.00249607
0.00246699
0.00246717
0.00249767
0.00246431
0.00249619
0.00249611
0.00246701
0.00246708
0.00249635
0.00246715
0.00246695
0.00249777
0.00246424
0.00249644
0.00246706
0.00246698
0.00246383
0.00245886
0.0024254
0.00245721
0.00245749
0.00242829
0.00242817
0.00245959
0.00242492
0.0024572
0.00245728
0.0024283
0.00242824
0.00245732
0.00242817
0.00242816
0.00245914
0.00242526
0.00245733
0.00242823
0.00242808
0.00242487
0.00242052
0.00238654
0.00241859
0.00241858
0.00238965
0.00238962
0.00242001
0.00238659
0.00241861
0.00241865
0.00238967
0.00238956
0.00241856
0.00238962
0.00238968
0.00242064
0.00238653
0.00241859
0.00238955
0.00238963
0.00238692
0.00238166
0.00234886
0.0023801
0.00238014
0.00235142
0.00235139
0.00238171
0.00234893
0.00238011
0.00238003
0.00235143
0.00235145
0.00238005
0.0023514
0.00235145
0.00238145
0.00234918
0.00238002
0.00235145
0.00235147
0.0023491
0.0023439
0.00231019
0.00234181
0.0023418
0.00231321
0.00231315
0.00234396
0.00231043
0.00234183
0.00234181
0.00231322
0.00231316
0.00234184
0.00231313
0.00231308
0.00234421
0.00231009
0.00234187
0.00231316
0.00231304
0.00230994
0.00230539
0.00227266
0.00230372
0.00230361
0.00227521
0.00227535
0.00230548
0.00227251
0.00230373
0.00230367
0.00227522
0.00227524
0.00230371
0.00227536
0.00227526
0.00230526
0.00227263
0.00230359
0.00227526
0.00227525
0.00227294
0.0022677
0.00223471
0.00226576
0.00226585
0.00223744
0.00223737
0.00226772
0.00223474
0.00226578
0.00226582
0.00223745
0.00223741
0.00226578
0.00223738
0.00223735
0.00226769
0.00223491
0.00226584
0.00223744
0.00223741
0.00223472
0.00222984
0.00219702
0.00222798
0.00222794
0.00219973
0.00219974
0.00222974
0.00219714
0.00222799
0.00222793
0.00219974
0.00219971
0.00222796
0.00219973
0.0021998
0.00222998
0.00219693
0.00222798
0.00219968
0.00219972
0.00219708
0.00219212
0.00215953
0.00219033
0.00219037
0.00216211
0.00216213
0.00219228
0.00215942
0.00219034
0.00219032
0.00216211
0.00216213
0.00219038
0.00216214
0.00216206
0.00219206
0.00215955
0.00219032
0.00216218
0.00216207
0.00215951
0.00215461
0.0021221
0.00215277
0.00215272
0.00212469
0.00212469
0.00215454
0.00212215
0.00215275
0.00215274
0.00212473
0.00212467
0.0021527
0.00212469
0.00212472
0.00215463
0.0021221
0.00215268
0.00212465
0.00212466
0.0021221
0.00211724
0.00208474
0.00211532
0.00211541
0.00208741
0.00208742
0.00211724
0.00208474
0.00211537
0.00211536
0.00208738
0.00208739
0.00211538
0.00208742
0.00208739
0.00211722
0.00208475
0.00211533
0.00208738
0.00208745
0.00208479
0.00207987
0.00204772
0.00207813
0.00207806
0.00205017
0.00205012
0.00207987
0.00204771
0.0020781
0.00207805
0.00205021
0.00205016
0.00207808
0.00205012
0.00205015
0.00207989
0.00204778
0.00207816
0.00205022
0.00205013
0.00204767
0.0020428
0.00201058
0.00204088
0.00204091
0.00201308
0.00201317
0.00204286
0.00201056
0.00204089
0.00204095
0.00201307
0.00201311
0.00204085
0.00201317
0.00201312
0.0020429
0.00201051
0.00204081
0.0020131
0.0020131
0.00201063
0.00200576
0.00197381
0.00200383
0.00200386
0.00197623
0.00197615
0.00200567
0.00197382
0.00200384
0.0020038
0.00197624
0.00197615
0.00200394
0.00197616
0.00197624
0.00200565
0.00197385
0.00200393
0.00197616
0.00197624
0.00197381
0.00196892
0.00193687
0.00196702
0.00196698
0.00193929
0.00193929
0.00196897
0.00193683
0.001967
0.00196701
0.00193929
0.00193928
0.00196696
0.00193927
0.00193922
0.00196903
0.00193679
0.00196697
0.00193929
0.00193921
0.00193679
0.00193202
0.00190031
0.00193005
0.00193005
0.0019025
0.00190263
0.00193198
0.00190043
0.00193005
0.00193002
0.00190255
0.0019026
0.00193005
0.00190264
0.00190269
0.00193192
0.00190042
0.00193004
0.00190261
0.0019027
0.00190049
0.0018955
0.0018638
0.00189342
0.00189355
0.00186618
0.00186601
0.00189562
0.00186357
0.00189345
0.00189352
0.00186616
0.00186602
0.00189357
0.00186601
0.00186601
0.0018956
0.00186368
0.00189356
0.00186603
0.001866
0.00186363
0.00185895
0.00182733
0.00185702
0.00185681
0.00182953
0.00182959
0.00185873
0.00182746
0.00185699
0.00185686
0.00182954
0.0018296
0.00185683
0.00182957
0.00182952
0.00185889
0.00182735
0.00185685
0.0018296
0.00182953
0.00182736
0.0018225
0.0017911
0.00182042
0.00182058
0.00179329
0.00179333
0.00182267
0.00179104
0.00182045
0.00182048
0.00179329
0.00179325
0.00182047
0.00179333
0.00179344
0.00182251
0.00179113
0.00182046
0.00179328
0.00179341
0.00179123
0.00178629
0.00175489
0.00178426
0.00178417
0.00175705
0.00175699
0.00178618
0.00175494
0.00178425
0.00178425
0.00175706
0.00175707
0.00178439
0.00175704
0.00175695
0.00178631
0.00175489
0.00178437
0.00175709
0.00175699
0.00175474
0.00175011
0.00171894
0.00174801
0.00174808
0.0017211
0.00172116
0.00175018
0.00171892
0.00174801
0.00174802
0.00172107
0.00172105
0.00174783
0.00172111
0.00172103
0.00175011
0.00171893
0.00174786
0.00172101
0.00172098
0.00171896
0.00171412
0.00168296
0.0017121
0.00171207
0.00168501
0.00168494
0.00171408
0.00168292
0.00171209
0.00171206
0.00168506
0.00168503
0.00171214
0.00168498
0.00168525
0.00171412
0.00168295
0.00171211
0.0016851
0.0016853
0.00168306
0.00167821
0.00164722
0.00167605
0.00167606
0.00164936
0.00164942
0.00167819
0.00164735
0.0016761
0.00167603
0.00164931
0.00164933
0.00167615
0.00164942
0.00164917
0.00167817
0.00164725
0.00167618
0.00164931
0.00164914
0.0016471
0.00164243
0.00161151
0.00164045
0.0016405
0.00161351
0.00161346
0.00164255
0.0016114
0.00164038
0.00164047
0.00161355
0.00161356
0.00164026
0.00161343
0.00161366
0.00164248
0.00161147
0.00164022
0.00161353
0.0016137
0.00161164
0.00160676
0.00157603
0.0016046
0.00160457
0.00157815
0.00157814
0.00160667
0.00157613
0.00160467
0.00160458
0.00157813
0.00157806
0.0016048
0.00157817
0.00157807
0.00160671
0.00157603
0.00160484
0.00157809
0.00157806
0.00157595
0.00157128
0.00154045
0.00156931
0.00156933
0.00154245
0.00154246
0.0015714
0.00154038
0.00156926
0.00156925
0.00154245
0.00154252
0.00156912
0.00154244
0.00154248
0.00157127
0.00154046
0.00156909
0.0015425
0.00154248
0.00154046
0.00153572
0.00150531
0.00153361
0.00153357
0.00150734
0.00150727
0.00153563
0.00150528
0.00153363
0.00153365
0.00150735
0.00150734
0.00153367
0.00150725
0.00150729
0.00153573
0.0015053
0.0015337
0.00150731
0.00150728
0.00150527
0.0015006
0.00146972
0.00149857
0.00149852
0.00147178
0.0014719
0.00150057
0.0014698
0.00149859
0.00149857
0.00147178
0.00147177
0.00149845
0.00147196
0.00147197
0.00150057
0.00146973
0.00149844
0.00147186
0.00147198
0.00146985
0.00146497
0.00143483
0.00146294
0.001463
0.00143685
0.00143676
0.00146504
0.00143474
0.00146288
0.00146283
0.00143679
0.00143672
0.00146311
0.00143668
0.00143667
0.00146497
0.00143468
0.0014631
0.00143664
0.00143663
0.00143464
0.00143017
0.00139969
0.00142816
0.00142809
0.00140176
0.00140192
0.00143005
0.00139987
0.00142817
0.0014281
0.0014018
0.00140201
0.00142791
0.00140202
0.00140194
0.00143001
0.00139996
0.00142792
0.00140204
0.00140199
0.00139998
0.00139493
0.00136467
0.00139292
0.00139309
0.00136669
0.00136666
0.00139513
0.00136454
0.00139286
0.00139313
0.00136678
0.00136667
0.00139329
0.00136663
0.00136665
0.0013952
0.00136457
0.00139332
0.00136661
0.00136663
0.00136452
0.00135999
0.00132976
0.00135802
0.00135786
0.00133181
0.00133167
0.00135979
0.00132966
0.00135815
0.00135802
0.00133179
0.00133178
0.00135776
0.00133163
0.00133162
0.00135986
0.00132969
0.00135776
0.00133166
0.00133162
0.0013296
0.00132504
0.00129491
0.0013231
0.00132303
0.00129696
0.00129716
0.00132501
0.00129516
0.00132297
0.00132296
0.0012969
0.00129693
0.00132304
0.00129719
0.00129723
0.00132497
0.00129499
0.00132301
0.00129702
0.00129717
0.00129526
0.00129022
0.00126001
0.0012882
0.00128845
0.00126208
0.00126213
0.00129044
0.00126006
0.00128827
0.00128836
0.00126204
0.00126204
0.00128856
0.00126222
0.0012621
0.00129036
0.00126002
0.00128856
0.00126218
0.00126221
0.00126002
0.00125533
0.00122554
0.00125348
0.00125342
0.00122764
0.00122739
0.00125534
0.00122521
0.00125337
0.00125329
0.00122765
0.00122753
0.00125327
0.00122717
0.00122716
0.00125528
0.00122532
0.00125333
0.0012273
0.00122711
0.00122503
0.00122083
0.00119056
0.00121889
0.00121869
0.00119257
0.00119268
0.00122052
0.0011907
0.00121899
0.0012189
0.00119265
0.00119279
0.00121852
0.0011928
0.00119283
0.00122065
0.00119075
0.00121848
0.00119279
0.00119287
0.00119085
0.00118586
0.00115619
0.00118388
0.00118406
0.0011582
0.00115826
0.00118605
0.00115635
0.00118393
0.00118411
0.00115812
0.00115808
0.00118429
0.00115839
0.00115856
0.00118609
0.00115623
0.00118435
0.00115836
0.00115859
0.00115651
0.00115156
0.00112145
0.00114967
0.00114964
0.00112361
0.00112352
0.00115166
0.00112131
0.00114955
0.00114941
0.00112362
0.00112355
0.00114979
0.00112338
0.00112315
0.0011515
0.00112129
0.00114975
0.00112331
0.00112307
0.00112102
0.00111672
0.00108683
0.00111482
0.00111482
0.00108886
0.00108894
0.00111658
0.00108693
0.00111488
0.00111494
0.00108888
0.00108895
0.00111446
0.00108894
0.00108891
0.00111658
0.00108686
0.00111441
0.0010889
0.0010889
0.00108689
0.00108219
0.00105271
0.00108034
0.00108039
0.00105474
0.00105461
0.00108232
0.00105259
0.00108031
0.00108029
0.00105466
0.00105452
0.00108046
0.00105464
0.00105479
0.00108221
0.00105265
0.00108042
0.00105465
0.00105477
0.00105281
0.00104803
0.00101783
0.00104608
0.00104593
0.00101981
0.00101995
0.00104789
0.00101793
0.00104608
0.00104597
0.00101994
0.00102012
0.00104614
0.00102
0.00101997
0.00104801
0.00101798
0.00104618
0.00102011
0.00102007
0.00101793
0.00101313
0.000983223
0.00101118
0.00101135
0.000985347
0.000985285
0.00101324
0.000983154
0.00101122
0.00101134
0.000985202
0.000985179
0.0010112
0.000985165
0.000985108
0.00101319
0.000983065
0.00101124
0.00098511
0.000985013
0.000983007
0.000978521
0.000948924
0.000976675
0.00097658
0.000950863
0.000950801
0.000978454
0.000948856
0.000976595
0.000976575
0.000951012
0.00095101
0.00097652
0.000950885
0.000950989
0.000978407
0.00094911
0.000976444
0.000951046
0.000951058
0.000949067
0.000944311
0.00091457
0.000942356
0.000942331
0.000916671
0.000916744
0.000944247
0.000914773
0.000942514
0.00094247
0.000916561
0.000916398
0.000942483
0.000916753
0.000916654
0.000944466
0.000914326
0.000942554
0.000916372
0.00091654
0.000914526
0.000909789
0.000879455
0.000907933
0.000908017
0.000881528
0.00088155
0.00091001
0.000879454
0.000907709
0.000907613
0.000881425
0.000881548
0.000907961
0.000881522
0.000881612
0.000909552
0.000879594
0.000907802
0.000881622
0.000881637
0.000879578
0.000874743
0.000845497
0.000872799
0.000872803
0.000847255
0.00084724
0.000874674
0.000845282
0.000872833
0.000873048
0.00084755
0.000847859
0.000872832
0.000847225
0.000847116
0.00087496
0.000845861
0.000872964
0.00084775
0.000847341
0.000845302
0.000840951
0.000811486
0.000838915
0.000838876
0.000813692
0.000813655
0.000840739
0.000811678
0.000839186
0.000839348
0.000813455
0.000813178
0.000838762
0.000813612
0.000813582
0.000841204
0.00081108
0.000838902
0.000813162
0.00081335
0.000811447
0.000806707
0.000776234
0.000804999
0.000804998
0.000778431
0.000778512
0.00080696
0.00077645
0.000804652
0.000804387
0.000778251
0.000778121
0.000804952
0.000778565
0.000778584
0.000806321
0.000776185
0.000804671
0.000778273
0.000778492
0.000776452
0.000771465
0.000741696
0.000769609
0.00076969
0.000743463
0.000743429
0.000771627
0.000741392
0.000769548
0.000769499
0.000743738
0.000743816
0.000769774
0.000743455
0.000743566
0.000771495
0.000741936
0.000769801
0.000743813
0.000743805
0.000741714
0.000737014
0.000707436
0.000734829
0.000734783
0.000709209
0.00070931
0.000736707
0.000707439
0.000735144
0.000735255
0.000709335
0.000709593
0.000734889
0.00070925
0.000709117
0.000737263
0.000707578
0.000735123
0.000709448
0.000709161
0.00070725
0.000702835
0.000673328
0.000700816
0.000700868
0.000675518
0.000675329
0.000702828
0.000673297
0.000700851
0.00070107
0.000675296
0.000675065
0.000700631
0.000675275
0.000675228
0.000702911
0.000672965
0.000700581
0.000675049
0.000675009
0.000673161
0.000668523
0.000637849
0.000666811
0.000666565
0.000640035
0.000640057
0.00066853
0.000637981
0.000666552
0.000666292
0.000639981
0.000639925
0.000666686
0.000640171
0.000640233
0.000668209
0.000637947
0.000666486
0.000640122
0.000640251
0.000638128
0.000633071
0.000603237
0.000631196
0.000631291
0.000605115
0.000605187
0.000633172
0.000603132
0.000631225
0.000631198
0.000605239
0.00060519
0.000631305
0.000605104
0.000604884
0.000633182
0.000603229
0.000631394
0.000605118
0.000604998
0.000602933
0.000598539
0.000568811
0.000596489
0.000596519
0.000570628
0.000570792
0.000598432
0.000568994
0.000596602
0.000596558
0.000570667
0.000570877
0.000596369
0.000570931
0.000571289
0.000598524
0.000569031
0.00059645
0.000570972
0.000571284
0.000569457
0.000564154
0.000534586
0.000562104
0.000562318
0.00053658
0.000536612
0.000564373
0.000534483
0.000562119
0.000562402
0.000536551
0.000536662
0.000562898
0.000536444
0.00053614
0.000564409
0.00053449
0.000562866
0.00053648
0.000536076
0.000534071
0.000529841
0.000498834
0.00052793
0.000527766
0.000500989
0.000500653
0.000529609
0.000498569
0.000527895
0.000527757
0.000500972
0.000500639
0.000527043
0.000500512
0.000500233
0.00052959
0.000498556
0.000526991
0.000500518
0.000500235
0.000498321
0.000493901
0.000463715
0.00049192
0.000491705
0.000465615
0.000465904
0.000493741
0.000464174
0.000491917
0.000491715
0.000465627
0.000465904
0.000491839
0.000466225
0.000466859
0.00049374
0.000464188
0.000491846
0.000466229
0.000466871
0.000465026
0.000459143
0.000430225
0.000457188
0.000457538
0.000432174
0.000432276
0.000459598
0.000430114
0.000457197
0.00045753
0.000432184
0.000432318
0.00045846
0.000432152
0.000431876
0.0004596
0.000430162
0.000458451
0.000432192
0.000431899
0.000429752
0.000425557
0.000394812
0.000423669
0.000423552
0.000396947
0.000396744
0.000425305
0.000394543
0.000423689
0.00042365
0.000396955
0.000396816
0.000422983
0.000396607
0.000396365
0.000425379
0.000394623
0.000423007
0.000396713
0.000396422
0.000394249
0.000389865
0.000358697
0.00038788
0.000387728
0.000360691
0.000360707
0.000389644
0.000358831
0.000387874
0.000387758
0.000360645
0.000360526
0.000387397
0.000360721
0.000360697
0.000389705
0.000358617
0.000387443
0.000360521
0.000360625
0.000358828
0.00035386
0.000323581
0.000351789
0.000351829
0.000325454
0.000325468
0.000353999
0.000323684
0.000351743
0.000351651
0.000325462
0.000325504
0.000351893
0.0003256
0.000325779
0.000353799
0.000323727
0.000351808
0.000325603
0.000325768
0.000323921
0.00031883
0.000289032
0.00031675
0.000316783
0.00029096
0.000291123
0.000318949
0.000289182
0.000316771
0.000316863
0.000290979
0.000291171
0.000317185
0.000291255
0.000291525
0.000319018
0.000289236
0.000317204
0.00029133
0.000291586
0.000289373
0.000284368
0.000254493
0.000282446
0.00028263
0.000256618
0.000256608
0.000284482
0.000254344
0.000282462
0.000282647
0.000256634
0.000256633
0.000282743
0.000256447
0.000256289
0.00028452
0.000254349
0.000282797
0.000256451
0.000256275
0.000254097
0.000249718
0.00021904
0.000247884
0.000247815
0.000221227
0.000221032
0.000249545
0.000218815
0.000247898
0.000247849
0.000221196
0.000220978
0.000247434
0.000220864
0.000220534
0.000249553
0.000218756
0.000247415
0.000220816
0.000220499
0.000218338
0.000214089
0.000182493
0.000212173
0.000211963
0.000184525
0.000184407
0.000213877
0.000182583
0.000212125
0.000211874
0.000184492
0.000184331
0.000211396
0.000184501
0.000184523
0.000213804
0.000182528
0.000211353
0.000184412
0.000184504
0.000182718
0.000177476
0.000146327
0.000175262
0.000175298
0.000148116
0.000148344
0.000177634
0.000146626
0.000175277
0.000175312
0.0001482
0.000148541
0.000175607
0.000148619
0.000149044
0.000177614
0.000146808
0.000175603
0.000148788
0.000149093
0.000147183
0.000141512
0.000111747
0.000139328
0.000139567
0.000113661
0.000113818
0.000141808
0.000111845
0.000139383
0.000139754
0.000113635
0.000113768
0.000140249
0.000113793
0.000113957
0.000141987
0.000111786
0.000140296
0.000113812
0.000113976
0.000111774
0.0001071
7.72265e-05
0.000105247
0.000105351
7.95145e-05
7.92035e-05
0.000107141
7.68683e-05
0.000105196
0.000105185
7.94786e-05
7.90442e-05
0.000105026
7.89309e-05
7.84799e-05
0.000107004
7.67377e-05
0.000105026
7.87805e-05
7.84514e-05
7.63343e-05
7.22946e-05
4.11305e-05
7.05661e-05
7.02907e-05
4.32775e-05
4.3217e-05
7.19724e-05
4.1039e-05
7.05709e-05
7.02614e-05
4.33458e-05
4.33794e-05
6.97119e-05
4.32211e-05
4.31332e-05
7.18975e-05
4.12027e-05
6.9698e-05
4.32957e-05
4.31719e-05
4.10302e-05
3.60501e-05
8.09556e-06
3.41759e-05
3.41476e-05
1.09898e-05
1.1277e-05
3.59738e-05
8.49255e-06
3.4242e-05
3.43681e-05
1.0982e-05
1.11917e-05
3.43116e-05
1.15114e-05
1.18533e-05
3.61819e-05
8.32757e-06
3.43469e-05
1.13845e-05
1.18233e-05
8.80228e-06
4.92118e-06
6.66655e-06
6.90293e-06
5.25652e-06
6.58896e-06
6.76041e-06
5.73301e-06
5.54229e-06
5.91681e-06
7.28759e-06
5.08405e-06
7.20543e-06
0.00353106
0.00353367
0.00353241
0.00353249
0.00355955
0.00353347
0.00356311
0.00353383
0.00355972
0.00353362
0.00353385
0.00356321
0.00354458
0.00356613
0.00356633
0.00350377
0.00351741
0.00352116
0.00349606
0.00349434
0.00349948
0.00350358
0.00351719
0.00352123
0.00349598
0.00351964
0.00351963
0.00351963
0.00349323
0.00349332
0.00349328
0.00349331
0.00350338
0.00351496
0.00352017
0.00351091
0.00352231
0.00350049
0.00351119
0.00349416
0.00349951
0.00350335
0.00352018
0.00351503
0.00351093
0.0035223
0.00351121
0.00350047
0.00352114
0.00352104
0.00350824
0.0035004
0.00350047
0.00347627
0.00349041
0.00349026
0.00347422
0.00348775
0.00347329
0.00347611
0.00349046
0.00349034
0.00347423
0.00348425
0.0034842
0.0034842
0.00345584
0.0034559
0.00345584
0.00345582
0.00347399
0.00348901
0.00348271
0.00347327
0.00348744
0.00347453
0.00347334
0.00348759
0.00347324
0.00347399
0.00348265
0.00348893
0.00347338
0.0034874
0.00347336
0.00347447
0.00349072
0.00349082
0.00347176
0.00347485
0.00347484
0.00343382
0.0034484
0.00344938
0.00343246
0.00344729
0.00343159
0.00343375
0.00344846
0.00344935
0.00343246
0.00344581
0.00344575
0.00344575
0.00341322
0.00341328
0.00341325
0.00341324
0.00343248
0.00344807
0.00344383
0.00343345
0.003447
0.00343295
0.00343343
0.00344727
0.0034315
0.00343249
0.00344384
0.003448
0.00343348
0.00344696
0.00343344
0.00343286
0.00344868
0.00344847
0.00343081
0.00343286
0.00343308
0.00338754
0.00340386
0.00340533
0.00338608
0.00340314
0.00338557
0.00338745
0.00340389
0.00340529
0.00338607
0.00340176
0.00340173
0.00340173
0.00336588
0.00336593
0.00336589
0.00336591
0.00338667
0.00340375
0.00340005
0.00338837
0.00340313
0.00338671
0.00338835
0.00340313
0.00338556
0.00338671
0.00340003
0.00340368
0.00338837
0.00340312
0.00338838
0.00338677
0.00340392
0.00340368
0.00338508
0.00338637
0.00338669
0.00333868
0.00335575
0.00335704
0.00333743
0.00335538
0.00333714
0.00333863
0.00335573
0.00335704
0.00333744
0.00335376
0.00335372
0.00335371
0.00331703
0.00331708
0.00331706
0.00331704
0.00333824
0.00335576
0.00335231
0.0033401
0.00335541
0.00333818
0.00334015
0.00335532
0.0033371
0.0033382
0.0033523
0.00335573
0.00334006
0.00335538
0.00334011
0.00333815
0.00335584
0.00335566
0.00333664
0.00333751
0.00333737
0.00328955
0.00330684
0.00330782
0.00328867
0.00330657
0.00328845
0.0032895
0.00330683
0.00330783
0.00328865
0.00330488
0.00330487
0.00330486
0.00326856
0.0032686
0.00326858
0.00326857
0.00328948