/*--------------------------------*- C++ -*----------------------------------*\
| =========                 |                                                 |
| \\      /  F ield         | OpenFOAM: The Open Source CFD Toolbox           |
|  \\    /   O peration     | Version:  v2006                                 |
|   \\  /    A nd           | Website:  www.openfoam.com                      |
|    \\/     M anipulation  |                                                 |
\*---------------------------------------------------------------------------*/
FoamFile
{
    version     2.0;
    format      ascii;
    class       volScalarField;
    location    "875";
    object      k;
}
// * * * * * * * * * * * * * * * * * * * * * * * * * * * * * * * * * * * * * //

dimensions      [0 2 -2 0 0 0 0];


internalField   nonuniform List<scalar> 
14212
(
6.78205e-05
7.28433e-05
7.06744e-05
7.28463e-05
4.86251e-05
6.3936e-05
7.06726e-05
7.06737e-05
5.13383e-05
6.92734e-05
6.92839e-05
6.78178e-05
7.28398e-05
5.93355e-05
4.86304e-05
6.39312e-05
4.3194e-05
5.93323e-05
4.86188e-05
6.39183e-05
4.31891e-05
5.13261e-05
6.9264e-05
6.92751e-05
7.06735e-05
4.86305e-05
6.394e-05
7.28463e-05
7.12907e-05
6.7817e-05
7.10556e-05
7.09044e-05
7.10437e-05
7.0902e-05
7.13038e-05
7.11709e-05
7.91763e-05
7.28294e-05
7.91765e-05
7.11887e-05
7.0655e-05
7.28341e-05
7.06549e-05
7.06567e-05
9.42357e-05
7.30597e-05
7.306e-05
7.3025e-05
7.30258e-05
9.43328e-05
7.33279e-05
7.27063e-05
6.92735e-05
6.41627e-05
7.268e-05
7.33575e-05
6.41472e-05
7.33358e-05
6.9284e-05
7.27088e-05
6.41828e-05
7.26834e-05
7.33752e-05
6.41659e-05
7.12895e-05
6.78143e-05
7.10552e-05
7.08964e-05
7.10432e-05
7.0894e-05
7.13029e-05
7.11702e-05
7.91572e-05
7.28249e-05
7.91572e-05
7.11886e-05
7.30617e-05
7.30667e-05
9.43372e-05
7.33299e-05
7.27123e-05
6.92632e-05
6.41573e-05
7.2682e-05
6.41392e-05
7.33774e-05
7.27084e-05
6.41639e-05
7.33456e-05
3.44276e-05
2.66496e-05
3.44235e-05
2.66492e-05
5.90038e-05
6.47441e-05
5.13387e-05
5.78569e-05
5.7867e-05
6.477e-05
5.78467e-05
5.7856e-05
5.44207e-05
5.93182e-05
6.11292e-05
5.30085e-05
6.11168e-05
5.3006e-05
5.44157e-05
5.57405e-05
6.31653e-05
6.39295e-05
5.90025e-05
6.31605e-05
5.89972e-05
5.57391e-05
5.4412e-05
5.93149e-05
6.11204e-05
5.30051e-05
6.11075e-05
5.30026e-05
5.44071e-05
5.5727e-05
6.31512e-05
6.39164e-05
5.89902e-05
6.31458e-05
5.57258e-05
5.89836e-05
6.47269e-05
5.13259e-05
5.78473e-05
5.78511e-05
5.78383e-05
5.78352e-05
6.47638e-05
6.39379e-05
5.90117e-05
5.9005e-05
9.42296e-05
7.30252e-05
7.30302e-05
7.32992e-05
6.92746e-05
6.41423e-05
7.26798e-05
7.06559e-05
7.28335e-05
6.39326e-05
5.8996e-05
5.68808e-05
3.71433e-05
6.65092e-05
5.68797e-05
4.37376e-05
3.71448e-05
6.24144e-05
6.65084e-05
7.21039e-05
4.37336e-05
6.24144e-05
7.21054e-05
4.75024e-05
6.8288e-05
6.82937e-05
7.00672e-05
7.00699e-05
7.06856e-05
6.97503e-05
7.04074e-05
6.65315e-05
7.06739e-05
6.97666e-05
7.04189e-05
7.06856e-05
7.04073e-05
6.97493e-05
6.65315e-05
7.06742e-05
7.04187e-05
6.97679e-05
7.06421e-05
7.83623e-05
7.21164e-05
7.06291e-05
7.83704e-05
7.21186e-05
9.34065e-05
7.24789e-05
7.24737e-05
9.33987e-05
7.24982e-05
7.24928e-05
7.20234e-05
7.19405e-05
6.22361e-05
6.83012e-05
7.20025e-05
6.22702e-05
7.19565e-05
7.20666e-05
7.19489e-05
6.22454e-05
6.83078e-05
7.2045e-05
6.2279e-05
7.19652e-05
7.00801e-05
7.00831e-05
2.80123e-05
5.09329e-05
5.88866e-05
4.92789e-05
5.69292e-05
5.09282e-05
5.89279e-05
4.92961e-05
5.09317e-05
4.9278e-05
5.88842e-05
5.69289e-05
5.09261e-05
4.92954e-05
5.89278e-05
5.26964e-05
6.12773e-05
5.64413e-05
6.24413e-05
5.26841e-05
6.13107e-05
5.64617e-05
5.64422e-05
6.24416e-05
5.64625e-05
6.27268e-05
4.75096e-05
5.49385e-05
5.49417e-05
6.26933e-05
5.49583e-05
5.49615e-05
7.06412e-05
7.83691e-05
7.06276e-05
7.83746e-05
5.26973e-05
6.1281e-05
5.26861e-05
6.13106e-05
7.91899e-05
7.11886e-05
6.31761e-05
5.57429e-05
6.78255e-05
5.92739e-05
5.12011e-05
4.28906e-05
4.84182e-05
6.78423e-05
6.78462e-05
5.12239e-05
7.06538e-05
3.42648e-05
4.85228e-05
4.30532e-05
5.13222e-05
4.27488e-05
4.27464e-05
5.11792e-05
4.8411e-05
4.28961e-05
7.28423e-05
6.92952e-05
4.85297e-05
4.30517e-05
5.12545e-05
6.39367e-05
6.78283e-05
5.92925e-05
4.30578e-05
7.28424e-05
5.12926e-05
4.85555e-05
6.78493e-05
6.7853e-05
7.06527e-05
2.61039e-05
2.61051e-05
2.62819e-05
2.62789e-05
7.28225e-05
6.78257e-05
4.82897e-05
6.39369e-05
5.92735e-05
4.84178e-05
4.29005e-05
4.27395e-05
7.283e-05
4.84147e-05
4.28965e-05
6.39589e-05
4.82757e-05
4.27339e-05
7.06473e-05
6.93452e-05
6.93476e-05
7.06488e-05
4.84138e-05
5.92793e-05
6.39668e-05
4.82737e-05
4.27267e-05
4.28891e-05
5.9282e-05
6.39916e-05
4.82666e-05
4.27223e-05
6.38902e-05
7.28396e-05
7.28483e-05
7.28272e-05
6.93783e-05
6.93892e-05
5.10747e-05
6.93424e-05
6.93485e-05
7.06411e-05
7.06581e-05
7.06451e-05
6.77486e-05
7.28181e-05
6.78141e-05
7.06354e-05
7.28241e-05
6.78278e-05
2.64685e-05
2.64672e-05
2.64631e-05
4.30515e-05
5.93641e-05
6.39301e-05
5.92934e-05
4.31957e-05
7.06478e-05
4.8543e-05
5.93036e-05
6.39729e-05
6.93769e-05
6.93885e-05
5.14037e-05
6.93346e-05
6.9348e-05
7.0635e-05
7.06201e-05
7.06378e-05
5.10933e-05
6.93094e-05
5.11916e-05
6.93018e-05
6.93108e-05
6.77463e-05
5.91235e-05
5.91213e-05
6.77642e-05
7.28165e-05
7.28067e-05
6.78144e-05
6.77617e-05
7.28106e-05
7.28004e-05
6.78117e-05
4.82952e-05
4.84213e-05
4.29074e-05
5.91526e-05
6.39314e-05
6.38974e-05
5.92703e-05
4.29033e-05
4.84116e-05
4.82906e-05
5.91502e-05
6.39176e-05
6.38868e-05
5.9267e-05
7.06328e-05
7.06164e-05
5.1087e-05
6.92861e-05
6.92945e-05
6.92999e-05
6.92966e-05
7.06357e-05
7.06188e-05
4.28979e-05
4.82884e-05
4.2739e-05
5.91311e-05
6.39292e-05
6.3882e-05
5.92737e-05
6.77501e-05
7.2821e-05
7.28069e-05
6.78309e-05
4.84233e-05
6.39853e-05
4.27298e-05
4.82724e-05
6.38916e-05
5.91267e-05
5.92797e-05
7.28228e-05
6.775e-05
6.78372e-05
7.06373e-05
7.06399e-05
5.12679e-05
6.92873e-05
7.28125e-05
6.78114e-05
4.30556e-05
6.39299e-05
5.92842e-05
4.85202e-05
6.39164e-05
5.9281e-05
6.92739e-05
6.92836e-05
7.06382e-05
5.92911e-05
4.85285e-05
4.30525e-05
7.2831e-05
4.85408e-05
4.30538e-05
6.39622e-05
6.78478e-05
7.28228e-05
6.78351e-05
4.85586e-05
6.39906e-05
5.93742e-05
4.86743e-05
5.93009e-05
4.32084e-05
6.39935e-05
6.78543e-05
6.78418e-05
7.28475e-05
6.93399e-05
6.93454e-05
7.06492e-05
4.30552e-05
5.93068e-05
6.39984e-05
4.86735e-05
6.40032e-05
7.28406e-05
7.28484e-05
7.28519e-05
7.06647e-05
7.0657e-05
7.06679e-05
7.12698e-05
7.10302e-05
7.09206e-05
6.7805e-05
7.10214e-05
7.091e-05
7.12776e-05
7.12758e-05
7.09403e-05
7.10374e-05
6.7811e-05
7.09208e-05
7.10277e-05
7.1284e-05
7.12799e-05
7.09499e-05
7.10388e-05
6.78142e-05
7.09285e-05
7.10292e-05
7.12873e-05
7.06482e-05
7.11622e-05
7.28373e-05
7.9248e-05
7.92441e-05
7.11706e-05
7.33282e-05
6.41516e-05
7.26599e-05
6.929e-05
7.332e-05
7.26731e-05
6.41569e-05
7.12888e-05
7.10334e-05
7.09192e-05
6.78344e-05
7.12801e-05
7.1042e-05
7.09228e-05
7.11763e-05
7.92435e-05
7.28438e-05
7.1168e-05
7.92378e-05
7.12937e-05
7.09415e-05
7.10405e-05
6.78623e-05
7.1286e-05
7.09464e-05
7.10484e-05
7.12958e-05
7.09507e-05
7.10417e-05
6.78659e-05
7.12891e-05
7.09557e-05
7.10493e-05
7.06579e-05
7.11517e-05
7.2819e-05
7.92217e-05
7.92237e-05
7.11615e-05
7.12687e-05
7.09168e-05
7.10303e-05
6.78057e-05
7.09086e-05
7.10214e-05
7.12766e-05
7.11553e-05
7.92218e-05
7.28256e-05
7.92215e-05
7.11646e-05
7.06407e-05
7.34238e-05
6.41955e-05
7.2681e-05
6.93449e-05
6.41719e-05
7.2678e-05
7.34243e-05
9.43504e-05
7.29871e-05
7.29942e-05
7.29803e-05
7.29872e-05
9.4322e-05
7.33744e-05
6.4191e-05
7.26749e-05
6.93453e-05
7.2671e-05
6.41646e-05
7.3376e-05
7.06421e-05
7.11601e-05
7.92519e-05
7.28339e-05
7.9249e-05
7.11699e-05
7.1167e-05
7.92609e-05
7.2843e-05
7.92546e-05
7.11752e-05
7.11688e-05
7.28398e-05
7.92228e-05
7.11588e-05
7.92489e-05
7.34548e-05
6.42344e-05
7.26903e-05
6.93742e-05
7.26894e-05
7.34517e-05
6.42082e-05
9.44748e-05
7.29992e-05
7.29945e-05
7.29984e-05
7.2994e-05
9.44152e-05
7.34927e-05
6.42456e-05
7.26996e-05
6.93841e-05
6.42182e-05
7.26984e-05
7.3491e-05
7.34543e-05
6.93646e-05
6.41365e-05
7.26854e-05
7.26903e-05
6.41865e-05
7.344e-05
9.45087e-05
7.3008e-05
7.30035e-05
7.30086e-05
7.3004e-05
9.4514e-05
7.34916e-05
6.9373e-05
6.41447e-05
7.26933e-05
6.41961e-05
7.2699e-05
7.34755e-05
7.06487e-05
7.06527e-05
7.06531e-05
7.12388e-05
7.09992e-05
7.08709e-05
6.77043e-05
7.09856e-05
7.08317e-05
7.12506e-05
7.11684e-05
7.91941e-05
7.28241e-05
7.11566e-05
7.91868e-05
7.1286e-05
6.78183e-05
7.10295e-05
7.09031e-05
7.12758e-05
7.10389e-05
7.09058e-05
7.06493e-05
7.11712e-05
7.92094e-05
7.28294e-05
7.11604e-05
7.92032e-05
7.12889e-05
7.09148e-05
7.10336e-05
6.78337e-05
7.12795e-05
7.09184e-05
7.10424e-05
7.06561e-05
7.34228e-05
6.42401e-05
7.26883e-05
6.93687e-05
7.34356e-05
6.42473e-05
7.26888e-05
9.43421e-05
7.29932e-05
7.29888e-05
9.43745e-05
7.29993e-05
7.29945e-05
7.34673e-05
6.42516e-05
7.26979e-05
6.93821e-05
7.34783e-05
6.42595e-05
7.26985e-05
9.43254e-05
7.30124e-05
7.30071e-05
7.29988e-05
7.29944e-05
9.43174e-05
7.34079e-05
6.93469e-05
7.26902e-05
6.42481e-05
6.42456e-05
7.26876e-05
7.34042e-05
7.34529e-05
6.93613e-05
7.26998e-05
6.42605e-05
6.42579e-05
7.26974e-05
7.34498e-05
7.06272e-05
7.06267e-05
7.06301e-05
7.33318e-05
6.9315e-05
6.41504e-05
7.26559e-05
6.41403e-05
7.26516e-05
7.33267e-05
7.33409e-05
6.41434e-05
6.93103e-05
7.26513e-05
7.26467e-05
6.41379e-05
7.33354e-05
7.33532e-05
6.41129e-05
7.26437e-05
6.93128e-05
7.33566e-05
7.2646e-05
6.41343e-05
9.42311e-05
7.29736e-05
7.29744e-05
7.29609e-05
7.29587e-05
9.42056e-05
7.12371e-05
7.09986e-05
7.08631e-05
6.77022e-05
7.09851e-05
7.08249e-05
7.12488e-05
7.12621e-05
7.10038e-05
7.08812e-05
6.77949e-05
7.12536e-05
7.10139e-05
7.09006e-05
7.11476e-05
7.28134e-05
7.92109e-05
7.11575e-05
7.92158e-05
7.11495e-05
7.92163e-05
7.28125e-05
7.11397e-05
7.92199e-05
7.12645e-05
6.78016e-05
7.10259e-05
7.09059e-05
7.12726e-05
7.10174e-05
7.0901e-05
7.12603e-05
7.10032e-05
7.08731e-05
6.77923e-05
7.12519e-05
7.10133e-05
7.08924e-05
7.1146e-05
7.28072e-05
7.91911e-05
7.91954e-05
7.11557e-05
7.11474e-05
7.91953e-05
7.28061e-05
7.11379e-05
7.9199e-05
7.12628e-05
6.7799e-05
7.10253e-05
7.08978e-05
7.10168e-05
7.08927e-05
7.1271e-05
7.06241e-05
7.06235e-05
9.42339e-05
7.2946e-05
7.29496e-05
7.29511e-05
7.29554e-05
9.4284e-05
7.3329e-05
6.41298e-05
6.92974e-05
7.26478e-05
6.41254e-05
7.26427e-05
7.3323e-05
7.33002e-05
6.4127e-05
6.92991e-05
7.2647e-05
7.26411e-05
6.41177e-05
7.32943e-05
7.3346e-05
6.41052e-05
7.264e-05
6.93006e-05
6.41224e-05
7.2642e-05
7.33554e-05
7.33195e-05
6.40916e-05
7.26373e-05
6.92999e-05
7.26399e-05
6.41127e-05
7.33286e-05
9.41998e-05
7.29682e-05
7.2973e-05
7.29517e-05
7.29562e-05
9.4177e-05
7.06272e-05
7.06262e-05
7.12664e-05
7.08691e-05
7.10069e-05
6.77923e-05
7.09001e-05
7.10195e-05
7.1256e-05
7.11505e-05
7.28165e-05
7.92174e-05
7.92195e-05
7.11611e-05
7.11522e-05
7.92119e-05
7.28147e-05
7.92197e-05
7.11414e-05
7.12692e-05
6.78055e-05
7.09179e-05
7.10331e-05
7.09063e-05
7.10237e-05
7.12775e-05
7.11641e-05
7.28346e-05
7.92193e-05
7.92406e-05
7.11543e-05
7.12731e-05
7.08741e-05
7.10085e-05
6.77963e-05
7.10214e-05
7.09141e-05
7.12622e-05
7.12757e-05
7.09396e-05
6.78105e-05
7.10347e-05
7.10255e-05
7.09231e-05
7.12831e-05
7.06497e-05
7.06518e-05
7.33296e-05
6.41422e-05
7.26556e-05
6.92785e-05
7.33272e-05
7.26693e-05
6.41444e-05
9.42061e-05
7.29823e-05
7.29832e-05
9.41989e-05
7.30111e-05
7.30117e-05
7.11673e-05
7.91749e-05
7.28191e-05
7.11552e-05
7.91676e-05
7.12846e-05
6.78156e-05
7.1029e-05
7.08949e-05
7.10384e-05
7.12743e-05
7.08976e-05
7.33186e-05
6.41303e-05
7.2653e-05
6.92669e-05
7.26689e-05
7.33171e-05
6.41336e-05
7.3289e-05
6.4129e-05
7.26522e-05
6.92785e-05
6.41354e-05
7.32874e-05
7.26674e-05
9.41749e-05
7.2978e-05
7.29829e-05
7.301e-05
9.41686e-05
7.3015e-05
7.06507e-05
7.11728e-05
7.92136e-05
7.28346e-05
7.11629e-05
7.92071e-05
7.12935e-05
6.78435e-05
7.09223e-05
7.10588e-05
7.0919e-05
7.10488e-05
7.13052e-05
7.11714e-05
7.92069e-05
7.28288e-05
7.91998e-05
7.11597e-05
7.12896e-05
6.78442e-05
7.0917e-05
7.10365e-05
7.09211e-05
7.12803e-05
7.1045e-05
7.11723e-05
7.91909e-05
7.12952e-05
6.78503e-05
7.10586e-05
7.09417e-05
7.10494e-05
7.09397e-05
7.13043e-05
7.12924e-05
7.0939e-05
6.78511e-05
7.10379e-05
7.12851e-05
7.10459e-05
7.09432e-05
7.11744e-05
7.28442e-05
7.92109e-05
7.92183e-05
7.11843e-05
7.34216e-05
6.42017e-05
7.26824e-05
6.93304e-05
7.34214e-05
7.26885e-05
6.42123e-05
9.43001e-05
7.29886e-05
7.29958e-05
9.43067e-05
7.30042e-05
7.30116e-05
7.3375e-05
6.41986e-05
7.26766e-05
6.93398e-05
7.33741e-05
6.4212e-05
7.26832e-05
7.06571e-05
7.11771e-05
7.92478e-05
7.28439e-05
7.11672e-05
7.92425e-05
7.11802e-05
7.92579e-05
7.28498e-05
7.11723e-05
7.92536e-05
7.11776e-05
7.28497e-05
7.92267e-05
7.92355e-05
7.11868e-05
7.06575e-05
7.06621e-05
7.06613e-05
5.42678e-05
5.28452e-05
6.10928e-05
5.9224e-05
5.2828e-05
6.10493e-05
5.42748e-05
6.47571e-05
5.7802e-05
5.7803e-05
5.11914e-05
5.77873e-05
5.77879e-05
6.47776e-05
6.48178e-05
5.78392e-05
5.78423e-05
5.121e-05
5.78243e-05
6.48362e-05
5.78213e-05
2.64687e-05
2.64657e-05
1.72928e-05
6.48499e-05
5.78939e-05
5.78974e-05
5.13271e-05
6.48442e-05
5.79019e-05
5.79057e-05
6.46989e-05
5.11779e-05
5.77597e-05
5.77587e-05
5.77542e-05
5.7752e-05
6.47026e-05
6.47114e-05
5.77941e-05
5.77946e-05
5.12537e-05
5.78006e-05
6.47065e-05
5.7799e-05
5.56992e-05
6.31632e-05
5.89755e-05
6.39388e-05
5.56985e-05
6.31695e-05
5.89809e-05
5.43628e-05
5.29333e-05
6.11072e-05
5.93256e-05
5.43632e-05
5.29439e-05
6.11328e-05
6.48014e-05
5.7852e-05
5.78543e-05
5.12963e-05
6.47872e-05
5.78637e-05
5.78609e-05
3.39222e-05
3.40967e-05
2.62847e-05
2.62829e-05
2.61006e-05
1.69961e-05
1.71432e-05
2.62861e-05
3.40945e-05
2.62827e-05
3.39239e-05
2.61019e-05
1.6996e-05
1.71429e-05
3.40881e-05
2.62774e-05
2.60995e-05
3.3907e-05
2.60964e-05
1.69977e-05
1.71444e-05
3.40893e-05
2.62834e-05
3.39131e-05
2.61018e-05
2.60989e-05
1.69971e-05
1.71437e-05
5.56323e-05
6.39271e-05
6.31588e-05
5.89444e-05
6.31366e-05
5.89341e-05
5.56398e-05
5.42717e-05
6.10883e-05
5.28467e-05
5.92256e-05
6.10507e-05
5.28306e-05
5.42754e-05
5.56304e-05
6.31694e-05
5.89624e-05
6.39408e-05
6.31384e-05
5.89456e-05
5.56432e-05
5.42626e-05
5.284e-05
6.11008e-05
5.92178e-05
5.28182e-05
6.10481e-05
5.42733e-05
5.56301e-05
5.89635e-05
6.31816e-05
6.39429e-05
5.89447e-05
6.31441e-05
5.56456e-05
5.42634e-05
5.28403e-05
6.11093e-05
5.92189e-05
5.28178e-05
6.10519e-05
5.42764e-05
5.56364e-05
5.8989e-05
6.31977e-05
6.3965e-05
6.31544e-05
5.89668e-05
5.56554e-05
5.55386e-05
6.39404e-05
5.88593e-05
6.30583e-05
5.55121e-05
6.31248e-05
5.88937e-05
6.4794e-05
5.10955e-05
5.77158e-05
5.77192e-05
5.7748e-05
5.77452e-05
6.47545e-05
3.42615e-05
2.64649e-05
2.66466e-05
1.72923e-05
3.42683e-05
2.64626e-05
3.44427e-05
2.66527e-05
1.72935e-05
3.42646e-05
2.64672e-05
1.72925e-05
5.44277e-05
5.93412e-05
6.1148e-05
5.3026e-05
6.11316e-05
5.30204e-05
5.44243e-05
5.56944e-05
5.89647e-05
6.31588e-05
6.39328e-05
5.56926e-05
5.8971e-05
6.31673e-05
5.43548e-05
5.2933e-05
5.9329e-05
6.10987e-05
5.43557e-05
6.11235e-05
5.29443e-05
5.57431e-05
6.31704e-05
5.43729e-05
5.29373e-05
6.11198e-05
5.93472e-05
5.43701e-05
5.29527e-05
6.11535e-05
5.57266e-05
5.901e-05
6.31942e-05
6.39815e-05
5.57199e-05
5.90204e-05
6.32129e-05
6.48521e-05
5.14052e-05
5.79409e-05
5.79452e-05
5.79384e-05
5.79427e-05
6.48537e-05
6.47126e-05
5.77064e-05
5.11009e-05
5.77122e-05
5.77197e-05
6.46981e-05
5.77245e-05
6.47178e-05
5.11894e-05
5.77746e-05
5.77767e-05
5.77674e-05
5.77701e-05
6.47244e-05
5.40656e-05
5.26328e-05
6.09615e-05
5.90612e-05
6.09009e-05
5.26134e-05
5.40767e-05
5.4061e-05
5.2631e-05
6.09544e-05
5.90594e-05
6.08951e-05
5.26118e-05
5.40715e-05
5.41862e-05
5.27293e-05
6.09876e-05
5.92078e-05
5.41783e-05
6.10362e-05
5.27475e-05
5.56376e-05
5.89472e-05
6.3925e-05
6.31538e-05
5.89388e-05
6.31375e-05
5.56428e-05
5.55663e-05
5.88785e-05
6.30884e-05
6.392e-05
5.88957e-05
5.55527e-05
6.31259e-05
5.42784e-05
5.28518e-05
5.92301e-05
6.10852e-05
6.10537e-05
5.28389e-05
5.42795e-05
5.41789e-05
5.27269e-05
6.09798e-05
5.9205e-05
5.41716e-05
6.10277e-05
5.27448e-05
5.56241e-05
5.89308e-05
6.3912e-05
6.31387e-05
6.31226e-05
5.89227e-05
5.56289e-05
5.55546e-05
5.88655e-05
6.30751e-05
6.39072e-05
5.55419e-05
6.31114e-05
5.88815e-05
5.42699e-05
5.28486e-05
5.92271e-05
6.10757e-05
6.10448e-05
5.28359e-05
5.42707e-05
6.46946e-05
5.10928e-05
5.77005e-05
5.76964e-05
5.7711e-05
5.77077e-05
6.46846e-05
5.41703e-05
5.27097e-05
6.09682e-05
5.91939e-05
6.10227e-05
5.273e-05
5.41609e-05
5.56249e-05
5.89335e-05
6.39171e-05
6.3152e-05
5.56328e-05
5.89229e-05
6.31283e-05
5.55515e-05
5.8861e-05
6.30717e-05
6.3909e-05
5.88784e-05
6.3113e-05
5.55373e-05
5.42667e-05
5.28443e-05
5.92218e-05
6.10849e-05
5.42715e-05
6.10447e-05
5.28268e-05
5.564e-05
5.89865e-05
6.39614e-05
6.31921e-05
5.89656e-05
6.3153e-05
5.56574e-05
5.55453e-05
6.39389e-05
5.88614e-05
6.30646e-05
5.88946e-05
6.31265e-05
5.55202e-05
5.41615e-05
5.27032e-05
6.09589e-05
5.9194e-05
5.27255e-05
6.10271e-05
5.41461e-05
5.42702e-05
5.28459e-05
6.11065e-05
5.9224e-05
5.28264e-05
6.10551e-05
5.42808e-05
6.47323e-05
5.78125e-05
5.78118e-05
5.1266e-05
6.47268e-05
5.78137e-05
5.78162e-05
5.56959e-05
5.89746e-05
6.31547e-05
6.3931e-05
6.31592e-05
5.56967e-05
5.89773e-05
5.43532e-05
5.29315e-05
5.93094e-05
6.10944e-05
6.11115e-05
5.43563e-05
5.29382e-05
5.56819e-05
5.89578e-05
6.31395e-05
6.39175e-05
5.56825e-05
6.31442e-05
5.89619e-05
5.43442e-05
5.29281e-05
5.93062e-05
6.10849e-05
5.43473e-05
6.11021e-05
5.29348e-05
5.43556e-05
6.11002e-05
5.29327e-05
5.93228e-05
5.43574e-05
6.11224e-05
5.29423e-05
5.57158e-05
6.31782e-05
5.90045e-05
6.39666e-05
5.57118e-05
6.31898e-05
5.90129e-05
5.574e-05
5.90354e-05
6.32036e-05
6.39959e-05
5.9045e-05
5.57338e-05
6.32187e-05
5.44537e-05
5.93512e-05
5.30353e-05
6.11779e-05
5.30295e-05
6.11625e-05
5.44502e-05
5.43778e-05
5.29386e-05
6.11238e-05
5.93387e-05
5.29514e-05
5.43761e-05
6.11544e-05
5.57937e-05
6.39938e-05
6.32232e-05
5.90759e-05
5.90734e-05
6.32185e-05
5.57927e-05
5.4381e-05
5.29393e-05
6.11293e-05
5.93512e-05
5.43771e-05
5.29551e-05
6.11651e-05
5.57433e-05
5.90401e-05
6.32114e-05
6.40051e-05
5.57356e-05
5.90509e-05
6.32294e-05
5.57998e-05
6.40033e-05
6.32345e-05
5.90843e-05
5.90812e-05
6.32297e-05
5.57991e-05
2.84022e-05
4.40559e-05
4.40583e-05
4.77461e-05
2.91892e-05
4.4718e-05
4.4722e-05
4.82741e-05
2.99702e-05
4.53345e-05
4.53352e-05
4.87641e-05
3.07453e-05
4.59674e-05
4.59725e-05
4.92603e-05
3.14809e-05
4.64827e-05
4.64832e-05
4.96308e-05
3.22037e-05
4.70577e-05
4.70551e-05
5.01336e-05
3.34223e-05
4.75772e-05
4.76023e-05
5.0531e-05
5.07954e-05
4.38919e-05
4.76284e-05
4.38951e-05
4.38986e-05
4.38944e-05
4.76311e-05
6.83374e-05
4.81604e-05
4.40536e-05
4.40527e-05
4.45542e-05
4.45509e-05
4.77475e-05
4.81571e-05
6.24923e-05
6.65692e-05
5.70175e-05
4.4553e-05
4.45579e-05
4.40581e-05
4.45538e-05
4.45494e-05
6.83592e-05
4.81637e-05
4.40542e-05
4.45603e-05
4.4547e-05
4.81548e-05
4.82764e-05
4.86411e-05
4.47217e-05
4.47162e-05
4.51835e-05
4.51785e-05
4.82716e-05
4.86403e-05
4.47198e-05
4.47202e-05
4.51809e-05
4.51787e-05
4.4717e-05
4.51823e-05
4.51939e-05
4.8275e-05
4.86379e-05
4.47143e-05
4.51819e-05
4.51909e-05
4.8654e-05
4.87555e-05
4.91642e-05
4.53341e-05
4.53301e-05
4.58135e-05
4.58094e-05
4.87558e-05
4.91622e-05
4.5331e-05
4.53312e-05
4.58111e-05
4.58154e-05
4.53435e-05
4.58126e-05
4.58018e-05
4.87543e-05
4.91714e-05
4.53401e-05
4.58167e-05
4.57988e-05
4.91503e-05
4.9271e-05
4.95333e-05
4.59711e-05
4.59659e-05
4.63591e-05
4.63566e-05
4.92689e-05
4.95373e-05
4.59682e-05
4.59722e-05
4.63563e-05
4.63616e-05
4.59593e-05
4.63613e-05
4.63714e-05
4.92792e-05
4.95365e-05
4.59556e-05
4.6365e-05
4.63695e-05
4.95485e-05
4.96209e-05
5.00276e-05
4.64791e-05
4.64776e-05
4.69094e-05
4.69015e-05
4.96257e-05
5.0018e-05
4.64767e-05
4.64782e-05
4.69045e-05
4.68945e-05
4.64894e-05
4.69045e-05
4.6892e-05
4.96186e-05
5.00118e-05
4.64867e-05
4.68967e-05
4.68889e-05
5.00068e-05
5.01461e-05
5.04284e-05
4.70675e-05
4.7057e-05
4.74718e-05
4.74624e-05
5.01335e-05
5.04269e-05
4.70638e-05
4.70546e-05
4.74674e-05
4.7489e-05
4.70535e-05
4.7467e-05
4.74958e-05
5.01365e-05
5.04596e-05
4.7048e-05
4.7492e-05
4.74952e-05
5.04667e-05
5.04974e-05
5.07549e-05
4.75725e-05
4.75705e-05
4.78961e-05
5.5257e-05
5.05006e-05
4.75746e-05
4.75969e-05
4.78866e-05
4.78783e-05
4.76046e-05
4.7903e-05
5.89181e-05
6.75775e-05
5.05275e-05
5.07246e-05
4.76025e-05
4.78832e-05
4.7866e-05
5.07011e-05
7.0589e-05
7.05989e-05
4.8027e-05
5.89415e-05
6.75978e-05
7.21418e-05
6.24755e-05
4.38915e-05
7.01072e-05
6.83395e-05
4.76277e-05
6.83424e-05
7.01067e-05
2.82079e-05
2.82106e-05
6.66505e-05
7.21481e-05
6.65702e-05
7.22001e-05
7.01077e-05
7.01444e-05
7.21511e-05
6.65709e-05
6.66549e-05
7.22023e-05
2.84029e-05
2.84028e-05
2.84064e-05
2.89896e-05
2.899e-05
2.89958e-05
2.89915e-05
5.71565e-05
6.24942e-05
3.75425e-05
4.42198e-05
5.70251e-05
6.26003e-05
3.77383e-05
7.01119e-05
7.01438e-05
6.25039e-05
5.71604e-05
3.75423e-05
4.42255e-05
5.70218e-05
3.77409e-05
6.2614e-05
6.83372e-05
6.83456e-05
4.78871e-05
6.84096e-05
6.84193e-05
6.6846e-05
7.22489e-05
6.67829e-05
7.22718e-05
7.01728e-05
7.01986e-05
6.68422e-05
7.22505e-05
6.67817e-05
7.22736e-05
2.91887e-05
2.91942e-05
2.91897e-05
2.97794e-05
2.97774e-05
2.978e-05
2.97843e-05
5.75065e-05
6.2744e-05
3.83369e-05
4.48774e-05
5.73683e-05
6.28081e-05
3.85367e-05
7.01716e-05
7.01997e-05
5.75025e-05
3.83421e-05
6.27409e-05
4.48783e-05
5.73693e-05
3.85404e-05
6.28003e-05
6.85199e-05
6.85273e-05
4.84123e-05
6.85635e-05
6.85704e-05
6.69923e-05
7.2329e-05
6.6905e-05
7.23874e-05
7.0254e-05
7.02902e-05
6.69943e-05
7.23317e-05
6.69054e-05
7.23899e-05
2.99693e-05
2.99718e-05
2.99776e-05
3.05492e-05
3.05493e-05
3.0554e-05
3.05494e-05
5.77886e-05
6.28982e-05
3.91074e-05
4.54909e-05
5.76646e-05
6.30128e-05
3.92908e-05
7.02556e-05
7.02918e-05
5.77878e-05
3.91093e-05
6.29003e-05
4.54931e-05
5.76624e-05
3.92934e-05
6.30154e-05
6.86041e-05
6.86117e-05
4.88982e-05
6.86905e-05
6.86977e-05
6.71785e-05
7.24262e-05
6.71324e-05
7.24335e-05
7.03068e-05
7.03207e-05
6.71791e-05
7.24284e-05
6.71323e-05
7.24358e-05
3.07449e-05
3.07498e-05
3.07425e-05
3.13061e-05
3.13052e-05
3.13102e-05
3.13106e-05
5.81233e-05
6.3159e-05
3.98552e-05
4.61105e-05
5.79967e-05
6.31966e-05
4.00417e-05
7.03083e-05
7.03205e-05
5.81228e-05
3.98576e-05
6.31614e-05
4.61158e-05
5.79948e-05
4.00439e-05
6.3201e-05
6.88036e-05
6.88111e-05
4.93746e-05
6.88129e-05
6.88211e-05
6.72563e-05
7.24748e-05
6.71911e-05
7.25483e-05
7.03717e-05
7.04278e-05
6.72518e-05
7.24759e-05
6.71915e-05
7.25491e-05
3.14815e-05
3.14861e-05
3.14886e-05
3.20169e-05
3.20161e-05
3.20156e-05
3.20153e-05
5.83131e-05
6.32157e-05
4.05494e-05
4.66134e-05
5.82296e-05
6.33109e-05
4.07061e-05
7.03663e-05
7.04277e-05
5.83089e-05
4.05537e-05
6.32135e-05
4.66087e-05
5.82313e-05
4.07092e-05
6.32924e-05
6.87757e-05
6.87841e-05
4.97357e-05
6.88455e-05
6.88494e-05
6.75083e-05
7.26153e-05
6.74249e-05
7.26275e-05
7.04596e-05
7.04713e-05
6.75128e-05
7.26182e-05
6.74197e-05
7.26317e-05
3.22019e-05
3.22011e-05
3.21996e-05
3.27606e-05
3.27554e-05
3.27675e-05
3.27691e-05
5.86828e-05
6.35065e-05
4.12053e-05
4.72065e-05
5.85202e-05
6.35874e-05
4.13836e-05
7.04705e-05
7.04804e-05
5.86842e-05
4.12019e-05
6.35075e-05
4.72132e-05
5.85109e-05
4.13823e-05
6.36127e-05
6.90879e-05
6.90945e-05
5.0287e-05
6.91357e-05
6.9145e-05
6.75301e-05
7.26346e-05
6.7524e-05
7.26727e-05
7.04912e-05
7.05358e-05
6.75353e-05
7.2637e-05
6.75333e-05
7.26709e-05
3.34202e-05
3.29311e-05
3.29296e-05
3.29448e-05
3.29459e-05
3.34192e-05
1.6567e-05
5.88538e-05
6.36015e-05
4.18877e-05
4.7682e-05
5.88144e-05
6.36115e-05
4.20326e-05
7.04849e-05
7.05193e-05
5.88601e-05
4.19009e-05
6.3625e-05
4.76961e-05
5.88284e-05
4.20451e-05
6.36087e-05
6.90483e-05
6.90608e-05
5.05738e-05
6.90003e-05
6.90075e-05
6.916e-05
6.93139e-05
5.093e-05
6.91578e-05
6.9318e-05
7.01002e-05
7.01024e-05
6.83208e-05
4.76267e-05
6.83124e-05
7.21389e-05
6.65594e-05
7.21367e-05
6.65578e-05
4.38962e-05
6.2475e-05
3.73456e-05
5.69982e-05
6.24715e-05
3.73426e-05
5.69962e-05
7.01022e-05
6.83198e-05
6.83188e-05
7.01012e-05
6.24773e-05
3.7345e-05
5.70005e-05
7.21408e-05
6.65642e-05
3.73471e-05
6.24824e-05
5.70007e-05
7.21379e-05
6.65644e-05
4.38916e-05
6.24833e-05
3.73436e-05
5.69951e-05
3.73439e-05
6.24843e-05
5.6996e-05
7.21468e-05
6.65616e-05
7.21409e-05
6.65629e-05
6.83265e-05
6.83345e-05
7.00986e-05
7.01019e-05
7.01061e-05
7.01447e-05
7.01081e-05
7.01462e-05
4.77451e-05
6.83335e-05
4.78927e-05
6.84335e-05
6.84401e-05
7.01724e-05
7.01481e-05
7.01738e-05
7.01495e-05
4.80157e-05
6.85197e-05
6.85232e-05
6.8456e-05
6.84621e-05
6.66495e-05
7.21461e-05
6.65687e-05
7.21975e-05
5.71536e-05
6.24913e-05
3.75413e-05
4.42174e-05
5.70224e-05
6.25958e-05
3.77365e-05
5.71522e-05
6.24889e-05
3.75393e-05
4.4216e-05
5.70205e-05
6.25958e-05
3.77344e-05
6.66686e-05
7.22447e-05
7.22089e-05
6.67681e-05
6.66677e-05
7.22406e-05
7.2206e-05
6.67668e-05
5.71841e-05
4.43851e-05
6.27317e-05
3.81349e-05
6.26193e-05
3.79338e-05
5.73412e-05
5.71828e-05
4.43831e-05
6.27261e-05
3.81329e-05
6.26188e-05
3.7932e-05
5.73396e-05
6.83427e-05
6.83373e-05
4.78942e-05
6.84364e-05
6.84357e-05
7.01069e-05
7.01437e-05
7.01713e-05
7.01473e-05
4.80159e-05
6.85137e-05
6.85119e-05
6.84591e-05
6.84547e-05
7.01714e-05
7.01469e-05
5.70193e-05
4.4054e-05
3.75386e-05
5.71559e-05
4.42155e-05
6.26003e-05
3.7735e-05
7.2152e-05
6.66543e-05
7.21992e-05
6.24974e-05
4.4052e-05
3.75382e-05
5.71561e-05
4.42216e-05
3.77363e-05
6.26099e-05
6.66727e-05
7.22463e-05
7.22109e-05
6.67679e-05
5.71869e-05
4.43833e-05
6.27341e-05
3.81356e-05
6.26237e-05
3.79337e-05
5.73426e-05
6.66719e-05
7.22378e-05
7.22065e-05
6.67646e-05
5.71871e-05
4.43909e-05
3.8138e-05
6.27251e-05
3.79361e-05
6.26309e-05
5.73412e-05
6.6653e-05
7.21499e-05
6.65753e-05
7.22003e-05
5.71549e-05
3.75449e-05
6.24971e-05
4.4219e-05
5.70253e-05
3.77404e-05
6.25869e-05
6.66504e-05
7.21458e-05
6.65753e-05
7.21918e-05
5.71861e-05
4.43864e-05
6.27284e-05
3.81356e-05
6.26226e-05
3.79357e-05
5.73381e-05
6.66698e-05
7.22439e-05
7.22087e-05
6.67642e-05
5.7184e-05
4.43828e-05
3.81352e-05
6.27162e-05
3.79366e-05
6.26075e-05
5.73349e-05
6.66668e-05
7.22434e-05
7.22007e-05
6.67611e-05
4.77513e-05
6.83656e-05
4.79039e-05
6.84487e-05
6.8448e-05
7.01115e-05
7.01434e-05
7.01694e-05
7.01463e-05
4.80261e-05
6.85066e-05
6.85052e-05
6.84634e-05
6.84623e-05
7.01691e-05
7.01459e-05
5.71574e-05
3.75419e-05
6.24995e-05
4.42157e-05
5.7022e-05
3.77385e-05
6.25916e-05
7.21558e-05
6.66575e-05
6.65748e-05
7.22018e-05
6.66547e-05
7.21489e-05
6.65752e-05
7.21943e-05
5.71905e-05
4.43941e-05
3.81414e-05
6.27276e-05
3.79406e-05
6.26347e-05
5.73402e-05
5.7187e-05
4.438e-05
3.81356e-05
6.27197e-05
3.79361e-05
6.26121e-05
5.73371e-05
6.66739e-05
7.2241e-05
7.2209e-05
6.67626e-05
6.66709e-05
7.22448e-05
7.2203e-05
6.67614e-05
7.01032e-05
7.01404e-05
7.01065e-05
7.01434e-05
4.80077e-05
6.8508e-05
6.85157e-05
6.84279e-05
6.84372e-05
7.01759e-05
7.01449e-05
7.01786e-05
7.01478e-05
7.0174e-05
7.01979e-05
7.01754e-05
7.01997e-05
6.85268e-05
6.853e-05
4.84041e-05
6.85389e-05
6.85413e-05
7.02453e-05
7.02021e-05
7.02474e-05
7.02039e-05
4.85123e-05
6.85799e-05
6.85844e-05
6.85391e-05
6.85416e-05
6.68439e-05
7.22448e-05
6.67814e-05
7.22684e-05
5.75083e-05
6.27481e-05
3.83382e-05
4.48816e-05
5.7372e-05
6.28121e-05
3.85394e-05
5.75059e-05
6.27416e-05
3.83358e-05
4.48752e-05
5.73703e-05
6.28031e-05
3.85364e-05
6.68523e-05
7.23176e-05
7.2277e-05
6.68942e-05
6.68502e-05
7.2316e-05
7.2274e-05
6.68928e-05
5.75308e-05
4.50353e-05
6.28737e-05
3.89224e-05
6.28201e-05
3.87349e-05
5.76342e-05
5.75285e-05
4.50287e-05
6.28717e-05
3.89193e-05
6.28119e-05
3.87315e-05
5.76322e-05
6.85204e-05
6.85183e-05
4.83989e-05
6.85299e-05
6.85346e-05
7.01734e-05
7.01993e-05
7.02476e-05
7.02031e-05
4.85081e-05
6.85913e-05
6.85895e-05
6.85324e-05
6.85371e-05
7.02466e-05
7.02038e-05
5.75049e-05
6.275e-05
3.83388e-05
4.48797e-05
5.73725e-05
6.28124e-05
3.85393e-05
6.68379e-05
7.22422e-05
6.67781e-05
7.22679e-05
5.75013e-05
3.834e-05
6.27386e-05
4.48767e-05
5.73706e-05
3.85391e-05
6.27967e-05
6.68489e-05
7.23202e-05
7.2279e-05
6.68939e-05
5.75273e-05
4.50324e-05
6.28749e-05
3.89211e-05
6.28203e-05
3.87338e-05
5.76319e-05
6.68449e-05
7.23191e-05
7.22742e-05
6.68917e-05
5.75236e-05
4.50284e-05
3.89202e-05
6.2874e-05
3.87327e-05
6.28065e-05
5.76297e-05
6.68477e-05
7.22484e-05
6.67791e-05
7.2273e-05
5.75069e-05
3.83363e-05
6.27355e-05
4.48816e-05
5.73655e-05
3.85373e-05
6.28212e-05
6.68491e-05
7.22496e-05
6.67766e-05
7.2278e-05
5.75305e-05
4.5031e-05
6.28799e-05
3.8922e-05
6.28174e-05
3.87323e-05
5.7642e-05
6.6856e-05
7.23208e-05
7.22787e-05
6.69051e-05
5.75315e-05
4.50411e-05
3.89264e-05
6.28924e-05
3.87351e-05
6.28335e-05
5.76443e-05
6.68578e-05
7.23154e-05
7.22829e-05
6.69065e-05
6.85109e-05
6.85094e-05
4.83975e-05
6.85274e-05
6.85277e-05
7.01713e-05
7.01998e-05
7.02489e-05
7.02047e-05
4.85053e-05
6.85935e-05
6.85963e-05
6.85318e-05
6.85331e-05
7.02482e-05
7.02048e-05
5.75043e-05
3.83369e-05
6.27386e-05
4.48789e-05
5.73668e-05
3.85373e-05
6.28229e-05
6.6842e-05
7.22455e-05
6.67763e-05
7.22722e-05
6.68457e-05
7.22509e-05
6.67759e-05
7.22797e-05
5.75264e-05
4.50307e-05
3.89238e-05
6.28811e-05
3.87345e-05
6.28108e-05
5.76393e-05
5.75287e-05
4.50378e-05
3.89255e-05
6.28945e-05
3.87343e-05
6.28351e-05
5.76418e-05
6.68508e-05
7.23225e-05
7.22786e-05
6.69033e-05
6.68546e-05
7.23174e-05
7.22847e-05
6.69055e-05
7.01786e-05
7.02042e-05
7.01813e-05
7.0207e-05
4.85247e-05
6.85947e-05
6.86022e-05
6.85687e-05
6.85756e-05
7.02392e-05
7.02072e-05
7.02421e-05
7.021e-05
7.02524e-05
7.02899e-05
7.02545e-05
7.02918e-05
6.86123e-05
6.86169e-05
4.89031e-05
6.87302e-05
6.87348e-05
7.03068e-05
7.02918e-05
7.03086e-05
7.02936e-05
4.90236e-05
6.88038e-05
6.8808e-05
6.87558e-05
6.87601e-05
6.69915e-05
7.23275e-05
6.69037e-05
7.23849e-05
5.77834e-05
6.28912e-05
3.91052e-05
4.54886e-05
5.76562e-05
6.30093e-05
3.92869e-05
5.77822e-05
6.28901e-05
3.91025e-05
4.54857e-05
5.76545e-05
6.30091e-05
3.92848e-05
6.70127e-05
7.24244e-05
7.23956e-05
6.71187e-05
6.70118e-05
7.24209e-05
7.23927e-05
6.71173e-05
5.78144e-05