/*--------------------------------*- C++ -*----------------------------------*\
| =========                 |                                                 |
| \\      /  F ield         | OpenFOAM: The Open Source CFD Toolbox           |
|  \\    /   O peration     | Version:  v2006                                 |
|   \\  /    A nd           | Website:  www.openfoam.com                      |
|    \\/     M anipulation  |                                                 |
\*---------------------------------------------------------------------------*/
FoamFile
{
    version     2.0;
    format      ascii;
    class       volScalarField;
    location    "875";
    object      p;
}
// * * * * * * * * * * * * * * * * * * * * * * * * * * * * * * * * * * * * * //

dimensions      [0 2 -2 0 0 0 0];


internalField   nonuniform List<scalar> 
14212
(
0.00106273
0.00106274
0.00106275
0.00106274
0.00106496
0.00106276
0.00106275
0.00106275
0.00106291
0.00106273
0.00106273
0.00106273
0.00106275
0.00106278
0.00106495
0.00106276
0.00106499
0.00106278
0.00106496
0.00106276
0.00106499
0.00106292
0.00106274
0.00106273
0.00106275
0.00106496
0.00106276
0.00106274
0.00106714
0.00106712
0.00106274
0.00106274
0.00106714
0.00106712
0.00106274
0.00106714
0.00106274
0.00106714
0.00106714
0.00106276
0.00106715
0.00106713
0.00106715
0.00106714
0.00106715
0.00106272
0.00106273
0.00106713
0.00106714
0.00106273
0.00106714
0.00106274
0.00106714
0.00106274
0.00106714
0.00106276
0.00106712
0.00106714
0.00106713
0.00106274
0.00106275
0.00106715
0.00106277
0.00106712
0.00106714
0.00106712
0.00106274
0.00106274
0.00106714
0.00106712
0.00106274
0.00106714
0.00106274
0.00106714
0.00106714
0.00106276
0.00106272
0.00106272
0.00106273
0.00106715
0.00106274
0.00106714
0.00106275
0.00106715
0.00106713
0.00106277
0.00106274
0.00106275
0.00106276
0.00106506
0.0010651
0.00106506
0.0010651
0.00106276
0.00106705
0.00106695
0.00106283
0.00106284
0.00106285
0.00106708
0.00106703
0.00106705
0.00106706
0.00106278
0.00106283
0.00106706
0.00106705
0.00106284
0.00106705
0.00106277
0.00106709
0.00106276
0.00106707
0.00106711
0.00106281
0.00106704
0.00106706
0.00106278
0.00106283
0.00106706
0.00106705
0.00106284
0.00106706
0.00106278
0.00106709
0.00106277
0.00106707
0.00106282
0.00106711
0.00106705
0.00106697
0.00106285
0.00106284
0.00106706
0.00106706
0.00106286
0.00106709
0.00106276
0.00106709
0.00106715
0.00106714
0.00106713
0.00106714
0.00106713
0.00106713
0.00106714
0.00106714
0.00106713
0.00106709
0.00106711
0.00137725
0.00137521
0.00137728
0.00137725
0.00137515
0.00137521
0.00137725
0.00137728
0.00137728
0.00137516
0.00137726
0.00137729
0.00137718
0.00137729
0.00137729
0.00137729
0.00137729
0.00137287
0.00137728
0.00137729
0.00137287
0.00137729
0.00137287
0.00137287
0.00137286
0.00137729
0.00137728
0.00137287
0.00137729
0.00137286
0.00137287
0.00137288
0.00137728
0.00137287
0.00137728
0.00137286
0.00137287
0.00137287
0.0013773
0.0013773
0.0013773
0.00137288
0.00137288
0.00137289
0.00137729
0.00137729
0.00137287
0.00137728
0.00137289
0.00137287
0.00137289
0.00137729
0.00137729
0.00137287
0.00137729
0.00137289
0.00137287
0.00137287
0.00137288
0.00137529
0.00137299
0.00137724
0.00137725
0.00137295
0.00137723
0.00137294
0.00137299
0.00137299
0.00137725
0.00137724
0.00137295
0.00137723
0.00137299
0.00137294
0.00137298
0.00137725
0.00137727
0.0013729
0.00137725
0.00137293
0.0013729
0.00137728
0.0013729
0.00137291
0.00137299
0.00137309
0.00137723
0.00137724
0.0013772
0.00137299
0.00137299
0.00137288
0.00137729
0.00137729
0.00137287
0.00137298
0.00137725
0.00137725
0.00137293
0.00106273
0.00106275
0.00106277
0.00106281
0.0010804
0.00108046
0.0010806
0.00108271
0.00108267
0.0010804
0.0010804
0.0010806
0.0010804
0.00107391
0.0010738
0.00107384
0.00107579
0.00109154
0.00109155
0.00108059
0.00108265
0.0010827
0.00108039
0.00107597
0.00107378
0.00107383
0.0010758
0.00107593
0.00107595
0.0010759
0.00107384
0.00107595
0.0010758
0.00107379
0.00107594
0.00107594
0.00107595
0.00109165
0.00109165
0.00108281
0.00108281
0.00108041
0.0010804
0.00109151
0.00108043
0.00108046
0.00108265
0.0010827
0.00109156
0.0010804
0.00108266
0.0010827
0.00108043
0.00109152
0.00109156
0.00108041
0.0010804
0.0010804
0.00108041
0.00108266
0.00108047
0.00108043
0.00109153
0.00109158
0.00108271
0.00108047
0.00108042
0.00109155
0.00109158
0.00109363
0.0010804
0.0010804
0.00109366
0.00108039
0.00108039
0.00109354
0.00109365
0.00109365
0.00109365
0.0010804
0.00109365
0.0010981
0.00107597
0.00107595
0.00107598
0.00107597
0.00107595
0.00107395
0.00107395
0.00107395
0.00107384
0.00106277
0.00107593
0.0010759
0.00106499
0.00107597
0.0010738
0.0010759
0.00107592
0.00107595
0.00107595
0.00106288
0.00106271
0.0010627
0.00108042
0.00109365
0.00108042
0.0010935
0.00108041
0.0010806
0.00108041
0.00109364
0.0010981
0.00109818
0.00109818
0.00109364
0.00108041
0.00109364
0.0010804
0.00109364
0.00108041
0.00109364
0.0010804
0.0010915
0.00108263
0.00108269
0.0010936
0.00108043
0.00109361
0.00108046
0.00108269
0.00108264
0.00109151
0.0010936
0.00108043
0.00109361
0.00108046
0.00108043
0.00109365
0.0010935
0.00108041
0.00108041
0.00109365
0.00109365
0.00108042
0.00109365
0.0010827
0.0010915
0.00109156
0.00109362
0.00108043
0.00109361
0.00108046
0.00109366
0.00108041
0.00109365
0.0010804
0.00108266
0.00108042
0.00109157
0.00109153
0.00109362
0.00109363
0.00108046
0.00109365
0.00109366
0.0010804
0.00107598
0.00107598
0.0010758
0.00107597
0.00107597
0.00107595
0.00107383
0.00107592
0.0010759
0.00107379
0.00107593
0.0010759
0.00107597
0.00107597
0.00107598
0.0010759
0.00107381
0.00107384
0.00107596
0.0010738
0.00107384
0.00107592
0.00106272
0.00107597
0.00107594
0.00107379
0.00107591
0.00106276
0.00106494
0.00107589
0.00106498
0.00106273
0.00106271
0.00107594
0.00106272
0.00107596
0.00107596
0.00107596
0.00107384
0.0010759
0.00107591
0.00106493
0.00106273
0.00107596
0.00107595
0.00106271
0.00106273
0.00107595
0.00106272
0.0010848
0.0010804
0.0010804
0.00108479
0.0010848
0.00108479
0.0010804
0.00108481
0.0010804
0.0010804
0.0010848
0.0010848
0.00108481
0.0010804
0.00108481
0.0010804
0.0010804
0.0010848
0.0010848
0.00108481
0.0010804
0.00108479
0.0010848
0.00108479
0.00108039
0.00108479
0.0010804
0.00107159
0.00107594
0.00107599
0.00107157
0.00107596
0.0010716
0.00107156
0.00107156
0.00107596
0.00107595
0.00107156
0.00107596
0.00107156
0.00107156
0.00107157
0.00107595
0.00107155
0.00107595
0.00107155
0.00107155
0.00107594
0.00107596
0.00107155
0.00107596
0.00107155
0.00107155
0.00107155
0.00107594
0.00107595
0.00107155
0.00107595
0.00107154
0.00107155
0.00107156
0.0010848
0.0010848
0.0010804
0.0010848
0.00108042
0.0010848
0.0010804
0.0010804
0.00108479
0.00108479
0.0010848
0.0010804
0.0010848
0.0010804
0.0010848
0.0010848
0.00108041
0.0010848
0.00108479
0.00108041
0.00108041
0.0010848
0.00108479
0.00108481
0.00108041
0.00108482
0.00108043
0.00108043
0.00108482
0.00108483
0.00108041
0.00108479
0.00108041
0.00108041
0.0010848
0.00108481
0.0010848
0.00108041
0.00108481
0.0010848
0.0010804
0.0010848
0.0010848
0.00108041
0.0010848
0.00108039
0.0010848
0.0010848
0.00108041
0.00108926
0.00108925
0.00109366
0.00109366
0.00108925
0.00108477
0.00108039
0.0010804
0.00108479
0.0010848
0.00108039
0.00108479
0.0010848
0.00108042
0.00108042
0.00108481
0.00108481
0.0010804
0.00108478
0.0010804
0.0010804
0.0010848
0.00108479
0.0010848
0.0010804
0.00108924
0.00108924
0.00109365
0.00109365
0.00108924
0.00108925
0.00109363
0.00108924
0.00109365
0.00109365
0.00108926
0.00108926
0.00109365
0.00108925
0.00108924
0.00109367
0.00109365
0.00108927
0.00108925
0.00109364
0.00108925
0.0010848
0.00108925
0.0011025
0.00109809
0.0010981
0.0011025
0.0011025
0.0011025
0.00109809
0.00107159
0.00107596
0.00107158
0.00107597
0.00107157
0.00107157
0.00107156
0.00107597
0.00107595
0.00107597
0.00107157
0.00107157
0.00107159
0.00107158
0.00107596
0.00107157
0.00107597
0.00107157
0.00107156
0.00107595
0.00107596
0.00107156
0.00107596
0.00107156
0.00107156
0.00107158
0.00107156
0.00107593
0.00107595
0.00107155
0.00107593
0.00107154
0.00107156
0.00107156
0.00107597
0.00107597
0.00107596
0.00107157
0.00107157
0.00107156
0.00107593
0.00107596
0.00107154
0.00107593
0.00107154
0.00107156
0.00106712
0.00106273
0.00106273
0.00106712
0.00106712
0.00106272
0.00106709
0.00106711
0.00106272
0.00106271
0.00106709
0.00106712
0.00106272
0.00106709
0.00106711
0.00106272
0.0010627
0.00106709
0.00106712
0.00106272
0.00108481
0.00108925
0.00108481
0.00108479
0.0010848
0.0010804
0.00108042
0.00108479
0.00108482
0.00108042
0.00108479
0.00108042
0.0010848
0.00108042
0.00108481
0.00108479
0.00108042
0.00108925
0.00109364
0.00109365
0.00108924
0.00109362
0.00108925
0.00108925
0.00108483
0.00108044
0.00108044
0.00108483
0.00108483
0.00108043
0.0011025
0.00109809
0.00109809
0.0011025
0.0011025
0.00110249
0.00109809
0.00108924
0.00109365
0.00109364
0.00108924
0.00109365
0.00108924
0.00108924
0.0010848
0.0010848
0.0010804
0.00108042
0.0010848
0.00108925
0.00109364
0.00108925
0.00109364
0.00108924
0.0010848
0.00108479
0.0010804
0.0010804
0.0010804
0.0010848
0.00108479
0.00108924
0.00109365
0.00109364
0.00108924
0.00109365
0.00108924
0.00108924
0.0010848
0.00108481
0.0010804
0.0010848
0.00108042
0.00108925
0.00109364
0.00108925
0.00109364
0.00108924
0.0010848
0.00108479
0.0010804
0.0010804
0.0010848
0.00108479
0.0010804
0.00108481
0.00108925
0.00108926
0.00109367
0.00109367
0.00108928
0.00108928
0.00109366
0.0010848
0.00108041
0.00108481
0.00108043
0.0010848
0.00108482
0.00108043
0.00108479
0.00108041
0.00108481
0.00108043
0.00108482
0.00108479
0.00108043
0.00108926
0.00109364
0.00109366
0.00108925
0.00108926
0.00108926
0.00109363
0.00108925
0.00109363
0.00109365
0.00108925
0.00108926
0.00108924
0.00109362
0.00108484
0.00108044
0.00108044
0.00108484
0.00108484
0.00108043
0.00108481
0.00108926
0.00108925
0.00109365
0.00109366
0.00108926
0.00108925
0.00108925
0.00109366
0.0010848
0.00108481
0.0010804
0.0010848
0.00108042
0.00108926
0.00109365
0.00108925
0.00108924
0.00109365
0.00108481
0.0010848
0.0010804
0.0010804
0.0010848
0.0010848
0.0010804
0.00108926
0.00108925
0.00109365
0.00108924
0.00109365
0.00108925
0.00109365
0.00109366
0.00108926
0.00108925
0.00108925
0.00109366
0.0010848
0.00108039
0.00108479
0.0010804
0.0010848
0.00108479
0.00108039
0.00107159
0.00107159
0.00107159
0.00107596
0.00107598
0.00107157
0.00107597
0.00107159
0.00107159
0.00107159
0.001076
0.00107599
0.001076
0.00107159
0.0010716
0.00107159
0.00107597
0.00107158
0.00107597
0.00107157
0.00107157
0.00107156
0.00107597
0.00107595
0.00107157
0.00107597
0.00107157
0.0010716
0.00107596
0.00107599
0.00107158
0.00107159
0.00107597
0.00107158
0.0010716
0.00107596
0.00107599
0.00107157
0.00107158
0.00107597
0.00107159
0.0010716
0.001076
0.001076
0.0010716
0.001076
0.0010716
0.00107159
0.00107158
0.00107596
0.00107157
0.00107596
0.00107156
0.00106712
0.0010671
0.00106272
0.00106272
0.00106711
0.00106712
0.00106272
0.00107158
0.00107596
0.00107158
0.00107157
0.00107597
0.00107156
0.00107155
0.00107595
0.00107596
0.00107156
0.00107596
0.00107156
0.00106713
0.00106713
0.00106712
0.0010671
0.00106272
0.00106271
0.00106712
0.0010671
0.00106272
0.00107155
0.00107594
0.00107155
0.00107596
0.00107595
0.00107155
0.00107155
0.00106712
0.00106711
0.00106271
0.00106711
0.00106273
0.00107158
0.00107595
0.00107597
0.00107156
0.00107595
0.00107157
0.00107156
0.00107157
0.00107598
0.00107598
0.00107598
0.00107158
0.00107158
0.00107158
0.00107595
0.00107597
0.00107156
0.00107595
0.00107156
0.00107157
0.00107157
0.00107157
0.00107595
0.00107156
0.00107596
0.00107155
0.00107156
0.00107594
0.00107155
0.00107595
0.00107154
0.00106711
0.00106711
0.00106271
0.0010671
0.00106272
0.00106712
0.00107156
0.00106711
0.00108474
0.00108052
0.00108046
0.00108475
0.00108476
0.00108475
0.00108052
0.0010847
0.0010805
0.0010805
0.00108466
0.00108474
0.00108474
0.0010805
0.00108469
0.00108049
0.00108049
0.00108466
0.00108474
0.00108048
0.00108473
0.00107395
0.00107395
0.00107399
0.00107164
0.00107587
0.00107587
0.00107173
0.00107584
0.00107164
0.00107164
0.0010847
0.00108465
0.0010805
0.0010805
0.00108473
0.00108473
0.00108051
0.00107168
0.00107589
0.00107589
0.00107175
0.00107167
0.00107588
0.00107167
0.00107164
0.00107591
0.00107593
0.0010716
0.00107589
0.00107161
0.00107158
0.00107166
0.0010759
0.0010759
0.00107161
0.00107588
0.00107166
0.00107161
0.00107166
0.00107588
0.00107589
0.00107175
0.00107586
0.00107166
0.00107165
0.00109162
0.00108276
0.0010828
0.0010828
0.00109166
0.00109169
0.00108284
0.0010828
0.00108276
0.00108281
0.00109161
0.00109166
0.00109169
0.00108284
0.00108278
0.00108282
0.00109167
0.00109164
0.00109167
0.0010917
0.00108284
0.00108278
0.00108281
0.00109164
0.00109166
0.00109167
0.0010917
0.00108284
0.00108474
0.00108476
0.00108044
0.00108042
0.00108475
0.00108478
0.00108049
0.00108474
0.00108046
0.00108052
0.00108475
0.00108475
0.00108475
0.00108052
0.00108475
0.00108044
0.00108043
0.00108476
0.00108475
0.00108479
0.00108049
0.00108475
0.00108053
0.00108046
0.00108477
0.00108477
0.00108476
0.00108053
0.00108476
0.00108044
0.00108045
0.00108477
0.00108479
0.00108476
0.0010805
0.00108476
0.00108053
0.00108046
0.00108477
0.00108477
0.00108476
0.00108053
0.00108476
0.00108043
0.00108044
0.00108477
0.00108476
0.0010848
0.0010805
0.00108937
0.00108929
0.00109368
0.00109363
0.00109364
0.00108931
0.00108931
0.00108934
0.00108947
0.0010936
0.00109362
0.00108937
0.00108936
0.00109356
0.00107391
0.00107395
0.0010651
0.00107399
0.00107391
0.00107395
0.00106505
0.0010651
0.00107399
0.00107391
0.00107395
0.00107399
0.00106704
0.00106705
0.00106277
0.00106282
0.00106706
0.00106705
0.00106283
0.00107165
0.00107594
0.00107591
0.0010716
0.0010759
0.0010716
0.0010716
0.00107167
0.0010759
0.00107161
0.0010759
0.00107588
0.00107161
0.00107166
0.00106706
0.00106707
0.00107167
0.0010759
0.0010759
0.00107161
0.00107589
0.00107166
0.00107161
0.00107164
0.00107594
0.0010759
0.00107158
0.00107589
0.00107159
0.00107159
0.001067
0.00106694
0.00106279
0.00106279
0.00106702
0.00106702
0.0010628
0.00108933
0.00109358
0.00108944
0.00109357
0.00108935
0.00109354
0.00108934
0.0010847
0.00108465
0.00108049
0.00108051
0.00108472
0.00108473
0.0010805
0.00110245
0.00109823
0.00109817
0.00110247
0.00110246
0.00110247
0.00109823
0.00110245
0.00109823
0.00109817
0.00110247
0.00110246
0.00110246
0.00109823
0.00108937
0.00109361
0.0010936
0.00108931
0.00109359
0.0010893
0.00108937
0.00108474
0.00108044
0.00108476
0.00108044
0.00108479
0.00108474
0.00108049
0.00108934
0.00109364
0.0010936
0.00108927
0.00108928
0.0010936
0.00108929
0.00108473
0.00108052
0.00108474
0.00108045
0.00108474
0.00108475
0.00108052
0.00108937
0.00109361
0.0010936
0.00108931
0.00109359
0.0010893
0.00108937
0.00108474
0.00108044
0.00108476
0.00108044
0.00108475
0.00108479
0.00108049
0.00108934
0.00109364
0.0010936
0.00108927
0.0010936
0.00108929
0.00108929
0.00108473
0.00108052
0.00108474
0.00108045
0.00108474
0.00108475
0.00108052
0.00108933
0.00108944
0.00109358
0.00109357
0.00108935
0.00108933
0.00109354
0.00108938
0.00109362
0.00109361
0.00108933
0.00108932
0.00108939
0.0010936
0.00108475
0.00108043
0.00108477
0.00108045
0.00108049
0.00108478
0.00108475
0.00108934
0.00109363
0.00109361
0.00108928
0.00108927
0.0010893
0.0010936
0.00108474
0.00108052
0.00108476
0.00108046
0.00108052
0.00108475
0.00108476
0.00108475
0.00108042
0.00108476
0.00108044
0.00108478
0.00108475
0.00108049
0.00108936
0.00108928
0.00109365
0.00109362
0.00108929
0.00108931
0.00109362
0.00108939
0.00109363
0.00109362
0.00108933
0.00108939
0.00108932
0.00109362
0.00108474
0.00108052
0.00108046
0.00108476
0.00108476
0.00108475
0.00108052
0.00107168
0.00107586
0.00107591
0.00107175
0.00107587
0.00107169
0.00107163
0.00107165
0.00107596
0.0010759
0.00107159
0.0010716
0.0010759
0.00107161
0.00107167
0.0010759
0.00107162
0.0010759
0.00107161
0.00107589
0.00107167
0.00107165
0.00107595
0.00107591
0.0010716
0.00107589
0.00107161
0.0010716
0.00107167
0.0010759
0.00107162
0.0010759
0.00107588
0.00107161
0.00107167
0.00107166
0.0010759
0.00107589
0.00107161
0.00107588
0.00107161
0.00107166
0.00107164
0.0010759
0.00107594
0.00107158
0.00107589
0.0010716
0.00107159
0.00107163
0.00107592
0.00107589
0.00107157
0.00107157
0.00107589
0.00107159
0.00106703
0.00106705
0.00106281
0.00106276
0.00106704
0.00106704
0.00106281
0.00107166
0.0010759
0.00107589
0.00107161
0.00107166
0.00107588
0.0010716
0.00106703
0.00106706
0.00106275
0.00106273
0.00106708
0.00106705
0.00106278
0.00107166
0.0010759
0.00107589
0.00107161
0.00107588
0.00107166
0.0010716
0.00107163
0.00107593
0.00107589
0.00107157
0.00107589
0.00107157
0.00107158
0.00106703
0.00106706
0.00106274
0.00106273
0.00106708
0.00106704
0.00106278
0.00135752
0.0013574
0.0013574
0.00135942
0.001322
0.00132187
0.00132187
0.00132389
0.00128652
0.0012864
0.0012864
0.00128842
0.00125101
0.00125088
0.00125088
0.0012529
0.00121558
0.00121547
0.00121546
0.00121747
0.00118016
0.00118004
0.00118005
0.00118207
0.00111817
0.00114457
0.00114455
0.00114655
0.00111126
0.00136628
0.00136422
0.00136628
0.00136628
0.00136627
0.00136421
0.00135952
0.00132867
0.00135739
0.0013574
0.00133075
0.00133074
0.00135943
0.00132868
0.0013595
0.00135952
0.00135949
0.00133074
0.00133074
0.0013574
0.00133075
0.00133075
0.00135951
0.00132867
0.00135739
0.00133074
0.00133075
0.00132869
0.00132388
0.00129322
0.00132186
0.00132186
0.00129527
0.00129527
0.00132388
0.00129322
0.00132186
0.00132186
0.00129527
0.00129527
0.00132187
0.00129527
0.00129526
0.00132388
0.00129322
0.00132187
0.00129527
0.00129526
0.0012932
0.00128843
0.00125769
0.0012864
0.0012864
0.00125976
0.00125976
0.00128842
0.00125769
0.00128641
0.00128641
0.00125976
0.00125976
0.00128639
0.00125976
0.00125977
0.00128843
0.00125769
0.00128639
0.00125976
0.00125977
0.0012577
0.00125289
0.00122227
0.00125088
0.00125088
0.00122431
0.0012243
0.00125289
0.00122226
0.00125088
0.00125088
0.0012243
0.0012243
0.00125089
0.0012243
0.00122429
0.00125289
0.00122225
0.00125089
0.0012243
0.00122429
0.00122225
0.00121749
0.00118685
0.00121547
0.00121547
0.00118891
0.00118891
0.00121749
0.00118685
0.00121547
0.00121547
0.00118892
0.00118893
0.00121546
0.00118892
0.00118894
0.00121748
0.00118687
0.00121546
0.00118893
0.00118894
0.00118688
0.00118204
0.00115136
0.00118003
0.00118004
0.00115342
0.00115342
0.00118204
0.00115137
0.00118004
0.00118005
0.00115341
0.0011534
0.00118006
0.00115342
0.00115339
0.00118206
0.00115134
0.00118006
0.0011534
0.00115339
0.00115133
0.00114658
0.00111603
0.00114457
0.00114457
0.00111808
0.00111591
0.00114658
0.00114457
0.00114455
0.00111807
0.00111807
0.00114454
0.00111807
0.0011159
0.00111584
0.00114655
0.00111604
0.00114454
0.00111807
0.00111807
0.00111605
0.00111582
0.00111137
0.00110921
0.00111134
0.00111138
0.00136399
0.00136403
0.00136629
0.00136399
0.00136398
0.00136422
0.00136398
0.00136398
0.0013664
0.0013664
0.00134623
0.00135952
0.00135952
0.00134622
0.00135952
0.00134621
0.00135952
0.00135952
0.00134623
0.00134621
0.00135752
0.00135752
0.00135752
0.00133088
0.00133088
0.00133088
0.00133088
0.00134631
0.00135949
0.00135744
0.00134851
0.00135948
0.00134625
0.00134856
0.00135951
0.00134621
0.00135949
0.00134631
0.00135744
0.0013485
0.00135949
0.00134856
0.00134625
0.00135952
0.00135952
0.00134645
0.00134622
0.00134621
0.00131071
0.00132398
0.00132399
0.00131072
0.00132399
0.00131073
0.00131071
0.00132399
0.00132399
0.00131072
0.001322
0.001322
0.00132201
0.00129539
0.00129539
0.00129539
0.00129538
0.00131079
0.00132396
0.00132192
0.00131299
0.00132396
0.00131075
0.00131304
0.001324
0.00131073
0.00131079
0.00132192
0.00132396
0.001313
0.00132396
0.00131304
0.00131075
0.00132399
0.00132399
0.00131093
0.00131071
0.00131071
0.00127525
0.00128853
0.00128853
0.00127523
0.00128853
0.00127523
0.00127525
0.00128853
0.00128853
0.00127523
0.00128652
0.00128652
0.00128651
0.00125989
0.00125989
0.00125989
0.00125989
0.00127533
0.0012885
0.00128644
0.00127753
0.00128849
0.00127527
0.00127757
0.00128853
0.00127523
0.00127533
0.00128644
0.0012885
0.00127753
0.00128849
0.00127757
0.00127528
0.00128853
0.00128853
0.00127547
0.00127524
0.00127524
0.00123975
0.00125301
0.00125301
0.00123976
0.00125302
0.00123977
0.00123974
0.00125301
0.00125301
0.00123975
0.00125101
0.00125101
0.00125102
0.00122442
0.00122442
0.00122442
0.00122442
0.00123981
0.00125299
0.00125093
0.00124201
0.00125299
0.00123978
0.00124206
0.00125301
0.00123976
0.00123981
0.00125093
0.00125298
0.001242
0.00125298
0.00124205
0.00123977
0.00125302
0.00125302
0.00123994
0.00123974
0.00123974
0.00120437
0.00121763
0.00121761
0.00120436
0.00121762
0.00120435
0.00120438
0.00121763
0.00121761
0.00120436
0.00121558
0.00121558
0.00121558
0.00118903
0.00118903
0.00118904
0.00118904
0.00120444
0.00121758
0.0012155
0.00120663
0.00121755
0.00120439
0.00120666
0.00121763
0.00120436
0.00120444
0.00121549
0.00121758
0.00120664
0.00121755
0.00120666
0.0012044
0.00121762
0.00121762
0.0012046
0.00120436
0.00120436
0.00116889
0.00118216
0.00118217
0.00116889
0.00118216
0.0011689
0.00116889
0.00118216
0.00118217
0.00116889
0.00118016
0.00118017
0.00118017
0.00115354
0.00115354
0.00115353
0.00115353
0.00116897
0.00118214
0.00118009
0.00117116
0.00118215
0.00116892
0.00117121
0.00118216
0.00116888
0.00116897
0.0011801
0.00118215
0.00117116
0.00118216
0.00117121
0.00116892
0.00118217
0.00118217
0.00116908
0.00116888
0.00116888
0.00113351
0.00114675
0.00114673
0.00113352
0.00114676
0.00113351
0.0011335
0.00114674
0.00114672
0.00113351
0.00111817
0.00114468
0.00114469
0.00114467
0.00114466
0.00111817
0.00111823
0.00113355
0.0011467
0.0011446
0.00113574
0.00114666
0.00113353
0.00113576
0.00114674
0.00113352
0.00113354
0.00114459
0.00114668
0.00113571
0.00114665
0.00113574
0.00113352
0.00114673
0.00114672
0.00113367
0.0011335
0.0011335
0.00111137
0.0010981
0.00110241
0.00111137
0.0010981
0.00136399
0.00136399
0.00136399
0.00136422
0.00136399
0.00136399
0.00136399
0.00136399
0.00136399
0.00136627
0.00136403
0.00136632
0.00136407
0.00136403
0.00136633
0.00136407
0.00136399
0.00136398
0.00136398
0.00136399
0.00136402
0.00136632
0.00136407
0.00136399
0.00136399
0.00136632
0.00136402
0.00136407
0.00136399
0.00136399
0.00136629
0.00136403
0.00136633
0.00136407
0.00136633
0.00136402
0.00136407
0.00136398
0.00136399
0.00136399
0.00136399
0.00136398
0.00136398
0.00136399
0.00136399
0.00135952
0.00134621
0.00135952
0.00134621
0.00135942
0.00135952
0.00134645
0.00134621
0.00134621
0.00132845
0.00134174
0.00132845
0.00134174
0.00134165
0.00132845
0.00132845
0.00134175
0.00134175
0.00134623
0.00135952
0.00135952
0.00134621
0.00134631
0.00135949
0.00135744
0.00134851
0.00135949
0.00134625
0.00134856
0.00134631
0.00135949
0.00135744
0.00134851
0.00135949
0.00134626
0.00134856
0.00134176
0.00132845
0.00134175
0.00132846
0.00134176
0.00132845
0.00134175
0.00132846
0.00134173
0.00133963
0.00132849
0.0013308
0.00134172
0.00133968
0.00132854
0.00134173
0.00133963
0.00132849
0.0013308
0.00134172
0.00133968
0.00132854
0.00135952
0.00135952
0.00134645
0.00134621
0.00134621
0.00135952
0.00134621
0.00132845
0.00134174
0.00134165
0.00132845
0.00132845
0.00134175
0.00134175
0.00132846
0.00134174
0.00135949
0.00135741
0.00135745
0.00134631
0.00134853
0.00134626
0.00134856
0.00135952
0.00134623
0.00134621
0.00135949
0.0013574
0.00135745
0.00134631
0.00134852
0.00134857
0.00134626
0.00134175
0.00132845
0.00134174
0.00132846
0.00134173
0.00133963
0.00132848
0.0013308
0.00134172
0.00133968
0.00132854
0.00134175
0.00132845
0.00134174
0.00132846
0.00134172
0.00133963
0.0013308
0.00132849
0.00133968
0.00134172
0.00132854
0.00134623
0.00135952
0.00135952
0.00134621
0.00134631
0.00135744
0.00135949
0.00134852
0.00135948
0.00134856
0.00134626
0.00134623
0.00135952
0.00135952
0.00134622
0.00134173
0.00133963
0.00132849
0.0013308
0.00134172
0.00133968
0.00132854
0.00134176
0.00132845
0.00134175
0.00132846
0.00134173
0.00133963
0.0013308
0.00132849
0.00133968
0.00134173
0.00132855
0.00134176
0.00132845
0.00134175
0.00132846
0.00135943
0.00135952
0.00134644
0.00134621
0.00134621
0.00135951
0.00134621
0.00132846
0.00134174
0.00134165
0.00132845
0.00132845
0.00134175
0.00134175
0.00132846
0.00134174
0.00134631
0.00135744
0.00135949
0.00134851
0.00135949
0.00134856
0.00134626
0.00135952
0.00134623
0.00135952
0.00134621
0.00134623
0.00135952
0.00135952
0.00134622
0.00134172
0.00133962
0.0013308
0.00132849
0.00133968
0.00134172
0.00132854
0.00134172
0.00133963
0.0013308
0.00132849
0.00133968
0.00134173
0.00132854
0.00134175
0.00132845
0.00134175
0.00132846
0.00134175
0.00132845
0.00134175
0.00132846
0.00135952
0.00134622
0.00135952
0.00134622
0.00134166
0.00132845
0.00132845
0.00134175
0.00134175
0.00132845
0.00134175
0.00132845
0.00134175
0.00132399
0.00131073
0.00132399
0.00131073
0.00132399
0.00132399
0.00131093
0.00131071
0.00131071
0.00129299
0.00130627
0.00129299
0.00130627
0.00130615
0.00129299
0.00129299
0.00130626
0.00130626
0.00131071
0.00132399
0.00132399
0.00131072
0.00131079
0.00132396
0.00132192
0.00131299
0.00132396
0.00131074
0.00131304
0.00131079
0.00132396
0.00132192
0.00131299
0.00132396
0.00131075
0.00131304
0.00130625
0.00129299
0.00130626
0.00129299
0.00130625
0.00129299
0.00130626
0.00129299
0.00130621
0.00130413
0.00129303
0.00129531
0.00130623
0.00130417
0.00129306
0.00130621
0.00130413
0.00129303
0.0012953
0.00130623
0.00130417
0.00129306
0.00132399
0.001324
0.00131094
0.00131071
0.00131071
0.00132399
0.00131073
0.00129299
0.00130627
0.00130615
0.00129298
0.00129298
0.00130626
0.00130626
0.00129299
0.00130627
0.00131079
0.00132396
0.00132192
0.00131299
0.00132395
0.00131074
0.00131304
0.00131071
0.00132399
0.00132399
0.00131072
0.00131079
0.00132192
0.00132396
0.00131299
0.00132395
0.00131304
0.00131075
0.00130625
0.00129299
0.00130626
0.001293
0.00130621
0.00130413
0.00129303
0.00129531
0.00130623
0.00130417
0.00129307
0.00130625
0.00129299
0.00130627
0.001293
0.00130621
0.00130413
0.00129531
0.00129303
0.00130417
0.00130623
0.00129307
0.00131071
0.00132399
0.00132399
0.00131072
0.00131079
0.00132192
0.00132396
0.00131299
0.00132396
0.00131304
0.00131074
0.00131071
0.00132399
0.00132399
0.00131071
0.00130621
0.00130413
0.00129302
0.0012953
0.00130623
0.00130417
0.00129306
0.00130625
0.00129299
0.00130626
0.00129299
0.00130621
0.00130412
0.0012953
0.00129302
0.00130417
0.00130622
0.00129306
0.00130625
0.00129299
0.00130625
0.00129299
0.001324
0.001324
0.00131094
0.00131072
0.00131072
0.001324
0.00131073
0.00129299
0.00130627
0.00130615
0.00129299
0.00129298
0.00130626
0.00130626
0.00129299
0.00130627
0.00131079
0.00132192
0.00132396
0.00131299
0.00132396
0.00131304
0.00131074
0.00131072
0.00132399
0.00132399
0.00131072
0.00131071
0.00132399
0.00132399
0.00131071
0.00130621
0.00130413
0.00129531
0.00129302
0.00130417
0.00130623
0.00129306
0.00130621
0.00130412
0.0012953
0.00129302
0.00130417
0.00130622
0.00129306
0.00130625
0.00129299
0.00130626
0.00129299
0.00130625
0.00129299
0.00130625
0.00129299
0.00132399
0.00131071
0.00132399
0.00131072
0.00130614
0.00129298
0.00129298
0.00130625
0.00130625
0.00129299
0.00130626
0.00129299
0.00130626
0.00128853
0.00127523
0.00128853
0.00127523
0.00128853
0.00128853
0.00127547
0.00127523
0.00127523
0.00125747
0.00127076
0.00125747
0.00127076
0.00127067
0.00125747
0.00125747
0.00127077
0.00127077
0.00127525
0.00128853
0.00128853
0.00127523
0.00127533
0.0012885
0.00128644
0.00127753
0.00128849
0.00127528
0.00127757
0.00127533
0.0012885
0.00128644
0.00127753
0.00128849
0.00127528
0.00127757
0.00127078
0.00125747
0.00127077
0.00125748
0.00127078
0.00125747
0.00127077
0.00125748
0.00127075
0.00126865
0.00125751
0.00125981
0.00127074
0.00126869
0.00125756
0.00127075
0.00126865
0.00125751
0.00125981
0.00127074
0.00126869
0.00125756
0.00128853
0.00128853
0.00127547
0.00127523
0.00127523
0.00128852
0.00127523
0.00125748
0.00127076
0.00127067
0.00125747
0.00125747
0.00127077
0.00127077
0.00125748
0.00127077
0.00127533
0.0012885
0.00128644
0.00127753
0.00128849
0.00127528
0.00127757
0.00127525
0.00128853
0.00128853
0.00127524
0.00127533
0.00128644
0.0012885
0.00127753
0.00128849
0.00127757
0.00127528
0.00127078
0.00125747
0.00127077
0.00125748
0.00127075
0.00126865
0.00125751
0.00125981
0.00127074
0.00126869
0.00125756
0.00127078
0.00125747
0.00127077
0.00125748
0.00127075
0.00126865
0.00125981
0.00125751
0.0012687
0.00127074
0.00125756
0.00127525
0.00128853
0.00128853
0.00127523
0.00127533
0.00128643
0.0012885
0.00127753
0.00128848
0.00127757
0.00127528
0.00127525
0.00128853
0.00128853
0.00127524
0.00127075
0.00126865
0.00125751
0.00125981
0.00127074
0.00126869
0.00125757
0.00127078
0.00125748
0.00127077
0.00125749
0.00127075
0.00126865
0.00125982
0.00125752
0.00126869
0.00127075
0.00125757
0.00127078
0.00125748
0.00127078
0.00125749
0.00128853
0.00128853
0.00127547
0.00127523
0.00127523
0.00128852
0.00127523
0.00125747
0.00127076
0.00127067
0.00125747
0.00125747
0.00127077
0.00127077
0.00125748
0.00127077
0.00127533
0.00128644
0.0012885
0.00127753
0.00128849
0.00127757
0.00127528
0.00127525
0.00128853
0.00128853
0.00127524
0.00127525
0.00128853
0.00128853
0.00127524
0.00127075
0.00126865
0.00125981
0.00125751
0.00126869
0.00127074
0.00125757
0.00127075
0.00126865
0.00125982
0.00125752
0.00126869
0.00127075
0.00125757
0.00127078
0.00125748
0.00127077
0.00125749
0.00127079
0.00125748
0.00127078
0.00125749
0.00128853
0.00127524
0.00128853
0.00127524
0.00127067
0.00125748
0.00125747
0.00127078
0.00127078
0.00125748
0.00127077
0.00125748
0.00127078
0.00125301
0.00123977
0.00125301
0.00123977
0.00125302
0.00125302
0.00123994
0.00123975
0.00123975
0.00122208
0.00123532
0.00122208
0.00123532
0.00123516
0.00122207
0.00122207
0.00123531
0.00123531
0.00123975
0.00125301
0.00125301
0.00123976
0.00123981
0.00125298
0.00125093
0.001242
0.00125298
0.00123978
0.00124205
0.00123981
0.00125298
0.00125093
0.00124201
0.00125298
0.00123978
0.00124205
0.00123529
0.00122208
0.00123531
0.00122206
0.00123529
0.00122207
0.00123531
0.00122206
0.00123524
0.00123315
0.0012221
0.00122434
0.00123527
0.00123319
0.00122212
0.00123524
0.00123315
0.00122209
0.00122434