/*--------------------------------*- C++ -*----------------------------------*\
| =========                 |                                                 |
| \\      /  F ield         | OpenFOAM: The Open Source CFD Toolbox           |
|  \\    /   O peration     | Version:  v2006                                 |
|   \\  /    A nd           | Website:  www.openfoam.com                      |
|    \\/     M anipulation  |                                                 |
\*---------------------------------------------------------------------------*/
FoamFile
{
    version     2.0;
    format      ascii;
    class       surfaceScalarField;
    location    "875";
    object      phi;
}
// * * * * * * * * * * * * * * * * * * * * * * * * * * * * * * * * * * * * * //

dimensions      [0 3 -1 0 0 0 0];
oriented        oriented;


internalField   nonuniform List<scalar> 
40846
(
-3.20352e-10
-5.84776e-08
-0.000228708
2.54948e-08
1.38327e-09
7.04865e-09
-3.85394e-08
1.07767e-09
-0.000192967
-5.65521e-09
-1.6276e-08
-9.76538e-05
4.62355e-09
-3.62484e-08
-0.000192952
1.22732e-06
-8.42693e-08
2.32753e-07
-1.1932e-06
2.36053e-07
-2.11562e-07
-1.81066e-07
8.83646e-07
-0.00113347
-3.17603e-08
-8.27407e-07
1.24281e-08
3.66892e-08
-1.07159e-07
-0.000244837
-7.22e-09
-1.62597e-08
-9.76692e-05
-1.45759e-08
-9.76625e-05
-1.27068e-06
-1.18177e-06
-0.00026815
2.15041e-07
2.33765e-07
-2.11408e-08
1.11506e-08
-0.00027739
-4.4529e-08
-1.09081e-08
-0.000277344
7.25311e-09
-2.5541e-08
-5.85994e-08
-0.000228668
2.55441e-08
9.67967e-10
-3.86123e-08
7.56775e-10
-0.000192909
-1.50245e-09
-0.000249703
1.85202e-09
-1.91478e-07
-1.58001e-08
1.43896e-07
-1.21955e-06
2.52943e-07
-1.95051e-07
-8.24869e-07
2.38035e-07
-1.64721e-07
8.91445e-07
-0.00113321
-1.17954e-08
-0.000244834
-1.09177e-07
6.07485e-09
-4.01434e-08
-9.22224e-07
8.05789e-07
-7.42422e-07
9.856e-07
-0.00115473
-0.000249678
1.44122e-09
-1.91629e-07
-3.04702e-08
1.26181e-06
-8.82615e-08
-8.34795e-07
2.35478e-07
8.91846e-07
-1.83327e-07
-1.22824e-06
2.44514e-07
-2.1998e-07
-0.00113298
1.42927e-08
-1.16674e-08
-0.000244739
-1.06863e-07
-7.01375e-08
-9.24524e-07
8.05924e-07
-7.42215e-07
9.8559e-07
-0.00115464
-0.000268135
2.35652e-07
2.40871e-07
1.19855e-08
-0.000277282
-4.17301e-08
1.50196e-08
8.08352e-09
-4.03654e-08
-0.000277406
-4.30852e-09
-9.76667e-05
-2.83491e-08
-1.27935e-06
2.1483e-07
-2.49572e-07
2.08525e-07
-2.37477e-07
-0.00113329
-0.000244809
-9.67864e-08
-0.000192957
2.88367e-09
-1.20445e-09
3.40051e-09
0.00014287
9.06346e-10
-0.000142873
-4.1797e-09
7.27822e-10
-2.38125e-10
1.6611e-08
-0.00022872
-0.000170476
-7.87936e-11
-2.63852e-12
-0.000222729
2.20865e-08
2.61814e-09
-6.00961e-08
-3.57018e-11
-0.000170481
4.00632e-10
1.80762e-08
-0.000222744
8.27183e-10
7.57585e-09
7.89905e-05
-7.89971e-05
-0.0002624
1.70629e-08
-5.2657e-08
-1.44837e-09
-3.01875e-09
1.2516e-08
-0.000192975
1.79193e-08
-0.000262411
2.71686e-09
4.8912e-09
-9.76614e-05
-5.33602e-09
1.71575e-08
-0.000192963
2.58052e-09
-9.76748e-05
4.28303e-09
-9.76721e-05
-8.86704e-10
1.57572e-09
0.00021309
-9.48202e-08
-1.10383e-08
-0.000212985
-8.02912e-05
-6.79341e-09
-1.12257e-08
-8.02827e-05
-6.99218e-09
-7.44196e-09
-5.8281e-09
-8.02862e-05
3.18815e-09
-8.02843e-05
-3.47e-08
-1.6733e-08
6.51523e-09
0.000221368
-2.8366e-08
-2.69256e-08
-0.000221414
-0.000182469
-2.82613e-08
2.69813e-09
-6.40389e-09
2.86989e-09
-0.000277387
3.69132e-08
-0.000250241
-8.61862e-08
-4.37589e-08
-0.000182466
-4.84821e-08
5.09729e-09
5.79773e-09
-0.000250287
-2.79653e-08
0.000221325
5.53879e-08
4.81172e-08
-0.000221412
-5.60615e-09
5.39242e-08
1.27158e-08
-0.000277401
-0.000182429
-1.77521e-08
1.11364e-08
-0.000250153
-4.0382e-08
-2.02871e-08
-0.000182459
-3.62128e-08
2.13202e-07
3.87353e-08
-0.000250296
-1.03693e-09
3.28178e-09
0.000142798
9.37944e-10
-0.000142801
-4.11638e-09
2.48341e-10
1.64808e-08
-0.000228681
-0.000170442
-1.59699e-11
-0.000222633
2.21539e-08
2.56026e-09
-5.78582e-08
-0.000170447
3.21945e-10
1.78462e-08
-0.000222647
9.18767e-10
7.53971e-09
7.89453e-05
-7.89519e-05
-0.000262277
1.70098e-08
-5.05143e-08
-1.69605e-09
1.45415e-08
-0.000192919
1.75807e-08
-0.000262289
-6.32735e-09
-8.1589e-09
-8.02833e-05
-7.45159e-09
-7.22021e-09
-8.0294e-05
-1.71832e-08
-1.37575e-08
-0.000213108
-5.4309e-09
1.39066e-08
0.000221289
1.99745e-08
-5.16117e-09
-0.000221312
-0.000182414
-2.56854e-08
-5.2365e-09
9.97323e-09
4.76532e-09
-0.000277287
-0.000250079
2.67392e-08
-3.32149e-08
-8.2643e-08
-7.07451e-10
-0.000182424
2.12909e-08
4.33481e-08
-0.00025012
-4.47191e-08
-2.43311e-08
-0.00018247
2.30172e-08
-2.9391e-08
-8.08603e-08
-0.000250251
-4.54226e-08
-0.000221362
-1.08517e-07
-0.0011869
1.8944e-08
-0.00121932
-4.36008e-08
-0.00118739
-4.38243e-08
-0.0012192
-0.000260039
-1.13672e-08
0.000242463
3.04793e-08
1.51343e-07
-0.000242624
-2.4622e-07
-1.95138e-07
-0.000270208
1.1595e-07
-0.000260602
8.48244e-08
-0.000260947
-0.000261007
-0.000261027
-1.47251e-07
-2.09172e-09
0.000265548
3.4411e-09
-0.000266324
1.12501e-09
1.30357e-07
-6.07128e-10
-0.000249817
-0.000249081
-2.07679e-07
4.73934e-09
-0.00026578
1.24906e-09
-1.05912e-09
1.40996e-09
-0.00024921
-1.55521e-09
-0.000266393
4.80903e-09
-1.32183e-07
4.87676e-09
0.000263766
-0.00026446
-0.000250185
-1.88851e-07
-1.29802e-09
5.51309e-08
-0.000244872
-0.000260028
-1.8126e-08
-0.000250299
-0.000260127
-1.49567e-07
-9.8366e-10
0.000265485
6.36542e-10
-0.00026626
5.53311e-10
1.30192e-07
-0.000249793
-0.000248998
-2.07797e-07
4.12995e-09
-0.000265769
2.91283e-09
9.19285e-10
-0.00024913
-0.000266384
6.8175e-09
-1.36461e-07
0.000263687
-5.51198e-09
-0.000264379
-0.000250088
-1.86816e-07
3.58521e-09
6.43524e-08
-0.000244788
-1.51366e-08
-0.000259929
-0.000250203
-0.000260033
7.97788e-08
8.00405e-08
0.000242452
-1.95008e-08
-0.000242572
-2.02966e-07
-1.97626e-07
-0.000270156
-0.00026094
1.05614e-07
-0.000260592
1.04765e-07
-4.08578e-08
-0.000260886
-0.000261235
8.65872e-08
-0.00024487
-0.000260009
-0.000260128
-2.94147e-09
-1.86107e-09
4.09042e-09
-0.000213113
-8.02869e-05
1.72063e-09
-8.02975e-05
1.23134e-08
-2.79604e-09
-0.000221387
7.23809e-09
-4.95991e-09
-1.82342e-09
6.41294e-09
-0.000277413
1.93192e-08
-0.000250292
-0.000182476
3.98499e-09
-9.76725e-05
1.21676e-08
-0.000192965
3.15443e-10
6.44919e-08
-0.000244885
2.56936e-09
-0.000260139
3.18636e-09
-2.50017e-08
1.64963e-09
1.62858e-09
1.55495e-07
0.000249613
1.67975e-08
9.62935e-07
-7.71528e-07
-9.49944e-07
7.81999e-07
0.00115767
1.02242e-07
3.89813e-09
5.1039e-10
5.38859e-10
-6.49289e-09
0.000228277
-2.51605e-08
1.55722e-07
1.21948e-09
0.000249589
1.46331e-11
-1.24577e-06
3.78261e-08
8.70864e-07
-2.05055e-07
-8.53945e-07
2.19057e-07
1.26159e-06
-2.28428e-07
2.41423e-07
0.00113517
9.62514e-07
-7.74528e-07
-9.53102e-07
7.81812e-07
0.00115769
1.08312e-07
-1.96531e-08
-1.04906e-08
2.30594e-09
8.14925e-08
0.000244333
-6.60645e-09
1.23166e-09
0.000228239
-4.83097e-09
-1.96877e-09
0.000192306
-1.20314e-06
3.22069e-08
-2.07701e-07
2.1929e-07
1.2195e-06
-2.25421e-07
2.39335e-07
0.00113618
-1.95511e-08
-9.99066e-09
8.37179e-08
0.000244299
-4.59561e-09
0.000192299
0.000268529
-2.09544e-07
-2.1235e-07
-3.67437e-09
-7.45451e-09
1.73379e-08
0.000276653
-3.75155e-09
-7.03593e-09
1.74078e-08
0.000276574
9.73032e-05
9.7298e-05
-0.00014239
-2.08413e-08
4.38193e-10
2.53275e-10
0.000142411
-9.49656e-09
0.000222239
3.0547e-08
3.44116e-10
7.92753e-10
0.000169929
3.01369e-10
9.02945e-10
1.96924e-08
4.54735e-10
-4.76171e-08
0.000228304
9.26084e-11
-5.24936e-08
2.21503e-09
0.00022227
2.4633e-10
0.000169949
-0.000142324
3.65494e-11
-1.85468e-08
2.74105e-10
0.000142342
1.30288e-09
0.000169898
-7.81603e-09
0.000222147
9.98095e-10
2.8685e-08
1.95852e-08
2.0233e-09
-4.74374e-08
0.000228266
5.8112e-10
0.000169917
2.83349e-09
-4.95618e-08
0.000222177
-7.86584e-05
-1.60276e-08
7.86747e-05
-9.63484e-09
0.000261553
2.56413e-08
1.2846e-09
3.31551e-09
-3.11617e-08
0.000192332
-4.49192e-08
0.000261586
3.50149e-09
-3.12667e-08
0.000192326
-0.000212563
7.79912e-09
7.51931e-09
-1.61632e-08
-1.66049e-08
0.000212581
2.00657e-09
8.00389e-05
4.08571e-09
2.47626e-09
8.00238e-05
3.82456e-09
6.71004e-09
6.2653e-09
-5.78936e-09
8.00524e-05
-6.12158e-09
8.00375e-05
-0.00022095
-2.204e-08
2.46426e-08
-4.79915e-08
0.000220979
8.08109e-09
0.00018194
-1.41888e-08
0.000249945
2.55935e-08
5.27669e-08
-3.75359e-08
5.02138e-09
1.41961e-08
-1.38314e-08
0.000276685
2.46623e-08
-3.00185e-08
-7.82338e-08
0.000249993
0.000181964
-0.000220886
-2.25141e-08
2.44822e-08
-4.54773e-08
0.000220913
8.28566e-09
0.000181885
-1.38088e-08
0.000249831
2.77661e-08
5.52055e-08
-3.73008e-08
5.47839e-09
1.40676e-08
-1.19657e-08
0.000276603
2.49514e-08
-3.05506e-08
-7.55942e-08
0.000249877
0.000181909
9.73207e-05
9.73156e-05
0.0011903
4.14673e-08
-0.000265757
1.94241e-07
-3.97488e-09
1.08249e-08
0.000266518
1.7123e-07
0.00024891
4.3079e-10
1.9799e-10
0.000266071
5.89159e-09
2.36909e-09
-1.77121e-07
7.96702e-11
0.00024974
-1.09607e-08
3.82648e-09
0.000249051
-2.27858e-09
0.000266674
-0.000265699
-1.0863e-09
1.96151e-07
3.68584e-09
0.000266463
6.97611e-10
0.000266057
1.71821e-07
0.000248831
6.78627e-10
-1.76903e-07
2.36572e-09
0.000249717
-2.80006e-09
0.000266659
4.38898e-09
0.000248976
-0.0002638
1.78267e-07
9.85755e-09
0.000264487
1.52561e-07
0.000249807
6.14715e-09
0.000259892
-8.36902e-09
-9.79703e-08
0.000244395
0.000249937
0.000259993
0.000259881
-1.0043e-07
0.000244368
0.000259985
-0.000242268
-1.07862e-07
-1.08344e-07
0.000242391
2.35037e-07
2.37477e-07
0.000270538
-8.59259e-08
0.000260648
-8.57099e-08
0.000261061
0.000260939
0.000261354
-7.86996e-05
-1.84645e-08
7.87183e-05
-1.13331e-08
0.000261674
2.73094e-08
1.49822e-09
-4.78511e-08
0.000261707
-1.46117e-09
-0.000263885
1.76683e-07
0.000264579
-8.71763e-07
1.15172e-08
1.51641e-07
0.0002499
-2.60324e-09
8.53263e-07
-7.03466e-09
0.000250025
8.03707e-09
1.96693e-08
-5.29657e-08
-4.63777e-10
-0.000262408
-8.92057e-11
-7.89892e-05
-1.844e-07
-2.23889e-09
-0.000250195
-1.34131e-08
-0.000263777
-5.45056e-08
0.000228657
-1.5442e-10
2.41438e-08
1.10527e-09
-0.000228627
0.000249781
-5.64561e-10
-1.87568e-07
1.51063e-09
-0.000249649
0.000270152
-1.26458e-06
-1.23042e-06
2.38117e-07
2.4067e-07
-0.000268136
0.00115444
-4.04145e-08
2.88305e-08
-0.00115455
2.8009e-08
-9.26088e-07
7.94123e-07
-7.46569e-07
9.74318e-07
1.22085e-06
0.00113359
-5.14289e-08
-0.00113361
2.43598e-07
-1.19163e-06
-2.14323e-07
-6.91712e-08
-8.39005e-07
2.29797e-07
-1.90279e-07
8.80532e-07
3.61782e-10
0.000228696
-5.37771e-08
9.66054e-10
2.14946e-08
-0.000228666
0.000228659
-5.35774e-08
1.95847e-09
1.92554e-08
-0.000228626
0.000270115
-1.26371e-06
2.36708e-07
2.4298e-07
-0.00026811
-3.23498e-09
9.76513e-05
-1.26176e-08
-9.76354e-05
1.23582e-07
2.89005e-07
2.13108e-08
1.19765e-07
-0.00118745
-0.00113352
-1.18943e-06
-4.17964e-08
-2.06556e-07
1.23172e-06
2.40906e-07
-8.9163e-08
8.82879e-07
-1.82367e-07
-8.29039e-07
2.32366e-07
-3.7233e-08
2.66404e-08
1.60703e-08
9.73518e-07
-7.44642e-07
-9.23912e-07
7.93152e-07
1.18208e-06
1.22065e-06
-1.95295e-07
-2.01854e-07
0.00026811
-3.67148e-08
-2.07391e-08
1.55848e-07
0.00115477
9.80288e-07
-7.49187e-07
-9.31653e-07
7.97484e-07
-0.00115496
-4.57165e-08
0.00115475
1.90249e-08
9.77874e-07
-7.48909e-07
-9.31136e-07
7.97816e-07
-0.00115485
-1.23469e-06
0.000270165
-1.26924e-06
-0.000268145
2.41827e-07
2.42086e-07
-5.68141e-08
-0.00113357
-1.18766e-06
2.45249e-07
-2.03234e-07
-8.4601e-08
-8.31519e-07
2.33096e-07
8.8071e-07
-1.84721e-07
0.00115448
-2.65011e-08
3.51068e-08
7.67836e-09
-0.00115459
-9.28261e-07
7.94923e-07
-7.45795e-07
9.74679e-07
0.000192899
-3.22076e-08
-0.000192873
2.59389e-09
1.12515e-08
-0.000277387
-4.591e-09
1.3038e-08
-1.14227e-08
0.000277378
-0.00113366
-1.1588e-06
1.21594e-07
-1.91703e-07
1.30863e-06
2.7556e-07
9.13015e-07
-1.57469e-07
-8.20184e-07
2.86379e-07
-7.12197e-08
-0.00115466
-6.27304e-08
4.32528e-08
9.84982e-07
-7.44012e-07
-9.26015e-07
8.02144e-07
1.22871e-06
-1.94494e-07
-1.98528e-07
0.00026814
-0.00024486
-1.58231e-08
3.63708e-09
7.14509e-08
0.000244812
1.92888e-08
-3.1759e-10
-8.46025e-09
7.07457e-10
0.000228646
1.29936e-09
1.38273e-07
1.98692e-09
0.000249659
-5.39281e-08
1.10618e-08
1.6578e-08
0.0011544
9.76578e-07
-7.43797e-07
7.96724e-07
-9.23424e-07
-4.38848e-09
1.63538e-08
-8.74513e-10
0.000192888
1.18981e-06
1.22662e-06
-1.95005e-07
-2.01849e-07
0.000268132
-4.64138e-08
0.00113354
-2.05645e-07
1.21861e-06
2.40353e-07
-6.8088e-08
8.82326e-07
-1.88425e-07
-8.3437e-07
2.3164e-07
7.48946e-10
2.04912e-08
1.36436e-10
-7.33116e-09
0.000228682
2.08474e-08
1.19269e-09
-5.50711e-09
0.000228643
4.45121e-09
9.76424e-05
-1.62095e-07
-3.71225e-08
0.00121992
-1.57729e-07
-0.00121959
0.00121922
-1.12547e-08
-2.71267e-08
-0.00121939
0.00121895
4.69879e-08
2.25127e-08
-0.0012192
1.45765e-07
0.00121959
1.61535e-07
-1.20984e-08
-0.00121979
1.01794e-08
-3.67569e-08
0.000192946
3.24139e-09
-0.000192916
3.56794e-09
-5.46505e-08
0.000228698
1.15944e-09
2.22578e-08
-0.000228667
0.00113311
1.3003e-07
-1.16273e-06
6.72024e-08
-1.98885e-07
1.3038e-06
2.64578e-07
-0.0011336
8.8684e-07
-1.89674e-07
-8.38941e-07
2.28181e-07
1.20827e-08
-0.000244798
-9.3195e-09
-1.01437e-07
0.000249813
3.60617e-09
-1.8764e-07
-0.000249684
-1.61851e-08
1.27674e-06
0.00113303
-8.95445e-08
-8.39351e-07
2.30598e-07
-1.87239e-07
8.83909e-07
-1.22323e-06
2.50067e-07
-2.09528e-07
-0.00115487
9.49745e-10
0.0011548
-5.50694e-08
-9.29982e-07
7.9884e-07
-7.47795e-07
9.79203e-07
3.52851e-08
-5.88767e-08
-0.00115481
9.79833e-07
-7.4962e-07
-9.29298e-07
7.96936e-07
-3.59259e-08
3.24641e-09
0.000192892
3.17e-09
-0.000192862
-3.08977e-08
-0.00113305
0.00113298
2.49606e-07
-1.22713e-06
-2.15875e-07
-6.75584e-08
-8.36499e-07
2.32858e-07
-1.87406e-07
8.86274e-07
-0.00115475
0.00115466
-9.27233e-07
7.98707e-07
-7.47686e-07
9.78798e-07
-4.30371e-08
1.37189e-08
0.000244759
-8.44883e-09
-1.03101e-07
-0.000244697
-3.32779e-08
-6.38855e-08
-0.00113311
-1.22842e-06
8.84385e-07
-1.89254e-07
-8.38336e-07
2.30985e-07
1.26399e-06
-2.16485e-07
2.49828e-07
-3.47222e-08
-0.00115481
9.76946e-07
-7.49424e-07
-9.29083e-07
7.97049e-07
-1.60115e-08
9.76466e-05
-9.76274e-05
0.000277264
-3.79325e-08
7.18603e-09
-0.000277235
1.39207e-08
-1.45245e-08
0.000277389
-3.72507e-08
4.60546e-09
-0.000277356
-2.87038e-09
9.766e-05
-9.76432e-05
-0.00113352
0.00113345
2.46998e-07
-1.1897e-06
-2.07499e-07
-6.91988e-08
-8.38306e-07
2.31242e-07
-1.89039e-07
8.84512e-07
-7.1071e-10
0.000249802
-1.83766e-07
2.67343e-09
-0.000249674
3.34959e-08
0.000244859
-1.02159e-07
-9.70067e-09
-0.000244795
-3.01813e-08
-6.87824e-08
-0.00113359
-1.19154e-06
1.23233e-06
-2.05677e-07
2.44523e-07
8.83054e-07
-1.90367e-07
-8.3691e-07
2.2969e-07
3.23049e-08
-4.22036e-08
-0.00115467
9.73241e-07
-7.4725e-07
-9.24356e-07
7.93342e-07
-0.00115442
0.00115434
-3.84699e-08
-9.29183e-07
7.96525e-07
-7.49568e-07
9.73459e-07
0.000249772
-1.83506e-07
4.20144e-09
-0.000249647
3.20951e-08
1.21806e-08
0.000244766
-1.02778e-07
-9.65713e-09
-0.000244698
-2.15969e-07
-1.25898e-06
-1.6614e-07
8.79629e-07
-1.9108e-07
-8.42512e-07
2.26146e-07
1.18903e-06
-2.24946e-07
2.34053e-07
-0.00113324
-1.04035e-08
-0.00115468
9.75451e-07
-7.50048e-07
-9.32631e-07
7.95984e-07
-1.58789e-08
-6.25492e-09
0.000244682
7.36714e-08
-1.64225e-09
-0.000244732
0.000192945
3.50565e-09
-0.000192918
3.12672e-09
0.000192894
2.72836e-09
-0.000192868
-3.38485e-09
0.000192852
-2.66727e-09
-0.000192862
0.00027735
-1.39361e-08
-3.76837e-08
6.07388e-09
-0.000277317
1.26324e-08
0.000277269
-3.71032e-08
3.66831e-09
-0.000277236
1.17654e-06
0.000268127
-2.0847e-07
-1.97162e-07
-0.000270156
-4.83669e-09
5.40576e-09
0.000277296
1.35302e-08
-6.9331e-09
-0.000277303
-5.35537e-09
0.000277212
1.6609e-08
-5.9134e-09
-0.000277224
3.98049e-09
9.7629e-05
-9.76378e-05
9.76466e-05
-9.76308e-05
9.76243e-05
-9.7633e-05
-2.4113e-10
-5.43979e-08
0.000228663
2.23048e-08
2.18268e-09
-0.000228633
-0.000192952
-4.0975e-09
1.33989e-08
-2.14078e-10
0.000192943
-0.000228697
6.0724e-11
1.35537e-08
0.000228689
-5.67704e-09
4.58057e-10
-9.76485e-05
3.93533e-09
4.47389e-09
9.76401e-05
-4.45761e-09
2.49719e-10
0.000192934
1.91378e-08
-1.07194e-10
-6.23923e-09
0.000228684
-1.99454e-07
-0.00121915
6.6234e-08
1.8578e-08
2.39205e-08
1.31347e-08
0.00121885
1.2181e-08
3.93678e-08
1.6134e-08
4.16596e-08
0.00115445
-0.00115454
-6.22941e-08
9.7787e-07
-7.40377e-07
-9.195e-07
7.97453e-07
5.45636e-08
1.17623e-09
-0.000249696
-1.38544e-09
-1.87724e-07
-0.000244867
-6.72873e-09
-1.31617e-08
6.63134e-08
1.27353e-09
0.000244819
-0.000249809
-1.7072e-08
1.20009e-09
1.36124e-07
0.000249686
3.03925e-09
-3.39523e-09
-6.44317e-08
-9.20129e-07
7.99217e-07
-7.40835e-07
9.79255e-07
4.22949e-09
5.77556e-09
9.76366e-05
-2.11702e-07
1.22925e-06
2.44753e-07
-7.10048e-08
8.83725e-07
-1.86997e-07
-8.36021e-07
2.33112e-07
1.38562e-09
1.37275e-07
2.71503e-09
0.000249681
-9.4406e-09
-1.47508e-08
6.85008e-08
1.1543e-09
0.000244813
9.39465e-09
1.43615e-08
-7.64592e-09
0.000277339
6.83592e-09
-4.26665e-09
1.46727e-08
-7.90382e-09
0.00027726
-1.25988e-06
-1.21784e-06
-0.000268105
2.3338e-07
2.43646e-07
-1.52378e-08
1.33547e-08
-0.000277363
6.43769e-09
-4.00139e-08
-1.16976e-08
1.38625e-08
-0.000277283
5.2491e-09
-4.02396e-08
-1.4572e-08
-3.24181e-09
9.766e-05
-9.76422e-05
6.31381e-09
4.52174e-09
9.76305e-05
-9.76413e-05
-1.69842e-08
9.76625e-05
-9.76423e-05
1.25878e-06
-2.09014e-07
0.000268165
-1.87643e-07
-0.00027019
-0.00027736
-3.68483e-08
5.3906e-09
-1.24246e-06
0.000270184
-0.000268161
2.44938e-07
2.51371e-07
-1.38333e-08
0.000277302
-4.42522e-08
-0.000277266
7.21015e-09
5.68671e-09
1.21495e-08
-8.25278e-09
0.000277238
-0.000277241
-5.44337e-08
0.000228626
2.2321e-08
1.7616e-09
-0.000228596
-1.29678e-09
0.000249797
-1.8614e-07
2.30196e-09
-0.000249667
0.000249769
-1.83631e-07
2.67585e-09
-0.000249644
-7.26482e-11
2.03763e-08
-7.04317e-09
1.67285e-09
0.000228649
-3.44678e-08
-0.000192924
3.46754e-09
1.82387e-08
-9.71278e-10
0.000192903
-0.000192916
-2.53867e-10
-5.50484e-08
-0.000228665
2.2654e-08
1.02897e-09
2.03334e-08
-7.01494e-09
1.44424e-09
0.000228611
-3.71441e-08
3.32858e-09
0.000192899
-0.000192869
3.53679e-09
1.81341e-08
-4.50858e-09
-9.19604e-10
0.000192851
-0.000192864
-5.52018e-08
0.00022866
-0.000228628
2.27286e-08
6.12581e-10
0.00113375
-2.19406e-07
1.20983e-06
-2.19594e-07
2.3844e-07
8.87903e-07
-1.86107e-07
2.3446e-07
-8.38033e-07
-0.00113344
-2.40127e-08
-1.08547e-07
-1.19339e-06
2.53674e-07
-2.0881e-07
-8.32826e-07
2.44837e-07
-1.80964e-07
8.92826e-07
3.67149e-09
0.00115469
-6.70134e-08
-9.26283e-07
8.0524e-07
-7.46857e-07
9.85387e-07
6.98747e-10
1.40783e-07
4.05077e-09
0.000249672
0.000244831
-1.11644e-07
-0.000244756
-1.10112e-08
7.06975e-08
-3.22854e-10
0.00024474
-0.000244786
-1.38753e-09
0.000249812
-1.88342e-07
-0.000249679
2.29322e-09
3.64937e-08
-6.2168e-08
-9.31357e-07
8.05556e-07
-7.49352e-07
9.85737e-07
-0.00113307
0.00113302
-1.22506e-06
2.51006e-07
-2.14129e-07
-9.44898e-08
-8.37497e-07
2.34863e-07
-1.85675e-07
8.90834e-07
-1.23134e-06
-8.47043e-08
8.83001e-07
-1.96461e-07
-8.42758e-07
2.26993e-07
1.26667e-06
-2.19509e-07
2.52289e-07
-0.00113311
1.40698e-07
2.3647e-09
0.000249647
1.14557e-08
0.000244769
-1.04943e-07
-0.000244702
-1.08691e-08
-8.05714e-09
7.77523e-08
-4.38425e-10
0.000244686
-0.000244737
0.000249784
-1.88543e-07
-0.000249654
2.59992e-09
-1.70586e-08
-9.76281e-05
5.95706e-09
9.76182e-05
-9.76287e-05
1.18315e-06
0.000268148
-1.94194e-07
-1.99003e-07
-0.00027017
0.000277262
-4.24198e-08
-0.000277233
7.44658e-09
1.50188e-08
-1.21242e-08
0.000277389
-3.9615e-08
-0.000277357
5.28037e-09
1.87422e-08
-7.42656e-09
0.000277204
-0.000277217
-4.40341e-09
3.75587e-09
7.9938e-09
-6.4943e-09
0.000277328
-0.000277329
-2.97114e-09
9.76602e-05
-9.76422e-05
3.70667e-09
9.76325e-05
-9.76406e-05
-0.00115461
-4.76261e-08
-9.22017e-07
7.92601e-07
9.73012e-07
-7.42707e-07
-5.55051e-08
-6.59247e-08
1.23762e-06
-2.00334e-07
2.52198e-07
8.83766e-07
-1.78909e-07
2.30794e-07
-8.31067e-07
-0.00113365
-4.48004e-08
-4.05948e-08
9.76688e-07
-7.44192e-07
7.96627e-07
-9.23879e-07
-0.00115469
-1.96728e-08
-2.04022e-09
1.35512e-07
7.28926e-09
0.000249677
-0.000249798
3.47816e-08
-1.03999e-07
-0.0002448
-9.63525e-09
-1.60899e-08
6.63719e-08
-5.51491e-09
0.000244779
-0.00024482
5.44039e-08
-3.19586e-09
-1.84631e-07
-0.00024968
4.30081e-09
-1.49552e-09
3.5788e-09
-4.25862e-09
0.000228647
-0.000228665
0.000192946
-0.000192918
3.91171e-09
-4.71085e-09
0.000192901
-0.000192908
6.3768e-11
0.000228699
-0.000228666
1.14455e-09
1.99913e-08
-0.00113272
0.00113261
2.49408e-07
-1.22253e-06
-2.13748e-07
-4.14835e-08
-8.3538e-07
2.2519e-07
-1.86595e-07
8.78717e-07
0.000244795
-1.00795e-07
-0.000244732
-8.78813e-09
-8.73213e-08
-6.75013e-08
9.76299e-07
-7.44093e-07
7.9663e-07
-9.21145e-07
-0.00115459
9.20841e-08
1.28387e-06
-2.07727e-07
2.56156e-07
8.80467e-07
-1.84664e-07
2.24262e-07
-8.30883e-07
-0.00113314
-1.55372e-08
0.000244718
6.81625e-08
2.63293e-10
-0.000244766
-1.93651e-08
1.37706e-07
-5.88252e-10
0.00024965
-0.00024977
5.39803e-08
0.00024978
-1.84239e-07
1.68253e-09
-0.000249655
0.000192857
-1.59262e-09
-0.000192867
4.77636e-10
-4.19851e-09
0.000228612
-0.000228629
0.000228661
1.6075e-09
-0.000228628
1.96012e-08
2.41863e-09
9.76535e-05
9.76535e-05
1.23529e-06
-1.77733e-07
-1.94893e-07
0.000268162
6.82382e-09
-5.99931e-09
-5.14342e-09
0.000277309
1.52725e-08
-2.63624e-10
0.000192888
1.58819e-08
0.000228649
-5.59899e-09
4.00822e-10
-1.17727e-07
9.95758e-07
-7.41504e-07
-9.18255e-07
8.04674e-07
5.65469e-08
1.52907e-09
0.000244793
1.53309e-09
1.32211e-07
0.000249689
2.33639e-09
-2.16539e-07
1.26722e-06
2.47727e-07
-9.23293e-08
8.92281e-07
-1.83617e-07
-8.3534e-07
2.36206e-07
-6.40506e-09
6.5541e-08
3.98423e-09
0.000244721
1.34579e-07
0.000249665
2.02065e-09
9.70881e-09
-7.8873e-09
0.000277259
-1.79449e-09
7.69734e-09
-6.74881e-09
0.000277383
4.70532e-09
9.76537e-05
2.33975e-09
1.38171e-07
0.000249693
-6.0421e-08
8.8334e-07
-1.87644e-07
-8.36791e-07
2.16287e-07
-2.2566e-07
1.25574e-06
2.24655e-07
-3.60261e-08
-9.36601e-08
9.81346e-07
-7.45275e-07
-9.27326e-07
7.98255e-07
1.6928e-08
-4.57096e-10
0.000192879
-1.07696e-08
-2.16534e-07
1.2644e-06
2.48473e-07
-8.58149e-08
8.87833e-07
-1.85529e-07
-8.3705e-07
2.31654e-07
9.80809e-07
-7.45305e-07
-9.27456e-07
7.98002e-07
-5.86815e-08
-9.30344e-09
1.57408e-09
6.77215e-08
0.000244716
2.19088e-09
-0.000228704
-1.30399e-09
2.20926e-08
8.71763e-10
0.000192937
1.12787e-09
0.000228686
-3.80613e-10
-4.4318e-09
0.00113253
-2.12718e-07
1.25947e-06
2.47011e-07
-7.41784e-08
8.83131e-07
-1.87643e-07
2.32245e-07
-8.33631e-07
7.01498e-08
1.08241e-09
0.00024475
5.37022e-08
-0.000249671
-1.86849e-07
4.52366e-09
-3.58222e-08
-8.12762e-08
-1.21961e-06
2.43907e-07
-2.09969e-07
-8.31932e-07
2.33577e-07
-1.85918e-07
8.84369e-07
-1.77331e-08
1.36756e-07
2.19433e-09
0.00024966
-5.78818e-08
-9.21288e-07
7.985e-07
-7.41575e-07
9.7822e-07
3.37766e-08
-0.000244767
-9.71725e-09
-1.0585e-07
-0.000228666
2.16202e-08
2.85299e-09
1.53952e-09
0.000228647
-4.94857e-09
4.40913e-09
-0.000192905
1.30531e-09
9.82946e-09
-9.65494e-09
0.00027726
-3.02215e-09
1.02284e-08
-7.84169e-09
0.00027738
4.91491e-09
9.76521e-05
-3.5827e-08
9.7529e-07
-7.47769e-07
-9.24405e-07
7.95443e-07
1.37631e-07
2.23197e-09
0.000249654
-1.63876e-08
7.28835e-08
6.68764e-10
0.000244716
-8.39854e-08
-1.17663e-06
2.38779e-07
-2.04023e-07
-8.32145e-07
2.33468e-07
-1.86291e-07
8.84075e-07
3.39822e-08
-0.000244735
-8.59539e-09
-1.05923e-07
5.85612e-10
0.000192934
-4.73133e-09
-3.54528e-10
0.000192883
3.68417e-09
-0.000192899
2.61379e-09
-9.76513e-05
9.76376e-05
-9.7646e-05
-5.35225e-10
7.97489e-09
0.000142763
1.00081e-10
-0.00014277
-0.000170403
-6.39632e-10
0.000170428
-3.08344e-10
-0.00022259
2.13766e-08
0.000222625
1.85117e-09
-5.66688e-08
-9.09871e-09
6.71103e-10
2.93542e-10
2.00485e-08
-0.000228639
-1.27408e-10
-0.000170412
4.03304e-10
2.37935e-08
-0.000222606
0.000142784
-2.59607e-10
1.01908e-08
-1.95872e-10
0.000142837
-2.1889e-10
-0.000142847
-0.000222688
2.29551e-08
0.00022272
2.02856e-09
-5.59276e-08
-0.000170443
-1.2751e-09
3.37706e-10
0.000170465
1.24974e-09
-7.19954e-09
6.56641e-11
2.03598e-08
-0.00022868
1.17508e-09
2.42097e-08
-0.000222702
2.19725e-10
-0.00017045
0.000142859
-5.6011e-10
6.5487e-09
-5.98794e-10
0.00014277
2.13745e-10
-0.000142776
-0.000222593
1.84176e-08
0.000222627
2.4989e-09
-5.28855e-08
-0.00017041
-7.17303e-10
0.00017043
1.43172e-09
-5.27222e-09
2.05111e-08
-0.000228643
1.37347e-09
2.22549e-08
-0.000222609
-0.000170415
0.000142788
-3.18483e-10
4.42839e-09
4.9536e-09
-9.76448e-05
9.49739e-09
7.89312e-05
-7.89405e-05
-2.5363e-10
-9.73137e-10
-0.000192884
1.66402e-08
-0.000262238
1.53614e-08
0.000262274
-2.36638e-09
-4.64206e-08
-0.00026225
-8.14743e-10
2.18539e-08
7.89466e-05
3.19244e-11
-0.000221359
1.68395e-08
1.48196e-08
-8.31332e-08
-1.68924e-09
-2.49374e-08
0.000250242
-0.000250282
2.8316e-08
4.90081e-08
7.49783e-09
0.000182442
-0.000182456
-4.38047e-09
7.97166e-10
-2.85088e-08
1.49531e-08
-9.8409e-09
-0.000221381
-1.83204e-08
2.3711e-08
3.45913e-10
-1.98008e-08
-4.77635e-08
-0.000142777
2.23959e-10
-2.22522e-08
2.04872e-10
9.0681e-10
0.000170419
-4.59264e-10
-7.33551e-09
0.000222609
1.82461e-10
2.29915e-08
2.51842e-08
1.08244e-09
-8.45037e-10
-5.56623e-08
3.36623e-10
-5.55593e-10
2.01299e-09
-5.77118e-08
-7.89378e-05
-1.56542e-08
-2.88828e-10
7.89537e-05
-9.2598e-09
0.000262261
-8.54192e-10
2.15148e-08
2.26705e-09
3.58704e-09
0.000192915
-3.28725e-08
-4.93421e-10
-2.67647e-09
0.000262298
-4.71573e-08
-0.00014285
-2.35932e-08
1.32616e-09
-6.02672e-10
-9.92754e-09
0.000222709
-2.50666e-09
2.37764e-08
-6.66458e-11
0.000170457
4.46271e-10
4.43354e-11
2.19226e-08
1.00972e-09
-5.41865e-08
-5.7183e-10
2.96288e-09
-5.66228e-08
4.82476e-10
-0.000142782
-1.8939e-08
6.04147e-10
-3.30713e-10
-6.51618e-09
0.000222612
5.44763e-10
2.23751e-08
6.89304e-10
0.000170424
1.81375e-09
1.9608e-08
-5.38288e-08
2.02502e-11
1.94352e-09
-5.33389e-08
-1.30928e-08
9.76591e-05
1.05983e-08
7.89713e-05
2.19721e-10
-7.89821e-05
-2.94856e-10
-4.60463e-09
1.7331e-08
-0.000192928
-0.000262358
1.91531e-08
-1.80975e-09
0.000262392
-4.85678e-08
1.3163e-09
2.03764e-08
-0.000262369
2.97909e-10
7.89901e-05
7.80675e-09
-3.43893e-10
0.000142835
-0.000142842
-0.000222691
2.18648e-08
0.000222723
-5.45825e-08
-0.000170439
-1.13907e-09
0.000170462
1.13602e-09
-6.99618e-09
2.0127e-08
-0.00022868
2.13472e-08
-0.000222702
-0.000170446
0.000142856
8.76224e-09
7.89278e-05
-7.89365e-05
-0.000262226
1.62012e-08
0.000262265
-5.02914e-08
-2.59354e-10
-4.7404e-09
1.76328e-08
-0.000192875
2.31434e-08
-0.000262241
7.89438e-05
5.94181e-09
-9.7638e-05
1.08783e-08
-4.63162e-09
0.000221265
-1.61565e-09
1.65034e-08
-0.000221286
-0.000250052
2.86414e-08
0.000250109
-8.39314e-08
-3.96657e-08
-0.000182381
-2.38025e-08
4.9489e-09
0.000182407
1.10631e-08
-1.09838e-08
9.18212e-09
-0.000277239
4.39396e-08
1.96507e-08
-0.000250093
-5.09416e-09
-0.000182391
1.5783e-08
0.000221303
-4.87093e-08
-9.73699e-10
-1.13554e-09
0.000213086
5.99047e-10
-0.000213086
-8.02579e-05
-8.52608e-09
8.02714e-05
-8.02743e-05
-8.72771e-09
-4.70495e-09
8.02877e-05
-8.0264e-05
4.96812e-09
-8.02804e-05
-1.62631e-08
0.000213101
-5.08146e-09
6.64751e-09
0.000221341
1.80229e-08
-0.00022136
-0.000250215
2.75151e-08
0.000250274
-8.24661e-08
-4.16261e-08
-0.000182443
-2.31318e-08
0.000182466
-7.69935e-09
1.19272e-08
-3.86296e-09
7.78825e-09
-0.000277364
-0.000182451
4.55485e-08
1.72104e-08
-0.000250259
0.000221377
-4.73821e-08
4.5928e-09
-9.76517e-05
1.10231e-08
7.89725e-05
-7.89838e-05
-0.000262361
1.84074e-08
0.000262398
-4.97328e-08
-6.81618e-10
1.57364e-08
-0.000192928
2.3534e-08
-0.000262373
7.89904e-05
9.60836e-09
7.89305e-05
-7.89399e-05
-0.000262233
1.54228e-08
0.000262269
-4.61807e-08
-1.31343e-09
-0.000192879
-4.29913e-09
1.67817e-08
-0.000262246
2.21018e-08
7.89456e-05
-7.89248e-05
-1.51097e-08
-7.1001e-12
1.40472e-09
3.84513e-09
-3.23521e-08
-9.55629e-09
0.000262209
2.11471e-08
-0.000262221
-2.45354e-09
-7.89337e-05
-5.98051e-10
-4.65076e-08
-3.57869e-09
-8.65627e-09
0.000221326
7.46654e-09
-1.194e-09
-0.000221341
1.74988e-08
2.98089e-08
-0.000250175
0.000250225
-7.72045e-08
-4.05591e-08
-0.000182432
-2.37936e-08
3.48522e-09
0.000182459
-1.05222e-08
1.57982e-08
-0.000277327
8.9732e-09
-6.11244e-09
-0.000182445
1.84112e-08
0.000221361
-4.78722e-08
-0.000250214
4.32036e-08
1.92501e-08
-1.30284e-09
-1.69106e-09
0.000213082
2.67595e-09
-0.000213083
-8.02718e-05
-8.41382e-09
8.02837e-05
-8.02573e-05
-8.38705e-09
-3.53002e-09
8.02692e-05
-8.02792e-05
6.01936e-09
-8.0265e-05
-1.8847e-08
0.000213102
6.50971e-09
-8.87989e-09
0.000221263
-0.000221274
1.64259e-08
-0.000250056
2.81009e-08
0.000250106
-7.85239e-08
-3.69979e-08
-0.000182381
-2.32869e-08
0.000182404
1.62637e-08
-7.48767e-09
-0.000277245
-5.03529e-09
5.56699e-09
-0.000250093
4.44431e-08
1.51315e-08
-0.000182391
0.000221296
-4.71982e-08
2.30317e-08
-3.0972e-08
-0.000221304
1.67808e-08
-4.52704e-08
6.51229e-09
-3.4492e-08
1.23011e-08
-1.48555e-08
0.00025016
-4.4168e-09
4.391e-08
1.46692e-08
-0.000250201
0.000182419
8.71713e-09
-5.97909e-09
-0.000182428
2.87626e-09
-7.65146e-08
-4.30808e-08
-8.91736e-10
1.81481e-08
-0.000221317
8.33232e-09
7.88273e-09
-0.000213064
-1.77564e-08
8.0268e-05
1.79012e-09
-8.02758e-05
8.02539e-05
2.51998e-09
7.28068e-09
-8.02637e-05
-3.23489e-09
2.34427e-09
-0.000213063
-2.71915e-08
2.22722e-08
-0.000221241
-4.65367e-08
-3.61134e-08
4.7144e-09
1.20429e-08
-1.3761e-08
0.000250039
-5.85029e-09
2.05232e-08
4.75695e-08
-0.000250084
0.000182367
9.73365e-09
-0.000182376
-3.75823e-08
-7.98148e-08
1.92467e-08
-0.000221254
-3.46885e-09
-9.76402e-05
-8.1547e-10
7.63948e-09
0.000142809
4.2222e-10
-0.000142816
-0.000170408
-6.83682e-10
-3.5084e-11
0.000170431
-0.00022265
2.12068e-08
0.000222681
-5.35998e-08
3.58e-09
-6.11173e-09
1.74624e-09
-1.34614e-10
2.44763e-08
-0.000228653
-2.42825e-11
-0.000170415
2.39385e-08
2.39289e-09
-0.000222667
0.000142829
1.99301e-10
-7.89773e-05
-1.94753e-08
-3.8088e-10
-9.90972e-09
0.000262371
8.04231e-11
-0.00026238
1.86492e-08
3.09918e-09
4.15725e-09
-4.00586e-08
-8.77631e-12
-7.89872e-05
-1.72463e-09
-5.47312e-08
-0.000142851
4.92571e-10