/*--------------------------------*- C++ -*----------------------------------*\
| =========                 |                                                 |
| \\      /  F ield         | OpenFOAM: The Open Source CFD Toolbox           |
|  \\    /   O peration     | Version:  v2006                                 |
|   \\  /    A nd           | Website:  www.openfoam.com                      |
|    \\/     M anipulation  |                                                 |
\*---------------------------------------------------------------------------*/
FoamFile
{
    version     2.0;
    format      ascii;
    class       volVectorField;
    location    "875";
    object      U;
}
// * * * * * * * * * * * * * * * * * * * * * * * * * * * * * * * * * * * * * //

dimensions      [0 1 -1 0 0 0 0];


internalField   nonuniform List<vector> 
14212
(
(-1.7946e-07 -1.25842e-05 0.0911562)
(-1.45981e-06 -8.41698e-06 0.0819819)
(2.44631e-06 -3.50846e-06 0.0713276)
(-8.66443e-06 -1.20394e-06 0.0819826)
(9.25003e-06 -3.19044e-06 0.107616)
(1.69907e-05 -4.25441e-06 0.0928165)
(-2.35458e-06 -3.54139e-06 0.0713253)
(-3.66934e-06 -2.11535e-06 0.071325)
(-4.45323e-05 -4.41493e-05 0.104338)
(-5.43519e-06 -7.98661e-06 0.0873213)
(-7.92095e-06 -5.06652e-06 0.08732)
(7.43592e-08 -1.26278e-05 0.0911564)
(1.61996e-06 -8.55328e-06 0.0819832)
(-3.87929e-07 -2.11714e-05 0.0984138)
(-3.18517e-06 -9.33609e-06 0.107613)
(-4.94754e-06 -1.69301e-05 0.0928158)
(-1.6792e-06 -9.43018e-06 0.110123)
(1.23605e-07 -2.12219e-05 0.0984142)
(3.09673e-06 -9.49241e-06 0.107613)
(5.03576e-06 -1.68548e-05 0.0928164)
(1.37484e-06 -9.51691e-06 0.110124)
(4.41754e-05 -4.40884e-05 0.104338)
(5.51331e-06 -7.81789e-06 0.0873213)
(8.24921e-06 -4.95419e-06 0.0873212)
(3.68496e-06 -2.01878e-06 0.0713252)
(-9.46787e-06 -3.63312e-06 0.107614)
(-1.65013e-05 -4.62675e-06 0.0928163)
(8.60757e-06 -1.00566e-06 0.0819829)
(-7.7381e-07 1.51213e-06 0.0765958)
(-1.88357e-07 5.51714e-07 0.091122)
(-9.29256e-09 -5.79068e-06 0.0783971)
(-5.07291e-07 -1.20062e-05 0.0896651)
(-2.16837e-07 1.0596e-06 0.0783683)
(-2.39181e-07 1.05443e-06 0.0896262)
(3.26816e-07 -5.53658e-06 0.0766295)
(-9.01881e-07 2.32159e-06 0.0681527)
(-1.11073e-06 -9.11667e-06 0.0855818)
(5.80488e-07 4.38223e-06 0.0819408)
(-2.58586e-07 1.89633e-06 0.0855377)
(3.49321e-07 -3.56086e-06 0.0681987)
(-1.43202e-06 2.16129e-06 0.0712831)
(4.16716e-06 8.22282e-07 0.0819417)
(1.61008e-06 2.26247e-06 0.0712848)
(2.13876e-06 1.80409e-06 0.0712847)
(1.1347e-06 1.5617e-06 0.0833586)
(-2.82582e-06 -1.97812e-06 0.0681386)
(-1.94925e-06 -2.6471e-06 0.0681374)
(6.4782e-07 7.74166e-07 0.0681024)
(6.9916e-07 9.08209e-07 0.0681019)
(-3.8544e-06 -3.61091e-06 0.0833888)
(9.10152e-07 2.97967e-06 0.0914409)
(-3.54376e-06 -6.32437e-06 0.0813302)
(2.09049e-06 -1.21308e-06 0.0872848)
(-8.91374e-06 -1.85531e-05 0.0961295)
(2.41119e-07 -1.80792e-07 0.0812947)
(-6.43451e-06 -1.21405e-05 0.0914751)
(3.59631e-06 3.27589e-06 0.0960891)
(2.79864e-06 1.51975e-06 0.0914379)
(-1.11726e-06 2.33988e-06 0.087284)
(-6.43465e-06 -3.245e-06 0.0813272)
(-1.80888e-05 -8.35233e-06 0.0961245)
(-1.44007e-07 5.10257e-07 0.0812929)
(-1.23658e-05 -5.71531e-06 0.0914702)
(3.82646e-06 3.99006e-06 0.0960858)
(7.82174e-07 1.49753e-06 0.0765959)
(6.20703e-08 5.0432e-07 0.0911223)
(2.59254e-08 -5.79515e-06 0.0783972)
(4.51785e-07 -1.20838e-05 0.0896651)
(1.94324e-07 1.05124e-06 0.0783684)
(1.53388e-07 9.65397e-07 0.089627)
(-2.79477e-07 -5.53388e-06 0.0766294)
(9.32255e-07 2.33665e-06 0.0681551)
(1.16828e-06 -9.19145e-06 0.0855825)
(-4.18188e-07 4.18613e-06 0.0819407)
(2.86628e-07 1.79837e-06 0.0855392)
(-2.79608e-07 -3.53314e-06 0.0682008)
(2.90681e-06 -1.79847e-06 0.0681369)
(2.14019e-06 -2.5416e-06 0.0681408)
(3.9952e-06 -3.44949e-06 0.083389)
(-1.11002e-06 3.00408e-06 0.0914357)
(3.66846e-06 -6.35129e-06 0.081328)
(-1.91619e-06 -1.21495e-06 0.0872826)
(8.66718e-06 -1.82395e-05 0.096126)
(-2.08079e-08 -2.83376e-07 0.0812913)
(-3.89905e-06 3.48579e-06 0.0960853)
(6.31776e-06 -1.19753e-05 0.0914697)
(6.73159e-06 -3.2493e-06 0.0813305)
(1.85797e-05 -8.18438e-06 0.0961288)
(1.2436e-05 -5.82816e-06 0.0914751)
(-5.89271e-06 -6.40262e-06 0.112811)
(-2.75718e-07 -3.02071e-06 0.115413)
(5.90143e-06 -6.3706e-06 0.112811)
(1.71046e-07 -3.02181e-06 0.115413)
(5.18631e-05 -4.65682e-06 0.0994556)
(4.86269e-06 5.8392e-06 0.0973756)
(2.89839e-05 2.9252e-05 0.104215)
(-4.1616e-05 -1.81529e-05 0.10143)
(-1.85809e-05 -4.15696e-05 0.101427)
(-1.55818e-05 -1.44824e-05 0.0974229)
(3.15216e-05 4.25583e-06 0.101363)
(3.99091e-06 3.14021e-05 0.101362)
(-1.32794e-06 3.15544e-05 0.102814)
(-4.30804e-07 2.26658e-06 0.09836)
(-9.93359e-07 -2.11233e-05 0.0974402)
(-4.45706e-07 -5.40029e-05 0.103592)
(-7.33158e-07 2.85181e-06 0.0973781)
(-8.60002e-07 3.05541e-05 0.103491)
(-1.29984e-06 -5.49984e-05 0.102938)
(-4.59068e-07 3.40379e-05 0.101236)
(-2.48871e-06 -1.97654e-05 0.0954576)
(1.57384e-06 2.82561e-06 0.0927663)
(-5.21706e-06 -5.17227e-05 0.0994548)
(-4.7008e-07 3.61667e-06 0.0953948)
(1.07264e-06 3.30199e-05 0.0993948)
(-3.07951e-06 -5.53571e-05 0.101344)
(1.14044e-06 3.14653e-05 0.102815)
(2.02247e-07 2.22135e-06 0.0983602)
(7.48413e-07 -2.11735e-05 0.0974407)
(2.35543e-07 -5.40549e-05 0.103592)
(5.12113e-07 2.80464e-06 0.0973791)
(7.36565e-07 3.04871e-05 0.103491)
(1.03682e-06 -5.50625e-05 0.102938)
(4.19846e-07 3.38057e-05 0.101236)
(2.30269e-06 -1.98819e-05 0.0954582)
(-1.47021e-06 2.86278e-06 0.0927664)
(5.08566e-06 -5.17882e-05 0.0994542)
(3.10221e-07 3.49369e-06 0.0953962)
(2.93071e-06 -5.55718e-05 0.101345)
(-1.15751e-06 3.28995e-05 0.0993944)
(-5.60605e-06 5.59018e-06 0.0973762)
(-2.93988e-05 2.91431e-05 0.104215)
(4.14986e-05 -1.81739e-05 0.101427)
(1.83829e-05 -4.12927e-05 0.10143)
(-4.28364e-06 3.15857e-05 0.101365)
(-3.1653e-05 4.15436e-06 0.101361)
(1.50155e-05 -1.47147e-05 0.0974234)
(3.31016e-06 1.78193e-06 0.0927667)
(-5.17036e-05 -5.19004e-06 0.0994543)
(3.31595e-05 9.41102e-07 0.0993951)
(-1.06929e-06 1.55654e-06 0.0833594)
(-5.62418e-07 8.72308e-07 0.0681008)
(-5.3026e-07 9.73284e-07 0.0681052)
(-2.74697e-06 1.43319e-06 0.0914428)
(1.46248e-06 2.45586e-06 0.0872858)
(-3.35404e-06 4.13707e-06 0.0960898)
(5.192e-07 5.14194e-07 0.0812967)
(-2.12729e-06 1.95151e-06 0.0712854)
(-4.18419e-06 1.06628e-06 0.0819419)
(-2.82392e-06 2.07422e-06 0.0927677)
(-3.30212e-05 1.33199e-06 0.0993966)
(-8.03331e-06 -3.74341e-07 0.0983267)
(-4.30992e-06 7.03917e-08 0.110446)
(-2.84648e-06 -2.24046e-07 0.0909522)
(-8.09805e-06 3.76126e-07 0.0983267)
(4.05975e-08 -1.06267e-06 0.107866)
(-4.34449e-06 1.35604e-08 0.110445)
(-7.62086e-06 -2.26312e-06 0.0925996)
(-2.90398e-06 4.77784e-07 0.0909522)
(-5.04327e-06 -7.8903e-07 0.0816866)
(-9.12629e-07 1.15375e-07 0.107868)
(-2.05071e-06 -7.60893e-06 0.0926)
(-6.96213e-07 -4.94795e-06 0.0816873)
(-3.53878e-05 -3.54402e-05 0.10437)
(-7.24622e-07 -3.62023e-06 0.0870601)
(-3.47272e-06 -7.3902e-07 0.0870594)
(-2.11552e-06 -2.82496e-06 0.0710279)
(-2.72304e-06 -2.09108e-06 0.0710285)
(4.56222e-06 6.47767e-07 0.0763756)
(-3.08997e-06 -2.48226e-07 0.0894288)
(-2.19386e-06 -2.52948e-07 0.0781185)
(1.07537e-05 -1.3341e-07 0.0909857)
(-2.57693e-06 -5.52325e-07 0.0763395)
(1.04556e-05 -3.32652e-07 0.0894691)
(4.82317e-06 -3.89904e-08 0.0781468)
(4.54983e-06 -4.71801e-07 0.0763739)
(-2.23002e-06 5.01501e-07 0.0781187)
(-3.28093e-06 5.25809e-07 0.0894294)
(1.06931e-05 4.95716e-07 0.0909855)
(-2.6969e-06 7.80897e-07 0.0763409)
(4.79774e-06 2.54508e-07 0.0781467)
(1.03153e-05 6.74283e-07 0.0894678)
(3.32625e-06 -6.16322e-07 0.0679512)
(-3.04299e-06 5.14469e-07 0.0852995)
(8.20972e-06 1.10801e-06 0.0817279)
(-2.68711e-06 8.14305e-07 0.0679057)
(8.54049e-06 1.18538e-06 0.0853435)
(1.16775e-06 8.30103e-06 0.0817285)
(4.28021e-06 4.10534e-06 0.0831789)
(-7.4349e-07 -1.52767e-06 0.067886)
(-1.41382e-06 -9.01273e-07 0.0678819)
(-8.46379e-07 -1.06577e-06 0.0831466)
(2.15054e-06 2.3808e-06 0.0679245)
(2.53559e-06 2.09003e-06 0.0679185)
(1.21633e-05 5.52732e-06 0.091311)
(-8.33291e-07 -1.90437e-06 0.0810604)
(-7.0261e-06 -5.35295e-06 0.0959874)
(6.78364e-06 3.99982e-06 0.0870981)
(-3.94287e-06 -1.92429e-06 0.0912741)
(1.62973e-05 7.60651e-06 0.0960303)
(5.89877e-06 2.19239e-06 0.0810971)
(5.68854e-06 1.20292e-05 0.0913042)
(-1.80754e-06 -8.9831e-07 0.0810566)
(-5.23228e-06 -7.09767e-06 0.0959846)
(4.15704e-06 6.74314e-06 0.0870965)
(-1.78443e-06 -4.08528e-06 0.0912681)
(7.7935e-06 1.61845e-05 0.096027)
(2.31099e-06 5.8717e-06 0.081092)
(3.81907e-06 1.1989e-06 0.0710687)
(1.28513e-06 3.81615e-06 0.0710689)
(-6.39078e-06 -6.43035e-06 0.1131)
(5.13666e-05 3.14915e-08 0.10303)
(-8.32824e-06 -4.46624e-07 0.0973118)
(-4.19151e-05 -5.07545e-07 0.103602)
(1.65389e-05 -2.67001e-07 0.0983826)
(-4.22529e-05 -2.43504e-08 0.102893)
(1.67812e-05 -7.42997e-07 0.0973772)
(4.98971e-05 1.81771e-08 0.103713)
(5.11511e-05 9.49095e-08 0.103029)
(-4.20153e-05 4.49021e-07 0.103601)
(-8.56144e-06 5.0057e-07 0.0973117)
(1.64726e-05 4.43736e-07 0.0983823)
(-4.24903e-05 2.52043e-08 0.102893)
(4.98024e-05 5.56306e-08 0.103713)
(1.65733e-05 9.47873e-07 0.0973764)
(5.25415e-05 1.78118e-06 0.101392)
(-7.98014e-06 1.39013e-07 0.0952825)
(-4.14225e-05 -2.44515e-06 0.0993663)
(1.30429e-05 4.32455e-06 0.0926513)
(-4.34749e-05 -9.27666e-07 0.101273)
(1.64787e-05 2.26731e-06 0.0953477)
(4.88894e-05 4.11354e-06 0.0994305)
(-2.35311e-06 -4.13668e-05 0.0993658)
(4.54589e-06 1.30636e-05 0.0926515)
(4.26364e-06 4.89263e-05 0.0994301)
(1.52864e-05 1.51999e-05 0.0973581)
(4.49753e-05 4.48574e-05 0.104507)
(-7.25683e-06 -3.54478e-05 0.101403)
(-3.52586e-05 -7.27591e-06 0.1014)
(-6.37156e-06 -6.432e-06 0.0973059)
(1.68168e-05 4.32668e-05 0.101476)
(4.34521e-05 1.67447e-05 0.101472)
(3.28333e-06 7.13865e-07 0.0679511)
(-2.83537e-06 -3.06255e-07 0.0852978)
(-2.56226e-06 -7.31181e-07 0.0679007)
(8.65296e-06 -9.9307e-07 0.0853445)
(5.29106e-05 -1.4944e-06 0.101393)
(-7.66675e-06 -2.79481e-09 0.0952827)
(-4.30712e-05 1.12196e-06 0.101274)
(1.67361e-05 -2.06726e-06 0.0953484)
(9.17984e-06 -3.88681e-07 0.0855833)
(3.46187e-06 8.35558e-07 0.0682005)
(1.98536e-05 -1.60034e-06 0.0954583)
(5.55369e-05 -2.51081e-06 0.101345)
(-1.10488e-05 2.16846e-07 0.091142)
(-1.97192e-05 2.0803e-07 0.0984054)
(-4.63948e-05 4.53883e-05 0.104341)
(-2.35271e-06 6.84409e-06 0.110141)
(4.12898e-06 7.60068e-06 0.107624)
(-2.00004e-07 1.08453e-05 0.0911418)
(4.24262e-07 1.07928e-05 0.0911414)
(4.59812e-05 4.52583e-05 0.104339)
(3.31644e-06 1.63631e-06 0.0713096)
(-5.79242e-06 -6.47425e-06 0.112821)
(9.15743e-06 -4.76989e-06 0.107621)
(-2.18432e-06 7.7147e-06 0.110132)
(-2.80649e-05 -2.86908e-05 0.104213)
(-1.53035e-06 -7.14535e-06 0.110148)
(1.8917e-06 -7.26844e-06 0.110148)
(4.59466e-05 -4.68236e-05 0.104344)
(8.69985e-06 -5.76417e-06 0.107627)
(7.1428e-06 1.92488e-07 0.11014)
(7.85061e-06 5.69572e-07 0.0819678)
(-1.17324e-06 2.80222e-06 0.0872772)
(-3.93678e-06 -9.56443e-06 0.107619)
(1.75727e-06 -9.10918e-06 0.110132)
(-2.85517e-05 2.7804e-05 0.104217)
(3.79623e-06 1.89084e-06 0.0927601)
(1.54411e-06 3.27063e-07 0.0911138)
(3.27504e-06 3.28084e-07 0.0983554)
(8.08166e-06 1.04581e-06 0.110131)
(-4.90954e-06 -1.16292e-06 0.0819348)
(2.79255e-05 -2.88044e-05 0.104214)
(4.65588e-06 8.48973e-06 0.107618)
(-6.08305e-08 -1.93682e-06 0.0911141)
(4.83006e-07 -2.05969e-06 0.0911146)
(-2.48162e-06 -2.10705e-06 0.0712767)
(5.00196e-07 -8.01394e-07 0.115438)
(-3.20109e-07 -8.56158e-07 0.115438)
(7.00978e-07 -1.56987e-06 0.11543)
(-1.08516e-07 3.13779e-07 0.115432)
(-8.32716e-06 -4.28884e-07 0.0819664)
(-1.1113e-05 -2.56289e-07 0.0911417)
(-7.91096e-06 -4.99175e-06 0.107632)
(-1.55457e-05 -4.49528e-06 0.0928036)
(-1.97509e-05 -9.6878e-07 0.0984056)
(-8.74282e-06 -5.25936e-06 0.107625)
(-7.62891e-06 -2.83226e-06 0.11014)
(-6.78604e-06 -2.58846e-06 0.110149)
(-8.14495e-06 4.87739e-07 0.0819673)
(-8.82882e-06 3.65538e-06 0.107622)
(-7.60328e-06 8.91612e-07 0.11014)
(-1.5197e-05 4.19576e-06 0.0928015)
(-7.95418e-06 3.2635e-06 0.107629)
(-6.79391e-06 7.01871e-07 0.110148)
(-3.32413e-06 1.65337e-06 0.0713091)
(-7.44457e-06 4.15943e-06 0.0873047)
(-4.2545e-06 7.36068e-06 0.0873066)
(-1.50812e-06 3.46936e-06 0.0713092)
(-4.92086e-06 8.0074e-06 0.107625)
(-8.22244e-07 1.93684e-05 0.0984053)
(-4.61712e-06 1.49654e-05 0.0928021)
(-4.40483e-06 7.37538e-06 0.107631)
(-2.09899e-06 6.39012e-06 0.110149)
(1.11263e-06 6.68706e-06 0.11014)
(5.49841e-07 1.92713e-05 0.0984051)
(4.63498e-06 1.42101e-05 0.0928012)
(3.21998e-06 6.95196e-06 0.107631)
(6.28322e-07 6.26174e-06 0.110149)
(-6.69499e-07 -5.35378e-06 0.0927458)
(-3.56017e-07 8.21599e-06 0.0819678)
(5.24142e-07 7.93572e-06 0.0819689)
(-6.4748e-07 -4.41439e-06 0.0819227)
(6.43552e-06 4.15587e-06 0.0873058)
(4.25758e-06 6.38212e-06 0.0873044)
(-2.95829e-05 -3.00284e-05 0.104218)
(-1.20556e-06 -2.55238e-06 0.0872612)
(-2.18039e-06 -1.48533e-06 0.0872606)
(-2.23771e-06 -2.10444e-06 0.071267)
(1.56099e-06 3.36277e-06 0.0713103)
(-1.87643e-06 -2.20416e-06 0.071268)
(-4.48994e-07 -1.11977e-05 0.0911283)
(1.08634e-06 4.35634e-06 0.081932)
(-2.29309e-07 1.26831e-06 0.0911143)
(-1.83902e-06 2.23062e-06 0.0712733)
(4.31183e-06 1.25062e-06 0.0819334)
(1.49109e-06 -7.03534e-08 0.0911143)
(1.14919e-07 -2.5689e-06 0.115422)
(1.49691e-06 -1.06293e-06 0.115422)
(-3.68505e-07 1.00573e-06 0.115424)
(8.33006e-06 -2.84048e-06 0.110132)
(2.06548e-05 7.73621e-07 0.098413)
(-3.50748e-06 1.92968e-06 0.0927607)
(-3.36838e-06 -6.58538e-07 0.098356)
(9.07786e-06 -1.5502e-06 0.110124)
(2.39198e-06 -1.95095e-06 0.0712757)
(-4.68547e-06 8.69653e-06 0.107619)
(-5.80056e-07 -3.75711e-06 0.0983551)
(1.94884e-06 -4.4377e-06 0.0927591)
(-3.78771e-07 -3.06991e-06 0.0872761)
(-3.11419e-06 -4.01295e-07 0.0872756)
(4.55843e-05 4.55234e-05 0.104334)
(7.42635e-06 4.69279e-06 0.0873208)
(4.30266e-06 7.58232e-06 0.0873193)
(-1.68492e-06 -3.38963e-06 0.0713068)
(2.20383e-06 2.19667e-06 0.0712606)
(-3.46023e-06 -1.68779e-06 0.0713076)
(2.86345e-05 2.80769e-05 0.104219)
(-8.09779e-06 -4.34655e-06 0.087307)
(-4.59094e-05 -4.66292e-05 0.104343)
(-4.21472e-06 -8.19658e-06 0.0873046)
(2.79007e-06 4.37714e-07 0.0872588)
(4.55863e-07 -1.12042e-05 0.0911285)
(-6.19583e-07 -1.94226e-05 0.0984001)
(7.69369e-07 -1.94228e-05 0.0984004)
(-4.23882e-07 1.77494e-06 0.0911003)
(-5.25661e-07 -8.39831e-06 0.0819646)
(1.16504e-06 4.53392e-06 0.0819171)
(-2.45828e-07 -1.12766e-05 0.0911411)
(4.1872e-07 1.76196e-06 0.0911006)
(5.24941e-07 -8.46367e-06 0.0819657)
(-1.18549e-06 4.46544e-06 0.0819167)
(1.62649e-07 -1.13204e-05 0.0911413)
(-4.33707e-06 -8.47156e-06 0.107629)
(-4.53743e-06 -9.3336e-06 0.107622)
(-1.79209e-06 -8.12106e-06 0.110139)
(-6.49709e-07 3.8683e-06 0.0983491)
(-4.25678e-06 -1.57424e-05 0.0928011)
(1.34545e-06 5.28885e-06 0.0927437)
(-5.80732e-07 -1.99501e-05 0.0984052)
(1.96128e-06 -8.24393e-06 0.11014)
(4.63516e-06 -9.60048e-06 0.107624)
(4.63625e-06 -8.79232e-06 0.107629)
(7.46895e-07 3.86095e-06 0.0983494)
(4.22871e-06 -1.58662e-05 0.0928026)
(-1.3466e-06 5.32637e-06 0.0927448)
(5.09563e-07 -2.00073e-05 0.0984056)
(1.68335e-06 -3.38514e-06 0.0713081)
(-2.15858e-06 2.06718e-06 0.0712582)
(-2.87074e-05 2.76257e-05 0.10422)
(4.23754e-06 -8.33612e-06 0.0873059)
(8.29387e-06 -4.30655e-06 0.087306)
(-2.82289e-06 3.43718e-07 0.0872585)
(-5.83629e-07 2.19536e-06 0.0872615)
(3.5238e-06 -1.59312e-06 0.0713068)
(-2.2764e-06 1.98114e-06 0.0712613)
(7.44944e-06 -3.55779e-06 0.11014)
(7.98097e-06 -5.63095e-06 0.107632)
(6.74397e-06 -3.4054e-06 0.110149)
(-3.62736e-06 -2.01661e-06 0.0983505)
(1.57141e-05 -4.57088e-06 0.0928029)
(-5.23814e-06 5.26464e-07 0.0927463)
(1.96394e-05 -1.13458e-06 0.0984054)
(-1.4807e-06 -1.13006e-06 0.0911017)
(8.41387e-06 -3.5364e-07 0.0819661)
(-4.64182e-06 8.52398e-07 0.0819183)
(1.10486e-05 -1.47656e-07 0.0911413)
(8.08692e-06 3.20386e-06 0.107622)
(1.43312e-05 4.30364e-06 0.0928009)
(6.49664e-06 -2.6899e-07 0.110149)
(7.26596e-06 2.36585e-06 0.107629)
(-5.01326e-06 -1.33802e-06 0.0927453)
(-3.50987e-06 -6.02905e-07 0.0983504)
(1.94674e-05 1.41138e-07 0.0984048)
(-4.52895e-06 -9.4544e-07 0.0819215)
(-1.3994e-06 -1.12319e-07 0.0911017)
(1.09001e-05 3.97774e-07 0.0911409)
(1.96612e-06 2.34607e-06 0.0712752)
(2.21518e-06 2.04723e-06 0.0712756)
(2.84354e-05 2.80416e-05 0.104216)
(2.81584e-06 -1.28484e-06 0.0872753)
(-1.00545e-06 4.21012e-06 0.0819319)
(1.18412e-07 1.21908e-06 0.0911145)
(-1.87214e-06 -8.97532e-06 0.110131)
(1.95692e-06 3.49847e-06 0.0927583)
(-5.29587e-07 2.93657e-06 0.0983556)
(4.00659e-06 -9.87562e-06 0.107619)
(-1.91874e-06 3.40568e-06 0.0927593)
(3.99463e-07 2.88512e-06 0.0983559)
(-2.66071e-06 -1.44594e-06 0.0872749)
(1.44481e-06 2.88514e-06 0.0872782)
(-2.19457e-06 2.17807e-06 0.0712761)
(3.21816e-06 -6.9509e-07 0.0983556)
(-9.2676e-06 -4.60638e-06 0.107621)
(-8.56347e-06 -2.50001e-06 0.110132)
(4.59004e-06 -1.12351e-06 0.0819337)
(-9.41836e-06 3.7913e-06 0.107617)
(-8.55418e-06 1.21424e-06 0.110131)
(4.26649e-06 -2.03653e-06 0.092758)
(1.19911e-05 8.05465e-07 0.0911557)
(-4.25988e-06 1.42059e-06 0.0819335)
(-1.62446e-06 1.59894e-07 0.091115)
(8.90496e-06 3.97449e-06 0.107616)
(-5.21675e-06 -1.96027e-06 0.0927578)
(2.03312e-05 1.42396e-06 0.0984124)
(9.43999e-06 4.48443e-06 0.107611)
(-3.62616e-06 4.62537e-07 0.0983554)
(8.97748e-06 2.00567e-06 0.110123)
(1.53616e-05 4.71356e-06 0.0928151)
(1.17004e-05 1.01408e-06 0.0911553)
(-1.85413e-06 6.31095e-07 0.0911148)
(8.06024e-06 1.13684e-06 0.0819817)
(-5.14163e-07 -2.91813e-06 0.0872752)
(3.10885e-06 4.88413e-07 0.0872774)
(2.28425e-06 -2.29214e-06 0.0712768)
(1.68209e-06 7.58301e-06 0.110131)
(6.54431e-07 -3.89567e-06 0.098355)
(-1.82193e-06 -5.31933e-06 0.0927583)
(4.70644e-06 9.26468e-06 0.107612)
(4.29078e-06 1.53903e-05 0.0928152)
(1.49152e-06 -4.50017e-06 0.0819344)
(-1.3329e-06 -4.82522e-06 0.081936)
(7.80634e-07 8.18323e-06 0.0819824)
(3.30752e-06 2.09308e-06 0.0713218)
(-2.2626e-06 -2.41051e-06 0.0712776)
(1.82269e-06 3.3903e-06 0.071322)
(2.30934e-06 3.43211e-07 0.0765784)
(-4.72546e-06 7.79455e-08 0.078382)
(-1.08065e-05 3.8638e-07 0.08965)
(1.76017e-06 1.94796e-07 0.0911066)
(1.95743e-06 2.50659e-07 0.0783515)
(2.11132e-06 3.77293e-07 0.0896098)
(-4.65392e-06 -8.92882e-07 0.0766134)
(-2.30041e-07 -2.35389e-06 0.0765791)
(-4.85621e-07 1.06171e-05 0.0896506)
(2.06248e-07 4.51898e-06 0.0783829)
(-4.43442e-07 -1.80672e-06 0.0911074)
(-7.61084e-07 -2.15832e-06 0.0896096)
(-8.60105e-08 -2.09497e-06 0.078354)
(1.18151e-06 4.44772e-06 0.0766155)
(3.92758e-07 -2.56408e-06 0.0765824)
(6.91602e-07 1.04332e-05 0.0896493)
(7.85175e-08 4.47867e-06 0.0783826)
(3.94892e-07 -1.86115e-06 0.091108)
(7.52057e-07 -2.35048e-06 0.0896114)
(2.64876e-07 -2.18557e-06 0.0783554)
(-9.14527e-07 4.37549e-06 0.0766141)
(-2.39133e-06 -2.1852e-06 0.0712718)
(-2.70452e-06 7.64107e-07 0.0681423)
(-4.88589e-06 -1.16471e-06 0.0819284)
(8.23568e-06 8.70018e-07 0.0855662)
(-2.91141e-06 3.48757e-07 0.0855234)
(3.12073e-06 -6.64057e-07 0.0681854)
(-1.27335e-05 -5.77319e-06 0.0914697)
(3.8389e-06 2.95437e-06 0.0960846)
(-4.12622e-07 1.10275e-06 0.0812861)
(-8.38789e-06 -4.58205e-06 0.0873144)
(2.58312e-06 1.19728e-06 0.0914401)
(-6.84213e-06 -2.991e-06 0.0813204)
(-1.83603e-05 -8.98376e-06 0.0961273)
(-4.95619e-06 -6.23682e-07 0.0766213)
(1.6961e-06 3.83519e-07 0.0783589)
(1.90323e-06 2.64478e-07 0.0896176)
(-1.14557e-05 3.61924e-07 0.0911492)
(2.05536e-06 5.1292e-07 0.0765858)
(-5.0981e-06 1.73319e-07 0.0783895)
(-1.11421e-05 3.99646e-07 0.0896578)
(3.16395e-06 -5.4341e-07 0.0681913)
(-2.75544e-06 2.95267e-07 0.0855311)
(7.93117e-06 7.31239e-07 0.0819744)
(-2.67224e-06 8.17166e-07 0.0681477)
(8.51553e-06 9.58416e-07 0.085574)
(1.19869e-06 4.7017e-06 0.0766224)
(-1.20544e-07 -2.12115e-06 0.0896171)
(1.85733e-09 -2.05432e-06 0.0783609)
(1.54717e-07 1.09505e-05 0.0911486)
(-6.47499e-08 -2.22645e-06 0.0765859)
(5.03733e-08 1.08072e-05 0.0896581)
(2.62821e-07 4.73922e-06 0.0783896)
(-8.97412e-07 4.61623e-06 0.0766207)
(4.79461e-07 -2.4579e-06 0.0896189)
(3.69176e-07 -2.16669e-06 0.078362)
(5.05849e-07 1.08419e-05 0.0911482)
(3.42161e-07 -2.46825e-06 0.0765888)
(5.01856e-07 1.05499e-05 0.0896568)
(1.48061e-07 4.68842e-06 0.0783893)
(3.24564e-06 1.81268e-06 0.071315)
(2.47325e-06 -5.76266e-07 0.0681374)
(4.53488e-06 1.31542e-06 0.0819257)
(-8.93776e-06 -5.59395e-07 0.0855658)
(2.38722e-06 -1.95082e-07 0.0855219)
(-3.34841e-06 9.65618e-07 0.0681823)
(2.22115e-06 -2.66111e-07 0.0765797)
(-1.09576e-05 -4.2044e-07 0.0896496)
(-4.83591e-06 1.83794e-07 0.0783812)
(1.78355e-06 -4.78112e-07 0.0911072)
(2.09077e-06 -6.26316e-07 0.0896108)
(1.95719e-06 -1.4501e-07 0.0783525)
(-4.85015e-06 1.07295e-06 0.0766126)
(2.59784e-06 6.42375e-07 0.0681402)
(-8.67433e-06 6.74542e-07 0.0855665)
(4.60884e-06 -1.33388e-06 0.0819264)
(2.56058e-06 1.43436e-07 0.0855222)
(-3.23436e-06 -7.95639e-07 0.0681849)
(2.26679e-06 -2.19764e-06 0.0712691)
(2.85494e-06 -8.22387e-07 0.0914256)
(-1.76388e-05 1.00762e-05 0.096115)
(-6.19617e-06 1.71403e-06 0.0813106)
(-9.83348e-09 -3.00536e-06 0.0872672)
(4.77104e-06 -2.15744e-06 0.0960734)
(5.13999e-07 -2.45515e-06 0.0812772)
(-1.26047e-05 6.17419e-06 0.0914601)
(-6.65136e-08 -1.46272e-07 0.0833509)
(-2.14354e-06 2.22222e-06 0.0681156)
(-2.07755e-06 2.29047e-06 0.0681219)
(6.63604e-07 -1.73599e-06 0.0680818)
(1.75525e-06 -6.30412e-07 0.0680879)
(-4.99774e-06 4.95012e-06 0.08338)
(2.72012e-07 -3.34201e-06 0.0914321)
(-1.06788e-05 1.72209e-05 0.0961184)
(-1.63511e-06 6.18331e-06 0.0813166)
(2.71379e-06 -2.25374e-07 0.0872696)
(2.35047e-06 -6.81517e-07 0.0812826)
(1.35729e-06 -5.23563e-06 0.0960764)
(-6.52047e-06 1.22451e-05 0.0914672)
(2.24211e-06 -2.27469e-06 0.0712706)
(-6.35361e-07 -2.52832e-06 0.068137)
(-6.29209e-07 8.5661e-06 0.0855674)
(1.27336e-06 -4.59785e-06 0.0819273)
(-3.88012e-07 -2.5868e-06 0.0855211)
(1.03102e-06 3.17606e-06 0.0681855)
(7.71541e-07 -2.72761e-06 0.0681436)
(8.82244e-07 8.21852e-06 0.0855671)
(-1.08961e-06 -4.79213e-06 0.0819297)
(5.31325e-07 -2.91536e-06 0.0855242)
(-7.71518e-07 3.12949e-06 0.0681865)
(-5.58732e-07 3.08349e-06 0.0681817)
(9.00254e-07 8.15244e-06 0.0819625)
(1.08803e-06 -2.66277e-06 0.0855163)
(9.82373e-07 -2.68815e-06 0.0681385)
(1.39823e-06 8.28497e-06 0.0855594)
(-3.46927e-06 -4.51831e-07 0.091429)
(1.67504e-05 1.05578e-05 0.0961165)
(5.20909e-06 1.02401e-06 0.0813168)
(-1.06972e-06 -2.94926e-06 0.0872686)
(-1.59052e-06 -2.90861e-06 0.0812815)
(1.20255e-05 6.4822e-06 0.0914665)
(-5.5642e-06 -1.81912e-06 0.0960742)
(1.11885e-07 -1.20783e-07 0.0833493)
(2.03407e-06 1.76965e-06 0.0681208)
(1.78057e-06 2.08345e-06 0.0681151)
(-8.6182e-07 -2.06705e-06 0.0680847)
(-2.05815e-06 -9.65506e-07 0.0680813)
(5.11192e-06 4.9942e-06 0.0833818)
(-1.70861e-07 -3.83183e-06 0.0914232)
(1.09311e-05 1.63976e-05 0.096113)
(1.04303e-06 5.23495e-06 0.0813121)
(-2.74823e-06 -1.15358e-06 0.0872681)
(-1.36764e-06 -5.9452e-06 0.0960713)
(-2.84439e-06 -1.68955e-06 0.0812783)
(6.66472e-06 1.17486e-05 0.0914599)
(1.18651e-05 7.0232e-06 0.0914579)
(5.93876e-06 4.45736e-06 0.0872984)
(-5.53636e-06 -1.81424e-06 0.0960688)
(-1.80733e-06 -2.7197e-06 0.0812753)
(4.70847e-06 8.45792e-07 0.0813108)
(1.65253e-05 1.0809e-05 0.0961106)
(-3.59986e-06 3.80566e-08 0.0914204)
(5.2405e-06 4.96365e-06 0.0833743)
(-9.53386e-07 -2.13576e-06 0.068082)
(-2.01043e-06 -1.22001e-06 0.0680786)
(1.94942e-06 1.46844e-06 0.0681172)
(1.60404e-06 1.82982e-06 0.068112)
(-1.71313e-07 -4.90171e-07 0.0833414)
(7.37359e-06 1.14762e-05 0.0914514)
(4.76566e-06 5.79631e-06 0.087297)
(-1.37958e-06 -5.98535e-06 0.0960656)
(-2.53102e-06 -2.14063e-06 0.0812722)
(1.13039e-05 1.60828e-05 0.0961069)
(1.00604e-06 4.54714e-06 0.0813062)
(3.20413e-07 -4.03721e-06 0.0914146)
(3.43726e-06 1.65639e-06 0.071305)
(-2.17327e-06 -2.33667e-06 0.0712728)
(1.77587e-06 3.46941e-06 0.0713057)
(-5.61217e-07 2.2169e-06 0.0765642)
(6.61825e-09 -4.75354e-06 0.078366)
(-1.00561e-06 -1.07559e-05 0.0896345)
(-5.06262e-07 1.3424e-06 0.0910944)
(-2.67328e-07 1.75844e-06 0.0783372)
(-1.07012e-06 1.9654e-06 0.0895956)
(8.1928e-07 -4.56922e-06 0.0765977)
(6.97342e-07 -3.43128e-06 0.0681892)
(3.53784e-08 1.94708e-06 0.085529)
(-9.25937e-07 -8.39762e-06 0.0819728)
(-6.06351e-07 2.41199e-06 0.0681435)
(-6.63061e-07 -9.20507e-06 0.0855733)
(6.61856e-07 -5.26662e-06 0.0766201)
(-1.76782e-07 -1.18928e-05 0.0911486)
(-2.11035e-07 1.48687e-06 0.0783594)
(-1.44703e-07 1.5784e-06 0.089618)
(-4.46008e-07 1.84137e-06 0.0765866)
(3.38743e-08 -5.43431e-06 0.0783881)
(-2.43814e-07 -1.15865e-05 0.089657)
(2.05219e-06 -3.37754e-06 0.0713173)
(-3.438e-06 9.31646e-07 0.0681897)
(1.97833e-06 1.6424e-07 0.0855303)
(-8.48147e-06 -6.99896e-07 0.0819742)
(2.40086e-06 -4.4181e-07 0.0681449)
(-9.22532e-06 -4.13121e-07 0.085574)
(-5.1738e-06 9.97248e-07 0.0766205)
(1.72279e-06 -6.18766e-08 0.0896187)
(1.66681e-06 1.95646e-08 0.0783599)
(-1.15871e-05 1.18153e-07 0.0911489)
(1.92943e-06 -1.95346e-07 0.0765875)
(-1.14309e-05 7.57938e-09 0.0896574)
(-5.21869e-06 3.09286e-07 0.0783887)
(-3.26334e-06 1.99745e-06 0.0713159)
(1.20547e-05 6.06269e-06 0.0914737)
(-5.16232e-06 -2.25663e-06 0.0960804)
(-9.74294e-07 -2.39784e-06 0.0812873)
(7.13998e-06 4.25173e-06 0.0873133)
(-3.3158e-06 -9.66097e-07 0.0914368)
(1.71947e-05 1.00576e-05 0.0961228)
(5.73963e-06 1.74856e-06 0.0813228)
(4.67625e-06 4.75969e-06 0.0833873)
(-8.05005e-07 -1.59292e-06 0.0680887)
(-1.71719e-06 -7.9626e-07 0.0680853)
(-2.79625e-07 -3.15089e-07 0.0833555)
(1.97999e-06 2.23882e-06 0.0681262)
(2.1513e-06 2.13826e-06 0.0681201)
(5.99206e-06 1.20158e-05 0.0914669)
(-2.0281e-06 -5.391e-06 0.0960776)
(-2.49994e-06 -9.36071e-07 0.081284)
(4.07482e-06 7.17108e-06 0.0873119)
(-9.223e-07 -3.5084e-06 0.091431)
(1.01255e-05 1.70374e-05 0.0961193)
(1.5818e-06 5.88669e-06 0.0813178)
(-6.30649e-07 -4.7656e-07 0.0833603)
(1.88075e-06 2.52913e-06 0.0681332)
(2.4001e-06 2.07966e-06 0.0681268)
(-8.96676e-07 -1.17044e-06 0.0680946)
(-1.39066e-06 -8.26118e-07 0.0680912)
(4.35907e-06 4.59158e-06 0.0833922)
(-3.34936e-06 -1.1614e-06 0.0914431)
(1.53724e-07 -2.77564e-06 0.0872837)
(5.88116e-06 2.55239e-06 0.0813292)
(1.75112e-05 9.72271e-06 0.0961285)
(-4.74434e-06 -2.71261e-06 0.0960866)
(-6.16298e-07 -1.56956e-06 0.0812933)
(1.19668e-05 6.12299e-06 0.0914793)
(-1.37854e-06 -3.28712e-06 0.0914373)
(-3.08461e-06 2.60901e-07 0.0872831)
(2.26302e-06 6.13548e-06 0.081324)
(9.44683e-06 1.7583e-05 0.0961251)
(-2.82714e-06 -4.75453e-06 0.0960839)
(-1.84923e-06 -4.63878e-07 0.0812899)
(5.81163e-06 1.21729e-05 0.0914724)
(2.20101e-06 2.28646e-06 0.0712673)
(-1.54568e-06 -3.49784e-06 0.0712996)
(2.23222e-06 2.11483e-06 0.0712675)
(2.76799e-06 4.79106e-07 0.0914345)
(-4.80069e-07 2.76281e-06 0.0872692)
(-1.80115e-05 -1.0311e-05 0.0961229)
(-6.80719e-06 -2.24695e-06 0.0813128)
(4.56948e-06 1.64606e-06 0.0960797)
(2.38348e-08 1.8982e-06 0.0812785)
(-1.28324e-05 -6.35642e-06 0.091467)
(9.50919e-07 2.59772e-06 0.0914289)
(-9.99828e-06 -1.81932e-05 0.0961169)
(3.07399e-06 -5.64195e-07 0.0872671)
(-2.21162e-06 -6.92516e-06 0.0813121)
(2.04123e-06 -1.30135e-07 0.0812778)
(2.17403e-06 4.39717e-06 0.0960732)
(-6.12699e-06 -1.2951e-05 0.0914617)
(-6.62815e-06 -1.26675e-05 0.0914557)
(1.46754e-06 5.22905e-06 0.0960667)
(2.6883e-06 7.8281e-07 0.0812705)
(-4.24179e-06 -7.25925e-06 0.0872963)
(3.32931e-07 3.0582e-06 0.0914211)
(-1.32403e-06 -6.21866e-06 0.0813049)
(-1.08451e-05 -1.73139e-05 0.0961102)
(-2.62314e-07 -5.20493e-08 0.0833532)
(-2.50768e-06 -2.35735e-06 0.0681176)
(-2.61047e-06 -2.28623e-06 0.0681176)
(1.37081e-06 5.69923e-07 0.0680839)
(3.70682e-07 1.57409e-06 0.0680835)
(-5.29282e-06 -4.97663e-06 0.0833769)
(5.54598e-07 2.21056e-06 0.0765645)
(-1.17401e-08 -4.76758e-06 0.078366)
(1.02348e-06 -1.07869e-05 0.0896345)
(5.19632e-07 1.35347e-06 0.0910946)
(2.63835e-07 1.75083e-06 0.0783373)
(1.08484e-06 1.99456e-06 0.0895965)
(-8.22996e-07 -4.62608e-06 0.0765968)
(9.54848e-07 -4.58785e-06 0.0766044)
(-2.19676e-07 2.01448e-06 0.0783445)
(-7.37597e-07 2.17557e-06 0.0896025)
(-3.47884e-07 -1.09961e-05 0.0911344)
(-3.65057e-07 2.37698e-06 0.0765712)
(1.44768e-08 -4.67411e-06 0.0783729)
(-6.343e-07 -1.07398e-05 0.0896415)
(-5.51992e-07 2.49048e-06 0.0681357)
(1.33183e-06 4.43038e-06 0.0819243)
(-5.56429e-07 -9.0024e-06 0.085565)
(9.08052e-07 -3.31754e-06 0.0681813)
(-5.50794e-08 2.27505e-06 0.0855206)
(8.31308e-07 -3.22327e-06 0.0681747)
(-4.8399e-07 2.59012e-06 0.0855123)
(-4.73789e-07 -8.29329e-06 0.0819572)
(-7.45071e-07 2.57795e-06 0.0681291)
(-8.14784e-07 -8.63946e-06 0.0855568)
(-2.96771e-07 2.20319e-06 0.0765784)
(-3.18018e-07 1.73093e-06 0.091107)
(1.12084e-08 -4.96424e-06 0.07838)
(-3.10712e-07 -1.10597e-05 0.089649)
(9.2374e-07 -4.89015e-06 0.0766117)
(-2.27605e-07 1.90258e-06 0.0783516)
(-3.57355e-07 2.02961e-06 0.0896101)
(-9.57622e-07 -4.64397e-06 0.0766036)
(2.14382e-07 1.99975e-06 0.0783446)
(7.3931e-07 2.15481e-06 0.0896035)
(3.25597e-07 -1.10235e-05 0.0911346)
(3.67302e-07 2.35545e-06 0.0765715)
(-4.10942e-08 -4.69433e-06 0.0783729)
(6.3011e-07 -1.0811e-05 0.0896415)
(5.45462e-07 2.49395e-06 0.0681384)
(-1.32613e-06 4.3078e-06 0.081924)
(5.27678e-07 -9.12485e-06 0.0855657)
(4.34997e-08 2.20218e-06 0.0855223)
(-9.07639e-07 -3.35106e-06 0.0681828)
(-7.98429e-07 -3.27924e-06 0.0681757)
(4.80534e-07 2.57134e-06 0.0855141)
(4.32158e-07 -8.32808e-06 0.0819582)
(7.36399e-07 2.58866e-06 0.0681318)
(8.16445e-07 -8.7118e-06 0.0855574)
(2.83509e-07 2.17681e-06 0.0765786)
(2.70633e-07 1.69654e-06 0.0911072)
(-7.75974e-08 -4.98684e-06 0.0783801)
(2.46054e-07 -1.11626e-05 0.0896492)
(1.86333e-07 1.88247e-06 0.0783518)
(3.25995e-07 1.95887e-06 0.089611)
(-9.5933e-07 -4.93289e-06 0.0766112)
(-2.12933e-06 2.17258e-06 0.071265)
(1.52422e-06 -3.49297e-06 0.0713006)
(5.50249e-06 -5.73966e-06 0.0833748)
(-1.90045e-06 5.43854e-07 0.0680727)
(-6.23832e-07 1.6126e-06 0.068076)
(2.02813e-06 -2.42018e-06 0.0681078)
(2.47439e-06 -2.16149e-06 0.068111)
(2.75222e-07 -7.58185e-07 0.083344)
(-9.69541e-07 2.30444e-06 0.0914278)
(9.82631e-06 -1.84262e-05 0.0961184)
(-3.00853e-06 -8.62354e-07 0.0872667)
(2.36859e-06 -7.01029e-06 0.0813111)
(-2.26781e-06 4.13378e-06 0.0960756)
(-1.90801e-06 -3.43215e-07 0.0812748)
(6.08723e-06 -1.31472e-05 0.0914637)
(-2.7001e-06 3.29568e-07 0.0914348)