/*--------------------------------*- C++ -*----------------------------------*\
| =========                 |                                                 |
| \\      /  F ield         | OpenFOAM: The Open Source CFD Toolbox           |
|  \\    /   O peration     | Version:  v2012                                 |
|   \\  /    A nd           | Website:  www.openfoam.com                      |
|    \\/     M anipulation  |                                                 |
\*---------------------------------------------------------------------------*/
FoamFile
{
    version     2.0;
    format      ascii;
    class       volScalarField;
    location    "512.5";
    object      k;
}
// * * * * * * * * * * * * * * * * * * * * * * * * * * * * * * * * * * * * * //

dimensions      [0 2 -2 0 0 0 0];


internalField   nonuniform List<scalar> 
171728
(
2.49183e-07
2.88169e-07
4.42898e-07
3.46006e-07
2.46347e-07
2.76101e-07
3.98471e-07
3.33207e-07
2.42496e-07
2.624e-07
3.67677e-07
3.20035e-07
2.38948e-07
2.49027e-07
3.47835e-07
3.04859e-07
2.35567e-07
2.36891e-07
3.03156e-07
2.87594e-07
2.32422e-07
2.25754e-07
2.58415e-07
2.66548e-07
2.29414e-07
2.15932e-07
2.39019e-07
2.49398e-07
2.26613e-07
2.07299e-07
2.37809e-07
2.37197e-07
2.24149e-07
1.99696e-07
2.51959e-07
2.2772e-07
2.21875e-07
1.93401e-07
2.77669e-07
2.21604e-07
2.19997e-07
1.87327e-07
3.03657e-07
2.18144e-07
2.18364e-07
1.79965e-07
3.09651e-07
2.13007e-07
2.16393e-07
1.72748e-07
2.68759e-07
2.02907e-07
2.13936e-07
1.66096e-07
2.0981e-07
1.89879e-07
2.11571e-07
1.61202e-07
1.69813e-07
1.79095e-07
2.10489e-07
1.59184e-07
1.65817e-07
1.75675e-07
2.10799e-07
1.6538e-07
1.7622e-07
1.77541e-07
2.12266e-07
1.80761e-07
1.90958e-07
1.93568e-07
2.12723e-07
2.10702e-07
2.23296e-07
2.28004e-07
2.10785e-07
2.56895e-07
2.74915e-07
3.58615e-07
2.07975e-07
3.53965e-07
3.53218e-07
7.59004e-07
2.06593e-07
5.29099e-07
4.82538e-07
1.50136e-06
2.06916e-07
8.26475e-07
6.16819e-07
1.31865e-06
2.08121e-07
1.03637e-06
8.51943e-07
2.04594e-06
2.10901e-07
1.71747e-06
1.24381e-06
3.45724e-06
2.16131e-07
2.53208e-06
1.61315e-06
3.97407e-06
2.23666e-07
2.25664e-06
2.14216e-06
5.77815e-06
2.35124e-07
2.71682e-06
2.79587e-06
7.33466e-06
2.54313e-07
4.05552e-06
3.46094e-06
1.01767e-05
2.75734e-07
4.98547e-06
4.39999e-06
1.28353e-05
3.1832e-07
5.3527e-06
5.53397e-06
1.45893e-05
3.49023e-07
6.41327e-06
6.35638e-06
1.70272e-05
4.34125e-07
7.83663e-06
7.8358e-06
2.04034e-05
5.39579e-07
9.18599e-06
9.48699e-06
2.17717e-05
6.23646e-07
1.02735e-05
9.94576e-06
2.28641e-05
7.94941e-07
1.24379e-05
1.2351e-05
2.49348e-05
9.92958e-07
1.41543e-05
1.4542e-05
2.77515e-05
1.31311e-06
1.48893e-05
1.5663e-05
2.76726e-05
1.39782e-06
1.7081e-05
1.62967e-05
2.8267e-05
2.10509e-06
2.01024e-05
1.91004e-05
3.13939e-05
2.51622e-06
2.15469e-05
2.20726e-05
3.23114e-05
2.55772e-06
2.20314e-05
2.21246e-05
3.25593e-05
3.80228e-06
2.25218e-05
2.3967e-05
3.38228e-05
4.31214e-06
2.69136e-05
2.68302e-05
3.54666e-05
4.7532e-06
2.95222e-05
2.7815e-05
3.66511e-05
6.68998e-06
3.01456e-05
2.96648e-05
3.72561e-05
6.99914e-06
3.05627e-05
3.14222e-05
3.81114e-05
7.79438e-06
3.27671e-05
3.25894e-05
3.95939e-05
9.99985e-06
3.41869e-05
3.44953e-05
4.05256e-05
1.06616e-05
3.55075e-05
3.4911e-05
4.11548e-05
1.18026e-05
3.7113e-05
3.71327e-05
4.25121e-05
1.41329e-05
3.7409e-05
3.86098e-05
4.31906e-05
1.46568e-05
3.97377e-05
3.87265e-05
4.39074e-05
1.70136e-05
4.09253e-05
4.07701e-05
4.52491e-05
1.85087e-05
4.10546e-05
4.15633e-05
4.55683e-05
1.93902e-05
4.22853e-05
4.21679e-05
4.63216e-05
2.1914e-05
4.40241e-05
4.36926e-05
4.75163e-05
2.27755e-05
4.42326e-05
4.44947e-05
4.7829e-05
2.45397e-05
4.54193e-05
4.48291e-05
4.84875e-05
2.58337e-05
4.58475e-05
4.66772e-05
4.94481e-05
2.74513e-05
4.74072e-05
4.69863e-05
5.00915e-05
2.86198e-05
4.77984e-05
4.74046e-05
5.00661e-05
2.99778e-05
4.83402e-05
4.89054e-05
5.143e-05
3.11775e-05
4.9111e-05
4.92911e-05
5.18217e-05
3.21944e-05
5.02063e-05
4.9834e-05
5.21759e-05
3.3628e-05
5.09442e-05
5.07698e-05
5.25439e-05
3.46092e-05
5.0963e-05
5.10465e-05
5.33751e-05
3.54991e-05
5.12524e-05
5.1946e-05
5.39442e-05
3.64717e-05
5.26484e-05
5.23946e-05
5.38747e-05
3.76934e-05
5.35772e-05
5.26449e-05
5.4598e-05
3.84982e-05
5.30954e-05
5.33583e-05
5.50351e-05
3.92024e-05
5.3034e-05
5.42252e-05
5.54814e-05
4.01734e-05
5.41228e-05
5.42009e-05
5.53772e-05
4.09749e-05
5.50723e-05
5.39592e-05
5.60586e-05
4.16591e-05
5.53729e-05
5.53166e-05
5.66399e-05
4.22566e-05
5.48808e-05
5.56648e-05
5.6604e-05
4.28363e-05
5.48505e-05
5.50318e-05
5.60668e-05
4.39564e-05
5.69193e-05
5.63152e-05
5.7807e-05
4.39327e-05
5.54832e-05
5.66928e-05
5.74987e-05
4.35891e-05
5.50309e-05
5.51274e-05
5.62443e-05
4.55699e-05
5.7891e-05
5.66573e-05
5.7816e-05
4.65794e-05
5.75303e-05
5.81177e-05
5.90719e-05
4.47177e-05
5.48266e-05
5.59322e-05
5.67846e-05
4.41317e-05
5.66151e-05
5.52908e-05
5.65895e-05
4.70021e-05
5.90343e-05
5.77886e-05
5.92116e-05
4.78428e-05
5.70914e-05
5.86781e-05
5.91575e-05
4.61208e-05
5.58268e-05
5.66993e-05
5.73148e-05
4.53635e-05
5.63804e-05
5.50447e-05
5.68767e-05
4.60237e-05
5.69692e-05
5.67278e-05
5.7843e-05
4.71763e-05
5.7591e-05
5.83785e-05
5.86193e-05
4.7506e-05
5.76825e-05
5.7502e-05
5.91209e-05
4.63291e-05
5.58556e-05
5.53623e-05
5.70717e-05
4.53719e-05
5.5192e-05
5.50967e-05
5.59903e-05
4.62676e-05
5.69061e-05
5.71683e-05
5.7905e-05
4.6946e-05
5.62663e-05
5.65292e-05
5.85115e-05
3.58952e-07
3.43655e-07
3.1967e-07
3.50737e-07
3.41794e-07
3.3284e-07
2.48772e-07
2.42266e-07
2.44646e-07
2.47409e-07
3.11173e-07
3.48056e-07
3.57104e-07
3.53705e-07
3.47592e-07
3.49529e-07
3.5639e-07
3.4094e-07
3.47019e-07
3.47914e-07
3.3617e-07
3.37754e-07
3.49624e-07
3.33074e-07
3.74182e-07
3.37865e-07
3.63544e-07
3.294e-07
3.81614e-07
2.79425e-07
3.63745e-07
3.54328e-07
3.40154e-07
6.19958e-07
4.11176e-07
5.70795e-07
3.35967e-07
3.38001e-07
3.24821e-07
3.32197e-07
3.3258e-07
3.20405e-07
3.17318e-07
3.31503e-07
3.15688e-07
3.5979e-07
3.26175e-07
3.49247e-07
3.16603e-07
3.57324e-07
2.65872e-07
3.3926e-07
3.37036e-07
3.2412e-07
5.39994e-07
3.73823e-07
4.25756e-07
3.22912e-07
3.22329e-07
3.10896e-07
3.16375e-07
3.12866e-07
3.05229e-07
3.0277e-07
3.13468e-07
2.99525e-07
3.45945e-07
3.13516e-07
3.36341e-07
3.04523e-07
3.32728e-07
2.52274e-07
3.11579e-07
3.21664e-07
3.11728e-07
3.9126e-07
3.5421e-07
3.22979e-07
3.06561e-07
3.08635e-07
2.9852e-07
3.01578e-07
3.00224e-07
2.91477e-07
2.93919e-07
2.97184e-07
2.85327e-07
3.33392e-07
3.01206e-07
3.24783e-07
2.92077e-07
3.03801e-07
2.39813e-07
2.78465e-07
3.09578e-07
2.97597e-07
3.08404e-07
3.1602e-07
2.68942e-07
2.89136e-07
2.96382e-07
2.87167e-07
2.88543e-07
2.92195e-07
2.81511e-07
2.87398e-07
2.83189e-07
2.73026e-07
3.2183e-07
2.89512e-07
3.13171e-07
2.82615e-07
2.70077e-07
2.28416e-07
2.49059e-07
2.94695e-07
2.80954e-07
2.5624e-07
2.67555e-07
2.2194e-07
2.68006e-07
2.85211e-07
2.76643e-07
2.78589e-07
2.85681e-07
2.68698e-07
2.80286e-07
2.71147e-07
2.61925e-07
3.10501e-07
2.80522e-07
3.03372e-07
2.74052e-07
2.43614e-07
2.18248e-07
2.31745e-07
2.79276e-07
2.67587e-07
2.1279e-07
2.41468e-07
1.93242e-07
2.50231e-07
2.74778e-07
2.66152e-07
2.65449e-07
2.78345e-07
2.5624e-07
2.71941e-07
2.60661e-07
2.51839e-07
3.01186e-07
2.71674e-07
2.9442e-07
2.65268e-07
2.29386e-07
2.09351e-07
2.26424e-07
2.65926e-07
2.55378e-07
1.89068e-07
2.37437e-07
1.80545e-07
2.37751e-07
2.64398e-07
2.56413e-07
2.54009e-07
2.69431e-07
2.48125e-07
2.61245e-07
2.51085e-07
2.41285e-07
2.92232e-07
2.63509e-07
2.86195e-07
2.59663e-07
2.26318e-07
2.0146e-07
2.26824e-07
2.5406e-07
2.50039e-07
1.78672e-07
2.47279e-07
1.74938e-07
2.28053e-07
2.54854e-07
2.47724e-07
2.46741e-07
2.58163e-07
2.4596e-07
2.47016e-07
2.40567e-07
2.30726e-07
2.84085e-07
2.59387e-07
2.76791e-07
2.59836e-07
2.27978e-07
1.94885e-07
2.37692e-07
2.5001e-07
2.51526e-07
1.74041e-07
2.7025e-07
1.71611e-07
2.21642e-07
2.46677e-07
2.41067e-07
2.461e-07
2.42815e-07
2.48723e-07
2.29787e-07
2.30084e-07
2.20237e-07
2.7421e-07
2.60514e-07
2.66589e-07
2.61846e-07
2.42079e-07
1.88968e-07
2.56766e-07
2.51655e-07
2.53763e-07
1.70624e-07
2.98551e-07
1.66931e-07
2.18135e-07
2.40617e-07
2.36532e-07
2.5098e-07
2.25607e-07
2.59042e-07
2.14467e-07
2.19671e-07
2.10641e-07
2.63558e-07
2.61899e-07
2.53378e-07
2.60292e-07
2.61396e-07
1.81699e-07
2.70845e-07
2.53717e-07
2.52852e-07
1.65238e-07
3.09825e-07
1.59585e-07
2.13251e-07
2.36237e-07
2.32301e-07
2.61616e-07
2.12049e-07
2.67386e-07
2.10263e-07
2.10364e-07
2.03905e-07
2.49933e-07
2.58841e-07
2.38424e-07
2.51143e-07
2.72125e-07
1.74445e-07
2.71503e-07
2.51953e-07
2.32949e-07
1.57668e-07
2.84418e-07
1.51048e-07
2.03541e-07
2.32045e-07
2.25008e-07
2.6842e-07
2.1036e-07
2.68476e-07
2.12285e-07
2.039e-07
1.9858e-07
2.33554e-07
2.47184e-07
2.18154e-07
2.34291e-07
2.67349e-07
1.67498e-07
2.46692e-07
2.31274e-07
2.1394e-07
1.49114e-07
2.23606e-07
1.43522e-07
1.90282e-07
2.24633e-07
2.16152e-07
2.66072e-07
2.12802e-07
2.50973e-07
2.13963e-07
1.98785e-07
1.93656e-07
2.14328e-07
2.30548e-07
2.11121e-07
2.2206e-07
2.40424e-07
1.61659e-07
2.25579e-07
2.12976e-07
2.00314e-07
1.41425e-07
1.76452e-07
1.37305e-07
1.78924e-07
2.16311e-07
2.12381e-07
2.46046e-07
2.15136e-07
2.33871e-07
2.11032e-07
1.9415e-07
1.91435e-07
2.11264e-07
2.20013e-07
2.13827e-07
2.17796e-07
2.2154e-07
1.5919e-07
2.15463e-07
2.00611e-07
1.98383e-07
1.37146e-07
1.6532e-07
1.37908e-07
1.74654e-07
2.13523e-07
2.18634e-07
2.30548e-07
2.08302e-07
2.27696e-07
2.12052e-07
1.92391e-07
1.93228e-07
2.16384e-07
2.1824e-07
2.41758e-07
2.22801e-07
2.15553e-07
1.62342e-07
2.1835e-07
1.99896e-07
2.01414e-07
1.37673e-07
1.72257e-07
1.3708e-07
1.74809e-07
2.229e-07
2.3892e-07
2.2851e-07
2.19459e-07
2.38879e-07
2.44295e-07
1.96704e-07
2.08358e-07
2.54185e-07
2.25334e-07
2.97054e-07
2.36589e-07
2.22419e-07
1.7519e-07
2.30809e-07
2.04286e-07
2.1429e-07
1.38676e-07
1.86194e-07
1.46245e-07
1.85546e-07
2.46152e-07
2.73657e-07
2.41506e-07
2.51882e-07
2.64635e-07
2.66949e-07
2.14588e-07
2.35641e-07
3.08532e-07
2.41101e-07
3.50545e-07
2.62243e-07
2.36764e-07
2.02499e-07
2.53471e-07
2.21013e-07
2.48426e-07
1.49387e-07
2.15492e-07
1.65514e-07
2.20837e-07
2.85419e-07
3.32337e-07
2.71916e-07
2.70625e-07
2.98641e-07
2.96454e-07
2.46943e-07
2.95709e-07
3.62692e-07
2.70443e-07
3.91556e-07
2.99603e-07
2.61137e-07
2.45353e-07
2.90737e-07
2.59458e-07
3.022e-07
1.80529e-07
2.57427e-07
3.89355e-07
3.07081e-07
3.56872e-07
4.35619e-07
3.18698e-07
3.06431e-07
3.58923e-07
3.65689e-07
3.17946e-07
4.0794e-07
4.06513e-07
3.17221e-07
4.36524e-07
3.69291e-07
3.05236e-07
3.26709e-07
4.02863e-07
3.26794e-07
4.24013e-07
4.92903e-07
3.32369e-07
8.54965e-07
6.93166e-07
4.64181e-07
6.90406e-07
3.78346e-07
3.8461e-07
4.89334e-07
4.67629e-07
4.48825e-07
6.34841e-07
4.4318e-07
3.88489e-07
5.16294e-07
4.72921e-07
4.21613e-07
4.6532e-07
5.49444e-07
4.55525e-07
6.26411e-07
9.54472e-07
4.39921e-07
1.29231e-06
1.282e-06
7.41013e-07
8.81435e-07
5.09588e-07
5.12067e-07
5.93607e-07
6.26312e-07
7.01724e-07
1.11664e-06
5.35238e-07
5.11834e-07
6.33956e-07
6.26015e-07
6.11829e-07
7.25092e-07
6.52213e-07
6.95222e-07
9.83669e-07
1.44659e-06
5.77839e-07
1.5635e-06
1.39448e-06
1.00751e-06
1.76645e-06
6.62331e-07
6.93557e-07
8.66002e-07
8.21907e-07
1.24637e-06
1.48524e-06
7.03063e-07
6.71899e-07
8.852e-07
8.37777e-07
6.49228e-07
1.02385e-06
8.09864e-07
1.07291e-06
1.52814e-06
1.50356e-06
7.98182e-07
1.34276e-06
1.53101e-06
1.85763e-06
2.27473e-06
9.07638e-07
8.24583e-07
1.10707e-06
1.00159e-06
1.47643e-06
1.93447e-06
9.15976e-07
8.92426e-07
1.10483e-06
1.10858e-06
1.01768e-06
1.36241e-06
1.23556e-06
1.65743e-06
2.27674e-06
1.40034e-06
1.13012e-06
2.05715e-06
3.44745e-06
2.50189e-06
3.58763e-06
1.19485e-06
1.32017e-06
1.54058e-06
1.97935e-06
2.76503e-06
6.69174e-06
1.19181e-06
1.20712e-06
1.51144e-06
1.52566e-06
1.24624e-06
2.47799e-06
1.4701e-06
2.50726e-06
3.69155e-06
2.18296e-06
1.50063e-06
2.32846e-06
3.59989e-06
3.89265e-06
5.19073e-06
1.66642e-06
2.00492e-06
2.02096e-06
1.89796e-06
6.75286e-06
4.45818e-06
1.63854e-06
1.6466e-06
2.00573e-06
2.0414e-06
1.66768e-06
2.35858e-06
2.04569e-06
3.96554e-06
5.2646e-06
2.34415e-06
1.98745e-06
2.35111e-06
5.61422e-06
5.50119e-06
7.20296e-06
2.15131e-06
1.89519e-06
2.58359e-06
2.58183e-06
4.28725e-06
6.27757e-06
2.14509e-06
2.16125e-06
2.5934e-06
2.61685e-06
2.12688e-06
2.38043e-06
2.53379e-06
5.61248e-06
7.13609e-06
2.36281e-06
2.6355e-06
2.64989e-06
6.84869e-06
7.65243e-06
9.53913e-06
2.74727e-06
2.85409e-06
3.35149e-06
3.14896e-06
7.44069e-06
9.62296e-06
2.76299e-06
2.77245e-06
3.32421e-06
3.28812e-06
2.74755e-06
3.6818e-06
3.37482e-06
7.52527e-06
9.39792e-06
2.78191e-06
3.1984e-06
3.30548e-06
9.67423e-06
1.00413e-05
1.22042e-05
3.60443e-06
3.39978e-06
4.23471e-06
4.48115e-06
9.82119e-06
1.31085e-05
3.55485e-06
3.5277e-06
4.18456e-06
4.19338e-06
3.59155e-06
4.90511e-06
4.30422e-06
9.90312e-06
1.2154e-05
3.51381e-06
4.23001e-06
4.29496e-06
1.23491e-05
1.27007e-05
1.45673e-05
4.42036e-06
4.68343e-06
5.20947e-06
5.10628e-06
1.3814e-05
1.44405e-05
4.40623e-06
4.43356e-06
5.23608e-06
5.23793e-06
4.46769e-06
5.1572e-06
5.07485e-06
1.26738e-05
1.4616e-05
4.49718e-06
5.23117e-06
4.94887e-06
1.41817e-05
1.50539e-05
1.65881e-05
5.45004e-06
5.29305e-06
6.11026e-06
6.09479e-06
1.46463e-05
1.67002e-05
5.45816e-06
5.46561e-06
6.03549e-06
6.12986e-06
5.36752e-06
6.04389e-06
6.09539e-06
1.50852e-05
1.67815e-05
5.18703e-06
6.11364e-06
6.09421e-06
1.64506e-05
1.70445e-05
1.91658e-05
6.44432e-06
6.54092e-06
7.55151e-06
7.56868e-06
1.72956e-05
1.94158e-05
6.37767e-06
6.41168e-06
7.55938e-06
7.51361e-06
6.37574e-06
7.52191e-06
7.55755e-06
1.72121e-05
1.90943e-05
6.46904e-06
7.49213e-06
7.55317e-06
1.97724e-05
1.97049e-05
2.14887e-05
7.8058e-06
7.83119e-06
8.88028e-06
8.84291e-06
1.99994e-05
2.10863e-05
7.80546e-06
7.82321e-06
8.84662e-06
9.03936e-06
8.06239e-06
8.8716e-06
9.28568e-06
1.97092e-05
2.16221e-05
7.98591e-06
9.11385e-06
9.23801e-06
2.15279e-05
2.18942e-05
2.29288e-05
9.37176e-06
9.16389e-06
1.02431e-05
1.00551e-05
2.13011e-05
2.29888e-05
9.32485e-06
9.47436e-06
1.02301e-05
9.94281e-06
9.42459e-06
1.00053e-05
9.70369e-06
2.19027e-05
2.22918e-05
9.41317e-06
9.8468e-06
9.79288e-06
2.25566e-05
2.33019e-05
2.45006e-05
1.04252e-05
1.02987e-05
1.15931e-05
1.19409e-05
2.35988e-05
2.46647e-05
1.04306e-05
1.00308e-05
1.15853e-05
1.15022e-05
1.0129e-05
1.18104e-05
1.15723e-05
2.25854e-05
2.48276e-05
1.02707e-05
1.15604e-05
1.12042e-05
2.43785e-05
2.48902e-05
2.64553e-05
1.20648e-05
1.25791e-05
1.33885e-05
1.37491e-05
2.50238e-05
2.68525e-05
1.20896e-05
1.23529e-05
1.33468e-05
1.43096e-05
1.19377e-05
1.36652e-05
1.37937e-05
2.54597e-05
2.68425e-05
1.16537e-05
1.41685e-05
1.41544e-05
2.73748e-05
2.68809e-05
2.77461e-05
1.3985e-05
1.41975e-05
1.55359e-05
1.46982e-05
2.70733e-05
2.67023e-05
1.38653e-05
1.45546e-05
1.53925e-05
1.48536e-05
1.44608e-05
1.48572e-05
1.58576e-05
2.70721e-05
2.76317e-05
1.49652e-05
1.53788e-05
1.56842e-05
2.76353e-05
2.79463e-05
2.85808e-05
1.56807e-05
1.47344e-05
1.60313e-05
1.61337e-05
2.67963e-05
2.92912e-05
1.56281e-05
1.51523e-05
1.62809e-05
1.66863e-05
1.59544e-05
1.58521e-05
1.59202e-05
2.79026e-05
2.85627e-05
1.56141e-05
1.61291e-05
1.53177e-05
2.78574e-05
2.89817e-05
3.08121e-05
1.65473e-05
1.73859e-05
1.91441e-05
1.96747e-05
3.01485e-05
3.10681e-05
1.67366e-05
1.69667e-05
1.89608e-05
1.81226e-05
1.59453e-05
1.95456e-05
1.81719e-05
2.88024e-05
3.01259e-05
1.54228e-05
1.81409e-05
1.95096e-05
3.07985e-05
3.11427e-05
3.14507e-05
1.99754e-05
2.01697e-05
2.09779e-05
2.12332e-05
3.11618e-05
3.18695e-05
1.97756e-05
1.89011e-05
2.08993e-05
2.13138e-05
1.94258e-05
2.14114e-05
2.15672e-05
3.06779e-05
3.21549e-05
2.09498e-05
2.16674e-05
2.26268e-05
3.2204e-05
3.1528e-05
3.21707e-05
2.0985e-05
2.13374e-05
2.1177e-05
2.195e-05
3.21663e-05
3.21506e-05
2.09263e-05
2.17998e-05
2.12186e-05
2.2101e-05
2.18262e-05
2.1961e-05
2.21414e-05
3.23342e-05
3.2257e-05
2.26524e-05
2.21676e-05
2.22828e-05
3.24097e-05
3.26226e-05
3.41256e-05
2.17573e-05
2.2221e-05
2.45863e-05
2.24961e-05
3.21715e-05
3.21798e-05
2.18367e-05
2.21258e-05
2.44846e-05
2.33009e-05
2.2394e-05
2.21861e-05
2.4075e-05
3.23417e-05
3.34339e-05
2.21138e-05
2.27897e-05
2.23431e-05
3.33886e-05
3.43333e-05
3.45603e-05
2.51942e-05
2.27611e-05
2.56884e-05
2.56508e-05
3.26491e-05
3.54764e-05
2.51477e-05
2.42614e-05
2.57588e-05
2.65136e-05
2.45705e-05
2.58197e-05
2.57257e-05
3.39571e-05
3.53838e-05
2.33449e-05
2.65876e-05
2.6699e-05
3.52004e-05
3.47167e-05
3.61778e-05
2.57493e-05
2.67221e-05
2.72155e-05
2.89807e-05
3.59912e-05
3.69882e-05
2.58199e-05
2.67196e-05
2.71874e-05
2.73401e-05
2.61582e-05
2.90722e-05
2.78872e-05
3.55259e-05
3.57397e-05
2.72586e-05
2.74263e-05
2.84773e-05
3.64126e-05
3.66416e-05
3.75278e-05
2.81346e-05
2.94979e-05
3.01547e-05
3.02777e-05
3.71604e-05
3.75589e-05
2.80732e-05
2.7734e-05
3.01097e-05
2.91422e-05
2.843e-05
3.01269e-05
2.9414e-05
3.59458e-05
3.71972e-05
2.87623e-05
2.91161e-05
2.93447e-05
3.71063e-05
3.76206e-05
3.77036e-05
3.03885e-05
3.03137e-05
3.04797e-05
3.04465e-05
3.7644e-05
3.77637e-05
3.03687e-05
2.97446e-05
3.04863e-05
3.12134e-05
2.97447e-05
3.02928e-05
3.05039e-05
3.74989e-05
3.82935e-05
2.96294e-05
3.11611e-05
3.04521e-05
3.78787e-05
3.78499e-05
3.93846e-05
3.05284e-05
3.06598e-05
3.23786e-05
3.20222e-05
3.79365e-05
3.90451e-05
3.05398e-05
3.14631e-05
3.23626e-05
3.2103e-05
3.08108e-05
3.20184e-05
3.24575e-05
3.84547e-05
3.9119e-05
3.08132e-05
3.21155e-05
3.24519e-05
3.92787e-05
3.98156e-05
4.04853e-05
3.3239e-05
3.27669e-05
3.42491e-05
3.40514e-05
3.93855e-05
4.02685e-05
3.3226e-05
3.25531e-05
3.42892e-05
3.4273e-05
3.30131e-05
3.4059e-05
3.40982e-05
3.93878e-05
4.03678e-05
3.29289e-05
3.42429e-05
3.40768e-05
4.03797e-05
4.05418e-05
4.08931e-05
3.43462e-05
3.41762e-05
3.49854e-05
3.50731e-05
4.03763e-05
4.11864e-05
3.4387e-05
3.45597e-05
3.49927e-05
3.47776e-05
3.44153e-05
3.50582e-05
3.50303e-05
4.04997e-05
4.06803e-05
3.44392e-05
3.47158e-05
3.50315e-05
4.09799e-05
4.11302e-05
4.21598e-05
3.52654e-05
3.55388e-05
3.66331e-05
3.69214e-05
4.15074e-05
4.22489e-05
3.52375e-05
3.49261e-05
3.63701e-05
3.64965e-05
3.52543e-05
3.68842e-05
3.6687e-05
4.08606e-05
4.22956e-05
3.52151e-05
3.65353e-05
3.6551e-05
4.22045e-05
4.24485e-05
4.31788e-05
3.72115e-05
3.71363e-05
3.79963e-05
3.73036e-05
4.2314e-05
4.23356e-05
3.69771e-05
3.70957e-05
3.82504e-05
3.84985e-05
3.72129e-05
3.72945e-05
3.79749e-05
4.2622e-05
4.34497e-05
3.70686e-05
3.84728e-05
3.80596e-05
4.3128e-05
4.32312e-05
4.3491e-05
3.80182e-05
3.74197e-05
3.84016e-05
3.91897e-05
4.25233e-05
4.4396e-05
3.83382e-05
3.86606e-05
3.84981e-05
3.87276e-05
3.80264e-05
3.91465e-05
3.86532e-05
4.35367e-05
4.35312e-05
3.8201e-05
3.86627e-05
3.86822e-05
4.36242e-05
4.37983e-05
4.5229e-05
3.90138e-05
3.97767e-05
4.07666e-05
4.07621e-05
4.47566e-05
4.51847e-05
3.87962e-05
3.87813e-05
4.05396e-05
4.02975e-05
3.91099e-05
4.0767e-05
4.05185e-05
4.36145e-05
4.50549e-05
3.90207e-05
4.03219e-05
4.03232e-05
4.50653e-05
4.53643e-05
4.52829e-05
4.10402e-05
4.08855e-05
4.11419e-05
4.0938e-05
4.52181e-05
4.51341e-05
4.08359e-05
4.07767e-05
4.10494e-05
4.14156e-05
4.08642e-05
4.10383e-05
4.12813e-05
4.53448e-05
4.56385e-05
4.06829e-05
4.14176e-05
4.13306e-05
4.54987e-05
4.53198e-05
4.63118e-05
4.11398e-05
4.09449e-05
4.18315e-05
4.16623e-05
4.51984e-05
4.60574e-05
4.11403e-05
4.15373e-05
4.22266e-05
4.19884e-05
4.13081e-05
4.17154e-05
4.18038e-05
4.57071e-05
4.61446e-05
4.14351e-05
4.1976e-05
4.19498e-05
4.60692e-05
4.6653e-05
4.73229e-05
4.24881e-05
4.23059e-05
4.37091e-05
4.38591e-05
4.64397e-05
4.75796e-05
4.26739e-05
4.22081e-05
4.33765e-05
4.33178e-05
4.22646e-05
4.37629e-05
4.36023e-05
4.63006e-05
4.71466e-05
4.22947e-05
4.32261e-05
4.33954e-05
4.73597e-05
4.73646e-05
4.75113e-05
4.38158e-05
4.41341e-05
4.39643e-05
4.43482e-05
4.77132e-05
4.77795e-05
4.34387e-05
4.37535e-05
4.40539e-05
4.43592e-05
4.3833e-05
4.42039e-05
4.41485e-05
4.74042e-05
4.786e-05
4.36839e-05
4.44666e-05
4.43437e-05
4.77463e-05
4.77144e-05
4.86156e-05
4.41769e-05
4.43786e-05
4.52202e-05
4.5085e-05
4.78193e-05
4.8517e-05
4.44058e-05
4.43722e-05
4.51247e-05
4.45429e-05
4.43027e-05
4.50907e-05
4.50145e-05
4.78807e-05
4.80578e-05
4.44747e-05
4.45835e-05
4.47847e-05
4.83175e-05
4.87171e-05
4.90199e-05
4.53681e-05
4.53433e-05
4.57708e-05
4.5638e-05
4.87139e-05
4.88982e-05
4.52482e-05
4.49555e-05
4.59308e-05
4.64375e-05
4.52509e-05
4.57141e-05
4.5917e-05
4.83365e-05
4.96353e-05
4.49903e-05
4.63416e-05
4.60166e-05
4.92369e-05
4.92066e-05
4.99252e-05
4.60521e-05
4.58466e-05
4.69882e-05
4.70857e-05
4.89984e-05
5.00915e-05
4.62744e-05
4.67181e-05
4.69422e-05
4.69185e-05
4.62183e-05
4.70168e-05
4.71511e-05
4.97866e-05
4.97619e-05
4.64286e-05
4.69893e-05
4.7205e-05
5.0048e-05
5.00159e-05
5.02728e-05
4.71846e-05
4.74429e-05
4.75206e-05
4.77606e-05
5.03208e-05
5.04755e-05
4.7025e-05
4.69126e-05
4.7439e-05
4.71216e-05
4.72881e-05
4.78011e-05
4.73536e-05
4.97698e-05
5.00263e-05
4.72412e-05
4.71054e-05
4.72323e-05
4.99904e-05
5.04251e-05
5.11762e-05
4.76883e-05
4.77633e-05
4.85216e-05
4.81191e-05
5.0484e-05
5.07318e-05
4.76827e-05
4.74959e-05
4.85273e-05
4.86375e-05
4.73955e-05
4.79768e-05
4.83676e-05
5.02702e-05
5.13012e-05
4.72835e-05
4.85807e-05
4.84525e-05
5.1192e-05
5.13072e-05
5.14329e-05
4.87517e-05
4.84259e-05
4.89777e-05
4.88964e-05
5.0944e-05
5.13875e-05
4.87534e-05
4.89152e-05
4.9035e-05
4.91807e-05
4.87829e-05
4.89639e-05
4.94181e-05
5.14678e-05
5.15851e-05
4.88539e-05
4.9279e-05
4.94049e-05
5.17949e-05
5.14825e-05
5.21396e-05
4.90464e-05
4.905e-05
4.9733e-05
4.99e-05
5.14853e-05
5.23457e-05
4.91013e-05
4.91934e-05
4.96725e-05
4.95625e-05
4.94551e-05
4.98852e-05
4.96346e-05
5.1599e-05
5.20071e-05
4.94316e-05
4.95131e-05
4.95858e-05
5.20126e-05
5.23511e-05
5.28514e-05
5.00636e-05
5.02402e-05
5.07394e-05
5.09116e-05
5.25684e-05
5.30223e-05
4.9972e-05
4.99014e-05
5.0733e-05
5.07026e-05
4.98937e-05
5.08772e-05
5.0382e-05
5.22391e-05
5.28223e-05
4.98415e-05
5.06549e-05
5.03506e-05
5.25082e-05
5.28869e-05
5.29611e-05
5.07989e-05
5.09675e-05
5.09067e-05
5.09713e-05
5.30513e-05
5.29608e-05
5.08407e-05
5.08209e-05
5.09541e-05
5.09433e-05
5.04635e-05
5.09587e-05
5.10328e-05
5.28661e-05
5.29338e-05
5.0424e-05
5.09126e-05
5.10121e-05
5.31335e-05
5.30891e-05
5.37572e-05
5.1059e-05
5.09802e-05
5.1801e-05
5.11855e-05
5.29842e-05
5.30908e-05
5.10444e-05
5.103e-05
5.16639e-05
5.16661e-05
5.1283e-05
5.11555e-05
5.18877e-05
5.30483e-05
5.3787e-05
5.12881e-05
5.17492e-05
5.19206e-05
5.39207e-05
5.38322e-05
5.38883e-05
5.19238e-05
5.12457e-05
5.2014e-05
5.20774e-05
5.31282e-05
5.40527e-05
5.18294e-05
5.18779e-05
5.21635e-05
5.2328e-05
5.19754e-05
5.21662e-05
5.20388e-05
5.39046e-05
5.41022e-05
5.20158e-05
5.23188e-05
5.21039e-05
5.38382e-05
5.39493e-05
5.46318e-05
5.20762e-05
5.25765e-05
5.28677e-05
5.35585e-05
5.4439e-05
5.55436e-05
5.22915e-05
5.24223e-05
5.27832e-05
5.26122e-05
5.20885e-05
5.35525e-05
5.27514e-05
5.41536e-05
5.43181e-05
5.2165e-05
5.25817e-05
5.26008e-05
5.44589e-05
5.47724e-05
5.49718e-05
5.31022e-05
5.35928e-05
5.3448e-05
5.32849e-05
5.55561e-05
5.46073e-05
5.29381e-05
5.26742e-05
5.3272e-05
5.31181e-05
5.29728e-05
5.32454e-05
5.33527e-05
5.43795e-05
5.48301e-05
5.27473e-05
5.31024e-05
5.32013e-05
5.49379e-05
5.50002e-05
5.50434e-05
5.34705e-05
5.31326e-05
5.34535e-05
5.30067e-05
5.45472e-05
5.44473e-05
5.33621e-05
5.3355e-05
5.35674e-05
5.4036e-05
5.34471e-05
5.29911e-05
5.37451e-05
5.50087e-05
5.56975e-05
5.3394e-05
5.40959e-05
5.395e-05
5.5436e-05
5.50778e-05
5.55717e-05
5.34561e-05
5.30341e-05
5.38903e-05
5.38025e-05
5.45721e-05
5.54504e-05
5.36442e-05
5.41728e-05
5.40942e-05
5.42504e-05
5.37908e-05
5.38242e-05
5.38268e-05
5.57695e-05
5.56489e-05
5.40436e-05
5.42673e-05
5.40365e-05
5.53708e-05
5.57601e-05
5.61899e-05
5.42215e-05
5.4134e-05
5.48095e-05
5.49093e-05
5.56447e-05
5.6395e-05
5.42548e-05
5.42087e-05
5.46056e-05
5.39641e-05
5.38733e-05
5.48813e-05
5.45139e-05
5.56269e-05
5.52574e-05
5.4013e-05
5.39474e-05
5.41805e-05
5.58726e-05
5.62118e-05
5.61447e-05
5.48726e-05
5.50785e-05
5.49248e-05
5.53147e-05
5.65238e-05
5.67369e-05
5.466e-05
5.39738e-05
5.47548e-05
5.48936e-05
5.47455e-05
5.53653e-05
5.52292e-05
5.52741e-05
5.64651e-05
5.44499e-05
5.49095e-05
5.5079e-05
5.6569e-05
5.61701e-05
5.62585e-05
5.4969e-05
5.53192e-05
5.49895e-05
5.50896e-05
5.67462e-05
5.61974e-05
5.48585e-05
5.52846e-05
5.51096e-05
5.56403e-05
5.53196e-05
5.51557e-05
5.53547e-05
5.67268e-05
5.70482e-05
5.52525e-05
5.56946e-05
5.54514e-05
5.66351e-05
5.62636e-05
5.66652e-05
5.49654e-05
5.48353e-05
5.51563e-05
5.47002e-05
5.60457e-05
5.57384e-05
5.5128e-05
5.56106e-05
5.53965e-05
5.51618e-05
5.52891e-05
5.46815e-05
5.49098e-05
5.69912e-05
5.60919e-05
5.54323e-05
5.50779e-05
5.50414e-05
5.60536e-05
5.69356e-05
5.79661e-05
5.55697e-05
5.49243e-05
5.65414e-05
5.67936e-05
5.60727e-05
5.85097e-05
5.56712e-05
5.51488e-05
5.63999e-05
5.59196e-05
5.49253e-05
5.67649e-05
5.61469e-05
5.60873e-05
5.73929e-05
5.50194e-05
5.56571e-05
5.57522e-05
5.75365e-05
5.79784e-05
5.63917e-05
5.6568e-05
5.68962e-05
5.58449e-05
5.60206e-05
5.85706e-05
5.65337e-05
5.64248e-05
5.63992e-05
5.58417e-05
5.66206e-05
5.65568e-05
5.62122e-05
5.66618e-05
5.77367e-05
5.79397e-05
5.63124e-05
5.68134e-05
5.6715e-05
5.77114e-05
5.61161e-05
5.58499e-05
5.53469e-05
5.53149e-05
5.49676e-05
5.48323e-05
5.61041e-05
5.55866e-05
5.53964e-05
5.64189e-05
5.50045e-05
5.51253e-05
5.63921e-05
5.48863e-05
5.53367e-05
5.76866e-05
5.58556e-05
5.66131e-05
5.52717e-05
5.55038e-05
5.62506e-05
5.62542e-05
5.91474e-05
5.51248e-05
5.50373e-05
5.7458e-05
5.76612e-05
5.60881e-05
5.94092e-05
5.51275e-05
5.5069e-05
5.73172e-05
5.61042e-05
5.52957e-05
5.73912e-05
5.6006e-05
5.58207e-05
5.76237e-05
5.53655e-05
5.5699e-05
5.56648e-05
5.74124e-05
5.94924e-05
5.94795e-05
5.8061e-05
5.81446e-05
5.83761e-05
5.81306e-05
5.96785e-05
5.88049e-05
5.79558e-05
5.70759e-05
5.83775e-05
5.82645e-05
5.67182e-05
5.79705e-05
5.77964e-05
5.81849e-05
5.96153e-05
5.63525e-05
5.8124e-05
5.78141e-05
5.90721e-05
5.90666e-05
5.56919e-05
5.80949e-05
5.75426e-05
5.53154e-05
5.48741e-05
5.82944e-05
5.51151e-05
5.81663e-05
5.82274e-05
5.55586e-05
5.63657e-05
5.77891e-05
5.51022e-05
5.64642e-05
5.95673e-05
5.68512e-05
5.78378e-05
5.66519e-05
5.68026e-05
5.71072e-05
5.53967e-05
5.59643e-05
5.47594e-05
5.46004e-05
5.46975e-05
5.5278e-05
5.49982e-05
5.73129e-05
5.4939e-05
5.56337e-05
5.4699e-05
5.50212e-05
5.58304e-05
5.53964e-05
5.53687e-05
5.64924e-05
5.59404e-05
5.61299e-05
5.52213e-05
5.54637e-05
5.62821e-05
5.66212e-05
5.98105e-05
5.53328e-05
5.66099e-05
5.83969e-05
5.90567e-05
5.81247e-05
6.07397e-05
5.51086e-05
5.51418e-05
5.80723e-05
5.73279e-05
5.55361e-05
5.89527e-05
5.77188e-05
5.62418e-05
5.87552e-05
5.55338e-05
5.71523e-05
5.72997e-05
5.89655e-05
6.00372e-05
5.95507e-05
5.88224e-05
5.91395e-05
5.88e-05
5.79653e-05
6.07477e-05
5.81282e-05
5.86012e-05
5.79649e-05
5.8821e-05
5.87645e-05
5.81788e-05
5.79174e-05
5.83793e-05
5.90733e-05
5.98927e-05
5.78409e-05
5.86751e-05
5.83106e-05
5.93256e-05
5.92246e-05
5.70809e-05
5.82711e-05
5.70895e-05
5.62792e-05
5.58028e-05
5.76844e-05
5.65247e-05
5.85798e-05
5.87553e-05
5.66146e-05
5.73624e-05
5.81737e-05
5.5876e-05
5.65812e-05
5.98992e-05
5.80091e-05
5.82633e-05
5.74748e-05
5.69848e-05
5.74818e-05
5.6929e-05
5.67692e-05
5.59625e-05
5.57546e-05
5.57899e-05
5.61576e-05
5.6572e-05
5.75109e-05
5.6149e-05
5.6595e-05
5.56353e-05
5.51076e-05
5.62424e-05
5.6162e-05
5.59136e-05
5.7632e-05
5.5773e-05
5.65153e-05
5.51312e-05
5.57676e-05
5.68302e-05
5.69228e-05
5.7823e-05
5.58942e-05
5.6425e-05
5.66263e-05
5.6892e-05
5.76676e-05
5.79883e-05
5.56482e-05
5.50381e-05
5.64926e-05
5.59285e-05
5.59284e-05
5.68263e-05
5.64778e-05
5.57388e-05
5.74791e-05
5.57436e-05
5.58469e-05
5.62453e-05
5.76513e-05
5.79746e-05
5.84515e-05
5.68341e-05
5.70092e-05
5.72441e-05
5.73632e-05
5.80519e-05
5.85504e-05
5.68452e-05
5.67913e-05
5.74805e-05
5.82389e-05
5.67328e-05
5.74148e-05
5.72887e-05
5.79854e-05
5.96778e-05
5.66688e-05
5.82537e-05
5.74665e-05
5.84913e-05
5.85613e-05
5.89662e-05
5.74256e-05
5.75194e-05
5.77242e-05
5.76693e-05
5.86931e-05
5.89171e-05
5.76496e-05
5.83471e-05
5.78196e-05
5.80193e-05
5.75083e-05
5.77509e-05
5.78738e-05
5.97501e-05
5.87802e-05
5.76811e-05
5.80967e-05
5.79377e-05
5.91192e-05
5.89603e-05
5.72754e-05
5.77083e-05
5.76086e-05
5.65704e-05
5.63432e-05
5.88167e-05
5.70889e-05
5.77564e-05
5.74173e-05
5.63419e-05
5.57481e-05
5.78605e-05
5.63251e-05
5.6639e-05
5.84629e-05
5.64834e-05
5.78979e-05
5.57623e-05
5.6461e-05
5.73542e-05
5.70262e-05
5.61309e-05
5.60287e-05
5.58982e-05
5.51982e-05
5.52533e-05
5.68798e-05
5.61886e-05
5.58454e-05
5.5371e-05
5.51328e-05
5.50401e-05
5.60252e-05
5.51761e-05
5.50223e-05
5.63016e-05
5.60584e-05
5.58918e-05
5.50021e-05
5.50116e-05
5.59745e-05
5.61617e-05
5.78397e-05
5.5202e-05
5.52692e-05
5.62286e-05
5.63918e-05
5.62464e-05
5.80149e-05
5.51462e-05
5.51391e-05
5.62776e-05
5.66893e-05
5.50146e-05
5.63609e-05
5.59835e-05
5.63057e-05
5.83013e-05
5.5013e-05
5.66851e-05
5.60462e-05
5.76024e-05
5.81463e-05
5.8681e-05
5.67917e-05
5.69167e-05
5.73437e-05
5.73908e-05
5.83169e-05
5.87241e-05
5.68303e-05
5.71662e-05
5.73975e-05
5.76484e-05
5.6573e-05
5.74131e-05
5.72872e-05
5.85669e-05
5.89641e-05
5.66046e-05
5.76645e-05
5.73274e-05
5.85802e-05
5.84744e-05
5.62205e-05
5.62268e-05
5.8458e-05
5.62805e-05
5.64947e-05
4.6929e-05
4.7224e-05
4.70001e-05
5.62965e-05
5.87446e-05
5.63503e-05
5.37149e-07
2.41643e-07
2.97051e-07
3.03511e-07
1.07962e-07
3.03824e-07
2.1014e-07
1.84239e-07
1.07169e-07
3.87625e-07
1.6061e-07
1.11111e-06
3.58707e-07
4.302e-07
2.17175e-07
3.0997e-07
5.13613e-06
2.66826e-07
6.83332e-06
1.36555e-05
2.09599e-05
3.59389e-07
5.24138e-06
3.16788e-07
6.9837e-06
2.42649e-07
2.45248e-07
2.49144e-07
2.4736e-07
2.40998e-07
2.43313e-07
2.47595e-07
1.00396e-07
5.86132e-07
1.71319e-07
2.8563e-07
1.02925e-07
5.72066e-07
1.69564e-07
1.37164e-05
2.13412e-05
1.04621e-07
1.85415e-07
1.27421e-06
4.3737e-07
1.05614e-07
1.82365e-07
1.20976e-06
1.93544e-06
1.80263e-06
3.41e-07
1.91575e-06
1.75399e-06
5.02001e-07
9.98208e-06
4.18604e-07
1.28675e-05
3.63517e-05
4.60035e-05
5.50038e-07
1.02049e-05
4.58856e-07
1.3086e-05
2.40095e-07
2.42189e-07
2.46311e-07
2.43432e-07
2.37526e-07