/*--------------------------------*- C++ -*----------------------------------*\
| =========                 |                                                 |
| \\      /  F ield         | OpenFOAM: The Open Source CFD Toolbox           |
|  \\    /   O peration     | Version:  v2012                                 |
|   \\  /    A nd           | Website:  www.openfoam.com                      |
|    \\/     M anipulation  |                                                 |
\*---------------------------------------------------------------------------*/
FoamFile
{
    version     2.0;
    format      ascii;
    class       volScalarField;
    location    "512.5";
    object      nut;
}
// * * * * * * * * * * * * * * * * * * * * * * * * * * * * * * * * * * * * * //

dimensions      [0 2 -1 0 0 0 0];


internalField   nonuniform List<scalar> 
171728
(
3.08886e-06
1.83412e-06
3.39716e-06
2.19335e-06
3.06893e-06
1.80985e-06
2.98807e-06
2.23381e-06
3.08567e-06
1.77361e-06
2.87047e-06
2.27974e-06
3.10634e-06
1.72975e-06
2.89226e-06
2.2992e-06
3.13072e-06
1.68558e-06
2.41067e-06
2.26152e-06
3.15753e-06
1.63459e-06
1.82501e-06
2.11357e-06
3.18284e-06
1.5835e-06
1.56471e-06
1.97616e-06
3.21014e-06
1.53184e-06
1.55618e-06
1.88214e-06
3.24443e-06
1.47458e-06
1.83089e-06
1.81182e-06
3.28044e-06
1.42191e-06
2.41364e-06
1.78326e-06
3.31718e-06
1.35314e-06
3.13198e-06
1.76887e-06
3.35338e-06
1.24826e-06
3.48378e-06
1.71087e-06
3.38266e-06
1.131e-06
2.79976e-06
1.55774e-06
3.39778e-06
1.00574e-06
1.71252e-06
1.33752e-06
3.39805e-06
8.93112e-07
1.04295e-06
1.1319e-06
3.42148e-06
7.85053e-07
8.99883e-07
1.00066e-06
3.48962e-06
7.29925e-07
8.7416e-07
8.85689e-07
3.58999e-06
7.21494e-07
8.40014e-07
8.37961e-07
3.65052e-06
7.72787e-07
8.91775e-07
7.70464e-07
3.6154e-06
8.45822e-07
1.00597e-06
1.12809e-06
3.51041e-06
1.1174e-06
1.21316e-06
3.18287e-06
3.40555e-06
1.73133e-06
1.68035e-06
8.50104e-06
3.35299e-06
2.9963e-06
1.94756e-06
4.87812e-06
3.21223e-06
3.18124e-06
2.67006e-06
6.35354e-06
3.04911e-06
6.21103e-06
4.15353e-06
1.3885e-05
2.91648e-06
1.21688e-05
5.23128e-06
1.26006e-05
2.71407e-06
7.5943e-06
7.05137e-06
1.91199e-05
2.52274e-06
7.95297e-06
9.26875e-06
2.19064e-05
2.44524e-06
1.44109e-05
1.12079e-05
3.18035e-05
2.33886e-06
1.87695e-05
1.46495e-05
4.06364e-05
2.45407e-06
1.79452e-05
1.90148e-05
4.30763e-05
2.29777e-06
2.12372e-05
2.07947e-05
4.92509e-05
2.74074e-06
2.68505e-05
2.67328e-05
6.32331e-05
3.31576e-06
3.16182e-05
3.38676e-05
6.58921e-05
3.44755e-06
3.38478e-05
3.1534e-05
6.60708e-05
4.20643e-06
4.3147e-05
4.17404e-05
7.27517e-05
5.23973e-06
5.02712e-05
5.23032e-05
8.70311e-05
7.25036e-06
4.85746e-05
5.48753e-05
8.25722e-05
6.24078e-06
5.5956e-05
5.22159e-05
8.10547e-05
1.15994e-05
7.17914e-05
6.4123e-05
9.6226e-05
1.36526e-05
7.74794e-05
8.0091e-05
9.93798e-05
1.10604e-05
7.43819e-05
7.36129e-05
9.75674e-05
2.03874e-05
6.90855e-05
7.91713e-05
0.000101601
2.13451e-05
9.10463e-05
9.30423e-05
0.000108569
2.11898e-05
0.000105155
9.35899e-05
0.000113343
3.67911e-05
0.000104892
0.000100609
0.000114361
3.37153e-05
0.000101727
0.000107314
0.000116542
3.54612e-05
0.000111327
0.000110354
0.000122869
5.16761e-05
0.00011626
0.000118748
0.000126234
5.11581e-05
0.000121162
0.000116246
0.000127384
5.48685e-05
0.000127832
0.000127606
0.000133362
7.0386e-05
0.000125141
0.000134093
0.000135285
6.69174e-05
0.000138027
0.000131006
0.000137219
8.19455e-05
0.000143593
0.00014188
0.000143774
8.84295e-05
0.000140652
0.000144543
0.000143715
8.84773e-05
0.00014602
0.000145295
0.00014622
0.000104915
0.000155802
0.000153438
0.000152105
0.000105421
0.00015483
0.000156248
0.000152401
0.000114627
0.000160356
0.000155916
0.000154618
0.00011967
0.000160778
0.000167149
0.000159305
0.000128437
0.000170124
0.000167006
0.000162013
0.000133075
0.000170879
0.000167476
0.000160147
0.000140167
0.000172363
0.000176587
0.000167433
0.00014585
0.000175644
0.00017741
0.000169046
0.000149901
0.000182304
0.00017965
0.000169939
0.000158937
0.000186752
0.000184764
0.00017094
0.000163848
0.000185013
0.000185184
0.000175314
0.000167755
0.000184648
0.000190776
0.000178248
0.00017287
0.000194031
0.000192854
0.000176625
0.0001807
0.0002015
0.00019302
0.000180292
0.000185258
0.000196564
0.000197414
0.00018262
0.00018837
0.000194201
0.000204019
0.00018494
0.00019456
0.000201111
0.000202915
0.000183292
0.000199833
0.000208368
0.000199456
0.00018703
0.00020388
0.000211125
0.000209776
0.000190988
0.000206514
0.00020551
0.000212682
0.000190441
0.000210595
0.000204796
0.000205962
0.000185648
0.000221649
0.000222954
0.000216851
0.000197671
0.000218356
0.000209902
0.000221072
0.00019657
0.000211003
0.000204805
0.000205732
0.000185965
0.000231884
0.00023029
0.000217612
0.000195943
0.000246775
0.000228757
0.000233393
0.000207399
0.000224231
0.000203688
0.000215226
0.000191019
0.000213197
0.000217041
0.000206841
0.000187026
0.000244129
0.000240709
0.000227134
0.000205848
0.000258608
0.00022636
0.000240127
0.000208429
0.000241071
0.000216002
0.000225546
0.000196236
0.000230713
0.000219815
0.000208521
0.000191922
0.00023619
0.00022418
0.000221246
0.000197248
0.000250672
0.000231847
0.000239358
0.000203923
0.000259591
0.000236162
0.00023529
0.000210813
0.000248443
0.000221767
0.000216973
0.000197404
0.000235515
0.000214712
0.00021336
0.000187999
0.000245935
0.000230137
0.000232132
0.000200942
0.000264475
0.000239609
0.000242368
0.00021422
2.32369e-06
2.63768e-06
2.29158e-06
2.24257e-06
2.54495e-06
2.46845e-06
3.12964e-06
2.98713e-06
3.11532e-06
2.82213e-06
2.2712e-06
2.92573e-06
2.28191e-06
2.91793e-06
2.99841e-06
2.22065e-06
2.31191e-06
2.28964e-06
2.1033e-06
2.12144e-06
2.08709e-06
2.14806e-06
2.24058e-06
2.22996e-06
2.21349e-06
1.96081e-06
2.22698e-06
1.97547e-06
2.66985e-06
1.81526e-06
2.67134e-06
2.26103e-06
2.2699e-06
4.56891e-06
3.09517e-06
5.3238e-06
2.25242e-06
2.28567e-06
2.26998e-06
2.08419e-06
2.13896e-06
2.07147e-06
2.09859e-06
2.22558e-06
2.20681e-06
2.23385e-06
1.98046e-06
2.25812e-06
1.99381e-06
2.6672e-06
1.78449e-06
2.63869e-06
2.24978e-06
2.2583e-06
5.17641e-06
2.87599e-06
3.85821e-06
2.30291e-06
2.26834e-06
2.25965e-06
2.06412e-06
2.08816e-06
2.04348e-06
2.09119e-06
2.19123e-06
2.17231e-06
2.26749e-06
1.99876e-06
2.29502e-06
2.01022e-06
2.61336e-06
1.7407e-06
2.48385e-06
2.24601e-06
2.28479e-06
3.42764e-06
2.91614e-06
2.69412e-06
2.30714e-06
2.25695e-06
2.26016e-06
2.0357e-06
2.10108e-06
2.02444e-06
2.14828e-06
2.15256e-06
2.14446e-06
2.30641e-06
2.00796e-06
2.34123e-06
2.00451e-06
2.41767e-06
1.69699e-06
2.15789e-06
2.27214e-06
2.27286e-06
2.56362e-06
2.56949e-06
2.16905e-06
2.2717e-06
2.24623e-06
2.25748e-06
2.02661e-06
2.17076e-06
2.04837e-06
2.24597e-06
2.12529e-06
2.12996e-06
2.34913e-06
2.00814e-06
2.36443e-06
2.02638e-06
2.06201e-06
1.64755e-06
1.81668e-06
2.24393e-06
2.18964e-06
2.02598e-06
1.94688e-06
1.62478e-06
2.12655e-06
2.24003e-06
2.2441e-06
2.04276e-06
2.2674e-06
1.99169e-06
2.31932e-06
2.11224e-06
2.11571e-06
2.37057e-06
2.03367e-06
2.39935e-06
2.04141e-06
1.75355e-06
1.59574e-06
1.61454e-06
2.17481e-06
2.10683e-06
1.51921e-06
1.59836e-06
1.30164e-06
1.9827e-06
2.22487e-06
2.2093e-06
1.97055e-06
2.33102e-06
1.90213e-06
2.34865e-06
2.10473e-06
2.09371e-06
2.4113e-06
2.03779e-06
2.43745e-06
2.03023e-06
1.5844e-06
1.54531e-06
1.54197e-06
2.08896e-06
2.03431e-06
1.25732e-06
1.54438e-06
1.16918e-06
1.88672e-06
2.18892e-06
2.17038e-06
1.88885e-06
2.3459e-06
1.85769e-06
2.31981e-06
2.08823e-06
2.03813e-06
2.44427e-06
2.03176e-06
2.45844e-06
2.05414e-06
1.53832e-06
1.4884e-06
1.54434e-06
2.02199e-06
2.05947e-06
1.14979e-06
1.73652e-06
1.11211e-06
1.8139e-06
2.15056e-06
2.13178e-06
1.85508e-06
2.29917e-06
1.89497e-06
2.18573e-06
2.02996e-06
1.95754e-06
2.45656e-06
2.07645e-06
2.41854e-06
2.16099e-06
1.5655e-06
1.43451e-06
1.74275e-06
2.06413e-06
2.18263e-06
1.1035e-06
2.2365e-06
1.07966e-06
1.78365e-06
2.11643e-06
2.09121e-06
1.91191e-06
2.1328e-06
1.98449e-06
1.95059e-06
1.94716e-06
1.84548e-06
2.39827e-06
2.19545e-06
2.31127e-06
2.27775e-06
1.82583e-06
1.37393e-06
2.11274e-06
2.18814e-06
2.33196e-06
1.0691e-06
2.9713e-06
1.02754e-06
1.77131e-06
2.08162e-06
2.05768e-06
2.02723e-06
1.88771e-06
2.17191e-06
1.70512e-06
1.83311e-06
1.72261e-06
2.26437e-06
2.29649e-06
2.10705e-06
2.31246e-06
2.2085e-06
1.27434e-06
2.42247e-06
2.33264e-06
2.42199e-06
1.00777e-06
3.43347e-06
9.38425e-07
1.72098e-06
2.04663e-06
2.00973e-06
2.21594e-06
1.66267e-06
2.31888e-06
1.61592e-06
1.711e-06
1.62253e-06
2.05303e-06
2.2971e-06
1.86741e-06
2.17776e-06
2.45995e-06
1.15862e-06
2.48047e-06
2.40074e-06
2.11255e-06
9.14438e-07
3.09758e-06
8.30798e-07
1.57898e-06
1.99333e-06
1.87972e-06
2.33781e-06
1.60331e-06
2.32741e-06
1.57212e-06
1.60966e-06
1.51662e-06
1.78887e-06
2.1082e-06
1.53738e-06
1.87251e-06
2.4088e-06
1.03292e-06
2.04087e-06
2.0702e-06
1.7781e-06
8.06761e-07
1.94952e-06
7.28659e-07
1.36116e-06
1.85236e-06
1.67736e-06
2.27646e-06
1.56198e-06
1.97586e-06
1.52347e-06
1.4999e-06
1.38322e-06
1.47202e-06
1.79892e-06
1.36216e-06
1.60306e-06
1.92748e-06
9.12605e-07
1.63367e-06
1.74032e-06
1.50657e-06
6.98149e-07
1.15259e-06
6.28497e-07
1.15413e-06
1.64584e-06
1.49565e-06
1.87292e-06
1.51517e-06
1.60033e-06
1.28538e-06
1.3605e-06
1.26098e-06
1.32921e-06
1.54351e-06
1.24459e-06
1.4025e-06
1.54768e-06
8.06633e-07
1.35948e-06
1.48077e-06
1.37505e-06
6.16653e-07
9.21507e-07
5.87372e-07
1.02098e-06
1.46034e-06
1.385e-06
1.50433e-06
1.1891e-06
1.33445e-06
1.09362e-06
1.23019e-06
1.12025e-06
1.2245e-06
1.36859e-06
1.35726e-06
1.29073e-06
1.32737e-06
7.30617e-07
1.23062e-06
1.3495e-06
1.24028e-06
5.71395e-07
8.72675e-07
5.24654e-07
9.00807e-07
1.36967e-06
1.3645e-06
1.2907e-06
1.14556e-06
1.24263e-06
1.29449e-06
1.10529e-06
1.08035e-06
1.4312e-06
1.27041e-06
1.69578e-06
1.22474e-06
1.24016e-06
7.1291e-07
1.17498e-06
1.21241e-06
1.15151e-06
5.09913e-07
8.46012e-07
4.44833e-07
8.31369e-07
1.35533e-06
1.36769e-06
1.20808e-06
1.31666e-06
1.22675e-06
1.26583e-06
1.07268e-06
1.06065e-06
1.74348e-06
1.20881e-06
1.91354e-06
1.20461e-06
1.16525e-06
7.61351e-07
1.11621e-06
1.14302e-06
1.17678e-06
4.21554e-07
8.85104e-07
3.69003e-07
8.01184e-07
1.37188e-06
1.43384e-06
1.22462e-06
1.22504e-06
1.19848e-06
1.20065e-06
1.06899e-06
1.16505e-06
1.94706e-06
1.20565e-06
1.89984e-06
1.21314e-06
1.11533e-06
8.37272e-07
1.10572e-06
1.17989e-06
1.22496e-06
3.92637e-07
9.54581e-07
1.28123e-06
9.40592e-07
1.49584e-06
1.66589e-06
1.2708e-06
1.1954e-06
1.31654e-06
1.35554e-06
1.21586e-06
1.43335e-06
1.92476e-06
1.26313e-06
1.85209e-06
1.37519e-06
1.11525e-06
1.04685e-06
1.53609e-06
1.29106e-06
1.59591e-06
1.82999e-06
1.15964e-06
4.25446e-06
2.88674e-06
1.69539e-06
2.61707e-06
1.34899e-06
1.38852e-06
1.76121e-06
1.59881e-06
1.55215e-06
2.1359e-06
1.77437e-06
1.40949e-06
1.90917e-06
1.64803e-06
1.60841e-06
1.45425e-06
2.20238e-06
1.65613e-06
2.18984e-06
5.03973e-06
1.5101e-06
8.06898e-06
6.63982e-06
2.74086e-06
2.63424e-06
1.78188e-06
1.78862e-06
1.90329e-06
2.2043e-06
2.33909e-06
4.13898e-06
1.91639e-06
1.78513e-06
2.1423e-06
2.12897e-06
2.50175e-06
2.54434e-06
2.27004e-06
2.41729e-06
3.36779e-06
9.72781e-06
1.87444e-06
8.85471e-06
5.97411e-06
3.05245e-06
6.62577e-06
2.17841e-06
2.46545e-06
2.96025e-06
2.60716e-06
4.68089e-06
4.4904e-06
2.4368e-06
2.27226e-06
3.12107e-06
2.79301e-06
2.09697e-06
3.40877e-06
2.48484e-06
3.60671e-06
5.07289e-06
7.48172e-06
2.52268e-06
4.63358e-06
3.97678e-06
6.75e-06
7.08912e-06
3.01121e-06
2.40082e-06
3.5471e-06
2.65053e-06
3.9777e-06
3.89539e-06
3.10296e-06
2.93278e-06
3.56573e-06
3.5427e-06
3.60286e-06
4.16711e-06
4.36503e-06
5.41579e-06
7.01307e-06
4.70686e-06
3.6998e-06
8.98445e-06
1.46419e-05
7.81269e-06
1.14071e-05
3.82039e-06
4.29224e-06
5.07273e-06
8.43511e-06
7.05263e-06
3.63956e-05
3.83456e-06
3.88056e-06
4.9153e-06
4.97227e-06
4.1691e-06
1.19548e-05
4.64617e-06
7.7311e-06
1.19933e-05
9.83803e-06
4.86453e-06
1.02169e-05
1.1226e-05
1.23907e-05
1.63712e-05
5.54717e-06
8.17444e-06
6.66055e-06
6.19264e-06
3.65306e-05
1.37528e-05
5.38513e-06
5.39886e-06
6.57702e-06
6.79753e-06
5.5491e-06
8.91535e-06
6.84224e-06
1.28105e-05
1.68754e-05
9.98618e-06
6.47146e-06
8.8568e-06
1.92348e-05
1.71454e-05
2.23951e-05
7.05372e-06
5.75056e-06
8.3403e-06
8.27881e-06
1.17442e-05
1.67651e-05
7.03589e-06
7.15227e-06
8.46959e-06
8.62697e-06
6.91602e-06
6.56584e-06
8.00609e-06
1.78992e-05
2.22353e-05
8.45548e-06
8.78246e-06
8.84315e-06
2.03959e-05
2.37755e-05
2.94364e-05
8.85689e-06
9.48143e-06
1.10593e-05
9.71788e-06
2.18415e-05
2.92274e-05
9.03022e-06
9.10026e-06
1.09451e-05
1.06889e-05
8.82513e-06
1.24373e-05
1.12145e-05
2.32416e-05
2.86233e-05
9.17078e-06
1.01875e-05
1.08651e-05
3.01954e-05
3.09658e-05
3.7942e-05
1.20806e-05
1.06522e-05
1.42754e-05
1.59328e-05
2.897e-05
4.30351e-05
1.18091e-05
1.15976e-05
1.39906e-05
1.39691e-05
1.20407e-05
1.88326e-05
1.48119e-05
3.01337e-05
3.75095e-05
1.1644e-05
1.41924e-05
1.49108e-05
3.92068e-05
3.94247e-05
4.46504e-05
1.48208e-05
1.66611e-05
1.7685e-05
1.70508e-05
4.60632e-05
4.40001e-05
1.47758e-05
1.48616e-05
1.79489e-05
1.78963e-05
1.51999e-05
1.75065e-05
1.68718e-05
3.90877e-05
4.47913e-05
1.55381e-05
1.78325e-05
1.6102e-05
4.23457e-05
4.59566e-05
4.90041e-05
1.84298e-05
1.74154e-05
2.01598e-05
1.99907e-05
4.36095e-05
4.93909e-05
1.85672e-05
1.85628e-05
1.97503e-05
2.03018e-05
1.79144e-05
1.97954e-05
1.97711e-05
4.60372e-05
5.01881e-05
1.67853e-05
2.02136e-05
1.97537e-05
4.74983e-05
5.00958e-05
5.71656e-05
2.1392e-05
2.19583e-05
2.56428e-05
2.59711e-05
5.13703e-05
5.90426e-05
2.10283e-05
2.11701e-05
2.5783e-05
2.54292e-05
2.05982e-05
2.56886e-05
2.56642e-05
5.11445e-05
5.68726e-05
2.11751e-05
2.52914e-05
2.57398e-05
6.06366e-05
5.89343e-05
6.51047e-05
2.63534e-05
2.67607e-05
3.04903e-05
3.03907e-05
6.11258e-05
6.28475e-05
2.6441e-05
2.65977e-05
3.03283e-05
3.19228e-05
2.81797e-05
3.07059e-05
3.35189e-05
5.92017e-05
6.66271e-05
2.77398e-05
3.25261e-05
3.31885e-05
6.58706e-05
6.62209e-05
6.81611e-05
3.27048e-05
3.13046e-05
3.5088e-05
3.3455e-05
6.27074e-05
6.80084e-05
3.245e-05
3.37366e-05
3.50528e-05
3.27993e-05
3.33313e-05
3.32872e-05
3.14908e-05
6.68822e-05
6.4049e-05
3.33449e-05
3.22413e-05
3.21283e-05
6.57192e-05
6.90295e-05
7.21191e-05
3.50607e-05
3.38701e-05
3.86643e-05
4.08598e-05
7.0336e-05
7.33095e-05
3.51637e-05
3.20057e-05
3.87858e-05
3.75912e-05
3.28506e-05
4.00761e-05
3.81328e-05
6.43458e-05
7.35906e-05
3.37656e-05
3.77826e-05
3.55458e-05
7.05884e-05
7.32163e-05
7.93095e-05
4.0401e-05
4.41164e-05
4.54947e-05
4.88562e-05
7.43554e-05
8.27467e-05
4.07528e-05
4.20415e-05
4.53182e-05
5.19597e-05
3.91345e-05
4.82794e-05
4.80734e-05
7.62644e-05
8.18837e-05
3.7071e-05
5.07866e-05
5.07816e-05
8.54217e-05
8.08509e-05
8.31457e-05
4.83075e-05
5.04821e-05
5.48469e-05
4.87837e-05
8.29153e-05
7.64172e-05
4.75358e-05
5.23791e-05
5.38085e-05
5.04324e-05
5.18441e-05
5.00684e-05
5.83727e-05
8.22608e-05
8.28223e-05
5.60687e-05
5.44089e-05
5.68813e-05
8.36355e-05
8.32295e-05
8.39786e-05
5.42155e-05
4.73411e-05
5.15285e-05
5.11864e-05
7.58575e-05
8.73592e-05
5.38692e-05
5.10144e-05
5.33262e-05
5.6454e-05
5.73104e-05
4.95689e-05
5.14503e-05
8.34037e-05
8.4217e-05
5.40486e-05
5.29085e-05
4.60348e-05
7.97665e-05
8.53854e-05
9.42784e-05
5.33441e-05
5.78867e-05
6.67463e-05
7.01051e-05
9.17341e-05
9.58942e-05
5.47919e-05
5.6621e-05
6.56304e-05
5.93283e-05
4.99016e-05
6.91536e-05
5.90092e-05
8.45543e-05
8.94671e-05
4.50412e-05
5.9124e-05
6.65362e-05
9.33539e-05
9.5489e-05
9.49626e-05
7.12571e-05
7.23295e-05
7.37152e-05
7.60778e-05
9.57466e-05
9.85174e-05
6.99726e-05
6.30422e-05
7.33449e-05
7.58145e-05
6.59334e-05
7.75533e-05
7.69152e-05
9.19156e-05
9.9256e-05
7.58632e-05
7.84968e-05
8.6129e-05
9.9558e-05
9.44988e-05
9.58562e-05
7.20167e-05
7.56993e-05
6.84194e-05
7.5529e-05
9.9674e-05
9.71542e-05
7.17924e-05
7.78932e-05
6.8729e-05
7.50331e-05
7.73103e-05
7.58933e-05
7.49767e-05
9.95845e-05
9.66929e-05
8.46792e-05
7.57033e-05
7.6208e-05
9.75438e-05
9.77577e-05
0.000104838
7.07495e-05
7.54565e-05
8.55511e-05
7.0997e-05
9.61298e-05
9.24028e-05
7.12898e-05
7.34305e-05
8.48213e-05
7.62841e-05
7.51501e-05
6.90242e-05
8.16375e-05
9.62671e-05
0.000100179
7.32366e-05
7.30493e-05
6.95291e-05
9.9901e-05
0.000105241
0.000104001
8.81999e-05
7.06336e-05
8.63954e-05
8.37948e-05
9.40636e-05
0.000108453
8.78543e-05
8.11503e-05
8.69441e-05
9.23224e-05
8.33935e-05
8.49472e-05
8.64454e-05
0.000102524
0.000109272
7.41348e-05
9.27149e-05
9.21e-05
0.000107677
0.000104099
0.000110891
8.51048e-05
8.96164e-05
9.04785e-05
0.000101996
0.000110983
0.000115771
8.56694e-05
9.23515e-05
9.04176e-05
9.18418e-05
8.78873e-05
0.000103015
9.54365e-05
0.000109389
0.000108435
9.47689e-05
9.25278e-05
9.96122e-05
0.000112559
0.000113101
0.000116773
9.55096e-05
0.000104585
0.000105842
0.000106837
0.000116199
0.00011698
9.52052e-05
9.29099e-05
0.000105539
9.82191e-05
9.78684e-05
0.000106049
0.000100707
0.000108863
0.000114375
0.000100362
9.81746e-05
0.000100365
0.000114205
0.000116558
0.000114752
0.000105993
0.00010585
0.000102045
0.00010233
0.000116831
0.000115475
0.000105847
0.000101045
0.000102095
0.000107221
0.000101486
0.000101384
0.000102254
0.000115548
0.000118487
0.000100809
0.000106886
0.00010203
0.000115867
0.000114899
0.000122155
0.000101021
0.000102311
0.000109526
0.000107475
0.000115765
0.000120372
0.00010112
0.000107558
0.00010947
0.000108107
0.000102937
0.000107514
0.000110123
0.00011877
0.00012096
0.000103071
0.000108277
0.00011019
0.000121591
0.000124171
0.000126711
0.000114299
0.000111252
0.000118187
0.000116454
0.000121727
0.000125157
0.000114258
0.000110021
0.000118591
0.000118385
0.00011278
0.000116601
0.000116957
0.000121973
0.000126041
0.000112318
0.000118246
0.000116922
0.000125996
0.000126413
0.000126454
0.000117652
0.000116087
0.000118107
0.000118998
0.000125197
0.000128624
0.000118121
0.000119139
0.000118324
0.000116633
0.000117896
0.00011899
0.000118399
0.000126115
0.000125033
0.000118204
0.000116229
0.000118594
0.000126971
0.000127229
0.000131856
0.000118882
0.000121288
0.000125404
0.000127676
0.000130064
0.000132616
0.000118755
0.000116326
0.000123429
0.000123895
0.000118786
0.000127502
0.000125604
0.000125432
0.000132439
0.000118675
0.000124265
0.000124619
0.000132047
0.00013305
0.000135842
0.000128484
0.000127914
0.000130789
0.000125474
0.000132206
0.000130167
0.000126702
0.000127244
0.000132623
0.000134328
0.000128342
0.000125433
0.00013065
0.000133901
0.000137445
0.000127269
0.000134209
0.00013131
0.000135537
0.000135517
0.000135308
0.000129782
0.000125221
0.000129374
0.000134885
0.00013069
0.000140936
0.000132174
0.000134397
0.000130361
0.000131878
0.000129914
0.000134466
0.000131067
0.000137363
0.000135648
0.000131269
0.000131492
0.000131542
0.000136069
0.000136605
0.000144178
0.000132759
0.000138453
0.00014292
0.000143464
0.00014276
0.000144143
0.000131522
0.000131335
0.000141214
0.000139212
0.000133325
0.00014335
0.000141044
0.000135554
0.000142826
0.000132934
0.000139405
0.000139578
0.000143106
0.000144513
0.000142472
0.000144081
0.000143414
0.000142043
0.000140706
0.000143743
0.000141525
0.000142507
0.000141895
0.000141442
0.000144269
0.000142801
0.000141478
0.000143233
0.000144164
0.000144787
0.00014138
0.000144352
0.000143534
0.000143876
0.000142115
0.000146698
0.000141136
0.000139765
0.000143636
0.000142099
0.000141344
0.000144964
0.000141245
0.000144279
0.000146579
0.000144793
0.00014249
0.000142725
0.00014338
0.000144655
0.000145823
0.000143412
0.000144746
0.000144503
0.000145193
0.000148331
0.000151417
0.000147518
0.000145887
0.000154064
0.000155061
0.000146793
0.000152801
0.000149017
0.00014559
0.000151872
0.000151494
0.000145837
0.00015461
0.000153282
0.000146276
0.00015031
0.000146124
0.000150777
0.000151878
0.00015156
0.000151201
0.000150868
0.000154141
0.000156405
0.000153319
0.00015621
0.000153195
0.000152626
0.000151631
0.000153918
0.000153908
0.000155975
0.000154312
0.00015521
0.000154639
0.000151424
0.000152978
0.000153345
0.000156805
0.000156141
0.000152409
0.000151607
0.000156062
0.000154166
0.000155852
0.000159584
0.00015871
0.000152408
0.000155451
0.000155707
0.000155294
0.00015883
0.000154441
0.00015504
0.000158763
0.000157893
0.000152597
0.000152375
0.00015635
0.000154803
0.000156252
0.000154045
0.000156242
0.000157036
0.000160003
0.000159796
0.000160986
0.000159835
0.000156184
0.000156151
0.000159094
0.000156748
0.000162185
0.000165909
0.000158888
0.000160417
0.000162014
0.000153619
0.000160966
0.000156986
0.000165184
0.000162721
0.000158375
0.00015773
0.000161259
0.000162384
0.000160742
0.000167352
0.000168177
0.000156302
0.000162351
0.000164066
0.000167462
0.000167186
0.000167125
0.000163694
0.000167783
0.000168782
0.000161543
0.000160437
0.000165248
0.000167701
0.000169272
0.000162203
0.000161398
0.000162032
0.000168195
0.000170287
0.000169045
0.000171128
0.00016345
0.000163689
0.000167201
0.000166405
0.000168434
0.00016599
0.000169142
0.000171418
0.000167687
0.00016
0.000160329
0.000168884
0.000165876
0.000166848
0.000160181
0.000162556
0.000166471
0.000169787
0.000170641
0.00017437
0.000171408
0.000163301
0.000163603
0.00016968
0.000168156
0.000174413
0.000175128
0.000167421
0.000170408
0.000172935
0.000161405
0.000167163
0.000166644
0.000174668
0.000173614
0.000166275
0.000166897
0.000166759
0.000175519
0.000172973
0.000175489
0.00017457
0.000164443
0.000166152
0.000175578
0.000176699
0.000176006
0.000177089
0.000175508
0.000175096
0.000178876
0.000167842
0.000167788
0.000176127
0.00017782
0.000178917
0.000169236
0.000166622
0.000169895
0.000175455
0.000175146
0.000179162
0.000180168
0.000166313
0.000171068
0.000175938
0.000176658
0.00017874
0.000177986
0.000178768
0.000180156
0.000178779
0.000167458
0.000169144
0.000178726
0.000177737
0.000178542
0.000169368
0.000170869
0.000173469
0.000181185
0.000182461
0.000184936
0.00018674
0.000172229
0.000175034
0.000180549
0.000180064
0.000185003
0.00018475
0.000180117
0.000186538
0.000182169
0.00017023
0.000173258
0.00017984
0.000184357
0.000181973
0.000171107
0.000173336
0.000173148
0.00018498
0.000186896
0.000184775
0.000185768
0.00017492
0.000173561
0.000185409
0.000185201
0.000185143
0.000184855
0.000182344
0.000185615
0.000185571
0.000173149
0.000172809
0.000182078
0.000184566
0.000185373
0.000174065
0.000173586
0.00017724
0.000185605
0.000185206
0.000190029
0.000184718
0.000173176
0.000172314
0.000185442
0.000185115
0.000188958
0.000188918
0.00018719
0.000184449
0.000190803
0.000173154
0.000177419
0.000187163
0.000189546
0.00019111
0.000178452
0.000177352
0.000177012
0.000190522
0.000184646
0.000189947
0.000189833
0.000172055
0.000177326
0.00018984
0.000190239
0.000191236
0.000192695
0.000191063
0.000190493
0.000190235
0.000177872
0.000178605
0.000191507
0.000192687
0.000191052
0.000176807
0.000177023
0.000181036
0.000190046
0.000193468
0.000195211
0.000201226
0.000179651
0.00018773
0.000191844
0.000193008
0.000194719
0.000193169
0.000190194
0.000201264
0.000194174
0.000178539
0.000178772
0.000191082
0.000192928
0.00019311
0.000179698
0.000181705
0.000182768
0.000196899
0.000201539
0.000199329
0.000198509
0.000187652
0.000181053
0.000195702
0.000193267
0.000197624
0.000195808
0.00019565
0.000198186
0.000198208
0.000178779
0.000181155
0.000193899
0.000195632
0.000196708
0.000182258
0.000182589
0.000182141
0.000199182
0.000196883
0.000197759
0.000194452
0.000180215
0.000178383
0.000198013
0.000197454
0.000198644
0.000202548
0.000198821
0.000194321
0.000200354
0.000182049
0.000186842
0.000198039
0.000202985
0.000201976
0.000184977
0.000182002
0.000184841
0.000197435
0.000194217
0.000199951
0.0001989
0.000178698
0.000183501
0.00019897
0.000203608
0.000201872
0.000203834
0.000200324
0.00019906
0.000199502
0.000187152
0.000186143
0.0002025
0.00020401
0.00020145
0.000183613
0.000185842
0.000188732
0.000202336
0.000201207
0.000206739
0.000207054
0.000184434
0.000189521
0.000203016
0.00020295
0.0002053
0.000199817
0.000199564
0.00020674
0.000203873
0.000185548
0.000182122
0.000200981
0.000199635
0.000201526
0.000186054
0.000188619
0.000187895
0.000207197
0.000208526
0.000207275
0.000210697
0.000190231
0.000192402
0.00020553
0.000199627
0.000205646
0.000206291
0.000205597
0.000211057
0.000209487
0.00018184
0.000189609
0.000203392
0.000206417
0.00020803
0.000190684
0.000187709
0.000187701
0.000207335
0.000210727
0.000206547
0.000207574
0.000192274
0.000187592
0.000206168
0.000209446
0.000207434
0.000212405
0.000210239
0.000208199
0.000210354
0.000191209
0.000193747
0.000209438
0.000213045
0.000211116
0.000191025
0.000187418
0.000190194
0.000206164
0.00020509
0.000207466
0.000203579
0.000186076
0.000183593
0.000207474
0.000211985
0.000209521
0.000207309
0.000209368
0.000203408
0.000205359
0.000192991
0.000186084
0.000210851
0.000206577
0.00020652
0.000185925
0.000191868
0.000200106
0.000210782
0.000205444
0.000219464
0.000221745
0.000185661
0.000204022
0.000211858
0.000207078
0.000218384
0.00021362
0.000205334
0.000221383
0.000215195
0.000185702
0.000195184
0.000206084
0.000211032
0.000211668
0.000195922
0.00020004
0.000188494
0.000219828
0.000222844
0.00021321
0.000214711
0.000204328
0.000189542
0.000218686
0.000217959
0.000213208
0.000220519
0.000218933
0.000216543
0.000220671
0.000197455
0.000200084
0.000216551
0.000222071
0.00022103
0.000198315
0.000185946
0.000182257
0.000208499
0.000208216
0.000203881
0.000202952
0.000185901
0.000180793
0.000208968
0.000218709
0.000204295
0.000205949
0.0002185
0.000203762
0.000208345
0.000197897
0.00018348
0.000220291
0.000207519
0.000209912
0.000186615
0.000184422
0.000206071
0.000204883
0.000204475
0.00022477
0.000227604
0.000183753
0.000209081
0.000205001
0.000204931
0.000223339
0.000212668
0.000207462
0.000225267
0.000212347
0.000182633
0.000194547
0.000208162
0.000209569
0.0002096
0.000193285
0.000208595
0.000212296
0.000230927
0.00023266
0.000236457
0.000234163
0.000211039
0.000207125
0.000229735
0.000221292
0.000236283
0.000234322
0.000218386
0.000232409
0.000229886
0.000198354
0.000211767
0.000215084
0.000232666
0.00022962
0.00020745
0.000209271
0.000184323
0.000234479
0.000229267
0.00021012
0.00020482
0.000203051
0.000178698
0.000235004
0.000234745
0.000212521
0.000219655
0.000230451
0.000206569
0.000219748
0.000211407
0.000192675
0.000230593
0.000221924
0.000222803
0.000193938
0.000181434
0.000182411
0.000204644
0.0002019
0.000201909
0.000206196
0.000177128
0.000191171
0.000206504
0.000212718
0.000202163
0.000205194
0.000213721
0.000207252
0.000207929
0.000189457
0.00018316
0.000216667
0.000206945
0.000209058
0.00018555
0.000186229
0.000210064
0.000206481
0.000216869
0.000232888
0.000240089
0.000196562
0.000218385
0.0002049
0.000205499
0.00022963
0.000222334
0.000208905
0.000239164
0.000227175
0.000184425
0.000201513
0.000209136
0.000220896
0.000223142
0.000204143
0.000211725
0.000211773
0.000237617
0.000241696
0.000240299
0.000233468
0.000218458
0.000202117
0.000235183
0.000228738
0.000240294
0.000239687
0.000231935
0.000232958
0.000236302
0.000203748
0.000213998
0.000228534
0.000238835
0.000235463
0.000209663
0.0002094
0.000194996
0.000236458
0.000226425
0.000220408
0.000215799
0.000198822
0.000190432
0.000239045
0.000240851
0.000223698
0.000231145
0.000235223
0.00021647
0.000222944
0.000214129
0.000202907
0.000235884
0.00023208
0.000226686
0.00019772
0.000193572
0.000191609
0.000217643
0.000215311
0.000215785
0.000218225
0.000190347
0.000196053
0.000219581
0.000224621
0.000214427
0.000209706
0.000220057
0.000218284
0.000216784
0.000199709
0.000184532
0.000222819
0.000209936
0.000215614
0.0001921
0.000192181
0.000197635
0.000216384
0.000220204
0.000221673
0.000223732
0.000196762
0.000198734
0.000214211
0.000208458
0.000220212
0.000214655
0.000216606
0.000223043
0.00022019
0.000183574
0.000194174
0.000215024
0.000213949
0.000218098
0.000196267
0.000198387
0.000203042
0.000223263
0.000224676
0.000227525
0.000229142
0.000198952
0.000204055
0.000222991
0.000221896
0.000229937
0.000237198
0.000222099
0.000229515
0.000227599
0.000197513
0.000212509
0.000221353
0.000237223
0.000229438
0.000203043
0.000203776
0.000209655
0.00023002
0.000231249
0.000235619
0.000235203
0.000205004
0.000209407
0.000232274
0.000239159
0.000236724
0.000239051
0.00023052
0.000236024
0.000237069
0.000213044
0.000209299
0.000232243
0.000239738
0.000237764
0.000210824
0.000209568
0.000198868
0.000236253
0.000235375
0.000228006
0.000225928
0.000208648
0.000197388
0.000236936
0.000234519
0.000226259
0.000220711
0.000237841
0.000225954
0.000229088
0.000206944
0.000192947
0.000238273
0.0002209
0.000227611
0.000199844
0.000196649
0.000189198
0.000223321
0.000221988
0.000215173
0.000215474
0.000195431
0.000189364
0.000221821
0.000217011
0.000214605
0.000213191
0.000223834
0.000214864
0.000214026
0.000191107
0.000187941
0.000222645
0.000212864
0.000213881
0.00018845
0.000188911
0.000201139
0.00021492
0.000215357
0.000224071
0.00022546
0.000189274
0.000202328
0.000214406
0.000213731
0.000224338
0.000227579
0.000213523
0.000225044
0.000221419
0.0001891
0.000204017
0.000213447
0.000227417
0.000221789
0.000198935
0.000203233
0.000212302
0.000229291
0.0002304
0.000240645
0.000241273
0.000204402
0.000212835
0.000229499
0.000232254
0.000241106
0.000243791
0.000226685
0.000241321
0.000239721
0.000205885
0.000214822
0.000226819
0.000243881
0.000240162
0.000211122
0.000214258
0.000238994
0.000239372
0.000214414
0.000239525
0.000242056
0.000264638
0.000268695
0.000264758
0.000239483
0.000216828
0.000240088
1.23823e-05
2.11733e-06
6.5817e-06
6.15469e-06
6.67396e-07
2.13362e-06
7.3222e-07
2.72307e-06
6.42035e-07
3.13483e-06
2.0585e-06
6.40026e-06
2.26749e-06
1.8019e-06
2.0621e-06
1.16856e-06
1.37335e-05
1.07704e-06
1.54925e-05
1.0799e-05
1.29672e-05
1.32846e-06
1.38721e-05
1.23052e-06
1.56604e-05
2.95798e-06
3.08141e-06
2.80752e-06
3.06646e-06
2.9368e-06
3.05706e-06
2.79298e-06
5.54244e-07
3.88378e-07
1.42707e-06
1.82381e-06
5.87052e-07
5.03545e-07
1.41494e-06
1.08014e-05
1.30891e-05
6.48068e-07
1.39668e-06
1.14492e-06
3.34093e-06
6.4191e-07
1.36399e-06
1.24997e-06
1.52376e-06
1.40808e-06
2.21078e-06
1.73493e-06
1.58635e-06
1.34087e-06
1.8709e-05
1.29716e-06
2.12548e-05
1.70653e-05
1.9206e-05
1.51468e-06
1.89121e-05
1.42138e-06
2.14315e-05
2.93622e-06
3.05641e-06
2.78453e-06
3.08092e-06
2.93835e-06