/*--------------------------------*- C++ -*----------------------------------*\
| =========                 |                                                 |
| \\      /  F ield         | OpenFOAM: The Open Source CFD Toolbox           |
|  \\    /   O peration     | Version:  v2012                                 |
|   \\  /    A nd           | Website:  www.openfoam.com                      |
|    \\/     M anipulation  |                                                 |
\*---------------------------------------------------------------------------*/
FoamFile
{
    version     2.0;
    format      ascii;
    class       volScalarField;
    location    "512.5";
    object      p;
}
// * * * * * * * * * * * * * * * * * * * * * * * * * * * * * * * * * * * * * //

dimensions      [0 2 -2 0 0 0 0];


internalField   nonuniform List<scalar> 
171728
(
0.00351943
0.00351836
0.00351863
0.00351924
0.00348384
0.00348234
0.00348233
0.00348528
0.00344541
0.00344353
0.00344355
0.00344589
0.00340128
0.00339957
0.0033995
0.00340185
0.00335311
0.00335168
0.0033517
0.00335403
0.00330424
0.00330296
0.00330298
0.00330533
0.00325605
0.00325484
0.00325475
0.00325727
0.00320879
0.00320773
0.00320773
0.00321011
0.00316246
0.00316155
0.00316151
0.00316393
0.0031171
0.0031163
0.00311624
0.00311867
0.00307266
0.00307195
0.00307192
0.00307435
0.00302901
0.0030285
0.00302838
0.00303081
0.00298589
0.00298535
0.00298528
0.00298779
0.00294315
0.00294276
0.00294279
0.00294514
0.0029008
0.00290052
0.00290057
0.00290279
0.00285875
0.00285839
0.0028586
0.00286068
0.00281696
0.00281674
0.00281679
0.00281895
0.00277566
0.00277553
0.00277557
0.00277779
0.00273462
0.00273454
0.00273442
0.0027365
0.00269404
0.0026939
0.002694
0.00269594
0.00265368
0.00265354
0.00265356
0.00265534
0.00261374
0.00261376
0.00261384
0.00261572
0.00257403
0.00257427
0.00257425
0.0025758
0.00253467
0.00253474
0.00253497
0.00253732
0.00249553
0.00249603
0.00249566
0.00249692
0.0024564
0.00245638
0.00245675
0.00245858
0.00241759
0.00241797
0.00241799
0.00241952
0.00237919
0.00237971
0.00237961
0.0023816
0.00234089
0.00234144
0.00234142
0.00234332
0.00230263
0.00230294
0.00230316
0.00230491
0.00226464
0.00226521
0.00226512
0.00226697
0.00222691
0.00222755
0.00222751
0.0022296
0.00218925
0.00218982
0.00218993
0.00219167
0.00215162
0.00215219
0.00215199
0.00215397
0.00211426
0.00211476
0.00211503
0.00211663
0.00207718
0.00207791
0.00207777
0.00207975
0.00203997
0.00204011
0.00204036
0.00204203
0.00200269
0.00200344
0.00200307
0.00200509
0.00196639
0.00196667
0.00196678
0.00196917
0.00192971
0.00192981
0.00193014
0.0019315
0.00189242
0.00189293
0.00189249
0.00189477
0.00185628
0.00185614
0.00185647
0.00185858
0.00182013
0.00182074
0.00182037
0.00182227
0.00178383
0.00178371
0.00178387
0.00178604
0.0017481
0.00174766
0.00174795
0.00174981
0.00171153
0.00171173
0.00171161
0.00171377
0.00167566
0.00167586
0.00167566
0.00167784
0.00164044
0.00163991
0.00164011
0.00164207
0.00160442
0.00160439
0.00160422
0.00160635
0.00156891
0.00156878
0.00156902
0.00157096
0.00153383
0.00153322
0.00153329
0.00153537
0.00149827
0.00149856
0.001498
0.00150018
0.00146327
0.00146261
0.00146314
0.00146502
0.00142809
0.0014277
0.00142768
0.00142966
0.00139293
0.00139292
0.00139263
0.00139477
0.00135811
0.00135783
0.00135785
0.00135978
0.00132309
0.00132272
0.00132287
0.00132477
0.00128852
0.00128814
0.00128802
0.00129002
0.00125332
0.00125322
0.00125343
0.00125526
0.00121893
0.00121867
0.0012184
0.00122043
0.00118411
0.00118379
0.00118389
0.00118573
0.00114955
0.00114927
0.00114949
0.00115139
0.00111484
0.00111474
0.0011145
0.00111649
0.00108038
0.00108021
0.00108017
0.00108204
0.00104598
0.00104565
0.00104571
0.00104759
0.00101124
0.00101097
0.00101109
0.00101303
0.000976897
0.000976791
0.000976836
0.000978665
0.000942224
0.000942229
0.000941964
0.000943929
0.00090802
0.000907798
0.000907758
0.000909745
0.000873517
0.000873053
0.000873478
0.00087526
0.000838833
0.000838889
0.00083884
0.000840753
0.000804363
0.00080436
0.00080407
0.000806103
0.000770092
0.000769991
0.000769787
0.000771874
0.00073538
0.000735215
0.000735604
0.000737258
0.000700732
0.000700429
0.000700586
0.000702498
0.000666027
0.000665975
0.000665688
0.000667813
0.000631977
0.000632237
0.00063182
0.000633822
0.000596389
0.000596015
0.000596739
0.000598512
0.000561407
0.000561515
0.000560861
0.000563085
0.000527973
0.000528134
0.000527736
0.000529633
0.000492943
0.00049233
0.00049324
0.00049496
0.000456364
0.000456526
0.00045635
0.000458588
0.000422088
0.000422601
0.000421864
0.000424007
0.000388944
0.000388378
0.000388708
0.000390549
0.000352999
0.00035219
0.000353121
0.00035469
0.000316534
0.000317149
0.000316563
0.000318756
0.00028142
0.000281902
0.000281098
0.000283613
0.000246718
0.000246353
0.000247152
0.000248744
0.000211806
0.000211507
0.000211764
0.000213516
0.000176381
0.00017627
0.000175674
0.000178011
0.000139852
0.000139831
0.000139924
0.000141874
0.000103833
0.00010404
0.000104321
0.000106227
6.92423e-05
6.92873e-05
6.92734e-05
7.12576e-05
3.46739e-05
3.37455e-05
3.3635e-05
3.54201e-05
5.73081e-06
6.65986e-06
6.6494e-06
4.79562e-06
0.0035239
0.00352147
0.00352143
0.00352386
0.0035215
0.00352154
0.00352783
0.00352781
0.00352789
0.00352786
0.00352144
0.00352157
0.00352396
0.00352155
0.0035217
0.00352397
0.00351911
0.00349004
0.00351835
0.00351834
0.00349196
0.00349194
0.00351909
0.00349006
0.00351837
0.00351844
0.00349196
0.00349186
0.0035184
0.00349193
0.00349199
0.00351926
0.00349008
0.00351842
0.00349233
0.00349201
0.00349008
0.00348525
0.00345137
0.00348233
0.00348238
0.0034537
0.00345368
0.00348525
0.0034514
0.00348235
0.00348232
0.00345374
0.00345366
0.00348233
0.00345369
0.00345375
0.00348525
0.00345135
0.00348244
0.00345365
0.00345386
0.00345139
0.00344583
0.00340802
0.00344348
0.00344352
0.00341111
0.00341116
0.00344586
0.00340803
0.0034435
0.00344352
0.00341113
0.00341113
0.00344352
0.00341119
0.00341117
0.00344583
0.00340803
0.00344356
0.00341112
0.00341097
0.00340801
0.00340184
0.00336047
0.00339958
0.00339961
0.00336382
0.00336387
0.00340184
0.00336047
0.00339956
0.00339955
0.00336383
0.00336384
0.00339959
0.00336381
0.00336385
0.00340185
0.00336047
0.00339972
0.00336365
0.00336375
0.00336047
0.00335401
0.00331173
0.00335167
0.00335164
0.00331506
0.0033151
0.00335399
0.00331174
0.00335169
0.00335164
0.00331506
0.00331506
0.00335163
0.00331506
0.00331509
0.003354
0.00331175
0.00335164
0.00331493
0.0033149
0.00331177
0.0033053
0.00326353
0.00330294
0.00330295
0.00326677
0.00326674
0.0033053
0.00326353
0.00330294
0.00330296
0.00326679
0.00326678
0.0033029
0.00326677
0.00326682
0.00330531
0.00326352
0.00330281
0.00326672
0.00326676
0.00326358
0.00325722
0.00321627
0.00325484
0.00325488
0.00321941
0.00321947
0.00325722
0.00321627
0.00325484
0.00325483
0.00321943
0.00321943
0.00325485
0.00321943
0.00321945
0.0032572
0.00321628
0.00325485
0.00321939
0.00321944
0.00321628
0.0032101
0.00316995
0.00320774
0.00320772
0.00317299
0.00317296
0.00321009
0.00316995
0.00320773
0.00320772
0.003173
0.00317302
0.00320773
0.003173
0.003173
0.0032101
0.00316997
0.00320774
0.00317303
0.00317302
0.00316998
0.00316391
0.00312457
0.00316154
0.00316157
0.0031275
0.00312753
0.00316391
0.00312457
0.00316154
0.00316153
0.00312748
0.0031275
0.00316155
0.00312752
0.00312753
0.00316392
0.00312457
0.00316154
0.0031275
0.00312753
0.00312458
0.00311866
0.00308011
0.00311628
0.00311635
0.00308294
0.00308307
0.00311867
0.0030801
0.00311628
0.00311628
0.00308293
0.00308294
0.0031163
0.00308298
0.00308297
0.00311867
0.00308008
0.00311628
0.00308293
0.00308296
0.00308012
0.00307434
0.00303648
0.00307195
0.00307186
0.00303924
0.00303921
0.00307428
0.00303655
0.00307197
0.00307196
0.00303923
0.0030392
0.00307196
0.00303921
0.00303924
0.0030743
0.0030364
0.00307198
0.00303917
0.00303923
0.00303648
0.0030308
0.00299336
0.00302838
0.0030284
0.0029961
0.00299618
0.00303083
0.00299339
0.00302838
0.00302839
0.0029961
0.00299608
0.00302841
0.00299615
0.00299606
0.00303072
0.00299323
0.00302841
0.0029961
0.00299606
0.00299339
0.00298776
0.00295063
0.00298545
0.00298529
0.00295346
0.00295332
0.00298772
0.00295077
0.00298546
0.00298527
0.00295347
0.00295344
0.00298548
0.00295333
0.00295349
0.00298763
0.00295064
0.00298545
0.00295339
0.00295352
0.00295072
0.00294507
0.00290831
0.00294282
0.00294271
0.00291123
0.00291098
0.00294516
0.00290843
0.00294286
0.00294277
0.00291121
0.00291103
0.00294275
0.00291101
0.00291101
0.00294503
0.0029083
0.00294275
0.00291104
0.00291096
0.00290822
0.00290277
0.00286618
0.0029005
0.0029004
0.00286911
0.0028691
0.002903
0.00286608
0.00290051
0.00290064
0.00286906
0.00286911
0.00290046
0.002869
0.00286905
0.00290285
0.00286627
0.00290035
0.00286913
0.00286904
0.0028661
0.0028607
0.00282446
0.00285854
0.00285848
0.00282715
0.00282695
0.00286073
0.00282435
0.00285847
0.00285856
0.0028272
0.00282721
0.00285844
0.00282715
0.00282743
0.00286081
0.00282443
0.00285845
0.00282724
0.00282739
0.00282429
0.00281899
0.00278315
0.00281656
0.00281647
0.00278582
0.00278584
0.00281889
0.00278293
0.00281669
0.00281683
0.00278575
0.00278578
0.00281697
0.00278578
0.00278592
0.00281905
0.00278307
0.00281694
0.00278575
0.00278581
0.00278305
0.00277784
0.00274199
0.00277546
0.00277556
0.00274486
0.00274466
0.00277763
0.00274179
0.00277538
0.00277555
0.00274486
0.00274483
0.00277579
0.00274468
0.00274479
0.00277778
0.00274185
0.00277585
0.0027448
0.0027447
0.00274166
0.00273669
0.00270109
0.00273438
0.00273459
0.00270425
0.00270399
0.00273653
0.00270111
0.00273442
0.00273448
0.00270427
0.00270413
0.00273455
0.00270397
0.00270404
0.00273658
0.00270115
0.00273459
0.00270409
0.00270395
0.0027011
0.00269599
0.00266065
0.00269409
0.00269397
0.00266373
0.00266366
0.00269591
0.00266062
0.00269407
0.00269402
0.00266371
0.00266372
0.00269412
0.00266363
0.00266358
0.00269598
0.0026606
0.0026941
0.00266369
0.00266349
0.00266073
0.00265553
0.00262059
0.00265379
0.00265361
0.00262378
0.00262385
0.00265545
0.0026206
0.00265378
0.0026536
0.00262382
0.00262375
0.00265336
0.00262382
0.00262391
0.00265544
0.00262053
0.00265329
0.00262374
0.00262383
0.00262064
0.0026155
0.00258083
0.00261376
0.00261382
0.00258407
0.00258412
0.00261546
0.00258082
0.00261376
0.00261379
0.00258411
0.00258405
0.00261397
0.0025841
0.00258406
0.00261549
0.00258092
0.00261387
0.00258399
0.00258376
0.00258104
0.00257587
0.00254143
0.00257428
0.00257427
0.00254462
0.00254461
0.00257589
0.00254151
0.00257426
0.00257422
0.00254465
0.00254461
0.00257412
0.00254459
0.00254496
0.00257587
0.00254154
0.00257389
0.00254463
0.00254515
0.00254206
0.0025364
0.00250241
0.00253482
0.00253486
0.00250559
0.00250584
0.00253641
0.00250341
0.00253477
0.0025349
0.00250561
0.00250559
0.00253512
0.00250587
0.00250549
0.00253657
0.00250241
0.00253535
0.00250545
0.00250541
0.00250208
0.00249745
0.00246342
0.00249578
0.00249605
0.00246642
0.0024662
0.00249878
0.00246324
0.00249576
0.00249586
0.0024665
0.00246643
0.00249562
0.0024661
0.00246632
0.00249746
0.00246338
0.00249554
0.00246646
0.00246646
0.00246342
0.00245843
0.00242456
0.00245665
0.00245643
0.00242756
0.00242751
0.00245788
0.00242358
0.00245673
0.00245671
0.00242759
0.00242758
0.00245662
0.00242749
0.00242756
0.0024584
0.00242462
0.00245669
0.00242763
0.00242746
0.00242447
0.00241969
0.00238636
0.00241795
0.00241796
0.00238921
0.00238928
0.00241892
0.00238723
0.00241795
0.00241796
0.00238917
0.00238915
0.00241803
0.00238934
0.00238926
0.0024197
0.00238625
0.00241786
0.00238917
0.00238919
0.00238645
0.00238143
0.00234817
0.00237962
0.00237958
0.00235092
0.00235097
0.00238224
0.00234794
0.00237959
0.00237958
0.00235092
0.00235094
0.00237966
0.00235107
0.00235087
0.00238137
0.00234822
0.00237965
0.00235095
0.00235097
0.00234824
0.00234327
0.00231001
0.00234135
0.00234145
0.00231269
0.00231262
0.00234311
0.00231009
0.00234136
0.00234138
0.00231271
0.00231272
0.00234132
0.00231249
0.00231264
0.00234331
0.00231004
0.0023414
0.00231266
0.00231264
0.00230989
0.00230505
0.00227195
0.00230315
0.00230304
0.00227462
0.00227464
0.00230507
0.00227169
0.00230317
0.00230319
0.00227461
0.00227461
0.00230309
0.00227463
0.00227467
0.00230512
0.00227192
0.00230307
0.00227463
0.00227465
0.00227187
0.00226706
0.00223421
0.00226517
0.00226521
0.0022369
0.00223695
0.00226685
0.00223435
0.00226515
0.00226515
0.0022369
0.00223688
0.00226519
0.00223694
0.00223692
0.00226701
0.00223423
0.00226519
0.0022369
0.00223696
0.00223441
0.00222934
0.00219668
0.00222748
0.00222754
0.00219928
0.00219926
0.00222945
0.00219668
0.0022275
0.00222747
0.00219928
0.00219935
0.00222763
0.00219932
0.0021993
0.00222937
0.00219673
0.00222761
0.00219937
0.00219928
0.00219665
0.00219177
0.00215892
0.00218986
0.00218978
0.00216162
0.00216158
0.00219174
0.00215883
0.00218986
0.0021899
0.0021616
0.00216152
0.00218979
0.00216153
0.00216151
0.00219178
0.00215878
0.00218979
0.00216143
0.0021615
0.00215887
0.002154
0.00212158
0.00215221
0.00215224
0.00212407
0.00212415
0.00215398
0.00212163
0.0021522
0.00215208
0.00212411
0.00212413
0.00215211
0.00212415
0.00212412
0.00215389
0.00212173
0.00215211
0.0021242
0.00212412
0.00212147
0.00211672
0.00208446
0.00211478
0.00211476
0.00208707
0.00208708
0.0021167
0.00208446
0.00211482
0.00211496
0.00208705
0.00208712
0.00211484
0.0020871
0.00208708
0.00211691
0.00208438
0.00211482
0.0020871
0.00208712
0.00208464
0.00207962
0.00204719
0.00207781
0.00207788
0.00204978
0.00204957
0.00207964
0.00204697
0.00207777
0.00207775
0.0020498
0.00204964
0.00207787
0.00204958
0.00204977
0.00207947
0.00204717
0.00207798
0.0020497
0.00204975
0.00204698
0.00204222
0.00200997
0.00204036
0.00204008
0.00201233
0.00201253
0.00204206
0.00201023
0.00204041
0.00204032
0.00201237
0.00201251
0.00204027
0.00201248
0.00201217
0.00204231
0.00201006
0.00204016
0.00201238
0.00201203
0.00200985
0.00200518
0.00197358
0.00200316
0.0020035
0.00197598
0.00197604
0.00200539
0.00197333
0.00200317
0.00200324
0.00197591
0.0019757
0.00200305
0.00197608
0.00197606
0.00200513
0.0019734
0.00200301
0.00197571
0.00197646
0.00197398
0.00196873
0.0019365
0.00196688
0.0019666
0.00193905
0.00193889
0.00196839
0.00193651
0.00196681
0.00196667
0.00193911
0.0019394
0.001967
0.00193893
0.00193924
0.00196866
0.00193694
0.00196738
0.00193959
0.001939
0.00193645
0.00193161
0.00189991
0.00192971
0.00192981
0.00190208
0.00190234
0.00193169
0.00190005
0.00192979
0.00193007
0.00190207
0.00190186
0.00192986
0.00190231
0.00190192
0.00193197
0.00189944
0.00192947
0.00190176
0.00190167
0.00189958
0.00189508
0.00186332
0.00189297
0.00189297
0.00186567
0.00186511
0.00189511
0.00186298
0.00189293
0.0018926
0.00186563
0.00186547
0.00189276
0.00186511
0.0018655
0.00189459
0.00186335
0.00189263
0.00186539
0.00186567
0.0018634
0.0018584
0.00182671
0.00185647
0.00185612
0.00182894
0.00182969
0.00185827
0.00182751
0.00185647
0.00185653
0.00182899
0.00182944
0.00185644
0.00182974
0.00182922
0.0018586
0.00182705
0.00185665
0.00182954
0.00182943
0.00182708
0.00182199
0.00179119
0.00181993
0.00182071
0.00179331
0.00179303
0.00182267
0.00179053
0.00181997
0.00182028
0.00179326
0.00179286
0.00182019
0.00179297
0.00179315
0.00182218
0.00179075
0.00182029
0.00179289
0.00179293
0.00179085
0.00178641
0.00175456
0.00178437
0.00178378
0.00175695
0.0017566
0.00178569
0.00175449
0.00178433
0.00178385
0.00175697
0.001757
0.00178411
0.00175659
0.00175681
0.001786
0.00175483
0.00178391
0.00175696
0.0017568
0.00175462
0.00174968
0.00171839
0.00174771
0.00174765
0.00172039
0.00172072
0.00174974
0.00171867
0.00174774
0.00174801
0.00172041
0.00172073
0.00174771
0.00172076
0.00172066
0.00175004
0.00171848
0.00174775
0.00172073
0.00172074
0.00171858
0.00171364
0.00168281
0.00171144
0.0017117
0.00168488
0.00168477
0.00171386
0.00168273
0.00171149
0.00171158
0.00168486
0.00168449
0.00171165
0.00168478
0.00168475
0.00171361
0.00168252
0.00171171
0.00168451
0.00168474
0.00168262
0.00167803
0.00164669
0.00167597
0.00167587
0.00164893
0.00164901
0.00167796
0.00164675
0.00167594
0.00167566
0.00164888
0.00164914
0.00167583
0.00164899
0.00164894
0.0016778
0.00164692
0.00167579
0.0016491
0.00164892
0.00164683
0.00164192
0.00161115
0.00163986
0.00163997
0.00161314
0.00161317
0.00164195
0.00161121
0.00163985
0.00164013
0.00161316
0.00161307
0.00163999
0.00161317
0.00161318
0.0016421
0.00161107
0.00164001
0.00161311
0.0016132
0.00161112
0.0016064
0.00157575
0.0016043
0.00160438
0.00157782
0.00157781
0.00160647
0.00157561
0.00160432
0.00160419
0.0015778
0.00157787
0.00160427
0.0015778
0.00157777
0.00160636
0.00157581
0.00160427
0.00157786
0.00157773
0.00157572
0.001571
0.00154009
0.00156895
0.00156878
0.00154218
0.00154196
0.0015708
0.00154001
0.00156894
0.00156904
0.0015423
0.00154223
0.00156893
0.00154197
0.0015422
0.00157104
0.00154009
0.00156891
0.00154222
0.0015423
0.00154012
0.00153533
0.00150488
0.00153325
0.00153323
0.00150689
0.00150733
0.00153535
0.00150526
0.00153339
0.0015333
0.00150674
0.00150673
0.00153328
0.00150731
0.00150691
0.00153535
0.00150479
0.00153339
0.00150675
0.00150683
0.00150488
0.00150019
0.00146981
0.00149821
0.00149856
0.00147198
0.00147156
0.00150051
0.00146943
0.00149802
0.00149796
0.00147191
0.00147185
0.0014982
0.00147159
0.00147188
0.00150006
0.00146983
0.00149807
0.00147185
0.00147183
0.00146978
0.00146504
0.00143431
0.00146304
0.00146257
0.00143625
0.00143629
0.00146468
0.00143435
0.00146312
0.00146316
0.00143644
0.00143659
0.00146299
0.00143632
0.0014364
0.00146515
0.00143446
0.00146304
0.00143658
0.00143654
0.00143439
0.0014296
0.00139954
0.00142748
0.00142767
0.00140158
0.00140171
0.00142969
0.00139963
0.00142761
0.00142765
0.00140154
0.00140136
0.00142761
0.00140168
0.00140144
0.0014297
0.00139937
0.00142772
0.00140135
0.00140142
0.00139945
0.00139488
0.00136445
0.00139296
0.00139297
0.00136666
0.00136664
0.00139491
0.00136449
0.00139286
0.00139266
0.00136647
0.00136655
0.00139276
0.00136661
0.00136666
0.00139468
0.00136447
0.00139269
0.00136653
0.00136652
0.00136451
0.0013597
0.00132941
0.00135776
0.00135782
0.00133134
0.00133139
0.00135979
0.00132936
0.00135763
0.00135783
0.00133153
0.0013316
0.00135787
0.00133145
0.00133147
0.00135976
0.00132953
0.00135779
0.00133166
0.00133163
0.00132947
0.00132472
0.00129481
0.0013227
0.00132266
0.00129692
0.00129674
0.00132463
0.00129473
0.00132292
0.00132283
0.00129687
0.00129672
0.00132275
0.00129676
0.00129677
0.00132482
0.00129467
0.00132291
0.00129665
0.0012967
0.0012947
0.00129012
0.00125989
0.00128821
0.00128814
0.00126187
0.00126203
0.00129009
0.00125993
0.00128811
0.00128809
0.00126189
0.00126211
0.00128811
0.001262
0.00126198
0.00128998
0.00126005
0.00128799
0.00126214
0.00126203
0.00125997
0.00125518
0.00122516
0.00125317
0.00125326
0.00122729
0.00122727
0.00125521
0.00122522
0.00125322
0.00125335
0.00122723
0.00122709
0.00125326
0.00122725
0.00122726
0.00125533
0.00122503
0.00125337
0.00122713
0.00122723
0.00122513
0.00122047
0.00119049
0.00121865
0.00121867
0.00119255
0.00119255
0.00122056
0.00119044
0.00121853
0.00121839
0.00119252
0.00119252
0.00121858
0.00119255
0.00119247
0.00122031
0.00119047
0.00121847
0.00119246
0.00119241
0.0011904
0.0011858
0.00115595
0.00118385
0.0011838
0.00115795
0.00115784
0.00118571
0.00115582
0.00118391
0.00118396
0.00115806
0.00115814
0.0011838
0.00115783
0.001158
0.00118584
0.00115607
0.00118381
0.00115816
0.00115813
0.00115604
0.00115126
0.00112118
0.00114931
0.00114925
0.00112327
0.00112338
0.00115119
0.00112134
0.00114937
0.00114943
0.00112322
0.00112321
0.00114941
0.00112344
0.00112335
0.00115137
0.00112114
0.00114951
0.00112325
0.00112328
0.00112122
0.00111648
0.00108679
0.0011146
0.00111472
0.00108882
0.00108885
0.00111662
0.00108678
0.00111454
0.00111449
0.00108879
0.00108875
0.00111463
0.0010888
0.00108871
0.00111642
0.00108671
0.00111455
0.00108869
0.00108868
0.00108668
0.00108215
0.00105231
0.00108027
0.00108026
0.00105438
0.00105435
0.00108213
0.00105226
0.00108024
0.00108022
0.0010544
0.00105441
0.00108016
0.00105434
0.00105432
0.00108208
0.00105234
0.00108014
0.00105443
0.00105436
0.0010523
0.00104758
0.00101757
0.00104565
0.00104564
0.00101959
0.00101954
0.00104753
0.00101755
0.00104569
0.00104568
0.00101963
0.00101962
0.00104563
0.00101958
0.00101974
0.00104761
0.0010176
0.00104567
0.00101964
0.00101976
0.00101769
0.00101291
0.000983438
0.00101103
0.00101094
0.000985459
0.000985377
0.00101289
0.0009834
0.00101104
0.00101106
0.000985413
0.000985471
0.00101119
0.000985357
0.000985406
0.00101295
0.000983463
0.00101121
0.000985511
0.000985401
0.000983365
0.000978763
0.000948681
0.000976853
0.000976823
0.000950678
0.000950874
0.000978747
0.000948809
0.0009768
0.000976842
0.000950724
0.000950698
0.000976718
0.000950873
0.000950642
0.000978765
0.000948639
0.000976691
0.000950655
0.000950628
0.000948628
0.000943969
0.000914341
0.000942006
0.000942229
0.000916376
0.000916445
0.000944097
0.000914386
0.00094205
0.000942007
0.000916325
0.000916257
0.000942012
0.000916447
0.000916417
0.000943919
0.000914262
0.000942
0.000916255
0.000916368
0.000914382
0.000909711
0.000879964
0.00090787
0.000907799
0.000882001
0.000881716
0.000909697
0.000879728
0.000907815
0.000907749
0.000882031
0.000882068
0.000907886
0.000881709
0.000881971
0.000909644
0.000880085
0.000907851
0.000882097
0.000882038
0.000879961
0.000875258
0.00084538
0.000873315
0.000873061
0.000847312
0.000847391
0.000875019
0.000845442
0.000873391
0.000873447
0.000847418
0.000847523
0.000873297
0.00084742
0.000847415
0.000875394
0.000845493
0.0008734
0.000847539
0.000847506
0.000845453
0.000840677
0.000810889
0.000838679
0.000838862
0.000812918
0.000813036
0.000840767
0.000811052
0.000838743
0.000838831
0.000812812
0.000812772
0.00083881
0.000813023
0.000812853
0.000840757
0.0008107
0.000838838
0.00081272
0.000812712
0.000810797
0.000806221
0.000776565
0.000804369
0.000804391
0.000778635
0.000778603
0.000806356
0.000776564
0.000804234
0.000804132
0.000778533
0.000778346
0.000804221
0.000778575
0.000778524
0.000806003
0.000776429
0.000804067
0.000778326
0.000778429
0.000776525
0.000771853
0.00074186
0.000769945
0.000769978
0.000743791
0.000743908
0.000771882
0.000741852
0.000769906
0.000769763
0.000743941
0.00074412
0.00076997
0.000743956
0.000743974
0.000771781
0.000742165
0.000769939
0.000744186
0.000744163
0.000742011
0.000737147
0.000707326
0.000735125
0.000735182
0.000709292
0.000709134
0.000737086
0.000707156
0.000735301
0.000735559
0.000709364
0.000709426
0.000735246
0.000709115
0.000709223
0.000737467
0.000707302
0.00073544
0.00070938
0.000709263
0.00070722
0.000702599
0.000672622
0.000700653
0.000700454
0.000674645
0.000674522
0.000702442
0.0006726
0.000700666
0.000700626
0.000674536
0.000674375
0.000700572
0.000674482
0.000674527
0.000702537
0.000672408
0.000700561
0.000674353
0.000674435
0.000672526
0.000667936
0.000638423
0.000666052
0.000666015
0.00064047
0.000640779
0.000667954
0.000638793
0.000665923
0.000665738
0.000640344
0.000640266
0.0006659
0.000640775
0.000640419
0.000667696
0.000638321
0.000665763
0.000640244
0.000640277
0.000638421
0.000633718
0.00060314
0.000631816
0.000632183
0.000605139
0.000605006
0.000634082
0.000602935
0.000631751
0.000631798
0.000605294
0.00060567
0.000631962
0.000605079
0.000605519
0.0006337
0.00060357
0.00063185
0.000605846
0.000605787
0.000603457
0.000598242
0.000568166
0.000596188
0.000595963
0.000570013
0.00056985
0.000598031
0.000568048
0.00059636
0.000596618
0.000570017
0.000569698
0.000596444
0.000569759
0.000569711
0.000598631
0.000567733
0.000596696
0.000569608
0.0005697
0.000567769
0.000563547
0.000534544
0.000561627
0.000561637
0.000536522
0.000536766
0.000563524
0.000534762
0.000561543
0.000561046
0.000536386
0.000536095
0.000561149
0.000536659
0.000536092
0.00056304
0.000534168
0.00056098
0.000535965
0.000535904
0.000534164
0.000529899
0.000499262
0.000527985
0.000528167
0.000501405
0.000501188
0.000530051
0.000499122
0.000527921
0.000527797
0.00050155
0.000502054
0.000527727
0.000501341
0.000501975
0.000529625
0.000499863
0.000527616
0.000502276
0.000502205
0.000499859
0.000494359
0.000463266
0.000492389
0.000492167
0.000465292
0.000465283
0.000494254
0.00046338
0.000492528
0.000492995
0.000465309
0.000465475
0.00049306
0.000465375
0.000465703
0.000494936
0.000463402
0.000493289
0.000465561
0.000465673
0.00046358
0.000458416
0.000429047
0.000456375
0.000456502
0.000430846
0.000431131
0.00045859
0.000429214
0.000456333
0.000456346
0.000430656
0.000430303
0.000456559
0.000430972
0.000430301
0.000458399
0.000428569
0.000456526
0.000430143
0.000430111
0.000428529
0.000424512
0.000395372
0.00042257
0.000422766
0.000397442
0.000397322
0.00042462
0.000395104
0.000422394
0.00042205
0.000397454
0.000397238
0.000422023
0.000397278
0.000397175
0.000424032
0.000395276
0.000421821
0.000397129
0.000397122
0.000395218
0.000390573
0.000359288
0.000388682
0.000388362
0.000361435
0.000361077
0.000390244
0.000358987
0.000388809
0.000388739
0.000361663
0.000362061
0.000388628
0.000361189
0.000361795
0.000390639
0.000359816
0.000388691
0.000362208
0.000362044
0.000359639
0.00035435
0.000323516
0.000352366
0.000352084
0.000325486
0.000325751
0.000354064
0.000323923
0.000352546
0.000352978
0.000325434
0.000325659
0.000352713
0.000325784
0.000325666
0.000354859
0.000323588
0.000352933
0.000325719
0.00032566
0.000323626
0.000318724
0.000288614
0.000316691
0.000317136
0.000290604
0.000290853
0.000319166
0.000288876
0.000316534
0.000316538
0.00029032
0.000289812
0.000316754
0.000290791
0.000290386
0.000318615
0.00028804
0.000316589
0.000289732
0.000290094
0.000288392
0.000283837
0.000253552
0.000281849
0.000281971
0.000255436
0.000255209
0.000284047
0.000253178
0.00028164
0.000281183
0.000255603
0.000255706
0.00028163
0.000255183
0.000255312
0.000283337
0.00025378
0.000281401
0.000255674
0.000255496
0.000253477
0.00024877
0.000218228
0.00024662
0.000246344
0.000220244
0.00022013
0.000248369
0.000218114
0.000246914
0.000247166
0.000220407
0.000220813
0.000246613
0.000220174
0.000220367
0.000249092
0.000218557
0.000246855
0.000220865
0.000220534
0.000218335
0.000213419
0.000182903
0.000211488
0.000211465
0.000185113
0.000185199
0.000213368
0.000183096
0.000211519
0.00021171
0.000184934
0.000184594
0.000211595
0.000185198
0.000185114
0.000213591
0.000182506
0.000211629
0.0001846
0.000184941
0.000182888
0.000178033
0.000146914
0.000176207
0.000176284
0.000148998
0.000149025
0.000178226
0.000146903
0.000176044
0.000175676
0.000148954
0.000148855
0.000176192
0.000148996
0.000148946
0.000177666
0.000146919
0.000176031
0.000148832
0.000148908
0.000146857
0.000141929
0.000111079
0.000139832
0.000139858
0.000112871
0.000112867
0.000141889
0.00011099
0.000139842
0.000139951
0.000112971
0.00011317
0.000139776
0.000112862
0.000112834
0.000142028
0.000111254
0.000139789
0.000113155
0.00011293
0.000111061
0.00010624
7.60011e-05
0.000104084
0.00010404
7.79425e-05
7.79002e-05
0.000106141
7.5996e-05
0.000104172
0.000104328
7.79578e-05
7.79995e-05
0.00010406
7.79235e-05
7.7999e-05
0.000106387
7.60504e-05
0.000104147
7.8009e-05
7.80126e-05
7.60646e-05
7.11901e-05
4.04243e-05
6.92665e-05
6.92505e-05
4.26841e-05
4.26922e-05
7.12214e-05
4.04737e-05
6.92532e-05
6.92346e-05
4.26214e-05
4.24877e-05
6.93285e-05
4.26991e-05
4.26954e-05
7.12066e-05
4.0293e-05
6.93173e-05
4.24834e-05
4.2621e-05
4.04142e-05
3.54241e-05
7.87805e-06
3.37302e-05
3.3752e-05
1.10145e-05
1.10608e-05
3.54572e-05
7.91462e-06
3.36975e-05
3.3644e-05
1.10305e-05
1.10665e-05
3.3763e-05
1.10874e-05
1.11969e-05
3.53329e-05
7.92925e-06
3.37314e-05
1.11148e-05
1.12376e-05
8.04197e-06
4.66834e-06
6.65505e-06
6.68158e-06
4.69928e-06
6.63274e-06
6.66226e-06
5.78074e-06
5.71434e-06
5.85776e-06
6.79692e-06
4.67887e-06
6.78841e-06
0.00353097
0.00353356
0.00353225
0.00353245
0.00355994
0.00353343
0.00356294
0.00353367
0.00356006
0.00353356
0.00353379
0.00356345
0.00354461
0.00356636
0.00356652
0.00350358
0.00351707
0.0035209
0.00349583
0.00349379
0.00349918
0.00350355
0.0035171
0.00352115
0.00349587
0.00351942
0.00351953
0.00351946
0.00349295
0.00349297
0.00349288
0.00349289
0.00350319
0.00351476
0.00352001
0.00351075
0.00352218
0.0035003
0.00351104
0.00349401
0.00349919
0.00350325
0.00352019
0.00351448
0.0035106
0.00352211
0.00351101
0.00350107
0.0035209
0.00352081
0.00350789
0.00350014
0.00350016
0.00347593
0.00349006
0.00348998
0.00347397
0.00348726
0.00347305
0.00347587
0.00349015
0.00348994
0.00347392
0.00348386
0.00348376
0.00348378
0.0034555
0.00345554
0.00345545
0.00345543
0.00347373
0.00348867
0.00348231
0.00347301
0.00348708
0.0034742
0.00347292
0.00348723
0.00347294
0.00347365
0.00348227
0.00348805
0.003473
0.00348698
0.00347287
0.00347357
0.00349028
0.00349036
0.00347141
0.00347461
0.00347457
0.00343339
0.00344815
0.00344898
0.00343203
0.003447
0.00343118
0.00343333
0.00344814
0.00344899
0.00343199
0.00344546
0.00344538
0.00344539
0.00341284
0.00341288
0.00341284
0.00341283
0.00343217
0.00344768
0.00344349
0.00343317
0.00344661
0.00343257
0.00343306
0.00344694
0.00343118
0.00343215
0.00344351
0.00344772
0.00343297
0.00344664
0.00343304
0.00343245
0.0034484
0.0034484
0.0034304
0.00343239
0.00343249
0.00338699
0.0034034
0.0034049
0.00338556
0.00340275
0.00338506
0.00338698
0.00340338
0.00340484
0.00338554
0.00340133
0.00340125
0.00340126
0.00336531
0.00336533
0.0033653
0.0033653
0.00338621
0.00340325
0.00339957
0.00338787
0.00340269
0.00338632
0.00338784
0.00340272
0.00338499
0.00338616
0.00339957
0.00340315
0.003388
0.00340265
0.00338787
0.00338619
0.00340353
0.00340348
0.00338453
0.00338569
0.00338588
0.00333803
0.00335514
0.00335646
0.00333682
0.00335475
0.00333649
0.00333803
0.00335513
0.00335644
0.00333682
0.00335311
0.00335309
0.00335311
0.0033164
0.00331642
0.00331642
0.00331642
0.00333762
0.00335519
0.00335165
0.00333947
0.00335478
0.00333751
0.00333943
0.0033547
0.0033365
0.00333762
0.00335164
0.0033553
0.00333958
0.00335477
0.00333949
0.00333725
0.00335512
0.00335479
0.00333605
0.0033369
0.00333677
0.00328889
0.00330622
0.00330723
0.00328803
0.00330594
0.00328782
0.00328891
0.0033062
0.00330718
0.00328803
0.00330425
0.00330424
0.00330424
0.00326801
0.00326802
0.00326801
0.00326802
0.00328892
0.00330629
0.00330295
0.00329082