/*--------------------------------*- C++ -*----------------------------------*\
| =========                 |                                                 |
| \\      /  F ield         | OpenFOAM: The Open Source CFD Toolbox           |
|  \\    /   O peration     | Version:  v2006                                 |
|   \\  /    A nd           | Website:  www.openfoam.com                      |
|    \\/     M anipulation  |                                                 |
\*---------------------------------------------------------------------------*/
FoamFile
{
    version     2.0;
    format      ascii;
    class       volScalarField;
    location    "125";
    object      epsilon;
}
// * * * * * * * * * * * * * * * * * * * * * * * * * * * * * * * * * * * * * //

dimensions      [0 2 -3 0 0 0 0];


internalField   nonuniform List<scalar> 
14231
(
2.30719e-07
2.71825e-07
2.30661e-07
1.96031e-07
8.75733e-06
2.27827e-06
1.84789e-06
2.07301e-07
5.75183e-07
1.89662e-05
4.20574e-06
4.20391e-06
1.8965e-05
1.8475e-06
8.75804e-06
2.07298e-07
5.7519e-07
2.27833e-06
2.26169e-05
8.75387e-06
6.38674e-06
6.35231e-06
2.26266e-05
1.25655e-05
2.2679e-06
1.14655e-05
3.02592e-06
1.14924e-05
3.00135e-06
1.25481e-05
1.89764e-05
2.60218e-06
9.97962e-07
4.18457e-06
8.67959e-06
9.91392e-07
8.67923e-06
2.62057e-06
2.59628e-06
9.97236e-07
4.18355e-06
8.67621e-06
8.67586e-06
9.90594e-07
2.61852e-06
8.84164e-06
2.2087e-05
2.20873e-05
2.20766e-05
2.20769e-05
8.89323e-06
1.8975e-05
8.7545e-06
1.2565e-05
2.26797e-06
3.02557e-06
1.1466e-05
3.0016e-06
1.14929e-05
1.25476e-05
8.12245e-07
2.73279e-07
4.01296e-07
4.01234e-07
4.0077e-07
4.00702e-07
8.17856e-07
1.89278e-07
3.9318e-07
5.40163e-07
1.84017e-06
1.16491e-06
1.15793e-06
5.38951e-07
3.93036e-07
3.17285e-07
5.73928e-07
7.09198e-07
2.91142e-07
7.05751e-07
2.9272e-07
3.16406e-07
5.39976e-07
1.8397e-06
5.38764e-07
3.17278e-07
5.73938e-07
2.91148e-07
7.09148e-07
3.16397e-07
2.92724e-07
7.05729e-07
2.71823e-07
2.30702e-07
2.30675e-07
2.71863e-07
2.28438e-07
2.28413e-07
1.96031e-07
8.75881e-06
8.75994e-06
2.29928e-06
1.8964e-05
1.89664e-05
4.20435e-06
4.20598e-06
8.75735e-06
2.27823e-06
1.84744e-06
2.07298e-07
5.7517e-07
8.75851e-06
1.84786e-06
1.89405e-05
1.89429e-05
4.22935e-06
4.23091e-06
1.86566e-06
1.86606e-06
2.04494e-07
5.78775e-07
8.76247e-06
2.26332e-05
6.41826e-06
8.76361e-06
2.2624e-05
6.45113e-06
1.24969e-05
2.31061e-06
3.05618e-06
1.14221e-05
1.25129e-05
3.08151e-06
1.13968e-05
1.8974e-05
1.89764e-05
2.59745e-06
9.97253e-07
4.18295e-06
8.67591e-06
8.67556e-06
9.90637e-07
2.61698e-06
2.60179e-06
9.979e-07
4.18455e-06
8.67976e-06
8.67941e-06
9.91322e-07
2.62081e-06
8.84126e-06
2.20871e-05
2.20866e-05
2.20767e-05
2.20762e-05
8.89278e-06
2.26149e-05
8.75382e-06
6.3883e-06
2.26246e-05
6.35344e-06
1.25649e-05
2.26788e-06
1.14658e-05
3.02571e-06
1.25476e-05
1.14925e-05
3.00132e-06
8.75498e-06
1.89316e-05
1.8934e-05
2.67304e-06
1.01153e-06
8.67622e-06
4.25033e-06
2.65347e-06
8.67741e-06
1.01838e-06
2.67714e-06
1.01223e-06
8.6801e-06
4.25201e-06
2.65792e-06
8.68133e-06
1.01907e-06
8.97518e-06
2.20882e-05
2.20877e-05
8.92802e-06
2.20981e-05
2.20976e-05
8.12226e-07
2.73275e-07
4.0123e-07
4.01284e-07
4.00704e-07
4.00754e-07
8.17825e-07
8.36686e-07
4.03704e-07
4.03756e-07
2.70544e-07
8.308e-07
4.04356e-07
4.04413e-07
1.89278e-07
1.85801e-07
1.89277e-07
1.85802e-07
3.93152e-07
5.39993e-07
1.83964e-06
1.16493e-06
5.38787e-07
1.15799e-06
3.93005e-07
3.1727e-07
5.73918e-07
7.09145e-07
2.9114e-07
7.05712e-07
2.92718e-07
3.16392e-07
5.40109e-07
1.84008e-06
5.38911e-07
3.93018e-07
5.4418e-07
1.87364e-06
5.45532e-07
3.94983e-07
5.44304e-07
1.18133e-06
1.87406e-06
1.18843e-06
3.95081e-07
5.45654e-07
3.15998e-07
5.80231e-07
7.17524e-07
2.90891e-07
7.21184e-07
3.16715e-07
2.89442e-07
2.05088e-07
2.38208e-07
2.38207e-07
2.787e-07
2.78945e-07
2.40979e-07
2.40992e-07
2.78945e-07
2.40955e-07
2.40989e-07
2.40948e-07
2.40986e-07
2.78951e-07
2.40954e-07
2.40958e-07
2.78963e-07
2.78683e-07
2.38223e-07
2.38223e-07
2.78686e-07
2.382e-07
2.38229e-07
2.38227e-07
2.78689e-07
2.38206e-07
2.08276e-07
2.08277e-07
2.08278e-07
2.08279e-07
2.21878e-06
8.74086e-06
2.18274e-06
8.74784e-06
1.90967e-05
1.90408e-05
2.21888e-06
8.7419e-06
2.18284e-06
8.74894e-06
2.05089e-07
2.05091e-07
2.05092e-07
5.66961e-07
1.76536e-06
2.16237e-07
2.35558e-07
5.63095e-07
1.79687e-06
2.13166e-07
1.90977e-05
1.90414e-05
5.66967e-07
2.1624e-07
1.76541e-06
2.35567e-07
5.63116e-07
2.13167e-07
1.79688e-06
4.0383e-06
4.03996e-06
2.75014e-07
4.10959e-06
4.11079e-06
1.91277e-05
1.91298e-05
4.01032e-06
4.01212e-06
8.73984e-06
2.16567e-06
8.73992e-06
8.73474e-06
2.1657e-06
1.7488e-06
2.194e-07
5.6112e-07
2.43856e-07
1.74925e-06
2.19402e-07
1.7197e-06
5.61129e-07
1.91299e-05
1.91974e-05
2.8322e-07
4.01238e-06
4.0103e-06
3.93884e-06
3.93816e-06
1.91284e-05
1.91961e-05
8.74093e-06
2.16577e-06
1.74919e-06
2.194e-07
5.61142e-07
8.74062e-06
2.16572e-06
2.19404e-07
1.74929e-06
5.61155e-07
5.5882e-07
2.43837e-07
1.74886e-06
2.19398e-07
1.71931e-06
2.22652e-07
5.61134e-07
2.13409e-06
8.7405e-06
8.7353e-06
2.16574e-06
5.58821e-07
2.19401e-07
1.74897e-06
2.22654e-07
5.61139e-07
2.13409e-06
8.74024e-06
2.16574e-06
1.91308e-05
4.01201e-06
4.01083e-06
1.9129e-05
2.19398e-07
1.74888e-06
5.61139e-07
2.194e-07
1.74927e-06
5.61149e-07
8.74076e-06
2.16576e-06
8.74065e-06
2.16579e-06
4.01096e-06
4.01208e-06
1.91295e-05
1.91306e-05
1.90947e-05
1.90386e-05
1.90968e-05
1.90407e-05
4.03852e-06
4.03968e-06
2.74997e-07
4.10913e-06
4.11082e-06
1.90108e-05
1.90129e-05
2.7489e-07
4.13578e-06
4.13718e-06
2.21882e-06
8.74088e-06
2.18277e-06
8.7479e-06
5.66946e-07
1.7654e-06
2.16237e-07
2.35594e-07
5.631e-07
1.7968e-06
2.13169e-07
5.66956e-07
1.76577e-06
2.16239e-07
2.35609e-07
5.63108e-07
1.79727e-06
2.13171e-07
2.23791e-06
8.74916e-06
2.23795e-06
8.74916e-06
5.69711e-07
2.33084e-07
1.8143e-06
2.10187e-07
5.69722e-07
2.33081e-07
1.8147e-06
2.10188e-07
4.03936e-06
4.03866e-06
2.74998e-07
4.11096e-06
4.10889e-06
1.90954e-05
1.90393e-05
1.90129e-05
2.74893e-07
4.13702e-06
4.13616e-06
1.90115e-05
5.66959e-07
1.76569e-06
2.16238e-07
2.35569e-07
5.63118e-07
1.7972e-06
2.13169e-07
2.21882e-06
8.74159e-06
2.18291e-06
8.74853e-06
5.66971e-07
2.1624e-07
1.76585e-06
2.35604e-07
5.63114e-07
2.13173e-07
1.79728e-06
2.23802e-06
8.75025e-06
5.69731e-07
2.3306e-07
1.81465e-06
2.10188e-07
2.23808e-06
8.74985e-06
5.69727e-07
2.33087e-07
2.10188e-07
1.81478e-06
2.21885e-06
8.74147e-06
2.18279e-06
8.74851e-06
5.66968e-07
2.16239e-07
1.76549e-06
2.35601e-07
5.63098e-07
2.13169e-07
1.79698e-06
2.21886e-06
8.74121e-06
2.1828e-06
8.74822e-06
5.69708e-07
2.3307e-07
1.81427e-06
2.10187e-07
2.23797e-06
8.74978e-06
5.69712e-07
2.33086e-07
2.10188e-07
1.8144e-06
2.23798e-06
8.74949e-06
4.04022e-06
4.03849e-06
2.75003e-07
4.11059e-06
4.1095e-06
1.90959e-05
1.90399e-05
1.90136e-05
2.74898e-07
4.13769e-06
4.13594e-06
1.90121e-05
5.66976e-07
2.16239e-07
1.76578e-06
2.35571e-07
5.63126e-07
2.13169e-07
1.79729e-06
2.21888e-06
8.74173e-06
2.18284e-06
8.74877e-06
2.21891e-06
8.74162e-06
2.18286e-06
8.74863e-06
5.69729e-07
2.33069e-07
2.1019e-07
1.81433e-06
5.6974e-07
2.33067e-07
2.10188e-07
1.81472e-06
2.23801e-06
8.75004e-06
2.23804e-06
8.7499e-06
1.90964e-05
1.90403e-05
1.90976e-05
1.90416e-05
2.74906e-07
4.13576e-06
4.13743e-06
1.90125e-05
1.90137e-05
1.26817e-05
2.20953e-06
1.16137e-05
2.91659e-06
1.16435e-05
2.89324e-06
1.26615e-05
2.25979e-05
6.13432e-06
8.74361e-06
2.25884e-05
6.17559e-06
1.27247e-05
2.19142e-06
1.17235e-05
2.84053e-06
1.27465e-05
1.16923e-05
2.8632e-06
2.25969e-05
6.25082e-06
8.74479e-06
6.21162e-06
2.26067e-05
1.90833e-05
1.90529e-05
1.26819e-05
2.20964e-06
2.91681e-06
1.1614e-05
2.89324e-06
1.16439e-05
1.26618e-05
2.25982e-05
6.13446e-06
8.7447e-06
2.25888e-05
6.17588e-06
1.27249e-05
2.19153e-06
2.84057e-06
1.17239e-05
1.27467e-05
2.86338e-06
1.16926e-05
2.25973e-05
6.25111e-06
8.74584e-06
6.21176e-06
2.2607e-05
1.90839e-05
1.90537e-05
8.64498e-06
2.20637e-05
2.20632e-05
2.20529e-05
2.20525e-05
8.70569e-06
2.44857e-06
9.3293e-07
8.68519e-06
4.06069e-06
2.4304e-06
9.38667e-07
8.68347e-06
2.45251e-06
9.33463e-07
8.68875e-06
4.06184e-06
2.43387e-06
9.39234e-07
8.68702e-06
8.59944e-06
2.20412e-05
2.20409e-05
8.53377e-06
2.20516e-05
2.20512e-05
2.48596e-06
8.67891e-06
4.08745e-06
9.57386e-07
9.51369e-07
8.67991e-06
2.50429e-06
2.48934e-06
8.68249e-06
4.08912e-06
9.57987e-07
9.51933e-07
8.68349e-06
2.50874e-06
1.91428e-05
1.91448e-05
2.37532e-06
9.20756e-07
3.98865e-06
8.69005e-06
8.69252e-06
9.15247e-07
2.3935e-06
2.37876e-06
9.21284e-07
3.98976e-06
8.69382e-06
8.6963e-06
9.1581e-07
2.39687e-06
8.41299e-06
2.20397e-05
2.20394e-05
2.20304e-05
2.20301e-05
8.48348e-06
2.25811e-05
8.73746e-06
6.09595e-06
2.25899e-05
6.05273e-06
1.28157e-05
2.15758e-06
1.17739e-05
2.8108e-06
1.27921e-05
1.18065e-05
2.78894e-06
2.25836e-05
8.73749e-06
6.09467e-06
6.05167e-06
2.25923e-05
2.2586e-05
5.96588e-06
8.73673e-06
2.25783e-05
6.01068e-06
1.28162e-05
2.15761e-06
1.17737e-05
2.81101e-06
1.18064e-05
2.78903e-06
1.27927e-05
1.91448e-05
1.91809e-05
8.35959e-06
2.20218e-05
2.20219e-05
8.28391e-06
2.203e-05
2.20301e-05
2.37894e-06
9.21346e-07
3.98942e-06
8.69368e-06
9.15859e-07
8.69613e-06
2.39693e-06
2.37501e-06
9.20752e-07
3.98873e-06
8.69036e-06
8.69284e-06
9.15251e-07
2.39406e-06
2.34242e-06
8.70596e-06
8.99148e-07
3.96192e-06
9.0434e-07
2.32475e-06
8.70271e-06
2.33937e-06
8.70269e-06
8.98571e-07
3.95988e-06
2.32122e-06
8.69941e-06
9.03775e-07
8.41323e-06
2.20398e-05
2.20399e-05
2.20305e-05
2.20306e-05
8.48407e-06
1.91434e-05
1.91795e-05
2.25815e-05
8.7385e-06
6.09624e-06
2.25903e-05
6.05287e-06
1.2816e-05
2.15768e-06
2.81096e-06
1.17742e-05
1.27923e-05
2.78899e-06
1.18069e-05
2.25832e-05
8.7382e-06
6.09458e-06
6.05145e-06
2.25919e-05
1.28164e-05
2.15776e-06
1.17743e-05
2.81056e-06
1.18067e-05
2.78958e-06
1.27929e-05
1.28639e-05
2.73906e-06
1.18927e-05
2.14161e-06
1.28893e-05
2.75916e-06
1.18586e-05
2.25811e-05
8.73807e-06
6.09518e-06
6.05337e-06
2.25901e-05
2.25837e-05
5.96755e-06
8.73729e-06
2.25757e-05
6.01111e-06
1.28157e-05
2.15763e-06
2.8104e-06
1.17742e-05
2.78936e-06
1.18069e-05
1.27922e-05
1.28642e-05
1.18924e-05
2.7387e-06
2.14161e-06
1.28899e-05
1.18582e-05
2.75973e-06
2.25834e-05
8.73783e-06
6.09459e-06
6.0513e-06
2.25921e-05
2.25857e-05
8.73706e-06
6.01058e-06
1.28163e-05
2.15763e-06
1.17738e-05
2.81095e-06
1.18066e-05
2.789e-06
1.27925e-05
1.91457e-05
2.37885e-06
9.21369e-07
3.99015e-06
8.69376e-06
9.15867e-07
8.69623e-06
2.39704e-06
2.37539e-06
9.20749e-07
3.98859e-06
8.69011e-06
8.6926e-06
9.15293e-07
2.39349e-06
8.41332e-06
2.20397e-05
2.20399e-05
2.20303e-05
2.20305e-05
8.48389e-06
1.91439e-05
2.25811e-05
8.73833e-06
6.09519e-06
6.05346e-06
2.25901e-05
1.28157e-05
2.15767e-06
2.81041e-06
1.17742e-05
2.78942e-06
1.18069e-05
1.27922e-05
2.25833e-05
8.73823e-06
6.09471e-06
6.05144e-06
2.2592e-05
1.28165e-05
2.1577e-06
2.81107e-06
1.17741e-05
2.78908e-06
1.18069e-05
1.27927e-05
8.35968e-06
2.20307e-05
2.203e-05
2.37557e-06
9.2081e-07
3.98841e-06
8.69023e-06
2.39343e-06
9.15361e-07
8.69275e-06
2.3789e-06
9.21342e-07
3.99004e-06
8.69376e-06
2.39702e-06
9.15862e-07
8.69625e-06
2.33907e-06
3.96052e-06
9.03834e-07
8.69927e-06
8.41373e-06
2.20405e-05
2.20398e-05
8.48424e-06
2.20311e-05
2.20305e-05
1.91444e-05
1.91805e-05
1.91456e-05
1.90811e-05
1.90509e-05
1.90832e-05
1.90529e-05
8.64422e-06
2.20632e-05
2.20627e-05
2.20525e-05
2.20521e-05
8.70507e-06
2.44879e-06
9.3282e-07
8.68501e-06
4.06011e-06
2.43013e-06
8.68331e-06
9.38615e-07
2.45219e-06
9.33408e-07
8.68881e-06
4.06187e-06
2.43383e-06
8.68708e-06
9.39171e-07
8.59872e-06
2.20408e-05
2.20404e-05
8.53312e-06
2.20511e-05
2.20507e-05
2.48555e-06
8.67876e-06
4.08762e-06
9.57336e-07
8.67973e-06
2.50467e-06
9.51283e-07
2.48953e-06
8.68254e-06
4.08885e-06
9.57919e-07
8.68354e-06
2.50811e-06
9.51876e-07
1.89997e-05
2.20646e-05
2.20642e-05
8.74678e-06
2.5608e-06
8.67657e-06
9.70562e-07
4.15731e-06
2.54141e-06
8.67628e-06
9.76893e-07
8.6804e-06
9.71193e-07
2.54558e-06
1.26822e-05
2.20957e-06
1.16135e-05
2.9168e-06
1.16434e-05
2.8933e-06
1.26621e-05
2.26002e-05
6.13322e-06
8.74367e-06
2.25907e-05
6.17426e-06
1.27253e-05
2.19146e-06
1.17235e-05
2.84061e-06
1.16921e-05
1.2747e-05
2.8634e-06
2.25991e-05
6.24942e-06
8.7448e-06
6.21049e-06
2.26089e-05
1.26025e-05
1.15664e-05
2.94689e-06
2.24773e-06
1.26212e-05
1.15382e-05
2.97083e-06
2.26157e-05
6.28464e-06
8.75248e-06
2.26059e-05
6.32168e-06
1.2603e-05
1.15664e-05
2.94694e-06
2.24777e-06
1.26218e-05
1.15379e-05
2.97103e-06
2.26178e-05
6.2835e-06
8.7525e-06
2.2608e-05
6.32021e-06
8.64454e-06
2.20632e-05
2.20634e-05
2.20525e-05
2.20527e-05
8.70556e-06
2.45224e-06
9.33461e-07
8.68864e-06
4.0621e-06
8.68695e-06
2.43402e-06
9.39235e-07
2.44953e-06
9.32821e-07
8.68532e-06
4.06e-06
9.38612e-07
2.42966e-06
8.68361e-06
8.59928e-06
2.20408e-05
2.2041e-05
2.20512e-05
8.53339e-06
2.20513e-05
2.48973e-06
8.68242e-06
4.08859e-06
9.57987e-07
8.68339e-06
9.51932e-07
2.50811e-06
2.48492e-06
8.67906e-06
4.08784e-06
9.57328e-07
9.51245e-07
8.68004e-06
2.50558e-06
1.90819e-05
1.90515e-05
1.9002e-05
8.80341e-06
2.20646e-05
2.20648e-05
8.74713e-06
2.20753e-05
2.20755e-05
2.56426e-06
8.68026e-06
9.71263e-07
4.15886e-06
9.77561e-07
2.54589e-06
8.67991e-06
2.56198e-06
8.67688e-06
9.70512e-07
4.15688e-06
2.54054e-06
8.67658e-06
9.76877e-07
1.90005e-05
1.26824e-05
2.2097e-06
1.16141e-05
2.91638e-06
1.16436e-05
2.89383e-06
1.26622e-05
2.25997e-05
6.13299e-06
8.74431e-06
2.25903e-05
6.17418e-06
1.27255e-05
2.19147e-06
1.17237e-05
2.84115e-06
1.16927e-05
1.27472e-05
2.86296e-06
2.25987e-05
6.24937e-06
8.74549e-06
6.21024e-06
2.26084e-05
2.94687e-06
1.15668e-05
1.26215e-05
6.28479e-06
2.26063e-05
1.15666e-05
2.9474e-06
1.2622e-05
6.28322e-06
2.26076e-05
1.26818e-05
2.20959e-06
2.91627e-06
1.16139e-05
2.8936e-06
1.16439e-05
1.26616e-05
2.25981e-05
6.13496e-06
8.74427e-06
6.17483e-06
2.25884e-05
1.27248e-05
2.19149e-06
2.84093e-06
1.1724e-05
2.86283e-06
1.27465e-05
1.16926e-05
2.25968e-05
6.25006e-06
8.7454e-06
6.21224e-06
2.26068e-05
1.26822e-05
2.20959e-06
1.16136e-05
2.91677e-06
1.16436e-05
2.89324e-06
1.2662e-05
2.25999e-05
6.13284e-06
8.744e-06
2.25905e-05
6.17418e-06
1.27252e-05
2.19149e-06
1.17237e-05
2.84056e-06
1.2747e-05
1.16922e-05
2.86335e-06
2.25989e-05
6.24937e-06
8.74513e-06
6.21009e-06
2.26086e-05
1.26025e-05
2.94721e-06
1.15669e-05
2.2478e-06
1.26213e-05
2.97056e-06
1.15384e-05
2.26159e-05
6.28525e-06
8.75313e-06
2.26058e-05
6.32094e-06
1.2603e-05
1.15666e-05
2.94686e-06
2.24781e-06
1.26217e-05
1.1538e-05
2.97103e-06
2.26175e-05
6.28308e-06
8.75282e-06
2.26078e-05
6.32019e-06
8.64472e-06
2.2063e-05
2.20633e-05
2.20523e-05
2.20526e-05
8.7053e-06
2.45236e-06
9.33475e-07
8.68873e-06
4.0616e-06
8.68702e-06
2.43394e-06
9.39254e-07
2.44864e-06
9.32866e-07
8.68509e-06
4.06057e-06
9.38605e-07
2.4303e-06
8.68336e-06
8.59907e-06
2.20407e-05
2.20409e-05
2.2051e-05
8.53352e-06
2.20513e-05
2.48961e-06
8.68248e-06
4.08937e-06
9.58012e-07
8.68346e-06
9.51946e-07
2.50832e-06
2.48584e-06
8.67882e-06
4.08764e-06
9.57321e-07
9.51314e-07
8.67982e-06
2.50437e-06
1.90824e-05
1.90521e-05
2.20644e-05
2.20648e-05
8.74727e-06
8.68033e-06
9.71279e-07
2.5456e-06
2.56064e-06
8.67665e-06
9.70588e-07
4.15757e-06
2.54161e-06
8.6764e-06
9.76909e-07
1.90011e-05
1.26818e-05
2.20963e-06
2.91629e-06
1.16139e-05
2.89365e-06
1.16439e-05
1.26616e-05
2.25981e-05
6.13505e-06
8.74453e-06
6.17485e-06
2.25884e-05
1.27248e-05
2.19152e-06
2.84098e-06
1.17239e-05
2.86283e-06
1.27465e-05
1.16926e-05
2.25968e-05
6.25009e-06
8.74566e-06
6.21235e-06
2.26069e-05
1.26824e-05
2.20966e-06
2.91687e-06
1.16139e-05
2.89334e-06
1.16439e-05
1.26622e-05
2.25998e-05
6.13298e-06
8.7444e-06
2.25905e-05
6.17431e-06
1.27254e-05
2.19155e-06
2.84066e-06
1.17239e-05
1.27472e-05
2.86346e-06
1.16925e-05
2.25988e-05
6.24951e-06
8.74554e-06
6.21023e-06
2.26085e-05
1.26025e-05
2.94726e-06
1.15668e-05
2.24783e-06
1.26213e-05
2.9706e-06
1.15384e-05
2.26159e-05
6.28537e-06
8.75339e-06
2.26058e-05
6.32097e-06
1.26032e-05
2.94698e-06
1.15668e-05
2.24786e-06
1.26219e-05
2.97112e-06
1.15383e-05
2.26175e-05
6.28322e-06
8.75323e-06
2.26077e-05
6.32035e-06
1.90829e-05
1.90525e-05
1.90841e-05
1.90538e-05
8.80352e-06
2.2065e-05
2.20646e-05
8.74764e-06
2.20759e-05
2.20753e-05
2.56033e-06
8.67675e-06
9.70649e-07
4.15758e-06
2.54192e-06
9.76943e-07
8.67644e-06
2.56532e-06
8.68035e-06
9.71249e-07
4.15884e-06
2.54517e-06
9.77578e-07
8.68004e-06
1.90015e-05
1.90027e-05
1.98531e-07
1.98529e-07
2.01988e-07
1.95371e-07
1.95369e-07
1.91934e-07
1.95114e-07
7.66894e-07
3.94245e-07
3.94278e-07
2.76896e-07
7.62233e-07
3.9439e-07
3.94429e-07
7.4748e-07
2.80858e-07
3.92904e-07
3.92949e-07
3.92883e-07
3.92925e-07
7.51829e-07
7.47501e-07
2.80861e-07
3.92957e-07
3.92909e-07
3.92938e-07
3.92883e-07
7.51857e-07
7.4749e-07
2.80864e-07
3.92961e-07
3.92908e-07
3.92934e-07
3.92885e-07
7.51854e-07
7.47529e-07
2.80875e-07
3.92929e-07
3.92967e-07
7.5187e-07
3.92908e-07
3.92936e-07
7.66854e-07
3.94219e-07
3.94263e-07
2.76878e-07
7.62181e-07
3.94365e-07
3.94411e-07
7.66882e-07
3.94276e-07
3.94219e-07
2.76879e-07
3.94371e-07
7.62203e-07
3.9442e-07
7.66867e-07
3.94275e-07
3.94224e-07
2.76883e-07
3.94367e-07
7.62204e-07
3.94421e-07
2.01776e-07
2.01774e-07
1.98382e-07
2.01776e-07
2.01774e-07
1.98382e-07
2.01777e-07
2.01775e-07
1.98382e-07
2.01777e-07
2.01775e-07
1.98382e-07
1.98531e-07
1.98529e-07
2.01989e-07
1.95371e-07
1.95369e-07
1.91934e-07
1.95114e-07
1.98532e-07
1.9853e-07
2.0199e-07
1.95372e-07
1.9537e-07
1.91934e-07
1.95115e-07
1.98532e-07
1.9853e-07
2.01991e-07
1.95372e-07
1.9537e-07
1.91934e-07
1.95115e-07
1.98967e-07
1.92284e-07
1.92282e-07
1.88826e-07
1.98968e-07
1.92284e-07
1.92282e-07
1.88826e-07
1.9897e-07
1.92285e-07
1.92283e-07
1.88827e-07
1.9897e-07
1.92285e-07
1.92283e-07
1.88827e-07
3.19128e-07
5.66104e-07
6.87327e-07
2.95157e-07
6.84355e-07
2.96985e-07
3.17921e-07
3.88841e-07
5.25451e-07
1.09066e-06
1.77251e-06
3.89165e-07
5.26214e-07
1.09723e-06
3.19038e-07
5.63753e-07
6.74794e-07
2.99414e-07
3.20407e-07
6.7752e-07
2.97463e-07
3.90198e-07
1.11934e-06
1.78948e-06
5.30328e-07
5.29416e-07
1.11262e-06
3.89937e-07
3.19133e-07
5.66125e-07
2.95163e-07
6.87323e-07
2.9699e-07
6.84373e-07
3.17927e-07
3.88845e-07
5.2547e-07
1.09069e-06
1.77253e-06
3.89173e-07
5.26211e-07
1.09721e-06
3.19043e-07
5.63758e-07
2.9942e-07
6.74812e-07
3.20412e-07
2.97469e-07
6.77516e-07
3.90206e-07
1.11932e-06
1.78953e-06
5.30324e-07
5.29439e-07
1.11265e-06
3.89941e-07
7.77939e-07
2.7671e-07
3.96262e-07
3.96304e-07
3.95992e-07
3.96027e-07
7.82919e-07
3.88435e-07
5.22579e-07
1.74199e-06
1.07564e-06
5.21972e-07
1.06926e-06
3.88055e-07
3.2193e-07
5.60676e-07
6.68451e-07
2.99962e-07
6.65982e-07
3.02036e-07
3.20387e-07
3.88465e-07
5.22723e-07
1.74236e-06
1.07565e-06
1.06923e-06
5.22113e-07
3.88088e-07
3.8757e-07
1.0483e-06
5.19072e-07
1.72633e-06
3.88005e-07
1.05456e-06
5.19536e-07
3.21947e-07
5.60684e-07
6.68509e-07
2.99964e-07
6.66018e-07
3.02039e-07
3.20403e-07
7.37847e-07
2.81195e-07
3.9195e-07
3.91901e-07
3.91873e-07
7.33822e-07
3.91828e-07
3.88452e-07
5.22679e-07
1.74229e-06
1.07571e-06
5.22075e-07
1.0693e-06
3.88065e-07
3.21944e-07
5.60695e-07
6.68478e-07
2.99967e-07
6.66012e-07
3.02041e-07
3.20398e-07
3.88466e-07
5.22721e-07
1.74241e-06
1.0756e-06
1.06923e-06
5.22122e-07
3.8808e-07
3.21949e-07
5.60691e-07
2.99972e-07
6.68506e-07
3.02044e-07
6.6604e-07
3.20406e-07
3.22003e-07
6.57902e-07
3.04848e-07
5.5909e-07
3.23699e-07
6.60144e-07
3.02658e-07
3.8842e-07
5.22568e-07
1.74196e-06
1.07562e-06
3.88044e-07
5.21951e-07
1.0692e-06
3.87519e-07
1.04827e-06
5.18918e-07
1.72596e-06
3.87959e-07
5.19384e-07
1.05452e-06
3.21934e-07
5.60671e-07
6.68462e-07
2.99965e-07
3.2039e-07
6.65974e-07
3.02037e-07
3.2202e-07
3.0485e-07
6.57928e-07
5.59095e-07
3.23706e-07
3.02663e-07
6.60179e-07
3.88434e-07
5.22609e-07
1.74208e-06
1.07554e-06
1.06912e-06
5.22003e-07
3.8806e-07
3.87542e-07
1.72607e-06
1.05446e-06
5.19427e-07
3.21941e-07
5.60673e-07
2.9997e-07
6.68494e-07
3.02039e-07
6.66001e-07
3.20401e-07
3.88427e-07
5.22565e-07
1.742e-06
1.0756e-06
3.88042e-07
5.21969e-07
1.06923e-06
3.21939e-07
5.60692e-07
2.99971e-07
6.68456e-07
3.20394e-07
3.02042e-07
6.65993e-07
3.88456e-07
5.22706e-07
1.74237e-06
1.07561e-06
1.0692e-06
5.22103e-07
3.88073e-07
3.21957e-07
5.60702e-07
2.99974e-07
6.68522e-07
3.02046e-07
6.66035e-07
3.20412e-07
7.7788e-07
2.76692e-07
3.96237e-07
3.96286e-07
7.82888e-07
3.95966e-07
3.96011e-07
7.99888e-07
2.73303e-07
3.98127e-07
3.98174e-07
7.94571e-07
3.98525e-07
3.98575e-07
3.19123e-07
5.66108e-07
6.87315e-07
2.95153e-07
6.84364e-07
2.96984e-07
3.17919e-07
3.88858e-07
5.25473e-07
1.09072e-06
1.77244e-06
1.09725e-06
3.89181e-07
5.26225e-07
3.19037e-07
5.63738e-07
6.74801e-07
2.99415e-07
6.77511e-07
3.20403e-07
2.9746e-07
3.90214e-07
1.11936e-06
1.78952e-06
5.30339e-07
1.11268e-06
5.2945e-07
3.89949e-07
3.19141e-07
5.66118e-07
6.87372e-07
2.95156e-07
6.84401e-07
2.96988e-07
3.17935e-07
3.88891e-07
5.25618e-07
1.09068e-06
1.77291e-06
3.89211e-07
1.09726e-06
5.26376e-07
3.19053e-07
5.63748e-07
6.74838e-07
2.99418e-07
3.2042e-07
6.77567e-07
2.97463e-07
3.90244e-07
1.11936e-06
1.7899e-06
5.30497e-07
1.11263e-06
3.89983e-07
5.2959e-07
3.17037e-07
6.9467e-07
2.94752e-07
5.70752e-07
3.18078e-07
6.9786e-07
2.93045e-07
3.91331e-07
1.13512e-06
5.33884e-07
1.82183e-06
5.34927e-07
3.91537e-07
1.14193e-06
3.17051e-07
6.94708e-07
2.94755e-07
5.70761e-07
3.18096e-07
6.97918e-07
2.93047e-07
3.91364e-07
1.13506e-06
5.34031e-07
1.82229e-06
3.91566e-07
1.14192e-06
5.35091e-07
7.77909e-07
2.76696e-07
3.96295e-07
3.96243e-07
3.95965e-07
3.96026e-07
7.82907e-07
7.99907e-07
2.73304e-07
3.9819e-07
3.98126e-07
3.98586e-07
7.94599e-07
3.9853e-07
3.19139e-07
5.66134e-07
6.87345e-07
2.95159e-07
6.84395e-07
2.96988e-07
3.1793e-07
3.88869e-07
5.25578e-07
1.09076e-06
1.77284e-06
1.09733e-06
3.89199e-07
5.26329e-07
3.19048e-07
5.63759e-07
6.74831e-07
2.99417e-07
6.77539e-07
3.20418e-07
2.97465e-07
3.90233e-07
1.11944e-06
1.78982e-06
5.30447e-07
1.11273e-06
5.29549e-07
3.89961e-07
3.19143e-07
5.66129e-07
2.95164e-07
6.87368e-07
2.9699e-07
6.84425e-07
3.17937e-07
3.88884e-07
5.25626e-07
1.09068e-06
1.7729e-06
3.89211e-07
1.0972e-06
5.26375e-07
3.19056e-07
5.63772e-07
2.99419e-07
6.74859e-07
3.20422e-07
2.97471e-07
6.77567e-07
3.90244e-07
1.1193e-06
1.78997e-06
5.30496e-07
1.11264e-06
3.89973e-07
5.29598e-07
6.94707e-07
2.94754e-07
3.18094e-07
1.13517e-06
5.33992e-07
3.91558e-07
2.94756e-07
6.94727e-07
3.18096e-07
1.13506e-06
5.34041e-07
3.91565e-07
3.19134e-07
5.66107e-07
2.95163e-07
6.87355e-07
2.96987e-07
6.84381e-07
3.17932e-07
3.88858e-07
5.25502e-07
1.09057e-06
1.77263e-06
5.26259e-07
3.89178e-07
1.09714e-06
3.19049e-07
5.63759e-07
2.99417e-07
6.7482e-07
2.97469e-07
3.20413e-07
6.77552e-07
3.9021e-07
1.11923e-06
1.78961e-06
5.30373e-07
5.29469e-07
1.11251e-06
3.89948e-07
3.17036e-07
6.94663e-07
2.94752e-07
5.70767e-07
3.18082e-07
6.9787e-07
2.93048e-07
3.91311e-07
1.13505e-06
5.33852e-07
1.82188e-06
3.9152e-07
5.34911e-07
1.14191e-06
3.17049e-07
2.94754e-07
6.94686e-07
5.70775e-07
3.18089e-07
2.93055e-07
6.979e-07
3.91327e-07
1.13494e-06
5.33905e-07
1.82199e-06
3.91531e-07
1.14179e-06
5.34959e-07
7.77916e-07
2.76699e-07
3.96297e-07
3.9624e-07
3.95976e-07
3.96027e-07
7.82891e-07
7.99906e-07
2.73312e-07
3.98191e-07
3.98137e-07
3.98593e-07
7.94599e-07
3.98531e-07
3.19151e-07
5.66135e-07
2.95166e-07
6.87388e-07
2.96994e-07
6.84417e-07
3.17945e-07
3.88876e-07
5.25607e-07
1.09065e-06
1.77293e-06
5.26359e-07
3.89202e-07
1.09722e-06
3.19063e-07
5.63768e-07
2.99423e-07
6.74854e-07
2.97473e-07
3.20429e-07
6.77583e-07
3.90234e-07
1.11932e-06
1.78991e-06
5.30479e-07
5.29578e-07
1.1126e-06
3.89968e-07
3.17044e-07
2.94757e-07
6.94685e-07
5.70773e-07
3.18088e-07
2.93054e-07
6.9787e-07
3.91319e-07
1.13509e-06
5.33876e-07
1.82191e-06
3.9153e-07
5.34919e-07
1.1419e-06
3.17062e-07
2.94761e-07
6.94725e-07
5.70783e-07
3.18106e-07
2.93058e-07
6.97931e-07
3.91348e-07
1.13503e-06
5.34019e-07
1.82231e-06
3.91556e-07
1.14188e-06
5.35071e-07
7.9992e-07
2.7332e-07
3.98153e-07
3.98191e-07
7.94629e-07
3.98549e-07
3.98595e-07
2.30705e-07
2.71831e-07
2.3068e-07
1.96033e-07
2.27833e-06
2.07298e-07
5.75183e-07
8.75803e-06
2.27827e-06
2.073e-07
1.84794e-06
5.75196e-07
1.89671e-05
4.20583e-06
4.20461e-06
1.89656e-05
1.84753e-06
8.7583e-06
1.90019e-05
8.80294e-06
2.20753e-05
2.20748e-05
2.56442e-06
4.15888e-06
8.68009e-06
9.77506e-07
1.26027e-05
2.24783e-06
2.9711e-06
1.15384e-05
2.26153e-05
6.38858e-06
2.26249e-05
6.35359e-06
2.26161e-05
8.75359e-06
6.32197e-06
1.25652e-05
2.26798e-06
3.02606e-06
1.1466e-05
1.25478e-05
3.00124e-06
1.14929e-05
1.26032e-05
2.24779e-06
1.15385e-05
2.97066e-06
2.26165e-05
8.75456e-06
6.38676e-06
6.35198e-06
2.26261e-05
2.26174e-05
8.75313e-06
6.32019e-06
1.25657e-05
2.26804e-06
1.14661e-05
3.0256e-06
1.14927e-05
3.00177e-06
1.25483e-05
1.89771e-05
1.90025e-05
8.80322e-06
2.20751e-05
2.20755e-05
2.60172e-06
9.97988e-07
4.18501e-06
8.67968e-06
9.91403e-07
8.67929e-06
2.6212e-06
2.59765e-06
9.97248e-07
4.18334e-06
8.67599e-06
8.67568e-06
9.90708e-07
2.61685e-06
2.56469e-06
4.15867e-06
9.77586e-07
8.67997e-06
8.84176e-06
2.20868e-05
2.20873e-05
2.20765e-05
2.20768e-05
8.89308e-06
1.89755e-05
2.26149e-05
8.75476e-06
6.38761e-06
6.35415e-06
2.26248e-05
8.12255e-07
2.73286e-07
4.01295e-07
4.01237e-07
4.00778e-07
4.00713e-07
8.17845e-07
1.89276e-07
1.89278e-07
3.17047e-07
5.70774e-07
6.97891e-07
2.93051e-07
3.93174e-07
1.16503e-06
1.15805e-06
3.91343e-07
1.82222e-06
5.35038e-07
1.14201e-06
3.17285e-07
5.73947e-07
7.09173e-07
2.91145e-07
7.05751e-07
2.92722e-07
3.16402e-07
3.17053e-07
5.70787e-07
2.93056e-07
6.97911e-07
3.93179e-07
5.40154e-07
1.84021e-06
1.16485e-06
1.15793e-06
5.38963e-07
3.93025e-07
3.91351e-07
1.8223e-06
1.14186e-06
5.35086e-07
3.17288e-07
5.73942e-07
2.91149e-07
7.09193e-07
2.92724e-07
7.0577e-07
3.16411e-07
3.93144e-07
5.39982e-07
1.83975e-06
1.1649e-06
3.9299e-07
5.38793e-07
1.15797e-06
2.82303e-05
2.82352e-05
1.31783e-06
4.31968e-07
3.17911e-07
3.62112e-07
3.62114e-07
3.96085e-07
3.11646e-07
3.38303e-07
3.38302e-07
3.74583e-07
3.9764e-07
3.68467e-07
3.68473e-07
3.97641e-07
3.68443e-07
3.68477e-07
3.68441e-07
3.68466e-07
3.97647e-07
3.68444e-07
3.68456e-07
3.97655e-07
3.96071e-07
3.6211e-07
3.62119e-07
6.16287e-07
6.16282e-07
3.96074e-07
3.62116e-07
3.62122e-07
1.40864e-06
1.91512e-06
6.16285e-07
3.62124e-07
3.44033e-07
3.44038e-07
3.96078e-07
2.87148e-06
3.62113e-07
3.44036e-07
3.44023e-07
3.76094e-07
3.38294e-07
3.38282e-07
6.15371e-07
6.15365e-07
1.41621e-06
1.92179e-06
6.15381e-07
2.89531e-06
1.81238e-06
8.09927e-06
2.44313e-05
1.81248e-06
8.10038e-06
3.45192e-07
3.45193e-07
3.45193e-07
3.45195e-07
6.26306e-07
3.81654e-07
1.33377e-06
3.66029e-07
2.44329e-05
6.26311e-07
3.81657e-07
3.66031e-07
1.33376e-06
4.08477e-07
2.67937e-06
2.67988e-06
1.8929e-06
8.39521e-06
1.87311e-06
8.52948e-06
2.36939e-05
2.32654e-05
1.89299e-06
8.39643e-06
1.87321e-06
8.5306e-06
3.13475e-07
3.13475e-07
3.38014e-07
3.38014e-07
3.38017e-07
3.38016e-07
3.17916e-07
6.22129e-07
1.37212e-06
3.4524e-07
3.55916e-07
6.25449e-07
1.38716e-06
3.38765e-07
2.36947e-05
2.32666e-05
6.22132e-07
3.45241e-07
1.37212e-06
3.5592e-07
6.25463e-07
3.38768e-07
1.38714e-06
2.76351e-06
2.76406e-06
3.86843e-07
2.80533e-06
2.80591e-06
3.07019e-07
3.00778e-07
3.11646e-07
1.41636e-06
3.20496e-07
6.15396e-07
3.32677e-07
1.42761e-06
1.41635e-06
3.20494e-07
6.15414e-07
2.89517e-06
2.89577e-06
2.44292e-05
2.44315e-05
4.08461e-07
2.67907e-06
2.67973e-06
2.3869e-05
2.42707e-05
2.38709e-05
2.42737e-05
4.06871e-07
2.74212e-06
2.74281e-06
2.70095e-06
2.70152e-06
1.8124e-06
8.10006e-06
6.26284e-07
3.81674e-07
1.33376e-06
3.6603e-07
6.26289e-07
3.81682e-07
1.33399e-06
3.66032e-07
1.83083e-06
8.35161e-06
8.16283e-06
1.85972e-06
1.83085e-06
8.35232e-06
8.16366e-06
1.85974e-06
6.26728e-07
3.74967e-07
1.36251e-06
3.51931e-07
1.34472e-06
3.58853e-07
6.25635e-07
6.26732e-07
3.74976e-07
1.36274e-06
3.51933e-07
1.34494e-06
3.58855e-07
6.25638e-07
4.08462e-07
2.67979e-06
2.67914e-06
2.44296e-05
2.38708e-05
2.42735e-05
4.06873e-07
2.74287e-06
2.74219e-06
2.70162e-06
2.70093e-06
2.38692e-05
2.42722e-05
6.26313e-07
3.81657e-07
1.33393e-06
3.66031e-07
1.81243e-06
8.10081e-06
6.26322e-07
3.81685e-07
3.66033e-07
1.33397e-06
1.83093e-06
8.35273e-06
8.16405e-06
1.85981e-06
6.26754e-07
3.7497e-07
1.36269e-06
3.51932e-07
1.34489e-06
3.58856e-07
6.25651e-07
1.831e-06
8.35306e-06
8.16441e-06
1.85974e-06
6.26751e-07
3.74979e-07
3.51934e-07
1.36268e-06
3.58858e-07
1.34494e-06
6.25656e-07
1.81245e-06
8.09981e-06
6.26307e-07
3.81676e-07
3.66032e-07
1.33382e-06
1.81246e-06
8.10022e-06
6.26739e-07
3.74966e-07
1.36252e-06
3.5193e-07
1.34472e-06
3.58854e-07
6.25659e-07
1.83089e-06
8.35213e-06
8.16358e-06
1.85979e-06
6.2674e-07
3.74978e-07
3.51933e-07
1.36256e-06
3.58855e-07
1.34478e-06
6.25659e-07
1.8309e-06
8.3525e-06
8.16392e-06
1.85979e-06
4.08469e-07
2.67995e-06
2.67922e-06
2.44306e-05
2.38717e-05
2.42747e-05
4.06877e-07
2.74287e-06
2.74226e-06
2.70175e-06
2.70102e-06
2.38701e-05
2.42729e-05
6.26316e-07
3.81667e-07
3.66032e-07
1.33399e-06
1.81248e-06
8.10018e-06
1.81249e-06
8.10081e-06
6.26753e-07
3.74968e-07
3.51932e-07
1.36251e-06
3.58855e-07
1.34473e-06
6.25661e-07
6.26757e-07
3.7497e-07
3.51933e-07
1.36275e-06
3.58858e-07
1.34495e-06
6.25665e-07
1.83093e-06
8.35254e-06
8.16377e-06
1.85982e-06
1.83094e-06
8.35309e-06
8.16453e-06
1.85982e-06
2.44309e-05
2.44322e-05
4.06884e-07
2.74241e-06
2.74295e-06
2.70117e-06
2.70168e-06
2.38704e-05
2.42733e-05
2.38716e-05
2.42748e-05
2.36911e-05
2.32642e-05
2.36939e-05
2.32657e-05
2.76329e-06
2.76395e-06
3.86827e-07
2.80503e-06
2.80575e-06
2.26715e-05
2.30848e-05
2.26721e-05
2.30877e-05
2.87144e-06
2.87207e-06
3.7608e-07
3.85283e-07
2.82692e-06
2.82761e-06
1.89292e-06
8.39594e-06
1.87313e-06
8.5301e-06
6.22103e-07
1.37211e-06
3.45239e-07
3.55948e-07
6.25439e-07
1.38716e-06
3.38766e-07
6.221e-07
1.37233e-06
3.45241e-07
3.55954e-07
6.25443e-07
1.38739e-06
3.38768e-07
1.91514e-06
8.64731e-06
1.90237e-06
8.55709e-06
1.91523e-06
8.64743e-06
1.90231e-06
8.5576e-06
1.40848e-06
3.44046e-07
3.26404e-07
6.21489e-07
3.499e-07
1.39557e-06
3.3249e-07