/*--------------------------------*- C++ -*----------------------------------*\
| =========                 |                                                 |
| \\      /  F ield         | OpenFOAM: The Open Source CFD Toolbox           |
|  \\    /   O peration     | Version:  v2006                                 |
|   \\  /    A nd           | Website:  www.openfoam.com                      |
|    \\/     M anipulation  |                                                 |
\*---------------------------------------------------------------------------*/
FoamFile
{
    version     2.0;
    format      ascii;
    class       surfaceScalarField;
    location    "125";
    object      phi;
}
// * * * * * * * * * * * * * * * * * * * * * * * * * * * * * * * * * * * * * //

dimensions      [0 3 -1 0 0 0 0];
oriented        oriented;


internalField   nonuniform List<scalar> 
40902
(
1.06723e-06
1.02879e-06
5.13945e-07
-1.56807e-06
6.49606e-08
-5.75123e-07
-1.34803e-06
-2.56792e-08
-6.80647e-07
6.31637e-07
-0.0011106
-1.03246e-06
-0.000270538
-1.30188e-08
-6.91568e-09
1.04052e-06
-1.53094e-06
6.23417e-08
-5.72326e-07
-2.55505e-08
-6.83443e-07
-0.00111105
5.33143e-07
-0.0011126
1.68224e-07
2.123e-08
-0.000205424
-4.28466e-08
2.98016e-07
-0.000246318
-1.70563e-07
-2.28485e-08
-2.91624e-10
-6.65383e-08
1.35855e-07
-0.000261747
1.05889e-07
1.05218e-06
-1.42964e-06
4.79921e-07
-1.24197e-06
6.78652e-07
-4.26972e-09
-0.00110758
-0.000263203
-5.99539e-08
1.6312e-07
-2.16179e-09
6.75894e-08
-0.000102096
2.00664e-07
-0.000296574
1.34403e-08
-7.1846e-08
6.87593e-08
2.02742e-07
-0.000296707
1.4758e-08
-2.15387e-08
-0.000102109
-1.70445e-07
1.3566e-07
-0.000261847
-0.000205473
-1.42443e-06
4.77199e-07
6.73073e-07
-1.23926e-06
1.06862e-06
-0.00110741
-3.56699e-07
-2.9811e-07
-0.000263225
1.65914e-07
-5.94725e-08
-0.000246356
-2.29054e-08
-1.70623e-07
7.44991e-08
8.23716e-05
-1.35889e-08
-8.24325e-05
-4.97961e-08
1.02162e-08
2.54644e-07
-0.000205639
-0.000281346
-3.71103e-08
2.63601e-08
2.0679e-07
2.76627e-08
3.26169e-07
-0.000281675
-1.22566e-08
-9.42391e-09
1.57975e-07
0.000150349
-0.000150511
-2.15559e-07
-2.2483e-08
4.32547e-07
7.27298e-11
-0.000246513
-0.000180279
7.56614e-09
-8.18348e-13
-0.00023972
-1.1589e-07
2.66054e-07
1.73016e-11
-0.000180504
3.98735e-07
-0.000239955
9.88477e-08
-0.000102185
2.63813e-07
-1.91669e-07
0.000237038
-1.86077e-07
3.28613e-07
-0.000237252
-0.000265572
-2.02605e-07
2.16362e-07
1.89586e-07
2.95726e-07
-7.58555e-09
1.10171e-07
-0.000296873
-0.000193325
1.36817e-07
-3.4669e-09
4.15225e-07
2.69375e-07
-0.000265697
-1.74295e-08
-0.000193507
-1.49489e-07
2.03475e-07
-1.89806e-07
2.64271e-07
0.000237118
-1.83732e-07
3.28191e-07
-0.000237336
-0.00026575
-2.02288e-07
2.18446e-07
1.89311e-07
-8.29772e-09
2.93626e-07
-9.88353e-08
1.0764e-07
-0.000297001
-0.000193391
1.38411e-07
-3.4744e-09
-1.76355e-08
-0.000193571
4.13096e-07
2.69634e-07
-0.000265875
-1.51416e-07
2.02791e-07
-5.06346e-08
-5.0576e-08
0.000228206
-0.000228475
-8.43509e-05
3.62735e-08
-8.4367e-05
3.62007e-08
-8.4419e-05
-8.44352e-05
-1.03095e-08
-0.000102197
2.5472e-07
-0.000205688
1.60168e-07
-9.41118e-09
0.000150421
-0.000150585
1.33798e-08
-2.22562e-08
-2.15626e-07
4.32645e-07
-0.00024655
-0.000239823
-1.13811e-07
2.63688e-07
-2.6314e-08
-0.00018031
7.56296e-09
4.01378e-07
-0.000240058
-2.77355e-08
-0.000180535
1.24871e-08
4.5202e-07
4.51059e-07
0.000256071
-0.000256317
-5.76484e-07
-5.81463e-07
-0.000272479
-0.00026899
-1.15304e-07
-0.00026862
-1.15069e-07
-0.000269275
-0.000268909
4.56895e-10
-0.00111699
-6.16298e-07
-1.83793e-07
0.000272216
1.26055e-07
-0.00027289
-0.00027138
1.64846e-07
1.23053e-07
4.96138e-07
-0.000262001
-0.000266653
9.60221e-08
9.94694e-08
1.05056e-07
-0.000266925
-0.000271479
1.10701e-07
-6.57781e-07
6.09969e-08
0.000270879
-0.000271586
-5.62294e-08
6.4991e-07
5.36355e-10
-0.000263365
-0.000263758
1.27588e-07
-0.000269806
-6.13943e-08
-6.46123e-09
-0.000263969
3.33506e-09
-0.000270341
-0.000271486
4.96248e-07
-0.000262104
-0.00027159
0.000270928
5.7808e-08
-6.60704e-07
-0.000271631
-1.18084e-07
6.4733e-07
-5.55089e-08
-0.000263383
-5.96781e-08
-0.000269809
1.24966e-07
-0.00026384
-9.9443e-08
-1.05318e-07
-0.000270336
-0.000264052
-1.02558e-07
-1.06977e-06
-1.02722e-06
0.000272663
-0.00027054
-1.86995e-08
-6.89863e-09
0.00111135
1.03442e-06
5.1411e-07
-1.57049e-06
6.79278e-08
-5.77742e-07
-1.34838e-06
-2.33639e-08
-6.83466e-07
6.34388e-07
-0.00111047
0.00111232
1.04038e-06
-1.52839e-06
5.93871e-08
-5.6966e-07
-2.55393e-08
-6.80739e-07
6.28878e-07
-0.00111144
5.0769e-07
-1.34552e-06
1.57085e-06
1.52594e-06
-5.69421e-07
-5.80488e-07
0.000270716
-5.77338e-07
1.07315e-06
7.03963e-08
-6.77862e-07
-2.28457e-08
4.94435e-07
-5.69238e-07
1.03056e-06
6.18477e-08
6.32992e-07
-6.77835e-07
-1.3443e-06
-2.26479e-08
5.38449e-07
-0.00111274
5.06909e-07
-0.00020534
1.03511e-08
2.48782e-07
0.000205129
-0.000205315
1.03048e-08
2.48729e-07
-4.85056e-08
0.000205104
4.2785e-07
0.000246054
-2.30349e-08
-2.06766e-07
-0.000246253
7.18636e-08
-2.16107e-08
0.000102068
-0.000102118
7.18204e-08
-2.15839e-08
0.000102051
-0.000102101
6.62437e-08
0.000296485
2.05295e-07
-0.000296699
1.46903e-08
6.62073e-08
0.000296404
2.00264e-07
-0.000296613
1.42373e-08
1.70521e-07
-0.000205489
-4.31219e-08
2.98094e-07
-0.000246363
-1.70679e-07
-2.28174e-08
0.000261845
1.35889e-07
-0.00026185
1.05753e-07
1.0522e-06
-1.42715e-06
4.80014e-07
-1.24208e-06
6.78814e-07
-0.00110764
-0.000263239
-5.91597e-08
1.63125e-07
1.7045e-07
-0.000205461
-4.57753e-08
0.000261806
1.33082e-07
-0.000261803
1.00553e-07
9.64728e-08
0.000101982
9.64287e-08
0.000101965
1.06947e-07
2.85321e-07
-7.10959e-09
0.000296196
1.04335e-07
2.90084e-07
-6.50077e-09
0.000296113
4.91665e-07
0.000261589
4.94152e-07
1.2008e-07
0.000261544
6.80201e-07
-1.241e-06
-1.42626e-06
4.81531e-07
-0.00110844
0.000263255
-5.47471e-08
6.44031e-07
-0.000263418
2.15681e-08
1.6485e-07
-8.23332e-05
3.63183e-08
-1.20808e-08
-7.39747e-08
0.000280917
2.77328e-08
3.19496e-07
-0.000281239
-4.16533e-08
2.15379e-08
1.64733e-07
-1.34161e-08
-8.23937e-05
2.62718e-08
2.00735e-07
-0.000150144
1.10578e-07
-8.17622e-09
-2.29455e-08
-1.62022e-07
2.91159e-07
-1.52663e-07
0.000239435
3.94566e-07
-0.000239673
1.01222e-08
0.000179915
-0.000180132
-0.0001503
2.57301e-07
9.89178e-08
-1.0347e-08
-0.000102207
9.88793e-08
-1.0312e-08
-0.00010219
-1.89626e-07
2.64132e-07
0.000237116
-1.83567e-07
3.27917e-07
-0.000237335
-0.000265733
-2.02618e-07
0.000265737
2.1618e-07
1.86832e-07
-8.24032e-09
2.91197e-07
1.10195e-07
-0.000296994
-0.000193393
1.38602e-07
-3.51934e-09
0.000193273
-1.76051e-08
-0.000193573
4.15623e-07
2.72225e-07
-0.000265865
-1.51489e-07
0.000237003
2.00443e-07
-1.91733e-07
2.63743e-07
0.00023705
-1.83758e-07
3.28668e-07
-0.000237267
-0.00026562
-2.02333e-07
0.000265617
2.15999e-07
1.89475e-07
-7.6231e-09
2.95984e-07
1.10093e-07
-0.000296913
-0.00019333
1.3655e-07
-3.5012e-09
0.000193211
-1.75874e-08
-0.000193511
4.1515e-07
2.69446e-07
-0.000265745
-1.49399e-07
0.00023693
2.03392e-07
-5.0595e-08
-5.06027e-08
0.000228209
-0.000228475
-8.4369e-05
3.61801e-08
8.43293e-05
-8.43514e-05
3.62003e-08
8.43117e-05
-8.44372e-05
-8.44196e-05
0.000227981
8.24194e-05
7.46577e-08
-1.36605e-08
-8.24804e-05
-4.99226e-08
2.54754e-07
-0.000205704
-3.71159e-08
-0.000281482
2.62349e-08
2.04397e-07
-1.23526e-08
2.76855e-08
3.28845e-07
-0.000281814
0.000150425
-9.48701e-09
1.58002e-07
-0.000150588
-2.15514e-07
-2.24814e-08
4.32554e-07
-0.000246557
7.62026e-09
-0.000180316
-1.15974e-07
-0.000239826
2.63614e-07
-0.000180541
4.01412e-07
-0.000240064
2.54652e-07
-4.70979e-08
-0.000205679
6.94704e-08
6.94121e-08
-0.000236782
-1.32172e-07
1.98467e-07
-1.47114e-07
1.95696e-07
-2.59761e-07
0.000265601
4.11936e-07
2.69788e-07
1.85093e-07
0.000193097
-1.64541e-08
1.52149e-08
1.97778e-07
6.31585e-08
-1.79246e-07
3.2546e-07
-2.44539e-09
2.12434e-07
1.84543e-07
-0.000236716
-1.32228e-07
1.98158e-07
-1.45026e-07
1.98633e-07
-2.59353e-07
0.000265491
4.11383e-07
2.64399e-07
1.87221e-07
0.000193034
-1.6441e-08
1.53173e-08
1.95236e-07
6.56222e-08
-1.8165e-07
3.23911e-07
-2.42058e-09
2.12227e-07
1.8991e-07
-0.000227721
-3.60818e-08
-3.6099e-08
5.05521e-08
8.42623e-05
5.05586e-08
8.42447e-05
4.51243e-07
4.49164e-07
0.000256079
-0.000256323
-5.70603e-07
-5.81632e-07
-0.000272487
-0.000268602
-1.15176e-07
0.000268983
-0.000269035
-1.17848e-07
0.000269421
-0.000268884
-0.000269322
0.00025625
-0.000256003
1.11695e-07
1.14332e-07
-4.49185e-07
0.000268697
-4.47046e-07
0.00026913
-1.23865e-08
-3.20332e-09
5.09579e-07
-0.00111701
-1.1328e-07
-0.00112408
-5.69616e-07
3.90062e-07
-0.0011168
-5.337e-07
-0.00112368
-6.9981e-07
-1.83726e-07
-6.19264e-07
0.000272286
1.18126e-07
-0.000272949
-0.000271467
1.64783e-07
0.000271602
4.96309e-07
1.22989e-07
-0.000262104
-0.00026676
9.33328e-08
1.01948e-07
-0.000271566
1.02507e-07
-0.00026703
1.18503e-07
-6.57966e-07
5.94396e-08
0.000270932
-0.000271643
-5.59997e-08
6.4997e-07
-0.0002634
-0.000263846
1.27582e-07
-0.000269835
-6.02541e-08
-0.000264056
-0.000270364
-0.000271456
1.59524e-07
0.000271593
4.98744e-07
1.28167e-07
-0.000262065
1.89087e-07
-0.000271557
0.000273075
-0.000272299
-9.06662e-08
1.02709e-07
0.000271502
1.31148e-07
-8.52631e-08
-0.000272406
-1.61124e-07
1.04948e-07
1.85445e-07
0.000271488
0.000266582
6.18048e-07
1.0091e-07
-0.000266862
1.02668e-07
1.28316e-07
1.00086e-07
1.28213e-07
-1.197e-07
-0.000271077
5.52006e-08
-5.72552e-08
1.60583e-07
0.000263796
6.57534e-07
-0.000264013
-5.87925e-08
0.000269987
-0.00027053
-0.000271776
-1.06143e-06
-1.05672e-06
-0.0011097
5.39696e-07
5.51262e-07
0.00111072
-0.00110836
-1.52977e-06
1.05672e-06
5.20061e-07
0.00110926
-5.70392e-07
1.01973e-06
5.17232e-08
6.18784e-07
-6.88836e-07
-1.34882e-06
-3.23986e-08
-0.00110827
-1.527e-06
1.05653e-06
5.25487e-07
0.00110917
-5.73101e-07
1.01703e-06
5.45794e-08
6.13174e-07
-6.88878e-07
-1.3462e-06
-3.48991e-08
-0.000271897
1.5584e-06
1.51898e-06
-5.74084e-07
-5.85076e-07
0.000269978
-1.05631e-06
-1.01382e-06
0.000271942
-0.000269819
-3.21874e-08
-2.0856e-08
0.00110778
1.06153e-06
5.2327e-07
-1.56891e-06
5.75145e-08
-5.78806e-07
-1.35271e-06
-3.8307e-08
-6.91533e-07
6.14183e-07
-0.00110686
1.05379e-06
0.00110791
1.06138e-06
-0.00110699
5.2318e-07
-1.56639e-06
5.46197e-08
-5.76158e-07
-1.35505e-06
-3.57637e-08
-6.94066e-07
6.16968e-07
-1.01636e-06
0.000271931
-0.000269814
-2.66267e-08
-2.08273e-08
0.00110876
1.06229e-06
5.22255e-07
-1.5269e-06
4.89349e-08
-5.70725e-07
-1.34986e-06
-3.80876e-08
-6.91497e-07
6.1146e-07
-0.00110784
1.05108e-06
0.00110781
1.06144e-06
5.23517e-07
-1.56359e-06
5.46365e-08
-5.76179e-07
-1.35248e-06
-3.57391e-08
-6.94074e-07
6.14227e-07
-0.00110689
1.06231e-06
-0.00110744
5.22337e-07
-1.52939e-06
4.90015e-08
-5.70564e-07
-1.35247e-06
-3.81393e-08
6.11504e-07
-6.94141e-07
1.04546e-06
0.00110748
1.05597e-06
5.23289e-07
-1.55795e-06
5.462e-08
-5.75968e-07
-1.34967e-06
-3.58124e-08
-6.94026e-07
6.11506e-07
-0.00110656
-1.01366e-06
0.000271918
-0.000269801
-2.92695e-08
-2.36532e-08
1.06202e-06
5.22463e-07
-1.52664e-06
5.18669e-08
-5.7329e-07
-1.34709e-06
-3.81925e-08
6.08691e-07
-6.91455e-07
-0.00110735
1.0056e-06
0.00110845
1.06216e-06
5.16946e-07
-1.51593e-06
4.60108e-08
-5.67916e-07
-1.34942e-06
-3.55837e-08
-6.94005e-07
6.11443e-07
-0.00110753
-0.000269793
-3.22149e-08
-2.07922e-08
1.56934e-06
1.52728e-06
-5.74151e-07
-5.85129e-07
0.000270005
5.21043e-07
0.00110868
-5.78611e-07
1.05969e-06
6.02048e-08
6.187e-07
-6.88957e-07
-1.35174e-06
-3.4986e-08
-1.56684e-06
1.05595e-06
5.21022e-07
0.00110882
-5.76003e-07
1.05716e-06
5.72989e-08
6.21464e-07
-6.9151e-07
-1.3541e-06
-3.24752e-08
-5.79916e-07
-5.84887e-07
0.00027
5.25396e-07
0.00110966
-5.70547e-07
1.01449e-06
5.16519e-08
6.1597e-07
-6.88926e-07
-1.34889e-06
-3.47725e-08
-1.56396e-06
1.05047e-06
5.10328e-07
0.00110873
-5.75979e-07
1.05452e-06
5.73767e-08
6.18721e-07
-6.91495e-07
-1.3515e-06
-3.24157e-08
1.05586e-06
5.21101e-07
0.00110839
-5.75825e-07
1.04884e-06
5.72899e-08
6.16023e-07
-6.91457e-07
-3.25046e-08
-1.34869e-06
-5.77216e-07
-5.81949e-07
0.000269986
1.05652e-06
5.19859e-07
0.00110936
-5.67726e-07
1.01173e-06
5.16764e-08
6.15966e-07
-6.91429e-07
-3.22677e-08
-1.34844e-06
5.41905e-07
5.42622e-07
-0.00110866
0.00110952
5.41949e-07
5.42647e-07
-0.00110848
0.00110933
5.41949e-07
5.42609e-07
-0.0011083
0.00110936
5.41886e-07
5.31901e-07
-0.00110831
-1.1594e-10
3.1228e-07
0.000246854
-0.000246955
-1.88894e-07
-2.17113e-08
-0.000206853
9.56787e-09
2.75931e-07
-5.34504e-08
0.000206621
-0.000247438
1.15037e-10
4.55273e-07
0.000247247
-2.44335e-07
-2.03314e-08
2.14233e-08
1.79981e-07
0.000206077
-4.56513e-08
-0.000206233
-0.000102634
-9.68236e-09
1.06549e-07
0.000102538
-2.12725e-08
7.70633e-08
0.000102329
-0.000102385
3.09706e-07
2.06707e-11
0.000246848
-0.000246948
-2.17084e-08
-1.88875e-07
-0.000206827
9.61128e-09
2.73566e-07
-5.34197e-08
0.000206598
-0.000247431
4.55346e-07
3.58476e-10
0.00024724
-2.04018e-08
-2.44415e-07
2.13227e-08
1.82232e-07
0.000206052
-4.55731e-08
-0.00020621
5.39748e-07
5.40424e-07
0.00111056
5.34334e-07
5.45768e-07
0.00111036
5.3966e-07
5.40384e-07
0.00111039
-3.14878e-07
-1.68124e-09
0.000263354
-0.000263154
-6.02514e-08
1.76766e-07
-0.000262863
-1.17863e-07
-2.73575e-07
5.09935e-07
1.32015e-07
0.000262612
0.00110547
-0.00110449
3.68764e-09
1.08093e-06
6.6207e-07
-1.24249e-06
-1.42942e-06
4.63581e-07
5.17819e-07
1.02307e-06
0.00111016
1.05133e-06
-1.35051e-06
-2.92277e-08
-6.88907e-07
6.23181e-07
-1.53018e-06
5.43549e-08
-5.70172e-07
-0.000263258
-4.52749e-07
1.83056e-09
0.000263108
-5.58985e-08
6.57489e-07
-7.51556e-08
-1.82265e-07
0.000262361
1.12022e-07
-0.000262361
1.45446e-07
-2.88239e-09
0.00110645
1.07484e-06
-1.42862e-06
4.68211e-07
-1.24135e-06
6.66741e-07
-0.000102627
-9.67296e-09
1.06496e-07
0.00010253
-2.13973e-08
7.451e-08
0.000102325
-0.000102378
-1.1211e-10
-3.12319e-07
0.000263347
-0.00026315
1.76796e-07
-6.12861e-08
0.00110533
-0.00110435
1.02106e-08
1.08625e-06
6.59335e-07
-1.2425e-06
-1.42673e-06
4.63614e-07
-0.000262858
-1.20415e-07
-2.73543e-07
5.12479e-07
1.32004e-07
0.000262607
5.44886e-07
1.0258e-06
0.00111001
1.06719e-06
-1.3451e-06
-3.1694e-08
-6.88923e-07
6.17582e-07
-1.52199e-06
6.00574e-08
-5.70188e-07
-0.000263251
1.05567e-09
-4.5535e-07
0.000263104
6.57528e-07
-5.56437e-08
1.56971e-08
0.00110631
1.08005e-06
-1.4259e-06
4.68261e-07
-1.24135e-06
6.64026e-07
-7.2659e-08
-1.82258e-07
0.000262356
1.12041e-07
-0.000262356
1.42916e-07
-0.000298547
1.20399e-07
-1.06659e-07
3.13482e-07
-1.19271e-08
0.000298232
-0.000298456
1.17827e-07
-1.06649e-07
3.13451e-07
-1.19432e-08
0.000298143
-1.05221e-06
-1.01503e-06
0.000272262
-0.000270161
-1.9832e-08
-1.38806e-08
7.27282e-08
-7.69026e-08
0.000297481
1.13829e-08
-0.000297699
2.10799e-07
7.51257e-08
-7.68528e-08
0.00029739
1.16e-08
-0.00029761
2.10688e-07
7.98768e-08
-2.0614e-08
0.000102656
-0.000102715
8.21798e-08
-2.05473e-08
0.000102639
-0.000102701
7.94996e-08
0.000298578
2.2661e-07
-0.000298813
8.61575e-09
8.18846e-08
0.000298497
2.21639e-07
-0.000298726
8.13903e-09
1.92483e-07
-0.000207018
-4.78281e-08
-6.00906e-11
3.27057e-07
-0.000247537
-2.08585e-07
-2.00797e-08
1.94751e-07
2.05251e-08
0.000206787
-0.000206954
-4.78147e-08
2.86948e-07
8.45861e-09
-5.53145e-08
0.000207362
-0.000207602
3.26984e-07
0.000247395
-0.000247493
-2.08504e-07
-2.0046e-08
0.000262863
1.55907e-07
-0.000262865
1.18494e-07
-3.28248e-09
0.0011047
1.08744e-06
-1.43312e-06
4.58903e-07
-1.24645e-06
6.57579e-07
-0.0011037
-9.24475e-10
0.000263263
-0.000263059
-6.07368e-08
1.8541e-07
-1.56598e-06
6.12325e-07
-6.96589e-07
-1.35598e-06
-3.9217e-08
1.05036e-06
-5.76277e-07
5.18728e-08
-0.00110606
5.25486e-07
1.06704e-06
-7.95418e-08
0.00026276
1.55808e-07
-0.00026276
1.18515e-07
0.00110466
1.08737e-06
-1.43282e-06
4.61662e-07
-1.24643e-06
6.60174e-07
-0.00110367
-1.27646e-07
1.38187e-07
5.18915e-07
0.000263004
-0.000263246
0.000263234
-0.000263034
-5.96894e-08
1.85371e-07
8.23297e-08
-0.000102696
1.1218e-07
0.000102862
-0.000102965
1.52899e-06
0.000269625
-5.82289e-07
-5.87226e-07
-0.00027155
0.000298455
2.24166e-07
-0.000298685
8.55011e-09
-8.22164e-08
8.19057e-08
0.000298586
2.24049e-07
-0.000298818
8.71935e-09
-1.63715e-08
3.22839e-07
0.000299236
-0.000299558
-1.12249e-07
1.25115e-07
-1.64e-08
3.23081e-07
0.00029937
-0.000299689
-2.0547e-08
0.000102646
-0.000102708
-8.40338e-09
0.000102874
-0.000102977
1.94701e-07
-0.000206995
-4.77671e-08
3.27075e-07
-1.37065e-10
-0.000247529
-2.00629e-08
-2.08579e-07
0.000262823
1.53071e-07
-0.000262818
1.18444e-07
-1.38375e-09
0.00110456
1.08716e-06
-1.43028e-06
4.64404e-07
-1.24645e-06
6.5729e-07
-0.00110357
-1.69421e-09
0.000263254
-0.00026305
-6.02126e-08
1.85417e-07
1.94696e-07
2.05224e-08
0.000206772
-0.00020694
-4.77868e-08
3.29704e-07
0.000247386
-0.00024749
-2.06416e-07
-2.00512e-08
0.00110452
1.0873e-06
-1.43018e-06
4.64467e-07
-1.24647e-06
6.5748e-07
-0.00110353
-7.9467e-08
0.000262752
1.53121e-07
-0.00026275
1.18479e-07
0.000263224
-0.000263025
1.88139e-07
-5.97173e-08
-4.68237e-07
1.82396e-09
-5.58533e-08
6.64603e-07
0.000262996
-0.000263138
5.24528e-07
1.01297e-06
-5.70657e-07
4.62576e-08
6.09585e-07
-6.93906e-07
-1.35071e-06
-3.91313e-08
-0.00110651
1.06788e-06
-1.94736e-07
1.55701e-07
-0.00026286
1.18434e-07
-0.00110349
-3.58077e-09
1.08182e-06
-1.43024e-06
4.58852e-07
6.57317e-07
-1.24367e-06
-2.87007e-07
1.38213e-07
5.18978e-07
0.000263104
-0.000263349
3.29441e-09
6.52459e-07
-1.24494e-06
-1.43109e-06
4.54003e-07
-0.00110249
1.09364e-06
-3.29664e-07
-1.71021e-09
-0.000263055
-6.02445e-08
1.88139e-07
2.22991e-10
-1.82262e-08
-2.65421e-07
0.000247821
-0.000248006
0.000206837
-0.000207004
-4.77832e-08
-5.52673e-08
0.000207412
-0.000207652
-1.26648e-10
0.000247435
-0.000247535
-2.01412e-08
-2.0857e-07
-4.6821e-07
6.61935e-07
-5.5777e-08
0.000262973
-0.000263109
-0.00110344
0.00110444
1.08183e-06
-1.42738e-06
4.58916e-07
-1.24368e-06
6.54726e-07
-1.94666e-07
-7.94934e-08
0.000262792
1.55761e-07
-0.000262792
1.18468e-07
6.49875e-07
-1.24495e-06
-1.42822e-06
4.54058e-07
-0.00110244
-5.25577e-07
1.09369e-06
-3.29629e-07
0.000263229
-0.000263032
1.90851e-07
-6.02053e-08
-2.654e-07
-1.79504e-08
0.00024778
-0.000247964
2.05767e-08
0.000206782
-0.000206949
-4.78129e-08
0.000247393
-0.000247494
-2.08529e-07
-2.02726e-08
8.23224e-08
-0.000102689
0.000298455
2.24106e-07
-0.000298685
8.62617e-09
-8.21708e-08
7.94176e-08
0.000298587
2.21565e-07
-0.000298814
8.12302e-09
-2.05403e-08
0.000102644
-0.000102705
-1.29352e-09
1.08169e-06
-1.42756e-06
4.58882e-07
6.54584e-07
-1.24368e-06
-0.00110336
-1.94721e-07
1.53156e-07
-0.000262855
1.18461e-07
-6.68667e-10
-3.27102e-07
-0.000263051
1.88182e-07
-6.05231e-08
0.00110429
1.08157e-06
-1.42451e-06
4.58842e-07
-1.24094e-06
6.5441e-07
-0.00110331
-1.94612e-07
-8.18909e-08
0.000262758
1.52972e-07
-0.000262753
1.18474e-07
-3.27051e-07
0.00026322
-0.000263023
1.88162e-07
-5.91617e-08
0.000206832
-0.000207
-4.77505e-08
1.91844e-11
0.000247431
-0.00024753
-2.01594e-08
-2.08584e-07
2.05587e-08
0.000206772
-0.00020694
-4.77666e-08
0.000247391
-0.000247489
-2.00419e-08
-2.08526e-07
-8.22317e-08
2.21665e-07
-0.000298774
7.98482e-09
-8.21901e-08
2.21576e-07
-0.000298685
8.18594e-09
0.000102635
-0.000102697
0.000102628
-0.000102689
1.09048e-07
0.000102556
7.44875e-08
0.000102351
-0.000102404
1.06657e-07
0.000102542
7.68419e-08
0.000102334
-0.00010239
1.20391e-07
3.08624e-07
-1.25447e-08
0.000298271
1.17815e-07
3.13496e-07
-1.19343e-08
0.000298184
0.000272308
-1.06307e-06
-1.01784e-06
-0.000270187
-2.54208e-08
-1.39359e-08
0.000297512
7.27295e-08
1.20229e-08
-0.000297736
2.13248e-07
0.000297431
7.51127e-08
1.15662e-08
-0.000297652
2.10743e-07
1.0385e-07
-1.01464e-08
0.000102257
1.01396e-07
-1.02093e-08
0.000102243
1.57013e-06
1.52802e-06
0.000270367
-5.74405e-07
-5.82796e-07
1.13424e-07
-9.50015e-09
2.99435e-07
0.000297213
1.13417e-07
-8.88295e-09
3.01813e-07
0.000297126
3.12207e-07
0.00024681
-0.000246912
-1.88806e-07
-2.17078e-08
2.73502e-07
-5.34734e-08
0.000206557
4.55248e-07
0.000247204
-2.44343e-07
-2.02779e-08
1.82305e-07
0.000206012
-4.56001e-08
-0.00020617
-1.08049e-09
0.000263359
-0.000263159
-6.04695e-08
1.74028e-07
5.09979e-07
1.31956e-07
0.000262617
0.00110568
3.77169e-09
1.08114e-06
6.65078e-07
-1.24529e-06
-1.42958e-06
4.69169e-07
5.18757e-07
0.00110958
1.05603e-06
-1.56973e-06
6.28368e-08
-5.78378e-07
-1.35069e-06
-3.17906e-08
-6.86297e-07
6.23116e-07
9.78767e-10
0.000263112
-5.53795e-08
6.60154e-07
0.00026236
1.12064e-07
-0.000262363
1.42965e-07
-3.76356e-09
0.00110666
1.08594e-06
-1.4315e-06
4.71032e-07
-1.24688e-06
6.67e-07
0.00026333
-0.000263133
-5.94502e-08
1.73994e-07
-1.2035e-07
5.0985e-07
1.3198e-07
0.000262512
0.00110565
1.0811e-06
6.64919e-07
-1.24801e-06
-1.43201e-06
4.69143e-07
5.1865e-07
0.00110971
1.06055e-06
1.05042e-06
-1.35304e-06
-2.92828e-08
6.25893e-07
-6.88848e-07
-1.56724e-06
5.99396e-08
-5.75751e-07
0.000263086
-5.6341e-08
6.60128e-07
0.000262257
-7.28038e-08
1.12111e-07
-0.00026226
1.45566e-07
0.00110662
1.0804e-06
-1.43122e-06
4.73786e-07
-1.24687e-06
6.69579e-07
-3.30464e-11
4.40076e-07
-2.24762e-07
-2.18912e-08
0.00024666
2.63198e-07
-5.11762e-08
0.000205855
4.40054e-07
-2.24794e-07
-2.18719e-08
0.000246617
2.60759e-07
1.02609e-08
-5.11488e-08
0.000205792
3.27243e-10
-5.51648e-08
6.53322e-07
0.0002632
5.16482e-07
1.04521e-06
1.06644e-06
-5.78125e-07
6.54375e-08
6.27429e-07
-6.86261e-07
-2.63278e-08
-1.35229e-06
1.25949e-07
5.03425e-07
0.000262108
-5.13494e-09
1.06901e-06
6.7157e-07
-1.24584e-06
-1.43071e-06
4.78329e-07
-5.59036e-08
6.53282e-07
0.000263173
5.16469e-07
-1.56768e-06
1.04513e-06
6.30167e-07
-6.86155e-07
-1.35196e-06
-2.62657e-08
1.06387e-06
-5.75487e-07
6.24604e-08
-1.1344e-07
1.25984e-07
5.00727e-07
0.000262005
1.06895e-06
6.76891e-07
-1.24581e-06
-1.43044e-06
4.81068e-07
3.10915e-07
-1.24954e-08
0.000298143
-1.06651e-07
3.11198e-07
-1.25634e-08
0.000298276
0.0002723
-0.000270182
-1.98344e-08
-1.3924e-08
0.000297389
1.19245e-08
-0.00029761
2.13357e-07
-7.68812e-08
0.000297519
1.21143e-08
-0.000297743
2.13153e-07
-9.6168e-09
0.000102549
0.000102341
-2.13143e-08
-0.000102397
1.01248e-07
0.000102238
1.53056e-06
0.000270362
-5.77609e-07
-5.82593e-07
-9.39305e-09
2.99236e-07
0.000297087
-1.0137e-07
1.10954e-07
-9.53919e-09
2.99489e-07
0.00029722
-1.02082e-08
0.00010225
-1.06545e-09
0.000263347
-0.000263152
-6.04847e-08
1.76772e-07
5.1251e-07
1.31947e-07
0.00026257
0.00110554
1.07095e-08
1.08083e-06
6.62031e-07
-1.24801e-06
-1.42947e-06
4.66363e-07
5.28574e-07
0.00111055
1.05122e-06
-1.52494e-06
5.42894e-08
-5.70311e-07
-1.34785e-06
-3.15815e-08
-6.86278e-07
6.20414e-07
2.13895e-09
0.000263106
-5.61711e-08
6.57515e-07
0.000262321
1.12027e-07
-0.000262318
1.42806e-07
1.76418e-08
0.00110651
1.07472e-06
-1.42865e-06
4.71013e-07
-1.24136e-06
6.66744e-07
3.1234e-07
0.000246804
-0.000246908
-1.86724e-07
-2.16993e-08
2.73418e-07
-5.33974e-08
0.000206543
4.52642e-07
0.000247201
-2.4649e-07
-2.00395e-08
1.79871e-07
0.000206
-4.56003e-08
-0.000206155
0.000263317
-0.000263126
1.79516e-07
-5.92208e-08
0.00110552
1.07558e-06
6.62195e-07
-1.24804e-06
-1.42936e-06
4.66404e-07
-1.20368e-07
5.12401e-07
1.31958e-07
0.000262502
4.86743e-07
0.00110968
1.04974e-06
1.03976e-06
-1.3477e-06
-2.91933e-08
6.20302e-07
-6.86174e-07
-1.5671e-06
5.7111e-08
-5.7849e-07
0.00026308
6.54836e-07
-5.58157e-08
0.00110648
1.07497e-06
-1.42853e-06
4.71035e-07
-1.24141e-06
6.66818e-07
0.00026225
-7.52352e-08
1.12052e-07
-0.00026225
1.42813e-07
4.42735e-07
4.70875e-10
-2.22231e-08
-2.24858e-07
0.000246652
2.60769e-07
-4.83797e-08
0.00020583
2.53273e-09
-5.6243e-08
6.50653e-07
0.000263192
5.20831e-07
1.04577e-06
1.02392e-06
-5.70007e-07
5.68768e-08
-6.83545e-07
-1.34672e-06
6.24669e-07
-2.85131e-08
1.31112e-07
5.03336e-07
0.000262061
5.17086e-08
1.06855e-06
-1.24302e-06
-1.42786e-06
0.00110744
6.71289e-07
4.72779e-07
4.40057e-07
-2.26939e-07
-2.16265e-08
0.000246613
2.63053e-07
1.01492e-08
-5.11033e-08
0.000205778
6.47991e-07
-5.4861e-08
0.000263167
3.37782e-07
-1.60016e-06
8.97699e-07
-6.83455e-07
-1.34663e-06
9.82919e-07
-5.89207e-07
5.39338e-08
0.00111103
6.27365e-07
-2.37506e-08
1.09087e-06
-1.24309e-06
-1.42776e-06
0.00110731
6.71289e-07
4.72742e-07
-1.10899e-07
1.25947e-07
5.03273e-07
0.000261995
-1.20711e-10
0.00024685
-0.000246954
-2.17817e-08
-1.88866e-07
-5.34242e-08
0.000206607
2.24989e-10
0.000247246
-2.03265e-08
-2.44413e-07
0.000206062
-4.55952e-08
-0.00020622
-3.14846e-07
0.000263325
-0.000263131
1.79497e-07
-5.99636e-08
0.00110543
1.08101e-06
6.59482e-07
-1.2425e-06
4.6363e-07
-1.42655e-06
-2.7354e-07
5.09856e-07
1.32002e-07
0.000262544
5.1872e-07
0.0011093
1.04498e-06
-1.55879e-06
5.99686e-08
-5.75585e-07
-1.34494e-06
-3.17291e-08
-6.86115e-07
6.17665e-07
-4.52721e-07
0.000263084
6.54819e-07
-5.58214e-08
0.00110641
1.06945e-06
-1.42301e-06
4.65487e-07
-1.23862e-06
6.61375e-07
-1.82191e-07
0.00026229
1.12032e-07
-0.000262292
1.4548e-07
0.000246809
-0.000246913
-1.8883e-07
-2.19182e-08
9.62437e-09
-5.34338e-08
0.000206552
0.000247205
-2.44396e-07
-2.00469e-08
0.000206007
2.13577e-08
-4.56323e-08
-0.000206165
-4.3756e-07
1.84826e-09
-5.54549e-08
6.50653e-07
0.000263195
5.15452e-07
1.0458e-06
1.02641e-06
-5.69895e-07
5.98421e-08
6.27463e-07
-6.86166e-07
-1.34939e-06
-2.61157e-08
-2.60849e-07
1.26002e-07
5.00836e-07
0.000262106
5.26682e-09
1.06873e-06
6.71318e-07
-1.24028e-06
-1.42782e-06
4.72746e-07
2.31733e-10
-2.1911e-08
-2.2486e-07
0.000246659
-5.11324e-08
0.000205842
-4.37546e-07
6.47988e-07
-5.56358e-08
0.000263172
5.16458e-07
-1.5592e-06
1.04498e-06
6.21917e-07
-6.83381e-07
-1.34384e-06
-2.86344e-08
1.05553e-06
-5.75337e-07
6.25282e-08
1.06883e-06
6.65954e-07
-1.23754e-06
-1.42222e-06
4.70008e-07
-2.60795e-07
-1.13452e-07
1.25972e-07
5.00706e-07
0.000262037
-2.24851e-07
-2.16287e-08
0.000246618
1.02215e-08
-5.11461e-08
0.000205787
3.11011e-07
-1.25779e-08
0.000298143
-1.06641e-07
3.13513e-07
-1.19582e-08
0.000298271
0.000272289
-0.000270174
-1.69133e-08
-2.24941e-08
0.000297384
1.20489e-08
-0.00029761
2.13233e-07
-7.68387e-08
0.000297521
1.15177e-08
-0.000297739
2.10712e-07
-9.58895e-09
0.000102547
0.000102339
-2.13237e-08
-0.000102394
1.03706e-07
0.000102231
1.5004e-06
0.000270351
-5.67403e-07
-5.95222e-07
-9.5263e-09
2.99232e-07
0.000297087
-1.01392e-07
1.13443e-07
-8.94002e-09
3.04307e-07
0.000297213
-1.01913e-08
0.000102247
-3.1227e-07
0.000263316
-0.000263123
1.76797e-07
-5.83943e-08
0.00110529
1.0862e-06
6.56401e-07
-1.24249e-06
4.60778e-07
-1.42643e-06
-2.73488e-07
5.12366e-07
1.31973e-07
0.000262505
5.12454e-07
0.00111026
1.05113e-06
-1.52212e-06
5.42816e-08
-5.70267e-07
-1.34751e-06
-2.91228e-08
-6.88789e-07
6.20449e-07
-4.55312e-07
0.000263076
6.57513e-07
-5.66087e-08
0.00110628
1.07461e-06
-1.4229e-06
4.65412e-07
-1.23861e-06
6.61091e-07
-1.82148e-07
0.000262256
1.12052e-07
-0.000262253
1.42714e-07
1.62079e-10
0.000246847
-0.000246949
-2.20363e-08
-1.88878e-07
-5.33782e-08
0.000206602
1.69207e-10
0.000247241
-2.03214e-08
-2.44421e-07
0.000206057
-4.55747e-08
-0.000206215
0.000246806
-0.000246908
-2.14417e-08
-1.88825e-07
9.61995e-09
-5.33972e-08
0.000206543
0.0002472
-2.03054e-08
-2.44394e-07
0.000205998
2.13309e-08
-4.55814e-08
-0.000206155
1.39904e-09
-4.40158e-07
6.50677e-07
-5.56982e-08
0.000263191
6.72437e-07
1.22021e-06
1.09391e-06
-5.64398e-07
6.84049e-08
6.24755e-07
-6.88872e-07
-1.34667e-06
-2.86301e-08
0.00111046
4.69349e-08
1.05206e-06
6.6873e-07
-1.24027e-06
-1.42509e-06
4.72821e-07
-2.60808e-07
1.25992e-07
5.05917e-07
0.000262098
-4.40128e-07
6.50676e-07
-5.64152e-08
0.000263164
4.99012e-07
-1.52248e-06
1.04563e-06
6.24744e-07
-6.86039e-07
-1.34638e-06
-2.60422e-08
1.01838e-06
-5.6994e-07
5.69063e-08
1.06866e-06
6.65622e-07
-1.23755e-06
-1.42212e-06
4.69911e-07
-2.60756e-07
-1.10895e-07
1.25948e-07
5.03242e-07
0.000261998
2.7028e-10
-2.19017e-08
-2.24866e-07
0.000246653
-5.10999e-08
0.000205837
-2.18886e-08
-2.24846e-07
0.000246613
1.02134e-08
-5.11103e-08
0.000205778
0.000102538
0.00010233
-0.000102385
0.000102531
0.000102323
-0.000102378
0.00027034
-5.77106e-07
-5.82915e-07
-1.01382e-07
-8.86886e-09
3.01757e-07
0.000297176
-1.01381e-07
-8.9153e-09
3.0175e-07
0.000297087
0.000102239
0.000102232
-7.46196e-09
1.6976e-07
0.000151017
-0.000151193
1.34523e-08
-2.34355e-07
-2.11874e-08
-0.000247147
-6.88119e-11
4.47604e-07
-0.000181155
5.84086e-09
-1.4211e-11
0.000180961
-0.000240593
-1.27328e-07
-2.60654e-08
0.000240448
2.76378e-07
-0.000181397
-3.36917e-12
-0.000240832
-2.73681e-08
4.15241e-07
1.23413e-08
0.000150884
-8.26823e-05
3.8847e-08
-1.20651e-08
8.26556e-05
-7.61998e-08
0.000283251
2.70427e-08
-0.000283604
3.49369e-07
-4.67983e-08
0.00020646
2.10958e-08
1.86152e-07
-1.30565e-08
-8.27455e-05
2.58163e-08
0.000282994
2.23197e-07
-0.000151334
-4.63106e-09
1.33416e-07
-1.9857e-07
-2.09595e-08
8.59773e-11
3.19617e-07
6.10924e-09
0.0001816
-0.000181851
1.19234e-11
-1.76063e-07
0.000240976
-0.000241216
4.22137e-07
-0.000151517
8.23247e-12
2.8285e-07
7.57215e-08
8.25933e-05
-0.000282647
-3.83142e-08
0.000282397
2.16837e-07
-5.23599e-08
9.92531e-09
2.6948e-07
3.42502e-07
8.25673e-05
0.000102479
-2.09815e-08
7.9646e-08
-1.00558e-08
1.03849e-07
1.69868e-07
-7.41752e-09
0.000151013
-0.000151189
1.33709e-08
-2.15056e-08
-2.34452e-07
-0.00024714
2.74807e-10
4.47695e-07
-0.000240583
-1.27264e-07
-2.61653e-08
0.000240439
2.76371e-07
-0.00018115
5.80962e-09
1.19394e-11
0.000180955
-0.000240823
-2.7376e-08
4.15329e-07
-0.000181392
2.3173e-11
1.22911e-08
0.000150879
-8.26814e-05
3.87749e-08
-1.20162e-08
8.26546e-05
-7.61455e-08
0.000283246
2.70451e-08
-0.000283597
3.46791e-07
-4.6725e-08
0.000206435
2.10093e-08
1.88381e-07
-1.29826e-08
-8.27445e-05
2.59067e-08
0.000282987
2.25649e-07
-0.000151329
1.33365e-07
-4.60438e-09
-2.09479e-08
-1.98557e-07
8.87104e-11
3.19629e-07
-1.76163e-07
0.000240967
-0.000241207
4.22224e-07
6.07507e-09
0.000181595
-0.000181845
1.72699e-11
-0.000151513
2.82842e-07
6.50461e-12
7.56614e-08
8.25923e-05
-0.000282643
-3.82424e-08
0.00028239
2.19293e-07
-5.23266e-08
9.97968e-09
2.67108e-07
3.39933e-07
8.25664e-05
0.000102474
-2.10784e-08
7.71636e-08
-9.93816e-09
1.06277e-07
-5.04864e-08