/*--------------------------------*- C++ -*----------------------------------*\
| =========                 |                                                 |
| \\      /  F ield         | OpenFOAM: The Open Source CFD Toolbox           |
|  \\    /   O peration     | Version:  v2006                                 |
|   \\  /    A nd           | Website:  www.openfoam.com                      |
|    \\/     M anipulation  |                                                 |
\*---------------------------------------------------------------------------*/
FoamFile
{
    version     2.0;
    format      ascii;
    class       volScalarField;
    location    "1000";
    object      epsilon;
}
// * * * * * * * * * * * * * * * * * * * * * * * * * * * * * * * * * * * * * //

dimensions      [0 2 -3 0 0 0 0];


internalField   nonuniform List<scalar> 
14361
(
1.19587e-06
9.50104e-07
3.65636e-06
2.29589e-06
5.67089e-06
1.92437e-05
9.63865e-06
4.24774e-06
4.71763e-06
1.0005e-05
1.00041e-05
4.71928e-06
4.7122e-06
2.97666e-06
9.99984e-06
5.66943e-06
2.97547e-06
4.71389e-06
9.99888e-06
1.00054e-05
2.2553e-05
2.25525e-05
2.25526e-05
1.00067e-05
2.25522e-05
1.92443e-05
2.29403e-05
7.27154e-06
9.63761e-06
7.26881e-06
2.29401e-05
1.27622e-05
4.24633e-06
4.8955e-06
1.13436e-05
4.89368e-06
1.27625e-05
1.13434e-05
2.82771e-06
1.97046e-06
1.96911e-06
2.82912e-06
1.84616e-06
2.22345e-06
3.02592e-06
3.65486e-06
1.84799e-06
2.22216e-06
3.02432e-06
1.66457e-06
2.29512e-06
1.54732e-06
2.54065e-06
1.66656e-06
1.54585e-06
2.53972e-06
1.19583e-06
1.42856e-06
1.19592e-06
1.19576e-06
1.42834e-06
6.90688e-07
6.90685e-07
5.67203e-06
1.92458e-05
3.65718e-06
2.29671e-06
9.64319e-06
4.24946e-06
3.6563e-06
2.2966e-06
9.6418e-06
4.24932e-06
1.92491e-05
5.67332e-06
5.67151e-06
1.9246e-05
9.50072e-07
3.6567e-06
2.29638e-06
9.50021e-07
3.65673e-06
2.29636e-06
9.64193e-06
4.249e-06
9.64211e-06
4.24902e-06
5.67034e-06
5.67156e-06
1.92418e-05
1.92438e-05
2.9775e-06
1.00052e-05
4.71496e-06
2.25596e-05
2.25596e-05
1.00087e-05
7.27317e-06
2.29479e-05
4.89721e-06
1.13464e-05
1.27659e-05
7.27224e-06
2.29486e-05
1.13462e-05
4.8971e-06
1.27662e-05
2.97823e-06
1.0008e-05
4.71982e-06
2.97705e-06
1.0003e-05
4.71439e-06
2.25568e-05
2.25563e-05
1.00069e-05
2.29478e-05
9.64377e-06
7.2724e-06
7.27637e-06
2.29469e-05
1.27658e-05
4.2508e-06
4.89665e-06
1.13454e-05
4.89896e-06
1.13462e-05
1.27649e-05
2.29516e-05
9.64422e-06
7.27255e-06
7.2763e-06
2.29497e-05
1.27671e-05
4.2508e-06
4.89696e-06
1.13455e-05
4.89902e-06
1.13463e-05
1.2766e-05
2.97634e-06
1.00001e-05
4.71342e-06
4.7198e-06
2.9778e-06
5.67436e-06
1.00028e-05
4.71758e-06
2.97924e-06
1.00047e-05
2.25397e-05
2.25401e-05
9.99737e-06
1.92438e-05
1.97018e-06
1.96996e-06
2.82926e-06
2.8304e-06
1.43041e-06
1.96942e-06
1.96989e-06
2.82859e-06
1.97113e-06
1.97144e-06
4.93239e-07
4.93236e-07
2.22351e-06
3.02641e-06
1.84723e-06
2.54152e-06
1.54673e-06
1.66552e-06
2.22289e-06
3.02579e-06
1.84679e-06
1.54666e-06
2.54125e-06
1.66532e-06
1.84896e-06
2.22324e-06
3.65859e-06
3.02603e-06
1.84695e-06
2.2247e-06
3.02799e-06
1.66744e-06
2.29737e-06
1.54653e-06
2.54113e-06
1.6653e-06
1.54815e-06
2.54227e-06
1.84888e-06
2.22315e-06
3.6588e-06
3.02582e-06
3.02779e-06
2.22475e-06
1.84671e-06
1.66737e-06
2.29733e-06
1.54647e-06
2.54105e-06
1.54812e-06
2.54213e-06
1.66514e-06
4.24785e-06
2.29741e-06
4.24788e-06
2.29742e-06
1.27383e-05
4.24527e-06
4.89666e-06
1.13286e-05
4.89321e-06
1.13206e-05
1.27492e-05
1.27391e-05
4.24532e-06
1.13286e-05
4.89683e-06
1.13206e-05
4.89319e-06
1.27501e-05
6.89753e-07
9.50703e-07
1.1966e-06
1.43203e-06
5.69524e-06
5.69715e-06
1.19718e-06
9.50971e-07
1.19729e-06
9.50949e-07
1.43145e-06
1.92851e-05
5.69778e-06
1.92844e-05
5.6939e-06
1.42855e-06
1.19669e-06
1.19645e-06
1.19588e-06
1.19585e-06
1.43169e-06
1.92804e-05
1.42871e-06
2.3017e-06
2.30166e-06
1.19577e-06
1.19582e-06
4.26034e-06
1.19681e-06
4.26035e-06
1.19598e-06
1.4315e-06
1.92722e-05
9.50709e-07
9.66844e-06
4.26002e-06
1.92808e-05
6.88748e-07
3.66683e-06
1.85053e-06
3.66853e-06
3.66879e-06
1.19697e-06
1.19718e-06
4.26036e-06
1.19694e-06
9.50951e-07
9.66873e-06
4.26017e-06
1.43046e-06
1.92886e-05
4.25647e-06
9.6408e-06
9.66277e-06
4.24949e-06
1.9262e-05
1.92853e-05
4.25679e-06
9.66924e-06
4.25993e-06
9.65905e-06
1.92805e-05
1.92646e-05
4.25963e-06
9.66914e-06
4.25614e-06
9.659e-06
4.91265e-07
4.91381e-07
4.91316e-07
6.9057e-07
6.90633e-07
1.19671e-06
2.30219e-06
3.66839e-06
2.30021e-06
1.19627e-06
3.66375e-06
9.50416e-07
1.92734e-05
1.92589e-05
9.5071e-07
3.66764e-06
2.302e-06
2.29982e-06
1.19613e-06
9.504e-07
3.66225e-06
5.69522e-06
5.69617e-06
1.42952e-06
5.68263e-06
5.68272e-06
1.9251e-05
1.9283e-05
1.9284e-05
1.92547e-05
5.68505e-06
1.43026e-06
1.42969e-06
5.6832e-06
5.69449e-06
1.92847e-05
1.92841e-05
1.92846e-05
1.92836e-05
1.43178e-06
5.69546e-06
1.43014e-06
5.69588e-06
5.69682e-06
4.25633e-06
4.24934e-06
1.19732e-06
9.51087e-07
9.51262e-07
2.30075e-06
3.6609e-06
3.66656e-06
2.29808e-06
9.51168e-07
2.30062e-06
2.29795e-06
4.25836e-06
9.67035e-06
9.66636e-06
4.25986e-06
4.25821e-06
9.67028e-06
9.66565e-06
4.25974e-06
9.51065e-07
1.1972e-06
9.50973e-07
2.30161e-06
3.66845e-06
3.66846e-06
2.3019e-06
1.19703e-06
1.19681e-06
9.50849e-07
2.30149e-06
3.66833e-06
3.66813e-06
2.3018e-06
1.92855e-05
1.92837e-05
1.43005e-06
5.69554e-06
5.6964e-06
5.69707e-06
1.92857e-05
5.68787e-06
5.69639e-06
5.69596e-06
1.42998e-06
1.92847e-05
1.92814e-05
1.42996e-06
5.69698e-06
1.43192e-06
5.69391e-06
5.69478e-06
1.92805e-05
1.92785e-05
1.92612e-05
1.92767e-05
1.92611e-05
1.43172e-06
5.69475e-06
1.42931e-06
5.68252e-06
5.68274e-06
1.92462e-05
1.92535e-05
1.92489e-05
1.92544e-05
1.43086e-06
5.67269e-06
5.67374e-06
5.68056e-06
5.68115e-06
4.25673e-06
9.6695e-06
4.2598e-06
9.65995e-06
9.50712e-07
2.29999e-06
3.66832e-06
1.19623e-06
2.30191e-06
3.66317e-06
9.50386e-07
9.5061e-07
2.29994e-06
3.66838e-06
1.19617e-06
2.30182e-06
3.66391e-06
9.50315e-07
4.25537e-06
9.64327e-06
9.65292e-06
4.24991e-06
4.25532e-06
9.64353e-06
9.65365e-06
4.24987e-06
2.29945e-06
1.19597e-06
3.65725e-06
9.50021e-07
3.66227e-06
9.50147e-07
2.29686e-06
2.29941e-06
1.19601e-06
3.65775e-06
9.49976e-07
3.66305e-06
9.50101e-07
2.29682e-06
5.69441e-06
5.69546e-06
1.42941e-06
5.68422e-06
5.68297e-06
1.92633e-05
1.92489e-05
1.92569e-05
1.43102e-06
5.67416e-06
5.68254e-06
5.68087e-06
1.92549e-05
3.66805e-06
1.19653e-06
9.50615e-07
2.29965e-06
1.19614e-06
3.66331e-06
9.50291e-07
4.25965e-06
9.66774e-06
4.256e-06
9.65685e-06
9.50559e-07
1.19636e-06
3.66778e-06
2.29954e-06
1.1961e-06
9.50244e-07
3.66255e-06
4.25474e-06
9.64429e-06
9.65321e-06
4.24971e-06
2.29911e-06
1.19591e-06
3.65773e-06
9.49938e-07
3.66251e-06
9.50043e-07
2.29664e-06
4.25482e-06
9.64287e-06
9.65126e-06
4.24947e-06
2.29905e-06
1.19583e-06
9.4993e-07
3.65729e-06
9.50011e-07
3.66184e-06
2.29653e-06
9.67119e-06
4.25697e-06
9.66052e-06
9.50754e-07
2.3022e-06
3.66919e-06
2.3002e-06
1.19641e-06
9.50463e-07
3.66349e-06
9.67184e-06
4.25697e-06
9.65987e-06
2.2996e-06
1.19607e-06
9.50085e-07
3.66276e-06
9.50208e-07
4.25531e-06
9.65405e-06
2.29957e-06
1.19604e-06
9.50084e-07
9.50215e-07
3.6623e-06
4.25526e-06
9.65316e-06
5.69209e-06
5.6931e-06
1.42912e-06
5.68159e-06
5.6803e-06
1.92567e-05
1.9253e-05
1.43069e-06
5.68013e-06
5.6786e-06
1.92504e-05
1.19668e-06
2.302e-06
3.66874e-06
2.29984e-06
1.19625e-06
9.50413e-07
3.66332e-06
4.26005e-06
4.25611e-06
9.65661e-06
9.67088e-06
4.25619e-06
9.65881e-06
2.29919e-06
1.19602e-06
9.50174e-07
3.66145e-06
2.29921e-06
1.19604e-06
9.50174e-07
3.66235e-06
4.25445e-06
9.65091e-06
4.25455e-06
9.65256e-06
1.92835e-05
1.92616e-05
1.92606e-05
1.43102e-06
5.67992e-06
5.68068e-06
1.92514e-05
1.92516e-05
9.6644e-06
9.64355e-06
4.2571e-06
4.25079e-06
4.90348e-07
4.90843e-07
4.90792e-07
4.90356e-07
6.88826e-07
3.66745e-06
1.19731e-06
2.30132e-06
9.51165e-07
3.03047e-06
1.19703e-06
1.19701e-06
2.3011e-06
9.51153e-07
2.29868e-06
9.51039e-07
9.64625e-06
9.66538e-06
4.25714e-06
4.25088e-06
3.66745e-06
1.19724e-06
1.19729e-06
2.3011e-06
9.5117e-07
2.29871e-06
9.51074e-07
9.66758e-06
4.25968e-06
9.67061e-06
4.25873e-06
1.19711e-06
2.30174e-06
3.66822e-06
1.19683e-06
9.50887e-07
2.30183e-06
9.5102e-07
9.66801e-06
4.25962e-06
9.66985e-06
4.25878e-06
2.30168e-06
9.50869e-07
1.19682e-06
1.19724e-06
3.66798e-06
2.30181e-06
9.51022e-07
9.50888e-07
1.19692e-06
2.30213e-06
3.66843e-06
9.50965e-07
4.26035e-06
9.672e-06
9.50976e-07
2.30214e-06
3.66926e-06
1.1973e-06
9.51024e-07
3.66903e-06
9.67287e-06
9.66839e-06
2.30122e-06
9.51056e-07
9.66611e-06
4.25768e-06
4.25751e-06
9.50968e-07
3.66873e-06
1.19718e-06
3.66793e-06
2.30204e-06
2.30207e-06
9.51116e-07
1.19703e-06
2.30202e-06
3.66894e-06
2.302e-06
1.19719e-06
9.51071e-07
3.66935e-06
9.67063e-06
4.26023e-06
4.25921e-06
9.67244e-06
4.25909e-06
9.66971e-06
5.69699e-06
5.69735e-06
1.43202e-06
5.69759e-06
5.69923e-06
1.92902e-05
1.92889e-05
1.92908e-05
4.73421e-06
5.69332e-06
2.98685e-06
1.00431e-05
1.00368e-05
4.73554e-06
2.98595e-06
4.73656e-06
2.98776e-06
5.69714e-06
1.00457e-05
4.73679e-06
1.00472e-05
2.98779e-06
1.92861e-05
4.73968e-06
2.98896e-06
5.6974e-06
1.00482e-05
4.74013e-06
1.00488e-05
2.98873e-06
1.92854e-05
4.72981e-06
2.98672e-06
1.00403e-05
5.68967e-06
4.73342e-06
1.00359e-05
2.98522e-06
1.9277e-05
1.2784e-05
4.91146e-06
1.13591e-05
4.25949e-06
4.91e-06
1.1359e-05
1.27844e-05
1.27846e-05
1.1359e-05
4.91151e-06
4.25952e-06
1.13589e-05
4.91024e-06
1.2785e-05
1.92684e-05
2.29895e-05
7.29659e-06
9.66589e-06
7.2926e-06
2.2993e-05
1.27837e-05
4.91091e-06
1.13585e-05
4.25903e-06
4.90947e-06
1.13582e-05
1.27844e-05
1.92762e-05
1.2784e-05
1.1359e-05
4.91167e-06
4.26036e-06
1.27854e-05
1.13574e-05
4.91179e-06
2.30022e-05
9.67067e-06
7.29714e-06
2.2997e-05
7.2974e-06
1.27842e-05
4.91126e-06
1.13587e-05
4.26031e-06
1.27851e-05
4.91155e-06
1.13576e-05
1.929e-05
1.27662e-05
1.13484e-05
4.90752e-06
4.25467e-06
1.13421e-05
4.90539e-06
1.27741e-05
2.29677e-05
9.64997e-06
7.27911e-06
7.2832e-06
2.29434e-05
2.29748e-05
7.29181e-06
9.65631e-06
7.28928e-06
2.29916e-05
1.27616e-05
4.25199e-06
1.13303e-05
4.89889e-06
1.13381e-05
4.90203e-06
1.27512e-05
1.92758e-05
1.92792e-05
1.27806e-05
4.25853e-06
1.13555e-05
4.90645e-06
1.13566e-05
4.9087e-06
1.27789e-05
2.29955e-05
7.29672e-06
9.66738e-06
2.29972e-05
7.29392e-06
1.2783e-05
4.25905e-06
1.13577e-05
4.91107e-06
1.27833e-05
1.13577e-05
4.90977e-06
2.29842e-05
7.28699e-06
9.66227e-06
7.29207e-06
2.29801e-05
1.92773e-05
1.92677e-05
1.27821e-05
1.13574e-05
4.91044e-06
4.25864e-06
4.90908e-06
1.13571e-05
1.27825e-05
2.2992e-05
7.29606e-06
9.66717e-06
7.2931e-06
2.29939e-05
1.27791e-05
4.25801e-06
4.90561e-06
1.13542e-05
4.90778e-06
1.13555e-05
1.27773e-05
2.29806e-05
9.66193e-06
7.28611e-06
7.2909e-06
2.29769e-05
1.92699e-05
1.9261e-05
4.73145e-06
2.98716e-06
1.00436e-05
5.69086e-06
2.98548e-06
1.00381e-05
4.73584e-06
1.00382e-05
2.26191e-05
2.26246e-05
2.26126e-05
2.26079e-05
1.0051e-05
4.73389e-06
2.98792e-06
1.00459e-05
5.69163e-06
2.98682e-06
1.00403e-05
4.73652e-06
1.00305e-05
2.25773e-05
2.25762e-05
2.25869e-05
2.25843e-05
1.00191e-05
4.7288e-06
5.68831e-06
1.00228e-05
2.98237e-06
2.98439e-06
1.00297e-05
4.72427e-06
4.73098e-06
5.68795e-06
1.00243e-05
2.98337e-06
2.98551e-06
1.00292e-05
4.72706e-06
1.92679e-05
1.92733e-05
1.92753e-05
1.92708e-05
4.73074e-06
5.68898e-06
2.98243e-06
1.0019e-05
1.00299e-05
2.98403e-06
4.72795e-06
1.00534e-05
2.26418e-05
2.26462e-05
2.2634e-05
2.26297e-05
1.0057e-05
4.73045e-06
2.98324e-06
5.68737e-06
1.0017e-05
1.00288e-05
2.98471e-06
4.72718e-06
4.73472e-06
2.98744e-06
1.00435e-05
5.69224e-06
1.00364e-05
4.7364e-06
2.98659e-06
1.00445e-05
2.25959e-05
2.25991e-05
2.26256e-05
2.26219e-05
1.00352e-05
1.92853e-05
1.92868e-05
1.92866e-05
1.92846e-05
4.7364e-06
5.69718e-06
2.98715e-06
1.00455e-05
1.00468e-05
4.73463e-06
2.98793e-06
1.00588e-05
2.26419e-05
2.26464e-05
1.00595e-05
2.26478e-05
2.2643e-05
4.73851e-06
2.98775e-06
5.69733e-06
1.00477e-05
1.00486e-05
2.98847e-06
4.73727e-06
4.73838e-06
2.98834e-06
1.00467e-05
5.69701e-06
4.73832e-06
1.00487e-05
2.98838e-06
1.00571e-05
2.26309e-05
2.26354e-05
2.26416e-05
2.26368e-05
1.00509e-05
1.27665e-05
1.13482e-05
4.90729e-06
4.25451e-06
1.1342e-05
4.90492e-06
1.27744e-05
1.27618e-05
4.25185e-06
1.13301e-05
4.89845e-06
1.13379e-05
4.90184e-06
1.27514e-05
1.27815e-05
1.13512e-05
4.90973e-06
4.25914e-06
1.2777e-05
1.13551e-05
4.91056e-06
2.29998e-05
9.67012e-06
7.2969e-06
2.3002e-05
7.29765e-06
2.30014e-05
7.29561e-06
9.66933e-06
2.2994e-05
7.29625e-06
1.27823e-05
4.25995e-06
1.13578e-05
4.91117e-06
1.27837e-05
1.13563e-05
4.91138e-06
1.27819e-05
1.13511e-05
4.90929e-06
4.259e-06
1.27774e-05
1.1355e-05
4.91029e-06
2.30012e-05
9.6699e-06
7.29604e-06
7.29659e-06
2.30033e-05
2.30026e-05
7.29439e-06
9.66894e-06
2.29951e-05
7.29537e-06
1.27828e-05
4.25982e-06
1.13577e-05
4.91086e-06
1.13562e-05
4.91098e-06
1.27841e-05
1.92855e-05
1.92869e-05
4.73491e-06
5.69667e-06
2.98713e-06
1.00458e-05
1.00462e-05
4.73367e-06
2.98771e-06
4.74045e-06
2.98801e-06
5.69775e-06
1.00489e-05
2.98862e-06
1.00493e-05
4.73926e-06
4.74015e-06
2.98818e-06
1.00467e-05
5.69726e-06
2.98829e-06
4.74006e-06
1.00492e-05
1.00583e-05
2.26393e-05
2.26374e-05
2.26415e-05
2.26432e-05
1.00535e-05
1.9286e-05
4.73456e-06
5.69156e-06
1.00356e-05
2.98612e-06
4.7382e-06
5.69519e-06
2.98834e-06
1.00467e-05
1.00419e-05
4.73894e-06
2.98791e-06
4.73431e-06
5.69467e-06
2.98696e-06
1.00434e-05
1.00392e-05
4.73493e-06
2.98649e-06
1.00572e-05
2.26436e-05
2.26438e-05
2.26362e-05
2.26366e-05
1.00588e-05
1.92786e-05
1.92833e-05
4.73514e-06
2.98758e-06
5.69665e-06
1.00446e-05
4.73578e-06
1.00452e-05
2.98738e-06
4.73474e-06
2.98643e-06
5.69617e-06
1.00419e-05
1.00441e-05
4.73251e-06
2.98738e-06
4.73945e-06
5.69716e-06
2.98758e-06
1.00455e-05
1.00477e-05
4.73747e-06
2.98868e-06
1.00574e-05
2.26422e-05
2.26421e-05
1.00596e-05
2.26417e-05
2.26415e-05
1.00545e-05
2.26247e-05
2.26252e-05
2.26324e-05
2.2632e-05
1.00461e-05
1.92825e-05
1.92749e-05
1.92647e-05
1.92731e-05
1.92636e-05
1.00292e-05
2.25816e-05
2.25826e-05
2.25879e-05
2.25873e-05
1.0021e-05
4.73341e-06
2.98697e-06
1.00433e-05
5.69057e-06
4.73586e-06
1.00388e-05
2.98596e-06
1.00348e-05
2.26126e-05
2.26163e-05
1.00451e-05
2.26074e-05
2.26046e-05
4.72916e-06
1.00238e-05
5.68744e-06
2.98187e-06
1.00292e-05
4.72464e-06
2.98398e-06
4.72974e-06
5.68717e-06
1.0025e-05
2.98367e-06
1.00282e-05
4.72706e-06
2.98533e-06
1.92467e-05
1.92518e-05
1.92491e-05
1.92534e-05
1.00128e-05
2.25688e-05
2.25704e-05
1.00177e-05
2.25663e-05
2.2568e-05
4.71852e-06
2.97727e-06
5.67541e-06
1.00056e-05
1.00075e-05
2.9786e-06
4.71613e-06
4.72187e-06
2.97867e-06
5.67634e-06
1.00087e-05
1.00105e-05
2.98012e-06
4.71973e-06
4.71962e-06
1.00163e-05
2.98086e-06
5.67677e-06
4.72283e-06
1.0013e-05
2.97928e-06
4.72277e-06
1.00183e-05
2.9826e-06
5.67761e-06
4.72568e-06
1.00155e-05
2.98091e-06
1.00116e-05
2.2559e-05
2.25607e-05
2.25595e-05
2.25613e-05
1.00091e-05
1.27809e-05
4.25845e-06
1.13554e-05
4.90622e-06
1.13565e-05
4.90832e-06
1.27792e-05
2.2997e-05
7.29569e-06
9.66784e-06
2.29987e-05
7.2931e-06
1.27834e-05
4.25895e-06
1.13576e-05
4.91066e-06
1.13576e-05
1.27837e-05
4.90948e-06
2.29857e-05
7.286e-06
9.66309e-06
7.29103e-06
2.29814e-05
1.27724e-05
1.13523e-05
4.90441e-06
4.25333e-06
1.27742e-05
1.13509e-05
4.90199e-06
2.29537e-05
9.6452e-06
7.27448e-06
2.29516e-05
7.27822e-06
2.29641e-05
7.28466e-06
9.65029e-06
2.29671e-05
7.28014e-06
1.27684e-05
4.25164e-06
1.13468e-05
4.89797e-06
1.27672e-05
1.13477e-05
4.90001e-06
1.27728e-05
1.13522e-05
4.90418e-06
4.25329e-06
1.27746e-05
1.13508e-05
4.90187e-06
2.2955e-05
9.64562e-06
7.27328e-06
7.27695e-06
2.29529e-05
2.29655e-05
7.28355e-06
9.65094e-06
2.29686e-05
7.27904e-06
1.27687e-05
4.25159e-06
1.13467e-05
4.89786e-06
1.13476e-05
4.89982e-06
1.27676e-05
4.7298e-06
2.98686e-06
1.00424e-05
5.69065e-06
2.98552e-06
4.73282e-06
1.00385e-05
1.00334e-05
2.25892e-05
2.259e-05
2.25947e-05
2.25958e-05
1.00251e-05
4.73543e-06
2.98772e-06
1.00454e-05
5.69157e-06
1.00417e-05
4.7384e-06
2.98634e-06
1.00382e-05
2.26232e-05
2.26216e-05
2.26131e-05
1.00488e-05
2.26145e-05
4.73378e-06
1.00291e-05
5.68937e-06
2.98371e-06
1.00334e-05
2.98571e-06
4.72974e-06
4.72814e-06
5.68807e-06
1.00254e-05
2.98289e-06
2.98474e-06
1.00299e-05
4.72407e-06
1.92668e-05
1.92498e-05
1.92552e-05
1.00158e-05
2.25762e-05
2.25766e-05
1.00219e-05
2.25726e-05
2.25728e-05
4.72373e-06
2.97856e-06
5.67728e-06
1.001e-05
2.98023e-06
1.00124e-05
4.72078e-06
4.71784e-06
5.67512e-06
1.00077e-05
2.97903e-06
4.72487e-06
1.00216e-05
2.98282e-06
5.67849e-06
2.98095e-06
4.72826e-06
1.00185e-05
4.71913e-06
1.00175e-05
2.98175e-06
5.67675e-06
4.72249e-06
1.00141e-05
2.98002e-06
1.00136e-05
2.25625e-05
2.25626e-05
1.92468e-05
1.92528e-05
1.2782e-05
1.13572e-05
4.91043e-06
4.25855e-06
1.1357e-05
4.90885e-06
1.27827e-05
2.29908e-05
7.2946e-06
9.66542e-06
7.29121e-06
2.29937e-05
1.27788e-05
4.25805e-06
1.13539e-05
4.90506e-06
1.13552e-05
4.90772e-06
1.2777e-05
2.29783e-05
9.65983e-06
7.28387e-06
7.2889e-06
2.29747e-05
1.27714e-05
4.90369e-06
1.13509e-05
4.25282e-06
1.27729e-05
4.90149e-06
1.13497e-05
2.29538e-05
9.64608e-06
7.27467e-06
2.29522e-05
7.27805e-06
2.29632e-05
7.28405e-06
9.65085e-06
2.29655e-05
7.27983e-06
1.27678e-05
4.25132e-06
4.89789e-06
1.13463e-05
1.27669e-05
4.89967e-06
1.1347e-05
1.2771e-05
1.13506e-05
4.90345e-06
4.25256e-06
1.27724e-05
1.13494e-05
4.90084e-06
2.29523e-05
9.6445e-06
7.27232e-06
7.27574e-06
2.29511e-05
2.29612e-05
7.2818e-06
9.64895e-06
2.29634e-05
7.27747e-06
1.27675e-05
4.25138e-06
1.13461e-05
4.89722e-06
1.13467e-05
4.89941e-06
1.27666e-05
2.29959e-05
7.29769e-06
9.66936e-06
7.29451e-06
2.29983e-05
1.27811e-05
4.25881e-06
4.90619e-06
1.13564e-05
4.90903e-06
1.13577e-05
1.27791e-05
2.29828e-05
9.66412e-06
7.28659e-06
7.29252e-06
2.2978e-05
2.2999e-05
7.29607e-06
9.66961e-06
7.29335e-06
2.30014e-05
1.27818e-05
4.25881e-06
1.13563e-05
4.90656e-06
1.13576e-05
4.90895e-06
1.27798e-05
2.29863e-05
9.66387e-06
7.28582e-06
7.29112e-06
2.29811e-05
1.27718e-05
4.90431e-06
1.13527e-05
4.25307e-06
1.27738e-05
4.90136e-06
1.1351e-05
2.29498e-05
9.64546e-06
7.27746e-06
2.29609e-05
7.28445e-06
9.65099e-06
2.29641e-05
7.27916e-06
1.27672e-05
4.25132e-06
4.89958e-06
1.13475e-05
1.27724e-05
1.13526e-05
4.90425e-06
4.25301e-06
1.27746e-05
1.13509e-05
4.90155e-06
2.29511e-05
9.64426e-06
7.27636e-06
2.29629e-05
7.28333e-06
9.64978e-06
2.29666e-05
7.2784e-06
1.27676e-05
4.2512e-06
1.13472e-05
4.89932e-06
4.72755e-06
2.986e-06
1.00356e-05
5.6872e-06
2.98438e-06
4.73133e-06
1.0031e-05
4.73259e-06
2.98709e-06
1.00391e-05
5.68823e-06
1.00347e-05
4.7362e-06
2.98543e-06
1.00256e-05
2.25774e-05
2.25772e-05
2.25823e-05
2.25818e-05
1.00178e-05
1.00301e-05
2.26055e-05
2.26061e-05
2.25986e-05
1.00403e-05
2.25982e-05
4.73085e-06
5.68616e-06
1.00231e-05
2.98267e-06
1.00269e-05
2.98451e-06
4.72713e-06
4.72583e-06
5.68496e-06
1.00189e-05
2.98161e-06
2.98348e-06
1.0023e-05
4.72194e-06
1.92591e-05
1.92489e-05
1.92523e-05
1.00099e-05
2.25658e-05
2.25654e-05
1.00148e-05
2.25636e-05
2.25631e-05
4.72196e-06
5.6757e-06
2.97949e-06
1.00096e-05
4.71662e-06
5.67394e-06
1.00047e-05
2.97843e-06
4.72286e-06
1.00168e-05
2.98176e-06
5.67667e-06
2.9802e-06
4.72584e-06
1.00141e-05
4.71749e-06
1.00123e-05
2.98071e-06
5.67505e-06
4.7206e-06
1.00095e-05
2.97908e-06
1.0009e-05
2.2557e-05
2.25565e-05
1.92459e-05
1.92495e-05
1.27824e-05
4.91112e-06
1.13584e-05
4.25902e-06
4.90935e-06
1.13581e-05
1.27833e-05
1.27787e-05
4.25812e-06
4.90507e-06
1.13546e-05
4.90802e-06
1.13561e-05
1.27766e-05
2.29755e-05
9.65989e-06
7.28458e-06
7.29035e-06
2.29715e-05
2.29958e-05
7.29564e-06
9.66849e-06
7.29259e-06
2.29987e-05
1.27803e-05
4.25822e-06
4.9056e-06
1.13548e-05
4.90814e-06
1.13563e-05
1.27783e-05
2.29828e-05
9.66248e-06
7.28503e-06
7.2902e-06
2.29783e-05
1.27697e-05
4.90324e-06
1.13508e-05
4.2523e-06
1.27715e-05
4.90046e-06
1.13493e-05
2.29571e-05
7.28271e-06
9.64831e-06
2.29593e-05
7.27781e-06
1.27713e-05
4.90352e-06
1.1351e-05
4.25237e-06
1.27731e-05
4.90098e-06
1.13495e-05
2.29621e-05
7.2828e-06
9.64943e-06
2.29652e-05
7.27818e-06
1.92787e-05
1.92664e-05
1.92644e-05
1.00052e-05
2.25579e-05
2.25576e-05
1.00134e-05
2.25532e-05
2.25518e-05
4.71689e-06
5.67362e-06
2.97815e-06
1.00036e-05
4.72019e-06
1.00142e-05
2.98032e-06
5.67572e-06
4.72066e-06
2.98009e-06
1.00101e-05
4.7198e-06
1.0016e-05
2.98258e-06
5.67599e-06
4.72599e-06
2.97932e-06
1.00108e-05
1.00021e-05
2.25416e-05
2.25409e-05
1.92425e-05
1.92488e-05
1.92495e-05
2.29771e-05
9.65837e-06
7.2926e-06
7.29034e-06
2.2992e-05
2.29709e-05
9.65239e-06
7.28081e-06
7.28472e-06
2.29486e-05
1.27685e-05
4.90805e-06
1.135e-05
4.25557e-06
4.90619e-06
1.13442e-05
1.27757e-05
1.27642e-05
4.90027e-06
1.1333e-05
4.25308e-06
4.90317e-06
1.13404e-05
1.27544e-05
2.29755e-05
9.65468e-06
7.28016e-06
7.28452e-06
2.29532e-05
2.29814e-05
9.66001e-06
7.29217e-06
7.28962e-06
2.29952e-05
1.27694e-05
1.135e-05
4.90839e-06
4.25565e-06
1.13442e-05
4.90643e-06
1.27764e-05
1.27652e-05
4.90045e-06
1.1333e-05
4.25311e-06
1.13405e-05
4.90349e-06
1.27553e-05
2.29995e-05
9.67009e-06
7.29592e-06
2.29936e-05
7.29632e-06
1.27823e-05
1.13576e-05
4.91073e-06
4.25988e-06
1.27832e-05
4.91106e-06
1.13566e-05
2.29975e-05
9.67058e-06
7.29651e-06
2.29991e-05
7.29741e-06
1.27818e-05
4.90989e-06
1.13524e-05
4.25928e-06
1.27781e-05
4.91051e-06
1.13558e-05
2.30014e-05
9.6699e-06
7.29502e-06
2.29963e-05
7.29555e-06
1.27826e-05
1.13574e-05
4.91072e-06
4.25989e-06
1.27834e-05
1.13564e-05
4.91114e-06
2.2999e-05
9.67006e-06
7.29537e-06
2.3e-05
7.29627e-06
1.27823e-05
1.13523e-05
4.9101e-06
4.25929e-06
1.27787e-05
1.13557e-05
4.91071e-06
1.27836e-05
4.91156e-06
1.13591e-05
4.26037e-06
1.27849e-05
4.91187e-06
1.13576e-05
2.30016e-05
9.67162e-06
7.29783e-06
2.30037e-05
7.29869e-06
2.30044e-05
7.29643e-06
9.67252e-06
2.30064e-05
7.29697e-06
2.30059e-05
9.67159e-06
7.29472e-06
2.29983e-05
7.29573e-06
2.29821e-05
9.66079e-06
7.29387e-06
7.29167e-06
2.29962e-05
1.27697e-05
4.90903e-06
4.25593e-06
1.13509e-05
4.90716e-06
1.13451e-05
1.2777e-05
1.27698e-05
4.25576e-06
4.90849e-06
1.13507e-05
4.90646e-06
1.13448e-05
1.27772e-05
2.29993e-05
9.67084e-06
7.29717e-06
2.30002e-05
7.29839e-06
1.27834e-05
4.91145e-06
1.13587e-05
4.26039e-06
1.27841e-05
4.91195e-06
1.13576e-05
1.2783e-05
4.91093e-06
4.25988e-06
1.13535e-05
1.27793e-05
4.91138e-06
1.13568e-05
2.3003e-05
7.29627e-06
9.67248e-06
2.30044e-05
7.2971e-06
1.27836e-05
4.25976e-06
4.91037e-06
1.13533e-05
1.27798e-05
4.91102e-06
1.13568e-05
2.3005e-05
9.67212e-06
7.2956e-06
2.29989e-05
7.29617e-06
4.73964e-06
2.98764e-06
1.00494e-05
5.69887e-06
4.73741e-06
2.98851e-06
1.00511e-05
1.00639e-05
2.26404e-05
2.26463e-05
1.00577e-05
2.26528e-05
2.26471e-05
4.73899e-06
2.98895e-06
1.00507e-05
5.69846e-06
4.73809e-06
2.98952e-06
1.00513e-05
1.00652e-05
2.26557e-05
2.2654e-05
1.00658e-05
2.26583e-05
2.26543e-05
4.7385e-06
5.69802e-06
1.00473e-05
2.98816e-06
4.73648e-06
2.9892e-06
1.00504e-05
4.74027e-06
5.69908e-06
1.00519e-05
2.98936e-06
4.7423e-06
2.98863e-06
1.00525e-05
1.92908e-05
1.92921e-05
1.92923e-05
2.54266e-06
1.66736e-06
1.54817e-06
1.66887e-06
2.29674e-06
2.54163e-06
1.54926e-06
1.54813e-06
1.66739e-06
2.54275e-06
1.66882e-06
2.29674e-06
1.54921e-06
2.54167e-06
4.91289e-07
4.91333e-07
6.89872e-07
4.91833e-07
4.91794e-07
2.95334e-07
2.94307e-07
2.83663e-06
1.97477e-06
1.97582e-06
1.43002e-06
1.97415e-06
1.97349e-06
2.83837e-06
2.83825e-06
1.97525e-06
1.42991e-06
1.9753e-06
1.97466e-06
2.83839e-06
1.97461e-06
2.83108e-06
1.43048e-06
1.96969e-06
1.97047e-06
1.97117e-06
1.97199e-06
2.8295e-06
2.83661e-06
1.97497e-06
1.97501e-06
1.42977e-06
1.97367e-06
2.83795e-06
1.97372e-06
2.83141e-06
1.43073e-06
1.97026e-06
1.97015e-06
1.97188e-06
1.97179e-06
2.82958e-06
1.66797e-06
2.54755e-06
1.55021e-06
2.30088e-06
2.54664e-06
1.54875e-06
1.67001e-06
1.6678e-06
1.55016e-06
2.5474e-06
2.3008e-06
1.54869e-06
2.5464e-06
1.66985e-06
2.83568e-06
1.97446e-06
1.97478e-06
1.42954e-06
1.97307e-06
2.83727e-06
1.97337e-06
2.83081e-06
1.43042e-06
1.97156e-06
1.97136e-06
1.85161e-06
3.66608e-06
2.22878e-06
3.03431e-06
2.22893e-06
3.03383e-06
1.85063e-06
3.03074e-06
3.66282e-06
1.84964e-06
3.66426e-06
2.22784e-06
2.22793e-06
3.03162e-06
1.85126e-06
2.22988e-06
3.66848e-06
3.03572e-06
2.2294e-06
1.85247e-06
3.03561e-06
1.85123e-06
2.23021e-06
3.66858e-06
3.03556e-06
2.22959e-06
1.85252e-06
3.03536e-06
2.83953e-06
1.97425e-06
1.97532e-06
1.4323e-06
2.83853e-06
1.9765e-06
1.9754e-06
6.89651e-07
4.91398e-07
6.89797e-07
4.91866e-07
4.9182e-07
2.95369e-07
2.94336e-07
6.89759e-07
4.91335e-07
6.89922e-07
4.91955e-07
4.91845e-07
2.95381e-07
2.94353e-07
6.89717e-07
4.91289e-07
6.89846e-07
4.91795e-07
4.9181e-07
2.95331e-07
2.94299e-07
6.90096e-07
4.93198e-07
4.93129e-07
4.92496e-07
4.9242e-07
2.96433e-07
2.97589e-07
6.90108e-07
4.93193e-07
4.93188e-07
4.9248e-07
4.92456e-07
2.9643e-07
2.97588e-07
6.901e-07
4.93197e-07
4.92441e-07
4.92566e-07
2.96471e-07
2.97636e-07
6.90235e-07
4.93269e-07
4.92538e-07
4.92589e-07
2.96479e-07
2.9764e-07
1.66825e-06
1.55046e-06
2.54811e-06
2.30141e-06
2.54716e-06
1.54904e-06
1.67025e-06
1.85047e-06
2.22955e-06
3.03592e-06
3.66692e-06
2.22829e-06
3.03441e-06
1.8523e-06
1.66951e-06
2.30118e-06
2.54561e-06
1.54839e-06
2.54681e-06
1.54989e-06
1.66743e-06
1.85151e-06
3.66628e-06
3.03208e-06
2.2269e-06
2.22847e-06
3.03425e-06
1.84956e-06
1.85018e-06
2.22911e-06
3.03545e-06
3.66575e-06
2.22771e-06
3.03377e-06
1.85207e-06
1.66807e-06
1.55039e-06
2.54784e-06
2.30117e-06
1.54894e-06
2.54681e-06
1.67011e-06
1.66931e-06
2.30086e-06
1.54823e-06
2.54507e-06
1.54976e-06
2.54636e-06
1.6672e-06
1.85121e-06
3.66493e-06
3.03113e-06
2.22618e-06
2.22787e-06
3.03348e-06
1.84914e-06
2.83606e-06
1.43155e-06
1.97223e-06
1.97263e-06
1.97408e-06
1.97433e-06
2.83365e-06
2.83518e-06
1.97309e-06
1.42887e-06
1.974e-06
1.97369e-06
1.97276e-06
2.83444e-06
2.8373e-06
1.97398e-06
1.43116e-06
1.97481e-06
2.8376e-06
1.97528e-06
1.97442e-06
2.83842e-06
1.97518e-06
1.43019e-06
1.97594e-06
2.83867e-06
1.97521e-06
1.97449e-06
2.83871e-06
1.43201e-06
1.9741e-06
1.97465e-06
1.97587e-06
2.83776e-06
1.97527e-06
1.67006e-06
1.54906e-06
2.54689e-06
2.30013e-06
2.54616e-06
1.54988e-06
1.66879e-06
1.84927e-06
2.22733e-06
3.6625e-06
3.02995e-06
3.03097e-06
2.2274e-06
1.85013e-06
1.85158e-06
2.22907e-06
3.03408e-06
3.66571e-06
3.03355e-06
2.22919e-06
1.85063e-06
1.66793e-06
1.54925e-06
2.29891e-06
2.54363e-06
2.54472e-06
1.54839e-06
1.66913e-06
1.66977e-06
1.54895e-06
2.54657e-06
2.30001e-06
2.54578e-06
1.54978e-06
1.66849e-06
1.66763e-06
1.54916e-06
2.29878e-06
2.54323e-06
2.54438e-06
1.54829e-06
1.66887e-06
1.66919e-06
1.55045e-06
2.54785e-06
2.3018e-06
1.67067e-06
2.54801e-06
1.54952e-06
1.85285e-06
2.22941e-06
3.6691e-06
3.03561e-06
2.23032e-06
3.03637e-06
1.85123e-06
1.85139e-06
2.23023e-06
3.03572e-06
3.6685e-06
2.22978e-06
1.85256e-06
3.03566e-06
1.67075e-06
1.54947e-06
2.30219e-06
2.54794e-06
2.54841e-06
1.55066e-06
1.66893e-06
1.66894e-06
1.55035e-06
2.54751e-06
2.30168e-06
1.6704e-06
2.54773e-06
1.54942e-06
1.85248e-06
2.2292e-06
3.66894e-06
3.03521e-06
3.03587e-06
2.23e-06
1.85094e-06
1.85097e-06
2.22977e-06
3.03512e-06
3.66823e-06
1.8521e-06
3.03514e-06
2.22939e-06
1.67053e-06
1.54939e-06
2.30208e-06
2.54769e-06
2.54812e-06
1.55058e-06
1.66872e-06
2.83869e-06
1.4318e-06
1.97442e-06
1.97446e-06
1.97547e-06
2.83795e-06
1.97543e-06
2.83801e-06
1.97482e-06
1.43152e-06
1.97445e-06
2.83804e-06
1.97508e-06
1.97536e-06
2.83849e-06
1.43187e-06
1.97394e-06
1.97427e-06
2.83743e-06
1.97552e-06
1.97514e-06
2.83835e-06
1.97581e-06
1.43019e-06
1.97536e-06
2.83882e-06
1.97493e-06
1.97452e-06
2.83616e-06
1.97461e-06
1.97519e-06
1.42974e-06
2.83767e-06
1.97361e-06
1.9734e-06
2.83577e-06
1.43129e-06
1.97197e-06
1.97279e-06
2.83375e-06
1.97363e-06
1.97429e-06
2.83138e-06
1.4289e-06
1.97235e-06
1.97318e-06
2.83324e-06
1.97074e-06
1.97157e-06
1.66942e-06
2.3009e-06
2.54546e-06
1.54823e-06
2.54656e-06
1.54974e-06
1.66732e-06
1.85039e-06
2.22969e-06
3.03568e-06
3.66667e-06
3.03419e-06
1.85229e-06
2.22821e-06
1.66817e-06
1.55034e-06
2.30113e-06
2.54785e-06
2.54697e-06
1.67021e-06
1.54891e-06
1.8514e-06
3.03183e-06
3.66588e-06
2.22649e-06
3.03396e-06
2.22826e-06
1.84938e-06
1.66929e-06
2.30084e-06
2.54535e-06
1.54818e-06
2.5464e-06
1.54968e-06
1.66721e-06
1.85018e-06
2.22953e-06
3.03533e-06
3.66688e-06
1.85203e-06
3.0339e-06
2.22827e-06
1.66801e-06
1.55027e-06
2.30106e-06
2.54763e-06
1.67004e-06
2.54679e-06
1.54884e-06
1.85124e-06
3.03174e-06
3.66638e-06
2.22693e-06
3.03374e-06
1.8493e-06
2.22846e-06
1.6664e-06
2.54474e-06
1.54903e-06
2.29842e-06
1.66854e-06
2.54353e-06
1.54749e-06
1.84919e-06
2.22333e-06
3.65918e-06
3.02668e-06
2.22486e-06
3.02867e-06
1.84716e-06
1.84823e-06
3.03135e-06
2.22653e-06
3.6598e-06
2.22476e-06
1.85035e-06
3.02903e-06
1.66761e-06
2.29779e-06
2.54172e-06
1.54671e-06
2.54278e-06
1.54828e-06
1.6655e-06
1.66633e-06
2.54462e-06
1.54899e-06
2.29839e-06
1.66846e-06
2.54348e-06
1.54745e-06
1.84919e-06
2.22374e-06
3.65989e-06
3.02649e-06
3.0285e-06
2.22536e-06
1.84716e-06
1.84823e-06
3.03125e-06
2.22701e-06
3.6605e-06
1.8503e-06
3.02894e-06
2.22528e-06
1.66755e-06
2.29775e-06
2.54164e-06
1.54667e-06
2.54264e-06
1.54824e-06
1.66544e-06
2.83631e-06
1.43134e-06
1.97272e-06
1.97267e-06
1.97418e-06
1.97421e-06
2.83437e-06
2.83183e-06
1.42913e-06
1.97313e-06
1.97307e-06
1.97148e-06
2.83383e-06
1.97141e-06
1.85017e-06
3.03535e-06
2.22924e-06
3.66643e-06
3.03386e-06
2.22798e-06
1.85203e-06
1.66923e-06
2.30062e-06
2.54511e-06
1.54805e-06
2.54622e-06
1.54957e-06
1.66712e-06
1.85124e-06
3.66576e-06
3.03157e-06
2.22674e-06
3.03364e-06
2.22827e-06
1.84923e-06
1.8499e-06
3.0349e-06
2.22922e-06
3.66588e-06
3.03327e-06
2.22781e-06
1.85181e-06
1.66906e-06
2.30056e-06
1.54799e-06
2.54478e-06
1.54951e-06
2.54602e-06
1.66694e-06
1.85094e-06
3.66514e-06
3.03083e-06
2.22632e-06
3.03303e-06
1.84892e-06
2.22796e-06
1.6662e-06
2.54439e-06
1.54885e-06
2.29809e-06
1.66836e-06
2.54323e-06
1.54727e-06
1.8491e-06
2.22374e-06
3.65961e-06
3.02674e-06
2.22523e-06
3.02859e-06
1.84711e-06
1.84812e-06
3.03113e-06
2.22682e-06
3.6602e-06
2.22512e-06
1.85022e-06
3.0289e-06
1.66743e-06
2.2975e-06
2.54158e-06
1.54653e-06