/*--------------------------------*- C++ -*----------------------------------*\
| =========                 |                                                 |
| \\      /  F ield         | OpenFOAM: The Open Source CFD Toolbox           |
|  \\    /   O peration     | Version:  v2006                                 |
|   \\  /    A nd           | Website:  www.openfoam.com                      |
|    \\/     M anipulation  |                                                 |
\*---------------------------------------------------------------------------*/
FoamFile
{
    version     2.0;
    format      ascii;
    class       volScalarField;
    location    "1000";
    object      k;
}
// * * * * * * * * * * * * * * * * * * * * * * * * * * * * * * * * * * * * * //

dimensions      [0 2 -2 0 0 0 0];


internalField   nonuniform List<scalar> 
14361
(
5.30249e-05
4.875e-05
6.51637e-05
6.12595e-05
7.01688e-05
7.15693e-05
7.38094e-05
6.88997e-05
7.44772e-05
7.36227e-05
7.36181e-05
7.45202e-05
7.4431e-05
6.57105e-05
7.36125e-05
7.01292e-05
6.56555e-05
7.44739e-05
7.36077e-05
9.53176e-05
7.38402e-05
7.38447e-05
7.38393e-05
9.53313e-05
7.38441e-05
7.15709e-05
7.20558e-05
8.00219e-05
7.38039e-05
7.99718e-05
7.20554e-05
7.22527e-05
6.88518e-05
7.18776e-05
7.20373e-05
7.18334e-05
7.22537e-05
7.20364e-05
6.63953e-05
6.03449e-05
6.02522e-05
6.64636e-05
5.81973e-05
6.10721e-05
6.46756e-05
6.51182e-05
5.83049e-05
6.09861e-05
6.46219e-05
5.7222e-05
6.12079e-05
5.61485e-05
6.28811e-05
5.73336e-05
5.60424e-05
6.283e-05
5.31181e-05
5.48659e-05
5.31021e-05
5.31145e-05
5.48781e-05
4.1757e-05
4.17645e-05
7.02746e-05
7.15759e-05
6.52954e-05
6.14197e-05
7.38337e-05
6.90355e-05
6.52539e-05
6.14174e-05
7.38245e-05
6.90349e-05
7.15794e-05
7.02402e-05
7.0227e-05
7.15751e-05
4.87707e-05
6.5245e-05
6.13729e-05
4.87757e-05
6.52403e-05
6.13772e-05
7.38263e-05
6.90014e-05
7.38242e-05
6.90058e-05
7.02126e-05
7.02052e-05
7.1564e-05
7.1566e-05
6.58747e-05
7.36377e-05
7.46285e-05
7.38554e-05
7.38606e-05
9.54516e-05
8.01368e-05
7.20721e-05
7.20151e-05
7.20493e-05
7.22672e-05
8.0133e-05
7.20717e-05
7.2049e-05
7.2018e-05
7.22672e-05
6.5819e-05
7.36378e-05
7.46019e-05
6.58101e-05
7.36284e-05
7.45572e-05
7.38486e-05
7.3853e-05
9.53516e-05
7.20718e-05
7.38358e-05
8.01041e-05
8.01688e-05
7.20698e-05
7.22668e-05
6.90576e-05
7.19801e-05
7.2045e-05
7.2034e-05
7.20486e-05
7.22631e-05
7.20767e-05
7.38353e-05
8.01212e-05
8.01819e-05
7.20727e-05
7.22691e-05
6.90608e-05
7.19945e-05
7.20454e-05
7.20482e-05
7.2049e-05
7.22649e-05
6.58038e-05
7.36117e-05
7.45286e-05
7.46318e-05
6.58009e-05
7.0284e-05
7.36141e-05
7.45419e-05
6.58827e-05
7.36271e-05
7.38158e-05
7.38126e-05
9.5194e-05
7.15671e-05
6.04068e-05
6.04063e-05
6.65574e-05
6.66392e-05
5.498e-05
6.04088e-05
6.04083e-05
6.65421e-05
6.05147e-05
6.05134e-05
3.55021e-05
3.55015e-05
6.11913e-05
6.48306e-05
5.84002e-05
6.30436e-05
5.62249e-05
5.74109e-05
6.11479e-05
6.48064e-05
5.83752e-05
5.62222e-05
6.3035e-05
5.74004e-05
5.84522e-05
6.11317e-05
6.5301e-05
6.47785e-05
5.83443e-05
6.12258e-05
6.48418e-05
5.74695e-05
6.14337e-05
5.61828e-05
6.29942e-05
5.73623e-05
5.62795e-05
6.30528e-05
5.84693e-05
6.11325e-05
6.53079e-05
6.4784e-05
6.48504e-05
6.12344e-05
5.83521e-05
5.74817e-05
6.14365e-05
5.61878e-05
6.30013e-05
5.62839e-05
6.30623e-05
5.73707e-05
6.85499e-05
6.07125e-05
6.85529e-05
6.07184e-05
7.21608e-05
6.84164e-05
7.15891e-05
7.19724e-05
7.14346e-05
7.19388e-05
7.22016e-05
7.21616e-05
6.84162e-05
7.19726e-05
7.15952e-05
7.19388e-05
7.14365e-05
7.2203e-05
4.15189e-05
4.86488e-05
5.31103e-05
5.50925e-05
7.06791e-05
7.07665e-05
5.23525e-05
4.8057e-05
5.27867e-05
4.8244e-05
5.47033e-05
7.16686e-05
7.07942e-05
7.16703e-05
7.08409e-05
5.48987e-05
5.30925e-05
5.30729e-05
5.31168e-05
5.3113e-05
5.5054e-05
7.16624e-05
5.49172e-05
6.16134e-05
6.16121e-05
5.31146e-05
5.30961e-05
6.93592e-05
5.31091e-05
6.93616e-05
5.31224e-05
5.50689e-05
7.16411e-05
4.86857e-05
7.39619e-05
6.93568e-05
7.16616e-05
4.08759e-05
6.54249e-05
5.78474e-05
6.55238e-05
6.55538e-05
5.27422e-05
5.30007e-05
6.93412e-05
5.30261e-05
4.85351e-05
7.3962e-05
6.9344e-05
5.5025e-05
7.16806e-05
6.89997e-05
7.38208e-05
7.39333e-05
6.85949e-05
7.16123e-05
7.16695e-05
6.93261e-05
7.39684e-05
6.93341e-05
7.39182e-05
7.16599e-05
7.16207e-05
6.93317e-05
7.39662e-05
6.9303e-05
7.39137e-05
3.51289e-05
3.51265e-05
3.50965e-05
4.17656e-05
4.17639e-05
5.30866e-05
6.16299e-05
6.56938e-05
6.16533e-05
5.31333e-05
6.56371e-05
4.87459e-05
7.16405e-05
7.16042e-05
4.86877e-05
6.56831e-05
6.1637e-05
6.16362e-05
5.31301e-05
4.87573e-05
6.55579e-05
7.08887e-05
7.08909e-05
5.50875e-05
7.06327e-05
7.06097e-05
7.15871e-05
7.16671e-05
7.16703e-05
7.15961e-05
7.02409e-05
5.4245e-05
5.45693e-05
7.01932e-05
7.06468e-05
7.1672e-05
7.16701e-05
7.1672e-05
7.16701e-05
5.47665e-05
7.08519e-05
5.49958e-05
7.08498e-05
7.07433e-05
6.89956e-05
6.85904e-05
5.25371e-05
4.80652e-05
4.79948e-05
6.11618e-05
6.49553e-05
6.53934e-05
6.07516e-05
4.79956e-05
6.11555e-05
6.07461e-05
6.90987e-05
7.39733e-05
7.3952e-05
6.93148e-05
6.90946e-05
7.3971e-05
7.39464e-05
6.93116e-05
4.82653e-05
5.2983e-05
4.84858e-05
6.12763e-05
6.56755e-05
6.54987e-05
6.15694e-05
5.27414e-05
5.29463e-05
4.84696e-05
6.12702e-05
6.5662e-05
6.54704e-05
6.15654e-05
7.1672e-05
7.1667e-05
5.49666e-05
7.0856e-05
7.08396e-05
7.0721e-05
7.16751e-05
7.03485e-05
7.07278e-05
7.07339e-05
5.46733e-05
7.1671e-05
7.16601e-05
5.50149e-05
7.08014e-05
5.4848e-05
7.08498e-05
7.08391e-05
7.16613e-05
7.16578e-05
7.16162e-05
7.16534e-05
7.16124e-05
5.50685e-05
7.08447e-05
5.50733e-05
7.06105e-05
7.05858e-05
7.15798e-05
7.15972e-05
7.15803e-05
7.15949e-05
5.50734e-05
7.02736e-05
7.02644e-05
7.05061e-05
7.04837e-05
6.93238e-05
7.39673e-05
6.93311e-05
7.39194e-05
4.86491e-05
6.16293e-05
6.56831e-05
5.31322e-05
6.16056e-05
6.56127e-05
4.87406e-05
4.86377e-05
6.16272e-05
6.56734e-05
5.31238e-05
6.16022e-05
6.56196e-05
4.87339e-05
6.92637e-05
7.38377e-05
7.38868e-05
6.90499e-05
6.92622e-05
7.38351e-05
7.38871e-05
6.90489e-05
6.16017e-05
5.3133e-05
6.52919e-05
4.87717e-05
6.55112e-05
4.87713e-05
6.14222e-05
6.16006e-05
5.31276e-05
6.53009e-05
4.87685e-05
6.55243e-05
4.87676e-05
6.1422e-05
7.08536e-05
7.08372e-05
5.50751e-05
7.06248e-05
7.06364e-05
7.16199e-05
7.15813e-05
7.16013e-05
5.50807e-05
7.02909e-05
7.05262e-05
7.05273e-05
7.15988e-05
6.56816e-05
5.31015e-05
4.86724e-05
6.1617e-05
5.31338e-05
6.55905e-05
4.8749e-05
6.93324e-05
7.39553e-05
6.93005e-05
7.39001e-05
4.8677e-05
5.30984e-05
6.56682e-05
6.16134e-05
5.3122e-05
4.87466e-05
6.55499e-05
6.92265e-05
7.38374e-05
7.38835e-05
6.90228e-05
6.15752e-05
5.31334e-05
6.52787e-05
4.87685e-05
6.54884e-05
4.87701e-05
6.13858e-05
6.92211e-05
7.38282e-05
7.38714e-05
6.90162e-05
6.157e-05
5.31178e-05
4.87625e-05
6.52536e-05
4.87646e-05
6.54533e-05
6.13796e-05
7.39763e-05
6.93492e-05
7.39227e-05
4.86633e-05
6.16332e-05
6.5719e-05
6.16557e-05
5.31433e-05
4.87538e-05
6.56383e-05
7.39758e-05
6.93527e-05
7.3917e-05
6.16227e-05
5.31366e-05
4.87777e-05
6.55343e-05
4.87776e-05
6.92782e-05
7.38895e-05
6.16244e-05
5.31404e-05
4.87799e-05
4.87808e-05
6.55227e-05
6.92822e-05
7.38828e-05
7.08212e-05
7.08099e-05
5.50524e-05
7.05367e-05
7.05388e-05
7.16022e-05
7.15895e-05
5.50471e-05
7.04442e-05
7.04409e-05
7.15864e-05
5.31167e-05
6.16385e-05
6.57169e-05
6.16404e-05
5.31435e-05
4.87607e-05
6.56121e-05
6.93581e-05
6.93219e-05
7.39018e-05
7.39729e-05
6.93259e-05
7.39109e-05
6.15878e-05
5.31279e-05
4.87742e-05
6.54584e-05
6.15934e-05
5.31417e-05
4.87792e-05
6.54974e-05
6.92319e-05
7.38726e-05
6.92379e-05
7.38782e-05
7.16653e-05
7.16134e-05
7.16103e-05
5.50817e-05
7.05125e-05
7.04884e-05
7.15883e-05
7.15869e-05
7.39403e-05
7.38326e-05
6.90498e-05
6.86611e-05
3.47913e-05
3.498e-05
3.49662e-05
3.47849e-05
4.09063e-05
6.54815e-05
5.26405e-05
6.12467e-05
4.81044e-05
6.4373e-05
5.23508e-05
5.25486e-05
6.12281e-05
4.79824e-05
6.08105e-05
4.80833e-05
7.38442e-05
7.39421e-05
6.90533e-05
6.86653e-05
6.54707e-05
5.23979e-05
5.26401e-05
6.12354e-05
4.79865e-05
6.08195e-05
4.81107e-05
7.3957e-05
6.93199e-05
7.39732e-05
6.91395e-05
5.28082e-05
6.15887e-05
6.56778e-05
5.2993e-05
4.85245e-05
6.13362e-05
4.83145e-05
7.39555e-05
6.93209e-05
7.39656e-05
6.91434e-05
6.15885e-05
4.85398e-05
5.30169e-05
5.28632e-05
6.56684e-05
6.13422e-05
4.83412e-05
4.84748e-05
5.29559e-05
6.15918e-05
6.56825e-05
4.82407e-05
6.93392e-05
7.39801e-05
4.84957e-05
6.15956e-05
6.57108e-05
5.28048e-05
4.82648e-05
6.55241e-05
7.39807e-05
7.39585e-05
6.12368e-05
4.8076e-05
7.39483e-05
6.90693e-05
6.90601e-05
4.85467e-05
6.55655e-05
5.28644e-05
6.56834e-05
6.1613e-05
6.1358e-05
4.83418e-05
5.30148e-05
6.1613e-05
6.57125e-05
6.13505e-05
5.28249e-05
4.83168e-05
6.55508e-05
7.39725e-05
6.93468e-05
6.91626e-05
7.39804e-05
6.91547e-05
7.39639e-05
7.08977e-05
7.08944e-05
5.4797e-05
7.07758e-05
7.08005e-05
7.16816e-05
7.168e-05
7.16832e-05
7.48457e-05
7.0557e-05
6.60062e-05
7.38231e-05
7.37913e-05
7.5002e-05
6.58442e-05
7.51899e-05
6.61259e-05
7.08226e-05
7.38361e-05
7.51117e-05
7.38439e-05
6.62278e-05
7.16714e-05
7.52282e-05
6.61768e-05
7.08303e-05
7.38347e-05
7.51737e-05
7.38377e-05
6.62534e-05
7.1673e-05
7.5192e-05
6.63218e-05
7.38107e-05
7.07896e-05
7.52281e-05
7.37877e-05
6.63168e-05
7.16539e-05
7.23355e-05
7.24024e-05
7.21028e-05
6.93696e-05
7.24065e-05
7.21027e-05
7.23369e-05
7.23363e-05
7.21028e-05
7.24068e-05
6.93724e-05
7.21028e-05
7.24122e-05
7.23377e-05
7.16316e-05
7.21596e-05
8.06366e-05
7.39491e-05
8.06151e-05
7.21668e-05
7.23317e-05
7.23955e-05
7.21003e-05
6.93617e-05
7.23963e-05
7.20992e-05
7.23342e-05
7.16502e-05
7.23337e-05
7.21028e-05
7.2393e-05
6.92861e-05
7.23392e-05
7.20962e-05
7.23442e-05
7.21853e-05
7.39723e-05
8.05253e-05
7.21742e-05
8.0591e-05
7.23332e-05
7.23881e-05
7.21012e-05
6.93013e-05
7.23368e-05
7.23513e-05
7.20965e-05
7.16838e-05
7.22671e-05
7.20574e-05
7.20699e-05
6.88607e-05
7.20308e-05
7.19256e-05
7.22972e-05
7.21111e-05
7.38677e-05
7.99465e-05
8.01051e-05
7.206e-05
7.21263e-05
8.03676e-05
7.38999e-05
8.02369e-05
7.21619e-05
7.22496e-05
6.87454e-05
7.19806e-05
7.16433e-05
7.20136e-05
7.18051e-05
7.22102e-05
7.16463e-05
7.1654e-05
7.23229e-05
6.93409e-05
7.20887e-05
7.23446e-05
7.20933e-05
7.23736e-05
7.23166e-05
7.21714e-05
8.06193e-05
7.39595e-05
7.21747e-05
8.0614e-05
7.23317e-05
6.93445e-05
7.2098e-05
7.23804e-05
7.23327e-05
7.20981e-05
7.23853e-05
7.2148e-05
8.05047e-05
7.39342e-05
8.05658e-05
7.21394e-05
7.16523e-05
7.16285e-05
7.23276e-05
7.20958e-05
7.23717e-05
6.93364e-05
7.23724e-05
7.20949e-05
7.23297e-05
7.21641e-05
8.06089e-05
7.39559e-05
8.05972e-05
7.21686e-05
7.23167e-05
6.93275e-05
7.2315e-05
7.20827e-05
7.23508e-05
7.2088e-05
7.23101e-05
7.21404e-05
7.39291e-05
8.04737e-05
8.05328e-05
7.21327e-05
7.16317e-05
7.16095e-05
7.52593e-05
6.63602e-05
7.38268e-05
7.08417e-05
6.63543e-05
7.37984e-05
7.53017e-05
9.61521e-05
7.39908e-05
7.39988e-05
7.3973e-05
7.39659e-05
9.63412e-05
7.52613e-05
6.63573e-05
7.38255e-05
7.08576e-05
6.63534e-05
7.37997e-05
7.52892e-05
9.5952e-05
7.38982e-05
7.38931e-05
7.3918e-05
7.39127e-05
9.5757e-05
7.51469e-05
7.07528e-05
7.37235e-05
6.62453e-05
6.63164e-05
7.37527e-05
7.50245e-05
7.51503e-05
7.072e-05
7.37213e-05
6.6235e-05
6.63205e-05
7.37504e-05
7.50211e-05
7.16296e-05
7.16425e-05
7.16482e-05
7.16368e-05
7.46724e-05
7.04102e-05
6.54937e-05
7.37012e-05
7.37567e-05
6.56832e-05
7.4466e-05
9.59772e-05
7.40396e-05
7.4044e-05
7.40168e-05
7.40125e-05
9.61376e-05
7.46343e-05
6.547e-05
7.03656e-05
7.36825e-05
7.37397e-05
6.56565e-05
7.44211e-05
7.48159e-05
6.59795e-05
7.38119e-05
7.0518e-05
7.3777e-05
7.49815e-05
6.58159e-05
9.57547e-05
7.39362e-05
7.39404e-05
7.39984e-05
7.39946e-05
9.54941e-05
7.16734e-05
7.16771e-05
7.16772e-05
7.16726e-05
7.52253e-05
7.08472e-05
6.63173e-05
7.38361e-05
7.38423e-05
7.52354e-05
6.62842e-05
9.6294e-05
7.40403e-05
7.40448e-05
9.62444e-05
7.40476e-05
7.4043e-05
7.52271e-05
6.63065e-05
7.08406e-05
7.38342e-05
7.38379e-05
6.62684e-05
7.52407e-05
7.51866e-05
6.61014e-05
7.3828e-05
7.08078e-05
7.51004e-05
7.38382e-05
6.6208e-05
9.63052e-05
7.40173e-05
7.4022e-05
7.40347e-05
7.40299e-05
9.62893e-05
7.2266e-05
7.20569e-05
7.206e-05
6.88563e-05
7.20303e-05
7.1914e-05
7.22961e-05
7.2248e-05
6.87412e-05
7.19799e-05
7.16303e-05
7.20129e-05
7.17937e-05
7.22086e-05
7.23256e-05
7.20696e-05
7.21676e-05
6.92016e-05
7.23082e-05
7.20864e-05
7.22681e-05
7.21798e-05
7.39719e-05
8.06158e-05
7.21846e-05
8.05892e-05
7.21831e-05
8.04636e-05
7.39676e-05
7.21672e-05
8.05439e-05
7.23289e-05
6.92622e-05
7.20981e-05
7.23681e-05
7.23343e-05
7.20915e-05
7.23224e-05
7.23248e-05
7.20692e-05
7.21578e-05
6.91979e-05
7.23074e-05
7.2086e-05
7.22597e-05
7.21799e-05
7.39689e-05
8.06039e-05
8.05751e-05
7.21844e-05
7.21826e-05
8.0444e-05
7.39637e-05
7.21665e-05
8.05284e-05
7.23282e-05
6.92586e-05
7.20977e-05
7.23609e-05
7.20911e-05
7.23142e-05
7.23336e-05
7.16719e-05
7.16753e-05
7.5195e-05
7.08423e-05
6.63085e-05
7.38361e-05
7.38378e-05
7.52174e-05
6.62593e-05
7.52338e-05
6.63012e-05
7.08274e-05
7.38392e-05
6.62536e-05
7.38411e-05
7.52563e-05
7.51821e-05
6.60664e-05
7.38275e-05
7.07896e-05
6.61822e-05
7.50852e-05
7.38403e-05
9.62967e-05
7.40336e-05
7.40256e-05
7.40341e-05
7.40424e-05
9.62927e-05
7.16756e-05
7.48036e-05
7.05012e-05
7.37785e-05
6.58017e-05
7.49567e-05
7.06289e-05
6.60819e-05
7.38277e-05
7.38047e-05
7.50871e-05
6.59448e-05
7.49348e-05
7.06333e-05
6.60759e-05
7.38251e-05
7.3802e-05
7.5062e-05
6.59375e-05
9.61012e-05
7.40388e-05
7.40439e-05
7.40226e-05
7.40271e-05
9.62152e-05
7.16554e-05
7.16645e-05
7.51991e-05
6.61726e-05
7.08398e-05
7.38319e-05
7.51453e-05
7.3835e-05
6.6252e-05
7.52171e-05
6.63098e-05
7.08518e-05
7.38196e-05
7.38302e-05
7.5218e-05
6.62906e-05
7.52464e-05
7.08416e-05
6.63077e-05
7.38222e-05
7.38328e-05
7.52477e-05
6.62898e-05
9.63012e-05
7.40356e-05
7.40403e-05
9.62813e-05
7.40343e-05
7.40393e-05
9.62968e-05
7.40039e-05
7.3999e-05
7.40145e-05
7.40193e-05
9.62456e-05
7.16661e-05
7.16489e-05
7.16241e-05
7.16441e-05
7.16195e-05
9.58721e-05
7.39089e-05
7.39067e-05
7.3921e-05
7.39188e-05
9.57335e-05
7.52116e-05
6.6314e-05
7.38141e-05
7.08097e-05
7.52368e-05
7.37936e-05
6.63116e-05
9.60353e-05
7.39767e-05
7.39812e-05
9.61948e-05
7.39621e-05
7.39582e-05
7.51085e-05
7.37301e-05
7.07065e-05
6.62238e-05
7.37516e-05
7.50097e-05
6.62802e-05
7.50934e-05
7.06783e-05
7.3724e-05
6.62223e-05
7.37453e-05
7.50012e-05
6.62849e-05
7.15811e-05
7.15932e-05
7.1581e-05
7.15917e-05
9.5519e-05
7.38812e-05
7.38793e-05
9.56098e-05
7.38757e-05
7.38738e-05
7.46817e-05
6.58547e-05
7.03369e-05
7.36419e-05
7.36515e-05
6.59198e-05
7.46192e-05
7.46881e-05
6.58503e-05
7.03238e-05
7.36413e-05
7.36499e-05
6.59146e-05
7.46306e-05
7.47932e-05
7.3694e-05
6.61085e-05
7.0424e-05
7.48774e-05
7.36784e-05
6.60348e-05
7.47944e-05
7.36894e-05
6.61038e-05
7.04056e-05
7.48736e-05
7.36748e-05
6.60292e-05
9.54564e-05
7.38594e-05
7.38576e-05
7.38606e-05
7.38589e-05
9.54148e-05
7.2322e-05
6.93382e-05
7.20884e-05
7.23392e-05
7.2093e-05
7.23676e-05
7.23156e-05
7.21715e-05
8.06083e-05
7.39592e-05
7.21751e-05
8.06037e-05
7.2331e-05
6.93417e-05
7.20976e-05
7.23736e-05
7.20977e-05
7.2332e-05
7.23789e-05
7.21482e-05
8.04957e-05
7.39354e-05
8.0558e-05
7.21392e-05
7.22926e-05
7.20755e-05
7.22592e-05
6.92121e-05
7.22994e-05
7.20694e-05
7.22041e-05
7.20844e-05
7.38475e-05
8.01684e-05
7.20801e-05
8.02236e-05
7.21065e-05
8.03902e-05
7.38735e-05
7.21127e-05
8.0331e-05
7.22771e-05
6.91019e-05
7.20523e-05
7.2037e-05
7.22727e-05
7.20561e-05
7.20895e-05
7.22915e-05
7.20751e-05
7.22548e-05
6.9211e-05
7.22983e-05
7.2069e-05
7.21998e-05
7.20835e-05
7.38458e-05
8.01502e-05
8.02076e-05
7.20791e-05
7.21058e-05
8.03793e-05
7.38732e-05
7.21122e-05
8.03175e-05
7.22758e-05
6.91011e-05
7.20519e-05
7.20321e-05
7.20557e-05
7.20849e-05
7.22714e-05
7.52006e-05
6.63219e-05
7.38199e-05
7.08279e-05
6.63227e-05
7.52169e-05
7.38013e-05
9.59468e-05
7.39206e-05
7.39268e-05
7.39328e-05
7.3939e-05
9.58179e-05
7.52401e-05
6.63144e-05
7.38229e-05
7.08103e-05
7.38049e-05
7.5256e-05
6.63149e-05
9.6096e-05
7.39991e-05
7.39917e-05
7.39731e-05
9.62431e-05
7.39801e-05
7.51685e-05
7.37433e-05
7.07222e-05
6.62527e-05
7.37642e-05
6.62989e-05
7.50755e-05
7.51275e-05
7.07359e-05
7.37373e-05
6.62604e-05
6.63061e-05
7.37593e-05
7.50348e-05
7.16289e-05
7.15834e-05
7.1597e-05
9.56085e-05
7.3892e-05
7.38979e-05
9.57004e-05
7.3884e-05
7.38895e-05
7.47527e-05
6.58808e-05
7.03591e-05
7.36491e-05
6.59536e-05
7.36608e-05
7.46775e-05
7.47031e-05
7.0346e-05
7.36502e-05
6.59485e-05
7.48671e-05
7.37064e-05
6.61452e-05
7.04429e-05
6.60692e-05
7.49514e-05
7.36907e-05
7.48223e-05
7.36988e-05
6.61489e-05
7.04413e-05
7.49061e-05
7.36818e-05
6.60716e-05
9.55235e-05
7.38618e-05
7.38671e-05
7.15787e-05
7.15936e-05
7.23251e-05
7.20949e-05
7.23741e-05
6.93363e-05
7.2094e-05
7.23732e-05
7.23276e-05
7.21594e-05
8.06011e-05
7.39437e-05
8.05835e-05
7.21653e-05
7.23131e-05
6.93267e-05
7.20814e-05
7.2306e-05
7.20868e-05
7.23459e-05
7.23063e-05
7.21334e-05
7.39154e-05
8.04409e-05
8.05059e-05
7.21258e-05
7.22874e-05
7.2223e-05
7.20689e-05
6.91756e-05
7.22933e-05
7.21706e-05
7.20635e-05
7.20838e-05
7.38466e-05
8.01582e-05
7.20805e-05
8.0207e-05
7.21037e-05
8.03633e-05
7.38711e-05
7.21087e-05
8.03097e-05
7.22738e-05
6.90705e-05
7.20155e-05
7.20488e-05
7.22703e-05
7.20634e-05
7.20518e-05
7.22835e-05
7.20674e-05
7.2208e-05
6.91691e-05
7.22892e-05
7.2062e-05
7.21541e-05
7.20784e-05
7.38366e-05
8.01189e-05
8.01687e-05
7.20759e-05
7.20973e-05
8.03288e-05
7.38595e-05
7.21019e-05
8.02718e-05
7.22701e-05
6.90637e-05
7.20476e-05
7.19972e-05
7.20504e-05
7.20454e-05
7.22669e-05
7.21729e-05
8.06465e-05
7.39673e-05
8.06397e-05
7.21776e-05
7.23249e-05
6.93658e-05
7.23599e-05
7.20917e-05
7.23938e-05
7.20972e-05
7.23174e-05
7.21459e-05
7.3941e-05
8.05054e-05
8.0588e-05
7.21357e-05
7.21773e-05
8.06333e-05
7.39654e-05
8.06285e-05
7.21822e-05
7.23263e-05
6.93688e-05
7.20919e-05
7.23698e-05
7.20973e-05
7.2401e-05
7.23188e-05
7.2151e-05
7.39372e-05
8.05098e-05
8.0582e-05
7.21402e-05
7.22896e-05
7.22608e-05
7.20764e-05
6.92154e-05
7.22975e-05
7.21965e-05
7.20692e-05
7.20762e-05
7.38454e-05
8.0206e-05
7.20996e-05
8.03908e-05
7.38738e-05
7.21063e-05
8.03135e-05
7.22721e-05
6.90945e-05
7.20727e-05
7.20539e-05
7.22907e-05
7.20765e-05
7.22737e-05
6.92183e-05
7.2299e-05
7.20692e-05
7.22083e-05
7.20769e-05
7.3837e-05
8.02004e-05
7.21017e-05
8.03891e-05
7.38654e-05
7.21098e-05
8.03166e-05
7.22725e-05
6.90954e-05
7.20536e-05
7.20778e-05
7.51434e-05
6.6309e-05
7.37892e-05
7.07392e-05
6.62966e-05
7.52006e-05
7.37667e-05
7.51771e-05
6.63066e-05
7.3792e-05
7.07288e-05
7.37704e-05
7.52309e-05
6.62936e-05
9.58037e-05
7.38942e-05
7.38989e-05
7.39051e-05
7.39094e-05
9.56696e-05
9.59475e-05
7.39617e-05
7.39575e-05
7.3941e-05
9.61008e-05
7.39457e-05
7.50606e-05
7.06247e-05
7.3713e-05
6.61717e-05
7.37318e-05
6.6238e-05
7.49722e-05
7.50256e-05
7.0632e-05
7.3707e-05
6.6172e-05
6.62429e-05
7.37269e-05
7.49333e-05
7.16084e-05
7.1579e-05
7.15876e-05
9.54596e-05
7.38687e-05
7.38733e-05
9.5555e-05
7.38636e-05
7.38681e-05
7.46642e-05
7.02965e-05
6.58806e-05
7.36457e-05
7.46202e-05
7.02855e-05
7.36367e-05
6.58772e-05
7.47705e-05
7.36817e-05
6.60602e-05
7.03704e-05
6.59906e-05
7.48536e-05
7.36684e-05
7.47274e-05
7.36743e-05
6.60611e-05
7.0364e-05
7.4813e-05
7.36603e-05
6.59862e-05
9.5394e-05
7.38491e-05
7.38535e-05
7.15749e-05
7.1584e-05
7.23294e-05
7.24004e-05
7.21e-05
6.9362e-05
7.23988e-05
7.20987e-05
7.23324e-05
7.23156e-05
6.93516e-05
7.23213e-05
7.20843e-05
7.23679e-05
7.20906e-05
7.23077e-05
7.21304e-05
7.39187e-05
8.04477e-05
8.05293e-05
7.21219e-05
7.21696e-05
8.06228e-05
7.39608e-05
8.06114e-05
7.21755e-05
7.23193e-05
6.93531e-05
7.23349e-05
7.20853e-05
7.23751e-05
7.20914e-05
7.23116e-05
7.21426e-05
7.39303e-05
8.04737e-05
8.05457e-05
7.21331e-05
7.22816e-05
7.22098e-05
7.20684e-05
6.91688e-05
7.22883e-05
7.21478e-05
7.2062e-05
7.20914e-05
8.03398e-05
7.38592e-05
7.20962e-05
8.02656e-05
7.22851e-05
7.22307e-05
7.20693e-05
6.91756e-05
7.22922e-05
7.21697e-05
7.20628e-05
7.2099e-05
8.0358e-05
7.38621e-05
7.21055e-05
8.02911e-05
7.16544e-05
7.16247e-05
7.16205e-05
9.54212e-05
7.38559e-05
7.3852e-05
9.55823e-05
7.38446e-05
7.384e-05
7.46242e-05
7.02963e-05
6.58893e-05
7.36255e-05
7.47622e-05
7.36809e-05
6.61124e-05
7.04059e-05
7.48658e-05
6.60243e-05
7.36575e-05
7.47545e-05
7.36801e-05
6.61099e-05
7.03868e-05
7.48849e-05
6.60081e-05
7.36576e-05
9.52924e-05
7.38188e-05
7.38153e-05
7.15658e-05
7.15819e-05
7.15814e-05
7.2132e-05
7.39091e-05
8.03994e-05
8.02772e-05
7.21635e-05
7.21188e-05
7.38783e-05
7.99997e-05
8.01531e-05
7.2071e-05
7.22755e-05
7.21131e-05
7.20637e-05
6.89194e-05
7.19782e-05
7.20392e-05
7.23028e-05
7.22592e-05
7.17058e-05
7.19911e-05
6.88078e-05
7.18635e-05
7.20229e-05
7.22216e-05
7.21254e-05
7.38872e-05
8.001e-05
8.01656e-05
7.20783e-05
7.2138e-05
7.39145e-05
8.04087e-05
8.02889e-05
7.21674e-05
7.22764e-05
7.20637e-05
7.21245e-05
6.8924e-05
7.20391e-05
7.19912e-05
7.23033e-05
7.22604e-05
7.17159e-05
7.19911e-05
6.88112e-05
7.20231e-05
7.18743e-05
7.2223e-05
7.21799e-05
7.39702e-05
8.04847e-05
7.21671e-05
8.05551e-05
7.23285e-05
7.20967e-05
7.23656e-05
6.92789e-05
7.2332e-05
7.23305e-05
7.20921e-05
7.21758e-05
7.39729e-05
8.06093e-05
7.21793e-05
8.05905e-05
7.23266e-05
7.21998e-05
7.20742e-05
6.92294e-05
7.23121e-05
7.22875e-05
7.20885e-05
7.21809e-05
7.39655e-05
8.04909e-05
7.21699e-05
8.05568e-05
7.23274e-05
7.20959e-05
7.23694e-05
6.92813e-05
7.23304e-05
7.20914e-05
7.23377e-05
7.21759e-05
7.39665e-05
8.06035e-05
7.21782e-05
8.05885e-05
7.23259e-05
7.20739e-05
7.22114e-05
6.92319e-05
7.2312e-05
7.20882e-05
7.22959e-05
7.23334e-05
7.23894e-05
7.21028e-05
6.92848e-05
7.23388e-05
7.23432e-05
7.20962e-05
7.21842e-05
7.39779e-05
8.06417e-05
7.21887e-05
8.06137e-05
7.21881e-05
8.06285e-05
7.39793e-05
7.21924e-05
8.0599e-05
7.2191e-05
7.39748e-05
8.04653e-05
7.21746e-05
8.05512e-05
7.21422e-05
7.39205e-05
8.04385e-05
8.03186e-05
7.21723e-05
7.228e-05
7.21445e-05
6.89342e-05
7.20673e-05
7.20079e-05
7.20424e-05
7.23077e-05
7.22781e-05
6.89242e-05
7.21208e-05
7.20666e-05
7.19809e-05
7.20414e-05
7.23062e-05
7.21795e-05
7.39734e-05
8.06389e-05
7.21815e-05
8.06248e-05
7.23326e-05
7.2396e-05
7.21009e-05
6.9306e-05
7.23355e-05
7.23647e-05
7.20965e-05
7.2331e-05
7.22354e-05
6.92552e-05
7.20783e-05
7.23168e-05
7.23214e-05
7.20928e-05
7.21841e-05
8.06222e-05
7.39802e-05
7.21871e-05
8.06015e-05
7.23311e-05
6.92488e-05
7.22134e-05
7.20778e-05
7.23161e-05
7.23047e-05
7.20926e-05
7.21881e-05
7.39775e-05
8.04898e-05
7.2175e-05
8.05636e-05
7.52978e-05
6.63555e-05
7.38542e-05
7.08902e-05
7.53091e-05
6.63217e-05
7.38609e-05
9.64225e-05
7.40366e-05
7.40454e-05
9.64141e-05
7.40597e-05
7.40503e-05
7.5277e-05
6.63511e-05
7.3848e-05
7.08833e-05
7.52926e-05
6.63148e-05
7.38521e-05
9.64012e-05
7.40687e-05
7.40613e-05
9.63408e-05
7.4073e-05
7.40643e-05
7.52277e-05
7.08455e-05
7.38416e-05
6.6137e-05
7.51237e-05
6.62524e-05
7.38521e-05
7.52626e-05
7.08618e-05
7.3854e-05
6.61688e-05
7.51873e-05
6.62657e-05
7.38625e-05
7.16837e-05
7.16875e-05
7.16887e-05
6.23719e-05
5.66484e-05
5.54462e-05
5.66384e-05
6.06472e-05
6.22782e-05
5.54386e-05
5.54483e-05
5.66629e-05
6.23976e-05
5.66444e-05
6.06465e-05
5.54376e-05
6.22845e-05
3.51179e-05
3.51038e-05
4.16454e-05
3.525e-05
3.52615e-05
2.70933e-05
2.69394e-05
6.7098e-05
6.07831e-05
6.07854e-05
5.50888e-05
6.07852e-05
6.0781e-05
6.71038e-05
6.69168e-05
6.04387e-05
5.4774e-05
6.04349e-05
6.05341e-05
6.68003e-05
6.05392e-05
6.66743e-05
5.49894e-05
6.04411e-05
6.04419e-05
6.05351e-05
6.05369e-05
6.65968e-05
6.70646e-05
6.07521e-05
6.07451e-05
5.50555e-05
6.07585e-05
6.7064e-05
6.07513e-05
6.67114e-05
5.5007e-05
6.04646e-05
6.04677e-05
6.05625e-05
6.05658e-05
6.66257e-05
5.75406e-05
6.32879e-05
5.63128e-05
6.16288e-05
6.32989e-05
5.63157e-05
5.75449e-05
5.75332e-05
5.63118e-05
6.3283e-05
6.16264e-05
5.63138e-05
6.3291e-05
5.75394e-05
6.70438e-05
6.07504e-05
6.0747e-05
5.50618e-05
6.07457e-05
6.7055e-05
6.07422e-05
6.66376e-05
5.49565e-05
6.0499e-05
6.05035e-05
5.80526e-05
6.52908e-05
6.11032e-05
6.48336e-05
6.09797e-05
6.46804e-05
5.81484e-05
6.44282e-05
6.50781e-05
5.79269e-05
6.52294e-05
6.07776e-05
6.08987e-05
6.45939e-05
5.83991e-05
6.12489e-05
6.56059e-05
6.49446e-05
6.13368e-05
5.83267e-05
6.50499e-05
5.84258e-05
6.12941e-05
6.56195e-05
6.49681e-05
6.13637e-05
5.83666e-05
6.50616e-05
6.70629e-05
6.07511e-05
6.07535e-05
5.50013e-05
6.70963e-05
6.07158e-05
6.07155e-05
4.15428e-05
3.5136e-05
4.16581e-05
3.52727e-05
3.52721e-05
2.71048e-05
2.69499e-05
4.15324e-05
3.51094e-05
4.16586e-05
3.5261e-05
3.52679e-05
2.70968e-05
2.69421e-05
4.1493e-05
3.50932e-05
4.16279e-05
3.52405e-05
3.52442e-05
2.70854e-05
2.69324e-05
4.17309e-05
3.5493e-05
3.54963e-05
3.53793e-05
3.53861e-05
2.72561e-05
2.74193e-05
4.17232e-05
3.54878e-05
3.54899e-05
3.5372e-05
3.53737e-05
2.72477e-05
2.74114e-05
4.17312e-05
3.54999e-05
3.53913e-05
3.5398e-05
2.7267e-05
2.74287e-05
4.17367e-05
3.54982e-05
3.53851e-05
3.53961e-05
2.72592e-05
2.74218e-05
5.75465e-05
5.63132e-05
6.33053e-05
6.16561e-05
6.33249e-05
5.63246e-05
5.75458e-05
5.86144e-05
6.14914e-05
6.51867e-05
6.56946e-05
6.14978e-05
6.51947e-05
5.86093e-05
5.75905e-05
6.16581e-05
6.3312e-05
5.63602e-05
6.33237e-05
5.63681e-05
5.75754e-05
5.86363e-05
6.568e-05
6.51648e-05
6.14835e-05
6.15004e-05
6.51893e-05
5.86221e-05
5.86113e-05
6.1486e-05
6.51799e-05
6.56733e-05
6.14827e-05
6.51783e-05
5.86147e-05
5.75534e-05
5.63331e-05
6.33076e-05
6.1651e-05
5.63354e-05
6.3315e-05
5.75595e-05
5.75834e-05
6.16488e-05
5.63533e-05
6.32842e-05
5.6366e-05
6.33072e-05
5.75602e-05
5.86223e-05
6.56239e-05
6.5116e-05
6.14281e-05
6.14755e-05
6.51581e-05
5.8592e-05
6.70686e-05
5.51114e-05
6.07453e-05
6.07411e-05
6.07833e-05
6.07823e-05
6.69829e-05
6.63905e-05
5.99171e-05
5.43074e-05
5.99169e-05
6.00343e-05
6.0037e-05
6.62077e-05
6.656e-05
6.034e-05
5.44935e-05
6.03332e-05
6.67202e-05
6.02119e-05
6.0218e-05
6.69531e-05
6.04956e-05
5.48293e-05
6.04882e-05
6.68498e-05
6.05793e-05
6.05852e-05
6.7019e-05
5.4971e-05
6.07215e-05
6.07179e-05
6.06778e-05
6.70545e-05
6.06834e-05
5.69311e-05
5.57405e-05
6.2868e-05
6.10095e-05
6.27071e-05
5.56766e-05
5.69942e-05
5.78329e-05
6.06597e-05
6.51163e-05
6.43285e-05
6.4496e-05
6.07785e-05
5.77639e-05
5.80148e-05
6.10732e-05
6.47925e-05
6.52539e-05
6.46355e-05
6.095e-05
5.81083e-05
5.6773e-05
5.55047e-05
6.08944e-05
6.24259e-05
6.25869e-05
5.55418e-05
5.67318e-05
5.69101e-05
5.57327e-05
6.285e-05
6.10029e-05
6.26871e-05
5.56694e-05
5.69725e-05
5.67563e-05
5.55008e-05
6.08882e-05
6.24066e-05
6.25679e-05
5.55367e-05
5.67179e-05
5.72407e-05
5.59151e-05
6.29805e-05
6.14061e-05
5.71827e-05
6.31093e-05
5.59845e-05
5.84987e-05
6.14512e-05
6.5642e-05
6.515e-05
6.14089e-05
6.50955e-05
5.85361e-05
5.83675e-05
6.12221e-05
6.4911e-05
6.5589e-05
6.13147e-05
5.82911e-05
6.50251e-05
5.74055e-05
5.61931e-05
6.14895e-05
6.32579e-05
6.31847e-05
5.61481e-05
5.74358e-05
5.72202e-05
5.59066e-05
6.29631e-05
6.14006e-05
5.7161e-05
6.30949e-05
5.59758e-05
5.84733e-05
6.1432e-05
6.56238e-05
6.51361e-05
6.50764e-05
6.13833e-05
5.85153e-05
5.83352e-05
6.11824e-05
6.48825e-05
6.55651e-05
5.82552e-05
6.50023e-05
6.12802e-05
5.73885e-05
5.61868e-05
6.14846e-05
6.3248e-05
6.31718e-05
5.61409e-05
5.74212e-05
6.69971e-05
5.49318e-05
6.0704e-05
6.06972e-05
6.06466e-05
6.70462e-05
6.06522e-05
6.66755e-05
6.04318e-05
5.4605e-05
6.04311e-05
6.681e-05
6.0326e-05
6.03269e-05
6.70344e-05
5.50047e-05
6.07286e-05
6.07256e-05
6.70536e-05
6.07035e-05
6.07053e-05
6.69907e-05
6.05626e-05
5.48916e-05
6.05626e-05
6.69137e-05
6.06301e-05
6.06307e-05
6.70597e-05
6.07567e-05
6.07542e-05
5.50662e-05
6.70635e-05
6.07559e-05
6.07567e-05
6.70369e-05
5.50928e-05
6.07267e-05
6.07308e-05
6.69715e-05
6.07566e-05
6.07607e-05
6.67805e-05
5.50103e-05
6.0687e-05
6.0691e-05
6.68659e-05
6.05943e-05
6.05973e-05
5.75741e-05
6.16335e-05
6.3291e-05
5.63396e-05
6.33023e-05
5.63476e-05
5.75586e-05
5.8603e-05
6.14847e-05
6.51689e-05
6.56823e-05
6.51751e-05
5.86008e-05
6.14871e-05
5.75324e-05
5.62947e-05
6.16314e-05
6.32852e-05
6.33039e-05
5.75331e-05
5.63044e-05
5.8622e-05
6.5142e-05
6.56615e-05
6.14621e-05
6.51678e-05
6.14868e-05
5.86057e-05
5.75677e-05
6.16311e-05
6.32867e-05
5.63371e-05
6.32967e-05
5.63448e-05
5.75533e-05
5.85914e-05
6.14732e-05
6.51584e-05
6.56741e-05
5.85869e-05
6.5167e-05
6.14791e-05
5.75234e-05
5.629e-05
6.16288e-05
6.3277e-05
5.75231e-05
6.32976e-05
5.63004e-05
5.86139e-05
6.51395e-05
6.56606e-05
6.14651e-05
6.51617e-05
5.86005e-05
6.1482e-05
5.75158e-05
6.32469e-05
5.63509e-05
6.15645e-05
5.75696e-05
6.32025e-05
5.63161e-05
5.84929e-05
6.11748e-05
6.53482e-05
6.48343e-05
6.12662e-05
6.48931e-05
5.83907e-05
5.85264e-05
6.50673e-05
6.142e-05
6.54468e-05
6.13281e-05
5.85965e-05
6.50088e-05
5.75008e-05
6.14761e-05
6.3047e-05
5.62202e-05
6.31029e-05
5.6301e-05
5.74052e-05
5.75153e-05
6.32453e-05
5.63489e-05
6.15638e-05
5.75662e-05
6.3202e-05
5.63151e-05
5.84978e-05
6.11886e-05
6.53617e-05
6.48362e-05
6.48971e-05
6.12823e-05
5.8396e-05
5.85304e-05
6.50705e-05
6.14315e-05
6.54588e-05
5.85951e-05
6.50134e-05
6.13446e-05
5.75012e-05
6.14759e-05
6.30467e-05
5.62201e-05
6.31031e-05
5.63004e-05
5.74065e-05
6.70534e-05
5.50897e-05
6.07396e-05
6.07469e-05
6.07654e-05
6.07582e-05
6.70089e-05
6.68227e-05
5.50261e-05
6.0711e-05
6.07174e-05
6.0624e-05
6.69089e-05
6.06296e-05
5.86068e-05
6.51681e-05
6.14885e-05
6.5678e-05
6.51702e-05
6.14886e-05
5.86073e-05
5.75745e-05
6.16274e-05
6.32762e-05
5.63369e-05
6.32937e-05
5.63486e-05
5.75548e-05
5.8622e-05
6.56468e-05
6.5125e-05
6.14552e-05
6.51576e-05
6.14873e-05
5.86003e-05
5.85928e-05
6.51563e-05
6.14732e-05
6.56585e-05
6.51551e-05
6.14697e-05
5.85963e-05
5.75638e-05
6.16246e-05
5.63329e-05
6.32636e-05
5.63452e-05
6.32839e-05
5.75416e-05
5.86041e-05
6.56102e-05
6.50977e-05
6.1417e-05
6.51354e-05
5.85754e-05
6.14626e-05
5.74964e-05
6.32203e-05
5.63423e-05
6.15328e-05
5.75602e-05
6.31729e-05
5.62952e-05
5.84737e-05
6.1162e-05
6.5331e-05
6.48143e-05
6.12522e-05
6.48692e-05
5.83702e-05
5.85084e-05
6.50411e-05
6.14073e-05
6.54264e-05
6.13138e-05
5.85862e-05
6.49829e-05
5.74784e-05
6.14382e-05
6.3017e-05
5.61889e-05
6.30707e-05
5.62756e-05
5.73788e-05