/*--------------------------------*- C++ -*----------------------------------*\
| =========                 |                                                 |
| \\      /  F ield         | OpenFOAM: The Open Source CFD Toolbox           |
|  \\    /   O peration     | Version:  v2006                                 |
|   \\  /    A nd           | Website:  www.openfoam.com                      |
|    \\/     M anipulation  |                                                 |
\*---------------------------------------------------------------------------*/
FoamFile
{
    version     2.0;
    format      ascii;
    class       volScalarField;
    location    "1000";
    object      nut;
}
// * * * * * * * * * * * * * * * * * * * * * * * * * * * * * * * * * * * * * //

dimensions      [0 2 -1 0 0 0 0];


internalField   nonuniform List<scalar> 
14361
(
0.000211601
0.000225124
0.000104521
0.000147109
7.81411e-05
2.39557e-05
5.08685e-05
0.000100582
0.000105819
4.87584e-05
4.87568e-05
0.000105905
0.00010581
0.000130552
4.877e-05
7.8073e-05
0.000130385
0.000105894
4.87683e-05
8.17249e-05
2.17582e-05
2.17614e-05
2.17581e-05
8.17374e-05
2.17613e-05
2.39559e-05
2.03695e-05
7.92563e-05
5.08665e-05
7.91868e-05
2.03695e-05
3.6815e-05
0.000100475
9.49802e-05
4.11724e-05
9.48986e-05
3.68153e-05
4.11721e-05
0.000140308
0.000166324
0.000165927
0.000140527
0.000165113
0.000150974
0.000124413
0.000104418
0.000165559
0.000150637
0.000124272
0.000177038
0.00014691
0.000183374
0.000140068
0.000177518
0.000182855
0.000139892
0.000212352
0.000189649
0.000212209
0.000212337
0.000189762
0.000227205
0.000227288
7.83613e-05
2.39575e-05
0.000104921
0.000147827
5.08781e-05
0.000100938
0.000104813
0.000147822
5.08728e-05
0.000100939
2.39557e-05
7.82666e-05
7.82623e-05
2.39567e-05
0.000225322
0.000104772
0.000147622
0.000225381
0.000104757
0.000147645
5.08746e-05
0.000100849
5.08707e-05
0.000100862
7.82463e-05
7.8213e-05
2.39545e-05
2.39534e-05
0.000131168
4.87774e-05
0.00010631
2.17609e-05
2.17638e-05
8.19279e-05
7.94664e-05
2.0372e-05
9.53106e-05
4.1176e-05
3.68192e-05
7.94689e-05
2.03711e-05
4.11765e-05
9.53203e-05
3.68182e-05
0.000130914
4.87636e-05
0.000106125
0.000130931
4.87755e-05
0.00010612
2.17595e-05
2.17626e-05
8.17712e-05
2.03719e-05
5.0878e-05
7.94097e-05
7.94947e-05
2.03716e-05
3.68188e-05
0.000100971
9.52289e-05
4.11747e-05
9.53264e-05
4.11758e-05
3.68178e-05
2.03714e-05
5.08749e-05
7.9442e-05
7.95216e-05
2.03708e-05
3.68177e-05
0.00010098
9.52608e-05
4.11749e-05
9.5363e-05
4.1176e-05
3.68166e-05
0.000130937
4.87678e-05
0.00010606
0.00010621
0.000130861
7.83498e-05
4.87576e-05
0.000106004
0.000131123
4.87656e-05
2.17567e-05
2.17544e-05
8.15786e-05
2.3954e-05
0.00016669
0.000166705
0.000140916
0.000141206
0.000190191
0.000166765
0.000166723
0.000140885
0.000167205
0.000167172
0.000229982
0.000229976
0.000151559
0.00012499
0.000166169
0.000140744
0.000183944
0.000178107
0.000151386
0.000124922
0.000166066
0.000183935
0.000140721
0.000178063
0.00016631
0.000151283
0.000104898
0.000124805
0.000165876
0.000151649
0.000124968
0.000178266
0.000147851
0.000183693
0.000140546
0.000177829
0.000184132
0.000140744
0.000166414
0.000151292
0.000104914
0.000124834
0.000125009
0.000151689
0.000165942
0.000178348
0.000147867
0.000183732
0.000140582
0.000184165
0.000140794
0.000177898
9.95606e-05
0.000144398
9.95685e-05
0.000144425
3.67902e-05
9.92336e-05
9.41968e-05
4.11528e-05
9.38569e-05
4.11432e-05
3.68006e-05
3.67888e-05
9.92315e-05
4.11529e-05
9.42097e-05
4.11432e-05
9.38621e-05
3.67994e-05
0.000224926
0.000224049
0.000212153
0.000190755
7.89428e-05
7.91116e-05
0.000206043
0.000218569
0.000209456
0.000220278
0.000188145
2.39706e-05
7.91648e-05
2.39726e-05
7.93233e-05
0.000189877
0.000211995
0.000211882
0.000212334
0.000212309
0.000190534
2.39722e-05
0.000189983
0.000148437
0.000148434
0.000212335
0.000212178
0.000101626
0.000212107
0.000101633
0.00021236
0.000190662
2.39682e-05
0.000224387
5.09216e-05
0.000101627
2.39712e-05
0.000218331
0.00010506
0.000162747
0.000105329
0.000105418
0.000209159
0.000211177
0.000101573
0.000211423
0.000222944
5.09203e-05
0.000101586
0.000190496
2.39742e-05
0.000100667
5.0873e-05
5.09121e-05
9.96527e-05
2.39617e-05
2.3971e-05
0.000101614
5.09264e-05
0.000101563
5.0911e-05
2.39705e-05
2.3964e-05
0.000101563
5.09239e-05
0.000101562
5.09049e-05
0.000226077
0.000225992
0.000225636
0.000227338
0.000227299
0.000211946
0.000148486
0.00010588
0.000148726
0.000212397
0.000105832
0.000225012
2.39663e-05
2.39601e-05
0.000224405
0.000105868
0.000148532
0.000148669
0.000212396
0.00022512
0.00010562
7.94119e-05
7.94037e-05
0.000191056
7.90142e-05
7.89614e-05
2.39585e-05
2.39722e-05
2.39731e-05
2.39598e-05
7.81067e-05
0.00018516
0.000187456
7.80261e-05
7.88811e-05
2.39734e-05
2.39728e-05
2.39735e-05
2.39735e-05
0.000188537
7.93262e-05
0.000190336
7.93157e-05
7.90643e-05
0.000100658
9.96432e-05
0.000207475
0.000218617
0.000217937
0.00014633
0.000103725
0.000104967
0.000144542
0.000217966
0.000146308
0.000144523
0.000100911
5.09272e-05
5.09189e-05
0.000101508
0.000100903
5.09245e-05
5.0915e-05
0.000101501
0.000220447
0.000211033
0.000222486
0.000146824
0.00010582
0.00010525
0.000148213
0.000209141
0.000210808
0.000222366
0.000146802
0.00010578
0.000105169
0.0001482
2.39724e-05
2.39713e-05
0.000190146
7.93342e-05
7.92855e-05
7.90111e-05
2.39742e-05
7.83072e-05
7.90357e-05
7.90552e-05
0.000188132
2.39727e-05
2.39695e-05
0.000190494
7.91921e-05
0.00018908
7.93431e-05
7.9307e-05
2.39714e-05
2.39715e-05
2.39652e-05
2.39708e-05
2.39628e-05
0.00019063
7.93201e-05
0.000190984
7.89661e-05
7.89077e-05
2.39595e-05
2.39621e-05
2.39565e-05
2.39594e-05
0.000190779
7.83499e-05
7.83148e-05
7.87598e-05
7.87017e-05
0.000101609
5.09235e-05
0.000101557
5.09078e-05
0.000224049
0.000148625
0.000105848
0.000212395
0.000148387
0.00010577
0.00022497
0.000223968
0.000148618
0.000105815
0.000212339
0.000148376
0.000105771
0.000224925
0.000101465
5.08832e-05
5.08999e-05
0.000100969
0.000101462
5.08782e-05
5.08965e-05
0.000100967
0.000148526
0.000212446
0.000104907
0.000225344
0.000105469
0.00022531
0.000147829
0.000148524
0.000212397
0.000104922
0.000225324
0.000105488
0.000225286
0.00014783
7.93446e-05
7.92933e-05
0.000190984
7.89743e-05
7.90176e-05
2.39651e-05
2.39571e-05
2.39606e-05
0.000190807
7.83681e-05
7.87773e-05
7.88029e-05
2.39615e-05
0.000105851
0.000212096
0.000224286
0.000148587
0.000212423
0.000105694
0.00022507
0.000101564
5.09163e-05
0.000101558
5.08976e-05
0.000224342
0.000212101
0.000105816
0.000148577
0.000212336
0.000225058
0.000105585
0.000101371
5.08774e-05
5.08939e-05
0.000100895
0.000148421
0.000212461
0.000104851
0.000225334
0.000105388
0.000225324
0.000147668
0.000101353
5.08722e-05
5.08875e-05
0.000100881
0.000148399
0.000212351
0.00022528
0.000104783
0.00022528
0.000105295
0.000147645
5.0927e-05
0.000101678
5.09093e-05
0.00022417
0.000148501
0.000105939
0.000148739
0.000212452
0.000225073
0.000105843
5.09229e-05
0.000101688
5.09049e-05
0.000148618
0.000212458
0.000225384
0.000105529
0.000225354
0.000101509
5.08977e-05
0.000148628
0.000212494
0.000225405
0.000225381
0.000105505
0.000101522
5.08931e-05
7.93044e-05
7.92651e-05
0.000190864
7.88139e-05
7.88365e-05
2.39615e-05
2.39575e-05
0.000190618
7.86276e-05
7.86414e-05
2.39587e-05
0.00021219
0.000148539
0.000105945
0.000148688
0.000212481
0.000225149
0.000105763
0.00010163
0.000101618
5.09012e-05
5.09239e-05
0.000101628
5.09021e-05
0.000148476
0.000212398
0.00022533
0.000105322
0.000148502
0.000212504
0.000225376
0.000105422
0.000101394
5.0891e-05
0.000101409
5.089e-05
2.39704e-05
2.39628e-05
2.3962e-05
0.000190815
7.87829e-05
7.87187e-05
2.39588e-05
2.39575e-05
5.09132e-05
5.08748e-05
0.000100798
9.98148e-05
0.000222167
0.000224358
0.000224203
0.000222082
0.000218632
0.000105224
0.000208294
0.000146701
0.000218956
0.000123067
0.000206055
0.000207619
0.000146625
0.000217849
0.000144784
0.000218793
5.08765e-05
5.09105e-05
0.000100808
9.98247e-05
0.00010519
0.00020639
0.000208295
0.00014666
0.000217882
0.000144825
0.000219034
5.09194e-05
0.000101527
5.09258e-05
0.000101022
0.000209657
0.000148316
0.000105834
0.000211177
0.000222862
0.000147097
0.000220907
5.0915e-05
0.000101531
5.09193e-05
0.000101032
0.000148319
0.000223007
0.000211369
0.000210072
0.00010581
0.000147127
0.00022115
0.000222405
0.000210865
0.000148306
0.000105843
0.000220244
0.000101568
5.0928e-05
0.000222577
0.000148323
0.00010591
0.000209599
0.000220451
0.000105316
5.09242e-05
5.09172e-05
0.000146659
0.000218722
5.09152e-05
0.000100842
0.000100819
0.000223047
0.000105458
0.000210093
0.00010586
0.000148414
0.000147186
0.000221134
0.000211315
0.000148415
0.000105925
0.000147154
0.000209776
0.000220916
0.000105392
5.09247e-05
0.000101593
0.000101078
5.0926e-05
0.000101057
5.09177e-05
7.94075e-05
7.9395e-05
0.000188715
7.91264e-05
7.91588e-05
2.39729e-05
2.39734e-05
2.39733e-05
0.000106495
7.86967e-05
0.00013128
4.8838e-05
4.88268e-05
0.00010691
0.000130676
0.000107423
0.000131717
7.92372e-05
4.88428e-05
0.000107195
4.88458e-05
0.000132122
2.39712e-05
0.000107462
0.000131866
7.92508e-05
4.88288e-05
0.000107296
4.88298e-05
0.000132182
2.39732e-05
0.000107583
0.000132544
4.88354e-05
7.92672e-05
0.000107604
4.88263e-05
0.000132591
2.39708e-05
3.68365e-05
9.6059e-05
4.1191e-05
0.000101677
9.60986e-05
4.11911e-05
3.68368e-05
3.68357e-05
4.11916e-05
9.60695e-05
0.000101685
4.11917e-05
9.61087e-05
3.6836e-05
2.39666e-05
2.03846e-05
8.02022e-05
5.09174e-05
8.02034e-05
2.03855e-05
3.68336e-05
9.60513e-05
4.11905e-05
0.000101665
9.60817e-05
4.11902e-05
3.68342e-05
2.39693e-05
3.68347e-05
4.11916e-05
9.60298e-05
0.000101412
3.68363e-05
4.11895e-05
9.58983e-05
2.03878e-05
5.09242e-05
7.99751e-05
2.03861e-05
8.01028e-05
3.68337e-05
9.60251e-05
4.11906e-05
0.000101458
3.68347e-05
9.59215e-05
4.11891e-05
2.39746e-05
3.68181e-05
4.11782e-05
9.52552e-05
0.000100304
4.11704e-05
9.49153e-05
3.6826e-05
2.03765e-05
5.08892e-05
7.90248e-05
7.92941e-05
2.03691e-05
2.03788e-05
7.97205e-05
5.09001e-05
7.94888e-05
2.0384e-05
3.68136e-05
0.000100032
4.11558e-05
9.42966e-05
4.11653e-05
9.46622e-05
3.68034e-05
2.39672e-05
2.39681e-05
3.68336e-05
0.000101616
4.11882e-05
9.60036e-05
4.11895e-05
9.60365e-05
3.6832e-05
2.03859e-05
8.01666e-05
5.09238e-05
2.03863e-05
8.01868e-05
3.68357e-05
0.000101614
4.11905e-05
9.60084e-05
3.68358e-05
4.11906e-05
9.60467e-05
2.03827e-05
8.00455e-05
5.0916e-05
8.01111e-05
2.03815e-05
2.39693e-05
2.39654e-05
3.68341e-05
4.11893e-05
9.59975e-05
0.0001016
9.6026e-05
4.11892e-05
3.68348e-05
2.03849e-05
8.01531e-05
5.09201e-05
8.01624e-05
2.03857e-05
3.68315e-05
0.000101589
9.59415e-05
4.11859e-05
9.5994e-05
4.11874e-05
3.68299e-05
2.03816e-05
5.09107e-05
7.99935e-05
8.00584e-05
2.03805e-05
2.39648e-05
2.3961e-05
0.000107738
0.000132678
4.88405e-05
7.93675e-05
0.000132729
4.883e-05
0.000107759
8.28901e-05
2.17833e-05
2.17826e-05
2.1779e-05
2.17793e-05
8.31109e-05
0.000107688
0.000132633
4.88277e-05
7.93923e-05
0.000132666
4.88208e-05
0.000107708
8.26089e-05
2.1769e-05
2.1767e-05
2.17714e-05
2.17708e-05
8.23674e-05
0.000107477
7.9204e-05
4.88049e-05
0.000132431
0.000132626
4.88101e-05
0.000107229
0.000107437
7.91355e-05
4.87952e-05
0.000132346
0.000132593
4.88093e-05
0.000107156
2.39658e-05
2.39678e-05
2.39692e-05
2.39671e-05
0.00010608
7.84295e-05
0.000129441
4.87938e-05
4.88144e-05
0.000130121
0.000105557
8.24641e-05
2.17902e-05
2.17885e-05
2.17842e-05
2.17858e-05
8.27103e-05
0.000105978
0.000129312
7.83523e-05
4.87791e-05
4.87971e-05
0.000129986
0.000105447
0.000106399
0.000131148
4.88213e-05
7.86248e-05
4.88095e-05
0.000106832
0.000130536
8.21555e-05
2.17734e-05
2.17728e-05
2.17815e-05
2.17828e-05
8.17841e-05
2.39735e-05
2.39741e-05
2.39745e-05
2.39738e-05
0.000107528
7.92916e-05
0.000132507
4.88439e-05
4.88456e-05
0.000107597
0.00013234
8.29652e-05
2.17904e-05
2.17887e-05
8.28735e-05
2.17891e-05
2.17909e-05
0.000107485
0.000132437
7.92749e-05
4.88307e-05
4.88311e-05
0.000132253
0.000107552
0.000107373
0.000131593
4.88271e-05
7.92059e-05
0.000107128
4.8831e-05
0.000132017
8.2998e-05
2.17875e-05
2.17859e-05
2.17874e-05
2.17892e-05
8.30221e-05
3.68161e-05
4.11781e-05
9.52334e-05
0.000100295
4.11703e-05
9.48938e-05
3.68239e-05
3.68114e-05
0.000100023
4.11556e-05
9.42707e-05
4.11652e-05
9.4636e-05
3.68012e-05
3.68337e-05
4.11818e-05
9.54705e-05
0.000101194
3.6829e-05
4.11868e-05
9.57206e-05
2.03868e-05
5.09265e-05
8.01575e-05
2.03876e-05
8.00965e-05
2.03873e-05
7.98693e-05
5.09248e-05
2.03848e-05
8.00218e-05
3.68346e-05
0.000101352
4.11905e-05
9.59736e-05
3.68361e-05
4.11884e-05
9.58483e-05
3.68317e-05
4.11817e-05
9.54531e-05
0.000101186
3.6827e-05
4.11868e-05
9.57034e-05
2.03856e-05
5.09235e-05
8.01434e-05
8.008e-05
2.03863e-05
2.03859e-05
7.98438e-05
5.09214e-05
2.03835e-05
8.00006e-05
3.68327e-05
0.000101344
4.11904e-05
9.59605e-05
4.11884e-05
9.58346e-05
3.68342e-05
2.39723e-05
2.39728e-05
0.000107475
7.92879e-05
0.000132473
4.88421e-05
4.88426e-05
0.000107568
0.000132251
0.00010746
0.000132405
7.92393e-05
4.88312e-05
0.000132188
4.88317e-05
0.000107552
0.00010732
0.000131461
4.88264e-05
7.91618e-05
0.000131917
0.000107045
4.88312e-05
8.29738e-05
2.17891e-05
2.17861e-05
2.17872e-05
2.17904e-05
8.30066e-05
2.39742e-05
0.000106367
7.85966e-05
4.88156e-05
0.0001305
0.000106721
7.88314e-05
0.000131516
4.88265e-05
4.88197e-05
0.000107076
0.000130989
0.000106746
7.88484e-05
0.000131553
4.88392e-05
4.88294e-05
0.000107095
0.000131022
8.26466e-05
2.17879e-05
2.17907e-05
2.17855e-05
2.17877e-05
8.28295e-05
2.39698e-05
2.39701e-05
0.000107482
0.000131911
7.92825e-05
4.88423e-05
0.000107314
4.88437e-05
0.000132236
0.000107542
0.000132509
7.93162e-05
4.88394e-05
4.88424e-05
0.000107596
0.00013239
0.000107519
7.92794e-05
0.00013245
4.88255e-05
4.88286e-05
0.000107568
0.000132329
8.29893e-05
2.17873e-05
2.17903e-05
8.29366e-05
2.1787e-05
2.17902e-05
8.3005e-05
2.17856e-05
2.17822e-05
2.17844e-05
2.17876e-05
8.29864e-05
2.39721e-05
2.397e-05
2.39662e-05
2.3969e-05
2.39644e-05
8.24819e-05
2.17712e-05
2.17688e-05
2.17722e-05
2.17715e-05
8.23108e-05
0.000107557
0.000132502
4.88252e-05
7.92998e-05
0.000107573
4.88201e-05
0.000132537
8.27171e-05
2.17813e-05
2.17803e-05
8.29074e-05
2.17776e-05
2.1778e-05
0.000107358
4.88088e-05
7.91122e-05
0.000132367
4.88112e-05
0.000107179
0.0001325
0.000107302
7.90532e-05
4.87952e-05
0.000132282
4.88075e-05
0.0001071
0.000132458
2.39598e-05
2.39616e-05
2.39567e-05
2.39586e-05
8.20101e-05
2.17672e-05
2.17645e-05
8.21257e-05
2.17663e-05
2.17636e-05
0.000106381
0.000131099
7.84533e-05
4.8781e-05
4.87841e-05
0.000131299
0.000106257
0.000106324
0.000131019
7.84113e-05
4.87647e-05
4.87677e-05
0.000131211
0.000106209
0.000106674
4.8798e-05
0.000131952
7.8629e-05
0.000106842
4.8793e-05
0.000131727
0.000106607
4.87819e-05
0.000131856
7.85762e-05
0.000106767
4.87765e-05
0.000131634
8.19127e-05
2.17638e-05
2.17611e-05
2.1764e-05
2.17613e-05
8.18614e-05
3.68316e-05
0.00010161
4.11881e-05
9.59939e-05
4.11894e-05
9.6028e-05
3.683e-05
2.03847e-05
8.01559e-05
5.0921e-05
2.03851e-05
8.01753e-05
3.68337e-05
0.000101608
4.11905e-05
9.59983e-05
4.11906e-05
3.68339e-05
9.60354e-05
2.03815e-05
8.00384e-05
5.09132e-05
8.0107e-05
2.03802e-05
3.68261e-05
4.11845e-05
9.5817e-05
0.000101363
3.68279e-05
4.11827e-05
9.5718e-05
2.03738e-05
5.08865e-05
7.95147e-05
2.03732e-05
7.95831e-05
2.0377e-05
7.98435e-05
5.08955e-05
2.03779e-05
7.97753e-05
3.68221e-05
0.00010108
4.11779e-05
9.53539e-05
3.68209e-05
4.1179e-05
9.5453e-05
3.68238e-05
4.11844e-05
9.58097e-05
0.00010136
3.68256e-05
4.11827e-05
9.57091e-05
2.03722e-05
5.0882e-05
7.94916e-05
7.95654e-05
2.03715e-05
2.03754e-05
7.98339e-05
5.08916e-05
2.03763e-05
7.97607e-05
3.68197e-05
0.000101079
4.11778e-05
9.53428e-05
4.1179e-05
9.54445e-05
3.68186e-05
0.000107607
0.000132538
4.88375e-05
7.93395e-05
0.000132601
0.000107585
4.88316e-05
8.25764e-05
2.17707e-05
2.17736e-05
2.17726e-05
2.17752e-05
8.24227e-05
0.000107593
0.00013247
4.88267e-05
7.92872e-05
4.8821e-05
0.000107571
0.000132533
8.27934e-05
2.17842e-05
2.17814e-05
2.17786e-05
8.29599e-05
2.17814e-05
0.000107425
4.88006e-05
7.91206e-05
0.000132401
4.88075e-05
0.000132497
0.000107251
0.000107436
7.91694e-05
4.88107e-05
0.000132468
0.000132569
4.88179e-05
0.000107263
2.39667e-05
2.39575e-05
2.39599e-05
8.21393e-05
2.17664e-05
2.17695e-05
8.22473e-05
2.17651e-05
2.17682e-05
0.000106466
0.000131146
7.8477e-05
4.87687e-05
0.000131362
4.87727e-05
0.000106318
0.000106458
7.84776e-05
4.87816e-05
0.000131395
0.000106766
4.87882e-05
0.000132011
7.86474e-05
0.000131791
0.00010693
4.87828e-05
0.000106768
4.87981e-05
0.000132074
7.8668e-05
0.000106932
4.87923e-05
0.000131842
8.20114e-05
2.17618e-05
2.17648e-05
2.3958e-05
2.39606e-05
3.68317e-05
4.11889e-05
9.60039e-05
0.000101602
4.11887e-05
9.60326e-05
3.68322e-05
2.03833e-05
8.01537e-05
5.09124e-05
8.01559e-05
2.03841e-05
3.68288e-05
0.000101586
4.11853e-05
9.59283e-05
4.11868e-05
9.59821e-05
3.68271e-05
2.03797e-05
5.09029e-05
7.99529e-05
8.0027e-05
2.03786e-05
3.6824e-05
9.57348e-05
4.1182e-05
0.000101268
3.68256e-05
9.56389e-05
4.11801e-05
2.03734e-05
5.08806e-05
7.94923e-05
2.03729e-05
7.95522e-05
2.03763e-05
7.97967e-05
5.08893e-05
2.0377e-05
7.97364e-05
3.68204e-05
0.000100996
9.52983e-05
4.11758e-05
3.68195e-05
9.53904e-05
4.11766e-05
3.68212e-05
4.11813e-05
9.56998e-05
0.000101255
3.68227e-05
4.11795e-05
9.56081e-05
2.03717e-05
5.08752e-05
7.94399e-05
7.95015e-05
2.03713e-05
2.03744e-05
7.9753e-05
5.08833e-05
2.03751e-05
7.96871e-05
3.68176e-05
0.000100975
4.11752e-05
9.52631e-05
4.1176e-05
9.53479e-05
3.68168e-05
2.03864e-05
8.02099e-05
5.09242e-05
8.02315e-05
2.0387e-05
3.6834e-05
0.000101682
9.60491e-05
4.11882e-05
9.60837e-05
4.11897e-05
3.68322e-05
2.03827e-05
5.09156e-05
8.00513e-05
8.01505e-05
2.03812e-05
2.03862e-05
8.02015e-05
5.09202e-05
8.02217e-05
2.03868e-05
3.68334e-05
0.000101691
4.11889e-05
9.60683e-05
4.11903e-05
9.61042e-05
3.68315e-05
2.03826e-05
5.09116e-05
8.00684e-05
8.01538e-05
2.0381e-05
3.68251e-05
9.5823e-05
4.1184e-05
0.000101378
3.68271e-05
9.57101e-05
4.11818e-05
2.03726e-05
5.08822e-05
7.95565e-05
2.0376e-05
7.98471e-05
5.08922e-05
2.0377e-05
7.97514e-05
3.68205e-05
0.000101066
9.54168e-05
4.11773e-05
3.68244e-05
4.11846e-05
9.58585e-05
0.000101388
3.68265e-05
4.11824e-05
9.57379e-05
2.03719e-05
5.0877e-05
7.95575e-05
2.03755e-05
7.9856e-05
5.0887e-05
2.03767e-05
7.97659e-05
3.68196e-05
0.000101072
4.11779e-05
9.54356e-05
0.000107495
0.000132525
4.88296e-05
7.91888e-05
0.000132547
0.000107573
4.88223e-05
0.000107477
0.000132467
4.88162e-05
7.91513e-05
4.88091e-05
0.000107549
0.000132489
8.23941e-05
2.17665e-05
2.17694e-05
2.17682e-05
2.17713e-05
8.22278e-05
8.26046e-05
2.17792e-05
2.17761e-05
2.17736e-05
8.27845e-05
2.17768e-05
0.000107183
7.89472e-05
4.87896e-05
0.000132124
4.87959e-05
0.000132308
0.000107015
0.000107197
7.89801e-05
4.88021e-05
0.000132172
0.000132372
4.88089e-05
0.000107022
2.39626e-05
2.39556e-05
2.39571e-05
8.19316e-05
2.17626e-05
2.17658e-05
8.2055e-05
2.17618e-05
2.1765e-05
0.000106254
7.83592e-05
0.000131104
4.87666e-05
0.000106249
7.8359e-05
4.87783e-05
0.000131137
0.000106536
4.8779e-05
0.00013172
7.85107e-05
0.000131511
0.000106706
4.87744e-05
0.000106535
4.87912e-05
0.000131769
7.85188e-05
0.000106709
4.87864e-05
0.000131543
8.18268e-05
2.17596e-05
2.17627e-05
2.39567e-05
2.39583e-05
3.68348e-05
9.60604e-05
4.11903e-05
0.000101666
9.60906e-05
4.11901e-05
3.68355e-05
3.68315e-05
0.000101657
9.59689e-05
4.11862e-05
9.60346e-05
4.1188e-05
3.68295e-05
2.03805e-05
5.09072e-05
7.99586e-05
8.00574e-05
2.03792e-05
2.03846e-05
8.01853e-05
5.09198e-05
8.01962e-05
2.03854e-05
3.68307e-05
0.000101659
9.59946e-05
4.11865e-05
9.60513e-05
4.11882e-05
3.68288e-05
2.03809e-05
5.09095e-05
8.00054e-05
8.00918e-05
2.03795e-05
3.68228e-05
9.57089e-05
4.11817e-05
0.00010126
3.68245e-05
9.55987e-05
4.11798e-05
2.03748e-05
7.97647e-05
5.08862e-05
2.03755e-05
7.96711e-05
3.68219e-05
9.57586e-05
4.1182e-05
0.000101279
3.68238e-05
9.56466e-05
4.118e-05
2.03746e-05
7.97998e-05
5.08844e-05
2.03755e-05
7.97178e-05
2.3969e-05
2.39645e-05
2.39641e-05
8.19046e-05
2.17628e-05
2.17608e-05
8.2114e-05
2.17606e-05
2.17593e-05
0.000106254
7.83876e-05
0.000131198
4.87691e-05
0.000106573
4.87908e-05
0.000131991
7.86031e-05
0.000106858
0.00013165
4.87798e-05
0.00010656
4.87808e-05
0.000131882
7.85566e-05
0.000106792
0.000131619
4.87761e-05
8.17087e-05
2.17566e-05
2.17553e-05
2.39548e-05
2.39577e-05
2.39566e-05
2.03799e-05
5.0902e-05
7.97749e-05
7.9557e-05
2.03846e-05
2.0378e-05
5.0891e-05
7.91115e-05
7.93726e-05
2.03707e-05
3.682e-05
9.53589e-05
4.11794e-05
0.000100454
9.50388e-05
4.11722e-05
3.68272e-05
3.68158e-05
9.44346e-05
4.11582e-05
0.000100188
9.47943e-05
4.11675e-05
3.68058e-05
2.03776e-05
5.08912e-05
7.91389e-05
7.93995e-05
2.03708e-05
2.03795e-05
5.09008e-05
7.97981e-05
7.95883e-05
2.03839e-05
3.68185e-05
4.11795e-05
9.53826e-05
0.000100466
4.11722e-05
9.50682e-05
3.68256e-05
3.68143e-05
9.44578e-05
4.11582e-05
0.000100197
4.11675e-05
9.48165e-05
3.68046e-05
2.03871e-05
5.09244e-05
7.99078e-05
2.03852e-05
8.00432e-05
3.68343e-05
4.11895e-05
9.59756e-05
0.000101402
3.68353e-05
9.58761e-05
4.1188e-05
2.03866e-05
5.09256e-05
8.0149e-05
2.03872e-05
8.01016e-05
3.68337e-05
9.55527e-05
4.11826e-05
0.000101272
3.68298e-05
9.57729e-05
4.11869e-05
2.0386e-05
5.09188e-05
7.99301e-05
2.03843e-05
8.00551e-05
3.68322e-05
4.11893e-05
9.59859e-05
0.000101409
3.68331e-05
4.11879e-05
9.58936e-05
2.03854e-05
5.09194e-05
8.015e-05
2.03858e-05
8.01103e-05
3.68317e-05
4.11825e-05
9.55794e-05
0.000101279
3.6828e-05
4.11868e-05
9.57912e-05
3.68356e-05
9.60226e-05
4.1191e-05
0.000101408
3.68372e-05
9.5894e-05
4.11889e-05
2.03877e-05
5.0927e-05
8.01989e-05
2.03884e-05
8.01338e-05
2.03874e-05
8.01879e-05
5.09241e-05
2.03881e-05
8.01234e-05
2.03878e-05
5.09229e-05
7.98824e-05
2.03853e-05
8.00419e-05
2.03813e-05
5.09049e-05
7.98385e-05
7.96248e-05
2.03858e-05
3.68212e-05
9.54231e-05
0.000100489
4.11802e-05
9.50984e-05
4.11729e-05
3.68285e-05
3.68189e-05
0.000100464
9.53709e-05
4.11801e-05
9.50405e-05
4.11726e-05
3.68263e-05
2.03871e-05
5.09248e-05
8.02004e-05
2.03874e-05
8.01591e-05
3.68353e-05
9.60422e-05
4.11905e-05
0.000101469
3.68362e-05
9.59493e-05
4.11891e-05
3.68348e-05
9.56265e-05
0.000101333
4.11835e-05
3.6831e-05
9.58458e-05
4.11879e-05
2.03864e-05
8.01771e-05
5.09255e-05
2.03869e-05
8.0127e-05
3.6833e-05
0.000101317
9.55792e-05
4.11834e-05
3.6829e-05
9.58084e-05
4.11879e-05
2.03869e-05
5.09237e-05
7.99215e-05
2.03849e-05
8.00618e-05
0.000107662
0.000132638
4.88487e-05
7.93646e-05
0.000107745
0.000132464
4.88491e-05
8.31442e-05
2.17897e-05
2.17892e-05
8.31814e-05
2.17914e-05
2.17914e-05
0.000107617
0.000132562
4.88343e-05
7.93548e-05
0.000107682
0.000132392
4.88365e-05
8.30966e-05
2.17939e-05
2.17912e-05
8.29875e-05
2.17939e-05
2.17926e-05
0.000107487
7.92763e-05
4.88423e-05
0.000131743
0.000107236
0.000132157
4.88412e-05
0.000107547
7.92979e-05
4.88363e-05
0.000131817
0.000107286
0.000132235
4.88445e-05
2.39736e-05
2.39746e-05
2.39751e-05
0.000137699
0.000173216
0.000178718
0.000172998
0.000144129
0.000137342
0.000178543
0.000178736
0.000173302
0.000137808
0.00017304
0.000144126
0.000178542
0.000137367
0.000225924
0.000225722
0.00022626
0.000227376
0.000227542
0.000223694
0.00022193
0.000142843
0.00016838
0.000168304
0.000190997
0.000168445
0.000168478
0.00014278
0.000141992
0.000166438
0.000188836
0.000166412
0.000167013
0.00014149
0.000167045
0.000141321
0.000190247
0.00016692
0.000166859
0.000167314
0.000167255
0.000141072
0.000142702
0.000168192
0.000168149
0.0001908
0.000168338
0.000142632
0.000168294
0.000141462
0.000190336
0.000167002
0.000167028
0.000167406
0.000167432
0.00014119
0.000178649
0.000141502
0.000184105
0.000148565
0.000141602
0.000184298
0.000178458
0.000178623
0.000184105
0.000141488
0.000148558
0.000184292
0.000141579
0.000178441
0.00014266
0.000168226
0.00016818
0.000190874
0.000168318
0.000142628
0.000168273
0.000141179
0.000190028
0.000167082
0.000167123
0.000163809
0.000104651
0.000150766
0.000124676
0.000150147
0.000124107
0.000164436
0.000123267
0.000104063
0.000163274
0.000104506
0.000149226
0.000149816
0.000123866
0.000165801
0.000151411
0.000105595
0.000125045
0.000151879
0.000165282
0.000125456
0.000165955
0.000151613
0.000105636
0.000125143
0.000151999
0.000165504
0.000125511
0.000142548
0.000168247
0.00016817
0.000190088
0.00014274
0.000167861
0.000167952
0.000225219
0.000226107
0.000226423
0.000227652
0.000227667
0.000223857
0.000222082
0.00022507
0.000225793
0.000226387
0.000227461
0.000227601
0.000223715
0.00022194
0.000224658
0.000225606
0.000226079
0.00022727
0.000227311
0.000223565
0.000221822
0.000227116
0.000229883
0.000229958
0.000228738
0.000228861
0.000225549
0.000227373
0.000227029
0.000229818
0.000229847
0.000228651
0.000228684
0.000225414
0.000227243
0.000227118
0.000229973
0.000228919
0.000228948
0.000225702
0.000227493
0.000227134
0.000229918
0.000228793
0.000228912
0.000225567
0.000227376
0.000178657
0.000184078
0.000141548
0.000148662
0.000141689
0.000184321
0.000178438
0.000167097
0.000152635
0.000125971
0.000105926
0.000152753
0.000126064
0.000166903
0.000178796
0.000148687
0.000141717
0.000184632
0.000141703
0.000184506
0.000178924
0.000167128
0.000105897
0.000126046
0.000152778
0.000152754
0.00012605
0.000167224
0.000167106
0.000152638
0.000125964
0.000105891
0.000152718
0.000126028
0.000166955
0.00017872
0.000184217
0.000141573
0.000148653
0.000184404
0.000141664
0.000178538
0.000178772
0.000148662
0.000184606
0.000141623
0.000184507
0.000141654
0.000178855
0.000167076
0.000105755
0.000125896
0.000152551
0.000152671
0.000125962
0.000167089
0.000142747
0.00019095
0.000168388
0.00016833
0.00016844
0.000168413
0.000142503
0.000139918
0.000163756
0.000185767
0.000163679
0.000164347
0.000164439
0.000139185
0.000140528
0.000166001
0.000186743
0.000165894
0.00014119
0.000165188
0.000165293
0.000142137
0.000166757
0.00018918
0.000166652
0.000141687
0.000167216
0.000167309
0.000142402
0.000189917
0.000168096
0.000168029
0.000167704
0.000142601
0.000167787
0.000174666
0.000180517
0.000139666
0.000145641
0.000138992
0.000180007
0.000175188
0.000162777
0.000148682
0.000104194
0.000122917
0.000123517
0.000149261
0.000162313
0.000163598
0.000150599
0.000124527
0.000104544
0.000123946
0.000149983
0.00016421
0.00017392
0.00017897
0.00014517
0.000137885
0.000138538
0.00017931
0.000173542
0.000174568
0.000180478
0.000139604
0.000145618
0.000138924
0.000179973
0.000175085
0.000173849
0.000178955
0.000145148
0.000137822
0.000138473
0.000179288
0.000173484
0.000176663
0.000181486
0.000140114
0.000147434
0.00017615
0.000140679
0.000182046
0.000166224
0.000152445
0.000105693
0.000125842
0.000152173
0.0001256
0.000166582
0.00016561
0.000151255
0.000124916
0.00010554
0.000151743
0.000165073
0.000125358
0.000177516
0.000183411
0.00014781
0.000141346
0.000140993
0.000182976
0.000177897
0.000176564
0.000181443
0.000140055
0.000147415
0.000176044
0.00014063
0.000182001
0.000166113
0.000152364
0.000105639
0.000125805
0.000125547
0.000152068
0.000166491
0.000165464
0.00015109
0.000124831
0.00010547
0.00016491
0.000125291
0.000151599
0.000177435
0.00018338
0.000147793
0.000141315
0.000140951
0.00018294
0.000177829
0.00014231
0.000189674
0.000167973
0.000167931
0.000167565
0.000142556
0.0001676
0.000140981
0.000166435
0.00018746
0.000166463
0.000141549
0.000165832
0.000165812
0.000142479
0.000190169
0.000168149
0.000168105
0.000142614
0.000167876
0.000167918
0.0001423
0.000167073
0.00018961
0.000167111
0.00014195
0.00016752
0.000167558
0.000142704
0.000168248
0.000168185
0.000190878
0.000142644
0.000168329
0.000168351
0.000142627
0.000190856
0.000168307
0.000168259
0.00014245
0.000168331
0.000168297
0.000141757
0.000190602
0.000168055
0.000168006
0.000142026
0.000167678
0.000167624
0.000178702
0.000148586
0.000141632
0.000184516
0.000141621
0.000184389
0.000178832
0.00016704
0.000152592
0.000125912
0.000105893
0.000125998
0.000166856
0.000152705
0.000178577
0.000183971
0.000148561
0.000141473
0.000141605
0.000178364
0.000184205
0.000167057
0.000125968
0.000105849
0.000152699
0.000125979
0.0001527
0.000167146
0.000178677
0.000148578
0.000141618
0.000184506
0.000141605
0.000184377
0.000178811
0.000166992
0.000152546
0.000125886
0.00010586
0.0001668
0.000125978
0.000152662
0.000178538
0.000183949
0.000148553
0.000141449
0.00017832
0.000141587
0.000184187
0.000167025
0.000125962
0.000105831
0.000152684
0.000125964
0.000167123
0.000152663
0.000178664
0.000141474
0.000184495
0.000148414
0.000178768
0.000141343
0.000184451
0.00016652
0.00015149
0.000105033
0.000124993
0.000151838
0.000125138
0.000166121
0.000166797
0.000125699
0.000152488
0.000105333
0.000152152
0.000167006
0.000125569
0.000178442
0.000148028
0.000140748
0.000183916
0.00014094
0.000184258
0.000178074
0.000178669
0.000141474
0.000184487
0.000148412
0.000178757
0.000141344
0.000184449
0.000166548
0.000151531
0.000105056
0.000125008
0.00012516
0.000151884
0.000166152
0.000166821
0.000125716
0.000152512
0.000105351
0.000167003
0.00012559
0.000152199
0.000178451
0.00014803
0.000140751
0.000183919
0.000140948
0.000184259
0.000178088
0.000142669
0.000190827
0.000168314
0.000168359
0.000168333
0.00016829
0.000142577
0.000141913
0.000190682
0.000168121
0.000168162
0.00016778
0.000142179
0.000167816
0.000167081
0.000125923
0.000152642
0.000105886
0.000125993
0.000152728
0.000166917
0.000178726
0.000148575
0.000141585
0.00018452
0.000141601
0.000184415
0.000178829
0.000167072
0.000105805
0.000125913
0.000152648
0.000125953
0.000152703
0.000167128
0.000167025
0.000125896
0.000152567
0.000105839
0.000125959
0.000152646
0.000166873
0.000178678
0.000148565
0.000184501
0.000141547
0.0001844
0.000141569
0.000178766
0.000166996
0.000105705
0.000125838
0.000152486
0.000125893
0.000167015
0.000152601
0.000178566
0.000141374
0.00018446
0.000148282
0.00017873
0.000141227
0.000184339
0.000166419
0.000151399
0.000104966
0.000124913
0.000151744
0.000125049
0.00016601
0.000166706
0.000125607
0.000152404
0.000105255
0.000152057
0.000166959
0.000125475
0.000178321
0.000147865
0.000140622
0.000183732
0.00014081