/*--------------------------------*- C++ -*----------------------------------*\
| =========                 |                                                 |
| \\      /  F ield         | OpenFOAM: The Open Source CFD Toolbox           |
|  \\    /   O peration     | Version:  v2006                                 |
|   \\  /    A nd           | Website:  www.openfoam.com                      |
|    \\/     M anipulation  |                                                 |
\*---------------------------------------------------------------------------*/
FoamFile
{
    version     2.0;
    format      ascii;
    class       surfaceScalarField;
    location    "1000";
    object      phi;
}
// * * * * * * * * * * * * * * * * * * * * * * * * * * * * * * * * * * * * * //

dimensions      [0 3 -1 0 0 0 0];
oriented        oriented;


internalField   nonuniform List<scalar> 
41280
(
-5.44442e-08
-2.15824e-07
2.33324e-07
8.76177e-07
-1.83096e-07
-8.27944e-07
2.22593e-07
-0.00113156
9.79227e-07
-7.27699e-07
-9.10103e-07
8.01344e-07
-0.00115059
-7.67721e-09
-2.23989e-08
7.82439e-08
6.87302e-10
0.000246145
-0.000246194
-2.44183e-08
0.000250625
1.33355e-07
1.59383e-09
-0.000250738
-7.1082e-09
2.1947e-08
-7.48688e-09
0.000279137
-0.000279152
2.84286e-09
9.83711e-05
-9.8381e-05
-4.70709e-09
0.000194297
-0.000194312
0.000230048
4.23952e-09
-8.4419e-09
-0.000230066
1.73568e-08
-0.000222466
1.30723e-08
-3.81817e-08
0.000183598
1.04495e-08
-7.18722e-09
-0.000183611
9.93e-10
-9.35041e-09
2.95883e-08
-0.000222489
-2.40241e-08
-0.000222543
1.78044e-08
1.27303e-08
-3.93328e-08
0.000251316
-1.44423e-08
4.81982e-08
2.24119e-08
-0.00025135
1.38478e-08
0.000183656
-5.85244e-09
-0.000183672
-3.06939e-08
2.00801e-09
1.18476e-08
-1.45456e-08
-7.25859e-08
-3.62988e-08
-7.6183e-09
2.78197e-08
-0.000222563
1.82943e-09
7.12088e-09
-0.000214434
6.23436e-09
8.0806e-05
2.93502e-09
-8.08161e-05
4.24046e-09
8.08213e-05
-8.08314e-05
-0.000214443
-2.4164e-09
-1.56117e-08
-7.95766e-05
7.99257e-10
0.000264182
-1.47796e-08
-4.65679e-09
3.02044e-08
-0.000264198
1.20877e-09
-2.68646e-08
-5.61667e-09
-4.23953e-08
-1.00908e-09
-7.95904e-05
-1.78396e-08
-0.000143923
1.64588e-09
4.78923e-09
1.63925e-08
-4.64327e-08
0.000224108
-1.14914e-08
2.93496e-08
-0.000224126
1.21811e-09
0.000171729
-0.000171738
-4.96293e-08
-0.000143935
-9.9554e-08
-0.00024336
0.00026113
-8.76652e-08
-0.000261412
-0.000243472
-0.000264367
1.68638e-08
1.75382e-07
-1.58065e-08
6.01086e-09
0.000260846
-0.000260935
1.47483e-07
0.000251362
-1.9001e-09
-0.000251476
-9.38364e-08
-9.37718e-09
3.58765e-09
-0.000265045
-9.02771e-09
-0.000265948
-3.29883e-09
1.97746e-07
-1.80844e-07
3.96315e-09
3.73711e-10
0.000266076
-0.000266674
1.55192e-07
0.000250101
-0.000250228
-0.000266699
1.2978e-06
4.32067e-08
-1.134e-06
2.61232e-07
-1.9128e-07
2.40317e-07
8.87833e-07
-0.00113145
1.3059e-07
-8.21929e-07
-1.57161e-07
-1.18945e-06
2.16836e-07
2.41743e-07
-1.28446e-06
-0.000268224
-2.7651e-07
-1.75211e-07
2.24002e-07
-8.27911e-07
2.24737e-07
8.78712e-07
-1.8041e-07
-0.00113114
-1.25389e-06
-2.24141e-07
1.17633e-06
-3.51897e-07
-2.39968e-07
-1.26157e-06
2.18564e-07
-2.35336e-07
-8.38845e-07
2.14537e-07
-2.12509e-07
8.76026e-07
-0.00113107
-0.000268209
2.13262e-07
2.48747e-07
-7.48568e-08
-1.00801e-08
-0.00118058
-1.2743e-07
-1.16479e-07
-0.00118063
-9.37263e-08
7.13782e-09
-1.10035e-08
-2.56795e-08
4.59939e-09
-0.000279128
-5.3186e-09
-9.83699e-05
2.3044e-08
-9.22353e-08
-6.93208e-09
-0.000246131
4.62135e-08
-4.56604e-09
2.98209e-09
-1.77395e-07
-0.000250603
-2.02751e-09
-0.000194296
-4.38111e-09
5.28544e-09
1.39073e-08
-0.000230037
2.79774e-08
9.26555e-09
-9.90749e-08
-1.2243e-09
-0.000246073
4.69104e-08
-1.80549e-07
-3.2229e-09
-0.000250578
5.65707e-09
3.19668e-10
-0.000194245
1.41297e-08
-2.87407e-09
-0.000229999
-1.16483e-08
-5.04735e-09
-9.83532e-05
-2.52769e-08
4.01533e-09
-1.36675e-08
-0.000279007
7.54019e-09
-1.50189e-08
-2.92075e-08
5.75181e-09
-0.000279121
-6.77904e-09
-9.83667e-05
1.98419e-08
-1.74426e-07
-9.10517e-07
8.03247e-07
9.81521e-07
-7.28706e-07
-0.00115075
2.42369e-08
-9.38161e-08
-0.000246132
-7.02872e-09
1.24997e-09
4.75778e-08
-0.000250604
-1.81202e-07
-6.92865e-10
-1.87816e-07
-9.13175e-07
8.00287e-07
-7.2894e-07
9.7883e-07
-0.00115068
2.52823e-08
1.16596e-08
-8.4928e-08
-0.000246058
-6.91522e-09
4.7595e-08
-0.000250581
-1.78389e-07
3.6476e-09
-0.000194291
-3.35267e-09
-1.74589e-09
-0.000230035
3.95213e-09
1.48056e-08
6.778e-09
-0.000194241
-1.73475e-09
-0.000229997
4.74135e-10
1.48704e-08
7.65803e-09
-3.86552e-08
5.76204e-09
-0.000279076
6.93905e-09
-1.70216e-08
-0.000279021
5.31138e-09
-9.83532e-05
-9.83478e-05
2.11358e-08
-3.37303e-08
-0.000251294
-7.1979e-08
-1.22797e-08
2.91242e-09
-0.000183653
1.35741e-08
-0.000222528
-3.79896e-08
-6.20028e-09
-1.01558e-09
-8.08088e-05
-4.28322e-09
-8.08217e-05
-1.20536e-08
-0.00021443
1.18652e-08
-5.84141e-09
-3.69177e-08
-0.000264172
-1.22356e-09
-7.95769e-05
1.51949e-08
-4.45342e-08
-0.000224099
2.32381e-10
-5.5446e-10
-0.000171725
-0.000143922
9.90511e-09
-4.88476e-12
-4.42023e-08
-0.000264045
-5.50561e-10
-7.95349e-05
-8.17591e-10
-0.000171694
1.41744e-08
-4.97618e-08
-0.000224001
-0.000143857
2.17591e-08
-6.69088e-08
-0.000251136
-3.70104e-08
-1.52086e-08
2.58187e-09
-0.000183594
1.25183e-08
-3.64427e-08
-0.000222458
2.19386e-08
-7.21881e-08
-3.37428e-08
-0.000251296
-1.58988e-08
4.0695e-09
-0.000183654
1.39075e-08
-3.86333e-08
-0.000222533
-6.35028e-09
-8.08072e-05
-4.82751e-09
-8.08225e-05
-0.000214428
1.8137e-08
7.95762e-05
-3.4738e-09
-7.95908e-05
-7.85248e-09
2.44416e-08
5.25495e-10
-0.000194308
-0.000264166
1.19119e-08
-6.22638e-09
-4.08134e-08
-3.78811e-09
3.13921e-08
-0.000264183
-2.29518e-09
1.31105e-08
-3.3751e-09
0.00014392
-0.000143933
2.69408e-09
-9.93687e-09
-9.74123e-10
2.54623e-08
-0.000230053
-0.000224096
1.59733e-08
-4.86502e-08
-0.000171723
1.13684e-09
-1.03165e-09
2.98491e-08
-0.000224114
-1.56476e-09
-0.000171735
1.44383e-08
7.95332e-05
-1.15233e-09
-7.95465e-05
-4.82793e-09
-2.73519e-09
2.56831e-08
-0.000194259
-0.000264043
1.02615e-08
-2.6627e-09
-3.88574e-08
-8.0947e-10
3.13795e-08
-0.000264064
-6.55126e-10
1.01132e-08
-2.54202e-10
0.000143852
-0.000143863
1.88228e-10
-9.7621e-09
2.55814e-08
-0.000230014
-0.000224001
1.47512e-08
-4.70513e-08
-0.00017169
-9.37591e-10
2.95588e-08
-0.000224021
-0.000171701
3.24346e-08
-1.01376e-07
-3.98342e-08
-0.000251249
-2.09653e-08
5.18116e-09
-0.000183633
2.23645e-08
-4.93397e-08
-0.000222512
0.000222473
5.90875e-08
-3.49965e-08
7.82885e-08
-0.000222508
-6.79107e-08
8.02897e-09
-0.000251156
-4.30212e-08
-2.82631e-08
5.15513e-08
-8.60554e-09
-1.27612e-08
1.477e-08
-0.000279066
-8.34614e-09
-0.000183596
4.0056e-09
6.0353e-09
-2.65742e-08
1.84268e-07
3.50935e-08
-0.000251265
-0.00018363
-1.02439e-08
-5.5188e-09
-8.08111e-05
-5.16699e-09
-8.08012e-05
-0.000214421
-9.83633e-05
1.01895e-07
-2.48467e-07
-0.000261469
9.54027e-08
-0.000261114
-0.00024335
0.000243341
2.78127e-09
1.62449e-07
2.00699e-08
-0.000243448
-2.39664e-07
-1.5584e-07
-0.000270209
1.20262e-07
-0.000261125
7.90481e-08
-0.000261426
8.04201e-08
-0.000261634
-0.00026147
7.26144e-09
-0.00121017
-3.40325e-07
-0.00121016
-3.3722e-07
-1.27315e-08
-2.26133e-07
-0.000260821
-1.74279e-07
-5.06352e-09
-0.000251344
-5.12259e-09
-8.85506e-07
-0.00026434
-1.94563e-07
-0.00025008
1.03011e-09
-4.51203e-09
-8.04534e-07
-0.000266053
-9.85634e-07
-0.000265925
-9.76442e-09
-0.000260764
-1.7735e-07
1.13017e-09
-0.000251263
-3.46713e-09
-0.000264274
2.79918e-10
-8.05024e-07
-0.000266043
-1.99491e-07
-0.00025
-9.84285e-07
-0.000265867
0.000264346
-6.13988e-09
-1.465e-07
7.11031e-10
-0.000265022
-1.3419e-08
-0.000260824
7.51862e-08
4.17292e-09
-8.66164e-09
-0.000246178
-1.76104e-07
-0.000251345
-3.07887e-09
-9.71431e-09
-2.5075e-08
-0.00026091
2.03834e-09
-0.000251458
0.000265928
3.10188e-09
-1.5394e-07
-0.000266687
1.35379e-07
-2.65882e-09
2.56434e-09
-0.000250714
-1.98282e-09
-0.000266056
5.27858e-09
-1.98639e-07
-0.000250081
2.03015e-09
-0.000266648
-0.000250206
-1.47357e-07
-3.09299e-09
0.000264272
-4.6969e-09
-0.000264956
-0.00026075
-1.58533e-08
3.63059e-09
8.45027e-08
-0.000246105
-0.000251256
-1.68356e-07
-7.10204e-09
-1.14248e-09
-0.000251367
-0.000260846
-2.46303e-08
-5.18487e-09
-1.54435e-07
0.000265867
-0.000266625
1.35781e-07
2.47683e-09
-0.000250691
-0.000266048
1.05247e-08
-0.000250004
-1.9354e-07
-0.000266645
-0.000250127
-7.23824e-08
4.84385e-09
-0.000229877
2.6075e-09
3.35545e-08
0.000229908
2.58754e-09
0.000250617
4.15174e-09
-1.97525e-07
-0.000250498
-7.14397e-08
-0.000229839
3.3207e-08
1.20683e-08
0.00022987
0.000250585
-1.96715e-07
1.30426e-08
-0.00025047
-5.62404e-09
-2.91203e-09
0.000143812
-0.000143808
5.35331e-09
3.35782e-09
5.68832e-09
5.22152e-09
-5.46325e-10
-0.000229891
-0.000223934
2.95707e-08
0.000223969
-7.24792e-08
1.0792e-08
-0.000171589
9.98125e-10
1.28043e-09
0.00017162
5.57719e-09
-0.000223951
9.06198e-09
2.19776e-09
-0.000171589
0.000143839
3.38422e-09
-7.14364e-09
-3.9927e-09
0.000143741
-0.000143738
8.0226e-09
5.37746e-09
1.31221e-08
2.57372e-09
-0.000229854
-0.000171554
3.32469e-09
0.000171586
-0.00022384
2.82751e-08
0.000223875
-6.70852e-08
1.52883e-08
-0.000171554
1.07181e-08
-0.000223858
1.68683e-08
0.000143768
4.72692e-09
2.68291e-07
-1.78872e-08
-8.42401e-08
-1.92814e-07
0.0011811
-0.00118108
-1.24463e-07
5.10327e-08
0.00115083
1.84504e-08
-0.0011509
9.79354e-07
-7.33373e-07
7.98576e-07
-9.12883e-07
-1.21972e-06
-0.00113097
-5.56247e-08
0.00113097
-2.06144e-07
1.26751e-06
2.45602e-07
-1.47182e-07
8.86748e-07
-1.79212e-07
2.3337e-07
-8.28035e-07
1.16484e-06
-0.000270162
1.22716e-06
-1.85301e-07
-2.03505e-07
0.000268159
0.000279056
-1.36302e-08
2.01335e-08
-0.000279025
-4.26762e-08
5.22133e-09
7.49688e-09
-2.9021e-09
6.36704e-09
0.000279054
-8.60014e-09
-2.73127e-07
-1.27015e-06
0.00113188
-2.29564e-07
1.18828e-06
-2.33962e-07
2.3444e-07
8.85397e-07
-1.98367e-07
2.29989e-07
-8.38024e-07
-0.00113137
0.00115104
1.13677e-08
-0.00115091
-9.13639e-07
8.05771e-07
-7.32727e-07
9.85218e-07
-1.29548e-07
-1.49793e-07
-1.25252e-06
-0.00113141
-2.4158e-07
0.00113181
1.20495e-06
-2.12478e-07
2.48453e-07
8.84774e-07
-1.78895e-07
2.30844e-07
-8.3705e-07
-2.47879e-07
2.15067e-08
6.13134e-08
0.00115094
-1.15735e-07
9.82319e-07
-7.37176e-07
-9.17181e-07
7.99237e-07
1.18315e-06
1.2134e-06
-1.89677e-07
0.000268164
-1.89182e-07
-0.000270182
1.70365e-09
-9.83711e-05
1.048e-08
9.83589e-05
9.85913e-09
-0.000278941
1.02458e-08
0.000278935
-1.23889e-08
1.19405e-08
-9.83847e-05
-1.91553e-09
9.83747e-05
-0.000279099
-1.18314e-08
1.51615e-08
2.25887e-08
-1.0693e-08
0.000279084
-1.26639e-06
-1.22366e-06
-0.000268232
2.30019e-07
2.32256e-07
-0.00113134
-1.24639e-06
-2.48585e-07
0.00113171
-2.07325e-07
1.20713e-06
2.5823e-07
8.92328e-07
-1.75772e-07
-8.30172e-07
2.53041e-07
-1.17996e-06
-0.00113171
-3.6704e-08
0.00113169
-2.07312e-07
1.22338e-06
2.45033e-07
-1.34003e-07
8.86239e-07
-1.81788e-07
-8.30178e-07
2.30362e-07
-1.61257e-07
-0.00113103
-4.42252e-08
-1.22678e-06
2.41009e-07
-2.17343e-07
-8.32107e-07
2.2717e-07
-1.86193e-07
8.83068e-07
1.26699e-06
-3.24557e-07
-0.00113115
-3.52782e-08
-1.22539e-06
2.44431e-07
-2.1501e-07
-8.31384e-07
2.27014e-07
-1.86291e-07
8.83225e-07
1.21725e-06
-0.000270184
-1.92481e-07
-1.93351e-07
0.000268173
-9.83949e-05
8.2564e-09
6.1474e-09
9.83805e-05
-1.28497e-06
-0.000268234
2.37403e-07
2.32308e-07
-3.3266e-10
-2.33337e-08
-0.000250643
-1.55911e-09
1.35223e-07
0.000250533
-2.31066e-08
-0.000250615
1.35347e-07
9.11266e-10
0.000250501
-1.58422e-07
-0.00113201
-7.27026e-08
-1.1808e-06
2.36232e-07
-2.06868e-07
-8.35168e-07
2.25712e-07
-1.87548e-07
8.84845e-07
-0.00113156
9.54303e-08
-1.15908e-06
-2.02339e-07
-8.34783e-07
2.23306e-07
-1.87229e-07
8.8504e-07
1.38765e-09
2.63955e-08
-0.000229987
-3.90605e-09
-8.40201e-09
0.000229972
-0.00113167
-6.53447e-08
0.00113157
-1.92464e-07
1.23853e-06
2.62379e-07
-1.00041e-07
8.85546e-07
-1.79838e-07
2.46468e-07
-8.28366e-07
-0.000229949
2.70459e-08
-8.37457e-09
-2.25115e-09
0.000229934
-2.06237e-07
-0.00113155
1.09468e-07
-1.16184e-06
2.46565e-07
-2.07393e-07
-8.29334e-07
-1.87041e-07
-0.000270184
1.17423e-06
-1.90991e-07
-1.91921e-07
0.000268173
6.7466e-09
-9.83844e-05
8.31069e-09
9.83693e-05
-0.0011508
-1.53221e-07
6.96628e-09
6.45211e-08
0.00115075
9.75322e-07
-7.33654e-07
7.95473e-07
-9.13829e-07
1.73801e-08
-0.000194303
4.68171e-09
0.000194287
-0.000229952
2.42246e-08
-3.55366e-09
2.57754e-10
-8.72574e-09
0.00022994
-9.83842e-05
7.85507e-09
8.12539e-09
9.83682e-05
-7.13859e-08
-0.00118149
-1.74157e-07
-6.46082e-08
0.00118153
0.000246082
4.35396e-08
-0.000246017
-1.10282e-07
-1.20052e-08
8.36421e-07
-1.366e-07
0.000264171
8.42616e-09
-1.41365e-08
-0.000264865
-1.09446e-08
6.23829e-08
0.000246037
9.8085e-10
-0.000245989
-1.09791e-08
6.42319e-08
0.000245945
4.95989e-10
0.00113152
-4.04084e-08
-2.02728e-07
1.23379e-06
2.49442e-07
-1.12795e-07
-0.00113157
8.81858e-07
-1.75927e-07
2.31158e-07
-8.26724e-07
1.22493e-06
-1.30278e-07
-0.00113155
2.44901e-07
-1.17573e-06
-2.10041e-07
-1.27942e-07
-8.41523e-07
2.22675e-07
8.74487e-07
-2.03098e-07
-2.5647e-09
-5.01841e-08
1.7549e-08
-5.33656e-10
-0.000229914
1.31113e-06
1.0459e-07
-0.00113147
-1.15009e-06
2.60202e-07
-1.91306e-07
5.43276e-08
-8.26012e-07
2.31269e-07
8.85673e-07
-1.81112e-07
-1.44347e-07
4.33168e-11
2.53455e-08
-0.00115081
-9.09904e-07
7.98798e-07
9.79083e-07
-7.30116e-07
-0.000194269
7.81279e-09
0.000194262
1.11324e-08
-5.02837e-08
-3.77728e-09
3.41476e-10
1.69799e-08
-0.000229916
-1.26887e-06
2.37702e-07
2.40372e-07
-0.000268147
9.05552e-10
-1.10081e-08
-9.83741e-05
-2.24477e-09
-6.13978e-08
0.000229944
2.80249e-08
4.03083e-09
-0.000229913
4.0793e-09
5.9298e-09
0.000194213
-1.02556e-08
-0.000194213
2.19297e-09
-4.23005e-08
0.000194277
5.29729e-09
-0.000194242
-2.2209e-09
5.45922e-09
0.000229896
5.15178e-09
9.09212e-09
-0.000229914
-1.26387e-09
1.74464e-09
9.83424e-05
-9.83429e-05
-1.8462e-08
1.94448e-09
-9.83546e-05
1.20019e-09
-4.61392e-08
0.000230031
-0.000229999
1.53464e-08
-2.65507e-09
-0.000194313
-8.30719e-09
1.50532e-08
5.87018e-09
0.000194301
-0.000229986
1.33068e-10
2.3657e-08
0.000229975
-1.00673e-08
-2.35385e-09
4.99917e-09
-2.58879e-08
0.000194325
3.91564e-09
-0.000194308
-9.83829e-05
5.5573e-09
1.07545e-08
9.83666e-05
-5.16574e-09
-7.54222e-09
9.83746e-05
-9.83619e-05
-2.19123e-09
-0.000229989
-1.04341e-08
-1.07745e-09
0.000229979
-5.32058e-09
2.11027e-08
-0.000194309
1.18218e-09
0.000194292
-4.70569e-08
-2.79101e-09
0.000230031
-0.000229999
1.97585e-09
1.57231e-08
6.68294e-09
-2.18009e-08
0.000194309
-0.000194293
-1.57713e-09
1.51173e-07
-0.001211
-1.32086e-07
1.25682e-07
0.00121092
-6.30736e-08
-0.00121076
7.62283e-09
7.12659e-08
0.00121063
-1.04452e-07
9.02336e-09
8.86746e-08
0.00121064
4.27928e-08
-0.00121091
-0.00118091
-1.09509e-07
-1.43414e-07
-0.00118062
-2.71109e-08
3.21992e-08
0.00113099
-0.00113101
-2.08192e-07
1.26212e-06
2.43706e-07
-1.15584e-07
8.8167e-07
-1.7838e-07
2.28461e-07
-8.27382e-07
5.39754e-09
-0.000250637
1.34405e-07
-2.41676e-09
0.000250526
-1.40103e-08
-1.75499e-08
-0.000246119
6.98521e-08
9.07568e-09
0.000246072
4.54678e-08
-3.55271e-10
0.000250684
-0.000250546
-1.51282e-09
-1.81457e-07
-2.25185e-07
1.19007e-06
0.0011315
-3.36166e-07
-8.27737e-07
2.32627e-07
-1.77489e-07
8.84347e-07
-1.25786e-06
2.27151e-07
-2.19762e-07
5.80677e-09
2.37735e-08
0.000246162
-0.000246097
-4.41061e-10
-9.41101e-08
-7.21891e-08
0.00115068
-1.39784e-07
-9.14143e-07
8.00979e-07
-7.3415e-07
9.81055e-07
-9.83714e-05
6.41673e-09
1.07496e-08
9.83542e-05
-6.69199e-09
-7.36751e-09
9.83645e-05
-9.83504e-05
0.00115082
-0.00115085
-1.55573e-07
9.82248e-07
-7.33499e-07
7.98728e-07
-9.12969e-07
-1.59707e-08
-0.000246123
6.89563e-08
1.09609e-08
0.000246077
5.79406e-10
-2.36863e-08
-0.000250642
1.358e-07
-2.59156e-09
0.000250532
3.63099e-09
4.68911e-08
0.000250689
-0.000250554
-1.80996e-07
-4.58822e-09
-2.04208e-07
1.19724e-06
0.00113145
-3.37806e-07
-8.27825e-07
2.3238e-07
-1.77826e-07
8.84421e-07
-1.25593e-06
2.30971e-07
-2.18585e-07
9.41082e-09
0.00115062
-1.49859e-07
-9.10876e-07
7.98832e-07
-7.30922e-07
9.7901e-07
8.59248e-09
2.4582e-08
0.000246164
-0.0002461
7.76445e-10
-9.80062e-08
1.67053e-08
-0.000279065
1.81739e-08
-1.16181e-08
0.00027905
1.50916e-08
-4.49013e-09
-0.000278991
1.37337e-08
-1.4142e-08
0.000278981
-1.30077e-06
-1.18143e-06
0.000270183
-0.000268171
2.16547e-07
2.53545e-07
-5.29069e-09
1.09593e-08
0.000279085
-0.000279049
-6.62722e-10
-4.08701e-08
-3.06804e-09
5.32549e-09
0.000279022
-0.00027901
1.68794e-09
-1.5192e-08
2.20984e-09
9.83474e-05
-9.83456e-05
-1.92841e-08
9.83878e-05
-9.83663e-05
9.83895e-05
-5.73516e-10
-9.83687e-05
-2.38285e-09
9.39548e-10
9.83488e-05
-9.83473e-05
0.000278983
-1.19158e-08
5.27013e-09
-9.59489e-09
-0.000278969
1.14808e-06
-2.13067e-07
0.000268176
-1.77893e-07
-0.000270203
0.000270192
-1.30683e-06
-1.20001e-06
2.50361e-07
-0.000268164
2.27904e-07
-1.05246e-08
2.30256e-08
0.000278895
5.38157e-09
-0.000278911
0.000278961
-2.0499e-08
-3.86629e-08
8.31173e-09
-0.000278929
-1.47506e-08
1.10828e-09
9.83937e-05
-9.83801e-05
2.64772e-09
7.59e-09
9.83775e-05
8.01979e-09
9.83785e-05
-1.19236e-08
9.83935e-05
-1.32021e-09
-9.83803e-05
1.15744e-06
-1.99013e-07
0.000268167
-1.8553e-07
-5.25399e-09
-0.000279076
-3.20788e-08
2.62472e-09
-1.3081e-06
0.000270201
-1.20146e-06
-0.000268172
2.55765e-07
2.25083e-07
-8.55487e-09
0.000279009
-3.54743e-08
-0.000278981
1.79995e-09
1.90605e-09
9.93217e-09
-7.30745e-09
0.000278959
-6.19409e-08
0.000229907
2.81683e-08
3.35261e-10
-0.000229876
2.69526e-09
0.000229859
5.34191e-09
4.54744e-09
-0.000229874
1.04872e-07
-1.1516e-06
2.63174e-07
-1.96184e-07
-8.3436e-07
2.29939e-07
-1.85133e-07
8.86999e-07
4.3957e-08
-0.00115098
0.00115111
-9.15025e-07
8.02217e-07
-7.3341e-07
9.81218e-07
-1.47598e-07
1.13007e-08
9.86587e-07
-7.29442e-07
8.08544e-07
-9.14548e-07
-0.00115123
-1.36263e-07
-3.82222e-09
0.00025062
-1.86146e-07
7.92615e-09
-0.0002505
7.02169e-08
0.000245963
-1.84476e-08
-0.00024602
0.000246044
-1.04552e-07
-2.0884e-08
-0.000245981
-4.17366e-10
1.19033e-07
0.000250501
1.03892e-08
-0.000250625
9.89965e-07
-7.29256e-07
8.08819e-07
-9.11076e-07
2.4283e-07
-0.00115117
-1.36737e-07
0.000250595
-1.89427e-07
3.91506e-09
-0.000250476
1.18751e-07
0.000250477
6.69935e-09
-0.0002506
-1.72111e-09
1.46384e-08
-2.56471e-09
2.16327e-09
0.000229932
-3.5149e-08
-0.000194287
9.72735e-09
1.14736e-08
4.59447e-09
0.000194269
-3.05587e-10
-5.09687e-08
-0.000229953
1.99417e-08
-1.98597e-09
1.40813e-08
-2.43298e-09
-1.51303e-09
0.000229895
-3.49558e-08
1.2579e-09
0.000194264
-0.000194238
6.96037e-09
1.03059e-08
-6.68579e-09
4.29002e-09
0.000194219
-0.000194227
-5.13468e-08
0.000229949
-0.000229916
1.99501e-08
-2.06412e-09
0.00115086
-8.88179e-08
9.80676e-07
-7.38189e-07
-9.2175e-07
7.98158e-07
9.323e-08
-1.14581e-06
2.63511e-07
-1.91127e-07
-8.32471e-07
2.32198e-07
-1.82871e-07
8.86869e-07
3.94724e-08
5.79711e-08
0.00115091
-9.17252e-07
7.99943e-07
-7.37114e-07
9.80108e-07
-1.44566e-07
-1.95995e-09
1.28316e-07
8.8514e-09
0.0002505
0.000246082
-1.01294e-07
-0.000246019
-5.81826e-09
6.58609e-08
-7.09497e-09
0.000245998
-2.32097e-09
0.000250638
-1.77822e-07
-0.000250511
3.00172e-09
0.0011312
1.26187e-06
-2.03467e-07
2.49067e-07
8.87654e-07
-1.78256e-07
-8.31346e-07
2.34005e-07
-1.14901e-07
-0.00113123
-2.78314e-07
1.18352e-06
-8.29698e-07
2.32317e-07
-1.7442e-07
8.84077e-07
-1.25405e-06
2.36357e-07
-2.1849e-07
-2.92778e-07
0.00115071
-9.18423e-07
8.00892e-07
-7.36137e-07
9.78526e-07
-1.12227e-07
1.27539e-07
1.49473e-09
0.000250478
9.11927e-09
0.00024603
-1.00527e-07
-0.00024597
-4.07794e-09
-3.48032e-09
6.0566e-08
-3.49829e-09
0.000245947
-0.000245991
0.000250613
-1.8108e-07
-0.000250487
1.1929e-09
-1.26427e-08
-9.8369e-05
2.96624e-09
9.83653e-05
-9.8375e-05
-1.30235e-06
-0.000268168
2.18361e-07
2.51092e-07
1.11842e-08
0.000279098
-4.79716e-09
-0.000279071
-3.47861e-08
9.47269e-10
0.000278977
-3.57382e-08
-0.000278947
2.28704e-09
9.81717e-09
-7.99179e-09
0.000278928
-0.00027893
-3.83872e-10
-9.83833e-05
0.000278939
-8.00687e-09
-0.000278947
-1.97064e-09
1.70453e-08
-1.4464e-08
-0.000278911
-3.80329e-08
3.92257e-09
2.03126e-08
0.000279059
-1.73339e-08
-0.000279017
-4.87953e-08
3.42428e-09
0.000270166
-1.23966e-06
-1.26685e-06
2.41034e-07
-0.000268145
2.44711e-07
3.49698e-09
-9.83679e-05
-1.29507e-08
2.82411e-10
-9.83587e-05
-1.18462e-06
-0.000268164
2.22819e-07
2.52738e-07
1.1835e-08
6.71759e-09
0.00027905
-1.16221e-08
1.21715e-06
1.17348e-06
-1.84581e-07
0.000268155
-1.9505e-07
1.12733e-08
0.000279093
-4.4925e-09
-3.53922e-08
-0.000279067
2.83429e-09
0.000278981
-3.86189e-09
-0.000278954
-3.63193e-08
6.50053e-10
1.06135e-09
-9.83742e-05
6.36171e-09
9.83791e-05
-6.89094e-09
9.83882e-05
-9.83763e-05
9.83764e-05
-4.11598e-09
9.83784e-05
-9.83676e-05
1.16404e-06
-2.03492e-07
-1.88569e-07
0.000268183
1.33974e-08
1.32949e-08
-1.30272e-08
0.000279001
0.000270221
-1.31507e-06
-1.17944e-06
-0.000268197
2.1513e-07
2.55187e-07
0.000279118
-1.35561e-08
5.64808e-09
-0.000279074
-4.32109e-08
0.000279049
-6.16076e-09
-0.000279038
3.04239e-09
-1.25632e-08
-9.09812e-09
-4.18451e-09
-9.8378e-05
9.9179e-09
3.1558e-09
9.83751e-05
-8.36399e-09
-5.25776e-09
-9.83645e-05
1.49636e-08
2.83088e-10
9.83632e-05
1.21423e-06
1.18635e-06
0.000268216
-1.9778e-07
-1.98184e-07
-1.05883e-08
-3.09297e-08
-0.000279117
2.82666e-09
-1.26699e-08
-2.81959e-08
-0.000279045
5.07783e-09
1.26838e-08
-9.79363e-09
1.44113e-08
0.00027911
1.02089e-08
-7.35985e-09
2.67376e-08
0.000279035
-4.60354e-08
0.000229992
-0.00022996
1.5204e-08
3.21055e-10
2.01131e-08
2.14816e-09
0.000194248
2.33897e-08
0.000229938
-1.01097e-08
-2.27198e-09
-2.63737e-08
0.000194271
6.88104e-10
-0.000194251
0.00115067
-2.18943e-08
-1.18371e-07
9.837e-07
-7.36427e-07
-9.13903e-07
8.03755e-07
-1.80596e-09
0.000250686
-0.000250549
-1.13137e-10
-1.81652e-07
6.43932e-08
3.58473e-09
0.000246043
9.79519e-08
0.00113107
4.83445e-08
-1.12749e-06
2.73257e-07
-1.69938e-07
-8.13522e-07
2.50587e-07
-1.32854e-07
8.96215e-07
-1.40604e-09
1.31851e-07
0.000250527
4.03172e-09
0.000246157
-4.81716e-10
-0.000246089
-1.06942e-07
-4.94258e-08
0.00115085
-1.85155e-07
-9.09328e-07
8.06123e-07
-7.34514e-07
9.88825e-07
0.00115067
-1.45293e-07
9.81896e-07
-7.38224e-07
-9.1501e-07
8.01858e-07
0.00025066
-0.000250525
-5.04496e-10
-1.81748e-07
-1.43837e-08
6.81803e-08
6.77207e-09
0.00024599
1.69557e-07
0.00113118
1.30573e-06
3.32319e-08
-8.33776e-07
2.23221e-07
8.83129e-07
-1.84113e-07
-1.14029e-06
2.5932e-07
-2.01547e-07
1.33795e-07
0.000250503
-1.55935e-09
0.00024607
8.98988e-09
-2.29251e-09
-0.00024601
-9.31302e-08
0.00115083
-1.8166e-07
-9.16762e-07
8.06509e-07
-7.3392e-07
9.86075e-07
1.72811e-09
2.41068e-08
-1.31827e-08
-2.37511e-09
0.000230021
-2.5411e-08
-0.00019431
-1.81276e-09
2.26885e-08
-1.28083e-09
0.000194307
1.71759e-09
-4.64796e-08
-0.000230034
1.41363e-08
-3.65242e-10
2.43763e-08
-1.33523e-08
9.04203e-10
0.000229982
-2.63013e-08
3.47442e-09
-0.000194251
5.26677e-10
2.67864e-08
-1.89413e-09
-3.90316e-09
0.00019425
-4.6e-08
-0.000229995
1.40306e-08
3.03728e-09
8.69948e-10
2.08448e-10
1.32069e-07
0.000250577
-4.26477e-08
-1.31948e-07
1.27024e-06
-2.02179e-07
2.47075e-07
8.88876e-07
-1.79183e-07
2.33874e-07
-8.29023e-07
-9.23447e-08
-0.000246131
-5.75366e-09
-0.00115086
-1.26653e-08
-2.12617e-07
-9.12601e-07
8.06277e-07
-7.31401e-07
9.82636e-07
6.42334e-09
7.04166e-08
0.000246115
-2.10085e-08
-1.80093e-07
9.85346e-07
-7.2957e-07
-9.10252e-07
8.02969e-07
1.32906e-09
-0.000250603
-1.98324e-09
-1.82162e-07
-6.53488e-10
1.34724e-07
0.000250551
-1.0608e-08
-1.21636e-06
-1.41031e-07
8.84792e-07
-1.86288e-07
-8.35028e-07
2.26462e-07
1.26949e-06
-2.08716e-07
2.47118e-07
9.56911e-09
-9.18904e-08
-0.00024604
-6.51801e-09
-0.00115084
-2.28789e-07
-9.13512e-07
8.05643e-07
-7.3188e-07
9.84e-07
-1.00248e-08
6.23964e-09
7.50564e-08
0.000246025
-1.80471e-07
9.84457e-07
-7.32292e-07
-9.1597e-07
8.02795e-07
-0.000250579
3.55261e-09
-1.81595e-07
1.72538e-08
-1.00909e-08
0.000279085
1.60166e-08
-9.73595e-09
0.000278967
0.000270207
-0.000268184
2.1773e-07
2.55234e-07
0.000279003
6.05689e-09
-0.000278979
-2.92405e-08
4.00089e-09
0.000279128
-0.000279101
4.54295e-09
-2.95812e-08
9.83848e-05
-5.97445e-09
-9.83748e-05
-1.12608e-08
-9.83587e-05
1.35848e-08
9.83591e-05
1.19046e-06
0.000268198
-2.0174e-07
-1.96554e-07
-2.82943e-08
-0.000279005
4.11923e-09
-1.01905e-08
2.40786e-08
0.000278993
-1.31478e-08
1.05344e-08
-6.62842e-09
2.16555e-08
0.000279116
6.43991e-10
9.8371e-05
-0.000246121
1.01742e-08
7.24695e-08
0.000246074
9.02848e-08
0.00113118
-0.0011315
-2.07839e-07
1.28458e-06
2.31127e-07
8.76172e-07
-1.87032e-07
2.09054e-07
-8.32735e-07
0.00115087
5.27392e-08
-0.00115079
-1.73581e-07
9.7669e-07
-7.35529e-07
7.99298e-07
-9.15398e-07
-4.50115e-09
0.000250689
-0.000250555
2.02765e-09
-1.78338e-07
-2.4328e-07
0.00113188
-3.40063e-07
-1.27201e-06
2.1424e-07
-2.47361e-07
-8.49684e-07
2.10019e-07
-2.32274e-07
8.75644e-07
0.000246136
-0.000246076
-3.66097e-09
-8.42718e-08
-1.01722e-07
0.00115075
-1.37087e-07
-9.22403e-07
8.014e-07
-7.36367e-07
9.78151e-07
-0.000229949
-1.23495e-08
-4.83903e-09
0.000229941
1.98045e-08
-0.00019425
4.24303e-09
0.000194233
-4.73739e-08
0.000229993
-0.000229964
1.7829e-08
-2.68665e-09
-2.7326e-08
0.000194255
-0.000194234
-2.55031e-11
8.67518e-08
0.00115068
-0.00115069
9.84596e-07
-7.38591e-07
8.01663e-07
-9.18172e-07
0.0011317
-0.00113167
-2.02357e-07
1.22621e-06
2.44221e-07
-1.41621e-07
8.88682e-07
-1.79869e-07
2.32675e-07
-8.30833e-07
-1.42896e-08
-0.000246037
8.93337e-09
6.95166e-08
0.000245992
0.000250661
-0.000250531
-1.78568e-07
-3.15943e-09
1.45722e-07
0.00113122
1.29643e-06
1.97627e-08
-8.30992e-07
2.25924e-07
8.86188e-07
-1.81486e-07
-1.13849e-06
2.57543e-07
-2.00495e-07
0.00115076
-1.79188e-07
-9.13611e-07
8.01393e-07
-7.33651e-07
9.83947e-07
0.000246072
6.80652e-09
-0.00024601
-9.19505e-10
-9.49726e-08
2.58002e-08
-2.07203e-09
2.18247e-09
-1.26039e-08
0.000230018
-2.47915e-08
-0.00019429
-1.07106e-09
2.68052e-08
-5.76253e-09
0.000194289
-4.71444e-08
-1.12101e-09
-0.000230032
2.86281e-09
1.48843e-08
-1.91502e-09
3.28546e-09
1.35685e-07
0.000250578
-8.62906e-08
-1.63441e-07
1.21516e-06
-2.15006e-07
2.33139e-07
8.82095e-07
-1.89464e-07
2.23343e-07
-8.35132e-07
-9.04394e-08
-0.0002461
-1.12651e-08
-0.00115071
-6.4993e-08
-1.97533e-07
-9.17408e-07
8.04354e-07
-7.32884e-07
9.85409e-07
4.32726e-09
8.1597e-08
0.000246087
-4.78392e-09
-1.88891e-07
9.84161e-07
-7.32263e-07
-9.13418e-07
8.05384e-07
-4.85047e-09
-0.000250603
4.07956e-09
-1.775e-07
2.78753e-08
-1.45941e-08
-1.80558e-09
0.00022998
-2.75383e-08
-0.000194237
-8.98258e-10
2.5823e-08
-3.11699e-10
-4.99722e-09
0.000194234
-4.97175e-08
-0.000229994
1.69046e-08
1.56346e-09
1.35415e-07
-3.74371e-09
0.000250555
-1.35023e-07
-1.23784e-06
-2.82069e-07
8.84736e-07
-1.81347e-07
-8.32337e-07
2.26067e-07
1.20248e-06
-2.1687e-07
2.336e-07
-0.00115065
-2.07975e-07
-9.14263e-07
8.04519e-07
-7.30022e-07
9.85648e-07
-8.88623e-08
-0.000246039
-6.61275e-09
-1.70425e-07
9.87187e-07
-7.32242e-07
-9.15725e-07
8.05447e-07
-9.37388e-09
7.27677e-09
7.34008e-08
0.000246026
-0.00025058
-1.8031e-07
-1.02814e-09
-0.000194308
2.95469e-09
0.000194294
-2.26725e-09
0.000230032
-0.000229997
4.73468e-10
1.24175e-08
0.000194315
-0.000194297
-4.33472e-10
0.00115057
-0.00115061
-1.26056e-07
9.76657e-07
-7.37489e-07
7.97095e-07
-9.14906e-07
-0.000250607
1.3552e-07
3.4494e-09
0.0002505
-1.73661e-08
-0.000246031
6.80683e-08
6.02547e-09
0.000245989
4.51905e-08
0.000250658
-0.000250523
-1.80766e-07
7.33251e-10
1.31125e-07
0.00113092
6.1878e-08
-1.12277e-06
2.66967e-07
-1.67974e-07
-8.14023e-07
2.39661e-07
-1.36169e-07
8.87509e-07
0.00115065
-1.66736e-07
-9.07281e-07
7.9994e-07
-7.32475e-07
9.82449e-07
2.85385e-08
0.000246101
-0.000246032
-1.02626e-09
-1.01779e-07
-1.13426e-08
-0.00019425
8.47902e-09
0.000194236
0.000229994
-0.000229959
1.25678e-08
-4.36623e-09
0.000194263
2.86949e-10
-0.000194243
7.74807e-09
-2.72494e-08
1.66248e-09
-2.33923e-10
1.34664e-07
0.000250575
-3.44747e-08
-1.71873e-07
1.22347e-06
-2.14458e-07
2.33031e-07
8.84005e-07
-1.819e-07
-8.2802e-07
2.30874e-07
-0.00115066
-2.2472e-08
-2.60383e-07
-9.06623e-07
-7.24879e-07
-2.52631e-08
7.86651e-09
7.42897e-08
0.000246115
4.37735e-08
-1.96234e-07
9.82799e-07
-7.28884e-07
-9.12346e-07
8.00902e-07
-2.79953e-09
1.95615e-09
-1.18349e-08
0.000230017
-5.58629e-09
0.000194296
-2.72237e-08
1.35081e-07
-7.96866e-10
0.000250552
-2.13569e-07
-1.24461e-06
-3.29622e-07
8.78864e-07
-1.83838e-07
-8.28312e-07
2.02823e-07
1.18087e-06
-2.19183e-07
2.24106e-07
-0.0011505
-2.1578e-07
-9.08042e-07
-7.27355e-07
-1.65912e-07
9.82802e-07
-7.2672e-07
-9.09915e-07
8.00465e-07
-2.23748e-08
-1.84269e-08
1.11306e-08
7.26097e-08
0.000246058
-1.16226e-08
-4.36681e-09
0.00022998
-5.62153e-09
1.89945e-09
0.000194245
1.44112e-08
-1.3464e-08
0.000279084
1.54874e-08
-1.04727e-08
0.000278972
0.000270218
-0.000268189
2.18509e-07
2.45506e-07
0.000279006
-0.000278982
4.91804e-09
-2.97139e-08
3.83474e-09
0.000279122
-0.000279093
6.05143e-09
-3.00971e-08
9.83762e-05
-7.54144e-09
-9.83648e-05
1.38685e-08
9.83503e-05
1.16518e-06
0.000268211
-1.91025e-07
-2.04128e-07
-6.14008e-09
2.32105e-08
0.000278993
-1.32825e-08
1.20529e-08
-4.49489e-09
2.32082e-08
0.000279105
-1.13386e-09
9.83641e-05
0.0011309
-0.00113078
-2.17662e-07
1.25012e-06
2.29612e-07
-1.59251e-07
8.74501e-07
-1.85725e-07
2.10391e-07
-8.31528e-07
-0.000250612
1.36159e-07
2.24705e-09
0.000250499
-2.12903e-08
-0.00024606
7.14852e-08
7.56463e-09
0.000246019
4.61173e-08
0.000250658
-0.000250527
-1.77574e-07
3.63555e-09
-2.27525e-07
0.00113154
-3.14825e-07
-1.27023e-06
2.21585e-07
-2.45494e-07
-8.45123e-07
2.15062e-07
-2.27639e-07
8.74735e-07
0.00115054
-1.19579e-07
-9.20228e-07
7.98165e-07
-7.34166e-07
9.74705e-07
2.19723e-08
0.000246079
-0.000246018
1.95544e-10
-8.6345e-08
-0.00022999
-6.61754e-09
-8.62994e-09
0.000229978
1.94186e-09
0.000230036
-0.000230001
-2.53979e-09
1.30335e-08
0.000194308
-0.000194289
-1.37949e-09
-0.000194263
3.60513e-09
0.000194246
0.000229998
-0.000229964
5.21596e-10
1.2932e-08
0.000194259
3.60961e-09
-0.000194245
4.55356e-09