/*--------------------------------*- C++ -*----------------------------------*\
| =========                 |                                                 |
| \\      /  F ield         | OpenFOAM: The Open Source CFD Toolbox           |
|  \\    /   O peration     | Version:  v2006                                 |
|   \\  /    A nd           | Website:  www.openfoam.com                      |
|    \\/     M anipulation  |                                                 |
\*---------------------------------------------------------------------------*/
FoamFile
{
    version     2.0;
    format      ascii;
    class       volVectorField;
    location    "1000";
    object      U;
}
// * * * * * * * * * * * * * * * * * * * * * * * * * * * * * * * * * * * * * //

dimensions      [0 1 -1 0 0 0 0];


internalField   nonuniform List<vector> 
14361
(
(-4.73534e-06 1.1486e-05 0.107452)
(-1.07016e-06 1.68746e-05 0.10977)
(1.35556e-06 -8.13779e-06 0.0932661)
(1.96426e-07 -4.94944e-06 0.0987284)
(2.59162e-06 -2.62287e-06 0.0878319)
(1.86818e-06 -2.53917e-06 0.0718022)
(1.83695e-07 -6.37653e-06 0.082514)
(-1.06346e-06 -3.44841e-06 0.0916598)
(-9.0454e-06 4.69616e-06 0.0919553)
(1.79621e-06 -3.58826e-06 0.0818209)
(-5.08475e-06 -2.79834e-07 0.0818515)
(6.26305e-06 -2.52296e-06 0.0919234)
(-5.27895e-06 8.29181e-06 0.0919621)
(3.235e-06 -8.48514e-06 0.0964989)
(3.08265e-06 -2.53796e-06 0.081825)
(-3.94597e-06 4.89152e-06 0.087867)
(-9.443e-06 1.31384e-05 0.0965378)
(2.04072e-06 -6.83005e-06 0.0919295)
(-5.37253e-08 4.44584e-06 0.0818563)
(-3.55487e-06 2.75985e-06 0.0839073)
(7.08681e-07 -2.56848e-06 0.0685484)
(2.03289e-06 -9.86808e-07 0.0685536)
(-2.21788e-06 7.87861e-07 0.0685788)
(1.76733e-06 -2.59672e-06 0.0838799)
(-1.12252e-06 2.16332e-06 0.0685841)
(-7.74873e-07 3.57029e-06 0.0718401)
(1.31884e-06 2.66167e-06 0.0687054)
(-1.46281e-06 -4.1389e-06 0.0861167)
(-6.39338e-07 6.75442e-06 0.0825525)
(-1.46755e-06 7.01668e-06 0.0861605)
(-1.21917e-06 -3.20338e-06 0.0686594)
(9.41448e-07 3.85208e-06 0.0771963)
(-1.0758e-06 9.29584e-06 0.0916907)
(-2.46517e-06 -4.0467e-06 0.0901823)
(-2.0634e-09 -3.07013e-06 0.0789465)
(-2.43176e-06 8.74109e-06 0.0902191)
(-1.24502e-06 -3.14567e-06 0.0771632)
(6.90708e-07 3.71298e-06 0.0789729)
(-1.28317e-05 1.28199e-05 0.0977886)
(3.15932e-05 -6.64722e-06 0.101576)
(-3.90453e-05 1.56188e-05 0.101638)
(7.71974e-06 -7.52005e-06 0.0977428)
(-3.50728e-06 4.99753e-05 0.101569)
(1.00881e-06 -3.65091e-05 0.0997088)
(-5.41785e-07 -8.22013e-06 0.0958453)
(-4.79564e-06 1.15777e-05 0.0933125)
(3.15724e-08 -3.51368e-05 0.10147)
(-5.99776e-06 4.51286e-05 0.0997647)
(-2.908e-06 1.4809e-05 0.0959038)
(-1.10475e-06 5.11843e-05 0.103091)
(-3.34896e-07 1.77095e-05 0.0987778)
(8.36024e-07 -2.79703e-05 0.103616)
(-9.25159e-07 -6.06106e-06 0.0977808)
(-2.01798e-07 -3.02405e-05 0.10298)
(6.07172e-07 5.11583e-05 0.103707)
(-1.88215e-06 1.72287e-05 0.0978381)
(1.29116e-05 6.56955e-06 0.107445)
(-4.06569e-05 4.17626e-05 0.104367)
(-4.48318e-06 1.26523e-05 0.107448)
(7.25381e-06 1.29775e-05 0.107447)
(4.24103e-05 4.15109e-05 0.104368)
(-1.46246e-05 1.57015e-05 0.112179)
(1.55153e-05 1.67954e-05 0.112178)
(3.64611e-06 -4.17849e-06 0.0878619)
(2.26261e-06 -2.36731e-06 0.0718364)
(1.03514e-05 -3.80966e-06 0.0933072)
(1.69802e-05 -8.6168e-07 0.0987674)
(5.13856e-06 -1.66346e-06 0.0825506)
(8.16401e-06 -1.59491e-06 0.0916854)
(1.22128e-05 1.68779e-06 0.093309)
(1.72394e-05 -1.04638e-06 0.0987676)
(5.32211e-06 1.58684e-06 0.0825503)
(8.4086e-06 -1.4281e-06 0.0916854)
(-2.83575e-06 2.05828e-06 0.0718383)
(-4.42331e-06 4.20276e-06 0.0878604)
(-4.81758e-06 3.94273e-06 0.0878618)
(-2.91021e-06 2.47363e-06 0.0718367)
(-1.11018e-06 1.77657e-05 0.109768)
(-4.2838e-06 1.10091e-05 0.0933077)
(7.74969e-07 1.74695e-05 0.0987699)
(4.48944e-06 1.78645e-05 0.109767)
(3.81239e-06 1.1457e-05 0.0933101)
(8.81308e-07 1.74031e-05 0.0987703)
(-2.29655e-06 5.43162e-06 0.0825494)
(-8.29818e-07 8.60188e-06 0.0916859)
(2.07026e-06 5.65144e-06 0.0825506)
(-3.81792e-07 8.67829e-06 0.0916866)
(4.77823e-06 3.62029e-06 0.0878615)
(4.68955e-06 4.08069e-06 0.0878604)
(1.95738e-06 2.90551e-06 0.0718329)
(3.22619e-06 2.10647e-06 0.0718332)
(1.24131e-05 -8.3375e-06 0.0965303)
(2.33893e-06 -4.63153e-07 0.0818554)
(7.55907e-06 -4.25911e-06 0.0919579)
(8.21856e-07 -1.62558e-06 0.0685796)
(1.06274e-06 -1.65299e-06 0.0685853)
(2.64408e-06 -3.61021e-06 0.0839054)
(5.93313e-06 -1.94102e-06 0.0861559)
(1.90076e-06 -1.30511e-07 0.0687049)
(7.68659e-06 -2.31643e-06 0.0902143)
(2.92986e-06 -3.67349e-09 0.0789705)
(2.93719e-06 -8.29622e-08 0.0771945)
(6.39987e-06 6.57358e-07 0.0861553)
(1.70734e-06 3.0052e-07 0.0687048)
(2.92676e-06 -4.13287e-07 0.0789707)
(8.58364e-06 -8.81243e-07 0.0902139)
(2.93328e-06 -5.1044e-07 0.077194)
(-1.29989e-05 8.68519e-06 0.0965281)
(-3.88493e-06 5.326e-07 0.0818498)
(-8.3822e-06 4.41655e-06 0.0919512)
(-8.56425e-06 1.29206e-05 0.0965318)
(-1.08843e-06 3.0805e-06 0.0818553)
(-4.72235e-06 7.98385e-06 0.091958)
(-1.90882e-06 1.29885e-06 0.06858)
(-1.95656e-06 1.47353e-06 0.0685853)
(-3.29032e-06 2.49398e-06 0.0839054)
(-2.87977e-06 -3.86794e-06 0.0686594)
(-1.06942e-06 -7.56316e-06 0.082512)
(-2.25762e-06 6.1908e-06 0.0861549)
(-1.80925e-06 -4.9022e-06 0.0861117)
(-5.90683e-07 1.96644e-06 0.0687047)
(-2.42831e-06 -3.82987e-06 0.0771619)
(-5.26099e-07 -4.07997e-06 0.0916548)
(-2.21304e-06 8.11619e-06 0.0902142)
(-1.97641e-07 3.19311e-06 0.0789698)
(-1.60106e-06 -4.51483e-06 0.0901774)
(-8.17961e-07 -3.56242e-06 0.0789447)
(-7.09924e-07 3.1343e-06 0.0771938)
(1.79825e-06 -3.86241e-06 0.0686652)
(2.12226e-07 -7.21253e-06 0.0825142)
(1.39167e-06 6.50894e-06 0.0861561)
(6.97254e-07 -4.60412e-06 0.086116)
(2.20887e-07 1.8947e-06 0.0687055)
(7.78461e-07 -3.59236e-06 0.0771632)
(-1.13799e-07 -4.01812e-06 0.0916549)
(5.71216e-07 8.62515e-06 0.0902151)
(-6.43195e-07 3.19908e-06 0.0789708)
(3.36719e-07 -4.13664e-06 0.0901792)
(-4.74123e-07 -3.47526e-06 0.0789445)
(-4.13442e-07 3.27893e-06 0.0771944)
(1.42197e-05 6.89051e-06 0.0965337)
(2.54584e-06 1.0458e-06 0.0818525)
(9.14618e-06 3.28358e-06 0.0919592)
(-2.60112e-06 -7.53716e-06 0.0919217)
(8.92182e-06 1.23477e-05 0.0965313)
(-2.68255e-06 -3.17647e-06 0.087827)
(1.40211e-06 2.37479e-06 0.0818478)
(4.65362e-06 7.54387e-06 0.091954)
(-3.68934e-06 -9.08871e-06 0.0964929)
(-2.45344e-06 -4.81675e-06 0.0818175)
(1.02569e-06 1.71641e-06 0.0685782)
(1.6959e-06 1.28441e-06 0.0685742)
(3.87267e-06 3.12845e-06 0.0839043)
(-3.93525e-07 -3.81138e-06 0.0717967)
(-1.49989e-05 3.92877e-05 0.101629)
(-3.85115e-05 1.56525e-05 0.101632)
(-1.21395e-05 1.25361e-05 0.0977828)
(-6.74379e-06 -8.31234e-06 0.0977389)
(-2.6698e-05 -2.72168e-05 0.104257)
(1.65743e-05 3.85511e-05 0.101634)
(4.01116e-05 1.52127e-05 0.101631)
(1.32408e-05 1.19398e-05 0.0977857)
(-5.56057e-06 -3.11419e-05 0.10157)
(-3.00138e-05 -6.68304e-06 0.10157)
(-5.54455e-06 2.03085e-05 0.114562)
(5.90856e-06 2.05673e-05 0.114562)
(4.51837e-05 -5.14099e-06 0.0997559)
(1.37463e-05 -2.05522e-06 0.0958964)
(5.01811e-05 -3.2242e-06 0.101559)
(1.64649e-05 -1.53829e-06 0.0978287)
(5.12876e-05 -1.47274e-07 0.103695)
(5.14963e-05 -1.29843e-06 0.10308)
(4.67422e-05 3.79671e-06 0.0997586)
(1.49087e-05 -1.71945e-07 0.0958979)
(5.12403e-05 2.34912e-06 0.101561)
(5.14653e-05 3.77655e-07 0.103696)
(1.74384e-05 -8.37817e-07 0.0978294)
(5.22817e-05 1.02486e-06 0.10308)
(9.31921e-07 -3.42593e-05 0.101463)
(-4.82359e-06 4.57083e-05 0.0997584)
(2.39043e-06 -8.42602e-06 0.0932614)
(-1.67583e-06 1.44699e-05 0.0958977)
(-2.19911e-06 5.07607e-05 0.101562)
(2.09828e-06 -3.56689e-05 0.0997019)
(9.0389e-07 -8.39509e-06 0.0958387)
(5.45887e-07 -2.94223e-05 0.102972)
(1.21655e-06 -5.05373e-06 0.0987195)
(1.5062e-06 5.17083e-05 0.103699)
(-4.20981e-07 1.71043e-05 0.0978309)
(1.33386e-07 5.19393e-05 0.103083)
(1.3072e-06 -2.749e-05 0.103607)
(6.0536e-07 -5.99243e-06 0.0977727)
(1.65217e-06 -3.45773e-05 0.101463)
(6.06689e-06 4.58043e-05 0.0997599)
(-2.79109e-06 -8.14779e-06 0.0932641)
(1.9645e-06 1.44864e-05 0.0958998)
(-1.30731e-07 -8.63107e-06 0.0958412)
(-6.68918e-07 -3.57551e-05 0.0997029)
(4.46892e-06 5.07082e-05 0.101564)
(2.84613e-06 -2.95203e-05 0.102971)
(1.19651e-06 -5.1909e-06 0.0987197)
(2.13606e-06 5.16154e-05 0.103699)
(1.42653e-06 1.71732e-05 0.0978319)
(2.57747e-06 -2.76347e-05 0.103607)
(1.09835e-06 -6.16034e-06 0.0977738)
(2.96643e-06 5.20578e-05 0.103083)
(-1.58135e-05 8.31758e-07 0.0916229)
(-2.58744e-05 4.58866e-09 0.0987228)
(-1.55037e-05 2.90576e-06 0.091623)
(-2.5504e-05 2.82534e-06 0.0987222)
(-1.81654e-06 -3.00629e-06 0.0771009)
(-3.71426e-06 6.59919e-07 0.091591)
(-1.46033e-05 -2.86374e-06 0.0901502)
(-8.49744e-06 5.25808e-07 0.078912)
(-2.25631e-06 -3.4192e-06 0.0901138)
(-2.05076e-06 4.39981e-07 0.0788792)
(-8.43503e-06 -1.06866e-06 0.0771387)
(-1.60484e-06 4.95672e-06 0.0771006)
(-3.42348e-06 3.19272e-06 0.0915908)
(-8.46475e-06 5.5547e-07 0.0789124)
(-1.36634e-05 6.36759e-06 0.0901503)
(-2.01734e-06 1.4057e-06 0.0788788)
(-1.26077e-06 7.23138e-06 0.0901135)
(-8.37725e-06 2.17307e-06 0.0771387)
(-1.43512e-05 -1.13184e-05 0.112204)
(1.32564e-05 -2.44732e-06 0.109775)
(-8.48503e-06 1.33465e-05 0.107437)
(-2.67546e-05 -2.34292e-05 0.104235)
(-8.28617e-06 -4.32214e-06 0.087831)
(-7.87908e-07 3.52865e-06 0.0878029)
(-5.35817e-06 -1.11481e-05 0.107446)
(3.02159e-06 -1.29045e-05 0.109793)
(-9.11674e-06 -9.83348e-06 0.107438)
(2.97084e-06 -1.18003e-05 0.109787)
(-2.49605e-05 2.45763e-05 0.104234)
(1.14374e-06 -4.35058e-06 0.0718038)
(-8.64734e-07 -4.02725e-06 0.0878021)
(5.0383e-06 -9.88928e-07 0.0718056)
(1.85136e-06 4.27638e-06 0.0878159)
(-4.09993e-05 -4.20163e-05 0.104366)
(-9.86016e-06 -1.11165e-05 0.107436)
(7.11499e-06 -1.19709e-05 0.107438)
(-5.78708e-06 -1.18579e-05 0.107444)
(6.48897e-06 -1.1078e-05 0.107444)
(-2.56294e-05 2.57419e-05 0.104238)
(-3.90788e-06 2.13779e-06 0.0718098)
(4.21447e-05 -4.08647e-05 0.104365)
(4.14065e-06 6.99048e-08 0.0986882)
(4.11168e-06 2.95873e-07 0.0986886)
(-1.20211e-05 -6.28233e-06 0.107446)
(-1.1719e-05 5.96045e-06 0.107446)
(-3.6464e-06 7.99832e-07 0.0916296)
(1.09065e-05 1.07016e-05 0.107434)
(-3.76396e-06 3.82376e-08 0.0916296)
(1.22173e-05 -4.86807e-06 0.107445)
(2.50586e-05 -2.48544e-05 0.104239)
(2.15745e-06 -4.1656e-06 0.0718031)
(2.37992e-06 1.47276e-05 0.109771)
(2.85228e-06 -6.09039e-06 0.0825106)
(9.68318e-07 -3.88612e-06 0.0916308)
(-2.98894e-06 -3.79447e-06 0.0718089)
(-7.45071e-06 -1.05755e-05 0.112238)
(-1.80678e-05 -5.58004e-06 0.0932636)
(3.16011e-05 6.27547e-06 0.101425)
(2.01043e-06 1.87138e-06 0.0932239)
(2.56612e-06 -1.37056e-06 0.0932237)
(1.03051e-05 -7.7459e-06 0.107442)
(9.9863e-06 1.02675e-05 0.107433)
(9.42172e-06 3.46381e-07 0.0916533)
(-9.54252e-06 1.23173e-05 0.107436)
(1.60511e-06 1.25662e-05 0.109775)
(4.85499e-06 -1.85561e-06 0.0824982)
(8.61074e-07 9.22595e-06 0.0916545)
(4.25984e-05 4.572e-05 0.104339)
(3.60387e-07 2.41757e-06 0.0718477)
(-1.08938e-06 -1.31179e-05 0.0916374)
(-2.39371e-06 9.9785e-07 0.0824701)
(1.11664e-07 -1.12447e-05 0.0825273)
(-1.97329e-06 -3.32576e-06 0.0915985)
(-1.11381e-07 -1.48902e-06 0.0717847)
(-4.9371e-06 -5.3851e-07 0.0718392)
(8.05429e-07 -7.89808e-06 0.0916711)
(3.33903e-06 5.38977e-06 0.0825107)
(3.31239e-07 3.49567e-06 0.0916295)
(-2.23967e-07 -5.16872e-06 0.0825489)
(-1.84186e-06 3.72725e-06 0.0718069)
(2.95844e-06 -1.27234e-06 0.0718412)
(3.59413e-06 -5.52263e-07 0.0916308)
(6.40224e-06 2.06963e-06 0.0825121)
(-8.06729e-06 -7.86261e-07 0.091673)
(-4.76024e-06 -1.70352e-06 0.0825495)
(-1.44885e-05 6.5038e-06 0.114609)
(2.90287e-06 1.40154e-05 0.11461)
(1.23513e-05 -4.00395e-06 0.114614)
(-1.56298e-05 -1.43136e-05 0.112178)
(1.49431e-05 -1.3739e-05 0.112179)
(1.20613e-05 -6.81514e-06 0.107438)
(-4.52952e-06 1.20692e-06 0.098687)
(-5.2682e-06 5.18999e-06 0.0932399)
(1.70103e-05 8.07558e-07 0.098746)
(1.25554e-05 -5.90123e-06 0.107439)
(1.17432e-05 -1.13636e-06 0.0932945)
(1.50549e-05 -1.67679e-06 0.10977)
(3.98444e-06 -1.9764e-06 0.0718018)
(-1.29422e-06 3.66794e-06 0.0718354)
(-5.84436e-06 1.48787e-05 0.109771)
(6.13772e-06 -4.90823e-06 0.0932415)
(4.8865e-07 -4.29454e-06 0.0986877)
(1.62754e-06 1.75955e-05 0.098749)
(-6.93566e-06 1.37007e-05 0.107441)
(-4.14546e-06 1.67166e-05 0.109768)
(-9.76311e-07 1.2209e-05 0.0932967)
(-5.09247e-06 -1.81615e-06 0.0878166)
(-1.02155e-06 -6.01114e-06 0.0878161)
(4.2439e-05 4.4631e-05 0.104352)
(5.11112e-06 1.33371e-06 0.0878544)
(2.87283e-06 3.75648e-06 0.0878551)
(-1.01376e-06 4.74115e-07 0.0717791)
(-9.00734e-07 -4.99205e-06 0.0718382)
(-4.65529e-06 -4.21299e-07 0.071839)
(-1.51761e-07 1.03707e-06 0.0717802)
(-1.80176e-06 -7.57712e-07 0.0877815)
(2.69021e-05 2.53087e-05 0.104233)
(-4.50091e-05 -4.32016e-05 0.104338)
(-3.04272e-06 1.12047e-07 0.0877799)
(-5.82172e-06 -7.37131e-06 0.0878284)
(-2.06798e-07 -2.90196e-06 0.0718449)
(3.47986e-06 9.71756e-07 0.0718064)
(1.49813e-06 3.40834e-06 0.0718057)
(-2.00536e-06 -1.43115e-06 0.0718441)
(2.35068e-05 2.60393e-05 0.104231)
(-5.77099e-06 -2.619e-06 0.0878459)
(-4.58192e-05 -4.23384e-05 0.104341)
(-2.25016e-06 -6.17813e-06 0.0878434)
(2.54286e-06 -2.07197e-07 0.0878018)
(-5.16977e-07 -1.32567e-05 0.0916376)
(1.23867e-07 -3.45176e-06 0.0915987)
(-7.32407e-06 -9.97994e-06 0.10744)
(-2.84246e-06 -1.26117e-05 0.109792)
(-1.25003e-06 -1.51797e-05 0.109799)
(-2.19062e-06 -2.24321e-05 0.0987243)
(-7.36904e-06 1.26508e-06 0.0932089)
(-8.81135e-06 -1.68439e-05 0.0932623)
(-2.01388e-06 -3.32849e-06 0.0986795)
(3.01516e-06 -1.52558e-05 0.109799)
(1.46373e-07 -2.26886e-05 0.0987248)
(7.34279e-07 -3.47519e-06 0.0986799)
(-7.65908e-07 2.9439e-07 0.0916122)
(1.85932e-06 -8.09795e-06 0.0825443)
(2.7833e-06 1.83923e-06 0.0824969)
(1.55952e-07 -9.63131e-06 0.0916539)
(-5.92093e-07 1.58321e-07 0.0916125)
(-8.6989e-07 -7.60847e-06 0.0825465)
(-2.52455e-06 1.98298e-06 0.0824972)
(-4.85501e-07 -9.69175e-06 0.0916542)
(-4.34063e-06 -1.14118e-05 0.109787)
(-9.83021e-06 -1.02966e-05 0.107435)
(-5.40558e-06 -1.16705e-05 0.109779)
(-2.06187e-06 1.26846e-06 0.0986789)
(-2.52034e-06 -1.45254e-05 0.0932774)
(-9.43454e-07 3.03487e-06 0.0932228)
(-1.32791e-06 -1.86054e-05 0.0987304)
(7.14343e-06 -1.08253e-05 0.10744)
(7.24818e-06 -1.13627e-05 0.107438)
(2.78533e-06 -1.20631e-05 0.109781)
(-6.70407e-08 1.01194e-06 0.0986793)
(2.27802e-06 -1.48257e-05 0.0932794)
(-1.14717e-07 2.04596e-06 0.0932243)
(-5.16946e-07 -1.88105e-05 0.0987308)
(1.32912e-06 -2.3451e-06 0.0718471)
(-2.89443e-06 1.23939e-06 0.071804)
(4.38033e-05 -4.38425e-05 0.104343)
(6.18023e-06 -2.35869e-06 0.0878449)
(2.85694e-06 -5.77791e-06 0.0878451)
(-2.50233e-06 -6.24254e-07 0.087801)
(2.44322e-06 -9.58618e-07 0.071846)
(-7.38874e-07 1.02629e-06 0.087784)
(-8.06361e-06 3.97029e-06 0.0878309)
(-3.33001e-06 8.66903e-06 0.0878323)
(-4.56471e-05 4.49321e-05 0.104334)
(1.22746e-06 5.28624e-06 0.0718385)
(-2.11185e-06 8.3082e-07 0.0718414)
(-4.46326e-05 4.47458e-05 0.104342)
(4.63849e-06 1.28862e-06 0.0878045)
(2.33889e-05 -2.38036e-05 0.104229)
(-1.71107e-06 6.57947e-06 0.0878455)
(-6.27795e-06 2.12334e-06 0.087844)
(-5.61625e-07 2.16572e-06 0.0718407)
(3.10232e-06 3.3375e-06 0.0718083)
(-2.32176e-06 -1.59988e-06 0.0718384)
(4.18657e-06 1.6688e-06 0.0718064)
(-1.15458e-06 -3.74379e-06 0.0718368)
(2.36342e-05 2.69631e-05 0.104236)
(5.02982e-06 1.17764e-06 0.0878154)
(-4.40673e-05 -4.17913e-05 0.104352)
(-2.56899e-06 -4.72062e-06 0.087855)
(-3.34866e-06 -3.98999e-06 0.0878533)
(-1.92376e-06 -2.55302e-06 0.0718381)
(1.13406e-06 3.94972e-06 0.0718016)
(-2.68899e-06 -2.24771e-06 0.0718373)
(4.17185e-06 -6.46886e-08 0.0718002)
(2.59764e-05 2.73803e-05 0.104248)
(-3.52564e-06 -4.58773e-06 0.0878627)
(-4.02484e-06 -4.54402e-06 0.0878607)
(4.05927e-06 2.61589e-06 0.0878252)
(3.86277e-06 2.66836e-06 0.0878231)
(3.74448e-07 -7.81402e-06 0.0916713)
(-2.18285e-06 5.81316e-06 0.0825113)
(-2.55089e-07 3.47229e-06 0.0916299)
(1.0946e-06 -4.75417e-06 0.0825505)
(-5.8381e-06 -1.31236e-05 0.109775)
(-6.48015e-08 -1.72306e-05 0.0987467)
(4.43319e-06 5.53072e-06 0.0932387)
(-8.74778e-06 -1.1709e-05 0.107438)
(-1.07954e-06 4.46598e-06 0.0986877)
(-8.27966e-07 -1.25683e-05 0.0932946)
(-5.56551e-06 -1.48062e-05 0.109769)
(2.579e-06 -1.34731e-05 0.109775)
(-3.30543e-08 -1.72095e-05 0.0987469)
(-4.28338e-06 5.49791e-06 0.0932393)
(6.71525e-06 -1.21402e-05 0.107438)
(-4.68458e-07 4.3102e-06 0.0986881)
(1.75226e-06 -1.15543e-05 0.0932946)
(2.51328e-06 -1.50168e-05 0.10977)
(8.17157e-07 4.54674e-06 0.0916464)
(-1.13783e-06 -5.67789e-06 0.0825501)
(9.0615e-07 7.46757e-06 0.0825127)
(6.53834e-07 -8.28238e-06 0.0916844)
(5.93424e-07 4.66089e-06 0.0916466)
(9.24096e-07 -5.68348e-06 0.0825509)
(-2.19666e-07 7.69339e-06 0.0825128)
(7.75914e-07 -8.16702e-06 0.0916844)
(2.78122e-07 5.39544e-06 0.0987059)
(-7.26342e-06 -1.2072e-05 0.107441)
(-2.52795e-06 -1.15156e-05 0.0933069)
(-3.31589e-06 -1.64209e-05 0.109766)
(4.87558e-06 7.32023e-06 0.0932549)
(-4.59345e-06 -1.61463e-05 0.109768)
(9.38889e-07 -1.70083e-05 0.0987668)
(2.03362e-07 5.48545e-06 0.098706)
(6.46052e-06 -1.18365e-05 0.10744)
(3.47802e-06 -1.05103e-05 0.0933068)
(3.02922e-06 -1.62213e-05 0.109767)
(-3.76799e-06 8.39767e-06 0.0932541)
(2.63461e-06 -1.61489e-05 0.109768)
(9.41684e-07 -1.6805e-05 0.0987669)
(-1.51002e-06 4.67891e-06 0.0878165)
(-4.21516e-06 1.70246e-06 0.0878139)
(4.28015e-05 -4.18977e-05 0.104352)
(3.293e-06 -3.76787e-06 0.0878548)
(3.69549e-06 -3.38246e-06 0.0878543)
(8.31796e-07 -3.4623e-06 0.0718389)
(1.4212e-06 -2.64313e-06 0.0718398)
(-6.92633e-07 3.97705e-06 0.0718007)
(-2.66605e-05 2.77134e-05 0.104247)
(3.51217e-06 -4.02897e-06 0.0878624)
(-3.41926e-06 3.45939e-06 0.0878224)
(-3.73858e-06 3.23894e-06 0.087825)
(-4.61067e-06 7.63791e-08 0.0718022)
(5.70048e-06 4.77872e-06 0.0932406)
(-1.372e-05 -5.94398e-06 0.107436)
(-1.50088e-05 -1.82555e-06 0.109772)
(-1.76076e-05 -7.04559e-07 0.0987491)
(-1.40124e-05 -6.14322e-06 0.107438)
(-1.13903e-05 -2.33329e-06 0.0932957)
(-1.66992e-05 -2.12646e-06 0.109768)
(3.45482e-06 -1.18828e-06 0.0916304)
(5.95715e-06 -2.72015e-06 0.08251)
(-8.17275e-06 -1.00117e-06 0.0916735)
(-4.87381e-06 1.64983e-06 0.0825484)
(-1.49733e-05 5.92142e-06 0.109772)
(-1.32144e-05 8.88121e-06 0.107437)
(5.11406e-06 -5.33266e-06 0.093241)
(-1.77408e-05 -8.29721e-07 0.0987497)
(-1.33829e-05 7.70395e-06 0.107439)
(-1.65935e-05 4.99557e-06 0.109769)
(-1.21043e-05 1.52675e-06 0.0932964)
(4.32459e-06 -7.87687e-07 0.091648)
(-6.0183e-06 -1.64993e-06 0.0825503)
(7.62066e-06 -4.34518e-07 0.0825134)
(-8.57282e-06 -4.66391e-07 0.0916852)
(5.05944e-06 -8.84593e-07 0.0987086)
(-1.33721e-05 -6.15628e-06 0.107442)
(-1.08649e-05 -4.62249e-06 0.0933076)
(-1.71852e-05 -2.88505e-06 0.109768)
(8.47136e-06 2.98264e-06 0.0932559)
(-1.7603e-05 -2.47947e-06 0.109768)
(-1.71822e-05 -1.0236e-06 0.0987692)
(4.189e-06 -7.12623e-07 0.0916474)
(-5.97265e-06 1.57763e-06 0.0825498)
(7.54914e-06 4.324e-07 0.0825112)
(-8.56784e-06 -5.35071e-08 0.0916854)
(4.912e-06 -9.57279e-07 0.0987089)
(-1.28492e-05 6.67907e-06 0.107444)
(-1.70745e-05 2.79872e-06 0.109768)
(-1.11875e-05 3.95982e-06 0.0933071)
(-1.7488e-05 3.75061e-06 0.109769)
(7.83608e-06 -3.77053e-06 0.0932555)
(-1.72723e-05 -7.30582e-07 0.0987693)
(-5.85635e-06 2.42349e-06 0.0825127)
(7.62305e-06 -3.76461e-07 0.0916713)
(4.32981e-06 -1.44762e-06 0.0825507)
(1.27622e-05 6.23519e-06 0.109773)
(-4.87841e-06 1.75721e-06 0.0986867)
(-6.00871e-06 -4.69988e-06 0.0932382)
(1.68272e-05 7.03385e-07 0.0987458)
(1.17826e-05 9.74636e-06 0.107436)
(1.46283e-05 6.61333e-06 0.109768)
(1.24987e-05 -2.76042e-07 0.0932949)
(-4.9748e-06 -4.51182e-06 0.0825116)
(7.65873e-06 -1.0024e-06 0.091671)
(5.35396e-06 -1.22931e-06 0.0825496)
(-5.58943e-06 4.77615e-07 0.0987059)
(1.26232e-05 -5.1175e-06 0.107441)
(1.69749e-05 -1.29326e-06 0.109766)
(-8.33707e-06 4.24038e-06 0.0932549)
(1.65526e-05 -1.13069e-06 0.109768)
(-4.82212e-06 -8.51239e-07 0.0916472)
(-8.28748e-06 -2.58904e-07 0.0825141)
(-5.6758e-06 2.55667e-07 0.0987058)
(1.27326e-05 8.61342e-06 0.107441)
(1.71647e-05 4.77849e-06 0.109766)
(1.63725e-05 6.06035e-06 0.109767)
(-7.23339e-06 -6.0755e-06 0.0932558)
(-4.71613e-06 -1.21684e-06 0.0916471)
(-7.41049e-06 -2.02514e-06 0.0825135)
(5.04942e-06 -1.1703e-06 0.0878158)
(1.36225e-06 -4.73417e-06 0.0878138)
(-4.2312e-05 4.30863e-05 0.104355)
(-3.81492e-06 3.71036e-06 0.0878523)
(-3.84364e-06 3.723e-06 0.0878535)
(-4.16291e-06 8.72319e-07 0.071834)
(3.97618e-06 2.55988e-08 0.0717978)
(2.74769e-05 -2.66339e-05 0.104251)
(3.41326e-06 -2.92476e-06 0.0878214)
(2.67705e-06 -3.69067e-06 0.087823)
(-6.85444e-07 -4.5197e-06 0.0717979)
(6.47512e-06 1.3443e-05 0.107435)
(6.79776e-07 -4.48163e-06 0.0986873)
(-5.03571e-06 -6.08383e-06 0.0932403)
(1.41611e-06 1.72427e-05 0.0987487)
(7.20592e-06 1.40297e-05 0.107437)
(3.30897e-06 1.66039e-05 0.109767)
(1.31328e-06 1.14069e-05 0.093297)
(1.75234e-06 -3.68489e-06 0.0916307)
(9.22299e-07 7.99947e-06 0.091673)
(-2.05389e-06 4.40505e-06 0.0825482)
(-3.21279e-06 -6.21079e-06 0.0825134)
(5.8125e-07 7.80935e-06 0.0916733)
(3.51608e-07 4.77704e-06 0.0825508)
(1.66545e-06 -4.99069e-06 0.0987087)
(-5.34877e-06 1.35105e-05 0.107445)
(-2.311e-06 1.77975e-05 0.109768)
(4.1535e-06 -7.83161e-06 0.0932561)
(1.46821e-06 -5.30864e-06 0.0987085)
(7.22356e-06 1.38191e-05 0.107442)
(4.16934e-06 1.77795e-05 0.109767)
(-4.13349e-06 -8.26397e-06 0.093257)
(4.01025e-07 -4.38116e-06 0.0916484)
(-9.90169e-07 -8.1192e-06 0.0825117)
(3.8383e-07 -4.5001e-06 0.0916484)
(-6.63807e-07 -7.67395e-06 0.082514)
(-2.84153e-06 -4.51439e-06 0.0718099)
(1.6507e-06 9.83244e-07 0.0718365)
(2.52953e-06 1.19089e-06 0.0718364)
(-2.6657e-05 -2.54643e-05 0.104249)
(-2.28188e-06 -5.16212e-06 0.0878251)
(-3.64776e-06 -3.41847e-06 0.0878228)
(-4.07933e-06 -1.99954e-06 0.0717987)
(-7.16594e-07 -4.25406e-06 0.0717977)
(-1.07566e-05 9.27751e-07 0.0825288)
(4.88569e-07 -1.50489e-07 0.0824708)
(-1.26213e-05 6.08606e-07 0.0916363)
(-2.90522e-06 8.65696e-07 0.0915964)
(-2.94287e-06 -1.11695e-05 0.114637)
(-1.22945e-05 5.41067e-06 0.11462)
(2.33464e-06 1.13828e-05 0.114623)
(3.24729e-06 -1.14034e-05 0.114637)
(-8.43968e-06 7.48136e-06 0.112234)
(-5.82849e-06 1.77001e-05 0.0932636)
(-9.07865e-06 9.66473e-06 0.107437)
(-2.61301e-06 2.15442e-05 0.0987201)
(-5.39073e-06 1.08304e-05 0.109788)
(-7.24916e-08 -5.22405e-06 0.0957874)
(-9.53146e-06 -6.13013e-06 0.107447)
(-9.97782e-06 -6.04511e-06 0.107443)
(-2.19113e-05 9.63877e-07 0.098721)
(-1.30565e-05 -3.49861e-06 0.109798)
(-2.6329e-06 3.74206e-07 0.0986762)
(-1.15699e-05 -2.5123e-06 0.109791)
(7.44188e-07 -1.27209e-07 0.082473)
(-1.11611e-05 -2.03745e-06 0.0825298)
(-1.24729e-05 5.75955e-07 0.0916368)
(-2.62727e-06 2.49304e-06 0.0915963)
(-1.70831e-05 6.4009e-06 0.0932635)
(-9.86865e-06 6.28564e-06 0.10744)
(-1.04218e-05 8.46014e-06 0.107434)
(-2.15512e-05 2.82157e-06 0.0987209)
(-1.28937e-05 2.10303e-06 0.109795)
(-2.2111e-06 3.21903e-06 0.0986755)
(-1.14701e-05 4.33495e-06 0.109788)
(2.53889e-06 3.04793e-06 0.0824983)
(-9.46563e-06 -3.1139e-07 0.0916549)
(-7.02323e-06 8.50355e-07 0.082546)
(6.91368e-07 3.88008e-07 0.0916115)
(-1.13357e-05 -5.9078e-06 0.107438)
(-1.88541e-05 4.06035e-07 0.0987301)
(-1.47239e-05 -1.50178e-06 0.0932797)
(-1.26479e-05 -5.87794e-06 0.107436)
(-1.30177e-05 -1.62311e-06 0.109777)
(1.54722e-06 9.42915e-07 0.0986763)
(-1.1684e-05 -1.89461e-06 0.109783)
(2.01624e-06 -4.20723e-06 0.0824979)
(-9.53263e-06 -1.12224e-06 0.0916556)
(-7.52853e-06 -1.77328e-06 0.0825455)
(7.41734e-07 2.6182e-08 0.0916114)
(-1.88026e-05 7.51313e-07 0.0987306)
(-1.29954e-05 6.31469e-06 0.109775)
(-1.24503e-05 9.53376e-06 0.107433)
(-1.14633e-05 9.55278e-06 0.107434)
(-1.50613e-05 1.11912e-06 0.0932807)
(1.81924e-06 2.37982e-06 0.0986762)
(-1.16674e-05 5.82172e-06 0.109782)
(1.15923e-05 -3.11158e-06 0.10978)
(1.11367e-05 -7.39954e-06 0.107439)
(1.85752e-05 1.20785e-06 0.0987296)
(1.51488e-05 -1.4507e-06 0.0932791)
(1.11396e-05 -3.7009e-06 0.109788)
(9.56257e-06 1.16435e-06 0.0916535)
(7.77205e-06 1.21791e-06 0.0825465)
(1.11361e-05 5.27587e-06 0.109778)
(1.82153e-05 1.95163e-06 0.0987292)
(1.39051e-05 2.51426e-06 0.0932772)
(9.42824e-06 9.17771e-06 0.107436)
(1.07492e-05 3.87151e-06 0.109786)
(-3.52466e-06 1.37977e-06 0.0932234)
(8.47052e-06 -2.75148e-06 0.0825457)
(-1.8011e-06 -2.78568e-06 0.0824983)
(-7.31712e-07 2.18476e-05 0.0987204)
(1.69318e-06 1.10061e-05 0.10979)
(2.7037e-06 1.14223e-05 0.0825291)
(1.5777e-07 1.24941e-05 0.0916357)
(7.96509e-08 1.25607e-05 0.0916359)
(-6.72241e-06 1.26913e-05 0.109775)
(2.05538e-06 -2.12128e-06 0.0932244)
(-9.90047e-06 1.10459e-05 0.107436)
(-3.4864e-07 1.53245e-05 0.0932809)
(-3.88089e-08 1.86482e-05 0.0987295)
(-2.02353e-06 -1.88616e-06 0.0986753)
(-6.65511e-06 1.1115e-05 0.109782)
(5.97859e-06 1.22657e-05 0.107434)
(2.80582e-07 1.85551e-05 0.0987292)
(1.47238e-06 1.43795e-05 0.0932798)
(-5.69971e-07 -1.67884e-06 0.0986754)
(5.6197e-06 1.0887e-05 0.107436)
(1.35495e-06 1.10814e-05 0.109782)
(-1.40921e-06 -2.27289e-06 0.0932226)
(2.03586e-06 7.52139e-06 0.0825452)
(1.80926e-06 9.41198e-06 0.0916543)
(7.75307e-07 -7.8841e-07 0.0916115)
(-1.69079e-06 7.20571e-06 0.0825476)
(3.53735e-07 -8.10428e-07 0.0916116)
(-2.98674e-06 -2.4949e-06 0.0824996)
(2.04232e-06 5.78203e-06 0.0878476)
(6.14633e-06 1.49652e-06 0.0878437)
(-2.61329e-05 -2.37488e-05 0.104229)
(-5.5094e-08 -2.52563e-06 0.0878048)
(-3.53773e-06 6.93036e-07 0.0878017)
(3.4094e-06 -9.55768e-07 0.0718477)
(-6.96639e-07 -3.72069e-06 0.0718099)
(-3.61113e-06 -1.34124e-06 0.0718096)
(2.37229e-07 -1.70339e-06 0.0918802)
(-1.57212e-06 1.65785e-06 0.0877934)
(-1.98762e-05 -1.13736e-05 0.0964842)
(-8.65552e-06 -2.50206e-06 0.0818451)
(-3.34145e-06 4.7792e-07 0.0818078)
(-1.4245e-05 -7.77942e-06 0.0919156)
(1.04979e-06 -1.73106e-07 0.0964458)
(-1.28202e-05 -6.05143e-06 0.091925)
(2.2191e-06 1.81628e-06 0.0964506)
(-7.19095e-06 -2.93928e-06 0.0878394)
(-9.77444e-07 1.80913e-06 0.0818194)
(1.30363e-06 2.19283e-07 0.0918889)
(-5.88449e-06 -1.43936e-06 0.0818542)
(-1.8582e-05 -9.56939e-06 0.0964907)
(-3.65023e-06 -4.49288e-07 0.0718426)
(-1.17926e-05 6.3646e-06 0.0919199)
(3.43839e-06 -5.85047e-07 0.0964472)
(-7.46864e-06 2.40849e-06 0.0878384)
(-6.51448e-07 -2.39085e-06 0.0818169)
(2.60009e-06 1.72533e-07 0.0918857)
(-5.82302e-06 9.68505e-07 0.0818495)
(-1.75369e-05 1.06757e-05 0.0964868)
(9.50188e-07 3.87033e-06 0.071842)
(-9.10537e-06 -3.98437e-06 0.0919421)
(5.78053e-06 4.12851e-06 0.0964653)
(4.55278e-06 2.94323e-06 0.081827)
(-4.53041e-06 -3.07785e-06 0.087851)
(4.93708e-06 2.73273e-06 0.0919052)
(-9.12886e-07 -8.71421e-07 0.0818576)
(-1.4847e-05 -7.89947e-06 0.0965078)
(1.1242e-06 -2.28862e-06 0.071843)
(2.64878e-06 1.03483e-06 0.0771946)
(-3.50005e-06 2.27459e-06 0.0901549)
(-2.87125e-06 -9.42434e-07 0.0789416)
(8.15454e-06 4.65397e-07 0.0916624)
(8.41003e-06 1.78357e-06 0.0901934)
(3.11574e-06 -9.32145e-07 0.0789678)
(-3.43018e-06 3.07224e-07 0.0771617)
(3.32437e-06 -3.50424e-06 0.0771924)
(-2.74489e-06 -9.07001e-07 0.0789415)
(-3.71135e-06 -1.7754e-06 0.0901558)
(8.08003e-06 -3.29856e-07 0.0916622)
(3.26479e-06 -1.25612e-06 0.0789674)
(8.41093e-06 -2.10379e-06 0.0901927)
(-2.91626e-06 -2.31137e-06 0.0771622)
(-2.6257e-06 1.01483e-06 0.0718366)
(5.25586e-08 1.40239e-06 0.0687132)
(2.27839e-06 -4.00126e-06 0.0860993)
(3.37344e-08 5.43492e-06 0.082548)
(1.04237e-06 6.40627e-06 0.0861426)
(-5.10412e-07 -3.63917e-06 0.0686699)
(-1.9681e-06 3.02788e-06 0.0771928)
(-8.72512e-07 -4.0627e-06 0.090157)
(3.42018e-07 -2.92242e-06 0.078941)
(8.9985e-07 8.04965e-06 0.0916642)
(-7.33819e-07 8.0706e-06 0.0901947)
(-1.51778e-07 3.1262e-06 0.0789677)
(-7.91568e-07 -3.31674e-06 0.0771616)
(1.2373e-06 1.37029e-06 0.0718425)
(-1.73806e-06 -1.90093e-06 0.0771561)
(4.40114e-06 -1.00031e-06 0.0789619)
(9.42583e-06 -1.15656e-06 0.090184)
(-2.23552e-06 7.13749e-07 0.0916206)
(4.41735e-06 -3.46088e-06 0.077188)
(-1.50811e-06 -5.52611e-07 0.0789343)
(-2.52355e-06 -4.92743e-07 0.0901468)
(3.64953e-06 3.72792e-06 0.0687155)
(3.08954e-06 9.71434e-06 0.0825389)
(3.08106e-06 -1.78075e-06 0.0860855)
(2.57888e-06 -1.21242e-06 0.0686675)
(2.85646e-06 8.47655e-06 0.0861304)
(-6.93458e-07 -2.30938e-06 0.0771562)
(-8.04565e-07 9.06796e-06 0.0901853)
(3.11215e-07 4.13463e-06 0.0789629)
(7.61692e-07 -2.46377e-06 0.091621)
(-2.05405e-06 3.90001e-06 0.0771891)
(-7.73467e-07 -2.81315e-06 0.0901473)
(7.5075e-07 -1.80232e-06 0.0789344)
(-3.63148e-06 -2.54321e-06 0.0718122)
(-9.99081e-07 -7.78945e-07 0.0771315)
(3.25202e-07 -7.02114e-06 0.0789405)
(-2.08714e-06 -1.22165e-05 0.0901669)
(-1.46241e-06 -1.73172e-06 0.0916048)
(-1.55562e-07 -1.15335e-06 0.0789086)
(-3.26946e-06 -3.9102e-07 0.0901291)
(1.30264e-06 -6.92353e-06 0.0771684)
(4.19848e-07 -5.04715e-06 0.0686884)
(-2.58696e-06 -1.16814e-05 0.0825138)
(-4.0248e-06 9.56083e-07 0.0860621)
(-3.2396e-06 -9.72347e-06 0.0861077)
(-2.17707e-06 4.69459e-07 0.0686345)
(-1.32145e-07 6.91954e-07 0.0686542)
(-7.47065e-07 -9.16903e-06 0.0861187)
(6.08026e-07 9.26316e-07 0.0824848)
(-1.40332e-06 1.33865e-06 0.0860737)
(2.07413e-06 -4.61045e-06 0.0687047)
(-9.19707e-07 -7.94726e-06 0.0771539)
(-1.7204e-06 -1.50245e-05 0.0916307)
(-7.69734e-07 -2.01325e-06 0.0788934)
(-5.3816e-06 -1.52213e-06 0.0901215)
(-2.0495e-07 -8.14589e-06 0.0789261)
(-4.47624e-06 -1.35092e-05 0.090159)
(-3.39838e-06 -1.5543e-06 0.0771158)
(-5.63063e-06 9.71908e-07 0.0718291)
(1.45591e-07 -3.65857e-06 0.0717975)
(6.12852e-07 3.81942e-06 0.0771638)
(6.58392e-07 4.42301e-06 0.0916383)
(4.89979e-07 -2.74676e-06 0.0789688)
(1.52013e-06 -8.19485e-06 0.0902008)
(3.04297e-07 3.53271e-06 0.0789437)
(1.84885e-06 4.20457e-06 0.0901637)
(1.33572e-06 -2.7338e-06 0.0771933)
(1.18243e-06 -2.07609e-06 0.0687156)
(1.99993e-06 3.92138e-06 0.0861)
(1.18436e-06 -6.28716e-06 0.0825478)
(2.09932e-07 3.14002e-06 0.0686745)
(1.2791e-06 -6.65391e-06 0.0861419)
(2.33092e-06 -3.29905e-06 0.0771921)
(5.38372e-07 -8.39553e-06 0.0916627)
(3.78317e-07 2.67276e-06 0.07894)
(1.85289e-06 3.44088e-06 0.0901553)
(1.38248e-06 2.96992e-06 0.077161)
(5.90131e-07 -3.37267e-06 0.0789667)
(1.88049e-06 -8.67282e-06 0.0901928)
(-7.85212e-07 3.85366e-06 0.0686714)
(5.54759e-07 -6.10555e-06 0.0861467)
(2.22538e-06 6.90997e-06 0.0825124)