/*--------------------------------*- C++ -*----------------------------------*\
| =========                 |                                                 |
| \\      /  F ield         | OpenFOAM: The Open Source CFD Toolbox           |
|  \\    /   O peration     | Version:  v2012                                 |
|   \\  /    A nd           | Website:  www.openfoam.com                      |
|    \\/     M anipulation  |                                                 |
\*---------------------------------------------------------------------------*/
FoamFile
{
    version     2.0;
    format      ascii;
    class       volScalarField;
    location    "187.5";
    object      k;
}
// * * * * * * * * * * * * * * * * * * * * * * * * * * * * * * * * * * * * * //

dimensions      [0 2 -2 0 0 0 0];


internalField   nonuniform List<scalar> 
171728
(
1.64928e-06
2.94103e-07
3.82512e-07
3.6341e-07
1.64162e-06
2.88516e-07
3.71944e-07
3.45284e-07
1.67716e-06
2.8414e-07
3.65764e-07
3.29436e-07
1.7135e-06
2.80796e-07
3.60675e-07
3.15997e-07
1.75083e-06
2.8063e-07
3.56709e-07
3.0602e-07
1.78957e-06
2.84303e-07
3.55525e-07
2.98268e-07
1.82926e-06
2.90669e-07
3.57003e-07
2.92442e-07
1.87177e-06
2.98505e-07
3.61463e-07
2.87413e-07
1.9164e-06
3.09795e-07
3.70455e-07
2.82299e-07
1.96306e-06
3.24786e-07
3.7957e-07
2.78142e-07
2.00942e-06
3.44525e-07
3.9185e-07
2.75537e-07
2.05696e-06
3.6743e-07
4.06633e-07
2.73911e-07
2.10415e-06
3.92635e-07
4.2677e-07
2.73922e-07
2.15031e-06
4.20933e-07
4.50345e-07
2.75753e-07
2.19598e-06
4.52221e-07
4.772e-07
2.80368e-07
2.23947e-06
4.91782e-07
5.12512e-07
2.90608e-07
2.28237e-06
5.31461e-07
5.51312e-07
3.07802e-07
2.32601e-06
5.85215e-07
6.01318e-07
3.31964e-07
2.36858e-06
6.46124e-07
6.63028e-07
3.8546e-07
2.41003e-06
7.25764e-07
7.44707e-07
4.56573e-07
2.45388e-06
8.46528e-07
8.63779e-07
6.30415e-07
2.49966e-06
9.97186e-07
1.01152e-06
9.0399e-07
2.54556e-06
1.22909e-06
1.23975e-06
1.37929e-06
2.59383e-06
1.51335e-06
1.51286e-06
2.05443e-06
2.64958e-06
1.91629e-06
1.89723e-06
3.10626e-06
2.71168e-06
2.41024e-06
2.38861e-06
4.52098e-06
2.78456e-06
3.08844e-06
2.99278e-06
6.3606e-06
2.86865e-06
3.84826e-06
3.7241e-06
8.53524e-06
2.96621e-06
4.65468e-06
4.59257e-06
1.09465e-05
3.08792e-06
5.71184e-06
5.59819e-06
1.36417e-05
3.22493e-06
6.74053e-06
6.86381e-06
1.61241e-05
3.40225e-06
7.96746e-06
8.19706e-06
1.85161e-05
3.60202e-06
9.31776e-06
9.5782e-06
2.07773e-05
3.86809e-06
1.08499e-05
1.11133e-05
2.27482e-05
4.18366e-06
1.24646e-05
1.26059e-05
2.46782e-05
4.57643e-06
1.42854e-05
1.43048e-05
2.64793e-05
5.07262e-06
1.61384e-05
1.61346e-05
2.80489e-05
5.66169e-06
1.80528e-05
1.81444e-05
2.9427e-05
6.38981e-06
2.0274e-05
2.03477e-05
3.11283e-05
7.04477e-06
2.17795e-05
2.18342e-05
3.2063e-05
7.49883e-06
2.2301e-05
2.23402e-05
3.20282e-05
7.83274e-06
2.26708e-05
2.26885e-05
3.17846e-05
8.68379e-06
2.41871e-05
2.41928e-05
3.2424e-05
1.05925e-05
2.69844e-05
2.69867e-05
3.4294e-05
1.33525e-05
3.01998e-05
3.02027e-05
3.66051e-05
1.68927e-05
3.35613e-05
3.35646e-05
3.91985e-05
2.01015e-05
3.6024e-05
3.60272e-05
4.11144e-05
2.21226e-05
3.732e-05
3.73232e-05
4.20763e-05
2.30999e-05
3.78731e-05
3.78764e-05
4.24765e-05
2.34852e-05
3.8076e-05
3.80794e-05
4.26307e-05
2.36177e-05
3.81475e-05
3.81507e-05
4.26879e-05
2.36478e-05
3.81582e-05
3.81614e-05
4.27094e-05
2.36504e-05
3.81529e-05
3.81561e-05
4.26841e-05
2.36552e-05
3.81601e-05
3.81635e-05
4.27022e-05
2.36542e-05
3.81581e-05
3.81612e-05
4.27013e-05
2.36537e-05
3.81561e-05
3.81596e-05
4.26892e-05
2.36541e-05
3.81582e-05
3.81611e-05
4.27057e-05
2.36538e-05
3.81573e-05
3.81607e-05
4.26933e-05
2.3654e-05
3.81571e-05
3.81606e-05
4.26966e-05
2.36539e-05
3.81572e-05
3.81607e-05
4.27037e-05
2.36539e-05
3.81575e-05
3.8161e-05
4.26883e-05
2.36539e-05
3.81571e-05
3.81604e-05
4.26945e-05
2.36539e-05
3.81572e-05
3.81603e-05
4.27059e-05
2.36541e-05
3.81578e-05
3.81613e-05
4.26997e-05
2.36541e-05
3.81572e-05
3.8161e-05
4.26886e-05
2.36541e-05
3.81571e-05
3.81605e-05
4.26967e-05
2.36541e-05
3.81577e-05
3.81607e-05
4.27063e-05
2.36541e-05
3.81573e-05
3.81606e-05
4.2698e-05
2.3654e-05
3.8157e-05
3.81602e-05
4.26878e-05
2.36542e-05
3.81578e-05
3.81617e-05
4.27001e-05
2.36541e-05
3.81583e-05
3.81606e-05
4.2704e-05
2.36541e-05
3.81562e-05
3.81607e-05
4.26883e-05
2.36541e-05
3.81582e-05
3.81609e-05
4.26944e-05
2.3654e-05
3.81575e-05
3.81607e-05
4.27058e-05
2.36539e-05
3.81574e-05
3.81607e-05
4.27011e-05
2.3654e-05
3.8158e-05
3.81609e-05
4.26889e-05
2.36539e-05
3.81573e-05
3.8161e-05
4.2694e-05
2.36539e-05
3.8158e-05
3.81614e-05
4.27041e-05
2.36538e-05
3.81575e-05
3.81609e-05
4.27029e-05
2.36538e-05
3.81571e-05
3.81609e-05
4.26984e-05
2.36537e-05
3.81572e-05
3.81609e-05
4.26928e-05
2.36537e-05
3.81573e-05
3.81606e-05
4.2689e-05
2.36537e-05
3.81573e-05
3.81603e-05
4.26914e-05
2.36537e-05
3.8157e-05
3.81605e-05
4.26963e-05
2.36537e-05
3.81568e-05
3.81605e-05
4.27025e-05
2.36537e-05
3.81569e-05
3.81607e-05
4.27033e-05
2.36537e-05
3.81574e-05
3.81609e-05
4.26946e-05
2.36537e-05
3.81575e-05
3.8161e-05
4.26927e-05
2.36537e-05
3.81579e-05
3.81614e-05
4.26974e-05
2.36538e-05
3.81585e-05
3.81619e-05
4.27003e-05
2.36538e-05
3.81592e-05
3.81629e-05
4.27034e-05
2.3654e-05
3.81602e-05
3.81642e-05
4.27015e-05
2.36539e-05
3.81624e-05
3.81661e-05
4.27009e-05
2.36462e-05
3.81532e-05
3.81566e-05
4.26914e-05
2.30753e-05
3.68576e-05
3.68602e-05
4.1982e-05
3.65685e-07
3.46226e-07
3.39462e-07
3.58848e-07
3.38123e-07
3.44651e-07
1.69556e-06
1.68881e-06
1.70487e-06
1.70007e-06
2.83946e-07
3.39186e-07
3.68304e-07
3.43478e-07
3.14469e-07
3.6499e-07
3.63265e-07
3.50545e-07
3.84337e-07
4.23058e-07
3.73793e-07
4.14539e-07
3.56261e-07
3.4273e-07
3.73509e-07
3.82639e-07
3.66187e-07
3.74532e-07
3.73497e-07
2.89287e-07
3.65372e-07
3.6569e-07
3.5052e-07
3.19996e-07
3.73997e-07
3.17167e-07
3.4796e-07
3.47829e-07
3.36053e-07
3.70299e-07
4.10681e-07
3.6044e-07
3.99394e-07
3.39976e-07
3.27158e-07
3.64398e-07
3.7247e-07
3.59751e-07
3.67248e-07
3.63319e-07
2.85309e-07
3.58076e-07
3.47487e-07
3.35462e-07
3.17065e-07
3.67071e-07
3.17469e-07
3.31942e-07
3.33264e-07
3.20144e-07
3.57255e-07
3.95607e-07
3.46852e-07
3.82992e-07
3.24122e-07
3.10308e-07
3.58407e-07
3.65849e-07
3.54977e-07
3.62485e-07
3.56695e-07
2.81326e-07
3.5367e-07
3.32928e-07
3.22905e-07
3.17743e-07
3.61998e-07
3.19619e-07
3.18259e-07
3.17111e-07
3.04049e-07
3.42866e-07
3.78566e-07
3.32625e-07
3.65515e-07
3.07172e-07
2.93838e-07
3.54096e-07
3.6147e-07
3.5231e-07
3.59361e-07
3.52949e-07
2.80501e-07
3.51656e-07
3.20428e-07
3.11494e-07
3.20182e-07
3.5768e-07
3.22787e-07
3.07886e-07
3.00863e-07
2.88667e-07
3.30073e-07
3.61925e-07
3.25568e-07
3.55599e-07
2.90711e-07
2.793e-07
3.51924e-07
3.58798e-07
3.51834e-07
3.58541e-07
3.51368e-07
2.8322e-07
3.51361e-07
3.09278e-07
3.02908e-07
3.23545e-07
3.55505e-07
3.27369e-07
2.99932e-07
2.86031e-07
2.78619e-07
3.25255e-07
3.55143e-07
3.25491e-07
3.55422e-07
2.76922e-07
2.69714e-07
3.51952e-07
3.58622e-07
3.53335e-07
3.59968e-07
3.51502e-07
2.89186e-07
3.52741e-07
3.01178e-07
2.97238e-07
3.28757e-07
3.56466e-07
3.34312e-07
2.93795e-07
2.76649e-07
2.70968e-07
3.2592e-07
3.56205e-07
3.29274e-07
3.58879e-07
2.6774e-07
2.62361e-07
3.5427e-07
3.60585e-07
3.57275e-07
3.64301e-07
3.53609e-07
2.95957e-07
3.56922e-07
2.95926e-07
2.93518e-07
3.36442e-07
3.60493e-07
3.42786e-07
2.88769e-07
2.69146e-07
2.64503e-07
3.30945e-07
3.60108e-07
3.36619e-07
3.65363e-07
2.60659e-07
2.56293e-07
3.58814e-07
3.65673e-07
3.6403e-07
3.71778e-07
3.58359e-07
3.0743e-07
3.64043e-07
2.92381e-07
2.89926e-07
3.45514e-07
3.6854e-07
3.5327e-07
2.83616e-07
2.63064e-07
2.60086e-07
3.39208e-07
3.673e-07
3.48585e-07
3.7393e-07
2.548e-07
2.51957e-07
3.65659e-07
3.7367e-07
3.73318e-07
3.81776e-07
3.66347e-07
3.2111e-07
3.74534e-07
2.88749e-07
2.85449e-07
3.56334e-07
3.77215e-07
3.66888e-07
2.79186e-07
2.58989e-07
2.5773e-07
3.51642e-07
3.76315e-07
3.62363e-07
3.86725e-07
2.51114e-07
2.50769e-07
3.76034e-07
3.85046e-07
3.85514e-07
3.94075e-07
3.77228e-07
3.39333e-07
3.87412e-07
2.84135e-07
2.80893e-07
3.70086e-07
3.88539e-07
3.83016e-07
2.76379e-07
2.57109e-07
2.57352e-07
3.65964e-07
3.90457e-07
3.77886e-07
4.02382e-07
2.50213e-07
2.52047e-07
3.88917e-07
3.97666e-07
3.99936e-07
4.10368e-07
3.91349e-07
3.61921e-07
4.02772e-07
2.79742e-07
2.78243e-07
3.8724e-07
4.03403e-07
4.00081e-07
2.74563e-07
2.56783e-07
2.56851e-07
3.824e-07
4.06614e-07
3.96618e-07
4.20396e-07
2.51767e-07
2.55233e-07
4.04292e-07
4.14725e-07
4.19207e-07
4.29417e-07
4.06942e-07
3.8631e-07
4.20116e-07
2.77566e-07
2.78088e-07
4.05397e-07
4.21662e-07
4.19286e-07
2.74332e-07
2.56265e-07
2.57363e-07
4.02511e-07
4.262e-07
4.21562e-07
4.43742e-07
2.54999e-07
2.59056e-07
4.24606e-07
4.34422e-07
4.4288e-07
4.50269e-07
4.25229e-07
4.13724e-07
4.43471e-07
2.7771e-07
2.80249e-07
4.2462e-07
4.43575e-07
4.4237e-07
2.75958e-07
2.57129e-07
2.61589e-07
4.28177e-07
4.50409e-07
4.49999e-07
4.72284e-07
2.58999e-07
2.63023e-07
4.49367e-07
4.57123e-07
4.70634e-07
4.78132e-07
4.50186e-07
4.44686e-07
4.72888e-07
2.80129e-07
2.8314e-07
4.48112e-07
4.71017e-07
4.68482e-07
2.79693e-07
2.62256e-07
2.70653e-07
4.57763e-07
4.79527e-07
4.81233e-07
5.04897e-07
2.63769e-07
2.72285e-07
4.78433e-07
4.85582e-07
5.04013e-07
5.12256e-07
4.81092e-07
4.82481e-07
5.0684e-07
2.83601e-07
2.89263e-07
4.76204e-07
5.0349e-07
5.01149e-07
2.88583e-07
2.72713e-07
2.86126e-07
4.90227e-07
5.14556e-07
5.18385e-07
5.43412e-07
2.7441e-07
2.86228e-07
5.1343e-07
5.21393e-07
5.44117e-07
5.50157e-07
5.15715e-07
5.20147e-07
5.45377e-07
2.90374e-07
3.03229e-07
5.10265e-07
5.41407e-07
5.39771e-07
3.03715e-07
2.89688e-07
3.11445e-07
5.27817e-07
5.54746e-07
5.6259e-07
5.94568e-07
2.9002e-07
3.15947e-07
5.54757e-07
5.60959e-07
5.92541e-07
5.97903e-07
5.5649e-07
5.72694e-07
5.89409e-07
3.06378e-07
3.26376e-07
5.51199e-07
5.88145e-07
5.83643e-07
3.25429e-07
3.20699e-07
3.55592e-07
5.76999e-07
6.07631e-07
6.20048e-07
6.52729e-07
3.2331e-07
3.54293e-07
6.07495e-07
6.12009e-07
6.54806e-07
6.57114e-07
6.0329e-07
6.27427e-07
6.51585e-07
3.35463e-07
3.67497e-07
5.95502e-07
6.45263e-07
6.43006e-07
3.7278e-07
3.6622e-07
4.34119e-07
6.36163e-07
6.71781e-07
6.97769e-07
7.32452e-07
3.69234e-07
4.3892e-07
6.72303e-07
6.75119e-07
7.34494e-07
7.40084e-07
6.68095e-07
7.04878e-07
7.23193e-07
3.80032e-07
4.51633e-07
6.59248e-07
7.22184e-07
7.11405e-07
4.33707e-07
4.59273e-07
5.87214e-07
7.22706e-07
7.56326e-07
8.04085e-07
8.39461e-07
4.6269e-07
5.94436e-07
7.59568e-07
7.64158e-07
8.46171e-07
8.46097e-07
7.47478e-07
8.12958e-07
8.31019e-07
4.74522e-07
6.05571e-07
7.35245e-07
8.29892e-07
8.18327e-07
5.87552e-07
6.30098e-07
8.56951e-07
8.3544e-07
8.72814e-07
9.58109e-07
9.79974e-07
6.41588e-07
8.4425e-07
8.77405e-07
8.81798e-07
9.96201e-07
9.94573e-07
8.63034e-07
9.56183e-07
9.76064e-07
6.49075e-07
8.58117e-07
8.50037e-07
9.73168e-07
9.65739e-07
8.41354e-07
9.26992e-07
1.25504e-06
1.00118e-06
1.02068e-06
1.15084e-06
1.18114e-06
9.02703e-07
1.27832e-06
1.0399e-06
1.03431e-06
1.18914e-06
1.20368e-06
1.01962e-06
1.16362e-06
1.17491e-06
9.1667e-07
1.28249e-06
1.01093e-06
1.17603e-06
1.1704e-06
1.26684e-06
1.36803e-06
1.92873e-06
1.21723e-06
1.24708e-06
1.42377e-06
1.44596e-06
1.39837e-06
1.91389e-06
1.2533e-06
1.27217e-06
1.45881e-06
1.47642e-06
1.23517e-06
1.43432e-06
1.44526e-06
1.40978e-06
1.93405e-06
1.23253e-06
1.43573e-06
1.43789e-06
1.89018e-06
2.07722e-06
2.8791e-06
1.50027e-06
1.52285e-06
1.78455e-06
1.80332e-06
2.05786e-06
2.88567e-06
1.53411e-06
1.55266e-06
1.81044e-06
1.83629e-06
1.52548e-06
1.80338e-06
1.80208e-06
2.07991e-06
2.87432e-06
1.52126e-06
1.79639e-06
1.81711e-06
2.88326e-06
3.11903e-06
4.21357e-06
1.88912e-06
1.90461e-06
2.22863e-06
2.25988e-06
3.13122e-06
4.2309e-06
1.91424e-06
1.93677e-06
2.25242e-06
2.29469e-06
1.90687e-06
2.28465e-06
2.25131e-06
3.11081e-06
4.23803e-06
1.92295e-06
2.25337e-06
2.27358e-06
4.21761e-06
4.50325e-06
5.95906e-06
2.36125e-06
2.39496e-06
2.80603e-06
2.81896e-06
4.52499e-06
6.01167e-06
2.38252e-06
2.42774e-06
2.82369e-06
2.87908e-06
2.38037e-06
2.88639e-06
2.81549e-06
4.54682e-06
5.99012e-06
2.4126e-06
2.82432e-06
2.88098e-06
5.97517e-06
6.34202e-06
8.05952e-06
2.96457e-06
2.9844e-06
3.48632e-06
3.5416e-06
6.40609e-06
8.22837e-06
2.98028e-06
3.05962e-06
3.49231e-06
3.56459e-06
2.9772e-06
3.67639e-06
3.49722e-06
6.36428e-06
8.18435e-06
3.04295e-06
3.53029e-06
3.53777e-06
8.11261e-06
8.49726e-06
1.05041e-05
3.6856e-06
3.72626e-06
4.32548e-06
4.28697e-06
8.66027e-06
1.0377e-05
3.68981e-06
3.75945e-06
4.32046e-06
4.4773e-06
3.68426e-06
4.42232e-06
4.30912e-06
8.62563e-06
1.06021e-05
3.71879e-06
4.37397e-06
4.34101e-06
1.04454e-05
1.09935e-05
1.30293e-05
4.54838e-06
4.50206e-06
5.29095e-06
5.29178e-06
1.08265e-05
1.30098e-05
4.53742e-06
4.69046e-06
5.27493e-06
5.36171e-06
4.54202e-06
5.44308e-06
5.30587e-06
1.10988e-05
1.31761e-05
4.57574e-06
5.31798e-06
5.35258e-06
1.312e-05
1.35418e-05
1.55791e-05
5.55865e-06
5.58048e-06
6.37865e-06
6.41558e-06
1.35702e-05
1.5669e-05
5.54435e-06
5.65458e-06
6.36517e-06
6.5564e-06
5.57393e-06
6.48154e-06
6.38824e-06
1.37045e-05
1.58002e-05
5.6262e-06
6.52503e-06
6.45317e-06
1.5634e-05
1.60819e-05
1.8015e-05
6.67462e-06
6.70357e-06
7.63668e-06
7.68231e-06
1.61523e-05
1.80373e-05
6.65838e-06
6.83208e-06
7.61152e-06
7.62609e-06
6.67317e-06
7.63642e-06
7.6074e-06
1.62888e-05
1.79991e-05
6.74169e-06
7.88482e-06
7.6918e-06
1.80201e-05
1.85076e-05
2.02713e-05
7.9636e-06
8.02905e-06
8.99228e-06
9.06862e-06
1.85424e-05
2.03053e-05
7.93745e-06
7.90172e-06
8.9748e-06
8.90376e-06
7.93634e-06
8.97373e-06
8.98245e-06
1.84368e-05
2.01001e-05
8.02406e-06
9.19335e-06
9.04853e-06
2.03154e-05
2.07379e-05
2.23628e-05
9.35604e-06
9.42705e-06
1.04919e-05
1.05824e-05
2.07554e-05
2.23574e-05
9.3432e-06
9.30464e-06
1.05013e-05
1.05773e-05
9.35128e-06
1.04497e-05
1.04738e-05
2.05825e-05
2.23442e-05
9.40387e-06
1.07517e-05
1.04864e-05
2.23242e-05
2.28047e-05
2.42974e-05
1.08957e-05
1.09811e-05
1.21585e-05
1.21569e-05
2.28017e-05
2.4249e-05
1.09126e-05
1.09903e-05
1.21773e-05
1.21748e-05
1.08655e-05
1.20532e-05
1.21399e-05
2.2792e-05
2.42303e-05
1.08591e-05
1.22109e-05
1.20644e-05
2.42491e-05
2.4706e-05
2.60679e-05
1.25766e-05
1.25574e-05
1.38836e-05
1.38802e-05
2.46511e-05
2.60142e-05
1.25939e-05
1.25719e-05
1.39114e-05
1.38785e-05
1.25778e-05
1.38133e-05
1.39178e-05
2.46348e-05
2.59997e-05
1.24915e-05
1.38692e-05
1.38417e-05
2.60866e-05
2.64756e-05
2.77778e-05
1.43595e-05
1.43465e-05
1.58769e-05
1.57239e-05
2.64107e-05
2.76159e-05
1.4383e-05
1.43489e-05
1.58457e-05
1.5773e-05
1.43879e-05
1.56849e-05
1.58635e-05
2.63904e-05
2.76073e-05
1.43076e-05
1.5663e-05
1.57091e-05
2.77041e-05
2.81255e-05
2.91252e-05
1.63823e-05
1.61698e-05
1.78176e-05
1.7551e-05
2.79595e-05
2.90632e-05
1.63299e-05
1.62334e-05
1.77422e-05
1.76226e-05
1.63531e-05
1.75338e-05
1.77664e-05
2.79598e-05
2.91029e-05
1.61667e-05
1.76119e-05
1.75432e-05
2.90873e-05
2.94517e-05
3.07439e-05
1.83083e-05
1.80706e-05
1.98854e-05
1.97695e-05
2.94259e-05
3.08015e-05
1.82369e-05
1.8135e-05
1.98342e-05
1.98086e-05
1.826e-05
1.97441e-05
1.98566e-05
2.94666e-05
3.083e-05
1.80465e-05
1.98263e-05
1.96947e-05
3.07549e-05
3.11158e-05
3.18982e-05
2.03851e-05
2.03022e-05
2.15658e-05
2.15382e-05
3.11724e-05
3.19181e-05
2.03405e-05
2.03362e-05
2.15397e-05
2.15661e-05
2.03625e-05
2.151e-05
2.15599e-05
3.11979e-05
3.19407e-05
2.02196e-05
2.15676e-05
2.14673e-05
3.19095e-05
3.20523e-05
3.19867e-05
2.18287e-05
2.1806e-05
2.2278e-05
2.2249e-05
3.20659e-05
3.19692e-05
2.1807e-05
2.18322e-05
2.22634e-05
2.22673e-05
2.18267e-05
2.22299e-05
2.22747e-05
3.20877e-05
3.19883e-05
2.17478e-05
2.2274e-05
2.22264e-05
3.19877e-05
3.20284e-05
3.17389e-05
2.23523e-05
2.23192e-05
2.25759e-05
2.25392e-05
3.20095e-05
3.17116e-05
2.23382e-05
2.2334e-05
2.2563e-05
2.25459e-05
2.23452e-05
2.25239e-05
2.25594e-05
3.20279e-05
3.17218e-05
2.23037e-05
2.25464e-05
2.25316e-05
3.17297e-05
3.17944e-05
3.21557e-05
2.27198e-05
2.26856e-05
2.36825e-05
2.36617e-05
3.17679e-05
3.21402e-05
2.27077e-05
2.26905e-05
2.36723e-05
2.36633e-05
2.27026e-05
2.36508e-05
2.36696e-05
3.17767e-05
3.21425e-05
2.26782e-05
2.36585e-05
2.36534e-05
3.2148e-05
3.24304e-05
3.38855e-05
2.42139e-05
2.41976e-05
2.62472e-05
2.62394e-05
3.24182e-05
3.38803e-05
2.42042e-05
2.41983e-05
2.62386e-05
2.62393e-05
2.42032e-05
2.62315e-05
2.62412e-05
3.24192e-05
3.38806e-05
2.4189e-05
2.62341e-05
2.62307e-05
3.38827e-05
3.42971e-05
3.61389e-05
2.69985e-05
2.6992e-05
2.93676e-05
2.93636e-05
3.42925e-05
3.61368e-05
2.699e-05
2.69921e-05
2.93603e-05
2.93654e-05
2.69937e-05
2.9359e-05
2.93663e-05
3.42928e-05
3.61383e-05
2.69839e-05
2.93617e-05
2.93584e-05
3.61389e-05
3.66052e-05
3.87336e-05
3.02073e-05
3.02039e-05
3.27688e-05
3.2766e-05
3.66036e-05
3.87332e-05
3.02003e-05
3.0206e-05
3.27627e-05
3.27688e-05
3.02068e-05
3.27641e-05
3.27687e-05
3.6605e-05
3.87352e-05
3.01994e-05
3.27674e-05
3.27628e-05
3.8734e-05
3.91988e-05
4.08212e-05
3.35657e-05
3.35628e-05
3.55317e-05
3.55282e-05
3.91985e-05
4.08201e-05
3.35598e-05
3.35656e-05
3.55271e-05
3.55315e-05
3.35656e-05
3.55283e-05
3.55322e-05
3.92002e-05
4.08225e-05
3.35601e-05
3.55315e-05
3.55278e-05
4.08221e-05
4.11137e-05
4.19219e-05
3.60272e-05
3.60235e-05
3.70865e-05
3.70825e-05
4.11124e-05
4.19203e-05
3.60229e-05
3.60269e-05
3.7083e-05
3.70861e-05
3.60279e-05
3.70839e-05
3.70875e-05
4.11148e-05
4.19233e-05
3.60238e-05
3.70871e-05
3.7084e-05
4.19238e-05
4.20746e-05
4.23941e-05
3.73223e-05
3.73182e-05
3.77824e-05
3.77783e-05
4.20731e-05
4.23926e-05
3.73189e-05
3.73219e-05
3.77794e-05
3.77821e-05
3.73233e-05
3.77803e-05
3.77835e-05
4.20759e-05
4.23957e-05
3.73201e-05
3.77836e-05
3.77805e-05
4.23959e-05
4.24749e-05
4.25805e-05
3.78749e-05
3.78708e-05
3.80444e-05
3.80403e-05
4.24734e-05
4.25791e-05
3.78719e-05
3.78745e-05
3.80415e-05
3.80441e-05
3.78759e-05
3.80427e-05
3.80452e-05
4.24764e-05
4.25821e-05
3.78731e-05
3.80461e-05
3.80425e-05
4.25819e-05
4.26294e-05
4.26497e-05
3.80776e-05
3.80735e-05
3.81384e-05
3.81343e-05
4.26281e-05
4.26485e-05
3.80746e-05
3.80772e-05
3.81355e-05
3.81381e-05
3.80782e-05
3.81369e-05
3.81389e-05
4.2631e-05
4.26513e-05
3.80756e-05
3.81401e-05
3.81365e-05
4.2651e-05
4.26866e-05
4.26754e-05
3.8149e-05
3.81449e-05
3.81601e-05
3.81559e-05
4.26855e-05
4.26743e-05
3.8146e-05
3.81486e-05
3.81571e-05
3.81596e-05
3.81496e-05
3.81584e-05
3.81608e-05
4.26881e-05
4.26769e-05
3.81471e-05
3.81616e-05
3.81582e-05
4.26768e-05
4.2708e-05
4.26535e-05
3.81598e-05
3.81556e-05
3.81548e-05
3.81504e-05
4.27069e-05
4.26519e-05
3.81568e-05
3.81593e-05
3.81518e-05
3.81543e-05
3.81606e-05
3.8153e-05
3.81554e-05
4.27094e-05
4.26551e-05
3.8158e-05
3.81562e-05
3.81529e-05
4.26552e-05
4.26826e-05
4.26656e-05
3.81546e-05
3.81502e-05
3.81599e-05
3.81554e-05
4.2681e-05
4.26643e-05
3.81516e-05
3.81541e-05
3.81568e-05
3.81595e-05
3.81553e-05
3.81582e-05
3.81605e-05
4.2684e-05
4.26673e-05
3.81527e-05
3.81616e-05
3.81579e-05
4.2667e-05
4.27007e-05
4.26743e-05
3.81618e-05
3.81573e-05
3.81623e-05
3.81578e-05
4.26995e-05
4.26726e-05
3.81587e-05
3.81613e-05
3.81592e-05
3.81617e-05
3.81623e-05
3.81605e-05
3.81625e-05
4.27023e-05
4.26753e-05
3.81598e-05
3.81637e-05
3.81601e-05
4.26743e-05
4.27017e-05
4.26506e-05
3.81597e-05
3.81552e-05
3.81567e-05
3.81521e-05
4.26999e-05
4.26494e-05
3.81566e-05
3.8159e-05
3.81534e-05
3.81561e-05
3.816e-05
3.81549e-05
3.81575e-05
4.27025e-05
4.26525e-05
3.81574e-05
3.81582e-05
3.81548e-05
4.26532e-05
4.26847e-05
4.26765e-05
3.81579e-05
3.81534e-05
3.81609e-05
3.81565e-05
4.26838e-05
4.26751e-05
3.81547e-05
3.81573e-05
3.81577e-05
3.81602e-05
3.81588e-05
3.81592e-05
3.81614e-05
4.26873e-05
4.26779e-05
3.81563e-05
3.81624e-05
3.81589e-05
4.26771e-05
4.27069e-05
4.26526e-05
3.81596e-05
3.81549e-05
3.81586e-05
3.81539e-05
4.27053e-05
4.2651e-05
3.81563e-05
3.81589e-05
3.81554e-05
3.81581e-05
3.81601e-05
3.81563e-05
3.8159e-05
4.27076e-05
4.26546e-05
3.81573e-05
3.816e-05
3.81567e-05
4.26559e-05
4.26877e-05
4.26716e-05
3.81593e-05
3.81547e-05
3.81592e-05
3.81545e-05
4.26866e-05
4.26702e-05
3.81562e-05
3.81588e-05
3.81559e-05
3.81584e-05
3.81601e-05
3.81572e-05
3.81596e-05
4.26904e-05
4.26721e-05
3.81576e-05
3.81606e-05
3.8157e-05
4.26697e-05
4.26984e-05
4.26648e-05
3.81592e-05
3.81544e-05
3.81597e-05
3.81546e-05
4.26971e-05
4.26622e-05
3.81558e-05
3.81584e-05
3.81564e-05
3.81589e-05
3.81595e-05
3.81571e-05
3.81602e-05
4.26988e-05
4.26672e-05
3.8157e-05
3.81608e-05
3.81576e-05
4.26685e-05
4.27012e-05
4.26559e-05
3.81593e-05
3.81544e-05
3.81592e-05
3.81545e-05
4.2699e-05
4.26553e-05
3.8156e-05
3.81586e-05
3.81558e-05
3.81585e-05
3.81598e-05
3.81572e-05
3.81599e-05
4.27031e-05
4.26572e-05
3.81572e-05
3.81606e-05
3.81573e-05
4.26573e-05
4.26864e-05
4.2668e-05
3.81598e-05
3.81551e-05
3.81589e-05
3.81542e-05
4.26848e-05
4.26704e-05
3.81564e-05
3.81588e-05
3.81556e-05
3.81583e-05
3.81602e-05
3.81571e-05
3.81593e-05
4.26877e-05
4.26699e-05
3.81576e-05
3.81603e-05
3.81568e-05
4.26676e-05
4.26948e-05
4.2672e-05
3.81588e-05
3.81539e-05
3.816e-05
3.81554e-05
4.26982e-05
4.26673e-05
3.81555e-05
3.81583e-05
3.81565e-05
3.8159e-05
3.81594e-05
3.81577e-05
3.81606e-05
4.26967e-05
4.2673e-05
3.81568e-05
3.8161e-05
3.81579e-05
4.26746e-05
4.27041e-05
4.26625e-05
3.81592e-05
3.81549e-05
3.81596e-05
3.81544e-05
4.27018e-05
4.26557e-05
3.81557e-05
3.81582e-05
3.81564e-05
3.8159e-05
3.81595e-05
3.81575e-05
3.81602e-05
4.27049e-05
4.26663e-05
3.81568e-05
3.81612e-05
3.81577e-05
4.26619e-05
4.27e-05
4.26553e-05
3.81599e-05
3.81552e-05
3.81589e-05
3.8154e-05
4.26933e-05
4.26558e-05
3.81565e-05
3.8159e-05
3.81555e-05
3.81584e-05
3.81606e-05
3.81568e-05
3.81594e-05
4.27027e-05
4.26578e-05
3.8158e-05
3.81603e-05
3.81568e-05
4.26592e-05
4.26875e-05
4.26633e-05
3.81591e-05
3.81541e-05
3.81593e-05
3.81548e-05
4.26855e-05
4.26659e-05
3.81558e-05
3.81587e-05
3.81558e-05
3.81585e-05
3.81596e-05
3.81573e-05
3.81598e-05
4.26937e-05
4.26597e-05
3.81571e-05
3.81603e-05
3.81571e-05
4.26701e-05
4.26909e-05
4.26711e-05
3.81593e-05
3.81544e-05
3.81593e-05
3.81547e-05
4.26928e-05
4.26703e-05
3.81558e-05
3.81588e-05
3.81558e-05
3.81583e-05
3.81595e-05
3.81576e-05
3.81603e-05
4.26894e-05
4.26654e-05
3.81567e-05
3.81608e-05
3.81578e-05
4.26733e-05
4.26995e-05
4.26692e-05
3.81593e-05
3.81547e-05
3.81596e-05
3.81545e-05
4.27026e-05
4.26584e-05
3.81557e-05
3.81584e-05
3.81563e-05
3.81586e-05
3.81603e-05
3.8157e-05
3.81595e-05
4.26931e-05
4.26663e-05
3.81577e-05
3.81605e-05
3.8157e-05
4.26601e-05
4.27014e-05
4.26701e-05
3.81594e-05
3.81545e-05
3.81597e-05
3.81548e-05
4.2694e-05
4.26629e-05
3.8156e-05
3.81583e-05
3.81562e-05
3.81591e-05
3.81597e-05
3.81573e-05
3.81598e-05
4.26934e-05
4.2673e-05
3.81573e-05
3.81611e-05
3.81571e-05
4.26581e-05
4.26993e-05
4.26708e-05
3.8159e-05
3.81544e-05
3.81603e-05
3.81554e-05
4.26909e-05
4.2673e-05
3.81556e-05
3.81583e-05
3.81569e-05
3.81592e-05
3.81598e-05
3.81582e-05
3.81605e-05
4.26999e-05
4.267e-05
3.81571e-05
3.81616e-05
3.81579e-05
4.26734e-05
4.27054e-05
4.26536e-05
3.81605e-05
3.81551e-05
3.81587e-05
3.81543e-05
4.27042e-05
4.2655e-05
3.81569e-05
3.81595e-05
3.81553e-05
3.81581e-05
3.81598e-05
3.81569e-05
3.81597e-05
4.27048e-05
4.26577e-05
3.81573e-05
3.81602e-05
3.81575e-05
4.26683e-05
4.26851e-05
4.26721e-05
3.81591e-05
3.81554e-05
3.81596e-05
3.81542e-05
4.26934e-05
4.26614e-05
3.81557e-05
3.81583e-05
3.8156e-05
3.81587e-05
3.81606e-05
3.81567e-05
3.81597e-05
4.2689e-05
4.267e-05
3.8158e-05
3.81607e-05
3.81569e-05
4.26567e-05
4.26994e-05
4.2668e-05
3.81592e-05
3.81539e-05
3.81595e-05
3.81552e-05
4.2689e-05
4.26694e-05
3.81557e-05
3.81586e-05
3.81562e-05
3.81586e-05
3.81595e-05
3.81582e-05
3.816e-05
4.27016e-05
4.26623e-05
3.81571e-05
3.81606e-05
3.81572e-05
4.26675e-05
4.2703e-05
4.26563e-05
3.81595e-05
3.81553e-05
3.81594e-05
3.81544e-05
4.27037e-05
4.26529e-05
3.81561e-05
3.81587e-05
3.81559e-05
3.81585e-05
3.816e-05
3.81569e-05
3.81598e-05
4.27005e-05
4.26572e-05
3.81569e-05
3.81605e-05
3.81578e-05
4.26741e-05
4.26932e-05
4.26582e-05
3.81595e-05
3.81546e-05
3.81593e-05
3.81551e-05
4.26853e-05
4.26665e-05
3.81562e-05
3.81586e-05
3.81558e-05
3.81586e-05
3.81597e-05
3.81577e-05
3.81602e-05
4.26885e-05
4.26665e-05
3.81573e-05
3.81607e-05
3.81576e-05
4.26637e-05
4.26875e-05
4.26681e-05
3.81593e-05
3.81544e-05
3.81594e-05
3.81551e-05
4.26934e-05
4.2669e-05
3.81558e-05
3.81584e-05
3.8156e-05
3.81591e-05
3.81602e-05
3.81574e-05
3.81596e-05
4.26936e-05
4.26739e-05
3.81579e-05
3.81607e-05
3.81568e-05
4.26576e-05
4.2695e-05
4.26716e-05
3.81597e-05
3.81556e-05
3.81594e-05
3.81545e-05
4.27019e-05
4.26645e-05
3.81559e-05
3.81591e-05
3.81558e-05
3.81586e-05
3.81603e-05
3.81572e-05
3.81593e-05
4.27048e-05
4.26683e-05
3.81574e-05
3.81606e-05
3.8157e-05
4.26668e-05
4.27025e-05
4.26677e-05
3.81592e-05
3.81545e-05
3.81603e-05
3.81552e-05
4.27e-05
4.26591e-05
3.81558e-05
3.8159e-05
3.81555e-05
3.81585e-05
3.81593e-05
3.81577e-05
3.81599e-05
4.27036e-05
4.26601e-05
3.8157e-05
3.81608e-05
3.8157e-05
4.26732e-05
4.27026e-05
4.26586e-05
3.81602e-05
3.81554e-05
3.81591e-05
3.81543e-05
4.26976e-05
4.26547e-05
3.81557e-05
3.81591e-05
3.81553e-05
3.81583e-05
3.81598e-05
3.81569e-05
3.81593e-05
4.26985e-05
4.26581e-05
3.8157e-05
3.81605e-05
3.81569e-05
4.26676e-05
4.26966e-05
4.2656e-05
3.81601e-05
3.8155e-05
3.8159e-05
3.81546e-05
4.26847e-05
4.26682e-05
3.81555e-05
3.81584e-05
3.81552e-05
3.81589e-05
3.81595e-05
3.81569e-05
3.81591e-05
4.26875e-05
4.26733e-05
3.81571e-05
3.81609e-05
3.81569e-05
4.26609e-05
4.26874e-05
4.26619e-05
3.81592e-05
3.81546e-05
3.8159e-05
3.81547e-05
4.2695e-05
4.26693e-05
3.81554e-05
3.81588e-05
3.81552e-05
3.81584e-05
3.81594e-05
3.81569e-05
3.81591e-05
4.27004e-05
4.267e-05
3.81571e-05
3.81604e-05
3.81567e-05
4.26579e-05
4.26898e-05
4.26709e-05
3.81591e-05
3.81548e-05
3.8159e-05
3.81544e-05
4.27021e-05
4.26624e-05
3.81554e-05
3.81588e-05
3.81551e-05
3.81578e-05
3.81595e-05
3.81568e-05
3.8159e-05
4.27044e-05
4.26584e-05
3.81571e-05
3.81597e-05
3.81563e-05
4.26587e-05
4.26988e-05
4.267e-05
3.81594e-05
3.8155e-05
3.81587e-05
3.81537e-05
4.26991e-05
4.26553e-05
3.81555e-05
3.81585e-05
3.8155e-05
3.81575e-05
3.81595e-05
3.81563e-05
3.81589e-05
4.26954e-05
4.26585e-05
3.8157e-05
3.81595e-05
3.81563e-05
4.26634e-05
4.27027e-05
4.26654e-05
3.81594e-05
3.81545e-05
3.81587e-05
3.81536e-05
4.2692e-05
4.26552e-05
3.81556e-05
3.81583e-05
3.81548e-05
3.81575e-05
3.81596e-05
3.81559e-05
3.81588e-05
4.26891e-05
4.26629e-05
3.81569e-05
3.81596e-05
3.81563e-05
4.26693e-05
4.27007e-05
4.26635e-05
3.81594e-05
3.81543e-05
3.81588e-05
3.81537e-05
4.26859e-05
4.26605e-05
3.81556e-05
3.81582e-05
3.81548e-05
3.81576e-05
3.81596e-05
3.81557e-05
3.81588e-05
4.2691e-05
4.26691e-05
3.81571e-05
3.81595e-05
3.8156e-05
4.26725e-05
4.26999e-05
4.26608e-05
3.81597e-05
3.81545e-05
3.81583e-05
3.81534e-05
4.26884e-05
4.26687e-05
3.81558e-05
3.81585e-05
3.81545e-05
3.81572e-05
3.81597e-05
3.81558e-05
3.81586e-05
4.26962e-05
4.26711e-05
3.81569e-05
3.81595e-05
3.81562e-05
4.26687e-05
4.26982e-05
4.26583e-05
3.81599e-05
3.81547e-05
3.81579e-05
3.81531e-05
4.26966e-05
4.26679e-05
3.8156e-05
3.81584e-05
3.81543e-05
3.81571e-05
3.81599e-05
3.81557e-05
3.81582e-05
4.27001e-05
4.26708e-05
3.81573e-05
3.81591e-05
3.81556e-05
4.26586e-05
4.26938e-05
4.26633e-05
3.81595e-05
3.81546e-05
3.81581e-05
3.81532e-05
4.26998e-05
4.26665e-05
3.81559e-05
3.81584e-05
3.81543e-05
3.81571e-05
3.816e-05
3.81553e-05
3.81581e-05
4.27005e-05
4.26716e-05
3.81575e-05
3.81589e-05
3.81553e-05
4.26619e-05
4.26985e-05
4.26668e-05
3.81599e-05
3.8155e-05
3.81577e-05
3.81528e-05
4.26992e-05
4.26672e-05
3.81562e-05
3.81589e-05
3.81541e-05
3.81567e-05
3.816e-05
3.81553e-05
3.8158e-05
4.27025e-05
4.26696e-05
3.81573e-05
3.81588e-05
3.81553e-05
4.26685e-05
4.27021e-05
4.26606e-05
3.81603e-05
3.81554e-05
3.81572e-05
3.81523e-05
4.27004e-05
4.26645e-05
3.81566e-05
3.81594e-05
3.81539e-05
3.81565e-05
3.81604e-05
3.8155e-05
3.81578e-05
4.27029e-05
4.2668e-05
3.81576e-05
3.81586e-05
3.81551e-05
4.26714e-05
4.26984e-05
4.26573e-05
3.81606e-05
3.81557e-05
3.8157e-05
3.81523e-05
4.26995e-05
4.26628e-05
3.81571e-05
3.81596e-05
3.81536e-05
3.81564e-05
3.8161e-05
3.81547e-05
3.81574e-05
4.27024e-05
4.26674e-05
3.81581e-05
3.81585e-05
3.81549e-05
4.26705e-05
4.26935e-05
4.26572e-05
3.81612e-05
3.81563e-05
3.81572e-05
3.81523e-05
4.26989e-05
4.26618e-05
3.81581e-05
3.81608e-05
3.81533e-05
3.8156e-05
3.81618e-05
3.81546e-05
3.81575e-05
4.27029e-05
4.26631e-05
3.81591e-05
3.81584e-05
3.81547e-05
4.26664e-05
4.26914e-05
4.26583e-05
3.81628e-05
3.81579e-05
3.81572e-05
3.81525e-05
4.26984e-05
4.26608e-05
3.8159e-05
3.81617e-05
3.81539e-05
3.81567e-05
3.81628e-05
3.81552e-05
3.81579e-05
4.27004e-05
4.26616e-05
3.81603e-05
3.81587e-05
3.8155e-05
4.26655e-05
4.26892e-05
4.26594e-05
3.81645e-05
3.81597e-05
3.81499e-05
3.8145e-05
4.26972e-05
4.2655e-05
3.81609e-05
3.81636e-05
3.81464e-05
3.81489e-05
3.81649e-05
3.81475e-05
3.815e-05
4.26969e-05
4.26579e-05
3.8162e-05
3.81511e-05
3.81472e-05
4.26597e-05
4.26874e-05
4.2333e-05
3.81552e-05
3.81505e-05
3.78079e-05
3.78019e-05
4.26879e-05
4.23291e-05
3.81519e-05
3.81544e-05
3.78059e-05
3.78046e-05
3.81556e-05
3.78072e-05
3.7806e-05
4.26896e-05
4.23324e-05
3.81527e-05
3.78101e-05
3.7805e-05
4.23307e-05
4.1985e-05
3.68577e-05
3.6852e-05
4.19826e-05
3.68566e-05
3.68547e-05
2.30729e-05
2.30747e-05
2.30734e-05
3.68556e-05
4.19849e-05
3.68553e-05
4.49916e-06
6.19707e-07
2.96692e-06
2.97047e-06
9.26099e-08
2.81679e-07
2.7403e-07
1.70873e-06
9.83358e-08
3.43286e-07
1.71743e-06
4.88519e-07
3.71063e-07
4.01195e-07
3.72012e-07
2.97358e-07
4.96827e-06
2.6212e-07
6.6463e-06
1.41004e-05
2.1749e-05
3.04436e-07
4.94022e-06
2.69034e-07
6.60794e-06
1.6425e-06
1.65842e-06
1.65379e-06
1.63379e-06
1.62795e-06
1.64334e-06
1.63904e-06
9.74474e-08
5.71147e-07
7.27777e-07
2.9123e-07
9.64174e-08
5.51025e-07
7.20687e-07
1.41574e-05
2.17436e-05
1.08565e-07
7.5193e-07
7.26497e-07
3.78551e-07
1.0604e-07
7.44525e-07
6.95495e-07
1.92347e-06
1.88391e-06
3.56487e-07
1.90324e-06
1.86075e-06
4.83244e-07
9.72202e-06
4.1077e-07
1.25594e-05
3.69941e-05
4.68333e-05
4.86259e-07
9.73866e-06
4.15511e-07
1.25522e-05
1.6362e-06
1.65155e-06
1.64734e-06
1.66839e-06
1.66384e-06
1.67884e-06