/*--------------------------------*- C++ -*----------------------------------*\
| =========                 |                                                 |
| \\      /  F ield         | OpenFOAM: The Open Source CFD Toolbox           |
|  \\    /   O peration     | Version:  v2006                                 |
|   \\  /    A nd           | Website:  www.openfoam.com                      |
|    \\/     M anipulation  |                                                 |
\*---------------------------------------------------------------------------*/
FoamFile
{
    version     2.0;
    format      ascii;
    class       volScalarField;
    location    "500";
    object      nut;
}
// * * * * * * * * * * * * * * * * * * * * * * * * * * * * * * * * * * * * * //

dimensions      [0 2 -1 0 0 0 0];


internalField   nonuniform List<scalar> 
14231
(
0.00014508
0.000114415
0.000145135
0.00018983
4.92754e-05
4.14809e-05
4.64433e-05
0.00016943
5.8054e-05
2.38397e-05
4.67351e-05
4.67592e-05
2.38408e-05
4.64343e-05
4.92789e-05
0.000169433
5.80228e-05
4.10331e-05
2.02751e-05
4.92694e-05
5.65485e-05
5.61688e-05
2.02767e-05
3.66234e-05
4.09178e-05
4.13201e-05
4.64032e-05
4.13522e-05
4.58028e-05
3.66063e-05
2.3844e-05
5.06631e-05
5.23662e-05
4.63715e-05
4.65056e-05
5.22841e-05
4.65038e-05
5.14528e-05
5.06275e-05
5.24509e-05
4.63348e-05
4.65166e-05
4.65147e-05
5.22507e-05
5.15706e-05
5.74485e-05
2.16123e-05
2.16157e-05
2.16082e-05
2.16117e-05
5.81848e-05
2.38449e-05
4.92659e-05
3.66243e-05
4.09033e-05
4.54702e-05
4.13198e-05
4.55094e-05
4.13521e-05
3.6607e-05
5.78184e-05
0.00011454
8.24022e-05
8.24236e-05
8.28657e-05
8.28842e-05
5.78341e-05
0.000205607
8.02108e-05
6.56918e-05
4.62901e-05
4.88117e-05
4.86963e-05
6.58463e-05
7.9736e-05
9.5866e-05
5.81798e-05
5.47748e-05
0.000101898
5.48126e-05
0.00010239
9.51862e-05
6.57052e-05
4.62823e-05
6.58583e-05
9.58859e-05
5.8186e-05
0.000101904
5.47003e-05
9.51971e-05
0.000102397
5.4824e-05
0.000114417
0.000145095
0.000145125
0.000113166
0.000143627
0.000143656
0.00018983
4.9281e-05
4.92654e-05
4.12339e-05
2.38419e-05
2.38389e-05
4.67022e-05
4.66677e-05
4.92802e-05
4.14574e-05
4.64343e-05
0.000169433
5.80521e-05
4.92642e-05
4.6438e-05
2.38319e-05
2.38285e-05
4.68162e-05
4.67295e-05
4.67087e-05
4.66917e-05
0.000168091
5.77063e-05
4.92812e-05
2.02795e-05
5.56501e-05
4.92742e-05
2.02733e-05
5.64477e-05
3.6558e-05
4.17877e-05
4.57077e-05
4.12674e-05
3.65732e-05
4.64356e-05
4.1236e-05
2.38459e-05
2.38432e-05
5.05368e-05
5.2371e-05
4.622e-05
4.65168e-05
4.6515e-05
5.22716e-05
5.13409e-05
5.05682e-05
5.23458e-05
4.62308e-05
4.65042e-05
4.65026e-05
5.22783e-05
5.13484e-05
5.72311e-05
2.16151e-05
2.16117e-05
2.161e-05
2.16067e-05
5.80204e-05
2.02751e-05
4.92706e-05
5.65389e-05
2.02784e-05
5.59104e-05
3.66254e-05
4.08317e-05
4.13204e-05
4.63269e-05
3.66086e-05
4.13524e-05
4.54442e-05
4.9264e-05
2.38277e-05
2.38247e-05
5.19319e-05
5.24406e-05
4.65174e-05
4.69766e-05
5.17529e-05
4.65184e-05
5.2483e-05
5.19467e-05
5.24123e-05
4.65048e-05
4.69771e-05
5.17618e-05
4.65059e-05
5.24529e-05
5.80553e-05
2.1614e-05
2.16106e-05
5.81531e-05
2.16139e-05
2.16106e-05
5.78258e-05
0.000114546
8.24236e-05
8.24061e-05
8.28901e-05
8.28741e-05
5.7821e-05
5.77263e-05
8.18109e-05
8.17928e-05
0.000112982
5.77622e-05
8.14007e-05
8.13814e-05
0.000205608
0.000216982
0.00020561
0.000216979
8.02263e-05
6.5704e-05
4.62846e-05
4.87695e-05
6.58578e-05
4.86678e-05
7.97437e-05
9.58765e-05
5.81765e-05
5.47378e-05
0.000101897
5.47847e-05
0.000102392
9.51854e-05
6.56965e-05
4.62942e-05
6.58519e-05
7.97289e-05
6.52883e-05
4.68522e-05
6.51452e-05
7.86855e-05
6.5274e-05
4.87226e-05
4.68321e-05
4.88281e-05
7.9123e-05
6.51301e-05
9.39126e-05
5.75903e-05
5.44497e-05
0.000101173
5.439e-05
9.46089e-05
0.000100646
0.000193277
0.000149636
0.000149635
0.000118809
0.000120362
0.000151158
0.000151145
0.00012036
0.000151187
0.000151146
0.000151192
0.000151152
0.000120356
0.000151188
0.000151184
0.00012035
0.000118824
0.000149612
0.00014961
0.000118821
0.00014964
0.000149603
0.000149606
0.000118816
0.000149633
0.000194423
0.000194421
0.000194418
0.000194418
4.00851e-05
4.92416e-05
3.90947e-05
4.92547e-05
2.38937e-05
2.38696e-05
3.99606e-05
4.92408e-05
3.92326e-05
4.92459e-05
0.000193274
0.00019327
0.00019327
5.90137e-05
4.51788e-05
0.000173547
0.000148126
5.98493e-05
4.56781e-05
0.000172164
2.3892e-05
2.38693e-05
5.89962e-05
0.000173542
4.52039e-05
0.000148117
5.98519e-05
0.000172161
4.56598e-05
4.4247e-05
4.42344e-05
0.00011733
4.5555e-05
4.55648e-05
2.39093e-05
2.39067e-05
4.41062e-05
4.4058e-05
4.92365e-05
3.89272e-05
4.92339e-05
4.92263e-05
3.89238e-05
4.49918e-05
0.000174947
6.01599e-05
0.000152719
4.49759e-05
0.000174943
4.45847e-05
6.01578e-05
2.39067e-05
2.39356e-05
0.000121832
4.40109e-05
4.39798e-05
4.32419e-05
4.32327e-05
2.39079e-05
2.3937e-05
4.92413e-05
3.89706e-05
4.49846e-05
0.000174947
6.01614e-05
4.9236e-05
3.89439e-05
0.000174939
4.49908e-05
6.01587e-05
6.12015e-05
0.000152748
4.49819e-05
0.00017495
4.45833e-05
0.000176366
6.01606e-05
3.82795e-05
4.92313e-05
4.92325e-05
3.89389e-05
6.11981e-05
0.000174945
4.4999e-05
0.000176361
6.01664e-05
3.82531e-05
4.92302e-05
3.89857e-05
2.39063e-05
4.42837e-05
4.43191e-05
2.39084e-05
0.000174949
4.49955e-05
6.01626e-05
0.000174946
4.49983e-05
6.01585e-05
4.92396e-05
3.89666e-05
4.92291e-05
3.8948e-05
4.42395e-05
4.42405e-05
2.39077e-05
2.39064e-05
2.38956e-05
2.38725e-05
2.38931e-05
2.38696e-05
4.42712e-05
4.42946e-05
0.000117348
4.53979e-05
4.53769e-05
2.38604e-05
2.38578e-05
0.000115944
4.54982e-05
4.54989e-05
4.00304e-05
4.92404e-05
3.91632e-05
4.92457e-05
5.90113e-05
4.51844e-05
0.000173546
0.000148086
5.98484e-05
4.5678e-05
0.00017216
5.90038e-05
4.51877e-05
0.000173543
0.000148073
5.98491e-05
4.56762e-05
0.000172156
4.01503e-05
4.92554e-05
4.01223e-05
4.92475e-05
5.86902e-05
0.00014658
4.5906e-05
0.000170789
5.86841e-05
0.000146578
4.58873e-05
0.000170785
4.44286e-05
4.43605e-05
0.000117351
4.52666e-05
4.53389e-05
2.38947e-05
2.38713e-05
2.38575e-05
0.000115944
4.53877e-05
4.54027e-05
2.38589e-05
5.89947e-05
4.51934e-05
0.000173544
0.000148116
5.98525e-05
4.56653e-05
0.000172159
3.99918e-05
4.92353e-05
3.92365e-05
4.92479e-05
5.89987e-05
0.000173539
4.51982e-05
0.000148073
5.98514e-05
0.000172151
4.56632e-05
4.02537e-05
4.92565e-05
5.86812e-05
0.000146609
4.58909e-05
0.000170788
4.02859e-05
4.9257e-05
5.86868e-05
0.000146574
0.000170785
4.59092e-05
4.01772e-05
4.92375e-05
3.91675e-05
4.92518e-05
5.90162e-05
0.000173542
4.51866e-05
0.000148079
5.98524e-05
0.000172158
4.56653e-05
4.02219e-05
4.92322e-05
3.91541e-05
4.92551e-05
5.86933e-05
0.000146601
4.58985e-05
0.00017079
4.02712e-05
4.92515e-05
5.86991e-05
0.000146578
0.000170787
4.59096e-05
4.03805e-05
4.92547e-05
4.42547e-05
4.42921e-05
0.000117341
4.55503e-05
4.55541e-05
2.38939e-05
2.3871e-05
2.38579e-05
0.000115934
4.5711e-05
4.57357e-05
2.38596e-05
5.9005e-05
0.000173542
4.51863e-05
0.000148114
5.98468e-05
0.000172159
4.56673e-05
3.9979e-05
4.92388e-05
3.9194e-05
4.9254e-05
4.00419e-05
4.92307e-05
3.91272e-05
4.92525e-05
5.86878e-05
0.000146603
0.000170785
4.5909e-05
5.86912e-05
0.000146605
0.000170787
4.59079e-05
4.03296e-05
4.9262e-05
4.02984e-05
4.92516e-05
2.38934e-05
2.38709e-05
2.3892e-05
2.38695e-05
0.000115935
4.55906e-05
4.55764e-05
2.38589e-05
2.38575e-05
3.67382e-05
3.97765e-05
4.1498e-05
4.43271e-05
4.15328e-05
4.40385e-05
3.67186e-05
2.02694e-05
5.35114e-05
4.92515e-05
2.02658e-05
5.42666e-05
3.67796e-05
3.95741e-05
4.16279e-05
4.28485e-05
3.68008e-05
4.1591e-05
4.3704e-05
2.02684e-05
5.44618e-05
4.92537e-05
5.44603e-05
2.02695e-05
2.38882e-05
2.38752e-05
3.67373e-05
3.96812e-05
4.40532e-05
4.14963e-05
4.34799e-05
4.15323e-05
3.67176e-05
2.02656e-05
5.37066e-05
4.92404e-05
2.0265e-05
5.3592e-05
3.67783e-05
3.94854e-05
4.31706e-05
4.16272e-05
3.67999e-05
4.33961e-05
4.159e-05
2.02654e-05
5.44576e-05
4.92404e-05
5.36385e-05
2.02703e-05
2.38864e-05
2.38742e-05
5.57663e-05
2.16018e-05
2.15984e-05
2.16013e-05
2.1598e-05
5.57541e-05
4.88648e-05
5.22529e-05
4.65287e-05
4.46276e-05
4.79727e-05
5.22484e-05
4.65266e-05
4.89052e-05
5.22398e-05
4.65171e-05
4.46177e-05
4.7977e-05
5.2237e-05
4.6515e-05
5.52298e-05
2.15926e-05
2.15893e-05
5.38317e-05
2.16011e-05
2.15977e-05
4.94203e-05
4.65213e-05
4.50516e-05
5.22769e-05
5.2245e-05
4.65244e-05
4.96879e-05
4.94491e-05
4.65093e-05
4.50741e-05
5.22761e-05
5.22392e-05
4.65131e-05
4.97123e-05
2.39157e-05
2.3913e-05
4.79216e-05
5.23941e-05
4.37811e-05
4.65393e-05
4.65455e-05
5.24251e-05
4.81665e-05
4.79331e-05
5.23806e-05
4.37513e-05
4.65264e-05
4.65329e-05
5.24099e-05
4.81865e-05
5.39579e-05
2.15948e-05
2.15916e-05
2.15939e-05
2.15906e-05
5.39653e-05
2.02622e-05
4.92347e-05
5.28301e-05
2.02648e-05
5.23476e-05
3.68673e-05
3.86964e-05
4.16878e-05
4.25574e-05
3.68442e-05
4.1726e-05
4.21906e-05
2.02613e-05
4.9229e-05
5.30905e-05
5.23568e-05
2.02646e-05
2.02615e-05
5.19375e-05
4.92282e-05
2.02601e-05
5.21425e-05
3.68651e-05
3.86411e-05
4.16875e-05
4.25681e-05
4.17259e-05
4.20081e-05
3.6842e-05
2.39128e-05
2.39285e-05
5.35384e-05
2.15856e-05
2.15889e-05
5.25684e-05
2.15899e-05
2.15933e-05
4.78994e-05
5.23676e-05
4.36164e-05
4.65264e-05
5.23977e-05
4.65313e-05
4.80919e-05
4.7877e-05
5.23809e-05
4.36774e-05
4.65371e-05
4.6543e-05
5.24148e-05
4.80865e-05
4.75006e-05
4.65499e-05
5.2553e-05
4.36025e-05
5.25117e-05
4.69486e-05
4.65434e-05
4.75093e-05
4.65619e-05
5.25638e-05
4.36469e-05
4.69175e-05
4.6555e-05
5.25256e-05
5.37454e-05
2.15912e-05
2.15945e-05
2.15899e-05
2.15932e-05
5.38873e-05
2.39143e-05
2.39299e-05
2.02647e-05
4.92348e-05
5.37491e-05
2.02672e-05
5.3134e-05
3.68665e-05
3.87023e-05
4.30556e-05
4.16862e-05
3.6843e-05
4.23926e-05
4.17248e-05
2.02637e-05
4.92318e-05
5.34857e-05
5.31037e-05
2.02651e-05
3.68643e-05
3.87182e-05
4.1686e-05
4.30122e-05
4.17243e-05
4.24028e-05
3.68413e-05
3.69122e-05
4.17641e-05
4.18257e-05
3.84579e-05
3.69369e-05
4.20755e-05
4.17857e-05
2.02608e-05
4.92299e-05
5.25936e-05
5.21754e-05
2.02638e-05
2.02624e-05
5.23744e-05
4.9232e-05
2.02623e-05
5.23116e-05
3.68668e-05
3.86821e-05
4.24246e-05
4.16864e-05
4.20131e-05
4.17252e-05
3.68438e-05
3.69103e-05
4.18261e-05
4.15302e-05
3.84513e-05
3.69355e-05
4.1786e-05
4.2051e-05
2.0261e-05
4.92295e-05
5.27503e-05
5.25342e-05
2.02626e-05
2.02622e-05
4.92298e-05
5.24547e-05
3.68651e-05
3.87072e-05
4.16866e-05
4.26811e-05
4.17256e-05
4.23298e-05
3.68417e-05
2.39127e-05
4.76567e-05
5.23834e-05
4.39083e-05
4.65275e-05
5.24064e-05
4.65337e-05
4.81122e-05
4.76428e-05
5.23991e-05
4.39198e-05
4.65405e-05
4.65463e-05
5.24201e-05
4.80938e-05
5.33918e-05
2.15929e-05
2.15963e-05
2.15886e-05
2.15919e-05
5.43394e-05
2.39147e-05
2.02644e-05
4.92363e-05
5.34472e-05
5.3154e-05
2.02656e-05
3.68667e-05
3.87168e-05
4.29513e-05
4.16863e-05
4.24334e-05
4.17249e-05
3.68436e-05
2.02612e-05
4.92287e-05
5.26722e-05
5.25833e-05
2.02626e-05
3.68644e-05
3.87164e-05
4.25802e-05
4.16857e-05
4.23035e-05
4.17244e-05
3.68411e-05
5.40524e-05
2.15944e-05
2.15913e-05
4.77749e-05
5.23971e-05
4.38982e-05
4.65372e-05
4.77902e-05
5.24563e-05
4.65449e-05
4.77805e-05
5.23856e-05
4.39074e-05
4.65253e-05
4.77927e-05
5.24454e-05
4.65332e-05
4.80021e-05
4.35614e-05
5.25734e-05
4.65561e-05
5.37076e-05
2.15899e-05
2.15867e-05
5.34947e-05
2.15896e-05
2.15865e-05
2.39142e-05
2.39287e-05
2.39129e-05
2.38902e-05
2.3878e-05
2.38876e-05
2.38749e-05
5.5926e-05
2.16039e-05
2.16006e-05
2.16025e-05
2.15992e-05
5.60634e-05
4.87941e-05
5.23053e-05
4.65307e-05
4.48343e-05
4.83023e-05
4.65283e-05
5.23027e-05
4.88027e-05
5.22948e-05
4.65182e-05
4.48611e-05
4.8337e-05
4.6516e-05
5.22934e-05
5.52539e-05
2.15953e-05
2.1592e-05
5.426e-05
2.16007e-05
2.15974e-05
4.93628e-05
4.65207e-05
4.50963e-05
5.22938e-05
4.6524e-05
4.98206e-05
5.22846e-05
4.93716e-05
4.65087e-05
4.50847e-05
5.2281e-05
4.65119e-05
4.98296e-05
5.22718e-05
2.38558e-05
2.1603e-05
2.15996e-05
5.59776e-05
5.00784e-05
4.65154e-05
5.22636e-05
4.59035e-05
4.98424e-05
4.65148e-05
5.22732e-05
4.65031e-05
5.22562e-05
4.98794e-05
3.67359e-05
3.97143e-05
4.14978e-05
4.39863e-05
4.15329e-05
4.38723e-05
3.67163e-05
2.0267e-05
5.38092e-05
4.92457e-05
2.02651e-05
5.42355e-05
3.67771e-05
3.96171e-05
4.16277e-05
4.31566e-05
4.15907e-05
3.67986e-05
4.38521e-05
2.02653e-05
5.41145e-05
4.92454e-05
5.41403e-05
2.02666e-05
3.66615e-05
4.14414e-05
4.4337e-05
4.05693e-05
3.66796e-05
4.14077e-05
4.48625e-05
2.02734e-05
5.45196e-05
4.92602e-05
2.02692e-05
5.51689e-05
3.66596e-05
4.14414e-05
4.42177e-05
4.06265e-05
3.66776e-05
4.14074e-05
4.50335e-05
2.0274e-05
5.44034e-05
4.92583e-05
2.02674e-05
5.54021e-05
5.58128e-05
2.15987e-05
2.1602e-05
2.15982e-05
2.16016e-05
5.57705e-05
4.89292e-05
5.22978e-05
4.65196e-05
4.49772e-05
4.65172e-05
4.83493e-05
5.23041e-05
4.89246e-05
5.23002e-05
4.6531e-05
4.49604e-05
5.2311e-05
4.82925e-05
4.65287e-05
5.54414e-05
2.15925e-05
2.15958e-05
2.1598e-05
5.45169e-05
2.16014e-05
4.94304e-05
4.65061e-05
4.50629e-05
5.22803e-05
4.6511e-05
5.22849e-05
4.97228e-05
4.94237e-05
4.65174e-05
4.51184e-05
5.23034e-05
5.23037e-05
4.65229e-05
4.97326e-05
2.38894e-05
2.38769e-05
2.38535e-05
5.63474e-05
2.15983e-05
2.16017e-05
5.57611e-05
2.16032e-05
2.16065e-05
5.00572e-05
4.65023e-05
5.22313e-05
4.59601e-05
5.22489e-05
4.97318e-05
4.65029e-05
5.00182e-05
4.65134e-05
5.22326e-05
4.58885e-05
4.96527e-05
4.65135e-05
5.22441e-05
2.38546e-05
3.67355e-05
3.96923e-05
4.14961e-05
4.42974e-05
4.15317e-05
4.35244e-05
3.67159e-05
2.02646e-05
5.33759e-05
4.92357e-05
2.02633e-05
5.33963e-05
3.67766e-05
3.94451e-05
4.16267e-05
4.30422e-05
4.15898e-05
3.67979e-05
4.32381e-05
2.02655e-05
5.47937e-05
4.92376e-05
5.38026e-05
2.02714e-05
4.4727e-05
4.14402e-05
3.66793e-05
5.52844e-05
2.0272e-05
4.14396e-05
4.48717e-05
3.66771e-05
5.54851e-05
2.02721e-05
3.67379e-05
3.97464e-05
4.43909e-05
4.14961e-05
4.40502e-05
4.1532e-05
3.6718e-05
2.02699e-05
5.35098e-05
4.92491e-05
5.43646e-05
2.02654e-05
3.67789e-05
3.944e-05
4.29508e-05
4.16272e-05
4.37161e-05
3.68005e-05
4.15896e-05
2.02684e-05
5.44857e-05
4.92512e-05
5.45429e-05
2.0269e-05
3.67363e-05
3.96998e-05
4.14963e-05
4.47013e-05
4.15324e-05
4.39418e-05
3.67165e-05
2.02679e-05
5.30757e-05
4.92408e-05
2.02631e-05
5.38852e-05
3.67772e-05
3.93812e-05
4.16276e-05
4.27471e-05
3.67987e-05
4.15901e-05
4.33023e-05
2.02689e-05
5.50954e-05
4.92492e-05
5.46296e-05
2.02708e-05
3.6661e-05
4.43579e-05
4.14407e-05
4.0429e-05
3.66792e-05
4.46683e-05
4.14066e-05
2.02723e-05
5.44027e-05
4.92546e-05
2.02683e-05
5.4866e-05
3.66589e-05
4.14409e-05
4.48689e-05
4.0489e-05
3.66775e-05
4.14069e-05
4.48527e-05
2.02693e-05
5.5039e-05
4.92546e-05
2.02688e-05
5.49272e-05
5.52303e-05
2.16012e-05
2.16046e-05
2.15965e-05
2.15998e-05
5.60724e-05
4.88753e-05
5.23047e-05
4.65182e-05
4.46076e-05
4.6515e-05
4.86166e-05
5.22886e-05
4.88573e-05
5.23198e-05
4.65308e-05
4.45819e-05
5.23018e-05
4.85982e-05
4.65272e-05
5.4933e-05
2.1594e-05
2.15973e-05
2.1596e-05
5.47915e-05
2.15994e-05
4.9075e-05
4.65096e-05
4.49898e-05
5.22579e-05
4.65109e-05
5.22404e-05
4.95667e-05
4.90606e-05
4.65219e-05
4.49589e-05
5.22682e-05
5.22488e-05
4.6523e-05
4.95442e-05
2.3888e-05
2.38756e-05
2.16028e-05
2.16062e-05
5.66384e-05
4.65055e-05
5.22688e-05
5.00798e-05
5.04925e-05
4.65185e-05
5.22809e-05
4.59057e-05
5.00594e-05
4.65154e-05
5.22985e-05
2.38545e-05
3.67377e-05
3.96447e-05
4.42746e-05
4.14962e-05
4.34784e-05
4.15322e-05
3.67182e-05
2.02656e-05
5.32888e-05
4.92392e-05
5.33742e-05
2.02638e-05
3.67787e-05
3.94854e-05
4.3047e-05
4.16273e-05
4.32682e-05
3.68002e-05
4.15898e-05
2.02669e-05
5.49422e-05
4.92418e-05
5.38998e-05
2.02731e-05
3.67355e-05
3.97284e-05
4.4573e-05
4.14954e-05
4.40275e-05
4.15314e-05
3.67154e-05
2.02685e-05
5.30749e-05
4.92397e-05
2.02632e-05
5.4017e-05
3.67766e-05
3.94954e-05
4.26989e-05
4.16267e-05
3.67981e-05
4.34965e-05
4.15891e-05
2.02691e-05
5.50951e-05
4.92481e-05
5.47443e-05
2.02703e-05
3.6661e-05
4.49911e-05
4.14401e-05
4.08556e-05
3.66795e-05
4.55768e-05
4.14058e-05
2.02739e-05
5.55849e-05
4.92649e-05
2.02732e-05
5.58177e-05
3.66583e-05
4.4725e-05
4.14397e-05
4.07419e-05
3.66767e-05
4.49324e-05
4.14054e-05
2.02686e-05
5.49619e-05
4.92514e-05
2.02681e-05
5.48533e-05
2.38878e-05
2.38758e-05
2.38864e-05
2.38745e-05
5.63172e-05
2.16015e-05
2.15982e-05
5.57219e-05
2.1607e-05
2.16036e-05
5.0047e-05
4.65145e-05
5.22562e-05
4.58105e-05
4.96455e-05
5.22721e-05
4.65133e-05
5.00583e-05
4.65026e-05
5.22395e-05
4.57849e-05
4.96269e-05
5.22543e-05
4.65014e-05
2.38539e-05
2.38525e-05
0.00020823
0.000208235
0.000192128
0.000207358
0.000207364
0.000218124
0.000218683
5.84335e-05
8.63719e-05
8.63562e-05
0.000118821
5.85093e-05
8.57192e-05
8.57035e-05
5.90131e-05
0.000120309
8.69559e-05
8.69375e-05
8.76306e-05
8.76116e-05
5.89009e-05
5.90081e-05
0.000120308
8.69348e-05
8.69541e-05
8.7609e-05
8.76288e-05
5.88917e-05
5.90058e-05
0.000120305
8.69384e-05
8.69591e-05
8.76135e-05
8.76339e-05
5.8897e-05
5.90704e-05
0.000120301
8.6962e-05
8.69461e-05
5.88929e-05
8.76496e-05
8.76362e-05
5.85371e-05
8.63866e-05
8.63696e-05
0.000118848
5.8622e-05
8.57664e-05
8.57492e-05
5.85417e-05
8.63653e-05
8.6385e-05
0.000118846
8.5765e-05
5.86171e-05
8.57469e-05
5.85371e-05
8.63636e-05
8.63835e-05
0.000118838
8.57567e-05
5.86368e-05
8.57369e-05
0.000209096
0.000209102
0.000219231
0.000209095
0.000209101
0.00021923
0.000209092
0.0002091
0.000219229
0.000209093
0.000209099
0.000219229
0.000208228
0.000208234
0.000192128
0.000207357
0.000207364
0.000218124
0.000218682
0.000208226
0.000208231
0.000192124
0.000207354
0.000207362
0.000218122
0.00021868
0.000208225
0.000208231
0.000192123
0.000207355
0.000207361
0.000218122
0.00021868
0.000190984
0.000206485
0.000206491
0.000217558
0.00019098
0.000206484
0.00020649
0.000217558
0.000190977
0.000206483
0.000206487
0.000217556
0.000190978
0.000206481
0.000206488
0.000217555
9.84868e-05
5.92462e-05
5.54091e-05
0.000104494
5.5525e-05
0.000104938
9.78329e-05
8.314e-05
6.78808e-05
4.82856e-05
4.53102e-05
8.37898e-05
6.75883e-05
4.8356e-05
9.92013e-05
5.95556e-05
5.59056e-05
0.000106263
9.98436e-05
5.5799e-05
0.000105836
8.25481e-05
4.84445e-05
4.55513e-05
6.69163e-05
6.71556e-05
4.84335e-05
8.19635e-05
9.84931e-05
5.92422e-05
0.000104488
5.53715e-05
0.000104941
5.54641e-05
9.78213e-05
8.31577e-05
6.78845e-05
4.83556e-05
4.53177e-05
8.3804e-05
6.75935e-05
4.83457e-05
9.92157e-05
5.95582e-05
0.000106263
5.5948e-05
9.98521e-05
0.00010584
5.58043e-05
8.25594e-05
4.84254e-05
4.55265e-05
6.69067e-05
6.71502e-05
4.83358e-05
8.19666e-05
5.82759e-05
0.000117342
8.45885e-05
8.45741e-05
8.51395e-05
8.5125e-05
5.82295e-05
8.50861e-05
6.83191e-05
4.4883e-05
4.83174e-05
6.86564e-05
4.83169e-05
8.43839e-05
0.000101239
6.05041e-05
5.62615e-05
0.000107222
5.64116e-05
0.000107622
0.000100632
8.50732e-05
6.83014e-05
4.48671e-05
4.8326e-05
4.83031e-05
6.86394e-05
8.43748e-05
8.56574e-05
4.84122e-05
6.94601e-05
4.469e-05
8.6413e-05
4.8386e-05
6.90756e-05
0.000101232
6.05014e-05
5.62525e-05
0.000107219
5.63936e-05
0.000107621
0.000100622
5.9306e-05
0.000121899
8.89152e-05
8.89316e-05
8.81762e-05
5.94327e-05
8.81946e-05
8.50769e-05
6.83079e-05
4.48727e-05
4.84497e-05
6.86435e-05
4.83858e-05
8.43885e-05
0.000101226
6.04979e-05
5.62978e-05
0.000107212
5.64247e-05
0.000107614
0.000100621
8.50695e-05
6.83014e-05
4.48717e-05
4.84043e-05
4.83812e-05
6.86356e-05
8.43794e-05
0.000101222
6.0497e-05
0.00010721
5.62884e-05
0.000107611
5.64208e-05
0.000100618
0.00010208
5.6986e-05
0.000109008
6.08121e-05
0.000102653
5.68159e-05
0.000108629
8.50981e-05
6.83192e-05
4.48781e-05
4.82853e-05
8.43857e-05
6.86582e-05
4.83029e-05
8.56872e-05
4.85167e-05
6.94759e-05
4.46933e-05
8.64346e-05
6.90937e-05
4.84653e-05
0.000101242
6.05037e-05
5.62466e-05
0.00010722
0.000100631
5.64017e-05
0.000107623
0.000102071
0.000109006
5.69542e-05
6.08093e-05
0.000102647
0.000108626
5.67985e-05
8.50909e-05
6.83185e-05
4.48884e-05
4.8322e-05
4.83466e-05
6.86581e-05
8.43819e-05
8.56754e-05
4.46831e-05
4.84347e-05
6.90933e-05
0.000101235
6.05043e-05
0.000107217
5.62727e-05
0.00010762
5.64259e-05
0.000100628
8.50844e-05
6.83201e-05
4.48748e-05
4.84119e-05
8.43912e-05
6.86546e-05
4.83986e-05
0.000101228
6.04992e-05
0.000107212
5.62954e-05
0.000100625
0.000107613
5.64306e-05
8.50839e-05
6.83105e-05
4.48877e-05
4.83354e-05
4.83596e-05
6.86485e-05
8.43847e-05
0.000101227
6.04991e-05
0.000107213
5.62657e-05
0.000107614
5.64213e-05
0.000100624
5.8339e-05
0.000117368
8.46122e-05
8.45933e-05
5.82724e-05
8.51812e-05
8.51634e-05
5.79882e-05
0.000115881
8.40173e-05
8.40003e-05
5.80627e-05
8.34964e-05
8.34803e-05
9.84957e-05
5.92538e-05
5.54111e-05
0.000104502
5.55287e-05
0.000104942
9.78379e-05
8.31482e-05
6.78806e-05
4.83243e-05
4.53109e-05
4.83771e-05
8.37936e-05
6.7588e-05
9.92086e-05
5.95652e-05
5.5914e-05
0.000106264
5.58063e-05
9.98506e-05
0.00010584
8.25558e-05
4.84517e-05
4.55467e-05
6.69146e-05
4.84328e-05
6.7153e-05
8.19683e-05
9.84922e-05
5.9254e-05
5.53833e-05
0.000104503
5.55177e-05
0.000104942
9.78324e-05
8.31451e-05
6.78657e-05
4.83702e-05
4.53215e-05
8.37862e-05
4.84051e-05
6.75768e-05
9.9205e-05
5.95697e-05
5.59354e-05
0.000106261
9.98413e-05
5.58236e-05
0.000105839
8.25511e-05
4.83966e-05
4.55568e-05
6.69016e-05
4.83993e-05
8.19566e-05
6.7142e-05
9.64941e-05
5.51066e-05
0.000103658
5.84903e-05
9.71758e-05
5.50092e-05
0.000103188
8.08305e-05
4.84579e-05
6.64741e-05
4.6037e-05
6.62878e-05
8.13703e-05
4.8522e-05
9.64787e-05
5.50695e-05
0.000103655
5.8493e-05
9.71633e-05
5.49913e-05
0.000103184
8.08124e-05
4.83968e-05
6.64623e-05
4.60234e-05
8.13559e-05
4.84915e-05
6.62731e-05
5.83513e-05
0.000117367
8.45943e-05
8.46132e-05
8.51815e-05
8.51625e-05
5.82704e-05
5.79603e-05
0.00011588
8.39993e-05
8.40185e-05
8.3474e-05
5.80311e-05
8.34921e-05
9.84931e-05
5.92451e-05
5.53518e-05
0.000104495
5.54643e-05
0.000104946
9.78204e-05
8.31588e-05
6.78739e-05
4.842e-05
4.53202e-05
4.83928e-05
8.38005e-05
6.75839e-05
9.92155e-05
5.95623e-05
5.59646e-05
0.000106263
5.58195e-05
9.98501e-05
0.000105843
8.25567e-05
4.83604e-05
4.55435e-05
6.68998e-05
4.83137e-05
6.71426e-05
8.19547e-05
9.84894e-05
5.92451e-05
0.000104493
5.53728e-05
0.000104943
5.54662e-05
9.78211e-05
8.31485e-05
6.78675e-05
4.83614e-05
4.53157e-05
8.3793e-05
4.83497e-05
6.7578e-05
9.92114e-05
5.95589e-05
0.00010626
5.5943e-05
9.98456e-05
0.000105841
5.57995e-05
8.25521e-05
4.84087e-05
4.55299e-05
6.6893e-05
4.83296e-05
8.19569e-05
6.71373e-05
5.51035e-05
0.000103647
9.71569e-05
4.84812e-05
6.64627e-05
8.13519e-05
0.000103646
5.5147e-05
9.71635e-05
4.85669e-05
6.64557e-05
8.13595e-05
9.84824e-05
5.9242e-05
0.000104488
5.54155e-05
0.000104935
5.54999e-05
9.78246e-05
8.31335e-05
6.78762e-05
4.82627e-05
4.53023e-05
6.75753e-05
8.37876e-05
4.83136e-05
9.91997e-05
5.95498e-05
0.000106263
5.59021e-05
0.000105835
9.98444e-05
5.57773e-05
8.25431e-05
4.84965e-05
4.55273e-05
6.69021e-05
6.71397e-05
4.84233e-05
8.19639e-05
9.6492e-05
5.51019e-05
0.000103656
5.84815e-05
9.71726e-05
5.4991e-05
0.000103189
8.08266e-05
4.84234e-05
6.64774e-05
4.60289e-05
8.13677e-05
6.62884e-05
4.84734e-05
9.65009e-05
0.000103653
5.51623e-05
5.84888e-05
9.71721e-05
0.000103189
5.50391e-05
8.08364e-05
4.85466e-05
6.64681e-05
4.60414e-05
8.13718e-05
4.85526e-05
6.62894e-05
5.82886e-05
0.00011736
8.45828e-05
8.46024e-05
8.51701e-05
8.51512e-05
5.82249e-05
5.80169e-05
0.00011587
8.39885e-05
8.40069e-05
8.34745e-05
5.80658e-05
8.34937e-05
9.84814e-05
5.92449e-05
0.000104488
5.54225e-05
0.000104936
5.55202e-05
9.78246e-05
8.31427e-05
6.78674e-05
4.82815e-05
4.53033e-05
6.75682e-05
8.37922e-05
4.83408e-05
9.91974e-05
5.95569e-05
0.000106261
5.58991e-05
0.000105834
9.98419e-05
5.57859e-05
8.25496e-05
4.85244e-05
4.55308e-05
6.68955e-05
6.7132e-05
4.84609e-05
8.19682e-05
9.64912e-05
0.000103645
5.51563e-05
5.85209e-05
9.71638e-05
0.000103178
5.50951e-05
8.08401e-05
4.86013e-05
6.64683e-05
4.60456e-05
8.13675e-05
6.62893e-05
4.86685e-05
9.64911e-05
0.000103647
5.51529e-05
5.85044e-05
9.7168e-05
0.00010318
5.50361e-05
8.08325e-05
4.85377e-05
6.64613e-05
4.60397e-05
8.13728e-05
4.85368e-05
6.62831e-05
5.79967e-05
0.000115874
8.40112e-05
8.39974e-05
5.80501e-05
8.35085e-05
8.34936e-05
0.000145088
0.000114413
0.00014512
0.000189826
4.12265e-05
0.000169434
5.80406e-05
4.92604e-05
4.11719e-05
0.000169428
4.64273e-05
5.80404e-05
2.38377e-05
4.65223e-05
4.65024e-05
2.38392e-05
4.64271e-05
4.92628e-05
2.38535e-05
5.62756e-05
2.16056e-05
2.16023e-05
5.01154e-05
4.59417e-05
4.65024e-05
5.22694e-05
3.66609e-05
4.07475e-05
4.55144e-05
4.14059e-05
2.02723e-05
5.55841e-05
2.0273e-05
5.56705e-05
2.02743e-05
4.9264e-05
5.57534e-05
3.66243e-05
4.10005e-05
4.57039e-05
4.13196e-05
3.6607e-05
4.56574e-05
4.13519e-05
3.66588e-05
4.07152e-05
4.14057e-05
4.5466e-05
2.02712e-05
4.92604e-05
5.55271e-05
5.56079e-05
2.02721e-05
2.02733e-05
4.92613e-05
5.57655e-05
3.66222e-05
4.10084e-05
4.13194e-05
4.55609e-05
4.13513e-05
4.55275e-05
3.66048e-05
2.38416e-05
2.38528e-05
5.67773e-05
2.16046e-05
2.1608e-05
5.06223e-05
5.23092e-05
4.59555e-05
4.6503e-05
5.2279e-05
4.65022e-05
5.0842e-05
5.05982e-05
5.23203e-05
4.59646e-05
4.65149e-05
4.65139e-05
5.22908e-05
5.08221e-05
5.05184e-05
4.58774e-05
5.22867e-05
4.65032e-05
5.67333e-05
2.16067e-05
2.16101e-05
2.16039e-05
2.16072e-05
5.70986e-05
2.38432e-05
2.02713e-05
4.92635e-05
5.54538e-05
5.56e-05
2.02717e-05
5.78466e-05
0.000114537
8.23994e-05
8.24183e-05
8.28686e-05
8.28897e-05
5.77901e-05
0.000205614
0.000205606
9.648e-05
5.85038e-05
5.50439e-05
0.000103175
8.02151e-05
4.86845e-05
4.86585e-05
8.08164e-05
4.60314e-05
6.62796e-05
4.85672e-05
9.5874e-05
5.81841e-05
5.47234e-05
0.000101904
5.48277e-05
0.000102392
9.51943e-05
9.64863e-05
5.8505e-05
0.000103176
5.50708e-05
8.02285e-05
6.56936e-05
4.62862e-05
4.87038e-05
4.86927e-05
6.58489e-05
7.97385e-05
8.08318e-05
4.60452e-05
4.86404e-05
6.62758e-05
9.58816e-05
5.81866e-05
0.000101904
5.47202e-05
0.000102391
5.48314e-05
9.51938e-05
8.02346e-05
6.57084e-05
4.62876e-05
4.86622e-05
7.97358e-05
6.58632e-05
4.86734e-05
2.34523e-05
2.345e-05
5.72237e-05
0.000185231
0.000221563
0.000202642
0.00020264
0.000179708
0.000220552
0.000193748
0.000193748
0.000167337
0.000182879
0.000204885
0.000204878
0.000182879
0.000204905
0.000204876
0.000204908
0.000204885
0.000182875
0.000204905
0.000204895
0.000182867
0.000179716
0.000202641
0.000202633
9.59083e-05
9.59086e-05
0.000179714
0.000202637
0.00020263
4.81316e-05
3.95683e-05
9.59024e-05
0.00020263
0.000195946
0.000195937
0.000179712
3.08361e-05
0.000202639
0.000195943
0.000195952
0.000170261
0.000193751
0.000193762
9.44607e-05
9.44585e-05
4.77351e-05
3.92405e-05
9.44565e-05
3.09511e-05
4.69678e-05
4.80056e-05
2.59378e-05
4.69645e-05
4.80019e-05
0.000225329
0.000225328
0.000225328
0.000225326
0.000117549
0.000209422
5.54843e-05
0.00022231
2.59368e-05
0.000117545
0.000209419
0.000222308
5.54832e-05
0.000189773
3.03031e-05
3.02975e-05
4.143e-05
4.8584e-05
4.32464e-05
4.88397e-05
2.56745e-05
2.55189e-05
4.14278e-05
4.85792e-05
4.32438e-05
4.88363e-05
0.000227039
0.000227039
0.000224433
0.000224433
0.000224431
0.000224432
0.000221559
0.000102113
5.18781e-05
0.00021777
0.000200408
0.000107377
5.00762e-05
0.000216181
2.56736e-05
2.55177e-05
0.000102111
0.000217769
5.18765e-05
0.000200405
0.000107375
0.000216177
5.00752e-05
3.01941e-05
3.0189e-05
0.000176364
3.03724e-05
3.03674e-05
0.000226477
0.000225892
0.000220552
4.77344e-05
0.000211265
9.44546e-05
0.000191599
4.66074e-05
4.77316e-05
0.000211266
9.4452e-05
3.09945e-05
3.09861e-05
2.59405e-05
2.59378e-05
0.000189785
3.03061e-05
3.02979e-05
2.57407e-05
2.58847e-05
2.57378e-05
2.5882e-05
0.000186553
3.01716e-05
3.0164e-05
3.02076e-05
3.01996e-05
4.69669e-05
4.8002e-05
0.000117552
0.000209404
5.54867e-05
0.000222308
0.000117549
0.000209397
5.54772e-05
0.000222306
4.61586e-05
4.84981e-05
4.81312e-05
4.38459e-05
4.61572e-05
4.84947e-05
4.81273e-05
4.38446e-05
0.000115371
0.000207156
5.2497e-05
0.000219325
5.47238e-05
0.000220843
0.000109274
0.000115367
0.000207148
5.24887e-05
0.000219323
5.47153e-05
0.00022084
0.000109272
0.000189785
3.02995e-05
3.0304e-05
2.59393e-05
2.57379e-05
2.58822e-05
0.000186551
3.01652e-05
3.01698e-05
3.02011e-05
3.02057e-05
2.57394e-05
2.58838e-05
0.000117544
0.000209419
5.54779e-05
0.000222308
4.6963e-05
4.79989e-05
0.000117539
0.000209395
0.000222305
5.54759e-05
4.61555e-05
4.84951e-05
4.81274e-05
4.38429e-05
0.000115366
0.000207153
5.24889e-05
0.000219324
5.47151e-05
0.00022084
0.000109269
4.61524e-05
4.84915e-05
4.81252e-05
4.38417e-05
0.000115364
0.000207145
0.000219322
5.24869e-05
0.000220837
5.47133e-05
0.000109264
4.6966e-05
4.80032e-05
0.000117546
0.000209402
0.000222306
5.54823e-05
4.69645e-05
4.80006e-05
0.000115367
0.000207158
5.2495e-05
0.000219327
5.47221e-05
0.000220841
0.000109271
4.61567e-05
4.84962e-05
4.81285e-05
4.38437e-05
0.000115364
0.000207147
0.000219323
5.24934e-05
0.00022084
5.47194e-05
0.000109268
4.61554e-05
4.84933e-05
4.81271e-05
4.38429e-05
0.00018978
3.02968e-05
3.03034e-05
2.59389e-05
2.57371e-05
2.5881e-05
0.000186549
3.01639e-05
3.01693e-05
3.01981e-05
3.02045e-05
2.5739e-05
2.58832e-05
0.000117543
0.000209411
0.000222306
5.54758e-05
4.69653e-05
4.80021e-05
4.6963e-05
4.79992e-05
0.000115365
0.000207156
0.000219324
5.24942e-05
0.000220841
5.47206e-05
0.000109268
0.000115361
0.000207154
0.000219324
5.24873e-05
0.000220837
5.47134e-05
0.000109266
4.61556e-05
4.84956e-05
4.81276e-05
4.38429e-05
4.61539e-05
4.84915e-05
4.81253e-05
4.38416e-05
2.59384e-05
2.59368e-05
0.000186545
3.01693e-05
3.0164e-05
3.02043e-05
3.01989e-05
2.57384e-05
2.58828e-05
2.57368e-05
2.58813e-05
2.5677e-05
2.55214e-05
2.56743e-05
2.55185e-05
3.01975e-05
3.01902e-05
0.000176376
3.03745e-05
3.03667e-05
2.53028e-05
2.54561e-05
2.53e-05
2.54534e-05
3.0849e-05
3.08453e-05
0.000170271
0.000173317
3.04927e-05
3.0483e-05
4.14292e-05
4.85797e-05
4.32451e-05
4.88363e-05
0.000102116
5.18798e-05
0.000217771
0.00020038
0.00010738
5.00774e-05
0.000216179
0.000102115
5.18725e-05
0.000217768
0.000200374
0.000107377
5.00673e-05
0.000216176
3.95698e-05
4.90639e-05
4.0986e-05
4.88947e-05
3.95697e-05
4.90613e-05
4.0986e-05
4.88906e-05
4.81426e-05
0.000195932
0.000212923
0.000100458
0.000198166
4.95803e-05
0.000214563
4.8141e-05