/*--------------------------------*- C++ -*----------------------------------*\
| =========                 |                                                 |
| \\      /  F ield         | OpenFOAM: The Open Source CFD Toolbox           |
|  \\    /   O peration     | Version:  v2012                                 |
|   \\  /    A nd           | Website:  www.openfoam.com                      |
|    \\/     M anipulation  |                                                 |
\*---------------------------------------------------------------------------*/
FoamFile
{
    version     2.0;
    format      ascii;
    class       volScalarField;
    location    "1700";
    object      epsilon;
}
// * * * * * * * * * * * * * * * * * * * * * * * * * * * * * * * * * * * * * //

dimensions      [0 2 -3 0 0 0 0];


internalField   nonuniform List<scalar> 
171728
(
1.99531e-09
3.34543e-09
4.83052e-09
5.294e-09
1.95493e-09
3.08827e-09
4.42187e-09
4.75062e-09
1.85426e-09
2.8298e-09
4.00911e-09
4.25864e-09
1.75537e-09
2.60139e-09
3.65751e-09
3.84205e-09
1.66629e-09
2.4027e-09
3.36001e-09
3.48731e-09
1.56359e-09
2.23762e-09
3.11326e-09
3.18982e-09
1.44875e-09
2.10563e-09
2.91538e-09
2.93918e-09
1.28721e-09
2.00797e-09
2.75924e-09
2.73731e-09
1.14011e-09
1.94213e-09
2.62821e-09
2.58092e-09
1.0185e-09
1.90705e-09
2.51989e-09
2.46298e-09
9.06336e-10
1.90307e-09
2.45478e-09
2.38215e-09
8.26095e-10
1.93142e-09
2.44211e-09
2.33913e-09
7.79011e-10
2.00276e-09
2.47846e-09
2.3351e-09
7.47634e-10
2.12832e-09
2.57501e-09
2.38099e-09
7.21882e-10
2.33065e-09
2.75446e-09
2.5062e-09
6.98965e-10
2.65033e-09
3.05303e-09
2.75488e-09
6.77983e-10
3.13072e-09
3.52391e-09
3.18375e-09
6.5975e-10
3.88242e-09
4.26057e-09
3.8795e-09
6.46101e-10
4.99788e-09
5.35901e-09
5.18395e-09
6.37452e-10
6.64382e-09
7.06706e-09
7.6944e-09
6.35111e-10
9.03999e-09
9.43484e-09
1.04672e-08
6.44308e-10
1.23069e-08
1.30399e-08
2.02329e-08
6.67784e-10
1.80628e-08
1.78695e-08
2.9588e-08
7.08495e-10
2.39568e-08
2.51295e-08
4.74503e-08
7.86676e-10
3.26751e-08
3.332e-08
7.3362e-08
8.95577e-10
4.53566e-08
4.54277e-08
1.20032e-07
1.07555e-09
5.73235e-08
5.81282e-08
1.47318e-07
1.3365e-09
7.63103e-08
7.68822e-08
2.36953e-07
1.69894e-09
9.47506e-08
9.56346e-08
2.83328e-07
2.22843e-09
1.18032e-07
1.18713e-07
3.81021e-07
2.92934e-09
1.4427e-07
1.44741e-07
4.29951e-07
3.90337e-09
1.71621e-07
1.73257e-07
5.24684e-07
5.28816e-09
2.08068e-07
2.07351e-07
5.88102e-07
7.04286e-09
2.36895e-07
2.39747e-07
6.47414e-07
9.28329e-09
2.84152e-07
2.84231e-07
7.03955e-07
1.25263e-08
3.18529e-07
3.1802e-07
7.6152e-07
1.59739e-08
3.63073e-07
3.68083e-07
8.00318e-07
1.96547e-08
4.05497e-07
4.07803e-07
8.43922e-07
2.63751e-08
4.61806e-07
4.61257e-07
8.81084e-07
3.25444e-08
4.98117e-07
5.0308e-07
9.08658e-07
4.08835e-08
5.54873e-07
5.50335e-07
9.4959e-07
5.08486e-08
5.96066e-07
6.01655e-07
9.7842e-07
6.18157e-08
6.52346e-07
6.46656e-07
1.00172e-06
7.57666e-08
6.90255e-07
6.97073e-07
1.04013e-06
9.02931e-08
7.43405e-07
7.40021e-07
1.06123e-06
1.08597e-07
7.82692e-07
7.85713e-07
1.09173e-06
1.27266e-07
8.2932e-07
8.2633e-07
1.11936e-06
1.50008e-07
8.67948e-07
8.6527e-07
1.14167e-06
1.71064e-07
9.00653e-07
9.06008e-07
1.16858e-06
2.01901e-07
9.38745e-07
9.41018e-07
1.19429e-06
2.22199e-07
9.6402e-07
9.64722e-07
1.2132e-06
2.5825e-07
1.0094e-06
1.00721e-06
1.24471e-06
2.85629e-07
1.02747e-06
1.02954e-06
1.25919e-06
3.14984e-07
1.04481e-06
1.04603e-06
1.26592e-06
3.46908e-07
1.07938e-06
1.07692e-06
1.30574e-06
3.80959e-07
1.10553e-06
1.10326e-06
1.32612e-06
4.13264e-07
1.11572e-06
1.11807e-06
1.32322e-06
4.43601e-07
1.13093e-06
1.13349e-06
1.34051e-06
4.66336e-07
1.16233e-06
1.16217e-06
1.37922e-06
5.07225e-07
1.17619e-06
1.17757e-06
1.37983e-06
5.27375e-07
1.18664e-06
1.18356e-06
1.38058e-06
5.50637e-07
1.20522e-06
1.20184e-06
1.4097e-06
5.79477e-07
1.22116e-06
1.22628e-06
1.42285e-06
6.00942e-07
1.23156e-06
1.23086e-06
1.42137e-06
6.16676e-07
1.23867e-06
1.24416e-06
1.4371e-06
6.43412e-07
1.2588e-06
1.24949e-06
1.45318e-06
6.59859e-07
1.26002e-06
1.25865e-06
1.46099e-06
6.72894e-07
1.26879e-06
1.28542e-06
1.46509e-06
6.9817e-07
1.29323e-06
1.28615e-06
1.48267e-06
7.1142e-07
1.29268e-06
1.27882e-06
1.48734e-06
7.17078e-07
1.28375e-06
1.28951e-06
1.48904e-06
7.26681e-07
1.29498e-06
1.30192e-06
1.48842e-06
7.51285e-07
1.3154e-06
1.31101e-06
1.5069e-06
7.66345e-07
1.31393e-06
1.3136e-06
1.51535e-06
7.69202e-07
1.30735e-06
1.30954e-06
1.50357e-06
7.70359e-07
1.313e-06
1.31314e-06
1.52944e-06
7.84796e-07
1.32124e-06
1.32025e-06
1.51756e-06
7.97484e-07
1.31312e-06
1.31127e-06
1.48282e-06
7.97211e-07
1.32306e-06
1.3211e-06
1.55646e-06
8.09246e-07
1.33766e-06
1.33884e-06
1.5717e-06
8.13428e-07
1.32057e-06
1.32557e-06
1.50884e-06
8.03749e-07
1.2989e-06
1.2974e-06
1.46736e-06
8.02414e-07
1.30427e-06
1.30308e-06
1.5105e-06
8.15936e-07
1.33458e-06
1.33615e-06
1.58806e-06
8.2614e-07
1.34106e-06
1.34312e-06
1.58779e-06
8.2102e-07
1.31025e-06
1.30918e-06
1.50225e-06
8.0103e-07
1.28096e-06
1.27686e-06
1.44614e-06
7.89474e-07
1.28401e-06
1.28557e-06
1.49679e-06
8.0567e-07
1.31591e-06
1.31702e-06
1.5684e-06
8.2382e-07
1.32057e-06
1.3215e-06
1.55742e-06
8.04424e-07
1.28081e-06
1.28948e-06
1.50311e-06
7.76039e-07
1.25722e-06
1.25574e-06
1.47582e-06
7.79258e-07
1.27035e-06
1.25806e-06
1.47589e-06
7.95066e-07
1.28267e-06
1.27727e-06
1.50031e-06
7.69554e-07
1.21123e-06
1.2175e-06
1.47576e-06
5.16424e-09
5.37999e-09
3.79856e-09
4.93778e-09
3.62988e-09
4.78111e-09
1.95546e-09
1.22093e-09
1.53736e-09
1.39285e-09
3.63107e-09
3.78579e-09
5.09206e-09
4.23789e-09
4.15839e-09
5.31597e-09
5.13792e-09
4.78139e-09
8.09729e-09
3.29594e-09
8.1502e-09
3.12833e-09
4.91526e-09
4.41741e-09
3.42621e-09
6.19972e-09
3.22828e-09
5.98985e-09
3.46247e-09
3.15839e-09
3.26027e-09
5.04854e-09
4.65748e-09
4.77515e-09
4.53402e-09
4.51353e-09
4.78085e-09
4.7158e-09
4.477e-09
8.16414e-09
3.05955e-09
8.25127e-09
2.8634e-09
4.38931e-09
3.95067e-09
3.15735e-09
5.89697e-09
2.96112e-09
5.6238e-09
3.1861e-09
2.89143e-09
2.97669e-09
4.58446e-09
4.26592e-09
4.41039e-09
4.10679e-09
4.1248e-09
4.28445e-09
4.42775e-09
4.29765e-09
8.29716e-09
2.80098e-09
8.45825e-09
2.6236e-09
3.92903e-09
3.57094e-09
2.90082e-09
5.53253e-09
2.7328e-09
5.24891e-09
2.91118e-09
2.65589e-09
2.72823e-09
4.2033e-09
3.92287e-09
4.0386e-09
3.74004e-09
3.7992e-09
3.8642e-09
4.2664e-09
4.233e-09
8.53239e-09
2.56837e-09
8.8899e-09
2.41415e-09
3.55448e-09
3.25225e-09
2.68072e-09
5.15439e-09
2.53607e-09
4.84374e-09
2.67141e-09
2.44929e-09
2.51269e-09
3.87845e-09
3.61203e-09
3.72492e-09
3.42995e-09
3.52142e-09
3.50562e-09
4.21709e-09
4.25e-09
9.04249e-09
2.36691e-09
9.5687e-09
2.23715e-09
3.23931e-09
2.97319e-09
2.49192e-09
4.71455e-09
2.3711e-09
4.23173e-09
2.46451e-09
2.27555e-09
2.33161e-09
3.5846e-09
3.32283e-09
3.45719e-09
3.17014e-09
3.2748e-09
3.20435e-09
4.23691e-09
4.27054e-09
9.75715e-09
2.19809e-09
1.01858e-08
2.0947e-09
2.96327e-09
2.73015e-09
2.33449e-09
4.05369e-09
2.24007e-09
3.52693e-09
2.29195e-09
2.13506e-09
2.18467e-09
3.30335e-09
3.0913e-09
3.21809e-09
2.96092e-09
3.06776e-09
2.94963e-09
4.2501e-09
4.14561e-09
1.02422e-08
2.06464e-09
1.00609e-08
1.98782e-09
2.72372e-09
2.52842e-09
2.21187e-09
3.36351e-09
2.13327e-09
2.93083e-09
2.15336e-09
2.02888e-09
2.07032e-09
3.07585e-09
2.86531e-09
3.02464e-09
2.79502e-09
2.91488e-09
2.74376e-09
4.04106e-09
3.33124e-09
9.60693e-09
1.96638e-09
7.87052e-09
1.9132e-09
2.52515e-09
2.36729e-09
2.10752e-09
2.80725e-09
2.04743e-09
2.49743e-09
2.04779e-09
1.95556e-09
1.99221e-09
2.84993e-09
2.63765e-09
2.88654e-09
2.65951e-09
2.82444e-09
2.58293e-09
3.305e-09
3.02465e-09
7.28286e-09
1.90034e-09
5.88771e-09
1.87011e-09
2.3678e-09
2.24836e-09
2.03161e-09
2.41374e-09
1.99371e-09
2.21761e-09
1.97733e-09
1.91271e-09
1.94424e-09
2.62831e-09
2.45945e-09
2.81043e-09
2.54448e-09
2.78623e-09
2.46156e-09
3.00297e-09
2.65321e-09
5.55574e-09
1.86523e-09
4.72791e-09
1.86018e-09
2.25174e-09
2.16397e-09
1.98392e-09
2.16873e-09
1.96695e-09
2.07464e-09
1.9378e-09
1.90147e-09
1.93189e-09
2.45667e-09
2.33714e-09
2.78283e-09
2.46726e-09
2.78757e-09
2.37725e-09
2.63054e-09
2.38152e-09
4.46358e-09
1.86222e-09
3.73877e-09
1.88427e-09
2.1704e-09
2.11266e-09
1.96384e-09
2.05603e-09
1.96834e-09
2.04464e-09
1.93343e-09
1.92291e-09
1.9517e-09
2.34004e-09
2.26922e-09
2.79277e-09
2.44072e-09
2.81989e-09
2.32774e-09
2.37999e-09
2.26012e-09
3.52991e-09
1.89664e-09
3.04638e-09
1.94884e-09
2.12518e-09
2.10055e-09
1.9733e-09
2.04793e-09
2.02024e-09
2.09946e-09
1.96325e-09
1.98501e-09
2.01708e-09
2.27889e-09
2.24915e-09
2.83237e-09
2.46455e-09
2.87905e-09
2.31513e-09
2.27263e-09
2.25975e-09
2.93194e-09
1.97157e-09
2.71618e-09
2.06346e-09
2.12217e-09
2.13864e-09
2.04279e-09
2.12482e-09
2.13209e-09
2.22142e-09
2.04105e-09
2.09577e-09
2.1301e-09
2.26849e-09
2.28234e-09
2.89724e-09
2.54474e-09
2.97578e-09
2.34829e-09
2.29061e-09
2.34888e-09
2.69258e-09
2.1034e-09
2.69673e-09
2.24851e-09
2.17272e-09
2.2431e-09
2.16775e-09
2.26193e-09
2.30883e-09
2.41626e-09
2.16887e-09
2.27696e-09
2.315e-09
2.31432e-09
2.38217e-09
3.01152e-09
2.69998e-09
3.16227e-09
2.45076e-09
2.40272e-09
2.54054e-09
2.72585e-09
2.31103e-09
2.91772e-09
2.54041e-09
2.30009e-09
2.44614e-09
2.36515e-09
2.47965e-09
2.58871e-09
2.71103e-09
2.37444e-09
2.55962e-09
2.60498e-09
2.43543e-09
2.57624e-09
3.22358e-09
2.96376e-09
3.4788e-09
2.65871e-09
2.63046e-09
2.9022e-09
3.00672e-09
2.6392e-09
3.32554e-09
2.9839e-09
2.54009e-09
2.81788e-09
2.67907e-09
2.80624e-09
3.01302e-09
3.16014e-09
2.69637e-09
2.99751e-09
3.04942e-09
2.66713e-09
2.93368e-09
3.5865e-09
3.38617e-09
3.95266e-09
3.0263e-09
3.04495e-09
3.55923e-09
3.46015e-09
3.12605e-09
3.99004e-09
3.66361e-09
2.96585e-09
3.46516e-09
3.15821e-09
3.3043e-09
3.68581e-09
3.83574e-09
3.19657e-09
3.66659e-09
3.70264e-09
3.08317e-09
3.56303e-09
4.10775e-09
4.04698e-09
4.65271e-09
3.64859e-09
3.79534e-09
4.72977e-09
4.19175e-09
3.8825e-09
5.0139e-09
4.66742e-09
3.73282e-09
4.55548e-09
3.88008e-09
4.04891e-09
4.72154e-09
4.86464e-09
3.92097e-09
4.65824e-09
4.73336e-09
3.80826e-09
4.67534e-09
4.79829e-09
5.04659e-09
5.61736e-09
4.80486e-09
5.16648e-09
6.47033e-09
5.32498e-09
5.00872e-09
6.46049e-09
6.14186e-09
5.0225e-09
6.46002e-09
5.03578e-09
5.18861e-09
6.141e-09
6.39803e-09
5.02166e-09
6.1328e-09
6.26622e-09
5.08065e-09
6.6984e-09
5.96581e-09
6.57976e-09
7.20723e-09
6.81615e-09
7.29138e-09
1.01402e-08
7.03384e-09
6.66415e-09
8.71263e-09
8.4282e-09
7.1616e-09
1.01038e-08
6.6788e-09
6.89178e-09
8.36709e-09
8.60282e-09
6.78374e-09
8.3875e-09
8.30315e-09
7.38306e-09
1.00335e-08
7.70055e-09
8.75337e-09
9.0959e-09
9.68732e-09
1.10316e-08
1.54883e-08
9.32166e-09
9.06557e-09
1.18669e-08
1.14421e-08
1.1134e-08
1.56248e-08
9.01278e-09
9.28371e-09
1.15664e-08
1.19065e-08
8.89987e-09
1.14438e-08
1.19124e-08
1.11221e-08
1.61285e-08
9.77766e-09
1.2052e-08
1.3958e-08
1.74712e-08
1.74479e-08
2.59269e-08
1.29261e-08
1.23217e-08
1.63818e-08
1.66731e-08
1.69796e-08
2.81479e-08
1.26021e-08
1.28894e-08
1.59887e-08
1.65262e-08
1.30083e-08
1.65614e-08
1.62265e-08
1.78801e-08
2.69601e-08
1.53596e-08
1.66287e-08
1.91396e-08
2.6997e-08
2.83223e-08
4.261e-08
1.76693e-08
1.81683e-08
2.29045e-08
2.21745e-08
3.2384e-08
4.12898e-08
1.7286e-08
1.77746e-08
2.24677e-08
2.31368e-08
1.7505e-08
2.22296e-08
2.24799e-08
2.95332e-08
4.2917e-08
2.05102e-08
2.31773e-08
2.57528e-08
4.19769e-08
4.75297e-08
6.40138e-08
2.46722e-08
2.39598e-08
3.06357e-08
3.02044e-08
4.51748e-08
6.37609e-08
2.42145e-08
2.51012e-08
3.01527e-08
3.05633e-08
2.46454e-08
2.99619e-08
3.04281e-08
4.92459e-08
6.37324e-08
2.82316e-08
3.05413e-08
3.48825e-08
6.90225e-08
7.01082e-08
1.03713e-07
3.34338e-08
3.29267e-08
4.19238e-08
4.22776e-08
6.9858e-08
1.06454e-07
3.28971e-08
3.33148e-08
4.1243e-08
4.27502e-08
3.30598e-08
4.21945e-08
4.29573e-08
6.8601e-08
1.10054e-07
3.74502e-08
4.28533e-08
4.81662e-08
1.11902e-07
1.11368e-07
1.42747e-07
4.44485e-08
4.52333e-08
5.51489e-08
5.40252e-08
1.14349e-07
1.48745e-07
4.38445e-08
4.53766e-08
5.47198e-08
5.48196e-08
4.51916e-08
5.40251e-08
5.28804e-08
1.17538e-07
1.4256e-07
5.04815e-08
5.44216e-08
5.59399e-08
1.37256e-07
1.55344e-07
2.0842e-07
5.94555e-08
5.77219e-08
7.13533e-08
7.20942e-08
1.5719e-07
2.05286e-07
5.87926e-08
5.85318e-08
7.04303e-08
7.19181e-08
5.75181e-08
7.14727e-08
7.39361e-08
1.54146e-07
2.04734e-07
5.99322e-08
7.178e-08
7.79288e-08
2.22932e-07
2.18944e-07
2.73767e-07
7.58723e-08
7.65705e-08
9.0535e-08
8.97591e-08
2.23543e-07
2.7514e-07
7.50238e-08
7.68766e-08
8.97108e-08
9.1147e-08
7.81837e-08
8.97601e-08
8.86441e-08
2.17284e-07
2.80757e-07
8.31628e-08
9.08011e-08
9.48039e-08
2.7363e-07
2.90118e-07
3.48782e-07
9.57771e-08
9.48585e-08
1.13632e-07
1.12375e-07
2.85856e-07
3.53108e-07
9.47171e-08
9.5931e-08
1.12625e-07
1.1324e-07
9.36631e-08
1.11722e-07
1.15317e-07
2.93805e-07
3.46087e-07
9.96854e-08
1.12453e-07
1.18817e-07
3.59493e-07
3.64225e-07
4.2728e-07
1.1951e-07
1.18932e-07
1.37168e-07
1.38759e-07
3.70133e-07
4.27496e-07
1.18436e-07
1.19953e-07
1.35806e-07
1.38957e-07
1.21499e-07
1.38193e-07
1.34924e-07
3.64518e-07
4.29823e-07
1.24231e-07
1.38355e-07
1.36678e-07
4.20694e-07
4.41451e-07
5.01796e-07
1.44678e-07
1.44493e-07
1.67861e-07
1.63626e-07
4.43641e-07
4.98678e-07
1.43168e-07
1.45251e-07
1.65611e-07
1.666e-07
1.41209e-07
1.63102e-07
1.67374e-07
4.43778e-07
5.00719e-07
1.41957e-07
1.65026e-07
1.64587e-07
5.02256e-07
5.19991e-07
5.70645e-07
1.74448e-07
1.72594e-07
1.99843e-07
2.01378e-07
5.13298e-07
5.76744e-07
1.73202e-07
1.74632e-07
1.97392e-07
2.00896e-07
1.74943e-07
2.00436e-07
1.97531e-07
5.17401e-07
5.7273e-07
1.72862e-07
1.99924e-07
2.00381e-07
5.76048e-07
5.8427e-07
6.407e-07
2.09458e-07
2.08623e-07
2.33678e-07
2.2819e-07
5.92013e-07
6.31778e-07
2.05316e-07
2.08719e-07
2.31815e-07
2.30872e-07
2.06705e-07
2.27582e-07
2.30617e-07
5.87005e-07
6.34622e-07
2.10662e-07
2.29364e-07
2.35519e-07
6.33295e-07
6.5393e-07
6.91896e-07
2.43193e-07
2.37876e-07
2.74701e-07
2.75028e-07
6.45426e-07
6.96129e-07
2.4223e-07
2.41053e-07
2.69286e-07
2.76758e-07
2.38861e-07
2.73837e-07
2.68912e-07
6.48186e-07
6.96668e-07
2.42072e-07
2.75125e-07
2.68184e-07
6.90146e-07
7.06268e-07
7.46345e-07
2.82966e-07
2.84997e-07
3.12354e-07
3.09079e-07
7.10686e-07
7.4554e-07
2.77158e-07
2.85928e-07
3.10606e-07
3.09651e-07
2.7924e-07
3.08243e-07
3.118e-07
7.10763e-07
7.44904e-07
2.78556e-07
3.07243e-07
3.11208e-07
7.49456e-07
7.58396e-07
7.92955e-07
3.25726e-07
3.19678e-07
3.59784e-07
3.55561e-07
7.56161e-07
7.88591e-07
3.23212e-07
3.20978e-07
3.54315e-07
3.60528e-07
3.24039e-07
3.54082e-07
3.55632e-07
7.56484e-07
7.91697e-07
3.23317e-07
3.5771e-07
3.55544e-07
7.89945e-07
8.02807e-07
8.27653e-07
3.67758e-07
3.64508e-07
3.94055e-07
3.92279e-07
8.00085e-07
8.30135e-07
3.63005e-07
3.7039e-07
3.93281e-07
3.97621e-07
3.6355e-07
3.91239e-07
3.95474e-07
8.02769e-07
8.31151e-07
3.63577e-07
3.95154e-07
3.94511e-07
8.32463e-07
8.38222e-07
8.70445e-07
4.04915e-07
4.06354e-07
4.45022e-07
4.52512e-07
8.41296e-07
8.72843e-07
4.04891e-07
4.10671e-07
4.4488e-07
4.54066e-07
4.1059e-07
4.51352e-07
4.5081e-07
8.4186e-07
8.72544e-07
4.09761e-07
4.50875e-07
4.49896e-07
8.73066e-07
8.80869e-07
9.04567e-07
4.59172e-07
4.62988e-07
4.93829e-07
4.87832e-07
8.81668e-07
9.00907e-07
4.57759e-07
4.6433e-07
4.90604e-07
4.93742e-07
4.59975e-07
4.86957e-07
4.86083e-07
8.8192e-07
9.03118e-07
4.58642e-07
4.90659e-07
4.87362e-07
8.99452e-07
9.12861e-07
9.36334e-07
5.04388e-07
4.9926e-07
5.40028e-07
5.4377e-07
9.10146e-07
9.39653e-07
5.01288e-07
5.06501e-07
5.38623e-07
5.4135e-07
4.97248e-07
5.4161e-07
5.3927e-07
9.12032e-07
9.37501e-07
4.98548e-07
5.38073e-07
5.37682e-07
9.39271e-07
9.45536e-07
9.68717e-07
5.52407e-07
5.57021e-07
5.88935e-07
5.86619e-07
9.48482e-07
9.66373e-07
5.5157e-07
5.52733e-07
5.88366e-07
5.93259e-07
5.55201e-07
5.85603e-07
5.96475e-07
9.46184e-07
9.68828e-07
5.53338e-07
5.91052e-07
5.96201e-07
9.72141e-07
9.7647e-07
9.97936e-07
6.00279e-07
5.966e-07
6.36086e-07
6.38442e-07
9.74215e-07
9.99521e-07
5.99821e-07
6.05014e-07
6.34925e-07
6.38034e-07
6.05361e-07
6.37907e-07
6.29569e-07
9.77012e-07
9.97491e-07
6.05726e-07
6.3296e-07
6.29572e-07
9.93589e-07
1.00623e-06
1.02795e-06
6.49586e-07
6.5338e-07
6.85445e-07
6.8418e-07
1.00826e-06
1.02642e-06
6.48058e-07
6.51647e-07
6.84283e-07
6.8829e-07
6.42084e-07
6.82143e-07
6.89431e-07
1.00542e-06
1.02902e-06
6.41392e-07
6.86925e-07
6.88888e-07
1.03169e-06
1.03501e-06
1.0547e-06
6.94584e-07
6.92115e-07
7.28635e-07
7.2837e-07
1.03253e-06
1.05376e-06
6.94217e-07
6.96889e-07
7.28593e-07
7.26747e-07
7.01556e-07
7.27896e-07
7.29427e-07
1.03635e-06
1.0536e-06
7.02115e-07
7.26871e-07
7.29827e-07
1.05521e-06
1.06262e-06
1.08463e-06
7.42763e-07
7.43653e-07
7.75952e-07
7.76148e-07
1.06298e-06
1.08472e-06
7.42096e-07
7.40077e-07
7.737e-07
7.79525e-07
7.40591e-07
7.75357e-07
7.732e-07
1.06119e-06
1.08619e-06
7.40303e-07
7.77581e-07
7.72406e-07
1.08377e-06
1.09087e-06
1.10931e-06
7.83804e-07
7.8377e-07
8.16539e-07
8.16675e-07
1.0903e-06
1.10949e-06
7.82134e-07
7.88611e-07
8.17046e-07
8.14587e-07
7.83755e-07
8.14982e-07
8.20795e-07
1.09271e-06
1.10762e-06
7.83047e-07
8.13349e-07
8.20342e-07
1.11246e-06
1.11736e-06
1.13775e-06
8.29981e-07
8.30657e-07
8.58065e-07
8.60341e-07
1.11843e-06
1.14035e-06
8.29997e-07
8.26666e-07
8.56194e-07
8.58935e-07
8.32526e-07
8.61714e-07
8.56744e-07
1.11457e-06
1.1378e-06
8.32397e-07
8.58397e-07
8.57942e-07
1.13615e-06
1.14273e-06
1.15998e-06
8.64482e-07
8.66456e-07
8.93936e-07
8.90615e-07
1.14492e-06
1.15771e-06
8.62771e-07
8.66312e-07
8.93383e-07
8.95313e-07
8.63536e-07
8.8997e-07
8.9302e-07
1.14394e-06
1.16152e-06
8.64533e-07
8.93159e-07
8.91155e-07
1.16108e-06
1.1684e-06
1.18891e-06
9.06584e-07
9.0172e-07
9.32764e-07
9.32626e-07
1.16507e-06
1.18759e-06
9.06197e-07
9.07907e-07
9.32048e-07
9.36043e-07
9.05424e-07
9.32256e-07
9.35894e-07
1.16943e-06
1.1908e-06
9.0286e-07
9.35794e-07
9.34099e-07
1.18883e-06
1.19314e-06
1.20496e-06
9.37828e-07
9.39762e-07
9.59274e-07
9.56739e-07
1.1926e-06
1.20416e-06
9.3694e-07
9.40813e-07
9.58081e-07
9.56238e-07
9.42582e-07
9.55364e-07
9.58928e-07
1.19505e-06
1.20304e-06
9.41049e-07
9.56433e-07
9.5809e-07
1.20774e-06
1.21224e-06
1.23733e-06
9.69586e-07
9.64816e-07
9.96473e-07
9.98021e-07
1.2104e-06
1.23783e-06
9.68668e-07
9.65073e-07
9.97017e-07
9.98761e-07
9.65895e-07
9.99106e-07
9.96885e-07
1.20863e-06
1.23843e-06
9.65509e-07
9.97437e-07
9.97929e-07
1.23679e-06
1.24218e-06
1.25109e-06
1.00204e-06
1.00823e-06
1.02111e-06
1.02569e-06
1.24528e-06
1.25774e-06
1.0023e-06
1.00781e-06
1.01888e-06
1.02337e-06
1.00786e-06
1.02534e-06
1.02541e-06
1.24582e-06
1.25598e-06
1.00898e-06
1.02436e-06
1.02646e-06
1.25709e-06
1.25623e-06
1.27308e-06
1.02811e-06
1.02828e-06
1.04454e-06
1.03886e-06
1.26031e-06
1.26329e-06
1.02646e-06
1.02861e-06
1.04581e-06
1.04461e-06
1.02717e-06
1.03834e-06
1.03523e-06
1.25949e-06
1.27083e-06
1.02837e-06
1.04242e-06
1.0364e-06
1.2611e-06
1.27772e-06
1.29147e-06
1.05031e-06
1.04523e-06
1.07222e-06
1.07123e-06
1.26787e-06
1.29499e-06
1.05009e-06
1.04875e-06
1.06942e-06
1.06858e-06
1.0417e-06
1.07068e-06
1.07319e-06
1.27531e-06
1.28797e-06
1.04224e-06
1.06671e-06
1.07133e-06
1.29633e-06
1.29783e-06
1.31164e-06
1.07836e-06
1.07983e-06
1.0922e-06
1.09862e-06
1.30282e-06
1.31809e-06
1.07761e-06
1.07805e-06
1.09438e-06
1.09795e-06
1.08472e-06
1.10029e-06
1.10385e-06
1.29535e-06
1.31686e-06
1.08274e-06
1.09959e-06
1.10256e-06
1.32357e-06
1.31563e-06
1.3293e-06
1.09805e-06
1.10385e-06
1.11911e-06
1.11521e-06
1.32234e-06
1.32784e-06
1.09815e-06
1.10119e-06
1.11537e-06
1.11452e-06
1.1061e-06
1.11404e-06
1.11054e-06
1.32052e-06
1.32623e-06
1.10455e-06
1.11433e-06
1.10776e-06
1.32162e-06
1.33486e-06
1.34169e-06
1.12422e-06
1.11758e-06
1.13059e-06
1.12649e-06
1.33014e-06
1.33476e-06
1.12202e-06
1.12007e-06
1.13237e-06
1.13212e-06
1.11258e-06
1.12524e-06
1.12481e-06
1.33063e-06
1.34165e-06
1.10988e-06
1.12826e-06
1.12437e-06
1.3331e-06
1.34413e-06
1.35562e-06
1.13258e-06
1.13152e-06
1.14887e-06
1.15313e-06
1.33963e-06
1.36232e-06
1.13415e-06
1.13624e-06
1.14786e-06
1.15277e-06
1.13209e-06
1.1546e-06
1.15991e-06
1.34553e-06
1.36167e-06
1.13273e-06
1.15566e-06
1.16342e-06
1.37273e-06
1.36293e-06
1.38057e-06
1.15722e-06
1.16069e-06
1.17638e-06
1.17407e-06
1.36884e-06
1.37799e-06
1.1556e-06
1.15795e-06
1.17615e-06
1.1731e-06
1.16675e-06
1.17443e-06
1.17311e-06
1.36778e-06
1.37762e-06
1.17044e-06
1.17476e-06
1.17494e-06
1.37904e-06
1.38345e-06
1.38187e-06
1.17829e-06
1.17625e-06
1.18017e-06
1.18356e-06
1.38046e-06
1.38516e-06
1.17898e-06
1.17814e-06
1.1816e-06
1.18676e-06
1.17313e-06
1.18286e-06
1.17794e-06
1.38064e-06
1.38493e-06
1.17422e-06
1.18233e-06
1.17577e-06
1.3758e-06
1.38477e-06
1.4002e-06
1.18257e-06
1.1875e-06
1.20099e-06
1.20162e-06
1.3894e-06
1.40267e-06
1.1833e-06
1.1876e-06
1.19864e-06
1.1956e-06
1.18346e-06
1.20115e-06
1.20345e-06
1.38754e-06
1.39495e-06
1.18042e-06
1.19482e-06
1.19908e-06
1.40321e-06
1.40692e-06
1.41687e-06
1.20726e-06
1.20511e-06
1.2161e-06
1.21551e-06
1.40693e-06
1.41491e-06
1.20504e-06
1.20171e-06
1.21812e-06
1.22225e-06
1.20998e-06
1.21648e-06
1.22021e-06
1.40076e-06
1.42104e-06
1.20608e-06
1.22274e-06
1.22077e-06
1.42041e-06
1.41913e-06
1.42315e-06
1.21821e-06
1.22054e-06
1.2284e-06
1.23215e-06
1.41937e-06
1.42815e-06
1.22042e-06
1.22625e-06
1.22657e-06
1.23053e-06
1.22123e-06
1.23067e-06
1.22314e-06
1.42528e-06
1.42627e-06
1.22271e-06
1.22958e-06
1.22455e-06
1.41977e-06
1.42639e-06
1.43186e-06
1.23114e-06
1.23331e-06
1.2368e-06
1.23525e-06
1.43007e-06
1.42933e-06
1.22824e-06
1.23192e-06
1.23733e-06
1.2407e-06
1.22515e-06
1.23466e-06
1.23621e-06
1.42847e-06
1.43706e-06
1.22582e-06
1.24041e-06
1.23782e-06
1.43107e-06
1.43616e-06
1.45184e-06
1.24014e-06
1.23839e-06
1.25463e-06
1.25383e-06
1.43335e-06
1.45087e-06
1.24263e-06
1.2442e-06
1.25676e-06
1.24875e-06
1.2408e-06
1.2546e-06
1.25435e-06
1.44153e-06
1.44168e-06
1.24279e-06
1.24951e-06
1.25344e-06
1.44988e-06
1.45564e-06
1.4529e-06
1.25869e-06
1.25803e-06
1.26239e-06
1.26065e-06
1.45585e-06
1.45233e-06
1.25817e-06
1.24855e-06
1.25772e-06
1.25113e-06
1.25846e-06
1.26092e-06
1.26591e-06
1.44261e-06
1.44254e-06
1.25544e-06
1.25271e-06
1.2621e-06
1.45844e-06
1.45429e-06
1.46161e-06
1.26241e-06
1.25978e-06
1.26592e-06
1.26252e-06
1.45312e-06
1.45416e-06
1.25784e-06
1.25774e-06
1.26924e-06
1.28353e-06
1.26634e-06
1.26283e-06
1.26661e-06
1.44871e-06
1.4821e-06
1.26376e-06
1.27992e-06
1.26845e-06
1.46198e-06
1.46747e-06
1.48593e-06
1.27044e-06
1.26862e-06
1.28716e-06
1.28961e-06
1.46054e-06
1.48861e-06
1.27577e-06
1.29023e-06
1.29126e-06
1.29326e-06
1.26833e-06
1.28849e-06
1.28258e-06
1.48957e-06
1.48924e-06
1.27154e-06
1.28865e-06
1.28426e-06
1.47797e-06
1.48986e-06
1.48364e-06
1.29133e-06
1.29482e-06
1.29332e-06
1.29688e-06
1.49451e-06
1.49198e-06
1.29229e-06
1.28875e-06
1.287e-06
1.27581e-06
1.28695e-06
1.29534e-06
1.29297e-06
1.48923e-06
1.46587e-06
1.28737e-06
1.27917e-06
1.28989e-06
1.4858e-06
1.48439e-06
1.47801e-06
1.2917e-06
1.29323e-06
1.28796e-06
1.28254e-06
1.49237e-06
1.47295e-06
1.28493e-06
1.2741e-06
1.2832e-06
1.27811e-06
1.29328e-06
1.28486e-06
1.2931e-06
1.46668e-06
1.47228e-06
1.29e-06
1.28591e-06
1.29199e-06
1.48737e-06
1.47989e-06
1.48274e-06
1.28706e-06
1.28092e-06
1.2868e-06
1.28654e-06
1.47357e-06
1.47913e-06
1.28389e-06
1.28236e-06
1.29044e-06
1.29831e-06
1.29243e-06
1.28886e-06
1.29091e-06
1.47736e-06
1.49374e-06
1.29266e-06
1.29937e-06
1.29342e-06
1.48614e-06
1.48691e-06
1.5098e-06
1.28933e-06
1.29392e-06
1.31016e-06
1.31412e-06
1.48673e-06
1.51441e-06
1.29513e-06
1.3043e-06
1.31315e-06
1.31588e-06
1.29138e-06
1.31236e-06
1.30505e-06
1.49952e-06
1.5132e-06
1.29391e-06
1.30901e-06
1.30392e-06
1.50073e-06
1.51591e-06
1.51737e-06
1.31595e-06
1.31741e-06
1.32008e-06
1.31704e-06
1.51905e-06
1.51482e-06
1.31693e-06
1.31701e-06
1.31842e-06
1.31517e-06
1.31055e-06
1.31591e-06
1.31675e-06
1.5165e-06
1.51332e-06
1.3088e-06
1.31364e-06
1.31562e-06
1.51444e-06
1.51826e-06
1.50878e-06
1.31855e-06
1.3149e-06
1.3126e-06
1.3095e-06
1.51559e-06
1.50435e-06
1.31631e-06
1.31365e-06
1.31093e-06
1.30913e-06
1.31569e-06
1.30844e-06
1.30844e-06
1.51435e-06
1.50564e-06
1.31507e-06
1.31057e-06
1.30903e-06
1.50228e-06
1.50982e-06
1.50275e-06
1.31087e-06
1.30798e-06
1.30715e-06
1.30685e-06
1.50534e-06
1.50352e-06
1.30949e-06
1.30778e-06
1.30667e-06
1.30673e-06
1.30833e-06
1.30924e-06
1.32045e-06
1.50669e-06
1.50423e-06
1.30899e-06
1.31007e-06
1.32092e-06
1.52177e-06
1.50405e-06
1.51175e-06
1.30704e-06
1.30841e-06
1.31525e-06
1.31998e-06
1.50704e-06
1.51957e-06
1.30664e-06
1.30829e-06
1.31484e-06
1.3197e-06
1.3244e-06
1.32099e-06
1.32121e-06
1.50762e-06
1.51975e-06
1.32466e-06
1.32019e-06
1.32075e-06
1.52047e-06
1.51758e-06
1.52723e-06
1.31975e-06
1.32235e-06
1.32545e-06
1.3207e-06
1.52328e-06
1.51812e-06
1.31919e-06
1.32163e-06
1.32458e-06
1.31851e-06
1.31155e-06
1.31467e-06
1.29638e-06
1.52316e-06
1.51531e-06
1.3111e-06
1.3129e-06
1.29635e-06
1.47984e-06
1.52841e-06
1.52053e-06
1.32452e-06
1.31795e-06
1.31899e-06
1.31638e-06
1.51899e-06
1.5186e-06
1.32361e-06
1.3158e-06
1.31809e-06
1.31442e-06
1.29733e-06
1.3168e-06
1.3322e-06
1.51603e-06
1.51557e-06
1.29737e-06
1.31486e-06
1.3315e-06
1.54069e-06
1.52233e-06
1.53251e-06
1.31904e-06
1.31906e-06
1.32823e-06
1.33231e-06
1.52373e-06
1.54129e-06
1.31815e-06
1.31747e-06
1.32802e-06
1.33321e-06
1.34388e-06
1.33682e-06
1.35492e-06
1.52098e-06
1.54176e-06
1.34273e-06
1.33686e-06
1.35348e-06
1.57284e-06
1.53736e-06
1.53415e-06
1.33121e-06
1.33411e-06
1.33096e-06
1.32826e-06
1.54465e-06
1.52975e-06
1.3314e-06
1.33614e-06
1.33196e-06
1.33324e-06
1.3508e-06
1.32726e-06
1.31621e-06
1.54615e-06
1.53651e-06
1.34995e-06
1.33311e-06
1.31834e-06
1.5129e-06
1.53402e-06
1.50871e-06
1.32561e-06
1.32236e-06
1.30952e-06
1.30714e-06
1.529e-06
1.50425e-06
1.32682e-06
1.32634e-06
1.30951e-06
1.30657e-06
1.30423e-06
1.30209e-06
1.28144e-06
1.53565e-06
1.50316e-06
1.30663e-06
1.30221e-06
1.28167e-06
1.46668e-06
1.50924e-06
1.51054e-06
1.30651e-06
1.30442e-06
1.30593e-06
1.30343e-06
1.50496e-06
1.50665e-06
1.30607e-06
1.30262e-06
1.30493e-06
1.30155e-06
1.28001e-06
1.29902e-06
1.2971e-06
1.50335e-06
1.50375e-06
1.27948e-06
1.29678e-06
1.29441e-06
1.49554e-06
1.51537e-06
1.53151e-06
1.30896e-06
1.306e-06
1.32114e-06
1.32182e-06
1.51158e-06
1.5338e-06
1.3079e-06
1.30542e-06
1.32085e-06
1.32265e-06
1.31095e-06
1.32767e-06
1.35303e-06
1.50971e-06
1.53535e-06
1.30924e-06
1.32886e-06
1.3542e-06
1.57729e-06
1.53671e-06
1.54468e-06
1.325e-06
1.32746e-06
1.33103e-06
1.33578e-06
1.54103e-06
1.55433e-06
1.32507e-06
1.32833e-06
1.33172e-06
1.33695e-06
1.36073e-06
1.34199e-06
1.36171e-06
1.54243e-06
1.55565e-06
1.36268e-06
1.34397e-06
1.36406e-06
1.59012e-06
1.54667e-06
1.53521e-06
1.33118e-06
1.33579e-06
1.32481e-06
1.32347e-06
1.55625e-06
1.53373e-06
1.33188e-06
1.33706e-06
1.32404e-06
1.32344e-06
1.35175e-06
1.31976e-06
1.30489e-06
1.55787e-06
1.53494e-06
1.35363e-06
1.32007e-06
1.30403e-06
1.50867e-06
1.53544e-06
1.51016e-06
1.32059e-06
1.31644e-06
1.30079e-06
1.29283e-06
1.53211e-06
1.49595e-06
1.31907e-06
1.31499e-06
1.29884e-06
1.28938e-06
1.28836e-06
1.28525e-06
1.25898e-06
1.53276e-06
1.49085e-06
1.28655e-06
1.28102e-06
1.25537e-06
1.4456e-06
1.50954e-06
1.48701e-06
1.29318e-06
1.28686e-06
1.27838e-06
1.27992e-06
1.49591e-06
1.48835e-06
1.29197e-06
1.28425e-06
1.27918e-06
1.28097e-06
1.25737e-06
1.27941e-06
1.27768e-06
1.49084e-06
1.48897e-06
1.25363e-06
1.27815e-06
1.27496e-06
1.48014e-06
1.48807e-06
1.50517e-06
1.27769e-06
1.28073e-06
1.29281e-06
1.30151e-06
1.49274e-06
1.5221e-06
1.27864e-06
1.28388e-06
1.29254e-06
1.30287e-06
1.2922e-06
1.30845e-06
1.32897e-06
1.49512e-06
1.52489e-06
1.29048e-06
1.31058e-06
1.33066e-06
1.56037e-06
1.51588e-06
1.55054e-06
1.30323e-06
1.31019e-06
1.32445e-06
1.32236e-06
1.53186e-06
1.54948e-06
1.30222e-06
1.30924e-06
1.32273e-06
1.3178e-06
1.33367e-06
1.32269e-06
1.32748e-06
1.53252e-06
1.54482e-06
1.33612e-06
1.32273e-06
1.33101e-06
1.5593e-06
1.55466e-06
1.52717e-06
1.32527e-06
1.3218e-06
1.30296e-06
1.29596e-06
1.55088e-06
1.51326e-06
1.32379e-06
1.31779e-06
1.30458e-06
1.30202e-06
1.31808e-06
1.29139e-06
1.28694e-06
1.54671e-06
1.52368e-06
1.32135e-06
1.29929e-06
1.28921e-06
1.50498e-06
1.52378e-06
1.46905e-06
1.29018e-06
1.28484e-06
1.25645e-06
1.25805e-06
1.51017e-06
1.47141e-06
1.29253e-06
1.29317e-06
1.25842e-06
1.2636e-06
1.27846e-06
1.25885e-06
1.26126e-06
1.52171e-06
1.47774e-06
1.28012e-06
1.26054e-06
1.25969e-06
1.47521e-06
1.46897e-06
1.47564e-06
1.2523e-06
1.2553e-06
1.25752e-06
1.26069e-06
1.47206e-06
1.48236e-06
1.25341e-06
1.25811e-06
1.2552e-06
1.25486e-06
1.25898e-06
1.26357e-06
1.25731e-06
1.47748e-06
1.47218e-06
1.2563e-06
1.25336e-06
1.25254e-06
1.47204e-06
1.48519e-06
1.51741e-06
1.26755e-06
1.26916e-06
1.28734e-06
1.28533e-06
1.49088e-06
1.51485e-06
1.26413e-06
1.25917e-06
1.28336e-06
1.27494e-06
1.2598e-06
1.28196e-06
1.27235e-06
1.47785e-06
1.50071e-06
1.25414e-06
1.27434e-06
1.2702e-06
1.49409e-06
1.52146e-06
1.48766e-06
1.28908e-06
1.28662e-06
1.25624e-06
1.2545e-06
1.51791e-06
1.48403e-06
1.28547e-06
1.27758e-06
1.25657e-06
1.25576e-06
1.27628e-06
1.25276e-06
1.26109e-06
1.50521e-06
1.48496e-06
1.27633e-06
1.25716e-06
1.26393e-06
1.49554e-06
1.46056e-06
1.2117e-06
1.21096e-06
1.45813e-06
1.21311e-06
1.21556e-06
7.68534e-07
7.7361e-07
7.79353e-07
1.22308e-06
1.46281e-06
1.22598e-06
3.76046e-11
3.14375e-09
1.6102e-10
1.55495e-10
5.46806e-09
3.54219e-09
2.72076e-09
9.50128e-10
5.50577e-09
4.4641e-09
1.02568e-09
1.13133e-08
5.49463e-09
1.99487e-09
2.8635e-09
7.3986e-09
1.68266e-07
6.07574e-09
2.58351e-07
1.45045e-06
2.93741e-06
8.80153e-09
1.58877e-07
7.29976e-09
2.50798e-07
1.23484e-09
1.57605e-09
1.42032e-09
1.97758e-09
1.21053e-09
1.5522e-09
1.40189e-09
4.82028e-09
7.4001e-08
2.70366e-09
3.29619e-09
5.09967e-09
5.32233e-08
2.67619e-09
1.56645e-06
3.11864e-06
4.83928e-09
3.02497e-09
8.61858e-08
4.75662e-09
5.02269e-09
2.98928e-09
6.41646e-08
2.10679e-07
2.11484e-07
5.06184e-09
1.79523e-07
1.81037e-07
1.66528e-08
4.83921e-07
1.2251e-08
6.653e-07
6.70362e-06
9.67282e-06
1.80835e-08
4.49409e-07
1.32785e-08
6.49324e-07
1.19344e-09
1.52901e-09
1.38535e-09
1.88051e-09
1.14344e-09
1.45746e-09