/*--------------------------------*- C++ -*----------------------------------*\
| =========                 |                                                 |
| \\      /  F ield         | OpenFOAM: The Open Source CFD Toolbox           |
|  \\    /   O peration     | Version:  v2012                                 |
|   \\  /    A nd           | Website:  www.openfoam.com                      |
|    \\/     M anipulation  |                                                 |
\*---------------------------------------------------------------------------*/
FoamFile
{
    version     2.0;
    format      ascii;
    class       volScalarField;
    location    "1700";
    object      k;
}
// * * * * * * * * * * * * * * * * * * * * * * * * * * * * * * * * * * * * * //

dimensions      [0 2 -2 0 0 0 0];


internalField   nonuniform List<scalar> 
171728
(
1.9581e-07
2.54511e-07
3.41944e-07
3.65123e-07
1.97319e-07
2.42714e-07
3.2574e-07
3.41914e-07
1.95087e-07
2.31439e-07
3.08282e-07
3.20816e-07
1.92584e-07
2.21287e-07
2.92109e-07
3.02634e-07
1.89631e-07
2.11829e-07
2.7821e-07
2.86122e-07
1.84683e-07
2.03586e-07
2.65987e-07
2.70942e-07
1.80775e-07
1.96603e-07
2.56204e-07
2.56936e-07
1.72131e-07
1.90271e-07
2.48664e-07
2.44071e-07
1.72735e-07
1.84232e-07
2.41294e-07
2.32693e-07
1.78288e-07
1.78756e-07
2.32905e-07
2.22929e-07
1.67077e-07
1.73802e-07
2.24385e-07
2.14753e-07
1.36641e-07
1.69375e-07
2.17846e-07
2.08169e-07
1.22087e-07
1.66063e-07
2.12349e-07
2.02467e-07
1.1702e-07
1.64486e-07
2.08116e-07
1.97581e-07
1.14494e-07
1.65483e-07
2.06972e-07
1.95301e-07
1.12159e-07
1.70372e-07
2.09579e-07
1.97894e-07
1.09732e-07
1.81682e-07
2.17459e-07
2.06741e-07
1.07439e-07
2.00752e-07
2.33026e-07
2.24729e-07
1.05249e-07
2.29352e-07
2.60361e-07
2.66311e-07
1.03267e-07
2.72478e-07
3.0725e-07
3.1757e-07
1.01555e-07
3.47473e-07
3.80608e-07
4.51843e-07
1.00312e-07
4.5833e-07
4.85422e-07
7.10261e-07
9.94353e-08
6.61385e-07
6.77423e-07
1.13777e-06
1e-07
8.83833e-07
9.42181e-07
1.57171e-06
1.00902e-07
1.14952e-06
1.14838e-06
2.85308e-06
1.05084e-07
1.62324e-06
1.70419e-06
4.52878e-06
1.1186e-07
2.1248e-06
2.14486e-06
5.10656e-06
1.19505e-07
2.79824e-06
2.77606e-06
8.34086e-06
1.37151e-07
3.48887e-06
3.53734e-06
1.03388e-05
1.64708e-07
4.32478e-06
4.3863e-06
1.23248e-05
1.86259e-07
5.49344e-06
5.46172e-06
1.52603e-05
2.48637e-07
6.27217e-06
6.38531e-06
1.66339e-05
3.14312e-07
7.999e-06
7.978e-06
1.99104e-05
3.83908e-07
8.84581e-06
8.81317e-06
2.14762e-05
5.59498e-07
1.08156e-05
1.0946e-05
2.31373e-05
6.45354e-07
1.20079e-05
1.19228e-05
2.51218e-05
9.49662e-07
1.40707e-05
1.41251e-05
2.6663e-05
1.09282e-06
1.48891e-05
1.52212e-05
2.77278e-05
1.38915e-06
1.77935e-05
1.77807e-05
2.96022e-05
1.83619e-06
1.88639e-05
1.89233e-05
3.02654e-05
2.23378e-06
2.08639e-05
2.07162e-05
3.15377e-05
2.78123e-06
2.2636e-05
2.29295e-05
3.32087e-05
3.31688e-06
2.43209e-05
2.41103e-05
3.37206e-05
4.26333e-06
2.64691e-05
2.65033e-05
3.51781e-05
4.72258e-06
2.73928e-05
2.76077e-05
3.62256e-05
6.10095e-06
3.00241e-05
2.99709e-05
3.71701e-05
6.64346e-06
3.06121e-05
3.07848e-05
3.83287e-05
8.36393e-06
3.33198e-05
3.304e-05
3.94701e-05
8.96633e-06
3.37859e-05
3.37096e-05
4.00155e-05
1.09288e-05
3.58122e-05
3.61162e-05
4.15965e-05
1.19878e-05
3.64871e-05
3.66908e-05
4.20785e-05
1.33911e-05
3.80595e-05
3.79704e-05
4.31123e-05
1.5155e-05
3.99751e-05
3.96002e-05
4.45585e-05
1.67024e-05
4.00637e-05
4.04209e-05
4.43593e-05
1.7813e-05
4.10586e-05
4.07206e-05
4.51823e-05
2.00318e-05
4.27774e-05
4.28766e-05
4.73084e-05
2.11339e-05
4.39029e-05
4.36401e-05
4.7285e-05
2.33963e-05
4.39695e-05
4.40358e-05
4.70002e-05
2.4101e-05
4.49403e-05
4.52433e-05
4.88773e-05
2.56437e-05
4.67051e-05
4.66078e-05
5.00683e-05
2.79494e-05
4.69424e-05
4.70749e-05
4.93393e-05
2.82488e-05
4.77193e-05
4.70963e-05
5.01607e-05
2.97966e-05
4.85025e-05
4.88463e-05
5.15871e-05
3.13884e-05
4.96028e-05
4.96628e-05
5.17052e-05
3.22395e-05
4.97996e-05
4.97364e-05
5.15812e-05
3.30329e-05
5.02967e-05
5.07543e-05
5.28384e-05
3.4838e-05
5.15059e-05
5.07364e-05
5.3399e-05
3.54833e-05
5.1367e-05
5.16213e-05
5.35752e-05
3.63068e-05
5.22235e-05
5.32566e-05
5.40327e-05
3.80777e-05
5.36666e-05
5.2916e-05
5.48641e-05
3.88349e-05
5.34153e-05
5.25948e-05
5.50008e-05
3.88236e-05
5.28627e-05
5.34385e-05
5.50229e-05
3.91884e-05
5.41844e-05
5.4394e-05
5.51502e-05
4.14336e-05
5.52868e-05
5.5101e-05
5.6536e-05
4.24326e-05
5.51027e-05
5.51269e-05
5.62396e-05
4.24344e-05
5.47983e-05
5.49117e-05
5.59936e-05
4.22812e-05
5.5579e-05
5.56185e-05
5.80535e-05
4.35098e-05
5.59157e-05
5.58701e-05
5.54673e-05
4.4342e-05
5.57021e-05
5.55651e-05
5.59806e-05
4.4469e-05
5.70066e-05
5.68472e-05
6.01219e-05
4.56451e-05
5.7586e-05
5.7703e-05
5.91484e-05
4.56923e-05
5.61651e-05
5.64422e-05
5.54953e-05
4.50215e-05
5.53345e-05
5.52038e-05
5.46249e-05
4.50857e-05
5.65667e-05
5.64839e-05
5.88649e-05
4.66753e-05
5.86197e-05
5.8744e-05
6.18378e-05
4.7532e-05
5.88e-05
5.89913e-05
6.02262e-05
4.73642e-05
5.639e-05
5.62114e-05
5.52254e-05
4.57262e-05
5.52249e-05
5.4971e-05
5.41322e-05
4.51932e-05
5.64112e-05
5.66083e-05
5.89998e-05
4.71757e-05
5.87486e-05
5.87461e-05
6.1235e-05
4.86452e-05
5.87153e-05
5.88829e-05
5.91688e-05
4.71423e-05
5.57672e-05
5.62828e-05
5.68009e-05
4.52424e-05
5.51128e-05
5.49649e-05
5.62331e-05
4.601e-05
5.69284e-05
5.60061e-05
5.7008e-05
4.73527e-05
5.64958e-05
5.61767e-05
5.82928e-05
3.59306e-07
3.22848e-07
2.98993e-07
3.5131e-07
2.90075e-07
3.45217e-07
1.91576e-07
1.46733e-07
1.67452e-07
1.56656e-07
2.8371e-07
2.93702e-07
3.57799e-07
3.39422e-07
3.25409e-07
3.66247e-07
3.5803e-07
3.39234e-07
3.85602e-07
2.51897e-07
3.85119e-07
2.44538e-07
3.50322e-07
3.29506e-07
2.58194e-07
3.67213e-07
2.49182e-07
3.60678e-07
2.58742e-07
2.45717e-07
2.49451e-07
3.55579e-07
3.39698e-07
3.12316e-07
3.30191e-07
3.03236e-07
3.43276e-07
3.36643e-07
3.22352e-07
3.85188e-07
2.41796e-07
3.87103e-07
2.33966e-07
3.28322e-07
3.09042e-07
2.46066e-07
3.59419e-07
2.37169e-07
3.58187e-07
2.46439e-07
2.34095e-07
2.37998e-07
3.36728e-07
3.23151e-07
2.99818e-07
3.12537e-07
2.90202e-07
3.21997e-07
3.1977e-07
3.08966e-07
3.87602e-07
2.313e-07
3.91995e-07
2.23594e-07
3.08017e-07
2.90963e-07
2.345e-07
3.5823e-07
2.26967e-07
3.5911e-07
2.35342e-07
2.23707e-07
2.27777e-07
3.20485e-07
3.09413e-07
2.8709e-07
2.96029e-07
2.77208e-07
3.03683e-07
3.06949e-07
2.99419e-07
3.93921e-07
2.21011e-07
4.03256e-07
2.13575e-07
2.90023e-07
2.74531e-07
2.24676e-07
3.59691e-07
2.17975e-07
3.61215e-07
2.25237e-07
2.14029e-07
2.17714e-07
3.07093e-07
2.98624e-07
2.73879e-07
2.81548e-07
2.64548e-07
2.87064e-07
2.98147e-07
2.96848e-07
4.09837e-07
2.11297e-07
4.41183e-07
2.05041e-07
2.73686e-07
2.59653e-07
2.1588e-07
3.6204e-07
2.09944e-07
3.65072e-07
2.15237e-07
2.05511e-07
2.08166e-07
2.96684e-07
2.9042e-07
2.61801e-07
2.68882e-07
2.53611e-07
2.71774e-07
2.96511e-07
3.02193e-07
4.5639e-07
2.03064e-07
5.15322e-07
1.97312e-07
2.5894e-07
2.46523e-07
2.08169e-07
3.65882e-07
2.03342e-07
3.69989e-07
2.05967e-07
1.98243e-07
1.99893e-07
2.88795e-07
2.8372e-07
2.51071e-07
2.58351e-07
2.42517e-07
2.57654e-07
3.0218e-07
3.16903e-07
5.34148e-07
1.95443e-07
5.95425e-07
1.90079e-07
2.45935e-07
2.34767e-07
2.01915e-07
3.71203e-07
1.98113e-07
3.70649e-07
1.9799e-07
1.91774e-07
1.92679e-07
2.82514e-07
2.79671e-07
2.39514e-07
2.50448e-07
2.30143e-07
2.4465e-07
3.17869e-07
3.60013e-07
6.28525e-07
1.88348e-07
7.71758e-07
1.83289e-07
2.3432e-07
2.24644e-07
1.96904e-07
3.65767e-07
1.94228e-07
3.18479e-07
1.90974e-07
1.85677e-07
1.86283e-07
2.79063e-07
2.60142e-07
2.26964e-07
2.43115e-07
2.19083e-07
2.33134e-07
3.62554e-07
3.98662e-07
8.23227e-07
1.81656e-07
9.30098e-07
1.76832e-07
2.24411e-07
2.15595e-07
1.93634e-07
2.99724e-07
1.91809e-07
2.45484e-07
1.84802e-07
1.80076e-07
1.80643e-07
2.58488e-07
2.41451e-07
2.16927e-07
2.35251e-07
2.12127e-07
2.23238e-07
3.97942e-07
3.9483e-07
9.4306e-07
1.75285e-07
9.35433e-07
1.71154e-07
2.15418e-07
2.06806e-07
1.90895e-07
2.29796e-07
1.8539e-07
1.9318e-07
1.79296e-07
1.74999e-07
1.75787e-07
2.39942e-07
2.23001e-07
2.11022e-07
2.2627e-07
2.08867e-07
2.1493e-07
3.75426e-07
2.62283e-07
8.91148e-07
1.69851e-07
6.28313e-07
1.66329e-07
2.06704e-07
1.98777e-07
1.83101e-07
1.84757e-07
1.77231e-07
1.69271e-07
1.74807e-07
1.70313e-07
1.71971e-07
2.22071e-07
2.10088e-07
2.08371e-07
2.19388e-07
2.06946e-07
2.08219e-07
2.57232e-07
2.20246e-07
5.48206e-07
1.65359e-07
3.62856e-07
1.62776e-07
1.98764e-07
1.91751e-07
1.75822e-07
1.66525e-07
1.72974e-07
1.62612e-07
1.71107e-07
1.66759e-07
1.69088e-07
2.09772e-07
2.02063e-07
2.06666e-07
2.1365e-07
2.06382e-07
2.02417e-07
2.18472e-07
2.01993e-07
3.22346e-07
1.61968e-07
2.5005e-07
1.60256e-07
1.9187e-07
1.86295e-07
1.72272e-07
1.62194e-07
1.71063e-07
1.62373e-07
1.68606e-07
1.64611e-07
1.67862e-07
2.0207e-07
1.96646e-07
2.05967e-07
2.0898e-07
2.02969e-07
1.97358e-07
2.01604e-07
1.95312e-07
2.36416e-07
1.6001e-07
2.13024e-07
1.60457e-07
1.86631e-07
1.83193e-07
1.70818e-07
1.62714e-07
1.70915e-07
1.64773e-07
1.6788e-07
1.65057e-07
1.68714e-07
1.96893e-07
1.93708e-07
2.02907e-07
2.06896e-07
2.04057e-07
1.94517e-07
1.9573e-07
1.947e-07
2.09151e-07
1.60914e-07
2.03474e-07
1.64643e-07
1.84022e-07
1.83867e-07
1.71198e-07
1.65776e-07
1.73521e-07
1.70565e-07
1.69415e-07
1.69078e-07
1.72766e-07
1.94435e-07
1.94188e-07
2.04804e-07
2.08495e-07
2.10691e-07
1.96154e-07
1.9594e-07
1.99971e-07
2.03415e-07
1.66218e-07
2.06667e-07
1.7421e-07
1.85552e-07
1.90049e-07
1.7466e-07
1.72372e-07
1.81182e-07
1.81013e-07
1.74752e-07
1.78687e-07
1.80529e-07
1.95711e-07
2.00194e-07
2.1426e-07
2.15105e-07
2.28669e-07
2.0357e-07
2.02842e-07
2.14569e-07
2.07887e-07
1.77252e-07
2.20195e-07
1.89397e-07
1.93962e-07
2.03085e-07
1.82894e-07
1.84167e-07
1.98079e-07
1.9857e-07
1.84375e-07
1.9385e-07
1.96608e-07
2.03194e-07
2.1515e-07
2.34163e-07
2.28436e-07
2.53582e-07
2.2023e-07
2.21493e-07
2.42093e-07
2.23377e-07
1.96322e-07
2.42716e-07
2.13187e-07
2.10824e-07
2.31779e-07
2.01437e-07
2.04118e-07
2.23213e-07
2.26626e-07
1.99715e-07
2.17262e-07
2.27303e-07
2.20843e-07
2.46549e-07
2.56503e-07
2.53109e-07
2.78799e-07
2.52558e-07
2.60638e-07
2.89151e-07
2.55541e-07
2.2544e-07
2.74615e-07
2.55107e-07
2.42841e-07
2.95196e-07
2.35694e-07
2.35681e-07
2.57748e-07
2.71387e-07
2.34005e-07
2.58328e-07
2.60207e-07
2.57081e-07
3.08995e-07
2.84304e-07
2.93679e-07
3.04711e-07
2.88133e-07
3.01716e-07
4.4715e-07
2.89415e-07
2.68765e-07
3.56433e-07
3.25631e-07
3.07823e-07
4.26325e-07
2.75603e-07
2.8583e-07
3.34039e-07
3.42106e-07
2.80493e-07
3.2879e-07
3.3963e-07
3.30742e-07
4.21711e-07
3.32086e-07
3.61346e-07
3.83153e-07
4.40374e-07
4.70656e-07
5.87955e-07
3.71371e-07
3.44956e-07
4.40967e-07
4.40816e-07
4.57151e-07
6.37895e-07
3.5098e-07
3.62134e-07
4.25773e-07
4.4279e-07
3.4776e-07
4.44339e-07
4.32554e-07
4.54761e-07
6.30809e-07
3.86791e-07
4.58305e-07
4.82267e-07
5.75219e-07
6.4804e-07
1.00403e-06
4.7467e-07
4.54179e-07
6.14102e-07
5.83029e-07
6.86948e-07
8.94047e-07
4.61292e-07
4.68939e-07
5.93694e-07
6.3037e-07
4.79283e-07
5.88167e-07
6.10796e-07
6.95438e-07
1.01377e-06
5.69646e-07
6.44796e-07
7.92526e-07
1.07785e-06
1.09908e-06
1.47416e-06
6.40108e-07
6.6552e-07
8.27738e-07
8.06505e-07
1.11705e-06
1.60868e-06
6.21927e-07
6.6374e-07
8.10114e-07
8.03729e-07
6.58426e-07
8.16583e-07
7.60078e-07
1.15722e-06
1.38403e-06
8.55487e-07
8.09929e-07
9.688e-07
1.48569e-06
1.68334e-06
2.35073e-06
9.18198e-07
8.69136e-07
1.07369e-06
1.06015e-06
1.64815e-06
2.35785e-06
8.96757e-07
9.33811e-07
1.05597e-06
1.10758e-06
8.72899e-07
1.06051e-06
1.1318e-06
1.59806e-06
2.51779e-06
1.09311e-06
1.11684e-06
1.43057e-06
2.74531e-06
2.46642e-06
3.70289e-06
1.14994e-06
1.14967e-06
1.58223e-06
1.50422e-06
2.44692e-06
3.82305e-06
1.13432e-06
1.14221e-06
1.5524e-06
1.59318e-06
1.15672e-06
1.48012e-06
1.60311e-06
2.54279e-06
3.8974e-06
1.45604e-06
1.59723e-06
1.84438e-06
3.89514e-06
4.09305e-06
4.90296e-06
1.67431e-06
1.64157e-06
1.91195e-06
2.01349e-06
4.21081e-06
5.40027e-06
1.63184e-06
1.68771e-06
1.92052e-06
2.01136e-06
1.7636e-06
2.06946e-06
1.8984e-06
4.44925e-06
5.02737e-06
2.07026e-06
2.00391e-06
2.27777e-06
5.10666e-06
5.13423e-06
7.53152e-06
2.12889e-06
2.06764e-06
2.61191e-06
2.61421e-06
5.81963e-06
6.58117e-06
2.13389e-06
2.15353e-06
2.56515e-06
2.55524e-06
1.95997e-06
2.53971e-06
2.62203e-06
5.19851e-06
7.25444e-06
2.27647e-06
2.52632e-06
2.64987e-06
7.5025e-06
7.9623e-06
9.20677e-06
2.74297e-06
2.84782e-06
3.35156e-06
3.30012e-06
7.10333e-06
1.00781e-05
2.69404e-06
2.77826e-06
3.34419e-06
3.40202e-06
2.91266e-06
3.31202e-06
3.46074e-06
7.58821e-06
9.73828e-06
3.06003e-06
3.39344e-06
3.73611e-06
1.0119e-05
9.77001e-06
1.20108e-05
3.5273e-06
3.47781e-06
4.16114e-06
4.1069e-06
1.02814e-05
1.17541e-05
3.50598e-06
3.57028e-06
4.11576e-06
4.1191e-06
3.49927e-06
4.11873e-06
4.03292e-06
1.04105e-05
1.15728e-05
3.78833e-06
4.15511e-06
4.38234e-06
1.13057e-05
1.23869e-05
1.45624e-05
4.47645e-06
4.32901e-06
5.07222e-06
5.23867e-06
1.2509e-05
1.4411e-05
4.4608e-06
4.38738e-06
5.01456e-06
5.2406e-06
4.56468e-06
5.17387e-06
5.28967e-06
1.1986e-05
1.47516e-05
4.79781e-06
5.17205e-06
5.45323e-06
1.51546e-05
1.51012e-05
1.64671e-05
5.2428e-06
5.54031e-06
6.41878e-06
6.05769e-06
1.48563e-05
1.68943e-05
5.21712e-06
5.47216e-06
6.22795e-06
6.21913e-06
5.32863e-06
6.09516e-06
6.06768e-06
1.52102e-05
1.66462e-05
5.49472e-06
6.16236e-06
5.97993e-06
1.5748e-05
1.70411e-05
1.92431e-05
6.70092e-06
6.25461e-06
7.28359e-06
7.55495e-06
1.72324e-05
1.89643e-05
6.48931e-06
6.48275e-06
7.43744e-06
7.53313e-06
6.63726e-06
7.4785e-06
7.31109e-06
1.71492e-05
1.91208e-05
6.38744e-06
7.53474e-06
7.29632e-06
1.96096e-05
1.9552e-05
2.11334e-05
7.80539e-06
8.06335e-06
8.87885e-06
8.75324e-06
1.96686e-05
2.11387e-05
7.80842e-06
7.97578e-06
8.58261e-06
8.73082e-06
7.67446e-06
8.76659e-06
8.85539e-06
1.95919e-05
2.11046e-05
7.71296e-06
8.63925e-06
9.25368e-06
2.1029e-05
2.17299e-05
2.29014e-05
9.03244e-06
8.83402e-06
1.04923e-05
1.01556e-05
2.13969e-05
2.27674e-05
8.96557e-06
8.88695e-06
1.04377e-05
1.03617e-05
9.06388e-06
1.00787e-05
1.00471e-05
2.14868e-05
2.28389e-05
9.50134e-06
1.0312e-05
1.004e-05
2.27586e-05
2.32515e-05
2.46609e-05
1.10021e-05
1.08845e-05
1.15828e-05
1.18871e-05
2.33454e-05
2.48863e-05
1.069e-05
1.10017e-05
1.14439e-05
1.1846e-05
1.05019e-05
1.18991e-05
1.16234e-05
2.34066e-05
2.4783e-05
1.04518e-05
1.18228e-05
1.16135e-05
2.46405e-05
2.501e-05
2.64626e-05
1.18975e-05
1.20007e-05
1.39218e-05
1.35109e-05
2.51506e-05
2.60935e-05
1.2014e-05
1.19672e-05
1.36641e-05
1.35621e-05
1.20366e-05
1.3451e-05
1.37883e-05
2.50402e-05
2.62242e-05
1.20182e-05
1.33854e-05
1.37481e-05
2.63921e-05
2.68313e-05
2.74848e-05
1.43471e-05
1.41287e-05
1.50645e-05
1.47994e-05
2.6517e-05
2.74279e-05
1.40084e-05
1.42677e-05
1.48916e-05
1.51599e-05
1.42165e-05
1.47453e-05
1.46714e-05
2.6682e-05
2.75668e-05
1.42022e-05
1.51018e-05
1.46855e-05
2.73939e-05
2.77498e-05
2.88038e-05
1.53456e-05
1.49383e-05
1.65017e-05
1.69903e-05
2.76865e-05
2.91363e-05
1.52563e-05
1.52848e-05
1.66043e-05
1.71722e-05
1.49513e-05
1.69792e-05
1.72265e-05
2.78315e-05
2.91021e-05
1.49204e-05
1.7037e-05
1.72723e-05
2.92689e-05
2.92041e-05
3.03181e-05
1.71171e-05
1.78045e-05
1.88639e-05
1.88269e-05
2.95695e-05
3.01621e-05
1.72298e-05
1.79158e-05
1.87355e-05
1.87037e-05
1.77894e-05
1.87906e-05
1.85875e-05
2.95248e-05
3.02105e-05
1.77693e-05
1.85706e-05
1.85395e-05
3.00749e-05
3.05731e-05
3.12771e-05
1.92177e-05
1.88995e-05
2.03758e-05
2.01607e-05
3.03156e-05
3.13509e-05
1.907e-05
1.90214e-05
2.02132e-05
2.06156e-05
1.88041e-05
2.01131e-05
1.994e-05
3.04279e-05
3.14232e-05
1.88811e-05
2.04173e-05
1.99753e-05
3.11541e-05
3.15735e-05
3.26183e-05
2.08348e-05
2.09527e-05
2.22464e-05
2.24891e-05
3.17955e-05
3.26302e-05
2.07387e-05
2.0915e-05
2.22301e-05
2.22637e-05
2.05021e-05
2.23982e-05
2.26518e-05
3.17242e-05
3.25603e-05
2.04511e-05
2.22858e-05
2.25467e-05
3.29226e-05
3.28824e-05
3.36197e-05
2.27189e-05
2.27009e-05
2.38542e-05
2.36176e-05
3.28041e-05
3.35257e-05
2.27067e-05
2.29231e-05
2.38601e-05
2.40052e-05
2.32934e-05
2.36465e-05
2.40694e-05
3.28809e-05
3.36857e-05
2.32389e-05
2.38044e-05
2.41631e-05
3.36078e-05
3.388e-05
3.49088e-05
2.42774e-05
2.42843e-05
2.60323e-05
2.62942e-05
3.38838e-05
3.50565e-05
2.42743e-05
2.43228e-05
2.59207e-05
2.62439e-05
2.41293e-05
2.62258e-05
2.55002e-05
3.38893e-05
3.4928e-05
2.42152e-05
2.59231e-05
2.52794e-05
3.46791e-05
3.51732e-05
3.57601e-05
2.64722e-05
2.65766e-05
2.71652e-05
2.69358e-05
3.52219e-05
3.55283e-05
2.63751e-05
2.66956e-05
2.72229e-05
2.72728e-05
2.64738e-05
2.68584e-05
2.76146e-05
3.52599e-05
3.58033e-05
2.63495e-05
2.73466e-05
2.77293e-05
3.61089e-05
3.59815e-05
3.71807e-05
2.76214e-05
2.73773e-05
2.95284e-05
2.96624e-05
3.57905e-05
3.73119e-05
2.76902e-05
2.75724e-05
2.9458e-05
2.93538e-05
2.78554e-05
2.96652e-05
2.92116e-05
3.59617e-05
3.71461e-05
2.79314e-05
2.9422e-05
2.91692e-05
3.68762e-05
3.74201e-05
3.78395e-05
2.98857e-05
3.00164e-05
3.04353e-05
3.03717e-05
3.75047e-05
3.77351e-05
2.97528e-05
2.99723e-05
3.04412e-05
3.07104e-05
2.95322e-05
3.03486e-05
3.06175e-05
3.74831e-05
3.79759e-05
2.94896e-05
3.05395e-05
3.05703e-05
3.80451e-05
3.8061e-05
3.93813e-05
3.09212e-05
3.07179e-05
3.27569e-05
3.28736e-05
3.79366e-05
3.95462e-05
3.09979e-05
3.09365e-05
3.27486e-05
3.2569e-05
3.122e-05
3.28445e-05
3.28307e-05
3.81041e-05
3.91942e-05
3.11624e-05
3.26224e-05
3.28641e-05
3.93464e-05
3.95596e-05
3.9764e-05
3.3048e-05
3.32249e-05
3.33859e-05
3.35401e-05
3.97587e-05
3.98847e-05
3.29853e-05
3.29719e-05
3.33106e-05
3.35055e-05
3.30417e-05
3.37043e-05
3.33189e-05
3.9482e-05
3.98947e-05
3.3137e-05
3.34453e-05
3.34059e-05
3.97746e-05
3.99635e-05
4.14599e-05
3.37525e-05
3.37636e-05
3.56459e-05
3.52712e-05
3.99798e-05
4.1233e-05
3.37284e-05
3.38896e-05
3.56519e-05
3.56809e-05
3.36461e-05
3.52576e-05
3.55082e-05
4.00637e-05
4.15099e-05
3.36031e-05
3.56049e-05
3.53837e-05
4.13606e-05
4.16616e-05
4.17281e-05
3.60253e-05
3.57707e-05
3.6308e-05
3.64894e-05
4.15111e-05
4.18434e-05
3.60118e-05
3.61576e-05
3.62705e-05
3.66317e-05
3.6016e-05
3.64427e-05
3.67386e-05
4.17773e-05
4.19205e-05
3.59132e-05
3.66785e-05
3.66599e-05
4.19806e-05
4.17817e-05
4.32154e-05
3.6389e-05
3.65544e-05
3.79441e-05
3.74204e-05
4.19142e-05
4.27816e-05
3.63478e-05
3.66371e-05
3.79495e-05
3.71771e-05
3.67817e-05
3.73774e-05
3.72107e-05
4.19354e-05
4.27041e-05
3.67094e-05
3.71366e-05
3.72434e-05
4.27236e-05
4.35276e-05
4.38074e-05
3.83703e-05
3.80123e-05
3.89666e-05
3.96195e-05
4.31688e-05
4.44249e-05
3.84767e-05
3.80597e-05
3.89833e-05
3.94765e-05
3.78864e-05
3.97136e-05
3.96745e-05
4.32112e-05
4.42351e-05
3.79356e-05
3.94279e-05
3.97486e-05
4.44432e-05
4.38704e-05
4.46822e-05
3.92578e-05
3.99327e-05
4.01157e-05
4.01615e-05
4.45512e-05
4.44255e-05
3.9067e-05
3.95627e-05
4.02008e-05
4.01898e-05
3.99488e-05
4.00954e-05
4.00629e-05
4.42879e-05
4.46231e-05
4.00444e-05
4.02904e-05
4.01964e-05
4.43585e-05
4.48803e-05
4.52598e-05
4.02317e-05
4.01436e-05
4.10299e-05
4.04025e-05
4.4431e-05
4.49886e-05
4.04599e-05
4.0442e-05
4.08082e-05
4.06888e-05
4.00035e-05
4.04404e-05
4.01471e-05
4.48274e-05
4.50241e-05
4.01406e-05
4.05536e-05
4.01849e-05
4.47518e-05
4.54691e-05
4.63893e-05
4.14917e-05
4.10371e-05
4.22492e-05
4.2374e-05
4.54075e-05
4.65495e-05
4.11486e-05
4.08749e-05
4.24821e-05
4.25557e-05
4.07346e-05
4.23734e-05
4.2914e-05
4.5111e-05
4.65969e-05
4.05868e-05
4.2471e-05
4.28394e-05
4.70934e-05
4.64927e-05
4.68814e-05
4.23312e-05
4.26954e-05
4.31926e-05
4.36436e-05
4.67504e-05
4.73992e-05
4.26913e-05
4.29043e-05
4.29745e-05
4.31862e-05
4.33247e-05
4.37446e-05
4.37381e-05
4.68466e-05
4.70095e-05
4.32656e-05
4.34456e-05
4.37077e-05
4.72898e-05
4.71392e-05
4.79452e-05
4.36477e-05
4.38691e-05
4.45444e-05
4.40879e-05
4.74783e-05
4.73325e-05
4.33044e-05
4.33335e-05
4.44891e-05
4.4199e-05
4.37429e-05
4.39825e-05
4.37037e-05
4.70696e-05
4.76632e-05
4.37134e-05
4.39981e-05
4.36149e-05
4.69616e-05
4.80007e-05
4.78996e-05
4.45969e-05
4.40894e-05
4.45743e-05
4.43434e-05
4.73468e-05
4.80502e-05
4.46479e-05
4.42796e-05
4.47051e-05
4.4894e-05
4.37064e-05
4.4288e-05
4.4598e-05
4.77524e-05
4.82157e-05
4.36038e-05
4.47377e-05
4.44866e-05
4.83658e-05
4.79964e-05
4.94524e-05
4.46289e-05
4.48749e-05
4.62393e-05
4.63648e-05
4.84431e-05
4.95137e-05
4.47416e-05
4.52381e-05
4.60682e-05
4.60045e-05
4.53094e-05
4.64603e-05
4.67465e-05
4.85076e-05
4.93703e-05
4.5431e-05
4.63814e-05
4.69924e-05
5.00409e-05
4.97042e-05
4.98369e-05
4.66704e-05
4.66345e-05
4.7048e-05
4.68841e-05
4.9604e-05
4.96313e-05
4.65569e-05
4.62573e-05
4.71548e-05
4.71187e-05
4.68831e-05
4.69295e-05
4.68452e-05
4.94811e-05
4.98112e-05
4.70909e-05
4.7035e-05
4.69248e-05
4.93547e-05
4.98359e-05
4.97911e-05
4.70361e-05
4.69048e-05
4.70272e-05
4.74594e-05
4.96782e-05
5.033e-05
4.71603e-05
4.72808e-05
4.71158e-05
4.73299e-05
4.67738e-05
4.73062e-05
4.68839e-05
4.98951e-05
4.99126e-05
4.6792e-05
4.70651e-05
4.67923e-05
4.98162e-05
5.00356e-05
5.13242e-05
4.72595e-05
4.78286e-05
4.8627e-05
4.82663e-05
5.05642e-05
5.09211e-05
4.7185e-05
4.73263e-05
4.85521e-05
4.81877e-05
4.73093e-05
4.83258e-05
4.87546e-05
4.99487e-05
5.10846e-05
4.70325e-05
4.8353e-05
4.85846e-05
5.14212e-05
5.14242e-05
5.15255e-05
4.87571e-05
4.8379e-05
4.90647e-05
4.93555e-05
5.09998e-05
5.18535e-05
4.88258e-05
4.87474e-05
4.92706e-05
4.96064e-05
4.90256e-05
4.93655e-05
4.93418e-05
5.14087e-05
5.18991e-05
4.89628e-05
4.9612e-05
4.94511e-05
5.17134e-05
5.16193e-05
5.18416e-05
4.93437e-05
4.96433e-05
4.97717e-05
4.99015e-05
5.20095e-05
5.19366e-05
4.93889e-05
4.96706e-05
4.94936e-05
4.97054e-05
4.93399e-05
4.9811e-05
4.92935e-05
5.19117e-05
5.19039e-05
4.94564e-05
4.96812e-05
4.93968e-05
5.14612e-05
5.18605e-05
5.25943e-05
4.97806e-05
4.989e-05
4.99981e-05
4.99406e-05
5.19305e-05
5.22735e-05
4.95246e-05
4.97707e-05
5.04785e-05
5.06262e-05
4.93485e-05
4.99072e-05
5.02124e-05
5.20597e-05
5.2893e-05
4.94274e-05
5.0608e-05
5.04417e-05
5.26885e-05
5.2897e-05
5.33499e-05
5.04293e-05
5.0203e-05
5.14224e-05
5.13965e-05
5.26062e-05
5.35627e-05
5.08671e-05
5.07436e-05
5.12889e-05
5.07096e-05
5.04987e-05
5.14425e-05
5.13901e-05
5.29288e-05
5.24139e-05
5.06637e-05
5.07753e-05
5.10758e-05
5.3258e-05
5.33509e-05
5.31487e-05
5.15278e-05
5.14816e-05
5.15527e-05
5.14166e-05
5.35631e-05
5.29288e-05
5.12897e-05
5.06396e-05
5.12255e-05
5.08748e-05
5.16011e-05
5.14131e-05
5.1775e-05
5.23933e-05
5.32117e-05
5.12791e-05
5.09961e-05
5.16683e-05
5.35713e-05
5.31867e-05
5.41836e-05
5.15389e-05
5.1367e-05
5.17623e-05
5.1594e-05
5.29216e-05
5.38357e-05
5.12471e-05
5.15762e-05
5.24565e-05
5.34201e-05
5.17618e-05
5.16271e-05
5.17757e-05
5.37348e-05
5.53974e-05
5.16928e-05
5.30979e-05
5.19752e-05
5.37842e-05
5.45098e-05
5.51115e-05
5.22663e-05
5.21846e-05
5.33915e-05
5.36413e-05
5.42956e-05
5.54982e-05
5.29187e-05
5.35936e-05
5.33962e-05
5.34055e-05
5.19503e-05
5.35306e-05
5.30829e-05
5.54742e-05
5.45426e-05
5.23347e-05
5.31574e-05
5.30775e-05
5.48098e-05
5.51047e-05
5.46284e-05
5.34833e-05
5.37917e-05
5.34669e-05
5.3718e-05
5.55514e-05
5.49526e-05
5.33882e-05
5.29974e-05
5.3004e-05
5.23257e-05
5.327e-05
5.36289e-05
5.35168e-05
5.4388e-05
5.38053e-05
5.3182e-05
5.25928e-05
5.32882e-05
5.49542e-05
5.46278e-05
5.45666e-05
5.3383e-05
5.34173e-05
5.31013e-05
5.27093e-05
5.48257e-05
5.39925e-05
5.29149e-05
5.228e-05
5.28453e-05
5.24908e-05
5.35376e-05
5.28943e-05
5.34994e-05
5.38565e-05
5.4607e-05
5.33224e-05
5.31577e-05
5.35338e-05
5.50262e-05
5.45747e-05
5.51839e-05
5.30227e-05
5.26656e-05
5.31771e-05
5.34505e-05
5.39975e-05
5.55414e-05
5.28684e-05
5.29522e-05
5.38041e-05
5.4418e-05
5.34295e-05
5.35593e-05
5.33937e-05
5.484e-05
5.59476e-05
5.35517e-05
5.41498e-05
5.35644e-05
5.49717e-05
5.55795e-05
5.67194e-05
5.37508e-05
5.4189e-05
5.52216e-05
5.53085e-05
5.59537e-05
5.6791e-05
5.43008e-05
5.47995e-05
5.52852e-05
5.53437e-05
5.35656e-05
5.51958e-05
5.49074e-05
5.61703e-05
5.66122e-05
5.36681e-05
5.50013e-05
5.48125e-05
5.63983e-05
5.67714e-05
5.65549e-05
5.53861e-05
5.53968e-05
5.54519e-05
5.53548e-05
5.68017e-05
5.63682e-05
5.53838e-05
5.53648e-05
5.53693e-05
5.52085e-05
5.512e-05
5.5248e-05
5.51798e-05
5.66225e-05
5.6337e-05
5.50454e-05
5.51539e-05
5.51478e-05
5.6339e-05
5.65371e-05
5.62321e-05
5.54056e-05
5.52105e-05
5.50737e-05
5.48363e-05
5.63315e-05
5.59574e-05
5.52664e-05
5.50904e-05
5.49917e-05
5.48e-05
5.50488e-05
5.48116e-05
5.48438e-05
5.6324e-05
5.60352e-05
5.50484e-05
5.49264e-05
5.48771e-05
5.5812e-05
5.621e-05
5.59421e-05
5.49671e-05
5.47647e-05
5.48125e-05
5.48301e-05
5.59495e-05
5.63616e-05
5.49106e-05
5.47423e-05
5.47999e-05
5.48713e-05
5.4946e-05
5.52455e-05
5.621e-05
5.6025e-05
5.64301e-05
5.49876e-05
5.53025e-05
5.62265e-05
5.79862e-05
5.59863e-05
5.72467e-05
5.48489e-05
5.515e-05
5.59309e-05
5.60817e-05
5.66176e-05
5.72597e-05
5.48488e-05
5.52676e-05
5.59319e-05
5.6056e-05
5.6294e-05
5.59281e-05
5.53837e-05
5.66897e-05
5.72413e-05
5.63002e-05
5.58987e-05
5.53614e-05
5.58511e-05
5.73935e-05
5.7395e-05
5.6186e-05
5.614e-05
5.63179e-05
5.60212e-05
5.72734e-05
5.6867e-05
5.61691e-05
5.60805e-05
5.62821e-05
5.58767e-05
5.4836e-05
5.5704e-05
5.44849e-05
5.72392e-05
5.66859e-05
5.48237e-05
5.55719e-05
5.44887e-05
5.52343e-05
5.73678e-05
5.72376e-05
5.62746e-05
5.59735e-05
5.62341e-05
5.61747e-05
5.68572e-05
5.76579e-05
5.62299e-05
5.58153e-05
5.61756e-05
5.59993e-05
5.48178e-05
5.65258e-05
5.79715e-05
5.66742e-05
5.74969e-05
5.48237e-05
5.63223e-05
5.78877e-05
5.98496e-05
5.73669e-05
5.83269e-05
5.63319e-05
5.66046e-05
5.71363e-05
5.73256e-05
5.79427e-05
5.85788e-05
5.62732e-05
5.64664e-05
5.71697e-05
5.74651e-05
5.84993e-05
5.75917e-05
5.8707e-05
5.78135e-05
5.87204e-05
5.83987e-05
5.76617e-05
5.86304e-05
5.95729e-05
5.83772e-05
5.76259e-05
5.72095e-05
5.73372e-05
5.69306e-05
5.6737e-05
5.85696e-05
5.73004e-05
5.72652e-05
5.75279e-05
5.70334e-05
5.70939e-05
5.83759e-05
5.66294e-05
5.55661e-05
5.87472e-05
5.76163e-05
5.83706e-05
5.70831e-05
5.57268e-05
5.58521e-05
5.74458e-05
5.67965e-05
5.65593e-05
5.63796e-05
5.59571e-05
5.58033e-05
5.71364e-05
5.65756e-05
5.66344e-05
5.65801e-05
5.59401e-05
5.5694e-05
5.48795e-05
5.53941e-05
5.3966e-05
5.73577e-05
5.63655e-05
5.50045e-05
5.53035e-05
5.39524e-05
5.45235e-05
5.68118e-05
5.75444e-05
5.59233e-05
5.5758e-05
5.62485e-05
5.59969e-05
5.65873e-05
5.73046e-05
5.58935e-05
5.56236e-05
5.61652e-05
5.59053e-05
5.39732e-05
5.58266e-05
5.63391e-05
5.63654e-05
5.72936e-05
5.39403e-05
5.56594e-05
5.61538e-05
5.81233e-05
5.77837e-05
5.86927e-05
5.663e-05
5.64534e-05
5.75837e-05
5.777e-05
5.76112e-05
5.90761e-05
5.65668e-05
5.64193e-05
5.76019e-05
5.78139e-05
5.76327e-05
5.82971e-05
6.00549e-05
5.76544e-05
5.91224e-05
5.75581e-05
5.8389e-05
6.01794e-05
6.1638e-05
5.88233e-05
5.90378e-05
5.7797e-05
5.80684e-05
5.80646e-05
5.84281e-05
5.92702e-05
5.96453e-05
5.78361e-05
5.81333e-05
5.81339e-05
5.85646e-05
6.03756e-05
5.88851e-05
6.02674e-05
5.93214e-05
5.98003e-05
6.05289e-05
5.90678e-05
6.04353e-05
6.08834e-05
5.90304e-05
5.84705e-05
5.80681e-05
5.84211e-05
5.78394e-05
5.75512e-05
5.96003e-05
5.78668e-05
5.81348e-05
5.85607e-05
5.7716e-05
5.74433e-05
5.94878e-05
5.70022e-05
5.5599e-05
5.97854e-05
5.77358e-05
5.96389e-05
5.69323e-05
5.55133e-05
5.56968e-05
5.83577e-05
5.70936e-05
5.75182e-05
5.70098e-05
5.62197e-05
5.57686e-05
5.76131e-05
5.64409e-05
5.73629e-05
5.67933e-05
5.61719e-05
5.55947e-05
5.47253e-05
5.53243e-05
5.36455e-05
5.74175e-05
5.61803e-05
5.45862e-05
5.5045e-05
5.34327e-05
5.4003e-05
5.69504e-05
5.63503e-05
5.58756e-05
5.55654e-05
5.54401e-05
5.54842e-05
5.63953e-05
5.68472e-05
5.58784e-05
5.5466e-05
5.55141e-05
5.56272e-05
5.36712e-05
5.56046e-05
5.64428e-05
5.61637e-05
5.72134e-05
5.34552e-05
5.57213e-05
5.6331e-05
5.82887e-05
5.638e-05
5.88037e-05
5.54724e-05
5.57327e-05
5.74048e-05
5.79756e-05
5.72328e-05
5.94554e-05
5.55469e-05
5.61627e-05
5.73566e-05
5.7871e-05
5.76768e-05
5.83931e-05
5.96098e-05
5.76361e-05
5.93e-05
5.7651e-05
5.84312e-05
5.97576e-05
6.11711e-05
5.92118e-05
6.02853e-05
5.81386e-05
5.84598e-05
5.90227e-05
5.88881e-05
5.97062e-05
6.00216e-05
5.80438e-05
5.82229e-05
5.89241e-05
5.86274e-05
5.97543e-05
5.89412e-05
5.91721e-05
5.94852e-05
5.98256e-05
5.99299e-05
5.89794e-05
5.94223e-05
5.9617e-05
6.02885e-05
5.76817e-05
5.90133e-05
5.88085e-05
5.71201e-05
5.66367e-05
5.97842e-05
5.70829e-05
5.89283e-05
5.86182e-05
5.73346e-05
5.72951e-05
5.82848e-05
5.63234e-05
5.61511e-05
5.97879e-05
5.78243e-05
5.85348e-05
5.69509e-05
5.62966e-05
5.69461e-05
5.72299e-05
5.57179e-05
5.62112e-05
5.59467e-05
5.48787e-05
5.50042e-05
5.67987e-05
5.59851e-05
5.64249e-05
5.65762e-05
5.49816e-05
5.52323e-05
5.57492e-05
5.50969e-05
5.51669e-05
5.75e-05
5.60996e-05
5.58347e-05
5.50613e-05
5.5021e-05
5.62339e-05
5.5723e-05
5.77295e-05
5.48461e-05
5.49976e-05
5.60784e-05
5.62602e-05
5.6028e-05
5.79694e-05
5.4919e-05
5.51187e-05
5.58135e-05
5.54385e-05
5.51482e-05
5.64027e-05
5.56232e-05
5.60716e-05
5.70615e-05
5.49481e-05
5.53639e-05
5.51447e-05
5.67671e-05
5.8147e-05
5.9114e-05
5.68837e-05
5.69509e-05
5.79163e-05
5.77864e-05
5.82876e-05
5.89165e-05
5.66027e-05
5.60633e-05
5.76466e-05
5.70774e-05
5.60315e-05
5.74925e-05
5.70432e-05
5.74001e-05
5.8272e-05
5.56286e-05
5.70728e-05
5.7053e-05
5.82186e-05
5.90454e-05
5.69174e-05
5.6761e-05
5.88012e-05
5.6707e-05
5.61658e-05
4.73005e-05
4.68996e-05
4.70627e-05
5.62269e-05
5.82481e-05
5.63008e-05
2.77691e-08
2.67509e-07
4.26334e-08
4.20975e-08
2.90066e-07
2.73438e-07
1.3437e-07
1.13717e-07
2.73777e-07
3.41728e-07
1.25519e-07
4.63583e-07
3.737e-07
2.2066e-07
2.27838e-07
3.00179e-07
5.04331e-06
2.60087e-07
6.61097e-06
1.30497e-05
2.04519e-05
3.60431e-07
4.85492e-06
3.17931e-07
6.48537e-06
1.49649e-07
1.71498e-07
1.5952e-07
1.97849e-07
1.4965e-07
1.71686e-07
1.59458e-07
2.70456e-07
5.20662e-07
2.19739e-07
2.51791e-07
2.76766e-07
5.08616e-07
2.19214e-07
1.37015e-05
2.12809e-05
2.55667e-07
2.45268e-07
7.14836e-07
3.39033e-07
2.62119e-07
2.4429e-07
6.82935e-07
1.85705e-06
1.86186e-06
3.55408e-07
1.82768e-06
1.83977e-06
4.85743e-07
1.00359e-05
4.03452e-07
1.24229e-05
3.54388e-05
4.52418e-05
5.51615e-07
9.56012e-06
4.612e-07
1.22216e-05
1.48692e-07
1.70469e-07
1.58444e-07
1.95654e-07
1.45764e-07
1.66625e-07
1.55155e-07
2.55841e-07