/*--------------------------------*- C++ -*----------------------------------*\
| =========                 |                                                 |
| \\      /  F ield         | OpenFOAM: The Open Source CFD Toolbox           |
|  \\    /   O peration     | Version:  v2012                                 |
|   \\  /    A nd           | Website:  www.openfoam.com                      |
|    \\/     M anipulation  |                                                 |
\*---------------------------------------------------------------------------*/
FoamFile
{
    version     2.0;
    format      ascii;
    class       volScalarField;
    location    "0.315";
    object      p;
}
// * * * * * * * * * * * * * * * * * * * * * * * * * * * * * * * * * * * * * //

dimensions      [0 2 -2 0 0 0 0];


internalField   nonuniform List<scalar> 
247104
(
1.85753e-06
1.85747e-06
1.85761e-06
1.85757e-06
1.85747e-06
1.85759e-06
1.85759e-06
1.8574e-06
1.85747e-06
1.85752e-06
1.85758e-06
1.85742e-06
1.85733e-06
1.85745e-06
1.85759e-06
1.8575e-06
1.85761e-06
1.85758e-06
1.85727e-06
1.85691e-06
1.85676e-06
1.85694e-06
1.85732e-06
1.8576e-06
1.85761e-06
1.85757e-06
1.85742e-06
1.85691e-06
1.85642e-06
1.85624e-06
1.85647e-06
1.85698e-06
1.85747e-06
1.85757e-06
1.85753e-06
1.85747e-06
1.85733e-06
1.85676e-06
1.85624e-06
1.85606e-06
1.85629e-06
1.85684e-06
1.85738e-06
1.85745e-06
1.85759e-06
1.85745e-06
1.85694e-06
1.85647e-06
1.85629e-06
1.85651e-06
1.85701e-06
1.85749e-06
1.85759e-06
1.85759e-06
1.85759e-06
1.85732e-06
1.85698e-06
1.85684e-06
1.85701e-06
1.85737e-06
1.85761e-06
1.85759e-06
1.8574e-06
1.8575e-06
1.8576e-06
1.85747e-06
1.85738e-06
1.85749e-06
1.85761e-06
1.85746e-06
1.85761e-06
1.85757e-06
1.85745e-06
1.85759e-06
1.85759e-06
1.82425e-06
1.82225e-06
1.82172e-06
1.82053e-06
1.82055e-06
1.82048e-06
1.82048e-06
1.82175e-06
1.82205e-06
1.82172e-06
1.81967e-06
1.81698e-06
1.81694e-06
1.81694e-06
1.81698e-06
1.82007e-06
1.8203e-06
1.82053e-06
1.81698e-06
1.81692e-06
1.81698e-06
1.81698e-06
1.81692e-06
1.81698e-06
1.82045e-06
1.82163e-06
1.82425e-06
1.82054e-06
1.81694e-06
1.81698e-06
1.81708e-06
1.81708e-06
1.81698e-06
1.81695e-06
1.82042e-06
1.82205e-06
1.82224e-06
1.82047e-06
1.81694e-06
1.81698e-06
1.81708e-06
1.81708e-06
1.81698e-06
1.81694e-06
1.8206e-06
1.8206e-06
1.82048e-06
1.81698e-06
1.81692e-06
1.81698e-06
1.81698e-06
1.81692e-06
1.81698e-06
1.82037e-06
1.82151e-06
1.82176e-06
1.82007e-06
1.81698e-06
1.81694e-06
1.81694e-06
1.81698e-06
1.82027e-06
1.82046e-06
1.8219e-06
1.82205e-06
1.8203e-06
1.82045e-06
1.82042e-06
1.8206e-06
1.82037e-06
1.82046e-06
1.8222e-06
1.82163e-06
1.82205e-06
1.8206e-06
1.82151e-06
1.8219e-06
1.80414e-06
1.80396e-06
1.80379e-06
1.80166e-06
1.80157e-06
1.80153e-06
1.80163e-06
1.80376e-06
1.804e-06
1.80378e-06
1.80093e-06
1.79798e-06
1.79789e-06
1.79789e-06
1.79797e-06
1.80147e-06
1.80211e-06
1.80165e-06
1.79797e-06
1.79768e-06
1.79771e-06
1.79771e-06
1.79769e-06
1.79799e-06
1.80229e-06
1.80426e-06
1.80413e-06
1.80156e-06
1.79789e-06
1.79771e-06
1.79774e-06
1.79774e-06
1.79772e-06
1.79791e-06
1.80234e-06
1.80401e-06
1.80395e-06
1.80152e-06
1.7979e-06
1.79771e-06
1.79774e-06
1.79774e-06
1.79772e-06
1.7979e-06
1.80228e-06
1.80223e-06
1.80163e-06
1.79797e-06
1.79769e-06
1.79772e-06
1.79771e-06
1.79768e-06
1.79798e-06
1.80234e-06
1.80434e-06
1.80376e-06
1.80147e-06
1.79799e-06
1.7979e-06
1.7979e-06
1.79797e-06
1.80195e-06
1.80224e-06
1.80425e-06
1.804e-06
1.8021e-06
1.80229e-06
1.80234e-06
1.80228e-06
1.80234e-06
1.80224e-06
1.80417e-06
1.80426e-06
1.80401e-06
1.80223e-06
1.80434e-06
1.80425e-06
1.78509e-06
1.78492e-06
1.78478e-06
1.78259e-06
1.7825e-06
1.7824e-06
1.78259e-06
1.78473e-06
1.785e-06
1.78477e-06
1.78182e-06
1.77888e-06
1.77884e-06
1.77884e-06
1.77887e-06
1.78235e-06
1.78312e-06
1.78258e-06
1.77887e-06
1.77874e-06
1.77875e-06
1.77875e-06
1.77874e-06
1.77888e-06
1.78326e-06
1.78521e-06
1.78508e-06
1.78249e-06
1.77883e-06
1.77875e-06
1.77875e-06
1.77875e-06
1.77875e-06
1.77884e-06
1.78332e-06
1.78495e-06
1.7849e-06
1.7824e-06
1.77883e-06
1.77875e-06
1.77875e-06
1.77875e-06
1.77875e-06
1.77884e-06
1.78329e-06
1.78322e-06
1.78259e-06
1.77887e-06
1.77874e-06
1.77875e-06
1.77875e-06
1.77874e-06
1.77888e-06
1.7833e-06
1.78528e-06
1.78472e-06
1.78234e-06
1.77887e-06
1.77884e-06
1.77884e-06
1.77888e-06
1.78305e-06
1.78325e-06
1.78524e-06
1.78499e-06
1.78312e-06
1.78325e-06
1.78332e-06
1.78329e-06
1.7833e-06
1.78325e-06
1.78525e-06
1.78521e-06
1.78494e-06
1.78322e-06
1.78528e-06
1.78524e-06
1.766e-06
1.76583e-06
1.76566e-06
1.76347e-06
1.76337e-06
1.76326e-06
1.76347e-06
1.76563e-06
1.76589e-06
1.76566e-06
1.76271e-06
1.75975e-06
1.75973e-06
1.75973e-06
1.75975e-06
1.7632e-06
1.76402e-06
1.76347e-06
1.75975e-06
1.75971e-06
1.75971e-06
1.75971e-06
1.75971e-06
1.75975e-06
1.76416e-06
1.76612e-06
1.766e-06
1.76337e-06
1.75973e-06
1.75971e-06
1.75971e-06
1.75971e-06
1.75971e-06
1.75973e-06
1.76426e-06
1.76589e-06
1.76583e-06
1.76326e-06
1.75973e-06
1.75971e-06
1.75971e-06
1.75971e-06
1.75971e-06
1.75973e-06
1.76424e-06
1.76416e-06
1.76347e-06
1.75975e-06
1.75971e-06
1.75971e-06
1.75971e-06
1.75971e-06
1.75975e-06
1.76423e-06
1.76621e-06
1.76562e-06
1.7632e-06
1.75975e-06
1.75973e-06
1.75973e-06
1.75975e-06
1.76401e-06
1.76417e-06
1.76613e-06
1.76588e-06
1.76402e-06
1.76416e-06
1.76426e-06
1.76424e-06
1.76422e-06
1.76417e-06
1.76611e-06
1.76612e-06
1.76589e-06
1.76416e-06
1.76621e-06
1.76613e-06
1.7469e-06
1.74673e-06
1.74655e-06
1.74436e-06
1.74425e-06
1.74415e-06
1.74435e-06
1.74652e-06
1.74677e-06
1.74655e-06
1.7436e-06
1.74063e-06
1.74063e-06
1.74063e-06
1.74063e-06
1.74407e-06
1.74491e-06
1.74436e-06
1.74063e-06
1.74062e-06
1.74062e-06
1.74062e-06
1.74062e-06
1.74063e-06
1.74505e-06
1.74701e-06
1.7469e-06
1.74425e-06
1.74063e-06
1.74062e-06
1.74062e-06
1.74062e-06
1.74062e-06
1.74063e-06
1.74516e-06
1.74679e-06
1.74673e-06
1.74415e-06
1.74063e-06
1.74062e-06
1.74062e-06
1.74062e-06
1.74062e-06
1.74063e-06
1.74515e-06
1.74507e-06
1.74435e-06
1.74063e-06
1.74062e-06
1.74062e-06
1.74062e-06
1.74062e-06
1.74063e-06
1.74512e-06
1.74712e-06
1.74652e-06
1.74407e-06
1.74063e-06
1.74063e-06
1.74063e-06
1.74063e-06
1.74493e-06
1.74507e-06
1.74702e-06
1.74677e-06
1.74491e-06
1.74505e-06
1.74516e-06
1.74515e-06
1.74512e-06
1.74507e-06
1.74701e-06
1.74701e-06
1.74679e-06
1.74507e-06
1.74711e-06
1.74702e-06
1.72779e-06
1.72762e-06
1.72744e-06
1.72525e-06
1.72515e-06
1.72504e-06
1.72525e-06
1.72741e-06
1.72766e-06
1.72744e-06
1.7245e-06
1.72152e-06
1.72152e-06
1.72152e-06
1.72152e-06
1.72496e-06
1.7258e-06
1.72525e-06
1.72152e-06
1.72152e-06
1.72152e-06
1.72152e-06
1.72152e-06
1.72152e-06
1.72594e-06
1.72791e-06
1.72779e-06
1.72515e-06
1.72152e-06
1.72152e-06
1.72152e-06
1.72152e-06
1.72152e-06
1.72152e-06
1.72606e-06
1.72769e-06
1.72762e-06
1.72504e-06
1.72152e-06
1.72152e-06
1.72152e-06
1.72152e-06
1.72152e-06
1.72152e-06
1.72604e-06
1.72596e-06
1.72524e-06
1.72152e-06
1.72152e-06
1.72152e-06
1.72152e-06
1.72152e-06
1.72152e-06
1.72602e-06
1.72801e-06
1.72741e-06
1.72496e-06
1.72152e-06
1.72152e-06
1.72152e-06
1.72152e-06
1.72582e-06
1.72597e-06
1.72792e-06
1.72766e-06
1.7258e-06
1.72594e-06
1.72606e-06
1.72604e-06
1.72601e-06
1.72597e-06
1.7279e-06
1.72791e-06
1.72769e-06
1.72596e-06
1.72801e-06
1.72792e-06
1.70869e-06
1.70852e-06
1.70834e-06
1.70614e-06
1.70604e-06
1.70594e-06
1.70614e-06
1.7083e-06
1.70856e-06
1.70834e-06
1.70539e-06
1.70242e-06
1.70242e-06
1.70242e-06
1.70242e-06
1.70585e-06
1.70669e-06
1.70614e-06
1.70242e-06
1.70242e-06
1.70242e-06
1.70242e-06
1.70242e-06
1.70242e-06
1.70684e-06
1.7088e-06
1.70869e-06
1.70604e-06
1.70242e-06
1.70242e-06
1.70242e-06
1.70242e-06
1.70242e-06
1.70242e-06
1.70695e-06
1.70859e-06
1.70852e-06
1.70594e-06
1.70242e-06
1.70242e-06
1.70242e-06
1.70242e-06
1.70242e-06
1.70242e-06
1.70694e-06
1.70686e-06
1.70614e-06
1.70242e-06
1.70242e-06
1.70242e-06
1.70242e-06
1.70242e-06
1.70242e-06
1.70691e-06
1.70891e-06
1.7083e-06
1.70585e-06
1.70242e-06
1.70242e-06
1.70242e-06
1.70242e-06
1.70672e-06
1.70686e-06
1.70881e-06
1.70856e-06
1.70669e-06
1.70684e-06
1.70695e-06
1.70694e-06
1.70691e-06
1.70686e-06
1.70879e-06
1.7088e-06
1.70859e-06
1.70686e-06
1.70891e-06
1.70881e-06
1.68958e-06
1.68941e-06
1.68923e-06
1.68704e-06
1.68693e-06
1.68683e-06
1.68703e-06
1.6892e-06
1.68945e-06
1.68923e-06
1.68629e-06
1.68331e-06
1.68331e-06
1.68331e-06
1.68331e-06
1.68674e-06
1.68758e-06
1.68704e-06
1.68331e-06
1.68331e-06
1.68331e-06
1.68331e-06
1.68331e-06
1.68331e-06
1.68773e-06
1.6897e-06
1.68958e-06
1.68693e-06
1.68331e-06
1.68331e-06
1.68331e-06
1.68331e-06
1.68331e-06
1.68331e-06
1.68785e-06
1.68948e-06
1.68941e-06
1.68683e-06
1.68331e-06
1.68331e-06
1.68331e-06
1.68331e-06
1.68331e-06
1.68331e-06
1.68783e-06
1.68775e-06
1.68703e-06
1.68331e-06
1.68331e-06
1.68331e-06
1.68331e-06
1.68331e-06
1.68331e-06
1.68781e-06
1.6898e-06
1.6892e-06
1.68674e-06
1.68331e-06
1.68331e-06
1.68331e-06
1.68331e-06
1.68761e-06
1.68776e-06
1.6897e-06
1.68945e-06
1.68759e-06
1.68773e-06
1.68785e-06
1.68783e-06
1.6878e-06
1.68776e-06
1.68968e-06
1.68969e-06
1.68948e-06
1.68775e-06
1.6898e-06
1.6897e-06
1.67047e-06
1.67031e-06
1.67013e-06
1.66793e-06
1.66783e-06
1.66773e-06
1.66793e-06
1.67009e-06
1.67035e-06
1.67012e-06
1.66718e-06
1.66421e-06
1.66421e-06
1.66421e-06
1.66421e-06
1.66764e-06
1.66848e-06
1.66793e-06
1.66421e-06
1.66421e-06
1.66421e-06
1.66421e-06
1.66421e-06
1.66421e-06
1.66863e-06
1.67059e-06
1.67048e-06
1.66783e-06
1.66421e-06
1.66421e-06
1.66421e-06
1.66421e-06
1.66421e-06
1.66421e-06
1.66874e-06
1.67037e-06
1.67031e-06
1.66773e-06
1.66421e-06
1.66421e-06
1.66421e-06
1.66421e-06
1.66421e-06
1.66421e-06
1.66873e-06
1.66865e-06
1.66793e-06
1.66421e-06
1.66421e-06
1.66421e-06
1.66421e-06
1.66421e-06
1.66421e-06
1.6687e-06
1.6707e-06
1.67009e-06
1.66764e-06
1.66421e-06
1.66421e-06
1.66421e-06
1.66421e-06
1.66851e-06
1.66865e-06
1.6706e-06
1.67035e-06
1.66848e-06
1.66863e-06
1.66874e-06
1.66873e-06
1.6687e-06
1.66865e-06
1.67058e-06
1.67059e-06
1.67037e-06
1.66865e-06
1.6707e-06
1.6706e-06
1.65137e-06
1.6512e-06
1.65102e-06
1.64883e-06
1.64872e-06
1.64862e-06
1.64882e-06
1.65099e-06
1.65124e-06
1.65102e-06
1.64808e-06
1.6451e-06
1.6451e-06
1.6451e-06
1.6451e-06
1.64853e-06
1.64937e-06
1.64883e-06
1.6451e-06
1.6451e-06
1.6451e-06
1.6451e-06
1.6451e-06
1.6451e-06
1.64952e-06
1.65149e-06
1.65137e-06
1.64872e-06
1.6451e-06
1.6451e-06
1.6451e-06
1.6451e-06
1.6451e-06
1.6451e-06
1.64964e-06
1.65127e-06
1.6512e-06
1.64862e-06
1.6451e-06
1.6451e-06
1.6451e-06
1.6451e-06
1.6451e-06
1.6451e-06
1.64962e-06
1.64954e-06
1.64882e-06
1.6451e-06
1.6451e-06
1.6451e-06
1.6451e-06
1.6451e-06
1.6451e-06
1.64959e-06
1.65159e-06
1.65099e-06
1.64853e-06
1.6451e-06
1.6451e-06
1.6451e-06
1.6451e-06
1.6494e-06
1.64955e-06
1.65149e-06
1.65124e-06
1.64938e-06
1.64952e-06
1.64964e-06
1.64962e-06
1.64959e-06
1.64955e-06
1.65147e-06
1.65148e-06
1.65127e-06
1.64954e-06
1.65159e-06
1.65149e-06
1.63226e-06
1.6321e-06
1.63191e-06
1.62972e-06
1.62962e-06
1.62952e-06
1.62972e-06
1.63188e-06
1.63214e-06
1.63191e-06
1.62897e-06
1.626e-06
1.626e-06
1.626e-06
1.626e-06
1.62943e-06
1.63027e-06
1.62972e-06
1.626e-06
1.626e-06
1.626e-06
1.626e-06
1.626e-06
1.626e-06
1.63042e-06
1.63238e-06
1.63227e-06
1.62962e-06
1.626e-06
1.626e-06
1.626e-06
1.626e-06
1.626e-06
1.626e-06
1.63053e-06
1.63216e-06
1.6321e-06
1.62952e-06
1.626e-06
1.626e-06
1.626e-06
1.626e-06
1.626e-06
1.626e-06
1.63052e-06
1.63044e-06
1.62972e-06
1.626e-06
1.626e-06
1.626e-06
1.626e-06
1.626e-06
1.626e-06
1.63049e-06
1.63249e-06
1.63188e-06
1.62943e-06
1.626e-06
1.626e-06
1.626e-06
1.626e-06
1.6303e-06
1.63044e-06
1.63239e-06
1.63214e-06
1.63027e-06
1.63042e-06
1.63053e-06
1.63052e-06
1.63049e-06
1.63044e-06
1.63237e-06
1.63238e-06
1.63216e-06
1.63044e-06
1.63249e-06
1.63239e-06
1.61316e-06
1.61299e-06
1.61281e-06
1.61062e-06
1.61051e-06
1.61041e-06
1.61061e-06
1.61278e-06
1.61303e-06
1.61281e-06
1.60987e-06
1.60689e-06
1.60689e-06
1.60689e-06
1.60689e-06
1.61032e-06
1.61117e-06
1.61062e-06
1.60689e-06
1.60689e-06
1.60689e-06
1.60689e-06
1.60689e-06
1.60689e-06
1.61131e-06
1.61328e-06
1.61316e-06
1.61051e-06
1.60689e-06
1.60689e-06
1.60689e-06
1.60689e-06
1.60689e-06
1.60689e-06
1.61143e-06
1.61306e-06
1.61299e-06
1.61041e-06
1.60689e-06
1.60689e-06
1.60689e-06
1.60689e-06
1.60689e-06
1.60689e-06
1.61141e-06
1.61133e-06
1.61061e-06
1.60689e-06
1.60689e-06
1.60689e-06
1.60689e-06
1.60689e-06
1.60689e-06
1.61139e-06
1.61338e-06
1.61278e-06
1.61032e-06
1.60689e-06
1.60689e-06
1.60689e-06
1.60689e-06
1.6112e-06
1.61134e-06
1.61328e-06
1.61303e-06
1.61117e-06
1.61131e-06
1.61143e-06
1.61141e-06
1.61138e-06
1.61134e-06
1.61326e-06
1.61328e-06
1.61306e-06
1.61133e-06
1.61338e-06
1.61328e-06
1.59406e-06
1.59389e-06
1.5937e-06
1.59151e-06
1.59141e-06
1.59131e-06
1.59151e-06
1.59368e-06
1.59393e-06
1.5937e-06
1.59076e-06
1.58779e-06
1.58779e-06
1.58779e-06
1.58779e-06
1.59122e-06
1.59206e-06
1.59151e-06
1.58779e-06
1.58779e-06
1.58779e-06
1.58779e-06
1.58779e-06
1.58779e-06
1.59221e-06
1.59417e-06
1.59406e-06
1.59141e-06
1.58779e-06
1.58779e-06
1.58779e-06
1.58779e-06
1.58779e-06
1.58779e-06
1.59232e-06
1.59396e-06
1.59389e-06
1.59131e-06
1.58779e-06
1.58779e-06
1.58779e-06
1.58779e-06
1.58779e-06
1.58779e-06
1.59231e-06
1.59223e-06
1.59151e-06
1.58779e-06
1.58779e-06
1.58779e-06
1.58779e-06
1.58779e-06
1.58779e-06
1.59228e-06
1.59428e-06
1.59368e-06
1.59122e-06
1.58779e-06
1.58779e-06
1.58779e-06
1.58779e-06
1.59209e-06
1.59223e-06
1.59418e-06
1.59393e-06
1.59206e-06
1.59221e-06
1.59232e-06
1.59231e-06
1.59228e-06
1.59223e-06
1.59416e-06
1.59417e-06
1.59396e-06
1.59223e-06
1.59428e-06
1.59418e-06
1.57495e-06
1.57478e-06
1.5746e-06
1.57241e-06
1.5723e-06
1.5722e-06
1.5724e-06
1.57457e-06
1.57482e-06
1.5746e-06
1.57166e-06
1.56868e-06
1.56868e-06
1.56868e-06
1.56868e-06
1.57211e-06
1.57295e-06
1.57241e-06
1.56868e-06
1.56868e-06
1.56868e-06
1.56868e-06
1.56868e-06
1.56868e-06
1.5731e-06
1.57507e-06
1.57495e-06
1.5723e-06
1.56868e-06
1.56868e-06
1.56868e-06
1.56868e-06
1.56868e-06
1.56868e-06
1.57322e-06
1.57485e-06
1.57478e-06
1.5722e-06
1.56868e-06
1.56868e-06
1.56868e-06
1.56868e-06
1.56868e-06
1.56868e-06
1.5732e-06
1.57312e-06
1.5724e-06
1.56868e-06
1.56868e-06
1.56868e-06
1.56868e-06
1.56868e-06
1.56868e-06
1.57318e-06
1.57517e-06
1.57457e-06
1.57211e-06
1.56868e-06
1.56868e-06
1.56868e-06
1.56868e-06
1.57299e-06
1.57313e-06
1.57507e-06
1.57482e-06
1.57296e-06
1.5731e-06
1.57322e-06
1.5732e-06
1.57317e-06
1.57313e-06
1.57505e-06
1.57507e-06
1.57485e-06
1.57312e-06
1.57517e-06
1.57507e-06
1.55584e-06
1.55568e-06
1.55549e-06
1.5533e-06
1.5532e-06
1.5531e-06
1.5533e-06
1.55546e-06
1.55572e-06
1.55549e-06
1.55255e-06
1.54958e-06
1.54958e-06
1.54958e-06
1.54958e-06
1.55301e-06
1.55385e-06
1.5533e-06
1.54958e-06
1.54958e-06
1.54958e-06
1.54958e-06
1.54958e-06
1.54958e-06
1.554e-06
1.55596e-06
1.55585e-06
1.5532e-06
1.54958e-06
1.54958e-06
1.54958e-06
1.54958e-06
1.54958e-06
1.54958e-06
1.55411e-06
1.55575e-06
1.55568e-06
1.5531e-06
1.54958e-06
1.54958e-06
1.54958e-06
1.54958e-06
1.54958e-06
1.54958e-06
1.5541e-06
1.55402e-06
1.5533e-06
1.54958e-06
1.54958e-06
1.54958e-06
1.54958e-06
1.54958e-06
1.54958e-06
1.55407e-06
1.55607e-06
1.55546e-06
1.55301e-06
1.54958e-06
1.54958e-06
1.54958e-06
1.54958e-06
1.55388e-06
1.55402e-06
1.55597e-06
1.55572e-06
1.55385e-06
1.554e-06
1.55411e-06
1.5541e-06
1.55407e-06
1.55402e-06
1.55595e-06
1.55596e-06
1.55575e-06
1.55402e-06
1.55607e-06
1.55597e-06
1.53674e-06
1.53657e-06
1.53639e-06
1.5342e-06
1.5341e-06
1.53399e-06
1.53419e-06
1.53636e-06
1.53661e-06
1.53639e-06
1.53345e-06
1.53047e-06
1.53047e-06
1.53047e-06
1.53047e-06
1.5339e-06
1.53475e-06
1.5342e-06
1.53047e-06
1.53047e-06
1.53047e-06
1.53047e-06
1.53047e-06
1.53047e-06
1.53489e-06
1.53686e-06
1.53674e-06
1.53409e-06
1.53047e-06
1.53047e-06
1.53047e-06
1.53047e-06
1.53047e-06
1.53047e-06
1.53501e-06
1.53664e-06
1.53657e-06
1.53399e-06
1.53047e-06
1.53047e-06
1.53047e-06
1.53047e-06
1.53047e-06
1.53047e-06
1.535e-06
1.53491e-06
1.53419e-06
1.53047e-06
1.53047e-06
1.53047e-06
1.53047e-06
1.53047e-06
1.53047e-06
1.53497e-06
1.53696e-06
1.53636e-06
1.53391e-06
1.53047e-06
1.53047e-06
1.53047e-06
1.53047e-06
1.53478e-06
1.53492e-06
1.53686e-06
1.53661e-06
1.53475e-06
1.53489e-06
1.53501e-06
1.535e-06
1.53496e-06
1.53492e-06
1.53684e-06
1.53686e-06
1.53664e-06
1.53491e-06
1.53696e-06
1.53687e-06
1.51764e-06
1.51747e-06
1.51729e-06
1.51509e-06
1.51499e-06
1.51489e-06
1.51509e-06
1.51725e-06
1.51751e-06
1.51729e-06
1.51434e-06
1.51137e-06
1.51137e-06
1.51137e-06
1.51137e-06
1.5148e-06
1.51564e-06
1.51509e-06
1.51137e-06
1.51137e-06
1.51137e-06
1.51137e-06
1.51137e-06
1.51137e-06
1.51579e-06
1.51775e-06
1.51764e-06
1.51499e-06
1.51137e-06
1.51137e-06
1.51137e-06
1.51137e-06
1.51137e-06
1.51137e-06
1.5159e-06
1.51754e-06
1.51747e-06
1.51489e-06
1.51137e-06
1.51137e-06
1.51137e-06
1.51137e-06
1.51137e-06
1.51137e-06
1.51589e-06
1.51581e-06
1.51509e-06
1.51137e-06
1.51137e-06
1.51137e-06
1.51137e-06
1.51137e-06
1.51137e-06
1.51586e-06
1.51786e-06
1.51726e-06
1.5148e-06
1.51137e-06
1.51137e-06
1.51137e-06
1.51137e-06
1.51567e-06
1.51581e-06
1.51776e-06
1.51751e-06
1.51564e-06
1.51579e-06
1.5159e-06
1.51589e-06
1.51586e-06
1.51581e-06
1.51774e-06
1.51775e-06
1.51754e-06
1.51581e-06
1.51786e-06
1.51776e-06
1.49853e-06
1.49836e-06
1.49818e-06
1.49599e-06
1.49589e-06
1.49578e-06
1.49598e-06
1.49815e-06
1.4984e-06
1.49818e-06
1.49524e-06
1.49226e-06
1.49226e-06
1.49226e-06
1.49226e-06
1.4957e-06
1.49654e-06
1.49599e-06
1.49226e-06
1.49226e-06
1.49226e-06
1.49226e-06
1.49226e-06
1.49226e-06
1.49668e-06
1.49865e-06
1.49853e-06
1.49589e-06
1.49226e-06
1.49226e-06
1.49226e-06
1.49226e-06
1.49226e-06
1.49226e-06
1.4968e-06
1.49843e-06
1.49836e-06
1.49578e-06
1.49226e-06
1.49226e-06
1.49226e-06
1.49226e-06
1.49226e-06
1.49226e-06
1.49679e-06
1.4967e-06
1.49598e-06
1.49226e-06
1.49226e-06
1.49226e-06
1.49226e-06
1.49226e-06
1.49226e-06
1.49676e-06
1.49875e-06
1.49815e-06
1.4957e-06
1.49226e-06
1.49226e-06
1.49226e-06
1.49226e-06
1.49657e-06
1.49671e-06
1.49866e-06
1.4984e-06
1.49654e-06
1.49668e-06
1.4968e-06
1.49679e-06
1.49675e-06
1.49671e-06
1.49864e-06
1.49865e-06
1.49843e-06
1.4967e-06
1.49875e-06
1.49866e-06
1.47943e-06
1.47926e-06
1.47908e-06
1.47688e-06
1.47678e-06
1.47668e-06
1.47688e-06
1.47905e-06
1.4793e-06
1.47908e-06
1.47613e-06
1.47316e-06
1.47316e-06
1.47316e-06
1.47316e-06
1.47659e-06
1.47743e-06
1.47688e-06
1.47316e-06
1.47316e-06
1.47316e-06
1.47316e-06
1.47316e-06
1.47316e-06
1.47758e-06
1.47954e-06
1.47943e-06
1.47678e-06
1.47316e-06
1.47316e-06
1.47316e-06
1.47316e-06
1.47316e-06
1.47316e-06
1.4777e-06
1.47933e-06
1.47926e-06
1.47668e-06
1.47316e-06
1.47316e-06
1.47316e-06
1.47316e-06
1.47316e-06
1.47316e-06
1.47768e-06
1.4776e-06
1.47688e-06
1.47316e-06
1.47316e-06
1.47316e-06
1.47316e-06
1.47316e-06
1.47316e-06
1.47765e-06
1.47965e-06
1.47905e-06
1.47659e-06
1.47316e-06
1.47316e-06
1.47316e-06
1.47316e-06
1.47746e-06
1.47761e-06
1.47955e-06
1.4793e-06
1.47743e-06
1.47758e-06
1.47769e-06
1.47768e-06
1.47765e-06
1.47761e-06
1.47953e-06
1.47954e-06
1.47933e-06
1.4776e-06
1.47965e-06
1.47955e-06
1.46032e-06
1.46015e-06
1.45997e-06
1.45778e-06
1.45768e-06
1.45757e-06
1.45778e-06
1.45994e-06
1.4602e-06
1.45997e-06
1.45703e-06
1.45405e-06
1.45405e-06
1.45405e-06
1.45406e-06
1.45749e-06
1.45833e-06
1.45778e-06
1.45406e-06
1.45406e-06
1.45406e-06
1.45406e-06
1.45406e-06
1.45406e-06
1.45847e-06
1.46044e-06
1.46033e-06
1.45768e-06
1.45405e-06
1.45406e-06
1.45406e-06
1.45406e-06
1.45406e-06
1.45405e-06
1.45859e-06
1.46022e-06
1.46015e-06
1.45758e-06
1.45406e-06
1.45406e-06
1.45406e-06
1.45406e-06
1.45406e-06
1.45406e-06
1.45858e-06
1.45849e-06
1.45778e-06
1.45406e-06
1.45406e-06
1.45406e-06
1.45406e-06
1.45406e-06
1.45405e-06
1.45855e-06
1.46055e-06
1.45994e-06
1.45749e-06
1.45405e-06
1.45405e-06
1.45405e-06
1.45405e-06
1.45836e-06
1.4585e-06
1.46045e-06
1.4602e-06
1.45833e-06
1.45847e-06
1.45859e-06
1.45858e-06
1.45855e-06
1.4585e-06
1.46043e-06
1.46044e-06
1.46022e-06
1.45849e-06
1.46054e-06
1.46045e-06
1.44122e-06
1.44105e-06
1.44087e-06
1.43868e-06
1.43857e-06
1.43847e-06
1.43867e-06
1.44084e-06
1.44109e-06
1.44087e-06
1.43793e-06
1.43495e-06
1.43495e-06
1.43495e-06
1.43495e-06
1.43838e-06
1.43923e-06
1.43868e-06
1.43495e-06
1.43495e-06
1.43495e-06
1.43495e-06
1.43495e-06
1.43495e-06
1.43937e-06
1.44134e-06
1.44122e-06
1.43857e-06
1.43495e-06
1.43495e-06
1.43495e-06
1.43495e-06
1.43495e-06
1.43495e-06
1.43949e-06
1.44112e-06
1.44105e-06
1.43847e-06
1.43495e-06
1.43495e-06
1.43495e-06
1.43495e-06
1.43495e-06
1.43495e-06
1.43948e-06
1.43939e-06
1.43867e-06
1.43495e-06
1.43495e-06
1.43495e-06
1.43495e-06
1.43495e-06
1.43495e-06
1.43945e-06
1.44144e-06
1.44084e-06
1.43838e-06
1.43495e-06
1.43495e-06
1.43495e-06
1.43495e-06
1.43926e-06
1.4394e-06
1.44134e-06
1.44109e-06
1.43923e-06
1.43937e-06
1.43949e-06
1.43947e-06
1.43944e-06
1.4394e-06
1.44132e-06
1.44134e-06
1.44112e-06
1.43939e-06
1.44144e-06
1.44134e-06
1.42212e-06
1.42195e-06
1.42177e-06
1.41958e-06
1.41947e-06
1.41937e-06
1.41957e-06
1.42173e-06
1.42199e-06
1.42177e-06
1.41882e-06
1.41585e-06
1.41585e-06
1.41585e-06
1.41585e-06
1.41928e-06
1.42012e-06
1.41957e-06
1.41585e-06
1.41585e-06
1.41585e-06
1.41585e-06
1.41585e-06
1.41585e-06
1.42027e-06
1.42223e-06
1.42212e-06
1.41947e-06
1.41585e-06
1.41585e-06
1.41585e-06
1.41585e-06
1.41585e-06
1.41585e-06
1.42039e-06
1.42202e-06
1.42195e-06
1.41937e-06
1.41585e-06
1.41585e-06
1.41585e-06
1.41585e-06
1.41585e-06
1.41585e-06
1.42037e-06
1.42029e-06
1.41957e-06
1.41585e-06
1.41585e-06
1.41585e-06
1.41585e-06
1.41585e-06
1.41585e-06
1.42034e-06
1.42234e-06
1.42174e-06
1.41928e-06
1.41585e-06
1.41585e-06
1.41585e-06
1.41585e-06
1.42015e-06
1.4203e-06
1.42224e-06
1.42199e-06
1.42012e-06
1.42027e-06
1.42038e-06
1.42037e-06
1.42034e-06
1.4203e-06
1.42222e-06
1.42223e-06
1.42202e-06
1.42029e-06
1.42234e-06
1.42224e-06
1.40301e-06
1.40285e-06
1.40266e-06
1.40047e-06
1.40037e-06
1.40027e-06
1.40047e-06
1.40263e-06
1.40289e-06
1.40266e-06
1.39972e-06
1.39675e-06
1.39675e-06
1.39675e-06
1.39675e-06
1.40018e-06
1.40102e-06
1.40047e-06
1.39675e-06
1.39675e-06
1.39675e-06
1.39675e-06
1.39675e-06
1.39675e-06
1.40117e-06
1.40313e-06
1.40302e-06
1.40037e-06
1.39675e-06
1.39675e-06
1.39675e-06
1.39675e-06
1.39675e-06
1.39675e-06
1.40128e-06
1.40291e-06
1.40285e-06
1.40027e-06
1.39675e-06
1.39675e-06
1.39675e-06
1.39675e-06
1.39675e-06
1.39675e-06
1.40127e-06
1.40119e-06
1.40047e-06
1.39675e-06
1.39675e-06
1.39675e-06
1.39675e-06
1.39675e-06
1.39675e-06
1.40124e-06
1.40324e-06
1.40263e-06
1.40018e-06
1.39675e-06
1.39675e-06
1.39675e-06
1.39675e-06
1.40105e-06
1.40119e-06
1.40314e-06
1.40289e-06
1.40102e-06
1.40117e-06
1.40128e-06
1.40127e-06
1.40124e-06
1.40119e-06
1.40312e-06
1.40313e-06
1.40291e-06
1.40119e-06
1.40323e-06
1.40314e-06
1.38391e-06
1.38374e-06
1.38356e-06
1.38137e-06
1.38126e-06
1.38116e-06
1.38136e-06
1.38353e-06
1.38378e-06
1.38356e-06
1.38062e-06
1.37764e-06
1.37764e-06
1.37764e-06
1.37764e-06
1.38107e-06
1.38192e-06
1.38137e-06
1.37764e-06
1.37764e-06
1.37764e-06
1.37764e-06
1.37764e-06
1.37764e-06
1.38206e-06
1.38403e-06
1.38391e-06
1.38126e-06
1.37764e-06
1.37764e-06
1.37764e-06
1.37764e-06
1.37764e-06
1.37764e-06
1.38218e-06
1.38381e-06
1.38374e-06
1.38116e-06
1.37764e-06
1.37764e-06
1.37764e-06
1.37764e-06
1.37764e-06
1.37764e-06
1.38216e-06
1.38208e-06
1.38136e-06
1.37764e-06
1.37764e-06
1.37764e-06
1.37764e-06
1.37764e-06
1.37764e-06
1.38214e-06
1.38413e-06
1.38353e-06
1.38107e-06
1.37764e-06
1.37764e-06
1.37764e-06
1.37764e-06
1.38195e-06
1.38209e-06
1.38403e-06
1.38378e-06
1.38192e-06
1.38206e-06
1.38218e-06
1.38216e-06
1.38213e-06
1.38209e-06
1.38401e-06
1.38403e-06
1.38381e-06
1.38208e-06
1.38413e-06
1.38403e-06
1.36481e-06
1.36464e-06
1.36446e-06
1.36226e-06
1.36216e-06
1.36206e-06
1.36226e-06
1.36442e-06
1.36468e-06
1.36446e-06
1.36151e-06
1.35854e-06
1.35854e-06
1.35854e-06
1.35854e-06
1.36197e-06
1.36281e-06
1.36226e-06
1.35854e-06
1.35854e-06
1.35854e-06
1.35854e-06
1.35854e-06
1.35854e-06
1.36296e-06
1.36492e-06
1.36481e-06
1.36216e-06
1.35854e-06
1.35854e-06
1.35854e-06
1.35854e-06
1.35854e-06
1.35854e-06
1.36307e-06
1.36471e-06
1.36464e-06
1.36206e-06
1.35854e-06
1.35854e-06
1.35854e-06
1.35854e-06
1.35854e-06
1.35854e-06
1.36306e-06
1.36298e-06
1.36226e-06
1.35854e-06
1.35854e-06
1.35854e-06
1.35854e-06
1.35854e-06
1.35854e-06
1.36303e-06
1.36503e-06
1.36443e-06
1.36197e-06
1.35854e-06
1.35854e-06
1.35854e-06
1.35854e-06
1.36284e-06
1.36298e-06
1.36493e-06
1.36468e-06
1.36281e-06
1.36296e-06
1.36307e-06
1.36306e-06
1.36303e-06
1.36298e-06
1.36491e-06
1.36492e-06
1.36471e-06
1.36298e-06
1.36503e-06
1.36493e-06
1.3457e-06
1.34553e-06
1.34535e-06
1.34316e-06
1.34306e-06
1.34295e-06
1.34316e-06
1.34532e-06
1.34557e-06
1.34535e-06
1.34241e-06
1.33943e-06
1.33943e-06
1.33943e-06
1.33943e-06
1.34287e-06
1.34371e-06
1.34316e-06
1.33943e-06
1.33943e-06
1.33943e-06
1.33943e-06
1.33943e-06
1.33943e-06
1.34385e-06
1.34582e-06
1.34571e-06
1.34306e-06
1.33943e-06
1.33943e-06
1.33943e-06
1.33943e-06
1.33943e-06
1.33943e-06
1.34397e-06
1.3456e-06
1.34553e-06
1.34295e-06
1.33943e-06
1.33943e-06
1.33943e-06
1.33943e-06
1.33943e-06
1.33943e-06
1.34396e-06
1.34387e-06
1.34316e-06
1.33943e-06
1.33943e-06
1.33943e-06
1.33943e-06
1.33943e-06
1.33943e-06
1.34393e-06
1.34592e-06
1.34532e-06
1.34287e-06
1.33943e-06
1.33943e-06
1.33943e-06
1.33943e-06
1.34374e-06
1.34388e-06
1.34583e-06
1.34558e-06
1.34371e-06
1.34385e-06
1.34397e-06
1.34396e-06
1.34393e-06
1.34388e-06
1.34581e-06
1.34582e-06
1.3456e-06
1.34387e-06
1.34592e-06
1.34583e-06
1.3266e-06
1.32643e-06
1.32625e-06
1.32406e-06
1.32395e-06
1.32385e-06
1.32405e-06
1.32622e-06
1.32647e-06
1.32625e-06
1.32331e-06
1.32033e-06
1.32033e-06
1.32033e-06
1.32033e-06
1.32376e-06
1.3246e-06
1.32406e-06
1.32033e-06
1.32033e-06
1.32033e-06
1.32033e-06
1.32033e-06
1.32033e-06
1.32475e-06
1.32672e-06
1.3266e-06
1.32395e-06
1.32033e-06
1.32033e-06
1.32033e-06
1.32033e-06
1.32033e-06
1.32033e-06
1.32487e-06
1.3265e-06
1.32643e-06
1.32385e-06
1.32033e-06
1.32033e-06
1.32033e-06
1.32033e-06
1.32033e-06
1.32033e-06
1.32485e-06
1.32477e-06
1.32405e-06
1.32033e-06
1.32033e-06
1.32033e-06
1.32033e-06
1.32033e-06
1.32033e-06
1.32483e-06
1.32682e-06
1.32622e-06
1.32376e-06
1.32033e-06
1.32033e-06
1.32033e-06
1.32033e-06
1.32464e-06
1.32478e-06
1.32672e-06
1.32647e-06
1.32461e-06
1.32475e-06
1.32487e-06
1.32485e-06
1.32482e-06
1.32478e-06
1.3267e-06
1.32672e-06
1.3265e-06
1.32477e-06
1.32682e-06
1.32672e-06
1.30749e-06
1.30733e-06
1.30714e-06
1.30495e-06
1.30485e-06
1.30475e-06
1.30495e-06
1.30711e-06
1.30737e-06
1.30714e-06
1.3042e-06
1.30123e-06
1.30123e-06
1.30123e-06
1.30123e-06
1.30466e-06
1.3055e-06
1.30495e-06
1.30123e-06
1.30123e-06
1.30123e-06
1.30123e-06
1.30123e-06
1.30123e-06
1.30565e-06
1.30761e-06
1.3075e-06
1.30485e-06
1.30123e-06
1.30123e-06
1.30123e-06
1.30123e-06
1.30123e-06
1.30123e-06
1.30576e-06
1.3074e-06
1.30733e-06
1.30475e-06
1.30123e-06
1.30123e-06
1.30123e-06
1.30123e-06
1.30123e-06
1.30123e-06
1.30575e-06
1.30567e-06
1.30495e-06
1.30123e-06
1.30123e-06
1.30123e-06
1.30123e-06
1.30123e-06
1.30123e-06
1.30572e-06
1.30772e-06
1.30711e-06
1.30466e-06
1.30123e-06
1.30123e-06
1.30123e-06
1.30123e-06
1.30553e-06
1.30567e-06
1.30762e-06
1.30737e-06
1.3055e-06
1.30565e-06
1.30576e-06
1.30575e-06
1.30572e-06
1.30567e-06
1.3076e-06
1.30761e-06
1.3074e-06
1.30567e-06
1.30772e-06
1.30762e-06
1.28839e-06
1.28822e-06
1.28804e-06
1.28585e-06
1.28574e-06
1.28564e-06
1.28584e-06
1.28801e-06
1.28826e-06
1.28804e-06
1.2851e-06
1.28212e-06
1.28212e-06
1.28212e-06
1.28212e-06
1.28555e-06
1.28639e-06
1.28585e-06
1.28212e-06
1.28212e-06
1.28212e-06
1.28212e-06
1.28212e-06
1.28212e-06
1.28654e-06
1.28851e-06
1.28839e-06
1.28574e-06
1.28212e-06
1.28212e-06
1.28212e-06
1.28212e-06
1.28212e-06
1.28212e-06
1.28666e-06
1.28829e-06
1.28822e-06
1.28564e-06
1.28212e-06
1.28212e-06
1.28212e-06
1.28212e-06
1.28212e-06
1.28212e-06
1.28664e-06
1.28656e-06
1.28584e-06
1.28212e-06
1.28212e-06
1.28212e-06
1.28212e-06
1.28212e-06
1.28212e-06
1.28662e-06
1.28861e-06
1.28801e-06
1.28555e-06
1.28212e-06
1.28212e-06
1.28212e-06
1.28212e-06
1.28643e-06
1.28657e-06
1.28851e-06
1.28826e-06
1.2864e-06
1.28654e-06
1.28666e-06
1.28664e-06
1.28661e-06
1.28657e-06
1.28849e-06
1.28851e-06
1.28829e-06
1.28656e-06
1.28861e-06
1.28851e-06
1.26928e-06
1.26912e-06
1.26893e-06
1.26674e-06
1.26664e-06
1.26654e-06
1.26674e-06
1.2689e-06
1.26916e-06
1.26893e-06
1.26599e-06
1.26302e-06
1.26302e-06
1.26302e-06
1.26302e-06
1.26645e-06
1.26729e-06
1.26674e-06
1.26302e-06
1.26302e-06
1.26302e-06
1.26302e-06
1.26302e-06
1.26302e-06
1.26744e-06
1.2694e-06
1.26929e-06
1.26664e-06
1.26302e-06
1.26302e-06
1.26302e-06
1.26302e-06
1.26302e-06
1.26302e-06
1.26755e-06
1.26919e-06
1.26912e-06
1.26654e-06
1.26302e-06
1.26302e-06
1.26302e-06
1.26302e-06
1.26302e-06
1.26302e-06
1.26754e-06
1.26746e-06
1.26674e-06
1.26302e-06
1.26302e-06
1.26302e-06
1.26302e-06
1.26302e-06
1.26302e-06
1.26751e-06
1.26951e-06
1.2689e-06
1.26645e-06
1.26302e-06
1.26302e-06
1.26302e-06
1.26302e-06
1.26732e-06
1.26746e-06
1.26941e-06
1.26916e-06
1.26729e-06
1.26744e-06
1.26755e-06
1.26754e-06
1.26751e-06
1.26746e-06
1.26939e-06
1.2694e-06
1.26919e-06
1.26746e-06
1.26951e-06
1.26941e-06
1.25018e-06
1.25001e-06
1.24983e-06
1.24764e-06
1.24753e-06
1.24743e-06
1.24763e-06
1.2498e-06
1.25005e-06
1.24983e-06
1.24689e-06
1.24391e-06
1.24391e-06
1.24391e-06
1.24391e-06
1.24734e-06
1.24819e-06
1.24764e-06
1.24391e-06
1.24391e-06
1.24391e-06
1.24391e-06
1.24391e-06
1.24391e-06
1.24833e-06
1.2503e-06
1.25018e-06
1.24753e-06
1.24391e-06
1.24391e-06
1.24391e-06
1.24391e-06
1.24391e-06
1.24391e-06
1.24845e-06
1.25008e-06
1.25001e-06
1.24743e-06
1.24391e-06
1.24391e-06
1.24391e-06
1.24391e-06
1.24391e-06
1.24391e-06
1.24844e-06
1.24835e-06
1.24763e-06
1.24391e-06
1.24391e-06
1.24391e-06
1.24391e-06
1.24391e-06
1.24391e-06
1.24841e-06
1.2504e-06
1.2498e-06
1.24734e-06
1.24391e-06
1.24391e-06
1.24391e-06
1.24391e-06
1.24822e-06
1.24836e-06
1.2503e-06