/*--------------------------------*- C++ -*----------------------------------*\
| =========                 |                                                 |
| \\      /  F ield         | OpenFOAM: The Open Source CFD Toolbox           |
|  \\    /   O peration     | Version:  v2012                                 |
|   \\  /    A nd           | Website:  www.openfoam.com                      |
|    \\/     M anipulation  |                                                 |
\*---------------------------------------------------------------------------*/
FoamFile
{
    version     2.0;
    format      ascii;
    class       volScalarField;
    location    "262.5";
    object      epsilon;
}
// * * * * * * * * * * * * * * * * * * * * * * * * * * * * * * * * * * * * * //

dimensions      [0 2 -3 0 0 0 0];


internalField   nonuniform List<scalar> 
171728
(
5.47364e-09
3.80617e-09
4.66829e-09
4.84563e-09
5.43652e-09
3.51562e-09
4.27729e-09
4.41564e-09
5.44107e-09
3.24489e-09
3.92078e-09
4.05316e-09
5.45076e-09
2.99934e-09
3.61317e-09
3.71978e-09
5.46559e-09
2.76529e-09
3.35175e-09
3.41839e-09
5.4876e-09
2.55992e-09
3.13113e-09
3.16004e-09
5.51823e-09
2.38454e-09
2.95284e-09
2.94307e-09
5.55666e-09
2.24626e-09
2.81294e-09
2.75594e-09
5.60458e-09
2.15793e-09
2.71238e-09
2.60173e-09
5.65999e-09
2.11894e-09
2.65105e-09
2.48351e-09
5.72295e-09
2.12794e-09
2.62889e-09
2.40189e-09
5.79196e-09
2.17713e-09
2.64747e-09
2.36204e-09
5.86757e-09
2.27539e-09
2.71607e-09
2.36853e-09
5.94961e-09
2.43066e-09
2.84672e-09
2.4291e-09
6.03711e-09
2.66479e-09
3.0622e-09
2.56897e-09
6.13057e-09
3.02748e-09
3.39181e-09
2.81552e-09
6.23015e-09
3.52399e-09
3.90405e-09
3.27133e-09
6.33687e-09
4.35755e-09
4.68332e-09
4.10772e-09
6.45507e-09
5.4121e-09
5.85032e-09
5.30563e-09
6.5862e-09
7.3074e-09
7.5314e-09
7.86291e-09
6.73823e-09
9.82712e-09
1.01809e-08
1.22946e-08
6.89944e-09
1.35157e-08
1.3411e-08
1.90341e-08
7.10973e-09
1.75881e-08
1.91826e-08
3.09159e-08
7.35578e-09
2.58746e-08
2.55705e-08
4.97714e-08
7.6402e-09
3.35937e-08
3.40564e-08
7.22539e-08
8.0392e-09
4.42527e-08
4.64515e-08
1.15752e-07
8.51954e-09
6.49405e-08
5.88707e-08
1.70841e-07
9.19251e-09
8.25219e-08
7.76812e-08
2.18619e-07
9.93668e-09
9.17186e-08
9.65294e-08
3.0835e-07
1.10484e-08
1.23083e-07
1.2089e-07
3.70186e-07
1.22046e-08
1.45824e-07
1.45501e-07
4.60648e-07
1.41456e-08
1.79004e-07
1.78712e-07
5.32066e-07
1.59982e-08
2.06528e-07
2.10275e-07
6.00442e-07
1.90871e-08
2.51908e-07
2.48514e-07
6.68232e-07
2.23403e-08
2.78952e-07
2.80259e-07
7.26066e-07
2.5682e-08
3.28932e-07
3.28692e-07
7.63736e-07
3.21781e-08
3.7474e-07
3.77407e-07
8.3125e-07
3.6673e-08
4.10243e-07
4.09796e-07
8.60532e-07
4.4453e-08
4.68585e-07
4.69171e-07
8.9901e-07
5.27666e-08
5.06216e-07
5.06566e-07
9.3539e-07
6.32503e-08
5.65406e-07
5.63785e-07
9.67585e-07
7.51861e-08
6.08887e-07
6.12532e-07
9.99653e-07
8.83538e-08
6.64646e-07
6.61278e-07
1.03087e-06
1.04275e-07
6.98417e-07
7.05563e-07
1.05766e-06
1.20683e-07
7.56202e-07
7.53333e-07
1.08954e-06
1.40368e-07
7.97762e-07
7.97365e-07
1.11418e-06
1.61215e-07
8.2976e-07
8.35189e-07
1.13796e-06
1.84563e-07
8.74798e-07
8.70406e-07
1.16658e-06
2.08736e-07
9.11971e-07
9.15234e-07
1.18867e-06
2.36568e-07
9.44004e-07
9.4068e-07
1.21172e-06
2.6197e-07
9.72059e-07
9.6723e-07
1.23504e-06
2.90759e-07
9.99372e-07
9.9811e-07
1.25074e-06
3.18384e-07
1.0168e-06
1.02041e-06
1.26396e-06
3.47808e-07
1.04571e-06
1.04782e-06
1.28712e-06
3.77543e-07
1.05285e-06
1.05383e-06
1.29282e-06
3.88655e-07
1.04358e-06
1.04363e-06
1.2721e-06
4.1036e-07
1.06047e-06
1.05987e-06
1.28748e-06
4.62628e-07
1.10759e-06
1.10718e-06
1.34303e-06
5.04621e-07
1.14133e-06
1.14128e-06
1.3866e-06
5.14907e-07
1.14252e-06
1.14269e-06
1.38685e-06
5.00472e-07
1.11171e-06
1.11194e-06
1.3434e-06
4.70851e-07
1.06437e-06
1.06447e-06
1.2793e-06
4.51063e-07
1.02565e-06
1.02573e-06
1.22488e-06
4.59665e-07
1.02478e-06
1.02487e-06
1.22533e-06
5.1015e-07
1.06666e-06
1.06675e-06
1.27818e-06
5.63321e-07
1.10549e-06
1.10557e-06
1.33166e-06
5.95079e-07
1.13054e-06
1.13063e-06
1.36873e-06
6.09511e-07
1.14339e-06
1.14349e-06
1.38947e-06
6.14935e-07
1.14912e-06
1.14922e-06
1.3997e-06
6.16874e-07
1.15147e-06
1.15157e-06
1.40417e-06
6.17361e-07
1.15213e-06
1.15223e-06
1.4058e-06
6.17317e-07
1.15215e-06
1.15226e-06
1.40605e-06
6.17336e-07
1.15221e-06
1.15232e-06
1.40601e-06
6.1738e-07
1.15231e-06
1.15241e-06
1.4063e-06
6.17325e-07
1.1522e-06
1.15231e-06
1.40599e-06
6.17347e-07
1.15227e-06
1.15237e-06
1.40619e-06
6.17337e-07
1.15224e-06
1.15234e-06
1.40618e-06
6.17332e-07
1.15223e-06
1.15234e-06
1.40607e-06
6.17335e-07
1.15225e-06
1.15236e-06
1.40623e-06
6.17325e-07
1.15223e-06
1.15233e-06
1.40606e-06
6.17325e-07
1.15225e-06
1.15235e-06
1.40622e-06
6.17321e-07
1.15223e-06
1.15234e-06
1.40612e-06
6.17321e-07
1.15224e-06
1.15234e-06
1.40616e-06
6.1732e-07
1.15223e-06
1.15234e-06
1.40618e-06
6.1732e-07
1.15223e-06
1.15234e-06
1.40609e-06
6.1732e-07
1.15224e-06
1.15234e-06
1.40624e-06
6.17321e-07
1.15224e-06
1.15235e-06
1.40613e-06
6.17323e-07
1.15225e-06
1.15235e-06
1.40609e-06
6.17324e-07
1.15226e-06
1.15236e-06
1.40616e-06
6.17327e-07
1.15227e-06
1.15237e-06
1.40623e-06
6.17332e-07
1.15228e-06
1.15239e-06
1.40616e-06
6.17339e-07
1.15231e-06
1.15241e-06
1.40608e-06
6.17336e-07
1.15235e-06
1.15245e-06
1.40616e-06
6.17085e-07
1.15205e-06
1.15215e-06
1.40585e-06
5.97561e-07
1.09365e-06
1.09371e-06
1.3632e-06
4.97375e-09
4.25067e-09
4.01088e-09
4.75157e-09
4.2558e-09
4.27308e-09
5.50985e-09
5.42839e-09
5.53533e-09
5.49472e-09
4.3033e-09
4.22316e-09
4.99853e-09
4.26594e-09
4.45181e-09
4.87729e-09
4.94722e-09
4.52044e-09
4.68998e-09
4.55277e-09
4.38926e-09
4.34487e-09
4.73202e-09
4.33393e-09
4.71605e-09
4.72602e-09
4.40258e-09
4.41769e-09
4.67727e-09
3.5899e-09
4.36937e-09
4.97217e-09
4.54114e-09
6.00854e-09
4.37482e-09
5.52548e-09
4.47827e-09
4.48686e-09
4.10278e-09
4.28926e-09
4.2727e-09
4.00956e-09
4.06955e-09
4.30484e-09
3.95509e-09
4.29796e-09
4.3154e-09
4.00807e-09
4.03074e-09
4.26695e-09
3.30848e-09
3.98184e-09
4.50735e-09
4.12087e-09
5.36097e-09
4.0056e-09
4.89365e-09
4.09778e-09
4.0737e-09
3.74228e-09
3.92256e-09
4.00406e-09
3.67969e-09
3.81315e-09
3.93042e-09
3.63737e-09
3.918e-09
3.94211e-09
3.66765e-09
3.6945e-09
3.8939e-09
3.05988e-09
3.65075e-09
4.09173e-09
3.76016e-09
4.74342e-09
3.68506e-09
4.28656e-09
3.75053e-09
3.7172e-09
3.43282e-09
3.60523e-09
3.75144e-09
3.39969e-09
3.57189e-09
3.61618e-09
3.36243e-09
3.59143e-09
3.61886e-09
3.3793e-09
3.40928e-09
3.57609e-09
2.82133e-09
3.36611e-09
3.73495e-09
3.45108e-09
4.13353e-09
3.41332e-09
3.70626e-09
3.44112e-09
3.41158e-09
3.16996e-09
3.33604e-09
3.51523e-09
3.16234e-09
3.35433e-09
3.34409e-09
3.11983e-09
3.31342e-09
3.34418e-09
3.13549e-09
3.16741e-09
3.30042e-09
2.6085e-09
3.12207e-09
3.42979e-09
3.1885e-09
3.58068e-09
3.18207e-09
3.25365e-09
3.17697e-09
3.15266e-09
2.94912e-09
3.10987e-09
3.30462e-09
2.97047e-09
3.17057e-09
3.10468e-09
2.89349e-09
3.08208e-09
3.11464e-09
2.93884e-09
2.97301e-09
3.06971e-09
2.42552e-09
2.92904e-09
3.17119e-09
2.96891e-09
3.16181e-09
2.99345e-09
2.92708e-09
2.95651e-09
2.93572e-09
2.7667e-09
2.92925e-09
3.13067e-09
2.82203e-09
3.02647e-09
2.88143e-09
2.69909e-09
2.89722e-09
2.93198e-09
2.78753e-09
2.82428e-09
2.88802e-09
2.27687e-09
2.78073e-09
2.95539e-09
2.78539e-09
2.85871e-09
2.84482e-09
2.67512e-09
2.76548e-09
2.75728e-09
2.61965e-09
2.79126e-09
2.9967e-09
2.71508e-09
2.91937e-09
2.6906e-09
2.54006e-09
2.75584e-09
2.79311e-09
2.67818e-09
2.71654e-09
2.75004e-09
2.17422e-09
2.67435e-09
2.77573e-09
2.63634e-09
2.62119e-09
2.73413e-09
2.48415e-09
2.60662e-09
2.61442e-09
2.50584e-09
2.69474e-09
2.89834e-09
2.64725e-09
2.84697e-09
2.53578e-09
2.42243e-09
2.65643e-09
2.69527e-09
2.60943e-09
2.64844e-09
2.65293e-09
2.1247e-09
2.60792e-09
2.63082e-09
2.52138e-09
2.44539e-09
2.66192e-09
2.35102e-09
2.48381e-09
2.50518e-09
2.42628e-09
2.63674e-09
2.83425e-09
2.61638e-09
2.81254e-09
2.423e-09
2.35036e-09
2.5986e-09
2.63822e-09
2.57961e-09
2.61924e-09
2.59781e-09
2.12284e-09
2.58212e-09
2.52033e-09
2.4422e-09
2.32632e-09
2.62977e-09
2.27227e-09
2.39816e-09
2.42929e-09
2.38163e-09
2.61592e-09
2.80818e-09
2.62636e-09
2.8132e-09
2.35496e-09
2.31642e-09
2.57962e-09
2.61929e-09
2.59183e-09
2.63082e-09
2.58247e-09
2.16387e-09
2.59574e-09
2.44521e-09
2.39885e-09
2.26203e-09
2.63932e-09
2.26187e-09
2.35118e-09
2.39142e-09
2.37807e-09
2.6362e-09
2.8208e-09
2.68354e-09
2.85621e-09
2.32783e-09
2.31514e-09
2.6015e-09
2.6409e-09
2.65074e-09
2.68825e-09
2.60687e-09
2.25148e-09
2.65831e-09
2.4086e-09
2.39473e-09
2.26706e-09
2.69358e-09
2.32022e-09
2.34738e-09
2.39831e-09
2.42759e-09
2.70604e-09
2.87671e-09
2.79744e-09
2.95413e-09
2.33438e-09
2.3667e-09
2.67413e-09
2.71138e-09
2.76701e-09
2.80447e-09
2.68182e-09
2.38922e-09
2.77541e-09
2.41395e-09
2.44172e-09
2.34688e-09
2.80791e-09
2.44906e-09
2.39535e-09
2.46134e-09
2.54766e-09
2.83684e-09
2.98993e-09
2.98711e-09
3.13959e-09
2.40254e-09
2.47927e-09
2.80605e-09
2.84496e-09
2.95896e-09
2.99868e-09
2.8185e-09
2.60381e-09
2.96114e-09
2.47465e-09
2.56026e-09
2.49162e-09
2.99969e-09
2.6526e-09
2.50846e-09
2.60498e-09
2.78072e-09
3.05092e-09
3.2e-09
3.28859e-09
3.4258e-09
2.5405e-09
2.72e-09
3.02348e-09
3.06181e-09
3.25986e-09
3.29839e-09
3.02882e-09
2.92637e-09
3.26764e-09
2.61638e-09
2.79037e-09
2.72486e-09
3.29332e-09
2.97131e-09
2.72025e-09
2.87638e-09
3.20419e-09
3.38609e-09
3.52529e-09
3.76097e-09
3.89544e-09
2.81104e-09
3.11424e-09
3.35497e-09
3.39911e-09
3.72864e-09
3.75062e-09
3.36232e-09
3.38524e-09
3.73679e-09
2.88902e-09
3.18443e-09
3.06118e-09
3.74334e-09
3.42229e-09
3.12454e-09
3.36219e-09
3.91341e-09
3.90909e-09
4.05356e-09
4.4772e-09
4.66407e-09
3.28498e-09
3.83807e-09
3.87212e-09
3.91539e-09
4.42457e-09
4.45772e-09
3.87317e-09
4.13133e-09
4.44441e-09
3.37193e-09
3.89146e-09
3.56328e-09
4.45782e-09
4.12908e-09
3.82438e-09
4.19657e-09
5.13015e-09
4.70901e-09
4.89199e-09
5.53838e-09
5.70413e-09
4.11245e-09
4.9064e-09
4.65794e-09
4.67978e-09
5.4839e-09
5.51479e-09
4.6752e-09
5.09013e-09
5.42653e-09
4.14986e-09
5.08672e-09
4.35828e-09
5.48216e-09
5.13233e-09
4.89015e-09
5.59615e-09
7.41749e-09
5.87435e-09
6.08105e-09
7.22353e-09
7.46707e-09
5.33718e-09
7.51415e-09
5.80955e-09
5.88226e-09
7.15274e-09
7.10645e-09
5.7683e-09
6.87169e-09
7.09044e-09
5.54915e-09
7.30561e-09
5.45899e-09
7.0808e-09
6.7644e-09
7.22498e-09
8.29709e-09
1.04677e-08
7.72581e-09
7.9463e-09
9.30304e-09
9.67272e-09
8.23967e-09
1.04476e-08
7.62538e-09
7.55262e-09
9.22549e-09
9.33913e-09
7.51873e-09
8.9806e-09
9.4203e-09
7.91724e-09
1.07178e-08
7.19206e-09
9.2873e-09
9.08254e-09
1.09567e-08
1.19391e-08
1.82005e-08
1.03043e-08
1.05525e-08
1.28332e-08
1.32867e-08
1.20586e-08
1.74279e-08
1.01974e-08
1.02116e-08
1.27705e-08
1.26861e-08
1.01263e-08
1.22615e-08
1.26075e-08
1.21283e-08
1.77296e-08
9.75338e-09
1.27166e-08
1.2309e-08
1.68152e-08
1.89412e-08
2.7403e-08
1.33696e-08
1.39155e-08
1.74334e-08
1.74316e-08
1.90703e-08
2.60707e-08
1.33298e-08
1.33897e-08
1.72653e-08
1.79908e-08
1.36644e-08
1.64416e-08
1.71702e-08
1.88696e-08
2.99511e-08
1.33351e-08
1.77485e-08
1.69153e-08
2.75843e-08
3.314e-08
4.53143e-08
1.94432e-08
1.94521e-08
2.3403e-08
2.49984e-08
2.84199e-08
5.2038e-08
1.93169e-08
1.93428e-08
2.3432e-08
2.3227e-08
1.85652e-08
2.42563e-08
2.36781e-08
3.44361e-08
4.20999e-08
1.82136e-08
2.30057e-08
2.31941e-08
4.41553e-08
4.8752e-08
7.63434e-08
2.55099e-08
2.6495e-08
3.27145e-08
3.10732e-08
5.61102e-08
6.22957e-08
2.55979e-08
2.58029e-08
3.26645e-08
3.222e-08
2.56162e-08
3.0098e-08
3.14877e-08
4.72152e-08
7.52323e-08
2.54535e-08
3.24616e-08
3.10753e-08
6.69856e-08
7.93708e-08
1.03992e-07
3.41455e-08
3.46818e-08
4.28901e-08
4.51085e-08
6.881e-08
1.19606e-07
3.40902e-08
3.40865e-08
4.31147e-08
4.35875e-08
3.42897e-08
4.31911e-08
4.25532e-08
7.84986e-08
1.10446e-07
3.37088e-08
4.34658e-08
4.25711e-08
1.098e-07
1.20799e-07
1.52941e-07
4.71264e-08
4.60705e-08
5.47683e-08
5.60934e-08
1.20784e-07
1.38789e-07
4.74369e-08
4.64543e-08
5.49794e-08
5.53134e-08
4.51437e-08
5.59487e-08
5.72662e-08
1.23011e-07
1.46593e-07
4.47902e-08
5.46138e-08
5.67182e-08
1.54452e-07
1.57231e-07
2.29966e-07
5.78951e-08
6.55446e-08
7.58559e-08
8.39297e-08
1.68987e-07
2.88286e-07
5.79197e-08
5.92934e-08
7.57777e-08
7.34487e-08
6.10016e-08
8.11078e-08
7.10219e-08
1.55888e-07
2.1875e-07
6.11063e-08
7.29661e-08
7.0941e-08
2.0889e-07
2.5061e-07
2.78565e-07
8.08039e-08
8.51792e-08
9.01834e-08
8.8108e-08
2.91216e-07
2.71496e-07
8.09815e-08
7.85676e-08
9.01187e-08
9.16653e-08
7.66214e-08
8.8331e-08
9.3602e-08
2.33764e-07
2.84067e-07
7.57544e-08
9.19529e-08
9.3092e-08
2.92757e-07
2.86175e-07
3.78311e-07
9.48646e-08
9.15433e-08
1.16161e-07
1.14988e-07
2.75909e-07
3.48369e-07
9.47886e-08
9.58673e-08
1.17075e-07
1.15168e-07
9.70698e-08
1.13179e-07
1.13608e-07
2.97633e-07
3.62014e-07
9.7337e-08
1.14494e-07
1.12682e-07
3.52373e-07
3.99049e-07
4.35733e-07
1.23206e-07
1.24347e-07
1.39405e-07
1.40796e-07
3.81639e-07
4.50923e-07
1.2332e-07
1.22648e-07
1.36949e-07
1.40228e-07
1.22238e-07
1.41241e-07
1.40664e-07
3.77278e-07
4.42162e-07
1.2092e-07
1.39437e-07
1.40938e-07
4.47928e-07
4.49068e-07
5.2062e-07
1.44264e-07
1.4608e-07
1.69365e-07
1.72236e-07
4.60724e-07
5.15657e-07
1.43038e-07
1.45189e-07
1.724e-07
1.681e-07
1.45377e-07
1.69599e-07
1.6783e-07
4.57413e-07
5.10809e-07
1.46028e-07
1.68616e-07
1.68385e-07
5.11367e-07
5.38956e-07
5.82229e-07
1.8024e-07
1.80802e-07
2.01666e-07
1.98747e-07
5.34648e-07
5.85264e-07
1.81991e-07
1.78629e-07
1.9953e-07
2.05691e-07
1.77186e-07
1.988e-07
2.0406e-07
5.31363e-07
5.94984e-07
1.77065e-07
2.03487e-07
2.03067e-07
5.89336e-07
5.94154e-07
6.50916e-07
2.06879e-07
2.06698e-07
2.35337e-07
2.42617e-07
5.9889e-07
6.57763e-07
2.04624e-07
2.11961e-07
2.35058e-07
2.37122e-07
2.11118e-07
2.41407e-07
2.33245e-07
6.07029e-07
6.5578e-07
2.10503e-07
2.37683e-07
2.32918e-07
6.50454e-07
6.70699e-07
7.1312e-07
2.49539e-07
2.53361e-07
2.80669e-07
2.7319e-07
6.73492e-07
7.03711e-07
2.50072e-07
2.48795e-07
2.8141e-07
2.7605e-07
2.44919e-07
2.71839e-07
2.83194e-07
6.69658e-07
7.06125e-07
2.44553e-07
2.73707e-07
2.8319e-07
7.16015e-07
7.21208e-07
7.51642e-07
2.8627e-07
2.8008e-07
3.08342e-07
3.14157e-07
7.1393e-07
7.64841e-07
2.86759e-07
2.82488e-07
3.08235e-07
3.1241e-07
2.91365e-07
3.13771e-07
3.10064e-07
7.18097e-07
7.61309e-07
2.91388e-07
3.12457e-07
3.09968e-07
7.51218e-07
7.67806e-07
8.20522e-07
3.20549e-07
3.29355e-07
3.66608e-07
3.68109e-07
7.82246e-07
8.15374e-07
3.20336e-07
3.27987e-07
3.66898e-07
3.69785e-07
3.19647e-07
3.66712e-07
3.65387e-07
7.77739e-07
8.16412e-07
3.19328e-07
3.69447e-07
3.64701e-07
8.18194e-07
8.30946e-07
8.49195e-07
3.78817e-07
3.76457e-07
4.03924e-07
3.99282e-07
8.2333e-07
8.45829e-07
3.78843e-07
3.78252e-07
4.03021e-07
3.99545e-07
3.79925e-07
3.97974e-07
4.06844e-07
8.24587e-07
8.44814e-07
3.79684e-07
3.98748e-07
4.06381e-07
8.52663e-07
8.58089e-07
8.87896e-07
4.13198e-07
4.10919e-07
4.51166e-07
4.56869e-07
8.57284e-07
8.93495e-07
4.12249e-07
4.10388e-07
4.51405e-07
4.57389e-07
4.15384e-07
4.56949e-07
4.50563e-07
8.56093e-07
8.94693e-07
4.14712e-07
4.56379e-07
4.49865e-07
8.87925e-07
8.98933e-07
9.24476e-07
4.6374e-07
4.69275e-07
4.9863e-07
4.97838e-07
9.0285e-07
9.21576e-07
4.6444e-07
4.70578e-07
4.98557e-07
4.97166e-07
4.63975e-07
4.94586e-07
5.01323e-07
9.04306e-07
9.21323e-07
4.62852e-07
4.95918e-07
5.01553e-07
9.26436e-07
9.33551e-07
9.59594e-07
5.11446e-07
5.08896e-07
5.49886e-07
5.50052e-07
9.30564e-07
9.61038e-07
5.10799e-07
5.07646e-07
5.50044e-07
5.50318e-07
5.1304e-07
5.52791e-07
5.50515e-07
9.29714e-07
9.59945e-07
5.13735e-07
5.49341e-07
5.47899e-07
9.58734e-07
9.68588e-07
9.90325e-07
5.61714e-07
5.63935e-07
5.9845e-07
6.00658e-07
9.70879e-07
9.91486e-07
5.62512e-07
5.63466e-07
5.98987e-07
6.00642e-07
5.63176e-07
5.95837e-07
5.97832e-07
9.70454e-07
9.93339e-07
5.59856e-07
6.00847e-07
5.99362e-07
9.91174e-07
9.98743e-07
1.02191e-06
6.1098e-07
6.12005e-07
6.46994e-07
6.48397e-07
9.99514e-07
1.02344e-06
6.1097e-07
6.13982e-07
6.46353e-07
6.50437e-07
6.09491e-07
6.52861e-07
6.48969e-07
1.00122e-06
1.02413e-06
6.12621e-07
6.49233e-07
6.48692e-07
1.0228e-06
1.03005e-06
1.05229e-06
6.59301e-07
6.61362e-07
6.95802e-07
6.94283e-07
1.03142e-06
1.04728e-06
6.58725e-07
6.61676e-07
6.95871e-07
6.97054e-07
6.62174e-07
6.8952e-07
6.95001e-07
1.03223e-06
1.05129e-06
6.59698e-07
6.94323e-07
6.92431e-07
1.05026e-06
1.06006e-06
1.07888e-06
7.07012e-07
7.03253e-07
7.39485e-07
7.37537e-07
1.05387e-06
1.07852e-06
7.07261e-07
7.08404e-07
7.39112e-07
7.39628e-07
7.0525e-07
7.39839e-07
7.41192e-07
1.05867e-06
1.0802e-06
7.04474e-07
7.41653e-07
7.43268e-07
1.08125e-06
1.08609e-06
1.1079e-06
7.50897e-07
7.52321e-07
7.85166e-07
7.89391e-07
1.08863e-06
1.11202e-06
7.50133e-07
7.5077e-07
7.84304e-07
7.8648e-07
7.53982e-07
7.91137e-07
7.86393e-07
1.08783e-06
1.10816e-06
7.55378e-07
7.86188e-07
7.85269e-07
1.10834e-06
1.11523e-06
1.13371e-06
7.95833e-07
7.97521e-07
8.2582e-07
8.22536e-07
1.11721e-06
1.12893e-06
7.95209e-07
7.9776e-07
8.2594e-07
8.26905e-07
7.95306e-07
8.19199e-07
8.22698e-07
1.11511e-06
1.13202e-06
7.94354e-07
8.27513e-07
8.23935e-07
1.13075e-06
1.14042e-06
1.15924e-06
8.35716e-07
8.33283e-07
8.65646e-07
8.65219e-07
1.13573e-06
1.1595e-06
8.35929e-07
8.3521e-07
8.65198e-07
8.60198e-07
8.33007e-07
8.64914e-07
8.66132e-07
1.13773e-06
1.1528e-06
8.34318e-07
8.59507e-07
8.65221e-07
1.15971e-06
1.16573e-06
1.18334e-06
8.74985e-07
8.74193e-07
9.01486e-07
9.01171e-07
1.16631e-06
1.18315e-06
8.74213e-07
8.69975e-07
9.00905e-07
9.04494e-07
8.76384e-07
9.02791e-07
9.01725e-07
1.15968e-06
1.18577e-06
8.74988e-07
9.05943e-07
9.01564e-07
1.18314e-06
1.18977e-06
1.20836e-06
9.10385e-07
9.10339e-07
9.37759e-07
9.35014e-07
1.18965e-06
1.207e-06
9.10159e-07
9.15395e-07
9.37977e-07
9.40361e-07
9.09074e-07
9.36553e-07
9.34788e-07
1.1933e-06
1.2083e-06
9.09326e-07
9.34665e-07
9.33532e-07
1.20495e-06
1.21442e-06
1.22695e-06
9.46081e-07
9.42474e-07
9.6527e-07
9.63782e-07
1.21243e-06
1.22621e-06
9.46178e-07
9.46659e-07
9.64597e-07
9.62676e-07
9.44508e-07
9.65079e-07
9.67859e-07
1.21276e-06
1.22353e-06
9.42606e-07
9.60262e-07
9.66537e-07
1.23003e-06
1.23154e-06
1.24617e-06
9.7148e-07
9.70957e-07
9.94933e-07
9.92759e-07
1.23182e-06
1.24677e-06
9.70426e-07
9.68281e-07
9.93069e-07
9.89509e-07
9.73766e-07
9.93271e-07
9.93354e-07
1.22854e-06
1.2433e-06
9.72942e-07
9.90435e-07
9.92457e-07
1.24588e-06
1.25192e-06
1.26057e-06
1.00218e-06
9.99016e-07
1.01463e-06
1.01238e-06
1.25175e-06
1.25984e-06
1.0004e-06
9.96905e-07
1.01391e-06
1.01371e-06
9.99955e-07
1.01226e-06
1.0134e-06
1.24911e-06
1.26233e-06
9.98806e-07
1.01538e-06
1.01297e-06
1.26012e-06
1.26387e-06
1.27828e-06
1.01806e-06
1.01713e-06
1.03729e-06
1.03926e-06
1.26384e-06
1.28176e-06
1.01764e-06
1.01882e-06
1.03728e-06
1.04008e-06
1.01745e-06
1.0385e-06
1.03803e-06
1.26691e-06
1.28394e-06
1.01759e-06
1.04118e-06
1.03891e-06
1.28027e-06
1.28519e-06
1.29082e-06
1.04471e-06
1.04647e-06
1.05337e-06
1.05411e-06
1.28864e-06
1.29262e-06
1.04454e-06
1.04681e-06
1.05295e-06
1.05373e-06
1.04545e-06
1.05347e-06
1.054e-06
1.29029e-06
1.2927e-06
1.046e-06
1.05461e-06
1.05364e-06
1.29218e-06
1.29149e-06
1.27091e-06
1.05282e-06
1.05344e-06
1.04492e-06
1.04531e-06
1.29322e-06
1.27095e-06
1.05242e-06
1.053e-06
1.04464e-06
1.04483e-06
1.05345e-06
1.04497e-06
1.04537e-06
1.29326e-06
1.27067e-06
1.05301e-06
1.04521e-06
1.04501e-06
1.2715e-06
1.27159e-06
1.27863e-06
1.04347e-06
1.04387e-06
1.05097e-06
1.05178e-06
1.27154e-06
1.27847e-06
1.04317e-06
1.04338e-06
1.0505e-06
1.05117e-06
1.04382e-06
1.05161e-06
1.05108e-06
1.27123e-06
1.27789e-06
1.04354e-06
1.05105e-06
1.05116e-06
1.27859e-06
1.28751e-06
1.33096e-06
1.05967e-06
1.06065e-06
1.09481e-06
1.096e-06
1.28754e-06
1.33175e-06
1.05915e-06
1.06e-06
1.09428e-06
1.09548e-06
1.05985e-06
1.09593e-06
1.09535e-06
1.2869e-06
1.33133e-06
1.05993e-06
1.0954e-06
1.09533e-06
1.33149e-06
1.34247e-06
1.3791e-06
1.10656e-06
1.10761e-06
1.1352e-06
1.13574e-06
1.34329e-06
1.37971e-06
1.10607e-06
1.10723e-06
1.13485e-06
1.13572e-06
1.10718e-06
1.13579e-06
1.13578e-06
1.34297e-06
1.37982e-06
1.10706e-06
1.13567e-06
1.13545e-06
1.3796e-06
1.38616e-06
1.38624e-06
1.1409e-06
1.14128e-06
1.14502e-06
1.14508e-06
1.38669e-06
1.38629e-06
1.14059e-06
1.14135e-06
1.14477e-06
1.14529e-06
1.14143e-06
1.14513e-06
1.14542e-06
1.38685e-06
1.38668e-06
1.14106e-06
1.14521e-06
1.145e-06
1.38653e-06
1.38659e-06
1.34624e-06
1.1426e-06
1.14246e-06
1.12202e-06
1.12161e-06
1.38659e-06
1.34569e-06
1.14239e-06
1.14275e-06
1.12188e-06
1.12196e-06
1.14291e-06
1.12167e-06
1.12211e-06
1.38698e-06
1.34613e-06
1.14249e-06
1.12191e-06
1.12173e-06
1.34611e-06
1.34356e-06
1.28338e-06
1.11209e-06
1.11165e-06
1.07724e-06
1.07692e-06
1.343e-06
1.28292e-06
1.11195e-06
1.11197e-06
1.07708e-06
1.07709e-06
1.11212e-06
1.07692e-06
1.07723e-06
1.34342e-06
1.28312e-06
1.11176e-06
1.07705e-06
1.07693e-06
1.28323e-06
1.27945e-06
1.22564e-06
1.06465e-06
1.06437e-06
1.03245e-06
1.03229e-06
1.27901e-06
1.22545e-06
1.06448e-06
1.0645e-06
1.03226e-06
1.03236e-06
1.06465e-06
1.03226e-06
1.03248e-06
1.27919e-06
1.2255e-06
1.06436e-06
1.03234e-06
1.03224e-06
1.22566e-06
1.22487e-06
1.21883e-06
1.02582e-06
1.02569e-06
1.02111e-06
1.021e-06
1.22469e-06
1.21879e-06
1.02563e-06
1.02574e-06
1.02089e-06
1.02106e-06
1.02585e-06
1.02096e-06
1.02113e-06
1.22473e-06
1.21883e-06
1.02562e-06
1.02104e-06
1.02091e-06
1.21891e-06
1.22527e-06
1.26625e-06
1.02493e-06
1.02484e-06
1.05539e-06
1.05529e-06
1.22523e-06
1.26623e-06
1.0247e-06
1.0249e-06
1.05516e-06
1.05537e-06
1.02495e-06
1.05524e-06
1.0554e-06
1.22527e-06
1.2663e-06
1.02473e-06
1.05533e-06
1.05519e-06
1.26634e-06
1.27812e-06
1.32141e-06
1.06682e-06
1.06671e-06
1.09713e-06
1.09702e-06
1.27809e-06
1.32138e-06
1.06659e-06
1.0668e-06
1.09692e-06
1.09711e-06
1.06682e-06
1.09698e-06
1.09714e-06
1.27815e-06
1.32145e-06
1.06661e-06
1.09706e-06
1.09694e-06
1.3215e-06
1.33159e-06
1.36151e-06
1.10564e-06
1.10552e-06
1.12572e-06
1.1256e-06
1.33156e-06
1.36148e-06
1.10543e-06
1.10562e-06
1.12553e-06
1.12572e-06
1.10565e-06
1.12558e-06
1.12574e-06
1.33163e-06
1.36157e-06
1.10545e-06
1.12567e-06
1.12555e-06
1.36161e-06
1.36866e-06
1.38477e-06
1.13068e-06
1.13056e-06
1.14118e-06
1.14106e-06
1.36862e-06
1.38473e-06
1.13049e-06
1.13067e-06
1.14099e-06
1.14118e-06
1.1307e-06
1.14104e-06
1.14119e-06
1.36871e-06
1.38483e-06
1.13052e-06
1.14114e-06
1.14102e-06
1.38485e-06
1.38941e-06
1.39647e-06
1.14352e-06
1.1434e-06
1.14822e-06
1.14811e-06
1.38937e-06
1.39645e-06
1.14333e-06
1.14352e-06
1.14804e-06
1.14823e-06
1.14354e-06
1.1481e-06
1.14825e-06
1.38947e-06
1.39655e-06
1.14336e-06
1.1482e-06
1.14808e-06
1.39658e-06
1.3996e-06
1.40175e-06
1.14924e-06
1.14913e-06
1.15121e-06
1.1511e-06
1.39958e-06
1.40174e-06
1.14906e-06
1.14925e-06
1.15102e-06
1.15122e-06
1.14927e-06
1.15108e-06
1.15124e-06
1.39967e-06
1.40183e-06
1.1491e-06
1.15119e-06
1.15107e-06
1.40186e-06
1.40408e-06
1.40374e-06
1.15159e-06
1.15148e-06
1.15218e-06
1.15207e-06
1.40407e-06
1.40372e-06
1.15141e-06
1.1516e-06
1.152e-06
1.15219e-06
1.15162e-06
1.15206e-06
1.15221e-06
1.40415e-06
1.40381e-06
1.15145e-06
1.15216e-06
1.15204e-06
1.40385e-06
1.40571e-06
1.40409e-06
1.15225e-06
1.15214e-06
1.15229e-06
1.15218e-06
1.40569e-06
1.40406e-06
1.15207e-06
1.15226e-06
1.15211e-06
1.1523e-06
1.15228e-06
1.15217e-06
1.15232e-06
1.40577e-06
1.40416e-06
1.15211e-06
1.15227e-06
1.15215e-06
1.40418e-06
1.40597e-06
1.40398e-06
1.15228e-06
1.15217e-06
1.15229e-06
1.15218e-06
1.40594e-06
1.40396e-06
1.1521e-06
1.15229e-06
1.15211e-06
1.1523e-06
1.15231e-06
1.15216e-06
1.15232e-06
1.40603e-06
1.40406e-06
1.15214e-06
1.15227e-06
1.15215e-06
1.40409e-06
1.40591e-06
1.40437e-06
1.15234e-06
1.15223e-06
1.15244e-06
1.15233e-06
1.4059e-06
1.40435e-06
1.15215e-06
1.15235e-06
1.15226e-06
1.15245e-06
1.15237e-06
1.15231e-06
1.15247e-06
1.40598e-06
1.40444e-06
1.1522e-06
1.15242e-06
1.1523e-06
1.40447e-06
1.40622e-06
1.40409e-06
1.15244e-06
1.15232e-06
1.15234e-06
1.15223e-06
1.4062e-06
1.40406e-06
1.15225e-06
1.15244e-06
1.15216e-06
1.15235e-06
1.15246e-06
1.15221e-06
1.15237e-06
1.40629e-06
1.40416e-06
1.15229e-06
1.15232e-06
1.1522e-06
1.40418e-06
1.40591e-06
1.40418e-06
1.15233e-06
1.15222e-06
1.15237e-06
1.15226e-06
1.40588e-06
1.40417e-06
1.15215e-06
1.15234e-06
1.15219e-06
1.15238e-06
1.15236e-06
1.15225e-06
1.1524e-06
1.40597e-06
1.40426e-06
1.15219e-06
1.15235e-06
1.15223e-06
1.4043e-06
1.40609e-06
1.40427e-06
1.15239e-06
1.15229e-06
1.15238e-06
1.15227e-06
1.40608e-06
1.40425e-06
1.15221e-06
1.1524e-06
1.1522e-06
1.15239e-06
1.15242e-06
1.15225e-06
1.1524e-06
1.40616e-06
1.40434e-06
1.15225e-06
1.15236e-06
1.15223e-06
1.40435e-06
1.40611e-06
1.40406e-06
1.15236e-06
1.15225e-06
1.15235e-06
1.15224e-06
1.40609e-06
1.40404e-06
1.15218e-06
1.15237e-06
1.15217e-06
1.15236e-06
1.15239e-06
1.15222e-06
1.15238e-06
1.40617e-06
1.40414e-06
1.15222e-06
1.15233e-06
1.15221e-06
1.40417e-06
1.40596e-06
1.40429e-06
1.15236e-06
1.15225e-06
1.15237e-06
1.15226e-06
1.40594e-06
1.40427e-06
1.15217e-06
1.15237e-06
1.15219e-06
1.15238e-06
1.15239e-06
1.15225e-06
1.1524e-06
1.40603e-06
1.40436e-06
1.15222e-06
1.15235e-06
1.15223e-06
1.40439e-06
1.40616e-06
1.40406e-06
1.15238e-06
1.15227e-06
1.15234e-06
1.15223e-06
1.40613e-06
1.40405e-06
1.15219e-06
1.15239e-06
1.15216e-06
1.15236e-06
1.15241e-06
1.15222e-06
1.15237e-06
1.40622e-06
1.40414e-06
1.15223e-06
1.15233e-06
1.15221e-06
1.40418e-06
1.40594e-06
1.4043e-06
1.15235e-06
1.15224e-06
1.15237e-06
1.15226e-06
1.40593e-06
1.40428e-06
1.15217e-06
1.15236e-06
1.15219e-06
1.15238e-06
1.15238e-06
1.15224e-06
1.1524e-06
1.40602e-06
1.40437e-06
1.15221e-06
1.15235e-06
1.15223e-06
1.40439e-06
1.40616e-06
1.4041e-06
1.15237e-06
1.15226e-06
1.15234e-06
1.15223e-06
1.40614e-06
1.40407e-06
1.15219e-06
1.15238e-06
1.15216e-06
1.15236e-06
1.1524e-06
1.15222e-06
1.15238e-06
1.40622e-06
1.40417e-06
1.15223e-06
1.15232e-06
1.15221e-06
1.40422e-06
1.40599e-06
1.40427e-06
1.15235e-06
1.15224e-06
1.15235e-06
1.15224e-06
1.40597e-06
1.40425e-06
1.15217e-06
1.15237e-06
1.15217e-06
1.15236e-06
1.15239e-06
1.15223e-06
1.15239e-06
1.40606e-06
1.40433e-06
1.15222e-06
1.15233e-06
1.15222e-06
1.40433e-06
1.40612e-06
1.40415e-06
1.15236e-06
1.15225e-06
1.15235e-06
1.15224e-06
1.40609e-06
1.40413e-06
1.15217e-06
1.15237e-06
1.15216e-06
1.15236e-06
1.15239e-06
1.15222e-06
1.15238e-06
1.40617e-06
1.40423e-06
1.15222e-06
1.15233e-06
1.15221e-06
1.40429e-06
1.40606e-06
1.40418e-06
1.15236e-06
1.15225e-06
1.15234e-06
1.15223e-06
1.40604e-06
1.40417e-06
1.15218e-06
1.15237e-06
1.15216e-06
1.15235e-06
1.15239e-06
1.15222e-06
1.15238e-06
1.40613e-06
1.40425e-06
1.15222e-06
1.15233e-06
1.15221e-06
1.40426e-06
1.40602e-06
1.40425e-06
1.15236e-06
1.15225e-06
1.15234e-06
1.15223e-06
1.40601e-06
1.40422e-06
1.15218e-06
1.15237e-06
1.15216e-06
1.15235e-06
1.15239e-06
1.15222e-06
1.15238e-06
1.40608e-06
1.40433e-06
1.15222e-06
1.15232e-06
1.15221e-06
1.40436e-06
1.40614e-06
1.40413e-06
1.15236e-06
1.15225e-06
1.15234e-06
1.15223e-06
1.40612e-06
1.40409e-06
1.15218e-06
1.15237e-06
1.15216e-06
1.15235e-06
1.1524e-06
1.15221e-06
1.15237e-06
1.40621e-06
1.40419e-06
1.15222e-06
1.15232e-06
1.1522e-06
1.40423e-06
1.40603e-06
1.40415e-06
1.15237e-06
1.15226e-06
1.15233e-06
1.15222e-06
1.40599e-06
1.40416e-06
1.15218e-06
1.15238e-06
1.15215e-06
1.15234e-06
1.1524e-06
1.15221e-06
1.15237e-06
1.40609e-06
1.40424e-06
1.15223e-06
1.15231e-06
1.15219e-06
1.40425e-06
1.406e-06
1.40424e-06
1.15237e-06
1.15226e-06
1.15233e-06
1.15222e-06
1.406e-06
1.40424e-06
1.15219e-06
1.15238e-06
1.15214e-06
1.15234e-06
1.15241e-06
1.1522e-06
1.15236e-06
1.40608e-06
1.40432e-06
1.15223e-06
1.15231e-06
1.15219e-06
1.40433e-06
1.40608e-06
1.40425e-06
1.15238e-06
1.15227e-06
1.15232e-06
1.15221e-06
1.4061e-06
1.40417e-06
1.15219e-06
1.15239e-06
1.15214e-06
1.15233e-06
1.15241e-06
1.15219e-06
1.15235e-06
1.40617e-06
1.40429e-06
1.15224e-06
1.1523e-06
1.15218e-06
1.40435e-06
1.40614e-06
1.40413e-06
1.15239e-06
1.15228e-06
1.1523e-06
1.15219e-06
1.40609e-06
1.4041e-06
1.15221e-06
1.1524e-06
1.15212e-06
1.15231e-06
1.15242e-06
1.15218e-06
1.15234e-06
1.40619e-06
1.40421e-06
1.15225e-06
1.15228e-06
1.15216e-06
1.40425e-06
1.40605e-06
1.40415e-06
1.1524e-06
1.15229e-06
1.15229e-06
1.15218e-06
1.40601e-06
1.40412e-06
1.15222e-06
1.15242e-06
1.15211e-06
1.1523e-06
1.15244e-06
1.15216e-06
1.15232e-06
1.40611e-06
1.40421e-06
1.15227e-06
1.15227e-06
1.15215e-06
1.40423e-06
1.40601e-06
1.4042e-06
1.15243e-06
1.15232e-06
1.15227e-06
1.15217e-06
1.40597e-06
1.40423e-06
1.15225e-06
1.15244e-06
1.15209e-06
1.15228e-06
1.15246e-06
1.15216e-06
1.15231e-06
1.40608e-06
1.40423e-06
1.15229e-06
1.15225e-06
1.15213e-06
1.40431e-06
1.40603e-06
1.40403e-06
1.15246e-06
1.15236e-06
1.15187e-06
1.15176e-06
1.40607e-06
1.40398e-06
1.15228e-06
1.15247e-06
1.15169e-06
1.15188e-06
1.1525e-06
1.15175e-06
1.1519e-06
1.40606e-06
1.4041e-06
1.15232e-06
1.15185e-06
1.15173e-06
1.4041e-06
1.40581e-06
1.38479e-06
1.15217e-06
1.15206e-06
1.13077e-06
1.13062e-06
1.40577e-06
1.38478e-06
1.15198e-06
1.15217e-06
1.13065e-06
1.13068e-06
1.1522e-06
1.13073e-06
1.13073e-06
1.40587e-06
1.38482e-06
1.15202e-06
1.13078e-06
1.13061e-06
1.38483e-06
1.36319e-06
1.09367e-06
1.09352e-06
1.36317e-06
1.09359e-06
1.09358e-06
5.97513e-07
5.97556e-07
5.97512e-07
1.09362e-06
1.36321e-06
1.09355e-06
1.49864e-08
3.13703e-09
9.4566e-09
9.4621e-09
1.7016e-09
4.23305e-09
3.64266e-09
4.9388e-09
1.76924e-09
4.33385e-09
5.05275e-09
1.01632e-08
5.04852e-09
7.63898e-09
8.44316e-09
7.57505e-09
1.63987e-07
5.92848e-09
2.60044e-07
1.52416e-06
3.03245e-06
7.37081e-09
1.64873e-07
5.69731e-09
2.60893e-07
5.37205e-09
5.49801e-09
5.48153e-09
5.43733e-09
5.33344e-09
5.46208e-09
5.46329e-09
1.6533e-09
7.70405e-08
2.61093e-09
3.73965e-09
1.6996e-09
5.64146e-08
2.58026e-09
1.63265e-06
3.20756e-06
1.54281e-09
2.91288e-09
8.3937e-08
4.57666e-09
1.58565e-09
2.87138e-09
6.2305e-08
2.19522e-07
2.19562e-07
4.68113e-09
1.89079e-07
1.88305e-07
1.73378e-08
4.63806e-07
1.15267e-08
6.79845e-07
6.86876e-06
9.90013e-06
1.73692e-08
4.64825e-07
1.13632e-08
6.82883e-07
5.33569e-09
5.46159e-09
5.46235e-09
5.43976e-09
5.34709e-09