/*--------------------------------*- C++ -*----------------------------------*\
| =========                 |                                                 |
| \\      /  F ield         | OpenFOAM: The Open Source CFD Toolbox           |
|  \\    /   O peration     | Version:  v2006                                 |
|   \\  /    A nd           | Website:  www.openfoam.com                      |
|    \\/     M anipulation  |                                                 |
\*---------------------------------------------------------------------------*/
FoamFile
{
    version     2.0;
    format      ascii;
    class       volScalarField;
    location    "250";
    object      epsilon;
}
// * * * * * * * * * * * * * * * * * * * * * * * * * * * * * * * * * * * * * //

dimensions      [0 2 -3 0 0 0 0];


internalField   nonuniform List<scalar> 
43248
(
1.33745e-07
2.30906e-07
2.30909e-07
3.584e-07
1.31602e-07
2.41573e-07
2.41578e-07
3.84536e-07
1.30255e-07
2.54328e-07
2.54334e-07
4.13534e-07
1.29693e-07
2.69124e-07
2.69133e-07
4.45051e-07
1.29918e-07
2.85896e-07
2.85908e-07
4.78693e-07
1.30907e-07
3.04558e-07
3.04572e-07
5.1404e-07
1.32663e-07
3.25005e-07
3.25022e-07
5.50632e-07
1.35185e-07
3.47118e-07
3.47139e-07
5.88035e-07
1.38476e-07
3.70761e-07
3.70786e-07
6.25814e-07
1.42537e-07
3.95789e-07
3.95818e-07
6.63606e-07
1.47375e-07
4.22039e-07
4.22075e-07
7.01058e-07
1.52994e-07
4.49355e-07
4.4939e-07
7.37918e-07
1.594e-07
4.77556e-07
4.77605e-07
7.73956e-07
1.66598e-07
5.06478e-07
5.06523e-07
8.09033e-07
1.74585e-07
5.35927e-07
5.35984e-07
8.42983e-07
1.83367e-07
5.65743e-07
5.65801e-07
8.75798e-07
1.92941e-07
5.9574e-07
5.95806e-07
9.07411e-07
2.03297e-07
6.25769e-07
6.25837e-07
9.37829e-07
2.14418e-07
6.55642e-07
6.55721e-07
9.67033e-07
2.26282e-07
6.85241e-07
6.85315e-07
9.95039e-07
2.38864e-07
7.14386e-07
7.14468e-07
1.02184e-06
2.5213e-07
7.4302e-07
7.43106e-07
1.04752e-06
2.6601e-07
7.70948e-07
7.71034e-07
1.07205e-06
2.80499e-07
7.9814e-07
7.98232e-07
1.09546e-06
2.95522e-07
8.2457e-07
8.24663e-07
1.11798e-06
3.1093e-07
8.49806e-07
8.49905e-07
1.13897e-06
3.26861e-07
8.74645e-07
8.74723e-07
1.1601e-06
3.5288e-07
2.28629e-07
2.28667e-07
3.529e-07
2.28577e-07
2.28672e-07
2.28568e-07
2.28645e-07
3.52907e-07
2.28571e-07
2.28597e-07
3.52952e-07
3.58327e-07
3.78363e-07
2.3097e-07
2.31009e-07
2.38781e-07
2.38821e-07
3.5836e-07
3.78387e-07
2.30914e-07
2.31013e-07
2.3872e-07
2.38827e-07
2.30985e-07
2.3871e-07
2.38797e-07
3.58361e-07
3.78396e-07
2.30935e-07
2.38715e-07
2.38744e-07
3.78446e-07
3.84456e-07
4.06748e-07
2.41648e-07
2.41688e-07
2.51027e-07
2.5107e-07
3.84491e-07
4.06778e-07
2.41583e-07
2.41693e-07
2.50958e-07
2.51077e-07
2.41662e-07
2.50947e-07
2.51043e-07
3.84491e-07
4.06789e-07
2.41608e-07
2.50953e-07
2.50985e-07
4.06845e-07
4.13441e-07
4.37713e-07
2.54412e-07
2.54454e-07
2.65327e-07
2.65372e-07
4.13483e-07
4.37745e-07
2.54338e-07
2.5446e-07
2.6525e-07
2.65381e-07
2.54427e-07
2.65238e-07
2.65345e-07
4.13485e-07
4.37759e-07
2.54367e-07
2.65246e-07
2.6528e-07
4.37819e-07
4.44947e-07
4.70875e-07
2.69218e-07
2.69262e-07
2.81622e-07
2.81669e-07
4.44992e-07
4.70908e-07
2.69135e-07
2.6927e-07
2.81535e-07
2.81679e-07
2.69234e-07
2.81523e-07
2.81641e-07
4.44996e-07
4.70925e-07
2.69168e-07
2.81534e-07
2.81569e-07
4.70991e-07
4.78581e-07
5.05817e-07
2.85999e-07
2.86045e-07
2.99829e-07
2.99877e-07
4.7863e-07
5.05845e-07
2.85908e-07
2.86055e-07
2.99734e-07
2.9989e-07
2.86017e-07
2.9972e-07
2.9985e-07
4.78637e-07
5.05865e-07
2.85943e-07
2.99734e-07
2.99771e-07
5.05943e-07
5.13917e-07
5.4209e-07
3.04671e-07
3.04718e-07
3.1985e-07
3.19899e-07
5.13962e-07
5.4212e-07
3.0457e-07
3.04729e-07
3.19746e-07
3.19915e-07
3.0469e-07
3.19732e-07
3.19874e-07
5.13971e-07
5.42144e-07
3.04609e-07
3.19749e-07
3.19785e-07
5.42225e-07
5.50502e-07
5.79256e-07
3.25129e-07
3.25174e-07
3.41569e-07
3.41617e-07
5.50545e-07
5.79286e-07
3.25018e-07
3.25189e-07
3.41455e-07
3.41636e-07
3.2515e-07
3.41442e-07
3.41595e-07
5.50559e-07
5.79314e-07
3.25059e-07
3.41462e-07
3.41497e-07
5.79402e-07
5.87893e-07
6.16888e-07
3.47251e-07
3.47297e-07
3.64854e-07
3.64898e-07
5.8794e-07
6.16911e-07
3.4713e-07
3.47314e-07
3.64729e-07
3.64922e-07
3.47276e-07
3.64715e-07
3.64881e-07
5.87956e-07
6.16946e-07
3.47175e-07
3.6474e-07
3.64772e-07
6.17034e-07
6.25674e-07
6.5459e-07
3.70905e-07
3.70947e-07
3.89558e-07
3.89601e-07
6.25713e-07
6.54618e-07
3.70772e-07
3.70968e-07
3.89423e-07
3.89627e-07
3.7093e-07
3.89412e-07
3.8959e-07
6.25736e-07
6.54653e-07
3.70819e-07
3.8944e-07
3.8947e-07
6.54752e-07
6.63454e-07
6.92029e-07
3.95941e-07
3.95981e-07
4.15526e-07
4.15564e-07
6.63496e-07
6.92049e-07
3.95799e-07
3.96005e-07
4.15381e-07
4.15596e-07
3.9597e-07
4.1537e-07
4.15561e-07
6.63518e-07
6.92093e-07
3.95848e-07
4.15404e-07
4.15431e-07
6.92195e-07
7.009e-07
7.28936e-07
4.22201e-07
4.22235e-07
4.42599e-07
4.42634e-07
7.00937e-07
7.28958e-07
4.22048e-07
4.22266e-07
4.42445e-07
4.42668e-07
4.22232e-07
4.42437e-07
4.42636e-07
7.00971e-07
7.28995e-07
4.22099e-07
4.42472e-07
4.42494e-07
7.291e-07
7.37758e-07
7.65062e-07
4.49523e-07
4.49554e-07
4.70601e-07
4.70628e-07
7.37798e-07
7.65073e-07
4.4936e-07
4.49584e-07
4.70436e-07
4.70673e-07
4.49558e-07
4.70429e-07
4.70643e-07
7.37817e-07
7.65136e-07
4.49414e-07
4.70476e-07
4.70491e-07
7.65238e-07
7.73793e-07
8.00276e-07
4.77733e-07
4.77756e-07
4.99364e-07
4.99386e-07
7.7382e-07
8.00288e-07
4.77561e-07
4.77799e-07
4.99192e-07
4.99428e-07
4.77771e-07
4.99187e-07
4.99405e-07
7.73874e-07
8.00325e-07
4.77616e-07
4.99231e-07
4.99243e-07
8.00441e-07
8.08871e-07
8.34404e-07
5.06659e-07
5.06678e-07
5.28704e-07
5.28719e-07
8.08903e-07
8.34414e-07
5.06478e-07
5.06718e-07
5.28522e-07
5.28773e-07
5.06701e-07
5.28523e-07
5.28749e-07
8.08926e-07
8.34479e-07
5.06536e-07
5.28579e-07
5.28578e-07
8.34578e-07
8.42822e-07
8.67428e-07
5.36113e-07
5.36123e-07
5.58457e-07
5.58463e-07
8.42842e-07
8.67428e-07
5.35925e-07
5.36176e-07
5.5827e-07
5.58519e-07
5.36155e-07
5.58269e-07
5.58505e-07
8.42896e-07
8.67484e-07
5.35982e-07
5.58327e-07
5.58326e-07
8.67595e-07
8.75636e-07
8.99267e-07
5.65932e-07
5.65935e-07
5.88429e-07
5.88429e-07
8.75652e-07
8.99273e-07
5.65737e-07
5.65988e-07
5.88235e-07
5.88492e-07
5.6598e-07
5.8824e-07
5.88478e-07
8.75697e-07
8.99334e-07
5.65798e-07
5.88305e-07
5.88291e-07
8.99432e-07
9.07255e-07
9.29926e-07
5.95932e-07
5.95928e-07
6.18469e-07
6.18463e-07
9.07272e-07
9.29928e-07
5.95733e-07
5.9599e-07
6.1827e-07
6.18527e-07
5.9598e-07
6.18279e-07
6.18519e-07
9.07324e-07
9.29987e-07
5.95792e-07
6.18347e-07
6.18326e-07
9.30081e-07
9.37682e-07
9.59367e-07
6.25959e-07
6.25949e-07
6.4839e-07
6.48373e-07
9.37701e-07
9.59362e-07
6.25754e-07
6.26012e-07
6.48189e-07
6.48446e-07
6.26007e-07
6.48196e-07
6.48441e-07
9.37747e-07
9.5943e-07
6.25814e-07
6.48272e-07
6.48242e-07
9.5952e-07
9.66886e-07
9.87623e-07
6.55838e-07
6.55814e-07
6.78073e-07
6.78054e-07
9.66891e-07
9.87632e-07
6.5563e-07
6.55889e-07
6.77867e-07
6.78125e-07
6.5589e-07
6.77883e-07
6.78124e-07
9.66953e-07
9.87689e-07
6.55692e-07
6.77959e-07
6.77924e-07
9.87772e-07
9.94912e-07
1.01467e-06
6.8543e-07
6.85407e-07
7.07339e-07
7.07312e-07
9.94923e-07
1.01467e-06
6.85218e-07
6.85477e-07
7.07133e-07
7.07391e-07
6.85478e-07
7.07153e-07
7.07391e-07
9.94969e-07
1.01474e-06
6.85278e-07
7.07233e-07
7.0719e-07
1.01481e-06
1.02172e-06
1.0406e-06
7.14572e-07
7.14542e-07
7.36103e-07
7.36067e-07
1.02171e-06
1.04059e-06
7.14362e-07
7.14621e-07
7.35899e-07
7.36154e-07
7.14626e-07
7.35918e-07
7.36159e-07
1.02178e-06
1.04066e-06
7.14423e-07
7.36006e-07
7.35955e-07
1.04073e-06
1.04741e-06
1.06534e-06
7.43203e-07
7.43166e-07
7.64216e-07
7.64177e-07
1.0474e-06
1.06534e-06
7.42997e-07
7.43249e-07
7.64012e-07
7.64261e-07
7.43257e-07
7.64038e-07
7.6427e-07
1.04746e-06
1.0654e-06
7.43054e-07
7.64123e-07
7.64067e-07
1.06547e-06
1.07193e-06
1.08904e-06
7.71125e-07
7.71085e-07
7.91604e-07
7.91556e-07
1.07193e-06
1.08903e-06
7.70918e-07
7.71167e-07
7.91402e-07
7.91651e-07
7.71179e-07
7.91426e-07
7.91657e-07
1.07199e-06
1.08911e-06
7.70976e-07
7.91518e-07
7.91453e-07
1.08916e-06
1.09535e-06
1.1117e-06
7.98314e-07
7.98266e-07
8.1819e-07
8.18138e-07
1.09534e-06
1.11169e-06
7.9811e-07
7.98358e-07
8.17989e-07
8.18233e-07
7.98369e-07
8.18026e-07
8.18243e-07
1.09541e-06
1.11177e-06
7.98165e-07
8.18117e-07
8.1804e-07
1.11182e-06
1.11788e-06
1.13308e-06
8.24738e-07
8.24682e-07
8.43781e-07
8.43709e-07
1.11787e-06
1.13304e-06
8.24535e-07
8.24777e-07
8.43579e-07
8.43816e-07
8.24793e-07
8.43599e-07
8.43826e-07
1.11794e-06
1.13314e-06
8.2459e-07
8.43698e-07
8.43625e-07
1.13318e-06
1.13889e-06
1.15408e-06
8.49978e-07
8.49906e-07
8.68641e-07
8.68591e-07
1.13885e-06
1.15412e-06
8.49774e-07
8.50011e-07
8.68442e-07
8.68682e-07
8.50014e-07
8.68511e-07
8.68715e-07
1.13894e-06
1.15416e-06
8.49813e-07
8.68593e-07
8.68512e-07
1.15424e-06
1.15994e-06
8.74783e-07
8.74736e-07
1.15999e-06
8.74581e-07
8.74821e-07
8.74865e-07
1.16002e-06
8.74662e-07
1.3441e-07
1.34414e-07
1.34417e-07
1.34417e-07
3.68243e-06
8.90847e-06
3.64885e-06
8.91361e-06
1.8467e-05
1.84588e-05
3.6829e-06
8.90965e-06
3.64866e-06
8.91479e-06
1.33748e-07
1.33751e-07
1.33752e-07
1.32068e-07
1.32072e-07
1.32075e-07
1.32076e-07
1.15865e-06
2.79621e-06
1.5862e-07
2.33377e-07
1.13072e-06
2.82004e-06
1.58835e-07
1.84683e-05
1.846e-05
1.15868e-06
1.58622e-07
2.79633e-06
2.33381e-07
1.13078e-06
1.58838e-07
2.82014e-06
5.13138e-06
5.13303e-06
3.65326e-07
5.14399e-06
5.14565e-06
3.75864e-06
8.91978e-06
3.73234e-06
8.9243e-06
1.84381e-05
1.84306e-05
3.75908e-06
8.92098e-06
3.73216e-06
8.92549e-06
1.31606e-07
1.31609e-07
1.3161e-07
1.30527e-07
1.30531e-07
1.30535e-07
1.30536e-07
1.2425e-06
2.86625e-06
1.5999e-07
2.44569e-07
1.21525e-06
2.88731e-06
1.60538e-07
1.84393e-05
1.84318e-05
1.24253e-06
1.59994e-07
2.86638e-06
2.44574e-07
1.21532e-06
1.60541e-07
2.8874e-06
5.16604e-06
5.16769e-06
3.92302e-07
5.17629e-06
5.17794e-06
3.81799e-06
8.92974e-06
3.79796e-06
8.93371e-06
1.84117e-05
1.84048e-05
3.81842e-06
8.93096e-06
3.79778e-06
8.93492e-06
1.30259e-07
1.30263e-07
1.30264e-07
1.29775e-07
1.2978e-07
1.29784e-07
1.29785e-07
1.32317e-06
2.92823e-06
1.62695e-07
2.57839e-07
1.29717e-06
2.94671e-06
1.63581e-07
1.84128e-05
1.84059e-05
1.3232e-06
1.627e-07
2.92835e-06
2.57846e-07
1.29723e-06
1.63586e-07
2.9468e-06
5.19467e-06
5.19631e-06
4.22029e-07
5.20309e-06
5.20474e-06
3.86347e-06
8.93845e-06
3.84853e-06
8.9419e-06
1.83875e-05
1.83812e-05
3.86389e-06
8.93968e-06
3.84835e-06
8.94313e-06
1.29697e-07
1.29702e-07
1.29703e-07
1.2979e-07
1.29795e-07
1.298e-07
1.29801e-07
1.39924e-06
2.98285e-06
1.66754e-07
2.73135e-07
1.3749e-06
2.99904e-06
1.67984e-07
1.83887e-05
1.83823e-05
1.39927e-06
1.6676e-07
2.98298e-06
2.73144e-07
1.37496e-06
1.6799e-07
2.99913e-06
5.21857e-06
5.22022e-06
4.54155e-07
5.22553e-06
5.22718e-06
3.89808e-06
8.94607e-06
3.88706e-06
8.94916e-06
1.83656e-05
1.836e-05
3.89848e-06
8.94728e-06
3.88688e-06
8.95038e-06
1.29923e-07
1.29928e-07
1.29929e-07
1.30587e-07
1.30592e-07
1.30598e-07
1.30599e-07
1.46976e-06
3.03094e-06
1.72186e-07
2.90388e-07
1.44733e-06
3.04517e-06
1.73759e-07
1.83667e-05
1.83611e-05
1.46979e-06
1.72193e-07
3.03107e-06
2.904e-07
1.44739e-06
1.73767e-07
3.04527e-06
5.23868e-06
5.24032e-06
4.88269e-07
5.24449e-06
5.24615e-06
3.92438e-06
8.95277e-06
3.91629e-06
8.95564e-06
1.83458e-05
1.8341e-05
3.92476e-06
8.954e-06
3.91613e-06
8.95686e-06
1.30912e-07
1.30918e-07
1.30919e-07
1.32151e-07
1.32156e-07
1.32164e-07
1.32165e-07
1.53422e-06
3.07332e-06
1.78997e-07
3.09507e-07
1.51381e-06
3.08591e-06
1.80916e-07
1.8347e-05
1.83422e-05
1.53425e-06
1.79006e-07
3.07344e-06
3.09522e-07
1.51386e-06
1.80925e-07
3.08601e-06
5.25577e-06
5.25742e-06
5.23946e-07
5.26072e-06
5.26239e-06
3.94459e-06
8.95891e-06
3.93856e-06
8.96157e-06
1.83283e-05
1.83243e-05
3.94487e-06
8.96015e-06
3.93844e-06
8.96281e-06
1.32668e-07
1.32676e-07
1.32677e-07
1.34482e-07
1.34487e-07
1.34496e-07
1.34497e-07
1.59253e-06
3.11084e-06
1.87189e-07
3.30383e-07
1.57415e-06
3.12202e-06
1.89452e-07
1.83294e-05
1.83254e-05
1.59255e-06
1.872e-07
3.11097e-06
3.30401e-07
1.57419e-06
1.89464e-07
3.12212e-06
5.27052e-06
5.27216e-06
5.60731e-07
5.27481e-06
5.27647e-06
3.96033e-06
8.96475e-06
3.95569e-06
8.96726e-06
1.83131e-05
1.83099e-05
3.9605e-06
8.96597e-06
3.95568e-06
8.9685e-06
1.3519e-07
1.352e-07
1.35201e-07
1.37581e-07
1.37586e-07
1.37597e-07
1.37598e-07
1.64491e-06
3.14426e-06
1.96755e-07
3.52892e-07
1.62845e-06
3.15424e-06
1.99359e-07
1.83143e-05
1.8311e-05
1.64493e-06
1.96769e-07
3.14439e-06
3.52914e-07
1.6285e-06
1.99373e-07
3.15434e-06
5.28344e-06
5.28508e-06
5.98187e-07
5.28725e-06
5.2889e-06
3.97277e-06
8.97045e-06
3.96913e-06
8.9729e-06
1.83003e-05
1.82979e-05
3.97292e-06
8.97169e-06
3.96918e-06
8.97414e-06
1.38481e-07
1.38492e-07
1.38493e-07
1.4145e-07
1.41455e-07
1.41467e-07
1.41468e-07
1.69192e-06
3.17423e-06
2.07676e-07
3.76895e-07
1.67701e-06
3.18318e-06
2.10615e-07
1.83014e-05
1.8299e-05
1.69185e-06
2.07692e-07
3.17437e-06
3.76921e-07
1.67714e-06
2.10632e-07
3.18328e-06
5.29498e-06
5.29663e-06
6.35905e-07
5.29844e-06
5.3001e-06
3.9829e-06
8.97617e-06
3.97993e-06
8.97881e-06
1.82898e-05
1.82882e-05
3.98305e-06
8.97742e-06
3.97999e-06
8.98008e-06
1.42543e-07
1.42555e-07
1.42557e-07
1.46093e-07
1.46098e-07
1.46113e-07
1.46113e-07
1.73402e-06
3.20134e-06
2.19924e-07
4.02243e-07
1.72041e-06
3.20944e-06
2.2319e-07
1.82909e-05
1.82893e-05
1.73395e-06
2.19944e-07
3.20148e-06
4.02273e-07
1.72054e-06
2.2321e-07
3.20955e-06
5.30556e-06
5.3072e-06
6.73524e-07
5.30874e-06
5.3104e-06
3.99129e-06
8.9821e-06
3.98883e-06
8.98487e-06
1.82816e-05
1.82809e-05
3.99143e-06
8.98337e-06
3.98888e-06
8.98612e-06
1.4738e-07
1.47395e-07
1.47396e-07
1.51515e-07
1.51521e-07
1.51537e-07
1.51538e-07
1.77175e-06
3.22602e-06
2.33462e-07
4.28776e-07
1.75929e-06
3.23341e-06
2.37043e-07
1.82827e-05
1.82821e-05
1.77169e-06
2.33485e-07
3.22615e-06
4.28813e-07
1.75942e-06
2.37067e-07
3.23356e-06
5.31544e-06
5.31708e-06
7.10729e-07
5.31841e-06
5.32006e-06
3.99861e-06
8.98846e-06
3.99645e-06
8.99147e-06
1.82759e-05
1.8276e-05
3.99868e-06
8.98975e-06
3.99648e-06
8.99273e-06
1.52999e-07
1.53016e-07
1.53017e-07
1.57722e-07
1.57727e-07
1.57747e-07
1.57747e-07
1.80579e-06
3.24874e-06
2.48246e-07
4.56328e-07
1.7943e-06
3.25554e-06
2.52129e-07
1.82769e-05
1.8277e-05
1.80573e-06
2.48273e-07
3.24883e-06
4.56365e-07
1.79443e-06
2.52157e-07
3.25562e-06
5.32487e-06
5.32651e-06
7.47281e-07
5.32774e-06
5.32939e-06
4.00506e-06
8.99534e-06
4.00317e-06
8.99849e-06
1.82724e-05
1.82734e-05
4.00512e-06
8.99661e-06
4.00314e-06
8.99976e-06
1.59405e-07
1.59425e-07
1.59426e-07
1.6472e-07
1.64725e-07
1.64746e-07
1.64747e-07
1.83668e-06
3.26976e-06
2.64222e-07
4.84724e-07
1.82601e-06
3.27612e-06
2.68391e-07
1.82736e-05
1.82745e-05
1.83662e-06
2.64253e-07
3.26994e-06
4.84772e-07
1.82615e-06
2.68423e-07
3.27624e-06
5.334e-06
5.33564e-06
7.82959e-07
5.33678e-06
5.33843e-06
4.01103e-06
9.00276e-06
4.00923e-06
9.00631e-06
1.82714e-05
1.82732e-05
4.01108e-06
9.00412e-06
4.00924e-06
9.00754e-06
1.66603e-07
1.66625e-07
1.66627e-07
1.72515e-07
1.72519e-07
1.72545e-07
1.72545e-07
1.86498e-06
3.28946e-06
2.81328e-07
5.13794e-07
1.85498e-06
3.29543e-06
2.85768e-07
1.82724e-05
1.82743e-05
1.86492e-06
2.81362e-07
3.28958e-06
5.13843e-07
1.85511e-06
2.85804e-07
3.29555e-06
5.34308e-06
5.34472e-06
8.17657e-07
5.34591e-06
5.34755e-06
4.01657e-06
9.01088e-06
4.01492e-06
9.01448e-06
1.82725e-05
1.82752e-05
4.01668e-06
9.0121e-06
4.0149e-06
9.01593e-06
1.7459e-07
1.74616e-07
1.74616e-07
1.81107e-07
1.8111e-07
1.81139e-07
1.81139e-07
1.89109e-06
3.308e-06
2.9949e-07
5.43354e-07
1.88168e-06
3.31361e-06
3.04193e-07
1.82736e-05
1.82763e-05
1.89103e-06
2.9953e-07
3.30815e-06
5.43412e-07
1.88182e-06
3.04234e-07
3.31374e-06
5.35196e-06
5.35361e-06
8.51224e-07
5.35481e-06
5.35647e-06
4.02222e-06
9.01991e-06
4.02051e-06
9.02404e-06
1.8276e-05
1.82794e-05
4.02222e-06
9.02112e-06
4.02047e-06
9.02513e-06
1.83371e-07
1.834e-07
1.83402e-07
1.90485e-07
1.90489e-07
1.90521e-07
1.9052e-07
1.9155e-06
3.3256e-06
3.18643e-07
5.7324e-07
1.90652e-06
3.33095e-06
3.23592e-07
1.8277e-05
1.82805e-05
1.91543e-06
3.18687e-07
3.32572e-06
5.73301e-07
1.90666e-06
3.23637e-07
3.33107e-06
5.36108e-06
5.3627e-06
8.83664e-07
5.36389e-06
5.36554e-06
4.02768e-06
9.029e-06
4.02587e-06
9.03384e-06
1.82813e-05
1.82857e-05
4.02785e-06
9.03046e-06
4.02591e-06
9.03523e-06
1.92945e-07
1.92977e-07
1.92978e-07
2.00647e-07
2.0065e-07
2.00686e-07
2.00685e-07
1.93837e-06
3.34225e-06
3.38703e-07
6.0326e-07
1.92973e-06
3.34739e-06
3.43871e-07
1.82825e-05
1.82868e-05
1.93829e-06
3.38752e-07
3.34238e-06
6.03327e-07
1.92988e-06
3.4392e-07
3.34748e-06
5.36995e-06
5.37159e-06
9.14906e-07
5.37295e-06
5.37458e-06
4.03333e-06
9.04005e-06
4.03176e-06
9.04394e-06
1.82892e-05
1.82938e-05
4.03349e-06
9.04111e-06
4.03162e-06
9.04536e-06
2.03301e-07
2.03337e-07
2.03337e-07
2.11576e-07
2.11578e-07
2.11619e-07
2.11617e-07
1.95999e-06
3.35838e-06
3.59601e-07
6.33261e-07
1.95179e-06
3.36314e-06
3.64949e-07
1.82902e-05
1.82949e-05
1.95993e-06
3.59653e-07
3.35849e-06
6.33331e-07
1.95192e-06
3.65004e-07
3.36324e-06
5.37922e-06
5.38086e-06
9.44949e-07
5.38191e-06
5.38359e-06
4.03975e-06
9.05112e-06
4.03747e-06
9.05638e-06
1.82985e-05
1.83044e-05
4.03973e-06
9.05248e-06
4.03748e-06
9.05736e-06
2.1442e-07
2.14462e-07
2.14462e-07
2.23259e-07
2.23262e-07
2.23306e-07
2.23306e-07
1.98071e-06
3.37366e-06
3.81223e-07
6.63079e-07
1.97262e-06
3.37843e-06
3.86745e-07
1.82997e-05
1.83055e-05
1.98061e-06
3.81281e-07
3.3738e-06
6.63159e-07
1.97275e-06
3.86803e-07
3.37853e-06
5.38849e-06
5.39011e-06
9.73799e-07
5.3915e-06
5.39312e-06
4.04581e-06
9.06284e-06
4.04345e-06
9.06804e-06
1.83105e-05
1.83168e-05
4.04596e-06
9.06436e-06
4.04358e-06
9.06957e-06
2.26285e-07
2.26329e-07
2.26329e-07
2.35658e-07
2.3566e-07
2.35708e-07
2.35707e-07
2.00028e-06
3.3885e-06
4.03487e-07
6.92582e-07
1.9926e-06
3.393e-06
4.09152e-07
1.83113e-05
1.83174e-05
2.00019e-06
4.03548e-07
3.3886e-06
6.92656e-07
1.99272e-06
4.09213e-07
3.39306e-06
5.39772e-06
5.39936e-06
1.00144e-06
5.40068e-06
5.40237e-06
4.05252e-06
9.07547e-06
4.04986e-06
9.08113e-06
1.83232e-05
1.83302e-05
4.05263e-06
9.07688e-06
4.05e-06
9.08257e-06
2.38866e-07
2.38915e-07
2.38914e-07
2.48751e-07
2.48752e-07
2.48806e-07
2.48803e-07
2.01917e-06
3.40272e-06
4.2628e-07
7.21599e-07
2.01169e-06
3.4071e-06
4.32051e-07
1.83242e-05
1.83313e-05
2.01908e-06
4.26344e-07
3.40283e-06
7.21686e-07
2.01179e-06
4.32116e-07
3.4072e-06
5.40706e-06
5.40869e-06
1.02791e-06
5.41016e-06
5.41179e-06
4.05954e-06
9.08915e-06
4.05676e-06
9.0951e-06
1.83385e-05
1.83459e-05
4.05964e-06
9.09068e-06
4.05693e-06
9.09657e-06
2.5213e-07
2.52184e-07
2.52182e-07
2.62498e-07
2.62499e-07
2.62555e-07
2.62553e-07
2.03729e-06
3.41665e-06
4.49521e-07
7.50065e-07
2.03011e-06
3.42081e-06
4.55383e-07
1.83396e-05
1.83469e-05
2.03721e-06
4.49589e-07
3.41676e-06
7.50149e-07
2.0302e-06
4.55451e-07
3.42087e-06
5.4168e-06
5.41844e-06
1.05324e-06
5.41964e-06
5.4213e-06
4.06685e-06
9.10268e-06
4.06375e-06
9.10961e-06
1.83541e-05
1.83637e-05
4.06694e-06
9.10409e-06
4.06385e-06
9.11109e-06
2.66011e-07
2.66069e-07
2.66065e-07
2.76826e-07
2.76825e-07
2.76887e-07
2.76883e-07
2.0547e-06
3.42981e-06
4.73048e-07
7.77857e-07
2.04772e-06
3.4341e-06
4.78991e-07
1.83553e-05
1.83649e-05
2.05464e-06
4.73118e-07
3.4299e-06
7.77946e-07
2.04777e-06
4.79061e-07
3.43418e-06
5.42602e-06
5.42767e-06
1.07749e-06
5.42958e-06
5.43124e-06
4.07393e-06
9.11832e-06
4.0713e-06
9.12288e-06
1.83723e-05
1.83789e-05
4.07402e-06
9.11978e-06
4.07143e-06
9.12431e-06
2.80499e-07
2.80562e-07
2.80558e-07
2.91715e-07
2.91715e-07
2.91782e-07
2.91774e-07
2.07125e-06
3.44271e-06
4.96825e-07
8.0477e-07
2.06477e-06
3.44628e-06
5.02762e-07
1.83738e-05
1.83803e-05
2.07121e-06
4.96898e-07
3.44283e-06
8.04861e-07
2.0648e-06
5.02835e-07
3.44634e-06
5.43547e-06
5.43711e-06
1.10054e-06
5.43776e-06
5.43942e-06
4.08258e-06
9.13351e-06
4.07898e-06
9.14235e-06
1.83943e-05
1.84041e-05
4.08268e-06
9.13504e-06
4.07909e-06
9.14383e-06
2.9552e-07
2.95588e-07
2.95583e-07
3.07046e-07
3.07042e-07
3.07115e-07
3.07108e-07
2.08765e-06
3.4557e-06
5.20696e-07
8.31021e-07
2.08111e-06
3.45971e-06
5.26674e-07
1.83956e-05
1.84058e-05
2.08761e-06
5.2077e-07
3.45581e-06
8.31116e-07
2.08113e-06
5.26749e-07
3.4598e-06
5.44675e-06
5.4484e-06
1.12281e-06
5.44993e-06
5.45159e-06
4.0886e-06
9.14766e-06
4.08615e-06
9.15264e-06
1.84075e-05
1.84181e-05
4.08868e-06
9.14903e-06
4.08623e-06
9.15402e-06
3.10926e-07
3.11001e-07
3.10989e-07
3.22835e-07
3.22839e-07
3.22911e-07
3.22906e-07
2.10227e-06
3.46619e-06
5.44488e-07
8.56025e-07
2.09647e-06
3.4698e-06
5.50406e-07
1.84093e-05
1.84195e-05
2.10225e-06
5.44565e-07
3.46629e-06
8.56122e-07
2.09648e-06
5.50483e-07
3.4699e-06
5.45211e-06
5.45377e-06
1.1435e-06
5.45573e-06
5.45738e-06
9.16582e-06
4.09445e-06
1.84407e-05
9.16748e-06
4.09456e-06
3.26864e-07
3.26936e-07
3.26933e-07
3.4799e-06
5.68259e-07
2.11159e-06
1.84423e-05
5.68332e-07
3.4799e-06
2.11162e-06
5.46804e-06
5.46966e-06
1.84712e-05
1.84737e-05
5.12511e-06
5.1268e-06
8.90762e-06
3.63714e-06
8.90755e-06
3.63707e-06
2.78304e-06
1.585e-07
1.11604e-06
2.78354e-06
1.58506e-07
1.11604e-06
1.84733e-05
5.12671e-06
5.12513e-06
1.84717e-05
8.9088e-06
3.63759e-06
2.78354e-06
1.58501e-07
1.11611e-06
8.90839e-06
3.6372e-06
1.58507e-07
2.78363e-06
1.11612e-06
2.78303e-06
1.58498e-07
1.11609e-06
8.90824e-06
3.63757e-06
1.585e-07
2.78309e-06
1.11608e-06
8.90793e-06
3.63749e-06
1.84745e-05
5.12695e-06
5.12538e-06
1.84725e-05
1.585e-07
2.78311e-06
1.11612e-06
1.58498e-07
2.78355e-06
1.11611e-06
8.9085e-06
3.63761e-06
8.9085e-06
3.6376e-06
5.12507e-06
5.12673e-06
1.84724e-05
1.84742e-05
1.8465e-05
1.84568e-05
1.84674e-05
1.84593e-05
5.13127e-06
5.13305e-06
3.65244e-07
5.14391e-06
5.14562e-06
1.84421e-05
1.84504e-05
1.84446e-05
1.84529e-05
3.7102e-07
5.16063e-06
5.16234e-06
5.14955e-06
5.15134e-06
3.68237e-06
8.90841e-06
3.64881e-06
8.91351e-06
1.1586e-06
2.79618e-06
1.58617e-07
2.33443e-07
1.13071e-06
2.82005e-06
1.58843e-07
1.15859e-06
2.79671e-06
1.58628e-07
2.33482e-07
1.1307e-06
2.82053e-06
1.58844e-07
3.69303e-06
8.91905e-06
8.91439e-06
3.72283e-06
3.69299e-06
8.91899e-06
8.91429e-06
3.72275e-06
1.1732e-06
2.36047e-07
2.85459e-06
1.59529e-07
2.83239e-06
1.59136e-07
1.20082e-06
1.17319e-06
2.36086e-07
2.85507e-06
1.5953e-07
2.83287e-06
1.59148e-07
1.20081e-06
5.13293e-06
5.13129e-06
3.6527e-07
5.14545e-06
5.14389e-06
1.84655e-05
1.84573e-05
1.84441e-05
1.84524e-05
3.71056e-07
5.1622e-06
5.16063e-06
5.15114e-06
5.14953e-06
1.84426e-05
1.84509e-05
1.15867e-06
2.79668e-06
1.58626e-07
2.33386e-07
1.13077e-06
2.82057e-06
1.58835e-07
3.68251e-06
8.90926e-06
3.64896e-06
8.91442e-06
1.15868e-06
1.58633e-07
2.79684e-06
2.33488e-07
1.13075e-06
1.58842e-07
2.82064e-06
3.69286e-06
8.92025e-06
8.91557e-06
3.72327e-06
1.17327e-06
2.35986e-07
2.8551e-06
1.59521e-07
2.8329e-06
1.59146e-07
1.20089e-06
3.69316e-06
8.91985e-06
8.91519e-06
3.72287e-06
1.17324e-06
2.36091e-07
1.59527e-07
2.85517e-06
1.59153e-07
2.83298e-06
1.20089e-06
3.68287e-06
8.9091e-06
3.64862e-06
8.91427e-06
1.15864e-06
1.58622e-07
2.79629e-06
2.33459e-07
1.1307e-06
1.58837e-07
2.8202e-06
3.68279e-06
8.90879e-06
3.64852e-06
8.91398e-06
1.17321e-06
2.35978e-07
2.85459e-06
1.5952e-07
2.83238e-06
1.59139e-07
1.20087e-06
3.69281e-06
8.91964e-06
8.91504e-06
3.72324e-06
1.17319e-06
2.36062e-07
1.59522e-07
2.85466e-06
1.59141e-07
2.83256e-06
1.20085e-06
3.69272e-06
8.91941e-06
8.91477e-06
3.72316e-06
5.1332e-06
5.13164e-06
3.6528e-07
5.14567e-06
5.14412e-06
1.84663e-05
1.8458e-05
1.84453e-05
1.84536e-05
3.71057e-07
5.16243e-06
5.16087e-06
5.15138e-06
5.14983e-06
1.84433e-05
1.84516e-05
1.15867e-06
1.5862e-07
2.79673e-06
2.33408e-07
1.13077e-06
1.58835e-07
2.82066e-06
3.68291e-06
8.90938e-06
3.64868e-06
8.91456e-06
3.6829e-06
8.90936e-06
3.6486e-06
8.91453e-06
1.17328e-06
2.35981e-07
1.59524e-07
2.85468e-06
1.59143e-07
2.83249e-06
1.2009e-06
1.17327e-06
2.3601e-07
1.5952e-07
2.85512e-06
1.59139e-07
2.83299e-06
1.20089e-06
3.69287e-06
8.91992e-06
8.91531e-06
3.72328e-06
3.6928e-06
8.91997e-06
8.91532e-06
3.72327e-06
1.84662e-05
1.84582e-05
1.8468e-05
1.846e-05
3.71099e-07
5.16062e-06
5.16228e-06
5.1497e-06
5.15135e-06
1.84434e-05
1.84518e-05
1.84452e-05
1.84536e-05
1.84361e-05
1.84286e-05
1.84386e-05
1.84312e-05
5.16598e-06
5.16774e-06
3.92213e-07
5.17623e-06
5.17795e-06
1.84152e-05
1.84228e-05
1.84177e-05
1.84253e-05
3.98615e-07
5.19012e-06
5.19182e-06
5.18111e-06
5.18286e-06
3.75856e-06
8.91972e-06
3.73231e-06
8.92423e-06
1.24244e-06
2.86623e-06
1.59987e-07
2.44645e-07
1.21525e-06
2.88733e-06
1.60547e-07
1.24243e-06
2.86674e-06
1.59999e-07
2.44686e-07
1.21523e-06
2.88777e-06
1.60547e-07
3.76722e-06
8.92913e-06
8.92497e-06
3.79026e-06
3.76718e-06
8.92908e-06
8.92489e-06
3.79019e-06
1.25663e-06
2.47772e-07
2.9179e-06
1.61901e-07
2.8983e-06
1.61172e-07
1.28328e-06
1.25661e-06
2.47813e-07
2.91838e-06
1.61901e-07
2.89876e-06
1.61184e-07
1.28327e-06
5.16757e-06
5.16597e-06
3.92238e-07
5.17774e-06
5.17618e-06
1.84366e-05
1.84291e-05
1.84173e-05
1.84248e-05
3.98654e-07
5.19168e-06
5.19013e-06
5.18266e-06
5.18108e-06
1.84158e-05
1.84233e-05
1.24252e-06
2.86675e-06
1.59997e-07
2.4458e-07
1.21531e-06
2.88784e-06
1.60538e-07
3.75868e-06
8.92059e-06
3.73245e-06
8.92511e-06
1.24252e-06
1.60004e-07
2.86686e-06
2.44693e-07
1.21528e-06
1.60545e-07
2.88788e-06
3.76704e-06
8.93034e-06
8.92617e-06
3.7907e-06
1.2567e-06
2.47703e-07
2.91841e-06
1.61891e-07
2.89881e-06
1.61182e-07
1.28336e-06
3.76733e-06
8.92997e-06
8.92578e-06
3.79031e-06
1.25667e-06
2.47819e-07
1.61898e-07
2.91849e-06
1.61189e-07
2.89888e-06
1.28336e-06
3.75905e-06
8.92037e-06
3.73213e-06
8.92492e-06
1.24248e-06
1.59992e-07
2.86636e-06
2.44661e-07
1.21523e-06
1.60539e-07
2.88744e-06
3.75896e-06
8.92014e-06
3.73203e-06
8.92468e-06
1.25665e-06
2.47693e-07
2.91792e-06
1.6189e-07
2.8983e-06
1.61175e-07
1.28334e-06
3.767e-06
8.92972e-06
8.92558e-06
3.79067e-06
1.25663e-06
2.47787e-07
1.61892e-07
2.91801e-06
1.61176e-07
2.89845e-06
1.28332e-06
3.7669e-06
8.92952e-06
8.92535e-06
3.79059e-06
5.16783e-06
5.16628e-06
3.92248e-07
5.17799e-06
5.17644e-06
1.84373e-05
1.84299e-05
1.84185e-05
1.8426e-05
3.98655e-07
5.19192e-06
5.19038e-06
5.18291e-06
5.18137e-06
1.84165e-05
1.8424e-05
1.24251e-06
1.5999e-07
2.86679e-06
2.44605e-07
1.21531e-06
1.60538e-07
2.8879e-06
3.75909e-06
8.92065e-06
3.73217e-06
8.92519e-06
3.75908e-06
8.92071e-06
3.7321e-06
8.92525e-06
1.25671e-06
2.47698e-07
1.61895e-07
2.91802e-06
1.61179e-07
2.89841e-06
1.28337e-06
1.2567e-06
2.4773e-07
1.61891e-07
2.91846e-06
1.61175e-07
2.89888e-06
1.28335e-06
3.76705e-06
8.93e-06
8.92585e-06
3.79071e-06
3.76698e-06
8.93008e-06
8.92592e-06
3.7907e-06
1.84374e-05
1.843e-05
1.84392e-05
1.84319e-05
3.98703e-07
5.19014e-06
5.1918e-06
5.1812e-06
5.18285e-06
1.84166e-05
1.84242e-05
1.84184e-05
1.8426e-05
1.84095e-05
1.84027e-05
1.84121e-05
1.84053e-05
5.19462e-06
5.19633e-06
4.21931e-07
5.20309e-06
5.20477e-06
1.83907e-05
1.83974e-05
1.83932e-05
1.83999e-05
4.28906e-07
5.21476e-06
5.21643e-06
5.20724e-06
5.20893e-06
3.81791e-06
8.9297e-06
3.79792e-06
8.93366e-06
1.3231e-06
2.92819e-06
1.62692e-07
2.57924e-07
1.29715e-06
2.94673e-06
1.63592e-07
1.32309e-06
2.92869e-06
1.62705e-07
2.57967e-07
1.29713e-06
2.94716e-06
1.63591e-07
3.82491e-06
8.93794e-06
8.93427e-06
3.84231e-06
3.82487e-06
8.93791e-06
8.93422e-06
3.84223e-06
1.33661e-06
2.61564e-07
2.97373e-06
1.65623e-07
2.95646e-06
1.64552e-07
1.36179e-06
1.33659e-06
2.61607e-07
2.97419e-06
1.65622e-07
2.95689e-06
1.64565e-07
1.36178e-06
5.19618e-06
5.1946e-06
4.2196e-07
5.20455e-06
5.203e-06
1.84101e-05
1.84032e-05
1.83928e-05
1.83994e-05
4.28948e-07
5.21629e-06
5.21474e-06
5.20873e-06
5.20716e-06
1.83912e-05
1.83978e-05
1.32319e-06
2.92871e-06
1.62703e-07
2.5785e-07
1.29722e-06
2.94724e-06
1.63581e-07
3.81803e-06
8.93059e-06
3.79806e-06
8.93453e-06
1.32319e-06
1.62711e-07
2.92882e-06
2.57975e-07
1.29719e-06
1.63589e-07
2.94727e-06
3.82473e-06
8.93916e-06
8.93548e-06
3.84273e-06
1.33668e-06
2.61486e-07
2.97423e-06
1.65612e-07
2.95696e-06
1.64563e-07
1.36188e-06
3.82501e-06
8.9388e-06
8.93509e-06
3.84234e-06
1.33665e-06
2.61614e-07
1.6562e-07
2.97431e-06
1.64571e-07
2.95701e-06
1.36188e-06
3.81841e-06
8.93033e-06
3.79774e-06
8.93428e-06
1.32316e-06
1.62697e-07
2.92835e-06
2.5794e-07
1.29715e-06
1.63582e-07
2.94683e-06
3.81832e-06
8.93014e-06
3.79764e-06
8.93411e-06
1.33663e-06
2.61475e-07
2.97375e-06
1.65611e-07
2.95644e-06
1.64554e-07
1.36186e-06
3.8247e-06
8.93852e-06
8.93484e-06
3.84271e-06
1.33661e-06
2.61579e-07
1.65613e-07
2.97383e-06
1.64556e-07
2.95658e-06
1.36184e-06
3.8246e-06
8.93834e-06
8.93468e-06
3.84262e-06
5.19643e-06
5.1949e-06
4.21972e-07
5.2048e-06
5.20326e-06
1.84108e-05
1.84039e-05
1.83939e-05
1.84006e-05
4.28951e-07
5.21653e-06
5.215e-06
5.20897e-06
5.20744e-06
1.83919e-05
1.83985e-05
1.32318e-06
1.62696e-07
2.92877e-06
2.57879e-07
1.29721e-06
1.63581e-07
2.94728e-06
3.81843e-06
8.93061e-06
3.79778e-06
8.93455e-06
3.81842e-06
8.93071e-06
3.79772e-06
8.9347e-06
1.33669e-06
2.61483e-07
1.65617e-07
2.97385e-06
1.6456e-07
2.95656e-06
1.36189e-06
1.33668e-06
2.61516e-07
1.65612e-07
2.97428e-06
1.64555e-07
2.95701e-06
1.36187e-06
3.82474e-06
8.9388e-06
8.93511e-06
3.84274e-06
3.82467e-06
8.93892e-06
8.93526e-06
3.84272e-06
1.84109e-05
1.84041e-05
1.84127e-05
1.84059e-05
4.29e-07
5.21476e-06
5.21642e-06
5.20726e-06
5.2089e-06
1.8392e-05
1.83987e-05
1.83939e-05
1.84006e-05
1.83854e-05
1.83791e-05
1.83879e-05
1.83817e-05
5.21853e-06
5.22022e-06
4.54042e-07
5.22554e-06
5.2272e-06
1.83683e-05
1.83742e-05
1.83708e-05
1.83767e-05
4.61524e-07
5.23545e-06
5.2371e-06
5.22908e-06
5.23075e-06
3.8634e-06
8.93843e-06
3.84849e-06
8.94186e-06
1.39916e-06
2.98281e-06
1.66751e-07
2.73229e-07
1.37487e-06
2.99906e-06
1.67996e-07
1.39915e-06
2.9833e-06
1.66765e-07
2.73275e-07
1.37485e-06
2.99947e-06
1.67995e-07
3.86908e-06
8.94563e-06
8.94236e-06
3.88197e-06
3.86904e-06
8.9456e-06
8.94233e-06
3.88189e-06
1.41179e-06
2.77367e-07
3.02286e-06
1.70712e-07
3.00764e-06
1.69296e-07
1.43516e-06
1.41176e-06
2.77412e-07
3.02329e-06
1.70711e-07
3.00806e-06
1.6931e-07
1.43515e-06
5.22007e-06
5.21851e-06
4.54073e-07