/*--------------------------------*- C++ -*----------------------------------*\
| =========                 |                                                 |
| \\      /  F ield         | OpenFOAM: The Open Source CFD Toolbox           |
|  \\    /   O peration     | Version:  v2006                                 |
|   \\  /    A nd           | Website:  www.openfoam.com                      |
|    \\/     M anipulation  |                                                 |
\*---------------------------------------------------------------------------*/
FoamFile
{
    version     2.0;
    format      ascii;
    class       surfaceScalarField;
    location    "250";
    object      phi;
}
// * * * * * * * * * * * * * * * * * * * * * * * * * * * * * * * * * * * * * //

dimensions      [0 3 -1 0 0 0 0];
oriented        oriented;


internalField   nonuniform List<scalar> 
124860
(
-8.45961e-07
-8.46316e-07
-0.00114629
4.47491e-07
4.48183e-07
0.00114709
-0.00113698
-1.51132e-06
8.46441e-07
4.17467e-07
0.00113747
-4.96169e-07
1.12445e-06
1.20976e-07
7.27038e-07
-5.37831e-07
-1.24163e-06
5.63501e-08
-0.00113688
-1.50905e-06
8.46575e-07
4.18155e-07
0.00113738
-4.99472e-07
1.12121e-06
1.23645e-07
7.21552e-07
-5.35027e-07
-1.236e-06
5.35909e-08
-0.000276401
1.54071e-06
1.49776e-06
-4.87595e-07
-4.98528e-07
0.000274348
-8.24469e-07
-8.24796e-07
-0.00114944
4.38107e-07
4.38783e-07
0.00115021
-0.00113887
-1.50253e-06
8.24539e-07
4.0777e-07
0.00113931
-4.81408e-07
1.13124e-06
1.27698e-07
7.33097e-07
-5.21703e-07
-1.22459e-06
6.22499e-08
-0.00113878
-1.49976e-06
8.24552e-07
4.0803e-07
0.00113922
-4.84449e-07
1.12847e-06
1.30237e-07
7.27554e-07
-5.18959e-07
-1.21904e-06
5.94896e-08
-0.000276482
1.53168e-06
1.48875e-06
-4.73196e-07
-4.83947e-07
0.000274419
-8.02423e-07
-8.02679e-07
-0.00115249
4.28397e-07
4.29052e-07
0.00115324
-0.00114057
-1.49333e-06
8.02501e-07
3.99295e-07
0.00114096
-4.67616e-07
1.13699e-06
1.33772e-07
7.39282e-07
-5.05489e-07
-1.20678e-06
6.83922e-08
-0.00114048
-1.49048e-06
8.02358e-07
3.9945e-07
0.00114087
-4.70417e-07
1.13431e-06
1.36569e-07
7.33707e-07
-5.02785e-07
-1.20124e-06
6.55975e-08
-0.000276497
1.52251e-06
1.47955e-06
-4.5947e-07
-4.70223e-07
0.000274424
-7.79949e-07
-7.80138e-07
-0.00115544
4.18436e-07
4.19093e-07
0.00115617
-0.00114207
-1.48339e-06
7.80081e-07
3.915e-07
0.00114241
-4.54897e-07
1.1421e-06
1.38797e-07
7.45612e-07
-4.89412e-07
-1.18857e-06
7.47226e-08
-0.00114198
-1.48056e-06
7.79896e-07
3.9162e-07
0.00114232
-4.57699e-07
1.13943e-06
1.41647e-07
7.40035e-07
-4.86729e-07
-1.18304e-06
7.19271e-08
-0.000276451
1.5127e-06
1.46972e-06
-4.45969e-07
-4.56703e-07
0.000274371
-7.57454e-07
-7.57581e-07
-0.0011583
4.0861e-07
4.09271e-07
0.00115899
-0.00114337
-1.47276e-06
7.57831e-07
3.84353e-07
0.00114367
-4.42867e-07
1.14654e-06
1.4283e-07
7.5201e-07
-4.73673e-07
-1.17033e-06
8.12089e-08
-0.00114328
-1.47e-06
7.57709e-07
3.84614e-07
0.00114357
-4.45748e-07
1.14378e-06
1.45582e-07
7.46432e-07
-4.7096e-07
-1.1648e-06
7.84603e-08
-0.000276351
1.50181e-06
1.45881e-06
-4.32168e-07
-4.42862e-07
0.000274265
-7.3505e-07
-7.35149e-07
-0.00116105
3.992e-07
3.99853e-07
0.00116172
-0.00114448
-1.46107e-06
7.35353e-07
3.76451e-07
0.00114472
-4.30716e-07
1.15096e-06
1.46803e-07
7.58382e-07
-4.5838e-07
-1.1523e-06
8.78106e-08
-0.00114438
-1.45827e-06
7.35167e-07
3.76685e-07
0.00114463
-4.3355e-07
1.1482e-06
1.49548e-07
7.52808e-07
-4.55648e-07
-1.14676e-06
8.50886e-08
-0.000276204
1.49021e-06
1.4472e-06
-4.18347e-07
-4.29027e-07
0.000274114
-7.12455e-07
-7.12535e-07
-0.00116369
3.90087e-07
3.90712e-07
0.00116433
-0.00114539
-1.44839e-06
7.12441e-07
3.66824e-07
0.00114559
-4.18251e-07
1.15579e-06
1.51447e-07
7.64624e-07
-4.43647e-07
-1.13467e-06
9.43525e-08
-0.0011453
-1.44558e-06
7.12332e-07
3.67132e-07
0.0011455
-4.21056e-07
1.15303e-06
1.54196e-07
7.59054e-07
-4.40945e-07
-1.12915e-06
9.16164e-08
-0.000276019
1.47779e-06
1.43477e-06
-4.04445e-07
-4.15098e-07
0.000273926
-6.89384e-07
-6.89415e-07
-0.00116622
3.81024e-07
3.81665e-07
0.00116684
-0.00114612
-1.4355e-06
6.89655e-07
3.5641e-07
0.00114628
-4.06314e-07
1.16053e-06
1.56049e-07
7.7084e-07
-4.29348e-07
-1.1174e-06
1.00901e-07
-0.00114603
-1.43261e-06
6.89444e-07
3.56495e-07
0.00114618
-4.08998e-07
1.15787e-06
1.58918e-07
7.65262e-07
-4.26659e-07
-1.11192e-06
9.81731e-08
-0.000275803
1.46491e-06
1.42188e-06
-3.90745e-07
-4.01382e-07
0.000273708
-6.66368e-07
-6.66416e-07
-0.00116865
3.72471e-07
3.73087e-07
0.00116923
-0.00114667
-1.42232e-06
6.66589e-07
3.44594e-07
0.00114678
-3.9459e-07
1.16533e-06
1.60765e-07
7.76991e-07
-4.15512e-07
-1.10068e-06
1.0749e-07
-0.00114658
-1.4195e-06
6.66391e-07
3.4467e-07
0.00114669
-3.97326e-07
1.16265e-06
1.63662e-07
7.71418e-07
-4.12833e-07
-1.09521e-06
1.04747e-07
-0.000275564
1.4517e-06
1.40866e-06
-3.77358e-07
-3.87978e-07
0.000273469
-6.43719e-07
-6.43737e-07
-0.00117095
3.64477e-07
3.65107e-07
0.00117151
-0.00114706
-1.4093e-06
6.43679e-07
3.31887e-07
0.00114713
-3.8336e-07
1.16997e-06
1.65468e-07
7.8295e-07
-4.02198e-07
-1.08459e-06
1.13942e-07
-0.00114696
-1.40655e-06
6.43531e-07
3.32068e-07
0.00114704
-3.86239e-07
1.16718e-06
1.68204e-07
7.77415e-07
-3.99524e-07
-1.07907e-06
1.11196e-07
-0.000275309
1.43856e-06
1.39555e-06
-3.6457e-07
-3.75156e-07
0.000273215
-6.2016e-07
-6.2021e-07
-0.00117314
3.56078e-07
3.56537e-07
0.00117367
-0.00114729
-1.39636e-06
6.20074e-07
3.18534e-07
0.00114732
-3.72523e-07
1.17441e-06
1.69944e-07
7.89e-07
-3.89258e-07
-1.06893e-06
1.20476e-07
-0.00114719
-1.39375e-06
6.20524e-07
3.19658e-07
0.00114723
-3.75655e-07
1.17136e-06
1.7223e-07
7.83447e-07
-3.86584e-07
-1.06345e-06
1.1773e-07
-0.000275044
1.42566e-06
1.38263e-06
-3.52435e-07
-3.63017e-07
0.000272951
-5.96442e-07
-5.96352e-07
-0.0011752
3.47588e-07
3.48348e-07
0.0011757
-0.00114738
-1.38376e-06
5.96448e-07
3.0434e-07
0.00114738
-3.62157e-07
1.17871e-06
1.74426e-07
7.94808e-07
-3.76907e-07
-1.05401e-06
1.26788e-07
-0.00114728
-1.38045e-06
5.95528e-07
3.03418e-07
0.00114728
-3.64293e-07
1.1764e-06
1.77629e-07
7.89272e-07
-3.7423e-07
-1.04855e-06
1.2415e-07
-0.000274774
1.41293e-06
1.36999e-06
-3.40878e-07
-3.51386e-07
0.000272684
-5.72339e-07
-5.72303e-07
-0.00117714
3.39496e-07
3.40025e-07
0.00117761
-0.00114734
-1.37124e-06
5.72446e-07
2.88449e-07
0.00114731
-3.51965e-07
1.18294e-06
1.78845e-07
8.0043e-07
-3.64951e-07
-1.0398e-06
1.33156e-07
-0.00114724
-1.36858e-06
5.72541e-07
2.88915e-07
0.00114721
-3.5468e-07
1.18024e-06
1.8193e-07
7.94871e-07
-3.62395e-07
-1.0343e-06
1.30274e-07
-0.000274503
1.40034e-06
1.35737e-06
-3.2968e-07
-3.40212e-07
0.000272415
-5.48281e-07
-5.48331e-07
-0.00117896
3.31585e-07
3.3216e-07
0.00117939
-0.00114718
-1.3592e-06
5.4856e-07
2.71476e-07
0.00114713
-3.41786e-07
1.18709e-06
1.83806e-07
8.05692e-07
-3.53638e-07
-1.02629e-06
1.39134e-07
-0.00114708
-1.35645e-06
5.48283e-07
2.71732e-07
0.00114703
-3.44738e-07
1.18426e-06
1.86354e-07
8.00233e-07
-3.5091e-07
-1.02079e-06
1.36485e-07
-0.000274235
1.38867e-06
1.34575e-06
-3.19547e-07
-3.30027e-07
0.00027215
-5.24589e-07
-5.24831e-07
-0.00118064
3.24247e-07
3.24611e-07
0.00118104
-0.00114693
-1.34769e-06
5.24655e-07
2.54571e-07
0.00114685
-3.32289e-07
1.19088e-06
1.88249e-07
8.10876e-07
-3.42793e-07
-1.01344e-06
1.45006e-07
-0.00114683
-1.34487e-06
5.24485e-07
2.54914e-07
0.00114675
-3.34992e-07
1.18817e-06
1.91081e-07
8.05343e-07
-3.40195e-07
-1.00799e-06
1.42253e-07
-0.000273971
1.37683e-06
1.33391e-06
-3.09408e-07
-3.19884e-07
0.00027189
-5.00896e-07
-5.00435e-07
-0.00118219
3.16101e-07
3.16979e-07
0.00118256
-0.00114658
-1.33655e-06
5.00986e-07
2.36828e-07
0.00114649
-3.23056e-07
1.19458e-06
1.92691e-07
8.15456e-07
-3.32548e-07
-1.00153e-06
1.50517e-07
-0.00114649
-1.33373e-06
5.00845e-07
2.36954e-07
0.00114639
-3.25794e-07
1.19188e-06
1.95489e-07
8.09964e-07
-3.29927e-07
-9.96038e-07
1.47794e-07
-0.000273714
1.36577e-06
1.32291e-06
-3.00156e-07
-3.10608e-07
0.000271636
-4.75092e-07
-4.75652e-07
-0.00118361
3.07952e-07
3.08129e-07
0.00118395
-0.00114617
-1.32586e-06
4.75048e-07
2.18863e-07
0.00114606
-3.14222e-07
1.19814e-06
1.97016e-07
8.20478e-07
-3.22421e-07
-9.89515e-07
1.56207e-07
-0.00114607
-1.32315e-06
4.74947e-07
2.19272e-07
0.00114596
-3.17035e-07
1.19532e-06
1.9971e-07
8.15007e-07
-3.19788e-07
-9.84053e-07
1.53521e-07
-0.000273465
1.35523e-06
1.31233e-06
-2.91341e-07
-3.01873e-07
0.00027139
-4.50152e-07
-4.49725e-07
-0.00118491
2.98347e-07
2.99169e-07
0.00118521
-0.0011457
-1.31587e-06
4.5028e-07
2.01292e-07
0.00114557
-3.0605e-07
1.20127e-06
2.00865e-07
8.25085e-07
-3.13126e-07
-9.78716e-07
1.61429e-07
-0.0011456
-1.31295e-06
4.50115e-07
2.0098e-07
0.00114547
-3.08608e-07
1.19868e-06
2.03838e-07
8.19498e-07
-3.10516e-07
-9.73324e-07
1.58709e-07
-0.000273224
1.34485e-06
1.30198e-06
-2.82873e-07
-2.93411e-07
0.000271154
-4.25422e-07
-4.25172e-07
-0.00118607
2.89632e-07
2.90147e-07
0.00118634
-0.00114517
-1.30609e-06
4.25304e-07
1.82921e-07
0.00114504
-2.97923e-07
1.20449e-06
2.04946e-07
8.28717e-07
-3.04271e-07
-9.68754e-07
1.66271e-07
-0.00114508
-1.30346e-06
4.254e-07
1.83616e-07
0.00114494
-3.00836e-07
1.20161e-06
2.07582e-07
8.23321e-07
-3.01584e-07
-9.63201e-07
1.63607e-07
-0.000272992
1.33548e-06
1.29268e-06
-2.754e-07
-2.8587e-07
0.000270926
-4.002e-07
-4.00283e-07
-0.0011871
2.80307e-07
2.8091e-07
0.00118734
-0.00114462
-1.29741e-06
4.00346e-07
1.67867e-07
0.00114447
-2.91007e-07
1.2068e-06
2.07914e-07
8.3317e-07
-2.95574e-07
-9.58479e-07
1.71222e-07
-0.00114452
-1.29442e-06
3.99929e-07
1.67093e-07
0.00114437
-2.93445e-07
1.20431e-06
2.11018e-07
8.27654e-07
-2.92963e-07
-9.53128e-07
1.6851e-07
-0.000272771
1.32642e-06
1.28358e-06
-2.68056e-07
-2.78577e-07
0.000270708
-3.72934e-07
-3.72688e-07
-0.00118801
2.68504e-07
2.69041e-07
0.00118822
-0.00114403
-1.28819e-06
3.72763e-07
1.49237e-07
0.00114388
-2.83121e-07
1.21008e-06
2.12147e-07
8.36948e-07
-2.8745e-07
-9.49362e-07
1.7594e-07
-0.00114393
-1.28565e-06
3.72989e-07
1.50011e-07
0.00114379
-2.86139e-07
1.20715e-06
2.14722e-07
8.3156e-07
-2.84782e-07
-9.43845e-07
1.73235e-07
-0.000272559
1.31757e-06
1.27481e-06
-2.61124e-07
-2.71558e-07
0.000270499
-3.49179e-07
-3.49265e-07
-0.0011888
2.59167e-07
2.5954e-07
0.00118898
-0.00114343
-1.28085e-06
3.49048e-07
1.35123e-07
0.00114328
-2.77408e-07
1.21187e-06
2.14796e-07
8.40232e-07
-2.8012e-07
-9.40777e-07
1.79716e-07
-0.00114333
-1.2781e-06
3.49017e-07
1.35266e-07
0.00114318
-2.80173e-07
1.20908e-06
2.17483e-07
8.34804e-07
-2.77466e-07
-9.35361e-07
1.77047e-07
-0.000272357
1.30986e-06
1.26708e-06
-2.55186e-07
-2.65658e-07
0.0002703
-3.21959e-07
-3.21714e-07
-0.00118947
2.46106e-07
2.46818e-07
0.00118962
-0.00114282
-1.27353e-06
3.22254e-07
1.22868e-07
0.00114266
-2.72171e-07
1.21313e-06
2.15898e-07
8.44516e-07
-2.7188e-07
-9.31629e-07
1.8473e-07
-0.00114272
-1.27069e-06
3.22041e-07
1.22793e-07
0.00114256
-2.74785e-07
1.21046e-06
2.18755e-07
8.39107e-07
-2.69228e-07
-9.26186e-07
1.82071e-07
-0.000272165
1.30269e-06
1.25996e-06
-2.49513e-07
-2.59952e-07
0.000270112
-2.92631e-07
-2.92493e-07
-0.00119004
2.31493e-07
2.31925e-07
0.00119016
-0.0011422
-1.26414e-06
2.92152e-07
1.01837e-07
0.00114205
-2.62681e-07
1.21781e-06
2.22482e-07
8.47908e-07
-2.65511e-07
-9.2417e-07
1.8871e-07
-0.00114211
-1.26141e-06
2.91973e-07
1.01717e-07
0.00114195
-2.65368e-07
1.21514e-06
2.25445e-07
8.42473e-07
-2.6291e-07
-9.1874e-07
1.85976e-07
-0.000271983
1.29348e-06
1.25077e-06
-2.42362e-07
-2.52782e-07
0.000269934
-2.76696e-07
-2.76746e-07
-0.00119049
2.25133e-07
2.25456e-07
0.00119059
-0.00114159
-1.26168e-06
2.76794e-07
1.00045e-07
0.00114144
-2.62693e-07
1.21529e-06
2.20251e-07
8.49404e-07
-2.59698e-07
-9.17454e-07
1.90448e-07
-0.00114149
-1.25913e-06
2.77167e-07
1.00729e-07
0.00114134
-2.6574e-07
1.21233e-06
2.22733e-07
8.43995e-07
-2.57091e-07
-9.12e-07
1.87701e-07
-0.000271809
1.29066e-06
1.24798e-06
-2.40695e-07
-2.51105e-07
0.000269762
-2.33626e-07
-2.33269e-07
-0.00119085
1.99327e-07
1.99617e-07
0.00119092
-0.00114099
-1.24914e-06
2.32777e-07
7.19741e-08
0.00114084
-2.50737e-07
1.22269e-06
2.28316e-07
8.55224e-07
-2.50885e-07
-9.08109e-07
1.97614e-07
-0.00114089
-1.24659e-06
2.334e-07
7.32192e-08
0.00114074
-2.5377e-07
1.2196e-06
2.30564e-07
8.4973e-07
-2.48211e-07
-9.02756e-07
1.94918e-07
-0.000271649
1.2776e-06
1.2349e-06
-2.30153e-07
-2.40572e-07
0.000269607
-2.29874e-07
-2.29705e-07
-0.00119111
2.01652e-07
2.02807e-07
-0.00114038
-1.25385e-06
2.31421e-07
9.1878e-08
-2.59155e-07
1.21321e-06
2.17497e-07
8.58604e-07
-2.45168e-07
-9.00283e-07
1.99472e-07
-0.00114028
-1.25026e-06
2.288e-07
8.88181e-08
-2.60693e-07
1.21136e-06
2.21355e-07
8.5343e-07
-2.42263e-07
-8.94699e-07
1.97295e-07
-0.000271488
1.28391e-06
1.24141e-06
-2.35643e-07
-2.45962e-07
0.000269445
-1.16516e-06
-1.12193e-06
0.000276451
-0.000274347
8.73122e-08
9.50448e-08
0.00113638
8.49644e-07
4.1859e-07
-1.55154e-06
1.31313e-07
-5.03338e-07
-1.2496e-06
5.41367e-08
-5.42919e-07
7.27202e-07
1.15937e-06
0.00113651
8.49949e-07
4.19046e-07
-1.54647e-06
1.30204e-07
-5.04432e-07
-1.24927e-06
5.44319e-08
-5.42654e-07
7.27427e-07
-1.12408e-06
0.00027644
-0.000274346
9.20593e-08
9.70885e-08
0.00113739
8.49972e-07
4.17398e-07
-1.50851e-06
1.22908e-07
-4.95016e-07
-1.24384e-06
5.15335e-08
-5.40081e-07
7.21811e-07
1.15891e-06
0.00113641
8.50235e-07
4.19814e-07
-1.5466e-06
1.26883e-07
-5.0179e-07
-1.24664e-06
5.44101e-08
-5.42674e-07
7.24639e-07
8.50392e-07
4.18161e-07
-1.51147e-06
1.21822e-07
-4.95998e-07
-1.24648e-06
5.44245e-08
7.24766e-07
-5.42626e-07
1.15413e-06
0.00113607
8.49407e-07
4.18545e-07
-1.53988e-06
1.28634e-07
-4.99509e-07
-1.24412e-06
5.39593e-08
-5.43044e-07
7.21421e-07
-1.12092e-06
0.000276426
-0.00027433
8.90093e-08
9.39787e-08
8.50498e-07
4.1881e-07
-1.50876e-06
1.24283e-07
-4.98837e-07
-1.24105e-06
5.16458e-08
7.19148e-07
-5.39944e-07
1.1109e-06
0.00113707
8.49655e-07
4.17071e-07
-1.49691e-06
1.20276e-07
-4.91176e-07
-1.24373e-06
5.4334e-08
-5.42865e-07
7.21464e-07
-0.000274321
8.75402e-08
9.78797e-08
1.55151e-06
1.50853e-06
-4.87283e-07
-4.95597e-07
0.000274374
-1.17166e-06
-1.12827e-06
0.000276532
-0.000274434
9.66956e-08
1.04659e-07
4.18504e-07
0.00113687
-5.03961e-07
1.165e-06
1.2946e-07
7.29534e-07
-5.38093e-07
-1.24486e-06
5.62273e-08
-1.54642e-06
8.45936e-07
4.1848e-07
0.001137
-5.04633e-07
1.15963e-06
1.29286e-07
7.2973e-07
-5.3783e-07
-1.24437e-06
5.63693e-08
0.00113827
8.28686e-07
-0.00113782
4.0955e-07
-1.5442e-06
1.37059e-07
-4.91042e-07
-1.23215e-06
6.02327e-08
-5.26108e-07
7.33722e-07
1.16608e-06
0.0011384
8.28506e-07
-0.00113795
4.0938e-07
-1.53894e-06
1.36875e-07
-4.91324e-07
-1.23186e-06
6.03719e-08
-5.25966e-07
7.33839e-07
-4.93249e-07
-4.98174e-07
0.000274374
-1.1307e-06
0.000276521
-0.000274433
1.01811e-07
1.06943e-07
4.17394e-07
0.00113788
-4.95673e-07
1.12172e-06
1.21043e-07
7.24154e-07
-5.35255e-07
-1.23909e-06
5.3627e-08
-1.54686e-06
8.4624e-07
4.1924e-07
0.0011369
-5.024e-07
1.15918e-06
1.2622e-07
7.2704e-07
-5.37751e-07
-1.24157e-06
5.63387e-08
0.00113928
8.28998e-07
-0.00113883
4.0846e-07
-1.50124e-06
1.28668e-07
-4.82721e-07
-1.22635e-06
5.76663e-08
-5.23253e-07
7.28379e-07
1.16611e-06
0.0011383
8.28521e-07
-0.00113784
4.09632e-07
-1.53879e-06
1.33836e-07
-4.88389e-07
-1.22922e-06
6.02862e-08
-5.26064e-07
7.31044e-07
8.46385e-07
4.19514e-07
0.00113657
-5.01903e-07
1.15315e-06
1.25402e-07
7.24129e-07
-5.37906e-07
5.63371e-08
-1.23915e-06
8.28909e-07
-0.00113842
4.08522e-07
-1.50393e-06
1.28501e-07
-4.82893e-07
-1.22905e-06
6.03837e-08
7.31236e-07
-5.25966e-07
1.16073e-06
0.00113796
8.28145e-07
-0.00113751
4.09152e-07
-1.53268e-06
1.34763e-07
-4.8731e-07
-1.22651e-06
6.00398e-08
-5.26175e-07
7.28079e-07
-4.91247e-07
-4.96095e-07
0.000274358
-1.12802e-06
0.000276507
-0.000274417
9.92485e-08
1.0435e-07
8.46651e-07
4.18091e-07
0.00113757
-4.93601e-07
1.10988e-06
1.17045e-07
7.24189e-07
-5.37728e-07
5.67175e-08
-1.23876e-06
8.28795e-07
-0.00113832
4.08588e-07
-1.50099e-06
1.31235e-07
-4.85442e-07
-1.22361e-06
5.75623e-08
7.25592e-07
-5.23317e-07
1.11737e-06
0.00113897
8.28365e-07
-0.00113851
4.07644e-07
-1.48975e-06
1.2645e-07
-4.78973e-07
-1.2261e-06
6.04453e-08
-5.25987e-07
7.28155e-07
-0.000274408
9.69513e-08
1.07535e-07
1.54287e-06
1.49992e-06
-4.73294e-07
-4.81425e-07
0.000274444
-1.17704e-06
-1.13368e-06
0.000276547
-0.000274455
1.05275e-07
1.13204e-07
4.09177e-07
0.00113872
-4.89783e-07
1.17194e-06
1.3569e-07
7.35617e-07
-5.21808e-07
-1.22775e-06
6.20931e-08
-1.53756e-06
8.24107e-07
4.08717e-07
0.00113884
-4.89848e-07
1.16659e-06
1.36053e-07
7.35709e-07
-5.21659e-07
-1.22739e-06
6.21728e-08
0.00113997
8.07232e-07
-0.00113957
4.01745e-07
-1.53585e-06
1.41953e-07
-4.78791e-07
-1.21425e-06
6.64414e-08
-5.09779e-07
7.40208e-07
1.17134e-06
0.0011401
8.07163e-07
-0.00113969
4.01822e-07
-1.53077e-06
1.41676e-07
-4.79225e-07
-1.21393e-06
6.65654e-08
-5.09636e-07
7.40346e-07
-4.79063e-07
-4.83843e-07
0.000274444
-1.13598e-06
0.000276536
-0.000274455
1.10288e-07
1.15382e-07
4.08038e-07
0.00113973
-4.81465e-07
1.12854e-06
1.27302e-07
7.30278e-07
-5.18954e-07
-1.22194e-06
5.95301e-08
-1.53757e-06
8.24223e-07
4.09143e-07
0.00113874
-4.87401e-07
1.16655e-06
1.32824e-07
7.33013e-07
-5.21698e-07
-1.22463e-06
6.22025e-08
0.00114098
8.07541e-07
-0.00114058
4.00505e-07
-1.49283e-06
1.33617e-07
-4.70444e-07
-1.20845e-06
6.38981e-08
-5.0691e-07
7.34864e-07
1.17138e-06
0.00114
8.07242e-07
-0.00113959
4.01878e-07
-1.53067e-06
1.38763e-07
-4.76422e-07
-1.21125e-06
6.65774e-08
-5.09614e-07
7.37547e-07
8.24342e-07
4.09373e-07
0.00113841
-4.86944e-07
1.16061e-06
1.32414e-07
7.30154e-07
-5.21794e-07
6.21448e-08
-1.22205e-06
8.07663e-07
-0.00114016
4.00697e-07
-1.49572e-06
1.33321e-07
-4.70786e-07
-1.21112e-06
6.67e-08
7.37731e-07
-5.09535e-07
1.16581e-06
0.00113966
8.07105e-07
-0.00113926
4.01714e-07
-1.52471e-06
1.39236e-07
-4.75825e-07
-1.2085e-06
6.63901e-08
-5.09683e-07
7.34664e-07
-4.76502e-07
-4.81234e-07
0.000274428
-1.1333e-06
0.000276522
-0.000274438
1.07748e-07
1.1281e-07
8.24591e-07
4.07838e-07
0.00113941
-4.78598e-07
1.11725e-06
1.24101e-07
7.30234e-07
-5.21598e-07
6.25582e-08
-1.22163e-06
8.07506e-07
-0.00114007
4.00831e-07
-1.49283e-06
1.36163e-07
-4.73483e-07
-1.20562e-06
6.38821e-08
7.3212e-07
-5.06856e-07
1.12244e-06
0.00114066
8.0731e-07
-0.00114026
4.00248e-07
-1.48176e-06
1.30936e-07
-4.67488e-07
-1.20806e-06
6.68082e-08
-5.09465e-07
7.34757e-07
-0.000274429
1.05186e-07
1.15762e-07
1.53368e-06
1.49065e-06
-4.59485e-07
-4.67636e-07
0.00027445
-1.18174e-06
-1.1384e-06
0.000276501
-0.000274416
1.13201e-07
1.21116e-07
4.00875e-07
0.00114036
-4.76016e-07
1.17767e-06
1.41675e-07
7.41809e-07
-5.05719e-07
-1.20995e-06
6.81943e-08
-1.52838e-06
8.02038e-07
4.00373e-07
0.00114049
-4.76042e-07
1.17237e-06
1.42133e-07
7.41907e-07
-5.05594e-07
-1.20958e-06
6.82582e-08
0.00114147
7.85462e-07
-0.00114112
3.94651e-07
-1.52652e-06
1.46031e-07
-4.66704e-07
-1.19607e-06
7.28745e-08
-4.93552e-07
7.46635e-07
1.17594e-06
0.00114159
7.85499e-07
-0.00114124
3.94985e-07
-1.52146e-06
1.4561e-07
-4.67155e-07
-1.19578e-06
7.29732e-08
-4.93445e-07
7.46754e-07
-4.65276e-07
-4.70073e-07
0.00027445
-1.14058e-06
0.000276491
-0.000274415
1.18131e-07
1.23217e-07
3.99635e-07
0.00114137
-4.67663e-07
1.13431e-06
1.33343e-07
7.36475e-07
-5.0285e-07
-1.20414e-06
6.56585e-08
-1.52831e-06
8.02112e-07
4.00443e-07
0.00114039
-4.73345e-07
1.17241e-06
1.39177e-07
7.39138e-07
-5.05542e-07
-1.20686e-06
6.82902e-08
0.00114248
7.85687e-07
-0.00114213
3.934e-07
-1.48347e-06
1.37721e-07
-4.5835e-07
-1.19026e-06
7.03448e-08
-4.90679e-07
7.41304e-07
1.17594e-06
0.00114149
7.85604e-07
-0.00114114
3.95129e-07
-1.52141e-06
1.42642e-07
-4.64453e-07
-1.19311e-06
7.29897e-08
-4.93405e-07
7.4395e-07
8.0216e-07
4.00602e-07
0.00114005
-4.73053e-07
1.16651e-06
1.38938e-07
7.36309e-07
-5.05609e-07
6.81905e-08
-1.2042e-06
7.8596e-07
-0.00114171
3.93841e-07
-1.4864e-06
1.3726e-07
-4.58736e-07
-1.19299e-06
7.31321e-08
7.44137e-07
-4.93314e-07
1.17035e-06
0.00114116
7.85479e-07
-0.0011408
3.94955e-07
-1.51544e-06
1.42926e-07
-4.63975e-07
-1.19034e-06
7.28922e-08
-4.93418e-07
7.41132e-07
-4.62605e-07
-4.67367e-07
0.000274433
-1.13785e-06
0.000276476
-0.000274399
1.15547e-07
1.2059e-07
8.0236e-07
3.9914e-07
0.00114106
-4.64719e-07
1.12314e-06
1.30635e-07
7.36399e-07
-5.05389e-07
6.861e-08
-1.20376e-06
7.85853e-07
-0.00114162
3.94072e-07
-1.48356e-06
1.4003e-07
-4.61537e-07
-1.18748e-06
7.0312e-08
7.38528e-07
-4.90646e-07
1.12697e-06
0.00114217
7.85669e-07
-0.00114181
3.93482e-07
-1.47247e-06
1.34635e-07
-4.55648e-07
-1.18991e-06
7.33129e-08
-4.93188e-07
7.41226e-07
-0.00027439
1.12911e-07
1.23491e-07
1.52364e-06
1.48058e-06
-4.45723e-07
-4.53876e-07
0.000274397
-1.18335e-06
-1.14281e-06
0.000276401
-0.000274325
1.20783e-07
1.28695e-07
3.92975e-07
0.00114181
-4.63074e-07
1.18288e-06
1.46924e-07
7.48102e-07
-4.8967e-07
-1.19176e-06
7.45056e-08
-1.51847e-06
7.79628e-07
3.92629e-07
0.00114194
-4.63316e-07
1.17746e-06
1.47141e-07
7.48237e-07
-4.89549e-07
-1.19137e-06
7.45763e-08
0.00114277
7.6334e-07
-0.00114246
3.87576e-07
-1.51329e-06
1.49851e-07
-4.5457e-07
-1.17787e-06
7.94024e-08
-4.77709e-07
7.53033e-07
1.18036e-06
0.00114289
7.63422e-07
-0.00114259
3.8799e-07
-1.51088e-06
1.49456e-07
-4.54837e-07
-1.17764e-06
7.95218e-08
-4.7762e-07
7.53095e-07
-4.51644e-07
-4.56463e-07
0.000274397
-1.14501e-06
0.00027639
-0.000274322
1.25765e-07
1.30861e-07
3.9173e-07
0.00114283
-4.54714e-07
1.13954e-06
1.38621e-07
7.42769e-07
-4.86802e-07
-1.18595e-06
7.1975e-08
-1.51841e-06
7.79678e-07
3.92655e-07
0.00114184
-4.60612e-07
1.17752e-06
1.44261e-07
7.45447e-07
-4.89495e-07
-1.18867e-06
7.45965e-08
0.00114378
7.63494e-07
-0.00114348
3.86322e-07
-1.47301e-06
1.4156e-07
-4.46213e-07
-1.17204e-06
7.68924e-08
-4.74831e-07
7.47728e-07
1.18033e-06
0.00114279
7.63559e-07
-0.00114249
3.8821e-07
-1.51083e-06
1.46451e-07
-4.52149e-07
-1.17497e-06
7.95407e-08
-4.7758e-07
7.50294e-07
7.79948e-07
3.93228e-07
0.0011415
-4.60538e-07
1.17148e-06
1.43827e-07
7.42662e-07
-4.89512e-07
7.45353e-08
-1.18596e-06
7.63836e-07
-0.00114306
3.86937e-07
-1.47579e-06
1.41115e-07
-4.46419e-07
-1.17485e-06
7.9644e-08
7.50479e-07
-4.77507e-07
1.17493e-06
0.00114246
7.63121e-07
-0.00114215
3.87486e-07
-1.50481e-06
1.47032e-07
-4.51554e-07
-1.17218e-06
7.94204e-08
-4.77603e-07
7.47499e-07
-4.48992e-07
-4.53778e-07
0.00027438
-1.14223e-06
0.000276376
-0.000274305
1.23147e-07
1.28208e-07
7.80123e-07
3.91778e-07
0.00114251
-4.5221e-07
1.12811e-06
1.35541e-07
7.42755e-07
-4.89277e-07
7.49515e-08
-1.18552e-06
7.6374e-07
-0.00114297
3.87247e-07
-1.47298e-06
1.4382e-07
-4.49251e-07
-1.16934e-06
7.6883e-08
7.4488e-07
-4.74813e-07
1.13157e-06
0.00114347
7.63275e-07
-0.00114316
3.86047e-07
-1.46182e-06
1.38756e-07
-4.43231e-07
-1.17173e-06
7.98185e-08
-4.77377e-07
7.47604e-07
-0.000274296
1.20655e-07
1.31253e-07
1.5101e-06
1.46981e-06
-4.32047e-07
-4.40185e-07
0.000274294
-1.18781e-06
-1.14729e-06
0.000276255
-0.000274184
1.28301e-07
1.36224e-07
3.85167e-07
0.00114307
-4.50809e-07
1.18481e-06
1.51395e-07
7.54478e-07
-4.73929e-07
-1.17349e-06
8.09744e-08
-1.50785e-06
7.57443e-07
3.85382e-07
0.00114319
-4.51278e-07
1.18189e-06
1.51173e-07
7.54613e-07
-4.73793e-07
-1.17314e-06
8.10857e-08
0.00114388
7.40904e-07
-0.00114362
3.79833e-07
-1.50172e-06
1.53895e-07
-4.42211e-07
-1.15982e-06
8.59758e-08
-4.62348e-07
7.59396e-07
1.18518e-06
0.001144
7.40622e-07
-0.00114374
3.79529e-07
-1.49897e-06
1.54013e-07
-4.41956e-07
-1.15965e-06
8.60696e-08
-4.62295e-07
7.59383e-07
-4.38072e-07
-4.42881e-07
0.000274291
-1.14982e-06
0.000276244
-0.000274181
1.33603e-07
1.38735e-07
3.83925e-07
0.00114408
-4.42453e-07
1.14427e-06
1.43108e-07
7.49169e-07
-4.71055e-07
-1.16766e-06
7.846e-08
-1.50785e-06
7.57544e-07
3.85558e-07
0.00114309
-4.48642e-07
1.18188e-06
1.48216e-07
7.51837e-07
-4.73735e-07
-1.17043e-06
8.1109e-08
0.00114489
7.4103e-07
-0.00114463
3.78578e-07
-1.46143e-06
1.4563e-07
-4.33847e-07
-1.15401e-06
8.3471e-08
-4.59476e-07
7.54088e-07
1.18523e-06
0.0011439
7.40718e-07
-0.00114364
3.79582e-07
-1.49884e-06
1.51145e-07
-4.39137e-07
-1.15701e-06
8.60647e-08
-4.62275e-07
7.56544e-07
7.5733e-07
3.85271e-07
0.00114275
-4.48102e-07
1.17625e-06
1.4835e-07
7.4903e-07
-4.73767e-07
8.10409e-08
-1.16772e-06
7.40952e-07
-0.00114422
3.78527e-07
-1.4639e-06
1.45681e-07
-4.3355e-07
-1.15684e-06
8.61954e-08
7.56783e-07
-4.62179e-07
1.17943e-06
0.00114356
7.40579e-07
-0.00114331
3.79636e-07
-1.49326e-06
1.51159e-07
-4.3922e-07
-1.15408e-06
8.60308e-08
-4.62183e-07
7.53911e-07
-4.35473e-07
-4.40248e-07
0.000274274
-1.14709e-06
0.00027623
-0.000274165
1.31045e-07
1.36157e-07
7.57472e-07
3.83842e-07
0.00114376
-4.39775e-07
1.13289e-06
1.40083e-07
7.49139e-07
-4.73544e-07
8.14344e-08
-1.16727e-06
7.40701e-07
-0.00114413
3.78724e-07
-1.46104e-06
1.48479e-07
-4.36278e-07
-1.1513e-06
8.34752e-08
7.51218e-07
-4.59452e-07
1.13609e-06
0.00114457
7.40681e-07
-0.00114431
3.78281e-07
-1.45026e-06
1.42905e-07
-4.30899e-07
-1.15363e-06
8.63995e-08
-4.61984e-07
7.54008e-07
-0.000274156
1.28229e-07
1.38821e-07
1.49858e-06
1.45828e-06
-4.18327e-07
-4.26442e-07
0.000274143
-1.19264e-06
-1.15214e-06
0.00027607
-0.000274005
1.35913e-07
1.43844e-07
3.77236e-07
0.00114412
-4.38885e-07
1.18919e-06
1.55394e-07
7.6089e-07
-4.58616e-07
-1.15537e-06
8.75514e-08
-1.49614e-06
7.35039e-07
3.77437e-07
0.00114424
-4.3912e-07
1.18631e-06
1.55134e-07
7.60967e-07
-4.58502e-07
-1.15511e-06
8.76817e-08
0.00114479
7.17998e-07
-0.00114458
3.70484e-07
-1.48918e-06
1.5855e-07
-4.29634e-07
-1.1421e-06
9.25426e-08
-4.47474e-07
7.65659e-07
1.19011e-06
0.00114491
7.17634e-07
-0.0011447
3.70034e-07
-1.48649e-06
1.58885e-07
-4.29403e-07
-1.14189e-06
9.25731e-08
-4.47446e-07
7.65637e-07
-4.24134e-07
-4.2891e-07
0.00027414
-1.15478e-06
0.000276059
-0.000274002
1.41346e-07
1.46449e-07
3.75991e-07
0.00114514
-4.30525e-07
1.14868e-06
1.47132e-07
7.55593e-07
-4.55746e-07
-1.14955e-06
8.50459e-08
-1.49608e-06
7.35151e-07
3.7756e-07
0.00114414
-4.3641e-07
1.18631e-06
1.52206e-07
7.58158e-07
-4.58467e-07
-1.15245e-06
8.76897e-08
0.0011458
7.18088e-07
-0.00114559
3.69251e-07
-1.44888e-06
1.50306e-07
-4.21273e-07
-1.13629e-06
9.00398e-08
-4.4461e-07
7.6035e-07
1.19015e-06
0.00114481
7.17669e-07
-0.0011446
3.70133e-07
-1.48638e-06
1.56037e-07
-4.266e-07
-1.13921e-06
9.25822e-08
-4.4741e-07
7.6284e-07
7.34757e-07
3.77165e-07
0.00114381
-4.36042e-07
1.18073e-06
1.52505e-07
7.55478e-07
-4.58425e-07
8.76372e-08
-1.14957e-06
7.17988e-07
-0.00114518
3.69017e-07
-1.4514e-06
1.50568e-07
-4.21002e-07
-1.13909e-06
9.26863e-08
7.63025e-07
-4.47336e-07
1.18421e-06
0.00114448
7.17794e-07
-0.00114427
3.70433e-07
-1.4808e-06
1.55748e-07
-4.26765e-07
-1.13641e-06
9.25276e-08
-4.47372e-07
7.60122e-07
-4.21502e-07
-4.26224e-07
0.000274123
-1.15208e-06
0.000276045
-0.000273985
1.38824e-07
1.4386e-07
7.34921e-07
3.75777e-07
0.00114482
-4.27712e-07
1.1374e-06
1.44268e-07
7.55531e-07
-4.58246e-07
8.79893e-08
-1.14917e-06
7.17825e-07
-0.00114509
3.69205e-07
-1.44853e-06
1.53403e-07
-4.2372e-07
-1.1336e-06
8.99454e-08
7.57443e-07
-4.44642e-07
1.1409e-06
0.00114549
7.17874e-07
-0.00114528
3.69004e-07
-1.43777e-06
1.47528e-07
-4.18426e-07
-1.13596e-06
9.29126e-08
-4.47163e-07
7.60232e-07
-0.000273976
1.35798e-07
1.46382e-07
1.48617e-06
1.44587e-06
-4.04425e-07
-4.12503e-07
0.000273955
-1.19752e-06
-1.15705e-06
0.000275854
-0.000273794
1.433e-07
1.5122e-07
3.68301e-07
0.00114499
-4.26826e-07
1.1937e-06
1.59559e-07
7.67228e-07
-4.43808e-07
-1.13766e-06
9.41611e-08
-1.48348e-06
7.12068e-07
3.67836e-07
0.00114511
-4.26658e-07
1.19111e-06
1.59753e-07
7.67246e-07
-4.43754e-07
-1.13745e-06
9.42417e-08
0.00114552
6.94951e-07
-0.00114535
3.59829e-07
-1.4763e-06
1.63407e-07
-4.17462e-07
-1.12472e-06
9.90906e-08
-4.33061e-07
7.7187e-07
1.19476e-06
0.00114564
6.94904e-07
-0.00114547
3.60063e-07
-1.4738e-06
1.63374e-07
-4.17573e-07
-1.12446e-06
9.91395e-08
-4.32999e-07
7.71896e-07
-4.09956e-07
-4.14747e-07
0.000273952
-1.15947e-06
0.000275843
-0.000273791
1.48533e-07
1.53614e-07
3.67053e-07
0.001146
-4.18464e-07
1.15321e-06
1.51322e-07
7.61923e-07
-4.40942e-07
-1.13186e-06
9.16641e-08
-1.48344e-06
7.12183e-07
3.68039e-07
0.00114501
-4.23937e-07
1.19109e-06
1.56829e-07
7.64447e-07
-4.43716e-07
-1.13477e-06
9.4249e-08
0.00114653
6.94996e-07
-0.00114637
3.58615e-07
-1.436e-06
1.55182e-07
-4.09103e-07
-1.11891e-06
9.65895e-08
-4.30202e-07
7.6658e-07
1.19485e-06
0.00114554
6.94844e-07
-0.00114537
3.59995e-07
-1.47367e-06
1.60621e-07
-4.14725e-07
-1.1218e-06
9.91471e-08
-4.32966e-07
7.6909e-07
7.12145e-07
3.6807e-07
0.00114467
-4.23952e-07
1.1853e-06
1.56791e-07
7.61747e-07
-4.43677e-07
9.41947e-08
-1.13194e-06
6.95249e-07
-0.00114596
3.58925e-07
-1.4387e-06
1.55079e-07
-4.09166e-07
-1.12166e-06
9.9266e-08
7.69306e-07
-4.32875e-07
1.18892e-06
0.0011452
6.95041e-07
-0.00114504
3.60343e-07
-1.46801e-06
1.60318e-07
-4.14779e-07
-1.11902e-06
9.90786e-08
-4.32945e-07
7.6635e-07
-4.07289e-07
-4.12065e-07
0.000273935
-1.15683e-06
0.000275829
-0.000273774
1.46053e-07
1.51064e-07
7.12227e-07
3.66637e-07
0.00114569
-4.15617e-07
1.142e-06
1.48574e-07
7.6185e-07
-4.4347e-07
9.45749e-08
-1.13149e-06
6.95019e-07
-0.00114586
3.58935e-07
-1.43581e-06
1.58004e-07
-4.11832e-07
-1.11619e-06
9.65172e-08
7.63694e-07
-4.30197e-07
1.14565e-06
0.00114621
6.95134e-07
-0.00114605
3.58919e-07
-1.42497e-06
1.52124e-07
-4.06438e-07
-1.1186e-06
9.94485e-08
-4.32751e-07
7.66438e-07
-0.000273765
1.43052e-07
1.53621e-07
1.47306e-06
1.43276e-06
-3.90539e-07
-3.986e-07
0.000273737
-1.20198e-06
-1.16155e-06
0.000275615
-0.000273559
1.50021e-07
1.57932e-07
3.57367e-07
0.00114567
-4.14591e-07
1.1986e-06
1.64356e-07
7.73428e-07
-4.2951e-07
-1.12044e-06
1.00754e-07
-1.4706e-06
6.89293e-07
3.57508e-07
0.00114579
-4.14724e-07
1.19582e-06
1.64337e-07
7.73448e-07
-4.29466e-07
-1.12019e-06
1.00784e-07
0.00114607
6.7236e-07
-0.00114595
3.48982e-07
-1.4635e-06
1.67758e-07
-4.06122e-07
-1.10785e-06
1.05632e-07
-4.19093e-07
7.78027e-07
1.19948e-06
0.00114619
6.71948e-07
-0.00114607
3.48462e-07
-1.46073e-06
1.68045e-07
-4.05861e-07
-1.10759e-06
1.05709e-07
-4.19046e-07
7.78051e-07
-3.96237e-07
-4.01041e-07
0.000273734
-1.16422e-06
0.000275604
-0.000273557