/*--------------------------------*- C++ -*----------------------------------*\
| =========                 |                                                 |
| \\      /  F ield         | OpenFOAM: The Open Source CFD Toolbox           |
|  \\    /   O peration     | Version:  v2006                                 |
|   \\  /    A nd           | Website:  www.openfoam.com                      |
|    \\/     M anipulation  |                                                 |
\*---------------------------------------------------------------------------*/
FoamFile
{
    version     2.0;
    format      ascii;
    class       volVectorField;
    location    "250";
    object      U;
}
// * * * * * * * * * * * * * * * * * * * * * * * * * * * * * * * * * * * * * //

dimensions      [0 1 -1 0 0 0 0];


internalField   nonuniform List<vector> 
43248
(
(6.08807e-05 6.08961e-05 0.108928)
(-9.74763e-05 6.00599e-05 0.107974)
(6.01164e-05 -9.74523e-05 0.107974)
(-0.000158736 -0.000158808 0.106621)
(5.93828e-05 5.93931e-05 0.109226)
(-9.50501e-05 5.89183e-05 0.108152)
(5.89074e-05 -9.50207e-05 0.108152)
(-0.000153959 -0.000153964 0.106644)
(5.78752e-05 5.7878e-05 0.109515)
(-9.25612e-05 5.7793e-05 0.108311)
(5.77714e-05 -9.25257e-05 0.108311)
(-0.000149182 -0.00014919 0.106643)
(5.63488e-05 5.63538e-05 0.109794)
(-8.98832e-05 5.66391e-05 0.108451)
(5.66105e-05 -8.98419e-05 0.108451)
(-0.000144175 -0.000144184 0.106619)
(5.4889e-05 5.48972e-05 0.110064)
(-8.70742e-05 5.54863e-05 0.108572)
(5.54801e-05 -8.70428e-05 0.108572)
(-0.000138783 -0.00013879 0.106575)
(5.35228e-05 5.35319e-05 0.110324)
(-8.41184e-05 5.4188e-05 0.108675)
(5.41856e-05 -8.40875e-05 0.108675)
(-0.000133166 -0.000133179 0.106515)
(5.22212e-05 5.22292e-05 0.110574)
(-8.09938e-05 5.26023e-05 0.10876)
(5.26114e-05 -8.09689e-05 0.108759)
(-0.000127303 -0.000127318 0.10644)
(5.09604e-05 5.0972e-05 0.110813)
(-7.7739e-05 5.08531e-05 0.108827)
(5.08319e-05 -7.77035e-05 0.108826)
(-0.000121379 -0.000121399 0.106355)
(4.97804e-05 4.97915e-05 0.111042)
(-7.43388e-05 4.88779e-05 0.108877)
(4.88455e-05 -7.42961e-05 0.108877)
(-0.000115469 -0.000115494 0.106261)
(4.8651e-05 4.86631e-05 0.11126)
(-7.08503e-05 4.67509e-05 0.108912)
(4.67421e-05 -7.08182e-05 0.108911)
(-0.000109757 -0.00010978 0.106162)
(4.74301e-05 4.74319e-05 0.111466)
(-6.72005e-05 4.44947e-05 0.108932)
(4.46182e-05 -6.72337e-05 0.108932)
(-0.000104261 -0.000104296 0.10606)
(4.62533e-05 4.62769e-05 0.111661)
(-6.35646e-05 4.2192e-05 0.108939)
(4.20685e-05 -6.3483e-05 0.108938)
(-9.89871e-05 -9.89887e-05 0.105956)
(4.51659e-05 4.51775e-05 0.111843)
(-5.99769e-05 3.97543e-05 0.108933)
(3.97641e-05 -5.99543e-05 0.108933)
(-9.38636e-05 -9.38873e-05 0.105853)
(4.41241e-05 4.41337e-05 0.112014)
(-5.64551e-05 3.72459e-05 0.108917)
(3.72605e-05 -5.64227e-05 0.108917)
(-8.92107e-05 -8.92236e-05 0.10575)
(4.31397e-05 4.31322e-05 0.112172)
(-5.29873e-05 3.47655e-05 0.108892)
(3.47706e-05 -5.29599e-05 0.108891)
(-8.45519e-05 -8.45777e-05 0.10565)
(4.20308e-05 4.20827e-05 0.112318)
(-4.96278e-05 3.22384e-05 0.108858)
(3.22283e-05 -4.96164e-05 0.108858)
(-8.03152e-05 -8.03291e-05 0.105553)
(4.08604e-05 4.08296e-05 0.112452)
(-4.60933e-05 2.97419e-05 0.108818)
(2.97691e-05 -4.60945e-05 0.108818)
(-7.6281e-05 -7.6325e-05 0.105459)
(3.95195e-05 3.95637e-05 0.112573)
(-4.27896e-05 2.73775e-05 0.108773)
(2.73203e-05 -4.27896e-05 0.108772)
(-7.23981e-05 -7.24425e-05 0.105368)
(3.82253e-05 3.82452e-05 0.112682)
(-3.95949e-05 2.49391e-05 0.108723)
(2.49995e-05 -3.9601e-05 0.108722)
(-6.8961e-05 -6.89889e-05 0.105281)
(3.68506e-05 3.68634e-05 0.112779)
(-3.64079e-05 2.28922e-05 0.108669)
(2.27868e-05 -3.63852e-05 0.108669)
(-6.55979e-05 -6.56513e-05 0.105198)
(3.51168e-05 3.51436e-05 0.112864)
(-3.31526e-05 2.0415e-05 0.108614)
(2.04817e-05 -3.31738e-05 0.108613)
(-6.24309e-05 -6.24605e-05 0.105118)
(3.36606e-05 3.36694e-05 0.112937)
(-3.03692e-05 1.85584e-05 0.108556)
(1.85632e-05 -3.03742e-05 0.108556)
(-5.96717e-05 -5.97215e-05 0.105042)
(3.1764e-05 3.18061e-05 0.113)
(-2.73687e-05 1.69762e-05 0.108498)
(1.69511e-05 -2.73564e-05 0.108497)
(-5.70515e-05 -5.70918e-05 0.104971)
(2.96554e-05 2.96748e-05 0.113052)
(-2.41391e-05 1.41568e-05 0.10844)
(1.41109e-05 -2.41196e-05 0.108439)
(-5.37818e-05 -5.38213e-05 0.104903)
(2.85611e-05 2.85676e-05 0.113094)
(-2.24994e-05 1.39521e-05 0.108381)
(1.40324e-05 -2.2542e-05 0.108381)
(-5.28481e-05 -5.28855e-05 0.104837)
(2.506e-05 2.50852e-05 0.113127)
(-1.81777e-05 1.01313e-05 0.108325)
(1.02736e-05 -1.82529e-05 0.108324)
(-4.82022e-05 -4.8252e-05 0.104778)
(2.5285e-05 2.53381e-05 0.11315)
(-1.74636e-05 1.29827e-05 0.108267)
(1.2601e-05 -1.7211e-05 0.108266)
(-5.04414e-05 -5.04367e-05 0.104718)
(-6.24797e-06 -6.26266e-06 0.106778)
(6.02221e-05 9.8076e-05 0.107927)
(-6.02782e-05 9.81034e-05 0.107926)
(6.08344e-06 -6.02608e-06 0.106778)
(9.7993e-05 6.01563e-05 0.107927)
(9.81358e-05 -6.0374e-05 0.107926)
(-9.80209e-05 6.02092e-05 0.107927)
(-9.80964e-05 -6.02496e-05 0.107926)
(-5.85394e-06 5.87499e-06 0.106778)
(6.02955e-05 -9.80281e-05 0.107927)
(-6.01605e-05 -9.80029e-05 0.107927)
(6.36947e-06 6.37437e-06 0.106777)
(0.000158641 0.000158561 0.106621)
(-8.85917e-06 -8.7682e-06 0.106817)
(6.01575e-05 9.75671e-05 0.107974)
(-6.01433e-05 9.75523e-05 0.107974)
(5.91004e-05 9.56745e-05 0.108109)
(-5.91022e-05 9.56582e-05 0.108109)
(-0.000158805 0.000158696 0.106621)
(8.77249e-06 -8.65487e-06 0.106817)
(9.74831e-05 6.00997e-05 0.107974)
(9.75594e-05 -6.02019e-05 0.107974)
(9.55752e-05 5.90105e-05 0.108109)
(9.56513e-05 -5.90877e-05 0.108108)
(-9.75924e-05 -6.02677e-05 0.107974)
(-9.55625e-05 5.89977e-05 0.108109)
(-9.56275e-05 -5.90343e-05 0.108109)
(0.000158965 -0.000159046 0.106621)
(-8.70854e-06 8.80135e-06 0.106816)
(-6.01837e-05 -9.74957e-05 0.107974)
(5.89764e-05 -9.55358e-05 0.108109)
(-5.89116e-05 -9.55216e-05 0.108109)
(8.88255e-06 8.98546e-06 0.106816)
(0.000153957 0.000153948 0.106644)
(-1.10298e-05 -1.09572e-05 0.106829)
(5.90572e-05 9.51597e-05 0.108151)
(-5.90316e-05 9.51297e-05 0.108151)
(5.8051e-05 9.32024e-05 0.108272)
(-5.80683e-05 9.3187e-05 0.108272)
(-0.000154034 0.000154003 0.106644)
(1.08953e-05 -1.07835e-05 0.10683)
(9.5058e-05 5.89627e-05 0.108152)
(9.51302e-05 -5.90297e-05 0.108151)
(9.3095e-05 5.79406e-05 0.108273)
(9.31978e-05 -5.80436e-05 0.108272)
(-9.51501e-05 -5.9062e-05 0.108151)
(-9.31258e-05 5.79504e-05 0.108273)
(-9.31899e-05 -5.80251e-05 0.108272)
(0.000154016 -0.000154046 0.106644)
(-1.08394e-05 1.09218e-05 0.106829)
(-5.89312e-05 -9.50499e-05 0.108152)
(5.79297e-05 -9.30911e-05 0.108273)
(-5.79015e-05 -9.30911e-05 0.108273)
(1.09155e-05 1.10164e-05 0.106828)
(0.000149138 0.000149113 0.106643)
(-1.29896e-05 -1.29284e-05 0.106817)
(5.7963e-05 9.2673e-05 0.10831)
(-5.79098e-05 9.26258e-05 0.10831)
(5.70183e-05 9.06332e-05 0.108417)
(-5.70721e-05 9.0632e-05 0.108417)
(-0.000149229 0.000149202 0.106643)
(1.28192e-05 -1.27137e-05 0.106818)
(9.25597e-05 5.78521e-05 0.108311)
(9.26325e-05 -5.78821e-05 0.10831)
(9.05207e-05 5.69058e-05 0.108418)
(9.06445e-05 -5.7055e-05 0.108417)
(-9.26386e-05 -5.78928e-05 0.10831)
(-9.05687e-05 5.6957e-05 0.108418)
(-9.06378e-05 -5.70375e-05 0.108417)
(0.000149177 -0.000149212 0.106643)
(-1.27464e-05 1.28211e-05 0.106817)
(-5.77703e-05 -9.254e-05 0.108311)
(5.69479e-05 -9.054e-05 0.108418)
(-5.69169e-05 -9.05392e-05 0.108417)
(1.28094e-05 1.29061e-05 0.106816)
(0.000144033 0.000144 0.106619)
(-1.48698e-05 -1.48152e-05 0.106784)
(5.68008e-05 8.99984e-05 0.10845)
(-5.67551e-05 8.99466e-05 0.10845)
(5.59198e-05 8.78857e-05 0.108543)
(-5.6003e-05 8.79029e-05 0.108543)
(-0.000144187 0.000144154 0.106619)
(1.47319e-05 -1.463e-05 0.106784)
(8.98817e-05 5.66883e-05 0.108451)
(8.99496e-05 -5.67166e-05 0.10845)
(8.77681e-05 5.58092e-05 0.108544)
(8.7922e-05 -5.59995e-05 0.108542)
(-8.99823e-05 -5.6793e-05 0.10845)
(-8.78379e-05 5.58942e-05 0.108544)
(-8.78703e-05 -5.58897e-05 0.108543)
(0.000144142 -0.000144182 0.106619)
(-1.46454e-05 1.47257e-05 0.106783)
(-5.66737e-05 -8.98824e-05 0.108451)
(5.59016e-05 -8.78156e-05 0.108544)
(-5.57717e-05 -8.7767e-05 0.108543)
(1.47736e-05 1.48683e-05 0.106783)
(0.000138709 0.000138672 0.106576)
(-1.68279e-05 -1.67758e-05 0.106731)
(5.5558e-05 8.71571e-05 0.108572)
(-5.55939e-05 8.71414e-05 0.108571)
(5.46631e-05 8.49691e-05 0.10865)
(-5.46674e-05 8.49596e-05 0.10865)
(-0.000138905 0.000138872 0.106575)
(1.68459e-05 -1.67337e-05 0.106731)
(8.70367e-05 5.54478e-05 0.108572)
(8.71498e-05 -5.55768e-05 0.108571)
(8.48505e-05 5.45505e-05 0.108651)
(8.49784e-05 -5.46444e-05 0.10865)
(-8.71392e-05 -5.55443e-05 0.108571)
(-8.48857e-05 5.45581e-05 0.108651)
(-8.49347e-05 -5.46164e-05 0.10865)
(0.000138885 -0.000138919 0.106575)
(-1.67734e-05 1.68736e-05 0.106731)
(-5.54263e-05 -8.70345e-05 0.108572)
(5.45569e-05 -8.48515e-05 0.108651)
(-5.45028e-05 -8.48305e-05 0.108651)
(1.67506e-05 1.68373e-05 0.10673)
(0.000133131 0.000133094 0.106515)
(-1.89376e-05 -1.88872e-05 0.106663)
(5.42403e-05 8.41903e-05 0.108674)
(-5.4295e-05 8.41916e-05 0.108674)
(5.31237e-05 8.18725e-05 0.108739)
(-5.30962e-05 8.18439e-05 0.108739)
(-0.000133216 0.000133194 0.106515)
(1.89946e-05 -1.88923e-05 0.106663)
(8.40709e-05 5.41311e-05 0.108675)
(8.42072e-05 -5.42751e-05 0.108674)
(8.17529e-05 5.30122e-05 0.10874)
(8.18533e-05 -5.30785e-05 0.108739)
(-8.41547e-05 -5.42071e-05 0.108674)
(-8.17782e-05 5.29864e-05 0.10874)
(-8.18536e-05 -5.30911e-05 0.108739)
(0.000133192 -0.000133204 0.106515)
(-1.89453e-05 1.90196e-05 0.106662)
(-5.40904e-05 -8.40582e-05 0.108675)
(5.29822e-05 -8.17503e-05 0.10874)
(-5.29718e-05 -8.17475e-05 0.10874)
(1.88462e-05 1.89239e-05 0.106662)
(0.000127263 0.00012723 0.106441)
(-2.10321e-05 -2.09866e-05 0.106582)
(5.27431e-05 8.10909e-05 0.108759)
(-5.2714e-05 8.10567e-05 0.108758)
(5.13388e-05 7.86131e-05 0.10881)
(-5.13967e-05 7.86164e-05 0.10881)
(-0.00012725 0.000127225 0.10644)
(2.10008e-05 -2.09069e-05 0.106582)
(8.0971e-05 5.26323e-05 0.108759)
(8.10726e-05 -5.27084e-05 0.108758)
(7.84933e-05 5.12301e-05 0.108811)
(7.86134e-05 -5.13518e-05 0.10881)
(-8.10482e-05 -5.26757e-05 0.108758)
(-7.8549e-05 5.12823e-05 0.108812)
(-7.86284e-05 -5.13895e-05 0.10881)
(0.000127208 -0.000127237 0.10644)
(-2.09758e-05 2.10423e-05 0.106581)
(-5.25569e-05 -8.09439e-05 0.108759)
(5.12478e-05 -7.8512e-05 0.108811)
(-5.12701e-05 -7.85281e-05 0.108811)
(2.08959e-05 2.09643e-05 0.106581)
(0.000121263 0.000121229 0.106355)
(-2.29243e-05 -2.2885e-05 0.106491)
(5.09284e-05 7.78102e-05 0.108826)
(-5.09675e-05 7.78016e-05 0.108825)
(4.94802e-05 7.52724e-05 0.108865)
(-4.9454e-05 7.52457e-05 0.108864)
(-0.000121335 0.000121307 0.106354)
(2.29947e-05 -2.2908e-05 0.106491)
(7.769e-05 5.08217e-05 0.108826)
(7.78022e-05 -5.09354e-05 0.108825)
(7.51614e-05 4.93688e-05 0.108866)
(7.52613e-05 -4.94454e-05 0.108864)
(-7.78014e-05 -5.09434e-05 0.108825)
(-7.51868e-05 4.93477e-05 0.108866)
(-7.52577e-05 -4.94355e-05 0.108864)
(0.000121259 -0.000121294 0.106355)
(-2.2922e-05 2.29889e-05 0.106491)
(-5.08242e-05 -7.7699e-05 0.108826)
(4.93505e-05 -7.51605e-05 0.108866)
(-4.93166e-05 -7.51611e-05 0.108865)
(2.29375e-05 2.29981e-05 0.10649)
(0.000115457 0.00011542 0.106262)
(-2.4771e-05 -2.47304e-05 0.106393)
(4.8935e-05 7.43974e-05 0.108876)
(-4.8989e-05 7.44019e-05 0.108875)
(4.74629e-05 7.18322e-05 0.108903)
(-4.7424e-05 7.17863e-05 0.108903)
(-0.000115457 0.000115426 0.106261)
(2.48368e-05 -2.47522e-05 0.106394)
(7.42827e-05 4.88276e-05 0.108877)
(7.43961e-05 -4.89461e-05 0.108875)
(7.17127e-05 4.73582e-05 0.108904)
(7.18191e-05 -4.74411e-05 0.108902)
(-7.44101e-05 -4.8981e-05 0.108876)
(-7.17314e-05 4.73174e-05 0.108905)
(-7.17843e-05 -4.73774e-05 0.108903)
(0.000115418 -0.00011545 0.106261)
(-2.47643e-05 2.4824e-05 0.106393)
(-4.88624e-05 -7.43141e-05 0.108876)
(4.73446e-05 -7.17251e-05 0.108904)
(-4.72645e-05 -7.16855e-05 0.108904)
(2.48137e-05 2.48722e-05 0.106392)
(0.000109858 0.000109822 0.106162)
(-2.66758e-05 -2.66451e-05 0.106291)
(4.68769e-05 7.09293e-05 0.10891)
(-4.68575e-05 7.09022e-05 0.10891)
(4.51957e-05 6.82171e-05 0.108927)
(-4.51688e-05 6.81744e-05 0.108926)
(-0.000109792 0.000109758 0.106162)
(2.66763e-05 -2.65914e-05 0.106292)
(7.08137e-05 4.67736e-05 0.108911)
(7.09135e-05 -4.68375e-05 0.10891)
(6.81033e-05 4.50846e-05 0.108928)
(6.82072e-05 -4.51984e-05 0.108926)
(-7.09068e-05 -4.68347e-05 0.10891)
(-6.81144e-05 4.5063e-05 0.108928)
(-6.81841e-05 -4.51646e-05 0.108926)
(0.000109781 -0.000109814 0.106162)
(-2.66321e-05 2.66926e-05 0.106291)
(-4.67217e-05 -7.08099e-05 0.108911)
(4.51016e-05 -6.81091e-05 0.108928)
(-4.50477e-05 -6.80924e-05 0.108927)
(2.66172e-05 2.66641e-05 0.10629)
(0.000104301 0.00010426 0.10606)
(-2.84111e-05 -2.83762e-05 0.106187)
(4.4631e-05 6.72955e-05 0.10893)
(-4.45977e-05 6.72566e-05 0.10893)
(4.29046e-05 6.45703e-05 0.108937)
(-4.29427e-05 6.45486e-05 0.108936)
(-0.000104284 0.000104257 0.10606)
(2.83438e-05 -2.82655e-05 0.106187)
(6.71809e-05 4.45193e-05 0.108932)
(6.73293e-05 -4.47138e-05 0.10893)
(6.44568e-05 4.28137e-05 0.108938)
(6.44914e-05 -4.27458e-05 0.108936)
(-6.72664e-05 -4.45884e-05 0.10893)
(-6.4501e-05 4.28421e-05 0.108938)
(-6.45192e-05 -4.28396e-05 0.108936)
(0.000104299 -0.000104327 0.10606)
(-2.85071e-05 2.85471e-05 0.106186)
(-4.44677e-05 -6.71774e-05 0.108931)
(4.26616e-05 -6.43948e-05 0.108938)
(-4.27412e-05 -6.44287e-05 0.108937)
(2.83465e-05 2.84188e-05 0.106185)
(9.89874e-05 9.8954e-05 0.105956)
(-3.01137e-05 -3.00887e-05 0.106081)
(4.22966e-05 6.36574e-05 0.108937)
(-4.22913e-05 6.36181e-05 0.108937)
(4.04252e-05 6.09355e-05 0.108934)
(-4.0431e-05 6.09129e-05 0.108933)
(-9.90433e-05 9.90139e-05 0.105956)
(3.00891e-05 -3.00152e-05 0.106082)
(6.35428e-05 4.221e-05 0.108938)
(6.35896e-05 -4.2152e-05 0.108936)
(6.08271e-05 4.0315e-05 0.108935)
(6.097e-05 -4.05507e-05 0.108933)
(-6.36201e-05 -4.22741e-05 0.108937)
(-6.08709e-05 4.03283e-05 0.108936)
(-6.09176e-05 -4.04181e-05 0.108934)
(9.87809e-05 -9.88263e-05 0.105956)
(-2.99051e-05 2.99281e-05 0.106081)
(-4.21751e-05 -6.35297e-05 0.108938)
(4.04575e-05 -6.08929e-05 0.108935)
(-4.02885e-05 -6.08394e-05 0.108935)
(3.00219e-05 3.00742e-05 0.10608)
(9.38861e-05 9.38463e-05 0.105853)
(-3.15834e-05 -3.15569e-05 0.105976)
(3.98662e-05 6.00534e-05 0.108932)
(-3.98498e-05 6.00142e-05 0.108931)
(3.79864e-05 5.74052e-05 0.108921)
(-3.79946e-05 5.73848e-05 0.10892)
(-9.39381e-05 9.39066e-05 0.105853)
(3.15882e-05 -3.15073e-05 0.105977)
(5.99429e-05 3.97612e-05 0.108933)
(6.00286e-05 -3.98499e-05 0.108931)
(5.73309e-05 3.78854e-05 0.108922)
(5.74047e-05 -3.793e-05 0.10892)
(-5.99866e-05 -3.97508e-05 0.108931)
(-5.73334e-05 3.79004e-05 0.108922)
(-5.74083e-05 -3.80204e-05 0.10892)
(9.39539e-05 -9.40095e-05 0.105853)
(-3.15679e-05 3.16228e-05 0.105976)
(-3.96297e-05 -5.99107e-05 0.108932)
(3.78539e-05 -5.72873e-05 0.108922)
(-3.79227e-05 -5.7329e-05 0.108921)
(3.14424e-05 3.1501e-05 0.105975)
(8.90762e-05 8.90407e-05 0.105751)
(-3.29749e-05 -3.29288e-05 0.105873)
(3.7305e-05 5.65171e-05 0.108916)
(-3.73504e-05 5.65005e-05 0.108915)
(3.54615e-05 5.39122e-05 0.108897)
(-3.54413e-05 5.38696e-05 0.108897)
(-8.91216e-05 8.90995e-05 0.10575)
(3.30043e-05 -3.2935e-05 0.105874)
(5.64245e-05 3.72127e-05 0.108917)
(5.65179e-05 -3.73538e-05 0.108915)
(5.37994e-05 3.53679e-05 0.108899)
(5.38969e-05 -3.54597e-05 0.108896)
(-5.65327e-05 -3.73806e-05 0.108915)
(-5.38399e-05 3.53563e-05 0.108899)
(-5.38412e-05 -3.53728e-05 0.108897)
(8.91065e-05 -8.91354e-05 0.10575)
(-3.29806e-05 3.30076e-05 0.105873)
(-3.72826e-05 -5.64513e-05 0.108916)
(3.53788e-05 -5.38191e-05 0.108899)
(-3.52679e-05 -5.37832e-05 0.108898)
(3.30119e-05 3.30564e-05 0.105872)
(8.46265e-05 8.4601e-05 0.105651)
(-3.434e-05 -3.42922e-05 0.105772)
(3.49002e-05 5.30567e-05 0.10889)
(-3.48518e-05 5.30264e-05 0.10889)
(3.29376e-05 5.04709e-05 0.108866)
(-3.29305e-05 5.04478e-05 0.108865)
(-8.46077e-05 8.45812e-05 0.10565)
(3.43378e-05 -3.42791e-05 0.105773)
(5.29869e-05 3.478e-05 0.108891)
(5.30707e-05 -3.48355e-05 0.108889)
(5.03827e-05 3.28621e-05 0.108867)
(5.04231e-05 -3.29229e-05 0.108865)
(-5.30044e-05 -3.48163e-05 0.10889)
(-5.04061e-05 3.28317e-05 0.108868)
(-5.04821e-05 -3.29329e-05 0.108865)
(8.4549e-05 -8.45821e-05 0.10565)
(-3.43197e-05 3.43478e-05 0.105772)
(-3.47108e-05 -5.29545e-05 0.108891)
(3.28199e-05 -5.03857e-05 0.108867)
(-3.285e-05 -5.03939e-05 0.108867)
(3.42527e-05 3.43035e-05 0.105771)
(8.02778e-05 8.02848e-05 0.105553)
(-3.55487e-05 -3.55494e-05 0.105674)
(3.22979e-05 4.96907e-05 0.108857)
(-3.23274e-05 4.96682e-05 0.108856)
(3.04994e-05 4.69888e-05 0.108827)
(-3.04569e-05 4.69854e-05 0.108827)
(-8.0324e-05 8.02859e-05 0.105553)
(3.55776e-05 -3.55199e-05 0.105675)
(4.95535e-05 3.22455e-05 0.108858)
(4.96251e-05 -3.23372e-05 0.108856)
(4.69444e-05 3.03779e-05 0.108829)
(4.70243e-05 -3.04436e-05 0.108826)
(-4.96737e-05 -3.22834e-05 0.108856)
(-4.69035e-05 3.03889e-05 0.108829)
(-4.69689e-05 -3.04596e-05 0.108827)
(8.02635e-05 -8.03197e-05 0.105553)
(-3.55307e-05 3.56115e-05 0.105674)
(-3.22035e-05 -4.95859e-05 0.108858)
(3.03968e-05 -4.69088e-05 0.108829)
(-3.03614e-05 -4.6912e-05 0.108828)
(3.55259e-05 3.55397e-05 0.105673)
(7.62948e-05 7.62286e-05 0.105459)
(-3.67485e-05 -3.66813e-05 0.105579)
(2.98974e-05 4.61799e-05 0.108817)
(-2.98242e-05 4.61659e-05 0.108816)
(2.79902e-05 4.38052e-05 0.108783)
(-2.80436e-05 4.37984e-05 0.108782)
(-7.62612e-05 7.62247e-05 0.105459)
(3.66618e-05 -3.66346e-05 0.10558)
(4.61482e-05 2.97801e-05 0.108818)
(4.62116e-05 -2.98199e-05 0.108815)
(4.36345e-05 2.79502e-05 0.108784)
(4.37323e-05 -2.80253e-05 0.108782)
(-4.61947e-05 -2.98663e-05 0.108816)
(-4.37332e-05 2.79631e-05 0.108785)
(-4.37674e-05 -2.79444e-05 0.108782)
(7.62416e-05 -7.6227e-05 0.105459)
(-3.66993e-05 3.66951e-05 0.105579)
(-2.97779e-05 -4.61077e-05 0.108817)
(2.79227e-05 -4.37312e-05 0.108784)
(-2.78711e-05 -4.36814e-05 0.108784)
(3.67119e-05 3.67376e-05 0.105578)
(7.24096e-05 7.24251e-05 0.105368)
(-3.76842e-05 -3.77109e-05 0.105488)
(2.74037e-05 4.28605e-05 0.108771)
(-2.74454e-05 4.28616e-05 0.10877)
(2.57095e-05 4.04466e-05 0.108734)
(-2.56498e-05 4.04255e-05 0.108733)
(-7.25276e-05 7.24733e-05 0.105368)
(3.77494e-05 -3.77217e-05 0.105488)
(4.27301e-05 2.7339e-05 0.108773)
(4.28236e-05 -2.74078e-05 0.10877)
(4.03908e-05 2.56003e-05 0.108735)
(4.04469e-05 -2.56545e-05 0.108733)
(-4.28053e-05 -2.73477e-05 0.10877)
(-4.03591e-05 2.55686e-05 0.108736)
(-4.04529e-05 -2.57039e-05 0.108733)
(7.24146e-05 -7.24801e-05 0.105368)
(-3.76871e-05 3.77438e-05 0.105488)
(-2.72579e-05 -4.27485e-05 0.108772)
(2.56084e-05 -4.03704e-05 0.108735)
(-2.56165e-05 -4.03738e-05 0.108735)
(3.76389e-05 3.76586e-05 0.105487)
(6.89317e-05 6.88816e-05 0.105281)
(-3.86649e-05 -3.86581e-05 0.105401)
(2.50562e-05 3.96698e-05 0.108721)
(-2.5032e-05 3.96435e-05 0.10872)
(2.33631e-05 3.72024e-05 0.108681)
(-2.33982e-05 3.72293e-05 0.10868)
(-6.89199e-05 6.88618e-05 0.105281)
(3.8648e-05 -3.85957e-05 0.105401)
(3.95532e-05 2.49865e-05 0.108722)
(3.9633e-05 -2.50746e-05 0.10872)
(3.71142e-05 2.33024e-05 0.108683)
(3.71889e-05 -2.33368e-05 0.10868)
(-3.96783e-05 -2.50613e-05 0.10872)
(-3.71243e-05 2.33353e-05 0.108683)
(-3.71831e-05 -2.33263e-05 0.10868)
(6.89082e-05 -6.89329e-05 0.105281)
(-3.86699e-05 3.87044e-05 0.1054)
(-2.49903e-05 -3.95715e-05 0.108722)
(2.3263e-05 -3.71314e-05 0.108683)
(-2.32452e-05 -3.71171e-05 0.108682)
(3.86656e-05 3.86743e-05 0.105399)
(6.56455e-05 6.55913e-05 0.105197)
(-3.95966e-05 -3.95936e-05 0.105317)
(2.29126e-05 3.64681e-05 0.108667)
(-2.29478e-05 3.65044e-05 0.108667)
(2.10991e-05 3.40761e-05 0.108626)
(-2.10797e-05 3.40527e-05 0.108625)
(-6.56729e-05 6.56537e-05 0.105198)
(3.96001e-05 -3.95981e-05 0.105317)
(3.64094e-05 2.28367e-05 0.108669)
(3.64634e-05 -2.28394e-05 0.108666)
(3.39877e-05 2.1028e-05 0.108627)
(3.40622e-05 -2.11285e-05 0.108625)
(-3.64404e-05 -2.28615e-05 0.108667)
(-3.39943e-05 2.10021e-05 0.108628)
(-3.40676e-05 -2.10995e-05 0.108625)
(6.55762e-05 -6.55891e-05 0.105197)
(-3.95306e-05 3.95464e-05 0.105316)
(-2.27759e-05 -3.63908e-05 0.108668)
(2.10718e-05 -3.40164e-05 0.108627)
(-2.10304e-05 -3.39755e-05 0.108627)
(3.95424e-05 3.95645e-05 0.105316)
(6.23905e-05 6.23618e-05 0.105118)
(-4.00659e-05 -4.0088e-05 0.105237)
(2.05253e-05 3.32324e-05 0.108612)
(-2.05012e-05 3.32089e-05 0.108611)
(1.93323e-05 3.11968e-05 0.108569)
(-1.93181e-05 3.11877e-05 0.108568)
(-6.24038e-05 6.23332e-05 0.105118)
(4.00619e-05 -4.00591e-05 0.105237)
(3.31378e-05 2.04548e-05 0.108613)
(3.32081e-05 -2.05523e-05 0.108611)
(3.11569e-05 1.92534e-05 0.10857)
(3.12044e-05 -1.92885e-05 0.108567)
(-3.32374e-05 -2.05576e-05 0.108611)
(-3.11433e-05 1.92572e-05 0.108571)
(-3.11766e-05 -1.92484e-05 0.108568)
(6.24184e-05 -6.24656e-05 0.105118)
(-4.00901e-05 4.01196e-05 0.105236)
(-2.04832e-05 -3.3146e-05 0.108613)
(1.92393e-05 -3.11546e-05 0.10857)
(-1.91621e-05 -3.1107e-05 0.10857)
(4.01253e-05 4.01237e-05 0.105235)
(5.97671e-05 5.97131e-05 0.105042)
(-4.10476e-05 -4.10263e-05 0.105161)
(1.86403e-05 3.04341e-05 0.108554)
(-1.86119e-05 3.04168e-05 0.108554)
(1.70896e-05 2.79013e-05 0.10851)
(-1.71403e-05 2.79069e-05 0.10851)
(-5.97879e-05 5.97222e-05 0.105042)
(4.10094e-05 -4.10019e-05 0.105161)
(3.03861e-05 1.85677e-05 0.108556)
(3.04391e-05 -1.86062e-05 0.108553)
(2.78131e-05 1.70479e-05 0.108512)
(2.78568e-05 -1.70979e-05 0.108509)
(-3.04035e-05 -1.85556e-05 0.108554)
(-2.7857e-05 1.70712e-05 0.108513)
(-2.79102e-05 -1.71387e-05 0.10851)
(5.97246e-05 -5.97469e-05 0.105042)
(-4.10483e-05 4.10425e-05 0.10516)
(-1.84786e-05 -3.03257e-05 0.108555)
(1.70216e-05 -2.78466e-05 0.108512)
(-1.7077e-05 -2.78325e-05 0.108512)
(4.09509e-05 4.09617e-05 0.105159)
(5.70145e-05 5.69958e-05 0.10497)
(-4.19229e-05 -4.19353e-05 0.105088)
(1.70151e-05 2.73793e-05 0.108496)
(-1.70419e-05 2.73831e-05 0.108495)
(1.492e-05 2.5329e-05 0.108452)
(-1.4856e-05 2.53122e-05 0.108452)
(-5.7078e-05 5.7013e-05 0.10497)
(4.19985e-05 -4.19578e-05 0.105088)
(2.73082e-05 1.69646e-05 0.108498)
(2.73513e-05 -1.70181e-05 0.108495)
(2.52718e-05 1.48414e-05 0.108454)
(2.53468e-05 -1.48785e-05 0.108451)
(-2.73758e-05 -1.69885e-05 0.108495)
(-2.51887e-05 1.48243e-05 0.108455)
(-2.53167e-05 -1.49297e-05 0.108452)
(5.69793e-05 -5.70388e-05 0.10497)
(-4.19045e-05 4.19722e-05 0.105087)
(-1.692e-05 -2.73012e-05 0.108497)
(1.48645e-05 -2.52173e-05 0.108454)
(-1.48562e-05 -2.52332e-05 0.108454)
(4.19218e-05 4.19283e-05 0.105087)
(5.3745e-05 5.37066e-05 0.104902)
(-4.11539e-05 -4.11637e-05 0.105019)
(1.41707e-05 2.42372e-05 0.108438)
(-1.42163e-05 2.42412e-05 0.108437)
(1.45016e-05 2.27062e-05 0.108394)
(-1.44687e-05 2.26778e-05 0.108393)
(-5.37338e-05 5.36983e-05 0.104903)
(4.1167e-05 -4.12147e-05 0.105019)
(2.41669e-05 1.41044e-05 0.10844)
(2.42377e-05 -1.41632e-05 0.108437)
(2.26551e-05 1.44375e-05 0.108395)
(2.26738e-05 -1.45102e-05 0.108392)
(-2.42759e-05 -1.42958e-05 0.108437)
(-2.27833e-05 1.43671e-05 0.108396)
(-2.26265e-05 -1.42506e-05 0.108393)
(5.37278e-05 -5.37247e-05 0.104902)
(-4.11908e-05 4.11172e-05 0.105018)
(-1.42294e-05 -2.41908e-05 0.108439)
(1.44283e-05 -2.28205e-05 0.108395)
(-1.41847e-05 -2.25443e-05 0.108395)
(4.13368e-05 4.13453e-05 0.105018)
(5.30381e-05 5.29951e-05 0.104837)
(-4.38292e-05 -4.38202e-05 0.104955)
(1.4096e-05 2.25156e-05 0.108379)
(-1.39938e-05 2.25057e-05 0.108379)
(1.07237e-05 1.93879e-05 0.108337)
(-1.06465e-05 1.93802e-05 0.108336)
(-5.29874e-05 5.29113e-05 0.104837)
(4.38604e-05 -4.37642e-05 0.104956)
(2.24717e-05 1.40298e-05 0.108381)
(2.25121e-05 -1.40504e-05 0.108378)
(1.92999e-05 1.0669e-05 0.108338)
(1.93987e-05 -1.06636e-05 0.108335)
(-2.25037e-05 -1.40422e-05 0.108379)
(-1.91256e-05 1.06703e-05 0.108339)
(-1.93421e-05 -1.06426e-05 0.108336)
(5.29799e-05 -5.30614e-05 0.104837)
(-4.37907e-05 4.39158e-05 0.104955)
(-1.39755e-05 -2.24197e-05 0.108381)
(1.06668e-05 -1.90987e-05 0.108338)
(-1.05677e-05 -1.92707e-05 0.108338)
(4.38122e-05 4.38066e-05 0.104954)
(4.84579e-05 4.84377e-05 0.104778)
(-4.11571e-05 -4.11661e-05 0.104892)
(1.03484e-05 1.82835e-05 0.108322)
(-1.02194e-05 1.81896e-05 0.108322)
(1.24908e-05 1.76279e-05 0.108279)
(-1.29107e-05 1.76674e-05 0.108279)
(-4.8429e-05 4.83854e-05 0.104778)
(4.08087e-05 -4.09366e-05 0.104892)
(1.81885e-05 1.02852e-05 0.108324)
(1.82374e-05 -1.03563e-05 0.108321)
(1.76047e-05 1.24707e-05 0.108281)
(1.76038e-05 -1.26101e-05 0.108278)
(-1.80224e-05 -9.80923e-06 0.108322)
(-1.78712e-05 1.2747e-05 0.108281)
(-1.80351e-05 -1.32493e-05 0.108279)
(4.8433e-05 -4.8437e-05 0.104778)
(-4.11604e-05 4.10753e-05 0.104891)
(-9.73029e-06 -1.79488e-05 0.108324)
(1.2436e-05 -1.77458e-05 0.108281)
(-1.32427e-05 -1.79165e-05 0.108281)
(4.04314e-05 4.04847e-05 0.104891)
(4.96397e-05 4.9605e-05 0.104718)
(1.2543e-05 1.74171e-05 0.108265)
(-1.29811e-05 1.76656e-05 0.108264)
(-5.00322e-05 4.99793e-05 0.104718)
(1.73866e-05 1.25446e-05 0.108267)
(1.74953e-05 -1.26101e-05 0.108264)
(-1.79053e-05 -1.32659e-05 0.108264)
(4.97035e-05 -4.96564e-05 0.104718)
(-1.32648e-05 -1.78032e-05 0.108266)
(6.11049e-05 6.11207e-05 0.108853)
(-6.11503e-05 6.11393e-05 0.108852)
(6.11672e-05 -6.11711e-05 0.108852)
(-6.10956e-05 -6.10785e-05 0.108852)
(1.8153e-06 2.1355e-05 0.0940163)
(-1.38394e-06 1.97106e-05 0.0835901)
(1.94518e-06 4.41711e-05 0.0940748)
(-3.68968e-06 -1.06289e-07 0.0835668)
(-1.74682e-06 6.91939e-06 0.0721751)
(3.41135e-06 -1.88332e-06 0.0721786)
(2.13689e-05 1.81841e-06 0.0940153)
(1.97094e-05 -1.40647e-06 0.0835903)
(4.42422e-05 1.93237e-06 0.0940754)
(-1.11492e-07 -3.70673e-06 0.0835667)
(-6.09111e-05 6.08978e-05 0.108928)
(6.09377e-05 -6.09476e-05 0.108928)
(-6.09434e-05 -6.09266e-05 0.108928)
(5.96597e-05 5.9673e-05 0.109153)
(-5.96732e-05 5.96616e-05 0.109153)
(5.96749e-05 -5.96779e-05 0.109153)
(-5.96467e-05 -5.96306e-05 0.109152)
(-6.14558e-05 4.33763e-06 0.102461)
(-6.03051e-05 1.62745e-05 0.0957211)
(-0.000101145 1.87106e-05 0.10862)
(-9.67581e-05 5.95723e-05 0.108021)
(-0.000105344 4.74742e-06 0.102453)
(-2.88585e-05 4.74791e-06 0.095714)
(-0.00010082 1.85685e-05 0.108686)
(6.94806e-06 -1.7096e-06 0.0721746)
(-1.92147e-06 3.37833e-06 0.072178)
(4.31861e-06 -6.15096e-05 0.102461)
(1.87628e-05 -0.000101127 0.10862)
(1.62528e-05 -6.02156e-05 0.0957204)
(5.95302e-05 -9.67059e-05 0.108021)
(4.73719e-06 -0.00010533 0.102452)
(1.85897e-05 -0.000100796 0.108686)
(4.7927e-06 -2.89768e-05 0.0957144)
(-2.81774e-05 -1.21982e-05 0.0894005)
(-1.21713e-05 -2.81722e-05 0.089399)
(6.60013e-06 6.62826e-06 0.106801)
(-1.87113e-05 -8.41408e-07 0.0893673)
(-8.06039e-07 -1.87182e-05 0.0893647)
(1.51354e-06 1.74978e-05 0.0937163)
(-1.05566e-06 1.81237e-05 0.0833674)
(1.61843e-06 3.95823e-05 0.0937644)
(-3.4689e-06 -1.22919e-06 0.0833516)
(-1.94649e-06 6.5526e-06 0.0720243)
(3.35974e-06 -1.90347e-06 0.0720317)
(1.74446e-05 1.51203e-06 0.0937154)
(1.81179e-05 -1.08245e-06 0.0833677)
(3.96114e-05 1.60909e-06 0.0937649)
(-1.23656e-06 -3.48977e-06 0.0833516)
(-5.93822e-05 5.93638e-05 0.109226)
(5.93943e-05 -5.94022e-05 0.109226)
(-5.94055e-05 -5.93897e-05 0.109226)
(5.82217e-05 5.82228e-05 0.109444)
(-5.8238e-05 5.82272e-05 0.109444)
(5.82436e-05 -5.82479e-05 0.109444)
(-5.82381e-05 -5.82213e-05 0.109443)
(-5.49456e-05 3.49104e-06 0.102189)
(-5.61341e-05 1.48994e-05 0.0954299)
(-9.98935e-05 1.80732e-05 0.108878)
(-9.44257e-05 5.86562e-05 0.108194)
(-9.79244e-05 3.81507e-06 0.102184)
(-2.48985e-05 3.5644e-06 0.0954274)
(-9.96129e-05 1.79863e-05 0.10894)
(6.57077e-06 -1.93638e-06 0.0720238)
(-1.91003e-06 3.33399e-06 0.0720311)
(3.51031e-06 -5.49499e-05 0.10219)
(1.81076e-05 -9.98811e-05 0.108878)
(1.48874e-05 -5.60922e-05 0.0954292)
(5.86368e-05 -9.43891e-05 0.108194)
(3.8061e-06 -9.79091e-05 0.102183)
(1.80185e-05 -9.9604e-05 0.10894)
(3.57791e-06 -2.49409e-05 0.0954278)
(-2.61202e-05 -1.16715e-05 0.0891481)
(-1.16525e-05 -2.61209e-05 0.0891466)
(9.08366e-06 9.19014e-06 0.106825)
(-1.60963e-05 -1.94634e-07 0.0891225)
(-1.69486e-07 -1.60902e-05 0.08912)
(1.19883e-06 1.4474e-05 0.0934454)
(-9.2985e-07 1.69532e-05 0.0831666)
(1.31151e-06 3.59847e-05 0.0934839)
(-3.40627e-06 -1.88261e-06 0.0831572)
(-2.14168e-06 6.26621e-06 0.0718875)
(3.22631e-06 -1.89733e-06 0.0718982)
(1.4427e-05 1.20456e-06 0.0934445)
(1.6943e-05 -9.4511e-07 0.0831669)
(3.6011e-05 1.32092e-06 0.0934844)
(-1.89275e-06 -3.42004e-06 0.0831573)
(-5.78659e-05 5.78599e-05 0.109515)
(5.78752e-05 -5.78778e-05 0.109515)
(-5.78842e-05 -5.78674e-05 0.109515)
(5.67374e-05 5.67407e-05 0.109725)
(-5.67576e-05 5.67533e-05 0.109725)
(5.67662e-05 -5.67701e-05 0.109725)
(-5.67605e-05 -5.67442e-05 0.109725)
(-4.85748e-05 2.912e-06 0.101917)
(-5.21291e-05 1.36962e-05 0.0951597)
(-9.87398e-05 1.75548e-05 0.109122)
(-9.19655e-05 5.76389e-05 0.108348)
(-9.03686e-05 3.20856e-06 0.101913)
(-2.14619e-05 2.667e-06 0.0951616)
(-9.84379e-05 1.74901e-05 0.109181)
(6.27544e-06 -2.14044e-06 0.0718868)
(-1.89409e-06 3.22188e-06 0.0718975)
(2.91844e-06 -4.85864e-05 0.101918)
(1.75909e-05 -9.873e-05 0.109122)
(1.37031e-05 -5.21293e-05 0.095159)
(5.76243e-05 -9.19355e-05 0.108348)
(3.21574e-06 -9.03641e-05 0.101912)
(1.75242e-05 -9.84298e-05 0.109181)
(2.67854e-06 -2.14939e-05 0.095162)
(-2.42632e-05 -1.11816e-05 0.0889187)
(-1.1167e-05 -2.42568e-05 0.0889172)
(1.14948e-05 1.1596e-05 0.106825)
(-1.39807e-05 2.13281e-07 0.0888997)
(2.33436e-07 -1.3973e-05 0.0888972)
(8.9704e-07 1.20279e-05 0.0932006)
(-9.51596e-07 1.62127e-05 0.0829853)
(1.01184e-06 3.30212e-05 0.0932307)
(-3.414e-06 -2.24709e-06 0.0829815)
(-2.15216e-06 6.12729e-06 0.0717631)
(3.09445e-06 -1.90889e-06 0.0717768)
(1.1988e-05 9.06423e-07 0.0931998)
(1.62005e-05 -9.65236e-07 0.0829856)
(3.30508e-05 1.02285e-06 0.0932312)
(-2.26199e-06 -3.4234e-06 0.0829816)
(-5.63499e-05 5.63461e-05 0.109794)
(5.63559e-05 -5.63583e-05 0.109794)
(-5.6381e-05 -5.63635e-05 0.109794)
(5.52759e-05 5.52825e-05 0.109998)
(-5.52937e-05 5.52941e-05 0.109997)
(5.53063e-05 -5.53039e-05 0.109997)
(-5.52823e-05 -5.5265e-05 0.109997)
(-4.26227e-05 2.43471e-06 0.10165)
(-4.85493e-05 1.25617e-05 0.0949097)
(-9.7408e-05 1.71593e-05 0.109352)
(-8.92366e-05 5.64355e-05 0.108483)
(-8.3223e-05 2.7277e-06 0.101645)