/*--------------------------------*- C++ -*----------------------------------*\
| =========                 |                                                 |
| \\      /  F ield         | OpenFOAM: The Open Source CFD Toolbox           |
|  \\    /   O peration     | Version:  v2012                                 |
|   \\  /    A nd           | Website:  www.openfoam.com                      |
|    \\/     M anipulation  |                                                 |
\*---------------------------------------------------------------------------*/
FoamFile
{
    version     2.0;
    format      ascii;
    class       volScalarField;
    location    "237.5";
    object      p;
}
// * * * * * * * * * * * * * * * * * * * * * * * * * * * * * * * * * * * * * //

dimensions      [0 2 -2 0 0 0 0];


internalField   nonuniform List<scalar> 
171728
(
0.00353339
0.00353231
0.00353236
0.00353321
0.00349772
0.00349623
0.00349621
0.00349917
0.00345985
0.00345784
0.00345784
0.00346017
0.00341558
0.00341395
0.0034139
0.00341618
0.00336717
0.00336568
0.00336566
0.00336807
0.00331857
0.00331712
0.00331714
0.00331954
0.00327063
0.00326933
0.00326935
0.00327173
0.00322329
0.0032221
0.0032221
0.00322453
0.00317697
0.00317589
0.00317591
0.00317832
0.0031317
0.00313074
0.00313077
0.00313316
0.00308728
0.00308643
0.00308643
0.00308885
0.00304364
0.00304292
0.00304283
0.00304535
0.00300054
0.00299998
0.00299978
0.0030023
0.00295782
0.00295739
0.00295714
0.00295966
0.00291549
0.00291525
0.00291485
0.00291739
0.00287337
0.00287315
0.00287274
0.00287544
0.00283165
0.00283123
0.0028313
0.00283373
0.00279027
0.00278995
0.00279015
0.00279232
0.00274922
0.00274895
0.00274872
0.00275116
0.00270858
0.00270798
0.00270834
0.00271036
0.00266823
0.00266861
0.00266804
0.00267016
0.00262817
0.00262766
0.00262792
0.00262986
0.00258834
0.00258807
0.00258821
0.00259012
0.00254891
0.00254911
0.00254875
0.00255077
0.00250963
0.00250932
0.00250949
0.00251128
0.00247073
0.00247078
0.00247076
0.00247303
0.00243192
0.00243182
0.00243196
0.00243388
0.00239344
0.00239342
0.00239341
0.0023952
0.00235503
0.00235516
0.002355
0.00235764
0.00231697
0.00231704
0.00231714
0.00231871
0.00227896
0.00227909
0.00227904
0.00228175
0.00224112
0.00224137
0.00224139
0.00224314
0.00220358
0.00220376
0.00220377
0.00220593
0.00216609
0.00216636
0.00216632
0.00216836
0.00212883
0.00212909
0.00212912
0.00213108
0.00209167
0.00209192
0.00209188
0.00209388
0.00205468
0.00205488
0.00205492
0.00205688
0.00201787
0.00201805
0.00201803
0.00202002
0.00198121
0.00198142
0.00198137
0.00198334
0.00194468
0.00194466
0.00194477
0.00194676
0.00190835
0.00190847
0.00190838
0.00191043
0.00187223
0.00187223
0.0018723
0.00187424
0.00183625
0.00183622
0.00183614
0.00183823
0.00180044
0.00180034
0.00180029
0.00180239
0.00176481
0.00176475
0.00176477
0.00176674
0.00172966
0.00172943
0.00172947
0.00173147
0.00169459
0.00169448
0.00169448
0.00169648
0.0016601
0.00165979
0.00165978
0.00166175
0.00162533
0.0016251
0.0016251
0.00162708
0.00159141
0.0015914
0.00159138
0.00159331
0.00155877
0.00155819
0.00155819
0.00155999
0.00152494
0.00152411
0.00152412
0.00152596
0.00148868
0.00148831
0.00148832
0.0014904
0.00145063
0.00145067
0.00145067
0.00145295
0.00141271
0.00141343
0.00141343
0.00141579
0.00137667
0.00137714
0.00137714
0.00137934
0.00134357
0.00134362
0.00134362
0.00134553
0.00131336
0.00131259
0.00131259
0.00131414
0.00128338
0.00128241
0.00128241
0.0012838
0.00125237
0.00125161
0.00125161
0.00125312
0.0012199
0.00121947
0.00121947
0.00122119
0.00118602
0.00118581
0.00118581
0.0011877
0.00115106
0.00115096
0.00115096
0.00115295
0.00111547
0.00111542
0.00111542
0.00111746
0.00107956
0.00107953
0.00107953
0.0010816
0.00104354
0.00104351
0.00104351
0.00104558
0.00100749
0.00100746
0.00100746
0.00100953
0.000971414
0.000971385
0.000971385
0.000973458
0.000935345
0.000935318
0.000935318
0.000937389
0.000899273
0.000899244
0.000899244
0.000901317
0.000863199
0.00086317
0.000863171
0.000865242
0.000827129
0.000827103
0.000827103
0.000829174
0.000791058
0.000791029
0.000791029
0.0007931
0.00075499
0.000754963
0.000754963
0.000757035
0.000718923
0.000718895
0.000718896
0.000720967
0.000682855
0.000682827
0.000682827
0.000684898
0.000646787
0.000646759
0.000646759
0.000648832
0.000610717
0.000610689
0.000610689
0.00061276
0.000574645
0.000574617
0.000574617
0.000576688
0.000538573
0.000538545
0.000538545
0.000540617
0.000502499
0.000502473
0.000502473
0.000504545
0.000466426
0.000466396
0.000466397
0.000468468
0.00043035
0.000430321
0.000430321
0.000432393
0.000394275
0.000394249
0.000394248
0.00039632
0.000358199
0.000358171
0.000358173
0.000360242
0.000322122
0.000322093
0.000322093
0.000324163
0.000286046
0.000286019
0.000286019
0.000288088
0.000249969
0.000249941
0.00024994
0.000252011
0.000213892
0.000213862
0.000213863
0.000215929
0.000177814
0.000177788
0.000177787
0.000179847
0.000141734
0.000141708
0.000141708
0.000143762
0.000105647
0.000105626
0.000105627
0.000107664
6.95646e-05
6.95411e-05
6.95388e-05
7.15398e-05
3.42619e-05
3.3692e-05
3.36886e-05
3.55355e-05
5.95303e-06
6.72269e-06
6.71984e-06
5.08312e-06
0.00353796
0.00353559
0.00353553
0.00353789
0.0035356
0.0035356
0.00354185
0.00354182
0.00354187
0.00354188
0.00353549
0.00353562
0.00353797
0.00353561
0.00353563
0.00353802
0.00353319
0.00350393
0.00353236
0.00353232
0.00350582
0.00350579
0.00353312
0.00350395
0.00353237
0.00353237
0.00350579
0.00350583
0.00353235
0.00350579
0.00350582
0.00353318
0.00350394
0.0035324
0.00350584
0.00350585
0.00350394
0.00349916
0.00346566
0.00349624
0.00349624
0.00346791
0.00346791
0.00349918
0.00346567
0.00349625
0.00349619
0.00346788
0.00346791
0.0034962
0.00346787
0.00346787
0.00349915
0.00346565
0.00349625
0.00346791
0.00346789
0.00346565
0.00346019
0.0034224
0.00345785
0.00345787
0.00342549
0.00342551
0.00346019
0.00342242
0.00345787
0.00345784
0.00342549
0.00342551
0.00345788
0.00342548
0.00342549
0.00346017
0.00342241
0.00345784
0.00342551
0.00342551
0.0034224
0.00341619
0.00337456
0.00341393
0.00341394
0.00337784
0.00337788
0.0034162
0.00337456
0.00341393
0.00341391
0.00337784
0.00337785
0.00341393
0.00337784
0.00337782
0.00341618
0.00337455
0.00341389
0.00337783
0.00337782
0.00337455
0.00336808
0.00332595
0.00336568
0.00336566
0.00332917
0.00332914
0.00336808
0.00332596
0.00336567
0.00336566
0.00332916
0.00332916
0.00336565
0.00332913
0.00332916
0.00336807
0.00332596
0.00336564
0.00332916
0.00332914
0.00332595
0.00331955
0.00327805
0.00331712
0.00331715
0.00328125
0.00328124
0.00331955
0.00327803
0.00331713
0.00331714
0.00328125
0.00328125
0.00331713
0.00328123
0.00328126
0.00331956
0.00327805
0.00331709
0.00328124
0.00328121
0.00327805
0.00327174
0.00323074
0.00326934
0.00326935
0.00323384
0.00323384
0.00327172
0.00323073
0.00326934
0.00326935
0.00323385
0.00323386
0.00326933
0.00323384
0.00323386
0.00327174
0.00323074
0.00326935
0.00323387
0.00323382
0.00323074
0.00322454
0.00318438
0.00322211
0.00322211
0.00318735
0.00318735
0.00322453
0.00318439
0.00322209
0.0032221
0.00318735
0.00318735
0.00322207
0.00318735
0.00318737
0.00322454
0.00318439
0.00322209
0.00318737
0.00318736
0.00318438
0.00317833
0.0031391
0.00317591
0.00317589
0.00314196
0.00314199
0.00317832
0.00313909
0.0031759
0.00317592
0.00314196
0.00314196
0.00317589
0.00314199
0.00314198
0.00317835
0.00313911
0.0031759
0.00314197
0.00314195
0.00313907
0.00313319
0.00309467
0.00313075
0.00313072
0.00309743
0.00309741
0.00313318
0.00309467
0.00313074
0.00313077
0.00309742
0.00309741
0.00313074
0.00309742
0.00309745
0.00313322
0.00309465
0.00313074
0.00309741
0.00309743
0.00309465
0.00308889
0.00305105
0.00308646
0.00308645
0.00305373
0.00305367
0.00308888
0.003051
0.00308646
0.00308644
0.00305374
0.0030537
0.0030864
0.00305366
0.00305375
0.00308889
0.00305099
0.00308642
0.0030537
0.00305374
0.00305108
0.00304537
0.00300794
0.00304297
0.00304291
0.00301067
0.00301054
0.00304534
0.00300793
0.00304295
0.00304284
0.0030106
0.00301057
0.00304292
0.00301057
0.00301064
0.0030453
0.00300792
0.0030429
0.00301055
0.00301064
0.0030079
0.00300234
0.00296529
0.00299995
0.00300005
0.00296787
0.00296793
0.00300237
0.00296519
0.00299996
0.00299979
0.00296787
0.00296787
0.00299989
0.00296793
0.00296788
0.00300227
0.00296518
0.00299987
0.00296784
0.00296789
0.00296524
0.00295977
0.00292294
0.00295744
0.00295748
0.00292537
0.00292546
0.00295968
0.00292283
0.00295741
0.00295714
0.00292538
0.00292549
0.0029573
0.00292553
0.00292562
0.00295959
0.00292291
0.0029573
0.0029255
0.00292561
0.00292288
0.00291755
0.00288063
0.00291519
0.00291523
0.00288329
0.00288322
0.00291749
0.00288063
0.00291515
0.00291485
0.00288333
0.00288347
0.00291509
0.00288324
0.00288351
0.00291737
0.00288069
0.00291505
0.00288343
0.00288357
0.00288085
0.00287519
0.00283905
0.0028728
0.00287301
0.00284165
0.0028416
0.00287534
0.00283888
0.00287283
0.00287272
0.00284177
0.00284197
0.00287312
0.00284145
0.0028417
0.00287523
0.00283909
0.00287301
0.00284189
0.00284174
0.00283909
0.00283368
0.00279751
0.00283138
0.00283122
0.00279999
0.00280031
0.00283352
0.00279739
0.00283143
0.00283131
0.00280003
0.00280023
0.00283139
0.00280023
0.00280014
0.00283367
0.00279769
0.0028313
0.00280016
0.00280021
0.00279762
0.00279219
0.00275616
0.0027899
0.00279016
0.00275903
0.00275869
0.00279217
0.00275655
0.00278984
0.00279024
0.0027591
0.00275894
0.00279003
0.00275884
0.00275903
0.00279248
0.0027563
0.00278999
0.00275892
0.00275898
0.00275644
0.00275093
0.00271555
0.00274857
0.00274884
0.0027187
0.00271854
0.00275122
0.00271539
0.00274863
0.00274881
0.0027187
0.00271857
0.00274889
0.00271852
0.00271857
0.00275104
0.00271556
0.0027488
0.00271865
0.00271847
0.00271562
0.00271049
0.00267515
0.00270845
0.00270794
0.00267792
0.00267849
0.00271021
0.00267502
0.00270843
0.00270838
0.00267794
0.00267816
0.00270816
0.00267847
0.00267819
0.00271044
0.00267523
0.00270821
0.00267823
0.00267823
0.00267522
0.00266986
0.00263494
0.00266788
0.00266862
0.00263818
0.00263773
0.00267026
0.00263471
0.00266779
0.00266802
0.0026382
0.00263812
0.00266809
0.00263772
0.00263779
0.00267011
0.00263507
0.00266812
0.00263811
0.0026379
0.00263501
0.00262993
0.00259499
0.00262805
0.00262772
0.00259793
0.00259817
0.00262949
0.00259517
0.00262804
0.00262797
0.00259791
0.00259815
0.00262788
0.0025982
0.00259817
0.00262997
0.00259518
0.00262796
0.00259818
0.0025982
0.00259517
0.0025898
0.00255577
0.00258816
0.00258812
0.00255875
0.00255891
0.00259001
0.00255617
0.00258814
0.00258823
0.00255875
0.00255865
0.0025882
0.00255888
0.00255865
0.00259019
0.00255558
0.00258826
0.00255862
0.00255859
0.0025557
0.00255057
0.00251668
0.00254869
0.00254907
0.00251944
0.00251916
0.00255138
0.00251594
0.00254867
0.00254874
0.00251943
0.00251943
0.00254886
0.00251913
0.00251934
0.00255055
0.00251656
0.00254885
0.0025194
0.00251935
0.00251641
0.00251164
0.00247762
0.00250954
0.00250931
0.00248041
0.00248056
0.00251077
0.00247852
0.00250956
0.0025095
0.00248044
0.00248052
0.00250944
0.00248058
0.00248053
0.00251138
0.00247813
0.00250944
0.0024805
0.00248052
0.00247795
0.00247281
0.00243874
0.00247069
0.00247074
0.0024415
0.00244133
0.00247348
0.00243825
0.0024707
0.00247079
0.0024415
0.00244151
0.00247079
0.00244135
0.00244147
0.00247321
0.00243857
0.00247078
0.00244153
0.00244149
0.0024386
0.00243366
0.00240115
0.00243175
0.00243183
0.00240325
0.00240316
0.00243321
0.0024014
0.00243176
0.00243193
0.00240326
0.00240297
0.00243192
0.00240316
0.00240296
0.00243384
0.00240021
0.00243194
0.00240294
0.00240294
0.00240029
0.00239643
0.00236201
0.00239367
0.00239343
0.0023645
0.00236451
0.00239639
0.00236123
0.00239363
0.00239347
0.00236451
0.00236461
0.00239345
0.00236454
0.00236467
0.00239524
0.00236244
0.00239342
0.00236464
0.0023647
0.00236261
0.00235683
0.00232435
0.00235489
0.00235514
0.00232673
0.00232664
0.00235646
0.00232482
0.00235488
0.00235496
0.00232671
0.00232666
0.00235502
0.00232661
0.0023265
0.00235733
0.0023243
0.00235503
0.00232664
0.00232648
0.00232348
0.00231957
0.00228631
0.00231722
0.00231707
0.00228855
0.00228858
0.00231988
0.00228589
0.00231722
0.00231715
0.00228857
0.00228857
0.00231718
0.00228859
0.00228869
0.00231949
0.00228613
0.00231718
0.00228857
0.00228869
0.00228666
0.00228123
0.00224813
0.00227903
0.00227908
0.0022507
0.0022507
0.00228101
0.00224831
0.00227903
0.00227905
0.00225069
0.00225069
0.00227911
0.00225072
0.00225062
0.00228111
0.00224827
0.00227911
0.0022507
0.00225062
0.00224805
0.00224328
0.00221082
0.0022413
0.00224136
0.00221321
0.00221321
0.00224342
0.00221078
0.0022413
0.00224137
0.00221322
0.00221322
0.00224126
0.00221319
0.00221322
0.00224343
0.00221081
0.00224126
0.00221321
0.00221323
0.00221081
0.00220592
0.00217324
0.00220383
0.00220379
0.00217566
0.00217563
0.00220588
0.00217323
0.00220383
0.00220378
0.00217565
0.00217561
0.00220383
0.00217564
0.00217568
0.00220591
0.00217317
0.00220384
0.00217561
0.00217567
0.00217325
0.00216835
0.00213594
0.00216633
0.00216634
0.00213839
0.00213842
0.00216836
0.00213596
0.00216632
0.00216632
0.00213841
0.00213844
0.00216633
0.00213843
0.00213839
0.00216831
0.00213598
0.00216633
0.00213845
0.00213838
0.00213595
0.00213107
0.00209877
0.00212907
0.00212911
0.00210118
0.00210117
0.00213108
0.00209877
0.00212909
0.00212911
0.00210118
0.00210119
0.00212909
0.00210115
0.00210117
0.00213109
0.00209876
0.00212908
0.00210117
0.00210122
0.00209876
0.00209389
0.00206175
0.00209192
0.0020919
0.00206415
0.00206413
0.0020939
0.00206171
0.0020919
0.00209191
0.00206415
0.00206415
0.00209189
0.00206416
0.00206416
0.00209388
0.00206174
0.00209193
0.00206415
0.00206412
0.00206174
0.00205689
0.00202486
0.0020549
0.00205489
0.00202724
0.00202721
0.00205684
0.00202487
0.00205491
0.00205491
0.00202724
0.00202722
0.00205492
0.00202719
0.00202721
0.00205689
0.00202485
0.00205488
0.00202722
0.00202725
0.00202486
0.00202001
0.00198817
0.00201804
0.00201802
0.00199051
0.00199056
0.00202004
0.00198823
0.00201803
0.00201803
0.0019905
0.00199052
0.00201801
0.00199062
0.00199055
0.00202
0.00198821
0.00201807
0.00199054
0.00199053
0.00198819
0.00198334
0.00195163
0.00198135
0.00198141
0.00195393
0.00195388
0.00198337
0.00195153
0.00198134
0.00198136
0.00195394
0.00195392
0.00198138
0.0019538
0.00195387
0.00198337
0.00195157
0.00198134
0.00195389
0.00195386
0.00195157
0.0019468
0.00191521
0.0019448
0.00194472
0.00191746
0.00191748
0.00194671
0.00191527
0.00194481
0.00194478
0.00191747
0.00191742
0.00194473
0.00191749
0.00191747
0.00194675
0.00191519
0.00194475
0.00191745
0.0019175
0.00191523
0.0019104
0.00187903
0.0019084
0.00190845
0.00188127
0.00188129
0.00191047
0.00187902
0.00190839
0.00190835
0.00188126
0.00188129
0.00190842
0.00188129
0.00188129
0.00191039
0.00187908
0.00190843
0.0018813
0.00188126
0.00187903
0.00187423
0.00184302
0.00187223
0.00187223
0.00184521
0.00184521
0.00187423
0.00184301
0.00187223
0.00187228
0.00184522
0.00184524
0.00187224
0.0018452
0.00184518
0.0018743
0.00184298
0.00187222
0.0018452
0.00184519
0.001843
0.00183825
0.00180713
0.00183622
0.00183622
0.00180931
0.00180928
0.00183823
0.00180712
0.00183624
0.00183621
0.00180931
0.00180923
0.0018362
0.00180929
0.00180934
0.00183819
0.0018071
0.0018362
0.0018092
0.00180931
0.00180716
0.00180237
0.00177149
0.00180035
0.00180033
0.00177359
0.00177362
0.00180237
0.0017715
0.00180035
0.00180029
0.00177359
0.00177361
0.00180039
0.00177363
0.00177359
0.00180235
0.00177152
0.00180037
0.00177364
0.00177361
0.00177147
0.00176676
0.00173616
0.00176473
0.00176474
0.00173829
0.00173823
0.00176677
0.00173613
0.00176473
0.00176475
0.00173828
0.00173828
0.00176471
0.00173823
0.00173826
0.00176679
0.00173616
0.00176472
0.00173826
0.00173824
0.00173616
0.00173146
0.00170109
0.00172947
0.00172943
0.00170312
0.00170318
0.00173144
0.00170114
0.00172947
0.00172948
0.00170313
0.00170319
0.00172948
0.00170318
0.00170317
0.00173147
0.00170113
0.00172946
0.00170319
0.00170319
0.00170113
0.00169644
0.00166641
0.00169443
0.00169449
0.00166849
0.00166848
0.00169649
0.0016664
0.00169443
0.00169448
0.00166847
0.00166845
0.00169446
0.00166848
0.00166848
0.00169648
0.00166638
0.00169449
0.00166846
0.00166846
0.0016664
0.00166177
0.00163168
0.00165981
0.00165979
0.00163369
0.00163371
0.00166175
0.0016317
0.0016598
0.00165977
0.00163369
0.0016337
0.0016598
0.00163371
0.00163369
0.00166174
0.0016317
0.00165978
0.00163372
0.0016337
0.00163169
0.00162707
0.00159777
0.00162506
0.0016251
0.00159968
0.00159972
0.00162709
0.00159779
0.00162507
0.00162508
0.00159968
0.00159971
0.00162507
0.00159972
0.00159969
0.00162709
0.00159778
0.00162508
0.0015997
0.00159971
0.00159778
0.0015933
0.00156448
0.00159137
0.0015914
0.00156655
0.00156654
0.00159332
0.00156447
0.00159137
0.00159139
0.00156655
0.00156654
0.00159137
0.00156654
0.00156656
0.00159331
0.00156447
0.00159139
0.00156654
0.00156655
0.00156448
0.00155999
0.00153061
0.00155821
0.00155819
0.00153278
0.00153275
0.00155998
0.00153059
0.00155821
0.00155819
0.00153279
0.00153276
0.00155821
0.00153276
0.00153278
0.00155998
0.0015306
0.0015582
0.00153276
0.00153277
0.0015306
0.00152597
0.00149532
0.00152413
0.00152411
0.00149747
0.00149746
0.00152595
0.00149532
0.00152414
0.00152412
0.00149747
0.00149747
0.00152413
0.00149744
0.00149746
0.00152596
0.00149532
0.00152412
0.00149746
0.00149746
0.00149532
0.00149041
0.00145801
0.00148833
0.00148832
0.00146015
0.00146014
0.0014904
0.00145801
0.00148833
0.00148832
0.00146015
0.00146014
0.00148832
0.00146014
0.00146014
0.0014904
0.00145801
0.00148832
0.00146014
0.00146014
0.00145801
0.00145295
0.00142078
0.00145067
0.00145067
0.00142271
0.00142272
0.00145295
0.00142079
0.00145067
0.00145067
0.00142271
0.00142272
0.00145067
0.00142272
0.00142271
0.00145295
0.00142079
0.00145067
0.00142272
0.00142271
0.00142078
0.00141579
0.00138412
0.00141343
0.00141344
0.00138601
0.00138601
0.00141579
0.00138412
0.00141343
0.00141343
0.00138601
0.00138601
0.00141343
0.00138601
0.00138601
0.00141579
0.00138412
0.00141343
0.00138601
0.00138601
0.00138412
0.00137934
0.00134988
0.00137714
0.00137714
0.0013517
0.0013517
0.00137934
0.00134988
0.00137714
0.00137714
0.0013517
0.0013517
0.00137714
0.0013517
0.0013517
0.00137934
0.00134988
0.00137714
0.0013517
0.0013517
0.00134988
0.00134553
0.00131825
0.00134362
0.00134362
0.0013202
0.00132019
0.00134552
0.00131825
0.00134362
0.00134362
0.0013202
0.0013202
0.00134362
0.00132019
0.0013202
0.00134553
0.00131825
0.00134362
0.0013202
0.0013202
0.00131825
0.00131414
0.00128788
0.00131259
0.00131259
0.00128997
0.00128997
0.00131414
0.00128788
0.00131259
0.00131259
0.00128997
0.00128997
0.00131259
0.00128997
0.00128997
0.00131414
0.00128788
0.00131259
0.00128997
0.00128997
0.00128788
0.0012838
0.00125732
0.00128241
0.00128241
0.0012594
0.00125941
0.0012838
0.00125732
0.00128241
0.00128241
0.0012594
0.00125941
0.00128241
0.00125941
0.00125941
0.0012838
0.00125732
0.00128241
0.0012594
0.00125941
0.00125732
0.00125311
0.00122561
0.00125161
0.00125161
0.00122765
0.00122765
0.00125312
0.00122561
0.00125161
0.00125161
0.00122765
0.00122765
0.00125161
0.00122765
0.00122765
0.00125312
0.00122561
0.00125161
0.00122765
0.00122765
0.00122561
0.00122119
0.00119232
0.00121947
0.00121947
0.00119436
0.00119436
0.00122119
0.00119232
0.00121947
0.00121947
0.00119436
0.00119436
0.00121947
0.00119436
0.00119436
0.00122119
0.00119232
0.00121947
0.00119435
0.00119435
0.00119232
0.0011877
0.00115772
0.00118581
0.00118581
0.00115976
0.00115976
0.00118769
0.00115772
0.00118581
0.00118581
0.00115976
0.00115976
0.00118581
0.00115976
0.00115976
0.0011877
0.00115772
0.00118581
0.00115976
0.00115976
0.00115772
0.00115295
0.0011223
0.00115096
0.00115096
0.00112435
0.00112435
0.00115295
0.0011223
0.00115096
0.00115096
0.00112435
0.00112435
0.00115096
0.00112435
0.00112435
0.00115295
0.0011223
0.00115096
0.00112435
0.00112435
0.00112229
0.00111746
0.00108647
0.00111542
0.00111542
0.00108852
0.00108852
0.00111746
0.00108647
0.00111542
0.00111542
0.00108852
0.00108852
0.00111542
0.00108852
0.00108852
0.00111746
0.00108647
0.00111542
0.00108852
0.00108852
0.00108647
0.00108159
0.00105046
0.00107953
0.00107953
0.00105252
0.00105252
0.00108159
0.00105046
0.00107953
0.00107953
0.00105252
0.00105252
0.00107953
0.00105252
0.00105252
0.00108159
0.00105046
0.00107953
0.00105252
0.00105252
0.00105046
0.00104558
0.00101442
0.00104351
0.00104351
0.00101648
0.00101648
0.00104558
0.00101442
0.00104351
0.00104351
0.00101648
0.00101648
0.00104351
0.00101648
0.00101648
0.00104558
0.00101442
0.00104351
0.00101648
0.00101648
0.00101442
0.00100953
0.000978345
0.00100746
0.00100746
0.000980405
0.000980405
0.00100953
0.000978345
0.00100746
0.00100746
0.000980405
0.000980405
0.00100746
0.000980404
0.000980405
0.00100953
0.000978345
0.00100746
0.000980405
0.000980405
0.000978344
0.000973457
0.000942274
0.000971385
0.000971385
0.000944334
0.000944334
0.000973457
0.000942275
0.000971385
0.000971385
0.000944334
0.000944334
0.000971385
0.000944334
0.000944334
0.000973457
0.000942274
0.000971385
0.000944334
0.000944334
0.000942274
0.000937388
0.000906204
0.000935318
0.000935318
0.000908263
0.000908263
0.000937388
0.000906204
0.000935318
0.000935318
0.000908263
0.000908263
0.000935318
0.000908263
0.000908263
0.000937389
0.000906204
0.000935318
0.000908263
0.000908263
0.000906204
0.000901316
0.000870129
0.000899244
0.000899244
0.00087219
0.000872189
0.000901316
0.000870129
0.000899244
0.000899244
0.00087219
0.00087219
0.000899244
0.000872189
0.00087219
0.000901317
0.000870129
0.000899244
0.00087219
0.00087219
0.000870129
0.000865241
0.000834061
0.000863171
0.000863171
0.00083612
0.00083612
0.000865241
0.000834061
0.000863171
0.000863171
0.00083612
0.00083612
0.000863171
0.00083612
0.00083612
0.000865242
0.00083406
0.000863171
0.00083612
0.00083612
0.00083406
0.000829174
0.000797986
0.000827103
0.000827103
0.000800046
0.000800045
0.000829173
0.000797986
0.000827103
0.000827103
0.000800045
0.000800045
0.000827103
0.000800046
0.000800046
0.000829174
0.000797986
0.000827103
0.000800046
0.000800046
0.000797986
0.000793099
0.000761922
0.000791029
0.000791029
0.000763981
0.000763981
0.000793099
0.000761922
0.000791029
0.000791029
0.000763981
0.000763981
0.000791029
0.000763981
0.000763981
0.0007931
0.000761921
0.000791029
0.000763981
0.000763981
0.000761921
0.000757034
0.000725852
0.000754963
0.000754962
0.000727912
0.000727911
0.000757034
0.000725851
0.000754962
0.000754962
0.000727912
0.000727912
0.000754963
0.00072791
0.000727911
0.000757034
0.000725851
0.000754962
0.000727911
0.000727911
0.000725851
0.000720965
0.000689785
0.000718896
0.000718895
0.000691844
0.000691844
0.000720965
0.000689785
0.000718896
0.000718896
0.000691844
0.000691844
0.000718896
0.000691844
0.000691843
0.000720966
0.000689784
0.000718896
0.000691844
0.000691843
0.000689783
0.000684897
0.000653718
0.000682827
0.000682827
0.000655777
0.000655776
0.000684897
0.000653718
0.000682827
0.000682827
0.000655776
0.000655776
0.000682826
0.000655776
0.000655777
0.000684898
0.000653717
0.000682827
0.000655776
0.000655776
0.000653717
0.000648831
0.000617646
0.000646759
0.000646759
0.000619706
0.000619706
0.000648831
0.000617646
0.000646759
0.000646759
0.000619706
0.000619706
0.000646759
0.000619706
0.000619706
0.000648831
0.000617646
0.000646759
0.000619706
0.000619706
0.000617645
0.000612759
0.000581575
0.000610689
0.000610689
0.000583635
0.000583635
0.000612759
0.000581576
0.000610689
0.000610689
0.000583634
0.000583635
0.000610689
0.000583635
0.000583635
0.000612759
0.000581575
0.000610689
0.000583635
0.000583634
0.000581574
0.000576687
0.000545505
0.000574616
0.000574616
0.000547565
0.000547564
0.000576687
0.000545505
0.000574616
0.000574617
0.000547564
0.000547564
0.000574616
0.000547564
0.000547564
0.000576688
0.000545505
0.000574616
0.000547564
0.000547564
0.000545504
0.000540617
0.00050943
0.000538546
0.000538546
0.000511489
0.000511489
0.000540617
0.00050943
0.000538545
0.000538545
0.00051149
0.00051149
0.000538545
0.000511489
0.00051149
0.000540617
0.00050943
0.000538545
0.00051149
0.00051149
0.00050943
0.000504544
0.000473354
0.000502473
0.000502472
0.000475414
0.000475414
0.000504543
0.000473354
0.000502473
0.000502473
0.000475414
0.000475414
0.000502473
0.000475414
0.000475414
0.000504544
0.000473354
0.000502473
0.000475414
0.000475414
0.000473354
0.000468467
0.000437282
0.000466396
0.000466395
0.000439343
0.000439343
0.000468466
0.000437282
0.000466396
0.000466397
0.000439342
0.000439341
0.000466397
0.000439342
0.000439342
0.000468468
0.00043728
0.000466397
0.000439341
0.000439341
0.000437281
0.000432392
0.000401207
0.000430323
0.000430323
0.000403266
0.000403265
0.000432393
0.000401207
0.000430321
0.000430321
0.000403267
0.000403267
0.000430321
0.000403267
0.000403267
0.000432392
0.000401207
0.000430321
0.000403267
0.000403267
0.000401207
0.000396318
0.00036513
0.000394248
0.000394248
0.000367189
0.000367189
0.000396319
0.000365129
0.000394248
0.000394247
0.00036719
0.00036719
0.000394249
0.000367188
0.000367188
0.000396318
0.000365131
0.000394248
0.000367189
0.000367188
0.000365129
0.000360242
0.000329053
0.000358171
0.00035817
0.000331113
0.000331113
0.000360241
0.000329053
0.000358172
0.000358172
0.000331113
0.000331113
0.000358171
0.000331112
0.000331113
0.000360243
0.000329052
0.000358172
0.000331112
0.000331112
0.000329052
0.000324163
0.000292978
0.000322095
0.000322095
0.000295036
0.000295036
0.000324163
0.000292978
0.000322095
0.000322095
0.000295036
0.000295035
0.000322094
0.000295037
0.000295037
0.000324164
0.000292977
0.000322093
0.000295037
0.000295037
0.000292977
0.000288089
0.000256898
0.00028602
0.000286019
0.000258956
0.000258956
0.000288088
0.000256899
0.000286019
0.000286019
0.000258956
0.000258957
0.000286019
0.000258956
0.000258957
0.000288088
0.000256898
0.000286019
0.000258957
0.000258957
0.0002569
0.000252007
0.000220824
0.00024994
0.000249941
0.000222881
0.00022288
0.000252009
0.000220822
0.00024994
0.000249939
0.000222881
0.000222881
0.000249942
0.00022288
0.00022288
0.000252007
0.000220824
0.000249942
0.000222881
0.000222879
0.000220821
0.000215928
0.000184748
0.000213863
0.000213862
0.000186803
0.000186803
0.000215927
0.000184748
0.000213863
0.000213864
0.000186803
0.000186802
0.000213863
0.000186803
0.000186803
0.00021593
0.000184747
0.000213862
0.000186802
0.000186803
0.000184746
0.000179849
0.00014867
0.000177788
0.000177788
0.000150722
0.000150722
0.000179849
0.000148669
0.000177788
0.000177787
0.000150722
0.000150722
0.000177787
0.00015072
0.000150722
0.000179849
0.000148668
0.000177786
0.000150722
0.000150723
0.00014867
0.000143761
0.000112591
0.000141709
0.000141709
0.000114639
0.000114639
0.000143761
0.000112592
0.000141709
0.000141709
0.000114638
0.000114639
0.000141708
0.00011464
0.000114639
0.00014376
0.000112591
0.00014171
0.000114639
0.000114638
0.000112591
0.000107662
7.6508e-05
0.000105627
0.000105627
7.85494e-05
7.85493e-05
0.000107661
7.6509e-05
0.000105627
0.000105627
7.85493e-05
7.85477e-05
0.000105627
7.85495e-05
7.85475e-05
0.000107661
7.65068e-05
0.000105627
7.85475e-05
7.85459e-05
7.65048e-05
7.15413e-05
4.04734e-05
6.95411e-05
6.95414e-05
4.25112e-05
4.25103e-05
7.15428e-05
4.04717e-05
6.95401e-05
6.95386e-05
4.25099e-05
4.25065e-05
6.95387e-05
4.25085e-05
4.25066e-05
7.15402e-05
4.04681e-05
6.95374e-05
4.25054e-05
4.25061e-05
4.04671e-05
3.55409e-05
8.26367e-06
3.36942e-05
3.36936e-05
1.12449e-05
1.12462e-05
3.55388e-05
8.26533e-06
3.36931e-05
3.36888e-05
1.12476e-05
1.12414e-05
3.36884e-05
1.12474e-05
1.12422e-05
3.55358e-05
8.26032e-06
3.36883e-05
1.12439e-05
1.1246e-05
8.26209e-06
5.08498e-06
6.7209e-06
6.72085e-06
5.0857e-06
6.72269e-06
6.71737e-06
5.95355e-06
5.95182e-06
5.95241e-06
6.71893e-06
5.08108e-06
6.72115e-06
0.00354506
0.0035477
0.00354649
0.00354651
0.00357322
0.00354769
0.00357692
0.00354788
0.00357336
0.00354782
0.00354797
0.00357712
0.00355876
0.00358029
0.00358048
0.0035175
0.00353109
0.00353504
0.00350974
0.00350775
0.0035131
0.00351758
0.00353112
0.00353499
0.00350975
0.00353336
0.00353339
0.0035334
0.00350675
0.00350677
0.00350676
0.00350675
0.00351698
0.00352869
0.00353391
0.00352467
0.00353601
0.00351417
0.00352486
0.00350794
0.0035132
0.00351702
0.00353396
0.00352878
0.00352469
0.00353611
0.00352488
0.00351424
0.00353479
0.00353499
0.00352189
0.00351414
0.00351414
0.00349008
0.00350409
0.003504
0.00348801
0.00350129
0.00348704
0.00349003
0.00350411
0.00350403
0.003488
0.00349774
0.00349773
0.00349772
0.00346983
0.00346984
0.00346982
0.00346982
0.00348775
0.00350259
0.0034962
0.00348697
0.00350104
0.00348828
0.00348696
0.00350138
0.00348702
0.00348774
0.0034962
0.00350258
0.00348702
0.00350103
0.00348697
0.00348823
0.00350428
0.00350429
0.00348542
0.0034887
0.00348863
0.00344761
0.00346239
0.00346338
0.00344636
0.00346128
0.00344548
0.00344764
0.00346238
0.00346335
0.00344636
0.00345987
0.00345985
0.00345985
0.00342722
0.00342724
0.00342723
0.00342723
0.00344647
0.00346195
0.00345795
0.0034475
0.00346096
0.0034469
0.00344746
0.00346125
0.00344549
0.00344644
0.00345793
0.00346192
0.00344752
0.00346095
0.00344746
0.00344687
0.00346265
0.00346264
0.00344483
0.00344675
0.00344667
0.00340119
0.00341768
0.00341919
0.00339978
0.00341706
0.00339923
0.00340116
0.00341767
0.00341919
0.00339979
0.0034156
0.00341558
0.00341559
0.00337939
0.0033794
0.00337938
0.00337939
0.00340034
0.00341756
0.0034139
0.00340206
0.00341701
0.00340053
0.00340207
0.003417
0.00339922
0.00340032
0.00341388
0.00341753
0.00340206
0.00341698
0.00340205
0.00340049
0.00341779
0.0034178
0.00339878
0.00339992
0.0033999
0.00335206
0.00336924
0.00337061
0.00335093
0.00336883
0.00335062
0.00335213
0.00336925
0.00337059
0.00335092
0.00336718
0.00336717
0.00336718
0.00333066
0.00333066
0.00333066
0.00333066
0.00335169
0.00336927
0.00336567
0.00335342
0.00336889
0.00335165
0.00335345
0.0033688
0.00335064
0.00335166
0.00336565
0.00336924
0.00335345
0.0033689
0.00335347
0.00335163
0.00336928
0.00336928
0.0033502
0.00335107
0.00335104
0.00330323
0.00332045
0.00332148
0.0033024
0.00332019
0.00330215
0.00330319
0.00332047
0.00332146
0.00330238
0.00331857
0.00331857
0.00331858
0.00328257
0.00328256
0.00328257
0.00328258
0.0033032
0.00332047