/*--------------------------------*- C++ -*----------------------------------*\
| =========                 |                                                 |
| \\      /  F ield         | OpenFOAM: The Open Source CFD Toolbox           |
|  \\    /   O peration     | Version:  v2012                                 |
|   \\  /    A nd           | Website:  www.openfoam.com                      |
|    \\/     M anipulation  |                                                 |
\*---------------------------------------------------------------------------*/
FoamFile
{
    version     2.0;
    format      ascii;
    class       volScalarField;
    location    "0.25";
    object      p;
}
// * * * * * * * * * * * * * * * * * * * * * * * * * * * * * * * * * * * * * //

dimensions      [0 2 -2 0 0 0 0];


internalField   nonuniform List<scalar> 
247104
(
1.87743e-06
1.87749e-06
1.8776e-06
1.87753e-06
1.87739e-06
1.87755e-06
1.87759e-06
1.87741e-06
1.87749e-06
1.87754e-06
1.87759e-06
1.87742e-06
1.87731e-06
1.87744e-06
1.8776e-06
1.87751e-06
1.8776e-06
1.87759e-06
1.87728e-06
1.87691e-06
1.87676e-06
1.87694e-06
1.87733e-06
1.87761e-06
1.8776e-06
1.87753e-06
1.87742e-06
1.87691e-06
1.87641e-06
1.87624e-06
1.87646e-06
1.87698e-06
1.87746e-06
1.87751e-06
1.87743e-06
1.87739e-06
1.87731e-06
1.87676e-06
1.87624e-06
1.87605e-06
1.87629e-06
1.87683e-06
1.87735e-06
1.87736e-06
1.87755e-06
1.87744e-06
1.87695e-06
1.87646e-06
1.87629e-06
1.87651e-06
1.87701e-06
1.87748e-06
1.87754e-06
1.87759e-06
1.8776e-06
1.87733e-06
1.87698e-06
1.87683e-06
1.87701e-06
1.87737e-06
1.87761e-06
1.87758e-06
1.87741e-06
1.87751e-06
1.87761e-06
1.87746e-06
1.87735e-06
1.87748e-06
1.87761e-06
1.87747e-06
1.8776e-06
1.87751e-06
1.87736e-06
1.87754e-06
1.87758e-06
1.84382e-06
1.84179e-06
1.84144e-06
1.84027e-06
1.84024e-06
1.84015e-06
1.84016e-06
1.84148e-06
1.84183e-06
1.84145e-06
1.83939e-06
1.83657e-06
1.8365e-06
1.8365e-06
1.83657e-06
1.83979e-06
1.84e-06
1.84027e-06
1.83657e-06
1.8365e-06
1.83655e-06
1.83655e-06
1.8365e-06
1.83657e-06
1.84019e-06
1.84122e-06
1.84382e-06
1.84024e-06
1.8365e-06
1.83655e-06
1.83666e-06
1.83666e-06
1.83655e-06
1.8365e-06
1.84012e-06
1.84175e-06
1.84179e-06
1.84015e-06
1.8365e-06
1.83655e-06
1.83665e-06
1.83665e-06
1.83655e-06
1.8365e-06
1.84028e-06
1.84017e-06
1.84016e-06
1.83656e-06
1.8365e-06
1.83655e-06
1.83655e-06
1.8365e-06
1.83656e-06
1.84007e-06
1.84106e-06
1.84148e-06
1.83978e-06
1.83656e-06
1.8365e-06
1.8365e-06
1.83656e-06
1.83994e-06
1.84018e-06
1.84158e-06
1.84182e-06
1.84e-06
1.84019e-06
1.84011e-06
1.84028e-06
1.84007e-06
1.84018e-06
1.84221e-06
1.84122e-06
1.84175e-06
1.84017e-06
1.84105e-06
1.84158e-06
1.82372e-06
1.82352e-06
1.82337e-06
1.8212e-06
1.82113e-06
1.82111e-06
1.82118e-06
1.82338e-06
1.8236e-06
1.82337e-06
1.82048e-06
1.81745e-06
1.81736e-06
1.81737e-06
1.8175e-06
1.82111e-06
1.82165e-06
1.8212e-06
1.81751e-06
1.81712e-06
1.81714e-06
1.81715e-06
1.81713e-06
1.8175e-06
1.82192e-06
1.8239e-06
1.82371e-06
1.82112e-06
1.81737e-06
1.81714e-06
1.81717e-06
1.81717e-06
1.81715e-06
1.81737e-06
1.82196e-06
1.82361e-06
1.82352e-06
1.8211e-06
1.81735e-06
1.81714e-06
1.81716e-06
1.81717e-06
1.81714e-06
1.81736e-06
1.82189e-06
1.82173e-06
1.82118e-06
1.81744e-06
1.81712e-06
1.81714e-06
1.81714e-06
1.81712e-06
1.81745e-06
1.82197e-06
1.82396e-06
1.82338e-06
1.8211e-06
1.81749e-06
1.81736e-06
1.81737e-06
1.81751e-06
1.82158e-06
1.82182e-06
1.82387e-06
1.8236e-06
1.82165e-06
1.82191e-06
1.82196e-06
1.82189e-06
1.82197e-06
1.82182e-06
1.82386e-06
1.8239e-06
1.82361e-06
1.82172e-06
1.82396e-06
1.82386e-06
1.80448e-06
1.8043e-06
1.80417e-06
1.80194e-06
1.80186e-06
1.80176e-06
1.80195e-06
1.80415e-06
1.80439e-06
1.80415e-06
1.80111e-06
1.79818e-06
1.79813e-06
1.79813e-06
1.79817e-06
1.80176e-06
1.8025e-06
1.80192e-06
1.79818e-06
1.79802e-06
1.79802e-06
1.79802e-06
1.79802e-06
1.79817e-06
1.8027e-06
1.80466e-06
1.80446e-06
1.80185e-06
1.79813e-06
1.79802e-06
1.79802e-06
1.79802e-06
1.79802e-06
1.79813e-06
1.80279e-06
1.80435e-06
1.80429e-06
1.80176e-06
1.79813e-06
1.79802e-06
1.79802e-06
1.79802e-06
1.79802e-06
1.79813e-06
1.80276e-06
1.80257e-06
1.80196e-06
1.79818e-06
1.79802e-06
1.79802e-06
1.79802e-06
1.79802e-06
1.79818e-06
1.80278e-06
1.80471e-06
1.80417e-06
1.80177e-06
1.79817e-06
1.79812e-06
1.79812e-06
1.79817e-06
1.80254e-06
1.80266e-06
1.80467e-06
1.8044e-06
1.8025e-06
1.8027e-06
1.80278e-06
1.80275e-06
1.80276e-06
1.80265e-06
1.80466e-06
1.80466e-06
1.80435e-06
1.80255e-06
1.80469e-06
1.80465e-06
1.78518e-06
1.78501e-06
1.78484e-06
1.7826e-06
1.78251e-06
1.78238e-06
1.78262e-06
1.78484e-06
1.78508e-06
1.78485e-06
1.78177e-06
1.77883e-06
1.77881e-06
1.77881e-06
1.77883e-06
1.78239e-06
1.7832e-06
1.78259e-06
1.77883e-06
1.77878e-06
1.77878e-06
1.77878e-06
1.77878e-06
1.77883e-06
1.78342e-06
1.78537e-06
1.78518e-06
1.78251e-06
1.77881e-06
1.77878e-06
1.77878e-06
1.77878e-06
1.77878e-06
1.77881e-06
1.78355e-06
1.78511e-06
1.78501e-06
1.78238e-06
1.77881e-06
1.77878e-06
1.77878e-06
1.77878e-06
1.77878e-06
1.77881e-06
1.78353e-06
1.78332e-06
1.78261e-06
1.77883e-06
1.77878e-06
1.77878e-06
1.77878e-06
1.77878e-06
1.77883e-06
1.7835e-06
1.78545e-06
1.78484e-06
1.78239e-06
1.77883e-06
1.77881e-06
1.77881e-06
1.77883e-06
1.78332e-06
1.78339e-06
1.78536e-06
1.78508e-06
1.7832e-06
1.78342e-06
1.78355e-06
1.78353e-06
1.7835e-06
1.78339e-06
1.78531e-06
1.78537e-06
1.78511e-06
1.78332e-06
1.78544e-06
1.78536e-06
1.76587e-06
1.76571e-06
1.76552e-06
1.76328e-06
1.76319e-06
1.76306e-06
1.76329e-06
1.76553e-06
1.76576e-06
1.76552e-06
1.76244e-06
1.7595e-06
1.7595e-06
1.7595e-06
1.7595e-06
1.76305e-06
1.76389e-06
1.76328e-06
1.7595e-06
1.75949e-06
1.75949e-06
1.75949e-06
1.75949e-06
1.7595e-06
1.76411e-06
1.76606e-06
1.76588e-06
1.76319e-06
1.7595e-06
1.75949e-06
1.75949e-06
1.75949e-06
1.75949e-06
1.7595e-06
1.76425e-06
1.76581e-06
1.76571e-06
1.76306e-06
1.7595e-06
1.75949e-06
1.75949e-06
1.75949e-06
1.75949e-06
1.7595e-06
1.76424e-06
1.76402e-06
1.76329e-06
1.7595e-06
1.75949e-06
1.75949e-06
1.75949e-06
1.75949e-06
1.7595e-06
1.76419e-06
1.76615e-06
1.76553e-06
1.76305e-06
1.7595e-06
1.7595e-06
1.7595e-06
1.7595e-06
1.76404e-06
1.76408e-06
1.76605e-06
1.76576e-06
1.76389e-06
1.76411e-06
1.76425e-06
1.76424e-06
1.76419e-06
1.76408e-06
1.76602e-06
1.76606e-06
1.76582e-06
1.76403e-06
1.76615e-06
1.76605e-06
1.74656e-06
1.7464e-06
1.74621e-06
1.74396e-06
1.74387e-06
1.74374e-06
1.74397e-06
1.74621e-06
1.74644e-06
1.74621e-06
1.74313e-06
1.74019e-06
1.74019e-06
1.74019e-06
1.74019e-06
1.74372e-06
1.74457e-06
1.74396e-06
1.74019e-06
1.74018e-06
1.74018e-06
1.74018e-06
1.74018e-06
1.74019e-06
1.74479e-06
1.74675e-06
1.74657e-06
1.74387e-06
1.74019e-06
1.74018e-06
1.74018e-06
1.74018e-06
1.74018e-06
1.74019e-06
1.74494e-06
1.74651e-06
1.74639e-06
1.74374e-06
1.74019e-06
1.74018e-06
1.74018e-06
1.74018e-06
1.74018e-06
1.74019e-06
1.74493e-06
1.74472e-06
1.74397e-06
1.74019e-06
1.74018e-06
1.74018e-06
1.74018e-06
1.74018e-06
1.74019e-06
1.74488e-06
1.74684e-06
1.74621e-06
1.74372e-06
1.74019e-06
1.74019e-06
1.74019e-06
1.74019e-06
1.74473e-06
1.74477e-06
1.74673e-06
1.74644e-06
1.74457e-06
1.74479e-06
1.74494e-06
1.74493e-06
1.74488e-06
1.74478e-06
1.74669e-06
1.74675e-06
1.74651e-06
1.74472e-06
1.74684e-06
1.74674e-06
1.72725e-06
1.72708e-06
1.72689e-06
1.72465e-06
1.72456e-06
1.72443e-06
1.72466e-06
1.7269e-06
1.72712e-06
1.72689e-06
1.72382e-06
1.72087e-06
1.72087e-06
1.72087e-06
1.72087e-06
1.72441e-06
1.72526e-06
1.72465e-06
1.72087e-06
1.72087e-06
1.72087e-06
1.72087e-06
1.72087e-06
1.72087e-06
1.72548e-06
1.72744e-06
1.72725e-06
1.72456e-06
1.72087e-06
1.72087e-06
1.72087e-06
1.72087e-06
1.72087e-06
1.72087e-06
1.72563e-06
1.7272e-06
1.72708e-06
1.72443e-06
1.72087e-06
1.72087e-06
1.72087e-06
1.72087e-06
1.72087e-06
1.72087e-06
1.72562e-06
1.72541e-06
1.72466e-06
1.72087e-06
1.72087e-06
1.72087e-06
1.72087e-06
1.72087e-06
1.72087e-06
1.72557e-06
1.72753e-06
1.7269e-06
1.72441e-06
1.72087e-06
1.72087e-06
1.72087e-06
1.72087e-06
1.72542e-06
1.72546e-06
1.72742e-06
1.72713e-06
1.72526e-06
1.72548e-06
1.72563e-06
1.72562e-06
1.72557e-06
1.72546e-06
1.72738e-06
1.72744e-06
1.7272e-06
1.72541e-06
1.72753e-06
1.72742e-06
1.70794e-06
1.70777e-06
1.70758e-06
1.70534e-06
1.70525e-06
1.70512e-06
1.70535e-06
1.70759e-06
1.70781e-06
1.70758e-06
1.70451e-06
1.70156e-06
1.70156e-06
1.70156e-06
1.70156e-06
1.7051e-06
1.70595e-06
1.70533e-06
1.70156e-06
1.70156e-06
1.70156e-06
1.70156e-06
1.70156e-06
1.70156e-06
1.70617e-06
1.70813e-06
1.70794e-06
1.70525e-06
1.70156e-06
1.70156e-06
1.70156e-06
1.70156e-06
1.70156e-06
1.70156e-06
1.70632e-06
1.70789e-06
1.70777e-06
1.70512e-06
1.70156e-06
1.70156e-06
1.70156e-06
1.70156e-06
1.70156e-06
1.70156e-06
1.70631e-06
1.7061e-06
1.70535e-06
1.70156e-06
1.70156e-06
1.70156e-06
1.70156e-06
1.70156e-06
1.70156e-06
1.70626e-06
1.70822e-06
1.70759e-06
1.7051e-06
1.70156e-06
1.70156e-06
1.70156e-06
1.70156e-06
1.70611e-06
1.70615e-06
1.70811e-06
1.70782e-06
1.70595e-06
1.70617e-06
1.70632e-06
1.70631e-06
1.70626e-06
1.70616e-06
1.70807e-06
1.70813e-06
1.70789e-06
1.7061e-06
1.70822e-06
1.70811e-06
1.68863e-06
1.68846e-06
1.68827e-06
1.68602e-06
1.68594e-06
1.68581e-06
1.68604e-06
1.68828e-06
1.6885e-06
1.68827e-06
1.6852e-06
1.68225e-06
1.68225e-06
1.68225e-06
1.68225e-06
1.68579e-06
1.68664e-06
1.68602e-06
1.68225e-06
1.68225e-06
1.68225e-06
1.68225e-06
1.68225e-06
1.68225e-06
1.68686e-06
1.68881e-06
1.68863e-06
1.68594e-06
1.68225e-06
1.68225e-06
1.68225e-06
1.68225e-06
1.68225e-06
1.68225e-06
1.68701e-06
1.68857e-06
1.68846e-06
1.68581e-06
1.68225e-06
1.68225e-06
1.68225e-06
1.68225e-06
1.68225e-06
1.68225e-06
1.687e-06
1.68678e-06
1.68604e-06
1.68225e-06
1.68225e-06
1.68225e-06
1.68225e-06
1.68225e-06
1.68225e-06
1.68695e-06
1.68891e-06
1.68828e-06
1.68579e-06
1.68225e-06
1.68225e-06
1.68225e-06
1.68225e-06
1.6868e-06
1.68684e-06
1.6888e-06
1.68851e-06
1.68664e-06
1.68686e-06
1.68701e-06
1.687e-06
1.68694e-06
1.68684e-06
1.68876e-06
1.68881e-06
1.68857e-06
1.68679e-06
1.68891e-06
1.6888e-06
1.66932e-06
1.66915e-06
1.66896e-06
1.66671e-06
1.66663e-06
1.66649e-06
1.66673e-06
1.66897e-06
1.66919e-06
1.66896e-06
1.66589e-06
1.66294e-06
1.66294e-06
1.66294e-06
1.66294e-06
1.66647e-06
1.66733e-06
1.66671e-06
1.66294e-06
1.66294e-06
1.66294e-06
1.66294e-06
1.66294e-06
1.66294e-06
1.66755e-06
1.6695e-06
1.66932e-06
1.66663e-06
1.66294e-06
1.66294e-06
1.66294e-06
1.66294e-06
1.66294e-06
1.66294e-06
1.6677e-06
1.66926e-06
1.66915e-06
1.6665e-06
1.66294e-06
1.66294e-06
1.66294e-06
1.66294e-06
1.66294e-06
1.66294e-06
1.66769e-06
1.66747e-06
1.66673e-06
1.66294e-06
1.66294e-06
1.66294e-06
1.66294e-06
1.66294e-06
1.66294e-06
1.66764e-06
1.66959e-06
1.66897e-06
1.66648e-06
1.66294e-06
1.66294e-06
1.66294e-06
1.66294e-06
1.66749e-06
1.66753e-06
1.66949e-06
1.6692e-06
1.66733e-06
1.66755e-06
1.6677e-06
1.66769e-06
1.66763e-06
1.66753e-06
1.66944e-06
1.6695e-06
1.66926e-06
1.66747e-06
1.66959e-06
1.66949e-06
1.65001e-06
1.64984e-06
1.64965e-06
1.6474e-06
1.64732e-06
1.64718e-06
1.64741e-06
1.64966e-06
1.64988e-06
1.64965e-06
1.64658e-06
1.64363e-06
1.64363e-06
1.64363e-06
1.64363e-06
1.64716e-06
1.64802e-06
1.6474e-06
1.64363e-06
1.64363e-06
1.64363e-06
1.64363e-06
1.64363e-06
1.64363e-06
1.64823e-06
1.65019e-06
1.65001e-06
1.64732e-06
1.64363e-06
1.64363e-06
1.64363e-06
1.64363e-06
1.64363e-06
1.64363e-06
1.64839e-06
1.64995e-06
1.64984e-06
1.64718e-06
1.64363e-06
1.64363e-06
1.64363e-06
1.64363e-06
1.64363e-06
1.64363e-06
1.64838e-06
1.64816e-06
1.64741e-06
1.64363e-06
1.64363e-06
1.64363e-06
1.64363e-06
1.64363e-06
1.64363e-06
1.64832e-06
1.65028e-06
1.64966e-06
1.64716e-06
1.64363e-06
1.64363e-06
1.64363e-06
1.64363e-06
1.64818e-06
1.64822e-06
1.65018e-06
1.64988e-06
1.64801e-06
1.64823e-06
1.64838e-06
1.64838e-06
1.64832e-06
1.64822e-06
1.65013e-06
1.65019e-06
1.64995e-06
1.64816e-06
1.65028e-06
1.65018e-06
1.6307e-06
1.63053e-06
1.63034e-06
1.62809e-06
1.62801e-06
1.62787e-06
1.6281e-06
1.63035e-06
1.63057e-06
1.63034e-06
1.62726e-06
1.62432e-06
1.62432e-06
1.62432e-06
1.62432e-06
1.62785e-06
1.6287e-06
1.62809e-06
1.62432e-06
1.62432e-06
1.62432e-06
1.62432e-06
1.62432e-06
1.62432e-06
1.62892e-06
1.63088e-06
1.6307e-06
1.628e-06
1.62432e-06
1.62432e-06
1.62432e-06
1.62432e-06
1.62432e-06
1.62432e-06
1.62907e-06
1.63064e-06
1.63053e-06
1.62787e-06
1.62432e-06
1.62432e-06
1.62432e-06
1.62432e-06
1.62432e-06
1.62432e-06
1.62907e-06
1.62885e-06
1.6281e-06
1.62432e-06
1.62432e-06
1.62432e-06
1.62432e-06
1.62432e-06
1.62432e-06
1.62901e-06
1.63097e-06
1.63035e-06
1.62785e-06
1.62432e-06
1.62432e-06
1.62432e-06
1.62432e-06
1.62887e-06
1.62891e-06
1.63087e-06
1.63057e-06
1.6287e-06
1.62892e-06
1.62907e-06
1.62907e-06
1.62901e-06
1.62891e-06
1.63082e-06
1.63088e-06
1.63064e-06
1.62885e-06
1.63097e-06
1.63087e-06
1.61139e-06
1.61122e-06
1.61102e-06
1.60878e-06
1.60869e-06
1.60856e-06
1.60879e-06
1.61103e-06
1.61126e-06
1.61102e-06
1.60795e-06
1.60501e-06
1.60501e-06
1.60501e-06
1.60501e-06
1.60854e-06
1.60939e-06
1.60878e-06
1.60501e-06
1.60501e-06
1.60501e-06
1.60501e-06
1.60501e-06
1.60501e-06
1.60961e-06
1.61157e-06
1.61139e-06
1.60869e-06
1.60501e-06
1.60501e-06
1.60501e-06
1.60501e-06
1.60501e-06
1.60501e-06
1.60976e-06
1.61133e-06
1.61122e-06
1.60856e-06
1.60501e-06
1.60501e-06
1.60501e-06
1.60501e-06
1.60501e-06
1.60501e-06
1.60976e-06
1.60954e-06
1.60879e-06
1.60501e-06
1.60501e-06
1.60501e-06
1.60501e-06
1.60501e-06
1.60501e-06
1.6097e-06
1.61166e-06
1.61103e-06
1.60854e-06
1.60501e-06
1.60501e-06
1.60501e-06
1.60501e-06
1.60956e-06
1.6096e-06
1.61155e-06
1.61126e-06
1.60939e-06
1.60961e-06
1.60976e-06
1.60976e-06
1.6097e-06
1.6096e-06
1.61151e-06
1.61157e-06
1.61133e-06
1.60954e-06
1.61166e-06
1.61156e-06
1.59208e-06
1.59191e-06
1.59171e-06
1.58947e-06
1.58938e-06
1.58925e-06
1.58948e-06
1.59173e-06
1.59195e-06
1.59171e-06
1.58864e-06
1.5857e-06
1.5857e-06
1.5857e-06
1.5857e-06
1.58923e-06
1.59008e-06
1.58947e-06
1.5857e-06
1.5857e-06
1.5857e-06
1.5857e-06
1.5857e-06
1.5857e-06
1.5903e-06
1.59226e-06
1.59208e-06
1.58938e-06
1.5857e-06
1.5857e-06
1.5857e-06
1.5857e-06
1.5857e-06
1.5857e-06
1.59045e-06
1.59202e-06
1.59191e-06
1.58925e-06
1.5857e-06
1.5857e-06
1.5857e-06
1.5857e-06
1.5857e-06
1.5857e-06
1.59045e-06
1.59023e-06
1.58948e-06
1.5857e-06
1.5857e-06
1.5857e-06
1.5857e-06
1.5857e-06
1.5857e-06
1.59039e-06
1.59235e-06
1.59172e-06
1.58923e-06
1.5857e-06
1.5857e-06
1.5857e-06
1.5857e-06
1.59025e-06
1.59029e-06
1.59224e-06
1.59195e-06
1.59008e-06
1.5903e-06
1.59045e-06
1.59045e-06
1.59039e-06
1.59029e-06
1.5922e-06
1.59226e-06
1.59202e-06
1.59023e-06
1.59235e-06
1.59225e-06
1.57277e-06
1.5726e-06
1.57241e-06
1.57016e-06
1.57008e-06
1.56994e-06
1.57017e-06
1.57242e-06
1.57264e-06
1.57241e-06
1.56933e-06
1.56639e-06
1.56639e-06
1.56639e-06
1.56639e-06
1.56992e-06
1.57077e-06
1.57016e-06
1.56639e-06
1.56639e-06
1.56639e-06
1.56639e-06
1.56639e-06
1.56639e-06
1.57099e-06
1.57295e-06
1.57277e-06
1.57008e-06
1.56639e-06
1.56639e-06
1.56639e-06
1.56639e-06
1.56639e-06
1.56639e-06
1.57114e-06
1.57271e-06
1.5726e-06
1.56994e-06
1.56639e-06
1.56639e-06
1.56639e-06
1.56639e-06
1.56639e-06
1.56639e-06
1.57114e-06
1.57092e-06
1.57017e-06
1.56639e-06
1.56639e-06
1.56639e-06
1.56639e-06
1.56639e-06
1.56639e-06
1.57108e-06
1.57304e-06
1.57242e-06
1.56992e-06
1.56639e-06
1.56639e-06
1.56639e-06
1.56639e-06
1.57094e-06
1.57098e-06
1.57294e-06
1.57264e-06
1.57077e-06
1.57099e-06
1.57114e-06
1.57114e-06
1.57108e-06
1.57098e-06
1.57289e-06
1.57295e-06
1.57271e-06
1.57092e-06
1.57304e-06
1.57294e-06
1.55346e-06
1.55329e-06
1.5531e-06
1.55085e-06
1.55077e-06
1.55063e-06
1.55086e-06
1.55311e-06
1.55333e-06
1.5531e-06
1.55003e-06
1.54708e-06
1.54708e-06
1.54708e-06
1.54708e-06
1.55061e-06
1.55146e-06
1.55085e-06
1.54708e-06
1.54708e-06
1.54708e-06
1.54708e-06
1.54708e-06
1.54708e-06
1.55168e-06
1.55364e-06
1.55346e-06
1.55077e-06
1.54708e-06
1.54708e-06
1.54708e-06
1.54708e-06
1.54708e-06
1.54708e-06
1.55183e-06
1.5534e-06
1.55329e-06
1.55063e-06
1.54708e-06
1.54708e-06
1.54708e-06
1.54708e-06
1.54708e-06
1.54708e-06
1.55183e-06
1.55161e-06
1.55086e-06
1.54708e-06
1.54708e-06
1.54708e-06
1.54708e-06
1.54708e-06
1.54708e-06
1.55177e-06
1.55373e-06
1.55311e-06
1.55061e-06
1.54708e-06
1.54708e-06
1.54708e-06
1.54708e-06
1.55163e-06
1.55167e-06
1.55363e-06
1.55333e-06
1.55146e-06
1.55168e-06
1.55183e-06
1.55183e-06
1.55177e-06
1.55167e-06
1.55358e-06
1.55364e-06
1.5534e-06
1.55161e-06
1.55373e-06
1.55363e-06
1.53415e-06
1.53398e-06
1.53379e-06
1.53154e-06
1.53146e-06
1.53132e-06
1.53155e-06
1.5338e-06
1.53402e-06
1.53379e-06
1.53072e-06
1.52777e-06
1.52777e-06
1.52777e-06
1.52777e-06
1.5313e-06
1.53216e-06
1.53154e-06
1.52777e-06
1.52777e-06
1.52777e-06
1.52777e-06
1.52777e-06
1.52777e-06
1.53238e-06
1.53433e-06
1.53415e-06
1.53146e-06
1.52777e-06
1.52777e-06
1.52777e-06
1.52777e-06
1.52777e-06
1.52777e-06
1.53253e-06
1.53409e-06
1.53398e-06
1.53132e-06
1.52777e-06
1.52777e-06
1.52777e-06
1.52777e-06
1.52777e-06
1.52777e-06
1.53252e-06
1.5323e-06
1.53155e-06
1.52777e-06
1.52777e-06
1.52777e-06
1.52777e-06
1.52777e-06
1.52777e-06
1.53246e-06
1.53442e-06
1.5338e-06
1.5313e-06
1.52777e-06
1.52777e-06
1.52777e-06
1.52777e-06
1.53232e-06
1.53236e-06
1.53432e-06
1.53402e-06
1.53215e-06
1.53237e-06
1.53252e-06
1.53252e-06
1.53246e-06
1.53236e-06
1.53427e-06
1.53433e-06
1.53409e-06
1.5323e-06
1.53442e-06
1.53432e-06
1.51484e-06
1.51467e-06
1.51448e-06
1.51223e-06
1.51215e-06
1.51201e-06
1.51224e-06
1.51449e-06
1.51471e-06
1.51448e-06
1.51141e-06
1.50846e-06
1.50846e-06
1.50846e-06
1.50846e-06
1.51199e-06
1.51285e-06
1.51223e-06
1.50846e-06
1.50846e-06
1.50846e-06
1.50846e-06
1.50846e-06
1.50846e-06
1.51307e-06
1.51502e-06
1.51484e-06
1.51215e-06
1.50846e-06
1.50846e-06
1.50846e-06
1.50846e-06
1.50846e-06
1.50846e-06
1.51322e-06
1.51478e-06
1.51467e-06
1.51201e-06
1.50846e-06
1.50846e-06
1.50846e-06
1.50846e-06
1.50846e-06
1.50846e-06
1.51321e-06
1.51299e-06
1.51224e-06
1.50846e-06
1.50846e-06
1.50846e-06
1.50846e-06
1.50846e-06
1.50846e-06
1.51315e-06
1.51511e-06
1.51449e-06
1.51199e-06
1.50846e-06
1.50846e-06
1.50846e-06
1.50846e-06
1.51301e-06
1.51305e-06
1.51501e-06
1.51471e-06
1.51284e-06
1.51306e-06
1.51321e-06
1.51321e-06
1.51315e-06
1.51305e-06
1.51496e-06
1.51502e-06
1.51478e-06
1.51299e-06
1.51511e-06
1.51501e-06
1.49553e-06
1.49536e-06
1.49517e-06
1.49292e-06
1.49284e-06
1.4927e-06
1.49293e-06
1.49517e-06
1.4954e-06
1.49517e-06
1.4921e-06
1.48915e-06
1.48915e-06
1.48915e-06
1.48915e-06
1.49268e-06
1.49354e-06
1.49292e-06
1.48915e-06
1.48915e-06
1.48915e-06
1.48915e-06
1.48915e-06
1.48915e-06
1.49376e-06
1.49571e-06
1.49553e-06
1.49284e-06
1.48915e-06
1.48915e-06
1.48915e-06
1.48915e-06
1.48915e-06
1.48915e-06
1.49391e-06
1.49547e-06
1.49536e-06
1.4927e-06
1.48915e-06
1.48915e-06
1.48915e-06
1.48915e-06
1.48915e-06
1.48915e-06
1.4939e-06
1.49368e-06
1.49293e-06
1.48915e-06
1.48915e-06
1.48915e-06
1.48915e-06
1.48915e-06
1.48915e-06
1.49384e-06
1.4958e-06
1.49518e-06
1.49268e-06
1.48915e-06
1.48915e-06
1.48915e-06
1.48915e-06
1.4937e-06
1.49374e-06
1.4957e-06
1.4954e-06
1.49353e-06
1.49375e-06
1.4939e-06
1.4939e-06
1.49384e-06
1.49374e-06
1.49565e-06
1.49571e-06
1.49547e-06
1.49368e-06
1.4958e-06
1.4957e-06
1.47622e-06
1.47605e-06
1.47586e-06
1.47361e-06
1.47353e-06
1.47339e-06
1.47362e-06
1.47586e-06
1.47609e-06
1.47586e-06
1.47279e-06
1.46984e-06
1.46984e-06
1.46984e-06
1.46984e-06
1.47337e-06
1.47422e-06
1.47361e-06
1.46984e-06
1.46984e-06
1.46984e-06
1.46984e-06
1.46984e-06
1.46984e-06
1.47445e-06
1.4764e-06
1.47622e-06
1.47353e-06
1.46984e-06
1.46984e-06
1.46984e-06
1.46984e-06
1.46984e-06
1.46984e-06
1.4746e-06
1.47616e-06
1.47605e-06
1.47339e-06
1.46984e-06
1.46984e-06
1.46984e-06
1.46984e-06
1.46984e-06
1.46984e-06
1.47459e-06
1.47437e-06
1.47362e-06
1.46984e-06
1.46984e-06
1.46984e-06
1.46984e-06
1.46984e-06
1.46984e-06
1.47453e-06
1.47649e-06
1.47587e-06
1.47337e-06
1.46984e-06
1.46984e-06
1.46984e-06
1.46984e-06
1.47439e-06
1.47443e-06
1.47639e-06
1.47609e-06
1.47422e-06
1.47444e-06
1.47459e-06
1.47459e-06
1.47453e-06
1.47443e-06
1.47634e-06
1.4764e-06
1.47616e-06
1.47437e-06
1.47649e-06
1.47639e-06
1.45691e-06
1.45674e-06
1.45655e-06
1.4543e-06
1.45421e-06
1.45408e-06
1.45431e-06
1.45655e-06
1.45678e-06
1.45655e-06
1.45347e-06
1.45053e-06
1.45053e-06
1.45053e-06
1.45053e-06
1.45406e-06
1.45491e-06
1.4543e-06
1.45053e-06
1.45053e-06
1.45053e-06
1.45053e-06
1.45053e-06
1.45053e-06
1.45513e-06
1.45709e-06
1.45691e-06
1.45421e-06
1.45053e-06
1.45053e-06
1.45053e-06
1.45053e-06
1.45053e-06
1.45053e-06
1.45528e-06
1.45685e-06
1.45674e-06
1.45408e-06
1.45053e-06
1.45053e-06
1.45053e-06
1.45053e-06
1.45053e-06
1.45053e-06
1.45528e-06
1.45506e-06
1.45431e-06
1.45053e-06
1.45053e-06
1.45053e-06
1.45053e-06
1.45053e-06
1.45053e-06
1.45522e-06
1.45718e-06
1.45656e-06
1.45406e-06
1.45053e-06
1.45053e-06
1.45053e-06
1.45053e-06
1.45508e-06
1.45512e-06
1.45708e-06
1.45678e-06
1.45491e-06
1.45513e-06
1.45528e-06
1.45528e-06
1.45522e-06
1.45512e-06
1.45703e-06
1.45709e-06
1.45685e-06
1.45506e-06
1.45718e-06
1.45708e-06
1.43759e-06
1.43743e-06
1.43723e-06
1.43499e-06
1.4349e-06
1.43477e-06
1.435e-06
1.43724e-06
1.43747e-06
1.43723e-06
1.43416e-06
1.43122e-06
1.43122e-06
1.43122e-06
1.43122e-06
1.43475e-06
1.4356e-06
1.43499e-06
1.43122e-06
1.43122e-06
1.43122e-06
1.43122e-06
1.43122e-06
1.43122e-06
1.43582e-06
1.43778e-06
1.4376e-06
1.4349e-06
1.43122e-06
1.43122e-06
1.43122e-06
1.43122e-06
1.43122e-06
1.43122e-06
1.43597e-06
1.43754e-06
1.43743e-06
1.43477e-06
1.43122e-06
1.43122e-06
1.43122e-06
1.43122e-06
1.43122e-06
1.43122e-06
1.43597e-06
1.43575e-06
1.435e-06
1.43122e-06
1.43122e-06
1.43122e-06
1.43122e-06
1.43122e-06
1.43122e-06
1.43591e-06
1.43787e-06
1.43724e-06
1.43475e-06
1.43122e-06
1.43122e-06
1.43122e-06
1.43122e-06
1.43577e-06
1.43581e-06
1.43776e-06
1.43747e-06
1.4356e-06
1.43582e-06
1.43597e-06
1.43597e-06
1.43591e-06
1.43581e-06
1.43772e-06
1.43778e-06
1.43754e-06
1.43575e-06
1.43787e-06
1.43777e-06
1.41828e-06
1.41811e-06
1.41792e-06
1.41568e-06
1.41559e-06
1.41546e-06
1.41569e-06
1.41793e-06
1.41815e-06
1.41792e-06
1.41485e-06
1.4119e-06
1.4119e-06
1.4119e-06
1.4119e-06
1.41544e-06
1.41629e-06
1.41568e-06
1.4119e-06
1.4119e-06
1.4119e-06
1.4119e-06
1.4119e-06
1.4119e-06
1.41651e-06
1.41847e-06
1.41829e-06
1.41559e-06
1.4119e-06
1.4119e-06
1.4119e-06
1.4119e-06
1.4119e-06
1.4119e-06
1.41666e-06
1.41823e-06
1.41811e-06
1.41546e-06
1.4119e-06
1.4119e-06
1.4119e-06
1.4119e-06
1.4119e-06
1.4119e-06
1.41665e-06
1.41644e-06
1.41569e-06
1.4119e-06
1.4119e-06
1.4119e-06
1.4119e-06
1.4119e-06
1.4119e-06
1.4166e-06
1.41856e-06
1.41793e-06
1.41544e-06
1.4119e-06
1.4119e-06
1.4119e-06
1.4119e-06
1.41646e-06
1.4165e-06
1.41845e-06
1.41816e-06
1.41629e-06
1.41651e-06
1.41666e-06
1.41665e-06
1.4166e-06
1.4165e-06
1.41841e-06
1.41847e-06
1.41823e-06
1.41644e-06
1.41856e-06
1.41845e-06
1.39897e-06
1.3988e-06
1.39861e-06
1.39636e-06
1.39628e-06
1.39615e-06
1.39638e-06
1.39862e-06
1.39884e-06
1.39861e-06
1.39554e-06
1.39259e-06
1.39259e-06
1.39259e-06
1.39259e-06
1.39613e-06
1.39698e-06
1.39636e-06
1.39259e-06
1.39259e-06
1.39259e-06
1.39259e-06
1.39259e-06
1.39259e-06
1.3972e-06
1.39915e-06
1.39897e-06
1.39628e-06
1.39259e-06
1.39259e-06
1.39259e-06
1.39259e-06
1.39259e-06
1.39259e-06
1.39735e-06
1.39892e-06
1.3988e-06
1.39615e-06
1.39259e-06
1.39259e-06
1.39259e-06
1.39259e-06
1.39259e-06
1.39259e-06
1.39734e-06
1.39712e-06
1.39638e-06
1.39259e-06
1.39259e-06
1.39259e-06
1.39259e-06
1.39259e-06
1.39259e-06
1.39729e-06
1.39925e-06
1.39862e-06
1.39613e-06
1.39259e-06
1.39259e-06
1.39259e-06
1.39259e-06
1.39714e-06
1.39718e-06
1.39914e-06
1.39885e-06
1.39698e-06
1.3972e-06
1.39735e-06
1.39734e-06
1.39728e-06
1.39718e-06
1.3991e-06
1.39916e-06
1.39892e-06
1.39712e-06
1.39925e-06
1.39914e-06
1.37966e-06
1.37949e-06
1.3793e-06
1.37705e-06
1.37697e-06
1.37683e-06
1.37707e-06
1.37931e-06
1.37953e-06
1.3793e-06
1.37623e-06
1.37328e-06
1.37328e-06
1.37328e-06
1.37328e-06
1.37682e-06
1.37767e-06
1.37705e-06
1.37328e-06
1.37328e-06
1.37328e-06
1.37328e-06
1.37328e-06
1.37328e-06
1.37789e-06
1.37984e-06
1.37966e-06
1.37697e-06
1.37328e-06
1.37328e-06
1.37328e-06
1.37328e-06
1.37328e-06
1.37328e-06
1.37804e-06
1.3796e-06
1.37949e-06
1.37684e-06
1.37328e-06
1.37328e-06
1.37328e-06
1.37328e-06
1.37328e-06
1.37328e-06
1.37803e-06
1.37781e-06
1.37706e-06
1.37328e-06
1.37328e-06
1.37328e-06
1.37328e-06
1.37328e-06
1.37328e-06
1.37798e-06
1.37993e-06
1.37931e-06
1.37682e-06
1.37328e-06
1.37328e-06
1.37328e-06
1.37328e-06
1.37783e-06
1.37787e-06
1.37983e-06
1.37954e-06
1.37767e-06
1.37788e-06
1.37803e-06
1.37803e-06
1.37797e-06
1.37787e-06
1.37978e-06
1.37984e-06
1.3796e-06
1.37781e-06
1.37993e-06
1.37983e-06
1.36035e-06
1.36018e-06
1.35999e-06
1.35774e-06
1.35766e-06
1.35752e-06
1.35775e-06
1.35999e-06
1.36022e-06
1.35999e-06
1.35691e-06
1.35397e-06
1.35397e-06
1.35397e-06
1.35397e-06
1.3575e-06
1.35835e-06
1.35774e-06
1.35397e-06
1.35397e-06
1.35397e-06
1.35397e-06
1.35397e-06
1.35397e-06
1.35857e-06
1.36053e-06
1.36035e-06
1.35766e-06
1.35397e-06
1.35397e-06
1.35397e-06
1.35397e-06
1.35397e-06
1.35397e-06
1.35872e-06
1.36029e-06
1.36018e-06
1.35752e-06
1.35397e-06
1.35397e-06
1.35397e-06
1.35397e-06
1.35397e-06
1.35397e-06
1.35872e-06
1.3585e-06
1.35775e-06
1.35397e-06
1.35397e-06
1.35397e-06
1.35397e-06
1.35397e-06
1.35397e-06
1.35866e-06
1.36062e-06
1.36e-06
1.3575e-06
1.35397e-06
1.35397e-06
1.35397e-06
1.35397e-06
1.35852e-06
1.35856e-06
1.36052e-06
1.36022e-06
1.35835e-06
1.35857e-06
1.35872e-06
1.35872e-06
1.35866e-06
1.35856e-06
1.36047e-06
1.36053e-06
1.36029e-06
1.3585e-06
1.36062e-06
1.36052e-06
1.34103e-06
1.34087e-06
1.34067e-06
1.33843e-06
1.33834e-06
1.33821e-06
1.33844e-06
1.34068e-06
1.34091e-06
1.34067e-06
1.3376e-06
1.33466e-06
1.33466e-06
1.33466e-06
1.33466e-06
1.33819e-06
1.33904e-06
1.33843e-06
1.33466e-06
1.33466e-06
1.33466e-06
1.33466e-06
1.33466e-06
1.33466e-06
1.33926e-06
1.34122e-06
1.34104e-06
1.33834e-06
1.33466e-06
1.33466e-06
1.33466e-06
1.33466e-06
1.33466e-06
1.33466e-06
1.33941e-06
1.34098e-06
1.34087e-06
1.33821e-06
1.33466e-06
1.33466e-06
1.33466e-06
1.33466e-06
1.33466e-06
1.33466e-06
1.33941e-06
1.33919e-06
1.33844e-06
1.33466e-06
1.33466e-06
1.33466e-06
1.33466e-06
1.33466e-06
1.33466e-06
1.33935e-06
1.34131e-06
1.34068e-06
1.33819e-06
1.33466e-06
1.33466e-06
1.33466e-06
1.33466e-06
1.33921e-06
1.33925e-06
1.3412e-06
1.34091e-06
1.33904e-06
1.33926e-06
1.33941e-06
1.33941e-06
1.33935e-06
1.33925e-06
1.34116e-06
1.34122e-06
1.34098e-06
1.33919e-06
1.34131e-06
1.34121e-06
1.32172e-06
1.32155e-06
1.32136e-06
1.31912e-06
1.31903e-06
1.3189e-06
1.31913e-06
1.32137e-06
1.32159e-06
1.32136e-06
1.31829e-06
1.31534e-06
1.31534e-06
1.31534e-06
1.31534e-06
1.31888e-06
1.31973e-06
1.31912e-06
1.31534e-06
1.31534e-06
1.31534e-06
1.31534e-06
1.31534e-06
1.31534e-06
1.31995e-06
1.32191e-06
1.32173e-06
1.31903e-06
1.31534e-06
1.31534e-06
1.31534e-06
1.31534e-06
1.31534e-06
1.31534e-06
1.3201e-06
1.32167e-06
1.32155e-06
1.3189e-06
1.31534e-06
1.31534e-06
1.31534e-06
1.31534e-06
1.31534e-06
1.31534e-06
1.32009e-06
1.31988e-06
1.31913e-06
1.31534e-06
1.31534e-06
1.31534e-06
1.31534e-06
1.31534e-06
1.31534e-06
1.32004e-06
1.322e-06
1.32137e-06
1.31888e-06
1.31534e-06
1.31534e-06
1.31534e-06
1.31534e-06
1.3199e-06
1.31994e-06
1.32189e-06
1.3216e-06
1.31973e-06
1.31995e-06
1.3201e-06
1.32009e-06
1.32004e-06
1.31994e-06
1.32185e-06
1.32191e-06
1.32167e-06
1.31988e-06
1.322e-06
1.32189e-06
1.30241e-06
1.30224e-06
1.30205e-06
1.2998e-06
1.29972e-06
1.29959e-06
1.29982e-06
1.30206e-06
1.30228e-06
1.30205e-06
1.29898e-06
1.29603e-06
1.29603e-06
1.29603e-06
1.29603e-06
1.29957e-06
1.30042e-06
1.2998e-06
1.29603e-06
1.29603e-06
1.29603e-06
1.29603e-06
1.29603e-06
1.29603e-06
1.30064e-06
1.30259e-06
1.30241e-06
1.29972e-06
1.29603e-06
1.29603e-06
1.29603e-06
1.29603e-06
1.29603e-06
1.29603e-06
1.30079e-06
1.30235e-06
1.30224e-06
1.29959e-06
1.29603e-06
1.29603e-06
1.29603e-06
1.29603e-06
1.29603e-06
1.29603e-06
1.30078e-06
1.30056e-06
1.29982e-06
1.29603e-06
1.29603e-06
1.29603e-06
1.29603e-06
1.29603e-06
1.29603e-06
1.30073e-06
1.30269e-06
1.30206e-06
1.29957e-06
1.29603e-06
1.29603e-06
1.29603e-06
1.29603e-06
1.30058e-06
1.30062e-06
1.30258e-06
1.30229e-06
1.30042e-06
1.30064e-06
1.30079e-06
1.30078e-06
1.30072e-06
1.30062e-06
1.30254e-06
1.30259e-06
1.30235e-06
1.30056e-06
1.30269e-06
1.30258e-06
1.2831e-06
1.28293e-06
1.28274e-06
1.28049e-06
1.2804e-06
1.28027e-06
1.2805e-06
1.28274e-06
1.28297e-06
1.28274e-06
1.27966e-06
1.27672e-06
1.27672e-06
1.27672e-06
1.27672e-06
1.28025e-06
1.2811e-06
1.28049e-06
1.27672e-06
1.27672e-06
1.27672e-06
1.27672e-06
1.27672e-06
1.27672e-06
1.28132e-06
1.28328e-06
1.2831e-06
1.2804e-06
1.27672e-06
1.27672e-06
1.27672e-06
1.27672e-06
1.27672e-06
1.27672e-06
1.28147e-06
1.28304e-06
1.28293e-06
1.28027e-06
1.27672e-06
1.27672e-06
1.27672e-06
1.27672e-06
1.27672e-06
1.27672e-06
1.28147e-06
1.28125e-06
1.2805e-06
1.27672e-06
1.27672e-06
1.27672e-06
1.27672e-06
1.27672e-06
1.27672e-06
1.28141e-06
1.28337e-06
1.28275e-06
1.28025e-06
1.27672e-06
1.27672e-06
1.27672e-06
1.27672e-06
1.28127e-06
1.28131e-06
1.28327e-06
1.28297e-06
1.2811e-06
1.28132e-06
1.28147e-06
1.28147e-06
1.28141e-06
1.28131e-06
1.28322e-06
1.28328e-06
1.28304e-06
1.28125e-06
1.28337e-06
1.28327e-06
1.26378e-06
1.26361e-06
1.26342e-06
1.26118e-06
1.26109e-06
1.26096e-06
1.26119e-06
1.26343e-06
1.26365e-06
1.26342e-06
1.26035e-06
1.2574e-06
1.2574e-06
1.2574e-06
1.2574e-06
1.26094e-06
1.26179e-06
1.26118e-06
1.2574e-06
1.2574e-06
1.2574e-06
1.2574e-06
1.2574e-06
1.2574e-06
1.26201e-06
1.26397e-06
1.26379e-06
1.26109e-06
1.2574e-06
1.2574e-06
1.2574e-06
1.2574e-06
1.2574e-06
1.2574e-06
1.26216e-06
1.26373e-06
1.26361e-06
1.26096e-06
1.2574e-06
1.2574e-06
1.2574e-06
1.2574e-06
1.2574e-06
1.2574e-06
1.26215e-06
1.26194e-06
1.26119e-06
1.2574e-06
1.2574e-06
1.2574e-06
1.2574e-06
1.2574e-06
1.2574e-06
1.2621e-06
1.26406e-06
1.26343e-06
1.26094e-06
1.2574e-06
1.2574e-06
1.2574e-06
1.2574e-06
1.26196e-06
1.262e-06
1.26395e-06
1.26366e-06
1.26179e-06