/*--------------------------------*- C++ -*----------------------------------*\
| =========                 |                                                 |
| \\      /  F ield         | OpenFOAM: The Open Source CFD Toolbox           |
|  \\    /   O peration     | Version:  v2012                                 |
|   \\  /    A nd           | Website:  www.openfoam.com                      |
|    \\/     M anipulation  |                                                 |
\*---------------------------------------------------------------------------*/
FoamFile
{
    version     2.0;
    format      ascii;
    class       volScalarField;
    location    "0.01";
    object      p;
}
// * * * * * * * * * * * * * * * * * * * * * * * * * * * * * * * * * * * * * //

dimensions      [0 2 -2 0 0 0 0];


internalField   nonuniform List<scalar> 
247104
(
2.30043e-06
2.2401e-06
2.24536e-06
2.26808e-06
2.28268e-06
2.26471e-06
2.24408e-06
2.23992e-06
2.23994e-06
2.24288e-06
2.25044e-06
2.26138e-06
2.26679e-06
2.26005e-06
2.24925e-06
2.2422e-06
2.24534e-06
2.25041e-06
2.25397e-06
2.25786e-06
2.25962e-06
2.25741e-06
2.25349e-06
2.24993e-06
2.24438e-06
2.26824e-06
2.26139e-06
2.25787e-06
2.25719e-06
2.25728e-06
2.25717e-06
2.2581e-06
2.26207e-06
2.26921e-06
2.30088e-06
2.28292e-06
2.26685e-06
2.25964e-06
2.25729e-06
2.25688e-06
2.25742e-06
2.26017e-06
2.26827e-06
2.2856e-06
2.26487e-06
2.26007e-06
2.25742e-06
2.25718e-06
2.25742e-06
2.25712e-06
2.25757e-06
2.26057e-06
2.26542e-06
2.2441e-06
2.24925e-06
2.2535e-06
2.25811e-06
2.26018e-06
2.25757e-06
2.2529e-06
2.24866e-06
2.24325e-06
2.23986e-06
2.24221e-06
2.24995e-06
2.26208e-06
2.26828e-06
2.26057e-06
2.24866e-06
2.24152e-06
2.2444e-06
2.2692e-06
2.28559e-06
2.26541e-06
2.24325e-06
2.20064e-06
2.25752e-06
2.13748e-06
2.188e-06
2.19526e-06
2.20832e-06
2.18627e-06
2.15704e-06
2.13403e-06
2.13738e-06
2.16975e-06
2.17697e-06
2.18098e-06
2.18094e-06
2.17686e-06
2.17187e-06
2.16774e-06
2.188e-06
2.17702e-06
2.17985e-06
2.18182e-06
2.18179e-06
2.17975e-06
2.17687e-06
2.1813e-06
2.16959e-06
2.20052e-06
2.19527e-06
2.18105e-06
2.18186e-06
2.18284e-06
2.18281e-06
2.18176e-06
2.1809e-06
2.19303e-06
2.19341e-06
2.25744e-06
2.20837e-06
2.18103e-06
2.18185e-06
2.18284e-06
2.18281e-06
2.18175e-06
2.18088e-06
2.19944e-06
2.21763e-06
2.18637e-06
2.17698e-06
2.17983e-06
2.18182e-06
2.18179e-06
2.17974e-06
2.17682e-06
2.1862e-06
2.16886e-06
2.15724e-06
2.17205e-06
2.17697e-06
2.18098e-06
2.18094e-06
2.17687e-06
2.17454e-06
2.16748e-06
2.15657e-06
2.13506e-06
2.16822e-06
2.18138e-06
2.1931e-06
2.19951e-06
2.18623e-06
2.1675e-06
2.18082e-06
2.16963e-06
2.19349e-06
2.21775e-06
2.1689e-06
2.15662e-06
2.16544e-06
2.15986e-06
2.1553e-06
2.16183e-06
2.16312e-06
2.16393e-06
2.16286e-06
2.16314e-06
2.15693e-06
2.15571e-06
2.15998e-06
2.16334e-06
2.15874e-06
2.15891e-06
2.16414e-06
2.16338e-06
2.16165e-06
2.16224e-06
2.16456e-06
2.16173e-06
2.15986e-06
2.15982e-06
2.16148e-06
2.16316e-06
2.16531e-06
2.16457e-06
2.16613e-06
2.16347e-06
2.15932e-06
2.16005e-06
2.15968e-06
2.15958e-06
2.15967e-06
2.15848e-06
2.16427e-06
2.1675e-06
2.16015e-06
2.16419e-06
2.15928e-06
2.16005e-06
2.15969e-06
2.15959e-06
2.15968e-06
2.15847e-06
2.16395e-06
2.16613e-06
2.16314e-06
2.1645e-06
2.16174e-06
2.15989e-06
2.15987e-06
2.16153e-06
2.16312e-06
2.16507e-06
2.16804e-06
2.16335e-06
2.16359e-06
2.16344e-06
2.15881e-06
2.159e-06
2.16432e-06
2.16463e-06
2.16307e-06
2.1619e-06
2.15683e-06
2.1619e-06
2.16549e-06
2.1645e-06
2.16426e-06
2.16553e-06
2.16311e-06
2.17986e-06
2.16471e-06
2.16771e-06
2.16616e-06
2.16843e-06
2.16201e-06
2.13749e-06
2.13061e-06
2.1293e-06
2.13216e-06
2.13414e-06
2.13528e-06
2.13395e-06
2.13587e-06
2.13157e-06
2.12953e-06
2.13009e-06
2.12758e-06
2.12779e-06
2.12779e-06
2.12757e-06
2.13721e-06
2.13473e-06
2.1323e-06
2.12768e-06
2.1282e-06
2.12841e-06
2.1284e-06
2.12816e-06
2.12757e-06
2.14048e-06
2.13605e-06
2.13767e-06
2.13423e-06
2.12786e-06
2.12845e-06
2.12869e-06
2.12867e-06
2.12839e-06
2.12778e-06
2.13823e-06
2.13886e-06
2.13074e-06
2.13537e-06
2.12786e-06
2.12846e-06
2.12871e-06
2.12869e-06
2.12841e-06
2.12778e-06
2.13736e-06
2.13853e-06
2.13397e-06
2.1277e-06
2.12825e-06
2.12846e-06
2.12846e-06
2.12822e-06
2.12758e-06
2.13933e-06
2.13937e-06
2.13573e-06
2.13725e-06
2.12769e-06
2.12788e-06
2.12789e-06
2.12773e-06
2.13873e-06
2.13795e-06
2.13439e-06
2.13166e-06
2.13445e-06
2.14046e-06
2.13829e-06
2.13745e-06
2.13949e-06
2.13802e-06
2.14966e-06
2.13611e-06
2.13898e-06
2.13826e-06
2.13947e-06
2.13449e-06
2.11395e-06
2.1065e-06
2.11088e-06
2.10929e-06
2.11152e-06
2.11272e-06
2.11177e-06
2.11521e-06
2.11357e-06
2.11069e-06
2.10905e-06
2.10685e-06
2.10677e-06
2.10677e-06
2.10689e-06
2.12101e-06
2.11537e-06
2.10942e-06
2.10685e-06
2.10681e-06
2.10679e-06
2.10679e-06
2.10682e-06
2.10688e-06
2.12317e-06
2.11433e-06
2.11374e-06
2.11141e-06
2.10675e-06
2.10678e-06
2.10678e-06
2.10678e-06
2.10677e-06
2.10674e-06
2.11958e-06
2.11579e-06
2.1064e-06
2.11254e-06
2.10675e-06
2.10677e-06
2.10678e-06
2.10677e-06
2.10676e-06
2.10671e-06
2.1179e-06
2.11516e-06
2.1117e-06
2.10686e-06
2.10679e-06
2.10677e-06
2.10676e-06
2.10678e-06
2.10679e-06
2.12136e-06
2.11647e-06
2.11522e-06
2.12083e-06
2.10679e-06
2.10673e-06
2.10673e-06
2.10683e-06
2.12463e-06
2.12048e-06
2.11345e-06
2.11406e-06
2.11481e-06
2.12298e-06
2.11964e-06
2.11785e-06
2.12145e-06
2.12e-06
2.1317e-06
2.11422e-06
2.11568e-06
2.11484e-06
2.11663e-06
2.11375e-06
2.09066e-06
2.0832e-06
2.08768e-06
2.08564e-06
2.08866e-06
2.09009e-06
2.0888e-06
2.09201e-06
2.0908e-06
2.08767e-06
2.08582e-06
2.08502e-06
2.08502e-06
2.08504e-06
2.085e-06
2.09986e-06
2.09202e-06
2.0855e-06
2.08503e-06
2.08502e-06
2.08501e-06
2.08501e-06
2.08499e-06
2.08497e-06
2.10157e-06
2.09094e-06
2.09062e-06
2.08878e-06
2.08505e-06
2.08502e-06
2.08501e-06
2.085e-06
2.085e-06
2.085e-06
2.09843e-06
2.09267e-06
2.08335e-06
2.09013e-06
2.08505e-06
2.08502e-06
2.08501e-06
2.08501e-06
2.08501e-06
2.08503e-06
2.09683e-06
2.09218e-06
2.08863e-06
2.08499e-06
2.08501e-06
2.08501e-06
2.08502e-06
2.08503e-06
2.08506e-06
2.10037e-06
2.09336e-06
2.09227e-06
2.09982e-06
2.08501e-06
2.08503e-06
2.08506e-06
2.08504e-06
2.10538e-06
2.09889e-06
2.09028e-06
2.09082e-06
2.09225e-06
2.10199e-06
2.0984e-06
2.09698e-06
2.10001e-06
2.09829e-06
2.10851e-06
2.09093e-06
2.09262e-06
2.09204e-06
2.09344e-06
2.09033e-06
2.06823e-06
2.06081e-06
2.06543e-06
2.06308e-06
2.06632e-06
2.06791e-06
2.06659e-06
2.06954e-06
2.0682e-06
2.06538e-06
2.06311e-06
2.06304e-06
2.06305e-06
2.06306e-06
2.06302e-06
2.07814e-06
2.06955e-06
2.06328e-06
2.06305e-06
2.06304e-06
2.06304e-06
2.06303e-06
2.06303e-06
2.06304e-06
2.07989e-06
2.06841e-06
2.06815e-06
2.06632e-06
2.06305e-06
2.06303e-06
2.06303e-06
2.06302e-06
2.06302e-06
2.06302e-06
2.07649e-06
2.07022e-06
2.06093e-06
2.06789e-06
2.06304e-06
2.06303e-06
2.06302e-06
2.06302e-06
2.06301e-06
2.06302e-06
2.07503e-06
2.06976e-06
2.06673e-06
2.063e-06
2.06301e-06
2.06302e-06
2.06302e-06
2.06301e-06
2.063e-06
2.07876e-06
2.07103e-06
2.06951e-06
2.07835e-06
2.06301e-06
2.06302e-06
2.06303e-06
2.063e-06
2.08414e-06
2.07652e-06
2.06783e-06
2.06837e-06
2.06972e-06
2.07988e-06
2.07667e-06
2.07509e-06
2.07852e-06
2.07614e-06
2.08621e-06
2.0684e-06
2.07024e-06
2.06968e-06
2.07103e-06
2.06783e-06
2.04607e-06
2.03863e-06
2.04328e-06
2.04087e-06
2.04415e-06
2.04573e-06
2.04455e-06
2.04753e-06
2.04628e-06
2.04305e-06
2.04083e-06
2.04094e-06
2.04094e-06
2.04093e-06
2.04094e-06
2.05627e-06
2.04756e-06
2.04106e-06
2.04095e-06
2.04094e-06
2.04094e-06
2.04093e-06
2.04094e-06
2.04094e-06
2.05786e-06
2.04627e-06
2.04597e-06
2.04415e-06
2.04094e-06
2.04094e-06
2.04093e-06
2.04093e-06
2.04093e-06
2.04093e-06
2.05462e-06
2.04812e-06
2.03875e-06
2.04574e-06
2.04095e-06
2.04094e-06
2.04093e-06
2.04093e-06
2.04093e-06
2.04093e-06
2.05299e-06
2.04766e-06
2.04458e-06
2.04093e-06
2.04093e-06
2.04093e-06
2.04093e-06
2.04094e-06
2.04093e-06
2.05678e-06
2.04891e-06
2.04737e-06
2.05612e-06
2.04094e-06
2.04093e-06
2.04093e-06
2.04095e-06
2.06222e-06
2.05436e-06
2.04573e-06
2.04626e-06
2.04766e-06
2.058e-06
2.0547e-06
2.05308e-06
2.05643e-06
2.05423e-06
2.06398e-06
2.04624e-06
2.04807e-06
2.04751e-06
2.04887e-06
2.0457e-06
2.02389e-06
2.01645e-06
2.02113e-06
2.01887e-06
2.02202e-06
2.02356e-06
2.02252e-06
2.02512e-06
2.02401e-06
2.02089e-06
2.01868e-06
2.01882e-06
2.01882e-06
2.01882e-06
2.01881e-06
2.03409e-06
2.02537e-06
2.01895e-06
2.0188e-06
2.01881e-06
2.01881e-06
2.01882e-06
2.01882e-06
2.01882e-06
2.0357e-06
2.0241e-06
2.02378e-06
2.02198e-06
2.01881e-06
2.01882e-06
2.01882e-06
2.01882e-06
2.01882e-06
2.01882e-06
2.03255e-06
2.02595e-06
2.01654e-06
2.02346e-06
2.01881e-06
2.01881e-06
2.01882e-06
2.01882e-06
2.01881e-06
2.01881e-06
2.03088e-06
2.02543e-06
2.02243e-06
2.01882e-06
2.01881e-06
2.01882e-06
2.01882e-06
2.01881e-06
2.01881e-06
2.03475e-06
2.02667e-06
2.02521e-06
2.03401e-06
2.0188e-06
2.0188e-06
2.0188e-06
2.0188e-06
2.04028e-06
2.03252e-06
2.02349e-06
2.0241e-06
2.02552e-06
2.03602e-06
2.03263e-06
2.03101e-06
2.0346e-06
2.03182e-06
2.0418e-06
2.02403e-06
2.02592e-06
2.02539e-06
2.02676e-06
2.02343e-06
2.00174e-06
1.99431e-06
1.999e-06
1.99672e-06
1.99989e-06
2.00144e-06
2.0004e-06
2.00297e-06
2.00183e-06
1.99877e-06
1.99653e-06
1.99669e-06
1.9967e-06
1.99671e-06
1.99669e-06
2.01196e-06
2.00326e-06
1.99682e-06
1.9967e-06
1.9967e-06
1.9967e-06
1.9967e-06
1.99669e-06
1.99669e-06
2.01361e-06
2.00196e-06
2.00164e-06
1.99985e-06
1.9967e-06
1.9967e-06
1.9967e-06
1.9967e-06
1.99669e-06
1.99669e-06
2.0104e-06
2.0038e-06
1.99439e-06
2.00133e-06
1.9967e-06
1.9967e-06
1.9967e-06
1.9967e-06
1.99669e-06
1.99669e-06
2.0087e-06
2.00328e-06
2.00031e-06
1.99669e-06
1.9967e-06
1.9967e-06
1.99669e-06
1.99669e-06
1.99669e-06
2.01267e-06
2.00453e-06
2.00307e-06
2.01186e-06
1.9967e-06
1.9967e-06
1.99669e-06
1.99669e-06
2.0181e-06
2.01038e-06
2.00135e-06
2.00198e-06
2.00342e-06
2.01375e-06
2.01054e-06
2.00892e-06
2.01248e-06
2.00965e-06
2.01964e-06
2.00192e-06
2.0038e-06
2.00324e-06
2.00461e-06
2.00127e-06
1.97968e-06
1.97222e-06
1.97673e-06
1.97462e-06
1.9778e-06
1.97931e-06
1.97806e-06
1.98105e-06
1.97971e-06
1.97668e-06
1.97444e-06
1.97461e-06
1.9746e-06
1.9746e-06
1.9746e-06
1.98991e-06
1.98119e-06
1.97475e-06
1.9746e-06
1.9746e-06
1.9746e-06
1.9746e-06
1.9746e-06
1.9746e-06
1.99153e-06
1.9799e-06
1.97957e-06
1.97778e-06
1.9746e-06
1.9746e-06
1.9746e-06
1.9746e-06
1.9746e-06
1.9746e-06
1.98832e-06
1.98174e-06
1.97233e-06
1.97926e-06
1.9746e-06
1.9746e-06
1.9746e-06
1.9746e-06
1.9746e-06
1.9746e-06
1.98662e-06
1.98121e-06
1.97824e-06
1.97461e-06
1.9746e-06
1.9746e-06
1.9746e-06
1.9746e-06
1.9746e-06
1.99058e-06
1.98245e-06
1.98101e-06
1.9898e-06
1.97461e-06
1.9746e-06
1.9746e-06
1.9746e-06
1.99602e-06
1.98829e-06
1.97927e-06
1.9799e-06
1.98133e-06
1.99167e-06
1.98846e-06
1.98686e-06
1.99046e-06
1.98757e-06
1.99756e-06
1.97985e-06
1.98173e-06
1.98115e-06
1.9825e-06
1.97919e-06
1.95755e-06
1.95008e-06
1.9547e-06
1.9525e-06
1.95567e-06
1.95716e-06
1.95588e-06
1.95885e-06
1.95784e-06
1.95455e-06
1.95231e-06
1.95248e-06
1.95248e-06
1.95249e-06
1.95248e-06
1.96776e-06
1.95905e-06
1.95261e-06
1.95248e-06
1.95248e-06
1.95248e-06
1.95248e-06
1.95248e-06
1.95247e-06
1.96939e-06
1.95775e-06
1.95743e-06
1.95564e-06
1.95248e-06
1.95248e-06
1.95248e-06
1.95248e-06
1.95248e-06
1.95248e-06
1.96618e-06
1.95959e-06
1.95018e-06
1.95712e-06
1.95248e-06
1.95248e-06
1.95248e-06
1.95248e-06
1.95248e-06
1.95248e-06
1.96449e-06
1.95907e-06
1.9561e-06
1.95248e-06
1.95248e-06
1.95248e-06
1.95248e-06
1.95248e-06
1.95248e-06
1.96846e-06
1.96033e-06
1.95886e-06
1.96766e-06
1.95248e-06
1.95248e-06
1.95248e-06
1.95248e-06
1.9739e-06
1.96617e-06
1.95715e-06
1.95776e-06
1.95919e-06
1.96953e-06
1.96633e-06
1.96472e-06
1.96834e-06
1.96545e-06
1.97544e-06
1.95771e-06
1.95958e-06
1.95901e-06
1.96037e-06
1.95706e-06
1.93545e-06
1.92798e-06
1.93281e-06
1.9304e-06
1.93358e-06
1.93508e-06
1.9338e-06
1.93677e-06
1.93574e-06
1.93242e-06
1.93022e-06
1.9304e-06
1.9304e-06
1.9304e-06
1.9304e-06
1.9457e-06
1.93696e-06
1.93051e-06
1.9304e-06
1.9304e-06
1.9304e-06
1.9304e-06
1.9304e-06
1.9304e-06
1.94731e-06
1.93565e-06
1.93533e-06
1.93354e-06
1.9304e-06
1.9304e-06
1.9304e-06
1.9304e-06
1.9304e-06
1.9304e-06
1.94409e-06
1.93749e-06
1.92809e-06
1.93503e-06
1.9304e-06
1.9304e-06
1.9304e-06
1.9304e-06
1.9304e-06
1.9304e-06
1.9424e-06
1.93698e-06
1.93402e-06
1.9304e-06
1.9304e-06
1.9304e-06
1.9304e-06
1.9304e-06
1.9304e-06
1.94637e-06
1.93823e-06
1.93677e-06
1.94558e-06
1.9304e-06
1.9304e-06
1.9304e-06
1.9304e-06
1.95182e-06
1.94408e-06
1.93505e-06
1.93567e-06
1.93711e-06
1.94744e-06
1.94423e-06
1.94261e-06
1.94625e-06
1.94336e-06
1.95334e-06
1.93561e-06
1.93749e-06
1.93694e-06
1.93828e-06
1.93497e-06
1.91338e-06
1.90592e-06
1.91071e-06
1.90834e-06
1.91153e-06
1.91302e-06
1.91175e-06
1.91474e-06
1.91372e-06
1.91039e-06
1.90816e-06
1.90834e-06
1.90834e-06
1.90834e-06
1.90834e-06
1.92366e-06
1.91493e-06
1.90846e-06
1.90834e-06
1.90834e-06
1.90834e-06
1.90834e-06
1.90834e-06
1.90834e-06
1.92527e-06
1.91362e-06
1.91325e-06
1.91149e-06
1.90834e-06
1.90834e-06
1.90834e-06
1.90834e-06
1.90834e-06
1.90834e-06
1.92205e-06
1.91546e-06
1.90603e-06
1.91297e-06
1.90834e-06
1.90834e-06
1.90834e-06
1.90834e-06
1.90834e-06
1.90834e-06
1.92036e-06
1.91494e-06
1.91197e-06
1.90834e-06
1.90834e-06
1.90834e-06
1.90834e-06
1.90834e-06
1.90834e-06
1.9243e-06
1.91618e-06
1.91473e-06
1.92353e-06
1.90834e-06
1.90834e-06
1.90834e-06
1.90834e-06
1.92976e-06
1.92203e-06
1.913e-06
1.91363e-06
1.91506e-06
1.9254e-06
1.92218e-06
1.92055e-06
1.9242e-06
1.92131e-06
1.9313e-06
1.91357e-06
1.91545e-06
1.91489e-06
1.91624e-06
1.91292e-06
1.8913e-06
1.88384e-06
1.88862e-06
1.88626e-06
1.88944e-06
1.89093e-06
1.88965e-06
1.89265e-06
1.89163e-06
1.8883e-06
1.88607e-06
1.88625e-06
1.88624e-06
1.88624e-06
1.88624e-06
1.90156e-06
1.89283e-06
1.88637e-06
1.88624e-06
1.88624e-06
1.88624e-06
1.88624e-06
1.88624e-06
1.88624e-06
1.90317e-06
1.89153e-06
1.89117e-06
1.88939e-06
1.88624e-06
1.88624e-06
1.88624e-06
1.88624e-06
1.88624e-06
1.88624e-06
1.89995e-06
1.89337e-06
1.88395e-06
1.89088e-06
1.88624e-06
1.88624e-06
1.88624e-06
1.88624e-06
1.88624e-06
1.88624e-06
1.89827e-06
1.89284e-06
1.88987e-06
1.88624e-06
1.88624e-06
1.88624e-06
1.88624e-06
1.88624e-06
1.88624e-06
1.9022e-06
1.8941e-06
1.89264e-06
1.90143e-06
1.88624e-06
1.88624e-06
1.88624e-06
1.88624e-06
1.90766e-06
1.89993e-06
1.89092e-06
1.89153e-06
1.89296e-06
1.9033e-06
1.90008e-06
1.89846e-06
1.9021e-06
1.89921e-06
1.9092e-06
1.89148e-06
1.89336e-06
1.8928e-06
1.89415e-06
1.89084e-06
1.86917e-06
1.8617e-06
1.86652e-06
1.8642e-06
1.86733e-06
1.86881e-06
1.86754e-06
1.87052e-06
1.86952e-06
1.86621e-06
1.86399e-06
1.86415e-06
1.86415e-06
1.86414e-06
1.86415e-06
1.87948e-06
1.87074e-06
1.86427e-06
1.86415e-06
1.86415e-06
1.86415e-06
1.86415e-06
1.86415e-06
1.86415e-06
1.88107e-06
1.86942e-06
1.86905e-06
1.86728e-06
1.86415e-06
1.86415e-06
1.86415e-06
1.86415e-06
1.86415e-06
1.86415e-06
1.87785e-06
1.87125e-06
1.86182e-06
1.86877e-06
1.86415e-06
1.86415e-06
1.86415e-06
1.86415e-06
1.86415e-06
1.86415e-06
1.87616e-06
1.87073e-06
1.86777e-06
1.86415e-06
1.86415e-06
1.86415e-06
1.86415e-06
1.86415e-06
1.86415e-06
1.8801e-06
1.87199e-06
1.87054e-06
1.87934e-06
1.86415e-06
1.86414e-06
1.86414e-06
1.86415e-06
1.88557e-06
1.87784e-06
1.86882e-06
1.86944e-06
1.87088e-06
1.8812e-06
1.87798e-06
1.87636e-06
1.88001e-06
1.87712e-06
1.88712e-06
1.86938e-06
1.87124e-06
1.87069e-06
1.87204e-06
1.86874e-06
1.8471e-06
1.83964e-06
1.84444e-06
1.84208e-06
1.84524e-06
1.84673e-06
1.84546e-06
1.84848e-06
1.84742e-06
1.84409e-06
1.84189e-06
1.84204e-06
1.84205e-06
1.84205e-06
1.84205e-06
1.85737e-06
1.84862e-06
1.84217e-06
1.84205e-06
1.84205e-06
1.84205e-06
1.84205e-06
1.84205e-06
1.84205e-06
1.85897e-06
1.84732e-06
1.84698e-06
1.8452e-06
1.84205e-06
1.84205e-06
1.84205e-06
1.84205e-06
1.84205e-06
1.84205e-06
1.85576e-06
1.84917e-06
1.83976e-06
1.84669e-06
1.84205e-06
1.84205e-06
1.84205e-06
1.84205e-06
1.84205e-06
1.84205e-06
1.85408e-06
1.84865e-06
1.84569e-06
1.84205e-06
1.84205e-06
1.84205e-06
1.84205e-06
1.84205e-06
1.84205e-06
1.85801e-06
1.8499e-06
1.84844e-06
1.85724e-06
1.84205e-06
1.84205e-06
1.84205e-06
1.84205e-06
1.86347e-06
1.85574e-06
1.84671e-06
1.84733e-06
1.84876e-06
1.8591e-06
1.85589e-06
1.85427e-06
1.85791e-06
1.85501e-06
1.865e-06
1.84728e-06
1.84916e-06
1.8486e-06
1.84995e-06
1.84663e-06
1.82502e-06
1.81755e-06
1.82237e-06
1.82001e-06
1.82317e-06
1.82465e-06
1.82338e-06
1.82638e-06
1.82531e-06
1.82203e-06
1.81981e-06
1.81996e-06
1.81996e-06
1.81996e-06
1.81994e-06
1.8352e-06
1.82652e-06
1.8201e-06
1.81996e-06
1.81996e-06
1.81996e-06
1.81996e-06
1.81996e-06
1.81996e-06
1.83688e-06
1.82523e-06
1.82489e-06
1.82312e-06
1.81997e-06
1.81996e-06
1.81996e-06
1.81996e-06
1.81996e-06
1.81997e-06
1.83367e-06
1.82708e-06
1.81767e-06
1.82461e-06
1.81997e-06
1.81997e-06
1.81997e-06
1.81997e-06
1.81997e-06
1.81997e-06
1.83199e-06
1.82656e-06
1.8236e-06
1.81997e-06
1.81997e-06
1.81997e-06
1.81997e-06
1.81997e-06
1.81997e-06
1.83593e-06
1.82782e-06
1.82636e-06
1.83516e-06
1.81997e-06
1.81997e-06
1.81997e-06
1.81997e-06
1.8414e-06
1.83367e-06
1.82464e-06
1.82525e-06
1.82669e-06
1.83702e-06
1.83381e-06
1.83219e-06
1.83583e-06
1.83295e-06
1.84294e-06
1.8252e-06
1.82708e-06
1.82652e-06
1.82787e-06
1.82456e-06
1.80292e-06
1.79545e-06
1.80027e-06
1.79792e-06
1.80108e-06
1.80254e-06
1.8013e-06
1.80431e-06
1.80323e-06
1.79992e-06
1.79772e-06
1.79787e-06
1.79787e-06
1.79787e-06
1.79787e-06
1.81308e-06
1.80442e-06
1.798e-06
1.79787e-06
1.79787e-06
1.79787e-06
1.79787e-06
1.79787e-06
1.79787e-06
1.81479e-06
1.80314e-06
1.80279e-06
1.80102e-06
1.79787e-06
1.79787e-06
1.79787e-06
1.79787e-06
1.79787e-06
1.79787e-06
1.81158e-06
1.80499e-06
1.79557e-06
1.80251e-06
1.79787e-06
1.79787e-06
1.79787e-06
1.79787e-06
1.79787e-06
1.79787e-06
1.8099e-06
1.80447e-06
1.8015e-06
1.79787e-06
1.79787e-06
1.79787e-06
1.79787e-06
1.79787e-06
1.79787e-06
1.81383e-06
1.80572e-06
1.80426e-06
1.81307e-06
1.79787e-06
1.79787e-06
1.79787e-06
1.79787e-06
1.8193e-06
1.81156e-06
1.80253e-06
1.80316e-06
1.8046e-06
1.81494e-06
1.81173e-06
1.81012e-06
1.81374e-06
1.81084e-06
1.82083e-06
1.80311e-06
1.805e-06
1.80458e-06
1.80579e-06
1.80245e-06
1.78083e-06
1.77336e-06
1.77815e-06
1.77586e-06
1.77898e-06
1.78044e-06
1.77919e-06
1.7822e-06
1.78112e-06
1.7778e-06
1.77556e-06
1.77576e-06
1.77576e-06
1.77576e-06
1.77575e-06
1.79096e-06
1.78231e-06
1.77589e-06
1.77576e-06
1.77576e-06
1.77576e-06
1.77576e-06
1.77576e-06
1.77576e-06
1.79268e-06
1.78103e-06
1.78069e-06
1.77892e-06
1.77576e-06
1.77576e-06
1.77576e-06
1.77576e-06
1.77576e-06
1.77576e-06
1.78947e-06
1.78288e-06
1.77347e-06
1.7804e-06
1.77576e-06
1.77576e-06
1.77576e-06
1.77576e-06
1.77576e-06
1.77576e-06
1.78779e-06
1.78236e-06
1.77939e-06
1.77576e-06
1.77576e-06
1.77576e-06
1.77576e-06
1.77576e-06
1.77576e-06
1.79172e-06
1.78361e-06
1.78215e-06
1.79095e-06
1.77576e-06
1.77576e-06
1.77576e-06
1.77576e-06
1.79718e-06
1.78945e-06
1.78042e-06
1.78104e-06
1.78247e-06
1.79282e-06
1.78961e-06
1.788e-06
1.79163e-06
1.78873e-06
1.79872e-06
1.78099e-06
1.78289e-06
1.78247e-06
1.78367e-06
1.78034e-06
1.75872e-06
1.75124e-06
1.75606e-06
1.75374e-06
1.75686e-06
1.75832e-06
1.75708e-06
1.76024e-06
1.759e-06
1.7557e-06
1.75345e-06
1.75363e-06
1.75363e-06
1.75364e-06
1.75365e-06
1.76886e-06
1.7602e-06
1.75377e-06
1.75363e-06
1.75363e-06
1.75363e-06
1.75364e-06
1.75364e-06
1.75364e-06
1.77056e-06
1.75893e-06
1.75858e-06
1.7568e-06
1.75363e-06
1.75363e-06
1.75363e-06
1.75363e-06
1.75363e-06
1.75363e-06
1.76735e-06
1.76077e-06
1.75135e-06
1.75828e-06
1.75363e-06
1.75363e-06
1.75363e-06
1.75363e-06
1.75363e-06
1.75363e-06
1.76567e-06
1.76024e-06
1.75727e-06
1.75363e-06
1.75363e-06
1.75363e-06
1.75363e-06
1.75363e-06
1.75363e-06
1.7696e-06
1.7615e-06
1.76004e-06
1.76882e-06
1.75363e-06
1.75363e-06
1.75363e-06
1.75363e-06
1.77506e-06
1.76734e-06
1.75832e-06
1.75893e-06
1.76037e-06
1.7707e-06
1.76749e-06
1.76588e-06
1.76951e-06
1.76661e-06
1.77661e-06
1.75888e-06
1.76077e-06
1.76035e-06
1.76156e-06
1.75824e-06
1.73656e-06
1.72909e-06
1.73389e-06
1.73158e-06
1.73471e-06
1.73618e-06
1.73499e-06
1.73815e-06
1.73686e-06
1.73353e-06
1.7313e-06
1.73149e-06
1.73149e-06
1.7315e-06
1.7315e-06
1.7467e-06
1.73805e-06
1.73161e-06
1.73149e-06
1.73149e-06
1.7315e-06
1.7315e-06
1.7315e-06
1.7315e-06
1.74842e-06
1.73678e-06
1.73641e-06
1.73464e-06
1.73149e-06
1.7315e-06
1.7315e-06
1.7315e-06
1.7315e-06
1.7315e-06
1.74521e-06
1.73862e-06
1.72919e-06
1.73613e-06
1.73149e-06
1.7315e-06
1.7315e-06
1.7315e-06
1.7315e-06
1.7315e-06
1.74352e-06
1.73809e-06
1.73512e-06
1.73149e-06
1.73149e-06
1.7315e-06
1.7315e-06
1.73149e-06
1.73149e-06
1.74745e-06
1.73934e-06
1.73789e-06
1.74668e-06
1.73149e-06
1.73149e-06
1.73149e-06
1.73149e-06
1.75292e-06
1.74518e-06
1.73615e-06
1.73678e-06
1.73823e-06
1.74855e-06
1.74534e-06
1.74373e-06
1.74735e-06
1.74446e-06
1.75445e-06
1.73673e-06
1.73861e-06
1.73816e-06
1.73939e-06
1.73607e-06
1.71443e-06
1.70698e-06
1.71178e-06
1.70934e-06
1.71259e-06
1.71407e-06
1.71288e-06
1.71615e-06
1.71475e-06
1.71144e-06
1.70921e-06
1.70939e-06
1.70939e-06
1.70939e-06
1.70939e-06
1.72459e-06
1.71594e-06
1.70953e-06
1.70939e-06
1.70939e-06
1.70939e-06
1.70939e-06
1.70939e-06
1.70939e-06
1.72631e-06
1.71467e-06
1.71432e-06
1.71255e-06
1.70939e-06
1.70939e-06
1.70939e-06
1.70939e-06
1.70939e-06
1.70939e-06
1.72311e-06
1.71651e-06
1.70709e-06
1.71403e-06
1.70939e-06
1.70939e-06
1.70939e-06
1.70939e-06
1.70939e-06
1.70939e-06
1.72142e-06
1.71599e-06
1.71302e-06
1.70939e-06
1.70939e-06
1.70939e-06
1.70939e-06
1.70939e-06
1.70939e-06
1.72536e-06
1.71724e-06
1.71578e-06
1.72458e-06
1.70939e-06
1.70939e-06
1.70939e-06
1.70939e-06
1.73082e-06
1.72309e-06
1.71406e-06
1.71467e-06
1.71612e-06
1.72645e-06
1.72323e-06
1.72162e-06
1.72525e-06
1.72236e-06
1.73235e-06
1.71461e-06
1.7165e-06
1.71605e-06
1.71728e-06
1.71396e-06
1.69233e-06
1.68488e-06
1.68969e-06
1.68724e-06
1.69048e-06
1.69197e-06
1.69078e-06
1.69402e-06
1.69265e-06
1.68934e-06
1.6871e-06
1.68728e-06
1.68728e-06
1.68728e-06
1.68728e-06
1.70248e-06
1.69385e-06
1.68741e-06
1.68728e-06
1.68728e-06
1.68728e-06
1.68728e-06
1.68728e-06
1.68728e-06
1.70421e-06
1.69257e-06
1.69221e-06
1.69043e-06
1.68728e-06
1.68728e-06
1.68728e-06
1.68728e-06
1.68728e-06
1.68728e-06
1.701e-06
1.69441e-06
1.68498e-06
1.69192e-06
1.68728e-06
1.68728e-06
1.68728e-06
1.68728e-06
1.68728e-06
1.68728e-06
1.69931e-06
1.69388e-06
1.69092e-06
1.68728e-06
1.68728e-06
1.68728e-06
1.68728e-06
1.68728e-06
1.68728e-06
1.70324e-06
1.69514e-06
1.69369e-06
1.70248e-06
1.68728e-06
1.68728e-06
1.68728e-06
1.68728e-06
1.70871e-06
1.70098e-06
1.69196e-06
1.69259e-06
1.69403e-06
1.70435e-06
1.70112e-06
1.6995e-06
1.70314e-06
1.70025e-06
1.71025e-06
1.69253e-06
1.6944e-06
1.69382e-06
1.69518e-06
1.69187e-06
1.67021e-06
1.66276e-06
1.66756e-06
1.66511e-06
1.66836e-06
1.66985e-06
1.66866e-06
1.67189e-06
1.67052e-06
1.66721e-06
1.66498e-06
1.66516e-06
1.66516e-06
1.66516e-06
1.66516e-06
1.68036e-06
1.67172e-06
1.66529e-06
1.66517e-06
1.66517e-06
1.66517e-06
1.66517e-06
1.66517e-06
1.66517e-06
1.68209e-06
1.67046e-06
1.67011e-06
1.66832e-06
1.66517e-06
1.66517e-06
1.66517e-06
1.66517e-06
1.66517e-06
1.66517e-06
1.67888e-06
1.6723e-06
1.66287e-06
1.66981e-06
1.66517e-06
1.66517e-06
1.66517e-06
1.66517e-06
1.66517e-06
1.66517e-06
1.6772e-06
1.67177e-06
1.6688e-06
1.66517e-06
1.66517e-06
1.66517e-06
1.66517e-06
1.66517e-06
1.66517e-06
1.68114e-06
1.67303e-06
1.67157e-06
1.68036e-06
1.66517e-06
1.66517e-06
1.66517e-06
1.66517e-06
1.6866e-06
1.67887e-06
1.66985e-06
1.67047e-06
1.67191e-06
1.68224e-06
1.67901e-06
1.67739e-06
1.68104e-06
1.67815e-06
1.68815e-06
1.67042e-06
1.67229e-06
1.67172e-06
1.67308e-06
1.66977e-06
1.64806e-06
1.64063e-06
1.64544e-06
1.64282e-06
1.64621e-06
1.64773e-06
1.64653e-06
1.64976e-06
1.6484e-06
1.64512e-06
1.64292e-06
1.64306e-06
1.64306e-06
1.64306e-06
1.64306e-06
1.65824e-06
1.6496e-06
1.64319e-06
1.64306e-06
1.64306e-06
1.64306e-06
1.64306e-06
1.64306e-06
1.64306e-06
1.65997e-06
1.64833e-06
1.64801e-06
1.64621e-06
1.64306e-06
1.64306e-06
1.64306e-06
1.64306e-06
1.64306e-06
1.64306e-06
1.65677e-06
1.65017e-06
1.64076e-06
1.6477e-06
1.64306e-06
1.64306e-06
1.64306e-06
1.64306e-06
1.64306e-06
1.64306e-06
1.65509e-06
1.64966e-06
1.64669e-06
1.64306e-06
1.64306e-06
1.64306e-06
1.64306e-06
1.64306e-06
1.64306e-06
1.65902e-06
1.65091e-06
1.64945e-06
1.65825e-06
1.64306e-06
1.64307e-06
1.64307e-06
1.64307e-06
1.66449e-06
1.65676e-06
1.64773e-06
1.64835e-06
1.64979e-06
1.66013e-06
1.65693e-06
1.65531e-06
1.65894e-06
1.65604e-06
1.66603e-06
1.6483e-06
1.65023e-06
1.64967e-06
1.65098e-06
1.64765e-06
1.62597e-06
1.61853e-06
1.62337e-06
1.6207e-06
1.62413e-06
1.62563e-06
1.62442e-06
1.62765e-06
1.6263e-06
1.623e-06
1.62081e-06
1.62096e-06
1.62096e-06
1.62096e-06
1.62096e-06
1.63614e-06
1.6275e-06
1.62108e-06
1.62096e-06
1.62097e-06
1.62097e-06
1.62097e-06
1.62097e-06
1.62097e-06
1.63788e-06
1.62623e-06
1.6259e-06
1.6241e-06
1.62096e-06
1.62097e-06
1.62097e-06
1.62097e-06
1.62097e-06
1.62097e-06
1.63467e-06
1.62807e-06
1.61865e-06
1.62559e-06
1.62097e-06
1.62097e-06
1.62097e-06
1.62097e-06
1.62097e-06
1.62097e-06
1.63299e-06
1.62755e-06
1.62459e-06
1.62097e-06
1.62097e-06
1.62097e-06
1.62097e-06
1.62097e-06
1.62096e-06
1.63692e-06
1.6288e-06
1.62735e-06
1.63615e-06
1.62097e-06
1.62097e-06
1.62097e-06
1.62096e-06
1.64239e-06
1.63465e-06
1.62561e-06
1.62625e-06
1.62769e-06
1.63802e-06
1.63482e-06
1.63319e-06
1.63682e-06
1.63392e-06
1.64391e-06
1.62619e-06
1.62811e-06
1.62753e-06
1.62885e-06
1.62553e-06
1.60392e-06
1.59647e-06
1.60132e-06
1.59867e-06
1.60207e-06
1.60359e-06
1.60239e-06
1.60561e-06
1.60424e-06
1.60095e-06
1.59876e-06
1.59892e-06
1.59892e-06
1.59892e-06
1.59892e-06
1.61412e-06
1.60546e-06
1.59904e-06
1.59892e-06
1.59892e-06
1.59893e-06
1.59893e-06
1.59893e-06
1.59892e-06
1.61583e-06
1.60417e-06
1.60384e-06
1.60206e-06
1.59892e-06
1.59893e-06
1.59893e-06
1.59893e-06
1.59893e-06
1.59893e-06
1.61262e-06
1.60601e-06
1.59659e-06
1.60354e-06
1.59893e-06
1.59893e-06
1.59893e-06
1.59893e-06
1.59893e-06
1.59893e-06
1.61094e-06
1.6055e-06
1.60254e-06
1.59893e-06
1.59893e-06
1.59893e-06
1.59893e-06
1.59893e-06
1.59893e-06
1.61488e-06
1.60675e-06
1.60529e-06
1.6141e-06
1.59892e-06
1.59893e-06
1.59893e-06
1.59893e-06
1.62035e-06
1.61261e-06
1.60357e-06
1.60418e-06
1.60564e-06
1.61597e-06
1.61277e-06
1.61114e-06
1.61478e-06
1.61188e-06
1.62187e-06
1.60413e-06
1.60605e-06
1.6055e-06
1.60679e-06
1.60348e-06
1.58191e-06
1.57447e-06
1.57929e-06
1.57666e-06
1.58004e-06
1.58158e-06
1.58038e-06
1.58362e-06
1.58223e-06
1.57893e-06
1.57674e-06
1.57689e-06
1.57689e-06
1.57689e-06
1.57689e-06
1.59209e-06
1.58344e-06
1.57702e-06
1.5769e-06
1.5769e-06
1.5769e-06
1.57689e-06
1.57689e-06
1.5769e-06
1.59381e-06
1.58216e-06
1.58183e-06
1.58004e-06
1.5769e-06
1.5769e-06
1.57689e-06
1.57689e-06
1.5769e-06
1.5769e-06
1.5906e-06
1.584e-06
1.57458e-06
1.58153e-06
1.5769e-06
1.5769e-06
1.5769e-06
1.5769e-06
1.5769e-06
1.5769e-06
1.58892e-06
1.58349e-06
1.58052e-06
1.5769e-06
1.5769e-06
1.5769e-06
1.5769e-06
1.5769e-06
1.5769e-06
1.59286e-06
1.58474e-06
1.58327e-06
1.59208e-06
1.5769e-06
1.5769e-06
1.5769e-06
1.5769e-06
1.59832e-06
1.59059e-06
1.58155e-06
1.58217e-06
1.58362e-06
1.59395e-06
1.59075e-06
1.58912e-06
1.59276e-06
1.58986e-06
1.59985e-06
1.58211e-06
1.58403e-06
1.58348e-06
1.58478e-06
1.58147e-06
1.55986e-06
1.55242e-06
1.55721e-06
1.55455e-06
1.558e-06
1.55952e-06
1.55831e-06
1.56154e-06
1.56019e-06
1.55689e-06
1.5547e-06
1.55485e-06
1.55485e-06
1.55485e-06
1.55485e-06
1.57013e-06
1.56143e-06
1.55497e-06
1.55485e-06
1.55485e-06
1.55485e-06
1.55485e-06
1.55485e-06
1.55485e-06
1.57178e-06
1.56013e-06
1.55978e-06
1.55799e-06
1.55485e-06
1.55485e-06
1.55485e-06
1.55485e-06
1.55485e-06
1.55485e-06
1.56856e-06
1.56197e-06
1.55254e-06
1.55948e-06
1.55485e-06
1.55485e-06
1.55485e-06
1.55485e-06
1.55485e-06
1.55485e-06
1.56688e-06
1.56145e-06
1.55848e-06
1.55485e-06
1.55485e-06
1.55485e-06
1.55485e-06
1.55485e-06
1.55485e-06
1.57081e-06
1.56269e-06
1.56124e-06
1.57004e-06
1.55485e-06
1.55485e-06
1.55485e-06
1.55485e-06
1.57628e-06
1.56854e-06
1.5595e-06
1.56013e-06
1.56158e-06
1.57191e-06
1.5687e-06
1.56708e-06
1.57071e-06
1.56782e-06
1.57781e-06
1.56008e-06
1.562e-06
1.56144e-06
1.56274e-06
1.55942e-06
1.5378e-06
1.53035e-06
1.53517e-06
1.5325e-06
1.53594e-06
1.53746e-06
1.53625e-06
1.53936e-06
1.53815e-06
1.53484e-06
1.53265e-06
1.5328e-06
1.5328e-06
1.5328e-06
1.5328e-06
1.54805e-06
1.53934e-06
1.53291e-06
1.5328e-06
1.5328e-06
1.5328e-06
1.5328e-06
1.5328e-06
1.53279e-06
1.5497e-06
1.53804e-06
1.53771e-06
1.53593e-06
1.5328e-06
1.5328e-06
1.5328e-06
1.5328e-06
1.5328e-06
1.5328e-06
1.54649e-06
1.53988e-06
1.53046e-06
1.53741e-06
1.5328e-06
1.5328e-06
1.5328e-06
1.5328e-06
1.5328e-06
1.5328e-06
1.54481e-06
1.53937e-06
1.5364e-06
1.5328e-06
1.5328e-06
1.5328e-06
1.5328e-06
1.5328e-06
1.53279e-06
1.54874e-06
1.54062e-06
1.53916e-06
1.54797e-06
1.53279e-06
1.5328e-06
1.5328e-06
1.5328e-06
1.55422e-06
1.54648e-06
1.53743e-06
1.53805e-06
1.53951e-06
1.54984e-06
1.54664e-06
1.54501e-06
1.54865e-06
1.54575e-06
1.55574e-06
1.53799e-06
1.53991e-06
1.53937e-06
1.54066e-06
1.53735e-06
1.51581e-06
1.50836e-06
1.5132e-06
1.51053e-06
1.51394e-06
1.51546e-06
1.51425e-06
1.51736e-06
1.51614e-06
1.51282e-06
1.51072e-06
1.51079e-06
1.51079e-06
1.51079e-06
1.51079e-06
1.52605e-06
1.51734e-06
1.51091e-06
1.51079e-06
1.51079e-06
1.51079e-06
1.51079e-06
1.51079e-06
1.51079e-06
1.52771e-06
1.51605e-06
1.51571e-06
1.51393e-06
1.51079e-06
1.51079e-06
1.51079e-06
1.51079e-06
1.51079e-06
1.51079e-06
1.52451e-06
1.51789e-06
1.50847e-06
1.51541e-06
1.51079e-06
1.51079e-06
1.51079e-06
1.51079e-06
1.51079e-06
1.51079e-06
1.5228e-06
1.51737e-06
1.5144e-06
1.51079e-06
1.51079e-06
1.51079e-06
1.51079e-06
1.51079e-06
1.51079e-06
1.52674e-06
1.51861e-06
1.51715e-06
1.52596e-06
1.51079e-06
1.51079e-06
1.51079e-06
1.51079e-06
1.53221e-06
1.52447e-06
1.51543e-06
1.51604e-06
1.51751e-06
1.52784e-06
1.52458e-06
1.523e-06
1.52664e-06
1.52375e-06
1.53373e-06