/*--------------------------------*- C++ -*----------------------------------*\
| =========                 |                                                 |
| \\      /  F ield         | OpenFOAM: The Open Source CFD Toolbox           |
|  \\    /   O peration     | Version:  v2006                                 |
|   \\  /    A nd           | Website:  www.openfoam.com                      |
|    \\/     M anipulation  |                                                 |
\*---------------------------------------------------------------------------*/
FoamFile
{
    version     2.0;
    format      ascii;
    class       surfaceScalarField;
    location    "875";
    object      phi;
}
// * * * * * * * * * * * * * * * * * * * * * * * * * * * * * * * * * * * * * //

dimensions      [0 3 -1 0 0 0 0];
oriented        oriented;


internalField   nonuniform List<scalar> 
42278
(
-1.34131e-06
-1.34211e-06
6.64313e-07
6.65442e-07
-0.00107194
-1.55276e-06
1.34205e-06
-6.19722e-07
8.6101e-07
-8.16223e-08
4.35893e-07
-7.79532e-07
-1.36705e-06
-2.2005e-07
-0.0010731
6.67403e-07
1.59375e-06
1.55307e-06
-6.59429e-07
-6.70241e-07
0.000262261
-0.000264078
6.68209e-07
-6.25237e-07
9.02664e-07
-7.68219e-08
4.44277e-07
-7.81953e-07
-1.37459e-06
-2.17775e-07
-0.00107264
6.67305e-07
-6.1755e-07
8.61232e-07
-8.41282e-08
4.41206e-07
-7.82239e-07
-1.37241e-06
-2.17628e-07
-0.00107358
-1.5886e-06
1.3408e-06
6.68197e-07
-6.22528e-07
8.97428e-07
-7.93501e-08
4.41497e-07
-7.81784e-07
-1.37167e-06
-2.17634e-07
-0.00107266
-6.6229e-07
-6.67e-07
0.000262243
-0.000264055
-1.23627e-07
6.23328e-07
-8.49481e-08
0.000225549
-0.000225964
7.34979e-07
0.000253307
-6.94605e-07
3.99353e-09
-0.000253351
-3.19282e-10
-1.23382e-07
6.24425e-07
-8.64301e-08
0.000225524
-0.000225938
7.35027e-07
7.05238e-10
0.0002533
2.90419e-09
-6.94516e-07
-0.000253344
6.64397e-07
6.653e-07
-0.00107159
1.23375e-07
4.07748e-07
0.000116157
-0.000116688
-3.39577e-07
-6.24264e-07
6.75166e-07
3.48729e-07
0.000266928
-0.000266988
4.0794e-07
0.000116189
-0.000116721
4.07906e-07
0.000116171
-0.000116702
3.40218e-07
5.04017e-07
-1.85222e-07
0.000316838
-0.00031709
3.36793e-07
5.06595e-07
-1.81536e-07
0.000316748
-0.000317002
6.72092e-07
3.52247e-07
-0.000266993
1.38469e-06
4.66885e-07
-1.30737e-06
-1.47842e-06
2.72665e-07
-0.00106799
3.42866e-09
0.000258495
-5.93515e-08
8.06148e-07
-0.000258506
-4.69175e-10
6.75191e-07
3.48737e-07
0.000266891
-0.000266954
2.9948e-09
1.38435e-06
4.63974e-07
-1.30999e-06
-1.47832e-06
2.69898e-07
-0.00106786
2.12231e-09
0.000258485
-6.11137e-08
8.06228e-07
-0.000258498
6.22607e-07
-8.45083e-08
0.000225464
-0.000225879
7.32272e-07
0.00025326
-6.96889e-07
4.06477e-09
-0.000253299
1.38432e-06
4.64151e-07
-1.30997e-06
-1.47807e-06
-0.00106782
-3.40636e-07
6.74509e-07
3.49692e-07
0.000266822
-0.000266883
0.00025846
8.03535e-07
-6.06302e-08
-0.000258469
5.04118e-07
-1.8354e-07
0.000316705
-0.000316958
-4.08066e-07
5.06827e-07
-1.82648e-07
0.000316835
-0.00031709
1.23207e-07
0.000116176
-0.000116708
-8.63908e-08
0.000225529
-0.000225944
-9.38258e-05
2.49018e-07
2.39125e-07
-2.99252e-07
0.000304821
1.67063e-08
4.95086e-07
-0.000305119
-7.45428e-08
-1.10049e-07
2.45964e-07
-9.4371e-05
1.20703e-08
3.73294e-07
-0.000172191
2.05111e-07
5.14482e-07
-6.48571e-07
5.00082e-09
6.17152e-07
1.79744e-10
-2.08245e-07
0.000204887
-0.000205374
9.59658e-11
-5.61896e-07
0.00025012
6.67382e-07
-0.000250205
-0.000172716
5.38908e-07
-9.38256e-05
2.49785e-07
2.39087e-07
-2.99222e-07
0.000304815
1.72179e-08
4.95646e-07
-0.000305115
-7.43921e-08
-1.10135e-07
5.34167e-07
2.45129e-07
-9.437e-05
1.27942e-08
3.77958e-07
-0.000172187
5.14957e-07
2.0479e-07
4.76958e-09
-6.48619e-07
3.83704e-10
6.17245e-07
-5.61953e-07
0.000250111
6.67828e-07
-0.000250197
-2.07746e-07
0.000204881
-6.10435e-11
-0.000205368
-0.000172711
5.39447e-07
1.3025e-11
1.0986e-07
3.69212e-07
3.69272e-07
3.68962e-07
-0.000244621
-5.86969e-07
4.06356e-07
-2.81729e-07
4.2473e-07
-4.77986e-07
0.000264884
5.76387e-07
3.59136e-07
-0.000264837
6.46792e-07
0.000213509
-3.52981e-07
-0.000213988
-1.53429e-07
4.15995e-07
-3.24927e-07
5.39423e-07
-0.000244667
4.00466e-07
2.76259e-07
-0.000244564
-5.85135e-07
4.08722e-07
-2.84697e-07
4.23536e-07
-4.74726e-07
0.000264774
5.76052e-07
3.5355e-07
-0.000264722
6.48891e-07
0.000213452
-3.53066e-07
-0.000213929
-1.57237e-07
4.13524e-07
2.9437e-07
-3.23053e-07
5.42978e-07
-0.00024461
-3.29365e-07
4.00408e-07
2.81305e-07
-0.000252049
-1.37343e-07
1.58175e-07
-9.71073e-05
1.58134e-07
9.65808e-05
-9.7092e-05
-0.00025238
-9.37713e-05
2.48684e-07
2.3895e-07
-2.98614e-07
0.000304672
1.65091e-08
4.939e-07
-0.000304968
-7.47461e-08
5.34184e-07
2.46024e-07
-9.43159e-05
1.19921e-08
3.73498e-07
2.05091e-07
-0.000172098
5.11832e-07
-6.46273e-07
5.24473e-09
6.19963e-07
0.000204838
-2.08409e-07
-0.000205326
-5.63729e-07
0.000250007
6.66923e-07
-0.000250089
-0.000172624
5.38866e-07
-5.86757e-07
-0.000244557
4.09059e-07
-2.82228e-07
4.28093e-07
-4.73354e-07
0.000264729
5.73356e-07
3.55854e-07
-0.000264681
0.000213453
6.46377e-07
-3.54673e-07
-0.000213928
-1.5679e-07
4.15742e-07
2.91719e-07
-3.22505e-07
5.3719e-07
-0.000244599
4.02992e-07
2.78834e-07
4.09262e-07
-0.000244626
-5.84132e-07
-2.84153e-07
4.22204e-07
0.000264894
-4.73466e-07
5.76228e-07
3.58234e-07
-0.000264848
6.48588e-07
0.000213516
-3.54475e-07
-0.000213992
4.13065e-07
-1.5747e-07
-3.68906e-07
2.91679e-07
4.0035e-07
2.76114e-07
-3.1952e-07
5.41013e-07
-0.000244672
-3.29606e-07
-0.000252049
-1.37034e-07
1.57359e-07
-9.70925e-05
1.57492e-07
9.65959e-05
-9.71079e-05
-0.000252376
1.1014e-07
2.49842e-07
-9.38287e-05
2.39239e-07
0.000304824
-2.99002e-07
4.98172e-07
-0.000305127
1.72946e-08
-7.41587e-08
5.33884e-07
3.7473e-07
1.26231e-08
-9.43728e-05
2.45108e-07
6.85439e-07
-0.00107531
4.93158e-10
6.86014e-07
1.49694e-10
-0.00107572
-1.26482e-10
-0.00108182
-1.06804e-11
-0.000253493
3.02811e-07
3.05676e-07
-5.5276e-07
0.000262019
-0.000262175
-5.50982e-07
0.000262442
-0.000262603
-1.8744e-07
-1.77203e-07
-0.000253514
3.05157e-07
-0.000253483
3.03281e-07
-5.52972e-07
0.000262394
-0.000262552
0.000262034
-5.49474e-07
-0.000262195
-1.79765e-07
-1.84968e-07
-0.000253507
6.85255e-07
-0.00107497
6.85881e-07
-1.38426e-06
-0.0010754
3.78608e-10
-0.00108127
-5.41462e-11
-0.000265501
-2.0821e-07
-3.06017e-07
1.16488e-07
2.33689e-07
0.000266465
-0.000266445
7.30014e-07
0.000266639
1.65088e-07
-0.000266687
3.91679e-07
3.29632e-07
1.39302e-07
-0.000266043
1.59069e-07
-3.10659e-07
-0.00026549
-2.08335e-07
1.26798e-07
2.34166e-07
0.000266449
-0.000266434
0.000266644
7.23602e-07
1.6219e-07
-0.000266683
1.6161e-07
1.2915e-07
-0.000266036
-3.74409e-07
-0.000263192
5.61351e-08
-6.19454e-08
4.22316e-07
1.73782e-09
0.000260365
7.98315e-07
-0.000260393
-5.357e-08
0.000261729
-0.000262174
-2.64468e-09
-0.000263796
5.32024e-09
-3.06193e-07
-0.0002655
-2.081e-07
1.13969e-07
2.33839e-07
0.000266437
-0.000266424
0.000266623
7.30122e-07
1.62584e-07
-0.000266672
3.296e-07
3.91868e-07
1.61734e-07
1.41853e-07
-0.000266051
-3.72044e-07
-0.000263183
5.21194e-08
-6.12551e-08
4.22445e-07
-2.64358e-10
0.000260352
8.01237e-07
-0.000260384
-5.82001e-08
0.000261723
7.3856e-09
-0.000262176
-0.000263777
-0.000265415
-3.05323e-07
-2.10896e-07
1.26715e-07
2.31312e-07
0.00026636
-0.000266343
7.28432e-07
0.000266525
1.61953e-07
-0.000266572
3.2979e-07
3.91766e-07
1.28924e-07
-0.000265956
1.61457e-07
-0.000263122
-3.74341e-07
-6.18176e-08
-5.61974e-08
-0.000262148
7.97992e-07
0.000260271
-0.000260301
-0.000263729
-0.00104223
-1.45853e-05
-1.44545e-05
9.30208e-06
9.17292e-06
0.00105279
-0.00026145
-5.64161e-06
1.44815e-05
6.83424e-06
0.00105937
-4.53257e-06
-1.62224e-06
-2.21533e-06
-2.5781e-06
-6.5915e-06
-7.04684e-06
-3.1663e-06
-0.000263298
-0.000259722
-0.000262822
-0.00026145
-5.64167e-06
1.44962e-05
6.86599e-06
0.00105933
-4.53278e-06
-1.62737e-06
-2.21807e-06
-2.58064e-06
-6.59142e-06
-7.04687e-06
-3.16625e-06
-0.00025972
-0.000263298
-0.000262822
-0.000260559
5.61725e-06
5.65981e-06
-4.88072e-06
-4.8719e-06
0.000259035
-1.62177e-06
-1.62825e-06
-0.00106082
8.98315e-07
8.94087e-07
0.00106228
-0.0010626
-1.60653e-06
1.63333e-06
8.1795e-07
0.00106389
-6.53786e-07
7.84506e-07
-1.48118e-07
3.75312e-07
-8.03449e-07
-1.39757e-06
-2.90658e-07
-0.00106252
-1.60414e-06
1.63376e-06
8.28719e-07
0.0010638
-6.53997e-07
7.81632e-07
-1.48298e-07
3.72732e-07
-8.0338e-07
-1.39489e-06
-2.90578e-07
-0.000261521
1.63672e-06
1.59916e-06
-7.08223e-07
-7.16447e-07
0.000259709
5.2165e-06
5.22982e-06
0.000260577
-0.000259171
-5.93213e-06
-5.92036e-06
5.0792e-06
0.000261425
-0.000258697
-5.96238e-06
3.37175e-06
-5.22657e-06
5.07642e-06
0.000261427
-0.000258689
-5.96967e-06
3.38174e-06
5.22193e-06
0.000260567
-0.000259166
-5.90054e-06
-5.94896e-06
5.06716e-06
0.000261481
-0.000258714
-5.96768e-06
3.36396e-06
5.07643e-06
-5.23169e-06
0.000261427
-0.000258686
3.38432e-06
-5.9697e-06
1.06709e-05
1.06176e-05
-0.000252649
-0.000256081
-0.000255118
-0.000255118
-6.415e-06
-4.12538e-06
-6.6599e-06
-6.41778e-06
-4.12093e-06
-6.66524e-06
-5.07456e-06
0.00104219
1.07162e-05
1.06223e-05
-0.000252649
-0.000256074
-0.000255118
-0.000255116
-6.41719e-06
-4.1252e-06
-6.66491e-06
-6.42017e-06
-4.12596e-06
-6.66277e-06
-5.07462e-06
0.00104215
1.07287e-05
1.06429e-05
-0.000252646
-0.000256079
-0.000255113
-0.000255118
-6.4199e-06
-4.12775e-06
-6.66486e-06
-6.41776e-06
-4.12333e-06
-6.66519e-06
-5.08391e-06
-5.07435e-06
0.00104213
1.07311e-05
1.06754e-05
-0.000252646
-0.000256074
-0.000255113
-0.000255118
-6.41974e-06
-4.13031e-06
-6.66751e-06
-6.41742e-06
-4.12575e-06
-6.66766e-06
-0.000258704
-5.95991e-06
3.36138e-06
-5.22384e-06
0.000261404
-0.000258679
3.37909e-06
-5.96448e-06
5.22202e-06
0.000260564
-0.000259168
-5.90055e-06
-5.94905e-06
-0.000258707
3.36654e-06
-5.9625e-06
-5.23465e-06
0.000261458
-0.000258707
3.37654e-06
-5.96724e-06
-0.000259166
-5.9318e-06
-5.92003e-06
5.61239e-06
5.65507e-06
-4.87347e-06
-4.86966e-06
0.000259053
-7.85852e-07
-7.4211e-07
0.000261556
-0.000259472
-2.82096e-07
-2.74704e-07
7.02672e-06
0.00105893
-4.52754e-06
-1.57318e-06
-2.20763e-06
-2.57741e-06
-6.60922e-06
-7.05156e-06
-3.17124e-06
-0.000263277
-0.000259697
-0.000262814
-5.63049e-06
1.45484e-05
7.09956e-06
0.00105906
-4.55432e-06
-1.57834e-06
-2.221e-06
-2.58666e-06
-6.63155e-06
-7.06033e-06
-3.18853e-06
-0.00026332
-0.000259694
-0.000262811
0.00106206
2.0343e-06
-0.00106101
9.68546e-07
-1.72569e-06
-1.66541e-07
-6.92107e-07
-1.46839e-06
-3.07744e-07
-8.28278e-07
3.45979e-07
7.83244e-07
0.00106218
2.02914e-06
-0.00106113
9.73837e-07
-1.72078e-06
-1.64169e-07
-6.95051e-07
-1.47071e-06
-3.07575e-07
-8.28251e-07
3.48608e-07
-4.87875e-06
-4.87165e-06
0.000259045
-7.47301e-07
0.000261557
-0.000259469
-2.82146e-07
-2.74663e-07
6.80835e-06
0.00105969
-4.55198e-06
-1.63779e-06
-2.22902e-06
-2.58571e-06
-6.61977e-06
-7.06239e-06
-3.17903e-06
-0.000263364
-0.00025974
-0.00026285
-5.62802e-06
1.45638e-05
7.12314e-06
0.00105901
-4.54921e-06
-1.58093e-06
-2.22103e-06
-2.58693e-06
-6.63414e-06
-7.06063e-06
-3.18594e-06
-0.000259692
-0.000263323
-0.000262809
0.00106299
2.03642e-06
-0.00106192
9.67027e-07
-1.68818e-06
-1.71579e-07
-6.9246e-07
-1.46837e-06
-3.10055e-07
-8.25641e-07
3.43053e-07
7.77889e-07
0.0010621
2.03439e-06
-0.00106104
9.79248e-07
-1.72092e-06
-1.69337e-07
-6.95263e-07
-1.46827e-06
-3.09932e-07
-8.28052e-07
3.43139e-07
1.46119e-05
7.11499e-06
0.00105874
-4.52978e-06
-1.58068e-06
-2.21255e-06
-2.58192e-06
-6.60587e-06
-3.17327e-06
-7.04765e-06
-0.000259676
-0.000263259
-0.00026278
2.02605e-06
-0.00106154
9.67281e-07
-1.68791e-06
-1.71392e-07
-6.86886e-07
-1.46586e-06
-3.05189e-07
3.42922e-07
-8.28288e-07
7.75094e-07
0.00106178
2.0293e-06
-0.00106073
9.84189e-07
-1.71814e-06
-1.69156e-07
-6.92286e-07
-1.46292e-06
-3.07535e-07
-8.28017e-07
3.37801e-07
-4.87871e-06
-4.86923e-06
0.000259043
-7.41799e-07
0.000261536
-0.000259462
-2.79934e-07
-2.7479e-07
1.4486e-05
6.90001e-06
0.00105949
-4.55692e-06
-1.64276e-06
-2.23138e-06
-2.58752e-06
-6.61887e-06
-3.17853e-06
-7.05832e-06
-0.000259722
-0.000263341
-0.000262821
2.03667e-06
-0.00106147
9.67714e-07
-1.68807e-06
-1.69092e-07
-6.92337e-07
-1.46327e-06
-3.07658e-07
3.40345e-07
-8.25762e-07
7.3917e-07
0.0010627
2.03678e-06
-0.00106164
9.72595e-07
-1.68065e-06
-1.71677e-07
-6.89966e-07
-1.46551e-06
-3.07477e-07
-8.2817e-07
3.40247e-07
-0.000259444
-2.8515e-07
-2.77592e-07
1.64439e-06
1.60423e-06
-7.10483e-07
-7.16372e-07
0.000259735
8.24371e-07
0.00106334
-6.58991e-07
8.25726e-07
-1.40779e-07
3.80949e-07
-8.00838e-07
-1.40011e-06
-2.90662e-07
-1.64206e-06
1.63194e-06
8.24479e-07
0.00106346
-6.59292e-07
8.20503e-07
-1.43385e-07
3.83625e-07
-8.03314e-07
-1.40243e-06
-2.88045e-07
-7.08389e-07
-7.1848e-07
0.000259735
8.22933e-07
0.00106427
-6.54097e-07
7.84594e-07
-1.48267e-07
3.78024e-07
-8.00869e-07
-1.3949e-06
-2.90575e-07
-1.63698e-06
1.6321e-06
8.3e-07
0.00106337
-6.56808e-07
8.15183e-07
-1.43503e-07
3.80747e-07
-8.00606e-07
-1.39999e-06
-2.90395e-07
1.64255e-06
8.24644e-07
0.00106305
-6.56446e-07
8.15016e-07
-1.45846e-07
3.72801e-07
-8.00551e-07
-2.92897e-07
-1.39212e-06
-7.13789e-07
-7.16015e-07
0.000259725
1.63369e-06
8.2854e-07
0.00106398
-6.54144e-07
7.71149e-07
-1.50845e-07
3.75318e-07
-8.00714e-07
-2.90423e-07
-1.39463e-06
-2.45613e-10
-5.02574e-10
0.000250244
-1.19362e-07
-1.19619e-07
-2.31565e-06
-2.31565e-06
0.000250605
8.7577e-07
8.75761e-07
-6.83606e-07
-7.32607e-10
0.000250425
4.20718e-07
-1.9993e-07
-6.83617e-07
-9.49542e-10
0.000250424
4.20729e-07
-1.99419e-07
-6.2914e-09
0.000252005
-1.1664e-06
1.87718e-05
-1.23871e-05
-1.26918e-06
-7.6247e-06
-5.37062e-06
-1.98853e-07
-5.38977e-06
-1.37238e-07
-4.21764e-06
2.31565e-06
0.000250742
-6.44663e-06
2.79019e-06
-1.0541e-06
6.51265e-05
-2.03296e-06
8.38987e-07
-6.46116e-05
1.73322e-06
6.8362e-07
-1.28723e-09
0.000250536
-1.47883e-06
-4.53983e-07
-6.21452e-09
0.000252005
-1.16639e-06
1.87718e-05
-1.23871e-05
-1.26917e-06
-7.6247e-06
-5.37063e-06
-1.98858e-07
-5.38977e-06
-1.37369e-07
2.31565e-06
-4.21766e-06
0.000250742
2.7902e-06
-6.44663e-06
6.83621e-07
-1.15032e-09
0.000250536
-1.47883e-06
-4.54243e-07
-1.0541e-06
6.51265e-05
-2.03303e-06
8.39005e-07
-6.46116e-05
1.73325e-06
4.21766e-06
4.21766e-06
0.000250966
-1.59095e-05
-1.59095e-05
1.05413e-06
6.59487e-05
-2.85882e-07
-1.25e-06
-6.57133e-05
1.99125e-06
-3.19753e-07
-7.53639e-07
-6.71514e-07
1.05412e-06
6.59487e-05
-2.85881e-07
-1.25001e-06
-6.57145e-05
1.99253e-06
-3.19754e-07
-7.5364e-07
-6.71515e-07
-3.35838e-09
9.71293e-07
0.000253002
-0.000253167
-7.51788e-07
-5.07689e-08
-0.000241721
-2.30428e-06
5.41122e-06
2.243e-06
0.000236371
-0.00025426
-1.71906e-08
3.37979e-06
0.00025388
-2.36847e-06
-6.13679e-07
-1.7256e-07
6.2498e-07
0.000233054
-4.99395e-08
-0.000233456
-0.000142662
2.30901e-06
5.57817e-06
0.000134774
1.72958e-07
6.13581e-07
0.000130833
-0.00013162
9.71422e-07
-3.60435e-09
0.000252995
-0.000253158
-5.00857e-08
-7.54414e-07
-0.0002417
-2.30135e-06
5.41068e-06
2.24347e-06
0.000236347
-0.000254251
3.37828e-06
-1.73166e-08
0.000253876
-6.13319e-07
-2.37218e-06
-1.726e-07
6.29346e-07
0.000233025
-5.0312e-08
-0.000233431
9.34237e-06
9.20268e-06
0.00105267
9.37785e-06
9.23863e-06
0.0010526
9.3725e-06
9.23838e-06
0.00105262
-0.00105931
1.27915e-06
1.28043e-06
0.00106064
-0.00105915
1.27921e-06
1.28034e-06
0.00106048
-0.00105899
1.28978e-06
1.28584e-06
0.00106049
-0.00105902
1.29501e-06
1.29622e-06
-9.71435e-07
-5.86409e-09
0.000256206
-0.0002562
-1.4988e-07
1.1217e-06
-0.000267593
-3.22311e-06
-5.41054e-06
5.75181e-06
2.55038e-06
0.000267924
0.00105196
-0.00104532
-8.76171e-08
1.66005e-05
-2.22813e-06
-5.76418e-06
-6.01826e-06
-2.31274e-06
3.51642e-06
1.59944e-08
0.0010609
7.21759e-06
-3.12296e-06
-9.36295e-07
-2.24742e-06
-4.05808e-07
-3.09597e-06
-6.86936e-07
-1.787e-06
-0.000256834
-3.37325e-06
-1.49218e-08
0.000256591
-7.64222e-07
4.39563e-06
-5.33307e-07
-6.24319e-07
0.000266094
5.89657e-07
-0.000266374
8.47269e-07
-6.64457e-08
0.00105462
8.26885e-06
-3.22e-06
-6.2584e-07
-3.0864e-06
-4.12666e-07
-0.000142651
2.30826e-06
5.57484e-06
0.000134767
1.72299e-07
6.17186e-07
0.000130823
-0.000131613
-4.25309e-09
-9.74227e-07
0.000256199
-0.000256192
1.12174e-06
-1.50521e-07
0.0010519
-0.00104529
-2.49656e-08
1.66147e-05
-2.23319e-06
-5.76665e-06
-6.02074e-06
-2.31771e-06
-0.000267593
-3.22085e-06
-5.40779e-06
5.75167e-06
2.54786e-06
0.000267922
3.52726e-06
1.59068e-08
0.00106085
7.23281e-06
-3.1255e-06
-9.38756e-07
-2.24738e-06
-4.05762e-07
-3.0986e-06
-6.86954e-07
-1.78702e-06
-0.000256834
-1.39939e-08
-3.37048e-06
0.000256589
4.39551e-06
-7.65319e-07
-1.70455e-08
0.00105451
8.27826e-06
-3.2174e-06
-6.28363e-07
-3.08374e-06
-4.12605e-07
-5.36033e-07
-6.29281e-07
0.000266095
5.89552e-07
-0.000266366
8.47438e-07
-0.000325837
3.23157e-06
-5.5746e-06
5.27501e-06
1.27027e-07
0.000322778
-0.000325762
3.23116e-06
-5.57727e-06
5.28277e-06
1.2744e-07
0.000322698
-5.35586e-08
-2.3882e-09
0.000261244
-0.000259267
-9.65298e-07
-9.55923e-07
5.36419e-07
-6.14169e-07
0.000319492
-1.70303e-07
-0.000319877
6.33831e-07
5.36003e-07
-6.13988e-07
0.000319404
-1.70171e-07
-0.00031979
6.33836e-07
-1.52283e-10
6.46031e-07
0.000253133
-0.000253066
-6.98267e-07
-1.45716e-08
-0.000231802
-1.57193e-07
6.71227e-07
-1.23831e-07
0.000231412
-0.000252973
-5.34554e-11
7.56085e-07
0.000252988
-7.49867e-07
-2.11495e-08
-1.50414e-07
5.84158e-07
0.000230388
-1.19766e-07
-0.000230702
-0.000127309
1.57245e-07
6.46354e-07
0.000126506
1.50612e-07
5.80114e-07
0.00012424
-0.000124971
6.40889e-07
-1.40093e-10
0.000253129
-0.000253057
-1.46029e-08
-6.9846e-07
-0.000231775
-1.54972e-07
6.68403e-07
-1.2032e-07
0.000231382
-0.000252966
7.56289e-07
1.23886e-10
0.000252981
-2.143e-08
-7.50168e-07
-1.50369e-07
5.86348e-07
0.00023036
-1.20002e-07
-0.000230676
8.98393e-07
8.99181e-07
0.00106211
9.09041e-07
9.04683e-07
0.00106194
9.0393e-07
9.04814e-07
0.00106196
-6.40864e-07
-1.81092e-09
0.00025691
-0.000256654
-6.66467e-08
4.52628e-07
-0.000266135
-4.50065e-07
-6.6835e-07
6.7896e-07
4.4183e-07
0.000266133
0.00105832
-0.001057
-1.70968e-09
1.73729e-06
3.96284e-07
-1.3396e-06
-1.5101e-06
2.11469e-07
7.63478e-07
8.07166e-07
0.00106519
1.50506e-06
-1.36671e-06
-2.70792e-07
-7.89211e-07
3.99725e-07
-1.5792e-06
-1.28048e-07
-6.37816e-07
-0.000256389
-7.53694e-07
1.37806e-09
0.000256387
-7.10858e-08
8.25539e-07
-3.95081e-07
-5.88791e-07
0.000266406
4.13647e-07
-0.000266269
4.332e-07
-5.7867e-09
0.00105969
1.53847e-06
-1.48106e-06
2.3337e-07
-1.30911e-06
4.20595e-07
-0.000127299
1.56801e-07
6.46742e-07
0.000126495
1.50251e-07
5.80621e-07
0.000124232
-0.000124963
-8.0442e-10
-6.46204e-07
-0.000256645
4.50069e-07
-6.69212e-08
0.000256909
0.00105819
-0.00105687
2.47199e-09
1.74242e-06
3.96369e-07
-1.34227e-06
-1.50745e-06
2.14165e-07
-0.000266135
-4.52989e-07
-6.68078e-07
6.78897e-07
4.44535e-07
0.000266133
7.63702e-07
8.07006e-07
0.00106509
1.50531e-06
-1.36406e-06
-2.68225e-07
-7.89114e-07
3.99763e-07
-1.57675e-06
-1.28138e-07
-6.379e-07
-0.000256382
6.96454e-10
-7.56374e-07
0.000256383
8.25537e-07
-7.08526e-08
-3.67047e-09
1.53842e-06
-1.47842e-06
2.30713e-07
-1.30913e-06
4.15351e-07
0.00105956
-3.97845e-07
-5.86087e-07
0.000266401
4.13496e-07
-0.000266267
4.35761e-07
-0.000319334
4.52916e-07
-6.47445e-07
5.12335e-07
-1.99862e-07
0.000319216
-0.000319244
4.50041e-07
-6.47208e-07
5.12261e-07
-1.99787e-07
0.000319128
-8.35137e-07
-7.96467e-07
0.0002621
-0.000260011
-2.31159e-07
-2.26109e-07
3.97798e-07
-5.80502e-07
0.000318957
-1.74385e-07
-0.000319025
4.2508e-07
3.9493e-07
-5.80291e-07
0.000318869
-1.7419e-07
-0.000318932
4.22343e-07
0.000250964
4.21766e-06
4.21765e-06
-1.59095e-05
-1.5907e-05
6.59537e-05
1.05409e-06
-2.86545e-07
-1.25049e-06
-6.57164e-05
1.9925e-06
-3.21009e-07
-7.54346e-07
-6.71494e-07
6.59487e-05
1.0541e-06
-2.85885e-07
-1.24996e-06
-6.57145e-05
1.99254e-06
-3.19754e-07
-7.53641e-07
-6.71514e-07
2.96058e-05
1.13757e-05
0.000142676
-2.48435e-05
-5.64334e-05
-5.15263e-05
-5.08547e-05
5.04812e-07
2.50252e-07
-1.65347e-05
-1.571e-07
-2.0995e-07
1.61467e-05
2.96025e-05
1.13729e-05
0.000142659
-2.48429e-05
-5.64233e-05
-5.15146e-05
-5.08538e-05
5.04816e-07
2.49636e-07
-1.65335e-05
-1.57096e-07
-2.10613e-07
1.61467e-05
3.10091e-06
3.10091e-06
0.000253159
-4.1969e-06
-4.19965e-06
7.01572e-06
0.000325857
8.05369e-06
-0.00031288
1.55945e-06
7.01762e-06
0.000325785
8.07872e-06
-0.000312827
1.54782e-06
8.98097e-07
-4.04998e-07
-6.65021e-08
-1.30131e-07
-1.03982e-06
2.07637e-06
6.51255e-05
8.96785e-07
-4.05005e-07
-6.65063e-08
-1.30128e-07
-1.03985e-06
2.07508e-06
6.51231e-05
-6.30331e-09
0.000252004
-1.16638e-06
1.87718e-05
-1.2387e-05
-1.26916e-06
-7.62472e-06
-5.37063e-06
-1.98601e-07
-5.38977e-06
-1.37125e-07
0.000250742
-6.44662e-06
2.79021e-06
6.5129e-05
-2.03481e-06
8.377e-07
-6.46122e-05
1.73445e-06
-1.17829e-09
0.000250537
-1.47881e-06
-4.54249e-07
0.000251999
-1.16637e-06
1.87717e-05
-1.23867e-05
-1.26911e-06
-7.62479e-06
-5.37142e-06
-2.01858e-07
-5.39079e-06
-1.39735e-07
0.00025074
-4.21766e-06
2.31564e-06
-6.44656e-06
2.79266e-06
6.5129e-05
-1.05405e-06
-2.03422e-06
8.37723e-07
-6.46129e-05
1.73444e-06
0.000250536
6.83604e-07
-1.47881e-06
-4.56489e-07
-6.30028e-09
1.79634e-06
-6.31142e-05
-1.71685e-06
-1.63524e-07
6.32046e-05
1.33167e-05
-0.000247199
3.53682e-06
1.48814e-06
-6.60652e-05
4.67262e-07
6.4488e-05
-8.76306e-08
-9.63402e-09
-2.74151e-09
6.56361e-08
-2.48942e-08
9.201e-08
-1.60612e-07
-2.31505e-08
5.16661e-06
-0.000253283
-5.22206e-06
-8.9828e-07
1.7963e-06
-6.31134e-05
-1.71677e-06
-1.74963e-07
6.32025e-05
1.33154e-05
-1.13897e-05
0.000241677
-0.00024717
3.56696e-06
1.48814e-06
-2.50251e-07
-6.60672e-05
4.6727e-07
6.4488e-05
-8.76195e-08
-9.63542e-09
-2.72599e-09
6.55871e-08
-2.48378e-08
9.26282e-08
-1.59312e-07
5.16552e-06
0.000254221
-0.000253243
-5.21913e-06
-9.4817e-07
-1.71836e-08
-1.36133e-06
5.92861e-06
0.000254964
-1.98438e-06
-1.79939e-06
-1.92932e-06
2.77488e-06
0.00025288
-3.98481e-06
2.17301e-06
0.000267603
9.2116e-06
-0.000260755
4.27301e-06
-5.44561e-08
2.13291e-05
0.00104533
-0.000257257
-0.0002535
-0.000256979
-0.000255136
-9.43501e-06
-5.88313e-06
-9.24604e-06
-6.66644e-06
-4.0182e-06
-1.82378e-06
-4.02715e-06
-2.63546e-06
8.36469e-07
1.93375e-06
6.4745e-05
-3.4999e-09
1.95186e-06
-2.82928e-06
-6.22368e-07
0.00025204
-1.96687e-08
0.000256838
-0.000256464
-1.06739e-06
5.88011e-06
-1.39078e-06
5.92851e-06
0.000254953
-1.98422e-06
-1.79932e-06
-1.92905e-06
-3.10597e-06
2.77485e-06
0.00025288
-3.98716e-06
2.17795e-06
-7.02595e-06
0.000267546
9.22563e-06
-0.000260724
4.29395e-06
2.13335e-05
0.00104529
-0.000257258
-0.000253497
-0.000256979
-0.000255133
-9.43409e-06
-5.88281e-06
-9.2457e-06
-6.6706e-06
-4.03821e-06
-1.83867e-06
-4.04454e-06
-2.65786e-06
-8.99403e-07
8.37771e-07
1.93371e-06
6.4745e-05
1.95185e-06
-2.82927e-06
-6.28838e-07
0.000252039
0.000256816
-0.000256441
-1.10819e-06
5.8795e-06
0.000250966
-1.59095e-05
-1.59095e-05
6.59537e-05
-2.86556e-07
-1.25048e-06
-6.57164e-05
1.99251e-06
-3.21014e-07
-7.54306e-07
-6.71509e-07
6.59487e-05
-2.85885e-07
-1.24998e-06
-6.57145e-05
1.99255e-06
-3.19756e-07
-7.53643e-07
-6.71517e-07
2.95984e-05
-2.4843e-05
-5.64289e-05
-5.08545e-05
-5.15233e-05
5.04815e-07
-1.65347e-05
-1.57748e-07
-2.10593e-07
1.6148e-05
3.10084e-06
0.000253159
-4.19943e-06
-4.19961e-06
0.000325775
8.09608e-06
-0.000312843
1.54515e-06
-2.96008e-05
7.00691e-06
0.00032585
8.03312e-06
-0.000312852
1.56274e-06
-4.04978e-07
-6.65042e-08
-1.30116e-07
-1.03981e-06
2.07629e-06
6.51242e-05
-5.04818e-07
8.96807e-07
-1.0399e-06
2.0751e-06
6.51231e-05
-4.05008e-07
-6.65061e-08
-1.30127e-07
1.13679e-05
0.000142665
-2.48411e-05
-5.64248e-05
-5.15154e-05
-5.08527e-05
2.4964e-07
-1.65335e-05
-1.57102e-07
-2.11242e-07
1.61474e-05
-6.30315e-09
0.000252005
-1.16639e-06
1.87718e-05
-1.2387e-05
-1.26918e-06
-7.62472e-06
-5.37062e-06
-1.9873e-07
-5.38977e-06
-1.37239e-07
0.000250742
-6.44662e-06
2.7902e-06
6.51265e-05
-2.03296e-06
8.38984e-07
-6.46116e-05
1.73322e-06
-1.34471e-09
0.000250536
-1.47883e-06
-4.53984e-07
0.000251999
-1.16638e-06
1.87717e-05
-1.23868e-05
-1.26913e-06
-7.62477e-06
-5.37142e-06
-2.01987e-07
-5.39079e-06
-1.3973e-07
0.00025074
2.31565e-06
-4.21766e-06
2.79266e-06
-6.44657e-06
0.000250536
6.83619e-07
-1.47883e-06
-4.56493e-07
6.51265e-05
-1.05411e-06
-2.03296e-06
8.38991e-07
-6.46116e-05
1.73321e-06
1.79638e-06
-6.25458e-09
-6.31141e-05
-1.63524e-07
-1.71689e-06
6.32044e-05
1.33193e-05
-0.000247184
3.53728e-06
1.48825e-06
-6.60622e-05
4.65954e-07
6.44849e-05
-8.69692e-08
-1.02591e-08
-3.41686e-09
6.56263e-08
-2.49152e-08
9.2657e-08
-1.59961e-07
5.17045e-06
-2.30205e-08
-0.000253281
-8.98868e-07
-5.21879e-06
-1.72852e-08
-1.361e-06
5.93129e-06
0.000254961
-1.98443e-06
-1.79945e-06
-1.92937e-06
2.77746e-06
0.00025288
-3.98984e-06
2.17543e-06
0.000267575
9.22173e-06
-0.000260735
4.27471e-06
-8.15735e-08
2.13348e-05
0.00104535
-0.000257262
-0.000253502
-0.000256981
-0.000255137
-9.44296e-06
-5.88615e-06
-9.2515e-06
-6.67193e-06
-4.01797e-06
-1.80051e-06
-4.02174e-06
-2.63001e-06
8.35166e-07
1.9338e-06
6.47425e-05
-4.19187e-09
1.95192e-06
-2.82936e-06
-6.22334e-07
0.00025204
-2.02455e-08
0.000256834
-0.00025646
-1.06713e-06
5.88345e-06
1.79635e-06
-6.31136e-05
-1.71682e-06
-1.74698e-07
6.32025e-05
1.33172e-05
-1.13826e-05
0.000241658
-0.000247157
3.56431e-06
1.48815e-06
-2.49637e-07
-6.60622e-05
4.6726e-07
6.44836e-05
-8.69696e-08
-1.02608e-08
-3.41743e-09
6.56249e-08
-2.49061e-08
9.26624e-08
-1.59953e-07
5.16677e-06
0.000254214
-0.00025324
-5.21586e-06
-9.47861e-07
5.93117e-06
-1.39056e-06
0.000254951
-1.98428e-06
-1.79937e-06
-1.92911e-06
2.77992e-06
-3.10595e-06
0.000252878
2.17796e-06
-3.98976e-06
2.13438e-05
0.00104527
-0.000257257
-0.000253496
-0.000256977
-0.000255137
-9.43948e-06
-5.88312e-06
-9.25107e-06
-6.67092e-06
-4.03821e-06
-1.84379e-06
-4.04209e-06
-2.66032e-06
-7.02837e-06
0.000267541
9.22773e-06
-0.000260716
4.29322e-06
1.9519e-06
-2.82934e-06
-6.29598e-07
0.000252039
-8.96759e-07
8.36416e-07
1.93501e-06
6.474e-05
0.000256811
-0.000256436
5.88021e-06
-1.10837e-06
-4.89872e-10
0.000250244
-1.19362e-07
-1.20119e-07
0.000250602
8.78278e-07
8.75748e-07
0.000250424
4.20718e-07
-2.01175e-07
-8.94114e-10
0.000250422
4.23231e-07
-1.99418e-07
-2.36127e-10
0.000250244
-1.19619e-07
-1.20373e-07
0.0002506
8.78272e-07
8.78268e-07
0.000250424
4.2073e-07
-2.01179e-07
-6.88668e-10
0.000250422
4.23233e-07
-1.99924e-07
0.000250244
-1.20119e-07
-1.20373e-07
0.0002506
-2.31565e-06
-2.31565e-06
8.78266e-07
8.78268e-07
0.000250422
-6.8362e-07
4.23231e-07
-2.01174e-07
0.000250422
-6.83619e-07
4.23232e-07
-2.01169e-07
-7.54494e-10
-1.63198e-09
-3.40654e-07
-3.41436e-07
0.000250929
0.000252554
1.80144e-06
1.80141e-06
1.02104e-05
-2.77658e-08
-0.000252623
-0.000253694
-0.000254494
-0.000251984
0.00103461
1.02236e-05
-6.31234e-08
-0.000252622
-0.000253695
-0.000254491
-0.000251983
0.00103458
-2.20643e-09
1.20838e-06
-4.93429e-07
0.000251664
-3.07363e-09
1.20843e-06
-4.93401e-07
0.000251664
-1.56635e-08
-4.09867e-08
-0.000252868
-0.000251793
-0.000252298
-0.000252303
0.00102975
-1.59355e-09
-3.40902e-07
-3.4269e-07
0.000250929
-2.77995e-06
0.000252552
1.80396e-06
1.80136e-06
1.02104e-05
-0.000252626
-0.000253691
-0.000254489
-0.000251982
0.0010346
1.02463e-05
-5.81863e-08
-2.13373e-05
-0.000252619
-0.000253692
-0.00025198
-0.000254488
0.00103455
1.20837e-06
-4.97423e-07
0.000251663
-2.88898e-09
-1.95193e-06
1.20593e-06
-4.93393e-07
0.000251664
-3.92672e-08
-0.000252871
-0.000251792
-0.000252297
-0.000252304
0.00102974
-7.23066e-10
-3.41435e-07
-3.43459e-07
0.000250928
-2.77998e-06
0.000252557
1.80397e-06
1.79891e-06
1.02283e-05
-0.000252624
-0.000253689
-0.000254494
-0.000251979
0.00103457
1.02614e-05
-2.29238e-08
-2.13443e-05
-0.00025262
-0.000253693
-0.000251979
-0.000254489
0.00103453
1.20842e-06
-4.98441e-07
0.000251663
-2.04184e-09
-1.95193e-06
1.20844e-06
-4.93674e-07
0.000251661
-1.39715e-08
-0.000252869
-0.00025179
-0.000252299
-0.000252301
0.00102972
-3.42687e-07
-3.43458e-07
0.000250928
-2.77992e-06
-2.77993e-06
0.000252552
1.80393e-06
1.80392e-06
1.0251e-05
-2.13488e-05
-0.000252622
-0.000253687
-0.000251979
-0.000254485
0.00103454
1.02614e-05
-2.1349e-05
-0.000252622
-0.000253691
-0.000251977
-0.000254489
0.00103452
-1.95191e-06
1.20592e-06
-4.98184e-07
0.000251663
-1.95192e-06
1.20843e-06
-4.97413e-07
0.000251661
-0.00025287
-0.000251789
-0.000252298
-0.0002523
0.00102972
0.000251999
-1.16639e-06
1.87717e-05
-1.23867e-05
-1.26912e-06
-7.62479e-06
-5.37142e-06
-2.01978e-07
-5.39079e-06
-1.39724e-07
0.00025074
2.79265e-06
-6.44658e-06
0.000250536
-1.47883e-06
-4.5649e-07
6.51265e-05
-2.03296e-06
8.39001e-07
-6.46116e-05
1.73321e-06
-1.79643e-06
-1.71977e-08
-1.36108e-06
5.93136e-06
0.000254961
-1.98447e-06
-1.79947e-06
-1.9294e-06
0.00025288
-3.98989e-06
2.17293e-06
-1.33192e-05
9.20399e-06
-0.00026074
4.26929e-06
-7.72271e-08
-0.000257262
-0.000253501
-0.000255134
-0.00025698
-9.4354e-06
-5.88363e-06
-6.66685e-06
-9.24644e-06
-4.01278e-06
-1.80308e-06
-2.62992e-06
-4.01918e-06
-1.48825e-06
8.35175e-07
1.93381e-06
6.47425e-05
-3.99956e-09
-2.82938e-06
-6.2233e-07
0.00025204
-5.16565e-06
-2.00105e-08
-0.000256461
-1.06598e-06
5.87845e-06
-6.30359e-09
-6.31143e-05
-1.63393e-07
-1.71694e-06
6.32046e-05
0.0002417
-0.000247189
3.53729e-06
-6.60622e-05
4.65965e-07
6.44849e-05
-8.69753e-08
-1.02619e-08
-3.41896e-09
6.56236e-08
-2.49143e-08
9.26612e-08
-1.59961e-07
-2.29772e-08
0.000254255
-0.000253283
-8.97532e-07
-5.21665e-06
-1.79637e-06
5.93123e-06
-1.39054e-06
0.000254951
-1.98428e-06
-1.79939e-06
-1.92909e-06
-3.10592e-06
0.000252878
2.17795e-06
-3.98976e-06
0.00104523
-0.000257253
-0.000253495
-0.000255133
-0.000256976
-9.43433e-06
-5.88063e-06
-9.24603e-06
-6.66081e-06
-4.03819e-06
-1.84116e-06
-4.04199e-06
-2.65506e-06
-1.33118e-05
-7.02321e-06
0.000267558
9.21002e-06
-0.000260726
4.29297e-06
-2.82936e-06
-6.29089e-07
0.000252039
-1.48815e-06
-8.96783e-07
8.36428e-07
1.93502e-06
6.474e-05
-5.16198e-06
0.000256813
-0.00025644
5.87525e-06
-1.10634e-06
-6.31136e-05
-1.71683e-06
-1.74814e-07
6.32026e-05
-1.13805e-05
0.000241661
-0.000247156
3.56446e-06
-2.49645e-07
-6.60628e-05